# vtk DataFile Version 3.0
LIGGGHTS particles timestep 400000
ASCII
DATASET POLYDATA
POINTS 75 float
0.0207905 0.0233518 0.0145171
0.0166774 0.0221625 0.0157638
0.0230384 0.0201199 0.0183457
0.0162651 0.016918 0.0163015
0.0206385 0.0139993 0.013355
0.0151917 0.0157619 0.01716
0.0168231 0.0142006 0.0135281
0.023253 0.0189513 0.0176408
0.0205278 0.0240725 0.013
0.0175224 0.0234364 0.0125101
0.015043 0.01872 0.0189772
0.0189115 0.0233196 0.012744
0.0149405 0.0231771 0.0147628
0.0170254 0.0230763 0.0187019
0.0205274 0.0170344 0.0196657
0.0163958 0.0165892 0.0178835
0.0216076 0.0238916 0.0135523
0.0194533 0.0230135 0.0135199
0.0189598 0.0244108 0.0136506
0.0208364 0.0146292 0.0120721
0.0184697 0.0230529 0.0135625
0.0186229 0.015221 0.0215093
0.0171049 0.0240234 0.0133103
0.0200415 0.0146997 0.0126747
0.0210221 0.01487 0.0130473
0.0170528 0.0209794 0.0211698
0.0189866 0.0234885 0.0117923
0.0197734 0.0155791 0.0144647
0.0169983 0.0195512 0.0167412
0.0198549 0.0232642 0.014859
0.0173861 0.0220825 0.0167311
0.0188639 0.0224828 0.0143381
0.0215971 0.0220678 0.0158182
0.0172296 0.0234092 0.0114546
0.0186028 0.0216405 0.0151107
0.0199802 0.0238016 0.0137804
0.0193701 0.0162884 0.0155478
0.0193277 0.0184298 0.0158989
0.0224625 0.0212991 0.0162645
0.0224125 0.0236458 0.0140812
0.0165187 0.0211107 0.016343
0.0198268 0.0150946 0.0135788
0.0149206 0.0224653 0.0154648
0.0186277 0.0172272 0.0196135
0.0219976 0.0231177 0.014822
0.0199787 0.0216175 0.0198397
0.0222856 0.0184604 0.0167844
0.0204544 0.0148469 0.020499
0.0176569 0.0212118 0.0163149
0.0198653 0.0223352 0.0144902
0.0157658 0.0180083 0.0192645
0.0195504 0.0240632 0.012858
0.021157 0.0227548 0.0152408
0.017873 0.0228951 0.0143022
0.0221414 0.0221204 0.0208569
0.0234002 0.018439 0.0201411
0.0162996 0.023733 0.0139105
0.0182277 0.0240743 0.0130368
0.0206845 0.0179397 0.0168022
0.0180843 0.0234216 0.0114197
0.0156991 0.0219836 0.0158671
0.0208235 0.0242243 0.0140649
0.0220639 0.0204455 0.0218369
0.0196116 0.0140019 0.0132528
0.0218413 0.0145412 0.0135237
0.022049 0.0186735 0.0195383
0.0223433 0.0183719 0.0214114
0.0214173 0.0219735 0.0168065
0.0174018 0.0210962 0.0184392
0.0232862 0.0231836 0.0148265
0.0169242 0.0194627 0.0217031
0.015107 0.01696 0.0211215
0.0183301 0.0220896 0.0202795
0.0191114 0.0236994 0.0143519
0.0180391 0.0196979 0.0200069

VERTICES 75 150
1 0
1 1
1 2
1 3
1 4
1 5
1 6
1 7
1 8
1 9
1 10
1 11
1 12
1 13
1 14
1 15
1 16
1 17
1 18
1 19
1 20
1 21
1 22
1 23
1 24
1 25
1 26
1 27
1 28
1 29
1 30
1 31
1 32
1 33
1 34
1 35
1 36
1 37
1 38
1 39
1 40
1 41
1 42
1 43
1 44
1 45
1 46
1 47
1 48
1 49
1 50
1 51
1 52
1 53
1 54
1 55
1 56
1 57
1 58
1 59
1 60
1 61
1 62
1 63
1 64
1 65
1 66
1 67
1 68
1 69
1 70
1 71
1 72
1 73
1 74

POINT_DATA 75
SCALARS id int 1
LOOKUP_TABLE default
1
2
3
4
5
6
7
8
9
10
11
12
13
14
15
16
17
18
19
20
21
22
23
24
25
26
27
28
29
30
31
32
33
34
35
36
37
38
39
40
41
42
43
44
45
46
47
48
49
50
51
52
53
54
55
56
57
58
59
60
61
62
63
64
65
66
67
68
69
70
71
72
73
74
75

SCALARS type int 1
LOOKUP_TABLE default
1
1
1
1
1
1
1
1
1
1
1
1
1
1
1
1
1
1
1
1
1
1
1
1
1
1
1
1
1
1
1
1
1
1
1
1
1
1
1
1
1
1
1
1
1
1
1
1
1
1
1
1
1
1
1
1
1
1
1
1
1
1
1
1
1
1
1
1
1
1
1
1
1
1
1

SCALARS radius float 1
LOOKUP_TABLE default
0.0005
0.0005
0.0005
0.0005
0.0005
0.0005
0.0005
0.0005
0.0005
0.0005
0.0005
0.0005
0.0005
0.0005
0.0005
0.0005
0.0005
0.0005
0.0005
0.0005
0.0005
0.0005
0.0005
0.0005
0.0005
0.0005
0.0005
0.0005
0.0005
0.0005
0.0005
0.0005
0.0005
0.0005
0.0005
0.0005
0.0005
0.0005
0.0005
0.0005
0.0005
0.0005
0.0005
0.0005
0.0005
0.0005
0.0005
0.0005
0.0005
0.0005
0.0005
0.0005
0.0005
0.0005
0.0005
0.0005
0.0005
0.0005
0.0005
0.0005
0.0005
0.0005
0.0005
0.0005
0.0005
0.0005
0.0005
0.0005
0.0005
0.0005
0.0005
0.0005
0.0005
0.0005
0.0005

SCALARS mass float 1
LOOKUP_TABLE default
1.46608e-07
1.46608e-07
1.46608e-07
1.46608e-07
1.46608e-07
1.46608e-07
1.46608e-07
1.46608e-07
1.46608e-07
1.46608e-07
1.46608e-07
1.46608e-07
1.46608e-07
1.46608e-07
1.46608e-07
1.46608e-07
1.46608e-07
1.46608e-07
1.46608e-07
1.46608e-07
1.46608e-07
1.46608e-07
1.46608e-07
1.46608e-07
1.46608e-07
1.46608e-07
1.46608e-07
1.46608e-07
1.46608e-07
1.46608e-07
1.46608e-07
1.46608e-07
1.46608e-07
1.46608e-07
1.46608e-07
1.46608e-07
1.46608e-07
1.46608e-07
1.46608e-07
1.46608e-07
1.46608e-07
1.46608e-07
1.46608e-07
1.46608e-07
1.46608e-07
1.46608e-07
1.46608e-07
1.46608e-07
1.46608e-07
1.46608e-07
1.46608e-07
1.46608e-07
1.46608e-07
1.46608e-07
1.46608e-07
1.46608e-07
1.46608e-07
1.46608e-07
1.46608e-07
1.46608e-07
1.46608e-07
1.46608e-07
1.46608e-07
1.46608e-07
1.46608e-07
1.46608e-07
1.46608e-07
1.46608e-07
1.46608e-07
1.46608e-07
1.46608e-07
1.46608e-07
1.46608e-07
1.46608e-07
1.46608e-07

VECTORS velocity float
0.00240414 0.0150184 -0.0246543
0.00257807 0.0277817 -0.0199664
0.0 0.0 -0.05091
0.00027512 0.01202 0.00360149
-0.00391752 0.00108911 -0.00447161
0.0989514 0.0870387 -0.227107
0.000535154 -0.000749385 0.00168333
0.0 0.0 -0.128144
0.00280412 0.00107942 -0.00397001
0.156419 0.133969 0.385213
0.0 -0.0 -0.03
0.00929014 0.000122802 0.00279495
1.43585e-05 -3.38903e-06 -4.19624e-06
0.0 -0.0 -0.03
0.0 -0.0 -0.03
0.0 0.0 -0.107985
-0.00209455 0.0024284 -0.00569713
0.0135869 -0.00547056 0.00295426
0.543366 0.416623 0.560771
0.00163091 0.00462124 -0.00486298
0.0116763 0.00983829 -0.00249724
0.0 -0.0 -0.03
0.001125 -9.1713e-05 -0.0018896
0.00543042 0.0020582 0.00326652
-0.00141437 0.00114734 0.00660312
0.0 -0.0 -0.03
0.000288425 -0.000149662 0.000665121
0.00298583 -0.00296594 0.00425952
-4.955e-09 0.0246845 -0.00223294
0.054343 -0.119025 0.287407
-0.0161665 0.0622291 -0.0876899
0.00095334 -0.0459191 0.0590434
0.00840408 -0.002397 0.00140904
0.00136088 -0.000235167 -0.0101444
1.13785e-05 0.0233432 -0.0168323
0.00561296 -0.00339612 -0.0035334
0.0120509 0.0194419 -0.0268626
8.06795e-10 0.0203082 0.0028387
-0.000305137 0.026103 -0.0124558
-0.00101152 0.0015548 0.00337695
4.37407e-10 0.0227416 -0.0098204
0.00492247 -0.00105869 -0.00218119
-0.000310693 -0.000963453 -0.000967674
0.0 -0.0 -0.03
-0.00484805 0.00272413 -0.00252441
0.0 -0.0 -0.03
-0.00178068 0.0199409 0.0406735
0.0 -0.0 -0.03
-0.000542639 0.0266325 -0.0119265
0.0277612 -0.0559054 0.0626679
0.0 -0.0 -0.03
0.00530971 -0.000820854 -0.00353234
0.00629533 -0.00338745 0.00812075
0.00151023 0.00993322 -0.0165535
0.0 -0.0 -0.03
0.0 -0.0 -0.03
0.000288286 0.00159124 -0.000866708
0.464256 0.253567 0.546185
0.0 0.0 -0.181314
0.00132303 -0.000144886 -0.00676603
0.00772335 0.00736945 -0.00653569
-0.000112216 0.00699051 -0.00697826
0.0 -0.0 -0.03
-0.0101311 -0.0267386 -0.0465649
0.000934178 -0.000260169 0.00173114
0.0 -0.0 -0.03
0.0 -0.0 -0.03
-0.0387227 0.0386987 -0.00183312
0.0 -0.0 -0.03
-0.00871684 0.00653149 -0.00814332
0.0 -0.0 -0.03
0.0 -0.0 -0.03
0.0 -0.0 -0.03
0.0222065 0.0856347 0.401047
0.0 -0.0 -0.03

VECTORS force float
-6.25735e-05 -6.75083e-06 2.91554e-06
-8.71369e-08 4.58388e-08 -7.07475e-08
0.0 0.0 -1.43822e-06
7.98032e-09 1.64944e-08 1.17306e-08
-3.05492e-07 -9.57417e-07 2.9189e-07
0.0 0.0 -1.43822e-06
6.29263e-09 -1.00717e-08 2.31983e-08
0.0 0.0 -1.43822e-06
1.04942e-05 -3.57278e-06 1.04277e-05
0.0 0.0 -1.43822e-06
0.0 0.0 0.0
-3.37333e-06 3.17522e-06 2.67918e-05
-3.51289e-08 -1.41895e-08 -1.04123e-08
0.0 0.0 0.0
0.0 0.0 0.0
0.0 0.0 -1.43822e-06
-2.10123e-05 2.09745e-05 -8.01451e-05
-2.89598e-05 -1.7142e-05 1.20348e-05
0.0 0.0 -1.43822e-06
2.22824e-07 -1.3002e-06 -1.01393e-06
-2.22735e-05 -1.73396e-05 3.50795e-05
0.0 0.0 0.0
1.53672e-07 5.90401e-08 -1.05326e-07
-4.6908e-07 -7.82159e-08 -1.35948e-06
4.20217e-07 9.04904e-07 -1.57897e-06
0.0 0.0 0.0
7.9579e-06 2.19362e-06 1.77516e-05
0.0 0.0 -1.43822e-06
-1.45239e-14 -1.42194e-09 -1.68497e-08
-2.42751e-05 4.27941e-05 -9.02686e-05
0.0 0.0 -1.43822e-06
0.0 0.0 -1.43822e-06
9.78642e-06 -2.3013e-05 1.70745e-05
8.18609e-08 2.19722e-08 4.42273e-08
1.56842e-10 8.62466e-08 -9.64478e-08
-4.97703e-05 1.62619e-05 -1.37922e-05
0.0 0.0 -1.43822e-06
2.23083e-15 1.86595e-09 -1.3516e-08
1.77191e-09 -2.31884e-08 -1.33252e-08
-6.53857e-05 1.11726e-05 -3.05698e-05
7.97813e-16 -6.80882e-09 -1.54658e-08
0.0 0.0 -1.43822e-06
-8.33238e-09 2.99188e-08 7.65469e-09
0.0 0.0 0.0
5.34147e-07 -1.17845e-06 2.66512e-06
0.0 0.0 0.0
0.0 0.0 -1.43822e-06
0.0 0.0 0.0
1.42609e-08 -1.55377e-07 4.00755e-08
-2.38272e-05 1.07151e-05 2.03665e-05
0.0 0.0 0.0
3.03207e-06 1.79627e-05 5.2837e-05
-9.78642e-06 2.3013e-05 -1.99509e-05
-1.70079e-06 -6.84546e-05 1.07493e-05
0.0 0.0 0.0
0.0 0.0 0.0
1.62043e-09 1.21012e-08 -9.42559e-09
0.0 0.0 -1.43822e-06
0.0 0.0 -1.43822e-06
1.05407e-06 -4.23535e-07 5.46181e-08
5.28846e-09 1.2904e-07 -6.52975e-08
-4.46403e-05 1.7702e-05 -3.62839e-05
0.0 0.0 0.0
0.0 0.0 -1.43822e-06
-3.019e-07 3.48961e-07 -1.08652e-06
0.0 0.0 0.0
0.0 0.0 0.0
0.0 0.0 -1.43822e-06
0.0 0.0 0.0
7.36134e-09 1.16636e-08 -1.91148e-08
0.0 0.0 0.0
0.0 0.0 0.0
0.0 0.0 0.0
2.272e-05 -3.29791e-06 4.14826e-06
0.0 0.0 0.0
