# vtk DataFile Version 3.0
LIGGGHTS particles timestep 1000000
ASCII
DATASET POLYDATA
POINTS 149 float
0.0207872 0.023862 0.0147732
0.0173333 0.0235766 0.014181
0.0238544 0.0227036 0.0152697
0.0163246 0.0229471 0.0160822
0.0216085 0.0142778 0.0137777
0.017431 0.0146214 0.0119958
0.0176349 0.0142386 0.0129004
0.0235392 0.0219321 0.0158679
0.0209386 0.0240136 0.0130319
0.0184576 0.01808 0.00730051
0.0148537 0.0227086 0.0140339
0.0201288 0.0234093 0.011133
0.0157142 0.0234986 0.014333
0.0185431 0.0239306 0.0134232
0.023436 0.0197751 0.0158867
0.0164289 0.0186721 0.0159374
0.0218748 0.0236837 0.0133248
0.0207252 0.023475 0.0117378
0.0192673 0.0244779 0.0136594
0.0224311 0.0162302 0.0149492
0.0188625 0.0199264 0.00729458
0.0185433 0.0146549 0.0129381
0.0172522 0.0240348 0.0131106
0.0214699 0.0205052 0.0157117
0.0221983 0.0171128 0.0155102
0.0180021 0.022946 0.0149876
0.0196957 0.021458 0.00788193
0.0208547 0.0225495 0.0142639
0.0149183 0.023246 0.014883
0.0185336 0.0236817 0.0155135
0.0221585 0.0231469 0.0160113
0.0193757 0.0218267 0.00823189
0.022174 0.0229536 0.0149371
0.0179399 0.0159374 0.00852028
0.0231905 0.0209321 0.0155285
0.0202065 0.024125 0.0136932
0.0206041 0.0230322 0.0134726
0.0204094 0.0233502 0.0124383
0.0228819 0.0226228 0.0155616
0.022594 0.0235915 0.0141468
0.0163911 0.0229634 0.0150064
0.0212502 0.0214723 0.0155795
0.0157108 0.0230597 0.0134384
0.0191866 0.022074 0.0158178
0.0218332 0.0239489 0.0146266
0.0221368 0.0228791 0.0136944
0.0214079 0.0220619 0.0164249
0.0207075 0.0140791 0.0132052
0.0183222 0.0235299 0.0142817
0.021368 0.0234267 0.0122776
0.0158186 0.0225112 0.0143051
0.019941 0.0241284 0.0126677
0.0234071 0.0186335 0.0159373
0.0178312 0.0243911 0.0138798
0.0138085 0.0219974 0.0158776
0.0241778 0.021261 0.0162609
0.0164796 0.0237587 0.013702
0.0184227 0.0241113 0.0125231
0.0212216 0.0231591 0.0130403
0.0192712 0.0193458 0.00714158
0.0165451 0.0239068 0.0146951
0.021195 0.0242782 0.0139529
0.0214679 0.0231872 0.0142622
0.0197438 0.0140147 0.012946
0.0227882 0.0151374 0.0136381
0.0169503 0.0237278 0.016097
0.0225691 0.0224167 0.0165583
0.0215115 0.0224323 0.0155001
0.0154033 0.0229205 0.0156946
0.0231889 0.023379 0.0149393
0.0190071 0.0230787 0.0148705
0.0169149 0.014901 0.0131067
0.0245245 0.022097 0.0157627
0.0196019 0.022428 0.00887807
0.025175 0.0213291 0.0162241
0.0152646 0.0212887 0.0153599
0.0195756 0.0220838 0.0178184
0.0203026 0.022443 0.0167364
0.0243996 0.0198731 0.0170191
0.0159266 0.020927 0.0167097
0.0209237 0.0197951 0.0167365
0.0176193 0.0229951 0.0163807
0.019819 0.0204288 0.0165772
0.0188498 0.0137887 0.0133326
0.0163497 0.0195255 0.0183963
0.0208283 0.0146043 0.0143111
0.0177022 0.0151511 0.0136702
0.0151751 0.0193252 0.0167883
0.0199829 0.0164452 0.0160555
0.0150623 0.0220719 0.0147716
0.0173994 0.0236588 0.0152008
0.0177945 0.0191886 0.0179575
0.0180276 0.0143313 0.0159697
0.0205585 0.0230928 0.0159739
0.0171522 0.0225287 0.0155649
0.0158845 0.0221193 0.0153389
0.0241434 0.0160627 0.0147901
0.0163065 0.0235812 0.0168557
0.0211105 0.0215178 0.0172753
0.015789 0.0205133 0.0157129
0.0202186 0.0221744 0.0157731
0.016508 0.0219443 0.0161142
0.0200869 0.0238334 0.0154872
0.0167201 0.0153579 0.0139746
0.0141714 0.0227285 0.0152999
0.0191399 0.024018 0.0145401
0.0228234 0.0225102 0.0143185
0.0186184 0.0153784 0.0140002
0.0175097 0.015723 0.0144676
0.016865 0.0203348 0.0157613
0.0166681 0.0228014 0.0138744
0.0214026 0.0234153 0.0154138
0.0169357 0.0222001 0.0146355
0.0184426 0.0146182 0.0119439
0.0178849 0.0220708 0.0160986
0.0227599 0.0214417 0.0163001
0.0179199 0.0239483 0.0162632
0.0230548 0.0218154 0.0149974
0.0224786 0.0182099 0.015862
0.0199543 0.0234709 0.014396
0.0185922 0.0213724 0.0162097
0.0224392 0.0144714 0.0142996
0.0208895 0.0210395 0.016408
0.0222363 0.0164006 0.020641
0.0210262 0.0208862 0.0184486
0.0198454 0.0192322 0.0167644
0.0166305 0.0214611 0.0152375
0.0189987 0.0144557 0.0140625
0.0196976 0.0194351 0.0185016
0.0193067 0.0213075 0.0170868
0.0196038 0.022974 0.0156841
0.022336 0.0197737 0.015888
0.0236282 0.0204733 0.0165829
0.0186515 0.022874 0.0160942
0.0170238 0.014094 0.013687
0.0213313 0.0181362 0.0189002
0.0183983 0.0201306 0.0166186
0.0132038 0.0212896 0.0162428
0.0220592 0.0217498 0.0150308
0.023349 0.0165557 0.0151761
0.019886 0.0165115 0.0183426
0.0208034 0.0239099 0.0164954
0.019293 0.0240126 0.0160801
0.0234723 0.0155476 0.0142451
0.0198254 0.0213754 0.0162342
0.0171476 0.0193812 0.0159331
0.0199724 0.0143558 0.0138577
0.02345 0.0220538 0.0169328
0.0208805 0.0222565 0.0188749

VERTICES 149 298
1 0
1 1
1 2
1 3
1 4
1 5
1 6
1 7
1 8
1 9
1 10
1 11
1 12
1 13
1 14
1 15
1 16
1 17
1 18
1 19
1 20
1 21
1 22
1 23
1 24
1 25
1 26
1 27
1 28
1 29
1 30
1 31
1 32
1 33
1 34
1 35
1 36
1 37
1 38
1 39
1 40
1 41
1 42
1 43
1 44
1 45
1 46
1 47
1 48
1 49
1 50
1 51
1 52
1 53
1 54
1 55
1 56
1 57
1 58
1 59
1 60
1 61
1 62
1 63
1 64
1 65
1 66
1 67
1 68
1 69
1 70
1 71
1 72
1 73
1 74
1 75
1 76
1 77
1 78
1 79
1 80
1 81
1 82
1 83
1 84
1 85
1 86
1 87
1 88
1 89
1 90
1 91
1 92
1 93
1 94
1 95
1 96
1 97
1 98
1 99
1 100
1 101
1 102
1 103
1 104
1 105
1 106
1 107
1 108
1 109
1 110
1 111
1 112
1 113
1 114
1 115
1 116
1 117
1 118
1 119
1 120
1 121
1 122
1 123
1 124
1 125
1 126
1 127
1 128
1 129
1 130
1 131
1 132
1 133
1 134
1 135
1 136
1 137
1 138
1 139
1 140
1 141
1 142
1 143
1 144
1 145
1 146
1 147
1 148

POINT_DATA 149
SCALARS id int 1
LOOKUP_TABLE default
1
2
3
4
5
6
7
8
9
10
11
12
13
14
15
16
17
18
19
20
21
22
23
24
25
26
27
28
29
30
31
32
33
34
35
36
37
38
39
40
41
42
43
44
45
46
47
48
49
50
51
52
53
54
55
56
57
58
59
60
61
62
63
64
65
66
67
68
69
70
71
72
73
74
75
76
77
78
79
80
81
82
83
84
85
86
87
88
89
90
91
92
93
94
95
96
97
98
99
100
101
102
103
104
105
106
108
109
110
111
112
113
114
115
116
117
118
119
120
121
122
123
124
125
126
127
128
129
130
131
132
133
134
135
136
137
138
139
140
141
142
143
144
145
146
147
148
149
150

SCALARS type int 1
LOOKUP_TABLE default
1
1
1
1
1
1
1
1
1
1
1
1
1
1
1
1
1
1
1
1
1
1
1
1
1
1
1
1
1
1
1
1
1
1
1
1
1
1
1
1
1
1
1
1
1
1
1
1
1
1
1
1
1
1
1
1
1
1
1
1
1
1
1
1
1
1
1
1
1
1
1
1
1
1
1
1
1
1
1
1
1
1
1
1
1
1
1
1
1
1
1
1
1
1
1
1
1
1
1
1
1
1
1
1
1
1
1
1
1
1
1
1
1
1
1
1
1
1
1
1
1
1
1
1
1
1
1
1
1
1
1
1
1
1
1
1
1
1
1
1
1
1
1
1
1
1
1
1
1

SCALARS radius float 1
LOOKUP_TABLE default
0.0005
0.0005
0.0005
0.0005
0.0005
0.0005
0.0005
0.0005
0.0005
0.0005
0.0005
0.0005
0.0005
0.0005
0.0005
0.0005
0.0005
0.0005
0.0005
0.0005
0.0005
0.0005
0.0005
0.0005
0.0005
0.0005
0.0005
0.0005
0.0005
0.0005
0.0005
0.0005
0.0005
0.0005
0.0005
0.0005
0.0005
0.0005
0.0005
0.0005
0.0005
0.0005
0.0005
0.0005
0.0005
0.0005
0.0005
0.0005
0.0005
0.0005
0.0005
0.0005
0.0005
0.0005
0.0005
0.0005
0.0005
0.0005
0.0005
0.0005
0.0005
0.0005
0.0005
0.0005
0.0005
0.0005
0.0005
0.0005
0.0005
0.0005
0.0005
0.0005
0.0005
0.0005
0.0005
0.0005
0.0005
0.0005
0.0005
0.0005
0.0005
0.0005
0.0005
0.0005
0.0005
0.0005
0.0005
0.0005
0.0005
0.0005
0.0005
0.0005
0.0005
0.0005
0.0005
0.0005
0.0005
0.0005
0.0005
0.0005
0.0005
0.0005
0.0005
0.0005
0.0005
0.0005
0.0005
0.0005
0.0005
0.0005
0.0005
0.0005
0.0005
0.0005
0.0005
0.0005
0.0005
0.0005
0.0005
0.0005
0.0005
0.0005
0.0005
0.0005
0.0005
0.0005
0.0005
0.0005
0.0005
0.0005
0.0005
0.0005
0.0005
0.0005
0.0005
0.0005
0.0005
0.0005
0.0005
0.0005
0.0005
0.0005
0.0005
0.0005
0.0005
0.0005
0.0005
0.0005
0.0005

SCALARS mass float 1
LOOKUP_TABLE default
1.46608e-07
1.46608e-07
1.46608e-07
1.46608e-07
1.46608e-07
1.46608e-07
1.46608e-07
1.46608e-07
1.46608e-07
1.46608e-07
1.46608e-07
1.46608e-07
1.46608e-07
1.46608e-07
1.46608e-07
1.46608e-07
1.46608e-07
1.46608e-07
1.46608e-07
1.46608e-07
1.46608e-07
1.46608e-07
1.46608e-07
1.46608e-07
1.46608e-07
1.46608e-07
1.46608e-07
1.46608e-07
1.46608e-07
1.46608e-07
1.46608e-07
1.46608e-07
1.46608e-07
1.46608e-07
1.46608e-07
1.46608e-07
1.46608e-07
1.46608e-07
1.46608e-07
1.46608e-07
1.46608e-07
1.46608e-07
1.46608e-07
1.46608e-07
1.46608e-07
1.46608e-07
1.46608e-07
1.46608e-07
1.46608e-07
1.46608e-07
1.46608e-07
1.46608e-07
1.46608e-07
1.46608e-07
1.46608e-07
1.46608e-07
1.46608e-07
1.46608e-07
1.46608e-07
1.46608e-07
1.46608e-07
1.46608e-07
1.46608e-07
1.46608e-07
1.46608e-07
1.46608e-07
1.46608e-07
1.46608e-07
1.46608e-07
1.46608e-07
1.46608e-07
1.46608e-07
1.46608e-07
1.46608e-07
1.46608e-07
1.46608e-07
1.46608e-07
1.46608e-07
1.46608e-07
1.46608e-07
1.46608e-07
1.46608e-07
1.46608e-07
1.46608e-07
1.46608e-07
1.46608e-07
1.46608e-07
1.46608e-07
1.46608e-07
1.46608e-07
1.46608e-07
1.46608e-07
1.46608e-07
1.46608e-07
1.46608e-07
1.46608e-07
1.46608e-07
1.46608e-07
1.46608e-07
1.46608e-07
1.46608e-07
1.46608e-07
1.46608e-07
1.46608e-07
1.46608e-07
1.46608e-07
1.46608e-07
1.46608e-07
1.46608e-07
1.46608e-07
1.46608e-07
1.46608e-07
1.46608e-07
1.46608e-07
1.46608e-07
1.46608e-07
1.46608e-07
1.46608e-07
1.46608e-07
1.46608e-07
1.46608e-07
1.46608e-07
1.46608e-07
1.46608e-07
1.46608e-07
1.46608e-07
1.46608e-07
1.46608e-07
1.46608e-07
1.46608e-07
1.46608e-07
1.46608e-07
1.46608e-07
1.46608e-07
1.46608e-07
1.46608e-07
1.46608e-07
1.46608e-07
1.46608e-07
1.46608e-07
1.46608e-07
1.46608e-07
1.46608e-07
1.46608e-07
1.46608e-07
1.46608e-07
1.46608e-07
1.46608e-07
1.46608e-07

VECTORS velocity float
0.000700061 0.00126609 -0.00154771
0.00576464 -0.0100157 -0.0323901
-0.0037903 0.00344582 -0.00254633
-0.00446518 -0.00393357 0.0010584
-0.000401554 -0.000940473 0.00161348
0.00123201 0.00140599 -0.00460508
0.00184698 0.000854397 -0.00355981
-0.00263859 -0.00781689 -0.00365184
-0.00106339 5.61144e-05 -0.000620605
0.00128988 -0.0183812 0.0059177
0.00290064 0.00373773 -0.00202121
0.00112574 -0.00256081 -0.0159575
0.00203789 -0.00121048 -0.00174688
0.00456239 0.00645707 -0.0196699
0.0125204 -0.0226083 0.0059815
-4.19464e-10 0.0205081 0.00158126
-0.000362356 -0.00017479 -0.000809475
0.00114839 0.000426812 -0.00669033
0.00207559 0.001254 -0.00605133
0.0009561 0.014772 0.011668
0.000770471 -0.0179905 -0.00395173
0.00131991 0.00159497 -0.00231197
-0.000391745 -0.00201133 0.000401163
0.00906131 -0.0139804 0.00759261
0.000566474 0.0184423 0.00911074
0.0114593 0.0332358 -0.0472147
0.0033049 -0.00926298 -0.00618995
0.00110407 0.00829753 -0.0149794
-0.00198534 0.000526688 0.000575675
-0.00533132 -0.00352819 -0.00293455
0.00122066 -0.00162681 -0.00190415
0.000776873 -0.00774684 -0.00887886
-0.0129755 -0.0537126 -0.0112594
0.000404229 -0.0142076 0.0151459
0.00877557 0.0205336 -0.00678226
-0.00209939 0.00246328 -0.000902672
-0.000697839 0.00700106 -0.0144407
0.000418848 0.00348501 -0.0145846
0.00140629 -0.00319245 0.00302727
0.00156601 -9.36391e-06 -0.00026815
0.0235205 0.012346 0.0302742
0.0093374 -0.0144286 0.000502504
-0.00146597 0.000194563 -0.00264109
0.000321206 -0.00174885 0.0100888
0.00212238 0.00150064 -0.00161326
0.00658519 -4.44284e-05 -0.00215157
0.00350504 -0.0118019 -0.000718834
-6.70607e-05 0.00094087 -0.0021892
0.00891232 0.0103639 -0.0465368
0.000459344 0.00014285 -0.00126158
0.000101901 -0.00316318 0.00137086
-0.00146517 -0.000116605 -0.000506367
-1.36542e-05 0.0206447 0.00176198
-0.000847674 0.0102492 -0.0254672
0.000553928 -0.000523534 -0.00068937
0.00244961 -0.0124543 -0.00646093
-0.00623891 -0.00555883 0.00247805
0.00144489 0.000836043 -0.0102694
0.00187093 0.00121937 -0.00510522
0.00332993 -0.0178762 -0.00202956
0.00786349 -0.00129597 -0.00643664
-0.000945429 0.000308439 0.000268827
0.00404016 0.00504608 -0.00767046
0.000444984 0.00105338 -0.00181083
0.00559179 0.000289432 -0.00310167
-0.00281041 -0.00264254 0.00236298
0.00721462 -0.0118593 -0.014597
0.000750817 -0.00897058 0.005402
-0.00429082 -0.00172896 0.00176149
-0.00362157 0.00676118 0.00333487
0.00717437 0.0126192 -0.00694537
0.00408585 0.000712869 0.00442548
-0.00311994 0.00401021 -0.00194623
-0.000103517 -0.0124862 -0.0174035
-0.00182137 0.0027367 -0.000684905
0.00505444 0.00198738 -0.000420188
0.0 0.0 -0.113743
0.0152636 0.00243272 0.0151528
-0.0343189 -0.00943847 -0.178262
-0.047046 0.000320657 -0.0334102
-6.28787e-10 0.0246714 -0.00341454
-0.00476371 -0.00541222 -0.0168459
-0.016487 -0.0259347 0.010239
1.81156e-05 0.000967656 -0.00314559
0.0 0.0 -0.0399817
-0.00109929 0.00183957 -0.000775263
0.0044166 0.00140867 0.00370036
-2.2555e-09 0.0249013 -0.00144252
-0.00058647 0.0117402 0.00687799
0.000635914 0.00782332 -0.00428208
-0.0173399 -0.0280187 0.0525527
0.0217644 -0.153022 0.0546198
0.0356995 0.173665 -0.549959
0.0295849 -0.00864134 0.00648958
-0.043386 0.0105926 0.0186926
0.00285549 0.0013778 0.000588771
0.00391816 0.00354658 0.00229737
-8.71459e-05 0.000361525 0.000172873
0.00396583 0.00987518 0.0321479
0.00832329 0.00245302 -0.000557215
0.0310523 -0.00861574 0.00523806
-0.0824554 -0.073172 0.0572827
0.0140161 0.00393075 0.0139315
0.00421928 0.00200646 0.00375346
-0.00152499 -0.000760823 -0.000185019
0.00195035 0.00469736 -0.00936941
0.00519199 -0.00262061 0.00766613
0.00345094 0.00318202 0.00523846
0.00420849 0.0016817 0.00392001
1.73276e-09 0.0196402 -0.00604463
-0.00527797 -0.00230281 -0.00104775
-0.0048001 -0.00314238 0.00269496
0.0115889 -0.000819211 0.00186635
0.000436303 0.00128126 -0.00210837
-0.0104651 -0.0114222 -0.002004
-0.0108871 -0.0245093 -0.0162429
0.00396516 -0.00707894 -0.0109222
0.00726086 -0.00276739 0.00343426
-2.57725e-08 0.0201296 0.00390037
0.000561787 0.000423163 -0.00133321
-0.00198577 -0.0069267 0.00293727
0.00104554 0.00145369 -0.00137106
-0.00478351 0.00769154 0.00762912
0.0613412 0.142055 -0.117487
0.0 -0.0 -0.03
-4.15452e-09 0.0247947 -0.000656959
0.00335218 0.00153254 0.000279515
-0.00110878 0.00080682 -0.00333476
0.0 -0.0 -0.03
-0.0196932 0.00457009 -0.00941419
-0.00115415 0.00322338 0.0394757
-0.00506131 -0.0412258 0.0124567
-0.0128596 -0.0201829 -0.0256242
-0.0127149 -0.0077408 -0.0207153
0.00491724 -0.00155391 0.00103128
0.0 -0.0 -0.03
-4.93313e-09 0.0241217 -0.00489268
6.76692e-05 -0.000238005 5.65293e-05
0.0106211 -0.0138546 0.0119734
0.00495102 0.00775066 0.00558035
0.0 0.0 -0.0515084
0.00176521 -0.00023609 0.00155226
0.00124821 -0.00777454 -0.0173163
0.00323451 0.000912254 -0.000629551
0.00312598 -0.00464759 0.00358956
8.27916e-11 0.0204579 -0.00163506
-0.000497264 0.00129801 -0.00170083
0.00354979 0.00747182 0.0358989
0.0 -0.0 -0.03

VECTORS force float
1.60831e-05 -8.70988e-06 5.77761e-06
-2.47085e-05 1.93968e-05 -3.86036e-05
-2.76023e-07 2.2533e-07 -2.13936e-07
1.02031e-06 7.7725e-07 -5.85373e-07
-2.04202e-07 -1.16613e-07 -3.08231e-07
1.64839e-08 -2.78034e-08 8.25754e-08
-8.29313e-08 -7.40848e-08 3.22648e-07
0.0 0.0 -1.43822e-06
-3.70458e-06 -3.70572e-06 -4.40091e-06
-1.44946e-08 -1.33509e-07 3.65481e-08
1.02336e-06 -2.81942e-06 1.06844e-05
-1.47198e-06 -4.36794e-06 -1.61571e-05
2.70486e-06 -4.05855e-06 4.61754e-06
-7.24396e-06 5.33476e-06 -9.02513e-07
-2.85051e-07 1.26522e-06 -2.17088e-07
-2.03446e-15 9.09231e-10 -1.36682e-08
-3.86828e-06 4.72651e-07 -3.81024e-07
-3.74404e-07 -2.55818e-06 -9.50457e-06
-9.21984e-07 8.42137e-07 7.67293e-06
-1.2706e-09 1.08201e-08 -4.86365e-09
-1.0297e-09 -8.48618e-09 2.1872e-08
-1.56977e-07 -7.13958e-08 1.63144e-07
-1.74291e-07 -8.39048e-08 1.68011e-07
-1.32492e-07 8.82463e-07 -8.80778e-07
-1.87138e-10 7.00691e-09 -1.18938e-08
7.98503e-05 9.54603e-05 -0.000127662
-2.43336e-07 -2.78789e-07 3.48789e-07
6.83908e-06 -1.46087e-05 3.58106e-06
1.02447e-05 2.64122e-06 -4.93233e-06
0.0 0.0 -1.43822e-06
0.0 0.0 -1.43822e-06
-3.21446e-08 3.00645e-07 -1.2489e-07
0.0 0.0 -1.43822e-06
-1.42769e-09 3.94712e-10 1.21755e-08
0.0 0.0 -1.43822e-06
-2.03923e-05 5.88194e-06 2.21166e-05
1.32538e-07 -1.80736e-06 1.62216e-06
7.32278e-06 7.50751e-07 1.61772e-05
0.0 0.0 -1.43822e-06
4.55765e-06 2.33407e-06 3.10287e-06
0.0 0.0 -1.43822e-06
9.86109e-06 3.63404e-08 1.19015e-05
1.4426e-05 8.95098e-06 -2.14589e-06
1.5227e-05 1.75413e-05 -9.13003e-06
2.12429e-06 1.01154e-06 -2.17534e-06
5.48355e-06 1.55461e-06 3.90475e-06
0.0 0.0 -1.43822e-06
-1.54998e-07 -2.6393e-08 -3.25358e-09
-3.41887e-05 6.44723e-05 -0.000136942
-5.06924e-06 -1.89914e-06 -1.70407e-06
-2.3416e-05 1.68492e-05 -1.7076e-05
-2.3467e-08 8.49064e-07 1.2494e-07
2.08298e-08 -5.73903e-08 -2.37769e-08
-8.81199e-05 0.000137417 -0.000254121
-1.71165e-06 -1.31335e-06 -1.56533e-06
0.0 0.0 -1.43822e-06
2.81541e-05 1.60293e-05 2.89679e-05
-8.22555e-07 -6.10358e-07 -1.11812e-06
-1.065e-06 -1.84551e-06 1.06475e-06
-1.92172e-08 -3.46546e-08 9.47023e-09
-4.39429e-06 -3.73027e-05 5.12636e-05
-1.61939e-05 -3.23905e-06 4.057e-06
2.33516e-06 -3.6122e-06 2.49909e-06
-7.87277e-08 -5.90213e-08 2.12551e-08
1.74811e-07 -1.63124e-07 -7.64376e-07
0.0 0.0 -1.43822e-06
0.0 0.0 -1.43822e-06
-1.06386e-05 -8.49829e-06 9.7128e-06
-8.89326e-08 -1.36003e-06 -1.03809e-06
-1.63113e-07 -5.57318e-07 -1.28224e-06
0.0 0.0 -1.43822e-06
-4.44926e-08 6.44522e-09 -6.53873e-08
-3.51443e-07 3.79696e-07 -2.91831e-07
-2.07232e-08 -4.45765e-08 -4.71867e-08
-1.34927e-06 -1.46916e-06 1.61021e-06
0.0 0.0 -1.43822e-06
0.0 0.0 -1.43822e-06
0.0 0.0 -1.43822e-06
0.0 0.0 -1.43822e-06
0.0 0.0 -1.43822e-06
4.982e-13 -2.25735e-09 -1.68483e-08
0.0 0.0 -1.43822e-06
4.83726e-07 2.16328e-06 2.62615e-07
-5.76872e-08 -1.8151e-07 -5.82129e-07
0.0 0.0 -1.43822e-06
1.72185e-07 6.27736e-08 -1.1931e-07
1.31152e-07 -1.11866e-07 -2.36906e-07
-6.8393e-15 -1.11236e-09 -1.69936e-08
-9.32458e-10 3.39371e-08 1.88884e-08
-2.0088e-07 -3.626e-06 1.48245e-05
-2.2158e-05 -8.33335e-05 0.000150663
0.0 0.0 -1.43822e-06
0.0 0.0 -1.43822e-06
-7.729e-06 5.53706e-06 3.73827e-06
0.0 0.0 -1.43822e-06
-1.28522e-06 1.17391e-06 -1.16897e-06
-1.61874e-07 -2.18264e-07 -1.96816e-07
5.7921e-07 -6.75932e-07 -9.75948e-07
0.0 0.0 -1.43822e-06
-4.94981e-07 1.59145e-06 -2.16695e-07
-4.75226e-06 -5.05036e-06 -2.4866e-06
0.0 0.0 -1.43822e-06
0.0 0.0 -1.43822e-06
-8.73285e-09 1.1813e-07 -3.26737e-08
-3.25732e-06 -1.58545e-06 2.95076e-06
-9.88477e-06 1.83266e-05 -4.17618e-05
-6.21215e-06 -3.47293e-06 2.49021e-06
4.27066e-08 -1.18312e-07 -2.64743e-07
-1.23929e-07 -1.13522e-07 -2.00854e-07
-5.51149e-12 -4.13411e-09 -1.30417e-08
2.22944e-05 -1.22122e-05 3.06671e-06
1.46759e-05 -1.68549e-07 3.35685e-05
-5.47944e-07 1.5248e-06 -1.07631e-06
-2.4312e-08 7.21182e-08 1.92768e-07
0.0 0.0 -1.43822e-06
0.0 0.0 -1.43822e-06
-1.06809e-06 -7.82426e-06 1.085e-05
-1.12645e-05 2.51555e-05 -2.54616e-05
-1.60873e-11 2.28113e-09 -1.34515e-08
-9.80567e-06 -9.99279e-06 -9.48931e-06
-1.43593e-05 -4.2897e-06 1.30698e-05
-4.61641e-08 1.78735e-07 -5.05828e-07
0.0 0.0 -1.43822e-06
0.0 0.0 -1.43822e-06
0.0 0.0 0.0
-8.75334e-15 -2.83488e-10 -1.69258e-08
7.85864e-07 1.30414e-07 -1.37316e-06
6.84648e-08 2.94355e-07 7.22323e-07
0.0 0.0 0.0
0.0 0.0 -1.43822e-06
0.0 0.0 -1.43822e-06
1.4424e-08 2.05132e-07 -1.24701e-06
0.0 0.0 -1.43822e-06
0.0 0.0 -1.43822e-06
-6.99412e-09 4.89612e-08 -1.36178e-07
0.0 0.0 0.0
-1.30019e-14 -3.18062e-09 -1.64778e-08
6.07309e-07 -1.73499e-07 -4.23541e-07
7.34737e-08 1.06e-05 -5.29616e-06
-1.48904e-08 -1.92816e-09 2.41577e-09
0.0 0.0 -1.43822e-06
-1.68895e-06 1.80624e-06 -1.2443e-06
-7.77213e-09 8.68171e-08 -1.4209e-06
-8.23991e-08 -3.52042e-07 -4.65839e-07
0.0 0.0 -1.43822e-06
9.91005e-15 -1.1843e-09 -1.36087e-08
-7.2544e-08 1.26057e-07 1.92141e-07
0.0 0.0 -1.43822e-06
0.0 0.0 0.0
