ITEM: TIMESTEP
9000000
ITEM: NUMBER OF ATOMS
187
ITEM: BOX BOUNDS ff ff ff
-0.02 0.43
-0.02 0.06
-0.02 0.07
ITEM: ATOMS id type x y z vx vy vz fx fy fz radius mass 
2 1 0.0183349 0.0236993 0.0139926 -0.00134171 -0.00114579 0.000752183 -2.03834e-06 -7.80809e-06 -3.42708e-06 0.0005 1.46608e-07 
3 1 0.0332698 0.0186982 0.0157743 0.000275596 0.0213599 0.00235353 1.15197e-07 -6.45387e-07 -6.15415e-08 0.0005 1.46608e-07 
4 1 0.0167407 0.0240109 0.0145113 0.000938001 -0.0013554 -0.00289908 5.21203e-07 5.22712e-07 -3.87721e-07 0.0005 1.46608e-07 
5 1 0.0320416 0.023178 0.0100961 0.000188592 -0.0059828 -0.0169216 6.11093e-07 -3.89429e-07 -1.64427e-06 0.0005 1.46608e-07 
6 1 0.0324085 0.0228075 0.0135329 0.159754 1.06067 0.0821441 -0.00197723 -0.0311812 -0.00246366 0.0005 1.46608e-07 
7 1 0.0231113 0.0222176 0.0157051 -0.00207466 0.00301002 0.000212703 0 0 -1.43822e-06 0.0005 1.46608e-07 
8 1 0.0244357 0.0222083 0.0157159 0.00107263 -0.00212252 -0.0012279 -5.95672e-07 -3.55472e-07 1.89581e-07 0.0005 1.46608e-07 
10 1 0.0221244 0.0223878 0.0155239 -0.00667944 0.00402196 -0.0199254 1.53762e-07 -6.4212e-06 -5.5668e-06 0.0005 1.46608e-07 
11 1 0.0279947 0.0159651 0.0144917 0.00195845 0.00995039 0.0107241 -1.41668e-06 9.05457e-06 6.46654e-06 0.0005 1.46608e-07 
13 1 0.0203702 0.0193861 0.0182015 0.00977788 -0.132789 -0.0843714 0 0 -1.43822e-06 0.0005 1.46608e-07 
15 1 0.0168975 0.0142067 0.0134635 0.00266483 -0.00047198 -0.000207405 1.21224e-07 2.44458e-08 -1.19493e-07 0.0005 1.46608e-07 
17 1 0.0249631 0.0220133 0.00849712 0.0034777 -0.00263883 -0.00608806 2.05103e-07 6.22663e-07 4.61573e-07 0.0005 1.46608e-07 
18 1 0.0308037 0.0214393 0.00786711 0.00115646 -0.017072 -0.0120671 -2.26307e-09 -8.5881e-10 5.71261e-08 0.0005 1.46608e-07 
19 1 0.025541 0.0278091 0.0428282 0.0433051 0.135782 -0.12228 0 0 -1.43822e-06 0.0005 1.46608e-07 
21 1 0.0300061 0.0160608 0.00845187 0.610954 -15.1853 -5.21912 -0.0261697 -0.414001 -0.474333 0.0005 1.46608e-07 
22 1 0.017497 0.0233556 0.0144748 -0.0165039 -0.00525288 0.00493656 1.10484e-06 4.85848e-06 -2.47577e-07 0.0005 1.46608e-07 
23 1 0.0240914 0.0169919 0.00770791 0.000703386 -0.00618578 0.00256389 1.00831e-08 -3.85238e-08 6.31121e-09 0.0005 1.46608e-07 
24 1 0.0183126 0.014566 0.0136087 0.00380951 0.00363907 -7.74417e-05 3.82156e-10 -9.21012e-10 -1.4398e-06 0.0005 1.46608e-07 
25 1 0.0179227 0.0230643 0.0162219 0.0112423 -0.0081428 -0.0152505 0 0 -1.43822e-06 0.0005 1.46608e-07 
26 1 0.0165573 0.0233636 0.0161476 0.0113634 0.0050359 -0.0108505 2.33742e-07 -3.50622e-07 -9.49689e-07 0.0005 1.46608e-07 
27 1 0.0303802 0.0196687 0.00727724 1.31476e-05 -0.0256278 -0.00425636 1.52398e-10 -6.03069e-09 1.39021e-08 0.0005 1.46608e-07 
28 1 0.0360207 0.0181591 0.00728583 0.0014417 -0.0224213 0.00182223 3.00945e-09 3.34933e-08 2.73386e-08 0.0005 1.46608e-07 
29 1 0.0126619 0.00210988 0.0435188 -2.03084e-161 9.52626e-163 -8.51801e-13 -5.49534e-164 2.57775e-165 0 0.0005 1.46608e-07 
34 1 0.0248046 0.0107241 0.0318771 -0.0608382 0.131788 -0.0150851 0 0 -1.43822e-06 0.0005 1.46608e-07 
35 1 0.0193727 0.0227696 0.00930502 -1.42273 32.5171 -19.4996 -0.0207581 -0.974153 1.01986 0.0005 1.46608e-07 
36 1 0.0454257 0.0173169 0.00620813 -2.83192e-15 -1.12515e-14 -7.9708e-14 8.04747e-19 -2.64513e-19 1.71524e-20 0.0005 1.46608e-07 
39 1 0.0338278 0.0165725 0.014988 0.00090449 0.0114244 0.00997963 -2.20235e-08 1.04244e-07 9.28935e-08 0.0005 1.46608e-07 
45 1 0.0178402 0.016594 0.0170661 -0.0451189 0.124074 -0.209936 0 0 -1.43822e-06 0.0005 1.46608e-07 
47 1 0.0487553 0.0195855 0.00596623 -5.97646e-16 1.33724e-15 1.40155e-14 4.28149e-20 4.91544e-20 -2.75286e-21 0.0005 1.46608e-07 
49 1 0.0201681 0.0239304 0.0145932 -0.00541651 0.00411796 -0.0027442 1.37519e-07 -5.78943e-07 -7.21632e-07 0.0005 1.46608e-07 
50 1 0.0305684 0.0206774 0.00748938 0.000154061 -0.0218653 -0.00776763 -6.94892e-08 2.13989e-08 -1.93458e-09 0.0005 1.46608e-07 
54 1 0.0331293 0.019547 0.0157784 0.00253722 0.00710554 0.000685681 2.57604e-07 -1.0582e-06 2.671e-07 0.0005 1.46608e-07 
55 1 0.020022 0.0154379 0.0153092 -0.00506684 -0.000676681 -0.00208389 4.32014e-07 1.23215e-06 1.92185e-07 0.0005 1.46608e-07 
56 1 0.0353711 0.0156272 0.00890179 0.000219836 -0.0151723 0.0198111 -7.94136e-09 -1.42015e-08 4.6556e-08 0.0005 1.46608e-07 
57 1 0.0199509 0.023034 0.0149795 -0.00143161 0.00248741 -0.0031417 7.12376e-07 1.59454e-06 -2.52544e-06 0.0005 1.46608e-07 
58 1 0.0293721 0.0156203 0.00891942 -0.0489771 -1.43996 -0.124728 0.00175465 -0.00273404 -0.0419061 0.0005 1.46608e-07 
59 1 0.0150288 0.0232046 0.0147056 0.0180555 0.00207808 -0.0173475 2.94141e-07 -2.03389e-07 4.02591e-07 0.0005 1.46608e-07 
60 1 0.0146934 0.0218295 0.0149829 0.0110267 0.0164728 -0.0200807 0 0 -1.43822e-06 0.0005 1.46608e-07 
62 1 0.0348813 0.0148614 0.0106851 0.000273681 -0.00435386 0.0241292 -1.25402e-09 1.33194e-08 9.60912e-09 0.0005 1.46608e-07 
63 1 0.0207736 0.014078 0.0132386 -0.000725493 -0.0010234 0.00194993 -3.04998e-07 1.67556e-07 3.65822e-07 0.0005 1.46608e-07 
64 1 0.0180975 0.0154343 0.0141013 0.00614281 -0.00353901 -0.00096575 1.6291e-08 2.5922e-07 7.89778e-08 0.0005 1.46608e-07 
65 1 0.0262163 0.0227072 0.0136002 1.05876e-05 0.0150297 -0.0216283 -9.30389e-10 -1.2263e-08 -7.95908e-09 0.0005 1.46608e-07 
67 1 0.032869 0.0205168 0.0154556 0.000428179 0.0226358 -0.00891892 2.07798e-06 5.278e-07 9.6255e-07 0.0005 1.46608e-07 
69 1 0.0197653 0.0234489 0.0116895 0.00292431 -7.5056e-05 -0.00523322 -2.52383e-09 -1.14721e-08 -9.45376e-08 0.0005 1.46608e-07 
70 1 0.0232354 0.0153095 0.00933961 0.000734979 -0.0129752 0.0207993 -9.06068e-08 -5.44442e-08 1.10117e-07 0.0005 1.46608e-07 
71 1 0.0301415 0.0185919 0.00718 0.00370437 0.00210715 -0.0022055 2.94677e-06 1.40918e-05 6.80909e-06 0.0005 1.46608e-07 
73 1 0.0203597 0.022706 0.0140238 0.000457702 0.0136335 -0.0191983 -1.35321e-06 7.94805e-06 -8.11312e-06 0.0005 1.46608e-07 
75 1 0.0160505 0.0231771 0.013187 0.00450955 0.000673774 -0.00524239 -2.34206e-07 2.29577e-08 4.64009e-07 0.0005 1.46608e-07 
78 1 0.020996 0.0231822 0.0129987 -0.000485497 0.0060626 -0.0132944 -1.09367e-06 -4.36574e-07 -3.7418e-06 0.0005 1.46608e-07 
79 1 0.0174452 0.0239711 0.0164769 -0.040689 -0.0457135 -0.116452 0 0 -1.43822e-06 0.0005 1.46608e-07 
81 1 0.021598 0.0142757 0.0137688 0.00021769 -1.85489e-05 0.00051852 1.11942e-08 -2.04674e-08 1.88443e-07 0.0005 1.46608e-07 
82 1 0.0228553 0.0199185 0.00579949 3.29156e-14 -1.47697e-14 3.01273e-13 -9.74088e-21 -2.09111e-20 0 0.0005 1.46608e-07 
85 1 0.0198404 0.0143572 0.0139029 7.38393e-05 -0.000259375 0.00073278 5.38676e-07 4.17069e-07 1.10216e-07 0.0005 1.46608e-07 
86 1 0.0237584 0.00996067 0.0401171 0.0506106 -0.17122 0.0898924 0 0 -1.43822e-06 0.0005 1.46608e-07 
87 1 0.0181559 0.024089 0.0130252 -0.0035846 -0.000355823 0.00107478 2.3524e-05 2.06141e-06 -1.26102e-05 0.0005 1.46608e-07 
88 1 0.0156874 0.0213716 0.0152929 -0.00926028 -0.0235775 0.00897761 0 0 -1.43822e-06 0.0005 1.46608e-07 
89 1 0.027523 0.0176274 0.0155247 0.000356457 0.0240867 0.0105937 3.87808e-09 2.31249e-09 -9.52432e-09 0.0005 1.46608e-07 
90 1 0.0222579 0.0237873 0.0145318 0.00461859 -0.00493559 7.54508e-05 1.0319e-05 3.03928e-06 8.37937e-06 0.0005 1.46608e-07 
91 1 0.023103 0.0232868 0.014577 0.00426065 -0.00189647 0.000684634 -9.34764e-06 1.09143e-05 1.88338e-05 0.0005 1.46608e-07 
92 1 0.0159474 0.0235565 0.0141063 0.00196737 -0.00153552 -0.00440893 3.26359e-07 4.0009e-07 9.59248e-08 0.0005 1.46608e-07 
93 1 0.026933 0.0203723 0.0156418 0.00570248 -0.00429926 0.00203323 -0.000220035 1.51419e-05 0.000102281 0.0005 1.46608e-07 
94 1 0.0184315 0.0239139 0.0160634 0.00806172 -0.00359322 -0.00769806 -8.17128e-07 5.00485e-06 6.25797e-07 0.0005 1.46608e-07 
95 1 0.0200653 0.0232207 0.0129589 0.000868612 0.0045345 -0.0149538 -5.85558e-08 -8.82134e-08 2.44344e-06 0.0005 1.46608e-07 
98 1 0.0224805 0.0145435 0.0142171 0.00489024 -0.000778559 0.00585996 -5.83346e-07 6.5965e-07 -1.39384e-06 0.0005 1.46608e-07 
101 1 0.0344237 0.0149818 0.012832 0.000662041 0.00816211 0.0225959 7.76728e-08 -4.02936e-07 -1.74598e-07 0.0005 1.46608e-07 
103 1 0.0159323 0.0162631 0.0149599 0.00449708 0.00377685 0.00334105 1.94022e-07 5.79499e-08 -4.40755e-08 0.0005 1.46608e-07 
107 1 0.0219612 0.0167187 0.0165253 0.00402441 -0.0677139 -0.0444073 0 0 -1.43822e-06 0.0005 1.46608e-07 
111 1 0.0161635 0.015239 0.0152738 -0.105225 -0.149968 -0.229315 0 0 -1.43822e-06 0.0005 1.46608e-07 
113 1 0.0225669 0.0215523 0.015193 -0.00626123 0.0106754 -0.00849613 0 0 -1.43822e-06 0.0005 1.46608e-07 
115 1 0.0167972 0.0147555 0.0142934 0.0102749 -0.00149219 0.00145267 1.78251e-07 -2.52142e-07 4.10994e-09 0.0005 1.46608e-07 
120 1 0.0223863 0.0149896 0.0133271 0.00428718 0.00203032 0.00736966 -4.20058e-07 -5.26581e-07 8.43269e-07 0.0005 1.46608e-07 
121 1 0.0220401 0.0192596 0.00586078 -2.30964e-14 4.9215e-14 1.78301e-13 -5.29396e-23 -8.99973e-22 2.11758e-22 0.0005 1.46608e-07 
122 1 0.0231261 0.0153075 0.0139199 0.00557633 0.00401116 0.00494662 -1.24707e-06 -3.96567e-08 1.39459e-07 0.0005 1.46608e-07 
127 1 0.0226806 0.0142654 0.0187311 -0.0113015 0.00779181 -0.0821693 0 0 -1.43822e-06 0.0005 1.46608e-07 
130 1 0.0166754 0.0223126 0.0159068 0.024376 -0.0215692 0.0204262 0 0 -1.43822e-06 0.0005 1.46608e-07 
133 1 0.0173681 0.0235738 0.0155043 0.00158008 0.00665203 0.00144402 -1.72471e-06 -5.67005e-07 1.38256e-06 0.0005 1.46608e-07 
137 1 0.021174 0.0195932 0.0159108 -0.00666945 0.0200701 -0.00255246 5.17217e-07 4.32408e-07 -2.83051e-07 0.0005 1.46608e-07 
138 1 0.0244564 0.0202139 0.00585092 -1.21388e-14 -1.95776e-15 1.97906e-13 -9.92617e-22 2.72473e-21 0 0.0005 1.46608e-07 
139 1 0.0167525 0.0147239 0.0125577 0.000425581 -0.00143014 0.00156216 1.19812e-07 2.91177e-07 -4.42292e-07 0.0005 1.46608e-07 
140 1 0.0190235 0.0220742 0.00849416 -0.000222914 -0.0160295 -0.0199268 -3.13714e-09 -1.09004e-08 3.29001e-09 0.0005 1.46608e-07 
142 1 0.0191389 0.0241282 0.0128434 0.000434291 -0.00269752 0.00251342 -2.57995e-06 1.20975e-07 -6.87874e-07 0.0005 1.46608e-07 
143 1 0.0291578 0.0152225 0.00959127 -0.0613205 -0.140347 0.0460253 0.00310975 0.00157247 -0.00332591 0.0005 1.46608e-07 
147 1 0.0324429 0.022271 0.0143698 -0.0276755 0.0641984 -0.0867114 0.00160545 -0.00281017 0.00251499 0.0005 1.46608e-07 
149 1 0.0207955 0.0235001 0.0120364 0.0249366 0.00986061 0.0224464 0 0 -1.43822e-06 0.0005 1.46608e-07 
150 1 0.0208881 0.0157642 0.0156902 0.0127451 -0.0214691 -0.0238314 0 0 -1.43822e-06 0.0005 1.46608e-07 
151 1 0.0195062 0.0223805 0.0155919 0.0095332 -0.00626575 -0.00561281 -1.01705e-06 -2.51275e-07 7.63583e-08 0.0005 1.46608e-07 
152 1 0.0157989 0.0229082 0.0152911 0.0253454 0.0212454 -0.011635 -5.04089e-08 -9.71197e-07 -1.8095e-06 0.0005 1.46608e-07 
153 1 0.0239548 0.0178337 0.00741462 0.000239986 -0.0217906 0.00561038 2.11744e-09 2.26405e-08 8.24664e-09 0.0005 1.46608e-07 
154 1 0.0329819 0.0215704 0.0148801 1.17564e-05 0.0223096 -0.0136935 2.12773e-09 -7.83404e-09 -8.9709e-09 0.0005 1.46608e-07 
155 1 0.0186437 0.0227903 0.0151853 0.0084841 0.00311254 -0.00459345 4.72814e-07 -4.25833e-06 2.68813e-06 0.0005 1.46608e-07 
156 1 0.0203819 0.0233682 0.0110574 0.00209511 -0.000978512 -0.00617785 3.49911e-08 -3.53017e-08 -2.19728e-07 0.0005 1.46608e-07 
157 1 0.0290068 0.0149038 0.0104592 -0.00435011 -0.0202575 0.0317636 0.000832165 -0.000302326 0.000933967 0.0005 1.46608e-07 
160 1 0.0174541 0.0217187 0.0161461 0.0431794 -0.0133242 0.00814901 0 0 -1.43822e-06 0.0005 1.46608e-07 
161 1 0.0180666 0.020898 0.0164175 0.0422194 -0.00897154 0.00174349 0 0 -1.43822e-06 0.0005 1.46608e-07 
164 1 0.0356796 0.0168193 0.00782991 8.26044e-05 -0.0222583 0.0127925 -1.96746e-09 2.27739e-09 1.61549e-08 0.0005 1.46608e-07 
166 1 0.0176784 0.0226034 0.0153682 0.00934007 0.0147301 -0.0161752 -2.16712e-06 1.35788e-05 1.30216e-05 0.0005 1.46608e-07 
172 1 0.0209542 0.020684 0.0157413 0.00378835 0.025046 -0.0712247 0 0 -1.43822e-06 0.0005 1.46608e-07 
176 1 0.0557224 0.0193212 0.00585087 3.26065e-15 8.22429e-15 1.95879e-13 8.13946e-22 -7.29242e-21 2.11758e-22 0.0005 1.46608e-07 
178 1 0.0193808 0.0148711 0.0146953 0.000345661 -0.00925262 -0.00894269 -2.45396e-08 -4.11783e-07 -4.93735e-07 0.0005 1.46608e-07 
179 1 0.0184314 0.0219673 0.0158639 0.0326391 0.00497481 -0.0027478 0 0 -1.43822e-06 0.0005 1.46608e-07 
180 1 0.0159539 0.0174133 0.0156477 9.81225e-05 0.00731266 0.002422 1.24923e-10 -4.36564e-08 3.90158e-07 0.0005 1.46608e-07 
183 1 0.0191976 0.0234257 0.0144342 0.0154853 0.0109647 -0.0154816 0 0 -1.43822e-06 0.0005 1.46608e-07 
185 1 0.0192639 0.0193049 0.0167487 2.84044e-08 0.0290159 -0.00161401 7.72752e-11 -3.65604e-09 -2.32888e-08 0.0005 1.46608e-07 
188 1 0.0203758 0.0148114 0.0146148 0.00157853 0.000614673 -0.000222963 1.06013e-07 3.29627e-07 7.37533e-07 0.0005 1.46608e-07 
189 1 0.0193205 0.0215669 0.0161434 0.0314558 -0.0061159 0.00186573 -7.09196e-07 1.75814e-06 1.6501e-07 0.0005 1.46608e-07 
190 1 0.0189484 0.0244418 0.0137339 -0.000439355 -0.000714121 0.00115057 1.2002e-06 -1.05679e-06 1.40726e-06 0.0005 1.46608e-07 
192 1 0.0176138 0.0243773 0.0138678 0.000525117 -0.000103428 -0.000612504 -5.16217e-06 -4.14765e-06 9.89418e-06 0.0005 1.46608e-07 
193 1 0.018883 0.0138122 0.0132821 -0.00118896 0.000104267 -0.000432969 2.89814e-07 9.36794e-07 1.28622e-07 0.0005 1.46608e-07 
198 1 0.02842 0.0149949 0.0127506 1.89721e-05 0.00608102 0.0192509 -5.07783e-09 1.59614e-08 -4.8663e-09 0.0005 1.46608e-07 
200 1 0.0218002 0.0212806 0.0158562 0.0134129 0.0144309 -0.00891514 2.10347e-07 2.63889e-07 6.60634e-07 0.0005 1.46608e-07 
201 1 0.00830357 0.0326771 0.0435188 -3.84326e-198 6.03847e-198 1.3543e-12 8.90856e-201 -1.3997e-200 0 0.0005 1.46608e-07 
207 1 0.0217419 0.0170396 0.0154888 0.00519338 0.00518213 -0.00881728 0 0 -1.43822e-06 0.0005 1.46608e-07 
208 1 0.0221678 0.0154951 0.0141709 0.00864335 -0.00870529 -0.00898982 7.41493e-08 -3.58325e-07 -3.61724e-07 0.0005 1.46608e-07 
209 1 0.0277726 0.0167705 0.0150883 0.000277521 0.0210629 0.0135731 2.79504e-08 -1.08296e-08 1.24395e-08 0.0005 1.46608e-07 
210 1 0.0225545 0.0176716 0.0157231 1.14079e-07 0.022849 0.0075215 -7.45773e-11 2.99884e-08 -1.0418e-08 0.0005 1.46608e-07 
212 1 0.0228447 0.0205389 0.0156896 0.00224738 0.00699518 -0.00372415 0 0 -1.43822e-06 0.0005 1.46608e-07 
215 1 0.0365933 0.0210052 0.0435188 -1.18344e-317 4.35084e-317 2.45735e-12 -2.46786e-320 2.46885e-320 0 0.0005 1.46608e-07 
216 1 0.0241565 0.0156005 0.0153557 0.000210043 0.00232851 -0.000822898 -4.91452e-07 -2.86936e-07 -4.55607e-07 0.0005 1.46608e-07 
219 1 0.0231734 0.0213427 0.0161854 0.00297063 0.00485333 0.00178255 0 0 -1.43822e-06 0.0005 1.46608e-07 
220 1 0.0163577 0.0150482 0.0134443 0.00494764 0.00123341 0.00519602 2.91744e-08 8.47577e-08 1.51381e-07 0.0005 1.46608e-07 
221 1 0.0215082 0.0217567 0.0150268 -0.00239833 0.00991084 -0.00578972 -4.75352e-07 1.45932e-06 -3.29073e-06 0.0005 1.46608e-07 
222 1 0.0259606 0.020517 0.00594618 4.73712e-15 7.64016e-16 -7.72381e-14 1.1382e-20 -7.26943e-20 0 0.0005 1.46608e-07 
224 1 0.0182646 0.0237091 0.0150826 -0.000130151 -0.00182043 0.00107353 3.83135e-06 -2.01219e-06 2.74225e-06 0.0005 1.46608e-07 
227 1 0.0198138 0.0140007 0.0129691 -0.00038649 -0.000262427 0.000645917 5.77941e-07 5.709e-08 -1.64257e-07 0.0005 1.46608e-07 
228 1 0.0230881 0.019594 0.0159089 0.00336168 0.00706646 -0.000841685 -7.22615e-09 2.94237e-08 -1.51673e-06 0.0005 1.46608e-07 
229 1 0.0257069 0.0204221 0.0165881 -0.0075334 0.0253258 -0.0075509 5.14442e-07 3.73118e-07 -4.21515e-07 0.0005 1.46608e-07 
231 1 0.0152808 0.0228873 0.0137573 0.00442239 0.00292364 -0.00106312 1.36858e-06 -3.7125e-06 -6.01787e-07 0.0005 1.46608e-07 
236 1 0.0224209 0.0223045 0.0145382 0.00609212 0.00441617 -0.00252017 -2.12639e-07 1.52766e-06 -9.97024e-07 0.0005 1.46608e-07 
238 1 0.0168056 0.0239045 0.0135188 -0.000826164 -0.000304427 0.000437176 -1.08562e-06 3.92885e-06 7.56009e-07 0.0005 1.46608e-07 
239 1 0.0187672 0.0212707 0.00779609 0.000472117 -0.0204958 -0.0111319 -3.80992e-09 -2.21409e-08 6.03988e-09 0.0005 1.46608e-07 
240 1 0.0201401 0.0240753 0.0127677 0.00052877 0.00121702 -0.0027905 -1.57589e-07 6.92713e-07 2.43632e-06 0.0005 1.46608e-07 
242 1 0.021309 0.0224622 0.0143465 -0.00394289 0.00748136 -0.0085749 5.97632e-07 3.48634e-07 -1.8481e-06 0.0005 1.46608e-07 
244 1 0.0304068 0.0196428 0.00577505 1.97605e-10 -1.88183e-12 -1.69242e-11 -2.74535e-13 2.58017e-15 2.33802e-14 0.0005 1.46608e-07 
246 1 0.0318372 0.0233282 0.0120664 0.00175523 0.00206813 -0.0201408 3.2806e-06 -5.88512e-07 1.32194e-05 0.0005 1.46608e-07 
247 1 0.0229526 0.0159323 0.0146864 0.00433315 0.00140219 0.00559922 0 0 -1.43822e-06 0.0005 1.46608e-07 
252 1 0.023456 0.0158942 0.00857143 0.000458781 -0.0156885 0.0161597 -2.60274e-08 -8.94867e-10 1.8875e-08 0.0005 1.46608e-07 
253 1 0.0141481 0.0153855 0.0152955 0.0394922 -0.0397302 -0.0264499 0 0 -1.43822e-06 0.0005 1.46608e-07 
257 1 0.0187493 0.01462 0.0170749 -0.00528502 -0.0608993 -0.0690222 0 0 -1.43822e-06 0.0005 1.46608e-07 
258 1 0.0165178 0.0218937 0.0149237 0.00302461 -0.00485228 0.0117444 0 0 -1.43822e-06 0.0005 1.46608e-07 
261 1 0.0251914 0.0213225 0.0162555 -0.0146982 0.0158499 -0.0107646 0 0 -1.43822e-06 0.0005 1.46608e-07 
262 1 0.0179725 0.0142302 0.0127303 0.00283701 -0.000172826 0.00112532 1.72484e-07 -1.00367e-06 -2.78191e-07 0.0005 1.46608e-07 
264 1 0.0286896 0.0188118 0.00592076 1.00438e-14 -1.61578e-16 1.17824e-13 -4.23516e-22 5.21732e-20 0 0.0005 1.46608e-07 
266 1 0.0213359 0.023956 0.0131852 -0.000183012 0.000570151 -0.00200515 -2.1623e-06 -3.08987e-06 1.3167e-07 0.0005 1.46608e-07 
267 1 0.0218794 0.0202878 0.0157667 0.000379872 0.0136883 -0.00394884 2.20728e-07 5.07734e-08 1.15756e-07 0.0005 1.46608e-07 
271 1 0.0222829 0.0124978 0.0292475 -0.0969513 0.0096228 -0.083781 0 0 -1.43822e-06 0.0005 1.46608e-07 
272 1 0.023349 0.0182848 0.0158865 -1.60901e-06 0.0237661 0.00437686 5.47699e-09 1.28034e-08 -1.7653e-08 0.0005 1.46608e-07 
273 1 0.0161571 0.0155744 0.0142705 0.00756373 0.00266972 0.00511782 1.57792e-08 3.07289e-07 9.94389e-08 0.0005 1.46608e-07 
276 1 0.021466 0.0233948 0.0160613 -0.0615194 0.0351848 -0.15807 0 0 -1.43822e-06 0.0005 1.46608e-07 
277 1 0.024459 0.0200613 0.00737115 -0.00212025 -0.0213752 -0.0087911 -1.21739e-08 -1.00964e-07 8.65713e-09 0.0005 1.46608e-07 
279 1 0.0299167 0.0150645 0.00992648 -0.0502056 -0.0449988 0.0450171 0.00171945 -0.000763546 0.000695619 0.0005 1.46608e-07 
280 1 0.0312675 0.0229079 0.00951525 0.000655745 -0.0120649 -0.0239769 4.12339e-09 -2.10757e-08 -1.72377e-07 0.0005 1.46608e-07 
281 1 0.0224987 0.0227359 0.0163827 -0.00461918 0.0142794 0.00300596 -2.3426e-07 -5.82372e-07 1.30386e-05 0.0005 1.46608e-07 
285 1 0.0155178 0.0223115 0.0145396 0.0136192 0.00405389 0.00186319 2.67856e-07 -8.55049e-07 2.508e-06 0.0005 1.46608e-07 
287 1 0.0167731 0.0228947 0.0150599 -0.00773269 -0.000143881 0.0117468 -9.86895e-06 4.04413e-06 1.37312e-06 0.0005 1.46608e-07 
288 1 0.0213753 0.0147841 0.0146006 0.00163975 0.00011787 0.000958216 7.28518e-08 1.45257e-07 -1.66613e-07 0.0005 1.46608e-07 
289 1 0.0237815 0.0227675 0.0152067 -0.00035314 -0.0017629 -0.000338839 1.47745e-06 1.07554e-05 -6.69925e-06 0.0005 1.46608e-07 
290 1 0.0224353 0.018835 0.0159421 -0.0018822 0.0124521 -0.000437064 2.22349e-07 1.09964e-06 1.48629e-06 0.0005 1.46608e-07 
291 1 0.0272203 0.0191505 0.0158311 0.000122521 0.0241697 -0.00100774 1.29371e-09 6.10202e-09 -1.34385e-08 0.0005 1.46608e-07 
296 1 0.0280995 0.0154918 0.0138658 0.00132893 0.0125684 0.0208079 -3.37822e-07 2.55087e-06 2.44042e-06 0.0005 1.46608e-07 
297 1 0.0207938 0.0235044 0.0152464 -0.00449054 0.0066616 -0.000527105 2.5884e-06 -1.944e-06 3.21124e-06 0.0005 1.46608e-07 
298 1 0.0234971 0.0150714 0.014818 0.00648307 0.00506089 0.00506987 -3.64529e-07 3.88247e-07 -4.71909e-07 0.0005 1.46608e-07 
299 1 0.0391006 0.0190317 0.00571839 -8.35726e-15 4.07987e-14 -2.01667e-13 2.30525e-19 1.00426e-19 1.03762e-20 0.0005 1.46608e-07 
300 1 0.0144386 0.0225213 0.0142758 0.00547067 0.00262666 -0.00268256 -1.99233e-07 2.23864e-07 -1.3077e-06 0.0005 1.46608e-07 
301 1 0.025692 0.0233705 0.0111375 0.000580378 -0.000922564 -0.0133765 -1.46644e-08 1.36112e-07 1.48473e-07 0.0005 1.46608e-07 
302 1 0.0270523 0.0144714 0.04865 0.106693 -0.122018 0.220689 0 0 -1.43822e-06 0.0005 1.46608e-07 
305 1 0.0175243 0.014627 0.0119293 0.00040686 -0.000642367 0.00149932 -1.65261e-07 -4.65426e-07 6.49012e-07 0.0005 1.46608e-07 
306 1 0.0192793 0.0237107 0.015391 0.0206862 -0.000955858 -0.0104979 0 0 -1.43822e-06 0.0005 1.46608e-07 
308 1 0.0249566 0.0176422 0.00834622 -0.000138066 -0.0144844 0.00610656 -1.61972e-09 1.02245e-07 -4.32588e-08 0.0005 1.46608e-07 
309 1 0.0201687 0.0244027 0.013712 -0.00195763 0.00241731 -0.00326449 -2.10705e-06 1.5205e-06 -1.37884e-06 0.0005 1.46608e-07 
312 1 0.0229589 0.0231959 0.0155548 -0.00129502 -0.00143659 0.000348013 -9.0506e-06 2.02475e-06 -8.49986e-06 0.0005 1.46608e-07 
313 1 0.0214807 0.0242188 0.0141101 0.0134649 0.00545463 -0.00556371 -6.85781e-06 -2.79767e-07 1.32371e-05 0.0005 1.46608e-07 
314 1 0.01954 0.0232544 0.0104726 0.00083903 -0.00255979 -0.0136353 -5.54026e-08 1.6798e-07 -1.89125e-08 0.0005 1.46608e-07 
319 1 0.0215908 0.0182936 0.0159815 -0.0131276 0.019133 -0.028423 0 0 -1.43822e-06 0.0005 1.46608e-07 
320 1 0.0189571 0.0230639 0.0160946 0.0211712 0.00289653 -0.00775908 6.69856e-07 -4.49156e-06 -2.98155e-06 0.0005 1.46608e-07 
321 1 0.0259394 0.0232808 0.0124799 0.00103972 0.00476215 -0.0226624 -1.9507e-08 -3.54024e-09 -3.46328e-08 0.0005 1.46608e-07 
324 1 0.0219609 0.0203498 0.00591834 3.292e-14 -1.47606e-14 3.01272e-13 1.01644e-20 2.11758e-20 0 0.0005 1.46608e-07 
325 1 0.0210111 0.0233914 0.014131 0.00459551 0.00913221 -0.0117737 5.88679e-06 3.82414e-07 6.61318e-06 0.0005 1.46608e-07 
326 1 0.0219949 0.0232613 0.0129139 -0.00249491 0.00097033 -0.00459054 5.47905e-06 -3.11877e-06 1.55377e-06 0.0005 1.46608e-07 
327 1 0.0267037 0.0211144 0.0152836 -0.00321377 -0.0025682 0.00660101 2.4141e-05 1.67084e-05 2.08725e-05 0.0005 1.46608e-07 
328 1 0.0292624 0.0209762 0.0061071 6.95316e-16 3.30121e-15 -1.18012e-14 -3.8904e-19 -1.7073e-19 -7.34801e-20 0.0005 1.46608e-07 
331 1 0.0216831 0.0231178 0.0150022 -0.00439474 0.00247457 -0.0013076 7.72045e-07 7.83538e-06 -8.82858e-06 0.0005 1.46608e-07 
332 1 0.0222124 0.0230059 0.0138567 -0.0022227 -0.00379891 -0.00854334 -2.03961e-08 1.5108e-07 -1.46744e-06 0.0005 1.46608e-07 
334 1 0.0316318 0.0233555 0.010905 5.8132e-05 -0.00193192 -0.0244877 -4.70316e-07 -4.47222e-06 -4.03115e-06 0.0005 1.46608e-07 
338 1 0.0173531 0.0150946 0.0135265 0.00571754 -0.00183292 -0.0016409 2.58494e-07 -1.20795e-07 -1.67827e-07 0.0005 1.46608e-07 
339 1 0.0237438 0.0214127 0.0170412 -0.0539645 0.00169133 -0.148498 0 0 -1.43822e-06 0.0005 1.46608e-07 
340 1 0.024916 0.018749 0.0168578 -0.000187038 0.0290305 0.0291415 0 0 -1.43822e-06 0.0005 1.46608e-07 
341 1 0.0189337 0.0140991 0.0142387 -0.00215909 0.00070877 -0.000392657 -8.55585e-08 5.97177e-07 -2.78817e-07 0.0005 1.46608e-07 
