ITEM: TIMESTEP
16000000
ITEM: NUMBER OF ATOMS
138
ITEM: BOX BOUNDS ff ff ff
-0.02 0.43
-0.02 0.06
-0.02 0.07
ITEM: ATOMS id type x y z vx vy vz fx fy fz radius mass 
3 1 0.0447845 0.0187272 0.0157999 0.00428705 0.015908 0.00224395 8.31135e-06 -1.02139e-05 5.62229e-06 0.0005 1.46608e-07 
4 1 0.0268104 0.0158546 0.0144349 0.000546321 0.0161664 0.0183358 -1.40847e-09 1.68653e-08 -4.0876e-09 0.0005 1.46608e-07 
5 1 0.0423256 0.0215161 0.00804773 0.000794903 -0.0226464 -0.0147757 -4.83999e-08 3.31337e-08 -4.24228e-08 0.0005 1.46608e-07 
6 1 0.04167 0.0218731 0.00826109 0.0002813 -0.0188146 -0.0155849 6.33116e-08 -4.64253e-08 6.96998e-08 0.0005 1.46608e-07 
7 1 0.0285074 0.0166657 0.0079101 0.000541701 -0.0193783 0.0136571 -2.38514e-08 8.07613e-08 1.49029e-08 0.0005 1.46608e-07 
10 1 0.0215814 0.0242092 0.014115 0.000963471 -0.00171939 -0.000979203 -1.48095e-05 2.3503e-06 -4.16024e-07 0.0005 1.46608e-07 
11 1 0.0362668 0.0232018 0.0103399 0.00184132 -0.00592887 -0.0175338 -1.55011e-08 -3.90181e-08 -7.36913e-08 0.0005 1.46608e-07 
13 1 0.0220582 0.0153713 0.00925294 0.000221955 -0.0135372 0.0213414 -1.32377e-09 5.83256e-09 1.44326e-08 0.0005 1.46608e-07 
15 1 0.0197252 0.0233482 0.0126516 -0.00606138 -0.000638166 0.00478309 2.13904e-05 7.82121e-06 -5.56723e-06 0.0005 1.46608e-07 
17 1 0.0330182 0.0153563 0.0137092 0.000102181 0.0123964 0.0226981 3.37095e-10 1.63453e-08 -4.42425e-09 0.0005 1.46608e-07 
18 1 0.0442322 0.0197189 0.00576402 -5.79571e-15 1.67443e-14 9.1994e-14 0 2.96462e-21 -6.35275e-22 0.0005 1.46608e-07 
21 1 0.0391559 0.0151534 0.0132912 0.0014189 0.0117158 0.0221596 3.62363e-09 1.72365e-07 5.11589e-08 0.0005 1.46608e-07 
22 1 0.0173053 0.0240498 0.0131495 -0.000267142 0.00196384 -0.000973913 5.54943e-06 8.06195e-07 -5.47769e-07 0.0005 1.46608e-07 
25 1 0.0207019 0.0223652 0.0144601 0.00890039 0.0419905 -0.0481608 0 0 -1.43822e-06 0.0005 1.46608e-07 
26 1 0.0232834 0.0201529 0.00744379 0.000278919 -0.0221617 -0.00914897 2.22541e-08 2.72475e-08 3.26034e-08 0.0005 1.46608e-07 
27 1 0.0397331 0.0190366 0.0056926 7.84069e-15 -3.74512e-14 1.85197e-13 -7.10052e-21 5.29396e-22 4.23516e-22 0.0005 1.46608e-07 
28 1 0.0469301 0.0186012 0.00727954 -0.000636865 -0.0235083 0.00253685 6.59626e-09 2.60314e-09 2.26258e-08 0.0005 1.46608e-07 
29 1 0.0126619 0.00210988 0.0435188 -6.45975e-317 7.8194e-317 -8.51801e-13 -2.46885e-320 -2.21934e-320 0 0.0005 1.46608e-07 
36 1 0.0336198 0.0189679 0.0056986 -3.9579e-20 -3.66437e-21 9.92586e-21 0 0 0 0.0005 1.46608e-07 
39 1 0.0429862 0.0229583 0.0133482 0.000916753 0.00856782 -0.020233 -1.47685e-08 3.43635e-09 -4.06805e-08 0.0005 1.46608e-07 
45 1 0.0288532 0.0183094 0.0072918 -8.49879e-05 -0.0252361 0.00259839 3.2292e-08 4.05469e-08 -3.94275e-09 0.0005 1.46608e-07 
47 1 0.0485793 0.0192087 0.00599463 5.52533e-15 -1.18297e-14 -1.2297e-13 1.46907e-20 3.57607e-20 -2.5411e-21 0.0005 1.46608e-07 
49 1 0.0199031 0.0229921 0.013558 -0.00398712 -0.00740848 0.00409611 -1.86736e-06 4.34102e-05 -4.43339e-05 0.0005 1.46608e-07 
50 1 0.0399006 0.0150424 0.00991651 0.000640357 -0.00640118 0.0136275 3.23472e-06 3.60195e-06 -3.3023e-07 0.0005 1.46608e-07 
54 1 0.042194 0.0230402 0.0100045 -1.68955 -6.5532 4.94781 0.176713 -0.0774814 -0.108096 0.0005 1.46608e-07 
56 1 0.044011 0.0189332 0.0157714 0.00399841 0.0159864 -0.00111071 7.7276e-06 -4.17289e-05 1.39925e-05 0.0005 1.46608e-07 
58 1 0.0384038 0.0176111 0.0155078 0.000364707 0.0231268 0.00777725 -2.02924e-09 1.2407e-08 -1.0594e-08 0.0005 1.46608e-07 
59 1 0.0259994 0.0216951 0.0148845 -2.21869 23.2192 29.5932 -0.196849 -1.3978 -0.992995 0.0005 1.46608e-07 
60 1 0.0312728 0.0221008 0.0145291 0.00360409 0.00962755 -0.0110355 -1.11478e-06 4.4155e-07 -4.67294e-07 0.0005 1.46608e-07 
62 1 0.037767 0.0201211 0.00599712 2.20797e-14 -7.48867e-14 3.45211e-13 2.64698e-22 -2.2764e-21 -6.35275e-22 0.0005 1.46608e-07 
64 1 0.0203776 0.0176631 0.0161882 -0.0705889 0.279356 0.215116 0 0 -1.43822e-06 0.0005 1.46608e-07 
65 1 0.034005 0.0152496 0.00948866 3.36077e-05 -0.00596163 0.0101406 -9.2572e-07 1.45295e-06 -3.73088e-06 0.0005 1.46608e-07 
67 1 0.0432301 0.0234286 0.0114033 -0.28289 0.997696 1.23537 -0.0197306 -0.39112 0.0473738 0.0005 1.46608e-07 
69 1 0.0205239 0.0237325 0.0122463 -0.00410518 0.000122415 0.000823329 1.10527e-05 -4.50685e-06 -2.73563e-05 0.0005 1.46608e-07 
70 1 0.0189756 0.0231869 0.0133418 0.00172258 0.00541354 -0.0137469 5.40964e-06 1.11354e-05 7.7728e-06 0.0005 1.46608e-07 
71 1 0.040326 0.01621 0.00829613 0.000545809 -0.0165819 0.0161517 -4.54949e-09 -1.43332e-09 2.13616e-08 0.0005 1.46608e-07 
73 1 0.0231301 0.0232725 0.0146334 -0.000373095 -0.000424178 -0.000266401 1.9059e-06 1.74721e-07 -4.33424e-07 0.0005 1.46608e-07 
75 1 0.022103 0.0150566 0.0136791 0.000541598 0.0146172 0.0225792 5.16554e-06 -7.82548e-06 -8.70598e-06 0.0005 1.46608e-07 
78 1 0.0212061 0.0147952 0.0133303 0.000418472 0.0115341 0.0246813 1.82763e-06 -7.35172e-06 -2.62684e-06 0.0005 1.46608e-07 
79 1 0.0229261 0.0154424 0.0140893 -0.000243648 0.0163656 0.0223701 1.36221e-06 -3.17595e-06 -2.99503e-06 0.0005 1.46608e-07 
81 1 0.0257978 0.0198831 0.0157526 0.00145122 0.0200659 -0.00513153 -9.3471e-10 4.76107e-08 -1.3392e-08 0.0005 1.46608e-07 
82 1 0.0241988 0.0192723 0.00587478 3.77593e-20 -5.89656e-20 2.90669e-19 0 0 0 0.0005 1.46608e-07 
85 1 0.0196407 0.0139958 0.0129774 0.000909147 -0.000951465 0.00159063 2.61401e-08 -2.71134e-08 8.31546e-08 0.0005 1.46608e-07 
87 1 0.0181645 0.0146159 0.0147894 -0.0181613 0.00381506 -0.00590141 -9.34336e-08 -7.99492e-08 -1.82006e-07 0.0005 1.46608e-07 
88 1 0.024157 0.0210819 0.00621473 4.20074e-20 -2.7318e-19 -2.16336e-19 0 0 0 0.0005 1.46608e-07 
89 1 0.0358568 0.0223286 0.00873369 0.00451073 0.00418922 -0.000507637 -2.21831e-08 5.34119e-08 1.5395e-07 0.0005 1.46608e-07 
91 1 0.0215564 0.0233141 0.0145593 0.000801053 0.00149124 0.00121234 3.69648e-06 1.76139e-06 6.50898e-07 0.0005 1.46608e-07 
92 1 0.024935 0.0216529 0.0166247 0.0050185 -0.0419171 -0.055233 0 0 -1.43822e-06 0.0005 1.46608e-07 
93 1 0.0352286 0.0199299 0.00746484 -1.97032e-05 -0.02534 -0.00545509 2.19842e-06 -1.05254e-06 -1.99873e-06 0.0005 1.46608e-07 
94 1 0.0194802 0.023459 0.0117039 0.000419044 0.00051151 0.00197059 2.41963e-06 2.50695e-06 4.99166e-06 0.0005 1.46608e-07 
95 1 0.0182968 0.0231999 0.010566 0.00347491 -0.00412346 -0.014662 3.74765e-09 -2.47096e-09 -1.14546e-08 0.0005 1.46608e-07 
98 1 0.0225792 0.0145057 0.0143784 0.00182478 0.00121447 -0.00311611 0 0 -1.43822e-06 0.0005 1.46608e-07 
101 1 0.0445463 0.019648 0.0156964 0.00231575 0.0182248 -0.00346619 -7.60373e-06 -7.94878e-08 -4.61967e-06 0.0005 1.46608e-07 
107 1 0.0279662 0.0151427 0.0097497 0.000123081 -0.0103677 0.0227109 -3.19066e-10 1.00503e-08 1.11504e-08 0.0005 1.46608e-07 
121 1 0.0220325 0.0192339 0.00586691 -2.19081e-19 9.65778e-19 3.73685e-18 6.51405e-23 -1.98523e-23 0 0.0005 1.46608e-07 
122 1 0.0320863 0.0213749 0.0150703 0.000413705 0.0228751 -0.0130415 -2.7384e-09 -5.10571e-09 -8.7147e-09 0.0005 1.46608e-07 
127 1 0.0199688 0.0196665 0.0159161 0.000554994 0.0244968 -0.00352808 -7.52308e-11 -2.67004e-09 -2.15576e-08 0.0005 1.46608e-07 
133 1 0.0252304 0.0208911 0.00605239 -1.65206e-19 2.1439e-19 -1.92865e-19 6.61744e-24 0 0 0.0005 1.46608e-07 
138 1 0.0245153 0.0202206 0.0058546 2.22324e-19 8.7792e-20 -4.09424e-20 0 0 0 0.0005 1.46608e-07 
140 1 0.0293821 0.0180819 0.00586114 1.00436e-14 -9.98495e-17 1.17824e-13 0 -6.62468e-21 0 0.0005 1.46608e-07 
142 1 0.0286363 0.0147503 0.0113028 4.87346e-05 -0.00212984 0.0124028 -3.03096e-07 -8.28432e-08 -7.45374e-07 0.0005 1.46608e-07 
143 1 0.0396858 0.0148418 0.010846 0.000764825 -0.00207323 0.0227612 -1.08286e-06 2.27962e-06 2.50897e-06 0.0005 1.46608e-07 
147 1 0.0369961 0.0194888 0.00590926 2.50641e-17 -8.68517e-17 3.98948e-16 -1.98523e-23 2.64698e-23 -2.11758e-22 0.0005 1.46608e-07 
151 1 0.0290748 0.0193047 0.00716243 0.00047081 -0.0208583 -0.00186931 8.87911e-09 7.025e-08 5.1122e-08 0.0005 1.46608e-07 
152 1 0.0205901 0.0236093 0.0139611 -0.00889261 -0.00243074 0.00345941 0 0 -1.43822e-06 0.0005 1.46608e-07 
153 1 0.0366167 0.0185804 0.00573353 1.43432e-17 1.47518e-16 4.38566e-16 5.9557e-23 -7.94093e-23 -2.11758e-22 0.0005 1.46608e-07 
154 1 0.0419027 0.0224623 0.00884871 0.00191449 -0.0113355 -0.0170067 4.02035e-08 -2.80166e-08 7.1225e-08 0.0005 1.46608e-07 
155 1 0.0271723 0.0152191 0.0131714 -0.000640016 0.0117715 0.0252658 -4.25762e-08 2.19208e-08 6.43843e-08 0.0005 1.46608e-07 
157 1 0.0377171 0.0204435 0.0155444 0.00354949 0.00664414 0.000928664 -4.90115e-08 -1.49045e-07 1.54441e-07 0.0005 1.46608e-07 
160 1 0.0217542 0.0166268 0.0152245 -1.26823e-05 0.0389126 0.0208685 0 0 -1.43822e-06 0.0005 1.46608e-07 
164 1 0.0442929 0.0180201 0.0156568 0.000532139 0.020647 0.00638997 -6.44941e-06 1.87136e-05 -4.22957e-08 0.0005 1.46608e-07 
166 1 0.0214747 0.0140887 0.0140024 -0.0360789 -0.00748566 -0.0308155 0 0 -1.43822e-06 0.0005 1.46608e-07 
172 1 0.0240587 0.0154699 0.0153288 0.00551861 -0.000341648 0.00146429 0 0 -1.43822e-06 0.0005 1.46608e-07 
176 1 0.0573841 0.0177084 0.00590108 -1.20302e-14 2.50571e-14 3.08289e-13 -2.89235e-19 -1.7069e-19 2.32934e-21 0.0005 1.46608e-07 
178 1 0.0286591 0.0204226 0.00592466 -3.91541e-10 9.00276e-11 3.35097e-11 5.74389e-13 -5.56969e-14 -4.9087e-14 0.0005 1.46608e-07 
180 1 0.0218061 0.015604 0.0144678 -0.00285785 0.0195247 0.0206738 0 0 -1.43822e-06 0.0005 1.46608e-07 
183 1 0.0205548 0.0139749 0.0133821 0.00781754 -0.000910422 -0.0139927 4.18093e-07 5.89622e-09 -7.97815e-07 0.0005 1.46608e-07 
185 1 0.0256778 0.0206501 0.0155823 0.00227541 0.0132611 -0.00678009 1.25858e-08 6.67796e-08 -4.03255e-08 0.0005 1.46608e-07 
188 1 0.0168674 0.0152004 0.0137445 0.00129846 0.00091204 -0.00207004 9.24763e-08 -4.17643e-08 -1.70958e-07 0.0005 1.46608e-07 
189 1 0.0159254 0.0149554 0.0132353 -0.000356088 -0.000560714 0.00149039 9.40185e-08 -2.39374e-08 1.44088e-08 0.0005 1.46608e-07 
190 1 0.0183027 0.0241345 0.0131308 -0.000323794 -0.00581721 -0.0165453 -1.17028e-06 4.89152e-06 -3.31917e-07 0.0005 1.46608e-07 
198 1 0.0378698 0.0197671 0.0157156 0.00369972 0.0131743 -1.34985e-05 1.60748e-08 -7.84169e-08 4.24333e-08 0.0005 1.46608e-07 
201 1 0.00830357 0.0326771 0.0435188 3.42991e-317 7.8019e-317 1.3543e-12 2.46835e-320 2.46934e-320 0 0.0005 1.46608e-07 
207 1 0.0231219 0.022599 0.0153726 -0.000276601 -0.00135628 -0.00322039 0 0 -1.43822e-06 0.0005 1.46608e-07 
209 1 0.0368975 0.0231458 0.0129073 0.000460067 0.00833266 -0.0231329 4.88861e-10 -1.08338e-08 -8.83082e-09 0.0005 1.46608e-07 
212 1 0.0207012 0.0154469 0.0154291 -0.0365221 0.222739 -0.00425185 0 0 -1.43822e-06 0.0005 1.46608e-07 
215 1 0.0365933 0.0210052 0.0435188 1.44682e-317 1.65702e-317 2.45735e-12 -2.31124e-320 2.46786e-320 0 0.0005 1.46608e-07 
219 1 0.0305006 0.0203594 0.00597997 7.24624e-06 1.1906e-07 7.88384e-07 -2.34343e-08 -1.67959e-09 -3.34716e-09 0.0005 1.46608e-07 
220 1 0.0280387 0.0195318 0.00597683 -1.62901e-14 1.53876e-16 -1.91099e-13 0 3.44728e-22 0 0.0005 1.46608e-07 
222 1 0.0259924 0.0202525 0.00594552 -9.10637e-20 1.84904e-19 1.27446e-20 0 0 0 0.0005 1.46608e-07 
227 1 0.0242382 0.0227714 0.00928817 -0.00138709 0.00779303 0.00538097 -1.08727e-05 2.10209e-06 2.70277e-06 0.0005 1.46608e-07 
228 1 0.0297362 0.0219668 0.00828157 0.000167203 -0.0183241 -0.0174302 -1.24504e-09 -1.55369e-08 4.98094e-09 0.0005 1.46608e-07 
238 1 0.0211785 0.0239968 0.0132412 -0.00303523 0.000111467 -0.00132426 2.363e-06 1.81279e-06 -8.59062e-06 0.0005 1.46608e-07 
239 1 0.0288244 -0.00372231 0.0337786 0.000980032 -0.143849 -0.733717 0 0 -1.43822e-06 0.0005 1.46608e-07 
240 1 0.0177834 0.0119929 0.0330718 0.0932107 0.327375 -0.25337 0 0 -1.43822e-06 0.0005 1.46608e-07 
244 1 0.0305187 0.019383 0.0057653 6.577e-06 5.37429e-07 -8.90499e-07 -1.07629e-08 -2.91955e-09 2.47146e-09 0.0005 1.46608e-07 
246 1 0.041336 0.0201301 0.0073078 0.000265157 -0.0233055 -0.00545136 -2.14812e-09 -1.21494e-08 1.11144e-08 0.0005 1.46608e-07 
252 1 0.0323642 0.0236641 0.00866402 -0.0221429 -0.0373963 -0.00164517 0 0 -1.43822e-06 0.0005 1.46608e-07 
253 1 0.0163241 0.0236442 0.0194875 -0.00731769 -0.114923 -0.365862 0 0 -1.43822e-06 0.0005 1.46608e-07 
257 1 0.0250175 0.0187229 0.0167724 -0.000136145 0.0289932 0.00649586 0 0 -1.43822e-06 0.0005 1.46608e-07 
258 1 0.031505 0.0195481 0.00577905 6.6911e-07 -1.37212e-06 -3.95367e-07 5.53876e-12 1.32562e-11 4.48812e-12 0.0005 1.46608e-07 
261 1 0.0680479 0.0195636 0.00574881 -5.88094e-16 -1.13132e-15 -3.93064e-14 -8.71187e-21 3.69253e-21 0 0.0005 1.46608e-07 
264 1 0.0284547 0.0176223 0.00593982 2.32108e-14 -2.15586e-16 2.72287e-13 -6.35275e-22 -1.90018e-20 0 0.0005 1.46608e-07 
266 1 0.0223961 0.0236349 0.0140591 0.00140544 -0.00091225 0.000981131 -2.00786e-06 -8.92578e-06 -1.47401e-06 0.0005 1.46608e-07 
267 1 0.0326883 0.0162487 0.0147785 0.000314082 0.0186986 0.01663 4.92808e-10 1.52406e-08 -5.66031e-09 0.0005 1.46608e-07 
271 1 0.029588 0.0199571 0.0058451 -1.12195e-08 7.34577e-09 9.62206e-10 6.33781e-12 -3.2396e-11 -5.66428e-13 0.0005 1.46608e-07 
276 1 0.0176898 0.0140928 0.0132594 0.000358658 0.000323666 -0.000965834 -7.39754e-08 -3.98113e-08 -8.67644e-08 0.0005 1.46608e-07 
277 1 0.0165317 0.0238075 0.0137349 0.00023641 -0.00137635 -0.00148583 7.29322e-06 -5.37671e-06 7.65908e-06 0.0005 1.46608e-07 
279 1 0.0367878 0.0204418 0.00612933 -1.00423e-14 3.40601e-14 -1.5701e-13 2.11758e-22 -5.29396e-23 0 0.0005 1.46608e-07 
280 1 0.042411 0.0233634 0.0109632 -0.162297 1.49811 0.721682 0.0161559 -0.0488104 0.0572451 0.0005 1.46608e-07 
281 1 0.0207047 0.0231939 0.0130475 -0.00509059 0.00065619 -0.00135615 1.84827e-05 5.86859e-06 -2.75827e-05 0.0005 1.46608e-07 
285 1 0.0213422 0.0147502 0.0123318 0.0108886 -0.00271746 0.0341064 1.05804e-05 -2.04117e-06 1.18809e-05 0.0005 1.46608e-07 
287 1 0.0230714 0.0193222 0.00718375 0.00320693 -0.00486357 -0.000920132 4.61731e-08 1.09934e-07 3.47598e-08 0.0005 1.46608e-07 
288 1 0.0263467 0.0178902 0.0155786 0.000119918 0.0251307 0.00795554 2.51064e-08 3.23087e-08 4.51955e-10 0.0005 1.46608e-07 
289 1 0.0315991 0.0208914 0.015333 6.36816e-05 0.0233919 -0.0108213 1.00987e-09 -5.62967e-09 -1.74019e-08 0.0005 1.46608e-07 
290 1 0.0157526 0.0234978 0.0142799 0.000999366 0.00078377 0.000301402 5.27165e-09 -2.85188e-07 3.68599e-07 0.0005 1.46608e-07 
291 1 0.0356857 0.0219437 0.00825959 0.00148065 -0.00217874 -0.00353983 -1.19178e-07 5.74802e-08 3.98168e-08 0.0005 1.46608e-07 
296 1 0.0365933 0.0233887 0.0117609 0.000727191 0.00134054 -0.0244646 -1.66652e-08 -1.39396e-08 -1.46112e-08 0.0005 1.46608e-07 
297 1 0.0322438 0.0181848 0.0156851 0.000800705 0.0161199 0.00465643 1.15114e-07 -1.96892e-07 -1.51099e-08 0.0005 1.46608e-07 
299 1 0.0384427 0.0190526 0.00575048 2.14232e-15 -1.02604e-14 5.06322e-14 -3.17181e-19 -1.76289e-20 9.95264e-21 0.0005 1.46608e-07 
300 1 0.0187926 0.0235742 0.012463 0.000707101 0.0034429 -0.01684 -2.92362e-06 -1.05902e-05 3.2718e-05 0.0005 1.46608e-07 
301 1 0.0335582 0.0147957 0.0113411 6.50468e-05 -0.00233068 0.0255479 -8.29766e-10 1.47693e-08 3.62908e-09 0.0005 1.46608e-07 
305 1 0.0300061 0.0226694 0.0091008 0.00241662 -0.00869478 -0.0106511 1.21298e-07 -1.19814e-06 -6.72516e-07 0.0005 1.46608e-07 
308 1 0.0368842 0.018004 0.00820358 0.000183101 -0.00213078 -0.00104388 1.96549e-09 9.67792e-09 -2.13293e-08 0.0005 1.46608e-07 
309 1 0.0237698 0.0219827 0.00853952 0.00117823 -0.0171736 -0.0153042 -1.24345e-08 -2.84623e-08 -7.42335e-09 0.0005 1.46608e-07 
313 1 0.0233762 0.0149386 0.0148265 0.00312774 -0.00213485 0.00840552 5.94858e-07 4.50298e-08 -1.19678e-09 0.0005 1.46608e-07 
314 1 0.0227156 0.0189252 0.0169598 -0.050817 -0.0152846 0.0100792 0 0 -1.43822e-06 0.0005 1.46608e-07 
319 1 0.0185552 0.0234437 0.0115251 0.00191828 -0.000633692 -0.0173724 -3.31103e-06 3.48693e-08 2.67911e-05 0.0005 1.46608e-07 
320 1 0.0167256 0.0143557 0.0132285 0.0003431 0.000450629 -0.00118742 8.29753e-10 -4.81411e-09 -1.22012e-07 0.0005 1.46608e-07 
321 1 0.0338317 0.0149805 0.0102856 0.00204089 -0.00488223 0.00844904 1.84883e-06 7.07048e-07 -6.22931e-06 0.0005 1.46608e-07 
324 1 0.0220676 0.0202327 0.00590095 5.97578e-20 -9.4205e-20 3.53054e-18 -1.22009e-23 6.61744e-24 0 0.0005 1.46608e-07 
326 1 0.01864 0.014006 0.0129603 0.000879302 -0.000575496 0.000976927 -2.34878e-08 -2.8551e-09 4.80157e-08 0.0005 1.46608e-07 
327 1 0.0354777 0.021223 0.0078526 0.00234696 -0.0144332 -0.00674981 -2.42806e-08 1.16337e-08 -2.96324e-08 0.0005 1.46608e-07 
328 1 0.0265595 0.0180887 0.00595892 -1.21706e-14 -1.78948e-15 1.97906e-13 7.57036e-21 4.81915e-20 1.05879e-21 0.0005 1.46608e-07 
332 1 0.0184962 0.0143826 0.0138754 -0.00489654 -0.000615123 0.000107719 4.01931e-08 -3.55026e-08 7.206e-08 0.0005 1.46608e-07 
334 1 0.0410351 0.0187768 0.00718501 0.000277684 -0.0122214 9.95121e-05 5.67014e-09 -3.35593e-09 2.25633e-09 0.0005 1.46608e-07 
338 1 0.0640746 0.0187632 0.00577472 1.32445e-15 3.20392e-15 2.46502e-14 -4.78177e-20 -1.02994e-19 1.52466e-20 0.0005 1.46608e-07 
340 1 0.0170405 0.0201072 0.00601288 -6.66823e-15 -2.76462e-15 5.51344e-14 5.73335e-20 -5.39586e-20 4.23516e-21 0.0005 1.46608e-07 
