ITEM: TIMESTEP
11000000
ITEM: NUMBER OF ATOMS
164
ITEM: BOX BOUNDS ff ff ff
-0.02 0.43
-0.02 0.06
-0.02 0.07
ITEM: ATOMS id type x y z vx vy vz fx fy fz radius mass 
2 1 0.0203008 0.0234686 0.0117547 0.000820772 0.00113265 -0.00184552 -1.09801e-07 1.08204e-06 -2.99616e-06 0.0005 1.46608e-07 
3 1 0.0371386 0.0232533 0.010462 0.000858757 -0.00622996 -0.0199152 -8.8791e-09 -2.19266e-08 -1.99542e-08 0.0005 1.46608e-07 
4 1 0.0161801 0.0236562 0.0139563 0.00145176 0.00130464 -0.000204398 -5.08303e-06 -1.76352e-07 -1.53698e-06 0.0005 1.46608e-07 
5 1 0.0341016 0.0149323 0.012655 0.000324289 0.0068612 0.0223927 -4.77486e-08 1.97243e-07 3.28243e-07 0.0005 1.46608e-07 
6 1 0.0347125 0.0149985 0.0101348 0.000802883 -0.00608261 0.0215565 -9.90758e-09 6.64379e-09 3.10557e-08 0.0005 1.46608e-07 
7 1 0.0180345 0.0236737 0.0152244 0.00629773 0.000488413 0.00442073 6.05745e-05 2.98502e-06 6.88379e-05 0.0005 1.46608e-07 
10 1 0.0219344 0.0228676 0.0142732 -0.000317644 -0.000520867 -0.00116753 5.5985e-07 5.11261e-07 1.21531e-07 0.0005 1.46608e-07 
11 1 0.0302283 0.0204988 0.00743579 0.000401879 -0.0144806 -0.00607936 -1.22351e-09 -1.49913e-09 1.35983e-08 0.0005 1.46608e-07 
13 1 0.0232326 0.01612 0.00832065 0.73855 7.63386 4.48152 -0.0323425 -0.121108 0.0412459 0.0005 1.46608e-07 
15 1 0.0175005 0.0146238 0.0119444 0.000934774 -0.00107358 0.0025262 3.04965e-08 6.94361e-08 -5.86051e-07 0.0005 1.46608e-07 
17 1 0.0275696 0.0160286 0.0145223 0.00314121 0.0155835 0.0110119 7.9182e-09 1.0244e-07 4.31432e-08 0.0005 1.46608e-07 
18 1 0.0330775 0.0182489 0.0156779 8.93258e-05 0.0259834 0.00623182 3.18555e-10 4.94187e-09 -1.54567e-08 0.0005 1.46608e-07 
21 1 0.0320257 0.022358 0.0142458 0.0550159 -0.773737 0.397923 -0.000383972 0.0290919 -0.0201065 0.0005 1.46608e-07 
22 1 0.0219679 0.0184932 0.015971 -0.00108145 0.024853 0.00692485 2.02334e-06 3.09192e-07 1.3392e-06 0.0005 1.46608e-07 
23 1 0.0279359 0.0290891 0.037377 -0.103406 -0.0367709 0.0775888 0 0 -1.43822e-06 0.0005 1.46608e-07 
24 1 0.0252059 0.0205322 0.0165508 4.27994e-09 0.0278835 -0.00836422 3.20342e-15 -6.87892e-09 -2.22973e-08 0.0005 1.46608e-07 
25 1 0.0202719 0.0140314 0.0131094 -0.00189419 0.00140827 -0.00390171 -2.68543e-07 -5.67611e-08 9.29973e-07 0.0005 1.46608e-07 
26 1 0.0213585 0.0230321 0.0134723 0.000586419 7.78275e-05 0.00100178 1.93073e-07 4.07899e-07 4.4544e-07 0.0005 1.46608e-07 
27 1 0.032562 0.0202864 0.015537 0.000807382 0.0221436 -0.00777602 -1.40048e-08 2.36543e-08 -1.90748e-08 0.0005 1.46608e-07 
28 1 0.0393752 0.016812 0.0151743 0.00216006 0.0144327 0.00962122 4.73139e-06 9.39565e-06 3.89092e-06 0.0005 1.46608e-07 
29 1 0.0126619 0.00210988 0.0435188 -5.31248e-317 -9.72061e-318 -8.51801e-13 2.17834e-320 -2.46786e-320 0 0.0005 1.46608e-07 
35 1 0.0126981 0.0204478 0.0166204 0.0408705 -0.0120747 -0.0944057 0 0 -1.43822e-06 0.0005 1.46608e-07 
36 1 0.0454257 0.0173169 0.00620813 -3.74869e-15 -1.16665e-14 -7.96239e-14 1.77387e-19 -3.56283e-20 6.35275e-22 0.0005 1.46608e-07 
39 1 0.0365593 0.0219462 0.008275 0.00384445 -0.00834806 -0.00913542 1.646e-07 8.6377e-08 7.21314e-08 0.0005 1.46608e-07 
45 1 0.0223057 0.0147285 0.0118152 0.00185386 -0.000180002 0.0169101 3.94164e-09 4.46024e-08 2.27516e-08 0.0005 1.46608e-07 
47 1 0.0485793 0.0192087 0.00599463 5.49165e-15 -1.18868e-14 -1.22966e-13 2.96197e-20 -1.10247e-19 1.18585e-20 0.0005 1.46608e-07 
49 1 0.0190713 0.0230937 0.0101824 0.0016428 -0.00766717 -0.0201827 -1.66186e-08 -2.81288e-08 -3.17457e-08 0.0005 1.46608e-07 
50 1 0.032792 0.0193293 0.0157916 0.00191771 0.0174584 -0.00283261 -9.25965e-08 6.28356e-09 2.44373e-07 0.0005 1.46608e-07 
54 1 0.0358767 0.019042 0.00732899 -3.53171e-05 -0.0260799 -0.0020131 -3.34081e-09 2.33718e-10 1.52967e-08 0.0005 1.46608e-07 
55 1 0.0186695 0.0143171 0.0137968 -0.00487705 0.00210465 0.00183131 0 0 -1.43822e-06 0.0005 1.46608e-07 
56 1 0.0383072 0.021472 0.0148334 0.00310617 0.013757 -0.00951298 -3.92257e-10 -3.41983e-08 4.26217e-08 0.0005 1.46608e-07 
57 1 0.0191821 0.0238393 0.0149057 -0.00102177 -0.000354149 -0.00120597 9.2891e-06 -1.2913e-05 1.03566e-05 0.0005 1.46608e-07 
58 1 0.0317308 0.0231115 0.0129646 -0.00214993 0.0111596 -0.026235 -9.84993e-09 2.35888e-08 2.64727e-08 0.0005 1.46608e-07 
59 1 0.0183109 0.0241026 0.0129465 -0.000166084 0.000479675 0.000740135 -1.75586e-08 -7.01602e-08 7.02257e-08 0.0005 1.46608e-07 
60 1 0.0217387 0.0145983 0.0141652 0.040659 -0.0455059 -0.00037233 8.03962e-05 0.000385778 -0.000336989 0.0005 1.46608e-07 
62 1 0.0399405 0.0201523 0.00590946 2.06823e-15 -1.02453e-14 5.06384e-14 -2.70971e-19 -7.38507e-20 -3.59989e-21 0.0005 1.46608e-07 
64 1 0.0164638 0.0198137 0.0160315 0.00304527 0.0300166 -0.022015 0 0 -1.43822e-06 0.0005 1.46608e-07 
65 1 0.0298689 0.0147879 0.0113827 -0.000111115 0.000785133 0.012241 6.2062e-07 2.18642e-09 2.85284e-08 0.0005 1.46608e-07 
67 1 0.0364042 0.0212174 0.00786897 0.00188633 -0.015995 -0.00816248 4.65531e-09 -7.90198e-09 4.39939e-08 0.0005 1.46608e-07 
69 1 0.0146235 0.0231206 0.0150295 -0.00514932 -0.00210849 4.30067e-06 -1.6139e-07 2.79295e-07 1.70684e-06 0.0005 1.46608e-07 
70 1 0.0247712 0.0161479 0.0158515 -0.00026948 -0.000680552 -0.000519903 3.30018e-06 -2.48689e-06 6.96094e-06 0.0005 1.46608e-07 
71 1 0.0345988 0.0164685 0.0149339 0.000267071 -0.000136379 -0.000743793 3.48897e-07 -2.71434e-07 -4.09287e-07 0.0005 1.46608e-07 
73 1 0.0211985 0.0224283 0.015568 0.00772995 -0.00304542 0.0045462 5.3447e-07 3.92794e-06 3.07935e-07 0.0005 1.46608e-07 
75 1 0.0204931 0.0210788 0.0154635 0.00246911 0.0149741 -0.0040001 -2.11489e-06 -5.25862e-06 -7.10092e-07 0.0005 1.46608e-07 
78 1 0.0164554 0.0231211 0.0148287 -0.032214 -0.131801 -0.0518256 0 0 -1.43822e-06 0.0005 1.46608e-07 
79 1 0.0142722 0.0219582 0.0148623 0.00455188 0.00255265 -0.00153042 2.68284e-06 -1.99652e-06 -1.3851e-06 0.0005 1.46608e-07 
81 1 0.019956 0.0228956 0.0150086 0.00205494 0.0122872 -0.00998704 0 0 -1.43822e-06 0.0005 1.46608e-07 
82 1 0.0242007 0.019277 0.00587306 7.37351e-16 1.75309e-15 5.543e-15 -5.0822e-20 4.19281e-20 -2.73168e-20 0.0005 1.46608e-07 
85 1 0.0196067 0.0138067 0.0138267 0.00275703 -0.00253843 0.00438878 2.66661e-05 -1.75566e-05 -2.17059e-05 0.0005 1.46608e-07 
87 1 0.0202506 0.0244012 0.0136669 -0.00813829 0.004996 0.00695695 0 0 -1.43822e-06 0.0005 1.46608e-07 
88 1 0.0241575 0.0210843 0.00621584 5.6794e-16 -2.23969e-15 4.68871e-15 4.93132e-20 2.76344e-20 2.75286e-21 0.0005 1.46608e-07 
89 1 0.0296983 0.0182863 0.00725152 0.000293449 -0.0231261 0.00500426 2.87032e-09 2.25892e-08 1.61531e-08 0.0005 1.46608e-07 
91 1 0.0238042 0.0227326 0.0152385 -0.0131846 0.00957699 -0.00879732 0 0 -1.43822e-06 0.0005 1.46608e-07 
92 1 0.0179127 0.0243987 0.0138176 0.000443002 -0.000279003 -0.000220809 2.78827e-06 -9.85783e-06 1.29675e-05 0.0005 1.46608e-07 
93 1 0.028974 0.0156347 0.0089034 -0.0168609 0.0529969 -0.0352699 0.000968596 0.00359236 -0.00523898 0.0005 1.46608e-07 
94 1 0.0146103 0.0225971 0.0141777 0.00249187 0.00170709 -0.00182235 3.84279e-06 -1.06232e-06 -4.85538e-06 0.0005 1.46608e-07 
95 1 0.0163071 0.0148429 0.0129322 -0.00744562 0.00188719 0.00660251 4.71814e-07 7.21657e-08 5.85674e-07 0.0005 1.46608e-07 
98 1 0.0234542 0.014943 0.0149522 0.00150552 0.00288189 0.00167736 2.43743e-06 6.08298e-07 2.71539e-06 0.0005 1.46608e-07 
101 1 0.0368284 0.0225813 0.00917505 0.000625544 -0.0151507 -0.0209983 1.20422e-08 -4.5003e-08 -6.83196e-08 0.0005 1.46608e-07 
103 1 0.0214043 0.0169264 0.0155272 0.00313157 0.0167305 -0.000188857 9.16582e-08 2.05623e-07 -4.04e-07 0.0005 1.46608e-07 
107 1 0.0207047 0.0201691 0.0158236 0.00174416 0.0165054 0.010364 0 0 -1.43822e-06 0.0005 1.46608e-07 
111 1 0.0181376 0.0140914 0.0129757 -0.00738682 -0.000999144 -0.000576714 1.26264e-06 -3.80949e-07 -1.62113e-06 0.0005 1.46608e-07 
113 1 0.0229002 0.0234239 0.0143827 -0.0134764 0.00894129 -0.0145716 -8.55533e-08 7.25917e-08 -1.18818e-07 0.0005 1.46608e-07 
115 1 0.0171822 0.0143643 0.0128629 -0.00746972 0.00213804 0.00142018 1.42651e-06 -7.99209e-07 -4.64508e-07 0.0005 1.46608e-07 
121 1 0.0220325 0.0192339 0.00586691 -3.12375e-15 6.70755e-15 2.41853e-14 1.04245e-21 -2.48154e-21 -8.25857e-21 0.0005 1.46608e-07 
122 1 0.0242133 0.0204257 0.00750037 1.71065 -0.531649 0.773003 -0.269663 0.0582349 0.0986206 0.0005 1.46608e-07 
127 1 0.0210256 0.0139328 0.0137592 0.00103954 0.00424104 -0.00714873 1.20024e-07 -6.83216e-08 4.49409e-07 0.0005 1.46608e-07 
130 1 0.0212013 0.0178787 0.0157855 -0.000173782 0.0246091 0.007453 5.89259e-07 -6.41432e-07 3.29155e-06 0.0005 1.46608e-07 
133 1 0.0223901 0.0168599 0.0153736 0.00379145 0.0110213 0.00722356 1.77482e-07 2.36932e-08 5.68344e-08 0.0005 1.46608e-07 
138 1 0.0245191 0.0202247 0.00585487 -2.80323e-16 -4.55023e-17 5.58657e-15 1.52995e-20 2.56095e-20 5.29396e-21 0.0005 1.46608e-07 
139 1 0.0219511 0.0152147 0.013646 0.00973012 0.00634673 0.024528 -1.46356e-05 0.000331788 -5.89733e-07 0.0005 1.46608e-07 
140 1 0.0229187 0.0188013 0.0159468 -0.00099004 0.0276047 0.00380623 2.16124e-06 7.37025e-07 -9.26801e-08 0.0005 1.46608e-07 
142 1 0.023384 0.0222365 0.0161023 0.0570597 -0.0439187 -0.02194 0 0 -1.43822e-06 0.0005 1.46608e-07 
143 1 0.03283 0.02268 0.0138303 0.285358 -14.9904 -5.63633 0.0581655 0.183488 -0.126846 0.0005 1.46608e-07 
147 1 0.0365451 0.0202012 0.00609265 -2.43446e-09 8.25684e-09 1.94676e-09 6.69346e-12 -2.27018e-11 -5.35271e-12 0.0005 1.46608e-07 
149 1 0.0199271 0.014612 0.0143258 -0.0156596 0.00600384 0.0263073 1.10658e-05 -1.9177e-05 1.44695e-05 0.0005 1.46608e-07 
150 1 0.0248084 0.0218002 0.0159966 0.00444244 0.00127943 0.00247455 3.46981e-07 9.239e-06 1.17045e-05 0.0005 1.46608e-07 
151 1 0.0221545 0.0220385 0.0147871 0.00317803 0.000782204 -0.00200479 -4.92447e-07 -1.55244e-06 -9.64773e-07 0.0005 1.46608e-07 
152 1 0.0172498 0.0240365 0.0131465 -0.000396931 -0.000909747 4.60535e-05 4.73628e-06 4.13818e-07 -1.4018e-06 0.0005 1.46608e-07 
153 1 0.0444323 0.0198211 0.00575801 -1.43113e-14 4.13151e-14 2.26976e-13 1.32878e-20 -9.84676e-21 2.75286e-21 0.0005 1.46608e-07 
154 1 0.0353945 0.0168079 0.00781981 0.000260105 -0.0219768 0.0125266 -9.20872e-10 3.01195e-09 1.65098e-08 0.0005 1.46608e-07 
155 1 0.0217528 0.0157646 0.0144947 -0.00393888 0.0999094 0.123843 0 0 -1.43822e-06 0.0005 1.46608e-07 
156 1 0.0154639 0.0222655 0.0145789 0.00262118 0.00125485 -0.00720114 1.03014e-05 -5.65776e-06 -1.16874e-06 0.0005 1.46608e-07 
157 1 0.0313732 0.0233673 0.0114628 0.00016608 0.000306544 -0.0254337 -9.20079e-10 -1.55806e-08 -7.49981e-09 0.0005 1.46608e-07 
160 1 0.0213581 0.0215097 0.0152072 0.00891061 0.00108166 -0.00176559 -1.13851e-06 1.39744e-06 -1.03216e-06 0.0005 1.46608e-07 
161 1 0.0202661 0.0221102 0.0157553 0.0013202 -0.000483325 -0.0220921 4.14898e-08 2.67437e-06 2.47089e-06 0.0005 1.46608e-07 
164 1 0.038691 0.0202193 0.0156355 0.000164836 0.00612263 -0.00103743 -1.95341e-07 4.34367e-07 -1.22016e-07 0.0005 1.46608e-07 
166 1 0.0220557 0.0149245 0.0128278 0.00266988 0.00364632 0.0158998 1.63466e-05 2.50469e-05 5.07657e-06 0.0005 1.46608e-07 
172 1 0.0225838 0.0199103 0.0158836 0.00796956 0.00900357 -0.0257256 0 0 -1.43822e-06 0.0005 1.46608e-07 
176 1 0.0556725 0.0187626 0.00588299 6.88697e-15 9.66266e-15 1.35975e-13 -6.43877e-20 7.37845e-20 -1.69407e-21 0.0005 1.46608e-07 
178 1 0.0155481 0.0229264 0.0153585 -0.0223895 -0.0435685 0.0201097 0 0 -1.43822e-06 0.0005 1.46608e-07 
180 1 0.015361 0.0232324 0.0143312 0.00198494 0.00123794 -0.00144507 -1.50137e-06 1.37252e-06 2.26093e-06 0.0005 1.46608e-07 
183 1 0.0189748 0.0241345 0.017167 0.0138805 0.0247048 0.0578511 0 0 -1.43822e-06 0.0005 1.46608e-07 
185 1 0.021072 0.0240803 0.0142602 0.0295342 -0.00376475 0.000206505 0 0 -1.43822e-06 0.0005 1.46608e-07 
188 1 0.0184869 0.0236831 0.0141559 0.000495215 -0.00164764 -0.00086655 9.18028e-06 -2.669e-05 3.51971e-05 0.0005 1.46608e-07 
189 1 0.0187512 0.0222258 0.00873669 -0.000118516 -0.0152405 -0.0206387 -7.07681e-10 -1.06919e-08 6.14324e-09 0.0005 1.46608e-07 
190 1 0.0200463 0.0232458 0.0105031 -8.0033e-05 -0.00271724 -0.0111429 -2.66426e-09 -8.9351e-09 -2.44649e-08 0.0005 1.46608e-07 
192 1 0.019529 0.0241483 0.0129866 -0.000481234 -0.00146944 0.000723117 8.05948e-06 -3.61014e-06 4.81025e-06 0.0005 1.46608e-07 
193 1 0.023454 0.0158901 0.0146312 0.0125756 0.0060006 0.00520278 -6.66839e-08 1.0165e-07 -1.51785e-06 0.0005 1.46608e-07 
198 1 0.0306854 0.0222671 0.00858354 0.000399099 -0.0165465 -0.0179339 -1.26265e-09 -1.53286e-08 3.80801e-09 0.0005 1.46608e-07 
201 1 0.00830357 0.0326771 0.0435188 7.77787e-317 -2.68245e-317 1.3543e-12 -2.14573e-320 2.27764e-320 0 0.0005 1.46608e-07 
207 1 0.0169581 0.0242665 0.0140731 0.000384143 0.000764188 -0.000221538 5.82294e-07 -5.13998e-06 -1.62915e-06 0.0005 1.46608e-07 
209 1 0.0298948 0.0191328 0.00718255 0.000547952 -0.0223244 -0.00154501 1.51793e-08 1.30936e-07 5.00532e-08 0.0005 1.46608e-07 
210 1 0.0196369 0.0233777 0.0124136 0.00130064 0.0039349 -0.0113755 3.59614e-06 -1.35126e-07 2.69269e-06 0.0005 1.46608e-07 
212 1 0.0205094 0.0232852 0.0129017 0.00345966 -0.011459 -0.00711115 0 0 -1.43822e-06 0.0005 1.46608e-07 
215 1 0.0365933 0.0210052 0.0435188 9.81282e-317 -7.96766e-317 2.45735e-12 2.05581e-320 2.47527e-320 0 0.0005 1.46608e-07 
216 1 0.0209648 0.0230886 0.0143899 -0.00172271 -0.00314267 -0.000599426 0 0 -1.43822e-06 0.0005 1.46608e-07 
219 1 0.0164025 0.0225755 0.0157852 -0.0423169 0.0117915 -0.0657989 0 0 -1.43822e-06 0.0005 1.46608e-07 
220 1 0.0208617 0.0148036 0.0146291 -0.0401007 0.0341332 0.0581734 0 0 -1.43822e-06 0.0005 1.46608e-07 
222 1 0.0259606 0.020517 0.00594618 4.7367e-15 7.69047e-16 -7.72381e-14 -4.12929e-21 1.52482e-20 0 0.0005 1.46608e-07 
227 1 0.0216733 0.0156828 0.0168146 -0.0276955 -0.206968 -0.116931 0 0 -1.43822e-06 0.0005 1.46608e-07 
228 1 0.0233746 0.0167044 0.0152924 0.00292009 0.00744035 0.00394736 -2.04161e-07 -1.88048e-07 -9.48595e-08 0.0005 1.46608e-07 
229 1 0.0211529 0.0234359 0.0121472 7.27636e-05 0.000971867 -0.000334215 3.42691e-07 -1.46152e-06 -7.85178e-06 0.0005 1.46608e-07 
231 1 0.0186531 0.0230563 0.0148769 0.00085752 -0.00367899 0.000690722 3.22943e-05 -3.75047e-05 4.77523e-05 0.0005 1.46608e-07 
238 1 0.0189013 0.0244446 0.0136923 0.000510145 -0.000260156 0.000315012 3.7964e-06 -9.90871e-06 1.47515e-05 0.0005 1.46608e-07 
239 1 0.0198581 0.0277276 0.0252554 -0.0721132 0.102155 0.037945 0 0 -1.43822e-06 0.0005 1.46608e-07 
240 1 0.021152 0.0239852 0.013254 -0.000207227 5.6284e-05 -0.000191476 1.40164e-06 5.03152e-07 1.01566e-06 0.0005 1.46608e-07 
244 1 0.0304068 0.0196428 0.00577505 -1.66055e-15 1.48858e-17 -1.94765e-14 2.64698e-23 1.03811e-21 0 0.0005 1.46608e-07 
246 1 0.0343276 0.0147803 0.0117095 -0.000787308 -0.000768267 0.0256161 3.28146e-09 2.34928e-08 7.24205e-08 0.0005 1.46608e-07 
252 1 0.0193909 0.0234404 0.0114756 0.00193065 -0.00120424 -0.0149657 -2.08822e-07 -2.2564e-06 -7.87617e-06 0.0005 1.46608e-07 
253 1 0.017801 0.0240677 0.016955 0.257166 0.158197 0.419244 0 0 -1.43822e-06 0.0005 1.46608e-07 
257 1 0.0223708 0.0212786 0.0154014 0.0103332 -0.00729503 -0.0111531 0 0 -1.43822e-06 0.0005 1.46608e-07 
258 1 0.0228706 0.0153706 0.0140065 0.00541176 0.00863335 0.0112897 5.49266e-06 -5.19822e-06 3.30484e-06 0.0005 1.46608e-07 
261 1 0.065076 0.0190099 0.00574968 2.12839e-15 -1.19943e-14 -2.0523e-13 -6.14542e-19 -1.39231e-20 -6.77626e-21 0.0005 1.46608e-07 
262 1 0.0216554 0.0233174 0.0155512 0.0012203 -0.000202341 0.000266187 -1.07823e-06 1.89435e-06 2.56139e-06 0.0005 1.46608e-07 
264 1 0.0284547 0.0176223 0.00593982 2.32112e-14 -2.14462e-16 2.72287e-13 1.05879e-22 7.82906e-21 0 0.0005 1.46608e-07 
266 1 0.0220134 0.0237271 0.0137685 0.000453932 0.000329524 0.000364952 -2.17125e-07 -1.42786e-06 5.8063e-08 0.0005 1.46608e-07 
267 1 0.0269996 0.0186144 0.0157971 -8.61555e-06 0.0221034 0.00276118 -1.57938e-05 -6.30645e-07 3.71766e-06 0.0005 1.46608e-07 
271 1 0.0215738 0.0206373 0.0156513 0.00691383 -0.00210132 -0.000287792 -4.73893e-08 2.90564e-07 -1.14696e-06 0.0005 1.46608e-07 
276 1 0.022476 0.0155641 0.0327221 0.0731242 0.0149328 -0.0162443 0 0 -1.43822e-06 0.0005 1.46608e-07 
277 1 0.0204689 0.0220508 0.014778 0.000717505 0.0231929 -0.0206074 -1.99612e-06 7.27745e-06 3.10206e-05 0.0005 1.46608e-07 
279 1 0.0322595 0.0217118 0.0148329 -0.119864 -0.177294 0.119685 0.00786032 -7.24393e-05 0.00171418 0.0005 1.46608e-07 
280 1 0.0345592 0.0159298 0.0144615 -4.78421e-05 -0.00328392 -0.000620435 -5.10095e-08 -1.05208e-08 -1.09763e-07 0.0005 1.46608e-07 
281 1 0.0132612 0.0175036 0.016594 -0.000908342 0.0175788 0.0128175 0 0 -1.43822e-06 0.0005 1.46608e-07 
285 1 0.0220102 0.0238214 0.0147638 -0.00147617 0.00216669 0.000197182 -9.1201e-07 -8.38189e-07 6.75673e-07 0.0005 1.46608e-07 
287 1 0.0175159 0.0234725 0.0143149 0.002587 0.00162674 -0.00363369 -3.35089e-07 2.3337e-06 -1.14784e-06 0.0005 1.46608e-07 
288 1 0.0226824 0.0145116 0.0144855 0.00854164 0.00294823 0.000729187 -6.04808e-06 -5.29607e-06 -8.2385e-06 0.0005 1.46608e-07 
289 1 0.0257436 0.0231035 0.0130143 0.000784371 0.00964305 -0.0191674 3.27327e-09 2.66005e-08 -1.11689e-07 0.0005 1.46608e-07 
290 1 0.0197285 0.0229199 0.0160915 0.026879 0.0154367 0.00594639 0 0 -1.43822e-06 0.0005 1.46608e-07 
291 1 0.0293342 0.0165797 0.00796328 0.00153849 -0.0177076 0.0123371 -1.48087e-08 -2.12206e-08 3.44673e-08 0.0005 1.46608e-07 
296 1 0.0304402 0.0214198 0.00783321 0.286249 1.56896 2.38951 -0.0146497 -0.0414877 0.147116 0.0005 1.46608e-07 
297 1 0.0260193 0.0222493 0.0142549 0.000115127 0.0170081 -0.0187565 -1.09976e-09 -8.94447e-09 -1.31612e-08 0.0005 1.46608e-07 
298 1 0.0241351 0.0155236 0.0153982 0.00478221 0.000720914 0.00506637 -2.82887e-06 7.40567e-06 -4.58804e-06 0.0005 1.46608e-07 
299 1 0.0391006 0.0190317 0.00571839 -8.46048e-15 4.07889e-14 -2.01665e-13 1.67626e-19 3.95988e-20 8.47033e-22 0.0005 1.46608e-07 
300 1 0.0209792 0.0191237 0.0159549 -2.72814e-05 0.0222066 0.0335848 0 0 -1.43822e-06 0.0005 1.46608e-07 
301 1 0.0278233 0.0155509 0.0139131 0.000147231 0.0132708 0.0215587 -1.53425e-08 1.91893e-08 2.66676e-08 0.0005 1.46608e-07 
305 1 0.0236661 0.0182528 0.00728261 0.000174181 -0.0246327 0.004334 -6.65344e-10 -3.10214e-09 1.59174e-08 0.0005 1.46608e-07 
306 1 0.0180978 0.0220003 0.0158811 -0.068322 -0.174181 0.128161 0 0 -1.43822e-06 0.0005 1.46608e-07 
308 1 0.0259356 0.0174622 0.00843933 -0.00272662 0.00476421 -0.00403956 -1.24853e-08 1.33754e-07 -1.12877e-07 0.0005 1.46608e-07 
309 1 0.0201348 0.0229052 0.013769 -0.0331097 -0.00332803 0.0130704 0 0 -1.43822e-06 0.0005 1.46608e-07 
313 1 0.020127 0.0237207 0.0144225 0.0126906 0.0187751 -0.0292778 0 0 -1.43822e-06 0.0005 1.46608e-07 
314 1 0.0217907 0.0139121 0.0146462 0.0193355 -0.0483667 -0.0133927 0.000200806 -1.89978e-05 -0.000375581 0.0005 1.46608e-07 
319 1 0.0191336 0.0140004 0.0129695 -0.00715668 -0.000640076 0.00929579 -1.34224e-05 -1.07842e-05 -7.80954e-06 0.0005 1.46608e-07 
320 1 0.019264 0.0220751 0.0158232 -0.00261235 0.0280664 -0.0092119 0 0 -1.43822e-06 0.0005 1.46608e-07 
321 1 0.0282719 0.0148095 0.011887 0.00106879 0.00326614 0.0218903 -1.18338e-08 1.71143e-08 2.70141e-08 0.0005 1.46608e-07 
324 1 0.0220676 0.0202327 0.00590095 2.61492e-15 -1.20622e-15 2.40092e-14 -9.36575e-22 4.10282e-22 -8.25857e-21 0.0005 1.46608e-07 
326 1 0.0208593 0.0231262 0.0161997 0.0219866 -0.0102238 0.0167387 0 0 -1.43822e-06 0.0005 1.46608e-07 
327 1 0.0294065 0.0152813 0.0095324 0.00730502 0.0999677 -0.0178772 0.0011433 0.00274674 -0.00315999 0.0005 1.46608e-07 
328 1 0.0265595 0.0180887 0.00595892 -1.21335e-14 -1.7961e-15 1.97908e-13 -2.14008e-20 2.27845e-19 1.05879e-21 0.0005 1.46608e-07 
332 1 0.0174235 0.0228861 0.0151584 0.0587103 0.0393928 0.0571773 -0.000143102 -7.08802e-05 -7.79099e-05 0.0005 1.46608e-07 
334 1 0.0338639 0.015448 0.0138092 0.000177778 0.0134369 0.0228651 4.07432e-10 1.58531e-08 -6.21634e-09 0.0005 1.46608e-07 
338 1 0.0238887 0.0169712 0.00772381 -6.8486e-06 -0.0105021 0.00443024 3.3108e-08 -9.82132e-09 -1.89512e-08 0.0005 1.46608e-07 
340 1 0.0170405 0.0201072 0.00601288 -6.68009e-15 -2.67588e-15 5.51373e-14 -1.24143e-20 -7.65506e-20 -5.29396e-21 0.0005 1.46608e-07 
341 1 0.0201551 0.0238603 0.0155572 -0.0106052 -0.0218753 0.00633961 0 0 -1.43822e-06 0.0005 1.46608e-07 
