ITEM: TIMESTEP
1000000
ITEM: NUMBER OF ATOMS
169
ITEM: BOX BOUNDS ff ff ff
-0.02 0.43
-0.02 0.06
-0.02 0.07
ITEM: ATOMS id type x y z vx vy vz fx fy fz radius mass 
1 1 0.015914 0.0230518 0.0177385 -0.0674269 0.0336489 0.0106402 0 0 -1.43822e-06 0.0005 1.46608e-07 
2 1 0.0164695 0.023536 0.0146712 0.00305164 0.00244924 0.00169988 -8.03476e-07 -1.3563e-06 -4.24872e-07 0.0005 1.46608e-07 
3 1 0.0228388 0.0220832 0.0147708 -0.00552755 0.0803441 0.0483035 0 0 -1.43822e-06 0.0005 1.46608e-07 
4 1 0.0168311 0.0141779 0.0135844 0.00127276 -0.00120202 0.00244493 -8.05815e-08 1.54478e-07 -4.10775e-07 0.0005 1.46608e-07 
5 1 0.0221978 0.0144672 0.0141091 0.00440271 0.00335928 0.00147958 -1.45393e-07 -6.10916e-08 -4.55556e-07 0.0005 1.46608e-07 
6 1 0.0173329 0.0161174 0.0148575 0.00477876 0.00234981 0.00400766 -2.75819e-09 -1.66626e-07 -5.33254e-07 0.0005 1.46608e-07 
7 1 0.0190296 0.0146228 0.0119364 0.00515202 -0.00102468 0.00171003 -4.13693e-07 -4.74127e-08 2.82404e-07 0.0005 1.46608e-07 
8 1 0.0223364 0.0215195 0.0167381 0.0344638 -0.00467313 0.018563 0 0 -1.43822e-06 0.0005 1.46608e-07 
9 1 0.0205003 0.0240965 0.0128019 -0.000124165 -0.00297552 -0.00196669 2.52566e-09 3.38862e-08 -5.61982e-08 0.0005 1.46608e-07 
10 1 0.0182715 0.0240801 0.0129701 -0.00226616 0.000858196 -0.000202047 1.16737e-06 4.76743e-06 -4.75583e-06 0.0005 1.46608e-07 
11 1 0.0164918 0.0233102 0.0127941 0.0046315 0.00743515 -0.00506075 0 0 -1.43822e-06 0.0005 1.46608e-07 
12 1 0.0193845 0.0241133 0.0129296 0.00557753 -0.00259161 0.00110797 -7.79024e-05 1.04385e-07 3.2416e-06 0.0005 1.46608e-07 
13 1 0.0166487 0.0239077 0.0137604 0.00350316 0.00229 0.00183197 2.42924e-06 3.63318e-06 2.25109e-06 0.0005 1.46608e-07 
14 1 0.0166577 0.0230524 0.015603 0.0046925 -0.0244638 -0.0504352 0 0 -1.43822e-06 0.0005 1.46608e-07 
15 1 0.0212692 0.014712 0.0144519 0.00478545 0.00403605 0.000497726 -1.20447e-06 -4.09646e-07 2.891e-07 0.0005 1.46608e-07 
16 1 0.0187731 0.0145039 0.0128955 0.00530019 -0.00104356 0.00167466 -4.79846e-07 -1.5756e-07 2.19206e-07 0.0005 1.46608e-07 
17 1 0.0214249 0.0239786 0.0136597 -0.0367141 -0.0744443 -0.0719878 0 0 -1.43822e-06 0.0005 1.46608e-07 
18 1 0.0196686 0.019385 0.00722214 0.000656278 -0.0247686 -0.00477702 -1.24222e-08 -5.58874e-08 -4.18456e-10 0.0005 1.46608e-07 
19 1 0.0176362 0.0242965 0.0139407 -0.040178 0.0225076 -0.00218599 0 0 -1.43822e-06 0.0005 1.46608e-07 
20 1 0.0231066 0.0166177 0.0159543 0.00479995 0.00311317 0.01313 0 0 -1.43822e-06 0.0005 1.46608e-07 
21 1 0.021014 0.0225206 0.00894428 0.00088478 -0.00261367 -0.00688718 1.41244e-07 -1.6391e-09 3.94877e-08 0.0005 1.46608e-07 
22 1 0.0185027 0.0142971 0.0144259 0.00329977 -0.000994549 0.000704852 2.8476e-07 -1.48499e-06 3.21717e-07 0.0005 1.46608e-07 
23 1 0.0225978 0.0183005 0.0186822 -0.0200094 -0.233044 0.168142 0 0 -1.43822e-06 0.0005 1.46608e-07 
24 1 0.0192914 0.017839 0.00735404 0.000626244 -0.0224301 0.00644299 2.42816e-07 4.95812e-07 -3.60367e-07 0.0005 1.46608e-07 
25 1 0.0205018 0.0140689 0.0131355 0.00541516 0.000616715 0.00157844 -7.89008e-07 3.45936e-07 -4.26078e-07 0.0005 1.46608e-07 
26 1 0.0157174 0.0244193 0.0191763 -0.0615898 0.0329963 0.130437 0 0 -1.43822e-06 0.0005 1.46608e-07 
27 1 0.0182664 0.0148371 0.0106387 5.89378e-05 -0.00643653 0.0248914 -1.20368e-09 1.318e-08 7.68723e-09 0.0005 1.46608e-07 
28 1 0.023662 0.0150495 0.015128 0.00422857 0.000794542 0.00594886 3.17784e-07 -1.99315e-07 3.11492e-08 0.0005 1.46608e-07 
29 1 0.0171815 0.0234739 0.0120886 0.00456213 0.00180689 -0.00405944 2.35377e-07 -1.09948e-06 -5.8526e-07 0.0005 1.46608e-07 
30 1 0.021717 0.0224199 0.0154865 0.0440885 0.0752993 0.0304774 0 0 -1.43822e-06 0.0005 1.46608e-07 
31 1 0.0188115 0.0243888 0.0137653 -0.0313551 -0.0401244 0.0495685 0 0 -1.43822e-06 0.0005 1.46608e-07 
32 1 0.021806 0.0227034 0.0141198 0.00602522 0.0330517 -0.0514035 0 0 -1.43822e-06 0.0005 1.46608e-07 
33 1 0.0234778 0.0156202 0.0143279 0.00197447 0.0106751 0.013512 9.68172e-08 1.03213e-07 2.14612e-07 0.0005 1.46608e-07 
34 1 0.019011 0.0164694 0.00808269 1.16181 9.52485 10.8673 0.0367563 -0.409004 -0.251686 0.0005 1.46608e-07 
35 1 0.0212441 0.0234292 0.0122124 0.00405649 -0.00126111 -0.00386999 -3.58331e-05 3.80527e-05 9.20516e-05 0.0005 1.46608e-07 
36 1 0.0219683 0.0232873 0.0129368 -0.00114779 0.0302388 -0.0262426 0 0 -1.43822e-06 0.0005 1.46608e-07 
37 1 0.0229096 0.0144721 0.0148112 0.00422934 0.00347364 0.00207553 4.01721e-07 1.86799e-07 4.74894e-07 0.0005 1.46608e-07 
38 1 0.0233097 0.0187646 0.0170196 -0.113372 -0.0354236 -0.017094 0 0 -1.43822e-06 0.0005 1.46608e-07 
39 1 0.0236797 0.0229593 0.0153554 -0.0430301 -0.00208529 -0.0494352 0 0 -1.43822e-06 0.0005 1.46608e-07 
40 1 0.0211301 0.0231919 0.0148626 -0.056004 0.00311198 -0.0345553 0 0 -1.43822e-06 0.0005 1.46608e-07 
41 1 0.0156739 0.022821 0.0154696 -0.0224084 -0.0122253 0.010309 0 0 -1.43822e-06 0.0005 1.46608e-07 
42 1 0.0213815 0.0142347 0.0135805 0.00500497 0.00261726 0.00141142 -8.37062e-07 -1.50229e-07 2.60727e-07 0.0005 1.46608e-07 
43 1 0.0180334 0.0146334 0.0120194 0.00525214 -0.0011197 0.00183096 -1.16107e-07 2.29811e-07 2.01319e-07 0.0005 1.46608e-07 
44 1 0.017841 0.0138473 0.0138262 0.00254853 -0.00127554 0.00174252 2.72875e-07 -6.80669e-07 3.45869e-07 0.0005 1.46608e-07 
45 1 0.0223091 0.0236771 0.0140482 -0.00214213 0.014559 -0.0130273 -5.86236e-07 1.28784e-07 -1.03677e-06 0.0005 1.46608e-07 
46 1 0.0241323 0.0207699 0.0156231 0.0313654 -0.046955 0.0356853 0 0 -1.43822e-06 0.0005 1.46608e-07 
47 1 0.0240915 0.0199722 0.0171455 -0.0252506 0.0455325 -0.0171159 0 0 -1.43822e-06 0.0005 1.46608e-07 
48 1 0.0242523 0.0161463 0.0148715 0.0119466 0.00773415 0.0052817 -3.29013e-06 -3.0354e-06 6.53354e-06 0.0005 1.46608e-07 
49 1 0.0174123 0.023165 0.0146432 0.0116692 0.020859 -0.0647701 0 0 -1.43822e-06 0.0005 1.46608e-07 
50 1 0.0254496 0.0209485 0.0163718 -0.00224468 0.00448016 -0.00151488 3.3887e-07 1.18973e-06 -2.53384e-07 0.0005 1.46608e-07 
51 1 0.0171154 0.0169375 0.0154161 0.00458547 0.00527917 0.00416908 -9.68694e-10 -1.69633e-10 1.38068e-08 0.0005 1.46608e-07 
52 1 0.0196244 0.021332 0.0166877 -0.118 -0.14803 -0.126345 0 0 -1.43822e-06 0.0005 1.46608e-07 
53 1 0.0246287 0.0220015 0.0158977 -0.00543426 0.0374419 0.000622877 0 0 -1.43822e-06 0.0005 1.46608e-07 
54 1 0.020624 0.0228933 0.00955024 0.000586026 -0.00859263 -0.0169957 2.50028e-09 -2.07536e-07 -7.25257e-07 0.0005 1.46608e-07 
55 1 0.0241885 0.0203112 0.0182959 0.0293089 -0.11054 0.0510828 0 0 -1.43822e-06 0.0005 1.46608e-07 
56 1 0.0256442 0.0190764 0.0168626 0.0155507 -0.0428224 0.0349696 0 0 -1.43822e-06 0.0005 1.46608e-07 
57 1 0.0185766 0.0233613 0.0159535 -0.0551113 0.0579007 -0.0280578 0 0 -1.43822e-06 0.0005 1.46608e-07 
58 1 0.0172735 0.0239543 0.0129619 0.0007364 0.000799273 0.00167249 8.49341e-07 -3.61999e-07 3.06049e-06 0.0005 1.46608e-07 
59 1 0.023695 0.0174055 0.0172499 -0.0152239 -0.0818866 0.00401648 0 0 -1.43822e-06 0.0005 1.46608e-07 
60 1 0.020237 0.0236519 0.0145308 0.0445988 -0.02356 -0.0517494 0 0 -1.43822e-06 0.0005 1.46608e-07 
61 1 0.0152189 0.0234182 0.0148 9.85379e-05 -0.00294574 -0.00860468 0 0 -1.43822e-06 0.0005 1.46608e-07 
62 1 0.0232819 0.0229375 0.0144131 0.00595224 -0.0115525 -0.0193012 0 0 -1.43822e-06 0.0005 1.46608e-07 
63 1 0.0241919 0.015495 0.0207554 0.0016145 -0.226401 0.159173 0 0 -1.43822e-06 0.0005 1.46608e-07 
64 1 0.0239226 0.0169729 0.0154306 -0.010949 0.0365126 0.0155659 0 0 -1.43822e-06 0.0005 1.46608e-07 
65 1 0.0196846 0.0142331 0.0125834 0.00524617 -0.000924802 0.00153626 -5.56414e-07 4.76808e-07 2.98423e-08 0.0005 1.46608e-07 
66 1 0.024275 0.0197178 0.0159935 0.0177163 -0.11427 -0.0283363 0 0 -1.43822e-06 0.0005 1.46608e-07 
67 1 0.0229635 0.0150688 0.0185006 -0.156958 -0.0382091 0.0217805 0 0 -1.43822e-06 0.0005 1.46608e-07 
69 1 0.0183661 0.0230323 0.0149555 -0.00234472 0.0517076 -0.0233982 0 0 -1.43822e-06 0.0005 1.46608e-07 
70 1 0.0132944 0.0196506 0.0175352 0.00566406 0.0386675 0.0140843 0 0 -1.43822e-06 0.0005 1.46608e-07 
71 1 0.0196557 0.0204824 0.0177422 0.043756 -0.127436 -0.0723307 0 0 -1.43822e-06 0.0005 1.46608e-07 
72 1 0.0177075 0.0150329 0.0134379 0.00580403 -4.28232e-05 -0.000946317 -8.6221e-08 7.66267e-08 -8.51594e-07 0.0005 1.46608e-07 
73 1 0.0227941 0.0192787 0.0159558 0.0273444 -0.193779 0.0135767 0 0 -1.43822e-06 0.0005 1.46608e-07 
74 1 0.0202823 0.0217204 0.00814095 -0.000190489 -0.0135635 -0.0110597 -1.36593e-06 9.00131e-06 5.41211e-06 0.0005 1.46608e-07 
75 1 0.0169896 0.0221303 0.01843 -0.0526495 -0.0611244 0.0863227 0 0 -1.43822e-06 0.0005 1.46608e-07 
76 1 0.0206911 0.0179588 0.0073239 -0.353325 -4.4171 -7.06838 -0.0170252 0.0227546 -0.165503 0.0005 1.46608e-07 
77 1 0.0208768 0.0232865 0.0105816 0.000424993 -0.00520311 -0.0238121 -4.09925e-09 -1.57171e-08 -8.21111e-09 0.0005 1.46608e-07 
78 1 0.0203608 0.0214065 0.0177535 -0.048463 0.0168729 -0.0694148 0 0 -1.43822e-06 0.0005 1.46608e-07 
79 1 0.0226501 0.0226569 0.0199971 0.0776666 0.00723435 0.204955 0 0 -1.43822e-06 0.0005 1.46608e-07 
80 1 0.0175035 0.0232605 0.0136431 0.00502769 0.00156507 0.000780301 -5.01636e-09 -2.84813e-06 3.25324e-06 0.0005 1.46608e-07 
81 1 0.025245 0.0166108 0.0205694 0.105161 -0.234682 0.181483 0 0 -1.43822e-06 0.0005 1.46608e-07 
82 1 0.0228344 0.0230088 0.0135216 -0.00910849 0.00639971 -0.0104747 1.20052e-06 2.17299e-06 -1.59229e-06 0.0005 1.46608e-07 
83 1 0.0203825 0.0144625 0.0140469 0.00414559 -2.06679e-05 0.00189394 -3.61864e-08 9.93721e-08 3.38601e-07 0.0005 1.46608e-07 
84 1 0.0201235 0.0150152 0.0148402 0.00446754 -0.000701952 0.00470431 -4.75219e-07 -6.52479e-07 7.00441e-07 0.0005 1.46608e-07 
85 1 0.0178061 0.0142011 0.0128918 0.00476985 -0.00164219 0.00142279 3.95593e-07 -6.31078e-07 -8.55428e-08 0.0005 1.46608e-07 
86 1 0.0164232 0.0188291 0.016875 0.0538811 0.0108584 0.0243939 0 0 -1.43822e-06 0.0005 1.46608e-07 
87 1 0.0241364 0.0174509 0.020481 -0.0783741 -0.0970992 0.208015 0 0 -1.43822e-06 0.0005 1.46608e-07 
88 1 0.0175241 0.0151707 0.0165465 -0.0427896 -0.0710321 -0.107674 0 0 -1.43822e-06 0.0005 1.46608e-07 
89 1 0.0188193 0.022307 0.0174081 -0.0646321 -0.00670622 -0.132927 0 0 -1.43822e-06 0.0005 1.46608e-07 
90 1 0.0190918 0.0161505 0.0148798 0.000435021 -0.00237109 0.000634892 -8.52376e-09 -2.05071e-07 -2.51491e-07 0.0005 1.46608e-07 
91 1 0.0131855 0.0200744 0.0185276 -0.180162 -0.139431 0.0797946 0 0 -1.43822e-06 0.0005 1.46608e-07 
92 1 0.0220758 0.0157607 0.0156122 0.00291338 0.00358556 0.000196531 3.57834e-07 4.58302e-07 1.54925e-07 0.0005 1.46608e-07 
93 1 0.0140237 0.0182185 0.0170368 -0.0384334 -0.0386264 -0.106862 0 0 -1.43822e-06 0.0005 1.46608e-07 
94 1 0.0235344 0.0151053 0.0226459 -0.102962 -0.223372 0.311899 0 0 -1.43822e-06 0.0005 1.46608e-07 
95 1 0.0181729 0.0165515 0.0151841 0.0112041 0.00232012 -0.00177541 0 0 -1.43822e-06 0.0005 1.46608e-07 
96 1 0.0201999 0.0176017 0.0166275 -0.0047305 -0.0144025 0.206871 0 0 -1.43822e-06 0.0005 1.46608e-07 
97 1 0.0174175 0.0146189 0.0143007 0.00300446 0.0011468 -0.00127546 -2.58062e-07 3.41166e-07 2.4364e-07 0.0005 1.46608e-07 
98 1 0.0138009 0.0221675 0.0157494 0.0105177 0.0160067 -0.0125671 2.62732e-08 2.51922e-07 -4.03484e-07 0.0005 1.46608e-07 
99 1 0.0225449 0.0173609 0.0168368 -0.00844387 -0.0167731 0.0455794 0 0 -1.43822e-06 0.0005 1.46608e-07 
100 1 0.0169083 0.0241016 0.0191387 -0.00107757 0.0125336 -0.039498 0 0 -1.43822e-06 0.0005 1.46608e-07 
101 1 0.0216016 0.0217293 0.0178763 0.0611688 -0.0190158 -0.0841129 0 0 -1.43822e-06 0.0005 1.46608e-07 
102 1 0.0166355 0.019154 0.0159497 0.00510811 0.0225806 -0.00215641 0 0 -1.43822e-06 0.0005 1.46608e-07 
103 1 0.0171302 0.0209222 0.0155572 -0.000917737 0.0333393 -0.00083313 0 0 -1.43822e-06 0.0005 1.46608e-07 
104 1 0.0169276 0.0219081 0.015409 0.0164242 -0.00450675 0.00494627 0 0 -1.43822e-06 0.0005 1.46608e-07 
105 1 0.018156 0.0241274 0.0166155 -0.0149061 -0.0110088 -0.0252074 0 0 -1.43822e-06 0.0005 1.46608e-07 
106 1 0.0182225 0.015799 0.0145273 0.00293322 -0.000914565 -0.00169911 6.14558e-07 1.28048e-06 2.15555e-06 0.0005 1.46608e-07 
107 1 0.0155967 0.0230162 0.0135422 0.00513828 0.00230317 -0.00257158 -1.43667e-06 -1.64695e-06 -2.72845e-06 0.0005 1.46608e-07 
108 1 0.0216614 0.0233584 0.0190831 0.0318517 0.0113079 0.102797 0 0 -1.43822e-06 0.0005 1.46608e-07 
109 1 0.0233709 0.0160722 0.0228636 0.0698875 -0.290274 0.378898 0 0 -1.43822e-06 0.0005 1.46608e-07 
110 1 0.021214 0.0212478 0.0164583 -0.0539296 0.044351 0.0181715 0 0 -1.43822e-06 0.0005 1.46608e-07 
111 1 0.0168377 0.0223425 0.0145099 -0.00610097 -0.00137375 0.00050286 0 0 -1.43822e-06 0.0005 1.46608e-07 
112 1 0.0165586 0.0148758 0.014744 0.0014845 -0.00302083 -0.00155913 -1.21309e-08 -1.88847e-07 -2.63031e-07 0.0005 1.46608e-07 
113 1 0.0181751 0.0203104 0.0157677 2.07543e-08 0.0232213 -0.00664873 3.07224e-11 1.21881e-08 -2.45071e-08 0.0005 1.46608e-07 
114 1 0.0165717 0.0229122 0.0137319 0.00466933 0.00124272 -0.000768709 -3.07449e-06 1.196e-06 -2.77296e-06 0.0005 1.46608e-07 
115 1 0.0150245 0.0219241 0.0171619 0.00105766 -0.0920282 -0.0421589 0 0 -1.43822e-06 0.0005 1.46608e-07 
116 1 0.0148417 0.0222373 0.0157708 0.00360935 0.0327468 -0.0140935 0 0 -1.43822e-06 0.0005 1.46608e-07 
117 1 0.0187596 0.0151595 0.0136503 0.00323438 -0.000407366 0.00121925 9.59559e-08 -7.29846e-08 -1.48038e-07 0.0005 1.46608e-07 
118 1 0.0158841 0.0227486 0.0144616 0.00491262 0.00588874 -0.000782137 1.29668e-06 -5.81729e-06 1.55712e-06 0.0005 1.46608e-07 
119 1 0.0220889 0.0150335 0.014926 0.00432589 0.0027961 0.00178853 -3.65441e-07 8.48618e-07 -1.15755e-06 0.0005 1.46608e-07 
120 1 0.0159639 0.0194686 0.0195424 -0.122442 -0.173627 0.103732 0 0 -1.43822e-06 0.0005 1.46608e-07 
121 1 0.0234355 0.0167494 0.01873 0.0600195 -0.167886 0.108372 0 0 -1.43822e-06 0.0005 1.46608e-07 
122 1 0.0232784 0.0163281 0.0150121 0.00831806 0.00929315 0.0100983 0 0 -1.43822e-06 0.0005 1.46608e-07 
123 1 0.0190257 0.0205315 0.0165442 -0.0299776 -0.0101726 0.0182131 0 0 -1.43822e-06 0.0005 1.46608e-07 
124 1 0.0163794 0.020607 0.0167302 -0.028017 0.0247871 -0.0186205 0 0 -1.43822e-06 0.0005 1.46608e-07 
125 1 0.0206715 0.016011 0.015918 0.00327919 -0.0126437 0.0327952 0 0 -1.43822e-06 0.0005 1.46608e-07 
126 1 0.0216733 0.0182336 0.0167678 0.0628457 -0.0587773 0.138744 0 0 -1.43822e-06 0.0005 1.46608e-07 
127 1 0.017968 0.019304 0.0159524 0.00203777 0.0235077 -0.000630051 1.34395e-06 -1.95286e-07 -2.30493e-06 0.0005 1.46608e-07 
128 1 0.0210262 0.0208862 0.0184486 0 -0 -0.03 0 0 0 0.0005 1.46608e-07 
129 1 0.0238803 0.0188937 0.0225032 0.0799553 -0.131495 0.32398 0 0 -1.43822e-06 0.0005 1.46608e-07 
130 1 0.0234119 0.0185776 0.0205365 0.113857 -0.180687 0.174236 0 0 -1.43822e-06 0.0005 1.46608e-07 
131 1 0.0175462 0.0183426 0.0158973 9.67507e-07 0.023825 0.00362884 -1.33677e-09 1.01334e-07 4.10422e-09 0.0005 1.46608e-07 
132 1 0.0189512 0.0145316 0.0152883 0.0033861 0.0033686 -0.000170927 6.12218e-07 -3.29273e-07 1.20308e-07 0.0005 1.46608e-07 
133 1 0.0196976 0.0194351 0.0185016 0 -0 -0.03 0 0 0 0.0005 1.46608e-07 
134 1 0.0177905 0.0197963 0.0170517 -0.0202724 -0.0249937 -0.0264824 0 0 -1.43822e-06 0.0005 1.46608e-07 
135 1 0.019869 0.0240542 0.0164359 -0.0170663 -0.00743725 -0.056599 0 0 -1.43822e-06 0.0005 1.46608e-07 
136 1 0.0198582 0.01459 0.0157053 0.00204983 -0.00153769 0.00444119 -2.48757e-07 -1.0449e-06 1.99484e-06 0.0005 1.46608e-07 
137 1 0.0250172 0.0175442 0.0165947 0.0489561 -0.097761 -0.0110973 0 0 -1.43822e-06 0.0005 1.46608e-07 
138 1 0.0196988 0.0156435 0.0154918 3.41819e-05 -0.000662118 0.00223228 -9.6081e-07 9.49132e-07 4.59156e-07 0.0005 1.46608e-07 
139 1 0.0194493 0.0140875 0.0140492 -0.00134386 -0.00411078 -0.0684558 0 0 -1.43822e-06 0.0005 1.46608e-07 
140 1 0.0213313 0.0181362 0.0189002 0 -0 -0.03 0 0 0 0.0005 1.46608e-07 
141 1 0.0191795 0.0151856 0.0145574 0.00645214 0.00379005 -0.000237683 7.99467e-08 1.65665e-07 -3.70627e-07 0.0005 1.46608e-07 
142 1 0.0180441 0.021286 0.015339 -0.000477153 0.0308912 -0.0222702 0 0 -1.43822e-06 0.0005 1.46608e-07 
143 1 0.0187231 0.0194044 0.0178139 -0.0384743 -0.100466 0.0380952 0 0 -1.43822e-06 0.0005 1.46608e-07 
144 1 0.0172248 0.019917 0.0162202 0.00687295 0.0352593 -0.0106551 -1.34395e-06 1.95286e-07 -5.71516e-07 0.0005 1.46608e-07 
145 1 0.0241626 0.0156601 0.0157444 0.021925 -0.0103229 0.00538385 0 0 -1.43822e-06 0.0005 1.46608e-07 
146 1 0.0196728 0.021654 0.0188828 0 -0 -0.03 0 0 0 0.0005 1.46608e-07 
147 1 0.019886 0.0165115 0.0183426 0 0 -0.0515084 0 0 -1.43822e-06 0.0005 1.46608e-07 
148 1 0.0190473 0.0224191 0.0155334 0.0027626 0.0293332 -0.0304063 0 0 -1.43822e-06 0.0005 1.46608e-07 
149 1 0.0169622 0.0197465 0.0197882 -0.100714 -0.110515 0.116211 0 0 -1.43822e-06 0.0005 1.46608e-07 
150 1 0.0180324 0.0149498 0.0150197 0.0017826 -0.00105362 -0.00166699 -1.09961e-06 -4.9474e-07 4.2133e-07 0.0005 1.46608e-07 
151 1 0.0197515 0.0190241 0.0167268 -0.0245695 -0.0315507 -0.000771695 0 0 -1.43822e-06 0.0005 1.46608e-07 
152 1 0.0163864 0.0202548 0.0157898 -0.000835139 0.0267708 -0.00648235 3.96329e-07 -3.66983e-07 2.14494e-06 0.0005 1.46608e-07 
153 1 0.0210049 0.015328 0.015194 0.00474341 0.00176603 0.00222521 3.60963e-07 1.19512e-07 8.63752e-08 0.0005 1.46608e-07 
154 1 0.0250602 0.0168179 0.0216545 0.0507778 -0.109889 0.220983 0 0 -1.43822e-06 0.0005 1.46608e-07 
155 1 0.0208805 0.0222565 0.0188749 0 -0 -0.03 0 0 0 0.0005 1.46608e-07 
156 1 0.0178114 0.0143884 0.0158172 0.000938442 0.000617342 -0.000600768 2.62618e-07 4.72363e-07 2.02277e-07 0.0005 1.46608e-07 
157 1 0.0145029 0.0174092 0.0165204 0.00826732 -0.0285095 0.11116 0 0 -1.43822e-06 0.0005 1.46608e-07 
158 1 0.0178135 0.0221795 0.0146578 0.00175238 0.00874299 -0.0119123 0 0 -1.43822e-06 0.0005 1.46608e-07 
159 1 0.0181824 0.0209861 0.0172028 -0.0998551 -0.0393888 -0.0580801 0 0 -1.43822e-06 0.0005 1.46608e-07 
160 1 0.0194306 0.0236952 0.017481 -0.0586767 0.0654724 -0.0578229 0 0 -1.43822e-06 0.0005 1.46608e-07 
161 1 0.0201011 0.0203169 0.0166007 -0.00778971 0.0198415 0.042411 0 0 -1.43822e-06 0.0005 1.46608e-07 
162 1 0.016571 0.0213971 0.0173381 -0.0594543 0.00231987 0.00722009 0 0 -1.43822e-06 0.0005 1.46608e-07 
163 1 0.018608 0.0173551 0.0156123 0.014767 0.00568361 0.0053239 0 0 -1.43822e-06 0.0005 1.46608e-07 
164 1 0.0248595 0.016828 0.0157571 -0.00302973 0.00292421 0.0282777 0 0 -1.43822e-06 0.0005 1.46608e-07 
165 1 0.0187628 0.0168901 0.0165859 -0.0181461 -0.213847 -0.0155444 0 0 -1.43822e-06 0.0005 1.46608e-07 
166 1 0.0198363 0.0224743 0.0175617 -0.0135249 -0.0317737 -0.120697 0 0 -1.43822e-06 0.0005 1.46608e-07 
167 1 0.0149688 0.0188 0.0169796 -0.0239533 0.0316396 -0.103709 0 0 -1.43822e-06 0.0005 1.46608e-07 
168 1 0.0159858 0.0144372 0.0140516 -0.000688565 0.00214995 -0.0029351 4.84249e-09 2.53174e-07 -4.38485e-07 0.0005 1.46608e-07 
169 1 0.0160356 0.0218807 0.0149343 0.00934522 0.00479276 0.00140307 4.99481e-07 -2.68586e-06 2.89389e-06 0.0005 1.46608e-07 
170 1 0.0143725 0.0229534 0.0150663 0.00663156 0.00384253 -0.00168059 -1.55437e-08 3.10767e-07 -2.24245e-07 0.0005 1.46608e-07 
