ITEM: TIMESTEP
2000000
ITEM: NUMBER OF ATOMS
327
ITEM: BOX BOUNDS ff ff ff
-0.02 0.43
-0.02 0.06
-0.02 0.07
ITEM: ATOMS id type x y z vx vy vz fx fy fz radius mass 
1 1 0.0179876 0.0242206 0.0168611 -0.0055803 -0.000915928 -0.00423974 1.86714e-05 -1.17298e-06 -2.45073e-06 0.0005 1.46608e-07 
2 1 0.0173731 0.0243693 0.013937 -0.0106956 0.000650572 -0.00225314 0.000179352 -8.22677e-06 7.83332e-05 0.0005 1.46608e-07 
3 1 0.0240307 0.0147624 0.0110161 0.000349917 -0.00367139 0.0249413 6.50133e-10 1.44606e-08 4.72337e-09 0.0005 1.46608e-07 
4 1 0.0184376 0.0142181 0.0126084 -0.00146577 -0.000985369 0.00139097 1.08454e-07 -3.80231e-07 1.10399e-06 0.0005 1.46608e-07 
5 1 0.023733 0.015159 0.0151909 0.00412097 0.00103496 -0.000816337 0 0 -1.43822e-06 0.0005 1.46608e-07 
6 1 0.0206794 0.0232568 0.0105063 0.000478027 -0.00547291 -0.0234891 -8.55686e-09 -1.58765e-08 -1.18906e-08 0.0005 1.46608e-07 
7 1 0.0229702 0.0146945 0.0145411 0.00362332 -0.00954134 0.0218885 0 0 -1.43822e-06 0.0005 1.46608e-07 
8 1 0.0235384 0.0230689 0.0155773 0.000118101 0.000304797 -0.000285224 -4.467e-06 -2.37802e-06 -1.46422e-06 0.0005 1.46608e-07 
9 1 0.0215962 0.0242142 0.0141101 0.00160146 0.000229822 0.00107396 -3.2523e-05 -3.08387e-05 1.36863e-05 0.0005 1.46608e-07 
10 1 0.0191816 0.0243413 0.0138974 0.00145713 0.00275837 -0.00740247 -1.6653e-05 -0.00013552 3.0803e-05 0.0005 1.46608e-07 
11 1 0.0189273 0.0168093 0.0078261 0.00075295 -0.0221741 0.012329 -2.28008e-08 -2.0674e-09 1.65192e-08 0.0005 1.46608e-07 
12 1 0.0202683 0.0241183 0.0129541 0.00987315 -0.0057016 0.00188951 -4.9313e-05 -6.25626e-05 0.000103179 0.0005 1.46608e-07 
13 1 0.0184776 0.0239805 0.0133126 0.00242384 -0.00607555 -0.00893489 -0.000223372 -4.22076e-05 0.000144852 0.0005 1.46608e-07 
14 1 0.021801 0.0237314 0.0149818 -0.00343264 -0.000454791 -0.00252486 -2.16474e-07 2.20194e-07 2.04836e-07 0.0005 1.46608e-07 
15 1 0.0209927 0.0223321 0.0156319 -0.00334748 -0.00180927 0.00377747 7.79222e-06 2.08125e-06 -1.26211e-06 0.0005 1.46608e-07 
16 1 0.0204082 0.0140548 0.0131201 -0.000699965 -0.00104151 0.00197196 2.4646e-07 -3.29448e-07 4.83821e-07 0.0005 1.46608e-07 
17 1 0.0224439 0.0237106 0.0142162 0.000165453 0.000555739 -0.00128278 -6.66563e-06 -1.4146e-06 -3.28731e-06 0.0005 1.46608e-07 
18 1 0.0188371 0.0169851 0.0154458 0.000889005 0.0241201 0.0218516 0 0 -1.43822e-06 0.0005 1.46608e-07 
19 1 0.0239377 0.0218185 0.0175645 0.000696532 -0.024387 -0.043393 0 0 -1.43822e-06 0.0005 1.46608e-07 
21 1 0.022694 0.0180095 0.0158249 0.00265725 0.0219876 0.00224757 2.44666e-06 1.43713e-06 -7.50712e-08 0.0005 1.46608e-07 
22 1 0.0196013 0.0137424 0.0136213 -0.000314736 -0.00619982 -0.000579079 -7.85603e-07 -1.82069e-07 -1.87301e-07 0.0005 1.46608e-07 
23 1 0.0175427 0.0207323 0.0165872 0.00411599 0.0111812 -0.00293234 2.21883e-06 1.00834e-07 2.34214e-06 0.0005 1.46608e-07 
24 1 0.0238062 0.021659 0.0152926 0.00831887 0.00160316 -0.00228869 -1.35479e-07 -3.23338e-06 -2.03957e-06 0.0005 1.46608e-07 
25 1 0.024846 0.0167984 0.0153488 0.00026244 0.0128048 0.00969296 -3.76661e-07 -1.19167e-06 8.95149e-06 0.0005 1.46608e-07 
26 1 0.0179115 0.0231058 0.0164846 0.00266791 0.0054418 0.00339186 0 0 -1.43822e-06 0.0005 1.46608e-07 
27 1 0.0190672 0.0146188 0.011943 0.000128695 -0.00135103 0.00237201 -4.43736e-08 2.34116e-07 4.14952e-07 0.0005 1.46608e-07 
28 1 0.0262405 0.0222708 0.00872073 0.00165578 -0.0138412 -0.0146552 1.04685e-07 -1.12205e-06 -9.0138e-07 0.0005 1.46608e-07 
29 1 0.0185618 0.015187 0.00964014 0.000284478 -0.00983932 0.0222073 -2.66174e-09 9.31836e-09 1.16398e-08 0.0005 1.46608e-07 
30 1 0.023977 0.020409 0.0166283 -0.00500094 0.000560706 -0.0106324 3.03407e-06 2.18615e-06 7.38058e-06 0.0005 1.46608e-07 
31 1 0.0227666 0.021869 0.0173867 0.00734032 -0.00845376 -0.0116845 0 0 -1.43822e-06 0.0005 1.46608e-07 
32 1 0.0236165 0.0148891 0.0126645 0.000564985 0.00520369 0.0178578 -4.3277e-09 4.99207e-08 2.93734e-08 0.0005 1.46608e-07 
33 1 0.015805 0.0209562 0.017003 -0.00241043 0.0141652 -0.00597827 0 0 -1.43822e-06 0.0005 1.46608e-07 
34 1 0.0220042 0.0221991 0.0161455 0.00608938 0.0267266 0.00731817 0 0 -1.43822e-06 0.0005 1.46608e-07 
35 1 0.0232885 0.0156731 0.0144559 0.00409508 0.0107816 -0.0115455 3.28297e-05 3.10151e-06 1.91822e-05 0.0005 1.46608e-07 
36 1 0.0234674 0.0152599 0.0135572 -0.00196356 0.0150707 0.0231309 -6.79708e-08 3.62917e-08 1.51637e-07 0.0005 1.46608e-07 
37 1 0.0258539 0.018508 0.0167353 0.00623622 -0.00413639 -0.00332038 0 0 -1.43822e-06 0.0005 1.46608e-07 
38 1 0.0210437 0.020287 0.017718 0.0106645 -0.0182862 0.00458832 0 0 -1.43822e-06 0.0005 1.46608e-07 
39 1 0.0259003 0.0211706 0.00781235 -0.000105835 -0.0218183 -0.0140972 -1.99953e-09 -9.62243e-09 1.0276e-08 0.0005 1.46608e-07 
40 1 0.0198199 0.0241728 0.0177378 0.00741936 -0.00140801 -0.000569114 0 0 -1.43822e-06 0.0005 1.46608e-07 
41 1 0.0208621 0.0235808 0.0142329 0.000988267 -0.00434177 0.00885523 -5.88853e-05 -8.33193e-05 5.2057e-06 0.0005 1.46608e-07 
42 1 0.0230813 0.021081 0.0157398 0.00642003 -0.000357301 -0.0159249 -5.66963e-06 1.85818e-06 6.77253e-06 0.0005 1.46608e-07 
43 1 0.0185113 0.0176692 0.0167585 0.000379269 -0.0286534 -0.00564154 0 0 -1.43822e-06 0.0005 1.46608e-07 
44 1 0.019499 0.0141535 0.0127155 -0.00021066 -0.00129967 0.00187947 8.36325e-07 5.46748e-07 9.79491e-07 0.0005 1.46608e-07 
45 1 0.019531 0.0155202 0.0154447 0.0154775 -0.0484286 -0.0129215 0 0 -1.43822e-06 0.0005 1.46608e-07 
46 1 0.0186707 0.014069 0.0144567 -0.000290962 0.0012062 0.000831238 -4.28773e-07 -1.41356e-07 -1.37058e-06 0.0005 1.46608e-07 
47 1 0.047302 0.0178823 0.00607722 -2.13204e-15 -1.16004e-14 -7.96755e-14 1.72848e-20 -1.95876e-20 2.5411e-21 0.0005 1.46608e-07 
49 1 0.0199263 0.0238293 0.0148629 0.00192291 0.0029944 -0.000629322 4.44031e-06 3.97355e-06 -7.75012e-07 0.0005 1.46608e-07 
50 1 0.0258142 0.0195039 0.0168257 0.0106713 -0.00157299 -0.00439293 0 0 -1.43822e-06 0.0005 1.46608e-07 
51 1 0.0241839 0.0223832 0.0158845 0.000568893 0.00175862 0.00129369 7.05745e-07 -1.24366e-06 -3.64603e-06 0.0005 1.46608e-07 
52 1 0.0223473 0.0122045 0.0262138 -0.0466474 -0.199115 0.0112991 0 0 -1.43822e-06 0.0005 1.46608e-07 
53 1 0.0230416 0.0159894 0.0181671 -0.0953143 0.0404066 -0.0515611 0 0 -1.43822e-06 0.0005 1.46608e-07 
54 1 0.0241572 0.0160675 0.0148139 -0.00655103 0.00561985 0.00827167 3.94923e-06 -9.01111e-06 2.38229e-05 0.0005 1.46608e-07 
55 1 0.0199731 0.0237653 0.0138661 0.00522702 -0.000221662 -0.00421948 -5.08897e-05 6.2236e-05 1.2488e-05 0.0005 1.46608e-07 
56 1 0.0267482 0.0233441 0.0107334 0.000529709 -0.000945876 -0.010478 4.20679e-08 -5.02942e-08 2.1145e-07 0.0005 1.46608e-07 
57 1 0.0189568 0.0244128 0.0170653 0.00219254 -0.00240881 0.00133423 -3.34583e-06 -7.09764e-06 3.85608e-06 0.0005 1.46608e-07 
58 1 0.0193275 0.0241073 0.0129337 0.00831163 -0.0109272 0.00467899 -0.000231667 -0.000133953 2.46164e-05 0.0005 1.46608e-07 
59 1 0.0197658 0.0186867 0.0167472 -0.00307222 0.0184247 0.00297992 4.71867e-08 1.3601e-07 -1.12318e-06 0.0005 1.46608e-07 
60 1 0.0199093 0.0243798 0.0167628 0.00212673 -0.00168056 0.000260731 7.53463e-06 3.75411e-05 -1.80514e-06 0.0005 1.46608e-07 
61 1 0.0168163 0.0237665 0.0134101 -0.0132194 -0.00467709 -0.0330834 0.000185214 -4.7669e-05 4.18246e-05 0.0005 1.46608e-07 
62 1 0.0245433 0.0156903 0.00875991 0.000770399 -0.0144893 0.0183787 -7.64846e-09 4.3322e-09 2.11689e-08 0.0005 1.46608e-07 
63 1 0.0182414 0.0155672 0.0142837 0.00341366 0.00221134 0.00855954 -3.07954e-05 1.92316e-06 2.93105e-06 0.0005 1.46608e-07 
64 1 0.0254822 0.0204131 0.0165673 0.00128122 0.00351156 -0.00332052 0 0 -1.43822e-06 0.0005 1.46608e-07 
65 1 0.0242181 0.0197929 0.0158787 0.00547199 0.00261122 -0.000952565 -3.32234e-06 -7.70396e-07 -7.83626e-06 0.0005 1.46608e-07 
66 1 0.0162793 0.0227654 0.015116 -0.0087691 0.00971393 -0.0173415 -2.13361e-07 0.000138423 -2.49562e-05 0.0005 1.46608e-07 
67 1 0.0213057 0.0142121 0.0135319 4.57445e-05 -0.000570595 0.000984944 2.14338e-07 -1.02452e-06 -1.20413e-06 0.0005 1.46608e-07 
69 1 0.023131 0.0231768 0.0146846 -0.00150398 -0.00103021 -0.000673376 -1.95271e-06 -8.60299e-07 -5.54137e-06 0.0005 1.46608e-07 
70 1 0.0146775 0.0230862 0.0149203 0.00329089 0.0013113 0.000794335 4.86746e-06 -4.40687e-06 1.85474e-06 0.0005 1.46608e-07 
71 1 0.0248268 0.0196696 0.016703 0.00158016 0.000940057 0.00378541 0 0 -1.43822e-06 0.0005 1.46608e-07 
72 1 0.0161498 0.023399 0.016862 0.001004 0.00247048 0.0118464 -1.42724e-05 -1.69816e-05 1.4305e-05 0.0005 1.46608e-07 
73 1 0.0227616 0.0203702 0.0166498 0.00301458 0.00231063 -0.00621329 -2.63748e-07 -2.60722e-07 3.08445e-07 0.0005 1.46608e-07 
74 1 0.0218223 0.0219021 0.0149514 -0.00233923 0.00723405 -0.0395762 0 0 -1.43822e-06 0.0005 1.46608e-07 
75 1 0.0175717 0.0224246 0.0144879 -0.0487869 0.00926311 -0.0161136 0 0 -1.43822e-06 0.0005 1.46608e-07 
76 1 0.0238988 0.0172132 0.0155445 0.00581824 0.00304482 -0.000329527 0 0 -1.43822e-06 0.0005 1.46608e-07 
77 1 0.0229191 0.0170238 0.0154598 -0.00130331 0.0210975 0.0153593 0 0 -1.43822e-06 0.0005 1.46608e-07 
78 1 0.0199479 0.0215693 0.0170425 -0.00170504 -0.00414195 0.00805362 -2.21277e-06 -6.23492e-07 1.32994e-06 0.0005 1.46608e-07 
79 1 0.0183969 0.0238908 0.0177093 -0.0088337 -0.00389867 -0.00752629 -9.55258e-06 3.08896e-06 -8.44875e-06 0.0005 1.46608e-07 
80 1 0.0207607 0.0170799 0.00762657 0.00012447 -0.0113857 0.00521417 -8.1863e-06 -2.07703e-05 2.34644e-05 0.0005 1.46608e-07 
81 1 0.0227246 0.0156145 0.0167044 -0.10759 0.0608051 -0.0609201 0 0 -1.43822e-06 0.0005 1.46608e-07 
82 1 0.0241547 0.0198405 0.00582873 1.31619e-14 2.1369e-15 -2.1481e-13 -2.41801e-20 1.76064e-19 2.11758e-22 0.0005 1.46608e-07 
83 1 0.0220523 0.0210164 0.01551 0.00536881 0.011259 -0.0240991 0 0 -1.43822e-06 0.0005 1.46608e-07 
84 1 0.0228053 0.0218419 0.0151528 -0.00487724 -0.00131232 -0.0132211 -1.16286e-07 -1.45439e-06 8.36912e-06 0.0005 1.46608e-07 
85 1 0.0184398 0.0149322 0.013503 0.00242974 -0.00146009 0.0149351 -2.4658e-07 8.6803e-08 -1.56162e-06 0.0005 1.46608e-07 
86 1 0.0202184 0.0222118 0.00861922 -0.000130935 -0.0154988 -0.0182556 -2.71603e-09 -1.53056e-08 6.6042e-09 0.0005 1.46608e-07 
87 1 0.0171685 0.0160942 0.0148331 0.00324543 0.0116511 0.00866499 5.46262e-09 -2.8607e-07 -6.09227e-07 0.0005 1.46608e-07 
88 1 0.0169478 0.0169114 0.0154205 0.00539022 0.00777779 0.00438948 0 0 -1.43822e-06 0.0005 1.46608e-07 
89 1 0.0224677 0.0207171 0.0175405 -0.012473 0.00653225 -0.0128349 0 0 -1.43822e-06 0.0005 1.46608e-07 
90 1 0.0224129 0.0229801 0.0135674 0.00444993 0.00365737 -0.0058408 6.3834e-07 5.02072e-06 -2.53374e-05 0.0005 1.46608e-07 
91 1 0.0167326 0.0178272 0.0157786 0.00189109 0.0166115 0.00230904 0 0 -1.43822e-06 0.0005 1.46608e-07 
92 1 0.016081 0.0203502 0.0177725 0.00801972 -0.0196518 -0.0307907 0 0 -1.43822e-06 0.0005 1.46608e-07 
93 1 0.0161343 0.0232161 0.01313 -0.00672997 -0.00398811 -0.0221071 -0.00022447 0.00024219 -0.00022623 0.0005 1.46608e-07 
94 1 0.016623 0.0142064 0.0136418 9.09951e-06 0.000220895 -0.00294361 -4.04364e-07 -1.97195e-06 1.14525e-06 0.0005 1.46608e-07 
95 1 0.0211171 0.023224 0.0127154 0.00106227 0.00467087 -0.0141324 7.57808e-06 -9.88811e-06 7.68613e-05 0.0005 1.46608e-07 
96 1 0.0207816 0.0239085 0.0164651 0.00786329 -0.00518199 -0.00681988 0 0 -1.43822e-06 0.0005 1.46608e-07 
97 1 0.0167776 0.0146822 0.0145075 -0.00319227 0.000203618 -0.00188596 6.68165e-07 1.92877e-06 3.22616e-06 0.0005 1.46608e-07 
98 1 0.0156536 0.0237117 0.0147357 0.00221725 -0.00149382 -0.00403517 0 0 -1.43822e-06 0.0005 1.46608e-07 
99 1 0.0215117 0.0184837 0.0175929 0.0157975 -0.00317661 0.00766525 0 0 -1.43822e-06 0.0005 1.46608e-07 
100 1 0.018954 0.0216019 0.0171464 -0.00297853 0.00237691 0.00695832 9.89995e-07 -8.44611e-07 6.45421e-07 0.0005 1.46608e-07 
101 1 0.0271266 0.0223689 0.008739 0.000108302 -0.00804163 -0.0110405 9.38851e-08 4.02144e-07 4.14497e-07 0.0005 1.46608e-07 
102 1 0.0158415 0.0218711 0.0151959 3.71483e-05 0.0111137 -0.011567 -3.83899e-05 -0.000126061 8.24497e-05 0.0005 1.46608e-07 
103 1 0.0211911 0.0239902 0.013176 -0.000635363 0.000105576 -0.00361335 -5.30374e-05 -7.68948e-06 2.76354e-05 0.0005 1.46608e-07 
104 1 0.017433 0.0173149 0.016473 -0.0367005 -0.0213355 -0.0209544 0 0 -1.43822e-06 0.0005 1.46608e-07 
105 1 0.0190302 0.0236771 0.0153059 0.00587246 0.000841455 0.000980057 -8.9951e-07 3.99866e-06 2.4811e-06 0.0005 1.46608e-07 
106 1 0.0214317 0.0229638 0.0136184 0.00126644 0.0115876 -0.0191671 -4.64235e-06 -2.10395e-05 2.00373e-05 0.0005 1.46608e-07 
107 1 0.0185337 0.015635 0.00887547 0.000123249 -0.0160165 0.0193105 -7.2826e-10 7.84496e-09 1.29838e-08 0.0005 1.46608e-07 
109 1 0.0189686 0.0146563 0.0152588 -0.00289821 -0.00753915 -0.00378132 -1.65269e-06 3.32838e-06 1.28312e-06 0.0005 1.46608e-07 
110 1 0.0203108 0.0148204 0.0151109 0.00401801 0.00281875 -0.00729666 1.75384e-06 1.83752e-06 3.13052e-06 0.0005 1.46608e-07 
111 1 0.020214 0.0213921 0.00795911 -0.519852 -2.58306 -2.67081 0.13111 0.402782 -0.63314 0.0005 1.46608e-07 
112 1 0.0176385 0.0140228 0.0134817 0.000780183 -0.00173644 0.00484981 -1.85072e-06 1.80204e-07 5.55018e-06 0.0005 1.46608e-07 
113 1 0.0214496 0.0232122 0.0157612 -0.00572241 0.000256503 -0.00455875 -6.28807e-07 2.67021e-07 -1.62412e-06 0.0005 1.46608e-07 
114 1 0.0200896 0.0191045 0.0071787 -0.00336601 -0.0022847 0.000440518 1.27702e-05 -2.00826e-06 2.1936e-06 0.0005 1.46608e-07 
115 1 0.0173325 0.022542 0.0158615 0.00320751 0.00212776 0.0102413 1.35863e-06 1.44102e-06 -7.50621e-06 0.0005 1.46608e-07 
116 1 0.0176161 0.0234536 0.0142999 0.00453001 -0.00765843 -0.00428676 -1.83886e-05 -5.60525e-06 4.14894e-05 0.0005 1.46608e-07 
117 1 0.0232656 0.0201021 0.0158288 0.00695607 0.000599333 -0.000855075 2.63748e-07 2.60722e-07 -3.18489e-06 0.0005 1.46608e-07 
118 1 0.0175853 0.0240606 0.0130342 -0.00161539 0.00352511 -0.0124961 -4.3414e-05 5.12541e-05 0.000203725 0.0005 1.46608e-07 
119 1 0.019608 0.0144086 0.014531 3.0341e-05 -0.000560421 -0.00068711 2.36775e-06 9.05383e-08 1.67725e-07 0.0005 1.46608e-07 
120 1 0.0171621 0.0232374 0.015164 -0.000341168 0.00525926 0.0022787 -8.9781e-06 1.44186e-05 -9.48745e-06 0.0005 1.46608e-07 
121 1 0.0204788 0.0144488 0.0140416 0.000643326 -0.00317331 0.00156642 2.73767e-06 7.20688e-07 4.12564e-07 0.0005 1.46608e-07 
122 1 0.0220465 0.0174704 0.0165477 0.00467508 0.0134298 0.00302656 0 0 -1.43822e-06 0.0005 1.46608e-07 
123 1 0.0163115 0.0197945 0.0158799 0.00104122 0.0187094 -0.00463712 3.58969e-06 5.40977e-06 1.99927e-06 0.0005 1.46608e-07 
124 1 0.0196101 0.0229014 0.0150598 0.00723456 0.00227487 0.00118056 1.18922e-05 6.06132e-06 7.41252e-06 0.0005 1.46608e-07 
125 1 0.0229735 0.0180169 0.0168725 0.0282772 0.0124362 -0.0118685 0 0 -1.43822e-06 0.0005 1.46608e-07 
126 1 0.0246422 0.0178408 0.0157764 0.0117463 0.00279942 0.0033984 0 0 -1.43822e-06 0.0005 1.46608e-07 
127 1 0.0158295 0.0237886 0.0179057 -0.00194245 0.0488799 0.0220565 7.79713e-05 -0.000214374 0.000148275 0.0005 1.46608e-07 
128 1 0.0174075 0.0197315 0.0167947 0.00127416 0.00833795 -0.000138936 0 0 -1.43822e-06 0.0005 1.46608e-07 
129 1 0.0229682 0.0191848 0.0168145 0.00288302 0.00419795 -0.0220167 0 0 -1.43822e-06 0.0005 1.46608e-07 
130 1 0.0206372 0.0145735 0.0174395 0.013851 -0.0406084 -0.0183369 0 0 -1.43822e-06 0.0005 1.46608e-07 
131 1 0.0205061 0.0229596 0.00970775 0.000248025 -0.0103144 -0.0206559 -7.35757e-09 -1.99535e-08 -9.43095e-09 0.0005 1.46608e-07 
132 1 0.022107 0.0186487 0.0167928 0.0129605 -0.00698644 -0.0106332 0 0 -1.43822e-06 0.0005 1.46608e-07 
133 1 0.0212853 0.0168349 0.016327 0.0160814 -0.00295718 0.0117429 0 0 -1.43822e-06 0.0005 1.46608e-07 
134 1 0.0154591 0.0231483 0.0155404 0.00376939 0.00585781 -0.00460613 2.36625e-07 -1.26365e-05 -5.33764e-06 0.0005 1.46608e-07 
135 1 0.0254593 0.0213945 0.0167638 -3.26861e-05 0.000389978 0.000314472 4.0456e-06 -3.73719e-06 7.8272e-07 0.0005 1.46608e-07 
136 1 0.018076 0.0164299 0.0150871 0.0126624 -0.00210131 -0.000695186 -8.66154e-07 -8.22254e-07 2.73051e-06 0.0005 1.46608e-07 
137 1 0.0233431 0.0169745 0.0171941 0.0492217 0.00114443 -0.0153565 0 0 -1.43822e-06 0.0005 1.46608e-07 
138 1 0.022528 0.0224363 0.0143982 -0.00740062 0.0040562 -0.00195751 4.88724e-06 2.50719e-06 -3.0365e-06 0.0005 1.46608e-07 
139 1 0.0221259 0.0144324 0.0140609 -0.00116074 0.00293647 0.000760153 0 0 -1.43822e-06 0.0005 1.46608e-07 
140 1 0.0237533 0.0164453 0.0161755 0.0180573 -0.00652086 0.0110437 0 0 -1.43822e-06 0.0005 1.46608e-07 
141 1 0.0225503 0.0213779 0.0165333 0.00145516 0.0172317 -0.02382 -2.64594e-06 1.19674e-06 -3.97462e-07 0.0005 1.46608e-07 
142 1 0.0211982 0.0235564 0.0121768 0.000523954 0.00147852 -0.00364719 5.03565e-06 -4.50228e-06 2.92079e-05 0.0005 1.46608e-07 
143 1 0.0177366 0.0144199 0.0143938 -0.00190749 -0.00145141 0.00649771 -2.92041e-07 7.71106e-07 4.64337e-06 0.0005 1.46608e-07 
144 1 0.0182017 0.0222936 0.0169911 0.0020375 0.00620017 -0.000899762 1.47802e-06 2.3926e-06 5.23429e-06 0.0005 1.46608e-07 
145 1 0.0248778 0.0216887 0.0160165 -6.56584e-05 0.00157041 0.00139711 -1.05792e-06 -3.02789e-06 -2.45384e-07 0.0005 1.46608e-07 
146 1 0.0191876 0.0104244 0.0259225 -0.113243 -0.0243001 0.0803418 0 0 -1.43822e-06 0.0005 1.46608e-07 
147 1 0.0244359 0.0188174 0.0159352 0.0070829 -0.00102055 -0.000203206 0 0 -1.43822e-06 0.0005 1.46608e-07 
148 1 0.0240097 0.0190885 0.0168061 0.00339487 -0.010432 0.0026326 0 0 -1.43822e-06 0.0005 1.46608e-07 
149 1 0.0182855 0.0241701 0.0142689 0.000812809 -0.0035336 -0.0115932 -6.39923e-06 -2.89805e-06 2.84852e-05 0.0005 1.46608e-07 
150 1 0.0194974 0.0224024 0.0167214 0.00686758 0.000976059 -0.000744732 -3.91848e-07 1.24458e-06 -2.97031e-06 0.0005 1.46608e-07 
151 1 0.0239982 0.0213778 0.0163775 -0.00201347 0.0032811 -0.00600258 2.57874e-06 2.85063e-06 8.39139e-06 0.0005 1.46608e-07 
152 1 0.0192717 0.0184925 0.00721972 0.000317289 -0.0244784 0.0035881 -6.6727e-09 -7.44724e-09 1.45669e-08 0.0005 1.46608e-07 
153 1 0.0216259 0.0228212 0.0145961 -0.00912847 0.0036082 -0.021696 0 0 -1.43822e-06 0.0005 1.46608e-07 
154 1 0.0240102 0.020734 0.0156127 0.00565284 0.00113772 -0.00351071 2.49672e-06 -7.59758e-07 -9.38331e-06 0.0005 1.46608e-07 
155 1 0.0166428 0.0240812 0.0174016 0.0174936 -0.00401207 0.000718826 3.98949e-07 5.55645e-06 7.39153e-06 0.0005 1.46608e-07 
156 1 0.0155332 0.0215517 0.0161621 -0.00857276 5.78692e-05 0.00352513 0 0 -1.43822e-06 0.0005 1.46608e-07 
157 1 0.0174543 0.0152168 0.0137768 0.0029024 0.00760517 0.012728 -2.87561e-06 -8.44019e-06 -7.18131e-06 0.0005 1.46608e-07 
158 1 0.0210674 0.022654 0.00918314 0.00182385 -0.00906544 -0.0127603 -2.02706e-09 -1.61722e-08 -1.33672e-08 0.0005 1.46608e-07 
159 1 0.019099 0.0230836 0.016107 0.00711301 0.00250474 0.000485797 1.89386e-06 -1.8319e-06 8.37881e-06 0.0005 1.46608e-07 
160 1 0.0206013 0.0230319 0.0150338 0.00523874 0.00486632 -7.44287e-05 0 0 -1.43822e-06 0.0005 1.46608e-07 
161 1 0.0225491 0.0228784 0.0154917 0.0413233 0.0161865 0.0153868 0 0 -1.43822e-06 0.0005 1.46608e-07 
162 1 0.0141548 0.0228602 0.0157596 0.0060527 0.00675488 -0.00306981 -3.50371e-07 6.4459e-08 -1.25486e-06 0.0005 1.46608e-07 
163 1 0.0219426 0.0232916 0.012761 8.01311e-05 0.00103077 -0.00215144 5.19756e-07 3.09977e-06 -8.0794e-06 0.0005 1.46608e-07 
164 1 0.0264584 0.0228532 0.00940306 0.00192932 -0.00742159 -0.0138192 2.57171e-07 -1.88353e-06 -2.44087e-06 0.0005 1.46608e-07 
165 1 0.0207291 0.0221483 0.0168098 -0.00361407 0.00234715 0.01008 1.02724e-06 -4.94015e-06 -2.83759e-06 0.0005 1.46608e-07 
166 1 0.0183052 0.0141189 0.0158011 0.00140615 -0.00153092 0.00264774 -4.03935e-08 -4.58982e-07 -1.75253e-06 0.0005 1.46608e-07 
167 1 0.0170467 0.0228939 0.0137241 0.00475314 -0.0167917 0.0124606 5.60723e-05 0.000232856 -0.000297161 0.0005 1.46608e-07 
168 1 0.0176654 0.0148206 0.0128802 0.00307705 0.00456037 0.0140017 -7.29799e-07 1.02628e-06 1.22513e-06 0.0005 1.46608e-07 
169 1 0.0190892 0.0176346 0.00741813 0.000550906 -0.0230486 0.00850165 -1.23018e-08 -3.81218e-09 1.59629e-08 0.0005 1.46608e-07 
170 1 0.016721 0.0238679 0.014418 0.00490424 -0.0353497 0.0114391 0.000148633 -6.49936e-05 -0.000156617 0.0005 1.46608e-07 
171 1 0.0192212 0.0234023 0.0179879 -0.00790667 -0.00208743 -0.0187299 -4.33155e-06 6.62213e-06 9.83662e-06 0.0005 1.46608e-07 
172 1 0.0216189 0.016005 0.0158476 -0.000373414 0.0101473 -0.038564 0 0 -1.43822e-06 0.0005 1.46608e-07 
174 1 0.0158186 0.0145016 0.0141582 0.00163562 -0.00134833 0.000458213 1.09571e-06 -5.88723e-07 -1.48744e-06 0.0005 1.46608e-07 
175 1 0.0197654 0.0144897 0.015881 -0.0177734 0.00805547 -0.0231589 -1.16371e-07 -5.84373e-08 -3.1779e-07 0.0005 1.46608e-07 
176 1 0.0235736 0.0222906 0.0145533 -0.00126514 -0.001338 -0.000260918 2.33518e-06 2.0784e-06 -1.30711e-06 0.0005 1.46608e-07 
177 1 0.018699 0.023997 0.0161932 0.00312462 0.000672103 -0.00167911 1.1126e-07 -2.12569e-06 1.02147e-05 0.0005 1.46608e-07 
178 1 0.0233507 0.0210862 0.0170835 -0.00479715 -0.0020529 -0.00905009 0 0 -1.43822e-06 0.0005 1.46608e-07 
179 1 0.0244863 0.0157894 0.0157164 0.0286272 -0.0119018 -0.0163637 0 0 -1.43822e-06 0.0005 1.46608e-07 
180 1 0.0185359 0.0207082 0.0164703 0.00410233 0.000259298 0.000893806 -2.0811e-06 4.90392e-06 1.88361e-06 0.0005 1.46608e-07 
181 1 0.0200807 0.0197243 0.0177303 -0.00116735 -0.00900452 0.0257425 0 0 -1.43822e-06 0.0005 1.46608e-07 
182 1 0.0210851 0.021414 0.0162326 -0.00151557 0.0157915 -0.00683955 -3.15108e-06 -4.59583e-06 -6.16371e-07 0.0005 1.46608e-07 
183 1 0.0193716 0.01635 0.0160088 0.027744 -0.000511106 -0.00627595 0 0 -1.43822e-06 0.0005 1.46608e-07 
184 1 0.0157738 0.0226235 0.016331 0.00283443 0.00779742 -0.000961217 -3.0992e-06 6.59175e-06 1.5457e-06 0.0005 1.46608e-07 
185 1 0.016743 0.0213978 0.0169578 0.00358513 0.0112705 0.00924204 1.55628e-06 -1.44895e-05 5.4652e-05 0.0005 1.46608e-07 
186 1 0.0239372 0.017591 0.0166457 0.0235454 -0.0237056 -0.0273265 0 0 -1.43822e-06 0.0005 1.46608e-07 
187 1 0.0173298 0.0186418 0.0175982 -0.106628 -0.0483097 0.00774259 0 0 -1.43822e-06 0.0005 1.46608e-07 
188 1 0.017236 0.0201838 0.0158095 0.0138333 -0.00591511 0.00392614 2.92876e-05 -6.22486e-05 1.33189e-05 0.0005 1.46608e-07 
189 1 0.0201709 0.0218676 0.0159615 -0.00359991 3.34833e-05 0.00125143 3.52013e-06 4.71261e-07 1.47596e-06 0.0005 1.46608e-07 
190 1 0.0191564 0.0158439 0.0145753 -0.000210713 0.00725135 0.01232 1.82425e-05 1.36769e-05 9.21065e-06 0.0005 1.46608e-07 
191 1 0.0176539 0.0182132 0.0158644 0.010311 -0.00217511 -0.0014894 0 0 -1.43822e-06 0.0005 1.46608e-07 
192 1 0.0220527 0.0145434 0.0150521 0.00546334 -0.0122989 0.000672018 0 0 -1.43822e-06 0.0005 1.46608e-07 
193 1 0.0194062 0.0212556 0.0162625 0.00817235 0.00740909 -0.00433585 1.27746e-05 -8.07475e-06 1.77794e-06 0.0005 1.46608e-07 
194 1 0.0149486 0.0220556 0.0168345 0.00284974 0.0070986 -0.00222798 8.6154e-06 1.88454e-05 1.49182e-05 0.0005 1.46608e-07 
195 1 0.0216019 0.0237615 0.0170191 0.00330523 0.00168183 0.00797389 -3.81548e-06 -1.68154e-06 3.98228e-07 0.0005 1.46608e-07 
196 1 0.0159767 0.0150725 0.014964 -0.00113109 -0.000766065 5.90482e-05 3.97075e-10 -1.2287e-07 -1.13601e-06 0.0005 1.46608e-07 
197 1 0.0181973 0.0198641 0.015866 0.000713479 0.0171738 -0.00357589 -1.4373e-07 1.882e-06 1.6448e-06 0.0005 1.46608e-07 
198 1 0.0154008 0.0229464 0.0136108 0.00560689 0.00111701 0.00287014 5.0663e-05 7.14461e-05 6.4643e-05 0.0005 1.46608e-07 
200 1 0.0216825 0.0216835 0.0170119 0.011491 0.0269753 -0.0206058 0 0 -1.43822e-06 0.0005 1.46608e-07 
201 1 0.0182913 0.0231066 0.0149496 0.00601315 -0.000900484 -0.00359335 -2.05343e-05 -2.1818e-05 -1.79021e-05 0.0005 1.46608e-07 
202 1 0.0196076 0.0206024 0.0176208 0.00734725 -0.0160903 -0.0482916 0 0 -1.43822e-06 0.0005 1.46608e-07 
203 1 0.0150287 0.0148428 0.0146675 0.00218968 0.000268877 -0.00394996 -9.4588e-07 -3.01519e-07 2.81649e-06 0.0005 1.46608e-07 
204 1 0.0236922 0.0181493 0.0158516 0.00275332 0.000258476 0.00099814 -4.45627e-07 1.47503e-06 5.11096e-06 0.0005 1.46608e-07 
206 1 0.0179022 0.023683 0.0156681 0.000797579 0.00194946 0.00153962 -2.66689e-07 -1.09047e-06 -3.67979e-06 0.0005 1.46608e-07 
207 1 0.0202894 0.0208267 0.0164652 0.0033635 0.00778132 -0.00468372 -1.53737e-06 9.92191e-06 1.00471e-05 0.0005 1.46608e-07 
208 1 0.0179885 0.020821 0.0155827 -0.000434217 0.0119376 -0.0280751 0 0 -1.43822e-06 0.0005 1.46608e-07 
209 1 0.0232521 0.0220537 0.0160747 -0.000795164 0.0115203 -0.0986813 0 0 -1.43822e-06 0.0005 1.46608e-07 
210 1 0.0219112 0.019636 0.0167117 0.00137163 -0.0123469 -0.00946993 0 0 -1.43822e-06 0.0005 1.46608e-07 
212 1 0.0183292 0.0225411 0.0157724 0.000884379 -0.00221281 0.0102553 -6.0928e-06 -7.92916e-06 -1.48008e-05 0.0005 1.46608e-07 
213 1 0.016552 0.02201 0.0161912 -0.00543148 -0.00164057 0.0310049 -4.00207e-07 6.38506e-07 -7.01895e-05 0.0005 1.46608e-07 
214 1 0.0201509 0.0196104 0.0167281 0.00701323 0.009899 -0.00404442 7.66505e-06 -4.39478e-06 -4.42778e-06 0.0005 1.46608e-07 
215 1 0.0222297 0.0232604 0.016385 -0.00124351 -0.00312979 -0.00834298 6.28807e-07 -2.67021e-07 -1.25233e-06 0.0005 1.46608e-07 
216 1 0.0168888 0.0153345 0.0154205 -0.000606538 0.00364781 -0.00148485 -9.58242e-08 4.85161e-08 -1.38215e-06 0.0005 1.46608e-07 
217 1 0.0156215 0.0224159 0.0143964 0.00356883 0.00198885 -0.00813953 0.000125665 5.92567e-06 0.000267685 0.0005 1.46608e-07 
218 1 0.0194327 0.0150375 0.0135571 0.00137779 0.00984697 0.0151487 1.11659e-07 -8.80148e-08 -1.2762e-06 0.0005 1.46608e-07 
219 1 0.015432 0.0228648 0.0173084 0.00260592 0.00421513 0.000308738 -3.36305e-06 9.51856e-07 9.69343e-07 0.0005 1.46608e-07 
220 1 0.0165442 0.0232321 0.015959 0.000439296 -0.0116255 0.00385518 -3.78499e-05 9.15806e-06 -4.68108e-05 0.0005 1.46608e-07 
221 1 0.0215032 0.0227749 0.0168941 0.00102326 -0.00110817 0.0166968 -1.50324e-06 -7.45871e-06 1.83293e-06 0.0005 1.46608e-07 
222 1 0.016215 0.0231009 0.0141765 0.0195204 -0.0277755 -0.00660689 0.000119057 -3.50655e-05 2.17851e-05 0.0005 1.46608e-07 
223 1 0.0149722 0.0222884 0.0156905 0.00536839 0.00439772 -0.0051806 -1.60012e-05 -1.64845e-05 7.45031e-06 0.0005 1.46608e-07 
224 1 0.0195185 0.013114 0.0203135 -0.0952923 0.0845421 -0.0682156 0 0 -1.43822e-06 0.0005 1.46608e-07 
225 1 0.019442 0.0202997 0.0165804 0.00850357 0.0071363 -0.00315586 -7.01151e-06 4.76232e-06 2.40305e-06 0.0005 1.46608e-07 
227 1 0.0186103 0.0137865 0.0134936 -0.000241378 -0.000785118 0.00135573 -5.63226e-07 -1.13737e-06 3.67643e-07 0.0005 1.46608e-07 
228 1 0.0175282 0.0217664 0.0164608 0.00434905 0.00703652 0.0051708 -5.01473e-06 -8.17394e-06 2.50042e-05 0.0005 1.46608e-07 
229 1 0.0160475 0.0209433 0.0155286 0.00638851 0.00215095 -0.00232705 0 0 -1.43822e-06 0.0005 1.46608e-07 
230 1 0.0168286 0.0219394 0.0152329 0.00480951 -0.00308776 0.00475141 7.86303e-07 -7.19419e-05 8.16104e-05 0.0005 1.46608e-07 
231 1 0.0143517 0.0167983 0.0162413 -0.00872919 -0.0017269 -0.000157424 1.23179e-07 -8.68986e-08 2.25774e-07 0.0005 1.46608e-07 
232 1 0.0192633 0.0221891 0.0156925 0.000361712 0.00449469 -0.00218908 8.03536e-06 -1.04961e-06 8.63204e-06 0.0005 1.46608e-07 
234 1 0.0172001 0.0238734 0.0163545 -0.00540985 -0.00054117 -0.00173676 7.34228e-06 -1.51465e-05 7.83393e-06 0.0005 1.46608e-07 
235 1 0.0201609 0.0229638 0.0159369 -0.0527848 0.016306 -0.00264054 0 0 -1.43822e-06 0.0005 1.46608e-07 
236 1 0.0200296 0.0177612 0.0212082 -0.0806781 0.0902726 0.100472 0 0 -1.43822e-06 0.0005 1.46608e-07 
237 1 0.0253847 0.017563 0.0166677 0.0026795 0.016487 -0.0173232 0 0 -1.43822e-06 0.0005 1.46608e-07 
238 1 0.0197866 0.0143745 0.0168988 -0.000389539 -0.0287379 -0.0230749 0 0 -1.43822e-06 0.0005 1.46608e-07 
239 1 0.015918 0.0219536 0.0170589 0.00182996 0.010446 0.00851024 -3.04913e-08 -4.0474e-06 8.29868e-06 0.0005 1.46608e-07 
240 1 0.0161535 0.0190317 0.0168428 -0.0282733 -0.00615531 -0.00167785 0 0 -1.43822e-06 0.0005 1.46608e-07 
241 1 0.0211893 0.014834 0.0146323 0.00641577 -0.00324506 -0.00568269 -1.42776e-07 -5.45999e-07 -4.37697e-07 0.0005 1.46608e-07 
242 1 0.0178 0.0217991 0.0153621 0.0113949 -0.00971377 0.00209964 5.6593e-07 0.000119663 -0.000143513 0.0005 1.46608e-07 
243 1 0.0173238 0.0235259 0.0193892 -0.0848691 0.0107208 -0.0347406 0 0 -1.43822e-06 0.0005 1.46608e-07 
244 1 0.0174564 0.0234647 0.0173079 0.00806156 -0.00974941 0.00418673 0 0 -1.43822e-06 0.0005 1.46608e-07 
245 1 0.0169223 0.0227575 0.0167558 0.00604086 -0.00118744 7.3942e-05 0 0 -1.43822e-06 0.0005 1.46608e-07 
246 1 0.0224829 0.0190237 0.0159447 0.00174717 0.0193347 0.000958383 -5.23217e-07 -2.45027e-07 2.2536e-07 0.0005 1.46608e-07 
247 1 0.0203528 0.0165269 0.0161033 0.0327416 5.25085e-05 0.0021428 0 0 -1.43822e-06 0.0005 1.46608e-07 
248 1 0.0189434 0.0247 0.0180237 0.00122582 0.00322574 -0.000590003 0 0 -1.43822e-06 0.0005 1.46608e-07 
249 1 0.0185034 0.0216849 0.0162576 0.00616505 0.00279309 0.00358852 8.09232e-06 -1.01315e-05 1.85221e-05 0.0005 1.46608e-07 
250 1 0.0189912 0.023461 0.0143304 0.00919909 0.000888688 -0.00158308 6.90128e-06 3.32962e-05 -2.1674e-05 0.0005 1.46608e-07 
251 1 0.021032 0.0191399 0.0167739 0.00752142 0.00709626 -2.77859e-05 -9.47979e-07 1.34947e-06 2.96335e-06 0.0005 1.46608e-07 
252 1 0.0175982 0.0215866 0.0174616 0.0184514 0.0222991 -0.00938563 0 0 -1.43822e-06 0.0005 1.46608e-07 
253 1 0.0190038 0.0166603 0.0178817 0.0109829 0.139737 -0.0494467 0 0 -1.43822e-06 0.0005 1.46608e-07 
254 1 0.0137418 0.0211729 0.0170931 0.000658585 -0.000363514 -0.000802725 -3.58623e-07 -2.52376e-06 -1.57298e-06 0.0005 1.46608e-07 
255 1 0.0199968 0.0239827 0.0158488 0.000511907 -0.00173855 -0.00199529 0 0 -1.43822e-06 0.0005 1.46608e-07 
256 1 0.0206982 0.0170234 0.0180448 0.0783194 -0.0885444 -0.0301682 0 0 -1.43822e-06 0.0005 1.46608e-07 
257 1 0.0198406 0.0153603 0.0163836 -0.00178119 0.000796244 -0.00587241 0 0 -1.43822e-06 0.0005 1.46608e-07 
258 1 0.0170163 0.0211584 0.0158282 0.0112495 -0.0147899 0.0294213 -3.38908e-05 6.54109e-05 -2.94588e-05 0.0005 1.46608e-07 
259 1 0.0149769 0.0206575 0.0165277 0.00174609 0.017779 -0.000753521 0 0 -1.43822e-06 0.0005 1.46608e-07 