ITEM: TIMESTEP
3000000
ITEM: NUMBER OF ATOMS
316
ITEM: BOX BOUNDS ff ff ff
-0.02 0.43
-0.02 0.06
-0.02 0.07
ITEM: ATOMS id type x y z vx vy vz fx fy fz radius mass 
1 1 0.0140984 0.0210235 0.0163729 0.00112659 0.000450814 -0.00167284 -8.35902e-08 2.61107e-07 -5.1897e-08 0.0005 1.46608e-07 
2 1 0.0181348 0.0243329 0.0136472 -0.00986084 0.00166739 -0.0220871 0 0 -1.43822e-06 0.0005 1.46608e-07 
3 1 0.0264097 0.0230766 0.00985996 0.00183852 -0.00317244 -0.0085438 4.60015e-07 1.10442e-06 2.48239e-06 0.0005 1.46608e-07 
4 1 0.0162333 0.0171337 0.0164475 0.00849231 0.00781447 -0.0025618 0 0 -1.43822e-06 0.0005 1.46608e-07 
5 1 0.02476 0.0165812 0.015193 0.00665849 -0.00733491 -0.00333131 0 0 -1.43822e-06 0.0005 1.46608e-07 
6 1 0.022481 0.0182495 0.0158718 0.00176629 0.0208495 0.00343446 -3.89201e-06 -5.03728e-06 -5.62277e-07 0.0005 1.46608e-07 
7 1 0.024076 0.0159159 0.0148807 0.00678467 0.00762028 0.00318192 0 0 -1.43822e-06 0.0005 1.46608e-07 
8 1 0.0219563 0.0227483 0.0153359 0.00650893 0.0038054 0.00865021 -9.79292e-06 -1.99879e-06 4.90391e-06 0.0005 1.46608e-07 
9 1 0.0214831 0.0242565 0.014061 -0.000967833 0.000801246 -0.00158948 -9.9713e-06 -1.37189e-05 1.22827e-05 0.0005 1.46608e-07 
10 1 0.0201762 0.0242927 0.0139371 -0.00401247 -0.00618449 0.0062152 -2.77049e-06 -3.29128e-06 5.71263e-06 0.0005 1.46608e-07 
11 1 0.0204099 0.0186608 0.0167673 0.00521752 0.00776709 4.10255e-05 -3.19255e-06 -4.77331e-06 4.76938e-06 0.0005 1.46608e-07 
12 1 0.0207431 0.0240738 0.0131489 -0.000846479 -0.00228652 0.00466543 -1.03459e-05 -6.51611e-07 2.02925e-06 0.0005 1.46608e-07 
13 1 0.0192283 0.0244584 0.0136804 -0.00156718 -0.000374874 0.000849341 -4.40202e-06 -6.4231e-06 -1.95977e-06 0.0005 1.46608e-07 
14 1 0.0213304 0.0226576 0.0140682 0.00262868 0.00421801 -0.0043553 -2.18364e-07 -1.16607e-06 8.05633e-06 0.0005 1.46608e-07 
15 1 0.0219735 0.0211771 0.0171702 -0.00775457 -0.00536207 0.00195313 0 0 -1.43822e-06 0.0005 1.46608e-07 
16 1 0.0232028 0.0186102 0.0165214 0.000981556 0.0297752 -0.000817665 0 0 -1.43822e-06 0.0005 1.46608e-07 
17 1 0.0222606 0.0237076 0.0139644 -0.000430105 0.00162612 -0.000103533 1.84922e-06 -1.39741e-05 -4.34924e-06 0.0005 1.46608e-07 
18 1 0.0228894 0.0229941 0.0135583 -0.000544522 0.00247356 -0.00172883 1.01898e-05 1.16424e-05 -6.1175e-06 0.0005 1.46608e-07 
19 1 0.0206459 0.0224233 0.0165985 -0.00536743 0.000729768 0.00695899 0 0 -1.43822e-06 0.0005 1.46608e-07 
21 1 0.0207388 0.014852 0.0154089 -0.00346743 -0.000863185 -0.000621493 -6.37574e-07 2.99954e-07 6.18196e-07 0.0005 1.46608e-07 
22 1 0.020031 0.0136973 0.0137594 -1.99239e-05 0.000267043 -0.00160552 -6.86064e-08 2.6614e-07 -1.11427e-06 0.0005 1.46608e-07 
23 1 0.0201563 0.0227413 0.0174114 -0.018139 -0.00868596 0.0103777 0 0 -1.43822e-06 0.0005 1.46608e-07 
24 1 0.0230671 0.0228748 0.0154343 0.000891513 -0.00109769 -0.00318717 -7.8752e-06 3.63047e-06 6.0836e-06 0.0005 1.46608e-07 
25 1 0.0216183 0.0149512 0.0158743 0.0120761 0.00479227 -0.0296338 -1.66479e-07 -2.08502e-08 -1.42272e-06 0.0005 1.46608e-07 
26 1 0.0214856 0.0234077 0.0159217 -0.00308811 0.00147841 0.00172567 5.89496e-06 1.12294e-06 5.31278e-06 0.0005 1.46608e-07 
27 1 0.0213418 0.0192863 0.0167863 -0.00637014 0.00802929 0.00319152 -4.548e-05 -6.95942e-07 1.0954e-05 0.0005 1.46608e-07 
28 1 0.0287091 0.019553 0.0157925 1.24368e-05 0.0112767 7.24464e-05 -3.29348e-11 -1.28652e-08 2.10446e-09 0.0005 1.46608e-07 
29 1 0.0204225 0.0207868 0.016481 -0.00325128 0.00396021 0.00230682 -1.65237e-06 3.13184e-07 -2.16443e-06 0.0005 1.46608e-07 
31 1 0.0157613 0.0226762 0.0164269 0.000480408 0.000676432 -0.00062198 -1.55913e-06 2.20211e-06 1.60025e-06 0.0005 1.46608e-07 
33 1 0.0166875 0.0219476 0.0171224 0.000171032 -0.00105667 -0.00103927 2.84767e-07 1.02344e-06 -1.32452e-06 0.0005 1.46608e-07 
34 1 0.021412 0.0160215 0.0158212 0.000216823 0.00486382 0.000151744 5.00966e-08 -1.23371e-07 4.66537e-08 0.0005 1.46608e-07 
35 1 0.0174145 0.0216602 0.017746 -0.00106211 -0.00170527 0.000618061 -5.53206e-06 1.20667e-06 4.90609e-06 0.0005 1.46608e-07 
36 1 0.0454257 0.0173169 0.00620813 -2.64714e-15 -1.17692e-14 -7.96376e-14 -2.18659e-18 5.90329e-19 -2.75286e-20 0.0005 1.46608e-07 
37 1 0.0253986 0.0176481 0.0166787 -0.000848113 0.0133402 0.0117344 0 0 -1.43822e-06 0.0005 1.46608e-07 
38 1 0.0213017 0.0147972 0.0145844 -0.000951681 -0.00104626 0.000765746 5.37412e-07 3.90028e-07 8.61682e-07 0.0005 1.46608e-07 
39 1 0.0270333 0.0232308 0.0127304 0.00127398 0.00839776 -0.020294 -4.81733e-09 -3.3028e-08 -1.22539e-08 0.0005 1.46608e-07 
40 1 0.0209066 0.0156825 0.0166146 -0.00682325 -0.0105925 -0.0109851 -3.47837e-07 -5.72089e-07 -2.36842e-07 0.0005 1.46608e-07 
41 1 0.0209934 0.0230767 0.0151162 0.00731387 -0.00540908 0.0139472 2.63305e-06 -2.70647e-06 6.21489e-06 0.0005 1.46608e-07 
42 1 0.0225512 0.023296 0.0147631 -0.000567373 0.00283432 2.69626e-05 -8.47499e-06 -2.78683e-07 -4.67998e-06 0.0005 1.46608e-07 
43 1 0.0184425 0.0140501 0.0142283 0.0031043 0.00232059 -0.00677031 7.5502e-08 -2.24395e-08 -1.43914e-06 0.0005 1.46608e-07 
44 1 0.0239301 0.0191902 0.0169288 0.00849477 0.0252614 0.00810628 1.94282e-06 -8.35809e-06 2.23307e-06 0.0005 1.46608e-07 
45 1 0.0142191 0.0153053 0.0151771 0.0170775 -0.0110949 -0.013429 0 0 -1.43822e-06 0.0005 1.46608e-07 
46 1 0.018701 0.0146133 0.0119521 0.0049138 -0.00140406 0.00238373 6.49872e-07 -2.52383e-08 -5.46238e-07 0.0005 1.46608e-07 
47 1 0.0487553 0.0195855 0.00596623 -6.6885e-16 1.36841e-15 1.40093e-14 1.29781e-19 -1.98523e-20 7.6233e-21 0.0005 1.46608e-07 
49 1 0.0197595 0.0234842 0.014367 -0.00226462 -0.00394153 0.0168421 0 0 -1.43822e-06 0.0005 1.46608e-07 
50 1 0.0256696 0.0188566 0.0167611 0.000684014 0.0290778 0.0116283 0 0 -1.43822e-06 0.0005 1.46608e-07 
51 1 0.0238328 0.0226837 0.0159554 -0.000694534 0.000679978 3.8729e-06 1.44019e-05 -1.16593e-07 -1.8918e-05 0.0005 1.46608e-07 
52 1 0.0228189 0.0184892 0.017437 0.00599633 0.0132431 0.00171895 1.82204e-07 -2.21422e-07 2.61628e-07 0.0005 1.46608e-07 
53 1 0.020648 0.019171 0.0175967 0.00556271 0.00682863 -0.000192792 0 0 -1.43822e-06 0.0005 1.46608e-07 
54 1 0.0262212 0.0226445 0.00915816 0.00177517 -0.00745854 -0.0131332 1.58232e-07 8.34725e-08 3.64392e-07 0.0005 1.46608e-07 
55 1 0.0207829 0.023577 0.014277 0.00560816 -0.00814481 0.0133103 3.65525e-06 -4.04813e-06 8.23172e-06 0.0005 1.46608e-07 
56 1 0.0279447 0.0204686 0.0155517 0.00103378 0.0213159 -0.00744198 -2.63139e-05 -2.37276e-05 -1.56652e-05 0.0005 1.46608e-07 
57 1 0.01723 0.0189757 0.0159475 -0.00192305 0.014147 -0.02853 0 0 -1.43822e-06 0.0005 1.46608e-07 
58 1 0.0197845 0.0241068 0.0129537 -0.00103664 -0.0067032 0.00454453 -1.27507e-06 1.15387e-05 -6.05213e-06 0.0005 1.46608e-07 
59 1 0.0213335 0.0165172 0.0169991 0.00493026 -0.00824529 -0.00694941 1.47714e-07 -1.88779e-07 -3.60045e-07 0.0005 1.46608e-07 
60 1 0.0180311 0.0224216 0.0174655 -0.00287779 0.000258944 4.41741e-05 -2.07411e-06 1.04602e-07 3.48556e-06 0.0005 1.46608e-07 
61 1 0.0172163 0.0239756 0.0134745 0.00279123 -0.0263552 0.00595959 -0.000101977 0.000508961 -0.000128297 0.0005 1.46608e-07 
62 1 0.0266448 0.0234034 0.0110933 0.000831095 -0.000747823 -0.025276 2.27585e-09 -1.50977e-08 -5.05064e-09 0.0005 1.46608e-07 
63 1 0.0185921 0.0194632 0.0167363 0.00249614 0.000499746 0.00116969 1.63641e-06 -4.80351e-07 3.58268e-06 0.0005 1.46608e-07 
64 1 0.0257255 0.0202461 0.0166302 -0.0125825 -0.0674858 0.0467175 7.53627e-05 -1.21693e-05 -8.37825e-05 0.0005 1.46608e-07 
65 1 0.0244272 0.0222309 0.0155785 -0.000949683 0.000597865 0.00147425 7.0715e-06 1.65094e-05 -2.42266e-05 0.0005 1.46608e-07 
66 1 0.0179242 0.0241275 0.0166677 0.000975899 8.50545e-05 -0.000123649 -5.53702e-07 2.71835e-06 -1.34143e-06 0.0005 1.46608e-07 
67 1 0.0244154 0.0181293 0.0158463 0.0025004 0.0115158 0.0070575 3.03416e-06 6.6597e-07 -2.09111e-06 0.0005 1.46608e-07 
69 1 0.0216838 0.0237711 0.0149118 -0.00128368 -0.000668594 0.00226821 -1.00812e-06 -1.36225e-06 -6.61498e-07 0.0005 1.46608e-07 
70 1 0.0157194 0.0234464 0.0145973 -0.00613114 0.0031878 0.00818774 -4.96332e-05 -3.44271e-05 4.91682e-05 0.0005 1.46608e-07 
71 1 0.0224155 0.0143388 0.0145024 -0.000206981 -0.000190351 0.000463941 -5.09348e-07 4.92254e-07 -1.77394e-07 0.0005 1.46608e-07 
72 1 0.0157297 0.0217875 0.0168841 0.00024582 -0.000911641 -0.00149143 -1.09104e-06 -2.79377e-07 -3.14604e-07 0.0005 1.46608e-07 
73 1 0.0227358 0.017708 0.0166772 0.00432594 0.00249237 -0.00277026 -2.82316e-06 8.63436e-06 1.00495e-05 0.0005 1.46608e-07 
74 1 0.0240218 0.0149217 0.0103388 0.000152823 -0.00879958 0.0224422 -1.82956e-08 2.69669e-08 -8.16628e-08 0.0005 1.46608e-07 
75 1 0.0213959 0.0229044 0.00945259 0.199582 -4.0885 8.07243 -0.00946552 -0.286134 0.112374 0.0005 1.46608e-07 
76 1 0.0194847 0.0210993 0.0163312 -0.00416415 0.000752753 0.00115446 6.23711e-06 -6.07946e-06 8.34947e-07 0.0005 1.46608e-07 
77 1 0.0166945 0.0147212 0.01456 0.0101535 -0.00603542 -0.0153916 0 0 -1.43822e-06 0.0005 1.46608e-07 
78 1 0.022206 0.0160798 0.0172172 5.72104e-07 -0.00782579 0.0135799 -1.40297e-06 2.68211e-09 4.05716e-06 0.0005 1.46608e-07 
79 1 0.0168954 0.0229974 0.017402 -0.00180197 -0.000486383 -0.000455363 2.63676e-06 -9.33398e-07 3.52888e-07 0.0005 1.46608e-07 
80 1 0.0232482 0.0169265 0.0163219 0.00773678 0.00728309 -0.000316066 2.82316e-06 -8.63436e-06 -1.29259e-05 0.0005 1.46608e-07 
81 1 0.0130542 0.0195015 0.0171068 -0.00457503 0.000949523 -0.00803364 -4.07659e-07 3.80336e-07 4.08431e-07 0.0005 1.46608e-07 
82 1 0.0240617 0.0194696 0.00583499 -1.45524e-08 1.41033e-08 -6.67805e-10 5.32024e-12 -6.31463e-12 1.22121e-12 0.0005 1.46608e-07 
84 1 0.0231766 0.0207552 0.0172218 -0.000341005 0.000728131 0.0243566 0 0 -1.43822e-06 0.0005 1.46608e-07 
85 1 0.0195453 0.0191614 0.0167321 0.0030475 0.00703796 0.00156885 8.15237e-07 -3.97109e-06 1.53685e-06 0.0005 1.46608e-07 
86 1 0.0207927 0.0140821 0.0132382 0.00396972 -0.00112292 0.00274738 -1.24352e-06 1.55833e-06 -1.31656e-06 0.0005 1.46608e-07 
87 1 0.0216331 0.0219157 0.0149067 0.00258784 0.0146909 -0.0109278 -6.26644e-06 2.87757e-06 -3.57155e-06 0.0005 1.46608e-07 
88 1 0.0207292 0.023421 0.011576 0.217556 -0.0543546 -0.9994 0.00773452 0.0872903 -0.0123479 0.0005 1.46608e-07 
89 1 0.0186785 0.0204446 0.0165668 -0.00115469 0.00128895 -0.00180075 8.00572e-07 -1.73389e-07 8.65477e-09 0.0005 1.46608e-07 
90 1 0.0245724 0.0147927 0.0120802 0.000295891 0.00147659 0.0124312 5.35736e-08 -3.16394e-08 3.73851e-08 0.0005 1.46608e-07 
91 1 0.0173875 0.0216454 0.0161702 -0.00177048 0.000728117 -0.00191759 -2.54117e-06 -2.33788e-06 -2.94588e-06 0.0005 1.46608e-07 
92 1 0.0196322 0.0201525 0.0166338 0.000245438 0.00642286 0.000770184 -2.85019e-06 7.27282e-07 -7.15342e-07 0.0005 1.46608e-07 
93 1 0.0188675 0.0172884 0.00755429 0.00156386 -0.00905406 0.0042957 -3.73138e-08 -1.77704e-08 -5.81249e-08 0.0005 1.46608e-07 
94 1 0.0174892 0.0147226 0.0129243 0.00576362 0.00262911 0.000777431 -1.53914e-06 2.09204e-06 -2.59237e-06 0.0005 1.46608e-07 
95 1 0.0230826 0.015889 0.0147632 0.00621306 0.00823644 0.0252115 1.65733e-06 4.67427e-06 3.67269e-07 0.0005 1.46608e-07 
96 1 0.022493 0.0150626 0.015188 0.00109998 -0.00325953 0.0037277 -2.91531e-07 9.98953e-07 -7.87414e-07 0.0005 1.46608e-07 
97 1 0.0165922 0.014211 0.0136522 0.000447331 0.000733635 -0.00117472 7.53895e-07 7.86128e-07 -5.71171e-07 0.0005 1.46608e-07 
98 1 0.0163906 0.0238321 0.0139908 0.0032723 -0.0299655 0.0060725 4.41558e-05 5.16879e-05 7.28259e-06 0.0005 1.46608e-07 
99 1 0.015795 0.0145086 0.0141774 0.000693745 -0.000199571 -0.000503342 -1.89034e-07 1.84127e-08 -1.06004e-06 0.0005 1.46608e-07 
100 1 0.0213791 0.0205141 0.0165894 0.000424079 0.004399 0.00280501 0 0 -1.43822e-06 0.0005 1.46608e-07 
101 1 0.0275084 0.022097 0.0145707 -1.54284 -10.9931 3.35948 0.224182 -1.22963 -0.87387 0.0005 1.46608e-07 
102 1 0.0173894 0.0234724 0.014388 -0.00287132 -0.00197718 -0.00238905 -7.16881e-06 -6.18769e-06 -8.20495e-07 0.0005 1.46608e-07 
103 1 0.0216619 0.0237432 0.0132027 -0.00205242 0.000959228 0.00136608 4.30982e-06 -1.20644e-05 6.0683e-06 0.0005 1.46608e-07 
104 1 0.0176646 0.0198701 0.0169362 0.00279907 0.000681649 -0.000304875 -9.53752e-08 -6.87954e-07 -1.62516e-06 0.0005 1.46608e-07 
105 1 0.0205577 0.0198938 0.0169097 -0.00299844 0.00404155 0.0012339 -1.64547e-05 5.79935e-06 -6.78814e-06 0.0005 1.46608e-07 
106 1 0.0234206 0.0150294 0.0129819 0.000367807 0.00988725 0.0253897 1.99695e-10 -8.3162e-08 -3.37235e-07 0.0005 1.46608e-07 
107 1 0.0192213 0.0216537 0.0171206 -0.00783852 -0.000708628 0.0013365 -5.36563e-08 1.05292e-06 -1.83182e-06 0.0005 1.46608e-07 
109 1 0.018807 0.0184911 0.0168408 0.0178493 0.00585798 0.00622415 0 0 -1.43822e-06 0.0005 1.46608e-07 
110 1 0.0235598 0.0218654 0.0149564 0.00560817 0.00638968 -0.00198481 0 0 -1.43822e-06 0.0005 1.46608e-07 
111 1 0.0235216 0.0167609 0.0153174 -0.00634037 0.0026846 1.60358e-06 2.55858e-06 2.10775e-06 1.10065e-06 0.0005 1.46608e-07 
112 1 0.0177463 0.0158818 0.0146137 -0.00373815 0.005588 0.00541072 5.08326e-08 -7.75937e-08 -1.25197e-06 0.0005 1.46608e-07 
113 1 0.0203317 0.0144639 0.0162355 -0.00555316 -0.000350447 -0.00158654 -1.24726e-06 -1.19366e-06 1.3301e-06 0.0005 1.46608e-07 
114 1 0.0217671 0.017396 0.0166427 -0.0020537 0.00221383 0.0125782 2.40926e-06 -6.08797e-07 1.48207e-06 0.0005 1.46608e-07 
115 1 0.0148938 0.0187903 0.0167644 0.00302857 0.00096626 0.000345199 1.57266e-07 3.16478e-07 -2.97866e-07 0.0005 1.46608e-07 
116 1 0.0201515 0.0232 0.0162076 0.00191777 -0.00101219 0.00172614 2.21992e-09 -9.57719e-07 8.46359e-08 0.0005 1.46608e-07 
117 1 0.0240168 0.0203146 0.0168038 0.0254969 -0.0463363 0.0211112 -1.77554e-05 1.76785e-05 -2.89671e-05 0.0005 1.46608e-07 
118 1 0.0178385 0.0240597 0.0127209 3.24081e-05 0.00319652 -0.00388337 7.01237e-06 4.81783e-05 8.51027e-05 0.0005 1.46608e-07 
119 1 0.0230762 0.0194226 0.015944 -0.00354511 0.0160181 -0.00153643 2.45185e-06 2.6556e-07 -2.15948e-06 0.0005 1.46608e-07 
120 1 0.0216824 0.0236986 0.0169414 0.00890659 -0.00886971 -0.0134416 -7.69505e-08 -8.87642e-08 -1.33147e-06 0.0005 1.46608e-07 
121 1 0.0237808 0.0210408 0.0154926 0.00692345 -0.00682534 0.00030245 -2.96627e-07 7.63903e-08 -1.45285e-06 0.0005 1.46608e-07 
122 1 0.017393 0.0178076 0.0157922 0.0164827 0.00553403 0.00467691 -6.22444e-06 1.48703e-07 -3.89856e-06 0.0005 1.46608e-07 
123 1 0.0201666 0.0225456 0.00899559 9.5213e-05 -0.0140553 -0.0212447 -2.40032e-09 -1.61843e-08 3.98512e-09 0.0005 1.46608e-07 
124 1 0.0218887 0.0220983 0.0162722 0.00356342 0.00561274 0.0196271 6.99166e-07 -9.23865e-07 -6.26971e-07 0.0005 1.46608e-07 
126 1 0.0250095 0.0215393 0.0159967 0.000664768 -0.00454557 0.00358325 -5.29642e-06 -5.73215e-05 2.09667e-05 0.0005 1.46608e-07 
127 1 0.0146069 0.0218526 0.0159783 0.00115497 0.000477488 -0.00109102 -5.68925e-08 2.81231e-07 -8.77779e-07 0.0005 1.46608e-07 
128 1 0.0254631 0.0165522 0.0267665 -0.0765342 0.0712566 -0.510458 0 0 -1.43822e-06 0.0005 1.46608e-07 
129 1 0.0158134 0.0150696 0.0152798 0.0397236 0.00828112 -0.0637119 0 0 -1.43822e-06 0.0005 1.46608e-07 
130 1 0.0263823 0.0180993 0.0659749 0.0688792 0.0268614 -0.242913 0 0 -1.43822e-06 0.0005 1.46608e-07 
131 1 0.0228333 0.016143 0.0156971 0.00310217 0.00592166 0.0243454 1.29122e-06 3.13135e-06 1.18781e-07 0.0005 1.46608e-07 
132 1 0.0239308 0.0176023 0.0166788 0.00190821 0.0236023 -0.0298362 0 0 -1.43822e-06 0.0005 1.46608e-07 
133 1 0.0175216 0.0139095 0.0138648 0.00189679 0.000831022 -0.0050142 2.9807e-07 -4.86537e-07 -2.19312e-06 0.0005 1.46608e-07 
134 1 0.0164929 0.0236386 0.0151908 0.00441968 0.00267257 -0.00303576 -4.60882e-06 -5.4212e-06 -2.7987e-06 0.0005 1.46608e-07 
135 1 0.0254068 0.0216013 0.0167716 0.000468779 7.68866e-05 0.000268606 3.04707e-06 -3.23135e-05 1.60318e-05 0.0005 1.46608e-07 
136 1 0.0226865 0.021461 0.0152317 -7.54115e-05 0.0307792 -0.0193322 1.70645e-09 2.35503e-07 -2.30627e-07 0.0005 1.46608e-07 
137 1 0.0196795 0.0170533 0.0163318 0.00280979 0.00814503 0.00461911 3.75016e-06 -3.60946e-06 -1.29404e-06 0.0005 1.46608e-07 
138 1 0.0248411 0.020095 0.00587334 1.5417e-08 -2.2714e-08 -1.099e-10 -2.00347e-12 2.9535e-12 -2.31785e-13 0.0005 1.46608e-07 
139 1 0.0234543 0.0149681 0.0149134 -0.00763309 -0.000582383 -0.0157442 0 0 -1.43822e-06 0.0005 1.46608e-07 
140 1 0.0246826 0.0157838 0.0161268 0.00230175 0.00421331 -8.18859e-05 0 0 -1.43822e-06 0.0005 1.46608e-07 
141 1 0.0129913 0.0210336 0.0163811 0.00133875 1.63914e-05 -0.00211966 -2.42471e-07 -3.09681e-07 -9.52686e-07 0.0005 1.46608e-07 
142 1 0.0226867 0.0173012 0.0155841 0.00156771 0.0198273 0.0091227 0 0 -1.43822e-06 0.0005 1.46608e-07 
143 1 0.0182716 0.0141043 0.0128515 0.00310392 4.55252e-05 -0.0121585 -1.69416e-06 -5.47784e-07 2.47826e-05 0.0005 1.46608e-07 
144 1 0.0140137 0.0224935 0.0154912 0.000331835 0.00139859 -0.000139821 -2.323e-06 -2.87197e-06 1.37564e-06 0.0005 1.46608e-07 
145 1 0.0247243 0.0221426 0.0164296 -0.000678213 -0.00154921 0.00112892 -1.17164e-05 -3.02732e-05 -6.24317e-06 0.0005 1.46608e-07 
146 1 0.0150068 0.014849 0.0146918 0.00242477 0.00673497 -0.00332825 0 0 -1.43822e-06 0.0005 1.46608e-07 
147 1 0.0259681 0.0217831 0.00826897 -2.44136 7.6901 -18.4999 0.0278822 0.187309 0.29252 0.0005 1.46608e-07 
148 1 0.0200546 0.01521 0.0168408 -0.0129203 0.00170194 -0.00714084 -5.66935e-07 7.21081e-08 5.00109e-07 0.0005 1.46608e-07 
149 1 0.0188147 0.0236325 0.0140602 -0.0015895 6.73428e-05 -0.000213861 -2.74651e-06 -4.66413e-08 2.28504e-06 0.0005 1.46608e-07 
150 1 0.0223484 0.0230751 0.0163021 -0.00162843 -0.000464203 -0.00270603 2.97251e-06 -2.4543e-06 3.44574e-06 0.0005 1.46608e-07 
151 1 0.0228662 0.0221215 0.0160618 0.00387536 0.0134257 0.021228 0 0 -1.43822e-06 0.0005 1.46608e-07 
152 1 0.0222176 0.0187647 0.0166872 -0.00405748 0.0105737 0.00753489 -8.43599e-06 -1.55117e-05 -2.34484e-07 0.0005 1.46608e-07 
153 1 0.0235975 0.0147697 0.0120485 0.000641017 0.00322998 0.0234046 6.40492e-07 -8.1295e-07 -2.99687e-06 0.0005 1.46608e-07 
154 1 0.0256848 0.0207539 0.00765238 -0.000288807 -0.0196353 -0.00980247 -4.27481e-09 -3.92516e-08 2.59924e-08 0.0005 1.46608e-07 
155 1 0.0183365 0.0237935 0.0158137 0.00141913 0.000438845 0.00062146 -1.85959e-06 1.10831e-06 8.49639e-07 0.0005 1.46608e-07 
156 1 0.0173063 0.0226996 0.0153529 0.000146595 0.00236171 0.00034669 3.44211e-06 -6.35072e-06 -5.77215e-07 0.0005 1.46608e-07 
157 1 0.0222024 0.0196622 0.0171273 -0.0211381 0.00366893 0.00889013 -2.26946e-06 -1.58607e-06 -7.99391e-07 0.0005 1.46608e-07 
158 1 0.0221632 0.016534 0.0163275 -0.0016876 0.00166947 0.019262 -2.35209e-07 -3.54011e-06 -1.80692e-07 0.0005 1.46608e-07 
159 1 0.0191185 0.0226545 0.0174113 0.00301295 -0.000511743 -0.00686633 0 0 -1.43822e-06 0.0005 1.46608e-07 
160 1 0.0213572 0.0219638 0.0171312 -0.00112599 0.00157797 -1.38019e-06 0 0 -1.43822e-06 0.0005 1.46608e-07 
161 1 0.0196431 0.0224285 0.0165905 0.000446231 0.00155908 0.00128347 -2.53756e-06 6.54218e-06 2.29328e-06 0.0005 1.46608e-07 
162 1 0.0149048 0.0228399 0.0157725 -0.000374536 0.000143123 0.000377558 -7.40983e-06 2.5124e-06 2.62127e-07 0.0005 1.46608e-07 
163 1 0.023223 0.0153659 0.0139232 0.00435336 0.00707852 0.0253522 1.9698e-07 8.07966e-08 -3.25576e-07 0.0005 1.46608e-07 
164 1 0.0277469 0.0212419 0.0152002 0.00197457 0.015454 -0.00845659 5.81725e-06 6.70872e-06 1.29782e-06 0.0005 1.46608e-07 
165 1 0.0246812 0.0185405 0.0167197 0.00538095 -0.00594789 0.0194048 0 0 -1.43822e-06 0.0005 1.46608e-07 
166 1 0.0186382 0.0162038 0.0149329 -0.00325009 0.00539006 0.0043702 -1.90962e-08 2.71828e-07 6.08934e-07 0.0005 1.46608e-07 
167 1 0.0197309 0.0210482 0.00769315 0.000362598 -0.0213229 -0.0100527 -1.60089e-08 2.50026e-07 -5.97589e-07 0.0005 1.46608e-07 
168 1 0.0213504 0.0200354 0.0175025 -0.0101667 0.021394 0.007795 1.88285e-06 -8.01866e-07 -6.75591e-07 0.0005 1.46608e-07 
169 1 0.0221419 0.0197737 0.0158839 0.00162812 0.0250289 -0.00449074 -2.53816e-06 -2.38994e-07 -5.45778e-07 0.0005 1.46608e-07 
170 1 0.0182055 0.0238557 0.0148201 -0.000713006 -0.00056489 -0.000394999 -3.30239e-06 -2.63601e-06 3.7729e-07 0.0005 1.46608e-07 
171 1 0.0207528 0.016716 0.0162097 -0.00140345 0.00773307 0.00180378 2.02991e-08 7.2929e-08 9.91121e-09 0.0005 1.46608e-07 
172 1 0.018504 0.0153397 0.0160255 -0.00564569 -0.00861916 -0.00851356 -9.39882e-07 -7.40853e-07 4.98432e-07 0.0005 1.46608e-07 
174 1 0.017701 0.0146127 0.0119531 0.00559066 -0.000542511 0.00135251 -4.12178e-07 -2.2954e-07 5.69254e-07 0.0005 1.46608e-07 
175 1 0.019056 0.0136627 0.0135395 0.00271394 0.000815128 -0.0039917 -2.30558e-06 1.96788e-05 2.73406e-05 0.0005 1.46608e-07 
176 1 0.0557224 0.0193212 0.00585087 2.89693e-15 8.31983e-15 1.95881e-13 3.20526e-19 -1.43202e-20 -4.44692e-21 0.0005 1.46608e-07 
177 1 0.019854 0.0245616 0.0171872 -0.00261994 0.000976172 0.00130161 -8.11412e-08 2.36508e-06 1.22084e-07 0.0005 1.46608e-07 
178 1 0.0200475 0.0162002 0.0167014 -0.00111278 0.00201047 -0.00699286 1.39434e-07 -4.81442e-07 1.11882e-08 0.0005 1.46608e-07 
179 1 0.017803 0.0209752 0.0155461 0.00425542 0.00566671 -0.00229718 1.06806e-06 -6.95643e-07 2.47633e-07 0.0005 1.46608e-07 
180 1 0.0209615 0.0210404 0.0173305 0.00127817 0.000793484 0.00294014 0 0 -1.43822e-06 0.0005 1.46608e-07 
181 1 0.0183783 0.0152292 0.0150318 -0.00345054 -0.00618367 -0.0119251 0 0 -1.43822e-06 0.0005 1.46608e-07 
182 1 0.024914 0.0207273 0.0169585 -0.00486503 0.0033951 -0.064993 -4.27326e-05 8.82788e-06 9.58434e-05 0.0005 1.46608e-07 
183 1 0.0151825 0.0211317 0.0163642 0.000915125 -0.000465784 -0.00154625 -7.48444e-07 9.39312e-07 -9.3073e-07 0.0005 1.46608e-07 
184 1 0.0173562 0.0236373 0.0156946 0.00173578 0.00119352 0.00184055 -2.22204e-06 -4.74468e-07 -1.59171e-06 0.0005 1.46608e-07 
185 1 0.0124706 0.0202099 0.0166055 0.000624037 0.000540904 -0.000775795 2.20118e-07 4.63097e-07 6.51142e-07 0.0005 1.46608e-07 
186 1 0.0207754 0.0242483 0.0174173 -0.00275378 0.00259667 0.00806978 0 0 -1.43822e-06 0.0005 1.46608e-07 
188 1 0.0210269 0.0233359 0.0125903 0.00276684 0.0115606 -0.0261353 -3.53437e-06 6.69127e-07 -1.00115e-05 0.0005 1.46608e-07 
189 1 0.0241498 0.0212548 0.016487 0.0368703 0.0091929 0.0831312 0 0 -1.43822e-06 0.0005 1.46608e-07 
190 1 0.0233255 0.0226632 0.0143949 0.00542668 0.00280338 -0.00312121 -5.57943e-07 -3.81936e-06 4.13258e-06 0.0005 1.46608e-07 
191 1 0.0201709 0.0225927 0.0154135 0.0011729 -0.00140037 0.00157319 -2.21488e-06 -2.75712e-06 3.99697e-06 0.0005 1.46608e-07 
192 1 0.0189478 0.0166133 0.0168525 0.0105577 -0.00345883 0.00328818 -1.29325e-07 9.63305e-08 -4.05252e-07 0.0005 1.46608e-07 
193 1 0.0223791 0.0204883 0.0165674 0.00303863 -0.00582758 0.00396317 0 0 -1.43822e-06 0.0005 1.46608e-07 
194 1 0.0165714 0.023168 0.0161088 -0.000713821 0.00177619 -0.00116582 -1.15227e-06 3.13379e-06 2.9263e-07 0.0005 1.46608e-07 
196 1 0.016932 0.0162416 0.0150708 0.00179908 0.0135254 0.00953698 4.51582e-07 -2.78935e-07 5.34924e-07 0.0005 1.46608e-07 
197 1 0.0150948 0.0224861 0.0172142 0.00070152 -0.000394024 -0.00129215 8.8308e-08 -2.67608e-07 -8.03254e-07 0.0005 1.46608e-07 
198 1 0.0190721 0.0183435 0.00724335 0.000138874 -0.0248223 0.00397813 -4.89359e-10 -6.8518e-09 1.5273e-08 0.0005 1.46608e-07 
200 1 0.0182013 0.0214869 0.0171539 -0.00253003 0.000286944 0.00017741 -1.96285e-06 1.07334e-06 4.40349e-06 0.0005 1.46608e-07 
201 1 0.0202759 0.0237344 0.0153457 0.00448914 -0.00268652 -0.00122566 2.09951e-09 -2.10953e-09 -1.43716e-06 0.0005 1.46608e-07 
202 1 0.0240406 0.0190717 0.0159423 0.00220197 0.0234255 -0.00165108 3.68919e-06 5.65113e-07 2.74219e-06 0.0005 1.46608e-07 
203 1 0.0172648 0.0153062 0.0138934 0.00387431 0.00428921 0.00790225 -1.49938e-07 -1.50436e-06 1.1421e-06 0.0005 1.46608e-07 
206 1 0.0213368 0.0182867 0.0167869 0.00318783 0.00694718 0.00311266 -4.6674e-06 7.28565e-07 3.30618e-06 0.0005 1.46608e-07 
207 1 0.0231528 0.0198154 0.0168608 -0.0102895 -0.0160371 0.0109436 8.11246e-05 2.31256e-05 1.04252e-05 0.0005 1.46608e-07 
208 1 0.0216027 0.0233914 0.0113587 0.174542 7.19881 -1.48903 -0.0180733 0.236378 0.0273589 0.0005 1.46608e-07 
209 1 0.0155065 0.0223108 0.0145163 0.00251597 -0.00129449 -0.00251146 5.13743e-05 -8.31855e-05 -2.61683e-05 0.0005 1.46608e-07 
210 1 0.0146413 0.0211357 0.0172051 0.000899641 -0.000157449 -0.00143908 1.90257e-07 -1.09754e-08 1.4758e-07 0.0005 1.46608e-07 
212 1 0.0179669 0.0164529 0.0162341 0.00438262 -0.00153804 0.000144862 8.17312e-07 -4.50306e-07 -5.78671e-07 0.0005 1.46608e-07 
213 1 0.0180733 0.023114 0.0164983 0.000469282 -0.000138293 0.000284003 2.94308e-07 1.94699e-07 -4.14084e-07 0.0005 1.46608e-07 
214 1 0.0205995 0.0176381 0.0165658 0.00427783 0.00661756 0.00138991 0 0 -1.43822e-06 0.0005 1.46608e-07 
215 1 0.0365933 0.0210052 0.0435188 -1.39834e-40 1.10744e-41 2.45735e-12 -8.06165e-43 6.38456e-44 0 0.0005 1.46608e-07 
216 1 0.0170147 0.0201756 0.0159806 0.00350971 0.00857104 -0.00132562 1.24807e-06 2.18642e-06 -1.31535e-06 0.0005 1.46608e-07 
217 1 0.0198895 0.0218587 0.00821911 0.000848651 -0.0145701 -0.011797 6.01614e-08 -1.42656e-06 -8.65416e-07 0.0005 1.46608e-07 
218 1 0.0185642 0.0172772 0.0155717 0.00868248 0.00520601 0.00286087 9.31225e-07 3.39002e-07 -5.41473e-07 0.0005 1.46608e-07 
219 1 0.0161167 0.0234432 0.0169609 -0.00115435 0.000268899 -0.000947895 -9.37936e-07 2.78161e-06 6.4587e-08 0.0005 1.46608e-07 
220 1 0.0169479 0.0239126 0.0166594 0.000693259 -0.000283752 -0.000263584 -4.88858e-07 7.4177e-07 2.3622e-06 0.0005 1.46608e-07 
221 1 0.0187914 0.0175462 0.0165075 0.0125403 0.0022243 0.00380388 2.14474e-07 1.82045e-06 1.97156e-06 0.0005 1.46608e-07 
222 1 0.018795 0.0241026 0.0128889 -0.00124646 -0.000902104 -0.000808085 4.22864e-06 6.08213e-06 -1.73227e-05 0.0005 1.46608e-07 
223 1 0.0161304 0.0227338 0.0151555 0.00366048 0.00285264 -0.00204867 -3.64849e-06 -1.13103e-05 -7.59592e-07 0.0005 1.46608e-07 
224 1 0.0217126 0.0152321 0.0170167 -0.00853057 -0.00245904 0.00879426 -1.75268e-06 -9.09467e-07 2.07306e-06 0.0005 1.46608e-07 
225 1 0.0194139 0.0147829 0.0159992 -0.00542081 -0.00937786 -0.013833 -1.6841e-07 -6.74443e-07 -3.03362e-07 0.0005 1.46608e-07 
227 1 0.0196931 0.0140564 0.0128768 0.00214941 0.00379524 -0.00607851 -1.82086e-07 7.65752e-07 -2.75479e-07 0.0005 1.46608e-07 
228 1 0.0208171 0.0238974 0.0164809 -0.000894443 0.00111914 0.00313247 -2.11047e-07 2.12527e-06 -2.77047e-06 0.0005 1.46608e-07 
229 1 0.0182475 0.0228907 0.0150761 -0.000335258 -9.84511e-05 -0.000917913 -3.34836e-06 -1.64536e-06 3.23943e-06 0.0005 1.46608e-07 
230 1 0.0205628 0.0232813 0.0106492 0.000528974 -0.446717 0.157938 0.00509371 0.0158224 -0.012366 0.0005 1.46608e-07 
231 1 0.0147199 0.0202845 0.0166327 0.00162449 0.000365977 -0.0019588 -5.02838e-07 -8.06811e-08 -4.10151e-07 0.0005 1.46608e-07 
232 1 0.0211499 0.0214256 0.0162301 0.00169348 0.00324106 0.00478814 0 0 -1.43822e-06 0.0005 1.46608e-07 
234 1 0.019291 0.023764 0.0155178 0.00152076 0.00107081 0.00110854 1.78389e-06 -1.62845e-06 1.19407e-06 0.0005 1.46608e-07 
235 1 0.024944 0.019104 0.017503 -0.00264797 -0.0811382 0.0783991 0 0 -1.43822e-06 0.0005 1.46608e-07 
236 1 0.0164844 0.0184841 0.0168645 -0.000506925 -0.0045296 -0.00593247 0 0 -1.43822e-06 0.0005 1.46608e-07 
237 1 0.0251654 0.0166553 0.0162154 0.000430238 0.00635625 -0.00320097 -3.52276e-07 1.65563e-07 -1.58429e-06 0.0005 1.46608e-07 
238 1 0.017132 0.0224438 0.0143902 0.00183371 -0.0107437 -0.00411202 9.38423e-06 -5.14108e-05 -1.25391e-05 0.0005 1.46608e-07 
239 1 0.0178122 0.0233962 0.0174213 -0.00150516 0.000177768 0.000240587 6.33613e-07 1.15161e-06 -3.95704e-07 0.0005 1.46608e-07 
240 1 0.0165948 0.0221908 0.015899 -0.00253016 0.00204163 -0.00206359 -3.34084e-07 2.68469e-06 -3.44063e-06 0.0005 1.46608e-07 
241 1 0.0217036 0.0143245 0.0138003 -0.000603772 -0.000628022 0.000616906 -3.30844e-07 1.68952e-07 1.88668e-07 0.0005 1.46608e-07 
242 1 0.0225308 0.0219987 0.0170324 -0.0126027 0.0156082 0.036887 0 0 -1.43822e-06 0.0005 1.46608e-07 
243 1 0.01651 0.024113 0.0175905 -0.000576481 -0.000313661 -0.000439621 -3.64387e-07 2.18902e-07 4.52609e-08 0.0005 1.46608e-07 
244 1 0.0174847 0.0243323 0.0175486 -0.000539057 -8.13255e-05 0.000394016 5.08833e-07 6.24106e-07 -2.53361e-07 0.0005 1.46608e-07 
245 1 0.0231421 0.0211958 0.0163238 -0.0140917 0.0044576 0.0240788 0 0 -1.43822e-06 0.0005 1.46608e-07 
246 1 0.0250984 0.0171651 0.00761802 3.34789e-05 -0.0191785 0.00800088 2.1395e-09 1.34441e-08 1.1665e-08 0.0005 1.46608e-07 
247 1 0.0182314 0.0189244 0.0159404 -9.88051e-05 0.0240706 0.000490561 0 0 -1.43822e-06 0.0005 1.46608e-07 
248 1 0.0248515 0.0197559 0.0167142 -0.0207259 -0.0658889 0.00245349 0 0 -1.43822e-06 0.0005 1.46608e-07 
249 1 0.0211663 0.0144273 0.016785 -0.00599258 -0.00146924 -0.000235173 -6.22196e-07 -1.03965e-06 -2.72114e-07 0.0005 1.46608e-07 
250 1 0.0210812 0.0222772 0.0157101 0.00580927 -0.00785049 0.011785 2.58895e-06 -1.94339e-06 2.04807e-06 0.0005 1.46608e-07 
251 1 0.0162513 0.0192821 0.0159413 0.00754308 -0.00470245 -0.00264539 -2.64633e-07 9.10444e-07 4.06261e-07 0.0005 1.46608e-07 
252 1 0.0155528 0.0220841 0.015649 0.00393844 0.00359426 -0.00290488 2.606e-06 3.65422e-06 2.74312e-07 0.0005 1.46608e-07 
253 1 0.0192512 0.0155677 0.0154013 -0.00404527 -0.00227012 -0.00490278 2.31497e-07 3.32043e-07 6.40526e-07 0.0005 1.46608e-07 
254 1 0.019287 0.0206956 0.0173992 -0.00696611 -0.00197893 0.00356789 4.69893e-07 4.20377e-07 -7.64069e-07 0.0005 1.46608e-07 
255 1 0.0198752 0.0241593 0.0162721 0.000573284 0.00106171 0.00165034 -1.72568e-06 -3.84631e-06 3.90175e-07 0.0005 1.46608e-07 
256 1 0.0202133 0.021616 0.017 -0.00435707 -0.00369609 0.00540975 -6.59238e-07 -1.23928e-07 -1.19621e-06 0.0005 1.46608e-07 
257 1 0.0209817 0.0137211 0.0141513 0.00110909 -0.0015767 0.00297506 8.4288e-08 2.01644e-07 -3.04059e-06 0.0005 1.46608e-07 
258 1 0.0192449 0.0228434 0.0151315 0.00132776 0.00184021 -0.00037659 -2.20106e-06 -1.85117e-06 2.26584e-06 0.0005 1.46608e-07 
259 1 0.017237 0.0225699 0.0165651 -0.000491224 0.000132941 -0.0010545 1.29153e-06 -6.05467e-07 -4.04243e-07 0.0005 1.46608e-07 