ITEM: TIMESTEP
8000000
ITEM: NUMBER OF ATOMS
198
ITEM: BOX BOUNDS ff ff ff
-0.02 0.43
-0.02 0.06
-0.02 0.07
ITEM: ATOMS id type x y z vx vy vz fx fy fz radius mass 
2 1 0.0150096 0.021082 0.015452 0.00515353 0.00489528 -0.00205564 -5.27732e-07 -1.39926e-06 4.20488e-07 0.0005 1.46608e-07 
3 1 0.0321776 0.023204 0.0127692 0.00114325 0.0068674 -0.0190811 1.21493e-07 -2.37441e-07 5.01008e-07 0.0005 1.46608e-07 
4 1 0.0165257 0.0238045 0.0138066 0.000533126 0.00105306 0.0002671 -2.30545e-06 -4.77266e-07 1.20026e-06 0.0005 1.46608e-07 
5 1 0.0310982 0.0187605 0.00722376 0.000359797 -0.0205128 0.000707594 -2.90238e-08 -4.37649e-07 -1.26997e-07 0.0005 1.46608e-07 
6 1 0.0319364 0.0181988 0.00724505 0.000394865 -0.0233612 0.00485519 -2.65018e-08 -3.00152e-08 2.59664e-08 0.0005 1.46608e-07 
7 1 0.0245046 0.0176971 0.0165785 0.0734897 0.00392918 -0.0034478 0 0 -1.43822e-06 0.0005 1.46608e-07 
8 1 0.023827 0.0159455 0.0156374 0.00115034 -0.00689739 0.00522169 5.87079e-07 1.80306e-07 -4.61964e-07 0.0005 1.46608e-07 
10 1 0.0180629 0.0151826 0.0145922 0.0106979 0.00478102 0.0123346 -2.59254e-06 1.96629e-08 1.58667e-06 0.0005 1.46608e-07 
11 1 0.0269294 0.0210753 0.0153317 -0.265545 0.410861 -0.0975436 -0.0159045 0.0264043 0.00733916 0.0005 1.46608e-07 
13 1 0.0180056 0.0236613 0.0155957 0.00848161 -0.000154221 -0.00446551 -6.05144e-08 4.8704e-08 -3.80726e-07 0.0005 1.46608e-07 
15 1 0.0169552 0.0141508 0.0137082 0.00489254 0.00584136 0.0117499 -8.49289e-07 -3.07507e-06 1.47819e-06 0.0005 1.46608e-07 
16 1 0.0252931 0.0209419 0.0199721 -0.0386693 -0.0716536 0.0190929 0 0 -1.43822e-06 0.0005 1.46608e-07 
17 1 0.0231883 0.0193594 0.0159497 0.00267655 0.00622158 -0.0136798 6.43484e-07 -1.06029e-05 9.24109e-06 0.0005 1.46608e-07 
18 1 0.0295385 0.0157177 0.00874959 0.00119313 -0.0106827 0.0132177 -2.06268e-09 -1.50239e-09 5.85371e-08 0.0005 1.46608e-07 
19 1 0.0253045 0.0212169 0.0162307 0.000209399 -0.00237243 -0.00351358 -8.09606e-06 9.51622e-05 -3.58412e-05 0.0005 1.46608e-07 
21 1 0.0296632 0.0149194 0.0123511 6.71832e-05 0.00552683 0.0243594 2.3649e-08 1.29899e-08 -1.8683e-10 0.0005 1.46608e-07 
22 1 0.0236473 0.0225487 0.0159022 -0.000649142 -0.00152257 -0.000122265 1.57361e-07 -1.83515e-06 -6.22728e-07 0.0005 1.46608e-07 
23 1 0.0223731 0.0229313 0.0136604 0.00456298 0.00235728 -0.00290378 -3.30811e-06 5.83155e-06 -9.68616e-06 0.0005 1.46608e-07 
24 1 0.0185087 0.0143883 0.0151698 -0.00209451 1.48666e-05 -0.00309807 2.00615e-08 -1.6801e-06 5.78486e-07 0.0005 1.46608e-07 
25 1 0.0191587 0.0228807 0.0151177 0.00191974 0.0283469 0.00168642 0 0 -1.43822e-06 0.0005 1.46608e-07 
26 1 0.0218996 0.0169398 0.0156494 0.0325248 0.0318984 0.0133459 -5.48003e-05 -7.52911e-06 1.90378e-05 0.0005 1.46608e-07 
27 1 0.0297346 0.0147639 0.0113215 4.0083e-05 -0.00320979 -0.00180374 1.85774e-07 2.60544e-06 4.33004e-05 0.0005 1.46608e-07 
28 1 0.0342983 0.015526 0.01392 5.56358e-05 0.0138162 0.022416 -8.27921e-10 1.60799e-08 -4.64512e-09 0.0005 1.46608e-07 
29 1 0.0126619 0.00210988 0.0435188 -1.63284e-67 7.65929e-69 -8.51801e-13 4.09328e-69 -1.92007e-70 0 0.0005 1.46608e-07 
34 1 0.0187266 0.0204596 0.00745591 0.000139652 -0.0242374 -0.00891183 -1.01295e-10 -1.10254e-08 1.12726e-08 0.0005 1.46608e-07 
35 1 0.015365 0.0229174 0.0136919 0.00398748 0.00208259 -0.0025125 1.87792e-06 5.77452e-07 -8.9414e-07 0.0005 1.46608e-07 
36 1 0.0454257 0.0173169 0.00620813 -7.65721e-16 -1.16337e-14 -7.97062e-14 -1.78247e-19 -2.46566e-19 4.06576e-20 0.0005 1.46608e-07 
39 1 0.0325179 0.0224362 0.0141784 0.000783903 0.0134768 -0.0182323 -8.46114e-09 4.9962e-10 -2.59131e-08 0.0005 1.46608e-07 
45 1 0.0195092 0.014354 0.0148069 -0.00200938 -0.00954215 -0.000232671 8.37687e-07 9.93609e-07 1.03857e-06 0.0005 1.46608e-07 
47 1 0.0487553 0.0195855 0.00596623 -5.40102e-16 1.3736e-15 1.40146e-14 -3.29588e-19 -1.6803e-19 1.48231e-21 0.0005 1.46608e-07 
49 1 0.0185541 0.0234594 0.0143521 0.00113143 -0.00197155 -0.000453827 -1.15457e-06 5.63419e-07 -4.38271e-06 0.0005 1.46608e-07 
50 1 0.0293764 0.0152353 0.00956372 0.00059366 -0.0095099 0.0208817 -3.68656e-09 -7.04966e-10 2.4784e-08 0.0005 1.46608e-07 
54 1 0.0319263 0.0233586 0.0116964 0.000615788 0.00133246 -0.0243977 7.15981e-06 4.89724e-06 -1.24729e-06 0.0005 1.46608e-07 
55 1 0.0183992 0.0203144 0.0166038 -2.00202e-07 0.0283125 -0.0066895 -2.51672e-10 -2.12058e-09 -2.28836e-08 0.0005 1.46608e-07 
56 1 0.0337801 0.0173628 0.0154067 0.000271569 0.0227531 0.0092813 -1.08154e-09 1.22785e-08 -1.10096e-08 0.0005 1.46608e-07 
57 1 0.0165665 0.0149691 0.0132856 0.00107498 0.00835878 0.0204214 4.71347e-08 -4.41875e-08 3.77602e-07 0.0005 1.46608e-07 
58 1 0.0283093 0.0154883 0.0139024 0.000184494 0.0125088 0.0235599 2.34145e-08 1.07491e-07 1.55108e-07 0.0005 1.46608e-07 
59 1 0.015244 0.0231057 0.0151218 0.000749972 0.000330359 -0.000221002 1.56331e-06 -2.37669e-07 -3.75539e-07 0.0005 1.46608e-07 
60 1 0.0232381 0.0153852 0.0140249 0.00361595 0.00159569 0.00430423 3.65896e-07 4.1012e-07 -4.98437e-07 0.0005 1.46608e-07 
61 1 0.024152 0.0206675 0.0173307 -0.0308209 -0.168638 -0.00704813 0 0 -1.43822e-06 0.0005 1.46608e-07 
62 1 0.0333191 0.0192168 0.0158042 0.00448542 0.00814099 -0.000775479 -2.71311e-06 1.11229e-06 1.52236e-06 0.0005 1.46608e-07 
63 1 0.022387 0.0187607 0.0159389 -0.000308713 0.0232065 0.000496903 0 0 -1.43822e-06 0.0005 1.46608e-07 
64 1 0.0234697 0.0184017 0.0158948 0.00383762 0.00878156 0.00393242 3.36627e-06 -1.14176e-05 -7.05665e-06 0.0005 1.46608e-07 
65 1 0.0241654 0.0177132 0.00740886 6.08048e-05 -0.0249412 0.0064112 -2.28132e-10 5.49851e-10 1.35101e-08 0.0005 1.46608e-07 
66 1 0.0225416 0.0150287 0.013394 0.00489314 0.00111906 0.00386109 -7.03542e-09 -3.19076e-08 -1.23458e-07 0.0005 1.46608e-07 
67 1 0.0317074 0.023287 0.0105484 0.00134519 -0.00278089 -0.020322 3.88646e-07 -3.73688e-07 1.5497e-07 0.0005 1.46608e-07 
69 1 0.0161388 0.0161223 0.0148439 0.00154654 0.015584 0.0147971 1.70964e-07 1.2792e-07 -1.23625e-06 0.0005 1.46608e-07 
70 1 0.0214882 0.0227668 0.0140215 0.00340732 0.00424452 -0.00498114 -4.85591e-06 9.78573e-06 -1.046e-05 0.0005 1.46608e-07 
71 1 0.0290787 0.0148472 0.010594 0.000204919 -0.00656752 0.0222076 -3.10606e-06 -2.36098e-06 1.51024e-05 0.0005 1.46608e-07 
73 1 0.0169437 0.0165886 0.0152176 0.00932496 0.00671851 0.00489387 1.01233e-08 -1.98967e-07 1.29975e-06 0.0005 1.46608e-07 
75 1 0.0138057 0.0221796 0.0157572 -5.11443e-05 0.000370928 0.000226702 -6.34429e-07 -4.13735e-07 2.452e-07 0.0005 1.46608e-07 
78 1 0.0199361 0.0235493 0.0142408 0.00192905 0.00238165 -0.00394002 -1.34242e-05 -8.89771e-06 1.27879e-05 0.0005 1.46608e-07 
79 1 0.0237018 0.0150606 0.0151775 -0.00281544 -0.0013713 -0.00233834 -3.34324e-08 5.24159e-07 -1.71384e-07 0.0005 1.46608e-07 
81 1 0.0205141 0.0137084 0.0139609 0.00135884 -0.0011556 0.00341345 -2.6032e-07 7.59653e-07 -1.47157e-06 0.0005 1.46608e-07 
82 1 0.0226759 0.0200591 0.00582597 1.45103e-10 2.53647e-10 1.71752e-10 3.82475e-13 7.88847e-14 2.169e-13 0.0005 1.46608e-07 
85 1 0.0208473 0.0151761 0.0150548 0.00376787 -0.00273632 0.000477235 -2.28155e-08 -5.0574e-08 -1.27179e-06 0.0005 1.46608e-07 
86 1 0.018469 0.014374 0.0123495 0.015073 0.0142434 -0.023547 2.93421e-07 -6.21098e-08 -1.17019e-07 0.0005 1.46608e-07 
87 1 0.0172277 0.0240321 0.0131333 5.2314e-06 0.000183487 -7.11415e-06 1.46571e-06 -4.93485e-08 6.92018e-07 0.0005 1.46608e-07 
88 1 0.0142733 0.0229153 0.0152675 0.000304127 0.000710601 0.000328473 -1.45912e-07 1.18185e-06 1.08536e-06 0.0005 1.46608e-07 
89 1 0.0261458 0.0232603 0.0126093 0.00141665 0.00513304 -0.0218861 -2.10291e-08 1.20179e-09 -5.45295e-08 0.0005 1.46608e-07 
90 1 0.0217773 0.0216665 0.0151038 -0.000207875 0.0126553 -0.0142644 -1.07351e-07 -8.14272e-08 -1.28996e-06 0.0005 1.46608e-07 
91 1 0.0226627 0.0220265 0.0148097 0.00227407 0.0124237 -0.00915081 -2.63168e-06 -9.438e-06 7.50123e-06 0.0005 1.46608e-07 
92 1 0.0157465 0.0235402 0.0143745 0.000929394 0.000727456 -0.000242671 9.99659e-08 -3.01399e-07 -4.83338e-07 0.0005 1.46608e-07 
93 1 0.0259125 0.0233352 0.0106829 9.78731e-05 -0.00546845 -0.0233709 -4.01597e-06 -7.8963e-07 -7.25753e-06 0.0005 1.46608e-07 
94 1 0.0189755 0.0238232 0.0158272 0.00558828 -0.0151405 0.0125926 0 0 -1.43822e-06 0.0005 1.46608e-07 
95 1 0.0165228 0.0221208 0.0147357 0.00629986 0.00159161 -0.00375324 -6.1425e-07 -4.86967e-08 4.29847e-07 0.0005 1.46608e-07 
98 1 0.0212644 0.014196 0.0135135 -0.00373244 -0.000659588 -0.00333656 -5.60959e-08 -3.38859e-08 -5.63112e-08 0.0005 1.46608e-07 
101 1 0.0328693 0.0211976 0.015132 0.000147399 0.0223884 -0.0121587 -3.24988e-09 -4.71348e-09 -1.48664e-08 0.0005 1.46608e-07 
103 1 0.0145576 0.0216444 0.0161445 -0.000248571 0.000433143 -0.00145778 0 0 -1.43822e-06 0.0005 1.46608e-07 
107 1 0.0161733 0.0228688 0.015406 0.00029017 -6.69767e-05 -0.000382058 -9.06022e-07 2.6016e-07 3.21845e-07 0.0005 1.46608e-07 
111 1 0.0187527 0.0154025 0.0152816 0.0156641 0.00450379 0.00785066 1.28649e-07 -2.42283e-06 6.77806e-07 0.0005 1.46608e-07 
113 1 0.0233669 0.0151735 0.00960813 0.00222669 -0.00611414 0.0107638 1.14966e-09 9.45891e-09 -3.56055e-08 0.0005 1.46608e-07 
115 1 0.0164356 0.0220436 0.0159061 0.00361589 0.00055103 -0.00121279 1.92596e-07 -1.13558e-06 -2.39716e-07 0.0005 1.46608e-07 
120 1 0.0210251 0.0210734 0.015485 0.00270611 0.0184631 -0.0142349 0 0 -1.43822e-06 0.0005 1.46608e-07 
121 1 0.0220535 0.0192771 0.00585768 -2.88592e-11 3.88745e-10 -2.92176e-10 -3.658e-13 6.65398e-13 -4.67828e-13 0.0005 1.46608e-07 
122 1 0.0223815 0.0144585 0.0142658 0.00180928 0.00806789 -0.0122799 0 0 -1.43822e-06 0.0005 1.46608e-07 
127 1 0.0200907 0.0238013 0.012275 0.00271789 0.000538995 -0.00150144 3.88869e-07 -4.15773e-06 -1.60933e-06 0.0005 1.46608e-07 
130 1 0.0160744 0.0206903 0.0156431 0.00335753 0.00324443 -0.00322091 7.24745e-07 -1.6389e-06 2.06064e-07 0.0005 1.46608e-07 
133 1 0.0157326 0.0223117 0.0165648 0.00267263 8.53358e-06 -0.0018934 -3.01166e-07 -1.36283e-07 -8.9757e-07 0.0005 1.46608e-07 
137 1 0.0204419 0.015833 0.0156913 0.0122393 0.00803297 0.000718543 4.6992e-06 9.2344e-08 3.23066e-07 0.0005 1.46608e-07 
138 1 0.0244564 0.0202139 0.00585092 -1.21396e-14 -1.95859e-15 1.97906e-13 1.41613e-21 -6.37756e-21 0 0.0005 1.46608e-07 
139 1 0.0152451 0.0147326 0.0145393 -0.00126377 -6.42939e-05 0.00232977 -3.22356e-07 -9.51221e-08 -1.17565e-06 0.0005 1.46608e-07 
140 1 0.0145746 0.0225823 0.014202 0.0045687 0.00235903 -0.0029 1.08929e-06 -4.92559e-07 -5.56694e-07 0.0005 1.46608e-07 
141 1 0.01931 0.0238724 0.0148595 0.0004141 -0.000837445 -0.000790863 -9.65719e-06 3.10931e-06 -3.75083e-07 0.0005 1.46608e-07 
142 1 0.0158517 0.0215779 0.0152403 0.00586844 0.00460635 -0.00250406 1.20339e-06 -6.81049e-07 -4.4691e-07 0.0005 1.46608e-07 
143 1 0.0279777 0.0166525 0.0150262 0.000202924 0.0205959 0.0138215 -1.14561e-09 1.31635e-08 -7.88663e-09 0.0005 1.46608e-07 
144 1 0.0234234 0.0232323 0.0152078 -0.000448763 7.76792e-05 -9.06679e-05 -7.93873e-07 3.71283e-06 4.06496e-07 0.0005 1.46608e-07 
147 1 0.0313112 0.0225878 0.00899379 0.00151296 -0.0129273 -0.0167393 -2.64767e-08 -4.49536e-08 -4.05558e-08 0.0005 1.46608e-07 
149 1 0.0202291 0.024197 0.0131939 -0.0129762 0.0106163 -0.0155233 0 0 -1.43822e-06 0.0005 1.46608e-07 
150 1 0.0230078 0.0218224 0.01617 -0.00292945 0.0150229 -0.0124638 0 0 -1.43822e-06 0.0005 1.46608e-07 
151 1 0.0212529 0.0225169 0.0150407 -0.0149629 -0.0129822 -0.0381957 0 0 -1.43822e-06 0.0005 1.46608e-07 
152 1 0.0151716 0.0223206 0.0157369 0.00269906 0.00195007 -0.000462167 2.14721e-06 2.24706e-06 2.76203e-07 0.0005 1.46608e-07 
153 1 0.0214401 0.0191122 0.0159514 0.00556427 0.00118294 0.00167555 -1.64991e-07 7.90849e-07 -8.90647e-08 0.0005 1.46608e-07 
154 1 0.0320725 0.0230221 0.00973903 -0.000135732 -0.00992067 -0.0214173 6.07765e-07 -3.72655e-07 -2.85298e-07 0.0005 1.46608e-07 
155 1 0.0206565 0.0217449 0.0162618 -0.0197453 -0.0396886 0.0867285 0 0 -1.43822e-06 0.0005 1.46608e-07 
156 1 0.018866 0.0241216 0.0129368 0.00123107 0.000404226 -0.000586728 5.67961e-06 1.27486e-05 5.52354e-06 0.0005 1.46608e-07 
157 1 0.0277401 0.0175743 0.0154952 -0.000142394 0.0239966 0.0109847 -6.4767e-10 6.19414e-09 -1.3865e-08 0.0005 1.46608e-07 
160 1 0.0226283 0.0228036 0.0156392 0.00546264 -0.00811773 -0.0027136 0 0 -1.43822e-06 0.0005 1.46608e-07 
161 1 0.0177785 0.0139549 0.0142402 0.00856348 0.00212941 0.00527184 -4.73918e-08 1.34196e-06 2.72566e-06 0.0005 1.46608e-07 
164 1 0.0340614 0.0162299 0.0147518 -0.640875 0.398262 -2.75173 0.0511887 -0.159988 0.251451 0.0005 1.46608e-07 
166 1 0.0163757 0.0154529 0.0141398 0.00475488 0.0114646 0.0189658 -1.71324e-08 -3.859e-08 -1.55354e-06 0.0005 1.46608e-07 
169 1 0.023453 0.0175089 0.0167033 0.0289404 -0.0523879 0.0163966 0 0 -1.43822e-06 0.0005 1.46608e-07 
172 1 0.0193069 0.0160473 0.0158079 0.0153554 0.00833683 0.00472777 1.04183e-06 4.17037e-07 -1.2272e-06 0.0005 1.46608e-07 
175 1 0.0219839 0.0208095 0.0155912 0.00248023 0.0220439 -0.00395019 -5.24453e-06 5.63745e-06 -4.62014e-06 0.0005 1.46608e-07 
176 1 0.0557224 0.0193212 0.00585087 3.2184e-15 8.2502e-15 1.95878e-13 2.38178e-19 1.95215e-20 -4.44692e-21 0.0005 1.46608e-07 
177 1 0.0227849 0.0164738 0.0157329 -0.00290905 0.0185303 -0.0101128 0 0 -1.43822e-06 0.0005 1.46608e-07 
178 1 0.0191847 0.0220125 0.00838067 -0.338444 0.147801 -3.73509 -0.0764335 0.0997183 -0.0930349 0.0005 1.46608e-07 
179 1 0.015594 0.0184231 0.0159015 0.000639741 0.0240665 0.00353581 6.39866e-09 7.00944e-09 -2.16146e-08 0.0005 1.46608e-07 
180 1 0.0197173 0.0145157 0.01578 0.000628201 0.00111709 -0.00154843 -1.1698e-08 2.77316e-08 -1.40119e-06 0.0005 1.46608e-07 
183 1 0.017165 0.0225944 0.0153461 0.000255976 0.0129268 -0.0147527 0 0 -1.43822e-06 0.0005 1.46608e-07 
185 1 0.0229724 0.0157387 0.0150814 0.00510014 0.00707149 0.00460452 8.00956e-07 -1.34999e-06 1.92129e-06 0.0005 1.46608e-07 
188 1 0.0226746 0.01757 0.0156893 0.00413935 0.0106563 0.0219709 4.47371e-05 8.77765e-07 -2.33774e-05 0.0005 1.46608e-07 
189 1 0.0166759 0.0233677 0.0147001 0.000694516 0.000686129 0.000278032 -2.49669e-07 -2.88788e-06 -1.95281e-07 0.0005 1.46608e-07 
190 1 0.0181202 0.023889 0.0135602 0.000345556 0.000247982 -0.000210066 8.0728e-06 2.09447e-06 5.19465e-06 0.0005 1.46608e-07 
192 1 0.0176659 0.0232397 0.014755 0.000374184 -9.01158e-05 -0.000988439 -4.63244e-07 2.7183e-07 -9.30149e-07 0.0005 1.46608e-07 
193 1 0.0196203 0.0143118 0.0138141 0.00139331 -0.000277856 -6.66896e-05 -6.62387e-07 -1.04729e-06 -2.02272e-08 0.0005 1.46608e-07 
198 1 0.0274352 0.0188686 0.0158264 0.00246614 0.0181662 -0.0599756 0.000761495 0.00117169 0.00237257 0.0005 1.46608e-07 
200 1 0.0204882 0.0232591 0.0153561 -0.0318217 -0.0366971 0.0287466 0 0 -1.43822e-06 0.0005 1.46608e-07 
201 1 0.00830357 0.0326771 0.0435188 3.65558e-103 -5.7436e-103 1.3543e-12 -1.68292e-106 2.64418e-106 0 0.0005 1.46608e-07 
207 1 0.020215 0.0232299 0.0129173 0.0058773 0.0013359 -0.00393048 -5.52466e-08 -7.43079e-07 2.42706e-06 0.0005 1.46608e-07 
208 1 0.020548 0.0225903 0.0141849 0.00390196 0.00210747 -0.00464734 2.73157e-07 4.93285e-07 3.80381e-06 0.0005 1.46608e-07 
209 1 0.0266892 0.0218391 0.0146218 0.000874383 0.0171852 -0.0164513 -1.07292e-08 6.36072e-09 -2.65884e-08 0.0005 1.46608e-07 
210 1 0.0200932 0.0220961 0.00841343 -1.17727 8.76048 -9.74253 -0.0491546 0.0901955 0.238073 0.0005 1.46608e-07 
212 1 0.0211749 0.0229112 0.0160464 0.00943489 0.0382438 -0.0187611 0 0 -1.43822e-06 0.0005 1.46608e-07 
215 1 0.0365933 0.0210052 0.0435188 -7.85148e-317 1.0058e-316 2.45735e-12 -2.46934e-320 -6.6106e-321 0 0.0005 1.46608e-07 
216 1 0.0181759 0.0226107 0.015342 -0.0076629 -0.0040601 0.00225461 0 0 -1.43822e-06 0.0005 1.46608e-07 
219 1 0.019926 0.0222978 0.0157317 0.0121105 -0.0745985 0.0558226 0 0 -1.43822e-06 0.0005 1.46608e-07 
220 1 0.0168388 0.0146406 0.0146571 0.00306782 -0.0244514 -0.00536079 0 0 -1.43822e-06 0.0005 1.46608e-07 
221 1 0.0182967 0.0150702 0.0134747 0.00162065 -0.00201822 -0.00235973 2.89107e-07 -7.16192e-07 7.01295e-07 0.0005 1.46608e-07 
222 1 0.0259606 0.020517 0.00594618 4.73461e-15 7.82102e-16 -7.72381e-14 1.00585e-21 -3.35306e-20 -2.11758e-22 0.0005 1.46608e-07 
224 1 0.0173287 0.0151041 0.0139183 0.00617242 0.00541986 0.0161819 -6.03031e-07 2.6878e-06 -9.50053e-08 0.0005 1.46608e-07 
227 1 0.0202231 0.0140414 0.0130636 0.00235853 -0.00019358 0.00138016 -2.75223e-06 -3.85136e-07 2.12541e-06 0.0005 1.46608e-07 
228 1 0.0236227 0.0168931 0.0153829 0.0162672 0.0022096 0.00185024 0 0 -1.43822e-06 0.0005 1.46608e-07 
229 1 0.0235511 0.0157664 0.00870172 0.00195695 -0.014277 0.0185674 -6.29457e-08 3.20125e-08 -3.6038e-08 0.0005 1.46608e-07 
231 1 0.0224144 0.0237551 0.0179735 -0.0530979 -0.0358188 0.0109577 0 0 -1.43822e-06 0.0005 1.46608e-07 
236 1 0.0187317 0.0145463 0.014208 0.000819841 0.00156975 -0.00071613 -2.46318e-09 5.41518e-07 -3.09554e-06 0.0005 1.46608e-07 
238 1 0.0173657 0.0242561 0.0141034 -2.08847e-05 0.00011652 -0.000135241 -1.24823e-06 1.39868e-06 -5.07817e-06 0.0005 1.46608e-07 
239 1 0.0161293 0.0232022 0.0131159 0.00387554 0.00241888 -0.0021144 1.71546e-06 2.29973e-07 5.74603e-07 0.0005 1.46608e-07 
240 1 0.016339 0.0227553 0.0139852 0.00619691 0.0017562 -0.00279714 1.0868e-06 1.40526e-06 1.98381e-07 0.0005 1.46608e-07 
242 1 0.0161118 0.0192808 0.0159548 -0.00021496 0.0249379 0.0358646 0 0 -1.43822e-06 0.0005 1.46608e-07 
244 1 0.0230905 0.020338 0.0157711 0.00272143 0.00888147 -0.0177443 -6.20055e-06 3.75289e-06 1.92694e-05 0.0005 1.46608e-07 
246 1 0.030891 0.0211774 0.00771994 0.00237663 -0.0036246 -0.00312584 9.09197e-07 7.9285e-06 2.81564e-06 0.0005 1.46608e-07 
247 1 0.0207841 0.0234655 0.0117408 0.000380232 0.000173789 -0.00063875 -6.54319e-07 -4.18662e-07 -2.59281e-06 0.0005 1.46608e-07 
248 1 0.0221498 0.0228828 0.0147617 -0.000827444 0.00711229 -0.00224514 -7.61968e-06 1.49806e-05 -3.96682e-06 0.0005 1.46608e-07 
252 1 0.0212364 0.0201287 0.0158121 0.00379126 0.0148783 -0.00472903 -4.8248e-07 2.02573e-07 5.14519e-06 0.0005 1.46608e-07 
253 1 0.0176312 0.0218925 0.0159211 -0.0376913 0.0110444 -0.00510962 0 0 -1.43822e-06 0.0005 1.46608e-07 
257 1 0.0175977 0.0146271 0.0119292 -0.000116576 0.000245648 -0.000242281 -2.66581e-07 1.19889e-07 5.87964e-08 0.0005 1.46608e-07 
258 1 0.0169976 0.0235382 0.0156314 0.00548459 0.00150719 -0.00253994 -3.86612e-07 -2.45172e-07 7.73322e-07 0.0005 1.46608e-07 
261 1 0.0220717 0.0148323 0.0151432 0.00726855 -0.00960831 -0.00507016 0 0 -1.43822e-06 0.0005 1.46608e-07 
262 1 0.0185337 0.0137659 0.0136129 0.00252536 -0.000760858 -0.000323688 -1.5871e-06 -2.5665e-07 -1.89847e-06 0.0005 1.46608e-07 
264 1 0.0286896 0.0188118 0.00592076 1.00442e-14 -4.8813e-17 1.17824e-13 -1.11173e-21 -1.04086e-19 0 0.0005 1.46608e-07 
266 1 0.0207244 0.0234165 0.0137219 0.00345028 0.000299553 -0.00101676 -8.23934e-06 3.53501e-06 4.4629e-06 0.0005 1.46608e-07 
267 1 0.018034 0.0144502 0.0163592 0.0547131 -0.0526473 -0.0690587 0 0 -1.43822e-06 0.0005 1.46608e-07 
268 1 0.0253613 0.0181812 0.0168426 0.0233227 -0.00484912 0.00653106 0 0 -1.43822e-06 0.0005 1.46608e-07 
271 1 0.0238566 0.0158892 0.0146395 0.00601088 0.00150094 0.00430647 2.31906e-06 8.16311e-07 1.08673e-06 0.0005 1.46608e-07 
272 1 0.0204135 0.0146314 0.0143323 0.000952993 -0.000649794 0.000981002 6.64219e-07 2.84183e-07 -3.51635e-07 0.0005 1.46608e-07 
273 1 0.0144597 0.0151277 0.0150158 -0.00252049 0.00227535 -0.000258915 1.61414e-07 6.92599e-08 -1.37341e-06 0.0005 1.46608e-07 
276 1 0.017511 0.0148315 0.0129041 -0.000645942 0.000541159 -0.000115206 1.95558e-07 -4.99175e-07 2.85844e-07 0.0005 1.46608e-07 
277 1 0.0222068 0.0198791 0.0158811 0.00107114 0.0145973 -0.0019063 4.48533e-06 -2.76845e-06 4.99645e-06 0.0005 1.46608e-07 
279 1 0.0278345 0.0197923 0.0157181 0.339555 6.73551 12.7107 -0.0205227 0.0397696 0.448095 0.0005 1.46608e-07 
280 1 0.0300969 0.0175999 0.00745884 0.000190333 -0.0244992 0.00815812 -1.22349e-09 -1.00137e-09 1.71505e-08 0.0005 1.46608e-07 
281 1 0.0192307 0.0140173 0.0129416 0.00258888 -9.20857e-05 5.75514e-05 1.74982e-07 1.00024e-06 -5.06752e-07 0.0005 1.46608e-07 
285 1 0.0225443 0.0209665 0.0164043 0.00821777 0.00419239 -0.00642811 4.70895e-07 1.39832e-06 3.87677e-07 0.0005 1.46608e-07 
287 1 0.0147936 0.0218966 0.014914 0.00492437 0.00426421 -0.0029545 1.7516e-07 1.19051e-06 5.01772e-07 0.0005 1.46608e-07 
288 1 0.0200682 0.0212026 0.0177199 -0.0228089 -0.00672579 -0.153076 0 0 -1.43822e-06 0.0005 1.46608e-07 
289 1 0.0228812 0.0212308 0.0153734 0.00474208 0.0136971 -0.0106167 9.4932e-06 1.76737e-05 1.56039e-05 0.0005 1.46608e-07 
290 1 0.0239234 0.02142 0.0161829 -0.00590209 0.00369924 -0.00220031 -4.64668e-08 4.0013e-07 -2.26738e-08 0.0005 1.46608e-07 
291 1 0.0258976 0.0233788 0.0116075 0.000893925 0.0022896 -0.022511 6.71543e-06 -1.29197e-06 -5.96076e-06 0.0005 1.46608e-07 
294 1 0.0223096 0.0154507 0.0143904 0.00475769 0.00409431 0.00550316 -9.52024e-07 -1.48097e-06 -1.8933e-06 0.0005 1.46608e-07 
296 1 0.02713 0.0203631 0.0156115 -0.275116 1.96526 0.829814 -0.0197875 0.0385537 0.100112 0.0005 1.46608e-07 
297 1 0.0172909 0.0158416 0.0145929 0.00172992 0.0102859 0.0121323 0 0 -1.43822e-06 0.0005 1.46608e-07 
298 1 0.0245368 0.0221057 0.0157912 -0.000625927 3.02176e-05 -0.000590725 8.83641e-07 -5.18545e-07 -1.49113e-07 0.0005 1.46608e-07 
299 1 0.0391006 0.0190317 0.00571839 -8.71575e-15 4.07482e-14 -2.01662e-13 3.48594e-19 6.95626e-20 -6.35275e-22 0.0005 1.46608e-07 
300 1 0.0221018 0.0162513 0.0149522 0.00325518 0.00611487 0.00369506 4.516e-06 5.7547e-06 2.52981e-06 0.0005 1.46608e-07 
301 1 0.0248872 0.0216679 0.0167552 -0.000741477 -0.00285144 0.000225295 -2.51227e-05 -0.000116328 9.50417e-05 0.0005 1.46608e-07 
302 1 0.0189172 0.0220998 0.0157813 -0.0314447 -0.0369062 0.0153855 0 0 -1.43822e-06 0.0005 1.46608e-07 
305 1 0.016046 0.0144012 0.0140407 -0.000828247 0.0016546 0.00178812 -5.87937e-07 4.02033e-07 -4.55481e-07 0.0005 1.46608e-07 
306 1 0.0177546 0.019546 0.0167118 1.92512e-05 0.0288077 -0.00277669 -1.37895e-08 -5.81232e-09 -2.38323e-08 0.0005 1.46608e-07 
308 1 0.0210679 0.0233463 0.0126507 0.0043777 0.000361969 -0.00236745 -5.60728e-06 -1.24188e-06 -1.91947e-06 0.0005 1.46608e-07 
309 1 0.0194045 0.0242318 0.0137603 0.00339925 0.00546031 0.000768014 1.32188e-05 6.23662e-06 1.90841e-05 0.0005 1.46608e-07 
312 1 0.0228923 0.0234362 0.0143855 -0.00099611 0.00276781 0.000985315 2.43175e-06 4.71364e-06 2.28827e-06 0.0005 1.46608e-07 
313 1 0.0220568 0.0238296 0.0140025 -0.000631245 0.00218653 0.000989882 1.69239e-06 8.15786e-06 -1.80283e-06 0.0005 1.46608e-07 
314 1 0.0155757 0.0223504 0.014488 0.0062866 0.00301172 -0.00198103 9.29313e-07 7.65328e-07 -7.36759e-07 0.0005 1.46608e-07 
319 1 0.019669 0.0232015 0.0103828 0.00268695 -0.00485649 -0.0157443 -2.20576e-08 -4.19731e-08 -1.00406e-07 0.0005 1.46608e-07 
320 1 0.0198837 0.0162917 0.0166309 -0.107748 -0.044755 0.0160227 0 0 -1.43822e-06 0.0005 1.46608e-07 
321 1 0.0247775 0.0161405 0.0158797 -0.000948651 0.0011448 0.00567108 0 0 -1.43822e-06 0.0005 1.46608e-07 
324 1 0.0219671 0.0232705 0.012837 0.00161924 -0.000290499 -0.000875396 -7.85273e-06 4.06315e-06 -1.49968e-06 0.0005 1.46608e-07 
325 1 0.0213256 0.0239971 0.0133416 0.00105151 -6.07367e-06 -0.000311039 -5.07675e-06 2.01026e-06 -1.51344e-06 0.0005 1.46608e-07 
326 1 0.0168483 0.0213629 0.0153009 0.00549233 0.00166766 -0.00246808 4.22681e-07 -4.18162e-07 -5.10515e-07 0.0005 1.46608e-07 
327 1 0.0254467 0.0229044 0.00949838 0.001722 -0.00691732 -0.0147861 -2.2057e-07 -1.6148e-07 -2.89375e-07 0.0005 1.46608e-07 
328 1 0.0292624 0.0209762 0.0061071 5.21137e-16 3.47794e-15 -1.1755e-14 -2.81096e-19 1.99317e-19 4.76456e-20 0.0005 1.46608e-07 
331 1 0.021151 0.0240579 0.0143596 -0.000493087 0.00178899 -0.00249457 9.67104e-08 -4.60175e-07 -1.46325e-06 0.0005 1.46608e-07 
332 1 0.0207427 0.0147197 0.015939 3.76945e-05 -0.00213875 0.0032664 -1.10713e-07 4.84517e-07 -1.45111e-06 0.0005 1.46608e-07 
334 1 0.0305812 0.0200059 0.00730384 0.000238856 -0.024137 -0.00535534 -1.30242e-09 -1.06974e-08 1.30128e-08 0.0005 1.46608e-07 
338 1 0.0197449 0.0153218 0.0151888 0.0140776 0.00396192 0.00245269 3.41998e-06 8.3889e-07 3.06387e-06 0.0005 1.46608e-07 
339 1 0.0214096 0.0146401 0.0144186 0.000889362 -0.00100427 -0.00231597 2.28955e-06 8.71602e-07 -1.65523e-07 0.0005 1.46608e-07 
340 1 0.024036 0.016636 0.0163636 -0.000245415 0.00720612 -0.0243437 0 0 -1.43822e-06 0.0005 1.46608e-07 
341 1 0.0217267 0.0179829 0.0158205 0.00563975 0.00803095 -0.0452188 -3.64165e-05 2.85707e-05 0.000166884 0.0005 1.46608e-07 
