ITEM: TIMESTEP
40000
ITEM: NUMBER OF ATOMS
188
ITEM: BOX BOUNDS ff ff ff
-0.02 0.43
-0.02 0.06
-0.02 0.07
ITEM: ATOMS id type x y z vx vy vz fx fy fz radius mass 
1 1 0.015809 0.0149897 0.0133277 0.00143124 -0.0031243 0.00323815 -2.28921e-06 -1.89115e-06 3.43673e-06 0.0005 5.23599e-07 
2 1 0.0151232 0.0150203 0.0141682 0.00551531 0.0159561 -0.0346916 4.12924e-07 4.67667e-07 -4.36177e-06 0.0005 5.23599e-07 
3 1 0.0141831 0.0224162 0.0144029 0.00452771 -0.0013975 -0.000606994 -2.47007e-06 -1.25848e-05 -3.11246e-06 0.0005 5.23599e-07 
4 1 0.0178234 0.0145228 0.0141533 4.08137e-05 -0.00151427 0.0048424 -3.22438e-06 4.1848e-06 7.86526e-07 0.0005 5.23599e-07 
5 1 0.0177354 0.0208382 0.0184862 -0.4752 -0.215125 0.604018 0 0 -5.1365e-06 0.0005 5.23599e-07 
6 1 0.0176689 0.0140967 0.0132621 4.41473e-05 -0.000442721 0.00156516 1.63516e-06 2.52994e-06 1.25405e-06 0.0005 5.23599e-07 
7 1 0.018622 0.0200416 0.0173479 -0.104193 -0.122172 0.289643 0 0 -5.1365e-06 0.0005 5.23599e-07 
8 1 0.0202006 0.0152308 0.0137823 0.00905271 0.0085147 0.0106076 -2.69463e-07 -1.51711e-06 -3.03483e-06 0.0005 5.23599e-07 
9 1 0.0205807 0.0142116 0.0128429 0.00874702 -0.00166911 0.00987638 1.74385e-05 -1.02465e-05 3.36507e-06 0.0005 5.23599e-07 
10 1 0.0216301 0.0140533 0.0142217 0.00392576 -0.00284892 0.00623196 8.98598e-06 1.24472e-06 2.24272e-05 0.0005 5.23599e-07 
11 1 0.0219418 0.0232003 0.0147147 -0.00415498 0.0203325 -0.0126691 0 0 -5.1365e-06 0.0005 5.23599e-07 
12 1 0.0144997 0.0217263 0.0150534 0.0160236 0.00540958 0.000516941 3.64178e-06 -9.94162e-06 1.87338e-06 0.0005 5.23599e-07 
13 1 0.0218498 0.0159534 0.0146982 0.0155405 -0.00583862 -0.00051277 -2.39878e-06 4.83478e-06 -1.86244e-05 0.0005 5.23599e-07 
14 1 0.015748 0.0225818 0.0153946 -0.0411604 -0.0696416 -0.0092484 0 0 -5.1365e-06 0.0005 5.23599e-07 
15 1 0.0199697 0.0158532 0.0146083 0.00475441 0.0240068 0.0217857 -6.18273e-07 -1.26298e-06 -1.85917e-06 0.0005 5.23599e-07 
16 1 0.0184899 0.0224919 0.0143835 -0.0283114 -0.0044506 -0.000771498 0 0 -5.1365e-06 0.0005 5.23599e-07 
17 1 0.0167206 0.0142133 0.0135598 -9.7053e-05 -0.00267435 0.00551616 -6.61456e-07 -1.16935e-05 2.93416e-05 0.0005 5.23599e-07 
18 1 0.019047 0.0226465 0.0179182 -0.311876 0.192052 0.759839 0 0 -5.1365e-06 0.0005 5.23599e-07 
19 1 0.018625 0.0139878 0.0129907 0.000945013 -0.00156083 0.00305009 -2.95345e-06 -4.90053e-06 -7.13226e-07 0.0005 5.23599e-07 
20 1 0.0231587 0.0226543 0.015329 -0.0492488 -0.519169 -0.499639 0 0 -5.1365e-06 0.0005 5.23599e-07 
21 1 0.0213863 0.0147306 0.0125547 0.0106858 0.000344709 0.01439 1.08058e-05 -8.67899e-06 3.88382e-06 0.0005 5.23599e-07 
22 1 0.0159347 0.0144234 0.0141419 0.000633591 -0.003198 0.00438023 3.44844e-06 -4.8364e-06 -4.875e-07 0.0005 5.23599e-07 
23 1 0.0198439 0.0232198 0.0130378 0.00212857 0.00521241 -0.0153029 -1.53961e-05 1.80783e-05 5.08514e-05 0.0005 5.23599e-07 
24 1 0.0224996 0.0145553 0.0142669 0.00266766 0.00243182 -0.0397083 0 0 -5.1365e-06 0.0005 5.23599e-07 
25 1 0.0193867 0.0184855 0.0159078 -0.00698294 0.0373928 0.00983101 0 0 -5.1365e-06 0.0005 5.23599e-07 
26 1 0.0206095 0.0146266 0.0119349 0.0103979 0.00128591 0.0108182 7.96506e-06 -8.70113e-06 1.78836e-06 0.0005 5.23599e-07 
27 1 0.0151153 0.0210238 0.0164672 -0.0601137 -0.0516888 0.0525234 0 0 -5.1365e-06 0.0005 5.23599e-07 
28 1 0.019085 0.0142888 0.0138262 0.0174729 -0.00563187 -0.00218078 0 0 -5.1365e-06 0.0005 5.23599e-07 
29 1 0.0161039 0.0236482 0.0142294 0.0272424 0.0104944 0.0123449 -6.48443e-05 -1.7186e-05 -2.26349e-05 0.0005 5.23599e-07 
30 1 0.0180926 0.0157827 0.0229433 -0.778368 -1.29163 1.55231 0 0 -5.1365e-06 0.0005 5.23599e-07 
31 1 0.0219149 0.0146461 0.0133986 0.0101918 0.00247065 0.0174637 1.2631e-05 -6.77141e-06 2.95573e-05 0.0005 5.23599e-07 
32 1 0.0207255 0.0168995 0.015393 0.0434188 0.00946653 0.0033012 0 0 -5.1365e-06 0.0005 5.23599e-07 
33 1 0.020398 0.0223322 0.0150594 0.059057 0.0296014 0.02765 0 0 -5.1365e-06 0.0005 5.23599e-07 
34 1 0.0234681 0.0154544 0.015386 0.0640642 -0.106812 -0.0360193 0 0 -5.1365e-06 0.0005 5.23599e-07 
35 1 0.018475 0.0243271 0.0192089 -0.548286 0.00251015 0.78535 0 0 -5.1365e-06 0.0005 5.23599e-07 
36 1 0.0194785 0.0223171 0.0146306 0.0517771 0.0058357 -0.0260971 0 0 -5.1365e-06 0.0005 5.23599e-07 
37 1 0.0203857 0.0215621 0.0181121 -0.187497 -0.687401 0.230926 0 0 -5.1365e-06 0.0005 5.23599e-07 
38 1 0.0195968 0.0214184 0.0153331 -0.00989286 0.0107969 0.0126507 0.000271634 6.00737e-05 -4.684e-05 0.0005 5.23599e-07 
39 1 0.0197591 0.0166164 0.0152333 0.00731429 0.0294019 0.0222001 0 0 -5.1365e-06 0.0005 5.23599e-07 
40 1 0.0209898 0.0189008 0.0159534 0.018283 0.00656684 -0.0104524 0 0 -5.1365e-06 0.0005 5.23599e-07 
41 1 0.0165118 0.0220787 0.015799 -0.164859 -0.119874 0.0585183 0 0 -5.1365e-06 0.0005 5.23599e-07 
42 1 0.0148206 0.0158698 0.0146389 0.00110486 -0.00634612 0.0165723 0 0 -5.1365e-06 0.0005 5.23599e-07 
43 1 0.0200549 0.0151966 0.0154165 0.0424673 -0.0185826 -0.00464925 0 0 -5.1365e-06 0.0005 5.23599e-07 
44 1 0.0161863 0.0211628 0.0163161 -0.108651 -0.00209655 -0.00132961 0 0 -5.1365e-06 0.0005 5.23599e-07 
45 1 0.0186768 0.0147774 0.0146084 0.00663887 -0.00225592 -0.0115087 0 0 -5.1365e-06 0.0005 5.23599e-07 
46 1 0.0137274 0.0215383 0.0156609 -0.0105714 -0.00367617 -0.0385054 0 0 -5.1365e-06 0.0005 5.23599e-07 
47 1 0.0203172 0.0137783 0.0137082 0.000103465 -0.000244059 -0.00138287 -4.88697e-07 4.86577e-06 7.53024e-06 0.0005 5.23599e-07 
48 1 0.0157514 0.0193434 0.0168019 -0.391633 -0.265305 0.175331 0 0 -5.1365e-06 0.0005 5.23599e-07 
49 1 0.0216522 0.0165153 0.0155011 0.00232693 0.00419651 -0.0229592 -5.50046e-07 1.60792e-06 2.22896e-05 0.0005 5.23599e-07 
50 1 0.0199925 0.0162486 0.0161363 0.00739639 -0.0346157 -0.0255024 0 0 -5.1365e-06 0.0005 5.23599e-07 
51 1 0.0221254 0.0147227 0.0151952 -0.00233188 0.0164067 -0.0287823 0 0 -5.1365e-06 0.0005 5.23599e-07 
52 1 0.0191436 0.0170807 0.0164761 0.0212918 -0.0663054 -0.0884348 -6.00041e-05 2.34237e-05 0.000174657 0.0005 5.23599e-07 
53 1 0.0144746 0.0181646 0.0161358 -0.00839377 0.0167818 0.0170237 0 0 -5.1365e-06 0.0005 5.23599e-07 
54 1 0.0200772 0.0194054 0.0159275 0.00493374 0.038267 0.00193044 1.99091e-06 -4.79947e-06 -1.26016e-05 0.0005 5.23599e-07 
55 1 0.0226055 0.020157 0.0166751 0.00552073 -0.035433 0.00209597 0 0 -5.1365e-06 0.0005 5.23599e-07 
56 1 0.0165351 0.0236386 0.0241891 0.125181 -0.148032 -0.0982822 0 0 -5.1365e-06 0.0005 5.23599e-07 
57 1 0.0214762 0.0153547 0.0139901 0.00539035 -0.00193447 0.00523554 2.02975e-05 1.01209e-05 1.42349e-05 0.0005 5.23599e-07 
58 1 0.0209394 0.0145606 0.0137074 0.00520872 -0.00101519 0.00896606 1.20824e-05 -5.95203e-06 3.33445e-05 0.0005 5.23599e-07 
59 1 0.017603 0.0228954 0.0151175 6.13437e-05 -0.0036317 -0.00809025 0 0 -5.1365e-06 0.0005 5.23599e-07 
60 1 0.0196244 0.0139736 0.0130142 0.0017335 0.00121316 -0.0028585 2.58146e-06 3.25537e-06 4.41996e-06 0.0005 5.23599e-07 
61 1 0.0203019 0.0170352 0.0166742 0.00634318 0.00821242 -0.0331911 0 0 -5.1365e-06 0.0005 5.23599e-07 
62 1 0.0157653 0.0181013 0.0166725 0.000827382 0.0235575 -0.0539383 0 0 -5.1365e-06 0.0005 5.23599e-07 
63 1 0.0167141 0.0166787 0.0162305 -0.00157519 -0.0182216 0.0194952 0 0 -5.1365e-06 0.0005 5.23599e-07 
64 1 0.0168755 0.0146772 0.0144415 0.00285818 -0.00347595 -0.00446866 0 0 -5.1365e-06 0.0005 5.23599e-07 
65 1 0.0152543 0.0232868 0.0146132 0.0112563 0.00522094 -0.00757154 4.88803e-06 1.19318e-06 -4.32513e-06 0.0005 5.23599e-07 
66 1 0.0172359 0.0210697 0.0163578 -0.0650795 -0.091024 0.0501146 0 0 -5.1365e-06 0.0005 5.23599e-07 
67 1 0.0199213 0.0143588 0.0144193 -0.00803758 0.00729877 -0.0137674 -1.29485e-05 1.14295e-06 1.36239e-05 0.0005 5.23599e-07 
68 1 0.0242139 0.0181352 0.0167156 0.173201 -0.153788 -0.0635644 0 0 -5.1365e-06 0.0005 5.23599e-07 
69 1 0.021142 0.0146257 0.0148804 -0.0139093 0.00202725 -0.0120638 -8.35683e-07 3.88251e-07 1.00441e-07 0.0005 5.23599e-07 
70 1 0.0144263 0.0165375 0.0155137 -0.0111994 0.00951526 -0.0179339 0 0 -5.1365e-06 0.0005 5.23599e-07 
71 1 0.019138 0.0194482 0.0162669 0.00238553 0.0502445 0.0044006 -1.34344e-05 5.82262e-06 1.12906e-05 0.0005 5.23599e-07 
72 1 0.0228217 0.0159416 0.0160809 0.014507 -0.162926 0.117224 0 0 -5.1365e-06 0.0005 5.23599e-07 
73 1 0.0166588 0.0152452 0.0152512 -0.0225778 -0.00155351 -0.0104545 0 0 -5.1365e-06 0.0005 5.23599e-07 
74 1 0.0209314 0.0199244 0.015912 0.0155442 0.0296263 -0.0222036 8.41487e-06 7.97652e-06 1.56305e-06 0.0005 5.23599e-07 
75 1 0.0223039 0.0220368 0.018181 -0.0406779 0.79447 -0.527849 0 0 -5.1365e-06 0.0005 5.23599e-07 
76 1 0.0191041 0.0147007 0.0155127 0.0161851 -0.00278565 -0.014484 0 0 -5.1365e-06 0.0005 5.23599e-07 
77 1 0.0250729 0.0214432 0.0162118 -0.0246312 -0.0682811 0.00861108 0 0 -5.1365e-06 0.0005 5.23599e-07 
78 1 0.0177218 0.0150251 0.0150119 -0.00302032 0.0168811 -0.00103807 9.77539e-07 -1.70608e-06 -6.64495e-06 0.0005 5.23599e-07 
79 1 0.0194448 0.0203284 0.0158656 -0.00501214 0.0805893 -0.00621008 0 0 -5.1365e-06 0.0005 5.23599e-07 
80 1 0.0209197 0.0155959 0.0147849 0.00610544 0.00703854 -0.00770665 1.48354e-07 2.0387e-06 1.04841e-05 0.0005 5.23599e-07 
81 1 0.0151216 0.0219014 0.0159503 -0.0946765 -0.054174 0.041436 0 0 -5.1365e-06 0.0005 5.23599e-07 
82 1 0.0258278 0.0321346 0.0484398 0.167315 0.0814036 -0.158499 0 0 -5.1365e-06 0.0005 5.23599e-07 
83 1 0.0202314 0.0188375 0.0167657 0.025566 -0.059223 -0.046296 0 0 -5.1365e-06 0.0005 5.23599e-07 
84 1 0.0195565 0.0175011 0.0156695 0.00703846 0.0342788 0.00969761 6.00041e-05 -2.34237e-05 -0.00018493 0.0005 5.23599e-07 
85 1 0.0222083 0.0154377 0.01725 0.0578688 -0.603895 0.218395 0 0 -5.1365e-06 0.0005 5.23599e-07 
86 1 0.0268296 0.0254982 0.0294531 1.13509 1.14707 3.17065 0 0 -5.1365e-06 0.0005 5.23599e-07 
87 1 0.0248479 0.0195685 0.016931 0.0737914 -0.0232106 0.00713972 0 0 -5.1365e-06 0.0005 5.23599e-07 
88 1 0.0203679 0.0180685 0.0158537 0.000326904 0.0379253 0.00484519 0 0 -5.1365e-06 0.0005 5.23599e-07 
89 1 0.0203439 0.0207875 0.0156777 0.0141113 0.0155355 0.0174349 0 0 -5.1365e-06 0.0005 5.23599e-07 
90 1 0.0188581 0.0232438 0.0128921 0.00628624 0.00164379 -0.0069925 -1.07884e-05 1.37282e-05 -2.08261e-06 0.0005 5.23599e-07 
91 1 0.018187 0.0242525 0.014083 0.00581809 -0.0283163 -0.0162531 -6.09533e-06 -2.71107e-06 -1.04371e-05 0.0005 5.23599e-07 
92 1 0.0203919 0.0241535 0.0139668 0.034658 -0.0217663 -0.0967608 0 0 -5.1365e-06 0.0005 5.23599e-07 
93 1 0.0212401 0.0239415 0.0145254 -0.0100503 0.041356 0.0258758 0 0 -5.1365e-06 0.0005 5.23599e-07 
94 1 0.0220646 0.023748 0.0138789 -0.0166889 0.00650698 -0.00666174 0 0 -5.1365e-06 0.0005 5.23599e-07 
95 1 0.0179911 0.0216011 0.0175434 -0.305522 -0.0864183 0.528171 0 0 -5.1365e-06 0.0005 5.23599e-07 
96 1 0.0212224 0.0239904 0.0132836 -0.000598092 0.00439961 -0.00356763 2.20561e-05 -1.16308e-05 6.01031e-05 0.0005 5.23599e-07 
97 1 0.0177159 0.0241077 0.0132132 -0.00936838 -0.0109231 -0.0284001 6.09533e-06 2.71107e-06 1.64109e-07 0.0005 5.23599e-07 
98 1 0.0199282 0.0234037 0.0144862 -0.0612362 -0.00650314 0.0282216 0 0 -5.1365e-06 0.0005 5.23599e-07 
99 1 0.0167872 0.0238989 0.0135346 0.00402883 -0.00160999 -0.00140883 1.60129e-05 -1.00921e-05 5.60667e-05 0.0005 5.23599e-07 
100 1 0.0179245 0.0233447 0.0125993 0.00735705 0.0010557 -0.0108797 -1.59794e-05 4.71036e-06 -1.47049e-06 0.0005 5.23599e-07 
101 1 0.0177006 0.0234571 0.0116537 0.0109361 -0.00280895 -0.00926528 -8.12641e-07 -1.15796e-06 -1.30218e-06 0.0005 5.23599e-07 
102 1 0.0134543 0.0196023 0.0248856 -0.26802 -1.74155 2.31036 0 0 -5.1365e-06 0.0005 5.23599e-07 
103 1 0.0186908 0.0217176 0.0184429 -0.127258 -0.00521165 0.245979 0 0 -5.1365e-06 0.0005 5.23599e-07 
104 1 0.0228485 0.0235773 0.0145251 -0.00282203 -0.00716074 -0.0198423 -1.90203e-06 -1.06662e-06 -2.89946e-06 0.0005 5.23599e-07 
105 1 0.0190491 0.0239248 0.0146297 -0.00886974 0.0545203 0.0668522 0 0 -5.1365e-06 0.0005 5.23599e-07 
106 1 0.0181404 0.0231235 0.0135481 0.0101022 0.000426132 -0.00601564 -7.85752e-06 1.40723e-05 -4.50803e-05 0.0005 5.23599e-07 
107 1 0.0188251 0.0240228 0.0162151 0.00405602 -0.0331538 -0.0759385 1.49139e-07 -1.46829e-06 -3.35858e-06 0.0005 5.23599e-07 
108 1 0.0193283 0.0240646 0.0128352 0.00193517 0.000874224 -0.00224767 -1.18381e-05 1.13966e-05 -5.87988e-07 0.0005 5.23599e-07 
109 1 0.0186227 0.023634 0.0120339 0.00639084 0.000438486 -0.00484457 -7.45834e-05 2.56419e-05 2.93408e-05 0.0005 5.23599e-07 
110 1 0.0203041 0.0240881 0.0129189 -1.58201e-05 0.00162781 -0.00342788 3.50659e-06 1.75998e-05 1.99321e-05 0.0005 5.23599e-07 
111 1 0.01454 0.0227961 0.0247992 -1.28694 -0.266676 1.12992 0 0 -5.1365e-06 0.0005 5.23599e-07 
112 1 0.0191267 0.0244358 0.0137177 -0.00132691 5.65799e-05 -0.000713803 -1.87283e-05 1.3997e-05 -6.89849e-06 0.0005 5.23599e-07 
113 1 0.0192985 0.0228959 0.0138178 -0.00192737 -0.0078112 0.0219056 0 0 -5.1365e-06 0.0005 5.23599e-07 
114 1 0.0204739 0.0226228 0.0190161 0.187796 0.209764 -0.152294 0 0 -5.1365e-06 0.0005 5.23599e-07 
115 1 0.0174136 0.0235517 0.014278 -0.00235253 -0.0014693 -0.00153548 0 0 -5.1365e-06 0.0005 5.23599e-07 
116 1 0.0172827 0.0237312 0.0160748 -0.112837 0.0965878 -0.0138198 0 0 -5.1365e-06 0.0005 5.23599e-07 
118 1 0.0221584 0.0188897 0.0182071 0.0244218 -0.224292 0.414586 0 0 -5.1365e-06 0.0005 5.23599e-07 
119 1 0.0228793 0.0172453 0.0234309 -0.110199 0.059159 0.12344 0 0 -5.1365e-06 0.0005 5.23599e-07 
121 1 0.0184212 0.0187209 0.0180135 -0.047262 -0.257636 0.0124252 0 0 -5.1365e-06 0.0005 5.23599e-07 
122 1 0.0186474 0.0216594 0.0151414 0.028364 0.0516637 -0.0421592 -0.000271634 -6.00737e-05 3.6567e-05 0.0005 5.23599e-07 
123 1 0.0228219 0.0230745 0.0181638 0.0189457 0.00670079 -0.0967062 0 0 -5.1365e-06 0.0005 5.23599e-07 
124 1 0.0197299 0.0226399 0.0161445 0.296523 -0.0442222 0.209656 0 0 -5.1365e-06 0.0005 5.23599e-07 
125 1 0.0245327 0.0218317 0.0153246 0.00447088 0.00528892 -0.000153571 -1.81237e-07 3.77392e-07 2.68748e-07 0.0005 5.23599e-07 
126 1 0.0171072 0.0221607 0.0167267 -0.0247558 0.000426868 0.0164157 0 0 -5.1365e-06 0.0005 5.23599e-07 
127 1 0.018121 0.0237555 0.0149714 0.0178697 -0.00189896 -0.0324533 0 0 -5.1365e-06 0.0005 5.23599e-07 
128 1 0.0166454 0.0231224 0.0148852 -0.0341847 0.00591416 -0.00729666 5.99563e-05 1.59929e-05 1.15505e-05 0.0005 5.23599e-07 
129 1 0.0196861 0.0198075 0.0194929 -0.160099 -0.390586 0.268032 0 0 -5.1365e-06 0.0005 5.23599e-07 
130 1 0.0234634 0.0185189 0.0179981 0.31684 -0.296356 0.00458507 0 0 -5.1365e-06 0.0005 5.23599e-07 
131 1 0.0192767 0.0207532 0.016769 -0.274187 0.0880256 -0.103999 0 0 -5.1365e-06 0.0005 5.23599e-07 
132 1 0.0229035 0.0184307 0.0270051 1.48736 -0.871208 0.811852 0 0 -5.1365e-06 0.0005 5.23599e-07 
133 1 0.0174059 0.0237649 0.0170985 -5.1155e-05 -0.0508485 -0.0916788 0 0 -5.1365e-06 0.0005 5.23599e-07 
134 1 0.0202244 0.0212902 0.021441 0.12997 -0.0063633 -0.255314 0 0 -5.1365e-06 0.0005 5.23599e-07 
135 1 0.0218574 0.0212597 0.0164065 -0.191343 0.00828542 0.0115632 0 0 -5.1365e-06 0.0005 5.23599e-07 
136 1 0.0185891 0.0178632 0.0169406 -0.0601797 -0.0336008 -0.0617557 0 0 -5.1365e-06 0.0005 5.23599e-07 
137 1 0.018374 0.0268731 0.0245503 -1.0879 0.800945 1.96922 0 0 -5.1365e-06 0.0005 5.23599e-07 
138 1 0.0160313 0.0211475 0.0183322 -0.644392 0.15696 0.496741 0 0 -5.1365e-06 0.0005 5.23599e-07 
139 1 0.0161753 0.0263247 0.0260984 -0.488869 0.0577165 1.79137 0 0 -5.1365e-06 0.0005 5.23599e-07 
140 1 0.0239148 0.0218368 0.0161202 0.031122 -0.0121899 0.0128585 0 0 -5.1365e-06 0.0005 5.23599e-07 
141 1 0.0241397 0.0204512 0.0170218 -0.00550454 0.0057959 0.03216 0 0 -5.1365e-06 0.0005 5.23599e-07 
142 1 0.014224 0.0206259 0.0156635 -0.00466275 0.0737064 0.0609837 0 0 -5.1365e-06 0.0005 5.23599e-07 
143 1 0.0177337 0.0220989 0.0158929 0.0307368 -0.0117759 -0.0185818 0 0 -5.1365e-06 0.0005 5.23599e-07 
144 1 0.0232205 0.0189391 0.0168342 0.127085 -0.127204 -0.0762933 0 0 -5.1365e-06 0.0005 5.23599e-07 
145 1 0.0216762 0.0175599 0.0179324 -0.00104772 -0.0765348 0.0403383 0 0 -5.1365e-06 0.0005 5.23599e-07 
146 1 0.0200556 0.0168375 0.0177273 0.00285389 -0.0646536 -0.0737909 0 0 -5.1365e-06 0.0005 5.23599e-07 
147 1 0.0213434 0.0175704 0.0158367 0.0700617 0.0201352 -0.00757018 0 0 -5.1365e-06 0.0005 5.23599e-07 
148 1 0.0148427 0.0175164 0.0181497 0 0 -0.124648 0 0 -5.1365e-06 0.0005 5.23599e-07 
149 1 0.0182712 0.0149678 0.0162843 -0.02414 0.12995 -0.0232986 0 0 -5.1365e-06 0.0005 5.23599e-07 
150 1 0.0179167 0.0160909 0.0175531 -0.00831716 -0.0394829 -0.0281712 0 0 -5.1365e-06 0.0005 5.23599e-07 
151 1 0.0200572 0.0153213 0.0175808 0 0 -0.163397 0 0 -5.1365e-06 0.0005 5.23599e-07 
152 1 0.0164672 0.0161975 0.0174279 0 0 -0.172324 0 0 -5.1365e-06 0.0005 5.23599e-07 
153 1 0.0212132 0.0175282 0.0168676 -0.106876 -0.146128 0.03089 0 0 -5.1365e-06 0.0005 5.23599e-07 
154 1 0.0159407 0.017941 0.0192338 0 -0 -0.1 0 0 0 0.0005 5.23599e-07 
155 1 0.0149324 0.0195444 0.0160243 -0.020869 0.0370175 -0.102763 0 0 -5.1365e-06 0.0005 5.23599e-07 
156 1 0.020989 0.0164172 0.0162535 0.0408141 -0.0358965 0.0114751 0 0 -5.1365e-06 0.0005 5.23599e-07 
157 1 0.0174249 0.0183651 0.0184748 -0.448625 -0.20359 0.252217 0 0 -5.1365e-06 0.0005 5.23599e-07 
158 1 0.0203693 0.0147539 0.0236076 0 -0 -0.1 0 0 0 0.0005 5.23599e-07 
159 1 0.0169775 0.018539 0.0254118 0 -0 -0.1 0 0 0 0.0005 5.23599e-07 
160 1 0.0181284 0.0154797 0.0268443 0 -0 -0.1 0 0 0 0.0005 5.23599e-07 
161 1 0.0210973 0.0176849 0.0275039 0 -0 -0.1 0 0 0 0.0005 5.23599e-07 
162 1 0.0212466 0.0191129 0.0269624 0 -0 -0.1 0 0 0 0.0005 5.23599e-07 
163 1 0.0154542 0.0163496 0.0244231 0 -0 -0.1 0 0 0 0.0005 5.23599e-07 
164 1 0.017319 0.0170935 0.0246781 0 -0 -0.1 0 0 0 0.0005 5.23599e-07 
165 1 0.0162844 0.0168814 0.0248791 0 -0 -0.1 0 0 0 0.0005 5.23599e-07 
166 1 0.0213649 0.0157703 0.0230828 0 -0 -0.1 0 0 0 0.0005 5.23599e-07 
167 1 0.0226886 0.0165359 0.0243597 0 -0 -0.1 0 0 0 0.0005 5.23599e-07 
168 1 0.0196544 0.0191834 0.027769 0 -0 -0.1 0 0 0 0.0005 5.23599e-07 
169 1 0.0196542 0.0182676 0.0233896 0 -0 -0.1 0 0 0 0.0005 5.23599e-07 
170 1 0.0171541 0.0151369 0.0226556 0 -0 -0.1 0 0 0 0.0005 5.23599e-07 
171 1 0.0229379 0.0181772 0.0240281 0 -0 -0.1 0 0 0 0.0005 5.23599e-07 
172 1 0.0157168 0.0192946 0.0270438 0 -0 -0.1 0 0 0 0.0005 5.23599e-07 
173 1 0.0173648 0.0186375 0.0281509 0 -0 -0.1 0 0 0 0.0005 5.23599e-07 
174 1 0.0195552 0.0236218 0.0193233 -0.189242 -0.0890624 0.646469 0 0 -5.1365e-06 0.0005 5.23599e-07 
175 1 0.0151776 0.0207292 0.0174663 -0.0153084 -0.0655931 0.057496 0 0 -5.1365e-06 0.0005 5.23599e-07 
176 1 0.0182523 0.011941 0.021466 -0.700762 -1.42933 1.48111 0.0141099 0.0517562 0.00946087 0.0005 5.23599e-07 
177 1 0.0161699 0.0230455 0.0163259 -0.00972234 0.0568378 0.0193338 0 0 -5.1365e-06 0.0005 5.23599e-07 
178 1 0.0160879 0.0223508 0.0175599 0.0656547 -0.0660177 -0.0560608 0 0 -5.1365e-06 0.0005 5.23599e-07 
179 1 0.0228592 0.0207093 0.0184658 0 -0 -0.1 0 0 0 0.0005 5.23599e-07 
180 1 0.0176501 0.0223377 0.0182233 -0.388291 0.180465 -0.0567864 0 0 -5.1365e-06 0.0005 5.23599e-07 
181 1 0.0180868 0.0219473 0.0218237 0 -0 -0.1 0 0 0 0.0005 5.23599e-07 
182 1 0.0175972 0.0231613 0.0288503 0 -0 -0.1 0 0 0 0.0005 5.23599e-07 
183 1 0.0229259 0.0208201 0.0249724 0 -0 -0.1 0 0 0 0.0005 5.23599e-07 
184 1 0.0166492 0.0208378 0.0229305 0 -0 -0.1 0 0 0 0.0005 5.23599e-07 
185 1 0.0206325 0.0219985 0.0206665 0 -0 -0.1 0 0 0 0.0005 5.23599e-07 
186 1 0.0154267 0.0216624 0.0265487 0 -0 -0.1 0 0 0 0.0005 5.23599e-07 
187 1 0.0155545 0.0220406 0.0241633 0 -0 -0.1 0 0 0 0.0005 5.23599e-07 
188 1 0.0169423 0.0218894 0.0283048 0 -0 -0.1 0 0 0 0.0005 5.23599e-07 
189 1 0.0193669 0.0231578 0.0248997 0 -0 -0.1 0 0 0 0.0005 5.23599e-07 
190 1 0.0200309 0.0219762 0.0245173 0 -0 -0.1 0 0 0 0.0005 5.23599e-07 
