ITEM: TIMESTEP
240000
ITEM: NUMBER OF ATOMS
155
ITEM: BOX BOUNDS ff ff ff
-0.02 0.43
-0.02 0.06
-0.02 0.07
ITEM: ATOMS id type x y z vx vy vz fx fy fz radius mass 
1 1 0.0203346 0.0228465 0.0149371 -0.000555364 -0.0400767 0.0233923 0 0 -5.1365e-06 0.0005 5.23599e-07 
2 1 0.0231024 0.0226261 0.00914205 0.389252 -0.0362291 -0.192146 -0.16312 0.0418053 0.0289307 0.0005 5.23599e-07 
3 1 0.0201492 0.0153636 0.0140053 0.00824624 0.0101045 0.0236063 0 0 -5.1365e-06 0.0005 5.23599e-07 
4 1 0.020925 0.0140974 0.0132904 0.00288021 0.0026954 -0.00312565 -8.48688e-08 3.41958e-07 -5.03109e-06 0.0005 5.23599e-07 
5 1 0.0186072 0.0139882 0.0129896 0.000488726 -0.00132759 0.00465712 -2.53744e-06 -2.15483e-06 1.67987e-05 0.0005 5.23599e-07 
6 1 0.0191333 0.0228278 0.0138394 -0.00343511 0.0362071 -0.0232001 0.000198361 -0.000198871 0.000412847 0.0005 5.23599e-07 
7 1 0.0210772 0.0151256 0.00971192 -0.30903 0.0639202 0.0652739 0.00864639 -0.0577013 -0.0117772 0.0005 5.23599e-07 
8 1 0.0204946 0.0227458 0.016096 -0.0129839 0.0109154 0.044272 1.4729e-07 3.80791e-08 -5.00667e-06 0.0005 5.23599e-07 
9 1 0.0199486 0.0173149 0.0172591 0.0239564 0.137921 -0.015499 0 0 -5.1365e-06 0.0005 5.23599e-07 
10 1 0.0227664 0.0146285 0.0143516 -0.0033518 0.000656846 -0.00398567 0 0 -5.1365e-06 0.0005 5.23599e-07 
11 1 0.022095 0.0197507 0.0169416 0.000938705 0.0226084 0.0755923 0 0 -5.1365e-06 0.0005 5.23599e-07 
12 1 0.0214282 0.0147207 0.0115393 0.00291463 0.0262391 -0.00762041 0.00385384 -0.0611474 0.0236762 0.0005 5.23599e-07 
13 1 0.0244298 0.0217508 0.0149735 0.0030764 0.00646492 -0.00429535 0.00010915 4.15977e-05 8.54261e-05 0.0005 5.23599e-07 
14 1 0.0165195 0.0241008 0.0143374 0.00114587 0.000340979 0.00195814 4.1667e-05 -2.11306e-07 -2.34511e-05 0.0005 5.23599e-07 
15 1 0.0202074 0.0216736 0.016694 0.0123831 -0.0757887 0.0432386 0 0 -5.1365e-06 0.0005 5.23599e-07 
16 1 0.0204136 0.0241489 0.0128787 0.0220972 -0.0498512 -0.0219629 0.00316423 0.00214671 -0.000334942 0.0005 5.23599e-07 
17 1 0.0184186 0.0143437 0.0139047 0.00429969 -0.00340285 0.00620942 -4.03286e-06 8.81254e-07 1.11522e-05 0.0005 5.23599e-07 
18 1 0.0180724 0.0226291 0.0154224 0.0306836 -0.00144849 0.0142102 0 0 -5.1365e-06 0.0005 5.23599e-07 
19 1 0.0237764 0.0222332 0.0155894 -0.000359826 0.00150626 -0.0143307 -9.05068e-05 0.000140321 4.04838e-05 0.0005 5.23599e-07 
21 1 0.020344 0.0174121 0.0352709 -0.0238309 -0.251073 -0.251554 0 0 -5.1365e-06 0.0005 5.23599e-07 
22 1 0.0189432 0.0190302 0.0232483 0.192804 0.0834464 -0.344423 0 0 -5.1365e-06 0.0005 5.23599e-07 
23 1 0.0243465 0.0197785 0.00583983 -3.8653e-16 -6.28447e-17 6.30453e-15 4.23516e-22 -4.36751e-22 0 0.0005 5.23599e-07 
24 1 0.0257573 0.0185994 0.0160172 0.00133935 0.00606 0.00101561 2.14716e-05 -4.36331e-05 1.47921e-05 0.0005 5.23599e-07 
25 1 0.031197 0.0191049 0.00570721 -1.09447e-15 8.39894e-18 -1.23844e-14 8.57091e-20 -5.76628e-21 -6.77626e-21 0.0005 5.23599e-07 
26 1 0.0277535 0.0172093 0.00760689 0.00037469 -0.0454196 0.0206691 8.74234e-09 -1.36255e-06 9.19253e-07 0.0005 5.23599e-07 
27 1 0.020583 0.0146191 0.0120668 0.00636704 0.00681502 0.0349402 0 0 -5.1365e-06 0.0005 5.23599e-07 
29 1 0.0179516 0.0240666 0.0129118 -0.019364 0.00371883 -0.00792408 0.000404066 -0.001662 -0.00031273 0.0005 5.23599e-07 
31 1 0.0211481 0.0148001 0.0144702 -0.024957 -0.00505633 -0.000835238 6.26367e-06 7.61018e-06 3.10759e-05 0.0005 5.23599e-07 
33 1 0.0221556 0.0216431 0.0161945 -0.0307641 0.0123767 -0.0425427 0 0 -5.1365e-06 0.0005 5.23599e-07 
34 1 0.0212556 0.0155361 0.0164423 0.0722956 -0.0821743 -0.0303965 0 0 -5.1365e-06 0.0005 5.23599e-07 
36 1 0.0233817 0.017605 0.0168821 -0.0917157 -0.0404288 -0.0686137 0 0 -5.1365e-06 0.0005 5.23599e-07 
37 1 0.020839 0.0237089 0.0149964 -0.00086197 -0.0193126 -0.00435673 0 0 -5.1365e-06 0.0005 5.23599e-07 
39 1 0.0254235 0.0178205 0.0157603 0.00643293 0.0115737 0.00257307 -1.29608e-05 -9.61518e-06 1.91751e-05 0.0005 5.23599e-07 
40 1 0.0177943 0.0273036 0.0249053 0.0653605 0.125617 -0.172295 0 0 -5.1365e-06 0.0005 5.23599e-07 
41 1 0.0181044 0.0243653 0.0138757 0.0213219 0.00540284 0.015938 0 0 -5.1365e-06 0.0005 5.23599e-07 
42 1 0.0215148 0.0164145 0.00809901 0.0215386 -0.049354 0.025702 -0.000519284 0.000610472 -0.000962709 0.0005 5.23599e-07 
43 1 0.019817 0.0152023 0.0211 -0.000666044 0.0207069 0.134538 0 0 -5.1365e-06 0.0005 5.23599e-07 
44 1 0.0213052 0.0157885 0.00869895 0.0103185 -0.0301793 0.00155573 -0.00457541 -0.0030714 0.00692557 0.0005 5.23599e-07 
45 1 0.0234992 0.0163348 0.0161019 -0.00788718 -0.00293445 -0.00283442 0 0 -5.1365e-06 0.0005 5.23599e-07 
46 1 0.0203521 0.0149032 0.0131403 0.00605191 0.0106728 0.0209121 -2.07486e-05 1.25979e-05 -1.7259e-05 0.0005 5.23599e-07 
47 1 0.0211264 0.0137696 0.0142136 -0.00511669 -0.00168375 -0.00230396 -2.63589e-06 -3.10347e-06 -6.28039e-06 0.0005 5.23599e-07 
48 1 0.0186573 0.02152 0.0152224 0.0217304 0.0357922 -0.00712153 0 0 -5.1365e-06 0.0005 5.23599e-07 
50 1 0.0196681 0.0212109 0.0158526 0.0272136 -0.0332878 0.0320445 1.22089e-05 1.30464e-05 -2.26759e-06 0.0005 5.23599e-07 
51 1 0.026987 0.0150087 0.0100792 0.000188739 -0.0192908 0.0496742 -1.0153e-08 1.87916e-07 1.4273e-07 0.0005 5.23599e-07 
52 1 0.0237263 0.0194007 0.0167652 -5.74571e-07 0.0599035 -0.00189625 0 0 -5.1365e-06 0.0005 5.23599e-07 
53 1 0.020833 0.014812 0.0107063 0.0302165 -0.00519986 0.034688 -0.00929312 -0.0129737 -0.00331485 0.0005 5.23599e-07 
54 1 0.0197048 0.0145978 0.0147328 0.0252391 -0.0540122 0.00436773 0 0 -5.1365e-06 0.0005 5.23599e-07 
55 1 0.0139803 0.0221563 0.0146935 0.00671057 0.0102514 -0.0132535 -2.71947e-07 2.00771e-06 -3.98093e-06 0.0005 5.23599e-07 
56 1 0.0193677 0.0233505 0.0123227 -0.0138008 0.00811257 -0.0468538 0.00120557 -0.00264017 0.00255976 0.0005 5.23599e-07 
59 1 0.0166628 0.0271847 0.0261048 -0.0810053 0.120684 0.00120543 0 0 -5.1365e-06 0.0005 5.23599e-07 
60 1 0.0250712 0.0165588 0.0162245 -0.0730573 -0.082315 -0.088555 0 0 -5.1365e-06 0.0005 5.23599e-07 
61 1 0.0157145 0.0150302 0.0134084 0.0539864 0.0049175 -0.0113144 0 0 -5.1365e-06 0.0005 5.23599e-07 
62 1 0.0219418 0.0180526 0.00732076 0.000280621 -0.0510318 0.0106234 -5.70834e-09 -2.73526e-08 2.36258e-07 0.0005 5.23599e-07 
63 1 0.0161876 0.0221934 0.0157236 0.00681838 0.000550399 -0.00978051 0 0 -5.1365e-06 0.0005 5.23599e-07 
65 1 0.0170364 0.0239857 0.0133364 0.0018427 0.00363196 -0.00391195 9.57047e-06 -3.27501e-05 2.67701e-05 0.0005 5.23599e-07 
66 1 0.0179336 0.0205918 0.0165866 -0.0325375 0.0281339 -0.0251582 0 0 -5.1365e-06 0.0005 5.23599e-07 
67 1 0.0218894 0.0143605 0.013952 -0.00447486 -0.00221903 0.00101889 4.472e-06 -4.53413e-07 4.23021e-06 0.0005 5.23599e-07 
68 1 0.0256545 0.0204761 0.0156667 -0.00157449 0.00228324 0.0008017 -2.91112e-05 7.68587e-05 -3.13129e-05 0.0005 5.23599e-07 
69 1 0.020907 0.0157736 0.0145158 0.0197722 0.00534293 0.0082855 0 0 -5.1365e-06 0.0005 5.23599e-07 
70 1 0.0189774 0.0232036 0.0161605 0.00142418 -0.0304863 0.22042 0 0 -5.1365e-06 0.0005 5.23599e-07 
71 1 0.017645 0.014113 0.0132336 0.00115995 -0.000286061 -1.97401e-05 -1.45579e-06 9.94655e-06 -6.42332e-07 0.0005 5.23599e-07 
72 1 0.0273706 0.015915 0.00855843 0.0022619 -0.0315207 0.0260703 3.27236e-07 9.00698e-07 1.88005e-07 0.0005 5.23599e-07 
73 1 0.0190458 0.02241 0.0154943 0.0218624 0.0373665 0.0892804 3.15196e-08 -3.70915e-06 -1.28651e-06 0.0005 5.23599e-07 
74 1 0.0262883 0.0153335 0.0136613 0.00070148 0.0198585 0.036415 -5.57783e-08 8.41413e-07 2.77492e-07 0.0005 5.23599e-07 
75 1 0.0222697 0.0225057 0.0154526 -0.0276826 -0.0542006 0.0293659 1.78825e-06 2.1835e-05 3.85167e-06 0.0005 5.23599e-07 
76 1 0.0245145 0.0219559 0.0163868 0.00343115 0.0026464 -0.000382131 -3.19064e-05 -1.27246e-05 -1.82125e-05 0.0005 5.23599e-07 
78 1 0.0199176 0.0160278 0.0147687 0.00854421 0.0176246 0.0086911 3.2346e-07 1.48909e-07 -4.92007e-06 0.0005 5.23599e-07 
79 1 0.0217525 0.0231729 0.0147825 0.0634692 -0.0401232 0.0580961 -0.000114563 0.000136195 -7.92084e-05 0.0005 5.23599e-07 
80 1 0.0206153 0.0165767 0.0152483 0.0304809 0.00482047 -0.0485687 0 0 -5.1365e-06 0.0005 5.23599e-07 
81 1 0.0157264 0.0234919 0.0143095 0.00454265 -0.00255509 -0.003394 0 0 -5.1365e-06 0.0005 5.23599e-07 
82 1 0.0301046 0.0342736 0.0435187 -5.77958e-53 1.5683e-53 5.53846e-13 -4.53196e-55 1.22975e-55 0 0.0005 5.23599e-07 
83 1 0.0175969 0.0230331 0.0162067 0.0058331 -0.0613529 0.0391027 0 0 -5.1365e-06 0.0005 5.23599e-07 
84 1 0.0236232 0.0228918 0.0158838 0.00667574 0.00299121 -0.00856808 4.65216e-05 -8.6594e-05 3.72756e-05 0.0005 5.23599e-07 
85 1 0.0175847 0.0233991 0.011327 -0.00530763 0.0107609 -0.0463499 6.20011e-05 0.000359817 0.00116068 0.0005 5.23599e-07 
87 1 0.0258703 0.0189512 0.0170652 -0.00569088 -0.00977211 0.0126539 0 0 -5.1365e-06 0.0005 5.23599e-07 
89 1 0.0167033 0.0232095 0.0147396 0.0069318 0.00411624 0.000706657 2.51278e-05 8.71162e-07 1.869e-05 0.0005 5.23599e-07 
90 1 0.0247548 0.0207312 0.0158876 0.00178152 0.0155964 0.00669709 -6.5585e-06 2.55119e-05 -4.9151e-05 0.0005 5.23599e-07 
91 1 0.0197046 0.0244474 0.0136603 0.00504206 0.010129 0.00702047 -0.000302721 0.000161241 -0.000210645 0.0005 5.23599e-07 
92 1 0.0223232 0.0236847 0.0140542 -0.00542411 0.00857624 0.0270863 -8.48139e-05 0.00012574 0.000320543 0.0005 5.23599e-07 
93 1 0.0225515 0.0236329 0.0151697 -0.000554898 0.00141711 -0.00262101 0.000139589 -0.000178901 0.000149591 0.0005 5.23599e-07 
97 1 0.0196033 0.0240136 0.0125313 -0.0178902 0.0299101 -0.0115816 0.00116608 0.00289888 -0.00126318 0.0005 5.23599e-07 
98 1 0.021201 0.022557 0.015398 0.0220089 -0.0682028 0.0410803 0 0 -5.1365e-06 0.0005 5.23599e-07 
99 1 0.0188571 0.0242431 0.0132221 -0.00739468 0.00114681 0.0266978 -0.000323521 0.000210659 -6.16846e-05 0.0005 5.23599e-07 
100 1 0.0158234 0.0228878 0.0151011 -0.00333616 -0.00357197 0.000637701 8.59577e-06 -3.46834e-06 -5.85389e-07 0.0005 5.23599e-07 
101 1 0.0231024 0.0219963 0.0163271 0.0273347 -0.0575175 -0.0286158 0 0 -5.1365e-06 0.0005 5.23599e-07 
103 1 0.0149062 0.0231601 0.0147781 -0.00115851 0.000522495 -0.00421105 0 0 -5.1365e-06 0.0005 5.23599e-07 
104 1 0.0256281 0.0175178 0.0167194 -0.0106263 -0.0636241 0.0359016 0 0 -5.1365e-06 0.0005 5.23599e-07 
105 1 0.0214633 0.0240727 0.0143031 -0.00515086 0.0173856 0.0200008 -0.000546333 0.000161224 -7.39449e-05 0.0005 5.23599e-07 
106 1 0.0222109 0.0149251 0.0131921 0.0226467 0.0061857 0.0174042 -7.23661e-06 -7.9081e-06 -1.06523e-06 0.0005 5.23599e-07 
107 1 0.0247027 0.0203443 0.0169549 -0.0616429 0.0135648 0.0378674 0 0 -5.1365e-06 0.0005 5.23599e-07 
108 1 0.0214061 0.0239622 0.0133088 0.066661 0.0938947 -0.0483852 0.00560736 0.00191688 -5.75232e-05 0.0005 5.23599e-07 
109 1 0.0220305 0.0151478 0.0147879 -0.0169237 0.00399998 -0.033225 0 0 -5.1365e-06 0.0005 5.23599e-07 
110 1 0.0249331 0.0198844 0.0159741 0.00443278 0.0185187 -0.00375868 3.01829e-05 -1.28992e-05 -1.92955e-06 0.0005 5.23599e-07 
112 1 0.0206547 0.0244382 0.0138958 -0.0275453 0.0271846 -0.0114881 -0.000627225 0.000847638 0.000255882 0.0005 5.23599e-07 
114 1 0.0200473 0.0220702 0.0155102 0.0111389 -0.0101519 0.0424067 1.52619e-07 -1.50383e-06 -4.52364e-06 0.0005 5.23599e-07 
115 1 0.0197042 0.0234137 0.0133186 -0.0173026 -0.0175913 -0.054932 -0.00100748 0.000292001 -0.0018348 0.0005 5.23599e-07 
116 1 0.0216873 0.0232883 0.0159065 -0.00839681 -0.00486045 0.00374864 0 0 -5.1365e-06 0.0005 5.23599e-07 
118 1 0.0199939 0.0202642 0.0157731 0.0219304 -0.00304329 0.00307777 0 0 -5.1365e-06 0.0005 5.23599e-07 
119 1 0.0182104 0.0230953 0.0139893 -0.00501026 0.0412964 -0.0266914 -8.33791e-05 -7.11283e-05 -5.37077e-05 0.0005 5.23599e-07 
121 1 0.0214231 0.0147414 0.0125973 0.0208296 -0.000463277 0.000707938 0 0 -5.1365e-06 0.0005 5.23599e-07 
122 1 0.0235095 0.0150431 0.0148783 -0.00294307 -0.00145948 0.00118003 0 0 -5.1365e-06 0.0005 5.23599e-07 
124 1 0.026616 0.0147615 0.0116527 0.000788945 0.0022421 0.052394 2.1888e-05 1.00172e-06 6.40366e-05 0.0005 5.23599e-07 
125 1 0.0177839 0.023438 0.0121615 0.0266587 -0.00977695 -0.0605087 -0.000386326 0.00343838 -0.000135793 0.0005 5.23599e-07 
126 1 0.0200105 0.0237673 0.0144353 -0.0118413 0.0407394 0.0231304 0 0 -5.1365e-06 0.0005 5.23599e-07 
127 1 0.0205684 0.0237665 0.0135827 -0.036386 0.0302686 -0.0231395 0.00133867 0.000200781 0.00103529 0.0005 5.23599e-07 
128 1 0.018994 0.0238957 0.0141697 -0.035764 -0.0147653 0.0152555 0 0 -5.1365e-06 0.0005 5.23599e-07 
129 1 0.0171278 0.0153054 0.0152635 -0.0851906 -0.0366901 -0.0484864 0 0 -5.1365e-06 0.0005 5.23599e-07 
131 1 0.025699 0.0195603 0.0159069 -0.000503633 -0.00108033 -0.000724104 1.52912e-05 -1.85636e-05 -2.29003e-05 0.0005 5.23599e-07 
133 1 0.0197456 0.0189785 0.0163094 0.0533903 -0.0691194 -0.0932916 0 0 -5.1365e-06 0.0005 5.23599e-07 
134 1 0.0185927 0.0233608 0.0124555 0.00896168 -0.00541704 -0.0333023 0.00162126 0.0007409 -0.0024708 0.0005 5.23599e-07 
136 1 0.0235514 0.0233908 0.0110234 0.00111354 -0.00138574 -0.0222961 6.23885e-07 -1.89704e-06 -1.44884e-06 0.0005 5.23599e-07 
138 1 0.0170699 0.0225733 0.0154201 0.0122091 0.0108544 0.0110742 0 0 -5.1365e-06 0.0005 5.23599e-07 
142 1 0.0219078 0.0150021 0.0100052 0.219494 -0.305062 -0.0117593 0.0304161 0.135081 0.037164 0.0005 5.23599e-07 
143 1 0.0206169 0.0212609 0.0153565 0.0159793 -0.010019 0.00155822 0 0 -5.1365e-06 0.0005 5.23599e-07 
144 1 0.0201584 0.0227796 0.013948 -0.000291871 0.0138 0.00328244 0 0 -5.1365e-06 0.0005 5.23599e-07 
145 1 0.015085 0.0223779 0.0155423 0.00213579 -0.00290658 0.00215815 7.1228e-06 -3.21818e-06 -9.37125e-06 0.0005 5.23599e-07 
146 1 0.0166883 0.0142193 0.0135644 -0.00102937 -0.00189324 0.00686078 -1.85487e-07 -1.04219e-06 6.80077e-06 0.0005 5.23599e-07 
148 1 0.02078 0.0236993 0.0159961 -0.001351 0.000828705 0.00539319 9.34565e-06 2.44811e-06 9.22621e-07 0.0005 5.23599e-07 
149 1 0.0194053 0.0222353 0.016433 -0.0357236 -0.00323237 0.110393 0 0 -5.1365e-06 0.0005 5.23599e-07 
150 1 0.0165939 0.021644 0.0167972 -0.0260245 0.0328979 -0.00615604 0 0 -5.1365e-06 0.0005 5.23599e-07 
151 1 0.0241703 0.0155401 0.0154408 -0.00447141 0.00385355 -0.000305543 0 0 -5.1365e-06 0.0005 5.23599e-07 
152 1 0.0188635 0.0206432 0.0156812 0.00957003 -0.0112586 -0.00520169 -1.25088e-05 -1.15807e-05 -8.74811e-06 0.0005 5.23599e-07 
153 1 0.0241208 0.0225942 0.014819 0.00345415 0.00500413 -0.000675697 -0.000278074 0.000525374 1.67874e-05 0.0005 5.23599e-07 
154 1 0.0175172 0.0234627 0.0152759 -0.0160342 0.0155768 0.0553827 0 0 -5.1365e-06 0.0005 5.23599e-07 
155 1 0.0217582 0.0153608 0.00923263 0.0815081 -0.0167427 0.118728 0.00929863 0.0992727 0.00479102 0.0005 5.23599e-07 
157 1 0.0190813 0.0196742 0.0159164 0.0284656 -0.0435916 0.00704319 0 0 -5.1365e-06 0.0005 5.23599e-07 
158 1 0.0227856 0.0155304 0.0153952 -0.0147173 -0.00669754 -0.00427144 3.22635e-07 -1.38581e-06 3.31408e-07 0.0005 5.23599e-07 
159 1 0.0189396 0.024171 0.016529 -0.0182536 0.0283049 0.108906 0 0 -5.1365e-06 0.0005 5.23599e-07 
160 1 0.0181747 0.0238215 0.0159395 -0.0309005 0.00869099 0.0717167 0 0 -5.1365e-06 0.0005 5.23599e-07 
161 1 0.0195871 0.0173492 0.0156211 0.00788366 0.0137008 0.00829099 -3.97128e-07 2.03367e-07 1.04693e-07 0.0005 5.23599e-07 
162 1 0.0215871 0.0185342 0.0191286 -0.0551073 -0.0129795 -0.00822368 0 0 -5.1365e-06 0.0005 5.23599e-07 
163 1 0.0231014 0.0233166 0.0145127 0.000297621 -0.000106371 -0.000747593 -1.67021e-05 -3.93922e-05 2.43732e-05 0.0005 5.23599e-07 
164 1 0.0212564 0.0150943 0.0135211 0.000221162 0.0148753 0.00875394 7.07599e-06 -6.71039e-05 3.62733e-05 0.0005 5.23599e-07 
165 1 0.0185204 0.0223001 0.0145441 0.00403752 0.0291191 -0.0103406 0 0 -5.1365e-06 0.0005 5.23599e-07 
166 1 0.0207427 0.0188755 0.0159483 2.99739e-07 0.0497304 0.00162088 -7.33969e-10 -1.22876e-07 -2.98965e-07 0.0005 5.23599e-07 
167 1 0.0250187 0.0213933 0.0157403 0.00124991 0.00637136 0.00172593 -1.96883e-05 6.62175e-05 -5.67929e-06 0.0005 5.23599e-07 
170 1 0.0238237 0.0229156 0.00717839 0.00952297 -0.160069 0.245883 0 0 -5.1365e-06 0.0005 5.23599e-07 
172 1 0.0223868 0.0199581 0.0073051 0.00309116 -0.0469756 -0.0137295 -1.41171e-06 4.98141e-05 7.81663e-06 0.0005 5.23599e-07 
173 1 0.0183852 0.0223986 0.0163558 -0.141108 -0.139805 0.0971874 0 0 -5.1365e-06 0.0005 5.23599e-07 
174 1 0.025936 0.0200165 0.0170452 -0.000929469 -0.00482721 -0.0513115 0 0 -5.1365e-06 0.0005 5.23599e-07 
175 1 0.0194035 0.0234604 0.0114834 -0.0482214 -0.00702098 0.00821276 -0.000949923 -0.00548096 0.00528583 0.0005 5.23599e-07 
177 1 0.0194288 0.0232689 0.0151545 0.0611537 0.0489602 0.174703 -3.15196e-08 3.70915e-06 -8.9865e-06 0.0005 5.23599e-07 
178 1 0.0174311 0.0236866 0.0142051 -0.00541867 0.00746557 0.00252836 6.09947e-08 -1.72848e-08 -6.15535e-06 0.0005 5.23599e-07 
179 1 0.0166789 0.0233456 0.0159221 0.00227105 0.0039257 0.024477 0 0 -5.1365e-06 0.0005 5.23599e-07 
180 1 0.0221474 0.023482 0.0168168 0.0100191 -3.86913e-05 0.000193018 0 0 -5.1365e-06 0.0005 5.23599e-07 
181 1 0.0131504 0.0169727 0.0196632 -0.25001 0.100047 0.0735424 0 0 -5.1365e-06 0.0005 5.23599e-07 
182 1 0.0179999 0.0231891 0.0130326 0.0107229 0.000749417 -0.0553919 0.000748615 0.000907429 -0.000402444 0.0005 5.23599e-07 
183 1 0.0142012 0.0228242 0.0154042 0.00377375 -0.00035741 -0.00121591 7.90391e-06 3.19978e-06 -6.23681e-06 0.0005 5.23599e-07 
184 1 0.0174585 0.0145037 0.014135 0.00284407 -0.00216477 0.0024227 2.39923e-06 -4.35074e-07 -6.29141e-07 0.0005 5.23599e-07 
185 1 0.0184612 0.0234432 0.0115073 -0.0154778 0.0505494 -0.065932 -0.00102763 -0.0027501 0.00334982 0.0005 5.23599e-07 
186 1 0.0184624 0.0236352 0.0149865 -0.0102579 0.0148885 0.062378 0 0 -5.1365e-06 0.0005 5.23599e-07 
187 1 0.019828 0.0239277 0.0157949 -0.0166807 -0.0151808 -0.0180096 -9.34565e-06 -2.44811e-06 -1.11956e-05 0.0005 5.23599e-07 
188 1 0.0172057 0.0217759 0.0160122 0.0168822 -0.00431812 0.00164566 -8.57585e-06 4.96862e-05 2.46845e-05 0.0005 5.23599e-07 
189 1 0.0195536 0.0222607 0.0146027 -0.00836826 -0.0188761 0.0498248 0 0 -5.1365e-06 0.0005 5.23599e-07 
190 1 0.027678 0.0211838 0.0309266 0.544744 0.0476032 -0.0720497 0 0 -5.1365e-06 0.0005 5.23599e-07 
