ITEM: TIMESTEP
200000
ITEM: NUMBER OF ATOMS
159
ITEM: BOX BOUNDS ff ff ff
-0.02 0.43
-0.02 0.06
-0.02 0.07
ITEM: ATOMS id type x y z vx vy vz fx fy fz radius mass 
1 1 0.0203646 0.0225923 0.015409 -0.0187109 -0.0131777 0.0106266 0 0 -5.1365e-06 0.0005 5.23599e-07 
2 1 0.0217388 0.022934 0.0135916 0.00689556 0.00761241 -0.0204535 -6.86709e-06 1.66038e-05 1.20772e-05 0.0005 5.23599e-07 
3 1 0.0193623 0.016375 0.00811004 0.000170884 -0.0332214 0.0216734 1.52144e-07 -1.62361e-05 1.59696e-05 0.0005 5.23599e-07 
4 1 0.0193147 0.0146256 0.0119319 0.000410931 -0.00354074 0.00917051 2.815e-06 1.40516e-05 -1.85552e-05 0.0005 5.23599e-07 
5 1 0.0186424 0.0141306 0.0143311 -0.0381769 -0.0250953 -0.0423922 0 0 -5.1365e-06 0.0005 5.23599e-07 
6 1 0.0171134 0.0217706 0.0150889 0.00679734 0.00237769 0.0072695 5.6802e-06 -7.53773e-06 -1.33153e-07 0.0005 5.23599e-07 
7 1 0.0203982 0.0216322 0.00810414 0.00132544 -0.0348532 -0.0249001 4.78587e-06 -6.29678e-05 -4.78359e-05 0.0005 5.23599e-07 
8 1 0.0227908 0.0231076 0.0156251 0.0169371 -0.00457976 0.0179075 0 0 -5.1365e-06 0.0005 5.23599e-07 
9 1 0.0200295 0.0148695 0.0146854 -0.0431788 -0.0151753 -0.00482822 0 0 -5.1365e-06 0.0005 5.23599e-07 
10 1 0.0226869 0.0145916 0.0143367 -0.00818158 -0.00569422 0.00173477 -2.91508e-07 -3.5794e-07 3.1449e-07 0.0005 5.23599e-07 
11 1 0.0196706 0.0204258 0.0170373 -0.0200148 -0.00251761 0.0250376 0 0 -5.1365e-06 0.0005 5.23599e-07 
12 1 0.0205385 0.0191292 0.00713239 0.00509321 0.00393664 -0.00273123 7.59333e-07 2.23081e-06 1.08379e-06 0.0005 5.23599e-07 
13 1 0.0231913 0.0177763 0.0157568 0.00715389 0.0423473 0.0147722 0 0 -5.1365e-06 0.0005 5.23599e-07 
14 1 0.0161341 0.0238432 0.0144301 0.00423228 -0.000167087 -0.00191434 1.1017e-05 4.93754e-06 -6.5159e-06 0.0005 5.23599e-07 
15 1 0.0190557 0.0211136 0.0163537 0.0335656 0.00944215 -0.0303778 0 0 -5.1365e-06 0.0005 5.23599e-07 
16 1 0.0204223 0.024134 0.0128915 0.000890976 -0.000577023 -0.00366557 -8.15793e-06 5.7642e-07 -5.96132e-06 0.0005 5.23599e-07 
17 1 0.0181716 0.0150236 0.0149421 -0.0107125 -0.0249756 -0.0348717 0 0 -5.1365e-06 0.0005 5.23599e-07 
18 1 0.0171527 0.0179718 0.0158717 0.0014818 0.0352661 0.0093005 0 0 -5.1365e-06 0.0005 5.23599e-07 
19 1 0.0227036 0.0199861 0.0158679 -0.0180505 -0.00947893 0.00859077 -0.000258334 0.000611987 -0.000108907 0.0005 5.23599e-07 
21 1 0.0204574 0.0199073 0.016684 0.008346 0.0386102 -0.00419314 0 0 -5.1365e-06 0.0005 5.23599e-07 
22 1 0.0217246 0.0225754 0.0156437 0.021161 -0.00241446 0.0293213 0 0 -5.1365e-06 0.0005 5.23599e-07 
23 1 0.0243465 0.0197785 0.00583983 -3.81669e-16 -6.19326e-17 6.30479e-15 -3.21343e-20 3.80503e-21 -1.69407e-21 0.0005 5.23599e-07 
24 1 0.0250349 0.0168324 0.0157918 0.00608663 0.0402523 0.0168446 0 0 -5.1365e-06 0.0005 5.23599e-07 
25 1 0.0311966 0.0191049 0.00570754 0.000170226 -2.07467e-06 -0.00667797 0 0 -5.1365e-06 0.0005 5.23599e-07 
26 1 0.027242 0.0234038 0.0113868 0.000377456 0.00064805 -0.0524357 -8.5436e-09 -2.22201e-07 -9.72773e-08 0.0005 5.23599e-07 
27 1 0.0198123 0.0194069 0.00722658 0.000127598 -0.0381628 -0.00439476 2.91904e-07 -2.4227e-06 3.49462e-07 0.0005 5.23599e-07 
29 1 0.0175855 0.0240316 0.0130474 -0.00400871 -0.00137863 0.00037185 -2.98666e-05 3.33759e-05 3.00777e-05 0.0005 5.23599e-07 
31 1 0.0219059 0.0149573 0.0148426 -0.0267165 -0.0152638 -0.0199546 -1.38161e-06 2.26087e-07 -2.5296e-06 0.0005 5.23599e-07 
33 1 0.023842 0.0213648 0.0162708 0.000451727 -0.0200681 0.0821056 0 0 -5.1365e-06 0.0005 5.23599e-07 
34 1 0.0260189 0.0188863 0.0172295 -0.109567 0.030901 -0.00822455 0 0 -5.1365e-06 0.0005 5.23599e-07 
36 1 0.0244478 0.0148506 0.0106487 0.000296027 -0.0103613 0.0503187 -1.74877e-08 1.82374e-07 1.45142e-07 0.0005 5.23599e-07 
37 1 0.0209294 0.0231767 0.014817 -0.0191865 0.00776775 0.00781066 0 0 -5.1365e-06 0.0005 5.23599e-07 
39 1 0.0247621 0.0153063 0.00940632 -0.029222 -0.175125 -0.0662682 0.0131212 -0.0965329 -0.0312311 0.0005 5.23599e-07 
40 1 0.0217698 0.0237659 0.0171862 0.00279537 -0.00926657 0.0464433 0 0 -5.1365e-06 0.0005 5.23599e-07 
41 1 0.0176774 0.0243118 0.0140076 0.0036052 0.000157744 -0.000191824 1.05508e-05 -3.45037e-06 4.37886e-05 0.0005 5.23599e-07 
42 1 0.0208038 0.022871 0.00951608 0.0157986 0.0952867 -0.087745 0.0368823 -0.0399272 0.0337168 0.0005 5.23599e-07 
43 1 0.0239203 0.0199204 0.0166112 -0.0208831 0.0404664 -0.0239631 -9.47497e-07 1.04227e-06 5.65358e-06 0.0005 5.23599e-07 
44 1 0.0205616 0.0223674 0.00879794 0.173079 -0.39433 0.298068 0.101697 -0.0871038 0.0127826 0.0005 5.23599e-07 
45 1 0.0230601 0.0217694 0.0150297 0.0628349 -0.0565129 0.0257586 0 0 -5.1365e-06 0.0005 5.23599e-07 
46 1 0.0194726 0.0177348 0.00741293 0.00083421 -0.0468912 0.0144948 1.2303e-06 -3.01067e-06 -1.60874e-07 0.0005 5.23599e-07 
47 1 0.020168 0.0142937 0.0138749 -2.40772e-05 -0.0666489 0.0288593 0 0 -5.1365e-06 0.0005 5.23599e-07 
48 1 0.0187839 0.0165116 0.0165469 0.119218 0.0781968 -0.0185783 0 0 -5.1365e-06 0.0005 5.23599e-07 
50 1 0.0186222 0.0194021 0.0160753 -0.0018382 0.0554631 -0.0184475 0 0 -5.1365e-06 0.0005 5.23599e-07 
51 1 0.0265367 0.0220853 0.0085152 0.00273848 -0.0322819 -0.0309075 4.77366e-06 7.44874e-06 5.09565e-06 0.0005 5.23599e-07 
52 1 0.0245794 0.0206875 0.0166585 -0.00235882 -0.0590765 0.0523761 0 0 -5.1365e-06 0.0005 5.23599e-07 
53 1 0.0201106 0.0205242 0.0074049 -0.0139828 2.99513 3.82689 0.135499 -0.10587 0.958379 0.0005 5.23599e-07 
54 1 0.0192809 0.0138811 0.0135589 -0.0308467 -0.0363893 -0.0575086 0 0 -5.1365e-06 0.0005 5.23599e-07 
55 1 0.013445 0.0216139 0.0160798 0.00200409 0.00254306 -0.000920691 7.67324e-07 2.99741e-06 -1.67835e-06 0.0005 5.23599e-07 
56 1 0.0178768 0.0225582 0.0143065 0.0110168 -0.000945996 0.00647017 -5.6441e-06 -6.81619e-06 1.68788e-05 0.0005 5.23599e-07 
59 1 0.0206041 0.0238944 0.0162078 0.0109719 0.0232287 0.0498277 0 0 -5.1365e-06 0.0005 5.23599e-07 
60 1 0.0242738 0.0162767 0.0149708 0.0140719 0.011757 0.00812438 0 0 -5.1365e-06 0.0005 5.23599e-07 
61 1 0.0182882 0.0168096 0.0156206 0.0760248 0.03475 -0.148379 0 0 -5.1365e-06 0.0005 5.23599e-07 
62 1 0.0213413 0.0234734 0.012159 0.00346836 -0.00120382 -0.00821311 -1.29084e-05 -1.52193e-05 -2.71981e-05 0.0005 5.23599e-07 
63 1 0.0154897 0.0216045 0.0163523 -0.00757758 0.0655776 -0.0229716 -1.42751e-05 -1.94438e-05 1.70294e-05 0.0005 5.23599e-07 
65 1 0.0167953 0.0239826 0.0136929 0.00430607 0.000934426 8.72258e-05 7.5699e-06 2.46271e-05 2.33712e-05 0.0005 5.23599e-07 
66 1 0.0194182 0.0228392 0.0151343 -0.0247025 0.0166965 -0.00754812 -6.18861e-05 -0.000111908 -2.3397e-05 0.0005 5.23599e-07 
67 1 0.0218125 0.0143521 0.0138806 -0.0089854 0.00171291 -0.0148971 -6.4667e-07 1.07776e-06 -3.62821e-06 0.0005 5.23599e-07 
68 1 0.0248613 0.0194392 0.0166282 -0.0212072 0.0307108 -0.0250533 0 0 -5.1365e-06 0.0005 5.23599e-07 
69 1 0.0193472 0.0149664 0.013827 -0.00811074 0.0227257 -0.0275036 0 0 -5.1365e-06 0.0005 5.23599e-07 
70 1 0.0183127 0.0227931 0.0151791 0.0130525 -0.00187244 -3.55385e-05 0 0 -5.1365e-06 0.0005 5.23599e-07 
71 1 0.0173885 0.0142049 0.0144488 0.00985691 -0.0114531 0.00399689 1.75119e-06 -6.05737e-07 1.10906e-06 0.0005 5.23599e-07 
72 1 0.0267043 0.0227477 0.00921986 0.00288875 -0.0176539 -0.0250692 9.4681e-06 -3.39387e-05 -4.19919e-05 0.0005 5.23599e-07 
73 1 0.0173344 0.0209127 0.0155542 0.00960856 0.000523221 0.00174997 6.80406e-07 7.83426e-08 -5.42679e-06 0.0005 5.23599e-07 
74 1 0.0257509 0.0190639 0.00718743 0.00177465 -0.0236951 -0.000907029 4.29711e-06 1.66452e-05 1.89521e-06 0.0005 5.23599e-07 
75 1 0.0222803 0.0216171 0.0156559 0.0123377 -0.0462755 0.0145004 -1.15933e-06 1.11609e-05 1.25386e-05 0.0005 5.23599e-07 
76 1 0.0240809 0.0216927 0.0150878 -0.0184151 -0.00687036 -0.0019856 0 0 -5.1365e-06 0.0005 5.23599e-07 
78 1 0.0186811 0.0142272 0.0125948 -0.0102854 0.00722164 -0.0101161 -2.81812e-06 -1.32275e-05 8.56886e-06 0.0005 5.23599e-07 
79 1 0.0220261 0.0232773 0.0149782 -0.00455527 -0.0355904 -0.0106481 0 0 -5.1365e-06 0.0005 5.23599e-07 
80 1 0.0186813 0.0155715 0.0142698 0.0122214 0.0174134 0.0216022 -7.08235e-06 -1.35835e-05 2.37534e-05 0.0005 5.23599e-07 
81 1 0.0152878 0.0233484 0.0146255 0.000426112 0.000778148 -0.00345552 -7.64649e-07 7.34084e-07 -4.03634e-07 0.0005 5.23599e-07 
82 1 0.0301046 0.0342736 0.0435187 2.06356e-40 -5.59951e-41 5.53846e-13 -9.36064e-43 2.54002e-43 0 0.0005 5.23599e-07 
83 1 0.0173938 0.0220798 0.0159972 0.00773038 0.00737036 0.00526568 -8.06929e-06 -6.23567e-06 -2.53344e-06 0.0005 5.23599e-07 
84 1 0.023751 0.0228775 0.0153336 -5.00671e-06 0.000774066 0.00233778 0 0 -5.1365e-06 0.0005 5.23599e-07 
85 1 0.0157326 0.0230637 0.0134094 0.0107293 0.00298918 -0.0102717 -1.40435e-05 1.63186e-05 -3.10431e-06 0.0005 5.23599e-07 
87 1 0.0255739 0.0207871 0.0164659 0.00742656 -0.0161426 0.00307186 0 0 -5.1365e-06 0.0005 5.23599e-07 
89 1 0.0162773 0.0230585 0.0150351 0.0018615 -0.00152749 -0.00670384 0 0 -5.1365e-06 0.0005 5.23599e-07 
90 1 0.0236134 0.0157188 0.0144411 0.00703019 0.0156739 0.0164327 6.23335e-08 -2.95903e-07 6.12829e-07 0.0005 5.23599e-07 
91 1 0.019609 0.0245289 0.0136522 0.000727505 -3.44965e-05 -0.000280319 1.04964e-05 -1.90053e-07 -1.26751e-06 0.0005 5.23599e-07 
92 1 0.0222846 0.0236036 0.0137209 0.000860956 -0.000319541 -0.00894341 -1.96247e-06 -5.08621e-06 -7.73546e-06 0.0005 5.23599e-07 
93 1 0.0229771 0.0234761 0.01469 -0.00780172 -0.00599681 0.00207543 0 0 -5.1365e-06 0.0005 5.23599e-07 
94 1 0.0232327 0.0209208 0.015581 0.0507053 -0.0585699 0.0258617 0 0 -5.1365e-06 0.0005 5.23599e-07 
96 1 0.0108423 0.0191384 0.0474596 0.231035 0.0316938 0.766775 0 0 -5.1365e-06 0.0005 5.23599e-07 
97 1 0.0194968 0.0241153 0.0126036 -0.00157091 -0.00105598 0.00146572 -8.30225e-06 -2.03493e-06 -5.59498e-06 0.0005 5.23599e-07 
98 1 0.0193646 0.0221233 0.0158532 0.0206179 0.00145428 -0.0167392 -3.1724e-07 -2.30709e-07 -4.83251e-06 0.0005 5.23599e-07 
99 1 0.0185708 0.0240923 0.0129544 -0.00258522 -0.000979514 0.00264978 -3.20682e-05 -4.24984e-05 -7.025e-05 0.0005 5.23599e-07 
100 1 0.0153634 0.0226755 0.0153613 -0.000925131 -0.00532145 -0.00488101 1.19153e-06 1.1881e-06 -6.38608e-06 0.0005 5.23599e-07 
101 1 0.0225622 0.0217993 0.0165975 -5.84543e-05 -0.00663706 0.039354 1.15933e-06 -1.11609e-05 -2.28116e-05 0.0005 5.23599e-07 
103 1 0.0144471 0.0229792 0.0150209 0.00122049 0.00280064 0.00112279 1.07064e-06 -7.04281e-06 1.04594e-05 0.0005 5.23599e-07 
104 1 0.0257972 0.0198258 0.0166709 -0.00249653 -0.01344 0.00481201 0 0 -5.1365e-06 0.0005 5.23599e-07 
105 1 0.0214456 0.0239333 0.0143744 0.0115184 0.031908 0.0211659 0 0 -5.1365e-06 0.0005 5.23599e-07 
106 1 0.0210029 0.0141254 0.0133298 -0.00278366 -0.00141206 -0.00412729 -5.53149e-06 6.05932e-06 3.77187e-06 0.0005 5.23599e-07 
107 1 0.0244125 0.0222977 0.015854 0.00164604 -0.00125708 0.0224807 0 0 -5.1365e-06 0.0005 5.23599e-07 
108 1 0.0214384 0.0239413 0.013326 -0.00328766 0.000120995 -0.00216411 -1.00669e-05 -9.0366e-06 1.62313e-05 0.0005 5.23599e-07 
109 1 0.0228695 0.0155844 0.0154925 -0.00149244 -0.0151569 -0.0131335 -1.32415e-08 -1.2452e-06 -1.29042e-07 0.0005 5.23599e-07 
110 1 0.0245147 0.0147599 0.0118662 0.000143644 -0.000872909 0.0340718 5.3928e-07 -1.1832e-05 -7.18175e-05 0.0005 5.23599e-07 
112 1 0.0206466 0.0244385 0.0138806 -0.000506467 7.96933e-05 -0.00233855 -2.67918e-05 4.16333e-07 1.08982e-05 0.0005 5.23599e-07 
113 1 0.0233666 0.0166079 0.0152317 0.0102135 0.00940488 0.00323063 0 0 -5.1365e-06 0.0005 5.23599e-07 
114 1 0.0201024 0.0214056 0.0163926 -0.0272395 -0.042718 0.0185828 0 0 -5.1365e-06 0.0005 5.23599e-07 
115 1 0.0196243 0.0238585 0.0133539 0.0036579 -0.00020401 -0.00122662 1.53013e-05 -5.1292e-07 -6.42811e-06 0.0005 5.23599e-07 
116 1 0.0196976 0.0234118 0.0178182 0.00676245 -0.0148479 0.0706771 0 0 -5.1365e-06 0.0005 5.23599e-07 
118 1 0.0209928 0.0153162 0.0151992 -0.0175015 -0.0237933 -0.00418852 0 0 -5.1365e-06 0.0005 5.23599e-07 
119 1 0.0163568 0.021102 0.0154624 0.0117107 0.0111959 -0.00289938 -6.80406e-07 -7.83426e-08 -4.84621e-06 0.0005 5.23599e-07 
121 1 0.0196101 0.0146027 0.0128881 0.00432187 0.0120266 -0.000370268 0 0 -5.1365e-06 0.0005 5.23599e-07 
122 1 0.0236185 0.0150002 0.0151364 -0.00264345 -0.00183032 -0.00194624 -3.83322e-07 -2.95102e-07 -5.34131e-07 0.0005 5.23599e-07 
124 1 0.0261007 0.0204276 0.00743894 -0.000366118 -0.0485296 -0.017258 4.86492e-08 -1.28203e-07 1.8818e-07 0.0005 5.23599e-07 
125 1 0.0159323 0.0225621 0.0142373 0.0100534 0.00737119 -0.00578397 1.08148e-05 1.81866e-05 2.24971e-05 0.0005 5.23599e-07 
126 1 0.0199844 0.0236617 0.0151149 -0.0105756 0.000210465 -0.0112464 6.18861e-05 0.000111908 1.3124e-05 0.0005 5.23599e-07 
127 1 0.0205562 0.0237426 0.0136064 0.00110021 0.0011644 -0.0102732 -1.67845e-05 -5.75535e-07 3.33373e-05 0.0005 5.23599e-07 
128 1 0.0186725 0.024323 0.0139297 0.00181105 0.00037518 -0.00168861 1.03667e-06 -1.17831e-05 3.887e-06 0.0005 5.23599e-07 
129 1 0.018696 0.0204379 0.0173784 -0.0279046 0.0516591 -0.0848828 0 0 -5.1365e-06 0.0005 5.23599e-07 
131 1 0.0247437 0.0183531 0.0159003 0.00457902 0.0414756 0.0124523 0 0 -5.1365e-06 0.0005 5.23599e-07 
133 1 0.0187826 0.0221176 0.0169199 0.0255196 -0.000347152 -0.0120025 0 0 -5.1365e-06 0.0005 5.23599e-07 
134 1 0.0169009 0.0224401 0.0143791 0.00942094 0.0016674 0.0025214 -1.33955e-05 3.7002e-05 -3.19306e-05 0.0005 5.23599e-07 
136 1 0.0226773 0.0226907 0.0140758 0.00323376 -0.0171211 0.00755401 0 0 -5.1365e-06 0.0005 5.23599e-07 
138 1 0.0163432 0.0219828 0.0159952 0.0162986 0.0277181 -0.00235239 1.42751e-05 1.94438e-05 -2.73025e-05 0.0005 5.23599e-07 
142 1 0.0210541 0.020544 0.00751807 0.296861 -2.59105 6.44301 -0.0218485 -0.154098 -0.507224 0.0005 5.23599e-07 
143 1 0.0233999 0.0175216 0.0178435 -0.103675 -0.00491544 0.0820397 0 0 -5.1365e-06 0.0005 5.23599e-07 
144 1 0.0181092 0.0216963 0.0150888 0.00723808 0.0170838 -0.00986708 1.81766e-06 1.94535e-07 1.99585e-06 0.0005 5.23599e-07 
145 1 0.0144158 0.0217555 0.0164859 0.0128774 0.0923258 0.00157961 0 0 -5.1365e-06 0.0005 5.23599e-07 
146 1 0.0170142 0.0141568 0.0135229 0.00138304 -0.00314207 0.00706664 -8.93992e-07 -4.36375e-07 -2.95168e-06 0.0005 5.23599e-07 
148 1 0.0189443 0.0229863 0.0161953 0.0205161 -0.0072924 0.00368475 5.86081e-06 4.77488e-06 -5.50703e-06 0.0005 5.23599e-07 
149 1 0.0209787 0.0218737 0.0159576 0.00694786 -0.00399838 0.0229831 -3.84267e-07 8.7103e-06 -9.81882e-07 0.0005 5.23599e-07 
150 1 0.0183305 0.0208272 0.0155931 0.0104741 0.00423802 -0.00775345 0 0 -5.1365e-06 0.0005 5.23599e-07 
151 1 0.0238958 0.0171155 0.0165596 0.00268845 -0.0608662 -0.078896 0 0 -5.1365e-06 0.0005 5.23599e-07 
152 1 0.0175217 0.016036 0.0147882 0.00409486 0.0282713 0.0257218 0 0 -5.1365e-06 0.0005 5.23599e-07 
153 1 0.0235842 0.0224165 0.0144263 0.0152931 -0.0150029 0.00542745 0 0 -5.1365e-06 0.0005 5.23599e-07 
154 1 0.0172993 0.022905 0.0151695 0.0101382 0.00155983 0.00691615 -3.39105e-07 3.28548e-06 -2.23602e-06 0.0005 5.23599e-07 
155 1 0.0212987 0.0221862 0.00867563 0.256498 0.070517 -0.424842 -0.00445417 0.1273 -0.127584 0.0005 5.23599e-07 
157 1 0.0177412 0.0153603 0.0139912 0.00418202 0.0254867 0.0306975 0 0 -5.1365e-06 0.0005 5.23599e-07 
158 1 0.0229345 0.0190226 0.0159684 -0.011384 -0.0212308 0.0104731 0.000258334 -0.000611987 9.8634e-05 0.0005 5.23599e-07 
159 1 0.0179506 0.0228793 0.0162206 0.0165613 0.00488827 -0.0100417 9.83375e-06 1.32387e-05 8.52908e-06 0.0005 5.23599e-07 
160 1 0.0178514 0.023637 0.0155741 0.0103187 -0.00954758 -0.00490161 0 0 -5.1365e-06 0.0005 5.23599e-07 
161 1 0.0180968 0.0143651 0.0134069 -0.0550183 0.00686097 -0.0401591 0 0 -5.1365e-06 0.0005 5.23599e-07 
162 1 0.0221013 0.0231822 0.0163481 0.0217015 0.0149924 0.0317319 0 0 -5.1365e-06 0.0005 5.23599e-07 
163 1 0.0221258 0.022103 0.014791 0.0377608 -0.0341766 -0.00522118 0 0 -5.1365e-06 0.0005 5.23599e-07 
164 1 0.0209838 0.0146622 0.0143466 -0.0303975 -0.0071633 -0.046995 -5.5512e-08 8.80601e-08 -5.08426e-06 0.0005 5.23599e-07 
165 1 0.0173084 0.0169169 0.0154098 0.0115033 0.0376659 0.0133625 0 0 -5.1365e-06 0.0005 5.23599e-07 
166 1 0.0193146 0.0160938 0.0148445 0.0408415 0.000924008 0.00393449 0 0 -5.1365e-06 0.0005 5.23599e-07 
167 1 0.0242038 0.0203418 0.01575 -0.000187243 0.0468915 -0.0140504 -6.36205e-07 -3.58879e-07 1.29299e-06 0.0005 5.23599e-07 
168 1 0.0239364 0.0189457 0.0159782 0.000898096 0.0296868 -0.0348754 0 0 -5.1365e-06 0.0005 5.23599e-07 
170 1 0.0221899 0.0232469 0.012792 0.00721904 0.000955724 -0.00529153 7.93967e-05 -3.91961e-05 4.38032e-05 0.0005 5.23599e-07 
172 1 0.0214054 0.0232231 0.012759 0.00875417 0.00555929 -0.0173429 2.85691e-05 -4.11874e-06 1.38873e-05 0.0005 5.23599e-07 
173 1 0.0184187 0.0218495 0.016027 0.0187234 0.0047931 -0.013436 1.04258e-05 7.20386e-06 3.83648e-06 0.0005 5.23599e-07 
174 1 0.0250509 0.021613 0.0162546 0.00756969 -0.00781585 0.0154837 0 0 -5.1365e-06 0.0005 5.23599e-07 
175 1 0.0176596 0.0232376 0.0136211 0.0129887 -0.00172535 0.00229231 -8.96265e-07 1.44354e-05 -3.41221e-06 0.0005 5.23599e-07 
177 1 0.0193334 0.0236503 0.0143024 0.0274347 0.0125946 -0.0271462 0 0 -5.1365e-06 0.0005 5.23599e-07 
178 1 0.0171356 0.0237064 0.0145917 0.00759303 -0.00568836 -0.00118524 -3.35075e-09 -1.39874e-07 -5.92785e-06 0.0005 5.23599e-07 
179 1 0.0166473 0.0232901 0.016006 0.0221113 -0.0219798 -0.0348913 0 0 -5.1365e-06 0.0005 5.23599e-07 
180 1 0.0209076 0.0229015 0.0162792 -0.024236 -0.00799688 0.0187482 0 0 -5.1365e-06 0.0005 5.23599e-07 
181 1 0.0135977 0.02325 0.0223998 -0.198199 -0.138442 0.342329 0 0 -5.1365e-06 0.0005 5.23599e-07 
182 1 0.0161379 0.0219688 0.015014 0.0112062 0.0126218 -0.000336122 1.56074e-06 1.39493e-05 -1.84087e-05 0.0005 5.23599e-07 
183 1 0.0139223 0.0223469 0.0155903 0.000984568 0.00274294 0.00064991 -5.25525e-06 -8.13344e-07 3.03228e-06 0.0005 5.23599e-07 
184 1 0.0175177 0.015508 0.0157213 0.00125631 -0.00410616 0.0284848 0 0 -5.1365e-06 0.0005 5.23599e-07 
185 1 0.0167094 0.0230155 0.0134874 0.0115005 0.00633127 -0.0135879 8.31566e-06 1.49949e-05 -3.12026e-05 0.0005 5.23599e-07 
186 1 0.0182288 0.0235491 0.0143815 0.0105211 0.000684734 0.00792653 -2.91704e-06 1.08412e-05 -1.84168e-06 0.0005 5.23599e-07 
187 1 0.0187921 0.023671 0.0151984 0.0156836 0.00151985 5.38554e-05 3.02853e-06 -4.33469e-06 7.10034e-06 0.0005 5.23599e-07 
188 1 0.0178066 0.0211524 0.0164059 0.0286793 -0.00124544 0.00237803 0 0 -5.1365e-06 0.0005 5.23599e-07 
189 1 0.017726 0.0200481 0.0158865 0.0135147 -0.0269615 -0.0657351 0 0 -5.1365e-06 0.0005 5.23599e-07 
190 1 0.0232924 0.0221538 0.0159531 0.0443026 -0.028644 0.032139 0 0 -5.1365e-06 0.0005 5.23599e-07 
