ITEM: TIMESTEP
120000
ITEM: NUMBER OF ATOMS
173
ITEM: BOX BOUNDS ff ff ff
-0.02 0.43
-0.02 0.06
-0.02 0.07
ITEM: ATOMS id type x y z vx vy vz fx fy fz radius mass 
1 1 0.0183239 0.0175921 0.0157008 0.0249915 -0.0558227 -0.0197122 0 0 -5.1365e-06 0.0005 5.23599e-07 
2 1 0.0181055 0.0186076 0.0160633 0.00465003 -0.00926608 0.0174948 0 0 -5.1365e-06 0.0005 5.23599e-07 
3 1 0.0177781 0.023419 0.0114806 0.00399276 -0.000835983 -0.00472639 -1.21632e-05 -9.50106e-07 2.05237e-05 0.0005 5.23599e-07 
4 1 0.0191412 0.0140796 0.0128877 0.0054519 -0.0174438 0.0593985 0 0 -5.1365e-06 0.0005 5.23599e-07 
5 1 0.0215211 0.0148482 0.0146262 0.000144254 -0.00242037 -0.00750634 0 0 -5.1365e-06 0.0005 5.23599e-07 
6 1 0.0193973 0.0146103 0.0120764 0.00480402 -0.00789571 0.0580103 0 0 -5.1365e-06 0.0005 5.23599e-07 
7 1 0.0172629 0.0221672 0.0146614 0.00993841 0.00402331 -0.00442535 -1.80918e-06 1.03835e-05 -6.88645e-06 0.0005 5.23599e-07 
8 1 0.0231827 0.0223261 0.0149058 -0.000559986 0.0313261 -0.0137461 -2.67221e-06 -1.57594e-05 -5.49753e-05 0.0005 5.23599e-07 
9 1 0.0211645 0.0145154 0.0127363 -0.0120772 0.00923267 0.0285607 4.02117e-05 -2.0074e-05 5.50508e-05 0.0005 5.23599e-07 
10 1 0.0225555 0.0145618 0.0142591 -0.00312483 -0.000639471 -0.00138074 -2.28913e-07 1.67858e-06 -3.31076e-06 0.0005 5.23599e-07 
11 1 0.0178935 0.0227645 0.0299661 -0.176098 0.0448543 0.215366 0 0 -5.1365e-06 0.0005 5.23599e-07 
12 1 0.0182375 0.0232737 0.0128404 0.0112451 -0.000236816 0.0002425 7.56503e-06 9.03184e-06 7.4467e-06 0.0005 5.23599e-07 
13 1 0.0253857 0.0206088 0.0156623 0.00184859 0.00617379 -0.00140143 -9.9422e-06 9.30755e-06 -1.31179e-05 0.0005 5.23599e-07 
14 1 0.0151827 0.0232757 0.014637 0.0013635 0.0026014 0.0016466 -8.06739e-07 1.70832e-06 2.26479e-06 0.0005 5.23599e-07 
15 1 0.022016 0.0231018 0.0148555 0.00168475 0.00123089 -0.00229318 -4.06115e-06 1.2298e-05 -2.80288e-06 0.0005 5.23599e-07 
16 1 0.0196461 0.02411 0.0129447 0.012849 0.00039618 0.00110696 2.01971e-05 7.43854e-07 -3.83161e-06 0.0005 5.23599e-07 
17 1 0.0189902 0.0152277 0.0137806 0.0138908 0.000146077 0.0059183 -1.74675e-06 -5.86244e-06 -2.91785e-06 0.0005 5.23599e-07 
18 1 0.0135906 0.0172185 0.0171114 0.0558354 0.0163107 -0.0363533 -1.2886e-05 8.50081e-07 1.32031e-05 0.0005 5.23599e-07 
19 1 0.0204128 0.0146003 0.0120829 0.0125456 -0.00671725 0.0492028 -4.02117e-05 2.0074e-05 -6.53239e-05 0.0005 5.23599e-07 
21 1 0.0247254 0.0174198 0.0156339 -0.00940362 0.0248404 0.00495331 0 0 -5.1365e-06 0.0005 5.23599e-07 
22 1 0.0187911 0.0157946 0.0145795 0.0127754 0.0120853 -0.00493579 4.35869e-06 4.26559e-06 1.25437e-05 0.0005 5.23599e-07 
23 1 0.0225205 0.0228085 0.00934701 -0.759793 -0.269809 0.0291332 0.0374997 -0.116633 0.0195081 0.0005 5.23599e-07 
24 1 0.0233552 0.0149444 0.014779 -0.000946423 -0.000813806 0.000386942 -3.47165e-07 -1.53804e-06 6.42666e-07 0.0005 5.23599e-07 
25 1 0.0228465 0.0230676 0.01324 0.0046402 0.00664455 -0.0377366 4.34284e-06 -2.28767e-05 4.90079e-05 0.0005 5.23599e-07 
26 1 0.0245851 0.0165397 0.0151654 0.00895009 0.0202438 0.01367 -5.71002e-07 -5.04141e-07 -2.19967e-06 0.0005 5.23599e-07 
27 1 0.0167183 0.0234777 0.0127775 0.00861145 0.00544327 -0.00297126 -1.63148e-06 2.34661e-05 9.51295e-06 0.0005 5.23599e-07 
28 1 0.0200697 0.0149996 0.0133282 -0.00598279 -0.0013303 -0.00712105 6.40752e-06 4.95166e-07 -7.19273e-06 0.0005 5.23599e-07 
29 1 0.0170134 0.0237799 0.0136647 0.0100637 0.00227767 -0.00218405 -2.35039e-06 -6.63761e-06 -4.66447e-06 0.0005 5.23599e-07 
31 1 0.0253658 0.0182256 0.0158682 0.000231492 0.0344488 0.0128193 0 0 -5.1365e-06 0.0005 5.23599e-07 
32 1 0.0207225 0.023498 0.0224882 -0.0229649 0.0360752 0.0748861 0 0 -5.1365e-06 0.0005 5.23599e-07 
33 1 0.0203648 0.0243085 0.0170795 0.00669183 -0.00582282 -0.00537725 0 0 -5.1365e-06 0.0005 5.23599e-07 
34 1 0.0246026 0.015822 0.0158621 -0.0165479 -0.00826796 -0.0161143 0 0 -5.1365e-06 0.0005 5.23599e-07 
36 1 0.0219906 0.0230107 0.009785 -0.324915 -0.0698154 0.224188 -0.136953 0.0418631 0.00123815 0.0005 5.23599e-07 
37 1 0.0193871 0.0214568 0.0152884 0.00954135 0.00904901 -0.00177873 -1.70592e-06 1.53662e-05 -1.50392e-05 0.0005 5.23599e-07 
38 1 0.019578 0.00921058 0.0529646 -0.125646 -0.453303 1.14699 0 0 -5.1365e-06 0.0005 5.23599e-07 
39 1 0.0223031 0.0233632 0.0109152 0.0082784 -0.0126673 -0.0267964 -0.000310865 0.00457823 -0.00437264 0.0005 5.23599e-07 
40 1 0.0218255 0.023282 0.0161202 -0.00735652 -0.00523221 -0.068404 0 0 -5.1365e-06 0.0005 5.23599e-07 
41 1 0.0169077 0.0237742 0.0147143 -0.00466613 0.00437186 -0.0177141 0 0 -5.1365e-06 0.0005 5.23599e-07 
42 1 0.0178744 0.0196982 0.0160422 0.00966455 0.0130923 0.0169166 4.95984e-06 -1.5644e-05 6.11033e-06 0.0005 5.23599e-07 
43 1 0.0214238 0.0213234 0.0162263 0.0315362 0.0239561 -0.00921091 -3.29203e-06 7.69077e-06 2.09761e-06 0.0005 5.23599e-07 
44 1 0.0179718 0.0228859 0.0146681 0.0250425 0.0214264 -0.0288247 0 0 -5.1365e-06 0.0005 5.23599e-07 
45 1 0.0198612 0.0155046 0.0141854 0.028282 -0.00478481 -0.014164 2.06589e-06 -2.83635e-05 5.33871e-05 0.0005 5.23599e-07 
46 1 0.0174554 0.0234069 0.0123087 0.0105312 0.000283464 -0.00158566 -1.08276e-05 1.31442e-05 2.47903e-05 0.0005 5.23599e-07 
47 1 0.0203175 0.0136972 0.0138943 0.0162262 -0.0198466 0.0542898 -2.85054e-05 2.44332e-05 -6.64679e-05 0.0005 5.23599e-07 
48 1 0.0198709 0.0235727 0.0175694 -0.00181773 0.011833 0.00479334 1.85117e-06 -4.99169e-07 1.32351e-06 0.0005 5.23599e-07 
49 1 0.0142316 -0.00372131 0.0634328 -0.323581 -0.870282 1.50052 0 0 -5.1365e-06 0.0005 5.23599e-07 
50 1 0.020351 0.0167977 0.0153367 0.00583972 0.0126776 -0.00800127 0 0 -5.1365e-06 0.0005 5.23599e-07 
51 1 0.0241047 0.018553 0.0159479 -0.000305305 0.0489605 0.00864307 -3.98981e-06 1.94778e-05 4.27115e-06 0.0005 5.23599e-07 
52 1 0.0207604 0.0220034 0.0158362 -0.00550783 -0.00101848 0.00454402 0 0 -5.1365e-06 0.0005 5.23599e-07 
53 1 0.0170426 0.022966 0.0141382 0.00966325 0.00309568 -0.00255324 -5.14067e-07 1.53507e-06 -3.17026e-06 0.0005 5.23599e-07 
54 1 0.0246757 0.0175797 0.0167048 -0.034242 0.0126008 0.031871 0 0 -5.1365e-06 0.0005 5.23599e-07 
55 1 0.0198467 0.0232189 0.0166346 0.00820515 0.00323249 0.00695059 2.40478e-06 -2.71586e-06 6.9584e-06 0.0005 5.23599e-07 
56 1 0.0184464 0.0218997 0.0162309 -0.000230479 0.00330993 0.00897447 0 0 -5.1365e-06 0.0005 5.23599e-07 
57 1 0.0245261 0.0202069 0.0158202 -0.000174837 0.0309803 -0.0132193 -1.58784e-05 8.02249e-06 -5.82771e-05 0.0005 5.23599e-07 
58 1 0.0238563 0.019692 0.0163052 -0.00323405 0.0572599 -0.0047796 -1.18487e-05 2.45175e-05 -1.93917e-05 0.0005 5.23599e-07 
59 1 0.0191302 0.0230721 0.0148722 0.00818472 0.00284995 -0.00226648 7.32758e-06 1.75707e-05 -6.71724e-06 0.0005 5.23599e-07 
60 1 0.020142 0.0140731 0.0129537 0.00419328 -0.0173175 0.0448855 0 0 -5.1365e-06 0.0005 5.23599e-07 
61 1 0.0199635 0.018709 0.016006 0.000230222 -0.000871652 0.0165393 0 0 -5.1365e-06 0.0005 5.23599e-07 
62 1 0.0190759 0.0221524 0.0146505 0.00892413 0.00436129 -0.00434097 1.68577e-06 1.04203e-05 -2.23473e-06 0.0005 5.23599e-07 
63 1 0.0175466 0.0214425 0.0164697 -0.00973151 0.00489296 0.0160443 0 0 -5.1365e-06 0.0005 5.23599e-07 
64 1 0.0185744 0.0165757 0.01519 0.00940076 0.00872439 0.00643023 3.86583e-06 2.30461e-06 1.89688e-06 0.0005 5.23599e-07 
65 1 0.0160908 0.0236651 0.0141098 0.00334801 8.84578e-05 -0.0073789 3.06027e-07 -5.86492e-07 -4.42123e-06 0.0005 5.23599e-07 
66 1 0.0183903 0.0230427 0.0161895 0.00987073 0.00653566 0.0035687 -2.96949e-06 2.87359e-05 -2.89291e-05 0.0005 5.23599e-07 
67 1 0.0207815 0.0146858 0.0139565 -0.00347022 -0.00129944 -0.00931891 3.33204e-07 -2.94088e-08 -5.0748e-06 0.0005 5.23599e-07 
68 1 0.0251457 0.0166598 0.0161558 -0.0143823 -0.00898594 -0.0350424 0 0 -5.1365e-06 0.0005 5.23599e-07 
69 1 0.0211189 0.0173752 0.0166084 -0.0153346 0.0165323 0.0175669 0 0 -5.1365e-06 0.0005 5.23599e-07 
70 1 0.0176587 0.020665 0.0158431 0.0106701 0.0141756 0.0174914 -8.27102e-06 -1.08379e-05 9.97637e-06 0.0005 5.23599e-07 
71 1 0.0212016 0.0227175 0.0152882 0.00301121 -0.0057249 0.00326591 8.85495e-06 5.57753e-06 -7.32168e-06 0.0005 5.23599e-07 
72 1 0.0256777 0.0191786 0.0159315 -0.00125634 0.0194569 -0.00208944 -7.07326e-06 1.42312e-06 4.89874e-06 0.0005 5.23599e-07 
73 1 0.0188202 0.0192852 0.0162525 -0.00203255 0.00743275 0.0334698 0 0 -5.1365e-06 0.0005 5.23599e-07 
74 1 0.023076 0.0228084 0.0141084 0.010027 -0.000854344 -0.0397739 -5.17285e-08 -8.08589e-05 -7.86634e-06 0.0005 5.23599e-07 
75 1 0.0202375 0.0228858 0.0150875 0.00225153 -0.00407101 0.00224266 -5.19866e-06 -4.13434e-06 1.31019e-05 0.0005 5.23599e-07 
76 1 0.0204319 0.0155441 0.0150056 0.0403855 0.000530372 -0.0252458 0 0 -5.1365e-06 0.0005 5.23599e-07 
77 1 0.0258618 0.0181768 0.0167384 -0.0151939 -0.00535986 -0.0173779 0 0 -5.1365e-06 0.0005 5.23599e-07 
78 1 0.0183645 0.0138516 0.0134795 -0.00399118 -0.0188066 0.0566734 0 0 -5.1365e-06 0.0005 5.23599e-07 
79 1 0.021675 0.0239589 0.0145831 -1.65918e-05 0.000166321 -0.000700411 2.02341e-05 8.74907e-06 -1.27531e-06 0.0005 5.23599e-07 
80 1 0.022354 0.010265 0.0269993 -0.0752595 -0.130671 -0.159439 0 0 -5.1365e-06 0.0005 5.23599e-07 
81 1 0.0143439 0.0229179 0.0150481 0.00182268 -0.000259266 -0.00141267 -1.2349e-07 3.51649e-06 -4.06727e-06 0.0005 5.23599e-07 
82 1 0.0301046 0.0342736 0.0435187 -2.73366e-16 7.41781e-17 5.53846e-13 7.63715e-18 -2.07235e-18 0 0.0005 5.23599e-07 
83 1 0.0106957 0.019994 0.0251538 0.238564 0.0646089 -0.316654 0 0 -5.1365e-06 0.0005 5.23599e-07 
84 1 0.0238878 0.0222866 0.0146461 -0.002547 0.00254572 -0.00525506 -5.64768e-06 1.38766e-05 -1.62926e-05 0.0005 5.23599e-07 
85 1 0.0133935 0.0213385 0.0157326 -0.00554833 0.0937489 0.0648611 0 0 -5.1365e-06 0.0005 5.23599e-07 
87 1 0.0254663 0.0208425 0.0166311 -0.0145771 0.026428 -0.00307201 -7.68835e-07 1.35568e-06 -3.34465e-06 0.0005 5.23599e-07 
88 1 0.0156536 0.0300996 0.041494 -0.238489 0.225705 0.729045 0 0 -5.1365e-06 0.0005 5.23599e-07 
89 1 0.0156522 0.0217975 0.0159938 0.0102998 0.0135029 -0.00586726 6.17506e-07 3.31866e-06 2.51954e-06 0.0005 5.23599e-07 
90 1 0.0217832 0.0221792 0.00867208 -0.441491 0.0584595 0.103923 0.180916 -0.0699605 -0.0200987 0.0005 5.23599e-07 
91 1 0.0189921 0.0244527 0.0136851 0.0115816 0.000976404 -0.000610305 -6.32471e-06 -1.5921e-06 -7.66194e-06 0.0005 5.23599e-07 
92 1 0.0216906 0.0238737 0.0135978 0.0086627 -0.00527078 0.000725276 9.26503e-06 7.14834e-07 1.40885e-05 0.0005 5.23599e-07 
93 1 0.0225505 0.0236457 0.0142329 0.0019195 -0.000652371 0.000633343 2.47052e-05 -2.72672e-06 2.01793e-05 0.0005 5.23599e-07 
94 1 0.0243576 0.0206987 0.0166941 0.0113395 -0.0327221 -0.0269309 0 0 -5.1365e-06 0.0005 5.23599e-07 
95 1 0.0170293 0.0146484 0.0144096 -0.0198956 0.0115485 0.00940126 0 0 -5.1365e-06 0.0005 5.23599e-07 
96 1 0.0242915 0.0219421 0.0163002 -0.00799217 0.0309622 -0.0277569 0 0 -5.1365e-06 0.0005 5.23599e-07 
97 1 0.0186686 0.0240787 0.0128431 0.0121745 0.000356426 -0.000248632 1.20407e-05 3.81232e-06 -3.51229e-06 0.0005 5.23599e-07 
98 1 0.0198995 0.024847 0.0188379 -0.100649 -0.0484534 -0.00336846 0 0 -5.1365e-06 0.0005 5.23599e-07 
99 1 0.0177546 0.0241334 0.0131977 0.0108101 0.000552796 -0.00199366 1.0456e-05 -4.07423e-07 -8.06529e-07 0.0005 5.23599e-07 
100 1 0.02013 0.0151563 0.00962337 -0.00205414 -0.0125874 0.0198208 -4.93422e-05 -9.0813e-05 -0.000198754 0.0005 5.23599e-07 
101 1 0.0199127 0.0147239 0.011225 1.17236e-05 -0.0075871 0.0527096 8.93412e-06 2.24214e-07 -9.0761e-08 0.0005 5.23599e-07 
103 1 0.0138586 0.022247 0.0156571 -0.000421193 -0.00355847 -0.0103328 -3.25844e-06 -1.7718e-06 -8.7177e-07 0.0005 5.23599e-07 
104 1 0.0257824 0.019863 0.0166696 0.00208597 0.0213222 0.00548484 0 0 -5.1365e-06 0.0005 5.23599e-07 
105 1 0.0208999 0.0242391 0.0140146 0.0114102 -0.00259201 0.00253479 -3.33583e-05 2.70443e-05 -1.07478e-05 0.0005 5.23599e-07 
106 1 0.0204009 0.0165944 0.00795037 0.0026979 -0.0421648 0.0274486 9.25038e-05 -3.47925e-06 -3.11224e-05 0.0005 5.23599e-07 
107 1 0.0226963 0.023221 0.0155692 -0.00126179 -0.00325758 0.00188036 -4.90983e-05 -3.29823e-05 3.7729e-05 0.0005 5.23599e-07 
108 1 0.0206289 0.0240554 0.0130743 0.0127893 -0.00196653 0.00174315 1.09621e-05 -1.29609e-05 -6.74259e-06 0.0005 5.23599e-07 
109 1 0.0201897 0.0158234 0.00864765 0.000346865 -0.0338581 0.0382153 -2.31904e-08 8.47452e-08 2.10108e-07 0.0005 5.23599e-07 
110 1 0.022708 0.023184 0.0101466 0.271628 0.144514 0.0414274 0.000326021 -0.0691876 0.0443565 0.0005 5.23599e-07 
112 1 0.019949 0.0243547 0.0138536 0.0115951 0.000354647 0.00132059 -2.69225e-05 9.3523e-06 -7.0089e-07 0.0005 5.23599e-07 
113 1 0.0211663 0.0198207 0.00729196 -0.000946032 -0.0537035 -0.0151929 -3.92506e-05 -0.000201671 -6.4398e-05 0.0005 5.23599e-07 
114 1 0.0208665 0.0236621 0.0150717 0.00403247 -0.00286235 0.00475204 4.16957e-05 1.25464e-06 1.01097e-05 0.0005 5.23599e-07 
115 1 0.0184189 0.023682 0.0138089 0.0106661 0.00217171 -0.00121317 -2.93355e-06 5.1026e-06 -1.16497e-05 0.0005 5.23599e-07 
116 1 0.0185739 0.0240209 0.0162696 0.00919931 0.00488138 0.0120494 2.05808e-05 2.11769e-05 9.33883e-06 0.0005 5.23599e-07 
118 1 0.0195888 0.0162547 0.0149743 0.00841545 0.00503985 0.00208005 -8.51746e-08 -3.93089e-07 -3.56571e-06 0.0005 5.23599e-07 
119 1 0.0190503 0.0183029 0.0158828 -0.000336845 -0.0163964 -0.00440881 0 0 -5.1365e-06 0.0005 5.23599e-07 
121 1 0.0195269 0.014394 0.0139097 -0.00125042 -0.0119486 -0.0131531 -4.04177e-06 -2.58038e-06 -1.24208e-06 0.0005 5.23599e-07 
122 1 0.0205935 0.0174579 0.00748164 -0.00633121 -0.0365896 0.0133115 -0.00048922 4.26205e-05 0.000526509 0.0005 5.23599e-07 
123 1 0.0210466 0.0238176 0.0165347 0.00406137 -0.000632933 0.00146302 -1.79271e-05 -1.06926e-05 3.61042e-06 0.0005 5.23599e-07 
124 1 0.0245962 0.0213803 0.0153012 -0.0249434 0.0105545 -0.0177038 0 0 -5.1365e-06 0.0005 5.23599e-07 
125 1 0.0144045 0.0215442 0.0161277 -0.00197069 -0.000378825 -0.00225337 -1.40524e-06 -3.81952e-06 -2.76558e-06 0.0005 5.23599e-07 
126 1 0.0184767 0.0238498 0.0147945 0.000297024 -0.00798383 -0.0113106 0 0 -5.1365e-06 0.0005 5.23599e-07 
127 1 0.0193489 0.0236192 0.0140851 0.0109915 0.00153146 -0.00022208 -3.12554e-06 9.07716e-06 3.43755e-06 0.0005 5.23599e-07 
128 1 0.0176881 0.0241913 0.0142398 0.010014 0.0017366 -0.00188772 -4.2585e-06 7.56769e-06 -8.71864e-06 0.0005 5.23599e-07 
129 1 0.0184545 0.0211768 0.015525 0.00926781 0.0105404 0.00585852 -1.89363e-05 -4.22186e-06 -1.78729e-05 0.0005 5.23599e-07 
131 1 0.0192551 0.0234132 0.0158527 0.0128316 0.00464183 0.00451198 -1.27645e-05 -1.83556e-07 3.77638e-06 0.0005 5.23599e-07 
133 1 0.0197575 0.0237616 0.0150621 0.00867853 0.000816414 7.78782e-05 3.63236e-06 6.62391e-06 2.56839e-06 0.0005 5.23599e-07 
134 1 0.0205422 0.0189766 0.0170368 0.0861792 -0.00544305 0.102699 0 0 -5.1365e-06 0.0005 5.23599e-07 
135 1 0.0201904 0.0239801 0.0159368 0.00324525 -0.000906713 0.00195469 -1.60933e-06 -1.91175e-06 -5.26999e-06 0.0005 5.23599e-07 
136 1 0.0204305 0.0211532 0.0163063 0.0299614 0.0226134 -0.00995574 0 0 -5.1365e-06 0.0005 5.23599e-07 
138 1 0.0194765 0.0242694 0.0166208 0.00707866 -0.00536157 -0.00471865 1.01513e-05 1.00283e-05 8.03851e-06 0.0005 5.23599e-07 
142 1 0.0178423 0.0229334 0.0136438 0.00959476 0.00253971 -0.00207165 2.4294e-06 1.62956e-06 6.13085e-06 0.0005 5.23599e-07 
143 1 0.0203035 0.0235001 0.0142754 0.00984833 -0.00117933 0.00183963 1.01837e-05 1.37592e-05 1.32659e-05 0.0005 5.23599e-07 
144 1 0.0229171 0.0156157 0.0168125 -0.0842055 -0.0393101 -0.0922089 0 0 -5.1365e-06 0.0005 5.23599e-07 
145 1 0.0247278 0.0192608 0.0159565 0.00262868 0.0387885 -0.000953311 -1.78551e-05 2.77103e-05 3.73304e-06 0.0005 5.23599e-07 
146 1 0.0141395 0.0158525 0.0208647 0.0742601 0.0661498 -0.0594391 0 0 -5.1365e-06 0.0005 5.23599e-07 
147 1 0.0246154 0.0193444 0.0169469 -0.00919739 0.0377442 -0.0104566 0 0 -5.1365e-06 0.0005 5.23599e-07 
148 1 0.0174437 0.0215464 0.0154192 0.00911016 0.0128448 0.00169375 -5.03162e-06 1.11699e-05 -1.6658e-05 0.0005 5.23599e-07 
149 1 0.0193616 0.0171523 0.0155241 0.00934092 0.0135372 0.00882989 -4.37841e-07 3.76085e-07 -5.55141e-08 0.0005 5.23599e-07 
150 1 0.0195847 0.0206469 0.0158303 0.009512 0.0164755 0.00901961 -4.08209e-06 2.20785e-05 -1.86078e-05 0.0005 5.23599e-07 
151 1 0.0217006 0.0143275 0.013791 -0.000826028 0.000498316 -0.00464161 1.14626e-08 4.94258e-07 -5.10318e-06 0.0005 5.23599e-07 
152 1 0.0166435 0.0142232 0.0135898 -0.0092524 0.00072499 0.00952428 0 0 -5.1365e-06 0.0005 5.23599e-07 
153 1 0.0206739 0.0164111 0.0162032 -0.0120097 -0.0126091 0.000389907 0 0 -5.1365e-06 0.0005 5.23599e-07 
154 1 0.0158918 0.0227351 0.016266 0.00842238 0.00937269 -0.00302012 -2.28348e-06 6.74221e-07 3.07087e-06 0.0005 5.23599e-07 
155 1 0.0187752 0.0227669 0.0139368 0.00924863 0.00363253 -0.00256362 -3.79444e-06 1.30561e-05 1.68158e-06 0.0005 5.23599e-07 
157 1 0.0174967 0.0138728 0.0139809 -0.021121 -0.00934531 0.0379506 0 0 -5.1365e-06 0.0005 5.23599e-07 
158 1 0.0225361 0.0153218 0.0152114 0.00122892 -0.00276205 0.00594002 -3.85298e-07 -1.17889e-06 -1.84006e-07 0.0005 5.23599e-07 
159 1 0.0172904 0.0231374 0.0163866 0.00424024 0.0163922 -0.00423154 7.72319e-06 3.096e-08 8.40954e-07 0.0005 5.23599e-07 
160 1 0.0180925 0.0220084 0.0171904 0.00546377 0.0499596 0.00669163 0 0 -5.1365e-06 0.0005 5.23599e-07 
161 1 0.0126447 0.0241101 0.0325464 0.0787884 -0.0587612 -0.182713 0 0 -5.1365e-06 0.0005 5.23599e-07 
162 1 0.0208465 0.0202613 0.0165916 0.0695366 0.032662 -0.0043619 0 0 -5.1365e-06 0.0005 5.23599e-07 
163 1 0.0186642 0.0202878 0.0159256 0.00936864 0.0155249 0.0141561 -9.63262e-06 1.07952e-05 -1.1838e-05 0.0005 5.23599e-07 
164 1 0.0212025 0.0157781 0.0156251 0.00757015 0.00266085 0.00358666 0 0 -5.1365e-06 0.0005 5.23599e-07 
165 1 0.0158456 0.0144963 0.0141318 -0.0148345 0.00474578 0.00961793 8.24324e-06 4.44254e-06 -3.13647e-06 0.0005 5.23599e-07 
166 1 0.0217185 0.0149022 0.015606 -0.00237591 -0.00343548 -0.00536587 0 0 -5.1365e-06 0.0005 5.23599e-07 
167 1 0.0276337 0.0248213 0.0374791 0.236788 0.0617653 0.240923 0 0 -5.1365e-06 0.0005 5.23599e-07 
168 1 0.0206182 0.0230794 0.0160145 0.00535137 -0.00226349 0.00584501 -2.18204e-06 -1.1141e-05 1.14902e-05 0.0005 5.23599e-07 
170 1 0.0197623 0.0197113 0.0161556 0.0030693 0.0260453 0.020124 0 0 -5.1365e-06 0.0005 5.23599e-07 
171 1 0.0235894 0.0214442 0.0152453 0.00827616 -0.00232175 0.00154232 0 0 -5.1365e-06 0.0005 5.23599e-07 
172 1 0.0181816 0.0219153 0.0149135 0.00946857 0.00362822 -0.00370217 -3.9749e-06 1.39103e-05 -4.49209e-06 0.0005 5.23599e-07 
173 1 0.0183999 0.0209372 0.016651 -0.00225794 0.00254441 0.0113984 0 0 -5.1365e-06 0.0005 5.23599e-07 
174 1 0.0196745 0.0220405 0.0173287 0.0264938 -0.0127546 -0.0250848 0 0 -5.1365e-06 0.0005 5.23599e-07 
175 1 0.0156916 0.0227117 0.0152867 -0.000293504 2.13105e-05 0.000479571 -7.06028e-06 3.07432e-06 -1.36281e-06 0.0005 5.23599e-07 
177 1 0.0175898 0.0235616 0.015416 0.0299931 -0.0118286 -0.0564181 0 0 -5.1365e-06 0.0005 5.23599e-07 
178 1 0.0159839 0.0236496 0.0151066 0.000625873 -0.000733114 0.000621408 -5.29373e-06 -1.42198e-06 -1.99669e-07 0.0005 5.23599e-07 
179 1 0.0169817 0.0239772 0.016832 -0.00556963 0.0122955 -0.00171601 -1.78989e-05 -1.4532e-06 -1.50906e-06 0.0005 5.23599e-07 
180 1 0.0190863 0.0224055 0.0156195 0.00751549 0.00426792 0.000711413 0 0 -5.1365e-06 0.0005 5.23599e-07 
181 1 0.0186632 0.0234351 0.0170751 0.0174209 -0.00364085 0.000464796 -1.63906e-06 -1.55815e-06 -2.3629e-06 0.0005 5.23599e-07 
182 1 0.0193437 0.0212639 0.0167408 0.00910015 -0.0212728 -0.00896516 0 0 -5.1365e-06 0.0005 5.23599e-07 
183 1 0.0198013 0.0219122 0.0161212 -0.00561065 -0.00600929 -0.0104419 0 0 -5.1365e-06 0.0005 5.23599e-07 
184 1 0.0191171 0.0225299 0.0166471 0.0124595 -3.3581e-05 0.00674264 0 0 -5.1365e-06 0.0005 5.23599e-07 
185 1 0.0148573 0.0222932 0.0156444 -0.000402516 -0.000784179 -0.00199989 -4.32528e-06 -1.41363e-06 3.63175e-06 0.0005 5.23599e-07 
186 1 0.0165793 0.0221341 0.0158 0.0108142 0.00476603 -0.00953238 -7.65582e-07 1.65331e-06 -2.29605e-06 0.0005 5.23599e-07 
187 1 0.0166702 0.023109 0.0155975 0.00782943 0.00485864 -0.0105691 -2.01413e-07 6.47755e-06 -2.9995e-06 0.0005 5.23599e-07 
188 1 0.0177001 0.0224241 0.0158189 0.00875263 0.0161558 -0.00589359 1.25192e-05 -3.00583e-06 -7.86716e-06 0.0005 5.23599e-07 
189 1 0.0180424 0.0243077 0.0170661 -0.00514469 0.000222443 0.00250442 6.84779e-06 -7.94311e-07 1.63533e-05 0.0005 5.23599e-07 
190 1 0.0122905 0.0204938 0.0215433 0.0800009 -0.0274474 0.00957191 0 0 -5.1365e-06 0.0005 5.23599e-07 
