ITEM: TIMESTEP
80000
ITEM: NUMBER OF ATOMS
177
ITEM: BOX BOUNDS ff ff ff
-0.02 0.43
-0.02 0.06
-0.02 0.07
ITEM: ATOMS id type x y z vx vy vz fx fy fz radius mass 
1 1 0.0164966 0.0155067 0.0141802 0.00118644 0.0305713 0.040599 -4.99118e-06 -2.71083e-06 6.98204e-06 0.0005 5.23599e-07 
2 1 0.0162869 0.0161738 0.0148957 0.000900095 0.0429203 0.0340916 0 0 -5.1365e-06 0.0005 5.23599e-07 
3 1 0.0163224 0.0232552 0.0129364 0.0172025 0.0051611 -0.0154079 1.86012e-07 1.53711e-07 1.23351e-07 0.0005 5.23599e-07 
4 1 0.0178292 0.0142298 0.0127989 0.000365383 0.00154909 -0.00652056 0 0 -5.1365e-06 0.0005 5.23599e-07 
5 1 0.0211099 0.0148257 0.0154225 0.0206363 0.00267787 -0.0596737 0 0 -5.1365e-06 0.0005 5.23599e-07 
6 1 0.0181438 0.0146236 0.011935 0.00428806 0.00328148 -0.0064943 -5.29611e-06 3.65845e-05 -8.29326e-05 0.0005 5.23599e-07 
7 1 0.0151316 0.0211823 0.015406 0.00900246 0.00794981 -0.00351476 3.74047e-06 -9.51e-07 -2.56973e-06 0.0005 5.23599e-07 
8 1 0.0216244 0.0189932 0.0159487 0.0018739 0.0509892 0.00139437 3.30923e-06 2.06489e-06 -2.80375e-06 0.0005 5.23599e-07 
9 1 0.0208862 0.0140984 0.0132449 -0.00534379 -7.95099e-05 -0.00286653 3.1663e-07 8.20679e-07 -2.86769e-06 0.0005 5.23599e-07 
10 1 0.0226829 0.0145644 0.0143792 -0.0121164 0.0204314 -0.0467307 -2.51234e-07 4.43517e-07 -4.44638e-06 0.0005 5.23599e-07 
11 1 0.0235928 0.0219373 0.0158919 -0.00987424 0.0661982 -0.0280246 0 0 -5.1365e-06 0.0005 5.23599e-07 
12 1 0.0164854 0.0227856 0.013907 0.00885935 0.00474594 -0.00466233 3.28095e-06 7.57623e-06 -8.42764e-06 0.0005 5.23599e-07 
13 1 0.0234522 0.0184662 0.0159036 0.00256773 0.0407184 0.00525174 1.87686e-06 1.61136e-06 9.35943e-07 0.0005 5.23599e-07 
14 1 0.0147 0.0231676 0.0150099 0.00195279 -0.00180444 -0.00537063 1.94932e-06 -3.22309e-06 2.57124e-06 0.0005 5.23599e-07 
15 1 0.0210525 0.0216278 0.0151211 -0.000232382 0.0649991 -0.02392 0 0 -5.1365e-06 0.0005 5.23599e-07 
16 1 0.0194446 0.0241015 0.0127966 0.00129831 0.00299171 -0.00220853 0.000192174 9.74852e-05 -8.21493e-05 0.0005 5.23599e-07 
17 1 0.0171696 0.0146395 0.0121599 0.00347407 0.00228646 -0.00753945 -6.29768e-07 3.16346e-06 -7.23947e-06 0.0005 5.23599e-07 
18 1 0.0172662 0.0232734 0.0258834 -0.0172659 0.123605 0.136029 0 0 -5.1365e-06 0.0005 5.23599e-07 
19 1 0.0188254 0.0142463 0.0125614 0.000824029 0.0268454 -0.0441843 4.03551e-06 -3.49853e-05 8.13392e-05 0.0005 5.23599e-07 
20 1 0.0214161 0.0199645 0.0160633 -0.000883768 0.0549616 -0.0366555 -1.4693e-07 1.01706e-06 -4.29184e-06 0.0005 5.23599e-07 
21 1 0.0233443 0.0154623 0.014119 0.00626335 0.00560842 0.00618895 3.76628e-06 7.47189e-07 9.54101e-07 0.0005 5.23599e-07 
22 1 0.0168334 0.0143705 0.0130623 0.00198788 0.00532729 -0.00860648 9.25506e-06 4.95419e-06 3.24994e-06 0.0005 5.23599e-07 
23 1 0.0216271 0.0233579 0.0126555 -0.000274177 0.0131162 -0.00520483 0.000126761 5.80192e-05 0.00022177 0.0005 5.23599e-07 
24 1 0.0238839 0.0150725 0.0154713 0.00522394 0.00496006 0.00396682 4.40118e-06 -5.96162e-07 1.77763e-06 0.0005 5.23599e-07 
25 1 0.0215981 0.0228601 0.013796 -0.0146129 0.00634078 -0.0194669 0 0 -5.1365e-06 0.0005 5.23599e-07 
26 1 0.0226687 0.0150674 0.0134738 0.0106694 0.00374092 0.00539055 -2.0148e-06 -8.44007e-07 -2.01311e-06 0.0005 5.23599e-07 
27 1 0.0147106 0.0226494 0.0141337 0.0103233 0.0027809 -0.0102286 4.68539e-07 -1.82698e-06 -3.53148e-06 0.0005 5.23599e-07 
28 1 0.0193013 0.0142695 0.0137625 -0.00286795 0.00036729 -0.0020231 4.58084e-07 -1.07215e-06 -6.1651e-06 0.0005 5.23599e-07 
29 1 0.0163015 0.023758 0.013973 0.00323842 0.00262605 1.6897e-05 7.87454e-07 4.95971e-06 -1.86683e-06 0.0005 5.23599e-07 
31 1 0.0239797 0.0158281 0.0147984 0.00595172 0.0059209 0.00218507 -1.78937e-07 -4.81362e-06 6.5969e-06 0.0005 5.23599e-07 
32 1 0.0211097 0.0209621 0.0163871 0.0007484 0.0638043 -0.0316931 -3.71888e-06 1.78833e-06 3.97329e-06 0.0005 5.23599e-07 
33 1 0.0194307 0.0242259 0.0165294 0.00152307 -0.000598558 -0.000102088 1.02729e-07 -8.64072e-07 -4.75677e-06 0.0005 5.23599e-07 
34 1 0.0244888 0.0158743 0.0156576 0.00368689 0.00361577 0.00307179 7.66691e-06 2.83177e-06 5.76684e-06 0.0005 5.23599e-07 
36 1 0.0206459 0.023077 0.0135555 -0.00376416 -0.0158048 -0.0126377 0 0 -5.1365e-06 0.0005 5.23599e-07 
37 1 0.0172246 0.0204022 0.015737 0.0111312 0.00111617 -0.0046401 -9.10179e-06 2.41153e-05 2.76013e-05 0.0005 5.23599e-07 
38 1 0.0219287 0.0216914 0.0160051 -0.00603523 0.0746919 -0.0717674 0 0 -5.1365e-06 0.0005 5.23599e-07 
39 1 0.0207788 0.0224505 0.0143664 0.0269968 -0.039707 0.0423151 0 0 -5.1365e-06 0.0005 5.23599e-07 
40 1 0.0226788 0.0235099 0.0194715 -0.0612169 -0.0680525 -0.161663 0 0 -5.1365e-06 0.0005 5.23599e-07 
41 1 0.016484 0.0232455 0.0148118 0.00630319 -0.00597499 -0.0045006 -4.44154e-07 -1.69309e-06 -2.35517e-06 0.0005 5.23599e-07 
42 1 0.0159092 0.017672 0.0157243 0.00430472 0.0333275 0.0104862 -4.35042e-07 1.92073e-07 1.29745e-06 0.0005 5.23599e-07 
43 1 0.019457 0.0183745 0.0171539 -0.00611272 -0.00699176 -0.0041607 0 0 -5.1365e-06 0.0005 5.23599e-07 
44 1 0.015713 0.0222147 0.0154266 0.0132392 0.00210542 -0.0113672 2.09921e-06 2.94044e-06 -9.21208e-09 0.0005 5.23599e-07 
45 1 0.0183278 0.0144982 0.0138009 -0.00262155 0.00399374 -0.00951894 4.89436e-06 -1.88295e-06 -9.43033e-06 0.0005 5.23599e-07 
46 1 0.0155033 0.0229726 0.0135958 0.011919 0.00367371 -0.0104365 2.82364e-07 2.41613e-07 -9.46582e-07 0.0005 5.23599e-07 
47 1 0.0201782 0.0136887 0.0138465 -3.2642e-05 8.99693e-05 -0.000223032 3.59785e-07 -2.72971e-07 6.7977e-07 0.0005 5.23599e-07 
48 1 0.0203352 0.0226974 0.0166232 0.0281153 0.0175334 -0.00558653 1.0609e-06 -1.10707e-05 1.70342e-05 0.0005 5.23599e-07 
49 1 0.0226966 0.0210073 0.0155241 -0.000135663 0.05415 -0.0356412 0 0 -5.1365e-06 0.0005 5.23599e-07 
50 1 0.0187686 0.0159641 0.0158602 0.0197727 0.00949871 0.0384203 0 0 -5.1365e-06 0.0005 5.23599e-07 
51 1 0.0229459 0.0154029 0.01537 0.0078836 0.0127217 0.00613147 6.08449e-06 -1.85543e-06 3.36124e-06 0.0005 5.23599e-07 
52 1 0.0194428 0.0213061 0.0162727 0.011526 -0.00145286 0.00351266 -5.57506e-06 -6.66691e-06 -7.54617e-06 0.0005 5.23599e-07 
53 1 0.0149265 0.021988 0.0148522 0.0105927 0.0066425 -0.00347884 -2.43511e-06 -1.90608e-06 9.13682e-07 0.0005 5.23599e-07 
54 1 0.0232275 0.0192605 0.0169081 0.0243544 0.0121971 -0.0158554 0 0 -5.1365e-06 0.0005 5.23599e-07 
55 1 0.0192289 0.0232466 0.0165153 0.00409143 -0.00240449 -0.00026418 -4.65097e-07 1.29385e-06 -4.88705e-06 0.0005 5.23599e-07 
56 1 0.0175175 0.0219307 0.0159388 0.00605258 -0.00145954 0.00190432 8.2324e-06 1.29582e-06 8.36351e-06 0.0005 5.23599e-07 
57 1 0.0227085 0.0163376 0.0150367 0.00880695 0.0169664 0.00979406 -5.75789e-07 -1.4893e-06 8.42456e-08 0.0005 5.23599e-07 
58 1 0.0224316 0.0155251 0.0145217 0.00841195 0.0182409 0.00732188 1.98628e-06 -1.72976e-06 2.48851e-06 0.0005 5.23599e-07 
59 1 0.0184958 0.0232029 0.0147528 0.00139808 0.00270609 0.00254391 5.59783e-06 -1.83219e-06 -1.17884e-05 0.0005 5.23599e-07 
60 1 0.0198422 0.0140065 0.0129637 -0.000140706 0.000199464 -0.000611902 1.80521e-06 4.33036e-07 -2.12971e-06 0.0005 5.23599e-07 
61 1 0.01751 0.0164962 0.0152318 0.0248467 0.0606631 0.00370399 2.43207e-06 -7.11134e-06 -7.71337e-06 0.0005 5.23599e-07 
62 1 0.0170189 0.0213 0.0153453 0.00803993 0.000327403 -0.00172534 2.20441e-05 -7.41573e-08 7.0724e-06 0.0005 5.23599e-07 
63 1 0.0166662 0.0210187 0.0163351 0.00877203 -0.0014333 -0.00371459 -1.40624e-05 -1.32105e-05 1.78028e-06 0.0005 5.23599e-07 
64 1 0.0175917 0.01502 0.0133701 -0.00966596 -0.00287865 -0.00601461 1.18921e-07 -3.40833e-06 8.37485e-07 0.0005 5.23599e-07 
65 1 0.0155268 0.0234657 0.0145332 0.00299643 -0.00129646 -0.00315898 1.28479e-06 -3.30374e-07 1.73946e-06 0.0005 5.23599e-07 
66 1 0.0170097 0.0226562 0.0154394 0.00753771 0.00167044 -0.000111257 5.93389e-06 -1.38618e-07 -7.14265e-06 0.0005 5.23599e-07 
67 1 0.0201756 0.0145929 0.0142748 -0.000181375 0.00143503 -0.00572963 2.40241e-07 9.44578e-07 -7.31146e-06 0.0005 5.23599e-07 
68 1 0.0250907 0.0165795 0.016133 0.00385865 0.00737166 0.00402546 -1.19165e-07 -1.37147e-07 3.2931e-07 0.0005 5.23599e-07 
69 1 0.0219106 0.0154655 0.0153726 0.00514808 0.0122472 0.00389916 -4.63653e-06 4.58749e-06 8.7846e-06 0.0005 5.23599e-07 
70 1 0.015555 0.0193114 0.015935 0.0116151 0.00986891 -0.00087421 -8.64178e-07 3.32372e-06 8.78057e-07 0.0005 5.23599e-07 
71 1 0.020279 0.0219475 0.015909 0.00686005 0.00314136 -0.0008286 -7.90877e-07 6.49066e-06 -1.40438e-06 0.0005 5.23599e-07 
72 1 0.0237132 0.0166866 0.0152602 0.0123083 0.0131937 0.00892766 -7.94093e-07 -3.50073e-07 -2.02644e-06 0.0005 5.23599e-07 
73 1 0.0167365 0.0170748 0.0154896 -0.00570382 0.0228771 0.00866563 -2.43207e-06 7.11134e-06 -2.55964e-06 0.0005 5.23599e-07 
74 1 0.0219485 0.0221283 0.0147174 -0.00983758 0.0793131 -0.0605359 0 0 -5.1365e-06 0.0005 5.23599e-07 
75 1 0.0190965 0.0225591 0.0154107 0.00642426 -0.00142565 0.00356267 -1.12669e-05 3.01143e-06 1.84514e-06 0.0005 5.23599e-07 
76 1 0.0192298 0.0142951 0.0147595 -0.0109823 -0.0043385 -0.00234145 -1.57982e-06 -1.03605e-05 -5.38475e-06 0.0005 5.23599e-07 
77 1 0.0251972 0.0188503 0.0167688 -2.49606e-05 0.0593081 0.0198144 0 0 -5.1365e-06 0.0005 5.23599e-07 
78 1 0.0174802 0.0139747 0.0137148 0.000823042 0.00645517 -0.0124034 -3.27385e-06 -3.28098e-06 -3.40874e-06 0.0005 5.23599e-07 
79 1 0.0209511 0.0234827 0.0144602 0.00706624 0.0187417 0.0207078 -1.75604e-06 -9.10243e-06 -3.77094e-06 0.0005 5.23599e-07 
80 1 0.0216845 0.0208021 0.0155849 0.00609656 0.0588882 -0.0263407 1.11766e-06 -1.53386e-06 -2.33978e-06 0.0005 5.23599e-07 
81 1 0.0140539 0.0225611 0.0154726 -3.9007e-06 -8.54785e-05 -0.00586995 -4.76205e-07 -2.00135e-06 4.44563e-07 0.0005 5.23599e-07 
82 1 0.0301002 0.0342748 0.0441297 0.0011606 -0.000314595 -0.0180041 0 0 -5.1365e-06 0.0005 5.23599e-07 
83 1 0.0186198 0.0144525 0.0155364 -0.0192103 0.00519875 -0.00907235 0 0 -5.1365e-06 0.0005 5.23599e-07 
84 1 0.0225602 0.0226607 0.0141222 0.00703331 -0.00252008 0.0101365 0 0 -5.1365e-06 0.0005 5.23599e-07 
85 1 0.0130384 0.0210887 0.0163497 0.000280318 0.00568329 0.00388198 -9.76949e-07 -4.59047e-06 -6.59669e-07 0.0005 5.23599e-07 
87 1 0.0246061 0.0220588 0.0159094 -0.0171309 0.0296889 -0.0334918 0 0 -5.1365e-06 0.0005 5.23599e-07 
88 1 0.0216572 0.022902 0.0161782 -0.0289807 0.0675472 -0.0619262 0 0 -5.1365e-06 0.0005 5.23599e-07 
89 1 0.0161635 0.0210643 0.0236037 -0.0821559 -0.0231119 -0.210215 0 0 -5.1365e-06 0.0005 5.23599e-07 
90 1 0.0209088 0.0235294 0.0119833 0.0254387 -0.00758344 0.0360053 -0.000112522 0.000170377 -0.000188622 0.0005 5.23599e-07 
91 1 0.0186302 0.0244195 0.0137129 -0.0019653 0.00030432 0.00123941 2.03992e-06 1.57746e-05 1.45892e-05 0.0005 5.23599e-07 
92 1 0.0212062 0.024199 0.0138112 0.000728584 -0.00546072 -0.0156745 1.75604e-06 9.10243e-06 -6.50207e-06 0.0005 5.23599e-07 
93 1 0.0223302 0.023687 0.0140895 -0.0161051 0.00788161 -0.00667086 0 0 -5.1365e-06 0.0005 5.23599e-07 
94 1 0.0237479 0.0227874 0.0151763 -0.00813341 0.00748008 -0.00390781 0 0 -5.1365e-06 0.0005 5.23599e-07 
95 1 0.0165116 0.0158779 0.0158249 -0.0010868 -0.0250131 -0.0050923 0 0 -5.1365e-06 0.0005 5.23599e-07 
96 1 0.0230884 0.023332 0.0146438 -0.0104077 0.011221 0.00726751 0 0 -5.1365e-06 0.0005 5.23599e-07 
97 1 0.0179817 0.0240644 0.0130413 0.00126494 0.000518179 -0.000275746 -1.83929e-06 -4.10737e-06 5.32705e-06 0.0005 5.23599e-07 
98 1 0.0227842 0.0219923 0.0152572 6.45345e-05 0.0548745 -0.0946739 0 0 -5.1365e-06 0.0005 5.23599e-07 
99 1 0.0170308 0.0239793 0.0133302 0.00298398 0.0026565 0.000590985 -2.92662e-06 3.05759e-06 -5.24632e-06 0.0005 5.23599e-07 
100 1 0.019517 0.021764 0.00813934 -0.000372575 -0.0128654 -0.0159822 1.83931e-06 -1.91229e-05 -2.0122e-05 0.0005 5.23599e-07 
101 1 0.0196686 0.0210126 0.00768389 -4.39385e-05 -0.0335076 -0.0153757 -2.05356e-06 -3.25549e-05 -1.5079e-05 0.0005 5.23599e-07 
103 1 0.0135879 0.0218403 0.0159853 0.00133392 0.00181256 -0.0014093 1.07633e-06 1.88097e-06 -2.69622e-06 0.0005 5.23599e-07 
104 1 0.0252881 0.0211928 0.0163211 -0.018619 0.0246258 -0.0127756 0 0 -5.1365e-06 0.0005 5.23599e-07 
105 1 0.0200914 0.0239962 0.0145203 -0.000934401 0.0150695 0.0128955 4.69309e-06 6.65548e-06 -1.47752e-05 0.0005 5.23599e-07 
106 1 0.0196776 0.0229633 0.0098148 0.000985352 -0.0209297 -0.0448373 -6.94629e-08 -2.9111e-07 -8.9454e-08 0.0005 5.23599e-07 
107 1 0.0218406 0.0232888 0.0149224 0.0477915 -0.010015 0.00263318 0 0 -5.1365e-06 0.0005 5.23599e-07 
108 1 0.0203832 0.0241586 0.0131176 0.0106089 0.00712548 0.0423273 -0.000450301 -9.42565e-05 -9.59659e-06 0.0005 5.23599e-07 
109 1 0.0199714 0.0223265 0.00871609 -0.00114475 -0.0256025 -0.0311407 1.81008e-06 -1.08929e-05 1.17402e-06 0.0005 5.23599e-07 
110 1 0.0224115 0.0231449 0.0132461 -0.00527999 0.00639041 -0.0042568 -2.17872e-05 4.70068e-06 -1.83236e-05 0.0005 5.23599e-07 
112 1 0.0196314 0.0244084 0.01373 -0.000102016 0.00188295 -0.00406564 -3.64634e-05 1.53313e-05 -1.44945e-05 0.0005 5.23599e-07 
113 1 0.0203373 0.0233299 0.0126255 0.0273562 -0.0181406 0.0813772 -0.00021959 0.000219619 -0.000673927 0.0005 5.23599e-07 
114 1 0.0209698 0.0228853 0.01529 0.0171317 0.00308252 0.0472249 0 0 -5.1365e-06 0.0005 5.23599e-07 
115 1 0.0179253 0.0236866 0.0139653 0.00184745 0.00203898 -0.000525763 1.05719e-06 7.18026e-07 -1.72197e-06 0.0005 5.23599e-07 
116 1 0.0176172 0.0236345 0.0156265 0.00219815 -0.00313586 -0.00775794 -9.4108e-09 -2.0071e-07 -4.90202e-06 0.0005 5.23599e-07 
118 1 0.0174678 0.0149964 0.0152182 -0.00459268 0.0514822 -0.0450281 -7.27059e-07 1.42921e-06 -3.23817e-06 0.0005 5.23599e-07 
119 1 0.0173842 0.0157685 0.0145572 0.00342203 0.03306 0.034527 -1.45587e-06 2.13364e-06 -1.29519e-06 0.0005 5.23599e-07 
121 1 0.0180342 0.0141781 0.0147017 -0.0101224 -0.00921232 -0.0171728 0 0 -5.1365e-06 0.0005 5.23599e-07 
122 1 0.0200381 0.0234175 0.0114048 0.00393781 -0.00289447 -0.0353808 2.4072e-05 1.7376e-06 4.13934e-05 0.0005 5.23599e-07 
123 1 0.0203854 0.0237353 0.0167053 0.0218049 0.00744871 0.000936602 1.81663e-07 -9.67791e-08 5.69729e-06 0.0005 5.23599e-07 
124 1 0.023246 0.0201107 0.0158126 -1.46889e-05 0.0481066 -0.0118307 -1.00434e-07 -2.49445e-07 -2.31854e-07 0.0005 5.23599e-07 
125 1 0.014549 0.0217149 0.0171565 0.00252151 0.00391251 -0.00224438 1.27456e-08 -3.89989e-07 -3.89182e-06 0.0005 5.23599e-07 
126 1 0.0174954 0.0231831 0.0147423 0.00370511 -0.00202675 -0.006443 7.81744e-06 2.80044e-06 -1.8149e-06 0.0005 5.23599e-07 
127 1 0.0191161 0.0236433 0.014105 -0.000706222 0.00365908 0.00242901 2.03916e-05 -1.11362e-05 1.37748e-05 0.0005 5.23599e-07 
128 1 0.0171221 0.0240634 0.0144498 0.00385971 -0.000323231 0.00035204 1.87319e-06 -1.04256e-06 3.65932e-06 0.0005 5.23599e-07 
129 1 0.0163038 0.0200255 0.015836 0.0113859 0.00652607 0.000446791 -1.51123e-06 7.04987e-07 -3.40357e-06 0.0005 5.23599e-07 
131 1 0.018572 0.0233402 0.0157529 0.00179528 0.000771641 0.00524429 -3.50822e-07 -5.7967e-06 -1.52934e-07 0.0005 5.23599e-07 
133 1 0.019439 0.0237988 0.0155609 0.00185386 0.00275036 0.00673317 3.08494e-06 1.37837e-06 4.00676e-06 0.0005 5.23599e-07 
134 1 0.0210421 0.0219906 0.0169126 -0.050431 0.116654 -0.0625052 0 0 -5.1365e-06 0.0005 5.23599e-07 
135 1 0.0204279 0.0237953 0.0157083 0.00281509 0.000198707 5.5401e-05 -2.84513e-06 1.09843e-05 -3.95074e-06 0.0005 5.23599e-07 
136 1 0.0186224 0.0207663 0.0164607 0.00712763 -0.00391123 0.00174226 3.87206e-06 -1.0917e-06 -5.07695e-06 0.0005 5.23599e-07 
138 1 0.0184478 0.0240738 0.0164205 4.89298e-05 0.00106946 0.00259115 -6.01514e-06 -7.28643e-06 1.15525e-05 0.0005 5.23599e-07 
141 1 0.0259078 0.0388479 0.0471409 0.0467537 0.0698737 -0.102215 0 0 -5.1365e-06 0.0005 5.23599e-07 
142 1 0.0157227 0.0224109 0.0144276 0.0119484 0.00252518 -0.00270367 -2.16169e-06 4.54458e-06 -1.27269e-06 0.0005 5.23599e-07 
143 1 0.0196276 0.0231612 0.0148152 0.00236583 0.00482353 0.00213761 7.51289e-06 6.6882e-06 -7.37212e-06 0.0005 5.23599e-07 
144 1 0.0225769 0.0193221 0.0159342 -0.000129822 0.0496067 -0.000187035 -7.96618e-07 -3.96488e-07 -2.33684e-06 0.0005 5.23599e-07 
145 1 0.0231492 0.0162052 0.0159311 0.0142538 0.0098191 0.00793951 6.21939e-07 3.07359e-07 -4.24431e-06 0.0005 5.23599e-07 
146 1 0.0191756 0.0152265 0.0151188 -0.00551845 -0.00355817 -0.00326173 -1.97518e-06 5.92999e-06 -2.37602e-06 0.0005 5.23599e-07 
147 1 0.0243011 0.0207969 0.0165471 -0.0402755 0.0254962 -0.0613259 0 0 -5.1365e-06 0.0005 5.23599e-07 
148 1 0.0153378 0.0202752 0.0157723 0.0111089 0.00703108 -0.00233589 7.78231e-07 -1.56563e-06 -3.84565e-06 0.0005 5.23599e-07 
149 1 0.0182607 0.0157174 0.0150345 0.000686948 0.0415769 0.0422295 3.51002e-06 3.22146e-06 6.36576e-06 0.0005 5.23599e-07 
150 1 0.0173718 0.0194315 0.0159263 0.0101794 0.000594902 -0.00147049 2.29066e-08 7.00438e-07 -2.39991e-06 0.0005 5.23599e-07 
151 1 0.021172 0.0146497 0.0144336 0.0143489 -0.0286152 -0.0567154 0 0 -5.1365e-06 0.0005 5.23599e-07 
152 1 0.0163712 0.014214 0.0139349 -0.00199752 0.00725049 -0.00752861 7.39677e-07 4.69317e-06 8.18386e-06 0.0005 5.23599e-07 
153 1 0.0197632 0.0158414 0.0156442 0.00503203 -0.00103007 -0.0117531 3.09299e-06 5.67565e-06 -5.79925e-06 0.0005 5.23599e-07 
154 1 0.0152347 0.0222912 0.0167119 0.00497187 0.00479639 0.000383635 1.43282e-06 1.87916e-06 -2.16772e-06 0.0005 5.23599e-07 
155 1 0.0165499 0.0220152 0.0148255 0.0127931 -0.000494539 -0.00534977 -2.67904e-06 1.68143e-05 5.98517e-06 0.0005 5.23599e-07 
156 1 0.0225616 0.0180169 0.0158339 -0.000172096 0.0461199 0.0114838 -5.32572e-07 9.52432e-07 -6.93323e-07 0.0005 5.23599e-07 
157 1 0.0171549 0.0147059 0.0143141 -0.00218047 0.0266543 -0.038337 1.6457e-06 1.42711e-06 6.87815e-07 0.0005 5.23599e-07 
158 1 0.020765 0.0158717 0.0156831 8.93933e-05 0.00213435 0.00195394 3.55448e-08 -1.35365e-06 2.34331e-06 0.0005 5.23599e-07 
159 1 0.0170409 0.0230788 0.0174146 0.002473 0.0198018 -0.0165042 1.73593e-06 2.20214e-06 -3.33118e-06 0.0005 5.23599e-07 
160 1 0.0170179 0.022489 0.0166074 0.00642886 0.00213581 -0.00286481 5.44394e-06 6.4568e-06 5.13602e-06 0.0005 5.23599e-07 
161 1 0.0194605 0.0193775 0.0173708 -0.0157697 0.0235329 0.0702664 0 0 -5.1365e-06 0.0005 5.23599e-07 
162 1 0.0184367 0.0189817 0.0174407 -0.000909329 0.0587983 0.0640657 0 0 -5.1365e-06 0.0005 5.23599e-07 
163 1 0.0164489 0.0188022 0.0159477 -2.26141e-08 0.0496869 0.00234802 -1.04175e-09 -7.25106e-08 -3.53181e-07 0.0005 5.23599e-07 
164 1 0.0200675 0.014761 0.0152546 0.000622044 0.00540045 -0.00770635 -2.40241e-07 -9.44578e-07 -2.96155e-06 0.0005 5.23599e-07 
165 1 0.0155406 0.0146008 0.014349 -0.00331002 -0.00184672 0.00136498 7.45549e-07 3.5371e-07 -2.69574e-06 0.0005 5.23599e-07 
166 1 0.0214859 0.0155133 0.0162764 -0.00233366 -0.00107869 0.000993377 -4.12778e-06 7.99521e-07 4.12713e-06 0.0005 5.23599e-07 
167 1 0.0164168 0.0218895 0.017136 -0.0281111 0.0245691 -0.0141571 0 0 -5.1365e-06 0.0005 5.23599e-07 
168 1 0.0200091 0.0228877 0.0156977 0.0053408 0.00138631 0.00027733 1.49591e-05 -5.34787e-07 -1.04959e-05 0.0005 5.23599e-07 
169 1 0.014824 0.0204313 0.0166157 0.00857404 0.00606911 -0.00292016 -6.94393e-07 2.25161e-06 1.29433e-06 0.0005 5.23599e-07 
170 1 0.0175981 0.0180011 0.0158341 1.99366e-05 0.0439186 0.0105235 -1.20251e-09 4.89117e-07 -2.84261e-07 0.0005 5.23599e-07 
171 1 0.0220387 0.0170767 0.0155148 0.0050922 0.0222956 0.0108101 0 0 -5.1365e-06 0.0005 5.23599e-07 
172 1 0.0160978 0.0209521 0.0155146 0.00724827 0.0021436 -0.000920023 2.82827e-06 -3.24459e-06 3.06323e-06 0.0005 5.23599e-07 
173 1 0.0176652 0.0210402 0.0163681 0.00909753 -0.00428642 -0.000815165 1.58611e-05 2.8211e-06 4.17175e-06 0.0005 5.23599e-07 
174 1 0.0192977 0.0222504 0.0165675 0.00523697 -0.00206144 0.00272184 3.84381e-06 6.66629e-06 -3.59528e-06 0.0005 5.23599e-07 
175 1 0.0148024 0.0220157 0.0158496 0.00706031 0.00862847 -0.00701897 2.00328e-06 4.66908e-06 -8.99935e-07 0.0005 5.23599e-07 
177 1 0.0167133 0.0234275 0.0160024 0.00190914 0.00296322 -0.00784902 -1.05773e-06 2.23299e-06 4.78793e-06 0.0005 5.23599e-07 
178 1 0.0155935 0.0232051 0.0154962 0.0017086 8.3218e-05 -0.00236577 -1.60516e-06 -9.5538e-07 -1.50309e-06 0.0005 5.23599e-07 
179 1 0.0167043 0.0239235 0.0168705 0.00140312 -0.00136072 -0.00503911 -8.71198e-08 -3.25526e-06 1.17472e-06 0.0005 5.23599e-07 
180 1 0.0180103 0.0226 0.0153846 0.00464542 0.000679077 0.00327111 5.11208e-06 1.30132e-05 2.46377e-06 0.0005 5.23599e-07 
181 1 0.017571 0.0233214 0.0165752 0.0108158 -0.00142322 -0.00627125 3.30093e-07 3.02965e-07 -5.41856e-06 0.0005 5.23599e-07 
182 1 0.0181128 0.0217394 0.0169747 -0.0244001 0.023449 -0.00666426 0 0 -5.1365e-06 0.0005 5.23599e-07 
183 1 0.0185169 0.0219148 0.0159092 0.00683487 -0.00576748 -0.000491828 -1.50711e-06 -5.03568e-06 -2.58391e-06 0.0005 5.23599e-07 
184 1 0.0183699 0.0227085 0.0165016 0.00384277 -0.0106163 -0.00676751 0 0 -5.1365e-06 0.0005 5.23599e-07 
185 1 0.0143152 0.0212361 0.0163103 0.00554384 0.00433856 -0.00246991 2.23195e-06 2.82849e-07 3.86875e-07 0.0005 5.23599e-07 
186 1 0.0156337 0.0215338 0.0161955 0.00529739 0.00310874 0.0015233 3.72515e-07 2.80292e-06 -2.18629e-06 0.0005 5.23599e-07 
187 1 0.0159709 0.0228994 0.0164149 0.00537112 6.35555e-05 -0.00827367 1.10537e-06 -1.66624e-06 -2.82239e-06 0.0005 5.23599e-07 
188 1 0.0165179 0.0219284 0.0159478 0.0064431 -0.00128682 0.00200956 3.08407e-06 6.03942e-06 -3.61436e-06 0.0005 5.23599e-07 
189 1 0.0176675 0.0242066 0.0170313 -0.00239965 -0.000901437 -0.000635387 4.60423e-07 -2.44218e-07 6.52592e-07 0.0005 5.23599e-07 
190 1 0.0172026 0.0250488 0.0201313 -0.0741511 -0.0577899 0.0628534 0 0 -5.1365e-06 0.0005 5.23599e-07 
