# vtk DataFile Version 3.0
LIGGGHTS particles timestep 1600000
ASCII
DATASET POLYDATA
POINTS 297 float
0.0228957 0.0234626 0.0144373
0.0171939 0.0235789 0.0155786
0.0255996 0.0186035 0.0161454
0.0180224 0.0233791 0.0121902
0.016882 0.0025345 0.0451791
0.0192089 0.0169775 0.0154554
0.017309 0.0238279 0.0123865
0.0242777 0.020482 0.0156598
0.020567 0.0240702 0.0128611
0.0196754 0.015381 0.0140069
0.0172029 0.0233942 0.0114823
0.0212382 0.0150515 0.00988262
0.0173213 0.0243841 0.0134762
0.017928 0.0242185 0.016878
0.0247128 0.0209114 0.0154797
0.0207965 0.0141475 0.0130914
0.021438 0.023942 0.0131891
0.0220536 0.0184936 0.00721388
0.0190171 0.0244701 0.0137589
0.0190317 0.0146192 0.0143873
0.0211798 0.0157486 0.00870425
0.0193946 0.0139737 0.0130141
0.0192966 0.0240424 0.0127816
0.0189853 0.0179433 0.0158091
0.0211006 0.0146794 0.0123012
0.0171413 0.0225974 0.0153969
0.0201167 0.0146445 0.0121269
0.0201539 0.0166822 0.0152603
0.0184755 0.023174 0.0165792
0.0217544 0.0232739 0.0156391
0.0181122 0.0244545 0.013836
0.0203913 0.0237582 0.0137311
0.0296905 0.0254806 0.035049
0.0194563 0.0160697 0.0148006
0.0216812 0.0190873 0.00721382
0.0211167 0.0243565 0.013956
0.0193285 0.0245259 0.0172321
0.0221526 0.0237251 0.0138221
0.0240738 0.0216121 0.0151016
0.0225547 0.0150108 0.0156803
0.0201081 0.0229997 0.0149025
0.0218373 0.0148465 0.0129564
0.0167895 0.0240799 0.0144401
0.0202207 0.0241118 0.0163592
0.0230973 0.0233803 0.0111766
0.0219418 0.0237931 0.0147992
0.0227278 0.01463 0.0143112
0.019054 0.0235831 0.0138485
0.0226395 0.0225918 0.00910072
0.0181043 0.0234154 0.0113509
0.0198836 0.0244704 0.0135081
0.0252601 0.0214469 0.0165067
0.0205392 0.0151504 0.00965952
0.0214816 0.0152763 0.0161861
0.0241371 0.0155116 0.0154149
0.0180788 0.023585 0.0138748
0.0203381 0.0148038 0.0108805
0.0241759 0.0219374 0.0165267
0.0198998 0.0148803 0.0130741
0.017382 0.0233357 0.0145385
0.0235171 0.0230447 0.0151
0.0193794 0.0234949 0.0157915
0.0225272 0.0200806 0.018875
0.0218614 0.014397 0.0138491
0.0250231 0.0165035 0.0160382
0.0181165 0.0238044 0.0158911
0.0226049 0.0150952 0.0166754
0.0197242 0.0240667 0.01441
0.0257918 0.0207081 0.0169367
0.0184517 0.0224085 0.0174211
0.0183052 0.0210631 0.0155164
0.0210444 0.0163407 0.0081434
0.0182667 0.0240345 0.0129048
0.0191009 0.0232262 0.0147846
0.0145681 0.0230166 0.0149395
0.0235391 0.0230276 0.0132061
0.0209218 0.0157332 0.0144635
0.0200146 0.0222872 0.0179452
0.0162209 0.0215786 0.016095
0.0199463 0.0167153 0.0166141
0.0140006 0.0224587 0.0155448
0.0207009 0.0187989 0.0159406
0.0206727 0.013728 0.0139906
0.0191 0.0222195 0.0146139
0.0211184 0.0147274 0.0144418
0.0200077 0.0218996 0.0149317
0.0173108 0.0227975 0.0163618
0.0234993 0.0232519 0.0104796
0.0133821 0.0202255 0.0173065
0.018671 0.0227775 0.0138507
0.0189012 0.0241229 0.0164234
0.0171904 0.0218064 0.0160065
0.020751 0.0233025 0.0160258
0.0201551 0.0175972 0.0157543
0.0153819 0.023292 0.0154448
0.0196284 0.010235 0.0256399
0.016915 0.0241071 0.0175227
0.0250366 0.0177042 0.0157513
0.017733 0.0227945 0.013827
0.0195181 0.0231716 0.0130946
0.0165788 0.0153544 0.0162588
0.0212587 0.0235314 0.0140813
0.0181416 0.0218693 0.0149536
0.0159668 0.0235979 0.0141521
0.0172822 0.0238225 0.0133059
0.0238861 0.022264 0.0145958
0.022526 0.0228668 0.0151501
0.0191057 0.0234893 0.0118159
0.0185204 0.0206118 0.0167669
0.0195097 0.0224814 0.0166428
0.0162813 0.0236324 0.0151716
0.018403 0.0216183 0.0163616
0.0168051 0.0238126 0.0164697
0.0170544 0.014327 0.0137973
0.0214439 0.0221938 0.0188922
0.0246503 0.0217606 0.0153155
0.0188179 0.0137654 0.0138786
0.0226754 0.0229017 0.00954756
0.0204406 0.0200528 0.0158284
0.0234541 0.0229167 0.00948317
0.0202109 0.0223427 0.0158134
0.0219823 0.0150073 0.0148604
0.0234694 0.0150099 0.0148644
0.0191976 0.0144824 0.0155504
0.0231823 0.0219769 0.0166155
0.0210138 0.0227311 0.0152447
0.0175461 0.0231669 0.0128843
0.0163133 0.0154004 0.0152758
0.021422 0.0212895 0.0171196
0.0203666 0.0174394 0.0175117
0.0241874 0.022634 0.015845
0.0186727 0.0145238 0.0176208
0.025347 0.0199467 0.0164625
0.0167676 0.0229049 0.0183029
0.0199488 0.0144187 0.0140334
0.0223329 0.0224528 0.0170469
0.0210394 0.0171048 0.0155004
0.0182324 0.0238528 0.0148267
0.0219216 0.0201015 0.00733894
0.0253993 0.0207733 0.0156153
0.0194878 0.0203417 0.0158704
0.0209697 0.0237035 0.0150194
0.0177496 0.0193113 0.017453
0.0206327 0.015171 0.0136888
0.0207855 0.0215758 0.0161173
0.0192269 0.0225356 0.0155541
0.0246981 0.0193379 0.0159471
0.0228211 0.0231004 0.0100751
0.0161255 0.0229707 0.0162721
0.0174148 0.0212117 0.0167828
0.0182357 0.0243955 0.0189773
0.0153462 0.0155746 0.0150905
0.0129076 0.0206095 0.0196533
0.015303 0.0146574 0.0146015
0.0161453 0.02266 0.0153219
0.0136114 0.0204401 0.0157376
0.0220494 0.0234048 0.0165855
0.0191587 0.015482 0.0155529
0.0145214 0.0152809 0.0146066
0.0219142 0.0222591 0.0156563
0.015134 0.0152502 0.0138135
0.0199493 0.0159679 0.0159301
0.0126888 0.0200609 0.0158269
0.0215187 0.016203 0.0167573
0.020237 0.0150653 0.0147718
0.0170303 0.0216102 0.0177399
0.0176812 0.0188705 0.0207325
0.0171131 0.0172159 0.0187915
0.0159347 0.016243 0.0164009
0.0202171 0.0213188 0.0173239
0.0138631 0.0178623 0.0174511
0.0162573 0.0207421 0.0189556
0.0193014 0.0234647 0.0170621
0.015211 0.022316 0.0155792
0.0208489 0.0145302 0.016393
0.017618 0.0168982 0.016406
0.0174395 0.0146952 0.0158702
0.0230912 0.0181366 0.0185078
0.0240151 0.0224925 0.0188374
0.0150707 0.0237866 0.0191084
0.0139594 0.0212116 0.0219438
0.0224231 0.021431 0.0161852
0.0198733 0.0271671 0.0281198
0.0202097 0.0210366 0.0154843
0.0243421 0.0213445 0.016039
0.0217594 0.0145639 0.0168304
0.0159273 0.0156833 0.0178026
0.0228907 0.0161596 0.0158814
0.0146501 0.0162867 0.015
0.0168272 0.0148456 0.0146215
0.0210071 0.0157716 0.0154588
0.0188408 0.0190632 0.0159426
0.0182147 0.0153247 0.0152403
0.0177276 0.0232707 0.0174959
0.0237814 0.0165486 0.0161199
0.0189397 0.0165018 0.0163224
0.0201921 0.0207796 0.0164812
0.011995 0.01849 0.0215171
0.0182265 0.0143279 0.0153699
0.0187197 0.017501 0.0167468
0.0180173 0.0142053 0.0135573
0.0181717 0.0224595 0.0158705
0.0225661 0.0162895 0.0168183
0.0218927 0.0161171 0.0158341
0.0181125 0.0160938 0.0159038
0.0160856 0.0144284 0.0140228
0.0185114 0.0201437 0.0158415
0.0212498 0.0224803 0.0163701
0.0192331 0.0213774 0.0152882
0.0210635 0.0147567 0.0154398
0.0232617 0.0205065 0.0165539
0.0201197 0.0148133 0.0157662
0.0193314 0.0212477 0.016279
0.0151784 0.0205056 0.0179124
0.0232316 0.0155313 0.0173211
-0.0022554 0.0200546 0.0535198
0.0178669 0.0206264 0.0175319
0.0180277 0.0146601 0.014448
0.0214858 0.0204712 0.0165442
0.0184667 0.0200781 0.0199401
0.0136408 0.0216299 0.0151168
0.0181573 0.0228658 0.0149544
0.0139612 0.0156073 0.0153679
0.0183647 0.0213616 0.0199175
0.0215828 0.0175298 0.0264876
0.0161867 0.0200783 0.0203785
0.0157761 0.0197467 0.0184448
0.017829 0.0170462 0.0251005
0.0197244 0.0186038 0.0160326
0.0191783 0.0221719 0.0279709
0.0179497 0.0158568 0.0195503
0.0169423 0.0218894 0.0195543
0.0193669 0.0231578 0.0267461
0.0171385 0.0198365 0.029434
0.0220084 0.019851 0.0253627
0.0200309 0.0219762 0.0289268
0.0226257 0.0188297 0.0208179
0.0201646 0.0231648 0.0233098
0.0206947 0.0232319 0.0259239
0.0171541 0.0151369 0.0249662
0.0193139 0.0185347 0.0251922
0.0229379 0.0181772 0.0284587
0.0157168 0.0192946 0.0276796
0.0198847 0.0207864 0.0183105
0.0157582 0.0206978 0.0256347
0.0196655 0.0162549 0.0253447
0.0184883 0.0202613 0.0262301
0.0173648 0.0186375 0.0275452
0.0171947 0.0231327 0.0197658
0.0208702 0.0219483 0.026096
0.0216681 0.0204391 0.0226073
0.0221917 0.021245 0.0242425
0.0174041 0.0230338 0.0270467
0.01967 0.0186017 0.0271135
0.0205531 0.0175965 0.024017
0.013929 0.0169913 0.0154544
0.0158625 0.0237493 0.0201825
0.0202304 0.0153111 0.0166301
0.0191913 0.0235991 0.0201802
0.0227172 0.0174287 0.0166603
0.0180764 0.0168487 0.017763
0.0200572 0.0153213 0.0184726
0.0206835 0.017002 0.0260367
0.0188509 0.0232991 0.0183521
0.0164672 0.0161975 0.0197852
0.0215505 0.0182918 0.0204372
0.0174656 0.0178989 0.0308521
0.0213047 0.0222373 0.0246499
0.0151147 0.0172589 0.0179595
0.0159407 0.017941 0.0215989
0.0149694 0.0183324 0.0255339
0.0195394 0.0206572 0.0212333
0.0200336 0.0201166 0.0174717
0.0214877 0.0185159 0.0257961
0.0177135 0.0151418 0.0230012
0.0185544 0.0184247 0.0282826
0.0160151 0.0156868 0.0258052
0.0148922 0.0193486 0.0262504
0.0172191 0.0180305 0.0224698
0.0195021 0.0169913 0.0234026
0.0184411 0.0214011 0.0259562
0.0188709 0.0149406 0.0284497
0.0210161 0.0162086 0.0268568
0.0156139 0.0164404 0.0303838
0.016218 0.0164448 0.0230774
0.0177254 0.0176999 0.0196358
0.017269 0.0156249 0.0154701
0.0210819 0.0237594 0.0169121
0.0202567 0.0158466 0.0307993
0.0201768 0.0180519 0.020829
0.0198009 0.0230552 0.0307218
0.0160612 0.0197825 0.0243947
0.0219474 0.0163928 0.0200227
0.0151788 0.0208905 0.0244475
0.0145576 0.0195551 0.0225984
0.0164307 0.0226373 0.0236212
0.0207558 0.0193781 0.0306032

VERTICES 297 594
1 0
1 1
1 2
1 3
1 4
1 5
1 6
1 7
1 8
1 9
1 10
1 11
1 12
1 13
1 14
1 15
1 16
1 17
1 18
1 19
1 20
1 21
1 22
1 23
1 24
1 25
1 26
1 27
1 28
1 29
1 30
1 31
1 32
1 33
1 34
1 35
1 36
1 37
1 38
1 39
1 40
1 41
1 42
1 43
1 44
1 45
1 46
1 47
1 48
1 49
1 50
1 51
1 52
1 53
1 54
1 55
1 56
1 57
1 58
1 59
1 60
1 61
1 62
1 63
1 64
1 65
1 66
1 67
1 68
1 69
1 70
1 71
1 72
1 73
1 74
1 75
1 76
1 77
1 78
1 79
1 80
1 81
1 82
1 83
1 84
1 85
1 86
1 87
1 88
1 89
1 90
1 91
1 92
1 93
1 94
1 95
1 96
1 97
1 98
1 99
1 100
1 101
1 102
1 103
1 104
1 105
1 106
1 107
1 108
1 109
1 110
1 111
1 112
1 113
1 114
1 115
1 116
1 117
1 118
1 119
1 120
1 121
1 122
1 123
1 124
1 125
1 126
1 127
1 128
1 129
1 130
1 131
1 132
1 133
1 134
1 135
1 136
1 137
1 138
1 139
1 140
1 141
1 142
1 143
1 144
1 145
1 146
1 147
1 148
1 149
1 150
1 151
1 152
1 153
1 154
1 155
1 156
1 157
1 158
1 159
1 160
1 161
1 162
1 163
1 164
1 165
1 166
1 167
1 168
1 169
1 170
1 171
1 172
1 173
1 174
1 175
1 176
1 177
1 178
1 179
1 180
1 181
1 182
1 183
1 184
1 185
1 186
1 187
1 188
1 189
1 190
1 191
1 192
1 193
1 194
1 195
1 196
1 197
1 198
1 199
1 200
1 201
1 202
1 203
1 204
1 205
1 206
1 207
1 208
1 209
1 210
1 211
1 212
1 213
1 214
1 215
1 216
1 217
1 218
1 219
1 220
1 221
1 222
1 223
1 224
1 225
1 226
1 227
1 228
1 229
1 230
1 231
1 232
1 233
1 234
1 235
1 236
1 237
1 238
1 239
1 240
1 241
1 242
1 243
1 244
1 245
1 246
1 247
1 248
1 249
1 250
1 251
1 252
1 253
1 254
1 255
1 256
1 257
1 258
1 259
1 260
1 261
1 262
1 263
1 264
1 265
1 266
1 267
1 268
1 269
1 270
1 271
1 272
1 273
1 274
1 275
1 276
1 277
1 278
1 279
1 280
1 281
1 282
1 283
1 284
1 285
1 286
1 287
1 288
1 289
1 290
1 291
1 292
1 293
1 294
1 295
1 296

POINT_DATA 297
SCALARS id int 1
LOOKUP_TABLE default
1
2
3
4
5
6
7
8
9
10
11
12
13
14
15
16
17
18
19
20
21
22
23
24
25
26
27
28
29
30
31
32
33
34
35
36
37
38
39
40
41
42
43
44
45
46
48
49
50
51
52
53
54
55
56
57
58
59
60
61
62
63
64
65
66
67
68
69
70
71
72
73
74
75
76
77
78
79
80
81
82
83
84
85
86
87
88
89
90
91
92
93
95
96
97
98
99
100
101
102
103
104
105
106
107
108
109
110
111
112
113
114
115
116
117
118
119
120
121
122
123
124
125
126
127
128
129
130
131
132
133
134
135
136
137
138
139
140
141
142
143
144
145
146
147
148
149
150
151
152
153
154
155
156
157
158
159
160
161
162
163
164
165
166
167
168
169
170
171
172
173
174
175
176
177
178
179
180
181
182
183
184
185
186
187
188
189
190
191
192
193
194
195
196
197
198
200
201
202
203
204
205
206
207
208
209
210
211
212
213
214
215
216
217
218
219
220
221
222
223
224
225
226
227
228
229
230
231
232
233
234
235
236
237
238
239
240
241
242
243
244
245
246
247
248
249
250
251
252
253
254
255
256
257
258
259
260
261
262
263
264
265
266
267
268
269
270
271
272
273
274
275
276
277
278
279
280
281
282
283
284
285
286
287
288
289
290
291
292
293
294
295
296
297
298
299
300

SCALARS type int 1
LOOKUP_TABLE default
1
1
1
1
1
1
1
1
1
1
1
1
1
1
1
1
1
1
1
1
1
1
1
1
1
1
1
1
1
1
1
1
1
1
1
1
1
1
1
1
1
1
1
1
1
1
1
1
1
1
1
1
1
1
1
1
1
1
1
1
1
1
1
1
1
1
1
1
1
1
1
1
1
1
1
1
1
1
1
1
1
1
1
1
1
1
1
1
1
1
1
1
1
1
1
1
1
1
1
1
1
1
1
1
1
1
1
1
1
1
1
1
1
1
1
1
1
1
1
1
1
1
1
1
1
1
1
1
1
1
1
1
1
1
1
1
1
1
1
1
1
1
1
1
1
1
1
1
1
1
1
1
1
1
1
1
1
1
1
1
1
1
1
1
1
1
1
1
1
1
1
1
1
1
1
1
1
1
1
1
1
1
1
1
1
1
1
1
1
1
1
1
1
1
1
1
1
1
1
1
1
1
1
1
1
1
1
1
1
1
1
1
1
1
1
1
1
1
1
1
1
1
1
1
1
1
1
1
1
1
1
1
1
1
1
1
1
1
1
1
1
1
1
1
1
1
1
1
1
1
1
1
1
1
1
1
1
1
1
1
1
1
1
1
1
1
1
1
1
1
1
1
1
1
1
1
1
1
1
1
1
1
1
1
1
1
1
1
1
1
1
1
1
1
1
1
1

SCALARS radius float 1
LOOKUP_TABLE default
0.0005
0.0005
0.0005
0.0005
0.0005
0.0005
0.0005
0.0005
0.0005
0.0005
0.0005
0.0005
0.0005
0.0005
0.0005
0.0005
0.0005
0.0005
0.0005
0.0005
0.0005
0.0005
0.0005
0.0005
0.0005
0.0005
0.0005
0.0005
0.0005
0.0005
0.0005
0.0005
0.0005
0.0005
0.0005
0.0005
0.0005
0.0005
0.0005
0.0005
0.0005
0.0005
0.0005
0.0005
0.0005
0.0005
0.0005
0.0005
0.0005
0.0005
0.0005
0.0005
0.0005
0.0005
0.0005
0.0005
0.0005
0.0005
0.0005
0.0005
0.0005
0.0005
0.0005
0.0005
0.0005
0.0005
0.0005
0.0005
0.0005
0.0005
0.0005
0.0005
0.0005
0.0005
0.0005
0.0005
0.0005
0.0005
0.0005
0.0005
0.0005
0.0005
0.0005
0.0005
0.0005
0.0005
0.0005
0.0005
0.0005
0.0005
0.0005
0.0005
0.0005
0.0005
0.0005
0.0005
0.0005
0.0005
0.0005
0.0005
0.0005
0.0005
0.0005
0.0005
0.0005
0.0005
0.0005
0.0005
0.0005
0.0005
0.0005
0.0005
0.0005
0.0005
0.0005
0.0005
0.0005
0.0005
0.0005
0.0005
0.0005
0.0005
0.0005
0.0005
0.0005
0.0005
0.0005
0.0005
0.0005
0.0005
0.0005
0.0005
0.0005
0.0005
0.0005
0.0005
0.0005
0.0005
0.0005
0.0005
0.0005
0.0005
0.0005
0.0005
0.0005
0.0005
0.0005
0.0005
0.0005
0.0005
0.0005
0.0005
0.0005
0.0005
0.0005
0.0005
0.0005
0.0005
0.0005
0.0005
0.0005
0.0005
0.0005
0.0005
0.0005
0.0005
0.0005
0.0005
0.0005
0.0005
0.0005
0.0005
0.0005
0.0005
0.0005
0.0005
0.0005
0.0005
0.0005
0.0005
0.0005
0.0005
0.0005
0.0005
0.0005
0.0005
0.0005
0.0005
0.0005
0.0005
0.0005
0.0005
0.0005
0.0005
0.0005
0.0005
0.0005
0.0005
0.0005
0.0005
0.0005
0.0005
0.0005
0.0005
0.0005
0.0005
0.0005
0.0005
0.0005
0.0005
0.0005
0.0005
0.0005
0.0005
0.0005
0.0005
0.0005
0.0005
0.0005
0.0005
0.0005
0.0005
0.0005
0.0005
0.0005
0.0005
0.0005
0.0005
0.0005
0.0005
0.0005
0.0005
0.0005
0.0005
0.0005
0.0005
0.0005
0.0005
0.0005
0.0005
0.0005
0.0005
0.0005
0.0005
0.0005
0.0005
0.0005
0.0005
0.0005
0.0005
0.0005
0.0005
0.0005
0.0005
0.0005
0.0005
0.0005
0.0005
0.0005
0.0005
0.0005
0.0005
0.0005
0.0005
0.0005
0.0005
0.0005
0.0005
0.0005
0.0005
0.0005
0.0005
0.0005
0.0005
0.0005
0.0005
0.0005
0.0005
0.0005
0.0005
0.0005
0.0005
0.0005
0.0005
0.0005
0.0005
0.0005
0.0005
0.0005
0.0005
0.0005
0.0005
0.0005
0.0005
0.0005
0.0005
0.0005

SCALARS mass float 1
LOOKUP_TABLE default
1.46608e-07
1.46608e-07
1.46608e-07
1.46608e-07
1.46608e-07
1.46608e-07
1.46608e-07
1.46608e-07
1.46608e-07
1.46608e-07
1.46608e-07
1.46608e-07
1.46608e-07
1.46608e-07
1.46608e-07
1.46608e-07
1.46608e-07
1.46608e-07
1.46608e-07
1.46608e-07
1.46608e-07
1.46608e-07
1.46608e-07
1.46608e-07
1.46608e-07
1.46608e-07
1.46608e-07
1.46608e-07
1.46608e-07
1.46608e-07
1.46608e-07
1.46608e-07
1.46608e-07
1.46608e-07
1.46608e-07
1.46608e-07
1.46608e-07
1.46608e-07
1.46608e-07
1.46608e-07
1.46608e-07
1.46608e-07
1.46608e-07
1.46608e-07
1.46608e-07
1.46608e-07
1.46608e-07
1.46608e-07
1.46608e-07
1.46608e-07
1.46608e-07
1.46608e-07
1.46608e-07
1.46608e-07
1.46608e-07
1.46608e-07
1.46608e-07
1.46608e-07
1.46608e-07
1.46608e-07
1.46608e-07
1.46608e-07
1.46608e-07
1.46608e-07
1.46608e-07
1.46608e-07
1.46608e-07
1.46608e-07
1.46608e-07
1.46608e-07
1.46608e-07
1.46608e-07
1.46608e-07
1.46608e-07
1.46608e-07
1.46608e-07
1.46608e-07
1.46608e-07
1.46608e-07
1.46608e-07
1.46608e-07
1.46608e-07
1.46608e-07
1.46608e-07
1.46608e-07
1.46608e-07
1.46608e-07
1.46608e-07
1.46608e-07
1.46608e-07
1.46608e-07
1.46608e-07
1.46608e-07
1.46608e-07
1.46608e-07
1.46608e-07
1.46608e-07
1.46608e-07
1.46608e-07
1.46608e-07
1.46608e-07
1.46608e-07
1.46608e-07
1.46608e-07
1.46608e-07
1.46608e-07
1.46608e-07
1.46608e-07
1.46608e-07
1.46608e-07
1.46608e-07
1.46608e-07
1.46608e-07
1.46608e-07
1.46608e-07
1.46608e-07
1.46608e-07
1.46608e-07
1.46608e-07
1.46608e-07
1.46608e-07
1.46608e-07
1.46608e-07
1.46608e-07
1.46608e-07
1.46608e-07
1.46608e-07
1.46608e-07
1.46608e-07
1.46608e-07
1.46608e-07
1.46608e-07
1.46608e-07
1.46608e-07
1.46608e-07
1.46608e-07
1.46608e-07
1.46608e-07
1.46608e-07
1.46608e-07
1.46608e-07
1.46608e-07
1.46608e-07
1.46608e-07
1.46608e-07
1.46608e-07
1.46608e-07
1.46608e-07
1.46608e-07
1.46608e-07
1.46608e-07
1.46608e-07
1.46608e-07
1.46608e-07
1.46608e-07
1.46608e-07
1.46608e-07
1.46608e-07
1.46608e-07
1.46608e-07
1.46608e-07
1.46608e-07
1.46608e-07
1.46608e-07
1.46608e-07
1.46608e-07
1.46608e-07
1.46608e-07
1.46608e-07
1.46608e-07
1.46608e-07
1.46608e-07
1.46608e-07
1.46608e-07
1.46608e-07
1.46608e-07
1.46608e-07
1.46608e-07
1.46608e-07
1.46608e-07
1.46608e-07
1.46608e-07
1.46608e-07
1.46608e-07
1.46608e-07
1.46608e-07
1.46608e-07
1.46608e-07
1.46608e-07
1.46608e-07
1.46608e-07
1.46608e-07
1.46608e-07
1.46608e-07
1.46608e-07
1.46608e-07
1.46608e-07
1.46608e-07
1.46608e-07
1.46608e-07
1.46608e-07
1.46608e-07
1.46608e-07
1.46608e-07
1.46608e-07
1.46608e-07
1.46608e-07
1.46608e-07
1.46608e-07
1.46608e-07
1.46608e-07
1.46608e-07
1.46608e-07
1.46608e-07
1.46608e-07
1.46608e-07
1.46608e-07
1.46608e-07
1.46608e-07
1.46608e-07
1.46608e-07
1.46608e-07
1.46608e-07
1.46608e-07
1.46608e-07
1.46608e-07
1.46608e-07
1.46608e-07
1.46608e-07
1.46608e-07
1.46608e-07
1.46608e-07
1.46608e-07
1.46608e-07
1.46608e-07
1.46608e-07
1.46608e-07
1.46608e-07
1.46608e-07
1.46608e-07
1.46608e-07
1.46608e-07
1.46608e-07
1.46608e-07
1.46608e-07
1.46608e-07
1.46608e-07
1.46608e-07
1.46608e-07
1.46608e-07
1.46608e-07
1.46608e-07
1.46608e-07
1.46608e-07
1.46608e-07
1.46608e-07
1.46608e-07
1.46608e-07
1.46608e-07
1.46608e-07
1.46608e-07
1.46608e-07
1.46608e-07
1.46608e-07
1.46608e-07
1.46608e-07
1.46608e-07
1.46608e-07
1.46608e-07
1.46608e-07
1.46608e-07
1.46608e-07
1.46608e-07
1.46608e-07
1.46608e-07
1.46608e-07
1.46608e-07
1.46608e-07
1.46608e-07
1.46608e-07
1.46608e-07
1.46608e-07
1.46608e-07
1.46608e-07
1.46608e-07
1.46608e-07
1.46608e-07
1.46608e-07
1.46608e-07
1.46608e-07
1.46608e-07
1.46608e-07
1.46608e-07
1.46608e-07
1.46608e-07
1.46608e-07
1.46608e-07

VECTORS velocity float
-0.000352183 0.00013793 0.000308229
0.000342327 -7.02075e-05 -0.000345622
-0.12228 -0.516609 0.228546
0.00400747 0.00116749 -0.00779334
-0.137745 -0.0803545 0.264309
-0.00650553 -0.00913769 0.00189969
0.00269786 0.00124584 -0.00503357
0.000337433 0.0180547 -0.00688544
0.000485065 -0.000112797 0.00282834
0.00239359 0.00636684 0.00892239
0.00427058 -0.00108013 -0.0073845
0.0056412 -0.00239596 0.00953987
-0.000245554 -0.000924366 -0.00101876
0.0542118 -0.00349534 -0.0502165
0.000786752 0.0204484 -0.00839673
0.00478624 -0.000607995 0.00366029
0.000629513 0.000295773 0.000220804
0.0001306 -0.0205253 0.00312077
0.000145021 -5.14781e-05 0.000217861
0.00677212 -0.00255596 -0.00552892
0.000251243 -0.014067 0.0163226
-0.00156512 -0.000920355 0.00152775
-0.00130903 -0.00120746 0.000427874
0.000492539 0.0200526 0.00528487
0.00393808 0.000577074 0.00463174
-0.00023028 6.66595e-05 4.97442e-05
0.00209128 0.00159285 0.0140751
0.0143634 0.0103444 0.00686422
0.0123916 -0.0139097 -0.0223139
-0.00353249 -0.00115614 0.00219905
8.25403e-05 0.000538171 0.000407727
9.82278e-05 0.00286065 -0.000178427
0.0179126 -0.00606552 -0.0270471
0.00184315 0.0108264 0.0107972
0.000805136 -0.0190272 0.000817238
0.000218722 0.000252903 1.83536e-05
-0.00800532 -0.0148967 -0.0281707
0.000135521 -0.000553865 1.52301e-05
-0.000286931 0.0131872 -0.00779969
0.00836787 0.00191131 0.00487454
-0.00192584 0.041411 -0.0253844
0.00510543 0.000237825 0.00230084
0.000906643 -0.00193863 0.000801689
-0.0119246 -0.0028432 -0.0144218
0.00445397 -0.000577447 -0.00980065
-0.00203158 0.00240056 0.00321998
0.00389582 0.000213275 0.00244549
0.0018035 -0.000653611 0.00299473
0.00207806 -0.00913397 -0.0180338
0.00413056 -0.00127642 -0.00616253
7.54686e-05 0.000648746 0.000213103
-0.0517491 0.0364983 -0.00267307
0.00113848 -0.00835621 0.0143038
0.0106495 0.00709099 0.00528338
0.00390454 0.0028725 0.00364365
0.00202735 0.00395052 -0.000616374
0.000645507 -0.00492539 0.0217838
-0.00314705 0.00139617 -0.000262732
0.00225232 0.0050273 0.0138014
0.00490386 -0.00239938 0.000740482
-0.000958133 0.00137869 0.000509409
0.020324 0.0105437 -0.0105533
-2.67795 -0.362004 2.81695
4.02407e-05 -0.000985733 0.00144466
0.00578804 0.0106092 0.00474295
0.0034468 -0.00286777 -0.00756222
0.00993087 0.012417 0.00439766
0.000854939 0.000231834 4.80036e-05
-0.00659332 0.00175064 -0.0106027
0.0447074 0.0299444 -0.0132628
0.0102079 0.00291997 0.00345703
0.000415893 -0.0171587 0.0130549
0.00186716 -0.0010363 0.000528437
0.0048098 -0.0035205 0.0199021
-0.000594694 -0.00137706 -0.000297809
0.00146298 0.00864597 -0.0162829
0.00418241 0.00868591 0.0098126
0.102769 0.105468 -0.0632228
0.00150241 0.00167734 -0.00196517
0.0366529 -0.125903 -0.00904756
-0.000520545 -0.000969674 0.000274381
5.25244e-05 0.0204948 0.0012989
-0.000825354 -0.00109267 0.0019397
0.00150976 0.0149569 -0.0149506
0.00772367 0.00023958 0.00654989
-1.15277e-05 0.0178601 -0.0148141
0.0207524 0.00849339 -0.00526738
0.00112719 -0.000704876 -0.00565666
-0.00734476 -0.101655 0.0229927
0.000977693 0.000333835 -0.00266017
0.00427468 -0.00425592 -0.0141254
0.000755101 0.00103694 -0.000204715
0.015623 -0.00546863 -0.032855
0.0153488 -0.0164487 -0.0143429
0.000293625 -0.00194652 0.000635575
-0.0608049 0.0232757 -0.0273402
0.0172613 0.0315033 -0.0167509
0.00055393 0.0196292 0.006196
0.000858448 0.00828911 -0.0129691
0.00573101 -0.000867035 0.00415708
-0.0321722 0.00367305 -0.0653037
-0.000108274 9.46328e-05 -0.000294858
0.00850159 -0.00145565 -0.00010733
-0.000260409 0.000653557 0.000145217
0.000760519 -0.00138732 -0.00784392
0.00206861 0.0047281 -0.00241188
-0.00170863 0.00109988 0.00149814
3.26295e-06 0.00145305 -0.00170197
0.0403825 0.0185156 -0.0491272
0.0893928 0.04873 -0.0577925
0.000977164 -0.00153026 0.00127217
0.00423268 -0.00348748 0.00201924
-0.000401968 0.0119816 -0.00374126
-0.00242121 0.00902959 0.0224928
0.101309 -0.0223738 0.116605
-0.000114611 0.00728266 -0.00143593
0.000108058 -0.000666865 1.71243e-05
0.00421343 -0.00805893 -0.0124926
0.0021092 0.0168577 -0.00378385
-0.00397024 -0.0165222 -0.00541906
0.00361114 0.0263766 -0.00588059
0.00715579 0.00152754 0.00492062
0.00326153 0.00246888 0.00128892
0.00135 0.000553675 0.00287104
-0.0550464 0.00221502 0.000168717
-0.0041043 -0.000677835 0.000160967
0.00127411 0.00355947 -0.0131521
-0.00996071 0.0191222 0.0129249
0.0511643 0.0300725 0.0174996
0.201453 -0.115808 0.0436846
-0.00210216 0.00118652 -0.00117943
-0.0891766 0.059274 -0.12019
-0.0617024 -0.0151543 -0.00130855
0.0994773 -0.0317822 0.0583989
0.00153542 0.00292728 -0.0314278
0.0228707 -0.0134662 -0.062797
-1.09835e-05 0.015059 0.0077238
0.00412275 0.000378352 -0.00194075
0.00019825 -0.0209881 -0.00633973
-0.000360787 -0.00822957 0.00586531
0.00159096 0.0066065 0.0112824
-0.00199914 0.000322147 0.000150062
0.0278865 -0.0422129 0.018336
0.00527472 0.0054933 0.0112499
0.0154463 0.0165118 0.000503698
0.02231 0.0118961 -0.0164628
0.0298876 -0.0106913 0.00965242
0.00154504 0.00484243 0.00112097
0.00677751 0.00636832 -0.00132311
0.00628883 0.00140685 -0.0185138
-0.00375257 0.0351249 0.10348
-0.0100325 0.0131901 0.00773843
-0.230955 -0.0907294 0.218926
-0.0098033 0.00471105 0.00790589
-0.00127478 -0.00304906 0.00164614
0.00636066 0.00136156 2.23719e-06
0.0400204 -0.0231828 -0.0127763
-0.000466054 0.0024613 0.00618041
-0.00570544 0.010391 0.00163375
-0.00805504 0.00298948 -0.00314737
-0.000365504 -0.000577466 0.00140576
0.00205831 0.00280058 -0.00882014
0.00289746 0.00466587 -0.00142078
-0.0137488 0.0254509 -0.0053939
0.00347087 -0.00570734 0.00322883
0.0463628 -0.0372108 0.0365768
0.0156777 -0.181755 0.0146555
0.0775468 -0.243965 0.161679
0.0210655 0.00700067 -0.250864
0.0112172 0.0415373 -0.0168636
-0.0185748 -0.279751 0.0393338
0.0290056 0.0979314 -0.292103
-0.0043081 0.00213279 -0.00364018
-0.0016107 -0.00161865 -0.000742996
0.0075411 0.00393732 -0.0126084
0.000342464 -0.0549155 -0.0462696
-0.00416681 0.0172888 -0.0164372
-1.50102 -1.26889 2.15072
-0.604517 1.57593 1.89671
0.00896054 0.0711613 0.0873424
-0.13124 -0.0545058 0.406556
0.0109797 0.0107215 -0.00575984
0.420754 0.423765 0.882386
-5.51333e-06 0.0190205 -0.00961341
-0.00456005 0.00805989 -0.00340722
0.0124656 0.00327113 -0.000478176
-0.0944229 -0.24343 -0.0232631
0.00044101 0.0122661 0.00866236
-0.00874739 0.0141718 0.0110595
-0.00865067 0.0127979 0.0183711
0.00731701 0.00936377 0.00838168
2.07893e-05 0.020502 -3.09982e-05
0.00541789 -0.00668971 -0.0140301
0.0355694 -0.0104639 -0.0208164
0.00679172 0.00553157 0.00266768
0.0711751 -0.10991 -0.000693399
0.0227274 0.025826 -0.0129874
0.00861015 -0.167325 0.252582
0.00154912 -0.00438622 0.0136316
0.110389 -0.0225764 0.0321343
-0.00190004 0.00991973 0.0227749
0.0026713 -0.00132185 0.000917279
-0.00900233 -0.000911973 0.00398523
0.00107699 0.0147094 0.00880566
-0.00238953 -0.0236972 -0.0217906
-0.00514361 0.00227819 0.0141058
0.00394403 0.00402522 0.00561036
-0.0140281 0.00934094 -0.0103174
-0.00080479 0.0229322 -0.0142151
0.00677525 0.00349847 0.00743808
-1.28055e-05 0.02389 -0.00674201
0.0015663 0.00435139 -0.0105984
0.0117852 0.0217754 -0.0138861
0.0103953 0.0803402 0.135055
0.0115251 0.0231775 -0.00516228
-0.362044 -0.150888 0.436224
0.0346171 -0.00034506 -0.0354146
0.0107619 0.0151787 0.0181002
0.0159431 0.00998395 0.0036784
0.378435 0.209025 -0.0722245
-0.000407464 -0.000698066 -8.86023e-05
0.00720311 -0.000711695 -9.63668e-05
-0.00703464 0.018296 -0.00357372
0.0 -0.0 -0.03
0.0 -0.0 -0.03
0.0 -0.0 -0.03
0.0 -0.0 -0.03
0.0 -0.0 -0.03
-0.000670126 0.0152389 -0.018259
0.0 -0.0 -0.03
0.0 -0.0 -0.03
0.0 -0.0 -0.03
0.0 -0.0 -0.03
0.0 -0.0 -0.03
0.0 -0.0 -0.03
0.0 -0.0 -0.03
0.0 -0.0 -0.03
0.0 -0.0 -0.03
0.0 -0.0 -0.03
0.0 -0.0 -0.03
0.0 -0.0 -0.03
0.0 -0.0 -0.03
0.0 -0.0 -0.03
0.0 0.0 -0.0572865
0.0 -0.0 -0.03
0.0 -0.0 -0.03
0.0 -0.0 -0.03
0.0 -0.0 -0.03
0.0 -0.0 -0.03
0.0 -0.0 -0.03
0.0 -0.0 -0.03
0.0 -0.0 -0.03
0.0 -0.0 -0.03
0.0 -0.0 -0.03
0.0 -0.0 -0.03
0.000645206 0.00778797 0.00298789
-0.0177032 0.190969 0.0851008
0.00764809 0.00433473 -0.00920364
0.0 -0.0 -0.03
-0.00312904 0.0199567 -0.0307714
0.0 0.0 -0.118422
0.0 -0.0 -0.03
0.0 -0.0 -0.03
-0.00519068 0.140713 0.0383884
0.0 -0.0 -0.03
0.0 -0.0 -0.03
0.0 -0.0 -0.03
0.0 -0.0 -0.03
0.0 0.0 -0.100843
0.0 -0.0 -0.03
0.0 -0.0 -0.03
0.0 -0.0 -0.03
0.157373 -0.0284127 -0.0545362
0.0 -0.0 -0.03
0.0 -0.0 -0.03
0.0 -0.0 -0.03
0.0 -0.0 -0.03
0.0 -0.0 -0.03
0.0 -0.0 -0.03
0.0 -0.0 -0.03
0.0 -0.0 -0.03
0.0 -0.0 -0.03
0.0 -0.0 -0.03
0.0 -0.0 -0.03
0.0 -0.0 -0.03
0.0 -0.0 -0.03
0.00426744 -0.00800443 -0.00688404
0.070642 0.015791 -0.0759386
0.0 -0.0 -0.03
0.0 -0.0 -0.03
0.0 -0.0 -0.03
0.0 -0.0 -0.03
0.0 -0.0 -0.03
0.0 -0.0 -0.03
0.0 -0.0 -0.03
0.0 -0.0 -0.03
0.0 -0.0 -0.03

VECTORS force float
9.46796e-07 -1.42118e-06 -9.32753e-07
3.87832e-07 -3.34944e-08 2.19675e-07
0.0 0.0 -1.43822e-06
-3.81876e-07 -4.12177e-07 1.14571e-07
0.0 0.0 -1.43822e-06
0.0 0.0 -1.43822e-06
1.68938e-08 -1.76818e-07 -5.24849e-07
2.76096e-07 -9.06672e-06 3.47255e-06
2.00727e-07 -8.3053e-08 4.68555e-08
-2.60576e-07 -6.50888e-07 -1.65894e-07
3.23932e-07 -4.47217e-08 6.83589e-07
-1.71118e-06 2.59984e-07 -1.90623e-07
1.33026e-07 -1.01903e-06 5.23776e-07
-8.26148e-08 -3.85375e-07 -1.11548e-06
-4.08235e-06 -1.8575e-05 1.08655e-05
8.04207e-07 4.44845e-08 3.77205e-07
-5.09638e-08 1.03613e-07 -6.63987e-07
-1.13821e-06 -6.59191e-07 1.50842e-07
3.11604e-06 -1.44989e-06 9.40985e-07
-8.58808e-08 -4.14329e-07 -6.55097e-07
2.53883e-07 -5.86115e-07 1.11899e-07
1.55898e-07 -1.88559e-08 3.15217e-08
-7.20197e-06 2.27672e-06 1.36688e-05
-1.50059e-10 4.38584e-09 -1.33383e-08
-1.70866e-08 -8.33046e-07 -1.2051e-06
1.71794e-06 5.84725e-07 -4.16623e-07
1.17531e-06 -8.83517e-07 -1.85023e-06
-8.66078e-07 -4.59241e-07 4.70283e-07
7.5523e-07 -7.31795e-08 -2.81104e-07
1.19919e-05 -2.71326e-06 2.0832e-06
1.34782e-06 -1.60457e-06 3.512e-06
1.94443e-07 2.71406e-07 -2.6157e-07
0.0 0.0 -1.43822e-06
1.9878e-06 1.08528e-06 5.33078e-07
2.06314e-07 1.12882e-06 -8.14298e-07
-7.21712e-08 2.19506e-07 -4.03018e-07
-4.95023e-06 7.16376e-06 5.28683e-05
-5.36525e-07 8.06216e-07 -1.56311e-06
9.76464e-08 -8.52648e-07 3.72566e-07
-4.13048e-07 -1.63573e-07 -1.78294e-06
0.0 0.0 -1.43822e-06
9.0474e-07 2.00048e-07 1.60604e-06
-6.73819e-06 2.72128e-06 -1.33801e-06
0.0 0.0 -1.43822e-06
3.47312e-05 7.07264e-06 0.000140129
0.0 0.0 -1.43822e-06
5.93077e-07 1.34815e-07 1.87713e-06
1.03951e-05 -2.21836e-06 1.13009e-05
0.000129656 0.000206822 -1.94132e-05
6.81033e-07 -2.04271e-08 1.93471e-07
6.18724e-07 1.47478e-07 -1.06979e-06
0.0 0.0 -1.43822e-06
7.16538e-09 3.89796e-08 -1.52929e-08
1.55726e-06 -5.65195e-07 2.58689e-06
-1.73412e-07 -2.22555e-07 -1.731e-07
8.18536e-06 -8.29569e-06 4.37889e-06
6.34265e-09 1.41655e-08 2.97557e-09
5.98058e-06 -3.12883e-06 -1.57923e-06
1.49611e-07 -5.78614e-07 4.08464e-07
-1.12503e-05 2.02176e-06 -7.62732e-06
1.81509e-07 -4.1151e-07 7.30938e-07
-3.36551e-08 4.54346e-07 -9.86314e-07
0.0 0.0 -1.43822e-06
-3.86435e-07 -2.01132e-07 2.43358e-06
4.10191e-07 1.88767e-07 4.08037e-07
1.86938e-08 -2.68766e-07 -3.6608e-08
-1.64717e-06 -1.01216e-06 -2.89198e-06
4.31562e-06 -9.00254e-07 9.00559e-06
-1.89514e-06 9.02093e-09 8.87143e-07
0.0 0.0 -1.43822e-06
-5.64718e-06 4.79425e-06 4.8905e-06
-2.87329e-06 3.90761e-06 -1.27388e-06
-2.04896e-06 -4.03257e-06 2.20539e-07
0.0 0.0 -1.43822e-06
-6.34156e-08 -3.42453e-07 3.10786e-07
2.95338e-09 -2.99427e-08 1.31244e-08
-2.08882e-06 1.94723e-06 4.05588e-07
0.0 0.0 -1.43822e-06
-4.39412e-06 -3.90352e-06 1.57842e-06
0.0 0.0 -1.43822e-06
-3.04335e-07 2.37643e-07 2.24918e-07
-5.68628e-08 2.04564e-08 8.57466e-09
-2.25584e-07 4.48593e-08 -9.36576e-07
-1.64135e-07 -1.09881e-07 -4.06231e-07
3.14587e-07 1.49721e-06 2.4366e-06
3.72411e-07 1.07451e-06 -9.02995e-07
4.71979e-08 7.44468e-08 8.63931e-07
4.20854e-05 -4.98505e-05 -0.000138718
0.0 0.0 -1.43822e-06
3.28862e-06 -7.38431e-06 2.07826e-05
5.01961e-06 -7.67939e-06 -5.20356e-05