# vtk DataFile Version 3.0
LIGGGHTS particles timestep 54000000
ASCII
DATASET POLYDATA
POINTS 88 float
0.0387146 0.0187573 0.00575718
0.0512791 0.0167806 0.0151527
0.0657504 0.019873 0.00578573
0.102543 0.017821 0.00581645
0.0387828 0.0214812 0.00622724
0.0546244 0.0225646 0.00897601
0.0815251 0.0188155 0.00575115
0.10448 0.0180949 0.00580371
0.0619038 0.0222958 0.0143497
0.0458896 0.0168235 0.00626774
0.0564645 0.0213699 0.00635393
0.0670667 0.0232148 0.0106636
0.136461 0.0187737 0.0058834
0.0719136 0.0200394 0.00735971
0.0642637 0.0197348 0.005762
0.0830207 0.0197197 0.00608582
0.0793161 0.0192087 0.00581236
0.0170063 0.0201419 0.00601043
0.0631808 0.0196931 0.0057741
0.0448733 0.0164686 0.00634571
0.0741542 0.021314 0.0151332
0.0632892 0.0167646 0.0151279
0.0556756 0.0229616 0.0132974
0.0567728 0.0187561 0.0157259
0.0755271 0.0158454 0.0142575
0.0829173 0.0222111 0.0066532
0.0357086 0.0161117 0.00660683
0.061617 0.0194189 0.0057813
0.0572757 0.0168675 0.0151968
0.0683175 0.0209368 0.015377
0.0776266 0.018579 0.00727068
0.0439552 0.0161318 0.00656318
0.0782305 0.0203396 0.00602091
0.0768516 0.0155289 0.00904788
0.0732237 0.018766 0.005768
0.0634251 0.0187112 0.00581462
0.0683032 0.0181933 0.00578444
0.0578558 0.0150805 0.0131724
0.0606894 0.0189134 0.00588092
0.0600736 0.0205047 0.00742435
0.0286258 0.0183498 0.00592583
0.0862115 0.0201056 0.00585272
0.0479082 0.0198757 0.00727922
0.0619682 0.017221 0.00607724
0.0611888 0.0233757 0.0114975
0.0238948 0.0168123 0.00667048
0.0470176 0.01787 0.0060864
0.0388539 0.0197419 0.00587248
0.0766607 0.0190533 0.00580856
0.0779381 0.019417 0.00576935
0.0612894 0.0181031 0.0059753
0.0424878 0.0188132 0.00581899
0.0920805 0.0205253 0.0059177
0.0805086 0.0177087 0.008325
0.055651 0.0177812 0.00595299
0.102423 0.0196788 0.00582979
0.0453636 0.0157749 0.00687326
0.377395 0.0174764 0.0084208
0.0507369 0.0203921 0.00594173
0.0587974 0.0155325 0.00910527
0.0440263 0.0170728 0.00623272
0.0647465 0.0154339 0.00925466
0.0706455 0.0151696 0.00973235
0.0824665 0.0205479 0.00623259
0.059059 0.0180876 0.00593586
0.0629553 0.0178294 0.00595037
0.0316007 0.0183082 0.00603438
0.0524789 0.0148962 0.0103304
0.0215463 0.0196109 0.00592744
0.0643041 0.0182053 0.00583362
0.0623985 0.0186635 0.00586235
0.0690739 0.0175763 0.0155377
0.0242602 0.0201274 0.00583803
0.0538862 0.0198235 0.00725839
0.0446405 0.0194012 0.0157572
0.0502383 0.0211937 0.0152338
0.0504712 0.0179279 0.00611076
0.0371638 0.0187263 0.00573865
0.0328558 0.0191954 0.00572294
0.044465 0.0204317 0.00594645
0.0531991 0.0167887 0.00783484
0.066033 0.0188309 0.00577203
0.0833983 0.0210192 0.00634375
0.063351 0.0174343 0.00845396
0.0350698 0.0188001 0.00572051
0.049023 0.0232485 0.0106797
0.0667523 0.0199335 0.00579279
0.0604188 0.0220233 0.00838105

VERTICES 88 176
1 0
1 1
1 2
1 3
1 4
1 5
1 6
1 7
1 8
1 9
1 10
1 11
1 12
1 13
1 14
1 15
1 16
1 17
1 18
1 19
1 20
1 21
1 22
1 23
1 24
1 25
1 26
1 27
1 28
1 29
1 30
1 31
1 32
1 33
1 34
1 35
1 36
1 37
1 38
1 39
1 40
1 41
1 42
1 43
1 44
1 45
1 46
1 47
1 48
1 49
1 50
1 51
1 52
1 53
1 54
1 55
1 56
1 57
1 58
1 59
1 60
1 61
1 62
1 63
1 64
1 65
1 66
1 67
1 68
1 69
1 70
1 71
1 72
1 73
1 74
1 75
1 76
1 77
1 78
1 79
1 80
1 81
1 82
1 83
1 84
1 85
1 86
1 87

POINT_DATA 88
SCALARS id int 1
LOOKUP_TABLE default
1
2
3
8
9
14
18
26
28
32
34
38
46
48
54
56
59
64
65
66
68
70
74
82
83
86
88
89
90
93
100
106
107
108
109
112
113
121
124
125
126
127
129
132
134
137
142
146
149
159
160
163
165
174
182
187
189
193
195
198
201
209
213
215
221
223
226
227
229
240
242
245
246
256
257
258
270
273
274
277
279
280
281
283
291
293
296
298

SCALARS type int 1
LOOKUP_TABLE default
1
1
1
1
1
1
1
1
1
1
1
1
1
1
1
1
1
1
1
1
1
1
1
1
1
1
1
1
1
1
1
1
1
1
1
1
1
1
1
1
1
1
1
1
1
1
1
1
1
1
1
1
1
1
1
1
1
1
1
1
1
1
1
1
1
1
1
1
1
1
1
1
1
1
1
1
1
1
1
1
1
1
1
1
1
1
1
1

SCALARS radius float 1
LOOKUP_TABLE default
0.0005
0.0005
0.0005
0.0005
0.0005
0.0005
0.0005
0.0005
0.0005
0.0005
0.0005
0.0005
0.0005
0.0005
0.0005
0.0005
0.0005
0.0005
0.0005
0.0005
0.0005
0.0005
0.0005
0.0005
0.0005
0.0005
0.0005
0.0005
0.0005
0.0005
0.0005
0.0005
0.0005
0.0005
0.0005
0.0005
0.0005
0.0005
0.0005
0.0005
0.0005
0.0005
0.0005
0.0005
0.0005
0.0005
0.0005
0.0005
0.0005
0.0005
0.0005
0.0005
0.0005
0.0005
0.0005
0.0005
0.0005
0.0005
0.0005
0.0005
0.0005
0.0005
0.0005
0.0005
0.0005
0.0005
0.0005
0.0005
0.0005
0.0005
0.0005
0.0005
0.0005
0.0005
0.0005
0.0005
0.0005
0.0005
0.0005
0.0005
0.0005
0.0005
0.0005
0.0005
0.0005
0.0005
0.0005
0.0005

SCALARS mass float 1
LOOKUP_TABLE default
1.46608e-07
1.46608e-07
1.46608e-07
1.46608e-07
1.46608e-07
1.46608e-07
1.46608e-07
1.46608e-07
1.46608e-07
1.46608e-07
1.46608e-07
1.46608e-07
1.46608e-07
1.46608e-07
1.46608e-07
1.46608e-07
1.46608e-07
1.46608e-07
1.46608e-07
1.46608e-07
1.46608e-07
1.46608e-07
1.46608e-07
1.46608e-07
1.46608e-07
1.46608e-07
1.46608e-07
1.46608e-07
1.46608e-07
1.46608e-07
1.46608e-07
1.46608e-07
1.46608e-07
1.46608e-07
1.46608e-07
1.46608e-07
1.46608e-07
1.46608e-07
1.46608e-07
1.46608e-07
1.46608e-07
1.46608e-07
1.46608e-07
1.46608e-07
1.46608e-07
1.46608e-07
1.46608e-07
1.46608e-07
1.46608e-07
1.46608e-07
1.46608e-07
1.46608e-07
1.46608e-07
1.46608e-07
1.46608e-07
1.46608e-07
1.46608e-07
1.46608e-07
1.46608e-07
1.46608e-07
1.46608e-07
1.46608e-07
1.46608e-07
1.46608e-07
1.46608e-07
1.46608e-07
1.46608e-07
1.46608e-07
1.46608e-07
1.46608e-07
1.46608e-07
1.46608e-07
1.46608e-07
1.46608e-07
1.46608e-07
1.46608e-07
1.46608e-07
1.46608e-07
1.46608e-07
1.46608e-07
1.46608e-07
1.46608e-07
1.46608e-07
1.46608e-07
1.46608e-07
1.46608e-07
1.46608e-07
1.46608e-07

VECTORS velocity float
-8.67024e-15 7.85665e-14 2.00899e-13
0.000284528 0.0140052 0.00850131
-1.36559e-15 3.97329e-14 -1.45083e-13
-9.78476e-16 -4.35256e-15 -1.20042e-13
-2.74939e-19 1.06174e-18 -5.70326e-18
0.000105041 -0.0100806 -0.0170182
1.78642e-20 7.25055e-21 -2.82648e-20
1.50453e-14 2.23467e-14 -1.76072e-13
0.000103241 0.010867 -0.0126898
-4.52731e-15 -2.52971e-14 -1.74151e-13
-7.9543e-16 -1.50071e-14 3.21162e-14
0.000199149 -0.00417089 -0.0208562
2.02144e-15 3.12917e-15 -2.90522e-14
0.000891724 -0.0183079 -0.00353006
-1.62366e-15 4.68989e-14 -1.71253e-13
-1.58187e-14 -4.4377e-14 1.90568e-13
1.54153e-14 5.18071e-14 2.19695e-13
1.30172e-14 5.24961e-15 -1.07338e-13
5.21735e-15 7.19433e-14 -1.99483e-13
-2.65712e-17 -1.41616e-16 -9.78876e-16
3.33727e-05 0.0183519 -0.0105544
0.000122055 0.0179768 0.0120632
0.000241553 0.00966797 -0.0193901
0.000453526 0.0208618 -0.000207354
0.00226705 0.0108121 0.011295
2.51542e-15 -1.23326e-14 5.62298e-14
-4.45539e-15 2.8175e-14 7.49236e-14
-4.27969e-15 -1.94397e-14 -1.39039e-13
0.000113303 0.0187307 0.0118196
0.00111657 0.0168263 -0.00727423
4.84617e-05 -0.0217187 0.00162852
1.95552e-16 -2.75166e-15 -2.89975e-15
7.58776e-15 2.09768e-14 -3.92586e-14
0.000139754 -0.0119965 0.0172742
1.0406e-14 -5.92022e-14 -1.63383e-13
-7.3618e-15 -1.81937e-14 -1.43647e-13
2.26748e-15 4.39142e-15 1.52498e-13
0.00102135 0.00406869 0.0140867
-5.13362e-15 -2.31973e-14 -1.66017e-13
0.00213215 -0.0133389 -0.00356745
-1.94459e-14 1.75774e-16 -2.28119e-13
2.60233e-15 -1.48763e-14 1.99836e-13
-0.00057102 -0.0198357 -0.00681994
7.78254e-15 3.47369e-14 2.48762e-13
-1.27628e-05 0.00222285 -0.0225924
-1.55915e-14 -3.19688e-14 -1.04791e-13
-3.12488e-15 -1.7466e-14 -1.20236e-13
-2.83268e-15 1.34613e-14 -6.65668e-14
-9.16301e-15 5.49356e-14 2.11159e-13
2.0547e-15 -1.23982e-14 -4.75864e-14
-6.03836e-15 -2.69497e-14 -1.92995e-13
-4.51473e-15 1.30457e-14 7.16621e-14
-7.84785e-15 -7.28946e-14 1.85342e-13
-0.000706896 0.0174414 -0.0079745
-1.16451e-14 -1.57396e-14 -2.24476e-13
1.50576e-15 2.26934e-15 -1.7845e-14
2.7289e-17 -5.64886e-16 -6.89821e-16
1.19416e-05 0.000295744 0.00128417
-5.7267e-15 -2.04835e-14 -3.07615e-13
-3.34696e-05 -0.0135997 0.0178524
2.29424e-16 -6.63852e-16 -3.64347e-15
0.00122921 -0.00782632 0.0146715
0.000578821 -0.00718245 0.0183271
-1.14256e-14 -3.20898e-14 1.37831e-13
7.18607e-15 -1.49143e-14 -1.83491e-13
-8.57372e-15 -2.1186e-14 -1.67276e-13
1.31698e-14 -4.47314e-14 -1.10006e-13
0.00146915 -0.00472364 0.0154668
-1.81494e-14 8.13655e-15 -1.66092e-13
-7.36451e-15 -1.81924e-14 -1.43647e-13
-4.35285e-15 -1.94143e-14 -1.3904e-13
0.0014157 0.014806 0.00590823
-1.07574e-14 -1.73291e-15 1.75368e-13
5.3284e-05 -0.019643 -0.00312447
0.000707027 0.0193298 -0.00230286
0.000219955 0.0189299 -0.0103953
-3.69851e-15 -1.32326e-14 -1.98725e-13
3.81409e-15 -1.81877e-14 8.9948e-14
8.76271e-16 5.06752e-15 -1.96346e-14
-3.05963e-15 2.53336e-14 -8.03022e-14
-1.02668e-05 -0.0194134 0.0105872
2.19489e-15 -1.03727e-14 -1.76838e-13
2.3685e-14 -4.0251e-14 1.90901e-13
0.000666667 -0.00137265 0.00117048
-7.09801e-15 -4.06742e-14 1.57633e-13
0.000903133 -0.00209921 -0.00790653
3.37753e-16 -9.53866e-15 3.4831e-14
0.000123599 -0.0158759 -0.0173898

VECTORS force float
2.38228e-21 2.96462e-21 -1.05879e-21
-1.00755e-08 7.08278e-08 1.60175e-08
2.43141e-20 2.06464e-21 4.23516e-22
7.7755e-23 -2.64698e-23 0.0
-3.80503e-23 -6.61744e-24 0.0
1.06845e-08 3.57375e-08 1.35479e-07
0.0 0.0 0.0
3.22614e-19 -6.30245e-20 1.88465e-20
-3.30999e-09 -1.96796e-08 4.95718e-10
2.46169e-21 0.0 -2.11758e-22
-1.04178e-19 -2.03288e-20 -1.8423e-20
-1.46763e-09 -1.16506e-08 -2.77676e-09
1.89656e-20 2.83227e-21 8.47033e-22
-4.51037e-09 -1.79263e-08 8.85502e-09
-4.67853e-21 5.29396e-23 0.0
-3.39872e-20 2.2764e-21 -2.32934e-21
-2.6712e-19 -9.05266e-21 1.88465e-20
2.23511e-19 -6.80538e-20 2.35052e-20
-9.5953e-22 1.05879e-22 -2.11758e-22
-2.11758e-22 5.29396e-23 2.11758e-22
-8.26889e-09 -4.13848e-08 1.03027e-08
-5.09815e-10 9.98683e-09 -6.81521e-09
3.34114e-10 -8.64519e-09 -7.65876e-09
-2.73847e-08 1.08037e-07 -1.66765e-08
-1.15097e-08 2.62101e-08 1.99514e-08
-5.17881e-20 4.76456e-21 3.38813e-21
2.79508e-19 3.36696e-20 3.38813e-21
1.47152e-19 -9.92617e-21 -2.96462e-21
-2.08752e-09 1.0176e-08 -7.24184e-09
-1.37611e-08 1.27493e-08 -1.81863e-08
-2.86828e-09 -4.71811e-09 1.17571e-08
-3.83812e-22 0.0 0.0
-1.58819e-22 1.05879e-22 -2.11758e-22
-6.15395e-10 4.96584e-09 1.04373e-08
-5.52424e-20 -1.56172e-20 2.11758e-22
-2.56757e-21 1.1382e-21 0.0
-5.30719e-21 3.51386e-21 0.0
-4.49776e-08 4.22077e-08 9.14215e-08
-1.09479e-19 2.70521e-20 -4.23516e-22
-1.64625e-08 -5.38514e-08 -1.11815e-08
2.64698e-23 -1.53076e-20 0.0
2.81241e-22 2.15729e-21 2.11758e-22
-1.00309e-08 2.76738e-09 3.64201e-08
3.61974e-21 2.64698e-23 0.0
-4.96946e-10 -1.05165e-08 -1.3952e-09
-9.79382e-22 2.11758e-22 0.0
7.86152e-21 -2.22346e-21 0.0
-1.11173e-21 -5.29396e-23 0.0
6.81332e-20 -6.77626e-21 5.29396e-21
2.64698e-23 -1.05879e-22 4.23516e-22
0.0 0.0 0.0
0.0 -1.58819e-22 -2.11758e-22
0.0 0.0 0.0
2.47879e-08 -5.42993e-08 -2.29324e-08
-4.61898e-21 1.01194e-19 -6.77626e-21
-5.58512e-21 -3.17637e-22 -6.35275e-22
1.58819e-22 1.58819e-22 0.0
4.60272e-10 -6.70163e-08 1.39507e-08
1.57826e-21 1.33672e-21 0.0
-7.14411e-10 7.16878e-09 8.82549e-09
-1.19114e-22 0.0 0.0
-8.72132e-09 -6.69767e-09 3.05247e-08
-2.41997e-09 7.13618e-09 1.06968e-08
-3.57342e-21 5.71747e-21 8.47033e-22
-1.56172e-21 -1.98523e-22 0.0
8.86738e-22 -2.38228e-22 0.0
-3.38284e-20 1.00585e-20 -7.6233e-21
1.84581e-09 1.26757e-08 -1.76746e-09
-6.06158e-21 0.0 6.35275e-22
-1.85288e-22 5.29396e-23 0.0
0.0 0.0 0.0
-6.30519e-07 2.20816e-07 -1.30293e-06
0.0 0.0 0.0
1.72477e-09 -8.24027e-09 1.08844e-08
-6.01365e-09 1.4657e-08 -1.18302e-08
-2.16899e-09 -4.24499e-11 -1.20068e-08
-1.33672e-21 -5.29396e-23 0.0
7.18985e-20 5.13514e-21 -2.96462e-21
0.0 0.0 0.0
3.31911e-19 -5.77041e-21 -1.41878e-20
-1.13133e-09 2.18527e-09 1.23045e-08
-2.02428e-20 1.1382e-21 -4.23516e-22
6.88214e-21 -2.64698e-22 -8.47033e-22
1.16232e-08 -5.39797e-10 -1.2012e-08
9.03943e-21 5.39984e-21 2.11758e-21
2.69261e-08 4.17718e-08 3.79978e-08
6.68196e-21 6.35275e-22 2.11758e-22
1.73746e-09 -7.98912e-09 7.26783e-09
