# vtk DataFile Version 3.0
LIGGGHTS particles timestep 54400000
ASCII
DATASET POLYDATA
POINTS 88 float
0.0387146 0.0187573 0.00575718
0.0516363 0.0228619 0.0133985
0.0657504 0.019873 0.00578573
0.102543 0.017821 0.00581645
0.0387828 0.0214812 0.00622724
0.0550534 0.0166372 0.00799132
0.0815251 0.0188155 0.00575115
0.10448 0.0180949 0.00580371
0.0628482 0.023029 0.0100644
0.0458896 0.0168235 0.00626774
0.0564645 0.0213699 0.00635393
0.0675461 0.0182895 0.00732048
0.136461 0.0187737 0.0058834
0.0722552 0.0149092 0.0113846
0.0642637 0.0197348 0.005762
0.0830207 0.0197197 0.00608582
0.0793161 0.0192087 0.00581236
0.0170063 0.0201419 0.00601043
0.0631808 0.0196931 0.0057741
0.0448733 0.0164686 0.00634571
0.0745752 0.0223382 0.00874197
0.063612 0.0229214 0.0132471
0.0559976 0.0205133 0.00742854
0.0570566 0.0232922 0.0107211
0.075872 0.0223982 0.0141978
0.0829173 0.0222111 0.0066532
0.0357086 0.0161117 0.00660683
0.061617 0.0194189 0.0057813
0.0575469 0.0230711 0.013133
0.0685979 0.0225478 0.00905462
0.0779981 0.0149251 0.0123801
0.0439552 0.0161318 0.00656318
0.0782305 0.0203396 0.00602091
0.077156 0.0170229 0.0152869
0.0732237 0.018766 0.005768
0.0634251 0.0187112 0.00581462
0.0683032 0.0181933 0.00578444
0.0583168 0.0207053 0.0154244
0.0606894 0.0189134 0.00588092
0.0605572 0.0151493 0.00972869
0.0286258 0.0183498 0.00592583
0.0862115 0.0201056 0.00585272
0.0482451 0.0148292 0.0113
0.0619682 0.017221 0.00607724
0.0616599 0.018929 0.00731825
0.0238948 0.0168123 0.00667048
0.0470176 0.01787 0.0060864
0.0388539 0.0197419 0.00587248
0.0766607 0.0190533 0.00580856
0.0779381 0.019417 0.00576935
0.0612894 0.0181031 0.0059753
0.0424878 0.0188132 0.00581899
0.0920805 0.0205253 0.0059177
0.0804378 0.0174871 0.00842196
0.055651 0.0177812 0.00595299
0.102423 0.0196788 0.00582979
0.0453636 0.0157749 0.00687326
0.377397 0.0174432 0.0084489
0.0507369 0.0203921 0.00594173
0.0591157 0.0172539 0.015429
0.0440263 0.0170728 0.00623272
0.0649549 0.017823 0.0156578
0.0709473 0.0178531 0.0155957
0.0824665 0.0205479 0.00623259
0.059059 0.0180876 0.00593586
0.0629553 0.0178294 0.00595037
0.0316007 0.0183082 0.00603438
0.0528308 0.0184817 0.0157463
0.0215463 0.0196109 0.00592744
0.0643041 0.0182053 0.00583362
0.0623985 0.0186635 0.00586235
0.0693344 0.0232206 0.0123208
0.0242602 0.0201274 0.00583803
0.0541838 0.0147888 0.011753
0.0450301 0.0232387 0.0106203
0.0506465 0.0227196 0.00939484
0.0504712 0.0179279 0.00611076
0.0371638 0.0187263 0.00573865
0.0328558 0.0191954 0.00572294
0.044465 0.0204317 0.00594645
0.0535607 0.0156749 0.0142071
0.066033 0.0188309 0.00577203
0.0833983 0.0210192 0.00634375
0.0634131 0.0173259 0.00851146
0.0350698 0.0188001 0.00572051
0.0493499 0.0175401 0.00744634
0.0667523 0.0199335 0.00579279
0.0610213 0.0162033 0.00836836

VERTICES 88 176
1 0
1 1
1 2
1 3
1 4
1 5
1 6
1 7
1 8
1 9
1 10
1 11
1 12
1 13
1 14
1 15
1 16
1 17
1 18
1 19
1 20
1 21
1 22
1 23
1 24
1 25
1 26
1 27
1 28
1 29
1 30
1 31
1 32
1 33
1 34
1 35
1 36
1 37
1 38
1 39
1 40
1 41
1 42
1 43
1 44
1 45
1 46
1 47
1 48
1 49
1 50
1 51
1 52
1 53
1 54
1 55
1 56
1 57
1 58
1 59
1 60
1 61
1 62
1 63
1 64
1 65
1 66
1 67
1 68
1 69
1 70
1 71
1 72
1 73
1 74
1 75
1 76
1 77
1 78
1 79
1 80
1 81
1 82
1 83
1 84
1 85
1 86
1 87

POINT_DATA 88
SCALARS id int 1
LOOKUP_TABLE default
1
2
3
8
9
14
18
26
28
32
34
38
46
48
54
56
59
64
65
66
68
70
74
82
83
86
88
89
90
93
100
106
107
108
109
112
113
121
124
125
126
127
129
132
134
137
142
146
149
159
160
163
165
174
182
187
189
193
195
198
201
209
213
215
221
223
226
227
229
240
242
245
246
256
257
258
270
273
274
277
279
280
281
283
291
293
296
298

SCALARS type int 1
LOOKUP_TABLE default
1
1
1
1
1
1
1
1
1
1
1
1
1
1
1
1
1
1
1
1
1
1
1
1
1
1
1
1
1
1
1
1
1
1
1
1
1
1
1
1
1
1
1
1
1
1
1
1
1
1
1
1
1
1
1
1
1
1
1
1
1
1
1
1
1
1
1
1
1
1
1
1
1
1
1
1
1
1
1
1
1
1
1
1
1
1
1
1

SCALARS radius float 1
LOOKUP_TABLE default
0.0005
0.0005
0.0005
0.0005
0.0005
0.0005
0.0005
0.0005
0.0005
0.0005
0.0005
0.0005
0.0005
0.0005
0.0005
0.0005
0.0005
0.0005
0.0005
0.0005
0.0005
0.0005
0.0005
0.0005
0.0005
0.0005
0.0005
0.0005
0.0005
0.0005
0.0005
0.0005
0.0005
0.0005
0.0005
0.0005
0.0005
0.0005
0.0005
0.0005
0.0005
0.0005
0.0005
0.0005
0.0005
0.0005
0.0005
0.0005
0.0005
0.0005
0.0005
0.0005
0.0005
0.0005
0.0005
0.0005
0.0005
0.0005
0.0005
0.0005
0.0005
0.0005
0.0005
0.0005
0.0005
0.0005
0.0005
0.0005
0.0005
0.0005
0.0005
0.0005
0.0005
0.0005
0.0005
0.0005
0.0005
0.0005
0.0005
0.0005
0.0005
0.0005
0.0005
0.0005
0.0005
0.0005
0.0005
0.0005

SCALARS mass float 1
LOOKUP_TABLE default
1.46608e-07
1.46608e-07
1.46608e-07
1.46608e-07
1.46608e-07
1.46608e-07
1.46608e-07
1.46608e-07
1.46608e-07
1.46608e-07
1.46608e-07
1.46608e-07
1.46608e-07
1.46608e-07
1.46608e-07
1.46608e-07
1.46608e-07
1.46608e-07
1.46608e-07
1.46608e-07
1.46608e-07
1.46608e-07
1.46608e-07
1.46608e-07
1.46608e-07
1.46608e-07
1.46608e-07
1.46608e-07
1.46608e-07
1.46608e-07
1.46608e-07
1.46608e-07
1.46608e-07
1.46608e-07
1.46608e-07
1.46608e-07
1.46608e-07
1.46608e-07
1.46608e-07
1.46608e-07
1.46608e-07
1.46608e-07
1.46608e-07
1.46608e-07
1.46608e-07
1.46608e-07
1.46608e-07
1.46608e-07
1.46608e-07
1.46608e-07
1.46608e-07
1.46608e-07
1.46608e-07
1.46608e-07
1.46608e-07
1.46608e-07
1.46608e-07
1.46608e-07
1.46608e-07
1.46608e-07
1.46608e-07
1.46608e-07
1.46608e-07
1.46608e-07
1.46608e-07
1.46608e-07
1.46608e-07
1.46608e-07
1.46608e-07
1.46608e-07
1.46608e-07
1.46608e-07
1.46608e-07
1.46608e-07
1.46608e-07
1.46608e-07
1.46608e-07
1.46608e-07
1.46608e-07
1.46608e-07
1.46608e-07
1.46608e-07
1.46608e-07
1.46608e-07
1.46608e-07
1.46608e-07
1.46608e-07
1.46608e-07

VECTORS velocity float
-8.66846e-15 7.85696e-14 2.00898e-13
0.00493924 0.00186885 -1.28751e-05
-1.3592e-15 3.9733e-14 -1.45084e-13
-9.78395e-16 -4.35259e-15 -1.20042e-13
-2.71991e-19 1.06118e-18 -5.68737e-18
5.85469e-05 -0.00900422 0.00613358
1.78642e-20 7.25055e-21 -2.82648e-20
1.50011e-14 2.23687e-14 -1.76073e-13
0.00238975 -0.00592683 -0.0136219
-4.52848e-15 -2.52971e-14 -1.74151e-13
-1.01152e-15 -1.51273e-14 3.20538e-14
0.230744 -0.0369799 0.00671781
2.01793e-15 3.1416e-15 -2.90511e-14
8.40812e-05 -0.00162446 0.0221793
-1.62378e-15 4.68994e-14 -1.71253e-13
-1.58238e-14 -4.4365e-14 1.90571e-13
1.52339e-14 5.18743e-14 2.19691e-13
1.2997e-14 5.25472e-15 -1.07341e-13
5.2174e-15 7.19417e-14 -1.99484e-13
-2.60892e-17 -1.41411e-16 -9.78748e-16
0.000461597 -0.0103261 -0.0141318
0.00102776 0.00754619 -0.0179159
0.00282299 -0.00274928 -0.00228325
0.00128067 -0.00261349 -0.0161066
0.000834718 0.0106369 -0.0148839
2.53164e-15 -1.23269e-14 5.62303e-14
-4.44021e-15 2.8192e-14 7.49181e-14
-4.34539e-15 -1.94189e-14 -1.3904e-13
0.00420744 0.00402656 -0.0113648
9.42723e-05 -0.0120327 -0.0183165
1.0034e-05 0.00408886 0.0211891
1.95632e-16 -2.75165e-15 -2.89972e-15
7.4929e-15 2.07145e-14 -3.87673e-14
0.000784611 0.0170229 0.00859937
1.04299e-14 -5.92116e-14 -1.63378e-13
-7.36556e-15 -1.81919e-14 -1.43647e-13
2.27072e-15 4.39039e-15 1.52498e-13
0.00362365 0.00512943 -0.00383281
-5.17397e-15 -2.31872e-14 -1.66018e-13
0.00198899 -0.00484788 0.0137585
-1.94456e-14 2.40116e-16 -2.28118e-13
2.60138e-15 -1.48769e-14 1.99836e-13
0.00016154 0.00010706 0.0198963
7.77815e-15 3.47376e-14 2.48762e-13
0.000140903 -0.0191372 0.00256561
-1.5589e-14 -3.19693e-14 -1.04791e-13
-3.12616e-15 -1.74656e-14 -1.20236e-13
-2.82131e-15 1.34623e-14 -6.65671e-14
-9.17733e-15 5.49336e-14 2.11159e-13
2.0288e-15 -1.22419e-14 -4.69898e-14
-6.03812e-15 -2.69496e-14 -1.92995e-13
-4.51498e-15 1.30454e-14 7.16621e-14
-7.84785e-15 -7.28946e-14 1.85342e-13
0.000495182 0.00693111 -0.00516584
-1.15921e-14 -1.57748e-14 -2.24476e-13
1.49568e-15 2.29153e-15 -1.7843e-14
2.74008e-17 -5.65013e-16 -6.89848e-16
2.83636e-05 -0.00241841 0.000830795
-5.72692e-15 -2.04828e-14 -3.07615e-13
0.000636197 0.016023 0.00788319
2.29613e-16 -6.63857e-16 -3.64347e-15
0.000577065 0.0176797 0.00639906
0.0005547 0.0186036 0.00450688
-1.14689e-14 -3.20803e-14 1.37829e-13
7.18765e-15 -1.49136e-14 -1.83491e-13
-8.57536e-15 -2.11849e-14 -1.67276e-13
1.31754e-14 -4.47179e-14 -1.1001e-13
0.000217974 0.0205757 0.00238244
-1.81493e-14 8.137e-15 -1.66091e-13
-7.3644e-15 -1.81925e-14 -1.43647e-13
-4.35285e-15 -1.94149e-14 -1.3904e-13
-0.000210376 0.00377518 -0.0205996
-1.07557e-14 -1.73293e-15 1.75368e-13
0.000194926 0.00153359 0.0209399
0.00114977 -0.00467304 -0.0175277
5.48869e-05 -0.0104389 -0.019444
-3.69862e-15 -1.32327e-14 -1.98725e-13
3.79498e-15 -1.81894e-14 8.99485e-14
8.75971e-16 5.06752e-15 -1.96346e-14
-2.56849e-15 2.53461e-14 -8.03164e-14
0.000561103 0.013043 0.0173328
2.19514e-15 -1.03739e-14 -1.76838e-13
2.36854e-14 -4.02509e-14 1.90901e-13
0.000785602 -0.00160747 -4.38228e-05
-7.10212e-15 -4.06765e-14 1.57632e-13
0.000288554 -0.0181609 0.00680599
3.3582e-16 -9.53812e-15 3.48311e-14
0.000160184 -0.0157846 0.0142875

VECTORS force float
6.61744e-24 0.0 -2.11758e-22
-7.41118e-08 -3.64879e-07 -7.39358e-07
-2.78214e-20 -3.22931e-21 -4.23516e-22
-3.80503e-23 6.61744e-24 0.0
-2.48154e-24 3.97047e-23 0.0
5.80465e-09 2.34052e-07 -2.04407e-07
0.0 0.0 0.0
-4.78838e-20 7.573e-20 6.56451e-21
-4.60238e-09 -1.61415e-08 -1.47384e-08
1.76686e-21 -2.91168e-22 2.11758e-22
-3.65303e-19 4.36222e-20 1.67289e-20
-0.00595524 0.00240844 0.000535357
9.43648e-21 1.30231e-20 2.11758e-21
-3.00571e-10 1.10422e-08 3.16511e-09
-1.50381e-21 2.11758e-22 2.11758e-22
5.79688e-21 2.38228e-21 6.35275e-22
3.10755e-20 2.07523e-20 -8.04681e-21
4.11605e-20 -5.86173e-20 1.48231e-21
8.07328e-22 0.0 0.0
1.05879e-22 -1.58819e-22 -2.11758e-22
-2.27243e-09 3.711e-08 4.50098e-08
-9.75453e-09 3.67387e-10 -2.3582e-08
2.69845e-08 3.93411e-07 6.67758e-08
-6.53158e-09 -1.90938e-08 -5.10412e-09
-5.25425e-09 7.90001e-09 -2.43766e-08
-1.50878e-21 -1.00585e-21 -2.11758e-22
4.25105e-20 1.927e-20 -5.29396e-21
4.19414e-20 -9.82029e-21 0.0
-7.24151e-09 -3.69409e-08 7.38606e-09
6.26145e-10 -1.22439e-08 2.88607e-09
6.93264e-11 1.21339e-08 1.07455e-09
4.76456e-22 0.0 0.0
5.29396e-23 1.58819e-22 4.23516e-22
-4.97233e-09 1.55869e-08 -5.46753e-09
-7.98593e-20 -7.88799e-20 2.37169e-20
4.63221e-22 -2.38228e-22 0.0
-5.1583e-21 2.19699e-21 0.0
1.25158e-08 -1.61453e-07 1.13154e-07
2.86072e-20 -8.07328e-21 2.11758e-22
-1.07379e-08 -9.78813e-09 4.0362e-08
2.19699e-21 2.73469e-19 2.11758e-22
-1.12827e-20 -3.95723e-21 -2.11758e-22
-7.22054e-10 1.15122e-08 8.34748e-09
6.01526e-21 -7.41154e-22 0.0
5.41723e-09 -7.92067e-08 5.06362e-08
4.76456e-22 1.58819e-22 -2.11758e-22
1.48231e-21 -5.55865e-22 0.0
-1.55642e-20 -6.88214e-22 4.23516e-22
-2.42794e-20 -3.70577e-22 -1.90582e-21
-1.85288e-22 3.70577e-22 0.0
-1.38966e-22 -2.64698e-23 0.0
0.0 0.0 0.0
0.0 0.0 0.0
4.81427e-09 5.63626e-08 -6.35966e-08
-2.55963e-20 -5.55865e-22 2.75286e-21
5.10073e-20 -2.4061e-20 1.27055e-21
-1.05879e-22 0.0 2.11758e-22
4.49362e-11 4.55504e-08 -3.67806e-08
1.25401e-21 5.29396e-22 0.0
-2.77815e-09 6.67996e-09 -1.34233e-08
2.64698e-22 -2.11758e-22 0.0
4.15673e-10 8.98712e-09 -1.37512e-08
-2.87527e-09 1.47363e-08 -7.44141e-09
-6.1132e-20 7.51742e-21 -3.59989e-21
-4.06311e-21 -2.71315e-21 0.0
-2.92491e-21 1.42937e-21 -2.11758e-22
2.04082e-20 6.00335e-20 -2.07523e-20
-1.19803e-09 8.07066e-09 -9.38236e-09
0.0 3.17637e-21 2.11758e-22
-2.38228e-22 2.64698e-23 0.0
0.0 -1.48231e-21 2.11758e-22
4.83301e-09 -1.09544e-08 -1.40835e-08
-8.60268e-22 4.79765e-22 0.0
-9.65787e-10 1.0761e-08 6.49167e-09
-1.05534e-08 -1.43644e-08 -2.33184e-08
4.46218e-10 -1.19038e-08 2.92091e-09
6.4851e-22 2.51463e-22 0.0
2.14114e-19 -1.53525e-21 -9.74088e-21
1.32349e-22 0.0 0.0
5.56534e-19 4.66927e-20 -5.92923e-21
4.7451e-06 3.18324e-05 2.70343e-05
4.67522e-21 -4.7778e-21 4.23516e-22
-1.8423e-20 -6.93508e-21 0.0
4.60387e-09 1.04258e-07 -8.13756e-08
-4.0909e-20 1.45054e-20 2.11758e-21
-1.52313e-08 -1.07744e-07 6.53503e-08
9.08079e-21 3.70577e-22 0.0
-1.11091e-09 3.22572e-09 1.10826e-08
