# vtk DataFile Version 3.0
LIGGGHTS particles timestep 66400000
ASCII
DATASET POLYDATA
POINTS 88 float
0.0387146 0.0187573 0.00575718
0.0515454 0.0203376 0.00592249
0.0657625 0.0198039 0.00576669
0.102543 0.017821 0.00581645
0.0387828 0.0214812 0.00622724
0.191105 0.0203026 0.00593314
0.0818976 0.0186296 0.00576906
0.10448 0.0180949 0.00580371
0.0746205 0.0233343 0.0108954
0.0458896 0.0168235 0.00626774
0.0564645 0.0213699 0.00635393
0.0790639 0.018124 0.00733449
0.136461 0.0187737 0.0058834
0.0819829 0.0176499 0.00599436
0.0652975 0.0207687 0.00603532
0.0830166 0.0197662 0.00609629
0.0793161 0.0192087 0.00581236
0.0170063 0.0201419 0.00601043
0.0643606 0.0210989 0.00615793
0.0448733 0.0164686 0.00634571
0.080527 0.019112 0.00575077
0.07604 0.0201509 0.0155889
0.0615839 0.0172264 0.00608851
0.0634269 0.0163488 0.00649241
0.085142 0.0184899 0.00574639
0.0829173 0.0222111 0.0066532
0.0357086 0.0161117 0.00660683
0.0618809 0.0199413 0.00582959
0.0695452 0.021892 0.0147561
0.0805629 0.0231388 0.0106449
0.0828881 0.0187784 0.00585566
0.0439552 0.0161318 0.00656318
0.0782305 0.0203396 0.00602091
0.0819591 0.0196502 0.00598149
0.0732237 0.018766 0.005768
0.0644815 0.0190744 0.00573853
0.0683453 0.0182317 0.00578271
0.0609817 0.0187588 0.00589337
0.0609012 0.0197493 0.00575757
0.0635066 0.0172168 0.0060025
0.0286258 0.0183498 0.00592583
0.0862115 0.0201056 0.00585272
0.0601285 0.017977 0.00598674
0.0626577 0.0177866 0.00597105
0.0644264 0.0175965 0.00590444
0.0238948 0.0168123 0.00667048
0.042543 0.0198089 0.00582143
0.0388539 0.0197419 0.00587248
0.0766607 0.0190533 0.00580856
0.0779381 0.019417 0.00576935
0.0620021 0.0189487 0.00583492
0.0424897 0.0188104 0.00581963
0.0920805 0.0205253 0.0059177
0.0803443 0.017399 0.00847021
0.0557526 0.0175354 0.00596499
0.102423 0.0196788 0.00582979
0.0453636 0.0157749 0.00687326
0.377394 0.0174928 0.00842213
0.0505919 0.0207133 0.00592302
0.0643723 0.0166398 0.006235
0.0440263 0.0170728 0.00623272
0.0768982 0.016347 0.0148578
0.0810639 0.0181072 0.00595049
0.0824647 0.0205875 0.00624167
0.0595038 0.0223955 0.00675756
0.0635627 0.0182346 0.00586792
0.0316007 0.0183082 0.00603438
0.0584979 0.0201946 0.00586451
0.0215463 0.0196109 0.00592744
0.0690612 0.017564 0.00598647
0.0636055 0.0197465 0.00578044
0.0820542 0.0200612 0.0156169
0.0242602 0.0201274 0.00583803
0.065889 0.0148782 0.0108175
0.0560059 0.0221435 0.00845801
0.061605 0.0205086 0.00742688
0.0504712 0.0179279 0.00611076
0.0371638 0.0187263 0.00573865
0.0328558 0.0191954 0.00572294
0.044465 0.0204317 0.00594645
0.0625701 0.016812 0.0061773
0.066033 0.0188309 0.00577203
0.0833983 0.0210192 0.00634375
0.0635256 0.0174785 0.00843207
0.0350698 0.0188001 0.00572051
0.0604893 0.0160393 0.00855245
0.0667607 0.0199247 0.00579031
0.0735195 0.0202043 0.00737812

VERTICES 88 176
1 0
1 1
1 2
1 3
1 4
1 5
1 6
1 7
1 8
1 9
1 10
1 11
1 12
1 13
1 14
1 15
1 16
1 17
1 18
1 19
1 20
1 21
1 22
1 23
1 24
1 25
1 26
1 27
1 28
1 29
1 30
1 31
1 32
1 33
1 34
1 35
1 36
1 37
1 38
1 39
1 40
1 41
1 42
1 43
1 44
1 45
1 46
1 47
1 48
1 49
1 50
1 51
1 52
1 53
1 54
1 55
1 56
1 57
1 58
1 59
1 60
1 61
1 62
1 63
1 64
1 65
1 66
1 67
1 68
1 69
1 70
1 71
1 72
1 73
1 74
1 75
1 76
1 77
1 78
1 79
1 80
1 81
1 82
1 83
1 84
1 85
1 86
1 87

POINT_DATA 88
SCALARS id int 1
LOOKUP_TABLE default
1
2
3
8
9
14
18
26
28
32
34
38
46
48
54
56
59
64
65
66
68
70
74
82
83
86
88
89
90
93
100
106
107
108
109
112
113
121
124
125
126
127
129
132
134
137
142
146
149
159
160
163
165
174
182
187
189
193
195
198
201
209
213
215
221
223
226
227
229
240
242
245
246
256
257
258
270
273
274
277
279
280
281
283
291
293
296
298

SCALARS type int 1
LOOKUP_TABLE default
1
1
1
1
1
1
1
1
1
1
1
1
1
1
1
1
1
1
1
1
1
1
1
1
1
1
1
1
1
1
1
1
1
1
1
1
1
1
1
1
1
1
1
1
1
1
1
1
1
1
1
1
1
1
1
1
1
1
1
1
1
1
1
1
1
1
1
1
1
1
1
1
1
1
1
1
1
1
1
1
1
1
1
1
1
1
1
1

SCALARS radius float 1
LOOKUP_TABLE default
0.0005
0.0005
0.0005
0.0005
0.0005
0.0005
0.0005
0.0005
0.0005
0.0005
0.0005
0.0005
0.0005
0.0005
0.0005
0.0005
0.0005
0.0005
0.0005
0.0005
0.0005
0.0005
0.0005
0.0005
0.0005
0.0005
0.0005
0.0005
0.0005
0.0005
0.0005
0.0005
0.0005
0.0005
0.0005
0.0005
0.0005
0.0005
0.0005
0.0005
0.0005
0.0005
0.0005
0.0005
0.0005
0.0005
0.0005
0.0005
0.0005
0.0005
0.0005
0.0005
0.0005
0.0005
0.0005
0.0005
0.0005
0.0005
0.0005
0.0005
0.0005
0.0005
0.0005
0.0005
0.0005
0.0005
0.0005
0.0005
0.0005
0.0005
0.0005
0.0005
0.0005
0.0005
0.0005
0.0005
0.0005
0.0005
0.0005
0.0005
0.0005
0.0005
0.0005
0.0005
0.0005
0.0005
0.0005
0.0005

SCALARS mass float 1
LOOKUP_TABLE default
1.46608e-07
1.46608e-07
1.46608e-07
1.46608e-07
1.46608e-07
1.46608e-07
1.46608e-07
1.46608e-07
1.46608e-07
1.46608e-07
1.46608e-07
1.46608e-07
1.46608e-07
1.46608e-07
1.46608e-07
1.46608e-07
1.46608e-07
1.46608e-07
1.46608e-07
1.46608e-07
1.46608e-07
1.46608e-07
1.46608e-07
1.46608e-07
1.46608e-07
1.46608e-07
1.46608e-07
1.46608e-07
1.46608e-07
1.46608e-07
1.46608e-07
1.46608e-07
1.46608e-07
1.46608e-07
1.46608e-07
1.46608e-07
1.46608e-07
1.46608e-07
1.46608e-07
1.46608e-07
1.46608e-07
1.46608e-07
1.46608e-07
1.46608e-07
1.46608e-07
1.46608e-07
1.46608e-07
1.46608e-07
1.46608e-07
1.46608e-07
1.46608e-07
1.46608e-07
1.46608e-07
1.46608e-07
1.46608e-07
1.46608e-07
1.46608e-07
1.46608e-07
1.46608e-07
1.46608e-07
1.46608e-07
1.46608e-07
1.46608e-07
1.46608e-07
1.46608e-07
1.46608e-07
1.46608e-07
1.46608e-07
1.46608e-07
1.46608e-07
1.46608e-07
1.46608e-07
1.46608e-07
1.46608e-07
1.46608e-07
1.46608e-07
1.46608e-07
1.46608e-07
1.46608e-07
1.46608e-07
1.46608e-07
1.46608e-07
1.46608e-07
1.46608e-07
1.46608e-07
1.46608e-07
1.46608e-07
1.46608e-07

VECTORS velocity float
-8.68245e-15 7.85637e-14 2.00899e-13
1.06798e-14 2.65353e-14 3.50781e-13
-1.32108e-15 3.97318e-14 -1.45084e-13
-9.78426e-16 -4.35262e-15 -1.20042e-13
-2.74223e-19 1.05344e-18 -5.70326e-18
-1.12286e-14 -4.37997e-14 9.73363e-14
6.35198e-15 2.15025e-14 9.10979e-14
1.50007e-14 2.2351e-14 -1.76076e-13
0.000388842 -0.00325113 -0.0193951
-4.52799e-15 -2.52972e-14 -1.74151e-13
-1.15522e-15 -1.50235e-14 3.20978e-14
0.00109527 -0.0223898 0.00169991
2.02157e-15 3.13213e-15 -2.90518e-14
1.00304e-14 3.39563e-14 1.43854e-13
-1.12694e-15 3.25659e-14 -1.18914e-13
-1.58213e-14 -4.43666e-14 1.90571e-13
1.5146e-14 5.19299e-14 2.19684e-13
1.30443e-14 5.24493e-15 -1.07335e-13
9.85045e-15 -6.28943e-14 2.05619e-13
-2.61099e-17 -1.41309e-16 -9.78739e-16
1.34877e-14 4.56247e-14 1.93313e-13
0.00157851 0.0167313 -0.00496573
-4.34579e-15 -1.94164e-14 -1.3904e-13
3.10655e-19 3.71619e-18 4.30619e-18
3.31521e-15 -1.89273e-14 2.54251e-13
2.53087e-15 -1.23273e-14 5.62302e-14
-4.5209e-15 2.81683e-14 7.49222e-14
-6.69444e-16 -9.27213e-15 2.56825e-14
0.000304582 0.0166656 -0.0137443
0.00036421 -0.0051561 -0.0197588
-1.80128e-14 -5.05044e-14 2.16941e-13
1.95741e-16 -2.75145e-15 -2.89951e-15
5.39247e-15 1.49092e-14 -2.79013e-14
1.15429e-15 2.42275e-15 -1.04839e-14
1.05469e-14 -5.91649e-14 -1.63388e-13
7.97976e-16 -3.78212e-15 -6.44673e-14
6.30878e-17 1.10975e-16 3.95398e-15
-4.34871e-15 -1.94155e-14 -1.3904e-13
-5.19423e-15 -2.31833e-14 -1.66017e-13
6.10336e-19 1.00467e-18 5.28079e-18
-1.9446e-14 1.82854e-16 -2.28119e-13
2.60375e-15 -1.48768e-14 1.99835e-13
-1.08575e-14 2.26401e-14 2.78394e-13
-3.11231e-15 -7.68543e-15 -6.07275e-14
-2.01967e-19 1.17133e-18 5.45727e-18
-1.55912e-14 -3.19671e-14 -1.04791e-13
-2.66175e-16 2.27395e-15 -7.19993e-15
-2.8188e-15 1.34632e-14 -6.6567e-14
-9.18359e-15 5.49342e-14 2.11159e-13
1.46018e-15 -8.81128e-15 -3.3819e-14
8.00288e-16 3.59097e-15 2.56479e-14
4.52815e-16 -1.31394e-15 -7.19642e-15
-7.84834e-15 -7.28946e-14 1.85342e-13
-2.53204e-05 -0.00492931 0.00334492
-7.0771e-15 -9.57283e-15 -1.36145e-13
1.51548e-15 2.26881e-15 -1.78442e-14
2.73651e-17 -5.65001e-16 -6.89858e-16
2.88248e-05 0.000703164 0.000305621
6.74642e-15 1.89377e-14 2.6288e-13
-8.2465e-16 7.93177e-14 1.99916e-13
2.29714e-16 -6.63953e-16 -3.64325e-15
0.000314617 0.00928289 0.00819366
1.06441e-15 3.60321e-15 1.52614e-14
-1.14336e-14 -3.20947e-14 1.37829e-13
1.74489e-16 -1.68262e-15 4.05538e-15
-2.51863e-15 -6.22197e-15 -4.91282e-14
1.31477e-14 -4.47333e-14 -1.10007e-13
3.22868e-16 4.88325e-15 -1.04409e-14
-1.81493e-14 8.13654e-15 -1.66091e-13
-1.33939e-16 1.37684e-15 3.63418e-15
6.28624e-15 -4.01368e-14 1.31216e-13
0.00248667 0.0069081 0.000760813
-1.07556e-14 -1.7329e-15 1.75368e-13
4.73647e-05 -0.00428178 0.0214052
0.000753119 -0.0136581 -0.0128943
0.00182305 -0.0133084 -0.00412622
-3.69949e-15 -1.32326e-14 -1.98725e-13
3.81361e-15 -1.81878e-14 8.99481e-14
8.76297e-16 5.06752e-15 -1.96346e-14
-2.78167e-15 2.53342e-14 -8.03124e-14
-2.91945e-15 -4.18624e-14 -5.36002e-14
2.20671e-15 -1.03731e-14 -1.76838e-13
2.36856e-14 -4.02508e-14 1.90901e-13
2.94408e-05 -0.00208295 0.000602062
-7.07651e-15 -4.06783e-14 1.57633e-13
0.000370061 -0.0153408 0.0150395
-3.97071e-16 1.19624e-14 -4.36763e-14
0.00354123 -0.0086362 -0.00219249

VECTORS force float
0.0 0.0 0.0
8.67613e-20 -5.0372e-20 4.23516e-22
0.0 0.0 0.0
-3.80503e-23 -6.61744e-24 0.0
-4.79765e-23 -1.05879e-22 0.0
-1.32349e-22 0.0 0.0
-3.97047e-23 0.0 0.0
9.50265e-20 -9.27501e-20 -1.69407e-21
-2.84446e-09 -1.15998e-08 -1.11202e-08
-5.30057e-21 1.32349e-22 0.0
8.89954e-19 -1.15726e-19 -2.81638e-20
-2.26896e-08 -1.94874e-09 6.31342e-09
4.26163e-21 2.12552e-20 2.5411e-21
-2.64698e-23 5.29396e-23 0.0
-4.45023e-22 0.0 0.0
-3.97047e-23 0.0 0.0
-4.51402e-19 5.24631e-20 1.96935e-20
1.32375e-19 -1.93362e-20 1.65171e-20
4.23516e-22 2.11758e-22 -2.11758e-22
5.29396e-23 -5.29396e-23 -2.11758e-22
9.02619e-21 -1.16467e-21 -2.11758e-22
-6.36301e-08 1.63458e-07 -1.00663e-07
4.36751e-22 -9.26442e-22 0.0
2.51463e-22 0.0 1.05879e-22
-4.89691e-22 -9.26442e-23 0.0
4.93661e-21 1.05879e-22 -2.11758e-22
3.09736e-19 1.93229e-20 1.12232e-20
2.31611e-23 0.0 0.0
1.03363e-09 -4.52096e-09 -1.06207e-08
-1.87722e-09 -1.28419e-08 -4.11841e-09
-1.98523e-22 0.0 0.0
4.63221e-22 -1.05879e-22 1.05879e-22
-1.58819e-22 0.0 0.0
-2.54336e-18 7.49624e-19 -4.12929e-20
7.44463e-20 -4.26693e-20 2.13876e-20
0.0 0.0 0.0
2.38228e-22 2.64698e-23 -2.11758e-22
2.32272e-21 1.32349e-22 -2.11758e-22
0.0 0.0 0.0
1.58819e-22 -3.17637e-22 0.0
-2.38228e-22 -2.80443e-20 -2.11758e-22
-1.85619e-21 6.74979e-22 0.0
7.9138e-20 2.60595e-20 4.23516e-22
6.61744e-24 -5.29396e-23 0.0
2.11758e-22 2.11758e-22 0.0
-7.94093e-23 -1.79995e-21 6.35275e-22
3.30872e-23 -5.29396e-23 0.0
0.0 -1.37643e-21 -4.23516e-22
3.46622e-20 -4.23516e-22 -1.48231e-21
2.64698e-22 0.0 2.11758e-22
2.31611e-23 -2.64698e-23 -2.11758e-22
3.97047e-23 0.0 2.11758e-22
0.0 0.0 0.0
-2.65488e-10 -1.26776e-08 9.76728e-10
1.72054e-22 -1.61466e-21 2.11758e-22
-1.93229e-20 1.55642e-20 2.11758e-22
-1.05879e-22 -5.29396e-23 2.11758e-22
1.36397e-10 -2.91026e-08 -2.31828e-09
-6.41892e-22 5.16161e-22 0.0
-1.74122e-21 -1.05879e-22 0.0
1.32349e-23 1.05879e-22 0.0
-7.00386e-06 1.42629e-05 1.11169e-05
0.0 0.0 0.0
-3.55489e-20 9.74088e-21 -6.35275e-22
7.34007e-20 5.18808e-21 0.0
-3.17637e-22 -1.05879e-22 2.11758e-22
9.09237e-20 1.79995e-21 9.74088e-21
0.0 0.0 0.0
0.0 0.0 0.0
0.0 -3.70577e-22 -2.11758e-22
7.41154e-22 0.0 -2.11758e-22
-0.000124331 0.000267946 -0.000223495
0.0 0.0 0.0
-7.20671e-10 1.09494e-08 5.13352e-09
-4.46744e-09 -1.75142e-08 -3.66322e-09
1.2654e-07 -1.97607e-07 6.11758e-08
-1.4029e-21 1.58819e-22 0.0
3.68856e-20 2.96462e-21 6.35275e-22
-1.24408e-21 0.0 0.0
1.88432e-19 -7.41154e-21 -1.01644e-20
-1.98523e-23 0.0 0.0
1.97465e-20 1.85288e-21 2.11758e-22
8.73503e-22 -1.37643e-21 2.11758e-22
-1.33621e-10 3.51589e-08 -3.10888e-08
-2.69065e-20 7.6233e-21 6.35275e-22
-5.48311e-09 3.57691e-09 1.12324e-08
4.8706e-20 -2.38228e-21 -8.47033e-22
3.00563e-06 -2.21427e-06 -6.15328e-07
