# vtk DataFile Version 3.0
LIGGGHTS particles timestep 45400000
ASCII
DATASET POLYDATA
POINTS 88 float
0.0387146 0.0187573 0.00575718
0.0434349 0.0216256 0.0149531
0.0655998 0.0196785 0.0057339
0.102543 0.017821 0.00581645
0.0387828 0.0214812 0.00622724
0.0469053 0.0184118 0.007336
0.0815251 0.0188155 0.00575115
0.10448 0.0180949 0.00580371
0.0560856 0.015345 0.0137895
0.0458896 0.0168235 0.00626774
0.057335 0.017914 0.0058854
0.0581874 0.0158367 0.00872793
0.060628 0.0233247 0.0120167
0.0639097 0.0151941 0.00995829
0.064303 0.0192381 0.00572672
0.0830207 0.0197197 0.00608582
0.0793161 0.0192087 0.00581236
0.0170063 0.0201419 0.00601043
0.0632091 0.0196192 0.00574818
0.0448733 0.0164686 0.00634571
0.0654274 0.0206015 0.00746567
0.0548597 0.0231699 0.0128218
0.0477166 0.0219263 0.00826054
0.0489139 0.0228369 0.0131749
0.0659653 0.0225996 0.00903629
0.0745131 0.0200179 0.0058526
0.0357086 0.0161117 0.00660683
0.061915 0.0187982 0.00585866
0.0492251 0.0222359 0.0144329
0.059233 0.0198194 0.0073075
0.0689998 0.0154652 0.0138795
0.0439552 0.0161318 0.00656318
0.0574123 0.0148351 0.0118709
0.0680363 0.0189658 0.0157803
0.0564443 0.0173888 0.0155006
0.0535669 0.0213359 0.00781193
0.0541581 0.0228905 0.00971293
0.0499845 0.0192154 0.0158106
0.0607121 0.0186881 0.00591167
0.0520826 0.0154989 0.00911093
0.0286258 0.0183498 0.00592583
0.0862115 0.0201056 0.00585272
0.0404704 0.016679 0.00789355
0.056656 0.0165096 0.0149466
0.0531247 0.0194664 0.00723688
0.0238948 0.0168123 0.00667048
0.0470176 0.01787 0.0060864
0.0388539 0.0197419 0.00587248
0.0766607 0.0190533 0.00580856
0.0779397 0.0194308 0.00576583
0.0578151 0.0149345 0.0103295
0.0424878 0.0188132 0.00581899
0.0920805 0.0205253 0.0059177
0.0608041 0.0170526 0.00868015
0.0502788 0.0181195 0.0156952
0.102423 0.0196788 0.00582979
0.0453636 0.0157749 0.00687326
0.377398 0.0174044 0.00846828
0.0507369 0.0203921 0.00594173
0.0504669 0.0173307 0.0154288
0.0440263 0.0170728 0.00623272
0.0559314 0.0194525 0.0157805
0.061705 0.0206744 0.0154692
0.0824671 0.0205532 0.00623389
0.059059 0.0180876 0.00593586
0.0589225 0.0185348 0.00731479
0.0316007 0.0183082 0.00603438
0.0445139 0.0171798 0.0153538
0.0215463 0.0196109 0.00592744
0.0611167 0.0225969 0.0140106
0.0599339 0.0225127 0.00897527
0.0603443 0.0232831 0.0105968
0.0242602 0.0201274 0.00583803
0.0459188 0.0151878 0.0099906
0.0365211 0.0233768 0.0114122
0.0423913 0.0233229 0.0108449
0.0504712 0.0179279 0.00611076
0.0371638 0.0187263 0.00573865
0.0328558 0.0191954 0.00572294
0.044465 0.0204317 0.00594645
0.0456194 0.014896 0.0114037
0.0649374 0.0181463 0.00580862
0.0829947 0.0213806 0.00646753
0.0552341 0.0222441 0.0144021
0.0350698 0.0188001 0.00572051
0.0415093 0.0210396 0.00765317
0.0667523 0.0199335 0.00579279
0.0528378 0.0181753 0.00726624

VERTICES 88 176
1 0
1 1
1 2
1 3
1 4
1 5
1 6
1 7
1 8
1 9
1 10
1 11
1 12
1 13
1 14
1 15
1 16
1 17
1 18
1 19
1 20
1 21
1 22
1 23
1 24
1 25
1 26
1 27
1 28
1 29
1 30
1 31
1 32
1 33
1 34
1 35
1 36
1 37
1 38
1 39
1 40
1 41
1 42
1 43
1 44
1 45
1 46
1 47
1 48
1 49
1 50
1 51
1 52
1 53
1 54
1 55
1 56
1 57
1 58
1 59
1 60
1 61
1 62
1 63
1 64
1 65
1 66
1 67
1 68
1 69
1 70
1 71
1 72
1 73
1 74
1 75
1 76
1 77
1 78
1 79
1 80
1 81
1 82
1 83
1 84
1 85
1 86
1 87

POINT_DATA 88
SCALARS id int 1
LOOKUP_TABLE default
1
2
3
8
9
14
18
26
28
32
34
38
46
48
54
56
59
64
65
66
68
70
74
82
83
86
88
89
90
93
100
106
107
108
109
112
113
121
124
125
126
127
129
132
134
137
142
146
149
159
160
163
165
174
182
187
189
193
195
198
201
209
213
215
221
223
226
227
229
240
242
245
246
256
257
258
270
273
274
277
279
280
281
283
291
293
296
298

SCALARS type int 1
LOOKUP_TABLE default
1
1
1
1
1
1
1
1
1
1
1
1
1
1
1
1
1
1
1
1
1
1
1
1
1
1
1
1
1
1
1
1
1
1
1
1
1
1
1
1
1
1
1
1
1
1
1
1
1
1
1
1
1
1
1
1
1
1
1
1
1
1
1
1
1
1
1
1
1
1
1
1
1
1
1
1
1
1
1
1
1
1
1
1
1
1
1
1

SCALARS radius float 1
LOOKUP_TABLE default
0.0005
0.0005
0.0005
0.0005
0.0005
0.0005
0.0005
0.0005
0.0005
0.0005
0.0005
0.0005
0.0005
0.0005
0.0005
0.0005
0.0005
0.0005
0.0005
0.0005
0.0005
0.0005
0.0005
0.0005
0.0005
0.0005
0.0005
0.0005
0.0005
0.0005
0.0005
0.0005
0.0005
0.0005
0.0005
0.0005
0.0005
0.0005
0.0005
0.0005
0.0005
0.0005
0.0005
0.0005
0.0005
0.0005
0.0005
0.0005
0.0005
0.0005
0.0005
0.0005
0.0005
0.0005
0.0005
0.0005
0.0005
0.0005
0.0005
0.0005
0.0005
0.0005
0.0005
0.0005
0.0005
0.0005
0.0005
0.0005
0.0005
0.0005
0.0005
0.0005
0.0005
0.0005
0.0005
0.0005
0.0005
0.0005
0.0005
0.0005
0.0005
0.0005
0.0005
0.0005
0.0005
0.0005
0.0005
0.0005

SCALARS mass float 1
LOOKUP_TABLE default
1.46608e-07
1.46608e-07
1.46608e-07
1.46608e-07
1.46608e-07
1.46608e-07
1.46608e-07
1.46608e-07
1.46608e-07
1.46608e-07
1.46608e-07
1.46608e-07
1.46608e-07
1.46608e-07
1.46608e-07
1.46608e-07
1.46608e-07
1.46608e-07
1.46608e-07
1.46608e-07
1.46608e-07
1.46608e-07
1.46608e-07
1.46608e-07
1.46608e-07
1.46608e-07
1.46608e-07
1.46608e-07
1.46608e-07
1.46608e-07
1.46608e-07
1.46608e-07
1.46608e-07
1.46608e-07
1.46608e-07
1.46608e-07
1.46608e-07
1.46608e-07
1.46608e-07
1.46608e-07
1.46608e-07
1.46608e-07
1.46608e-07
1.46608e-07
1.46608e-07
1.46608e-07
1.46608e-07
1.46608e-07
1.46608e-07
1.46608e-07
1.46608e-07
1.46608e-07
1.46608e-07
1.46608e-07
1.46608e-07
1.46608e-07
1.46608e-07
1.46608e-07
1.46608e-07
1.46608e-07
1.46608e-07
1.46608e-07
1.46608e-07
1.46608e-07
1.46608e-07
1.46608e-07
1.46608e-07
1.46608e-07
1.46608e-07
1.46608e-07
1.46608e-07
1.46608e-07
1.46608e-07
1.46608e-07
1.46608e-07
1.46608e-07
1.46608e-07
1.46608e-07
1.46608e-07
1.46608e-07
1.46608e-07
1.46608e-07
1.46608e-07
1.46608e-07
1.46608e-07
1.46608e-07
1.46608e-07
1.46608e-07

VECTORS velocity float
-8.66851e-15 7.85637e-14 2.009e-13
0.000657907 0.0156297 -0.0123082
1.51104e-15 -3.73038e-14 1.36238e-13
-9.78437e-16 -4.35252e-15 -1.20042e-13
-2.4312e-19 9.11396e-19 -4.97095e-18
0.000113348 -0.0205351 0.00350791
1.78642e-20 7.25055e-21 -2.82648e-20
1.49818e-14 2.23641e-14 -1.76076e-13
-0.000234766 0.0110891 0.0176392
-4.52754e-15 -2.52972e-14 -1.74151e-13
1.51613e-15 3.92422e-15 9.33133e-14
9.02188e-05 -0.0145061 0.0161735
0.00011759 0.00390855 -0.0218313
-0.0279113 -0.0051716 -0.00397704
3.54336e-15 -1.65544e-14 -2.82398e-13
-1.58304e-14 -4.43757e-14 1.90568e-13
1.52977e-14 5.18449e-14 2.19694e-13
1.30097e-14 5.2576e-15 -1.07339e-13
3.93469e-15 5.47616e-14 -1.51839e-13
-2.65718e-17 -1.41677e-16 -9.79554e-16
0.0018483 -0.015406 -0.00593102
0.000798942 0.00617485 -0.0161576
0.00213133 -0.010655 -0.00905087
0.000899735 0.00480267 -0.0182892
0.00238204 -0.00912637 -0.0140496
-9.34483e-15 -5.05986e-14 2.04282e-13
-4.49063e-15 2.81949e-14 7.4914e-14
-4.36489e-15 -1.94118e-14 -1.3904e-13
0.0021475 0.00561409 -0.00573344
0.000315635 -0.0177129 -0.0034346
0.000649527 0.0102583 0.0169439
1.95913e-16 -2.75167e-15 -2.89974e-15
0.000124831 0.00163511 0.0214729
0.000803716 0.0189839 -7.89654e-05
0.00144599 0.00990176 0.00522796
0.000526272 -0.0177931 -0.0120784
4.70219e-05 -0.00856406 -0.0204638
4.57692e-05 0.022274 0.000210501
-5.16133e-15 -2.31838e-14 -1.66018e-13
0.000166193 -0.0114957 0.017536
-1.94457e-14 1.84577e-16 -2.28119e-13
2.63895e-15 -1.48719e-14 1.99835e-13
0.00399191 -0.013422 0.0108247
0.000258143 0.0172598 0.0124024
8.45026e-05 -0.0207276 -0.0027236
-1.55918e-14 -3.19694e-14 -1.0479e-13
-3.12602e-15 -1.74655e-14 -1.20236e-13
-2.82763e-15 1.34629e-14 -6.65667e-14
-9.16224e-15 5.4931e-14 2.1116e-13
6.28646e-15 -3.81078e-14 -1.46475e-13
0.00116035 -0.00344493 0.0163844
-4.51473e-15 1.30454e-14 7.16621e-14
-7.84776e-15 -7.28946e-14 1.85342e-13
-5.3627e-05 -0.0136138 0.0097709
0.000336953 0.020355 0.00359586
1.49324e-15 2.29284e-15 -1.78431e-14
2.76857e-17 -5.65372e-16 -6.90634e-16
2.19878e-06 0.00409753 -0.00127927
-5.7726e-15 -2.04603e-14 -3.07616e-13
-0.00120967 0.0193317 0.0105168
2.29687e-16 -6.63864e-16 -3.64347e-15
0.000100183 0.0220281 -0.000905481
0.000263076 0.0184861 -0.00827571
-9.53166e-15 -2.67176e-14 1.14755e-13
7.18586e-15 -1.49147e-14 -1.83491e-13
-6.79278e-06 -0.0222115 0.00207218
1.31748e-14 -4.47408e-14 -1.10001e-13
8.90098e-05 0.0191684 0.00998571
-1.81488e-14 8.1435e-15 -1.66091e-13
0.0033034 -0.000715351 0.00325688
3.95732e-05 -0.0124209 -0.0178572
0.000947183 -0.00453223 -0.0165358
-1.07574e-14 -1.72863e-15 1.75368e-13
0.000171648 -0.00748639 0.0201693
0.000325697 -0.000194355 -0.0212629
0.000657528 -0.00370443 -0.0174696
-3.69924e-15 -1.32327e-14 -1.98725e-13
3.8093e-15 -1.8188e-14 8.99482e-14
8.76156e-16 5.06752e-15 -1.96346e-14
-2.71035e-15 2.53319e-14 -8.03157e-14
-0.000468403 -0.00379098 0.0222162
-5.98046e-15 -1.47714e-14 -1.16641e-13
-3.01532e-16 2.90506e-15 -1.31098e-14
0.00111617 0.0122301 -0.0135954
-7.08458e-15 -4.06779e-14 1.57632e-13
7.85035e-05 -0.0192659 -0.0112147
3.30793e-16 -9.53881e-15 3.4831e-14
0.00109363 -0.0162481 0.00415151

VECTORS force float
2.8455e-22 0.0 0.0
-3.7062e-09 2.46534e-09 -1.45895e-08
-3.63407e-19 -1.61995e-20 -1.05879e-21
4.41714e-22 -5.29396e-23 0.0
-3.72231e-23 -4.46678e-23 0.0
1.94024e-10 -3.48877e-09 1.18334e-08
0.0 0.0 0.0
-8.99973e-22 6.53804e-21 0.0
3.26588e-09 1.19467e-08 -2.12096e-09
-1.23746e-21 3.17637e-22 0.0
4.63453e-20 3.61048e-20 -1.90582e-21
-7.22925e-10 5.44304e-09 1.06055e-08
-3.52035e-10 -1.0529e-08 -4.87853e-09
-0.0509535 -0.0148279 -0.0295153
2.7469e-20 5.9557e-22 2.11758e-22
-2.96594e-20 5.13514e-21 -8.47033e-22
7.17993e-20 -4.98691e-20 7.19978e-21
6.48774e-20 8.93355e-21 8.25857e-21
4.9697e-20 7.83505e-21 4.23516e-21
5.82335e-22 2.64698e-22 2.11758e-22
-5.41083e-09 1.98384e-08 3.03119e-09
-4.33931e-10 -4.07226e-08 3.7007e-08
-5.46373e-08 -2.13163e-07 -8.69589e-08
1.48506e-08 -6.48253e-09 -6.54946e-08
-1.02667e-07 -2.52473e-07 -1.79193e-07
-1.59057e-19 1.90582e-20 -1.48231e-21
-1.08526e-20 -2.22346e-20 6.56451e-21
-2.56294e-20 6.11452e-21 0.0
-2.22434e-05 1.32573e-05 -1.19514e-05
-6.2371e-09 -2.95264e-08 1.96713e-08
-6.32616e-08 -3.67673e-07 -5.62612e-07
1.72054e-22 1.05879e-22 0.0
-6.28785e-10 1.12838e-08 3.19845e-09
-4.59597e-09 1.34584e-08 -1.29011e-08
-3.86542e-08 -6.22493e-08 -2.21979e-08
2.06277e-09 -8.03895e-09 7.30495e-09
-9.07205e-10 -1.22086e-08 8.68254e-10
-7.73902e-10 6.77627e-09 -1.13515e-08
1.36922e-19 -2.78197e-20 -2.11758e-22
-6.31891e-10 5.04664e-09 1.15741e-08
2.64698e-23 1.27185e-20 2.11758e-22
1.33672e-21 -2.8058e-21 -4.23516e-22
3.61248e-07 1.10173e-07 4.61525e-08
-2.7419e-09 1.21138e-08 -2.03147e-09
-3.20062e-09 -6.44329e-09 9.21073e-09
3.54695e-21 -4.34104e-21 6.35275e-22
7.43139e-21 -7.14684e-22 0.0
-7.50418e-21 -1.74701e-21 0.0
8.8998e-20 4.07635e-21 -2.11758e-21
-7.38375e-20 7.83505e-21 -4.44692e-21
-5.32491e-09 3.06059e-09 3.31942e-08
0.0 0.0 0.0
0.0 0.0 0.0
-1.10663e-09 7.79754e-08 -3.29782e-08
2.29363e-08 -2.5551e-07 1.60547e-07
3.45695e-20 -2.22081e-20 0.0
-1.05879e-22 -3.70577e-22 -2.11758e-22
-1.10787e-09 -5.78924e-09 -1.95669e-08
-3.80371e-20 1.23482e-20 -2.11758e-22
-1.99849e-07 -2.93149e-07 -2.01131e-07
-7.94093e-23 0.0 0.0
-1.18779e-09 2.21989e-09 -1.04188e-08
-1.14363e-09 3.20189e-09 -1.25642e-08
3.87782e-21 5.50571e-21 1.69407e-21
1.31025e-21 1.74701e-21 -2.11758e-22
-3.41003e-10 -9.83397e-10 1.13319e-08
1.79465e-20 -1.09055e-20 6.98802e-21
-1.3065e-09 9.00104e-09 -7.72889e-09
-1.85288e-22 0.0 0.0
1.3905e-07 -3.14343e-07 3.00299e-07
-7.10261e-10 -1.24194e-08 2.75117e-09
-7.98537e-09 -1.71745e-08 -2.74727e-08
1.32349e-23 -1.56172e-20 -2.11758e-22
-1.9498e-09 8.2876e-09 1.09523e-08
-2.09201e-09 -9.08119e-09 -8.27426e-09
-5.42274e-09 -1.30832e-08 -1.59447e-08
-3.04402e-22 1.98523e-22 0.0
-1.69804e-20 3.97047e-21 1.90582e-21
5.16161e-22 0.0 0.0
1.54577e-19 1.60407e-20 -8.47033e-22
-1.29872e-09 8.74284e-09 -7.88768e-10
-1.19114e-21 -2.22346e-21 4.23516e-22
-9.95925e-21 7.14684e-21 1.69407e-21
9.67907e-09 -3.2936e-08 4.39442e-08
1.94818e-20 -3.22931e-21 2.11758e-22
-6.15286e-10 -9.74207e-09 7.3058e-09
-3.14775e-20 -3.70577e-22 2.11758e-22
-5.59864e-09 -1.73373e-08 1.56106e-08
