# vtk DataFile Version 3.0
LIGGGHTS particles timestep 6200000
ASCII
DATASET POLYDATA
POINTS 206 float
0.022066 0.0241271 0.0144356
0.0193238 0.0144681 0.0157967
0.0275703 0.0209767 0.00766419
0.0205762 0.0146877 0.0159109
0.0253202 0.0170224 0.0162514
0.0291776 0.0205131 0.0155492
0.0427568 0.0185796 0.00587847
0.0220656 0.0159242 0.0157326
0.0180382 0.0243351 0.0136188
0.0167918 0.0236716 0.0162152
0.0227589 0.022329 0.0146548
0.0210086 0.0240272 0.0130047
0.08261 0.0191091 0.00590955
0.0204708 0.0239847 0.0145638
0.0178573 0.0218619 0.0149976
0.0201424 0.0159565 0.0146995
0.023632 0.0230623 0.0153804
0.0210685 0.0158176 0.015619
0.0179741 0.0233675 0.0125521
0.0240266 0.0169641 0.0153999
0.0170077 0.0234136 0.0123025
0.0184582 0.0155018 0.0142008
0.0197092 0.0237946 0.0154911
0.0240279 0.0219986 0.0148289
0.0210375 0.0212892 0.00791556
0.0281809 0.0233024 0.012383
0.023163 0.0148341 0.0146354
0.0212395 0.0243016 0.0139748
0.0218412 0.0238806 0.013362
0.0193226 0.0213879 0.0318826
0.0254709 0.0210206 0.0164689
0.0194699 0.0194393 0.0164657
0.0191238 0.0160055 0.0147512
0.0183234 0.0201608 0.0168258
0.02626 0.0178689 0.00735888
0.0252055 0.0204016 0.0157293
0.0186569 0.0240513 0.0163198
0.0203455 0.0243974 0.0136595
0.0189773 0.0213104 0.0153237
0.0249653 0.016811 0.0153398
0.0302517 0.0159714 0.0145196
0.0188427 0.0231259 0.0159902
0.0273766 0.022469 0.0088431
0.0189805 0.0171398 0.0167495
0.0158984 0.0228501 0.0164595
0.0214951 0.0148595 0.0155558
0.0259839 0.0168971 0.00777949
0.030764 0.0149765 0.0125883
0.0248559 0.0217921 0.0163054
0.0246739 0.0213048 0.0153274
0.0261307 0.019108 0.0172608
0.0200093 0.0242064 0.0163516
0.0212024 0.0205692 0.018326
0.018588 0.0220033 0.0159306
0.0190402 0.0244876 0.0137333
0.0175125 0.0193633 0.0159501
0.0172742 0.0239991 0.013068
0.0166965 0.0241893 0.0176874
0.0194123 0.0151351 0.00969451
0.0164322 0.0240824 0.014388
0.0279648 0.0233864 0.0112032
0.0251799 0.0148838 0.0105279
0.0181664 0.0225048 0.0166889
0.0131001 0.0212034 0.0163341
0.0284927 0.0228075 0.0134748
0.018203 0.0163346 0.0150174
0.0136452 0.0219148 0.0158907
0.0187154 0.0161793 0.0158619
0.0190689 0.0170656 0.0154748
0.027716 0.02313 0.0101022
0.0173925 0.0241684 0.0143382
0.0141713 0.022763 0.0158327
0.020689 0.01461 0.013008
0.0299209 0.017242 0.0154167
0.019326 0.0154404 0.0155568
0.0229668 0.0237032 0.0149976
0.0182302 0.0200828 0.0158333
0.0175819 0.0234552 0.0116366
0.0196146 0.0240675 0.0125009
0.0287289 0.0222312 0.0143675
0.0206404 0.017647 0.0165423
0.0179891 0.014594 0.0143688
0.0189739 0.0146571 0.01406
0.0206114 0.0151071 0.0149514
0.0180056 0.0173107 0.0156072
0.0189354 0.0146546 0.0121192
0.0192208 0.0202154 0.0158016
0.0186194 0.0237317 0.0141199
0.0223359 0.0145016 0.0141474
0.024577 0.0187304 0.0162606
0.0143324 0.0212907 0.0162623
0.0180743 0.0233991 0.0171414
0.0267379 0.0201613 0.00737061
0.0189881 0.014893 0.0130886
0.0242763 0.0171959 0.01634
0.0271215 0.0214993 0.00798139
0.0170647 0.0155028 0.0154078
0.0201026 0.0209078 0.0164077
0.0180158 0.0224869 0.0142561
0.0187489 0.0143453 0.0149832
0.0237782 0.0163699 0.0185111
0.0248498 0.0177699 0.0157555
0.019422 0.0217129 0.0169485
0.0173412 0.0229167 0.0137195
0.0194034 0.0225135 0.0154333
0.0182663 0.0228389 0.0189706
0.0296598 0.0182794 0.0157319
0.0190406 0.0232958 0.0149272
0.0148536 0.0220301 0.0158357
0.0154014 0.0233879 0.0145538
0.0208062 0.0166363 0.0161606
0.0294483 0.0194035 0.0158066
0.0177861 0.0235663 0.0161986
0.0236325 0.0187784 0.0159342
0.0206021 0.0196319 0.00720185
0.0165616 0.0148948 0.0147183
0.0167502 0.0142113 0.0135463
0.0244858 0.0153214 0.0136469
0.016493 0.0233521 0.0137807
0.0172328 0.0228662 0.0166497
0.0187746 0.0220763 0.0147141
0.0170336 0.0236833 0.015132
0.015993 0.0220548 0.0158607
0.0176277 0.0222881 0.0158731
0.0159005 0.0144761 0.0140956
0.0129131 0.0204317 0.0157265
0.0223021 0.0151767 0.0150578
0.0204362 0.0186575 0.00723048
0.0224633 0.0231843 0.010231
0.0145633 0.0230225 0.0149524
0.0169119 0.0219544 0.015217
0.0195792 0.0239048 0.0133592
0.0238628 0.0194597 0.0178097
0.0474618 0.0192773 0.00593797
0.019955 0.0138925 0.013278
0.022466 0.0229853 0.0134182
0.0180395 0.0210143 0.0155035
0.0214464 0.0147677 0.0145184
0.0249128 0.0147847 0.01197
0.0162571 0.0230813 0.0149634
0.0216624 0.0213718 0.00796469
0.0171351 0.0140815 0.01446
0.0212287 0.0221212 0.00852982
0.0178296 0.0215227 0.0166638
0.0171246 0.0212136 0.0158538
0.0242855 0.0200636 0.0158596
0.0252764 0.018675 0.0169733
0.017352 0.0240967 0.0169265
0.0254103 0.0191917 0.0159565
0.0203921 0.0224188 0.0155486
0.0182644 0.0243998 0.0172019
0.0197095 0.0217368 0.0159901
0.0585019 0.0190661 0.00583452
0.0178303 0.023353 0.0144488
0.0199233 0.0251435 0.0255806
0.0206581 0.0233761 0.0156603
0.0186681 0.0240349 0.0128198
0.0175903 0.0146689 0.0157118
0.0234123 0.019806 0.0162463
0.0202308 0.0151904 0.00959346
0.0223331 0.0220941 0.0158583
0.0191579 0.0148214 0.0107264
0.020061 0.0231161 0.014846
0.0181922 0.0236661 0.0152906
0.0166952 0.0227646 0.0158046
0.0201028 0.017273 0.00755873
0.0181081 0.0152766 0.0151097
0.0226998 0.0235183 0.0140625
0.0168244 0.021984 0.016416
0.0249502 0.0150034 0.0128564
0.0221698 0.0233095 0.0123942
0.0197667 0.0152147 0.0137417
0.020589 0.0146246 0.0140028
0.023964 0.0153651 0.0152838
0.0240015 0.0212395 0.0165298
0.0257684 0.0200811 0.0166446
0.0214834 0.0142593 0.0136582
0.0244383 0.0159077 0.0143698
0.0216673 0.0231489 0.0100786
0.0217051 0.0234867 0.0141307
0.0220947 0.0229247 0.00955334
0.0213228 0.0185338 0.0174998
0.0151049 0.0148155 0.0145981
0.0203341 0.0248683 0.0185159
0.0242899 0.0224974 0.0158784
0.0187304 0.0189318 0.0159466
0.0154199 0.0226986 0.0153539
0.0195113 0.0239901 0.0144327
0.0265129 0.0191198 0.00715976
0.0257307 0.0178466 0.0166419
0.0198055 0.014587 0.0125744
0.0230058 0.0232027 0.0127401
0.0230427 0.015664 0.0155518
0.017256 0.0201103 0.0165882
0.020058 0.0164708 0.00805707
0.0213123 0.0237334 0.0149939
0.0162178 0.0236056 0.0170313
0.0183146 0.0227257 0.0152363
0.0173673 0.0227522 0.0150266
0.0234349 0.0226132 0.014189
0.0163349 0.0232751 0.0128603
0.0226982 0.0205529 0.0165858
0.019646 0.0149628 0.0147343
0.0167208 0.0224807 0.0143164
0.0168959 0.0156888 0.0184876
0.0190021 0.0210593 0.0162913

VERTICES 206 412
1 0
1 1
1 2
1 3
1 4
1 5
1 6
1 7
1 8
1 9
1 10
1 11
1 12
1 13
1 14
1 15
1 16
1 17
1 18
1 19
1 20
1 21
1 22
1 23
1 24
1 25
1 26
1 27
1 28
1 29
1 30
1 31
1 32
1 33
1 34
1 35
1 36
1 37
1 38
1 39
1 40
1 41
1 42
1 43
1 44
1 45
1 46
1 47
1 48
1 49
1 50
1 51
1 52
1 53
1 54
1 55
1 56
1 57
1 58
1 59
1 60
1 61
1 62
1 63
1 64
1 65
1 66
1 67
1 68
1 69
1 70
1 71
1 72
1 73
1 74
1 75
1 76
1 77
1 78
1 79
1 80
1 81
1 82
1 83
1 84
1 85
1 86
1 87
1 88
1 89
1 90
1 91
1 92
1 93
1 94
1 95
1 96
1 97
1 98
1 99
1 100
1 101
1 102
1 103
1 104
1 105
1 106
1 107
1 108
1 109
1 110
1 111
1 112
1 113
1 114
1 115
1 116
1 117
1 118
1 119
1 120
1 121
1 122
1 123
1 124
1 125
1 126
1 127
1 128
1 129
1 130
1 131
1 132
1 133
1 134
1 135
1 136
1 137
1 138
1 139
1 140
1 141
1 142
1 143
1 144
1 145
1 146
1 147
1 148
1 149
1 150
1 151
1 152
1 153
1 154
1 155
1 156
1 157
1 158
1 159
1 160
1 161
1 162
1 163
1 164
1 165
1 166
1 167
1 168
1 169
1 170
1 171
1 172
1 173
1 174
1 175
1 176
1 177
1 178
1 179
1 180
1 181
1 182
1 183
1 184
1 185
1 186
1 187
1 188
1 189
1 190
1 191
1 192
1 193
1 194
1 195
1 196
1 197
1 198
1 199
1 200
1 201
1 202
1 203
1 204
1 205

POINT_DATA 206
SCALARS id int 1
LOOKUP_TABLE default
1
2
3
4
6
8
9
10
13
14
15
17
18
19
20
21
22
23
24
26
28
29
31
32
33
34
35
36
38
39
40
42
43
46
48
49
51
52
53
54
56
58
59
60
62
64
65
66
68
69
70
71
72
73
74
75
76
78
79
82
83
86
87
88
89
90
91
92
93
96
97
98
99
100
101
102
105
106
107
108
109
110
111
112
113
115
116
117
119
120
121
122
124
125
126
127
128
129
130
131
132
134
135
137
138
141
142
143
146
147
148
149
151
154
155
156
159
160
161
162
163
165
167
168
169
171
172
174
177
178
180
182
186
187
188
189
191
192
193
194
195
198
201
204
207
209
213
214
215
216
217
218
221
222
223
224
226
227
228
229
230
235
239
240
241
242
243
245
246
253
254
255
256
257
258
261
262
263
264
266
268
269
270
271
273
274
275
276
277
278
279
280
281
282
283
285
287
288
289
291
293
294
296
297
298
299

SCALARS type int 1
LOOKUP_TABLE default
1
1
1
1
1
1
1
1
1
1
1
1
1
1
1
1
1
1
1
1
1
1
1
1
1
1
1
1
1
1
1
1
1
1
1
1
1
1
1
1
1
1
1
1
1
1
1
1
1
1
1
1
1
1
1
1
1
1
1
1
1
1
1
1
1
1
1
1
1
1
1
1
1
1
1
1
1
1
1
1
1
1
1
1
1
1
1
1
1
1
1
1
1
1
1
1
1
1
1
1
1
1
1
1
1
1
1
1
1
1
1
1
1
1
1
1
1
1
1
1
1
1
1
1
1
1
1
1
1
1
1
1
1
1
1
1
1
1
1
1
1
1
1
1
1
1
1
1
1
1
1
1
1
1
1
1
1
1
1
1
1
1
1
1
1
1
1
1
1
1
1
1
1
1
1
1
1
1
1
1
1
1
1
1
1
1
1
1
1
1
1
1
1
1
1
1
1
1
1
1
1
1
1
1
1
1

SCALARS radius float 1
LOOKUP_TABLE default
0.0005
0.0005
0.0005
0.0005
0.0005
0.0005
0.0005
0.0005
0.0005
0.0005
0.0005
0.0005
0.0005
0.0005
0.0005
0.0005
0.0005
0.0005
0.0005
0.0005
0.0005
0.0005
0.0005
0.0005
0.0005
0.0005
0.0005
0.0005
0.0005
0.0005
0.0005
0.0005
0.0005
0.0005
0.0005
0.0005
0.0005
0.0005
0.0005
0.0005
0.0005
0.0005
0.0005
0.0005
0.0005
0.0005
0.0005
0.0005
0.0005
0.0005
0.0005
0.0005
0.0005
0.0005
0.0005
0.0005
0.0005
0.0005
0.0005
0.0005
0.0005
0.0005
0.0005
0.0005
0.0005
0.0005
0.0005
0.0005
0.0005
0.0005
0.0005
0.0005
0.0005
0.0005
0.0005
0.0005
0.0005
0.0005
0.0005
0.0005
0.0005
0.0005
0.0005
0.0005
0.0005
0.0005
0.0005
0.0005
0.0005
0.0005
0.0005
0.0005
0.0005
0.0005
0.0005
0.0005
0.0005
0.0005
0.0005
0.0005
0.0005
0.0005
0.0005
0.0005
0.0005
0.0005
0.0005
0.0005
0.0005
0.0005
0.0005
0.0005
0.0005
0.0005
0.0005
0.0005
0.0005
0.0005
0.0005
0.0005
0.0005
0.0005
0.0005
0.0005
0.0005
0.0005
0.0005
0.0005
0.0005
0.0005
0.0005
0.0005
0.0005
0.0005
0.0005
0.0005
0.0005
0.0005
0.0005
0.0005
0.0005
0.0005
0.0005
0.0005
0.0005
0.0005
0.0005
0.0005
0.0005
0.0005
0.0005
0.0005
0.0005
0.0005
0.0005
0.0005
0.0005
0.0005
0.0005
0.0005
0.0005
0.0005
0.0005
0.0005
0.0005
0.0005
0.0005
0.0005
0.0005
0.0005
0.0005
0.0005
0.0005
0.0005
0.0005
0.0005
0.0005
0.0005
0.0005
0.0005
0.0005
0.0005
0.0005
0.0005
0.0005
0.0005
0.0005
0.0005
0.0005
0.0005
0.0005
0.0005
0.0005
0.0005
0.0005
0.0005
0.0005
0.0005
0.0005
0.0005
0.0005
0.0005
0.0005
0.0005
0.0005
0.0005

SCALARS mass float 1
LOOKUP_TABLE default
1.46608e-07
1.46608e-07
1.46608e-07
1.46608e-07
1.46608e-07
1.46608e-07
1.46608e-07
1.46608e-07
1.46608e-07
1.46608e-07
1.46608e-07
1.46608e-07
1.46608e-07
1.46608e-07
1.46608e-07
1.46608e-07
1.46608e-07
1.46608e-07
1.46608e-07
1.46608e-07
1.46608e-07
1.46608e-07
1.46608e-07
1.46608e-07
1.46608e-07
1.46608e-07
1.46608e-07
1.46608e-07
1.46608e-07
1.46608e-07
1.46608e-07
1.46608e-07
1.46608e-07
1.46608e-07
1.46608e-07
1.46608e-07
1.46608e-07
1.46608e-07
1.46608e-07
1.46608e-07
1.46608e-07
1.46608e-07
1.46608e-07
1.46608e-07
1.46608e-07
1.46608e-07
1.46608e-07
1.46608e-07
1.46608e-07
1.46608e-07
1.46608e-07
1.46608e-07
1.46608e-07
1.46608e-07
1.46608e-07
1.46608e-07
1.46608e-07
1.46608e-07
1.46608e-07
1.46608e-07
1.46608e-07
1.46608e-07
1.46608e-07
1.46608e-07
1.46608e-07
1.46608e-07
1.46608e-07
1.46608e-07
1.46608e-07
1.46608e-07
1.46608e-07
1.46608e-07
1.46608e-07
1.46608e-07
1.46608e-07
1.46608e-07
1.46608e-07
1.46608e-07
1.46608e-07
1.46608e-07
1.46608e-07
1.46608e-07
1.46608e-07
1.46608e-07
1.46608e-07
1.46608e-07
1.46608e-07
1.46608e-07
1.46608e-07
1.46608e-07
1.46608e-07
1.46608e-07
1.46608e-07
1.46608e-07
1.46608e-07
1.46608e-07
1.46608e-07
1.46608e-07
1.46608e-07
1.46608e-07
1.46608e-07
1.46608e-07
1.46608e-07
1.46608e-07
1.46608e-07
1.46608e-07
1.46608e-07
1.46608e-07
1.46608e-07
1.46608e-07
1.46608e-07
1.46608e-07
1.46608e-07
1.46608e-07
1.46608e-07
1.46608e-07
1.46608e-07
1.46608e-07
1.46608e-07
1.46608e-07
1.46608e-07
1.46608e-07
1.46608e-07
1.46608e-07
1.46608e-07
1.46608e-07
1.46608e-07
1.46608e-07
1.46608e-07
1.46608e-07
1.46608e-07
1.46608e-07
1.46608e-07
1.46608e-07
1.46608e-07
1.46608e-07
1.46608e-07
1.46608e-07
1.46608e-07
1.46608e-07
1.46608e-07
1.46608e-07
1.46608e-07
1.46608e-07
1.46608e-07
1.46608e-07
1.46608e-07
1.46608e-07
1.46608e-07
1.46608e-07
1.46608e-07
1.46608e-07
1.46608e-07
1.46608e-07
1.46608e-07
1.46608e-07
1.46608e-07
1.46608e-07
1.46608e-07
1.46608e-07
1.46608e-07
1.46608e-07
1.46608e-07
1.46608e-07
1.46608e-07
1.46608e-07
1.46608e-07
1.46608e-07
1.46608e-07
1.46608e-07
1.46608e-07
1.46608e-07
1.46608e-07
1.46608e-07
1.46608e-07
1.46608e-07
1.46608e-07
1.46608e-07
1.46608e-07
1.46608e-07
1.46608e-07
1.46608e-07
1.46608e-07
1.46608e-07
1.46608e-07
1.46608e-07
1.46608e-07
1.46608e-07
1.46608e-07
1.46608e-07
1.46608e-07
1.46608e-07
1.46608e-07
1.46608e-07
1.46608e-07
1.46608e-07
1.46608e-07
1.46608e-07
1.46608e-07
1.46608e-07
1.46608e-07
1.46608e-07
1.46608e-07
1.46608e-07
1.46608e-07
1.46608e-07

VECTORS velocity float
-0.000666535 0.00018238 0.00038189
0.0161327 0.0110156 0.000675451
0.00139142 -0.0184618 -0.00737601
-0.0111306 0.00772999 -0.0223195
0.00124036 -0.00179403 0.0101181
0.000340671 0.020236 -0.00706257
5.37127e-15 -1.55474e-14 -8.53418e-14
0.000905136 0.00742211 0.00664502
7.58895e-05 0.000395311 -0.000383717
0.000403561 -0.000125366 -0.00016189
-0.0142614 0.0353773 -0.0287998
-0.00103426 0.000200347 -1.13983e-06
-1.80288e-14 -5.05413e-14 2.16931e-13
0.00037042 4.42934e-05 -0.000108488
0.00418629 0.00244378 -0.00882007
0.0041179 -0.0170051 -0.0209477
0.00406641 -0.00353584 0.00464108
0.00269158 -0.0148833 -0.00707688
0.00239067 -4.94823e-05 -0.00342097
0.00150722 0.0176309 0.0110729
0.00376573 0.000704508 -0.00433438
-0.00152931 0.0105709 0.0128926
-0.004902 -0.00106138 0.00884372
-0.0165356 0.0199018 -0.013784
0.0988242 0.12849 -0.612939
0.000859184 0.0030871 -0.0183217
-0.00365129 -0.00186973 -0.00310995
-0.000453166 0.000764039 0.000391373
-0.00169554 0.00273065 0.00229668
-0.189006 -0.0711378 0.837858
0.00860748 -0.00327586 0.0116768
0.0080197 0.0432131 -0.0083924
0.00320425 0.00880006 0.0074595
0.0105815 0.00756558 -0.00433794
0.000175351 -0.0211709 0.00517469
6.92851e-05 0.0216268 -0.00693006
-0.000287446 0.000407374 0.0019184
-9.82796e-05 0.000548771 -0.000829317
0.00251477 0.00949815 -0.00542205
0.00376596 0.0135818 0.0094664
0.000291015 0.0144577 0.014287
6.30915e-05 -0.000578655 0.00224984
0.00116803 -0.00940824 -0.010921
0.133587 -0.00505523 0.0831571
0.00114567 0.000270306 -0.0016226
-0.00455059 -0.00216926 -0.0100827
0.000956887 -0.016504 0.0089336
0.000126754 0.00541931 0.0208623
0.00653244 -0.00321283 0.00830682
-0.0115572 0.00287073 -0.00158914
-0.000727729 0.00293101 -0.00133096
-0.00107667 0.00271126 0.00704265
0.0414363 -0.091405 0.0162462
-0.000715811 0.0153381 -0.0117209
0.000347523 0.000563959 -0.000941653
0.00364931 -0.0015386 -0.00109965
0.00098261 -0.000701068 -0.00159283
-1.74705e-05 -0.00125213 -0.00385519
0.00124918 -0.0079826 0.0183787
-0.000235314 0.000167496 4.87836e-05
-4.14195e-05 -0.000325647 -0.0222967
-0.00031912 -0.00553993 0.021018
-1.46673e-06 0.00780483 -0.00742044
6.61488e-05 0.000515679 0.0010857
0.000565055 0.0128064 -0.0204779
0.000784515 0.0152072 0.0118068
5.40322e-05 -0.000141634 -0.000289416
0.00960836 0.00678928 0.00485646
1.47243e-05 0.0158757 0.00806277
0.00119866 -0.00844882 -0.0214716
-0.000319698 0.0012127 -0.000356682
5.80352e-05 -6.25107e-05 0.000148777
-1.39211e-05 0.00841925 0.023102
0.000697045 0.0129239 0.00626955
-0.00130628 0.0108001 0.0116883
0.00249129 -0.000901958 0.00455829
0.00150609 0.0177055 -0.00436906
0.000931512 -0.00118503 -0.00524286
0.000240545 -0.0016569 -0.00120997
0.000190973 0.0141072 -0.0156595
-0.0145303 0.00685518 0.00303191
0.00410529 0.00160755 -0.000940972
-0.00361013 0.00276477 0.0225601
0.00380949 0.00663728 0.00122021
0.00809385 0.0311427 0.00133121
6.20486e-05 0.00294494 0.0229068
0.000956292 0.019424 -0.00510446
0.000239107 0.00185351 -0.000829695
-0.00190298 -0.00158202 0.00032373
-0.000731607 0.0157916 -0.0094177
0.000638616 -0.000587579 -0.00210331
0.00514632 -0.00156657 -0.00426851
7.38941e-05 -0.0210435 -0.00630303
0.00271275 0.00382408 0.0224404
0.00590848 0.0171975 0.00998184
0.000196488 -0.0155479 -0.0115206
-0.000484211 0.00300977 0.00274726
0.0100856 -0.000629075 7.44294e-05
0.0013181 0.0068299 -0.00671202
-0.015809 0.0118376 0.0235777
-0.0427832 -0.316619 0.0199667
0.00111153 0.017085 0.00532375
0.021905 0.0169753 -0.00151071
0.00299822 0.00587246 -0.0054729
0.00116842 -0.000967109 0.00165448
-0.0843452 -0.00832634 0.0686877
-1.22005e-05 0.0202866 0.00408836
0.000572955 0.00300216 0.000778564
0.000370157 0.000412683 -0.00218143
0.00022767 0.000150607 -0.000202827
-0.0100692 -0.0031036 -0.00439602
0.000661715 0.0176617 -0.00238254
0.000267653 0.00025256 0.00134486
0.000496463 0.0207828 0.00127516
0.00016333 -0.0189796 -0.00384216
0.0087645 -0.001449 -0.00621125
0.00110555 -0.000738181 0.00106948
0.00260435 0.0084252 0.0130175
0.00372283 0.00390339 -0.00450254
-0.000693157 0.00255769 0.000587604
0.00228854 0.00793177 -0.00893667
0.000306895 0.000376962 -0.00131898
0.00202436 0.000300021 -0.00209224
0.00316369 -0.00236369 -0.00574624
0.00176177 -0.00209664 0.00113488
0.00011048 0.000430728 0.00106127
0.00328219 0.00347544 0.00620168
-0.000141474 -0.0151473 0.00147708
0.00343551 -0.00136017 -0.00922546
0.000609797 0.00145695 0.00106643
0.00392363 -9.1937e-05 -0.00719946
0.000449913 0.00207192 -0.00334217
0.169901 -0.120274 -0.10971
4.55804e-15 -1.02245e-14 -1.05711e-13
0.00572214 -0.00433106 0.0125634
0.00112462 0.0117149 -0.0194755
0.00316579 0.00906754 -0.00348445
-0.000549398 0.00122536 -0.000495028
0.00149232 0.00252724 0.0140121
0.000655725 -7.52224e-05 -0.00168899
0.140554 0.0393073 -0.0728131
0.00757663 -0.00504028 -0.00264452
6.09758e-05 -0.0145825 -0.0141076
0.0314228 0.00300961 -0.00730327
0.00359598 0.00609691 0.000121848
0.000378165 0.0214527 -0.00527079
-0.00278599 0.00932992 -0.00603158
0.00159214 0.000225955 0.00222498
4.27482e-05 0.0207354 -0.00089733
0.00169084 0.000878087 -0.000635698
0.0163429 -0.0100675 -0.0260369
0.00958406 0.00781754 -0.00408709
1.1312e-14 -2.34706e-14 -2.88773e-13
0.000149378 0.00344956 -0.00226096
-0.0959318 0.101095 0.459236
-0.000617835 0.00124474 0.000318377
0.00126135 -0.00170385 -5.79388e-05
-0.000733103 -0.00104992 0.00301766
3.38187e-05 0.0244983 -0.00411159
0.00275092 -0.00697724 0.0126039
0.0229169 0.0196633 -0.0190476
1.9884e-05 -0.00451996 0.0211416
0.00110916 -0.00882283 0.0157294
-0.000109458 0.000106332 8.78659e-05
0.00234204 -0.000190184 -0.00253628
0.00107503 -0.016549 0.00778182
-0.00449937 0.00635279 0.00896519
-0.000472656 -0.00231365 0.0081336
0.000604419 0.00264179 0.00177056
-0.000501328 0.00653376 0.018588
0.000481063 0.00406991 -0.0203859
-0.00171469 -0.00824783 -0.0132298
0.000220689 0.0150813 0.0230476
0.00317783 0.00107855 0.0041759
0.0248053 -0.0176377 -0.0277255
0.00619938 -0.00447331 -0.00114097
-0.000766274 0.000253142 -0.000349843
2.03417e-05 0.0138655 0.0147711
0.00226386 -0.00481492 -0.0135838
-0.00123101 0.00101361 0.000149714
0.00199953 0.000554944 -0.00372427
0.024679 -0.0608705 -0.000590165
0.00158943 0.000295704 -0.00326091
-0.0222106 -0.0589715 -0.149152
0.00437204 -0.00341096 0.00629641
-0.0101612 0.0184887 -0.00372637
0.000946903 0.000394212 -0.000756481
0.000793068 0.000856717 -0.00112785
0.00112617 -0.0167357 0.000449432
0.0016629 0.00871391 0.00286409
5.94514e-05 0.00530738 0.023173
0.000638312 0.00536263 -0.019545
0.00388462 0.00263019 0.00246226
0.00587301 -0.016516 0.038215
-3.05496e-06 -0.00783218 0.0038323
-0.000207423 0.000184554 0.000189522
0.00106556 -0.00118984 -0.0032137
0.000711605 0.00133716 -0.00369891
0.00170527 0.000900946 -0.00475238
0.058 -0.0563789 0.0395253
0.0034213 0.00280435 -0.00494054
-0.00318195 0.0415152 0.0454467
5.81545e-05 0.00225509 0.0197443
0.00254956 0.00647443 -0.00670651
-0.0914524 -0.0570644 -0.302496
0.00178422 0.0191187 -0.00438089

VECTORS force float
-2.95109e-07 2.0212e-08 -1.58401e-07
0.0 0.0 -1.43822e-06
-1.33254e-07 -2.13579e-06 -2.72981e-07
-3.19781e-07 2.67539e-07 -7.35306e-07
0.0 0.0 -1.43822e-06
-3.27722e-09 3.13741e-09 -1.1625e-08
9.35574e-20 5.50571e-21 4.44692e-21
-6.71818e-08 -6.07147e-08 -3.60822e-08
-8.73326e-07 -1.12522e-06 -1.55024e-06
-6.45409e-07 -4.59541e-07 -2.20074e-06
-3.84757e-06 5.99713e-06 -7.36044e-06
3.85439e-08 2.99559e-09 1.95081e-07
2.59033e-19 4.1187e-20 3.854e-20
5.27845e-07 -1.28575e-06 -2.13949e-07
-6.75766e-07 -1.72403e-06 -2.03705e-06
-3.63313e-08 -3.42897e-07 -3.04354e-07
-1.10455e-06 -7.68581e-07 -1.11797e-06
-9.40174e-08 -6.32672e-08 9.30995e-09
-9.16763e-08 2.0045e-06 -4.45527e-06
-4.43724e-07 5.59367e-07 2.87536e-08
5.18151e-06 -3.71584e-06 1.13883e-05
-3.34496e-06 -1.52515e-06 1.66631e-06
0.0 0.0 -1.43822e-06
0.0 0.0 -1.43822e-06
0.0354348 0.18626 -0.621893
-5.88934e-09 -7.25558e-09 -1.66968e-08
-5.99943e-08 -4.8298e-08 -2.14472e-08
-2.88091e-07 -3.85279e-08 7.01851e-08
-9.4552e-08 -1.00354e-07 2.29599e-07
0.0 0.0 -1.43822e-06
0.0 0.0 -1.43822e-06
0.0 0.0 -1.43822e-06
1.02635e-06 1.23281e-06 2.31865e-06
-6.26847e-07 2.43861e-07 -3.04319e-07
-9.96801e-10 -1.45665e-09 1.19247e-08
6.69881e-07 -3.25088e-06 8.16871e-07
-3.00565e-07 1.97687e-06 2.20008e-06
-1.93803e-07 1.87304e-08 -2.33413e-07
-3.30091e-07 -3.58253e-07 1.90602e-06
1.03122e-06 6.22093e-07 8.21913e-07
-2.70683e-09 1.49873e-08 7.62257e-10
-2.05298e-06 1.4056e-06 -1.34014e-06
-2.15708e-09 -2.84914e-08 -1.45616e-08
0.0 0.0 -1.43822e-06
-2.05631e-07 -1.93636e-06 -1.9493e-06
-1.88546e-07 -1.76774e-07 -4.90991e-07
1.56687e-08 2.96742e-08 1.40069e-09
-1.2408e-09 1.32239e-08 1.11089e-09
0.0 0.0 -1.43822e-06
0.0 0.0 -1.43822e-06
-2.9643e-07 2.90186e-07 1.11833e-07
-1.37106e-07 -5.52058e-07 -1.55354e-06
0.0 0.0 -1.43822e-06
1.62635e-07 -2.63062e-07 -1.4621e-06
-5.61675e-09 -2.83975e-07 2.58945e-07
0.0 0.0 -1.43822e-06
2.61369e-07 3.2329e-08 -3.84555e-07
9.89144e-08 -3.30274e-07 -1.04807e-06
1.21446e-07 -2.35656e-07 7.78518e-07
3.63603e-06 -6.03355e-07 6.39313e-07
2.24694e-09 -1.17284e-08 -3.27856e-09
5.02975e-09 4.73135e-09 4.92713e-09
0.0 0.0 -1.43822e-06
3.27473e-08 2.05231e-07 1.29756e-07
-3.15666e-09 1.04691e-08 3.58174e-08
2.23866e-08 6.45632e-09 3.81432e-09
3.43708e-08 -1.34265e-07 -4.50838e-07
2.53521e-07 -3.69367e-07 -1.8742e-07
-8.91253e-11 2.61574e-08 1.77805e-09
-1.7791e-08 6.69992e-09 -1.11322e-07
1.98416e-06 7.22517e-07 7.21143e-07
2.45568e-07 -2.08139e-07 2.16596e-07
8.66874e-08 -8.7069e-08 -9.13085e-08
8.56624e-09 -1.938e-08 -2.46712e-08
0.0 0.0 -1.43822e-06
1.31885e-06 1.69565e-06 -3.85476e-06
-7.81487e-07 7.18116e-08 -9.43172e-08
-1.23363e-06 7.54891e-06 3.56355e-06
-6.53701e-08 -6.53755e-09 9.4359e-08
-9.18299e-10 -3.58778e-09 -1.10821e-08
2.88201e-07 1.86516e-07 5.62323e-08
-5.03281e-08 -3.7937e-07 -7.88537e-07
3.7777e-06 -4.07504e-06 -6.34735e-08
-4.95737e-07 1.28523e-06 9.1589e-07
0.0 0.0 -1.43822e-06
5.28476e-07 -6.15392e-07 -6.49296e-07
5.21911e-08 3.08961e-07 -3.52326e-07
7.74538e-07 -2.09916e-07 1.1528e-06
4.3886e-06 1.10996e-06 1.18046e-06
-1.18547e-06 -7.92942e-07 2.92235e-07
2.53752e-07 -3.23912e-08 -2.05685e-07
-2.96311e-07 -9.58515e-07 1.619e-07
-1.04927e-09 -9.52484e-09 8.07049e-09
2.90105e-06 -3.37683e-06 -2.04957e-06
4.4045e-08 -6.34729e-08 -6.76639e-07
5.22388e-07 1.28404e-06 5.01975e-07
-2.60074e-08 -2.50406e-07 -1.69748e-07
-4.03801e-07 1.43345e-06 -1.90452e-07
2.91339e-06 -2.07727e-07 2.46816e-06
0.0 0.0 -1.43822e-06
0.0 0.0 -1.43822e-06
-1.89368e-07 1.86483e-07 4.08124e-08
0.0 0.0 -1.43822e-06
3.76756e-06 -3.23182e-06 2.75985e-06
5.49567e-07 -1.38855e-07 -3.16253e-06
0.0 0.0 -1.43822e-06
-1.8195e-08 -9.07386e-08 -3.84925e-08
-5.77557e-07 1.68347e-06 2.6683e-06
-1.25075e-06 -1.49288e-06 8.60609e-07
-2.82199e-07 4.03975e-07 -3.85978e-07
0.0 0.0 -1.43822e-06
-5.26629e-09 1.83654e-08 -1.2489e-08
-1.13023e-06 3.4493e-06 7.94512e-06
3.40963e-09 3.33627e-09 -1.72864e-08
2.29268e-08 -2.11689e-07 1.56931e-08
0.0 0.0 -1.43822e-06
-2.00723e-07 -1.74194e-07 -3.66432e-07
-7.14673e-07 3.4547e-07 9.64173e-07
-2.24123e-06 -6.53314e-06 -7.51763e-06
-1.26503e-06 6.50495e-07 -2.58564e-06
4.7372e-07 -9.06067e-07 5.98239e-07
-3.3306e-07 -1.76037e-06 3.54709e-07
-5.19756e-07 -2.87607e-07 8.2534e-07
-1.00349e-07 -3.4382e-06 1.64489e-07
3.68421e-08 -8.55426e-08 3.30227e-07
1.96811e-07 3.03059e-07 -7.28207e-08
-3.43591e-08 -1.1867e-07 -9.90928e-08
1.98638e-07 -2.98374e-07 3.64974e-08
-3.29304e-08 -5.34018e-08 -1.11299e-08
3.14095e-07 3.31999e-07 8.84182e-07
4.18902e-07 -3.69203e-06 1.33092e-06
-3.10249e-07 6.36134e-09 2.01683e-07
0.0 0.0 -1.43822e-06
-4.07582e-19 -8.5815e-20 -9.52912e-21
-1.51427e-07 -5.08235e-08 -1.25549e-07
-5.44094e-08 -3.11686e-07 7.25875e-08
-7.3055e-07 2.39533e-06 -1.44482e-06
-2.94884e-06 -1.32758e-06 -1.28891e-06
-5.87908e-09 4.42901e-08 1.06179e-07
-3.56522e-07 6.98222e-07 -1.72178e-06
-0.00487947 0.00149612 -0.00666704
6.43181e-07 -6.2425e-08 1.85257e-07
-3.17096e-10 -1.29656e-08 2.2823e-09
0.0 0.0 -1.43822e-06
-9.83526e-07 8.85879e-07 -1.62903e-06
7.33486e-07 -4.07859e-06 -1.19056e-06
-4.49664e-07 -7.38702e-07 -2.00534e-06
-3.03118e-06 2.6198e-08 2.4552e-06
2.34552e-07 -9.99737e-07 9.99381e-07
1.33433e-06 -2.31699e-06 1.1136e-06
-7.62055e-08 -2.23668e-07 -1.17969e-06
0.0 0.0 -1.43822e-06
-2.69992e-21 -1.48231e-21 0.0
1.36771e-06 8.95969e-08 1.43522e-06
0.0 0.0 -1.43822e-06
-1.82214e-07 -2.45023e-06 2.4005e-07
-1.81877e-07 1.0229e-08 -1.30319e-06
-4.79857e-07 -3.17608e-07 7.42458e-07
7.81278e-07 -4.10194e-06 -9.61908e-07
2.70484e-07 2.21886e-07 -2.71843e-07
0.0 0.0 -1.43822e-06
-5.57702e-10 9.60172e-09 7.50778e-09
0.0 0.0 -1.43822e-06
-7.69956e-07 -1.30241e-06 8.08558e-07
2.92473e-07 2.95002e-07 1.24936e-06
-1.38339e-08 -2.69512e-08 2.7635e-08
-5.03016e-06 6.78796e-06 8.16668e-06
-4.99906e-07 1.93758e-07 -2.1138e-06
7.70698e-07 -8.0435e-07 1.92592e-06
-5.44127e-08 9.96517e-08 1.79645e-07
-7.0433e-09 -1.53816e-08 6.09089e-08
2.25121e-08 -4.26845e-07 -6.38269e-07
-1.57574e-07 2.96174e-07 1.8738e-07
-1.28623e-07 -2.00788e-08 -2.05079e-07
0.0 0.0 -1.43822e-06
0.0 0.0 -1.43822e-06
-3.16233e-07 -1.2498e-06 5.03627e-07
6.37608e-07 4.04037e-07 2.35765e-07
7.65393e-08 5.61185e-08 8.5432e-08
-1.8807e-07 -5.54545e-08 4.40707e-08
-4.41991e-08 9.57576e-08 7.61611e-08
0.0 0.0 -1.43822e-06
1.78e-07 -1.04074e-07 -1.16017e-07
-1.17498e-07 -3.66571e-07 -9.11413e-07
6.80724e-07 2.03311e-07 -2.05116e-06
0.0 0.0 -1.43822e-06
1.36762e-06 9.17147e-07 5.36331e-07
8.63995e-07 -9.99954e-07 5.09732e-07
-7.72671e-09 -2.45487e-08 1.28106e-08
0.0 0.0 -1.43822e-06
5.05602e-07 -1.06024e-06 -6.11335e-07
-2.25342e-08 -1.98807e-08 4.57081e-08
-1.11285e-07 -1.99365e-07 -1.45904e-07
0.0 0.0 -1.43822e-06
5.14332e-09 -3.48275e-08 3.51226e-08
-1.57192e-07 -2.64314e-07 6.79208e-07
1.49803e-06 2.79135e-06 3.40959e-06
1.66671e-07 -2.08078e-06 1.34237e-06
4.20732e-07 -4.50245e-06 -6.59526e-07
4.66536e-06 7.18328e-06 1.35546e-05
4.27868e-07 2.78466e-06 1.07966e-07
0.0 0.0 -1.43822e-06
7.2782e-07 -6.52098e-07 -9.82272e-07
-2.21853e-07 6.79704e-07 -1.01904e-07
0.0 0.0 -1.43822e-06
2.84742e-07 -1.46519e-06 4.86239e-07
