# vtk DataFile Version 3.0
LIGGGHTS particles timestep 70600000
ASCII
DATASET POLYDATA
POINTS 88 float
0.0387146 0.0187573 0.00575718
0.0515454 0.0203376 0.00592249
0.0657625 0.0198039 0.00576669
0.102543 0.017821 0.00581645
0.0387828 0.0214812 0.00622724
0.191105 0.0203026 0.00593314
0.0819211 0.0186895 0.00575466
0.10448 0.0180949 0.00580371
0.0783728 0.0219484 0.0147177
0.0458896 0.0168235 0.00626774
0.0564645 0.0213699 0.00635393
0.0841307 0.0226774 0.0136686
0.136461 0.0187737 0.0058834
0.0821243 0.0177332 0.00596484
0.0652975 0.0207687 0.00603532
0.0830166 0.0197662 0.00609629
0.0793161 0.0192087 0.00581236
0.0170063 0.0201419 0.00601043
0.0643606 0.0210989 0.00615793
0.0448733 0.0164686 0.00634571
0.0805047 0.019156 0.00574567
0.0811915 0.017199 0.00615598
0.0615774 0.0172559 0.00608456
0.063441 0.0163701 0.00647495
0.085142 0.0184899 0.00574639
0.0829173 0.0222111 0.0066532
0.0357086 0.0161117 0.00660683
0.0618809 0.0199413 0.00582959
0.0741396 0.0152375 0.0133537
0.0854334 0.0175935 0.0155095
0.0829196 0.0187688 0.00585604
0.0439552 0.0161318 0.00656318
0.0782305 0.0203396 0.00602091
0.081946 0.0196651 0.00598385
0.0732237 0.018766 0.005768
0.0644815 0.0190744 0.00573853
0.0683453 0.0182317 0.00578271
0.0609817 0.0187588 0.00589337
0.0609012 0.0197493 0.00575757
0.0634974 0.0172463 0.00599641
0.0286258 0.0183498 0.00592583
0.0862115 0.0201056 0.00585272
0.0601285 0.017977 0.00598674
0.0626638 0.0179373 0.00595165
0.0644862 0.0176438 0.00589539
0.0238948 0.0168123 0.00667048
0.042543 0.0198089 0.00582143
0.0388539 0.0197419 0.00587248
0.0766607 0.0190533 0.00580856
0.0779381 0.019417 0.00576935
0.0620021 0.0189487 0.00583492
0.0424897 0.0188104 0.00581963
0.0920805 0.0205253 0.0059177
0.0803507 0.0174977 0.0084203
0.0557406 0.0175302 0.00596599
0.102423 0.0196788 0.00582979
0.0453636 0.0157749 0.00687326
0.3774 0.0174897 0.00842703
0.0505919 0.0207133 0.00592302
0.0643736 0.0166453 0.00623285
0.0440263 0.0170728 0.00623272
0.0801575 0.0177674 0.00609392
0.0810243 0.0182731 0.00591411
0.0824647 0.0205875 0.00624167
0.0595038 0.0223955 0.00675756
0.063626 0.0183177 0.00585415
0.0316007 0.0183082 0.00603438
0.0584979 0.0201946 0.00586451
0.0215463 0.0196109 0.00592744
0.0690612 0.017564 0.00598647
0.0636055 0.0197465 0.00578044
0.0869407 0.0150367 0.00998667
0.0242602 0.0201274 0.00583803
0.0701939 0.0196631 0.00729431
0.0567438 0.01754 0.00591345
0.061759 0.0163729 0.00651709
0.0504712 0.0179279 0.00611076
0.0371638 0.0187263 0.00573865
0.0328558 0.0191954 0.00572294
0.044465 0.0204317 0.00594645
0.0625324 0.0169121 0.00611939
0.066033 0.0188309 0.00577203
0.0833983 0.0210192 0.00634375
0.0634745 0.0174716 0.00842942
0.0350698 0.0188001 0.00572051
0.0623373 0.0157218 0.00700852
0.0667607 0.0199247 0.00579031
0.0775907 0.0233471 0.0114888

VERTICES 88 176
1 0
1 1
1 2
1 3
1 4
1 5
1 6
1 7
1 8
1 9
1 10
1 11
1 12
1 13
1 14
1 15
1 16
1 17
1 18
1 19
1 20
1 21
1 22
1 23
1 24
1 25
1 26
1 27
1 28
1 29
1 30
1 31
1 32
1 33
1 34
1 35
1 36
1 37
1 38
1 39
1 40
1 41
1 42
1 43
1 44
1 45
1 46
1 47
1 48
1 49
1 50
1 51
1 52
1 53
1 54
1 55
1 56
1 57
1 58
1 59
1 60
1 61
1 62
1 63
1 64
1 65
1 66
1 67
1 68
1 69
1 70
1 71
1 72
1 73
1 74
1 75
1 76
1 77
1 78
1 79
1 80
1 81
1 82
1 83
1 84
1 85
1 86
1 87

POINT_DATA 88
SCALARS id int 1
LOOKUP_TABLE default
1
2
3
8
9
14
18
26
28
32
34
38
46
48
54
56
59
64
65
66
68
70
74
82
83
86
88
89
90
93
100
106
107
108
109
112
113
121
124
125
126
127
129
132
134
137
142
146
149
159
160
163
165
174
182
187
189
193
195
198
201
209
213
215
221
223
226
227
229
240
242
245
246
256
257
258
270
273
274
277
279
280
281
283
291
293
296
298

SCALARS type int 1
LOOKUP_TABLE default
1
1
1
1
1
1
1
1
1
1
1
1
1
1
1
1
1
1
1
1
1
1
1
1
1
1
1
1
1
1
1
1
1
1
1
1
1
1
1
1
1
1
1
1
1
1
1
1
1
1
1
1
1
1
1
1
1
1
1
1
1
1
1
1
1
1
1
1
1
1
1
1
1
1
1
1
1
1
1
1
1
1
1
1
1
1
1
1

SCALARS radius float 1
LOOKUP_TABLE default
0.0005
0.0005
0.0005
0.0005
0.0005
0.0005
0.0005
0.0005
0.0005
0.0005
0.0005
0.0005
0.0005
0.0005
0.0005
0.0005
0.0005
0.0005
0.0005
0.0005
0.0005
0.0005
0.0005
0.0005
0.0005
0.0005
0.0005
0.0005
0.0005
0.0005
0.0005
0.0005
0.0005
0.0005
0.0005
0.0005
0.0005
0.0005
0.0005
0.0005
0.0005
0.0005
0.0005
0.0005
0.0005
0.0005
0.0005
0.0005
0.0005
0.0005
0.0005
0.0005
0.0005
0.0005
0.0005
0.0005
0.0005
0.0005
0.0005
0.0005
0.0005
0.0005
0.0005
0.0005
0.0005
0.0005
0.0005
0.0005
0.0005
0.0005
0.0005
0.0005
0.0005
0.0005
0.0005
0.0005
0.0005
0.0005
0.0005
0.0005
0.0005
0.0005
0.0005
0.0005
0.0005
0.0005
0.0005
0.0005

SCALARS mass float 1
LOOKUP_TABLE default
1.46608e-07
1.46608e-07
1.46608e-07
1.46608e-07
1.46608e-07
1.46608e-07
1.46608e-07
1.46608e-07
1.46608e-07
1.46608e-07
1.46608e-07
1.46608e-07
1.46608e-07
1.46608e-07
1.46608e-07
1.46608e-07
1.46608e-07
1.46608e-07
1.46608e-07
1.46608e-07
1.46608e-07
1.46608e-07
1.46608e-07
1.46608e-07
1.46608e-07
1.46608e-07
1.46608e-07
1.46608e-07
1.46608e-07
1.46608e-07
1.46608e-07
1.46608e-07
1.46608e-07
1.46608e-07
1.46608e-07
1.46608e-07
1.46608e-07
1.46608e-07
1.46608e-07
1.46608e-07
1.46608e-07
1.46608e-07
1.46608e-07
1.46608e-07
1.46608e-07
1.46608e-07
1.46608e-07
1.46608e-07
1.46608e-07
1.46608e-07
1.46608e-07
1.46608e-07
1.46608e-07
1.46608e-07
1.46608e-07
1.46608e-07
1.46608e-07
1.46608e-07
1.46608e-07
1.46608e-07
1.46608e-07
1.46608e-07
1.46608e-07
1.46608e-07
1.46608e-07
1.46608e-07
1.46608e-07
1.46608e-07
1.46608e-07
1.46608e-07
1.46608e-07
1.46608e-07
1.46608e-07
1.46608e-07
1.46608e-07
1.46608e-07
1.46608e-07
1.46608e-07
1.46608e-07
1.46608e-07
1.46608e-07
1.46608e-07
1.46608e-07
1.46608e-07
1.46608e-07
1.46608e-07
1.46608e-07
1.46608e-07

VECTORS velocity float
-8.67143e-15 7.85696e-14 2.00898e-13
1.06406e-14 2.65575e-14 3.5078e-13
-1.37055e-15 3.97318e-14 -1.45083e-13
-9.78464e-16 -4.35267e-15 -1.20042e-13
-2.74781e-19 1.05472e-18 -5.70542e-18
-1.12285e-14 -4.38014e-14 9.73356e-14
-1.97698e-15 -5.64023e-15 2.40595e-14
1.48635e-14 2.23693e-14 -1.76085e-13
0.00154278 0.00287075 -0.001447
-4.52613e-15 -2.52971e-14 -1.74151e-13
-1.12172e-15 -1.50184e-14 3.21013e-14
0.000163124 0.0113288 -0.0182736
2.01615e-15 3.142e-15 -2.90511e-14
1.51455e-15 5.23427e-15 2.19995e-14
-1.12724e-15 3.25652e-14 -1.18914e-13
-1.5825e-14 -4.43661e-14 1.9057e-13
1.53332e-14 5.18512e-14 2.1969e-13
1.30298e-14 5.25509e-15 -1.07336e-13
9.85076e-15 -6.28948e-14 2.05619e-13
-2.6644e-17 -1.4135e-16 -9.78735e-16
-7.33865e-15 -2.05762e-14 8.83856e-14
4.5128e-15 1.52765e-14 6.47202e-14
-9.11461e-16 -4.03456e-15 -2.88744e-14
5.3715e-16 7.70204e-15 9.86223e-15
3.31517e-15 -1.89273e-14 2.54251e-13
2.53181e-15 -1.23264e-14 5.62304e-14
-4.68265e-15 2.81611e-14 7.49152e-14
-5.87732e-16 -8.14081e-15 2.25485e-14
0.00175371 0.00830254 0.0131957
0.000381244 0.0194499 0.00681623
-9.52826e-15 -2.67159e-14 1.14756e-13
1.95477e-16 -2.75145e-15 -2.89949e-15
4.77633e-15 1.32047e-14 -2.47127e-14
6.44533e-15 2.02123e-14 -8.63495e-14
1.04062e-14 -5.92166e-14 -1.63378e-13
7.97976e-16 -3.78212e-15 -6.44673e-14
1.46598e-17 2.57247e-17 9.10145e-16
-4.35079e-15 -1.94154e-14 -1.3904e-13
-5.19423e-15 -2.31833e-14 -1.66017e-13
6.72668e-16 1.66233e-15 1.31269e-14
-1.94459e-14 1.83118e-16 -2.28119e-13
2.60127e-15 -1.48765e-14 1.99836e-13
-1.08012e-14 2.26508e-14 2.78395e-13
-7.36399e-15 -1.81926e-14 -1.43647e-13
-5.98028e-15 -1.47719e-14 -1.16641e-13
-1.55918e-14 -3.19701e-14 -1.0479e-13
-2.1312e-16 1.82181e-15 -5.76867e-15
-2.83261e-15 1.34613e-14 -6.65668e-14
-9.1932e-15 5.49363e-14 2.11158e-13
1.29393e-15 -7.80349e-15 -2.99535e-14
7.02623e-16 3.15289e-15 2.2518e-14
3.6268e-16 -1.05251e-15 -5.76573e-15
-7.84785e-15 -7.28946e-14 1.85342e-13
3.2055e-05 -0.000361306 -0.000315744
-5.69315e-15 -7.62715e-15 -1.08968e-13
1.49106e-15 2.28818e-15 -1.78438e-14
2.74409e-17 -5.64927e-16 -6.89878e-16
-4.43207e-05 0.000686912 -0.000180584
6.74644e-15 1.89379e-14 2.6288e-13
-9.2834e-16 8.92628e-14 2.24983e-13
2.29505e-16 -6.63897e-16 -3.64325e-15
-1.31901e-14 -4.46517e-14 -1.89165e-13
-1.50293e-14 -5.08778e-14 -2.15543e-13
-1.14331e-14 -3.20987e-14 1.37828e-13
2.65589e-17 -1.6819e-15 4.06053e-15
-7.36428e-15 -1.81926e-14 -1.43647e-13
1.31691e-14 -4.4728e-14 -1.10007e-13
2.95571e-16 4.8851e-15 -1.04409e-14
-1.81488e-14 8.14349e-15 -1.66091e-13
-3.08386e-17 3.16381e-16 8.36029e-16
6.28586e-15 -4.01366e-14 1.31216e-13
0.00220532 -0.00423085 0.0129242
-1.07574e-14 -1.726e-15 1.75368e-13
0.000360608 -0.0200636 -0.00214747
-9.84605e-15 -1.33766e-14 -1.90504e-13
1.40938e-15 -1.60944e-14 -2.29655e-14
-3.69958e-15 -1.32327e-14 -1.98725e-13
3.77586e-15 -1.81961e-14 8.99479e-14
8.9248e-16 5.06752e-15 -1.9634e-14
-3.1398e-15 2.5301e-14 -8.03095e-14
-3.79387e-16 3.70488e-14 9.33838e-14
2.17799e-15 -1.03776e-14 -1.76838e-13
2.36847e-14 -4.02493e-14 1.90901e-13
-3.69965e-05 -0.00221442 0.000241731
-7.07753e-15 -4.06806e-14 1.57632e-13
1.36827e-15 -1.61151e-14 -2.29592e-14
-4.22416e-16 1.19633e-14 -4.36758e-14
-0.00171279 -0.00358477 -0.03207

VECTORS force float
2.86734e-20 0.0 1.05879e-21
-8.77407e-20 4.33575e-20 2.11758e-22
-1.19097e-20 0.0 2.11758e-22
1.62127e-22 -1.32349e-23 0.0
-1.65436e-24 7.61006e-23 2.11758e-22
-2.38228e-22 3.17637e-22 2.11758e-22
-7.94093e-22 5.55865e-22 -2.5411e-21
1.25334e-19 1.77348e-20 1.03762e-20
-8.701e-07 7.55902e-07 -2.72452e-07
8.74826e-21 -5.82335e-22 -2.11758e-22
1.57178e-19 -7.90917e-20 -3.28225e-20
-8.96963e-10 -6.5199e-09 -1.07728e-08
-1.54186e-20 1.2679e-20 4.23516e-22
8.99973e-22 3.70577e-22 -2.5411e-21
4.06973e-22 -5.29396e-23 -2.11758e-22
-3.83812e-22 2.2764e-21 4.23516e-22
2.06504e-19 -7.98329e-20 5.0822e-21
9.86529e-20 -4.16105e-20 9.52912e-21
-6.35275e-22 -1.05879e-22 0.0
7.94093e-22 2.11758e-22 2.11758e-22
-6.61744e-23 1.05879e-22 0.0
-7.14684e-22 2.64698e-22 0.0
-1.05879e-22 2.11758e-22 4.23516e-22
0.0 0.0 0.0
-2.44845e-22 5.29396e-23 0.0
1.00056e-20 2.64698e-22 -2.11758e-22
7.23948e-21 -2.8005e-20 1.01644e-20
-4.30134e-23 -1.85288e-22 0.0
-1.89611e-08 6.36105e-08 6.87116e-08
-2.39557e-09 9.81094e-09 -7.51374e-09
1.19114e-22 -5.29396e-23 0.0
3.97047e-22 1.05879e-22 0.0
5.29396e-23 5.29396e-23 0.0
1.62792e-18 -5.65183e-19 6.14099e-21
-1.30099e-20 -1.5776e-20 4.44692e-21
0.0 0.0 0.0
-5.29396e-23 7.94093e-23 0.0
-6.61744e-22 2.64698e-22 0.0
0.0 0.0 0.0
1.32349e-23 0.0 0.0
5.29396e-23 -1.24836e-20 0.0
-2.27144e-20 -4.80426e-21 0.0
2.55844e-19 -6.49833e-21 1.05879e-20
-7.54389e-22 5.29396e-23 0.0
6.2204e-22 -2.91168e-22 0.0
1.85288e-22 -2.11758e-22 2.11758e-22
0.0 5.29396e-23 0.0
-3.97047e-23 0.0 0.0
-1.95545e-20 7.25272e-21 -3.38813e-21
1.05879e-22 0.0 2.11758e-22
3.63959e-23 -7.94093e-23 -2.11758e-22
-5.9557e-23 0.0 0.0
0.0 0.0 0.0
3.56641e-11 2.70923e-08 -2.97335e-08
1.05694e-19 -6.8345e-20 -4.23516e-22
-2.51198e-20 4.34898e-20 3.38813e-21
-1.05879e-22 -3.70577e-22 -2.11758e-22
-1.81418e-10 -3.12102e-09 -1.4866e-08
-1.46246e-21 4.49986e-22 0.0
1.00089e-22 0.0 2.11758e-22
2.24993e-22 0.0 0.0
5.29396e-23 5.29396e-23 0.0
-1.32349e-23 1.58819e-22 0.0
2.51463e-21 -7.04096e-21 -1.48231e-21
-4.04723e-20 -1.29173e-20 -4.02341e-21
-1.7073e-21 8.99973e-22 0.0
-6.94832e-20 -1.14349e-20 -2.75286e-21
-6.61744e-23 0.0 0.0
-2.11758e-22 2.64698e-23 0.0
0.0 -5.29396e-23 0.0
5.16161e-22 -5.29396e-23 -2.11758e-22
6.75969e-09 7.47668e-09 -2.60117e-08
0.0 -1.65436e-24 0.0
-1.41673e-09 -8.0896e-09 1.03381e-08
1.62789e-20 4.92338e-21 -1.27055e-21
2.11758e-22 -5.29396e-23 1.05879e-22
1.14151e-21 -1.19114e-22 0.0
3.16843e-20 1.85288e-20 3.38813e-21
1.74701e-21 0.0 2.11758e-22
-9.00833e-20 -4.1187e-20 -1.01644e-20
1.14399e-21 -1.05879e-22 0.0
3.01755e-20 7.17331e-21 0.0
-2.88521e-21 0.0 4.23516e-22
-1.42224e-10 5.9493e-08 -4.67111e-08
2.99506e-20 -5.45277e-21 0.0
-2.11758e-22 -1.05879e-22 0.0
-2.34622e-20 -2.59404e-21 -6.35275e-22
4.55158e-05 1.73618e-05 0.000152076
