# vtk DataFile Version 3.0
LIGGGHTS particles timestep 13600000
ASCII
DATASET POLYDATA
POINTS 98 float
0.0237828 0.0222469 0.0146239
0.0229235 0.0232874 0.0123835
0.0352718 0.0227391 0.0137827
0.0367717 0.0167899 0.0151007
0.0436892 0.020408 0.00596775
0.0169458 0.0234162 0.0123007
0.0218066 0.0214107 0.00802357
0.08261 0.0191091 0.00590955
0.0230358 0.0232762 0.0147959
0.0232765 0.02322 0.0104104
0.0245805 0.0177818 0.0157576
0.0264542 0.01585 0.00859822
0.0450541 0.0174935 0.00619215
0.035638 0.0214179 0.0150291
0.0276614 0.0209203 0.00761676
0.0295329 0.0219354 0.0147132
0.0326997 0.0168905 0.0077422
0.0317906 0.0147612 0.0111189
0.0380923 0.0150809 0.00979532
0.0344159 0.02314 0.0100949
0.0198177 0.016093 0.0148258
0.0324769 0.0159427 0.00852317
0.0388921 0.0175855 0.00742496
0.033697 0.0211094 0.00776789
0.0279329 0.0218037 0.00817279
0.0174151 0.0141291 0.0133389
0.0199968 0.0240871 0.0129076
0.0349258 0.0232614 0.0124911
0.0321244 0.0151348 0.00972476
0.017306 0.022913 0.0137132
0.0361789 0.0196744 0.0157717
0.0224355 0.0231704 0.0101353
0.024704 0.0210995 0.0156754
0.0284076 0.023149 0.010029
0.0346434 0.0233391 0.0109054
0.0378389 0.0148737 0.0107873
0.0240216 0.0203707 0.0157422
0.0267963 0.0171977 0.0075912
0.0364708 0.0180234 0.0155398
0.0286781 0.0233336 0.0111082
0.0205495 0.0162475 0.00824678
0.0235011 0.0150163 0.0149081
0.0245087 0.0220792 0.0157205
0.0333476 0.0197849 0.00734031
0.0193487 0.015069 0.0135065
0.0286258 0.0183498 0.00592583
0.0339302 0.021826 0.00818246
0.0211022 0.0153175 0.0143387
0.0249992 0.0159345 0.0144608
0.0255727 0.0184334 0.0159036
0.0176742 0.0222216 0.0146274
0.0374858 0.0149241 0.0125985
0.0244573 0.0189254 0.0159469
0.0197051 0.0171934 0.0155384
0.0370313 0.0157763 0.0142703
0.0202236 0.0152362 0.0139136
0.0273434 0.0195644 0.00722054
0.0174582 0.0241976 0.0134879
0.0177124 0.0234768 0.0117638
0.0208142 0.0160871 0.0149082
0.0184439 0.0140046 0.0130106
0.0211205 0.0142169 0.0132883
0.0191417 0.0155048 0.0143823
0.0474618 0.0192773 0.00593797
0.0218906 0.0143875 0.0139051
0.0300252 0.0200639 0.0156048
0.0206635 0.0169394 0.0154088
0.01898 0.0233746 0.0127527
0.0182096 0.023104 0.0133299
0.044179 0.0167154 0.00630741
0.0254974 0.0204895 0.0157035
0.0306502 0.0171577 0.0153765
0.0314686 0.015026 0.0126828
0.0585019 0.0190661 0.00583452
0.0281296 0.0225876 0.00895811
0.0188183 0.0167808 0.0153307
0.0212375 0.0170445 0.00765196
0.0307283 0.0166516 0.00660365
0.0302243 0.0191336 0.0158434
0.0289032 0.0233043 0.0123388
0.0203966 0.0142825 0.0126016
0.0292769 0.0226955 0.0137613
0.0242602 0.0201274 0.00583803
0.0204029 0.0155649 0.00896078
0.0197019 0.0146162 0.011951
0.0227704 0.0146417 0.014333
0.0211951 0.0187606 0.00719521
0.0209626 0.0178216 0.007403
0.0215853 0.0238981 0.0135555
0.0329213 0.018225 0.00727298
0.0208892 0.0235636 0.0141906
0.0312048 0.0153826 0.0136944
0.0309827 0.0159802 0.0145091
0.0232831 0.0228219 0.0138564
0.03293 0.0193179 0.00575787
0.0186995 0.023478 0.0117986
0.0224036 0.0236432 0.014084
0.0201064 0.0151453 0.00958522

VERTICES 98 196
1 0
1 1
1 2
1 3
1 4
1 5
1 6
1 7
1 8
1 9
1 10
1 11
1 12
1 13
1 14
1 15
1 16
1 17
1 18
1 19
1 20
1 21
1 22
1 23
1 24
1 25
1 26
1 27
1 28
1 29
1 30
1 31
1 32
1 33
1 34
1 35
1 36
1 37
1 38
1 39
1 40
1 41
1 42
1 43
1 44
1 45
1 46
1 47
1 48
1 49
1 50
1 51
1 52
1 53
1 54
1 55
1 56
1 57
1 58
1 59
1 60
1 61
1 62
1 63
1 64
1 65
1 66
1 67
1 68
1 69
1 70
1 71
1 72
1 73
1 74
1 75
1 76
1 77
1 78
1 79
1 80
1 81
1 82
1 83
1 84
1 85
1 86
1 87
1 88
1 89
1 90
1 91
1 92
1 93
1 94
1 95
1 96
1 97

POINT_DATA 98
SCALARS id int 1
LOOKUP_TABLE default
1
2
3
8
9
14
17
18
19
20
26
28
32
34
38
46
48
54
56
59
64
65
66
68
70
74
82
83
86
88
89
90
91
93
96
100
106
107
108
109
112
113
121
124
125
126
127
129
132
134
137
142
143
146
149
159
160
163
165
171
174
180
182
187
189
193
194
195
198
201
209
213
215
221
223
226
227
229
240
242
243
245
246
256
257
258
270
273
274
277
279
280
281
283
291
293
296
298

SCALARS type int 1
LOOKUP_TABLE default
1
1
1
1
1
1
1
1
1
1
1
1
1
1
1
1
1
1
1
1
1
1
1
1
1
1
1
1
1
1
1
1
1
1
1
1
1
1
1
1
1
1
1
1
1
1
1
1
1
1
1
1
1
1
1
1
1
1
1
1
1
1
1
1
1
1
1
1
1
1
1
1
1
1
1
1
1
1
1
1
1
1
1
1
1
1
1
1
1
1
1
1
1
1
1
1
1
1

SCALARS radius float 1
LOOKUP_TABLE default
0.0005
0.0005
0.0005
0.0005
0.0005
0.0005
0.0005
0.0005
0.0005
0.0005
0.0005
0.0005
0.0005
0.0005
0.0005
0.0005
0.0005
0.0005
0.0005
0.0005
0.0005
0.0005
0.0005
0.0005
0.0005
0.0005
0.0005
0.0005
0.0005
0.0005
0.0005
0.0005
0.0005
0.0005
0.0005
0.0005
0.0005
0.0005
0.0005
0.0005
0.0005
0.0005
0.0005
0.0005
0.0005
0.0005
0.0005
0.0005
0.0005
0.0005
0.0005
0.0005
0.0005
0.0005
0.0005
0.0005
0.0005
0.0005
0.0005
0.0005
0.0005
0.0005
0.0005
0.0005
0.0005
0.0005
0.0005
0.0005
0.0005
0.0005
0.0005
0.0005
0.0005
0.0005
0.0005
0.0005
0.0005
0.0005
0.0005
0.0005
0.0005
0.0005
0.0005
0.0005
0.0005
0.0005
0.0005
0.0005
0.0005
0.0005
0.0005
0.0005
0.0005
0.0005
0.0005
0.0005
0.0005
0.0005

SCALARS mass float 1
LOOKUP_TABLE default
1.46608e-07
1.46608e-07
1.46608e-07
1.46608e-07
1.46608e-07
1.46608e-07
1.46608e-07
1.46608e-07
1.46608e-07
1.46608e-07
1.46608e-07
1.46608e-07
1.46608e-07
1.46608e-07
1.46608e-07
1.46608e-07
1.46608e-07
1.46608e-07
1.46608e-07
1.46608e-07
1.46608e-07
1.46608e-07
1.46608e-07
1.46608e-07
1.46608e-07
1.46608e-07
1.46608e-07
1.46608e-07
1.46608e-07
1.46608e-07
1.46608e-07
1.46608e-07
1.46608e-07
1.46608e-07
1.46608e-07
1.46608e-07
1.46608e-07
1.46608e-07
1.46608e-07
1.46608e-07
1.46608e-07
1.46608e-07
1.46608e-07
1.46608e-07
1.46608e-07
1.46608e-07
1.46608e-07
1.46608e-07
1.46608e-07
1.46608e-07
1.46608e-07
1.46608e-07
1.46608e-07
1.46608e-07
1.46608e-07
1.46608e-07
1.46608e-07
1.46608e-07
1.46608e-07
1.46608e-07
1.46608e-07
1.46608e-07
1.46608e-07
1.46608e-07
1.46608e-07
1.46608e-07
1.46608e-07
1.46608e-07
1.46608e-07
1.46608e-07
1.46608e-07
1.46608e-07
1.46608e-07
1.46608e-07
1.46608e-07
1.46608e-07
1.46608e-07
1.46608e-07
1.46608e-07
1.46608e-07
1.46608e-07
1.46608e-07
1.46608e-07
1.46608e-07
1.46608e-07
1.46608e-07
1.46608e-07
1.46608e-07
1.46608e-07
1.46608e-07
1.46608e-07
1.46608e-07
1.46608e-07
1.46608e-07
1.46608e-07
1.46608e-07
1.46608e-07
1.46608e-07

VECTORS velocity float
-0.0413913 -0.0162092 -0.0403466
0.000199425 0.00421292 -0.0204931
0.00165917 0.00922263 -0.0137828
0.00141794 0.0152426 0.00833666
2.39652e-15 -2.04492e-14 6.4884e-14
0.00372112 -4.84567e-05 -0.00374082
4.30511e-05 -0.0177957 -0.0129462
-1.80985e-14 -5.05678e-14 2.16919e-13
-0.00169155 0.0266201 0.0120131
0.000469064 -0.00278334 -0.0134417
0.00187008 0.0140875 0.00421045
0.000263297 -0.0147843 0.0167348
-3.12362e-15 -1.7469e-14 -1.20236e-13
-0.000111048 0.0177256 -0.0117957
0.000508549 -0.0182788 -0.00810921
0.000605002 0.0139823 -0.013364
0.000467362 -0.0190035 0.0100672
7.65465e-05 -0.00261935 0.0220046
0.000568999 -0.00638804 0.0119929
0.000280677 -0.00714464 -0.0193928
0.00059058 0.0170583 0.0145596
0.000227053 -0.0143026 0.0150914
0.000478753 -0.0197011 0.00683119
0.00281555 -0.0131829 -0.00418421
0.000794261 -0.0160556 -0.0133038
0.000583866 -0.00080266 0.00179607
-3.43304e-05 0.00081951 -0.000544592
0.000347855 0.00496421 -0.0182655
0.00166564 -0.00622257 0.0165445
-0.0123875 0.0158694 -0.0286558
0.000317101 0.0137633 -0.000228812
0.000726609 -0.00554708 -0.0191639
0.0049672 0.0137872 -0.0435985
0.00028503 -0.00679624 -0.019928
0.000343426 -0.000728357 -0.022663
0.000952465 -0.00462792 0.0198838
0.000370801 0.0204058 -0.00634141
0.000903667 -0.0164072 0.00706467
0.000140773 0.0207283 0.00551377
0.0011849 0.00070254 -0.0226958
0.000759434 -0.0148206 0.0115386
0.00686792 0.00430826 0.00450746
-0.0177721 0.00834133 -0.0233372
0.000122798 -0.0211438 -0.00396178
0.000372729 0.00872723 0.0196587
-1.94458e-14 1.8261e-16 -2.28119e-13
0.00237297 -0.0088825 -0.00709689
6.78012e-05 0.0153556 0.0180195
0.000157227 0.0145265 0.0159463
8.57078e-10 0.0203139 0.00297404
3.36239e-06 0.0513773 -0.0478243
0.000704626 0.0038417 0.0186336
-3.52665e-08 0.0205356 0.000458315
0.000223573 0.0186025 0.00888605
0.000281238 0.0117435 0.0176962
0.0059012 0.0102166 0.00698976
5.08135e-05 -0.022673 -0.00452136
-0.0158012 0.0113061 0.0304258
0.00596154 -0.000649128 -0.000198904
0.000345672 0.0180358 0.0110925
0.00151165 0.00107554 -0.00388966
0.00268092 0.00163751 -2.10786e-05
-0.000129591 0.0171686 0.0158788
4.64581e-15 -1.01783e-14 -1.05711e-13
0.00441413 0.00404127 -0.00273882
0.000627335 0.0185287 -0.00565508
0.00025644 0.0192843 0.0104061
0.00484652 0.00128017 -0.00140972
-0.00117156 0.00376587 -0.00878089
2.04743e-15 -5.79626e-15 -3.18941e-14
-0.00344679 0.00286964 -0.00153843
0.00142761 0.0151837 0.00644672
0.00195422 0.0053426 0.0150516
1.13167e-14 -2.34724e-14 -2.88773e-13
0.000427251 -0.0118154 -0.0155377
0.000446354 0.0179134 0.0107369
0.000297186 -0.0115699 0.00389956
9.42542e-15 -3.21488e-14 -7.90153e-14
0.000866952 0.0141325 0.000363676
0.00137269 0.00209147 -0.0168831
0.00255882 -0.00453487 -0.000498314
-0.000289204 0.0115548 -0.0163607
-1.07556e-14 -1.726e-15 1.75368e-13
0.00119332 -0.00572472 0.00532773
0.00268097 -0.00434214 -0.00268609
0.00760216 0.00208377 0.00347402
0.000233853 -0.02011 0.00187944
0.000470999 -0.0202887 0.00377239
-0.00267151 0.000970868 -0.00148368
-14.7833 6.48288 -9.69223
-0.0202143 0.00846076 -0.016786
-0.000305693 0.00949074 0.0205588
0.000585618 0.0138714 0.0136421
0.00334142 0.00232845 -0.00505367
-8.27384e-15 -4.74532e-14 1.83895e-13
0.00216317 -0.000247411 -0.00307472
-0.00477288 0.00121463 -0.00332701
0.00593381 -0.00804894 0.0137699

VECTORS force float
0.0 0.0 -1.43822e-06
-1.58369e-09 -7.92572e-09 -9.2195e-09
-8.1478e-08 1.4826e-09 -3.21165e-07
-5.80266e-09 1.95756e-08 -1.24167e-09
1.40952e-20 -4.12929e-21 -1.69407e-21
1.76881e-06 -2.88033e-06 -5.58416e-06
1.026e-09 -9.63013e-09 7.82948e-09
-1.66733e-19 1.3182e-19 1.18585e-20
0.0 0.0 -1.43822e-06
2.69435e-09 1.12981e-08 9.98213e-10
-3.96843e-08 1.72241e-07 4.60086e-08
-1.54724e-08 -1.14043e-07 1.38646e-07
-3.65283e-21 5.9557e-21 -8.47033e-22
1.70197e-09 -2.95277e-09 -1.25251e-08
-3.10436e-09 -1.55694e-08 4.75375e-09
-4.43928e-09 4.95071e-09 -1.93045e-08
1.31059e-09 1.94339e-09 1.0233e-08
-4.96179e-10 1.0139e-08 6.31664e-09
1.30248e-09 1.653e-08 -1.24226e-08
-1.50459e-09 -1.24625e-08 5.24874e-09
-1.60346e-06 1.36065e-06 3.03281e-07
-8.03078e-10 2.84033e-09 1.17786e-08
-1.36832e-09 -2.83559e-09 1.18515e-08
-5.6392e-08 -9.46661e-08 -1.58154e-07
-1.66049e-08 -2.76855e-08 -7.39054e-09
6.61096e-09 -1.03882e-08 2.38492e-08
8.61041e-10 1.00407e-08 -8.45683e-09
7.56975e-09 -4.92548e-08 5.68959e-08
-1.46777e-08 1.09817e-09 1.87706e-08
2.19245e-07 4.4173e-07 -4.72035e-07
7.57639e-10 -4.812e-08 -7.72867e-09
2.03885e-09 -9.06175e-09 -1.89574e-09
-2.23686e-08 -7.23633e-08 -1.41845e-06
-6.85266e-10 -1.28141e-08 -2.40676e-09
-9.67544e-09 1.70012e-08 3.54217e-08
1.70648e-08 2.34326e-08 -2.11176e-09
-1.11444e-09 3.84054e-10 -1.57808e-08
5.25966e-09 1.14425e-08 8.14422e-09
-1.91239e-09 6.24397e-09 -9.48577e-09
-1.0569e-06 6.74634e-07 -3.92934e-06
9.7687e-07 6.4271e-06 -5.57216e-06
-5.42965e-07 -2.40774e-07 -5.25627e-07
-2.91957e-07 -3.29851e-07 -8.05882e-07
-7.06561e-10 -5.87365e-09 9.99216e-09
-3.97519e-07 2.55022e-06 6.68065e-07
0.0 -7.49322e-21 -2.11758e-22
-1.58569e-07 -4.14012e-07 -1.77337e-07
-1.6179e-07 -1.43877e-07 9.0752e-07
-6.54325e-10 1.13422e-08 -3.49592e-09
-1.90445e-13 2.09083e-09 -1.35058e-08
-7.70981e-10 2.14846e-07 -3.11582e-07
2.0946e-09 1.26909e-08 -5.8681e-09
-3.06676e-11 3.15219e-10 -1.3664e-08
-1.2147e-06 1.19905e-06 1.88328e-06
-1.3175e-08 -5.45686e-08 -7.21043e-08
-3.28793e-06 1.8887e-06 7.30497e-06
-2.56299e-10 -5.78711e-09 1.05133e-08
1.26634e-07 -4.30078e-07 -1.0397e-06
1.28809e-05 -7.83368e-06 -1.32772e-05
-1.39503e-06 -1.50114e-06 2.33828e-06
-1.89197e-08 -1.50975e-08 5.46733e-08
-4.98267e-07 2.38271e-07 -1.12788e-06
1.41213e-06 -2.01523e-06 1.34923e-06
2.21274e-19 5.32837e-20 5.50571e-21
-4.70794e-07 2.40928e-07 -1.01461e-06
-1.05438e-08 2.57567e-08 -1.72012e-08
1.97609e-07 -1.84636e-06 3.02157e-06
1.21777e-06 -4.45856e-07 -1.53914e-06
-1.05795e-06 1.52963e-07 -9.10556e-07
4.30134e-21 -7.94093e-22 8.47033e-22
-9.19228e-09 3.89561e-09 1.2124e-08
-9.03859e-10 -2.48871e-08 -5.82129e-09
-3.08307e-09 -3.09828e-09 -5.51471e-09
-1.04026e-20 -4.47339e-21 0.0
-2.87556e-09 -1.53693e-08 -3.3803e-09
-1.72361e-07 1.95985e-07 -2.31909e-07
9.20629e-08 8.41724e-09 -3.6328e-09
1.46378e-20 -4.45751e-20 1.67289e-20
2.97624e-09 -1.2885e-08 -1.32966e-08
-8.11715e-09 -6.05994e-09 -1.98894e-08
-1.78131e-07 8.95357e-08 -1.49495e-06
3.89305e-08 -3.64976e-08 -4.27008e-08
3.09696e-21 0.0 2.11758e-22
1.4318e-07 3.52031e-07 -3.94429e-07
0.0 0.0 -1.43822e-06
-5.11755e-07 -2.15459e-07 -4.72916e-07
1.09744e-09 3.78155e-09 5.61678e-09
-7.4331e-09 -6.60186e-09 1.90514e-08
1.02927e-07 -2.51878e-08 -1.12373e-07
6.57665 -3.10444 -11.9178
1.56188e-07 7.40321e-08 -1.08387e-07
-6.08791e-10 1.01739e-08 -3.06714e-09
-7.04334e-09 1.77638e-08 7.87749e-09
1.91243e-07 -1.12612e-07 1.32948e-06
1.72054e-22 0.0 0.0
2.05257e-05 -2.29635e-06 -9.08077e-06
-1.50528e-08 1.35042e-08 6.21089e-09
-3.66613e-08 -1.4798e-07 2.47312e-07
