# vtk DataFile Version 3.0
LIGGGHTS particles timestep 39800000
ASCII
DATASET POLYDATA
POINTS 88 float
0.0387146 0.0187573 0.00575718
0.0385549 0.0233009 0.0106064
0.0651417 0.0194805 0.00572288
0.102543 0.017821 0.00581645
0.0387828 0.0214812 0.00622724
0.0418254 0.0147965 0.0111059
0.08261 0.0191091 0.00590955
0.10448 0.0180949 0.00580371
0.051835 0.0209665 0.015313
0.0458896 0.0168235 0.00626774
0.057335 0.017914 0.0058854
0.0533177 0.01521 0.0134741
0.05516 0.0188647 0.00723955
0.0585822 0.0176546 0.0155826
0.0576071 0.0215638 0.0149416
0.0602664 0.0153442 0.0093871
0.0793161 0.0192087 0.00581236
0.0170063 0.0201419 0.00601043
0.0632091 0.0196192 0.00574818
0.0448733 0.0164686 0.00634571
0.0595431 0.0149037 0.0124304
0.0497682 0.0211753 0.00779013
0.042383 0.0157271 0.00884207
0.0436322 0.0204875 0.00742986
0.0607916 0.0170183 0.00776125
0.0579735 0.0203908 0.0156164
0.0357086 0.0161117 0.00660683
0.0616014 0.0205347 0.00743536
0.0439777 0.0221016 0.00841121
0.0540826 0.015047 0.0100582
0.0632597 0.0227531 0.0135979
0.0439552 0.0161318 0.00656318
0.0520958 0.0196968 0.0157773
0.0622244 0.0226422 0.0093544
0.0512355 0.0227607 0.0134456
0.0482257 0.0152586 0.00961635
0.0484884 0.0161337 0.00838879
0.0465269 0.0159829 0.00848305
0.0593146 0.0152414 0.013491
0.0470352 0.0158412 0.0143622
0.0286258 0.0183498 0.00592583
0.0598664 0.0148624 0.0108444
0.0344847 0.0179735 0.0155696
0.0514095 0.0223359 0.0142896
0.0480066 0.0149656 0.0104591
0.0238948 0.0168123 0.00667048
0.0470176 0.01787 0.0060864
0.0388539 0.0197419 0.00587248
0.0766607 0.0190533 0.00580856
0.0779397 0.0194308 0.00576583
0.0524285 0.0182603 0.0157102
0.0424878 0.0188132 0.00581899
0.0920805 0.0205253 0.0059177
0.0461387 0.0195705 0.0157638
0.0446464 0.0233589 0.0110417
0.102423 0.0196788 0.00582979
0.0453636 0.0157749 0.00687326
0.377402 0.0174887 0.00842253
0.0507369 0.0203921 0.00594173
0.0448416 0.0233397 0.0119907
0.0440263 0.0170728 0.00623272
0.0506411 0.02334 0.0111791
0.0560707 0.0223533 0.00870112
0.0572087 0.0229936 0.0133149
0.059059 0.0180876 0.00593586
0.0535659 0.014861 0.0122787
0.0316007 0.0183082 0.00603438
0.0397915 0.0210832 0.0152339
0.0215463 0.0196109 0.00592744
0.055583 0.0204541 0.00742514
0.0545405 0.0163658 0.00820238
0.0548996 0.0173657 0.00753718
0.0242602 0.0201274 0.00583803
0.0408383 0.0165445 0.0149615
0.0315022 0.0201233 0.00738003
0.0371463 0.0185954 0.00726906
0.0504712 0.0179279 0.00611076
0.0371638 0.0187263 0.00573865
0.0328558 0.0191954 0.00572294
0.044465 0.0204317 0.00594645
0.0426901 0.0166558 0.00788842
0.0569634 0.023267 0.0124628
0.0564611 0.0230968 0.0100377
0.0503086 0.0228355 0.00962981
0.0350698 0.0188001 0.00572051
0.0357115 0.0147796 0.0115878
0.04331 0.0193611 0.00718549
0.0472586 0.015329 0.0136045

VERTICES 88 176
1 0
1 1
1 2
1 3
1 4
1 5
1 6
1 7
1 8
1 9
1 10
1 11
1 12
1 13
1 14
1 15
1 16
1 17
1 18
1 19
1 20
1 21
1 22
1 23
1 24
1 25
1 26
1 27
1 28
1 29
1 30
1 31
1 32
1 33
1 34
1 35
1 36
1 37
1 38
1 39
1 40
1 41
1 42
1 43
1 44
1 45
1 46
1 47
1 48
1 49
1 50
1 51
1 52
1 53
1 54
1 55
1 56
1 57
1 58
1 59
1 60
1 61
1 62
1 63
1 64
1 65
1 66
1 67
1 68
1 69
1 70
1 71
1 72
1 73
1 74
1 75
1 76
1 77
1 78
1 79
1 80
1 81
1 82
1 83
1 84
1 85
1 86
1 87

POINT_DATA 88
SCALARS id int 1
LOOKUP_TABLE default
1
2
3
8
9
14
18
26
28
32
34
38
46
48
54
56
59
64
65
66
68
70
74
82
83
86
88
89
90
93
100
106
107
108
109
112
113
121
124
125
126
127
129
132
134
137
142
146
149
159
160
163
165
174
182
187
189
193
195
198
201
209
213
215
221
223
226
227
229
240
242
245
246
256
257
258
270
273
274
277
279
280
281
283
291
293
296
298

SCALARS type int 1
LOOKUP_TABLE default
1
1
1
1
1
1
1
1
1
1
1
1
1
1
1
1
1
1
1
1
1
1
1
1
1
1
1
1
1
1
1
1
1
1
1
1
1
1
1
1
1
1
1
1
1
1
1
1
1
1
1
1
1
1
1
1
1
1
1
1
1
1
1
1
1
1
1
1
1
1
1
1
1
1
1
1
1
1
1
1
1
1
1
1
1
1
1
1

SCALARS radius float 1
LOOKUP_TABLE default
0.0005
0.0005
0.0005
0.0005
0.0005
0.0005
0.0005
0.0005
0.0005
0.0005
0.0005
0.0005
0.0005
0.0005
0.0005
0.0005
0.0005
0.0005
0.0005
0.0005
0.0005
0.0005
0.0005
0.0005
0.0005
0.0005
0.0005
0.0005
0.0005
0.0005
0.0005
0.0005
0.0005
0.0005
0.0005
0.0005
0.0005
0.0005
0.0005
0.0005
0.0005
0.0005
0.0005
0.0005
0.0005
0.0005
0.0005
0.0005
0.0005
0.0005
0.0005
0.0005
0.0005
0.0005
0.0005
0.0005
0.0005
0.0005
0.0005
0.0005
0.0005
0.0005
0.0005
0.0005
0.0005
0.0005
0.0005
0.0005
0.0005
0.0005
0.0005
0.0005
0.0005
0.0005
0.0005
0.0005
0.0005
0.0005
0.0005
0.0005
0.0005
0.0005
0.0005
0.0005
0.0005
0.0005
0.0005
0.0005

SCALARS mass float 1
LOOKUP_TABLE default
1.46608e-07
1.46608e-07
1.46608e-07
1.46608e-07
1.46608e-07
1.46608e-07
1.46608e-07
1.46608e-07
1.46608e-07
1.46608e-07
1.46608e-07
1.46608e-07
1.46608e-07
1.46608e-07
1.46608e-07
1.46608e-07
1.46608e-07
1.46608e-07
1.46608e-07
1.46608e-07
1.46608e-07
1.46608e-07
1.46608e-07
1.46608e-07
1.46608e-07
1.46608e-07
1.46608e-07
1.46608e-07
1.46608e-07
1.46608e-07
1.46608e-07
1.46608e-07
1.46608e-07
1.46608e-07
1.46608e-07
1.46608e-07
1.46608e-07
1.46608e-07
1.46608e-07
1.46608e-07
1.46608e-07
1.46608e-07
1.46608e-07
1.46608e-07
1.46608e-07
1.46608e-07
1.46608e-07
1.46608e-07
1.46608e-07
1.46608e-07
1.46608e-07
1.46608e-07
1.46608e-07
1.46608e-07
1.46608e-07
1.46608e-07
1.46608e-07
1.46608e-07
1.46608e-07
1.46608e-07
1.46608e-07
1.46608e-07
1.46608e-07
1.46608e-07
1.46608e-07
1.46608e-07
1.46608e-07
1.46608e-07
1.46608e-07
1.46608e-07
1.46608e-07
1.46608e-07
1.46608e-07
1.46608e-07
1.46608e-07
1.46608e-07
1.46608e-07
1.46608e-07
1.46608e-07
1.46608e-07
1.46608e-07
1.46608e-07
1.46608e-07
1.46608e-07
1.46608e-07
1.46608e-07
1.46608e-07
1.46608e-07

VECTORS velocity float
-8.68218e-15 7.85638e-14 2.00899e-13
0.00142856 -0.00234224 -0.013249
2.4922e-15 -1.17473e-14 -2.00675e-13
-9.78218e-16 -4.35252e-15 -1.20042e-13
-1.60204e-12 -2.29126e-12 -7.07949e-13
0.000309054 -0.00157944 0.0204452
-1.803e-14 -5.04989e-14 2.16941e-13
1.49862e-14 2.23657e-14 -1.76075e-13
0.00114766 0.0142507 -0.00694628
-4.52713e-15 -2.52971e-14 -1.74151e-13
1.64996e-15 3.85423e-15 9.33142e-14
0.000532259 0.00924768 0.0178695
0.000108101 -0.0216758 0.000470682
0.00102672 0.0169274 0.00473191
0.000257165 0.0163024 -0.0125228
8.54961e-05 -0.0101217 0.0144968
1.54827e-14 5.18118e-14 2.19689e-13
1.3009e-14 5.26009e-15 -1.07339e-13
3.98093e-15 5.47601e-14 -1.51839e-13
-5.82363e-17 -3.09902e-16 -2.14731e-15
-3.06507e-05 0.00343912 0.0222469
0.000875643 -0.0191216 -0.0112018
0.000219685 -0.0130486 0.0164627
0.00035014 -0.00876714 -0.0036403
0.00276693 -0.00350855 0.00316239
0.00286062 0.00449967 -0.00302896
-4.64824e-15 2.81919e-14 7.49056e-14
0.00126623 -0.0166163 -0.00460119
0.00101765 -0.0133206 -0.0121489
0.000749608 -0.00762531 0.0194396
0.00113204 0.00821014 -0.0161411
1.95936e-16 -2.75167e-15 -2.89973e-15
0.000217341 0.0227967 -0.00150703
4.7074e-06 -0.0110073 -0.0180878
0.000697863 0.00886253 -0.0182761
0.00136051 -0.00918802 0.0150092
0.000188633 -0.0149757 0.0145238
-0.000137915 -0.0147044 0.0151906
0.000435573 0.00957827 0.0180562
0.0007688 0.0141957 0.0143831
-1.94451e-14 2.52195e-16 -2.28119e-13
0.000244916 -0.00274044 0.0205754
7.689e-05 0.0208359 0.00617977
0.000876525 0.0108555 -0.0142284
0.00114281 -0.00259251 0.0159099
-1.55919e-14 -3.19691e-14 -1.0479e-13
-3.12646e-15 -1.74651e-14 -1.20236e-13
-2.81883e-15 1.34613e-14 -6.65674e-14
-9.18004e-15 5.49323e-14 2.11159e-13
6.41205e-15 -3.81142e-14 -1.46468e-13
0.000917161 0.0193519 0.00297405
-4.51473e-15 1.30454e-14 7.16621e-14
-7.84821e-15 -7.28946e-14 1.85342e-13
0.000747661 0.0193476 -0.00288319
0.00120587 -0.00262875 -0.0165043
1.52104e-15 2.2648e-15 -1.78443e-14
6.12574e-17 -1.23758e-15 -1.51359e-15
2.6161e-05 0.00101402 0.000397009
-5.71748e-15 -2.04857e-14 -3.07615e-13
0.000158671 0.00358557 -0.0213053
2.2964e-16 -6.63857e-16 -3.64347e-15
0.00175581 -0.000463494 -0.0110844
0.000729035 -0.0107013 -0.0132587
0.00139475 0.00764357 -0.0137095
7.18622e-15 -1.49145e-14 -1.83491e-13
-0.000126381 0.00329013 0.0215755
1.31732e-14 -4.47441e-14 -1.1e-13
0.000969827 0.0159581 -0.00983126
-1.81493e-14 8.14341e-15 -1.66091e-13
0.00152595 -0.0158165 -0.00418894
0.00162157 -0.0121726 0.0115948
0.000399356 -0.0194257 0.00807133
-1.07549e-14 -1.726e-15 1.75368e-13
0.000456537 0.0151621 0.0119167
0.000219942 -0.0203355 -0.00500971
-0.000546379 -0.0224811 -2.93469e-06
-3.69933e-15 -1.32327e-14 -1.98725e-13
3.7817e-15 -1.81919e-14 8.99485e-14
8.7411e-16 5.06752e-15 -1.96348e-14
-3.32846e-15 2.52979e-14 -8.03035e-14
0.00046056 -0.019175 0.0106582
0.000788181 0.00361988 -0.0187601
-5.8083e-05 -0.00538989 -0.0185219
0.000136681 -0.00938018 -0.0194979
-7.09726e-15 -4.06742e-14 1.57633e-13
2.47622e-05 -0.000204399 0.0217751
0.000812702 -0.0174948 -0.00180946
0.000899632 0.00720486 0.0186654

VECTORS force float
-7.94093e-23 0.0 0.0
-2.00298e-09 -4.33915e-08 -2.12583e-08
9.17376e-20 2.29996e-19 -1.20702e-20
-6.17077e-22 1.32349e-23 0.0
-8.52007e-16 -1.14889e-15 -7.17634e-16
-8.66177e-10 1.04624e-08 7.15867e-09
-7.0489e-20 -1.16467e-20 -4.65868e-21
6.90861e-21 -1.94288e-20 -2.11758e-22
4.30246e-09 -1.70647e-08 2.72621e-08
9.56221e-21 -5.29396e-23 -2.11758e-22
-7.44572e-19 1.86718e-19 3.17637e-21
-2.41199e-09 1.39615e-08 1.92714e-09
-2.54595e-10 -4.05055e-09 1.14598e-08
-4.04559e-09 2.28181e-08 -5.57593e-09
-9.18579e-10 -2.09445e-09 -1.25023e-08
-2.4456e-08 -1.61662e-07 9.11453e-08
-1.98153e-19 3.764e-20 4.23516e-21
-7.94358e-20 3.72959e-20 -7.41154e-21
-2.11163e-20 1.32349e-21 0.0
5.82335e-22 5.29396e-23 2.11758e-22
-1.03282e-09 1.18858e-08 1.08891e-09
-1.89374e-08 8.79874e-08 6.63797e-09
-1.20168e-09 4.74506e-09 1.09049e-08
7.14866e-08 9.36628e-09 -1.81664e-07
4.84205e-09 7.16407e-08 -7.27538e-08
7.99109e-09 -8.32527e-08 6.94082e-08
-1.16639e-19 2.69992e-21 -6.98802e-21
1.025e-05 1.25545e-05 4.50329e-06
-6.13305e-09 -2.01396e-08 -3.86517e-09
-6.94866e-09 2.22154e-09 3.05278e-08
-9.2264e-09 3.70933e-09 -2.93721e-08
-3.17637e-22 0.0 0.0
-2.84184e-09 4.1389e-09 -1.26205e-08
1.48416e-10 -1.22332e-08 1.86065e-09
-6.86022e-09 -1.02697e-09 -1.37131e-08
7.52448e-09 2.02554e-08 -1.05667e-08
-9.01243e-10 3.03619e-09 1.19941e-08
-2.6349e-08 -5.04813e-08 6.90665e-08
-1.7565e-09 8.59371e-09 -3.35568e-09
1.0931e-05 -4.9831e-06 1.33698e-06
-7.41154e-22 -6.11795e-20 0.0
-9.50634e-10 1.03135e-08 6.92464e-09
-3.83004e-10 6.21739e-09 -1.05642e-08
-6.91869e-09 2.58955e-09 -2.18221e-08
-8.05508e-09 -8.30525e-09 8.45107e-08
5.55865e-22 -1.58819e-22 2.11758e-22
3.3749e-22 2.64698e-23 0.0
4.63221e-23 0.0 0.0
3.36299e-20 1.45584e-20 -2.32934e-21
-9.54037e-20 -2.74756e-20 3.59989e-21
-8.40289e-09 1.9079e-08 -5.1011e-09
0.0 5.29396e-23 0.0
0.0 0.0 0.0
-7.63416e-09 1.62924e-08 -1.12066e-08
-1.10628e-08 -1.59341e-08 -3.22305e-08
-1.36584e-20 2.67345e-21 -1.05879e-21
2.64698e-22 -3.17637e-22 2.11758e-22
2.05141e-10 -3.99327e-08 1.89255e-09
-3.42122e-21 -6.61744e-23 2.11758e-22
3.88777e-10 -1.10867e-08 -1.30751e-09
-1.19114e-22 0.0 0.0
-9.97303e-06 -6.39146e-06 -2.68905e-05
3.56913e-09 -1.06936e-08 9.03771e-09
1.46917e-06 -5.35216e-07 8.51348e-07
-1.33011e-21 -1.98523e-22 0.0
1.75758e-09 1.17611e-08 1.86196e-09
1.73642e-20 1.97994e-20 -5.29396e-21
-4.13301e-09 6.23933e-09 -1.59781e-08
0.0 1.58819e-22 0.0
3.75524e-06 1.5527e-05 1.25394e-06
5.67575e-07 -2.06605e-06 3.37908e-06
-3.65234e-09 -6.37877e-09 1.37475e-08
1.72054e-22 -9.92617e-24 0.0
-5.427e-09 2.51172e-08 7.18996e-09
-8.50878e-10 -8.20308e-09 8.93018e-09
-2.09093e-09 8.41915e-10 1.07488e-08
4.59912e-22 -2.11758e-22 0.0
6.08474e-20 2.3664e-20 8.47033e-22
-3.50725e-21 0.0 -2.11758e-22
-2.63434e-19 -5.70159e-20 -7.41154e-21
5.08809e-09 7.13718e-09 1.03963e-08
3.36237e-06 -8.86482e-07 8.57609e-06
-1.22459e-08 -1.12283e-08 1.10489e-08
-5.65283e-10 -1.19885e-08 8.104e-10
1.56436e-20 -2.64698e-21 -2.11758e-22
-4.15548e-10 1.14535e-08 3.61939e-09
7.04801e-09 9.65726e-08 3.8067e-08
-7.39643e-06 -9.35437e-07 2.1382e-06
