# vtk DataFile Version 3.0
LIGGGHTS particles timestep 52400000
ASCII
DATASET POLYDATA
POINTS 88 float
0.0387146 0.0187573 0.00575718
0.0498291 0.0152477 0.0134562
0.0656942 0.0197559 0.0057542
0.102543 0.017821 0.00581645
0.0387828 0.0214812 0.00622724
0.0532935 0.0233325 0.0115045
0.0815251 0.0188155 0.00575115
0.10448 0.0180949 0.00580371
0.0601549 0.0217563 0.0147868
0.0458896 0.0168235 0.00626774
0.0564645 0.0213699 0.00635393
0.0653321 0.0233353 0.011677
0.136461 0.0187737 0.0058834
0.0701919 0.0208295 0.0075643
0.0642637 0.0197348 0.005762
0.0830207 0.0197197 0.00608582
0.0793161 0.0192087 0.00581236
0.0170063 0.0201419 0.00601043
0.063196 0.0196694 0.00576595
0.0448733 0.0164686 0.00634571
0.0723546 0.0208436 0.0154151
0.0614488 0.0163125 0.0148166
0.0542748 0.0213933 0.0151178
0.0553442 0.0165989 0.0150333
0.0738831 0.0150613 0.0130201
0.0829173 0.0222111 0.0066532
0.0357086 0.0161117 0.00660683
0.061617 0.0194189 0.0057813
0.05582 0.015237 0.0134804
0.0666783 0.0196852 0.0156309
0.0762359 0.0210161 0.00765711
0.0439552 0.0161318 0.00656318
0.0782305 0.0203396 0.00602091
0.0754422 0.0176878 0.00743918
0.0732237 0.018766 0.005768
0.0634825 0.0187014 0.00581291
0.0607422 0.0192179 0.0157948
0.0564033 0.014826 0.011032
0.0606894 0.0189134 0.00588092
0.0586058 0.0222852 0.00860908
0.0286258 0.0183498 0.00592583
0.0862115 0.0201056 0.00585272
0.0465344 0.0220419 0.00837578
0.0619682 0.017221 0.00607724
0.0597337 0.0228363 0.0135891
0.0238948 0.0168123 0.00667048
0.0470176 0.01787 0.0060864
0.0388539 0.0197419 0.00587248
0.0766607 0.0190533 0.00580856
0.0779381 0.019417 0.00576935
0.0612894 0.0181031 0.0059753
0.0424878 0.0188132 0.00581899
0.0920805 0.0205253 0.0059177
0.0807561 0.0174141 0.0084614
0.055651 0.0177812 0.00595299
0.102423 0.0196788 0.00582979
0.0453636 0.0157749 0.00687326
0.377402 0.0173905 0.00847957
0.0507369 0.0203921 0.00594173
0.0573357 0.0171834 0.00759438
0.0440263 0.0170728 0.00623272
0.062829 0.0155424 0.00902654
0.0688736 0.0156011 0.00891253
0.0824665 0.0205479 0.00623259
0.059059 0.0180876 0.00593586
0.0629615 0.017835 0.00594934
0.0316007 0.0183082 0.00603438
0.0509791 0.0158092 0.00869108
0.0215463 0.0196109 0.00592744
0.0643309 0.0181561 0.00583847
0.0623985 0.0186635 0.00586235
0.0675406 0.0159252 0.0143938
0.0242602 0.0201274 0.00583803
0.0525779 0.0222029 0.00856832
0.0432227 0.0169509 0.0152218
0.0485497 0.0200335 0.0156829
0.0504712 0.0179279 0.00611076
0.0371638 0.0187263 0.00573865
0.0328558 0.0191954 0.00572294
0.044465 0.0204317 0.00594645
0.051946 0.0196207 0.00727102
0.0660681 0.018771 0.00577597
0.0833983 0.0210192 0.00634375
0.0621013 0.0209094 0.00864706
0.0350698 0.0188001 0.00572051
0.047661 0.022925 0.013286
0.0667523 0.0199335 0.00579279
0.0589366 0.0231053 0.0100487

VERTICES 88 176
1 0
1 1
1 2
1 3
1 4
1 5
1 6
1 7
1 8
1 9
1 10
1 11
1 12
1 13
1 14
1 15
1 16
1 17
1 18
1 19
1 20
1 21
1 22
1 23
1 24
1 25
1 26
1 27
1 28
1 29
1 30
1 31
1 32
1 33
1 34
1 35
1 36
1 37
1 38
1 39
1 40
1 41
1 42
1 43
1 44
1 45
1 46
1 47
1 48
1 49
1 50
1 51
1 52
1 53
1 54
1 55
1 56
1 57
1 58
1 59
1 60
1 61
1 62
1 63
1 64
1 65
1 66
1 67
1 68
1 69
1 70
1 71
1 72
1 73
1 74
1 75
1 76
1 77
1 78
1 79
1 80
1 81
1 82
1 83
1 84
1 85
1 86
1 87

POINT_DATA 88
SCALARS id int 1
LOOKUP_TABLE default
1
2
3
8
9
14
18
26
28
32
34
38
46
48
54
56
59
64
65
66
68
70
74
82
83
86
88
89
90
93
100
106
107
108
109
112
113
121
124
125
126
127
129
132
134
137
142
146
149
159
160
163
165
174
182
187
189
193
195
198
201
209
213
215
221
223
226
227
229
240
242
245
246
256
257
258
270
273
274
277
279
280
281
283
291
293
296
298

SCALARS type int 1
LOOKUP_TABLE default
1
1
1
1
1
1
1
1
1
1
1
1
1
1
1
1
1
1
1
1
1
1
1
1
1
1
1
1
1
1
1
1
1
1
1
1
1
1
1
1
1
1
1
1
1
1
1
1
1
1
1
1
1
1
1
1
1
1
1
1
1
1
1
1
1
1
1
1
1
1
1
1
1
1
1
1
1
1
1
1
1
1
1
1
1
1
1
1

SCALARS radius float 1
LOOKUP_TABLE default
0.0005
0.0005
0.0005
0.0005
0.0005
0.0005
0.0005
0.0005
0.0005
0.0005
0.0005
0.0005
0.0005
0.0005
0.0005
0.0005
0.0005
0.0005
0.0005
0.0005
0.0005
0.0005
0.0005
0.0005
0.0005
0.0005
0.0005
0.0005
0.0005
0.0005
0.0005
0.0005
0.0005
0.0005
0.0005
0.0005
0.0005
0.0005
0.0005
0.0005
0.0005
0.0005
0.0005
0.0005
0.0005
0.0005
0.0005
0.0005
0.0005
0.0005
0.0005
0.0005
0.0005
0.0005
0.0005
0.0005
0.0005
0.0005
0.0005
0.0005
0.0005
0.0005
0.0005
0.0005
0.0005
0.0005
0.0005
0.0005
0.0005
0.0005
0.0005
0.0005
0.0005
0.0005
0.0005
0.0005
0.0005
0.0005
0.0005
0.0005
0.0005
0.0005
0.0005
0.0005
0.0005
0.0005
0.0005
0.0005

SCALARS mass float 1
LOOKUP_TABLE default
1.46608e-07
1.46608e-07
1.46608e-07
1.46608e-07
1.46608e-07
1.46608e-07
1.46608e-07
1.46608e-07
1.46608e-07
1.46608e-07
1.46608e-07
1.46608e-07
1.46608e-07
1.46608e-07
1.46608e-07
1.46608e-07
1.46608e-07
1.46608e-07
1.46608e-07
1.46608e-07
1.46608e-07
1.46608e-07
1.46608e-07
1.46608e-07
1.46608e-07
1.46608e-07
1.46608e-07
1.46608e-07
1.46608e-07
1.46608e-07
1.46608e-07
1.46608e-07
1.46608e-07
1.46608e-07
1.46608e-07
1.46608e-07
1.46608e-07
1.46608e-07
1.46608e-07
1.46608e-07
1.46608e-07
1.46608e-07
1.46608e-07
1.46608e-07
1.46608e-07
1.46608e-07
1.46608e-07
1.46608e-07
1.46608e-07
1.46608e-07
1.46608e-07
1.46608e-07
1.46608e-07
1.46608e-07
1.46608e-07
1.46608e-07
1.46608e-07
1.46608e-07
1.46608e-07
1.46608e-07
1.46608e-07
1.46608e-07
1.46608e-07
1.46608e-07
1.46608e-07
1.46608e-07
1.46608e-07
1.46608e-07
1.46608e-07
1.46608e-07
1.46608e-07
1.46608e-07
1.46608e-07
1.46608e-07
1.46608e-07
1.46608e-07
1.46608e-07
1.46608e-07
1.46608e-07
1.46608e-07
1.46608e-07
1.46608e-07
1.46608e-07
1.46608e-07
1.46608e-07
1.46608e-07
1.46608e-07
1.46608e-07

VECTORS velocity float
-8.67052e-15 7.85696e-14 2.00898e-13
-0.000273791 0.00698531 0.0174871
-1.26577e-15 3.97347e-14 -1.45084e-13
-9.78426e-16 -4.35276e-15 -1.20042e-13
-2.76559e-19 1.05849e-18 -5.71626e-18
0.00213398 -0.0010587 -0.0146822
1.78642e-20 7.25055e-21 -2.82648e-20
1.49929e-14 2.23582e-14 -1.76075e-13
0.000546068 0.0161608 -0.0133446
-4.52825e-15 -2.52972e-14 -1.74151e-13
-1.57358e-15 -1.48756e-14 3.21549e-14
0.000712553 -0.000363634 -0.0183675
2.01624e-15 3.13951e-15 -2.90514e-14
0.00228308 -0.00655072 -0.00228161
-1.62426e-15 4.68991e-14 -1.71253e-13
-1.58194e-14 -4.4362e-14 1.90572e-13
1.54599e-14 5.18083e-14 2.19691e-13
1.30016e-14 5.26334e-15 -1.0734e-13
-2.00406e-15 -2.77174e-14 7.6852e-14
-2.61895e-17 -1.41693e-16 -9.78637e-16
0.000683533 0.0162251 -0.00777553
0.000616608 0.0156009 0.0126758
0.00010549 0.018638 -0.0111453
0.000296809 0.0171105 0.0121196
0.00436138 0.00374971 0.00520375
2.53132e-15 -1.23263e-14 5.62305e-14
-4.38526e-15 2.81784e-14 7.49266e-14
-4.35196e-15 -1.94159e-14 -1.3904e-13
0.000805546 0.00663728 0.0125732
0.000626309 0.0205389 -0.0032151
1.28068e-05 -0.0197498 -0.0120074
1.95574e-16 -2.75167e-15 -2.89974e-15
7.94502e-15 2.1967e-14 -4.11092e-14
-5.08071e-05 -0.022597 0.00520505
1.04454e-14 -5.92273e-14 -1.63372e-13
3.0194e-15 7.45863e-15 5.88939e-14
-0.000298879 0.0222472 0.000370704
0.000391124 -0.00119824 0.0195128
-5.19838e-15 -2.31811e-14 -1.66018e-13
0.00160208 -0.0099117 -0.0125378
-1.9446e-14 1.85679e-16 -2.28119e-13
2.60513e-15 -1.48763e-14 1.99835e-13
0.00233893 -0.00991552 -0.00970741
7.78332e-15 3.47368e-14 2.48762e-13
0.00105167 0.00775953 -0.01587
-1.55903e-14 -3.19688e-14 -1.04791e-13
-3.12599e-15 -1.74652e-14 -1.20236e-13
-2.82302e-15 1.34609e-14 -6.65673e-14
-9.17724e-15 5.49368e-14 2.11158e-13
2.15191e-15 -1.29813e-14 -4.98276e-14
-6.03842e-15 -2.69493e-14 -1.92995e-13
-4.51498e-15 1.30454e-14 7.16621e-14
-7.84798e-15 -7.28946e-14 1.85342e-13
0.00152274 -4.29489e-05 -0.000765263
-1.13032e-14 -1.59676e-14 -2.24477e-13
1.48259e-15 2.28063e-15 -1.78455e-14
2.75238e-17 -5.64866e-16 -6.90167e-16
-5.61466e-05 0.00767091 -0.0046891
-5.6904e-15 -2.04958e-14 -3.07615e-13
0.00327968 -0.000817338 -0.00187188
2.29432e-16 -6.63854e-16 -3.64347e-15
4.81978e-05 -0.00780995 0.00983226
0.00141901 -0.00814116 0.0121238
-1.14937e-14 -3.20831e-14 1.37827e-13
7.18665e-15 -1.49143e-14 -1.83491e-13
7.173e-15 1.77192e-14 1.39911e-13
1.31057e-14 -4.47343e-14 -1.10012e-13
0.00020717 -0.0143282 0.015995
-1.81493e-14 8.1336e-15 -1.66092e-13
-1.13422e-15 -2.80135e-15 -2.21226e-14
-4.35285e-15 -1.94162e-14 -1.3904e-13
0.00163751 0.00954547 0.00816983
-1.07549e-14 -1.73323e-15 1.75368e-13
0.000174133 -0.0120846 -0.0159994
-0.000173381 0.0181309 0.0100866
0.00327256 0.0108232 -0.00416716
-3.69943e-15 -1.32326e-14 -1.98725e-13
3.81435e-15 -1.81861e-14 8.99484e-14
8.75993e-16 5.06752e-15 -1.96346e-14
-2.78929e-15 2.5353e-14 -8.03061e-14
2.56503e-05 -0.0218859 -0.00401324
-5.14511e-16 2.40979e-15 4.1093e-14
2.36848e-14 -4.02509e-14 1.90901e-13
0.0542857 -0.104091 -0.0291075
-7.05329e-15 -4.06796e-14 1.57633e-13
0.000261421 0.00795091 -0.01874
3.43709e-16 -9.53821e-15 3.4831e-14
0.000263498 -0.00720773 -0.0190573

VECTORS force float
1.98523e-22 0.0 2.11758e-22
-2.36421e-10 3.1527e-08 -3.51867e-09
-2.74955e-21 5.29396e-22 2.11758e-22
-3.04402e-22 1.65436e-22 0.0
1.65436e-23 -1.1746e-22 0.0
-1.31327e-08 -6.90082e-09 -3.74817e-08
0.0 0.0 0.0
-1.69407e-21 -3.34313e-20 -4.02341e-21
-6.66399e-09 3.16926e-09 -1.42535e-08
3.58666e-21 1.11173e-21 0.0
1.66607e-19 -1.21655e-19 -5.01867e-20
-6.00293e-09 -7.36776e-09 -1.91714e-08
9.30413e-21 7.94093e-22 8.47033e-22
5.47703e-06 3.86575e-06 9.33222e-06
-1.41282e-21 -5.29396e-23 0.0
-1.9667e-20 5.77041e-21 -6.35275e-22
-6.32614e-19 5.94511e-20 2.83756e-20
1.51169e-19 4.23516e-21 1.927e-20
-2.03288e-20 -1.69407e-21 -1.05879e-21
3.17637e-22 5.29396e-23 -2.11758e-22
6.48579e-08 -3.00394e-07 9.18894e-08
-7.261e-09 1.60021e-08 3.06624e-09
-8.8905e-10 -1.6474e-09 -1.20877e-08
-9.88632e-10 1.07301e-08 -5.25722e-09
-1.8318e-05 -8.88024e-07 9.55409e-06
4.34104e-21 -4.76456e-21 -1.27055e-21
8.53518e-20 2.35581e-20 -4.44692e-21
-1.3976e-20 -2.38228e-22 2.11758e-22
1.17924e-08 -4.07289e-08 -1.95655e-08
-4.35485e-09 8.74917e-09 -1.26907e-08
-5.40151e-10 -7.51694e-09 8.99415e-09
-4.23516e-22 0.0 1.05879e-22
1.32349e-22 -2.64698e-22 2.11758e-22
-2.44307e-09 1.60486e-10 1.11729e-08
-1.85686e-20 4.91809e-20 -1.73642e-20
-1.04556e-21 1.85288e-22 0.0
-2.8892e-09 3.63603e-08 -9.39539e-09
-3.92722e-09 7.91603e-09 1.50134e-08
-3.20946e-21 -1.24408e-21 2.11758e-22
1.74526e-08 1.01413e-08 3.94552e-08
0.0 1.47373e-20 2.11758e-22
5.09543e-22 5.691e-22 0.0
-1.76076e-08 -7.0722e-08 -8.47362e-09
-7.5505e-21 -5.82335e-22 2.11758e-22
-6.72185e-09 9.96453e-10 -2.44061e-08
5.55865e-22 1.05879e-22 -2.11758e-22
-9.39677e-22 -2.64698e-23 0.0
-1.53988e-20 -1.05879e-21 4.23516e-22
-2.88322e-20 -1.50348e-20 4.44692e-21
-7.94093e-23 0.0 2.11758e-22
-4.69839e-22 2.64698e-23 2.11758e-22
1.32349e-23 0.0 0.0
-6.61744e-23 0.0 0.0
8.90686e-09 6.6231e-08 -5.54931e-08
-1.76156e-20 7.68947e-20 -5.50571e-21
2.72639e-20 1.50613e-20 4.02341e-21
-1.58819e-22 0.0 2.11758e-22
-2.54201e-10 4.93938e-08 -5.96336e-08
7.68616e-21 8.25857e-21 -6.35275e-22
6.11989e-08 2.45227e-07 -1.06803e-07
-1.58819e-22 0.0 0.0
-1.73252e-08 -2.89621e-08 6.84912e-08
-1.22147e-05 -1.43303e-05 2.75193e-05
6.26275e-20 4.12929e-21 5.71747e-21
-3.70577e-22 7.67624e-22 0.0
-7.94093e-23 -7.94093e-23 0.0
3.53107e-20 -1.05879e-22 5.29396e-21
-2.0417e-09 4.40153e-09 1.1382e-08
2.64698e-23 -3.30872e-22 0.0
1.1382e-21 1.58819e-22 -2.11758e-22
0.0 0.0 0.0
-2.33867e-09 1.10108e-07 1.18403e-07
1.72054e-22 -3.78849e-22 0.0
-1.23399e-09 -4.23819e-08 -1.15402e-08
-2.61207e-10 1.1393e-08 -6.51142e-09
8.27348e-07 -4.38114e-06 -1.38272e-06
2.70984e-21 -1.32349e-22 0.0
2.73168e-20 -9.3703e-21 -2.75286e-21
2.64698e-22 0.0 0.0
-4.57001e-19 -2.6311e-20 1.01644e-20
-1.36045e-09 -6.9236e-09 1.07145e-08
6.63399e-21 -1.11173e-21 2.11758e-22
2.38228e-21 4.44692e-21 2.11758e-21
0.0 0.0 -1.43822e-06
2.46698e-20 -1.93229e-20 -4.02341e-21
-9.56717e-10 -7.42913e-09 -1.07568e-08
-4.07982e-20 -9.52912e-22 0.0
-6.7012e-10 -1.20593e-08 -2.9356e-09
