# vtk DataFile Version 3.0
LIGGGHTS particles timestep 70200000
ASCII
DATASET POLYDATA
POINTS 88 float
0.0387146 0.0187573 0.00575718
0.0515454 0.0203376 0.00592249
0.0657625 0.0198039 0.00576669
0.102543 0.017821 0.00581645
0.0387828 0.0214812 0.00622724
0.191105 0.0203026 0.00593314
0.0819069 0.0186696 0.00575898
0.10448 0.0180949 0.00580371
0.0780953 0.0154684 0.0138463
0.0458896 0.0168235 0.00626774
0.0564645 0.0213699 0.00635393
0.0836456 0.0168981 0.0151639
0.136461 0.0187737 0.0058834
0.0819829 0.0176499 0.00599436
0.0652975 0.0207687 0.00603532
0.0830166 0.0197662 0.00609629
0.0793161 0.0192087 0.00581236
0.0170063 0.0201419 0.00601043
0.0643606 0.0210989 0.00615793
0.0448733 0.0164686 0.00634571
0.080527 0.019112 0.00575077
0.0791511 0.0154178 0.00920728
0.0615774 0.0172559 0.00608456
0.063441 0.0163701 0.00647495
0.085142 0.0184899 0.00574639
0.0829173 0.0222111 0.0066532
0.0357086 0.0161117 0.00660683
0.0618809 0.0199413 0.00582959
0.073638 0.016932 0.00772897
0.0850427 0.0151396 0.00976028
0.0829103 0.0187761 0.00585698
0.0439552 0.0161318 0.00656318
0.0782305 0.0203396 0.00602091
0.0819591 0.0196502 0.00598149
0.0732237 0.018766 0.005768
0.0644815 0.0190744 0.00573853
0.0683453 0.0182317 0.00578271
0.0609817 0.0187588 0.00589337
0.0609012 0.0197493 0.00575757
0.0634974 0.0172463 0.00599641
0.0286258 0.0183498 0.00592583
0.0862115 0.0201056 0.00585272
0.0601285 0.017977 0.00598674
0.0626638 0.0179373 0.00595165
0.0644862 0.0176438 0.00589539
0.0238948 0.0168123 0.00667048
0.042543 0.0198089 0.00582143
0.0388539 0.0197419 0.00587248
0.0766607 0.0190533 0.00580856
0.0779381 0.019417 0.00576935
0.0620021 0.0189487 0.00583492
0.0424897 0.0188104 0.00581963
0.0920805 0.0205253 0.0059177
0.0803515 0.0174967 0.00840633
0.0557406 0.0175302 0.00596599
0.102423 0.0196788 0.00582979
0.0453636 0.0157749 0.00687326
0.377393 0.0174151 0.00845973
0.0505919 0.0207133 0.00592302
0.0643736 0.0166453 0.00623285
0.0440263 0.0170728 0.00623272
0.0801575 0.0177673 0.00609392
0.0810602 0.0181677 0.00593647
0.0824647 0.0205875 0.00624167
0.0595038 0.0223955 0.00675756
0.063626 0.0183177 0.00585415
0.0316007 0.0183082 0.00603438
0.0584979 0.0201946 0.00586451
0.0215463 0.0196109 0.00592744
0.0690612 0.017564 0.00598647
0.0636055 0.0197465 0.00578044
0.0865998 0.0209707 0.00779334
0.0242602 0.0201274 0.00583803
0.069536 0.023367 0.0112737
0.0567438 0.01754 0.00591345
0.061759 0.0163729 0.00651709
0.0504712 0.0179279 0.00611076
0.0371638 0.0187263 0.00573865
0.0328558 0.0191954 0.00572294
0.044465 0.0204317 0.00594645
0.0625324 0.0169121 0.00611939
0.066033 0.0188309 0.00577203
0.0833983 0.0210192 0.00634375
0.0634827 0.0175777 0.00838255
0.0350698 0.0188001 0.00572051
0.0623373 0.0157218 0.00700852
0.0667607 0.0199247 0.00579031
0.0771792 0.0186858 0.015805

VERTICES 88 176
1 0
1 1
1 2
1 3
1 4
1 5
1 6
1 7
1 8
1 9
1 10
1 11
1 12
1 13
1 14
1 15
1 16
1 17
1 18
1 19
1 20
1 21
1 22
1 23
1 24
1 25
1 26
1 27
1 28
1 29
1 30
1 31
1 32
1 33
1 34
1 35
1 36
1 37
1 38
1 39
1 40
1 41
1 42
1 43
1 44
1 45
1 46
1 47
1 48
1 49
1 50
1 51
1 52
1 53
1 54
1 55
1 56
1 57
1 58
1 59
1 60
1 61
1 62
1 63
1 64
1 65
1 66
1 67
1 68
1 69
1 70
1 71
1 72
1 73
1 74
1 75
1 76
1 77
1 78
1 79
1 80
1 81
1 82
1 83
1 84
1 85
1 86
1 87

POINT_DATA 88
SCALARS id int 1
LOOKUP_TABLE default
1
2
3
8
9
14
18
26
28
32
34
38
46
48
54
56
59
64
65
66
68
70
74
82
83
86
88
89
90
93
100
106
107
108
109
112
113
121
124
125
126
127
129
132
134
137
142
146
149
159
160
163
165
174
182
187
189
193
195
198
201
209
213
215
221
223
226
227
229
240
242
245
246
256
257
258
270
273
274
277
279
280
281
283
291
293
296
298

SCALARS type int 1
LOOKUP_TABLE default
1
1
1
1
1
1
1
1
1
1
1
1
1
1
1
1
1
1
1
1
1
1
1
1
1
1
1
1
1
1
1
1
1
1
1
1
1
1
1
1
1
1
1
1
1
1
1
1
1
1
1
1
1
1
1
1
1
1
1
1
1
1
1
1
1
1
1
1
1
1
1
1
1
1
1
1
1
1
1
1
1
1
1
1
1
1
1
1

SCALARS radius float 1
LOOKUP_TABLE default
0.0005
0.0005
0.0005
0.0005
0.0005
0.0005
0.0005
0.0005
0.0005
0.0005
0.0005
0.0005
0.0005
0.0005
0.0005
0.0005
0.0005
0.0005
0.0005
0.0005
0.0005
0.0005
0.0005
0.0005
0.0005
0.0005
0.0005
0.0005
0.0005
0.0005
0.0005
0.0005
0.0005
0.0005
0.0005
0.0005
0.0005
0.0005
0.0005
0.0005
0.0005
0.0005
0.0005
0.0005
0.0005
0.0005
0.0005
0.0005
0.0005
0.0005
0.0005
0.0005
0.0005
0.0005
0.0005
0.0005
0.0005
0.0005
0.0005
0.0005
0.0005
0.0005
0.0005
0.0005
0.0005
0.0005
0.0005
0.0005
0.0005
0.0005
0.0005
0.0005
0.0005
0.0005
0.0005
0.0005
0.0005
0.0005
0.0005
0.0005
0.0005
0.0005
0.0005
0.0005
0.0005
0.0005
0.0005
0.0005

SCALARS mass float 1
LOOKUP_TABLE default
1.46608e-07
1.46608e-07
1.46608e-07
1.46608e-07
1.46608e-07
1.46608e-07
1.46608e-07
1.46608e-07
1.46608e-07
1.46608e-07
1.46608e-07
1.46608e-07
1.46608e-07
1.46608e-07
1.46608e-07
1.46608e-07
1.46608e-07
1.46608e-07
1.46608e-07
1.46608e-07
1.46608e-07
1.46608e-07
1.46608e-07
1.46608e-07
1.46608e-07
1.46608e-07
1.46608e-07
1.46608e-07
1.46608e-07
1.46608e-07
1.46608e-07
1.46608e-07
1.46608e-07
1.46608e-07
1.46608e-07
1.46608e-07
1.46608e-07
1.46608e-07
1.46608e-07
1.46608e-07
1.46608e-07
1.46608e-07
1.46608e-07
1.46608e-07
1.46608e-07
1.46608e-07
1.46608e-07
1.46608e-07
1.46608e-07
1.46608e-07
1.46608e-07
1.46608e-07
1.46608e-07
1.46608e-07
1.46608e-07
1.46608e-07
1.46608e-07
1.46608e-07
1.46608e-07
1.46608e-07
1.46608e-07
1.46608e-07
1.46608e-07
1.46608e-07
1.46608e-07
1.46608e-07
1.46608e-07
1.46608e-07
1.46608e-07
1.46608e-07
1.46608e-07
1.46608e-07
1.46608e-07
1.46608e-07
1.46608e-07
1.46608e-07
1.46608e-07
1.46608e-07
1.46608e-07
1.46608e-07
1.46608e-07
1.46608e-07
1.46608e-07
1.46608e-07
1.46608e-07
1.46608e-07
1.46608e-07
1.46608e-07

VECTORS velocity float
-8.68246e-15 7.85697e-14 2.00897e-13
1.06388e-14 2.65531e-14 3.50781e-13
-1.37407e-15 3.97318e-14 -1.45083e-13
-9.78187e-16 -4.3527e-15 -1.20042e-13
-2.7464e-19 1.05644e-18 -5.71409e-18
-1.12289e-14 -4.38003e-14 9.7336e-14
1.34791e-14 4.56299e-14 1.93312e-13
1.49827e-14 2.23665e-14 -1.76075e-13
0.00154181 0.0110802 0.0156289
-4.52837e-15 -2.52972e-14 -1.74151e-13
-8.5367e-16 -1.50172e-14 3.21098e-14
0.00239623 0.01865 0.00981699
2.0295e-15 3.13797e-15 -2.90507e-14
1.00305e-14 3.39565e-14 1.43854e-13
-1.12884e-15 3.25657e-14 -1.18914e-13
-1.5825e-14 -4.43634e-14 1.90571e-13
1.53086e-14 5.18148e-14 2.197e-13
1.30506e-14 5.24514e-15 -1.07335e-13
9.8507e-15 -6.2895e-14 2.05619e-13
-2.63899e-17 -1.41509e-16 -9.789e-16
1.34793e-14 4.56305e-14 1.93312e-13
0.000163627 -0.0113405 0.0178912
-9.15509e-16 -4.05259e-15 -2.90035e-14
5.37447e-16 7.70684e-15 9.86839e-15
3.31494e-15 -1.89273e-14 2.54251e-13
2.53134e-15 -1.23271e-14 5.62303e-14
-4.52518e-15 2.81873e-14 7.49148e-14
-5.95053e-16 -8.24323e-15 2.28326e-14
0.00110155 -0.0155608 0.00935647
0.000420362 -0.00714611 0.0168325
-1.14496e-14 -3.20863e-14 1.3783e-13
1.95487e-16 -2.75144e-15 -2.8995e-15
4.83476e-15 1.33663e-14 -2.50154e-14
5.84182e-16 2.63821e-15 -1.0481e-14
1.03889e-14 -5.91993e-14 -1.63385e-13
7.9804e-16 -3.78212e-15 -6.44673e-14
1.62804e-17 2.85032e-17 1.01297e-15
-4.3508e-15 -1.94155e-14 -1.3904e-13
-5.19423e-15 -2.31833e-14 -1.66017e-13
6.73085e-16 1.66339e-15 1.3135e-14
-1.94458e-14 1.79296e-16 -2.28119e-13
2.60511e-15 -1.48762e-14 1.99836e-13
-1.08889e-14 2.26353e-14 2.78393e-13
-7.36208e-15 -1.81933e-14 -1.43647e-13
-5.97996e-15 -1.47718e-14 -1.16641e-13
-1.55916e-14 -3.1969e-14 -1.0479e-13
-2.17939e-16 1.8628e-15 -5.89863e-15
-2.82124e-15 1.34634e-14 -6.65668e-14
-9.12909e-15 5.50773e-14 2.11124e-13
1.30984e-15 -7.89892e-15 -3.03204e-14
7.11249e-16 3.19252e-15 2.28017e-14
3.70877e-16 -1.07622e-15 -5.89584e-15
-7.84785e-15 -7.28946e-14 1.85342e-13
-5.06204e-07 0.00463928 4.7683e-05
-5.65034e-15 -7.6201e-15 -1.08971e-13
1.53672e-15 2.26224e-15 -1.78432e-14
2.74792e-17 -5.64812e-16 -6.89705e-16
3.05408e-05 -1.74693e-05 -0.00113475
6.74465e-15 1.89384e-14 2.6288e-13
-9.28327e-16 8.92626e-14 2.24983e-13
2.29556e-16 -6.63903e-16 -3.64325e-15
-1.54991e-11 3.28398e-11 -6.67317e-12
1.56694e-11 -3.32965e-11 6.76401e-12
-1.14637e-14 -3.20766e-14 1.37831e-13
1.05072e-16 -1.68389e-15 4.05713e-15
-7.3639e-15 -1.81922e-14 -1.43647e-13
1.31802e-14 -4.47395e-14 -1.10001e-13
3.22463e-16 4.88255e-15 -1.04413e-14
-1.81457e-14 8.14351e-15 -1.66091e-13
-3.42424e-17 3.5207e-16 9.30461e-16
6.28592e-15 -4.01369e-14 1.31216e-13
0.00127547 -0.0165922 -0.00754325
-1.07574e-14 -1.72601e-15 1.75368e-13
-9.17225e-05 0.00133578 -0.0235484
-9.82136e-15 -1.33743e-14 -1.90505e-13
1.41563e-15 -1.61665e-14 -2.30682e-14
-3.69898e-15 -1.32326e-14 -1.98725e-13
3.86751e-15 -1.81789e-14 8.99476e-14
8.9006e-16 5.06752e-15 -1.9634e-14
-2.83735e-15 2.53255e-14 -8.0313e-14
-3.84164e-16 3.70489e-14 9.33837e-14
2.20129e-15 -1.03715e-14 -1.76838e-13
2.36852e-14 -4.0251e-14 1.90901e-13
-3.54694e-05 -0.00562973 0.00299793
-7.0844e-15 -4.06779e-14 1.57632e-13
1.37371e-15 -1.61872e-14 -2.30619e-14
-4.02536e-16 1.19608e-14 -4.36767e-14
-8.44376e-05 0.0220626 0.00346526

VECTORS force float
0.0 0.0 0.0
-3.12145e-20 -2.74359e-20 2.75286e-21
2.80911e-20 0.0 -2.11758e-22
1.12166e-21 -6.74979e-22 0.0
-8.27181e-24 -8.76811e-23 -2.11758e-22
-1.05879e-21 0.0 -2.11758e-22
-1.32349e-23 0.0 0.0
-1.4479e-20 1.81318e-20 1.69407e-21
-1.75906e-08 2.11335e-08 2.51035e-08
4.51971e-21 1.32349e-22 0.0
-1.48297e-19 -5.92923e-21 -7.83505e-21
-3.29477e-08 -1.098e-09 3.90302e-08
2.57948e-20 -9.42324e-21 8.47033e-22
1.32349e-23 0.0 0.0
9.90962e-22 -1.05879e-22 0.0
0.0 0.0 0.0
1.6226e-20 -3.26637e-20 6.98802e-21
2.83227e-20 -2.9527e-20 3.17637e-21
-2.24993e-22 0.0 2.11758e-22
-7.41154e-22 -1.05879e-22 0.0
1.98523e-22 2.64698e-22 2.11758e-22
1.0529e-11 5.36043e-09 1.04011e-08
-1.05879e-22 -2.11758e-22 0.0
-5.9557e-23 0.0 0.0
-1.94553e-21 2.51463e-22 0.0
-4.19546e-21 5.29396e-23 2.11758e-22
3.50592e-20 -1.11173e-21 2.75286e-21
-1.32349e-23 0.0 0.0
-4.19554e-09 -2.66249e-09 2.16527e-08
-3.00331e-08 1.56814e-07 -2.64458e-07
-5.47924e-21 2.43522e-21 2.11758e-22
3.70577e-22 0.0 0.0
2.64698e-23 -1.58819e-22 2.11758e-22
1.23309e-18 -1.55378e-19 5.50571e-20
5.09411e-20 1.08526e-20 2.11758e-22
0.0 0.0 0.0
-5.29396e-23 0.0 0.0
-5.88953e-22 -1.58819e-22 -2.11758e-22
0.0 0.0 0.0
-1.32349e-23 0.0 0.0
-5.29396e-23 -1.65651e-20 0.0
-2.76609e-21 2.64698e-22 2.11758e-22
8.54444e-20 5.64865e-20 -1.48231e-21
-1.03232e-21 5.55865e-22 0.0
-3.97047e-22 0.0 0.0
-4.02341e-21 1.11173e-21 2.11758e-22
6.61744e-24 0.0 0.0
1.2732e-20 2.11758e-22 -4.23516e-22
-6.51355e-20 2.70521e-19 -7.49624e-20
-1.05879e-22 1.05879e-22 2.11758e-22
-1.32349e-23 2.64698e-23 0.0
3.97047e-23 0.0 0.0
0.0 0.0 0.0
9.48779e-10 -2.1151e-08 2.54678e-07
-9.05796e-20 7.73579e-20 -8.47033e-22
1.42937e-20 7.04096e-21 1.90582e-21
2.11758e-22 1.58819e-22 2.11758e-22
1.14156e-10 7.98118e-08 -6.5795e-08
2.32934e-21 -5.4263e-22 0.0
4.96308e-24 0.0 2.11758e-22
3.17637e-22 -1.05879e-22 0.0
-2.22394e-14 4.78306e-14 -9.60346e-15
2.28719e-14 -4.96195e-14 1.00531e-14
5.67777e-21 -1.03232e-20 -1.90582e-21
6.31701e-20 3.91753e-21 -4.23516e-22
2.18376e-21 -5.82335e-22 -2.11758e-22
-7.54389e-21 7.72918e-21 -3.81165e-21
4.63221e-22 -3.17637e-21 -1.48231e-21
0.0 0.0 0.0
2.38228e-22 5.29396e-23 0.0
5.4263e-22 -4.23516e-22 0.0
3.78777e-09 9.05885e-09 1.23542e-08
0.0 0.0 0.0
-9.52669e-08 -4.83344e-08 -7.9485e-07
-2.868e-20 -1.07997e-20 1.90582e-21
5.29396e-23 1.32349e-22 1.58819e-22
-7.23287e-21 5.29396e-23 2.11758e-22
-3.55886e-20 -1.3182e-20 -1.69407e-21
-2.51463e-22 0.0 0.0
-1.86738e-19 -2.50934e-20 -1.27055e-21
-1.48313e-21 -1.05879e-22 -2.11758e-22
2.59735e-21 9.13207e-22 0.0
-4.63221e-21 -4.8175e-21 -1.05879e-21
1.72325e-11 -5.06768e-08 1.8053e-08
1.6676e-20 -4.2881e-21 -4.23516e-22
-5.29396e-23 -1.05879e-22 0.0
-1.19379e-20 -1.05879e-22 0.0
-1.00487e-07 8.02009e-07 1.3565e-08
