# vtk DataFile Version 3.0
LIGGGHTS particles timestep 90000000
ASCII
DATASET POLYDATA
POINTS 88 float
0.0387146 0.0187573 0.00575718
0.0515454 0.0203376 0.00592249
0.0657625 0.0198039 0.00576669
0.102543 0.017821 0.00581645
0.0387828 0.0214812 0.00622724
0.191105 0.0203026 0.00593314
0.0819644 0.018662 0.00575674
0.10448 0.0180949 0.00580371
0.0800401 0.0168845 0.00628905
0.0458896 0.0168235 0.00626774
0.0564645 0.0213699 0.00635393
0.101684 0.0232512 0.0106605
0.136461 0.0187737 0.0058834
0.0822817 0.0172512 0.00607537
0.0652975 0.0207687 0.00603532
0.0870153 0.0206158 0.00591409
0.0792518 0.0191834 0.00582281
0.0170063 0.0201419 0.00601043
0.0643606 0.0210989 0.00615793
0.0448733 0.0164686 0.00634571
0.0803045 0.0192159 0.005743
0.0811915 0.017199 0.00615598
0.0615774 0.0172559 0.00608456
0.063441 0.0163701 0.00647495
0.0855075 0.019144 0.00579031
0.0829173 0.0222111 0.0066532
0.0357086 0.0161117 0.00660683
0.0618809 0.0199413 0.00582959
0.0845463 0.0178241 0.00589851
0.11021 0.0201465 0.00580174
0.0830136 0.0187071 0.00584947
0.0439552 0.0161318 0.00656318
0.0782305 0.0203396 0.00602091
0.0822914 0.0196163 0.00600118
0.0732237 0.018766 0.005768
0.0644815 0.0190744 0.00573853
0.0683453 0.0182317 0.00578271
0.0609817 0.0187588 0.00589337
0.0609012 0.0197493 0.00575757
0.0634974 0.0172463 0.00599641
0.0286258 0.0183498 0.00592583
0.0888729 0.0199317 0.00596406
0.0601285 0.017977 0.00598674
0.0626638 0.0179373 0.00595165
0.0644862 0.0176438 0.00589539
0.0238948 0.0168123 0.00667048
0.042543 0.0198089 0.00582143
0.0388539 0.0197419 0.00587248
0.0766607 0.0190533 0.00580856
0.0779381 0.019417 0.00576935
0.0620021 0.0189487 0.00583492
0.0424897 0.0188104 0.00581963
0.0920805 0.0205253 0.0059177
0.0861878 0.0174894 0.00840915
0.0557406 0.0175302 0.00596599
0.102423 0.0196788 0.00582979
0.0453636 0.0157749 0.00687326
0.377398 0.0175051 0.00840231
0.0505919 0.0207133 0.00592302
0.0643736 0.0166453 0.00623285
0.0440263 0.0170728 0.00623272
0.0799751 0.0180833 0.00603206
0.0810479 0.0182624 0.00591498
0.0824664 0.0205903 0.00624245
0.0595038 0.0223955 0.00675756
0.063626 0.0183177 0.00585415
0.0316007 0.0183082 0.00603438
0.0584979 0.0201946 0.00586451
0.0215463 0.0196109 0.00592744
0.0690612 0.017564 0.00598647
0.0636055 0.0197465 0.00578044
0.0975908 0.0180497 0.00610625
0.0242602 0.0201274 0.00583803
0.0872898 0.0150587 0.00986797
0.0567438 0.01754 0.00591345
0.061759 0.0163729 0.00651709
0.0504712 0.0179279 0.00611076
0.0371638 0.0187263 0.00573865
0.0328558 0.0191954 0.00572294
0.044465 0.0204317 0.00594645
0.0625324 0.0169121 0.00611939
0.066033 0.0188309 0.00577203
0.0833983 0.0210192 0.00634375
0.0634551 0.017485 0.00842508
0.0350698 0.0188001 0.00572051
0.0623373 0.0157218 0.00700852
0.0667607 0.0199247 0.00579031
0.0801544 0.0202323 0.00596714

VERTICES 88 176
1 0
1 1
1 2
1 3
1 4
1 5
1 6
1 7
1 8
1 9
1 10
1 11
1 12
1 13
1 14
1 15
1 16
1 17
1 18
1 19
1 20
1 21
1 22
1 23
1 24
1 25
1 26
1 27
1 28
1 29
1 30
1 31
1 32
1 33
1 34
1 35
1 36
1 37
1 38
1 39
1 40
1 41
1 42
1 43
1 44
1 45
1 46
1 47
1 48
1 49
1 50
1 51
1 52
1 53
1 54
1 55
1 56
1 57
1 58
1 59
1 60
1 61
1 62
1 63
1 64
1 65
1 66
1 67
1 68
1 69
1 70
1 71
1 72
1 73
1 74
1 75
1 76
1 77
1 78
1 79
1 80
1 81
1 82
1 83
1 84
1 85
1 86
1 87

POINT_DATA 88
SCALARS id int 1
LOOKUP_TABLE default
1
2
3
8
9
14
18
26
28
32
34
38
46
48
54
56
59
64
65
66
68
70
74
82
83
86
88
89
90
93
100
106
107
108
109
112
113
121
124
125
126
127
129
132
134
137
142
146
149
159
160
163
165
174
182
187
189
193
195
198
201
209
213
215
221
223
226
227
229
240
242
245
246
256
257
258
270
273
274
277
279
280
281
283
291
293
296
298

SCALARS type int 1
LOOKUP_TABLE default
1
1
1
1
1
1
1
1
1
1
1
1
1
1
1
1
1
1
1
1
1
1
1
1
1
1
1
1
1
1
1
1
1
1
1
1
1
1
1
1
1
1
1
1
1
1
1
1
1
1
1
1
1
1
1
1
1
1
1
1
1
1
1
1
1
1
1
1
1
1
1
1
1
1
1
1
1
1
1
1
1
1
1
1
1
1
1
1

SCALARS radius float 1
LOOKUP_TABLE default
0.0005
0.0005
0.0005
0.0005
0.0005
0.0005
0.0005
0.0005
0.0005
0.0005
0.0005
0.0005
0.0005
0.0005
0.0005
0.0005
0.0005
0.0005
0.0005
0.0005
0.0005
0.0005
0.0005
0.0005
0.0005
0.0005
0.0005
0.0005
0.0005
0.0005
0.0005
0.0005
0.0005
0.0005
0.0005
0.0005
0.0005
0.0005
0.0005
0.0005
0.0005
0.0005
0.0005
0.0005
0.0005
0.0005
0.0005
0.0005
0.0005
0.0005
0.0005
0.0005
0.0005
0.0005
0.0005
0.0005
0.0005
0.0005
0.0005
0.0005
0.0005
0.0005
0.0005
0.0005
0.0005
0.0005
0.0005
0.0005
0.0005
0.0005
0.0005
0.0005
0.0005
0.0005
0.0005
0.0005
0.0005
0.0005
0.0005
0.0005
0.0005
0.0005
0.0005
0.0005
0.0005
0.0005
0.0005
0.0005

SCALARS mass float 1
LOOKUP_TABLE default
1.46608e-07
1.46608e-07
1.46608e-07
1.46608e-07
1.46608e-07
1.46608e-07
1.46608e-07
1.46608e-07
1.46608e-07
1.46608e-07
1.46608e-07
1.46608e-07
1.46608e-07
1.46608e-07
1.46608e-07
1.46608e-07
1.46608e-07
1.46608e-07
1.46608e-07
1.46608e-07
1.46608e-07
1.46608e-07
1.46608e-07
1.46608e-07
1.46608e-07
1.46608e-07
1.46608e-07
1.46608e-07
1.46608e-07
1.46608e-07
1.46608e-07
1.46608e-07
1.46608e-07
1.46608e-07
1.46608e-07
1.46608e-07
1.46608e-07
1.46608e-07
1.46608e-07
1.46608e-07
1.46608e-07
1.46608e-07
1.46608e-07
1.46608e-07
1.46608e-07
1.46608e-07
1.46608e-07
1.46608e-07
1.46608e-07
1.46608e-07
1.46608e-07
1.46608e-07
1.46608e-07
1.46608e-07
1.46608e-07
1.46608e-07
1.46608e-07
1.46608e-07
1.46608e-07
1.46608e-07
1.46608e-07
1.46608e-07
1.46608e-07
1.46608e-07
1.46608e-07
1.46608e-07
1.46608e-07
1.46608e-07
1.46608e-07
1.46608e-07
1.46608e-07
1.46608e-07
1.46608e-07
1.46608e-07
1.46608e-07
1.46608e-07
1.46608e-07
1.46608e-07
1.46608e-07
1.46608e-07
1.46608e-07
1.46608e-07
1.46608e-07
1.46608e-07
1.46608e-07
1.46608e-07
1.46608e-07
1.46608e-07

VECTORS velocity float
-8.68246e-15 7.85666e-14 2.00898e-13
1.06397e-14 2.65521e-14 3.50781e-13
-1.37797e-15 3.97318e-14 -1.45083e-13
-9.78423e-16 -4.35256e-15 -1.20042e-13
-2.72589e-19 1.05871e-18 -5.7047e-18
-1.12286e-14 -4.38006e-14 9.73359e-14
1.3477e-14 4.56302e-14 1.93312e-13
1.49848e-14 2.23712e-14 -1.76075e-13
-1.13559e-15 -7.29096e-15 -3.41145e-14
-4.52665e-15 -2.52971e-14 -1.74151e-13
-8.88739e-16 -1.50195e-14 3.21077e-14
0.000953344 -0.00225999 -0.0102267
2.01882e-15 3.1452e-15 -2.90506e-14
6.64584e-16 3.61518e-14 1.18632e-13
-1.12897e-15 3.25659e-14 -1.18914e-13
3.22108e-15 5.90073e-15 -3.89484e-14
6.34912e-15 2.15048e-14 9.10977e-14
1.30227e-14 5.25508e-15 -1.07337e-13
9.85176e-15 -6.28944e-14 2.05619e-13
-2.64143e-17 -1.4147e-16 -9.78816e-16
-9.52815e-15 -2.67153e-14 1.14756e-13
4.51269e-15 1.52768e-14 6.47201e-14
-7.32249e-16 -3.23862e-15 -2.3175e-14
5.21432e-16 7.47755e-15 9.57477e-15
-2.80434e-15 1.60116e-14 -2.15085e-13
2.46998e-15 -1.23274e-14 5.6233e-14
-4.54973e-15 2.82055e-14 7.49064e-14
-3.23123e-16 -4.47592e-15 1.23985e-14
-1.70702e-15 5.08495e-14 1.75601e-13
8.88326e-16 6.44772e-15 -3.33556e-14
-9.52938e-15 -2.67155e-14 1.14756e-13
1.95501e-16 -2.75148e-15 -2.89952e-15
2.78866e-15 7.71127e-15 -1.44309e-14
7.16795e-15 2.00955e-14 -8.63168e-14
1.03588e-14 -5.92401e-14 -1.63373e-13
7.9804e-16 -3.78212e-15 -6.44673e-14
7.82611e-18 1.40392e-17 5.06786e-16
-4.35098e-15 -1.9415e-14 -1.3904e-13
-5.19423e-15 -2.31833e-14 -1.66017e-13
6.53047e-16 1.6139e-15 1.27442e-14
-1.94459e-14 1.80479e-16 -2.28119e-13
-1.21679e-15 -2.23052e-15 1.47216e-14
-1.08691e-14 2.2637e-14 2.78394e-13
-7.36449e-15 -1.81923e-14 -1.43647e-13
-5.97993e-15 -1.4772e-14 -1.16641e-13
-1.55925e-14 -3.19685e-14 -1.0479e-13
-6.80511e-17 5.82167e-16 -1.84241e-15
-2.83508e-15 1.34619e-14 -6.65665e-14
-9.17942e-15 5.49409e-14 2.11157e-13
7.55552e-16 -4.55725e-15 -1.74912e-14
3.86198e-16 1.73368e-15 1.2382e-14
1.15643e-16 -3.35949e-16 -1.84076e-15
-7.8478e-15 -7.28946e-14 1.85342e-13
-2.29784e-05 0.00379173 -0.00417178
-5.73174e-15 -7.54478e-15 -1.08972e-13
1.52085e-15 2.26325e-15 -1.78445e-14
2.72139e-17 -5.64928e-16 -6.89738e-16
-4.90973e-05 0.00141702 -0.00285452
6.74357e-15 1.89373e-14 2.6288e-13
-9.283e-16 8.92631e-14 2.24983e-13
2.29455e-16 -6.63942e-16 -3.64325e-15
1.34813e-14 4.56303e-14 1.93312e-13
1.06424e-15 3.60221e-15 1.52617e-14
-1.04432e-15 -2.92616e-15 1.25718e-14
2.9903e-17 -1.68421e-15 4.05946e-15
-7.37038e-15 -1.81897e-14 -1.43647e-13
1.31695e-14 -4.47229e-14 -1.10009e-13
2.95316e-16 4.88505e-15 -1.0441e-14
-1.81462e-14 8.1435e-15 -1.66091e-13
-1.68191e-17 1.76947e-16 4.66257e-16
6.28374e-15 -4.01355e-14 1.31217e-13
8.69852e-16 3.429e-14 1.03653e-13
-1.07556e-14 -1.726e-15 1.75368e-13
0.00146053 -0.00615448 0.0136383
-9.83913e-15 -1.33709e-14 -1.90505e-13
1.13091e-15 -1.2918e-14 -1.84323e-14
-3.69934e-15 -1.32326e-14 -1.98725e-13
3.8382e-15 -1.81941e-14 8.99457e-14
8.76317e-16 5.06752e-15 -1.96346e-14
-3.26832e-15 2.52683e-14 -8.03151e-14
-3.81611e-16 3.70493e-14 9.33836e-14
2.20789e-15 -1.03712e-14 -1.76838e-13
2.36844e-14 -4.0248e-14 1.90902e-13
2.5618e-05 -1.32236e-05 0.000648074
-7.0509e-15 -4.06851e-14 1.57632e-13
1.09874e-15 -1.29344e-14 -1.84279e-14
-4.07351e-16 1.19611e-14 -4.36766e-14
-1.80127e-14 -5.05045e-14 2.16941e-13

VECTORS force float
3.97047e-23 -2.64698e-21 1.05879e-21
2.02322e-19 -3.0202e-20 -2.75286e-21
4.70666e-21 0.0 0.0
-4.30134e-22 1.98523e-23 0.0
-7.44463e-24 8.93355e-23 0.0
2.64698e-22 1.05879e-22 2.11758e-22
2.22346e-21 1.11173e-21 -4.23516e-22
-6.11981e-20 -9.26442e-22 -4.87044e-21
-9.26442e-23 0.0 0.0
2.21684e-21 1.58819e-22 -2.11758e-22
-8.0885e-20 6.54333e-20 2.83756e-20
2.218e-09 1.47915e-08 2.62487e-08
-3.97047e-23 3.00432e-20 4.23516e-21
-1.78754e-21 0.0 0.0
-1.30695e-22 -5.29396e-23 0.0
0.0 2.11758e-22 0.0
5.8207e-20 -1.88465e-20 1.05879e-21
1.02623e-19 -1.13026e-20 1.20702e-20
-1.52201e-21 5.29396e-23 2.11758e-22
-5.82335e-22 -1.58819e-22 0.0
1.72054e-22 0.0 0.0
-6.08805e-22 2.11758e-22 0.0
0.0 0.0 0.0
-5.29396e-23 0.0 -1.05879e-22
8.5365e-22 5.29396e-23 0.0
4.57662e-20 -3.65283e-21 -2.75286e-21
-1.73099e-19 6.35275e-21 -1.27055e-20
3.30872e-24 -2.64698e-23 0.0
-4.392e-20 2.64698e-22 -6.35275e-22
-4.33244e-20 5.02926e-21 0.0
0.0 0.0 0.0
-3.17637e-22 0.0 0.0
-2.11758e-22 1.58819e-22 2.11758e-22
-1.93229e-21 -5.29396e-23 -2.11758e-22
-3.00167e-20 1.63054e-20 -7.83505e-21
0.0 0.0 0.0
-2.64698e-23 2.64698e-23 0.0
2.733e-21 2.14405e-21 -6.35275e-22
0.0 0.0 0.0
-3.30872e-23 -1.05879e-22 0.0
0.0 -6.38128e-21 -2.11758e-22
1.28775e-20 -9.95264e-21 -6.35275e-22
1.28908e-20 2.07523e-20 -8.47033e-22
3.57342e-22 1.85288e-22 0.0
2.11758e-22 -2.64698e-23 0.0
2.83227e-21 -2.11758e-22 -4.23516e-22
-1.65436e-23 0.0 0.0
-1.19114e-22 -1.21761e-21 -2.11758e-22
4.10943e-20 -1.68877e-20 3.17637e-21
-2.64698e-23 1.58819e-22 0.0
-4.30134e-23 2.64698e-23 0.0
-6.94832e-23 0.0 0.0
-8.60268e-23 0.0 0.0
-5.20632e-10 8.34353e-08 -7.74485e-08
-4.34581e-19 2.46897e-19 4.87044e-21
-2.68404e-20 1.83171e-20 0.0
5.29396e-23 1.05879e-22 0.0
-1.65395e-10 8.61731e-08 -7.45442e-08
4.12267e-21 3.04402e-22 0.0
2.54772e-22 0.0 0.0
-1.32349e-22 1.05879e-22 0.0
-3.48078e-21 -1.53525e-21 6.35275e-22
-5.55865e-22 -2.11758e-22 0.0
6.7895e-21 -2.17052e-21 2.11758e-22
-4.68978e-20 -1.72583e-20 -5.29396e-21
-3.32196e-21 2.32934e-21 -2.11758e-22
7.0939e-20 -2.44581e-20 1.77877e-20
-7.87476e-22 -1.05879e-22 0.0
6.88214e-22 0.0 -2.11758e-22
2.64698e-23 -2.64698e-23 0.0
-3.62636e-21 -6.88214e-22 -2.11758e-22
0.0 0.0 0.0
0.0 0.0 0.0
1.38239e-08 3.46607e-08 -1.0883e-07
5.45277e-21 2.51463e-22 -2.11758e-22
-6.74979e-22 -2.11758e-22 1.05879e-22
1.5915e-21 -2.64698e-23 0.0
5.11528e-20 2.46698e-20 2.32934e-21
-9.26442e-23 0.0 0.0
-6.47398e-19 -4.94455e-20 8.89385e-21
-5.36427e-21 1.05879e-22 0.0
5.75089e-20 1.40687e-20 -2.11758e-22
1.1382e-21 1.837e-20 2.96462e-21
1.54413e-10 -2.68538e-08 -1.9819e-09
-1.29173e-20 -6.51157e-21 -2.32934e-21
2.11758e-22 1.05879e-22 2.11758e-22
-2.01998e-21 5.29396e-23 0.0
1.05879e-22 -2.64698e-22 0.0
