# vtk DataFile Version 3.0
LIGGGHTS particles timestep 76200000
ASCII
DATASET POLYDATA
POINTS 88 float
0.0387146 0.0187573 0.00575718
0.0515454 0.0203376 0.00592249
0.0657625 0.0198039 0.00576669
0.102543 0.017821 0.00581645
0.0387828 0.0214812 0.00622724
0.191105 0.0203026 0.00593314
0.0819644 0.018662 0.00575674
0.10448 0.0180949 0.00580371
0.0800401 0.0168845 0.00628905
0.0458896 0.0168235 0.00626774
0.0564645 0.0213699 0.00635393
0.0895579 0.0163751 0.0148516
0.136461 0.0187737 0.0058834
0.0822817 0.0172512 0.00607537
0.0652975 0.0207687 0.00603532
0.0870153 0.0206158 0.00591409
0.0792518 0.0191834 0.00582281
0.0170063 0.0201419 0.00601043
0.0643606 0.0210989 0.00615793
0.0448733 0.0164686 0.00634571
0.0803045 0.0192159 0.005743
0.0811915 0.017199 0.00615598
0.0615774 0.0172559 0.00608456
0.063441 0.0163701 0.00647495
0.085142 0.0184899 0.00574639
0.0829173 0.0222111 0.0066532
0.0357086 0.0161117 0.00660683
0.0618809 0.0199413 0.00582959
0.0791321 0.0159803 0.00845363
0.0907122 0.0150189 0.0101228
0.0830136 0.0187071 0.00584947
0.0439552 0.0161318 0.00656318
0.0782305 0.0203396 0.00602091
0.0822914 0.0196163 0.00600118
0.0732237 0.018766 0.005768
0.0644815 0.0190744 0.00573853
0.0683453 0.0182317 0.00578271
0.0609817 0.0187588 0.00589337
0.0609012 0.0197493 0.00575757
0.0634974 0.0172463 0.00599641
0.0286258 0.0183498 0.00592583
0.0888729 0.0199317 0.00596406
0.0601285 0.017977 0.00598674
0.0626638 0.0179373 0.00595165
0.0644862 0.0176438 0.00589539
0.0238948 0.0168123 0.00667048
0.042543 0.0198089 0.00582143
0.0388539 0.0197419 0.00587248
0.0766607 0.0190533 0.00580856
0.0779381 0.019417 0.00576935
0.0620021 0.0189487 0.00583492
0.0424897 0.0188104 0.00581963
0.0920805 0.0205253 0.0059177
0.0803618 0.0174607 0.00843681
0.0557406 0.0175302 0.00596599
0.102423 0.0196788 0.00582979
0.0453636 0.0157749 0.00687326
0.377396 0.0174743 0.00843157
0.0505919 0.0207133 0.00592302
0.0643736 0.0166453 0.00623285
0.0440263 0.0170728 0.00623272
0.0799751 0.0180833 0.00603206
0.0810479 0.0182624 0.00591498
0.0824664 0.0205903 0.00624245
0.0595038 0.0223955 0.00675756
0.063626 0.0183177 0.00585415
0.0316007 0.0183082 0.00603438
0.0584979 0.0201946 0.00586451
0.0215463 0.0196109 0.00592744
0.0690612 0.017564 0.00598647
0.0636055 0.0197465 0.00578044
0.0916726 0.0179703 0.00732587
0.0242602 0.0201274 0.00583803
0.0735641 0.0163483 0.0148113
0.0567438 0.01754 0.00591345
0.061759 0.0163729 0.00651709
0.0504712 0.0179279 0.00611076
0.0371638 0.0187263 0.00573865
0.0328558 0.0191954 0.00572294
0.044465 0.0204317 0.00594645
0.0625324 0.0169121 0.00611939
0.066033 0.0188309 0.00577203
0.0833983 0.0210192 0.00634375
0.0634748 0.017494 0.00840992
0.0350698 0.0188001 0.00572051
0.0623373 0.0157218 0.00700852
0.0667607 0.0199247 0.00579031
0.0801544 0.0202323 0.00596714

VERTICES 88 176
1 0
1 1
1 2
1 3
1 4
1 5
1 6
1 7
1 8
1 9
1 10
1 11
1 12
1 13
1 14
1 15
1 16
1 17
1 18
1 19
1 20
1 21
1 22
1 23
1 24
1 25
1 26
1 27
1 28
1 29
1 30
1 31
1 32
1 33
1 34
1 35
1 36
1 37
1 38
1 39
1 40
1 41
1 42
1 43
1 44
1 45
1 46
1 47
1 48
1 49
1 50
1 51
1 52
1 53
1 54
1 55
1 56
1 57
1 58
1 59
1 60
1 61
1 62
1 63
1 64
1 65
1 66
1 67
1 68
1 69
1 70
1 71
1 72
1 73
1 74
1 75
1 76
1 77
1 78
1 79
1 80
1 81
1 82
1 83
1 84
1 85
1 86
1 87

POINT_DATA 88
SCALARS id int 1
LOOKUP_TABLE default
1
2
3
8
9
14
18
26
28
32
34
38
46
48
54
56
59
64
65
66
68
70
74
82
83
86
88
89
90
93
100
106
107
108
109
112
113
121
124
125
126
127
129
132
134
137
142
146
149
159
160
163
165
174
182
187
189
193
195
198
201
209
213
215
221
223
226
227
229
240
242
245
246
256
257
258
270
273
274
277
279
280
281
283
291
293
296
298

SCALARS type int 1
LOOKUP_TABLE default
1
1
1
1
1
1
1
1
1
1
1
1
1
1
1
1
1
1
1
1
1
1
1
1
1
1
1
1
1
1
1
1
1
1
1
1
1
1
1
1
1
1
1
1
1
1
1
1
1
1
1
1
1
1
1
1
1
1
1
1
1
1
1
1
1
1
1
1
1
1
1
1
1
1
1
1
1
1
1
1
1
1
1
1
1
1
1
1

SCALARS radius float 1
LOOKUP_TABLE default
0.0005
0.0005
0.0005
0.0005
0.0005
0.0005
0.0005
0.0005
0.0005
0.0005
0.0005
0.0005
0.0005
0.0005
0.0005
0.0005
0.0005
0.0005
0.0005
0.0005
0.0005
0.0005
0.0005
0.0005
0.0005
0.0005
0.0005
0.0005
0.0005
0.0005
0.0005
0.0005
0.0005
0.0005
0.0005
0.0005
0.0005
0.0005
0.0005
0.0005
0.0005
0.0005
0.0005
0.0005
0.0005
0.0005
0.0005
0.0005
0.0005
0.0005
0.0005
0.0005
0.0005
0.0005
0.0005
0.0005
0.0005
0.0005
0.0005
0.0005
0.0005
0.0005
0.0005
0.0005
0.0005
0.0005
0.0005
0.0005
0.0005
0.0005
0.0005
0.0005
0.0005
0.0005
0.0005
0.0005
0.0005
0.0005
0.0005
0.0005
0.0005
0.0005
0.0005
0.0005
0.0005
0.0005
0.0005
0.0005

SCALARS mass float 1
LOOKUP_TABLE default
1.46608e-07
1.46608e-07
1.46608e-07
1.46608e-07
1.46608e-07
1.46608e-07
1.46608e-07
1.46608e-07
1.46608e-07
1.46608e-07
1.46608e-07
1.46608e-07
1.46608e-07
1.46608e-07
1.46608e-07
1.46608e-07
1.46608e-07
1.46608e-07
1.46608e-07
1.46608e-07
1.46608e-07
1.46608e-07
1.46608e-07
1.46608e-07
1.46608e-07
1.46608e-07
1.46608e-07
1.46608e-07
1.46608e-07
1.46608e-07
1.46608e-07
1.46608e-07
1.46608e-07
1.46608e-07
1.46608e-07
1.46608e-07
1.46608e-07
1.46608e-07
1.46608e-07
1.46608e-07
1.46608e-07
1.46608e-07
1.46608e-07
1.46608e-07
1.46608e-07
1.46608e-07
1.46608e-07
1.46608e-07
1.46608e-07
1.46608e-07
1.46608e-07
1.46608e-07
1.46608e-07
1.46608e-07
1.46608e-07
1.46608e-07
1.46608e-07
1.46608e-07
1.46608e-07
1.46608e-07
1.46608e-07
1.46608e-07
1.46608e-07
1.46608e-07
1.46608e-07
1.46608e-07
1.46608e-07
1.46608e-07
1.46608e-07
1.46608e-07
1.46608e-07
1.46608e-07
1.46608e-07
1.46608e-07
1.46608e-07
1.46608e-07
1.46608e-07
1.46608e-07
1.46608e-07
1.46608e-07
1.46608e-07
1.46608e-07
1.46608e-07
1.46608e-07
1.46608e-07
1.46608e-07
1.46608e-07
1.46608e-07

VECTORS velocity float
-8.68819e-15 7.85637e-14 2.00899e-13
1.06338e-14 2.65574e-14 3.50781e-13
-1.37657e-15 3.97328e-14 -1.45083e-13
-9.79261e-16 -4.35263e-15 -1.20042e-13
-2.71703e-19 1.05747e-18 -5.69604e-18
-1.12259e-14 -4.3802e-14 9.73356e-14
1.34793e-14 4.5632e-14 1.93311e-13
1.48452e-14 2.23712e-14 -1.76086e-13
-1.13561e-15 -7.29084e-15 -3.41144e-14
-4.528e-15 -2.52971e-14 -1.74151e-13
-8.21463e-16 -1.50197e-14 3.21097e-14
0.000809145 0.0164486 0.0131264
2.02042e-15 3.19622e-15 -2.9045e-14
6.64509e-16 3.61518e-14 1.18632e-13
-1.12937e-15 3.25659e-14 -1.18914e-13
3.2205e-15 5.90079e-15 -3.89485e-14
6.34855e-15 2.15032e-14 9.10981e-14
1.30273e-14 5.24944e-15 -1.07337e-13
9.85073e-15 -6.28943e-14 2.05619e-13
-2.62246e-17 -1.41452e-16 -9.78701e-16
-9.52829e-15 -2.67153e-14 1.14756e-13
4.51277e-15 1.5277e-14 6.47201e-14
-8.56105e-16 -3.78843e-15 -2.71117e-14
5.32524e-16 7.63661e-15 9.7785e-15
3.31499e-15 -1.89273e-14 2.54251e-13
2.5338e-15 -1.23226e-14 5.62312e-14
-4.49442e-15 2.81814e-14 7.49188e-14
-4.94122e-16 -6.84144e-15 1.89516e-14
0.00155474 -0.0109211 0.00978213
-0.0012956 -0.00939516 0.0221448
-9.52795e-15 -2.67155e-14 1.14756e-13
1.95808e-16 -2.75143e-15 -2.89949e-15
4.0947e-15 1.13192e-14 -2.1185e-14
7.16585e-15 2.00954e-14 -8.63169e-14
1.03959e-14 -5.92186e-14 -1.63378e-13
7.97955e-16 -3.78212e-15 -6.44673e-14
7.82647e-18 1.40392e-17 5.06786e-16
-4.35109e-15 -1.94154e-14 -1.3904e-13
-5.19423e-15 -2.31833e-14 -1.66017e-13
6.66946e-16 1.64823e-15 1.30153e-14
-1.94458e-14 1.85989e-16 -2.28119e-13
-1.2134e-15 -2.23027e-15 1.47219e-14
-1.08536e-14 2.26393e-14 2.78394e-13
-7.36393e-15 -1.81923e-14 -1.43647e-13
-5.97998e-15 -1.47724e-14 -1.16641e-13
-1.559e-14 -3.19696e-14 -1.04791e-13
-1.50098e-16 1.28096e-15 -4.05603e-15
-2.82329e-15 1.3462e-14 -6.6567e-14
-9.15243e-15 5.49383e-14 2.11159e-13
1.10956e-15 -6.69032e-15 -2.56782e-14
5.90457e-16 2.64996e-15 1.89266e-14
2.54793e-16 -7.3989e-16 -4.05369e-15
-7.84821e-15 -7.28946e-14 1.85342e-13
-4.37027e-05 -0.000707544 -0.000565361
-5.82145e-15 -7.53987e-15 -1.08968e-13
1.54231e-15 2.25999e-15 -1.78431e-14
2.77215e-17 -5.64895e-16 -6.89901e-16
3.51152e-05 0.00137689 -0.00152337
6.74668e-15 1.89381e-14 2.6288e-13
-9.28334e-16 8.92617e-14 2.24984e-13
2.29696e-16 -6.6393e-16 -3.64325e-15
1.34793e-14 4.56296e-14 1.93312e-13
1.06439e-15 3.60263e-15 1.52616e-14
-1.03927e-15 -2.92752e-15 1.25719e-14
1.45422e-16 -1.68585e-15 4.05498e-15
-7.36394e-15 -1.81922e-14 -1.43647e-13
1.31692e-14 -4.47198e-14 -1.1001e-13
2.98089e-16 4.8851e-15 -1.04408e-14
-1.81457e-14 8.14351e-15 -1.66091e-13
-1.68194e-17 1.76946e-16 4.66257e-16
6.28572e-15 -4.01367e-14 1.31216e-13
0.000314492 -0.0188265 0.00396375
-1.07574e-14 -1.73576e-15 1.75368e-13
-6.01655e-05 0.0159729 0.0153867
-9.85538e-15 -1.33754e-14 -1.90504e-13
1.3234e-15 -1.5112e-14 -2.15636e-14
-3.69888e-15 -1.32327e-14 -1.98725e-13
3.80846e-15 -1.81875e-14 8.99483e-14
8.9017e-16 5.06752e-15 -1.9634e-14
-3.12315e-15 2.5291e-14 -8.03134e-14
-3.84001e-16 3.70495e-14 9.33835e-14
2.17903e-15 -1.03758e-14 -1.76838e-13
2.36848e-14 -4.025e-14 1.90901e-13
5.97919e-06 0.00331611 0.000390079
-7.074e-15 -4.06764e-14 1.57633e-13
1.28508e-15 -1.51308e-14 -2.15575e-14
-4.07387e-16 1.19613e-14 -4.36765e-14
-1.80124e-14 -5.05044e-14 2.16941e-13

VECTORS force float
3.1499e-21 0.0 0.0
-2.38228e-22 -3.01755e-21 2.11758e-22
0.0 0.0 0.0
-1.48231e-21 1.38966e-22 0.0
3.88775e-23 -1.15805e-23 0.0
1.34996e-21 -5.29396e-22 0.0
1.03232e-21 -4.97632e-21 1.05879e-21
-2.14405e-20 5.21455e-21 -1.27055e-21
-3.97047e-23 0.0 0.0
-5.20131e-21 4.49986e-22 0.0
3.85195e-19 -2.64698e-21 1.03762e-20
-9.69383e-09 -1.61034e-08 1.79433e-08
-4.89691e-21 9.3306e-20 9.52912e-21
2.09277e-21 0.0 0.0
1.28048e-21 0.0 0.0
1.58819e-22 0.0 0.0
5.58909e-20 -1.49819e-20 2.11758e-22
1.44631e-19 6.49833e-21 1.73642e-20
-1.03232e-21 -1.58819e-22 0.0
1.05879e-22 0.0 0.0
3.97047e-23 0.0 0.0
-1.00585e-21 2.11758e-22 0.0
-3.17637e-22 -4.23516e-22 0.0
-3.30872e-23 0.0 -1.05879e-22
1.70068e-21 2.51463e-22 0.0
-3.47945e-20 6.35275e-22 1.69407e-21
1.51301e-19 1.74171e-20 2.96462e-21
1.98523e-23 2.64698e-23 0.0
7.74761e-09 4.24837e-08 -2.99631e-08
-9.1109e-09 -1.5563e-08 -7.62908e-10
0.0 0.0 0.0
4.76456e-22 0.0 1.05879e-22
-2.64698e-23 1.05879e-22 0.0
-3.97047e-23 5.29396e-23 0.0
8.06005e-21 -2.07523e-20 5.92923e-21
-1.65436e-22 0.0 0.0
-2.64698e-23 2.64698e-23 0.0
-2.24993e-21 -2.91168e-22 2.11758e-22
0.0 0.0 0.0
-2.64698e-23 0.0 0.0
7.94093e-23 9.72227e-21 -2.11758e-22
-6.96155e-21 3.44107e-22 -6.35275e-22
1.13158e-20 -2.55036e-20 2.11758e-21
-5.55865e-22 1.05879e-22 0.0
2.11758e-22 2.64698e-23 0.0
6.96155e-21 -1.58819e-22 -1.05879e-21
4.30134e-23 0.0 0.0
5.21455e-21 1.11173e-21 0.0
-1.82377e-20 -1.11173e-20 2.32934e-21
-2.64698e-23 1.05879e-22 0.0
6.61744e-24 -5.29396e-23 0.0
-1.68745e-22 -5.29396e-23 0.0
-6.61744e-24 0.0 0.0
-1.21217e-10 5.95428e-08 -4.9797e-08
9.41795e-20 -1.55907e-19 5.50571e-21
3.13667e-20 -2.93815e-21 2.32934e-21
-1.05879e-22 -5.29396e-23 0.0
5.22619e-11 4.49056e-08 -4.42573e-08
3.17637e-22 -6.61744e-23 0.0
-1.91079e-22 0.0 2.11758e-22
1.05879e-22 -1.05879e-22 0.0
-1.62789e-21 0.0 0.0
1.32349e-22 5.29396e-23 0.0
-4.03664e-21 2.32934e-21 2.11758e-22
-3.97841e-20 -6.14099e-21 -1.48231e-21
1.11967e-20 -4.92338e-21 2.11758e-22
5.59836e-20 -1.76818e-20 1.24937e-20
-5.98879e-21 0.0 -2.11758e-22
0.0 0.0 0.0
2.64698e-23 2.64698e-23 0.0
9.79382e-22 -4.23516e-22 0.0
6.39107e-09 -4.48506e-08 3.71495e-08
0.0 2.07291e-21 0.0
-6.05148e-10 8.16744e-09 -6.60758e-09
-2.85874e-21 2.10435e-21 -2.11758e-22
-2.64698e-21 -8.73503e-22 -1.58819e-22
1.46576e-21 -1.32349e-22 0.0
-1.94222e-20 -5.24102e-21 -2.11758e-22
-4.36751e-22 5.29396e-23 -2.11758e-22
1.42262e-19 1.23879e-20 -6.35275e-22
2.52042e-21 1.05879e-22 0.0
-5.44947e-21 -7.41154e-22 -2.11758e-22
-1.24408e-20 6.35275e-22 1.48231e-21
-1.29634e-09 -9.10552e-08 1.66074e-08
-1.9495e-20 8.47033e-22 -8.47033e-22
-4.23516e-22 5.29396e-22 2.11758e-22
1.00006e-20 0.0 0.0
1.05879e-21 1.58819e-22 0.0
