# vtk DataFile Version 3.0
LIGGGHTS particles timestep 24400000
ASCII
DATASET POLYDATA
POINTS 89 float
0.0388307 0.0187336 0.00577146
0.0211515 0.0203219 0.00744055
0.0468657 0.0226175 0.013901
0.0478169 0.0191173 0.0157438
0.0436892 0.020408 0.00596775
0.0273763 0.0213424 0.00787544
0.08261 0.0191091 0.00590955
0.103453 0.0178822 0.00580682
0.0364864 0.0161954 0.0147115
0.0458692 0.0166351 0.00629564
0.0572659 0.0174442 0.00591793
0.0378741 0.0155157 0.0090787
0.0410668 0.0220956 0.0144204
0.0439414 0.0157767 0.00879762
0.0431344 0.0148099 0.0122428
0.045923 0.0228702 0.00957631
0.0793161 0.0192087 0.00581236
0.0170063 0.0201419 0.00601043
0.0437009 0.0151729 0.00989397
0.0448873 0.0164493 0.00634816
0.0450421 0.0198898 0.00726512
0.0388097 0.0189475 0.00722239
0.0275808 0.0221391 0.00848038
0.0285503 0.023321 0.0123919
0.0464573 0.0232991 0.0120128
0.0434382 0.0148296 0.0109508
0.0322275 0.017558 0.00631797
0.0473669 0.0211536 0.015247
0.0288736 0.022598 0.0138602
0.0393111 0.0211842 0.00773972
0.0462136 0.0233744 0.0110655
0.0483233 0.0168586 0.0152165
0.0439552 0.0161318 0.00656318
0.0371103 0.0148401 0.0123325
0.0475929 0.0200712 0.0156961
0.0399527 0.0229518 0.00980053
0.0329109 0.019317 0.00729799
0.0333582 0.0214449 0.00789631
0.0343015 0.0233802 0.0114178
0.0448143 0.0190801 0.00717883
0.0316011 0.0149027 0.01041
0.0286258 0.0183498 0.00592583
0.0452646 0.0209042 0.0076091
0.0172177 0.023466 0.0120181
0.0362128 0.0175117 0.0153554
0.035642 0.0196696 0.0157763
0.0238948 0.0168123 0.00667048
0.0470176 0.01787 0.0060864
0.0390565 0.0200205 0.00592023
0.0766607 0.0190533 0.00580856
0.0779397 0.0194308 0.00576583
0.037661 0.0150531 0.0100954
0.0424878 0.0188132 0.00581899
0.0920805 0.0205253 0.0059177
0.0310394 0.0150392 0.0128009
0.0295999 0.0199508 0.015693
0.102423 0.0196788 0.00582979
0.0336285 0.0222822 0.00859983
0.377475 0.0175503 0.00839256
0.0507369 0.0203921 0.00594173
0.0306682 0.0157226 0.0142812
0.0440263 0.0170728 0.00623272
0.0348709 0.0226307 0.0139733
0.0416411 0.0198348 0.0157018
0.0428357 0.0153326 0.0137006
0.059059 0.0180876 0.00593586
0.0390655 0.0199823 0.00728916
0.0237833 0.0195952 0.015912
0.0249835 0.0171942 0.0155489
0.0215463 0.0196109 0.00592744
0.0413016 0.0213493 0.0151038
0.040604 0.0232441 0.0125709
0.0407851 0.0228955 0.0134612
0.0242602 0.0201274 0.00583803
0.0264548 0.0172751 0.00756639
0.0193085 0.0146264 0.0119305
0.0245203 0.0163586 0.0150411
0.0325947 0.0180431 0.00731631
0.03603 0.0169523 0.00630989
0.0328558 0.0191954 0.00572294
0.0442453 0.0165524 0.00803284
0.0279324 0.0229352 0.00955655
0.0425127 0.0161401 0.0146414
0.0419156 0.0186895 0.0157556
0.0345683 0.0232913 0.0124671
0.0350698 0.0188001 0.00572051
0.020874 0.02406 0.0130217
0.0282119 0.0233821 0.0110591
0.0317957 0.0152531 0.0093977

VERTICES 89 178
1 0
1 1
1 2
1 3
1 4
1 5
1 6
1 7
1 8
1 9
1 10
1 11
1 12
1 13
1 14
1 15
1 16
1 17
1 18
1 19
1 20
1 21
1 22
1 23
1 24
1 25
1 26
1 27
1 28
1 29
1 30
1 31
1 32
1 33
1 34
1 35
1 36
1 37
1 38
1 39
1 40
1 41
1 42
1 43
1 44
1 45
1 46
1 47
1 48
1 49
1 50
1 51
1 52
1 53
1 54
1 55
1 56
1 57
1 58
1 59
1 60
1 61
1 62
1 63
1 64
1 65
1 66
1 67
1 68
1 69
1 70
1 71
1 72
1 73
1 74
1 75
1 76
1 77
1 78
1 79
1 80
1 81
1 82
1 83
1 84
1 85
1 86
1 87
1 88

POINT_DATA 89
SCALARS id int 1
LOOKUP_TABLE default
1
2
3
8
9
14
18
26
28
32
34
38
46
48
54
56
59
64
65
66
68
70
74
82
83
86
88
89
90
93
96
100
106
107
108
109
112
113
121
124
125
126
127
129
132
134
137
142
146
149
159
160
163
165
174
182
187
189
193
195
198
201
209
213
215
221
223
226
227
229
240
242
245
246
256
257
258
270
273
274
277
279
280
281
283
291
293
296
298

SCALARS type int 1
LOOKUP_TABLE default
1
1
1
1
1
1
1
1
1
1
1
1
1
1
1
1
1
1
1
1
1
1
1
1
1
1
1
1
1
1
1
1
1
1
1
1
1
1
1
1
1
1
1
1
1
1
1
1
1
1
1
1
1
1
1
1
1
1
1
1
1
1
1
1
1
1
1
1
1
1
1
1
1
1
1
1
1
1
1
1
1
1
1
1
1
1
1
1
1

SCALARS radius float 1
LOOKUP_TABLE default
0.0005
0.0005
0.0005
0.0005
0.0005
0.0005
0.0005
0.0005
0.0005
0.0005
0.0005
0.0005
0.0005
0.0005
0.0005
0.0005
0.0005
0.0005
0.0005
0.0005
0.0005
0.0005
0.0005
0.0005
0.0005
0.0005
0.0005
0.0005
0.0005
0.0005
0.0005
0.0005
0.0005
0.0005
0.0005
0.0005
0.0005
0.0005
0.0005
0.0005
0.0005
0.0005
0.0005
0.0005
0.0005
0.0005
0.0005
0.0005
0.0005
0.0005
0.0005
0.0005
0.0005
0.0005
0.0005
0.0005
0.0005
0.0005
0.0005
0.0005
0.0005
0.0005
0.0005
0.0005
0.0005
0.0005
0.0005
0.0005
0.0005
0.0005
0.0005
0.0005
0.0005
0.0005
0.0005
0.0005
0.0005
0.0005
0.0005
0.0005
0.0005
0.0005
0.0005
0.0005
0.0005
0.0005
0.0005
0.0005
0.0005

SCALARS mass float 1
LOOKUP_TABLE default
1.46608e-07
1.46608e-07
1.46608e-07
1.46608e-07
1.46608e-07
1.46608e-07
1.46608e-07
1.46608e-07
1.46608e-07
1.46608e-07
1.46608e-07
1.46608e-07
1.46608e-07
1.46608e-07
1.46608e-07
1.46608e-07
1.46608e-07
1.46608e-07
1.46608e-07
1.46608e-07
1.46608e-07
1.46608e-07
1.46608e-07
1.46608e-07
1.46608e-07
1.46608e-07
1.46608e-07
1.46608e-07
1.46608e-07
1.46608e-07
1.46608e-07
1.46608e-07
1.46608e-07
1.46608e-07
1.46608e-07
1.46608e-07
1.46608e-07
1.46608e-07
1.46608e-07
1.46608e-07
1.46608e-07
1.46608e-07
1.46608e-07
1.46608e-07
1.46608e-07
1.46608e-07
1.46608e-07
1.46608e-07
1.46608e-07
1.46608e-07
1.46608e-07
1.46608e-07
1.46608e-07
1.46608e-07
1.46608e-07
1.46608e-07
1.46608e-07
1.46608e-07
1.46608e-07
1.46608e-07
1.46608e-07
1.46608e-07
1.46608e-07
1.46608e-07
1.46608e-07
1.46608e-07
1.46608e-07
1.46608e-07
1.46608e-07
1.46608e-07
1.46608e-07
1.46608e-07
1.46608e-07
1.46608e-07
1.46608e-07
1.46608e-07
1.46608e-07
1.46608e-07
1.46608e-07
1.46608e-07
1.46608e-07
1.46608e-07
1.46608e-07
1.46608e-07
1.46608e-07
1.46608e-07
1.46608e-07
1.46608e-07
1.46608e-07

VECTORS velocity float
-9.58674e-15 8.71535e-14 2.22863e-13
0.00019008 -0.0206968 -0.0070448
0.00147441 0.00811577 -0.0140847
-0.000995914 0.0236004 0.00122741
2.40313e-15 -2.04485e-14 6.4884e-14
0.000224665 -0.0158053 -0.0100623
-1.80067e-14 -5.05098e-14 2.1694e-13
1.68951e-15 7.51594e-15 2.07276e-13
0.00219531 0.0124214 0.00933362
2.90775e-16 1.62433e-15 1.1182e-14
9.1833e-15 -1.90544e-14 -2.34434e-13
0.000118357 -0.0100189 0.0139196
0.000132502 0.0155328 -0.0155432
0.00122348 -0.00968961 0.0135317
-2.07176e-05 0.0027581 0.0231339
0.0001607 -0.00926602 -0.019667
1.52171e-14 5.18335e-14 2.19702e-13
1.30193e-14 5.2689e-15 -1.07337e-13
5.14464e-05 -0.00786333 0.0195932
-4.52779e-15 -2.52972e-14 -1.74151e-13
0.00192378 -0.0111387 -0.00337214
-4.39052e-05 -0.0222988 -0.000356894
0.000579842 -0.0142356 -0.01422
0.00109155 0.00309934 -0.0180634
0.00244921 0.00424866 -0.0163517
0.00126364 -0.00153787 0.0170965
-6.22927e-15 -2.47509e-14 -6.07105e-14
0.00122384 0.0106612 -0.00632574
0.000353049 0.0087322 -0.0113587
0.000174025 -0.0185942 -0.0113095
0.00229139 -0.00210005 -0.0134537
0.00010972 0.0185666 0.012602
1.95767e-16 -2.75167e-15 -2.89975e-15
0.000444301 0.00285932 0.0181311
0.000904142 0.0205491 -0.00472428
-7.76492e-06 -0.00962611 -0.0200675
0.000582546 -0.0201031 -0.00183562
0.00241751 -0.00218677 -0.00335171
0.000439967 0.000100283 -0.02102
0.00101021 -0.0153398 0.00125467
0.000341194 -0.0050577 0.0196237
-1.94459e-14 1.84753e-16 -2.28119e-13
0.000113157 -0.0193637 -0.00980381
0.00235356 0.000564289 -0.00285589
0.00044475 0.0195166 0.00700958
0.00372656 0.0120608 -0.00176577
-1.55919e-14 -3.19692e-14 -1.0479e-13
-3.12396e-15 -1.7465e-14 -1.20236e-13
-3.96372e-15 1.88413e-14 -9.32089e-14
-9.20661e-15 5.49745e-14 2.11147e-13
6.28259e-15 -3.8108e-14 -1.46476e-13
-8.54812e-05 -0.00340987 0.00949077
-4.51473e-15 1.30456e-14 7.16621e-14
-7.84816e-15 -7.28946e-14 1.85342e-13
2.04476e-05 0.00633896 0.0206701
0.000221682 0.0198164 -0.00469409
1.53929e-15 2.24899e-15 -1.78447e-14
0.000671691 -0.0134892 -0.0149082
0.000193309 0.00681782 -0.00471354
-5.72989e-15 -2.04813e-14 -3.07615e-13
0.00126415 0.0118766 0.0134713
2.29692e-16 -6.63872e-16 -3.64347e-15
0.00141048 0.00975878 -0.0121289
0.000196684 0.0234802 -0.00375814
0.000348591 0.010519 0.0190964
7.18609e-15 -1.49146e-14 -1.83491e-13
0.000245515 -0.0201252 -0.0041053
0.000472737 0.0208307 -0.00262696
-1.5448e-05 0.00989796 0.00361241
-1.81457e-14 8.14338e-15 -1.66091e-13
0.000734496 0.0158034 -0.0110075
0.00140895 0.00463739 -0.0198251
0.000413758 0.00664735 -0.0115132
-1.07572e-14 -1.72599e-15 1.75368e-13
-3.09334e-05 -0.0160865 0.00503807
0.00519163 0.000137436 -0.000228323
0.00430315 0.0035395 0.00164799
0.000462737 -0.0139867 0.00288291
-9.27651e-16 5.64648e-15 1.50125e-14
8.76313e-16 5.06752e-15 -1.96346e-14
2.98226e-05 -0.0201195 0.0109528
0.000242994 -0.0081608 -0.0177379
0.00157727 0.0137557 0.0115832
0.000468107 0.0206662 0.00163678
0.00104525 0.00372875 -0.0172557
-7.08823e-15 -4.0679e-14 1.57632e-13
-0.00485665 0.00331576 -0.0146197
0.00074917 -0.000879729 -0.021796
0.00137266 -0.00524873 0.0080598

VECTORS force float
-6.58171e-20 -1.01644e-20 1.48231e-21
-2.12963e-09 -8.77805e-09 8.22811e-09
-1.28934e-08 1.58537e-08 -3.70313e-08
-2.15793e-08 2.73206e-08 1.03612e-08
-5.26749e-21 4.23516e-22 4.23516e-22
-3.05365e-09 -8.59033e-09 5.47229e-09
1.35936e-19 -6.16216e-20 -6.14099e-21
8.97491e-21 8.47033e-22 0.0
-1.2608e-08 -1.38255e-09 -2.36718e-09
3.97047e-23 -2.64698e-23 0.0
-5.29396e-23 -3.57342e-22 0.0
-4.7818e-09 3.15487e-08 -1.85907e-08
-3.40556e-09 -6.07816e-09 -1.08475e-08
-8.55599e-09 -5.71709e-09 1.64622e-08
-2.06473e-09 1.21332e-08 5.574e-09
-6.41733e-10 -1.22414e-08 5.29359e-10
-1.6631e-19 7.33742e-20 -4.65868e-21
-1.02147e-19 -7.07273e-20 -1.65171e-20
-2.85346e-10 7.99415e-09 8.88881e-09
3.17637e-22 2.64698e-23 0.0
8.70907e-07 3.34058e-07 5.35245e-08
-1.46624e-09 -3.69244e-09 1.10395e-08
-2.61831e-09 -1.36541e-08 1.50605e-10
-7.27499e-09 -1.01708e-08 -2.16851e-08
1.0358e-07 -1.19754e-07 4.65932e-07
-1.10554e-08 2.42952e-09 6.99257e-08
-4.75133e-20 5.84135e-19 -2.31028e-19
-4.88783e-09 -8.5798e-09 -1.42727e-08
8.39601e-10 -1.40347e-08 -1.58991e-09
-1.98721e-10 -1.05613e-08 6.25725e-09
1.33385e-05 1.23824e-05 1.88051e-05
1.9391e-10 9.94375e-09 -7.21277e-09
5.4263e-22 0.0 1.05879e-22
3.18775e-09 3.63251e-08 3.06578e-08
-1.69931e-08 -3.76096e-08 4.66537e-08
-2.64255e-08 -2.945e-08 -6.54724e-08
4.84962e-09 7.10472e-10 1.38819e-08
-8.56009e-05 -4.92581e-05 -2.52165e-05
5.92711e-10 -1.01922e-08 -4.55877e-09
-1.15565e-06 5.4942e-07 -3.82462e-07
-1.94122e-09 1.19605e-08 1.31597e-08
0.0 6.27189e-21 0.0
-2.54719e-10 -1.00582e-08 7.64353e-09
-1.35336e-07 -4.12748e-08 -2.94723e-08
-2.98579e-09 1.07124e-08 -7.94549e-09
-1.35023e-06 7.31437e-07 7.87012e-07
5.82335e-22 1.27055e-21 -4.23516e-22
-4.04326e-21 -1.85288e-22 2.11758e-22
3.42982e-20 6.45863e-21 -4.23516e-22
-1.33858e-19 4.39928e-20 -1.88465e-20
5.13381e-20 -9.31736e-21 4.87044e-21
-1.10695e-08 -2.601e-08 9.22606e-08
0.0 0.0 0.0
-1.05879e-22 0.0 0.0
-2.34971e-10 1.1852e-08 -3.12389e-10
-5.58939e-10 4.18417e-09 -1.16798e-08
-2.36375e-20 1.72583e-20 2.11758e-22
-5.72381e-09 -1.68731e-08 -3.74435e-09
1.93641e-09 3.12771e-08 -4.68907e-08
7.27919e-22 6.33951e-21 -2.11758e-22
-7.98257e-09 2.98217e-08 1.04948e-08
1.19114e-22 1.05879e-22 0.0
1.00171e-09 -2.63812e-08 8.65538e-09
1.36078e-08 7.84248e-08 -5.05388e-09
-1.51632e-09 1.28248e-08 -4.0456e-10
-9.26442e-22 2.64698e-22 0.0
1.16933e-09 -4.93632e-09 1.05675e-08
-2.60709e-10 -6.81658e-10 -1.43715e-08
-3.31331e-10 -3.31462e-08 -1.59712e-08
0.0 -1.72054e-22 0.0
-3.98826e-09 4.9406e-09 -1.76526e-08
1.03006e-05 -2.33252e-06 4.19688e-05
-1.57102e-06 -4.58417e-07 -6.87105e-08
-3.44107e-22 -2.31611e-23 0.0
-2.59663e-09 6.06589e-09 3.10254e-08
-5.81527e-09 -1.54033e-08 2.58838e-08
-9.6922e-10 -4.79722e-09 1.14219e-08
2.16531e-09 2.58901e-09 1.41219e-09
-1.03272e-19 1.49819e-20 -7.6233e-21
-7.94093e-23 0.0 0.0
7.61688e-10 4.55321e-09 8.39468e-09
9.1089e-09 -2.03641e-09 1.09494e-07
-1.81796e-08 1.71083e-08 1.15101e-08
-4.95994e-09 1.12818e-08 -9.08443e-09
-5.04365e-09 -7.85835e-09 -6.88141e-08
-2.96594e-20 7.25272e-21 6.35275e-22
0.000344701 -1.4931e-05 0.000172218
1.06526e-09 -1.09643e-08 -4.68553e-09
-5.74141e-07 5.43933e-07 -6.79144e-08
