# vtk DataFile Version 3.0
LIGGGHTS particles timestep 28400000
ASCII
DATASET POLYDATA
POINTS 89 float
0.0388307 0.0187336 0.00577146
0.0276316 0.015239 0.00950798
0.0476212 0.0226265 0.00920274
0.0516041 0.0152249 0.0095582
0.0436892 0.020408 0.00596775
0.0307639 0.0225553 0.0139382
0.08261 0.0191091 0.00590955
0.103453 0.0178822 0.00580682
0.0410863 0.0209071 0.00758501
0.0458692 0.0166351 0.00629564
0.0572659 0.0174442 0.00591793
0.0421591 0.0233853 0.0112122
0.044477 0.0159376 0.0144767
0.0479094 0.0231709 0.0103314
0.0469646 0.0203464 0.00744949
0.0496414 0.0193764 0.0157908
0.0793161 0.0192087 0.00581236
0.0170063 0.0201419 0.00601043
0.0632091 0.0196192 0.00574818
0.0448873 0.0164493 0.00634816
0.0487813 0.02249 0.0140452
0.0423199 0.0233236 0.0121992
0.0309988 0.0218568 0.0147871
0.0320097 0.0175 0.0154821
0.0503292 0.0164291 0.0148875
0.0473224 0.0216821 0.00808114
0.0357086 0.0161117 0.00660683
0.0509729 0.0149853 0.012575
0.0324002 0.0162131 0.0147563
0.0431331 0.0213354 0.015147
0.0499852 0.0175772 0.0155677
0.0523746 0.0176579 0.00748724
0.0439552 0.0161318 0.00656318
0.0414147 0.0219811 0.00832673
0.0513789 0.0148948 0.010495
0.0436235 0.0193988 0.0157544
0.0370928 0.0212358 0.0151087
0.0377505 0.0187999 0.0157169
0.0391225 0.0148328 0.0118222
0.0484482 0.0230414 0.0128335
0.0353861 0.0218249 0.0082046
0.0286258 0.0183498 0.00592583
0.0491547 0.0212087 0.0151446
0.0210826 0.0146665 0.0123052
0.0408729 0.0199857 0.00728489
0.0402111 0.0170771 0.00765146
0.0238948 0.0168123 0.00667048
0.0470176 0.01787 0.0060864
0.0390565 0.0200205 0.00592023
0.0766607 0.0190533 0.00580856
0.0779397 0.0194308 0.00576583
0.0419252 0.023216 0.0103798
0.0424878 0.0188132 0.00581899
0.0920805 0.0205253 0.0059177
0.0351769 0.0210893 0.00781341
0.0329962 0.0148594 0.0123255
0.102423 0.0196788 0.00582979
0.0380813 0.0172451 0.0153757
0.377419 0.0175474 0.00839731
0.0507369 0.0203921 0.00594173
0.0338781 0.0157877 0.00869508
0.0440263 0.0170728 0.00623272
0.039755 0.0155638 0.00906647
0.0457274 0.0154647 0.00945722
0.0467851 0.0195695 0.00720632
0.059059 0.0180876 0.00593586
0.0429094 0.022278 0.0143173
0.0316007 0.0183082 0.00603438
0.0281989 0.0170976 0.00762777
0.0215463 0.0196109 0.00592744
0.0450124 0.0148834 0.012287
0.0439139 0.0179502 0.0156715
0.0442176 0.0168187 0.0151561
0.0242602 0.0201274 0.00583803
0.029896 0.0231862 0.0101768
0.0183076 0.0140274 0.0130371
0.026524 0.0156464 0.014179
0.0367492 0.0225846 0.0139175
0.0371638 0.0187263 0.00573865
0.0328558 0.0191954 0.00572294
0.0481616 0.023334 0.0112226
0.0313216 0.020504 0.0155321
0.0466303 0.0186992 0.00735624
0.0459065 0.0159058 0.00862362
0.0394244 0.0149417 0.0102276
0.0350698 0.0188001 0.00572051
0.025179 0.0209824 0.0154926
0.0317804 0.018575 0.0157915
0.0364361 0.0231931 0.0127289

VERTICES 89 178
1 0
1 1
1 2
1 3
1 4
1 5
1 6
1 7
1 8
1 9
1 10
1 11
1 12
1 13
1 14
1 15
1 16
1 17
1 18
1 19
1 20
1 21
1 22
1 23
1 24
1 25
1 26
1 27
1 28
1 29
1 30
1 31
1 32
1 33
1 34
1 35
1 36
1 37
1 38
1 39
1 40
1 41
1 42
1 43
1 44
1 45
1 46
1 47
1 48
1 49
1 50
1 51
1 52
1 53
1 54
1 55
1 56
1 57
1 58
1 59
1 60
1 61
1 62
1 63
1 64
1 65
1 66
1 67
1 68
1 69
1 70
1 71
1 72
1 73
1 74
1 75
1 76
1 77
1 78
1 79
1 80
1 81
1 82
1 83
1 84
1 85
1 86
1 87
1 88

POINT_DATA 89
SCALARS id int 1
LOOKUP_TABLE default
1
2
3
8
9
14
18
26
28
32
34
38
46
48
54
56
59
64
65
66
68
70
74
82
83
86
88
89
90
93
96
100
106
107
108
109
112
113
121
124
125
126
127
129
132
134
137
142
146
149
159
160
163
165
174
182
187
189
193
195
198
201
209
213
215
221
223
226
227
229
240
242
245
246
256
257
258
270
273
274
277
279
280
281
283
291
293
296
298

SCALARS type int 1
LOOKUP_TABLE default
1
1
1
1
1
1
1
1
1
1
1
1
1
1
1
1
1
1
1
1
1
1
1
1
1
1
1
1
1
1
1
1
1
1
1
1
1
1
1
1
1
1
1
1
1
1
1
1
1
1
1
1
1
1
1
1
1
1
1
1
1
1
1
1
1
1
1
1
1
1
1
1
1
1
1
1
1
1
1
1
1
1
1
1
1
1
1
1
1

SCALARS radius float 1
LOOKUP_TABLE default
0.0005
0.0005
0.0005
0.0005
0.0005
0.0005
0.0005
0.0005
0.0005
0.0005
0.0005
0.0005
0.0005
0.0005
0.0005
0.0005
0.0005
0.0005
0.0005
0.0005
0.0005
0.0005
0.0005
0.0005
0.0005
0.0005
0.0005
0.0005
0.0005
0.0005
0.0005
0.0005
0.0005
0.0005
0.0005
0.0005
0.0005
0.0005
0.0005
0.0005
0.0005
0.0005
0.0005
0.0005
0.0005
0.0005
0.0005
0.0005
0.0005
0.0005
0.0005
0.0005
0.0005
0.0005
0.0005
0.0005
0.0005
0.0005
0.0005
0.0005
0.0005
0.0005
0.0005
0.0005
0.0005
0.0005
0.0005
0.0005
0.0005
0.0005
0.0005
0.0005
0.0005
0.0005
0.0005
0.0005
0.0005
0.0005
0.0005
0.0005
0.0005
0.0005
0.0005
0.0005
0.0005
0.0005
0.0005
0.0005
0.0005

SCALARS mass float 1
LOOKUP_TABLE default
1.46608e-07
1.46608e-07
1.46608e-07
1.46608e-07
1.46608e-07
1.46608e-07
1.46608e-07
1.46608e-07
1.46608e-07
1.46608e-07
1.46608e-07
1.46608e-07
1.46608e-07
1.46608e-07
1.46608e-07
1.46608e-07
1.46608e-07
1.46608e-07
1.46608e-07
1.46608e-07
1.46608e-07
1.46608e-07
1.46608e-07
1.46608e-07
1.46608e-07
1.46608e-07
1.46608e-07
1.46608e-07
1.46608e-07
1.46608e-07
1.46608e-07
1.46608e-07
1.46608e-07
1.46608e-07
1.46608e-07
1.46608e-07
1.46608e-07
1.46608e-07
1.46608e-07
1.46608e-07
1.46608e-07
1.46608e-07
1.46608e-07
1.46608e-07
1.46608e-07
1.46608e-07
1.46608e-07
1.46608e-07
1.46608e-07
1.46608e-07
1.46608e-07
1.46608e-07
1.46608e-07
1.46608e-07
1.46608e-07
1.46608e-07
1.46608e-07
1.46608e-07
1.46608e-07
1.46608e-07
1.46608e-07
1.46608e-07
1.46608e-07
1.46608e-07
1.46608e-07
1.46608e-07
1.46608e-07
1.46608e-07
1.46608e-07
1.46608e-07
1.46608e-07
1.46608e-07
1.46608e-07
1.46608e-07
1.46608e-07
1.46608e-07
1.46608e-07
1.46608e-07
1.46608e-07
1.46608e-07
1.46608e-07
1.46608e-07
1.46608e-07
1.46608e-07
1.46608e-07
1.46608e-07
1.46608e-07
1.46608e-07
1.46608e-07

VECTORS velocity float
-9.4124e-15 8.71416e-14 2.22876e-13
0.000325681 -0.00932078 0.0184787
3.02636e-05 -0.011354 -0.0192336
6.65632e-05 -0.0105126 0.019009
2.40237e-15 -2.04488e-14 6.48839e-14
0.00087497 0.01288 -0.0166305
-1.76484e-14 -5.06148e-14 2.16946e-13
1.69008e-15 7.51577e-15 2.07276e-13
0.000407901 -0.0188649 -0.0104159
2.90859e-16 1.62432e-15 1.11821e-14
9.18182e-15 -1.90551e-14 -2.34434e-13
0.00130724 -0.000489217 -0.0152121
0.00152804 0.0101915 0.0094144
0.000710967 -0.00559809 -0.0177795
0.00184863 -0.0163336 -0.00528881
0.000117105 0.0227544 -0.000534059
1.53931e-14 5.18092e-14 2.19696e-13
1.30219e-14 5.26136e-15 -1.07337e-13
3.95195e-15 5.47564e-14 -1.51841e-13
-4.52777e-15 -2.52971e-14 -1.74151e-13
0.00134329 0.00906361 -0.0143659
0.00117142 0.0020236 -0.0155682
0.000944671 0.0126104 -0.00993173
0.0016941 0.0152884 0.00480242
0.000214236 0.0167767 0.013173
0.000819146 -0.0155493 -0.0108157
-4.54428e-15 2.81767e-14 7.49176e-14
-9.41763e-05 0.00404114 0.02153
7.23706e-05 0.0159148 0.0142712
0.000871408 0.0152914 -0.0105139
0.00146291 0.0105616 0.00524248
0.000977683 -0.0182546 0.00692712
1.95935e-16 -2.75167e-15 -2.89973e-15
0.00036367 -0.0146654 -0.0125771
0.00172219 -0.00279586 0.0154772
0.000227718 0.0204872 -0.00217668
0.000223302 0.0177071 -0.0111779
0.00107588 0.0251462 0.00294006
8.64433e-05 0.00104496 0.0220191
-0.000117086 0.00624036 -0.0183733
0.000670634 -0.0082648 -0.00720701
-1.94461e-14 1.65698e-16 -2.28119e-13
-0.000218714 0.0138407 -0.00661199
0.00371454 -0.000366218 0.00545155
0.0014848 -0.0147362 -0.00260747
9.53801e-05 -0.0208613 0.00953597
-1.55925e-14 -3.1969e-14 -1.0479e-13
-3.12676e-15 -1.74654e-14 -1.20236e-13
-3.92193e-15 1.88528e-14 -9.32084e-14
-9.19261e-15 5.49353e-14 2.11158e-13
6.30435e-15 -3.80959e-14 -1.46478e-13
0.000795849 -0.00589936 -0.0180838
-4.51473e-15 1.30456e-14 7.16621e-14
-7.84776e-15 -7.28946e-14 1.85342e-13
0.000942106 -0.0097168 -0.00710653
0.00066734 0.00423623 0.0194476
1.54259e-15 2.25936e-15 -1.78431e-14
0.000700627 0.0179832 0.00751071
-3.04292e-05 -0.00486205 0.0021085
-5.72609e-15 -2.04836e-14 -3.07615e-13
0.00154297 -0.00552444 0.00749626
2.29719e-16 -6.63868e-16 -3.64347e-15
0.00017779 -0.0129145 0.0179022
0.000510244 -0.00672124 0.0101264
0.00226162 -0.0104109 -0.00169055
7.18566e-15 -1.49144e-14 -1.83491e-13
0.000438055 0.0148346 -0.0154989
1.3179e-14 -4.47222e-14 -1.10008e-13
0.000870612 -0.0157436 0.00751921
-1.81457e-14 8.1435e-15 -1.66091e-13
0.0013403 0.00162171 0.0167291
-0.000223079 0.0211912 0.00775103
0.000370949 0.0179448 0.0107921
-1.07574e-14 -1.72601e-15 1.75368e-13
0.000364954 -0.00629891 -0.0201222
0.000721021 -0.000651372 0.00129775
0.000481416 0.0124564 0.0156214
9.06998e-06 0.0152228 -0.0176501
3.80829e-15 -1.81872e-14 8.99485e-14
8.76334e-16 5.06752e-15 -1.96346e-14
0.000970561 0.000702923 -0.0193798
0.00048685 0.0140585 -0.00513327
0.00268725 -0.00895951 0.000266997
0.00215378 -0.00678581 0.00544707
0.00400412 -0.00355181 0.0116789
-7.1182e-15 -4.06786e-14 1.57631e-13
0.00192555 0.00192916 -0.00175024
0.000117508 0.0219073 0.00365187
0.000216594 0.00670506 -0.0209769

VECTORS force float
1.22092e-20 6.70215e-20 -2.68933e-20
-1.78205e-09 6.181e-09 1.08784e-08
-8.51825e-11 -1.26459e-08 1.58449e-09
-2.73892e-10 8.04041e-09 9.03048e-09
-3.50725e-21 -3.70577e-22 2.11758e-22
1.00554e-08 -1.83649e-08 -7.07154e-09
6.1124e-19 -1.72001e-19 1.14349e-20
1.58273e-20 -2.91168e-21 0.0
7.43682e-09 1.15944e-08 2.14246e-08
9.85999e-22 5.29396e-23 0.0
1.49554e-21 -3.83812e-22 2.11758e-22
4.14952e-09 1.48361e-09 3.08114e-08
-9.85279e-09 6.07531e-08 3.60034e-08
2.03153e-07 -1.36512e-07 3.29528e-07
-2.8301e-07 1.9865e-07 -1.25467e-07
2.29953e-09 -1.7077e-09 -1.21259e-08
-3.07063e-19 1.52995e-20 1.8423e-20
-1.19299e-19 -6.12511e-20 -1.71524e-20
5.14837e-21 -1.69407e-21 -4.23516e-22
6.2204e-22 7.94093e-23 0.0
-7.4942e-09 6.22962e-09 -2.48334e-08
-1.56447e-09 -1.0749e-08 -3.23053e-08
2.34974e-09 -1.59412e-08 -4.14978e-09
-5.31253e-09 1.47589e-08 -6.97236e-10
-8.6117e-10 1.07209e-08 -4.63798e-09
-3.79561e-09 -1.62083e-08 2.42313e-09
-5.47527e-20 -5.49513e-20 1.71524e-20
-2.20333e-09 9.55245e-09 3.98197e-11
1.53505e-09 1.06682e-08 -4.99163e-09
-6.36858e-09 9.5855e-09 -1.78978e-08
2.01968e-08 -1.01183e-07 -6.43079e-08
-5.09015e-09 -8.73365e-09 1.43353e-08
1.72054e-22 0.0 -1.05879e-22
-3.05012e-09 -2.29328e-08 -4.29323e-09
-8.87797e-09 3.00073e-09 3.86533e-08
-1.93253e-09 7.6739e-09 -1.04008e-08
-9.10851e-10 -1.53544e-09 -1.2078e-08
-7.04483e-09 -4.62508e-08 2.51341e-08
-5.39925e-10 1.13886e-08 4.5338e-09
-5.46613e-09 -1.26471e-08 6.68892e-09
7.24733e-09 1.02651e-08 3.76586e-08
2.64698e-23 2.28366e-20 0.0
5.53778e-10 9.85687e-09 -5.62317e-09
-1.77631e-09 -6.87078e-09 1.20476e-08
-5.21896e-09 -3.7352e-08 3.04806e-09
-9.77425e-11 2.90101e-10 1.27883e-08
2.09111e-21 -2.11758e-22 -2.11758e-22
1.93229e-21 5.29396e-23 -2.11758e-22
4.20936e-20 1.04291e-20 4.23516e-22
9.35971e-20 -1.53525e-20 2.75286e-21
8.51798e-20 3.12343e-21 1.90582e-21
4.9951e-09 5.12376e-09 3.16662e-08
0.0 0.0 0.0
0.0 0.0 0.0
7.07436e-09 1.58705e-08 3.41599e-08
-4.7306e-09 1.3269e-08 1.24946e-08
1.24143e-20 -2.38228e-22 1.48231e-21
-3.80753e-09 1.56771e-08 -5.15179e-09
3.85182e-12 5.15088e-09 -8.86814e-09
-1.28412e-20 2.50139e-21 0.0
2.81098e-08 2.18197e-08 -8.45293e-08
1.32349e-23 0.0 0.0
-1.48146e-07 1.12679e-06 -1.10184e-06
3.15022e-09 5.06758e-09 -7.93367e-09
3.31231e-07 -1.33208e-07 2.86173e-07
-3.04402e-22 -1.19114e-22 0.0
-3.77048e-09 -3.6508e-09 -1.25944e-08
-6.08805e-21 1.50348e-20 -6.98802e-21
2.2779e-09 7.21893e-09 8.50013e-09
0.0 1.32349e-23 0.0
1.52047e-08 2.32549e-09 1.87146e-08
-2.02164e-10 7.37629e-09 -9.38397e-09
-2.27769e-09 1.11211e-08 -5.92209e-09
3.97047e-23 -1.65436e-24 0.0
-5.17358e-09 -1.20944e-08 -3.26292e-09
1.21498e-08 -1.1833e-08 2.41789e-08
-3.69321e-09 1.9027e-08 4.8757e-09
5.95927e-10 -7.2244e-09 -1.07295e-08
-2.8005e-20 -5.18808e-21 -6.35275e-22
-1.19114e-22 0.0 0.0
2.88921e-07 8.65097e-08 1.4484e-06
-7.05412e-09 2.04989e-08 -3.05886e-08
-6.11546e-09 2.34254e-08 -2.28248e-08
3.81673e-09 2.04311e-08 -2.01669e-08
1.49093e-05 2.46692e-05 -5.09841e-05
-1.00334e-19 1.11173e-21 -4.02341e-21
-2.52045e-07 1.05973e-06 -1.96791e-06
-3.004e-10 6.26531e-09 -1.0503e-08
-8.14446e-10 -6.36386e-09 -1.53379e-08
