# vtk DataFile Version 3.0
LIGGGHTS particles timestep 79200000
ASCII
DATASET POLYDATA
POINTS 88 float
0.0387146 0.0187573 0.00575718
0.0515454 0.0203376 0.00592249
0.0657625 0.0198039 0.00576669
0.102543 0.017821 0.00581645
0.0387828 0.0214812 0.00622724
0.191105 0.0203026 0.00593314
0.0819644 0.018662 0.00575674
0.10448 0.0180949 0.00580371
0.0800401 0.0168845 0.00628905
0.0458896 0.0168235 0.00626774
0.0564645 0.0213699 0.00635393
0.0920747 0.0176825 0.0155888
0.136461 0.0187737 0.0058834
0.0822817 0.0172512 0.00607537
0.0652975 0.0207687 0.00603532
0.0870153 0.0206158 0.00591409
0.0792518 0.0191834 0.00582281
0.0170063 0.0201419 0.00601043
0.0643606 0.0210989 0.00615793
0.0448733 0.0164686 0.00634571
0.0803045 0.0192159 0.005743
0.0811915 0.017199 0.00615598
0.0615774 0.0172559 0.00608456
0.063441 0.0163701 0.00647495
0.0855075 0.019144 0.00579031
0.0829173 0.0222111 0.0066532
0.0357086 0.0161117 0.00660683
0.0618809 0.0199413 0.00582959
0.0845463 0.0178241 0.00589851
0.0930139 0.0149138 0.012667
0.0830136 0.0187071 0.00584947
0.0439552 0.0161318 0.00656318
0.0782305 0.0203396 0.00602091
0.0822914 0.0196163 0.00600118
0.0732237 0.018766 0.005768
0.0644815 0.0190744 0.00573853
0.0683453 0.0182317 0.00578271
0.0609817 0.0187588 0.00589337
0.0609012 0.0197493 0.00575757
0.0634974 0.0172463 0.00599641
0.0286258 0.0183498 0.00592583
0.0888729 0.0199317 0.00596406
0.0601285 0.017977 0.00598674
0.0626638 0.0179373 0.00595165
0.0644862 0.0176438 0.00589539
0.0238948 0.0168123 0.00667048
0.042543 0.0198089 0.00582143
0.0388539 0.0197419 0.00587248
0.0766607 0.0190533 0.00580856
0.0779381 0.019417 0.00576935
0.0620021 0.0189487 0.00583492
0.0424897 0.0188104 0.00581963
0.0920805 0.0205253 0.0059177
0.0803646 0.0175161 0.00840936
0.0557406 0.0175302 0.00596599
0.102423 0.0196788 0.00582979
0.0453636 0.0157749 0.00687326
0.377394 0.0175002 0.00841019
0.0505919 0.0207133 0.00592302
0.0643736 0.0166453 0.00623285
0.0440263 0.0170728 0.00623272
0.0799751 0.0180833 0.00603206
0.0810479 0.0182624 0.00591498
0.0824664 0.0205903 0.00624245
0.0595038 0.0223955 0.00675756
0.063626 0.0183177 0.00585415
0.0316007 0.0183082 0.00603438
0.0584979 0.0201946 0.00586451
0.0215463 0.0196109 0.00592744
0.0690612 0.017564 0.00598647
0.0636055 0.0197465 0.00578044
0.0940766 0.01605 0.00843912
0.0242602 0.0201274 0.00583803
0.0758621 0.0154752 0.00918147
0.0567438 0.01754 0.00591345
0.061759 0.0163729 0.00651709
0.0504712 0.0179279 0.00611076
0.0371638 0.0187263 0.00573865
0.0328558 0.0191954 0.00572294
0.044465 0.0204317 0.00594645
0.0625324 0.0169121 0.00611939
0.066033 0.0188309 0.00577203
0.0833983 0.0210192 0.00634375
0.0634623 0.0174946 0.00842265
0.0350698 0.0188001 0.00572051
0.0623373 0.0157218 0.00700852
0.0667607 0.0199247 0.00579031
0.0801544 0.0202323 0.00596714

VERTICES 88 176
1 0
1 1
1 2
1 3
1 4
1 5
1 6
1 7
1 8
1 9
1 10
1 11
1 12
1 13
1 14
1 15
1 16
1 17
1 18
1 19
1 20
1 21
1 22
1 23
1 24
1 25
1 26
1 27
1 28
1 29
1 30
1 31
1 32
1 33
1 34
1 35
1 36
1 37
1 38
1 39
1 40
1 41
1 42
1 43
1 44
1 45
1 46
1 47
1 48
1 49
1 50
1 51
1 52
1 53
1 54
1 55
1 56
1 57
1 58
1 59
1 60
1 61
1 62
1 63
1 64
1 65
1 66
1 67
1 68
1 69
1 70
1 71
1 72
1 73
1 74
1 75
1 76
1 77
1 78
1 79
1 80
1 81
1 82
1 83
1 84
1 85
1 86
1 87

POINT_DATA 88
SCALARS id int 1
LOOKUP_TABLE default
1
2
3
8
9
14
18
26
28
32
34
38
46
48
54
56
59
64
65
66
68
70
74
82
83
86
88
89
90
93
100
106
107
108
109
112
113
121
124
125
126
127
129
132
134
137
142
146
149
159
160
163
165
174
182
187
189
193
195
198
201
209
213
215
221
223
226
227
229
240
242
245
246
256
257
258
270
273
274
277
279
280
281
283
291
293
296
298

SCALARS type int 1
LOOKUP_TABLE default
1
1
1
1
1
1
1
1
1
1
1
1
1
1
1
1
1
1
1
1
1
1
1
1
1
1
1
1
1
1
1
1
1
1
1
1
1
1
1
1
1
1
1
1
1
1
1
1
1
1
1
1
1
1
1
1
1
1
1
1
1
1
1
1
1
1
1
1
1
1
1
1
1
1
1
1
1
1
1
1
1
1
1
1
1
1
1
1

SCALARS radius float 1
LOOKUP_TABLE default
0.0005
0.0005
0.0005
0.0005
0.0005
0.0005
0.0005
0.0005
0.0005
0.0005
0.0005
0.0005
0.0005
0.0005
0.0005
0.0005
0.0005
0.0005
0.0005
0.0005
0.0005
0.0005
0.0005
0.0005
0.0005
0.0005
0.0005
0.0005
0.0005
0.0005
0.0005
0.0005
0.0005
0.0005
0.0005
0.0005
0.0005
0.0005
0.0005
0.0005
0.0005
0.0005
0.0005
0.0005
0.0005
0.0005
0.0005
0.0005
0.0005
0.0005
0.0005
0.0005
0.0005
0.0005
0.0005
0.0005
0.0005
0.0005
0.0005
0.0005
0.0005
0.0005
0.0005
0.0005
0.0005
0.0005
0.0005
0.0005
0.0005
0.0005
0.0005
0.0005
0.0005
0.0005
0.0005
0.0005
0.0005
0.0005
0.0005
0.0005
0.0005
0.0005
0.0005
0.0005
0.0005
0.0005
0.0005
0.0005

SCALARS mass float 1
LOOKUP_TABLE default
1.46608e-07
1.46608e-07
1.46608e-07
1.46608e-07
1.46608e-07
1.46608e-07
1.46608e-07
1.46608e-07
1.46608e-07
1.46608e-07
1.46608e-07
1.46608e-07
1.46608e-07
1.46608e-07
1.46608e-07
1.46608e-07
1.46608e-07
1.46608e-07
1.46608e-07
1.46608e-07
1.46608e-07
1.46608e-07
1.46608e-07
1.46608e-07
1.46608e-07
1.46608e-07
1.46608e-07
1.46608e-07
1.46608e-07
1.46608e-07
1.46608e-07
1.46608e-07
1.46608e-07
1.46608e-07
1.46608e-07
1.46608e-07
1.46608e-07
1.46608e-07
1.46608e-07
1.46608e-07
1.46608e-07
1.46608e-07
1.46608e-07
1.46608e-07
1.46608e-07
1.46608e-07
1.46608e-07
1.46608e-07
1.46608e-07
1.46608e-07
1.46608e-07
1.46608e-07
1.46608e-07
1.46608e-07
1.46608e-07
1.46608e-07
1.46608e-07
1.46608e-07
1.46608e-07
1.46608e-07
1.46608e-07
1.46608e-07
1.46608e-07
1.46608e-07
1.46608e-07
1.46608e-07
1.46608e-07
1.46608e-07
1.46608e-07
1.46608e-07
1.46608e-07
1.46608e-07
1.46608e-07
1.46608e-07
1.46608e-07
1.46608e-07
1.46608e-07
1.46608e-07
1.46608e-07
1.46608e-07
1.46608e-07
1.46608e-07
1.46608e-07
1.46608e-07
1.46608e-07
1.46608e-07
1.46608e-07
1.46608e-07

VECTORS velocity float
-8.68244e-15 7.85637e-14 2.00899e-13
1.06184e-14 2.65557e-14 3.50781e-13
-1.30406e-15 3.97318e-14 -1.45084e-13
-9.7819e-16 -4.3526e-15 -1.20042e-13
-2.74708e-19 1.05002e-18 -5.70904e-18
-1.12288e-14 -4.38014e-14 9.73355e-14
1.34867e-14 4.56287e-14 1.93312e-13
1.50083e-14 2.23961e-14 -1.76069e-13
-1.13557e-15 -7.29115e-15 -3.41145e-14
-4.52615e-15 -2.52972e-14 -1.74151e-13
-8.92686e-16 -1.50133e-14 3.21104e-14
0.000691217 0.0141613 0.00527402
2.02026e-15 3.14138e-15 -2.90509e-14
6.63535e-16 3.61518e-14 1.18632e-13
-1.12786e-15 3.25655e-14 -1.18914e-13
3.22057e-15 5.89871e-15 -3.89487e-14
6.35318e-15 2.15032e-14 9.10978e-14
1.30296e-14 5.25263e-15 -1.07337e-13
9.85075e-15 -6.2895e-14 2.05619e-13
-2.61605e-17 -1.41367e-16 -9.78689e-16
-9.52837e-15 -2.67153e-14 1.14756e-13
4.51282e-15 1.52772e-14 6.472e-14
-8.27536e-16 -3.66191e-15 -2.6206e-14
5.30155e-16 7.60181e-15 9.73389e-15
-2.79825e-15 1.60124e-14 -2.15085e-13
2.53697e-15 -1.23268e-14 5.62301e-14
-4.56327e-15 2.81635e-14 7.49215e-14
-4.50952e-16 -6.24585e-15 1.73002e-14
-1.74892e-15 5.08482e-14 1.75601e-13
0.000991433 0.00460618 0.0162192
-9.52793e-15 -2.67155e-14 1.14756e-13
1.95427e-16 -2.75148e-15 -2.89952e-15
3.79908e-15 1.05034e-14 -1.96568e-14
7.16627e-15 2.0095e-14 -8.6317e-14
1.0348e-14 -5.91667e-14 -1.634e-13
7.97961e-16 -3.78212e-15 -6.44673e-14
7.82575e-18 1.40389e-17 5.06786e-16
-4.35133e-15 -1.94163e-14 -1.3904e-13
-5.19423e-15 -2.31833e-14 -1.66017e-13
6.63903e-16 1.64072e-15 1.2956e-14
-1.9446e-14 1.84278e-16 -2.28118e-13
-1.20433e-15 -2.23145e-15 1.47225e-14
-1.06232e-14 2.26081e-14 2.78406e-13
-7.36633e-15 -1.8192e-14 -1.43647e-13
-5.97994e-15 -1.47721e-14 -1.16641e-13
-1.55917e-14 -3.19687e-14 -1.04791e-13
-1.25196e-16 1.06804e-15 -3.38383e-15
-2.82451e-15 1.34613e-14 -6.65672e-14
-9.18923e-15 5.49356e-14 2.11158e-13
1.0292e-15 -6.20716e-15 -2.38252e-14
5.39098e-16 2.41899e-15 1.72769e-14
2.12755e-16 -6.17197e-16 -3.38222e-15
-7.84776e-15 -7.28946e-14 1.85342e-13
3.00178e-05 -0.000452064 0.00106577
-5.72269e-15 -7.561e-15 -1.08971e-13
1.51034e-15 2.26695e-15 -1.78449e-14
2.77619e-17 -5.64905e-16 -6.89958e-16
1.78966e-05 -0.00099099 0.00164536
6.74679e-15 1.89383e-14 2.6288e-13
-9.28305e-16 8.92619e-14 2.24983e-13
2.29485e-16 -6.63922e-16 -3.64325e-15
1.34851e-14 4.56279e-14 1.93312e-13
1.0641e-15 3.60246e-15 1.52616e-14
-1.04027e-15 -2.92812e-15 1.25717e-14
1.31914e-16 -1.69016e-15 4.05364e-15
-7.35978e-15 -1.81926e-14 -1.43647e-13
1.31682e-14 -4.47299e-14 -1.10006e-13
3.22873e-16 4.88498e-15 -1.04401e-14
-1.81494e-14 8.14264e-15 -1.66091e-13
-1.68187e-17 1.76947e-16 4.66257e-16
6.28568e-15 -4.01365e-14 1.31216e-13
-0.000141869 -0.0172375 0.0149034
-1.07574e-14 -1.73207e-15 1.75368e-13
-0.000156669 -0.0133781 0.0167103
-9.84811e-15 -1.33748e-14 -1.90504e-13
1.27917e-15 -1.46071e-14 -2.08432e-14
-3.69777e-15 -1.32326e-14 -1.98725e-13
3.81207e-15 -1.81717e-14 8.99514e-14
8.90253e-16 5.06752e-15 -1.9634e-14
-2.95988e-15 2.53275e-14 -8.03079e-14
-3.85973e-16 3.70496e-14 9.33834e-14
2.18835e-15 -1.03717e-14 -1.76838e-13
2.36852e-14 -4.02527e-14 1.90901e-13
2.82748e-05 -0.00232784 0.00121938
-7.13485e-15 -4.06762e-14 1.57631e-13
1.24166e-15 -1.46255e-14 -2.08371e-14
-4.04118e-16 1.19615e-14 -4.36765e-14
-1.80132e-14 -5.05049e-14 2.16941e-13

VECTORS force float
0.0 0.0 0.0
-5.2741e-20 1.80789e-20 6.35275e-22
-3.70759e-20 0.0 4.23516e-22
-3.90429e-22 -2.64698e-23 0.0
2.31611e-23 -3.80503e-23 0.0
8.20563e-22 -4.23516e-22 0.0
-8.36445e-21 -2.48816e-21 1.05879e-21
8.26122e-20 -1.27399e-19 -7.19978e-21
-9.26442e-23 -5.29396e-23 0.0
4.74471e-21 1.32349e-22 -2.11758e-22
-2.4607e-19 3.17637e-21 -1.16467e-20
1.39318e-08 9.63652e-09 -1.52158e-08
-1.5551e-20 8.84091e-21 0.0
-4.92172e-22 -5.29396e-23 0.0
-2.23339e-22 -5.29396e-23 0.0
0.0 2.64698e-23 0.0
-2.66948e-20 2.11758e-22 1.48231e-21
2.88256e-20 2.13082e-21 4.44692e-21
-6.61744e-23 5.29396e-23 2.11758e-22
2.64698e-22 5.29396e-23 -2.11758e-22
-1.32349e-23 0.0 0.0
-2.24993e-22 3.17637e-22 0.0
0.0 2.11758e-22 0.0
3.30872e-23 0.0 0.0
-8.5365e-22 -7.54389e-22 0.0
1.27055e-20 -3.86459e-21 -1.69407e-21
-2.44713e-20 -1.55642e-20 4.65868e-21
-5.9557e-23 1.05879e-22 0.0
8.02597e-20 -5.55865e-21 2.32934e-21
-8.22615e-09 2.78347e-08 3.45507e-08
-2.64698e-23 0.0 0.0
2.64698e-22 0.0 0.0
0.0 -3.70577e-22 6.35275e-22
-5.691e-22 -5.29396e-23 0.0
-1.83978e-19 -4.03929e-20 2.75286e-21
2.97785e-23 0.0 0.0
-2.64698e-23 0.0 0.0
-7.61006e-22 2.46169e-21 -2.11758e-22
0.0 0.0 0.0
6.61744e-24 1.05879e-22 0.0
-1.85288e-22 -1.82919e-20 -2.11758e-22
-1.20437e-20 -1.6676e-21 -1.05879e-21
-1.42818e-19 1.83872e-19 -2.03288e-20
3.32196e-21 -5.29396e-23 0.0
7.94093e-23 -5.29396e-23 0.0
-2.77933e-21 4.23516e-22 2.11758e-22
5.62483e-23 -5.29396e-23 0.0
9.71441e-21 0.0 -4.23516e-22
2.87065e-20 1.05879e-20 -1.48231e-21
1.05879e-22 2.11758e-22 -4.23516e-22
-6.61744e-24 -5.29396e-23 -2.11758e-22
-1.65436e-23 0.0 0.0
0.0 0.0 0.0
7.69305e-11 -4.96239e-08 8.48098e-09
-5.41175e-20 5.50042e-20 -1.69407e-21
-2.78197e-20 7.88799e-21 -1.48231e-21
-2.11758e-22 -5.29396e-23 2.11758e-22
2.66117e-10 -6.47096e-08 1.53148e-08
4.47339e-21 8.60268e-22 -2.11758e-22
1.65436e-24 0.0 2.11758e-22
1.72054e-22 0.0 0.0
-3.50063e-20 1.42937e-21 2.11758e-21
2.77933e-22 -5.29396e-23 0.0
1.52201e-20 -7.46448e-21 -4.23516e-22
-3.86062e-20 1.06938e-20 5.29396e-21
-2.5808e-21 5.29396e-23 0.0
-1.93229e-21 1.19643e-20 -4.65868e-21
6.61744e-24 0.0 -2.11758e-22
-6.00864e-21 -1.4254e-20 0.0
2.64698e-23 -2.64698e-23 0.0
7.94093e-22 -2.11758e-22 -2.11758e-22
1.30055e-09 4.13567e-09 1.08666e-08
0.0 -1.19445e-21 0.0
-5.98129e-08 -6.14101e-09 -1.29937e-07
-5.13514e-21 5.30719e-21 0.0
-3.83812e-22 1.05879e-22 2.64698e-22
-1.22423e-21 -7.94093e-23 0.0
3.18431e-20 -5.58512e-20 -1.3129e-20
-5.16161e-22 0.0 0.0
4.50509e-19 3.26637e-20 -5.29396e-21
9.70283e-22 0.0 -2.11758e-22
1.28048e-20 1.32349e-21 0.0
1.42407e-20 3.86459e-21 -8.47033e-22
1.9695e-11 1.4052e-09 -1.14996e-08
2.47095e-20 3.17637e-21 1.69407e-21
2.11758e-22 0.0 2.11758e-22
-1.16831e-20 6.35275e-22 2.11758e-22
1.76024e-21 -1.58819e-22 2.11758e-22
