# vtk DataFile Version 3.0
LIGGGHTS particles timestep 83400000
ASCII
DATASET POLYDATA
POINTS 88 float
0.0387146 0.0187573 0.00575718
0.0515454 0.0203376 0.00592249
0.0657625 0.0198039 0.00576669
0.102543 0.017821 0.00581645
0.0387828 0.0214812 0.00622724
0.191105 0.0203026 0.00593314
0.0819644 0.018662 0.00575674
0.10448 0.0180949 0.00580371
0.0800401 0.0168845 0.00628905
0.0458896 0.0168235 0.00626774
0.0564645 0.0213699 0.00635393
0.0955735 0.0155926 0.0140665
0.136461 0.0187737 0.0058834
0.0822817 0.0172512 0.00607537
0.0652975 0.0207687 0.00603532
0.0870153 0.0206158 0.00591409
0.0792518 0.0191834 0.00582281
0.0170063 0.0201419 0.00601043
0.0643606 0.0210989 0.00615793
0.0448733 0.0164686 0.00634571
0.0803045 0.0192159 0.005743
0.0811915 0.017199 0.00615598
0.0615774 0.0172559 0.00608456
0.063441 0.0163701 0.00647495
0.0855075 0.019144 0.00579031
0.0829173 0.0222111 0.0066532
0.0357086 0.0161117 0.00660683
0.0618809 0.0199413 0.00582959
0.0845463 0.0178241 0.00589851
0.11021 0.0201465 0.00580174
0.0830136 0.0187071 0.00584947
0.0439552 0.0161318 0.00656318
0.0782305 0.0203396 0.00602091
0.0822914 0.0196163 0.00600118
0.0732237 0.018766 0.005768
0.0644815 0.0190744 0.00573853
0.0683453 0.0182317 0.00578271
0.0609817 0.0187588 0.00589337
0.0609012 0.0197493 0.00575757
0.0634974 0.0172463 0.00599641
0.0286258 0.0183498 0.00592583
0.0888729 0.0199317 0.00596406
0.0601285 0.017977 0.00598674
0.0626638 0.0179373 0.00595165
0.0644862 0.0176438 0.00589539
0.0238948 0.0168123 0.00667048
0.042543 0.0198089 0.00582143
0.0388539 0.0197419 0.00587248
0.0766607 0.0190533 0.00580856
0.0779381 0.019417 0.00576935
0.0620021 0.0189487 0.00583492
0.0424897 0.0188104 0.00581963
0.0920805 0.0205253 0.0059177
0.0803692 0.0175225 0.00840943
0.0557406 0.0175302 0.00596599
0.102423 0.0196788 0.00582979
0.0453636 0.0157749 0.00687326
0.377394 0.0175041 0.00841609
0.0505919 0.0207133 0.00592302
0.0643736 0.0166453 0.00623285
0.0440263 0.0170728 0.00623272
0.0799751 0.0180833 0.00603206
0.0810479 0.0182624 0.00591498
0.0824664 0.0205903 0.00624245
0.0595038 0.0223955 0.00675756
0.063626 0.0183177 0.00585415
0.0316007 0.0183082 0.00603438
0.0584979 0.0201946 0.00586451
0.0215463 0.0196109 0.00592744
0.0690612 0.017564 0.00598647
0.0636055 0.0197465 0.00578044
0.0978991 0.0200937 0.0073051
0.0242602 0.0201274 0.00583803
0.0797764 0.019345 0.00737756
0.0567438 0.01754 0.00591345
0.061759 0.0163729 0.00651709
0.0504712 0.0179279 0.00611076
0.0371638 0.0187263 0.00573865
0.0328558 0.0191954 0.00572294
0.044465 0.0204317 0.00594645
0.0625324 0.0169121 0.00611939
0.066033 0.0188309 0.00577203
0.0833983 0.0210192 0.00634375
0.0634703 0.0174711 0.00843679
0.0350698 0.0188001 0.00572051
0.0623373 0.0157218 0.00700852
0.0667607 0.0199247 0.00579031
0.0801544 0.0202323 0.00596714

VERTICES 88 176
1 0
1 1
1 2
1 3
1 4
1 5
1 6
1 7
1 8
1 9
1 10
1 11
1 12
1 13
1 14
1 15
1 16
1 17
1 18
1 19
1 20
1 21
1 22
1 23
1 24
1 25
1 26
1 27
1 28
1 29
1 30
1 31
1 32
1 33
1 34
1 35
1 36
1 37
1 38
1 39
1 40
1 41
1 42
1 43
1 44
1 45
1 46
1 47
1 48
1 49
1 50
1 51
1 52
1 53
1 54
1 55
1 56
1 57
1 58
1 59
1 60
1 61
1 62
1 63
1 64
1 65
1 66
1 67
1 68
1 69
1 70
1 71
1 72
1 73
1 74
1 75
1 76
1 77
1 78
1 79
1 80
1 81
1 82
1 83
1 84
1 85
1 86
1 87

POINT_DATA 88
SCALARS id int 1
LOOKUP_TABLE default
1
2
3
8
9
14
18
26
28
32
34
38
46
48
54
56
59
64
65
66
68
70
74
82
83
86
88
89
90
93
100
106
107
108
109
112
113
121
124
125
126
127
129
132
134
137
142
146
149
159
160
163
165
174
182
187
189
193
195
198
201
209
213
215
221
223
226
227
229
240
242
245
246
256
257
258
270
273
274
277
279
280
281
283
291
293
296
298

SCALARS type int 1
LOOKUP_TABLE default
1
1
1
1
1
1
1
1
1
1
1
1
1
1
1
1
1
1
1
1
1
1
1
1
1
1
1
1
1
1
1
1
1
1
1
1
1
1
1
1
1
1
1
1
1
1
1
1
1
1
1
1
1
1
1
1
1
1
1
1
1
1
1
1
1
1
1
1
1
1
1
1
1
1
1
1
1
1
1
1
1
1
1
1
1
1
1
1

SCALARS radius float 1
LOOKUP_TABLE default
0.0005
0.0005
0.0005
0.0005
0.0005
0.0005
0.0005
0.0005
0.0005
0.0005
0.0005
0.0005
0.0005
0.0005
0.0005
0.0005
0.0005
0.0005
0.0005
0.0005
0.0005
0.0005
0.0005
0.0005
0.0005
0.0005
0.0005
0.0005
0.0005
0.0005
0.0005
0.0005
0.0005
0.0005
0.0005
0.0005
0.0005
0.0005
0.0005
0.0005
0.0005
0.0005
0.0005
0.0005
0.0005
0.0005
0.0005
0.0005
0.0005
0.0005
0.0005
0.0005
0.0005
0.0005
0.0005
0.0005
0.0005
0.0005
0.0005
0.0005
0.0005
0.0005
0.0005
0.0005
0.0005
0.0005
0.0005
0.0005
0.0005
0.0005
0.0005
0.0005
0.0005
0.0005
0.0005
0.0005
0.0005
0.0005
0.0005
0.0005
0.0005
0.0005
0.0005
0.0005
0.0005
0.0005
0.0005
0.0005

SCALARS mass float 1
LOOKUP_TABLE default
1.46608e-07
1.46608e-07
1.46608e-07
1.46608e-07
1.46608e-07
1.46608e-07
1.46608e-07
1.46608e-07
1.46608e-07
1.46608e-07
1.46608e-07
1.46608e-07
1.46608e-07
1.46608e-07
1.46608e-07
1.46608e-07
1.46608e-07
1.46608e-07
1.46608e-07
1.46608e-07
1.46608e-07
1.46608e-07
1.46608e-07
1.46608e-07
1.46608e-07
1.46608e-07
1.46608e-07
1.46608e-07
1.46608e-07
1.46608e-07
1.46608e-07
1.46608e-07
1.46608e-07
1.46608e-07
1.46608e-07
1.46608e-07
1.46608e-07
1.46608e-07
1.46608e-07
1.46608e-07
1.46608e-07
1.46608e-07
1.46608e-07
1.46608e-07
1.46608e-07
1.46608e-07
1.46608e-07
1.46608e-07
1.46608e-07
1.46608e-07
1.46608e-07
1.46608e-07
1.46608e-07
1.46608e-07
1.46608e-07
1.46608e-07
1.46608e-07
1.46608e-07
1.46608e-07
1.46608e-07
1.46608e-07
1.46608e-07
1.46608e-07
1.46608e-07
1.46608e-07
1.46608e-07
1.46608e-07
1.46608e-07
1.46608e-07
1.46608e-07
1.46608e-07
1.46608e-07
1.46608e-07
1.46608e-07
1.46608e-07
1.46608e-07
1.46608e-07
1.46608e-07
1.46608e-07
1.46608e-07
1.46608e-07
1.46608e-07
1.46608e-07
1.46608e-07
1.46608e-07
1.46608e-07
1.46608e-07
1.46608e-07

VECTORS velocity float
-8.66982e-15 7.85669e-14 2.00898e-13
1.05652e-14 2.66109e-14 3.50779e-13
-1.32105e-15 3.97329e-14 -1.45084e-13
-9.79071e-16 -4.35249e-15 -1.20042e-13
-2.73675e-19 1.05594e-18 -5.7047e-18
-1.12286e-14 -4.38013e-14 9.73356e-14
1.3479e-14 4.56299e-14 1.93312e-13
1.49834e-14 2.23625e-14 -1.76075e-13
-1.1356e-15 -7.29145e-15 -3.41143e-14
-4.52842e-15 -2.52971e-14 -1.74151e-13
-8.49604e-16 -1.50168e-14 3.211e-14
-6.9616e-05 0.0122023 0.0189185
2.03301e-15 3.13375e-15 -2.90509e-14
6.62395e-16 3.61523e-14 1.18632e-13
-1.12535e-15 3.25658e-14 -1.18914e-13
3.22108e-15 5.89921e-15 -3.89486e-14
6.348e-15 2.15032e-14 9.10981e-14
1.30482e-14 5.24212e-15 -1.07335e-13
9.85088e-15 -6.28946e-14 2.05619e-13
-2.63407e-17 -1.41286e-16 -9.78716e-16
-9.52806e-15 -2.67153e-14 1.14756e-13
4.51279e-15 1.52766e-14 6.47202e-14
-7.88885e-16 -3.4914e-15 -2.49854e-14
5.26722e-16 7.55323e-15 9.67166e-15
-2.80478e-15 1.60116e-14 -2.15085e-13
2.5137e-15 -1.23439e-14 5.62274e-14
-4.47501e-15 2.81986e-14 7.49135e-14
-3.95053e-16 -5.47243e-15 1.51587e-14
-1.71673e-15 5.08494e-14 1.75601e-13
8.90356e-16 6.4455e-15 -3.3356e-14
-9.52795e-15 -2.67155e-14 1.14756e-13
1.95454e-16 -2.75148e-15 -2.89952e-15
3.37537e-15 9.3295e-15 -1.7462e-14
7.16687e-15 2.00955e-14 -8.63169e-14
1.04215e-14 -5.91957e-14 -1.63385e-13
7.9804e-16 -3.78212e-15 -6.44673e-14
7.82593e-18 1.40392e-17 5.06786e-16
-4.35123e-15 -1.94154e-14 -1.3904e-13
-5.19423e-15 -2.31833e-14 -1.66017e-13
6.59661e-16 1.63015e-15 1.28732e-14
-1.94459e-14 1.83879e-16 -2.28119e-13
-1.2169e-15 -2.23076e-15 1.47215e-14
-1.08608e-14 2.26365e-14 2.78394e-13
-7.36561e-15 -1.81929e-14 -1.43647e-13
-5.97997e-15 -1.4772e-14 -1.16641e-13
-1.55919e-14 -3.19694e-14 -1.0479e-13
-1.00991e-16 8.63845e-16 -2.73604e-15
-2.8188e-15 1.34629e-14 -6.6567e-14
-9.17611e-15 5.49345e-14 2.11159e-13
9.13865e-16 -5.51429e-15 -2.11659e-14
4.72192e-16 2.11963e-15 1.51385e-14
1.72338e-16 -4.99367e-16 -2.73481e-15
-7.84803e-15 -7.28946e-14 1.85342e-13
-3.32301e-05 -0.00193531 0.00125563
-5.61812e-15 -7.6611e-15 -1.0897e-13
1.5139e-15 2.27287e-15 -1.78438e-14
2.72961e-17 -5.65018e-16 -6.89893e-16
2.7628e-05 -0.00264472 0.0019444
6.74635e-15 1.8938e-14 2.6288e-13
-9.28309e-16 8.92624e-14 2.24983e-13
2.29434e-16 -6.6392e-16 -3.64325e-15
1.34794e-14 4.56299e-14 1.93312e-13
1.06422e-15 3.60203e-15 1.52617e-14
-1.04337e-15 -2.92631e-15 1.25718e-14
1.89761e-16 -1.68788e-15 4.0527e-15
-7.36168e-15 -1.8192e-14 -1.43647e-13
1.31087e-14 -4.47657e-14 -1.09999e-13
3.22868e-16 4.88325e-15 -1.04409e-14
-1.81457e-14 8.13653e-15 -1.66092e-13
-1.68189e-17 1.76947e-16 4.66257e-16
6.2842e-15 -4.01379e-14 1.31216e-13
0.00020715 -0.0201845 -0.004973
-1.07579e-14 -1.72315e-15 1.75368e-13
-1.55273e-05 -0.022143 -0.00303414
-9.84121e-15 -1.33728e-14 -1.90504e-13
1.2196e-15 -1.39267e-14 -1.98724e-14
-3.69913e-15 -1.32326e-14 -1.98725e-13
3.8129e-15 -1.81875e-14 8.99482e-14
8.76867e-16 5.06752e-15 -1.96346e-14
-3.04973e-15 2.53222e-14 -8.03062e-14
-3.86523e-16 3.70506e-14 9.33831e-14
2.19171e-15 -1.03732e-14 -1.76838e-13
2.36848e-14 -4.02489e-14 1.90902e-13
-4.30106e-05 -0.00327802 0.00144878
-7.05203e-15 -4.06762e-14 1.57634e-13
1.18339e-15 -1.39446e-14 -1.98669e-14
-4.06298e-16 1.19612e-14 -4.36766e-14
-1.80133e-14 -5.05045e-14 2.16941e-13

VECTORS force float
-4.96308e-21 -3.38813e-21 1.27055e-21
-1.20156e-18 5.85141e-19 -8.25857e-21
-6.94832e-23 -2.11758e-22 -2.11758e-22
8.33798e-22 -1.98523e-23 0.0
-5.12852e-23 7.7755e-23 0.0
1.53525e-21 0.0 0.0
-1.90582e-21 0.0 0.0
6.74979e-21 2.03817e-21 2.11758e-22
1.32349e-23 0.0 0.0
-8.62253e-21 1.85288e-22 2.11758e-22
-5.42697e-20 -1.17526e-20 -7.41154e-21
-5.15856e-10 1.13426e-08 -3.87616e-09
4.44692e-21 5.05573e-21 6.35275e-22
-1.69241e-21 -5.29396e-23 0.0
-4.73147e-22 2.64698e-22 2.11758e-22
-1.32349e-23 -1.58819e-22 0.0
6.34745e-20 -1.42937e-21 -3.59989e-21
1.63054e-20 -3.21608e-21 2.32934e-21
-2.11758e-22 5.29396e-23 2.11758e-22
3.70577e-22 1.05879e-22 -2.11758e-22
2.64698e-23 0.0 0.0
-5.29396e-22 2.11758e-22 0.0
1.48231e-21 6.35275e-22 4.23516e-22
-5.9557e-23 0.0 0.0
-3.57673e-21 -2.64698e-22 0.0
-5.88423e-20 -3.54695e-20 -5.0822e-21
5.69762e-20 3.28225e-20 -7.83505e-21
9.92617e-24 5.29396e-23 -2.11758e-22
1.99632e-20 4.23516e-22 0.0
-5.86835e-20 1.00585e-21 -8.47033e-22
0.0 0.0 0.0
2.51463e-22 0.0 0.0
5.29396e-23 -5.29396e-23 0.0
1.76024e-21 -1.05879e-22 2.11758e-22
7.21434e-20 -1.16467e-21 6.56451e-21
0.0 0.0 0.0
2.64698e-23 -2.64698e-23 0.0
-3.58666e-21 -2.11758e-22 2.11758e-22
0.0 0.0 0.0
-1.32349e-23 0.0 0.0
-2.64698e-23 2.12461e-21 0.0
1.14482e-20 -4.73809e-21 4.23516e-22
5.55204e-20 -1.34996e-21 1.27055e-21
-4.16899e-21 1.16467e-21 0.0
1.32349e-22 0.0 0.0
3.97047e-22 1.21761e-21 -4.23516e-22
3.83812e-22 1.05879e-22 0.0
6.61744e-24 -1.69407e-21 -4.23516e-22
9.77132e-20 1.24937e-20 -1.05879e-21
-1.32349e-22 0.0 0.0
3.30872e-24 -5.29396e-23 0.0
-3.30872e-23 0.0 0.0
1.12497e-22 0.0 0.0
-2.8437e-10 -2.28629e-08 -4.02355e-10
-6.61744e-21 -3.49401e-21 -2.11758e-22
5.15102e-20 -4.36487e-20 -1.05879e-21
-2.11758e-22 -1.58819e-22 2.11758e-22
4.21933e-11 -3.81031e-08 7.76314e-09
3.1102e-22 -2.64698e-23 0.0
1.07533e-23 0.0 2.11758e-22
1.85288e-22 0.0 0.0
6.2204e-22 -1.21761e-21 2.11758e-22
-6.2204e-22 1.05879e-22 -2.11758e-22
2.38228e-21 1.05879e-22 2.11758e-22
8.17122e-20 1.70465e-20 4.87044e-21
-2.89844e-21 6.08805e-22 0.0
-6.08276e-20 -4.01282e-20 8.89385e-21
0.0 0.0 0.0
-2.64698e-23 0.0 0.0
-2.64698e-23 0.0 0.0
-4.16899e-21 7.41154e-21 2.32934e-21
-7.45016e-10 -8.63064e-09 8.17085e-09
-1.64113e-21 -2.07457e-21 0.0
-8.28397e-10 -2.67195e-09 8.23232e-09
-1.06011e-20 2.5808e-21 2.11758e-22
2.64698e-22 -1.32349e-22 -1.58819e-22
-6.51818e-22 -5.29396e-23 0.0
1.47635e-20 1.16467e-21 -1.48231e-21
1.7073e-21 0.0 0.0
-3.48508e-19 -5.90276e-20 -6.56451e-21
-1.34483e-20 0.0 -2.11758e-22
-2.76047e-20 -5.16161e-21 0.0
1.95876e-21 -9.52912e-21 -1.69407e-21
-1.11684e-11 2.70389e-08 -2.37712e-08
-1.57363e-20 -1.05879e-21 -1.05879e-21
-4.23516e-22 0.0 2.11758e-22
9.95264e-21 0.0 0.0
2.48816e-21 5.29396e-22 4.23516e-22
