# vtk DataFile Version 3.0
LIGGGHTS particles timestep 71200000
ASCII
DATASET POLYDATA
POINTS 88 float
0.0387146 0.0187573 0.00575718
0.0515454 0.0203376 0.00592249
0.0657625 0.0198039 0.00576669
0.102543 0.017821 0.00581645
0.0387828 0.0214812 0.00622724
0.191105 0.0203026 0.00593314
0.0819211 0.0186895 0.00575466
0.10448 0.0180949 0.00580371
0.0790105 0.0189529 0.00732031
0.0458896 0.0168235 0.00626774
0.0564645 0.0213699 0.00635393
0.0850169 0.0185676 0.00721637
0.136461 0.0187737 0.0058834
0.0821243 0.0177332 0.00596484
0.0652975 0.0207687 0.00603532
0.0830166 0.0197662 0.00609629
0.0793161 0.0192087 0.00581236
0.0170063 0.0201419 0.00601043
0.0643606 0.0210989 0.00615793
0.0448733 0.0164686 0.00634571
0.0805047 0.019156 0.00574567
0.0811915 0.017199 0.00615598
0.0615774 0.0172559 0.00608456
0.063441 0.0163701 0.00647495
0.085142 0.0184899 0.00574639
0.0829173 0.0222111 0.0066532
0.0357086 0.0161117 0.00660683
0.0618809 0.0199413 0.00582959
0.0745835 0.0233931 0.0114974
0.0861062 0.0227995 0.00951424
0.0829196 0.0187688 0.00585604
0.0439552 0.0161318 0.00656318
0.0782305 0.0203396 0.00602091
0.081946 0.0196651 0.00598385
0.0732237 0.018766 0.005768
0.0644815 0.0190744 0.00573853
0.0683453 0.0182317 0.00578271
0.0609817 0.0187588 0.00589337
0.0609012 0.0197493 0.00575757
0.0634974 0.0172463 0.00599641
0.0286258 0.0183498 0.00592583
0.0862115 0.0201056 0.00585272
0.0601285 0.017977 0.00598674
0.0626638 0.0179373 0.00595165
0.0644862 0.0176438 0.00589539
0.0238948 0.0168123 0.00667048
0.042543 0.0198089 0.00582143
0.0388539 0.0197419 0.00587248
0.0766607 0.0190533 0.00580856
0.0779381 0.019417 0.00576935
0.0620021 0.0189487 0.00583492
0.0424897 0.0188104 0.00581963
0.0920805 0.0205253 0.0059177
0.08036 0.0175042 0.00841975
0.0557406 0.0175302 0.00596599
0.102423 0.0196788 0.00582979
0.0453636 0.0157749 0.00687326
0.377393 0.0174774 0.00843033
0.0505919 0.0207133 0.00592302
0.0643736 0.0166453 0.00623285
0.0440263 0.0170728 0.00623272
0.0801575 0.0177674 0.00609392
0.0810243 0.0182731 0.00591411
0.0824647 0.0205875 0.00624167
0.0595038 0.0223955 0.00675756
0.063626 0.0183177 0.00585415
0.0316007 0.0183082 0.00603438
0.0584979 0.0201946 0.00586451
0.0215463 0.0196109 0.00592744
0.0690612 0.017564 0.00598647
0.0636055 0.0197465 0.00578044
0.0875414 0.0214122 0.015091
0.0242602 0.0201274 0.00583803
0.0706047 0.0168567 0.0152068
0.0567438 0.01754 0.00591345
0.061759 0.0163729 0.00651709
0.0504712 0.0179279 0.00611076
0.0371638 0.0187263 0.00573865
0.0328558 0.0191954 0.00572294
0.044465 0.0204317 0.00594645
0.0625324 0.0169121 0.00611939
0.066033 0.0188309 0.00577203
0.0833983 0.0210192 0.00634375
0.0634991 0.0174778 0.00843871
0.0350698 0.0188001 0.00572051
0.0623373 0.0157218 0.00700852
0.0667607 0.0199247 0.00579031
0.0781391 0.0154427 0.0092155

VERTICES 88 176
1 0
1 1
1 2
1 3
1 4
1 5
1 6
1 7
1 8
1 9
1 10
1 11
1 12
1 13
1 14
1 15
1 16
1 17
1 18
1 19
1 20
1 21
1 22
1 23
1 24
1 25
1 26
1 27
1 28
1 29
1 30
1 31
1 32
1 33
1 34
1 35
1 36
1 37
1 38
1 39
1 40
1 41
1 42
1 43
1 44
1 45
1 46
1 47
1 48
1 49
1 50
1 51
1 52
1 53
1 54
1 55
1 56
1 57
1 58
1 59
1 60
1 61
1 62
1 63
1 64
1 65
1 66
1 67
1 68
1 69
1 70
1 71
1 72
1 73
1 74
1 75
1 76
1 77
1 78
1 79
1 80
1 81
1 82
1 83
1 84
1 85
1 86
1 87

POINT_DATA 88
SCALARS id int 1
LOOKUP_TABLE default
1
2
3
8
9
14
18
26
28
32
34
38
46
48
54
56
59
64
65
66
68
70
74
82
83
86
88
89
90
93
100
106
107
108
109
112
113
121
124
125
126
127
129
132
134
137
142
146
149
159
160
163
165
174
182
187
189
193
195
198
201
209
213
215
221
223
226
227
229
240
242
245
246
256
257
258
270
273
274
277
279
280
281
283
291
293
296
298

SCALARS type int 1
LOOKUP_TABLE default
1
1
1
1
1
1
1
1
1
1
1
1
1
1
1
1
1
1
1
1
1
1
1
1
1
1
1
1
1
1
1
1
1
1
1
1
1
1
1
1
1
1
1
1
1
1
1
1
1
1
1
1
1
1
1
1
1
1
1
1
1
1
1
1
1
1
1
1
1
1
1
1
1
1
1
1
1
1
1
1
1
1
1
1
1
1
1
1

SCALARS radius float 1
LOOKUP_TABLE default
0.0005
0.0005
0.0005
0.0005
0.0005
0.0005
0.0005
0.0005
0.0005
0.0005
0.0005
0.0005
0.0005
0.0005
0.0005
0.0005
0.0005
0.0005
0.0005
0.0005
0.0005
0.0005
0.0005
0.0005
0.0005
0.0005
0.0005
0.0005
0.0005
0.0005
0.0005
0.0005
0.0005
0.0005
0.0005
0.0005
0.0005
0.0005
0.0005
0.0005
0.0005
0.0005
0.0005
0.0005
0.0005
0.0005
0.0005
0.0005
0.0005
0.0005
0.0005
0.0005
0.0005
0.0005
0.0005
0.0005
0.0005
0.0005
0.0005
0.0005
0.0005
0.0005
0.0005
0.0005
0.0005
0.0005
0.0005
0.0005
0.0005
0.0005
0.0005
0.0005
0.0005
0.0005
0.0005
0.0005
0.0005
0.0005
0.0005
0.0005
0.0005
0.0005
0.0005
0.0005
0.0005
0.0005
0.0005
0.0005

SCALARS mass float 1
LOOKUP_TABLE default
1.46608e-07
1.46608e-07
1.46608e-07
1.46608e-07
1.46608e-07
1.46608e-07
1.46608e-07
1.46608e-07
1.46608e-07
1.46608e-07
1.46608e-07
1.46608e-07
1.46608e-07
1.46608e-07
1.46608e-07
1.46608e-07
1.46608e-07
1.46608e-07
1.46608e-07
1.46608e-07
1.46608e-07
1.46608e-07
1.46608e-07
1.46608e-07
1.46608e-07
1.46608e-07
1.46608e-07
1.46608e-07
1.46608e-07
1.46608e-07
1.46608e-07
1.46608e-07
1.46608e-07
1.46608e-07
1.46608e-07
1.46608e-07
1.46608e-07
1.46608e-07
1.46608e-07
1.46608e-07
1.46608e-07
1.46608e-07
1.46608e-07
1.46608e-07
1.46608e-07
1.46608e-07
1.46608e-07
1.46608e-07
1.46608e-07
1.46608e-07
1.46608e-07
1.46608e-07
1.46608e-07
1.46608e-07
1.46608e-07
1.46608e-07
1.46608e-07
1.46608e-07
1.46608e-07
1.46608e-07
1.46608e-07
1.46608e-07
1.46608e-07
1.46608e-07
1.46608e-07
1.46608e-07
1.46608e-07
1.46608e-07
1.46608e-07
1.46608e-07
1.46608e-07
1.46608e-07
1.46608e-07
1.46608e-07
1.46608e-07
1.46608e-07
1.46608e-07
1.46608e-07
1.46608e-07
1.46608e-07
1.46608e-07
1.46608e-07
1.46608e-07
1.46608e-07
1.46608e-07
1.46608e-07
1.46608e-07
1.46608e-07

VECTORS velocity float
-8.68245e-15 7.85696e-14 2.00897e-13
1.06034e-14 2.65663e-14 3.50781e-13
-1.37919e-15 3.97318e-14 -1.45083e-13
-9.78513e-16 -4.3526e-15 -1.20042e-13
-2.72397e-19 1.04825e-18 -5.7047e-18
-1.12289e-14 -4.38006e-14 9.7336e-14
-1.30742e-15 -3.72991e-15 1.59087e-14
1.50043e-14 2.23657e-14 -1.76074e-13
-0.000359229 -0.0221559 0.000193797
-4.52611e-15 -2.5297e-14 -1.74151e-13
-8.64076e-16 -1.50193e-14 3.21085e-14
0.00125261 -0.0179705 0.000251358
2.0289e-15 3.13258e-15 -2.90513e-14
1.00188e-15 3.4609e-15 1.45457e-14
-1.1279e-15 3.25655e-14 -1.18914e-13
-1.5825e-14 -4.43654e-14 1.90571e-13
1.51871e-14 5.18871e-14 2.19692e-13
1.30207e-14 5.24885e-15 -1.07338e-13
9.85074e-15 -6.28953e-14 2.05619e-13
-2.66263e-17 -1.41569e-16 -9.78801e-16
-7.3387e-15 -2.05763e-14 8.83856e-14
4.51277e-15 1.52766e-14 6.47202e-14
-9.05408e-16 -4.00772e-15 -2.8682e-14
5.36643e-16 7.69505e-15 9.85328e-15
3.31509e-15 -1.89272e-14 2.54251e-13
2.53156e-15 -1.23268e-14 5.62303e-14
-4.51101e-15 2.81847e-14 7.49166e-14
-5.76918e-16 -7.99166e-15 2.21349e-14
0.000321929 0.00122762 -0.0184244
-0.000307005 -0.00891797 -0.0208607
-9.52831e-15 -2.67153e-14 1.14756e-13
1.95854e-16 -2.75147e-15 -2.89951e-15
4.68902e-15 1.29633e-14 -2.42604e-14
6.77662e-15 2.02169e-14 -8.63211e-14
1.04007e-14 -5.92071e-14 -1.63382e-13
7.9804e-16 -3.78212e-15 -6.44673e-14
1.2109e-17 2.12131e-17 7.51389e-16
-4.35125e-15 -1.94145e-14 -1.3904e-13
-5.19423e-15 -2.31833e-14 -1.66017e-13
6.72052e-16 1.66081e-15 1.31149e-14
-1.94459e-14 1.82377e-16 -2.28119e-13
2.60377e-15 -1.48766e-14 1.99835e-13
-1.07502e-14 2.26583e-14 2.78397e-13
-7.36425e-15 -1.81925e-14 -1.43647e-13
-5.97992e-15 -1.4772e-14 -1.16641e-13
-1.55909e-14 -3.19685e-14 -1.04791e-13
-2.05881e-16 1.76024e-15 -5.57341e-15
-2.82195e-15 1.34613e-14 -6.65673e-14
-9.1857e-15 5.49495e-14 2.11155e-13
1.27016e-15 -7.66087e-15 -2.94054e-14
6.89687e-16 3.09493e-15 2.21048e-14
3.50388e-16 -1.01701e-15 -5.57063e-15
-7.84785e-15 -7.28946e-14 1.85342e-13
-4.22952e-05 -0.00216845 0.00116378
-5.62682e-15 -7.66014e-15 -1.08969e-13
1.5319e-15 2.25916e-15 -1.7844e-14
2.75707e-17 -5.64704e-16 -6.89812e-16
2.71491e-05 -0.00228868 0.0016399
6.74605e-15 1.8938e-14 2.6288e-13
-9.28318e-16 8.92629e-14 2.24983e-13
2.29709e-16 -6.63958e-16 -3.64325e-15
-1.31901e-14 -4.46518e-14 -1.89165e-13
-1.50292e-14 -5.0878e-14 -2.15543e-13
-1.14791e-14 -3.20828e-14 1.37828e-13
2.43237e-16 -1.67677e-15 4.05556e-15
-7.36876e-15 -1.81905e-14 -1.43647e-13
1.31757e-14 -4.47348e-14 -1.10004e-13
3.22874e-16 4.87949e-15 -1.04428e-14
-1.81457e-14 8.14351e-15 -1.66091e-13
-2.56439e-17 2.61242e-16 6.90203e-16
6.29185e-15 -4.01397e-14 1.31215e-13
0.00174636 0.0127539 -0.00774396
-1.07574e-14 -1.72601e-15 1.75368e-13
0.000339004 0.0185766 0.0122047
-9.84129e-15 -1.3374e-14 -1.90504e-13
1.39997e-15 -1.59876e-14 -2.28126e-14
-3.69943e-15 -1.32326e-14 -1.98725e-13
3.79872e-15 -1.81888e-14 8.99485e-14
8.90074e-16 5.06752e-15 -1.9634e-14
-2.75714e-15 2.53366e-14 -8.03125e-14
-3.84648e-16 3.70491e-14 9.33837e-14
2.22132e-15 -1.03682e-14 -1.76838e-13
2.36842e-14 -4.02459e-14 1.90902e-13
8.79317e-05 -0.00329093 4.86282e-05
-7.09389e-15 -4.06738e-14 1.57633e-13
1.35915e-15 -1.6008e-14 -2.28066e-14
-4.07101e-16 1.19615e-14 -4.36765e-14
0.00140289 -0.00836185 0.0144993

VECTORS force float
0.0 0.0 0.0
-6.04861e-19 3.25115e-19 -6.77626e-21
1.60638e-21 0.0 0.0
1.25731e-22 -1.98523e-23 0.0
-2.56426e-23 3.30872e-24 0.0
1.29702e-21 1.05879e-22 2.11758e-22
7.94093e-23 4.76456e-22 -1.69407e-21
-2.42728e-20 1.58025e-20 0.0
7.0574e-09 -2.13789e-08 2.38428e-08
-1.41613e-21 3.17637e-22 0.0
-8.83495e-20 1.8423e-20 6.35275e-21
-1.2047e-08 -1.35387e-08 2.2347e-08
-1.35261e-20 3.1499e-21 -1.27055e-21
-7.94093e-23 -4.49986e-22 -1.48231e-21
1.98689e-21 0.0 0.0
0.0 1.74701e-21 4.23516e-22
1.40118e-19 3.764e-20 -2.0117e-20
1.59322e-19 -2.9527e-20 1.79995e-20
-1.85288e-22 1.05879e-22 0.0
-2.64698e-22 -5.29396e-23 2.11758e-22
0.0 -1.05879e-22 0.0
-9.92617e-22 -3.70577e-22 0.0
0.0 2.11758e-22 0.0
5.9557e-23 0.0 -1.05879e-22
-4.46678e-22 3.44107e-22 0.0
-1.43334e-20 -1.69407e-21 2.11758e-22
-9.39412e-20 -4.2881e-21 -4.02341e-21
3.97047e-23 0.0 -4.23516e-22
2.22936e-09 -1.78869e-08 1.13688e-08
-2.58362e-09 -1.17571e-08 -1.92454e-10
-6.88214e-22 5.29396e-23 0.0
3.04402e-22 0.0 0.0
1.32349e-22 -5.29396e-23 4.23516e-22
3.1102e-20 1.64113e-19 3.3246e-20
1.03034e-19 1.41349e-20 1.48231e-21
0.0 0.0 0.0
0.0 -7.94093e-23 0.0
-1.17129e-21 -1.03232e-21 0.0
0.0 0.0 0.0
-1.32349e-23 0.0 0.0
5.29396e-23 -4.24943e-21 0.0
-1.87935e-21 3.29549e-21 2.11758e-22
5.52623e-19 3.03608e-19 -4.02341e-21
-8.47033e-22 0.0 0.0
2.64698e-22 0.0 0.0
2.56757e-21 -2.11758e-22 -4.23516e-22
0.0 0.0 0.0
1.28312e-20 5.29396e-23 -6.35275e-22
-8.25328e-20 3.12343e-20 -1.37643e-20
2.64698e-23 5.29396e-23 0.0
6.61744e-24 -2.64698e-23 0.0
3.30872e-23 0.0 0.0
0.0 0.0 0.0
-6.98675e-11 -3.43158e-09 -9.33804e-09
5.41307e-21 1.73112e-20 -1.27055e-21
-9.26442e-21 -9.44971e-21 -1.90582e-21
1.58819e-22 2.11758e-22 -2.11758e-22
5.87051e-11 -1.84779e-08 -1.59171e-09
1.03894e-21 1.85288e-22 -2.11758e-22
1.47238e-22 0.0 2.11758e-22
-9.26442e-23 0.0 0.0
6.61744e-23 0.0 0.0
2.51463e-22 1.05879e-22 0.0
1.71392e-20 1.28643e-20 4.23516e-21
5.97026e-20 -1.79995e-20 -9.52912e-21
-5.55865e-22 -4.20869e-21 6.35275e-22
-2.88521e-21 4.23516e-22 -2.11758e-22
0.0 0.0 0.0
0.0 0.0 0.0
-2.64698e-23 -7.94093e-23 0.0
-7.87476e-21 -4.87044e-21 -1.27055e-21
3.04034e-05 -1.66484e-06 -8.12715e-08
0.0 0.0 0.0
-5.17613e-06 1.34258e-05 5.43785e-06
-2.65757e-20 -1.00585e-21 1.05879e-21
-1.32349e-23 0.0 -2.11758e-22
-1.56833e-21 1.45584e-22 0.0
5.02529e-20 1.09585e-20 8.47033e-22
-2.77933e-22 0.0 0.0
2.66273e-19 6.12511e-20 9.31736e-21
-5.02843e-21 0.0 2.11758e-22
3.19226e-20 1.52201e-21 2.11758e-22
-4.02341e-21 -5.77041e-21 -6.35275e-22
3.17132e-08 1.11189e-07 -1.56112e-08
-2.39552e-20 4.76456e-22 -8.47033e-22
1.05879e-22 2.11758e-22 0.0
-1.66263e-21 -1.58819e-22 0.0
-3.53346e-09 -2.2663e-09 2.9361e-08
