# vtk DataFile Version 3.0
LIGGGHTS particles timestep 9800000
ASCII
DATASET POLYDATA
POINTS 130 float
0.0176308 0.0218945 0.0159523
0.0235992 0.0150748 0.014987
0.0314616 0.0155127 0.00906533
0.0212494 0.022277 0.00868705
0.0171357 0.0206655 0.0156416
0.0325839 0.0199883 0.00742383
0.0427538 0.0186075 0.0058732
0.0185057 0.0240561 0.0125527
0.0187278 0.021821 0.015006
0.0197908 0.0146127 0.0120181
0.020951 0.024005 0.0126073
0.08261 0.0191091 0.00590955
0.0134273 0.0215948 0.0160996
0.0184996 0.0139472 0.0142782
0.0203885 0.0151029 0.0135675
0.0194642 0.0149456 0.0132228
0.0422303 0.0177762 0.006064
0.0168653 -0.014626 0.034148
0.0317127 0.0162218 0.00827611
0.0229333 0.0219189 0.0149138
0.0224017 0.0228056 0.0138918
0.0152597 0.0225795 0.0154183
0.0210069 0.0145988 0.0142743
0.0263584 0.0188404 0.00719934
0.0294109 0.0190011 0.0158121
0.0284955 0.0224972 0.0139717
0.0333879 0.0228959 0.00949359
0.0307468 0.0148669 0.0120577
0.0198452 0.022463 0.0159803
0.0291504 0.0200263 0.0156921
0.0341744 0.0231254 0.0129232
0.030531 0.0156392 0.0142114
0.0232952 0.0226947 0.014054
0.0173253 0.0230546 0.0134389
0.0220075 0.0233499 0.0121259
0.0232683 0.0209983 0.0155007
0.0310259 0.0148339 0.0106863
0.028721 0.0218429 0.0147616
0.0197931 0.016616 0.00793352
0.0319355 0.0172426 0.00756403
0.0175613 0.0157843 0.0156694
0.0193275 0.0138373 0.0134853
0.0243952 0.0152385 0.0134817
0.0308972 0.0147822 0.0113822
0.0191253 0.0161152 0.0148429
0.0332169 0.0222711 0.00861362
0.0164558 0.022912 0.0138828
0.0179467 0.016839 0.0153594
0.0197457 0.0243871 0.013813
0.0323264 0.0187531 0.00725691
0.0241479 0.0160633 0.0147956
0.017565 0.0141533 0.0146335
0.0172138 0.0240691 0.0144515
0.0177503 0.0218864 0.0149595
0.0182199 0.0157847 0.0145591
0.018751 0.0147187 0.0125613
0.0298187 0.0170648 0.0153387
0.0144143 0.0229632 0.0150346
0.0286258 0.0183498 0.00592583
0.03033 0.0153175 0.013577
0.0171787 0.0142377 0.0136972
0.0202581 0.0139412 0.0138768
0.0179373 0.0233346 0.0126308
0.0180964 0.0210877 0.0154585
0.0170415 0.0149779 0.0148562
0.0330235 0.0216389 0.0080301
0.0246746 0.0180592 0.0158307
0.0201314 0.0158286 0.014589
0.0207155 0.0151599 0.0150499
0.032768 0.0209206 0.00764933
0.0312113 -0.00743521 0.0320251
0.0251445 0.0194574 0.0159406
0.0160217 0.0239125 0.0146467
0.020481 0.0239397 0.0134218
0.017379 0.0240341 0.0130338
0.0148689 0.0159659 0.0157566
0.0202313 0.0184665 0.00722993
0.0184338 0.0152092 0.0137535
0.0184361 0.0142835 0.0133739
0.0253612 0.0173997 0.0161368
0.0206276 0.0178052 0.00736289
0.0188464 0.0241663 0.0134752
0.0161784 0.014389 0.0139082
0.0180663 0.0149614 0.0152278
0.0175646 0.0225541 0.0142553
0.0474618 0.0192773 0.00593797
0.0219147 0.02333 0.0108141
0.027135 0.018949 0.00717381
0.0198847 0.0146671 0.0144878
0.0207482 0.020759 0.00758524
0.0162577 0.0232397 0.0129671
0.0238714 0.019698 0.0158993
0.0179818 0.0238926 0.0138589
0.0272644 0.022514 0.00891052
0.0193312 0.0154581 0.0141177
0.0281198 0.0232334 0.0127257
0.0170276 0.0234359 0.0122374
0.0585019 0.0190661 0.00583452
0.0219174 0.0143998 0.0139116
0.0162516 0.0228362 0.0152738
0.0139077 0.0223259 0.0156153
0.0240027 0.0220247 0.0148073
0.0266774 0.0204737 0.00745091
0.025081 0.0149127 0.0103922
0.0191709 0.015014 0.0100979
0.0259688 0.0173878 0.00752324
0.0237363 0.021086 0.00756765
0.0197388 0.0160587 0.00845551
0.0210987 0.01416 0.013379
0.0183065 0.023032 0.0134937
0.018527 0.0230391 0.0145645
0.019958 0.0173158 0.00754931
0.0168694 0.0215453 0.0152455
0.0152464 0.0233081 0.0146006
0.0237201 0.0177673 0.0157705
0.0212518 0.0199469 0.0166924
0.0227557 0.0230985 0.0132017
0.0213596 0.0228138 0.00937232
0.016718 0.0237862 0.0136483
0.0219672 0.0149358 0.0147543
0.029599 0.0179184 0.0156629
0.020661 0.0144192 0.0124703
0.0278863 0.0233897 0.0114058
0.0275907 0.0232188 0.0102349
0.0188906 0.0147159 0.011596
0.0315237 0.0185201 0.00593899
0.0166739 0.0222493 0.0145786
0.0200631 0.0241107 0.0125015
0.0228741 0.0146589 0.0144352
0.0235001 0.0187704 0.015941

VERTICES 130 260
1 0
1 1
1 2
1 3
1 4
1 5
1 6
1 7
1 8
1 9
1 10
1 11
1 12
1 13
1 14
1 15
1 16
1 17
1 18
1 19
1 20
1 21
1 22
1 23
1 24
1 25
1 26
1 27
1 28
1 29
1 30
1 31
1 32
1 33
1 34
1 35
1 36
1 37
1 38
1 39
1 40
1 41
1 42
1 43
1 44
1 45
1 46
1 47
1 48
1 49
1 50
1 51
1 52
1 53
1 54
1 55
1 56
1 57
1 58
1 59
1 60
1 61
1 62
1 63
1 64
1 65
1 66
1 67
1 68
1 69
1 70
1 71
1 72
1 73
1 74
1 75
1 76
1 77
1 78
1 79
1 80
1 81
1 82
1 83
1 84
1 85
1 86
1 87
1 88
1 89
1 90
1 91
1 92
1 93
1 94
1 95
1 96
1 97
1 98
1 99
1 100
1 101
1 102
1 103
1 104
1 105
1 106
1 107
1 108
1 109
1 110
1 111
1 112
1 113
1 114
1 115
1 116
1 117
1 118
1 119
1 120
1 121
1 122
1 123
1 124
1 125
1 126
1 127
1 128
1 129

POINT_DATA 130
SCALARS id int 1
LOOKUP_TABLE default
1
2
3
4
6
8
9
13
14
15
17
18
19
20
26
28
32
33
34
36
38
40
42
46
48
54
56
59
64
65
66
68
70
74
76
82
83
86
88
89
90
91
93
96
98
100
101
106
107
108
109
110
112
113
117
121
124
125
126
127
129
131
132
134
137
142
143
146
147
149
155
156
159
160
161
163
165
169
171
172
174
178
180
182
186
187
189
193
194
195
198
201
209
213
214
215
216
221
223
226
227
229
240
242
243
245
246
254
256
257
258
262
264
268
269
270
271
273
274
275
277
279
280
281
283
291
293
296
297
298

SCALARS type int 1
LOOKUP_TABLE default
1
1
1
1
1
1
1
1
1
1
1
1
1
1
1
1
1
1
1
1
1
1
1
1
1
1
1
1
1
1
1
1
1
1
1
1
1
1
1
1
1
1
1
1
1
1
1
1
1
1
1
1
1
1
1
1
1
1
1
1
1
1
1
1
1
1
1
1
1
1
1
1
1
1
1
1
1
1
1
1
1
1
1
1
1
1
1
1
1
1
1
1
1
1
1
1
1
1
1
1
1
1
1
1
1
1
1
1
1
1
1
1
1
1
1
1
1
1
1
1
1
1
1
1
1
1
1
1
1
1

SCALARS radius float 1
LOOKUP_TABLE default
0.0005
0.0005
0.0005
0.0005
0.0005
0.0005
0.0005
0.0005
0.0005
0.0005
0.0005
0.0005
0.0005
0.0005
0.0005
0.0005
0.0005
0.0005
0.0005
0.0005
0.0005
0.0005
0.0005
0.0005
0.0005
0.0005
0.0005
0.0005
0.0005
0.0005
0.0005
0.0005
0.0005
0.0005
0.0005
0.0005
0.0005
0.0005
0.0005
0.0005
0.0005
0.0005
0.0005
0.0005
0.0005
0.0005
0.0005
0.0005
0.0005
0.0005
0.0005
0.0005
0.0005
0.0005
0.0005
0.0005
0.0005
0.0005
0.0005
0.0005
0.0005
0.0005
0.0005
0.0005
0.0005
0.0005
0.0005
0.0005
0.0005
0.0005
0.0005
0.0005
0.0005
0.0005
0.0005
0.0005
0.0005
0.0005
0.0005
0.0005
0.0005
0.0005
0.0005
0.0005
0.0005
0.0005
0.0005
0.0005
0.0005
0.0005
0.0005
0.0005
0.0005
0.0005
0.0005
0.0005
0.0005
0.0005
0.0005
0.0005
0.0005
0.0005
0.0005
0.0005
0.0005
0.0005
0.0005
0.0005
0.0005
0.0005
0.0005
0.0005
0.0005
0.0005
0.0005
0.0005
0.0005
0.0005
0.0005
0.0005
0.0005
0.0005
0.0005
0.0005
0.0005
0.0005
0.0005
0.0005
0.0005
0.0005

SCALARS mass float 1
LOOKUP_TABLE default
1.46608e-07
1.46608e-07
1.46608e-07
1.46608e-07
1.46608e-07
1.46608e-07
1.46608e-07
1.46608e-07
1.46608e-07
1.46608e-07
1.46608e-07
1.46608e-07
1.46608e-07
1.46608e-07
1.46608e-07
1.46608e-07
1.46608e-07
1.46608e-07
1.46608e-07
1.46608e-07
1.46608e-07
1.46608e-07
1.46608e-07
1.46608e-07
1.46608e-07
1.46608e-07
1.46608e-07
1.46608e-07
1.46608e-07
1.46608e-07
1.46608e-07
1.46608e-07
1.46608e-07
1.46608e-07
1.46608e-07
1.46608e-07
1.46608e-07
1.46608e-07
1.46608e-07
1.46608e-07
1.46608e-07
1.46608e-07
1.46608e-07
1.46608e-07
1.46608e-07
1.46608e-07
1.46608e-07
1.46608e-07
1.46608e-07
1.46608e-07
1.46608e-07
1.46608e-07
1.46608e-07
1.46608e-07
1.46608e-07
1.46608e-07
1.46608e-07
1.46608e-07
1.46608e-07
1.46608e-07
1.46608e-07
1.46608e-07
1.46608e-07
1.46608e-07
1.46608e-07
1.46608e-07
1.46608e-07
1.46608e-07
1.46608e-07
1.46608e-07
1.46608e-07
1.46608e-07
1.46608e-07
1.46608e-07
1.46608e-07
1.46608e-07
1.46608e-07
1.46608e-07
1.46608e-07
1.46608e-07
1.46608e-07
1.46608e-07
1.46608e-07
1.46608e-07
1.46608e-07
1.46608e-07
1.46608e-07
1.46608e-07
1.46608e-07
1.46608e-07
1.46608e-07
1.46608e-07
1.46608e-07
1.46608e-07
1.46608e-07
1.46608e-07
1.46608e-07
1.46608e-07
1.46608e-07
1.46608e-07
1.46608e-07
1.46608e-07
1.46608e-07
1.46608e-07
1.46608e-07
1.46608e-07
1.46608e-07
1.46608e-07
1.46608e-07
1.46608e-07
1.46608e-07
1.46608e-07
1.46608e-07
1.46608e-07
1.46608e-07
1.46608e-07
1.46608e-07
1.46608e-07
1.46608e-07
1.46608e-07
1.46608e-07
1.46608e-07
1.46608e-07
1.46608e-07
1.46608e-07
1.46608e-07
1.46608e-07
1.46608e-07
1.46608e-07
1.46608e-07

VECTORS velocity float
-0.016186 0.00880966 -0.00767795
-0.00218287 -0.00205236 -0.00142787
0.00116933 -0.00997277 0.0144605
-0.000223719 -0.011188 -0.0113078
0.00412351 0.00833879 -0.00274666
0.00189939 -0.0175126 -0.00296856
1.89975e-15 -5.83409e-15 -3.18966e-14
-0.00123982 3.57775e-05 -0.000102366
0.00107369 0.0153379 -0.0114585
-0.00215901 0.000318466 0.031093
-0.0008394 0.00135394 -0.00157003
-1.79848e-14 -5.03712e-14 2.16974e-13
9.48315e-05 -0.00162103 -0.00189364
0.000102773 0.0112948 0.0234362
-0.000565276 0.0103988 0.0207275
-0.0014814 0.0117481 0.021113
-1.24812e-14 -4.21998e-14 -1.20801e-13
-0.065855 -0.182842 -0.576895
0.00035437 -0.0146555 0.0136822
-0.00250636 0.0307237 -0.0274436
0.00242316 0.00731274 -0.0126638
-0.00835878 0.00235745 -0.00493574
3.48313e-05 0.000156556 0.00216027
0.000957296 -0.0174373 0.000666026
-0.309602 -0.0496593 -0.0303511
3.099e-05 0.013629 -0.0177539
0.000247216 -0.00957285 -0.0188604
0.00197181 0.00447416 0.0156625
0.137343 -0.0636971 0.0534064
0.000351716 0.0198666 -0.00511347
0.000130502 0.00769193 -0.0207844
0.000480156 0.0049782 0.00881827
6.24747e-06 -0.000778963 0.0010334
0.00300734 0.00437255 -0.00532573
0.000262147 0.00340172 -0.0211313
8.73837e-11 0.0184186 -0.00909884
0.0024723 -0.00292342 -0.0011476
0.000461623 0.0144234 -0.0132792
0.00198208 -0.0124965 0.00707363
0.000416842 -0.0190866 0.00846297
-0.00148569 -0.0149077 -0.0515383
-0.00446885 -0.0131282 -0.030098
0.00091454 0.00833577 0.0161057
0.00251357 0.000618071 0.010341
0.00645093 0.0171049 0.0148987
0.000966694 -0.0124278 -0.0134658
0.00352555 0.000539057 -0.00506041
0.00208498 0.0120393 0.0064174
-0.00042915 0.00104312 -0.000795264
0.000546379 -0.0219533 -0.00102369
0.00390691 0.00344679 0.00205946
-0.0273961 -0.0028265 -0.0207148
-0.000230943 0.000110654 3.42871e-05
0.00136979 0.0075684 -0.00530503
-0.00461545 -0.00836364 0.0555484
-0.00115916 0.00405686 0.0233776
0.00029751 0.0185906 0.0105304
2.97841e-05 -0.000241754 -0.000351746
-1.94459e-14 1.83728e-16 -2.28119e-13
0.000486661 0.00842036 0.0173656
0.00941314 -0.029658 -0.0504403
-0.00675729 -0.0135107 -0.0135691
-0.00161213 0.00254964 -0.00492565
0.00460633 0.0142397 -0.00774271
-0.0111449 0.00255446 0.00256066
0.00151837 -0.0119064 -0.00942815
0.000892866 0.0191875 0.00446945
-0.000367533 0.0157321 0.0157017
0.0148894 0.0161026 -0.00455162
0.00100729 -0.016469 -0.00646789
0.0247322 -0.151553 -0.570705
-3.14469e-09 0.020501 -0.00193889
-9.21928e-06 7.93516e-05 1.03831e-05
-0.00135814 0.00343119 -0.00146893
0.000126623 0.000512271 -5.83971e-05
-0.0013827 -0.0276564 -0.0158202
0.000920421 -0.0200134 0.00151658
0.00039498 0.0110365 0.0186629
-0.000393542 0.00914112 0.0241883
-0.00803736 0.000386534 -0.0160049
0.000887144 -0.0156885 0.00440228
-0.000909263 0.00121255 -0.000756299
0.00238693 0.000103941 -5.31189e-05
-0.0177758 -0.105002 0.128025
0.000969791 0.00505592 -0.00552856
4.78214e-15 -1.01801e-14 -1.05705e-13
3.75337e-05 -0.00359755 -0.0198344
0.000888823 -0.00165518 0.000434717
0.00589254 0.0297843 -0.0544983
0.00039084 -0.0189261 -0.00821879
0.00420338 0.00175768 -0.0039754
0.000216836 0.0209032 -0.00298011
-0.000430143 0.000718925 -8.19403e-05
0.00147491 -0.00914052 -0.0105951
0.000305312 0.0129437 0.0173299
0.00114517 0.00549908 -0.0151927
-0.00103657 0.00140186 0.000104536
1.13053e-14 -2.34757e-14 -2.88773e-13
-0.000897087 3.0118e-05 -0.00149481
0.0193585 -0.0410078 0.0367428
-0.000203952 -0.000958482 -0.00124917
-0.0104679 0.0106193 -0.00890232
0.000112934 -0.0198924 -0.00718824
-0.00012556 -0.00610018 0.0206793
0.00147163 -0.00780526 0.0230524
0.000855186 -0.0161244 0.00682173
0.000717328 -0.0172815 -0.00960354
0.000738227 -0.0124152 0.0142673
-0.000661516 -0.000923016 -0.00114953
0.00370054 0.00437533 -0.0047245
-0.0155868 0.0245303 -0.0323217
0.0011476 -0.0101603 0.00450224
0.00409234 0.00326446 -0.00178275
3.22273e-05 0.000233907 -3.74452e-05
0.000410198 0.020416 0.00617412
-7.47129e-10 0.0244151 -0.00440155
0.00319999 0.00134973 -0.0127022
0.00216138 -0.000904434 -0.00531959
0.000679594 0.00129463 -0.000343351
-0.00164798 -3.49272e-05 -0.000764632
0.000276773 0.0200467 0.00556638
-0.000480613 0.00239577 0.0276018
0.000207258 0.00027184 -0.0217096
0.00067974 -0.00470173 -0.0130757
0.000165318 -0.00271376 0.0254258
7.97747e-15 -2.70921e-14 -6.66221e-14
0.00364829 0.00247995 -0.00246271
0.000375401 0.0026221 0.000755313
-0.00316269 -0.00016166 -0.00515473
0.000425623 0.0210187 0.00144616

VECTORS force float
0.0 0.0 -1.43822e-06
-9.4352e-08 -8.8567e-08 -6.1834e-08
-5.1645e-09 2.5955e-08 2.06327e-08
2.73876e-07 -1.0327e-06 -6.7891e-07
-2.66692e-07 1.22432e-06 -5.04371e-07
-9.50734e-09 -6.43288e-09 8.22197e-10
9.08708e-20 2.95403e-20 0.0
7.52122e-07 3.23501e-07 1.0483e-06
1.788e-06 -2.06965e-06 -2.77051e-07
-4.15211e-07 -1.86261e-06 2.00665e-07
4.26303e-08 3.06323e-08 2.33233e-08
3.60611e-19 -3.89635e-20 1.88465e-20
-2.52428e-08 1.26317e-09 -2.64284e-09
1.84794e-06 9.70632e-07 1.38381e-06
-2.59369e-07 4.72522e-07 4.6512e-06
3.71142e-06 7.84539e-07 8.68436e-07
-1.47701e-20 -1.32878e-20 4.02341e-21
0.0 0.0 -1.43822e-06
-3.19587e-09 -2.35878e-09 1.62645e-08
-5.7292e-08 2.38261e-07 -4.25443e-07
2.20316e-07 -1.2676e-06 2.30849e-06
9.21449e-06 6.38136e-05 1.77135e-05
-3.77307e-09 -6.66329e-08 -1.29586e-06
-2.79288e-06 -1.45387e-05 3.23906e-06
-0.03969 -0.00769332 -0.00289466
-1.97219e-09 -6.68302e-09 -9.70416e-09
-3.78084e-10 -1.21661e-08 -2.33975e-10
-1.8666e-08 3.18656e-08 6.53572e-08
0.0 0.0 -1.43822e-06
-1.6535e-09 4.55296e-09 -1.18552e-08
-1.42392e-09 -5.76869e-09 -1.64992e-08
3.42594e-09 -6.33563e-10 -1.26706e-08
4.41698e-07 -2.04045e-07 -6.98526e-07
4.4586e-07 1.49062e-06 -3.27058e-06
-3.51383e-09 -8.11947e-09 -1.05388e-08
-1.76629e-13 -6.15328e-09 -1.22138e-08
3.62673e-09 5.63154e-08 -3.57804e-08
-3.12937e-09 2.94419e-09 -1.74717e-08
7.99132e-07 3.89562e-06 -4.43554e-06
-3.2132e-10 -6.99851e-10 1.22511e-08
0.0 0.0 -1.43822e-06
0.0 0.0 -1.43822e-06
3.16841e-07 1.00431e-06 1.89599e-06
-1.09353e-08 -1.47261e-08 6.90685e-08
-3.07962e-07 -5.06672e-07 -6.28512e-07
-6.6588e-08 5.17113e-08 -3.2476e-08
-1.23533e-06 -2.59393e-06 -5.02454e-06
1.52797e-09 -4.87915e-09 -6.78142e-09
1.72056e-06 1.17035e-06 -4.13507e-07
2.1313e-08 7.06656e-08 1.5638e-08
-6.80743e-10 -6.28818e-09 1.017e-08
0.0 0.0 -1.43822e-06
9.38663e-07 2.11329e-06 -1.72362e-06
5.21726e-06 -1.69724e-06 -4.84642e-07
0.0 0.0 -1.43822e-06
1.77319e-06 4.24046e-07 7.9259e-07
-6.56525e-09 4.56255e-09 -7.59674e-09
-2.21091e-08 -3.14615e-09 3.27433e-08
2.64698e-23 1.88372e-20 0.0
-3.82917e-09 5.19537e-09 -1.14617e-08
0.0 0.0 -1.43822e-06
0.0 0.0 -1.43822e-06
2.91343e-06 4.46637e-07 -3.80794e-06
-3.40611e-07 6.72831e-07 -3.08348e-07
1.46933e-07 -3.84598e-07 -4.28482e-07
1.20076e-08 -1.8533e-07 -9.78081e-08
-5.32024e-09 1.88746e-08 -8.79843e-09
7.58607e-10 -5.94063e-07 1.08691e-06
0.0 0.0 -1.43822e-06
8.26051e-08 1.36097e-08 2.75364e-08
0.0 0.0 -1.43822e-06
-3.58185e-16 -1.4773e-09 -1.562e-08
-4.71294e-08 7.1838e-08 -1.29092e-07
9.38214e-07 4.55406e-08 4.21925e-08
4.48414e-07 -1.41905e-06 8.62602e-07
-1.61259e-08 -1.17505e-07 6.68463e-09
7.51435e-08 6.76052e-07 -5.45188e-08
-2.26495e-07 -8.06288e-08 -1.62279e-06
4.13794e-08 6.42529e-07 1.03641e-06
-1.21319e-07 -1.54669e-08 -2.30929e-07
1.91765e-07 -4.59087e-07 -1.88956e-07
7.08817e-06 4.79351e-06 4.27879e-06
-5.13991e-08 -4.15294e-07 -7.76652e-07
0.0 0.0 -1.43822e-06
-8.57344e-07 4.58443e-07 1.03322e-06
-1.01167e-19 -3.09432e-20 -1.69407e-21
-4.74515e-10 -1.01162e-08 -4.68384e-09
-8.21204e-06 -4.00188e-06 4.39144e-07
0.0 0.0 -1.43822e-06
-3.65862e-09 -1.26996e-08 6.06732e-09
-2.47252e-07 1.31394e-07 -3.87292e-07
-3.04789e-10 -1.18466e-09 -1.4575e-08
8.11098e-06 2.43345e-06 6.40927e-06
-5.87062e-09 -3.3647e-08 -2.59965e-08
-1.36415e-06 -1.56999e-06 -1.32459e-06
3.94302e-09 -2.13876e-08 1.33342e-08
1.48985e-06 -1.07315e-06 -3.28417e-06
-1.8509e-20 -8.32475e-21 0.0
-2.88872e-07 8.00132e-07 1.17984e-06
0.0 0.0 -1.43822e-06
-6.99566e-08 2.97536e-10 4.07838e-08
-2.0974e-09 -6.81442e-10 -4.17227e-09
-5.27637e-10 -8.68758e-09 8.85035e-09
7.50873e-09 8.03864e-09 5.36937e-09
-1.98688e-08 -2.78806e-08 -5.21735e-08
-7.69268e-10 -2.034e-08 3.02512e-08
-6.96453e-10 -4.88376e-09 1.01931e-08
-8.08842e-07 1.58028e-06 -1.43186e-06
-4.93599e-07 -6.23203e-07 1.66188e-06
1.29409e-06 2.00555e-06 -3.86306e-06
0.0 0.0 -1.43822e-06
4.48441e-07 -2.09067e-06 5.63616e-07
2.03536e-06 -1.11704e-06 -3.51245e-06
3.97812e-09 3.4791e-09 1.59979e-08
-3.5072e-10 6.24996e-09 -1.46755e-08
-1.88455e-13 -3.15997e-09 -1.66323e-08
3.96605e-07 -7.10843e-07 3.43496e-06
-2.53345e-07 -3.22346e-07 -6.42013e-07
-2.67959e-06 -1.86945e-06 1.91076e-06
-8.096e-08 8.24513e-07 7.65624e-08
2.21545e-08 -3.80607e-09 -1.17575e-08
1.28997e-06 -1.52241e-06 1.78462e-06
-5.18182e-11 -1.08974e-08 -4.80797e-09
2.40981e-09 -3.44265e-08 -4.35275e-08
1.89799e-08 -1.03414e-07 -1.62174e-08
-4.76456e-22 2.85874e-21 -1.48231e-21
-1.55124e-07 1.04091e-06 -9.40218e-07
2.06338e-08 -4.37843e-08 1.5454e-07
-1.83659e-07 5.30994e-08 -4.04676e-07
-1.58651e-10 1.86874e-09 -1.44275e-08
