# vtk DataFile Version 3.0
LIGGGHTS particles timestep 17600000
ASCII
DATASET POLYDATA
POINTS 89 float
0.0400553 0.017968 0.00612374
0.0214436 0.0143164 0.0134892
0.0402273 0.0158134 0.00871408
0.0413815 0.0202068 0.00732458
0.0436892 0.020408 0.00596775
0.0241384 0.022878 0.00948585
0.08261 0.0191091 0.00590955
0.103453 0.0178822 0.00580682
0.0299983 0.0225292 0.00894818
0.0458019 0.0165106 0.00631547
0.0404923 0.016523 0.00801861
0.0311182 0.0225656 0.013868
0.0330073 0.0155125 0.0139564
0.0369627 0.0231064 0.0129687
0.0357899 0.0220232 0.00838075
0.0424052 0.0233186 0.0107663
0.0394788 0.0148078 0.011812
0.0170063 0.0201419 0.00601043
0.0365217 0.0233732 0.0112486
0.0426013 0.0234055 0.0116354
0.0381774 0.0187567 0.0157055
0.0314065 0.021869 0.0147808
0.0187709 0.0143519 0.0138724
0.0208921 0.02304 0.0134624
0.0399859 0.0151099 0.00975741
0.0362258 0.0229994 0.009838
0.0205096 0.0140335 0.0132163
0.0408646 0.0181473 0.0072922
0.023431 0.020325 0.00758928
0.0319345 0.0196322 0.0157676
0.0397753 0.0148675 0.0106525
0.0422047 0.0229758 0.00984465
0.0439974 0.0161245 0.00657288
0.0302761 0.0231349 0.0100712
0.0410792 0.01908 0.00716737
0.0321384 0.0187874 0.015809
0.0269806 0.0156066 0.0140896
0.0276765 0.0147414 0.011071
0.0282731 0.0158695 0.0085948
0.0378937 0.0198301 0.0157199
0.0254425 0.0215654 0.0149038
0.0286258 0.0183498 0.00592583
0.0391775 0.0151745 0.0132756
0.0200859 0.0234825 0.0118168
0.0292185 0.0195789 0.00725073
0.029003 0.0187364 0.00719201
0.0238481 0.015871 0.00696463
0.041942 0.0224358 0.00878388
0.019972 0.0198848 0.0158794
0.0416543 0.0215443 0.00798703
0.0651534 0.0184728 0.00578214
0.0306402 0.0233742 0.0117662
0.019514 0.0227625 0.013976
0.0232117 0.0195197 0.00721863
0.0239186 0.0223262 0.00886579
0.0220621 0.0152727 0.00941329
0.102423 0.0196788 0.00582979
0.0280044 0.0152111 0.00959456
0.379816 0.0218995 0.0134365
0.0211421 0.0152267 0.0137727
0.0221935 0.0149191 0.0131825
0.0440291 0.0170649 0.00623435
0.028779 0.0177459 0.00739279
0.0339957 0.0151607 0.00966502
0.0355584 0.0214031 0.00792486
0.0580541 0.0173356 0.00595763
0.0316719 0.0208398 0.0153437
0.0184864 0.0233543 0.0111119
0.0189508 0.0235767 0.0120239
0.0216626 0.0194308 0.0059059
0.0337779 0.014926 0.0106872
0.0325129 0.0171098 0.0153329
0.0327525 0.0161966 0.0147157
0.0242602 0.0201274 0.00583803
0.0172836 0.0146398 0.0120414
0.0195365 0.0139876 0.012991
0.020058 0.0232964 0.0128218
0.026571 0.016805 0.0151242
0.0185365 0.0140033 0.0129649
0.0216548 0.0147504 0.0111863
0.0377467 0.0203937 0.0155916
0.0214149 0.0147364 0.0125822
0.0353366 0.02017 0.00750142
0.0348238 0.018066 0.00731145
0.0285272 0.0165997 0.00792571
0.03293 0.0193179 0.00575787
0.0212012 0.0239629 0.0132339
0.0205213 0.0222181 0.0146402
0.025712 0.0206042 0.0155739

VERTICES 89 178
1 0
1 1
1 2
1 3
1 4
1 5
1 6
1 7
1 8
1 9
1 10
1 11
1 12
1 13
1 14
1 15
1 16
1 17
1 18
1 19
1 20
1 21
1 22
1 23
1 24
1 25
1 26
1 27
1 28
1 29
1 30
1 31
1 32
1 33
1 34
1 35
1 36
1 37
1 38
1 39
1 40
1 41
1 42
1 43
1 44
1 45
1 46
1 47
1 48
1 49
1 50
1 51
1 52
1 53
1 54
1 55
1 56
1 57
1 58
1 59
1 60
1 61
1 62
1 63
1 64
1 65
1 66
1 67
1 68
1 69
1 70
1 71
1 72
1 73
1 74
1 75
1 76
1 77
1 78
1 79
1 80
1 81
1 82
1 83
1 84
1 85
1 86
1 87
1 88

POINT_DATA 89
SCALARS id int 1
LOOKUP_TABLE default
1
2
3
8
9
14
18
26
28
32
34
38
46
48
54
56
59
64
65
66
68
70
74
82
83
86
88
89
90
93
96
100
106
107
108
109
112
113
121
124
125
126
127
129
132
134
137
142
146
149
159
160
163
165
174
182
187
189
193
195
198
201
209
213
215
221
223
226
227
229
240
242
245
246
256
257
258
270
273
274
277
279
280
281
283
291
293
296
298

SCALARS type int 1
LOOKUP_TABLE default
1
1
1
1
1
1
1
1
1
1
1
1
1
1
1
1
1
1
1
1
1
1
1
1
1
1
1
1
1
1
1
1
1
1
1
1
1
1
1
1
1
1
1
1
1
1
1
1
1
1
1
1
1
1
1
1
1
1
1
1
1
1
1
1
1
1
1
1
1
1
1
1
1
1
1
1
1
1
1
1
1
1
1
1
1
1
1
1
1

SCALARS radius float 1
LOOKUP_TABLE default
0.0005
0.0005
0.0005
0.0005
0.0005
0.0005
0.0005
0.0005
0.0005
0.0005
0.0005
0.0005
0.0005
0.0005
0.0005
0.0005
0.0005
0.0005
0.0005
0.0005
0.0005
0.0005
0.0005
0.0005
0.0005
0.0005
0.0005
0.0005
0.0005
0.0005
0.0005
0.0005
0.0005
0.0005
0.0005
0.0005
0.0005
0.0005
0.0005
0.0005
0.0005
0.0005
0.0005
0.0005
0.0005
0.0005
0.0005
0.0005
0.0005
0.0005
0.0005
0.0005
0.0005
0.0005
0.0005
0.0005
0.0005
0.0005
0.0005
0.0005
0.0005
0.0005
0.0005
0.0005
0.0005
0.0005
0.0005
0.0005
0.0005
0.0005
0.0005
0.0005
0.0005
0.0005
0.0005
0.0005
0.0005
0.0005
0.0005
0.0005
0.0005
0.0005
0.0005
0.0005
0.0005
0.0005
0.0005
0.0005
0.0005

SCALARS mass float 1
LOOKUP_TABLE default
1.46608e-07
1.46608e-07
1.46608e-07
1.46608e-07
1.46608e-07
1.46608e-07
1.46608e-07
1.46608e-07
1.46608e-07
1.46608e-07
1.46608e-07
1.46608e-07
1.46608e-07
1.46608e-07
1.46608e-07
1.46608e-07
1.46608e-07
1.46608e-07
1.46608e-07
1.46608e-07
1.46608e-07
1.46608e-07
1.46608e-07
1.46608e-07
1.46608e-07
1.46608e-07
1.46608e-07
1.46608e-07
1.46608e-07
1.46608e-07
1.46608e-07
1.46608e-07
1.46608e-07
1.46608e-07
1.46608e-07
1.46608e-07
1.46608e-07
1.46608e-07
1.46608e-07
1.46608e-07
1.46608e-07
1.46608e-07
1.46608e-07
1.46608e-07
1.46608e-07
1.46608e-07
1.46608e-07
1.46608e-07
1.46608e-07
1.46608e-07
1.46608e-07
1.46608e-07
1.46608e-07
1.46608e-07
1.46608e-07
1.46608e-07
1.46608e-07
1.46608e-07
1.46608e-07
1.46608e-07
1.46608e-07
1.46608e-07
1.46608e-07
1.46608e-07
1.46608e-07
1.46608e-07
1.46608e-07
1.46608e-07
1.46608e-07
1.46608e-07
1.46608e-07
1.46608e-07
1.46608e-07
1.46608e-07
1.46608e-07
1.46608e-07
1.46608e-07
1.46608e-07
1.46608e-07
1.46608e-07
1.46608e-07
1.46608e-07
1.46608e-07
1.46608e-07
1.46608e-07
1.46608e-07
1.46608e-07
1.46608e-07
1.46608e-07

VECTORS velocity float
-0.00900726 0.0633575 -0.0251664
0.00327341 -0.000646481 0.0053454
0.000355692 -0.0132901 0.0159414
0.000877709 -0.0183686 -0.00436928
2.41434e-15 -2.04477e-14 6.48838e-14
0.0034956 -0.0035136 -0.00307653
-1.79425e-14 -5.0517e-14 2.16944e-13
1.82605e-15 7.49174e-15 2.07276e-13
0.00134928 -0.0059513 -0.00746217
2.39361e-15 1.33714e-14 9.20546e-14
0.00346762 -0.0077675 0.00828327
-0.000478381 0.00908442 -0.0120859
4.65143e-05 0.0119994 0.0193577
0.000348512 0.00715837 -0.0198641
0.00206582 -0.00670006 -0.007098
0.000342314 -0.00279819 -0.0136378
6.01491e-05 0.00106164 0.0217471
1.30214e-14 5.25878e-15 -1.07337e-13
0.000240359 -0.000678214 -0.0216786
0.000618633 0.00145456 -0.0192078
-0.000977841 0.0208929 0.00301118
0.000860999 0.01407 -0.0105251
0.00107092 -0.00214704 0.000909012
-0.00646295 0.00094088 -0.00349329
7.88496e-05 -0.0105915 0.0195925
0.000241102 -0.00837311 -0.0185544
0.000435793 0.000882526 -0.00180764
0.000322742 -0.0194987 0.00477902
-0.00113236 -0.0215134 -0.00817694
0.000731391 0.018903 -0.00361322
0.000580592 -0.00300102 0.0195433
0.000268964 -0.00796913 -0.0199612
-1.57204e-15 2.20988e-14 2.32845e-14
0.00103528 -0.00678718 -0.0169192
0.000191253 -0.0215198 -0.000943759
0.000575825 0.0207374 0.00273484
1.03466 -0.408177 0.46036
0.000560763 -0.00261677 0.020887
0.0015198 -0.00941972 0.0114577
0.00453091 0.00475398 0.00211289
0.000794452 0.0154062 -0.0124835
-1.94458e-14 1.85112e-16 -2.28119e-13
0.00149105 0.00938108 0.017814
-0.00369447 -0.000320948 7.28019e-05
0.000370251 -0.0209153 -0.00300442
0.00153766 -0.0177583 0.00268855
-0.0257761 0.0631293 -0.0154258
0.00146646 -0.00929475 -0.0133837
0.000455213 0.0207433 -0.00409523
0.00025063 -0.0171219 -0.0124135
1.67201e-16 -7.85246e-16 -1.33899e-14
0.000386006 0.00138158 -0.0207546
4.27215e-05 0.0685921 -0.0921964
0.000160902 -0.0166377 -0.00217045
0.00209564 -0.00609617 -0.00604585
0.000116275 -0.0113502 0.0189427
1.52026e-15 2.26653e-15 -1.78441e-14
0.000121715 -0.00909459 0.0188368
-0.318357 0.175838 -0.235538
0.00444515 0.00142464 0.000785292
0.00634627 0.00186345 0.00448087
-1.84801e-15 5.33791e-15 2.93365e-14
0.000298058 -0.0208159 0.0059835
0.00149231 -0.00678306 0.0149531
0.00161779 -0.0134144 -0.00742589
9.18187e-15 -1.90547e-14 -2.34434e-13
-5.22609e-05 0.0195726 -0.00879115
0.00343953 -0.00202679 -0.00807212
0.0235553 -0.00502625 -0.0165727
-0.0248153 0.0341964 0.00438733
1.83864e-06 -0.00224421 0.021439
0.000309187 0.0177626 0.00822626
0.000333856 0.0158452 0.0142525
-1.07559e-14 -1.73446e-15 1.75368e-13
0.000487467 0.000305163 -0.00114142
4.25858e-05 -5.46091e-05 8.7935e-05
-0.00867693 -0.00653022 0.0307048
0.000158645 0.0176543 0.0104831
0.000125957 -0.000261107 0.000439498
0.000620894 -0.00199964 0.0148273
0.000503384 0.00697589 -0.00211532
0.00457479 0.000682983 0.00548018
8.20148e-05 -0.0206671 -0.00556718
0.00106575 -0.0174992 0.00197777
0.000610484 -0.0163099 0.0116221
-8.27359e-15 -4.7452e-14 1.83895e-13
-0.000809236 -0.000420352 -0.00146327
0.000189296 0.0454569 -0.0480142
0.00361761 0.00340684 -0.00455266

VECTORS force float
2.41957e-08 -9.25128e-08 3.72242e-08
-6.29907e-07 -5.89442e-08 -1.11002e-06
-2.90402e-09 2.92706e-09 1.2416e-08
-1.63407e-08 -5.40262e-08 -7.8134e-09
1.0707e-20 -3.91753e-21 -1.48231e-21
4.64062e-08 2.03416e-08 -1.17257e-08
-1.10657e-19 -1.28802e-19 -4.63751e-20
-8.74661e-21 -1.96538e-20 6.35275e-22
-4.23755e-11 2.27238e-08 -6.9919e-09
-5.88953e-22 -4.49986e-22 0.0
-8.6427e-09 -6.41494e-09 -6.74099e-09
-1.81813e-09 8.64699e-10 -6.20767e-09
1.58597e-10 1.07603e-08 -4.9048e-09
-4.18935e-09 -3.60255e-09 -1.18424e-08
-1.28864e-08 1.24471e-08 7.69296e-09
1.26092e-07 6.15342e-07 1.1219e-06
-8.24997e-10 1.14005e-08 3.88814e-09
-9.71441e-21 6.10128e-21 -1.69407e-21
-1.91341e-09 -9.39908e-09 -7.98047e-09
-1.37655e-07 -7.56558e-08 -9.60624e-08
6.34152e-09 1.84599e-08 -3.47259e-08
3.02084e-06 -1.91147e-06 -1.88577e-06
7.64824e-09 -1.14355e-08 -2.28733e-08
5.84759e-09 1.36044e-08 -1.61935e-08
2.80949e-10 9.19945e-09 7.52377e-09
-1.35851e-09 -1.23456e-08 -2.74552e-09
8.81129e-08 1.36611e-07 -2.56546e-07
-3.28969e-09 -8.58739e-09 1.19034e-08
4.19113e-07 -3.05756e-07 -2.69833e-07
-5.88854e-09 1.18912e-08 -1.26187e-08
-3.90807e-09 9.59237e-09 1.36206e-08
-3.16658e-09 -1.16949e-08 1.1352e-09
-3.97047e-23 0.0 0.0
-1.97775e-08 -4.629e-08 -9.76713e-08
-1.10112e-09 -5.52549e-09 1.07045e-08
1.28728e-09 2.80503e-09 -9.2761e-09
-0.0200367 0.00283977 -0.0437577
-5.83413e-09 8.70092e-09 1.53144e-08
3.36163e-09 -1.87351e-08 5.04033e-08
-0.000107933 2.12164e-06 1.41664e-05
-6.33356e-09 4.30143e-09 -1.46031e-08
-5.29396e-23 -1.25241e-20 0.0
-2.56455e-08 -3.86254e-08 8.66188e-09
-9.5336e-06 3.99364e-07 2.55618e-06
5.90513e-08 -6.1849e-09 2.74154e-08
-6.80067e-08 5.80892e-10 5.92681e-08
3.16671e-07 -1.58463e-07 2.03357e-09
6.87224e-09 1.58692e-08 3.74342e-08
-5.99135e-11 -2.77279e-09 -1.55057e-08
-8.12154e-10 -1.08234e-08 5.86781e-09
-1.63782e-21 -4.23516e-22 0.0
-1.81015e-09 -9.56657e-09 -7.67699e-09
0.0 0.0 -1.43822e-06
-1.10692e-06 -1.59423e-06 1.14913e-06
-9.1155e-09 1.63936e-08 -2.75982e-08
-5.58382e-10 4.52551e-09 1.10267e-08
2.74492e-20 -2.35052e-20 -6.35275e-22
-4.62881e-10 6.57657e-09 1.03973e-08
0.0 0.0 -1.43822e-06
6.19621e-08 -9.88488e-08 -7.72028e-08
-7.86392e-07 1.43077e-07 -1.43606e-06
-1.32349e-23 0.0 0.0
-2.79578e-09 -3.48224e-09 1.20747e-08
-6.6545e-09 9.90924e-09 -6.44246e-08
-1.41381e-09 -1.43423e-08 1.86366e-09
-6.61744e-24 0.0 0.0
1.64603e-09 -9.83865e-10 -1.20762e-08
-2.68639e-09 4.00009e-09 -1.01188e-09
0.0 0.0 -1.43822e-06
4.08602e-07 -4.60205e-07 -6.71992e-08
-3.20478e-08 3.04909e-09 8.16034e-08
-2.91323e-09 1.78092e-08 -3.01496e-09
2.17924e-07 -5.89394e-07 -5.53127e-07
7.94093e-23 -8.79789e-21 0.0
-2.04017e-08 -1.37875e-08 4.94631e-08
5.0488e-08 1.2345e-07 -1.96986e-07
0.0 0.0 -1.43822e-06
-4.4118e-10 1.09312e-08 -6.18304e-09
8.46474e-09 -3.45412e-08 1.07923e-08
8.31717e-10 1.03823e-08 1.86638e-09
-1.38643e-05 -8.10382e-06 1.81076e-05
-3.84873e-07 -1.62016e-07 -9.73607e-07
-6.54638e-10 -7.01188e-09 8.80706e-09
2.62574e-09 2.72665e-08 1.33595e-08
-3.76333e-09 -3.15235e-09 1.57301e-08
-4.36751e-22 5.29396e-23 -2.11758e-22
-2.45131e-08 7.74433e-09 9.37882e-09
7.99103e-09 1.15601e-07 -1.04438e-06
1.20716e-10 3.15491e-08 -1.17824e-10
