# vtk DataFile Version 3.0
LIGGGHTS particles timestep 10600000
ASCII
DATASET POLYDATA
POINTS 124 float
0.021616 0.0233558 0.0125209
0.0240001 0.0161582 0.0148763
0.0320767 0.0232467 0.0126032
0.0220844 0.0161624 0.0148807
0.0173973 0.0162713 0.0149758
0.0332109 0.0195739 0.0157746
0.0436892 0.020408 0.00596775
0.0185752 0.0241016 0.0129662
0.0208266 0.0235683 0.0121569
0.024199 0.0199441 0.0349683
0.020898 0.0239968 0.0130983
0.08261 0.0191091 0.00590955
0.01533 0.022903 0.0137156
0.018331 0.0138789 0.013424
0.0230265 0.0164622 0.015121
0.0241489 0.0224492 0.0154929
0.0450541 0.0174935 0.00619215
0.0323787 0.0227747 0.0136559
0.0240181 0.0175087 0.00746297
0.0169121 0.0233001 0.0145992
0.0253741 0.0191139 0.0383524
0.0270041 0.0206828 0.015493
0.0300129 0.0175257 0.00746897
0.0291824 0.015066 0.0100906
0.0342834 0.0154409 0.0137781
0.0313139 0.0227619 0.0092044
0.0226005 0.0144169 0.0145501
0.0297549 0.0166167 0.00793269
0.0350522 0.0149029 0.0104895
0.0308878 0.0212976 0.00776805
0.0244325 0.0194779 0.00719896
0.0197831 0.0240367 0.0123665
0.0234035 0.0153687 0.0092564
0.0168852 0.0156545 0.0143767
0.0318361 0.0233643 0.0115409
0.0294235 0.0154752 0.00912324
0.0183124 0.0231852 0.0147285
0.0326056 0.0218902 0.014747
0.0161043 0.016096 0.0148187
0.0198192 0.014021 0.0129355
0.0257104 0.0233533 0.0108098
0.0316442 0.023271 0.0104083
0.0209808 0.023489 0.0139397
0.0340426 0.0161109 0.0146852
0.0187508 0.0208236 0.00757219
0.0183779 0.0243408 0.013917
0.0231832 0.0232569 0.0147414
0.0329716 0.0206002 0.0154056
0.0259909 0.0233548 0.0121539
0.0191409 0.0143349 0.0137929
0.0167947 0.0142255 0.013479
0.0200455 0.0233195 0.0125088
0.0203267 0.0230747 0.0133773
0.0195525 0.0229197 0.021413
0.030549 0.020064 0.00732951
0.0152269 0.0233014 0.0146271
0.0286258 0.0183498 0.00592583
0.0311025 0.0221529 0.00852292
0.0181933 0.0142745 0.0125147
0.023711 0.0143941 0.0226796
0.0196697 0.0217689 0.00810806
0.0219886 0.0229666 0.0147846
0.0182117 0.0149609 0.0132423
0.0337902 0.0171333 0.0153209
0.0196163 0.0154451 0.0153334
0.0188679 0.022514 0.0185223
0.017405 0.0149344 0.0138324
0.0333756 0.0186579 0.0157541
0.0167244 0.0238735 0.0135655
0.0256538 0.0205507 0.0165437
0.0188073 0.0143577 0.0149991
0.016441 0.0151483 0.0136378
0.0201353 0.0145445 0.0216388
0.0230885 0.0187792 0.0298017
0.0178863 0.0156461 0.0143668
0.0252404 0.0214884 0.0164716
0.0217947 0.017337 0.0156347
0.0198536 0.0243954 0.0134668
0.0174161 0.0146261 0.0119927
0.0166649 0.0147543 0.0126404
0.0474618 0.0192773 0.00593797
0.0224918 0.0150212 0.0133171
0.0275214 0.0181706 0.0157152
0.0209022 0.014098 0.01326
0.021467 0.0146374 0.014407
0.0177873 0.0167352 0.00785283
0.044179 0.0167154 0.00630741
0.0215519 0.0242404 0.0140906
0.0279624 0.0165145 0.0149307
0.0220229 0.0167689 0.0258225
0.02889 0.0147656 0.0111577
0.0187668 0.0199662 0.00728433
0.0585019 0.0190661 0.00583452
0.0232258 0.0156961 0.0144394
0.0201389 0.0143575 0.0138517
0.0145392 0.0225691 0.0142284
0.0307283 0.0166516 0.00660365
0.0277423 0.0173402 0.0153971
0.0262092 0.0230125 0.0131327
0.0242515 0.0205127 0.0175958
0.0267694 0.0213749 0.0150658
0.0242602 0.0201274 0.00583803
0.0121247 0.0235873 0.0294869
0.0227396 0.0160089 0.0177662
0.0200577 0.0234757 0.0116257
0.0195966 0.0147971 0.014569
0.022283 0.015641 0.028189
0.0160649 0.0237452 0.0143099
0.0210629 0.0137504 0.0141838
0.0183439 0.0147693 0.0142146
0.0235558 0.0159228 0.00856948
0.0223062 0.0153575 0.0142403
0.0175861 0.0240499 0.0130956
0.0266936 0.0191238 0.0261862
0.0302709 0.0188148 0.00718287
0.0218704 0.0204857 0.0169359
0.0285695 0.0150622 0.0127377
0.0281096 0.0157692 0.0142911
0.0210318 0.0224661 0.0162417
0.03293 0.0193179 0.00575787
0.0190126 0.0219062 0.00836717
0.0218868 0.023064 0.0137727
0.0191883 0.0237615 0.0138552
0.0176416 0.0236732 0.0140262

VERTICES 124 248
1 0
1 1
1 2
1 3
1 4
1 5
1 6
1 7
1 8
1 9
1 10
1 11
1 12
1 13
1 14
1 15
1 16
1 17
1 18
1 19
1 20
1 21
1 22
1 23
1 24
1 25
1 26
1 27
1 28
1 29
1 30
1 31
1 32
1 33
1 34
1 35
1 36
1 37
1 38
1 39
1 40
1 41
1 42
1 43
1 44
1 45
1 46
1 47
1 48
1 49
1 50
1 51
1 52
1 53
1 54
1 55
1 56
1 57
1 58
1 59
1 60
1 61
1 62
1 63
1 64
1 65
1 66
1 67
1 68
1 69
1 70
1 71
1 72
1 73
1 74
1 75
1 76
1 77
1 78
1 79
1 80
1 81
1 82
1 83
1 84
1 85
1 86
1 87
1 88
1 89
1 90
1 91
1 92
1 93
1 94
1 95
1 96
1 97
1 98
1 99
1 100
1 101
1 102
1 103
1 104
1 105
1 106
1 107
1 108
1 109
1 110
1 111
1 112
1 113
1 114
1 115
1 116
1 117
1 118
1 119
1 120
1 121
1 122
1 123

POINT_DATA 124
SCALARS id int 1
LOOKUP_TABLE default
1
2
3
4
6
8
9
13
14
15
17
18
19
20
26
28
32
34
38
40
42
46
48
54
56
59
64
65
66
68
70
74
76
82
83
86
88
89
90
91
93
96
98
100
101
106
107
108
109
110
112
113
117
121
124
125
126
127
129
131
132
134
137
142
143
146
147
149
159
160
161
163
165
169
171
172
174
178
180
182
187
189
193
194
195
198
201
209
213
214
215
216
221
223
226
227
229
240
242
243
245
246
254
256
257
258
262
268
269
270
271
273
274
275
277
279
280
281
283
291
293
296
297
298

SCALARS type int 1
LOOKUP_TABLE default
1
1
1
1
1
1
1
1
1
1
1
1
1
1
1
1
1
1
1
1
1
1
1
1
1
1
1
1
1
1
1
1
1
1
1
1
1
1
1
1
1
1
1
1
1
1
1
1
1
1
1
1
1
1
1
1
1
1
1
1
1
1
1
1
1
1
1
1
1
1
1
1
1
1
1
1
1
1
1
1
1
1
1
1
1
1
1
1
1
1
1
1
1
1
1
1
1
1
1
1
1
1
1
1
1
1
1
1
1
1
1
1
1
1
1
1
1
1
1
1
1
1
1
1

SCALARS radius float 1
LOOKUP_TABLE default
0.0005
0.0005
0.0005
0.0005
0.0005
0.0005
0.0005
0.0005
0.0005
0.0005
0.0005
0.0005
0.0005
0.0005
0.0005
0.0005
0.0005
0.0005
0.0005
0.0005
0.0005
0.0005
0.0005
0.0005
0.0005
0.0005
0.0005
0.0005
0.0005
0.0005
0.0005
0.0005
0.0005
0.0005
0.0005
0.0005
0.0005
0.0005
0.0005
0.0005
0.0005
0.0005
0.0005
0.0005
0.0005
0.0005
0.0005
0.0005
0.0005
0.0005
0.0005
0.0005
0.0005
0.0005
0.0005
0.0005
0.0005
0.0005
0.0005
0.0005
0.0005
0.0005
0.0005
0.0005
0.0005
0.0005
0.0005
0.0005
0.0005
0.0005
0.0005
0.0005
0.0005
0.0005
0.0005
0.0005
0.0005
0.0005
0.0005
0.0005
0.0005
0.0005
0.0005
0.0005
0.0005
0.0005
0.0005
0.0005
0.0005
0.0005
0.0005
0.0005
0.0005
0.0005
0.0005
0.0005
0.0005
0.0005
0.0005
0.0005
0.0005
0.0005
0.0005
0.0005
0.0005
0.0005
0.0005
0.0005
0.0005
0.0005
0.0005
0.0005
0.0005
0.0005
0.0005
0.0005
0.0005
0.0005
0.0005
0.0005
0.0005
0.0005
0.0005
0.0005

SCALARS mass float 1
LOOKUP_TABLE default
1.46608e-07
1.46608e-07
1.46608e-07
1.46608e-07
1.46608e-07
1.46608e-07
1.46608e-07
1.46608e-07
1.46608e-07
1.46608e-07
1.46608e-07
1.46608e-07
1.46608e-07
1.46608e-07
1.46608e-07
1.46608e-07
1.46608e-07
1.46608e-07
1.46608e-07
1.46608e-07
1.46608e-07
1.46608e-07
1.46608e-07
1.46608e-07
1.46608e-07
1.46608e-07
1.46608e-07
1.46608e-07
1.46608e-07
1.46608e-07
1.46608e-07
1.46608e-07
1.46608e-07
1.46608e-07
1.46608e-07
1.46608e-07
1.46608e-07
1.46608e-07
1.46608e-07
1.46608e-07
1.46608e-07
1.46608e-07
1.46608e-07
1.46608e-07
1.46608e-07
1.46608e-07
1.46608e-07
1.46608e-07
1.46608e-07
1.46608e-07
1.46608e-07
1.46608e-07
1.46608e-07
1.46608e-07
1.46608e-07
1.46608e-07
1.46608e-07
1.46608e-07
1.46608e-07
1.46608e-07
1.46608e-07
1.46608e-07
1.46608e-07
1.46608e-07
1.46608e-07
1.46608e-07
1.46608e-07
1.46608e-07
1.46608e-07
1.46608e-07
1.46608e-07
1.46608e-07
1.46608e-07
1.46608e-07
1.46608e-07
1.46608e-07
1.46608e-07
1.46608e-07
1.46608e-07
1.46608e-07
1.46608e-07
1.46608e-07
1.46608e-07
1.46608e-07
1.46608e-07
1.46608e-07
1.46608e-07
1.46608e-07
1.46608e-07
1.46608e-07
1.46608e-07
1.46608e-07
1.46608e-07
1.46608e-07
1.46608e-07
1.46608e-07
1.46608e-07
1.46608e-07
1.46608e-07
1.46608e-07
1.46608e-07
1.46608e-07
1.46608e-07
1.46608e-07
1.46608e-07
1.46608e-07
1.46608e-07
1.46608e-07
1.46608e-07
1.46608e-07
1.46608e-07
1.46608e-07
1.46608e-07
1.46608e-07
1.46608e-07
1.46608e-07
1.46608e-07
1.46608e-07
1.46608e-07
1.46608e-07
1.46608e-07
1.46608e-07
1.46608e-07
1.46608e-07

VECTORS velocity float
-0.000608566 0.00128887 -0.000341391
0.000308372 0.0107028 0.00860217
0.000812936 0.00488358 -0.017908
0.00159707 0.014307 0.00851131
0.00395968 7.59002e-05 -0.00311109
0.00246947 0.00129032 0.00177669
2.40969e-15 -2.04497e-14 6.48834e-14
3.2581e-05 0.000340605 -0.000265527
0.0041368 0.0080652 -0.0108753
0.286082 -0.272908 2.01074
0.000453589 0.000272158 -0.00114576
-1.76222e-14 -5.07801e-14 2.16909e-13
0.00501483 0.00182501 -0.00360966
-0.000448325 0.00115283 -0.00266507
0.000766085 0.013907 0.0103896
-0.010816 0.00834274 0.00380225
-3.12451e-15 -1.74668e-14 -1.20236e-13
0.000383887 0.0106385 -0.0179543
1.57474e-05 -0.0221666 0.00683506
0.000108319 0.000630075 0.000950761
0.376625 -0.276657 2.31316
0.00121246 0.0123604 -0.00425111
0.000277116 -0.0204686 0.00690148
-0.000633344 -0.00686343 0.0220318
6.34432e-05 0.0112164 0.0192728
0.00114495 -0.00497951 -0.0106836
-0.00353553 0.00286335 -0.00833088
0.000796669 -0.0157079 0.0116732
0.000410522 -0.00432271 0.0198701
0.00308211 0.000251465 -0.000945822
0.00068476 -0.0160014 -0.00218923
-0.000380101 0.00198803 -0.000125849
0.000148364 -0.0097779 0.0172246
0.00386354 0.000152365 -0.00138455
0.000230163 0.000559254 -0.0214803
0.00207896 -0.00836422 0.0136812
-0.0938647 0.021634 -0.0262263
8.58994e-05 0.0184762 -0.01348
0.0046042 0.00164908 0.00116293
-6.18817e-05 -0.000322517 0.0005358
0.000734254 -0.00330873 -0.0182548
0.000633421 -0.00513147 -0.0186739
-0.00071393 0.0015643 -0.00177881
0.000698774 0.0147221 0.0138293
0.000427123 -0.0185568 -0.00793527
-0.000357669 0.000524743 -0.000395933
-0.0137058 0.00422361 -0.00668257
0.00016242 0.019416 -0.00799137
0.000273914 0.00317131 -0.0205999
-0.000530983 0.000104215 -0.000923666
-0.000183086 0.000108555 7.4657e-05
0.00518658 0.00279676 -0.00344817
0.00371498 0.00383986 -0.00526473
-0.162499 -0.05736 0.572459
0.0001808 -0.020273 -0.00486869
-0.000229526 -0.00162989 -0.00229155
-1.94457e-14 1.84602e-16 -2.28119e-13
0.000244256 -0.0133819 -0.0146043
0.00192625 0.00215839 -0.00349796
0.190584 -0.675374 0.681456
0.00263059 -0.00242567 -0.00354468
-0.0526266 -0.107746 -0.0280359
-0.00141406 -0.00148604 -0.000616885
0.000401327 0.0182623 0.00830113
0.00205895 0.00211313 0.00122338
-0.314527 -0.0883349 0.334878
-0.0108297 0.0148085 -0.012039
0.00212684 0.018602 0.00133472
0.000299631 0.00129158 -0.000360958
0.0129169 -0.0681206 -0.00339686
-0.000152335 -0.000591157 -0.00048464
0.00524908 -3.34062e-05 -0.00229187
-0.373791 0.0343504 0.540955
0.240159 -0.334043 1.50982
0.00338776 0.00261418 0.00103053
0.0481867 -0.0630762 0.0289097
-0.0183124 0.106828 0.0364149
-0.000125259 0.000939207 -2.64568e-05
0.00176622 0.000902753 -0.00371181
0.00398102 0.000811322 -0.000345018
4.47904e-15 -1.02396e-14 -1.05713e-13
0.0137091 -0.000568581 0.0316229
0.000828452 0.0214616 0.00680096
-0.000547063 4.77169e-06 -0.000760197
0.00338308 -0.00153758 -0.00221853
0.000158625 -0.0186951 0.0110285
2.05068e-15 -5.8135e-15 -3.18908e-14
-0.000289808 0.000189872 -7.05959e-05
0.000210293 0.0167138 0.0118615
0.0407572 -0.575537 1.13559
0.00126389 -0.000811125 0.00797437
0.000287565 -0.0165104 -0.00402615
1.13084e-14 -2.34726e-14 -2.88773e-13
0.0044005 0.00732504 0.0125836
-0.000361393 -0.00108203 0.000971602
0.00458758 0.00200992 -0.00435346
9.44515e-15 -3.21506e-14 -7.90124e-14
8.45186e-05 0.0201787 0.00997533
0.000634691 0.0115298 -0.020011
-0.0154029 -0.23724 0.082165
0.00157994 0.0130743 -0.00998421
-1.07574e-14 -1.726e-15 1.75368e-13
-0.906797 0.152325 1.11723
-0.261416 -0.129514 0.186205
0.000208083 0.00172216 -0.00205439
0.00273555 -0.00184148 0.000592313
0.142046 -0.584754 1.27477
0.000140332 0.000237848 0.000221076
-0.000606828 -0.000104965 -0.000464958
-0.000184145 -0.00105226 -0.00041625
0.00174185 -0.00957331 0.00964483
0.00101949 0.00916954 0.0237523
8.07121e-05 0.00050996 -0.000335796
0.469542 -0.283776 1.14522
0.000588933 -0.0175315 0.000363991
-0.103897 -0.252465 0.219226
0.000916282 0.00326977 0.0108546
0.00101781 0.0084684 0.0114336
0.122136 -0.160745 0.15064
-8.27578e-15 -4.74532e-14 1.83894e-13
-0.000611736 -0.0135843 -0.0145162
-0.00124176 -0.0423862 -0.0346629
-0.00028283 0.00199226 -0.00229181
0.000710907 -0.000568733 0.000939143

VECTORS force float
-2.45743e-06 1.39493e-06 5.08687e-06
-1.80251e-08 -2.57782e-07 -2.46135e-07
-9.39746e-09 2.10192e-08 -7.97474e-08
2.17816e-07 8.61216e-08 -1.25228e-06
0.0 0.0 -1.43822e-06
-2.74173e-06 1.8365e-05 -2.32721e-06
-9.39677e-22 2.48816e-21 6.35275e-22
1.21802e-08 7.79326e-09 -1.55531e-09
5.39747e-06 1.85474e-05 -1.9236e-05
0.0 0.0 -1.43822e-06
-4.45657e-07 7.9351e-06 5.90871e-06
-9.43251e-19 -1.01803e-19 -9.635e-20
2.43587e-06 2.52268e-06 -3.18953e-06
1.26678e-07 2.7707e-07 -7.51165e-07
-9.82268e-08 -9.82419e-08 -7.12883e-08
0.0 0.0 -1.43822e-06
-3.30872e-23 2.11758e-22 -2.11758e-22
-2.32757e-10 -5.77981e-09 -9.34236e-09
-5.44509e-11 3.32927e-09 1.17143e-08
-2.15347e-07 -2.74317e-07 -2.98633e-07
0.0 0.0 -1.43822e-06
-2.25451e-09 -3.85256e-08 2.36531e-08
8.24084e-10 1.69698e-09 1.10092e-08
-3.25693e-08 -2.08963e-08 6.94095e-08
-3.01205e-10 1.29126e-08 -2.10165e-09
-1.29473e-08 -2.68952e-08 1.14411e-08
-1.55917e-07 3.78007e-07 -7.9631e-07
-4.33918e-06 -6.84469e-06 4.92769e-06
-1.8774e-09 8.15957e-09 9.35731e-09
1.23753e-06 -4.31655e-07 1.51295e-06
6.16452e-09 4.38537e-10 1.47093e-08
-1.57861e-06 8.5288e-07 4.13127e-06
-5.77467e-06 -5.43956e-06 1.29055e-05
3.91843e-06 2.03808e-06 1.93238e-06
-5.87414e-10 -1.05134e-08 -5.74742e-09
-1.63297e-08 -2.38596e-08 6.34282e-08
4.79262e-07 5.39282e-07 -7.32926e-07
-1.81967e-09 -3.65234e-09 -9.87825e-09
5.84578e-08 -1.09829e-07 -1.55389e-07
-2.61118e-09 -1.38854e-08 2.30758e-08
-7.24099e-09 -2.01419e-08 -2.23327e-08
-7.50112e-09 -1.93894e-08 -1.87838e-08
1.79647e-05 1.08867e-06 -7.53787e-06
-7.05159e-09 2.16846e-08 4.8633e-09
-1.865e-09 -1.21837e-08 4.99487e-09
4.86666e-07 1.62204e-07 3.98004e-07
0.0 0.0 -1.43822e-06
-1.39174e-09 1.78242e-09 -1.16689e-08
-6.63771e-10 -8.98454e-09 -9.3416e-09
1.54651e-07 -2.2601e-07 -5.41526e-07
-1.0323e-06 -9.55224e-07 1.01187e-06
8.11263e-06 5.38702e-08 1.54367e-05
5.67745e-06 -8.82217e-06 2.22101e-05
0.0 0.0 -1.43822e-06
-6.92912e-10 -8.46408e-09 9.45598e-09
-4.31302e-07 -2.34967e-07 -1.0898e-06
0.0 -5.86864e-21 0.0
7.16149e-10 1.03886e-09 -8.93793e-10
-1.40403e-07 3.3602e-07 -8.04281e-07
0.0 0.0 -1.43822e-06
3.75028e-09 3.32303e-07 2.27441e-07
0.0 0.0 -1.43822e-06
9.37169e-07 -3.70643e-07 8.82003e-07
-1.73157e-09 1.14584e-08 -6.62478e-09
0.0 0.0 -1.43822e-06
0.0 0.0 -1.43822e-06
6.57546e-07 -8.34607e-07 1.6132e-06
-1.74879e-05 -2.85627e-06 5.83973e-06
5.28502e-08 -9.89487e-09 4.41247e-07
0.0 0.0 -1.43822e-06
7.78914e-07 3.76029e-07 4.71264e-07
3.17743e-06 1.63814e-07 2.75751e-06
0.0 0.0 -1.43822e-06
0.0 0.0 -1.43822e-06
-8.48e-08 -3.36747e-07 -6.45175e-07
-7.5286e-07 4.55446e-08 -1.25105e-06
0.0 0.0 -1.43822e-06
-7.5198e-07 -2.48197e-07 -9.09977e-07
-1.245e-07 7.35314e-08 5.3252e-07
6.10216e-08 -9.1825e-07 1.84909e-07
1.63027e-19 4.63486e-20 2.75286e-21
5.64087e-05 -8.62209e-06 -3.22479e-05
-1.03951e-07 4.19229e-07 7.33516e-08
-5.83664e-08 -1.71003e-07 -3.5753e-07
-5.18769e-08 3.2559e-08 4.55034e-08
-1.08271e-09 1.9431e-09 1.17504e-08
-8.31019e-20 -1.8423e-20 -1.90582e-21
5.67055e-06 -3.72808e-07 3.09166e-07
-2.02655e-07 -1.85313e-07 -1.62796e-06
0.0 0.0 -1.43822e-06
-1.86468e-08 -3.66816e-08 5.10014e-08
6.85142e-09 -4.03251e-08 2.42882e-08
6.74979e-22 -8.07328e-22 2.11758e-22
2.71714e-07 1.80825e-07 -1.14051e-06
-1.10582e-09 3.77945e-07 -1.4237e-06
1.68676e-06 -1.74895e-06 1.03453e-06
2.15729e-20 2.91168e-20 -1.41878e-20
-2.31216e-07 -1.01205e-06 -2.20342e-07
3.17252e-08 -2.71245e-08 5.41398e-08
0.0 0.0 -1.43822e-06
-3.60469e-09 -4.76955e-10 -1.19337e-08
0.0 0.0 0.0
0.0 0.0 -1.43822e-06
0.0 0.0 -1.43822e-06
-6.94168e-07 -1.16805e-06 8.55783e-07
-9.82136e-08 -3.81859e-07 -3.66114e-07
0.0 0.0 -1.43822e-06
-1.01973e-08 1.27021e-08 -7.17314e-07
-8.39803e-08 1.41519e-07 -9.8266e-08
2.92814e-08 -1.38496e-07 -3.27213e-07
9.54685e-06 1.88678e-06 -1.39028e-07
8.08609e-06 3.58672e-06 3.792e-06
1.3378e-07 2.10211e-09 1.27752e-07
0.0 0.0 -1.43822e-06
3.02696e-09 3.0053e-09 1.1625e-08
0.0 0.0 -1.43822e-06
5.77102e-09 3.22752e-10 -3.35362e-09
-1.18357e-06 2.34252e-06 2.0171e-06
0.0 0.0 -1.43822e-06
4.02341e-21 0.0 2.11758e-22
-5.06443e-09 2.00184e-08 4.1164e-08
0.0 0.0 -1.43822e-06
-4.711e-07 -4.91407e-08 -8.09665e-07
7.11861e-07 -5.62126e-07 3.13706e-07
