# vtk DataFile Version 3.0
LIGGGHTS particles timestep 81000000
ASCII
DATASET POLYDATA
POINTS 88 float
0.0387146 0.0187573 0.00575718
0.0515454 0.0203376 0.00592249
0.0657625 0.0198039 0.00576669
0.102543 0.017821 0.00581645
0.0387828 0.0214812 0.00622724
0.191105 0.0203026 0.00593314
0.0819644 0.018662 0.00575674
0.10448 0.0180949 0.00580371
0.0800401 0.0168845 0.00628905
0.0458896 0.0168235 0.00626774
0.0564645 0.0213699 0.00635393
0.0935378 0.0230832 0.0129744
0.136461 0.0187737 0.0058834
0.0822817 0.0172512 0.00607537
0.0652975 0.0207687 0.00603532
0.0870153 0.0206158 0.00591409
0.0792518 0.0191834 0.00582281
0.0170063 0.0201419 0.00601043
0.0643606 0.0210989 0.00615793
0.0448733 0.0164686 0.00634571
0.0803045 0.0192159 0.005743
0.0811915 0.017199 0.00615598
0.0615774 0.0172559 0.00608456
0.063441 0.0163701 0.00647495
0.0855075 0.019144 0.00579031
0.0829173 0.0222111 0.0066532
0.0357086 0.0161117 0.00660683
0.0618809 0.0199413 0.00582959
0.0845463 0.0178241 0.00589851
0.0944444 0.0201971 0.0156595
0.0830136 0.0187071 0.00584947
0.0439552 0.0161318 0.00656318
0.0782305 0.0203396 0.00602091
0.0822914 0.0196163 0.00600118
0.0732237 0.018766 0.005768
0.0644815 0.0190744 0.00573853
0.0683453 0.0182317 0.00578271
0.0609817 0.0187588 0.00589337
0.0609012 0.0197493 0.00575757
0.0634974 0.0172463 0.00599641
0.0286258 0.0183498 0.00592583
0.0888729 0.0199317 0.00596406
0.0601285 0.017977 0.00598674
0.0626638 0.0179373 0.00595165
0.0644862 0.0176438 0.00589539
0.0238948 0.0168123 0.00667048
0.042543 0.0198089 0.00582143
0.0388539 0.0197419 0.00587248
0.0766607 0.0190533 0.00580856
0.0779381 0.019417 0.00576935
0.0620021 0.0189487 0.00583492
0.0424897 0.0188104 0.00581963
0.0920805 0.0205253 0.0059177
0.0803669 0.0174971 0.0084134
0.0557406 0.0175302 0.00596599
0.102423 0.0196788 0.00582979
0.0453636 0.0157749 0.00687326
0.377395 0.0174553 0.0084407
0.0505919 0.0207133 0.00592302
0.0643736 0.0166453 0.00623285
0.0440263 0.0170728 0.00623272
0.0799751 0.0180833 0.00603206
0.0810479 0.0182624 0.00591498
0.0824664 0.0205903 0.00624245
0.0595038 0.0223955 0.00675756
0.063626 0.0183177 0.00585415
0.0316007 0.0183082 0.00603438
0.0584979 0.0201946 0.00586451
0.0215463 0.0196109 0.00592744
0.0690612 0.017564 0.00598647
0.0636055 0.0197465 0.00578044
0.0957737 0.0152742 0.0134615
0.0242602 0.0201274 0.00583803
0.0771584 0.0170488 0.0153016
0.0567438 0.01754 0.00591345
0.061759 0.0163729 0.00651709
0.0504712 0.0179279 0.00611076
0.0371638 0.0187263 0.00573865
0.0328558 0.0191954 0.00572294
0.044465 0.0204317 0.00594645
0.0625324 0.0169121 0.00611939
0.066033 0.0188309 0.00577203
0.0833983 0.0210192 0.00634375
0.0634713 0.0174776 0.00841989
0.0350698 0.0188001 0.00572051
0.0623373 0.0157218 0.00700852
0.0667607 0.0199247 0.00579031
0.0801544 0.0202323 0.00596714

VERTICES 88 176
1 0
1 1
1 2
1 3
1 4
1 5
1 6
1 7
1 8
1 9
1 10
1 11
1 12
1 13
1 14
1 15
1 16
1 17
1 18
1 19
1 20
1 21
1 22
1 23
1 24
1 25
1 26
1 27
1 28
1 29
1 30
1 31
1 32
1 33
1 34
1 35
1 36
1 37
1 38
1 39
1 40
1 41
1 42
1 43
1 44
1 45
1 46
1 47
1 48
1 49
1 50
1 51
1 52
1 53
1 54
1 55
1 56
1 57
1 58
1 59
1 60
1 61
1 62
1 63
1 64
1 65
1 66
1 67
1 68
1 69
1 70
1 71
1 72
1 73
1 74
1 75
1 76
1 77
1 78
1 79
1 80
1 81
1 82
1 83
1 84
1 85
1 86
1 87

POINT_DATA 88
SCALARS id int 1
LOOKUP_TABLE default
1
2
3
8
9
14
18
26
28
32
34
38
46
48
54
56
59
64
65
66
68
70
74
82
83
86
88
89
90
93
100
106
107
108
109
112
113
121
124
125
126
127
129
132
134
137
142
146
149
159
160
163
165
174
182
187
189
193
195
198
201
209
213
215
221
223
226
227
229
240
242
245
246
256
257
258
270
273
274
277
279
280
281
283
291
293
296
298

SCALARS type int 1
LOOKUP_TABLE default
1
1
1
1
1
1
1
1
1
1
1
1
1
1
1
1
1
1
1
1
1
1
1
1
1
1
1
1
1
1
1
1
1
1
1
1
1
1
1
1
1
1
1
1
1
1
1
1
1
1
1
1
1
1
1
1
1
1
1
1
1
1
1
1
1
1
1
1
1
1
1
1
1
1
1
1
1
1
1
1
1
1
1
1
1
1
1
1

SCALARS radius float 1
LOOKUP_TABLE default
0.0005
0.0005
0.0005
0.0005
0.0005
0.0005
0.0005
0.0005
0.0005
0.0005
0.0005
0.0005
0.0005
0.0005
0.0005
0.0005
0.0005
0.0005
0.0005
0.0005
0.0005
0.0005
0.0005
0.0005
0.0005
0.0005
0.0005
0.0005
0.0005
0.0005
0.0005
0.0005
0.0005
0.0005
0.0005
0.0005
0.0005
0.0005
0.0005
0.0005
0.0005
0.0005
0.0005
0.0005
0.0005
0.0005
0.0005
0.0005
0.0005
0.0005
0.0005
0.0005
0.0005
0.0005
0.0005
0.0005
0.0005
0.0005
0.0005
0.0005
0.0005
0.0005
0.0005
0.0005
0.0005
0.0005
0.0005
0.0005
0.0005
0.0005
0.0005
0.0005
0.0005
0.0005
0.0005
0.0005
0.0005
0.0005
0.0005
0.0005
0.0005
0.0005
0.0005
0.0005
0.0005
0.0005
0.0005
0.0005

SCALARS mass float 1
LOOKUP_TABLE default
1.46608e-07
1.46608e-07
1.46608e-07
1.46608e-07
1.46608e-07
1.46608e-07
1.46608e-07
1.46608e-07
1.46608e-07
1.46608e-07
1.46608e-07
1.46608e-07
1.46608e-07
1.46608e-07
1.46608e-07
1.46608e-07
1.46608e-07
1.46608e-07
1.46608e-07
1.46608e-07
1.46608e-07
1.46608e-07
1.46608e-07
1.46608e-07
1.46608e-07
1.46608e-07
1.46608e-07
1.46608e-07
1.46608e-07
1.46608e-07
1.46608e-07
1.46608e-07
1.46608e-07
1.46608e-07
1.46608e-07
1.46608e-07
1.46608e-07
1.46608e-07
1.46608e-07
1.46608e-07
1.46608e-07
1.46608e-07
1.46608e-07
1.46608e-07
1.46608e-07
1.46608e-07
1.46608e-07
1.46608e-07
1.46608e-07
1.46608e-07
1.46608e-07
1.46608e-07
1.46608e-07
1.46608e-07
1.46608e-07
1.46608e-07
1.46608e-07
1.46608e-07
1.46608e-07
1.46608e-07
1.46608e-07
1.46608e-07
1.46608e-07
1.46608e-07
1.46608e-07
1.46608e-07
1.46608e-07
1.46608e-07
1.46608e-07
1.46608e-07
1.46608e-07
1.46608e-07
1.46608e-07
1.46608e-07
1.46608e-07
1.46608e-07
1.46608e-07
1.46608e-07
1.46608e-07
1.46608e-07
1.46608e-07
1.46608e-07
1.46608e-07
1.46608e-07
1.46608e-07
1.46608e-07
1.46608e-07
1.46608e-07

VECTORS velocity float
-8.68322e-15 7.85656e-14 2.00899e-13
1.06363e-14 2.65576e-14 3.50781e-13
-1.32168e-15 3.9731e-14 -1.45084e-13
-9.78459e-16 -4.3526e-15 -1.20042e-13
-2.75111e-19 1.05901e-18 -5.70181e-18
-1.12293e-14 -4.3801e-14 9.73357e-14
1.34804e-14 4.56304e-14 1.93312e-13
1.49349e-14 2.23685e-14 -1.76079e-13
-1.13559e-15 -7.29175e-15 -3.41143e-14
-4.52777e-15 -2.5297e-14 -1.74151e-13
-9.11037e-16 -1.50327e-14 3.21008e-14
0.000125249 0.00713257 -0.0187073
2.04227e-15 3.13567e-15 -2.905e-14
6.62013e-16 3.61519e-14 1.18632e-13
-1.12952e-15 3.25658e-14 -1.18914e-13
3.22109e-15 5.89872e-15 -3.89487e-14
6.34593e-15 2.15037e-14 9.10982e-14
1.30309e-14 5.25246e-15 -1.07336e-13
9.85087e-15 -6.2895e-14 2.05619e-13
-2.66452e-17 -1.41512e-16 -9.7871e-16
-9.52837e-15 -2.67153e-14 1.14756e-13
4.51272e-15 1.52771e-14 6.47201e-14
-8.10121e-16 -3.58752e-15 -2.56737e-14
5.28641e-16 7.58101e-15 9.70721e-15
-2.80432e-15 1.60117e-14 -2.15085e-13
2.53199e-15 -1.23266e-14 5.62304e-14
-4.52884e-15 2.81709e-14 7.49207e-14
-4.26316e-16 -5.90428e-15 1.63541e-14
-1.76779e-15 5.08473e-14 1.75601e-13
0.00136514 0.0157417 -0.00529159
-9.52946e-15 -2.67155e-14 1.14756e-13
1.9558e-16 -2.75149e-15 -2.89951e-15
3.62527e-15 1.00226e-14 -1.87563e-14
7.16746e-15 2.00952e-14 -8.6317e-14
1.02475e-14 -5.91938e-14 -1.63397e-13
7.97976e-16 -3.78212e-15 -6.44673e-14
7.82575e-18 1.4039e-17 5.06786e-16
-4.35155e-15 -1.94131e-14 -1.3904e-13
-5.19423e-15 -2.31833e-14 -1.66017e-13
6.62081e-16 1.63621e-15 1.29204e-14
-1.94458e-14 1.84074e-16 -2.28119e-13
-1.23113e-15 -2.2171e-15 1.47224e-14
-1.09854e-14 2.26684e-14 2.78387e-13
-7.36446e-15 -1.81923e-14 -1.43647e-13
-5.97989e-15 -1.47719e-14 -1.16641e-13
-1.55931e-14 -3.19694e-14 -1.0479e-13
-1.14584e-16 9.77946e-16 -3.09799e-15
-2.83366e-15 1.34605e-14 -6.65668e-14
-9.17285e-15 5.49344e-14 2.11159e-13
9.81871e-16 -5.92326e-15 -2.27339e-14
5.09536e-16 2.28677e-15 1.63321e-14
1.94417e-16 -5.65212e-16 -3.09678e-15
-7.84776e-15 -7.28946e-14 1.85342e-13
-4.85473e-05 0.00105739 -0.00207507
-5.85352e-15 -7.43064e-15 -1.08974e-13
1.50649e-15 2.26188e-15 -1.78459e-14
2.76879e-17 -5.64693e-16 -6.89972e-16
2.99596e-05 -0.00126151 -0.000105368
6.74667e-15 1.89378e-14 2.6288e-13
-9.28318e-16 8.92625e-14 2.24983e-13
2.29495e-16 -6.63949e-16 -3.64325e-15
1.34768e-14 4.56308e-14 1.93312e-13
1.06451e-15 3.60247e-15 1.52616e-14
-1.04428e-15 -2.92654e-15 1.25717e-14
9.95354e-17 -1.68412e-15 4.05722e-15
-7.36293e-15 -1.81927e-14 -1.43647e-13
1.31769e-14 -4.47295e-14 -1.10005e-13
2.89572e-16 4.88504e-15 -1.04411e-14
-1.81494e-14 8.14354e-15 -1.66091e-13
-1.68187e-17 1.76947e-16 4.66257e-16
6.28688e-15 -4.01365e-14 1.31216e-13
0.000165896 0.0099437 0.0195652
-1.07556e-14 -1.72598e-15 1.75368e-13
0.00073702 0.0171887 0.0085536
-9.84462e-15 -1.3375e-14 -1.90504e-13
1.25366e-15 -1.43104e-14 -2.04198e-14
-3.69965e-15 -1.32326e-14 -1.98725e-13
3.8148e-15 -1.81875e-14 8.9948e-14
8.76288e-16 5.06752e-15 -1.96346e-14
-3.29536e-15 2.52649e-14 -8.03151e-14
-3.84288e-16 3.70494e-14 9.33835e-14
2.19707e-15 -1.03734e-14 -1.76838e-13
2.36846e-14 -4.02504e-14 1.90901e-13
-7.88459e-06 0.0024344 0.000637863
-7.09275e-15 -4.06759e-14 1.57633e-13
1.21628e-15 -1.43286e-14 -2.04139e-14
-4.10181e-16 1.19613e-14 -4.36765e-14
-1.80116e-14 -5.05039e-14 2.16941e-13

VECTORS force float
9.49603e-21 -6.35275e-22 8.47033e-22
-7.21301e-21 -8.07328e-22 1.90582e-21
-2.19037e-21 1.42937e-21 4.23516e-22
9.5953e-23 2.64698e-23 0.0
-1.73708e-23 -1.57164e-22 0.0
-2.62051e-21 1.05879e-22 -2.11758e-22
3.57342e-21 -5.29396e-23 -2.11758e-22
-1.03629e-19 7.94093e-23 -9.74088e-21
-2.64698e-23 -5.29396e-23 0.0
-2.13082e-21 3.70577e-22 0.0
-1.27723e-19 5.59042e-20 2.79521e-20
6.12361e-08 -1.04904e-07 2.50155e-07
-1.75984e-19 7.89858e-20 -3.59989e-21
1.56337e-21 0.0 0.0
-7.87476e-22 -5.29396e-23 0.0
-2.64698e-23 0.0 0.0
-2.20361e-20 -1.58819e-22 1.48231e-21
9.12149e-20 -2.06464e-21 1.10114e-20
5.4263e-22 1.05879e-22 -2.11758e-22
3.17637e-22 2.11758e-22 4.23516e-22
0.0 0.0 0.0
-3.83812e-22 1.05879e-22 0.0
2.11758e-22 0.0 0.0
2.64698e-23 0.0 -1.05879e-22
5.9557e-23 -7.94093e-23 0.0
3.1499e-21 -2.64698e-22 0.0
-9.18766e-20 -4.58986e-20 1.12232e-20
9.92617e-24 -2.64698e-23 -2.11758e-22
-1.50348e-20 3.86459e-21 -1.27055e-21
-7.84064e-09 2.02479e-08 -1.61012e-08
1.58819e-22 0.0 0.0
-4.63221e-22 0.0 0.0
2.64698e-23 -1.05879e-22 2.11758e-22
9.13207e-22 0.0 2.11758e-22
2.62329e-19 -1.0535e-20 2.09641e-20
0.0 0.0 0.0
-2.64698e-23 2.64698e-23 0.0
2.89844e-21 2.11758e-21 -4.23516e-22
0.0 0.0 0.0
-1.32349e-23 0.0 0.0
2.38228e-22 1.79571e-20 0.0
3.40137e-21 6.43216e-21 1.27055e-21
-1.47966e-20 3.40798e-20 -3.38813e-21
-3.97047e-23 0.0 0.0
1.05879e-22 -5.29396e-23 0.0
-4.49986e-22 -1.05879e-22 0.0
-5.92261e-22 -5.29396e-23 0.0
4.31457e-21 5.29396e-23 -2.11758e-22
-2.49742e-20 -1.40819e-20 1.48231e-21
2.64698e-23 5.29396e-23 2.11758e-22
3.30872e-24 2.64698e-23 0.0
-1.15805e-22 -5.29396e-23 0.0
6.61744e-24 0.0 0.0
-1.33034e-10 6.78902e-08 -5.96974e-08
6.36863e-19 -5.51167e-19 5.29396e-21
2.73698e-20 -1.73642e-20 4.23516e-22
0.0 -3.17637e-22 -2.11758e-22
5.85511e-11 5.50307e-08 -4.55092e-08
-5.49248e-22 3.17637e-22 0.0
-5.79026e-23 0.0 0.0
-1.85288e-22 1.05879e-22 0.0
3.44107e-22 6.35275e-22 -2.11758e-22
2.51463e-22 5.29396e-23 2.11758e-22
-1.80127e-20 5.3469e-21 -2.11758e-22
1.80001e-19 1.0482e-20 -1.69407e-21
2.18376e-21 -7.41154e-22 0.0
-1.34731e-20 6.98802e-21 -5.50571e-21
-3.6568e-20 -1.05879e-22 -1.05879e-21
0.0 -5.29396e-22 0.0
2.64698e-23 -2.64698e-23 0.0
5.25425e-21 8.99973e-22 0.0
-1.74083e-09 1.3065e-08 2.07247e-09
0.0 -4.79765e-23 0.0
-3.24289e-09 1.6822e-08 -2.31311e-09
-1.19776e-20 1.09982e-20 -4.23516e-22
7.94093e-23 3.17637e-22 -1.58819e-22
4.30134e-23 5.29396e-23 0.0
9.95925e-21 -6.56451e-21 -2.5411e-21
-3.97047e-23 0.0 0.0
9.53905e-20 2.1017e-20 2.32934e-21
3.54695e-21 2.11758e-22 0.0
-1.5101e-20 -5.00279e-21 0.0
8.09975e-21 1.48231e-21 2.11758e-22
-1.0195e-09 -8.04523e-08 1.48728e-08
-1.77348e-20 -5.29396e-22 -8.47033e-22
7.41154e-22 3.17637e-22 -2.11758e-22
1.95612e-20 4.76456e-22 0.0
-2.64698e-21 1.37643e-21 0.0
