# vtk DataFile Version 3.0
LIGGGHTS particles timestep 49000000
ASCII
DATASET POLYDATA
POINTS 88 float
0.0387146 0.0187573 0.00575718
0.0469054 0.0189328 0.00729205
0.0656942 0.0197559 0.0057542
0.102543 0.017821 0.00581645
0.0387828 0.0214812 0.00622724
0.0500819 0.0182357 0.0157135
0.0815251 0.0188155 0.00575115
0.10448 0.0180949 0.00580371
0.0568895 0.0152861 0.0136555
0.0458896 0.0168235 0.00626774
0.057335 0.017914 0.0058854
0.0616877 0.0202119 0.0156499
0.136461 0.0187737 0.0058834
0.0669808 0.0226545 0.0137416
0.064309 0.0192734 0.00572472
0.0830207 0.0197197 0.00608582
0.0793161 0.0192087 0.00581236
0.0170063 0.0201419 0.00601043
0.0632091 0.0196192 0.00574818
0.0448733 0.0164686 0.00634571
0.0691188 0.0149864 0.012792
0.0581826 0.0162399 0.00831859
0.051146 0.0150289 0.0127884
0.0524036 0.0168356 0.00785587
0.0703061 0.016528 0.00802996
0.0745131 0.0200179 0.0058526
0.0357086 0.0161117 0.00660683
0.061617 0.0194189 0.0057813
0.0528027 0.0186004 0.0072179
0.0630977 0.0149676 0.0128697
0.0725431 0.0232548 0.0122301
0.0439552 0.0161318 0.00656318
0.0607452 0.0230688 0.0129923
0.0720019 0.0228163 0.00975968
0.0594938 0.0214315 0.0079336
0.063554 0.0186245 0.00581898
0.0575833 0.0148843 0.0105614
0.0531098 0.0199313 0.00731385
0.0607121 0.0186881 0.00591167
0.0551342 0.0221569 0.0144906
0.0286258 0.0183498 0.00592583
0.0862115 0.0201056 0.00585272
0.0434033 0.0212187 0.0152449
0.0600181 0.0229625 0.00980188
0.0565485 0.0164992 0.0149773
0.0238948 0.0168123 0.00667048
0.0470176 0.01787 0.0060864
0.0388539 0.0197419 0.00587248
0.0766607 0.0190533 0.00580856
0.0779397 0.0194308 0.00576583
0.0611498 0.0221107 0.0145012
0.0424878 0.0188132 0.00581899
0.0920805 0.0205253 0.0059177
0.0653536 0.0169916 0.00872805
0.0535556 0.0217926 0.00815273
0.102423 0.0196788 0.00582979
0.0453636 0.0157749 0.00687326
0.377399 0.017548 0.00838894
0.0507369 0.0203921 0.00594173
0.0541631 0.023104 0.0102888
0.0440263 0.0170728 0.00623272
0.0591598 0.0201734 0.00736989
0.0654588 0.0213122 0.00782792
0.0824671 0.0205532 0.00623389
0.059059 0.0180876 0.00593586
0.0640931 0.0172506 0.00599153
0.0316007 0.0183082 0.00603438
0.0478155 0.0225409 0.00904974
0.0215463 0.0196109 0.00592744
0.0649744 0.0177417 0.00585796
0.0623985 0.0186635 0.00586235
0.064294 0.0165842 0.00806322
0.0242602 0.0201274 0.00583803
0.0489806 0.0225595 0.0139263
0.0401956 0.0167755 0.00777751
0.0458877 0.0153887 0.00956018
0.0504712 0.0179279 0.00611076
0.0371638 0.0187263 0.00573865
0.0328558 0.0191954 0.00572294
0.044465 0.0204317 0.00594645
0.0487343 0.0229212 0.013009
0.0660681 0.018771 0.00577597
0.0829947 0.0213806 0.00646753
0.0589272 0.0190948 0.00729324
0.0350698 0.0188001 0.00572051
0.0446245 0.0160858 0.0146025
0.0667523 0.0199335 0.00579279
0.0561029 0.0180973 0.0156533

VERTICES 88 176
1 0
1 1
1 2
1 3
1 4
1 5
1 6
1 7
1 8
1 9
1 10
1 11
1 12
1 13
1 14
1 15
1 16
1 17
1 18
1 19
1 20
1 21
1 22
1 23
1 24
1 25
1 26
1 27
1 28
1 29
1 30
1 31
1 32
1 33
1 34
1 35
1 36
1 37
1 38
1 39
1 40
1 41
1 42
1 43
1 44
1 45
1 46
1 47
1 48
1 49
1 50
1 51
1 52
1 53
1 54
1 55
1 56
1 57
1 58
1 59
1 60
1 61
1 62
1 63
1 64
1 65
1 66
1 67
1 68
1 69
1 70
1 71
1 72
1 73
1 74
1 75
1 76
1 77
1 78
1 79
1 80
1 81
1 82
1 83
1 84
1 85
1 86
1 87

POINT_DATA 88
SCALARS id int 1
LOOKUP_TABLE default
1
2
3
8
9
14
18
26
28
32
34
38
46
48
54
56
59
64
65
66
68
70
74
82
83
86
88
89
90
93
100
106
107
108
109
112
113
121
124
125
126
127
129
132
134
137
142
146
149
159
160
163
165
174
182
187
189
193
195
198
201
209
213
215
221
223
226
227
229
240
242
245
246
256
257
258
270
273
274
277
279
280
281
283
291
293
296
298

SCALARS type int 1
LOOKUP_TABLE default
1
1
1
1
1
1
1
1
1
1
1
1
1
1
1
1
1
1
1
1
1
1
1
1
1
1
1
1
1
1
1
1
1
1
1
1
1
1
1
1
1
1
1
1
1
1
1
1
1
1
1
1
1
1
1
1
1
1
1
1
1
1
1
1
1
1
1
1
1
1
1
1
1
1
1
1
1
1
1
1
1
1
1
1
1
1
1
1

SCALARS radius float 1
LOOKUP_TABLE default
0.0005
0.0005
0.0005
0.0005
0.0005
0.0005
0.0005
0.0005
0.0005
0.0005
0.0005
0.0005
0.0005
0.0005
0.0005
0.0005
0.0005
0.0005
0.0005
0.0005
0.0005
0.0005
0.0005
0.0005
0.0005
0.0005
0.0005
0.0005
0.0005
0.0005
0.0005
0.0005
0.0005
0.0005
0.0005
0.0005
0.0005
0.0005
0.0005
0.0005
0.0005
0.0005
0.0005
0.0005
0.0005
0.0005
0.0005
0.0005
0.0005
0.0005
0.0005
0.0005
0.0005
0.0005
0.0005
0.0005
0.0005
0.0005
0.0005
0.0005
0.0005
0.0005
0.0005
0.0005
0.0005
0.0005
0.0005
0.0005
0.0005
0.0005
0.0005
0.0005
0.0005
0.0005
0.0005
0.0005
0.0005
0.0005
0.0005
0.0005
0.0005
0.0005
0.0005
0.0005
0.0005
0.0005
0.0005
0.0005

SCALARS mass float 1
LOOKUP_TABLE default
1.46608e-07
1.46608e-07
1.46608e-07
1.46608e-07
1.46608e-07
1.46608e-07
1.46608e-07
1.46608e-07
1.46608e-07
1.46608e-07
1.46608e-07
1.46608e-07
1.46608e-07
1.46608e-07
1.46608e-07
1.46608e-07
1.46608e-07
1.46608e-07
1.46608e-07
1.46608e-07
1.46608e-07
1.46608e-07
1.46608e-07
1.46608e-07
1.46608e-07
1.46608e-07
1.46608e-07
1.46608e-07
1.46608e-07
1.46608e-07
1.46608e-07
1.46608e-07
1.46608e-07
1.46608e-07
1.46608e-07
1.46608e-07
1.46608e-07
1.46608e-07
1.46608e-07
1.46608e-07
1.46608e-07
1.46608e-07
1.46608e-07
1.46608e-07
1.46608e-07
1.46608e-07
1.46608e-07
1.46608e-07
1.46608e-07
1.46608e-07
1.46608e-07
1.46608e-07
1.46608e-07
1.46608e-07
1.46608e-07
1.46608e-07
1.46608e-07
1.46608e-07
1.46608e-07
1.46608e-07
1.46608e-07
1.46608e-07
1.46608e-07
1.46608e-07
1.46608e-07
1.46608e-07
1.46608e-07
1.46608e-07
1.46608e-07
1.46608e-07
1.46608e-07
1.46608e-07
1.46608e-07
1.46608e-07
1.46608e-07
1.46608e-07
1.46608e-07
1.46608e-07
1.46608e-07
1.46608e-07
1.46608e-07
1.46608e-07
1.46608e-07
1.46608e-07
1.46608e-07
1.46608e-07
1.46608e-07
1.46608e-07

VECTORS velocity float
-8.66846e-15 7.85696e-14 2.00898e-13
0.00158437 -0.0176405 4.92064e-05
-1.51596e-15 3.97275e-14 -1.45083e-13
-9.78435e-16 -4.35255e-15 -1.20042e-13
-2.72928e-19 1.05559e-18 -5.6982e-18
0.000366165 0.0199118 0.00358649
1.78642e-20 7.25055e-21 -2.82648e-20
1.49868e-14 2.23637e-14 -1.76075e-13
0.000445471 0.0101689 0.0175507
-4.52779e-15 -2.52971e-14 -1.74151e-13
1.52707e-15 3.93538e-15 9.33126e-14
0.000898711 0.0165877 -0.0058006
1.94667e-15 3.1646e-15 -2.90535e-14
0.000136014 0.0119783 -0.0181808
8.27711e-16 -3.92246e-15 -6.68764e-14
-1.58237e-14 -4.4365e-14 1.90571e-13
1.52245e-14 5.18917e-14 2.19688e-13
1.30013e-14 5.26046e-15 -1.0734e-13
3.94789e-15 5.47606e-14 -1.5184e-13
-2.61986e-17 -1.41692e-16 -9.79031e-16
0.00108461 0.00817459 0.0199215
0.000275097 -0.0152858 0.0140975
-9.48609e-05 0.00506607 0.0217955
-0.000317773 -0.019398 0.0108081
0.000236865 -0.0166497 0.0124131
-9.42178e-15 -5.05556e-14 2.04289e-13
-4.67567e-15 2.81812e-14 7.4908e-14
-4.35542e-15 -1.9415e-14 -1.3904e-13
0.000467439 -0.0182826 0.00231803
0.000194596 0.00682279 0.0197376
3.09318e-05 0.00484665 -0.0215189
1.95484e-16 -2.75166e-15 -2.89973e-15
0.000392751 0.00689475 -0.0195905
0.00217668 -0.00299707 -0.00804181
0.00060791 -0.0169776 -0.0108507
-6.89044e-16 -1.70159e-15 -1.34382e-14
0.00121107 -0.00280614 0.017441
8.61417e-05 -0.0210615 -0.00512257
-5.18448e-15 -2.31868e-14 -1.66017e-13
0.000986581 0.0123533 -0.0143973
-1.94458e-14 1.84098e-16 -2.28119e-13
2.62405e-15 -1.48777e-14 1.99835e-13
0.00195806 0.0140581 -0.00914421
0.0023572 -0.007921 -0.0115561
0.00019598 0.016841 0.0123255
-1.55919e-14 -3.19692e-14 -1.0479e-13
-3.12486e-15 -1.74657e-14 -1.20236e-13
-2.83289e-15 1.34605e-14 -6.65669e-14
-9.11947e-15 5.49356e-14 2.11161e-13
6.37332e-15 -3.81059e-14 -1.46472e-13
7.93328e-05 0.0160239 -0.0151712
-4.51473e-15 1.30451e-14 7.16622e-14
-7.84834e-15 -7.28946e-14 1.85342e-13
1.69794e-05 -0.00245958 0.00288649
0.000417065 -0.0158616 -0.0129837
1.52462e-15 2.25998e-15 -1.78446e-14
2.73486e-17 -5.65134e-16 -6.90207e-16
-4.91731e-05 0.00134228 -0.0021334
-5.72555e-15 -2.04833e-14 -3.07615e-13
0.000245736 -0.00622639 -0.0201419
2.29479e-16 -6.63856e-16 -3.64347e-15
0.00244971 -0.0191873 -0.00369085
0.000134516 -0.0182593 -0.0122073
-9.5321e-15 -2.67159e-14 1.14756e-13
7.18597e-15 -1.49147e-14 -1.83491e-13
-9.27642e-16 8.92606e-14 2.24984e-13
1.31769e-14 -4.47206e-14 -1.10009e-13
1.34653e-05 -0.0119637 -0.0189906
-1.81457e-14 8.13656e-15 -1.66092e-13
-7.36528e-15 -1.81924e-14 -1.43647e-13
-4.35014e-15 -1.94162e-14 -1.3904e-13
0.00175153 -0.0131444 0.00951732
-1.07574e-14 -1.73291e-15 1.75368e-13
0.000685391 0.00761419 -0.0116275
6.64111 -0.383068 3.63547
0.000496801 -0.00870644 0.0185745
-3.69897e-15 -1.32327e-14 -1.98725e-13
3.8231e-15 -1.8188e-14 8.99476e-14
8.76271e-16 5.06752e-15 -1.96346e-14
-3.02081e-15 2.53019e-14 -8.03136e-14
-0.000125362 0.0059554 -0.0181955
-5.10134e-16 2.41042e-15 4.1093e-14
-2.65561e-16 2.90686e-15 -1.31102e-14
0.000103191 -0.0210924 -0.000191339
-7.07285e-15 -4.06762e-14 1.57633e-13
0.000959797 0.0148207 0.0121851
2.16057e-16 -9.54439e-15 3.48305e-14
0.000724957 0.0191368 0.00249922

VECTORS force float
0.0 0.0 -2.11758e-22
-2.69468e-08 -3.26676e-08 8.8653e-09
1.86327e-19 5.02926e-21 -4.23516e-22
-1.27386e-22 -1.32349e-23 0.0
9.09899e-24 -1.95215e-22 -2.11758e-22
-2.83306e-09 1.03855e-08 -8.98872e-09
0.0 0.0 0.0
-1.18055e-20 2.12552e-20 1.27055e-21
-2.11629e-09 1.44151e-08 2.14502e-09
-4.83735e-21 3.70577e-22 2.11758e-22
1.02445e-19 -6.95891e-20 1.05879e-21
-7.76416e-09 1.9651e-08 -1.34525e-08
2.08873e-19 -1.28246e-19 -4.23516e-22
-9.87413e-10 -6.73724e-09 -1.03e-08
-1.93229e-21 2.11758e-22 1.69407e-21
3.29549e-21 3.59989e-21 8.47033e-22
2.18005e-19 2.04876e-20 -1.79995e-20
9.75411e-20 -3.78121e-20 1.07997e-20
1.42513e-19 -1.32349e-21 3.38813e-21
1.05879e-22 -5.29396e-23 -2.11758e-22
1.00911e-08 2.34083e-08 4.13471e-08
-1.23256e-09 2.98567e-09 1.21459e-08
-9.5913e-10 1.1906e-08 -1.20435e-09
-6.22554e-09 -2.28472e-09 1.08199e-08
-1.62386e-09 8.7934e-10 1.2327e-08
-5.32069e-19 2.84285e-20 -1.69407e-20
-1.17182e-19 -8.99973e-22 -6.77626e-21
1.93891e-21 2.14405e-21 -2.11758e-22
-5.16946e-09 -1.18039e-07 3.42412e-08
8.45555e-11 1.29313e-08 6.37376e-10
-6.45288e-11 -1.08477e-08 -6.14836e-09
-3.17637e-22 0.0 0.0
-2.21295e-09 -7.81587e-09 -1.00061e-08
-1.14078e-09 2.78733e-08 2.81785e-08
-9.64351e-11 -9.18186e-09 3.6041e-09
2.30287e-21 -3.17637e-22 -1.90582e-21
-6.88095e-09 4.04487e-09 2.34566e-08
-1.06661e-09 -7.61319e-09 9.37074e-09
-4.52699e-20 8.54974e-21 2.11758e-22
7.93484e-08 -1.99457e-07 1.18663e-07
5.29396e-23 -8.4693e-21 0.0
-2.2989e-20 -4.65868e-21 -2.11758e-22
5.40676e-07 -8.02609e-07 7.40666e-07
1.35251e-06 1.6e-06 2.17969e-05
-6.59113e-10 1.14214e-08 -4.32107e-09
2.64698e-22 -5.29396e-23 0.0
-1.8198e-21 1.85288e-22 0.0
-4.30134e-22 0.0 -2.11758e-22
-9.82757e-20 -1.27584e-20 -1.05879e-21
1.73933e-19 -5.45277e-21 8.68209e-21
-2.92056e-09 -7.8786e-10 -1.22859e-08
0.0 1.58819e-22 0.0
0.0 0.0 0.0
-1.44553e-09 1.11884e-07 -7.30009e-08
-1.5579e-09 -1.36683e-08 1.75289e-09
-2.04082e-20 1.34731e-20 2.11758e-22
-5.29396e-23 -1.58819e-22 0.0
-1.17077e-10 4.97595e-08 -4.78674e-08
-1.61135e-21 -5.4263e-22 2.11758e-22
-1.51072e-09 -1.21412e-08 -3.3039e-09
-6.61744e-23 0.0 0.0
-1.46237e-06 -7.2549e-06 -1.31808e-05
3.45192e-10 -1.07152e-08 7.33127e-09
2.79256e-21 0.0 2.11758e-22
-1.15144e-21 -4.89691e-22 0.0
-7.61337e-21 0.0 0.0
1.19114e-21 2.47757e-20 -8.47033e-21
-7.2759e-10 -1.21968e-08 2.73627e-09
0.0 -3.97047e-23 0.0
5.66453e-21 -2.72639e-21 0.0
3.30872e-23 -5.29396e-23 0.0
8.85367e-10 1.07772e-08 -2.47949e-08
0.0 1.65436e-24 0.0
-4.09855e-09 -4.16057e-09 3.44823e-09
0.43267 -1.00984 -1.3535
-3.4292e-09 6.94854e-09 1.29742e-08
3.53041e-21 -5.4263e-22 0.0
-3.71437e-20 1.48231e-21 1.27055e-21
0.0 0.0 0.0
-9.03943e-20 -6.98802e-21 6.35275e-22
-3.0607e-09 -2.43995e-09 -2.89896e-08
-1.28048e-21 -4.76456e-22 0.0
9.19825e-22 1.11173e-21 -2.11758e-22
-6.28808e-10 -5.19371e-09 1.10801e-08
4.42045e-21 -4.02341e-21 -8.47033e-22
-3.1697e-08 1.41788e-07 1.0303e-07
-9.66478e-20 2.59404e-21 1.69407e-21
-2.51462e-08 8.61609e-08 2.4445e-09
