# vtk DataFile Version 3.0
LIGGGHTS particles timestep 23400000
ASCII
DATASET POLYDATA
POINTS 89 float
0.0388307 0.0187336 0.00577146
0.025263 0.0206527 0.0157403
0.0455875 0.0179928 0.00738733
0.0470938 0.0231793 0.0103265
0.0436892 0.020408 0.00596775
0.0264769 0.0147556 0.0117725
0.08261 0.0191091 0.00590955
0.103453 0.0178822 0.00580682
0.0350779 0.0232037 0.0102706
0.0458692 0.0166351 0.00629564
0.0572659 0.0174442 0.00591793
0.036787 0.0194581 0.0157673
0.0396299 0.0180383 0.00729559
0.0430055 0.0184361 0.0157876
0.0422451 0.0216879 0.0148457
0.0465968 0.0159348 0.0144816
0.0449314 0.0157456 0.00885781
0.0170063 0.0201419 0.00601043
0.0427695 0.0195307 0.015749
0.0448873 0.0164493 0.00634816
0.0440649 0.0149444 0.0127408
0.0375056 0.0164551 0.0149089
0.0264903 0.0148059 0.0109169
0.0278685 0.0188811 0.00719813
0.0452902 0.0167552 0.00791078
0.0424171 0.0209148 0.0154237
0.0239039 0.0225779 0.014392
0.0464517 0.0214556 0.00797177
0.0281116 0.0202207 0.00736989
0.038261 0.0148452 0.0119777
0.0452019 0.0162176 0.00828857
0.0476611 0.0230401 0.0129781
0.0439552 0.0161318 0.00656318
0.0359819 0.0225046 0.014016
0.0466669 0.022137 0.00846166
0.0390068 0.0157252 0.00886617
0.0319496 0.0151253 0.0131815
0.0325968 0.01493 0.0103418
0.0332376 0.0163124 0.00814456
0.0437827 0.0154942 0.0139039
0.0307751 0.0195305 0.015788
0.0286258 0.0183498 0.00592583
0.044368 0.0148245 0.0115025
0.0131014 0.0207533 0.0156039
0.0348604 0.0227819 0.00941365
0.0345255 0.0217575 0.00811691
0.0238948 0.0168123 0.00667048
0.0470176 0.01787 0.0060864
0.0390565 0.0200205 0.00592023
0.0766607 0.0190533 0.00580856
0.0779397 0.0194308 0.00576583
0.0363601 0.0209728 0.0153025
0.0424878 0.0188132 0.00581899
0.0920805 0.0205253 0.0059177
0.0300905 0.0222453 0.0143561
0.0287225 0.0223529 0.00868095
0.102423 0.0196788 0.00582979
0.0328655 0.0153459 0.00931301
0.377443 0.0175503 0.00839326
0.0507369 0.0203921 0.00594173
0.0295717 0.0232678 0.012496
0.0440263 0.0170728 0.00623272
0.0339094 0.0191639 0.00736929
0.0408457 0.0227203 0.00927858
0.0420061 0.0224325 0.0140766
0.059059 0.0180876 0.00593586
0.0377789 0.0155765 0.013975
0.0201346 0.0147651 0.0129288
0.0212284 0.0147017 0.0124161
0.0215463 0.0196109 0.00592744
0.0401878 0.0205413 0.00743944
0.0392434 0.0163316 0.00812924
0.0393679 0.0169909 0.00772273
0.0242602 0.0201274 0.00583803
0.025706 0.0187758 0.0159381
0.0174531 0.0234625 0.0117117
0.0203438 0.0146118 0.0119547
0.0317157 0.0156451 0.0141925
0.03603 0.0169523 0.00630989
0.0325583 0.0187556 0.00580367
0.043494 0.016351 0.0147777
0.0267783 0.0151739 0.00962817
0.0417011 0.0230732 0.0131065
0.0410785 0.0231821 0.0102817
0.0335624 0.0178211 0.00734342
0.0350698 0.0188001 0.00572051
0.0169468 0.0239671 0.013434
0.027495 0.017466 0.00750744
0.0310281 0.0182136 0.0157312

VERTICES 89 178
1 0
1 1
1 2
1 3
1 4
1 5
1 6
1 7
1 8
1 9
1 10
1 11
1 12
1 13
1 14
1 15
1 16
1 17
1 18
1 19
1 20
1 21
1 22
1 23
1 24
1 25
1 26
1 27
1 28
1 29
1 30
1 31
1 32
1 33
1 34
1 35
1 36
1 37
1 38
1 39
1 40
1 41
1 42
1 43
1 44
1 45
1 46
1 47
1 48
1 49
1 50
1 51
1 52
1 53
1 54
1 55
1 56
1 57
1 58
1 59
1 60
1 61
1 62
1 63
1 64
1 65
1 66
1 67
1 68
1 69
1 70
1 71
1 72
1 73
1 74
1 75
1 76
1 77
1 78
1 79
1 80
1 81
1 82
1 83
1 84
1 85
1 86
1 87
1 88

POINT_DATA 89
SCALARS id int 1
LOOKUP_TABLE default
1
2
3
8
9
14
18
26
28
32
34
38
46
48
54
56
59
64
65
66
68
70
74
82
83
86
88
89
90
93
96
100
106
107
108
109
112
113
121
124
125
126
127
129
132
134
137
142
146
149
159
160
163
165
174
182
187
189
193
195
198
201
209
213
215
221
223
226
227
229
240
242
245
246
256
257
258
270
273
274
277
279
280
281
283
291
293
296
298

SCALARS type int 1
LOOKUP_TABLE default
1
1
1
1
1
1
1
1
1
1
1
1
1
1
1
1
1
1
1
1
1
1
1
1
1
1
1
1
1
1
1
1
1
1
1
1
1
1
1
1
1
1
1
1
1
1
1
1
1
1
1
1
1
1
1
1
1
1
1
1
1
1
1
1
1
1
1
1
1
1
1
1
1
1
1
1
1
1
1
1
1
1
1
1
1
1
1
1
1

SCALARS radius float 1
LOOKUP_TABLE default
0.0005
0.0005
0.0005
0.0005
0.0005
0.0005
0.0005
0.0005
0.0005
0.0005
0.0005
0.0005
0.0005
0.0005
0.0005
0.0005
0.0005
0.0005
0.0005
0.0005
0.0005
0.0005
0.0005
0.0005
0.0005
0.0005
0.0005
0.0005
0.0005
0.0005
0.0005
0.0005
0.0005
0.0005
0.0005
0.0005
0.0005
0.0005
0.0005
0.0005
0.0005
0.0005
0.0005
0.0005
0.0005
0.0005
0.0005
0.0005
0.0005
0.0005
0.0005
0.0005
0.0005
0.0005
0.0005
0.0005
0.0005
0.0005
0.0005
0.0005
0.0005
0.0005
0.0005
0.0005
0.0005
0.0005
0.0005
0.0005
0.0005
0.0005
0.0005
0.0005
0.0005
0.0005
0.0005
0.0005
0.0005
0.0005
0.0005
0.0005
0.0005
0.0005
0.0005
0.0005
0.0005
0.0005
0.0005
0.0005
0.0005

SCALARS mass float 1
LOOKUP_TABLE default
1.46608e-07
1.46608e-07
1.46608e-07
1.46608e-07
1.46608e-07
1.46608e-07
1.46608e-07
1.46608e-07
1.46608e-07
1.46608e-07
1.46608e-07
1.46608e-07
1.46608e-07
1.46608e-07
1.46608e-07
1.46608e-07
1.46608e-07
1.46608e-07
1.46608e-07
1.46608e-07
1.46608e-07
1.46608e-07
1.46608e-07
1.46608e-07
1.46608e-07
1.46608e-07
1.46608e-07
1.46608e-07
1.46608e-07
1.46608e-07
1.46608e-07
1.46608e-07
1.46608e-07
1.46608e-07
1.46608e-07
1.46608e-07
1.46608e-07
1.46608e-07
1.46608e-07
1.46608e-07
1.46608e-07
1.46608e-07
1.46608e-07
1.46608e-07
1.46608e-07
1.46608e-07
1.46608e-07
1.46608e-07
1.46608e-07
1.46608e-07
1.46608e-07
1.46608e-07
1.46608e-07
1.46608e-07
1.46608e-07
1.46608e-07
1.46608e-07
1.46608e-07
1.46608e-07
1.46608e-07
1.46608e-07
1.46608e-07
1.46608e-07
1.46608e-07
1.46608e-07
1.46608e-07
1.46608e-07
1.46608e-07
1.46608e-07
1.46608e-07
1.46608e-07
1.46608e-07
1.46608e-07
1.46608e-07
1.46608e-07
1.46608e-07
1.46608e-07
1.46608e-07
1.46608e-07
1.46608e-07
1.46608e-07
1.46608e-07
1.46608e-07
1.46608e-07
1.46608e-07
1.46608e-07
1.46608e-07
1.46608e-07
1.46608e-07

VECTORS velocity float
-9.61348e-15 8.71648e-14 2.22858e-13
-0.00657207 0.0301609 -0.0117016
0.000261013 -0.0201613 0.00555528
0.000452674 -0.0060112 -0.0190601
2.40362e-15 -2.04486e-14 6.48839e-14
-0.000154943 -0.000302987 0.016213
-1.80345e-14 -5.04999e-14 2.1694e-13
1.63672e-15 7.5399e-15 2.07275e-13
0.000551921 -0.00605198 -0.0175906
2.90878e-16 1.62447e-15 1.1182e-14
9.18195e-15 -1.9055e-14 -2.34434e-13
1.33505e-05 0.0230337 0.000692128
0.00121225 -0.0183764 0.00517979
0.00108888 0.0118532 0.00240307
0.00100018 0.0157284 -0.0100047
0.000338537 0.0145861 0.0142313
0.00204118 -0.00790681 0.014034
1.30155e-14 5.27006e-15 -1.07337e-13
0.000206086 0.0206295 -0.00247302
-4.52781e-15 -2.52971e-14 -1.74151e-13
0.00080066 0.00609072 0.0180929
0.000824218 0.0135538 0.0103076
0.000279146 -0.00289718 0.020042
0.00222431 -0.011152 0.000362581
0.000829377 -0.0128616 0.00673378
0.00114373 0.0129441 -0.00560942
0.00318517 0.00703578 0.00473706
0.0538834 -0.0954549 0.0380333
0.000132302 -0.0207234 -0.00642914
0.00010456 0.00139813 0.0227132
0.00165541 -0.00566234 0.00390689
8.1383e-05 0.00710388 -0.0199131
1.95559e-16 -2.75166e-15 -2.89973e-15
0.000601032 0.0152033 -0.0163186
0.00247232 -0.00609695 -0.000918307
0.000342592 -0.0131957 0.0165668
0.00031803 0.00760404 0.0191802
0.000216424 -0.00517821 0.0198296
0.00130096 -0.0113579 0.00802265
5.05803e-05 0.0115555 0.019161
0.00086614 0.0183747 -0.00304059
-1.94458e-14 1.82874e-16 -2.28119e-13
0.000959635 -0.00104836 0.019059
0.00779624 0.0132731 -0.00534499
4.55991e-05 -0.0100305 -0.0189244
0.00126302 -0.0123305 -0.00934352
-1.55868e-14 -3.19691e-14 -1.04791e-13
-3.12594e-15 -1.74657e-14 -1.20236e-13
-3.93857e-15 1.88509e-14 -9.32081e-14
-8.90054e-15 5.49392e-14 2.1117e-13
6.35565e-15 -3.81014e-14 -1.46474e-13
0.000253173 0.0175932 -0.00966799
-4.51473e-15 1.30456e-14 7.16621e-14
-7.84821e-15 -7.28946e-14 1.85342e-13
0.000596649 0.0127139 -0.0150911
0.000229076 -0.0134669 -0.0157108
1.51065e-15 2.26489e-15 -1.78451e-14
0.000706937 -0.00812324 0.0140897
-0.000429897 0.00596563 -0.00166379
-5.72872e-15 -2.04822e-14 -3.07615e-13
0.00141798 0.00309242 -0.0166467
2.29535e-16 -6.63855e-16 -3.64347e-15
0.000419422 -0.021926 -0.00254182
0.000511716 -0.00973943 -0.0174923
-4.94521e-05 0.0146762 -0.0169151
7.18577e-15 -1.49143e-14 -1.83491e-13
0.000360654 0.0101929 0.0175631
0.00554801 0.00444953 -0.00337734
0.000141216 0.000281404 -0.000407063
-1.81457e-14 8.14354e-15 -1.66091e-13
0.00108944 -0.016177 -0.00665737
0.000568682 -0.0105458 0.00882049
0.000751568 -0.0169762 0.00712237
-1.07571e-14 -1.72598e-15 1.75368e-13
-0.00312542 0.0169767 0.00130347
0.00184372 0.000448113 -0.00481659
0.00454763 9.73431e-05 0.000986415
0.000532959 0.0116106 0.0138305
-9.46171e-16 5.65042e-15 1.50101e-14
6.39293e-16 6.72332e-15 2.00022e-14
0.000345176 0.0155059 0.0111292
0.000213703 -0.00908549 0.0187208
0.000686309 0.00686063 -0.0181555
0.000299489 -0.00614992 -0.0193123
0.00102662 -0.0168063 0.0051759
-7.0736e-15 -4.06747e-14 1.57634e-13
0.00741207 0.00131676 -0.00846625
-8.90218e-05 -0.0214851 0.00718008
0.000192735 0.0210654 0.00468158

VECTORS force float
6.64722e-20 5.39984e-21 1.90582e-21
0.0 0.0 -1.43822e-06
-1.19851e-09 -2.31657e-09 1.19722e-08
-3.35054e-09 -1.32266e-08 -7.88125e-09
-6.11452e-21 -5.82335e-22 2.11758e-22
-1.21488e-07 -1.46137e-08 -9.3452e-08
-2.43257e-20 7.72918e-21 4.65868e-21
1.61052e-19 -6.57774e-21 -1.05879e-21
-1.62257e-09 -1.60777e-08 -7.37495e-09
-1.01909e-21 0.0 0.0
6.51818e-21 1.77348e-21 2.11758e-22
7.12545e-10 8.26028e-10 -1.09022e-08
-1.64063e-08 -3.18982e-08 1.11524e-08
-3.46756e-07 3.08377e-06 1.21091e-07
1.58702e-08 -2.38983e-08 -6.20736e-09
-1.74922e-09 1.33132e-08 -9.90003e-10
-1.37582e-07 -3.35847e-08 6.64033e-08
-1.93362e-19 -8.15005e-20 -2.68933e-20
-9.45977e-10 6.18496e-09 -1.11429e-08
-8.33798e-22 2.64698e-23 0.0
-5.74104e-09 1.53854e-08 1.23567e-08
4.62213e-09 -6.83262e-09 -1.67792e-08
1.05113e-09 1.70666e-08 5.19483e-10
-3.72141e-09 5.5606e-09 -1.03115e-08
-3.31567e-09 7.89531e-08 -4.16853e-08
3.71039e-09 -1.61319e-08 -7.4557e-09
-2.23467e-08 4.66189e-08 -7.19887e-09
-0.0220975 0.0419659 -0.0963443
-1.10914e-10 -9.2508e-09 8.67594e-09
-1.76231e-09 1.10015e-08 7.49593e-10
6.67028e-08 2.98875e-08 -5.89817e-08
6.21434e-09 -1.20463e-10 1.83141e-08
-3.04402e-22 0.0 0.0
-5.85537e-09 -3.99742e-09 -1.03499e-08
0.00136966 -0.000923831 0.00214285
2.20354e-08 -2.91728e-07 5.11762e-07
2.44615e-08 -1.18113e-08 -9.92829e-08
-6.07506e-10 8.28929e-09 9.03095e-09
-1.31479e-08 -5.15833e-08 1.06385e-07
-5.68407e-10 1.13638e-08 -2.39784e-09
-1.76442e-08 3.62774e-08 -3.23187e-08
-2.64698e-23 -1.11299e-20 -2.11758e-22
4.74304e-08 -9.82145e-09 -2.21017e-07
1.25885e-09 7.07048e-10 -4.88325e-09
2.06192e-10 -1.22033e-08 -8.82618e-10
2.4951e-09 2.79856e-08 5.37242e-09
3.57342e-21 -3.70577e-22 -4.23516e-22
2.38228e-22 2.64698e-23 0.0
8.96002e-21 2.5411e-21 2.11758e-22
7.4711e-21 1.40819e-20 -2.75286e-21
4.34435e-20 -2.17052e-21 1.90582e-21
-8.48812e-10 1.01464e-09 -1.36548e-08
0.0 0.0 0.0
0.0 0.0 0.0
-6.20574e-09 3.5521e-10 -2.0469e-08
-5.47056e-10 -1.1764e-08 1.51114e-09
8.07328e-21 1.47172e-20 2.32934e-21
7.30171e-09 3.16181e-08 -6.05283e-08
1.35867e-08 -6.35863e-08 2.23379e-09
-6.74979e-22 -1.83965e-21 0.0
2.50107e-06 -1.85948e-06 9.20937e-06
-1.85288e-22 0.0 0.0
-5.05681e-09 -4.55151e-09 1.05295e-08
1.55998e-08 -1.10171e-09 5.796e-08
-1.07819e-09 -5.90645e-09 -9.7621e-09
-5.29396e-22 -1.04556e-21 0.0
-1.62911e-08 -4.54461e-08 -6.17471e-08
2.56924e-07 4.07818e-08 -1.20087e-06
-4.59351e-07 -9.11705e-08 -4.09905e-07
-2.64698e-23 -5.16161e-22 -2.11758e-22
-1.52077e-08 -3.75802e-08 -5.43138e-09
3.3403e-07 -1.05163e-07 -9.60027e-07
-6.20035e-07 1.82511e-06 -1.56752e-06
2.91168e-22 -5.12852e-23 0.0
1.6063e-07 2.25726e-07 -8.36756e-08
1.22318e-07 -1.96072e-08 -1.45287e-07
1.25601e-06 2.00312e-07 -1.83079e-07
-2.48001e-09 2.2005e-08 4.46754e-09
2.32272e-20 1.00585e-20 -4.02341e-21
-1.45385e-20 1.58819e-21 0.0
-2.12864e-09 1.6142e-08 1.23174e-09
-8.17634e-10 6.96651e-09 1.05548e-08
-2.89897e-09 -6.36503e-09 -1.41774e-08
-1.16064e-09 -1.19223e-08 -3.63996e-09
-1.5372e-06 -3.68739e-06 1.10544e-06
-2.5186e-20 -4.39398e-21 -2.5411e-21
9.10224e-09 8.14444e-09 2.7593e-09
-1.67048e-09 -1.86265e-09 1.08584e-08
-5.61029e-10 8.34671e-09 -9.28063e-09
