# vtk DataFile Version 3.0
LIGGGHTS particles timestep 52000000
ASCII
DATASET POLYDATA
POINTS 88 float
0.0387146 0.0187573 0.00575718
0.0493707 0.0172758 0.00754604
0.0656942 0.0197559 0.0057542
0.102543 0.017821 0.00581645
0.0387828 0.0214812 0.00622724
0.0528342 0.0188212 0.0157804
0.0815251 0.0188155 0.00575115
0.10448 0.0180949 0.00580371
0.0595892 0.0158163 0.0143631
0.0458896 0.0168235 0.00626774
0.057335 0.017914 0.0058854
0.0649918 0.0180926 0.0157163
0.136461 0.0187737 0.0058834
0.0697053 0.0228558 0.0134574
0.0642637 0.0197348 0.005762
0.0830207 0.0197197 0.00608582
0.0793161 0.0192087 0.00581236
0.0170063 0.0201419 0.00601043
0.063196 0.0196694 0.00576595
0.0448733 0.0164686 0.00634571
0.0720781 0.0149006 0.0124801
0.0610259 0.0159012 0.00867229
0.0538544 0.0151309 0.0133339
0.0550096 0.0160226 0.0085616
0.0733986 0.0173479 0.00755423
0.0829173 0.0222111 0.0066532
0.0357086 0.0161117 0.00660683
0.061617 0.0194189 0.0057813
0.0553421 0.0171516 0.00763465
0.0660448 0.0149282 0.0127279
0.0758996 0.0225637 0.0139738
0.0439552 0.0161318 0.00656318
0.0782305 0.0203396 0.00602091
0.0750122 0.0231912 0.0102424
0.0732237 0.018766 0.005768
0.0634825 0.0187014 0.00581291
0.060398 0.0148914 0.0107596
0.0557061 0.0185942 0.00735452
0.0606894 0.0189134 0.00588092
0.0583647 0.0209199 0.0153166
0.0286258 0.0183498 0.00592583
0.0862115 0.0201056 0.00585272
0.0461868 0.0216338 0.0150145
0.0619682 0.017221 0.00607724
0.0594216 0.0165772 0.0150153
0.0238948 0.0168123 0.00667048
0.0470176 0.01787 0.0060864
0.0388539 0.0197419 0.00587248
0.0766607 0.0190533 0.00580856
0.0779381 0.019417 0.00576935
0.0612894 0.0181031 0.0059753
0.0424878 0.0188132 0.00581899
0.0920805 0.0205253 0.0059177
0.0806356 0.0174285 0.00844966
0.0561223 0.0205774 0.00744039
0.102423 0.0196788 0.00582979
0.0453636 0.0157749 0.00687326
0.377398 0.0174666 0.00842885
0.0507369 0.0203921 0.00594173
0.0569688 0.0231176 0.0100488
0.0440263 0.0170728 0.00623272
0.0622634 0.0210608 0.00765174
0.0685935 0.0222045 0.00861615
0.0824665 0.0205479 0.00623259
0.059059 0.0180876 0.00593586
0.0629615 0.017835 0.00594934
0.0316007 0.0183082 0.00603438
0.050648 0.0225184 0.0090481
0.0215463 0.0196109 0.00592744
0.0643309 0.0181561 0.00583847
0.0623985 0.0186635 0.00586235
0.0669707 0.0156806 0.00880946
0.0242602 0.0201274 0.00583803
0.0520577 0.0221021 0.0145773
0.0429894 0.0157964 0.00872923
0.0482351 0.0148483 0.0116603
0.0504712 0.0179279 0.00611076
0.0371638 0.0187263 0.00573865
0.0328558 0.0191954 0.00572294
0.044465 0.0204317 0.00594645
0.0515066 0.0232076 0.012475
0.0660681 0.018771 0.00577597
0.0833983 0.0210192 0.00634375
0.0616749 0.0184691 0.00733778
0.0350698 0.0188001 0.00572051
0.047329 0.0168561 0.0152248
0.0667523 0.0199335 0.00579279
0.058659 0.0198197 0.0156971

VERTICES 88 176
1 0
1 1
1 2
1 3
1 4
1 5
1 6
1 7
1 8
1 9
1 10
1 11
1 12
1 13
1 14
1 15
1 16
1 17
1 18
1 19
1 20
1 21
1 22
1 23
1 24
1 25
1 26
1 27
1 28
1 29
1 30
1 31
1 32
1 33
1 34
1 35
1 36
1 37
1 38
1 39
1 40
1 41
1 42
1 43
1 44
1 45
1 46
1 47
1 48
1 49
1 50
1 51
1 52
1 53
1 54
1 55
1 56
1 57
1 58
1 59
1 60
1 61
1 62
1 63
1 64
1 65
1 66
1 67
1 68
1 69
1 70
1 71
1 72
1 73
1 74
1 75
1 76
1 77
1 78
1 79
1 80
1 81
1 82
1 83
1 84
1 85
1 86
1 87

POINT_DATA 88
SCALARS id int 1
LOOKUP_TABLE default
1
2
3
8
9
14
18
26
28
32
34
38
46
48
54
56
59
64
65
66
68
70
74
82
83
86
88
89
90
93
100
106
107
108
109
112
113
121
124
125
126
127
129
132
134
137
142
146
149
159
160
163
165
174
182
187
189
193
195
198
201
209
213
215
221
223
226
227
229
240
242
245
246
256
257
258
270
273
274
277
279
280
281
283
291
293
296
298

SCALARS type int 1
LOOKUP_TABLE default
1
1
1
1
1
1
1
1
1
1
1
1
1
1
1
1
1
1
1
1
1
1
1
1
1
1
1
1
1
1
1
1
1
1
1
1
1
1
1
1
1
1
1
1
1
1
1
1
1
1
1
1
1
1
1
1
1
1
1
1
1
1
1
1
1
1
1
1
1
1
1
1
1
1
1
1
1
1
1
1
1
1
1
1
1
1
1
1

SCALARS radius float 1
LOOKUP_TABLE default
0.0005
0.0005
0.0005
0.0005
0.0005
0.0005
0.0005
0.0005
0.0005
0.0005
0.0005
0.0005
0.0005
0.0005
0.0005
0.0005
0.0005
0.0005
0.0005
0.0005
0.0005
0.0005
0.0005
0.0005
0.0005
0.0005
0.0005
0.0005
0.0005
0.0005
0.0005
0.0005
0.0005
0.0005
0.0005
0.0005
0.0005
0.0005
0.0005
0.0005
0.0005
0.0005
0.0005
0.0005
0.0005
0.0005
0.0005
0.0005
0.0005
0.0005
0.0005
0.0005
0.0005
0.0005
0.0005
0.0005
0.0005
0.0005
0.0005
0.0005
0.0005
0.0005
0.0005
0.0005
0.0005
0.0005
0.0005
0.0005
0.0005
0.0005
0.0005
0.0005
0.0005
0.0005
0.0005
0.0005
0.0005
0.0005
0.0005
0.0005
0.0005
0.0005
0.0005
0.0005
0.0005
0.0005
0.0005
0.0005

SCALARS mass float 1
LOOKUP_TABLE default
1.46608e-07
1.46608e-07
1.46608e-07
1.46608e-07
1.46608e-07
1.46608e-07
1.46608e-07
1.46608e-07
1.46608e-07
1.46608e-07
1.46608e-07
1.46608e-07
1.46608e-07
1.46608e-07
1.46608e-07
1.46608e-07
1.46608e-07
1.46608e-07
1.46608e-07
1.46608e-07
1.46608e-07
1.46608e-07
1.46608e-07
1.46608e-07
1.46608e-07
1.46608e-07
1.46608e-07
1.46608e-07
1.46608e-07
1.46608e-07
1.46608e-07
1.46608e-07
1.46608e-07
1.46608e-07
1.46608e-07
1.46608e-07
1.46608e-07
1.46608e-07
1.46608e-07
1.46608e-07
1.46608e-07
1.46608e-07
1.46608e-07
1.46608e-07
1.46608e-07
1.46608e-07
1.46608e-07
1.46608e-07
1.46608e-07
1.46608e-07
1.46608e-07
1.46608e-07
1.46608e-07
1.46608e-07
1.46608e-07
1.46608e-07
1.46608e-07
1.46608e-07
1.46608e-07
1.46608e-07
1.46608e-07
1.46608e-07
1.46608e-07
1.46608e-07
1.46608e-07
1.46608e-07
1.46608e-07
1.46608e-07
1.46608e-07
1.46608e-07
1.46608e-07
1.46608e-07
1.46608e-07
1.46608e-07
1.46608e-07
1.46608e-07
1.46608e-07
1.46608e-07
1.46608e-07
1.46608e-07
1.46608e-07
1.46608e-07
1.46608e-07
1.46608e-07
1.46608e-07
1.46608e-07
1.46608e-07
1.46608e-07

VECTORS velocity float
-8.68244e-15 7.85696e-14 2.00897e-13
0.00149023 -0.00955262 0.00356445
-1.2936e-15 3.97339e-14 -1.45084e-13
-9.77751e-16 -4.3525e-15 -1.20042e-13
-2.7679e-19 1.05562e-18 -5.70615e-18
0.0001616 0.0213008 0.00127914
1.78642e-20 7.25055e-21 -2.82648e-20
1.4966e-14 2.23925e-14 -1.76073e-13
0.000353403 0.0090646 0.01149
-4.5274e-15 -2.52971e-14 -1.74151e-13
1.58151e-15 3.90936e-15 9.33129e-14
0.00119405 0.0141752 0.00234573
2.02245e-15 3.15356e-15 -2.90495e-14
0.00153327 0.00567264 -0.0154422
-1.6247e-15 4.68993e-14 -1.71253e-13
-1.58245e-14 -4.43645e-14 1.90571e-13
1.53421e-14 5.18618e-14 2.19687e-13
1.30175e-14 5.25346e-15 -1.07338e-13
-2.00626e-15 -2.77176e-14 7.68519e-14
-2.60814e-17 -1.41621e-16 -9.78786e-16
0.00066911 0.00184289 0.0166573
2.39206e-05 -0.0152713 0.0157203
0.00103087 0.00685016 0.01797
0.000140694 -0.0133967 0.0150075
0.000205677 -0.0173007 0.0051333
2.53258e-15 -1.23273e-14 5.62302e-14
-4.55434e-15 2.81905e-14 7.49118e-14
-4.36741e-15 -1.94118e-14 -1.3904e-13
0.00123521 -0.0118809 0.00496893
0.000471619 0.00613959 0.0193675
0.000501548 0.0104847 -0.0165624
1.95878e-16 -2.75167e-15 -2.89974e-15
8.02824e-15 2.21971e-14 -4.15402e-14
0.00028681 -0.00572553 -0.0205496
1.05011e-14 -5.92633e-14 -1.63355e-13
3.01944e-15 7.45866e-15 5.88939e-14
0.000254728 -0.00300227 0.0204209
0.00110504 -0.0225431 0.00116979
-5.19349e-15 -2.31827e-14 -1.66018e-13
0.00170398 0.0148023 -0.00788939
-1.9446e-14 1.83998e-16 -2.28118e-13
2.60499e-15 -1.48761e-14 1.99836e-13
0.00113449 0.0142644 -0.0107952
7.77921e-15 3.47373e-14 2.48762e-13
0.000179653 0.0176837 0.0128103
-1.55908e-14 -3.19686e-14 -1.04791e-13
-3.12607e-15 -1.74657e-14 -1.20236e-13
-2.83278e-15 1.34605e-14 -6.65669e-14
-9.17925e-15 5.49329e-14 2.11159e-13
2.17461e-15 -1.31185e-14 -5.03511e-14
-6.03837e-15 -2.69493e-14 -1.92995e-13
-4.51473e-15 1.30456e-14 7.16621e-14
-7.84817e-15 -7.28946e-14 1.85342e-13
-0.00204267 -0.000895026 0.00171185
0.00303201 -0.00212483 -0.00314553
1.50996e-15 2.27591e-15 -1.78438e-14
2.74378e-17 -5.64981e-16 -6.90063e-16
2.31368e-05 0.00177724 0.000580613
-5.72571e-15 -2.04834e-14 -3.07615e-13
0.000612012 -0.00710093 -0.018703
2.29712e-16 -6.63864e-16 -3.64347e-15
0.00172378 -0.012948 -0.00930315
0.00054865 -0.0119026 -0.0132795
-1.13753e-14 -3.21133e-14 1.3783e-13
7.17216e-15 -1.49205e-14 -1.83491e-13
7.17293e-15 1.77192e-14 1.39911e-13
1.31703e-14 -4.47428e-14 -1.10001e-13
0.000114694 -0.0118943 -0.0190567
-1.81457e-14 8.13655e-15 -1.66092e-13
-1.13493e-15 -2.80152e-15 -2.21226e-14
-4.35032e-15 -1.94162e-14 -1.3904e-13
0.00164822 -0.00651309 0.00688944
-1.07574e-14 -1.73291e-15 1.75368e-13
0.00179183 0.0085489 -0.00860208
0.000223536 -0.0131806 0.0159644
-0.000208636 0.00132803 0.0210022
-3.69935e-15 -1.32326e-14 -1.98725e-13
3.7985e-15 -1.81874e-14 8.99488e-14
8.76271e-16 5.06752e-15 -1.96346e-14
-3.03583e-15 2.53032e-14 -8.03127e-14
-4.28373e-05 0.00616394 -0.0211811
-5.17115e-16 2.40967e-15 4.1093e-14
2.3685e-14 -4.025e-14 1.90901e-13
0.000262273 -0.0221428 0.00172853
-7.07049e-15 -4.06803e-14 1.57632e-13
5.84618e-05 0.0184846 0.0125843
3.35173e-16 -9.5386e-15 3.4831e-14
0.00142945 0.0250005 -0.00277997

VECTORS force float
0.0 0.0 0.0
9.52255e-07 -1.48354e-06 2.02575e-06
1.97365e-21 0.0 0.0
6.13768e-22 1.32349e-23 0.0
-4.79765e-23 1.48893e-23 0.0
7.85788e-11 6.49417e-09 -1.00464e-08
0.0 0.0 0.0
3.25314e-20 -2.63374e-20 -4.23516e-22
2.47591e-09 -1.23685e-08 -1.74927e-08
4.98955e-21 -3.70577e-22 0.0
2.07268e-19 -1.55775e-19 3.81165e-21
-2.00591e-08 -2.06129e-07 -5.43417e-08
7.54389e-22 -4.32252e-20 -4.65868e-21
6.40361e-08 -3.60296e-07 9.47333e-07
-3.80999e-21 -1.58819e-22 0.0
-5.53218e-21 2.06464e-21 -2.11758e-22
5.38263e-20 -3.39343e-20 2.5411e-21
1.02623e-19 -1.972e-20 1.14349e-20
-1.58819e-22 0.0 0.0
5.29396e-23 -5.29396e-23 0.0
-3.00585e-09 4.56843e-09 -2.25239e-08
-1.28939e-09 5.16094e-09 9.38537e-09
2.51673e-08 -5.76448e-08 -9.86037e-08
-1.09042e-09 2.68141e-09 1.39407e-08
3.94267e-09 2.51567e-08 7.7682e-09
1.00188e-20 -3.70577e-22 -4.23516e-22
-1.14085e-19 -3.23461e-20 5.71747e-21
-2.56889e-20 8.28504e-21 -2.11758e-22
6.01055e-09 3.32661e-08 -1.68477e-08
-1.56047e-09 1.33735e-08 4.11376e-09
-3.0071e-09 -3.39908e-09 -1.46957e-08
1.19114e-22 -1.05879e-22 0.0
2.64698e-23 -2.11758e-22 0.0
-1.11394e-10 -1.11354e-08 -8.57843e-10
-1.17936e-19 2.37169e-20 -1.71524e-20
-4.23516e-22 1.85288e-22 0.0
-1.00366e-09 1.02202e-08 7.30248e-09
-7.88685e-10 -1.96211e-09 1.37899e-08
1.22555e-20 -2.35581e-21 -2.11758e-22
-1.30974e-08 2.76369e-08 -2.82519e-08
-2.64698e-23 -5.27431e-21 0.0
2.5808e-22 -1.05879e-22 2.11758e-22
-8.33292e-09 1.31861e-08 -2.54864e-08
2.17979e-20 -2.8058e-21 -2.11758e-22
-1.40137e-09 1.02598e-08 -7.93403e-09
-4.02341e-21 6.88214e-22 4.23516e-22
-9.66147e-22 7.94093e-23 0.0
-8.66885e-22 0.0 0.0
8.48356e-21 -1.42937e-21 6.35275e-22
-7.94093e-23 1.58819e-22 2.11758e-22
-6.61744e-23 0.0 0.0
0.0 5.29396e-23 0.0
-1.45584e-22 0.0 0.0
9.73947e-08 -4.2973e-08 7.92656e-10
5.2576e-08 5.88999e-07 7.20619e-08
-2.4061e-20 1.65436e-20 2.11758e-22
-5.29396e-23 1.05879e-22 2.11758e-22
3.0014e-10 -5.98576e-08 8.66475e-09
1.17129e-21 -7.94093e-23 0.0
-3.64255e-09 -1.34382e-08 -7.03702e-09
-7.94093e-23 1.05879e-22 0.0
1.04257e-08 5.49385e-08 8.38687e-08
7.65809e-08 -1.14904e-07 -1.45262e-07
-4.82941e-20 -1.27055e-21 -4.02341e-21
1.98126e-20 -2.71315e-21 1.05879e-21
1.05879e-22 5.29396e-23 0.0
-3.83812e-21 4.02341e-21 -4.23516e-22
4.02403e-10 -1.15284e-08 3.31432e-09
0.0 0.0 0.0
2.55433e-21 -1.32349e-22 -2.11758e-22
-1.32349e-23 -5.29396e-23 0.0
-3.11041e-08 -2.04947e-07 6.92251e-09
0.0 0.0 0.0
-2.07943e-05 -3.16565e-06 -1.76966e-05
-8.78606e-10 3.76108e-09 1.15713e-08
2.21946e-09 1.20006e-08 3.96363e-09
9.92617e-22 -9.26442e-23 0.0
-1.30628e-20 -6.56451e-21 -1.48231e-21
0.0 0.0 0.0
-6.82325e-20 -6.77626e-21 -2.11758e-22
-1.34687e-09 -9.89985e-09 -6.09054e-09
-4.15576e-21 -7.27919e-22 0.0
2.16258e-20 5.3469e-21 -2.11758e-21
-3.71291e-09 -1.48256e-09 1.24412e-08
-2.27111e-20 -5.50571e-21 -2.32934e-21
-1.52665e-10 8.85103e-09 -8.27989e-09
-1.6944e-20 3.17637e-22 2.11758e-22
-2.23643e-07 4.98764e-07 -7.15076e-08
