# vtk DataFile Version 3.0
LIGGGHTS particles timestep 45600000
ASCII
DATASET POLYDATA
POINTS 88 float
0.0387146 0.0187573 0.00575718
0.0435606 0.023392 0.0115313
0.0655998 0.0196785 0.0057339
0.102543 0.017821 0.00581645
0.0387828 0.0214812 0.00622724
0.0470669 0.0154827 0.00925986
0.0815251 0.0188155 0.00575115
0.10448 0.0180949 0.00580371
0.0560889 0.0177689 0.01565
0.0458896 0.0168235 0.00626774
0.057335 0.017914 0.0058854
0.0583836 0.0148636 0.0120656
0.0608309 0.0222272 0.00863982
0.0640041 0.0155152 0.0138468
0.064303 0.0192381 0.00572672
0.0830207 0.0197197 0.00608582
0.0793161 0.0192087 0.00581236
0.0170063 0.0201419 0.00601043
0.0632091 0.0196192 0.00574818
0.0448733 0.0164686 0.00634571
0.065599 0.0172218 0.00760482
0.0550405 0.0227245 0.00923732
0.0478529 0.0183237 0.0072826
0.0491332 0.0229789 0.00990978
0.0661271 0.0193784 0.00723595
0.0745131 0.0200179 0.0058526
0.0357086 0.0161117 0.00660683
0.061915 0.0187982 0.00585866
0.0495429 0.0233537 0.0115132
0.0594079 0.0164299 0.00820024
0.0691904 0.018477 0.0157148
0.0439552 0.0161318 0.00656318
0.0575694 0.0167407 0.0151095
0.0681751 0.0224097 0.0142007
0.0566439 0.0207442 0.0154601
0.053736 0.0178214 0.0073718
0.0542833 0.0200927 0.00731058
0.0502008 0.0223818 0.014283
0.0607121 0.0186881 0.00591167
0.0521799 0.0150288 0.0129641
0.0286258 0.0183498 0.00592583
0.0862115 0.0201056 0.00585272
0.0406512 0.0148069 0.0110877
0.0568835 0.0196883 0.0157514
0.0533046 0.0161058 0.00840926
0.0238948 0.0168123 0.00667048
0.0470176 0.01787 0.0060864
0.0388539 0.0197419 0.00587248
0.0766607 0.0190533 0.00580856
0.0779397 0.0194308 0.00576583
0.0579369 0.0156724 0.0141572
0.0424878 0.0188132 0.00581899
0.0920805 0.0205253 0.0059177
0.0608272 0.0175701 0.00838304
0.0504072 0.021826 0.0147612
0.102423 0.0196788 0.00582979
0.0453636 0.0157749 0.00687326
0.377395 0.0174827 0.00842503
0.0507369 0.0203921 0.00594173
0.0505927 0.0209501 0.0153572
0.0440263 0.0170728 0.00623272
0.0560801 0.0226359 0.0138761
0.0619036 0.0229047 0.0132744
0.0824671 0.0205532 0.00623389
0.059059 0.0180876 0.00593586
0.0591192 0.0156272 0.00900145
0.0316007 0.0183082 0.00603438
0.0447362 0.0204104 0.0154934
0.0215463 0.0196109 0.00592744
0.0613156 0.0232851 0.0107082
0.0602232 0.0198025 0.00734023
0.0604771 0.0210333 0.00765567
0.0242602 0.0201274 0.00583803
0.0459651 0.0155539 0.0139857
0.0366901 0.0217938 0.00814007
0.0426441 0.0215985 0.00805431
0.0504712 0.0179279 0.00611076
0.0371638 0.0187263 0.00573865
0.0328558 0.0191954 0.00572294
0.044465 0.0204317 0.00594645
0.0456864 0.0163442 0.0148677
0.0649374 0.0181463 0.00580862
0.0829947 0.0213806 0.00646753
0.0553703 0.023307 0.0108036
0.0350698 0.0188001 0.00572051
0.0416417 0.0174398 0.00750787
0.0667523 0.0199335 0.00579279
0.0531653 0.0156333 0.00904369

VERTICES 88 176
1 0
1 1
1 2
1 3
1 4
1 5
1 6
1 7
1 8
1 9
1 10
1 11
1 12
1 13
1 14
1 15
1 16
1 17
1 18
1 19
1 20
1 21
1 22
1 23
1 24
1 25
1 26
1 27
1 28
1 29
1 30
1 31
1 32
1 33
1 34
1 35
1 36
1 37
1 38
1 39
1 40
1 41
1 42
1 43
1 44
1 45
1 46
1 47
1 48
1 49
1 50
1 51
1 52
1 53
1 54
1 55
1 56
1 57
1 58
1 59
1 60
1 61
1 62
1 63
1 64
1 65
1 66
1 67
1 68
1 69
1 70
1 71
1 72
1 73
1 74
1 75
1 76
1 77
1 78
1 79
1 80
1 81
1 82
1 83
1 84
1 85
1 86
1 87

POINT_DATA 88
SCALARS id int 1
LOOKUP_TABLE default
1
2
3
8
9
14
18
26
28
32
34
38
46
48
54
56
59
64
65
66
68
70
74
82
83
86
88
89
90
93
100
106
107
108
109
112
113
121
124
125
126
127
129
132
134
137
142
146
149
159
160
163
165
174
182
187
189
193
195
198
201
209
213
215
221
223
226
227
229
240
242
245
246
256
257
258
270
273
274
277
279
280
281
283
291
293
296
298

SCALARS type int 1
LOOKUP_TABLE default
1
1
1
1
1
1
1
1
1
1
1
1
1
1
1
1
1
1
1
1
1
1
1
1
1
1
1
1
1
1
1
1
1
1
1
1
1
1
1
1
1
1
1
1
1
1
1
1
1
1
1
1
1
1
1
1
1
1
1
1
1
1
1
1
1
1
1
1
1
1
1
1
1
1
1
1
1
1
1
1
1
1
1
1
1
1
1
1

SCALARS radius float 1
LOOKUP_TABLE default
0.0005
0.0005
0.0005
0.0005
0.0005
0.0005
0.0005
0.0005
0.0005
0.0005
0.0005
0.0005
0.0005
0.0005
0.0005
0.0005
0.0005
0.0005
0.0005
0.0005
0.0005
0.0005
0.0005
0.0005
0.0005
0.0005
0.0005
0.0005
0.0005
0.0005
0.0005
0.0005
0.0005
0.0005
0.0005
0.0005
0.0005
0.0005
0.0005
0.0005
0.0005
0.0005
0.0005
0.0005
0.0005
0.0005
0.0005
0.0005
0.0005
0.0005
0.0005
0.0005
0.0005
0.0005
0.0005
0.0005
0.0005
0.0005
0.0005
0.0005
0.0005
0.0005
0.0005
0.0005
0.0005
0.0005
0.0005
0.0005
0.0005
0.0005
0.0005
0.0005
0.0005
0.0005
0.0005
0.0005
0.0005
0.0005
0.0005
0.0005
0.0005
0.0005
0.0005
0.0005
0.0005
0.0005
0.0005
0.0005

SCALARS mass float 1
LOOKUP_TABLE default
1.46608e-07
1.46608e-07
1.46608e-07
1.46608e-07
1.46608e-07
1.46608e-07
1.46608e-07
1.46608e-07
1.46608e-07
1.46608e-07
1.46608e-07
1.46608e-07
1.46608e-07
1.46608e-07
1.46608e-07
1.46608e-07
1.46608e-07
1.46608e-07
1.46608e-07
1.46608e-07
1.46608e-07
1.46608e-07
1.46608e-07
1.46608e-07
1.46608e-07
1.46608e-07
1.46608e-07
1.46608e-07
1.46608e-07
1.46608e-07
1.46608e-07
1.46608e-07
1.46608e-07
1.46608e-07
1.46608e-07
1.46608e-07
1.46608e-07
1.46608e-07
1.46608e-07
1.46608e-07
1.46608e-07
1.46608e-07
1.46608e-07
1.46608e-07
1.46608e-07
1.46608e-07
1.46608e-07
1.46608e-07
1.46608e-07
1.46608e-07
1.46608e-07
1.46608e-07
1.46608e-07
1.46608e-07
1.46608e-07
1.46608e-07
1.46608e-07
1.46608e-07
1.46608e-07
1.46608e-07
1.46608e-07
1.46608e-07
1.46608e-07
1.46608e-07
1.46608e-07
1.46608e-07
1.46608e-07
1.46608e-07
1.46608e-07
1.46608e-07
1.46608e-07
1.46608e-07
1.46608e-07
1.46608e-07
1.46608e-07
1.46608e-07
1.46608e-07
1.46608e-07
1.46608e-07
1.46608e-07
1.46608e-07
1.46608e-07
1.46608e-07
1.46608e-07
1.46608e-07
1.46608e-07
1.46608e-07
1.46608e-07

VECTORS velocity float
-8.68245e-15 7.85637e-14 2.00899e-13
0.0014839 0.000547081 -0.01683
8.33339e-16 -3.73159e-14 1.36241e-13
-9.78476e-16 -4.35254e-15 -1.20042e-13
-2.58002e-19 9.77799e-19 -5.32338e-18
0.00193981 -0.00835368 0.0148805
1.78642e-20 7.25055e-21 -2.82648e-20
1.49852e-14 2.2365e-14 -1.76075e-13
0.000426882 0.00318024 0.00103909
-4.52773e-15 -2.52971e-14 -1.74151e-13
1.53694e-15 3.94126e-15 9.33122e-14
-0.000263646 0.00197286 0.0219546
0.000101552 -0.0140565 -0.0172857
0.00174533 0.0100898 0.021013
3.49536e-15 -1.65679e-14 -2.82398e-13
-1.57934e-14 -4.4383e-14 1.90569e-13
1.53183e-14 5.18646e-14 2.19688e-13
1.30073e-14 5.25588e-15 -1.07339e-13
3.95577e-15 5.47626e-14 -1.51839e-13
-2.62098e-17 -1.41604e-16 -9.7958e-16
0.000669581 -0.0164659 0.00866969
-0.000145714 -0.0102703 -0.0199765
0.00135481 -0.0190845 0.00218294
0.000317713 -0.00801948 -0.0193482
0.000256679 -0.021045 -0.00144515
-9.32707e-15 -5.05892e-14 2.04285e-13
-4.59676e-15 2.81649e-14 7.49189e-14
-4.36109e-15 -1.94129e-14 -1.3904e-13
0.000907246 0.00213815 -0.0185159
0.000309505 -0.0154282 0.013214
0.000176816 0.0207531 0.00246953
1.95672e-16 -2.75165e-15 -2.89971e-15
0.000112651 0.0179725 0.0119802
0.000391567 0.0127737 -0.016171
0.0017216 0.00835516 -0.00503721
0.000794575 -0.0183329 0.00591612
0.000366909 -0.01713 -0.00378045
-0.000512362 -0.0138621 -0.0153931
-5.20944e-15 -2.31807e-14 -1.66017e-13
-0.000137429 0.00352616 0.0147162
-1.94459e-14 1.83032e-16 -2.28119e-13
2.62147e-15 -1.48761e-14 1.99835e-13
0.000315025 -0.00137949 0.0203628
-0.000235331 0.022489 -0.00172857
-0.00844471 -0.0329989 -0.00909133
-1.55943e-14 -3.19692e-14 -1.0479e-13
-3.12775e-15 -1.74654e-14 -1.20236e-13
-2.83264e-15 1.3462e-14 -6.65666e-14
-9.17295e-15 5.49345e-14 2.11159e-13
6.31756e-15 -3.81113e-14 -1.46473e-13
0.000273645 0.0133894 0.0164168
-4.51498e-15 1.30452e-14 7.16622e-14
-7.84776e-15 -7.28946e-14 1.85342e-13
0.000802171 0.0224333 -0.00855394
-0.102409 -0.227549 -0.310854
1.51004e-15 2.26855e-15 -1.78447e-14
2.74344e-17 -5.65495e-16 -6.90593e-16
-3.19643e-05 -0.00475071 0.00179724
-5.72592e-15 -2.04833e-14 -3.07615e-13
0.000209373 0.018796 -0.00930649
2.29657e-16 -6.63868e-16 -3.64347e-15
0.00116309 0.0113898 -0.0148197
0.000361292 0.00786701 -0.0186487
-9.52321e-15 -2.67155e-14 1.14756e-13
7.18604e-15 -1.49144e-14 -1.83491e-13
-4.68895e-06 -0.0137861 0.0170848
1.318e-14 -4.47277e-14 -1.10006e-13
-0.000164921 0.0210482 -0.00722013
-1.81457e-14 8.13653e-15 -1.66092e-13
0.00294364 -0.00469748 -0.0124771
0.000321171 -0.0120396 -0.00164557
0.00148102 -0.00796495 -0.0047899
-1.07579e-14 -1.7329e-15 1.75368e-13
0.000666147 0.0105185 0.0158209
0.00440921 -0.00298162 -0.00275431
0.00243652 -0.012761 -0.00795893
-3.69896e-15 -1.32327e-14 -1.98725e-13
3.8138e-15 -1.81875e-14 8.99481e-14
8.89316e-16 5.06752e-15 -1.9634e-14
-3.24415e-15 2.52653e-14 -8.03169e-14
0.000208679 0.0163849 0.0137385
-5.98453e-15 -1.47701e-14 -1.16641e-13
-2.89601e-16 2.90611e-15 -1.31098e-14
0.000892375 -0.00365458 -0.0184524
-7.08027e-15 -4.06773e-14 1.57633e-13
0.000120924 -0.0201274 0.00766902
3.30667e-16 -9.53897e-15 3.48309e-14
-0.0221643 -0.207636 -0.0883804

VECTORS force float
0.0 0.0 0.0
2.01056e-09 -1.49735e-08 1.91612e-08
3.11045e-19 1.90582e-20 1.69407e-21
-3.30872e-24 6.61744e-24 0.0
5.62483e-23 -1.22423e-22 0.0
-1.16095e-08 -9.88939e-09 3.52643e-08
0.0 0.0 0.0
-5.47924e-21 1.24937e-20 2.11758e-21
9.92599e-09 -1.81056e-07 1.14732e-08
-1.98523e-22 -7.94093e-23 0.0
-5.68075e-20 3.05726e-20 -8.47033e-22
2.47147e-09 1.21083e-08 1.46374e-09
-6.33078e-10 -1.07678e-08 4.54311e-09
-3.46117e-08 -2.29028e-08 2.17272e-08
-1.43301e-20 -1.85288e-22 -2.11758e-22
3.36431e-20 2.50404e-20 8.89385e-21
1.05469e-19 -2.89579e-20 -2.11758e-21
1.86559e-19 -4.13723e-20 2.13876e-20
-4.16568e-20 5.29396e-23 -1.05879e-21
1.05879e-22 -1.05879e-22 -2.11758e-22
-5.01322e-09 -1.10285e-08 1.67024e-08
-6.79534e-10 -1.19335e-08 3.15246e-09
8.79033e-09 6.35667e-09 2.32112e-08
-3.09739e-09 -1.19741e-08 1.75001e-11
-1.10809e-09 -6.71707e-09 1.00627e-08
7.4036e-20 3.97047e-21 4.44692e-21
-9.0831e-20 1.88994e-20 -1.2282e-20
3.28225e-21 3.97047e-22 0.0
2.48003e-10 -2.51473e-08 3.92187e-08
-3.4096e-09 -3.57748e-09 1.6538e-08
-1.22523e-09 8.57155e-09 -9.13077e-09
5.16161e-22 0.0 0.0
-1.28296e-09 1.14542e-08 -4.62176e-09
-1.86071e-09 -4.1764e-09 -1.21736e-08
8.31333e-08 -3.14598e-07 1.6208e-07
-5.02753e-09 -1.18889e-08 1.51722e-08
-4.91645e-10 -1.83263e-08 1.51845e-08
0.00269989 0.00879722 0.0129128
-4.32318e-20 1.19908e-20 -4.23516e-22
4.43816e-09 -2.49307e-09 -6.39897e-08
2.64698e-23 6.28264e-21 2.11758e-22
5.18477e-21 1.41613e-21 0.0
-1.38087e-09 9.66481e-09 8.89652e-09
-9.14988e-10 1.49199e-09 -1.17692e-08
0.0062708 0.0082181 0.00678062
-6.24687e-21 5.29396e-23 8.47033e-22
3.99032e-21 -5.29396e-23 -2.11758e-22
-6.61744e-24 1.11173e-21 2.11758e-22
-1.78142e-20 2.48816e-20 -4.65868e-21
2.20506e-19 6.35275e-21 8.25857e-21
-1.76721e-08 5.64335e-08 7.17279e-08
0.0 0.0 0.0
0.0 0.0 0.0
-1.45651e-08 -7.18221e-08 -2.42581e-08
-0.140462 -0.558406 -0.586153
-3.15784e-20 3.07579e-20 1.27055e-21
-1.05879e-22 5.29396e-23 2.11758e-22
-9.96978e-11 5.04735e-08 -3.54847e-08
3.0341e-21 9.52912e-22 0.0
-2.01994e-10 7.31006e-10 -1.10539e-08
2.24993e-22 -1.05879e-22 0.0
1.26991e-08 -2.83621e-08 1.52285e-08
-1.97155e-09 -7.13878e-09 -1.07954e-08
5.29396e-23 0.0 0.0
5.09543e-22 6.35275e-22 0.0
-7.12538e-10 7.43217e-09 9.68267e-09
-3.75871e-21 -4.02341e-21 4.23516e-22
-2.57711e-08 3.47139e-08 -1.56866e-08
-2.64698e-23 0.0 0.0
-4.28989e-09 -4.27464e-08 -1.22675e-07
6.55803e-09 2.27365e-08 -2.59525e-09
-2.10313e-05 -4.87394e-05 -3.00337e-05
-1.64113e-21 0.0 0.0
-6.06977e-09 5.56649e-08 2.47824e-08
2.18756e-08 9.53204e-08 8.40472e-08
-9.78357e-09 -2.17773e-08 -1.00119e-08
5.12852e-22 2.51463e-22 0.0
-2.10898e-20 5.71747e-21 1.48231e-21
3.57342e-22 0.0 0.0
-3.85949e-19 -2.63639e-20 5.50571e-21
-7.24285e-10 1.0597e-08 -5.03274e-09
-1.68877e-20 8.73503e-21 -2.11758e-22
8.27909e-20 2.2764e-21 -1.27055e-21
-4.83659e-09 -1.34572e-08 -1.25637e-08
2.75815e-20 5.82335e-21 2.75286e-21
-4.85386e-10 -1.64558e-09 1.29889e-08
1.23945e-20 -8.99973e-22 -4.23516e-22
-0.108044 -0.342836 -0.175218
