# vtk DataFile Version 3.0
LIGGGHTS particles timestep 49600000
ASCII
DATASET POLYDATA
POINTS 88 float
0.0387146 0.0187573 0.00575718
0.0473408 0.0171499 0.0153975
0.0656942 0.0197559 0.0057542
0.102543 0.017821 0.00581645
0.0387828 0.0214812 0.00622724
0.0506354 0.0222131 0.0086279
0.0815251 0.0188155 0.00575115
0.10448 0.0180949 0.00580371
0.0573984 0.0233154 0.0114923
0.0458896 0.0168235 0.00626774
0.057335 0.017914 0.0058854
0.0623127 0.020834 0.00755932
0.136461 0.0187737 0.0058834
0.0675595 0.0175449 0.0074728
0.064309 0.0192734 0.00572472
0.0830207 0.0197197 0.00608582
0.0793161 0.0192087 0.00581236
0.0170063 0.0201419 0.00601043
0.0632091 0.0196192 0.00574818
0.0448733 0.0164686 0.00634571
0.0695112 0.0231911 0.0123387
0.0586755 0.0201964 0.01566
0.0517154 0.0230911 0.0128138
0.0528369 0.0192106 0.0157921
0.070722 0.0198517 0.0157075
0.0745131 0.0200179 0.0058526
0.0357086 0.0161117 0.00660683
0.061617 0.0194189 0.0057813
0.053432 0.0168783 0.0152216
0.0636262 0.0231703 0.012537
0.0734131 0.0170725 0.00764835
0.0439552 0.0161318 0.00656318
0.0613216 0.0167712 0.00792438
0.0728139 0.0152304 0.00964493
0.0601633 0.0149826 0.0126268
0.063554 0.0186245 0.00581898
0.0582233 0.0217971 0.0146888
0.0536387 0.0159494 0.0144631
0.0607121 0.0186881 0.00591167
0.0557294 0.0182177 0.00738573
0.0286258 0.0183498 0.00592583
0.0862115 0.0201056 0.00585272
0.0438659 0.0190398 0.00717866
0.0606062 0.0149779 0.0103052
0.0570769 0.0230907 0.0100331
0.0238948 0.0168123 0.00667048
0.0470176 0.01787 0.0060864
0.0388539 0.0197419 0.00587248
0.0766607 0.0190533 0.00580856
0.0779397 0.0194308 0.00576583
0.0617553 0.0183525 0.0073788
0.0424878 0.0188132 0.00581899
0.0920805 0.0205253 0.0059177
0.0835755 0.0181586 0.00816393
0.0539817 0.0150868 0.0132425
0.102423 0.0196788 0.00582979
0.0453636 0.0157749 0.00687326
0.3774 0.0174694 0.00843553
0.0507369 0.0203921 0.00594173
0.0547158 0.0150308 0.0102049
0.0440263 0.0170728 0.00623272
0.0595988 0.0160334 0.0146124
0.0660604 0.0150869 0.0130413
0.0824671 0.0205532 0.00623389
0.059059 0.0180876 0.00593586
0.0640931 0.0172506 0.00599153
0.0316007 0.0183082 0.00603438
0.0482336 0.0148847 0.0120381
0.0215463 0.0196109 0.00592744
0.0649744 0.0177417 0.00585796
0.0623985 0.0186635 0.00586235
0.0648068 0.0194511 0.0157804
0.0242602 0.0201274 0.00583803
0.049585 0.0176153 0.00742506
0.0409001 0.0189787 0.0157274
0.046216 0.0218567 0.0147952
0.0504712 0.0179279 0.00611076
0.0371638 0.0187263 0.00573865
0.0328558 0.0191954 0.00572294
0.044465 0.0204317 0.00594645
0.0492716 0.0167747 0.0079451
0.0660681 0.018771 0.00577597
0.0829947 0.0213806 0.00646753
0.0594236 0.0169122 0.0152387
0.0350698 0.0188001 0.00572051
0.0451307 0.0231177 0.0102296
0.0667523 0.0199335 0.00579279
0.056534 0.021659 0.00805306

VERTICES 88 176
1 0
1 1
1 2
1 3
1 4
1 5
1 6
1 7
1 8
1 9
1 10
1 11
1 12
1 13
1 14
1 15
1 16
1 17
1 18
1 19
1 20
1 21
1 22
1 23
1 24
1 25
1 26
1 27
1 28
1 29
1 30
1 31
1 32
1 33
1 34
1 35
1 36
1 37
1 38
1 39
1 40
1 41
1 42
1 43
1 44
1 45
1 46
1 47
1 48
1 49
1 50
1 51
1 52
1 53
1 54
1 55
1 56
1 57
1 58
1 59
1 60
1 61
1 62
1 63
1 64
1 65
1 66
1 67
1 68
1 69
1 70
1 71
1 72
1 73
1 74
1 75
1 76
1 77
1 78
1 79
1 80
1 81
1 82
1 83
1 84
1 85
1 86
1 87

POINT_DATA 88
SCALARS id int 1
LOOKUP_TABLE default
1
2
3
8
9
14
18
26
28
32
34
38
46
48
54
56
59
64
65
66
68
70
74
82
83
86
88
89
90
93
100
106
107
108
109
112
113
121
124
125
126
127
129
132
134
137
142
146
149
159
160
163
165
174
182
187
189
193
195
198
201
209
213
215
221
223
226
227
229
240
242
245
246
256
257
258
270
273
274
277
279
280
281
283
291
293
296
298

SCALARS type int 1
LOOKUP_TABLE default
1
1
1
1
1
1
1
1
1
1
1
1
1
1
1
1
1
1
1
1
1
1
1
1
1
1
1
1
1
1
1
1
1
1
1
1
1
1
1
1
1
1
1
1
1
1
1
1
1
1
1
1
1
1
1
1
1
1
1
1
1
1
1
1
1
1
1
1
1
1
1
1
1
1
1
1
1
1
1
1
1
1
1
1
1
1
1
1

SCALARS radius float 1
LOOKUP_TABLE default
0.0005
0.0005
0.0005
0.0005
0.0005
0.0005
0.0005
0.0005
0.0005
0.0005
0.0005
0.0005
0.0005
0.0005
0.0005
0.0005
0.0005
0.0005
0.0005
0.0005
0.0005
0.0005
0.0005
0.0005
0.0005
0.0005
0.0005
0.0005
0.0005
0.0005
0.0005
0.0005
0.0005
0.0005
0.0005
0.0005
0.0005
0.0005
0.0005
0.0005
0.0005
0.0005
0.0005
0.0005
0.0005
0.0005
0.0005
0.0005
0.0005
0.0005
0.0005
0.0005
0.0005
0.0005
0.0005
0.0005
0.0005
0.0005
0.0005
0.0005
0.0005
0.0005
0.0005
0.0005
0.0005
0.0005
0.0005
0.0005
0.0005
0.0005
0.0005
0.0005
0.0005
0.0005
0.0005
0.0005
0.0005
0.0005
0.0005
0.0005
0.0005
0.0005
0.0005
0.0005
0.0005
0.0005
0.0005
0.0005

SCALARS mass float 1
LOOKUP_TABLE default
1.46608e-07
1.46608e-07
1.46608e-07
1.46608e-07
1.46608e-07
1.46608e-07
1.46608e-07
1.46608e-07
1.46608e-07
1.46608e-07
1.46608e-07
1.46608e-07
1.46608e-07
1.46608e-07
1.46608e-07
1.46608e-07
1.46608e-07
1.46608e-07
1.46608e-07
1.46608e-07
1.46608e-07
1.46608e-07
1.46608e-07
1.46608e-07
1.46608e-07
1.46608e-07
1.46608e-07
1.46608e-07
1.46608e-07
1.46608e-07
1.46608e-07
1.46608e-07
1.46608e-07
1.46608e-07
1.46608e-07
1.46608e-07
1.46608e-07
1.46608e-07
1.46608e-07
1.46608e-07
1.46608e-07
1.46608e-07
1.46608e-07
1.46608e-07
1.46608e-07
1.46608e-07
1.46608e-07
1.46608e-07
1.46608e-07
1.46608e-07
1.46608e-07
1.46608e-07
1.46608e-07
1.46608e-07
1.46608e-07
1.46608e-07
1.46608e-07
1.46608e-07
1.46608e-07
1.46608e-07
1.46608e-07
1.46608e-07
1.46608e-07
1.46608e-07
1.46608e-07
1.46608e-07
1.46608e-07
1.46608e-07
1.46608e-07
1.46608e-07
1.46608e-07
1.46608e-07
1.46608e-07
1.46608e-07
1.46608e-07
1.46608e-07
1.46608e-07
1.46608e-07
1.46608e-07
1.46608e-07
1.46608e-07
1.46608e-07
1.46608e-07
1.46608e-07
1.46608e-07
1.46608e-07
1.46608e-07
1.46608e-07

VECTORS velocity float
-8.66847e-15 7.85697e-14 2.00898e-13
0.000971036 0.0153661 0.00804149
-1.42041e-15 3.97315e-14 -1.45083e-13
-9.78571e-16 -4.35254e-15 -1.20042e-13
-2.70846e-19 1.05631e-18 -5.71481e-18
0.00085727 -0.0129568 -0.0159427
1.78642e-20 7.25055e-21 -2.82648e-20
1.50346e-14 2.23627e-14 -1.76071e-13
-0.000680159 0.00218796 -0.0227765
-4.52584e-15 -2.52972e-14 -1.74151e-13
1.44901e-15 3.95192e-15 9.33131e-14
0.00290719 -0.011305 -0.00392772
2.02366e-15 3.13831e-15 -2.9051e-14
0.00105587 -0.0173059 0.00574524
-2.89255e-08 3.62825e-08 -1.10852e-09
-1.58055e-14 -4.43545e-14 1.90575e-13
1.52871e-14 5.18597e-14 2.19691e-13
1.3e-14 5.25597e-15 -1.0734e-13
4.00831e-15 5.47573e-14 -1.51839e-13
-2.6803e-17 -1.41818e-16 -9.79154e-16
0.0016874 0.00349355 -0.0219045
0.000684927 0.0192016 -0.00355333
0.000300215 0.00724794 -0.0204015
0.0001136 0.0219632 3.67571e-06
-7.3093e-05 0.0227028 -0.00243731
-9.24961e-15 -5.06014e-14 2.04286e-13
-4.44412e-15 2.82015e-14 7.49143e-14
-4.35554e-15 -1.94147e-14 -1.3904e-13
0.000162471 0.0185341 0.0116583
0.000140878 0.00587226 -0.0211905
0.00105394 -0.0150841 0.0080272
1.9591e-16 -2.75166e-15 -2.89974e-15
0.000623859 -0.0176257 0.0107171
0.00287802 -0.00436495 0.0122615
0.000642557 0.00327974 0.0214401
-4.97691e-10 2.96497e-09 -1.76666e-09
-0.000255247 0.0166133 -0.0138632
0.00131036 0.0110318 0.0111667
-5.29241e-15 -2.3153e-14 -1.66019e-13
0.000220196 -0.0222566 0.00283486
-1.94461e-14 1.84039e-16 -2.28118e-13
2.63885e-15 -1.48694e-14 1.99836e-13
0.00162912 -0.0148244 0.00109195
0.000460309 -0.00432148 0.0189525
0.000390698 -0.00718072 -0.0189286
-1.55866e-14 -3.19694e-14 -1.04791e-13
-3.12591e-15 -1.74652e-14 -1.20236e-13
-2.83264e-15 1.34618e-14 -6.65666e-14
-9.17898e-15 5.4935e-14 2.11159e-13
6.33782e-15 -3.81098e-14 -1.46473e-13
-0.000171838 -0.0222032 0.00190903
-4.51471e-15 1.3045e-14 7.16622e-14
-7.84834e-15 -7.28946e-14 1.85342e-13
-0.00555424 0.0161264 -0.00639084
0.000975058 0.00694473 0.017639
1.51687e-15 2.26764e-15 -1.78442e-14
2.7477e-17 -5.64902e-16 -6.90242e-16
3.39926e-05 0.000519479 -0.000781614
-5.78355e-15 -2.047e-14 -3.07615e-13
3.78153e-05 -0.010605 0.0196217
2.29649e-16 -6.63849e-16 -3.64347e-15
0.00140369 0.00939218 0.0105679
0.000434065 0.00795893 0.0200581
-9.52321e-15 -2.67155e-14 1.14756e-13
7.18596e-15 -1.49146e-14 -1.83491e-13
-9.26932e-16 8.92619e-14 2.24983e-13
1.31812e-14 -4.4736e-14 -1.10002e-13
-9.25087e-05 0.00285841 0.0213847
-1.81457e-14 8.13653e-15 -1.66092e-13
-7.36026e-15 -1.81923e-14 -1.43647e-13
-4.35284e-15 -1.94162e-14 -1.3904e-13
8.93739e-05 0.0210168 -0.00203945
-1.07572e-14 -1.7329e-15 1.75368e-13
0.000347168 -0.02009 0.00764272
0.000149824 0.0214864 0.000632052
0.000733906 0.0146673 -0.0130846
-3.69943e-15 -1.32326e-14 -1.98725e-13
3.88527e-15 -1.81873e-14 8.99451e-14
8.89386e-16 5.06752e-15 -1.9634e-14
-3.09732e-15 2.52955e-14 -8.03128e-14
0.000973452 -0.014276 0.0111114
-5.13257e-16 2.40973e-15 4.1093e-14
-3.49059e-16 2.90193e-15 -1.31093e-14
0.000135894 0.0191554 0.0117735
-7.09608e-15 -4.06761e-14 1.57632e-13
0.00039667 -0.00662015 -0.0195055
3.27873e-16 -9.53899e-15 3.4831e-14
0.000888983 -0.0111085 -0.00831307

VECTORS force float
0.0 0.0 -2.11758e-22
3.3971e-08 1.92443e-08 -7.98904e-09
1.18863e-19 0.0 -1.05879e-21
-1.25731e-22 -6.61744e-24 0.0
-1.24077e-23 2.31611e-23 0.0
-1.84558e-09 -3.33726e-08 -1.49943e-08
0.0 0.0 0.0
-1.34996e-21 -8.81444e-21 -1.69407e-21
-8.02075e-09 -1.0983e-08 -6.99372e-10
6.88214e-22 -3.17637e-22 0.0
6.1936e-20 5.04249e-21 -8.47033e-22
3.91067e-08 1.26623e-07 5.46431e-08
-1.31025e-20 9.95264e-21 4.23516e-22
3.11834e-09 1.16138e-08 1.37598e-08
-7.62609e-12 2.35823e-12 -2.0367e-12
-6.39245e-21 -1.24937e-20 -3.59989e-21
3.68592e-20 -2.05935e-20 2.11758e-21
7.07273e-20 -8.11166e-20 5.50571e-21
8.76811e-20 6.56451e-21 4.87044e-21
1.05879e-22 -5.29396e-23 0.0
9.30742e-09 -2.17175e-09 -1.63557e-08
-3.52551e-09 -1.16844e-08 -1.96656e-08
-5.63292e-09 -9.21189e-09 -8.22723e-09
-7.67688e-10 4.71794e-09 -1.07775e-08
3.0577e-09 4.07557e-10 -1.4225e-08
-1.19299e-19 2.46698e-20 0.0
4.04591e-20 1.16467e-21 2.11758e-21
8.01373e-21 3.12343e-21 -6.35275e-22
-4.01137e-10 9.80573e-09 -7.78143e-09
2.37583e-08 -1.98201e-08 2.99782e-08
-7.56333e-09 -3.1491e-08 4.30067e-08
-3.70577e-22 0.0 0.0
8.3407e-09 1.88608e-08 -1.63812e-08
-1.99717e-08 -3.03094e-08 4.70701e-08
-3.16989e-09 6.81766e-09 4.96177e-09
3.64069e-11 -4.75906e-11 5.9114e-12
-2.42698e-09 -4.64623e-09 -1.26843e-08
-7.71733e-09 1.06393e-08 5.66346e-09
-3.41129e-20 1.1382e-20 -6.35275e-22
-3.21069e-09 -1.9131e-09 1.0402e-08
-5.29396e-23 -8.34708e-21 -2.11758e-22
2.52389e-20 1.04953e-20 6.35275e-22
-1.24029e-08 -4.8967e-08 7.04449e-09
-2.84533e-09 7.84069e-09 1.45399e-08
-4.49382e-09 -1.52633e-08 -1.03487e-08
-9.52912e-22 -1.16467e-21 4.23516e-22
1.85288e-22 -2.64698e-23 0.0
-6.61744e-24 1.58819e-21 2.11758e-22
-4.25502e-21 1.00585e-21 -1.27055e-21
-2.91849e-19 -7.26331e-20 5.71747e-21
-1.29492e-10 -9.0926e-10 1.19277e-08
-3.97047e-23 0.0 0.0
0.0 0.0 0.0
1.79667e-07 -1.5206e-07 7.82979e-09
-9.04674e-10 1.34166e-08 -5.66353e-10
2.73698e-20 -7.25272e-21 1.48231e-21
0.0 0.0 0.0
4.1833e-11 3.5229e-08 -3.62982e-08
-1.72302e-19 4.02605e-20 6.35275e-22
-4.3718e-08 1.04101e-09 -2.84149e-08
-1.98523e-22 0.0 0.0
-1.48216e-08 7.54944e-09 -4.28017e-08
-7.0695e-09 8.00743e-09 6.14952e-09
5.29396e-23 0.0 0.0
-1.2507e-21 -7.54389e-22 2.11758e-22
1.08774e-21 1.05879e-22 -2.11758e-22
3.22931e-21 2.11758e-21 -8.47033e-22
9.95525e-10 1.23492e-08 3.11393e-09
0.0 0.0 0.0
6.06158e-21 -1.58819e-22 -4.23516e-22
0.0 0.0 0.0
-1.23084e-10 5.87816e-09 -1.11557e-08
-3.44107e-22 0.0 0.0
-3.61371e-10 -9.73911e-08 4.3247e-08
-1.36296e-09 4.75992e-09 -1.07586e-08
-1.2417e-08 3.60853e-08 -1.80964e-08
-2.91168e-22 -7.14684e-22 0.0
4.25376e-19 4.39398e-21 -1.73642e-20
-1.11173e-21 0.0 0.0
2.09541e-19 3.16579e-20 2.32934e-21
-1.34797e-08 -1.88474e-08 1.98245e-08
4.7778e-21 1.6676e-21 0.0
2.19765e-20 -2.06464e-21 -1.05879e-21
-1.23824e-09 1.19052e-08 -8.19396e-09
-3.85532e-20 5.82335e-22 -1.48231e-21
-3.78527e-09 -1.34086e-08 -4.84704e-09
-8.72841e-21 7.41154e-22 4.23516e-22
-5.07539e-09 1.35203e-10 2.16013e-08
