# vtk DataFile Version 3.0
LIGGGHTS particles timestep 7600000
ASCII
DATASET POLYDATA
POINTS 154 float
0.0225515 0.0239048 0.0147245
0.0208354 0.014435 0.0124747
0.0295293 0.0233803 0.0111393
0.0210242 0.0237615 0.01688
0.0174062 0.0151858 0.0150899
0.0303214 0.019558 0.0157532
0.0427538 0.0186075 0.0058732
0.017696 0.0240643 0.0129716
0.0179298 0.02336 0.0110163
0.0249279 0.0172316 0.0155548
0.0208779 0.0240321 0.012914
0.08261 0.0191091 0.00590955
0.0167978 0.014217 0.0135
0.0192433 0.0229386 0.0134556
0.0224537 0.0227206 0.0092941
0.0191311 0.0143657 0.0157582
0.020743 0.0147515 0.0111197
0.0163558 0.0233124 0.0151863
0.0198477 0.0145456 0.0126197
0.0422303 0.0177762 0.006064
0.0229346 0.0147111 0.0144511
0.0294121 0.0228974 0.0133459
0.0229933 0.0176119 0.0165662
0.0212614 0.0242709 0.014047
0.0216677 0.0238761 0.0133276
0.0260609 0.0188966 0.0170941
0.0209275 0.0146124 0.0143045
0.0216256 0.0148437 0.0129315
0.027525 0.0193856 0.00719773
0.0183212 0.0243933 0.0136492
0.0198768 0.0245257 0.0135645
0.0265307 0.0155336 0.00896724
0.0315312 0.0152371 0.0133827
0.0284886 0.0228216 0.00932891
0.0202017 0.0199636 0.0158512
0.0272298 0.017957 0.00733412
0.0318441 0.0147948 0.0118935
0.0275325 0.0162925 0.00819576
0.0199348 0.0145063 0.0143634
0.0209311 0.0163779 0.00806436
0.0179526 0.01447 0.01553
0.0185969 0.023955 0.0124007
0.0182587 0.0148014 0.0146376
0.0289987 0.0233481 0.0118486
0.0268454 0.0165816 0.00802166
0.0133189 0.0211214 0.0154485
0.0296934 0.0220985 0.0145484
0.0219553 0.014997 0.0148253
0.0179899 0.0233493 0.0124666
0.0226834 0.0207264 0.0165042
0.0205934 0.0149766 0.013293
0.0287167 0.0232353 0.0103031
0.0175782 0.0234637 0.0116509
0.0312986 0.0156784 0.0142036
0.0226113 0.0230423 0.00979266
0.0191145 0.015146 0.015133
0.0200257 0.0240523 0.012509
0.030024 0.0209678 0.0153204
0.0210631 0.0163302 0.0150141
0.0190917 0.0165501 0.0151744
0.0212156 0.0179703 0.00735051
0.0192711 0.0233766 0.0147173
0.0194243 0.0224446 0.0143891
0.0197568 0.0237874 0.0134202
0.0183462 0.0198732 0.0158673
0.0244291 0.0190492 0.016581
0.0152008 0.014717 0.0146453
0.0185237 0.023426 0.0116733
0.0280447 0.0215673 0.00797148
0.0204408 0.0152449 0.00944966
0.0235741 0.0226302 0.0151736
0.0282469 0.0222475 0.00860021
0.0191711 0.02425 0.0142405
0.0198201 0.0234513 0.0201017
0.0211825 0.0155795 0.0142881
0.0176806 0.0143736 0.0139427
0.017249 0.0232442 0.0127948
0.0203397 0.0149698 0.0102645
0.0310702 0.0164551 0.0149127
0.0227176 0.0232477 0.0104659
0.0198097 0.0217782 0.0150285
0.0161251 0.0236681 0.0140638
0.0307543 0.0177635 0.0155994
0.0150846 0.0152561 0.0138112
0.0199374 0.0170075 0.0154493
0.0186112 0.0186685 0.0159314
0.0168582 0.0146849 0.0144191
0.0168976 0.0240064 0.0135267
0.0183131 0.0231075 0.0148356
0.0159583 0.0144623 0.0140441
0.0179031 0.0217884 0.0150209
0.0170487 0.0234526 0.0120918
0.0236479 0.0151182 0.0150216
0.0181101 0.0209529 0.0155299
0.0247078 0.0182446 0.0158767
0.0154846 0.0236496 0.0148318
0.0181542 0.0140288 0.0131323
0.0188538 0.0236238 0.0137785
0.0160899 0.0150801 0.0149251
0.0474618 0.0192773 0.00593797
0.0246322 0.0207179 0.0169068
0.0241844 0.0172515 0.0164745
0.022082 0.01444 0.0140044
0.0255691 0.0179872 0.0163178
0.0177117 0.0224875 0.0143321
0.0210179 0.0149788 0.0152314
0.0188254 0.0176978 0.0157445
0.0230565 0.0233757 0.0143443
0.018005 0.0162355 0.0261937
0.0256699 0.0205217 0.0156361
0.0202627 0.0158812 0.0146185
0.0261302 0.0148252 0.0106978
0.0199126 0.0146941 0.0116336
0.0205467 0.0235869 0.0142346
0.0585019 0.0190661 0.00583452
0.0195935 0.0149105 0.0135147
0.0190943 0.0242565 0.0130933
0.0191481 0.0139689 0.0130412
0.0230464 0.0233638 0.0120173
0.0227335 0.0154267 0.0152833
0.0188342 0.0232969 0.0128244
0.0235752 0.022522 0.0142472
0.0249991 0.0202595 0.0159896
0.013787 0.0218595 0.0149626
0.0231001 0.0234036 0.0111728
0.0252809 0.0215779 0.0166188
0.0242452 0.0200111 0.0159394
0.0216358 0.0198432 0.00726221
0.0210862 0.0141189 0.0134486
0.0253802 0.0169472 0.0164
0.023356 0.02343 0.015396
0.0248518 0.0213264 0.0157089
0.0219299 0.0214247 0.0161909
0.0217221 0.0156894 0.015534
0.023773 0.0212422 0.0163713
0.0194982 0.0192592 0.0159502
0.0201167 0.0139008 0.013335
0.0176417 0.0183693 0.0284351
0.0182308 0.0230185 0.0134382
0.0146738 0.023069 0.014901
0.0174219 0.0232368 0.0137372
0.0278527 0.0206603 0.00752976
0.0240424 0.0157966 0.0156416
0.0217394 0.0234586 0.0143604
0.0250807 0.0163947 0.0148988
0.0254702 0.0189427 0.0159424
0.0176397 0.0239342 0.0144647
0.0240177 0.0216904 0.0152724
0.0210437 0.0171625 0.00761438
0.0315237 0.0185201 0.00593899
0.0193925 0.0155455 0.0142597
0.0204795 0.0182018 0.0158631
0.0208133 0.0172593 0.0158608
0.0188544 0.0215306 0.0151898

VERTICES 154 308
1 0
1 1
1 2
1 3
1 4
1 5
1 6
1 7
1 8
1 9
1 10
1 11
1 12
1 13
1 14
1 15
1 16
1 17
1 18
1 19
1 20
1 21
1 22
1 23
1 24
1 25
1 26
1 27
1 28
1 29
1 30
1 31
1 32
1 33
1 34
1 35
1 36
1 37
1 38
1 39
1 40
1 41
1 42
1 43
1 44
1 45
1 46
1 47
1 48
1 49
1 50
1 51
1 52
1 53
1 54
1 55
1 56
1 57
1 58
1 59
1 60
1 61
1 62
1 63
1 64
1 65
1 66
1 67
1 68
1 69
1 70
1 71
1 72
1 73
1 74
1 75
1 76
1 77
1 78
1 79
1 80
1 81
1 82
1 83
1 84
1 85
1 86
1 87
1 88
1 89
1 90
1 91
1 92
1 93
1 94
1 95
1 96
1 97
1 98
1 99
1 100
1 101
1 102
1 103
1 104
1 105
1 106
1 107
1 108
1 109
1 110
1 111
1 112
1 113
1 114
1 115
1 116
1 117
1 118
1 119
1 120
1 121
1 122
1 123
1 124
1 125
1 126
1 127
1 128
1 129
1 130
1 131
1 132
1 133
1 134
1 135
1 136
1 137
1 138
1 139
1 140
1 141
1 142
1 143
1 144
1 145
1 146
1 147
1 148
1 149
1 150
1 151
1 152
1 153

POINT_DATA 154
SCALARS id int 1
LOOKUP_TABLE default
1
2
3
4
6
8
9
13
14
15
17
18
19
20
21
23
24
26
28
32
33
34
35
36
38
40
42
46
48
49
52
54
56
59
64
65
66
68
70
74
75
76
82
83
86
88
89
90
91
92
93
96
98
100
101
106
107
108
109
110
111
112
113
115
117
119
121
122
124
125
126
127
129
130
131
132
134
137
142
143
146
147
149
155
156
159
160
161
163
165
169
171
172
174
177
178
180
182
186
187
188
189
192
193
194
195
198
201
209
213
214
215
216
217
221
223
226
227
229
235
239
240
242
243
245
246
254
255
256
257
258
262
264
266
268
269
270
271
273
274
275
277
278
279
280
281
282
283
285
291
293
296
297
298

SCALARS type int 1
LOOKUP_TABLE default
1
1
1
1
1
1
1
1
1
1
1
1
1
1
1
1
1
1
1
1
1
1
1
1
1
1
1
1
1
1
1
1
1
1
1
1
1
1
1
1
1
1
1
1
1
1
1
1
1
1
1
1
1
1
1
1
1
1
1
1
1
1
1
1
1
1
1
1
1
1
1
1
1
1
1
1
1
1
1
1
1
1
1
1
1
1
1
1
1
1
1
1
1
1
1
1
1
1
1
1
1
1
1
1
1
1
1
1
1
1
1
1
1
1
1
1
1
1
1
1
1
1
1
1
1
1
1
1
1
1
1
1
1
1
1
1
1
1
1
1
1
1
1
1
1
1
1
1
1
1
1
1
1
1

SCALARS radius float 1
LOOKUP_TABLE default
0.0005
0.0005
0.0005
0.0005
0.0005
0.0005
0.0005
0.0005
0.0005
0.0005
0.0005
0.0005
0.0005
0.0005
0.0005
0.0005
0.0005
0.0005
0.0005
0.0005
0.0005
0.0005
0.0005
0.0005
0.0005
0.0005
0.0005
0.0005
0.0005
0.0005
0.0005
0.0005
0.0005
0.0005
0.0005
0.0005
0.0005
0.0005
0.0005
0.0005
0.0005
0.0005
0.0005
0.0005
0.0005
0.0005
0.0005
0.0005
0.0005
0.0005
0.0005
0.0005
0.0005
0.0005
0.0005
0.0005
0.0005
0.0005
0.0005
0.0005
0.0005
0.0005
0.0005
0.0005
0.0005
0.0005
0.0005
0.0005
0.0005
0.0005
0.0005
0.0005
0.0005
0.0005
0.0005
0.0005
0.0005
0.0005
0.0005
0.0005
0.0005
0.0005
0.0005
0.0005
0.0005
0.0005
0.0005
0.0005
0.0005
0.0005
0.0005
0.0005
0.0005
0.0005
0.0005
0.0005
0.0005
0.0005
0.0005
0.0005
0.0005
0.0005
0.0005
0.0005
0.0005
0.0005
0.0005
0.0005
0.0005
0.0005
0.0005
0.0005
0.0005
0.0005
0.0005
0.0005
0.0005
0.0005
0.0005
0.0005
0.0005
0.0005
0.0005
0.0005
0.0005
0.0005
0.0005
0.0005
0.0005
0.0005
0.0005
0.0005
0.0005
0.0005
0.0005
0.0005
0.0005
0.0005
0.0005
0.0005
0.0005
0.0005
0.0005
0.0005
0.0005
0.0005
0.0005
0.0005
0.0005
0.0005
0.0005
0.0005
0.0005
0.0005

SCALARS mass float 1
LOOKUP_TABLE default
1.46608e-07
1.46608e-07
1.46608e-07
1.46608e-07
1.46608e-07
1.46608e-07
1.46608e-07
1.46608e-07
1.46608e-07
1.46608e-07
1.46608e-07
1.46608e-07
1.46608e-07
1.46608e-07
1.46608e-07
1.46608e-07
1.46608e-07
1.46608e-07
1.46608e-07
1.46608e-07
1.46608e-07
1.46608e-07
1.46608e-07
1.46608e-07
1.46608e-07
1.46608e-07
1.46608e-07
1.46608e-07
1.46608e-07
1.46608e-07
1.46608e-07
1.46608e-07
1.46608e-07
1.46608e-07
1.46608e-07
1.46608e-07
1.46608e-07
1.46608e-07
1.46608e-07
1.46608e-07
1.46608e-07
1.46608e-07
1.46608e-07
1.46608e-07
1.46608e-07
1.46608e-07
1.46608e-07
1.46608e-07
1.46608e-07
1.46608e-07
1.46608e-07
1.46608e-07
1.46608e-07
1.46608e-07
1.46608e-07
1.46608e-07
1.46608e-07
1.46608e-07
1.46608e-07
1.46608e-07
1.46608e-07
1.46608e-07
1.46608e-07
1.46608e-07
1.46608e-07
1.46608e-07
1.46608e-07
1.46608e-07
1.46608e-07
1.46608e-07
1.46608e-07
1.46608e-07
1.46608e-07
1.46608e-07
1.46608e-07
1.46608e-07
1.46608e-07
1.46608e-07
1.46608e-07
1.46608e-07
1.46608e-07
1.46608e-07
1.46608e-07
1.46608e-07
1.46608e-07
1.46608e-07
1.46608e-07
1.46608e-07
1.46608e-07
1.46608e-07
1.46608e-07
1.46608e-07
1.46608e-07
1.46608e-07
1.46608e-07
1.46608e-07
1.46608e-07
1.46608e-07
1.46608e-07
1.46608e-07
1.46608e-07
1.46608e-07
1.46608e-07
1.46608e-07
1.46608e-07
1.46608e-07
1.46608e-07
1.46608e-07
1.46608e-07
1.46608e-07
1.46608e-07
1.46608e-07
1.46608e-07
1.46608e-07
1.46608e-07
1.46608e-07
1.46608e-07
1.46608e-07
1.46608e-07
1.46608e-07
1.46608e-07
1.46608e-07
1.46608e-07
1.46608e-07
1.46608e-07
1.46608e-07
1.46608e-07
1.46608e-07
1.46608e-07
1.46608e-07
1.46608e-07
1.46608e-07
1.46608e-07
1.46608e-07
1.46608e-07
1.46608e-07
1.46608e-07
1.46608e-07
1.46608e-07
1.46608e-07
1.46608e-07
1.46608e-07
1.46608e-07
1.46608e-07
1.46608e-07
1.46608e-07
1.46608e-07
1.46608e-07
1.46608e-07
1.46608e-07
1.46608e-07
1.46608e-07
1.46608e-07
1.46608e-07

VECTORS velocity float
-0.00249942 -0.000772763 0.00427434
-0.00509636 0.00471838 -0.0163808
1.17003e-06 -0.000507425 -0.0218386
-0.672886 0.223801 0.206871
0.00071794 0.000430139 0.00205772
0.00184571 0.0161594 -0.00301189
2.02382e-15 -5.80747e-15 -3.18936e-14
0.000569257 2.54856e-05 -0.00125963
0.00193408 0.00137694 -0.00357079
0.0011956 0.0157509 0.00699751
3.47417e-05 -7.7448e-05 0.00442425
-1.796e-14 -5.05045e-14 2.16945e-13
-0.00595022 0.000530002 0.00231456
0.00167114 0.00570154 -0.00883838
0.00349829 -0.0051649 -0.00650496
-0.00686711 -0.00174905 -0.000240291
-0.000485452 -0.00357485 0.0206403
-0.0434748 -0.0436533 0.0253083
-0.00115583 -0.00268494 0.0328499
-1.24805e-14 -4.21975e-14 -1.20802e-13
-0.00249293 -0.0015864 -0.00168188
0.000627641 0.00649276 -0.0123214
-2.69657e-08 0.0238998 0.00660338
0.000691899 0.00079684 -0.000696512
0.000528854 0.00332542 -0.00267038
0.0398103 -0.122087 0.066206
0.00154179 0.00585546 -0.00665875
0.00700094 -0.00921892 -0.0235331
0.000353107 -0.0197662 -0.00242385
-0.0001106 0.00041242 -0.000238596
-0.000441398 -0.000151473 -0.000384914
0.00339935 0.000763394 -0.0021829
-0.000388775 0.00851455 0.020272
0.00117169 -0.00913371 -0.0158815
1.38699e-10 0.0200637 -0.00433049
-0.000512317 -0.0200592 0.00309068
0.0010447 0.00237903 0.0178893
-0.103123 0.0103729 0.0181902
0.00561829 -0.0044527 0.0225875
0.000553866 -0.0150819 0.0117771
0.00316925 -0.00215272 -0.000603618
0.000480878 0.000875325 -0.00189459
0.00153059 -0.00149196 -0.00125484
0.000290714 0.00168388 -0.0208933
-0.757464 -0.603165 -1.34677
0.00382787 0.00667931 -0.00225719
0.000469575 0.0141394 -0.0145266
-0.00467327 -0.00340899 0.000709593
0.00288421 0.00117016 -0.00408847
-2.21377e-09 0.0235433 -0.00793079
-0.00156084 -0.00198847 -0.00819014
0.000228292 -0.00562949 -0.0195859
0.00313986 -0.000503497 -0.00353652
0.000346701 0.0127433 0.0153321
0.0019145 -0.00217734 -0.0077938
-0.00535089 0.0118298 0.0128229
-0.000769342 -0.000629102 7.47446e-05
-6.21011e-05 0.0204373 -0.00891117
-2.28683e-05 0.0182857 0.0153625
0.000541275 0.0170717 0.0115656
0.00062201 -0.0119992 0.00230317
0.00149139 0.00731136 0.000383375
0.00113392 0.00937621 -0.00895837
-0.00222967 -0.000553962 -0.00177017
-1.15139e-05 0.0201655 -0.00382203
0.0201847 0.0280424 -0.0299262
-0.00594232 0.00368723 0.00194097
0.00341899 0.000451247 -0.00339318
0.000701303 -0.0135055 -0.00919602
0.000861755 -0.0076577 0.0140925
0.0059214 0.0015352 -0.0105575
0.000700714 -0.013884 -0.0144334
-0.000515902 -0.000508841 0.000365448
-1.87121 0.50655 2.16577
0.00156722 0.00576189 0.00858943
-0.00695939 0.00249436 0.00375251
0.00377784 0.00294317 -0.00647528
0.000150118 -0.0043364 0.0124308
9.97154e-05 0.0171672 0.0139163
0.00134434 -0.00169971 -0.00681384
0.00423918 0.0095367 -0.00682771
0.000947283 0.00103383 0.00059028
0.00026114 0.0198575 0.00623605
0.000210551 -2.78893e-06 -0.000237264
0.000685313 0.0180601 0.0094784
0.000646501 0.0201766 0.00187915
-0.00585672 0.0027469 0.00573151
0.000267986 0.000415666 -0.00105148
0.00330345 0.00325627 0.000509095
-0.00520869 0.00128615 0.00454332
0.00306872 0.00295574 -0.00155132
0.00400706 0.000676457 -0.00486022
-0.00228951 -0.00108179 -0.00286322
0.00376648 0.000757837 -0.000368605
-0.00146945 0.0194332 0.00364148
-0.0173263 -0.00729837 -0.0013091
-0.00783211 -0.000267748 0.00460939
0.000176615 0.00102566 -0.0032946
-0.00821175 0.00398615 0.00712598
4.60444e-15 -1.0315e-14 -1.057e-13
-0.0576214 -0.101057 0.0042575
1.35198e-07 0.0233877 0.00859565
-0.00323556 -0.00162858 -0.00045534
0.00102243 -0.00378242 -0.0038094
0.00241003 0.00398842 -0.00219623
-0.00630748 0.0158362 -0.00849777
0.000529134 0.0195904 0.00643889
-0.00514445 -0.00677533 0.0220063
-0.00631806 -0.0782927 0.375234
0.0146229 -0.00381195 -0.00597854
-0.000829128 0.0159425 0.01973
0.000457988 -0.00395931 0.020376
0.00522014 -0.00377144 0.0333726
0.0432347 -0.00195133 0.0125289
1.13121e-14 -2.34701e-14 -2.88773e-13
-3.15819e-07 0.00334921 0.0302346
-0.000749127 0.000620565 -0.00066333
-0.00727134 -0.00493885 0.0186185
0.00103133 0.00224402 -0.0163427
-0.00256597 -0.00231215 -0.00291914
0.00192855 0.00384888 -0.00482716
0.00131362 0.00263035 -0.00434149
0.0828148 -0.181026 0.0121278
0.00367436 0.00582969 -0.00369439
0.00131192 0.00147566 -0.00551333
0.0276527 -0.0395206 0.0163477
0.00620364 0.00638185 -0.0167005
0.000528453 -0.0204948 -0.00533326
0.000345388 0.00200314 -0.00395936
0.00251005 0.00472204 0.00258131
0.000603811 0.000353485 -0.00216578
0.0347602 -0.0339905 -0.00488896
5.48199e-10 0.0220477 -0.0112213
-0.00688272 -0.00270795 -9.6101e-05
-0.169692 0.103926 0.104808
-1.86222e-10 0.020546 -0.00113809
-0.000501822 -0.0113693 0.0259292
-0.0290276 -0.143888 0.299656
0.00212635 0.0025441 -0.00636448
-0.00202079 2.60294e-05 -0.00149209
0.00303206 0.00156002 -0.00691585
0.000191156 -0.0194745 -0.00763587
0.00116914 -0.0017135 -0.00420931
0.0027709 0.00396926 -0.00415629
6.23786e-05 0.0168613 0.015184
0.00515026 0.0175895 0.000260737
-0.00613178 -0.0167787 -0.037766
-0.0580795 -0.0688575 0.0152115
0.000950274 -0.00957517 0.00581183
7.97061e-15 -2.7096e-14 -6.66212e-14
-0.000566098 0.0144947 0.0194893
-0.000114613 0.02037 0.00385905
0.000458287 0.0205613 0.00843187
0.00518348 0.003881 -0.00361915

VECTORS force float
-9.06106e-07 1.50346e-06 -1.37224e-06
-7.85915e-08 1.89779e-07 -1.16986e-06
9.15556e-10 -9.42961e-09 -4.28013e-09
0.0 0.0 -1.43822e-06
-3.57417e-08 -2.31241e-07 -4.92342e-07
-1.76999e-08 5.52585e-08 -1.06851e-08
6.56318e-20 2.74227e-20 -6.35275e-22
1.16687e-07 -9.74848e-09 3.04867e-07
4.82729e-08 6.89803e-08 1.09605e-07
1.07497e-09 -2.48383e-08 -1.90615e-08
8.05555e-08 -1.56603e-07 2.73792e-07
-5.18808e-20 -1.37643e-21 -6.35275e-21
1.50799e-07 9.82988e-08 4.02539e-07
-1.60125e-07 -3.55296e-07 1.37718e-06
-4.25832e-08 -1.76709e-08 -9.69337e-08
-4.24471e-08 -2.28418e-07 -1.46025e-06
3.8875e-07 2.75649e-08 1.22015e-07
8.05089e-05 7.86777e-06 1.45039e-05
-1.38968e-06 4.79308e-07 -5.63739e-07
-1.61995e-20 -2.55169e-20 8.04681e-21
-5.47264e-08 -2.66471e-08 -2.72311e-07
-5.4518e-10 2.47643e-09 -1.75097e-08
5.35315e-12 4.19337e-09 -1.64087e-08
7.31934e-07 1.82339e-06 -1.57036e-06
-1.08218e-07 2.98544e-07 -2.5288e-07
-6.72494e-07 2.90579e-07 -1.32948e-06
0.0 0.0 -1.43822e-06
-2.26518e-08 -2.59408e-07 -1.11799e-06
-9.60515e-10 -6.79584e-08 1.10398e-08
-3.80447e-07 -7.16508e-08 4.91107e-07
-1.18469e-07 -4.07849e-08 1.5235e-07
-8.41507e-09 8.29843e-08 -6.74416e-08
6.31259e-09 1.26779e-08 -2.61176e-09
-5.40135e-09 -1.48538e-08 -2.33285e-09
1.82084e-16 -2.98532e-09 -1.33325e-08
-1.67922e-08 1.48484e-08 2.01745e-08
-6.32405e-09 1.51977e-08 2.12529e-08
0.0013014 0.0332112 0.0376496
0.0 0.0 -1.43822e-06
-2.79992e-06 1.16326e-06 -1.13186e-06
3.8807e-09 2.13899e-07 1.91088e-07
-4.35925e-08 -8.49222e-08 3.93255e-07
-1.20677e-07 -1.1473e-07 8.43936e-08
-1.37354e-09 -1.01523e-08 -8.28671e-09
0.357854 0.893651 1.25714
-1.25549e-08 -4.03101e-08 -4.36747e-08
-3.46679e-09 3.81822e-10 -1.47175e-08
1.24926e-07 -1.6943e-07 -5.77533e-07
9.56513e-08 -6.19215e-08 3.81951e-07
-4.17941e-15 -5.45122e-09 -1.60491e-08
1.64458e-08 -3.92829e-07 -9.35122e-07
-3.43789e-10 -1.40736e-08 -5.22478e-09
5.56286e-08 6.01942e-08 1.73516e-07
-2.57756e-09 1.17281e-08 -3.90746e-09
-9.0428e-09 9.006e-09 -2.88061e-08
3.64916e-07 -3.13113e-06 7.40769e-06
-1.28655e-07 -4.61307e-08 1.5995e-07
1.19167e-09 -2.14846e-09 -1.23681e-08
-1.84324e-06 1.8909e-06 2.38117e-06
-1.68727e-10 8.35835e-09 -1.10057e-08
-5.12586e-07 -3.33165e-07 -1.92244e-07
-2.22083e-09 3.45239e-08 -1.39412e-06
-4.06017e-08 5.8493e-07 -1.42789e-06
-3.22688e-07 -2.99142e-07 8.13691e-07
9.0166e-09 -1.90285e-08 -1.05119e-08
1.97833e-07 5.70212e-08 -1.00494e-06
2.99902e-06 -2.67633e-06 7.76222e-07
-3.1415e-07 6.90942e-08 2.71477e-07
-1.56274e-09 -1.73724e-08 -7.40138e-10
-1.07581e-08 -4.21054e-08 1.6639e-07
1.35501e-06 3.57525e-06 -3.96934e-06
-7.34314e-09 -8.42537e-09 -1.502e-09
2.11143e-06 2.24954e-06 -4.39212e-06
0.0 0.0 -1.43822e-06
-5.24332e-08 -3.25719e-07 -3.31847e-07
1.22348e-07 2.86228e-07 1.42596e-07
4.14181e-08 -4.29704e-08 1.5306e-07
-1.1217e-07 -4.08325e-08 -6.00001e-09
-1.29354e-09 9.8773e-09 -3.71648e-09
-9.13943e-09 6.47857e-09 -5.13418e-08
-4.89281e-06 8.43946e-06 -7.89405e-06
4.17804e-07 3.04422e-07 5.63906e-07
-9.12178e-10 1.07245e-08 -8.421e-09
-2.00275e-06 1.2518e-06 5.07274e-07
-2.63608e-10 7.12415e-09 -1.15149e-08
1.42214e-08 -9.00035e-09 -1.25133e-08
3.8154e-07 -1.02088e-06 7.95651e-07
-7.74573e-08 -1.41363e-08 -6.71798e-08
2.07807e-06 3.93605e-06 -3.25511e-07
6.59732e-07 -2.87222e-07 -2.63199e-07
4.34277e-07 -1.06489e-06 -9.57337e-07
2.55798e-08 1.60293e-08 1.79014e-07
8.32234e-08 -6.76533e-09 1.96126e-07
-4.50998e-07 4.68204e-07 -1.47619e-06
0.0 0.0 -1.43822e-06
-4.321e-05 -2.52544e-05 8.5671e-06
-1.78494e-06 3.0746e-07 -4.04342e-07
-9.79661e-07 -7.19903e-07 2.06255e-06
2.55763e-07 -3.52317e-07 -1.17187e-07
-5.02529e-20 -9.1109e-20 6.98802e-21
0.0 0.0 -1.43822e-06
7.04558e-10 9.87946e-09 -1.46966e-08
2.11983e-08 9.59112e-08 3.50588e-09
0.0 0.0 -1.43822e-06
5.60887e-07 6.37605e-07 5.04835e-08
0.0 0.0 -1.43822e-06
-1.98206e-10 5.38508e-09 -1.28114e-08
2.25139e-06 2.10523e-06 -1.04099e-05
0.0 0.0 -1.43822e-06
-7.43201e-05 3.21392e-05 2.67816e-05
-2.59072e-06 1.38345e-06 -1.88451e-07
-3.65732e-09 8.16842e-09 1.15447e-08
8.67645e-08 -1.58546e-07 -1.91288e-07
0.0 0.0 -1.43822e-06
1.19114e-21 9.52912e-22 -2.11758e-22
1.59424e-06 -3.21038e-06 -2.20506e-06
-3.16102e-07 -2.44636e-07 5.12352e-07
-2.87269e-07 -1.48069e-07 1.29203e-06
2.06665e-09 -1.13484e-08 3.16907e-08
-3.03396e-07 -1.6463e-09 -1.10636e-07
-8.34578e-08 -1.40573e-07 1.0495e-06
-3.63352e-07 1.35232e-06 -1.49661e-06
-0.000385143 0.00126445 5.98304e-06
-2.92533e-08 -4.28465e-08 -9.47935e-08
-7.61659e-09 -8.75839e-09 3.2538e-08
0.0 0.0 -1.43822e-06
1.33424e-05 1.75342e-05 9.26172e-05
2.18914e-09 -3.0331e-11 9.93322e-09
-2.63631e-07 2.80688e-07 -9.47073e-07
-5.04747e-08 -1.07557e-07 -5.14895e-08
1.34661e-06 2.20549e-06 -1.85237e-06
0.0 0.0 -1.43822e-06
8.47418e-16 -7.70029e-09 -1.50106e-08
1.03347e-07 -1.38608e-07 -6.87894e-08
0.0 0.0 -1.43822e-06
-1.80591e-16 -9.0986e-10 -1.36753e-08
2.97343e-07 4.45e-07 1.85679e-06
0.0 0.0 -1.43822e-06
-2.61519e-07 -4.6502e-07 1.02837e-06
-2.46271e-05 -8.38152e-07 -5.4063e-06
-1.01014e-07 -1.53082e-07 3.32306e-07
-8.75542e-10 -1.06593e-08 6.77833e-09
-2.29768e-08 -2.45807e-07 -2.10499e-07
-1.15971e-05 1.06381e-05 -1.03414e-05
-1.22966e-09 1.09546e-08 -5.31674e-09
-4.43889e-07 1.96201e-07 1.81045e-09
0.0 0.0 -1.43822e-06
0.0 0.0 -1.43822e-06
5.48221e-07 -2.45483e-07 -1.37757e-06
5.29396e-23 1.48231e-21 -6.35275e-22
2.4315e-06 -5.83409e-06 -6.62236e-06
-6.8858e-10 3.92423e-09 -1.34155e-08
-2.56485e-10 7.38863e-09 -1.43293e-08
-2.75471e-07 7.93501e-07 -1.31067e-06
