# vtk DataFile Version 3.0
LIGGGHTS particles timestep 88600000
ASCII
DATASET POLYDATA
POINTS 88 float
0.0387146 0.0187573 0.00575718
0.0515454 0.0203376 0.00592249
0.0657625 0.0198039 0.00576669
0.102543 0.017821 0.00581645
0.0387828 0.0214812 0.00622724
0.191105 0.0203026 0.00593314
0.0819644 0.018662 0.00575674
0.10448 0.0180949 0.00580371
0.0800401 0.0168845 0.00628905
0.0458896 0.0168235 0.00626774
0.0564645 0.0213699 0.00635393
0.100284 0.0224452 0.00880108
0.136461 0.0187737 0.0058834
0.0822817 0.0172512 0.00607537
0.0652975 0.0207687 0.00603532
0.0870153 0.0206158 0.00591409
0.0792518 0.0191834 0.00582281
0.0170063 0.0201419 0.00601043
0.0643606 0.0210989 0.00615793
0.0448733 0.0164686 0.00634571
0.0803045 0.0192159 0.005743
0.0811915 0.017199 0.00615598
0.0615774 0.0172559 0.00608456
0.063441 0.0163701 0.00647495
0.0855075 0.019144 0.00579031
0.0829173 0.0222111 0.0066532
0.0357086 0.0161117 0.00660683
0.0618809 0.0199413 0.00582959
0.0845463 0.0178241 0.00589851
0.11021 0.0201465 0.00580174
0.0830136 0.0187071 0.00584947
0.0439552 0.0161318 0.00656318
0.0782305 0.0203396 0.00602091
0.0822914 0.0196163 0.00600118
0.0732237 0.018766 0.005768
0.0644815 0.0190744 0.00573853
0.0683453 0.0182317 0.00578271
0.0609817 0.0187588 0.00589337
0.0609012 0.0197493 0.00575757
0.0634974 0.0172463 0.00599641
0.0286258 0.0183498 0.00592583
0.0888729 0.0199317 0.00596406
0.0601285 0.017977 0.00598674
0.0626638 0.0179373 0.00595165
0.0644862 0.0176438 0.00589539
0.0238948 0.0168123 0.00667048
0.042543 0.0198089 0.00582143
0.0388539 0.0197419 0.00587248
0.0766607 0.0190533 0.00580856
0.0779381 0.019417 0.00576935
0.0620021 0.0189487 0.00583492
0.0424897 0.0188104 0.00581963
0.0920805 0.0205253 0.0059177
0.0861845 0.0174703 0.0084245
0.0557406 0.0175302 0.00596599
0.102423 0.0196788 0.00582979
0.0453636 0.0157749 0.00687326
0.377402 0.017636 0.00834805
0.0505919 0.0207133 0.00592302
0.0643736 0.0166453 0.00623285
0.0440263 0.0170728 0.00623272
0.0799751 0.0180833 0.00603206
0.0810479 0.0182624 0.00591498
0.0824664 0.0205903 0.00624245
0.0595038 0.0223955 0.00675756
0.063626 0.0183177 0.00585415
0.0316007 0.0183082 0.00603438
0.0584979 0.0201946 0.00586451
0.0215463 0.0196109 0.00592744
0.0690612 0.017564 0.00598647
0.0636055 0.0197465 0.00578044
0.102884 0.0171362 0.0152751
0.0242602 0.0201274 0.00583803
0.0858366 0.014799 0.0120167
0.0567438 0.01754 0.00591345
0.061759 0.0163729 0.00651709
0.0504712 0.0179279 0.00611076
0.0371638 0.0187263 0.00573865
0.0328558 0.0191954 0.00572294
0.044465 0.0204317 0.00594645
0.0625324 0.0169121 0.00611939
0.066033 0.0188309 0.00577203
0.0833983 0.0210192 0.00634375
0.0634573 0.017523 0.00840538
0.0350698 0.0188001 0.00572051
0.0623373 0.0157218 0.00700852
0.0667607 0.0199247 0.00579031
0.0801544 0.0202323 0.00596714

VERTICES 88 176
1 0
1 1
1 2
1 3
1 4
1 5
1 6
1 7
1 8
1 9
1 10
1 11
1 12
1 13
1 14
1 15
1 16
1 17
1 18
1 19
1 20
1 21
1 22
1 23
1 24
1 25
1 26
1 27
1 28
1 29
1 30
1 31
1 32
1 33
1 34
1 35
1 36
1 37
1 38
1 39
1 40
1 41
1 42
1 43
1 44
1 45
1 46
1 47
1 48
1 49
1 50
1 51
1 52
1 53
1 54
1 55
1 56
1 57
1 58
1 59
1 60
1 61
1 62
1 63
1 64
1 65
1 66
1 67
1 68
1 69
1 70
1 71
1 72
1 73
1 74
1 75
1 76
1 77
1 78
1 79
1 80
1 81
1 82
1 83
1 84
1 85
1 86
1 87

POINT_DATA 88
SCALARS id int 1
LOOKUP_TABLE default
1
2
3
8
9
14
18
26
28
32
34
38
46
48
54
56
59
64
65
66
68
70
74
82
83
86
88
89
90
93
100
106
107
108
109
112
113
121
124
125
126
127
129
132
134
137
142
146
149
159
160
163
165
174
182
187
189
193
195
198
201
209
213
215
221
223
226
227
229
240
242
245
246
256
257
258
270
273
274
277
279
280
281
283
291
293
296
298

SCALARS type int 1
LOOKUP_TABLE default
1
1
1
1
1
1
1
1
1
1
1
1
1
1
1
1
1
1
1
1
1
1
1
1
1
1
1
1
1
1
1
1
1
1
1
1
1
1
1
1
1
1
1
1
1
1
1
1
1
1
1
1
1
1
1
1
1
1
1
1
1
1
1
1
1
1
1
1
1
1
1
1
1
1
1
1
1
1
1
1
1
1
1
1
1
1
1
1

SCALARS radius float 1
LOOKUP_TABLE default
0.0005
0.0005
0.0005
0.0005
0.0005
0.0005
0.0005
0.0005
0.0005
0.0005
0.0005
0.0005
0.0005
0.0005
0.0005
0.0005
0.0005
0.0005
0.0005
0.0005
0.0005
0.0005
0.0005
0.0005
0.0005
0.0005
0.0005
0.0005
0.0005
0.0005
0.0005
0.0005
0.0005
0.0005
0.0005
0.0005
0.0005
0.0005
0.0005
0.0005
0.0005
0.0005
0.0005
0.0005
0.0005
0.0005
0.0005
0.0005
0.0005
0.0005
0.0005
0.0005
0.0005
0.0005
0.0005
0.0005
0.0005
0.0005
0.0005
0.0005
0.0005
0.0005
0.0005
0.0005
0.0005
0.0005
0.0005
0.0005
0.0005
0.0005
0.0005
0.0005
0.0005
0.0005
0.0005
0.0005
0.0005
0.0005
0.0005
0.0005
0.0005
0.0005
0.0005
0.0005
0.0005
0.0005
0.0005
0.0005

SCALARS mass float 1
LOOKUP_TABLE default
1.46608e-07
1.46608e-07
1.46608e-07
1.46608e-07
1.46608e-07
1.46608e-07
1.46608e-07
1.46608e-07
1.46608e-07
1.46608e-07
1.46608e-07
1.46608e-07
1.46608e-07
1.46608e-07
1.46608e-07
1.46608e-07
1.46608e-07
1.46608e-07
1.46608e-07
1.46608e-07
1.46608e-07
1.46608e-07
1.46608e-07
1.46608e-07
1.46608e-07
1.46608e-07
1.46608e-07
1.46608e-07
1.46608e-07
1.46608e-07
1.46608e-07
1.46608e-07
1.46608e-07
1.46608e-07
1.46608e-07
1.46608e-07
1.46608e-07
1.46608e-07
1.46608e-07
1.46608e-07
1.46608e-07
1.46608e-07
1.46608e-07
1.46608e-07
1.46608e-07
1.46608e-07
1.46608e-07
1.46608e-07
1.46608e-07
1.46608e-07
1.46608e-07
1.46608e-07
1.46608e-07
1.46608e-07
1.46608e-07
1.46608e-07
1.46608e-07
1.46608e-07
1.46608e-07
1.46608e-07
1.46608e-07
1.46608e-07
1.46608e-07
1.46608e-07
1.46608e-07
1.46608e-07
1.46608e-07
1.46608e-07
1.46608e-07
1.46608e-07
1.46608e-07
1.46608e-07
1.46608e-07
1.46608e-07
1.46608e-07
1.46608e-07
1.46608e-07
1.46608e-07
1.46608e-07
1.46608e-07
1.46608e-07
1.46608e-07
1.46608e-07
1.46608e-07
1.46608e-07
1.46608e-07
1.46608e-07
1.46608e-07

VECTORS velocity float
-8.66847e-15 7.85638e-14 2.009e-13
1.06774e-14 2.65354e-14 3.50781e-13
-1.38671e-15 3.97328e-14 -1.45083e-13
-9.78469e-16 -4.35249e-15 -1.20042e-13
-2.75867e-19 1.05619e-18 -5.71626e-18
-1.12284e-14 -4.38016e-14 9.73355e-14
1.34799e-14 4.56303e-14 1.93312e-13
1.49847e-14 2.23658e-14 -1.76075e-13
-1.13558e-15 -7.29156e-15 -3.41144e-14
-4.52724e-15 -2.52972e-14 -1.74151e-13
-6.76076e-16 -1.50045e-14 3.2121e-14
0.000697501 -0.00978104 -0.0137233
2.02122e-15 3.12398e-15 -2.90527e-14
6.63856e-16 3.61518e-14 1.18632e-13
-1.12936e-15 3.25659e-14 -1.18914e-13
3.22108e-15 5.9008e-15 -3.89484e-14
6.34988e-15 2.15056e-14 9.10974e-14
1.30091e-14 5.26216e-15 -1.07339e-13
9.85073e-15 -6.28956e-14 2.05619e-13
-2.64849e-17 -1.41551e-16 -9.78554e-16
-9.52828e-15 -2.67153e-14 1.14756e-13
4.51296e-15 1.52767e-14 6.47202e-14
-7.4402e-16 -3.29077e-15 -2.35498e-14
5.22594e-16 7.49356e-15 9.59526e-15
-2.80435e-15 1.60116e-14 -2.15085e-13
2.53289e-15 -1.23265e-14 5.62303e-14
-4.54709e-15 2.81666e-14 7.49212e-14
-3.37234e-16 -4.67048e-15 1.2938e-14
-1.71235e-15 5.08492e-14 1.75601e-13
8.82203e-16 6.44654e-15 -3.3356e-14
-9.52917e-15 -2.67155e-14 1.14756e-13
1.95464e-16 -2.75149e-15 -2.89952e-15
2.88512e-15 7.97652e-15 -1.49277e-14
7.16657e-15 2.00945e-14 -8.63172e-14
1.05191e-14 -5.91998e-14 -1.63377e-13
7.97976e-16 -3.78212e-15 -6.44673e-14
7.82629e-18 1.40389e-17 5.06786e-16
-4.35134e-15 -1.94154e-14 -1.3904e-13
-5.19423e-15 -2.31833e-14 -1.66017e-13
6.54444e-16 1.61736e-15 1.27714e-14
-1.9446e-14 1.80207e-16 -2.28119e-13
-1.21809e-15 -2.23077e-15 1.47214e-14
-1.08872e-14 2.27489e-14 2.78384e-13
-7.3645e-15 -1.81922e-14 -1.43647e-13
-5.97987e-15 -1.4772e-14 -1.16641e-13
-1.55922e-14 -3.19695e-14 -1.0479e-13
-7.50111e-17 6.41241e-16 -2.02966e-15
-2.83256e-15 1.34605e-14 -6.65669e-14
-9.22003e-15 5.49767e-14 2.11146e-13
7.81639e-16 -4.71374e-15 -1.80928e-14
4.03068e-16 1.80921e-15 1.29211e-14
1.27447e-16 -3.702e-16 -2.0281e-15
-7.84785e-15 -7.28946e-14 1.85342e-13
-4.37362e-05 0.00241656 -0.00296093
-5.8478e-15 -7.36275e-15 -1.08979e-13
1.51229e-15 2.26428e-15 -1.78451e-14
2.78926e-17 -5.64721e-16 -6.90075e-16
-6.61594e-05 -0.00215698 0.00214494
6.74638e-15 1.89381e-14 2.6288e-13
-9.28309e-16 8.92619e-14 2.24983e-13
2.29419e-16 -6.63939e-16 -3.64325e-15
1.34799e-14 4.56306e-14 1.93312e-13
1.06442e-15 3.60221e-15 1.52617e-14
-1.0449e-15 -2.92308e-15 1.25725e-14
1.2364e-16 -1.68748e-15 4.05503e-15
-7.36258e-15 -1.81927e-14 -1.43647e-13
1.31009e-14 -4.47358e-14 -1.10012e-13
2.95122e-16 4.88323e-15 -1.04418e-14
-1.81494e-14 8.1435e-15 -1.66091e-13
-1.68193e-17 1.76946e-16 4.66257e-16
6.28571e-15 -4.01366e-14 1.31216e-13
0.000231437 0.012243 0.00628709
-1.07556e-14 -1.72863e-15 1.75368e-13
0.00157857 0.00251156 0.0149874
-9.84574e-15 -1.33718e-14 -1.90504e-13
1.14931e-15 -1.31268e-14 -1.87303e-14
-3.69902e-15 -1.32326e-14 -1.98725e-13
3.59549e-15 -1.81911e-14 8.99566e-14
8.85281e-16 5.06752e-15 -1.96343e-14
-3.11161e-15 2.53133e-14 -8.03067e-14
-3.87312e-16 3.70489e-14 9.33837e-14
2.19119e-15 -1.03772e-14 -1.76838e-13
2.36861e-14 -4.02524e-14 1.90901e-13
2.49272e-05 -0.00170212 0.0013409
-7.09931e-15 -4.06775e-14 1.57632e-13
1.11595e-15 -1.31434e-14 -1.87258e-14
-4.59765e-16 1.19609e-14 -4.36761e-14
-1.80125e-14 -5.05045e-14 2.16941e-13

VECTORS force float
0.0 -6.35275e-22 2.11758e-22
-8.29431e-20 3.69783e-20 -4.23516e-22
4.20671e-20 -5.29396e-23 -2.11758e-22
7.94093e-23 6.61744e-24 0.0
-1.07533e-23 -8.60268e-23 0.0
-1.45584e-21 -1.05879e-22 -4.23516e-22
-8.47033e-22 -4.76456e-22 0.0
2.00641e-20 -1.53525e-21 2.11758e-21
4.63221e-23 -5.29396e-23 0.0
-2.6933e-21 7.94093e-23 2.11758e-22
1.407e-19 -1.48443e-19 -6.45863e-20
2.65267e-09 -8.47008e-09 1.2234e-08
8.31813e-20 3.66606e-20 9.74088e-21
-1.17873e-21 0.0 0.0
4.25502e-21 0.0 0.0
0.0 0.0 0.0
9.26442e-22 -2.8058e-21 6.35275e-22
1.0302e-19 -8.3896e-20 8.47033e-21
3.70577e-22 -1.58819e-22 0.0
4.23516e-22 1.05879e-22 2.11758e-22
-1.72054e-22 0.0 0.0
-2.64698e-23 -1.05879e-22 0.0
1.05879e-22 -4.23516e-22 8.47033e-22
2.97785e-23 0.0 0.0
1.22423e-22 1.19114e-22 0.0
3.89106e-21 -2.64698e-22 -4.23516e-22
3.06758e-19 1.56172e-20 1.16467e-20
3.97047e-23 -2.64698e-23 0.0
3.42453e-22 -2.11758e-22 0.0
-3.20549e-20 8.89385e-21 1.05879e-21
-1.61466e-21 -5.29396e-23 0.0
-3.04402e-22 0.0 0.0
1.58819e-22 -5.29396e-23 2.11758e-22
-4.71162e-21 2.11758e-22 -4.23516e-22
-2.79693e-19 8.99443e-20 -4.93397e-20
0.0 0.0 0.0
2.64698e-23 0.0 0.0
2.64698e-23 2.64698e-22 -2.11758e-22
0.0 0.0 0.0
6.61744e-24 0.0 0.0
-2.64698e-23 -5.65006e-21 2.11758e-22
-3.51254e-20 4.87044e-21 -2.11758e-21
5.00874e-20 1.75283e-19 -1.2282e-20
5.02926e-22 -2.64698e-23 0.0
-1.72054e-22 -2.64698e-23 0.0
7.41154e-22 -1.05879e-21 4.23516e-22
-6.28657e-22 0.0 0.0
1.85288e-22 0.0 0.0
-4.18818e-20 9.1056e-21 -5.92923e-21
-5.29396e-23 -1.05879e-22 0.0
-1.32349e-23 -2.64698e-23 0.0
4.63221e-23 0.0 2.11758e-22
0.0 0.0 0.0
-3.35359e-10 7.65846e-08 -6.8952e-08
-9.37917e-19 7.72097e-19 -5.92923e-21
2.1864e-20 -3.46754e-21 1.27055e-21
0.0 -3.17637e-22 -2.11758e-22
6.06234e-10 -1.20635e-07 3.41884e-08
9.85999e-22 -4.10282e-22 2.11758e-22
1.34003e-22 -1.05879e-22 2.11758e-22
0.0 0.0 0.0
3.58666e-21 1.05879e-22 0.0
3.97047e-23 2.11758e-22 0.0
1.42143e-20 3.70577e-22 1.27055e-21
-2.56227e-20 5.29396e-21 2.75286e-21
-6.71009e-21 3.33519e-21 -2.11758e-22
2.89315e-20 5.92923e-21 4.23516e-22
0.0 0.0 0.0
0.0 0.0 0.0
-2.64698e-23 0.0 0.0
-1.98523e-21 -4.76456e-22 2.11758e-22
1.22872e-08 2.2422e-08 4.65782e-08
-1.32349e-23 -1.56172e-20 0.0
-6.62244e-09 1.45665e-08 2.14061e-08
6.61744e-23 7.3586e-21 -4.23516e-22
-1.24408e-21 -3.17637e-22 -2.11758e-22
1.48231e-21 -1.05879e-22 0.0
3.58533e-19 -1.05879e-22 -1.56701e-20
6.74979e-21 0.0 4.23516e-22
-3.29423e-19 -9.71441e-20 -1.90582e-20
3.02748e-22 1.05879e-22 0.0
2.85046e-20 6.2204e-21 0.0
-5.26749e-21 -3.70577e-22 4.23516e-22
7.96888e-11 -3.52763e-08 4.71876e-09
-3.16314e-21 -6.35275e-22 -4.23516e-22
-1.58819e-22 2.11758e-22 -2.11758e-22
-8.97408e-20 1.58819e-22 1.05879e-21
-2.77933e-22 5.29396e-23 -2.11758e-22
