# vtk DataFile Version 3.0
LIGGGHTS particles timestep 5200000
ASCII
DATASET POLYDATA
POINTS 219 float
0.0221099 0.0241093 0.01444
0.0203868 0.0197809 0.0162022
0.0255941 0.0197564 0.015889
0.0211067 0.0161319 0.0148484
0.0218968 0.023609 0.0169102
0.0281767 0.0217319 0.00811888
0.0240548 0.0212767 0.01539
0.0194379 0.0196095 0.0159832
0.0178272 0.0243974 0.0138596
0.0149103 0.0222299 0.0156773
0.0227062 0.0225961 0.0154813
0.0210237 0.0240056 0.0130262
0.08261 0.0191091 0.00590955
0.0195138 0.0237136 0.0136697
0.016228 0.0212357 0.017323
0.0189022 0.0143311 0.0139183
0.023833 0.0229557 0.0156888
0.0211558 0.0156458 0.00883844
0.0136303 0.0202933 0.0157647
0.0229624 0.0233697 0.010895
0.0137972 0.0220763 0.0155139
0.016776 0.0142042 0.0135488
0.0184642 0.0240428 0.0145221
0.019561 0.0203864 0.0166192
0.0178542 0.022373 0.014921
0.0275759 0.0175735 0.0074353
0.018428 0.0212047 0.0161044
0.0211855 0.024296 0.0139993
0.0218356 0.0238595 0.0134893
0.0224098 0.0235305 0.0151984
0.025536 0.0206005 0.016343
0.02278 0.0146321 0.0143587
0.0209581 0.0146513 0.0123072
0.0209575 0.0156979 0.0167815
0.0247629 0.0206334 0.0156813
0.0235186 0.0150486 0.0148986
0.0166977 0.0232801 0.0171327
0.020109 0.0242887 0.0132337
0.0152152 0.0210936 0.016348
0.022961 0.0228157 0.00934744
0.0296029 0.0233295 0.0107366
0.0174871 0.0226642 0.0158415
0.0267031 0.0150849 0.00980504
0.0235533 0.0210943 0.0163753
0.0156144 0.0230628 0.0172132
0.0190449 0.0204914 0.0157512
0.0250207 0.0214322 0.0158714
0.0296225 0.0225336 0.0140067
0.0244385 0.0222921 0.0155932
0.0224118 0.0152082 0.0150889
0.0258904 0.0196745 0.0168411
0.0175311 0.0236487 0.015678
0.0219227 0.014414 0.0138909
0.016421 0.0211307 0.0163456
0.0188254 0.0244428 0.0137032
0.0177213 0.0140914 0.013243
0.0165272 0.0238334 0.0137428
0.0245156 0.0219172 0.0164681
0.0193609 0.0159285 0.0146681
0.0173599 0.0232328 0.0128279
0.0157574 0.023514 0.0143011
0.0269128 0.0164102 0.00813123
0.0247466 0.0182752 0.0161319
0.0237948 0.0223301 0.0144985
0.0202469 0.0243527 0.017058
0.019112 0.0168241 0.015345
0.0276411 0.0195069 0.00718937
0.022061 0.0231238 0.0160429
0.0128415 0.0208015 0.0164487
0.0211895 0.0174803 0.00748241
0.0232042 0.0163349 0.0172602
0.0243816 0.01995 0.0160196
0.0265809 0.0154994 0.00907353
0.0169051 0.0239499 0.0146521
0.0133273 0.0216615 0.0162929
0.0209376 0.0142867 0.0140125
0.028917 0.0233754 0.0111684
0.0221217 0.0199477 0.0166903
0.0233055 0.0231926 0.0148977
0.0176481 0.015755 0.0156003
0.0173068 0.0240779 0.0131074
0.0193446 0.0240083 0.0126815
0.0279687 0.0208282 0.00758223
0.0213053 0.0217404 0.0166393
0.0241784 0.0176855 0.0167962
0.0178954 0.0145033 0.0141374
0.0194003 0.0222263 0.0157063
0.0169497 0.0146714 0.0144156
0.0179862 0.023348 0.011038
0.0180358 0.0150645 0.014953
0.017101 0.023028 0.0149872
0.020056 0.0205753 0.0157014
0.0216215 0.0229223 0.0150604
0.022319 0.0165497 0.0161163
0.0186745 0.023772 0.0156841
0.02568 0.0151085 0.0131714
0.0186866 0.0139772 0.0130083
0.0226498 0.0230145 0.00982607
0.0259729 0.0147777 0.0116946
0.0218911 0.0204774 0.00753318
0.0209753 0.0206398 0.0165256
0.0158417 0.0203553 0.016597
0.0259017 0.0180789 0.0168612
0.0217162 0.0148311 0.0129319
0.0241775 0.0155364 0.0154714
0.0175185 0.0199264 0.0166989
0.0139262 0.0186448 0.0159253
0.0165523 0.0196634 0.0167234
0.0256448 0.0187895 0.0159504
0.0193175 0.0242724 0.0166617
0.0286954 0.0230408 0.00979339
0.0174704 0.0208968 0.0164616
0.01474 0.0223265 0.0175492
0.0148579 0.0231436 0.0148052
0.020224 0.0148338 0.0106762
0.0284763 0.0225623 0.00895773
0.0158799 0.0227394 0.0163052
0.0224795 0.0225846 0.009153
0.0184313 0.0229078 0.0136289
0.0226937 0.0226036 0.0166184
0.0239008 0.0165924 0.0161767
0.015957 0.01445 0.014067
0.0230787 0.023394 0.011642
0.0126684 0.0200285 0.0158387
0.0150779 0.0220565 0.0166477
0.0153697 0.0194806 0.0167096
0.0161556 0.0235996 0.0152133
0.0213038 0.0238462 0.0149165
0.0157973 0.0218075 0.0159542
0.0152704 0.0149218 0.01462
0.020807 0.0225004 0.0154615
0.0205793 0.0141154 0.0130619
0.0189972 0.0232624 0.0130577
0.0210825 0.0230648 0.0162403
0.0225892 0.0217185 0.0160376
0.0197092 0.022186 0.0146634
0.0142443 0.0229687 0.015575
0.0139602 0.0161457 0.0148612
0.0175417 0.0229197 0.0136728
0.0077172 0.0171964 0.0333882
0.0474618 0.0192773 0.00593797
0.0199987 0.0146288 0.0120312
0.0249899 0.017096 0.0156649
0.0236101 0.0191622 0.016782
0.0188315 0.0178675 0.0162465
0.0234124 0.0231283 0.0129875
0.013559 0.0205403 0.0175114
0.0194514 0.0227761 0.0139217
0.0196609 0.0239117 0.0157729
0.0205591 0.0239165 0.0162128
0.0207072 0.0305704 0.0440269
0.0153376 0.0151586 0.0136503
0.0215834 0.0168725 0.0077316
0.0203884 0.0215947 0.0162379
0.016733 0.0223854 0.0166878
0.0248082 0.0161505 0.0159492
0.0191867 0.0233178 0.014758
0.0171945 0.0239433 0.0165731
0.018405 0.0204289 0.0167617
0.0219551 0.0210086 0.0163988
0.0428597 0.0177668 0.00603291
0.0165442 0.0224146 0.015577
0.0199385 0.0229752 0.0153202
0.0200006 0.0238576 0.0148335
0.0245616 0.0191355 0.0164033
0.0182241 0.0240686 0.012744
0.0211585 0.0178362 0.0166039
0.0228424 0.0221888 0.00874249
0.0177994 0.0234972 0.0117607
0.0204694 0.0152044 0.00956446
0.0171899 0.0235969 0.0121585
0.016921 0.0187342 0.016747
0.0211105 0.015019 0.0100003
0.0182693 0.0241531 0.0166428
0.0166598 0.0233011 0.0160244
0.0143509 0.0215634 0.0161697
0.01817 0.0233015 0.0125533
0.0206898 0.0231713 0.01469
0.0227414 0.0235465 0.0141798
0.0142487 0.0215297 0.0171639
0.0237 0.0229124 0.00949514
0.0214676 0.0153159 0.0140218
0.0184008 0.0222656 0.015762
0.0181663 0.0232076 0.0163346
0.0197038 0.0152783 0.0138775
0.0190267 0.0213708 0.015307
0.0254376 0.0214597 0.0167602
0.0218491 0.0143986 0.0148898
0.0233827 0.0231666 0.0101691
0.0180572 0.0214852 0.0152167
0.0216352 0.0234505 0.0141858
0.0199994 0.0214716 0.0152713
0.0206281 0.0150655 0.0134657
0.0144196 0.0151152 0.0151085
0.0217127 0.0221735 0.0157314
0.0200701 0.0165742 0.015196
0.0245644 0.0216056 0.0150677
0.0182322 0.0232363 0.0149648
0.0138462 0.0208108 0.0165925
0.0187119 0.0223954 0.0144424
0.0251525 0.0164196 0.014928
0.0254909 0.017849 0.0157745
0.0196137 0.0137967 0.0133366
0.0195732 0.0184417 0.0158999
0.0222989 0.0192337 0.00715567
0.0145877 0.0155247 0.0142029
0.0187479 0.0234803 0.0117645
0.0204153 0.023712 0.0139492
0.0188611 0.0224588 0.0166517
0.0171479 0.0217458 0.0160411
0.0156573 0.0227334 0.0152435
0.0184559 0.0197491 0.0160223
0.0238126 0.0221523 0.0152037
0.0133603 0.0211842 0.0153991
0.0213461 0.0183415 0.00724028
0.019784 0.014811 0.0129916
0.0165414 0.020286 0.0178737
0.0216125 0.0194516 0.00720756
0.0235527 0.022125 0.0162082

VERTICES 219 438
1 0
1 1
1 2
1 3
1 4
1 5
1 6
1 7
1 8
1 9
1 10
1 11
1 12
1 13
1 14
1 15
1 16
1 17
1 18
1 19
1 20
1 21
1 22
1 23
1 24
1 25
1 26
1 27
1 28
1 29
1 30
1 31
1 32
1 33
1 34
1 35
1 36
1 37
1 38
1 39
1 40
1 41
1 42
1 43
1 44
1 45
1 46
1 47
1 48
1 49
1 50
1 51
1 52
1 53
1 54
1 55
1 56
1 57
1 58
1 59
1 60
1 61
1 62
1 63
1 64
1 65
1 66
1 67
1 68
1 69
1 70
1 71
1 72
1 73
1 74
1 75
1 76
1 77
1 78
1 79
1 80
1 81
1 82
1 83
1 84
1 85
1 86
1 87
1 88
1 89
1 90
1 91
1 92
1 93
1 94
1 95
1 96
1 97
1 98
1 99
1 100
1 101
1 102
1 103
1 104
1 105
1 106
1 107
1 108
1 109
1 110
1 111
1 112
1 113
1 114
1 115
1 116
1 117
1 118
1 119
1 120
1 121
1 122
1 123
1 124
1 125
1 126
1 127
1 128
1 129
1 130
1 131
1 132
1 133
1 134
1 135
1 136
1 137
1 138
1 139
1 140
1 141
1 142
1 143
1 144
1 145
1 146
1 147
1 148
1 149
1 150
1 151
1 152
1 153
1 154
1 155
1 156
1 157
1 158
1 159
1 160
1 161
1 162
1 163
1 164
1 165
1 166
1 167
1 168
1 169
1 170
1 171
1 172
1 173
1 174
1 175
1 176
1 177
1 178
1 179
1 180
1 181
1 182
1 183
1 184
1 185
1 186
1 187
1 188
1 189
1 190
1 191
1 192
1 193
1 194
1 195
1 196
1 197
1 198
1 199
1 200
1 201
1 202
1 203
1 204
1 205
1 206
1 207
1 208
1 209
1 210
1 211
1 212
1 213
1 214
1 215
1 216
1 217
1 218

POINT_DATA 219
SCALARS id int 1
LOOKUP_TABLE default
1
2
3
4
6
8
9
10
13
14
15
17
18
19
20
21
22
23
24
26
28
29
31
32
33
34
35
36
38
39
40
42
43
46
48
49
51
52
53
54
56
58
59
60
62
64
65
66
68
69
70
71
72
73
74
75
76
77
78
79
82
83
85
86
87
88
89
90
91
92
93
95
96
97
98
99
100
101
102
105
106
107
108
109
110
111
112
113
115
116
117
119
120
121
122
124
125
126
127
128
129
130
131
132
134
135
137
138
139
141
142
143
146
147
148
149
151
154
155
156
157
159
160
161
162
163
165
167
168
169
171
172
174
175
176
177
178
180
182
186
187
188
189
191
192
193
194
195
198
201
204
207
209
213
214
215
216
217
218
220
221
222
223
224
225
226
227
228
229
230
235
237
238
239
240
241
242
243
245
246
253
254
255
256
257
258
261
262
263
264
266
268
269
270
271
272
273
274
275
276
277
278
279
280
281
282
283
285
287
288
289
290
291
293
294
296
297
298
299

SCALARS type int 1
LOOKUP_TABLE default
1
1
1
1
1
1
1
1
1
1
1
1
1
1
1
1
1
1
1
1
1
1
1
1
1
1
1
1
1
1
1
1
1
1
1
1
1
1
1
1
1
1
1
1
1
1
1
1
1
1
1
1
1
1
1
1
1
1
1
1
1
1
1
1
1
1
1
1
1
1
1
1
1
1
1
1
1
1
1
1
1
1
1
1
1
1
1
1
1
1
1
1
1
1
1
1
1
1
1
1
1
1
1
1
1
1
1
1
1
1
1
1
1
1
1
1
1
1
1
1
1
1
1
1
1
1
1
1
1
1
1
1
1
1
1
1
1
1
1
1
1
1
1
1
1
1
1
1
1
1
1
1
1
1
1
1
1
1
1
1
1
1
1
1
1
1
1
1
1
1
1
1
1
1
1
1
1
1
1
1
1
1
1
1
1
1
1
1
1
1
1
1
1
1
1
1
1
1
1
1
1
1
1
1
1
1
1
1
1
1
1
1
1
1
1
1
1
1
1

SCALARS radius float 1
LOOKUP_TABLE default
0.0005
0.0005
0.0005
0.0005
0.0005
0.0005
0.0005
0.0005
0.0005
0.0005
0.0005
0.0005
0.0005
0.0005
0.0005
0.0005
0.0005
0.0005
0.0005
0.0005
0.0005
0.0005
0.0005
0.0005
0.0005
0.0005
0.0005
0.0005
0.0005
0.0005
0.0005
0.0005
0.0005
0.0005
0.0005
0.0005
0.0005
0.0005
0.0005
0.0005
0.0005
0.0005
0.0005
0.0005
0.0005
0.0005
0.0005
0.0005
0.0005
0.0005
0.0005
0.0005
0.0005
0.0005
0.0005
0.0005
0.0005
0.0005
0.0005
0.0005
0.0005
0.0005
0.0005
0.0005
0.0005
0.0005
0.0005
0.0005
0.0005
0.0005
0.0005
0.0005
0.0005
0.0005
0.0005
0.0005
0.0005
0.0005
0.0005
0.0005
0.0005
0.0005
0.0005
0.0005
0.0005
0.0005
0.0005
0.0005
0.0005
0.0005
0.0005
0.0005
0.0005
0.0005
0.0005
0.0005
0.0005
0.0005
0.0005
0.0005
0.0005
0.0005
0.0005
0.0005
0.0005
0.0005
0.0005
0.0005
0.0005
0.0005
0.0005
0.0005
0.0005
0.0005
0.0005
0.0005
0.0005
0.0005
0.0005
0.0005
0.0005
0.0005
0.0005
0.0005
0.0005
0.0005
0.0005
0.0005
0.0005
0.0005
0.0005
0.0005
0.0005
0.0005
0.0005
0.0005
0.0005
0.0005
0.0005
0.0005
0.0005
0.0005
0.0005
0.0005
0.0005
0.0005
0.0005
0.0005
0.0005
0.0005
0.0005
0.0005
0.0005
0.0005
0.0005
0.0005
0.0005
0.0005
0.0005
0.0005
0.0005
0.0005
0.0005
0.0005
0.0005
0.0005
0.0005
0.0005
0.0005
0.0005
0.0005
0.0005
0.0005
0.0005
0.0005
0.0005
0.0005
0.0005
0.0005
0.0005
0.0005
0.0005
0.0005
0.0005
0.0005
0.0005
0.0005
0.0005
0.0005
0.0005
0.0005
0.0005
0.0005
0.0005
0.0005
0.0005
0.0005
0.0005
0.0005
0.0005
0.0005
0.0005
0.0005
0.0005
0.0005
0.0005
0.0005
0.0005
0.0005
0.0005
0.0005
0.0005
0.0005
0.0005
0.0005
0.0005
0.0005
0.0005
0.0005

SCALARS mass float 1
LOOKUP_TABLE default
1.46608e-07
1.46608e-07
1.46608e-07
1.46608e-07
1.46608e-07
1.46608e-07
1.46608e-07
1.46608e-07
1.46608e-07
1.46608e-07
1.46608e-07
1.46608e-07
1.46608e-07
1.46608e-07
1.46608e-07
1.46608e-07
1.46608e-07
1.46608e-07
1.46608e-07
1.46608e-07
1.46608e-07
1.46608e-07
1.46608e-07
1.46608e-07
1.46608e-07
1.46608e-07
1.46608e-07
1.46608e-07
1.46608e-07
1.46608e-07
1.46608e-07
1.46608e-07
1.46608e-07
1.46608e-07
1.46608e-07
1.46608e-07
1.46608e-07
1.46608e-07
1.46608e-07
1.46608e-07
1.46608e-07
1.46608e-07
1.46608e-07
1.46608e-07
1.46608e-07
1.46608e-07
1.46608e-07
1.46608e-07
1.46608e-07
1.46608e-07
1.46608e-07
1.46608e-07
1.46608e-07
1.46608e-07
1.46608e-07
1.46608e-07
1.46608e-07
1.46608e-07
1.46608e-07
1.46608e-07
1.46608e-07
1.46608e-07
1.46608e-07
1.46608e-07
1.46608e-07
1.46608e-07
1.46608e-07
1.46608e-07
1.46608e-07
1.46608e-07
1.46608e-07
1.46608e-07
1.46608e-07
1.46608e-07
1.46608e-07
1.46608e-07
1.46608e-07
1.46608e-07
1.46608e-07
1.46608e-07
1.46608e-07
1.46608e-07
1.46608e-07
1.46608e-07
1.46608e-07
1.46608e-07
1.46608e-07
1.46608e-07
1.46608e-07
1.46608e-07
1.46608e-07
1.46608e-07
1.46608e-07
1.46608e-07
1.46608e-07
1.46608e-07
1.46608e-07
1.46608e-07
1.46608e-07
1.46608e-07
1.46608e-07
1.46608e-07
1.46608e-07
1.46608e-07
1.46608e-07
1.46608e-07
1.46608e-07
1.46608e-07
1.46608e-07
1.46608e-07
1.46608e-07
1.46608e-07
1.46608e-07
1.46608e-07
1.46608e-07
1.46608e-07
1.46608e-07
1.46608e-07
1.46608e-07
1.46608e-07
1.46608e-07
1.46608e-07
1.46608e-07
1.46608e-07
1.46608e-07
1.46608e-07
1.46608e-07
1.46608e-07
1.46608e-07
1.46608e-07
1.46608e-07
1.46608e-07
1.46608e-07
1.46608e-07
1.46608e-07
1.46608e-07
1.46608e-07
1.46608e-07
1.46608e-07
1.46608e-07
1.46608e-07
1.46608e-07
1.46608e-07
1.46608e-07
1.46608e-07
1.46608e-07
1.46608e-07
1.46608e-07
1.46608e-07
1.46608e-07
1.46608e-07
1.46608e-07
1.46608e-07
1.46608e-07
1.46608e-07
1.46608e-07
1.46608e-07
1.46608e-07
1.46608e-07
1.46608e-07
1.46608e-07
1.46608e-07
1.46608e-07
1.46608e-07
1.46608e-07
1.46608e-07
1.46608e-07
1.46608e-07
1.46608e-07
1.46608e-07
1.46608e-07
1.46608e-07
1.46608e-07
1.46608e-07
1.46608e-07
1.46608e-07
1.46608e-07
1.46608e-07
1.46608e-07
1.46608e-07
1.46608e-07
1.46608e-07
1.46608e-07
1.46608e-07
1.46608e-07
1.46608e-07
1.46608e-07
1.46608e-07
1.46608e-07
1.46608e-07
1.46608e-07
1.46608e-07
1.46608e-07
1.46608e-07
1.46608e-07
1.46608e-07
1.46608e-07
1.46608e-07
1.46608e-07
1.46608e-07
1.46608e-07
1.46608e-07
1.46608e-07
1.46608e-07
1.46608e-07
1.46608e-07
1.46608e-07
1.46608e-07
1.46608e-07
1.46608e-07
1.46608e-07
1.46608e-07
1.46608e-07
1.46608e-07
1.46608e-07
1.46608e-07
1.46608e-07
1.46608e-07
1.46608e-07

VECTORS velocity float
0.000621123 -0.00143149 0.00348858
0.00551493 0.000295993 0.0143608
-0.000629612 0.00536766 0.000679016
0.00676845 -0.00897143 -0.00852004
-0.00898616 0.0178791 0.00457613
0.000833344 -0.0141064 -0.0105607
-0.000247551 0.0139197 -0.00747199
0.00374497 0.00585392 0.00861915
-0.000334599 0.000275118 0.000535928
-0.000349888 -7.81962e-05 0.000174761
0.0151413 0.0105234 0.00201927
-0.000511461 -0.000472875 -3.95138e-05
-1.80042e-14 -5.04856e-14 2.16946e-13
-0.000753491 0.000176094 -0.000483552
-0.0182718 0.0326154 -0.0158448
0.00177708 0.00166051 0.000313151
0.000787784 0.00236888 -0.00139472
-0.000107186 -0.0096452 0.0121718
0.000619118 -0.00103051 -0.000231199
-1.35431e-05 -0.00201223 -0.012503
-0.000659387 -0.000435993 -0.000939269
0.000571797 -0.000911963 0.00206199
-0.000422503 0.000288448 0.000702009
-0.00665164 0.0116542 -0.00331312
0.00369847 0.00182278 0.00103077
-5.22366e-05 -0.0210042 0.00653397
0.0105232 0.0050823 -0.0118118
0.000249786 -0.00289288 0.00350587
-0.000491399 -0.00518215 0.00486439
0.00789903 0.00214261 0.00690802
-0.00285147 0.00193211 0.00206519
-0.00272805 0.000431961 -0.00298068
0.00187516 0.00656699 0.0191653
0.0521221 0.0289195 0.0848991
-0.000478174 -0.00354628 -5.72932e-05
-0.00849555 -0.00510289 -0.00611529
-0.00404054 0.00236797 0.000994273
7.19891e-06 -0.000121727 0.000478411
2.34888e-05 0.00141867 0.000204106
0.00397171 -0.00354756 -0.00674568
0.00191557 -0.000984745 -0.0144436
0.00266697 -0.00397366 0.000171418
-0.000195035 -0.00842231 0.019153
0.00270974 0.0255301 -0.0106599
-0.00111766 0.000210611 0.00202226
0.00569278 0.00960452 0.00645805
-0.000642522 -0.000414214 -0.000802648
-1.2532e-05 0.012172 -0.0168935
3.34204e-05 0.00159488 -0.00125808
-0.0078994 -0.00255858 -0.00462923
-0.00116431 -0.000189365 -0.0018846
0.00042257 -0.00188346 -0.00183961
-0.00328378 0.0010378 -0.00728382
-0.00344098 -0.0104318 -0.0220664
-0.000121685 -0.000129881 3.43276e-05
5.06305e-05 -7.45962e-05 0.000198697
0.00100946 0.00224821 -0.000186673
-0.00050179 -0.00018774 -0.000567448
0.00438025 0.00184044 0.00308406
0.00415264 0.000535272 0.00179268
0.00109608 0.0013756 0.000612657
-0.000597943 -0.0201014 0.0140751
0.00301723 -0.000881751 0.0127448
0.000891111 0.00264132 -0.00265358
-0.0153208 0.0042141 -0.00694533
0.00212564 0.0116066 0.0066032
0.00028413 -0.0190266 -0.0032112
0.00508616 0.000624453 0.00877226
0.000197646 0.00117487 0.000805818
0.000980152 -0.0195333 0.00669762
-0.0372848 0.0429962 -0.151523
0.00538866 -0.00560254 0.00869015
0.000528491 -0.00972063 0.0169755
-8.03088e-05 0.000142664 0.000140321
0.000165622 0.000873599 8.26639e-05
-0.00278459 -0.0117283 -0.00653063
0.000691604 -0.000886423 -0.0201265
-0.0118338 -0.0976313 0.0105915
-0.00301266 -0.00170247 0.00122127
-0.0021529 -0.000758976 0.00111051
0.00107271 0.00027958 0.000575678
0.000476417 0.000353522 -0.000614891
0.00016973 -0.0188553 -0.00800847
-0.0301719 -0.0327804 0.059001
-0.0567257 -0.113172 -0.078811
0.000715943 -0.000602714 0.000243381
-0.00220098 -0.00543576 -0.00956449
0.00124961 0.00314987 -0.000325225
0.000353235 -0.000477714 -0.000258754
0.00202427 -0.000861272 0.000173508
-0.00311942 -0.00259513 -0.0020354
0.0079292 -0.00636801 0.00220719
0.00414057 -0.00484584 0.0126452
0.000173165 -0.00560889 -0.00215025
0.00300255 0.000389765 -0.000158031
8.9713e-05 0.00809049 0.0208565
0.000291497 -0.00101688 0.00170202
0.00146931 -0.00254529 -0.0115143
0.00310053 0.00205154 0.0122506
0.000616147 -0.0193845 -0.00890677
-0.0676619 -0.0723722 0.00958772
0.00263695 0.00366512 0.000193808
-0.000868221 0.00235294 -0.00288368
7.65844e-05 0.00740404 0.0210853
-0.00547125 -0.00547145 -0.00834846
0.00301637 0.00324543 0.000777526
-9.25431e-11 0.0204361 0.0017886
0.00407939 0.00572559 -5.77276e-05
0.00212141 0.00680385 -0.000345692
0.00423839 -0.00753543 -0.0180536
0.000154474 -0.00792992 -0.0201422
0.00124536 0.0045197 -0.000361324
0.00472692 0.00679617 -0.000680972
-6.09534e-05 -0.000249107 0.000111104
0.00080405 -0.00554366 0.021054
0.00127837 -0.0119926 -0.0151458
0.00464911 0.00616247 0.00354901
0.00186704 -0.00516832 -0.0089651
0.00339181 3.5062e-05 -0.00177428
-0.0167551 0.0175333 0.0310139
-0.00782133 -0.00777679 -0.003323
-0.000213188 0.000255274 0.000119728
0.000566335 0.00139494 -0.0178687
0.000650375 0.00113292 0.000807174
0.00016728 0.00014138 -0.00012758
-0.00540151 0.00609438 -0.000480282
0.000217198 -7.56709e-05 0.00039002
-0.000172474 -0.00136992 0.00603135
0.00217143 0.00640306 -0.00377694
-0.00157035 0.00239729 -0.00341246
0.0021724 0.0080899 -0.00567381
-0.00886401 -0.0065804 0.015375
0.00150681 0.000587639 -0.00277863
0.00268636 -0.00249055 -2.02266e-05
-0.0315567 -0.0118722 0.0109222
0.00157481 0.00140538 0.00066849
-0.000266122 -0.000116018 0.000482773
0.00581101 -0.0061205 -0.00540369
0.0042546 -0.000799235 0.00118628
-0.0447082 -0.0546662 0.0511456
4.77547e-15 -1.01676e-14 -1.05707e-13
0.00123967 0.00169875 0.020731
0.00268368 0.0065216 0.00424422
-8.19574e-05 0.0248195 -0.000570053
0.00149299 0.0201468 0.00275732
0.0028387 0.00299257 -0.0114219
-0.00090636 -0.00326009 -0.000995738
0.00065134 0.000313981 -0.000524672
0.0037153 0.000147192 -0.00030863
0.00387979 -0.00105029 0.00192253
0.0112592 0.0901883 0.240124
0.00774182 -0.00153553 -0.00517163
0.000727958 -0.0176352 0.0109506
-0.0358926 -0.00277408 0.0093165
-0.000830788 0.00411248 0.00149769
-0.00313369 -0.00704 -0.014144
-0.00218295 0.00273364 -0.00209899
0.00187919 0.00195686 0.0040381
0.00241713 0.0175534 -0.0174733
-0.0465407 -0.0343055 0.015387
3.89561e-15 -1.12792e-14 -6.19605e-14
0.00231864 0.00332295 0.000865463
-0.00343657 0.0070896 -0.00517254
-0.00107334 -0.000451873 0.000398857
0.00169933 -0.00297388 0.0283209
0.000382779 0.000190759 -0.000278945
-3.49494e-06 0.0240465 0.00585107
0.00178833 -0.00771614 -0.00866604
0.0011389 0.000400413 -0.000281983
0.000386397 -0.00937119 0.017794
0.0032892 0.00105275 -0.000549301
0.00725206 0.00736281 0.00101248
0.00184899 -0.00586429 0.0178345
0.00173971 0.00174565 0.000909331
0.00159408 0.00271025 0.00325587
-0.001263 -0.000428832 -0.000871053
0.00285498 0.0013323 -0.00321783
-0.00137426 -0.00408704 0.00470464
0.000244124 -0.00237959 -0.000404919
4.42025e-05 -0.000242823 -0.00059906
0.00228052 -4.17928e-05 -0.000669311
-0.0101131 0.0184676 -0.00424043
0.0104468 0.0148003 -0.00697704
0.00251398 0.000618047 0.000503748
-0.0078811 0.0162948 0.0202385
0.00540346 0.0036386 -0.000787144
-0.000465009 0.000542341 0.000202933
-0.00921853 0.00139825 -0.00519462
-3.8178e-05 0.000394624 -0.00412119
0.00441005 0.00362595 -0.000195598
0.00157799 -0.00540895 0.0185503
0.00503873 0.00058003 -0.000326329
0.00576948 0.00724274 0.0143977
-0.00458773 0.00914582 -0.0115157
-0.0174377 -0.023048 0.0193114
0.000946876 0.00716855 0.00573388
0.000401458 0.00378509 -0.00275897
0.000887422 0.00128796 0.0015037
-0.000128093 -0.000625782 -0.000492022
0.00695447 0.000375564 0.00892532
-0.000214434 0.0174739 0.0155066
0.00328355 0.00731695 0.000372971
0.00110544 0.000183757 0.000139845
0.00106738 0.0207575 0.00286345
0.0036474 -0.00845287 -0.000507786
0.00329962 -0.000814102 -0.00128554
0.000945435 0.000227842 7.11817e-05
-0.000201707 -0.0021508 0.00264959
0.0432912 -0.0205278 -0.0566155
-0.00375166 -0.00246649 0.00384611
8.36219e-05 -0.000771145 0.000130844
0.00365417 0.0107313 0.00334742
0.00107571 0.0110833 -0.00717214
0.000113507 -0.00115729 -0.00188327
0.000298109 -0.0205687 0.00343133
0.000228667 0.0084368 0.0209702
-0.0660852 -0.0757253 -0.100607
0.000302251 -0.0182386 -0.00265341
-0.0202591 -0.0286881 -0.0173966

VECTORS force float
-4.46826e-07 6.01859e-07 -9.07401e-07
-6.69809e-06 3.17572e-05 -3.7071e-05
-1.63629e-06 9.53048e-06 -1.81866e-06
-7.26579e-08 -2.48094e-07 -1.73578e-07
0.0 0.0 -1.43822e-06
-7.88346e-09 -1.1768e-07 -7.82712e-08
3.76001e-07 7.0387e-06 -5.38236e-06
-1.59735e-06 -1.07719e-05 1.99517e-05
8.72847e-07 -2.55503e-07 -1.77842e-07
-8.83929e-07 -4.48759e-07 2.12679e-07
0.0 0.0 -1.43822e-06
8.57288e-07 -1.92082e-07 4.29648e-07
-8.39092e-21 -4.6428e-20 -1.29173e-20
-2.14203e-06 4.90317e-07 7.82927e-06
0.0 0.0 -1.43822e-06
8.26609e-08 7.93588e-08 -2.48298e-07
-3.59265e-07 6.42281e-08 2.64915e-07
-5.60961e-09 4.71329e-08 -1.53756e-08
-4.98734e-07 2.0967e-06 -8.22949e-07
-8.89497e-08 -2.58898e-08 -8.82918e-08
3.91296e-07 -1.06771e-06 2.80783e-07
9.79262e-08 7.48653e-08 -7.60147e-08
4.53667e-06 4.80982e-06 -1.95318e-06
0.0 0.0 -1.43822e-06
-2.61746e-06 1.60872e-05 -1.20806e-05
6.90267e-10 -1.09626e-09 1.05358e-08
0.0 0.0 -1.43822e-06
-7.48299e-07 9.48046e-07 -1.41697e-06
-3.14077e-07 3.80898e-07 -6.99611e-07
0.0 0.0 -1.43822e-06
-2.28783e-06 7.82972e-06 -6.21624e-07
9.9856e-09 -1.05832e-07 -1.25635e-06
-1.13482e-06 -3.38588e-06 -7.06015e-06
0.0 0.0 -1.43822e-06
1.09711e-05 -2.86077e-05 1.40755e-05
8.95427e-08 -2.85145e-07 -5.99246e-07
1.40323e-06 3.49998e-06 3.60374e-06
-1.93773e-06 1.20696e-06 2.8923e-06
2.28734e-07 -1.66256e-06 -4.8336e-07
-1.5004e-07 1.3425e-06 5.64736e-07
1.24241e-08 -6.04372e-09 6.20872e-08
8.0298e-06 -2.39167e-05 1.14182e-05
2.81456e-09 -9.05081e-09 2.8367e-08
-3.40292e-07 4.97928e-08 -4.80628e-08
-9.75426e-07 2.04793e-06 8.41187e-06
-2.29634e-06 -1.90701e-05 3.39763e-05
1.41058e-07 -5.30005e-06 3.39379e-07
1.21814e-09 -5.01856e-09 -1.35763e-08
1.75191e-07 1.13307e-08 4.00162e-07
4.84654e-08 -1.25067e-07 -1.08207e-06
2.12797e-07 1.63169e-08 -1.30792e-06
-1.17582e-05 -9.84925e-06 -4.49373e-06
-6.83395e-07 1.42718e-06 7.49624e-07
-8.92566e-06 -4.72409e-06 2.97757e-07
3.90913e-06 1.74848e-06 2.03274e-07
1.26829e-07 -1.29554e-07 -5.70535e-08
-4.94449e-07 -6.52684e-07 -1.22394e-08
-9.23105e-07 -1.64034e-06 -3.99487e-07
4.00089e-08 -1.41394e-07 -1.10308e-07
-2.03515e-06 3.21371e-06 -1.08023e-05
-1.29609e-06 -8.36e-07 1.75932e-06
3.21111e-05 9.58158e-05 -6.446e-05
1.96248e-06 -1.87605e-05 7.4822e-06
1.87735e-06 -1.22761e-06 1.93857e-06
3.12531e-08 -2.85668e-07 -1.24674e-06
-2.99078e-09 1.30599e-08 4.54927e-09
9.61018e-09 8.44629e-08 4.78356e-08
2.24511e-07 1.27028e-07 -1.61462e-06
1.13015e-07 -5.38452e-07 7.98986e-08
-4.08804e-08 -2.41804e-07 1.52555e-07
0.0 0.0 -1.43822e-06
8.02057e-06 -2.80114e-05 1.93889e-05
2.66094e-09 -3.22485e-08 1.11156e-07
3.17781e-06 7.66877e-07 -1.46622e-06
-2.74324e-07 2.88357e-07 9.10747e-07
0.0 0.0 -1.43822e-06
8.2347e-09 -1.03409e-08 2.93559e-08
0.0 0.0 -1.43822e-06
-9.84254e-07 -1.90042e-06 9.19899e-07
4.39418e-08 -1.21397e-07 -6.2589e-08
-1.47683e-06 -3.70179e-07 -3.69215e-06
5.03885e-07 2.17789e-06 2.52671e-06
-8.12809e-10 -1.11902e-08 6.50424e-09
0.0 0.0 -1.43822e-06
0.0 0.0 -1.43822e-06
-1.482e-07 2.18535e-08 -1.99054e-07
4.04039e-06 -5.16698e-06 2.47863e-06
5.16894e-08 1.58686e-07 -3.14822e-07
2.4009e-07 8.90688e-08 -3.35674e-07
-5.40038e-08 -2.01647e-07 -1.52195e-07
0.0 0.0 -1.43822e-06
-1.43947e-05 1.73444e-05 -9.83775e-06
1.66027e-05 1.95726e-05 -2.73966e-05
5.29283e-09 -1.3316e-08 2.67162e-08
1.79544e-07 5.09736e-07 -1.47817e-06
-4.7422e-10 1.26998e-08 -1.95271e-10
1.23422e-07 5.58934e-08 -1.43486e-07
2.02611e-07 -2.21669e-07 -8.0056e-07
-7.32051e-09 -8.00571e-09 -3.3285e-08
-3.77595e-09 -7.1496e-09 7.66138e-09
0.0 0.0 -1.43822e-06
6.14363e-07 -4.29589e-07 -3.27664e-07
-4.29705e-07 -1.75234e-08 -8.30706e-07
-8.84146e-07 1.49094e-06 -3.14658e-06
0.0 0.0 -1.43822e-06
-1.59765e-07 9.11482e-07 -4.53069e-07
-1.02436e-15 1.1171e-09 -1.36064e-08
2.62141e-06 -5.75557e-07 8.97978e-07
1.30222e-06 8.55355e-06 -2.4338e-06
-7.92965e-09 -3.94615e-07 -8.90345e-07
-5.33778e-10 -1.19478e-08 -5.16425e-10
-8.55423e-08 1.6406e-06 -2.72382e-07
2.93751e-07 9.76154e-09 4.01399e-07
6.44516e-08 -5.72628e-07 -6.45129e-07
6.31684e-09 1.46132e-08 2.89381e-09
-2.19135e-08 -3.15991e-08 -3.02884e-08
-1.70002e-06 2.0172e-06 -2.27527e-06
-1.55324e-06 -2.11969e-06 -1.53991e-06
-6.52196e-06 7.28552e-06 -1.16186e-05
0.0 0.0 -1.43822e-06
6.21432e-08 -8.50455e-09 3.64131e-08
-1.36468e-07 2.92064e-07 -4.52042e-07
1.33364e-08 -1.70431e-08 6.26163e-08
-1.36291e-08 -5.73536e-07 2.62996e-07
-8.89675e-07 -1.85424e-07 5.63507e-09
2.64339e-07 8.95497e-07 -1.32549e-07
-1.35295e-06 9.07214e-07 6.05543e-07
4.69357e-07 1.38597e-06 -2.14599e-06
-3.84267e-07 -4.14377e-06 9.9661e-06
-2.16173e-07 4.25424e-07 -1.00733e-06
1.41227e-06 1.96301e-06 2.25029e-06
8.37163e-07 -1.14278e-06 -2.96319e-06
1.52425e-06 2.57329e-06 -5.13864e-08
-2.24511e-07 -1.27028e-07 -1.26182e-06
0.0 0.0 -1.43822e-06
1.87173e-05 -1.79254e-05 -1.11389e-06
-7.44645e-07 -9.97678e-07 -4.68979e-07
4.24593e-08 -6.24736e-08 -1.45118e-08
-5.38133e-06 1.14719e-05 -2.17043e-05
0.0 0.0 -1.43822e-06
1.15924e-19 6.95626e-20 -1.69407e-21
-1.32682e-06 -1.0711e-05 1.54262e-07
7.08763e-08 2.61408e-06 2.1215e-06
1.20971e-07 7.21408e-08 -1.5709e-08
-5.78131e-09 1.64728e-08 -7.0869e-09
4.29319e-06 6.50055e-06 -4.66129e-06
-1.32571e-07 -3.3722e-07 -3.32836e-07
1.10801e-05 -4.32933e-06 5.30363e-06
0.0 0.0 -1.43822e-06
-6.69682e-08 -5.43116e-08 -1.43453e-06
0.0 0.0 -1.43822e-06
-8.35189e-09 6.19342e-08 -1.43429e-06
1.03308e-08 -5.89901e-08 2.19796e-08
0.0 0.0 -1.43822e-06
4.11686e-06 -9.3971e-06 5.36043e-06
0.0 0.0 -1.43822e-06
8.23935e-06 2.29646e-06 -7.3532e-06
1.95263e-06 1.23956e-06 -5.69828e-07
0.0 0.0 -1.43822e-06
0.0 0.0 -1.43822e-06
2.58345e-20 8.57621e-21 2.11758e-22
5.13757e-07 -1.46078e-07 -3.7951e-07
2.15238e-05 -1.954e-05 1.96829e-05
2.72074e-06 -1.64917e-06 4.77916e-06
2.89434e-07 -2.96405e-05 2.84374e-05
-1.72457e-07 -1.77059e-07 -1.04984e-06
1.5032e-09 3.89829e-09 -1.48566e-08
2.1431e-05 -5.04451e-07 -1.92376e-06
1.48505e-07 3.89709e-07 -1.63966e-06
-3.9303e-10 6.70472e-09 -5.58209e-08
-8.22682e-07 6.77114e-07 -5.16141e-06
-1.99854e-07 -1.32356e-07 -3.0511e-09
-1.82044e-08 4.95141e-09 3.52644e-09
-1.57637e-06 -2.65335e-06 -1.23217e-06
1.89694e-06 -2.08927e-06 4.43129e-07
9.56365e-07 1.27665e-07 -3.28765e-07
-2.39845e-07 6.02956e-07 -4.07896e-06
4.74141e-06 -2.96292e-08 6.27254e-07
-5.3758e-08 -1.33876e-07 5.36522e-09
-4.96861e-08 -1.77741e-07 -9.91769e-07
1.30176e-06 3.23104e-07 3.80061e-07
0.0 0.0 -1.43822e-06
0.0 0.0 -1.43822e-06
-1.20262e-06 -8.54018e-06 -2.96482e-07
0.0 0.0 -1.43822e-06
3.74418e-06 -1.15731e-05 7.86049e-06
-4.704e-07 1.49844e-06 1.88847e-07
0.0 0.0 -1.43822e-06
2.02845e-07 1.22893e-07 3.44078e-07
-1.38518e-06 6.73916e-06 -4.51345e-06
8.39259e-07 1.27886e-06 -3.52063e-06
4.15513e-06 -1.0372e-05 -3.9001e-07
-2.41716e-07 -4.10365e-07 -9.74825e-07
-1.47194e-07 3.35414e-07 -4.46196e-07
0.0 0.0 -1.43822e-06
-3.50634e-08 -7.18134e-08 -3.81169e-08
-5.28567e-07 1.05694e-06 -8.39774e-07
8.87096e-06 1.19149e-05 -7.96048e-06
4.92594e-08 1.28314e-06 6.70125e-08
1.2521e-05 1.29844e-05 1.25617e-05
5.46857e-10 6.68141e-09 -6.08796e-09
2.1968e-06 2.13746e-06 -8.14143e-07
7.44735e-10 3.98526e-08 -1.95853e-07
1.36747e-09 3.7961e-09 -1.37479e-08
-2.6265e-08 -1.77972e-07 5.09229e-08
0.0 0.0 -1.43822e-06
1.21699e-07 1.26426e-07 -1.1053e-07
-2.61593e-06 1.76762e-06 2.79113e-06
0.0 0.0 -1.43822e-06
3.74642e-06 -1.74574e-05 8.95439e-06
-1.40038e-07 -1.02916e-06 5.76592e-07
4.69969e-06 -3.24929e-05 3.99098e-05
-1.02235e-06 7.93838e-07 4.50472e-07
0.0 0.0 -1.43822e-06
-2.10023e-09 -4.05382e-08 7.66411e-09
3.20146e-07 -1.43558e-07 -1.20294e-06
0.0 0.0 -1.43822e-06
2.75811e-09 -1.54874e-08 1.36948e-08
0.0 0.0 -1.43822e-06
