# vtk DataFile Version 3.0
LIGGGHTS particles timestep 25200000
ASCII
DATASET POLYDATA
POINTS 89 float
0.0388307 0.0187336 0.00577146
0.0228842 0.0151612 0.0136494
0.0463915 0.0188632 0.00722158
0.0484151 0.0174667 0.00749112
0.0436892 0.020408 0.00596775
0.0279699 0.01829 0.0157743
0.08261 0.0191091 0.00590955
0.103453 0.0178822 0.00580682
0.0374387 0.0217221 0.00808931
0.0458692 0.0166351 0.00629564
0.0572659 0.0174442 0.00591793
0.0390378 0.0220778 0.0143871
0.0417538 0.0152808 0.00952897
0.0447402 0.0229073 0.0134547
0.043757 0.0226661 0.00914859
0.046726 0.0155497 0.0139902
0.0793161 0.0192087 0.00581236
0.0170063 0.0201419 0.00601043
0.0444999 0.0232726 0.0123109
0.0448873 0.0164493 0.00634816
0.0460394 0.0180004 0.0156562
0.0394451 0.0204597 0.0155844
0.0281872 0.0171864 0.0153579
0.0293819 0.0147707 0.0112357
0.0473289 0.014791 0.0113674
0.0440953 0.0232861 0.0106848
0.0357086 0.0161117 0.00660683
0.0479142 0.015666 0.00890646
0.0295433 0.0149313 0.0104839
0.0402584 0.0169436 0.0152419
0.0469382 0.015008 0.0128697
0.0492315 0.0210318 0.00772069
0.0439552 0.0161318 0.00656318
0.0384982 0.0233016 0.0123197
0.0482323 0.0166323 0.00797181
0.0405619 0.0160338 0.014539
0.0337238 0.0194282 0.0157646
0.0341307 0.0173148 0.015361
0.0353941 0.0147992 0.0111273
0.0456782 0.0196102 0.0157608
0.0322483 0.0233588 0.0111294
0.0286258 0.0183498 0.00592583
0.0463358 0.0166583 0.0151028
0.0188187 0.0189762 0.00718739
0.0372375 0.0210528 0.00770735
0.0367628 0.0188885 0.00735247
0.0238948 0.0168123 0.00667048
0.0470176 0.01787 0.0060864
0.0390565 0.0200205 0.00592023
0.0766607 0.0190533 0.00580856
0.0779397 0.0194308 0.00576583
0.0386867 0.0229932 0.0132648
0.0424878 0.0188132 0.00581899
0.0920805 0.0205253 0.0059177
0.0315525 0.0220426 0.00835451
0.0302424 0.0166407 0.007938
0.102423 0.0196788 0.00582979
0.0344044 0.0164499 0.0149342
0.377428 0.0175072 0.00840862
0.0507369 0.0203921 0.00594173
0.0312502 0.0211091 0.00769755
0.0440263 0.0170728 0.00623272
0.0361145 0.0161187 0.00833898
0.0422501 0.0166908 0.00785983
0.0434433 0.0217558 0.00812487
0.059059 0.0180876 0.00593586
0.0401007 0.0176268 0.0155108
0.0316007 0.0183082 0.00603438
0.0255955 0.0220325 0.00862184
0.0215463 0.0196109 0.00592744
0.0420269 0.0159355 0.00861051
0.0413939 0.0148244 0.0112439
0.0415525 0.0148973 0.0103258
0.0242602 0.0201274 0.00583803
0.0272436 0.0213374 0.0151095
0.0157796 0.0230744 0.0133866
0.0220847 0.0232455 0.0129998
0.0332098 0.02148 0.0149865
0.0371638 0.0187263 0.00573865
0.0328558 0.0191954 0.00572294
0.0449494 0.0224354 0.014188
0.0286236 0.0158696 0.0143976
0.0431597 0.0207369 0.00750044
0.0426526 0.0184852 0.00725678
0.035605 0.0150085 0.0100595
0.0350698 0.0188001 0.00572051
0.0165384 0.023319 0.012741
0.0291396 0.0148685 0.011925
0.0325056 0.0232776 0.0124428

VERTICES 89 178
1 0
1 1
1 2
1 3
1 4
1 5
1 6
1 7
1 8
1 9
1 10
1 11
1 12
1 13
1 14
1 15
1 16
1 17
1 18
1 19
1 20
1 21
1 22
1 23
1 24
1 25
1 26
1 27
1 28
1 29
1 30
1 31
1 32
1 33
1 34
1 35
1 36
1 37
1 38
1 39
1 40
1 41
1 42
1 43
1 44
1 45
1 46
1 47
1 48
1 49
1 50
1 51
1 52
1 53
1 54
1 55
1 56
1 57
1 58
1 59
1 60
1 61
1 62
1 63
1 64
1 65
1 66
1 67
1 68
1 69
1 70
1 71
1 72
1 73
1 74
1 75
1 76
1 77
1 78
1 79
1 80
1 81
1 82
1 83
1 84
1 85
1 86
1 87
1 88

POINT_DATA 89
SCALARS id int 1
LOOKUP_TABLE default
1
2
3
8
9
14
18
26
28
32
34
38
46
48
54
56
59
64
65
66
68
70
74
82
83
86
88
89
90
93
96
100
106
107
108
109
112
113
121
124
125
126
127
129
132
134
137
142
146
149
159
160
163
165
174
182
187
189
193
195
198
201
209
213
215
221
223
226
227
229
240
242
245
246
256
257
258
270
273
274
277
279
280
281
283
291
293
296
298

SCALARS type int 1
LOOKUP_TABLE default
1
1
1
1
1
1
1
1
1
1
1
1
1
1
1
1
1
1
1
1
1
1
1
1
1
1
1
1
1
1
1
1
1
1
1
1
1
1
1
1
1
1
1
1
1
1
1
1
1
1
1
1
1
1
1
1
1
1
1
1
1
1
1
1
1
1
1
1
1
1
1
1
1
1
1
1
1
1
1
1
1
1
1
1
1
1
1
1
1

SCALARS radius float 1
LOOKUP_TABLE default
0.0005
0.0005
0.0005
0.0005
0.0005
0.0005
0.0005
0.0005
0.0005
0.0005
0.0005
0.0005
0.0005
0.0005
0.0005
0.0005
0.0005
0.0005
0.0005
0.0005
0.0005
0.0005
0.0005
0.0005
0.0005
0.0005
0.0005
0.0005
0.0005
0.0005
0.0005
0.0005
0.0005
0.0005
0.0005
0.0005
0.0005
0.0005
0.0005
0.0005
0.0005
0.0005
0.0005
0.0005
0.0005
0.0005
0.0005
0.0005
0.0005
0.0005
0.0005
0.0005
0.0005
0.0005
0.0005
0.0005
0.0005
0.0005
0.0005
0.0005
0.0005
0.0005
0.0005
0.0005
0.0005
0.0005
0.0005
0.0005
0.0005
0.0005
0.0005
0.0005
0.0005
0.0005
0.0005
0.0005
0.0005
0.0005
0.0005
0.0005
0.0005
0.0005
0.0005
0.0005
0.0005
0.0005
0.0005
0.0005
0.0005

SCALARS mass float 1
LOOKUP_TABLE default
1.46608e-07
1.46608e-07
1.46608e-07
1.46608e-07
1.46608e-07
1.46608e-07
1.46608e-07
1.46608e-07
1.46608e-07
1.46608e-07
1.46608e-07
1.46608e-07
1.46608e-07
1.46608e-07
1.46608e-07
1.46608e-07
1.46608e-07
1.46608e-07
1.46608e-07
1.46608e-07
1.46608e-07
1.46608e-07
1.46608e-07
1.46608e-07
1.46608e-07
1.46608e-07
1.46608e-07
1.46608e-07
1.46608e-07
1.46608e-07
1.46608e-07
1.46608e-07
1.46608e-07
1.46608e-07
1.46608e-07
1.46608e-07
1.46608e-07
1.46608e-07
1.46608e-07
1.46608e-07
1.46608e-07
1.46608e-07
1.46608e-07
1.46608e-07
1.46608e-07
1.46608e-07
1.46608e-07
1.46608e-07
1.46608e-07
1.46608e-07
1.46608e-07
1.46608e-07
1.46608e-07
1.46608e-07
1.46608e-07
1.46608e-07
1.46608e-07
1.46608e-07
1.46608e-07
1.46608e-07
1.46608e-07
1.46608e-07
1.46608e-07
1.46608e-07
1.46608e-07
1.46608e-07
1.46608e-07
1.46608e-07
1.46608e-07
1.46608e-07
1.46608e-07
1.46608e-07
1.46608e-07
1.46608e-07
1.46608e-07
1.46608e-07
1.46608e-07
1.46608e-07
1.46608e-07
1.46608e-07
1.46608e-07
1.46608e-07
1.46608e-07
1.46608e-07
1.46608e-07
1.46608e-07
1.46608e-07
1.46608e-07
1.46608e-07

VECTORS velocity float
-9.52012e-15 8.71579e-14 2.22864e-13
0.00392753 0.00241991 0.0044791
-0.000303948 -0.00993502 -0.000231073
0.000273782 -0.020406 0.0068332
2.39679e-15 -2.04464e-14 6.48849e-14
7.89039e-06 0.0213157 0.00437302
-1.80449e-14 -5.04971e-14 2.1694e-13
1.69014e-15 7.51588e-15 2.07276e-13
0.00456992 0.00162644 -0.00126265
2.9032e-16 1.62447e-15 1.1182e-14
9.17906e-15 -1.90571e-14 -2.34434e-13
3.54196e-05 0.0155349 -0.0154267
0.000949722 -0.00900346 0.0167662
0.000687458 0.00775579 -0.0169013
1.90679e-05 -0.010992 -0.0196292
0.000713885 0.0106037 0.0162041
1.53341e-14 5.17755e-14 2.19708e-13
1.29996e-14 5.26917e-15 -1.0734e-13
9.15307e-05 0.00484765 -0.0212531
-4.52774e-15 -2.52972e-14 -1.74151e-13
0.00027239 0.020421 0.00504287
0.00310713 0.00840016 -0.00225584
3.39572e-05 0.0193479 0.0102662
0.00179793 -0.00209327 0.00410578
0.00018334 -1.05315e-05 0.0206807
-0.00176268 -0.00596225 -0.0215831
-4.48705e-15 2.81681e-14 7.49243e-14
-4.14695e-05 -0.0141512 0.0170924
0.000708311 -0.00378968 0.0150576
0.0044849 0.00813274 0.00302566
-1.41532e-05 0.00596551 0.0215966
0.000411548 -0.0127769 -0.00678854
1.95708e-16 -2.75167e-15 -2.89974e-15
0.000164905 0.00338415 -0.019972
0.000480804 -0.0151748 0.0114954
0.000134082 0.0149616 0.0160436
0.00457039 0.00625053 -0.00204497
0.00123946 0.0106241 0.00433659
0.000620006 -0.00103426 0.0137484
0.000723917 0.0196223 -0.00306507
2.90254e-05 -0.000809695 -0.0224077
-1.94458e-14 1.84123e-16 -2.28119e-13
0.000454981 0.0149654 0.0107026
0.000839414 -0.0147118 0.000168346
0.00452807 0.00563808 0.00057553
-0.000141029 -0.0217008 -0.00329888
-1.55938e-14 -3.19689e-14 -1.0479e-13
-3.1263e-15 -1.74657e-14 -1.20236e-13
-3.94601e-15 1.88507e-14 -9.32078e-14
-9.18472e-15 5.49391e-14 2.11157e-13
6.35462e-15 -3.81009e-14 -1.46474e-13
0.000149983 0.0109085 -0.0166485
-4.51498e-15 1.30449e-14 7.16622e-14
-7.84807e-15 -7.28946e-14 1.85342e-13
0.000341549 -0.0151136 -0.0148635
0.000512745 -0.00856458 0.00484618
1.50553e-15 2.26937e-15 -1.7845e-14
0.00159659 0.0106415 0.00887195
6.4208e-05 0.00201617 -0.00239614
-5.69948e-15 -2.04886e-14 -3.07616e-13
0.00322224 -0.00867298 -0.00323426
2.29517e-16 -6.63854e-16 -3.64347e-15
0.00198903 -0.009285 0.00963059
6.67025e-05 -0.020007 0.0107581
0.000527579 -0.0160502 -0.0123957
7.18624e-15 -1.49142e-14 -1.83491e-13
0.00285822 0.0117731 0.00322996
1.3147e-14 -4.4717e-14 -1.10014e-13
0.00297969 -0.00668146 -0.0088754
-1.81494e-14 8.13654e-15 -1.66091e-13
0.000425205 -0.0133827 0.0152935
9.18951e-05 -0.00246546 0.0194322
0.00100043 -0.00553402 0.0139626
-1.07572e-14 -1.73291e-15 1.75368e-13
0.00183323 0.0114865 -0.00768899
0.00536948 0.00181177 -0.004406
-0.0015806 0.00147776 0.000216563
3.14433e-05 0.0189732 -0.0117867
3.79507e-15 -1.82072e-14 8.99449e-14
8.90104e-16 5.06752e-15 -1.9634e-14
0.000379572 0.0143957 -0.0153065
0.000406758 0.00901546 0.00937886
-1.744e-05 -0.0169761 -0.00765679
0.000730739 -0.0195711 0.00436468
0.000888523 -0.0052955 0.0174709
-7.09065e-15 -4.06776e-14 1.57632e-13
0.00194488 0.000946022 -0.00107144
0.00131784 0.00363254 0.0112066
0.000599594 0.00421167 -0.0177083

VECTORS force float
-2.09111e-20 -2.43522e-21 -6.35275e-22
-1.00243e-08 -1.99099e-08 1.65699e-08
4.76552e-09 -3.35607e-08 -2.27181e-09
1.90681e-07 1.20129e-06 -5.94739e-07
-9.78058e-21 -3.54695e-21 -6.35275e-22
3.19369e-09 6.92492e-09 -1.05645e-08
-4.16899e-20 -4.10282e-20 -9.52912e-21
-1.5733e-21 -5.4263e-22 -2.11758e-22
1.57462e-07 -3.39761e-07 1.00397e-07
-7.50418e-21 1.1382e-21 0.0
3.44107e-22 -6.35275e-22 0.0
-1.11656e-09 -5.71252e-09 -1.05654e-08
-4.84595e-09 5.84322e-09 1.1732e-08
-2.14052e-07 -4.55602e-09 -5.40555e-07
-7.36236e-11 -1.15938e-08 3.46372e-09
-1.9202e-09 1.07941e-08 -8.90875e-09
-6.39298e-19 1.14667e-19 1.79995e-20
-6.33422e-20 -8.4968e-21 -7.41154e-21
-4.488e-10 -1.0066e-08 -6.84701e-09
2.44845e-22 -2.64698e-23 0.0
-3.22038e-09 9.80079e-09 -7.26901e-09
8.31061e-09 -9.23748e-08 4.62483e-08
-6.82863e-10 9.20934e-09 -8.50002e-09
7.40365e-09 1.50716e-08 -4.99947e-08
-0.000678349 -0.00180641 0.000299
-4.23546e-08 -1.50575e-08 -9.27496e-08
-1.69142e-20 -2.30816e-20 8.04681e-21
1.67696e-09 7.73578e-09 1.07575e-08
-1.32379e-09 6.26635e-09 -2.84093e-08
4.64715e-09 3.6363e-08 2.55883e-08
5.77012e-10 1.23284e-08 -9.04465e-10
1.22893e-08 -1.52799e-07 -3.84861e-08
-6.2204e-22 0.0 0.0
-7.91191e-10 -8.87771e-09 -1.02758e-08
2.73263e-08 -1.07942e-07 2.13751e-07
-9.97517e-10 1.10215e-08 -4.5956e-09
7.38844e-08 -7.69705e-08 -1.82573e-07
3.21824e-10 -1.2638e-08 -4.65821e-09
-3.06871e-09 1.84354e-08 -1.9399e-09
-5.82353e-09 1.27916e-08 -1.17213e-08
-2.19039e-09 -1.0773e-08 -7.3855e-09
-5.29396e-23 -9.69869e-23 0.0
-7.83409e-09 5.31268e-09 -2.03804e-08
-2.74146e-08 1.499e-08 6.64692e-08
-3.16692e-07 4.35537e-07 1.22201e-07
1.04351e-08 -1.62138e-09 1.17178e-08
-5.55865e-22 1.58819e-22 0.0
2.04479e-21 -1.05879e-22 0.0
4.17164e-20 1.02173e-20 2.11758e-22
3.8851e-20 1.73112e-20 4.23516e-22
7.87608e-20 2.05405e-20 -1.48231e-21
1.43232e-08 -2.78262e-08 3.10935e-09
0.0 5.29396e-23 0.0
-6.61744e-23 0.0 0.0
-3.81868e-10 -1.05457e-08 3.60662e-09
2.9417e-07 6.15638e-07 -6.36108e-07
4.94985e-21 -2.38228e-22 6.35275e-22
3.93607e-09 -3.43334e-08 -3.22734e-08
1.14357e-10 5.5485e-08 -5.2932e-08
-4.02308e-20 1.34202e-20 -2.11758e-22
-1.15971e-08 -5.73271e-08 -2.334e-08
-2.77933e-22 0.0 0.0
-5.94776e-09 1.19765e-08 8.45895e-09
1.71733e-09 3.99171e-09 1.09858e-08
-2.56163e-09 -1.3009e-08 2.52933e-09
-5.29396e-22 6.74979e-22 0.0
-8.51146e-09 1.96212e-08 1.39119e-08
1.92171e-20 8.57621e-21 -2.11758e-22
-3.15181e-09 5.32323e-08 1.41257e-08
5.29396e-23 0.0 0.0
-3.21822e-09 1.96256e-09 1.30083e-08
-1.61503e-08 1.74908e-08 1.20137e-08
7.69938e-09 1.50367e-08 -4.48576e-08
3.52048e-21 0.0 2.11758e-22
3.4698e-05 -6.5803e-06 7.53624e-06
-9.14269e-09 2.46262e-09 1.86584e-08
6.06449e-09 7.37827e-09 -1.01701e-08
-5.97239e-10 -3.30851e-09 -1.17443e-08
-3.58798e-20 -3.85929e-20 -5.71747e-21
0.0 0.0 0.0
-4.78346e-08 8.07425e-08 -8.35513e-08
1.74664e-08 6.06399e-08 -5.91332e-08
1.37905e-08 -2.48373e-08 1.6771e-08
-2.9544e-08 -9.07678e-08 1.71772e-08
-6.05249e-09 3.96138e-09 2.1748e-08
1.75627e-20 -5.55865e-21 -6.35275e-22
-1.23865e-09 1.13894e-08 3.83035e-08
4.01083e-09 -6.89756e-09 1.21482e-08
2.25872e-09 -1.07576e-08 -4.64376e-09
