# vtk DataFile Version 3.0
LIGGGHTS particles timestep 46600000
ASCII
DATASET POLYDATA
POINTS 88 float
0.0387146 0.0187573 0.00575718
0.0445128 0.0170097 0.0152619
0.0655998 0.0196785 0.0057339
0.102543 0.017821 0.00581645
0.0387828 0.0214812 0.00622724
0.047815 0.0223108 0.00871015
0.0815251 0.0188155 0.00575115
0.10448 0.0180949 0.00580371
0.056164 0.0201517 0.00735879
0.0458896 0.0168235 0.00626774
0.057335 0.017914 0.0058854
0.0592847 0.0202125 0.00740655
0.136461 0.0187737 0.0058834
0.0647697 0.0178932 0.00737047
0.064303 0.0192381 0.00572672
0.0830207 0.0197197 0.00608582
0.0793161 0.0192087 0.00581236
0.0170063 0.0201419 0.00601043
0.0632091 0.0196192 0.00574818
0.0448733 0.0164686 0.00634571
0.0666109 0.0233058 0.0120372
0.0561126 0.0184738 0.0157384
0.0487369 0.0230138 0.0126371
0.0501138 0.0184661 0.0157691
0.0673648 0.0216803 0.0149093
0.0745131 0.0200179 0.0058526
0.0357086 0.0161117 0.00660683
0.061915 0.0187982 0.00585866
0.0503866 0.0174669 0.0154986
0.0603325 0.0233179 0.0107334
0.0703124 0.0162319 0.00826594
0.0439552 0.0161318 0.00656318
0.0585615 0.0171211 0.00766434
0.0691281 0.0151099 0.0131986
0.0574237 0.0148217 0.0116544
0.0546025 0.023348 0.0120069
0.0550421 0.0227439 0.0136882
0.0509802 0.0153886 0.0138225
0.0607121 0.0186881 0.00591167
0.0531014 0.019511 0.00726316
0.0286258 0.0183498 0.00592583
0.0862115 0.0201056 0.00585272
0.0414095 0.0207586 0.00751358
0.057802 0.0149652 0.0101998
0.0542946 0.0231924 0.010486
0.0238948 0.0168123 0.00667048
0.0470176 0.01787 0.0060864
0.0388539 0.0197419 0.00587248
0.0766607 0.0190533 0.00580856
0.0779397 0.0194308 0.00576583
0.0589323 0.0188638 0.00726555
0.0424878 0.0188132 0.00581899
0.0920805 0.0205253 0.0059177
0.0654734 0.0177949 0.00827588
0.0514326 0.0148127 0.0116923
0.102423 0.0196788 0.00582979
0.0453636 0.0157749 0.00687326
0.3774 0.0175461 0.00839536
0.0507369 0.0203921 0.00594173
0.0516945 0.0148518 0.0105961
0.0440263 0.0170728 0.00623272
0.0569163 0.0154923 0.0139389
0.0631015 0.0151007 0.013211
0.0824671 0.0205532 0.00623389
0.059059 0.0180876 0.00593586
0.0599332 0.02262 0.00913574
0.0316007 0.0183082 0.00603438
0.0458929 0.0152427 0.00990022
0.0215463 0.0196109 0.00592744
0.0641138 0.0175884 0.00592149
0.0610956 0.0225475 0.0140388
0.0615052 0.0211859 0.0152274
0.0242602 0.0201274 0.00583803
0.0469966 0.0189887 0.00725513
0.0377618 0.0200318 0.0157033
0.0434278 0.0214859 0.0150597
0.0504712 0.0179279 0.00611076
0.0371638 0.0187263 0.00573865
0.0328558 0.0191954 0.00572294
0.044465 0.0204317 0.00594645
0.0467389 0.0177338 0.00752499
0.0650632 0.0183518 0.00578813
0.0829947 0.0213806 0.00646753
0.0565507 0.0168169 0.0151949
0.0350698 0.0188001 0.00572051
0.0424911 0.0234103 0.0115016
0.0667523 0.0199335 0.00579279
0.0539679 0.022576 0.00910343

VERTICES 88 176
1 0
1 1
1 2
1 3
1 4
1 5
1 6
1 7
1 8
1 9
1 10
1 11
1 12
1 13
1 14
1 15
1 16
1 17
1 18
1 19
1 20
1 21
1 22
1 23
1 24
1 25
1 26
1 27
1 28
1 29
1 30
1 31
1 32
1 33
1 34
1 35
1 36
1 37
1 38
1 39
1 40
1 41
1 42
1 43
1 44
1 45
1 46
1 47
1 48
1 49
1 50
1 51
1 52
1 53
1 54
1 55
1 56
1 57
1 58
1 59
1 60
1 61
1 62
1 63
1 64
1 65
1 66
1 67
1 68
1 69
1 70
1 71
1 72
1 73
1 74
1 75
1 76
1 77
1 78
1 79
1 80
1 81
1 82
1 83
1 84
1 85
1 86
1 87

POINT_DATA 88
SCALARS id int 1
LOOKUP_TABLE default
1
2
3
8
9
14
18
26
28
32
34
38
46
48
54
56
59
64
65
66
68
70
74
82
83
86
88
89
90
93
100
106
107
108
109
112
113
121
124
125
126
127
129
132
134
137
142
146
149
159
160
163
165
174
182
187
189
193
195
198
201
209
213
215
221
223
226
227
229
240
242
245
246
256
257
258
270
273
274
277
279
280
281
283
291
293
296
298

SCALARS type int 1
LOOKUP_TABLE default
1
1
1
1
1
1
1
1
1
1
1
1
1
1
1
1
1
1
1
1
1
1
1
1
1
1
1
1
1
1
1
1
1
1
1
1
1
1
1
1
1
1
1
1
1
1
1
1
1
1
1
1
1
1
1
1
1
1
1
1
1
1
1
1
1
1
1
1
1
1
1
1
1
1
1
1
1
1
1
1
1
1
1
1
1
1
1
1

SCALARS radius float 1
LOOKUP_TABLE default
0.0005
0.0005
0.0005
0.0005
0.0005
0.0005
0.0005
0.0005
0.0005
0.0005
0.0005
0.0005
0.0005
0.0005
0.0005
0.0005
0.0005
0.0005
0.0005
0.0005
0.0005
0.0005
0.0005
0.0005
0.0005
0.0005
0.0005
0.0005
0.0005
0.0005
0.0005
0.0005
0.0005
0.0005
0.0005
0.0005
0.0005
0.0005
0.0005
0.0005
0.0005
0.0005
0.0005
0.0005
0.0005
0.0005
0.0005
0.0005
0.0005
0.0005
0.0005
0.0005
0.0005
0.0005
0.0005
0.0005
0.0005
0.0005
0.0005
0.0005
0.0005
0.0005
0.0005
0.0005
0.0005
0.0005
0.0005
0.0005
0.0005
0.0005
0.0005
0.0005
0.0005
0.0005
0.0005
0.0005
0.0005
0.0005
0.0005
0.0005
0.0005
0.0005
0.0005
0.0005
0.0005
0.0005
0.0005
0.0005

SCALARS mass float 1
LOOKUP_TABLE default
1.46608e-07
1.46608e-07
1.46608e-07
1.46608e-07
1.46608e-07
1.46608e-07
1.46608e-07
1.46608e-07
1.46608e-07
1.46608e-07
1.46608e-07
1.46608e-07
1.46608e-07
1.46608e-07
1.46608e-07
1.46608e-07
1.46608e-07
1.46608e-07
1.46608e-07
1.46608e-07
1.46608e-07
1.46608e-07
1.46608e-07
1.46608e-07
1.46608e-07
1.46608e-07
1.46608e-07
1.46608e-07
1.46608e-07
1.46608e-07
1.46608e-07
1.46608e-07
1.46608e-07
1.46608e-07
1.46608e-07
1.46608e-07
1.46608e-07
1.46608e-07
1.46608e-07
1.46608e-07
1.46608e-07
1.46608e-07
1.46608e-07
1.46608e-07
1.46608e-07
1.46608e-07
1.46608e-07
1.46608e-07
1.46608e-07
1.46608e-07
1.46608e-07
1.46608e-07
1.46608e-07
1.46608e-07
1.46608e-07
1.46608e-07
1.46608e-07
1.46608e-07
1.46608e-07
1.46608e-07
1.46608e-07
1.46608e-07
1.46608e-07
1.46608e-07
1.46608e-07
1.46608e-07
1.46608e-07
1.46608e-07
1.46608e-07
1.46608e-07
1.46608e-07
1.46608e-07
1.46608e-07
1.46608e-07
1.46608e-07
1.46608e-07
1.46608e-07
1.46608e-07
1.46608e-07
1.46608e-07
1.46608e-07
1.46608e-07
1.46608e-07
1.46608e-07
1.46608e-07
1.46608e-07
1.46608e-07
1.46608e-07

VECTORS velocity float
-8.68244e-15 7.85696e-14 2.00897e-13
0.000158982 0.0185996 0.0104158
1.3919e-15 -3.7313e-14 1.36236e-13
-9.78444e-16 -4.35258e-15 -1.20042e-13
-2.74764e-19 1.05516e-18 -5.71337e-18
-0.000109431 -0.0135717 -0.0187572
1.78642e-20 7.25055e-21 -2.82648e-20
1.49807e-14 2.2367e-14 -1.76075e-13
0.000447315 -0.00391643 -0.00146223
-4.52716e-15 -2.52972e-14 -1.74151e-13
1.39777e-15 3.9101e-15 9.33157e-14
0.000502346 -0.011951 -0.00352659
2.02168e-15 3.13965e-15 -2.9051e-14
0.000473897 -0.018479 0.00318422
3.49463e-15 -1.65668e-14 -2.82398e-13
-1.5826e-14 -4.43654e-14 1.90571e-13
1.53573e-14 5.18333e-14 2.19693e-13
1.29826e-14 5.25636e-15 -1.07342e-13
3.97253e-15 5.47607e-14 -1.51839e-13
-2.67102e-17 -1.41966e-16 -9.79557e-16
0.00346497 0.00123946 -0.0110281
0.000329588 0.0203747 0.00260782
0.00106476 0.00424884 -0.022159
0.000212413 0.0206396 0.00280394
0.0027293 0.00959735 -0.00844014
-9.30119e-15 -5.05877e-14 2.04287e-13
-4.42342e-15 2.82038e-14 7.49147e-14
-4.35366e-15 -1.94152e-14 -1.3904e-13
0.000599289 0.0168055 0.00707255
0.0015503 -0.00329905 -0.0139728
0.000108308 -0.0164267 0.0139053
1.9598e-16 -2.75167e-15 -2.89973e-15
0.0016026 -0.0133666 0.00819395
0.000106953 0.00802453 0.0204932
0.000166368 0.00088944 0.0212279
0.000486435 0.00283532 -0.0204588
0.000206999 0.0106084 -0.0180221
0.000462112 0.0109275 0.0177593
-5.2192e-15 -2.31879e-14 -1.66016e-13
8.70306e-05 -0.0206528 -0.00296473
-1.9446e-14 1.85206e-16 -2.28118e-13
2.60366e-15 -1.48761e-14 1.99836e-13
0.000390537 -0.0163587 -0.00774269
0.00110307 -0.0035778 0.00963464
0.000304517 -0.00541008 -0.0198674
-1.55915e-14 -3.19701e-14 -1.0479e-13
-3.12755e-15 -1.74654e-14 -1.20236e-13
-2.83263e-15 1.34613e-14 -6.65668e-14
-9.17874e-15 5.49353e-14 2.11159e-13
6.35276e-15 -3.80996e-14 -1.46475e-13
9.10154e-05 -0.0214044 0.000704436
-4.51498e-15 1.30452e-14 7.16622e-14
-7.84779e-15 -7.28946e-14 1.85342e-13
-1.19966e-09 -0.0192252 0.00728569
0.000213607 0.00107126 0.0211834
1.51974e-15 2.26758e-15 -1.7844e-14
2.7496e-17 -5.65085e-16 -6.90619e-16
-8.43122e-06 -0.00396139 0.00248547
-5.72262e-15 -2.04848e-14 -3.07615e-13
0.00230249 -0.00240367 0.0142246
2.29663e-16 -6.63856e-16 -3.64347e-15
0.00063932 0.0116283 0.0171411
0.000380084 0.00812755 0.019111
-9.53232e-15 -2.67192e-14 1.14755e-13
7.19874e-15 -1.49092e-14 -1.83491e-13
0.00011384 -0.0115198 -0.0178838
1.31787e-14 -4.47285e-14 -1.10006e-13
0.157204 -0.00495426 0.0963627
-1.81457e-14 8.13653e-15 -1.66092e-13
-8.57345e-15 -2.11863e-14 -1.67276e-13
0.00114311 0.00851809 -0.0112622
0.000272266 0.0186883 -0.0104586
-1.0758e-14 -1.7329e-15 1.75368e-13
0.00118195 -0.0169046 -0.000124863
0.00244251 0.00895239 -0.00131885
0.000928268 0.0153891 -0.0113644
-3.69953e-15 -1.32324e-14 -1.98725e-13
3.90554e-15 -1.81582e-14 8.99501e-14
8.89304e-16 5.06752e-15 -1.9634e-14
-2.73737e-15 2.53167e-14 -8.03195e-14
-2.75978e-05 -0.0214191 0.00648707
2.82156e-15 -1.33706e-14 -2.27915e-13
-3.55624e-16 2.90538e-15 -1.31084e-14
0.000123882 0.0181848 0.0116687
-7.09799e-15 -4.06769e-14 1.57632e-13
0.000645015 0.00104847 -0.0213474
4.16681e-16 -9.53418e-15 3.48314e-14
0.000138281 -0.00987147 -0.0191462

VECTORS force float
0.0 0.0 0.0
-1.04666e-09 9.4836e-09 -6.22617e-09
-8.71251e-19 -4.78044e-20 -5.29396e-21
8.43724e-23 -6.61744e-24 0.0
-2.48154e-23 -1.14151e-22 0.0
-2.6789e-09 -1.1781e-08 1.11587e-09
0.0 0.0 0.0
1.55907e-20 1.59613e-20 3.38813e-21
2.71472e-06 -0.000112085 -1.80189e-05
-1.70068e-21 7.41154e-22 0.0
2.36514e-19 1.37511e-19 -9.31736e-21
9.36937e-10 -1.12412e-08 2.34097e-10
-1.71259e-20 7.3586e-21 6.35275e-22
-2.05226e-07 -8.749e-07 4.1274e-07
2.06464e-21 9.13207e-22 0.0
8.65562e-21 8.47033e-22 4.23516e-22
-1.31277e-19 6.88214e-22 9.52912e-21
4.10811e-20 -3.90429e-21 4.87044e-21
-2.50338e-20 1.21761e-21 2.11758e-22
1.05879e-22 1.58819e-22 4.23516e-22
-1.66753e-08 1.85246e-08 -5.24449e-08
-1.8321e-09 7.75262e-09 -1.04824e-08
2.43123e-08 -8.00192e-09 -3.75267e-08
-8.24696e-10 8.02395e-09 -1.02501e-08
-2.05517e-08 8.88212e-08 -6.97292e-08
6.4851e-22 -4.07635e-21 -1.90582e-21
-1.70584e-19 2.0117e-21 -1.12232e-20
-6.92185e-21 -1.37643e-21 0.0
6.65021e-09 1.04519e-08 -2.50479e-08
-2.63143e-07 -7.47193e-08 2.95202e-06
-6.91348e-10 2.26436e-09 1.24053e-08
-2.64698e-22 -1.05879e-22 0.0
-1.16457e-08 -2.25094e-08 2.10923e-08
-1.51201e-09 1.232e-08 -7.2951e-10
-7.8403e-10 1.11606e-08 4.37624e-09
3.5782e-10 -1.01923e-08 -6.6185e-09
-8.38205e-10 -5.62974e-09 -1.02196e-08
-5.34067e-09 1.62051e-08 4.80444e-09
1.32481e-20 5.37337e-21 -8.47033e-22
-3.07838e-09 -5.88512e-09 9.48158e-09
-1.32349e-22 -7.20619e-21 0.0
-3.02086e-21 6.74979e-22 2.11758e-22
8.27409e-10 -1.18353e-08 2.88469e-08
4.72666e-06 1.77377e-06 -2.57354e-05
-1.24595e-09 -1.20616e-08 -3.96714e-09
-4.52633e-21 -4.76456e-22 6.35275e-22
-5.88953e-22 -7.94093e-23 0.0
-6.61744e-24 0.0 0.0
-7.27522e-20 -1.21232e-20 -2.32934e-21
-3.35571e-20 -1.08526e-20 8.47033e-22
-5.69129e-10 -4.09135e-09 1.1511e-08
0.0 0.0 0.0
6.61744e-23 0.0 0.0
5.43482e-11 2.42376e-09 1.76707e-08
-1.43604e-09 1.11237e-08 4.97677e-09
-1.89259e-20 1.37643e-20 2.11758e-22
5.29396e-23 -1.58819e-22 -4.23516e-22
-8.68698e-10 -5.30252e-08 1.60725e-08
2.0706e-20 -4.53957e-21 0.0
1.41413e-06 2.25109e-06 2.06518e-05
-1.58819e-22 1.05879e-22 0.0
-8.83103e-09 1.64402e-08 1.12517e-08
-2.17194e-10 1.29612e-08 -3.05225e-10
1.16467e-21 1.16467e-21 4.23516e-22
2.59139e-20 9.79382e-21 2.11758e-22
-1.21772e-09 -1.2122e-08 2.17431e-09
-4.43634e-20 -3.17637e-21 -3.38813e-21
-0.0425385 -0.00846322 -0.0223284
0.0 0.0 0.0
1.3976e-20 -2.0117e-21 -4.23516e-22
-2.47315e-09 -7.28565e-09 -5.874e-09
-2.08179e-09 8.61666e-12 -1.19594e-08
8.60268e-22 0.0 2.11758e-22
-3.35316e-08 -4.51982e-07 -4.63499e-08
2.28781e-07 -5.43373e-07 -5.03862e-08
-5.2588e-09 5.61736e-09 -1.62756e-08
1.58819e-21 -5.29396e-22 0.0
-3.49401e-19 -7.21037e-20 -2.11758e-22
5.29396e-23 0.0 0.0
3.39124e-19 5.81276e-20 4.23516e-21
-7.52004e-10 1.37415e-09 1.12653e-08
4.00355e-22 -1.32349e-23 0.0
1.45842e-19 1.25467e-20 -1.05879e-21
-6.48646e-10 1.05189e-08 -6.24482e-09
-1.24805e-20 6.67038e-21 1.05879e-21
2.88949e-09 -1.05768e-08 -3.08009e-09
-1.07272e-19 -1.64113e-21 4.23516e-22
-1.72542e-06 1.30843e-06 5.88904e-07
