# vtk DataFile Version 3.0
LIGGGHTS particles timestep 33800000
ASCII
DATASET POLYDATA
POINTS 89 float
0.0388307 0.0187336 0.00577146
0.032473 0.0227595 0.00922483
0.0527919 0.0176668 0.0155936
0.0567578 0.0232629 0.0105729
0.0436892 0.020408 0.00596775
0.0356982 0.0149048 0.0126261
0.08261 0.0191091 0.00590955
0.103453 0.0178822 0.00580682
0.0461806 0.020295 0.0156404
0.0458692 0.0166351 0.00629564
0.0572659 0.0174442 0.00591793
0.0473053 0.015786 0.0143242
0.0498036 0.0204529 0.00747997
0.0530052 0.0166741 0.0150983
0.0520843 0.0207588 0.0154205
0.0544413 0.0154471 0.00936022
0.0793161 0.0192087 0.00581236
0.0170063 0.0201419 0.00601043
0.0632091 0.0196192 0.00574818
0.0448873 0.0164493 0.00634816
0.0538728 0.0147892 0.0118816
0.0464362 0.015909 0.00860212
0.0361739 0.014914 0.0106363
0.0377504 0.0201308 0.00740545
0.0553164 0.0184856 0.00729883
0.0524408 0.0192116 0.0157846
0.0357086 0.0161117 0.00660683
0.0557702 0.0203001 0.00739501
0.0386351 0.0230715 0.0100019
0.048312 0.0150355 0.0100669
0.0549656 0.0168775 0.00782156
0.0572774 0.0231952 0.012685
0.0439552 0.0161318 0.00656318
0.0465987 0.0186053 0.015795
0.0560223 0.0214665 0.00790741
0.0458669 0.0233371 0.0118789
0.042698 0.0159211 0.00856386
0.0431114 0.0175889 0.00750086
0.0436624 0.0196505 0.00720914
0.0536366 0.0150138 0.0129307
0.0414931 0.0153438 0.0136942
0.0286258 0.0183498 0.00592583
0.0540938 0.014822 0.0106324
0.0293588 0.0156973 0.0142153
0.0459282 0.0215829 0.0150377
0.045022 0.0233617 0.0117441
0.0238948 0.0168123 0.00667048
0.0470176 0.01787 0.0060864
0.0390565 0.0200205 0.00592023
0.0766607 0.0190533 0.00580856
0.0779397 0.0194308 0.00576583
0.0470634 0.0165278 0.014964
0.0424878 0.0188132 0.00581899
0.0920805 0.0205253 0.0059177
0.0407982 0.0175398 0.015517
0.0388429 0.0233441 0.0109464
0.102423 0.0196788 0.00582979
0.0433748 0.0186595 0.00721506
0.377408 0.0174364 0.00845242
0.0507369 0.0203921 0.00594173
0.0398133 0.021792 0.0147132
0.0440263 0.0170728 0.00623272
0.0448639 0.0233695 0.0109613
0.0506139 0.0230475 0.0101727
0.0518406 0.0218172 0.0148365
0.059059 0.0180876 0.00593586
0.0480528 0.0148282 0.0111541
0.0316007 0.0183082 0.00603438
0.0328019 0.0233246 0.0107293
0.0215463 0.0196109 0.00592744
0.0502739 0.0219271 0.00827862
0.0489038 0.016593 0.00801704
0.0493334 0.0184694 0.00723818
0.0242602 0.0201274 0.00583803
0.0344892 0.0189654 0.01577
0.0260534 0.0213628 0.00797113
0.0315084 0.0191608 0.00722141
0.0423857 0.0152175 0.00961689
0.0371638 0.0187263 0.00573865
0.0328558 0.0191954 0.00572294
0.0533893 0.0156168 0.0141194
0.0369495 0.0166697 0.00792353
0.0514626 0.0227037 0.0136655
0.050929 0.0233721 0.0113865
0.044648 0.023077 0.0100936
0.0350698 0.0188001 0.00572051
0.0302632 0.0149536 0.0102537
0.0373516 0.0184893 0.00725383
0.0416801 0.0149352 0.0127186

VERTICES 89 178
1 0
1 1
1 2
1 3
1 4
1 5
1 6
1 7
1 8
1 9
1 10
1 11
1 12
1 13
1 14
1 15
1 16
1 17
1 18
1 19
1 20
1 21
1 22
1 23
1 24
1 25
1 26
1 27
1 28
1 29
1 30
1 31
1 32
1 33
1 34
1 35
1 36
1 37
1 38
1 39
1 40
1 41
1 42
1 43
1 44
1 45
1 46
1 47
1 48
1 49
1 50
1 51
1 52
1 53
1 54
1 55
1 56
1 57
1 58
1 59
1 60
1 61
1 62
1 63
1 64
1 65
1 66
1 67
1 68
1 69
1 70
1 71
1 72
1 73
1 74
1 75
1 76
1 77
1 78
1 79
1 80
1 81
1 82
1 83
1 84
1 85
1 86
1 87
1 88

POINT_DATA 89
SCALARS id int 1
LOOKUP_TABLE default
1
2
3
8
9
14
18
26
28
32
34
38
46
48
54
56
59
64
65
66
68
70
74
82
83
86
88
89
90
93
96
100
106
107
108
109
112
113
121
124
125
126
127
129
132
134
137
142
146
149
159
160
163
165
174
182
187
189
193
195
198
201
209
213
215
221
223
226
227
229
240
242
245
246
256
257
258
270
273
274
277
279
280
281
283
291
293
296
298

SCALARS type int 1
LOOKUP_TABLE default
1
1
1
1
1
1
1
1
1
1
1
1
1
1
1
1
1
1
1
1
1
1
1
1
1
1
1
1
1
1
1
1
1
1
1
1
1
1
1
1
1
1
1
1
1
1
1
1
1
1
1
1
1
1
1
1
1
1
1
1
1
1
1
1
1
1
1
1
1
1
1
1
1
1
1
1
1
1
1
1
1
1
1
1
1
1
1
1
1

SCALARS radius float 1
LOOKUP_TABLE default
0.0005
0.0005
0.0005
0.0005
0.0005
0.0005
0.0005
0.0005
0.0005
0.0005
0.0005
0.0005
0.0005
0.0005
0.0005
0.0005
0.0005
0.0005
0.0005
0.0005
0.0005
0.0005
0.0005
0.0005
0.0005
0.0005
0.0005
0.0005
0.0005
0.0005
0.0005
0.0005
0.0005
0.0005
0.0005
0.0005
0.0005
0.0005
0.0005
0.0005
0.0005
0.0005
0.0005
0.0005
0.0005
0.0005
0.0005
0.0005
0.0005
0.0005
0.0005
0.0005
0.0005
0.0005
0.0005
0.0005
0.0005
0.0005
0.0005
0.0005
0.0005
0.0005
0.0005
0.0005
0.0005
0.0005
0.0005
0.0005
0.0005
0.0005
0.0005
0.0005
0.0005
0.0005
0.0005
0.0005
0.0005
0.0005
0.0005
0.0005
0.0005
0.0005
0.0005
0.0005
0.0005
0.0005
0.0005
0.0005
0.0005

SCALARS mass float 1
LOOKUP_TABLE default
1.46608e-07
1.46608e-07
1.46608e-07
1.46608e-07
1.46608e-07
1.46608e-07
1.46608e-07
1.46608e-07
1.46608e-07
1.46608e-07
1.46608e-07
1.46608e-07
1.46608e-07
1.46608e-07
1.46608e-07
1.46608e-07
1.46608e-07
1.46608e-07
1.46608e-07
1.46608e-07
1.46608e-07
1.46608e-07
1.46608e-07
1.46608e-07
1.46608e-07
1.46608e-07
1.46608e-07
1.46608e-07
1.46608e-07
1.46608e-07
1.46608e-07
1.46608e-07
1.46608e-07
1.46608e-07
1.46608e-07
1.46608e-07
1.46608e-07
1.46608e-07
1.46608e-07
1.46608e-07
1.46608e-07
1.46608e-07
1.46608e-07
1.46608e-07
1.46608e-07
1.46608e-07
1.46608e-07
1.46608e-07
1.46608e-07
1.46608e-07
1.46608e-07
1.46608e-07
1.46608e-07
1.46608e-07
1.46608e-07
1.46608e-07
1.46608e-07
1.46608e-07
1.46608e-07
1.46608e-07
1.46608e-07
1.46608e-07
1.46608e-07
1.46608e-07
1.46608e-07
1.46608e-07
1.46608e-07
1.46608e-07
1.46608e-07
1.46608e-07
1.46608e-07
1.46608e-07
1.46608e-07
1.46608e-07
1.46608e-07
1.46608e-07
1.46608e-07
1.46608e-07
1.46608e-07
1.46608e-07
1.46608e-07
1.46608e-07
1.46608e-07
1.46608e-07
1.46608e-07
1.46608e-07
1.46608e-07
1.46608e-07
1.46608e-07

VECTORS velocity float
-9.8623e-15 8.71533e-14 2.22851e-13
0.000452976 -0.00855901 -0.0141704
0.00075152 0.00803952 0.00256854
0.0015814 -0.00495887 -0.0191722
2.42952e-15 -2.04482e-14 6.48831e-14
0.00115887 0.00553291 0.0169294
-1.80115e-14 -5.05097e-14 2.1694e-13
1.72098e-15 7.50751e-15 2.07276e-13
0.000205366 0.0207196 -0.00567994
2.91937e-16 1.62442e-15 1.1182e-14
9.1813e-15 -1.90549e-14 -2.34434e-13
0.000750332 0.0130704 0.0143851
0.000165901 -0.0200111 -0.00697199
0.000137742 0.017683 0.0120089
0.000783084 0.0112656 -0.00463766
0.000236071 -0.0115163 0.0183329
1.51657e-14 5.1874e-14 2.19696e-13
1.30219e-14 5.26061e-15 -1.07337e-13
3.96819e-15 5.47603e-14 -1.51839e-13
-4.5277e-15 -2.5297e-14 -1.74151e-13
0.00013929 0.00181954 0.0210458
0.000169183 -0.00425515 0.00424925
0.00120931 -0.00139564 0.0170807
-0.0973357 0.0115289 0.0624415
0.000113002 -0.0221851 0.00189999
3.94559e-05 0.0219194 8.38115e-05
-4.48011e-15 2.81899e-14 7.49165e-14
0.00185319 -0.00984764 -0.00333633
0.000321786 -0.00749883 -0.0188569
0.000217097 -0.00736156 0.0199141
0.00135829 -0.0124991 0.00786074
0.000530055 0.00457095 -0.018626
1.95966e-16 -2.75168e-15 -2.89973e-15
0.000231392 0.0217727 0.00313834
0.000732274 -0.0135115 -0.00933951
0.00025193 0.00349966 -0.0216032
0.00073173 -0.0132504 0.014961
0.000170911 -0.0201537 0.00703334
0.000215982 -0.0211567 -0.00336248
-0.000170194 0.00595449 0.0224993
0.00091941 0.00945408 0.0153741
-1.9446e-14 1.83445e-16 -2.28118e-13
3.95934 5.93308 2.17467
0.0013506 0.00957073 0.0147686
0.000788915 0.0146888 -0.011208
0.000486393 0.00280366 -0.0211096
-1.55918e-14 -3.19694e-14 -1.0479e-13
-3.12684e-15 -1.74652e-14 -1.20236e-13
-3.97793e-15 1.88395e-14 -9.32087e-14
-9.26538e-15 5.49359e-14 2.11155e-13
6.37018e-15 -3.81132e-14 -1.4647e-13
0.000263019 0.0171697 0.0134685
-4.51498e-15 1.3045e-14 7.16622e-14
-7.84832e-15 -7.28946e-14 1.85342e-13
0.001017 0.014802 0.00588907
0.00079597 -0.00119299 -0.0135784
1.51529e-15 2.27038e-15 -1.7844e-14
0.00029161 -0.0133799 0.000304505
2.91289e-05 -0.000986729 0.00097448
-5.72375e-15 -2.04838e-14 -3.07615e-13
0.000187666 0.0138581 -0.0117448
2.29708e-16 -6.63872e-16 -3.64347e-15
0.000549916 -0.00343234 -0.0184898
0.00029965 -0.00703921 -0.0194741
8.21858e-05 0.0185916 -0.013401
7.18518e-15 -1.49133e-14 -1.83491e-13
0.000452714 -0.000610588 0.0193085
1.32043e-14 -4.47731e-14 -1.09984e-13
0.00076021 -0.00262266 -0.0191735
-1.81491e-14 8.14252e-15 -1.66091e-13
-2.79836e-05 -0.0109813 -0.0122316
0.000439597 -0.0149883 0.0118682
0.000394633 -0.0203696 0.00285135
-1.07574e-14 -1.7261e-15 1.75368e-13
0.000142697 0.022679 0.00276861
-7.61469e-05 -0.017798 -0.0126527
7.35986e-05 -0.0221573 -0.00192392
-0.000136539 -0.00884808 0.0189398
3.80925e-15 -1.81889e-14 8.9948e-14
8.74021e-16 5.06752e-15 -1.96348e-14
0.000808696 0.0126857 0.0174998
1.32947e-05 -0.0191526 0.0115323
0.00244385 0.0060162 -0.0120586
0.00329449 0.000613915 -0.00797873
0.000344644 -0.00706253 -0.0191971
-7.08133e-15 -4.06801e-14 1.57632e-13
6.1e-05 -0.00692346 0.0207212
-0.000526532 -0.0203909 0.00109885
0.0015434 0.00446567 0.0169569

VECTORS force float
3.1102e-21 2.75286e-21 -1.05879e-21
6.12696e-09 -1.06945e-08 3.45824e-08
2.01991e-08 -6.10521e-08 9.41688e-09
-1.95894e-08 1.27141e-08 -8.88586e-09
-4.49986e-22 -6.88214e-22 -2.11758e-22
-6.04265e-09 1.5472e-08 1.45035e-08
1.49951e-20 7.41154e-22 -8.47033e-21
-4.07602e-20 6.10128e-21 2.11758e-22
-1.16704e-09 2.89107e-09 -1.18786e-08
1.72054e-21 -2.64698e-23 0.0
-8.60268e-23 -2.38228e-22 0.0
-3.78587e-09 1.71661e-08 6.09118e-10
-1.96437e-09 -8.85173e-09 7.93434e-09
-6.55676e-10 1.14676e-08 -5.5767e-09
3.51915e-09 1.62606e-10 -5.9954e-09
-2.68851e-09 6.69886e-09 8.64744e-09
-4.98029e-20 8.21622e-20 -1.48231e-20
-1.5813e-19 -3.08902e-20 -2.09641e-20
7.92108e-21 -6.03511e-21 -1.90582e-21
2.18376e-22 -1.05879e-22 0.0
-8.39135e-10 1.16446e-08 4.89738e-09
3.55908e-09 3.4026e-09 -3.22594e-08
-5.76962e-09 7.74941e-09 1.30583e-07
-0.0304246 0.00517256 0.0141102
-1.62637e-10 -1.86325e-09 1.21769e-08
-1.11422e-09 3.68131e-09 -1.12397e-08
6.13437e-20 4.33575e-20 -1.33408e-20
-1.01117e-05 -1.27246e-05 -2.56243e-06
-1.95034e-09 -1.21715e-08 -3.35696e-09
-2.19597e-09 8.33267e-09 9.81585e-09
-7.22856e-09 6.10503e-09 -2.51922e-08
-5.54441e-09 -4.59089e-09 -2.06965e-08
2.38228e-22 0.0 -1.05879e-22
-9.09277e-10 7.06723e-09 -1.09375e-08
6.6973e-10 9.07458e-08 8.91858e-08
7.92322e-10 -9.51984e-09 -2.54537e-09
-5.38379e-09 -4.08469e-10 1.65323e-08
-1.14914e-09 -4.7729e-10 1.19027e-08
-1.27875e-10 -7.28493e-09 9.17233e-09
-2.5615e-09 1.05655e-08 7.78778e-10
-6.99481e-09 2.86436e-08 1.53007e-08
0.0 8.00732e-21 0.0
2.20043 -3.27863 -0.212353
2.6418e-09 1.79984e-09 -2.83318e-08
-8.47719e-09 1.37246e-08 -2.66755e-08
1.12403e-09 -9.45166e-09 -2.60582e-09
3.70577e-22 -1.58819e-22 0.0
-5.49248e-22 5.29396e-23 0.0
-1.03259e-19 -1.63054e-20 1.27055e-21
1.32084e-19 -5.29396e-23 4.87044e-21
-3.29919e-19 -4.23516e-22 -1.37643e-20
-6.21937e-09 1.06669e-08 -4.98359e-09
0.0 0.0 0.0
-2.64698e-23 0.0 0.0
1.56731e-08 -1.15939e-07 -3.16333e-08
-2.38468e-08 -3.04913e-08 -6.74011e-08
-2.2314e-20 1.41878e-20 0.0
6.00181e-09 -3.05404e-08 4.62108e-09
8.21839e-11 -1.49409e-09 -1.22587e-08
-2.53117e-21 1.11173e-21 -2.11758e-22
-4.18531e-09 2.49037e-09 -1.57663e-08
-5.29396e-23 0.0 0.0
-4.33681e-09 -1.9069e-08 -1.43491e-08
-1.51739e-09 -1.23351e-08 -1.78909e-09
4.41143e-10 -6.3148e-09 -9.19446e-09
-6.08805e-22 -1.38966e-21 0.0
-1.73479e-09 1.2231e-08 1.12369e-08
4.99749e-20 4.31987e-20 -1.07997e-20
-8.59515e-09 -1.69595e-08 -1.80504e-08
-1.03232e-21 6.08805e-22 2.11758e-22
-5.05426e-08 -1.20297e-08 1.52858e-08
-2.07869e-09 -4.46193e-09 1.60216e-08
-2.78664e-09 -6.92288e-09 1.13058e-08
0.0 -4.30134e-23 0.0
2.34458e-10 1.58783e-09 -1.04177e-08
-6.81498e-10 -9.51523e-09 7.20598e-09
-4.04208e-10 -3.64096e-09 1.10837e-08
5.05183e-09 -2.31031e-08 9.98783e-08
-6.76303e-21 -2.8058e-21 -1.05879e-21
2.40875e-21 0.0 2.11758e-22
-2.06409e-08 2.24366e-08 3.56211e-08
-1.02637e-09 9.22778e-11 1.21654e-08
-7.5136e-09 3.03633e-09 -1.29761e-08
2.61967e-08 1.85282e-08 1.40764e-07
-1.63171e-09 -1.17138e-08 -5.02878e-09
3.24519e-20 -7.83505e-21 -6.35275e-22
-1.23006e-09 8.52371e-09 7.40429e-09
-3.73253e-09 -1.47807e-08 1.73763e-08
-2.28817e-08 1.48201e-08 4.71969e-08
