# vtk DataFile Version 3.0
LIGGGHTS particles timestep 8000000
ASCII
DATASET POLYDATA
POINTS 148 float
0.0224626 0.0238421 0.0148623
0.0213473 0.0201247 0.0158115
0.030057 0.0198614 0.00728517
0.0170096 0.0156927 0.0144128
0.0164363 0.0147089 0.0147027
0.0305867 0.0231125 0.00992783
0.0427538 0.0186075 0.0058732
0.0177356 0.0240607 0.0129094
0.0185761 0.0213306 0.00783374
0.0206721 0.01503 0.0151086
0.0207359 0.0240597 0.0130943
0.08261 0.0191091 0.00590955
0.0173118 0.0146363 0.0120325
0.021758 0.0149688 0.0148732
0.0231389 0.0177524 0.00738519
0.0178511 0.0151285 0.0149851
0.0225297 0.0150258 0.013385
0.0162496 0.0230699 0.0148537
0.019024 0.0176709 0.0267773
0.0422303 0.0177762 0.006064
0.0228999 0.0146097 0.0145625
0.0297673 0.0206297 0.00750662
0.0185011 0.0144331 0.0152919
0.0213349 0.0241556 0.0141979
0.0216097 0.0238543 0.0133462
0.0255466 0.0209055 0.0165012
0.022032 0.0143213 0.0141579
0.0234526 0.0150858 0.0194509
0.0278417 0.0148169 0.0120166
0.0193219 0.0242267 0.0141322
0.0269143 0.0168431 0.0150809
0.0318739 0.0213003 0.0151467
0.0288384 0.0165425 0.00799534
0.0203574 0.0238118 0.0142694
0.0274945 0.0151475 0.0131868
0.0322295 0.0199234 0.0156428
0.0278331 0.0154667 0.0138475
0.0191969 0.0148093 0.0146802
0.0212879 0.015793 0.0145426
0.018478 0.0137075 0.0138084
0.0190773 0.0238004 0.0122413
0.0183 0.0145868 0.0142503
0.0293605 0.0185418 0.00721515
0.02719 0.0160417 0.0145655
0.0138423 0.021924 0.0148913
0.0300308 0.0214924 0.00790292
0.0283705 0.0176298 0.0277739
0.0194195 0.0231708 0.0103068
0.0217083 0.0214748 0.0152442
0.0290524 0.01738 0.00751818
0.0187168 0.022378 0.00894842
0.0316996 0.0221688 0.014477
0.0234343 0.0189326 0.00720584
0.0183268 0.0196894 0.0167176
0.0198327 0.0240274 0.0127627
0.0303624 0.0226131 0.00901877
0.021485 0.0223776 0.0144164
0.0194723 0.0232966 0.013881
0.0217271 0.0148071 0.0128286
0.0154484 0.0227613 0.0153907
0.0196279 0.0162529 0.0159549
0.018589 0.0156785 0.0155178
0.0155041 0.014658 0.0142977
0.0195525 0.0225371 0.00905154
0.0283441 0.0151827 0.0096862
0.0242703 0.0164019 0.0182263
0.0286258 0.0183498 0.00592583
0.0286187 0.0156721 0.00884313
0.0195656 0.0154541 0.0153498
0.0223988 0.0169545 0.029496
0.0164156 0.0142504 0.0138142
0.0185897 0.0229482 0.00985112
0.0207166 0.0180869 0.015854
0.0313097 0.0229524 0.0132528
0.0236803 0.0200902 0.00741309
0.0193253 0.0232268 0.0129285
0.0161287 0.0236488 0.0140198
0.031021 0.023334 0.0118898
0.0152723 0.015843 0.0145951
0.0203594 0.0228547 0.0138671
0.0170701 0.0226867 0.0152807
0.0168862 0.0144186 0.0129107
0.0168965 0.0239349 0.0134447
0.0175885 0.0158464 0.015647
0.0160414 0.014912 0.0131644
0.0167333 0.0154236 0.015336
0.0176762 0.0202631 0.00736345
0.0236379 0.0151362 0.0149846
0.01629 0.0172622 0.0155825
0.024469 0.0221884 0.0157091
0.0153306 0.0233417 0.0145691
0.0176927 0.0142258 0.0134695
0.0203002 0.0232233 0.0129681
0.0161321 0.0153917 0.0140385
0.0474618 0.0192773 0.00593797
0.0147625 0.0178921 0.0157916
0.0232262 0.0153789 0.0140132
0.0249134 0.0164565 0.0160756
0.0189068 0.0233888 0.0113204
0.0190205 0.0225777 0.0201282
0.0184822 0.0233942 0.0146898
0.022667 0.0235542 0.0140477
0.0173199 0.0199668 0.0166631
0.0258145 0.0220567 0.0144114
0.0205643 0.0222387 0.0145872
0.0264476 0.0191494 0.0158092
0.0202585 0.0206914 0.0156469
0.0238018 0.0214244 0.0161903
0.0585019 0.0190661 0.00583452
0.0198564 0.0217736 0.0150288
0.0180004 0.0237784 0.0138436
0.0192167 0.014335 0.0138002
0.0243579 0.0227682 0.00923463
0.0223708 0.0171641 0.0155355
0.0203811 0.0234865 0.0118291
0.0245596 0.0230285 0.00982195
0.0237986 0.0228628 0.0154836
0.0144084 0.0225082 0.0142917
0.0241832 0.0219485 0.00849047
0.0249014 0.0219172 0.0164945
0.0148239 0.0217332 0.0150442
0.0219583 0.014719 0.0114532
0.0211211 0.0140575 0.0136205
0.0158838 0.018764 0.0159364
0.0232332 0.0231969 0.0147596
0.0162052 0.0161127 0.0148339
0.0222657 0.015549 0.0142343
0.0182058 0.0220205 0.0158383
0.02197 0.0230532 0.0148428
0.0204495 0.0193583 0.0159321
0.0202053 0.0140413 0.0131504
0.0173143 0.0147587 0.0142263
0.0196606 0.0233975 0.0111435
0.0145122 0.0230873 0.0151017
0.0186912 0.0232001 0.0105124
0.0280878 0.0148296 0.0107694
0.0242987 0.0156814 0.0155013
0.0205142 0.0145436 0.0142493
0.0260696 0.0206376 0.015541
0.0258321 0.0213481 0.0151197
0.0169873 0.0236655 0.0151706
0.0153794 0.0223471 0.0144833
0.0215114 0.0150828 0.0137718
0.0315237 0.0185201 0.00593899
0.0196516 0.0224973 0.0143861
0.0187132 0.0241651 0.0131003
0.021167 0.0230437 0.0134178
0.0227159 0.0220543 0.0158098

VERTICES 148 296
1 0
1 1
1 2
1 3
1 4
1 5
1 6
1 7
1 8
1 9
1 10
1 11
1 12
1 13
1 14
1 15
1 16
1 17
1 18
1 19
1 20
1 21
1 22
1 23
1 24
1 25
1 26
1 27
1 28
1 29
1 30
1 31
1 32
1 33
1 34
1 35
1 36
1 37
1 38
1 39
1 40
1 41
1 42
1 43
1 44
1 45
1 46
1 47
1 48
1 49
1 50
1 51
1 52
1 53
1 54
1 55
1 56
1 57
1 58
1 59
1 60
1 61
1 62
1 63
1 64
1 65
1 66
1 67
1 68
1 69
1 70
1 71
1 72
1 73
1 74
1 75
1 76
1 77
1 78
1 79
1 80
1 81
1 82
1 83
1 84
1 85
1 86
1 87
1 88
1 89
1 90
1 91
1 92
1 93
1 94
1 95
1 96
1 97
1 98
1 99
1 100
1 101
1 102
1 103
1 104
1 105
1 106
1 107
1 108
1 109
1 110
1 111
1 112
1 113
1 114
1 115
1 116
1 117
1 118
1 119
1 120
1 121
1 122
1 123
1 124
1 125
1 126
1 127
1 128
1 129
1 130
1 131
1 132
1 133
1 134
1 135
1 136
1 137
1 138
1 139
1 140
1 141
1 142
1 143
1 144
1 145
1 146
1 147

POINT_DATA 148
SCALARS id int 1
LOOKUP_TABLE default
1
2
3
4
6
8
9
13
14
15
17
18
19
20
21
23
24
26
28
32
33
34
35
36
38
40
42
46
48
49
54
56
59
64
65
66
68
70
74
75
76
82
83
86
88
89
90
91
93
96
98
100
101
106
107
108
109
110
111
112
113
117
121
122
124
125
126
127
129
131
132
134
137
142
143
146
147
149
155
156
159
160
161
163
165
169
171
172
174
177
178
180
182
186
187
189
192
193
194
195
198
201
209
213
214
215
216
217
221
223
226
227
229
235
239
240
242
243
245
246
254
255
256
257
258
262
264
266
268
269
270
271
273
274
275
277
278
279
280
281
282
283
285
291
293
296
297
298

SCALARS type int 1
LOOKUP_TABLE default
1
1
1
1
1
1
1
1
1
1
1
1
1
1
1
1
1
1
1
1
1
1
1
1
1
1
1
1
1
1
1
1
1
1
1
1
1
1
1
1
1
1
1
1
1
1
1
1
1
1
1
1
1
1
1
1
1
1
1
1
1
1
1
1
1
1
1
1
1
1
1
1
1
1
1
1
1
1
1
1
1
1
1
1
1
1
1
1
1
1
1
1
1
1
1
1
1
1
1
1
1
1
1
1
1
1
1
1
1
1
1
1
1
1
1
1
1
1
1
1
1
1
1
1
1
1
1
1
1
1
1
1
1
1
1
1
1
1
1
1
1
1
1
1
1
1
1
1

SCALARS radius float 1
LOOKUP_TABLE default
0.0005
0.0005
0.0005
0.0005
0.0005
0.0005
0.0005
0.0005
0.0005
0.0005
0.0005
0.0005
0.0005
0.0005
0.0005
0.0005
0.0005
0.0005
0.0005
0.0005
0.0005
0.0005
0.0005
0.0005
0.0005
0.0005
0.0005
0.0005
0.0005
0.0005
0.0005
0.0005
0.0005
0.0005
0.0005
0.0005
0.0005
0.0005
0.0005
0.0005
0.0005
0.0005
0.0005
0.0005
0.0005
0.0005
0.0005
0.0005
0.0005
0.0005
0.0005
0.0005
0.0005
0.0005
0.0005
0.0005
0.0005
0.0005
0.0005
0.0005
0.0005
0.0005
0.0005
0.0005
0.0005
0.0005
0.0005
0.0005
0.0005
0.0005
0.0005
0.0005
0.0005
0.0005
0.0005
0.0005
0.0005
0.0005
0.0005
0.0005
0.0005
0.0005
0.0005
0.0005
0.0005
0.0005
0.0005
0.0005
0.0005
0.0005
0.0005
0.0005
0.0005
0.0005
0.0005
0.0005
0.0005
0.0005
0.0005
0.0005
0.0005
0.0005
0.0005
0.0005
0.0005
0.0005
0.0005
0.0005
0.0005
0.0005
0.0005
0.0005
0.0005
0.0005
0.0005
0.0005
0.0005
0.0005
0.0005
0.0005
0.0005
0.0005
0.0005
0.0005
0.0005
0.0005
0.0005
0.0005
0.0005
0.0005
0.0005
0.0005
0.0005
0.0005
0.0005
0.0005
0.0005
0.0005
0.0005
0.0005
0.0005
0.0005
0.0005
0.0005
0.0005
0.0005
0.0005
0.0005

SCALARS mass float 1
LOOKUP_TABLE default
1.46608e-07
1.46608e-07
1.46608e-07
1.46608e-07
1.46608e-07
1.46608e-07
1.46608e-07
1.46608e-07
1.46608e-07
1.46608e-07
1.46608e-07
1.46608e-07
1.46608e-07
1.46608e-07
1.46608e-07
1.46608e-07
1.46608e-07
1.46608e-07
1.46608e-07
1.46608e-07
1.46608e-07
1.46608e-07
1.46608e-07
1.46608e-07
1.46608e-07
1.46608e-07
1.46608e-07
1.46608e-07
1.46608e-07
1.46608e-07
1.46608e-07
1.46608e-07
1.46608e-07
1.46608e-07
1.46608e-07
1.46608e-07
1.46608e-07
1.46608e-07
1.46608e-07
1.46608e-07
1.46608e-07
1.46608e-07
1.46608e-07
1.46608e-07
1.46608e-07
1.46608e-07
1.46608e-07
1.46608e-07
1.46608e-07
1.46608e-07
1.46608e-07
1.46608e-07
1.46608e-07
1.46608e-07
1.46608e-07
1.46608e-07
1.46608e-07
1.46608e-07
1.46608e-07
1.46608e-07
1.46608e-07
1.46608e-07
1.46608e-07
1.46608e-07
1.46608e-07
1.46608e-07
1.46608e-07
1.46608e-07
1.46608e-07
1.46608e-07
1.46608e-07
1.46608e-07
1.46608e-07
1.46608e-07
1.46608e-07
1.46608e-07
1.46608e-07
1.46608e-07
1.46608e-07
1.46608e-07
1.46608e-07
1.46608e-07
1.46608e-07
1.46608e-07
1.46608e-07
1.46608e-07
1.46608e-07
1.46608e-07
1.46608e-07
1.46608e-07
1.46608e-07
1.46608e-07
1.46608e-07
1.46608e-07
1.46608e-07
1.46608e-07
1.46608e-07
1.46608e-07
1.46608e-07
1.46608e-07
1.46608e-07
1.46608e-07
1.46608e-07
1.46608e-07
1.46608e-07
1.46608e-07
1.46608e-07
1.46608e-07
1.46608e-07
1.46608e-07
1.46608e-07
1.46608e-07
1.46608e-07
1.46608e-07
1.46608e-07
1.46608e-07
1.46608e-07
1.46608e-07
1.46608e-07
1.46608e-07
1.46608e-07
1.46608e-07
1.46608e-07
1.46608e-07
1.46608e-07
1.46608e-07
1.46608e-07
1.46608e-07
1.46608e-07
1.46608e-07
1.46608e-07
1.46608e-07
1.46608e-07
1.46608e-07
1.46608e-07
1.46608e-07
1.46608e-07
1.46608e-07
1.46608e-07
1.46608e-07
1.46608e-07
1.46608e-07
1.46608e-07
1.46608e-07
1.46608e-07
1.46608e-07
1.46608e-07
1.46608e-07

VECTORS velocity float
0.000184059 0.000113438 -9.4644e-05
2.46688e-10 0.0199184 -0.00488821
-0.000283277 -0.0200242 -0.00374223
0.00303723 5.90413e-05 -0.00151374
0.00163668 -0.00292485 0.00162178
0.00121919 -0.00663314 -0.0159256
1.89745e-15 -5.83797e-15 -3.1896e-14
-0.00966948 0.00078233 -0.0002279
-0.000358094 -0.0168327 -0.00937915
-0.0117917 0.00942379 -0.0305386
0.000247511 0.000249203 -0.000924214
-1.80246e-14 -5.05028e-14 2.16941e-13
0.000608691 0.000575859 -0.00213856
-0.00243952 -0.00453367 -0.00482859
-2.55619e-07 -0.0214942 0.00560353
-0.0174729 -0.00225052 -0.00518138
0.00266573 0.00052199 0.0022744
-0.000652626 -0.000841801 0.00146291
-0.0231765 -0.172201 0.338469
-1.24828e-14 -4.21957e-14 -1.20802e-13
-0.00242264 -0.00099006 -0.0025736
0.000911087 -0.0146588 -0.00592342
-0.0297601 -0.00963732 -0.00309411
3.05243e-05 -0.000182589 -8.77613e-05
-0.000155653 -0.000359621 -0.000723121
-0.016786 0.0075178 -0.0208596
-0.00214035 0.0029772 -0.00723788
-0.0395967 0.0335342 -0.0585658
0.000488982 0.00329189 0.0186965
-0.000134068 0.00109891 -0.00149993
0.00050325 0.0167977 0.00810929
-8.15021e-07 0.0193185 -0.010811
0.000313412 -0.0165489 0.0121789
0.0292163 0.0394336 -0.0508117
0.00137933 0.00731966 0.016802
0.00104087 0.0184094 -0.00527899
1.22805e-05 0.0110737 0.0181056
-0.0188198 0.013906 0.0220093
0.00270556 0.00804054 0.00720857
-0.000184415 0.00205067 -0.00112502
0.00391982 -0.00183793 -0.00504792
-0.00803468 0.000789089 -0.00235971
0.000796911 -0.0182364 0.00288046
0.000833028 0.00817075 0.00908904
0.0021404 0.0158629 -0.013493
0.00126906 -0.0138208 -0.00982046
0.162212 -0.109181 0.1066
0.0111653 0.00333598 -0.0270009
0.0111365 -0.0492088 0.0233414
0.000101678 -0.0213185 0.00762641
-0.000296162 -0.0124412 -0.0181341
0.00164503 0.0102945 -0.0117764
0.00040345 -0.0195735 0.00110379
-6.53663e-09 0.0245613 -0.002952
0.000752837 0.000170546 -0.00189452
0.000898069 -0.010821 -0.0147918
0.00110805 0.00517008 -0.00620737
0.00301659 0.00365254 -0.00635974
0.00494611 0.000627862 0.000319193
0.0025085 -0.000286402 0.00516015
5.5608e-05 0.0144212 0.00841405
-0.00779587 -0.00679667 -0.00370493
-0.000288562 0.000190721 -3.11636e-06
-7.26642e-05 -0.0118963 -0.018303
0.000814251 -0.00837255 0.0183681
-0.0403284 0.043474 -0.121534
-7.10535e-16 -2.68252e-15 -2.29718e-13
0.00118881 -0.00729956 0.00896217
0.00149656 0.0134947 0.0117991
0.0201387 -0.123389 0.173609
0.00162058 0.000237174 -0.0015566
-0.214647 0.0237074 -0.0191493
0.000560483 0.0201799 0.0044329
-1.07067e-05 0.0115862 -0.0191857
0.000121161 -0.021545 -0.00726725
0.00221538 0.000596095 -0.00566836
0.00282456 0.00113904 -0.00222374
0.000911055 0.00134006 -0.0141613
0.00268307 0.00916156 0.00815046
0.00151088 0.00262482 -0.00505286
0.00145398 -0.000185294 -0.000566197
-0.000575235 0.00216746 -0.00234677
0.00163548 -0.000293847 -0.00308701
0.00130911 -0.00246509 -0.00338373
-0.00061917 -0.000308487 -0.00137555
0.00434349 -0.00423012 -0.00173116
0.000441639 -0.0215995 -0.00518831
-0.00243237 0.00121131 -0.005386
-4.78131e-06 0.0153516 0.00619256
-0.00149797 -0.00398492 0.000429233
-0.000198582 -0.000370099 0.00015642
0.00444255 -0.000999378 -0.0104079
0.00171868 0.00129505 -0.00417151
0.000880321 0.000884614 0.00471351
4.88557e-15 -1.01332e-14 -1.05705e-13
0.000566319 0.0198819 0.00529926
0.00140758 0.00207328 0.00459551
-0.00116034 0.00725371 0.00566146
0.000265055 -0.000917484 -0.0215779
-0.0867078 -0.0326046 0.112017
0.0183767 -0.0138468 -0.0121252
-0.000577067 -2.56995e-05 -0.000474026
6.59569e-09 0.024262 -0.00451722
-0.000123116 0.0151622 -0.0156074
0.00203499 0.00579553 -0.00492739
0.000367392 0.0202394 -0.000734694
9.55963e-05 0.0201094 -0.00791757
-0.000101091 0.0245468 -0.0124275
1.1316e-14 -2.34697e-14 -2.88773e-13
0.00292696 0.00688682 -0.00414191
-0.00613081 0.0119537 -0.0246867
-0.000138966 0.00876777 0.0236932
0.00640782 -0.00771244 -0.00415712
-0.000247289 0.00857411 0.00299236
-0.00104112 -0.000460566 -0.000106638
0.0051207 0.00244169 -0.00501181
-0.016673 -0.0144017 0.00986695
0.00568505 0.0020626 -0.00323989
0.000519918 -0.015276 -0.0132846
0.00605233 -0.0131855 0.00445498
-0.00149325 -2.04204e-05 0.000990955
0.00046145 -0.000869528 0.0134576
-0.00989325 0.00731537 -0.027701
2.97457e-10 0.0204885 0.00121185
-0.00582896 -0.00933534 0.0013847
0.00604452 0.0037131 0.00323589
0.00258951 0.00513156 0.00703451
-0.000540831 0.043374 -0.0287724
0.00151087 0.000638747 -0.00231131
0.00837824 -0.021102 0.00161098
-0.00245773 -0.0272158 -0.0691876
-0.00766933 0.00270199 -0.0183719
0.00609318 -0.00058352 -0.0059619
0.00139145 -0.0046584 -0.00800458
0.0564633 -0.0509876 -0.000278491
0.000180118 -0.00616892 0.0214338
-0.00155087 -0.00190097 -0.000272087
-0.015382 -0.0131864 -0.0171059
0.00380737 0.000223801 0.00283126
0.0040225 0.000649639 0.000175263
-0.00015072 -3.74348e-05 -0.00017487
0.00240876 2.02171e-05 0.00191597
0.00446636 0.0102559 -0.00119416
7.9772e-15 -2.70899e-14 -6.6623e-14
0.00230541 0.00484325 -0.00560757
0.00464866 -0.004181 -0.0109199
0.000640702 0.000270669 -0.00307281
0.000147063 0.0308327 -0.0221183

VECTORS force float
1.01264e-06 -1.01122e-06 5.533e-07
1.66406e-15 -3.19723e-09 -1.32682e-08
-5.07199e-09 5.10315e-09 1.32164e-08
-1.32199e-07 -5.00665e-07 -1.17368e-07
-1.3092e-08 -1.6703e-06 -1.20687e-06
-1.14024e-09 -2.21646e-08 -1.43892e-08
-4.68515e-21 9.31736e-21 -1.69407e-21
5.93954e-05 4.11808e-06 -5.17714e-06
3.11176e-09 -1.58321e-08 2.76892e-09
2.51808e-08 -3.85669e-08 -6.74494e-07
-1.39358e-07 3.369e-08 1.35261e-06
-1.16202e-20 1.02703e-20 -6.35275e-22
1.08491e-08 1.35122e-07 8.99256e-07
0.0 0.0 -1.43822e-06
-7.81607e-10 -5.52378e-10 1.22241e-08
5.48958e-07 -1.00067e-06 8.54287e-07
-7.09535e-07 -2.28839e-07 -4.16333e-07
-2.31917e-06 -1.36031e-06 4.04565e-07
0.0 0.0 -1.43822e-06
-8.68209e-21 1.73112e-20 -6.98802e-21
-4.29815e-07 -2.67393e-07 -1.28953e-07
6.48649e-09 6.20992e-08 3.35301e-08
-8.9351e-08 1.23591e-08 -1.26694e-06
1.33256e-06 -2.88394e-07 6.24685e-07
-2.08827e-07 -1.19016e-07 3.92396e-07
0.0 0.0 -1.43822e-06
5.00674e-09 3.38922e-07 -5.89309e-07
0.0 0.0 -1.43822e-06
-3.91004e-09 1.20753e-08 1.48673e-08
6.65818e-08 -3.16832e-06 8.11464e-06
-3.0836e-09 6.26749e-08 1.51115e-08
9.05278e-10 -2.43676e-09 -1.1902e-08
-1.7783e-08 -2.38156e-08 4.20076e-08
0.0 0.0 -1.43822e-06
4.89549e-09 9.83186e-09 -6.29849e-09
-4.40195e-08 2.02411e-09 -9.25247e-09
-2.20564e-08 4.21638e-08 5.31078e-08
-5.43407e-07 -9.09672e-10 -5.70746e-07
8.64759e-08 -2.50881e-07 -3.11011e-07
-1.98376e-07 4.26675e-07 7.11666e-08
2.44384e-07 -5.91883e-08 1.36675e-06
9.86091e-08 -3.39203e-07 -8.98331e-07
-5.84546e-09 -1.77228e-08 1.3307e-08
-2.88119e-09 -5.27944e-08 -5.47807e-08
-3.88591e-07 4.51706e-07 -3.92736e-07
7.71047e-09 2.01121e-09 1.69339e-08
0.0 0.0 -1.43822e-06
-0.00108452 -0.00506525 0.00323996
0.0 0.0 -1.43822e-06
3.0628e-09 1.49526e-08 3.96872e-09
1.28274e-09 -9.47107e-09 2.95341e-09
-1.15506e-08 2.88317e-08 -4.67929e-08
-3.9738e-09 -1.57775e-08 1.1959e-08
-1.32054e-14 -1.9704e-09 -1.67552e-08
-2.10741e-07 -3.67923e-07 2.1629e-06
-1.67343e-07 8.07646e-07 7.90081e-07
8.2572e-07 5.92256e-07 -2.13292e-07
7.24076e-07 -1.68282e-06 8.73931e-06
3.70891e-08 -2.94985e-07 -1.01427e-06
-4.42958e-08 1.84221e-06 -2.49962e-07
-3.79189e-10 -1.37172e-07 -1.01639e-07
6.5225e-08 -1.87453e-07 -9.7801e-08
-2.18229e-07 -3.78897e-07 7.64598e-07
-5.4274e-10 -1.01906e-08 3.61333e-09
-4.69543e-08 2.56352e-08 -1.12988e-07
-3.5733e-07 1.79486e-07 -8.4687e-07
-7.72355e-17 3.0454e-17 6.60855e-18
3.14843e-09 1.11893e-08 -4.18334e-09
2.13453e-08 -1.41223e-07 -1.57745e-07
0.0 0.0 -1.43822e-06
-1.99784e-07 -1.29037e-07 -1.47785e-06
0.0675087 -0.029317 0.0174932
1.99879e-11 3.45824e-09 -1.52951e-08
1.64338e-08 -1.55049e-08 -1.07922e-09
-1.05611e-08 -2.40549e-08 3.04161e-09
-3.15769e-07 -1.08823e-06 4.24886e-06
-6.229e-08 -1.66773e-07 9.46229e-07
3.27001e-09 1.42828e-08 1.37048e-08
-1.62493e-07 -3.23979e-07 -6.99794e-07
1.13275e-06 -2.34108e-06 5.00062e-06
1.41406e-07 -2.95505e-07 3.61936e-07
3.34185e-07 -1.50728e-06 9.0659e-07
1.40281e-07 6.01202e-08 -2.61335e-07
-3.4275e-10 -2.02619e-07 -1.33564e-07
3.58517e-08 7.11094e-08 -1.37097e-06
8.24149e-08 3.99762e-07 -1.92861e-07
-2.50667e-08 -1.66988e-07 -4.53675e-08
-1.43361e-07 2.9944e-07 -5.19173e-07
1.90061e-10 -2.14924e-08 -1.98004e-08
-6.38206e-06 1.00853e-05 -7.40416e-06
-1.70143e-06 -2.18112e-06 -2.80919e-06
1.06035e-06 -4.38036e-07 -4.67307e-07
1.43725e-07 -9.82768e-07 4.54515e-06
4.80721e-07 3.84733e-07 5.81287e-07
1.91549e-19 -5.98482e-20 1.41878e-20
-1.96907e-10 4.33427e-09 -1.30398e-08
-3.3303e-07 5.35771e-09 3.01e-09
-5.88597e-09 2.38674e-08 1.87804e-08
-7.46178e-06 -3.91156e-05 2.11578e-05
0.0 0.0 -1.43822e-06
0.0 0.0 -1.43822e-06
-1.06279e-06 6.32101e-07 -2.11784e-06
9.06495e-15 -3.25722e-09 -1.65153e-08
9.65914e-08 -3.18593e-08 2.5729e-08
1.52366e-06 -5.40154e-06 4.55093e-06
-3.09331e-09 1.08415e-08 -1.02749e-08
-4.51838e-08 -7.14389e-08 1.24588e-08
-2.36623e-09 5.17528e-08 -5.39136e-08
-4.34369e-20 -2.10435e-20 0.0
4.72349e-06 -1.53892e-05 2.31316e-06
1.29554e-07 3.6895e-07 -9.76755e-07
7.12308e-07 -3.2522e-08 4.26425e-07
3.23676e-05 -2.8352e-05 2.65785e-05
2.8343e-08 -3.96233e-08 -1.71924e-08
-1.80845e-05 -1.33138e-07 3.45856e-05
6.72171e-05 -3.64781e-06 2.88223e-05
2.54658e-05 3.05933e-05 -3.68299e-05
-1.82187e-08 1.08323e-07 -1.41881e-06
-2.8803e-09 -1.42009e-08 3.08997e-09
-1.27535e-05 2.49551e-05 -1.40635e-05
5.56898e-10 1.26451e-08 -1.43358e-06
-3.14775e-09 6.68417e-09 -1.77527e-08
-1.06311e-07 1.88579e-07 -5.22323e-07
1.75364e-12 7.21302e-10 -1.36413e-08
1.0722e-06 4.77934e-06 -1.9662e-05
-8.96617e-08 -8.15362e-09 -1.42413e-06
-1.32555e-07 -3.77259e-07 -5.10253e-07
9.45677e-09 8.86162e-08 -1.26311e-07
4.63256e-07 -3.76552e-06 6.01101e-06
-1.82479e-07 9.76911e-07 -2.09995e-08
-1.77589e-08 -4.6402e-07 -8.52127e-07
1.74428e-07 5.22747e-07 2.82336e-07
-0.000119918 -6.09646e-05 -0.000233016
3.00113e-07 -2.85256e-07 -7.23045e-07
-0.00376565 0.00173277 9.11969e-05
1.39325e-08 -6.61922e-10 -9.26375e-08
-3.49707e-10 -1.6477e-07 -1.05699e-07
-4.26161e-08 -2.48049e-07 -2.24195e-07
2.23499e-08 -2.12826e-07 2.99264e-08
8.9149e-08 -3.83095e-07 2.63598e-07
5.28954e-07 -2.88047e-07 1.28963e-07
-1.56802e-06 -2.77598e-07 9.47537e-07
2.15123e-07 1.21893e-07 -1.15013e-06
0.0 0.0 0.0
1.53932e-06 -5.34263e-06 4.69989e-06
-7.40647e-08 -3.6171e-07 -9.86162e-07
5.03298e-07 -1.32639e-06 2.7791e-06
2.82535e-09 1.64084e-07 -1.73665e-07
