# vtk DataFile Version 3.0
LIGGGHTS particles timestep 75200000
ASCII
DATASET POLYDATA
POINTS 88 float
0.0387146 0.0187573 0.00575718
0.0515454 0.0203376 0.00592249
0.0657625 0.0198039 0.00576669
0.102543 0.017821 0.00581645
0.0387828 0.0214812 0.00622724
0.191105 0.0203026 0.00593314
0.0819644 0.018662 0.00575674
0.10448 0.0180949 0.00580371
0.0800401 0.0168845 0.00628905
0.0458896 0.0168235 0.00626774
0.0564645 0.0213699 0.00635393
0.0887746 0.0230634 0.0129386
0.136461 0.0187737 0.0058834
0.0822817 0.0172512 0.00607537
0.0652975 0.0207687 0.00603532
0.0870153 0.0206158 0.00591409
0.0792518 0.0191834 0.00582281
0.0170063 0.0201419 0.00601043
0.0643606 0.0210989 0.00615793
0.0448733 0.0164686 0.00634571
0.0803045 0.0192159 0.005743
0.0811915 0.017199 0.00615598
0.0615774 0.0172559 0.00608456
0.063441 0.0163701 0.00647495
0.085142 0.0184899 0.00574639
0.0829173 0.0222111 0.0066532
0.0357086 0.0161117 0.00660683
0.0618809 0.0199413 0.00582959
0.0782392 0.0178549 0.0155924
0.0897236 0.0198839 0.0157236
0.0830136 0.0187071 0.00584947
0.0439552 0.0161318 0.00656318
0.0782305 0.0203396 0.00602091
0.0822914 0.0196163 0.00600118
0.0732237 0.018766 0.005768
0.0644815 0.0190744 0.00573853
0.0683453 0.0182317 0.00578271
0.0609817 0.0187588 0.00589337
0.0609012 0.0197493 0.00575757
0.0634974 0.0172463 0.00599641
0.0286258 0.0183498 0.00592583
0.0888729 0.0199317 0.00596406
0.0601285 0.017977 0.00598674
0.0626638 0.0179373 0.00595165
0.0644862 0.0176438 0.00589539
0.0238948 0.0168123 0.00667048
0.042543 0.0198089 0.00582143
0.0388539 0.0197419 0.00587248
0.0766607 0.0190533 0.00580856
0.0779381 0.019417 0.00576935
0.0620021 0.0189487 0.00583492
0.0424897 0.0188104 0.00581963
0.0920805 0.0205253 0.0059177
0.0803575 0.017518 0.00840966
0.0557406 0.0175302 0.00596599
0.102423 0.0196788 0.00582979
0.0453636 0.0157749 0.00687326
0.377426 0.0176151 0.00837696
0.0505919 0.0207133 0.00592302
0.0643736 0.0166453 0.00623285
0.0440263 0.0170728 0.00623272
0.0799751 0.0180833 0.00603206
0.0810479 0.0182624 0.00591498
0.0824664 0.0205903 0.00624245
0.0595038 0.0223955 0.00675756
0.063626 0.0183177 0.00585415
0.0316007 0.0183082 0.00603438
0.0584979 0.0201946 0.00586451
0.0215463 0.0196109 0.00592744
0.0690612 0.017564 0.00598647
0.0636055 0.0197465 0.00578044
0.0909153 0.0154514 0.0137704
0.0242602 0.0201274 0.00583803
0.074818 0.0186769 0.0072843
0.0567438 0.01754 0.00591345
0.061759 0.0163729 0.00651709
0.0504712 0.0179279 0.00611076
0.0371638 0.0187263 0.00573865
0.0328558 0.0191954 0.00572294
0.044465 0.0204317 0.00594645
0.0625324 0.0169121 0.00611939
0.066033 0.0188309 0.00577203
0.0833983 0.0210192 0.00634375
0.0634695 0.0174498 0.00844685
0.0350698 0.0188001 0.00572051
0.0623373 0.0157218 0.00700852
0.0667607 0.0199247 0.00579031
0.0801544 0.0202323 0.00596714

VERTICES 88 176
1 0
1 1
1 2
1 3
1 4
1 5
1 6
1 7
1 8
1 9
1 10
1 11
1 12
1 13
1 14
1 15
1 16
1 17
1 18
1 19
1 20
1 21
1 22
1 23
1 24
1 25
1 26
1 27
1 28
1 29
1 30
1 31
1 32
1 33
1 34
1 35
1 36
1 37
1 38
1 39
1 40
1 41
1 42
1 43
1 44
1 45
1 46
1 47
1 48
1 49
1 50
1 51
1 52
1 53
1 54
1 55
1 56
1 57
1 58
1 59
1 60
1 61
1 62
1 63
1 64
1 65
1 66
1 67
1 68
1 69
1 70
1 71
1 72
1 73
1 74
1 75
1 76
1 77
1 78
1 79
1 80
1 81
1 82
1 83
1 84
1 85
1 86
1 87

POINT_DATA 88
SCALARS id int 1
LOOKUP_TABLE default
1
2
3
8
9
14
18
26
28
32
34
38
46
48
54
56
59
64
65
66
68
70
74
82
83
86
88
89
90
93
100
106
107
108
109
112
113
121
124
125
126
127
129
132
134
137
142
146
149
159
160
163
165
174
182
187
189
193
195
198
201
209
213
215
221
223
226
227
229
240
242
245
246
256
257
258
270
273
274
277
279
280
281
283
291
293
296
298

SCALARS type int 1
LOOKUP_TABLE default
1
1
1
1
1
1
1
1
1
1
1
1
1
1
1
1
1
1
1
1
1
1
1
1
1
1
1
1
1
1
1
1
1
1
1
1
1
1
1
1
1
1
1
1
1
1
1
1
1
1
1
1
1
1
1
1
1
1
1
1
1
1
1
1
1
1
1
1
1
1
1
1
1
1
1
1
1
1
1
1
1
1
1
1
1
1
1
1

SCALARS radius float 1
LOOKUP_TABLE default
0.0005
0.0005
0.0005
0.0005
0.0005
0.0005
0.0005
0.0005
0.0005
0.0005
0.0005
0.0005
0.0005
0.0005
0.0005
0.0005
0.0005
0.0005
0.0005
0.0005
0.0005
0.0005
0.0005
0.0005
0.0005
0.0005
0.0005
0.0005
0.0005
0.0005
0.0005
0.0005
0.0005
0.0005
0.0005
0.0005
0.0005
0.0005
0.0005
0.0005
0.0005
0.0005
0.0005
0.0005
0.0005
0.0005
0.0005
0.0005
0.0005
0.0005
0.0005
0.0005
0.0005
0.0005
0.0005
0.0005
0.0005
0.0005
0.0005
0.0005
0.0005
0.0005
0.0005
0.0005
0.0005
0.0005
0.0005
0.0005
0.0005
0.0005
0.0005
0.0005
0.0005
0.0005
0.0005
0.0005
0.0005
0.0005
0.0005
0.0005
0.0005
0.0005
0.0005
0.0005
0.0005
0.0005
0.0005
0.0005

SCALARS mass float 1
LOOKUP_TABLE default
1.46608e-07
1.46608e-07
1.46608e-07
1.46608e-07
1.46608e-07
1.46608e-07
1.46608e-07
1.46608e-07
1.46608e-07
1.46608e-07
1.46608e-07
1.46608e-07
1.46608e-07
1.46608e-07
1.46608e-07
1.46608e-07
1.46608e-07
1.46608e-07
1.46608e-07
1.46608e-07
1.46608e-07
1.46608e-07
1.46608e-07
1.46608e-07
1.46608e-07
1.46608e-07
1.46608e-07
1.46608e-07
1.46608e-07
1.46608e-07
1.46608e-07
1.46608e-07
1.46608e-07
1.46608e-07
1.46608e-07
1.46608e-07
1.46608e-07
1.46608e-07
1.46608e-07
1.46608e-07
1.46608e-07
1.46608e-07
1.46608e-07
1.46608e-07
1.46608e-07
1.46608e-07
1.46608e-07
1.46608e-07
1.46608e-07
1.46608e-07
1.46608e-07
1.46608e-07
1.46608e-07
1.46608e-07
1.46608e-07
1.46608e-07
1.46608e-07
1.46608e-07
1.46608e-07
1.46608e-07
1.46608e-07
1.46608e-07
1.46608e-07
1.46608e-07
1.46608e-07
1.46608e-07
1.46608e-07
1.46608e-07
1.46608e-07
1.46608e-07
1.46608e-07
1.46608e-07
1.46608e-07
1.46608e-07
1.46608e-07
1.46608e-07
1.46608e-07
1.46608e-07
1.46608e-07
1.46608e-07
1.46608e-07
1.46608e-07
1.46608e-07
1.46608e-07
1.46608e-07
1.46608e-07
1.46608e-07
1.46608e-07

VECTORS velocity float
-8.66847e-15 7.85636e-14 2.009e-13
1.14432e-14 2.6193e-14 3.50784e-13
-1.37657e-15 3.97328e-14 -1.45083e-13
-9.78466e-16 -4.35251e-15 -1.20042e-13
-2.73574e-19 1.04743e-18 -5.70326e-18
-1.12272e-14 -4.38007e-14 9.73361e-14
1.34761e-14 4.56298e-14 1.93312e-13
1.49965e-14 2.23719e-14 -1.76073e-13
-1.13561e-15 -7.2909e-15 -3.41145e-14
-4.52661e-15 -2.52971e-14 -1.74151e-13
-8.79603e-16 -1.50206e-14 3.21074e-14
9.50022e-05 0.00683855 -0.0198755
1.96871e-15 3.16935e-15 -2.90515e-14
6.63016e-16 3.61519e-14 1.18632e-13
-1.12824e-15 3.25658e-14 -1.18914e-13
3.2202e-15 5.89871e-15 -3.89488e-14
6.35165e-15 2.15035e-14 9.10978e-14
1.30452e-14 5.25376e-15 -1.07335e-13
9.8507e-15 -6.28954e-14 2.05619e-13
-2.64651e-17 -1.41319e-16 -9.78717e-16
-9.52824e-15 -2.67153e-14 1.14756e-13
4.51278e-15 1.52766e-14 6.47202e-14
-8.66056e-16 -3.83157e-15 -2.74202e-14
5.33335e-16 7.64828e-15 9.79342e-15
3.31499e-15 -1.89273e-14 2.54251e-13
2.46462e-15 -1.23257e-14 5.62336e-14
-4.68273e-15 2.81819e-14 7.49073e-14
-5.098e-16 -7.06331e-15 1.95639e-14
0.000366837 0.0204026 0.00645411
0.00144559 0.0157442 -0.00435567
-9.52793e-15 -2.67155e-14 1.14756e-13
1.95805e-16 -2.75149e-15 -2.89952e-15
4.21758e-15 1.16589e-14 -2.18214e-14
7.16664e-15 2.00951e-14 -8.63169e-14
1.03983e-14 -5.91896e-14 -1.63388e-13
7.9804e-16 -3.78212e-15 -6.44673e-14
7.82629e-18 1.4039e-17 5.06786e-16
-4.35667e-15 -1.94156e-14 -1.3904e-13
-5.19423e-15 -2.31833e-14 -1.66017e-13
6.67968e-16 1.65075e-15 1.30352e-14
-1.9446e-14 1.84208e-16 -2.28119e-13
-1.21937e-15 -2.23001e-15 1.47214e-14
-1.09363e-14 2.26333e-14 2.78392e-13
-7.36503e-15 -1.81923e-14 -1.43647e-13
-5.97967e-15 -1.47723e-14 -1.16641e-13
-1.55906e-14 -3.19686e-14 -1.04791e-13
-1.60448e-16 1.37126e-15 -4.34251e-15
-2.82305e-15 1.34613e-14 -6.65672e-14
-9.17847e-15 5.49342e-14 2.11159e-13
1.14206e-15 -6.89099e-15 -2.64501e-14
6.09359e-16 2.73538e-15 1.95372e-14
2.72861e-16 -7.92028e-16 -4.34005e-15
-7.84821e-15 -7.28946e-14 1.85342e-13
2.72756e-05 -0.00162124 0.00104789
-5.63989e-15 -7.64297e-15 -1.0897e-13
1.54226e-15 2.24839e-15 -1.78445e-14
2.75274e-17 -5.64968e-16 -6.8989e-16
-0.000838409 -0.00238898 0.00123026
6.74601e-15 1.8938e-14 2.6288e-13
-9.28312e-16 8.9262e-14 2.24983e-13
2.29599e-16 -6.63968e-16 -3.64325e-15
1.34857e-14 4.56326e-14 1.93311e-13
1.06422e-15 3.60252e-15 1.52616e-14
-1.04235e-15 -2.92685e-15 1.25718e-14
1.56948e-16 -1.68605e-15 4.05453e-15
-7.3599e-15 -1.81944e-14 -1.43647e-13
1.31745e-14 -4.47404e-14 -1.10001e-13
3.22878e-16 4.88295e-15 -1.04412e-14
-1.81457e-14 8.14351e-15 -1.66091e-13
-1.68193e-17 1.76946e-16 4.66257e-16
6.28569e-15 -4.01367e-14 1.31216e-13
0.000352479 0.0112635 0.018146
-1.07574e-14 -1.73446e-15 1.75368e-13
-0.000308653 -0.0207094 0.00149561
-9.8415e-15 -1.33736e-14 -1.90504e-13
1.33794e-15 -1.52844e-14 -2.1809e-14
-3.69938e-15 -1.32326e-14 -1.98725e-13
3.80815e-15 -1.81888e-14 8.99481e-14
8.90147e-16 5.06752e-15 -1.9634e-14
-3.20903e-15 2.52674e-14 -8.03175e-14
-3.82097e-16 3.70488e-14 9.33838e-14
2.20243e-15 -1.03701e-14 -1.76838e-13
2.36853e-14 -4.02497e-14 1.90901e-13
-3.45991e-05 -0.00406126 0.00217624
-7.07949e-15 -4.0678e-14 1.57633e-13
1.29926e-15 -1.53034e-14 -2.18027e-14
-4.11846e-16 1.19622e-14 -4.36762e-14
-1.80129e-14 -5.05046e-14 2.16941e-13

VECTORS force float
0.0 1.05879e-22 0.0
7.01052e-20 -2.93881e-19 1.96935e-20
1.65436e-24 0.0 0.0
-6.61744e-23 0.0 0.0
-3.80503e-23 -5.79026e-23 0.0
1.29702e-21 0.0 2.11758e-22
-8.64238e-21 4.76456e-21 -6.35275e-22
-8.89385e-21 -1.58819e-22 -2.11758e-22
-1.19114e-22 0.0 0.0
3.04402e-21 3.44107e-22 0.0
-1.88326e-19 -9.95264e-21 -1.05879e-20
2.19477e-10 -8.06528e-09 -1.0692e-08
-7.82314e-20 1.0527e-19 6.14099e-21
-8.51996e-22 5.29396e-23 0.0
8.60268e-22 -5.29396e-23 0.0
7.01449e-22 2.64698e-23 0.0
-2.45507e-20 -6.35275e-22 1.69407e-21
6.88744e-20 1.99979e-20 9.1056e-21
-9.66147e-22 -1.05879e-22 0.0
7.41154e-22 1.58819e-22 2.11758e-22
1.45584e-22 0.0 0.0
-4.49986e-22 -5.29396e-23 0.0
-7.41154e-22 0.0 0.0
-1.98523e-23 0.0 0.0
2.85543e-21 3.97047e-23 0.0
8.88458e-20 -1.23349e-20 -6.77626e-21
-1.69671e-20 1.07997e-20 -4.87044e-21
-2.64698e-23 5.29396e-23 -2.11758e-22
-3.00883e-09 8.43583e-09 -1.08825e-08
-1.51374e-08 4.56321e-08 -1.36972e-08
-3.97047e-23 0.0 0.0
-4.10282e-22 0.0 0.0
-1.85288e-22 1.58819e-22 0.0
2.95138e-21 3.17637e-22 4.23516e-22
1.55086e-19 8.86738e-20 -2.24464e-20
0.0 0.0 0.0
2.64698e-23 -2.64698e-23 0.0
4.16899e-21 -1.77348e-21 0.0
0.0 0.0 0.0
9.92617e-24 0.0 0.0
-1.32349e-22 -3.26538e-20 0.0
-5.0822e-21 2.72639e-21 -2.11758e-22
1.81781e-20 8.99973e-21 1.05879e-21
-3.97047e-23 3.44107e-22 0.0
9.26442e-23 1.85288e-22 0.0
-1.6676e-21 -1.05879e-22 4.23516e-22
1.98523e-23 -5.29396e-23 2.11758e-22
3.72562e-21 0.0 -2.11758e-22
-2.9977e-20 1.2282e-20 -2.5411e-21
3.17637e-22 -5.29396e-23 4.23516e-22
-1.32349e-23 2.64698e-23 0.0
-9.92617e-23 0.0 0.0
0.0 0.0 0.0
4.89919e-11 -1.80948e-08 -3.21996e-09
-2.8414e-19 3.45616e-19 -8.47033e-21
-2.20493e-20 1.51407e-20 2.11758e-22
-5.29396e-23 -3.17637e-22 -2.11758e-22
7.69246e-10 -4.35495e-08 9.15886e-09
6.95493e-21 -2.02494e-21 0.0
-1.65436e-24 -1.05879e-22 -2.11758e-22
-2.24993e-22 0.0 0.0
-3.43842e-20 8.04681e-21 4.23516e-22
1.16467e-21 5.29396e-23 0.0
3.20284e-21 -1.53525e-21 0.0
-3.09961e-20 -1.69407e-21 2.11758e-22
-1.76024e-21 1.6676e-21 0.0
1.20967e-19 -2.69992e-20 2.60463e-20
0.0 1.27055e-21 6.35275e-22
0.0 0.0 0.0
-2.64698e-23 5.29396e-23 0.0
-5.55865e-22 5.29396e-23 0.0
-5.51591e-09 1.07368e-08 2.48387e-09
1.32349e-23 -8.79624e-21 -2.11758e-22
-1.57761e-09 -4.60537e-09 1.20127e-08
7.43801e-21 2.11758e-21 -6.35275e-22
8.86738e-22 3.70577e-22 -3.17637e-22
-1.01578e-21 -2.77933e-22 0.0
-8.23872e-21 -2.1864e-20 -4.02341e-21
-4.10282e-22 0.0 0.0
-4.28016e-19 -6.55921e-20 -4.65868e-21
1.36063e-20 -1.05879e-22 0.0
-4.30597e-20 -8.57621e-21 0.0
1.53525e-21 -1.14879e-20 -2.75286e-21
-1.09839e-10 1.61761e-08 -1.58963e-08
7.61006e-21 -5.29396e-22 2.11758e-22
1.05879e-22 -2.11758e-22 0.0
8.46371e-21 -1.11173e-21 -2.11758e-22
-9.13207e-22 0.0 0.0
