# vtk DataFile Version 3.0
LIGGGHTS particles timestep 37600000
ASCII
DATASET POLYDATA
POINTS 88 float
0.0387146 0.0187573 0.00575718
0.0359963 0.0163159 0.0147997
0.0561148 0.0182415 0.00738214
0.0602096 0.0157094 0.0142605
0.0387828 0.0214812 0.00622724
0.0400002 0.0233268 0.0120677
0.08261 0.0191091 0.00590955
0.103453 0.0178822 0.00580682
0.0497372 0.0165219 0.00808525
0.0458896 0.0168235 0.00626774
0.0572659 0.0174442 0.00591793
0.051129 0.0220107 0.00843703
0.0533138 0.0192428 0.0157746
0.056649 0.0205548 0.00745227
0.0556496 0.0163987 0.00829589
0.0581877 0.0230473 0.0132311
0.0793161 0.0192087 0.00581236
0.0170063 0.0201419 0.00601043
0.0632091 0.0196192 0.00574818
0.0448733 0.0164686 0.00634571
0.0573929 0.0228782 0.00960392
0.0476883 0.0173487 0.0154706
0.0407077 0.0216781 0.0147994
0.0417837 0.0170134 0.0152608
0.0588097 0.0213556 0.0150932
0.0558282 0.0170983 0.00768015
0.0357086 0.0161117 0.00660683
0.0595398 0.0182124 0.0156891
0.0421364 0.0159637 0.0144969
0.052175 0.0230167 0.0130862
0.0608326 0.0148584 0.0114212
0.0439552 0.0161318 0.00656318
0.0498983 0.0172113 0.00761591
0.0597107 0.0172791 0.015464
0.0489614 0.0148969 0.0109046
0.0463304 0.0227552 0.0136838
0.0467323 0.0217768 0.0148593
0.0457701 0.0221599 0.00850271
0.0571219 0.0221669 0.00844734
0.0446906 0.0207004 0.00752273
0.0286258 0.0183498 0.00592583
0.0578454 0.0233644 0.0113978
0.0326198 0.0204919 0.00748178
0.049257 0.0154096 0.0093058
0.0458661 0.023362 0.0111066
0.0238948 0.0168123 0.00667048
0.0470176 0.01787 0.0060864
0.0388539 0.0197419 0.00587248
0.0766607 0.0190533 0.00580856
0.0779397 0.0194308 0.00576583
0.0505735 0.0202373 0.00740626
0.0424878 0.0188132 0.00581899
0.0920805 0.0205253 0.0059177
0.0439912 0.0176988 0.00745894
0.0427699 0.0147892 0.011787
0.102423 0.0196788 0.00582979
0.0453636 0.0157749 0.00687326
0.377423 0.0174861 0.00841614
0.0507369 0.0203921 0.00594173
0.0430914 0.0150153 0.01021
0.0440263 0.0170728 0.00623272
0.0483614 0.0151904 0.0132781
0.054052 0.0161913 0.0146743
0.0553055 0.0154788 0.00947905
0.059059 0.0180876 0.00593586
0.0517317 0.0232867 0.0112048
0.0316007 0.0183082 0.00603438
0.0373094 0.0153059 0.00940507
0.0215463 0.0196109 0.00592744
0.053604 0.0178151 0.0156501
0.0525107 0.0223391 0.014259
0.0530446 0.0202737 0.0156308
0.0242602 0.0201274 0.00583803
0.0387333 0.0208903 0.00759178
0.0294438 0.0186665 0.0158027
0.0347068 0.0216909 0.0147976
0.0504712 0.0179279 0.00611076
0.0371638 0.0187263 0.00573865
0.0328558 0.0191954 0.00572294
0.044465 0.0204317 0.00594645
0.0408914 0.0209325 0.015372
0.0548293 0.0147845 0.0115823
0.0543747 0.0151881 0.0134223
0.0480768 0.0160415 0.0145838
0.0350698 0.0188001 0.00572051
0.0335348 0.0231894 0.0102232
0.0415639 0.0179332 0.015652
0.0450077 0.0217428 0.00817785

VERTICES 88 176
1 0
1 1
1 2
1 3
1 4
1 5
1 6
1 7
1 8
1 9
1 10
1 11
1 12
1 13
1 14
1 15
1 16
1 17
1 18
1 19
1 20
1 21
1 22
1 23
1 24
1 25
1 26
1 27
1 28
1 29
1 30
1 31
1 32
1 33
1 34
1 35
1 36
1 37
1 38
1 39
1 40
1 41
1 42
1 43
1 44
1 45
1 46
1 47
1 48
1 49
1 50
1 51
1 52
1 53
1 54
1 55
1 56
1 57
1 58
1 59
1 60
1 61
1 62
1 63
1 64
1 65
1 66
1 67
1 68
1 69
1 70
1 71
1 72
1 73
1 74
1 75
1 76
1 77
1 78
1 79
1 80
1 81
1 82
1 83
1 84
1 85
1 86
1 87

POINT_DATA 88
SCALARS id int 1
LOOKUP_TABLE default
1
2
3
8
9
14
18
26
28
32
34
38
46
48
54
56
59
64
65
66
68
70
74
82
83
86
88
89
90
93
100
106
107
108
109
112
113
121
124
125
126
127
129
132
134
137
142
146
149
159
160
163
165
174
182
187
189
193
195
198
201
209
213
215
221
223
226
227
229
240
242
245
246
256
257
258
270
273
274
277
279
280
281
283
291
293
296
298

SCALARS type int 1
LOOKUP_TABLE default
1
1
1
1
1
1
1
1
1
1
1
1
1
1
1
1
1
1
1
1
1
1
1
1
1
1
1
1
1
1
1
1
1
1
1
1
1
1
1
1
1
1
1
1
1
1
1
1
1
1
1
1
1
1
1
1
1
1
1
1
1
1
1
1
1
1
1
1
1
1
1
1
1
1
1
1
1
1
1
1
1
1
1
1
1
1
1
1

SCALARS radius float 1
LOOKUP_TABLE default
0.0005
0.0005
0.0005
0.0005
0.0005
0.0005
0.0005
0.0005
0.0005
0.0005
0.0005
0.0005
0.0005
0.0005
0.0005
0.0005
0.0005
0.0005
0.0005
0.0005
0.0005
0.0005
0.0005
0.0005
0.0005
0.0005
0.0005
0.0005
0.0005
0.0005
0.0005
0.0005
0.0005
0.0005
0.0005
0.0005
0.0005
0.0005
0.0005
0.0005
0.0005
0.0005
0.0005
0.0005
0.0005
0.0005
0.0005
0.0005
0.0005
0.0005
0.0005
0.0005
0.0005
0.0005
0.0005
0.0005
0.0005
0.0005
0.0005
0.0005
0.0005
0.0005
0.0005
0.0005
0.0005
0.0005
0.0005
0.0005
0.0005
0.0005
0.0005
0.0005
0.0005
0.0005
0.0005
0.0005
0.0005
0.0005
0.0005
0.0005
0.0005
0.0005
0.0005
0.0005
0.0005
0.0005
0.0005
0.0005

SCALARS mass float 1
LOOKUP_TABLE default
1.46608e-07
1.46608e-07
1.46608e-07
1.46608e-07
1.46608e-07
1.46608e-07
1.46608e-07
1.46608e-07
1.46608e-07
1.46608e-07
1.46608e-07
1.46608e-07
1.46608e-07
1.46608e-07
1.46608e-07
1.46608e-07
1.46608e-07
1.46608e-07
1.46608e-07
1.46608e-07
1.46608e-07
1.46608e-07
1.46608e-07
1.46608e-07
1.46608e-07
1.46608e-07
1.46608e-07
1.46608e-07
1.46608e-07
1.46608e-07
1.46608e-07
1.46608e-07
1.46608e-07
1.46608e-07
1.46608e-07
1.46608e-07
1.46608e-07
1.46608e-07
1.46608e-07
1.46608e-07
1.46608e-07
1.46608e-07
1.46608e-07
1.46608e-07
1.46608e-07
1.46608e-07
1.46608e-07
1.46608e-07
1.46608e-07
1.46608e-07
1.46608e-07
1.46608e-07
1.46608e-07
1.46608e-07
1.46608e-07
1.46608e-07
1.46608e-07
1.46608e-07
1.46608e-07
1.46608e-07
1.46608e-07
1.46608e-07
1.46608e-07
1.46608e-07
1.46608e-07
1.46608e-07
1.46608e-07
1.46608e-07
1.46608e-07
1.46608e-07
1.46608e-07
1.46608e-07
1.46608e-07
1.46608e-07
1.46608e-07
1.46608e-07
1.46608e-07
1.46608e-07
1.46608e-07
1.46608e-07
1.46608e-07
1.46608e-07
1.46608e-07
1.46608e-07
1.46608e-07
1.46608e-07
1.46608e-07
1.46608e-07

VECTORS velocity float
-8.68245e-15 7.85696e-14 2.00897e-13
0.00226368 0.0108054 0.00764224
-0.000635946 -0.0228092 0.00167817
-0.000144213 0.013438 0.0179453
3.25063e-15 -1.55245e-14 7.6764e-14
0.000179844 0.00292524 -0.0208493
-1.84383e-14 -5.03875e-14 2.16933e-13
1.68977e-15 7.51615e-15 2.07276e-13
0.000756606 -0.0136368 0.0115985
-4.52759e-15 -2.52971e-14 -1.74151e-13
9.18236e-15 -1.90543e-14 -2.34434e-13
0.00109621 -0.00712541 -0.0110345
5.19528e-05 0.0225703 -0.000119796
0.00187569 -0.0133738 -0.00396372
0.00266481 -0.00343211 0.00184467
3.68751e-05 0.00760524 -0.0183823
1.53869e-14 5.1844e-14 2.19688e-13
1.30068e-14 5.27031e-15 -1.07339e-13
3.95293e-15 5.47625e-14 -1.51839e-13
-2.51571e-16 -1.32891e-15 -9.22788e-15
0.000338782 -0.00942721 -0.0194626
0.00401592 0.0102332 0.00373348
0.000314206 0.0157717 -0.0131424
0.000158333 0.0187317 0.0102563
0.000380748 0.0164241 -0.011513
0.00191291 -0.00308951 0.00274996
-4.4376e-15 2.81985e-14 7.49159e-14
0.000625302 0.014268 0.00273768
0.000153993 0.0151026 0.0164489
0.000786468 0.00673229 -0.0168885
0.000114493 -0.000633616 0.021695
1.95388e-16 -2.75166e-15 -2.89975e-15
0.00106622 -0.0114433 0.00438694
0.000866006 0.0138255 0.00640255
0.000607144 -0.0013367 0.018543
0.00064161 0.00867382 -0.0164792
0.000432205 0.0152479 -0.0129578
-0.000959968 -0.000457669 -0.0021856
0.00108488 -0.0132853 -0.012713
0.000201341 -0.0201114 -0.00926916
-1.94456e-14 2.42364e-16 -2.28118e-13
-4.41427e-05 0.00068664 -0.0228821
0.000181826 -0.019148 -0.00595688
0.000720603 -0.0132228 0.0188212
5.08326e-05 -0.000170925 -0.00079593
-1.55927e-14 -3.19689e-14 -1.0479e-13
-3.12591e-15 -1.74655e-14 -1.20236e-13
-2.83264e-15 1.34625e-14 -6.65665e-14
-9.16518e-15 5.49354e-14 2.11159e-13
6.25567e-15 -3.81347e-14 -1.4647e-13
9.50903e-05 -0.0207348 -0.00623125
-4.51522e-15 1.30452e-14 7.16621e-14
-7.84781e-15 -7.28946e-14 1.85342e-13
0.00179366 -0.0122138 0.00469897
0.000288856 0.000764762 0.0215939
1.52729e-15 2.27824e-15 -1.7842e-14
2.64043e-16 -5.31904e-15 -6.50171e-15
-8.33269e-05 0.0016528 -0.000449249
-5.70388e-15 -2.04808e-14 -3.07616e-13
-1.11171e-05 -0.00691118 0.0207562
2.29484e-16 -6.63855e-16 -3.64347e-15
0.000311665 0.00800326 0.021721
0.00202413 0.0124771 0.00937848
0.000568326 -0.0121184 0.0183297
7.18696e-15 -1.49139e-14 -1.83491e-13
0.00257428 -0.00303649 -0.0135309
1.31559e-14 -4.46996e-14 -1.1002e-13
0.00085376 -0.00938347 0.0167147
-1.81456e-14 8.13654e-15 -1.66092e-13
0.00370188 -0.00385971 0.000396579
0.00337399 0.00625929 -0.0117337
0.00267472 0.0177621 -0.0062628
-1.07556e-14 -1.73291e-15 1.75368e-13
0.00125776 -0.0151537 -0.0071029
0.000408361 0.0211111 0.00301356
-0.000110886 0.0183235 -0.0126107
-3.69888e-15 -1.32325e-14 -1.98725e-13
3.81432e-15 -1.81884e-14 8.99479e-14
8.8981e-16 5.06752e-15 -1.9634e-14
-3.03998e-15 2.53013e-14 -8.03131e-14
0.00092414 0.0150719 -0.00821947
0.000359453 0.000543095 0.020651
0.000778032 0.00641708 0.0154434
0.00039082 0.0148539 0.0141079
-7.12627e-15 -4.06664e-14 1.57633e-13
0.000730757 -0.00610158 -0.0176175
0.00158492 0.0115819 0.00404398
0.00305551 -0.0175517 -0.0117192

VECTORS force float
0.0 0.0 0.0
-1.05101e-08 2.62677e-08 1.59351e-08
1.09264e-08 8.74181e-09 6.51394e-09
4.8174e-09 1.06179e-08 -6.00553e-09
-1.61466e-21 9.23134e-22 2.11758e-22
-7.04399e-10 -9.12429e-09 -7.30909e-09
4.35388e-19 5.19866e-19 1.51831e-19
-1.22588e-21 1.91244e-21 0.0
-1.16711e-09 -9.30029e-11 1.06257e-08
-1.57495e-21 1.32349e-22 0.0
9.99234e-22 -3.57342e-22 0.0
6.16193e-10 -5.13367e-09 8.16332e-09
-9.32795e-10 3.69985e-09 -1.16471e-08
-1.00877e-08 -4.1313e-08 -6.71881e-09
1.31261e-08 5.86876e-08 -6.81337e-08
4.70184e-09 -7.54509e-09 -1.02767e-08
-8.3896e-20 3.21873e-20 -1.27055e-21
-1.20861e-19 -9.22472e-20 -1.88465e-20
-3.42188e-20 -2.91168e-21 -1.90582e-21
3.17637e-22 1.05879e-22 8.47033e-22
-3.20893e-09 -1.12703e-08 -4.26872e-09
-1.67089e-07 -5.38788e-07 9.6123e-08
-1.79754e-09 1.15743e-09 -1.2385e-08
-9.35495e-10 1.08329e-08 -6.69718e-09
-1.53623e-09 9.11971e-10 -1.3792e-08
1.98478e-08 7.7657e-08 -8.7635e-08
-2.41007e-20 -1.46643e-20 4.02341e-21
3.01554e-08 3.16527e-07 -1.76168e-07
-2.67047e-09 1.67832e-08 -1.19749e-09
1.30582e-08 -3.20218e-08 1.77498e-08
-2.90654e-10 1.12428e-08 4.34293e-09
-1.32349e-22 0.0 0.0
-3.87377e-09 1.80917e-08 -1.20366e-08
-1.20385e-07 -6.392e-07 -1.00885e-09
-3.59923e-09 9.528e-09 1.80531e-08
-4.20031e-09 -1.04409e-09 -1.88324e-08
-2.77202e-09 4.6156e-09 -1.75125e-08
-1.31538e-08 7.11923e-08 5.32059e-08
-7.06778e-09 -2.31054e-08 -3.79303e-09
-3.18078e-09 -1.25505e-08 5.99623e-09
1.05879e-22 -4.8217e-20 0.0
-7.05577e-10 -1.17592e-08 -3.05481e-09
-5.62827e-10 -1.09671e-08 8.15228e-09
3.56413e-09 9.18696e-09 9.17689e-09
-7.95701e-10 5.51204e-09 -7.71862e-09
-1.05879e-22 -2.64698e-22 0.0
3.44107e-22 5.29396e-23 0.0
0.0 1.00585e-21 2.11758e-22
2.69529e-20 -1.29702e-20 4.44692e-21
-1.91211e-19 -5.18278e-20 4.65868e-21
-3.12607e-10 -8.5254e-09 8.71056e-09
-1.85288e-22 0.0 0.0
-5.9557e-23 0.0 0.0
7.24546e-09 4.74893e-08 -1.64421e-08
1.91264e-10 1.11963e-08 3.3009e-09
-2.51992e-20 -5.39984e-21 -3.17637e-21
-1.16467e-21 3.70577e-22 1.05879e-21
-3.95883e-09 -1.36088e-08 -1.14762e-08
1.6934e-20 2.02494e-21 -6.35275e-22
4.61174e-10 9.54116e-09 7.97133e-09
7.94093e-23 0.0 0.0
6.96978e-10 1.25757e-08 -1.91919e-09
-2.12332e-08 6.32637e-08 3.99008e-08
-7.70903e-09 7.13343e-09 9.34336e-09
1.55179e-20 7.10714e-21 0.0
-1.91231e-08 -6.86754e-10 -4.49679e-08
-8.15269e-21 -8.25857e-21 2.75286e-21
-1.09714e-10 7.57593e-09 1.96835e-08
-2.48816e-21 0.0 2.11758e-22
-7.93901e-08 -2.34444e-07 -7.39787e-08
-6.01337e-08 -4.58454e-06 -6.3954e-06
-3.38494e-07 7.22123e-07 1.07073e-06
0.0 0.0 0.0
1.57881e-09 -1.10905e-09 8.34408e-09
-6.89943e-08 1.76259e-06 2.94159e-08
-1.43543e-09 -4.48428e-09 -9.05786e-09
1.45584e-22 0.0 0.0
-1.91178e-20 -6.19393e-21 -2.11758e-22
1.48231e-21 0.0 0.0
-8.86473e-20 -4.37281e-20 -1.03762e-20
-4.22563e-09 7.74925e-09 -1.94173e-08
-4.56536e-10 1.18302e-08 4.60781e-09
-5.79155e-09 1.56305e-08 -5.57072e-08
-1.61475e-09 1.39104e-08 -2.21498e-09
-2.3611e-20 -1.34996e-20 -4.44692e-21
-4.30448e-09 -1.40163e-08 -1.20432e-08
1.01831e-08 -4.81642e-08 -2.07842e-08
-3.18714e-08 3.42735e-08 -2.889e-08
