# vtk DataFile Version 3.0
LIGGGHTS particles timestep 1800000
ASCII
DATASET POLYDATA
POINTS 292 float
0.0229126 0.0234294 0.0144214
0.0202543 0.0265767 0.0228743
0.0257306 0.0179995 0.0165758
0.0191598 0.0234774 0.0117236
0.0199571 0.0180414 0.015843
0.0180949 0.0237841 0.0117837
0.0249124 0.0221383 0.0143125
0.0205926 0.0240362 0.0128572
0.019556 0.0168627 0.0174192
0.0176875 0.0227096 0.00949313
0.021845 0.0149391 0.0132001
0.0170286 0.0243075 0.0139889
0.0145834 0.0227357 0.0188368
0.025044 0.0214309 0.0154997
0.0215325 0.0142142 0.0138139
0.0214412 0.0239278 0.013199
0.0221741 0.0153666 0.00923668
0.0189453 0.0244173 0.0137541
0.0186623 0.0146931 0.01445
0.0210534 0.0146818 0.0125098
0.0196083 0.0139845 0.0129954
0.0195121 0.0240518 0.0126599
0.0197497 0.0189674 0.0161899
0.0226137 0.0152437 0.013824
0.0175124 0.0234972 0.0143188
0.0205304 0.0163262 0.0150215
0.0209159 0.0177505 0.0157516
0.0149059 0.0207338 0.0164721
0.0212004 0.0234293 0.0153118
0.0179833 0.0243992 0.0138268
0.0203907 0.0236594 0.0137438
0.0238522 0.0203923 0.0166041
0.0186602 0.0181174 0.0168209
0.0218909 0.0158552 0.00861966
0.0211189 0.024358 0.0139552
0.0183116 0.023722 0.0156579
0.0221607 0.0237206 0.0138276
0.0239105 0.022724 0.0151575
0.0229403 0.0156224 0.0154587
0.020455 0.0229245 0.0148684
0.0224112 0.0158919 0.0146349
0.0164838 0.0239151 0.0146956
0.0164288 0.0368009 0.0483205
0.0235993 0.0228598 0.00939331
0.0220542 0.0237007 0.0148568
0.0231276 0.0148226 0.014594
0.019503 0.0237371 0.0142368
0.0230445 0.0205506 0.00763099
0.018274 0.0233484 0.0109272
0.0198715 0.0244279 0.0134935
0.0251234 0.0218215 0.0165519
0.0208171 0.0150387 0.0134169
0.022308 0.0150167 0.0162217
0.0245207 0.015862 0.0156772
0.0212955 0.014761 0.0172401
0.0205654 0.0154811 0.0144889
0.0241443 0.0219498 0.016558
0.0201744 0.0171215 0.0155164
0.0190439 0.0230853 0.0151007
0.0230341 0.023184 0.0153889
0.0211203 0.0241509 0.0192257
0.0205822 0.014373 0.0166338
0.0223076 0.0142525 0.0145442
0.0257586 0.0187771 0.0159479
0.0172072 0.0238503 0.0162801
0.0226199 0.0180812 0.0166571
0.0205629 0.0239038 0.0146989
0.0257138 0.0211042 0.0168828
0.0177518 0.0177779 0.0177025
0.0192324 0.0202078 0.0166286
0.0211827 0.0147354 0.011519
0.0185214 0.0240962 0.0128271
0.0294021 0.0153945 0.0306457
0.0145971 0.0230279 0.0149234
0.0238394 0.0231269 0.0100869
0.0212725 0.0168906 0.0153834
0.0241198 0.0167558 0.0177201
0.0155702 0.0216531 0.0160841
0.0216656 0.0185191 0.0159094
0.0140045 0.0224856 0.01553
0.0214056 0.0172681 0.0168552
0.0206274 0.0140679 0.0131931
0.0197379 0.0229261 0.01367
0.0211227 0.0144893 0.0146835
0.0199694 0.0220537 0.0147959
0.0132733 0.0201353 0.0189689
0.0243967 0.0228923 0.00941954
0.0135848 0.0197852 0.0158966
0.0192301 0.023282 0.0126321
0.0185055 0.0236765 0.0143638
0.0173683 0.0224714 0.0154997
0.0222233 0.0062438 0.0361966
0.020703 0.0187886 0.015947
0.015383 0.0235796 0.0151898
0.0174881 0.0147158 0.0157805
0.0140573 0.0261807 0.0251494
0.0255816 0.0198051 0.0158874
0.0183856 0.0232865 0.0126292
0.0201351 0.0233004 0.012686
0.0169905 0.0166431 0.0161785
0.0212766 0.0235403 0.014088
0.0189896 0.0221931 0.014653
0.0157256 0.0234961 0.0142521
0.0174697 0.0240671 0.0130637
0.0243331 0.0232993 0.0123093
0.0221541 0.0226407 0.0153393
0.0201018 0.0234826 0.0117564
0.0175646 0.0204336 0.0192325
0.0183446 0.0146877 0.0163122
0.016313 0.0229785 0.0149773
0.0182287 0.0227646 0.0159685
0.0136125 0.0187087 0.0170727
0.0170114 0.0143709 0.0138752
0.019816 0.0221636 0.0158502
0.0245524 0.0221848 0.0156939
0.0187639 0.0137551 0.0134791
0.02333 0.0215313 0.00822322
0.0212319 0.0205835 0.0156881
0.0240592 0.0220446 0.008566
0.0228618 0.0158129 0.0164807
0.0219352 0.0155646 0.0154679
0.023849 0.0152909 0.0151867
0.0193451 0.0145059 0.0151562
0.0230864 0.0222312 0.0156923
0.0168998 0.0219559 0.0172795
0.0182789 0.0232985 0.0117544
0.0158839 0.0153461 0.0153872
0.0235211 0.0188815 0.0176535
0.0236151 0.0162837 0.0159716
0.0239406 0.0226626 0.0159831
0.0187856 0.0152999 0.015469
0.0252373 0.0205768 0.0164207
0.0209038 0.0157453 0.0168122
0.0196459 0.0139008 0.0139872
0.0158632 0.0231799 0.0201735
0.0215002 0.019505 0.0159227
0.0146153 0.0215618 0.0169887
0.0220509 0.016527 0.00801804
0.0257785 0.02071 0.0154988
0.0203023 0.0197592 0.0159028
0.0197252 0.0237554 0.0153941
0.0161361 0.0182555 0.016757
0.0214156 0.0159641 0.0146999
0.0136417 0.0248894 0.0238457
0.0171009 0.0234663 0.017241
0.0250603 0.0209073 0.0155
0.0234362 0.022243 0.00876481
0.0157323 0.0226125 0.0163141
0.0179384 0.0218025 0.015978
0.0155018 0.015996 0.0147303
0.0147261 0.0181663 0.0163138
0.0157471 0.014521 0.0142177
0.0164046 0.0222584 0.0156646
0.0138269 0.0215468 0.0151857
0.019717 0.0234542 0.0169122
0.0190191 0.016268 0.0159726
0.0145429 0.0157255 0.0144589
0.016277 0.0217899 0.0190249
0.0151882 0.015211 0.0137534
0.0207866 0.0167691 0.0162489
0.0133636 0.0208058 0.0156631
0.0228821 0.0170186 0.0163433
0.0210193 0.0158437 0.0157608
0.0146993 0.0250862 0.0218036
0.0150497 0.0160238 0.0157219
0.0159085 0.0207885 0.0164556
0.0151715 0.0171653 0.0155362
0.0199336 0.0198977 0.0181262
0.0149563 0.0148618 0.0147546
0.0147559 0.0218357 0.0154049
0.0160875 0.0233602 0.0168878
0.0153895 0.0226041 0.0153611
0.01974 0.0143839 0.0160667
0.014737 0.0171157 0.0168715
0.0169949 0.0156013 0.0154365
0.0243996 0.0185648 0.0167501
0.0134279 0.0171127 0.0166137
0.0157687 0.0215647 0.0170723
0.0168428 0.0262105 0.0227168
0.0687516 0.0539914 -0.0129389
0.0209665 0.0219926 0.0148449
0.0242531 0.0215474 0.0160308
0.021335 0.0147963 0.0161179
0.0160921 0.0169512 0.0158622
0.0232726 0.0193146 0.0167459
0.0147499 0.0190999 0.0159552
0.016486 0.0152145 0.0144656
0.0221715 0.0166324 0.0157371
0.0194016 0.0206282 0.0156709
0.0179622 0.0158405 0.0156452
0.0164999 0.0232021 0.0159884
0.0248359 0.0174178 0.0165299
0.0173143 0.0155826 0.0164003
0.0222982 0.0165865 0.0170382
0.0140308 0.0177252 0.0157454
0.0183334 0.0143295 0.0153764
0.0208967 0.0155128 0.0193731
0.0180066 0.0143326 0.0137838
0.0180507 0.0230102 0.0150061
0.0235371 0.0162791 0.0170611
0.0217908 0.018584 0.0168972
0.0172197 0.0145745 0.0176519
0.0164324 0.0150363 0.0134043
0.0166312 0.0201248 0.0166508
0.0171324 0.0243202 0.0181874
0.0201245 0.0212521 0.0153738
0.0205865 0.0148319 0.0154549
0.0232515 0.0213904 0.0162127
0.0201354 0.0145696 0.0145468
0.0222718 0.0144772 0.0173985
0.0143049 0.0204567 0.0157226
0.0238439 0.0172761 0.0164524
0.016637 0.0214281 0.0161712
0.0178323 0.0150552 0.0149052
0.0167267 0.0181555 0.018962
0.0203168 0.0231074 0.0158741
0.0140522 0.0222826 0.0145521
0.0187702 0.0228585 0.013844
0.0142474 0.0168322 0.0153508
0.0145355 0.0223254 0.0178749
0.0215828 0.0175298 0.0204876
0.0141999 0.0213775 0.016098
0.015163 0.0209306 0.0155257
0.017829 0.0170462 0.0191005
0.0202744 0.0185823 0.016949
0.0191783 0.0221719 0.0219709
0.0179804 0.0167801 0.0162454
0.0171639 0.0234304 0.0152573
0.0193669 0.0231578 0.0207461
0.0171385 0.0198365 0.023434
0.0220084 0.019851 0.0193627
0.0200309 0.0219762 0.0229268
0.0250816 0.0193332 0.0167858
0.0145462 0.0241887 0.0206358
0.0206947 0.0232319 0.0199239
0.0171541 0.0151369 0.0189662
0.0193139 0.0185347 0.0191922
0.0229379 0.0181772 0.0224587
0.0157168 0.0192946 0.0216796
0.0204395 0.0176482 0.0166256
0.0157582 0.0206978 0.0196347
0.0196655 0.0162549 0.0193447
0.0184883 0.0202613 0.0202301
0.0173648 0.0186375 0.0215452
0.0141731 0.015634 0.01544
0.0208702 0.0219483 0.020096
0.0114716 0.0177686 0.0239398
0.0221917 0.021245 0.0180469
0.0174041 0.0230338 0.0210467
0.01967 0.0186017 0.0211135
0.0204769 0.0174592 0.0179107
0.0137882 0.0188068 0.0159438
0.021835 0.0158745 0.0164738
0.021054 0.0180858 0.0173507
0.0223894 0.020093 0.0166485
0.0136679 0.0168225 0.0185191
0.0197717 0.0153956 0.0153194
0.0206835 0.017002 0.0200367
0.0202093 0.0240692 0.0162115
0.0155913 0.0192334 0.0164852
0.023563 0.018072 0.0169897
0.0174656 0.0178989 0.0248521
0.0213047 0.0222373 0.0186499
0.0152101 0.0199856 0.0158488
0.0156234 0.0183389 0.0158863
0.0149694 0.0183324 0.0195339
0.0196634 0.0216401 0.0206473
0.02122 0.019417 0.0168786
0.0214877 0.0185159 0.0197961
0.0170119 0.0145027 0.0166345
0.0185544 0.0184247 0.0222826
0.0160151 0.0156868 0.0198052
0.0148922 0.0193486 0.0202504
0.0150876 0.016062 0.0171636
0.0178586 0.016178 0.0175166
0.0184411 0.0214011 0.0199562
0.0188709 0.0149406 0.0224497
0.0210161 0.0162086 0.0208568
0.0156139 0.0164404 0.0243838
0.0162296 0.0154622 0.0163887
0.0167534 0.0190927 0.0167769
0.0159477 0.0172637 0.0168012
0.024826 0.0188266 0.0178822
0.0202567 0.0158466 0.0247993
0.0200771 0.0161549 0.0158959
0.0198009 0.0230552 0.0247218
0.0160612 0.0197825 0.0183872
0.0218755 0.0175466 0.0160142
0.0151788 0.0208905 0.0184475
0.0144782 0.0197881 0.0167316
0.0157069 0.0225357 0.0173106
0.0207558 0.0193781 0.0246032

VERTICES 292 584
1 0
1 1
1 2
1 3
1 4
1 5
1 6
1 7
1 8
1 9
1 10
1 11
1 12
1 13
1 14
1 15
1 16
1 17
1 18
1 19
1 20
1 21
1 22
1 23
1 24
1 25
1 26
1 27
1 28
1 29
1 30
1 31
1 32
1 33
1 34
1 35
1 36
1 37
1 38
1 39
1 40
1 41
1 42
1 43
1 44
1 45
1 46
1 47
1 48
1 49
1 50
1 51
1 52
1 53
1 54
1 55
1 56
1 57
1 58
1 59
1 60
1 61
1 62
1 63
1 64
1 65
1 66
1 67
1 68
1 69
1 70
1 71
1 72
1 73
1 74
1 75
1 76
1 77
1 78
1 79
1 80
1 81
1 82
1 83
1 84
1 85
1 86
1 87
1 88
1 89
1 90
1 91
1 92
1 93
1 94
1 95
1 96
1 97
1 98
1 99
1 100
1 101
1 102
1 103
1 104
1 105
1 106
1 107
1 108
1 109
1 110
1 111
1 112
1 113
1 114
1 115
1 116
1 117
1 118
1 119
1 120
1 121
1 122
1 123
1 124
1 125
1 126
1 127
1 128
1 129
1 130
1 131
1 132
1 133
1 134
1 135
1 136
1 137
1 138
1 139
1 140
1 141
1 142
1 143
1 144
1 145
1 146
1 147
1 148
1 149
1 150
1 151
1 152
1 153
1 154
1 155
1 156
1 157
1 158
1 159
1 160
1 161
1 162
1 163
1 164
1 165
1 166
1 167
1 168
1 169
1 170
1 171
1 172
1 173
1 174
1 175
1 176
1 177
1 178
1 179
1 180
1 181
1 182
1 183
1 184
1 185
1 186
1 187
1 188
1 189
1 190
1 191
1 192
1 193
1 194
1 195
1 196
1 197
1 198
1 199
1 200
1 201
1 202
1 203
1 204
1 205
1 206
1 207
1 208
1 209
1 210
1 211
1 212
1 213
1 214
1 215
1 216
1 217
1 218
1 219
1 220
1 221
1 222
1 223
1 224
1 225
1 226
1 227
1 228
1 229
1 230
1 231
1 232
1 233
1 234
1 235
1 236
1 237
1 238
1 239
1 240
1 241
1 242
1 243
1 244
1 245
1 246
1 247
1 248
1 249
1 250
1 251
1 252
1 253
1 254
1 255
1 256
1 257
1 258
1 259
1 260
1 261
1 262
1 263
1 264
1 265
1 266
1 267
1 268
1 269
1 270
1 271
1 272
1 273
1 274
1 275
1 276
1 277
1 278
1 279
1 280
1 281
1 282
1 283
1 284
1 285
1 286
1 287
1 288
1 289
1 290
1 291

POINT_DATA 292
SCALARS id int 1
LOOKUP_TABLE default
1
2
3
4
6
7
8
9
10
11
12
13
14
15
16
17
18
19
20
21
22
23
24
25
26
27
28
29
30
31
32
33
34
35
36
37
38
39
40
41
42
43
44
45
46
48
49
50
51
52
53
54
55
56
57
58
59
60
61
62
63
64
65
66
67
68
69
70
71
72
73
74
75
76
77
78
79
80
81
82
83
84
85
86
87
88
89
90
91
92
93
95
96
97
98
99
100
101
102
103
104
105
106
107
108
109
110
111
112
113
114
115
116
117
118
119
120
121
122
123
124
125
126
127
128
129
130
131
132
133
134
135
136
137
138
139
140
141
142
143
144
145
146
147
148
149
150
151
152
154
155
156
157
158
159
160
161
162
163
164
165
166
167
168
169
170
171
172
173
174
175
176
177
178
179
180
182
183
184
185
186
187
188
189
190
191
192
193
194
195
196
197
198
200
201
202
203
204
205
206
207
208
209
210
211
212
213
214
215
216
217
218
220
221
222
223
224
225
226
227
228
229
230
231
232
233
234
235
236
237
238
239
240
241
242
243
244
245
246
247
248
249
250
251
252
253
254
255
256
257
258
259
261
262
263
264
265
266
267
268
269
270
271
272
273
274
275
276
277
278
279
280
281
282
283
284
285
286
287
288
289
290
291
292
293
294
295
296
297
298
299
300

SCALARS type int 1
LOOKUP_TABLE default
1
1
1
1
1
1
1
1
1
1
1
1
1
1
1
1
1
1
1
1
1
1
1
1
1
1
1
1
1
1
1
1
1
1
1
1
1
1
1
1
1
1
1
1
1
1
1
1
1
1
1
1
1
1
1
1
1
1
1
1
1
1
1
1
1
1
1
1
1
1
1
1
1
1
1
1
1
1
1
1
1
1
1
1
1
1
1
1
1
1
1
1
1
1
1
1
1
1
1
1
1
1
1
1
1
1
1
1
1
1
1
1
1
1
1
1
1
1
1
1
1
1
1
1
1
1
1
1
1
1
1
1
1
1
1
1
1
1
1
1
1
1
1
1
1
1
1
1
1
1
1
1
1
1
1
1
1
1
1
1
1
1
1
1
1
1
1
1
1
1
1
1
1
1
1
1
1
1
1
1
1
1
1
1
1
1
1
1
1
1
1
1
1
1
1
1
1
1
1
1
1
1
1
1
1
1
1
1
1
1
1
1
1
1
1
1
1
1
1
1
1
1
1
1
1
1
1
1
1
1
1
1
1
1
1
1
1
1
1
1
1
1
1
1
1
1
1
1
1
1
1
1
1
1
1
1
1
1
1
1
1
1
1
1
1
1
1
1
1
1
1
1
1
1
1
1
1
1
1
1
1
1
1
1
1
1
1
1
1
1
1
1

SCALARS radius float 1
LOOKUP_TABLE default
0.0005
0.0005
0.0005
0.0005
0.0005
0.0005
0.0005
0.0005
0.0005
0.0005
0.0005
0.0005
0.0005
0.0005
0.0005
0.0005
0.0005
0.0005
0.0005
0.0005
0.0005
0.0005
0.0005
0.0005
0.0005
0.0005
0.0005
0.0005
0.0005
0.0005
0.0005
0.0005
0.0005
0.0005
0.0005
0.0005
0.0005
0.0005
0.0005
0.0005
0.0005
0.0005
0.0005
0.0005
0.0005
0.0005
0.0005
0.0005
0.0005
0.0005
0.0005
0.0005
0.0005
0.0005
0.0005
0.0005
0.0005
0.0005
0.0005
0.0005
0.0005
0.0005
0.0005
0.0005
0.0005
0.0005
0.0005
0.0005
0.0005
0.0005
0.0005
0.0005
0.0005
0.0005
0.0005
0.0005
0.0005
0.0005
0.0005
0.0005
0.0005
0.0005
0.0005
0.0005
0.0005
0.0005
0.0005
0.0005
0.0005
0.0005
0.0005
0.0005
0.0005
0.0005
0.0005
0.0005
0.0005
0.0005
0.0005
0.0005
0.0005
0.0005
0.0005
0.0005
0.0005
0.0005
0.0005
0.0005
0.0005
0.0005
0.0005
0.0005
0.0005
0.0005
0.0005
0.0005
0.0005
0.0005
0.0005
0.0005
0.0005
0.0005
0.0005
0.0005
0.0005
0.0005
0.0005
0.0005
0.0005
0.0005
0.0005
0.0005
0.0005
0.0005
0.0005
0.0005
0.0005
0.0005
0.0005
0.0005
0.0005
0.0005
0.0005
0.0005
0.0005
0.0005
0.0005
0.0005
0.0005
0.0005
0.0005
0.0005
0.0005
0.0005
0.0005
0.0005
0.0005
0.0005
0.0005
0.0005
0.0005
0.0005
0.0005
0.0005
0.0005
0.0005
0.0005
0.0005
0.0005
0.0005
0.0005
0.0005
0.0005
0.0005
0.0005
0.0005
0.0005
0.0005
0.0005
0.0005
0.0005
0.0005
0.0005
0.0005
0.0005
0.0005
0.0005
0.0005
0.0005
0.0005
0.0005
0.0005
0.0005
0.0005
0.0005
0.0005
0.0005
0.0005
0.0005
0.0005
0.0005
0.0005
0.0005
0.0005
0.0005
0.0005
0.0005
0.0005
0.0005
0.0005
0.0005
0.0005
0.0005
0.0005
0.0005
0.0005
0.0005
0.0005
0.0005
0.0005
0.0005
0.0005
0.0005
0.0005
0.0005
0.0005
0.0005
0.0005
0.0005
0.0005
0.0005
0.0005
0.0005
0.0005
0.0005
0.0005
0.0005
0.0005
0.0005
0.0005
0.0005
0.0005
0.0005
0.0005
0.0005
0.0005
0.0005
0.0005
0.0005
0.0005
0.0005
0.0005
0.0005
0.0005
0.0005
0.0005
0.0005
0.0005
0.0005
0.0005
0.0005
0.0005
0.0005
0.0005
0.0005
0.0005
0.0005
0.0005
0.0005
0.0005
0.0005
0.0005
0.0005
0.0005
0.0005
0.0005
0.0005
0.0005
0.0005
0.0005
0.0005
0.0005
0.0005
0.0005
0.0005
0.0005
0.0005
0.0005
0.0005
0.0005
0.0005
0.0005

SCALARS mass float 1
LOOKUP_TABLE default
1.46608e-07
1.46608e-07
1.46608e-07
1.46608e-07
1.46608e-07
1.46608e-07
1.46608e-07
1.46608e-07
1.46608e-07
1.46608e-07
1.46608e-07
1.46608e-07
1.46608e-07
1.46608e-07
1.46608e-07
1.46608e-07
1.46608e-07
1.46608e-07
1.46608e-07
1.46608e-07
1.46608e-07
1.46608e-07
1.46608e-07
1.46608e-07
1.46608e-07
1.46608e-07
1.46608e-07
1.46608e-07
1.46608e-07
1.46608e-07
1.46608e-07
1.46608e-07
1.46608e-07
1.46608e-07
1.46608e-07
1.46608e-07
1.46608e-07
1.46608e-07
1.46608e-07
1.46608e-07
1.46608e-07
1.46608e-07
1.46608e-07
1.46608e-07
1.46608e-07
1.46608e-07
1.46608e-07
1.46608e-07
1.46608e-07
1.46608e-07
1.46608e-07
1.46608e-07
1.46608e-07
1.46608e-07
1.46608e-07
1.46608e-07
1.46608e-07
1.46608e-07
1.46608e-07
1.46608e-07
1.46608e-07
1.46608e-07
1.46608e-07
1.46608e-07
1.46608e-07
1.46608e-07
1.46608e-07
1.46608e-07
1.46608e-07
1.46608e-07
1.46608e-07
1.46608e-07
1.46608e-07
1.46608e-07
1.46608e-07
1.46608e-07
1.46608e-07
1.46608e-07
1.46608e-07
1.46608e-07
1.46608e-07
1.46608e-07
1.46608e-07
1.46608e-07
1.46608e-07
1.46608e-07
1.46608e-07
1.46608e-07
1.46608e-07
1.46608e-07
1.46608e-07
1.46608e-07
1.46608e-07
1.46608e-07
1.46608e-07
1.46608e-07
1.46608e-07
1.46608e-07
1.46608e-07
1.46608e-07
1.46608e-07
1.46608e-07
1.46608e-07
1.46608e-07
1.46608e-07
1.46608e-07
1.46608e-07
1.46608e-07
1.46608e-07
1.46608e-07
1.46608e-07
1.46608e-07
1.46608e-07
1.46608e-07
1.46608e-07
1.46608e-07
1.46608e-07
1.46608e-07
1.46608e-07
1.46608e-07
1.46608e-07
1.46608e-07
1.46608e-07
1.46608e-07
1.46608e-07
1.46608e-07
1.46608e-07
1.46608e-07
1.46608e-07
1.46608e-07
1.46608e-07
1.46608e-07
1.46608e-07
1.46608e-07
1.46608e-07
1.46608e-07
1.46608e-07
1.46608e-07
1.46608e-07
1.46608e-07
1.46608e-07
1.46608e-07
1.46608e-07
1.46608e-07
1.46608e-07
1.46608e-07
1.46608e-07
1.46608e-07
1.46608e-07
1.46608e-07
1.46608e-07
1.46608e-07
1.46608e-07
1.46608e-07
1.46608e-07
1.46608e-07
1.46608e-07
1.46608e-07
1.46608e-07
1.46608e-07
1.46608e-07
1.46608e-07
1.46608e-07
1.46608e-07
1.46608e-07
1.46608e-07
1.46608e-07
1.46608e-07
1.46608e-07
1.46608e-07
1.46608e-07
1.46608e-07
1.46608e-07
1.46608e-07
1.46608e-07
1.46608e-07
1.46608e-07
1.46608e-07
1.46608e-07
1.46608e-07
1.46608e-07
1.46608e-07
1.46608e-07
1.46608e-07
1.46608e-07
1.46608e-07
1.46608e-07
1.46608e-07
1.46608e-07
1.46608e-07
1.46608e-07
1.46608e-07
1.46608e-07
1.46608e-07
1.46608e-07
1.46608e-07
1.46608e-07
1.46608e-07
1.46608e-07
1.46608e-07
1.46608e-07
1.46608e-07
1.46608e-07
1.46608e-07
1.46608e-07
1.46608e-07
1.46608e-07
1.46608e-07
1.46608e-07
1.46608e-07
1.46608e-07
1.46608e-07
1.46608e-07
1.46608e-07
1.46608e-07
1.46608e-07
1.46608e-07
1.46608e-07
1.46608e-07
1.46608e-07
1.46608e-07
1.46608e-07
1.46608e-07
1.46608e-07
1.46608e-07
1.46608e-07
1.46608e-07
1.46608e-07
1.46608e-07
1.46608e-07
1.46608e-07
1.46608e-07
1.46608e-07
1.46608e-07
1.46608e-07
1.46608e-07
1.46608e-07
1.46608e-07
1.46608e-07
1.46608e-07
1.46608e-07
1.46608e-07
1.46608e-07
1.46608e-07
1.46608e-07
1.46608e-07
1.46608e-07
1.46608e-07
1.46608e-07
1.46608e-07
1.46608e-07
1.46608e-07
1.46608e-07
1.46608e-07
1.46608e-07
1.46608e-07
1.46608e-07
1.46608e-07
1.46608e-07
1.46608e-07
1.46608e-07
1.46608e-07
1.46608e-07
1.46608e-07
1.46608e-07
1.46608e-07
1.46608e-07
1.46608e-07
1.46608e-07
1.46608e-07
1.46608e-07
1.46608e-07
1.46608e-07
1.46608e-07
1.46608e-07
1.46608e-07
1.46608e-07
1.46608e-07
1.46608e-07
1.46608e-07
1.46608e-07
1.46608e-07
1.46608e-07
1.46608e-07
1.46608e-07
1.46608e-07
1.46608e-07
1.46608e-07
1.46608e-07
1.46608e-07
1.46608e-07
1.46608e-07

VECTORS velocity float
-0.00111232 0.00200577 -0.00470614
-0.0236809 0.024163 0.0366249
0.00411973 0.0133878 0.0018328
0.00269995 -0.00159284 -0.00564316
0.00060377 0.0204754 0.00527417
0.00273364 -0.00209186 -0.00150128
0.000163303 0.0148069 -0.0161435
-0.000103578 0.000767461 -0.000982785
-0.182658 -0.48745 1.02658
0.000343381 -0.0103609 -0.0183486
0.00311862 0.00272416 0.00947032
0.000256145 8.54387e-05 -0.00014095
0.00712107 -0.0619641 -0.0163927
0.00143793 0.00374123 -8.45918e-06
-6.65087e-05 -0.00173085 0.00384327
0.000191675 0.00230764 -0.00795439
0.000160968 -0.0116451 0.0184412
0.000198599 0.000188055 -7.98913e-05
-0.00966348 -0.00493493 -0.0102328
0.00175099 -0.00567219 0.0144742
-0.000513484 -0.000666076 0.00105117
-0.000139671 0.000610238 -0.0009482
8.75575e-05 0.0241361 -0.000505317
0.000137736 -1.10525e-05 0.00154812
0.00345138 0.000723521 -0.000477456
0.00859506 0.0210804 -0.0125061
0.000573116 0.0200988 0.00603035
0.00512424 0.00599584 -0.0033298
-0.00267186 0.000590775 0.00979739
0.000296535 -9.74954e-05 -5.78831e-05
0.00118174 0.000845792 -0.00289536
-5.64389e-09 0.0240863 -0.00612881
-0.255794 0.449515 0.199511
0.000242206 -0.0142207 0.0158331
7.74957e-05 0.000374526 -0.00199548
0.00375268 0.000397811 -0.000735062
-0.000868285 0.0006319 -0.00288627
-0.00266201 0.00277561 -0.00229276
-0.0164094 0.0109906 0.0104612
0.00406872 -0.000458124 -0.00152709
0.00277998 -0.00303934 0.00131959
-0.000206496 0.000958711 -0.000699755
-0.235756 0.313232 0.88322
0.00168235 -0.00577072 -0.00985488
0.0320507 -0.00754664 0.0487302
-0.00267172 -0.00153861 -0.001989
-0.00945922 0.00495671 0.0136249
-0.000466061 -0.0193577 -0.0110207
0.000455109 0.000923537 -0.00559969
1.63587e-05 7.11473e-05 -0.000571509
0.000190817 0.00144766 -8.13776e-05
0.00123314 0.00748265 0.0124539
-0.0103199 0.00484045 0.0206231
-0.00110562 -0.00111664 -0.00062909
-0.204557 -0.108177 0.154083
0.0048972 0.00761651 0.00158005
-0.000236179 0.00146991 2.84777e-05
0.000530463 0.0190704 0.0089475
0.00461335 0.00492977 -0.000160671
0.00303043 0.00973612 0.00773135
-0.0129481 -0.0142241 -0.103255
0.00578281 0.0617869 0.0255466
-0.00830578 0.00832645 -0.022296
0.000759214 0.0107566 0.000926855
0.0245827 -0.00192753 -0.0244531
0.0125884 0.0232615 -0.00414111
0.000292759 0.000406702 -0.00172904
-0.000257996 0.00337858 -0.000684334
-0.75491 0.0917807 0.538146
0.0109149 9.51401e-05 -0.024181
0.000676611 -0.0014865 0.0191579
-0.000305125 0.000665715 0.00217351
-0.11796 -0.00562 -0.325848
0.000917812 0.00080929 -0.000304727
0.00286085 -0.00423526 -0.0108349
-0.00146294 0.0146027 0.00810787
0.0605935 -0.0231594 0.0149688
0.00705841 0.000887708 -0.00709566
0.0227122 0.035112 -0.0253781
0.00128467 0.00195436 -0.00116097
-0.00380035 0.00481119 -0.00896819
0.00763202 0.000822334 0.00196829
0.000951586 0.00376539 -0.00772383
-0.00261571 -0.0018286 0.00293338
0.000798272 0.000576859 -0.00193507
0.0122096 -0.0520194 -0.114957
0.00183177 0.000375258 -0.00152069
0.00167196 0.0125547 -0.00405322
-0.00018967 0.00246475 -0.00755837
-0.0296788 -0.0101158 0.00680863
-0.0011269 0.00797571 -0.00642178
-0.0937873 0.0630086 -0.243345
0.000440051 0.0211443 0.00100017
0.0002971 0.000404687 -0.000945497
-0.00400906 -0.0053828 -0.000595554
0.0598508 -0.113391 -0.367494
0.000655719 0.0147049 -0.00238901
0.000322141 0.00478658 -0.0187117
-0.000859618 -0.000356842 0.00052111
-0.00522135 -0.00271387 0.0272074
0.000202008 0.0019423 -0.00512295
0.00206991 0.010736 -0.0127396
8.28624e-05 0.00242429 -0.00191924
0.000377038 -0.00109951 0.000673658
0.000404509 0.00382125 -0.0201327
-0.000834386 0.0253752 -0.0232641
0.0027544 -0.000591736 -0.000629321
-0.0342035 -0.00392312 -0.0530589
0.0087953 0.005481 -0.00351312
-0.00111742 0.00287582 -0.00175371
0.0219038 0.000276023 0.00255168
-0.00180113 0.00438022 0.0131124
-0.00946783 -0.0120197 -0.0186546
-0.0729356 0.0323558 -0.0567736
-0.00148864 0.000602182 -0.00255009
-0.000374043 0.000216588 0.000103584
0.000402244 -0.0107816 -0.00873521
-3.01147e-09 0.0193355 -0.00708652
0.000826687 -0.0135861 -0.0127954
0.00947992 0.01774 -0.00418512
-0.0455945 -0.0240362 0.0079285
-0.0259247 -0.00435797 -0.000349471
-0.00531775 -0.000133255 -0.0111186
-0.00333832 0.00581734 -0.00222425
0.00539763 0.00819784 -0.0302461
0.00175003 -0.000510084 -0.015162
0.0246992 -0.0301015 -0.037486
0.035139 -0.00758175 -0.0643979
0.00319453 0.00225431 0.00158284
-0.00147363 0.000716088 -0.00109984
-0.0175631 -0.0021026 -0.048393
-0.00108063 0.0169839 -0.00511921
0.0267705 -0.146761 0.196703
-3.14553e-05 -0.000216112 0.000222773
-0.0635347 -0.0230429 -0.0054795
0.000249921 0.0214804 -0.00276025
0.0167955 0.0147835 -0.00733832
0.000258132 -0.0175855 0.0124001
0.000693601 0.00477636 -0.00056288
-3.77788e-09 0.020338 -0.00322963
0.00622234 0.00200402 0.00270469
-0.00784101 -0.00768278 -0.00372318
0.00374208 0.0248343 -0.00985525
-0.126069 -0.0441611 0.0888458
0.0608459 -0.052059 -0.00296405
0.00303569 0.00518106 -0.00227614
0.00108201 -0.0120429 -0.0117731
-9.72967e-06 0.00338122 -0.00827845
0.00475192 0.0148856 -0.00820892
0.00879075 -0.0023606 -0.000809501
0.00687971 0.00393527 0.00688433
0.0212501 0.00611063 -0.0382358
0.00719595 0.00339976 -0.00492688
0.00338557 0.00198391 3.24083e-05
-0.0696876 -0.0193869 -0.0378455
-0.000286759 0.00145889 -0.00140453
0.00501785 0.00526909 0.00268481
-0.160255 -0.0130956 -0.022208
0.00691888 0.0035328 -0.00268839
-0.012187 0.00234726 0.00090411
0.00466333 0.0026277 0.000540708
-0.00564263 0.0313759 0.0284139
-0.0286306 0.00419637 0.0434397
-0.0494507 -0.0616618 0.0231534
0.0164502 -0.0016864 -0.0457128
0.0082622 -0.000492587 -0.00888306
-0.00363762 0.0228584 0.0105553
-0.104395 -0.157836 -0.130676
0.0171446 -0.00103721 -0.0217021
0.00375747 9.57782e-05 -0.00171816
0.0042182 0.00193071 -0.00418882
0.0024202 -0.000216623 -0.00249672
-6.85982e-05 0.00551623 -0.0112047
-0.0756281 -0.0596433 -0.0914583
-0.00388944 0.00545919 0.00507423
0.00216022 0.0271779 0.00248422
-0.0274613 -0.114719 -0.0256767
0.00558235 0.00584988 -0.0122295
-0.102395 -0.000820922 0.0645203
0.235059 0.118798 -1.19194
0.000261931 0.0153106 -0.0136566
-0.00191258 0.00614123 -0.000338943
0.00275713 0.00935457 -0.0200802
-0.00119761 0.0217257 0.0105864
3.61425e-07 0.0246971 -0.0010928
0.0100458 0.00065114 -0.00267859
-0.0122313 0.0131067 -0.0492347
8.90203e-05 0.0174637 0.00790053
0.00348089 0.0112621 -0.0037995
-0.00192079 0.00577278 0.00424069
0.00810393 0.00652868 -0.00712094
0.0362116 0.027466 0.0117059
-0.00401991 0.00091612 -0.00344124
0.0236563 0.078391 0.119454
7.00912e-05 0.0253375 0.000872857
0.00133216 0.00134412 -0.00492837
1.16379 -1.62384 3.66053
-0.00961215 -0.00632047 -0.00816549
0.00672416 0.00160713 -0.0026777
0.0146852 -0.0151435 0.0128226
0.0384002 0.0615393 -0.0382228
0.0167385 -0.0516844 0.0578183
-0.00541469 -0.00741147 -0.0148328
0.0123386 0.00627486 -0.000364255
-0.0129041 -0.0340825 -0.0808364
0.0128586 -0.000712042 -0.00607189
-0.00707947 0.00276485 -0.00129966
6.10739e-05 0.000793088 0.000799247
-0.000401084 0.00478386 -0.00527086
0.0539364 0.0505952 0.12538
0.0058355 0.0056368 -0.00497475
0.00881086 0.0237748 0.0135573
0.00613991 0.00355428 -0.000402283
-0.000666202 0.00319386 0.00400636
-0.148553 -0.123431 -0.026517
-0.0134344 -0.0168205 0.00229987
0.00144511 0.00167772 -0.0006284
0.00013339 0.01037 -0.0176184
-0.00398187 0.0196392 0.0116095
0.0221403 -0.0225408 -0.0719956
0.0 -0.0 -0.03
0.00524915 0.00187992 0.0011708
0.00829515 0.00198415 -0.00157262
0.0 -0.0 -0.03
0.00185814 0.0180887 -0.00536787
0.0 -0.0 -0.03
-0.00769758 0.000150958 0.0355908
0.000480238 -0.00816542 -0.00279621
0.0 -0.0 -0.03
0.0 -0.0 -0.03
0.0 -0.0 -0.03
0.0 -0.0 -0.03
-1.48267e-09 0.024888 -0.00146214
-0.0666963 -0.0896868 -0.0217859
0.0 -0.0 -0.03
0.0 -0.0 -0.03
0.0 -0.0 -0.03
0.0 -0.0 -0.03
0.0 -0.0 -0.03
-0.00231349 0.0139208 0.00490869
0.0 -0.0 -0.03
0.0 -0.0 -0.03
0.0 -0.0 -0.03
0.0 -0.0 -0.03
0.00547206 -0.00596414 -0.0056288
0.0 -0.0 -0.03
0.0691279 0.126943 0.00357409
0.0 0.0 -0.0919452
0.0 -0.0 -0.03
0.0 -0.0 -0.03
0.402331 0.217539 0.810883
0.00225669 0.0138316 0.000242231
0.0528442 0.0155981 0.0875338
0.0443676 0.0775946 0.121798
-1.07424e-07 0.024254 -0.00478114
0.0410762 -0.00177779 -0.0663627
-0.0104288 0.000419654 0.00084925
0.0 -0.0 -0.03
0.00431704 -0.00137261 0.00158623
0.0414836 0.00480009 -0.0451787
-0.000345087 0.0311627 0.00797762
0.0 -0.0 -0.03
0.0 -0.0 -0.03
0.00813265 0.00352098 0.000413396
0.00218737 0.0132868 0.00249428
0.0 -0.0 -0.03
-6.54956e-05 0.0245954 -0.00572244
-0.00756255 0.0193555 -0.0045489
0.0 -0.0 -0.03
0.00978512 0.00880933 0.00842716
0.0 -0.0 -0.03
0.0 -0.0 -0.03
0.0 -0.0 -0.03
0.0352219 0.036002 0.0119986
-1.4211 -0.733238 1.01429
0.0 -0.0 -0.03
0.0 -0.0 -0.03
0.0 -0.0 -0.03
0.0 -0.0 -0.03
-0.0409872 -0.0272254 -0.0851811
0.000415981 0.0276606 0.010488
-0.0117742 -0.00512118 0.0191743
-0.0349841 -0.0158336 -0.054591
0.0 -0.0 -0.03
-0.0177363 0.0245336 -0.000394018
0.0 -0.0 -0.03
0.0 0.0 -0.0421595
-0.00127734 0.0191064 0.00285043
0.0 -0.0 -0.03
0.0507651 0.0543734 -0.0226262
-0.0232616 0.00425437 -0.000339566
0.0 -0.0 -0.03

VECTORS force float
0.0 0.0 -1.43822e-06
0.0 0.0 -1.43822e-06
-1.72632e-06 -2.15581e-06 1.40526e-06
-6.06582e-06 -1.94197e-07 -6.61938e-07
9.15396e-07 -2.3433e-07 1.39492e-07
-1.01322e-07 -8.35135e-08 -4.76414e-08
-2.09311e-09 -3.53267e-09 -1.01873e-08
1.44795e-06 -1.41269e-06 4.05541e-06
0.0 0.0 -1.43822e-06
-2.60898e-09 -1.27878e-08 5.44387e-10
1.13284e-07 -2.18886e-07 -1.50643e-06
1.45682e-06 1.87975e-06 3.29092e-06
0.0 0.0 -1.43822e-06
-9.5293e-07 1.571e-06 -2.28119e-06
6.28765e-07 3.14848e-07 -2.1506e-06
5.04665e-07 -3.52855e-08 3.63786e-07
-1.59724e-10 2.68731e-09 1.03829e-08
1.16447e-07 1.44649e-06 1.15946e-06
2.50753e-07 -2.36071e-07 -6.15662e-07
0.0 0.0 -1.43822e-06
-3.11241e-07 -1.38116e-08 5.25433e-08
2.19219e-06 -3.37158e-07 -8.26735e-07
4.9063e-07 -3.31794e-07 1.00436e-07
6.20318e-10 -3.36299e-07 -7.32214e-07
2.84509e-06 3.30533e-06 -5.64049e-06
-9.14977e-06 1.32402e-05 9.48709e-06
-3.87144e-07 -6.87553e-07 -1.56567e-07
2.82579e-06 3.87208e-07 1.0051e-06
0.0 0.0 -1.43822e-06
1.20978e-06 1.41421e-06 6.87416e-06
-6.20286e-08 -1.64466e-07 4.49253e-07
1.16239e-13 -4.02897e-09 -1.64807e-08
0.0 0.0 -1.43822e-06
-3.39722e-09 1.44576e-09 1.48727e-08
1.44766e-07 1.96314e-07 -2.14525e-07
3.55242e-07 1.48072e-07 9.00352e-07
-6.68612e-07 2.99707e-07 4.68853e-07
2.38424e-05 -3.33129e-05 1.14424e-05
0.0 0.0 -1.43822e-06
-2.20863e-06 -3.58014e-07 -9.80377e-07
0.0 0.0 -1.43822e-06
-5.18469e-07 -1.29716e-08 -1.57315e-06
0.0 0.0 -1.43822e-06
-3.15625e-06 4.77588e-06 -7.22226e-06
0.0 0.0 -1.43822e-06
-7.68561e-08 -5.54165e-08 -3.80148e-08
0.0 0.0 -1.43822e-06
5.23674e-09 -7.08255e-09 7.71793e-09
-4.87739e-08 8.3707e-08 2.76611e-07
-9.87343e-07 2.48187e-07 -1.02777e-06
-8.00108e-07 1.67468e-06 -1.45353e-06
0.0 0.0 -1.43822e-06
0.0 0.0 -1.43822e-06
-6.7504e-08 -8.41899e-08 -3.12065e-08
0.0 0.0 -1.43822e-06
2.57971e-06 -1.7781e-05 -1.23884e-05
2.2462e-06 8.82815e-06 -6.77023e-06
2.57693e-07 -4.10354e-08 -3.81295e-07
-5.53992e-07 -7.87972e-06 6.48902e-07
0.0 0.0 -1.43822e-06
0.0 0.0 -1.43822e-06
0.0 0.0 -1.43822e-06
-2.00327e-07 3.28942e-07 -7.56474e-07
6.00719e-08 -2.91894e-07 -1.69262e-08
-1.51086e-06 -5.19584e-06 -8.07778e-07
5.39849e-05 -1.34913e-05 -3.01864e-05
2.22661e-06 4.53159e-07 1.03697e-07
-2.66503e-07 2.35074e-07 6.06499e-08
0.0 0.0 -1.43822e-06
0.0 0.0 -1.43822e-06
-5.5161e-09 -2.69235e-10 -7.38731e-08
-3.41617e-07 1.05044e-07 5.0607e-08
0.0 0.0 -1.43822e-06
-4.58045e-07 -3.57962e-07 -2.29752e-07
-1.22112e-05 -3.16865e-05 -5.98462e-05
-4.12164e-07 -6.51712e-07 -4.51935e-08
0.0 0.0 -1.43822e-06
-6.6511e-06 6.29971e-06 -1.50097e-06
-1.00042e-06 -1.83337e-05 1.20603e-05
1.10138e-07 -5.61104e-07 2.13361e-06
1.34368e-07 2.82878e-07 -7.02098e-07
3.43756e-07 -7.45496e-07 4.83819e-07
-7.2075e-07 -8.1435e-07 2.89322e-06
-5.42689e-07 2.905e-07 -1.15496e-06
-2.49559e-06 -1.99899e-06 8.8029e-07
0.0 0.0 -1.43822e-06
4.95302e-06 -6.71441e-07 1.24654e-05
-7.81257e-07 2.39233e-06 4.44419e-06
1.41316e-06 1.02631e-07 -2.88613e-06
0.0 0.0 -1.43822e-06
-1.67517e-06 -4.73326e-06 4.29229e-06
0.0 0.0 -1.43822e-06
7.77319e-07 -1.01016e-06 9.89934e-08