# vtk DataFile Version 3.0
LIGGGHTS particles timestep 11800000
ASCII
DATASET POLYDATA
POINTS 108 float
0.0248948 0.0190745 0.0167509
0.0242441 0.0223759 0.0155759
0.0332116 0.0194532 0.0157945
0.0343873 0.0151308 0.0132047
0.0436892 0.020408 0.00596775
0.0224398 0.0150504 0.0134581
0.0180722 0.0238536 0.0136728
0.08261 0.0191091 0.00590955
0.0196898 0.0233411 0.0108357
0.0190311 0.0140017 0.0129674
0.0233222 0.023132 0.0148202
0.0240831 0.0179843 0.00735339
0.0450541 0.0174935 0.00619215
0.033556 0.0177463 0.0155675
0.0257468 0.023391 0.0113952
0.019773 0.02343 0.0116433
0.0279623 0.0163661 0.014822
0.0311278 0.0224062 0.00878836
0.0301895 0.0184385 0.00723497
0.0360155 0.0178048 0.00735025
0.0324546 0.022455 0.0141378
0.0238097 0.0155906 0.0147732
0.0307909 0.0211063 0.00768734
0.0367687 0.0210389 0.00777053
0.0319434 0.0233196 0.0122544
0.026036 0.0232505 0.012614
0.019995 0.0231205 0.0100739
0.014501 0.0225555 0.0142578
0.032971 0.0204151 0.0154814
0.0305326 0.0201539 0.00736659
0.0184919 0.014351 0.0137336
0.0339562 0.016432 0.0148958
0.0245673 0.0215892 0.0161018
0.0217112 0.0143609 0.0139592
0.0268769 0.0208858 0.0154169
0.0326595 0.0215514 0.0149485
0.0357022 0.0166705 0.00789266
0.0207839 0.0238301 0.0148033
0.0209791 0.0228819 0.0138712
0.0233689 0.0153847 0.00919033
0.0341054 0.0157462 0.0142731
0.0270827 0.0201552 0.0156462
0.0225725 0.0180617 0.0159843
0.0184164 0.014611 0.0119604
0.0213427 0.0182187 0.016607
0.021669 0.0176641 0.0158416
0.0181098 0.0149501 0.0144371
0.0317589 0.0233712 0.0112993
0.0165615 0.0238725 0.0138215
0.0286258 0.0183498 0.00592583
0.0321753 0.0230407 0.0131644
0.0204346 0.014478 0.0140842
0.0227283 0.0194511 0.0159414
0.0211626 0.0235215 0.0130216
0.0218542 0.0187589 0.0159389
0.0354888 0.0158027 0.0086436
0.0221198 0.0232386 0.0130302
0.0170627 0.0143651 0.0129277
0.0350476 0.0149437 0.0103169
0.018751 0.0209767 0.00764086
0.0259912 0.0233113 0.0106349
0.0212557 0.0195599 0.0159244
0.0201811 0.023555 0.0140546
0.0161009 0.0159551 0.014688
0.0205546 0.0234597 0.0116551
0.0175707 0.0139626 0.0136891
0.0186437 0.0153323 0.0151912
0.0233581 0.0186743 0.0159362
0.0152926 0.0228909 0.0137473
0.0474618 0.0192773 0.00593797
0.02266 0.0235337 0.0141872
0.0284252 0.0151343 0.0129712
0.0209727 0.0141087 0.0133266
0.0232167 0.0153749 0.0139975
0.0216477 0.0222515 0.0145838
0.044179 0.0167154 0.00630741
0.0235253 0.0159781 0.00847398
0.0290478 0.0149333 0.0103874
0.0297991 0.0169433 0.00771468
0.0173296 0.0153472 0.013954
0.0585019 0.0190661 0.00583452
0.0266949 0.0215389 0.0149262
0.0194902 0.0143146 0.0137988
0.0172574 0.0240344 0.0131222
0.0307283 0.0166516 0.00660365
0.0287611 0.0147438 0.0115132
0.02735 0.0185759 0.0158163
0.0200301 0.0140286 0.0130024
0.0277341 0.0172097 0.0153206
0.0242602 0.0201274 0.00583803
0.0173898 0.0146228 0.0120187
0.0204522 0.0186508 0.016749
0.0212864 0.023416 0.0120374
0.0232698 0.0221899 0.0157028
0.0226291 0.0145712 0.0143151
0.0193122 0.0148547 0.0146213
0.0171007 0.0159703 0.0147018
0.0191647 0.022351 0.00887806
0.0314887 0.0231165 0.00997964
0.0206163 0.0242389 0.01349
0.0294523 0.0156524 0.00888882
0.02927 0.0152331 0.0095421
0.0157718 0.0235405 0.0143373
0.03293 0.0193179 0.00575787
0.0202108 0.0232254 0.0130349
0.0197722 0.0241184 0.012967
0.0163352 0.0152878 0.0138672
0.0187103 0.0241101 0.012947

VERTICES 108 216
1 0
1 1
1 2
1 3
1 4
1 5
1 6
1 7
1 8
1 9
1 10
1 11
1 12
1 13
1 14
1 15
1 16
1 17
1 18
1 19
1 20
1 21
1 22
1 23
1 24
1 25
1 26
1 27
1 28
1 29
1 30
1 31
1 32
1 33
1 34
1 35
1 36
1 37
1 38
1 39
1 40
1 41
1 42
1 43
1 44
1 45
1 46
1 47
1 48
1 49
1 50
1 51
1 52
1 53
1 54
1 55
1 56
1 57
1 58
1 59
1 60
1 61
1 62
1 63
1 64
1 65
1 66
1 67
1 68
1 69
1 70
1 71
1 72
1 73
1 74
1 75
1 76
1 77
1 78
1 79
1 80
1 81
1 82
1 83
1 84
1 85
1 86
1 87
1 88
1 89
1 90
1 91
1 92
1 93
1 94
1 95
1 96
1 97
1 98
1 99
1 100
1 101
1 102
1 103
1 104
1 105
1 106
1 107

POINT_DATA 108
SCALARS id int 1
LOOKUP_TABLE default
1
2
3
8
9
14
17
18
19
20
26
28
32
34
38
40
46
48
54
56
59
64
65
66
68
70
74
82
83
86
88
89
90
91
93
96
100
101
106
107
108
109
110
112
113
117
121
124
125
126
127
129
132
134
137
142
143
146
149
159
160
161
163
165
171
174
178
180
182
187
189
193
194
195
198
201
209
213
215
216
221
223
226
227
229
240
242
243
245
246
256
257
258
268
269
270
273
274
277
279
280
281
283
291
293
296
297
298

SCALARS type int 1
LOOKUP_TABLE default
1
1
1
1
1
1
1
1
1
1
1
1
1
1
1
1
1
1
1
1
1
1
1
1
1
1
1
1
1
1
1
1
1
1
1
1
1
1
1
1
1
1
1
1
1
1
1
1
1
1
1
1
1
1
1
1
1
1
1
1
1
1
1
1
1
1
1
1
1
1
1
1
1
1
1
1
1
1
1
1
1
1
1
1
1
1
1
1
1
1
1
1
1
1
1
1
1
1
1
1
1
1
1
1
1
1
1
1

SCALARS radius float 1
LOOKUP_TABLE default
0.0005
0.0005
0.0005
0.0005
0.0005
0.0005
0.0005
0.0005
0.0005
0.0005
0.0005
0.0005
0.0005
0.0005
0.0005
0.0005
0.0005
0.0005
0.0005
0.0005
0.0005
0.0005
0.0005
0.0005
0.0005
0.0005
0.0005
0.0005
0.0005
0.0005
0.0005
0.0005
0.0005
0.0005
0.0005
0.0005
0.0005
0.0005
0.0005
0.0005
0.0005
0.0005
0.0005
0.0005
0.0005
0.0005
0.0005
0.0005
0.0005
0.0005
0.0005
0.0005
0.0005
0.0005
0.0005
0.0005
0.0005
0.0005
0.0005
0.0005
0.0005
0.0005
0.0005
0.0005
0.0005
0.0005
0.0005
0.0005
0.0005
0.0005
0.0005
0.0005
0.0005
0.0005
0.0005
0.0005
0.0005
0.0005
0.0005
0.0005
0.0005
0.0005
0.0005
0.0005
0.0005
0.0005
0.0005
0.0005
0.0005
0.0005
0.0005
0.0005
0.0005
0.0005
0.0005
0.0005
0.0005
0.0005
0.0005
0.0005
0.0005
0.0005
0.0005
0.0005
0.0005
0.0005
0.0005
0.0005

SCALARS mass float 1
LOOKUP_TABLE default
1.46608e-07
1.46608e-07
1.46608e-07
1.46608e-07
1.46608e-07
1.46608e-07
1.46608e-07
1.46608e-07
1.46608e-07
1.46608e-07
1.46608e-07
1.46608e-07
1.46608e-07
1.46608e-07
1.46608e-07
1.46608e-07
1.46608e-07
1.46608e-07
1.46608e-07
1.46608e-07
1.46608e-07
1.46608e-07
1.46608e-07
1.46608e-07
1.46608e-07
1.46608e-07
1.46608e-07
1.46608e-07
1.46608e-07
1.46608e-07
1.46608e-07
1.46608e-07
1.46608e-07
1.46608e-07
1.46608e-07
1.46608e-07
1.46608e-07
1.46608e-07
1.46608e-07
1.46608e-07
1.46608e-07
1.46608e-07
1.46608e-07
1.46608e-07
1.46608e-07
1.46608e-07
1.46608e-07
1.46608e-07
1.46608e-07
1.46608e-07
1.46608e-07
1.46608e-07
1.46608e-07
1.46608e-07
1.46608e-07
1.46608e-07
1.46608e-07
1.46608e-07
1.46608e-07
1.46608e-07
1.46608e-07
1.46608e-07
1.46608e-07
1.46608e-07
1.46608e-07
1.46608e-07
1.46608e-07
1.46608e-07
1.46608e-07
1.46608e-07
1.46608e-07
1.46608e-07
1.46608e-07
1.46608e-07
1.46608e-07
1.46608e-07
1.46608e-07
1.46608e-07
1.46608e-07
1.46608e-07
1.46608e-07
1.46608e-07
1.46608e-07
1.46608e-07
1.46608e-07
1.46608e-07
1.46608e-07
1.46608e-07
1.46608e-07
1.46608e-07
1.46608e-07
1.46608e-07
1.46608e-07
1.46608e-07
1.46608e-07
1.46608e-07
1.46608e-07
1.46608e-07
1.46608e-07
1.46608e-07
1.46608e-07
1.46608e-07
1.46608e-07
1.46608e-07
1.46608e-07
1.46608e-07
1.46608e-07
1.46608e-07

VECTORS velocity float
1.49509e-09 0.0247099 5.49214e-06
-0.00790921 0.00679473 -0.00597752
0.00226919 0.00498538 0.00102083
0.000246215 0.00847042 0.0191606
2.40361e-15 -2.04485e-14 6.4884e-14
0.00399536 0.00314352 0.00376745
-1.11003e-05 -1.8664e-05 9.09561e-05
-1.804e-14 -5.05906e-14 2.16919e-13
0.00089464 -0.00275002 -0.0146946
0.00020285 0.0016744 -0.0028027
-0.00810977 0.00806803 -0.0106686
0.000148248 -0.0215057 0.0047439
-3.13561e-15 -1.74642e-14 -1.20236e-13
0.0001211 0.0203424 0.00676364
0.000235299 0.000289022 -0.0213586
0.000709212 -0.00153727 -0.0153643
0.000300357 0.0161622 0.01227
-8.42574e-05 -0.0130399 -0.0155701
0.00110382 -0.0179561 0.00312737
0.000911915 -0.018199 0.00562311
0.000826205 0.0112484 -0.0152275
0.00414154 0.00320364 0.00343704
0.00130722 -0.0139658 -0.00566583
0.00166005 -0.0155323 -0.00729229
0.00122319 0.00466993 -0.0170701
0.00114755 0.00480079 -0.018517
0.000527984 -0.00698042 -0.0166495
0.00238905 0.00232149 -0.00112881
0.000271687 0.0192562 -0.00723168
0.00025309 -0.0199905 -0.00512921
4.09737e-05 0.00180984 -0.00284613
0.000629393 0.0157829 0.0118136
-0.000543764 0.00955958 -0.00636838
0.00539136 -0.00704899 -0.00599646
0.00204459 0.0142561 -0.00648186
9.37392e-05 0.0189704 -0.0120996
0.000328642 -0.0184824 0.0113235
0.0165886 0.00447424 -0.00727147
-0.0283617 -0.000519634 -0.00715444
0.000191185 -0.0110118 0.0167795
0.000261871 0.0130343 0.0184059
0.00131327 0.0178449 -0.004638
0.000476778 0.0223546 0.00450578
0.0070425 -0.00192613 0.00194107
-8.31691e-05 0.0267847 0.00440658
1.37259e-05 0.0221098 0.00787238
0.00382552 0.000357716 0.000580486
0.000113385 -0.000514443 -0.0217379
0.000290042 0.000377307 0.000255206
-1.94461e-14 1.84064e-16 -2.28118e-13
0.00023085 0.00918135 -0.0195066
0.000455059 0.000817568 -0.00210257
-0.000656938 0.0221702 -0.00198352
0.00430829 0.000883353 -2.15934e-05
8.26745e-05 0.0230467 0.00151751
0.000168108 -0.0130927 0.0156626
0.00493923 -0.00111233 0.00335136
-3.34426e-05 -0.000956299 0.00260539
0.000623434 -0.00474728 0.0190582
0.000392376 -0.0184144 -0.00869204
0.00150115 -0.00534545 -0.02013
2.00136e-05 0.0229166 -0.00262872
0.00405215 0.00146354 0.00353503
0.00592357 -0.0026745 -0.00310743
0.0001854 -0.000985459 -0.00932809
0.00151936 -0.000944303 0.00157169
0.00449568 -4.20358e-05 0.0001667
6.08027e-05 0.0227457 0.00194053
0.00187662 5.17745e-05 -0.00156821
4.65803e-15 -1.02518e-14 -1.05704e-13
-0.0107966 0.000646115 -0.0111449
-0.000242856 0.00753629 0.0183516
0.000382774 0.0012605 -0.00228747
0.00409426 0.00293984 0.0035936
0.0139029 -0.0010275 6.46822e-05
2.02057e-15 -5.81037e-15 -3.18933e-14
0.000771661 -0.00899033 0.0103128
-6.8778e-05 -0.00681467 0.0206102
0.000465559 -0.0171323 0.00840439
0.00272246 0.00315485 0.00489147
1.13082e-14 -2.34716e-14 -2.88773e-13
0.00114273 0.0136708 -0.0114885
0.000847482 0.00120189 -0.0029621
2.41878e-05 -0.000124578 2.14773e-06
9.43271e-15 -3.21628e-14 -7.90087e-14
0.00286341 -0.00188236 -0.00202091
0.000432462 0.0192712 0.00224778
0.000279028 0.000761452 -0.0016103
7.71939e-05 0.0199885 0.0105209
-1.07572e-14 -1.7329e-15 1.75368e-13
0.000976562 -0.00129614 0.00287841
-0.00104445 0.0255918 0.00192976
-0.0013643 0.00042766 -0.0011901
-0.0117643 0.0206843 -0.0152217
0.00484956 0.00130091 0.00254699
0.00270445 0.000244818 -0.00186633
0.00571991 0.00503718 0.00437468
0.00118928 -0.012257 -0.0155733
0.000301489 -0.00729319 -0.0201881
0.00018655 0.00053025 0.000467046
0.00082854 -0.010776 0.013472
0.00092704 -0.00760297 0.01698
0.000184144 3.51072e-05 -7.70899e-05
-8.27257e-15 -4.74532e-14 1.83895e-13
0.00293528 0.00146318 -0.00947497
0.00238698 0.000293084 -0.0010651
0.00170612 0.00817936 0.0131358
2.64066e-05 -0.000329161 7.14805e-05

VECTORS force float
3.12534e-15 1.01562e-10 -1.68499e-08
2.67849e-09 -2.52067e-09 -8.34394e-11
1.3306e-07 -1.13377e-06 3.72881e-07
-1.46983e-09 1.2205e-08 1.28096e-09
-2.62713e-21 -1.58819e-22 0.0
-6.14189e-09 1.39153e-08 5.35537e-08
-3.79228e-08 -1.28129e-07 9.91491e-08
-2.24781e-19 5.41572e-20 -1.27055e-21
-1.54522e-08 4.12707e-07 5.05209e-07
-6.6474e-08 1.20846e-07 4.52178e-08
3.20893e-07 9.70669e-07 -1.17412e-06
-6.28282e-10 -2.29592e-09 1.27865e-08
1.58885e-20 -1.03232e-21 -4.23516e-22
-4.86806e-10 7.99933e-09 -8.81475e-09
-1.78906e-09 -1.12496e-08 -8.24448e-09
4.09123e-07 -1.41747e-06 -9.5934e-07
-1.21419e-09 1.24647e-08 -3.64552e-09
-5.46022e-09 -1.56841e-08 -9.6369e-09
-1.10262e-08 -3.0202e-08 1.43518e-08
-5.47332e-10 4.15945e-09 1.24531e-08
-7.00405e-09 3.60851e-09 -2.30498e-08
2.45089e-08 -3.09738e-08 6.01685e-08
1.24345e-09 -1.00524e-07 -8.06663e-09
-5.28345e-09 -1.86294e-08 3.26092e-09
-1.49073e-06 2.01993e-07 1.24986e-07
2.60793e-07 1.96004e-06 -4.08133e-07
-2.42015e-07 -4.52698e-09 5.49979e-08
6.16189e-06 1.9616e-06 -4.10039e-06
-2.51153e-09 3.57394e-09 -1.1703e-08
-1.92489e-09 -9.41956e-09 8.32865e-09
-1.00303e-07 5.96332e-08 2.37644e-07
-8.30839e-09 -5.95238e-08 -5.65092e-09
1.26065e-08 1.20485e-08 -2.04569e-09
-9.18982e-08 2.20726e-06 -1.43729e-06
-4.01425e-09 -9.45961e-09 1.91505e-08
4.15033e-10 -4.59137e-09 -1.14229e-08
1.36902e-09 2.93925e-09 1.16067e-08
3.13724e-06 1.28529e-07 6.50973e-06
0.0 0.0 -1.43822e-06
2.13205e-09 4.10319e-09 1.48523e-08
-1.54139e-09 5.43194e-09 -1.19079e-08
-1.38638e-08 1.58909e-08 -6.46491e-09
2.45192e-08 -4.845e-08 -5.33564e-08
0.0 0.0 -1.43822e-06
1.02927e-08 8.11696e-09 -3.87963e-08
6.40319e-09 2.54321e-09 -5.72867e-08
-5.82726e-07 3.58393e-07 1.97425e-07
2.89167e-07 -1.53013e-07 -2.2191e-06
2.15573e-07 7.67247e-08 3.66818e-07
0.0 -7.6781e-21 2.11758e-22
-6.41746e-08 1.78355e-07 -5.71127e-07
-3.27548e-07 3.1772e-07 6.35739e-07
8.39837e-09 -3.89544e-08 9.39514e-09
-5.48258e-07 2.53422e-06 2.38579e-06
1.09492e-09 2.79565e-08 -2.35288e-08
-1.0909e-09 2.02317e-09 1.37187e-08
-1.38628e-06 3.87344e-06 4.48425e-07
-8.92963e-09 -8.04792e-09 3.49241e-08
-4.53919e-09 6.6225e-09 1.53211e-08
-1.56466e-09 -1.1848e-08 6.47832e-09
-1.30951e-08 -9.69863e-09 -8.53309e-09
2.69635e-09 1.25729e-08 -2.05859e-08
1.46581e-07 5.65858e-07 -5.54523e-06
4.5143e-08 -1.59707e-07 -1.24568e-07
2.87882e-07 -5.81276e-07 -1.24782e-06
1.10629e-08 -1.09945e-08 2.4483e-08
-5.43625e-08 4.17903e-07 3.8994e-07
8.68746e-09 -2.44348e-08 -5.57897e-09
8.12673e-07 5.80806e-07 -4.56582e-07
1.60169e-19 1.16123e-19 -4.23516e-21
-1.76002e-08 -2.77807e-08 -1.62336e-07
-3.38058e-11 2.26353e-08 1.31553e-08
-2.11771e-07 -9.56338e-09 4.77087e-07
2.73556e-08 4.21214e-09 4.62561e-08
-2.10264e-07 7.50259e-07 -7.08145e-07
-1.19432e-19 -2.05405e-20 -4.02341e-21
2.79942e-09 -1.39102e-08 -6.47569e-09
1.02424e-09 1.10566e-08 3.88252e-09
-6.80929e-10 7.41869e-09 1.11506e-08
-3.69204e-07 -6.57739e-08 -1.32372e-07
1.65966e-20 8.65562e-21 0.0
-3.68805e-09 -2.29292e-10 -1.2709e-08
3.39901e-07 -4.27515e-08 7.35476e-08
1.74976e-07 2.78813e-08 1.23434e-07
-3.52048e-21 -7.13625e-20 3.3246e-20
1.27211e-08 2.5634e-08 -1.62656e-07
4.553e-10 6.37936e-09 -1.17649e-08
-6.23867e-08 -3.78629e-08 1.69896e-08
-1.62208e-09 9.07152e-09 -8.30541e-09
-3.44107e-22 0.0 0.0
7.9532e-09 -1.23017e-08 3.07972e-08
9.06886e-09 -2.33382e-08 -2.18911e-08
7.65522e-07 -4.69348e-08 7.63845e-07
3.77483e-08 2.35682e-08 -3.86186e-08
5.84698e-08 1.54946e-08 4.11463e-08
2.87789e-07 -2.4385e-07 5.23889e-08
-1.66622e-07 -1.59759e-07 -1.56301e-07
-2.08707e-08 -4.12926e-08 -3.57378e-08
2.51188e-06 -1.62619e-06 -8.28133e-06
-1.86729e-07 9.57467e-08 -3.43873e-06
1.13876e-09 1.33843e-08 4.88077e-10
8.7043e-09 2.08151e-08 -1.79414e-08
-8.30148e-07 7.98147e-08 1.67676e-06
5.82335e-22 0.0 0.0
2.09644e-07 5.35536e-07 -2.31177e-07
2.13503e-06 1.80232e-07 5.7845e-07
-5.32175e-08 -8.65086e-08 -2.80227e-07
1.65001e-08 7.48374e-09 8.99823e-09
