# vtk DataFile Version 3.0
LIGGGHTS particles timestep 88200000
ASCII
DATASET POLYDATA
POINTS 88 float
0.0387146 0.0187573 0.00575718
0.0515454 0.0203376 0.00592249
0.0657625 0.0198039 0.00576669
0.102543 0.017821 0.00581645
0.0387828 0.0214812 0.00622724
0.191105 0.0203026 0.00593314
0.0819644 0.018662 0.00575674
0.10448 0.0180949 0.00580371
0.0800401 0.0168845 0.00628905
0.0458896 0.0168235 0.00626774
0.0564645 0.0213699 0.00635393
0.0999771 0.0211508 0.0151975
0.136461 0.0187737 0.0058834
0.0822817 0.0172512 0.00607537
0.0652975 0.0207687 0.00603532
0.0870153 0.0206158 0.00591409
0.0792518 0.0191834 0.00582281
0.0170063 0.0201419 0.00601043
0.0643606 0.0210989 0.00615793
0.0448733 0.0164686 0.00634571
0.0803045 0.0192159 0.005743
0.0811915 0.017199 0.00615598
0.0615774 0.0172559 0.00608456
0.063441 0.0163701 0.00647495
0.0855075 0.019144 0.00579031
0.0829173 0.0222111 0.0066532
0.0357086 0.0161117 0.00660683
0.0618809 0.0199413 0.00582959
0.0845463 0.0178241 0.00589851
0.11021 0.0201465 0.00580174
0.0830136 0.0187071 0.00584947
0.0439552 0.0161318 0.00656318
0.0782305 0.0203396 0.00602091
0.0822914 0.0196163 0.00600118
0.0732237 0.018766 0.005768
0.0644815 0.0190744 0.00573853
0.0683453 0.0182317 0.00578271
0.0609817 0.0187588 0.00589337
0.0609012 0.0197493 0.00575757
0.0634974 0.0172463 0.00599641
0.0286258 0.0183498 0.00592583
0.0888729 0.0199317 0.00596406
0.0601285 0.017977 0.00598674
0.0626638 0.0179373 0.00595165
0.0644862 0.0176438 0.00589539
0.0238948 0.0168123 0.00667048
0.042543 0.0198089 0.00582143
0.0388539 0.0197419 0.00587248
0.0766607 0.0190533 0.00580856
0.0779381 0.019417 0.00576935
0.0620021 0.0189487 0.00583492
0.0424897 0.0188104 0.00581963
0.0920805 0.0205253 0.0059177
0.0861542 0.0174987 0.00841998
0.0557406 0.0175302 0.00596599
0.102423 0.0196788 0.00582979
0.0453636 0.0157749 0.00687326
0.377394 0.0175324 0.00840387
0.0505919 0.0207133 0.00592302
0.0643736 0.0166453 0.00623285
0.0440263 0.0170728 0.00623272
0.0799751 0.0180833 0.00603206
0.0810479 0.0182624 0.00591498
0.0824664 0.0205903 0.00624245
0.0595038 0.0223955 0.00675756
0.063626 0.0183177 0.00585415
0.0316007 0.0183082 0.00603438
0.0584979 0.0201946 0.00586451
0.0215463 0.0196109 0.00592744
0.0690612 0.017564 0.00598647
0.0636055 0.0197465 0.00578044
0.102337 0.0152741 0.0097309
0.0242602 0.0201274 0.00583803
0.0855519 0.0193977 0.00731496
0.0567438 0.01754 0.00591345
0.061759 0.0163729 0.00651709
0.0504712 0.0179279 0.00611076
0.0371638 0.0187263 0.00573865
0.0328558 0.0191954 0.00572294
0.044465 0.0204317 0.00594645
0.0625324 0.0169121 0.00611939
0.066033 0.0188309 0.00577203
0.0833983 0.0210192 0.00634375
0.0634714 0.0175093 0.00841532
0.0350698 0.0188001 0.00572051
0.0623373 0.0157218 0.00700852
0.0667607 0.0199247 0.00579031
0.0801544 0.0202323 0.00596714

VERTICES 88 176
1 0
1 1
1 2
1 3
1 4
1 5
1 6
1 7
1 8
1 9
1 10
1 11
1 12
1 13
1 14
1 15
1 16
1 17
1 18
1 19
1 20
1 21
1 22
1 23
1 24
1 25
1 26
1 27
1 28
1 29
1 30
1 31
1 32
1 33
1 34
1 35
1 36
1 37
1 38
1 39
1 40
1 41
1 42
1 43
1 44
1 45
1 46
1 47
1 48
1 49
1 50
1 51
1 52
1 53
1 54
1 55
1 56
1 57
1 58
1 59
1 60
1 61
1 62
1 63
1 64
1 65
1 66
1 67
1 68
1 69
1 70
1 71
1 72
1 73
1 74
1 75
1 76
1 77
1 78
1 79
1 80
1 81
1 82
1 83
1 84
1 85
1 86
1 87

POINT_DATA 88
SCALARS id int 1
LOOKUP_TABLE default
1
2
3
8
9
14
18
26
28
32
34
38
46
48
54
56
59
64
65
66
68
70
74
82
83
86
88
89
90
93
100
106
107
108
109
112
113
121
124
125
126
127
129
132
134
137
142
146
149
159
160
163
165
174
182
187
189
193
195
198
201
209
213
215
221
223
226
227
229
240
242
245
246
256
257
258
270
273
274
277
279
280
281
283
291
293
296
298

SCALARS type int 1
LOOKUP_TABLE default
1
1
1
1
1
1
1
1
1
1
1
1
1
1
1
1
1
1
1
1
1
1
1
1
1
1
1
1
1
1
1
1
1
1
1
1
1
1
1
1
1
1
1
1
1
1
1
1
1
1
1
1
1
1
1
1
1
1
1
1
1
1
1
1
1
1
1
1
1
1
1
1
1
1
1
1
1
1
1
1
1
1
1
1
1
1
1
1

SCALARS radius float 1
LOOKUP_TABLE default
0.0005
0.0005
0.0005
0.0005
0.0005
0.0005
0.0005
0.0005
0.0005
0.0005
0.0005
0.0005
0.0005
0.0005
0.0005
0.0005
0.0005
0.0005
0.0005
0.0005
0.0005
0.0005
0.0005
0.0005
0.0005
0.0005
0.0005
0.0005
0.0005
0.0005
0.0005
0.0005
0.0005
0.0005
0.0005
0.0005
0.0005
0.0005
0.0005
0.0005
0.0005
0.0005
0.0005
0.0005
0.0005
0.0005
0.0005
0.0005
0.0005
0.0005
0.0005
0.0005
0.0005
0.0005
0.0005
0.0005
0.0005
0.0005
0.0005
0.0005
0.0005
0.0005
0.0005
0.0005
0.0005
0.0005
0.0005
0.0005
0.0005
0.0005
0.0005
0.0005
0.0005
0.0005
0.0005
0.0005
0.0005
0.0005
0.0005
0.0005
0.0005
0.0005
0.0005
0.0005
0.0005
0.0005
0.0005
0.0005

SCALARS mass float 1
LOOKUP_TABLE default
1.46608e-07
1.46608e-07
1.46608e-07
1.46608e-07
1.46608e-07
1.46608e-07
1.46608e-07
1.46608e-07
1.46608e-07
1.46608e-07
1.46608e-07
1.46608e-07
1.46608e-07
1.46608e-07
1.46608e-07
1.46608e-07
1.46608e-07
1.46608e-07
1.46608e-07
1.46608e-07
1.46608e-07
1.46608e-07
1.46608e-07
1.46608e-07
1.46608e-07
1.46608e-07
1.46608e-07
1.46608e-07
1.46608e-07
1.46608e-07
1.46608e-07
1.46608e-07
1.46608e-07
1.46608e-07
1.46608e-07
1.46608e-07
1.46608e-07
1.46608e-07
1.46608e-07
1.46608e-07
1.46608e-07
1.46608e-07
1.46608e-07
1.46608e-07
1.46608e-07
1.46608e-07
1.46608e-07
1.46608e-07
1.46608e-07
1.46608e-07
1.46608e-07
1.46608e-07
1.46608e-07
1.46608e-07
1.46608e-07
1.46608e-07
1.46608e-07
1.46608e-07
1.46608e-07
1.46608e-07
1.46608e-07
1.46608e-07
1.46608e-07
1.46608e-07
1.46608e-07
1.46608e-07
1.46608e-07
1.46608e-07
1.46608e-07
1.46608e-07
1.46608e-07
1.46608e-07
1.46608e-07
1.46608e-07
1.46608e-07
1.46608e-07
1.46608e-07
1.46608e-07
1.46608e-07
1.46608e-07
1.46608e-07
1.46608e-07
1.46608e-07
1.46608e-07
1.46608e-07
1.46608e-07
1.46608e-07
1.46608e-07

VECTORS velocity float
-8.67002e-15 7.85638e-14 2.00899e-13
1.06248e-14 2.65569e-14 3.50781e-13
-1.39627e-15 3.97328e-14 -1.45083e-13
-9.78557e-16 -4.35255e-15 -1.20042e-13
-2.73396e-19 1.05848e-18 -5.69892e-18
-1.12287e-14 -4.37998e-14 9.73363e-14
1.34878e-14 4.563e-14 1.93311e-13
1.49827e-14 2.23679e-14 -1.76075e-13
-1.13558e-15 -7.29171e-15 -3.41144e-14
-4.52793e-15 -2.5297e-14 -1.74151e-13
-8.71892e-16 -1.50214e-14 3.21072e-14
0.000332988 0.0174612 -0.0107664
2.099e-15 3.11131e-15 -2.90487e-14
6.63639e-16 3.61518e-14 1.18632e-13
-1.12524e-15 3.25656e-14 -1.18914e-13
3.22058e-15 5.90039e-15 -3.89485e-14
6.34114e-15 2.15264e-14 9.1093e-14
1.30267e-14 5.25238e-15 -1.07337e-13
9.85075e-15 -6.28948e-14 2.05619e-13
-2.65636e-17 -1.41445e-16 -9.78902e-16
-9.52818e-15 -2.67153e-14 1.14756e-13
4.51271e-15 1.5277e-14 6.47201e-14
-7.47695e-16 -3.30598e-15 -2.36577e-14
5.22925e-16 7.49812e-15 9.60106e-15
-2.80424e-15 1.60116e-14 -2.15085e-13
2.53277e-15 -1.23268e-14 5.62303e-14
-4.51501e-15 2.81882e-14 7.49151e-14
-3.41353e-16 -4.72734e-15 1.30957e-14
-1.70373e-15 5.08501e-14 1.75601e-13
8.88744e-16 6.44473e-15 -3.33561e-14
-9.52795e-15 -2.67155e-14 1.14756e-13
1.95876e-16 -2.75149e-15 -2.89951e-15
2.91931e-15 8.07086e-15 -1.51045e-14
7.16706e-15 2.00954e-14 -8.63169e-14
1.04104e-14 -5.92002e-14 -1.63384e-13
7.97976e-16 -3.78212e-15 -6.44673e-14
7.82575e-18 1.40393e-17 5.06786e-16
-4.35094e-15 -1.94155e-14 -1.3904e-13
-5.19423e-15 -2.31833e-14 -1.66017e-13
6.54841e-16 1.61828e-15 1.27792e-14
-1.94459e-14 1.84628e-16 -2.28119e-13
-1.2262e-15 -2.22001e-15 1.47224e-14
-1.08232e-14 2.2611e-14 2.78398e-13
-7.36439e-15 -1.81923e-14 -1.43647e-13
-5.97967e-15 -1.47719e-14 -1.16641e-13
-1.55864e-14 -3.19695e-14 -1.04791e-13
-7.69794e-17 6.58086e-16 -2.08322e-15
-2.83137e-15 1.34608e-14 -6.65669e-14
-9.17662e-15 5.49347e-14 2.11159e-13
7.90924e-16 -4.76944e-15 -1.83069e-14
4.08e-16 1.8312e-15 1.30785e-14
1.30814e-16 -3.79939e-16 -2.08166e-15
-7.84785e-15 -7.28946e-14 1.85342e-13
-2.21815e-05 -0.00120681 0.00117909
-5.32848e-15 -7.75312e-15 -1.08978e-13
1.52301e-15 2.27277e-15 -1.78431e-14
2.74086e-17 -5.64874e-16 -6.89666e-16
2.99229e-05 -0.00196824 0.00129259
6.74644e-15 1.89381e-14 2.6288e-13
-9.28315e-16 8.92618e-14 2.24983e-13
2.29648e-16 -6.6397e-16 -3.64325e-15
1.34781e-14 4.56297e-14 1.93312e-13
1.06466e-15 3.60227e-15 1.52616e-14
-1.04168e-15 -2.92748e-15 1.25717e-14
1.78809e-16 -1.68307e-15 4.05505e-15
-7.3643e-15 -1.81923e-14 -1.43647e-13
1.31543e-14 -4.4728e-14 -1.10009e-13
3.22874e-16 4.87949e-15 -1.04428e-14
-1.81494e-14 8.13651e-15 -1.66091e-13
-1.68187e-17 1.76947e-16 4.66257e-16
6.28704e-15 -4.01374e-14 1.31216e-13
0.000592558 -0.00545451 0.016747
-1.07572e-14 -1.73293e-15 1.75368e-13
-0.000132039 -0.0218066 -0.00392961
-9.84269e-15 -1.33717e-14 -1.90504e-13
1.15492e-15 -1.31869e-14 -1.88163e-14
-3.69904e-15 -1.32326e-14 -1.98725e-13
3.92777e-15 -1.81233e-14 8.99563e-14
8.90401e-16 5.06752e-15 -1.9634e-14
-3.06534e-15 2.53172e-14 -8.03071e-14
-3.8245e-16 3.7049e-14 9.33837e-14
2.17321e-15 -1.03783e-14 -1.76838e-13
2.36841e-14 -4.0253e-14 1.90901e-13
-0.000377264 -0.000798636 -0.000329827
-7.1097e-15 -4.06703e-14 1.57633e-13
1.12076e-15 -1.3204e-14 -1.88118e-14
-4.02114e-16 1.19611e-14 -4.36766e-14
-1.80095e-14 -5.05044e-14 2.16941e-13

VECTORS force float
2.958e-21 3.17637e-21 -6.35275e-22
-8.77407e-20 -5.10867e-21 1.48231e-21
-4.08875e-20 0.0 2.11758e-22
9.87654e-22 -1.32349e-23 0.0
-2.06795e-23 1.32349e-23 0.0
8.47033e-22 -2.5411e-21 -1.05879e-21
-1.53525e-21 -4.65868e-21 1.27055e-21
1.32349e-21 9.55559e-21 -2.11758e-22
9.26442e-23 0.0 0.0
-2.6536e-21 7.67624e-22 -2.11758e-22
8.58283e-20 -4.12929e-21 6.35275e-22
-1.44328e-09 -1.4573e-09 -1.09999e-08
6.4176e-20 9.86793e-20 1.58819e-20
2.43439e-21 0.0 -2.11758e-22
-2.57088e-21 3.70577e-22 2.11758e-22
0.0 2.64698e-23 0.0
3.33122e-20 4.60045e-20 -1.16467e-20
8.67679e-20 -3.40666e-20 9.31736e-21
2.38228e-22 1.05879e-22 -2.11758e-22
-3.17637e-22 0.0 2.11758e-22
3.97047e-23 0.0 0.0
-9.26442e-22 0.0 0.0
-1.05879e-22 -4.23516e-22 0.0
2.64698e-23 0.0 0.0
-9.5953e-23 -2.64698e-23 0.0
-9.92617e-21 -7.94093e-22 2.11758e-22
-3.31402e-20 -2.89579e-20 9.1056e-21
3.30872e-24 1.32349e-22 0.0
-6.34117e-21 -1.05879e-22 -2.11758e-22
2.46103e-20 -1.00585e-21 8.47033e-22
0.0 0.0 0.0
-4.23516e-22 0.0 0.0
-1.05879e-22 -1.05879e-22 0.0
3.25578e-21 0.0 2.11758e-22
5.05043e-20 1.29173e-20 1.48231e-21
0.0 0.0 0.0
-2.64698e-23 0.0 0.0
-1.972e-21 7.94093e-23 0.0
0.0 0.0 0.0
6.61744e-24 0.0 0.0
1.58819e-22 2.49438e-20 2.11758e-22
3.09035e-20 -1.60142e-20 0.0
3.14329e-21 -1.46378e-20 2.75286e-21
-5.691e-22 1.58819e-22 0.0
-1.19114e-22 7.94093e-23 0.0
-1.42937e-21 -1.48231e-21 6.35275e-22
1.98523e-23 0.0 2.11758e-22
1.46775e-20 2.11758e-21 -2.11758e-22
-1.65966e-20 -1.3129e-20 1.69407e-21
2.64698e-23 0.0 0.0
3.30872e-24 -2.64698e-23 0.0
1.32349e-23 0.0 0.0
0.0 0.0 0.0
-2.84131e-10 -2.9778e-08 1.50214e-09
5.92341e-19 -5.51988e-19 7.83505e-21
5.2966e-20 7.41154e-22 4.44692e-21
1.58819e-22 1.58819e-22 -2.11758e-22
1.47837e-11 -2.80687e-08 1.99142e-09
3.17637e-22 -2.64698e-23 0.0
5.9557e-23 -2.11758e-22 0.0
-1.32349e-22 0.0 0.0
1.22952e-20 -3.38813e-21 -2.11758e-22
-1.11173e-21 2.11758e-22 -2.11758e-22
-7.94093e-22 -6.88214e-22 -2.11758e-22
-9.52515e-20 -8.78797e-21 -8.47033e-22
-1.42937e-21 3.17637e-22 0.0
-6.0854e-20 3.4199e-20 -2.11758e-20
0.0 0.0 0.0
5.29396e-23 5.29396e-22 0.0
2.64698e-23 -2.64698e-23 0.0
-2.81903e-21 2.69992e-21 8.47033e-22
7.93136e-09 1.51867e-08 5.77841e-08
3.49401e-21 5.12852e-23 2.11758e-22
-1.70705e-09 -2.16231e-09 1.03911e-08
-1.22423e-20 6.94832e-21 2.11758e-22
5.4263e-22 1.32349e-22 -5.29396e-23
1.08857e-21 -3.17637e-22 0.0
3.63404e-19 5.29396e-21 -1.33408e-20
-1.32349e-23 0.0 0.0
-3.30991e-19 -6.05629e-20 -7.6233e-21
-3.22021e-21 0.0 -2.11758e-22
3.93804e-20 5.94247e-21 2.11758e-22
-4.15576e-21 3.17637e-21 1.05879e-21
7.27695e-09 3.5859e-08 -3.42573e-08
-1.59083e-20 -5.29396e-23 -8.47033e-22
-1.58819e-22 -1.05879e-22 0.0
-2.0529e-20 8.99973e-22 4.23516e-22
-6.60421e-21 -7.94093e-22 -6.35275e-22
