# vtk DataFile Version 3.0
LIGGGHTS particles timestep 69200000
ASCII
DATASET POLYDATA
POINTS 88 float
0.0387146 0.0187573 0.00575718
0.0515454 0.0203376 0.00592249
0.0657625 0.0198039 0.00576669
0.102543 0.017821 0.00581645
0.0387828 0.0214812 0.00622724
0.191105 0.0203026 0.00593314
0.0818976 0.0186296 0.00576906
0.10448 0.0180949 0.00580371
0.0771827 0.0226383 0.0138436
0.0458896 0.0168235 0.00626774
0.0564645 0.0213699 0.00635393
0.0825071 0.0231965 0.0108736
0.136461 0.0187737 0.0058834
0.0819829 0.0176499 0.00599436
0.0652975 0.0207687 0.00603532
0.0830166 0.0197662 0.00609629
0.0793161 0.0192087 0.00581236
0.0170063 0.0201419 0.00601043
0.0643606 0.0210989 0.00615793
0.0448733 0.0164686 0.00634571
0.080527 0.019112 0.00575077
0.0782377 0.0189123 0.0158124
0.0615774 0.0172559 0.00608456
0.063441 0.0163701 0.00647495
0.085142 0.0184899 0.00574639
0.0829173 0.0222111 0.0066532
0.0357086 0.0161117 0.00660683
0.0618809 0.0199413 0.00582959
0.0724909 0.0173913 0.0154501
0.0836923 0.0209849 0.0152848
0.0828881 0.0187784 0.00585566
0.0439552 0.0161318 0.00656318
0.0782305 0.0203396 0.00602091
0.0819591 0.0196502 0.00598149
0.0732237 0.018766 0.005768
0.0644815 0.0190744 0.00573853
0.0683453 0.0182317 0.00578271
0.0609817 0.0187588 0.00589337
0.0609012 0.0197493 0.00575757
0.0634974 0.0172463 0.00599641
0.0286258 0.0183498 0.00592583
0.0862115 0.0201056 0.00585272
0.0601285 0.017977 0.00598674
0.0626638 0.0179373 0.00595165
0.0644862 0.0176438 0.00589539
0.0238948 0.0168123 0.00667048
0.042543 0.0198089 0.00582143
0.0388539 0.0197419 0.00587248
0.0766607 0.0190533 0.00580856
0.0779381 0.019417 0.00576935
0.0620021 0.0189487 0.00583492
0.0424897 0.0188104 0.00581963
0.0920805 0.0205253 0.0059177
0.0803479 0.0174963 0.00842144
0.0557406 0.0175302 0.00596599
0.102423 0.0196788 0.00582979
0.0453636 0.0157749 0.00687326
0.377417 0.017392 0.00847476
0.0505919 0.0207133 0.00592302
0.0643736 0.0166453 0.00623285
0.0440263 0.0170728 0.00623272
0.0796379 0.0148745 0.0115821
0.0810639 0.0181072 0.00595049
0.0824647 0.0205875 0.00624167
0.0595038 0.0223955 0.00675756
0.063626 0.0183177 0.00585415
0.0316007 0.0183082 0.00603438
0.0584979 0.0201946 0.00586451
0.0215463 0.0196109 0.00592744
0.0690612 0.017564 0.00598647
0.0636055 0.0197465 0.00578044
0.0853487 0.0150358 0.0127738
0.0242602 0.0201274 0.00583803
0.0686251 0.0168211 0.00781046
0.0567438 0.01754 0.00591345
0.061759 0.0163729 0.00651709
0.0504712 0.0179279 0.00611076
0.0371638 0.0187263 0.00573865
0.0328558 0.0191954 0.00572294
0.044465 0.0204317 0.00594645
0.0625324 0.0169121 0.00611939
0.066033 0.0188309 0.00577203
0.0833983 0.0210192 0.00634375
0.0634805 0.0174762 0.00842936
0.0350698 0.0188001 0.00572051
0.0623373 0.0157218 0.00700852
0.0667607 0.0199247 0.00579031
0.0763243 0.0231083 0.0101224

VERTICES 88 176
1 0
1 1
1 2
1 3
1 4
1 5
1 6
1 7
1 8
1 9
1 10
1 11
1 12
1 13
1 14
1 15
1 16
1 17
1 18
1 19
1 20
1 21
1 22
1 23
1 24
1 25
1 26
1 27
1 28
1 29
1 30
1 31
1 32
1 33
1 34
1 35
1 36
1 37
1 38
1 39
1 40
1 41
1 42
1 43
1 44
1 45
1 46
1 47
1 48
1 49
1 50
1 51
1 52
1 53
1 54
1 55
1 56
1 57
1 58
1 59
1 60
1 61
1 62
1 63
1 64
1 65
1 66
1 67
1 68
1 69
1 70
1 71
1 72
1 73
1 74
1 75
1 76
1 77
1 78
1 79
1 80
1 81
1 82
1 83
1 84
1 85
1 86
1 87

POINT_DATA 88
SCALARS id int 1
LOOKUP_TABLE default
1
2
3
8
9
14
18
26
28
32
34
38
46
48
54
56
59
64
65
66
68
70
74
82
83
86
88
89
90
93
100
106
107
108
109
112
113
121
124
125
126
127
129
132
134
137
142
146
149
159
160
163
165
174
182
187
189
193
195
198
201
209
213
215
221
223
226
227
229
240
242
245
246
256
257
258
270
273
274
277
279
280
281
283
291
293
296
298

SCALARS type int 1
LOOKUP_TABLE default
1
1
1
1
1
1
1
1
1
1
1
1
1
1
1
1
1
1
1
1
1
1
1
1
1
1
1
1
1
1
1
1
1
1
1
1
1
1
1
1
1
1
1
1
1
1
1
1
1
1
1
1
1
1
1
1
1
1
1
1
1
1
1
1
1
1
1
1
1
1
1
1
1
1
1
1
1
1
1
1
1
1
1
1
1
1
1
1

SCALARS radius float 1
LOOKUP_TABLE default
0.0005
0.0005
0.0005
0.0005
0.0005
0.0005
0.0005
0.0005
0.0005
0.0005
0.0005
0.0005
0.0005
0.0005
0.0005
0.0005
0.0005
0.0005
0.0005
0.0005
0.0005
0.0005
0.0005
0.0005
0.0005
0.0005
0.0005
0.0005
0.0005
0.0005
0.0005
0.0005
0.0005
0.0005
0.0005
0.0005
0.0005
0.0005
0.0005
0.0005
0.0005
0.0005
0.0005
0.0005
0.0005
0.0005
0.0005
0.0005
0.0005
0.0005
0.0005
0.0005
0.0005
0.0005
0.0005
0.0005
0.0005
0.0005
0.0005
0.0005
0.0005
0.0005
0.0005
0.0005
0.0005
0.0005
0.0005
0.0005
0.0005
0.0005
0.0005
0.0005
0.0005
0.0005
0.0005
0.0005
0.0005
0.0005
0.0005
0.0005
0.0005
0.0005
0.0005
0.0005
0.0005
0.0005
0.0005
0.0005

SCALARS mass float 1
LOOKUP_TABLE default
1.46608e-07
1.46608e-07
1.46608e-07
1.46608e-07
1.46608e-07
1.46608e-07
1.46608e-07
1.46608e-07
1.46608e-07
1.46608e-07
1.46608e-07
1.46608e-07
1.46608e-07
1.46608e-07
1.46608e-07
1.46608e-07
1.46608e-07
1.46608e-07
1.46608e-07
1.46608e-07
1.46608e-07
1.46608e-07
1.46608e-07
1.46608e-07
1.46608e-07
1.46608e-07
1.46608e-07
1.46608e-07
1.46608e-07
1.46608e-07
1.46608e-07
1.46608e-07
1.46608e-07
1.46608e-07
1.46608e-07
1.46608e-07
1.46608e-07
1.46608e-07
1.46608e-07
1.46608e-07
1.46608e-07
1.46608e-07
1.46608e-07
1.46608e-07
1.46608e-07
1.46608e-07
1.46608e-07
1.46608e-07
1.46608e-07
1.46608e-07
1.46608e-07
1.46608e-07
1.46608e-07
1.46608e-07
1.46608e-07
1.46608e-07
1.46608e-07
1.46608e-07
1.46608e-07
1.46608e-07
1.46608e-07
1.46608e-07
1.46608e-07
1.46608e-07
1.46608e-07
1.46608e-07
1.46608e-07
1.46608e-07
1.46608e-07
1.46608e-07
1.46608e-07
1.46608e-07
1.46608e-07
1.46608e-07
1.46608e-07
1.46608e-07
1.46608e-07
1.46608e-07
1.46608e-07
1.46608e-07
1.46608e-07
1.46608e-07
1.46608e-07
1.46608e-07
1.46608e-07
1.46608e-07
1.46608e-07
1.46608e-07

VECTORS velocity float
-8.68237e-15 7.85696e-14 2.00897e-13
1.06375e-14 2.65591e-14 3.50781e-13
-1.32882e-15 3.97326e-14 -1.45084e-13
-9.7867e-16 -4.35255e-15 -1.20042e-13
-2.72728e-19 1.05066e-18 -5.7047e-18
-1.12287e-14 -4.38011e-14 9.73357e-14
6.35206e-15 2.15027e-14 9.1098e-14
1.49681e-14 2.23633e-14 -1.76077e-13
0.000408359 0.0105048 -0.0171532
-4.52824e-15 -2.52971e-14 -1.74151e-13
-1.29432e-15 -1.51424e-14 3.20382e-14
0.00115264 -0.00380622 -0.0183655
2.00875e-15 3.14798e-15 -2.9051e-14
1.00304e-14 3.39564e-14 1.43854e-13
-1.12848e-15 3.25656e-14 -1.18914e-13
-1.5825e-14 -4.43647e-14 1.90571e-13
1.53393e-14 5.18483e-14 2.1969e-13
1.30121e-14 5.25312e-15 -1.07339e-13
9.85084e-15 -6.28945e-14 2.05619e-13
-2.6299e-17 -1.41323e-16 -9.78705e-16
1.34796e-14 4.56299e-14 1.93312e-13
0.106466 0.0253469 0.382381
-9.26479e-16 -4.09837e-15 -2.93309e-14
5.38294e-16 7.7185e-15 9.88338e-15
3.31522e-15 -1.89274e-14 2.54251e-13
2.53148e-15 -1.23267e-14 5.62304e-14
-4.3903e-15 2.82053e-14 7.49161e-14
-6.14139e-16 -8.50672e-15 2.35632e-14
0.00172265 0.0178386 0.0057649
0.00125624 0.0219948 -0.0107098
-1.80115e-14 -5.05045e-14 2.16941e-13
1.95935e-16 -2.75148e-15 -2.8995e-15
4.98127e-15 1.37714e-14 -2.57743e-14
1.40345e-15 1.70837e-15 -1.06295e-14
1.03981e-14 -5.92101e-14 -1.63381e-13
7.9804e-16 -3.78212e-15 -6.44673e-14
2.45291e-17 4.30037e-17 1.52555e-15
-4.35044e-15 -1.9421e-14 -1.39039e-13
-5.19423e-15 -2.31833e-14 -1.66017e-13
6.74103e-16 1.66588e-15 1.31549e-14
-1.94457e-14 1.84283e-16 -2.28119e-13
2.60467e-15 -1.48762e-14 1.99836e-13
-1.08824e-14 2.26534e-14 2.78392e-13
-7.36382e-15 -1.81923e-14 -1.43647e-13
-5.97918e-15 -1.47725e-14 -1.16641e-13
-1.55915e-14 -3.19687e-14 -1.04791e-13
-2.30147e-16 1.96654e-15 -6.22798e-15
-2.82056e-15 1.34629e-14 -6.6567e-14
-9.17639e-15 5.49316e-14 2.1116e-13
1.34977e-15 -8.13947e-15 -3.12411e-14
7.34079e-16 3.29469e-15 2.35316e-14
3.91636e-16 -1.13673e-15 -6.22545e-15
-7.84822e-15 -7.28946e-14 1.85342e-13
1.83354e-06 -0.00208845 0.00104974
-6.00877e-15 -7.32886e-15 -1.08973e-13
1.52662e-15 2.26418e-15 -1.78439e-14
2.75201e-17 -5.64972e-16 -6.89917e-16
0.000246468 0.00647928 -0.00219429
6.74562e-15 1.89383e-14 2.6288e-13
-9.28316e-16 8.92628e-14 2.24983e-13
2.2968e-16 -6.63959e-16 -3.64325e-15
0.00117895 0.00143449 0.0184828
1.06441e-15 3.60321e-15 1.52614e-14
-1.14247e-14 -3.20957e-14 1.3783e-13
5.55018e-17 -1.68577e-15 4.05798e-15
-7.36607e-15 -1.81929e-14 -1.43647e-13
1.31853e-14 -4.47347e-14 -1.10002e-13
2.95119e-16 4.88504e-15 -1.04409e-14
-1.81457e-14 8.14351e-15 -1.66091e-13
-5.16176e-17 5.30771e-16 1.40175e-15
6.28057e-15 -4.01345e-14 1.31217e-13
0.000637132 0.00685727 0.0188455
-1.07574e-14 -1.72601e-15 1.75368e-13
0.000292461 -0.017156 0.0108645
-9.88098e-15 -1.33813e-14 -1.90502e-13
1.43179e-15 -1.63492e-14 -2.33287e-14
-3.69949e-15 -1.32326e-14 -1.98725e-13
3.77031e-15 -1.82247e-14 8.99425e-14
8.90047e-16 5.06752e-15 -1.9634e-14
-2.84827e-15 2.53015e-14 -8.03201e-14
-3.81534e-16 3.70488e-14 9.33838e-14
2.18003e-15 -1.03746e-14 -1.76838e-13
2.36849e-14 -4.02499e-14 1.90901e-13
-4.26462e-05 -0.000982557 -0.000331116
-7.07037e-15 -4.06812e-14 1.57632e-13
1.38942e-15 -1.63701e-14 -2.33225e-14
-4.05898e-16 1.19613e-14 -4.36766e-14
-0.000556868 -0.00506671 -0.0201358

VECTORS force float
8.66885e-22 0.0 0.0
6.82259e-21 -5.25425e-21 0.0
-1.14386e-19 -3.44107e-21 0.0
8.78466e-22 -1.32349e-23 0.0
3.80503e-23 -3.97047e-23 0.0
-1.05879e-22 -2.11758e-22 -2.11758e-22
3.97047e-23 -5.29396e-23 0.0
5.82865e-20 -6.90861e-21 3.59989e-21
-1.57497e-09 -5.86442e-09 -1.19011e-08
-6.69685e-21 -2.64698e-23 2.11758e-22
3.56588e-19 -3.05991e-20 -2.5411e-21
-8.74309e-09 -1.30518e-08 -2.1723e-08
2.52786e-20 -1.08261e-20 6.35275e-22
0.0 0.0 0.0
1.17294e-21 -5.29396e-23 0.0
0.0 1.16467e-21 4.23516e-22
4.61898e-20 2.32934e-21 -5.0822e-21
1.49687e-19 -1.69407e-20 1.82112e-20
-5.9557e-22 5.29396e-23 0.0
3.17637e-22 1.05879e-22 0.0
-4.23516e-22 -1.16467e-21 4.23516e-22
0.044085 0.0895731 0.763514
-2.11758e-22 -2.11758e-22 0.0
1.65436e-23 0.0 0.0
-1.32349e-23 -1.98523e-22 0.0
-1.82641e-21 1.27055e-21 4.23516e-22
-1.10617e-19 2.017e-20 -1.48231e-20
6.61744e-24 0.0 0.0
-3.92615e-08 1.15239e-07 5.46143e-08
9.50898e-09 6.25233e-08 -4.92595e-09
-2.91168e-22 -2.17052e-21 -4.23516e-22
1.58819e-22 -1.05879e-22 0.0
7.94093e-23 -1.58819e-22 2.11758e-22
-2.40662e-18 2.90215e-19 -1.29808e-19
1.29305e-20 6.61744e-21 -2.5411e-21
0.0 0.0 0.0
-5.29396e-23 2.64698e-23 -2.11758e-22
-1.32349e-22 5.02926e-22 0.0
0.0 0.0 0.0
6.61744e-24 0.0 0.0
2.64698e-23 -6.34985e-21 -2.11758e-22
3.05395e-21 8.47033e-22 -2.11758e-22
-3.05924e-20 -4.3556e-20 2.11758e-21
2.38228e-21 -4.76456e-22 -2.11758e-22
1.85288e-22 -5.55865e-22 0.0
2.11758e-22 3.70577e-22 -2.11758e-22
4.30134e-23 -5.29396e-23 0.0
1.23746e-20 2.11758e-22 -6.35275e-22
-2.24662e-20 4.39398e-21 -3.38813e-21
2.64698e-23 5.29396e-23 2.11758e-22
7.27919e-23 -2.64698e-23 -2.11758e-22
4.30134e-23 0.0 2.11758e-22
-4.63221e-23 0.0 0.0
-1.09179e-09 3.51289e-09 -1.30796e-08
1.56463e-19 -4.30663e-19 2.24464e-20
1.9667e-20 -3.49401e-21 1.27055e-21
-5.29396e-23 -1.05879e-22 0.0
-3.42572e-09 -1.29994e-08 -2.03319e-08
2.02494e-21 -1.32349e-22 2.11758e-22
-4.1359e-24 0.0 2.11758e-22
2.64698e-23 1.05879e-22 0.0
-9.58838e-10 1.01043e-08 1.27935e-09
0.0 0.0 0.0
2.87462e-20 -1.95347e-20 -1.90582e-21
1.63802e-19 1.47172e-20 6.35275e-22
1.24408e-21 7.67624e-22 -2.11758e-22
1.90582e-20 -8.99973e-21 4.65868e-21
0.0 0.0 0.0
0.0 0.0 0.0
-2.64698e-23 5.29396e-23 0.0
-4.75133e-21 3.07049e-21 1.48231e-21
-4.4432e-09 1.48817e-08 9.26977e-09
0.0 0.0 0.0
-7.27841e-09 1.98575e-07 -1.55443e-07
-6.89538e-21 4.48795e-20 -2.96462e-21
-1.19114e-22 1.32349e-22 1.05879e-22
9.72764e-22 -2.11758e-22 0.0
-2.71527e-19 4.62162e-20 2.05405e-20
-2.24993e-22 0.0 0.0
6.44466e-19 6.9192e-20 -2.11758e-21
1.12654e-20 0.0 2.11758e-22
-6.38583e-22 3.03079e-21 -2.11758e-22
-5.3469e-21 -1.21761e-20 -1.48231e-21
-1.16048e-10 5.12331e-08 -4.36496e-08
-1.04953e-20 -2.11758e-22 -4.23516e-22
0.0 0.0 0.0
-1.40025e-20 5.29396e-23 0.0
-1.28507e-08 -1.69126e-08 6.72015e-09
