# vtk DataFile Version 3.0
LIGGGHTS particles timestep 31400000
ASCII
DATASET POLYDATA
POINTS 89 float
0.0388307 0.0187336 0.00577146
0.030266 0.0148598 0.0105811
0.0505131 0.0226304 0.0092288
0.0544884 0.0153595 0.00944953
0.0436892 0.020408 0.00596775
0.0332069 0.0233453 0.0119436
0.08261 0.0191091 0.00590955
0.103453 0.0178822 0.00580682
0.043667 0.0193203 0.0071721
0.0458692 0.0166351 0.00629564
0.0572659 0.0174442 0.00591793
0.0448741 0.0232948 0.0106362
0.0474738 0.015635 0.0141293
0.0508584 0.0232574 0.0107351
0.0497912 0.0200142 0.00735346
0.0522606 0.0203247 0.0156481
0.0793161 0.0192087 0.00581236
0.0170063 0.0201419 0.00601043
0.0632091 0.0196192 0.00574818
0.0448873 0.0164493 0.00634816
0.0516203 0.0226058 0.0139003
0.045063 0.0233858 0.0113994
0.0334572 0.0229787 0.0132896
0.0346283 0.0188554 0.0157595
0.0534287 0.0158218 0.0143415
0.0501818 0.0216788 0.00805425
0.0357086 0.0161117 0.00660683
0.0536373 0.0151398 0.013287
0.0356246 0.0152119 0.0133377
0.0461506 0.0208473 0.0154067
0.0528218 0.0178967 0.015652
0.054996 0.0166596 0.00795093
0.0439552 0.0161318 0.00656318
0.0440036 0.0210614 0.00765916
0.0539724 0.014789 0.0119059
0.0465748 0.0191103 0.0158391
0.0405883 0.0190752 0.0157172
0.0408539 0.0177177 0.0155481
0.0416928 0.0150283 0.0130432
0.0514088 0.0230079 0.0130242
0.0388768 0.02331 0.0106705
0.0286258 0.0183498 0.00592583
0.0520302 0.021453 0.0150804
0.0271177 0.0233884 0.0115406
0.0433909 0.0183259 0.00728288
0.0431147 0.0172273 0.00764023
0.0238948 0.0168123 0.00667048
0.0470176 0.01787 0.0060864
0.0390565 0.0200205 0.00592023
0.0766607 0.0190533 0.00580856
0.0779397 0.0194308 0.00576583
0.0446492 0.0228987 0.00977129
0.0424878 0.0188132 0.00581899
0.0920805 0.0205253 0.0059177
0.0386395 0.0229233 0.00965999
0.036042 0.0147799 0.0116551
0.102423 0.0196788 0.00582979
0.0415037 0.0155388 0.0139825
0.377412 0.0174513 0.00843628
0.0507369 0.0203921 0.00594173
0.0371784 0.0174451 0.00749704
0.0440263 0.0170728 0.00623272
0.0427026 0.0156901 0.00884552
0.0481096 0.0148496 0.0112804
0.0495528 0.0188578 0.00719671
0.059059 0.0180876 0.00593586
0.0459385 0.0218486 0.0148211
0.0316007 0.0183082 0.00603438
0.0307435 0.0157883 0.0086959
0.0215463 0.0196109 0.00592744
0.0477133 0.0150273 0.0128408
0.0469068 0.0175033 0.0154972
0.0470825 0.0167835 0.0151552
0.0242602 0.0201274 0.00583803
0.0324884 0.0225923 0.00894437
0.020132 0.0214707 0.00791488
0.029372 0.0158769 0.0144463
0.0403339 0.0201001 0.0156371
0.0371638 0.0187263 0.00573865
0.0328558 0.0191954 0.00572294
0.0510991 0.0233807 0.0115973
0.0341914 0.0206375 0.0153653
0.0490492 0.0173651 0.00751681
0.0483815 0.0150391 0.010097
0.0423836 0.0150321 0.00994483
0.0350698 0.0188001 0.00572051
0.0280701 0.0211308 0.0152642
0.03441 0.019721 0.0157565
0.0397555 0.0221783 0.0142746

VERTICES 89 178
1 0
1 1
1 2
1 3
1 4
1 5
1 6
1 7
1 8
1 9
1 10
1 11
1 12
1 13
1 14
1 15
1 16
1 17
1 18
1 19
1 20
1 21
1 22
1 23
1 24
1 25
1 26
1 27
1 28
1 29
1 30
1 31
1 32
1 33
1 34
1 35
1 36
1 37
1 38
1 39
1 40
1 41
1 42
1 43
1 44
1 45
1 46
1 47
1 48
1 49
1 50
1 51
1 52
1 53
1 54
1 55
1 56
1 57
1 58
1 59
1 60
1 61
1 62
1 63
1 64
1 65
1 66
1 67
1 68
1 69
1 70
1 71
1 72
1 73
1 74
1 75
1 76
1 77
1 78
1 79
1 80
1 81
1 82
1 83
1 84
1 85
1 86
1 87
1 88

POINT_DATA 89
SCALARS id int 1
LOOKUP_TABLE default
1
2
3
8
9
14
18
26
28
32
34
38
46
48
54
56
59
64
65
66
68
70
74
82
83
86
88
89
90
93
96
100
106
107
108
109
112
113
121
124
125
126
127
129
132
134
137
142
146
149
159
160
163
165
174
182
187
189
193
195
198
201
209
213
215
221
223
226
227
229
240
242
245
246
256
257
258
270
273
274
277
279
280
281
283
291
293
296
298

SCALARS type int 1
LOOKUP_TABLE default
1
1
1
1
1
1
1
1
1
1
1
1
1
1
1
1
1
1
1
1
1
1
1
1
1
1
1
1
1
1
1
1
1
1
1
1
1
1
1
1
1
1
1
1
1
1
1
1
1
1
1
1
1
1
1
1
1
1
1
1
1
1
1
1
1
1
1
1
1
1
1
1
1
1
1
1
1
1
1
1
1
1
1
1
1
1
1
1
1

SCALARS radius float 1
LOOKUP_TABLE default
0.0005
0.0005
0.0005
0.0005
0.0005
0.0005
0.0005
0.0005
0.0005
0.0005
0.0005
0.0005
0.0005
0.0005
0.0005
0.0005
0.0005
0.0005
0.0005
0.0005
0.0005
0.0005
0.0005
0.0005
0.0005
0.0005
0.0005
0.0005
0.0005
0.0005
0.0005
0.0005
0.0005
0.0005
0.0005
0.0005
0.0005
0.0005
0.0005
0.0005
0.0005
0.0005
0.0005
0.0005
0.0005
0.0005
0.0005
0.0005
0.0005
0.0005
0.0005
0.0005
0.0005
0.0005
0.0005
0.0005
0.0005
0.0005
0.0005
0.0005
0.0005
0.0005
0.0005
0.0005
0.0005
0.0005
0.0005
0.0005
0.0005
0.0005
0.0005
0.0005
0.0005
0.0005
0.0005
0.0005
0.0005
0.0005
0.0005
0.0005
0.0005
0.0005
0.0005
0.0005
0.0005
0.0005
0.0005
0.0005
0.0005

SCALARS mass float 1
LOOKUP_TABLE default
1.46608e-07
1.46608e-07
1.46608e-07
1.46608e-07
1.46608e-07
1.46608e-07
1.46608e-07
1.46608e-07
1.46608e-07
1.46608e-07
1.46608e-07
1.46608e-07
1.46608e-07
1.46608e-07
1.46608e-07
1.46608e-07
1.46608e-07
1.46608e-07
1.46608e-07
1.46608e-07
1.46608e-07
1.46608e-07
1.46608e-07
1.46608e-07
1.46608e-07
1.46608e-07
1.46608e-07
1.46608e-07
1.46608e-07
1.46608e-07
1.46608e-07
1.46608e-07
1.46608e-07
1.46608e-07
1.46608e-07
1.46608e-07
1.46608e-07
1.46608e-07
1.46608e-07
1.46608e-07
1.46608e-07
1.46608e-07
1.46608e-07
1.46608e-07
1.46608e-07
1.46608e-07
1.46608e-07
1.46608e-07
1.46608e-07
1.46608e-07
1.46608e-07
1.46608e-07
1.46608e-07
1.46608e-07
1.46608e-07
1.46608e-07
1.46608e-07
1.46608e-07
1.46608e-07
1.46608e-07
1.46608e-07
1.46608e-07
1.46608e-07
1.46608e-07
1.46608e-07
1.46608e-07
1.46608e-07
1.46608e-07
1.46608e-07
1.46608e-07
1.46608e-07
1.46608e-07
1.46608e-07
1.46608e-07
1.46608e-07
1.46608e-07
1.46608e-07
1.46608e-07
1.46608e-07
1.46608e-07
1.46608e-07
1.46608e-07
1.46608e-07
1.46608e-07
1.46608e-07
1.46608e-07
1.46608e-07
1.46608e-07
1.46608e-07

VECTORS velocity float
-9.60647e-15 8.7156e-14 2.22862e-13
0.000415486 -0.00316479 0.0153913
6.16965e-05 -0.0111999 -0.0192672
-0.000262073 -0.0102127 0.016981
2.40239e-15 -2.04483e-14 6.48841e-14
0.000504804 0.00165562 -0.0197304
-1.81861e-14 -5.05797e-14 2.16909e-13
1.65448e-15 7.52047e-15 2.07276e-13
0.000742022 -0.0169138 -0.00048334
2.90823e-16 1.62404e-15 1.11821e-14
9.18489e-15 -1.90528e-14 -2.34434e-13
0.000424768 -0.00513684 -0.0179833
0.00228986 0.00885126 0.00893954
0.000759842 -0.00424448 -0.0180556
0.000777216 -0.0204424 -0.00530357
0.000996851 0.0168822 -0.00593362
1.5254e-14 5.1863e-14 2.19693e-13
1.29909e-14 5.25582e-15 -1.07341e-13
3.93642e-15 5.47611e-14 -1.5184e-13
-4.52777e-15 -2.52973e-14 -1.74151e-13
0.000358047 0.0106134 -0.0170085
0.00157901 0.00122573 -0.0168144
0.00018944 0.0103452 -0.0186598
0.000566106 0.020619 0.00260244
0.0101455 0.0089303 -0.00106261
0.00112085 -0.0145334 -0.0108368
-4.54523e-15 2.81674e-14 7.4921e-14
0.000512224 0.00763324 0.0192473
0.000235163 0.00916536 0.0189118
0.000388922 0.0222665 -0.00882789
0.000804227 0.0174681 0.00386292
0.00096598 -0.0120345 0.00901949
1.95776e-16 -2.75167e-15 -2.89972e-15
0.000160143 -0.0189722 -0.0109486
0.000264694 0.00195022 0.0210935
0.000819092 0.0216046 0.00140548
0.00133364 0.0177261 0.000124224
0.0022636 0.0133626 0.00449385
0.000337751 0.00751018 0.018888
0.000222949 0.00789277 -0.0197304
0.00164041 -0.00152475 -0.0124066
-1.94459e-14 1.82814e-16 -2.28119e-13
3.4116e-05 0.0186021 -0.0114857
0.000166822 0.000808019 -0.0216218
0.00186183 -0.0152813 0.00396702
0.000123302 -0.0201879 0.00855249
-1.55905e-14 -3.19688e-14 -1.04791e-13
-3.12987e-15 -1.74648e-14 -1.20236e-13
-3.94839e-15 1.88492e-14 -9.3208e-14
-9.17481e-15 5.49366e-14 2.11158e-13
6.4802e-15 -3.80593e-14 -1.4648e-13
-0.000539242 -0.00518896 -0.0148658
-4.51498e-15 1.30456e-14 7.16621e-14
-7.84824e-15 -7.28946e-14 1.85342e-13
0.000180126 -0.00897188 -0.0190945
3.60363e-05 -9.23513e-06 0.0220734
1.50157e-15 2.28979e-15 -1.78427e-14
0.000336726 0.011996 0.0164478
-2.67767e-07 0.00388227 -0.00358124
-5.72482e-15 -2.04836e-14 -3.07615e-13
0.000592105 -0.0183298 0.00765294
2.29689e-16 -6.63881e-16 -3.64347e-15
0.000174534 -0.0129287 0.0166854
0.000343603 0.000109108 0.0194453
0.000725121 -0.0194176 0.00161411
7.18852e-15 -1.49138e-14 -1.83491e-13
0.000248174 0.0154423 -0.0134532
1.31665e-14 -4.47287e-14 -1.10007e-13
0.000180157 -0.0149658 0.0164638
-1.81457e-14 8.1435e-15 -1.66091e-13
3.82493e-05 0.0057324 0.0212874
0.00104413 0.0172214 0.00468744
0.000457008 0.0166993 0.0117995
-1.07574e-14 -1.72601e-15 1.75368e-13
0.00262127 0.00173675 -0.00129323
0.0005582 -0.0108316 -0.00818804
0.000486985 0.0135516 0.0138973
-0.000284333 0.0225057 -0.00207356
3.79467e-15 -1.81874e-14 8.99489e-14
8.76355e-16 5.06752e-15 -1.96346e-14
0.00107246 0.000924903 -0.017877
0.00196379 0.0165552 -0.00767563
-2.06748 0.538582 -1.36079
0.000380384 -0.00629947 0.0169575
-0.000311231 -0.00777216 0.0195018
-7.06541e-15 -4.06702e-14 1.57635e-13
0.000935323 0.0142058 -0.00787282
0.00275378 0.0113875 -0.00138495
-0.000322351 0.0141521 -0.0158121

VECTORS force float
-4.65868e-20 2.64698e-21 -1.90582e-21
-1.01943e-08 -1.57979e-09 1.05706e-07
1.16752e-10 -1.21794e-08 3.24473e-09
-6.82153e-09 2.24168e-08 -1.80181e-08
6.2204e-22 6.35275e-22 2.11758e-22
-5.53083e-09 -6.49377e-09 -1.96606e-08
7.46779e-19 -3.27802e-19 -1.16467e-20
5.30785e-20 -5.86967e-21 -2.11758e-22
-1.21634e-08 -1.2555e-07 1.5205e-08
0.0 5.29396e-23 0.0
-6.41892e-22 -1.69407e-21 2.11758e-22
9.47674e-11 -9.68067e-09 3.6408e-09
1.77982e-10 -8.53381e-08 -1.01567e-07
-5.97549e-09 -8.13901e-08 -9.89455e-08
-1.31373e-08 -2.30177e-08 -9.54594e-10
-5.53036e-09 1.42701e-08 -1.6828e-08
7.63521e-20 -2.50934e-20 1.48231e-21
-1.90582e-20 -3.66871e-20 -3.81165e-21
-1.84918e-19 1.21761e-21 -4.44692e-21
1.58819e-22 -1.32349e-22 0.0
-1.09395e-09 -5.45942e-09 -1.17868e-08
4.06409e-09 -1.77627e-08 2.40971e-08
-1.92609e-08 -1.5252e-08 4.18011e-08
6.3405e-10 1.89917e-10 -1.02317e-08
-0.121556 0.183087 -0.28213
1.82527e-10 -7.2814e-09 7.58177e-09
3.05289e-19 6.72332e-21 1.54584e-20
6.19035e-09 -4.86811e-08 -5.63045e-08
-1.1786e-09 1.20705e-08 1.88331e-10
5.81384e-10 -2.91623e-08 5.16264e-08
-6.92608e-09 2.36034e-08 -4.00393e-09
-4.72546e-09 -1.13916e-08 2.47145e-08
4.49986e-22 0.0 0.0
-1.08599e-09 -9.49741e-09 6.67463e-09
-1.62161e-09 1.17501e-08 5.06191e-09
2.04276e-09 2.32026e-09 -1.15815e-08
4.34083e-10 -3.57459e-09 -6.69459e-09
9.85374e-06 -4.07492e-06 -2.34409e-06
-2.587e-09 1.29079e-08 3.71899e-09
-2.09137e-09 -8.34461e-09 -8.48256e-09
-3.16342e-07 -2.65603e-07 -1.45691e-06
-1.05879e-22 4.12908e-21 0.0
1.06978e-11 -2.17738e-09 -1.22442e-08
-5.16292e-08 -5.2646e-07 -1.4764e-07
9.68502e-09 6.7473e-08 -2.36536e-09
-4.86609e-10 7.30903e-10 1.1402e-08
1.08526e-21 -5.29396e-23 0.0
5.39322e-21 -1.58819e-22 -2.11758e-22
-5.09808e-20 -9.15854e-21 4.23516e-22
-7.66962e-21 1.04291e-20 -3.81165e-21
-2.21162e-19 1.94818e-20 -1.43996e-20
7.10742e-10 2.70892e-09 -6.16022e-09
0.0 0.0 0.0
4.49986e-22 0.0 0.0
-6.16695e-10 -1.19273e-08 -8.89188e-10
-3.86367e-10 1.18278e-08 3.4153e-09
8.16328e-20 -2.51198e-20 3.81165e-21
-2.00587e-09 1.36248e-08 6.54242e-10
-9.37119e-10 7.15747e-08 -6.81473e-08
1.09519e-21 7.54389e-22 0.0
-3.48127e-09 -5.83922e-09 1.35815e-08
1.32349e-22 0.0 0.0
-3.7704e-10 4.91402e-09 1.10709e-08
-3.89786e-09 9.15635e-09 1.48545e-08
-7.74793e-09 -1.57894e-08 9.06058e-09
-3.28887e-21 -7.94093e-22 0.0
-1.27043e-09 -5.85577e-08 8.30502e-08
-7.3586e-21 3.49401e-21 -1.90582e-21
-1.07532e-09 5.05381e-09 1.23643e-08
0.0 0.0 0.0
1.62872e-10 1.18687e-08 -9.90338e-10
-6.53515e-08 6.57316e-08 4.69566e-09
8.75353e-09 1.48355e-08 1.76205e-09
0.0 0.0 0.0
-6.44716e-05 -0.000209081 -0.00023749
1.39122e-10 -2.63364e-09 1.3853e-08
-5.00919e-09 2.21042e-08 5.73258e-09
2.03564e-09 -1.01724e-09 -1.04155e-08
6.94699e-20 9.3703e-21 -1.27055e-21
-7.94093e-23 0.0 0.0
3.71373e-08 -2.21738e-08 4.33214e-08
-5.63533e-09 2.12104e-09 -6.9299e-09
3.13053 -2.00766 -1.07334
1.37233e-09 9.10159e-08 -2.21704e-07
6.38786e-09 1.0714e-08 8.68649e-09
5.64468e-20 -1.90582e-20 -2.32934e-21
1.24805e-09 1.40619e-09 -6.65565e-09
-5.58764e-09 2.07178e-09 -6.69362e-10
3.67955e-09 -1.62423e-09 -2.30405e-08
