# vtk DataFile Version 3.0
LIGGGHTS particles timestep 17400000
ASCII
DATASET POLYDATA
POINTS 89 float
0.0364242 0.0169888 0.00631991
0.020731 0.0145532 0.0131073
0.04004 0.0187842 0.0071838
0.0411959 0.023001 0.00977837
0.0436892 0.020408 0.00596775
0.0237857 0.0232788 0.0124345
0.08261 0.0191091 0.00590955
0.103453 0.0178822 0.00580682
0.0297742 0.0232946 0.0123794
0.0458019 0.0165106 0.00631547
0.0403065 0.0200266 0.00730001
0.0310118 0.0193802 0.0158056
0.0328945 0.01499 0.0101001
0.0367706 0.020423 0.0155498
0.0352964 0.0231244 0.0100926
0.042263 0.0223739 0.0142144
0.0393045 0.016158 0.00835504
0.0241075 0.0222548 0.0145937
0.0363561 0.0217711 0.0147595
0.0424893 0.0214982 0.0150304
0.0379636 0.0155559 0.0139831
0.0312049 0.0183958 0.0157688
0.0186299 0.0143571 0.0139018
0.0212461 0.018255 0.015867
0.0396914 0.0172891 0.00755743
0.0360257 0.0229661 0.0133145
0.0124012 0.017684 0.0207897
0.0407502 0.0217215 0.00812566
0.0230804 0.0228707 0.00941257
0.0317742 0.0162374 0.014724
0.0394992 0.016671 0.00790636
0.0420229 0.0229756 0.0133043
0.0439974 0.0161245 0.00657288
0.0301146 0.0227604 0.0136464
0.0409319 0.022444 0.00884801
0.0319616 0.0155317 0.0139886
0.0267911 0.0148593 0.0105045
0.0275268 0.0167029 0.00788204
0.0281149 0.0192765 0.00717462
0.0376651 0.0166678 0.0150573
0.0248172 0.0206448 0.0156527
0.0286258 0.0183498 0.00592583
0.0390084 0.015161 0.00971217
0.0187813 0.0208015 0.0155852
0.0290481 0.0227283 0.00916379
0.0288072 0.0220288 0.00840503
0.024527 0.0215744 0.0151797
0.0417437 0.0232913 0.0123286
0.021457 0.0142681 0.0137342
0.0414828 0.0233357 0.0108752
0.0651534 0.0184728 0.00578214
0.0304631 0.0215823 0.0149899
0.0195264 0.017342 0.0157252
0.0228677 0.0222578 0.00878878
0.0233047 0.0231503 0.0100699
0.0219416 0.018281 0.00727271
0.102423 0.0196788 0.00582979
0.0279028 0.0181123 0.0073298
0.155463 0.0211906 0.00888382
0.0205178 0.0145979 0.0121319
0.0212723 0.0147377 0.011489
0.0440291 0.0170649 0.00623435
0.0286684 0.0213789 0.00785237
0.0338782 0.0179543 0.00731086
0.0350554 0.0226738 0.00924761
0.0580541 0.0173356 0.00595763
0.0314951 0.0173114 0.0154095
0.018184 0.0234894 0.0118204
0.019323 0.0183086 0.0158804
0.0307283 0.0166516 0.00660365
0.0334581 0.0165338 0.0079812
0.0324348 0.0148697 0.0122603
0.0326038 0.0147638 0.0112944
0.0242602 0.0201274 0.00583803
0.0162549 0.0148471 0.0129931
0.0195347 0.013973 0.0130153
0.0202385 0.0187061 0.0159412
0.0264464 0.0148351 0.0121566
0.0185359 0.0139983 0.0129732
0.0215057 0.0166408 0.00791491
0.0373327 0.0179731 0.0155749
0.020623 0.0147867 0.0110296
0.0347805 0.021921 0.00824104
0.0345753 0.0211288 0.00780888
0.0284261 0.0203957 0.00746829
0.03293 0.0193179 0.00575787
0.0212259 0.0239892 0.0132804
0.0204642 0.017663 0.0157225
0.0252891 0.0184562 0.0159054

VERTICES 89 178
1 0
1 1
1 2
1 3
1 4
1 5
1 6
1 7
1 8
1 9
1 10
1 11
1 12
1 13
1 14
1 15
1 16
1 17
1 18
1 19
1 20
1 21
1 22
1 23
1 24
1 25
1 26
1 27
1 28
1 29
1 30
1 31
1 32
1 33
1 34
1 35
1 36
1 37
1 38
1 39
1 40
1 41
1 42
1 43
1 44
1 45
1 46
1 47
1 48
1 49
1 50
1 51
1 52
1 53
1 54
1 55
1 56
1 57
1 58
1 59
1 60
1 61
1 62
1 63
1 64
1 65
1 66
1 67
1 68
1 69
1 70
1 71
1 72
1 73
1 74
1 75
1 76
1 77
1 78
1 79
1 80
1 81
1 82
1 83
1 84
1 85
1 86
1 87
1 88

POINT_DATA 89
SCALARS id int 1
LOOKUP_TABLE default
1
2
3
8
9
14
18
26
28
32
34
38
46
48
54
56
59
64
65
66
68
70
74
82
83
86
88
89
90
93
96
100
106
107
108
109
112
113
121
124
125
126
127
129
132
134
137
142
146
149
159
160
163
165
174
182
187
189
193
195
198
201
209
213
215
221
223
226
227
229
240
242
245
246
256
257
258
270
273
274
277
279
280
281
283
291
293
296
298

SCALARS type int 1
LOOKUP_TABLE default
1
1
1
1
1
1
1
1
1
1
1
1
1
1
1
1
1
1
1
1
1
1
1
1
1
1
1
1
1
1
1
1
1
1
1
1
1
1
1
1
1
1
1
1
1
1
1
1
1
1
1
1
1
1
1
1
1
1
1
1
1
1
1
1
1
1
1
1
1
1
1
1
1
1
1
1
1
1
1
1
1
1
1
1
1
1
1
1
1

SCALARS radius float 1
LOOKUP_TABLE default
0.0005
0.0005
0.0005
0.0005
0.0005
0.0005
0.0005
0.0005
0.0005
0.0005
0.0005
0.0005
0.0005
0.0005
0.0005
0.0005
0.0005
0.0005
0.0005
0.0005
0.0005
0.0005
0.0005
0.0005
0.0005
0.0005
0.0005
0.0005
0.0005
0.0005
0.0005
0.0005
0.0005
0.0005
0.0005
0.0005
0.0005
0.0005
0.0005
0.0005
0.0005
0.0005
0.0005
0.0005
0.0005
0.0005
0.0005
0.0005
0.0005
0.0005
0.0005
0.0005
0.0005
0.0005
0.0005
0.0005
0.0005
0.0005
0.0005
0.0005
0.0005
0.0005
0.0005
0.0005
0.0005
0.0005
0.0005
0.0005
0.0005
0.0005
0.0005
0.0005
0.0005
0.0005
0.0005
0.0005
0.0005
0.0005
0.0005
0.0005
0.0005
0.0005
0.0005
0.0005
0.0005
0.0005
0.0005
0.0005
0.0005

SCALARS mass float 1
LOOKUP_TABLE default
1.46608e-07
1.46608e-07
1.46608e-07
1.46608e-07
1.46608e-07
1.46608e-07
1.46608e-07
1.46608e-07
1.46608e-07
1.46608e-07
1.46608e-07
1.46608e-07
1.46608e-07
1.46608e-07
1.46608e-07
1.46608e-07
1.46608e-07
1.46608e-07
1.46608e-07
1.46608e-07
1.46608e-07
1.46608e-07
1.46608e-07
1.46608e-07
1.46608e-07
1.46608e-07
1.46608e-07
1.46608e-07
1.46608e-07
1.46608e-07
1.46608e-07
1.46608e-07
1.46608e-07
1.46608e-07
1.46608e-07
1.46608e-07
1.46608e-07
1.46608e-07
1.46608e-07
1.46608e-07
1.46608e-07
1.46608e-07
1.46608e-07
1.46608e-07
1.46608e-07
1.46608e-07
1.46608e-07
1.46608e-07
1.46608e-07
1.46608e-07
1.46608e-07
1.46608e-07
1.46608e-07
1.46608e-07
1.46608e-07
1.46608e-07
1.46608e-07
1.46608e-07
1.46608e-07
1.46608e-07
1.46608e-07
1.46608e-07
1.46608e-07
1.46608e-07
1.46608e-07
1.46608e-07
1.46608e-07
1.46608e-07
1.46608e-07
1.46608e-07
1.46608e-07
1.46608e-07
1.46608e-07
1.46608e-07
1.46608e-07
1.46608e-07
1.46608e-07
1.46608e-07
1.46608e-07
1.46608e-07
1.46608e-07
1.46608e-07
1.46608e-07
1.46608e-07
1.46608e-07
1.46608e-07
1.46608e-07
1.46608e-07
1.46608e-07

VECTORS velocity float
-9.11663e-16 5.64792e-15 1.50129e-14
-0.000663342 -0.00470578 0.0235172
3.08956e-05 -0.0227963 0.000263225
0.000239811 -0.00828744 -0.0196134
2.40343e-15 -2.04487e-14 6.48839e-14
0.000426356 0.00417516 -0.0198157
-1.76989e-14 -5.05072e-14 2.16966e-13
1.69038e-15 7.51628e-15 2.07276e-13
0.00143782 0.00287848 -0.0176579
2.39371e-15 1.33722e-14 9.20545e-14
0.000559432 -0.0124937 -0.00372951
0.00134603 0.0153483 -0.00207791
0.000653252 -0.00561937 0.0187091
0.0008532 0.0168344 -0.00699828
0.000477367 -0.00723469 -0.0184156
-2.16734e-05 0.0149278 -0.0164982
0.00121897 -0.0107551 0.0154276
0.000769032 -0.0011528 -0.00191664
-5.02817e-05 0.0172716 -0.0135708
0.000583597 0.0155695 -0.0116951
9.73625e-05 0.00894286 0.0156153
0.000250199 0.0213442 0.00406934
-0.000107101 -0.000689876 0.00139124
9.14948e-07 0.0225464 0.00413625
0.00249037 -0.0125144 0.00445962
0.00059415 0.00813958 -0.0181436
0.058149 -0.206613 0.271529
-0.000460751 -0.0153321 -0.012968
0.00324156 -0.00600625 -0.0092779
0.000465639 0.0154071 0.0154945
0.00425454 -0.00960676 0.00670884
0.000726451 0.00775622 -0.0177792
-1.57178e-15 2.20984e-14 2.32841e-14
0.000236064 0.0112673 -0.0183818
0.00105943 -0.00825238 -0.0112303
-0.000369925 0.0112151 0.0172247
0.00181309 -0.00542898 0.0147877
0.000652699 -0.0161385 0.0110332
0.000254736 -0.0181726 -0.000825129
0.00204499 0.00442598 0.0015806
0.0001771 0.0208149 -0.00793887
-1.94465e-14 1.25313e-16 -2.28119e-13
6.02776e-05 -0.0111131 0.0198094
0.000129177 0.0206838 -0.00883868
0.000987546 -0.0103724 -0.0149699
0.00280779 -0.0110588 -0.00858097
0.00179259 0.0022637 -0.00116365
0.000690872 0.00282763 -0.0199758
0.0519872 0.0169037 -0.0159681
0.00109373 -0.00327685 -0.0163345
1.66318e-16 -7.84413e-16 -1.33899e-14
-0.000133978 0.0180711 -0.0113222
3.49099e-05 0.0217049 0.00934432
0.00279275 -0.00979639 -0.00960862
0.0029556 -0.00360917 -0.012432
0.000143849 -0.0209363 0.00360247
1.52337e-15 2.26897e-15 -1.78435e-14
0.000383174 -0.0206669 0.00488963
1.13987 -0.0975187 -0.0788746
-0.00346855 0.00192909 0.0173107
0.00125966 -0.00229762 0.0191798
-1.84817e-15 5.33792e-15 2.93361e-14
0.00223491 -0.0123784 -0.00570342
0.000943082 -0.0169839 0.00441487
-0.000127008 -0.0107195 -0.018859
9.18176e-15 -1.90547e-14 -2.34434e-13
1.25852e-05 0.0197735 0.00739994
-4.14189e-05 -0.000774389 0.00055025
-4.17999e-06 0.0226252 0.00384776
9.4392e-15 -3.21474e-14 -7.90144e-14
0.00150025 -0.00981584 0.00657303
0.000599447 0.00420987 0.0197556
0.000141246 -0.00206261 0.0218896
-1.07556e-14 -1.72574e-15 1.75368e-13
0.00645634 -0.00125084 -0.00625131
-0.00017177 -0.00161004 0.00266648
0.000869464 0.0208721 0.0014842
0.0012197 0.00328429 0.0144704
-0.000124017 -0.000898259 0.00148669
0.000387525 -0.0173517 0.0113756
0.00017632 0.0206466 0.00563382
-0.000234404 -0.0039254 0.0218439
0.000604467 -0.0095252 -0.00843834
0.00126191 -0.0150984 -0.00691062
0.000355089 -0.0201391 -0.00709759
-8.27013e-15 -4.74529e-14 1.83895e-13
0.00539119 0.000723834 -0.0067221
0.000180555 0.0214889 0.00703474
0.000523149 0.02059 0.00271662

VECTORS force float
-6.76303e-21 2.59404e-21 0.0
1.37147e-05 6.80205e-06 2.58952e-05
-5.67876e-09 -3.38194e-08 1.62399e-08
-8.20677e-10 -1.12322e-08 -6.80349e-10
-2.32934e-21 -5.29396e-22 0.0
-1.98162e-09 -8.14367e-09 -1.00309e-08
3.97841e-20 -3.21714e-19 -6.94567e-20
-7.59683e-21 -6.2204e-22 0.0
-1.4613e-08 1.96795e-09 -3.2756e-08
-2.84749e-20 7.12037e-21 -4.23516e-22
-1.23722e-06 -3.63803e-06 -2.41469e-07
-8.01099e-09 3.53076e-08 -1.29838e-08
-3.84814e-09 6.00256e-09 1.51816e-08
-2.93778e-09 5.83128e-09 -1.33487e-08
-1.72104e-09 -1.34357e-08 -2.35772e-09
-1.11331e-09 -5.55585e-09 -1.10907e-08
-1.59853e-05 -1.10039e-05 6.87283e-06
-1.6413e-08 1.13516e-08 -2.84605e-09
1.66288e-09 -3.62704e-09 -1.19987e-08
-2.93285e-09 4.06537e-09 -1.56735e-08
-1.09346e-08 -7.79111e-09 -4.20681e-08
7.12769e-10 3.75066e-09 -9.79232e-09
2.68823e-08 4.02055e-08 2.32144e-08
8.73722e-09 -4.1041e-08 -2.5071e-08
5.48427e-05 -4.84567e-05 2.06623e-05
-4.45305e-09 -5.20639e-09 -1.68981e-08
0.0 0.0 -1.43822e-06
8.03319e-09 -3.91108e-09 2.35007e-08
-1.25815e-07 -7.11198e-08 4.48169e-08
-1.55675e-08 -4.36009e-09 -9.03743e-09
6.15533e-05 3.66924e-05 2.61245e-05
3.21825e-09 -7.20772e-09 -4.38701e-12
-5.691e-22 0.0 1.05879e-22
-5.18584e-10 -7.06761e-09 -1.0489e-08
-4.79419e-09 2.60144e-08 1.54566e-08
1.25797e-08 1.70323e-08 2.62314e-08
2.20234e-08 3.20161e-08 -5.70429e-08
-4.40435e-09 -5.75225e-09 1.55796e-08
-5.59419e-09 -1.36706e-07 -3.27309e-09
8.45983e-06 4.69834e-07 -1.11819e-05
-1.84523e-09 2.35783e-09 -1.88441e-08
-2.30287e-21 -2.08563e-19 0.0
1.53233e-09 9.61758e-09 2.82173e-09
-1.92569e-09 1.82847e-09 -1.91731e-08
-9.90279e-09 -1.78852e-08 -1.16462e-08
-8.90655e-10 -9.21452e-08 -7.99071e-08
1.56801e-09 -3.79741e-09 -2.76633e-09
-1.65972e-08 2.55305e-08 -2.05054e-07
0.0 0.0 -1.43822e-06
-1.04571e-08 -1.59514e-08 -3.46178e-08
5.89945e-21 1.78671e-21 0.0
1.44874e-08 -6.1904e-08 2.62589e-08
-3.39468e-09 2.85848e-08 6.39375e-08
3.42133e-08 -2.44391e-08 -4.85711e-08
5.54309e-08 -9.21851e-08 -4.38291e-07
-3.44234e-10 -3.71878e-09 1.09111e-08
-4.01017e-20 2.98579e-20 4.23516e-22
-4.61107e-09 -7.91781e-09 9.26177e-09
0.0 0.0 -1.43822e-06
3.79984e-05 -8.84735e-06 -6.22503e-06
-6.50468e-08 -8.10182e-09 -7.24675e-08
-1.19114e-22 -1.05879e-22 0.0
-1.20245e-08 -2.14412e-08 -3.28234e-08
1.50652e-07 1.46714e-06 -6.61526e-07
1.89885e-09 -1.27986e-08 8.3241e-10
0.0 3.97047e-23 0.0
-2.14295e-08 5.67183e-08 2.87772e-08
-2.11786e-08 9.49422e-09 -5.20311e-09
4.40248e-09 1.00441e-07 1.16969e-08
3.23725e-20 2.87991e-20 -6.56451e-21
7.02043e-09 3.75345e-08 -1.92941e-08
-6.97739e-09 1.36934e-08 1.49404e-08
-4.09031e-10 1.05342e-08 5.27441e-09
0.0 -5.06235e-22 0.0
3.92241e-08 1.42712e-07 -2.97544e-07
2.65419e-09 -1.53673e-08 2.91656e-08
8.45648e-08 6.69667e-09 -2.23099e-08
-8.01568e-09 2.39373e-08 4.01447e-08
-1.80627e-08 -9.2182e-09 5.62572e-08
-2.00584e-10 1.13881e-09 1.20435e-08
-1.65901e-09 6.89419e-09 -9.21179e-09
1.17886e-08 1.87699e-08 -6.59791e-08
2.14695e-05 -5.88699e-07 -2.07017e-05
3.22592e-06 -7.73626e-06 2.47831e-07
-5.78974e-09 -1.40822e-08 6.30135e-09
-2.64698e-23 -4.23516e-22 0.0
-3.16205e-05 4.72555e-06 -1.40274e-05
5.41249e-08 -9.97764e-08 -8.19172e-08
-1.73569e-10 2.55477e-09 -1.37957e-08
