# vtk DataFile Version 3.0
LIGGGHTS particles timestep 46000000
ASCII
DATASET POLYDATA
POINTS 88 float
0.0387146 0.0187573 0.00575718
0.0438898 0.0185718 0.00723248
0.0655998 0.0196785 0.0057339
0.102543 0.017821 0.00581645
0.0387828 0.0214812 0.00622724
0.0473985 0.0175512 0.0155311
0.0815251 0.0188155 0.00575115
0.10448 0.0180949 0.00580371
0.0560935 0.02167 0.0149473
0.0458896 0.0168235 0.00626774
0.057335 0.017914 0.0058854
0.0587156 0.0204743 0.0155546
0.0612164 0.0159173 0.00859455
0.0642402 0.0221183 0.014531
0.064303 0.0192381 0.00572672
0.0830207 0.0197197 0.00608582
0.0793161 0.0192087 0.00581236
0.0170063 0.0201419 0.00601043
0.0632091 0.0196192 0.00574818
0.0448733 0.0164686 0.00634571
0.0659017 0.015524 0.0140172
0.0554522 0.0167692 0.00784582
0.0481206 0.0151905 0.0132311
0.0495296 0.016916 0.00780399
0.0668123 0.015098 0.010259
0.0745131 0.0200179 0.0058526
0.0357086 0.0161117 0.00660683
0.061915 0.0187982 0.00585866
0.0498368 0.0182619 0.00725066
0.0596556 0.0163628 0.0148356
0.069452 0.0233661 0.0112964
0.0439552 0.0161318 0.00656318
0.0579506 0.0230238 0.0132316
0.0684521 0.0207774 0.00753945
0.05688 0.0224971 0.00884487
0.0540469 0.0153129 0.0136525
0.054582 0.0147806 0.0111093
0.0505465 0.0213508 0.0078752
0.0607121 0.0186881 0.00591167
0.0525845 0.0210802 0.0152926
0.0286258 0.0183498 0.00592583
0.0862115 0.0201056 0.00585272
0.0409013 0.019568 0.0157166
0.0572078 0.0230986 0.0100169
0.0536578 0.0163433 0.0148385
0.0238948 0.0168123 0.00667048
0.0470176 0.01787 0.0060864
0.0388539 0.0197419 0.00587248
0.0766607 0.0190533 0.00580856
0.0779397 0.0194308 0.00576583
0.0583994 0.0216182 0.014869
0.0424878 0.0188132 0.00581899
0.0920805 0.0205253 0.0059177
0.065422 0.0179346 0.0082377
0.0509942 0.0225942 0.00934662
0.102423 0.0196788 0.00582979
0.0453636 0.0157749 0.00687326
0.377398 0.0174746 0.0084324
0.0507369 0.0203921 0.00594173
0.0512906 0.0231556 0.0105893
0.0440263 0.0170728 0.00623272
0.0564212 0.020647 0.00747246
0.0623827 0.0205847 0.00744343
0.0824671 0.0205532 0.00623389
0.059059 0.0180876 0.00593586
0.0594415 0.0173688 0.015483
0.0316007 0.0183082 0.00603438
0.0450517 0.0227729 0.00940399
0.0215463 0.0196109 0.00592744
0.0616931 0.0175044 0.00748571
0.0606161 0.014884 0.0108757
0.0610411 0.0153325 0.00936279
0.0242602 0.0201274 0.00583803
0.0462207 0.0222922 0.0143739
0.0372871 0.0161046 0.00837906
0.0430284 0.0154056 0.00935366
0.0504712 0.0179279 0.00611076
0.0371638 0.0187263 0.00573865
0.0328558 0.0191954 0.00572294
0.044465 0.0204317 0.00594645
0.0460006 0.0228678 0.013473
0.0649374 0.0181463 0.00580862
0.0829947 0.0213806 0.00646753
0.0557165 0.0176137 0.00749059
0.0350698 0.0188001 0.00572051
0.0420047 0.0154099 0.0137272
0.0667523 0.0199335 0.00579279
0.0534362 0.017432 0.0155131

VERTICES 88 176
1 0
1 1
1 2
1 3
1 4
1 5
1 6
1 7
1 8
1 9
1 10
1 11
1 12
1 13
1 14
1 15
1 16
1 17
1 18
1 19
1 20
1 21
1 22
1 23
1 24
1 25
1 26
1 27
1 28
1 29
1 30
1 31
1 32
1 33
1 34
1 35
1 36
1 37
1 38
1 39
1 40
1 41
1 42
1 43
1 44
1 45
1 46
1 47
1 48
1 49
1 50
1 51
1 52
1 53
1 54
1 55
1 56
1 57
1 58
1 59
1 60
1 61
1 62
1 63
1 64
1 65
1 66
1 67
1 68
1 69
1 70
1 71
1 72
1 73
1 74
1 75
1 76
1 77
1 78
1 79
1 80
1 81
1 82
1 83
1 84
1 85
1 86
1 87

POINT_DATA 88
SCALARS id int 1
LOOKUP_TABLE default
1
2
3
8
9
14
18
26
28
32
34
38
46
48
54
56
59
64
65
66
68
70
74
82
83
86
88
89
90
93
100
106
107
108
109
112
113
121
124
125
126
127
129
132
134
137
142
146
149
159
160
163
165
174
182
187
189
193
195
198
201
209
213
215
221
223
226
227
229
240
242
245
246
256
257
258
270
273
274
277
279
280
281
283
291
293
296
298

SCALARS type int 1
LOOKUP_TABLE default
1
1
1
1
1
1
1
1
1
1
1
1
1
1
1
1
1
1
1
1
1
1
1
1
1
1
1
1
1
1
1
1
1
1
1
1
1
1
1
1
1
1
1
1
1
1
1
1
1
1
1
1
1
1
1
1
1
1
1
1
1
1
1
1
1
1
1
1
1
1
1
1
1
1
1
1
1
1
1
1
1
1
1
1
1
1
1
1

SCALARS radius float 1
LOOKUP_TABLE default
0.0005
0.0005
0.0005
0.0005
0.0005
0.0005
0.0005
0.0005
0.0005
0.0005
0.0005
0.0005
0.0005
0.0005
0.0005
0.0005
0.0005
0.0005
0.0005
0.0005
0.0005
0.0005
0.0005
0.0005
0.0005
0.0005
0.0005
0.0005
0.0005
0.0005
0.0005
0.0005
0.0005
0.0005
0.0005
0.0005
0.0005
0.0005
0.0005
0.0005
0.0005
0.0005
0.0005
0.0005
0.0005
0.0005
0.0005
0.0005
0.0005
0.0005
0.0005
0.0005
0.0005
0.0005
0.0005
0.0005
0.0005
0.0005
0.0005
0.0005
0.0005
0.0005
0.0005
0.0005
0.0005
0.0005
0.0005
0.0005
0.0005
0.0005
0.0005
0.0005
0.0005
0.0005
0.0005
0.0005
0.0005
0.0005
0.0005
0.0005
0.0005
0.0005
0.0005
0.0005
0.0005
0.0005
0.0005
0.0005

SCALARS mass float 1
LOOKUP_TABLE default
1.46608e-07
1.46608e-07
1.46608e-07
1.46608e-07
1.46608e-07
1.46608e-07
1.46608e-07
1.46608e-07
1.46608e-07
1.46608e-07
1.46608e-07
1.46608e-07
1.46608e-07
1.46608e-07
1.46608e-07
1.46608e-07
1.46608e-07
1.46608e-07
1.46608e-07
1.46608e-07
1.46608e-07
1.46608e-07
1.46608e-07
1.46608e-07
1.46608e-07
1.46608e-07
1.46608e-07
1.46608e-07
1.46608e-07
1.46608e-07
1.46608e-07
1.46608e-07
1.46608e-07
1.46608e-07
1.46608e-07
1.46608e-07
1.46608e-07
1.46608e-07
1.46608e-07
1.46608e-07
1.46608e-07
1.46608e-07
1.46608e-07
1.46608e-07
1.46608e-07
1.46608e-07
1.46608e-07
1.46608e-07
1.46608e-07
1.46608e-07
1.46608e-07
1.46608e-07
1.46608e-07
1.46608e-07
1.46608e-07
1.46608e-07
1.46608e-07
1.46608e-07
1.46608e-07
1.46608e-07
1.46608e-07
1.46608e-07
1.46608e-07
1.46608e-07
1.46608e-07
1.46608e-07
1.46608e-07
1.46608e-07
1.46608e-07
1.46608e-07
1.46608e-07
1.46608e-07
1.46608e-07
1.46608e-07
1.46608e-07
1.46608e-07
1.46608e-07
1.46608e-07
1.46608e-07
1.46608e-07
1.46608e-07
1.46608e-07
1.46608e-07
1.46608e-07
1.46608e-07
1.46608e-07
1.46608e-07
1.46608e-07

VECTORS velocity float
-8.66589e-15 7.85693e-14 2.00898e-13
0.00046418 -0.018928 0.00298112
1.28065e-15 -3.73124e-14 1.36238e-13
-9.78482e-16 -4.35255e-15 -1.20042e-13
-2.70383e-19 1.03835e-18 -5.61371e-18
0.000969054 0.017012 0.00536223
1.78642e-20 7.25055e-21 -2.82648e-20
1.48743e-14 2.2434e-14 -1.76076e-13
-0.000277671 0.0159873 -0.012649
-4.52715e-15 -2.52971e-14 -1.74151e-13
8.16175e-16 4.00858e-15 9.33206e-14
0.00120868 0.00415686 -0.00285601
6.33202e-05 -0.0147542 0.0152927
0.00159135 0.0112686 -0.0130837
3.44438e-15 -1.65747e-14 -2.82398e-13
-1.58237e-14 -4.43642e-14 1.90571e-13
1.55604e-14 5.17924e-14 2.19688e-13
1.3003e-14 5.25627e-15 -1.0734e-13
3.94384e-15 5.47585e-14 -1.5184e-13
-2.63361e-17 -1.41712e-16 -9.79474e-16
0.00100952 0.00908843 0.0139669
0.00427986 -0.00233156 -0.000153374
0.000313406 0.00779213 0.0216967
0.00212584 -0.0126068 0.00847193
0.000326222 -0.00637852 0.0203857
-9.36332e-15 -5.05969e-14 2.04282e-13
-4.52778e-15 2.81787e-14 7.49178e-14
-4.35313e-15 -1.94144e-14 -1.3904e-13
0.000260767 -0.020639 0.00373117
0.00158783 0.0129966 0.00900538
4.94913e-05 0.00133246 -0.0236817
1.95907e-16 -2.75166e-15 -2.89974e-15
0.00152411 0.00550242 -0.0101757
0.000751053 -0.0193544 -0.0102782
0.00104225 -0.0102724 -0.0144891
0.00099971 0.010594 0.0173083
0.00069572 -0.00117059 0.0190402
0.000916593 -0.0149963 -0.00829272
-5.33416e-15 -2.31628e-14 -1.66016e-13
0.000220498 0.0187089 -0.0097439
-1.94457e-14 1.88017e-16 -2.28119e-13
2.57783e-15 -1.48854e-14 1.99835e-13
0.000207951 0.0214339 -0.00143989
0.00124229 -0.00571306 -0.0165389
0.000296605 0.0160342 0.0127526
-1.55913e-14 -3.19695e-14 -1.0479e-13
-3.12647e-15 -1.74657e-14 -1.20236e-13
-2.83293e-15 1.34613e-14 -6.65668e-14
-9.16462e-15 5.4937e-14 2.11159e-13
6.24547e-15 -3.81329e-14 -1.46471e-13
0.000225553 0.016493 -0.0130071
-4.51472e-15 1.3045e-14 7.16622e-14
-7.84776e-15 -7.28946e-14 1.85342e-13
0.00116185 0.00977523 -0.00279189
9.14935e-05 -0.0107819 -0.0193603
1.51068e-15 2.26813e-15 -1.78447e-14
2.76944e-17 -5.65349e-16 -6.90754e-16
-9.70491e-06 -0.00351226 0.00227744
-5.70953e-15 -2.04876e-14 -3.07615e-13
0.000753912 -0.00527675 -0.0183475
2.29638e-16 -6.6385e-16 -3.64347e-15
0.00235887 -0.0116756 -0.00388097
0.00309375 -0.00819395 -0.00346503
-9.52321e-15 -2.6713e-14 1.14757e-13
7.18864e-15 -1.49138e-14 -1.83491e-13
0.00132665 0.0139367 0.00615573
1.31883e-14 -4.47353e-14 -1.10002e-13
8.42433e-05 -0.0099254 -0.0196074
-1.81457e-14 8.13667e-15 -1.66092e-13
0.000714073 -0.0180836 0.00502396
-0.00792413 -0.0351512 -0.0076496
0.0010856 -0.0071535 0.00979684
-1.07574e-14 -1.73292e-15 1.75368e-13
5.89432e-05 0.0155657 -0.0162087
0.000981858 -0.0130629 0.0134528
0.000438655 -0.00998414 0.0173472
-3.69929e-15 -1.32327e-14 -1.98725e-13
3.80364e-15 -1.81878e-14 8.99484e-14
8.76271e-16 5.06752e-15 -1.96346e-14
-2.79121e-15 2.53299e-14 -8.03133e-14
0.00024447 0.00832889 -0.017875
-5.95557e-15 -1.47842e-14 -1.16641e-13
-3.49359e-16 2.91206e-15 -1.31071e-14
0.000524795 -0.0182182 0.00328919
-7.07562e-15 -4.06736e-14 1.57634e-13
0.000509764 0.0105082 0.017286
3.14135e-16 -9.53857e-15 3.48312e-14
0.00102718 0.0122958 0.00645765

VECTORS force float
-1.0482e-20 5.29396e-22 -6.35275e-22
-2.41385e-09 -1.07325e-08 1.19938e-08
-3.1053e-19 -9.21148e-21 4.23516e-22
1.00254e-21 -2.64698e-23 0.0
-1.90252e-23 7.61006e-23 0.0
-8.12083e-09 2.51291e-08 -1.05005e-10
0.0 0.0 0.0
1.61466e-19 -1.99979e-19 -1.2282e-20
1.81523e-09 -1.66165e-09 -1.29567e-08
1.65436e-21 5.29396e-23 0.0
-9.91842e-19 2.26198e-19 5.92923e-21
1.37057e-07 5.56497e-06 1.00702e-05
4.02768e-10 2.13985e-08 -1.19697e-09
-1.74812e-08 3.43735e-08 -3.99179e-08
8.85877e-20 2.79389e-20 -6.35275e-22
3.44107e-22 -5.45277e-21 -1.27055e-21
5.04474e-19 -1.22237e-19 -7.19978e-21
-4.88103e-20 -4.64942e-20 -8.04681e-21
8.70194e-21 -6.35275e-22 0.0
4.23516e-22 1.58819e-22 -2.11758e-22
-9.04926e-09 3.3759e-08 1.97936e-08
-4.58504e-06 1.04029e-05 -2.3044e-05
1.23862e-09 1.13425e-08 -4.60499e-09
-1.40765e-08 -3.07519e-08 2.5026e-08
-3.74031e-09 9.41973e-09 7.54478e-09
-1.461e-19 2.18111e-20 -2.11758e-21
-1.48826e-19 5.77041e-21 -1.07997e-20
-7.87476e-22 2.35581e-21 -6.35275e-22
-6.99862e-10 -4.85659e-09 1.16263e-08
-1.43228e-08 8.64952e-08 4.88882e-08
-8.27297e-11 -1.26161e-08 -1.23374e-09
-3.57342e-22 0.0 -1.05879e-22
-1.61397e-09 -2.76772e-08 5.53779e-08
-5.87553e-07 -2.75809e-06 -1.0775e-06
-4.55465e-10 -3.50153e-08 -4.31559e-09
-3.82746e-06 7.02448e-06 1.17496e-05
-4.61224e-09 1.10774e-08 1.33903e-08
-6.80927e-09 -2.74525e-08 -4.4704e-09
-1.56966e-19 2.05935e-20 1.90582e-21
-2.2568e-10 7.83004e-10 -1.28621e-08
-2.64698e-23 -1.0347e-20 0.0
8.49581e-20 1.64907e-20 0.0
8.85401e-09 -1.81093e-08 -1.20201e-08
5.98335e-09 -1.98667e-08 1.54372e-09
-1.38668e-09 1.20854e-08 -3.85121e-09
7.94093e-22 5.29396e-23 -2.11758e-22
2.2764e-21 2.64698e-23 -2.11758e-22
-9.92617e-23 0.0 0.0
7.0853e-20 8.89385e-21 1.90582e-21
1.78089e-19 4.12929e-20 -3.17637e-21
-1.04334e-09 -2.15866e-09 -1.19454e-08
-1.32349e-23 -5.29396e-23 0.0
6.61744e-24 0.0 0.0
-2.44654e-08 -1.64662e-07 2.23971e-08
-2.50929e-10 -1.07373e-08 3.52552e-09
-4.45222e-20 1.32349e-20 -1.90582e-21
-2.11758e-22 -1.05879e-22 4.23516e-22
1.06895e-09 -2.03826e-08 1.60764e-09
1.04556e-20 -3.32196e-21 2.11758e-22
-5.86215e-09 -1.45344e-08 -1.5655e-08
-1.98523e-22 0.0 0.0
-1.29049e-05 -2.59718e-05 1.64781e-06
-1.24588e-05 -4.16073e-05 -8.5789e-06
5.29396e-23 -5.29396e-23 2.11758e-22
3.30872e-21 1.12497e-21 0.0
4.50223e-09 -1.0214e-08 -1.42038e-08
5.24366e-20 5.29396e-22 4.87044e-21
-8.59728e-10 -1.15051e-08 1.92417e-09
0.0 2.24993e-22 0.0
1.1373e-09 1.93219e-08 1.18668e-08
-0.061873 -0.106615 -0.0148385
-4.9377e-09 -5.04913e-09 1.90534e-08
0.0 2.15067e-23 0.0
-1.42152e-09 -2.09772e-09 -1.18462e-08
-9.78077e-09 -1.18806e-08 2.18066e-08
-8.48544e-09 8.68288e-10 1.22659e-08
-2.21684e-22 9.26442e-23 0.0
6.62671e-20 1.90582e-21 -2.32934e-21
0.0 0.0 0.0
8.08916e-20 9.15854e-21 6.35275e-22
-2.40026e-09 -3.85209e-09 -1.61792e-08
1.39893e-20 -4.94985e-21 -2.11758e-22
4.93066e-20 -6.29981e-21 -2.75286e-21
-6.17909e-06 -1.7876e-05 1.86139e-05
7.5108e-20 -1.90582e-20 -1.90582e-21
-1.52162e-09 1.02796e-08 9.05276e-12
-2.85692e-20 3.70577e-22 2.11758e-22
-1.2838e-09 -2.41689e-08 -2.25371e-08
