# vtk DataFile Version 3.0
LIGGGHTS particles timestep 25400000
ASCII
DATASET POLYDATA
POINTS 89 float
0.0388307 0.0187336 0.00577146
0.0236752 0.015697 0.0144212
0.0464051 0.016397 0.00805824
0.0485848 0.0150124 0.0101478
0.0436892 0.020408 0.00596775
0.0281268 0.0217392 0.0148443
0.08261 0.0191091 0.00590955
0.103453 0.0178822 0.00580682
0.0377443 0.0187915 0.00724477
0.0458692 0.0166351 0.00629564
0.0572659 0.0174442 0.00591793
0.0391724 0.0233451 0.0108126
0.0418861 0.0150996 0.0132091
0.0449312 0.0229928 0.00988161
0.0438804 0.0194842 0.00720143
0.0469161 0.0184087 0.015744
0.0793161 0.0192087 0.00581236
0.0170063 0.0201419 0.00601043
0.0446552 0.0224813 0.00887544
0.0448873 0.0164493 0.00634816
0.046135 0.0217655 0.01487
0.0397635 0.0228561 0.01346
0.0283203 0.0210116 0.0153766
0.0294897 0.0161108 0.0146543
0.0475065 0.0162062 0.014709
0.0443229 0.0212131 0.00779645
0.0357086 0.0161117 0.00660683
0.0481126 0.014933 0.0122263
0.029713 0.0154481 0.0138502
0.0406288 0.0199078 0.0156046
0.0471538 0.0174011 0.0154856
0.0493669 0.0172991 0.00755087
0.0439552 0.0161318 0.00656318
0.038625 0.0223457 0.0087116
0.0483693 0.0148497 0.0109604
0.0408895 0.0185893 0.0156964
0.0341658 0.0216799 0.0147024
0.0344933 0.0203735 0.01549
0.0355073 0.0161467 0.014631
0.045819 0.0227758 0.0136998
0.0323921 0.0215065 0.00791248
0.0286258 0.0183498 0.00592583
0.0465309 0.0203285 0.0156039
0.0189677 0.0157769 0.00871532
0.0375061 0.0176833 0.007405
0.0369646 0.0157208 0.00881018
0.0238948 0.0168123 0.00667048
0.0470176 0.01787 0.0060864
0.0390565 0.0200205 0.00592023
0.0766607 0.0190533 0.00580856
0.0779397 0.0194308 0.00576583
0.038845 0.0229118 0.00959422
0.0424878 0.0188132 0.00581899
0.0920805 0.0205253 0.0059177
0.0317172 0.0186977 0.00719622
0.0303669 0.0147601 0.0110675
0.102423 0.0196788 0.00582979
0.0347057 0.0195256 0.0157832
0.377431 0.0174792 0.00842067
0.0507369 0.0203921 0.00594173
0.0313914 0.0173159 0.00754385
0.0440263 0.0170728 0.00623272
0.0363467 0.0148195 0.0111084
0.0424433 0.0148365 0.010649
0.0437055 0.0186228 0.00723996
0.059059 0.0180876 0.00593586
0.0404022 0.0207166 0.0154923
0.0316007 0.0183082 0.00603438
0.0257003 0.0185374 0.00723267
0.0215463 0.0196109 0.00592744
0.0421454 0.0148276 0.0122702
0.0414934 0.0162645 0.0147888
0.0416894 0.015558 0.0139868
0.0242602 0.0201274 0.00583803
0.0273742 0.0233688 0.0120064
0.0165878 0.0233402 0.0127086
0.0215563 0.0233702 0.0125291
0.0333459 0.0233538 0.0117561
0.0371638 0.0187263 0.00573865
0.0328558 0.0191954 0.00572294
0.0452026 0.0233355 0.0109841
0.0287582 0.0192046 0.0158249
0.0434946 0.0177705 0.00751064
0.0428087 0.015389 0.00930744
0.0358092 0.0153084 0.013521
0.0350698 0.0188001 0.00572051
0.0173123 0.0234899 0.0119159
0.0292881 0.0169837 0.0152791
0.0326448 0.0224817 0.00880494

VERTICES 89 178
1 0
1 1
1 2
1 3
1 4
1 5
1 6
1 7
1 8
1 9
1 10
1 11
1 12
1 13
1 14
1 15
1 16
1 17
1 18
1 19
1 20
1 21
1 22
1 23
1 24
1 25
1 26
1 27
1 28
1 29
1 30
1 31
1 32
1 33
1 34
1 35
1 36
1 37
1 38
1 39
1 40
1 41
1 42
1 43
1 44
1 45
1 46
1 47
1 48
1 49
1 50
1 51
1 52
1 53
1 54
1 55
1 56
1 57
1 58
1 59
1 60
1 61
1 62
1 63
1 64
1 65
1 66
1 67
1 68
1 69
1 70
1 71
1 72
1 73
1 74
1 75
1 76
1 77
1 78
1 79
1 80
1 81
1 82
1 83
1 84
1 85
1 86
1 87
1 88

POINT_DATA 89
SCALARS id int 1
LOOKUP_TABLE default
1
2
3
8
9
14
18
26
28
32
34
38
46
48
54
56
59
64
65
66
68
70
74
82
83
86
88
89
90
93
96
100
106
107
108
109
112
113
121
124
125
126
127
129
132
134
137
142
146
149
159
160
163
165
174
182
187
189
193
195
198
201
209
213
215
221
223
226
227
229
240
242
245
246
256
257
258
270
273
274
277
279
280
281
283
291
293
296
298

SCALARS type int 1
LOOKUP_TABLE default
1
1
1
1
1
1
1
1
1
1
1
1
1
1
1
1
1
1
1
1
1
1
1
1
1
1
1
1
1
1
1
1
1
1
1
1
1
1
1
1
1
1
1
1
1
1
1
1
1
1
1
1
1
1
1
1
1
1
1
1
1
1
1
1
1
1
1
1
1
1
1
1
1
1
1
1
1
1
1
1
1
1
1
1
1
1
1
1
1

SCALARS radius float 1
LOOKUP_TABLE default
0.0005
0.0005
0.0005
0.0005
0.0005
0.0005
0.0005
0.0005
0.0005
0.0005
0.0005
0.0005
0.0005
0.0005
0.0005
0.0005
0.0005
0.0005
0.0005
0.0005
0.0005
0.0005
0.0005
0.0005
0.0005
0.0005
0.0005
0.0005
0.0005
0.0005
0.0005
0.0005
0.0005
0.0005
0.0005
0.0005
0.0005
0.0005
0.0005
0.0005
0.0005
0.0005
0.0005
0.0005
0.0005
0.0005
0.0005
0.0005
0.0005
0.0005
0.0005
0.0005
0.0005
0.0005
0.0005
0.0005
0.0005
0.0005
0.0005
0.0005
0.0005
0.0005
0.0005
0.0005
0.0005
0.0005
0.0005
0.0005
0.0005
0.0005
0.0005
0.0005
0.0005
0.0005
0.0005
0.0005
0.0005
0.0005
0.0005
0.0005
0.0005
0.0005
0.0005
0.0005
0.0005
0.0005
0.0005
0.0005
0.0005

SCALARS mass float 1
LOOKUP_TABLE default
1.46608e-07
1.46608e-07
1.46608e-07
1.46608e-07
1.46608e-07
1.46608e-07
1.46608e-07
1.46608e-07
1.46608e-07
1.46608e-07
1.46608e-07
1.46608e-07
1.46608e-07
1.46608e-07
1.46608e-07
1.46608e-07
1.46608e-07
1.46608e-07
1.46608e-07
1.46608e-07
1.46608e-07
1.46608e-07
1.46608e-07
1.46608e-07
1.46608e-07
1.46608e-07
1.46608e-07
1.46608e-07
1.46608e-07
1.46608e-07
1.46608e-07
1.46608e-07
1.46608e-07
1.46608e-07
1.46608e-07
1.46608e-07
1.46608e-07
1.46608e-07
1.46608e-07
1.46608e-07
1.46608e-07
1.46608e-07
1.46608e-07
1.46608e-07
1.46608e-07
1.46608e-07
1.46608e-07
1.46608e-07
1.46608e-07
1.46608e-07
1.46608e-07
1.46608e-07
1.46608e-07
1.46608e-07
1.46608e-07
1.46608e-07
1.46608e-07
1.46608e-07
1.46608e-07
1.46608e-07
1.46608e-07
1.46608e-07
1.46608e-07
1.46608e-07
1.46608e-07
1.46608e-07
1.46608e-07
1.46608e-07
1.46608e-07
1.46608e-07
1.46608e-07
1.46608e-07
1.46608e-07
1.46608e-07
1.46608e-07
1.46608e-07
1.46608e-07
1.46608e-07
1.46608e-07
1.46608e-07
1.46608e-07
1.46608e-07
1.46608e-07
1.46608e-07
1.46608e-07
1.46608e-07
1.46608e-07
1.46608e-07
1.46608e-07

VECTORS velocity float
-9.67193e-15 8.71355e-14 2.22867e-13
0.00400366 0.00254106 0.00411638
-0.000245046 -0.0169383 0.0113639
0.00105705 -0.00465778 0.0150562
2.40348e-15 -2.04486e-14 6.48839e-14
0.000589138 0.0147926 -0.0129562
-1.80329e-14 -5.04995e-14 2.16941e-13
1.69149e-15 7.516e-15 2.07276e-13
-0.000314037 -0.021846 0.00084257
2.90719e-16 1.62413e-15 1.11821e-14
9.18373e-15 -1.90524e-14 -2.34434e-13
0.00134148 -0.00191791 -0.0135822
0.000813838 0.00818964 0.0183252
0.000335695 -0.00796126 -0.0195654
0.000530924 -0.0206028 -0.00278158
0.000209038 0.0213205 0.00380945
1.50362e-14 5.19346e-14 2.19691e-13
1.30206e-14 5.26197e-15 -1.07337e-13
0.000121127 -0.0126341 -0.0200046
-4.52801e-15 -2.52972e-14 -1.74151e-13
0.000656761 0.0152418 -0.0125768
0.000184343 0.0132517 -0.0178507
0.000338933 0.0197475 -0.00874423
0.00033683 0.0151403 0.0140835
0.00016163 0.0158737 0.0142655
0.00093512 -0.0203737 -0.0123985
-4.43273e-15 2.81894e-14 7.49195e-14
5.73803e-05 0.00352844 0.0214434
-0.000322953 0.0105462 0.020433
-0.0010669 0.021769 -0.00302472
0.0026895 0.0140626 0.00443752
0.00139416 -0.0134855 0.00568768
1.95456e-16 -2.75167e-15 -2.89974e-15
0.000290105 -0.0113439 -0.0150215
0.000461542 -0.00112265 0.0183708
0.000389419 0.0207488 0.00196843
-0.00249099 0.020323 -0.0147463
0.00115843 0.0164547 -0.00650397
0.00197013 0.00780959 0.00693567
0.000720362 0.00870279 -0.0165433
0.00106156 -0.0103482 -0.0071102
-1.94461e-14 1.84738e-16 -2.28118e-13
0.000149623 0.021041 -0.00587574
0.000134614 -0.0142729 0.0162723
0.00166435 -0.0163837 0.00520124
0.00017779 -0.0132053 0.0163556
-1.55923e-14 -3.19708e-14 -1.0479e-13
-3.12571e-15 -1.74655e-14 -1.20236e-13
-3.95794e-15 1.88472e-14 -9.3208e-14
-8.89907e-15 5.49569e-14 2.11165e-13
6.37928e-15 -3.8098e-14 -1.46474e-13
0.000210518 -0.00923729 -0.0190524
-4.51473e-15 1.30456e-14 7.16621e-14
-7.84801e-15 -7.28946e-14 1.85342e-13
0.000545717 -0.018382 0.000459203
-9.15568e-05 -0.00175243 0.0128542
1.52737e-15 2.26661e-15 -1.78435e-14
0.00206605 0.0121095 -0.000194422
-0.000169325 0.00168401 0.000754638
-5.72594e-15 -2.04836e-14 -3.07615e-13
0.00069182 -0.0137281 0.00518858
2.29595e-16 -6.63855e-16 -3.64347e-15
0.000153936 -0.0019905 0.0209402
0.00150324 -0.00284894 0.0166296
0.00101489 -0.0193253 0.00270541
7.18933e-15 -1.49129e-14 -1.83491e-13
0.00161779 0.0112773 -0.00479309
1.32215e-14 -4.4757e-14 -1.09989e-13
0.000247079 -0.0203678 0.00275736
-1.81457e-14 8.14342e-15 -1.66091e-13
7.65068e-05 0.00267687 0.0222636
-7.20581e-05 0.0165444 0.0157513
0.00114926 0.0116966 0.0155977
-1.07574e-14 -1.726e-15 1.75368e-13
0.000329865 0.00226175 -0.0202356
0.00220092 0.00169654 -0.000265307
0.00138889 0.000225998 -0.00248928
0.000229678 0.000965573 -0.0209698
3.81268e-15 -1.81882e-14 8.9948e-14
8.76317e-16 5.06752e-15 -1.96346e-14
0.00243123 -0.0027035 -0.0129238
0.00130887 0.015839 -0.00210879
-0.000117905 -0.0214748 0.00836168
0.000381187 -0.00851462 0.0163475
0.000157374 0.00990523 0.0188682
-7.0725e-15 -4.06808e-14 1.57632e-13
0.00354811 0.00162907 -0.0009448
0.000386995 0.0184607 0.0108517
0.00110097 -0.0114754 -0.0140717

VECTORS force float
-2.26826e-19 -4.12929e-21 -9.31736e-21
-2.8214e-10 -6.11643e-09 8.64515e-09
-1.24495e-08 6.16772e-08 -3.9173e-08
-6.84583e-09 1.27769e-08 7.75857e-08
9.04605e-21 -2.64698e-22 -2.11758e-22
-2.82026e-09 6.4718e-10 -1.63197e-08
3.69518e-20 1.6623e-20 1.05879e-21
-3.20946e-21 -8.00711e-22 -2.11758e-22
8.0114e-09 -5.11762e-08 1.48968e-08
-7.27919e-23 -1.85288e-22 0.0
-6.00864e-21 -2.89844e-21 0.0
-2.50713e-09 -2.39475e-08 2.19861e-08
-1.03189e-08 1.46798e-08 1.56443e-08
-3.2439e-09 -1.22706e-08 -1.86491e-09
-2.70122e-09 -1.39685e-08 5.05852e-09
-1.40927e-09 6.1031e-09 -9.85422e-09
-1.63954e-19 -2.5411e-21 1.01644e-20
-9.39677e-21 -2.99241e-20 -3.59989e-21
2.54917e-09 -1.00875e-08 5.31752e-09
-1.17129e-21 -5.29396e-23 0.0
-3.71505e-09 3.96293e-09 -1.49853e-08
3.26483e-10 -7.05722e-09 -5.83214e-09
1.19901e-09 -1.43899e-09 -1.09162e-08
-1.5621e-09 1.36955e-08 -1.13484e-09
-1.89328e-09 1.14948e-08 -5.29917e-09
-6.25735e-09 3.01778e-08 -1.73718e-08
-1.76606e-19 -3.53107e-20 2.32934e-21
3.43911e-10 1.16832e-08 2.45387e-09
-1.72004e-09 9.90342e-09 -4.36553e-09
-3.97879e-09 -7.65027e-09 2.53082e-09
-3.51382e-09 -1.10313e-08 -1.50311e-08
3.00346e-08 -1.05785e-07 -1.07901e-07
3.97047e-22 0.0 0.0
3.57472e-09 -4.18686e-08 -9.85408e-09
-2.63512e-09 6.09224e-09 2.22577e-08
-2.3925e-09 7.10435e-09 -1.00946e-08
1.7234e-09 -1.28909e-08 3.78521e-08
-5.11103e-09 1.61401e-08 -1.55315e-08
-1.63359e-08 -1.52724e-08 2.44475e-08
-3.08064e-09 -4.18048e-09 -1.69264e-08
2.91388e-09 1.25971e-08 1.82922e-08
-1.05879e-22 1.89342e-21 0.0
-2.11465e-09 4.44237e-09 -1.23838e-08
-1.47368e-09 2.47678e-09 1.22459e-08
-1.72406e-08 -1.94374e-08 2.46102e-08
-7.44587e-10 3.84372e-09 1.12592e-08
-1.58819e-22 -5.55865e-21 1.69407e-21
-5.02926e-22 -2.64698e-23 0.0
4.06576e-20 9.3703e-21 2.11758e-22
-1.76395e-19 -3.38072e-19 7.94093e-20
1.63921e-19 3.26637e-20 -2.5411e-21
-8.33474e-10 -1.20606e-08 -2.65957e-10
0.0 0.0 0.0
-1.65436e-22 0.0 0.0
2.92344e-09 1.40876e-08 2.88253e-08
1.04533e-05 -2.84737e-06 -3.30316e-05
6.61744e-21 -1.56172e-21 6.35275e-22
-2.46757e-09 -1.74467e-08 -2.14515e-09
6.38311e-09 -7.08872e-08 1.2859e-08
-1.14813e-21 -8.60268e-22 2.11758e-22
3.80755e-09 1.2374e-08 4.00034e-09
2.77933e-22 0.0 0.0
-1.06131e-09 1.06993e-08 6.26935e-09
-6.42068e-09 9.6295e-09 3.06436e-08
-1.34994e-08 -3.47349e-08 1.96449e-08
1.24143e-20 6.23363e-21 0.0
-5.19585e-09 -5.88219e-09 1.29266e-10
-5.68041e-20 6.19393e-20 -3.36696e-20
-1.08782e-09 -5.52231e-09 1.08816e-08
0.0 1.58819e-22 0.0
-4.7424e-10 1.28032e-08 2.0978e-09
-7.28709e-10 9.8111e-09 -7.28645e-09
-1.50704e-08 1.50665e-08 1.45527e-08
-3.44107e-22 -1.15805e-23 2.11758e-22
-9.13987e-10 -9.7507e-09 -9.71832e-09
-6.59575e-10 9.08327e-09 -3.82341e-09
-2.00013e-09 3.57384e-09 -1.45561e-09
-1.90929e-09 -7.88727e-09 -9.62192e-09
4.27024e-20 7.83505e-21 2.11758e-22
-9.26442e-23 0.0 0.0
3.78046e-07 1.23846e-06 3.88977e-06
-5.81945e-09 1.47142e-07 -2.9071e-08
-4.17621e-08 -8.88214e-08 1.83549e-08
-1.72784e-08 -3.77557e-08 1.44536e-07
-1.27558e-09 1.16465e-08 -6.74521e-10
-1.33672e-20 3.65283e-21 2.11758e-22
-1.21201e-06 -3.39373e-07 2.06469e-06
5.15061e-10 6.02685e-09 -8.7455e-09
-1.54192e-08 -5.55711e-08 -3.32631e-08
