# vtk DataFile Version 3.0
LIGGGHTS particles timestep 85000000
ASCII
DATASET POLYDATA
POINTS 88 float
0.0387146 0.0187573 0.00575718
0.0515454 0.0203376 0.00592249
0.0657625 0.0198039 0.00576669
0.102543 0.017821 0.00581645
0.0387828 0.0214812 0.00622724
0.191105 0.0203026 0.00593314
0.0819644 0.018662 0.00575674
0.10448 0.0180949 0.00580371
0.0800401 0.0168845 0.00628905
0.0458896 0.0168235 0.00626774
0.0564645 0.0213699 0.00635393
0.0970216 0.0171166 0.0153576
0.136461 0.0187737 0.0058834
0.0822817 0.0172512 0.00607537
0.0652975 0.0207687 0.00603532
0.0870153 0.0206158 0.00591409
0.0792518 0.0191834 0.00582281
0.0170063 0.0201419 0.00601043
0.0643606 0.0210989 0.00615793
0.0448733 0.0164686 0.00634571
0.0803045 0.0192159 0.005743
0.0811915 0.017199 0.00615598
0.0615774 0.0172559 0.00608456
0.063441 0.0163701 0.00647495
0.0855075 0.019144 0.00579031
0.0829173 0.0222111 0.0066532
0.0357086 0.0161117 0.00660683
0.0618809 0.0199413 0.00582959
0.0845463 0.0178241 0.00589851
0.11021 0.0201465 0.00580174
0.0830136 0.0187071 0.00584947
0.0439552 0.0161318 0.00656318
0.0782305 0.0203396 0.00602091
0.0822914 0.0196163 0.00600118
0.0732237 0.018766 0.005768
0.0644815 0.0190744 0.00573853
0.0683453 0.0182317 0.00578271
0.0609817 0.0187588 0.00589337
0.0609012 0.0197493 0.00575757
0.0634974 0.0172463 0.00599641
0.0286258 0.0183498 0.00592583
0.0888729 0.0199317 0.00596406
0.0601285 0.017977 0.00598674
0.0626638 0.0179373 0.00595165
0.0644862 0.0176438 0.00589539
0.0238948 0.0168123 0.00667048
0.042543 0.0198089 0.00582143
0.0388539 0.0197419 0.00587248
0.0766607 0.0190533 0.00580856
0.0779381 0.019417 0.00576935
0.0620021 0.0189487 0.00583492
0.0424897 0.0188104 0.00581963
0.0920805 0.0205253 0.0059177
0.0861468 0.0174506 0.00844429
0.0557406 0.0175302 0.00596599
0.102423 0.0196788 0.00582979
0.0453636 0.0157749 0.00687326
0.377404 0.0175674 0.00838522
0.0505919 0.0207133 0.00592302
0.0643736 0.0166453 0.00623285
0.0440263 0.0170728 0.00623272
0.0799751 0.0180833 0.00603206
0.0810479 0.0182624 0.00591498
0.0824664 0.0205903 0.00624245
0.0595038 0.0223955 0.00675756
0.063626 0.0183177 0.00585415
0.0316007 0.0183082 0.00603438
0.0584979 0.0201946 0.00586451
0.0215463 0.0196109 0.00592744
0.0690612 0.017564 0.00598647
0.0636055 0.0197465 0.00578044
0.0991056 0.0170162 0.00766459
0.0242602 0.0201274 0.00583803
0.0816858 0.0195152 0.00733303
0.0567438 0.01754 0.00591345
0.061759 0.0163729 0.00651709
0.0504712 0.0179279 0.00611076
0.0371638 0.0187263 0.00573865
0.0328558 0.0191954 0.00572294
0.044465 0.0204317 0.00594645
0.0625324 0.0169121 0.00611939
0.066033 0.0188309 0.00577203
0.0833983 0.0210192 0.00634375
0.0634582 0.0174575 0.00843106
0.0350698 0.0188001 0.00572051
0.0623373 0.0157218 0.00700852
0.0667607 0.0199247 0.00579031
0.0801544 0.0202323 0.00596714

VERTICES 88 176
1 0
1 1
1 2
1 3
1 4
1 5
1 6
1 7
1 8
1 9
1 10
1 11
1 12
1 13
1 14
1 15
1 16
1 17
1 18
1 19
1 20
1 21
1 22
1 23
1 24
1 25
1 26
1 27
1 28
1 29
1 30
1 31
1 32
1 33
1 34
1 35
1 36
1 37
1 38
1 39
1 40
1 41
1 42
1 43
1 44
1 45
1 46
1 47
1 48
1 49
1 50
1 51
1 52
1 53
1 54
1 55
1 56
1 57
1 58
1 59
1 60
1 61
1 62
1 63
1 64
1 65
1 66
1 67
1 68
1 69
1 70
1 71
1 72
1 73
1 74
1 75
1 76
1 77
1 78
1 79
1 80
1 81
1 82
1 83
1 84
1 85
1 86
1 87

POINT_DATA 88
SCALARS id int 1
LOOKUP_TABLE default
1
2
3
8
9
14
18
26
28
32
34
38
46
48
54
56
59
64
65
66
68
70
74
82
83
86
88
89
90
93
100
106
107
108
109
112
113
121
124
125
126
127
129
132
134
137
142
146
149
159
160
163
165
174
182
187
189
193
195
198
201
209
213
215
221
223
226
227
229
240
242
245
246
256
257
258
270
273
274
277
279
280
281
283
291
293
296
298

SCALARS type int 1
LOOKUP_TABLE default
1
1
1
1
1
1
1
1
1
1
1
1
1
1
1
1
1
1
1
1
1
1
1
1
1
1
1
1
1
1
1
1
1
1
1
1
1
1
1
1
1
1
1
1
1
1
1
1
1
1
1
1
1
1
1
1
1
1
1
1
1
1
1
1
1
1
1
1
1
1
1
1
1
1
1
1
1
1
1
1
1
1
1
1
1
1
1
1

SCALARS radius float 1
LOOKUP_TABLE default
0.0005
0.0005
0.0005
0.0005
0.0005
0.0005
0.0005
0.0005
0.0005
0.0005
0.0005
0.0005
0.0005
0.0005
0.0005
0.0005
0.0005
0.0005
0.0005
0.0005
0.0005
0.0005
0.0005
0.0005
0.0005
0.0005
0.0005
0.0005
0.0005
0.0005
0.0005
0.0005
0.0005
0.0005
0.0005
0.0005
0.0005
0.0005
0.0005
0.0005
0.0005
0.0005
0.0005
0.0005
0.0005
0.0005
0.0005
0.0005
0.0005
0.0005
0.0005
0.0005
0.0005
0.0005
0.0005
0.0005
0.0005
0.0005
0.0005
0.0005
0.0005
0.0005
0.0005
0.0005
0.0005
0.0005
0.0005
0.0005
0.0005
0.0005
0.0005
0.0005
0.0005
0.0005
0.0005
0.0005
0.0005
0.0005
0.0005
0.0005
0.0005
0.0005
0.0005
0.0005
0.0005
0.0005
0.0005
0.0005

SCALARS mass float 1
LOOKUP_TABLE default
1.46608e-07
1.46608e-07
1.46608e-07
1.46608e-07
1.46608e-07
1.46608e-07
1.46608e-07
1.46608e-07
1.46608e-07
1.46608e-07
1.46608e-07
1.46608e-07
1.46608e-07
1.46608e-07
1.46608e-07
1.46608e-07
1.46608e-07
1.46608e-07
1.46608e-07
1.46608e-07
1.46608e-07
1.46608e-07
1.46608e-07
1.46608e-07
1.46608e-07
1.46608e-07
1.46608e-07
1.46608e-07
1.46608e-07
1.46608e-07
1.46608e-07
1.46608e-07
1.46608e-07
1.46608e-07
1.46608e-07
1.46608e-07
1.46608e-07
1.46608e-07
1.46608e-07
1.46608e-07
1.46608e-07
1.46608e-07
1.46608e-07
1.46608e-07
1.46608e-07
1.46608e-07
1.46608e-07
1.46608e-07
1.46608e-07
1.46608e-07
1.46608e-07
1.46608e-07
1.46608e-07
1.46608e-07
1.46608e-07
1.46608e-07
1.46608e-07
1.46608e-07
1.46608e-07
1.46608e-07
1.46608e-07
1.46608e-07
1.46608e-07
1.46608e-07
1.46608e-07
1.46608e-07
1.46608e-07
1.46608e-07
1.46608e-07
1.46608e-07
1.46608e-07
1.46608e-07
1.46608e-07
1.46608e-07
1.46608e-07
1.46608e-07
1.46608e-07
1.46608e-07
1.46608e-07
1.46608e-07
1.46608e-07
1.46608e-07
1.46608e-07
1.46608e-07
1.46608e-07
1.46608e-07
1.46608e-07
1.46608e-07

VECTORS velocity float
-8.67043e-15 7.85637e-14 2.00899e-13
1.0546e-14 2.65501e-14 3.50784e-13
-1.32108e-15 3.97329e-14 -1.45084e-13
-9.78464e-16 -4.35255e-15 -1.20042e-13
-2.7279e-19 1.06067e-18 -5.69459e-18
-1.12284e-14 -4.38017e-14 9.73355e-14
1.34796e-14 4.56299e-14 1.93312e-13
1.49818e-14 2.2374e-14 -1.76074e-13
-1.13558e-15 -7.29121e-15 -3.41145e-14
-4.52798e-15 -2.52969e-14 -1.74151e-13
-8.65047e-16 -1.50184e-14 3.21089e-14
-0.081052 1.093 -3.44264
2.05723e-15 3.12745e-15 -2.90498e-14
6.66706e-16 3.61518e-14 1.18632e-13
-1.12877e-15 3.25658e-14 -1.18914e-13
3.22108e-15 5.89871e-15 -3.89487e-14
6.38163e-15 2.14805e-14 9.11012e-14
1.30399e-14 5.25049e-15 -1.07336e-13
9.85068e-15 -6.28953e-14 2.05619e-13
-2.65927e-17 -1.41453e-16 -9.789e-16
-9.52816e-15 -2.67153e-14 1.14756e-13
4.51288e-15 1.5277e-14 6.47201e-14
-7.75499e-16 -3.42867e-15 -2.45361e-14
5.25456e-16 7.53486e-15 9.64815e-15
-2.80433e-15 1.60116e-14 -2.15085e-13
2.53191e-15 -1.23268e-14 5.62303e-14
-4.43866e-15 2.81869e-14 7.49201e-14
-3.76752e-16 -5.21831e-15 1.44541e-14
-1.70437e-15 5.08495e-14 1.75601e-13
8.83579e-16 6.44497e-15 -3.33562e-14
-9.52944e-15 -2.67155e-14 1.14756e-13
1.95386e-16 -2.75149e-15 -2.89951e-15
3.20367e-15 8.85621e-15 -1.65755e-14
7.16661e-15 2.00956e-14 -8.63169e-14
1.04016e-14 -5.91985e-14 -1.63385e-13
7.98065e-16 -3.78212e-15 -6.44673e-14
7.82593e-18 1.40392e-17 5.06786e-16
-4.35076e-15 -1.94152e-14 -1.3904e-13
-5.19423e-15 -2.31833e-14 -1.66017e-13
6.58053e-16 1.62627e-15 1.28418e-14
-1.94459e-14 1.82676e-16 -2.28119e-13
-1.22808e-15 -2.21777e-15 1.47226e-14
-1.08869e-14 2.26374e-14 2.78393e-13
-7.36519e-15 -1.81919e-14 -1.43647e-13
-5.98057e-15 -1.47718e-14 -1.16641e-13
-1.55915e-14 -3.19686e-14 -1.04791e-13
-9.28747e-17 7.93248e-16 -2.51206e-15
-2.83455e-15 1.34604e-14 -6.65668e-14
-9.21177e-15 5.51097e-14 2.11112e-13
8.67311e-16 -5.23483e-15 -2.00917e-14
4.50421e-16 2.02106e-15 1.44345e-14
1.57822e-16 -4.58024e-16 -2.51022e-15
-7.84834e-15 -7.28946e-14 1.85342e-13
5.77943e-05 0.0027086 -0.00196408
-5.64403e-15 -7.64636e-15 -1.08969e-13
1.50886e-15 2.27645e-15 -1.78438e-14
2.73459e-17 -5.64834e-16 -6.89702e-16
-6.57852e-05 0.00233766 -0.00220323
6.74636e-15 1.8938e-14 2.6288e-13
-9.28354e-16 8.92617e-14 2.24984e-13
2.2947e-16 -6.6392e-16 -3.64325e-15
1.34766e-14 4.563e-14 1.93312e-13
1.0644e-15 3.60235e-15 1.52616e-14
-1.03968e-15 -2.92687e-15 1.2572e-14
9.40332e-17 -1.68153e-15 4.05847e-15
-7.36702e-15 -1.81943e-14 -1.43646e-13
1.31913e-14 -4.47526e-14 -1.09994e-13
3.22874e-16 4.87929e-15 -1.04429e-14
-1.81472e-14 8.14349e-15 -1.66091e-13
-1.68189e-17 1.76947e-16 4.66257e-16
6.28551e-15 -4.01368e-14 1.31216e-13
0.0016085 -0.0139212 0.0067568
-1.07556e-14 -1.726e-15 1.75368e-13
8.76429e-05 -0.0217527 -0.00333301
-9.83941e-15 -1.33777e-14 -1.90504e-13
1.19798e-15 -1.36764e-14 -1.95149e-14
-3.69954e-15 -1.32327e-14 -1.98725e-13
3.81136e-15 -1.81884e-14 8.9948e-14
8.76298e-16 5.06752e-15 -1.96346e-14
-3.15162e-15 2.53144e-14 -8.03048e-14
-3.84704e-16 3.70491e-14 9.33836e-14
2.17773e-15 -1.03767e-14 -1.76838e-13
2.36846e-14 -4.02469e-14 1.90902e-13
-4.58535e-05 0.00126458 -0.00238413
-7.06989e-15 -4.06762e-14 1.57633e-13
1.16298e-15 -1.36936e-14 -1.95104e-14
-4.10086e-16 1.19611e-14 -4.36766e-14
-1.80054e-14 -5.05071e-14 2.16941e-13

VECTORS force float
-1.54186e-21 0.0 0.0
6.46988e-20 2.68933e-20 -3.38813e-21
0.0 -1.05879e-22 0.0
-1.50547e-22 1.98523e-23 0.0
-7.7755e-23 -1.58819e-22 0.0
-8.20563e-22 -1.05879e-22 -2.11758e-22
9.39677e-22 0.0 -2.11758e-22
-8.02034e-21 1.2679e-20 4.23516e-22
1.85288e-22 0.0 0.0
-1.21099e-21 7.94093e-22 -2.11758e-22
-3.4193e-19 -4.34104e-21 -6.77626e-21
1.92685 -0.400409 2.40769
-7.10449e-20 3.46754e-20 -8.47033e-22
-3.39144e-22 0.0 0.0
-1.30033e-21 -5.29396e-23 0.0
0.0 2.64698e-23 0.0
1.45584e-19 -1.07203e-19 1.41878e-20
1.20093e-19 4.57927e-21 1.50348e-20
-2.77933e-22 -1.58819e-22 0.0
-2.64698e-22 -1.05879e-22 0.0
0.0 0.0 0.0
1.32349e-22 -1.05879e-22 0.0
6.35275e-22 2.11758e-22 0.0
7.61006e-23 0.0 0.0
-3.44107e-22 6.61744e-23 0.0
1.0032e-20 1.37643e-21 2.11758e-22
-4.64148e-20 -2.22346e-21 -1.27055e-21
1.98523e-23 -2.64698e-23 0.0
-3.34628e-20 -5.29396e-23 -4.23516e-22
7.44463e-21 1.05879e-22 2.11758e-22
1.19114e-22 0.0 0.0
7.94093e-23 0.0 0.0
-1.05879e-22 0.0 0.0
-1.46907e-21 -5.29396e-23 -2.11758e-22
-1.57495e-20 2.46169e-20 -8.47033e-21
-4.63221e-23 0.0 0.0
2.64698e-23 -2.64698e-23 0.0
1.07864e-21 1.32349e-22 -2.11758e-22
0.0 0.0 0.0
6.61744e-24 0.0 0.0
2.11758e-22 3.05484e-20 2.11758e-22
3.11417e-20 -1.01115e-20 1.05879e-21
2.3214e-20 2.17846e-20 2.11758e-22
-2.59404e-21 6.35275e-22 0.0
1.08526e-21 5.29396e-23 0.0
-5.02926e-22 3.17637e-22 2.11758e-22
-4.96308e-23 0.0 0.0
3.5271e-21 5.29396e-23 0.0
-1.88141e-19 1.94129e-19 -6.03511e-20
-2.64698e-23 1.05879e-22 2.11758e-22
-1.98523e-23 0.0 0.0
-7.61006e-23 0.0 0.0
0.0 0.0 0.0
3.32291e-10 3.8797e-08 -4.28555e-08
-8.02828e-20 4.41251e-20 -6.35275e-22
2.44581e-20 -1.51407e-20 4.23516e-22
2.11758e-22 2.11758e-22 -2.11758e-22
1.03325e-10 2.53475e-08 -3.44038e-08
3.70577e-22 -1.32349e-22 0.0
-5.29396e-23 -2.11758e-22 0.0
1.98523e-22 0.0 0.0
-5.67777e-21 1.48231e-21 2.11758e-22
5.16161e-22 3.17637e-22 0.0
-4.22193e-21 -4.65868e-21 -1.48231e-21
-9.65287e-20 -4.76456e-21 1.27055e-21
4.75133e-21 -2.17052e-21 2.11758e-22
2.99903e-20 1.3129e-20 -1.90582e-21
-6.61744e-24 2.11758e-22 2.11758e-22
7.83505e-21 3.97047e-23 -8.47033e-22
-2.64698e-23 0.0 0.0
1.08526e-21 0.0 -2.11758e-22
1.55282e-08 7.08993e-08 -2.5795e-08
0.0 -1.65436e-24 0.0
-8.97628e-10 -4.22162e-09 1.14368e-08
4.52633e-21 -1.05879e-22 0.0
2.91168e-22 -2.64698e-23 5.29396e-23
5.63475e-21 7.94093e-23 -2.11758e-22
1.41812e-20 2.91168e-21 -2.11758e-22
-5.29396e-23 0.0 0.0
-8.77539e-20 -2.3664e-20 -4.23516e-21
-1.3091e-20 -2.11758e-22 -2.11758e-22
-4.33906e-20 -6.96155e-21 -2.11758e-22
1.79995e-21 3.97047e-21 -8.47033e-22
-1.66266e-10 8.50472e-08 -7.29765e-08
-6.14099e-21 -8.47033e-22 -4.23516e-22
-5.29396e-23 -3.17637e-22 0.0
-1.35128e-20 -9.52912e-22 -2.11758e-22
6.49833e-21 -2.06464e-21 0.0
