# vtk DataFile Version 3.0
LIGGGHTS particles timestep 86800000
ASCII
DATASET POLYDATA
POINTS 88 float
0.0387146 0.0187573 0.00575718
0.0515454 0.0203376 0.00592249
0.0657625 0.0198039 0.00576669
0.102543 0.017821 0.00581645
0.0387828 0.0214812 0.00622724
0.191105 0.0203026 0.00593314
0.0819644 0.018662 0.00575674
0.10448 0.0180949 0.00580371
0.0800401 0.0168845 0.00628905
0.0458896 0.0168235 0.00626774
0.0564645 0.0213699 0.00635393
0.0985403 0.0228145 0.0136575
0.136461 0.0187737 0.0058834
0.0822817 0.0172512 0.00607537
0.0652975 0.0207687 0.00603532
0.0870153 0.0206158 0.00591409
0.0792518 0.0191834 0.00582281
0.0170063 0.0201419 0.00601043
0.0643606 0.0210989 0.00615793
0.0448733 0.0164686 0.00634571
0.0803045 0.0192159 0.005743
0.0811915 0.017199 0.00615598
0.0615774 0.0172559 0.00608456
0.063441 0.0163701 0.00647495
0.0855075 0.019144 0.00579031
0.0829173 0.0222111 0.0066532
0.0357086 0.0161117 0.00660683
0.0618809 0.0199413 0.00582959
0.0845463 0.0178241 0.00589851
0.11021 0.0201465 0.00580174
0.0830136 0.0187071 0.00584947
0.0439552 0.0161318 0.00656318
0.0782305 0.0203396 0.00602091
0.0822914 0.0196163 0.00600118
0.0732237 0.018766 0.005768
0.0644815 0.0190744 0.00573853
0.0683453 0.0182317 0.00578271
0.0609817 0.0187588 0.00589337
0.0609012 0.0197493 0.00575757
0.0634974 0.0172463 0.00599641
0.0286258 0.0183498 0.00592583
0.0888729 0.0199317 0.00596406
0.0601285 0.017977 0.00598674
0.0626638 0.0179373 0.00595165
0.0644862 0.0176438 0.00589539
0.0238948 0.0168123 0.00667048
0.042543 0.0198089 0.00582143
0.0388539 0.0197419 0.00587248
0.0766607 0.0190533 0.00580856
0.0779381 0.019417 0.00576935
0.0620021 0.0189487 0.00583492
0.0424897 0.0188104 0.00581963
0.0920805 0.0205253 0.0059177
0.0861592 0.0175027 0.00841812
0.0557406 0.0175302 0.00596599
0.102423 0.0196788 0.00582979
0.0453636 0.0157749 0.00687326
0.377389 0.0175782 0.00838127
0.0505919 0.0207133 0.00592302
0.0643736 0.0166453 0.00623285
0.0440263 0.0170728 0.00623272
0.0799751 0.0180833 0.00603206
0.0810479 0.0182624 0.00591498
0.0824664 0.0205903 0.00624245
0.0595038 0.0223955 0.00675756
0.063626 0.0183177 0.00585415
0.0316007 0.0183082 0.00603438
0.0584979 0.0201946 0.00586451
0.0215463 0.0196109 0.00592744
0.0690612 0.017564 0.00598647
0.0636055 0.0197465 0.00578044
0.100818 0.0148729 0.0124578
0.0242602 0.0201274 0.00583803
0.0836557 0.0157452 0.00875117
0.0567438 0.01754 0.00591345
0.061759 0.0163729 0.00651709
0.0504712 0.0179279 0.00611076
0.0371638 0.0187263 0.00573865
0.0328558 0.0191954 0.00572294
0.044465 0.0204317 0.00594645
0.0625324 0.0169121 0.00611939
0.066033 0.0188309 0.00577203
0.0833983 0.0210192 0.00634375
0.063477 0.0174979 0.00842158
0.0350698 0.0188001 0.00572051
0.0623373 0.0157218 0.00700852
0.0667607 0.0199247 0.00579031
0.0801544 0.0202323 0.00596714

VERTICES 88 176
1 0
1 1
1 2
1 3
1 4
1 5
1 6
1 7
1 8
1 9
1 10
1 11
1 12
1 13
1 14
1 15
1 16
1 17
1 18
1 19
1 20
1 21
1 22
1 23
1 24
1 25
1 26
1 27
1 28
1 29
1 30
1 31
1 32
1 33
1 34
1 35
1 36
1 37
1 38
1 39
1 40
1 41
1 42
1 43
1 44
1 45
1 46
1 47
1 48
1 49
1 50
1 51
1 52
1 53
1 54
1 55
1 56
1 57
1 58
1 59
1 60
1 61
1 62
1 63
1 64
1 65
1 66
1 67
1 68
1 69
1 70
1 71
1 72
1 73
1 74
1 75
1 76
1 77
1 78
1 79
1 80
1 81
1 82
1 83
1 84
1 85
1 86
1 87

POINT_DATA 88
SCALARS id int 1
LOOKUP_TABLE default
1
2
3
8
9
14
18
26
28
32
34
38
46
48
54
56
59
64
65
66
68
70
74
82
83
86
88
89
90
93
100
106
107
108
109
112
113
121
124
125
126
127
129
132
134
137
142
146
149
159
160
163
165
174
182
187
189
193
195
198
201
209
213
215
221
223
226
227
229
240
242
245
246
256
257
258
270
273
274
277
279
280
281
283
291
293
296
298

SCALARS type int 1
LOOKUP_TABLE default
1
1
1
1
1
1
1
1
1
1
1
1
1
1
1
1
1
1
1
1
1
1
1
1
1
1
1
1
1
1
1
1
1
1
1
1
1
1
1
1
1
1
1
1
1
1
1
1
1
1
1
1
1
1
1
1
1
1
1
1
1
1
1
1
1
1
1
1
1
1
1
1
1
1
1
1
1
1
1
1
1
1
1
1
1
1
1
1

SCALARS radius float 1
LOOKUP_TABLE default
0.0005
0.0005
0.0005
0.0005
0.0005
0.0005
0.0005
0.0005
0.0005
0.0005
0.0005
0.0005
0.0005
0.0005
0.0005
0.0005
0.0005
0.0005
0.0005
0.0005
0.0005
0.0005
0.0005
0.0005
0.0005
0.0005
0.0005
0.0005
0.0005
0.0005
0.0005
0.0005
0.0005
0.0005
0.0005
0.0005
0.0005
0.0005
0.0005
0.0005
0.0005
0.0005
0.0005
0.0005
0.0005
0.0005
0.0005
0.0005
0.0005
0.0005
0.0005
0.0005
0.0005
0.0005
0.0005
0.0005
0.0005
0.0005
0.0005
0.0005
0.0005
0.0005
0.0005
0.0005
0.0005
0.0005
0.0005
0.0005
0.0005
0.0005
0.0005
0.0005
0.0005
0.0005
0.0005
0.0005
0.0005
0.0005
0.0005
0.0005
0.0005
0.0005
0.0005
0.0005
0.0005
0.0005
0.0005
0.0005

SCALARS mass float 1
LOOKUP_TABLE default
1.46608e-07
1.46608e-07
1.46608e-07
1.46608e-07
1.46608e-07
1.46608e-07
1.46608e-07
1.46608e-07
1.46608e-07
1.46608e-07
1.46608e-07
1.46608e-07
1.46608e-07
1.46608e-07
1.46608e-07
1.46608e-07
1.46608e-07
1.46608e-07
1.46608e-07
1.46608e-07
1.46608e-07
1.46608e-07
1.46608e-07
1.46608e-07
1.46608e-07
1.46608e-07
1.46608e-07
1.46608e-07
1.46608e-07
1.46608e-07
1.46608e-07
1.46608e-07
1.46608e-07
1.46608e-07
1.46608e-07
1.46608e-07
1.46608e-07
1.46608e-07
1.46608e-07
1.46608e-07
1.46608e-07
1.46608e-07
1.46608e-07
1.46608e-07
1.46608e-07
1.46608e-07
1.46608e-07
1.46608e-07
1.46608e-07
1.46608e-07
1.46608e-07
1.46608e-07
1.46608e-07
1.46608e-07
1.46608e-07
1.46608e-07
1.46608e-07
1.46608e-07
1.46608e-07
1.46608e-07
1.46608e-07
1.46608e-07
1.46608e-07
1.46608e-07
1.46608e-07
1.46608e-07
1.46608e-07
1.46608e-07
1.46608e-07
1.46608e-07
1.46608e-07
1.46608e-07
1.46608e-07
1.46608e-07
1.46608e-07
1.46608e-07
1.46608e-07
1.46608e-07
1.46608e-07
1.46608e-07
1.46608e-07
1.46608e-07
1.46608e-07
1.46608e-07
1.46608e-07
1.46608e-07
1.46608e-07
1.46608e-07

VECTORS velocity float
-8.68248e-15 7.85673e-14 2.00898e-13
1.05397e-14 2.65218e-14 3.50786e-13
-1.32109e-15 3.97318e-14 -1.45084e-13
-9.78463e-16 -4.3526e-15 -1.20042e-13
-2.73912e-19 1.06215e-18 -5.70398e-18
-1.12287e-14 -4.38012e-14 9.73357e-14
1.34793e-14 4.56318e-14 1.93311e-13
1.4984e-14 2.23661e-14 -1.76075e-13
-1.13557e-15 -7.29166e-15 -3.41144e-14
-4.52812e-15 -2.52972e-14 -1.74151e-13
-6.79064e-16 -1.50228e-14 3.21125e-14
0.00109149 0.00861685 -0.0150818
2.11643e-15 3.09615e-15 -2.90491e-14
6.73872e-16 3.61519e-14 1.18632e-13
-1.12785e-15 3.25659e-14 -1.18914e-13
3.22058e-15 5.89872e-15 -3.89487e-14
6.35252e-15 2.15003e-14 9.10985e-14
1.30339e-14 5.25723e-15 -1.07336e-13
9.85104e-15 -6.28951e-14 2.05619e-13
-2.60855e-17 -1.41336e-16 -9.78806e-16
-9.52825e-15 -2.67153e-14 1.14756e-13
4.51282e-15 1.52767e-14 6.47202e-14
-7.5979e-16 -3.35938e-15 -2.40401e-14
5.23979e-16 7.51418e-15 9.62166e-15
-2.80477e-15 1.60117e-14 -2.15085e-13
2.53321e-15 -1.23255e-14 5.62305e-14
-4.44269e-15 2.81994e-14 7.49152e-14
-3.56455e-16 -4.9383e-15 1.3678e-14
-1.72653e-15 5.08497e-14 1.75601e-13
8.87274e-16 6.44564e-15 -3.3356e-14
-9.5276e-15 -2.67155e-14 1.14756e-13
1.95955e-16 -2.75146e-15 -2.89952e-15
3.0397e-15 8.40381e-15 -1.57281e-14
7.1664e-15 2.00955e-14 -8.6317e-14
1.04267e-14 -5.92194e-14 -1.63376e-13
7.9804e-16 -3.78212e-15 -6.44673e-14
7.82611e-18 1.40393e-17 5.06786e-16
-4.35021e-15 -1.94153e-14 -1.3904e-13
-5.19423e-15 -2.31833e-14 -1.66017e-13
6.56248e-16 1.62178e-15 1.28066e-14
-1.94459e-14 1.78785e-16 -2.28119e-13
-1.21477e-15 -2.23046e-15 1.47217e-14
-1.09753e-14 2.25632e-14 2.78396e-13
-7.36508e-15 -1.81926e-14 -1.43647e-13
-5.9798e-15 -1.47719e-14 -1.16641e-13
-1.55866e-14 -3.19691e-14 -1.04791e-13
-8.39374e-17 7.1724e-16 -2.27089e-15
-2.81879e-15 1.34633e-14 -6.65669e-14
-9.17969e-15 5.49408e-14 2.11157e-13
8.23692e-16 -4.9661e-15 -1.90629e-14
4.26164e-16 1.91253e-15 1.36593e-14
1.42627e-16 -4.14085e-16 -2.26906e-15
-7.8482e-15 -7.28946e-14 1.85342e-13
-4.26475e-05 -0.000336816 0.000906542
-5.62798e-15 -7.66918e-15 -1.08968e-13
1.51831e-15 2.27129e-15 -1.78437e-14
2.74098e-17 -5.64986e-16 -6.89785e-16
3.02478e-05 0.000609689 -3.64413e-05
6.75706e-15 1.89323e-14 2.6288e-13
-9.28291e-16 8.92615e-14 2.24984e-13
2.29704e-16 -6.63945e-16 -3.64325e-15
1.34769e-14 4.56308e-14 1.93312e-13
1.06434e-15 3.60229e-15 1.52617e-14
-1.05034e-15 -2.92334e-15 1.25719e-14
1.12908e-16 -1.68964e-15 4.05448e-15
-7.36379e-15 -1.81923e-14 -1.43647e-13
1.31805e-14 -4.4731e-14 -1.10004e-13
2.9504e-16 4.87943e-15 -1.04436e-14
-1.81458e-14 8.13655e-15 -1.66092e-13
-1.68191e-17 1.76947e-16 4.66257e-16
6.28605e-15 -4.01369e-14 1.31216e-13
0.0017353 0.00197627 0.0101242
-1.07574e-14 -1.73291e-15 1.75368e-13
0.000905934 -0.0103792 0.0133198
-9.84953e-15 -1.33785e-14 -1.90504e-13
1.17402e-15 -1.33997e-14 -1.91204e-14
-3.6995e-15 -1.32326e-14 -1.98725e-13
4.03051e-15 -1.8215e-14 8.99334e-14
8.90104e-16 5.06752e-15 -1.9634e-14
-2.82843e-15 2.53109e-14 -8.0318e-14
-3.82244e-16 3.70488e-14 9.33838e-14
2.19875e-15 -1.03712e-14 -1.76838e-13
2.36846e-14 -4.025e-14 1.90901e-13
2.7978e-05 -0.00143785 0.000263236
-7.08929e-15 -4.0676e-14 1.57633e-13
1.13855e-15 -1.34172e-14 -1.91155e-14
-4.08129e-16 1.19614e-14 -4.36765e-14
-1.80129e-14 -5.05044e-14 2.16941e-13

VECTORS force float
7.27919e-23 -8.47033e-22 2.11758e-22
-7.48598e-19 2.77774e-19 2.75286e-21
0.0 0.0 0.0
6.61744e-24 1.98523e-23 0.0
-4.79765e-23 4.96308e-24 2.11758e-22
-7.67624e-22 0.0 0.0
1.0707e-20 -3.07049e-21 0.0
5.32043e-21 -1.11702e-20 -8.47033e-22
-5.29396e-23 -5.29396e-23 0.0
-9.07252e-21 -2.91168e-22 2.11758e-22
2.44329e-19 4.39398e-20 3.36696e-20
-5.24966e-09 -1.35098e-08 -1.88917e-08
-6.59098e-21 3.94135e-20 3.81165e-21
7.96575e-21 -2.11758e-22 2.11758e-22
9.64493e-22 -5.29396e-23 0.0
0.0 0.0 0.0
2.13479e-20 -8.99973e-21 1.05879e-21
7.83505e-20 -6.03246e-20 6.77626e-21
1.11173e-21 -1.05879e-22 0.0
-1.05879e-22 -1.58819e-22 -4.23516e-22
-3.97047e-23 0.0 0.0
-6.4851e-22 5.29396e-23 0.0
0.0 0.0 0.0
-2.64698e-23 0.0 0.0
3.35504e-21 -2.64698e-23 0.0
2.58874e-20 2.8058e-21 -4.23516e-22
-4.42045e-20 -1.34466e-20 3.17637e-21
9.92617e-24 5.29396e-23 0.0
-6.18069e-21 -5.82335e-22 2.11758e-22
1.81252e-20 -3.07049e-21 -6.35275e-22
-6.35275e-22 0.0 0.0
2.91168e-22 0.0 0.0
-5.29396e-23 -2.64698e-22 0.0
-1.28378e-21 -5.29396e-23 0.0
7.54653e-20 1.65171e-20 -2.11758e-22
0.0 0.0 0.0
-2.64698e-23 0.0 0.0
-3.97047e-23 2.64698e-22 0.0
0.0 0.0 0.0
6.61744e-24 0.0 0.0
-5.29396e-23 -1.42552e-20 0.0
1.04556e-21 5.02926e-22 2.11758e-22
7.11561e-19 3.31891e-19 1.05879e-21
-4.76456e-22 2.38228e-22 0.0
-3.97047e-23 2.64698e-23 0.0
3.09696e-21 -2.11758e-22 -6.35275e-22
6.61744e-24 0.0 0.0
1.17129e-21 0.0 0.0
5.17881e-20 -7.99387e-21 1.27055e-21
-1.58819e-22 -5.29396e-23 0.0
-3.30872e-24 0.0 0.0
-6.61744e-24 0.0 0.0
-9.92617e-23 0.0 0.0
2.4684e-10 -3.85836e-08 3.74468e-09
8.74826e-21 6.10658e-20 -5.50571e-21
2.5861e-20 -2.44051e-20 -8.47033e-22
-1.05879e-22 1.58819e-22 4.23516e-22
1.05358e-10 -3.72018e-08 1.06702e-09
1.51539e-20 -9.3703e-21 2.11758e-22
4.88037e-23 0.0 2.11758e-22
0.0 -1.05879e-22 0.0
1.85288e-22 -2.11758e-22 2.11758e-22
1.32349e-22 0.0 0.0
9.43648e-21 2.2764e-21 1.27055e-21
-1.26413e-19 -1.37643e-21 3.17637e-21
1.45584e-21 -6.08805e-22 0.0
2.94609e-20 -2.40346e-20 1.46113e-20
2.5808e-22 1.05879e-22 2.11758e-22
0.0 0.0 0.0
2.64698e-23 -2.64698e-23 0.0
2.15729e-21 -2.11758e-22 -2.11758e-22
1.11875e-07 1.28808e-07 -5.62448e-07
0.0 0.0 0.0
-2.95491e-10 7.73671e-09 3.12255e-09
2.28302e-20 -5.29396e-23 -1.48231e-21
-1.45584e-22 -3.70577e-22 1.05879e-22
2.2764e-21 6.61744e-23 0.0
-2.34721e-20 1.64748e-19 3.47284e-20
0.0 0.0 0.0
-2.90479e-19 -7.30566e-21 8.89385e-21
-5.69514e-21 1.05879e-22 0.0
-1.49323e-20 2.09111e-21 -4.23516e-22
2.22346e-21 -1.17526e-20 -2.32934e-21
1.17604e-10 2.74388e-08 -2.78021e-08
2.62977e-20 -4.2881e-21 -2.11758e-22
1.58819e-22 -1.05879e-22 0.0
1.60291e-20 0.0 -2.11758e-22
7.67624e-22 1.05879e-22 2.11758e-22
