LIGGGHTS (Version LIGGGHTS-PUBLIC 3.8.0, compiled 2026-05-30-04:17:57 by root, git commit 3d5c00f20519e6bb6eb6756f51f1ad36564e649d)
###################################Header for General commands#######################################################

atom_style	granular		#Simulation of particles

boundary	f f f			#fixed boundaries -> particles will be deleted if leaving the simulation box

units		si

communicate	multi vel yes		#default

newton		off			#default


###################################System variables##################################################################

#Definition of boundaries

variable xmin equal -0.02
variable xmax equal 0.43

variable ymin equal -0.02
variable ymax equal 0.06

variable zmin equal -0.02
variable zmax equal 0.07

#Definition of the timestep

variable dt equal 1e-6



###################################Specific variables for current simulation#########################################

variable natoms equal 2 				#1 -> particle #2 ->pipe and screw

####variable for material properties####

####Young Modulus####
variable	youngmodulus1	equal 	7e6
variable	youngmodulus2	equal 	2e8

####Poission ratio####
variable 	poission1	equal	0.30
variable 	poission2	equal	0.29

####variable for contact properties####

####coefficient of restitution####
variable	CoR11	equal	0.4
variable	CoR12	equal	0.5
variable	CoR21	equal	0.5
variable	CoR22	equal	0.45

####sliding friction coefficient####
variable	sf11	equal	0.65	#Particle-particle sliding friction coefficient
variable	sf12	equal	0.5
variable	sf21	equal	0.5
variable	sf22	equal	0.0


####rolling friction coefficient####
variable	rf11	equal	0.75	#Particle-particle rolling friction coefficient
variable	rf12	equal	0.6
variable	rf21	equal	0.6
variable	rf22	equal	0.0


####variable for particle####

#Number of particle radius
variable	nradii	equal	3

variable	radius1	equal	0.00005	#m
variable	radius2	equal	0.00005	#m
variable	radius3	equal	0.00005	#m

variable	frac1	equal	0.3945
variable	frac2	equal	0.4059
variable	frac3	equal	0.1996

variable	density	equal	280		#kg/m³


####filling parameters####

variable	filltime	equal	2.0		#s, prueba rápida: alimentar 2 s

variable	dischargetime	equal	100		#s, tiempo para que puedan salir partículas

variable	fillmass	equal	4.4e-8 		#kg, 2 g de material

variable	fillmassrate	equal	${fillmass}/${filltime}	#kg/s
variable	fillmassrate	equal	4.4e-08/${filltime}	
variable	fillmassrate	equal	4.4e-08/2	

variable	fillsteps	equal	${filltime}/${dt}
variable	fillsteps	equal	2/${dt}
variable	fillsteps	equal	2/1e-06

variable	dischargesteps	equal	${dischargetime}/${dt}
variable	dischargesteps	equal	100/${dt}
variable	dischargesteps	equal	100/1e-06



####screw velocities####

variable	screwPeriod	equal	1.029		#s, prueba rápida: 2 vueltas/s



###################################Definition of simulationbox#######################################################

region		reg block ${xmin} ${xmax} ${ymin} ${ymax} ${zmin} ${zmax} units box
region		reg block -0.02 ${xmax} ${ymin} ${ymax} ${zmin} ${zmax} units box
region		reg block -0.02 0.43 ${ymin} ${ymax} ${zmin} ${zmax} units box
region		reg block -0.02 0.43 -0.02 ${ymax} ${zmin} ${zmax} units box
region		reg block -0.02 0.43 -0.02 0.06 ${zmin} ${zmax} units box
region		reg block -0.02 0.43 -0.02 0.06 -0.02 ${zmax} units box
region		reg block -0.02 0.43 -0.02 0.06 -0.02 0.07 units box

processors 6 1 1

create_box	2 reg
Created orthogonal box = (-0.02 -0.02 -0.02) to (0.43 0.06 0.07)
  6 by 1 by 1 MPI processor grid


neighbor	0.0001 bin

neigh_modify	delay 0


#################################Definition of the contact models####################################################

pair_style gran model hertz tangential history rolling_friction epsd2

pair_coeff	* *

timestep ${dt}
timestep 1e-06

thermo 10000

fix		integrator all nve/sphere

fix		gravi all gravity 9.81 vector 0.0 0.0 -1.0


###################################Definition of Material properties#################################################

fix 		m1 all property/global youngsModulus peratomtype ${youngmodulus1} ${youngmodulus2}
fix 		m1 all property/global youngsModulus peratomtype 7000000 ${youngmodulus2}
fix 		m1 all property/global youngsModulus peratomtype 7000000 200000000

fix 		m2 all property/global poissonsRatio peratomtype ${poission1} ${poission2}
fix 		m2 all property/global poissonsRatio peratomtype 0.3 ${poission2}
fix 		m2 all property/global poissonsRatio peratomtype 0.3 0.29

fix 		m3 all property/global coefficientRestitution peratomtypepair ${natoms} ${CoR11} ${CoR12} ${CoR21} ${CoR22}
fix 		m3 all property/global coefficientRestitution peratomtypepair 2 ${CoR11} ${CoR12} ${CoR21} ${CoR22}
fix 		m3 all property/global coefficientRestitution peratomtypepair 2 0.4 ${CoR12} ${CoR21} ${CoR22}
fix 		m3 all property/global coefficientRestitution peratomtypepair 2 0.4 0.5 ${CoR21} ${CoR22}
fix 		m3 all property/global coefficientRestitution peratomtypepair 2 0.4 0.5 0.5 ${CoR22}
fix 		m3 all property/global coefficientRestitution peratomtypepair 2 0.4 0.5 0.5 0.45

fix 		m4 all property/global coefficientFriction peratomtypepair ${natoms} ${sf11} ${sf12} ${sf21} ${sf22}
fix 		m4 all property/global coefficientFriction peratomtypepair 2 ${sf11} ${sf12} ${sf21} ${sf22}
fix 		m4 all property/global coefficientFriction peratomtypepair 2 0.65 ${sf12} ${sf21} ${sf22}
fix 		m4 all property/global coefficientFriction peratomtypepair 2 0.65 0.5 ${sf21} ${sf22}
fix 		m4 all property/global coefficientFriction peratomtypepair 2 0.65 0.5 0.5 ${sf22}
fix 		m4 all property/global coefficientFriction peratomtypepair 2 0.65 0.5 0.5 0

fix 		m5 all property/global coefficientRollingFriction peratomtypepair ${natoms} ${rf11} ${rf12} ${rf21} ${rf22}
fix 		m5 all property/global coefficientRollingFriction peratomtypepair 2 ${rf11} ${rf12} ${rf21} ${rf22}
fix 		m5 all property/global coefficientRollingFriction peratomtypepair 2 0.75 ${rf12} ${rf21} ${rf22}
fix 		m5 all property/global coefficientRollingFriction peratomtypepair 2 0.75 0.6 ${rf21} ${rf22}
fix 		m5 all property/global coefficientRollingFriction peratomtypepair 2 0.75 0.6 0.6 ${rf22}
fix 		m5 all property/global coefficientRollingFriction peratomtypepair 2 0.75 0.6 0.6 0



###################################Generation and Loading of the Geometry .stl#######################################
fix case all mesh/surface file case_remesh.stl type 2 heal auto_remove_duplicates scale 1.0 curvature 1e-5 curvature_tolerant yes

fix screw all mesh/surface file screw_simplified.stl type 2 scale 1.0 curvature 1e-5 curvature_tolerant yes

fix 		walls 		all wall/gran model hertz tangential history rolling_friction epsd2 mesh n_meshes 2 meshes case screw

fix		Movescrew	all move/mesh mesh screw rotate origin 0.2024435 0.019051 0.011497 axis -1. 0. 0. period ${screwPeriod}
fix		Movescrew	all move/mesh mesh screw rotate origin 0.2024435 0.019051 0.011497 axis -1. 0. 0. period 1.029

fix feed all mesh/surface file feed.stl type 2 scale 1.0 curvature 1e-5 curvature_tolerant yes

fix outlet all mesh/surface file outlet_1.stl type 2 scale 1.0 curvature 1e-5 curvature_tolerant yes


###################################Generation and Insertion of the particles#########################################

fix pts1 all particletemplate/sphere 10487 atom_type 1 density constant ${density} radius constant ${radius1} volume_limit 1e-18
fix pts1 all particletemplate/sphere 10487 atom_type 1 density constant 280 radius constant ${radius1} volume_limit 1e-18
fix pts1 all particletemplate/sphere 10487 atom_type 1 density constant 280 radius constant 5e-05 volume_limit 1e-18

fix pts2 all particletemplate/sphere 11887 atom_type 1 density constant ${density} radius constant ${radius2} volume_limit 1e-18
fix pts2 all particletemplate/sphere 11887 atom_type 1 density constant 280 radius constant ${radius2} volume_limit 1e-18
fix pts2 all particletemplate/sphere 11887 atom_type 1 density constant 280 radius constant 5e-05 volume_limit 1e-18

fix pts3 all particletemplate/sphere 16561 atom_type 1 density constant ${density} radius constant ${radius3} volume_limit 1e-18
fix pts3 all particletemplate/sphere 16561 atom_type 1 density constant 280 radius constant ${radius3} volume_limit 1e-18
fix pts3 all particletemplate/sphere 16561 atom_type 1 density constant 280 radius constant 5e-05 volume_limit 1e-18

fix 		pdd1 all particledistribution/discrete 32452867 ${nradii} pts1 ${frac1} pts2 ${frac2} pts3 ${frac3}
fix 		pdd1 all particledistribution/discrete 32452867 3 pts1 ${frac1} pts2 ${frac2} pts3 ${frac3}
fix 		pdd1 all particledistribution/discrete 32452867 3 pts1 0.3945 pts2 ${frac2} pts3 ${frac3}
fix 		pdd1 all particledistribution/discrete 32452867 3 pts1 0.3945 pts2 0.4059 pts3 ${frac3}
fix 		pdd1 all particledistribution/discrete 32452867 3 pts1 0.3945 pts2 0.4059 pts3 0.1996

fix		ins_mesh all mesh/surface/planar file feed.stl type 1 scale 1.0

fix 		ins all insert/stream seed 15485863 distributiontemplate pdd1         	mass ${fillmass} massrate ${fillmassrate} overlapcheck yes all_in yes vel constant 0 0 -0.03         	insertion_face ins_mesh extrude_length 0.015
fix 		ins all insert/stream seed 15485863 distributiontemplate pdd1         	mass 4.4e-08 massrate ${fillmassrate} overlapcheck yes all_in yes vel constant 0 0 -0.03         	insertion_face ins_mesh extrude_length 0.015
fix 		ins all insert/stream seed 15485863 distributiontemplate pdd1         	mass 4.4e-08 massrate 2.2e-08 overlapcheck yes all_in yes vel constant 0 0 -0.03         	insertion_face ins_mesh extrude_length 0.015


################################### Particle Residence Time Track#########################################

fix 	rt_outlet	all massflow/mesh mesh outlet vec_side 0 0 -1 file rt_outlet.txt writeTime

fix 	rt_inlet	all massflow/mesh mesh feed vec_side 0 0 -1 file rt_inlet.txt writeTime


###################################Outlet mass flow track#########################################

fix	mfout	all massflow/mesh mesh outlet vec_side 0 0 -1

fix	mfin	all massflow/mesh mesh feed vec_side 0 0 -1


variable 	time equal step*dt

variable 	in_mass_flow equal	f_mfin[3]

variable 	out_mass_flow equal	f_mfout[3]

fix mass_flow_rate all print 5000 "${time},${in_mass_flow},${out_mass_flow}" screen no title "t,in_mass_flow,out_mass_flow" file massflow.csv

###################################Dumping of the data for post-processing to visualize############################

#fix ts_check all check/timestep/gran 1000 0.1 0.1

shell 	mkdir -p post

variable dumptime equal 0.2		#guarda cada 0.05 s

variable dumpstep equal ${dumptime}/${dt}
variable dumpstep equal 0.2/${dt}
variable dumpstep equal 0.2/1e-06

dump	dmpparticle all custom ${dumpstep} post/particles_*.liggghts id type x y z vx vy vz fx fy fz radius mass
dump	dmpparticle all custom 200000 post/particles_*.liggghts id type x y z vx vy vz fx fy fz radius mass

dump_modify	dmpparticle sort id

dump	dmpscrew	all	mesh/stl ${dumpstep} post/screw_*.stl screw
dump	dmpscrew	all	mesh/stl 200000 post/screw_*.stl screw


####################################RUN the simulation filling and discharge###########################################################

run	${fillsteps}
run	2000000
Setting up run at Sat Jun  6 03:03:41 2026

WARNING: Fix mesh: Mesh contains highly skewed element, moving mesh (if used) will not parallelize well (../surface_mesh_I.h:657)
WARNING: Fix mesh: Mesh contains highly skewed element, moving mesh (if used) will not parallelize well (../surface_mesh_I.h:657)
INFO: Particle insertion ins: 75.030187 particles every 500000 steps - particle rate 150.060375, (mass rate 2.200000e-08)
      300 particles (mass 4.398230e-08) within 1500000 steps
Memory usage per processor = 2133.46 Mbytes
    Step    Atoms         KinEng            CPU 
       0        0              0              0 
INFO: Particle insertion ins: inserted 75 particle templates (mass 1.099557e-08) at step 1
 - a total of 75 particle templates (mass 1.099557e-08) inserted so far.
   10000       75  5.6353356e-12      25.651535 
   20000       75  7.9860233e-12      64.719493 
   30000       75  1.4215563e-11      116.05623 
   40000       75  1.4359756e-11      159.65125 
   50000       75  1.2742486e-11      207.12018 
   60000       75  1.4718157e-11      258.47119 
   70000       75  1.9426177e-11      313.71893 
   80000       75  2.0803745e-11      364.48064 
   90000       75  2.1639618e-11       427.5428 
  100000       75   1.045928e-11      475.10734 
  110000       75   1.391376e-11      516.20476 
  120000       75  2.6677825e-11      569.58771 
  130000       75   2.130756e-11      624.27121 
  140000       75  1.9966219e-11      669.24555 
  150000       75  2.5440214e-11      723.25369 
  160000       75  3.6949144e-11      784.35914 
  170000       75  2.9768012e-11      846.72997 
  180000       75  2.2510335e-11      900.68984 
  190000       75  1.8743854e-11       950.7696 
  200000       75  2.4470559e-11      998.36363 
  210000       75   2.382884e-11      1046.5065 
  220000       75  2.6808344e-11      1097.2247 
  230000       75  3.7532385e-11      1160.8421 
  240000       75  1.5134554e-11      1216.0493 
  250000       75  1.4407565e-11      1263.5236 
  260000       75  1.6439966e-11      1307.1178 
  270000       75  2.0179143e-11      1355.2461 
  280000       75   1.983512e-11      1404.0184 
  290000       75  2.7315819e-11      1450.2108 
  300000       75  3.0615189e-11      1503.5001 
  310000       74  3.0985658e-11      1641.3292 
  320000       74  2.8576794e-11      1699.1616 
  330000       74  2.6445128e-11      1751.8462 
  340000       74  3.3847143e-11      1801.3226 
  350000       74   3.472773e-11      1855.3463 
  360000       74  1.7589139e-11      1904.8463 
  370000       74   1.629794e-11      1948.5235 
  380000       74  3.0465634e-11      1996.7428 
  390000       74  2.1059414e-11      2051.4175 
  400000       74  1.9959779e-11      2100.3577 
  410000       73  1.6932035e-11      2312.7461 
  420000       73  2.0914969e-11      2363.5129 
  430000       73   1.160148e-11      2415.5551 
  440000       73   1.881325e-11      2461.7659 
  450000       73  3.3272932e-11      2513.7852 
  460000       73  3.3640831e-11      2575.4791 
  470000       73  3.3060376e-11      2635.2466 
  480000       73  2.5188823e-11      2691.1461 
  490000       73  2.2085846e-11      2741.2145 
  500000       73  1.5829086e-11      2800.2983 
INFO: Particle insertion ins: inserted 75 particle templates (mass 1.099557e-08) at step 500001
 - a total of 150 particle templates (mass 2.199115e-08) inserted so far.
  510000      147  4.2301727e-11      3266.9616 
  520000      147  3.2451931e-11      3323.4779 
  530000      147  3.5703886e-11      3369.6788 
  540000      147  3.3460922e-11      3419.7541 
  550000      146   3.768548e-11      3660.7392 
  560000      146  3.7367342e-11      3724.3679 
  570000      146  3.4414706e-11      3782.8262 
  580000      146  2.6445319e-11      3833.5649 
  590000      146  2.5672747e-11      3877.8776 
  600000      146  2.8306237e-11      3928.7592 
  610000      146  2.5218552e-11      3976.3325 
  620000      146  2.2371442e-11      4026.4953 
  630000      146  2.0283948e-11      4074.0733 
  640000      146  1.8479867e-11      4121.0047 
  650000      146  1.6701337e-11      4166.6371 
  660000      146  1.7074812e-11      4212.9143 
  670000      146  2.3728655e-11      4257.8903 
  680000      146  3.0633301e-11      4306.0711 
  690000      146  2.7307945e-11      4359.4027 
  700000      146  2.0429628e-11      4411.4319 
  710000      146  2.5717474e-11      4458.9503 
  720000      146  3.0998079e-11      4510.3337 
  730000      146  2.4195831e-11      4563.0158 
  740000      146  2.8279978e-11      4625.3765 
  750000      146  1.2686255e-10      4986.4919 
  760000      146  5.7234161e-11      5137.2057 
  770000      146   5.184593e-11       5227.925 
  780000      145  5.8305508e-11      5490.2587 
  790000      145  5.4576508e-11      5579.6908 
  800000      145  5.0692816e-11      5672.4438 
  810000      145  5.2143899e-11      5766.3995 
  820000      145  4.4750278e-11      5854.5584 
  830000      145  4.8417443e-11      5933.6868 
  840000      145  3.1323832e-11      6002.5214 
  850000      145  2.3432185e-11      6059.1044 
  860000      145  2.5997269e-11      6109.3396 
  870000      145  3.1427942e-11      6162.0496 
  880000      145  2.8435457e-11      6218.1296 
  890000      145  2.6954789e-11      6273.5508 
  900000      145  1.8721255e-11      6328.3053 
  910000      145  2.4520515e-11      6376.3356 
  920000      145  3.2780146e-11      6433.7864 
  930000      145  2.7017427e-11       6489.216 
  940000      144  1.9843738e-11      6702.6991 
  950000      144  2.3036339e-11      6753.4013 
  960000      144   2.513895e-11      6806.1034 
  970000      144  2.3900502e-11      6858.1218 
  980000      144  3.0594801e-11      6910.8191 
  990000      144   3.619324e-11      6966.2046 
 1000000      144  3.3561302e-11      7018.3309 
INFO: Particle insertion ins: inserted 76 particle templates (mass 1.114218e-08) at step 1000001
 - a total of 226 particle templates (mass 3.313333e-08) inserted so far.
 1010000      220  3.1830388e-11      7070.3896 
 1020000      220  5.9484781e-10      7421.1976 
 1030000      220  2.8152104e-10      7705.4899 
 1040000      220  2.6261342e-10      7960.3575 
 1050000      220  2.5096221e-10      8209.0494 
 1060000      220  3.8622464e-10      8453.0075 
 1070000      220  3.2669596e-10      8692.8399 
 1080000      220  2.6017232e-10      8928.5244 
 1090000      220  2.4385044e-10      9156.0601 
 1100000      220  2.1545811e-10      9381.9653 
 1110000      220  2.0944232e-10      9602.4646 
 1120000      220  1.8746009e-10      9819.6052 
 1130000      220  1.8326806e-10      10032.767 
 1140000      220  1.7479069e-10      10245.296 
 1150000      220  1.7943253e-10       10455.83 
 1160000      220  1.7964386e-10      10663.736 
 1170000      220  1.7717256e-10      10872.582 
 1180000      220  1.7052668e-10      11080.267 
 1190000      220  1.9789591e-10      11286.131 
 1200000      220  8.3339537e-11      11416.264 
 1210000      220  7.9734556e-11      11525.513 
 1220000      220  9.8800489e-11      11632.223 
 1230000      220  1.1517129e-10      11757.401 
 1240000      220  1.3224346e-10       11894.06 
 1250000      220   1.533219e-10       12038.85 
 1260000      220  2.5113867e-10      12208.806 
 1270000      220  5.9137638e-09      12617.433 
 1280000      219  2.5259864e-11      12929.449 
 1290000      219  3.4361895e-11      12981.717 
 1300000      219  3.1447595e-11      13034.656 
 1310000      219  3.6110349e-11      13091.657 
 1320000      219  2.6362961e-11        13158.8 
 1330000      219  2.9426866e-11      13218.486 
 1340000      219  3.2967284e-11      13274.774 
 1350000      219  2.8382389e-11      13327.666 
 1360000      219  3.2221566e-11      13377.853 
 1370000      219  3.1775041e-11      13430.739 
 1380000      219  2.3092665e-11      13481.607 
 1390000      219  2.3979437e-11       13531.14 
 1400000      219  2.3746714e-11      13581.449 
 1410000      218  2.8311178e-11      13852.816 
 1420000      218  2.6897235e-11      13907.788 
 1430000      218  2.8316534e-11      13963.436 
 1440000      218  2.2274125e-11      14020.438 
 1450000      218  2.7663486e-11      14076.078 
 1460000      218   2.563132e-11      14126.964 
 1470000      218  1.7768023e-11      14181.212 
 1480000      218  1.8243014e-11      14232.074 
 1490000      218  1.4663562e-11      14277.536 
 1500000      218  3.8861144e-11       14339.89 
INFO: Particle insertion ins: inserted 74 particle templates (mass 1.084897e-08) at step 1500001
 - a total of 300 particle templates (mass 4.398230e-08) inserted so far.
 1510000      292  3.2410113e-11      14486.044 
 1520000      292  3.3669049e-11       14532.87 
 1530000      292  4.0195921e-11       14595.26 
 1540000      292  2.6213913e-10      14956.083 
 1550000      292   2.193556e-10      15171.474 
 1560000      292  3.7003542e-11      15364.548 
 1570000      292  3.3735034e-11      15420.884 
 1580000      292  6.4185467e-11      15517.135 
 1590000      292  3.7761519e-11      15586.303 
 1600000      292  3.2088181e-11      15640.653 
 1610000      292  2.7011422e-11      15692.191 
 1620000      292  2.2657171e-11      15753.199 
 1630000      292  1.7609288e-11      15803.397 
 1640000      292  2.7309042e-11      15854.965 
 1650000      292  3.4697159e-11      15913.303 
 1660000      292   2.491867e-11      15968.274 
 1670000      292  2.0428058e-11      16021.221 
 1680000      292  2.5042252e-11      16067.398 
 1690000      292  2.3109726e-11      16116.301 
 1700000      292  2.3258755e-11      16159.794 
 1710000      292  3.1668013e-11      16210.031 
 1720000      292  3.0550407e-11      16264.297 
 1730000      292   2.296248e-11      16315.182 
 1740000      291  3.2639743e-11      16563.281 
 1750000      290  3.7510768e-11      16983.035 
 1760000      290  2.4092635e-11      17033.242 
 1770000      290  3.4414455e-11      17084.182 
 1780000      290  3.3213492e-11      17134.506 
 1790000      290  3.3898661e-11       17186.88 
 1800000      290   2.766767e-11          17238 
 1810000      290  2.3968409e-11      17289.071 
 1820000      290   2.346014e-11      17336.127 
 1830000      290  3.7971521e-11      17389.291 
 1840000      290  2.2952486e-11      17441.728 
 1850000      289  3.9229281e-10      17849.173 
 1860000      289  8.0214565e-11      17982.012 
 1870000      289  4.0235131e-11      18090.492 
 1880000      289  3.8681215e-11      18144.272 
 1890000      289  3.3953894e-11      18201.418 
 1900000      289  3.1343305e-11       18255.93 
 1910000      289  3.3208512e-11      18315.228 
 1920000      289  4.1151445e-11       18384.01 
 1930000      289  3.1968378e-11      18461.003 
 1940000      289  3.0784188e-11      18513.678 
 1950000      289  3.5134194e-11      18567.756 
 1960000      289  2.4226852e-11      18619.126 
 1970000      289  2.4930225e-11      18670.472 
 1980000      289  2.2334663e-11      18721.082 
 1990000      289  2.7552097e-11      18773.016 
 2000000      289  1.7892609e-11      18826.374 
Loop time of 18826.4 on 6 procs for 2000000 steps with 289 atoms, finish time Sat Jun  6 08:17:31 2026


Pair  time (%) = 8.46417 (0.0449591)
Neigh time (%) = 10938.5 (58.1021)
Comm  time (%) = 1832.54 (9.73392)
Outpt time (%) = 1.0907 (0.00579349)
Other time (%) = 6045.75 (32.1132)

Nlocal:    48.1667 ave 287 max 0 min
Histogram: 5 0 0 0 0 0 0 0 0 1
Nghost:    0 ave 0 max 0 min
Histogram: 6 0 0 0 0 0 0 0 0 0
Neighs:    169 ave 1014 max 0 min
Histogram: 5 0 0 0 0 0 0 0 0 1

Total # of neighbors = 1014
Ave neighs/atom = 3.50865
Neighbor list builds = 22314
Dangerous builds = 3761

unfix	ins

restart 1000000 restart.continuar.a restart.continuar.b
run	${dischargesteps}
run	100000000
Setting up run at Sat Jun  6 08:17:31 2026

Memory usage per processor = 2138.77 Mbytes
    Step    Atoms         KinEng            CPU 
 2000000      289  1.7892609e-11              0 
 2010000      289  1.9831689e-11      48.275303 
 2020000      289  1.7516943e-11      96.114861 
 2030000      289  1.6881987e-11      141.93219 
 2040000      289  1.7055517e-11      189.82756 
 2050000      289  5.6261432e-11      245.86424 
 2060000      289  2.3677542e-11      331.72964 
 2070000      289  1.9894943e-11      397.99591 
 2080000      289  2.2449909e-11      464.24285 
 2090000      289  9.3806292e-12       516.9321 
 2100000      288  5.6302591e-12      765.70936 
 2110000      288  8.1002125e-12      808.14522 
 2120000      288   8.561254e-12      858.66306 
 2130000      288  5.9422715e-12      905.78063 
 2140000      288  7.7119124e-12      956.27289 
 2150000      288  5.1584108e-12      1008.8049 
 2160000      288  5.3293729e-12      1047.8506 
 2170000      288  5.4140577e-12      1095.0624 
 2180000      287  6.8294925e-12      1527.7448 
 2190000      287  5.0260313e-12      1572.3118 
 2200000      287  2.4447942e-12      1609.5042 
 2210000      287  2.4867383e-12       1647.988 
 2220000      287  1.5220993e-12      1691.8782 
 2230000      287     3.2147e-12      1724.9024 
 2240000      287  4.8685382e-12      1766.6972 
 2250000      287  4.7495512e-12      1813.2372 
 2260000      287   4.897419e-12      1858.3967 
 2270000      287  1.5922079e-12        1894.73 
 2280000      287  7.9760997e-13      1926.9884 
 2290000      287  9.8129996e-13      1952.2596 
 2300000      287  1.5086087e-12      1985.2695 
 2310000      287   2.439845e-12      2022.3878 
 2320000      287  3.5188885e-12      2065.6232 
 2330000      287  1.4580177e-12      2100.0505 
 2340000      287  1.7749791e-12      2133.8129 
 2350000      287   1.845319e-12      2168.2351 
 2360000      287  2.5697068e-12      2207.3474 
 2370000      287  1.2226968e-12      2248.4788 
 2380000      287  1.7974527e-12      2282.1793 
 2390000      287  1.1405091e-12      2314.5173 
 2400000      287  1.0558682e-12      2340.6284 
 2410000      287  1.5111957e-12      2373.6053 
 2420000      287  2.7191583e-12      2413.3309 
 2430000      287  4.4597686e-12      2460.5428 
 2440000      287  1.4044489e-12      2497.6284 
 2450000      287  7.1205335e-13      2529.0886 
 2460000      287  7.2123296e-13      2552.8786 
 2470000      287  6.4163427e-13      2571.8611 
 2480000      287  6.4762494e-13      2592.4266 
 2490000      287  7.0027673e-13       2613.007 
 2500000      287  6.5997783e-13       2633.623 
 2510000      287  9.9098427e-13      2656.5374 
 2520000      287   2.067958e-12       2690.263 
 2530000      287  2.4845849e-12       2728.733 
 2540000      287  2.9621994e-12      2770.6328 
 2550000      287  3.6194024e-12      2809.1571 
 2560000      287  4.1327389e-12      2853.0922 
 2570000      287  4.7898402e-12      2896.3108 
 2580000      287  4.2126383e-12      2940.2348 
 2590000      287  2.4687705e-12      2979.4287 
 2600000      287  1.2939581e-12       3015.333 
 2610000      287  6.8022814e-13      3039.1195 
 2620000      287  6.7974464e-13      3059.7224 
 2630000      287  6.8489765e-13      3080.3436 
 2640000      287  6.8357607e-13      3100.9747 
 2650000      287  6.8580049e-13       3121.608 
 2660000      287   6.938411e-13      3142.2429 
 2670000      287  6.9971333e-13      3161.2836 
 2680000      287  6.9777808e-13      3181.9022 
 2690000      287  6.8784957e-13      3202.5428 
 2700000      287  6.7794483e-13      3223.1784 
 2710000      287  6.8444516e-13       3243.823 
 2720000      287  6.8097374e-13       3264.493 
 2730000      287  6.7543564e-13      3285.1462 
 2740000      287  6.8084127e-13      3305.7842 
 2750000      287  6.8642975e-13      3324.8117 
 2760000      287  7.1026253e-13      3345.4284 
 2770000      287  7.4834057e-13      3366.0418 
 2780000      287  7.1600185e-13      3386.6735 
 2790000      287  7.0815754e-13      3407.3249 
 2800000      287  7.1380066e-13       3428.071 
 2810000      287  7.0729735e-13      3448.7623 
 2820000      287  7.2297532e-13      3469.4459 
 2830000      287  7.1931106e-13       3490.125 
 2840000      287  6.8663589e-13      3509.2484 
 2850000      287  6.8957814e-13      3529.9948 
 2860000      287  6.8011716e-13      3550.7196 
 2870000      287  6.8022464e-13      3571.4023 
 2880000      287  6.9963094e-13      3592.0887 
 2890000      287  6.9863537e-13      3612.7624 
 2900000      287  7.0101779e-13      3633.4154 
 2910000      287  7.0577848e-13      3654.0744 
 2920000      287  7.0633759e-13      3673.1739 
 2930000      287   7.183293e-13      3693.8575 
 2940000      287  7.1151919e-13      3714.5447 
 2950000      287  6.9989829e-13      3735.2365 
 2960000      287  6.8819894e-13      3755.9674 
 2970000      287  6.8622018e-13      3776.7187 
 2980000      287  6.8068852e-13       3797.482 
 2990000      287  6.8636374e-13      3818.2237 
 3000000      287  6.9338822e-13      3839.0072 
 3010000      287  6.9454751e-13      3858.1089 
 3020000      287  7.0472079e-13      3878.8206 
 3030000      287  7.2350328e-13      3899.4949 
 3040000      287  7.2038167e-13      3920.1487 
 3050000      287  7.2959438e-13      3940.8531 
 3060000      287  7.3248423e-13      3961.5746 
 3070000      287  7.2871171e-13      3982.3221 
 3080000      287  7.0936437e-13       4003.063 
 3090000      287  6.9515739e-13      4022.2373 
 3100000      287  6.9555049e-13      4042.9964 
 3110000      287  6.8008089e-13      4063.7414 
 3120000      287  6.7680691e-13      4084.4647 
 3130000      287  6.8423787e-13      4105.1436 
 3140000      287  6.8445831e-13      4125.8296 
 3150000      287  7.0530127e-13      4146.4888 
 3160000      287  7.1564878e-13      4167.1465 
 3170000      287  7.2337743e-13      4186.2585 
 3180000      287  7.2666033e-13      4206.9699 
 3190000      287  7.2289379e-13      4227.6784 
 3200000      287  7.2416467e-13      4248.4834 
 3210000      287  7.0746637e-13      4269.2539 
 3220000      287  7.0089279e-13       4290.045 
 3230000      287  6.9724331e-13      4310.8343 
 3240000      287  6.8958233e-13       4331.602 
 3250000      287  6.9337906e-13      4350.7566 
 3260000      287  6.9539397e-13      4371.4639 
 3270000      287  6.9408484e-13      4392.1742 
 3280000      287  6.9985144e-13      4412.8529 
 3290000      287  7.0981234e-13      4433.5361 
 3300000      287  7.1738668e-13      4454.2466 
 3310000      287  7.2159987e-13      4474.9666 
 3320000      287  7.2060477e-13       4495.681 
 3330000      287  7.1317241e-13      4514.8072 
 3340000      287  7.0245237e-13      4535.5647 
 3350000      287  6.9743774e-13      4556.3235 
 3360000      287  6.8429363e-13      4577.0597 
 3370000      287  6.8263938e-13      4597.7958 
 3380000      287   6.808735e-13      4618.5145 
 3390000      287  7.3223882e-13      4639.2143 
 3400000      287  6.8691031e-13      4659.9936 
 3410000      287  6.9806752e-13      4679.0985 
 3420000      287  7.1036148e-13      4699.7702 
 3430000      287  7.1927412e-13      4720.4647 
 3440000      287  7.2232768e-13      4741.1449 
 3450000      287  7.2614693e-13      4761.8411 
 3460000      287  7.1766725e-13        4782.52 
 3470000      287  7.0075693e-13      4803.2433 
 3480000      287  6.9931796e-13      4823.9853 
 3490000      287  6.8733739e-13      4843.1198 
 3500000      287  6.6499252e-13      4863.8277 
 3510000      287  6.7020753e-13      4884.5314 
 3520000      287  6.7017087e-13      4905.2675 
 3530000      287  6.7953953e-13      4925.9693 
 3540000      287  6.9176023e-13      4946.6596 
 3550000      287  7.0350429e-13      4967.3269 
 3560000      287  7.0791195e-13      4987.9797 
 3570000      287  7.1943983e-13      5007.0517 
 3580000      287  7.2519408e-13      5027.7094 
 3590000      287  7.0616659e-13      5048.3886 
 3600000      287   6.956628e-13      5069.2021 
 3610000      287  6.9614087e-13      5089.9748 
 3620000      287  6.9066938e-13      5110.7512 
 3630000      287  6.7013719e-13      5131.5377 
 3640000      287  6.7291804e-13      5152.2864 
 3650000      287  6.7174726e-13      5171.4502 
 3660000      287  6.7652863e-13      5192.1662 
 3670000      287  6.9065773e-13      5212.8398 
 3680000      287  7.0770654e-13      5233.4924 
 3690000      287  7.1422627e-13      5254.1509 
 3700000      287  7.2223314e-13      5274.7929 
 3710000      287  7.3128068e-13      5295.4513 
 3720000      287  7.2131039e-13      5316.1309 
 3730000      287  7.0371976e-13      5335.2452 
 3740000      287  7.0399868e-13      5356.0167 
 3750000      287  6.9034426e-13      5376.8016 
 3760000      287  6.7290235e-13      5397.5645 
 3770000      287  6.7873636e-13      5418.3167 
 3780000      287  6.7359464e-13      5439.0584 
 3790000      287  6.8484758e-13      5459.7718 
 3800000      287  6.9794654e-13      5480.5571 
 3810000      287  7.1199273e-13      5499.6155 
 3820000      287  7.1914883e-13      5520.2427 
 3830000      287   7.300779e-13      5540.8597 
 3840000      287  7.3942143e-13      5561.4891 
 3850000      287  7.2751297e-13      5582.1273 
 3860000      287  7.1612581e-13      5602.8438 
 3870000      287  7.2928609e-13       5623.614 
 3880000      287  6.9883747e-13      5644.4032 
 3890000      287  6.8661008e-13      5663.5855 
 3900000      287  6.8230729e-13      5684.3655 
 3910000      287  6.8751312e-13      5705.1541 
 3920000      287  7.0036807e-13      5725.9091 
 3930000      287  7.0508696e-13      5746.6207 
 3940000      287  7.1841701e-13      5767.2911 
 3950000      287  7.2481279e-13      5787.9389 
 3960000      287  7.3801642e-13      5808.6006 
 3970000      287  7.4122788e-13      5827.6527 
 3980000      287  7.3411351e-13      5848.2932 
 3990000      287  7.1357154e-13       5868.972 
 4000000      287  7.1254889e-13      5891.3854 
 4010000      287  7.0426499e-13      5910.5455 
 4020000      287  6.9563967e-13       5931.296 
 4030000      287  6.9573269e-13      5952.0484 
 4040000      287  6.9294416e-13      5972.7932 
 4050000      287  7.1181042e-13       5993.518 
 4060000      287   7.222854e-13      6014.2145 
 4070000      287  7.3400976e-13      6034.8787 
 4080000      287   7.465451e-13      6055.5694 
 4090000      287  7.4383696e-13      6074.6908 
 4100000      287  7.3855146e-13      6095.3813 
 4110000      287  7.2272747e-13      6116.0883 
 4120000      287  7.6783702e-13      6136.7873 
 4130000      287  7.6277221e-13      6157.4907 
 4140000      287  7.2571922e-13      6178.2038 
 4150000      287  7.0129684e-13       6198.941 
 4160000      287  7.0587363e-13      6219.6841 
 4170000      287  7.1324574e-13      6238.8816 
 4180000      287  7.1538109e-13      6259.6132 
 4190000      287  7.3758127e-13      6280.3361 
 4200000      287  7.3511226e-13      6301.1316 
 4210000      287  7.3215647e-13      6321.8423 
 4220000      287  7.3716558e-13      6342.5595 
 4230000      287  7.3350154e-13      6363.2554 
 4240000      287  7.2263278e-13      6384.0438 
 4250000      287  7.2650002e-13      6403.1362 
 4260000      287   7.144712e-13      6423.8458 
 4270000      287  7.0354756e-13      6444.5588 
 4280000      287  6.9565165e-13       6465.275 
 4290000      287  6.9247644e-13      6486.0263 
 4300000      287  6.9010764e-13      6506.7983 
 4310000      287  6.9961407e-13      6527.5671 
 4320000      287  7.1195879e-13      6548.2939 
 4330000      287  7.2786556e-13      6567.3907 
 4340000      287  7.3088332e-13      6588.1237 
 4350000      287  7.2559601e-13      6608.8393 
 4360000      287  7.2121521e-13      6629.5143 
 4370000      287  7.1639914e-13      6650.1619 
 4380000      287  7.0771922e-13      6670.8316 
 4390000      287  6.9893949e-13      6691.5359 
 4400000      287  6.9701826e-13      6712.3282 
 4410000      287  6.9014159e-13      6731.4558 
 4420000      287  6.8227656e-13      6752.2298 
 4430000      287  6.7946389e-13      6773.0082 
 4440000      287   6.921204e-13      6793.7571 
 4450000      287  7.1458369e-13      6814.4465 
 4460000      287   7.224022e-13      6835.1245 
 4470000      287  7.2290269e-13      6855.8043 
 4480000      287  7.2813329e-13      6876.4858 
 4490000      287  7.2867285e-13      6895.5505 
 4500000      287  7.1852003e-13      6916.1864 
 4510000      287  7.1555727e-13      6936.8191 
 4520000      287  7.0074745e-13      6957.4665 
 4530000      287  6.8108742e-13       6978.157 
 4540000      287  6.8397963e-13      6998.8854 
 4550000      287  6.8740277e-13      7019.6891 
 4560000      287  6.7992097e-13      7040.4632 
 4570000      287  7.0535739e-13      7059.5986 
 4580000      287  7.0753768e-13      7080.3013 
 4590000      287  7.2107854e-13      7101.0225 
 4600000      287  7.1425321e-13      7121.8017 
 4610000      287  7.1718401e-13      7142.4619 
 4620000      287  7.2516863e-13      7163.1015 
 4630000      287  7.1550361e-13      7183.7358 
 4640000      287    7.12477e-13      7204.3586 
 4650000      287  6.9963601e-13      7223.4212 
 4660000      287  6.8994557e-13      7244.1432 
 4670000      287  6.8260726e-13      7264.9116 
 4680000      287  6.8265016e-13      7285.7027 
 4690000      287  6.7207769e-13      7306.4607 
 4700000      287  6.9558773e-13      7327.1778 
 4710000      287  7.0737125e-13      7347.8631 
 4720000      287   7.215763e-13      7368.5328 
 4730000      287  7.2269341e-13      7387.6125 
 4740000      287  7.2849315e-13      7408.2799 
 4750000      287  7.2422236e-13      7428.9396 
 4760000      287  7.2524785e-13      7449.6129 
 4770000      287  7.0492146e-13      7470.2763 
 4780000      287  7.0064712e-13      7490.9943 
 4790000      287  6.8639668e-13      7511.7869 
 4800000      287  6.7369296e-13      7532.6707 
 4810000      287  6.7253199e-13      7551.8946 
 4820000      287    6.80358e-13      7572.6765 
 4830000      287  6.9836962e-13      7593.4015 
 4840000      287   7.113855e-13      7614.1006 
 4850000      287  7.1544431e-13      7634.8293 
 4860000      287  7.2329905e-13      7655.4854 
 4870000      287  7.2499605e-13      7676.1138 
 4880000      287  7.2613176e-13      7696.7592 
 4890000      287  7.0909273e-13      7715.8252 
 4900000      287  7.1977375e-13      7736.5019 
 4910000      287  7.0016843e-13      7757.2359 
 4920000      287  6.8621802e-13      7778.0405 
 4930000      287  6.8172523e-13      7798.8826 
 4940000      287   6.809442e-13      7819.7412 
 4950000      287  6.9723631e-13      7840.5586 
 4960000      287  7.0400244e-13      7861.2887 
 4970000      287  7.1967307e-13      7880.3779 
 4980000      287  7.2649994e-13       7901.049 
 4990000      287   7.376324e-13       7921.692 
 5000000      287  7.4350639e-13       7944.007 
 5010000      287  7.3489132e-13      7963.0564 
 5020000      287  7.3693057e-13      7983.7268 
 5030000      287  7.2091137e-13       8004.435 
 5040000      287  7.0735586e-13      8025.2249 
 5050000      287  6.7479003e-13      8046.0514 
 5060000      287  6.9092359e-13      8066.8799 
 5070000      287  6.9056342e-13      8087.7005 
 5080000      287  7.0103325e-13      8108.4786 
 5090000      287  7.0986957e-13      8127.6046 
 5100000      287  7.3085092e-13      8148.2575 
 5110000      287  7.3498252e-13      8168.9337 
 5120000      287  7.4781796e-13      8189.6227 
 5130000      287  7.6467946e-13      8210.3268 
 5140000      287  7.4920195e-13      8231.0455 
 5150000      287  7.6013965e-13      8251.7461 
 5160000      287  7.2418653e-13      8272.4499 
 5170000      287  7.2053681e-13      8291.5912 
 5180000      287   7.172042e-13      8312.3483 
 5190000      287    7.12702e-13      8333.1215 
 5200000      287  7.0596238e-13      8354.0186 
 5210000      287  7.0524464e-13      8374.8017 
 5220000      287  7.2696454e-13      8395.5463 
 5230000      287  7.4282083e-13      8416.1941 
 5240000      287  7.3838437e-13      8436.8213 
 5250000      287  7.5059927e-13      8455.9015 
 5260000      287  7.4972655e-13      8476.5921 
 5270000      287  7.4833327e-13      8497.2811 
 5280000      287  7.4814703e-13      8517.9616 
 5290000      287  7.3521664e-13      8538.6614 
 5300000      287  7.2640292e-13      8559.3937 
 5310000      287  7.0186517e-13      8580.1387 
 5320000      287  6.9228527e-13      8600.9112 
 5330000      287  6.9146147e-13       8620.085 
 5340000      287  7.0185248e-13      8640.8185 
 5350000      287  7.1689474e-13      8661.5075 
 5360000      287  7.2147899e-13      8682.1276 
 5370000      287  7.2761183e-13      8702.7685 
 5380000      287  7.2306296e-13      8723.4483 
 5390000      287  7.2253477e-13      8744.1293 
 5400000      287  7.2988365e-13      8764.8719 
 5410000      287  7.3532955e-13      8783.9385 
 5420000      287  7.3372483e-13       8804.639 
 5430000      287  7.1234365e-13      8825.3588 
 5440000      287  7.0496208e-13      8846.1026 
 5450000      287  6.9440306e-13      8866.8695 
 5460000      287  6.8838738e-13      8887.6295 
 5470000      287  6.9314212e-13      8908.3597 
 5480000      287  7.1144892e-13       8929.039 
 5490000      287  7.1775208e-13      8948.0997 
 5500000      287  7.2048446e-13      8968.7443 
 5510000      287  7.2068021e-13      8989.4108 
 5520000      287  7.2265662e-13      9010.0777 
 5530000      287  7.2562148e-13      9030.7256 
 5540000      287  7.2358005e-13      9051.3906 
 5550000      287  7.2560673e-13      9072.1285 
 5560000      287  7.2686475e-13      9092.9286 
 5570000      287  7.1236672e-13      9112.1772 
 5580000      287  7.0139018e-13      9133.0403 
 5590000      287  7.0366514e-13      9153.8962 
 5600000      287  7.0766476e-13       9174.763 
 5610000      287  7.1195303e-13      9195.5134 
 5620000      287  7.2088172e-13      9216.2101 
 5630000      287  7.2247007e-13        9236.91 
 5640000      287  7.2873328e-13      9257.6061 
 5650000      287  7.3621818e-13      9276.7044 
 5660000      287  7.5165748e-13      9297.3296 
 5670000      287  7.4861695e-13      9317.9785 
 5680000      287  7.4629049e-13      9338.6809 
 5690000      287  7.3769398e-13      9359.4842 
 5700000      287  7.4311547e-13      9380.3162 
 5710000      287  7.1939357e-13      9401.1444 
 5720000      287   7.401703e-13      9421.9654 
 5730000      287  7.4603276e-13      9441.1212 
 5740000      287  7.3568518e-13      9461.8109 
 5750000      287  7.3850744e-13      9482.4917 
 5760000      287  7.3294197e-13      9503.1741 
 5770000      287  7.4898579e-13      9523.8948 
 5780000      287  7.6144143e-13      9544.5613 
 5790000      287  7.6050673e-13      9565.2114 
 5800000      287  7.5809957e-13      9586.0157 
 5810000      287  7.3756886e-13      9605.1978 
 5820000      287  7.2334473e-13      9626.0299 
 5830000      287  6.8618767e-13      9646.8761 
 5840000      287  7.0516037e-13      9667.7491 
 5850000      287  7.1428736e-13      9688.5473 
 5860000      287  7.2057431e-13      9709.2631 
 5870000      287  7.3435329e-13      9729.9254 
 5880000      287  7.4701134e-13      9750.6228 
 5890000      287  7.5128705e-13      9769.7179 
 5900000      287  7.5325526e-13      9790.3561 
 5910000      287  7.6483939e-13      9810.9773 
 5920000      287  7.6288403e-13      9831.6269 
 5930000      287  7.7241863e-13      9852.3663 
 5940000      287  7.3516356e-13      9873.1703 
 5950000      287  7.3955357e-13      9893.9887 
 5960000      287  7.2925956e-13      9914.8399 
 5970000      287  7.2779679e-13      9934.1109 
 5980000      287  7.3120963e-13      9954.8803 
 5990000      287  7.3184474e-13      9975.5816 
 6000000      287  7.3963154e-13      9997.9523 
 6010000      287  7.4507996e-13      10017.079 
 6020000      287  7.8112549e-13      10037.813 
 6030000      287  7.5528462e-13      10058.494 
 6040000      287  7.5314539e-13      10079.162 
 6050000      287   7.605409e-13      10099.866 
 6060000      287  7.3152234e-13      10120.612 
 6070000      287  7.0639076e-13      10141.391 
 6080000      287  7.0020335e-13      10162.202 
 6090000      287   7.133867e-13      10181.445 
 6100000      287  7.0386734e-13      10202.268 
 6110000      287  7.0663735e-13      10223.039 
 6120000      287  7.1786389e-13      10243.762 
 6130000      287   7.290969e-13      10264.633 
 6140000      287  7.4132407e-13      10285.529 
 6150000      287  7.4603699e-13      10306.412 
 6160000      287  7.4251437e-13      10327.272 
 6170000      287  7.3547318e-13      10346.517 
 6180000      287  7.2558884e-13      10367.411 
 6190000      287   7.165399e-13      10388.306 
 6200000      287  7.1182439e-13      10409.267 
 6210000      287  6.9190674e-13      10430.009 
 6220000      287  7.0113688e-13      10450.634 
 6230000      287  6.9471545e-13      10471.267 
 6240000      287  6.9595561e-13      10491.923 
 6250000      287  7.1290735e-13      10510.985 
 6260000      287  7.2754509e-13      10531.534 
 6270000      287  7.4055061e-13      10552.078 
 6280000      287  7.4761058e-13      10572.609 
 6290000      287  7.3055927e-13      10593.139 
 6300000      287  7.1602403e-13      10613.663 
 6310000      287  7.1100731e-13      10634.193 
 6320000      287  7.0140928e-13      10654.749 
 6330000      287  7.1079732e-13      10673.721 
 6340000      287  6.8721446e-13       10694.29 
 6350000      287  6.8441068e-13      10714.902 
 6360000      287   6.871586e-13      10735.505 
 6370000      287  6.9614413e-13      10756.075 
 6380000      287  7.0180241e-13      10776.635 
 6390000      287  7.0708333e-13      10797.156 
 6400000      287  7.1113568e-13      10817.751 
 6410000      287  7.1243915e-13      10836.664 
 6420000      287  7.1162736e-13      10857.188 
 6430000      287  7.0972019e-13      10877.702 
 6440000      287  7.1102827e-13      10898.254 
 6450000      287  7.1714206e-13      10918.809 
 6460000      287  6.8598414e-13      10939.388 
 6470000      287   6.954575e-13      10959.985 
 6480000      287  6.6879428e-13      10980.616 
 6490000      287  6.7205379e-13      10999.645 
 6500000      287  6.7195415e-13      11020.217 
 6510000      287  6.8870427e-13      11040.729 
 6520000      287  6.9677911e-13      11061.239 
 6530000      287  7.0542611e-13      11081.736 
 6540000      287  7.0823214e-13      11102.231 
 6550000      287  7.1183327e-13      11122.738 
 6560000      287    7.11064e-13      11143.258 
 6570000      287  7.2243519e-13      11162.228 
 6580000      287   7.094165e-13      11182.821 
 6590000      287  7.1231061e-13      11203.461 
 6600000      287  6.9458055e-13      11224.199 
 6610000      287  6.7709045e-13      11244.881 
 6620000      287  6.8030071e-13       11265.58 
 6630000      287  6.8629093e-13      11286.246 
 6640000      287  6.9111878e-13      11306.854 
 6650000      287  7.1393685e-13       11325.81 
 6660000      287  7.1768937e-13       11346.34 
 6670000      287  7.3434526e-13      11366.894 
 6680000      287   7.556221e-13      11387.422 
 6690000      287  7.5958721e-13      11407.926 
 6700000      287  7.6765305e-13      11428.454 
 6710000      287  7.5464405e-13      11449.028 
 6720000      287  7.2541765e-13      11469.658 
 6730000      287  7.2118739e-13      11488.693 
 6740000      287  6.8835626e-13      11509.331 
 6750000      287  6.9117049e-13      11529.967 
 6760000      287  7.0099611e-13      11550.561 
 6770000      287  7.1480316e-13      11571.136 
 6780000      287  7.2782456e-13      11591.658 
 6790000      287  7.5199819e-13      11612.153 
 6800000      287  7.5740942e-13       11632.76 
 6810000      287  7.6666485e-13      11651.698 
 6820000      287  7.6038164e-13      11672.253 
 6830000      287  7.5507841e-13      11692.816 
 6840000      287  7.5124915e-13       11713.41 
 6850000      287  7.3496519e-13       11734.03 
 6860000      287   7.087546e-13      11754.654 
 6870000      287  7.0309836e-13      11775.279 
 6880000      287  7.0928919e-13      11795.853 
 6890000      287  7.1503719e-13      11814.796 
 6900000      287  7.3350566e-13      11835.309 
 6910000      287  7.3995355e-13      11855.808 
 6920000      287  7.5036663e-13      11876.304 
 6930000      287  7.5041904e-13      11896.807 
 6940000      287  7.5925982e-13      11917.323 
 6950000      287  7.6658179e-13      11937.864 
 6960000      287  7.5231137e-13      11958.418 
 6970000      287  7.2176852e-13      11977.401 
 6980000      287  7.0736103e-13      11998.002 
 6990000      287  7.0445905e-13      12018.634 
 7000000      287  7.0156701e-13      12040.954 
 7010000      287  7.0466001e-13      12059.953 
 7020000      287  7.1491029e-13      12080.499 
 7030000      287   7.305285e-13      12101.053 
 7040000      287  7.4965636e-13      12121.625 
 7050000      287  7.4903391e-13      12142.198 
 7060000      287  7.5069693e-13       12162.73 
 7070000      287  7.5262193e-13      12183.254 
 7080000      287  7.4088366e-13      12203.809 
 7090000      287  7.1995037e-13      12222.766 
 7100000      287  7.0742136e-13      12243.446 
 7110000      287  6.9991177e-13      12264.217 
 7120000      287  7.0148958e-13      12284.981 
 7130000      287  6.9757275e-13       12305.73 
 7140000      287  7.0341377e-13      12326.482 
 7150000      287  7.0654703e-13      12347.224 
 7160000      287  7.1803788e-13       12367.94 
 7170000      287  7.4035439e-13      12387.044 
 7180000      287  7.5563967e-13       12407.85 
 7190000      287  7.6445515e-13      12428.749 
 7200000      287  7.3883815e-13      12449.836 
 7210000      287   7.249971e-13      12470.923 
 7220000      287  7.0882204e-13      12492.099 
 7230000      287  6.9727891e-13      12513.343 
 7240000      287  6.9725753e-13      12534.597 
 7250000      287  6.8872743e-13      12554.231 
 7260000      287  6.9626678e-13       12575.49 
 7270000      287  6.9430847e-13      12596.804 
 7280000      287  6.8945044e-13      12618.055 
 7290000      287  7.3488953e-13      12639.246 
 7300000      287    7.42896e-13      12660.396 
 7310000      287  7.3548083e-13      12681.502 
 7320000      287  7.3574532e-13       12702.61 
 7330000      287   7.435253e-13      12722.129 
 7340000      287  7.5030675e-13      12743.248 
 7350000      287  6.9956434e-13      12764.409 
 7360000      287   7.053197e-13      12785.612 
 7370000      287  6.8727658e-13      12806.815 
 7380000      287   6.959174e-13      12827.981 
 7390000      287  6.9186308e-13      12849.144 
 7400000      287  7.0906439e-13      12870.461 
 7410000      287  7.2335157e-13      12890.105 
 7420000      287  8.2023737e-13      12911.299 
 7430000      287  7.2471266e-13      12932.412 
 7440000      287  7.6104614e-13      12953.526 
 7450000      287  7.5194011e-13      12974.644 
 7460000      287  7.3400919e-13      12995.774 
 7470000      287  7.1803434e-13      13016.945 
 7480000      287  7.0967015e-13      13038.152 
 7490000      287  7.2142225e-13      13059.389 
 7500000      287  8.1314137e-13      13080.611 
 7510000      287  6.9069604e-13      13100.186 
 7520000      287  6.8022251e-13      13121.358 
 7530000      287  6.8218872e-13       13142.56 
 7540000      287   7.140082e-13      13163.768 
 7550000      287  7.0878236e-13      13184.963 
 7560000      287   7.195992e-13      13206.102 
 7570000      287  7.2975801e-13      13227.224 
 7580000      287  7.2859488e-13      13248.348 
 7590000      287  7.4013203e-13      13267.888 
 7600000      287  7.0112533e-13      13289.132 
 7610000      287  7.2025842e-13      13310.327 
 7620000      287  6.6197448e-13      13331.532 
 7630000      287  6.8610119e-13      13352.709 
 7640000      287  6.9370293e-13      13373.832 
 7650000      287  6.9459659e-13      13394.974 
 7660000      287  6.9138022e-13      13416.163 
 7670000      287  6.9842248e-13      13435.759 
 7680000      287  7.0997982e-13      13456.947 
 7690000      287  7.3030387e-13      13478.118 
 7700000      287  7.4166099e-13      13499.269 
 7710000      287  7.4377365e-13      13520.418 
 7720000      287  7.3916036e-13      13541.562 
 7730000      287  7.2475214e-13      13562.734 
 7740000      287  7.2312708e-13      13583.921 
 7750000      287  7.1312161e-13      13603.531 
 7760000      287  7.0268924e-13        13624.7 
 7770000      287  6.9378523e-13       13645.84 
 7780000      287   6.912034e-13      13667.005 
 7790000      287  7.0147206e-13      13688.211 
 7800000      287   7.209715e-13      13709.494 
 7810000      287  7.3064452e-13       13730.68 
 7820000      287  7.4408656e-13      13751.842 
 7830000      287  7.5299358e-13      13771.411 
 7840000      287  7.5733619e-13      13792.565 
 7850000      287  7.3780212e-13      13813.717 
 7860000      287  7.2685911e-13      13834.889 
 7870000      287  7.2679737e-13      13856.069 
 7880000      287  7.0804376e-13      13877.258 
 7890000      287  6.8492636e-13      13898.423 
 7900000      287  6.8329969e-13      13919.575 
 7910000      287  6.9478166e-13      13939.178 
 7920000      287  7.0861684e-13      13960.387 
 7930000      287  7.2131147e-13      13981.596 
 7940000      287  7.4364445e-13      14002.798 
 7950000      287   7.502119e-13      14023.978 
 7960000      287  7.4093729e-13      14045.148 
 7970000      287  7.4842175e-13      14066.327 
 7980000      287  7.2697398e-13      14087.505 
 7990000      287  7.1912512e-13      14108.693 
 8000000      287  7.0415929e-13      14129.984 
 8010000      287  7.2013991e-13      14149.581 
 8020000      287  6.9207919e-13      14170.728 
 8030000      287  6.8317282e-13       14191.87 
 8040000      287  6.9478301e-13      14213.061 
 8050000      287    7.14184e-13      14234.268 
 8060000      287  7.2249097e-13      14255.469 
 8070000      287  7.2987117e-13      14276.662 
 8080000      287  7.7808521e-13      14297.837 
 8090000      287  7.5436096e-13      14317.413 
 8100000      287  7.5178795e-13      14338.592 
 8110000      287  7.2557305e-13      14359.786 
 8120000      287  7.1142825e-13      14381.169 
 8130000      287  7.0292793e-13      14402.563 
 8140000      287  6.9372222e-13      14423.947 
 8150000      287  6.8263746e-13      14445.307 
 8160000      287  6.8198001e-13        14466.7 
 8170000      287   6.970163e-13      14486.552 
 8180000      287   7.024799e-13      14508.107 
 8190000      287  7.1338967e-13      14529.739 
 8200000      287  7.3875183e-13      14551.542 
 8210000      287  7.6360822e-13      14573.326 
 8220000      287  7.7728276e-13      14595.153 
 8230000      287   7.645058e-13      14617.078 
 8240000      287  7.4252394e-13      14639.096 
 8250000      287  7.1560241e-13      14659.592 
 8260000      287  6.9632993e-13      14681.789 
 8270000      287  6.9132756e-13      14704.008 
 8280000      287  6.7059841e-13      14726.219 
 8290000      287  6.8170755e-13      14748.438 
 8300000      287   6.819385e-13      14770.755 
 8310000      287  7.0394396e-13      14793.164 
 8320000      287  7.1065098e-13      14815.556 
 8330000      287   7.384834e-13      14836.134 
 8340000      287   7.546264e-13      14858.235 
 8350000      287  7.5092557e-13      14880.312 
 8360000      287  7.5546449e-13      14902.408 
 8370000      287  7.2379174e-13      14924.526 
 8380000      287  6.9263808e-13      14946.709 
 8390000      287  6.7575203e-13      14968.909 
 8400000      287  6.8037156e-13      14991.188 
 8410000      287  7.4673578e-13      15011.687 
 8420000      287  7.0366861e-13      15033.817 
 8430000      287  7.7552344e-13      15057.667 
 8440000      287  7.1351672e-13      15079.936 
 8450000      287  7.2255929e-13      15102.165 
 8460000      287  7.4834013e-13      15124.325 
 8470000      287  8.1304546e-13      15146.446 
 8480000      287  8.1026564e-13      15168.535 
 8490000      287  9.1636221e-13      15190.621 
 8500000      287  7.3749685e-13      15211.143 
 8510000      287  7.1710288e-13      15233.328 
 8520000      287  7.0465855e-13      15255.488 
 8530000      287  6.9342325e-13      15277.623 
 8540000      287  6.8295928e-13      15299.712 
 8550000      287  6.8713995e-13      15321.861 
 8560000      287  6.8315231e-13      15344.074 
 8570000      287  7.1496139e-13      15366.324 
 8580000      287  7.2026065e-13      15386.935 
 8590000      287  7.5999332e-13      15409.068 
 8600000      287  7.7022642e-13      15431.261 
 8610000      287  7.8383342e-13      15453.346 
 8620000      287  7.5605912e-13       15475.43 
 8630000      287  7.2728316e-13      15497.542 
 8640000      287  7.0620827e-13      15519.684 
 8650000      287  7.0282934e-13      15541.832 
 8660000      287  7.0025863e-13       15562.33 
 8670000      287  7.0144714e-13      15584.406 
 8680000      287  9.5385328e-13      15608.129 
 8690000      287  6.8776518e-13      15631.884 
 8700000      287   6.996743e-13      15652.475 
 8710000      287  7.1401058e-13      15674.661 
 8720000      287  7.4412719e-13       15696.81 
 8730000      287  7.5396415e-13      15718.908 
 8740000      287  7.4865007e-13      15740.985 
 8750000      287  7.3491926e-13      15763.086 
 8760000      287  7.2643218e-13      15785.223 
 8770000      287   7.155081e-13      15807.352 
 8780000      287  7.0684926e-13      15827.891 
 8790000      287  6.9375857e-13      15850.001 
 8800000      287  7.0047154e-13      15872.216 
 8810000      287  7.0693968e-13      15894.366 
 8820000      287  6.9489507e-13      15916.578 
 8830000      287  7.1268462e-13      15938.801 
 8840000      287  7.3223681e-13      15961.004 
 8850000      287  7.5681586e-13      15983.186 
 8860000      287   7.677083e-13      16003.747 
 8870000      287  7.6334275e-13      16025.863 
 8880000      287  7.4944747e-13      16048.002 
 8890000      287  7.2840505e-13      16070.169 
 8900000      287  7.2213576e-13      16092.327 
 8910000      287  7.0455149e-13      16114.442 
 8920000      287  6.9974776e-13      16136.555 
 8930000      287  7.0138742e-13      16158.712 
 8940000      287  6.9332356e-13      16179.298 
 8950000      287  6.9178029e-13      16201.507 
 8960000      287  7.0614062e-13       16223.73 
 8970000      287  7.4269769e-13      16245.918 
 8980000      287  7.5917446e-13      16268.082 
 8990000      287  7.4967288e-13       16290.21 
 9000000      287   7.488641e-13       16314.01 
 9010000      287  7.2613175e-13      16334.552 
 9020000      287  7.6675431e-13      16356.692 
 9030000      287  6.9308845e-13      16378.808 
 9040000      287  6.8061089e-13      16400.903 
 9050000      287  6.8038493e-13      16422.992 
 9060000      287  6.7923511e-13      16445.122 
 9070000      287  6.8321926e-13      16467.285 
 9080000      287  6.8631234e-13      16489.502 
 9090000      287  7.0813642e-13      16510.139 
 9100000      287  7.3432108e-13       16532.34 
 9110000      287    7.46252e-13      16554.512 
 9120000      287  7.4683933e-13      16576.636 
 9130000      287  7.4501025e-13      16598.747 
 9140000      287  7.1595258e-13      16620.887 
 9150000      287  7.0422504e-13      16643.049 
 9160000      287  6.8625863e-13      16665.214 
 9170000      287  6.7811653e-13      16685.753 
 9180000      287  6.7269511e-13      16707.878 
 9190000      287  6.7352562e-13      16730.026 
 9200000      287  6.7937017e-13      16752.347 
 9210000      287  6.7967755e-13      16774.751 
 9220000      287  6.9352886e-13      16797.169 
 9230000      287  7.0424403e-13      16819.569 
 9240000      287  7.3216335e-13      16841.953 
 9250000      287   7.577326e-13      16862.721 
 9260000      287  7.4667343e-13      16885.137 
 9270000      287  7.2686702e-13      16907.644 
 9280000      287  7.1223896e-13      16930.203 
 9290000      287  6.9692079e-13      16952.817 
 9300000      287  6.9207141e-13      16975.398 
 9310000      287  6.7999561e-13      16997.804 
 9320000      287  6.8026209e-13      17020.208 
 9330000      287  6.8244464e-13       17041.04 
 9340000      287  6.8264055e-13      17063.505 
 9350000      287  6.8253683e-13      17085.971 
 9360000      287  7.0840024e-13      17108.412 
 9370000      287  7.3985056e-13      17130.769 
 9380000      287   7.637111e-13      17153.068 
 9390000      287  7.4646208e-13      17175.353 
 9400000      287  7.3826076e-13      17197.771 
 9410000      287  7.1260589e-13      17218.536 
 9420000      287  6.9228687e-13      17240.921 
 9430000      287  6.8782061e-13      17263.289 
 9440000      287   6.814849e-13      17285.617 
 9450000      287   6.796806e-13      17307.995 
 9460000      287  6.7517475e-13      17330.392 
 9470000      287  6.8183218e-13      17352.839 
 9480000      287  7.2214945e-13      17375.295 
 9490000      287   7.180091e-13      17396.099 
 9500000      287  7.4423333e-13      17418.487 
 9510000      287   7.525152e-13      17440.839 
 9520000      287  7.3670353e-13      17463.181 
 9530000      287  7.1249542e-13      17485.549 
 9540000      287  7.1020244e-13       17507.96 
 9550000      287  6.9331538e-13      17530.414 
 9560000      287  6.8834422e-13      17552.836 
 9570000      287  6.7916549e-13      17573.629 
 9580000      287  6.8003811e-13      17596.058 
 9590000      287  6.7866419e-13      17618.502 
 9600000      287  6.8405863e-13      17641.062 
 9610000      287  6.8441617e-13       17663.52 
 9620000      287  7.2218779e-13      17685.952 
 9630000      287  7.4362999e-13      17708.324 
 9640000      287   7.631717e-13      17730.665 
 9650000      287  7.4334691e-13      17751.392 
 9660000      287  7.2317397e-13      17773.766 
 9670000      287  7.1734983e-13      17796.174 
 9680000      287  6.9467823e-13      17818.591 
 9690000      287  6.9318125e-13      17841.011 
 9700000      287  6.9325667e-13      17863.405 
 9710000      287  6.8180129e-13      17885.837 
 9720000      287  6.8378784e-13      17908.291 
 9730000      287  6.9127674e-13      17929.127 
 9740000      287  7.0455775e-13      17951.546 
 9750000      287  7.2957655e-13      17973.944 
 9760000      287  7.4381856e-13      17996.336 
 9770000      287  7.3931743e-13        18018.7 
 9780000      287  7.4676322e-13      18041.054 
 9790000      287  7.2475579e-13      18063.408 
 9800000      287  7.2310698e-13      18085.926 
 9810000      287  7.0559539e-13      18106.768 
 9820000      287  7.0511255e-13      18129.231 
 9830000      287  6.9811381e-13      18151.663 
 9840000      287  6.9468723e-13      18174.124 
 9850000      287  6.9947752e-13      18196.602 
 9860000      287  7.5929416e-13       18219.09 
 9870000      287  7.4562656e-13       18241.55 
 9880000      287  7.5580633e-13      18263.989 
 9890000      287  7.6651919e-13      18284.794 
 9900000      287  7.4735902e-13      18307.172 
 9910000      287  7.4327071e-13      18329.577 
 9920000      287  7.2834529e-13      18351.987 
 9930000      287  7.2830124e-13      18374.418 
 9940000      287  6.9887597e-13      18396.847 
 9950000      287  7.0457824e-13      18419.267 
 9960000      287  6.9915959e-13      18441.699 
 9970000      287  7.0555815e-13      18462.583 
 9980000      287  6.9681237e-13       18485.05 
 9990000      287  6.9769286e-13      18507.538 
10000000      287  7.1332344e-13      18531.676 
10010000      287  7.3255675e-13      18552.504 
10020000      287  7.3785972e-13      18574.907 
10030000      287   7.789713e-13      18597.294 
10040000      287  7.3956874e-13      18619.668 
10050000      287  7.1006537e-13      18642.052 
10060000      287  6.9698341e-13      18664.485 
10070000      287  6.7666805e-13      18686.905 
10080000      287  6.8572271e-13      18709.319 
10090000      287  6.7969731e-13      18730.147 
10100000      287  6.7991881e-13      18752.594 
10110000      287  6.8500686e-13      18775.042 
10120000      287  6.8689175e-13      18797.521 
10130000      287  7.0999942e-13       18819.96 
10140000      287  7.2193915e-13      18842.369 
10150000      287  7.3059131e-13      18864.754 
10160000      287  7.3916995e-13      18887.113 
10170000      287  7.2426335e-13        18907.9 
10180000      287  7.0301199e-13      18930.301 
10190000      287   6.973784e-13      18952.732 
10200000      287   6.780734e-13      18975.259 
10210000      287   6.817463e-13      18997.692 
10220000      287  6.8168791e-13      19020.132 
10230000      287  6.7041108e-13      19042.608 
10240000      287  6.8001328e-13      19065.102 
10250000      287  6.8620252e-13      19085.991 
10260000      287  7.0496536e-13      19108.433 
10270000      287  7.3041564e-13      19130.866 
10280000      287  7.4939084e-13      19153.243 
10290000      287  7.2991304e-13      19175.625 
10300000      287  7.3495474e-13      19197.993 
10310000      287  7.1570418e-13      19220.395 
10320000      287  6.9131182e-13       19242.83 
10330000      287  6.8606133e-13      19263.669 
10340000      287  6.7402243e-13       19286.08 
10350000      287  6.6220892e-13      19308.497 
10360000      287  6.8383991e-13      19330.933 
10370000      287  6.7589351e-13      19353.402 
10380000      287  6.8699662e-13      19375.879 
10390000      287  6.9943343e-13      19398.326 
10400000      287  7.2635125e-13      19420.839 
10410000      287  7.4511386e-13       19441.65 
10420000      287  7.2382571e-13       19464.03 
10430000      287  7.2774129e-13      19486.423 
10440000      287  7.0718885e-13      19508.852 
10450000      287  6.9955093e-13      19531.329 
10460000      287   6.906192e-13        19553.8 
10470000      287  6.7043422e-13       19576.26 
10480000      287  6.7942852e-13      19598.705 
10490000      287  6.7654303e-13      19619.601 
10500000      287  6.7665087e-13      19642.104 
10510000      287  6.8230024e-13      19664.594 
10520000      287  7.0485762e-13      19687.008 
10530000      287  7.2935078e-13      19709.423 
10540000      287  7.4698835e-13      19731.811 
10550000      287  7.2848684e-13      19754.175 
10560000      287  7.2896614e-13      19776.558 
10570000      287  7.0773751e-13      19797.393 
10580000      287  6.8963821e-13      19819.885 
10590000      287  6.8908005e-13      19842.372 
10600000      287  6.7856536e-13      19864.907 
10610000      287  6.9003417e-13      19887.347 
10620000      287  6.8898497e-13      19909.817 
10630000      287  6.9764166e-13        19932.3 
10640000      287   7.004104e-13      19954.742 
10650000      287  7.2489802e-13      19975.545 
10660000      287  7.5059529e-13      19997.917 
10670000      287  7.6960848e-13      20020.269 
10680000      287  7.6960192e-13      20042.606 
10690000      287  7.3716217e-13      20064.985 
10700000      287  7.2730615e-13      20087.416 
10710000      287  7.1668363e-13      20109.896 
10720000      287  6.9276244e-13      20132.353 
10730000      287  6.9926033e-13      20153.178 
10740000      287  6.9186556e-13      20175.616 
10750000      287  6.8461737e-13      20198.073 
10760000      287  6.8630446e-13      20220.527 
10770000      287  7.0437966e-13      20242.973 
10780000      287  7.1904606e-13      20265.374 
10790000      287  7.4767038e-13      20287.781 
10800000      287  7.3969163e-13      20310.239 
10810000      287  7.6891841e-13      20331.016 
10820000      287  7.3529862e-13      20353.403 
10830000      287  7.3192838e-13       20375.87 
10840000      287  7.0340913e-13      20398.363 
10850000      287  6.9707515e-13       20420.84 
10860000      287  6.9212637e-13      20443.298 
10870000      287  6.8036042e-13      20465.757 
10880000      287  6.9557171e-13       20488.23 
10890000      287  7.0064067e-13      20509.104 
10900000      287  7.0983642e-13      20531.513 
10910000      287  7.3000066e-13      20553.875 
10920000      287  7.5515864e-13      20576.237 
10930000      287  7.7437835e-13      20598.578 
10940000      287  7.6717501e-13      20620.956 
10950000      287  7.4838948e-13       20643.36 
10960000      287   7.369299e-13      20665.825 
10970000      287  7.0614131e-13      20686.714 
10980000      287   7.048082e-13      20709.191 
10990000      287   6.940495e-13      20731.646 
11000000      287   6.944812e-13      20755.805 
11010000      287  7.0126506e-13      20776.712 
11020000      287   7.092514e-13      20799.196 
11030000      287  7.0809524e-13      20821.637 
11040000      287  7.3935463e-13       20844.05 
11050000      287  7.5820986e-13      20866.441 
11060000      287  7.5079717e-13      20888.819 
11070000      287  7.4876432e-13      20911.222 
11080000      287  7.3631025e-13      20933.632 
11090000      287   7.242057e-13       20954.49 
11100000      287  7.0202645e-13      20976.925 
11110000      287  7.0422417e-13      20999.352 
11120000      287  6.9057307e-13      21021.792 
11130000      287  6.7763028e-13      21044.248 
11140000      287  6.8216969e-13      21066.724 
11150000      287  6.8409773e-13      21089.172 
11160000      287  7.0096623e-13      21111.597 
11170000      287  7.3392009e-13      21132.416 
11180000      287  7.4475746e-13      21154.802 
11190000      287   7.406236e-13      21177.155 
11200000      287  7.3096994e-13      21199.604 
11210000      287  7.2674047e-13      21221.971 
11220000      287  7.0389241e-13      21244.416 
11230000      287   6.891087e-13      21266.835 
11240000      287  6.8689939e-13      21289.253 
11250000      287  6.7291789e-13      21310.072 
11260000      287  6.6869539e-13      21332.534 
11270000      287   6.853743e-13      21355.022 
11280000      287  6.8834961e-13      21377.491 
11290000      287   6.905848e-13      21399.918 
11300000      287   7.334694e-13      21422.322 
11310000      287  7.5229793e-13      21444.705 
11320000      287  7.5628799e-13      21467.038 
11330000      287  7.3117643e-13      21487.807 
11340000      287  7.2522338e-13      21510.176 
11350000      287  7.1988367e-13      21532.632 
11360000      287  6.9336581e-13      21555.068 
11370000      287   6.977507e-13      21577.473 
11380000      287   6.869976e-13       21599.89 
11390000      287  6.8349105e-13      21622.323 
11400000      287  6.8684804e-13      21644.898 
11410000      287  6.9093244e-13      21665.769 
11420000      287  7.1133479e-13      21688.164 
11430000      287  7.2882367e-13      21710.539 
11440000      287  7.5077083e-13      21732.882 
11450000      287  7.3833661e-13      21755.212 
11460000      287  7.2576675e-13      21777.566 
11470000      287   7.209801e-13      21799.951 
11480000      287  7.1480813e-13      21822.406 
11490000      287  6.9991758e-13       21843.26 
11500000      287  6.8294443e-13       21865.72 
11510000      287   6.748112e-13      21888.158 
11520000      287  6.7990098e-13      21910.633 
11530000      287  6.8209736e-13      21933.132 
11540000      287  6.9377102e-13      21955.606 
11550000      287   7.115519e-13      21978.025 
11560000      287  7.3083244e-13      22000.404 
11570000      287  7.4994941e-13      22021.158 
11580000      287  7.5759529e-13      22043.471 
11590000      287  7.4601115e-13      22065.799 
11600000      287   7.376746e-13      22088.268 
11610000      287   7.150145e-13      22110.688 
11620000      287  7.0587236e-13      22133.181 
11630000      287  6.8795116e-13      22155.673 
11640000      287  6.8342858e-13      22178.145 
11650000      287  6.9593665e-13      22199.064 
11660000      287  7.0841121e-13      22221.575 
11670000      287  7.2414794e-13      22244.036 
11680000      287  7.3318182e-13      22266.431 
11690000      287  7.5186515e-13      22288.742 
11700000      287  7.6753101e-13      22311.039 
11710000      287  7.8276597e-13      22333.336 
11720000      287  7.5301188e-13      22355.646 
11730000      287  7.4419151e-13      22376.426 
11740000      287   7.273327e-13      22398.849 
11750000      287  7.2066806e-13      22421.323 
11760000      287  6.9552561e-13      22443.778 
11770000      287  6.9797819e-13      22466.231 
11780000      287  6.9768447e-13      22488.687 
11790000      287   7.174441e-13      22511.126 
11800000      287  7.1781105e-13      22533.627 
11810000      287  7.4428443e-13      22554.404 
11820000      287  7.5679957e-13      22576.727 
11830000      287  7.7533856e-13      22599.016 
11840000      287  7.6147025e-13      22621.326 
11850000      287  7.5279996e-13      22643.654 
11860000      287   7.413382e-13      22666.066 
11870000      287  7.2669818e-13      22688.559 
11880000      287  7.2009912e-13        22711.1 
11890000      287  7.1424666e-13      22732.025 
11900000      287  6.9896401e-13       22754.53 
11910000      287  7.1771981e-13       22777.04 
11920000      287  7.3177759e-13      22799.555 
11930000      287  7.3952229e-13      22822.006 
11940000      287  7.6290843e-13      22844.385 
11950000      287  7.8403675e-13      22866.692 
11960000      287   7.907646e-13      22888.967 
11970000      287  7.6841553e-13       22909.67 
11980000      287  7.4223996e-13          22932 
11990000      287  7.3141197e-13      22954.409 
12000000      287  7.3878395e-13      22978.556 
12010000      287  7.2275456e-13      22999.423 
12020000      287   7.131924e-13      23021.887 
12030000      287  7.0126837e-13      23044.371 
12040000      287  7.1201395e-13      23066.889 
12050000      287  7.2221223e-13      23089.375 
12060000      287  7.3580659e-13      23111.804 
12070000      287  7.5285113e-13      23134.161 
12080000      287  7.7162401e-13      23156.461 
12090000      287  7.4749983e-13       23177.16 
12100000      287  7.5193655e-13      23199.465 
12110000      287   7.444151e-13      23221.825 
12120000      287  7.2702791e-13      23244.226 
12130000      287  7.1993637e-13      23266.643 
12140000      287  7.0257936e-13      23289.092 
12150000      287  6.8531474e-13       23311.54 
12160000      287  6.7806249e-13      23334.007 
12170000      287  6.9065608e-13      23354.907 
12180000      287  6.9347426e-13      23377.361 
12190000      287  7.1473291e-13      23399.743 
12200000      287  7.3533729e-13      23422.138 
12210000      287  7.4039932e-13      23444.396 
12220000      287  7.4259296e-13      23466.643 
12230000      287   7.298912e-13       23488.91 
12240000      287  7.0173401e-13      23511.218 
12250000      287  7.1253026e-13      23531.991 
12260000      287  6.8774751e-13      23554.365 
12270000      287   6.686649e-13      23576.776 
12280000      287  6.6930568e-13      23599.182 
12290000      287  6.6308663e-13      23621.613 
12300000      287  6.8440732e-13      23644.087 
12310000      287  6.9802254e-13      23666.514 
12320000      287  7.0507079e-13      23688.907 
12330000      287  7.4889647e-13      23709.632 
12340000      287   7.540944e-13      23731.893 
12350000      287  7.4098638e-13      23754.161 
12360000      287  7.2823423e-13      23776.425 
12370000      287  7.0961196e-13      23798.713 
12380000      287  7.0845381e-13      23821.029 
12390000      287   6.891758e-13      23843.381 
12400000      287   6.843896e-13      23865.864 
12410000      287  6.7847117e-13      23886.681 
12420000      287   6.747493e-13        23909.1 
12430000      287  6.8524157e-13      23931.538 
12440000      287  6.9408022e-13      23953.944 
12450000      287  7.2449249e-13      23976.299 
12460000      287  7.4160964e-13      23998.616 
12470000      287  7.4461463e-13      24020.911 
12480000      287  7.4520473e-13        24043.2 
12490000      287  7.4006555e-13      24063.913 
12500000      287  7.1325769e-13      24086.281 
12510000      287  7.0926964e-13      24108.662 
12520000      287  6.9495354e-13      24131.076 
12530000      287   6.893354e-13      24153.555 
12540000      287   6.781983e-13      24176.048 
12550000      287   6.841655e-13      24198.538 
12560000      287  6.9852086e-13       24221.03 
12570000      287   7.144276e-13      24241.873 
12580000      287  7.2896994e-13      24264.234 
12590000      287  7.3966204e-13      24286.555 
12600000      287  7.4484431e-13      24308.934 
12610000      287   7.398872e-13      24331.229 
12620000      287  7.3998288e-13      24353.513 
12630000      287  7.2503872e-13      24375.848 
12640000      287  7.1663968e-13      24398.207 
12650000      287  6.9320356e-13      24419.047 
12660000      287  6.8864215e-13      24441.537 
12670000      287  6.7527047e-13      24464.035 
12680000      287  6.8013222e-13      24486.542 
12690000      287  7.0331584e-13       24509.04 
12700000      287  7.2412387e-13      24531.475 
12710000      287   7.382956e-13      24553.837 
12720000      287  7.4600289e-13      24576.128 
12730000      287    7.57438e-13      24596.812 
12740000      287  7.5225709e-13       24619.09 
12750000      287  7.4627082e-13      24641.396 
12760000      287  7.4279187e-13      24663.701 
12770000      287  7.3829944e-13      24686.069 
12780000      287  7.2756721e-13      24708.524 
12790000      287  6.9266165e-13      24731.003 
12800000      287  6.8486764e-13      24753.574 
12810000      287  7.1975123e-13      24774.457 
12820000      287  7.3254141e-13      24796.919 
12830000      287  7.3285849e-13      24819.325 
12840000      287  7.5052104e-13       24841.65 
12850000      287  7.4804398e-13      24863.905 
12860000      287  7.6043153e-13      24886.168 
12870000      287  7.4743708e-13       24908.43 
12880000      287  7.4393218e-13      24930.724 
12890000      287  7.3494173e-13      24951.473 
12900000      287  7.2557586e-13      24973.897 
12910000      287   7.201071e-13      24996.402 
12920000      287  7.1195713e-13      25018.921 
12930000      287  6.8859774e-13      25041.435 
12940000      287  7.1233405e-13      25063.918 
12950000      287  7.4668007e-13      25086.373 
12960000      287  7.4191528e-13       25108.76 
12970000      287  7.5155419e-13      25129.481 
12980000      287  7.6635037e-13      25151.755 
12990000      287  7.7554235e-13      25174.008 
13000000      287   7.422219e-13       25197.95 
13010000      287  7.3628209e-13      25218.617 
13020000      287  7.3112004e-13      25240.939 
13030000      287  7.2002048e-13      25263.317 
13040000      287  7.1431067e-13      25285.736 
13050000      287  6.9008394e-13      25308.183 
13060000      287  6.8874337e-13      25330.676 
13070000      287  6.9954518e-13      25353.139 
13080000      287  7.1816909e-13      25375.564 
13090000      287  7.1169255e-13      25396.371 
13100000      287  7.3494144e-13      25418.675 
13110000      287  7.3502715e-13      25440.931 
13120000      287  7.2942268e-13      25463.222 
13130000      287  7.2820223e-13      25485.494 
13140000      287  7.1558213e-13      25507.769 
13150000      287  7.0647527e-13      25530.096 
13160000      287  6.9693374e-13      25552.448 
13170000      287  6.8339541e-13      25573.215 
13180000      287  6.7048534e-13       25595.63 
13190000      287  6.7312434e-13      25618.087 
13200000      287  6.8438423e-13      25640.615 
13210000      287  7.0047487e-13      25663.021 
13220000      287  7.1633744e-13      25685.335 
13230000      287  7.3358797e-13      25707.608 
13240000      287  7.3312727e-13      25729.861 
13250000      287  7.2250801e-13      25750.559 
13260000      287  7.3050505e-13       25772.83 
13270000      287  7.1703877e-13       25795.12 
13280000      287  6.9703231e-13      25817.476 
13290000      287  6.9446522e-13      25839.848 
13300000      287  6.8734993e-13       25862.25 
13310000      287  6.8267885e-13      25884.669 
13320000      287  6.7610875e-13      25907.106 
13330000      287  6.8773336e-13      25927.945 
13340000      287  6.9568279e-13      25950.336 
13350000      287  7.1325845e-13      25972.678 
13360000      287   7.322358e-13      25994.984 
13370000      287  7.3672225e-13      26017.278 
13380000      287  7.2721224e-13      26039.594 
13390000      287  7.2187639e-13      26061.892 
13400000      287  7.2099099e-13      26084.276 
13410000      287  7.0371894e-13      26105.053 
13420000      287  6.9766365e-13      26127.464 
13430000      287  6.8876881e-13       26149.87 
13440000      287  6.8704218e-13      26172.273 
13450000      287  7.0138715e-13      26194.725 
13460000      287  7.0615198e-13      26217.163 
13470000      287  7.1831042e-13      26239.582 
13480000      287  7.2256206e-13      26261.961 
13490000      287  7.4353062e-13      26282.715 
13500000      287  7.3176604e-13      26305.052 
13510000      287  7.3967547e-13      26327.407 
13520000      287  7.3466185e-13      26349.754 
13530000      287  7.3172588e-13       26372.11 
13540000      287  7.1233241e-13      26394.519 
13550000      287  6.9682668e-13      26416.968 
13560000      287  6.9082804e-13      26439.454 
13570000      287   6.840129e-13       26460.37 
13580000      287  6.8590664e-13      26482.877 
[...]
68090000      269  2.2336402e-14      162922.43 
68100000      269  1.3672554e-14      162941.03 
68110000      269  5.3883156e-14      162961.22 
68120000      269  7.9185595e-14       162981.4 
68130000      269  8.5213161e-14      163001.59 
68140000      269  7.5354872e-14      163021.79 
68150000      269  4.3624333e-14      163041.99 
68160000      269  1.4437281e-14      163062.18 
68170000      269  7.7738418e-14      163082.38 
68180000      269  1.6655322e-13      163102.57 
68190000      269  1.6081217e-13      163124.36 
68200000      269  1.5297341e-13      163147.84 
68210000      269  4.3521687e-14      163168.03 
68220000      269  2.3742613e-14      163188.22 
68230000      269  4.9595206e-14      163208.41 
68240000      269  8.5211524e-14       163228.6 
68250000      269  8.5221095e-14      163248.79 
68260000      269  8.5230768e-14      163267.38 
68270000      269  7.5058463e-14      163287.57 
68280000      269  4.0503197e-14      163307.76 
68290000      269  1.1463796e-14      163327.96 
68300000      269  5.4181255e-14      163348.16 
68310000      269  1.7353778e-13      163368.36 
68320000      269  1.4613194e-13      163390.16 
68330000      269  9.9764906e-14      163411.95 
68340000      269  3.3980331e-14      163432.15 
68350000      269  1.6904628e-14      163452.33 
68360000      269  5.2214815e-14      163472.52 
68370000      269  8.5255678e-14      163492.71 
68380000      269  8.5264403e-14       163511.3 
68390000      269  8.4084897e-14      163531.49 
68400000      269  6.6622102e-14      163551.77 
68410000      269  3.2274509e-14      163571.96 
68420000      269  1.5698731e-14      163592.15 
68430000      269   5.077929e-14      163612.35 
68440000      269  1.6678625e-13      163632.56 
68450000      269   1.443669e-13      163652.75 
68460000      269   8.472476e-14      163676.14 
68470000      269  2.9156819e-14      163696.33 
68480000      269  1.7253831e-14      163714.93 
68490000      269  5.7609629e-14      163735.12 
68500000      269  8.5305472e-14      163755.31 
68510000      269  8.5314637e-14       163775.5 
68520000      269  8.3255176e-14       163795.7 
68530000      269  6.3534297e-14       163815.9 
68540000      269  2.6559375e-14       163836.1 
68550000      269  2.1654909e-14       163856.3 
68560000      269  6.8085054e-14       163874.9 
68570000      269  1.4593901e-13       163896.7 
68580000      269  1.5810084e-13      163916.89 
68590000      269  7.2444405e-14      163938.69 
68600000      269  2.6014883e-14      163958.97 
68610000      269  9.3057771e-15      163979.17 
68620000      269  5.5481349e-14      163999.36 
68630000      269  7.9226967e-14      164019.54 
68640000      269  8.5246102e-14      164039.73 
68650000      269  6.9597338e-14      164059.93 
68660000      269  4.0756549e-14      164080.12 
68670000      269  8.3520818e-15      164100.32 
68680000      269  2.7866485e-14      164118.92 
68690000      269  9.0803651e-14      164139.12 
68700000      269    1.12225e-13      164160.91 
68710000      269  1.0179727e-13      164181.11 
68720000      269  2.9404651e-14      164201.31 
68730000      269  2.7090998e-15       164221.5 
68740000      269   1.545452e-14      164241.68 
68750000      269  5.6722738e-14      164260.28 
68760000      269    8.54015e-14      164280.46 
68770000      269   8.541084e-14      164300.65 
68780000      269  8.0425488e-14      164320.84 
68790000      269  4.3773146e-14      164341.03 
68800000      269    4.02555e-15      164361.31 
68810000      269  4.7386222e-14       164381.5 
68820000      269  1.1899103e-13       164401.7 
68830000      269  1.8303854e-13      164423.49 
68840000      269  1.4143407e-13      164443.69 
68850000      269  3.1823628e-14      164463.89 
68860000      269  2.9044586e-15      164484.08 
68870000      269  2.8135287e-14      164504.27 
68880000      269  8.5452602e-14      164524.47 
68890000      269  8.5464169e-14      164544.65 
68900000      269  8.5475837e-14      164564.84 
68910000      269  7.9329975e-14      164583.44 
68920000      269  5.1635849e-14      164603.63 
68930000      269   1.615619e-14      164623.83 
68940000      269  4.7147985e-14      164644.03 
68950000      269  1.2077474e-13      164664.22 
68960000      269   1.568872e-13      164686.02 
68970000      269  1.9150218e-13      164709.41 
68980000      269   6.764414e-14       164731.2 
68990000      269  3.6333415e-14      164751.39 
69000000      269  3.1401901e-14      164773.27 
69010000      269  8.5017119e-14      164791.87 
69020000      269  8.5022031e-14      164812.05 
69030000      269  7.5841264e-14      164832.24 
69040000      269  5.2303177e-14      164852.43 
69050000      269  3.5023541e-14      164872.63 
69060000      269  3.2934367e-14      164892.82 
69070000      269  3.3029433e-14      164913.02 
69080000      269  8.6919891e-14      164933.22 
69090000      269  8.8357346e-14      164951.83 
69100000      269  1.0045799e-13      164973.62 
69110000      269  2.8161611e-14      164993.82 
69120000      269  2.2694082e-14      165014.02 
69130000      269   1.449178e-14      165034.21 
69140000      269   5.689323e-14       165054.4 
69150000      269  8.2500064e-14      165074.58 
69160000      269  8.5186875e-14      165094.77 
69170000      269  7.3278025e-14      165114.96 
69180000      269  3.9542522e-14      165133.56 
69190000      269  1.4577573e-14      165153.75 
69200000      269  7.1303416e-14      165174.03 
69210000      269  1.8868252e-13      165195.83 
69220000      269  1.6375147e-13      165217.62 
69230000      269  1.0725571e-13      165241.01 
69240000      269  3.9458231e-14      165261.21 
69250000      269  2.3949829e-14       165279.8 
69260000      269  5.2835564e-14      165299.99 
69270000      269  8.5192523e-14      165320.17 
69280000      269  8.5201973e-14      165340.36 
69290000      269  8.5182588e-14      165360.55 
69300000      269  7.2869731e-14      165380.74 
69310000      269  3.6218171e-14      165400.94 
69320000      269  1.1964614e-14      165421.12 
69330000      269  5.0750108e-14      165439.73 
69340000      269  1.6160951e-13      165461.52 
69350000      269  1.4932622e-13      165481.72 
69360000      269  9.2377144e-14      165503.52 
69370000      269  3.0514874e-14      165523.71 
69380000      269  1.7682703e-14       165543.9 
69390000      269  5.6768188e-14      165564.09 
69400000      269  8.5228588e-14      165584.36 
69410000      269  8.5237259e-14      165604.55 
69420000      269  8.3196369e-14      165624.74 
69430000      269  6.3724407e-14      165644.94 
69440000      269  2.8574904e-14      165663.53 
69450000      269  1.8422946e-14      165683.72 
69460000      269  5.8326877e-14      165703.93 
69470000      269  1.3971923e-13      165725.72 
69480000      269  1.4798362e-13      165745.92 
69490000      269  7.5261609e-14      165767.71 
69500000      269  2.6889155e-14       165787.9 
69510000      269  1.2788623e-14      165808.09 
69520000      269  6.4091445e-14      165828.28 
69530000      269  8.5255683e-14      165848.47 
69540000      269  8.5264801e-14      165867.07 
69550000      269  8.2114183e-14      165887.27 
69560000      269  6.0245689e-14      165907.46 
69570000      269  2.3506451e-14      165927.67 
69580000      269  2.6392101e-14      165947.86 
69590000      269   7.595829e-14      165968.06 
69600000      269  1.3386233e-13      165988.35 
69610000      269  1.6165317e-13      166010.14 
69620000      269  6.5015955e-14      166031.94 
69630000      269  2.3990075e-14      166052.15 
69640000      269  1.3983234e-14      166072.34 
69650000      269   6.829995e-14      166090.94 
69660000      269  8.5263243e-14      166111.13 
69670000      269  8.5272351e-14      166131.32 
69680000      269  8.0764013e-14      166151.52 
69690000      269  5.6233068e-14      166171.71 
69700000      269  1.9648158e-14      166191.91 
69710000      269  3.4774089e-14      166212.11 
69720000      269   9.492011e-14      166232.31 
69730000      269    1.34994e-13      166252.51 
69740000      269   1.621475e-13      166274.34 
69750000      269  5.8149341e-14      166296.13 
69760000      269  2.3653792e-14      166316.32 
69770000      269  2.0811456e-14      166334.91 
69780000      269  8.3663243e-14       166355.1 
69790000      269  8.5123233e-14      166375.29 
69800000      269  8.5130651e-14      166395.56 
69810000      269  7.8005325e-14      166415.76 
69820000      269  3.8501987e-14      166435.95 
69830000      269  2.6488235e-15      166456.15 
69840000      269  6.0249498e-14      166476.34 
69850000      269   1.265406e-13      166494.94 
69860000      269   1.424702e-13      166516.74 
69870000      269  1.2076056e-13      166536.93 
69880000      269  2.1827752e-14      166557.13 
69890000      269  9.3739595e-16      166577.32 
69900000      269  3.5964802e-14      166597.51 
69910000      269    8.54447e-14       166617.7 
69920000      269  8.5456414e-14      166637.88 
69930000      269   8.546823e-14      166656.48 
69940000      269  7.7593863e-14      166676.67 
69950000      269  4.7622591e-14      166696.87 
69960000      269  1.4673939e-14      166717.06 
69970000      269   4.556872e-14      166737.26 
69980000      269  1.3831241e-13      166757.46 
69990000      269  1.7061742e-13      166779.26 
70000000      269  2.1238711e-13      166805.94 
70010000      269  7.0737575e-14      166827.72 
70020000      269  4.3851209e-14      166847.91 
70030000      269  3.8816238e-14      166866.51 
70040000      269   8.492679e-14       166886.7 
70050000      269  8.4931048e-14      166906.89 
70060000      269  7.3738473e-14      166927.08 
70070000      269  5.0015133e-14      166947.27 
70080000      269  3.3086468e-14      166967.46 
70090000      269  3.5519607e-14      166987.66 
70100000      269  3.6910963e-14      167007.86 
70110000      269  9.8180954e-14      167026.46 
70120000      269  9.1346786e-14      167046.66 
70130000      269  6.5133487e-14      167068.45 
70140000      269  1.9242332e-14      167088.65 
70150000      269  1.7939592e-14      167108.84 
70160000      269  1.9067013e-14      167129.03 
70170000      269  5.8713274e-14      167149.22 
70180000      269  8.3287013e-14      167169.41 
70190000      269  8.5023651e-14         167188 
70200000      269  7.1092698e-14      167208.28 
70210000      269  3.5624551e-14      167228.47 
70220000      269  1.5850234e-14      167248.67 
70230000      269  6.3123846e-14      167268.87 
70240000      269  2.1180089e-13      167290.66 
70250000      269  1.7018175e-13      167312.45 
70260000      269  1.1321432e-13      167335.84 
70270000      269  4.2680529e-14      167356.03 
70280000      269    2.05986e-14      167376.22 
70290000      269  6.6266753e-14      167394.82 
70300000      269  8.5158739e-14         167415 
70310000      269  8.5168432e-14      167435.19 
70320000      269  8.4914082e-14      167455.38 
70330000      269  7.0306334e-14      167475.58 
70340000      269  3.2031191e-14      167495.77 
70350000      269  1.3559832e-14      167515.97 
70360000      269  5.7945757e-14      167536.16 
70370000      269  1.7443896e-13      167556.35 
70380000      269  1.5587743e-13      167578.14 
70390000      269   8.746022e-14      167599.94 
70400000      269   2.828726e-14      167620.22 
70410000      269  1.3280601e-14      167640.41 
70420000      269  6.7899209e-14         167659 
70430000      269  8.5187356e-14       167679.2 
70440000      269  8.5196244e-14      167699.38 
70450000      269  8.2067437e-14      167719.58 
70460000      269   6.082442e-14      167739.77 
70470000      269  2.5133986e-14      167759.96 
70480000      269  2.2340926e-14      167780.15 
70490000      269  6.6650439e-14      167800.35 
70500000      269  1.4474888e-13      167820.55 
70510000      269  1.5447876e-13      167840.74 
70520000      269  7.0835983e-14      167864.13 
70530000      269  2.6412423e-14      167882.73 
70540000      269   1.035354e-14      167902.92 
70550000      269  8.2233781e-14      167923.11 
70560000      269  8.5232854e-14       167943.3 
70570000      269  8.5242462e-14      167963.49 
70580000      269  8.0783405e-14      167983.69 
70590000      269  5.6767592e-14      168003.89 
70600000      269  2.0746381e-14      168024.17 
70610000      269  3.2644058e-14      168042.77 
70620000      269  8.6853893e-14      168062.98 
70630000      269  1.3784695e-13      168084.77 
70640000      269   1.763271e-13      168106.57 
70650000      269  5.7200415e-14      168128.37 
70660000      269  2.2460564e-14      168148.57 
70670000      269  1.7592588e-14      168168.76 
70680000      269  8.5275705e-14      168187.36 
70690000      269   8.521327e-14      168207.55 
70700000      269  8.5222756e-14      168227.74 
70710000      269  7.9192963e-14      168247.93 
70720000      269   5.244706e-14      168268.12 
70730000      269  1.7463599e-14      168288.32 
70740000      269  4.3171667e-14      168308.51 
70750000      269  1.0643206e-13      168328.72 
70760000      269  1.3530945e-13      168348.92 
70770000      269  1.8335338e-13      168370.71 
70780000      269  5.1952863e-14       168392.5 
70790000      269  2.2540462e-14      168412.68 
70800000      269  2.7255103e-14      168432.96 
70810000      269  8.5045908e-14      168451.55 
70820000      269  8.5052727e-14      168471.73 
70830000      269  8.5060156e-14      168491.92 
70840000      269  7.5402957e-14      168512.11 
70850000      269  3.3568873e-14      168532.31 
70860000      269   1.487071e-15       168552.5 
70870000      269  7.5500102e-14       168572.7 
70880000      269  1.3648186e-13       168592.9 
70890000      269  1.3392009e-13      168613.09 
70900000      269  1.0228698e-13      168633.29 
70910000      269    4.19359e-14      168655.08 
70920000      269   2.337778e-15      168673.67 
70930000      269  6.0165826e-14      168693.86 
70940000      269  8.5550728e-14      168714.05 
70950000      269  8.5563274e-14      168734.24 
70960000      269  8.5575922e-14      168754.43 
70970000      269  7.5795109e-14      168774.62 
70980000      269  4.3689897e-14      168794.82 
70990000      269  1.4107373e-14      168815.01 
71000000      269  5.3674231e-14       168835.3 
71010000      269  1.5749753e-13       168855.5 
71020000      269  1.8276898e-13      168877.29 
71030000      269  2.2490974e-13      168902.28 
71040000      269  7.3239974e-14      168924.07 
71050000      269   2.669343e-14      168944.26 
71060000      269  4.9275288e-14      168964.45 
71070000      269  8.4925681e-14      168984.64 
71080000      269  8.4808243e-14      169004.83 
71090000      269  7.1584096e-14      169025.02 
71100000      269  4.8007013e-14      169045.22 
71110000      269  3.1511518e-14      169065.41 
71120000      269  3.1976523e-14      169084.01 
71130000      269   4.190889e-14      169104.21 
71140000      269   6.779891e-14      169124.41 
71150000      269  8.7579735e-14       169144.6 
71160000      269  5.8765471e-14       169166.4 
71170000      269  2.2202762e-14      169186.59 
71180000      269  2.1550101e-14      169205.19 
71190000      269  2.0309531e-14      169225.38 
71200000      269  6.0351748e-14      169245.66 
71210000      269  8.3671643e-14      169265.84 
71220000      269  8.4542209e-14      169286.04 
71230000      269  6.8512033e-14      169306.23 
71240000      269  3.1643805e-14      169326.42 
71250000      269  1.8084366e-14      169346.62 
71260000      269  7.0564471e-14      169365.22 
71270000      269  2.3900249e-13      169387.01 
71280000      269  1.7546307e-13       169408.8 
71290000      269   9.365941e-14      169432.19 
71300000      269  3.6353394e-14      169452.38 
71310000      269  1.6880712e-14      169472.56 
71320000      269  6.8353868e-14      169492.75 
71330000      269  8.5173351e-14      169512.94 
71340000      269  8.5183021e-14      169533.13 
71350000      269  8.4457692e-14      169551.72 
71360000      269  6.7440021e-14      169571.92 
71370000      269  2.8012794e-14       169592.1 
71380000      269  1.6352576e-14       169612.3 
71390000      269  6.6301494e-14       169632.5 
71400000      269  1.7740423e-13      169652.78 
71410000      269  1.6097492e-13      169674.57 
71420000      269  7.1438628e-14      169696.37 
71430000      269  2.4589896e-14      169716.57 
71440000      269  1.3381123e-14      169736.75 
71450000      269  6.9311284e-14      169756.94 
71460000      269  8.5226346e-14      169777.12 
71470000      269  8.5235302e-14      169795.71 
71480000      269  8.0800762e-14      169815.91 
71490000      269  5.7897668e-14      169836.09 
71500000      269  2.2004704e-14      169856.28 
71510000      269  2.7714637e-14      169876.48 
71520000      269  7.6544358e-14      169896.68 
71530000      269  1.2858849e-13      169916.88 
71540000      269  1.6110903e-13      169938.67 
71550000      269   6.074568e-14      169960.46 
71560000      269  2.3982912e-14      169980.66 
71570000      269  1.2215169e-14      169999.25 
71580000      269  7.8597103e-14      170019.44 
71590000      269  8.5260074e-14      170039.64 
71600000      269  8.5269407e-14      170059.92 
71610000      269  7.9294785e-14      170080.12 
71620000      269  5.3116084e-14      170100.32 
71630000      269  1.8349886e-14      170120.52 
71640000      269  4.0537981e-14      170140.72 
71650000      269   9.961986e-14      170159.32 
71660000      269   1.305828e-13      170181.11 
71670000      269  1.7408852e-13      170202.91 
71680000      269  5.0485785e-14      170223.11 
71690000      269  2.0847003e-14       170243.3 
71700000      269  2.1267041e-14      170263.49 
71710000      269  7.4563738e-14      170283.69 
71720000      269  8.5288439e-14      170303.87 
71730000      269  8.5297602e-14      170324.06 
71740000      269  7.7551996e-14      170344.26 
71750000      269  4.8604175e-14      170362.85 
71760000      269   1.591264e-14      170383.05 
71770000      269  5.3423146e-14      170403.25 
71780000      269   1.216066e-13      170423.45 
71790000      269    1.37445e-13      170445.24 
71800000      269  1.3470863e-13      170465.53 
71810000      269  4.2870623e-14      170487.32 
71820000      269  1.5086219e-14      170507.51 
71830000      269  3.4461159e-14       170527.7 
71840000      269  8.5217631e-14       170546.3 
71850000      269  8.5225303e-14      170566.49 
71860000      269    8.52332e-14      170586.67 
71870000      269  7.2655506e-14      170606.87 
71880000      269  2.8918411e-14      170627.06 
71890000      269   3.327136e-15      170647.25 
71900000      269  6.4735936e-14      170667.45 
71910000      269  1.3490173e-13      170687.64 
71920000      269  1.2368733e-13      170707.84 
71930000      269  8.6189916e-14      170728.03 
71940000      269  1.2750757e-14      170748.22 
71950000      269  3.9293344e-16      170768.42 
71960000      269  4.6320234e-14      170788.61 
71970000      269   8.550465e-14       170808.8 
71980000      269  8.5516664e-14      170828.99 
71990000      269  8.5518275e-14      170849.18 
72000000      269  7.3682125e-14      170871.06 
72010000      269  3.9494619e-14      170889.66 
72020000      269  1.4150569e-14      170909.86 
72030000      269  5.0334041e-14      170930.06 
72040000      269  1.7634394e-13      170950.26 
72050000      269  1.7565501e-13      170973.65 
72060000      269  1.7878164e-13      170997.04 
72070000      269  5.3397947e-14      171018.83 
72080000      269  2.1087422e-14      171039.02 
72090000      269  5.6060833e-14      171059.21 
72100000      269   8.499776e-14      171077.81 
72110000      269  8.4524994e-14      171097.99 
72120000      269  6.9387088e-14      171118.18 
72130000      269  4.6189597e-14      171138.37 
72140000      269  3.0786214e-14      171158.57 
72150000      269  3.1659404e-14      171178.76 
72160000      269  4.8750064e-14      1