# vtk DataFile Version 3.0
LIGGGHTS particles timestep 160000
ASCII
DATASET POLYDATA
POINTS 164 float
0.0194787 0.021287 0.0163267
0.0199751 0.0210182 0.0155012
0.0189175 0.0228172 0.00954156
0.0190397 0.0136978 0.0136908
0.0212102 0.0158839 0.0146197
0.0157441 0.0183185 0.0184815
0.0190841 0.0232633 0.0126641
0.0228161 0.0233165 0.0154958
0.0206282 0.0180205 0.0158216
0.0224212 0.0142888 0.0146153
0.0171338 0.0202005 0.0197906
0.0202662 0.0233246 0.010858
0.0239936 0.0173142 0.0164529
0.0154526 0.0233605 0.0144581
0.0219671 0.0228688 0.015111
0.0203896 0.0241193 0.0129975
0.0222369 0.0169901 0.0206279
0.0152569 0.0155556 0.014302
0.0216186 0.0176446 0.0157319
0.0229195 0.0209133 0.0163836
0.0202094 0.0200065 0.0158592
0.0243465 0.0197786 0.00583993
0.0231988 0.014915 0.0145601
0.0243838 0.0229019 0.00944569
0.0262084 0.0197961 0.0157584
0.0187645 0.0233644 0.0110552
0.0172627 0.0240382 0.0131619
0.0217358 0.0150213 0.0147031
0.0186082 0.0231737 0.0165216
0.0235655 0.0216277 0.0161047
0.0238744 0.0153264 0.0151763
0.0237284 0.0202543 0.00745451
0.020216 0.0228061 0.0152918
0.0242248 0.0222877 0.00881116
0.0224021 0.022822 0.0162596
0.017235 0.0241521 0.0143038
0.0196915 0.0220971 0.014798
0.0237412 0.0212873 0.0170648
0.0194304 0.0227734 0.013884
0.0211752 0.020256 0.0157922
0.0193306 0.0232605 0.0104868
0.0198415 0.0142716 0.0139165
0.0230601 0.022237 0.0167335
0.0137487 0.0187591 0.023515
0.0258289 0.0213791 0.0150447
0.0220446 0.0212328 0.0167604
0.0189641 0.0236239 0.0119252
0.0183291 0.0166953 0.0165602
0.018675 0.0184879 0.0243813
0.0157298 0.0216782 0.016047
0.0195251 0.0238511 0.015659
0.0224738 0.0150031 0.0134274
0.0211407 0.0216511 0.017212
0.02079 0.0231055 0.0133148
0.0168379 0.0225999 0.0166768
0.0184574 0.0202451 0.0166228
0.0164916 0.0237911 0.0137479
0.0188819 0.0219758 0.0159153
0.0216281 0.0142595 0.0138411
0.0245435 0.0158854 0.0157046
0.0192741 0.0146292 0.0147821
0.0173477 0.0226131 0.0153729
0.0186493 0.0196672 0.0182321
0.0260283 0.0206072 0.0155268
0.0183977 0.0211917 0.0163038
0.0245302 0.0231488 0.0101659
0.0211161 0.0228435 0.0166494
0.0221254 0.0199509 0.0158526
0.0251078 0.0167025 0.0162196
0.018328 0.0140595 0.0131073
0.0220714 0.0238179 0.0148156
0.0179452 0.0143647 0.0139793
0.0146528 0.0231334 0.0150131
0.0301046 0.0342736 0.0435187
0.0164767 0.0222339 0.0156828
0.0235142 0.0229982 0.0149345
0.0142475 0.0224468 0.0143888
0.0251089 0.0203723 0.016618
0.0153367 0.0225496 0.0154491
0.0221502 0.0149889 0.0101272
0.0195064 0.0244882 0.0136831
0.022091 0.0237275 0.01383
0.022873 0.023472 0.0143806
0.0225117 0.0181508 0.0158559
0.0237952 0.0203413 0.0165911
0.0250976 0.0185346 0.0168186
0.019508 0.0240339 0.0126284
0.0172594 0.0216942 0.0166327
0.0184111 0.024101 0.0129881
0.0125478 0.0196077 0.0196447
0.0207027 0.0191019 0.0160843
0.0140155 0.0224488 0.0153668
0.0259485 0.0196075 0.016963
0.021311 0.0241118 0.0142755
0.0206764 0.0140489 0.0133451
0.024114 0.0224517 0.0155297
0.0213019 0.0239609 0.0132911
0.020955 0.0166764 0.0152623
0.0242574 0.019481 0.00714402
0.0204173 0.0242842 0.0139755
0.0216527 0.0147739 0.0128035
0.0219912 0.0219939 0.0158796
0.0193715 0.0236178 0.0134678
0.0184613 0.02374 0.015662
0.0211225 0.0210154 0.0164404
0.0183388 0.0222213 0.0167393
0.0196919 0.0140055 0.0129613
0.0214041 0.0152343 0.0137861
0.0257956 0.0223112 0.0141508
0.0143058 0.0215061 0.0152031
0.0189224 0.0237831 0.0143457
0.0200692 0.0234202 0.0141489
0.0181406 0.0243438 0.013919
0.0201815 0.0220644 0.0161565
0.0199294 0.0213328 0.0176919
0.0215586 0.023351 0.0158856
0.0153066 0.0215991 0.0151419
0.0215406 0.0220181 0.0148062
0.020513 0.0237111 0.0155959
0.0198688 0.0234656 0.0117342
0.0209037 0.0233167 0.0147227
0.0175239 0.0207409 0.0164865
0.0207989 0.0144988 0.0170556
0.0161989 0.0146891 0.0143179
0.0185114 0.0229533 0.0150482
0.017958 0.0223732 0.0190784
0.0210639 0.0223403 0.0157231
0.0225577 0.0156601 0.0143768
0.0164209 0.014585 0.0132307
0.0217598 0.021128 0.0154379
0.0166348 0.0232019 0.0158742
0.0200515 0.0232906 0.012668
0.0173696 0.0143344 0.0130325
0.0220356 0.0165142 0.0151479
0.0176676 0.0229645 0.0162529
0.0158951 0.0228301 0.0164359
0.0169724 0.014037 0.013905
0.0230976 0.022359 0.0155895
0.0208352 0.021458 0.0152411
0.0202868 0.0151438 0.0153181
0.0155831 0.0150628 0.0134954
0.0182022 0.0149008 0.0147832
0.0236182 0.0191978 0.0171409
0.0219829 0.0235266 0.0168373
0.021398 0.0227242 0.0140082
0.0229564 0.0158675 0.0197364
0.0206019 0.0223588 0.0144852
0.0178827 0.0219473 0.0158929
0.0245174 0.0213371 0.0162306
0.0161635 0.0229289 0.0150339
0.0179706 0.0234808 0.0143936
0.0162631 0.0238756 0.0147282
0.0168245 0.0238635 0.0165999
0.0188349 0.0241476 0.016495
0.0207045 0.0239615 0.0166544
0.0151043 0.0209211 0.0158551
0.0134801 0.0204834 0.0170814
0.0217084 0.0187542 0.0159648
0.015242 0.0223852 0.0144528
0.0170352 0.0232552 0.0146629
0.017476 0.02359 0.015495
0.0192144 0.0229077 0.0157719
0.017789 0.0239781 0.0163626
0.019698 0.0233715 0.0165197

VERTICES 164 328
1 0
1 1
1 2
1 3
1 4
1 5
1 6
1 7
1 8
1 9
1 10
1 11
1 12
1 13
1 14
1 15
1 16
1 17
1 18
1 19
1 20
1 21
1 22
1 23
1 24
1 25
1 26
1 27
1 28
1 29
1 30
1 31
1 32
1 33
1 34
1 35
1 36
1 37
1 38
1 39
1 40
1 41
1 42
1 43
1 44
1 45
1 46
1 47
1 48
1 49
1 50
1 51
1 52
1 53
1 54
1 55
1 56
1 57
1 58
1 59
1 60
1 61
1 62
1 63
1 64
1 65
1 66
1 67
1 68
1 69
1 70
1 71
1 72
1 73
1 74
1 75
1 76
1 77
1 78
1 79
1 80
1 81
1 82
1 83
1 84
1 85
1 86
1 87
1 88
1 89
1 90
1 91
1 92
1 93
1 94
1 95
1 96
1 97
1 98
1 99
1 100
1 101
1 102
1 103
1 104
1 105
1 106
1 107
1 108
1 109
1 110
1 111
1 112
1 113
1 114
1 115
1 116
1 117
1 118
1 119
1 120
1 121
1 122
1 123
1 124
1 125
1 126
1 127
1 128
1 129
1 130
1 131
1 132
1 133
1 134
1 135
1 136
1 137
1 138
1 139
1 140
1 141
1 142
1 143
1 144
1 145
1 146
1 147
1 148
1 149
1 150
1 151
1 152
1 153
1 154
1 155
1 156
1 157
1 158
1 159
1 160
1 161
1 162
1 163

POINT_DATA 164
SCALARS id int 1
LOOKUP_TABLE default
1
2
3
4
5
6
7
8
9
10
11
12
13
14
15
16
17
18
19
21
22
23
24
25
26
27
29
31
32
33
34
36
37
39
40
41
42
43
44
45
46
47
48
50
51
52
53
54
55
56
59
60
61
62
63
64
65
66
67
68
69
70
71
72
73
74
75
76
77
78
79
80
81
82
83
84
85
87
89
90
91
92
93
94
95
96
97
98
99
100
101
103
104
105
106
107
108
109
110
112
113
114
115
116
118
119
121
122
124
125
126
127
128
129
131
133
134
136
138
142
143
144
145
146
148
149
150
151
152
153
154
155
157
158
159
160
161
162
163
164
165
166
167
168
170
171
172
173
174
175
177
178
179
180
181
182
183
184
185
186
187
188
189
190

SCALARS type int 1
LOOKUP_TABLE default
1
1
1
1
1
1
1
1
1
1
1
1
1
1
1
1
1
1
1
1
1
1
1
1
1
1
1
1
1
1
1
1
1
1
1
1
1
1
1
1
1
1
1
1
1
1
1
1
1
1
1
1
1
1
1
1
1
1
1
1
1
1
1
1
1
1
1
1
1
1
1
1
1
1
1
1
1
1
1
1
1
1
1
1
1
1
1
1
1
1
1
1
1
1
1
1
1
1
1
1
1
1
1
1
1
1
1
1
1
1
1
1
1
1
1
1
1
1
1
1
1
1
1
1
1
1
1
1
1
1
1
1
1
1
1
1
1
1
1
1
1
1
1
1
1
1
1
1
1
1
1
1
1
1
1
1
1
1
1
1
1
1
1
1

SCALARS radius float 1
LOOKUP_TABLE default
0.0005
0.0005
0.0005
0.0005
0.0005
0.0005
0.0005
0.0005
0.0005
0.0005
0.0005
0.0005
0.0005
0.0005
0.0005
0.0005
0.0005
0.0005
0.0005
0.0005
0.0005
0.0005
0.0005
0.0005
0.0005
0.0005
0.0005
0.0005
0.0005
0.0005
0.0005
0.0005
0.0005
0.0005
0.0005
0.0005
0.0005
0.0005
0.0005
0.0005
0.0005
0.0005
0.0005
0.0005
0.0005
0.0005
0.0005
0.0005
0.0005
0.0005
0.0005
0.0005
0.0005
0.0005
0.0005
0.0005
0.0005
0.0005
0.0005
0.0005
0.0005
0.0005
0.0005
0.0005
0.0005
0.0005
0.0005
0.0005
0.0005
0.0005
0.0005
0.0005
0.0005
0.0005
0.0005
0.0005
0.0005
0.0005
0.0005
0.0005
0.0005
0.0005
0.0005
0.0005
0.0005
0.0005
0.0005
0.0005
0.0005
0.0005
0.0005
0.0005
0.0005
0.0005
0.0005
0.0005
0.0005
0.0005
0.0005
0.0005
0.0005
0.0005
0.0005
0.0005
0.0005
0.0005
0.0005
0.0005
0.0005
0.0005
0.0005
0.0005
0.0005
0.0005
0.0005
0.0005
0.0005
0.0005
0.0005
0.0005
0.0005
0.0005
0.0005
0.0005
0.0005
0.0005
0.0005
0.0005
0.0005
0.0005
0.0005
0.0005
0.0005
0.0005
0.0005
0.0005
0.0005
0.0005
0.0005
0.0005
0.0005
0.0005
0.0005
0.0005
0.0005
0.0005
0.0005
0.0005
0.0005
0.0005
0.0005
0.0005
0.0005
0.0005
0.0005
0.0005
0.0005
0.0005
0.0005
0.0005
0.0005
0.0005
0.0005
0.0005

SCALARS mass float 1
LOOKUP_TABLE default
5.23599e-07
5.23599e-07
5.23599e-07
5.23599e-07
5.23599e-07
5.23599e-07
5.23599e-07
5.23599e-07
5.23599e-07
5.23599e-07
5.23599e-07
5.23599e-07
5.23599e-07
5.23599e-07
5.23599e-07
5.23599e-07
5.23599e-07
5.23599e-07
5.23599e-07
5.23599e-07
5.23599e-07
5.23599e-07
5.23599e-07
5.23599e-07
5.23599e-07
5.23599e-07
5.23599e-07
5.23599e-07
5.23599e-07
5.23599e-07
5.23599e-07
5.23599e-07
5.23599e-07
5.23599e-07
5.23599e-07
5.23599e-07
5.23599e-07
5.23599e-07
5.23599e-07
5.23599e-07
5.23599e-07
5.23599e-07
5.23599e-07
5.23599e-07
5.23599e-07
5.23599e-07
5.23599e-07
5.23599e-07
5.23599e-07
5.23599e-07
5.23599e-07
5.23599e-07
5.23599e-07
5.23599e-07
5.23599e-07
5.23599e-07
5.23599e-07
5.23599e-07
5.23599e-07
5.23599e-07
5.23599e-07
5.23599e-07
5.23599e-07
5.23599e-07
5.23599e-07
5.23599e-07
5.23599e-07
5.23599e-07
5.23599e-07
5.23599e-07
5.23599e-07
5.23599e-07
5.23599e-07
5.23599e-07
5.23599e-07
5.23599e-07
5.23599e-07
5.23599e-07
5.23599e-07
5.23599e-07
5.23599e-07
5.23599e-07
5.23599e-07
5.23599e-07
5.23599e-07
5.23599e-07
5.23599e-07
5.23599e-07
5.23599e-07
5.23599e-07
5.23599e-07
5.23599e-07
5.23599e-07
5.23599e-07
5.23599e-07
5.23599e-07
5.23599e-07
5.23599e-07
5.23599e-07
5.23599e-07
5.23599e-07
5.23599e-07
5.23599e-07
5.23599e-07
5.23599e-07
5.23599e-07
5.23599e-07
5.23599e-07
5.23599e-07
5.23599e-07
5.23599e-07
5.23599e-07
5.23599e-07
5.23599e-07
5.23599e-07
5.23599e-07
5.23599e-07
5.23599e-07
5.23599e-07
5.23599e-07
5.23599e-07
5.23599e-07
5.23599e-07
5.23599e-07
5.23599e-07
5.23599e-07
5.23599e-07
5.23599e-07
5.23599e-07
5.23599e-07
5.23599e-07
5.23599e-07
5.23599e-07
5.23599e-07
5.23599e-07
5.23599e-07
5.23599e-07
5.23599e-07
5.23599e-07
5.23599e-07
5.23599e-07
5.23599e-07
5.23599e-07
5.23599e-07
5.23599e-07
5.23599e-07
5.23599e-07
5.23599e-07
5.23599e-07
5.23599e-07
5.23599e-07
5.23599e-07
5.23599e-07
5.23599e-07
5.23599e-07
5.23599e-07
5.23599e-07
5.23599e-07
5.23599e-07
5.23599e-07
5.23599e-07
5.23599e-07
5.23599e-07
5.23599e-07

VECTORS velocity float
-0.00802698 -0.0006369 0.00281981
-0.0190331 0.0075287 -0.00679739
0.00363095 -0.0136142 -0.0321884
0.00113078 -0.00273067 -0.00145011
-0.0151397 0.0028584 0.0053946
0.121987 0.0705492 -0.301792
-0.00374709 0.0854304 -0.0197266
0.000772578 -0.00019513 0.00118668
0.00152543 0.0483001 0.0110134
-0.0119353 0.00849895 -0.0176411
0.117739 -0.10603 -0.301461
0.00133066 0.0030948 -0.0247785
-0.000393165 0.00366343 0.00380129
-0.00129193 -0.00288199 -0.00101354
-0.00334467 0.00105831 0.00258517
0.00266509 -0.00489597 0.00609443
-0.145221 0.063454 -0.238302
0.00709995 0.0189289 0.0144249
0.000540447 0.040994 0.0122513
0.0084834 0.0147716 -0.0056076
0.00053474 0.0526349 -0.0140139
-1.57196e-05 -2.58e-06 -0.00202079
-0.00718836 0.000971409 -0.0127416
-0.0866561 0.999086 -0.639701
0.0644188 -0.408312 0.342916
-0.0522197 -0.02503 -0.115001
0.0014318 0.000389851 -9.22995e-05
-0.0108552 -0.0204226 0.0143826
0.00281126 0.00170495 -0.00847753
0.0367734 0.00552439 -0.004553
-0.00720101 -0.00356044 -0.000251903
-0.177567 0.0127144 0.0257273
-0.00618898 0.00601502 -0.0209717
0.16572 -0.656166 1.24621
-0.00172548 0.00529056 0.00247183
0.00103713 0.00054618 0.000765276
0.00151423 0.0349447 -0.028091
0.0434121 0.0260192 0.00459075
0.00773394 0.00864962 -0.0176057
0.00179877 0.0499104 -0.0136647
0.00170242 0.0556478 -0.14869
-0.0095944 0.0230018 -0.0135536
0.00522422 -0.00374085 -0.0141409
0.0479829 -0.136937 -0.153426
0.306361 0.291752 0.644168
0.00956325 0.0257567 -0.0164665
0.0749944 -0.157166 0.0453962
-0.00131875 -0.0136124 0.0401281
-0.266136 -0.034981 -0.281517
-0.0110499 0.00176598 0.00225187
0.00160309 -0.00263558 -0.00551713
-0.00524485 -0.00695779 0.00859779
0.00275976 0.0327148 0.000232321
-0.00327349 0.00519502 -0.012913
0.00217154 0.00178791 -0.000153523
0.000107466 0.00173253 -0.000683975
0.00184267 0.00398107 -0.000586577
-0.00119679 -0.00120638 -0.00636187
-0.0107578 0.00556346 -0.0294084
-0.00246367 -0.011535 -0.00499161
-0.0273233 -0.0536675 -0.0515032
-0.00327304 0.00590781 0.00126766
0.239271 0.0633059 -0.154494
0.708862 2.24916 1.9714
-0.00202398 0.00219016 0.00034344
0.23388 0.223222 -0.11523
-0.0163336 -0.0203438 -0.0262385
0.00166299 0.0482062 -0.00990488
-0.00963298 0.010052 -0.00530123
-0.0208082 0.012994 0.0405691
0.000902246 -0.000465503 -0.00132328
-0.0302844 0.0159593 0.0438369
0.00019995 0.00375604 0.00229998
6.54528e-28 -1.77607e-28 5.53846e-13
-0.0115181 0.00515396 0.00145732
1.049e-05 -0.000538475 0.0021053
0.000340543 -0.00164045 0.0010784
0.0450671 0.0354758 -0.00992581
0.00456032 0.00655355 0.00399239
-0.0188123 -0.331031 -0.0661468
0.00163587 0.00351948 -0.00101313
-0.000412385 0.000783458 -0.000796122
0.00158494 -0.00103766 -0.000330767
0.00597654 0.0284345 -0.00122338
0.0180955 0.0265169 -0.00133364
0.0211773 0.0102634 -0.0327099
0.0014267 0.0301695 -0.0281273
0.00207502 0.000224121 0.00157999
-0.000109118 0.000576663 -0.00028243
0.203972 0.0193085 -0.198714
-0.018971 0.0401163 0.00577772
0.000414284 -3.14964e-05 5.16744e-05
0.00811492 0.0456547 -0.00582649
0.00123451 0.00182192 -0.00147594
0.00823903 0.0231385 -0.0178072
0.00712873 -0.00726029 4.69433e-05
-0.00456639 -0.000408012 0.00212329
0.00880227 0.0176475 0.00811269
0.0526982 3.05952 -1.04747
0.00220979 0.00503698 -0.00442151
-0.00106912 0.00696386 0.0141612
-0.00729268 0.0154767 -0.0041258
-0.00119947 -0.00585649 -0.0165371
0.00126907 0.00168929 0.002898
0.00161719 0.0493746 -0.0115807
0.0177881 0.0128001 -0.0120405
-0.00231489 0.00417526 -0.00701032
-0.00313906 -0.00714807 0.00602483
0.011137 0.063209 -0.0971529
0.00246655 0.00158001 -0.00196201
0.00267871 0.00216982 -0.00780062
0.0105138 0.00413295 -0.0113225
-0.0010132 0.00142012 -0.000291811
-0.00095232 -0.00694638 -0.0588086
0.00397687 -0.0393968 -0.0366607
-0.00819207 0.00446641 -0.00181161
0.00380268 0.0118115 -0.0112719
-0.00589053 0.00142312 0.00183474
8.21645e-05 0.000996491 -0.0154475
-0.00688112 0.0112219 -0.00627381
0.0122934 -0.0122794 -0.0223596
0.00105864 -0.000504811 0.0010037
-0.461664 0.0484144 0.335598
0.0589842 -0.0438033 -0.0229699
0.00379353 0.00707496 -0.00343739
0.0624827 -0.122299 -0.214284
0.00142003 0.0280035 -0.0501219
-0.00367106 0.00972818 0.0138828
-0.021222 0.0163973 3.89904e-05
-0.00366173 0.0219543 -0.0123307
-0.00458032 0.00580378 -0.00732965
0.000649895 0.0162512 -0.0277448
-0.0175756 0.02333 0.0012986
0.0125125 0.000822499 -0.00684045
-5.52471e-05 0.00399301 0.00188523
0.000940634 -0.00026547 -0.00099016
-0.0184983 0.0131953 0.00324228
0.00190006 -0.00485916 -0.00254805
-0.0132591 0.0026447 -0.00407518
-0.0206855 -0.028414 0.0137503
-0.0232798 0.00985943 0.0110076
-0.0616186 0.0294216 0.043112
-0.0792462 -0.0229983 -0.118457
-0.0252474 0.00144556 -0.00612568
0.00674333 0.0128953 -0.0231678
-0.0202316 -0.217163 1.17863
0.00935448 0.0154667 -0.0178925
-0.00185628 0.00838313 -0.000220115
0.0373635 0.0607884 -0.0298609
0.00169121 -0.00422792 -0.00968094
0.000783863 0.001165 -0.000270357
-0.00124277 -0.000448451 -0.000138732
-0.00338173 -0.00255614 -0.00540891
0.00241092 0.00194655 0.0036078
-0.0230834 -0.014086 -0.0611902
-0.0231262 0.00870947 -0.00350195
0.0586867 -0.00559083 -0.0626361
-0.00906036 0.0363302 -0.0623304
0.00134578 -0.00515162 0.000744015
0.00038755 0.00244271 0.000421894
-0.00151369 0.00236585 6.85825e-05
0.000126243 -0.0027962 -0.00803394
-0.00176571 0.000472256 0.000479135
0.0169114 -0.00663035 -0.0142471

VECTORS force float
1.05529e-06 -8.74786e-07 -5.31498e-06
2.76301e-06 7.1169e-06 2.04977e-06
-0.279138 -0.0799381 -0.226942
2.08591e-05 -1.52644e-05 -2.21628e-05
0.0 0.0 -5.1365e-06
0.0 0.0 -5.1365e-06
-0.00178393 0.000940185 0.00654196
5.45156e-06 -3.12949e-05 1.4867e-05
-2.97301e-06 -1.08631e-06 8.76014e-07
-9.6137e-07 -2.60733e-06 -5.56103e-06
0.0 0.0 -5.1365e-06
6.56217e-05 9.50399e-05 0.000276139
0.0 0.0 -5.1365e-06
-8.41698e-06 -3.34203e-06 1.1854e-06
2.61782e-06 7.25159e-06 -4.81301e-06
-9.96074e-05 0.000358823 -1.79876e-05
0.0 0.0 -5.1365e-06
-4.57235e-06 -1.71058e-07 1.48082e-06
0.0 0.0 -5.1365e-06
-4.05891e-06 4.86511e-05 4.02622e-05
-2.66465e-06 -3.933e-07 -3.31583e-06
0.0 0.0 -5.1365e-06
1.3849e-06 9.68394e-07 1.74631e-06
0.000834436 -0.0475872 0.0637665
0.083414 -0.110976 -0.182038
0.070239 -0.0118976 -0.0473027
4.152e-06 5.49142e-06 -4.75231e-06
6.98394e-05 -2.7031e-05 0.000174961
0.0 0.0 -5.1365e-06
0.0 0.0 -5.1365e-06
2.58858e-08 6.97439e-07 -5.34711e-06
-0.0690196 -0.089595 0.0389908
2.49444e-06 2.679e-06 5.61565e-07
-0.073037 0.376471 -0.0253162
1.52617e-06 1.86896e-05 9.08411e-06
-2.8509e-06 1.44944e-05 5.46695e-06
-6.36263e-06 -1.41901e-05 3.81382e-06
0.0 0.0 -5.1365e-06
-1.47647e-05 -4.58628e-05 0.000373548
2.14657e-07 2.6445e-06 -3.26195e-06
0.0480666 -0.169345 0.0283015
0.0 0.0 -5.1365e-06
4.81121e-07 -2.67054e-06 -3.11238e-06
0.0 0.0 -5.1365e-06
0.180073 -0.0129493 0.0509907
3.93168e-09 4.09504e-09 -5.13268e-06
-0.0063349 0.0396775 0.00326594
0.0 0.0 -5.1365e-06
0.0 0.0 -5.1365e-06
-1.39142e-05 -4.15038e-06 -3.18922e-06
-4.73636e-06 1.44767e-06 6.18757e-06
0.0 0.0 -5.1365e-06
-4.49915e-07 5.1848e-06 -3.45519e-06
2.78164e-05 -2.97948e-05 -1.09165e-05
3.02287e-06 -1.36772e-06 -3.5471e-06
0.0 0.0 -5.1365e-06
1.86279e-06 7.80222e-06 -5.20494e-06
-1.1385e-06 -4.6517e-06 -6.02239e-06
0.0 0.0 -5.1365e-06
0.0 0.0 -5.1365e-06
0.0 0.0 -5.1365e-06
-2.96328e-05 -3.83894e-05 2.99024e-05
0.0 0.0 -5.1365e-06
-0.0434451 0.119337 0.235595
5.10984e-07 9.83241e-06 2.27062e-06
0.0119784 -0.0514505 0.0177495
0.0 0.0 -5.1365e-06
1.8195e-06 -9.21147e-07 1.06784e-06
2.15155e-07 -9.33093e-07 5.61695e-06
-8.87035e-06 4.98193e-06 1.03886e-05
-2.29085e-05 3.80779e-05 -1.20777e-06
1.24332e-05 -3.8353e-06 -1.23908e-05
6.41147e-06 6.50166e-06 7.23824e-06
1.34403e-30 -3.64704e-31 0.0
-2.3698e-05 -2.7171e-05 -1.53749e-06
1.08231e-05 -8.06913e-06 -1.16506e-05
6.44644e-06 -6.83971e-06 1.71415e-06
0.0 0.0 -5.1365e-06
6.05383e-06 5.06209e-06 1.04847e-05
-0.0172508 0.00626484 -0.0219792
-6.30576e-05 -0.000249857 0.000101668
-1.01092e-05 8.12219e-06 1.98508e-05
-1.86054e-05 -4.20366e-06 1.1042e-05
0.0 0.0 -5.1365e-06
0.0 0.0 -5.1365e-06
0.0 0.0 -5.1365e-06
-0.00150117 0.00036553 -0.00114316
2.83198e-07 4.75023e-07 -5.4243e-06
-1.13476e-06 5.8294e-08 5.2954e-06
0.0 0.0 -5.1365e-06
0.0 0.0 -5.1365e-06
1.64551e-06 7.61577e-06 -2.33796e-06
0.0 0.0 -5.1365e-06
-5.86786e-05 -0.000115322 -1.12423e-06
0.0 0.0 -5.1365e-06
0.0 0.0 -5.1365e-06
0.000107403 6.64129e-05 6.41499e-05
-5.27976e-07 -7.19293e-07 -6.42989e-07
0.002895 -0.0166092 0.362103
-5.8273e-05 -4.7257e-06 2.39867e-05
0.0 0.0 -5.1365e-06
1.29826e-05 1.9036e-05 1.07876e-05
8.81478e-05 -7.68632e-05 -0.000513099
-2.39466e-06 -1.13535e-06 -1.24724e-06
1.4212e-06 -1.13556e-06 -3.64423e-06
5.02258e-07 2.15655e-06 3.32916e-06
7.68779e-08 4.4527e-07 -4.44773e-06
-6.98394e-05 2.7031e-05 -0.000185234
-0.013447 -0.0359103 -0.265734
7.43606e-07 4.47926e-07 -2.37189e-06
4.77185e-06 2.68602e-06 -8.45968e-06
-4.72905e-05 5.50666e-05 -8.61492e-05
1.49429e-05 8.40515e-07 1.36002e-05
0.0 0.0 -5.1365e-06
0.0 0.0 -5.1365e-06
-1.19335e-06 7.83228e-06 3.20186e-06
5.17685e-06 -2.18948e-05 2.1556e-06
-7.98523e-06 3.87948e-06 -3.21661e-06
5.66782e-06 -7.15323e-07 -2.67988e-07
0.00284802 -0.00381096 0.00471162
-5.3044e-05 -2.98769e-05 5.88181e-05
-1.74371e-07 6.07748e-08 -4.99123e-06
0.0 0.0 -5.1365e-06
0.0 0.0 -5.1365e-06
7.33244e-06 -4.12423e-06 9.3021e-07
0.0 0.0 -5.1365e-06
0.0 0.0 -5.1365e-06
-3.4547e-07 1.63879e-07 -1.75806e-07
0.0 0.0 -5.1365e-06
-1.07473e-05 2.2792e-05 1.6765e-05
-1.2672e-05 4.35199e-05 1.47386e-05
-0.000484821 0.000977385 -0.00115821
-2.54461e-06 6.40109e-07 -3.70103e-06
0.0 0.0 -5.1365e-06
0.0 0.0 -5.1365e-06
2.42136e-07 -4.5274e-06 -6.05592e-07
0.0 0.0 -5.1365e-06
0.0 0.0 -5.1365e-06
0.0 0.0 -5.1365e-06
0.0 0.0 -5.1365e-06
9.88235e-06 2.90095e-06 -1.02732e-05
-2.06145e-06 2.4895e-06 2.75467e-06
0.0 0.0 -5.1365e-06
0.0 0.0 -5.1365e-06
1.05533e-05 1.47959e-06 6.44974e-06
0.0 0.0 -5.1365e-06
-2.73614e-06 -6.12087e-06 3.04107e-06
-4.72944e-06 2.37389e-05 1.27524e-06
0.0 0.0 -5.1365e-06
2.92345e-07 -1.73191e-06 -1.15208e-06
2.51488e-05 1.78419e-05 6.01869e-07
-6.01425e-06 -7.60723e-06 -4.97582e-06
-3.80134e-06 -1.87439e-06 -1.21308e-06
-1.31006e-07 -1.31658e-07 -3.32829e-07
0.0 0.0 -5.1365e-06
0.0 0.0 -5.1365e-06
0.0 0.0 -5.1365e-06
0.0 0.0 -5.1365e-06
1.45444e-06 2.10463e-06 -6.41637e-06
4.53208e-06 1.02288e-05 -8.88702e-06
-4.48316e-05 -2.65443e-05 2.81069e-05
2.36354e-06 -2.48357e-06 1.40564e-06
-2.25481e-06 1.82792e-06 1.6106e-06
0.0 0.0 -5.1365e-06
