ITEM: TIMESTEP
55000000
ITEM: NUMBER OF ATOMS
275
ITEM: BOX BOUNDS ff ff ff
-0.02 0.43
-0.02 0.06
-0.02 0.07
ITEM: ATOMS id type x y z vx vy vz fx fy fz radius mass 
1 1 0.334028 0.0186058 0.00683737 0.00544338 -0.000196564 -0.00011686 -6.45845e-10 -1.44691e-10 -5.48349e-11 5e-05 1.46608e-10 
2 1 0.333681 0.0174047 0.00736674 0.00584603 -2.33425e-05 0.000127771 -1.82861e-10 8.95928e-11 1.43145e-11 5e-05 1.46608e-10 
4 1 0.33383 0.0172845 0.00742388 0.0057745 -7.5583e-05 0.000148343 1.57109e-10 2.89527e-11 -1.24259e-11 5e-05 1.46608e-10 
5 1 0.333298 0.0157773 0.0082402 0.00576414 -0.000273922 -0.000442096 8.63617e-12 9.93287e-11 2.60239e-10 5e-05 1.46608e-10 
6 1 0.339557 0.0168203 0.00751582 0.00512462 -0.00195203 0.000542437 -2.83176e-12 8.99132e-12 -7.76866e-13 5e-05 1.46608e-10 
7 1 0.333976 0.0179098 0.00714492 0.00605415 -0.000141761 0.000182234 -7.065e-11 -4.53082e-11 1.06059e-11 5e-05 1.46608e-10 
8 1 0.333672 0.0169875 0.00755467 0.00557568 1.07639e-05 0.000105694 1.47134e-10 -3.40232e-11 2.90991e-11 5e-05 1.46608e-10 
9 1 0.339757 0.0177286 0.00718841 0.00555391 -0.00200669 0.000691666 5.73197e-11 -1.12932e-11 8.1272e-12 5e-05 1.46608e-10 
10 1 0.333768 0.0170166 0.00754345 0.00572994 -1.43761e-05 0.000120236 5.68734e-11 -6.26065e-11 1.30075e-11 5e-05 1.46608e-10 
11 1 0.334081 0.0183573 0.00694527 0.00628747 -0.00016468 0.000201128 -1.43911e-10 9.33966e-11 -5.71844e-11 5e-05 1.46608e-10 
12 1 0.327899 0.0171203 0.00731693 0.00569739 0.000547424 0.000399858 -5.97403e-11 -7.39003e-11 -4.93143e-11 5e-05 1.46608e-10 
13 1 0.333277 0.015696 0.00829466 0.00576143 0.000255688 0.000344226 6.69995e-12 -3.30204e-11 1.16114e-10 5e-05 1.46608e-10 
14 1 0.327981 0.0176521 0.00725036 0.00619591 0.000300811 -0.000329847 8.51713e-12 4.56964e-11 1.25705e-10 5e-05 1.46608e-10 
16 1 0.328108 0.0180836 0.00709598 0.00618841 0.000250013 -0.000381618 -4.66097e-11 5.3618e-12 8.69024e-13 5e-05 1.46608e-10 
17 1 0.333632 0.0168086 0.0076345 0.0054396 4.32963e-05 8.64915e-05 2.80051e-11 5.52479e-11 -1.19836e-10 5e-05 1.46608e-10 
19 1 0.334013 0.0188694 0.00687896 0.00569549 -0.000101666 -9.80844e-05 1.68108e-10 4.7484e-10 2.26544e-11 5e-05 1.46608e-10 
21 1 0.334017 0.0180884 0.00706521 0.00615312 -0.000159737 0.000193153 -7.15106e-11 4.7815e-11 1.89044e-11 5e-05 1.46608e-10 
22 1 0.333789 0.0171059 0.0075036 0.00570881 -3.80451e-05 0.000130466 1.64512e-11 -6.99092e-12 -9.51352e-12 5e-05 1.46608e-10 
23 1 0.328042 0.017777 0.00714832 0.00616434 0.00024952 -0.000379993 6.97017e-11 7.2976e-11 3.04911e-12 5e-05 1.46608e-10 
24 1 0.339674 0.0173518 0.00726365 0.00517731 -0.00196464 0.000547721 2.9822e-11 4.55369e-13 -3.17083e-11 5e-05 1.46608e-10 
25 1 0.333401 0.0161947 0.00798489 0.00575537 -0.000284806 -0.000423175 1.22739e-11 -1.02092e-10 5.85077e-11 5e-05 1.46608e-10 
26 1 0.339714 0.0175333 0.00718934 0.00517125 -0.00192065 0.000646421 -3.69059e-13 -8.03157e-12 1.00259e-11 5e-05 1.46608e-10 
27 1 0.327571 0.016512 0.00771463 0.00562452 0.000562459 0.000198278 -2.62401e-11 1.81644e-10 2.62827e-10 5e-05 1.46608e-10 
28 1 0.333756 0.0173448 0.00739523 0.0058082 -5.14281e-05 0.00013745 5.30481e-11 -1.01807e-10 6.34612e-11 5e-05 1.46608e-10 
29 1 0.33326 0.0156538 0.00838365 0.00569933 0.000258733 0.000327968 1.70774e-10 -4.84933e-11 1.57997e-10 5e-05 1.46608e-10 
30 1 0.333494 0.0165247 0.00778185 0.00544291 -0.000220319 -0.000430577 -7.36256e-11 -1.18768e-11 -3.19668e-11 5e-05 1.46608e-10 
31 1 0.334071 0.0179387 0.00713374 0.00607259 -0.000185781 0.000204043 -2.71221e-11 -3.44507e-11 2.22844e-11 5e-05 1.46608e-10 
32 1 0.33343 0.0162759 0.00793429 0.00566971 -0.000260302 -0.00042902 1.23363e-10 -1.18096e-10 5.72575e-11 5e-05 1.46608e-10 
33 1 0.339576 0.0169089 0.00747379 0.00514221 -0.00195594 0.000543089 2.68929e-11 -1.27392e-11 9.67695e-13 5e-05 1.46608e-10 
34 1 0.33338 0.0161111 0.00803595 0.00576178 -0.000281508 -0.000426324 -1.90614e-11 -9.49422e-11 4.65218e-11 5e-05 1.46608e-10 
35 1 0.333934 0.0177311 0.00722462 0.00594976 -0.00010962 0.000169305 6.46741e-11 -1.38827e-10 4.42031e-11 5e-05 1.46608e-10 
36 1 0.339822 0.0180215 0.00718706 0.00551647 -0.00199779 0.000687344 -2.24334e-13 -6.19102e-12 -2.05287e-13 5e-05 1.46608e-10 
37 1 0.333809 0.0171952 0.00746373 0.0057419 -8.02882e-05 0.00014948 7.97744e-11 2.76795e-11 -7.18577e-12 5e-05 1.46608e-10 
38 1 0.333893 0.0175525 0.00730433 0.0058837 -8.80095e-05 0.00015429 -2.87833e-11 -1.09777e-10 6.40731e-11 5e-05 1.46608e-10 
39 1 0.339695 0.017442 0.00722532 0.00516637 -0.0019481 0.000579454 -4.93338e-11 -1.66246e-12 -3.33146e-12 5e-05 1.46608e-10 
41 1 0.333339 0.0159442 0.00813805 0.00576457 -0.000272749 -0.000432486 -1.46972e-11 -4.47024e-11 2.10929e-12 5e-05 1.46608e-10 
42 1 0.333946 0.0174028 0.00737288 0.00582373 -0.000108779 0.000164176 4.70626e-11 -7.31249e-12 -7.71622e-12 5e-05 1.46608e-10 
44 1 0.334009 0.0176708 0.0072533 0.0059041 -0.000143507 0.00018119 8.21328e-11 -5.00916e-12 3.3339e-11 5e-05 1.46608e-10 
45 1 0.339596 0.0169975 0.00743176 0.00516234 -0.00196085 0.000543985 2.68725e-11 -2.23123e-11 3.92311e-12 5e-05 1.46608e-10 
47 1 0.333359 0.0160277 0.00808699 0.00576472 -0.000276743 -0.000430007 -3.48441e-12 -6.0421e-11 2.912e-11 5e-05 1.46608e-10 
48 1 0.333889 0.0182982 0.00696813 0.00620916 -0.000129258 0.000183555 1.01759e-10 3.33155e-10 -1.13032e-10 5e-05 1.46608e-10 
49 1 0.339778 0.0178262 0.00718796 0.00554266 -0.00200327 0.000690507 -1.71986e-12 7.41442e-13 -3.37159e-12 5e-05 1.46608e-10 
50 1 0.333441 0.0163611 0.00788318 0.00551973 -0.000239344 -0.000427283 -2.12862e-11 -5.2009e-11 2.73219e-11 5e-05 1.46608e-10 
51 1 0.334092 0.0180281 0.00709386 0.00617982 -0.000145001 0.000187761 -1.17286e-10 -6.63689e-11 8.56485e-12 5e-05 1.46608e-10 
52 1 0.327962 0.0173914 0.00721762 0.00573504 0.000388076 -0.000186751 -1.18095e-10 1.53695e-11 6.5372e-11 5e-05 1.46608e-10 
53 1 0.339636 0.0171746 0.00734772 0.00516956 -0.00196297 0.000544591 1.82352e-12 -2.75045e-11 2.03685e-11 5e-05 1.46608e-10 
54 1 0.334212 0.0185753 0.00684957 0.00603917 0.0001885 3.73835e-05 -2.35316e-10 -5.43065e-11 4.79194e-11 5e-05 1.46608e-10 
55 1 0.327762 0.0169479 0.00742299 0.0057418 0.00063286 0.000346393 -5.92401e-11 -6.36598e-11 4.71846e-11 5e-05 1.46608e-10 
56 1 0.334166 0.0187424 0.00685679 0.00590395 0.000130279 -6.31312e-05 -2.24261e-10 -1.01388e-10 1.13284e-11 5e-05 1.46608e-10 
57 1 0.339615 0.0170861 0.00738973 0.00516449 -0.00196228 0.000544541 3.56799e-11 -4.07237e-11 1.49356e-11 5e-05 1.46608e-10 
59 1 0.378022 0.019866 0.005332 -5.02005e-15 -7.41205e-15 7.69802e-14 4.91138e-25 -1.21492e-24 0 5e-05 1.46608e-10 
60 1 0.334029 0.0177601 0.00721345 0.00596263 -0.000162332 0.000190897 -1.89349e-11 -7.00426e-11 1.56244e-11 5e-05 1.46608e-10 
61 1 0.333318 0.0158607 0.0081891 0.00576371 -0.000271552 -0.000434967 -9.90416e-12 -3.62747e-11 1.63581e-11 5e-05 1.46608e-10 
62 1 0.333913 0.0176418 0.00726448 0.00590823 -9.8573e-05 0.000160737 -3.89081e-11 -1.89435e-10 2.71299e-11 5e-05 1.46608e-10 
63 1 0.334006 0.0185306 0.00697104 0.00626865 -0.000167635 0.00021214 -1.34215e-11 -5.76076e-11 -8.59274e-11 5e-05 1.46608e-10 
64 1 0.339655 0.0172633 0.00730568 0.00517625 -0.00196363 0.000545658 2.4956e-11 7.87521e-12 -7.92111e-12 5e-05 1.46608e-10 
65 1 0.327686 0.016995 0.00737804 0.00569896 0.000595744 0.000358967 -2.55773e-10 -1.53155e-12 9.2526e-11 5e-05 1.46608e-10 
66 1 0.327871 0.0178388 0.00717579 0.00615224 0.000163342 -0.000377116 -1.75995e-10 -1.31996e-10 7.59581e-11 5e-05 1.46608e-10 
67 1 0.334038 0.0181778 0.00702531 0.00618639 -0.00016431 0.000195681 -6.38314e-11 1.16627e-10 -5.68109e-11 5e-05 1.46608e-10 
68 1 0.333818 0.0176128 0.00727567 0.00591219 -6.91937e-05 0.000149495 -8.15881e-11 -6.64667e-11 5.52669e-11 5e-05 1.46608e-10 
69 1 0.334134 0.0182071 0.00701402 0.00625844 -0.000191186 0.000210032 -6.81987e-11 1.91278e-10 -8.56753e-11 5e-05 1.46608e-10 
70 1 0.339735 0.017631 0.00718905 0.00536613 -0.00196304 0.000683223 2.24658e-12 -7.69177e-12 1.34123e-11 5e-05 1.46608e-10 
71 1 0.328003 0.0184102 0.00704988 0.00617302 0.000248365 -0.000380831 1.04559e-12 1.4637e-12 -9.79238e-13 5e-05 1.46608e-10 
72 1 0.334099 0.0184544 0.00690182 0.00627356 -0.000146602 0.000194515 -5.26911e-11 4.23704e-11 -3.74084e-11 5e-05 1.46608e-10 
73 1 0.333925 0.0173134 0.00741274 0.00576142 -0.000135158 0.000174715 7.51525e-11 3.65243e-11 -1.46614e-11 5e-05 1.46608e-10 
74 1 0.333461 0.0164447 0.00783212 0.00544725 -0.000221828 -0.000428624 -1.21347e-10 2.76887e-11 4.32442e-12 5e-05 1.46608e-10 
76 1 0.327705 0.0167057 0.0075911 0.00565763 0.000626958 0.000341738 4.86986e-11 -1.63333e-10 1.31223e-10 5e-05 1.46608e-10 
77 1 0.333702 0.0174941 0.00732689 0.00587453 -4.15136e-05 0.000133031 3.56694e-10 1.30758e-10 -1.69444e-11 5e-05 1.46608e-10 
78 1 0.327151 0.0153041 0.00875854 0.00636501 -7.37774e-05 -0.000308208 -5.53429e-11 -9.66201e-11 2.55633e-10 5e-05 1.46608e-10 
79 1 0.328077 0.0183428 0.00705652 0.00618532 0.000260187 -0.000383204 -8.65033e-12 2.39686e-12 -2.38031e-14 5e-05 1.46608e-10 
80 1 0.333776 0.0174342 0.00735538 0.00584847 -5.29582e-05 0.000137938 4.68093e-11 -4.54088e-11 8.24141e-12 5e-05 1.46608e-10 
82 1 0.327987 0.0178597 0.00713823 0.00616707 0.00025162 -0.000381554 4.26937e-11 4.89656e-11 -1.36655e-11 5e-05 1.46608e-10 
83 1 0.32792 0.0172008 0.00726139 0.00565976 0.000541022 0.00038824 2.12185e-11 -5.78003e-11 -4.90615e-11 5e-05 1.46608e-10 
84 1 0.3398 0.0179239 0.00718751 0.0055294 -0.00200058 0.000688951 -4.13094e-13 4.97261e-12 1.08556e-12 5e-05 1.46608e-10 
85 1 0.327883 0.0182819 0.00707687 0.00617548 0.000279226 -0.000385512 1.92971e-11 8.86076e-11 -1.29757e-11 5e-05 1.46608e-10 
86 1 0.333988 0.0175815 0.00729316 0.00588167 -0.000116486 0.000169419 -6.66975e-11 -1.49006e-10 6.49066e-11 5e-05 1.46608e-10 
87 1 0.333735 0.0172554 0.00743511 0.00577115 -5.13896e-05 0.000138434 -7.01082e-11 4.10203e-11 3.46482e-12 5e-05 1.46608e-10 
88 1 0.333881 0.0178807 0.00715612 0.00603384 -9.64764e-05 0.000163514 -5.76996e-11 -5.4486e-11 8.42082e-12 5e-05 1.46608e-10 
89 1 0.334156 0.0182977 0.00697363 0.00633778 -0.000130063 0.000184025 -2.08623e-10 1.09482e-10 -3.82914e-11 5e-05 1.46608e-10 
90 1 0.334059 0.0182672 0.00698545 0.00622746 -0.000205233 0.000216588 -4.00522e-10 -9.8657e-11 4.51848e-11 5e-05 1.46608e-10 
91 1 0.327878 0.01704 0.00737232 0.00567939 0.000567722 0.000385435 -1.04215e-10 -1.4678e-10 2.16862e-10 5e-05 1.46608e-10 
92 1 0.333806 0.0179406 0.00712764 0.00605794 -7.29515e-05 0.000151988 -5.96794e-11 -2.06394e-11 6.18838e-11 5e-05 1.46608e-10 
93 1 0.33354 0.0167939 0.00767053 0.00537427 -0.000143944 -0.000168831 3.00302e-10 -1.43981e-11 3.57411e-11 5e-05 1.46608e-10 
94 1 0.334113 0.0185526 0.00685787 0.00617994 4.98476e-05 0.000109283 4.73491e-10 -5.50781e-11 2.04442e-11 5e-05 1.46608e-10 
95 1 0.333874 0.0182298 0.0071056 0.0061811 -0.000108484 0.000178954 -1.1244e-10 1.1731e-10 -8.37634e-11 5e-05 1.46608e-10 
96 1 0.333785 0.0178513 0.00716749 0.00601896 -6.18741e-05 0.000146746 -6.87079e-11 -1.56487e-10 1.40945e-11 5e-05 1.46608e-10 
97 1 0.327236 0.0155875 0.00849146 0.00581583 0.000374627 -6.35937e-05 4.85801e-10 -6.16102e-12 2.50131e-11 5e-05 1.46608e-10 
98 1 0.333519 0.016697 0.00768438 0.00543238 -0.00018118 -0.000351075 2.24244e-11 -6.53435e-12 8.30398e-11 5e-05 1.46608e-10 
99 1 0.32771 0.0175155 0.00720823 0.00615357 0.000356333 -0.000405508 -4.62141e-12 1.24182e-09 9.25297e-11 5e-05 1.46608e-10 
100 1 0.333997 0.0179991 0.00710507 0.00610687 -0.000152668 0.000190913 -6.43358e-11 -1.05291e-11 -4.09747e-11 5e-05 1.46608e-10 
101 1 0.327732 0.0176117 0.00719174 0.00613935 0.000120069 -0.000335152 1.48978e-11 4.19192e-10 -4.20928e-10 5e-05 1.46608e-10 
102 1 0.0643568 0.0187248 0.00531097 4.31429e-15 1.04956e-14 8.29578e-14 1.49961e-21 -8.76811e-23 -4.96308e-23 5e-05 1.46608e-10 
103 1 0.24257 0.0191927 0.00520306 3.10422e-23 4.86658e-23 1.23839e-22 0 0 0 5e-05 1.46608e-10 
104 1 0.328155 0.0182813 0.00706194 0.00619688 0.000274306 -0.000386104 -8.96712e-12 -1.47788e-11 3.49696e-12 5e-05 1.46608e-10 
105 1 0.327372 0.0157625 0.00834648 0.00576569 0.000354876 -4.87641e-05 -1.17442e-10 3.64473e-11 -4.30815e-11 5e-05 1.46608e-10 
106 1 0.327727 0.0171679 0.00729006 0.00568576 0.000375558 2.08437e-05 3.4292e-10 4.02669e-11 2.85672e-11 5e-05 1.46608e-10 
107 1 0.327173 0.0153641 0.00868149 0.00634247 0.000309181 7.28692e-06 2.66611e-10 -2.28153e-10 2.37152e-10 5e-05 1.46608e-10 
108 1 0.334173 0.0183943 0.00693043 0.00634833 -9.09095e-05 0.00016742 -1.74795e-10 1.90046e-10 -7.75406e-11 5e-05 1.46608e-10 
109 1 0.334237 0.0186719 0.00684467 0.00593816 0.000188331 -5.73649e-05 -4.53701e-10 -1.60356e-10 -7.00671e-11 5e-05 1.46608e-10 
110 1 0.33366 0.0173154 0.00740659 0.00579033 -2.27979e-05 0.000126827 -1.8469e-10 -1.22657e-10 2.47258e-11 5e-05 1.46608e-10 
111 1 0.333618 0.0171368 0.00748629 0.0057296 -1.49426e-05 0.000118606 -7.48701e-11 2.16757e-10 -7.56922e-11 5e-05 1.46608e-10 
112 1 0.327623 0.0171319 0.00737708 0.00571696 0.000928398 -0.00028744 1.20177e-09 -8.59709e-10 3.86902e-10 5e-05 1.46608e-10 
113 1 0.327611 0.0170432 0.00733245 0.00573744 0.000630975 0.000339551 2.71759e-11 -1.13461e-11 -1.87877e-10 5e-05 1.46608e-10 
114 1 0.32767 0.0173222 0.00724119 0.00572273 0.000369914 -0.000381962 -4.07172e-10 -8.55582e-11 4.9472e-10 5e-05 1.46608e-10 
115 1 0.333967 0.0174921 0.00733301 0.00584646 -0.000116791 0.000169043 7.3633e-11 -3.86593e-11 9.74772e-12 5e-05 1.46608e-10 
116 1 0.333964 0.018238 0.0069967 0.00620048 -0.000142423 0.000186752 1.18773e-10 2.13703e-10 -6.37526e-11 5e-05 1.46608e-10 
117 1 0.333955 0.0178205 0.00718477 0.0060031 -0.000127282 0.000175681 -3.09309e-11 -9.16592e-11 9.0297e-11 5e-05 1.46608e-10 
118 1 0.327801 0.0171044 0.00731464 0.00571272 0.00056061 0.000394832 3.07132e-10 -7.85197e-11 -1.17343e-10 5e-05 1.46608e-10 
119 1 0.334193 0.0184856 0.00688963 0.0061908 0.000178241 4.77355e-05 -2.03613e-10 8.57633e-12 2.89377e-11 5e-05 1.46608e-10 
120 1 0.333747 0.0169272 0.00758333 0.00543236 4.35979e-05 8.78383e-05 1.4548e-10 -9.37531e-11 4.31807e-11 5e-05 1.46608e-10 
121 1 0.333974 0.0186764 0.00688349 0.0057719 -4.53133e-05 -1.36955e-07 -1.11706e-11 -2.92658e-10 1.59127e-10 5e-05 1.46608e-10 
122 1 0.333764 0.017762 0.00720734 0.00597455 -5.83727e-05 0.000143039 2.16699e-11 4.76162e-12 6.7694e-11 5e-05 1.46608e-10 
123 1 0.327927 0.0184747 0.00704383 0.00616769 0.000242572 -0.000380227 -2.74955e-12 2.2156e-11 -6.34492e-13 5e-05 1.46608e-10 
124 1 0.333652 0.0168981 0.00759458 0.00543339 4.03668e-05 9.05672e-05 1.64857e-10 -2.22661e-11 -4.43592e-12 5e-05 1.46608e-10 
125 1 0.33386 0.0177914 0.00719597 0.00598583 -8.93883e-05 0.000157517 -6.4746e-11 -1.40954e-10 3.92264e-11 5e-05 1.46608e-10 
127 1 0.327215 0.015513 0.00855488 0.00602136 0.000348921 -3.13397e-05 -2.83205e-11 -6.61063e-11 7.00712e-11 5e-05 1.46608e-10 
128 1 0.333501 0.0166104 0.00773087 0.00545167 -0.000223792 -0.00043214 -8.85545e-11 1.44083e-11 7.1112e-11 5e-05 1.46608e-10 
129 1 0.333954 0.0184466 0.00699665 0.00624444 -0.000196588 0.000194312 5.46632e-11 8.82025e-11 -1.91004e-10 5e-05 1.46608e-10 
130 1 0.327766 0.0173546 0.00723073 0.00591459 0.000273127 -0.000355576 -8.48197e-10 6.86807e-10 -1.00777e-10 5e-05 1.46608e-10 
131 1 0.327786 0.017451 0.00721426 0.00607319 0.000220299 -0.000383138 -6.16667e-10 9.82136e-10 -4.18671e-11 5e-05 1.46608e-10 
132 1 0.333851 0.0173739 0.00738403 0.00581534 -8.19689e-05 0.000153097 4.30324e-11 -2.06756e-11 5.52499e-12 5e-05 1.46608e-10 
133 1 0.333985 0.0183274 0.00695684 0.00622686 -0.000179181 0.00020607 -1.5168e-10 1.07085e-10 -7.92204e-11 5e-05 1.46608e-10 
134 1 0.333943 0.0181487 0.00703656 0.00617362 -0.000136441 0.000184347 7.2791e-13 1.51438e-10 -7.30797e-11 5e-05 1.46608e-10 
135 1 0.334113 0.0181177 0.0070539 0.00615077 -0.000208125 0.000215946 -6.50824e-11 1.02843e-10 -5.42715e-11 5e-05 1.46608e-10 
136 1 0.327743 0.0168671 0.00747906 0.00576569 0.000620788 0.000357537 -6.04249e-11 -1.73965e-10 1.16593e-10 5e-05 1.46608e-10 
137 1 0.334137 0.0185377 0.00695385 0.0062578 0.000193046 0.000107073 -1.79849e-10 9.69407e-11 7.33343e-11 5e-05 1.46608e-10 
138 1 0.333847 0.0181195 0.00704783 0.00612464 -0.00012927 0.000179521 3.79823e-12 7.75247e-12 -2.63716e-12 5e-05 1.46608e-10 
140 1 0.333722 0.0175834 0.00728704 0.00589874 -4.58892e-05 0.000136377 -5.51246e-11 -2.62558e-10 3.70987e-11 5e-05 1.46608e-10 
141 1 0.327589 0.0162373 0.00794644 0.00559943 0.000357231 -5.57019e-05 1.21905e-10 -3.6936e-11 -2.51342e-11 5e-05 1.46608e-10 
142 1 0.328004 0.0175836 0.0071812 0.00602136 0.000284878 -0.000376253 5.0954e-11 9.01723e-11 -1.02304e-11 5e-05 1.46608e-10 
143 1 0.327194 0.0154385 0.00861819 0.00622213 0.000313479 1.31395e-05 1.35351e-09 -6.75808e-10 8.07246e-10 5e-05 1.46608e-10 
144 1 0.327841 0.0172875 0.0072374 0.00574811 0.000207255 -0.000296535 5.54827e-10 -4.38449e-10 3.10266e-10 5e-05 1.46608e-10 
146 1 0.327256 0.0156621 0.00842803 0.00572453 0.000382878 -7.54306e-05 -6.29362e-11 8.22494e-11 -6.60365e-11 5e-05 1.46608e-10 
147 1 0.327746 0.0172594 0.00725428 0.00575277 0.000306213 -0.000329564 -3.9201e-10 1.88618e-11 -6.9282e-10 5e-05 1.46608e-10 
148 1 0.327608 0.016312 0.00788287 0.00562448 0.000345147 -5.03582e-05 -3.20892e-11 -5.90555e-11 -8.6073e-11 5e-05 1.46608e-10 
149 1 0.333577 0.0169581 0.00756605 0.00556008 7.23846e-06 0.000107629 -9.88634e-11 1.41684e-10 -1.63175e-10 5e-05 1.46608e-10 
150 1 0.327862 0.0181856 0.00709338 0.00615869 0.000248107 -0.000379689 1.22285e-11 3.25241e-11 -7.30893e-12 5e-05 1.46608e-10 
151 1 0.327775 0.0178003 0.00715941 0.00612536 0.000125303 -0.000359088 4.55854e-11 -4.36717e-12 1.25275e-11 5e-05 1.46608e-10 
153 1 0.327627 0.0163869 0.0078195 0.00563593 0.000333517 -4.45566e-05 2.11319e-10 -6.3515e-11 3.27434e-11 5e-05 1.46608e-10 
154 1 0.327351 0.015688 0.0084099 0.00573708 0.000352166 -4.77656e-05 -8.94819e-11 7.06388e-11 -6.97739e-11 5e-05 1.46608e-10 
155 1 0.327699 0.0172487 0.00734154 0.00549567 0.000589085 -0.000411426 3.29602e-10 -1.95339e-10 -1.53264e-11 5e-05 1.46608e-10 
156 1 0.327569 0.0161626 0.00801 0.00556217 0.000360664 -6.29018e-05 5.99021e-11 4.02377e-11 -5.55951e-12 5e-05 1.46608e-10 
157 1 0.0219312 0.0187687 0.00551176 -3.83076e-14 8.16722e-14 2.9589e-13 1.70965e-21 6.46235e-22 3.74299e-23 5e-05 1.46608e-10 
158 1 0.327666 0.0165445 0.00770273 0.00560558 0.000625237 0.000335129 -1.53982e-10 -2.9173e-11 5.67214e-11 5e-05 1.46608e-10 
159 1 0.333872 0.0174632 0.00734418 0.00584975 -8.28333e-05 0.000153467 -4.8736e-11 -6.86588e-11 6.49054e-11 5e-05 1.46608e-10 
160 1 0.327753 0.0177096 0.00719579 0.00597976 0.000113038 -0.000420962 -2.80092e-10 2.30566e-10 -4.78557e-11 5e-05 1.46608e-10 
162 1 0.327981 0.0181749 0.00717096 0.0061983 0.000275604 -0.000380652 -7.50318e-11 1.68118e-12 -9.22479e-12 5e-05 1.46608e-10 
164 1 0.327337 0.0159603 0.00817426 0.00579812 0.000358161 -4.92557e-05 -2.14324e-11 -7.24631e-11 6.47675e-11 5e-05 1.46608e-10 
165 1 0.327914 0.0180232 0.00711626 0.00616212 0.000250174 -0.000380037 -4.15177e-11 5.15968e-12 3.48362e-12 5e-05 1.46608e-10 
166 1 0.333868 0.0182088 0.00700798 0.00615262 -0.000141158 0.000185286 -1.0129e-10 2.38299e-10 -1.30821e-10 5e-05 1.46608e-10 
167 1 0.327818 0.0179928 0.00712643 0.0061279 0.000153046 -0.000363386 -4.27638e-11 -1.0103e-10 1.91428e-11 5e-05 1.46608e-10 
168 1 0.327959 0.018217 0.00708299 0.00618226 0.000266975 -0.00038362 2.79975e-12 6.38675e-11 -1.00937e-11 5e-05 1.46608e-10 
169 1 0.32784 0.0180894 0.00710987 0.00615707 0.000249338 -0.000379679 -7.84661e-12 2.00473e-11 1.22715e-12 5e-05 1.46608e-10 
170 1 0.327937 0.0181202 0.00709961 0.00615706 0.000244662 -0.00037914 1.0208e-12 2.69352e-11 -5.57044e-12 5e-05 1.46608e-10 
171 1 0.334088 0.0188047 0.0068677 0.00578351 -1.31648e-05 -8.65338e-05 -2.22564e-10 -2.05917e-10 -3.02998e-11 5e-05 1.46608e-10 
172 1 0.327592 0.0169626 0.00738836 0.00574 0.00064354 0.000340325 2.35658e-10 -2.92743e-11 1.02569e-10 5e-05 1.46608e-10 
173 1 0.334034 0.0189661 0.00689384 0.00566728 -0.00015113 -0.000108415 1.27311e-10 4.19886e-10 9.91467e-11 5e-05 1.46608e-10 
174 1 0.327379 0.0161094 0.00804743 0.00565983 0.000369068 -6.70679e-05 -7.91433e-11 -1.72016e-11 -6.74133e-11 5e-05 1.46608e-10 
176 1 0.327667 0.0169156 0.00743577 0.00574876 0.000609462 0.000369799 -1.68961e-10 -2.19803e-10 1.19896e-10 5e-05 1.46608e-10 
177 1 0.327276 0.0157366 0.00836457 0.00575552 0.00037498 -6.62958e-05 -5.39094e-11 2.95735e-11 -2.55918e-11 5e-05 1.46608e-10 
178 1 0.327778 0.0176678 0.00728324 0.00592217 5.14029e-05 -0.000432241 -9.78036e-11 -1.53513e-10 -4.47956e-10 5e-05 1.46608e-10 
179 1 0.327789 0.017784 0.00725699 0.00611538 0.000161651 -0.000360117 -1.38248e-11 -3.06068e-10 3.63538e-11 5e-05 1.46608e-10 
182 1 0.333993 0.0187726 0.00686407 0.00510639 4.67873e-05 -7.60568e-05 5.98789e-10 -6.45756e-11 2.27331e-10 5e-05 1.46608e-10 
183 1 0.32765 0.0172227 0.00725808 0.00566428 4.28362e-05 -0.000320093 2.0408e-10 1.92597e-10 -3.22573e-10 5e-05 1.46608e-10 
184 1 0.334022 0.0185129 0.00687395 0.00627048 -0.000127631 0.000190271 1.85252e-10 1.24324e-10 -9.864e-11 5e-05 1.46608e-10 
185 1 0.327861 0.0173839 0.00722078 0.00600906 0.000148336 -0.000380198 4.17911e-10 -5.69529e-10 2.57576e-10 5e-05 1.46608e-10 
186 1 0.327905 0.0183789 0.00706274 0.00616354 0.000248941 -0.000385499 3.38297e-11 6.67484e-11 6.69012e-11 5e-05 1.46608e-10 
187 1 0.334006 0.0184171 0.00691684 0.00627757 -0.000146792 0.000195298 4.38179e-11 2.41032e-10 -2.05769e-10 5e-05 1.46608e-10 
188 1 0.333839 0.0177021 0.00723582 0.00594747 -7.53933e-05 0.000150111 1.07544e-10 -7.22672e-11 6.85776e-11 5e-05 1.46608e-10 
189 1 0.333953 0.01858 0.00690066 0.00626355 -0.000103407 0.000177155 -1.66862e-10 -6.10792e-11 -3.97375e-10 5e-05 1.46608e-10 
190 1 0.321907 0.0183621 0.00692692 0.00613595 -0.00061752 0.000270118 -4.14685e-11 1.29161e-10 -1.40153e-11 5e-05 1.46608e-10 
191 1 0.333598 0.0170475 0.00752614 0.00568637 -1.17088e-05 0.000118342 -2.12555e-10 2.1544e-10 -2.64088e-11 5e-05 1.46608e-10 
192 1 0.327631 0.0171256 0.00727535 0.00603138 0.00174857 -0.000422774 7.15952e-12 2.92661e-11 -2.02979e-11 5e-05 1.46608e-10 
193 1 0.334145 0.018646 0.00687317 0.00599096 0.000131081 6.01101e-05 -8.22088e-11 7.88379e-11 -3.10234e-11 5e-05 1.46608e-10 
194 1 0.328063 0.0182451 0.00707281 0.00619541 0.000259095 -0.000383758 -1.72394e-11 1.17412e-11 1.18863e-12 5e-05 1.46608e-10 
195 1 0.32799 0.0179584 0.00712237 0.00616952 0.000255354 -0.000381164 -3.53388e-11 3.17898e-11 -1.01376e-12 5e-05 1.46608e-10 
196 1 0.327924 0.0176741 0.0071712 0.00619797 0.00016776 -0.000372647 1.32608e-10 1.48181e-11 -9.26917e-12 5e-05 1.46608e-10 
197 1 0.321574 0.0169327 0.0075173 0.00542385 -0.000564675 -0.000111152 1.69567e-10 -4.46796e-10 1.65046e-10 5e-05 1.46608e-10 
198 1 0.327942 0.0172964 0.0072413 0.00566128 0.000496461 0.000185661 -2.59587e-11 -4.98806e-11 8.25813e-11 5e-05 1.46608e-10 
199 1 0.327995 0.0178155 0.00722756 0.00614802 0.000240228 -0.000383922 -5.07225e-11 -1.27264e-10 -7.02108e-11 5e-05 1.46608e-10 
200 1 0.327331 0.0156134 0.00847336 0.00568968 0.000355146 -5.20989e-05 -1.8563e-10 8.44449e-11 -8.16243e-11 5e-05 1.46608e-10 
201 1 0.328012 0.0180545 0.00710587 0.00617874 0.000257819 -0.000382211 -6.25965e-11 2.20514e-11 1.07836e-12 5e-05 1.46608e-10 
202 1 0.327686 0.0166251 0.00764701 0.00562 0.000628745 0.000335225 1.26129e-11 -1.37892e-10 3.34084e-11 5e-05 1.46608e-10 
203 1 0.333922 0.0180594 0.00707641 0.00613143 -0.000125727 0.000178979 -8.97855e-11 9.74758e-11 -2.91565e-11 5e-05 1.46608e-10 
204 1 0.328086 0.0179868 0.00711257 0.00617547 0.000248309 -0.000380651 -5.43884e-11 -3.42946e-12 3.88212e-12 5e-05 1.46608e-10 
205 1 0.327513 0.016285 0.00790191 0.00561764 0.00037491 -7.20804e-05 7.85569e-11 -1.0359e-10 3.06479e-11 5e-05 1.46608e-10 
206 1 0.327552 0.0164352 0.00777569 0.0056645 0.000401139 -7.39071e-06 5.34422e-12 -6.04771e-11 1.32855e-10 5e-05 1.46608e-10 
207 1 0.327433 0.0159863 0.00815609 0.00582269 0.000431023 -0.000111644 -6.45058e-11 -7.33303e-12 -3.70186e-12 5e-05 1.46608e-10 
208 1 0.327983 0.0174872 0.00719767 0.00589679 0.000314182 -0.000373297 2.50235e-11 4.55486e-11 -5.84795e-11 5e-05 1.46608e-10 
209 1 0.327781 0.0170424 0.00739626 0.00567061 0.00063405 0.000344745 -4.3569e-11 -3.77593e-10 4.29467e-10 5e-05 1.46608e-10 
210 1 0.333693 0.0170768 0.00751481 0.00572348 -2.37837e-05 0.000122803 -6.02774e-11 4.22289e-11 -4.9655e-12 5e-05 1.46608e-10 
211 1 0.333714 0.0171661 0.00747497 0.0057212 -3.05025e-05 0.000126329 3.82673e-11 1.24543e-10 -3.49839e-11 5e-05 1.46608e-10 
212 1 0.328034 0.0181508 0.00708939 0.00618809 0.000260957 -0.000383474 -3.14284e-11 1.91879e-11 5.44369e-12 5e-05 1.46608e-10 
213 1 0.333932 0.0184825 0.00690605 0.00627233 -0.00011366 0.000204849 9.7318e-11 2.05791e-10 -9.22286e-12 5e-05 1.46608e-10 
214 1 0.333797 0.0175235 0.00731553 0.00587887 -6.30949e-05 0.000145167 3.41667e-13 2.64168e-11 -5.47684e-11 5e-05 1.46608e-10 
215 1 0.321801 0.0179004 0.00704602 0.00604477 -0.000756243 -7.16776e-05 -6.67646e-11 -7.13497e-11 1.23869e-11 5e-05 1.46608e-10 
216 1 0.327412 0.0159117 0.00821952 0.00579984 0.000363041 -5.43201e-05 2.21893e-11 -6.06812e-11 5.16422e-11 5e-05 1.46608e-10 
217 1 0.334065 0.0187033 0.00685212 0.00568133 0.000279812 -3.06494e-05 -7.81584e-12 -1.40125e-11 -9.30792e-11 5e-05 1.46608e-10 
218 1 0.327689 0.017419 0.00722476 0.005684 0.000416953 -0.000390942 -1.60598e-10 -4.88293e-10 -3.31163e-10 5e-05 1.46608e-10 
219 1 0.333557 0.016869 0.00760683 0.00544008 -1.92609e-05 -9.01516e-06 4.54584e-11 5.08477e-11 -1.35432e-10 5e-05 1.46608e-10 
220 1 0.327808 0.0175472 0.00719777 0.00618566 0.000156943 -0.000361295 2.87293e-10 5.97449e-10 -1.9755e-10 5e-05 1.46608e-10 
222 1 0.33405 0.0178494 0.0071736 0.00602093 -0.000174594 0.000198667 2.06067e-11 -9.04053e-11 3.60548e-11 5e-05 1.46608e-10 
224 1 0.32759 0.0165919 0.00765767 0.00559677 0.000655034 0.00031455 -1.08688e-10 1.61127e-11 4.84656e-11 5e-05 1.46608e-10 
225 1 0.333639 0.0172265 0.00744743 0.00574183 -1.62643e-05 0.000121782 1.76135e-10 5.46406e-11 -5.34117e-11 5e-05 1.46608e-10 
226 1 0.328025 0.01768 0.00716472 0.0061238 0.000260289 -0.000377811 1.02289e-10 9.16594e-11 1.91729e-11 5e-05 1.46608e-10 
227 1 0.321822 0.0179883 0.00700322 0.00613865 -0.000754783 -2.9566e-05 -1.62059e-10 -1.82576e-10 -3.18883e-10 5e-05 1.46608e-10 
228 1 0.321759 0.0177245 0.00713169 0.00597857 -0.000728995 -7.78764e-05 -2.29826e-10 1.6936e-10 1.08345e-10 5e-05 1.46608e-10 
229 1 0.32798 0.0183133 0.00706651 0.00617056 0.000262745 -0.000384233 1.80551e-11 5.26088e-11 -1.10928e-11 5e-05 1.46608e-10 
230 1 0.327495 0.0165595 0.00766781 0.00560649 0.000669178 0.00030367 -3.20583e-11 -1.44571e-10 9.28843e-11 5e-05 1.46608e-10 
232 1 0.328098 0.0184391 0.00704002 0.00617205 0.000250526 -0.000380958 1.08895e-11 -5.34712e-11 6.41709e-12 5e-05 1.46608e-10 
233 1 0.327796 0.0178965 0.00714292 0.0061343 0.000159918 -0.000367604 -1.72254e-10 -8.24696e-11 7.04163e-11 5e-05 1.46608e-10 
234 1 0.333743 0.0176727 0.00724719 0.00594903 -4.5379e-05 0.000139815 -1.66086e-10 3.10063e-11 2.67358e-11 5e-05 1.46608e-10 
235 1 0.327457 0.0164081 0.00779317 0.00567963 0.000295656 -2.12641e-05 -2.19586e-11 -2.2249e-11 8.57745e-11 5e-05 1.46608e-10 
236 1 0.327553 0.0168014 0.00750011 0.00569068 0.000664122 0.000316393 2.07192e-11 -2.99544e-11 2.75794e-11 5e-05 1.46608e-10 
237 1 0.327573 0.016882 0.00744445 0.00571251 0.000656339 0.000328259 -1.57081e-10 -8.93201e-11 1.44341e-11 5e-05 1.46608e-10 
239 1 0.321477 0.016505 0.0077559 0.00538735 -0.000221596 0.000232444 -1.67936e-11 2.31437e-11 1.11266e-11 5e-05 1.46608e-10 
240 1 0.321535 0.0167563 0.00760305 0.00543743 -0.000496098 -0.000118156 1.31562e-10 -1.10627e-10 2.58079e-10 5e-05 1.46608e-10 
241 1 0.321457 0.0164215 0.00780742 0.00539484 -0.000205822 0.000221132 -1.0877e-11 1.5419e-11 -6.94471e-12 5e-05 1.46608e-10 
242 1 0.327549 0.016088 0.00807355 0.00561125 0.000352714 -5.41115e-05 3.93846e-10 8.77544e-11 -6.18998e-11 5e-05 1.46608e-10 
243 1 0.327903 0.0175771 0.00718778 0.0060486 0.00031221 -0.000429971 -9.62148e-10 -6.39295e-11 3.68917e-10 5e-05 1.46608e-10 
244 1 0.321496 0.0165884 0.00770437 0.00541648 -0.000224894 0.000235119 -1.51337e-11 3.26063e-11 -1.30283e-10 5e-05 1.46608e-10 
246 1 0.321677 0.0173727 0.00730306 0.00580328 -0.000684918 -8.25535e-05 -5.10978e-10 1.39262e-10 -3.28076e-11 5e-05 1.46608e-10 
247 1 0.327399 0.016184 0.00798393 0.00560617 0.000375663 -7.17597e-05 5.49279e-11 4.57135e-11 8.56691e-12 5e-05 1.46608e-10 
248 1 0.327756 0.0175704 0.00727966 0.00619772 -2.39232e-05 -0.000318671 7.24505e-11 3.31773e-11 -1.22579e-09 5e-05 1.46608e-10 
249 1 0.321614 0.017109 0.00743156 0.00568364 -0.000640655 -9.43079e-05 1.46152e-10 2.38265e-10 -1.149e-10 5e-05 1.46608e-10 
250 1 0.327473 0.0161356 0.00802908 0.00561566 0.000368141 -6.64585e-05 2.45437e-10 5.39037e-11 -1.68734e-11 5e-05 1.46608e-10 
251 1 0.333901 0.0179701 0.00711627 0.00608086 -0.000111409 0.000170962 4.99972e-11 5.36383e-12 3.66084e-11 5e-05 1.46608e-10 
252 1 0.321697 0.0174608 0.0072602 0.00587266 -0.000692446 -8.19231e-05 -4.39314e-10 -1.92769e-10 1.30471e-10 5e-05 1.46608e-10 
253 1 0.321885 0.0182644 0.00692517 0.00616813 -0.00061845 0.000269833 1.87444e-11 1.08281e-10 3.7014e-11 5e-05 1.46608e-10 
254 1 0.321635 0.017197 0.00738871 0.00577867 -0.000660849 -9.11367e-05 -4.06702e-10 3.65303e-10 -1.305e-10 5e-05 1.46608e-10 
255 1 0.328025 0.0185064 0.00703339 0.00617397 0.000248762 -0.000380744 1.38533e-11 -3.02973e-11 4.23212e-12 5e-05 1.46608e-10 
256 1 0.327949 0.0185712 0.0070273 0.00617282 0.000244737 -0.000380004 -1.79886e-11 -8.25317e-11 1.3772e-11 5e-05 1.46608e-10 
257 1 0.327646 0.016464 0.00775871 0.00562283 0.000497468 0.000166012 7.16565e-11 -4.73301e-11 6.68477e-11 5e-05 1.46608e-10 
258 1 0.32786 0.0176119 0.00727102 0.00599986 0.000221376 -0.000522562 -5.28374e-10 4.17303e-10 8.62634e-10 5e-05 1.46608e-10 
259 1 0.321718 0.0175487 0.00721737 0.00595274 -0.000707614 -7.94574e-05 3.97809e-10 -1.59766e-10 2.25419e-11 5e-05 1.46608e-10 