ITEM: TIMESTEP
19000000
ITEM: NUMBER OF ATOMS
287
ITEM: BOX BOUNDS ff ff ff
-0.02 0.43
-0.02 0.06
-0.02 0.07
ITEM: ATOMS id type x y z vx vy vz fx fy fz radius mass 
1 1 0.123621 0.0163101 0.0077618 0.00583952 8.37295e-05 0.000113708 -3.37375e-12 -1.48335e-11 1.23473e-11 5e-05 1.46608e-10 
2 1 0.124227 0.0181528 0.00697151 0.00608552 -9.46126e-05 -0.00012525 6.65021e-11 3.17548e-11 -7.27901e-12 5e-05 1.46608e-10 
3 1 0.117407 0.016018 0.00841163 0.00597812 -0.000180366 -0.000361876 -8.01843e-11 8.3852e-11 -1.84638e-10 5e-05 1.46608e-10 
4 1 0.123934 0.017705 0.00706541 0.00568504 9.28067e-05 -0.000152 5.58787e-11 -4.85796e-11 2.27214e-11 5e-05 1.46608e-10 
5 1 0.123486 0.0161314 0.00789816 0.00576284 -3.59189e-05 -3.23107e-05 1.42352e-11 -4.32487e-11 2.38439e-11 5e-05 1.46608e-10 
6 1 0.129576 0.0165452 0.00777643 0.00559458 -0.000408114 -8.23858e-05 2.53103e-11 -3.12374e-11 4.2092e-11 5e-05 1.46608e-10 
7 1 0.123665 0.0168739 0.0074298 0.00570369 0.000126193 8.45131e-05 1.79913e-11 -4.58835e-11 2.81264e-11 5e-05 1.46608e-10 
8 1 0.123385 0.0158111 0.00826842 0.00620059 -0.000246902 -0.000128897 -7.07524e-11 2.67725e-11 -1.91822e-11 5e-05 1.46608e-10 
9 1 0.129824 0.0176148 0.00715756 0.00558817 0.00011276 0.000404031 -1.01738e-10 -2.49427e-10 8.93464e-11 5e-05 1.46608e-10 
10 1 0.123606 0.01662 0.00757825 0.00558501 0.000143597 7.08692e-05 9.9217e-11 -4.45185e-11 3.32943e-11 5e-05 1.46608e-10 
11 1 0.124182 0.0179563 0.00701072 0.00566143 0.000119575 -0.000159482 -1.59372e-10 -2.49343e-10 1.17723e-10 5e-05 1.46608e-10 
12 1 0.117588 0.016607 0.00777602 0.00579688 -0.000137496 -0.000371396 6.23177e-11 -1.30186e-10 9.00726e-11 5e-05 1.46608e-10 
13 1 0.123467 0.0160664 0.00797179 0.00569068 -0.000179919 -0.000175156 3.44398e-12 -4.6047e-11 3.05334e-11 5e-05 1.46608e-10 
14 1 0.117313 0.0157116 0.00862897 0.00599389 -0.000206818 -0.000325306 -5.60535e-11 -1.76913e-10 1.68807e-10 5e-05 1.46608e-10 
15 1 0.123818 0.017157 0.00726673 0.00561064 0.000142814 7.23223e-05 -1.41698e-12 5.60709e-11 -3.66673e-11 5e-05 1.46608e-10 
16 1 0.117291 0.0156409 0.00869629 0.00599886 -0.000211238 -0.000321361 -6.69128e-11 -2.25023e-10 2.1225e-10 5e-05 1.46608e-10 
17 1 0.123587 0.0165353 0.00762773 0.00554289 0.000150616 6.54054e-05 -9.88082e-11 -3.8465e-11 1.57528e-11 5e-05 1.46608e-10 
18 1 0.129707 0.0170541 0.007329 0.00554448 0.000105763 0.000409353 4.6239e-11 3.22946e-11 1.45862e-12 5e-05 1.46608e-10 
19 1 0.123449 0.0160023 0.00804618 0.00563921 -0.000170664 -0.000177255 2.38943e-11 -2.51785e-11 4.67938e-11 5e-05 1.46608e-10 
21 1 0.1236 0.0162256 0.00781118 0.00581638 8.64031e-05 0.000110284 -6.86792e-12 -1.24556e-11 -1.06706e-11 5e-05 1.46608e-10 
22 1 0.123704 0.0170433 0.00733075 0.0055934 0.000146982 6.956e-05 -2.75173e-12 2.5809e-11 -1.58906e-11 5e-05 1.46608e-10 
23 1 0.117724 0.0167721 0.00761145 0.00554053 -6.0372e-05 -0.000421782 9.21944e-11 1.94592e-10 -2.03258e-10 5e-05 1.46608e-10 
24 1 0.129765 0.0173335 0.00724356 0.00554573 9.61603e-05 0.000412295 1.01362e-10 -8.7039e-11 2.87068e-11 5e-05 1.46608e-10 
25 1 0.123646 0.0167893 0.00747928 0.00567883 0.000127436 8.29911e-05 8.08344e-11 -3.82149e-11 2.55775e-11 5e-05 1.46608e-10 
26 1 0.129651 0.0168207 0.00749635 0.00563069 -0.000287537 4.30853e-05 -1.2882e-11 -1.4103e-11 3.73249e-11 5e-05 1.46608e-10 
27 1 0.117835 0.0173633 0.00728337 0.00568947 0.000297781 0.000117203 -1.17415e-10 1.28297e-10 -5.54951e-11 5e-05 1.46608e-10 
28 1 0.123914 0.0176087 0.00708456 0.00570419 8.50401e-05 -0.000149838 3.19468e-11 3.72343e-11 -1.00579e-11 5e-05 1.46608e-10 
29 1 0.123428 0.0159403 0.00812207 0.00621233 -0.000254916 -0.000121387 5.08662e-11 -3.8418e-11 2.77925e-11 5e-05 1.46608e-10 
30 1 0.123875 0.0174167 0.00712782 0.0056397 5.66728e-06 -0.000241905 5.57968e-11 5.28743e-11 -9.00561e-12 5e-05 1.46608e-10 
31 1 0.123685 0.0169586 0.0073803 0.00556913 0.000150782 6.61391e-05 -1.41956e-11 -1.90953e-11 1.52695e-11 5e-05 1.46608e-10 
32 1 0.123799 0.0170723 0.00731628 0.00558187 0.000146492 6.91904e-05 -6.4672e-11 5.15686e-11 -3.24106e-11 5e-05 1.46608e-10 
33 1 0.129595 0.0166139 0.00770635 0.00563714 -0.00041596 -7.71778e-05 -1.31341e-11 -3.4063e-12 1.07219e-11 5e-05 1.46608e-10 
34 1 0.123567 0.0164508 0.00767716 0.00585922 9.9122e-05 0.000104655 -6.82842e-12 -4.30886e-11 2.71831e-11 5e-05 1.46608e-10 
35 1 0.123779 0.0169876 0.0073658 0.00556857 0.000147453 6.82743e-05 -3.33121e-11 1.81694e-11 -9.76205e-12 5e-05 1.46608e-10 
36 1 0.129863 0.0178052 0.00711223 0.00562237 -0.000158544 -0.00112533 2.30144e-10 2.12768e-10 -5.14043e-10 5e-05 1.46608e-10 
37 1 0.12374 0.0168181 0.00746491 0.00570661 0.000133679 8.01847e-05 -6.20789e-11 -1.33332e-10 7.64587e-11 5e-05 1.46608e-10 
38 1 0.123951 0.0173581 0.00715794 0.00568667 0.000118059 -9.86331e-05 1.15028e-10 2.06221e-13 1.66091e-10 5e-05 1.46608e-10 
39 1 0.129784 0.0174273 0.00721488 0.00556283 9.36488e-05 0.00041555 4.74803e-11 1.17752e-10 1.43466e-12 5e-05 1.46608e-10 
41 1 0.123526 0.0162818 0.00777592 0.00583134 0.000100122 0.000103884 2.84574e-11 -4.23395e-11 2.48366e-11 5e-05 1.46608e-10 
42 1 0.123723 0.0171281 0.0072812 0.0056171 0.000143445 7.20483e-05 -1.46888e-11 4.61773e-11 -3.39877e-11 5e-05 1.46608e-10 
44 1 0.12397 0.0174492 0.00712144 0.00573047 9.20658e-05 -0.000150076 1.7855e-11 -3.63483e-11 -7.67286e-11 5e-05 1.46608e-10 
45 1 0.129615 0.0166826 0.00763628 0.00568577 -0.000423731 -7.33634e-05 4.94024e-12 5.78471e-12 -3.48307e-11 5e-05 1.46608e-10 
46 1 0.129687 0.0169603 0.00735765 0.00570764 7.03517e-05 0.000430103 4.52595e-11 -4.80147e-11 3.08624e-11 5e-05 1.46608e-10 
47 1 0.123546 0.0163663 0.00772654 0.00585256 9.86899e-05 0.000104985 -5.31348e-11 -3.62615e-11 2.82944e-11 5e-05 1.46608e-10 
48 1 0.123761 0.0172975 0.0071821 0.00566348 0.000139037 7.39728e-05 -2.77742e-11 1.1525e-11 -1.22072e-11 5e-05 1.46608e-10 
49 1 0.12967 0.0168903 0.00742691 0.00568389 -4.63133e-05 0.00030161 7.75034e-13 -4.35465e-11 6.79481e-11 5e-05 1.46608e-10 
50 1 0.12382 0.0175781 0.00709459 0.00570775 7.26491e-05 -0.00014935 1.97824e-11 9.85673e-12 -1.29698e-11 5e-05 1.46608e-10 
51 1 0.1238 0.0174827 0.00711752 0.00568706 8.57764e-05 -9.12738e-05 3.07701e-11 4.10235e-11 1.0977e-10 5e-05 1.46608e-10 
52 1 0.117566 0.0165363 0.00784338 0.00592695 -0.000172622 -0.000349902 -1.01913e-10 -1.26064e-10 6.69125e-11 5e-05 1.46608e-10 
53 1 0.129727 0.0171508 0.00731447 0.00554322 0.00011222 0.000406816 -2.27225e-11 3.25937e-11 -2.08231e-11 5e-05 1.46608e-10 
54 1 0.123582 0.0161504 0.00787439 0.00579041 1.85424e-05 2.11508e-05 -1.85193e-11 1.00756e-11 -2.09042e-11 5e-05 1.46608e-10 
55 1 0.117356 0.015853 0.00849431 0.00598678 -0.000193125 -0.000334984 9.14417e-12 -2.56921e-11 2.51622e-11 5e-05 1.46608e-10 
56 1 0.12376 0.0169028 0.00741535 0.00556659 0.000149025 6.7263e-05 2.9976e-11 -3.51702e-11 2.09257e-11 5e-05 1.46608e-10 
57 1 0.129634 0.0167514 0.00756619 0.00564865 -0.000419251 -8.13246e-05 3.83749e-12 -4.4679e-12 -2.73533e-11 5e-05 1.46608e-10 
59 1 0.123874 0.0170166 0.0073513 0.00556991 0.00013194 7.74626e-05 -6.78592e-11 4.34599e-11 -2.8462e-11 5e-05 1.46608e-10 
60 1 0.123893 0.0171013 0.00730175 0.00555303 0.000211786 2.99357e-05 1.66047e-11 -8.33486e-11 5.06242e-11 5e-05 1.46608e-10 
61 1 0.123505 0.0161972 0.0078253 0.00582196 9.98104e-05 0.000104184 9.39035e-11 -1.08687e-11 1.97908e-11 5e-05 1.46608e-10 
62 1 0.12399 0.0175441 0.00709702 0.00571942 9.56781e-05 -0.000159574 -1.19611e-11 1.69224e-11 -2.58825e-11 5e-05 1.46608e-10 
63 1 0.123954 0.0178044 0.00714622 0.00562543 9.26576e-05 -0.000152448 1.54185e-10 1.60652e-10 1.24193e-11 5e-05 1.46608e-10 
64 1 0.129745 0.0172397 0.00727224 0.00554908 0.000108294 0.000408039 -1.43955e-10 -1.13633e-10 1.11243e-12 5e-05 1.46608e-10 
65 1 0.117878 0.0176113 0.00722572 0.00571976 0.000281662 0.000144391 1.08225e-11 -1.20944e-10 1.52381e-10 5e-05 1.46608e-10 
66 1 0.117944 0.0175352 0.0072403 0.00571366 0.000268537 0.000144681 -1.40014e-10 -6.20146e-11 1.14975e-10 5e-05 1.46608e-10 
67 1 0.12415 0.0178624 0.00702972 0.00566128 0.000127325 -0.000155697 1.70506e-11 4.34541e-11 1.68033e-11 5e-05 1.46608e-10 
68 1 0.124029 0.0177361 0.00705711 0.00566174 0.000106951 -0.000154141 -3.21483e-11 -4.51029e-12 8.84241e-12 5e-05 1.46608e-10 
69 1 0.123681 0.0165641 0.0076134 0.00554224 0.000113929 8.73502e-05 1.18603e-10 -4.84113e-11 2.67134e-11 5e-05 1.46608e-10 
70 1 0.129804 0.017521 0.00718622 0.00559504 0.000104954 0.000413207 1.59916e-10 1.55777e-10 -9.2326e-11 5e-05 1.46608e-10 
71 1 0.117335 0.0157822 0.00856168 0.00598921 -0.000200509 -0.000330084 -2.28666e-11 -1.03728e-10 1.06664e-10 5e-05 1.46608e-10 
72 1 0.124009 0.01764 0.00707625 0.00567473 0.000105462 -0.000152998 9.93685e-11 -1.75205e-12 -7.6328e-12 5e-05 1.46608e-10 
73 1 0.123626 0.0167046 0.00752877 0.00564289 0.00013135 7.94643e-05 4.73623e-11 -1.48387e-11 1.95201e-11 5e-05 1.46608e-10 
74 1 0.123837 0.0172417 0.00721718 0.00564387 0.000138469 7.65018e-05 7.74139e-11 4.08796e-11 -3.16409e-11 5e-05 1.46608e-10 
76 1 0.117848 0.0173129 0.00719803 0.00568012 0.00027624 0.00013912 -3.81282e-10 1.20768e-10 -1.97098e-10 5e-05 1.46608e-10 
77 1 0.124064 0.0182649 0.0069536 0.00617826 6.16838e-06 -0.00014699 4.95666e-12 -1.05272e-10 1.93252e-11 5e-05 1.46608e-10 
78 1 0.117414 0.0160416 0.00831472 0.00597985 -0.000168338 -0.000367834 3.1206e-12 6.16126e-11 -1.79049e-10 5e-05 1.46608e-10 
79 1 0.117915 0.0174408 0.00725752 0.00573644 0.000274928 0.000148062 -2.82099e-10 1.24748e-10 -4.35137e-11 5e-05 1.46608e-10 
80 1 0.123859 0.01777 0.00705454 0.00568023 8.13691e-05 -0.000150721 -3.24015e-12 -1.54785e-11 -2.10524e-11 5e-05 1.46608e-10 
81 1 0.117701 0.0170603 0.00746698 0.00549481 -5.01004e-05 -0.000434442 1.34315e-11 2.17495e-10 1.22266e-10 5e-05 1.46608e-10 
82 1 0.117645 0.0168205 0.00757332 0.00553146 -7.3222e-05 -0.000407966 -1.67423e-11 1.90828e-11 -8.10255e-11 5e-05 1.46608e-10 
83 1 0.117765 0.0165805 0.00778531 0.00556919 -2.58332e-05 -0.000456218 4.36553e-10 -1.98416e-10 1.4651e-10 5e-05 1.46608e-10 
84 1 0.129843 0.0177086 0.00712889 0.00553972 9.52349e-05 0.000405565 1.17743e-10 -4.29292e-10 7.38191e-10 5e-05 1.46608e-10 
85 1 0.117534 0.0161327 0.00821993 0.00598954 -0.000155221 -0.000372062 1.10572e-10 1.0647e-10 -1.12801e-10 5e-05 1.46608e-10 
86 1 0.123895 0.0175128 0.00710526 0.00573131 9.28561e-05 -0.000164168 -5.015e-12 -3.29733e-11 -3.44146e-11 5e-05 1.46608e-10 
87 1 0.123855 0.0169319 0.00740084 0.0055607 0.000142004 7.12384e-05 -5.35811e-11 -3.70493e-12 6.79135e-13 5e-05 1.46608e-10 
88 1 0.123897 0.0179545 0.0071032 0.00566668 9.5221e-05 -0.000150008 5.79888e-11 -6.80046e-11 -2.04758e-11 5e-05 1.46608e-10 
89 1 0.123873 0.0178571 0.00710146 0.00566503 8.5987e-05 -0.000150904 7.82098e-12 6.96809e-12 -5.37776e-11 5e-05 1.46608e-10 
90 1 0.124277 0.0179879 0.00700236 0.00579139 -0.000332996 -7.23154e-05 4.95954e-11 -1.00165e-11 3.09812e-11 5e-05 1.46608e-10 
91 1 0.117608 0.016678 0.00770857 0.00562269 -0.000101227 -0.0003914 2.47e-11 1.24511e-11 6.77205e-12 5e-05 1.46608e-10 
92 1 0.124091 0.0179408 0.00704755 0.00566534 0.000132389 -0.000156176 -5.52699e-11 2.346e-11 -7.51953e-11 5e-05 1.46608e-10 
93 1 0.123923 0.0180876 0.00699134 0.00563229 9.77778e-05 -0.00015229 1.75572e-10 2.79719e-11 5.34873e-11 5e-05 1.46608e-10 
94 1 0.124152 0.0182179 0.00696065 0.0061612 -1.53573e-05 -0.000142739 1.20336e-10 7.56468e-11 -2.22647e-11 5e-05 1.46608e-10 
95 1 0.123993 0.0179215 0.00710112 0.00566693 0.000100694 -0.000150634 1.50881e-11 -7.96071e-11 1.84764e-12 5e-05 1.46608e-10 
96 1 0.124111 0.0180259 0.00699891 0.00565397 0.000147194 -0.000160973 -1.07989e-10 2.37334e-10 -1.01143e-10 5e-05 1.46608e-10 
97 1 0.117523 0.016395 0.00797801 0.0059587 -0.00017169 -0.000353002 1.00547e-10 -1.14548e-10 7.85617e-11 5e-05 1.46608e-10 
98 1 0.123904 0.0179915 0.00701048 0.00565629 9.5669e-05 -0.000152337 -1.85685e-11 2.21957e-11 2.78873e-11 5e-05 1.46608e-10 
99 1 0.117977 0.0176278 0.0072222 0.00566721 0.000274365 0.000123484 2.26793e-11 4.83007e-11 2.65934e-10 5e-05 1.46608e-10 
100 1 0.124084 0.0175748 0.00708713 0.00570503 0.000135705 -0.000165623 -1.11972e-11 5.75182e-11 2.81333e-11 5e-05 1.46608e-10 
101 1 0.117713 0.0169841 0.00753063 0.00544687 -3.78015e-05 -0.000416691 -2.62428e-10 3.66836e-11 -4.42995e-12 5e-05 1.46608e-10 
102 1 0.0643568 0.0187248 0.00531097 4.24989e-15 1.04895e-14 8.29619e-14 -2.2082e-21 1.21169e-21 -4.32202e-23 5e-05 1.46608e-10 
103 1 0.24257 0.0191927 0.00520306 3.61636e-22 -3.94926e-23 1.23839e-22 0 2.58494e-26 0 5e-05 1.46608e-10 
104 1 0.117874 0.0170088 0.00737928 0.0055313 2.11578e-05 -0.000504368 -9.1121e-11 -3.17123e-10 4.44541e-10 5e-05 1.46608e-10 
105 1 0.117479 0.0162536 0.00811266 0.00596667 -0.000159617 -0.000366971 -2.84979e-11 -1.59479e-11 2.6782e-11 5e-05 1.46608e-10 
106 1 0.117968 0.0170308 0.00735257 0.00552186 -4.30876e-05 -0.000287225 -1.08048e-10 2.41187e-10 -5.51372e-11 5e-05 1.46608e-10 
107 1 0.117436 0.0161123 0.00824731 0.00598229 -0.000158939 -0.000367514 3.6408e-11 7.35091e-11 -8.49347e-11 5e-05 1.46608e-10 
108 1 0.123721 0.0167334 0.00751443 0.0056454 9.69869e-05 9.99281e-05 1.39224e-10 -1.37504e-11 9.65163e-12 5e-05 1.46608e-10 
109 1 0.123781 0.0173898 0.007149 0.00566959 0.000129223 3.87806e-05 9.99727e-12 1.63505e-11 -1.0034e-11 5e-05 1.46608e-10 
110 1 0.124198 0.0184236 0.00691961 0.00620072 -1.73585e-05 -0.000143015 2.58816e-11 2.14958e-11 -6.77773e-12 5e-05 1.46608e-10 
111 1 0.124066 0.0184323 0.00700174 0.00621674 2.90893e-05 -0.000152402 -5.661e-11 -5.89095e-11 1.19823e-11 5e-05 1.46608e-10 
112 1 0.117545 0.0164669 0.00791221 0.00594405 -0.000172739 -0.000349305 3.73726e-11 -1.26783e-10 2.85933e-11 5e-05 1.46608e-10 
113 1 0.118142 0.0178561 0.00707796 0.00560701 0.00014962 0.000167759 4.78158e-10 -7.31559e-11 -1.33226e-11 5e-05 1.46608e-10 
114 1 0.118195 0.0176659 0.00721346 0.00566989 0.000258673 0.00017179 -1.05986e-10 5.20077e-10 -1.61441e-10 5e-05 1.46608e-10 
115 1 0.123856 0.0173265 0.00716761 0.00566557 0.000134774 7.81642e-05 1.01652e-13 2.96351e-11 -5.1351e-11 5e-05 1.46608e-10 
116 1 0.123701 0.0166487 0.00756392 0.00559504 0.000106743 9.27804e-05 1.55936e-10 -5.1192e-11 4.94066e-11 5e-05 1.46608e-10 
117 1 0.123564 0.0160837 0.00794679 0.00589563 -0.000163145 -0.000121622 2.89569e-11 1.61008e-11 -9.7044e-13 5e-05 1.46608e-10 
118 1 0.117394 0.0159844 0.00850483 0.00599375 -0.00017856 -0.000356833 3.22481e-11 2.49005e-10 -1.65592e-10 5e-05 1.46608e-10 
119 1 0.123913 0.017186 0.00725223 0.00557549 0.000208337 3.34899e-05 9.32927e-11 -8.61361e-11 5.49186e-11 5e-05 1.46608e-10 
120 1 0.123407 0.0158748 0.0081944 0.00621435 -0.000251124 -0.0001246 8.9913e-11 -1.19107e-12 -1.09706e-11 5e-05 1.46608e-10 
121 1 0.123363 0.0157475 0.00834245 0.00618688 -0.000245767 -0.000129411 1.1556e-11 1.05178e-11 -1.21525e-11 5e-05 1.46608e-10 
122 1 0.124106 0.0184618 0.00691436 0.00620946 3.2068e-06 -0.000147913 -2.66295e-11 -2.778e-13 -5.44763e-12 5e-05 1.46608e-10 
123 1 0.117578 0.0162741 0.00808518 0.005999 -0.000132271 -0.000393958 1.55759e-10 -1.70981e-10 1.60567e-10 5e-05 1.46608e-10 
124 1 0.123929 0.0178964 0.00702834 0.00566181 9.70596e-05 -0.000151639 2.73441e-11 2.37299e-11 -1.57352e-11 5e-05 1.46608e-10 
125 1 0.123544 0.0160192 0.00802056 0.00611644 -0.000240467 -0.000130265 -5.0779e-11 5.51305e-12 -1.67485e-12 5e-05 1.46608e-10 
126 1 0.123742 0.0172128 0.00723165 0.0056389 0.000141057 7.28687e-05 -5.0425e-11 4.91376e-11 -2.45151e-11 5e-05 1.46608e-10 
127 1 0.117501 0.0163245 0.0080455 0.00596106 -0.000166284 -0.000359755 1.06434e-10 -1.06503e-10 1.02968e-10 5e-05 1.46608e-10 
128 1 0.123839 0.0176739 0.00707368 0.0056928 7.68305e-05 -0.000147965 6.36552e-12 6.05765e-12 -1.382e-11 5e-05 1.46608e-10 
129 1 0.123966 0.0180425 0.00706952 0.00564566 0.000103213 -0.000151047 1.43534e-10 -9.52217e-11 5.41731e-11 5e-05 1.46608e-10 
130 1 0.117742 0.0168434 0.00754381 0.00551247 -5.57441e-05 -0.000421562 1.13907e-10 1.20818e-10 -1.05116e-10 5e-05 1.46608e-10 
131 1 0.117956 0.017733 0.00719211 0.0056451 0.000277211 0.000129473 2.94024e-10 4.99916e-11 -4.7575e-12 5e-05 1.46608e-10 
132 1 0.123954 0.0178011 0.00704627 0.0056592 9.85341e-05 -0.000152552 -6.43329e-12 -4.81865e-12 8.06733e-12 5e-05 1.46608e-10 
133 1 0.123776 0.0165928 0.00759904 0.00556214 8.62182e-05 0.000104187 1.41407e-10 -1.30871e-10 7.92155e-11 5e-05 1.46608e-10 
134 1 0.123931 0.0172708 0.00720265 0.00561705 0.000200573 3.78702e-05 1.73062e-10 -9.67241e-11 6.16153e-11 5e-05 1.46608e-10 
135 1 0.123523 0.0159554 0.00809468 0.00621236 -0.000257608 -0.00011745 -4.44251e-11 -2.27712e-12 3.56518e-12 5e-05 1.46608e-10 
136 1 0.117513 0.016062 0.00828726 0.00599535 -0.000153615 -0.000374185 2.16884e-10 1.07661e-10 -1.22618e-10 5e-05 1.46608e-10 
137 1 0.123986 0.0183753 0.00693399 0.00620535 4.05679e-07 -0.000145104 1.33744e-11 -1.11148e-10 3.83309e-11 5e-05 1.46608e-10 
138 1 0.123662 0.0164794 0.00766288 0.00550804 0.000118587 8.36419e-05 -1.09749e-10 -1.60144e-11 6.90539e-12 5e-05 1.46608e-10 
140 1 0.124173 0.0183138 0.00694152 0.00619066 -5.08467e-06 -0.000145545 3.02596e-11 5.25065e-11 -1.51544e-11 5e-05 1.46608e-10 
141 1 0.117556 0.0162034 0.00815251 0.00602063 -0.000109947 -0.000417388 -9.51911e-11 8.98166e-11 -7.15901e-11 5e-05 1.46608e-10 
142 1 0.117839 0.0168657 0.00751478 0.00539723 -9.39295e-05 -0.000377259 5.55866e-10 5.87992e-10 -6.11091e-10 5e-05 1.46608e-10 
143 1 0.117458 0.0161829 0.00818 0.00598394 -0.000160151 -0.00036779 -4.17038e-11 4.07028e-11 -2.60065e-11 5e-05 1.46608e-10 
144 1 0.117967 0.0174409 0.00717157 0.00570642 0.000265657 0.000143497 -6.30994e-11 3.47327e-11 -8.14032e-12 5e-05 1.46608e-10 
146 1 0.117879 0.0166728 0.00769003 0.00542393 -9.0124e-05 -0.000384332 -4.92774e-10 -1.07222e-10 1.39684e-10 5e-05 1.46608e-10 
147 1 0.117491 0.0159911 0.00835483 0.00598507 -0.000160248 -0.000368246 -8.73725e-11 1.19821e-10 -1.05739e-10 5e-05 1.46608e-10 
148 1 0.117699 0.0170347 0.00737032 0.00554922 -5.82724e-05 -0.00041508 -2.95691e-11 3.93966e-11 -1.83801e-10 5e-05 1.46608e-10 
149 1 0.123965 0.0182795 0.0069531 0.00617915 -5.37472e-06 -0.000144189 -7.63614e-11 -1.08136e-10 2.43487e-11 5e-05 1.46608e-10 
150 1 0.117665 0.0165571 0.00781561 0.00585429 -6.50404e-05 -0.000443681 -4.48049e-10 -7.72255e-10 7.56741e-10 5e-05 1.46608e-10 
151 1 0.118156 0.0175045 0.00716319 0.00569116 0.000281806 0.000142005 1.87262e-10 3.39175e-11 -4.84738e-14 5e-05 1.46608e-10 
153 1 0.117622 0.0164154 0.00795056 0.00597908 -0.000160455 -0.000362604 -7.38384e-11 -1.3773e-10 1.04158e-10 5e-05 1.46608e-10 
154 1 0.117796 0.0170578 0.00734063 0.00555169 -1.17866e-05 -0.000443201 4.51251e-10 3.29267e-10 -3.75981e-10 5e-05 1.46608e-10 
155 1 0.117868 0.0174084 0.00717574 0.00570979 0.000273838 0.000145053 -1.51552e-10 5.20597e-11 3.24147e-11 5e-05 1.46608e-10 
156 1 0.117778 0.0169863 0.00740843 0.00556269 -9.09265e-05 -0.000393831 1.36602e-11 3.28262e-10 -1.90161e-10 5e-05 1.46608e-10 
157 1 0.0219312 0.0187687 0.00551176 -3.83151e-14 8.16533e-14 2.95893e-13 9.08632e-22 5.79647e-22 -4.19794e-23 5e-05 1.46608e-10 
158 1 0.11789 0.0170804 0.00731151 0.00557209 2.38111e-05 -0.000502089 6.23739e-10 -3.85473e-10 -2.7192e-12 5e-05 1.46608e-10 
159 1 0.124033 0.0178603 0.00703289 0.00566297 9.85176e-05 -0.000151825 2.17476e-11 -8.93095e-12 -4.78714e-12 5e-05 1.46608e-10 
160 1 0.117775 0.0173843 0.00720554 0.00568209 0.000281923 6.21124e-05 -1.2517e-10 -7.18232e-11 1.24928e-10 5e-05 1.46608e-10 
162 1 0.117813 0.0171338 0.00727759 0.00558625 9.9399e-05 -0.000328015 3.65252e-10 7.79544e-11 8.39521e-10 5e-05 1.46608e-10 
164 1 0.117945 0.0177892 0.00708685 0.00565699 0.000210537 0.000154556 -3.33755e-10 -2.80756e-10 6.28777e-12 5e-05 1.46608e-10 
165 1 0.118061 0.0174744 0.00716694 0.00569439 0.00026154 0.00014232 -1.40568e-11 2.02031e-10 -2.92248e-11 5e-05 1.46608e-10 
166 1 0.123737 0.0164234 0.00769806 0.00549049 0.000102343 9.27426e-05 -1.78373e-10 -2.76849e-11 1.27016e-11 5e-05 1.46608e-10 
167 1 0.117643 0.0164862 0.00788319 0.00592875 -0.00016714 -0.000354637 3.7876e-10 7.67587e-11 -1.39435e-10 5e-05 1.46608e-10 
168 1 0.117984 0.0171046 0.00728724 0.00563326 0.000186952 -1.27523e-05 4.30883e-10 1.87849e-10 6.38439e-11 5e-05 1.46608e-10 
169 1 0.118122 0.0177602 0.00710035 0.00564982 0.000348314 0.00012549 -1.96546e-10 -3.52302e-11 -4.15651e-11 5e-05 1.46608e-10 
170 1 0.11802 0.0172832 0.00721149 0.00572479 0.000270292 0.000144912 -3.71386e-10 -5.39597e-11 -2.90951e-11 5e-05 1.46608e-10 
171 1 0.123756 0.0165081 0.00764856 0.00553971 0.000124268 8.11099e-05 5.23955e-11 -1.01076e-10 6.0918e-11 5e-05 1.46608e-10 
172 1 0.118198 0.0176968 0.00711841 0.00562639 0.000222266 0.000153024 1.87108e-10 3.68942e-10 6.41544e-12 5e-05 1.46608e-10 
173 1 0.12413 0.018122 0.00697976 0.00610256 -7.10637e-06 -0.000142897 2.3443e-10 3.49818e-11 -3.01465e-12 5e-05 1.46608e-10 
174 1 0.117924 0.0172504 0.00721587 0.0056699 0.000277384 0.000143774 -4.6558e-10 -2.003e-11 -8.42762e-12 5e-05 1.46608e-10 
175 1 0.111817 0.0176136 0.00722766 0.00562669 0.000576095 5.67258e-05 -7.49948e-11 1.37498e-10 -2.27626e-10 5e-05 1.46608e-10 
176 1 0.11776 0.0169147 0.00747616 0.00549157 -4.71004e-05 -0.000414313 2.73985e-10 1.8983e-10 -1.04073e-10 5e-05 1.46608e-10 
177 1 0.117814 0.0175656 0.00713591 0.00568637 0.000272828 0.000144241 -9.38773e-11 -1.50797e-10 6.55446e-11 5e-05 1.46608e-10 
178 1 0.118162 0.0179515 0.00705575 0.00614158 7.93529e-05 0.000198999 2.92915e-10 -3.44479e-10 1.05024e-10 5e-05 1.46608e-10 
179 1 0.118104 0.0176707 0.00714153 0.00561326 0.000265847 0.00012586 -6.26093e-11 5.2991e-11 -6.42645e-11 5e-05 1.46608e-10 
181 1 0.117736 0.017195 0.00725817 0.00561369 0.000185355 -5.23578e-05 -2.67728e-10 -6.13296e-11 -1.04421e-10 5e-05 1.46608e-10 
182 1 0.123641 0.0163947 0.00771241 0.00586244 0.000104401 0.000101866 -8.68498e-11 -1.29141e-10 7.08755e-11 5e-05 1.46608e-10 
183 1 0.118 0.0171877 0.00723378 0.00565901 0.000272983 0.000137213 -2.31754e-10 1.89867e-10 2.75669e-11 5e-05 1.46608e-10 
184 1 0.124085 0.0180988 0.0070655 0.00585271 -0.000113762 -0.00030302 -4.19605e-11 -5.11382e-11 -1.64348e-10 5e-05 1.46608e-10 
185 1 0.117682 0.0169632 0.00743803 0.00550338 -5.70242e-05 -0.000421567 1.87582e-10 1.28157e-10 -5.35201e-11 5e-05 1.46608e-10 
186 1 0.117717 0.0171098 0.00730689 0.00557575 4.08458e-05 -0.000314932 3.09387e-10 4.7436e-11 -8.38094e-10 5e-05 1.46608e-10 
187 1 0.124065 0.0174785 0.00710631 0.00572957 0.000105415 -0.000154187 -1.08351e-11 3.09646e-11 2.58896e-11 5e-05 1.46608e-10 
188 1 0.124042 0.018169 0.00697272 0.00612199 7.48477e-06 -0.000148517 7.68512e-11 -1.49368e-10 4.59793e-11 5e-05 1.46608e-10 
189 1 0.124104 0.017671 0.00706798 0.00567126 0.000120422 -0.000157642 2.19821e-11 2.88561e-11 -2.42059e-12 5e-05 1.46608e-10 
190 1 0.111969 0.017893 0.00705715 0.00569871 0.000547711 7.73288e-05 -2.22987e-10 -2.42337e-10 1.3643e-10 5e-05 1.46608e-10 
191 1 0.124008 0.0184729 0.00693127 0.00620805 7.26729e-06 -0.000151508 -3.27328e-11 -7.91186e-11 -7.98561e-12 5e-05 1.46608e-10 
192 1 0.117932 0.016887 0.00748701 0.0055779 -0.000130093 -0.000356349 -8.95512e-11 1.56989e-10 -1.67835e-10 5e-05 1.46608e-10 
193 1 0.123835 0.0168471 0.0074504 0.00553819 0.000121305 8.2838e-05 6.05572e-11 -5.73923e-11 3.53173e-11 5e-05 1.46608e-10 
194 1 0.117784 0.0166517 0.00771772 0.00541866 -1.05224e-05 -0.000457352 1.76845e-10 -9.27488e-11 6.3851e-11 5e-05 1.46608e-10 
195 1 0.118217 0.0177924 0.00709606 0.00567754 0.000224309 0.000157546 2.74788e-10 3.13282e-10 -5.60377e-11 5e-05 1.46608e-10 
196 1 0.117269 0.0155703 0.00876362 0.00600359 -0.000214501 -0.000318895 -7.70023e-11 -2.49327e-10 2.38129e-10 5e-05 1.46608e-10 
197 1 0.111874 0.0178622 0.00706998 0.00569155 0.000547614 7.4723e-05 2.96413e-11 2.71275e-11 8.94906e-11 5e-05 1.46608e-10 
198 1 0.117755 0.0171291 0.00739753 0.00555289 -0.000118375 -0.00024332 1.20107e-10 -7.98815e-11 -6.79297e-10 5e-05 1.46608e-10 
199 1 0.117826 0.017218 0.00722007 0.00567132 0.00026424 0.000129507 -4.1545e-10 1.0295e-10 -9.45165e-11 5e-05 1.46608e-10 
200 1 0.117627 0.0167493 0.00764111 0.00555819 -8.19087e-05 -0.0004017 -1.69439e-10 9.22778e-11 -2.4185e-11 5e-05 1.46608e-10 
201 1 0.118086 0.0180139 0.00703791 0.006153 0.000178384 0.00019087 7.6012e-10 -1.26978e-10 5.11827e-10 5e-05 1.46608e-10 
202 1 0.11795 0.0169584 0.00741934 0.00554401 -0.00013854 -0.000375214 -5.22584e-10 2.16904e-10 -2.25471e-10 5e-05 1.46608e-10 
203 1 0.124123 0.017768 0.00704869 0.00565493 0.00012474 -0.000158161 -2.29786e-11 3.72846e-11 -1.08135e-12 5e-05 1.46608e-10 
204 1 0.117706 0.0167007 0.00767911 0.00558281 -6.73797e-05 -0.000420765 -8.86569e-11 1.5149e-10 -1.4161e-10 5e-05 1.46608e-10 
205 1 0.117908 0.0175991 0.0071313 0.00567414 0.000274052 0.000140701 -1.4995e-10 1.64878e-11 3.58995e-11 5e-05 1.46608e-10 
206 1 0.117944 0.017346 0.00719358 0.00572837 0.000281382 0.000141923 -1.58252e-10 1.25587e-10 -3.69161e-11 5e-05 1.46608e-10 
207 1 0.1176 0.0163448 0.00801785 0.0059766 -0.000160254 -0.000366574 -6.35e-11 -1.9058e-10 1.71787e-10 5e-05 1.46608e-10 
208 1 0.117903 0.0171559 0.00724053 0.00547402 0.000129079 -0.000591858 2.2075e-10 -1.56579e-10 2.64166e-11 5e-05 1.46608e-10 
209 1 0.117686 0.016629 0.00774713 0.00624285 0.000441782 -0.000947164 -5.74273e-11 2.75552e-10 -2.54815e-10 5e-05 1.46608e-10 
210 1 0.123881 0.0177338 0.00714509 0.00567009 7.8248e-05 -0.000153658 -1.3115e-11 6.08587e-11 -1.54036e-11 5e-05 1.46608e-10 
211 1 0.124022 0.0180721 0.00699202 0.00564121 0.000141961 -0.000161396 -9.11929e-11 -1.76052e-10 1.93099e-11 5e-05 1.46608e-10 
212 1 0.118042 0.0173781 0.00718947 0.00572775 0.000271796 0.000145144 -4.98668e-11 -2.06797e-11 -8.36699e-12 5e-05 1.46608e-10 
213 1 0.124045 0.017385 0.0071383 0.00571518 0.000128888 8.46234e-05 1.83368e-11 -3.9434e-11 4.01835e-11 5e-05 1.46608e-10 
214 1 0.124001 0.0179677 0.0070128 0.00565862 0.00010594 -0.000153583 -7.02535e-11 1.92392e-12 1.07675e-11 5e-05 1.46608e-10 
215 1 0.111931 0.0177272 0.00716228 0.00570262 0.000575343 6.05601e-05 4.36606e-10 -2.3124e-10 2.16957e-10 5e-05 1.46608e-10 
216 1 0.117798 0.0174793 0.00718365 0.00570923 0.000277384 0.000151246 -1.13999e-10 -1.35271e-11 9.89763e-11 5e-05 1.46608e-10 
217 1 0.123796 0.0166775 0.00754954 0.00560177 5.72985e-05 0.000122455 6.36599e-11 -2.85206e-11 1.87728e-11 5e-05 1.46608e-10 
218 1 0.11797 0.0178529 0.00715974 0.00559468 0.000174814 0.000173193 8.36334e-11 -3.26109e-10 -6.18912e-11 5e-05 1.46608e-10 
219 1 0.123944 0.0181837 0.00697221 0.00613514 -9.39654e-06 -0.000142924 9.47284e-11 3.47925e-11 -2.1392e-11 5e-05 1.46608e-10 
220 1 0.117756 0.017289 0.00722852 0.00565795 0.000283718 9.71543e-05 -3.52192e-10 -7.40501e-11 -2.98661e-10 5e-05 1.46608e-10 
221 1 0.111873 0.0174785 0.00732003 0.00593922 0.000535892 0.000106005 8.05596e-11 1.05818e-10 -4.27192e-11 5e-05 1.46608e-10 
222 1 0.123816 0.0167623 0.0075 0.00570876 0.000138621 7.73643e-05 2.15748e-11 -3.73023e-11 2.25288e-11 5e-05 1.46608e-10 
223 1 0.117856 0.0169373 0.00744705 0.00555822 -0.000122953 -0.000365836 -1.41893e-10 3.01725e-10 -2.23947e-10 5e-05 1.46608e-10 
224 1 0.117663 0.0168921 0.00750589 0.00549765 -6.39387e-05 -0.000416357 5.64668e-11 7.92294e-11 -1.41993e-10 5e-05 1.46608e-10 
225 1 0.124028 0.0185643 0.00689629 0.00625706 3.07975e-06 -0.000147585 3.68005e-11 -5.41605e-11 5.55013e-12 5e-05 1.46608e-10 
226 1 0.118175 0.0176001 0.00714087 0.00564385 0.000290705 0.000143897 2.4077e-10 1.72639e-10 -2.72809e-11 5e-05 1.46608e-10 
227 1 0.111988 0.017976 0.00700451 0.00574796 0.00058769 5.62727e-05 -8.59676e-11 9.96665e-11 -6.50233e-11 5e-05 1.46608e-10 
228 1 0.111836 0.0176964 0.0071751 0.00566892 0.00057117 6.85854e-05 1.59227e-11 2.70977e-10 -2.53042e-10 5e-05 1.46608e-10 
229 1 0.117846 0.0175227 0.00725959 0.00572206 0.00028441 0.000146996 -1.3731e-10 9.40592e-11 2.60068e-10 5e-05 1.46608e-10 
230 1 0.11803 0.0181763 0.00701771 0.00611963 0.00014509 -0.000728785 4.23679e-10 -8.42929e-11 7.77464e-10 5e-05 1.46608e-10 
231 1 0.111798 0.0175307 0.00728026 0.00593155 0.000545164 0.000100604 1.33371e-10 1.62792e-10 -1.17739e-10 5e-05 1.46608e-10 
232 1 0.117744 0.0165096 0.00785276 0.00582171 -6.58859e-05 -0.000440599 6.31093e-10 -2.21181e-10 1.63047e-10 5e-05 1.46608e-10 
233 1 0.11782 0.0167944 0.00758242 0.00551559 -5.21092e-05 -0.000424415 -1.18185e-10 -1.22437e-11 -5.5631e-12 5e-05 1.46608e-10 
234 1 0.124085 0.0183608 0.00693447 0.00621089 2.62458e-05 -0.000150811 9.29328e-12 -6.02604e-12 4.19093e-12 5e-05 1.46608e-10 
235 1 0.118001 0.018438 0.00705316 0.00612591 0.000264228 -0.000814996 5.35449e-11 2.84236e-11 -4.18806e-11 5e-05 1.46608e-10 
236 1 0.118146 0.0183026 0.00700779 0.00612719 0.000237229 -0.00082634 5.97707e-11 7.862e-11 -3.15314e-11 5e-05 1.46608e-10 
237 1 0.118075 0.0183703 0.00703033 0.0061349 0.000231073 -0.000831729 3.38107e-11 -5.86361e-11 -3.66282e-12 5e-05 1.46608e-10 
239 1 0.111619 0.0167857 0.00775221 0.00582773 0.000647625 2.34816e-05 1.51497e-11 7.6895e-11 -5.07557e-11 5e-05 1.46608e-10 
240 1 0.111685 0.0170331 0.00759595 0.0055399 0.000638972 7.50274e-06 -3.587e-11 3.28089e-11 -4.16639e-11 5e-05 1.46608e-10 
241 1 0.111598 0.0167031 0.00780446 0.00585188 0.000646746 2.51594e-05 5.69901e-11 5.3181e-11 -2.69881e-11 5e-05 1.46608e-10 
242 1 0.117802 0.0167231 0.00765006 0.00546535 -3.1822e-05 -0.000441798 -1.63894e-10 8.60802e-11 -5.13013e-11 5e-05 1.46608e-10 
243 1 0.117736 0.017218 0.00735549 0.00553504 -1.55083e-05 -1.50999e-05 -5.61972e-11 3.04117e-10 -4.95707e-10 5e-05 1.46608e-10 
244 1 0.111643 0.0168678 0.00770052 0.00660161 0.000490669 0.000182963 7.74982e-12 -8.8807e-11 4.65532e-11 5e-05 1.46608e-10 
246 1 0.11176 0.0173648 0.00738549 0.00577165 0.000570258 6.60896e-05 -1.63708e-10 -1.10149e-10 -3.18453e-11 5e-05 1.46608e-10 
247 1 0.117916 0.0176961 0.0071082 0.00565392 0.000244378 0.000148255 1.24538e-10 -1.62078e-10 2.40733e-11 5e-05 1.46608e-10 
248 1 0.118048 0.0178277 0.00709769 0.00561539 0.000303702 0.000124936 -1.83026e-10 -2.01083e-10 -1.96569e-10 5e-05 1.46608e-10 