ITEM: TIMESTEP
27200000
ITEM: NUMBER OF ATOMS
275
ITEM: BOX BOUNDS ff ff ff
-0.02 0.43
-0.02 0.06
-0.02 0.07
ITEM: ATOMS id type x y z vx vy vz fx fy fz radius mass 
1 1 0.171846 0.0175363 0.00764779 0.00537717 -0.00063629 0.00134269 -8.29215e-10 6.48133e-10 -4.6956e-10 5e-05 1.46608e-10 
2 1 0.171519 0.0172286 0.00775008 0.00555032 -6.2107e-05 0.00108217 1.68196e-10 2.72487e-11 1.14874e-10 5e-05 1.46608e-10 
4 1 0.171442 0.0165571 0.00807281 0.00557822 -3.97455e-05 0.00107561 -7.92218e-12 -4.27691e-11 4.91301e-12 5e-05 1.46608e-10 
5 1 0.171075 0.0154003 0.00867955 0.00531857 -0.000476222 0.000613777 1.69601e-10 -6.36126e-12 -2.14235e-11 5e-05 1.46608e-10 
6 1 0.177475 0.0168381 0.00737889 0.00612337 -0.00103756 0.000167255 1.17929e-12 -3.09793e-11 7.16201e-12 5e-05 1.46608e-10 
7 1 0.171545 0.0162726 0.00823803 0.00559249 -4.44979e-05 0.00108173 2.63727e-11 6.25782e-11 -2.9567e-11 5e-05 1.46608e-10 
8 1 0.171375 0.0162905 0.00819674 0.00559713 -3.55658e-05 0.00107844 -1.01263e-11 7.60978e-13 -7.3421e-11 5e-05 1.46608e-10 
9 1 0.177683 0.0177781 0.00710871 0.00555939 -0.000915735 0.000144349 -3.80832e-13 -4.15523e-12 9.72663e-13 5e-05 1.46608e-10 
10 1 0.171189 0.015891 0.0083747 0.00560487 -2.77958e-05 0.00107591 -3.51416e-11 1.65752e-11 -4.02146e-12 5e-05 1.46608e-10 
11 1 0.171658 0.017796 0.00747924 0.00698442 -0.000463944 0.00148995 3.68589e-10 -4.35493e-10 3.13001e-10 5e-05 1.46608e-10 
12 1 0.165279 0.0161179 0.0081826 0.00584263 7.71752e-05 3.02789e-05 -1.33328e-11 -6.91908e-12 4.28922e-11 5e-05 1.46608e-10 
13 1 0.171055 0.0153485 0.00876288 0.0053606 -0.000650064 0.000505892 3.22929e-11 1.28865e-11 -2.33367e-11 5e-05 1.46608e-10 
14 1 0.16562 0.0172423 0.00741312 0.0061483 -2.61716e-05 -8.18302e-05 6.55243e-12 -1.21397e-11 -8.99419e-12 5e-05 1.46608e-10 
16 1 0.166097 0.0172149 0.00733095 0.00604629 0.000360307 -0.000154339 -1.42626e-10 -1.60387e-11 7.82714e-12 5e-05 1.46608e-10 
17 1 0.17117 0.0157992 0.00840951 0.00554417 -2.13598e-05 0.00106142 -1.46519e-10 1.43682e-11 -2.57774e-11 5e-05 1.46608e-10 
19 1 0.171036 0.0153046 0.00885071 0.00547165 -0.000666048 0.000512084 -1.41804e-10 -1.46653e-10 1.56086e-10 5e-05 1.46608e-10 
21 1 0.171679 0.0168055 0.00799044 0.00557437 -5.18547e-05 0.00108224 3.09705e-10 -2.26518e-10 1.76818e-10 5e-05 1.46608e-10 
22 1 0.171355 0.0162018 0.00823828 0.00560662 -3.82774e-05 0.00107783 -5.07423e-11 7.34696e-12 -2.54786e-12 5e-05 1.46608e-10 
23 1 0.165829 0.0172384 0.00732851 0.0060686 -2.63904e-05 -6.36271e-05 3.76243e-11 4.35989e-11 -1.01232e-11 5e-05 1.46608e-10 
24 1 0.177602 0.0174016 0.00721688 0.00546828 -0.000897701 0.000141039 -2.71068e-12 1.18597e-11 -5.88917e-12 5e-05 1.46608e-10 
25 1 0.171232 0.0160644 0.00828548 0.00560328 -3.18253e-05 0.00107786 -8.03954e-12 -1.41187e-11 -6.46483e-12 5e-05 1.46608e-10 
26 1 0.177643 0.0175899 0.0071628 0.00551293 -0.000906947 0.000142784 3.98801e-12 5.86465e-13 -3.86625e-13 5e-05 1.46608e-10 
27 1 0.165637 0.017168 0.00734756 0.00615993 -3.50797e-05 -8.00809e-05 -7.69503e-11 2.00988e-11 2.52887e-11 5e-05 1.46608e-10 
28 1 0.171515 0.0165028 0.00811443 0.00558025 -3.58184e-05 0.00107563 7.63057e-11 1.27553e-10 -3.05995e-11 5e-05 1.46608e-10 
29 1 0.171017 0.0152608 0.00893854 0.00547625 -0.000665447 0.000518008 1.30336e-10 5.47817e-11 -1.53685e-10 5e-05 1.46608e-10 
30 1 0.171323 0.0164319 0.00811438 0.00558789 -3.88107e-05 0.00107726 -5.81236e-12 -1.70659e-11 8.48525e-12 5e-05 1.46608e-10 
31 1 0.171245 0.0161365 0.00835365 0.00559663 -3.15543e-05 0.00108128 2.9332e-11 4.87651e-11 -4.17265e-11 5e-05 1.46608e-10 
32 1 0.171264 0.0162013 0.0082798 0.00560113 -3.25658e-05 0.00108144 -6.63819e-12 3.396e-11 -6.72348e-11 5e-05 1.46608e-10 
33 1 0.177497 0.016932 0.0073519 0.00610307 -0.00103425 0.00016643 -8.7363e-12 -1.38971e-13 7.24639e-13 5e-05 1.46608e-10 
34 1 0.17115 0.0157105 0.00845123 0.00540184 -7.1358e-06 0.0010265 -4.14545e-11 -1.22508e-11 4.48504e-11 5e-05 1.46608e-10 
35 1 0.171494 0.0164142 0.0081559 0.00558049 -3.90558e-05 0.00107647 7.46355e-11 1.11522e-10 -3.66644e-11 5e-05 1.46608e-10 
36 1 0.177743 0.0180606 0.00702757 0.00537075 -0.000930423 0.000152374 -6.9011e-13 -9.07728e-12 2.59649e-12 5e-05 1.46608e-10 
37 1 0.171397 0.016379 0.00815553 0.00558923 -3.79546e-05 0.00107841 3.86858e-11 2.52154e-11 -3.91741e-12 5e-05 1.46608e-10 
38 1 0.171537 0.0165912 0.00807332 0.00555817 -3.21196e-05 0.00106965 1.3646e-10 1.19453e-10 -4.42062e-11 5e-05 1.46608e-10 
39 1 0.177623 0.0174957 0.00718984 0.00549008 -0.000902096 0.000141908 1.58294e-12 -5.89165e-13 3.28679e-12 5e-05 1.46608e-10 
41 1 0.171113 0.0155328 0.00853521 0.00542501 -9.13357e-06 0.00103954 -1.33343e-11 1.99024e-12 -4.04729e-11 5e-05 1.46608e-10 
42 1 0.171317 0.0161167 0.00827473 0.00560758 -3.5706e-05 0.00108081 -2.36309e-11 -4.08692e-12 2.35028e-11 5e-05 1.46608e-10 
44 1 0.17156 0.0166803 0.00803211 0.0055507 -2.02918e-05 0.00106222 -2.04004e-11 -8.30159e-11 2.4049e-11 5e-05 1.46608e-10 
45 1 0.177518 0.0170258 0.00732491 0.00608222 -0.00102971 0.000165835 1.41962e-11 1.7379e-11 -5.59854e-12 5e-05 1.46608e-10 
47 1 0.171132 0.0156216 0.00849331 0.00536729 -5.57484e-06 0.00101797 2.03791e-11 -3.5657e-11 4.18672e-12 5e-05 1.46608e-10 
48 1 0.171722 0.0180327 0.00736322 0.00767447 0.00244762 -0.00314102 5.19314e-11 1.83524e-10 -1.32085e-10 5e-05 1.46608e-10 
49 1 0.177703 0.0178722 0.00708167 0.00558288 -0.000919497 0.000144905 -1.96197e-13 -3.9678e-12 5.97747e-13 5e-05 1.46608e-10 
50 1 0.171279 0.0162549 0.00819679 0.005597 -3.46182e-05 0.00107896 -9.1802e-13 4.5303e-11 -3.633e-11 5e-05 1.46608e-10 
51 1 0.171301 0.0163341 0.00825515 0.00559718 -2.60463e-05 0.00108024 -1.95732e-11 -3.69803e-11 -5.79861e-11 5e-05 1.46608e-10 
52 1 0.165236 0.016064 0.00825476 0.00578033 9.48564e-05 1.43795e-05 -2.29924e-10 -2.56936e-11 -2.72562e-11 5e-05 1.46608e-10 
53 1 0.177561 0.0172136 0.00727092 0.00603752 -0.00102001 0.00016484 5.22016e-11 -6.69337e-11 2.03497e-11 5e-05 1.46608e-10 
54 1 0.171773 0.0168428 0.00798917 0.00559737 -2.11092e-05 0.0010711 6.38733e-11 2.70384e-11 -4.32315e-13 5e-05 1.46608e-10 
55 1 0.165697 0.0170326 0.00743535 0.00623235 -2.26544e-05 -7.11802e-05 5.86105e-11 5.63102e-11 -5.91907e-11 5e-05 1.46608e-10 
56 1 0.171449 0.0162367 0.00823818 0.00560695 -2.57763e-05 0.00107529 -1.81491e-11 3.37176e-11 -1.67513e-11 5e-05 1.46608e-10 
57 1 0.177539 0.0171197 0.00729791 0.00606098 -0.00102206 0.000163931 -3.5352e-11 1.49507e-11 1.79688e-12 5e-05 1.46608e-10 
59 1 0.378022 0.019866 0.005332 -5.01995e-15 -7.41204e-15 7.69802e-14 3.12778e-24 3.56722e-24 6.20385e-25 5e-05 1.46608e-10 
60 1 0.171633 0.0166257 0.00807384 0.00555414 -3.87265e-06 0.00105406 9.71734e-11 2.17816e-11 2.85137e-12 5e-05 1.46608e-10 
61 1 0.171096 0.0154626 0.00860424 0.00541225 -0.000162589 0.000896533 1.9676e-11 2.53272e-11 -3.75567e-11 5e-05 1.46608e-10 
62 1 0.171583 0.0167707 0.00799022 0.00555242 -4.83871e-05 0.00107631 -1.2647e-10 2.90065e-11 -3.86983e-11 5e-05 1.46608e-10 
63 1 0.17187 0.0186893 0.00689711 0.00824905 0.00533136 -0.00477344 0 0 -1.43822e-09 5e-05 1.46608e-10 
64 1 0.177582 0.0173075 0.00724392 0.0054469 -0.000893513 0.000140002 -1.90193e-11 3.83015e-11 -1.66214e-11 5e-05 1.46608e-10 
65 1 0.165755 0.0174771 0.00735241 0.00593514 0.00015622 -0.000119776 1.06877e-11 1.67591e-11 8.35008e-11 5e-05 1.46608e-10 
66 1 0.16572 0.0177757 0.00728437 0.00567286 0.000106684 -7.72198e-05 6.65668e-12 3.1224e-11 8.46038e-12 5e-05 1.46608e-10 
67 1 0.171703 0.0172724 0.00775593 0.00547144 -1.19669e-05 0.00104047 -3.27763e-10 -2.40241e-10 9.6798e-12 5e-05 1.46608e-10 
68 1 0.171605 0.0168592 0.00794903 0.00557254 -3.95944e-05 0.00107697 1.85504e-10 -1.48492e-10 1.32081e-10 5e-05 1.46608e-10 
69 1 0.17171 0.0169063 0.00794469 0.00556506 -4.97735e-05 0.00107976 -8.20327e-11 -7.92972e-11 2.44927e-11 5e-05 1.46608e-10 
70 1 0.177663 0.017684 0.00713575 0.00553599 -0.000911689 0.000143638 8.6067e-13 -6.32216e-13 -9.13917e-14 5e-05 1.46608e-10 
71 1 0.165905 0.017171 0.00734348 0.00614072 0.000101744 -9.48825e-05 -8.03746e-12 1.43301e-10 -2.80784e-11 5e-05 1.46608e-10 
72 1 0.171808 0.0176987 0.00755738 0.00672236 -0.000540903 0.0015495 -8.2942e-10 6.21854e-10 -4.64263e-10 5e-05 1.46608e-10 
73 1 0.171211 0.0159759 0.00832677 0.00560065 -3.08977e-05 0.00107528 4.43788e-11 3.35495e-13 6.80014e-12 5e-05 1.46608e-10 
74 1 0.171301 0.0163434 0.00815559 0.00559228 -3.70153e-05 0.00107902 9.25146e-12 2.5089e-11 -1.85696e-11 5e-05 1.46608e-10 
76 1 0.165619 0.016936 0.00748477 0.00623448 -2.07071e-05 -8.04707e-05 -1.70522e-11 -6.64267e-11 -4.74336e-11 5e-05 1.46608e-10 
77 1 0.171592 0.0171263 0.00780976 0.00556415 -6.0433e-05 0.001085 -2.49854e-10 2.1649e-11 -5.16144e-11 5e-05 1.46608e-10 
78 1 0.165099 0.015651 0.00880096 0.00541133 0.000319302 7.8767e-05 -2.03416e-10 5.26728e-11 -3.38893e-11 5e-05 1.46608e-10 
79 1 0.16582 0.0177716 0.00728255 0.00566483 0.00017176 -0.000128683 7.40114e-11 -3.21675e-11 5.30808e-11 5e-05 1.46608e-10 
80 1 0.171421 0.0167671 0.00805798 0.00554681 -3.20234e-05 0.00107382 2.89784e-12 8.76698e-12 1.9858e-11 5e-05 1.46608e-10 
82 1 0.165331 0.0162945 0.00795216 0.00600755 7.62408e-05 3.91736e-05 6.87129e-11 2.40245e-11 1.84365e-11 5e-05 1.46608e-10 
83 1 0.165598 0.0165611 0.00760864 0.00623594 3.2198e-05 0.000100241 -3.1427e-11 -4.69408e-11 7.31116e-11 5e-05 1.46608e-10 
84 1 0.177724 0.0179664 0.00705463 0.00560622 -0.0009235 0.000145563 5.79684e-13 -1.76806e-12 7.35831e-13 5e-05 1.46608e-10 
85 1 0.166125 0.0173497 0.00729892 0.00593329 0.000340669 -0.00014853 2.61514e-11 5.50895e-12 -7.18035e-13 5e-05 1.46608e-10 
86 1 0.17142 0.0164673 0.00811468 0.00558397 -3.76295e-05 0.00107589 -4.80326e-11 -5.50577e-12 -3.36926e-11 5e-05 1.46608e-10 
87 1 0.171417 0.0163238 0.00828113 0.00560038 -5.39187e-05 0.00108387 1.6679e-11 -2.83783e-11 8.02793e-12 5e-05 1.46608e-10 
88 1 0.171622 0.0174297 0.00773697 0.00547428 -5.69313e-05 0.00108408 5.37682e-10 -2.38149e-10 2.39602e-10 5e-05 1.46608e-10 
89 1 0.171596 0.0173078 0.0077987 0.00555617 -5.54269e-05 0.00106938 1.41096e-11 -5.19938e-11 6.88799e-11 5e-05 1.46608e-10 
90 1 0.171694 0.0178729 0.00753733 0.00740351 -0.000884573 0.00168833 6.54565e-10 -7.1128e-10 5.23677e-09 5e-05 1.46608e-10 
91 1 0.165273 0.0161783 0.00810318 0.00590495 8.34889e-05 2.38073e-05 4.06288e-11 -1.55637e-11 -1.72741e-11 5e-05 1.46608e-10 
92 1 0.171717 0.0173937 0.00769644 0.00550615 -2.85393e-05 0.00105428 6.33978e-10 3.95709e-10 -1.24704e-10 5e-05 1.46608e-10 
93 1 0.171366 0.0166081 0.00803232 0.00557503 -4.83143e-05 0.00107788 -7.30652e-11 -1.55476e-10 5.54156e-11 5e-05 1.46608e-10 
94 1 0.171682 0.0178841 0.00743866 0.00676776 -0.00109918 0.00180161 -3.98837e-10 -4.1172e-10 -3.208e-10 5e-05 1.46608e-10 
95 1 0.171589 0.0175184 0.00760836 0.00549489 -0.000184992 0.00113279 -2.13016e-10 4.96722e-10 -4.69587e-10 5e-05 1.46608e-10 
96 1 0.171684 0.0175522 0.00760892 0.00551862 -0.00013455 0.00111378 -2.22445e-10 1.1595e-10 3.80161e-11 5e-05 1.46608e-10 
97 1 0.165208 0.0159438 0.00841159 0.0056436 8.74643e-05 -1.04018e-05 1.64292e-10 -7.90528e-11 9.29383e-11 5e-05 1.46608e-10 
98 1 0.171344 0.0165239 0.00808178 0.00558297 -4.30739e-05 0.00107591 -5.18398e-11 -7.94561e-11 3.0392e-11 5e-05 1.46608e-10 
99 1 0.165778 0.0179809 0.00723524 0.00572213 0.00013093 -7.12965e-05 -1.15511e-10 3.08347e-11 7.33754e-11 5e-05 1.46608e-10 
100 1 0.171635 0.0169584 0.00790378 0.0055479 -6.97548e-05 0.00108696 -7.17083e-14 4.77428e-11 -2.47749e-11 5e-05 1.46608e-10 
101 1 0.165872 0.0179478 0.00723674 0.00573216 0.000161251 -8.94019e-05 -1.06243e-10 -3.37534e-11 1.88592e-11 5e-05 1.46608e-10 
102 1 0.0643568 0.0187248 0.00531097 4.2161e-15 1.05451e-14 8.29568e-14 1.07128e-21 -6.99355e-22 2.93649e-23 5e-05 1.46608e-10 
103 1 0.24257 0.0191927 0.00520306 1.6328e-22 4.86658e-23 -5.81428e-22 0 0 0 5e-05 1.46608e-10 
104 1 0.165978 0.0174819 0.00726952 0.00591081 0.000410637 -0.000165492 4.2552e-12 -4.09969e-11 2.02488e-11 5e-05 1.46608e-10 
105 1 0.165156 0.0158257 0.00856398 0.0055933 0.00023826 7.38746e-05 -3.69811e-11 -7.45525e-11 -7.00845e-11 5e-05 1.46608e-10 
106 1 0.165893 0.0174275 0.00728327 0.00593624 0.000268931 -0.000131177 -6.09504e-12 -8.65022e-12 3.15202e-12 5e-05 1.46608e-10 
107 1 0.165117 0.0157089 0.00872152 0.00546466 0.000319964 9.44231e-05 -5.50991e-12 -3.36949e-12 4.41019e-11 5e-05 1.46608e-10 
108 1 0.171777 0.0172195 0.00779709 0.00545836 -1.5717e-05 0.00104172 -7.33984e-11 -2.14505e-10 6.71703e-11 5e-05 1.46608e-10 
109 1 0.171471 0.0163258 0.00819677 0.00559171 -4.11072e-05 0.00107981 -5.93787e-12 1.79922e-11 -2.99931e-12 5e-05 1.46608e-10 
110 1 0.171496 0.0171381 0.00778549 0.00555942 -4.97435e-05 0.00107967 -1.33404e-11 -9.81776e-12 4.60586e-11 5e-05 1.46608e-10 
111 1 0.171453 0.0169653 0.00787609 0.00555727 -4.64934e-05 0.00106976 1.30383e-10 5.50329e-11 -8.84877e-12 5e-05 1.46608e-10 
112 1 0.165215 0.0160032 0.00833149 0.00572844 9.02539e-05 5.85538e-06 -2.71324e-11 -7.07782e-11 7.09842e-11 5e-05 1.46608e-10 
113 1 0.165858 0.0176801 0.00722427 0.0056832 0.000163807 -0.000103401 -5.07071e-11 -1.74917e-11 -1.15343e-11 5e-05 1.46608e-10 
114 1 0.165824 0.0180302 0.00714231 0.00573111 8.76066e-05 -8.66679e-05 -1.6818e-11 -3.28352e-11 1.21758e-11 5e-05 1.46608e-10 
115 1 0.171328 0.0164222 0.00821376 0.00559142 -2.87047e-05 0.0010753 -1.74221e-12 -3.1256e-11 6.5369e-12 5e-05 1.46608e-10 
116 1 0.171857 0.0172793 0.00778147 0.0054493 3.37081e-05 0.0010152 -8.28171e-10 5.62432e-10 -4.48605e-10 5e-05 1.46608e-10 
117 1 0.171729 0.0166614 0.00807369 0.00560267 9.28193e-06 0.00105654 -7.56713e-11 1.20999e-10 -7.90829e-11 5e-05 1.46608e-10 
118 1 0.165766 0.0168579 0.00741953 0.00624088 -3.66749e-05 -7.94621e-05 6.41055e-11 -1.87602e-11 -8.18139e-11 5e-05 1.46608e-10 
119 1 0.171782 0.0173318 0.00774047 0.00545564 6.28295e-06 0.00102849 7.90913e-10 1.53657e-10 1.15901e-10 5e-05 1.46608e-10 
120 1 0.171415 0.0161358 0.00828346 0.00560859 -3.60126e-05 0.00108306 2.62529e-11 8.4793e-12 -2.5296e-12 5e-05 1.46608e-10 
121 1 0.172019 0.0188956 0.00682414 0.00286306 0.0206428 -0.00584475 -9.35621e-11 -2.8262e-10 7.99375e-11 5e-05 1.46608e-10 
122 1 0.171638 0.0173343 0.00771192 0.00549897 -3.42319e-05 0.00105423 -1.3993e-10 -3.02721e-10 2.59048e-10 5e-05 1.46608e-10 
123 1 0.165997 0.0172093 0.00733343 0.006054 0.000295584 -0.000139038 1.81025e-11 -1.86617e-10 3.4725e-11 5e-05 1.46608e-10 
124 1 0.171377 0.0166062 0.00813167 0.00559102 -6.02972e-05 0.00107038 -5.62811e-12 -5.62034e-11 8.50731e-11 5e-05 1.46608e-10 
125 1 0.171656 0.0167158 0.00803203 0.00557494 -2.25792e-05 0.00106762 -8.317e-11 9.62272e-11 -6.22096e-11 5e-05 1.46608e-10 
127 1 0.165176 0.0158848 0.00848584 0.00559206 0.000119729 -1.13145e-05 1.23058e-10 -1.35172e-10 -1.92805e-11 5e-05 1.46608e-10 
128 1 0.171309 0.0164161 0.0083118 0.00559383 -1.70677e-05 0.00107494 -2.96061e-11 -1.14719e-10 -3.52643e-12 5e-05 1.46608e-10 
129 1 0.171705 0.0176411 0.00756743 0.00570842 -0.000614519 0.00139413 -4.1323e-10 6.85161e-10 -2.70322e-10 5e-05 1.46608e-10 
130 1 0.165968 0.0173621 0.00729782 0.00595271 0.000294989 -0.000137957 4.06206e-11 4.04936e-11 4.51267e-12 5e-05 1.46608e-10 
131 1 0.165749 0.0178783 0.00726057 0.00570712 0.000119046 -7.25151e-05 7.8044e-12 -2.86833e-11 5.89974e-12 5e-05 1.46608e-10 
132 1 0.171464 0.0166461 0.00803151 0.00555933 -4.30416e-05 0.0010743 6.04569e-12 -5.79309e-11 3.26081e-11 5e-05 1.46608e-10 
133 1 0.171847 0.0182985 0.00716156 0.0103946 0.022679 -0.0171476 -1.17192e-11 2.03599e-10 -1.33258e-10 5e-05 1.46608e-10 
134 1 0.171754 0.0174957 0.00765125 0.00550858 -5.07937e-05 0.00106827 -2.2932e-10 -4.91545e-10 1.33754e-10 5e-05 1.46608e-10 
135 1 0.17161 0.0165374 0.00811481 0.00557624 -6.40408e-06 0.00105954 -2.16818e-11 5.93195e-11 -2.31307e-11 5e-05 1.46608e-10 
136 1 0.165745 0.016763 0.00744242 0.00620809 7.98795e-06 -8.9195e-05 -1.55424e-10 -4.84618e-11 6.13883e-11 5e-05 1.46608e-10 
137 1 0.171611 0.0176069 0.00756715 0.0055337 -0.000137734 0.00113425 7.75707e-11 7.02376e-10 -1.47369e-10 5e-05 1.46608e-10 
138 1 0.171863 0.0182148 0.00721412 0.00841822 0.0224076 -0.0165777 2.03506e-11 1.91532e-10 -1.31538e-10 5e-05 1.46608e-10 
140 1 0.171539 0.0173211 0.00771756 0.00552281 -6.59033e-05 0.00107918 2.19419e-11 1.66393e-10 8.97841e-11 5e-05 1.46608e-10 
141 1 0.165447 0.016435 0.00777059 0.00613501 4.33995e-05 8.05306e-05 1.48573e-10 -1.67974e-12 -8.15914e-12 5e-05 1.46608e-10 
142 1 0.165566 0.0165032 0.00768388 0.00616617 4.35481e-05 8.34085e-05 3.61802e-10 -1.53698e-10 2.17823e-10 5e-05 1.46608e-10 
143 1 0.165137 0.0157667 0.00864229 0.00554142 0.00030631 0.000109035 -5.9444e-11 -4.75497e-11 3.74502e-11 5e-05 1.46608e-10 
144 1 0.165736 0.0172023 0.00733807 0.00616159 2.59449e-07 -7.14741e-05 1.66216e-10 6.53886e-12 1.18868e-11 5e-05 1.46608e-10 
146 1 0.165372 0.0164836 0.00772457 0.00616423 5.85182e-05 5.76353e-05 2.61055e-11 5.91953e-11 1.27648e-11 5e-05 1.46608e-10 
147 1 0.165811 0.0171377 0.0073524 0.00617399 1.31859e-05 -7.43283e-05 1.3868e-10 -2.05273e-11 2.46288e-12 5e-05 1.46608e-10 
148 1 0.165467 0.0164946 0.00769286 0.0061642 4.1101e-05 8.49057e-05 1.98685e-10 -9.0725e-11 6.506e-11 5e-05 1.46608e-10 
149 1 0.171409 0.0167898 0.00796133 0.00555085 -5.22061e-05 0.00107102 -5.60536e-11 2.21772e-11 3.56876e-11 5e-05 1.46608e-10 
150 1 0.166117 0.0175997 0.00724018 0.00573281 0.000215878 -0.000117072 -4.8055e-11 2.46094e-11 -4.73689e-12 5e-05 1.46608e-10 
151 1 0.166017 0.0179585 0.00715694 0.00568292 0.000232709 -0.000124576 -3.58753e-11 5.60243e-11 -2.75324e-11 5e-05 1.46608e-10 
153 1 0.165503 0.0166147 0.0075362 0.00626499 -4.76172e-06 0.000139755 -2.76442e-10 3.15534e-12 -7.69804e-11 5e-05 1.46608e-10 
154 1 0.165352 0.0164151 0.00779451 0.00611398 6.76053e-05 4.64613e-05 -2.22471e-11 1.05466e-11 -1.89115e-11 5e-05 1.46608e-10 
155 1 0.165454 0.0167559 0.00744889 0.00630826 -8.60545e-05 -3.80344e-05 3.83824e-11 -1.03492e-10 -2.65337e-12 5e-05 1.46608e-10 
156 1 0.165337 0.0163591 0.00787604 0.00605184 7.3396e-05 3.74821e-05 1.80101e-10 -1.11998e-11 -1.35035e-12 5e-05 1.46608e-10 
157 1 0.0219312 0.0187687 0.00551176 -3.8382e-14 8.16361e-14 2.9589e-13 -3.16138e-23 -8.54064e-23 2.99853e-23 5e-05 1.46608e-10 
158 1 0.165627 0.0167094 0.0074877 0.00619224 1.94869e-05 2.30051e-05 -1.08677e-10 -1.20746e-10 -1.04906e-10 5e-05 1.46608e-10 
159 1 0.171487 0.0167347 0.00799044 0.00554698 -4.02812e-05 0.00107093 -6.53296e-11 -9.87114e-11 3.1722e-11 5e-05 1.46608e-10 
160 1 0.165945 0.0181642 0.00710939 0.0056189 0.000184545 -0.000108228 -2.44416e-11 3.06246e-11 -1.21958e-11 5e-05 1.46608e-10 
162 1 0.165788 0.0182853 0.00708271 0.00555753 0.000122366 -9.27532e-05 2.45343e-11 2.85611e-11 -4.65324e-12 5e-05 1.46608e-10 
164 1 0.165518 0.0170408 0.00737951 0.00621639 -7.2976e-05 -6.67875e-05 -9.45209e-12 -1.48341e-10 1.17185e-10 5e-05 1.46608e-10 
165 1 0.165965 0.017726 0.00721223 0.00570028 0.00017651 -0.000106963 -2.70094e-11 4.24786e-11 -9.21982e-12 5e-05 1.46608e-10 
166 1 0.171809 0.0183788 0.00711558 0.0113398 0.0230226 -0.0175626 -2.43143e-11 2.08827e-10 -1.34258e-10 5e-05 1.46608e-10 
167 1 0.166042 0.0172963 0.00731245 0.0059774 0.000323588 -0.00014521 3.09421e-11 3.21929e-11 -1.53212e-11 5e-05 1.46608e-10 
168 1 0.166022 0.0175692 0.00724846 0.0057284 0.000219465 -0.000117814 -6.49703e-11 4.27489e-11 -9.16831e-12 5e-05 1.46608e-10 
169 1 0.165986 0.017822 0.00718943 0.00570462 0.000140447 -9.92608e-05 5.32169e-11 1.10137e-11 -1.0611e-11 5e-05 1.46608e-10 
170 1 0.166043 0.0176649 0.00722572 0.00570969 0.000188751 -0.000109852 -3.49698e-11 2.23981e-11 -1.20366e-12 5e-05 1.46608e-10 
171 1 0.171855 0.0178008 0.00749137 0.0103892 0.00317068 -0.00451565 0 0 -1.43822e-09 5e-05 1.46608e-10 
172 1 0.165708 0.0179041 0.00717331 0.0057104 9.24125e-05 -8.60129e-05 5.34492e-12 -2.46339e-11 -2.57848e-12 5e-05 1.46608e-10 
173 1 0.171767 0.0178448 0.00747482 0.00745212 -0.000255126 0.00153794 -1.92412e-10 -1.07875e-10 1.10242e-09 5e-05 1.46608e-10 
174 1 0.165626 0.0169761 0.00739339 0.00623331 -3.43458e-05 -7.7148e-05 -1.58256e-11 -3.10233e-11 1.90574e-11 5e-05 1.46608e-10 
176 1 0.165845 0.0173379 0.00730493 0.00606062 0.000200656 -0.000116971 -4.03743e-11 1.92239e-10 -6.75742e-11 5e-05 1.46608e-10 
177 1 0.165433 0.016683 0.007514 0.00628349 -2.77933e-05 1.88692e-05 -2.11472e-10 3.22798e-11 1.59526e-10 5e-05 1.46608e-10 
178 1 0.165787 0.0178146 0.00719345 0.00568272 0.00012941 -9.64568e-05 -1.86538e-11 -7.38687e-14 -7.70541e-12 5e-05 1.46608e-10 
179 1 0.165964 0.0182597 0.0070867 0.00546802 0.000187904 -0.000107201 2.20312e-11 1.60224e-11 -4.22131e-12 5e-05 1.46608e-10 
182 1 0.171888 0.017375 0.00773831 0.00546773 5.16834e-05 0.00100901 -7.65244e-10 2.74453e-10 -2.78878e-10 5e-05 1.46608e-10 
183 1 0.165898 0.0175403 0.00725671 0.00583941 0.00031863 -0.000142034 3.71889e-11 -1.17033e-11 8.61384e-12 5e-05 1.46608e-10 
184 1 0.171756 0.0179515 0.00741058 0.00687345 0.00227171 -0.00286613 -1.76909e-11 1.68886e-10 -1.08975e-10 5e-05 1.46608e-10 
185 1 0.165784 0.0170441 0.00737496 0.00620159 5.99638e-06 -8.76156e-05 2.80233e-11 -1.39241e-11 -2.52805e-11 5e-05 1.46608e-10 
186 1 0.165719 0.0169354 0.00749129 0.006239 -3.31682e-05 -8.99466e-05 -2.61218e-11 2.18475e-11 9.73778e-11 5e-05 1.46608e-10 
187 1 0.171903 0.0183979 0.00708445 0.0104404 0.0265915 -0.0197618 1.35516e-11 1.93945e-10 -1.31806e-10 5e-05 1.46608e-10 
188 1 0.171556 0.0170055 0.0078647 0.00555585 -5.74413e-05 0.00108266 6.79325e-11 1.67084e-10 -8.24972e-11 5e-05 1.46608e-10 
189 1 0.17193 0.0189921 0.00679665 0.00584948 0.00071002 -0.000192276 -4.56992e-11 -2.30452e-10 6.52483e-11 5e-05 1.46608e-10 
190 1 0.159772 0.0177748 0.00709384 0.00560151 2.55423e-05 0.000350384 1.47464e-10 -6.66232e-14 2.96161e-11 5e-05 1.46608e-10 
191 1 0.171431 0.0168761 0.0079157 0.00555579 -5.55282e-05 0.00106977 5.05993e-11 7.71357e-11 -1.32531e-11 5e-05 1.46608e-10 
192 1 0.165748 0.0180946 0.00712803 0.00573569 9.15807e-05 -8.7634e-05 1.59953e-11 7.11194e-12 1.16308e-11 5e-05 1.46608e-10 
193 1 0.171817 0.0174321 0.00769578 0.00543223 -4.76219e-05 0.0010539 1.38211e-10 5.21538e-10 -2.84081e-10 5e-05 1.46608e-10 
194 1 0.165407 0.016626 0.00767613 0.0062099 3.80043e-05 5.33665e-05 -8.80426e-11 9.33901e-11 1.27247e-10 5e-05 1.46608e-10 
195 1 0.165899 0.0178706 0.00717899 0.00572181 0.00016602 -0.00010519 2.64121e-11 -1.33036e-12 -5.70685e-12 5e-05 1.46608e-10 
196 1 0.166051 0.0174155 0.0072843 0.00592518 0.000329985 -0.000145765 2.90665e-11 6.5303e-11 -1.93472e-11 5e-05 1.46608e-10 
197 1 0.159556 0.0172016 0.00733037 0.00615622 -0.000269253 -0.000173522 3.61431e-10 -4.22882e-10 1.80056e-10 5e-05 1.46608e-10 
198 1 0.165603 0.0166217 0.00752927 0.00625315 3.39846e-05 9.82958e-05 -3.10288e-10 -3.64978e-11 1.43221e-12 5e-05 1.46608e-10 
199 1 0.165768 0.0181899 0.00710538 0.00553223 0.000131407 -9.45923e-05 -3.07166e-11 1.50234e-11 -4.50444e-12 5e-05 1.46608e-10 
200 1 0.165293 0.0162381 0.00802545 0.0059617 8.07316e-05 2.71208e-05 4.76737e-11 -1.36646e-11 -2.86959e-11 5e-05 1.46608e-10 
201 1 0.165879 0.0177753 0.00720163 0.00569296 0.000164405 -0.000105347 -4.11324e-11 -1.77461e-13 -6.13006e-12 5e-05 1.46608e-10 
202 1 0.165651 0.016797 0.00744582 0.00620001 -2.09447e-05 -6.59851e-05 -1.3575e-10 -9.06028e-11 -7.51378e-11 5e-05 1.46608e-10 
203 1 0.171688 0.0171584 0.00781139 0.00553932 -5.48457e-05 0.00107527 1.29969e-10 -5.12193e-11 5.68772e-11 5e-05 1.46608e-10 
204 1 0.165922 0.0172754 0.00731873 0.00600129 0.000115903 -9.63675e-05 7.03554e-11 1.72152e-10 -4.44282e-11 5e-05 1.46608e-10 
205 1 0.165571 0.0168805 0.00741691 0.00626695 -6.93325e-05 -7.10188e-05 -8.74463e-11 1.065e-10 4.76835e-11 5e-05 1.46608e-10 
206 1 0.165615 0.0170728 0.0073705 0.00620973 -3.72965e-05 -7.42048e-05 7.00532e-11 -2.5554e-11 2.64952e-11 5e-05 1.46608e-10 
207 1 0.165488 0.0165546 0.00761465 0.00615971 -1.35092e-08 0.000134981 2.20577e-10 7.93207e-11 -6.5553e-11 5e-05 1.46608e-10 
208 1 0.165671 0.0168893 0.00741339 0.00623629 -3.36743e-05 -8.28715e-05 -1.07039e-11 -7.22826e-11 5.65879e-11 5e-05 1.46608e-10 
209 1 0.165721 0.0171195 0.00739184 0.00619405 -4.0012e-06 -6.22531e-05 1.19591e-10 2.84897e-11 -6.51142e-11 5e-05 1.46608e-10 
210 1 0.171361 0.0165156 0.00818 0.00559048 -3.86161e-05 0.00107271 1.60993e-11 2.58881e-11 1.44334e-11 5e-05 1.46608e-10 
211 1 0.171532 0.0169127 0.00790765 0.00557048 -3.00115e-05 0.00107293 9.98022e-11 -8.43768e-11 4.77376e-11 5e-05 1.46608e-10 
212 1 0.165943 0.0176285 0.00723543 0.00570685 0.00019669 -0.000111669 2.68055e-11 8.03921e-11 -1.06056e-11 5e-05 1.46608e-10 
213 1 0.171907 0.0188793 0.00682859 0.00554499 -0.000624193 0.000185313 -1.51365e-11 -7.69119e-11 2.1746e-11 5e-05 1.46608e-10 
214 1 0.171509 0.0168235 0.0079491 0.0055473 -5.65806e-05 0.00107719 -3.27504e-11 5.69846e-11 -3.88653e-11 5e-05 1.46608e-10 
215 1 0.159732 0.0175853 0.00714541 0.00683109 -0.000325514 0.000161584 4.63177e-10 1.69486e-09 -2.37126e-09 5e-05 1.46608e-10 
216 1 0.165521 0.016683 0.0074646 0.00623913 -0.000149366 -5.16273e-05 5.67728e-11 -7.87175e-11 1.17724e-11 5e-05 1.46608e-10 
217 1 0.171793 0.0176072 0.00760143 0.00545743 -0.000763234 0.00142564 1.66444e-09 -3.07488e-09 1.85232e-09 5e-05 1.46608e-10 
218 1 0.165844 0.0181255 0.00711965 0.00552621 0.000124614 -9.29867e-05 -9.20166e-11 2.07629e-11 -3.46161e-12 5e-05 1.46608e-10 
219 1 0.171388 0.0166977 0.00799373 0.00556542 -5.18591e-05 0.0010785 3.78897e-14 -1.05654e-10 7.35197e-11 5e-05 1.46608e-10 
220 1 0.165807 0.0183809 0.00706 0.00542763 0.000143476 -9.61719e-05 -4.43645e-12 -2.99505e-11 7.94381e-12 5e-05 1.46608e-10 
222 1 0.171426 0.0164502 0.0082195 0.00558262 -4.05706e-05 0.00107648 8.63218e-12 4.02786e-11 3.76204e-12 5e-05 1.46608e-10 
224 1 0.165746 0.0169544 0.00739685 0.00623215 -9.24297e-06 -8.8297e-05 -6.88989e-11 -1.11065e-11 8.25574e-12 5e-05 1.46608e-10 
225 1 0.171474 0.0170498 0.00782721 0.0055621 -4.32268e-05 0.00107878 -1.48137e-11 1.86885e-11 -5.62888e-11 5e-05 1.46608e-10 
226 1 0.165728 0.0179993 0.00715067 0.00572674 9.45325e-05 -8.61889e-05 5.65129e-12 -1.76974e-11 -9.22278e-12 5e-05 1.46608e-10 
227 1 0.159695 0.0178346 0.00707196 0.00558861 2.93087e-05 0.000344828 8.67675e-11 3.18606e-10 -8.34368e-11 5e-05 1.46608e-10 
228 1 0.159712 0.017495 0.00718322 0.00560757 -0.000461874 -0.000106184 1.41282e-09 1.66171e-09 1.46002e-10 5e-05 1.46608e-10 
229 1 0.165877 0.0176327 0.00731028 0.00574684 0.000218561 -8.063e-05 2.103e-11 -1.09726e-11 -1.61737e-11 5e-05 1.46608e-10 
230 1 0.165677 0.0174589 0.00727839 0.00594553 7.508e-05 -8.54259e-05 -5.22516e-11 -7.56202e-11 1.70903e-12 5e-05 1.46608e-10 
232 1 0.165886 0.0183204 0.00707332 0.00544667 0.000163281 -0.000101211 -6.33938e-12 -2.2609e-11 5.64965e-12 5e-05 1.46608e-10 
233 1 0.166096 0.0175026 0.0072633 0.00586968 0.000359042 -0.000152184 -9.3464e-12 1.14111e-10 -2.82695e-11 5e-05 1.46608e-10 
234 1 0.171617 0.0172144 0.0077692 0.00554208 -6.16089e-05 0.00107864 1.9426e-10 -7.56033e-11 2.94968e-11 5e-05 1.46608e-10 
235 1 0.1656 0.0174219 0.00733135 0.00602794 -3.03175e-05 -2.91359e-05 -5.77373e-11 -3.32223e-11 1.95658e-11 5e-05 1.46608e-10 
236 1 0.165648 0.0176581 0.00729996 0.0058719 -0.000233504 0.000226871 3.87182e-11 8.33638e-11 2.26911e-11 5e-05 1.46608e-10 
237 1 0.165667 0.0177136 0.00721858 0.00567021 9.45336e-05 -8.77995e-05 8.57436e-12 -1.63694e-11 -3.89718e-12 5e-05 1.46608e-10 
239 1 0.159447 0.016763 0.00754434 0.00613561 -0.000414053 -0.00010285 5.22458e-11 1.37894e-10 -7.4075e-11 5e-05 1.46608e-10 
240 1 0.159512 0.0170262 0.00741596 0.00615647 -0.000233709 -0.000190325 -1.02475e-10 2.32035e-10 -3.85419e-11 5e-05 1.46608e-10 
241 1 0.159425 0.0166752 0.00758713 0.0061143 -0.000521556 -5.1327e-05 2.22186e-11 1.74568e-10 -7.86165e-11 5e-05 1.46608e-10 
242 1 0.165391 0.0165336 0.00764009 0.00619203 5.21611e-05 6.69421e-05 2.34296e-10 -7.35002e-11 4.93407e-11 5e-05 1.46608e-10 
243 1 0.165875 0.0175028 0.00734665 0.00593112 0.000275034 -0.000139522 6.73867e-11 1.01258e-10 2.32224e-11 5e-05 1.46608e-10 
244 1 0.159469 0.0168507 0.00750154 0.00615467 -0.000317592 -0.000149727 5.6524e-11 1.21617e-10 -6.6478e-11 5e-05 1.46608e-10 
246 1 0.159672 0.0173187 0.00726901 0.00567513 -0.000258095 -0.000146016 5.33385e-10 -3.82078e-10 5.19069e-10 5e-05 1.46608e-10 
247 1 0.16558 0.0170375 0.00745768 0.00621884 -5.03896e-05 -5.91235e-05 1.80925e-10 8.76439e-11 1.07357e-10 5e-05 1.46608e-10 
248 1 0.165813 0.0175917 0.00724558 0.00577753 0.000226473 -0.000118546 3.90036e-11 -8.05604e-12 -1.65966e-11 5e-05 1.46608e-10 
249 1 0.159576 0.0172897 0.00728751 0.00546645 -8.27803e-05 -0.000226932 1.71361e-10 -6.1392e-10 3.30345e-10 5e-05 1.46608e-10 
250 1 0.16555 0.0167853 0.00743985 0.00630784 -7.25445e-05 -6.99318e-05 2.01096e-10 -8.83003e-11 2.41881e-11 5e-05 1.46608e-10 
251 1 0.17166 0.0174621 0.00765066 0.00550477 -0.000126029 0.00109796 -4.28806e-10 2.27873e-10 -1.51932e-10 5e-05 1.46608e-10 
252 1 0.159615 0.0174661 0.00720171 0.00570449 -0.000191221 -0.000145109 2.28875e-10 -6.79211e-10 6.1226e-10 5e-05 1.46608e-10 
253 1 0.159788 0.01787 0.00706779 0.00559376 -4.44587e-06 0.000352891 2.17212e-10 -1.2351e-10 3.76723e-12 5e-05 1.46608e-10 
254 1 0.159653 0.0172305 0.00731191 0.00534501 -0.000276475 -0.000135303 -6.27496e-10 6.25607e-10 -1.76803e-10 5e-05 1.46608e-10 
255 1 0.165079 0.0155932 0.00888006 0.00631147 0.000258341 0.00025893 -1.96373e-11 9.73323e-11 -1.45841e-10 5e-05 1.46608e-10 
256 1 0.165752 0.0173008 0.00731471 0.00611963 3.01888e-05 -7.80226e-05 -6.82938e-12 -1.40431e-10 2.05664e-11 5e-05 1.46608e-10 
257 1 0.165517 0.0169132 0.00749469 0.00622398 -7.41689e-05 -9.23757e-05 7.51521e-11 1.20813e-10 3.12615e-10 5e-05 1.46608e-10 
258 1 0.165721 0.017632 0.00723715 0.00573184 0.000133402 -9.74187e-05 3.12339e-11 1.79897e-11 6.01649e-12 5e-05 1.46608e-10 
259 1 0.159635 0.0175543 0.00715892 0.00558939 -0.000326648 -0.000666334 -3.52558e-10 -7.0168e-10 -4.15868e-10 5e-05 1.46608e-10 
260 1 0.165919 0.0179778 0.00715353 0.0056823 0.000180438 -0.000103735 -3.88147e-11 -8.26387e-11 3.44119e-11 5e-05 1.46608e-10 