ITEM: TIMESTEP
34200000
ITEM: NUMBER OF ATOMS
275
ITEM: BOX BOUNDS ff ff ff
-0.02 0.43
-0.02 0.06
-0.02 0.07
ITEM: ATOMS id type x y z vx vy vz fx fy fz radius mass 
1 1 0.212711 0.0184075 0.00690077 0.00557828 -0.000188635 -0.000332606 -1.26896e-10 4.69172e-11 -4.24305e-10 5e-05 1.46608e-10 
2 1 0.212363 0.0171607 0.00728143 0.00566558 -7.19436e-06 -0.000196879 -1.57305e-11 1.59697e-10 1.26926e-10 5e-05 1.46608e-10 
4 1 0.212512 0.0170317 0.00731499 0.00565256 -5.5373e-06 -0.000185897 -2.02313e-10 -2.60259e-10 8.94623e-11 5e-05 1.46608e-10 
5 1 0.211885 0.0155168 0.0087851 0.00585228 -0.000241302 -7.99085e-05 1.88118e-10 8.18429e-11 -1.26658e-10 5e-05 1.46608e-10 
6 1 0.218285 0.0168526 0.00756487 0.00552848 -0.000642256 0.000135177 2.43081e-11 2.75339e-11 -1.25334e-11 5e-05 1.46608e-10 
7 1 0.212703 0.0177699 0.00708288 0.00552004 -4.66527e-06 -0.000178179 2.36014e-10 5.49649e-11 -2.39565e-11 5e-05 1.46608e-10 
8 1 0.212365 0.0167731 0.00751882 0.00575821 0.000312577 0.000416677 -4.11804e-11 2.4117e-10 -2.11254e-10 5e-05 1.46608e-10 
9 1 0.218474 0.0176865 0.00710546 0.00544051 -0.000531363 0.000280018 -4.16674e-12 -8.00061e-12 5.85607e-12 5e-05 1.46608e-10 
10 1 0.212013 0.0158871 0.00833139 0.00600416 -0.000200328 -0.000183128 -2.64371e-10 2.865e-10 2.70692e-10 5e-05 1.46608e-10 
11 1 0.212503 0.017831 0.00716022 0.00559413 1.02017e-05 -0.000189944 -2.13888e-10 1.34084e-10 2.94974e-11 5e-05 1.46608e-10 
12 1 0.206547 0.0168111 0.00757728 0.00583196 -0.000375691 0.000508024 -2.17069e-10 3.31367e-10 -2.63804e-10 5e-05 1.46608e-10 
13 1 0.211864 0.0154574 0.00886269 0.00583502 -0.000256918 -6.74458e-05 3.09983e-10 9.18158e-11 -1.84339e-10 5e-05 1.46608e-10 
14 1 0.2065 0.0173835 0.00715589 0.00542159 -0.00110361 -9.22409e-05 -4.21162e-10 -1.66073e-10 -8.70881e-10 5e-05 1.46608e-10 
16 1 0.206764 0.0178357 0.00718144 0.005249 -0.000905071 -0.000153919 -4.33032e-11 -7.01291e-11 1.80244e-10 5e-05 1.46608e-10 
17 1 0.211991 0.0158286 0.00840958 0.00598073 -0.000218807 -0.000182181 -5.45192e-10 5.91706e-10 7.07922e-10 5e-05 1.46608e-10 
19 1 0.211842 0.0153933 0.00893643 0.00579003 -0.000265314 -4.84519e-05 -1.1758e-10 1.56636e-10 -1.80767e-10 5e-05 1.46608e-10 
21 1 0.212722 0.0179593 0.00702429 0.00561672 -3.95053e-05 -0.000170652 3.45222e-11 -2.11459e-11 1.47521e-11 5e-05 1.46608e-10 
22 1 0.212324 0.0166269 0.00764896 0.00602255 0.000325723 0.000436823 -4.60904e-10 2.6858e-10 -3.24134e-10 5e-05 1.46608e-10 
23 1 0.206728 0.0176411 0.00715433 0.00514014 -0.000773337 -0.000848217 1.50434e-10 -3.41413e-10 -1.71918e-10 5e-05 1.46608e-10 
24 1 0.218398 0.01731 0.0071944 0.00553708 -0.000604116 0.000197621 1.23874e-11 1.14446e-12 2.51098e-11 5e-05 1.46608e-10 
25 1 0.212055 0.0160167 0.00818522 0.0061101 0.000185894 0.000191343 1.60958e-10 6.59358e-10 2.01759e-10 5e-05 1.46608e-10 
26 1 0.218435 0.0174921 0.0071315 0.00545689 -0.000533782 0.000281329 1.74283e-11 5.24735e-12 -1.0256e-11 5e-05 1.46608e-10 
27 1 0.206349 0.0167508 0.00761839 0.00570507 -0.000676644 0.000744668 -6.56509e-11 1.4919e-10 -5.90965e-11 5e-05 1.46608e-10 
28 1 0.212437 0.0170961 0.00729771 0.00565852 8.07804e-07 -0.00019063 -3.00583e-11 1.23557e-10 6.97124e-12 5e-05 1.46608e-10 
29 1 0.211821 0.0153316 0.00901213 0.00576328 -0.000276005 -3.14114e-05 1.93846e-10 1.5564e-10 -2.059e-10 5e-05 1.46608e-10 
30 1 0.212143 0.0163061 0.00792332 0.00609046 0.000343393 0.000413403 1.52911e-10 -6.04397e-11 1.71296e-10 5e-05 1.46608e-10 
31 1 0.212791 0.0177098 0.00709839 0.00552575 1.02527e-05 -0.000182859 1.42214e-10 2.33235e-11 -1.85445e-11 5e-05 1.46608e-10 
32 1 0.212077 0.0160872 0.00811775 0.00611342 0.000358124 0.000392157 -1.89093e-10 3.875e-10 -1.99459e-10 5e-05 1.46608e-10 
33 1 0.218304 0.0169275 0.00750157 0.00558035 -0.000647074 0.000137298 9.23145e-11 -2.95692e-11 -9.49534e-12 5e-05 1.46608e-10 
34 1 0.211976 0.0157628 0.00848327 0.00590455 -0.000204641 -0.000149908 -3.25037e-10 3.06435e-11 1.76481e-10 5e-05 1.46608e-10 
35 1 0.212697 0.0175524 0.00714963 0.00552022 1.40963e-05 -0.000184215 9.93185e-12 2.30263e-11 -1.75266e-11 5e-05 1.46608e-10 
36 1 0.218533 0.0179781 0.00706642 0.00545594 -0.000531819 0.000280777 -2.68025e-12 -1.15634e-11 2.04661e-12 5e-05 1.46608e-10 
37 1 0.212492 0.016949 0.00737179 0.00575282 0.000411557 0.000321383 -1.83823e-10 -2.43853e-11 -2.029e-11 5e-05 1.46608e-10 
38 1 0.212572 0.0173131 0.00722691 0.00567671 0.000125408 -0.000222908 7.74046e-11 2.52057e-10 -9.15402e-11 5e-05 1.46608e-10 
39 1 0.218415 0.0173949 0.00714451 0.00561704 -0.000565577 0.000291178 -1.23856e-11 -2.94181e-11 1.89775e-11 5e-05 1.46608e-10 
41 1 0.211928 0.0156404 0.00863371 0.00594182 -0.000225796 -0.000102891 6.13596e-10 -1.80853e-10 1.48794e-10 5e-05 1.46608e-10 
42 1 0.212606 0.0170612 0.00730288 0.00566894 -6.31867e-05 -0.000162946 2.22995e-10 1.82337e-10 4.67734e-12 5e-05 1.46608e-10 
44 1 0.212666 0.0173442 0.00721434 0.00551472 -1.82804e-05 -0.000173748 -5.87263e-12 6.14074e-11 -2.02649e-11 5e-05 1.46608e-10 
45 1 0.218323 0.0170026 0.00743822 0.00560679 -0.000657432 0.000141416 1.21974e-10 -1.86579e-10 6.89004e-11 5e-05 1.46608e-10 
47 1 0.211949 0.0157022 0.00855802 0.00593017 -0.000221977 -0.000113373 4.11756e-10 -1.87315e-10 5.89173e-11 5e-05 1.46608e-10 
48 1 0.212589 0.0182255 0.00701302 0.00564229 2.32906e-05 -0.00018925 -2.88609e-12 -1.1844e-10 6.25609e-11 5e-05 1.46608e-10 
49 1 0.218494 0.0177837 0.00709245 0.00542305 -0.000526807 0.000278778 -2.13675e-11 -5.53402e-12 -3.50774e-12 5e-05 1.46608e-10 
50 1 0.212101 0.0161599 0.00805342 0.0061445 0.000339783 0.000393456 -4.63517e-10 2.88424e-10 -1.91137e-10 5e-05 1.46608e-10 
51 1 0.212798 0.0178052 0.007069 0.00554392 8.72785e-06 -0.00018279 9.76468e-12 2.46356e-11 -3.6298e-12 5e-05 1.46608e-10 
52 1 0.206604 0.0170433 0.00739099 0.00550961 -0.000811116 0.000368062 -2.24826e-10 5.45184e-10 -1.68474e-11 5e-05 1.46608e-10 
53 1 0.21836 0.0171528 0.00731147 0.00546778 -0.000631297 0.000130653 1.4528e-11 5.65391e-11 -1.61952e-11 5e-05 1.46608e-10 
54 1 0.212908 0.01804 0.00699358 0.00563683 -5.23303e-05 -0.00017443 -1.77769e-10 -1.21819e-10 -9.62225e-12 5e-05 1.46608e-10 
55 1 0.206521 0.0170872 0.00735589 0.00555583 -0.000602254 0.000669993 -4.96105e-11 -1.51833e-10 -8.96334e-11 5e-05 1.46608e-10 
56 1 0.212905 0.0179435 0.0070232 0.00563826 3.25543e-05 -0.000193518 -1.07186e-10 -8.20236e-12 4.75518e-12 5e-05 1.46608e-10 
57 1 0.218343 0.0170775 0.00737494 0.00554473 -0.000641185 0.0001348 -4.15362e-13 -3.16103e-11 -2.253e-11 5e-05 1.46608e-10 
59 1 0.378022 0.019866 0.005332 -5.02001e-15 -7.41197e-15 7.69802e-14 1.52511e-24 -5.97121e-24 -4.1359e-25 5e-05 1.46608e-10 
60 1 0.212683 0.0174459 0.00718267 0.00553099 8.62009e-06 -0.000182659 -9.31403e-11 2.79026e-11 -1.64912e-11 5e-05 1.46608e-10 
61 1 0.211906 0.0155786 0.00870941 0.00588219 -0.000228745 -9.73318e-05 5.52651e-11 -5.15196e-12 2.03689e-11 5e-05 1.46608e-10 
62 1 0.212591 0.0174081 0.0071972 0.00553434 1.68326e-06 -0.000181096 -7.35685e-11 5.17892e-11 -1.53124e-11 5e-05 1.46608e-10 
63 1 0.212597 0.0182807 0.00693001 0.00567094 2.23843e-05 -0.000189958 4.07917e-11 -8.86287e-12 1.84787e-12 5e-05 1.46608e-10 
64 1 0.218379 0.0172281 0.00724823 0.00539152 -0.000621976 0.000120888 3.40375e-12 2.87711e-11 -1.04942e-11 5e-05 1.46608e-10 
65 1 0.206558 0.0172414 0.00723386 0.00547413 -0.000821597 0.000421751 -1.31333e-10 1.87748e-10 -5.18069e-10 5e-05 1.46608e-10 
66 1 0.206485 0.017534 0.00720453 0.00486936 -0.0015445 0.000732204 1.5637e-10 -1.58412e-09 1.36893e-09 5e-05 1.46608e-10 
67 1 0.21275 0.0180634 0.00699156 0.00562937 -5.33209e-06 -0.000181464 -9.69207e-11 -2.74448e-11 4.12744e-12 5e-05 1.46608e-10 
68 1 0.212497 0.0173771 0.00720975 0.00563794 6.70305e-05 -0.000202164 2.39568e-10 3.9755e-10 -1.10102e-10 5e-05 1.46608e-10 
69 1 0.21282 0.0179948 0.00701024 0.00561746 -7.73099e-06 -0.000180553 -1.02393e-10 -4.05625e-11 -8.06082e-12 5e-05 1.46608e-10 
70 1 0.218455 0.0175893 0.00711848 0.00544959 -0.000532896 0.00028109 2.23257e-12 7.64553e-12 3.53536e-12 5e-05 1.46608e-10 
71 1 0.206858 0.0178678 0.00717209 0.00513973 -0.000774847 -0.000846665 -7.633e-11 -6.79277e-11 4.42012e-11 5e-05 1.46608e-10 
72 1 0.212772 0.0182525 0.00693296 0.00558672 8.66668e-05 -0.000207968 -1.40094e-10 5.2314e-11 -1.76849e-11 5e-05 1.46608e-10 
73 1 0.212034 0.0159501 0.00825679 0.00611214 -0.000106496 -8.22738e-05 -3.07583e-10 2.42012e-10 -3.82392e-11 5e-05 1.46608e-10 
74 1 0.212121 0.0162331 0.00798809 0.00612322 0.000336145 0.000394976 -1.06976e-10 1.65559e-10 1.13665e-10 5e-05 1.46608e-10 
76 1 0.206466 0.0168557 0.00753876 0.0056142 -0.000617975 0.00069518 3.77479e-11 1.55081e-10 -7.97978e-11 5e-05 1.46608e-10 
77 1 0.212382 0.0172539 0.00725119 0.00568607 -1.82012e-05 -0.000181945 -1.1867e-11 1.73858e-10 -1.79548e-11 5e-05 1.46608e-10 
78 1 0.205774 0.0151635 0.00916841 0.00533262 -0.000506645 0.000937194 -7.25441e-11 -2.66001e-11 2.60014e-10 5e-05 1.46608e-10 
79 1 0.206825 0.0181288 0.00720276 0.00542339 -0.00125841 0.00142982 -1.18746e-10 3.62517e-11 4.03232e-12 5e-05 1.46608e-10 
80 1 0.212457 0.0171899 0.00726835 0.00568718 -3.24002e-05 -0.000175686 -1.74392e-10 -6.85767e-11 3.325e-11 5e-05 1.46608e-10 
82 1 0.206579 0.0175623 0.00722693 0.0046636 -0.00208597 0.000637922 -1.37271e-09 -9.32573e-10 1.51681e-09 5e-05 1.46608e-10 
83 1 0.206566 0.0168883 0.00751625 0.00565271 -0.000554124 0.000645834 9.77634e-12 2.26425e-11 -8.07e-11 5e-05 1.46608e-10 
84 1 0.218513 0.0178809 0.00707943 0.00546214 -0.000533405 0.00028134 -1.72106e-12 -8.24783e-12 1.14153e-12 5e-05 1.46608e-10 
85 1 0.206994 0.0180944 0.00718913 0.00562903 -0.00106307 -0.000948627 3.96468e-10 -5.08703e-11 -3.22742e-11 5e-05 1.46608e-10 
86 1 0.212647 0.0172491 0.00724406 0.00569568 0.00013081 -0.00022524 -1.35942e-10 -9.35765e-11 3.34538e-11 5e-05 1.46608e-10 
87 1 0.212418 0.0170066 0.00733789 0.00566684 3.32997e-05 -0.000119809 -1.90189e-10 -3.19275e-11 -1.5381e-10 5e-05 1.46608e-10 
88 1 0.212621 0.0177154 0.00710222 0.00550382 2.16989e-05 -0.000186079 -1.06423e-11 2.03353e-10 -5.82038e-11 5e-05 1.46608e-10 
89 1 0.21253 0.0175711 0.00714932 0.00551928 1.09622e-05 -0.000185443 -5.73853e-11 6.46847e-11 -5.13524e-11 5e-05 1.46608e-10 
90 1 0.212752 0.018159 0.00696223 0.00561198 8.14971e-05 -0.000208351 -2.57874e-10 5.56845e-11 -2.45836e-11 5e-05 1.46608e-10 
91 1 0.206527 0.0167341 0.007638 0.0059851 -0.000322144 0.000469185 -2.90848e-11 3.01318e-11 2.65072e-12 5e-05 1.46608e-10 
92 1 0.212508 0.0178549 0.00706321 0.00550181 3.25372e-05 -0.000187707 -1.37299e-10 -1.02757e-11 1.16554e-11 5e-05 1.46608e-10 
93 1 0.212207 0.0165268 0.00773079 0.00613279 0.000317506 0.000440839 -1.7602e-10 -2.75556e-10 3.25799e-10 5e-05 1.46608e-10 
94 1 0.212543 0.0179215 0.00712892 0.00565332 -4.86852e-06 -0.000196452 2.4161e-10 7.34764e-11 5.628e-11 5e-05 1.46608e-10 
95 1 0.212441 0.0175384 0.00718122 0.00552195 1.13217e-06 -0.000184745 -5.19058e-11 5.5779e-11 -1.25183e-10 5e-05 1.46608e-10 
96 1 0.212533 0.0177621 0.00709076 0.00550673 2.71146e-05 -0.000189156 -8.58777e-11 8.61956e-12 8.86389e-12 5e-05 1.46608e-10 
97 1 0.20587 0.0153534 0.00872561 0.00550147 -0.000572072 0.000768518 -1.00549e-10 -1.61039e-11 -1.19162e-10 5e-05 1.46608e-10 
98 1 0.212186 0.0164521 0.00779364 0.00611255 0.00033221 0.000440349 -2.2939e-10 -2.58893e-10 2.36068e-10 5e-05 1.46608e-10 
99 1 0.206596 0.0178698 0.00714447 0.00542671 -0.00100657 0.00141326 -1.84913e-10 -4.63259e-11 1.09494e-10 5e-05 1.46608e-10 
100 1 0.212703 0.0178655 0.0070536 0.00561236 -1.37201e-05 -0.000178617 -3.99389e-11 7.7143e-11 -2.41026e-11 5e-05 1.46608e-10 
101 1 0.206616 0.0179678 0.00714893 0.00552464 -0.00101518 0.00145966 8.21689e-10 -2.68972e-10 1.72454e-10 5e-05 1.46608e-10 
102 1 0.0643568 0.0187248 0.00531097 4.26564e-15 1.04872e-14 8.29613e-14 6.47191e-22 -2.86385e-22 4.96308e-24 5e-05 1.46608e-10 
103 1 0.24257 0.0191927 0.00520306 -2.33433e-22 2.24983e-22 1.23839e-22 0 0 0 5e-05 1.46608e-10 
104 1 0.206782 0.0179336 0.00719189 0.00536792 -0.00125067 0.000203437 6.08713e-10 9.54755e-11 -6.33956e-10 5e-05 1.46608e-10 
105 1 0.20583 0.0152366 0.00888297 0.0054554 -0.000485675 0.00089489 2.11055e-10 -2.63381e-11 3.94339e-11 5e-05 1.46608e-10 
106 1 0.206522 0.0174776 0.00713029 0.00545102 -0.000961962 0.000360568 -1.35159e-10 -3.82022e-11 -2.18861e-11 5e-05 1.46608e-10 
107 1 0.205795 0.0151877 0.00907358 0.00537604 -0.000502936 0.00092314 -3.02779e-10 -1.08031e-10 7.92883e-11 5e-05 1.46608e-10 
108 1 0.212837 0.0181085 0.0069749 0.00565158 -4.61693e-05 -0.000159493 -2.83663e-11 -7.75251e-11 4.18406e-11 5e-05 1.46608e-10 
109 1 0.212772 0.0174885 0.00716673 0.00552523 1.28547e-05 -0.000183578 -7.37981e-11 -6.84441e-11 2.13423e-11 5e-05 1.46608e-10 
110 1 0.212343 0.017069 0.00731592 0.00566121 2.22676e-05 -0.000142758 -1.44192e-10 8.33056e-12 -1.82756e-10 5e-05 1.46608e-10 
111 1 0.212305 0.0169088 0.0074261 0.00584126 0.000166541 0.000148469 3.1782e-11 -2.63675e-10 -1.51682e-10 5e-05 1.46608e-10 
112 1 0.205913 0.0155028 0.00860025 0.00569641 -0.000663056 0.000692966 1.88896e-10 7.14237e-11 -6.19474e-11 5e-05 1.46608e-10 
113 1 0.206405 0.017346 0.00715075 0.00532638 -0.00137471 0.000455152 2.04917e-12 5.87819e-12 -3.60292e-12 5e-05 1.46608e-10 
114 1 0.206481 0.0177306 0.0071153 0.00525796 -0.00088954 0.00174753 -6.82292e-10 -1.5084e-09 4.36196e-10 5e-05 1.46608e-10 
115 1 0.212627 0.017155 0.00727351 0.00565877 -2.97915e-05 -0.000175151 5.17564e-11 -3.97733e-12 -8.09095e-13 5e-05 1.46608e-10 
116 1 0.212664 0.0181138 0.00697892 0.00564746 1.48372e-05 -0.000188637 -1.0298e-10 -1.12469e-10 4.42587e-11 5e-05 1.46608e-10 
117 1 0.212706 0.0176606 0.00711621 0.00552276 1.29417e-05 -0.000183962 9.46888e-11 1.21369e-11 2.06835e-13 5e-05 1.46608e-10 
118 1 0.20664 0.0171955 0.00726646 0.00548781 -0.000827832 0.000391049 1.09603e-10 -9.13352e-11 1.31636e-10 5e-05 1.46608e-10 
119 1 0.212857 0.018202 0.00694578 0.00573308 -1.99908e-05 1.43717e-05 2.16155e-10 -9.64616e-11 7.28659e-11 5e-05 1.46608e-10 
120 1 0.212344 0.0167001 0.00758371 0.00588057 0.000320842 0.000424799 -1.98804e-11 2.61583e-10 -2.58132e-10 5e-05 1.46608e-10 
121 1 0.21273 0.0185056 0.00689482 0.0056566 -0.00015645 0.000399492 8.97446e-11 -5.86122e-11 -2.89475e-11 5e-05 1.46608e-10 
122 1 0.212536 0.0176665 0.00711995 0.00550858 1.84189e-05 -0.000188132 -1.30007e-11 2.70092e-11 -2.82501e-11 5e-05 1.46608e-10 
123 1 0.206878 0.017965 0.00718472 0.00527975 -0.000775128 -0.000843635 1.79836e-10 -3.22292e-11 2.4843e-11 5e-05 1.46608e-10 
124 1 0.212229 0.0166006 0.00766694 0.00603043 0.000320269 0.000425614 -3.27091e-10 -1.90045e-10 3.23742e-10 5e-05 1.46608e-10 
125 1 0.212619 0.0176137 0.00713339 0.00551694 1.88997e-05 -0.000185613 4.0412e-12 2.91604e-11 -2.47244e-12 5e-05 1.46608e-10 
127 1 0.20585 0.0152935 0.00880313 0.00546037 -0.00049102 0.000853734 5.61606e-11 -1.3112e-10 -6.9934e-11 5e-05 1.46608e-10 
128 1 0.212164 0.0163791 0.0078585 0.00608425 0.000341599 0.000427625 1.04793e-10 -2.3404e-10 1.9795e-10 5e-05 1.46608e-10 
129 1 0.21248 0.0177343 0.00717061 0.00551093 -3.12272e-06 -0.000202907 -5.63715e-11 -1.98711e-10 -3.43485e-11 5e-05 1.46608e-10 
130 1 0.206558 0.0176736 0.00714255 0.00515252 -0.000954931 0.00168166 1.41735e-10 -5.26743e-11 1.58203e-10 5e-05 1.46608e-10 
131 1 0.206577 0.0177718 0.00714079 0.00534848 -0.000996684 0.00146035 -1.03197e-09 -6.57558e-11 -1.29185e-11 5e-05 1.46608e-10 
132 1 0.212532 0.0171255 0.00728561 0.00569335 -3.57678e-05 -0.000169107 8.4029e-13 -3.68059e-11 -7.13944e-11 5e-05 1.46608e-10 
133 1 0.212665 0.0182099 0.00694948 0.00563463 4.31809e-06 -0.000184437 9.64774e-12 8.84796e-11 -9.34244e-12 5e-05 1.46608e-10 
134 1 0.212644 0.0180199 0.00700829 0.00563586 -1.86019e-05 -0.000177273 5.40655e-11 -1.48001e-11 -9.8735e-12 5e-05 1.46608e-10 
135 1 0.212813 0.0178995 0.00703963 0.00559101 -1.70815e-06 -0.00018172 -1.06106e-10 1.50398e-12 9.25141e-12 5e-05 1.46608e-10 
136 1 0.206503 0.01701 0.00741685 0.00561093 -0.000603274 0.000687808 -2.6663e-10 -8.2589e-11 -2.57054e-10 5e-05 1.46608e-10 
137 1 0.212461 0.0176365 0.00717915 0.00548059 6.89448e-06 -0.000228754 -1.86886e-10 -3.86347e-11 -2.65995e-10 5e-05 1.46608e-10 
138 1 0.212547 0.0180421 0.00700466 0.00564476 1.65227e-05 -0.000188111 -5.07093e-12 -9.50937e-11 3.83714e-11 5e-05 1.46608e-10 
140 1 0.212402 0.0173474 0.00722193 0.00568089 -2.13949e-05 -0.00017841 7.7584e-11 2.4173e-10 -9.37596e-11 5e-05 1.46608e-10 
141 1 0.206342 0.016395 0.00790225 0.00587456 -0.000709916 0.000775689 -4.08341e-10 -2.19851e-10 1.63898e-10 5e-05 1.46608e-10 
142 1 0.206709 0.0175437 0.00714188 0.00520957 -0.000802796 -0.000635462 -1.62765e-10 -2.92181e-10 -1.51495e-10 5e-05 1.46608e-10 
143 1 0.205813 0.0152135 0.00897875 0.00543276 -0.000510154 0.000907788 6.33722e-11 -8.4676e-11 9.77338e-11 5e-05 1.46608e-10 
144 1 0.206673 0.0173483 0.00714163 0.00548133 -0.000856698 0.000399537 -3.14525e-10 -2.21958e-10 1.34304e-10 5e-05 1.46608e-10 
146 1 0.205953 0.0156583 0.00848087 0.00587552 -0.000667645 0.000757503 1.83279e-11 -3.31993e-11 6.09135e-11 5e-05 1.46608e-10 
147 1 0.206614 0.0175097 0.00714905 0.0056662 -0.00110743 -0.000624973 1.37231e-10 4.00863e-11 -1.30138e-09 5e-05 1.46608e-10 
148 1 0.206363 0.0164716 0.00784181 0.00586254 -0.00070417 0.000770747 1.36383e-10 -1.0851e-10 8.99182e-11 5e-05 1.46608e-10 
149 1 0.212265 0.0167446 0.00753297 0.0057709 0.00033113 0.000387269 5.41838e-10 -4.07402e-10 2.84308e-10 5e-05 1.46608e-10 
150 1 0.206847 0.0182262 0.00720777 0.00544854 -0.00127335 0.00145181 -5.23034e-10 -3.39618e-10 1.24061e-10 5e-05 1.46608e-10 
151 1 0.20668 0.0182605 0.00716361 0.00562505 -0.000953654 0.00148909 8.68643e-12 1.25559e-10 -7.44077e-13 5e-05 1.46608e-10 
153 1 0.206385 0.0165483 0.00778137 0.00585848 -0.00069972 0.0007677 -1.1959e-10 1.37162e-10 -1.19616e-10 5e-05 1.46608e-10 
154 1 0.205932 0.0155796 0.00853882 0.00578996 -0.000656809 0.000730496 1.28276e-10 2.14054e-11 -1.46098e-12 5e-05 1.46608e-10 
155 1 0.206039 0.0159578 0.0082406 0.00581157 -0.000699286 0.000764994 1.47531e-10 -4.61165e-11 1.72271e-11 5e-05 1.46608e-10 
156 1 0.20632 0.0163183 0.0079627 0.00594968 -0.000632492 0.000716612 3.44392e-10 9.13234e-11 -6.15752e-11 5e-05 1.46608e-10 
157 1 0.0219312 0.0187687 0.00551176 -3.82683e-14 8.16978e-14 2.95887e-13 -1.34288e-22 -2.91529e-22 6.43133e-23 5e-05 1.46608e-10 
158 1 0.206426 0.0167019 0.00766013 0.00576335 -0.000661632 0.000734178 -1.34114e-12 1.8451e-10 -1.24258e-10 5e-05 1.46608e-10 
159 1 0.212552 0.0172194 0.00725624 0.00566559 -4.27674e-05 -0.000170931 7.44337e-12 -1.55276e-10 4.63874e-11 5e-05 1.46608e-10 
160 1 0.206582 0.0182247 0.00714411 0.0056829 -0.00069598 -0.00078837 0 0 -1.43822e-09 5e-05 1.46608e-10 
162 1 0.20652 0.0179312 0.00712393 0.00525125 -0.00110844 0.00138887 5.57793e-12 1.40677e-10 -1.84271e-11 5e-05 1.46608e-10 
164 1 0.206103 0.0161879 0.00805918 0.00584467 -0.000743311 0.000801939 -5.7087e-11 -1.29315e-10 8.29978e-11 5e-05 1.46608e-10 
165 1 0.206753 0.0181951 0.00718329 0.00552333 -0.00111586 0.00146203 1.42067e-10 2.75207e-10 1.05903e-10 5e-05 1.46608e-10 
166 1 0.212567 0.0181357 0.00697539 0.00565386 1.74804e-05 -0.000190757 -3.46987e-11 -1.32263e-10 7.09335e-11 5e-05 1.46608e-10 
167 1 0.206868 0.0183238 0.00721275 0.0053436 -0.00127308 0.00141438 4.94512e-10 2.56547e-10 5.47365e-11 5e-05 1.46608e-10 
168 1 0.20692 0.0181589 0.00720962 0.00593733 -0.000857907 -0.000819299 1.74635e-10 5.45152e-10 -6.53904e-10 5e-05 1.46608e-10 
169 1 0.206774 0.0182926 0.0071883 0.00554964 -0.0011183 0.00145691 7.19802e-12 2.62212e-10 1.65724e-11 5e-05 1.46608e-10 
170 1 0.206796 0.0183901 0.00719328 0.0055216 -0.00108503 0.00145882 -2.05775e-10 -1.754e-10 4.42286e-11 5e-05 1.46608e-10 
171 1 0.212791 0.0183473 0.00690332 0.00552281 -0.000259868 -9.70218e-05 -2.30813e-10 3.91133e-11 4.544e-11 5e-05 1.46608e-10 
172 1 0.206386 0.0172649 0.00720913 0.00554086 -0.000788177 0.000838788 -1.43478e-10 4.39494e-10 -5.80099e-10 5e-05 1.46608e-10 
173 1 0.212608 0.0180985 0.00706029 0.00564105 2.63065e-05 -0.00019121 -8.32817e-11 4.57549e-11 1.47365e-11 5e-05 1.46608e-10 
174 1 0.206147 0.0163412 0.00793831 0.00581953 -0.000770036 0.000821559 -3.84327e-11 -7.24283e-11 6.56605e-11 5e-05 1.46608e-10 
176 1 0.206444 0.017136 0.00731418 0.00550607 -0.000656595 0.000709673 2.2815e-10 8.57847e-11 1.8256e-10 5e-05 1.46608e-10 
177 1 0.206017 0.0158831 0.00830322 0.00575346 -0.000675732 0.000751172 6.91774e-11 -7.12445e-11 8.36621e-12 5e-05 1.46608e-10 
178 1 0.206444 0.017538 0.00711382 0.0054303 -0.000970975 0.000370352 1.51239e-10 1.12802e-09 5.17185e-10 5e-05 1.46608e-10 
179 1 0.206604 0.0183224 0.00714321 0.00566221 -0.000855445 0.00149755 -4.58984e-11 -7.4766e-11 2.73539e-11 5e-05 1.46608e-10 
182 1 0.21281 0.0184449 0.00689062 0.00573661 -4.16755e-05 0.000424549 2.14745e-10 -1.1292e-11 -1.82728e-11 5e-05 1.46608e-10 
183 1 0.20654 0.0175759 0.00713174 0.00515531 -0.000926226 0.00136554 5.88996e-10 -4.06779e-10 2.56367e-10 5e-05 1.46608e-10 
184 1 0.212543 0.0180201 0.00710211 0.0056333 1.97357e-05 -0.00019171 -1.04856e-10 -8.69034e-11 1.40788e-12 5e-05 1.46608e-10 
185 1 0.20669 0.0174463 0.00713041 0.00542119 -0.000905 9.94111e-07 -1.60958e-10 -3.34967e-10 4.42584e-11 5e-05 1.46608e-10 
186 1 0.206952 0.017901 0.00716426 0.00510638 -0.000735396 -0.000830179 -2.59031e-10 -4.59987e-11 3.4991e-11 5e-05 1.46608e-10 
187 1 0.212692 0.018311 0.00691807 0.00548652 -0.000387261 -0.00153324 1.13894e-11 1.65684e-10 -3.45723e-10 5e-05 1.46608e-10 
188 1 0.212608 0.0175098 0.00716557 0.00552571 8.66289e-06 -0.000183398 -1.50198e-11 5.60944e-11 -1.29818e-11 5e-05 1.46608e-10 
189 1 0.212655 0.0185716 0.00690026 0.00556056 -0.000270187 0.000371389 2.70056e-12 -8.16921e-11 -7.51921e-11 5e-05 1.46608e-10 
190 1 0.200617 0.018376 0.00687966 0.00574801 0.000271467 -0.000117055 5.51881e-13 -2.53613e-13 6.50937e-13 5e-05 1.46608e-10 
191 1 0.212287 0.0168266 0.00748001 0.00579587 0.000261887 0.000275024 2.15636e-10 -3.96258e-10 -4.2173e-11 5e-05 1.46608e-10 
192 1 0.206424 0.0174393 0.0071206 0.00533393 -0.00141041 0.000349731 2.12266e-12 7.4023e-12 -5.9201e-13 5e-05 1.46608e-10 
193 1 0.212876 0.0182959 0.00691678 0.00582491 3.80123e-05 0.000298826 1.6846e-10 -1.1115e-10 -1.04479e-10 5e-05 1.46608e-10 
194 1 0.206599 0.0176619 0.00723311 0.00559997 -0.00117437 0.00150427 -4.48756e-10 -2.07079e-10 -6.67844e-10 5e-05 1.46608e-10 
195 1 0.20671 0.018 0.00717348 0.00512975 -0.00102362 0.0013459 -1.45741e-11 1.99812e-10 -1.4531e-10 5e-05 1.46608e-10 
196 1 0.20667 0.0178043 0.00716425 0.00507531 -0.00101657 0.00134555 -1.06579e-11 1.55082e-10 5.90618e-11 5e-05 1.46608e-10 
197 1 0.200309 0.0169544 0.00749837 0.00582232 0.000396878 0.000139579 -8.84569e-12 9.2479e-11 -1.22358e-10 5e-05 1.46608e-10 
198 1 0.206586 0.0169672 0.00745327 0.00564683 -0.000863784 0.000351055 -2.03903e-10 7.1422e-10 -2.51647e-10 5e-05 1.46608e-10 
199 1 0.206461 0.0176362 0.00714532 0.00505116 -0.00160302 0.00336084 5.87936e-10 1.0205e-09 -1.07311e-09 5e-05 1.46608e-10 
200 1 0.20589 0.0154261 0.00865992 0.00563045 -0.000634825 0.000713801 2.40177e-10 4.82441e-11 -7.38595e-11 5e-05 1.46608e-10 
201 1 0.206732 0.0180973 0.00717862 0.00534248 -0.0010846 0.00141633 -2.28719e-10 2.04541e-10 -1.85764e-10 5e-05 1.46608e-10 
202 1 0.206446 0.0167789 0.00759942 0.00568177 -0.000637364 0.000715659 8.43011e-11 7.82804e-11 -3.70959e-11 5e-05 1.46608e-10 
203 1 0.212625 0.0179251 0.00703794 0.00562578 -2.87271e-06 -0.000182416 4.57054e-12 6.64816e-11 -1.30633e-11 5e-05 1.46608e-10 
204 1 0.206745 0.0177379 0.00717223 0.00523754 -0.000850373 -0.000577828 2.88928e-10 -3.48302e-10 1.63861e-10 5e-05 1.46608e-10 
205 1 0.206287 0.0165204 0.00780016 0.00582609 -0.000732636 0.000792376 3.7077e-11 -8.05427e-11 6.25152e-11 5e-05 1.46608e-10 
206 1 0.206329 0.0166739 0.00767907 0.00576831 -0.000708724 0.000770054 -2.17671e-10 2.48504e-10 -1.85701e-10 5e-05 1.46608e-10 
207 1 0.206199 0.0162131 0.00804243 0.00584831 -0.000746498 0.000803999 -8.32972e-11 -2.16354e-10 1.73681e-10 5e-05 1.46608e-10 
208 1 0.206622 0.0171194 0.00732871 0.0054516 -0.000808828 0.000374011 -2.28802e-10 1.05722e-10 1.21307e-11 5e-05 1.46608e-10 
209 1 0.206539 0.0171643 0.00729491 0.00548502 -0.000602311 0.000661907 1.30985e-10 3.40566e-10 -2.96958e-10 5e-05 1.46608e-10 
210 1 0.212382 0.0168465 0.00745313 0.005732 0.000301139 0.00042576 -1.44382e-10 2.22557e-10 -2.16382e-10 5e-05 1.46608e-10 
211 1 0.212397 0.0169199 0.00738702 0.00581344 0.000295755 0.000443897 -1.10254e-10 1.96549e-10 -2.57384e-10 5e-05 1.46608e-10 
212 1 0.206804 0.018031 0.00719809 0.00526805 -0.00125097 0.00140685 -2.70046e-10 3.19922e-10 1.6501e-10 5e-05 1.46608e-10 
213 1 0.212636 0.0184708 0.00688197 0.00569002 0.000171881 0.000453591 -2.31295e-11 9.55249e-11 1.34957e-11 5e-05 1.46608e-10 
214 1 0.212477 0.0172834 0.00723908 0.00569497 -2.91121e-05 -0.000176803 -1.91562e-11 -5.38265e-14 -6.45138e-13 5e-05 1.46608e-10 
215 1 0.200519 0.0178933 0.00696515 0.00577706 0.000261019 -0.000121615 -3.50927e-11 -3.47666e-11 1.1392e-10 5e-05 1.46608e-10 
216 1 0.206177 0.0161364 0.00810287 0.00585295 -0.000743856 0.000802289 -2.154e-10 -1.90564e-10 1.49051e-10 5e-05 1.46608e-10 
217 1 0.212893 0.01839 0.00688768 0.00580605 7.54434e-05 0.000443386 1.93214e-10 -1.00739e-10 -2.60076e-11 5e-05 1.46608e-10 
218 1 0.206501 0.0178331 0.00711963 0.00527376 -0.00111538 0.00139397 -1.70255e-10 3.24262e-10 -2.18387e-11 5e-05 1.46608e-10 
219 1 0.212247 0.0166714 0.0075985 0.005836 0.000350053 0.000414365 1.65197e-10 -3.39871e-10 3.84342e-10 5e-05 1.46608e-10 
220 1 0.206539 0.0180293 0.00712823 0.00521316 -0.00110735 0.0013799 -1.75127e-11 -4.69567e-11 -6.3441e-12 5e-05 1.46608e-10 
222 1 0.212783 0.0175993 0.00713246 0.00552277 6.63756e-06 -0.000181648 9.93125e-11 -3.22213e-11 3.37354e-12 5e-05 1.46608e-10 
224 1 0.206369 0.0168283 0.00755853 0.00565657 -0.000654103 0.000726625 1.17398e-10 5.42113e-11 -3.07352e-11 5e-05 1.46608e-10 
225 1 0.212323 0.016981 0.00735931 0.00577242 6.59705e-05 1.62069e-05 -2.28036e-10 -1.45827e-10 -3.38492e-10 5e-05 1.46608e-10 
226 1 0.206443 0.0174382 0.00721881 0.00533349 -0.00141065 0.000349807 3.63074e-12 9.60353e-12 -6.97315e-13 5e-05 1.46608e-10 
227 1 0.200538 0.0179898 0.00694805 0.00577714 0.000268279 -0.000119214 -2.96329e-11 -7.70487e-11 -1.88139e-12 5e-05 1.46608e-10 
228 1 0.200482 0.0177209 0.00705961 0.00569174 0.000407428 0.000116522 7.56107e-11 -3.51931e-11 2.14294e-11 5e-05 1.46608e-10 
229 1 0.2069 0.0180619 0.00719709 0.00554506 -0.000804485 -0.000846913 9.28225e-11 1.89809e-10 -1.66332e-10 5e-05 1.46608e-10 
230 1 0.206275 0.0168014 0.00757532 0.00566355 -0.000725365 0.000781119 3.11338e-11 1.17808e-10 -1.08325e-10 5e-05 1.46608e-10 
232 1 0.20656 0.0181277 0.0071332 0.00560402 -0.00103471 0.00147978 4.74623e-10 -3.083e-11 1.98785e-10 5e-05 1.46608e-10 
233 1 0.206723 0.0184555 0.0071736 0.00562634 -0.00100157 0.0014865 -1.85996e-10 -1.25023e-12 -7.35567e-11 5e-05 1.46608e-10 
234 1 0.212516 0.017472 0.0071801 0.00553417 4.84622e-06 -0.000183319 4.98424e-11 2.14805e-10 -8.18097e-11 5e-05 1.46608e-10 
235 1 0.206234 0.0166477 0.00769658 0.00580964 -0.00076315 0.000815545 5.31928e-11 1.4899e-10 -1.28585e-10 5e-05 1.46608e-10 
236 1 0.206331 0.0170326 0.00739272 0.00556878 -0.000699497 0.000760945 -1.79931e-10 -1.17923e-10 7.90959e-11 5e-05 1.46608e-10 
237 1 0.20635 0.0171097 0.00733178 0.00552092 -0.000695121 0.000757868 -2.03308e-11 -3.32362e-10 1.76186e-10 5e-05 1.46608e-10 
239 1 0.200207 0.0165346 0.00775016 0.00612828 0.000288302 7.13313e-05 -4.84854e-11 5.34446e-12 -3.42787e-13 5e-05 1.46608e-10 
240 1 0.200268 0.0167861 0.00759841 0.00577317 0.000339032 2.98632e-05 -1.1517e-10 1.08499e-10 6.47073e-11 5e-05 1.46608e-10 
241 1 0.200186 0.0164509 0.00780059 0.00614748 0.000280806 7.68073e-05 3.60468e-12 2.5492e-11 -1.84868e-11 5e-05 1.46608e-10 
242 1 0.205998 0.0157268 0.00842361 0.0058458 -0.000665665 0.000742584 -9.59906e-11 -7.11779e-11 8.03899e-11 5e-05 1.46608e-10 
243 1 0.206651 0.0177061 0.00716011 0.00524021 -0.00106002 0.0013642 -4.92656e-10 2.03811e-10 -2.15261e-10 5e-05 1.46608e-10 
244 1 0.200228 0.0166184 0.0076996 0.0057249 0.000349846 1.70354e-05 1.52916e-10 -9.52045e-11 7.68853e-11 5e-05 1.46608e-10 
246 1 0.200406 0.0173802 0.00725469 0.00548486 0.000435014 8.75947e-05 -1.23165e-10 7.54381e-11 -1.64255e-11 5e-05 1.46608e-10 
247 1 0.206169 0.0164178 0.0078779 0.00577534 -0.000770338 0.000820323 2.77633e-10 7.88883e-12 2.91706e-12 5e-05 1.46608e-10 
248 1 0.206481 0.0172951 0.00719884 0.00541108 -0.000963999 0.000239123 -2.21842e-10 6.67856e-10 5.60866e-10 5e-05 1.46608e-10 
249 1 0.200348 0.0171246 0.007401 0.00564181 0.000410857 0.00011309 -1.63969e-10 -1.09331e-10 7.08578e-11 5e-05 1.46608e-10 
250 1 0.206243 0.0163669 0.00792117 0.00585336 -0.000712547 0.000777232 1.34933e-10 -5.71641e-11 4.76179e-11 5e-05 1.46608e-10 
251 1 0.212605 0.0178314 0.00706724 0.00550806 6.74106e-05 -0.000202019 -1.14359e-10 4.45885e-11 -4.03801e-12 5e-05 1.46608e-10 
252 1 0.200425 0.0174654 0.00720587 0.00555991 0.0004301 9.48902e-05 -1.12668e-10 1.94461e-11 -3.74419e-11 5e-05 1.46608e-10 
253 1 0.200597 0.0182795 0.00689675 0.00575512 0.000272132 -0.000117216 5.67968e-12 3.126e-11 -5.27715e-12 5e-05 1.46608e-10 
254 1 0.200368 0.0172098 0.00735227 0.00565974 0.000397837 0.000121477 1.94715e-10 7.99763e-11 4.75084e-11 5e-05 1.46608e-10 
255 1 0.205755 0.0151391 0.00926357 0.0052924 -0.000509292 0.000947292 -2.59921e-11 -1.17301e-10 3.6828e-10 5e-05 1.46608e-10 
256 1 0.206839 0.0177705 0.00715936 0.00519466 -0.000809282 -0.000856675 -1.65766e-10 3.83905e-11 3.72551e-10 5e-05 1.46608e-10 
257 1 0.206406 0.0166251 0.00772079 0.00581979 -0.000682417 0.000750704 -2.91844e-11 2.8466e-10 -2.42168e-10 5e-05 1.46608e-10 
258 1 0.206462 0.0172139 0.00725422 0.0054529 -0.000760922 0.000568734 1.0737e-11 1.02055e-09 1.35149e-09 5e-05 1.46608e-10 
259 1 0.200443 0.0175506 0.00715705 0.00562791 0.000419229 0.0001045 -6.09024e-11 -1.19485e-12 3.79163e-12 5e-05 1.46608e-10 