ITEM: TIMESTEP
47200000
ITEM: NUMBER OF ATOMS
275
ITEM: BOX BOUNDS ff ff ff
-0.02 0.43
-0.02 0.06
-0.02 0.07
ITEM: ATOMS id type x y z vx vy vz fx fy fz radius mass 
1 1 0.288498 0.0183146 0.00699348 0.005534 0.000107051 -9.6843e-05 -2.49939e-11 -1.31879e-11 -3.41733e-12 5e-05 1.46608e-10 
2 1 0.288171 0.0171876 0.00732381 0.0056503 9.9035e-05 1.15739e-05 2.20251e-11 -2.45028e-11 6.77515e-12 5e-05 1.46608e-10 
4 1 0.288321 0.0170685 0.00738058 0.00556161 1.58992e-05 5.41603e-05 1.15259e-10 1.76381e-11 -7.82097e-12 5e-05 1.46608e-10 
5 1 0.287769 0.0157238 0.00843483 0.00568245 -0.000415985 -0.000631929 1.3072e-11 -2.30865e-11 4.79996e-11 5e-05 1.46608e-10 
6 1 0.294083 0.0169274 0.00768774 0.0059814 8.37649e-05 -0.000317219 3.08715e-11 7.83755e-11 -6.22195e-11 5e-05 1.46608e-10 
7 1 0.288456 0.0176763 0.00705786 0.00575959 0.000144095 -1.44153e-05 -9.1961e-11 1.39507e-10 -9.84556e-11 5e-05 1.46608e-10 
8 1 0.288161 0.0167801 0.00753261 0.00620619 1.09804e-05 6.41627e-05 -1.78768e-11 2.6609e-11 -1.51631e-11 5e-05 1.46608e-10 
9 1 0.294286 0.0176815 0.00706914 0.00574447 0.000198248 -0.00016163 8.08581e-12 -8.72611e-12 -6.40064e-11 5e-05 1.46608e-10 
10 1 0.288257 0.0168074 0.00751913 0.00620451 1.43045e-05 6.22827e-05 -3.73616e-11 2.47346e-11 -1.52042e-11 5e-05 1.46608e-10 
11 1 0.2884 0.0179766 0.00706379 0.00558415 7.2093e-05 -3.92492e-05 3.39744e-11 -5.01588e-11 -1.54222e-10 5e-05 1.46608e-10 
12 1 0.282479 0.0173729 0.00720887 0.00557237 -0.000113216 -8.62233e-05 2.79679e-11 -4.0566e-11 1.57355e-11 5e-05 1.46608e-10 
13 1 0.28775 0.015653 0.00850257 0.00558314 -0.000370044 -0.000609235 -4.24395e-11 4.01193e-11 1.58593e-10 5e-05 1.46608e-10 
14 1 0.282412 0.0177557 0.00715707 0.00555431 -8.3373e-05 -9.09783e-05 1.03561e-11 7.96956e-11 1.30991e-11 5e-05 1.46608e-10 
16 1 0.282653 0.0182033 0.00690229 0.00564461 -9.48241e-06 0.000250931 4.1649e-11 2.24412e-11 -1.17204e-11 5e-05 1.46608e-10 
17 1 0.288117 0.0166072 0.00762437 0.00621988 1.29756e-05 6.33044e-05 -2.61228e-11 -2.86047e-11 1.60459e-11 5e-05 1.46608e-10 
19 1 0.28773 0.0155839 0.00857216 0.00557209 0.000712047 0.000469427 8.97678e-11 1.32985e-11 1.88943e-10 5e-05 1.46608e-10 
21 1 0.288495 0.0178571 0.0069836 0.00573931 9.0825e-05 -0.000113224 -3.91771e-11 -1.15051e-10 -9.81396e-11 5e-05 1.46608e-10 
22 1 0.288279 0.0168937 0.00747333 0.00617618 -6.56756e-06 7.31311e-05 -1.36532e-11 4.43854e-11 -2.30428e-11 5e-05 1.46608e-10 
23 1 0.282615 0.0180161 0.00696623 0.00566672 -0.000129905 -8.16779e-05 -3.29674e-11 -5.06777e-11 -2.53628e-12 5e-05 1.46608e-10 
24 1 0.29421 0.0173663 0.00729918 0.00603033 6.8353e-05 -0.000305281 -1.21772e-10 3.65981e-11 -4.55007e-11 5e-05 1.46608e-10 
25 1 0.287873 0.0160772 0.00809681 0.00600394 -0.000502376 -0.000614623 7.10876e-11 -4.13596e-11 1.01081e-11 5e-05 1.46608e-10 
26 1 0.294244 0.0175141 0.00716873 0.00584731 9.63627e-05 -0.000324747 -1.64504e-10 4.18072e-11 -3.26477e-12 5e-05 1.46608e-10 
27 1 0.282168 0.0167685 0.00745123 0.00561952 3.36574e-05 0.000374953 1.49931e-10 2.42093e-10 -7.95544e-11 5e-05 1.46608e-10 
28 1 0.288246 0.0171263 0.00734889 0.00562866 7.70417e-05 2.23247e-05 4.0929e-11 -7.92823e-12 3.49726e-12 5e-05 1.46608e-10 
29 1 0.287711 0.0155462 0.00866288 0.00553869 0.000709783 0.000459301 -5.2162e-13 -4.53386e-11 1.99389e-10 5e-05 1.46608e-10 
30 1 0.287958 0.0163582 0.00782772 0.00611998 -0.000531122 -0.000609719 -4.67217e-11 -3.56257e-11 3.86615e-11 5e-05 1.46608e-10 
31 1 0.288532 0.017619 0.00708931 0.0058038 0.00020242 -4.12646e-05 -4.35738e-11 -8.42242e-12 9.77245e-12 5e-05 1.46608e-10 
32 1 0.287897 0.0161472 0.00802934 0.00603151 -0.000510445 -0.000613227 -1.87803e-11 -2.38356e-11 2.0694e-11 5e-05 1.46608e-10 
33 1 0.294104 0.0170006 0.00762298 0.00600629 7.72781e-05 -0.00031371 7.45527e-11 5.11642e-11 -2.66903e-11 5e-05 1.46608e-10 
34 1 0.287854 0.0160061 0.00816449 0.00598101 -0.00049605 -0.000616372 4.99626e-11 -4.81737e-11 3.58643e-11 5e-05 1.46608e-10 
35 1 0.288419 0.0175021 0.00715036 0.00589099 0.000132242 -4.11418e-06 -1.15037e-11 1.58637e-12 5.38536e-12 5e-05 1.46608e-10 
36 1 0.29434 0.0179693 0.00705116 0.00568502 0.000342182 0.000192278 -9.92384e-12 -3.29502e-11 -9.81153e-12 5e-05 1.46608e-10 
37 1 0.288301 0.0169817 0.00742666 0.00555647 2.98136e-05 4.67097e-05 1.41973e-10 8.28688e-11 -4.21199e-11 5e-05 1.46608e-10 
38 1 0.28838 0.0173283 0.00724264 0.00574878 -2.57395e-05 7.84872e-05 9.02437e-11 5.87798e-11 -3.16973e-11 5e-05 1.46608e-10 
39 1 0.294228 0.0174402 0.007234 0.00588551 9.27933e-05 -0.000317462 1.30074e-11 1.06292e-11 1.67309e-11 5e-05 1.46608e-10 
41 1 0.28781 0.0158655 0.00829956 0.00591423 -0.000476771 -0.000621512 -3.71742e-11 -1.68031e-11 2.77662e-11 5e-05 1.46608e-10 
42 1 0.288416 0.0170973 0.00736627 0.00557797 -5.24336e-05 9.07578e-05 1.90425e-10 9.6836e-11 -4.9084e-11 5e-05 1.46608e-10 
44 1 0.288475 0.017358 0.0072279 0.00584734 3.92267e-05 4.49535e-05 3.61384e-11 -2.90102e-11 1.7029e-11 5e-05 1.46608e-10 
45 1 0.294125 0.0170737 0.00755821 0.00602624 7.2796e-05 -0.000312214 1.00217e-10 -4.54549e-11 2.3805e-11 5e-05 1.46608e-10 
47 1 0.287831 0.015936 0.00823197 0.00594867 -0.000486542 -0.000619574 -9.60543e-11 -7.21578e-12 3.06844e-11 5e-05 1.46608e-10 
48 1 0.288364 0.0180855 0.00698543 0.00560422 7.75925e-05 -9.37537e-05 3.59131e-11 -6.3262e-11 -5.82607e-11 5e-05 1.46608e-10 
49 1 0.2943 0.017774 0.00703425 0.00571563 0.000335694 0.000192063 -2.50445e-11 -1.39836e-11 -1.35165e-11 5e-05 1.46608e-10 
50 1 0.28793 0.0162141 0.00796289 0.00606638 -0.000521844 -0.000608174 1.65343e-11 -3.72389e-11 3.38543e-11 5e-05 1.46608e-10 
51 1 0.288551 0.017706 0.00704309 0.0057573 0.000150803 -1.58977e-05 -1.08272e-10 6.94043e-11 -4.89157e-11 5e-05 1.46608e-10 
52 1 0.282538 0.0176486 0.00710487 0.00551833 -0.000134887 -7.61372e-05 -8.5511e-11 3.95388e-12 -6.83643e-13 5e-05 1.46608e-10 
53 1 0.294168 0.01722 0.00742868 0.00609159 6.27589e-05 -0.000303617 1.11093e-10 5.48938e-11 -8.97224e-11 5e-05 1.46608e-10 
54 1 0.288724 0.0181175 0.00698031 0.00563784 0.000202499 -9.38223e-05 1.07032e-10 -3.20764e-11 -3.51539e-12 5e-05 1.46608e-10 
55 1 0.282364 0.0172521 0.00725651 0.00552148 -0.000121357 -8.14242e-05 2.1986e-10 3.09969e-11 7.3022e-12 5e-05 1.46608e-10 
56 1 0.288705 0.0180194 0.00697617 0.00569527 0.000197482 -9.50502e-05 8.83096e-11 5.33118e-11 -2.15961e-12 5e-05 1.46608e-10 
57 1 0.294146 0.0171469 0.00749344 0.0060558 7.09245e-05 -0.000310771 -1.38518e-10 1.98731e-11 -5.73055e-11 5e-05 1.46608e-10 
59 1 0.378022 0.019866 0.005332 -5.02e-15 -7.41188e-15 7.69802e-14 2.08088e-24 3.59307e-24 4.1359e-25 5e-05 1.46608e-10 
60 1 0.288494 0.0174448 0.0071818 0.00594737 0.000198199 -3.86447e-05 -2.29468e-11 1.5507e-11 -5.79896e-12 5e-05 1.46608e-10 
61 1 0.28779 0.0157947 0.00836719 0.00581199 -0.000449696 -0.000627551 3.03976e-11 -3.82079e-11 1.22655e-11 5e-05 1.46608e-10 
62 1 0.2884 0.0174153 0.00719645 0.00586624 5.78112e-05 3.53811e-05 6.99979e-11 1.49091e-11 -7.59868e-12 5e-05 1.46608e-10 
63 1 0.288383 0.0181835 0.00698957 0.00555431 8.48745e-05 -9.53673e-05 3.53434e-11 -7.36855e-11 -6.11301e-12 5e-05 1.46608e-10 
64 1 0.294189 0.0172932 0.00736391 0.00610748 5.41294e-05 -0.000297376 1.17094e-11 6.77574e-11 -7.48904e-11 5e-05 1.46608e-10 
65 1 0.282289 0.0173146 0.00723496 0.00559013 -0.000139711 -7.68607e-05 -2.60837e-11 9.85494e-11 -7.71139e-11 5e-05 1.46608e-10 
66 1 0.282371 0.0179964 0.00706631 0.00563899 -0.00014121 -8.21598e-05 -4.35802e-11 -7.81024e-11 1.8558e-11 5e-05 1.46608e-10 
67 1 0.288515 0.0179548 0.00697674 0.00573489 9.2247e-05 -0.000105274 4.12416e-11 -1.11207e-10 -2.01195e-11 5e-05 1.46608e-10 
68 1 0.288305 0.0173862 0.00721094 0.00579586 2.05739e-05 5.44174e-05 -4.03841e-12 1.31032e-11 -6.04999e-12 5e-05 1.46608e-10 
69 1 0.28859 0.0178882 0.00697225 0.00573085 9.11038e-05 -0.000101737 1.38483e-10 2.60682e-11 6.98663e-11 5e-05 1.46608e-10 
70 1 0.294262 0.0175937 0.00711095 0.00587958 7.78309e-05 -0.000340978 -5.26055e-12 3.95542e-12 -3.98991e-11 5e-05 1.46608e-10 
71 1 0.282692 0.0183994 0.00691245 0.00564597 -5.76248e-05 0.000251323 -1.94541e-10 -7.27649e-11 -7.19394e-12 5e-05 1.46608e-10 
72 1 0.288554 0.0181509 0.00698495 0.00558324 0.000127228 -9.60863e-05 1.25963e-11 -9.30006e-11 2.30573e-12 5e-05 1.46608e-10 
73 1 0.288396 0.0170107 0.00741226 0.00547584 -7.02812e-05 9.92678e-05 1.12365e-10 -1.12977e-11 7.41908e-12 5e-05 1.46608e-10 
74 1 0.287937 0.0162878 0.00789557 0.00609883 -0.000524358 -0.000608718 1.70616e-11 -3.98324e-11 4.02632e-11 5e-05 1.46608e-10 
76 1 0.282303 0.0169773 0.00736025 0.00563997 -0.000161394 -6.88476e-05 1.02193e-10 2.67232e-12 1.69323e-10 5e-05 1.46608e-10 
77 1 0.28819 0.0172705 0.00727135 0.00572589 8.3164e-05 2.01905e-05 7.74613e-11 -2.60786e-11 1.33442e-11 5e-05 1.46608e-10 
78 1 0.281717 0.0155978 0.00866675 0.00565887 -0.0001388 0.000295219 -1.61943e-10 4.15014e-11 -9.67994e-11 5e-05 1.46608e-10 
79 1 0.282617 0.0184653 0.00691192 0.00564202 -5.89284e-05 0.000250028 -1.27789e-10 8.38211e-11 -4.47087e-11 5e-05 1.46608e-10 
80 1 0.288265 0.0172148 0.00730625 0.00567264 4.23728e-05 4.16155e-05 5.90035e-11 -3.13476e-11 1.77438e-11 5e-05 1.46608e-10 
82 1 0.282474 0.0179649 0.00707971 0.00567904 -0.000118967 -7.86145e-05 4.64518e-12 5.4923e-12 -5.18417e-11 5e-05 1.46608e-10 
83 1 0.282499 0.017465 0.00717412 0.00557901 -8.69702e-05 -9.59957e-05 4.92701e-11 6.17235e-11 -2.63811e-11 5e-05 1.46608e-10 
84 1 0.29432 0.0178717 0.0070427 0.00570184 0.000339298 0.000191495 -1.27639e-11 -2.065e-11 -3.11198e-11 5e-05 1.46608e-10 
85 1 0.282485 0.0186948 0.0069159 0.00560525 -8.4272e-05 0.000246589 5.61198e-12 1.03217e-10 -4.49399e-11 5e-05 1.46608e-10 
86 1 0.288455 0.0172706 0.00727427 0.00569133 -8.27964e-05 0.000108292 1.3946e-10 8.31275e-11 -4.29205e-11 5e-05 1.46608e-10 
87 1 0.288226 0.0170397 0.00739485 0.00560354 7.96943e-05 2.06695e-05 1.9833e-11 -2.55803e-11 1.25094e-11 5e-05 1.46608e-10 
88 1 0.288362 0.0176463 0.0070728 0.00578094 8.5365e-05 1.81465e-05 -7.78657e-12 -3.49577e-11 9.58739e-12 5e-05 1.46608e-10 
89 1 0.28848 0.0179168 0.00706237 0.00561206 0.000115792 -0.000145138 -3.71691e-11 -9.63022e-11 -9.90385e-11 5e-05 1.46608e-10 
90 1 0.288535 0.0180528 0.00698081 0.00567699 0.000105369 -9.98139e-05 1.83256e-11 -9.81252e-11 -3.2128e-11 5e-05 1.46608e-10 
91 1 0.282459 0.0172809 0.00724359 0.0055274 -0.000161176 -6.7325e-05 1.97656e-10 -4.03606e-12 4.77176e-12 5e-05 1.46608e-10 
92 1 0.288285 0.017704 0.00704121 0.0056241 8.76184e-05 1.91263e-05 2.21933e-10 -8.15654e-11 -1.44472e-11 5e-05 1.46608e-10 
93 1 0.288022 0.0165803 0.00763763 0.00621904 7.88229e-06 6.60871e-05 -1.03198e-11 -3.601e-11 1.39543e-11 5e-05 1.46608e-10 
94 1 0.288421 0.0180743 0.00706652 0.00558787 7.82499e-05 -8.48971e-05 3.18502e-11 -6.27172e-11 -2.58014e-11 5e-05 1.46608e-10 
95 1 0.288313 0.0177052 0.00713728 0.00574242 8.58231e-05 -1.65096e-05 7.70504e-11 -6.38509e-11 5.83741e-11 5e-05 1.46608e-10 
96 1 0.288267 0.0176171 0.00708735 0.00572917 7.39895e-05 2.89506e-05 1.01411e-10 -6.72209e-12 -1.50125e-11 5e-05 1.46608e-10 
97 1 0.281799 0.0158496 0.00836718 0.00583908 -0.000139738 0.00029692 3.3864e-11 -3.37903e-10 4.1873e-10 5e-05 1.46608e-10 
98 1 0.288003 0.016501 0.00769556 0.00632368 -0.000180983 -0.000158509 1.8618e-11 -5.19893e-11 1.09569e-11 5e-05 1.46608e-10 
99 1 0.282312 0.0178356 0.00704041 0.00564637 -0.000157099 -7.1985e-05 1.59817e-11 2.98224e-11 -1.15831e-11 5e-05 1.46608e-10 
100 1 0.288474 0.0177634 0.00701161 0.00569055 0.000130582 -2.15027e-06 9.4765e-11 -5.35986e-11 2.06258e-11 5e-05 1.46608e-10 
101 1 0.282331 0.0179274 0.00700578 0.00567425 -0.000164963 -6.92946e-05 2.18892e-11 3.89626e-11 -1.94255e-11 5e-05 1.46608e-10 
102 1 0.0643568 0.0187248 0.00531097 4.19992e-15 1.05425e-14 8.29579e-14 1.87183e-21 -8.3858e-22 8.89219e-24 5e-05 1.46608e-10 
103 1 0.24257 0.0191927 0.00520306 2.51438e-22 4.86658e-23 1.23839e-22 0 0 0 5e-05 1.46608e-10 
104 1 0.282672 0.0183014 0.00690736 0.00565807 -8.51041e-06 0.000253819 -7.32055e-11 5.2267e-11 1.42145e-11 5e-05 1.46608e-10 
105 1 0.281895 0.0158704 0.00834433 0.00585292 -0.000165988 0.000330032 -2.73392e-10 -3.05539e-10 3.60636e-10 5e-05 1.46608e-10 
106 1 0.282329 0.0174979 0.00716577 0.00556276 -0.00012603 -8.09618e-05 -6.69379e-11 -1.29799e-12 1.70289e-11 5e-05 1.46608e-10 
107 1 0.281738 0.0156608 0.00859185 0.00565928 -0.000133009 0.0002848 2.67421e-10 -3.63461e-11 7.54115e-11 5e-05 1.46608e-10 
108 1 0.28861 0.0179867 0.00697639 0.00572306 0.000128628 -9.83445e-05 6.37994e-11 -4.08119e-11 -2.41589e-11 5e-05 1.46608e-10 
109 1 0.288665 0.0178228 0.00698209 0.00576053 0.000138778 -7.79862e-06 -6.84513e-13 -9.50636e-12 -5.34438e-11 5e-05 1.46608e-10 
110 1 0.288151 0.0170978 0.00736305 0.00562528 0.000105074 7.54326e-06 5.44355e-12 -3.62725e-11 1.93248e-11 5e-05 1.46608e-10 
111 1 0.288109 0.0169251 0.00745468 0.00619597 7.05482e-06 6.55342e-05 -3.81287e-11 -1.48827e-11 1.07812e-11 5e-05 1.46608e-10 
112 1 0.281841 0.0159755 0.00821737 0.00591624 -0.00016071 0.000327983 -1.70833e-10 -1.16925e-10 1.62252e-10 5e-05 1.46608e-10 
113 1 0.282214 0.0173769 0.00721348 0.00560644 -0.000129929 -8.02055e-05 3.97273e-11 6.00423e-11 -6.82473e-11 5e-05 1.46608e-10 
114 1 0.282273 0.017652 0.00710967 0.00553146 -0.000130378 -7.97473e-05 5.94513e-11 3.44664e-12 -1.23253e-12 5e-05 1.46608e-10 
115 1 0.288435 0.017184 0.00732025 0.00565936 -4.07687e-05 8.54624e-05 7.47638e-11 7.71408e-11 -3.92916e-11 5e-05 1.46608e-10 
116 1 0.288439 0.0180194 0.00698102 0.00572492 8.32907e-05 -9.9422e-05 5.90794e-11 -2.10619e-11 -2.05872e-11 5e-05 1.46608e-10 
117 1 0.288438 0.017589 0.00710425 0.00582461 0.000143022 -1.0835e-05 -8.87691e-12 -8.13969e-11 4.12765e-11 5e-05 1.46608e-10 
118 1 0.282404 0.0174354 0.00718731 0.0055674 -0.000122074 -8.27058e-05 8.7838e-12 -2.74945e-11 1.17999e-11 5e-05 1.46608e-10 
119 1 0.288629 0.0180851 0.00698056 0.00565535 0.000169142 -9.56966e-05 1.91288e-11 3.21946e-11 -4.92121e-12 5e-05 1.46608e-10 
120 1 0.288235 0.0167212 0.00756488 0.00620931 1.29869e-05 6.30486e-05 -2.65063e-11 3.32384e-11 -1.70182e-11 5e-05 1.46608e-10 
121 1 0.288517 0.0184126 0.00699763 0.00557196 0.000147 -9.52633e-05 4.80167e-12 1.39666e-10 4.5351e-12 5e-05 1.46608e-10 
122 1 0.288249 0.0175304 0.00713339 0.00586273 5.23997e-05 3.74142e-05 -9.8517e-12 8.00518e-12 5.72072e-12 5e-05 1.46608e-10 
123 1 0.282636 0.0185633 0.00691701 0.005632 -5.54404e-05 0.000251318 -2.24505e-11 -4.11664e-11 -1.46519e-11 5e-05 1.46608e-10 
124 1 0.288139 0.0166939 0.00757837 0.00620996 1.047e-05 6.43666e-05 -7.1552e-11 -7.65272e-11 3.69651e-11 5e-05 1.46608e-10 
125 1 0.288343 0.0175596 0.00711885 0.00584814 7.80993e-05 2.39595e-05 9.58538e-13 -1.19257e-11 2.19069e-11 5e-05 1.46608e-10 
127 1 0.281782 0.0157863 0.00844253 0.00580095 -0.000136807 0.000294173 -3.54584e-10 -3.00078e-10 3.50865e-10 5e-05 1.46608e-10 
128 1 0.287984 0.0164273 0.00776055 0.00608466 -0.000522272 -0.000614283 1.61685e-11 -5.59711e-11 1.80448e-11 5e-05 1.46608e-10 
129 1 0.288382 0.0178782 0.00706075 0.00564993 5.58856e-05 3.74884e-05 -3.03659e-13 4.29005e-12 -1.13844e-10 5e-05 1.46608e-10 
130 1 0.282368 0.0176815 0.0070965 0.00549119 -2.72357e-05 -0.000115711 2.71616e-11 6.0557e-11 -3.2197e-11 5e-05 1.46608e-10 
131 1 0.282387 0.0177734 0.00706183 0.00554665 -0.000110215 -8.63569e-05 9.14665e-11 -2.47134e-11 1.21136e-12 5e-05 1.46608e-10 
132 1 0.28834 0.0171551 0.00733459 0.00563539 2.76585e-06 6.20149e-05 1.22679e-10 4.09211e-11 -2.02405e-11 5e-05 1.46608e-10 
133 1 0.288459 0.0181185 0.0069852 0.00557166 9.05681e-05 -9.56337e-05 1.08864e-10 -3.66181e-11 -2.81429e-11 5e-05 1.46608e-10 
134 1 0.288419 0.0179214 0.0069769 0.00573839 7.81809e-05 -0.000100818 1.35627e-10 -1.10089e-11 -1.13545e-10 5e-05 1.46608e-10 
135 1 0.288571 0.0177926 0.00699716 0.00576969 0.000143366 -1.03413e-05 2.65698e-11 2.25961e-11 -3.57619e-11 5e-05 1.46608e-10 
136 1 0.282344 0.0171605 0.00729109 0.00546823 -0.000115255 -8.42347e-05 1.47501e-10 3.42679e-11 -4.49452e-11 5e-05 1.46608e-10 
137 1 0.288349 0.0177929 0.00710058 0.00568232 4.27892e-05 2.63467e-05 3.37378e-11 4.43884e-11 -1.24487e-10 5e-05 1.46608e-10 
138 1 0.288324 0.0178897 0.00697799 0.0057473 4.77531e-05 -1.75457e-05 2.88986e-11 -8.33945e-11 -4.17321e-10 5e-05 1.46608e-10 
140 1 0.288209 0.0173571 0.00722535 0.0057866 6.9636e-05 2.79735e-05 1.20406e-11 -5.39975e-12 4.07745e-12 5e-05 1.46608e-10 
141 1 0.282178 0.0165005 0.00768913 0.00625346 0.000223379 0.000647021 8.74614e-11 -2.17235e-10 2.32658e-10 5e-05 1.46608e-10 
142 1 0.282577 0.0178324 0.00703553 0.00562383 -0.000139487 -7.81991e-05 -7.40168e-12 -5.73417e-11 2.15892e-11 5e-05 1.46608e-10 
143 1 0.281758 0.0157237 0.00851694 0.00572858 -0.000136911 0.000290945 -2.9832e-10 -2.73931e-10 2.40688e-10 5e-05 1.46608e-10 
144 1 0.282443 0.0176191 0.00711802 0.00554302 -9.75054e-05 -9.07575e-05 1.71115e-11 1.78172e-11 -9.11697e-13 5e-05 1.46608e-10 
146 1 0.281936 0.0159963 0.00819452 0.00592219 -0.000187632 0.00035367 1.77836e-10 -1.67408e-10 2.24931e-10 5e-05 1.46608e-10 
147 1 0.282349 0.0175897 0.00713115 0.00554374 -0.000109562 -8.74795e-05 3.99359e-11 5.75468e-14 3.75449e-11 5e-05 1.46608e-10 
148 1 0.282199 0.0165725 0.00762296 0.00630253 0.000325491 0.000574083 2.93824e-10 -1.08393e-11 1.78616e-10 5e-05 1.46608e-10 
149 1 0.288065 0.0167527 0.00754618 0.00620782 8.33248e-06 6.52546e-05 -1.42622e-11 -1.94227e-11 1.46252e-11 5e-05 1.46608e-10 
150 1 0.282466 0.0185969 0.00691081 0.00561548 -8.187e-05 0.000242445 -6.67614e-11 5.75379e-11 7.03772e-11 5e-05 1.46608e-10 
151 1 0.282464 0.0181417 0.00692293 0.00558569 -0.000151359 -7.34067e-05 3.14066e-11 -2.07254e-11 3.65814e-12 5e-05 1.46608e-10 
153 1 0.282222 0.0166444 0.00755713 0.00615729 0.000353661 0.000506741 1.01802e-10 1.85573e-10 -1.57679e-10 5e-05 1.46608e-10 
154 1 0.281915 0.0159334 0.00826942 0.00590127 -0.000176123 0.000344105 -4.68959e-11 -2.97022e-10 3.1997e-10 5e-05 1.46608e-10 
155 1 0.281861 0.0160384 0.00814246 0.00594771 -0.000180177 0.000347772 1.05459e-10 6.12703e-11 2.69068e-12 5e-05 1.46608e-10 
156 1 0.282157 0.0164277 0.00775593 0.00617546 0.000117912 0.00072768 -2.45515e-10 1.933e-10 -1.39229e-10 5e-05 1.46608e-10 
157 1 0.0219312 0.0187687 0.00551176 -3.83637e-14 8.16539e-14 2.95887e-13 5.29913e-22 6.62778e-22 -1.13117e-22 5e-05 1.46608e-10 
158 1 0.282263 0.0167938 0.00742948 0.00547505 -0.000222147 -4.27711e-05 2.12425e-10 -6.98414e-11 7.70268e-11 5e-05 1.46608e-10 
159 1 0.28836 0.0172417 0.00728862 0.00569035 -8.84983e-06 6.88593e-05 3.70554e-11 5.99768e-11 -2.7571e-11 5e-05 1.46608e-10 
160 1 0.28235 0.0180193 0.00697114 0.00559229 -0.00015187 -7.14831e-05 3.02882e-11 -1.01081e-12 1.21194e-11 5e-05 1.46608e-10 
162 1 0.282428 0.0181293 0.00701558 0.00556664 -0.000147829 -8.16343e-05 7.67048e-11 -1.56352e-10 -1.7333e-11 5e-05 1.46608e-10 
164 1 0.281923 0.0162277 0.00791719 0.00605536 -0.000179537 0.000327852 -3.38401e-11 4.60915e-10 -1.04399e-10 5e-05 1.46608e-10 
165 1 0.282502 0.0183352 0.00690119 0.00561604 -6.74288e-05 0.000250185 1.07854e-10 -1.52368e-11 3.40522e-11 5e-05 1.46608e-10 
166 1 0.288344 0.0179876 0.00698142 0.00573291 5.13281e-05 -4.48806e-05 -3.60925e-13 -1.89463e-11 -3.13573e-10 5e-05 1.46608e-10 
167 1 0.282427 0.0184011 0.00690064 0.00560582 -8.15649e-05 0.000251338 7.80332e-11 -5.56528e-11 6.34954e-11 5e-05 1.46608e-10 
168 1 0.282541 0.0185312 0.00691137 0.00563193 -6.75145e-05 0.000244898 -6.7311e-11 1.81021e-10 2.05422e-11 5e-05 1.46608e-10 
169 1 0.282446 0.0184988 0.00691008 0.00560262 -7.46617e-05 0.000232957 3.48736e-11 -5.72903e-11 -9.56158e-11 5e-05 1.46608e-10 
170 1 0.282522 0.0184332 0.00690627 0.00560486 -7.34381e-05 0.00025742 1.03288e-10 2.27338e-11 -1.43346e-10 5e-05 1.46608e-10 
171 1 0.288573 0.0182489 0.00698909 0.00555354 0.000137359 -9.47524e-05 -1.17326e-11 -2.69398e-11 -2.8315e-14 5e-05 1.46608e-10 
172 1 0.282194 0.0172853 0.00724805 0.00568813 -0.000148728 -7.81888e-05 -6.42504e-11 -8.0976e-12 3.3844e-11 5e-05 1.46608e-10 
173 1 0.288535 0.0182072 0.00707147 0.00555971 0.000107627 -0.000104659 9.72873e-12 -3.86137e-11 2.0336e-11 5e-05 1.46608e-10 
174 1 0.281966 0.0163709 0.0077842 0.0061687 0.000157375 0.00070213 7.11954e-11 -3.7938e-11 -6.62625e-12 5e-05 1.46608e-10 
176 1 0.282269 0.017223 0.00726953 0.00567666 -0.000156414 -7.31119e-05 -1.94845e-11 1.01878e-10 -5.5215e-11 5e-05 1.46608e-10 
177 1 0.281956 0.0160593 0.00811961 0.00595128 -0.000197387 0.00036339 1.04591e-10 4.45913e-11 1.78982e-10 5e-05 1.46608e-10 
178 1 0.282315 0.0177236 0.00717034 0.00548501 -0.000131063 -5.53181e-05 1.05095e-10 -6.1275e-11 -2.8146e-11 5e-05 1.46608e-10 
179 1 0.282369 0.0181114 0.00693706 0.00558364 -0.000150144 -6.29322e-05 5.19984e-11 3.26634e-11 1.35461e-10 5e-05 1.46608e-10 
182 1 0.288593 0.0183469 0.00699324 0.00557006 0.000140121 -9.5639e-05 -6.81956e-11 3.04894e-11 1.03281e-11 5e-05 1.46608e-10 
183 1 0.282254 0.0175602 0.00714429 0.00554857 -0.000131773 -8.00642e-05 3.22593e-12 6.10298e-11 3.31116e-12 5e-05 1.46608e-10 
184 1 0.28844 0.0181737 0.00707118 0.00556055 9.42917e-05 -9.52582e-05 1.42863e-10 -1.37615e-10 -3.63326e-11 5e-05 1.46608e-10 
185 1 0.282463 0.0177109 0.0070834 0.00555377 -0.000100607 -8.86211e-05 -3.35644e-11 1.82796e-11 1.15218e-11 5e-05 1.46608e-10 
186 1 0.282505 0.0187928 0.00692099 0.00558921 -8.16756e-05 0.000248403 1.12745e-11 6.07807e-11 1.04253e-11 5e-05 1.46608e-10 
187 1 0.288479 0.0182166 0.00698934 0.0055512 9.95307e-05 -9.69466e-05 5.52098e-11 -4.02667e-12 -1.06735e-12 5e-05 1.46608e-10 
188 1 0.288324 0.0174728 0.00716493 0.0058651 5.56496e-05 3.63039e-05 2.99831e-11 -1.0893e-11 3.00399e-12 5e-05 1.46608e-10 
189 1 0.288442 0.0184778 0.007002 0.00556041 0.000141138 -9.57648e-05 1.25193e-11 1.46081e-10 3.7594e-12 5e-05 1.46608e-10 
190 1 0.276357 0.0180734 0.00716298 0.00530775 -0.000414292 -0.000472802 8.73357e-13 -1.27408e-13 -5.2678e-14 5e-05 1.46608e-10 
191 1 0.288087 0.0168389 0.00750048 0.00620221 7.73818e-06 6.51215e-05 -2.95721e-11 -8.83609e-12 7.62717e-12 5e-05 1.46608e-10 
192 1 0.282234 0.0174685 0.00717889 0.0055617 -0.000127404 -8.03752e-05 -9.33908e-11 1.27525e-10 -3.77143e-11 5e-05 1.46608e-10 
193 1 0.288649 0.0181832 0.0069847 0.00557895 0.000138885 -9.5816e-05 -2.0659e-11 -8.06429e-11 -3.10861e-12 5e-05 1.46608e-10 
194 1 0.282502 0.018065 0.00703837 0.00558732 -0.000181521 -3.46727e-05 4.44277e-12 -6.89457e-11 5.28724e-11 5e-05 1.46608e-10 
195 1 0.282559 0.0181724 0.00691754 0.00564604 -6.13014e-05 0.0001685 4.87008e-11 3.41052e-11 2.48942e-11 5e-05 1.46608e-10 
196 1 0.282521 0.0179863 0.0069795 0.00565676 -0.000134701 -7.42639e-05 2.08409e-11 -1.45884e-11 -2.28821e-11 5e-05 1.46608e-10 
197 1 0.276032 0.0165884 0.00758435 0.00585512 -0.000516192 0.000202014 6.22702e-11 7.36084e-11 2.97901e-11 5e-05 1.46608e-10 
198 1 0.282519 0.0175568 0.0071395 0.00556193 -7.91508e-05 -9.86775e-05 4.82561e-11 1.05491e-10 -5.10405e-11 5e-05 1.46608e-10 
199 1 0.282337 0.0178184 0.00713563 0.00556121 -0.000147739 -4.56324e-05 4.27924e-11 -8.28228e-12 -4.76365e-11 5e-05 1.46608e-10 
200 1 0.28182 0.0159125 0.00829228 0.0058703 -0.000148821 0.000310026 -1.03506e-10 -3.11007e-10 3.18651e-10 5e-05 1.46608e-10 
201 1 0.282578 0.0182694 0.00690173 0.00562375 -5.11423e-05 0.000250958 1.8136e-10 1.46534e-11 -3.59959e-12 5e-05 1.46608e-10 
202 1 0.282284 0.0168855 0.00739488 0.00560837 -0.000249834 -4.15148e-05 -3.52102e-11 5.86411e-11 -5.56031e-11 5e-05 1.46608e-10 
203 1 0.288397 0.0178211 0.00697997 0.0057449 2.15591e-05 6.7731e-05 1.00013e-10 -4.41097e-11 5.6378e-11 5e-05 1.46608e-10 
204 1 0.282636 0.0181091 0.00693113 0.00568106 -6.93278e-05 -0.000104675 2.5057e-11 -7.57491e-12 7.94981e-11 5e-05 1.46608e-10 
205 1 0.282104 0.0165435 0.00763771 0.0062066 0.00016633 0.000717724 4.11694e-10 2.89175e-11 -2.34997e-10 5e-05 1.46608e-10 
206 1 0.282147 0.0166873 0.00750587 0.00594483 0.000157788 0.000655748 2.32308e-10 1.72244e-10 -2.50033e-10 5e-05 1.46608e-10 
207 1 0.282019 0.0162569 0.00790295 0.00614577 -4.67108e-05 0.000536115 -1.10034e-10 4.10284e-11 -1.59953e-10 5e-05 1.46608e-10 
208 1 0.282558 0.0177405 0.00707018 0.00555479 -0.000165168 -6.61944e-05 -2.24823e-11 6.18295e-11 -8.37216e-12 5e-05 1.46608e-10 
209 1 0.282384 0.0173437 0.00722192 0.00556042 -0.000129056 -7.93315e-05 -5.53013e-11 3.40831e-11 -2.19093e-11 5e-05 1.46608e-10 
210 1 0.288183 0.0168663 0.00748686 0.00620015 1.10043e-05 6.39135e-05 -4.77665e-11 -1.71412e-12 2.23821e-12 5e-05 1.46608e-10 
211 1 0.288205 0.0169526 0.00744109 0.00618746 4.65009e-06 6.7208e-05 -2.43387e-11 4.03899e-12 -4.39739e-12 5e-05 1.46608e-10 
212 1 0.282597 0.0183674 0.00690683 0.00562632 -5.31682e-05 0.000250583 2.85695e-12 8.01185e-11 -1.11916e-11 5e-05 1.46608e-10 
213 1 0.288422 0.0183796 0.00699786 0.00552681 9.86427e-05 -9.68053e-05 -1.91209e-11 -1.3091e-11 -1.22682e-12 5e-05 1.46608e-10 
214 1 0.288285 0.0172996 0.00725691 0.00573145 3.18416e-05 4.76341e-05 8.8769e-13 8.14725e-13 2.00861e-13 5e-05 1.46608e-10 
215 1 0.276255 0.0175915 0.00728977 0.00558607 -0.00033895 0.000307459 6.22831e-13 6.9843e-13 1.53938e-13 5e-05 1.46608e-10 
216 1 0.281998 0.0161872 0.00797153 0.00610151 -0.000126814 0.000456875 -7.53201e-11 -8.56332e-11 -2.8011e-10 5e-05 1.46608e-10 
217 1 0.288668 0.0182812 0.00698884 0.00557201 0.000139501 -9.57992e-05 -1.42368e-10 -2.33309e-11 -6.79768e-12 5e-05 1.46608e-10 
218 1 0.282293 0.0177438 0.00707504 0.00556571 -0.000139853 -7.70726e-05 1.05395e-11 6.85556e-12 2.19189e-12 5e-05 1.46608e-10 
219 1 0.288044 0.016668 0.00759471 0.00621454 7.9718e-06 6.58395e-05 -1.3875e-11 -2.79331e-11 1.08035e-11 5e-05 1.46608e-10 
220 1 0.282407 0.0178653 0.00702719 0.00567965 -0.000145535 -7.51199e-05 -5.0745e-11 -8.69168e-12 1.04367e-11 5e-05 1.46608e-10 
222 1 0.288513 0.0175318 0.0071356 0.00585035 0.000184375 -3.26583e-05 1.14846e-10 4.26189e-11 -1.98257e-11 5e-05 1.46608e-10 
224 1 0.282188 0.0168573 0.00741021 0.00556831 -7.63609e-05 0.000115811 2.95184e-11 1.54972e-10 -3.68836e-11 5e-05 1.46608e-10 
225 1 0.28813 0.0170113 0.00740893 0.00618928 5.97194e-06 6.64692e-05 -2.34388e-11 -3.01171e-11 1.58628e-11 5e-05 1.46608e-10 
226 1 0.282596 0.0179242 0.00700088 0.00566317 -0.000125201 -8.18817e-05 3.43006e-11 8.37705e-12 -1.42453e-11 5e-05 1.46608e-10 
227 1 0.276275 0.0176877 0.00727212 0.00558337 -0.000338432 0.000307235 9.20913e-13 2.00321e-12 -4.18506e-13 5e-05 1.46608e-10 
228 1 0.276214 0.017399 0.00732508 0.00559155 -0.000339986 0.000307877 1.94185e-12 3.66647e-12 -6.94401e-13 5e-05 1.46608e-10 
229 1 0.282561 0.0186293 0.00691647 0.00561677 -7.29571e-05 0.000248771 1.26695e-11 3.21261e-11 -2.61857e-11 5e-05 1.46608e-10 
230 1 0.282092 0.0168277 0.00742227 0.00494502 -0.00167058 -0.0041887 -1.44848e-10 -9.81894e-11 -1.11712e-09 5e-05 1.46608e-10 
232 1 0.282502 0.018204 0.00699318 0.00550763 -0.000236989 0.000135757 5.61732e-11 1.94042e-11 6.48326e-11 5e-05 1.46608e-10 
233 1 0.282408 0.0183032 0.00689556 0.00562421 -8.89427e-05 0.000250941 2.37926e-11 -5.30151e-11 -9.54558e-12 5e-05 1.46608e-10 
234 1 0.288229 0.0174437 0.00717939 0.00583523 5.90777e-05 3.42256e-05 -1.36883e-11 8.3743e-12 -8.66339e-12 5e-05 1.46608e-10 
235 1 0.282051 0.0166588 0.00752 0.00622419 0.000124638 0.00073146 -2.22124e-10 -5.64771e-10 3.23054e-10 5e-05 1.46608e-10 
236 1 0.282153 0.0171021 0.00731721 0.0057394 -0.000174109 -6.35985e-05 1.22154e-10 -8.88665e-11 6.13362e-11 5e-05 1.46608e-10 
237 1 0.282173 0.0171937 0.00728263 0.00573041 -0.000165765 -6.9199e-05 -7.87726e-11 -8.93201e-11 1.01363e-10 5e-05 1.46608e-10 
239 1 0.275927 0.0162547 0.00794133 0.00598371 -0.000574117 0.000186271 7.16578e-11 -4.14286e-11 3.96714e-11 5e-05 1.46608e-10 
240 1 0.27599 0.0164549 0.00772695 0.00607696 -0.000588497 0.000192274 -1.25283e-10 -4.1241e-11 1.59424e-11 5e-05 1.46608e-10 
241 1 0.275905 0.016188 0.00801279 0.00595906 -0.000571579 0.000185332 1.19673e-10 -3.68903e-11 5.38323e-11 5e-05 1.46608e-10 
242 1 0.282135 0.0163558 0.00782183 0.00613391 0.000119942 0.00071892 -3.01822e-10 2.18232e-10 -2.20571e-10 5e-05 1.46608e-10 
243 1 0.282501 0.0178945 0.00701414 0.00563898 -0.000128082 -8.26147e-05 1.3986e-11 -2.75606e-11 -5.78796e-12 5e-05 1.46608e-10 
244 1 0.275948 0.0163214 0.00786988 0.00601512 -0.000575329 0.000185729 -1.2819e-10 6.1248e-11 -6.2562e-11 5e-05 1.46608e-10 
246 1 0.276131 0.0170139 0.0073957 0.00560151 -0.000341741 0.000308731 -4.05291e-12 -1.29732e-11 1.76457e-12 5e-05 1.46608e-10 
247 1 0.281987 0.0164429 0.00771815 0.00617435 0.000144127 0.000709197 8.32744e-11 -1.3573e-10 1.86356e-10 5e-05 1.46608e-10 
248 1 0.282295 0.0176311 0.00720497 0.00554722 -0.000115049 -8.30891e-05 -8.6704e-11 -8.11437e-12 1.00532e-11 5e-05 1.46608e-10 
249 1 0.27607 0.0167295 0.00744788 0.00561236 -0.000343092 0.000310364 -1.18075e-11 1.37699e-11 -2.88307e-11 5e-05 1.46608e-10 
250 1 0.282061 0.0163996 0.00776975 0.00616005 0.000132197 0.000710373 1.19554e-10 3.22909e-11 -1.72914e-11 5e-05 1.46608e-10 
251 1 0.28838 0.0177332 0.00702667 0.00571126 8.68886e-05 1.30636e-05 8.84035e-11 -3.20324e-11 3.13025e-11 5e-05 1.46608e-10 
252 1 0.276152 0.0171102 0.00737804 0.00560011 -0.000340707 0.000308392 1.21988e-12 -7.68662e-12 9.28369e-13 5e-05 1.46608e-10 
253 1 0.276337 0.0179758 0.0071915 0.00526551 -0.00037273 -0.00047935 -1.75306e-12 -2.56477e-11 6.5978e-12 5e-05 1.46608e-10 
254 1 0.276091 0.0168257 0.00743022 0.00560776 -0.000343186 0.000309977 3.95567e-12 1.46597e-11 -5.83851e-12 5e-05 1.46608e-10 
255 1 0.281697 0.0155348 0.00874179 0.00543302 -0.00012134 0.000268353 -1.24183e-10 1.62709e-10 -2.13488e-10 5e-05 1.46608e-10 
256 1 0.282767 0.0183334 0.00691298 0.00567087 -2.9115e-05 0.000253306 -2.55712e-11 1.99393e-10 3.99294e-12 5e-05 1.46608e-10 
257 1 0.282243 0.0167164 0.00749113 0.00584774 0.00038793 0.000433423 7.63732e-11 1.24315e-10 -1.42702e-10 5e-05 1.46608e-10 
258 1 0.28239 0.0176607 0.00719179 0.0055703 2.55122e-06 -0.000127592 -3.74029e-11 -2.73626e-11 -4.10983e-11 5e-05 1.46608e-10 
259 1 0.276172 0.0172065 0.00736039 0.00559724 -0.000340134 0.000308163 1.54668e-12 1.96831e-12 -8.49101e-13 5e-05 1.46608e-10 