ITEM: TIMESTEP
61200000
ITEM: NUMBER OF ATOMS
269
ITEM: BOX BOUNDS ff ff ff
-0.02 0.43
-0.02 0.06
-0.02 0.07
ITEM: ATOMS id type x y z vx vy vz fx fy fz radius mass 
1 1 0.369951 0.0178721 0.00699256 0.00627166 -0.000202362 6.20785e-05 1.10134e-11 4.73461e-11 -3.71188e-12 5e-05 1.46608e-10 
2 1 0.369691 0.0168143 0.00767906 0.00562806 -4.24603e-05 -4.35427e-05 -5.37094e-11 -4.2181e-10 2.07664e-10 5e-05 1.46608e-10 
4 1 0.369901 0.0169445 0.00758371 0.0057566 -0.00013921 2.60339e-05 -5.13703e-10 1.13798e-10 -8.51706e-11 5e-05 1.46608e-10 
5 1 0.369469 0.0159381 0.00830578 0.00569539 -1.87132e-05 -5.60145e-05 5.27532e-11 -1.74376e-10 1.74181e-10 5e-05 1.46608e-10 
6 1 0.375675 0.0166548 0.00753234 0.00549348 4.49359e-06 0.000597974 8.22225e-10 -5.98921e-10 1.44779e-09 5e-05 1.46608e-10 
7 1 0.370039 0.0175025 0.00718462 0.00620638 -0.000212859 7.45913e-05 1.63156e-10 -3.48699e-11 2.5767e-11 5e-05 1.46608e-10 
8 1 0.369707 0.0165207 0.00788796 0.00545658 -2.81025e-05 -4.89419e-05 -1.23893e-10 -2.33873e-11 2.15867e-11 5e-05 1.46608e-10 
9 1 0.375873 0.0175585 0.00718666 0.00600685 -0.000484367 0.000101663 -8.27996e-12 2.22498e-12 3.1404e-12 5e-05 1.46608e-10 
10 1 0.369841 0.0167053 0.00775478 0.00558942 -0.000115555 1.14286e-05 2.37487e-10 -4.83192e-11 3.14092e-11 5e-05 1.46608e-10 
11 1 0.370148 0.0179401 0.00698926 0.00624712 -0.000193584 6.20407e-05 -3.63927e-11 9.48382e-12 -1.2899e-12 5e-05 1.46608e-10 
12 1 0.364145 0.0175098 0.00721757 0.00614613 -0.000127693 3.30034e-05 8.3536e-11 6.92485e-11 -4.66983e-11 5e-05 1.46608e-10 
13 1 0.369448 0.0158585 0.00836271 0.00564073 -2.28379e-05 -5.56071e-05 -2.07226e-10 -2.0023e-10 1.86799e-10 5e-05 1.46608e-10 
14 1 0.364333 0.0182964 0.00696441 0.00618324 -9.10628e-05 5.01108e-05 -2.12632e-11 -6.67251e-11 -1.22946e-11 5e-05 1.46608e-10 
16 1 0.364175 0.0184806 0.00696926 0.00572399 -3.36987e-05 4.78469e-05 -7.36573e-11 2.71732e-12 -8.02804e-13 5e-05 1.46608e-10 
17 1 0.369612 0.0164953 0.00790719 0.00545406 1.22829e-05 -7.77155e-05 -1.28481e-10 -3.30949e-11 7.2307e-14 5e-05 1.46608e-10 
19 1 0.369994 0.0180669 0.00697903 0.00624291 -0.000202944 6.66298e-05 -2.63136e-11 1.61851e-10 2.71552e-11 5e-05 1.46608e-10 
21 1 0.370084 0.0176657 0.00707814 0.00629705 -0.000217103 7.0062e-05 -1.43723e-11 -2.31044e-12 -3.59134e-12 5e-05 1.46608e-10 
22 1 0.369861 0.0167851 0.00769776 0.0056508 -0.000125119 1.79415e-05 -2.47309e-10 4.12157e-11 -2.57844e-11 5e-05 1.46608e-10 
23 1 0.364267 0.0181087 0.00695754 0.00625991 -0.000116324 4.93923e-05 -3.8461e-11 -4.51615e-11 -4.94643e-12 5e-05 1.46608e-10 
24 1 0.375791 0.01718 0.00728626 0.00554625 -0.000338683 0.000267415 -3.51598e-11 -6.05775e-11 3.41435e-11 5e-05 1.46608e-10 
26 1 0.37583 0.0173703 0.00723878 0.00597835 -0.00047819 0.000101759 7.08653e-11 3.76166e-11 -1.21083e-11 5e-05 1.46608e-10 
27 1 0.363729 0.01661 0.00779969 0.00558167 8.08342e-07 9.71224e-05 3.58315e-11 3.46885e-12 -1.35355e-13 5e-05 1.46608e-10 
28 1 0.370103 0.017839 0.00709325 0.00630697 -0.000210832 7.28115e-05 -7.2348e-11 3.04209e-11 -6.40784e-12 5e-05 1.46608e-10 
29 1 0.369428 0.0157789 0.00841965 0.00565257 -3.1133e-05 -5.05412e-05 -9.15534e-11 -1.32436e-10 8.64763e-11 5e-05 1.46608e-10 
30 1 0.369572 0.016336 0.00802118 0.0064055 -0.000129449 1.27838e-05 -8.23006e-10 7.52629e-10 -5.13074e-10 5e-05 1.46608e-10 
31 1 0.370199 0.0177736 0.0070015 0.00628903 -0.00018095 6.42155e-05 -1.04243e-10 -3.88785e-11 1.61671e-11 5e-05 1.46608e-10 
32 1 0.247451 0.0181454 0.00545794 3.64141e-15 -5.32071e-14 -2.74087e-13 6.31669e-22 3.04506e-23 5.99706e-24 5e-05 1.46608e-10 
33 1 0.375694 0.0167346 0.00747527 0.00554082 -0.000356979 6.83233e-05 3.7486e-10 -2.94593e-10 1.22238e-10 5e-05 1.46608e-10 
35 1 0.37 0.0173431 0.00729864 0.00599607 -0.000174784 4.91712e-05 -2.36895e-11 -9.74901e-11 7.26608e-11 5e-05 1.46608e-10 
36 1 0.375938 0.0178407 0.00710848 0.00604624 -0.000488437 0.000102754 -3.41464e-12 -6.91666e-12 2.43766e-12 5e-05 1.46608e-10 
37 1 0.369881 0.0168648 0.00764074 0.00570662 -0.000133729 2.31069e-05 -2.74272e-10 7.0426e-11 -4.48491e-11 5e-05 1.46608e-10 
38 1 0.36996 0.0171836 0.00741269 0.00583637 -0.000149828 3.28846e-05 -1.53546e-10 -1.44598e-11 1.29838e-11 5e-05 1.46608e-10 
39 1 0.37581 0.0172754 0.0072632 0.00552575 -0.000335131 0.000263404 6.96957e-11 -9.65769e-12 -3.55596e-12 5e-05 1.46608e-10 
41 1 0.36951 0.0160973 0.0081919 0.00588892 -1.02626e-05 -8.28786e-05 -4.90922e-10 8.46899e-11 -7.50342e-11 5e-05 1.46608e-10 
42 1 0.36994 0.017104 0.00746968 0.00584073 -0.000150823 3.37517e-05 5.43751e-11 -2.20039e-11 1.43561e-11 5e-05 1.46608e-10 
44 1 0.370137 0.0175291 0.00716445 0.00624179 -0.000246819 9.68162e-05 1.09793e-10 -5.24549e-11 2.00173e-11 5e-05 1.46608e-10 
45 1 0.375713 0.0168156 0.00741998 0.00560542 -0.000428404 2.8096e-05 5.1308e-10 1.83859e-10 -2.74675e-10 5e-05 1.46608e-10 
47 1 0.36953 0.0161769 0.00813497 0.00601891 -6.14344e-05 -3.73358e-05 7.8576e-10 -8.7678e-11 -6.71799e-11 5e-05 1.46608e-10 
48 1 0.369889 0.0176121 0.00710854 0.00614784 -0.000189803 6.58774e-05 -2.8823e-10 8.58584e-11 -8.58037e-11 5e-05 1.46608e-10 
49 1 0.375895 0.0176526 0.0071606 0.00601905 -0.00048597 0.000102127 1.32482e-11 1.42607e-12 -4.28226e-12 5e-05 1.46608e-10 
50 1 0.359857 0.0168457 0.00828707 -2.94583e-05 -0.00284756 0.00151914 -3.10265e-13 2.00496e-10 -1.62085e-10 5e-05 1.46608e-10 
51 1 0.370222 0.0178719 0.00699469 0.00626446 -0.000141457 5.87343e-05 -7.15659e-11 -4.91061e-12 -5.02719e-12 5e-05 1.46608e-10 
52 1 0.364206 0.0177562 0.00705769 0.00635296 -0.000138813 3.75033e-05 -1.09685e-10 7.35196e-11 -4.92348e-11 5e-05 1.46608e-10 
53 1 0.375752 0.0169892 0.00733238 0.00559913 -0.000358586 0.000272513 -6.86134e-11 -1.69776e-11 -6.58833e-11 5e-05 1.46608e-10 
54 1 0.370158 0.0183935 0.00695706 0.00618223 -0.000199645 6.23884e-05 2.21928e-11 -4.12973e-11 3.12768e-12 5e-05 1.46608e-10 
55 1 0.363851 0.0171043 0.00748228 0.00587025 -0.000105031 2.1406e-05 -1.00211e-10 -4.13298e-12 9.14618e-12 5e-05 1.46608e-10 
56 1 0.370037 0.0182617 0.0069655 0.00620235 -0.000214323 6.36411e-05 -5.37397e-12 -8.1271e-11 4.36661e-12 5e-05 1.46608e-10 
57 1 0.375733 0.0168966 0.00736469 0.00561307 -0.000453158 1.536e-05 2.33929e-11 4.42732e-11 -3.61611e-10 5e-05 1.46608e-10 
59 1 0.378022 0.019866 0.005332 -5.01986e-15 -7.41207e-15 7.69802e-14 -6.26848e-24 4.42025e-24 0 5e-05 1.46608e-10 
60 1 0.37016 0.0176082 0.00710785 0.00630785 -0.000201586 6.30026e-05 7.56754e-11 9.10836e-11 -6.9906e-11 5e-05 1.46608e-10 
61 1 0.369489 0.0160177 0.00824884 0.00579421 -9.07936e-06 -7.5362e-05 -1.07294e-09 8.41686e-11 -1.54774e-11 5e-05 1.46608e-10 
62 1 0.36998 0.0172634 0.00735566 0.00588412 -0.000156946 3.71181e-05 6.06007e-11 -8.83471e-11 6.14989e-11 5e-05 1.46608e-10 
63 1 0.370234 0.0183298 0.00696219 0.00619368 -0.000186563 6.15647e-05 4.56357e-11 -5.92373e-12 1.01825e-12 5e-05 1.46608e-10 
64 1 0.375772 0.0170846 0.00730932 0.0055722 -0.000347787 0.000270223 -6.44917e-11 -8.1483e-11 -1.861e-13 5e-05 1.46608e-10 
65 1 0.36389 0.0175794 0.00728285 0.006108 -0.00013457 3.2189e-05 -1.30906e-11 -1.01767e-11 8.0747e-11 5e-05 1.46608e-10 
66 1 0.364035 0.0178439 0.00700235 0.00631564 -0.000165538 5.62325e-05 -2.84968e-11 3.30525e-11 -1.30964e-11 5e-05 1.46608e-10 
67 1 0.370106 0.0177521 0.00703293 0.00628788 -0.000206082 6.49382e-05 -1.07964e-10 2.37744e-11 3.09274e-11 5e-05 1.46608e-10 
68 1 0.369845 0.0170789 0.0074887 0.00584702 -0.000141512 2.846e-05 -7.31266e-11 3.67674e-11 -4.30785e-11 5e-05 1.46608e-10 
69 1 0.370265 0.0180677 0.00698109 0.00621128 -0.000189337 6.17062e-05 8.26469e-11 -4.90419e-11 7.7223e-13 5e-05 1.46608e-10 
70 1 0.375852 0.0174644 0.00721272 0.00599117 -0.000482813 0.000101644 -1.38176e-11 1.70042e-11 -5.29451e-12 5e-05 1.46608e-10 
71 1 0.364154 0.0183829 0.00696579 0.00617658 -0.000130699 4.94e-05 9.49751e-12 -3.74826e-11 -3.71967e-13 5e-05 1.46608e-10 
72 1 0.37017 0.0180375 0.00698249 0.00620639 -0.00018419 6.13992e-05 2.91568e-12 4.53507e-12 -2.8923e-12 5e-05 1.46608e-10 
73 1 0.36992 0.0170242 0.00752669 0.00581375 -0.000146576 3.08476e-05 -1.91959e-10 3.39831e-11 -2.06747e-11 5e-05 1.46608e-10 
74 1 0.369551 0.0162564 0.00807807 0.00623336 -0.000121561 9.25392e-06 6.06203e-10 2.88746e-10 -3.11125e-10 5e-05 1.46608e-10 
76 1 0.36379 0.0168584 0.00764309 0.00573385 -9.15207e-05 1.9702e-06 -6.59189e-13 2.40468e-11 -3.29722e-11 5e-05 1.46608e-10 
77 1 0.369711 0.0168941 0.00762204 0.00571846 -3.74719e-05 -4.09302e-05 -6.46571e-10 4.64759e-11 -3.38005e-11 5e-05 1.46608e-10 
78 1 0.363356 0.0154715 0.00857894 0.00579491 -7.27543e-07 0.000123874 2.94919e-11 -4.90539e-11 3.59161e-11 5e-05 1.46608e-10 
79 1 0.364195 0.0185784 0.00697272 0.00570398 -3.09192e-05 4.75282e-05 -5.75966e-11 7.43903e-12 -3.42999e-13 5e-05 1.46608e-10 
80 1 0.369806 0.0169195 0.00760275 0.00573339 -9.90292e-05 -3.13693e-06 -2.11374e-10 6.38347e-11 -3.17938e-11 5e-05 1.46608e-10 
82 1 0.36408 0.0179885 0.0069519 0.00630972 -0.00015473 4.89457e-05 1.79675e-11 4.51457e-12 2.04905e-12 5e-05 1.46608e-10 
83 1 0.364165 0.0175919 0.0071643 0.00621886 -0.000130376 3.40532e-05 -8.71926e-12 8.66839e-11 -5.53287e-11 5e-05 1.46608e-10 
84 1 0.375916 0.0177467 0.00713454 0.00603227 -0.000487321 0.000102397 -1.53056e-12 -2.58304e-12 1.40354e-12 5e-05 1.46608e-10 
85 1 0.364015 0.0181677 0.00702951 0.00616643 -0.000141253 5.17502e-05 1.36113e-10 -1.25402e-10 1.84495e-11 5e-05 1.46608e-10 
86 1 0.370116 0.0174496 0.00722136 0.0061634 -0.000234818 9.01243e-05 4.46048e-11 -6.19353e-11 5.10992e-11 5e-05 1.46608e-10 
87 1 0.369766 0.01676 0.0077168 0.00559956 -7.70705e-05 -1.59008e-05 -7.76249e-11 1.40935e-10 -1.36198e-10 5e-05 1.46608e-10 
88 1 0.369905 0.0173181 0.00731764 0.00601081 -0.000163156 4.02659e-05 6.17361e-11 4.96287e-11 -4.95232e-11 5e-05 1.46608e-10 
89 1 0.370287 0.0181651 0.00697432 0.00620782 -0.000185576 6.15954e-05 1.4871e-11 -1.91374e-11 1.25033e-12 5e-05 1.46608e-10 
90 1 0.370127 0.0178427 0.00699602 0.00627344 -0.000197607 6.40111e-05 -8.98386e-11 -1.72769e-11 -8.40219e-12 5e-05 1.46608e-10 
91 1 0.363977 0.0172243 0.0074036 0.00593372 -0.000165046 5.89817e-05 3.39389e-11 -9.34391e-12 1.92191e-12 5e-05 1.46608e-10 
92 1 0.36981 0.0172928 0.00733689 0.00597634 -0.000108598 1.76577e-06 1.36076e-11 -8.93199e-11 8.06824e-11 5e-05 1.46608e-10 
93 1 0.369932 0.017695 0.00715093 0.00632953 -0.000215987 7.18012e-05 9.27343e-11 2.91635e-11 -8.93561e-11 5e-05 1.46608e-10 
94 1 0.370071 0.0180033 0.00698416 0.00623652 -0.000211739 6.18945e-05 -7.34348e-11 -2.87801e-11 -8.8384e-13 5e-05 1.46608e-10 
95 1 0.370008 0.0178693 0.00707439 0.00625288 -0.000200091 7.3696e-05 -3.89996e-11 -1.45083e-11 7.30824e-11 5e-05 1.46608e-10 
96 1 0.36979 0.017213 0.00739395 0.00592443 -0.000107145 1.39078e-06 3.60153e-10 4.90092e-10 -3.11598e-10 5e-05 1.46608e-10 
97 1 0.363433 0.0157485 0.00832978 0.00576696 -1.00631e-05 0.000104949 -3.43566e-11 -6.47695e-11 4.00176e-11 5e-05 1.46608e-10 
98 1 0.369667 0.0163612 0.00800205 0.0060176 0.000414091 -0.000371109 -2.11038e-10 7.44732e-11 -5.01853e-11 5e-05 1.46608e-10 
99 1 0.363858 0.0174933 0.00724113 0.00606575 -0.000101324 1.67594e-05 -3.29926e-11 1.48729e-11 2.89173e-11 5e-05 1.46608e-10 
100 1 0.37006 0.0175824 0.00712812 0.00627433 -0.000220795 7.76754e-05 5.07506e-11 -2.26447e-11 -1.63568e-11 5e-05 1.46608e-10 
101 1 0.363878 0.0175704 0.00718056 0.00610494 -0.000112445 2.24043e-05 1.39379e-10 -3.36547e-11 4.5251e-11 5e-05 1.46608e-10 
102 1 0.0643568 0.0187248 0.00531097 4.44127e-15 1.04209e-14 8.2961e-14 -7.5161e-22 5.2513e-22 -2.12999e-23 5e-05 1.46608e-10 
103 1 0.230779 0.0182774 0.00551293 -5.36741e-15 6.63127e-15 4.46812e-14 3.09185e-22 2.79587e-22 1.03398e-24 5e-05 1.46608e-10 
104 1 0.364141 0.0187424 0.00697777 0.00565836 -5.32867e-05 4.65213e-05 2.25555e-11 7.70729e-11 1.73616e-12 5e-05 1.46608e-10 
105 1 0.363454 0.0158318 0.00827838 0.00576007 -8.54767e-06 0.000103859 3.94162e-11 -1.05766e-10 6.39216e-11 5e-05 1.46608e-10 
106 1 0.363892 0.0172686 0.00737568 0.0059621 -0.00012463 3.29435e-05 -4.04396e-12 2.64935e-11 -1.03919e-11 5e-05 1.46608e-10 
107 1 0.363372 0.0154987 0.00848396 0.00579411 -2.29693e-05 0.000115173 -9.87872e-12 -4.40779e-11 2.32579e-11 5e-05 1.46608e-10 
108 1 0.370213 0.0182324 0.00696896 0.00620441 -0.000189427 6.18368e-05 2.56925e-11 -1.20051e-11 -5.10709e-13 5e-05 1.46608e-10 
109 1 0.370059 0.0183591 0.00695873 0.00618793 -0.000210918 6.32979e-05 -2.58698e-11 -8.42303e-11 6.45552e-12 5e-05 1.46608e-10 
110 1 0.369889 0.0175354 0.00726355 0.00613012 -0.000222545 6.05577e-05 1.33422e-10 2.68798e-10 -9.05897e-11 5e-05 1.46608e-10 
111 1 0.369671 0.0167346 0.00773609 0.00559369 -3.41967e-05 -5.09049e-05 4.34666e-10 -8.00676e-11 1.0804e-10 5e-05 1.46608e-10 
112 1 0.363897 0.0176619 0.0072268 0.00613509 -0.000134222 3.31338e-05 -7.35154e-11 8.56109e-15 5.93566e-11 5e-05 1.46608e-10 
113 1 0.363756 0.0170782 0.00749991 0.00582716 -6.72981e-05 -7.25312e-06 6.63938e-11 -2.30038e-10 1.09812e-10 5e-05 1.46608e-10 
114 1 0.363817 0.0173246 0.00734001 0.00598817 -8.67839e-05 7.6216e-06 5.02999e-11 5.68249e-11 -3.80763e-11 5e-05 1.46608e-10 
115 1 0.370096 0.0173695 0.00727864 0.00605259 -0.000260948 0.000109021 1.4906e-10 -1.31628e-10 9.29695e-11 5e-05 1.46608e-10 
116 1 0.369986 0.0176367 0.00708977 0.00631018 -0.000197593 6.12862e-05 -5.20765e-11 2.36539e-13 -1.70157e-11 5e-05 1.46608e-10 
117 1 0.37002 0.0174228 0.00724166 0.00612288 -0.000197207 6.33531e-05 1.78502e-10 -5.21436e-11 2.40058e-11 5e-05 1.46608e-10 
118 1 0.363997 0.0173065 0.00735031 0.00598782 -0.000173756 6.45912e-05 3.69777e-11 -1.49562e-11 -4.83834e-12 5e-05 1.46608e-10 
119 1 0.370191 0.018135 0.00697572 0.00621297 -0.000190319 6.18884e-05 6.92457e-11 -3.23997e-11 4.41049e-12 5e-05 1.46608e-10 
120 1 0.369821 0.0166256 0.0078118 0.00553858 -0.000103286 3.26857e-06 -9.05067e-11 -1.15298e-11 1.41773e-11 5e-05 1.46608e-10 
121 1 0.370092 0.0181007 0.00697739 0.00622727 -0.000210193 6.28151e-05 -8.14773e-11 -5.28877e-11 5.82106e-12 5e-05 1.46608e-10 
122 1 0.36977 0.0171332 0.00745097 0.00588877 -7.97532e-05 -1.45911e-05 -1.75806e-10 2.96208e-10 -2.29232e-10 5e-05 1.46608e-10 
123 1 0.364058 0.0183514 0.00696391 0.0061908 -0.000153525 4.90829e-05 -2.54085e-11 -5.88216e-11 -3.62238e-11 5e-05 1.46608e-10 
124 1 0.369687 0.0164409 0.00794499 0.00546726 3.42759e-05 -9.35303e-05 -3.00486e-11 3.197e-11 -2.15919e-11 5e-05 1.46608e-10 
125 1 0.369885 0.0172384 0.00737466 0.00593069 -0.000150545 3.23887e-05 6.81872e-11 1.66946e-10 -1.1193e-10 5e-05 1.46608e-10 
127 1 0.363413 0.0156652 0.00838117 0.00577667 -1.5056e-05 0.000108066 -3.00425e-12 -1.91822e-11 1.32318e-11 5e-05 1.46608e-10 
128 1 0.369592 0.0164156 0.00796419 0.00554287 -3.67214e-06 -6.75109e-05 -6.69402e-11 1.87059e-10 -1.14848e-10 5e-05 1.46608e-10 
129 1 0.37009 0.0179542 0.0070692 0.00624252 -0.000213016 5.8949e-05 -3.19232e-11 -9.37803e-11 -6.15182e-12 5e-05 1.46608e-10 
130 1 0.363933 0.0174328 0.00726914 0.00604753 -0.000150859 4.76505e-05 3.37037e-12 2.7008e-11 -1.92786e-11 5e-05 1.46608e-10 
131 1 0.363953 0.0175163 0.00721806 0.00607669 -0.000156465 5.04971e-05 -6.68955e-11 4.06512e-11 -2.72457e-11 5e-05 1.46608e-10 
132 1 0.370076 0.0172898 0.00733562 0.00594683 -0.000238805 9.46976e-05 7.34202e-12 -2.11477e-10 1.5009e-10 5e-05 1.46608e-10 
133 1 0.370006 0.0177166 0.0070326 0.00631403 -0.000187597 5.52965e-05 -8.3551e-11 -5.99575e-11 4.72378e-11 5e-05 1.46608e-10 
134 1 0.369965 0.0175571 0.00714668 0.00625487 -0.000183535 5.12343e-05 1.53978e-10 -1.657e-11 2.37263e-11 5e-05 1.46608e-10 
135 1 0.370243 0.0179702 0.00698786 0.00623254 -0.000138781 5.85264e-05 6.62421e-11 -1.65106e-11 -7.37925e-13 5e-05 1.46608e-10 
136 1 0.363831 0.0170221 0.00753558 0.00582266 -9.87831e-05 1.54769e-05 -1.62324e-11 -1.09028e-11 1.00583e-11 5e-05 1.46608e-10 
137 1 0.370101 0.0185541 0.00694519 0.00562779 -9.03045e-05 5.03245e-05 -2.65273e-11 -4.79495e-11 3.26829e-12 5e-05 1.46608e-10 
138 1 0.369849 0.0174526 0.00722258 0.00605662 -0.000202843 7.06066e-05 1.37391e-11 -2.15736e-11 -9.29143e-13 5e-05 1.46608e-10 
140 1 0.369731 0.0169738 0.00756502 0.00577917 -6.86174e-05 -2.66519e-05 7.00375e-10 3.47547e-10 -1.33407e-10 5e-05 1.46608e-10 
141 1 0.363832 0.016646 0.00777887 0.0058589 0.000186464 -0.000167728 4.12243e-11 4.9105e-11 -5.41704e-11 5e-05 1.46608e-10 
142 1 0.364207 0.0179253 0.00695086 0.0062806 -0.000136101 4.75416e-05 3.95425e-11 -2.04928e-11 -7.20454e-12 5e-05 1.46608e-10 
143 1 0.363392 0.015582 0.00843257 0.00578505 -2.07419e-05 0.0001117 1.13982e-11 -1.77434e-11 1.0904e-11 5e-05 1.46608e-10 
144 1 0.364039 0.0174712 0.00724344 0.00608333 -0.000138036 3.98446e-05 -8.73353e-11 1.15178e-10 -6.50311e-11 5e-05 1.46608e-10 
146 1 0.363556 0.0162484 0.00802132 0.00541777 5.29642e-05 5.93987e-05 -3.0549e-11 9.45819e-11 -5.62958e-11 5e-05 1.46608e-10 
147 1 0.363912 0.0173507 0.00732239 0.00601057 -0.00013984 4.17658e-05 -1.63344e-11 3.45527e-11 -2.25072e-11 5e-05 1.46608e-10 
148 1 0.363855 0.0167315 0.00772342 0.00568312 -0.000103677 1.9399e-05 -3.29149e-11 1.19438e-11 -5.31424e-13 5e-05 1.46608e-10 
149 1 0.369632 0.0165751 0.00785013 0.00549277 6.31163e-06 -7.38706e-05 -8.26574e-11 -1.72031e-10 1.24889e-10 5e-05 1.46608e-10 
150 1 0.363993 0.0180757 0.00706217 0.00614481 -0.00013409 5.8242e-05 8.02211e-11 -6.54848e-11 1.48699e-10 5e-05 1.46608e-10 
151 1 0.363918 0.0177348 0.00707424 0.00622273 -0.000136511 4.07645e-05 -7.3542e-11 -4.01347e-11 -5.5952e-12 5e-05 1.46608e-10 
153 1 0.363876 0.0168136 0.00767011 0.00571787 -0.000108511 2.10857e-05 4.30422e-11 -3.44335e-11 -1.51417e-12 5e-05 1.46608e-10 
154 1 0.352051 0.0183237 0.00692827 0.00557186 -0.000642979 0.00012509 1.32757e-12 -2.8719e-13 7.23298e-14 5e-05 1.46608e-10 
155 1 0.363939 0.0177349 0.00717202 0.00620907 -0.000132846 4.29482e-05 2.04301e-11 6.11082e-11 1.61176e-11 5e-05 1.46608e-10 
156 1 0.363812 0.0165625 0.00783056 0.0055496 -4.03209e-05 0.000120443 -8.51347e-11 6.47452e-11 -1.256e-11 5e-05 1.46608e-10 
157 1 0.0219312 0.0187687 0.00551176 -3.82873e-14 8.16813e-14 2.9589e-13 9.14345e-22 5.46094e-22 -3.28804e-23 5e-05 1.46608e-10 
158 1 0.363916 0.0169779 0.0075635 0.0058061 -0.000128069 3.63581e-05 -7.25741e-12 9.68571e-12 1.44097e-11 5e-05 1.46608e-10 
159 1 0.370177 0.0179046 0.00707798 0.00625704 -0.000172661 6.36226e-05 -9.34263e-11 -6.63148e-11 -9.94056e-12 5e-05 1.46608e-10 
160 1 0.363898 0.0176526 0.00712724 0.00616609 -0.000128469 3.32616e-05 1.85337e-11 -2.48067e-11 2.06575e-11 5e-05 1.46608e-10 
162 1 0.364184 0.0183194 0.00703678 0.00619232 -0.000121588 5.02364e-05 1.37804e-12 -2.60226e-11 -1.40972e-11 5e-05 1.46608e-10 
164 1 0.363858 0.0174234 0.00738307 0.00601396 -0.000118473 2.11455e-05 1.66964e-12 -3.64956e-11 -3.38352e-12 5e-05 1.46608e-10 
165 1 0.363981 0.0179953 0.00695127 0.00630778 -0.000147495 4.92702e-05 6.88427e-12 2.37707e-11 3.13262e-12 5e-05 1.46608e-10 
166 1 0.369869 0.0175323 0.00716556 0.00611922 -0.000208594 6.35848e-05 -3.06397e-11 3.23e-11 9.3529e-12 5e-05 1.46608e-10 
167 1 0.363963 0.0178823 0.00709208 0.00625254 -0.000149139 5.80387e-05 1.46042e-10 -1.59538e-10 6.20669e-11 5e-05 1.46608e-10 
168 1 0.364083 0.018184 0.0069585 0.00616446 -0.000146296 4.65312e-05 1.02728e-10 -1.03628e-10 -1.25165e-11 5e-05 1.46608e-10 
169 1 0.363975 0.0179815 0.00709062 0.00611938 -0.000131064 6.11398e-05 8.18488e-11 -1.20984e-10 1.66158e-10 5e-05 1.46608e-10 
170 1 0.364002 0.0180929 0.00695474 0.00627802 -0.000143327 4.88868e-05 5.52608e-11 9.24455e-11 3.55542e-12 5e-05 1.46608e-10 
171 1 0.370135 0.0182955 0.00696386 0.00619666 -0.00019873 6.24631e-05 1.17692e-13 -5.05216e-11 2.42933e-12 5e-05 1.46608e-10 
172 1 0.363736 0.0169961 0.00755321 0.00579703 -6.15907e-05 -9.06989e-06 3.70671e-10 -5.8062e-11 9.5105e-11 5e-05 1.46608e-10 
173 1 0.370015 0.0181643 0.00697226 0.00621148 -0.000236987 6.53666e-05 -4.44485e-12 2.84122e-11 -6.9179e-13 5e-05 1.46608e-10 
174 1 0.363515 0.0160817 0.00812421 0.00564923 9.72594e-06 9.07945e-05 6.33538e-11 1.57837e-11 -7.9225e-12 5e-05 1.46608e-10 
176 1 0.363957 0.0171422 0.0074569 0.00588697 -0.000152533 5.07273e-05 6.22361e-11 -1.69888e-12 2.58452e-12 5e-05 1.46608e-10 
177 1 0.36382 0.0173481 0.00743718 0.00595121 -7.27125e-05 5.73235e-06 -2.13473e-11 -8.57037e-11 -1.24634e-11 5e-05 1.46608e-10 
178 1 0.364049 0.0179381 0.00703252 0.00630122 -0.00016155 4.59724e-05 6.87983e-12 1.40763e-11 -1.26319e-11 5e-05 1.46608e-10 
179 1 0.364075 0.0179801 0.00711954 0.00627595 -0.000133342 4.29776e-05 -4.00489e-12 -1.50423e-11 -1.65366e-11 5e-05 1.46608e-10 
182 1 0.369972 0.0179695 0.0069858 0.00625407 -0.000200113 6.20487e-05 2.92807e-11 9.80415e-11 -2.35335e-11 5e-05 1.46608e-10 
183 1 0.363797 0.0172425 0.00739331 0.00594712 -7.31455e-05 1.41455e-06 -1.74742e-11 5.88154e-11 -4.34088e-11 5e-05 1.46608e-10 
184 1 0.370049 0.0179059 0.00699093 0.00624929 -0.000217153 6.4942e-05 -7.15578e-11 -2.25946e-11 -3.40835e-12 5e-05 1.46608e-10 
185 1 0.364059 0.0175534 0.00719012 0.00612371 -0.00016185 5.50641e-05 9.58683e-12 7.98905e-11 -5.94179e-11 5e-05 1.46608e-10 
186 1 0.364037 0.0182613 0.00700205 0.00619302 -0.000147833 5.44089e-05 1.0303e-11 -1.25604e-10 -8.98017e-11 5e-05 1.46608e-10 
187 1 0.370027 0.0178079 0.00699773 0.00628785 -0.00018369 6.06195e-05 7.12887e-11 -6.15567e-11 8.99592e-12 5e-05 1.46608e-10 
188 1 0.369865 0.0171587 0.00743168 0.00588554 -0.000145235 3.04098e-05 -1.27362e-10 1.23744e-10 -4.79174e-11 5e-05 1.46608e-10 
189 1 0.370012 0.0180178 0.00706413 0.00625726 -0.000228638 6.62468e-05 -9.65196e-11 -4.18869e-11 -3.06202e-11 5e-05 1.46608e-10 
190 1 0.358013 0.0181544 0.00701663 0.00632026 0.000485036 -7.8471e-05 3.09271e-12 -3.69917e-12 -1.28931e-11 5e-05 1.46608e-10 
191 1 0.369652 0.0166549 0.00779311 0.00555079 -8.13298e-06 -6.37727e-05 -2.99808e-10 -9.4295e-11 1.12712e-10 5e-05 1.46608e-10 
192 1 0.363776 0.0171604 0.00744662 0.00589772 -6.82188e-05 -3.15624e-06 -3.63991e-10 4.02188e-11 -3.87726e-11 5e-05 1.46608e-10 
193 1 0.37008 0.0184565 0.00695197 0.00617466 -0.00020813 6.2944e-05 5.09927e-12 -6.9178e-11 4.30512e-12 5e-05 1.46608e-10 
194 1 0.364248 0.018349 0.00696546 0.00618221 -9.82218e-05 5.02432e-05 -5.93345e-11 -1.12971e-10 9.03975e-13 5e-05 1.46608e-10 
195 1 0.364127 0.0180768 0.00695527 0.00629289 -0.000146367 4.85773e-05 -1.68416e-11 3.59798e-12 -7.83826e-12 5e-05 1.46608e-10 
196 1 0.36412 0.0178004 0.00702984 0.00632711 -0.000162382 5.38216e-05 -7.65362e-11 7.51295e-11 -3.14497e-11 5e-05 1.46608e-10 
197 1 0.35772 0.0169666 0.0078662 0.00592344 -0.000342661 -0.00132467 2.91141e-10 3.43929e-12 -1.56361e-10 5e-05 1.46608e-10 
198 1 0.364185 0.0176741 0.00711097 0.00627897 -0.000133085 3.55875e-05 1.02585e-10 7.54129e-11 -4.30819e-11 5e-05 1.46608e-10 
199 1 0.36431 0.0181991 0.00696094 0.00621732 -9.81954e-05 5.00579e-05 1.49345e-12 -6.51577e-11 -1.34266e-11 5e-05 1.46608e-10 
200 1 0.36377 0.0163937 0.00793469 0.00542603 -2.83618e-05 0.000110892 9.17463e-11 3.4678e-11 -2.66259e-11 5e-05 1.46608e-10 
201 1 0.364181 0.0181608 0.00695856 0.00624712 -0.000119586 4.90193e-05 1.59963e-11 8.33403e-12 -2.96262e-12 5e-05 1.46608e-10 
202 1 0.363936 0.0170601 0.00751021 0.00584895 -0.000140312 4.32371e-05 9.43717e-11 7.79622e-12 1.46176e-11 5e-05 1.46608e-10 
203 1 0.369944 0.0174775 0.00720363 0.00617834 -0.000175999 4.69011e-05 1.29372e-10 -2.63785e-11 4.45497e-11 5e-05 1.46608e-10 
204 1 0.364269 0.0184467 0.00696892 0.00573207 -3.12933e-05 4.77737e-05 7.73249e-11 9.08271e-11 2.66399e-12 5e-05 1.46608e-10 
206 1 0.363709 0.0165266 0.00785108 0.00553039 9.18961e-06 9.20652e-05 -1.36504e-11 2.10067e-11 -7.73383e-12 5e-05 1.46608e-10 
207 1 0.363669 0.0163598 0.00795402 0.0054058 2.91269e-05 7.42083e-05 -2.53226e-11 7.06805e-11 -4.68473e-11 5e-05 1.46608e-10 
208 1 0.364208 0.0178402 0.00700338 0.00631429 -0.000139891 3.87703e-05 -5.78104e-12 -2.71827e-11 3.46916e-11 5e-05 1.46608e-10 
209 1 0.363871 0.0171864 0.00742898 0.00591408 -0.000113335 2.61026e-05 -3.725e-11 1.53096e-11 -7.11584e-12 5e-05 1.46608e-10 
210 1 0.369727 0.0166005 0.0078309 0.0055258 -4.85342e-05 -3.53345e-05 -2.6462e-10 1.488e-10 -9.91245e-11 5e-05 1.46608e-10 
211 1 0.369746 0.0166803 0.00777382 0.00553719 -6.31147e-05 -2.60191e-05 2.43146e-10 -1.27201e-10 7.83683e-11 5e-05 1.46608e-10 
212 1 0.364224 0.018251 0.00696196 0.00620915 -0.000116576 4.80689e-05 1.03796e-11 -2.40913e-11 -1.71728e-11 5e-05 1.46608e-10 
213 1 0.369929 0.0177747 0.00699933 0.00628391 -0.000204795 6.41178e-05 -9.01368e-14 4.47334e-11 -1.80235e-12 5e-05 1.46608e-10 
214 1 0.369825 0.0169992 0.00754573 0.00578978 -0.000121189 1.25929e-05 3.25468e-11 2.22568e-10 -1.85233e-10 5e-05 1.46608e-10 
215 1 0.357911 0.0176853 0.00706001 0.00641963 0.000148394 -0.000530556 2.73748e-10 -3.86776e-11 2.08575e-11 5e-05 1.46608e-10 
216 1 0.363495 0.0159984 0.00817559 0.00573652 -9.37626e-06 0.00010469 8.14529e-11 -3.90991e-11 1.9477e-11 5e-05 1.46608e-10 
217 1 0.370114 0.0181981 0.00697063 0.0062102 -0.000202698 6.28295e-05 1.76992e-11 -6.66071e-11 6.13078e-12 5e-05 1.46608e-10 
218 1 0.363837 0.0174068 0.00728671 0.00603305 -9.50021e-05 1.24935e-05 -2.74061e-11 2.08554e-11 -6.11198e-12 5e-05 1.46608e-10 
219 1 0.369909 0.0176149 0.00720645 0.0062019 -0.000228636 6.6379e-05 4.78462e-11 1.72206e-10 -2.14437e-10 5e-05 1.46608e-10 
220 1 0.363973 0.017597 0.00716257 0.00612564 -0.000163961 5.58314e-05 -7.08611e-11 -1.34665e-12 -7.49112e-12 5e-05 1.46608e-10 
222 1 0.370181 0.0176878 0.00705091 0.0062928 -0.000198985 6.16176e-05 -6.0985e-11 6.69242e-11 -7.35903e-11 5e-05 1.46608e-10 
224 1 0.36375 0.0166933 0.00774825 0.00564742 -8.85698e-06 0.000102394 2.7335e-11 1.86875e-11 -2.64084e-11 5e-05 1.46608e-10 
225 1 0.369786 0.0168397 0.00765977 0.0056659 -9.15536e-05 -5.73077e-06 -1.69029e-10 8.56433e-11 -5.70462e-11 5e-05 1.46608e-10 
226 1 0.364213 0.0180251 0.00695426 0.0062966 -0.000140061 4.83313e-05 -8.26242e-11 1.43676e-11 -2.60618e-12 5e-05 1.46608e-10 
227 1 0.357929 0.0177637 0.00700067 0.00643712 0.00045463 -9.16071e-05 1.32457e-10 -1.56543e-10 -7.42283e-11 5e-05 1.46608e-10 
228 1 0.357871 0.0175344 0.00718439 0.0061648 -0.000414022 -0.00135495 1.36433e-10 3.00578e-10 -4.13187e-11 5e-05 1.46608e-10 
229 1 0.364129 0.0182815 0.00696219 0.00620541 -0.000137114 4.74896e-05 3.34607e-11 2.89418e-11 -5.33063e-11 5e-05 1.46608e-10 
230 1 0.363634 0.0165823 0.00781519 0.00557891 3.45122e-05 7.36517e-05 1.60975e-11 -2.03575e-11 1.09894e-11 5e-05 1.46608e-10 
232 1 0.36412 0.0186446 0.00697431 0.00552156 -2.28877e-05 4.63629e-05 -2.04115e-12 1.06012e-10 2.76835e-12 5e-05 1.46608e-10 
233 1 0.363939 0.0178168 0.00702064 0.00626444 -0.00014607 4.56526e-05 -9.13016e-12 -1.94733e-11 1.96188e-12 5e-05 1.46608e-10 
234 1 0.36975 0.0170535 0.007508 0.00580185 -8.34766e-05 -1.43042e-05 4.21737e-11 -6.16569e-11 -5.60629e-11 5e-05 1.46608e-10 
235 1 0.363594 0.0164154 0.00791823 0.00544346 0.000249869 -6.2157e-05 4.62984e-11 1.80899e-10 -1.11223e-10 5e-05 1.46608e-10 
236 1 0.363695 0.0168318 0.00765981 0.00570685 -3.41984e-05 -2.36452e-05 -4.53362e-11 -1.38315e-11 1.75013e-11 5e-05 1.46608e-10 
237 1 0.363716 0.0169139 0.00760651 0.00576166 -4.35261e-05 -1.77881e-05 -8.03242e-11 -4.48499e-13 2.11022e-12 5e-05 1.46608e-10 
239 1 0.357613 0.0166521 0.00823945 0.00608823 0.00123141 0.000177959 -6.19361e-10 -3.93212e-10 1.92313e-11 5e-05 1.46608e-10 
240 1 0.35768 0.0168427 0.00801783 0.00623955 -0.000492357 -0.00133309 1.59203e-11 2.36014e-12 1.37183e-10 5e-05 1.46608e-10 
241 1 0.357591 0.0165843 0.00830946 0.00606158 0.0012483 0.000178077 1.2325e-10 7.08175e-11 -2.1435e-10 5e-05 1.46608e-10 
242 1 0.36379 0.0164771 0.00788325 0.00549863 -3.73516e-05 0.000116433 3.75104e-11 2.86274e-11 -3.08778e-11 5e-05 1.46608e-10 
243 1 0.3641 0.0177178 0.00708342 0.00624438 -0.000180663 6.76038e-05 1.17668e-10 1.28021e-10 -8.86994e-11 5e-05 1.46608e-10 
244 1 0.357636 0.0167192 0.0081687 0.006084 0.000344125 -0.000614778 1.31117e-09 1.29162e-10 -5.85141e-10 5e-05 1.46608e-10 
246 1 0.357801 0.0172824 0.00748704 0.00580341 -0.000338616 -0.00129867 1.2168e-10 -1.46223e-10 7.29806e-11 5e-05 1.46608e-10 
248 1 0.364058 0.0178422 0.00709963 0.00635105 -0.000198381 4.8064e-05 -1.43856e-11 -4.30212e-11 -3.7995e-12 5e-05 1.46608e-10 
249 1 0.357754 0.0170927 0.00771453 0.00555727 -0.000263773 -0.00130793 -8.75525e-11 -7.65692e-11 9.37283e-11 5e-05 1.46608e-10 
250 1 0.383326 0.0167991 0.00831065 -1.731e-06 -0.0122765 0.0093085 -1.08891e-12 1.24054e-10 -6.9492e-11 5e-05 1.46608e-10 
251 1 0.369924 0.0173978 0.00726063 0.00609984 -0.000169628 4.4159e-05 8.22205e-11 -9.46685e-12 -1.31517e-12 5e-05 1.46608e-10 
252 1 0.357819 0.0173451 0.00741121 0.00583092 -0.000331921 -0.00131142 4.7107e-10 -1.27598e-10 -1.02534e-11 5e-05 1.46608e-10 
253 1 0.357993 0.0180567 0.00701263 0.00635276 0.000480658 -7.96747e-05 -3.36774e-11 -3.00716e-11 -1.00608e-11 5e-05 1.46608e-10 
254 1 0.35777 0.0171558 0.0076387 0.0056573 -0.00029464 -0.00129946 -6.14642e-11 -1.56092e-10 2.00094e-10 5e-05 1.46608e-10 
255 1 0.3641 0.0185468 0.00697084 0.00568657 -4.8734e-05 4.64671e-05 -9.51454e-11 1.08566e-10 1.83882e-12 5e-05 1.46608e-10 
256 1 0.364079 0.0184491 0.00696738 0.00616294 -0.000150776 4.77554e-05 4.42878e-11 4.21248e-11 -9.83447e-12 5e-05 1.46608e-10 
257 1 0.363896 0.0168958 0.00761681 0.00576134 -0.000116615 2.8211e-05 3.50086e-11 -4.23658e-11 -3.81601e-12 5e-05 1.46608e-10 
258 1 0.364085 0.0180381 0.00703862 0.00626258 -0.000141633 4.07566e-05 3.36069e-11 -2.61399e-11 -8.58695e-12 5e-05 1.46608e-10 
259 1 0.357836 0.0174082 0.00733548 0.0059753 -0.000360041 -0.00132172 -1.80619e-10 7.04646e-11 -9.29975e-11 5e-05 1.46608e-10 
260 1 0.363959 0.017899 0.00696734 0.00631652 -0.00015097 5.00294e-05 -1.20354e-11 -6.28507e-12 1.58014e-11 5e-05 1.46608e-10 
261 1 0.36415 0.0178871 0.00706984 0.00631832 -0.000143005 2.90518e-05 -9.56109e-11 1.03255e-10 -1.8632e-11 5e-05 1.46608e-10 
262 1 0.364039 0.0177576 0.00715269 0.00621232 -0.000172008 8.20404e-05 1.15513e-10 -1.03866e-10 -3.7922e-11 5e-05 1.46608e-10 