ITEM: TIMESTEP
23600000
ITEM: NUMBER OF ATOMS
283
ITEM: BOX BOUNDS ff ff ff
-0.02 0.43
-0.02 0.06
-0.02 0.07
ITEM: ATOMS id type x y z vx vy vz fx fy fz radius mass 
1 1 0.151276 0.0180265 0.00709193 0.00519154 -0.00177963 0.000481274 -3.23717e-10 2.29122e-10 2.74998e-11 5e-05 1.46608e-10 
2 1 0.150805 0.0183407 0.00699633 0.00517073 -0.00168688 0.000417942 1.04072e-10 -2.11918e-11 -1.53884e-10 5e-05 1.46608e-10 
3 1 0.144582 0.0171656 0.0079232 0.00648256 -0.000136868 0.00250215 -3.16703e-11 3.93689e-10 1.3713e-09 5e-05 1.46608e-10 
4 1 0.150746 0.0176278 0.00723829 0.00520353 -0.00162471 0.000431978 7.81268e-11 -3.19764e-11 5.65534e-11 5e-05 1.46608e-10 
5 1 0.150102 0.0156463 0.00882633 0.00517575 -0.000735805 0.00136886 1.01895e-11 -2.48046e-10 4.91799e-10 5e-05 1.46608e-10 
6 1 0.156382 0.0164574 0.00768668 0.00639492 0.000723695 -0.000108013 2.81345e-12 -3.28992e-12 1.50269e-12 5e-05 1.46608e-10 
7 1 0.150316 0.0162307 0.00791978 0.00582365 -0.000811245 0.00155878 9.86548e-10 -5.32718e-10 9.7031e-10 5e-05 1.46608e-10 
8 1 0.15064 0.0171641 0.00739715 0.00573987 -0.00181034 0.000491333 3.56436e-10 -4.98858e-10 2.25822e-10 5e-05 1.46608e-10 
9 1 0.156575 0.0172476 0.00730146 0.00585356 0.000827008 -0.000180756 7.02159e-12 -1.79629e-12 6.82297e-12 5e-05 1.46608e-10 
10 1 0.150216 0.0159645 0.00833098 0.00551754 -0.000741635 0.00138774 1.18282e-10 3.35996e-10 -5.25386e-11 5e-05 1.46608e-10 
11 1 0.150884 0.0187373 0.00701172 0.00517239 -0.00162886 0.00101868 4.28311e-11 -3.11823e-10 2.62413e-11 5e-05 1.46608e-10 
12 1 0.144344 0.016558 0.00819854 0.00534427 -8.50067e-05 0.00186398 -2.29962e-10 -8.1698e-10 2.69695e-10 5e-05 1.46608e-10 
13 1 0.150082 0.0155933 0.0089088 0.00508178 -0.00071373 0.00132676 -3.32983e-10 -2.59976e-10 3.41244e-10 5e-05 1.46608e-10 
14 1 0.144086 0.0155997 0.00886086 0.00526114 -0.000110698 0.00187291 -8.35476e-11 -2.79275e-10 2.45798e-10 5e-05 1.46608e-10 
16 1 0.144064 0.0155194 0.00891637 0.005229 -0.000188048 0.00191788 -7.3272e-11 -2.0933e-10 9.69439e-11 5e-05 1.46608e-10 
17 1 0.150198 0.0159114 0.00841369 0.00548294 -0.000749281 0.00139007 3.44718e-11 1.87162e-10 -4.40439e-10 5e-05 1.46608e-10 
19 1 0.150063 0.0155402 0.00899136 0.00533672 -0.000720927 0.00135 -1.55819e-10 -6.59885e-11 8.31146e-11 5e-05 1.46608e-10 
21 1 0.150975 0.0178738 0.00715015 0.0051392 -0.00165578 0.000445805 1.07258e-11 3.08595e-11 -1.96407e-11 5e-05 1.46608e-10 
22 1 0.150375 0.0164131 0.00769097 0.00580336 -0.00167549 0.000769836 -1.25028e-10 4.16615e-10 2.48573e-10 5e-05 1.46608e-10 
23 1 0.144482 0.0167558 0.00809043 0.00553533 -0.000352173 0.00217729 2.13726e-09 -2.27065e-11 -1.96067e-12 5e-05 1.46608e-10 
24 1 0.156512 0.0169839 0.00743006 0.00635215 0.000734888 -0.000115273 -1.19586e-12 -2.28697e-13 -1.79498e-12 5e-05 1.46608e-10 
25 1 0.150257 0.0160704 0.00816629 0.00564117 -0.000751691 0.0014269 3.48312e-11 4.54877e-11 2.24e-10 5e-05 1.46608e-10 
26 1 0.156609 0.0170139 0.00741895 0.00634413 0.000737048 -0.000116638 -4.2082e-12 -1.48093e-11 7.35617e-12 5e-05 1.46608e-10 
27 1 0.144736 0.0176412 0.00759185 0.0077589 0.00594839 -0.000270212 -3.53643e-10 2.65902e-10 -1.27605e-09 5e-05 1.46608e-10 
28 1 0.150821 0.0175651 0.00725779 0.00525635 -0.00156285 0.000411335 -8.71377e-11 -6.16542e-11 9.82282e-13 5e-05 1.46608e-10 
29 1 0.15004 0.0154875 0.00907319 0.00584633 -0.000758524 0.00143205 -6.0998e-12 1.49077e-10 -2.425e-10 5e-05 1.46608e-10 
30 1 0.150704 0.0174418 0.00730199 0.00532119 -0.00165225 0.000441504 -1.57501e-10 4.16334e-11 -2.50326e-11 5e-05 1.46608e-10 
31 1 0.150277 0.0161237 0.00808411 0.00567771 -0.000751422 0.00147585 -6.66221e-11 6.36374e-13 4.48347e-10 5e-05 1.46608e-10 
32 1 0.150397 0.0164915 0.00763288 0.00588491 -0.00188515 0.000441937 -1.7062e-10 -8.68502e-10 -1.76965e-09 5e-05 1.46608e-10 
33 1 0.156404 0.0165452 0.00764391 0.00638785 0.000725257 -0.000109101 -4.32592e-12 3.46464e-12 -1.78063e-12 5e-05 1.46608e-10 
34 1 0.150181 0.0158591 0.00849724 0.00541134 -0.000746514 0.00140293 3.91476e-12 2.69038e-10 -4.75741e-10 5e-05 1.46608e-10 
35 1 0.150354 0.0163525 0.0077677 0.00584611 -0.00107287 0.00131816 6.23425e-10 3.18933e-09 3.12361e-09 5e-05 1.46608e-10 
36 1 0.156614 0.0174238 0.00721541 0.00592661 0.000817432 -0.00017302 1.92372e-12 -3.09555e-12 -6.66624e-13 5e-05 1.46608e-10 
37 1 0.150333 0.0162826 0.00783604 0.00584032 -0.00084719 0.00156906 1.45699e-09 7.32752e-10 1.35437e-09 5e-05 1.46608e-10 
38 1 0.150841 0.0176579 0.00722602 0.00519498 -0.00169553 0.000457255 -2.74881e-10 -1.14064e-10 4.21476e-11 5e-05 1.46608e-10 
39 1 0.156534 0.0170717 0.00738729 0.0063444 0.000736694 -0.000116511 5.14804e-12 -5.29776e-12 3.31519e-12 5e-05 1.46608e-10 
41 1 0.150139 0.0157539 0.00866189 0.00529212 -0.000751814 0.00140671 -2.63158e-11 -1.56844e-11 -2.89173e-11 5e-05 1.46608e-10 
42 1 0.150448 0.0166731 0.00756734 0.00583901 -0.00178168 0.000504218 -2.74569e-10 -2.10598e-10 -1.30484e-10 5e-05 1.46608e-10 
44 1 0.150861 0.0177506 0.00719426 0.00519456 -0.00169179 0.000456143 -3.47065e-11 -3.07926e-10 1.08709e-10 5e-05 1.46608e-10 
45 1 0.156425 0.0166329 0.00760114 0.00638038 0.000726738 -0.000110103 2.23938e-12 -8.69039e-13 4.59492e-13 5e-05 1.46608e-10 
47 1 0.150158 0.0158055 0.00857847 0.00534003 -0.000753946 0.00140446 3.01572e-10 2.63765e-10 -2.06869e-10 5e-05 1.46608e-10 
48 1 0.150905 0.0188301 0.00704294 0.00545537 -0.00172145 0.00107521 5.71277e-11 -4.62769e-10 2.05338e-10 5e-05 1.46608e-10 
49 1 0.15665 0.0171899 0.00733309 0.00585459 0.000827766 -0.000181083 4.4417e-12 -1.28283e-12 1.50055e-12 5e-05 1.46608e-10 
50 1 0.150545 0.0171362 0.00740948 0.00570977 -0.00184296 0.000516391 1.62308e-10 4.60053e-10 -4.44191e-11 5e-05 1.46608e-10 
51 1 0.150524 0.0170435 0.00744044 0.00576107 -0.00183201 0.00049917 -2.36977e-11 6.77667e-10 -2.74489e-11 5e-05 1.46608e-10 
52 1 0.144323 0.0164777 0.00825405 0.00530819 -3.64163e-05 0.00178688 -2.2151e-10 -6.71164e-10 4.89456e-10 5e-05 1.46608e-10 
53 1 0.156469 0.0168084 0.0075156 0.00636608 0.000730627 -0.000112594 2.31533e-12 2.27458e-12 -1.72512e-12 5e-05 1.46608e-10 
54 1 0.15107 0.0179041 0.00713782 0.00511339 -0.00164689 0.000443349 -1.5353e-10 5.20425e-11 -1.05194e-12 5e-05 1.46608e-10 
55 1 0.144129 0.0157603 0.00874986 0.00531425 -0.000104705 0.00189902 -4.03384e-10 3.7917e-10 -8.39753e-10 5e-05 1.46608e-10 
56 1 0.150461 0.0167694 0.00754419 0.00576124 -0.00177012 0.000470522 6.28251e-10 -1.28818e-10 -2.54955e-10 5e-05 1.46608e-10 
57 1 0.156447 0.0167207 0.00755837 0.00637314 0.000728601 -0.000111338 1.85623e-13 9.53912e-13 1.19404e-15 5e-05 1.46608e-10 
59 1 0.378022 0.019866 0.005332 -5.0197e-15 -7.41206e-15 7.69802e-14 5.93244e-24 -3.59307e-24 0 5e-05 1.46608e-10 
60 1 0.150936 0.0176882 0.00721368 0.00523275 -0.00166846 0.00044732 1.50523e-10 -2.41649e-10 7.56053e-11 5e-05 1.46608e-10 
61 1 0.15012 0.0156994 0.00874357 0.00525107 -0.000747384 0.00139932 -3.0103e-10 -1.59623e-10 2.35672e-10 5e-05 1.46608e-10 
62 1 0.15088 0.0178435 0.00716247 0.0051527 -0.00167332 0.000452018 6.41132e-11 7.02018e-11 -1.11411e-11 5e-05 1.46608e-10 
63 1 0.151072 0.0187855 0.00705126 0.00537877 -0.00159632 0.00105989 7.51669e-10 1.05453e-10 1.53996e-10 5e-05 1.46608e-10 
64 1 0.156491 0.0168962 0.00747283 0.0063589 0.000732761 -0.000113955 -3.01456e-12 8.93533e-13 8.73371e-13 5e-05 1.46608e-10 
65 1 0.144663 0.0177348 0.00749246 0.00638652 0.000820325 0.000336616 0 0 -1.43822e-09 5e-05 1.46608e-10 
66 1 0.144796 0.0179202 0.00740656 0.00633873 0.00506242 -0.00014515 1.06214e-11 -3.00669e-10 1.03399e-09 5e-05 1.46608e-10 
67 1 0.150957 0.0182165 0.00703947 0.00512089 -0.00165335 0.000466771 4.04902e-11 4.22495e-11 2.70708e-10 5e-05 1.46608e-10 
68 1 0.150899 0.0179363 0.00713071 0.00513394 -0.0016627 0.000448094 1.55145e-10 1.13367e-10 -8.53733e-11 5e-05 1.46608e-10 
69 1 0.150994 0.0179666 0.00711839 0.00512843 -0.00164886 0.000442361 8.16753e-12 7.87663e-11 -3.42367e-11 5e-05 1.46608e-10 
70 1 0.156555 0.0171595 0.00734448 0.00581767 0.000832658 -0.000184817 3.57119e-12 -1.12025e-11 -1.19348e-13 5e-05 1.46608e-10 
71 1 0.144107 0.01568 0.00880536 0.00524415 -0.000122799 0.00187517 6.07877e-10 6.91884e-10 -3.76277e-10 5e-05 1.46608e-10 
72 1 0.151071 0.0183476 0.00704041 0.0051926 -0.00161126 0.00102104 9.04013e-11 -1.42412e-10 -2.49297e-11 5e-05 1.46608e-10 
73 1 0.150236 0.0160176 0.0082485 0.00558662 -0.000730249 0.00140591 -4.85182e-10 1.74991e-10 1.7553e-10 5e-05 1.46608e-10 
74 1 0.150662 0.0172566 0.00736545 0.00565619 -0.00165139 0.000433814 3.49481e-11 -1.18071e-11 7.32431e-11 5e-05 1.46608e-10 
76 1 0.144656 0.0173346 0.0076962 0.00709492 0.000132953 0.00241455 -2.97735e-09 1.23498e-10 8.86404e-10 5e-05 1.46608e-10 
77 1 0.150862 0.0181852 0.00704904 0.00511345 -0.0016804 0.000407168 -3.775e-11 -2.62663e-11 8.36842e-11 5e-05 1.46608e-10 
78 1 0.144172 0.01592 0.00863948 0.00530359 -5.67837e-05 0.00184441 4.76076e-11 1.72056e-10 -1.18347e-10 5e-05 1.46608e-10 
79 1 0.144753 0.0177228 0.00753642 0.00930516 0.00541124 -0.000669139 0 0 -1.43822e-09 5e-05 1.46608e-10 
80 1 0.150609 0.0174142 0.00731666 0.00536309 -0.00178552 0.000483833 -1.39478e-10 -3.58264e-10 1.57034e-10 5e-05 1.46608e-10 
81 1 0.144543 0.0172772 0.0078523 0.00671275 -0.000444952 0.00228811 -8.82539e-10 -1.20223e-10 1.07461e-10 5e-05 1.46608e-10 
82 1 0.144411 0.0168033 0.00802899 0.00529776 -0.000393627 0.0021062 4.20808e-11 1.53579e-10 -1.04472e-10 5e-05 1.46608e-10 
83 1 0.144517 0.0165652 0.0082515 0.0054547 4.29119e-06 0.00185139 6.68848e-11 -8.74254e-10 5.25841e-10 5e-05 1.46608e-10 
84 1 0.156595 0.0173357 0.00725843 0.00589025 0.000822364 -0.000177018 -1.84875e-13 -6.62788e-12 3.7058e-12 5e-05 1.46608e-10 
85 1 0.144287 0.0160398 0.00858477 0.00533591 -0.000143315 0.00192299 2.24028e-10 -1.08322e-11 2.56599e-12 5e-05 1.46608e-10 
86 1 0.150725 0.0175344 0.00727026 0.00521252 -0.00163809 0.000435714 4.0962e-11 -2.1841e-10 1.33363e-10 5e-05 1.46608e-10 
87 1 0.150417 0.016583 0.00759826 0.00585315 -0.00182593 0.000480842 -6.08218e-10 -2.12758e-10 1.41483e-10 5e-05 1.46608e-10 
88 1 0.150868 0.0183423 0.00711619 0.00469465 -0.00170545 0.000701316 -1.18228e-10 -1.23606e-10 1.76302e-10 5e-05 1.46608e-10 
89 1 0.15083 0.0182499 0.00711806 0.00505452 -0.00185698 0.000528792 -2.33268e-10 1.61122e-11 -1.57864e-11 5e-05 1.46608e-10 
90 1 0.150852 0.0185611 0.00713192 0.005221 -0.00186615 0.00117584 7.71916e-11 1.82691e-10 2.42642e-10 5e-05 1.46608e-10 
91 1 0.144366 0.0166383 0.00814304 0.00536008 -0.000101461 0.00190272 3.87343e-10 3.72258e-10 -4.27131e-10 5e-05 1.46608e-10 
92 1 0.150975 0.0183142 0.00701998 0.00511242 -0.00158839 0.000997256 -8.99906e-11 -3.52648e-10 5.50923e-11 5e-05 1.46608e-10 
93 1 0.150671 0.0176908 0.00721866 0.00515305 -0.0016874 0.000457676 1.72228e-10 -6.81526e-11 4.80282e-11 5e-05 1.46608e-10 
94 1 0.150965 0.0186448 0.00702584 0.00516738 -0.00159068 0.00101568 -9.0483e-11 -2.29203e-10 -8.55787e-12 5e-05 1.46608e-10 
95 1 0.150849 0.0184742 0.00708252 0.00521721 -0.00176941 0.00103588 -2.49017e-10 2.80239e-10 -1.18669e-10 5e-05 1.46608e-10 
96 1 0.150996 0.0184124 0.00702668 0.00517463 -0.00161653 0.00101648 -6.80008e-11 -2.50363e-10 -6.11268e-11 5e-05 1.46608e-10 
97 1 0.144282 0.0163284 0.00835717 0.00529789 -0.000225373 0.00197487 1.46859e-10 1.07402e-10 4.82292e-11 5e-05 1.46608e-10 
98 1 0.15065 0.0175982 0.00725038 0.00517778 -0.00170494 0.000463177 -1.65885e-10 -2.95364e-10 1.72499e-11 5e-05 1.46608e-10 
99 1 0.144916 0.0184972 0.00699557 -3.74991e-05 0.0111109 0.00124518 0 0 -1.43822e-09 5e-05 1.46608e-10 
100 1 0.150919 0.0180292 0.00709894 0.00512354 -0.00165976 0.00044564 2.06773e-11 8.13838e-11 -2.33116e-11 5e-05 1.46608e-10 
101 1 0.144703 0.0175387 0.00765374 0.00650202 0.000461153 0.00192601 4.11715e-09 5.46524e-10 2.3433e-09 5e-05 1.46608e-10 
102 1 0.0643568 0.0187248 0.00531097 4.47646e-15 1.04669e-14 8.29533e-14 -1.37415e-21 4.06947e-22 2.7297e-23 5e-05 1.46608e-10 
103 1 0.24257 0.0191927 0.00520306 5.30818e-23 2.24983e-22 -5.81428e-22 0 0 0 5e-05 1.46608e-10 
104 1 0.144667 0.0171019 0.00788234 0.0067146 -0.000217966 0.00243204 2.33794e-09 -6.90454e-10 1.55996e-09 5e-05 1.46608e-10 
105 1 0.144237 0.0161609 0.00847295 0.00527353 -0.000197826 0.00194477 -3.53814e-10 -6.68647e-11 -1.5952e-10 5e-05 1.46608e-10 
106 1 0.144818 0.0172767 0.00779668 0.00867141 0.00221968 0.00120654 -6.55814e-10 3.60857e-10 -4.39123e-10 5e-05 1.46608e-10 
107 1 0.144194 0.0160003 0.00858396 0.00531773 -8.84338e-05 0.00188322 3.26281e-10 7.64217e-10 -3.83613e-10 5e-05 1.46608e-10 
108 1 0.151013 0.0180596 0.00708658 0.00512701 -0.00165453 0.000444001 -6.15467e-11 -5.15234e-11 2.62618e-11 5e-05 1.46608e-10 
109 1 0.150504 0.0169512 0.00747371 0.00580561 -0.00181282 0.000488685 -6.57742e-10 8.01362e-10 1.05643e-10 5e-05 1.46608e-10 
110 1 0.150786 0.0182478 0.00702806 0.00515389 -0.00165764 0.00044726 -1.89302e-12 -9.29331e-12 -1.8387e-10 5e-05 1.46608e-10 
111 1 0.150749 0.018062 0.00709163 0.00512172 -0.0016589 0.000446192 1.59941e-10 1.31519e-10 -3.46371e-11 5e-05 1.46608e-10 
112 1 0.144305 0.0164236 0.00833631 0.00502665 2.62335e-06 0.00165174 6.3029e-10 -3.63955e-10 3.88646e-10 5e-05 1.46608e-10 
113 1 0.144945 0.0181843 0.00712924 0.00526131 0.000525092 0.0013738 -3.5801e-10 1.64967e-10 -2.46295e-10 5e-05 1.46608e-10 
114 1 0.145051 0.0185659 0.0068665 0.00706612 0.0028421 0.000138924 -7.13526e-10 -1.01777e-10 7.28994e-10 5e-05 1.46608e-10 
115 1 0.150683 0.0173493 0.0073337 0.00547168 -0.00164276 0.000432452 1.21632e-10 -2.19114e-10 5.67855e-11 5e-05 1.46608e-10 
116 1 0.151089 0.017997 0.00710603 0.00513548 -0.00164427 0.000439943 -6.80889e-11 9.16678e-11 -2.39718e-11 5e-05 1.46608e-10 
117 1 0.151031 0.0177185 0.00720132 0.0051638 -0.00167064 0.000449562 9.43044e-11 8.54751e-11 -2.85859e-11 5e-05 1.46608e-10 
118 1 0.144495 0.0171157 0.00792371 0.00618317 -0.000183922 0.00221516 -3.03684e-10 2.82299e-10 -1.81233e-10 5e-05 1.46608e-10 
119 1 0.151032 0.0181527 0.00705484 0.0051231 -0.00166522 0.000427453 7.54538e-11 -1.29192e-11 -4.46622e-11 5e-05 1.46608e-10 
120 1 0.1503 0.0161766 0.00800232 0.00578326 -0.000663346 0.00160637 -7.37833e-10 -2.82547e-10 5.83032e-10 5e-05 1.46608e-10 
121 1 0.151253 0.0181216 0.00707195 0.0050466 -0.0016981 0.000993161 -2.5608e-10 6.29212e-11 -1.09279e-10 5e-05 1.46608e-10 
122 1 0.150901 0.0183799 0.00702941 0.00509055 -0.00163037 0.00088379 -1.12292e-10 -2.18819e-10 1.54993e-10 5e-05 1.46608e-10 
123 1 0.144329 0.0162005 0.00847311 0.0051219 1.86157e-05 0.00171773 -4.1121e-10 -7.42957e-10 3.84181e-10 5e-05 1.46608e-10 
124 1 0.150629 0.0175057 0.00728207 0.00524356 -0.00173975 0.000471149 -4.27794e-10 -3.58099e-10 7.53325e-11 5e-05 1.46608e-10 
125 1 0.150956 0.017781 0.00718192 0.00516306 -0.00166376 0.000447224 -1.96731e-11 -3.07625e-11 1.6132e-11 5e-05 1.46608e-10 
127 1 0.14426 0.0162453 0.00841462 0.00525905 -0.000338435 0.00204993 4.70311e-11 1.83893e-10 -1.3009e-10 5e-05 1.46608e-10 
128 1 0.150566 0.0172284 0.00737711 0.00566534 -0.00184932 0.000524498 4.90512e-11 8.0553e-11 -1.98945e-11 5e-05 1.46608e-10 
129 1 0.150943 0.0184441 0.00710488 0.00519706 -0.00156421 0.00102064 2.47971e-10 -2.50081e-10 -4.50047e-11 5e-05 1.46608e-10 
130 1 0.14451 0.0168358 0.00803719 0.00599367 -0.000407447 0.00236646 4.80379e-10 3.63649e-10 2.24079e-10 5e-05 1.46608e-10 
131 1 0.144882 0.0182565 0.00715917 0.00583084 -0.000201438 0.00222409 1.87888e-10 -1.41969e-10 -3.98929e-10 5e-05 1.46608e-10 
132 1 0.150765 0.0177205 0.00720653 0.00516178 -0.00170822 0.000462017 9.27811e-11 2.47159e-10 -9.48631e-11 5e-05 1.46608e-10 
133 1 0.151083 0.0185826 0.00704846 0.00516152 -0.00164695 0.00101334 2.41104e-10 3.48671e-11 5.06172e-11 5e-05 1.46608e-10 
134 1 0.151051 0.01825 0.00703382 0.0051567 -0.00160944 0.00102314 1.6532e-10 -1.57489e-10 7.26962e-11 5e-05 1.46608e-10 
135 1 0.150897 0.0175024 0.00727727 0.00535328 -0.0014546 0.000372649 -1.10477e-10 8.71842e-11 -2.71139e-11 5e-05 1.46608e-10 
136 1 0.144266 0.0159595 0.00864028 0.00531291 -0.00012225 0.00189174 -2.15893e-10 2.19971e-11 6.01256e-11 5e-05 1.46608e-10 
137 1 0.150865 0.0186393 0.00701673 0.0051693 -0.00162298 0.00101242 -3.77174e-11 -4.05775e-10 -5.31001e-11 5e-05 1.46608e-10 
138 1 0.151219 0.0182155 0.00706725 0.00520654 -0.0016251 0.00101968 6.03037e-12 -3.82247e-11 -2.00959e-11 5e-05 1.46608e-10 
140 1 0.150825 0.0184387 0.00699227 0.00519027 -0.00168235 0.00101231 -6.38876e-11 -5.18983e-11 -5.68839e-11 5e-05 1.46608e-10 
141 1 0.144309 0.0161201 0.00852927 0.00534461 -0.000150206 0.00193295 -1.10169e-10 3.67816e-10 -3.32166e-10 5e-05 1.46608e-10 
142 1 0.144628 0.0169262 0.00803871 0.00602396 -0.000373015 0.00234459 -5.08049e-10 8.52454e-10 -9.46306e-10 5e-05 1.46608e-10 
143 1 0.144216 0.0160806 0.00852846 0.00530396 -0.000170175 0.00193699 1.19382e-10 2.19606e-10 -7.71964e-11 5e-05 1.46608e-10 
144 1 0.144826 0.0176769 0.00748608 0.00847652 0.00469603 -0.000811536 -3.08649e-10 1.79058e-10 -4.09196e-10 5e-05 1.46608e-10 
146 1 0.144667 0.0167715 0.00814087 0.00624575 -0.000141162 0.00223037 8.38014e-10 -1.22459e-09 1.38248e-09 5e-05 1.46608e-10 
147 1 0.144245 0.0158792 0.00869612 0.00521892 -0.000113508 0.00183756 9.194e-11 -2.05406e-10 6.98305e-11 5e-05 1.46608e-10 
148 1 0.144469 0.0170194 0.00787962 0.00538896 -0.000380939 0.00211779 1.32214e-09 7.26648e-10 -4.2403e-10 5e-05 1.46608e-10 
149 1 0.15071 0.0178763 0.00715516 0.00516233 -0.00168114 0.000453133 7.51187e-11 2.01267e-10 -6.65349e-11 5e-05 1.46608e-10 
150 1 0.144417 0.016518 0.00825447 0.00528478 -0.000157408 0.00190771 -7.07325e-10 -7.84063e-10 6.06973e-11 5e-05 1.46608e-10 
151 1 0.145104 0.018445 0.00697908 0.00286684 0.0037285 -0.00194583 2.93106e-11 1.28275e-10 -1.04204e-10 5e-05 1.46608e-10 
153 1 0.144378 0.0163609 0.00836416 0.00496318 -5.49064e-05 0.00178986 2.04927e-10 -3.05727e-10 2.90753e-10 5e-05 1.46608e-10 
154 1 0.144566 0.0170604 0.00788058 0.0060906 -0.000288666 0.00227125 -8.65536e-10 6.95917e-10 -8.59383e-10 5e-05 1.46608e-10 
155 1 0.144669 0.01745 0.00761036 0.00716583 -0.00057222 0.00302399 -1.60854e-09 4.51989e-10 -1.04066e-09 5e-05 1.46608e-10 
156 1 0.144451 0.0169699 0.0079647 0.0061745 -0.000439206 0.00228237 8.09214e-10 7.48672e-11 -9.66485e-10 5e-05 1.46608e-10 
157 1 0.0219312 0.0187687 0.00551176 -3.83728e-14 8.16582e-14 2.95885e-13 1.64942e-21 5.46611e-22 6.01774e-23 5e-05 1.46608e-10 
158 1 0.144691 0.0171824 0.00782722 0.00683418 0.000201795 0.00220223 4.82267e-09 -1.42999e-09 1.72196e-09 5e-05 1.46608e-10 
159 1 0.150785 0.0178133 0.00717477 0.00518638 -0.0016796 0.000452565 -2.27131e-11 -6.85263e-11 9.97907e-12 5e-05 1.46608e-10 
160 1 0.144558 0.0173553 0.0076924 0.0065989 -0.000992899 0.00220539 -2.759e-09 -7.98602e-10 -1.17591e-09 5e-05 1.46608e-10 
162 1 0.144594 0.0171404 0.00782712 0.00668797 -0.000215374 0.00247345 2.21899e-09 -8.05316e-11 7.18402e-10 5e-05 1.46608e-10 
164 1 0.144763 0.0177801 0.00738384 0.00601758 0.000448469 0.00169423 -3.92189e-10 -2.53976e-10 -1.29966e-10 5e-05 1.46608e-10 
165 1 0.144957 0.0179206 0.00733979 0.00681692 0.00180899 0.000897373 -8.07032e-10 5.12635e-10 -6.75191e-10 5e-05 1.46608e-10 
166 1 0.151001 0.0188549 0.00703849 0.00540918 -0.00160699 0.00106797 2.20613e-10 -1.66892e-10 1.57405e-10 5e-05 1.46608e-10 
167 1 0.144406 0.0164491 0.00832605 0.0052234 -0.000152302 0.00188334 -2.5051e-10 2.34225e-11 3.20123e-10 5e-05 1.46608e-10 
168 1 0.144813 0.0173738 0.00771873 0.00883903 0.000671759 0.00250692 -6.63396e-10 2.92674e-10 -3.33497e-10 5e-05 1.46608e-10 
169 1 0.145039 0.0183298 0.0070471 0.00100334 0.00341974 -0.00233655 5.10227e-10 -2.17848e-10 3.42827e-10 5e-05 1.46608e-10 
170 1 0.144926 0.0177236 0.00748327 0.00827664 0.00371377 -9.57152e-05 -6.18793e-10 4.41622e-10 -5.57577e-10 5e-05 1.46608e-10 
171 1 0.151149 0.0182857 0.00705466 0.00520609 -0.00160578 0.00102351 -8.15743e-11 -2.70459e-10 -1.27885e-11 5e-05 1.46608e-10 
172 1 0.145021 0.0186755 0.00683451 0.00276276 0.00386075 -0.00122209 -3.28361e-10 -1.75177e-10 9.13379e-11 5e-05 1.46608e-10 
173 1 0.151011 0.0185146 0.0070322 0.00514965 -0.00162728 0.00101118 2.36907e-11 1.85946e-10 -4.82324e-12 5e-05 1.46608e-10 
174 1 0.144754 0.0174271 0.00765728 0.00784217 7.60765e-05 0.00269867 -4.68093e-10 6.887e-10 -8.10608e-10 5e-05 1.46608e-10 
175 1 0.138577 0.017245 0.00721639 0.0057152 -0.000563992 0.000419513 -1.2667e-11 9.39411e-11 2.89359e-11 5e-05 1.46608e-10 
176 1 0.144537 0.0169201 0.00798034 0.00614284 -0.000472039 0.00248457 2.84083e-10 -4.70334e-10 -2.03976e-10 5e-05 1.46608e-10 
177 1 0.144596 0.0174899 0.00755446 0.00537275 -0.000352269 0.00208039 -4.8884e-11 -2.92317e-10 6.02366e-10 5e-05 1.46608e-10 
178 1 0.144928 0.0184887 0.00689149 0.00506636 -0.000368287 -0.000167692 2.12082e-09 -1.3573e-09 7.10772e-10 5e-05 1.46608e-10 
179 1 0.14504 0.0182238 0.0071305 0.00572627 0.00115079 0.0010434 1.61252e-10 2.1542e-10 -1.44988e-10 5e-05 1.46608e-10 
181 1 0.144513 0.0171947 0.00780231 0.00652206 -0.000444021 0.00263864 6.63698e-10 -8.22131e-10 -4.98769e-10 5e-05 1.46608e-10 
182 1 0.151188 0.017983 0.00710856 0.00513706 -0.00169182 0.000459605 -1.50927e-10 2.17906e-10 -4.11253e-11 5e-05 1.46608e-10 
183 1 0.144876 0.0176175 0.00754941 0.0101411 0.00580362 -0.00110482 -7.10996e-10 3.58461e-10 -6.05465e-10 5e-05 1.46608e-10 
184 1 0.151087 0.0184506 0.00704607 0.00513571 -0.00162312 0.00100883 -5.69063e-11 1.09938e-10 1.32282e-11 5e-05 1.46608e-10 
185 1 0.144531 0.0170385 0.00797587 0.00605693 -0.000309683 0.00216557 -3.58282e-10 2.81677e-10 -4.95068e-10 5e-05 1.46608e-10 
186 1 0.144491 0.0170997 0.00782421 0.00593559 -0.000354128 0.00233728 8.51237e-10 2.20489e-10 -9.73992e-10 5e-05 1.46608e-10 
187 1 0.150982 0.0187441 0.00703185 0.00518057 -0.00162925 0.00101951 1.76699e-10 -7.06576e-11 5.13789e-11 5e-05 1.46608e-10 
188 1 0.150843 0.0180918 0.00707945 0.00511879 -0.00166795 0.000444909 1.32045e-11 3.67211e-11 -4.49029e-13 5e-05 1.46608e-10 
189 1 0.151057 0.0186792 0.00704555 0.00518683 -0.00163668 0.00101922 4.00326e-10 1.428e-10 7.68921e-11 5e-05 1.46608e-10 
190 1 0.138753 0.0176612 0.00713894 0.00549414 -0.000515058 0.000421809 5.90281e-10 -1.94246e-10 1.92748e-11 5e-05 1.46608e-10 
191 1 0.150729 0.0179691 0.0071234 0.00514434 -0.00167175 0.00045151 1.72788e-10 1.82098e-10 -8.96723e-11 5e-05 1.46608e-10 
192 1 0.144705 0.0170356 0.00794704 0.00649528 -0.000311469 0.00243708 -2.38862e-09 4.12377e-09 -4.16229e-09 5e-05 1.46608e-10 
193 1 0.151139 0.0180784 0.00707743 0.00514794 -0.00163601 0.00044327 -1.04818e-11 7.74358e-11 -5.3183e-11 5e-05 1.46608e-10 
194 1 0.144537 0.0166501 0.00819189 0.00594554 0.000938787 0.0013095 2.36207e-09 -1.44386e-09 1.15422e-09 5e-05 1.46608e-10 
195 1 0.144996 0.0184391 0.00694699 0.00394978 0.0020616 -0.000273395 -7.66567e-10 3.98987e-10 -5.72503e-10 5e-05 1.46608e-10 
196 1 0.144042 0.0154391 0.00897187 0.00520461 -0.000249958 0.00196383 1.03156e-10 4.48547e-10 -2.86517e-10 5e-05 1.46608e-10 
197 1 0.138638 0.0175331 0.00715951 0.00545958 -0.000490467 0.000396331 -2.78835e-10 -2.54967e-10 -5.03173e-12 5e-05 1.46608e-10 
198 1 0.144611 0.0173688 0.00777891 0.00642841 -0.00163776 0.00263723 -4.77538e-10 2.36874e-09 4.06498e-10 5e-05 1.46608e-10 
199 1 0.144617 0.0172209 0.00777199 0.00641212 -0.000252522 0.00241373 -2.47585e-09 -9.83977e-10 -2.88954e-09 5e-05 1.46608e-10 
200 1 0.144388 0.016721 0.00808586 0.00553667 0.000520449 0.00147164 1.13851e-11 4.35821e-11 -3.04845e-11 5e-05 1.46608e-10 
201 1 0.144968 0.0182645 0.00707422 0.00514273 0.000502168 0.00134382 3.6722e-11 2.69055e-10 -2.66706e-10 5e-05 1.46608e-10 
202 1 0.144767 0.0171472 0.00788083 0.00706018 0.000718814 0.00183343 -8.08957e-10 5.97219e-10 -7.42912e-10 5e-05 1.46608e-10 
203 1 0.150938 0.0181222 0.00706714 0.00512058 -0.00165816 0.000463594 4.88037e-11 6.01602e-11 3.05394e-10 5e-05 1.46608e-10 
204 1 0.144452 0.0166885 0.00815779 0.00514548 -0.000277819 0.00197002 1.22451e-09 1.80312e-11 3.4859e-10 5e-05 1.46608e-10 
205 1 0.144718 0.0176172 0.00749604 0.00652877 0.00110268 0.00136276 3.51137e-10 -6.23078e-10 7.17236e-10 5e-05 1.46608e-10 
206 1 0.144787 0.0175594 0.00756473 0.00506024 0.00488647 -0.00211087 -4.07008e-10 5.90651e-11 -1.59804e-10 5e-05 1.46608e-10 
207 1 0.144353 0.0162807 0.00841861 0.00489061 -3.48792e-05 0.00170181 3.10147e-10 5.95435e-11 3.61036e-10 5e-05 1.46608e-10 
208 1 0.14474 0.0173099 0.00774414 0.00780623 0.001095 0.00177232 -5.8637e-10 2.79173e-10 -2.40751e-10 5e-05 1.46608e-10 
209 1 0.144439 0.0165983 0.00819897 0.00527629 -0.000223351 0.00196102 -1.33425e-09 -1.48739e-09 1.05202e-09 5e-05 1.46608e-10 
210 1 0.150588 0.0173208 0.00734543 0.00551933 -0.00182342 0.000500785 -6.37796e-11 -1.79617e-10 9.08693e-11 5e-05 1.46608e-10 
211 1 0.150824 0.017999 0.00711122 0.00513509 -0.00166618 0.000448158 1.68771e-10 1.3169e-10 -5.27668e-11 5e-05 1.46608e-10 
212 1 0.144959 0.0178202 0.00741907 0.00982066 0.0058242 -0.00122821 9.27283e-10 8.20248e-11 2.15948e-10 5e-05 1.46608e-10 
213 1 0.151146 0.0187197 0.00706479 0.00523306 -0.00172153 0.00102641 7.11961e-10 -7.7923e-11 1.57807e-10 5e-05 1.46608e-10 
214 1 0.150805 0.0179062 0.00714298 0.00515309 -0.00167178 0.000450211 1.6178e-10 2.02602e-10 -9.54062e-11 5e-05 1.46608e-10 
215 1 0.138713 0.017469 0.00717693 0.00571919 -0.000565849 0.000425213 2.37257e-10 -3.54208e-11 1.81678e-11 5e-05 1.46608e-10 
216 1 0.144574 0.0174095 0.00760996 0.0053855 -0.000287917 0.00205398 7.52543e-11 8.50374e-11 1.47331e-11 5e-05 1.46608e-10 
217 1 0.15113 0.0181735 0.00704811 0.00511537 -0.00145463 0.00100462 -2.71332e-11 1.11707e-10 -5.46989e-11 5e-05 1.46608e-10 
218 1 0.145123 0.0185254 0.0069227 0.00800906 0.00373935 -0.0002178 5.89181e-10 -1.86657e-10 -8.1671e-11 5e-05 1.46608e-10 
219 1 0.15069 0.0177836 0.00718691 0.00515536 -0.00168646 0.000454598 1.7838e-10 1.54225e-10 -8.8849e-12 5e-05 1.46608e-10 
220 1 0.144537 0.0172781 0.00775246 0.0063186 -0.000656671 0.00234972 -1.82289e-09 -3.8142e-09 -1.69554e-09 5e-05 1.46608e-10 
221 1 0.138652 0.0171804 0.00723388 0.00570291 -0.000555386 0.000415609 8.19542e-11 -6.60424e-11 -1.69313e-11 5e-05 1.46608e-10 
222 1 0.150481 0.016859 0.00750444 0.00577593 -0.00178879 0.000467374 1.12951e-10 3.58346e-10 -1.47319e-11 5e-05 1.46608e-10 
223 1 0.144612 0.016982 0.00795732 0.00607024 -0.000359809 0.00233465 -4.72691e-10 6.93004e-10 -9.80469e-10 5e-05 1.46608e-10 
224 1 0.144434 0.0169007 0.00803463 0.00601198 -0.000366759 0.00235249 -2.87684e-11 9.69663e-11 4.48184e-10 5e-05 1.46608e-10 
225 1 0.150768 0.0181549 0.00705985 0.00511119 -0.00165463 0.000445215 -5.80117e-11 3.80303e-11 3.98385e-11 5e-05 1.46608e-10 
226 1 0.145198 0.0186242 0.0068631 0.00436565 0.0200307 -0.0161976 1.15195e-10 2.36299e-10 -2.06183e-10 5e-05 1.46608e-10 
227 1 0.138773 0.0177574 0.00712029 0.00550623 -0.000532061 0.000224378 4.30743e-11 -3.11869e-10 2.09545e-10 5e-05 1.46608e-10 
228 1 0.138598 0.017341 0.00719745 0.00571429 -0.0005654 0.000425012 6.5932e-11 1.74333e-10 -3.42113e-11 5e-05 1.46608e-10 
229 1 0.144641 0.0176528 0.00755008 0.00657851 0.00179813 -0.00179075 -1.42332e-13 -4.62941e-11 -1.43428e-09 5e-05 1.46608e-10 
230 1 0.144849 0.0181593 0.00711622 0.005389 -0.000348136 0.00209741 -3.00101e-10 2.49891e-10 -2.92955e-10 5e-05 1.46608e-10 
231 1 0.138557 0.0171494 0.00723716 0.00572412 -0.000620613 0.000126046 1.31932e-11 -4.75977e-11 1.63905e-10 5e-05 1.46608e-10 
232 1 0.144497 0.0164848 0.00830769 0.00515215 -1.59291e-05 0.00176668 3.87457e-10 -9.77787e-10 8.29714e-10 5e-05 1.46608e-10 
233 1 0.144594 0.016811 0.00808515 0.00601712 -0.000400997 0.00235215 1.89193e-11 -9.76463e-10 9.06948e-10 5e-05 1.46608e-10 
234 1 0.150881 0.0182818 0.00703193 0.00509498 -0.00165168 0.000566467 -9.10751e-11 -1.56036e-10 2.85823e-10 5e-05 1.46608e-10 
235 1 0.144775 0.0181976 0.00706107 0.0053153 -0.000453429 0.00214856 -9.75827e-11 1.75e-10 -2.64792e-10 5e-05 1.46608e-10 
236 1 0.144828 0.0184535 0.00691305 0.00537122 8.81881e-05 8.15306e-05 -1.09384e-10 9.08161e-11 -1.40666e-09 5e-05 1.46608e-10 
237 1 0.144847 0.0185458 0.00687962 0.00484049 -0.000515273 -0.000120604 -1.60419e-09 -1.80522e-09 3.46154e-10 5e-05 1.46608e-10 
239 1 0.138379 0.0165349 0.00786831 0.00590887 -0.000194525 0.0005207 2.40138e-10 7.79384e-11 3.49955e-11 5e-05 1.46608e-10 
240 1 0.138442 0.016745 0.00766389 0.00599075 -0.000189041 0.000525314 -3.46565e-11 -2.77374e-11 -5.59499e-11 5e-05 1.46608e-10 
241 1 0.138357 0.0164648 0.00793644 0.00587582 -0.000181735 0.000508626 -1.7809e-10 -9.89851e-12 -8.12342e-12 5e-05 1.46608e-10 
242 1 0.144566 0.0167304 0.00813873 0.00553162 -0.000382289 0.00220545 9.14057e-10 -4.71863e-10 4.86586e-10 5e-05 1.46608e-10 
243 1 0.144587 0.0174466 0.00772076 0.00645527 -0.000698862 0.00293867 1.76487e-09 3.57344e-09 2.03765e-09 5e-05 1.46608e-10 
244 1 0.1384 0.0166049 0.00780017 0.00591948 -0.000200239 0.000522989 2.28953e-10 7.07407e-12 7.62163e-11 5e-05 1.46608e-10 
246 1 0.138526 0.0170247 0.00739054 0.00599951 -0.000315507 0.000420907 1.27774e-10 -1.2668e-10 9.9392e-11 5e-05 1.46608e-10 
247 1 0.14474 0.0176976 0.00744049 0.00694805 0.00141079 0.000751643 4.82816e-11 -1.32562e-10 2.52491e-10 5e-05 1.46608e-10 
248 1 0.144928 0.018104 0.00718639 0.00511145 0.000541036 0.00131093 -5.47015e-10 1.30866e-10 -2.82665e-10 5e-05 1.46608e-10 
249 1 0.138658 0.0176293 0.007141 0.00547006 -0.000525262 0.000241017 1.68587e-10 -4.18617e-10 1.33988e-10 5e-05 1.46608e-10 
250 1 0.144691 0.0175304 0.0075548 0.0057167 9.31476e-06 0.00196028 -2.50455e-11 -4.65323e-10 1.26638e-09 5e-05 1.46608e-10 
251 1 0.150921 0.0184764 0.00701281 0.005164 -0.00162462 0.00101148 -6.43971e-11 -2.13019e-10 -4.01049e-12 5e-05 1.46608e-10 
252 1 0.138698 0.0178222 0.00710643 0.00550921 -0.000530784 0.000250267 -6.01021e-11 -3.2883e-10 4.68265e-11 5e-05 1.46608e-10 
253 1 0.138693 0.0173724 0.00719599 0.00571251 -0.000567667 0.000425725 1.29603e-10 -1.48545e-10 3.42409e-11 5e-05 1.46608e-10 
254 1 0.138506 0.0169551 0.00745948 0.00606943 -0.000209727 0.000554379 1.06993e-10 1.22199e-10 3.16773e-11 5e-05 1.46608e-10 