ITEM: TIMESTEP
71400000
ITEM: NUMBER OF ATOMS
269
ITEM: BOX BOUNDS ff ff ff
-0.02 0.43
-0.02 0.06
-0.02 0.07
ITEM: ATOMS id type x y z vx vy vz fx fy fz radius mass 
1 1 0.384599 0.0175858 5.25551e-05 -1.25934e-15 3.54096e-16 1.19394e-15 1.04374e-19 -2.92895e-20 1.45377e-22 5e-05 1.46608e-10 
2 1 0.384183 0.0168012 5.20101e-05 2.24031e-18 -4.02413e-21 -1.71052e-15 0 9.08059e-26 0 5e-05 1.46608e-10 
4 1 0.384401 0.018342 5.22951e-05 8.96884e-20 -2.61816e-21 -6.55654e-17 0 0 0 5e-05 1.46608e-10 
5 1 0.385011 0.0167669 5.30953e-05 2.24036e-18 -1.45922e-20 -1.71052e-15 0 3.25374e-25 0 5e-05 1.46608e-10 
6 1 0.385108 0.0179216 5.32215e-05 1.79758e-18 1.38579e-21 -1.37249e-15 0 -2.95771e-26 0 5e-05 1.46608e-10 
7 1 0.384328 0.0189229 5.22005e-05 -3.50272e-19 -1.60682e-20 2.6738e-16 0 1.15506e-25 0 5e-05 1.46608e-10 
8 1 0.384815 0.0184943 5.2838e-05 1.79759e-18 7.91272e-22 -1.37249e-15 0 -1.6256e-26 0 5e-05 1.46608e-10 
9 1 0.383777 0.0196525 5.1478e-05 2.81055e-18 3.26976e-21 -2.14593e-15 0 -2.55525e-25 0 5e-05 1.46608e-10 
10 1 0.384888 0.0164946 5.29341e-05 -9.20531e-19 -6.52336e-21 7.02842e-16 0 8.16175e-26 0 5e-05 1.46608e-10 
11 1 0.383974 0.0191869 5.17367e-05 2.81058e-18 3.34027e-22 -2.14593e-15 0 1.95908e-26 0 5e-05 1.46608e-10 
12 1 0.384004 0.0179482 5.17757e-05 1.32401e-19 1.40469e-20 -9.40431e-17 8.07794e-27 0 0 5e-05 1.46608e-10 
13 1 0.384309 0.0184568 5.21751e-05 1.79761e-18 8.94376e-22 -1.37251e-15 0 -4.89427e-26 0 5e-05 1.46608e-10 
14 1 0.384724 0.0196711 5.2719e-05 8.71342e-19 -1.30696e-22 -6.65298e-16 0 5.03288e-26 0 5e-05 1.46608e-10 
16 1 0.383685 0.0191826 5.13578e-05 2.81059e-18 2.94189e-21 -2.14593e-15 0 9.81744e-27 0 5e-05 1.46608e-10 
17 1 0.384698 0.0173096 5.26849e-05 2.24036e-18 2.14058e-21 -1.71051e-15 0 -5.0514e-26 0 5e-05 1.46608e-10 
19 1 0.383912 0.0197978 5.16557e-05 2.81055e-18 3.7659e-21 -2.14593e-15 -4.03897e-28 -1.27249e-25 0 5e-05 1.46608e-10 
21 1 0.383597 0.0186925 5.12422e-05 -6.852e-19 -6.10444e-22 5.27388e-16 0 0 0 5e-05 1.46608e-10 
22 1 0.38463 0.0163628 5.2596e-05 2.24031e-18 1.8198e-21 -1.71051e-15 0 5.12724e-26 0 5e-05 1.46608e-10 
23 1 0.383878 0.0175317 5.1611e-05 2.25948e-21 -3.22339e-21 -4.1708e-19 -1.61559e-26 0 0 5e-05 1.46608e-10 
24 1 0.384101 0.0187635 5.19028e-05 -9.85849e-20 2.70579e-21 7.4944e-17 0 0 0 5e-05 1.46608e-10 
26 1 0.38362 0.0183342 5.12731e-05 -2.89661e-21 1.08003e-21 1.92861e-20 0 0 0 5e-05 1.46608e-10 
27 1 0.384785 0.0180411 5.27984e-05 1.79763e-18 -1.13631e-21 -1.37251e-15 0 2.425e-26 0 5e-05 1.46608e-10 
28 1 0.384198 0.0187953 5.20297e-05 -3.50113e-19 4.07072e-22 2.67382e-16 0 -5.89308e-27 0 5e-05 1.46608e-10 
29 1 0.384214 0.0168974 5.20505e-05 -9.20552e-19 -1.22212e-21 7.02842e-16 0 9.55666e-26 0 5e-05 1.46608e-10 
30 1 0.384097 0.0179868 5.18972e-05 1.28129e-19 -3.28342e-21 -9.40139e-17 1.29247e-26 0 0 5e-05 1.46608e-10 
31 1 0.383893 0.0179765 5.16305e-05 1.8286e-20 -1.98682e-20 -2.54645e-19 1.03398e-25 0 0 5e-05 1.46608e-10 
32 1 0.247451 0.0181454 0.00545794 3.62646e-15 -5.32159e-14 -2.74085e-13 1.51674e-21 1.63833e-22 -7.65142e-24 5e-05 1.46608e-10 
33 1 0.383882 0.0177775 5.16151e-05 2.1189e-20 -3.65118e-20 -3.62346e-19 2.58494e-26 -2.58494e-26 0 5e-05 1.46608e-10 
35 1 0.384808 0.0177286 5.28287e-05 1.79764e-18 3.70245e-21 -1.37251e-15 0 -4.42977e-26 0 5e-05 1.46608e-10 
36 1 0.383662 0.0180556 5.13278e-05 -9.57653e-21 8.57452e-21 -2.71623e-20 -1.55096e-25 -1.03398e-25 0 5e-05 1.46608e-10 
37 1 0.383909 0.0178755 5.16511e-05 -6.46342e-19 2.04272e-20 4.88025e-16 -2.42338e-26 -2.42338e-26 0 5e-05 1.46608e-10 
38 1 0.384713 0.0170615 5.27042e-05 2.24032e-18 -9.54845e-21 -1.71052e-15 0 -2.67157e-25 0 5e-05 1.46608e-10 
39 1 0.383717 0.0197911 5.13996e-05 2.81059e-18 -3.44916e-21 -2.14593e-15 0 -4.14924e-26 0 5e-05 1.46608e-10 
41 1 0.383748 0.018123 5.14409e-05 2.24035e-18 -4.95559e-21 -1.71052e-15 0 -3.35836e-25 0 5e-05 1.46608e-10 
42 1 0.384212 0.0181264 5.20477e-05 -2.75845e-19 4.77881e-22 2.1603e-16 0 -6.46235e-27 0 5e-05 1.46608e-10 
44 1 0.384674 0.017655 5.26539e-05 1.79763e-18 1.82784e-22 -1.37251e-15 0 3.23746e-27 0 5e-05 1.46608e-10 
45 1 0.384212 0.0172077 5.20482e-05 2.24034e-18 5.0626e-22 -1.71051e-15 0 -4.80365e-27 0 5e-05 1.46608e-10 
47 1 0.384502 0.0170164 5.24283e-05 2.24036e-18 -4.52914e-22 -1.71051e-15 0 -6.24001e-29 0 5e-05 1.46608e-10 
48 1 0.383855 0.0191595 5.15803e-05 2.81057e-18 2.02976e-21 -2.14593e-15 0 5.26087e-26 0 5e-05 1.46608e-10 
49 1 0.384166 0.0195438 5.19874e-05 2.81058e-18 -6.0347e-22 -2.14593e-15 0 -1.68199e-25 0 5e-05 1.46608e-10 
50 1 0.393315 0.0169121 0.00823187 -0.000501415 0.0265014 -0.0102133 0 0 -1.43822e-09 5e-05 1.46608e-10 
51 1 0.384626 0.0177793 5.25903e-05 1.79762e-18 2.51601e-23 -1.37251e-15 -4.03897e-28 -6.5964e-27 0 5e-05 1.46608e-10 
52 1 0.38448 0.0176805 5.23994e-05 7.78972e-14 4.28485e-14 -4.57149e-14 2.51863e-19 -1.40917e-19 -2.47496e-19 5e-05 1.46608e-10 
53 1 0.384734 0.0175226 5.27322e-05 3.78912e-14 -8.49033e-14 -1.84407e-16 -1.0902e-18 2.96364e-18 -4.57385e-20 5e-05 1.46608e-10 
54 1 0.383738 0.0190139 5.14271e-05 -3.50183e-19 -5.58216e-24 2.67381e-16 0 -7.74895e-27 0 5e-05 1.46608e-10 
55 1 0.384694 0.0180885 5.26795e-05 -2.84124e-19 2.53207e-21 2.16618e-16 2.58494e-26 0 0 5e-05 1.46608e-10 
56 1 0.383635 0.0196308 5.12923e-05 2.81055e-18 -5.37416e-22 -2.14593e-15 0 3.59497e-26 0 5e-05 1.46608e-10 
57 1 0.383634 0.0197324 5.1291e-05 -3.50193e-19 -2.08683e-21 2.67381e-16 0 -8.37181e-26 0 5e-05 1.46608e-10 
59 1 0.378022 0.019866 0.005332 -5.01931e-15 -7.41201e-15 7.69803e-14 -3.51552e-24 3.74816e-24 2.06795e-25 5e-05 1.46608e-10 
60 1 0.384057 0.0182172 5.1845e-05 1.7976e-18 4.99234e-21 -1.37251e-15 -4.03897e-28 9.183e-27 0 5e-05 1.46608e-10 
61 1 0.384827 0.0175585 5.28544e-05 -2.72874e-14 8.44786e-14 -1.82992e-15 1.07824e-18 -2.67817e-18 3.78299e-20 5e-05 1.46608e-10 
62 1 0.384311 0.0186263 5.21774e-05 1.79763e-18 -3.23154e-21 -1.37251e-15 0 -9.50348e-26 0 5e-05 1.46608e-10 
63 1 0.383577 0.018452 5.1216e-05 2.1989e-22 8.36289e-21 -2.88402e-20 0 0 0 5e-05 1.46608e-10 
64 1 0.383269 0.0178073 0.0053438 -1.46756e-15 -3.31995e-15 -2.09205e-14 -1.66599e-23 9.17653e-24 0 5e-05 1.46608e-10 
65 1 0.384532 0.0167022 5.24676e-05 2.24034e-18 1.47619e-22 -1.71051e-15 4.03897e-28 1.12314e-28 0 5e-05 1.46608e-10 
66 1 0.383745 0.0178455 0.000126364 -1.8172e-19 -7.81501e-20 -3.92922e-21 0 0 3.87741e-26 5e-05 1.46608e-10 
67 1 0.384602 0.0180485 5.25594e-05 -2.81853e-19 2.70575e-21 2.16616e-16 -7.75482e-26 0 0 5e-05 1.46608e-10 
68 1 0.384886 0.0184142 5.2931e-05 3.47217e-19 1.34817e-21 -2.65996e-16 -3.23117e-27 0 0 5e-05 1.46608e-10 
69 1 0.383711 0.0207759 5.13922e-05 2.00508e-18 -1.08715e-21 -1.5309e-15 0 2.71964e-26 0 5e-05 1.46608e-10 
70 1 0.384746 0.0161015 5.27478e-05 2.24035e-18 -2.12921e-21 -1.71051e-15 0 2.80828e-25 0 5e-05 1.46608e-10 
71 1 0.383741 0.0188606 5.14314e-05 -3.50209e-19 3.76909e-20 2.6738e-16 -4.03897e-28 5.97851e-25 0 5e-05 1.46608e-10 
72 1 0.384005 0.0195345 5.17769e-05 -3.5017e-19 2.77923e-21 2.67382e-16 0 -2.58271e-27 0 5e-05 1.46608e-10 
73 1 0.385165 0.0173714 5.3297e-05 1.79762e-18 7.16798e-22 -1.37251e-15 0 2.57915e-28 0 5e-05 1.46608e-10 
74 1 0.384312 0.0182285 5.21795e-05 8.64676e-20 -1.88556e-21 -6.55705e-17 0 0 0 5e-05 1.46608e-10 
76 1 0.384529 0.0179806 5.24634e-05 1.7976e-18 2.60153e-22 -1.37249e-15 0 2.29802e-27 0 5e-05 1.46608e-10 
77 1 0.384211 0.0182562 5.20468e-05 1.79757e-18 -5.46145e-21 -1.37249e-15 0 2.82985e-26 0 5e-05 1.46608e-10 
78 1 0.384019 0.0174293 5.17959e-05 2.24033e-18 -8.01988e-22 -1.71052e-15 0 1.62523e-26 0 5e-05 1.46608e-10 
79 1 0.383618 0.019402 5.12705e-05 -3.50176e-19 -1.18168e-21 2.67382e-16 0 -6.15227e-26 0 5e-05 1.46608e-10 
80 1 0.384203 0.0173209 5.20365e-05 2.24033e-18 3.64749e-20 -1.71051e-15 0 2.41911e-25 0 5e-05 1.46608e-10 
82 1 0.384071 0.0186677 5.1864e-05 -3.50203e-19 -9.40499e-22 2.67382e-16 0 -3.87398e-27 0 5e-05 1.46608e-10 
83 1 0.384602 0.0164616 5.25589e-05 2.24031e-18 9.81454e-21 -1.71052e-15 0 8.8489e-26 0 5e-05 1.46608e-10 
84 1 0.384003 0.0188652 5.17748e-05 -9.43966e-20 7.69126e-22 7.49431e-17 0 0 0 5e-05 1.46608e-10 
85 1 0.384491 0.0201706 5.24132e-05 8.7134e-19 -1.7579e-21 -6.65297e-16 0 9.98232e-26 0 5e-05 1.46608e-10 
86 1 0.38452 0.0190801 5.24517e-05 2.81059e-18 1.55448e-20 -2.14593e-15 4.03897e-28 4.03879e-26 0 5e-05 1.46608e-10 
87 1 0.384401 0.0173066 5.22954e-05 2.24031e-18 -1.39403e-20 -1.71051e-15 4.03897e-28 9.71499e-26 0 5e-05 1.46608e-10 
88 1 0.384597 0.0181855 5.25521e-05 1.79758e-18 3.81181e-22 -1.37249e-15 0 1.91053e-26 0 5e-05 1.46608e-10 
89 1 0.383831 0.0209331 5.15494e-05 2.00504e-18 4.18152e-21 -1.5309e-15 0 1.66112e-25 0 5e-05 1.46608e-10 
90 1 0.384476 0.0180662 5.23935e-05 -2.82758e-19 1.89088e-20 2.16058e-16 0 -5.16988e-26 0 5e-05 1.46608e-10 
91 1 0.384562 0.0161408 5.25065e-05 2.24033e-18 -1.58285e-19 -1.71051e-15 4.03897e-28 1.87315e-26 0 5e-05 1.46608e-10 
92 1 0.383623 0.0181478 5.12773e-05 -9.14852e-21 1.04815e-21 -4.38498e-20 0 0 0 5e-05 1.46608e-10 
93 1 0.384831 0.0190845 5.28587e-05 2.81054e-18 -9.09043e-22 -2.14593e-15 0 2.35706e-25 0 5e-05 1.46608e-10 
94 1 0.384215 0.0186925 5.20517e-05 -3.50186e-19 -1.2296e-21 2.67382e-16 0 -2.04962e-26 0 5e-05 1.46608e-10 
95 1 0.383676 0.018497 5.13469e-05 2.81051e-18 1.0648e-21 -2.14593e-15 0 -6.36118e-27 0 5e-05 1.46608e-10 
96 1 0.385068 0.0173509 5.31688e-05 2.24034e-18 2.65913e-21 -1.71052e-15 0 -3.66095e-26 0 5e-05 1.46608e-10 
97 1 0.385082 0.0166964 5.31883e-05 2.24033e-18 -4.54458e-22 -1.71052e-15 0 1.08805e-26 0 5e-05 1.46608e-10 
98 1 0.384494 0.017574 5.24182e-05 -9.20552e-19 1.34936e-22 7.02843e-16 0 3.37024e-27 0 5e-05 1.46608e-10 
99 1 0.383876 0.0176099 0.000113825 3.78266e-20 2.66598e-20 -3.96134e-19 -2.58494e-26 -5.16988e-26 0 5e-05 1.46608e-10 
100 1 0.383701 0.0182111 5.13792e-05 1.79764e-18 4.99455e-22 -1.37251e-15 0 8.90788e-27 0 5e-05 1.46608e-10 
101 1 0.3839 0.0196686 5.16397e-05 -3.50222e-19 -3.196e-21 2.67381e-16 0 5.9984e-27 0 5e-05 1.46608e-10 
102 1 0.0643568 0.0187248 0.00531097 4.33028e-15 1.04982e-14 8.2957e-14 1.92379e-21 -8.83636e-22 1.77844e-23 5e-05 1.46608e-10 
103 1 0.230779 0.0182774 0.00551293 -5.40262e-15 6.59216e-15 4.46828e-14 4.0643e-22 5.1081e-22 -2.50222e-23 5e-05 1.46608e-10 
104 1 0.38388 0.0192583 5.16135e-05 2.81059e-18 6.41137e-22 -2.14593e-15 0 -2.77507e-26 0 5e-05 1.46608e-10 
105 1 0.384197 0.0178013 5.20291e-05 2.24031e-18 1.18705e-21 -1.71052e-15 0 9.27297e-27 0 5e-05 1.46608e-10 
106 1 0.384064 0.01708 5.85246e-05 4.95302e-18 2.03731e-18 1.14689e-19 0 1.03398e-25 0 5e-05 1.46608e-10 
107 1 0.383991 0.0177466 5.17583e-05 -7.65067e-22 1.38444e-21 -4.36963e-19 -1.29247e-26 -2.58494e-26 0 5e-05 1.46608e-10 
108 1 0.383604 0.0189528 5.1252e-05 1.49095e-22 6.65105e-21 7.08695e-21 -1.29247e-26 0 0 5e-05 1.46608e-10 
109 1 0.383824 0.0193429 5.15405e-05 2.81059e-18 -1.86124e-22 -2.14593e-15 0 5.46324e-27 0 5e-05 1.46608e-10 
110 1 0.384848 0.0181615 5.28813e-05 -2.83456e-19 -1.23536e-21 2.16623e-16 0 -1.29247e-26 0 5e-05 1.46608e-10 
111 1 0.383759 0.0180222 5.14545e-05 -2.14781e-21 -9.94063e-21 -2.97185e-19 -5.16988e-26 5.16988e-26 0 5e-05 1.46608e-10 
112 1 0.384668 0.0204846 5.26453e-05 2.00508e-18 -3.92527e-21 -1.5309e-15 0 -1.05953e-25 0 5e-05 1.46608e-10 
113 1 0.384006 0.0178482 5.17777e-05 1.05403e-19 2.23987e-20 -9.40228e-17 -2.58494e-26 -2.58494e-26 0 5e-05 1.46608e-10 
114 1 0.385064 0.0164614 5.31641e-05 2.24034e-18 9.48912e-20 -1.71052e-15 0 1.87851e-25 0 5e-05 1.46608e-10 
115 1 0.38433 0.0192224 5.22022e-05 2.81054e-18 4.86338e-21 -2.14593e-15 0 1.19088e-25 0 5e-05 1.46608e-10 
116 1 0.384884 0.0180547 5.29282e-05 1.79759e-18 4.21409e-22 -1.37249e-15 0 2.53502e-26 0 5e-05 1.46608e-10 
117 1 0.383529 0.0177712 0.00534448 4.41174e-18 -1.80377e-14 -5.94669e-14 -2.08449e-24 0 0 5e-05 1.46608e-10 
118 1 0.384874 0.0171689 5.29154e-05 2.24035e-18 1.85085e-20 -1.71052e-15 0 8.98665e-26 0 5e-05 1.46608e-10 
119 1 0.383718 0.017918 5.14012e-05 -2.20353e-21 -1.11982e-20 5.53703e-19 0 0 0 5e-05 1.46608e-10 
120 1 0.384613 0.0170491 5.25734e-05 2.24032e-18 -4.48828e-21 -1.71052e-15 0 -1.45151e-25 0 5e-05 1.46608e-10 
121 1 0.385676 0.0164514 5.39659e-05 1.45285e-18 -2.23743e-20 -1.10923e-15 0 8.8658e-26 0 5e-05 1.46608e-10 
122 1 0.384725 0.0177988 5.27197e-05 1.79756e-18 9.99942e-22 -1.37249e-15 0 -9.2732e-28 0 5e-05 1.46608e-10 
123 1 0.383915 0.0205035 5.16596e-05 8.71332e-19 -2.68162e-21 -6.65298e-16 0 3.63803e-26 0 5e-05 1.46608e-10 
124 1 0.38514 0.0150589 5.32639e-05 -6.70152e-20 3.81062e-20 5.11809e-17 0 -2.662e-25 0 5e-05 1.46608e-10 
125 1 0.384411 0.0182414 5.23096e-05 1.7976e-18 -1.1748e-23 -1.37251e-15 0 4.55434e-28 0 5e-05 1.46608e-10 
127 1 0.384568 0.0171652 5.25152e-05 2.24036e-18 4.59941e-22 -1.71052e-15 0 -2.47427e-27 0 5e-05 1.46608e-10 
128 1 0.384299 0.0176122 5.21628e-05 2.24033e-18 1.37098e-22 -1.71051e-15 -4.03897e-28 5.04014e-28 0 5e-05 1.46608e-10 
129 1 0.384156 0.0171195 5.19742e-05 9.50903e-21 -2.11854e-20 4.85492e-19 1.03398e-25 1.03398e-25 0 5e-05 1.46608e-10 
130 1 0.385036 0.0171379 5.31278e-05 2.24035e-18 -1.50185e-20 -1.71052e-15 0 7.85544e-26 0 5e-05 1.46608e-10 
131 1 0.38397 0.0175718 5.17312e-05 2.24036e-18 9.81728e-22 -1.71051e-15 0 1.46527e-26 0 5e-05 1.46608e-10 
132 1 0.385069 0.0180992 5.31713e-05 1.79763e-18 4.15587e-23 -1.37251e-15 0 -7.06511e-27 0 5e-05 1.46608e-10 
133 1 0.384477 0.0187082 5.23958e-05 1.79761e-18 1.51828e-21 -1.37251e-15 0 5.08666e-26 0 5e-05 1.46608e-10 
134 1 0.384249 0.0183505 5.20968e-05 8.87465e-20 -3.23575e-21 -6.55682e-17 0 0 0 5e-05 1.46608e-10 
135 1 0.383899 0.019542 5.16388e-05 -3.50168e-19 9.03322e-22 2.6738e-16 0 1.57747e-25 0 5e-05 1.46608e-10 
136 1 0.384145 0.017899 5.19599e-05 1.42043e-19 -2.02861e-21 -9.40147e-17 0 0 0 5e-05 1.46608e-10 
137 1 0.383813 0.0198281 5.15254e-05 -3.50181e-19 6.31004e-21 2.67381e-16 -4.03897e-28 -1.06484e-26 0 5e-05 1.46608e-10 
138 1 0.384467 0.0171735 5.23827e-05 2.24032e-18 -1.90436e-22 -1.71052e-15 0 -8.29151e-27 0 5e-05 1.46608e-10 
140 1 0.384752 0.0179004 5.27554e-05 1.7976e-18 3.838e-21 -1.37249e-15 0 -2.48234e-26 0 5e-05 1.46608e-10 
141 1 0.38497 0.0181068 5.30405e-05 -5.31509e-19 -4.83415e-21 4.04658e-16 0 0 0 5e-05 1.46608e-10 
142 1 0.38496 0.0184888 5.30276e-05 1.7976e-18 -1.56046e-21 -1.37249e-15 4.03897e-28 -2.28548e-26 0 5e-05 1.46608e-10 
143 1 0.384762 0.0181437 0.000100712 -2.86615e-19 8.06008e-21 2.16618e-16 2.58494e-26 5.16988e-26 0 5e-05 1.46608e-10 
144 1 0.383431 0.0175376 0.00541532 -5.11325e-18 -1.80377e-14 -5.94669e-14 -1.22871e-22 0 0 5e-05 1.46608e-10 
146 1 0.384977 0.0180356 0.000122854 -5.36517e-19 -4.79366e-22 4.04649e-16 -2.58494e-26 5.16988e-26 0 5e-05 1.46608e-10 
147 1 0.383614 0.0185748 5.12645e-05 -3.50182e-19 1.79229e-21 2.67381e-16 0 2.18173e-26 0 5e-05 1.46608e-10 
148 1 0.384112 0.0172175 5.19177e-05 2.24031e-18 -3.22485e-22 -1.71051e-15 0 9.88461e-27 0 5e-05 1.46608e-10 
149 1 0.385015 0.0183005 5.30994e-05 1.79764e-18 1.84567e-22 -1.37251e-15 0 -4.54998e-27 0 5e-05 1.46608e-10 
150 1 0.384846 0.0192085 5.28787e-05 8.71367e-19 -3.61013e-21 -6.65297e-16 0 -8.88869e-26 0 5e-05 1.46608e-10 
151 1 0.384832 0.0188472 5.28603e-05 1.79763e-18 6.89159e-21 -1.37251e-15 0 -6.22028e-25 0 5e-05 1.46608e-10 
153 1 0.383898 0.0179255 0.00013754 1.34712e-17 -1.45419e-16 2.44141e-16 1.9387e-26 0 0 5e-05 1.46608e-10 
154 1 0.383898 0.0181094 5.16374e-05 1.79759e-18 2.44818e-23 -1.37251e-15 0 -5.17853e-27 0 5e-05 1.46608e-10 
155 1 0.384945 0.0179716 5.30077e-05 -5.31547e-19 -4.94564e-21 4.04653e-16 0 0 0 5e-05 1.46608e-10 
156 1 0.384147 0.0170045 5.19627e-05 -1.78237e-20 -1.58824e-21 -1.76954e-18 0 -1.29247e-26 0 5e-05 1.46608e-10 
157 1 0.0219312 0.0187687 0.00551176 -3.83493e-14 8.1648e-14 2.9589e-13 1.53279e-21 3.54757e-22 9.92617e-23 5e-05 1.46608e-10 
158 1 0.384399 0.017607 5.22938e-05 2.24036e-18 1.29325e-22 -1.71052e-15 0 -6.26356e-28 0 5e-05 1.46608e-10 
159 1 0.384201 0.0184387 5.20343e-05 1.79761e-18 1.36208e-21 -1.37251e-15 0 -1.36643e-26 0 5e-05 1.46608e-10 
160 1 0.383571 0.0183829 0.000123314 -1.5007e-21 4.85387e-22 1.35257e-22 0 0 -3.23117e-27 5e-05 1.46608e-10 
162 1 0.384488 0.0195864 5.24091e-05 -3.50204e-19 -4.16497e-21 2.67381e-16 0 -2.45544e-26 0 5e-05 1.46608e-10 
164 1 0.384755 0.0166629 5.27588e-05 -9.20564e-19 -1.2714e-20 7.02843e-16 0 -2.1486e-25 0 5e-05 1.46608e-10 
165 1 0.383838 0.0177344 0.000130408 -1.09003e-19 3.88196e-20 -3.60214e-19 5.16988e-26 5.16988e-26 0 5e-05 1.46608e-10 
166 1 0.383767 0.0192404 5.14661e-05 2.81054e-18 1.66205e-21 -2.14593e-15 0 2.01612e-26 0 5e-05 1.46608e-10 
167 1 0.384912 0.0178665 5.29654e-05 1.79759e-18 1.35253e-22 -1.37251e-15 0 -3.89899e-26 0 5e-05 1.46608e-10 
168 1 0.384018 0.01725 5.17936e-05 2.24035e-18 2.1178e-20 -1.71052e-15 0 -1.62473e-25 0 5e-05 1.46608e-10 
169 1 0.384049 0.019854 5.18343e-05 -3.5017e-19 -1.40177e-21 2.67382e-16 0 2.14258e-25 0 5e-05 1.46608e-10 
170 1 0.383999 0.018436 5.17689e-05 1.79762e-18 5.02401e-21 -1.37251e-15 0 6.97005e-26 0 5e-05 1.46608e-10 
171 1 0.384038 0.0188005 0.000119845 -9.13768e-20 7.0025e-21 7.49371e-17 0 0 0 5e-05 1.46608e-10 
172 1 0.384373 0.0180412 5.22591e-05 1.79758e-18 -4.44925e-22 -1.37249e-15 -4.03897e-28 7.46652e-27 0 5e-05 1.46608e-10 
173 1 0.384964 0.0172331 5.30331e-05 2.24034e-18 -1.09851e-20 -1.71052e-15 4.03897e-28 2.25394e-25 0 5e-05 1.46608e-10 
174 1 0.384622 0.0182827 5.25858e-05 1.79761e-18 -1.11989e-22 -1.37251e-15 0 -1.34416e-27 0 5e-05 1.46608e-10 
176 1 0.383932 0.0176648 5.16808e-05 -3.04967e-21 9.66519e-21 -3.94405e-19 0 -2.58494e-26 0 5e-05 1.46608e-10 
177 1 0.38404 0.0185721 5.18234e-05 1.7976e-18 3.0608e-21 -1.37251e-15 0 -6.05744e-26 0 5e-05 1.46608e-10 
178 1 0.384829 0.019706 5.28566e-05 8.71376e-19 -1.65956e-22 -6.65297e-16 0 2.69547e-27 0 5e-05 1.46608e-10 
179 1 0.384191 0.0191787 5.20202e-05 2.81054e-18 2.19123e-21 -2.14593e-15 0 1.92107e-25 0 5e-05 1.46608e-10 
182 1 0.384115 0.018498 5.19211e-05 1.79758e-18 -2.67156e-22 -1.37249e-15 0 2.06239e-26 0 5e-05 1.46608e-10 
183 1 0.384721 0.0202918 5.27147e-05 8.7134e-19 -6.71612e-22 -6.65297e-16 0 2.32249e-26 0 5e-05 1.46608e-10 
184 1 0.384677 0.0179669 5.2657e-05 1.79761e-18 1.62393e-21 -1.37249e-15 0 9.88224e-27 0 5e-05 1.46608e-10 
185 1 0.38458 0.01769 5.25298e-05 7.69089e-14 5.17956e-14 4.67094e-14 1.61521e-19 7.87468e-19 2.85854e-19 5e-05 1.46608e-10 
186 1 0.38368 0.0195057 5.13522e-05 -3.50196e-19 1.20933e-21 2.67381e-16 0 -2.64283e-25 0 5e-05 1.46608e-10 
187 1 0.384427 0.0170821 5.23292e-05 -1.73546e-20 -3.39411e-21 5.01817e-19 0 0 0 5e-05 1.46608e-10 
188 1 0.38383 0.0176734 5.15473e-05 -8.99324e-21 1.25141e-21 -3.93223e-19 -3.23117e-26 0 0 5e-05 1.46608e-10 
189 1 0.383918 0.017439 5.16628e-05 2.24032e-18 6.6489e-22 -1.71052e-15 0 1.57047e-27 0 5e-05 1.46608e-10 
190 1 0.383979 0.0193213 5.17425e-05 -3.50175e-19 3.62239e-21 2.67381e-16 0 2.63978e-26 0 5e-05 1.46608e-10 
191 1 0.384646 0.017421 5.26161e-05 2.24035e-18 2.01067e-22 -1.71052e-15 -4.03897e-28 -1.99794e-27 0 5e-05 1.46608e-10 
192 1 0.384378 0.0175059 5.22658e-05 2.24035e-18 -3.51399e-21 -1.71052e-15 4.03897e-28 -5.27775e-26 0 5e-05 1.46608e-10 
193 1 0.384089 0.0190435 5.18871e-05 -3.5022e-19 1.10956e-21 2.67382e-16 -4.03897e-28 9.10116e-27 0 5e-05 1.46608e-10 
194 1 0.383653 0.019074 5.13159e-05 -4.05918e-21 2.73453e-21 -5.42201e-21 0 0 0 5e-05 1.46608e-10 
195 1 0.383846 0.0182168 5.15694e-05 1.7976e-18 2.50143e-21 -1.37249e-15 0 3.09061e-26 0 5e-05 1.46608e-10 
196 1 0.384118 0.0180904 5.19255e-05 1.79763e-18 -7.61531e-22 -1.37251e-15 0 7.26871e-27 0 5e-05 1.46608e-10 
197 1 0.383944 0.0178123 0.000121771 -4.12588e-17 -2.37686e-17 -4.72422e-17 0 0 0 5e-05 1.46608e-10 
198 1 0.383892 0.0185466 5.16296e-05 -3.50215e-19 1.21011e-21 2.67381e-16 4.03897e-28 -1.6373e-26 0 5e-05 1.46608e-10 
199 1 0.383899 0.0194311 5.16383e-05 2.81056e-18 8.80637e-21 -2.14593e-15 0 -1.18845e-25 0 5e-05 1.46608e-10 
200 1 0.385014 0.0178743 5.30989e-05 1.79758e-18 -2.19603e-21 -1.37249e-15 0 -2.43147e-26 0 5e-05 1.46608e-10 
201 1 0.384311 0.0181229 5.21786e-05 -2.84548e-19 1.6102e-21 2.16031e-16 0 1.29247e-26 0 5e-05 1.46608e-10 
202 1 0.38375 0.0179324 0.000175661 -1.87231e-19 -1.18466e-19 -1.52179e-21 1.03398e-25 0 0 5e-05 1.46608e-10 
203 1 0.384564 0.0165956 5.2509e-05 2.24036e-18 -2.13509e-21 -1.71052e-15 4.03897e-28 -3.70566e-27 0 5e-05 1.46608e-10 
204 1 0.38396 0.0190065 5.17177e-05 2.81059e-18 6.99338e-22 -2.14593e-15 0 3.13921e-27 0 5e-05 1.46608e-10 
206 1 0.384465 0.0168375 5.23795e-05 2.24033e-18 1.58085e-20 -1.71052e-15 -4.03897e-28 3.48008e-25 0 5e-05 1.46608e-10 
207 1 0.385175 0.0175512 5.33093e-05 1.79761e-18 8.66068e-21 -1.37251e-15 0 -1.34191e-25 0 5e-05 1.46608e-10 
208 1 0.383584 0.0182412 5.12248e-05 1.40076e-21 2.7769e-21 2.29313e-20 -7.75482e-26 0 0 5e-05 1.46608e-10 
209 1 0.38493 0.0182425 5.29879e-05 3.49976e-19 2.70501e-21 -2.65995e-16 0 0 0 5e-05 1.46608e-10 
210 1 0.384351 0.0171769 5.22304e-05 2.24035e-18 1.39184e-20 -1.71051e-15 4.03897e-28 3.32339e-25 0 5e-05 1.46608e-10 
211 1 0.383783 0.0177617 5.14859e-05 1.97548e-21 -4.42004e-21 -2.65822e-19 0 2.58494e-26 0 5e-05 1.46608e-10 
212 1 0.384062 0.0199546 5.18516e-05 2.81057e-18 2.91031e-21 -2.14593e-15 0 -2.91645e-27 0 5e-05 1.46608e-10 
213 1 0.384476 0.0184173 5.2394e-05 1.79759e-18 1.17049e-21 -1.37249e-15 0 8.97167e-27 0 5e-05 1.46608e-10 
214 1 0.38469 0.0169374 5.26743e-05 2.24033e-18 -9.263e-22 -1.71051e-15 0 4.63222e-26 0 5e-05 1.46608e-10 
215 1 0.384121 0.0182994 5.19287e-05 1.79757e-18 1.77036e-23 -1.37249e-15 0 -3.29107e-27 0 5e-05 1.46608e-10 
216 1 0.384245 0.017708 5.20916e-05 2.24036e-18 7.09827e-21 -1.71052e-15 0 -9.04126e-26 0 5e-05 1.46608e-10 
217 1 0.384064 0.0191417 5.1854e-05 -3.50187e-19 -1.31232e-22 2.67382e-16 0 2.80397e-28 0 5e-05 1.46608e-10 
218 1 0.384457 0.017909 5.23695e-05 1.7976e-18 -7.6471e-24 -1.37251e-15 0 -1.03717e-27 0 5e-05 1.46608e-10 
219 1 0.384944 0.0197441 5.30067e-05 8.71363e-19 -8.14386e-23 -6.65297e-16 0 6.95124e-27 0 5e-05 1.46608e-10 
220 1 0.383696 0.018399 5.13731e-05 -1.3611e-20 7.39773e-21 1.49945e-20 0 0 0 5e-05 1.46608e-10 
222 1 0.384799 0.0201778 5.28171e-05 8.71365e-19 1.37512e-20 -6.65297e-16 0 -4.86766e-26 0 5e-05 1.46608e-10 
224 1 0.384494 0.0174269 5.24173e-05 2.24033e-18 1.80914e-22 -1.71052e-15 0 1.54377e-26 0 5e-05 1.46608e-10 
225 1 0.385146 0.0176526 5.3272e-05 1.79764e-18 -1.81137e-21 -1.37251e-15 0 -2.05542e-26 0 5e-05 1.46608e-10 
226 1 0.384104 0.018398 5.1907e-05 1.79761e-18 2.2809e-23 -1.37251e-15 0 8.94636e-28 0 5e-05 1.46608e-10 
227 1 0.383688 0.0179861 0.000118273 1.11168e-19 -3.42482e-19 2.75965e-19 -5.16988e-26 1.55096e-25 0 5e-05 1.46608e-10 
228 1 0.383956 0.018209 5.17134e-05 1.79755e-18 -3.05729e-21 -1.37249e-15 0 1.16819e-25 0 5e-05 1.46608e-10 
229 1 0.383699 0.0187044 5.13766e-05 -6.88763e-19 1.72954e-21 5.27391e-16 -2.58494e-26 0 0 5e-05 1.46608e-10 
230 1 0.384584 0.0183818 5.25351e-05 1.79764e-18 -3.54e-22 -1.37251e-15 0 -1.71585e-26 0 5e-05 1.46608e-10 
232 1 0.384362 0.0190848 5.22448e-05 -3.502e-19 3.02714e-21 2.67381e-16 0 -3.5268e-26 0 5e-05 1.46608e-10 
233 1 0.384256 0.0171177 5.21052e-05 -1.21247e-21 7.68723e-21 4.73133e-19 -1.03398e-25 5.16988e-26 0 5e-05 1.46608e-10 
234 1 0.383811 0.0178578 5.15218e-05 1.84684e-20 -1.69136e-20 -2.54792e-19 0 5.16988e-26 0 5e-05 1.46608e-10 
235 1 0.384124 0.0177325 5.19334e-05 1.16197e-19 -8.73905e-21 -9.40156e-17 5.16988e-26 0 0 5e-05 1.46608e-10 
236 1 0.385085 0.017804 5.3192e-05 1.79756e-18 1.84705e-22 -1.37249e-15 0 5.89483e-27 0 5e-05 1.46608e-10 
237 1 0.384023 0.0180557 5.18008e-05 1.79758e-18 2.43457e-23 -1.37249e-15 0 -1.01003e-27 0 5e-05 1.46608e-10 
239 1 0.38421 0.017017 0.000128507 9.22938e-19 -1.80326e-19 -6.22064e-19 2.58494e-26 0 0 5e-05 1.46608e-10 
240 1 0.384108 0.0176224 5.19122e-05 -6.21564e-22 1.5116e-21 -4.27858e-19 0 0 0 5e-05 1.46608e-10 
241 1 0.384924 0.0176585 5.29803e-05 1.79763e-18 -1.24243e-21 -1.37251e-15 0 -9.73802e-26 0 5e-05 1.46608e-10 
242 1 0.385388 0.0170488 5.35891e-05 1.45284e-18 -1.43273e-20 -1.10924e-15 0 -3.45602e-25 0 5e-05 1.46608e-10 
243 1 0.38396 0.0173391 5.17184e-05 2.24037e-18 -1.90827e-22 -1.71052e-15 0 2.86532e-27 0 5e-05 1.46608e-10 
244 1 0.383851 0.0186443 5.15749e-05 -3.50214e-19 1.28571e-22 2.67382e-16 0 -4.42273e-28 0 5e-05 1.46608e-10 
246 1 0.385125 0.016896 5.32444e-05 2.24034e-18 4.70493e-21 -1.71052e-15 0 7.38908e-26 0 5e-05 1.46608e-10 
248 1 0.383834 0.0184534 5.15531e-05 -3.50206e-19 1.66504e-21 2.67381e-16 0 -1.24714e-26 0 5e-05 1.46608e-10 
249 1 0.386067 0.0153632 5.44775e-05 1.45282e-18 -1.82873e-21 -1.10923e-15 0 2.31992e-26 0 5e-05 1.46608e-10 
250 1 0.383321 0.0171725 0.00806632 -0.00010327 0.0319509 -0.0243385 -1.85758e-13 1.60857e-10 -2.21294e-10 5e-05 1.46608e-10 
251 1 0.384572 0.0174895 5.25197e-05 1.25626e-15 -3.51788e-16 1.19931e-15 -1.0435e-19 2.9279e-20 -1.45377e-22 5e-05 1.46608e-10 
252 1 0.384889 0.0183235 9.50979e-05 3.45754e-19 6.33112e-21 -2.65991e-16 1.61559e-26 0 0 5e-05 1.46608e-10 
253 1 0.383571 0.018535 0.00522286 -7.98397e-15 2.53761e-14 1.31295e-13 8.5303e-25 4.65289e-25 0 5e-05 1.46608e-10 
254 1 0.384301 0.0172952 5.21647e-05 2.24034e-18 6.48224e-21 -1.71052e-15 0 -2.95908e-26 0 5e-05 1.46608e-10 
255 1 0.38386 0.0190057 5.15867e-05 -3.50201e-19 -4.58261e-21 2.67381e-16 0 -7.17786e-26 0 5e-05 1.46608e-10 
256 1 0.383997 0.0204249 5.17662e-05 8.71334e-19 -1.30203e-21 -6.65297e-16 0 3.76652e-27 0 5e-05 1.46608e-10 
257 1 0.385041 0.0180031 5.31334e-05 -5.2893e-19 -5.33397e-22 4.04648e-16 2.58494e-26 -2.58494e-26 0 5e-05 1.46608e-10 
258 1 0.384272 0.0170005 5.21271e-05 1.29316e-20 9.16433e-21 4.94832e-19 -5.16988e-26 -5.16988e-26 0 5e-05 1.46608e-10 
259 1 0.384253 0.0166268 5.21024e-05 -9.2055e-19 1.22556e-21 7.02844e-16 0 3.56854e-26 0 5e-05 1.46608e-10 
260 1 0.385186 0.0206932 5.33243e-05 -2.31221e-19 3.55616e-20 1.76521e-16 0 2.05554e-26 0 5e-05 1.46608e-10 
261 1 0.38441 0.0181414 5.23073e-05 -2.88257e-19 7.41336e-21 2.16037e-16 0 0 0 5e-05 1.46608e-10 
262 1 0.383808 0.0179475 9.56896e-05 1.29013e-20 -5.51947e-20 -2.66049e-19 0 -6.46235e-26 2.06795e-25 5e-05 1.46608e-10 
263 1 0.385136 0.0154015 5.32589e-05 1.45283e-18 -5.08604e-21 -1.10923e-15 0 4.49441e-26 0 5e-05 1.46608e-10 
264 1 0.384094 0.0178206 8.84889e-05 1.15175e-19 -4.49871e-20 -9.39971e-17 0 -5.16988e-26 0 5e-05 1.46608e-10 
265 1 0.383903 0.018864 5.16441e-05 2.81057e-18 5.77133e-24 -2.14593e-15 0 -2.09622e-29 0 5e-05 1.46608e-10 
266 1 0.384739 0.0172129 5.27388e-05 -9.20557e-19 8.78813e-22 7.02843e-16 0 1.3684e-27 0 5e-05 1.46608e-10 
268 1 0.387501 0.0145625 5.63555e-05 -6.70619e-20 7.63745e-21 5.11804e-17 0 6.25729e-27 0 5e-05 1.46608e-10 
269 1 0.384702 0.0182078 5.26903e-05 -2.86422e-19 6.30374e-21 2.16617e-16 0 -5.16988e-26 0 5e-05 1.46608e-10 
270 1 0.383998 0.0187387 5.17683e-05 -9.97156e-20 1.35308e-21 7.49404e-17 0 0 0 5e-05 1.46608e-10 
271 1 0.38456 0.0198571 5.2504e-05 8.71382e-19 1.01659e-20 -6.65297e-16 0 3.25638e-25 0 5e-05 1.46608e-10 
272 1 0.384323 0.0183113 0.000107218 9.95374e-20 5.8796e-21 -6.55635e-17 0 2.58494e-26 0 5e-05 1.46608e-10 
273 1 0.384247 0.0174825 5.20942e-05 -9.20564e-19 -8.04844e-22 7.02843e-16 0 -4.2026e-26 0 5e-05 1.46608e-10 
274 1 0.38379 0.0183625 5.14951e-05 1.7976e-18 7.17257e-23 -1.37251e-15 0 -1.35595e-27 0 5e-05 1.46608e-10 
275 1 0.384335 0.0170692 8.94554e-05 7.80987e-21 2.13201e-20 4.87956e-19 0 0 0 5e-05 1.46608e-10 
276 1 0.384997 0.0161341 5.30769e-05 2.24033e-18 1.7417e-20 -1.71052e-15 -4.03897e-28 7.99525e-25 0 5e-05 1.46608e-10 
278 1 0.384825 0.018259 5.28512e-05 3.47733e-19 8.56784e-23 -2.65994e-16 0 0 0 5e-05 1.46608e-10 
279 1 0.384252 0.0210736 5.21011e-05 2.00508e-18 -4.50151e-21 -1.5309e-15 0 -7.14539e-26 0 5e-05 1.46608e-10 
280 1 0.383599 0.0190252 0.000120033 -7.01232e-21 1.08439e-21 -1.17735e-21 0 1.29247e-26 3.87741e-26 5e-05 1.46608e-10 
281 1 0.384805 0.0186896 5.28247e-05 1.79759e-18 2.78268e-21 -1.37249e-15 0 -2.95809e-25 0 5e-05 1.46608e-10 
283 1 0.383797 0.0177162 0.000219802 -2.82912e-19 -1.04144e-19 -3.35813e-21 -5.16988e-26 0 -6.46235e-27 5e-05 1.46608e-10 
284 1 0.383576 0.0182495 0.000150621 1.30593e-20 6.96421e-21 -4.44982e-22 0 5.16988e-26 0 5e-05 1.46608e-10 
285 1 0.384577 0.0172681 5.25269e-05 2.24032e-18 9.44331e-21 -1.71051e-15 0 -6.46468e-26 0 5e-05 1.46608e-10 
286 1 0.383757 0.0185573 5.14518e-05 -3.5022e-19 1.40846e-22 2.67382e-16 0 6.08252e-27 0 5e-05 1.46608e-10 
287 1 0.384957 0.0177572 5.30246e-05 1.79759e-18 -3.19979e-22 -1.37251e-15 0 5.47473e-26 0 5e-05 1.46608e-10 
288 1 0.383954 0.0183132 5.17102e-05 1.79757e-18 1.65553e-21 -1.37249e-15 0 -5.5883e-26 0 5e-05 1.46608e-10 
289 1 0.384537 0.0180461 0.000128511 -5.1091e-20 1.29303e-20 2.16339e-16 5.16988e-26 -1.29247e-26 0 5e-05 1.46608e-10 
290 1 0.384346 0.0178493 5.22233e-05 1.79758e-18 -2.52526e-22 -1.37249e-15 0 2.13088e-26 0 5e-05 1.46608e-10 
291 1 0.383806 0.0207438 5.15163e-05 2.00508e-18 -1.04971e-21 -1.5309e-15 0 4.66896e-27 0 5e-05 1.46608e-10 
292 1 0.384812 0.0169702 5.28343e-05 2.24034e-18 -2.88068e-22 -1.71051e-15 0 -1.34599e-29 0 5e-05 1.46608e-10 
293 1 0.383927 0.0199158 5.1675e-05 2.81055e-18 1.14352e-21 -2.14593e-15 -4.03897e-28 2.82916e-26 0 5e-05 1.46608e-10 
294 1 0.383957 0.0186367 5.17142e-05 2.81057e-18 -1.63121e-21 -2.14593e-15 0 2.88468e-26 0 5e-05 1.46608e-10 
295 1 0.384861 0.0185948 5.28981e-05 1.79758e-18 -1.55703e-21 -1.37249e-15 0 5.05118e-27 0 5e-05 1.46608e-10 
296 1 0.385006 0.0184002 5.30883e-05 1.79761e-18 3.01394e-22 -1.37249e-15 0 -2.40798e-26 0 5e-05 1.46608e-10 
297 1 0.383629 0.01881 5.12843e-05 -6.90745e-19 -2.89144e-21 5.27383e-16 1.61559e-26 0 0 5e-05 1.46608e-10 
298 1 0.384024 0.0176603 8.98669e-05 1.33142e-20 2.56381e-20 -4.26893e-19 2.58494e-26 2.58494e-26 2.06795e-25 5e-05 1.46608e-10 
299 1 0.383643 0.018743 0.000124216 -6.84751e-19 1.27174e-21 5.2738e-16 0 0 2.06795e-25 5e-05 1.46608e-10 
300 1 0.384681 0.0189793 5.2662e-05 -3.50187e-19 2.34991e-21 2.67381e-16 0 -1.97341e-27 0 5e-05 1.46608e-10 
