ITEM: TIMESTEP
21600000
ITEM: NUMBER OF ATOMS
287
ITEM: BOX BOUNDS ff ff ff
-0.02 0.43
-0.02 0.06
-0.02 0.07
ITEM: ATOMS id type x y z vx vy vz fx fy fz radius mass 
1 1 0.138788 0.0164631 0.00796207 0.00532418 -0.000111233 0.000406591 -1.70987e-10 3.53303e-11 -3.96185e-11 5e-05 1.46608e-10 
2 1 0.139239 0.0187577 0.00694759 0.00603234 -0.000653088 0.000273272 -6.14233e-12 -1.77348e-11 7.17061e-12 5e-05 1.46608e-10 
3 1 0.13288 0.0168899 0.00772682 0.00558598 -0.000170561 0.000499108 -1.65877e-10 -2.77885e-11 2.83656e-11 5e-05 1.46608e-10 
4 1 0.139092 0.0177382 0.00717273 0.00591594 -0.000676395 0.000432363 2.90482e-10 5.67422e-11 -4.80522e-10 5e-05 1.46608e-10 
5 1 0.138646 0.0162975 0.00811812 0.0057142 -0.000345033 0.000659593 -2.23033e-10 -1.82947e-11 -4.75283e-12 5e-05 1.46608e-10 
6 1 0.144657 0.0164802 0.00836554 0.00593294 0.000760807 0.00141796 9.2809e-13 9.36118e-13 -4.16401e-13 5e-05 1.46608e-10 
7 1 0.138825 0.0169169 0.00749129 0.00539725 -0.00089509 -7.25605e-05 -1.19939e-10 2.05163e-11 1.54874e-10 5e-05 1.46608e-10 
8 1 0.138538 0.0159475 0.00845858 0.0056961 -0.000353406 0.000666827 4.42244e-11 8.23544e-11 -8.27899e-11 5e-05 1.46608e-10 
9 1 0.144952 0.0175292 0.00764434 0.00475067 0.000239787 0.00142482 9.77555e-12 -3.09685e-13 5.69487e-12 5e-05 1.46608e-10 
10 1 0.13877 0.0167184 0.00770911 0.00532574 -0.000516122 0.000289987 -2.68644e-10 -1.2402e-10 2.76431e-10 5e-05 1.46608e-10 
11 1 0.139351 0.0180752 0.00708466 0.00600285 -0.000715608 0.000473317 4.95804e-10 -1.64609e-10 5.96231e-11 5e-05 1.46608e-10 
12 1 0.132666 0.0162287 0.0078555 0.00556223 -0.000277887 0.000371598 -1.11385e-10 -1.36558e-10 2.72557e-10 5e-05 1.46608e-10 
13 1 0.138624 0.0162275 0.00818621 0.0056253 -0.000347272 0.000657411 -3.62585e-11 -9.84015e-13 5.91193e-12 5e-05 1.46608e-10 
14 1 0.132426 0.0154912 0.00874702 0.00605975 0.00055286 0.000707516 -1.37218e-10 3.8258e-11 -1.69338e-10 5e-05 1.46608e-10 
15 1 0.138966 0.0171542 0.00725627 0.00551548 -0.00057837 0.000410079 -3.24263e-10 4.82373e-11 3.53835e-11 5e-05 1.46608e-10 
16 1 0.132405 0.0154541 0.0088374 0.00601976 0.000546438 0.000712151 2.71544e-11 7.8442e-11 -9.93154e-11 5e-05 1.46608e-10 
17 1 0.138752 0.0166477 0.00777752 0.00545809 -0.000410662 0.00043892 -3.58726e-10 -1.34192e-10 2.03434e-10 5e-05 1.46608e-10 
18 1 0.144821 0.0170476 0.00797711 0.00576087 0.000279553 0.00173581 -8.64144e-12 5.6668e-12 -5.13427e-12 5e-05 1.46608e-10 
19 1 0.138603 0.0161575 0.0082543 0.00564271 -0.0003572 0.000667529 4.88477e-11 1.82121e-11 -1.07052e-11 5e-05 1.46608e-10 
21 1 0.138763 0.0163917 0.00803147 0.00617667 -0.000445615 0.000785416 -1.05617e-11 -1.01932e-10 1.15986e-10 5e-05 1.46608e-10 
22 1 0.138863 0.0170655 0.00736641 0.00542702 -0.000733299 0.000135993 3.09042e-11 -8.02978e-12 1.14211e-10 5e-05 1.46608e-10 
23 1 0.132801 0.0164417 0.00777378 0.00540439 -0.000181789 0.000490704 6.65264e-11 -4.10374e-11 1.49403e-11 5e-05 1.46608e-10 
24 1 0.14489 0.0172884 0.00781188 0.00585845 0.00027725 0.00177144 5.32928e-12 8.76081e-13 9.85153e-13 5e-05 1.46608e-10 
25 1 0.138805 0.0168542 0.00756675 0.00533685 -0.000768392 3.76009e-05 3.08842e-11 1.15558e-10 4.07997e-10 5e-05 1.46608e-10 
26 1 0.144753 0.0168068 0.00814234 0.00569162 0.000281732 0.00171113 -1.41297e-12 -2.73074e-12 3.141e-12 5e-05 1.46608e-10 
27 1 0.132965 0.0172085 0.00764388 0.00561763 -0.000190163 0.000508991 -1.58803e-10 6.01973e-11 -1.27948e-11 5e-05 1.46608e-10 
28 1 0.139075 0.0176398 0.00717839 0.00595213 -0.000688403 0.000458415 1.43204e-10 1.4248e-10 1.67331e-10 5e-05 1.46608e-10 
29 1 0.138581 0.0160875 0.00832239 0.00565907 -0.000360214 0.000671518 1.98751e-11 1.71267e-11 -1.99606e-11 5e-05 1.46608e-10 
30 1 0.139031 0.0174467 0.00719868 0.00583232 -0.000730454 0.000456749 -1.97523e-11 2.32963e-10 -1.74229e-10 5e-05 1.46608e-10 
31 1 0.138841 0.0169825 0.00741762 0.00543621 -0.000870103 -5.42316e-05 -3.75933e-11 -5.27202e-11 5.78856e-12 5e-05 1.46608e-10 
32 1 0.13894 0.0170654 0.00729446 0.00543014 -0.0006429 0.000198081 -8.33213e-11 -1.58207e-10 4.41691e-10 5e-05 1.46608e-10 
33 1 0.144682 0.0165629 0.00830907 0.005936 0.00068847 0.00147563 7.85795e-13 9.20354e-13 -4.52935e-13 5e-05 1.46608e-10 
34 1 0.138733 0.0165774 0.00784592 0.00566344 -0.000307945 0.000612861 -1.26803e-10 -1.14174e-10 1.63812e-10 5e-05 1.46608e-10 
35 1 0.138939 0.0170009 0.00737087 0.00544079 -0.000664649 0.000172271 -2.62377e-10 -3.45368e-10 3.95176e-10 5e-05 1.46608e-10 
36 1 0.144988 0.0176898 0.00753076 0.00557756 0.000252411 0.00169539 -5.10012e-12 -1.16131e-11 6.01788e-12 5e-05 1.46608e-10 
37 1 0.13891 0.0168746 0.00752344 0.00539587 -0.000671604 0.000197386 6.72582e-12 1.04218e-11 -5.28089e-12 5e-05 1.46608e-10 
38 1 0.13911 0.0173834 0.00721617 0.00579061 -0.000668278 0.000451851 6.13501e-10 -5.17844e-10 -1.29515e-10 5e-05 1.46608e-10 
39 1 0.144913 0.0173686 0.00775687 0.00587972 0.000276141 0.00177944 8.40436e-12 1.4071e-12 -9.85146e-13 5e-05 1.46608e-10 
41 1 0.138689 0.0164374 0.00798209 0.00623864 -0.00038965 0.00073507 -1.17349e-10 -8.9398e-11 7.01935e-11 5e-05 1.46608e-10 
42 1 0.138881 0.0171446 0.00730789 0.0054651 -0.000619757 0.000282018 -1.31802e-10 -3.14492e-11 5.785e-11 5e-05 1.46608e-10 
44 1 0.139133 0.0174788 0.00719749 0.00591438 -0.000712715 0.000468644 5.43381e-10 -1.10209e-10 7.58812e-11 5e-05 1.46608e-10 
45 1 0.144706 0.0166449 0.00825307 0.00594002 0.000620088 0.00153053 6.46258e-13 9.09609e-13 -4.93053e-13 5e-05 1.46608e-10 
46 1 0.144798 0.0169673 0.00803219 0.00573796 0.000279946 0.00172775 -2.47327e-12 -2.64588e-15 -7.36507e-12 5e-05 1.46608e-10 
47 1 0.138712 0.0165073 0.00791412 0.00636914 -0.000395527 0.000749252 -4.10502e-11 -1.27866e-10 1.1157e-10 5e-05 1.46608e-10 
48 1 0.138919 0.0173193 0.0072193 0.00557642 -0.000531555 0.00043978 8.43616e-11 2.45509e-10 -1.99265e-10 5e-05 1.46608e-10 
49 1 0.144776 0.016887 0.00808727 0.00571453 0.000280906 0.00171984 7.13999e-12 -6.32313e-12 1.0707e-12 5e-05 1.46608e-10 
50 1 0.138977 0.0175992 0.00716396 0.00594682 -0.000648752 0.000441542 2.54367e-10 3.18387e-10 -1.55937e-10 5e-05 1.46608e-10 
51 1 0.138957 0.017513 0.00721033 0.00590767 -0.000624518 0.000440057 2.56041e-10 5.17177e-10 2.93558e-11 5e-05 1.46608e-10 
52 1 0.132646 0.0161481 0.00791109 0.0055393 -0.000426299 0.000132554 -1.43423e-10 -1.55661e-10 2.77103e-10 5e-05 1.46608e-10 
53 1 0.144844 0.0171278 0.00792204 0.0057835 0.000279498 0.00174416 -6.13852e-12 9.65058e-12 8.80938e-12 5e-05 1.46608e-10 
54 1 0.138741 0.0163217 0.00809948 0.00585262 -0.000460284 0.000781232 -2.53694e-10 3.88266e-11 -5.41954e-11 5e-05 1.46608e-10 
55 1 0.132469 0.0155722 0.0085693 0.00601026 0.000291664 0.00052788 -2.68889e-11 -3.26007e-11 -5.33542e-11 5e-05 1.46608e-10 
56 1 0.138926 0.0169376 0.00744719 0.00540576 -0.000725579 0.000276136 -1.49402e-10 -6.39305e-11 2.27403e-10 5e-05 1.46608e-10 
57 1 0.14473 0.0167264 0.00819744 0.00594501 0.000555518 0.00158277 5.08944e-13 9.04107e-13 -5.34906e-13 5e-05 1.46608e-10 
59 1 0.139035 0.0170268 0.00734767 0.00541377 -0.000645489 0.000413866 8.61107e-11 -4.13923e-10 1.79541e-10 5e-05 1.46608e-10 
60 1 0.139043 0.017093 0.00727321 0.00545401 -0.000648082 0.000425873 -4.54836e-10 1.15966e-10 1.40234e-10 5e-05 1.46608e-10 
61 1 0.138667 0.0163675 0.00805008 0.00596183 -0.000366827 0.000694216 -2.87154e-10 -9.41478e-12 1.37279e-11 5e-05 1.46608e-10 
62 1 0.139152 0.0175752 0.00717836 0.00594064 -0.000712204 0.000466712 6.82689e-11 -2.04025e-10 1.89035e-10 5e-05 1.46608e-10 
63 1 0.139155 0.017885 0.00719895 0.00599225 -0.000732555 0.000453037 -2.62544e-10 4.40553e-10 3.5474e-11 5e-05 1.46608e-10 
64 1 0.144867 0.0172081 0.00786696 0.0058068 0.000278976 0.00175262 5.30504e-12 2.03272e-12 -9.20731e-13 5e-05 1.46608e-10 
65 1 0.132952 0.0174518 0.00756022 0.00568412 -0.000189034 0.000516082 -1.13172e-10 7.73767e-11 -4.87431e-11 5e-05 1.46608e-10 
66 1 0.133084 0.0173921 0.00757987 0.00566205 -0.000210065 0.000521206 1.22379e-11 5.76469e-11 1.95054e-12 5e-05 1.46608e-10 
67 1 0.139234 0.0179487 0.00710478 0.0059519 -0.00073594 0.000477955 2.68891e-11 1.52322e-10 -1.80489e-10 5e-05 1.46608e-10 
68 1 0.139186 0.017772 0.00717628 0.00595343 -0.000745916 0.000466354 3.17668e-10 2.41982e-10 -1.43865e-10 5e-05 1.46608e-10 
69 1 0.138847 0.0166748 0.00775588 0.00530972 -0.000266077 0.000548293 -2.49457e-10 -1.20247e-10 1.94856e-10 5e-05 1.46608e-10 
70 1 0.144936 0.0174489 0.00770186 0.0059006 0.000274823 0.00178705 -1.53785e-12 2.73526e-12 -1.37383e-12 5e-05 1.46608e-10 
71 1 0.132447 0.0155283 0.0086565 0.00611109 0.000574464 0.000705152 -8.17238e-11 -6.65031e-12 -1.15528e-10 5e-05 1.46608e-10 
72 1 0.139167 0.0176736 0.00715864 0.0059355 -0.000640217 0.00044805 2.98381e-10 -4.91359e-10 3.31475e-11 5e-05 1.46608e-10 
73 1 0.138787 0.0167879 0.00763936 0.00531322 -0.000637332 0.00016207 6.2148e-11 -5.83253e-11 2.88726e-10 5e-05 1.46608e-10 
74 1 0.138994 0.0172541 0.00723693 0.00557975 -0.00066003 0.000438059 -9.52739e-11 -2.94746e-10 -1.49481e-11 5e-05 1.46608e-10 
76 1 0.132943 0.0170966 0.00757401 0.00561543 -0.000179967 0.000506757 -3.06222e-11 -7.41752e-12 -4.74372e-12 5e-05 1.46608e-10 
77 1 0.139221 0.0183024 0.00703132 0.00596972 -0.000703143 0.00028587 -1.41225e-10 3.71592e-11 3.27461e-10 5e-05 1.46608e-10 
78 1 0.132508 0.0156647 0.00839786 0.00560175 -0.000513809 1.81171e-05 -1.58137e-10 -5.24975e-11 3.34484e-11 5e-05 1.46608e-10 
79 1 0.133037 0.0172995 0.00760195 0.00565065 -0.000205204 0.000517194 -5.24278e-11 6.03728e-11 -3.35036e-11 5e-05 1.46608e-10 
80 1 0.139021 0.0177908 0.00712628 0.00595679 -0.000655927 0.000462476 2.91897e-11 1.4838e-10 1.73443e-11 5e-05 1.46608e-10 
81 1 0.132826 0.0169708 0.00770516 0.00557856 -0.000170967 0.000500205 2.57408e-11 9.2617e-11 -4.8588e-11 5e-05 1.46608e-10 
82 1 0.132725 0.016502 0.0077483 0.00537997 -0.000176101 0.000491243 7.84863e-11 1.26707e-10 2.47867e-11 5e-05 1.46608e-10 
83 1 0.132836 0.0161934 0.00785663 0.00559456 -0.000179821 0.000505169 -2.31946e-11 -2.44476e-11 4.61518e-12 5e-05 1.46608e-10 
84 1 0.144968 0.0176095 0.00758714 0.00551405 0.000253949 0.00167237 3.11302e-14 -5.6107e-12 4.2118e-12 5e-05 1.46608e-10 
85 1 0.132625 0.0157528 0.00829919 0.00560529 -0.000549523 5.9108e-05 -2.60564e-10 6.90068e-11 -4.77554e-11 5e-05 1.46608e-10 
86 1 0.139057 0.0175415 0.00718031 0.00595379 -0.000658833 0.000457154 3.44802e-10 -1.72869e-10 -1.60744e-11 5e-05 1.46608e-10 
87 1 0.139019 0.016957 0.00741759 0.00541859 -0.000696945 0.000339214 1.42447e-10 -3.69136e-10 5.77534e-10 5e-05 1.46608e-10 
88 1 0.139086 0.0179554 0.00718238 0.00601071 -0.000699156 0.000466557 -3.91968e-10 2.02536e-10 -2.76745e-11 5e-05 1.46608e-10 
89 1 0.139051 0.0178587 0.00720314 0.00596722 -0.000645723 0.000447311 -1.69174e-10 -1.0489e-10 8.13578e-11 5e-05 1.46608e-10 
90 1 0.139365 0.018188 0.00706187 0.00599755 -0.000634037 0.000452247 2.06238e-11 1.33906e-10 1.75868e-10 5e-05 1.46608e-10 
91 1 0.132686 0.0163195 0.00781838 0.00554831 -0.00023624 0.000499647 -5.50768e-11 -5.05056e-11 1.25746e-10 5e-05 1.46608e-10 
92 1 0.139256 0.0180445 0.00708596 0.00593164 -0.000731964 0.000473847 4.47949e-10 -4.49614e-11 6.13812e-11 5e-05 1.46608e-10 
93 1 0.139086 0.0180781 0.00706978 0.00599101 -0.000648677 0.000459243 -1.10323e-10 -2.94006e-11 -8.26228e-11 5e-05 1.46608e-10 
94 1 0.139345 0.0184351 0.00700976 0.00602674 -0.000685148 0.000180749 -2.86305e-10 1.62737e-10 -3.89858e-10 5e-05 1.46608e-10 
95 1 0.139181 0.0179861 0.00718095 0.00604094 -0.000751873 0.000447076 7.08981e-11 1.33965e-11 -4.38759e-10 5e-05 1.46608e-10 
96 1 0.139277 0.0181405 0.00706707 0.00602117 -0.000667773 0.000465893 3.73443e-10 -9.27471e-11 1.91788e-11 5e-05 1.46608e-10 
97 1 0.132608 0.0160071 0.00804754 0.00564761 -0.000531809 3.96273e-05 -1.90927e-10 -7.23473e-11 -1.72206e-12 5e-05 1.46608e-10 
98 1 0.139064 0.0179823 0.00708861 0.00599322 -0.000648375 0.000462415 -8.16017e-11 8.05013e-11 -7.64215e-11 5e-05 1.46608e-10 
99 1 0.133127 0.0174853 0.00754917 0.00571552 -0.000229768 0.000516224 -4.25806e-11 3.22276e-11 5.28305e-11 5e-05 1.46608e-10 
100 1 0.139245 0.0176124 0.00717559 0.00584643 -0.000749943 0.000469135 1.70953e-10 -2.39079e-10 7.6208e-12 5e-05 1.46608e-10 
101 1 0.132988 0.0171111 0.00766215 0.00561143 -0.00017775 0.000509063 -6.68217e-11 -1.19821e-10 -9.39749e-12 5e-05 1.46608e-10 
102 1 0.0643568 0.0187248 0.00531097 4.06905e-15 1.0563e-14 8.29619e-14 5.41338e-22 -2.35307e-22 1.03398e-24 5e-05 1.46608e-10 
103 1 0.24257 0.0191927 0.00520306 1.19201e-22 4.01299e-22 8.29106e-22 0 0 0 5e-05 1.46608e-10 
104 1 0.132955 0.0167558 0.00768481 0.00539464 -0.000159449 0.000482604 3.41685e-11 -3.09305e-11 8.37412e-12 5e-05 1.46608e-10 
105 1 0.132568 0.01587 0.00818749 0.00567573 -0.000537275 3.95975e-05 9.03408e-11 -1.17599e-11 -3.08656e-13 5e-05 1.46608e-10 
106 1 0.133051 0.016788 0.00768207 0.00555309 -0.000203786 0.000509626 -1.01942e-11 -3.14868e-11 9.54326e-12 5e-05 1.46608e-10 
107 1 0.132528 0.0157329 0.00832744 0.00563753 -0.000518215 2.53992e-05 -5.20334e-11 -1.46807e-11 6.67737e-11 5e-05 1.46608e-10 
108 1 0.13889 0.0168123 0.00759924 0.00533528 -0.000650112 0.000182536 2.754e-10 -2.91763e-11 3.21411e-11 5e-05 1.46608e-10 
109 1 0.138941 0.0174162 0.00723002 0.00582881 -0.000598845 0.000456487 2.43988e-11 3.56445e-10 1.12236e-10 5e-05 1.46608e-10 
110 1 0.139218 0.0186616 0.00696476 0.00602672 -0.000649137 0.000272901 -8.94585e-11 7.4015e-12 -5.97642e-11 5e-05 1.46608e-10 
111 1 0.139174 0.0184694 0.00699911 0.00600162 -0.000672484 0.000273336 1.86485e-10 6.75804e-12 2.02601e-10 5e-05 1.46608e-10 
112 1 0.132628 0.0160757 0.00797752 0.00554764 -0.000516574 2.72738e-05 -1.16997e-10 -1.61389e-10 1.29594e-10 5e-05 1.46608e-10 
113 1 0.133249 0.0176507 0.00740016 0.0056211 -0.000149549 -0.000104684 -2.16997e-11 -5.08166e-11 2.2151e-11 5e-05 1.46608e-10 
114 1 0.133359 0.0174372 0.00747527 0.00600339 -0.000221093 -8.79105e-05 -2.33081e-10 9.95283e-11 -5.48566e-11 5e-05 1.46608e-10 
115 1 0.139016 0.0173504 0.00722078 0.00576589 -0.000696014 0.00042496 5.97641e-11 -1.94152e-10 -1.72745e-10 5e-05 1.46608e-10 
116 1 0.138872 0.0167497 0.00767518 0.00529525 -0.000634844 0.000173581 2.84696e-10 -2.11614e-11 9.28021e-11 5e-05 1.46608e-10 
117 1 0.13872 0.0162517 0.00816752 0.00559381 -0.000435318 0.000742133 -1.95658e-10 1.06249e-11 -2.46806e-11 5e-05 1.46608e-10 
118 1 0.132781 0.0167873 0.00776209 0.00535389 -0.000185173 0.000475337 -1.76305e-11 -2.67731e-11 -2.04146e-11 5e-05 1.46608e-10 
119 1 0.139067 0.0171882 0.00725462 0.00557138 -0.000683362 0.000428309 2.044e-10 6.57994e-11 -1.08444e-11 5e-05 1.46608e-10 
120 1 0.13856 0.0160175 0.00839049 0.00567754 -0.000357687 0.000670004 -7.04487e-12 2.47422e-11 -1.9492e-11 5e-05 1.46608e-10 
121 1 0.138516 0.0158775 0.00852667 0.00571741 -0.000349874 0.000664462 4.22653e-11 1.74492e-10 -1.69171e-10 5e-05 1.46608e-10 
122 1 0.139271 0.0185008 0.00699576 0.00601326 -0.000656474 0.000274017 -6.39761e-11 2.04246e-10 1.46384e-10 5e-05 1.46608e-10 
123 1 0.132665 0.0158899 0.00815921 0.00566086 -0.000560939 6.3279e-05 3.03298e-10 8.92626e-11 -9.70303e-11 5e-05 1.46608e-10 
124 1 0.139042 0.0178865 0.00710745 0.00597287 -0.000653383 0.000455636 -1.50793e-10 4.3054e-11 4.15241e-11 5e-05 1.46608e-10 
125 1 0.138698 0.0161817 0.00823564 0.00564195 -0.000346522 0.000656962 1.89727e-11 -1.5182e-11 2.30875e-11 5e-05 1.46608e-10 
126 1 0.1389 0.017229 0.00725753 0.00553025 -0.000545501 0.000390593 -1.35293e-10 4.44181e-11 2.28558e-11 5e-05 1.46608e-10 
127 1 0.132588 0.0159386 0.00811752 0.00570146 -0.000545134 4.78359e-05 2.72642e-11 2.29385e-11 7.62452e-12 5e-05 1.46608e-10 
128 1 0.138999 0.017695 0.00714512 0.00595276 -0.000660635 0.000460925 1.75532e-10 3.10948e-10 -1.19253e-10 5e-05 1.46608e-10 
129 1 0.139135 0.0180962 0.00715515 0.00596081 -0.000672325 0.000476162 8.68855e-11 -4.75577e-10 -1.17884e-10 5e-05 1.46608e-10 
130 1 0.13282 0.0165355 0.00774507 0.00538511 -0.000172444 0.000485225 9.97889e-12 3.87469e-11 -6.12163e-12 5e-05 1.46608e-10 
131 1 0.133114 0.0175834 0.00753505 0.00594668 -0.000226887 0.000314453 -5.16396e-11 -1.25589e-12 5.86453e-11 5e-05 1.46608e-10 
132 1 0.139117 0.0178224 0.00712486 0.00596412 -0.000698132 0.000454361 6.71978e-11 1.87952e-10 -8.30417e-11 5e-05 1.46608e-10 
133 1 0.138952 0.0167073 0.00772239 0.00534048 -0.000537254 0.000416733 -3.0617e-10 9.55573e-11 -1.88167e-10 5e-05 1.46608e-10 
134 1 0.139089 0.0172845 0.00723571 0.00564444 -0.000850969 0.000487576 -1.985e-10 -1.16206e-10 1.74429e-10 5e-05 1.46608e-10 
135 1 0.138676 0.0161117 0.00830373 0.00566056 -0.00034992 0.000661327 -7.45918e-11 -4.80328e-11 3.95557e-11 5e-05 1.46608e-10 
136 1 0.132604 0.0156843 0.00836915 0.00560558 -0.000551912 6.18845e-05 -1.15115e-10 -2.84806e-11 2.86559e-11 5e-05 1.46608e-10 
137 1 0.139213 0.0183737 0.00710096 0.00591798 -0.00069343 0.000260094 -1.81253e-10 -1.18994e-10 8.60209e-10 5e-05 1.46608e-10 
138 1 0.138828 0.0166035 0.0078254 0.00559288 -0.000152599 0.000458562 -1.71094e-10 -9.41167e-11 -1.29392e-11 5e-05 1.46608e-10 
140 1 0.139365 0.0185335 0.00699213 0.00601722 -0.000637943 0.000266748 -1.38498e-10 1.72127e-10 1.82782e-10 5e-05 1.46608e-10 
141 1 0.132645 0.0158214 0.00822919 0.00562287 -0.00055246 5.91613e-05 -1.74379e-10 1.13741e-10 -1.16295e-10 5e-05 1.46608e-10 
142 1 0.132915 0.0165685 0.00774199 0.00538387 -0.000170581 0.000485132 1.69807e-11 2.14724e-11 -7.87075e-12 5e-05 1.46608e-10 
143 1 0.132548 0.0158014 0.00825748 0.00565689 -0.000528481 3.19799e-05 -3.38346e-11 -1.00766e-11 1.64245e-11 5e-05 1.46608e-10 
144 1 0.133061 0.0172226 0.00754282 0.00564325 -0.000199788 0.000514492 -4.07511e-11 2.51529e-11 -4.01935e-12 5e-05 1.46608e-10 
146 1 0.13295 0.0163191 0.00782525 0.00552401 -1.42964e-05 0.000446714 -9.30619e-11 4.76229e-11 -3.72348e-12 5e-05 1.46608e-10 
147 1 0.132585 0.0156259 0.00844813 0.00550229 0.000416905 0.000867047 -8.15818e-11 -5.28779e-11 -2.06378e-10 5e-05 1.46608e-10 
148 1 0.132783 0.0167834 0.0076622 0.00536157 -0.000158113 0.000477564 -6.2299e-12 6.27423e-11 -1.5816e-11 5e-05 1.46608e-10 
149 1 0.139129 0.018272 0.00705496 0.00597374 -0.000639881 0.000372714 -1.02485e-10 -1.64397e-10 2.58912e-11 5e-05 1.46608e-10 
150 1 0.132744 0.0161756 0.00789165 0.00557863 -0.000280195 0.000398988 -2.65441e-11 6.04703e-11 1.18963e-10 5e-05 1.46608e-10 
151 1 0.133253 0.0172962 0.00752988 0.00581293 -0.000276272 -6.50801e-05 9.12895e-12 3.11478e-11 -3.85242e-11 5e-05 1.46608e-10 
153 1 0.132704 0.0160271 0.00801921 0.0055021 -0.000534669 5.45304e-05 2.23393e-10 1.42906e-10 -3.69662e-11 5e-05 1.46608e-10 
154 1 0.132879 0.0168161 0.00765928 0.00554521 -0.000176875 0.000500454 1.08704e-10 -1.70442e-11 7.71066e-12 5e-05 1.46608e-10 
155 1 0.132965 0.01719 0.0075456 0.00563367 -0.000184514 0.000509057 -2.73962e-11 -5.21163e-12 2.09876e-12 5e-05 1.46608e-10 
156 1 0.132858 0.0167255 0.00769605 0.00541179 -0.000162587 0.000481255 1.02878e-10 4.09315e-11 -1.51604e-11 5e-05 1.46608e-10 
157 1 0.0219312 0.0187687 0.00551176 -3.83624e-14 8.16449e-14 2.9589e-13 5.64292e-22 -1.88804e-22 1.20562e-22 5e-05 1.46608e-10 
158 1 0.132976 0.0168494 0.00765632 0.00556776 -0.000188784 0.000505319 -3.41098e-11 -4.43146e-11 1.41488e-11 5e-05 1.46608e-10 
159 1 0.139139 0.0179182 0.00710602 0.00599091 -0.000693134 0.00046362 -2.30655e-10 1.09353e-10 6.13996e-12 5e-05 1.46608e-10 
160 1 0.132868 0.0171576 0.00754834 0.00562542 -0.00016949 0.000503415 -7.72703e-12 -2.16415e-11 8.42537e-12 5e-05 1.46608e-10 
162 1 0.1329 0.0169096 0.00763086 0.00557859 -0.000175666 0.000501449 -7.07889e-11 -6.7589e-12 9.68295e-12 5e-05 1.46608e-10 
164 1 0.133039 0.0175786 0.00746833 0.00568242 -0.000208551 0.000555143 -5.22006e-11 1.98316e-10 2.49459e-11 5e-05 1.46608e-10 
165 1 0.133159 0.0172588 0.00753895 0.00564845 -0.000214796 0.000521012 -6.14823e-11 8.87469e-11 -2.90631e-11 5e-05 1.46608e-10 
166 1 0.138914 0.0165703 0.00786308 0.00545247 -0.00032522 0.000636677 2.81964e-11 -5.37798e-11 -4.95256e-11 5e-05 1.46608e-10 
167 1 0.132723 0.0160982 0.00795148 0.00552607 -0.000437812 0.00016849 -7.9025e-11 2.28218e-10 1.43407e-10 5e-05 1.46608e-10 
168 1 0.133072 0.0168815 0.00765366 0.00557018 -0.000203887 0.00051087 2.36735e-11 -1.99632e-11 1.0995e-11 5e-05 1.46608e-10 
169 1 0.133206 0.0175595 0.00743478 0.00569897 -0.000547865 3.07323e-05 -1.27174e-10 7.35631e-11 4.76726e-11 5e-05 1.46608e-10 
170 1 0.133114 0.0170685 0.00759674 0.00560872 -0.000209605 0.000516186 -2.30027e-11 1.70925e-11 2.01946e-13 5e-05 1.46608e-10 
171 1 0.138933 0.0166407 0.00779442 0.00527837 -0.000317377 0.00060463 -9.6343e-11 9.25467e-11 2.50206e-12 5e-05 1.46608e-10 
172 1 0.133284 0.0174999 0.00745443 0.00583691 -0.000391489 -1.89313e-05 -1.16786e-10 1.23754e-10 -6.09155e-11 5e-05 1.46608e-10 
173 1 0.139317 0.0183326 0.00702904 0.00594813 -0.000626705 0.000447858 2.09842e-11 -1.20774e-10 3.78421e-11 5e-05 1.46608e-10 
174 1 0.133019 0.0170362 0.0075995 0.00560393 -0.000192474 0.000510591 -4.35882e-11 -2.18821e-11 -3.05939e-12 5e-05 1.46608e-10 
175 1 0.126894 0.01719 0.00723083 0.00564297 -0.000193968 0.000105875 4.75437e-11 4.68184e-11 7.97021e-11 5e-05 1.46608e-10 
176 1 0.13284 0.0166294 0.00771636 0.0053828 -0.000163888 0.000482623 2.10277e-11 2.57385e-11 5.12411e-12 5e-05 1.46608e-10 
177 1 0.132911 0.0173445 0.00749152 0.00566741 -0.000174964 0.00050864 3.53604e-11 6.81519e-11 -3.08317e-11 5e-05 1.46608e-10 
178 1 0.133297 0.0178369 0.0073306 0.00588228 3.59188e-05 -0.000179305 5.21404e-11 -4.88595e-11 1.0822e-11 5e-05 1.46608e-10 
179 1 0.133191 0.0174541 0.00747378 0.00576962 -0.000295189 -4.5519e-05 -8.73185e-11 -3.68719e-11 -1.13703e-10 5e-05 1.46608e-10 
181 1 0.132825 0.0169707 0.00760516 0.00558969 -0.000160851 0.000498821 -1.21385e-11 -2.06599e-11 -6.93371e-12 5e-05 1.46608e-10 
182 1 0.138808 0.0165332 0.00789385 0.00582447 -0.000173825 0.00049664 -1.09932e-10 -5.76709e-11 3.95789e-11 5e-05 1.46608e-10 
183 1 0.133094 0.0169748 0.00762531 0.00558395 -0.000205469 0.000512363 -8.03925e-12 8.1497e-13 -2.94531e-13 5e-05 1.46608e-10 
184 1 0.139291 0.0182518 0.0070821 0.00594101 -0.000665297 0.000374492 -1.65269e-10 -5.13625e-11 2.46303e-10 5e-05 1.46608e-10 
185 1 0.132764 0.0166896 0.00769089 0.00537672 -0.000162184 0.000481797 1.02848e-10 -4.29805e-11 4.53133e-11 5e-05 1.46608e-10 
186 1 0.132804 0.0168771 0.00763362 0.00557151 -0.000147949 0.000492829 -5.55563e-12 -9.43891e-11 2.21425e-11 5e-05 1.46608e-10 
187 1 0.139228 0.0175122 0.00719558 0.00591666 -0.000755368 0.000473085 2.55073e-10 -7.61275e-11 3.26531e-11 5e-05 1.46608e-10 
188 1 0.139204 0.0182056 0.00704948 0.00597159 -0.000665799 0.000466297 2.47662e-10 -1.18724e-10 1.76933e-10 5e-05 1.46608e-10 
189 1 0.139262 0.017709 0.00715631 0.00596152 -0.000750146 0.000469879 1.84087e-10 2.47796e-11 4.25987e-11 5e-05 1.46608e-10 
190 1 0.127069 0.0175914 0.00710651 0.00615294 -0.000297935 0.000132967 -4.3849e-11 2.24142e-11 -7.83059e-12 5e-05 1.46608e-10 
191 1 0.139152 0.0183733 0.00701628 0.00599121 -0.000686425 0.000271793 4.63373e-12 9.722e-11 1.71513e-10 5e-05 1.46608e-10 
192 1 0.13301 0.0166008 0.00773919 0.00550331 -0.000200878 0.000504712 1.05361e-10 -4.25158e-11 2.64983e-11 5e-05 1.46608e-10 
193 1 0.139004 0.0168923 0.00749224 0.00539555 -0.000730655 0.00027747 -2.44196e-10 -2.54451e-11 5.60873e-10 5e-05 1.46608e-10 
194 1 0.132856 0.0162872 0.00782797 0.00556694 -0.000183589 0.000504692 -8.83298e-11 -1.90314e-11 -4.62726e-11 5e-05 1.46608e-10 
195 1 0.133322 0.0175861 0.00742177 0.00552201 -0.000258604 -6.15903e-05 6.55095e-11 1.7873e-10 -6.14688e-11 5e-05 1.46608e-10 
196 1 0.132384 0.0154171 0.00892785 0.00600026 0.000550378 0.000710154 -2.3776e-11 -1.91664e-11 -9.30653e-11 5e-05 1.46608e-10 
197 1 0.126952 0.0174647 0.00713493 0.00560179 -0.000177529 9.92018e-05 3.19442e-11 5.80871e-11 -1.42563e-11 5e-05 1.46608e-10 
198 1 0.132889 0.017072 0.00766706 0.00559786 -0.000170354 0.000503576 4.1995e-11 -3.22569e-11 8.73322e-12 5e-05 1.46608e-10 
199 1 0.132922 0.017003 0.00760245 0.00559564 -0.000177155 0.00050466 1.86227e-11 -4.33716e-11 1.53498e-11 5e-05 1.46608e-10 
200 1 0.132706 0.0164135 0.00779065 0.00542283 -0.000280137 0.000299394 1.43537e-10 2.28714e-10 4.71944e-10 5e-05 1.46608e-10 
201 1 0.133192 0.0178005 0.00734689 0.00584566 5.1109e-05 -0.000183214 -5.64689e-13 -3.9178e-11 4.92643e-12 5e-05 1.46608e-10 
202 1 0.133031 0.0166943 0.0077107 0.00552671 -0.000202581 0.000506965 6.52725e-11 -4.64643e-11 1.96135e-11 5e-05 1.46608e-10 
203 1 0.139212 0.0178529 0.00712362 0.00595875 -0.000760061 0.000471921 -1.84046e-10 3.31834e-10 -3.66517e-13 5e-05 1.46608e-10 
204 1 0.132781 0.0163481 0.00780234 0.00554181 -0.000206281 0.000503996 -1.42567e-10 -6.73952e-11 -4.55773e-11 5e-05 1.46608e-10 
205 1 0.133006 0.0173813 0.00750061 0.00566915 -0.000194932 0.00051661 -1.10801e-11 1.35737e-10 -4.59407e-11 5e-05 1.46608e-10 
206 1 0.133039 0.0171319 0.00757864 0.00562426 -0.000194245 0.000512218 -5.39671e-11 -5.00576e-12 -9.71082e-13 5e-05 1.46608e-10 
207 1 0.132685 0.0159584 0.00808924 0.0055942 -0.000549141 6.09621e-05 4.48353e-10 7.29276e-11 -1.10108e-10 5e-05 1.46608e-10 
208 1 0.132997 0.0169428 0.00762791 0.00558351 -0.000190129 0.000507713 -4.28653e-12 -3.23644e-11 7.96707e-12 5e-05 1.46608e-10 
209 1 0.13276 0.0162535 0.00783119 0.00557002 -0.000204646 0.000501766 -7.98391e-11 -4.45646e-11 1.41341e-10 5e-05 1.46608e-10 
210 1 0.139009 0.0177521 0.00722657 0.00591506 -0.000466746 0.000335915 4.43648e-10 -1.30611e-10 4.75023e-10 5e-05 1.46608e-10 
211 1 0.139182 0.0181098 0.00706836 0.0059967 -0.000675833 0.000472181 3.38201e-10 -1.5417e-10 1.0512e-10 5e-05 1.46608e-10 
212 1 0.133137 0.0171618 0.00756843 0.00563529 -0.000211979 0.000518849 -6.02668e-11 4.49706e-11 -1.66252e-11 5e-05 1.46608e-10 
213 1 0.139207 0.0174134 0.00721511 0.00586274 -0.000799652 0.000484534 4.14432e-10 -3.06118e-10 1.00168e-10 5e-05 1.46608e-10 
214 1 0.13916 0.018014 0.00708718 0.00600888 -0.000666584 0.000465926 -1.65151e-10 5.53572e-11 -1.56607e-10 5e-05 1.46608e-10 
215 1 0.127028 0.0174008 0.00715065 0.00585973 -0.000237797 0.000116692 -6.55762e-11 2.97837e-12 -7.82155e-13 5e-05 1.46608e-10 
216 1 0.13289 0.0172511 0.00751993 0.0056456 -0.000172161 0.000505786 -1.8349e-11 1.91442e-11 -1.27942e-11 5e-05 1.46608e-10 
217 1 0.138968 0.0167718 0.0076477 0.00521677 -0.000657004 0.000281657 -8.08189e-11 2.32388e-11 -1.13669e-10 5e-05 1.46608e-10 
218 1 0.133274 0.017745 0.00736493 0.00583586 2.4132e-05 -0.000172517 3.18559e-11 -4.21426e-11 -1.14369e-11 5e-05 1.46608e-10 
219 1 0.139107 0.0181744 0.00705367 0.00600007 -0.000643015 0.000481948 1.57054e-10 9.22095e-11 2.86241e-10 5e-05 1.46608e-10 
220 1 0.132847 0.0170642 0.00757675 0.00560766 -0.000165943 0.000501458 2.01124e-12 -4.28357e-11 1.58219e-11 5e-05 1.46608e-10 
221 1 0.126969 0.0171324 0.00726466 0.00564382 -0.000219246 6.87731e-05 2.52821e-10 -7.37659e-11 1.81659e-11 5e-05 1.46608e-10 
222 1 0.138987 0.0168296 0.00756827 0.00532475 -0.000715376 0.000262389 2.12469e-11 -4.75485e-11 1.67175e-10 5e-05 1.46608e-10 
223 1 0.132934 0.0166623 0.00771328 0.00538737 -0.000161335 0.00048204 -4.48484e-11 1.29948e-11 -1.16756e-11 5e-05 1.46608e-10 
224 1 0.132745 0.0165958 0.00771959 0.00536447 -0.00016426 0.000482646 9.45306e-11 5.66092e-11 -9.35818e-12 5e-05 1.46608e-10 
225 1 0.139196 0.0185655 0.00698194 0.00601267 -0.000658775 0.000269908 -4.87547e-11 -8.32367e-11 1.95229e-11 5e-05 1.46608e-10 
226 1 0.133268 0.0173934 0.00749385 0.00574611 -0.000332961 -3.70883e-05 6.6554e-11 6.23723e-11 -3.39934e-11 5e-05 1.46608e-10 
227 1 0.127091 0.0176865 0.0070845 0.00614776 -0.000294125 0.000132064 -4.92199e-11 3.84589e-11 -1.03881e-11 5e-05 1.46608e-10 
228 1 0.126914 0.0172734 0.00717925 0.00565271 -0.000195437 0.000104787 9.6688e-12 5.50375e-13 2.50255e-11 5e-05 1.46608e-10 
229 1 0.132954 0.0173537 0.0075814 0.00565971 -0.000195325 0.00051091 4.39305e-12 5.05854e-11 -2.91965e-11 5e-05 1.46608e-10 
230 1 0.133138 0.0179505 0.00729352 0.00587154 3.23933e-05 -0.000176306 -2.21864e-11 -1.0233e-11 -3.48901e-12 5e-05 1.46608e-10 
231 1 0.126875 0.0171145 0.00729361 0.00564504 -0.000206572 9.24515e-05 1.67147e-10 5.18549e-11 8.56257e-11 5e-05 1.46608e-10 
232 1 0.132821 0.0161185 0.00792109 0.00545465 -0.000398736 0.000219299 -6.73604e-11 3.957e-11 9.81625e-11 5e-05 1.46608e-10 
233 1 0.132895 0.0164747 0.0077707 0.00539601 -0.000168924 0.000485432 4.38002e-11 -2.30889e-11 2.84228e-12 5e-05 1.46608e-10 
234 1 0.139249 0.0184047 0.00701302 0.00598958 -0.00065089 0.000310716 1.32318e-10 1.88869e-10 8.12479e-10 5e-05 1.46608e-10 
235 1 0.133109 0.0182067 0.00724349 0.00587085 -9.47854e-05 -0.000128173 5.2085e-11 -1.49551e-10 -2.4486e-11 5e-05 1.46608e-10 
236 1 0.13326 0.0180866 0.0072402 0.00599874 5.69024e-05 -0.000189118 9.14034e-11 -1.17358e-10 4.14944e-11 5e-05 1.46608e-10 
237 1 0.133191 0.0181548 0.00721719 0.00591779 -1.29343e-05 -0.00016041 2.17845e-10 8.31705e-11 -4.27334e-11 5e-05 1.46608e-10 
239 1 0.126699 0.0163632 0.00775441 0.00553505 0.000108711 0.000427378 -3.84448e-10 -1.30242e-13 -2.1974e-10 5e-05 1.46608e-10 
240 1 0.126757 0.0166087 0.00759241 0.0055545 -0.000197162 5.56799e-05 4.86027e-11 -8.05501e-11 2.20592e-11 5e-05 1.46608e-10 
241 1 0.12668 0.01629 0.00781978 0.00564195 7.99945e-05 0.000468912 2.71782e-10 -1.54009e-10 1.72048e-10 5e-05 1.46608e-10 
242 1 0.132876 0.0163808 0.00779941 0.00541909 -0.000163322 0.000486085 9.76406e-12 -3.12902e-11 1.91167e-11 5e-05 1.46608e-10 
243 1 0.132873 0.0171687 0.00764763 0.00561747 -0.000167024 0.000501296 1.81654e-11 -3.45259e-11 2.33954e-11 5e-05 1.46608e-10 
244 1 0.126719 0.0164422 0.00769623 0.00551391 -0.000186326 4.7021e-05 -1.62828e-11 2.96446e-10 1.28098e-10 5e-05 1.46608e-10 
246 1 0.126837 0.0169413 0.00738491 0.00561247 -0.000219869 6.89002e-05 -1.36892e-10 4.17629e-11 -4.66567e-11 5e-05 1.46608e-10 
247 1 0.133022 0.0174794 0.00748675 0.005694 -0.000199857 0.000517788 -2.18834e-13 8.58757e-11 -4.5199e-11 5e-05 1.46608e-10 
248 1 0.133127 0.0176209 0.00744332 0.00584439 -0.000396071 0.000237733 -1.55988e-10 1.06714e-10 1.1036e-10 5e-05 1.46608e-10 