ITEM: TIMESTEP
48000000
ITEM: NUMBER OF ATOMS
275
ITEM: BOX BOUNDS ff ff ff
-0.02 0.43
-0.02 0.06
-0.02 0.07
ITEM: ATOMS id type x y z vx vy vz fx fy fz radius mass 
1 1 0.293123 0.0181233 0.00702843 0.00550835 -0.000351597 0.000130617 -9.94894e-11 2.39222e-12 7.19027e-12 5e-05 1.46608e-10 
2 1 0.292798 0.0171172 0.00757443 0.00570054 -0.000421825 0.000134208 -6.08539e-11 -3.03197e-11 3.90144e-11 5e-05 1.46608e-10 
4 1 0.292951 0.0170171 0.00765564 0.00570359 -0.000412249 0.000127136 -6.92013e-11 -3.08465e-11 2.95994e-11 5e-05 1.46608e-10 
5 1 0.292385 0.0157294 0.00880341 0.00560975 -0.000409484 0.000136121 1.13776e-10 -2.7495e-11 5.22187e-11 5e-05 1.46608e-10 
6 1 0.298732 0.016739 0.00752068 0.00575136 -0.000217209 -0.000315002 -1.2412e-10 -1.17208e-10 5.47607e-11 5e-05 1.46608e-10 
7 1 0.293091 0.0175341 0.00719836 0.00547788 -0.000367686 9.58132e-05 1.73354e-11 -1.05639e-10 1.22716e-10 5e-05 1.46608e-10 
8 1 0.292786 0.0167737 0.00787499 0.00565805 -0.00042585 0.000140777 3.9228e-11 -4.79132e-12 -4.83575e-13 5e-05 1.46608e-10 
9 1 0.298928 0.0176348 0.00714815 0.00546054 -0.00034108 -0.000110859 6.30521e-13 8.92797e-14 -5.73107e-14 5e-05 1.46608e-10 
10 1 0.292885 0.0167974 0.00785016 0.0056562 -0.000436575 0.000150186 4.77166e-11 2.9904e-11 -3.00774e-11 5e-05 1.46608e-10 
11 1 0.293004 0.0178211 0.00708066 0.00554917 -0.000368561 0.000128824 1.03216e-11 1.21272e-10 3.361e-11 5e-05 1.46608e-10 
12 1 0.287134 0.0173383 0.00722331 0.00568416 0.000251529 -6.8707e-05 -1.55396e-10 5.03504e-11 -3.07814e-11 5e-05 1.46608e-10 
13 1 0.292364 0.0156479 0.00885716 0.00559811 0.000159529 0.000981008 -1.04603e-10 -2.25068e-11 -1.5525e-11 5e-05 1.46608e-10 
14 1 0.287109 0.0177184 0.00713159 0.00574246 0.000301962 -9.59763e-05 -7.59786e-11 -1.26005e-11 -3.58017e-11 5e-05 1.46608e-10 
16 1 0.287308 0.0181658 0.00700844 0.0057428 0.0002087 -9.55212e-05 3.39179e-11 -1.02233e-11 1.15874e-13 5e-05 1.46608e-10 
17 1 0.292742 0.0166274 0.00800447 0.00565502 -0.000430516 0.000144982 6.62976e-11 -1.32556e-11 8.17092e-12 5e-05 1.46608e-10 
19 1 0.292342 0.0155652 0.00890913 0.00561696 0.000160199 0.000988898 -1.83687e-11 4.48452e-11 -4.4119e-11 5e-05 1.46608e-10 
21 1 0.293123 0.0176862 0.00706423 0.00560188 -0.000396622 0.000122183 1.61594e-12 -1.45618e-10 9.3496e-11 5e-05 1.46608e-10 
22 1 0.292907 0.0168706 0.00778542 0.00567685 -0.00043934 0.000151802 3.13936e-11 3.21661e-11 -2.94821e-11 5e-05 1.46608e-10 
23 1 0.287269 0.0179697 0.00700015 0.00574589 0.000212293 -9.55053e-05 -7.06829e-11 4.61415e-11 2.4467e-12 5e-05 1.46608e-10 
24 1 0.298848 0.0172545 0.0072687 0.00564449 8.94309e-05 0.000157132 -5.99913e-11 -1.89213e-11 -2.16524e-11 5e-05 1.46608e-10 
25 1 0.292494 0.0160943 0.0084803 0.00562448 -0.000418195 0.000135548 -7.838e-11 -1.88142e-11 2.55776e-11 5e-05 1.46608e-10 
26 1 0.298888 0.0174423 0.00721286 0.00550602 1.5178e-05 -0.000229473 -3.01858e-11 4.57782e-12 -2.77162e-13 5e-05 1.46608e-10 
27 1 0.28683 0.0168148 0.00761568 0.00583283 -0.000245134 -0.000816814 -7.44934e-11 7.43212e-11 -5.2035e-11 5e-05 1.46608e-10 
28 1 0.292873 0.0170661 0.00761604 0.00570037 -0.000417978 0.000131532 -1.5374e-10 -1.20882e-10 1.07769e-10 5e-05 1.46608e-10 
29 1 0.292321 0.0154825 0.0089611 0.00563144 0.000154241 0.00099623 2.41573e-11 1.08972e-11 -3.20635e-12 5e-05 1.46608e-10 
30 1 0.292581 0.0163865 0.00822151 0.00564538 -0.000422197 0.000138104 -1.05097e-11 -6.79421e-12 6.38097e-12 5e-05 1.46608e-10 
31 1 0.293167 0.017483 0.00723993 0.00532715 -0.000320291 6.15684e-05 -1.19906e-10 -4.47825e-11 4.38985e-11 5e-05 1.46608e-10 
32 1 0.292515 0.0161673 0.00841559 0.00563495 -0.000419283 0.000135951 -4.11661e-11 -2.6792e-11 2.91901e-11 5e-05 1.46608e-10 
33 1 0.29875 0.0168095 0.00745225 0.00580257 -0.000226618 -0.000301068 3.45723e-10 1.69053e-10 2.81847e-10 5e-05 1.46608e-10 
34 1 0.292476 0.0160258 0.00855091 0.00562125 -0.000416871 0.000133769 3.12498e-11 -8.66427e-12 1.11131e-11 5e-05 1.46608e-10 
35 1 0.293052 0.0173871 0.00732836 0.00532108 -0.000335056 7.49226e-05 3.13787e-10 -8.53914e-11 6.60238e-11 5e-05 1.46608e-10 
36 1 0.298992 0.0179383 0.00704613 0.00552874 -0.000415309 -8.93198e-05 3.90414e-13 3.42454e-13 -1.03037e-13 5e-05 1.46608e-10 
37 1 0.292929 0.016944 0.00772037 0.00574081 -0.000387364 0.000103783 3.89938e-11 2.75505e-11 -2.60209e-11 5e-05 1.46608e-10 
38 1 0.293016 0.0172397 0.00745854 0.00542476 -0.000350755 8.45046e-05 2.20686e-10 6.89724e-11 -6.62722e-11 5e-05 1.46608e-10 
39 1 0.298868 0.0173494 0.00724411 0.00564531 -1.67026e-05 -0.000222519 1.1357e-10 -9.5479e-11 5.34262e-11 5e-05 1.46608e-10 
41 1 0.292429 0.0158755 0.00867398 0.00562156 -0.000417979 0.000134362 -2.84853e-11 -7.05934e-11 9.15893e-12 5e-05 1.46608e-10 
42 1 0.293051 0.017042 0.00762982 0.00569658 -0.000409083 0.000124615 2.89825e-11 2.6822e-11 -2.87864e-11 5e-05 1.46608e-10 
44 1 0.293111 0.0172621 0.00743509 0.00533993 -0.000339831 7.86979e-05 -5.63448e-11 2.28048e-11 -1.95417e-11 5e-05 1.46608e-10 
45 1 0.298769 0.0168863 0.00739125 0.0058397 -0.000250427 -0.000326583 -2.64772e-10 8.56722e-11 1.07568e-11 5e-05 1.46608e-10 
47 1 0.29245 0.0159486 0.00860927 0.00562445 -0.00041623 0.000133463 -5.45256e-12 -1.26895e-11 -5.5376e-13 5e-05 1.46608e-10 
48 1 0.292982 0.0178829 0.00700496 0.00557419 -0.000387724 0.000129617 4.03554e-12 8.56691e-11 3.71707e-11 5e-05 1.46608e-10 
49 1 0.298949 0.0177337 0.0071149 0.0054713 -0.000360828 -0.000104828 5.21889e-13 1.17233e-13 -6.00345e-14 5e-05 1.46608e-10 
50 1 0.29254 0.0162402 0.00835166 0.0056416 -0.00042034 0.00013683 -6.25311e-13 -1.82867e-11 1.21552e-11 5e-05 1.46608e-10 
51 1 0.293186 0.0175566 0.00717488 0.00539664 -0.000327497 6.56624e-05 -2.38285e-10 -3.63501e-11 5.10312e-11 5e-05 1.46608e-10 
52 1 0.287188 0.0176006 0.00708397 0.00575977 0.000304463 -9.70447e-05 -1.1812e-10 -2.09145e-11 1.9983e-12 5e-05 1.46608e-10 
53 1 0.298808 0.0170642 0.00731502 0.00565368 9.23725e-05 0.000155704 -1.74199e-11 1.25824e-10 -1.26808e-10 5e-05 1.46608e-10 
54 1 0.293351 0.0179281 0.00701926 0.00554514 -0.000321353 0.000134698 4.54131e-11 -3.73943e-11 -1.90485e-11 5e-05 1.46608e-10 
55 1 0.28702 0.0172228 0.00728363 0.0056531 0.000289277 -0.000105637 -2.91829e-10 6.33342e-11 7.47733e-11 5e-05 1.46608e-10 
56 1 0.293332 0.0178303 0.00701082 0.00557869 -0.000331819 0.000134207 -2.11374e-10 1.78834e-11 -6.01051e-11 5e-05 1.46608e-10 
57 1 0.298788 0.016969 0.00733818 0.00564009 9.83846e-05 0.000150667 -2.73192e-10 1.43647e-10 -6.36734e-11 5e-05 1.46608e-10 
59 1 0.378022 0.019866 0.005332 -5.01986e-15 -7.41201e-15 7.69802e-14 -3.089e-24 -1.9387e-24 -4.1359e-25 5e-05 1.46608e-10 
60 1 0.293129 0.0173358 0.00737 0.00529057 -0.000324757 6.76895e-05 -3.13476e-11 2.74751e-11 -2.38314e-11 5e-05 1.46608e-10 
61 1 0.292407 0.0158025 0.0087387 0.00560999 -0.000417037 0.000134639 1.10685e-10 -6.21444e-11 6.4549e-11 5e-05 1.46608e-10 
62 1 0.293035 0.0173133 0.00739349 0.0052916 -0.000328823 7.08674e-05 3.24029e-10 -3.5095e-11 1.66826e-11 5e-05 1.46608e-10 
63 1 0.293001 0.0179808 0.00701339 0.0055586 -0.000385175 0.000129853 -8.08308e-12 1.08435e-10 2.50664e-11 5e-05 1.46608e-10 
64 1 0.298828 0.0171593 0.00729186 0.00564563 8.92568e-05 0.000159784 6.73906e-11 5.08852e-11 -9.62481e-13 5e-05 1.46608e-10 
65 1 0.286941 0.0172788 0.0072592 0.00564581 0.000281459 -7.54783e-05 -1.96917e-10 3.02712e-11 -4.31952e-11 5e-05 1.46608e-10 
66 1 0.287032 0.0179212 0.00708781 0.00574485 0.000328639 -8.27196e-05 -1.15146e-10 -1.71463e-10 -3.94955e-11 5e-05 1.46608e-10 
67 1 0.293139 0.0177608 0.00699964 0.00556544 -0.000389145 0.000129778 1.68294e-10 -8.35714e-11 3.96044e-11 5e-05 1.46608e-10 
68 1 0.292937 0.0172872 0.00742033 0.00546786 -0.000317077 5.24284e-05 2.1597e-10 8.96801e-11 -8.02985e-11 5e-05 1.46608e-10 
69 1 0.293221 0.0177081 0.00704939 0.00559215 -0.000324167 0.000123806 6.21155e-12 -3.22903e-11 4.95487e-11 5e-05 1.46608e-10 
70 1 0.298908 0.0175357 0.00718146 0.00545037 -0.000318346 -0.000117893 7.11907e-13 -9.07267e-14 -5.24364e-15 5e-05 1.46608e-10 
71 1 0.287349 0.0183614 0.00701666 0.00592595 0.000170633 -0.000100587 -6.10274e-11 1.33336e-12 1.39976e-12 5e-05 1.46608e-10 
72 1 0.29318 0.0179603 0.00701692 0.00555246 -0.000355698 0.000131322 5.22623e-11 1.24262e-10 3.04253e-11 5e-05 1.46608e-10 
73 1 0.293029 0.0169689 0.00769453 0.0057045 -0.000409954 0.000124984 3.44108e-11 7.43122e-11 -6.61942e-11 5e-05 1.46608e-10 
74 1 0.292561 0.016313 0.0082865 0.00563974 -0.000420324 0.000136828 -1.42694e-11 -5.20006e-12 3.29505e-12 5e-05 1.46608e-10 
76 1 0.286967 0.0169766 0.00744496 0.00542501 -8.98112e-05 -0.000770707 1.01452e-10 -6.8276e-11 -2.58362e-10 5e-05 1.46608e-10 
77 1 0.29282 0.0171903 0.00750973 0.00569838 -0.000424473 0.000128874 -1.87437e-11 -1.58025e-11 3.15419e-11 5e-05 1.46608e-10 
78 1 0.286364 0.0156012 0.00879599 0.00593401 -0.000202817 -0.000874896 -5.40081e-11 -1.12393e-10 8.27643e-11 5e-05 1.46608e-10 
79 1 0.287275 0.0184282 0.00702108 0.0060097 0.000261591 -9.79797e-05 -6.49913e-11 -2.30315e-11 -2.11897e-13 5e-05 1.46608e-10 
80 1 0.292895 0.0171393 0.00755122 0.00570138 -0.000413422 0.000125888 8.83227e-12 1.91478e-11 -4.49072e-11 5e-05 1.46608e-10 
82 1 0.287133 0.0179035 0.00708467 0.00572249 0.000314522 -8.87951e-05 -5.655e-11 6.45184e-11 7.1717e-12 5e-05 1.46608e-10 
83 1 0.287153 0.0174251 0.00717719 0.00572167 0.000276042 -8.28206e-05 -1.27018e-10 3.0085e-11 -1.02816e-11 5e-05 1.46608e-10 
84 1 0.29897 0.0178346 0.00708098 0.00548261 -0.000379393 -9.92065e-05 4.08747e-13 1.30753e-13 -6.19914e-14 5e-05 1.46608e-10 
85 1 0.287141 0.0186513 0.00703376 0.00607416 0.000326977 -9.61572e-05 2.35424e-11 7.86033e-11 3.168e-12 5e-05 1.46608e-10 
86 1 0.293092 0.0171886 0.00750008 0.00545752 -0.000364173 9.50987e-05 -2.30416e-10 1.23101e-11 7.19255e-13 5e-05 1.46608e-10 
87 1 0.292851 0.0169928 0.00768089 0.00570061 -0.000424305 0.000137823 -1.88941e-11 1.47978e-11 -1.22317e-11 5e-05 1.46608e-10 
88 1 0.292993 0.0175088 0.00722452 0.00529245 -0.000399274 0.000133314 -2.19569e-10 -1.26732e-10 1.1211e-10 5e-05 1.46608e-10 
89 1 0.293101 0.0177884 0.00708767 0.00556241 -0.000385229 0.000132901 -9.06357e-12 -4.77981e-11 1.50836e-11 5e-05 1.46608e-10 
90 1 0.293161 0.0178616 0.00700839 0.00558818 -0.000339837 0.000132986 -6.27387e-11 1.05673e-10 1.64259e-11 5e-05 1.46608e-10 
91 1 0.287115 0.0172516 0.00726933 0.00562814 0.000251909 -7.23737e-05 6.82065e-12 2.18276e-11 -3.27533e-12 5e-05 1.46608e-10 
92 1 0.292915 0.0175575 0.00718543 0.00532834 -0.000360856 9.32944e-05 -8.24208e-11 -6.75647e-11 2.02516e-12 5e-05 1.46608e-10 
93 1 0.292646 0.0166056 0.00802745 0.00565183 -0.000425453 0.000140809 2.78898e-11 -2.18469e-12 3.07681e-12 5e-05 1.46608e-10 
94 1 0.293023 0.0179189 0.00708893 0.00557945 -0.000385572 0.000134326 1.12699e-11 1.08906e-10 8.35759e-11 5e-05 1.46608e-10 
95 1 0.292955 0.0175962 0.00726839 0.00532434 -0.000347019 9.00347e-05 -4.59755e-11 -2.25286e-11 1.07393e-10 5e-05 1.46608e-10 
96 1 0.292896 0.0174838 0.00725029 0.00523352 -0.000341141 8.59992e-05 -6.84822e-11 -7.09611e-11 3.02838e-11 5e-05 1.46608e-10 
97 1 0.286453 0.0158825 0.00852583 0.00595418 -0.000192868 -0.000886419 6.90386e-11 9.00467e-11 -8.4442e-11 5e-05 1.46608e-10 
98 1 0.292626 0.0165323 0.0080923 0.00565176 -0.000424533 0.000139839 1.41811e-11 -8.04994e-13 -5.65155e-12 5e-05 1.46608e-10 
99 1 0.28696 0.0177694 0.00699662 0.00574047 0.000271302 -9.02419e-05 -4.52074e-11 -4.65411e-11 -5.00961e-12 5e-05 1.46608e-10 
100 1 0.293109 0.0176079 0.00713322 0.00551412 -0.00037534 0.000105043 -7.19722e-12 -8.77399e-11 1.4751e-10 5e-05 1.46608e-10 
101 1 0.286979 0.0178675 0.00700078 0.00572526 0.000278768 -9.15856e-05 3.97312e-12 -3.38868e-11 -2.3014e-11 5e-05 1.46608e-10 
102 1 0.0643568 0.0187248 0.00531097 4.16558e-15 1.05685e-14 8.29563e-14 -2.26513e-21 7.21922e-22 1.7164e-23 5e-05 1.46608e-10 
103 1 0.24257 0.0191927 0.00520306 3.10422e-23 -6.56601e-22 -5.81428e-22 0 0 0 5e-05 1.46608e-10 
104 1 0.287328 0.0182637 0.00701256 0.00580933 0.000195255 -9.73264e-05 -2.52981e-11 -2.20385e-12 1.90256e-14 5e-05 1.46608e-10 
105 1 0.286548 0.0158981 0.00849484 0.00595305 -0.000208388 -0.000871704 7.51875e-11 8.81927e-11 -8.94114e-11 5e-05 1.46608e-10 
106 1 0.286979 0.0174494 0.0071623 0.00565248 0.000278348 -9.09394e-05 -4.20038e-11 -2.56936e-11 5.77657e-11 5e-05 1.46608e-10 
107 1 0.286386 0.0156716 0.00872842 0.00593558 -0.000200115 -0.000874758 1.24903e-10 -7.96061e-11 3.47662e-11 5e-05 1.46608e-10 
108 1 0.293236 0.0177966 0.00700533 0.0056034 -0.000322803 0.000134833 -1.4144e-10 3.801e-11 -8.17731e-12 5e-05 1.46608e-10 
109 1 0.293313 0.0177324 0.00701618 0.00556608 -0.000330784 5.72837e-05 -2.01425e-10 8.68174e-11 9.77351e-11 5e-05 1.46608e-10 
110 1 0.292776 0.0170441 0.00763916 0.00569893 -0.000422883 0.000136637 -7.80848e-11 -2.3915e-11 1.92284e-11 5e-05 1.46608e-10 
111 1 0.292733 0.016898 0.00776858 0.00567409 -0.00042321 0.000137726 1.05967e-11 -2.31931e-11 2.2084e-11 5e-05 1.46608e-10 
112 1 0.286495 0.0160237 0.00839064 0.00599755 -0.000203643 -0.00088389 6.4191e-11 9.72972e-11 -1.06317e-10 5e-05 1.46608e-10 
113 1 0.286865 0.0173363 0.00722743 0.00557646 9.48133e-05 -0.000426662 -8.65309e-11 1.57607e-11 -1.11499e-10 5e-05 1.46608e-10 
114 1 0.286922 0.0175938 0.00708459 0.00568632 0.000276657 -8.02982e-05 7.80702e-11 2.11897e-11 2.55708e-11 5e-05 1.46608e-10 
115 1 0.293072 0.0171151 0.00756507 0.0056163 -0.000392881 0.000113698 -9.20331e-11 -1.392e-11 2.00031e-11 5e-05 1.46608e-10 
116 1 0.293066 0.017829 0.00700303 0.00556936 -0.000387766 0.000131752 7.25865e-11 5.08214e-11 -7.39591e-12 5e-05 1.46608e-10 
117 1 0.293071 0.0174607 0.00726333 0.0053486 -0.000343174 8.11103e-05 6.67085e-11 -4.0315e-11 4.49306e-11 5e-05 1.46608e-10 
118 1 0.287059 0.0173957 0.00719182 0.00572046 0.000295268 -9.71098e-05 -8.46664e-11 5.32724e-11 -3.15315e-11 5e-05 1.46608e-10 
119 1 0.293255 0.0178944 0.00701377 0.00558533 -0.000319427 0.0001351 -4.42269e-11 6.17607e-11 8.49135e-12 5e-05 1.46608e-10 
120 1 0.292863 0.0167244 0.00791484 0.00563922 -0.000435711 0.000150214 8.39781e-11 2.78616e-11 -2.67576e-11 5e-05 1.46608e-10 
121 1 0.293142 0.0182211 0.00703687 0.00547283 -0.000336609 0.000130917 -1.73974e-10 -8.69938e-11 -1.73779e-11 5e-05 1.46608e-10 
122 1 0.292878 0.0174101 0.00731543 0.00526827 -0.000347525 8.8546e-05 8.64246e-11 -4.34588e-11 6.84629e-11 5e-05 1.46608e-10 
123 1 0.287296 0.0185257 0.00702516 0.00601514 0.000259828 -9.81232e-05 -3.78206e-11 -4.41361e-11 -1.39875e-12 5e-05 1.46608e-10 
124 1 0.292764 0.0167005 0.00793976 0.00566037 -0.000430886 0.000145061 1.89706e-11 -1.00654e-11 7.51593e-12 5e-05 1.46608e-10 
125 1 0.292974 0.017435 0.00728975 0.00526888 -0.000302665 4.64524e-05 7.21545e-11 2.50226e-11 -6.15775e-11 5e-05 1.46608e-10 
127 1 0.28643 0.0158123 0.00859334 0.00595079 -0.000194278 -0.000883703 -7.42259e-11 9.56929e-11 -3.98999e-11 5e-05 1.46608e-10 
128 1 0.292602 0.0164596 0.0081568 0.00565152 -0.000423459 0.00013888 -4.93217e-11 -2.84038e-12 4.55989e-12 5e-05 1.46608e-10 
129 1 0.292992 0.0177442 0.0071434 0.00547693 -0.000362123 0.000122543 -1.46916e-10 -7.97626e-11 -5.53119e-11 5e-05 1.46608e-10 
130 1 0.287017 0.0176229 0.00707014 0.00573484 0.000282334 -8.86112e-05 -1.22516e-10 -4.48241e-11 1.31432e-11 5e-05 1.46608e-10 
131 1 0.287033 0.0177196 0.00705073 0.00573397 0.000287597 -9.67332e-05 -8.65349e-11 -2.07569e-11 -9.65406e-12 5e-05 1.46608e-10 
132 1 0.292973 0.0170907 0.00759043 0.00569733 -0.000410893 0.000126063 4.13008e-11 7.33608e-11 -4.82105e-11 5e-05 1.46608e-10 
133 1 0.293086 0.0179276 0.00701155 0.00556719 -0.000367999 0.000130734 -5.5265e-11 7.52031e-11 2.82294e-11 5e-05 1.46608e-10 
134 1 0.293044 0.0177338 0.0070259 0.00558362 -0.000405123 0.000134376 3.1771e-11 -5.76201e-11 1.63674e-11 5e-05 1.46608e-10 
135 1 0.293203 0.0176309 0.00711036 0.00549311 -0.000329071 8.71983e-05 -6.67366e-11 -2.4249e-12 1.03773e-10 5e-05 1.46608e-10 
136 1 0.287004 0.0171392 0.00733601 0.0057013 0.00013803 -0.000322623 -1.93346e-10 1.15659e-10 1.47773e-10 5e-05 1.46608e-10 
137 1 0.29299 0.0176673 0.00720727 0.00539903 -0.000372688 0.000106435 6.38414e-12 -1.10982e-10 3.42199e-11 5e-05 1.46608e-10 
138 1 0.292952 0.0177078 0.00705895 0.00551978 -0.000388482 0.000115527 -6.09566e-11 -1.74741e-11 -6.01114e-12 5e-05 1.46608e-10 
140 1 0.292841 0.0172692 0.0074523 0.00559323 -0.000405292 0.000115689 1.04424e-11 -1.4457e-11 1.50814e-11 5e-05 1.46608e-10 
141 1 0.286846 0.0165518 0.00785074 0.00603042 -0.000242954 -0.000853591 -5.39276e-11 -4.39374e-11 4.86179e-11 5e-05 1.46608e-10 
142 1 0.287227 0.0177737 0.00699208 0.00573238 0.000306323 -9.65624e-05 5.17384e-12 7.06014e-12 -1.67514e-12 5e-05 1.46608e-10 
143 1 0.286408 0.0157421 0.00866086 0.00594274 -0.000197113 -0.000877997 1.99272e-11 -1.37438e-12 1.00086e-11 5e-05 1.46608e-10 
144 1 0.287095 0.017574 0.00710939 0.00575183 0.000296441 -9.50599e-05 -1.43278e-10 -2.4362e-11 -2.25332e-12 5e-05 1.46608e-10 
146 1 0.286593 0.0160386 0.00835979 0.00600861 -0.000222394 -0.00086925 7.42566e-11 1.27048e-10 -1.24445e-10 5e-05 1.46608e-10 
147 1 0.286999 0.0175361 0.00711627 0.0057072 0.000274469 -8.80074e-05 -1.39056e-10 -2.30555e-11 5.16094e-11 5e-05 1.46608e-10 
148 1 0.286867 0.0166224 0.00778314 0.00600508 -0.000246916 -0.00084712 -2.39316e-10 1.09832e-10 -8.09252e-11 5e-05 1.46608e-10 
149 1 0.292689 0.0167519 0.00789797 0.00566599 -0.000427357 0.000141604 1.5244e-11 -2.20887e-11 1.86669e-11 5e-05 1.46608e-10 
150 1 0.287119 0.0185538 0.00702968 0.00606757 0.000328597 -9.57418e-05 -3.61889e-11 -9.42201e-11 -1.14502e-12 5e-05 1.46608e-10 
151 1 0.287117 0.0181034 0.00700907 0.00567657 0.000301966 -9.05082e-05 -4.55381e-11 -4.78033e-11 -5.16223e-12 5e-05 1.46608e-10 
153 1 0.286888 0.0166929 0.00771557 0.00594042 -0.000240463 -0.000840775 9.54199e-11 8.11463e-11 -7.31763e-11 5e-05 1.46608e-10 
154 1 0.28657 0.0159684 0.0084273 0.00598216 -0.000216389 -0.000869745 1.15259e-10 8.23335e-11 -1.03149e-10 5e-05 1.46608e-10 
155 1 0.286518 0.0160939 0.00832313 0.0060203 -0.000210563 -0.000882199 2.85031e-11 1.38781e-10 -9.03077e-11 5e-05 1.46608e-10 
156 1 0.286824 0.0164813 0.00791832 0.00601833 -0.000236373 -0.000858122 -2.88858e-11 -8.35411e-11 7.89618e-11 5e-05 1.46608e-10 
157 1 0.0219312 0.0187687 0.00551176 -3.82481e-14 8.16979e-14 2.9589e-13 -1.09317e-22 1.28988e-22 -5.89366e-23 5e-05 1.46608e-10 
158 1 0.28693 0.0168342 0.00758035 0.0057192 -0.000208372 -0.000831839 9.10284e-11 1.44418e-10 -7.09588e-11 5e-05 1.46608e-10 
159 1 0.292994 0.0171639 0.00752569 0.00561426 -0.000394919 0.000116245 1.27258e-10 1.03301e-10 -9.38588e-11 5e-05 1.46608e-10 
160 1 0.286998 0.0179656 0.00700493 0.0057155 0.00028344 -9.21337e-05 -1.41301e-11 -3.54234e-11 -7.06131e-12 5e-05 1.46608e-10 
162 1 0.287071 0.018074 0.00709271 0.00568184 0.000305481 -8.94167e-05 -4.21127e-11 -2.6675e-11 -6.28561e-13 5e-05 1.46608e-10 
164 1 0.286582 0.0163055 0.00812038 0.00602898 -0.000196314 -0.000896075 1.81599e-10 8.96955e-11 -7.62915e-11 5e-05 1.46608e-10 
165 1 0.287157 0.0182992 0.00701737 0.00584118 0.000269582 -0.000101195 5.52959e-11 -5.27405e-11 -1.32594e-11 5e-05 1.46608e-10 
166 1 0.292963 0.0177851 0.00699651 0.00558469 -0.00039361 0.000127999 -6.59144e-12 3.93978e-11 3.61824e-11 5e-05 1.46608e-10 
167 1 0.287076 0.0183575 0.00702148 0.00602585 0.00019789 -0.000100799 1.95971e-11 1.21037e-11 -5.3867e-12 5e-05 1.46608e-10 
168 1 0.2872 0.0184946 0.00702549 0.00605872 0.000320092 -9.61327e-05 -4.04134e-11 -2.37732e-11 7.88914e-13 5e-05 1.46608e-10 
169 1 0.287098 0.0184555 0.00702558 0.00604797 0.000242899 -9.99893e-05 -1.65986e-11 -6.68438e-11 -4.69202e-12 5e-05 1.46608e-10 
170 1 0.287178 0.0183968 0.0070214 0.00604509 0.00022913 -0.000101071 -6.30449e-12 -4.76415e-11 -7.0862e-12 5e-05 1.46608e-10 
171 1 0.293199 0.0180586 0.00702541 0.00550394 -0.000363473 0.000130506 -7.25876e-11 7.64546e-11 1.36494e-11 5e-05 1.46608e-10 
172 1 0.286846 0.017248 0.00727021 0.00566767 -0.000259727 -0.00110779 -1.35558e-10 6.54686e-12 -1.89711e-10 5e-05 1.46608e-10 
173 1 0.293159 0.0180085 0.00710195 0.00552181 -0.000373621 0.000135459 -3.39078e-11 8.66389e-11 8.53427e-12 5e-05 1.46608e-10 
174 1 0.286628 0.0164458 0.00798539 0.00602421 -0.000189502 -0.000901509 -1.76848e-11 7.16309e-12 -3.83895e-11 5e-05 1.46608e-10 
176 1 0.286922 0.0171896 0.00730019 0.00566647 0.000273312 -8.66737e-05 -2.38126e-10 -2.22687e-12 -3.71273e-11 5e-05 1.46608e-10 
177 1 0.286614 0.0161093 0.00829216 0.00602548 -0.000214977 -0.000877657 -5.23132e-11 7.21225e-11 -7.71206e-11 5e-05 1.46608e-10 
178 1 0.286967 0.0177226 0.00712582 0.00574351 0.000279919 -8.94353e-05 -6.59712e-11 1.01134e-10 -4.00191e-11 5e-05 1.46608e-10 
179 1 0.287017 0.0180637 0.00700908 0.00569313 0.000286932 -9.26283e-05 -6.22921e-11 -2.27275e-12 3.45634e-12 5e-05 1.46608e-10 
182 1 0.293218 0.0181565 0.00703385 0.00545079 -0.0003564 0.000128686 -5.01109e-11 7.43551e-11 -3.04534e-12 5e-05 1.46608e-10 
183 1 0.286904 0.017507 0.00713073 0.00563756 0.000287279 -7.61815e-05 -7.78923e-11 1.00185e-10 4.32233e-11 5e-05 1.46608e-10 
184 1 0.293042 0.0180168 0.00709734 0.0055486 -0.000400228 0.000135122 -2.56571e-11 8.66865e-11 2.89674e-11 5e-05 1.46608e-10 
185 1 0.28711 0.0176557 0.00705372 0.00574574 0.000297503 -9.46688e-05 -1.41772e-10 -4.09968e-11 2.0907e-12 5e-05 1.46608e-10 
186 1 0.287163 0.0187488 0.00703783 0.00608018 0.000327497 -9.62882e-05 4.11773e-11 1.09116e-10 3.73944e-12 5e-05 1.46608e-10 
187 1 0.293104 0.0180254 0.00701999 0.00553902 -0.000364945 0.000131209 -5.77773e-11 4.0547e-11 1.70463e-11 5e-05 1.46608e-10 
188 1 0.292956 0.0173612 0.00735489 0.00532147 -0.000302674 4.72529e-05 2.6096e-10 -1.14053e-11 -1.22756e-12 5e-05 1.46608e-10 
189 1 0.293057 0.0182743 0.00703871 0.00545761 -0.000365404 0.000128301 3.68993e-11 1.8108e-10 1.03758e-11 5e-05 1.46608e-10 
190 1 0.281049 0.0182073 0.0069072 0.00567381 4.37334e-05 0.000161283 6.02381e-11 -1.90252e-10 6.86653e-10 5e-05 1.46608e-10 
191 1 0.292711 0.0168249 0.00783326 0.00566998 -0.000426308 0.000140439 1.07273e-11 -2.12772e-11 2.04595e-11 5e-05 1.46608e-10 
192 1 0.286884 0.0174204 0.00717668 0.00558097 0.000293913 -9.10397e-05 -2.40062e-10 1.15815e-10 -4.13963e-11 5e-05 1.46608e-10 
193 1 0.293275 0.0179928 0.00702228 0.00552687 -0.000337757 0.000132859 1.09829e-12 6.63044e-11 8.94247e-12 5e-05 1.46608e-10 
194 1 0.287153 0.0180166 0.00709424 0.00569169 0.000290518 -0.000102047 -6.1859e-11 -3.09961e-11 9.40431e-12 5e-05 1.46608e-10 
195 1 0.287213 0.0181349 0.00700877 0.00568364 0.000318982 -8.93804e-05 -1.27679e-10 -1.11088e-11 1.82428e-12 5e-05 1.46608e-10 
196 1 0.287174 0.0179389 0.00700047 0.00572059 0.000304169 -9.14591e-05 -2.21648e-11 -2.18662e-11 -2.19081e-12 5e-05 1.46608e-10 
197 1 0.280736 0.0167406 0.00745629 0.00564452 2.58825e-05 8.42194e-05 -4.12716e-12 -4.46233e-11 3.65908e-11 5e-05 1.46608e-10 
198 1 0.287172 0.0175134 0.0071303 0.00575056 0.000294789 -9.23997e-05 -1.4445e-10 -4.12407e-12 -9.38659e-12 5e-05 1.46608e-10 
199 1 0.286979 0.017813 0.00708465 0.00573465 0.000283376 -9.56784e-05 1.02924e-11 3.65925e-11 -5.69867e-11 5e-05 1.46608e-10 
200 1 0.286473 0.0159534 0.00845818 0.0059695 -0.000196567 -0.000885641 5.80571e-11 1.00951e-10 -1.05271e-10 5e-05 1.46608e-10 
201 1 0.287233 0.0182328 0.00701289 0.00574736 0.000309826 -9.10086e-05 -8.9683e-11 -1.85545e-11 6.01287e-13 5e-05 1.46608e-10 
202 1 0.286949 0.0169053 0.00751267 0.00557964 -0.000170389 -0.000820285 1.3898e-11 1.74012e-10 -7.00477e-11 5e-05 1.46608e-10 
203 1 0.293031 0.0176573 0.00709368 0.00547209 -0.000428077 0.000139424 -4.89477e-11 -2.54512e-11 7.84154e-11 5e-05 1.46608e-10 
204 1 0.287289 0.0180678 0.00700429 0.00574077 0.000210383 -9.53878e-05 1.04767e-11 6.62655e-12 -2.95257e-13 5e-05 1.46608e-10 
205 1 0.286765 0.0166025 0.0078192 0.00605075 -0.000211559 -0.000886092 1.65432e-10 1.64225e-10 -1.76441e-10 5e-05 1.46608e-10 
206 1 0.286808 0.0167437 0.00768387 0.0060219 -0.000193893 -0.000896531 -2.72127e-10 -1.6882e-10 2.0191e-10 5e-05 1.46608e-10 
207 1 0.286679 0.0163205 0.00808947 0.00610808 -0.000187655 -0.000918637 8.92138e-11 -1.84838e-10 1.38774e-10 5e-05 1.46608e-10 
208 1 0.287206 0.0176875 0.00703782 0.00574299 0.000304204 -9.76146e-05 -4.19072e-11 1.34286e-12 -7.90218e-12 5e-05 1.46608e-10 
209 1 0.28704 0.0173122 0.00724337 0.00567456 0.00029611 -0.000102636 -1.43483e-10 1.83449e-11 -5.39336e-11 5e-05 1.46608e-10 
210 1 0.292808 0.0168467 0.00781031 0.00567013 -0.00042542 0.000139829 2.26342e-11 6.47191e-12 -7.21279e-12 5e-05 1.46608e-10 
211 1 0.292829 0.0169198 0.00774557 0.00569073 -0.000425133 0.000138904 1.81674e-11 1.16974e-11 -1.07e-11 5e-05 1.46608e-10 
212 1 0.287254 0.0183305 0.00701699 0.00588647 0.000284223 -9.46655e-05 -6.47122e-11 -2.48165e-11 -7.73553e-13 5e-05 1.46608e-10 
213 1 0.293039 0.0181765 0.00703027 0.00549558 -0.000368694 0.000128341 1.3414e-11 1.17241e-10 2.90832e-11 5e-05 1.46608e-10 
214 1 0.292917 0.0172129 0.00748603 0.00565206 -0.000356234 8.0775e-05 -5.28228e-12 -9.52034e-12 1.38259e-11 5e-05 1.46608e-10 
215 1 0.280951 0.0177476 0.0070779 0.00563876 4.02202e-05 0.000159928 7.36191e-11 1.68381e-11 6.2497e-12 5e-05 1.46608e-10 
216 1 0.286657 0.0162503 0.00815699 0.00607434 -0.000185844 -0.000913691 -4.98747e-10 6.23559e-11 2.41566e-11 5e-05 1.46608e-10 
217 1 0.293294 0.0180907 0.00703073 0.00550827 -0.000362885 0.000130219 -6.51004e-11 4.0594e-12 2.83685e-13 5e-05 1.46608e-10 
218 1 0.286941 0.0176806 0.00703879 0.00571078 0.000273475 -8.01812e-05 -2.00095e-11 -9.2303e-12 -1.37267e-13 5e-05 1.46608e-10 
219 1 0.292667 0.0166788 0.00796268 0.00566091 -0.000427665 0.000142115 -2.19351e-11 -1.73809e-11 1.765e-11 5e-05 1.46608e-10 
220 1 0.287059 0.0178128 0.00702516 0.0057327 0.000291086 -9.29532e-05 -3.15894e-11 -2.17216e-11 -3.04992e-11 5e-05 1.46608e-10 
222 1 0.293148 0.0174094 0.00730494 0.00528771 -0.000318895 6.21658e-05 -1.69507e-10 1.50597e-11 -7.48044e-12 5e-05 1.46608e-10 
224 1 0.28685 0.0168857 0.00754803 0.00552529 -0.00017558 -0.000825543 -5.16819e-11 9.08166e-11 -6.45518e-11 5e-05 1.46608e-10 
225 1 0.292754 0.0169711 0.00770385 0.00568672 -0.000422891 0.000137047 -7.23002e-12 -2.51492e-11 2.1803e-11 5e-05 1.46608e-10 
226 1 0.287248 0.0178715 0.00699603 0.00572766 0.000307374 -9.11991e-05 -1.51812e-11 -1.00022e-11 -1.81884e-11 5e-05 1.46608e-10 
227 1 0.280971 0.0178396 0.00704376 0.00564333 3.65936e-05 0.00016042 1.1572e-10 -4.77918e-11 5.05833e-11 5e-05 1.46608e-10 
228 1 0.280912 0.0175637 0.0071462 0.00557048 5.74452e-05 0.00015122 3.24188e-11 4.28836e-11 -1.97195e-11 5e-05 1.46608e-10 
229 1 0.287222 0.0185921 0.00702957 0.00607097 0.000319481 -9.64335e-05 -5.78402e-12 4.76959e-12 1.35327e-13 5e-05 1.46608e-10 
230 1 0.286754 0.0168694 0.00757985 0.00591871 -0.00015799 -0.000909734 -6.64812e-11 1.25624e-10 -8.35632e-11 5e-05 1.46608e-10 
232 1 0.287157 0.0181432 0.00709172 0.005642 0.00030966 -8.1957e-05 -7.42026e-12 -3.75627e-11 -7.63364e-12 5e-05 1.46608e-10 
233 1 0.287055 0.0182598 0.00701738 0.0056343 0.00029426 -8.94383e-05 2.50553e-11 -8.179e-12 -4.63793e-12 5e-05 1.46608e-10 
234 1 0.292859 0.0173364 0.00738048 0.00541572 -0.000372131 0.000102219 4.76368e-11 -5.17398e-12 2.61177e-11 5e-05 1.46608e-10 
235 1 0.286711 0.0167283 0.007715 0.00605977 -0.000199286 -0.000899409 -6.02915e-11 1.49033e-10 -1.27234e-10 5e-05 1.46608e-10 
236 1 0.286811 0.0170836 0.0073777 0.00544296 -0.000155916 -0.00107752 -1.22613e-10 9.76844e-11 -1.05637e-10 5e-05 1.46608e-10 
237 1 0.286827 0.0171626 0.0073185 0.00562524 -0.000388988 -0.00134671 -5.64382e-11 3.06532e-11 -1.33109e-10 5e-05 1.46608e-10 
239 1 0.28064 0.0163599 0.00774895 0.0057183 -4.48277e-05 -2.27911e-05 -5.09709e-11 -4.80207e-11 -2.89355e-11 5e-05 1.46608e-10 
240 1 0.280695 0.0165607 0.00753346 0.00587692 -4.66155e-05 3.2136e-05 3.76961e-11 -6.96386e-11 1.38788e-11 5e-05 1.46608e-10 
241 1 0.280622 0.016296 0.00782372 0.00565566 -3.97977e-05 -2.61206e-05 1.10846e-10 -1.38512e-11 4.02685e-11 5e-05 1.46608e-10 
242 1 0.286802 0.016411 0.00798584 0.00599438 -0.000223863 -0.000865486 -3.18822e-10 -1.55538e-10 1.93885e-10 5e-05 1.46608e-10 
243 1 0.287153 0.0178403 0.00699634 0.00573074 0.000305574 -9.14076e-05 -4.66041e-11 -1.76778e-11 -3.1151e-12 5e-05 1.46608e-10 
244 1 0.28066 0.0164235 0.00767448 0.00577001 -4.95591e-05 -1.43748e-05 3.52451e-11 3.55776e-12 -3.90846e-11 5e-05 1.46608e-10 
246 1 0.280835 0.0171959 0.00728279 0.00568772 4.38352e-05 0.000160478 2.66016e-12 8.72231e-11 -3.27554e-11 5e-05 1.46608e-10 
247 1 0.286646 0.016517 0.0079177 0.00603066 -0.000191175 -0.000899878 6.78573e-11 6.88898e-11 -7.58915e-11 5e-05 1.46608e-10 
248 1 0.286957 0.0176077 0.0071774 0.00579097 0.000212939 -0.00011436 4.18331e-11 4.93707e-11 1.05029e-10 5e-05 1.46608e-10 
249 1 0.280775 0.0169229 0.00738413 0.00564486 4.97063e-05 0.000157234 -2.81644e-11 -2.2762e-11 1.09086e-11 5e-05 1.46608e-10 
250 1 0.286721 0.0164617 0.0079543 0.00602568 -0.000189488 -0.000901556 -3.93023e-11 7.9506e-11 -4.20226e-11 5e-05 1.46608e-10 
251 1 0.293012 0.0175823 0.00715954 0.00536757 -0.000418255 0.000149811 9.91182e-11 -1.00668e-10 7.52987e-11 5e-05 1.46608e-10 
252 1 0.280854 0.0172878 0.00724865 0.00562099 5.87981e-05 0.00015287 -3.02553e-10 1.43726e-10 -6.35661e-11 5e-05 1.46608e-10 
253 1 0.28103 0.0181154 0.00694134 0.00568579 4.61766e-05 0.000152835 2.11609e-10 -3.96523e-12 5.20267e-11 5e-05 1.46608e-10 
254 1 0.280795 0.0170147 0.00735003 0.00566224 4.58177e-05 0.000158658 -2.56483e-11 1.05126e-11 -2.82573e-12 5e-05 1.46608e-10 
255 1 0.286343 0.0155307 0.00886356 0.00591991 -0.000202087 -0.000873069 -1.36747e-10 -1.57644e-10 1.7341e-10 5e-05 1.46608e-10 
256 1 0.287423 0.0182945 0.00701223 0.00584831 8.72257e-05 -0.000103014 -2.96851e-11 3.25166e-11 2.12823e-12 5e-05 1.46608e-10 
257 1 0.28691 0.0167634 0.00764798 0.00583364 -0.000227437 -0.000836633 3.28215e-10 2.66415e-11 -8.86576e-11 5e-05 1.46608e-10 
258 1 0.287048 0.0176449 0.00716245 0.00574902 0.000296153 -9.49218e-05 -3.97648e-11 -1.73854e-11 -1.49291e-11 5e-05 1.46608e-10 