ITEM: TIMESTEP
46200000
ITEM: NUMBER OF ATOMS
275
ITEM: BOX BOUNDS ff ff ff
-0.02 0.43
-0.02 0.06
-0.02 0.07
ITEM: ATOMS id type x y z vx vy vz fx fy fz radius mass 
1 1 0.282659 0.0182923 0.00690638 0.00569112 8.54758e-05 0.000254872 -1.11486e-10 1.02311e-10 -2.32641e-11 5e-05 1.46608e-10 
2 1 0.28233 0.0171517 0.0072947 0.00567227 -0.000105418 -9.13572e-05 6.26199e-11 4.21011e-11 -4.78382e-12 5e-05 1.46608e-10 
4 1 0.28248 0.0170272 0.00733758 0.0057628 -1.76715e-05 -0.000112681 1.08087e-10 -2.52219e-11 4.19589e-11 5e-05 1.46608e-10 
5 1 0.281942 0.0157604 0.00847711 0.00596709 -9.13862e-05 0.00024079 7.77056e-11 -1.98939e-10 1.70221e-10 5e-05 1.46608e-10 
6 1 0.288281 0.0169418 0.00744771 0.00556512 0.000106747 5.7094e-06 1.15704e-11 6.93495e-11 -3.87768e-11 5e-05 1.46608e-10 
7 1 0.282616 0.0176696 0.00709523 0.00562737 3.10283e-05 -0.000140564 -2.04504e-11 -8.39012e-11 2.58649e-11 5e-05 1.46608e-10 
8 1 0.282326 0.0167369 0.00748276 0.0057389 0.000412537 0.000435535 -2.81759e-10 1.19715e-10 -2.19915e-10 5e-05 1.46608e-10 
9 1 0.288472 0.0178087 0.00698744 0.00568304 6.73407e-05 4.00458e-05 1.58674e-10 4.19515e-11 9.67591e-11 5e-05 1.46608e-10 
10 1 0.28242 0.0167665 0.00746734 0.0057995 0.000297772 0.000502398 -2.27785e-10 7.23943e-11 -2.27493e-10 5e-05 1.46608e-10 
11 1 0.282526 0.0179554 0.00707829 0.00568971 4.59718e-05 -0.00014258 -5.41772e-11 -9.96638e-11 -2.72597e-11 5e-05 1.46608e-10 
12 1 0.276599 0.0171895 0.00737699 0.00546157 0.000429918 -0.000233676 1.29553e-10 1.0777e-11 -1.23329e-10 5e-05 1.46608e-10 
13 1 0.281921 0.0156976 0.00855186 0.00597066 -9.39273e-05 0.000244741 3.10162e-10 1.01412e-11 3.33012e-11 5e-05 1.46608e-10 
14 1 0.276535 0.0175713 0.00736397 0.00551907 0.000307869 -0.000696263 1.10053e-11 -2.50333e-11 4.73748e-11 5e-05 1.46608e-10 
16 1 0.27678 0.0180349 0.00712677 0.00586666 0.000193057 -0.000698073 -1.84545e-11 1.06653e-11 8.54146e-12 5e-05 1.46608e-10 
17 1 0.28229 0.0165925 0.00761619 0.0057461 0.000439885 0.000363747 -6.26606e-10 2.25193e-10 -2.74305e-10 5e-05 1.46608e-10 
19 1 0.281899 0.0156348 0.00862662 0.00596024 -8.79879e-05 0.000239839 -1.1537e-10 6.43237e-11 -5.12893e-11 5e-05 1.46608e-10 
21 1 0.282656 0.0178531 0.00702599 0.00566609 1.44048e-05 -0.00013653 -8.72388e-11 -9.04605e-11 5.59284e-11 5e-05 1.46608e-10 
22 1 0.282441 0.0168442 0.00740783 0.00588434 0.000136928 0.000334847 -1.81138e-10 2.69841e-11 -1.8229e-10 5e-05 1.46608e-10 
23 1 0.276739 0.0178471 0.00718196 0.00584772 0.000201027 -0.000698489 -6.94554e-11 2.29049e-11 -2.94967e-12 5e-05 1.46608e-10 
24 1 0.288397 0.0174618 0.00717163 0.00558161 0.000104495 6.73228e-06 1.14424e-10 -7.28675e-11 4.76717e-11 5e-05 1.46608e-10 
25 1 0.282051 0.0160741 0.00810504 0.00611699 -0.000101038 0.000241117 4.65432e-11 5.52488e-11 -1.98921e-10 5e-05 1.46608e-10 
26 1 0.288435 0.0176352 0.00707954 0.00564427 9.24115e-05 1.58812e-05 -6.54125e-11 -7.43866e-11 1.25575e-11 5e-05 1.46608e-10 
27 1 0.27629 0.016579 0.0075758 0.00589049 2.11189e-06 -0.000410377 -4.95487e-10 4.22874e-13 6.81706e-11 5e-05 1.46608e-10 
28 1 0.282405 0.0170894 0.00731617 0.0056985 -8.44508e-05 -9.46717e-05 6.15227e-11 -3.86389e-11 5.80013e-11 5e-05 1.46608e-10 
29 1 0.281878 0.0155719 0.00870137 0.00592561 -8.48178e-05 0.000234598 -7.6123e-11 -4.24268e-11 3.58969e-11 5e-05 1.46608e-10 
30 1 0.282136 0.0163482 0.00782918 0.00607087 0.000346695 0.000500824 1.11988e-10 3.13737e-10 -3.07666e-10 5e-05 1.46608e-10 
31 1 0.282692 0.0176073 0.00711671 0.00558818 1.81847e-05 -0.000134974 8.64869e-11 -1.15685e-10 4.70169e-11 5e-05 1.46608e-10 
32 1 0.282071 0.0161408 0.00803347 0.00609944 0.000157405 0.000450341 7.54227e-11 1.2499e-10 -1.87067e-10 5e-05 1.46608e-10 
33 1 0.2883 0.0170284 0.00740172 0.00559574 0.000106798 5.75134e-06 2.08824e-11 8.47527e-11 -4.30776e-11 5e-05 1.46608e-10 
34 1 0.282041 0.0160097 0.00818089 0.0060371 -9.76739e-05 0.000248725 -1.45255e-10 1.73205e-10 -1.95764e-10 5e-05 1.46608e-10 
35 1 0.282578 0.017486 0.00716447 0.00557872 4.36529e-05 -0.000144471 1.53577e-10 -9.80985e-11 4.00838e-11 5e-05 1.46608e-10 
36 1 0.28853 0.0181022 0.00698316 0.00565603 6.3508e-05 -0.000102064 -1.57809e-10 3.15801e-12 9.92414e-11 5e-05 1.46608e-10 
37 1 0.28246 0.0169356 0.0073725 0.00585287 2.58249e-05 4.44347e-05 4.25649e-11 2.07332e-13 1.08735e-11 5e-05 1.46608e-10 
38 1 0.282539 0.0173025 0.00723372 0.00554846 3.5e-05 -0.000141021 -4.03189e-11 -9.32767e-11 3.36072e-11 5e-05 1.46608e-10 
39 1 0.288416 0.0175485 0.00712559 0.00562184 9.75205e-05 1.13915e-05 -8.47244e-11 -3.1139e-11 3.04343e-11 5e-05 1.46608e-10 
41 1 0.281985 0.0158861 0.0083276 0.00604319 -9.26792e-05 0.000246645 2.74473e-10 -1.49534e-11 -3.06234e-13 5e-05 1.46608e-10 
42 1 0.282575 0.0170564 0.00732454 0.00574158 0.000110094 -0.000173518 1.39358e-10 2.71859e-11 -3.03673e-12 5e-05 1.46608e-10 
44 1 0.282633 0.0173319 0.00722058 0.00554872 3.39579e-05 -0.000140404 2.18532e-10 1.00658e-11 -1.4734e-11 5e-05 1.46608e-10 
45 1 0.28832 0.0171151 0.00735572 0.00562588 0.000110223 4.7308e-06 2.6525e-11 8.52073e-11 -4.16156e-11 5e-05 1.46608e-10 
47 1 0.282007 0.015949 0.00825284 0.00604489 -9.78399e-05 0.000251597 1.528e-10 1.73751e-10 -1.52754e-10 5e-05 1.46608e-10 
48 1 0.282525 0.0180694 0.00694845 0.00570841 2.79947e-05 -0.000123034 9.20537e-11 -1.268e-11 5.86276e-11 5e-05 1.46608e-10 
49 1 0.288492 0.017906 0.00697486 0.00573334 5.74652e-05 -0.000100325 -4.32256e-11 1.16657e-10 -4.77262e-10 5e-05 1.46608e-10 
50 1 0.282105 0.0162037 0.00796335 0.00610992 0.000304114 0.000550027 2.26692e-11 2.90435e-10 -2.26217e-10 5e-05 1.46608e-10 
51 1 0.282711 0.017699 0.00708208 0.00562651 6.71459e-06 -0.000131739 -7.55241e-11 -1.09023e-10 1.5129e-11 5e-05 1.46608e-10 
52 1 0.276657 0.0174714 0.00729236 0.0056441 0.000262039 -0.000689305 2.46301e-11 1.67898e-11 2.91858e-11 5e-05 1.46608e-10 
53 1 0.288359 0.0172884 0.00726373 0.00552775 0.000135951 -1.03421e-05 -5.6611e-11 -5.96956e-11 2.18713e-11 5e-05 1.46608e-10 
54 1 0.282884 0.018096 0.00693029 0.00570544 8.78851e-06 -0.000132739 9.30574e-11 -3.74622e-11 1.16949e-10 5e-05 1.46608e-10 
55 1 0.276485 0.0170621 0.00740176 0.0055716 0.00047421 0.000147666 1.84912e-10 6.22428e-11 2.202e-11 5e-05 1.46608e-10 
56 1 0.282864 0.0180038 0.00696507 0.00569544 -2.43123e-05 -0.00011972 1.28056e-11 -2.2369e-10 2.66489e-10 5e-05 1.46608e-10 
57 1 0.288339 0.0172017 0.00730973 0.00566169 0.000114465 3.34025e-06 -1.71983e-11 5.99062e-11 -3.93358e-11 5e-05 1.46608e-10 
59 1 0.378022 0.019866 0.005332 -5.01945e-15 -7.41217e-15 7.69802e-14 -1.01588e-23 2.86928e-24 -4.1359e-25 5e-05 1.46608e-10 
60 1 0.282653 0.0174237 0.00718595 0.0055574 3.04964e-05 -0.000139082 4.27359e-11 -4.18354e-11 1.5913e-11 5e-05 1.46608e-10 
61 1 0.281964 0.0158233 0.00840235 0.0060001 -8.70129e-05 0.000238736 -2.93274e-10 -1.75148e-10 1.16051e-10 5e-05 1.46608e-10 
62 1 0.282558 0.0173943 0.0071991 0.00555945 3.93756e-05 -0.00014235 2.41342e-11 -7.92534e-11 2.36526e-11 5e-05 1.46608e-10 
63 1 0.282544 0.0181612 0.00691395 0.00571838 4.51814e-05 -3.4826e-05 5.92597e-11 2.27256e-10 4.19113e-10 5e-05 1.46608e-10 
64 1 0.288378 0.0173751 0.00721769 0.00548195 0.000130615 -8.13701e-06 2.20588e-11 -1.6195e-10 9.47335e-11 5e-05 1.46608e-10 
65 1 0.27641 0.0171261 0.00738616 0.00553586 0.000463884 0.000149382 -8.82977e-11 -1.8043e-10 4.29958e-11 5e-05 1.46608e-10 
66 1 0.276498 0.0178214 0.00730048 0.00575811 0.000180255 -0.000697328 -8.31365e-11 -5.55829e-12 7.44525e-12 5e-05 1.46608e-10 
67 1 0.282675 0.0179449 0.00699137 0.00568788 8.49206e-06 -0.00013282 1.91181e-11 -8.89584e-11 5.79525e-11 5e-05 1.46608e-10 
68 1 0.282464 0.0173648 0.00721226 0.00555907 3.94208e-05 -0.000142655 -8.99104e-11 -3.42842e-11 1.81215e-11 5e-05 1.46608e-10 
69 1 0.28275 0.0178826 0.00701285 0.00567017 -1.13817e-06 -0.000127197 1.7486e-11 -1.74331e-10 7.60985e-11 5e-05 1.46608e-10 
70 1 0.288454 0.0177219 0.00703352 0.00566434 7.3899e-05 2.39278e-05 1.18483e-10 -9.10473e-11 8.07879e-11 5e-05 1.46608e-10 
71 1 0.276821 0.0182228 0.00707153 0.00598548 0.000139381 -0.000696747 1.3138e-10 -1.63988e-10 2.26037e-11 5e-05 1.46608e-10 
72 1 0.282714 0.0181289 0.00692196 0.00573445 5.26235e-05 -3.30988e-05 1.70374e-10 2.34188e-11 -1.33173e-10 5e-05 1.46608e-10 
73 1 0.282555 0.0169647 0.00735914 0.00584434 6.00213e-05 -0.00015321 1.68549e-10 2.76735e-11 1.15434e-11 5e-05 1.46608e-10 
74 1 0.282114 0.0162768 0.00789573 0.00615185 0.000310718 0.000521236 1.21972e-10 3.22961e-10 -3.05468e-10 5e-05 1.46608e-10 
76 1 0.276418 0.0167751 0.00745415 0.00573149 0.000429675 0.000166322 8.72297e-11 3.30196e-11 2.06259e-11 5e-05 1.46608e-10 
77 1 0.282349 0.0172434 0.00726008 0.00554476 1.97759e-05 -0.000135016 7.52955e-12 6.62311e-11 -2.44231e-11 5e-05 1.46608e-10 
78 1 0.27582 0.0153782 0.0088774 0.00606684 0.000247517 -0.000198586 -1.14611e-10 -1.80242e-11 2.23472e-11 5e-05 1.46608e-10 
79 1 0.276747 0.0182891 0.00706184 0.00601843 0.000171393 -0.000709396 1.34531e-10 -1.29844e-10 2.18139e-11 5e-05 1.46608e-10 
80 1 0.282425 0.0171812 0.00728153 0.00553569 1.10781e-05 -0.00013143 -7.55098e-11 -1.27733e-11 6.15802e-12 5e-05 1.46608e-10 
82 1 0.276576 0.0177596 0.00730879 0.00578456 0.000217963 -0.000701469 -1.08237e-10 -4.06084e-11 5.32879e-11 5e-05 1.46608e-10 
83 1 0.276618 0.0172832 0.00734765 0.00536651 0.000326775 -0.000642408 -1.67845e-10 2.07718e-11 -1.99503e-10 5e-05 1.46608e-10 
84 1 0.288511 0.0180041 0.00697901 0.00570643 6.76169e-05 -0.000100025 -9.42195e-11 2.0547e-10 1.30077e-11 5e-05 1.46608e-10 
85 1 0.276615 0.0185127 0.00701592 0.00607683 0.000147233 -0.00070933 1.41892e-10 -1.12298e-10 3.86088e-11 5e-05 1.46608e-10 
86 1 0.282614 0.0172402 0.0072552 0.00555912 3.53229e-05 -0.000141271 1.30743e-10 7.09664e-11 -2.80911e-11 5e-05 1.46608e-10 
87 1 0.282385 0.0169976 0.00735079 0.00569115 -7.10858e-05 -0.000104389 -3.20945e-11 -1.10736e-11 6.03894e-12 5e-05 1.46608e-10 
88 1 0.282522 0.0176401 0.00710839 0.00566741 6.70694e-05 -0.000151788 1.26975e-10 -3.35018e-12 1.08997e-11 5e-05 1.46608e-10 
89 1 0.282638 0.0179349 0.00708377 0.00567835 1.61117e-05 -0.000139372 -1.60434e-11 -2.1483e-10 3.5381e-11 5e-05 1.46608e-10 
90 1 0.282695 0.0180366 0.00695675 0.00571614 5.66435e-06 -0.000127199 8.61492e-11 -1.3701e-10 -1.24534e-10 5e-05 1.46608e-10 
91 1 0.27658 0.0170941 0.00739969 0.00557086 0.000495535 0.000149393 2.31496e-10 3.28588e-11 -4.04946e-11 5e-05 1.46608e-10 
92 1 0.282447 0.0177024 0.00708693 0.00565395 5.96548e-05 -0.000154747 1.45748e-11 -6.98243e-11 1.33019e-11 5e-05 1.46608e-10 
93 1 0.282195 0.0165644 0.00763022 0.00577405 0.000410759 0.000380128 -5.85527e-10 2.46893e-10 -2.89793e-10 5e-05 1.46608e-10 
94 1 0.282546 0.0180474 0.00704369 0.0056758 -2.0483e-05 -0.000132749 -2.96064e-11 -3.04227e-10 7.3885e-11 5e-05 1.46608e-10 
95 1 0.282467 0.0176799 0.00718215 0.0056461 7.69421e-05 -0.000157354 -6.97817e-12 -4.37322e-11 -1.15002e-12 5e-05 1.46608e-10 
96 1 0.282427 0.0176106 0.00712155 0.0055978 6.3521e-05 -0.000153309 5.03099e-11 -4.90256e-11 1.17462e-11 5e-05 1.46608e-10 
97 1 0.275923 0.0156904 0.00853373 0.00611824 -8.95244e-06 -0.000411707 9.92444e-12 7.6583e-12 -1.848e-11 5e-05 1.46608e-10 
98 1 0.282175 0.0164922 0.00769669 0.00581335 0.000400095 0.000412849 -4.13539e-10 2.65377e-10 -3.07152e-10 5e-05 1.46608e-10 
99 1 0.27643 0.0176657 0.00726497 0.00553767 0.000327276 -0.000698313 -1.53104e-11 -7.23686e-11 1.67056e-11 5e-05 1.46608e-10 
100 1 0.282636 0.0177614 0.00706061 0.00565019 2.32093e-05 -0.000138968 -9.79814e-11 -9.44546e-11 3.53535e-11 5e-05 1.46608e-10 
101 1 0.27645 0.0177596 0.00723736 0.00575157 0.000249079 -0.000701173 2.94124e-11 -1.97726e-11 2.24018e-12 5e-05 1.46608e-10 
102 1 0.0643568 0.0187248 0.00531097 4.17291e-15 1.05972e-14 8.29525e-14 9.34417e-22 -2.29827e-22 -6.61744e-24 5e-05 1.46608e-10 
103 1 0.24257 0.0191927 0.00520306 -3.50766e-23 -3.94926e-23 1.23839e-22 0 2.58494e-26 0 5e-05 1.46608e-10 
104 1 0.2768 0.0181288 0.00709917 0.00595951 0.000170659 -0.000702566 3.31468e-11 -3.44521e-11 5.33355e-13 5e-05 1.46608e-10 
105 1 0.275931 0.0155573 0.00867739 0.0061127 0.000227338 -0.000177038 -1.47077e-10 4.76497e-11 -3.79092e-11 5e-05 1.46608e-10 
106 1 0.276449 0.0173192 0.00735064 0.00552912 0.000440786 0.000151735 -5.77646e-12 -3.80239e-11 -6.36931e-11 5e-05 1.46608e-10 
107 1 0.275842 0.0154432 0.00880457 0.00605873 0.000246522 -0.000197207 6.21121e-11 -4.33046e-11 5.77323e-11 5e-05 1.46608e-10 
108 1 0.28277 0.0179743 0.00697823 0.0056955 -6.28533e-06 -0.000122092 1.75559e-10 -2.28743e-10 -8.35968e-11 5e-05 1.46608e-10 
109 1 0.282825 0.0178202 0.00703434 0.00567182 6.79005e-06 -0.000134294 -6.11346e-11 -1.2246e-10 8.57419e-11 5e-05 1.46608e-10 
110 1 0.28231 0.01706 0.00732929 0.0056612 -0.000100521 -9.32316e-05 -2.77597e-11 -1.04983e-11 -7.77478e-12 5e-05 1.46608e-10 
111 1 0.28227 0.0168764 0.00739866 0.00555316 -0.000968884 -0.000256752 0 0 -1.43822e-09 5e-05 1.46608e-10 
112 1 0.275966 0.0158236 0.00839097 0.00613777 -1.8193e-05 -0.000407543 9.04407e-11 -9.10581e-12 -2.41986e-12 5e-05 1.46608e-10 
113 1 0.276332 0.0171871 0.00737103 0.00551936 0.000428836 0.000160078 2.51086e-10 3.28084e-10 -1.03734e-10 5e-05 1.46608e-10 
114 1 0.27639 0.0174765 0.00731781 0.00552092 0.000440375 0.000158744 1.8596e-11 -1.66205e-12 5.878e-12 5e-05 1.46608e-10 
115 1 0.282595 0.0171484 0.00728983 0.00562695 2.55533e-05 -0.000139593 -7.4474e-11 1.76523e-10 -6.45348e-11 5e-05 1.46608e-10 
116 1 0.2826 0.0180072 0.00696988 0.00570402 1.86555e-05 -0.000129185 1.14464e-10 -1.18076e-10 -1.484e-11 5e-05 1.46608e-10 
117 1 0.282597 0.0175778 0.00712985 0.00560083 3.81379e-05 -0.000143223 1.64623e-10 -1.07954e-10 4.44316e-11 5e-05 1.46608e-10 
118 1 0.276524 0.0172549 0.00736546 0.00553375 0.000267551 -0.000680882 1.00418e-10 -7.68523e-11 -4.0569e-12 5e-05 1.46608e-10 
119 1 0.282789 0.0180661 0.0069436 0.00571728 -4.55476e-06 -0.00012601 1.29264e-10 -1.5404e-10 -6.54109e-11 5e-05 1.46608e-10 
120 1 0.282403 0.0166942 0.00753437 0.00578997 0.000325151 0.000493256 -7.54315e-10 2.91168e-10 -2.69254e-10 5e-05 1.46608e-10 
121 1 0.282678 0.0183904 0.00691145 0.00564095 8.23149e-05 0.000256287 1.06903e-10 5.75878e-11 -2.95541e-11 5e-05 1.46608e-10 
122 1 0.282408 0.0175188 0.00715618 0.00558089 2.86406e-05 -0.00013905 -5.00764e-11 -1.48396e-10 5.5694e-11 5e-05 1.46608e-10 
123 1 0.276767 0.0183838 0.00703399 0.00610841 0.000173361 -0.000719557 2.24428e-10 -5.62459e-11 -9.92136e-12 5e-05 1.46608e-10 
124 1 0.282309 0.0166646 0.00754979 0.00575868 0.000419813 0.000386945 -5.96679e-10 1.66598e-10 -2.39866e-10 5e-05 1.46608e-10 
125 1 0.282502 0.0175483 0.00714301 0.00558986 6.63028e-05 -0.000152706 1.32974e-10 -4.56253e-11 1.37116e-11 5e-05 1.46608e-10 
127 1 0.275907 0.0156246 0.0086074 0.00611804 2.06485e-05 -0.000382168 -1.46338e-10 7.94109e-11 -5.55373e-12 5e-05 1.46608e-10 
128 1 0.282158 0.0164238 0.00776759 0.00584318 0.000422146 0.000474115 -1.2289e-10 2.80937e-10 -3.25801e-10 5e-05 1.46608e-10 
129 1 0.282506 0.0178635 0.00711291 0.00567263 6.52947e-05 -0.000144555 -5.41261e-11 -1.78226e-10 6.61259e-11 5e-05 1.46608e-10 
130 1 0.276488 0.0175094 0.00730075 0.00552843 0.000321819 -0.000694669 -1.45579e-11 -5.88395e-11 3.10729e-11 5e-05 1.46608e-10 
131 1 0.276508 0.0176035 0.00727319 0.00553312 0.000325008 -0.000696794 1.97164e-11 -3.72004e-11 5.14681e-12 5e-05 1.46608e-10 
132 1 0.2825 0.0171189 0.00730298 0.00563907 4.00597e-06 -0.000132025 4.10286e-11 -4.91959e-11 1.13061e-11 5e-05 1.46608e-10 
133 1 0.282619 0.018099 0.00693528 0.00571869 3.35228e-05 -4.68119e-05 2.15876e-10 -3.95404e-11 -3.5505e-10 5e-05 1.46608e-10 
134 1 0.28258 0.0179155 0.0070045 0.00568029 2.42618e-05 -0.000142144 -3.89782e-11 -7.67456e-11 1.46645e-11 5e-05 1.46608e-10 
135 1 0.282731 0.0177908 0.00704747 0.00565599 9.48298e-07 -0.000132559 -1.35921e-10 -1.30357e-10 4.50952e-11 5e-05 1.46608e-10 
136 1 0.276465 0.0169657 0.00741948 0.00561019 0.000464014 0.000152345 5.81873e-11 6.39011e-11 -1.53475e-11 5e-05 1.46608e-10 
137 1 0.282487 0.0177718 0.00714753 0.00567913 9.12879e-05 -0.000156804 -3.53885e-11 -1.00675e-10 2.31945e-11 5e-05 1.46608e-10 
138 1 0.282486 0.0178859 0.00701769 0.00567679 4.33706e-05 -0.000147486 -2.71059e-11 -6.57866e-11 2.88828e-11 5e-05 1.46608e-10 
140 1 0.282369 0.0173352 0.00722545 0.00555729 1.96301e-05 -0.000135181 -1.61618e-13 -4.23307e-12 1.77438e-12 5e-05 1.46608e-10 
141 1 0.276321 0.0163367 0.00782793 0.00603046 -0.000117259 -0.000295531 8.40452e-12 -2.761e-11 1.53819e-11 5e-05 1.46608e-10 
142 1 0.276698 0.0176593 0.00723717 0.00579125 0.000223941 -0.000698784 8.58519e-11 1.57936e-11 -2.81162e-12 5e-05 1.46608e-10 
143 1 0.275863 0.0155093 0.00873274 0.00608813 0.000241546 -0.000191557 1.30501e-12 -2.81372e-11 6.89875e-11 5e-05 1.46608e-10 
144 1 0.276563 0.0174434 0.00731034 0.00549078 0.000286527 -0.000684169 1.28495e-11 2.97525e-12 -7.77021e-12 5e-05 1.46608e-10 
146 1 0.276065 0.0158436 0.00836314 0.0061412 -1.81629e-05 -0.00040813 6.49757e-11 -3.24066e-11 3.17792e-11 5e-05 1.46608e-10 
147 1 0.276468 0.0174148 0.00732844 0.00552536 0.000286162 -0.000677583 5.13898e-11 -9.61058e-11 -6.47906e-10 5e-05 1.46608e-10 
148 1 0.27634 0.0164037 0.00775626 0.00587833 -9.4666e-05 -0.000310632 -3.17721e-12 -1.2582e-11 2.18474e-11 5e-05 1.46608e-10 
149 1 0.282231 0.0167079 0.0074976 0.00569967 0.000458423 0.000346263 -4.0012e-10 1.9694e-10 -2.98794e-10 5e-05 1.46608e-10 
150 1 0.276595 0.0184178 0.00704381 0.00602912 0.000158811 -0.000707117 6.62833e-12 -7.95382e-11 1.84801e-11 5e-05 1.46608e-10 
151 1 0.27659 0.0179791 0.00716273 0.00586765 0.000226394 -0.000706706 3.96407e-11 8.26957e-11 -1.88848e-11 5e-05 1.46608e-10 
153 1 0.276359 0.016471 0.00768462 0.00569999 -6.15554e-05 -0.000321048 1.78221e-10 6.33251e-11 1.51784e-10 5e-05 1.46608e-10 
154 1 0.276043 0.015777 0.00843452 0.00614459 -1.59661e-05 -0.000410716 1.93726e-10 4.87129e-12 -1.40711e-11 5e-05 1.46608e-10 
155 1 0.275988 0.0158902 0.00831959 0.00614158 -2.2732e-05 -0.000402979 3.7478e-11 -3.94503e-11 4.28506e-11 5e-05 1.46608e-10 
156 1 0.276301 0.0162698 0.00789945 0.00610958 -0.000130949 -0.000287441 1.29948e-10 -3.71731e-11 4.19087e-11 5e-05 1.46608e-10 
157 1 0.0219312 0.0187687 0.00551176 -3.84323e-14 8.16178e-14 2.95888e-13 8.81671e-22 -2.08036e-22 1.66884e-22 5e-05 1.46608e-10 
158 1 0.276394 0.0166088 0.00754399 0.00558549 0.000397706 0.000109126 -1.4213e-10 1.2534e-10 1.05079e-10 5e-05 1.46608e-10 
159 1 0.282519 0.0172107 0.00726835 0.00556185 2.57192e-05 -0.00013788 -7.24627e-11 -3.71944e-11 2.34307e-11 5e-05 1.46608e-10 
160 1 0.276471 0.0178535 0.00720974 0.00577511 0.000198225 -0.000690822 -3.02771e-11 -4.89398e-11 6.00908e-12 5e-05 1.46608e-10 
162 1 0.276558 0.0179613 0.00725572 0.00584643 0.000225884 -0.000712783 1.62618e-11 -2.41888e-12 -4.10916e-11 5e-05 1.46608e-10 
164 1 0.276053 0.01609 0.00810545 0.00615912 -4.29257e-05 -0.000383211 3.81427e-11 -7.08726e-11 7.00946e-11 5e-05 1.46608e-10 
165 1 0.276631 0.018167 0.00710753 0.00595175 0.000206211 -0.000711375 -1.98065e-11 1.43071e-11 -8.68722e-13 5e-05 1.46608e-10 
166 1 0.282505 0.0179777 0.00698307 0.00569198 3.38664e-05 -0.000145526 -1.31215e-11 -6.23678e-11 1.85058e-11 5e-05 1.46608e-10 
167 1 0.276553 0.0182298 0.0070991 0.00595503 0.000202162 -0.000710403 -5.23737e-11 -1.69942e-10 5.18121e-11 5e-05 1.46608e-10 
168 1 0.276672 0.0183548 0.00705233 0.00602867 0.000169608 -0.000709516 1.18469e-10 -9.49655e-11 1.56491e-11 5e-05 1.46608e-10 
169 1 0.276574 0.0183239 0.00707144 0.00599903 0.000207709 -0.000716923 3.28433e-11 9.43245e-12 -7.96579e-12 5e-05 1.46608e-10 
170 1 0.276651 0.0182609 0.00707993 0.00599361 0.000202543 -0.00071468 1.3256e-10 7.80498e-12 -1.27741e-11 5e-05 1.46608e-10 
171 1 0.282734 0.0182261 0.0069069 0.00572438 0.000107596 0.000257129 -4.66682e-11 -1.63814e-11 -1.58722e-10 5e-05 1.46608e-10 
172 1 0.276312 0.0170907 0.00738875 0.00568358 0.0003981 0.000167069 -7.4987e-11 9.5544e-11 -8.26905e-11 5e-05 1.46608e-10 
173 1 0.282693 0.01821 0.00699668 0.00557902 5.11013e-05 0.000186583 -6.85264e-11 -7.28367e-11 -3.20368e-10 5e-05 1.46608e-10 
174 1 0.276096 0.0162231 0.00796269 0.00620015 -5.99319e-05 -0.000368733 8.20751e-12 8.66316e-13 -8.77714e-12 5e-05 1.46608e-10 
176 1 0.27639 0.0170297 0.00740387 0.00573903 0.000417305 0.000181069 1.30853e-10 2.23706e-10 -1.37099e-10 5e-05 1.46608e-10 
177 1 0.276087 0.0159102 0.00829176 0.00613754 -2.12009e-05 -0.000404599 1.01676e-10 -8.94836e-11 8.06929e-11 5e-05 1.46608e-10 
178 1 0.276436 0.0175374 0.00738299 0.00598723 0.000917127 -0.000603516 2.82751e-11 5.43712e-11 -1.5052e-11 5e-05 1.46608e-10 
179 1 0.276492 0.0179475 0.00718212 0.00583457 0.000241067 -0.000707534 -2.73137e-12 -7.24291e-12 1.13788e-12 5e-05 1.46608e-10 
182 1 0.282754 0.0183259 0.00691211 0.00563707 7.8003e-05 0.000256514 1.30792e-10 9.56369e-11 -1.35889e-11 5e-05 1.46608e-10 
183 1 0.276371 0.0173801 0.00733554 0.00552287 0.000431699 0.000159929 3.23354e-12 -2.4193e-11 -1.38625e-11 5e-05 1.46608e-10 
184 1 0.282594 0.0181711 0.00699983 0.0056442 -0.000300599 3.17664e-05 4.6421e-10 6.61276e-10 1.09379e-11 5e-05 1.46608e-10 
185 1 0.276582 0.0175375 0.00728277 0.00553028 0.000307595 -0.000691342 -6.10843e-11 -3.32552e-11 1.73236e-11 5e-05 1.46608e-10 
186 1 0.276636 0.0186066 0.00698832 0.00613337 0.000166166 -0.000719295 -8.63127e-11 -2.80486e-11 1.0706e-11 5e-05 1.46608e-10 
187 1 0.282639 0.0181945 0.00691372 0.00572245 7.33807e-05 0.000159689 1.56017e-10 1.81711e-10 -9.95203e-11 5e-05 1.46608e-10 
188 1 0.282483 0.0174565 0.00717764 0.00557584 3.72646e-05 -0.000142279 -2.18377e-11 -8.13363e-11 3.11333e-11 5e-05 1.46608e-10 
189 1 0.282601 0.0184545 0.00691077 0.00562742 6.78e-05 0.000255852 -3.14942e-11 -1.68279e-10 -1.0096e-11 5e-05 1.46608e-10 
190 1 0.270556 0.0182417 0.00698799 0.00607493 -9.34316e-05 0.000181898 -8.36031e-12 -6.44552e-11 2.40481e-11 5e-05 1.46608e-10 
191 1 0.28225 0.0167841 0.00743409 0.00726683 -0.00439367 0.00537779 0 0 -1.43822e-09 5e-05 1.46608e-10 
192 1 0.276351 0.0172836 0.00735329 0.00548114 0.000425471 0.000160089 4.20384e-11 3.92362e-11 -3.0222e-11 5e-05 1.46608e-10 
193 1 0.282809 0.0181622 0.00692425 0.0057247 3.31931e-05 5.21682e-06 2.13531e-11 -6.05436e-11 9.71423e-11 5e-05 1.46608e-10 
194 1 0.276635 0.017894 0.00726575 0.00583557 0.000222961 -0.00070467 2.87124e-11 2.73477e-11 3.50077e-12 5e-05 1.46608e-10 
195 1 0.276685 0.0180071 0.00714472 0.00586855 0.000196446 -0.000699783 1.99994e-11 4.51666e-11 -5.2764e-11 5e-05 1.46608e-10 
196 1 0.276644 0.0178193 0.00719992 0.00582273 0.000220908 -0.000701636 -6.66178e-12 -8.59288e-12 1.74244e-13 5e-05 1.46608e-10 
197 1 0.270246 0.0167858 0.00749554 0.00548398 -5.46311e-05 -0.000138628 -1.95512e-11 6.77767e-11 -4.49262e-11 5e-05 1.46608e-10 
198 1 0.276638 0.0173773 0.00731991 0.00548988 0.000296058 -0.000679896 -1.09647e-11 -8.87482e-12 -1.0458e-10 5e-05 1.46608e-10 
199 1 0.276457 0.0176335 0.00735571 0.00553401 0.000327493 -0.000698396 1.68155e-11 -1.20615e-11 2.06797e-11 5e-05 1.46608e-10 
200 1 0.275945 0.015757 0.00846236 0.00612829 -1.50895e-05 -0.000411074 7.57854e-11 -1.31007e-11 -6.40151e-12 5e-05 1.46608e-10 
201 1 0.276705 0.018101 0.00711712 0.00591149 0.000173913 -0.000698152 -2.66558e-11 -7.8115e-11 2.44327e-11 5e-05 1.46608e-10 
202 1 0.276406 0.0166776 0.00747241 0.0056672 0.000432954 0.000160288 4.63042e-11 1.99624e-11 2.23121e-11 5e-05 1.46608e-10 
203 1 0.282561 0.0178237 0.00703912 0.00566391 3.31352e-05 -0.000140952 -5.3804e-11 -6.3828e-11 2.77393e-11 5e-05 1.46608e-10 
204 1 0.276759 0.017941 0.00715437 0.00585924 0.000195124 -0.000697894 8.46712e-11 -1.68914e-12 -1.05031e-11 5e-05 1.46608e-10 
205 1 0.276237 0.0163767 0.00779172 0.00605567 -8.95225e-05 -0.000326363 8.46882e-11 -1.11084e-10 1.21083e-10 5e-05 1.46608e-10 
206 1 0.276273 0.0165116 0.0076477 0.00601704 -2.45196e-06 -0.000417754 2.55971e-10 -9.77827e-11 1.2602e-10 5e-05 1.46608e-10 
207 1 0.276152 0.01611 0.00807759 0.0061849 -6.22638e-05 -0.000364766 4.02567e-11 -6.70133e-11 6.75598e-11 5e-05 1.46608e-10 
208 1 0.276677 0.0175654 0.00726477 0.005751 0.000234507 -0.000696749 -1.66596e-11 1.18052e-11 2.09552e-11 5e-05 1.46608e-10 
209 1 0.276504 0.0171586 0.00738401 0.00552397 0.000484247 0.000145665 7.1702e-13 1.16383e-10 3.74399e-12 5e-05 1.46608e-10 
210 1 0.282345 0.0168137 0.00742018 0.00608745 -0.000374887 -6.77341e-06 -6.41621e-10 5.09995e-10 -1.79188e-10 5e-05 1.46608e-10 
211 1 0.282365 0.0169059 0.00738539 0.00566373 -9.00777e-05 -9.68386e-05 1.34219e-11 -1.80637e-11 3.67838e-12 5e-05 1.46608e-10 
212 1 0.276726 0.0181952 0.00708944 0.00598004 0.000189132 -0.00070993 1.06816e-10 -4.38965e-12 -5.45905e-12 5e-05 1.46608e-10 
213 1 0.282582 0.0183565 0.0069057 0.00566969 8.85684e-05 0.000253528 -5.40836e-11 1.11806e-10 9.28301e-11 5e-05 1.46608e-10 
214 1 0.282444 0.0172729 0.0072469 0.0055522 1.49151e-05 -0.000133318 3.38926e-12 -4.19477e-13 -1.14592e-13 5e-05 1.46608e-10 
215 1 0.270461 0.0177557 0.00705758 0.00563732 3.94457e-05 0.00014997 -1.59191e-11 -1.06132e-11 8.25503e-12 5e-05 1.46608e-10 
216 1 0.27613 0.0160434 0.00814897 0.00615305 -3.82573e-05 -0.000387695 -9.0705e-11 -1.41409e-10 1.55784e-10 5e-05 1.46608e-10 
217 1 0.282829 0.0182594 0.0069126 0.00564644 8.56931e-05 0.000261415 6.86415e-12 -5.58028e-11 1.19599e-11 5e-05 1.46608e-10 
218 1 0.27641 0.0175716 0.00729253 0.00553076 0.000317217 -0.000694967 6.22977e-12 1.32159e-11 -1.07827e-11 5e-05 1.46608e-10 
219 1 0.282214 0.0166431 0.00757178 0.00573566 0.000437793 0.000362468 -5.19732e-10 2.19989e-10 -2.8983e-10 5e-05 1.46608e-10 
220 1 0.276528 0.0176973 0.00724558 0.00575936 0.000247944 -0.000702648 2.40459e-11 -1.19372e-10 3.9218e-11 5e-05 1.46608e-10 
222 1 0.282672 0.0175155 0.00715133 0.00556586 2.60297e-05 -0.000138021 1.31301e-10 -9.5212e-11 3.46489e-11 5e-05 1.46608e-10 
224 1 0.27631 0.016658 0.00751803 0.00577217 0.000231087 -0.000143713 -1.30948e-10 -1.48708e-10 1.00035e-11 5e-05 1.46608e-10 
225 1 0.28229 0.0169683 0.00736389 0.00564513 -0.000103076 -9.17395e-05 -1.48168e-11 -2.32485e-11 9.49131e-12 5e-05 1.46608e-10 
226 1 0.276718 0.0177532 0.00720957 0.00581427 0.000214245 -0.000698415 -1.63905e-10 6.90833e-11 5.46535e-12 5e-05 1.46608e-10 
227 1 0.270477 0.0178534 0.00704349 0.00564126 3.066e-05 0.000151435 7.08616e-11 -1.64546e-11 1.29207e-12 5e-05 1.46608e-10 
228 1 0.270419 0.0175623 0.00708513 0.0056509 4.39772e-05 0.000151848 4.52735e-11 3.82525e-11 -3.05843e-11 5e-05 1.46608e-10 
229 1 0.276692 0.0184488 0.00702475 0.00609594 0.000168734 -0.000717486 -7.56535e-11 -3.58078e-10 9.86978e-11 5e-05 1.46608e-10 
230 1 0.276213 0.0166343 0.00754259 0.00589624 9.53943e-05 -0.000242533 -8.77693e-11 -1.7027e-10 1.7802e-10 5e-05 1.46608e-10 
232 1 0.276637 0.0180409 0.00722599 0.00588563 0.000208101 -0.000695651 -9.81541e-11 9.94681e-12 -1.27187e-10 5e-05 1.46608e-10 
233 1 0.276533 0.0181356 0.0071268 0.00591685 0.000220311 -0.000711184 4.76302e-12 1.72886e-10 -5.59223e-11 5e-05 1.46608e-10 
234 1 0.282388 0.017427 0.00719081 0.00557228 4.46711e-05 -0.00014485 -6.29743e-11 -6.31353e-11 2.36981e-11 5e-05 1.46608e-10 
235 1 0.276178 0.0164903 0.00767664 0.0060476 -3.58634e-05 -0.000386181 2.11808e-10 -1.01877e-10 7.5289e-11 5e-05 1.46608e-10 
236 1 0.276272 0.016898 0.00742415 0.00568704 0.000384106 0.000171681 7.11519e-11 8.94618e-11 -7.09292e-11 5e-05 1.46608e-10 
237 1 0.276292 0.0169944 0.00740645 0.00569589 0.000398067 0.000161628 2.12272e-10 3.44379e-10 -1.22781e-10 5e-05 1.46608e-10 
239 1 0.27015 0.0164164 0.00780686 0.00566512 0.000499925 0.000681332 -7.08864e-10 -8.66879e-12 -1.45252e-10 5e-05 1.46608e-10 
240 1 0.270206 0.016617 0.00759505 0.00581838 -0.000101572 -7.59908e-05 7.76636e-11 -2.41434e-10 1.89872e-11 5e-05 1.46608e-10 
241 1 0.270131 0.0163562 0.00788435 0.00604857 0.000484433 0.000840253 -5.41309e-11 2.85829e-10 -8.67255e-10 5e-05 1.46608e-10 
242 1 0.276279 0.0162032 0.00797086 0.0061299 -0.000132998 -0.000286756 4.71581e-11 -3.36688e-11 3.02951e-11 5e-05 1.46608e-10 
243 1 0.276623 0.0177254 0.00722753 0.00579205 0.000227563 -0.000700745 -4.35558e-11 -7.01199e-11 3.73799e-11 5e-05 1.46608e-10 
244 1 0.270168 0.0164766 0.0077291 0.00578851 0.000478178 0.000742421 1.47783e-10 -1.51757e-10 4.36749e-10 5e-05 1.46608e-10 
246 1 0.270342 0.0172087 0.00724692 0.00557903 -8.33891e-05 -0.000125231 -7.76063e-12 9.36131e-12 -9.17507e-12 5e-05 1.46608e-10 
247 1 0.276118 0.0162897 0.00789131 0.00619421 -6.06766e-05 -0.000367129 4.56319e-11 5.10865e-11 -3.98566e-11 5e-05 1.46608e-10 
248 1 0.276407 0.017438 0.00740856 0.00554027 0.000431249 0.000155772 -6.79265e-11 -5.05673e-11 -4.31767e-11 5e-05 1.46608e-10 
249 1 0.270284 0.0169549 0.0073961 0.00563994 -0.000100556 -0.000115877 -8.52268e-11 -6.50492e-11 4.633e-11 5e-05 1.46608e-10 
250 1 0.276195 0.0162432 0.0079348 0.00621253 -4.72195e-05 -0.000382548 -1.34785e-10 -1.58164e-10 1.72744e-10 5e-05 1.46608e-10 
251 1 0.282541 0.0177319 0.00707377 0.00567348 6.90028e-05 -0.000154274 3.14065e-11 3.2557e-11 -1.25294e-11 5e-05 1.46608e-10 
252 1 0.270376 0.0172897 0.00719881 0.00555697 -6.97266e-05 -0.000131742 3.16792e-12 1.25357e-11 -2.68738e-11 5e-05 1.46608e-10 
253 1 0.270535 0.0181447 0.00700184 0.00550959 3.38699e-05 0.000147428 -1.74505e-11 4.11804e-11 -1.16518e-12 5e-05 1.46608e-10 
254 1 0.270304 0.0170394 0.00734641 0.00562127 -9.76035e-05 -0.000117956 -8.96112e-11 -1.26995e-11 1.03845e-11 5e-05 1.46608e-10 
255 1 0.275798 0.0153132 0.00895024 0.00604865 0.000248824 -0.000200098 2.91726e-11 -3.72028e-11 3.99772e-11 5e-05 1.46608e-10 
256 1 0.276895 0.0181562 0.00708138 0.00594802 9.9693e-05 -0.000682061 1.55477e-10 -1.03084e-10 1.34466e-11 5e-05 1.46608e-10 
257 1 0.276377 0.0165395 0.00761394 0.00560084 0.000109403 -0.000176641 -9.44054e-12 1.67216e-10 2.00002e-10 5e-05 1.46608e-10 
258 1 0.276515 0.0174771 0.00739156 0.00559456 0.000397339 -0.000672196 1.70234e-11 5.90697e-11 -3.37954e-11 5e-05 1.46608e-10 
259 1 0.270383 0.0173763 0.00714938 0.00559565 -3.05961e-05 -7.1058e-05 7.49486e-11 5.46083e-11 1.0964e-11 5e-05 1.46608e-10 