ITEM: TIMESTEP
70000000
ITEM: NUMBER OF ATOMS
269
ITEM: BOX BOUNDS ff ff ff
-0.02 0.43
-0.02 0.06
-0.02 0.07
ITEM: ATOMS id type x y z vx vy vz fx fy fz radius mass 
1 1 0.384599 0.0175858 5.25551e-05 8.44507e-15 -2.37109e-15 1.20906e-15 -6.42562e-20 1.80236e-20 -8.31317e-23 5e-05 1.46608e-10 
2 1 0.384183 0.0168012 5.20101e-05 2.24032e-18 -1.10514e-20 -1.71052e-15 0 -6.23401e-26 0 5e-05 1.46608e-10 
4 1 0.384401 0.018342 5.22951e-05 8.19305e-20 3.64108e-21 -6.55654e-17 0 -2.58494e-26 0 5e-05 1.46608e-10 
5 1 0.385011 0.0167669 5.30953e-05 2.24036e-18 -2.56083e-20 -1.71052e-15 0 -1.19958e-25 0 5e-05 1.46608e-10 
6 1 0.385108 0.0179216 5.32215e-05 1.79759e-18 9.99333e-22 -1.37249e-15 0 -9.1496e-27 0 5e-05 1.46608e-10 
7 1 0.384328 0.0189229 5.22005e-05 -3.50272e-19 -1.60682e-20 2.6738e-16 0 1.15506e-25 0 5e-05 1.46608e-10 
8 1 0.384815 0.0184943 5.2838e-05 1.79761e-18 -2.29891e-21 -1.37249e-15 0 -2.86628e-27 0 5e-05 1.46608e-10 
9 1 0.383777 0.0196525 5.1478e-05 2.81055e-18 -8.00059e-21 -2.14593e-15 0 -3.11649e-25 0 5e-05 1.46608e-10 
10 1 0.384888 0.0164946 5.29341e-05 -9.20563e-19 3.48348e-21 7.02842e-16 -4.03897e-28 4.00803e-26 0 5e-05 1.46608e-10 
11 1 0.383974 0.0191869 5.17367e-05 2.81054e-18 1.85725e-21 -2.14593e-15 0 -3.39501e-27 0 5e-05 1.46608e-10 
12 1 0.384004 0.0179482 5.17757e-05 1.42e-19 1.73969e-20 -9.954e-17 2.42338e-26 5.16988e-26 0 5e-05 1.46608e-10 
13 1 0.384309 0.0184568 5.21751e-05 1.79764e-18 1.46905e-21 -1.37251e-15 0 2.95031e-26 0 5e-05 1.46608e-10 
14 1 0.384724 0.0196711 5.2719e-05 8.71362e-19 -1.13448e-20 -6.65298e-16 -4.03897e-28 9.02652e-26 0 5e-05 1.46608e-10 
16 1 0.383685 0.0191826 5.13578e-05 2.81058e-18 -9.0897e-22 -2.14593e-15 0 3.44282e-26 0 5e-05 1.46608e-10 
17 1 0.384698 0.0173096 5.26849e-05 2.24035e-18 2.45928e-21 -1.71051e-15 0 9.97155e-27 0 5e-05 1.46608e-10 
19 1 0.383912 0.0197978 5.16557e-05 2.81059e-18 9.16973e-21 -2.14593e-15 0 2.97527e-26 0 5e-05 1.46608e-10 
21 1 0.383597 0.0186925 5.12422e-05 -6.94633e-19 -1.13939e-21 5.27388e-16 2.58494e-26 0 0 5e-05 1.46608e-10 
22 1 0.38463 0.0163628 5.2596e-05 2.24032e-18 -2.16571e-21 -1.71051e-15 0 -3.06939e-26 0 5e-05 1.46608e-10 
23 1 0.383878 0.0175317 5.1611e-05 -2.16148e-23 -3.22339e-21 -4.22722e-19 -6.46235e-27 0 0 5e-05 1.46608e-10 
24 1 0.384101 0.0187635 5.19028e-05 -9.85849e-20 2.70579e-21 7.4944e-17 0 0 0 5e-05 1.46608e-10 
26 1 0.38362 0.0183342 5.12731e-05 -2.89661e-21 1.08003e-21 1.92861e-20 0 0 0 5e-05 1.46608e-10 
27 1 0.384785 0.0180411 5.27984e-05 1.79763e-18 -1.94435e-21 -1.37251e-15 0 2.3657e-26 0 5e-05 1.46608e-10 
28 1 0.384198 0.0187953 5.20297e-05 -3.50113e-19 -8.79322e-22 2.67382e-16 0 -6.02192e-27 0 5e-05 1.46608e-10 
29 1 0.384214 0.0168974 5.20505e-05 -9.20563e-19 -5.72791e-21 7.02842e-16 0 -1.58412e-25 0 5e-05 1.46608e-10 
30 1 0.384097 0.0179868 5.18972e-05 1.25572e-19 -1.96104e-21 -9.95107e-17 -1.29247e-26 -2.58494e-26 0 5e-05 1.46608e-10 
31 1 0.383893 0.0179765 5.16305e-05 1.8286e-20 -1.29918e-20 -2.57466e-19 1.03398e-25 0 0 5e-05 1.46608e-10 
32 1 0.247451 0.0181454 0.00545794 3.78209e-15 -5.32141e-14 -2.74083e-13 1.60948e-21 2.22512e-22 -2.23339e-23 5e-05 1.46608e-10 
33 1 0.383882 0.0177775 5.16151e-05 2.08364e-20 -3.52776e-20 -3.7222e-19 2.58494e-26 7.75482e-26 4.1359e-25 5e-05 1.46608e-10 
35 1 0.384808 0.0177286 5.28287e-05 1.79764e-18 3.42728e-21 -1.37251e-15 0 1.21921e-26 0 5e-05 1.46608e-10 
36 1 0.383662 0.0180556 5.13278e-05 -3.40544e-21 -7.47031e-21 -5.5373e-20 0 -1.55096e-25 0 5e-05 1.46608e-10 
37 1 0.383909 0.0178755 5.16511e-05 -6.66657e-19 2.33033e-20 5.03338e-16 -1.61559e-26 1.45403e-26 0 5e-05 1.46608e-10 
38 1 0.384713 0.0170615 5.27042e-05 2.24037e-18 2.14894e-20 -1.71052e-15 0 -1.527e-25 0 5e-05 1.46608e-10 
39 1 0.383717 0.0197911 5.13996e-05 2.81055e-18 1.41594e-21 -2.14593e-15 0 3.42336e-27 0 5e-05 1.46608e-10 
41 1 0.383748 0.018123 5.14409e-05 2.24032e-18 2.75507e-20 -1.71052e-15 0 8.8074e-26 0 5e-05 1.46608e-10 
42 1 0.384212 0.0181264 5.20477e-05 -2.76022e-19 4.81086e-23 2.1602e-16 -5.16988e-26 -3.23117e-27 0 5e-05 1.46608e-10 
44 1 0.384674 0.017655 5.26539e-05 1.79759e-18 2.87647e-22 -1.37251e-15 0 3.69449e-27 0 5e-05 1.46608e-10 
45 1 0.384212 0.0172077 5.20482e-05 2.24035e-18 -1.67694e-22 -1.71051e-15 0 -1.01264e-26 0 5e-05 1.46608e-10 
47 1 0.384502 0.0170164 5.24283e-05 2.24035e-18 3.01988e-22 -1.71051e-15 0 1.33661e-26 0 5e-05 1.46608e-10 
48 1 0.383855 0.0191595 5.15803e-05 2.81058e-18 -4.96435e-22 -2.14593e-15 0 3.20533e-26 0 5e-05 1.46608e-10 
49 1 0.384166 0.0195438 5.19874e-05 2.81054e-18 3.24992e-21 -2.14593e-15 0 5.04011e-25 0 5e-05 1.46608e-10 
50 1 0.393288 0.0173278 0.00799726 0.00156722 0.0390158 -0.0274661 -1.87355e-11 1.2159e-10 -2.025e-10 5e-05 1.46608e-10 
51 1 0.384626 0.0177793 5.25903e-05 1.79763e-18 -4.17389e-22 -1.37251e-15 0 -8.16637e-27 0 5e-05 1.46608e-10 
52 1 0.38448 0.0176805 5.23994e-05 3.16118e-14 3.85335e-14 -9.50422e-15 7.60923e-19 2.35304e-19 -5.25311e-19 5e-05 1.46608e-10 
53 1 0.384734 0.0175226 5.27322e-05 5.30041e-14 -1.28125e-13 7.93432e-16 -1.0285e-18 2.80414e-18 -3.13003e-20 5e-05 1.46608e-10 
54 1 0.383738 0.0190139 5.14271e-05 -3.50179e-19 2.61252e-22 2.67381e-16 -4.03897e-28 1.59364e-26 0 5e-05 1.46608e-10 
55 1 0.384694 0.0180885 5.26795e-05 -2.85094e-19 6.36364e-23 2.16623e-16 0 0 0 5e-05 1.46608e-10 
56 1 0.383635 0.0196308 5.12923e-05 2.81055e-18 1.46317e-21 -2.14593e-15 0 2.91826e-26 0 5e-05 1.46608e-10 
57 1 0.383634 0.0197324 5.1291e-05 -3.50196e-19 -1.3043e-21 2.67381e-16 0 3.41803e-26 0 5e-05 1.46608e-10 
59 1 0.378022 0.019866 0.005332 -5.01989e-15 -7.41211e-15 7.69802e-14 -4.96308e-24 2.99853e-24 0 5e-05 1.46608e-10 
60 1 0.384057 0.0182172 5.1845e-05 1.7976e-18 4.12842e-21 -1.37251e-15 0 3.00809e-26 0 5e-05 1.46608e-10 
61 1 0.384827 0.0175585 5.28544e-05 -4.36101e-14 1.22987e-13 -3.77276e-16 1.02001e-18 -2.52712e-18 4.32607e-20 5e-05 1.46608e-10 
62 1 0.384311 0.0186263 5.21774e-05 1.79763e-18 -7.58724e-21 -1.37251e-15 0 -3.22849e-26 0 5e-05 1.46608e-10 
63 1 0.383577 0.018452 5.1216e-05 2.07122e-21 8.36289e-21 -2.88402e-20 0 0 0 5e-05 1.46608e-10 
64 1 0.383269 0.0178073 0.0053438 -1.46749e-15 -3.32034e-15 -2.09204e-14 -2.12482e-23 3.59307e-24 8.27181e-25 5e-05 1.46608e-10 
65 1 0.384532 0.0167022 5.24676e-05 2.24032e-18 -6.87562e-23 -1.71051e-15 0 -2.08863e-29 0 5e-05 1.46608e-10 
66 1 0.383745 0.0178455 0.000126364 -1.8172e-19 -7.56816e-20 -1.11362e-20 0 1.03398e-25 9.69352e-26 5e-05 1.46608e-10 
67 1 0.384602 0.0180485 5.25594e-05 -2.82911e-19 -2.93638e-21 2.16622e-16 2.58494e-26 0 0 5e-05 1.46608e-10 
68 1 0.384886 0.0184142 5.2931e-05 3.47217e-19 6.99031e-21 -2.65996e-16 -3.23117e-27 0 0 5e-05 1.46608e-10 
69 1 0.383711 0.0207759 5.13922e-05 2.00506e-18 -6.84376e-22 -1.5309e-15 4.03897e-28 -2.67449e-26 0 5e-05 1.46608e-10 
70 1 0.384746 0.0161015 5.27478e-05 2.24036e-18 1.60187e-20 -1.71051e-15 0 2.41351e-26 0 5e-05 1.46608e-10 
71 1 0.383741 0.0188606 5.14314e-05 -3.50205e-19 -2.02815e-20 2.6738e-16 0 -2.52506e-25 0 5e-05 1.46608e-10 
72 1 0.384005 0.0195345 5.17769e-05 -3.5021e-19 -2.31317e-21 2.67382e-16 4.03897e-28 -2.89725e-26 0 5e-05 1.46608e-10 
73 1 0.385165 0.0173714 5.3297e-05 1.79759e-18 -3.89928e-22 -1.37251e-15 0 -2.65515e-26 0 5e-05 1.46608e-10 
74 1 0.384312 0.0182285 5.21795e-05 8.80104e-20 -1.53292e-21 -6.55663e-17 1.29247e-26 0 0 5e-05 1.46608e-10 
76 1 0.384529 0.0179806 5.24634e-05 1.79756e-18 -5.82995e-22 -1.37249e-15 0 2.11046e-27 0 5e-05 1.46608e-10 
77 1 0.384211 0.0182562 5.20468e-05 1.7976e-18 -5.86014e-21 -1.37249e-15 0 -3.30785e-26 0 5e-05 1.46608e-10 
78 1 0.384019 0.0174293 5.17959e-05 2.24037e-18 1.88438e-22 -1.71052e-15 0 2.64348e-26 0 5e-05 1.46608e-10 
79 1 0.383618 0.019402 5.12705e-05 -3.50198e-19 4.07171e-21 2.67382e-16 0 -1.80373e-27 0 5e-05 1.46608e-10 
80 1 0.384203 0.0173209 5.20365e-05 2.24033e-18 -2.70875e-20 -1.71051e-15 0 3.71031e-25 0 5e-05 1.46608e-10 
82 1 0.384071 0.0186677 5.1864e-05 -3.5017e-19 -1.42447e-21 2.67382e-16 0 -2.14643e-26 0 5e-05 1.46608e-10 
83 1 0.384602 0.0164616 5.25589e-05 2.24033e-18 -6.27716e-21 -1.71052e-15 0 -2.09882e-25 0 5e-05 1.46608e-10 
84 1 0.384003 0.0188652 5.17748e-05 -9.43966e-20 7.69126e-22 7.49431e-17 0 0 0 5e-05 1.46608e-10 
85 1 0.384491 0.0201706 5.24132e-05 8.71354e-19 -4.96038e-21 -6.65297e-16 0 2.90598e-26 0 5e-05 1.46608e-10 
86 1 0.38452 0.0190801 5.24517e-05 2.81057e-18 2.13321e-20 -2.14593e-15 0 -9.08506e-26 0 5e-05 1.46608e-10 
87 1 0.384401 0.0173066 5.22954e-05 2.24033e-18 6.30491e-21 -1.71051e-15 0 6.19715e-26 0 5e-05 1.46608e-10 
88 1 0.384597 0.0181855 5.25521e-05 1.7976e-18 2.90318e-22 -1.37249e-15 0 -9.52618e-27 0 5e-05 1.46608e-10 
89 1 0.383831 0.0209331 5.15494e-05 2.00507e-18 6.18571e-21 -1.5309e-15 0 1.31795e-26 0 5e-05 1.46608e-10 
90 1 0.384476 0.0180662 5.23935e-05 -2.78879e-19 1.7322e-20 2.16044e-16 -1.03398e-25 0 0 5e-05 1.46608e-10 
91 1 0.384562 0.0161408 5.25065e-05 2.24032e-18 -4.38228e-20 -1.71051e-15 0 -1.57624e-24 0 5e-05 1.46608e-10 
92 1 0.383623 0.0181478 5.12773e-05 3.72584e-22 1.75341e-21 -5.37236e-20 0 0 0 5e-05 1.46608e-10 
93 1 0.384831 0.0190845 5.28587e-05 2.81055e-18 5.84098e-21 -2.14593e-15 0 -1.51089e-25 0 5e-05 1.46608e-10 
94 1 0.384215 0.0186925 5.20517e-05 -3.50211e-19 8.18881e-22 2.67382e-16 0 -1.69145e-26 0 5e-05 1.46608e-10 
95 1 0.383676 0.018497 5.13469e-05 2.81051e-18 -6.37142e-22 -2.14593e-15 0 -1.05226e-26 0 5e-05 1.46608e-10 
96 1 0.385068 0.0173509 5.31688e-05 2.24031e-18 4.50457e-21 -1.71052e-15 0 -2.62942e-26 0 5e-05 1.46608e-10 
97 1 0.385082 0.0166964 5.31883e-05 2.24035e-18 2.94864e-23 -1.71052e-15 0 4.83641e-27 0 5e-05 1.46608e-10 
98 1 0.384494 0.017574 5.24182e-05 -9.20543e-19 3.24937e-22 7.02843e-16 4.03897e-28 -3.96175e-27 0 5e-05 1.46608e-10 
99 1 0.383876 0.0176099 0.000113825 4.27635e-20 2.70124e-20 -3.9825e-19 -2.58494e-26 5.16988e-26 -2.06795e-25 5e-05 1.46608e-10 
100 1 0.383701 0.0182111 5.13792e-05 1.7976e-18 5.65482e-22 -1.37251e-15 0 1.63489e-27 0 5e-05 1.46608e-10 
101 1 0.3839 0.0196686 5.16397e-05 -3.50175e-19 3.64016e-21 2.67381e-16 0 3.64213e-27 0 5e-05 1.46608e-10 
102 1 0.0643568 0.0187248 0.00531097 4.38703e-15 1.04486e-14 8.29603e-14 1.84625e-21 -1.15567e-21 5.31464e-23 5e-05 1.46608e-10 
103 1 0.230779 0.0182774 0.00551293 -5.40648e-15 6.5948e-15 4.4682e-14 -6.13846e-22 -4.12246e-22 -1.09601e-23 5e-05 1.46608e-10 
104 1 0.38388 0.0192583 5.16135e-05 2.81054e-18 3.79465e-21 -2.14593e-15 0 1.544e-26 0 5e-05 1.46608e-10 
105 1 0.384197 0.0178013 5.20291e-05 2.24031e-18 -1.26623e-21 -1.71052e-15 0 -9.10925e-27 0 5e-05 1.46608e-10 
106 1 0.384064 0.01708 5.85246e-05 5.76619e-18 2.40193e-18 1.35495e-19 2.06795e-25 1.03398e-25 1.03398e-25 5e-05 1.46608e-10 
107 1 0.383991 0.0177466 5.17583e-05 1.83561e-21 9.43646e-22 -4.59532e-19 0 0 0 5e-05 1.46608e-10 
108 1 0.383604 0.0189528 5.1252e-05 3.36688e-21 2.06681e-21 7.08695e-21 0 0 0 5e-05 1.46608e-10 
109 1 0.383824 0.0193429 5.15405e-05 2.81059e-18 3.21658e-22 -2.14593e-15 0 3.76441e-27 0 5e-05 1.46608e-10 
110 1 0.384848 0.0181615 5.28813e-05 -2.82046e-19 -6.62329e-22 2.16623e-16 0 0 0 5e-05 1.46608e-10 
111 1 0.383759 0.0180222 5.14545e-05 -5.1452e-21 -1.15275e-20 -2.91542e-19 0 0 0 5e-05 1.46608e-10 
112 1 0.384668 0.0204846 5.26453e-05 2.00507e-18 -1.8018e-21 -1.5309e-15 0 2.17265e-25 0 5e-05 1.46608e-10 
113 1 0.384006 0.0178482 5.17777e-05 1.12809e-19 2.37211e-20 -9.95169e-17 2.58494e-26 -5.16988e-26 -4.1359e-25 5e-05 1.46608e-10 
114 1 0.385064 0.0164614 5.31641e-05 2.24033e-18 -7.5629e-20 -1.71052e-15 4.03897e-28 -1.13386e-24 0 5e-05 1.46608e-10 
115 1 0.38433 0.0192224 5.22022e-05 2.81054e-18 1.03648e-22 -2.14593e-15 0 -4.83849e-26 0 5e-05 1.46608e-10 
116 1 0.384884 0.0180547 5.29282e-05 1.7976e-18 2.63522e-22 -1.37249e-15 0 1.26909e-28 0 5e-05 1.46608e-10 
117 1 0.383529 0.0177712 0.00534448 4.20642e-18 -1.80377e-14 -5.94669e-14 3.87955e-25 -5.16988e-26 0 5e-05 1.46608e-10 
118 1 0.384874 0.0171689 5.29154e-05 2.24031e-18 -1.12623e-20 -1.71052e-15 0 -1.95604e-25 0 5e-05 1.46608e-10 
119 1 0.383718 0.017918 5.14012e-05 -2.82064e-21 2.2019e-21 5.84734e-19 2.58494e-26 0 0 5e-05 1.46608e-10 
120 1 0.384613 0.0170491 5.25734e-05 2.24034e-18 -4.35632e-21 -1.71052e-15 0 1.9228e-25 0 5e-05 1.46608e-10 
121 1 0.385676 0.0164514 5.39659e-05 1.45285e-18 -2.23162e-20 -1.10923e-15 0 5.52295e-26 0 5e-05 1.46608e-10 
122 1 0.384725 0.0177988 5.27197e-05 1.79761e-18 7.13428e-22 -1.37249e-15 0 -5.30431e-27 0 5e-05 1.46608e-10 
123 1 0.383915 0.0205035 5.16596e-05 8.71335e-19 -1.06661e-21 -6.65298e-16 0 -2.94694e-26 0 5e-05 1.46608e-10 
124 1 0.38514 0.0150589 5.32639e-05 -6.70497e-20 6.19967e-20 5.11809e-17 4.03897e-28 -1.90058e-25 0 5e-05 1.46608e-10 
125 1 0.384411 0.0182414 5.23096e-05 1.79763e-18 -6.22996e-23 -1.37251e-15 0 1.24347e-27 0 5e-05 1.46608e-10 
127 1 0.384568 0.0171652 5.25152e-05 2.24031e-18 -1.24294e-22 -1.71052e-15 0 2.34565e-27 0 5e-05 1.46608e-10 
128 1 0.384299 0.0176122 5.21628e-05 2.24033e-18 9.62446e-23 -1.71051e-15 -4.03897e-28 -4.08864e-28 0 5e-05 1.46608e-10 
129 1 0.384156 0.0171195 5.19742e-05 -8.12265e-21 -2.57696e-20 5.47555e-19 0 -2.06795e-25 0 5e-05 1.46608e-10 
130 1 0.385036 0.0171379 5.31278e-05 2.24037e-18 1.88298e-20 -1.71052e-15 4.03897e-28 -6.38306e-27 0 5e-05 1.46608e-10 
131 1 0.38397 0.0175718 5.17312e-05 2.24033e-18 1.2717e-21 -1.71051e-15 -4.03897e-28 7.60482e-27 0 5e-05 1.46608e-10 
132 1 0.385069 0.0180992 5.31713e-05 1.79761e-18 -9.06346e-24 -1.37251e-15 0 7.8221e-27 0 5e-05 1.46608e-10 
133 1 0.384477 0.0187082 5.23958e-05 1.79763e-18 -1.66292e-21 -1.37251e-15 0 1.35861e-26 0 5e-05 1.46608e-10 
134 1 0.384249 0.0183505 5.20968e-05 8.87465e-20 2.40638e-21 -6.55682e-17 0 0 0 5e-05 1.46608e-10 
135 1 0.383899 0.019542 5.16388e-05 -3.50221e-19 -3.57747e-22 2.6738e-16 0 -1.8233e-26 0 5e-05 1.46608e-10 
136 1 0.384145 0.017899 5.19599e-05 1.46274e-19 -1.85229e-21 -9.95088e-17 1.03398e-25 5.16988e-26 0 5e-05 1.46608e-10 
137 1 0.383813 0.0198281 5.15254e-05 -3.50212e-19 -4.60998e-21 2.67381e-16 4.03897e-28 -1.68514e-26 0 5e-05 1.46608e-10 
138 1 0.384467 0.0171735 5.23827e-05 2.24033e-18 -5.27551e-22 -1.71052e-15 0 -5.89156e-27 0 5e-05 1.46608e-10 
140 1 0.384752 0.0179004 5.27554e-05 1.79759e-18 2.12861e-21 -1.37249e-15 0 -3.37099e-27 0 5e-05 1.46608e-10 
141 1 0.38497 0.0181068 5.30405e-05 -5.31509e-19 -4.83415e-21 4.04658e-16 0 0 0 5e-05 1.46608e-10 
142 1 0.38496 0.0184888 5.30276e-05 1.79759e-18 -1.91179e-21 -1.37249e-15 0 -1.19659e-26 0 5e-05 1.46608e-10 
143 1 0.384762 0.0181437 0.000100712 -2.77535e-19 -1.63734e-21 2.16622e-16 0 0 0 5e-05 1.46608e-10 
144 1 0.383431 0.0175376 0.00541532 1.17864e-17 -1.80377e-14 -5.94669e-14 6.53581e-23 0 0 5e-05 1.46608e-10 
146 1 0.384977 0.0180356 0.000122854 -5.36517e-19 -4.79366e-22 4.04649e-16 -2.58494e-26 5.16988e-26 0 5e-05 1.46608e-10 
147 1 0.383614 0.0185748 5.12645e-05 -3.50169e-19 5.9634e-21 2.67381e-16 0 1.19736e-26 0 5e-05 1.46608e-10 
148 1 0.384112 0.0172175 5.19177e-05 2.24034e-18 -1.14332e-21 -1.71051e-15 -4.03897e-28 5.68476e-27 0 5e-05 1.46608e-10 
149 1 0.385015 0.0183005 5.30994e-05 1.79763e-18 1.09199e-21 -1.37251e-15 0 -1.14678e-26 0 5e-05 1.46608e-10 
150 1 0.384846 0.0192085 5.28787e-05 8.71367e-19 5.52884e-21 -6.65297e-16 0 -1.91477e-26 0 5e-05 1.46608e-10 
151 1 0.384832 0.0188472 5.28603e-05 1.7976e-18 2.05738e-20 -1.37251e-15 0 5.03088e-26 0 5e-05 1.46608e-10 
153 1 0.383898 0.0179255 0.00013754 1.39095e-17 -1.49941e-16 2.51809e-16 -1.29247e-26 2.58494e-26 0 5e-05 1.46608e-10 
154 1 0.383898 0.0181094 5.16374e-05 1.79764e-18 -2.56046e-22 -1.37251e-15 0 -4.34639e-27 0 5e-05 1.46608e-10 
155 1 0.384945 0.0179716 5.30077e-05 -5.31547e-19 -4.94564e-21 4.04653e-16 0 0 0 5e-05 1.46608e-10 
156 1 0.384147 0.0170045 5.19627e-05 -9.36048e-21 2.22461e-21 -1.90777e-18 -5.16988e-26 -6.46235e-27 0 5e-05 1.46608e-10 
157 1 0.0219312 0.0187687 0.00551176 -3.83152e-14 8.16724e-14 2.95888e-13 6.98968e-22 4.48487e-22 -8.6854e-24 5e-05 1.46608e-10 
158 1 0.384399 0.017607 5.22938e-05 2.24035e-18 1.42292e-22 -1.71052e-15 0 -7.53818e-28 0 5e-05 1.46608e-10 
159 1 0.384201 0.0184387 5.20343e-05 1.79762e-18 -1.81501e-22 -1.37251e-15 0 -3.60433e-28 0 5e-05 1.46608e-10 
160 1 0.383571 0.0183829 0.000123314 -1.5007e-21 4.85387e-22 -6.69189e-22 0 0 0 5e-05 1.46608e-10 
162 1 0.384488 0.0195864 5.24091e-05 -3.50179e-19 5.59606e-22 2.67381e-16 0 -5.59201e-26 0 5e-05 1.46608e-10 
164 1 0.384755 0.0166629 5.27588e-05 -9.20543e-19 -6.13435e-21 7.02843e-16 4.03897e-28 1.6464e-25 0 5e-05 1.46608e-10 
165 1 0.383838 0.0177344 0.000130408 -1.14997e-19 4.64012e-20 -3.7573e-19 -5.16988e-26 0 -4.1359e-25 5e-05 1.46608e-10 
166 1 0.383767 0.0192404 5.14661e-05 2.81059e-18 -4.8509e-21 -2.14593e-15 0 8.63247e-27 0 5e-05 1.46608e-10 
167 1 0.384912 0.0178665 5.29654e-05 1.7976e-18 -3.5316e-22 -1.37251e-15 0 3.98282e-27 0 5e-05 1.46608e-10 
168 1 0.384018 0.01725 5.17936e-05 2.24035e-18 2.2176e-20 -1.71052e-15 0 -7.66027e-26 0 5e-05 1.46608e-10 
169 1 0.384049 0.019854 5.18343e-05 -3.50203e-19 9.78993e-21 2.67382e-16 0 2.61767e-26 0 5e-05 1.46608e-10 
170 1 0.383999 0.018436 5.17689e-05 1.79763e-18 3.50666e-21 -1.37251e-15 4.03897e-28 -1.52763e-26 0 5e-05 1.46608e-10 
171 1 0.384038 0.0188005 0.000119845 -9.13768e-20 7.0025e-21 7.49371e-17 0 0 0 5e-05 1.46608e-10 
172 1 0.384373 0.0180412 5.22591e-05 1.79758e-18 -3.76165e-22 -1.37249e-15 0 1.79718e-26 0 5e-05 1.46608e-10 
173 1 0.384964 0.0172331 5.30331e-05 2.24036e-18 7.56744e-21 -1.71052e-15 0 -5.31972e-26 0 5e-05 1.46608e-10 
174 1 0.384622 0.0182827 5.25858e-05 1.79761e-18 5.24712e-22 -1.37251e-15 0 1.93174e-27 0 5e-05 1.46608e-10 
176 1 0.383932 0.0176648 5.16808e-05 3.65036e-21 4.72832e-21 -4.08511e-19 0 -2.58494e-26 0 5e-05 1.46608e-10 
177 1 0.38404 0.0185721 5.18234e-05 1.79761e-18 5.07762e-21 -1.37251e-15 0 3.45791e-26 0 5e-05 1.46608e-10 
178 1 0.384829 0.019706 5.28566e-05 8.71354e-19 -3.61204e-22 -6.65297e-16 0 -3.13483e-27 0 5e-05 1.46608e-10 
179 1 0.384191 0.0191787 5.20202e-05 2.81059e-18 1.39308e-20 -2.14593e-15 0 1.5114e-25 0 5e-05 1.46608e-10 
182 1 0.384115 0.018498 5.19211e-05 1.79756e-18 2.02776e-22 -1.37249e-15 0 1.02706e-26 0 5e-05 1.46608e-10 
183 1 0.384721 0.0202918 5.27147e-05 8.71351e-19 -1.57656e-23 -6.65297e-16 0 -1.10721e-26 0 5e-05 1.46608e-10 
184 1 0.384677 0.0179669 5.2657e-05 1.7976e-18 1.24073e-21 -1.37249e-15 0 1.15615e-26 0 5e-05 1.46608e-10 
185 1 0.38458 0.01769 5.25298e-05 3.84872e-14 -2.48305e-14 9.30223e-15 6.94179e-19 9.11982e-19 5.1379e-19 5e-05 1.46608e-10 
186 1 0.38368 0.0195057 5.13522e-05 -3.50218e-19 9.5006e-21 2.67381e-16 0 -1.54737e-25 0 5e-05 1.46608e-10 
187 1 0.384427 0.0170821 5.23292e-05 -1.80599e-20 1.01381e-21 5.94912e-19 0 -5.16988e-26 0 5e-05 1.46608e-10 
188 1 0.38383 0.0176734 5.15473e-05 -1.17702e-20 5.21854e-21 -3.98865e-19 3.23117e-26 -1.29247e-25 0 5e-05 1.46608e-10 
189 1 0.383918 0.017439 5.16628e-05 2.24034e-18 -4.74682e-22 -1.71052e-15 0 -3.6572e-27 0 5e-05 1.46608e-10 
190 1 0.383979 0.0193213 5.17425e-05 -3.50211e-19 1.76023e-21 2.67381e-16 0 6.93914e-26 0 5e-05 1.46608e-10 
191 1 0.384646 0.017421 5.26161e-05 2.24031e-18 3.02375e-22 -1.71052e-15 0 3.98023e-27 0 5e-05 1.46608e-10 
192 1 0.384378 0.0175059 5.22658e-05 2.24036e-18 -4.20525e-21 -1.71052e-15 0 -2.44567e-26 0 5e-05 1.46608e-10 
193 1 0.384089 0.0190435 5.18871e-05 -3.50211e-19 1.95717e-22 2.67382e-16 0 2.01338e-26 0 5e-05 1.46608e-10 
194 1 0.383653 0.019074 5.13159e-05 -1.59075e-21 1.67663e-21 -5.42201e-21 0 0 0 5e-05 1.46608e-10 
195 1 0.383846 0.0182168 5.15694e-05 1.79758e-18 1.78461e-21 -1.37249e-15 0 4.14409e-26 0 5e-05 1.46608e-10 
196 1 0.384118 0.0180904 5.19255e-05 1.7976e-18 -8.08133e-22 -1.37251e-15 0 -4.04405e-27 0 5e-05 1.46608e-10 
197 1 0.383944 0.0178123 0.000121771 -4.37032e-17 -2.51405e-17 -4.99998e-17 0 5.16988e-26 0 5e-05 1.46608e-10 
198 1 0.383892 0.0185466 5.16296e-05 -3.50203e-19 2.75323e-21 2.67381e-16 0 -5.96608e-26 0 5e-05 1.46608e-10 
199 1 0.383899 0.0194311 5.16383e-05 2.81054e-18 -7.95068e-21 -2.14593e-15 0 -1.28271e-25 0 5e-05 1.46608e-10 
200 1 0.385014 0.0178743 5.30989e-05 1.79757e-18 -1.30947e-21 -1.37249e-15 0 1.16349e-26 0 5e-05 1.46608e-10 
201 1 0.384311 0.0181229 5.21786e-05 -2.82432e-19 -5.05598e-22 2.16026e-16 0 1.29247e-26 0 5e-05 1.46608e-10 
202 1 0.38375 0.0179324 0.000175661 -1.90404e-19 -1.18642e-19 -2.22706e-21 0 -5.16988e-26 -2.06795e-25 5e-05 1.46608e-10 
203 1 0.384564 0.0165956 5.2509e-05 2.24034e-18 -1.28164e-21 -1.71052e-15 0 -2.07842e-26 0 5e-05 1.46608e-10 
204 1 0.38396 0.0190065 5.17177e-05 2.81057e-18 5.32644e-22 -2.14593e-15 -4.03897e-28 -9.00765e-27 0 5e-05 1.46608e-10 
206 1 0.384465 0.0168375 5.23795e-05 2.24034e-18 2.21544e-20 -1.71052e-15 0 -2.54107e-26 0 5e-05 1.46608e-10 
207 1 0.385175 0.0175512 5.33093e-05 1.79761e-18 -3.77753e-22 -1.37251e-15 0 -2.66865e-25 0 5e-05 1.46608e-10 
208 1 0.383584 0.0182412 5.12248e-05 1.40076e-21 2.7769e-21 2.29313e-20 -7.75482e-26 0 0 5e-05 1.46608e-10 
209 1 0.38493 0.0182425 5.29879e-05 3.50505e-19 2.88133e-21 -2.65995e-16 0 -5.16988e-26 0 5e-05 1.46608e-10 
210 1 0.384351 0.0171769 5.22304e-05 2.24031e-18 2.73027e-21 -1.71051e-15 0 2.87712e-25 0 5e-05 1.46608e-10 
211 1 0.383783 0.0177617 5.14859e-05 3.20969e-21 3.60237e-21 -2.64412e-19 5.16988e-26 0 4.1359e-25 5e-05 1.46608e-10 
212 1 0.384062 0.0199546 5.18516e-05 2.81055e-18 -6.70778e-21 -2.14593e-15 0 -3.29154e-26 0 5e-05 1.46608e-10 
213 1 0.384476 0.0184173 5.2394e-05 1.79759e-18 2.51078e-21 -1.37249e-15 4.03897e-28 -4.11193e-26 0 5e-05 1.46608e-10 
214 1 0.38469 0.0169374 5.26743e-05 2.24031e-18 1.07861e-21 -1.71051e-15 0 2.83184e-26 0 5e-05 1.46608e-10 
215 1 0.384121 0.0182994 5.19287e-05 1.79758e-18 -2.08089e-23 -1.37249e-15 0 -3.81783e-27 0 5e-05 1.46608e-10 
216 1 0.384245 0.017708 5.20916e-05 2.24035e-18 -6.1439e-21 -1.71052e-15 0 1.19461e-25 0 5e-05 1.46608e-10 
217 1 0.384064 0.0191417 5.1854e-05 -3.50184e-19 7.03272e-23 2.67382e-16 0 -5.601e-28 0 5e-05 1.46608e-10 
218 1 0.384457 0.017909 5.23695e-05 1.79759e-18 8.38248e-23 -1.37251e-15 0 -1.79692e-27 0 5e-05 1.46608e-10 
219 1 0.384944 0.0197441 5.30067e-05 8.71346e-19 6.08172e-22 -6.65297e-16 0 4.02708e-27 0 5e-05 1.46608e-10 
220 1 0.383696 0.018399 5.13731e-05 -1.3611e-20 7.39773e-21 1.49945e-20 0 0 0 5e-05 1.46608e-10 
222 1 0.384799 0.0201778 5.28171e-05 8.71351e-19 -1.71975e-20 -6.65297e-16 0 -1.12321e-25 0 5e-05 1.46608e-10 
224 1 0.384494 0.0174269 5.24173e-05 2.24031e-18 4.37447e-21 -1.71052e-15 0 -8.05347e-26 0 5e-05 1.46608e-10 
225 1 0.385146 0.0176526 5.3272e-05 1.79761e-18 2.33171e-21 -1.37251e-15 0 -1.31469e-25 0 5e-05 1.46608e-10 
226 1 0.384104 0.018398 5.1907e-05 1.79762e-18 -8.41462e-23 -1.37251e-15 0 -2.89572e-28 0 5e-05 1.46608e-10 
227 1 0.383688 0.0179861 0.000118273 1.12403e-19 -3.54824e-19 2.57628e-19 0 1.55096e-25 0 5e-05 1.46608e-10 
228 1 0.383956 0.018209 5.17134e-05 1.7976e-18 2.17631e-21 -1.37249e-15 0 1.097e-26 0 5e-05 1.46608e-10 
229 1 0.383699 0.0187044 5.13766e-05 -6.90791e-19 -1.00337e-21 5.27391e-16 0 0 0 5e-05 1.46608e-10 
230 1 0.384584 0.0183818 5.25351e-05 1.79761e-18 5.92817e-22 -1.37251e-15 0 2.79414e-26 0 5e-05 1.46608e-10 
232 1 0.384362 0.0190848 5.22448e-05 -3.50174e-19 -8.76169e-21 2.67381e-16 4.03897e-28 -7.36358e-27 0 5e-05 1.46608e-10 
233 1 0.384256 0.0171177 5.21052e-05 -8.59837e-22 7.24644e-21 5.53534e-19 0 2.58494e-26 0 5e-05 1.46608e-10 
234 1 0.383811 0.0178578 5.15218e-05 1.9879e-20 -1.58557e-20 -2.66077e-19 0 5.16988e-26 0 5e-05 1.46608e-10 
235 1 0.384124 0.0177325 5.19334e-05 1.29597e-19 -6.62325e-21 -9.94828e-17 -5.16988e-26 0 0 5e-05 1.46608e-10 
236 1 0.385085 0.017804 5.3192e-05 1.79757e-18 1.77665e-22 -1.37249e-15 0 2.20409e-27 0 5e-05 1.46608e-10 
237 1 0.384023 0.0180557 5.18008e-05 1.7976e-18 -1.06784e-22 -1.37249e-15 0 -1.53746e-27 0 5e-05 1.46608e-10 
239 1 0.38421 0.017017 0.000128507 1.02661e-18 -2.62556e-19 -6.53801e-19 7.75482e-26 1.9387e-26 2.06795e-25 5e-05 1.46608e-10 
240 1 0.384108 0.0176224 5.19122e-05 9.60481e-21 -2.54369e-21 -4.41963e-19 -1.03398e-25 5.16988e-26 0 5e-05 1.46608e-10 
241 1 0.384924 0.0176585 5.29803e-05 1.79759e-18 1.43998e-21 -1.37251e-15 0 -5.08801e-26 0 5e-05 1.46608e-10 
242 1 0.385388 0.0170488 5.35891e-05 1.45286e-18 1.41102e-20 -1.10924e-15 0 2.75195e-25 0 5e-05 1.46608e-10 
243 1 0.38396 0.0173391 5.17184e-05 2.24035e-18 3.09074e-22 -1.71052e-15 0 -5.91485e-28 0 5e-05 1.46608e-10 
244 1 0.383851 0.0186443 5.15749e-05 -3.50181e-19 2.87513e-22 2.67382e-16 0 1.48323e-27 0 5e-05 1.46608e-10 
246 1 0.385125 0.016896 5.32444e-05 2.24036e-18 -1.15284e-21 -1.71052e-15 0 5.92423e-26 0 5e-05 1.46608e-10 
248 1 0.383834 0.0184534 5.15531e-05 -3.50184e-19 -3.89922e-21 2.67381e-16 0 5.63728e-27 0 5e-05 1.46608e-10 
249 1 0.386067 0.0153632 5.44775e-05 1.45286e-18 -5.67843e-22 -1.10923e-15 0 1.80517e-26 0 5e-05 1.46608e-10 
250 1 0.383344 0.0176189 0.00786595 -3.29194e-05 0.0232013 -0.0089427 -7.36798e-12 -1.30811e-10 -1.97369e-11 5e-05 1.46608e-10 
251 1 0.384572 0.0174895 5.25197e-05 -8.44652e-15 2.36872e-15 1.18419e-15 6.42392e-20 -1.80324e-20 8.31317e-23 5e-05 1.46608e-10 
252 1 0.384889 0.0183235 9.50979e-05 3.44817e-19 1.26785e-20 -2.65995e-16 0 0 0 5e-05 1.46608e-10 
253 1 0.383571 0.018535 0.00522286 -7.98404e-15 2.53761e-14 1.31295e-13 7.75482e-26 0 0 5e-05 1.46608e-10 
254 1 0.384301 0.0172952 5.21647e-05 2.24032e-18 1.1316e-20 -1.71052e-15 0 -1.7444e-26 0 5e-05 1.46608e-10 
255 1 0.38386 0.0190057 5.15867e-05 -3.50173e-19 2.18291e-21 2.67381e-16 0 2.63293e-26 0 5e-05 1.46608e-10 
256 1 0.383997 0.0204249 5.17662e-05 8.71331e-19 -2.5133e-21 -6.65297e-16 0 1.27611e-27 0 5e-05 1.46608e-10 
257 1 0.385041 0.0180031 5.31334e-05 -5.2893e-19 -5.33397e-22 4.04648e-16 2.58494e-26 -2.58494e-26 0 5e-05 1.46608e-10 
258 1 0.384272 0.0170005 5.21271e-05 2.05133e-20 7.84195e-21 5.6818e-19 0 2.58494e-26 0 5e-05 1.46608e-10 
259 1 0.384253 0.0166268 5.21024e-05 -9.20532e-19 1.87257e-21 7.02844e-16 -4.03897e-28 -2.62211e-26 0 5e-05 1.46608e-10 
260 1 0.385186 0.0206932 5.33243e-05 -2.31191e-19 1.28381e-20 1.76521e-16 0 4.0161e-25 0 5e-05 1.46608e-10 
261 1 0.38441 0.0181414 5.23073e-05 -2.87728e-19 7.41336e-21 2.16029e-16 5.16988e-26 0 0 5e-05 1.46608e-10 
262 1 0.383808 0.0179475 9.56896e-05 2.59487e-20 -5.3167e-20 -2.66755e-19 0 6.46235e-26 0 5e-05 1.46608e-10 
263 1 0.385136 0.0154015 5.32589e-05 1.45285e-18 -6.06038e-21 -1.10923e-15 0 5.9582e-26 0 5e-05 1.46608e-10 
264 1 0.384094 0.0178206 8.84889e-05 1.30867e-19 -5.20398e-20 -9.94932e-17 -5.16988e-26 -5.16988e-26 2.06795e-25 5e-05 1.46608e-10 
265 1 0.383903 0.018864 5.16441e-05 2.81058e-18 3.69612e-24 -2.14593e-15 0 -5.4577e-30 0 5e-05 1.46608e-10 
266 1 0.384739 0.0172129 5.27388e-05 -9.20518e-19 1.47959e-21 7.02843e-16 0 -8.96376e-27 0 5e-05 1.46608e-10 
268 1 0.387501 0.0145625 5.63555e-05 -6.70123e-20 -2.47484e-21 5.11804e-17 0 9.08233e-26 0 5e-05 1.46608e-10 
269 1 0.384702 0.0182078 5.26903e-05 -2.82543e-19 -4.80422e-21 2.16637e-16 0 0 0 5e-05 1.46608e-10 
270 1 0.383998 0.0187387 5.17683e-05 -9.74235e-20 1.35308e-21 7.49404e-17 0 0 0 5e-05 1.46608e-10 
271 1 0.38456 0.0198571 5.2504e-05 8.71369e-19 -4.61745e-20 -6.65297e-16 0 -8.90352e-25 0 5e-05 1.46608e-10 
272 1 0.384323 0.0183113 0.000107218 8.40215e-20 1.68994e-20 -6.55734e-17 0 0 0 5e-05 1.46608e-10 
273 1 0.384247 0.0174825 5.20942e-05 -9.20517e-19 1.80384e-21 7.02843e-16 0 3.79037e-26 0 5e-05 1.46608e-10 
274 1 0.38379 0.0183625 5.14951e-05 1.79758e-18 3.8996e-23 -1.37251e-15 0 2.8304e-27 0 5e-05 1.46608e-10 
275 1 0.384335 0.0170692 8.94554e-05 2.66758e-20 2.15846e-20 5.62714e-19 5.16988e-26 -7.75482e-26 0 5e-05 1.46608e-10 
276 1 0.384997 0.0161341 5.30769e-05 2.24031e-18 -7.43058e-20 -1.71052e-15 -4.03897e-28 2.78143e-25 0 5e-05 1.46608e-10 
278 1 0.384825 0.018259 5.28512e-05 3.49849e-19 -7.95906e-22 -2.65994e-16 0 0 0 5e-05 1.46608e-10 
279 1 0.384252 0.0210736 5.21011e-05 2.00509e-18 4.26518e-21 -1.5309e-15 0 -2.78768e-26 0 5e-05 1.46608e-10 
280 1 0.383599 0.0190252 0.000120033 -7.01232e-21 3.2402e-22 -2.51689e-22 0 3.23117e-27 0 5e-05 1.46608e-10 
281 1 0.384805 0.0186896 5.28247e-05 1.79756e-18 4.46361e-21 -1.37249e-15 0 3.10886e-26 0 5e-05 1.46608e-10 
283 1 0.383797 0.0177162 0.000219802 -2.95078e-19 -1.12122e-19 -1.96964e-21 0 9.04729e-26 2.13258e-25 5e-05 1.46608e-10 
284 1 0.383576 0.0182495 0.000150621 1.30593e-20 6.96421e-21 -4.44982e-22 0 5.16988e-26 0 5e-05 1.46608e-10 
285 1 0.384577 0.0172681 5.25269e-05 2.24033e-18 1.0825e-20 -1.71051e-15 0 -4.93519e-26 0 5e-05 1.46608e-10 
286 1 0.383757 0.0185573 5.14518e-05 -3.50215e-19 4.52302e-22 2.67382e-16 0 3.01483e-27 0 5e-05 1.46608e-10 
287 1 0.384957 0.0177572 5.30246e-05 1.79764e-18 1.67202e-22 -1.37251e-15 0 7.89782e-26 0 5e-05 1.46608e-10 
288 1 0.383954 0.0183132 5.17102e-05 1.79756e-18 7.17245e-22 -1.37249e-15 0 1.13917e-25 0 5e-05 1.46608e-10 
289 1 0.384537 0.0180461 0.000128511 -4.20989e-20 2.60864e-23 2.16339e-16 0 3.23117e-27 0 5e-05 1.46608e-10 
290 1 0.384346 0.0178493 5.22233e-05 1.79758e-18 -8.10082e-22 -1.37249e-15 0 1.71551e-26 0 5e-05 1.46608e-10 
291 1 0.383806 0.0207438 5.15163e-05 2.00506e-18 -3.66114e-22 -1.5309e-15 0 2.27375e-26 0 5e-05 1.46608e-10 
292 1 0.384812 0.0169702 5.28343e-05 2.24031e-18 -2.25558e-23 -1.71051e-15 0 6.52609e-27 0 5e-05 1.46608e-10 
293 1 0.383927 0.0199158 5.1675e-05 2.81055e-18 2.02894e-21 -2.14593e-15 0 4.05388e-27 0 5e-05 1.46608e-10 
294 1 0.383957 0.0186367 5.17142e-05 2.81058e-18 5.20637e-21 -2.14593e-15 0 7.83737e-26 0 5e-05 1.46608e-10 
295 1 0.384861 0.0185948 5.28981e-05 1.79761e-18 -2.43484e-21 -1.37249e-15 0 4.12411e-26 0 5e-05 1.46608e-10 
296 1 0.385006 0.0184002 5.30883e-05 1.79756e-18 -7.00779e-22 -1.37249e-15 0 1.04144e-26 0 5e-05 1.46608e-10 
297 1 0.383629 0.01881 5.12843e-05 -6.89599e-19 3.45597e-21 5.27383e-16 3.23117e-27 0 0 5e-05 1.46608e-10 
298 1 0.384024 0.0176603 8.98669e-05 1.05372e-20 2.23763e-20 -4.38883e-19 1.16322e-25 -5.16988e-26 0 5e-05 1.46608e-10 
299 1 0.383643 0.018743 0.000124216 -6.99517e-19 -3.48881e-21 5.2739e-16 -1.29247e-26 -5.16988e-26 0 5e-05 1.46608e-10 