ITEM: TIMESTEP
18600000
ITEM: NUMBER OF ATOMS
287
ITEM: BOX BOUNDS ff ff ff
-0.02 0.43
-0.02 0.06
-0.02 0.07
ITEM: ATOMS id type x y z vx vy vz fx fy fz radius mass 
1 1 0.121276 0.0162796 0.0078738 0.00633011 0.000236658 -0.000685307 -2.14266e-09 -9.47237e-10 1.21794e-09 5e-05 1.46608e-10 
2 1 0.121874 0.0180698 0.00706625 0.00569578 0.000484169 -0.000355558 3.94987e-11 2.46937e-12 1.79331e-12 5e-05 1.46608e-10 
3 1 0.115051 0.015959 0.00846071 0.00577312 -0.000351571 0.00080353 -3.98406e-11 -9.59907e-11 9.9642e-11 5e-05 1.46608e-10 
4 1 0.121584 0.0176288 0.00717849 0.00565596 0.000498063 -0.000355992 5.8619e-11 2.01955e-11 1.49212e-11 5e-05 1.46608e-10 
5 1 0.121133 0.0161317 0.00805211 0.00625458 0.000121493 -0.000556119 -3.50031e-10 8.75822e-11 -1.30838e-10 5e-05 1.46608e-10 
6 1 0.127266 0.016584 0.00760623 0.0056047 -0.000372564 0.0008647 -2.02097e-10 5.64727e-10 -3.30509e-10 5e-05 1.46608e-10 
7 1 0.121311 0.0167545 0.00743468 0.00573458 0.000478764 -0.000162545 -7.44791e-11 5.3334e-11 -1.82563e-10 5e-05 1.46608e-10 
8 1 0.121026 0.0158135 0.008422 0.00616263 0.000184923 -0.000619062 -1.68619e-10 -1.47652e-10 2.01338e-10 5e-05 1.46608e-10 
9 1 0.12752 0.0177273 0.00708173 0.00545582 -0.000807217 0.000558998 -2.01211e-10 1.33998e-10 -9.38037e-11 5e-05 1.46608e-10 
10 1 0.121253 0.0165185 0.00760957 0.00589956 0.000150224 -0.000659923 4.14389e-10 -8.68064e-11 -1.49911e-10 5e-05 1.46608e-10 
11 1 0.121832 0.0178763 0.00711184 0.00563375 0.00050143 -0.000356925 -4.77637e-13 -2.62623e-11 3.09264e-11 5e-05 1.46608e-10 
12 1 0.115237 0.0165651 0.00784218 0.00579911 -0.000360231 0.000811882 3.78989e-10 -4.22442e-11 1.86247e-11 5e-05 1.46608e-10 
13 1 0.121112 0.0160679 0.00812606 0.0062341 0.000127413 -0.000558155 4.65406e-12 -4.06185e-12 -4.10404e-11 5e-05 1.46608e-10 
14 1 0.114962 0.0156456 0.00867151 0.00576013 -0.000368839 0.0008208 -1.0711e-11 -1.06175e-11 8.91518e-12 5e-05 1.46608e-10 
15 1 0.121466 0.0170557 0.00731326 0.00578776 0.000404663 -0.000438414 2.87776e-11 -7.1983e-11 -1.45102e-10 5e-05 1.46608e-10 
16 1 0.11494 0.0155732 0.00873689 0.00575849 -0.000373115 0.000824591 -1.14803e-13 -1.31463e-12 1.56093e-12 5e-05 1.46608e-10 
17 1 0.121235 0.016451 0.00768106 0.00606165 0.000172634 -0.000594638 -3.07072e-10 -3.3127e-10 9.42998e-11 5e-05 1.46608e-10 
18 1 0.127403 0.0171644 0.00723959 0.00553922 -0.000795235 0.000428104 -7.19399e-11 -1.11851e-10 1.4753e-10 5e-05 1.46608e-10 
19 1 0.12109 0.0160043 0.00820012 0.00622691 0.00012622 -0.000553308 -7.27895e-11 1.02137e-10 -1.69531e-10 5e-05 1.46608e-10 
21 1 0.121255 0.0162159 0.00794785 0.00632847 0.000146186 -0.00058451 -2.75907e-10 3.39372e-10 -2.98537e-10 5e-05 1.46608e-10 
22 1 0.121351 0.0169312 0.00735142 0.0057264 0.000454359 -0.000246349 -1.76306e-10 -1.05551e-10 -1.12676e-10 5e-05 1.46608e-10 
23 1 0.115376 0.0167431 0.0077005 0.00574818 -0.000115425 0.000637903 1.87425e-10 1.08444e-11 -1.43576e-10 5e-05 1.46608e-10 
24 1 0.127461 0.0174402 0.0071459 0.00537376 -0.000845717 0.000262662 -2.68329e-10 -1.12696e-10 1.03909e-11 5e-05 1.46608e-10 
25 1 0.121294 0.0166781 0.00749676 0.00572808 0.000316739 -0.000365361 1.56782e-10 3.36583e-11 -2.54165e-10 5e-05 1.46608e-10 
26 1 0.127346 0.0169145 0.00739546 0.00528327 -0.000766293 0.000407283 1.29143e-09 -7.00997e-10 4.07597e-10 5e-05 1.46608e-10 
27 1 0.115445 0.0172534 0.00738374 0.00546655 -0.000757539 0.000179918 -3.34548e-10 8.83177e-11 4.86315e-11 5e-05 1.46608e-10 
28 1 0.121565 0.0175333 0.00720093 0.00564984 0.000495629 -0.000355098 1.1627e-11 -8.64493e-11 2.87388e-11 5e-05 1.46608e-10 
29 1 0.121069 0.0159452 0.00827794 0.00617602 0.000142633 -0.000560847 1.02217e-10 -3.57331e-11 -9.48466e-11 5e-05 1.46608e-10 
30 1 0.121525 0.017342 0.00724591 0.00556496 0.000480235 -0.00034673 1.74614e-10 -3.76027e-11 -1.35612e-11 5e-05 1.46608e-10 
31 1 0.121331 0.0168392 0.00738517 0.00570217 0.000502431 -0.000132265 9.25445e-12 5.71345e-11 -8.70041e-12 5e-05 1.46608e-10 
32 1 0.121445 0.0169599 0.00733579 0.00574737 0.000383781 -0.000337694 -1.07788e-10 -8.03797e-11 -3.01671e-11 5e-05 1.46608e-10 
33 1 0.127286 0.0166651 0.00755106 0.00553986 -0.000711971 0.000397605 -3.12082e-10 -3.70545e-10 -2.19208e-10 5e-05 1.46608e-10 
34 1 0.121218 0.0163868 0.00775577 0.00599731 0.000166105 -0.000576484 1.7868e-09 -6.34862e-10 3.37762e-10 5e-05 1.46608e-10 
35 1 0.121425 0.0168919 0.00740619 0.005736 0.00049978 -0.000220856 -1.34149e-10 1.96354e-10 1.55783e-10 5e-05 1.46608e-10 
36 1 0.127558 0.0179208 0.00707504 0.00540333 -0.000748687 0.000918813 1.1113e-10 7.24907e-11 1.97607e-11 5e-05 1.46608e-10 
37 1 0.121389 0.0167012 0.00746838 0.00575163 0.000489234 -0.000134316 -8.77992e-11 1.3411e-10 3.50252e-10 5e-05 1.46608e-10 
38 1 0.121601 0.0172774 0.00725728 0.00557028 0.00051451 -0.000354856 -3.22979e-11 -1.04921e-10 1.25992e-11 5e-05 1.46608e-10 
39 1 0.127481 0.0175357 0.00712376 0.00539744 -0.000854486 0.000267449 -1.77228e-11 -1.74323e-10 -1.09089e-11 5e-05 1.46608e-10 
41 1 0.121176 0.016259 0.00790392 0.00627555 0.000129723 -0.000562087 7.22214e-11 2.38493e-10 -3.34992e-10 5e-05 1.46608e-10 
42 1 0.121371 0.0170254 0.00732423 0.00577638 0.000413793 -0.000366497 -1.33064e-10 -1.70706e-10 -1.60267e-10 5e-05 1.46608e-10 
44 1 0.12162 0.0173729 0.00723484 0.00563319 0.000506749 -0.000356866 -1.47749e-11 -1.30718e-10 3.55554e-11 5e-05 1.46608e-10 
45 1 0.127306 0.0167482 0.00749921 0.00565226 -0.000748574 0.000394069 5.08989e-10 -1.02847e-10 2.53854e-11 5e-05 1.46608e-10 
46 1 0.127384 0.017081 0.00729158 0.00546678 -0.000805825 0.000432257 4.34971e-10 -4.94207e-10 1.34604e-10 5e-05 1.46608e-10 
47 1 0.121198 0.0163226 0.00782987 0.0063015 0.00014429 -0.000576628 -8.25823e-10 -1.57995e-10 -9.84682e-11 5e-05 1.46608e-10 
48 1 0.121411 0.017216 0.00727936 0.00574775 0.000405367 -0.000340585 7.29625e-11 -2.04838e-10 6.62431e-11 5e-05 1.46608e-10 
49 1 0.127365 0.0169978 0.0073435 0.00544391 -0.000839749 0.000448097 1.38308e-09 -5.44443e-11 2.16698e-10 5e-05 1.46608e-10 
50 1 0.12147 0.0175023 0.00721205 0.00560904 0.000483196 -0.000350694 -1.80343e-10 -2.68062e-10 3.69986e-11 5e-05 1.46608e-10 
51 1 0.12145 0.0174068 0.00723449 0.00555768 0.000475553 -0.000347004 -2.51162e-11 -2.94959e-10 4.74842e-11 5e-05 1.46608e-10 
52 1 0.115216 0.0164926 0.00790752 0.0057972 -0.000356292 0.000816495 1.74365e-10 8.97987e-11 -5.09827e-12 5e-05 1.46608e-10 
53 1 0.127422 0.0172491 0.00719017 0.00539988 -0.000868202 0.000231016 -9.20748e-11 -5.50554e-11 -1.99402e-10 5e-05 1.46608e-10 
54 1 0.121233 0.0161522 0.0080219 0.00631454 0.00013959 -0.000578298 -4.57156e-11 1.76257e-10 -1.89549e-10 5e-05 1.46608e-10 
55 1 0.115005 0.0157906 0.00854076 0.00576826 -0.000358089 0.000812458 -1.69396e-11 -5.17135e-11 4.33229e-11 5e-05 1.46608e-10 
56 1 0.121401 0.0167984 0.00744485 0.00571173 0.000502922 -0.000139908 -1.55282e-10 2.66722e-10 2.04498e-10 5e-05 1.46608e-10 
57 1 0.127326 0.0168313 0.00744736 0.00564429 -0.000779006 0.000414587 -1.41295e-10 -1.98447e-11 4.93519e-11 5e-05 1.46608e-10 
59 1 0.121522 0.0168981 0.00735571 0.00559981 0.000529742 -0.000160641 -1.60618e-10 -8.26586e-11 3.25507e-11 5e-05 1.46608e-10 
60 1 0.121541 0.0169915 0.00732574 0.00580167 0.000402554 -0.000469067 3.00999e-11 -1.54166e-10 -3.85714e-10 5e-05 1.46608e-10 
61 1 0.121155 0.0161953 0.00797797 0.00626288 0.000118877 -0.000550408 9.86169e-11 3.49483e-10 -3.3451e-10 5e-05 1.46608e-10 
62 1 0.12164 0.0174683 0.0072124 0.00565995 0.000503352 -0.000358057 -4.36234e-11 -1.05938e-10 3.32666e-11 5e-05 1.46608e-10 
63 1 0.121605 0.0177296 0.0072559 0.00562761 0.000489865 -0.000354082 1.15572e-10 -1.21358e-10 -2.054e-11 5e-05 1.46608e-10 
64 1 0.127442 0.0173446 0.00716803 0.00540683 -0.000856441 0.000252322 -2.71202e-10 -7.29774e-11 -2.56101e-10 5e-05 1.46608e-10 
65 1 0.115518 0.0175542 0.0072033 0.00538675 -0.000822731 0.000297251 -2.46655e-10 7.64569e-11 -2.73944e-10 5e-05 1.46608e-10 
66 1 0.115594 0.0174607 0.00724361 0.00548387 -0.000820198 0.000209016 -7.94513e-11 8.09401e-11 1.07915e-12 5e-05 1.46608e-10 
67 1 0.1218 0.0177844 0.00713402 0.00563608 0.000508276 -0.000357061 7.05311e-11 -2.75188e-11 -3.33288e-12 5e-05 1.46608e-10 
68 1 0.121679 0.01766 0.00716737 0.0056531 0.000506163 -0.000357192 5.41109e-11 5.05906e-11 -2.47428e-11 5e-05 1.46608e-10 
69 1 0.121333 0.0164719 0.00765063 0.00475421 -0.00124016 -0.0021863 -2.4209e-11 -2.0452e-10 -1.1453e-09 5e-05 1.46608e-10 
70 1 0.1275 0.0176313 0.00710162 0.00542237 -0.000856514 0.000264093 7.90753e-11 -8.04859e-12 -2.84101e-10 5e-05 1.46608e-10 
71 1 0.114983 0.0157181 0.00860614 0.00576439 -0.00036372 0.000816419 -1.86831e-11 -2.53228e-11 2.15462e-11 5e-05 1.46608e-10 
72 1 0.12166 0.0175639 0.00718995 0.0056673 0.000506836 -0.000358227 -2.2487e-11 7.72797e-11 -1.34313e-11 5e-05 1.46608e-10 
73 1 0.121274 0.0165952 0.00754898 0.00576085 0.000181945 -0.000621065 7.38815e-10 8.19946e-11 1.0866e-10 5e-05 1.46608e-10 
74 1 0.121486 0.017151 0.00729081 0.00573361 0.000402777 -0.000341791 4.35024e-10 -1.40003e-10 5.08729e-11 5e-05 1.46608e-10 
76 1 0.115512 0.0172748 0.00726556 0.0054447 -0.000824789 0.0002074 -1.96973e-10 -2.37463e-10 2.15556e-10 5e-05 1.46608e-10 
77 1 0.121712 0.0181825 0.00704778 0.00568941 0.000480277 -0.000353589 -2.75843e-10 1.26111e-10 -2.25109e-11 5e-05 1.46608e-10 
78 1 0.115063 0.0159854 0.00836507 0.00577306 -0.000352678 0.000805442 -4.4917e-11 -9.02863e-11 9.36425e-11 5e-05 1.46608e-10 
79 1 0.115572 0.0173255 0.00733274 0.00541235 -0.000832256 0.000241547 4.5314e-11 -5.81016e-11 8.06027e-11 5e-05 1.46608e-10 
80 1 0.121509 0.0176932 0.00716718 0.00564904 0.000492526 -0.000357399 2.47982e-11 -3.1816e-11 5.20587e-12 5e-05 1.46608e-10 
81 1 0.115356 0.0170226 0.00755248 0.00553549 -0.000495037 0.000257739 -4.15933e-11 -9.54503e-11 1.03103e-10 5e-05 1.46608e-10 
82 1 0.115302 0.0167826 0.00764592 0.00551098 -0.00034942 0.000778244 -3.94438e-11 -6.64088e-11 2.27948e-11 5e-05 1.46608e-10 
83 1 0.115412 0.0165497 0.00787098 0.0059782 -0.000204195 0.000686855 4.38738e-11 -1.78542e-10 1.59452e-10 5e-05 1.46608e-10 
84 1 0.127539 0.0178234 0.00706207 0.00543075 -0.000741241 0.000910058 -7.88434e-11 -1.15978e-10 -9.4609e-11 5e-05 1.46608e-10 
85 1 0.115181 0.0160839 0.00828345 0.00577748 -0.00035762 0.000811384 -8.66437e-11 -1.09503e-10 1.19659e-10 5e-05 1.46608e-10 
86 1 0.121545 0.0174378 0.00722339 0.00552845 0.000406758 -0.00032971 5.29611e-11 -2.03829e-10 5.41251e-11 5e-05 1.46608e-10 
87 1 0.12149 0.0168161 0.00740325 0.00569069 0.000489335 -0.000148593 -3.3156e-10 9.90262e-11 1.6196e-10 5e-05 1.46608e-10 
88 1 0.121549 0.0178797 0.00720909 0.00564113 0.000489321 -0.000355838 8.03039e-11 -2.27602e-10 1.548e-11 5e-05 1.46608e-10 
89 1 0.121525 0.0177822 0.00720977 0.00564465 0.000496356 -0.000359658 1.8652e-10 -5.64769e-11 5.95816e-11 5e-05 1.46608e-10 
90 1 0.121927 0.0179066 0.0071009 0.0056417 0.000472146 -0.000350518 3.97484e-11 -1.61963e-10 3.75327e-11 5e-05 1.46608e-10 
91 1 0.11526 0.0166376 0.00777691 0.00580057 -0.000378658 0.000810647 2.26654e-10 -2.80932e-11 2.57728e-11 5e-05 1.46608e-10 
92 1 0.12174 0.0178621 0.00715319 0.00563763 0.000503265 -0.00035528 3.54808e-12 -6.27752e-11 -5.09587e-12 5e-05 1.46608e-10 
93 1 0.121574 0.0180094 0.00709285 0.00565322 0.000502112 -0.000355797 3.95638e-11 9.57305e-11 -2.01124e-11 5e-05 1.46608e-10 
94 1 0.121799 0.0181349 0.00705476 0.00568207 0.000457978 -0.0003482 -3.99252e-10 9.63594e-11 1.96074e-13 5e-05 1.46608e-10 
95 1 0.121648 0.0178458 0.00720457 0.00564821 0.000507324 -0.000356307 7.40236e-11 -7.78575e-11 -2.38984e-11 5e-05 1.46608e-10 
96 1 0.12176 0.017944 0.00709963 0.00564646 0.00050283 -0.000357811 6.14333e-11 4.37173e-11 3.0423e-11 5e-05 1.46608e-10 
97 1 0.115172 0.0163478 0.00803819 0.00577706 -0.000366253 0.000818829 1.17798e-10 2.06434e-10 -1.34636e-11 5e-05 1.46608e-10 
98 1 0.121554 0.017914 0.00711529 0.00564965 0.000497717 -0.000355533 1.49616e-11 3.73541e-11 5.26087e-12 5e-05 1.46608e-10 
99 1 0.115617 0.0175449 0.007195 0.00539948 -0.000748598 0.000269867 -8.35461e-11 -2.84587e-10 1.30275e-11 5e-05 1.46608e-10 
100 1 0.121735 0.0174988 0.00720142 0.00566338 0.000498087 -0.000356684 -1.01059e-10 1.35881e-10 -2.6214e-11 5e-05 1.46608e-10 
101 1 0.115354 0.0169439 0.00761411 0.00555769 -0.000390995 0.000385747 7.06998e-11 -1.26139e-12 2.15821e-10 5e-05 1.46608e-10 
102 1 0.0643568 0.0187248 0.00531097 4.3281e-15 1.04856e-14 8.29586e-14 1.08689e-21 -1.21751e-22 -4.57017e-23 5e-05 1.46608e-10 
103 1 0.24257 0.0191927 0.00520306 1.6328e-22 -1.27651e-22 1.23839e-22 0 0 0 5e-05 1.46608e-10 
104 1 0.115532 0.016986 0.00747659 0.00544345 -0.000387508 0.00081649 1.56067e-10 -2.51207e-12 -1.40786e-10 5e-05 1.46608e-10 
105 1 0.115129 0.0162028 0.00816894 0.00576872 -0.000362461 0.000818403 2.99818e-11 -6.86064e-12 -1.69856e-11 5e-05 1.46608e-10 
106 1 0.115629 0.0170162 0.0074566 0.00529344 -0.000384474 0.000798616 -3.4373e-10 -1.57794e-10 9.52312e-11 5e-05 1.46608e-10 
107 1 0.115085 0.0160579 0.00829971 0.00577607 -0.000355444 0.000809567 -2.9684e-11 -9.25638e-11 6.6045e-11 5e-05 1.46608e-10 
108 1 0.12137 0.0166161 0.00751812 0.00589545 0.000527735 -0.000134949 2.11897e-10 1.45707e-10 -6.37406e-11 5e-05 1.46608e-10 
109 1 0.121431 0.0173114 0.00725694 0.00563059 0.000444344 -0.000340284 3.95002e-11 -3.32882e-10 5.7943e-11 5e-05 1.46608e-10 
110 1 0.12184 0.0183276 0.00700942 0.00604242 0.000382827 -0.000347487 -2.6323e-10 -2.48149e-11 3.74649e-11 5e-05 1.46608e-10 
111 1 0.12171 0.0183498 0.0070913 0.00603626 0.000423144 -0.000357451 3.42019e-10 3.02215e-10 -7.196e-11 5e-05 1.46608e-10 
112 1 0.115194 0.0164224 0.0079754 0.00578978 -0.000361282 0.000819131 1.79757e-10 8.29368e-11 -5.74671e-11 5e-05 1.46608e-10 
113 1 0.115794 0.0177868 0.00711362 0.00548508 -0.000878815 0.000278201 -2.6084e-10 -4.78913e-11 -3.12481e-11 5e-05 1.46608e-10 
114 1 0.115804 0.0175724 0.00717594 0.0054381 -0.00086981 0.000280505 -6.84661e-11 1.10744e-10 1.15506e-10 5e-05 1.46608e-10 
115 1 0.121506 0.0172465 0.00726835 0.00565573 0.000473012 -0.000351888 1.8294e-10 -2.47236e-10 2.71512e-11 5e-05 1.46608e-10 
116 1 0.121352 0.0165379 0.00757788 0.00571342 -3.39616e-05 -0.000871877 -9.61698e-11 -3.25759e-10 -9.43497e-10 5e-05 1.46608e-10 
117 1 0.121212 0.0160885 0.00809597 0.00624201 0.000134479 -0.000564972 -1.28877e-10 1.44722e-10 -1.2756e-10 5e-05 1.46608e-10 
118 1 0.115035 0.015925 0.00855344 0.00577966 -0.000342476 0.000804819 -1.56705e-11 -1.50275e-10 9.07505e-11 5e-05 1.46608e-10 
119 1 0.121562 0.0170866 0.00730238 0.00573407 0.000439294 -0.000420415 -2.39927e-10 -8.22842e-11 -3.28417e-10 5e-05 1.46608e-10 
120 1 0.121047 0.0158771 0.00834795 0.00616348 0.000154424 -0.000579499 -4.5195e-12 -1.67136e-11 -6.83861e-12 5e-05 1.46608e-10 
121 1 0.121004 0.0157498 0.00849605 0.00615112 0.000218382 -0.000656443 7.01101e-11 -1.8113e-11 1.10547e-11 5e-05 1.46608e-10 
122 1 0.121752 0.0183733 0.00700288 0.00607657 0.000440929 -0.000363685 -7.95609e-12 2.43986e-11 -4.744e-11 5e-05 1.46608e-10 
123 1 0.115224 0.0162291 0.0081525 0.00575517 -0.000389857 0.000834496 -7.9752e-11 -9.49569e-11 1.95914e-11 5e-05 1.46608e-10 
124 1 0.121581 0.0178197 0.00713546 0.00565034 0.000497101 -0.000356099 1.70165e-11 3.01753e-12 -2.89183e-11 5e-05 1.46608e-10 
125 1 0.121191 0.0160249 0.00817 0.00621851 0.000132703 -0.000561774 2.27559e-10 7.53277e-11 -1.09601e-10 5e-05 1.46608e-10 
126 1 0.121391 0.0171214 0.00730481 0.00577292 0.000402892 -0.000381685 3.50477e-11 -1.03962e-10 5.01885e-11 5e-05 1.46608e-10 
127 1 0.11515 0.0162753 0.00810357 0.00576749 -0.000364311 0.000822038 1.27739e-10 9.52099e-11 -1.34938e-11 5e-05 1.46608e-10 
128 1 0.121489 0.0175978 0.00718962 0.00564636 0.000488526 -0.000353844 3.64202e-11 -1.38365e-10 2.54265e-11 5e-05 1.46608e-10 
129 1 0.121617 0.017967 0.00717245 0.00564744 0.00049098 -0.00035569 -4.04941e-11 3.8127e-11 5.02481e-12 5e-05 1.46608e-10 
130 1 0.115398 0.0168105 0.00762802 0.00529845 -0.000347672 0.000765427 -9.96692e-11 5.6832e-11 5.71931e-12 5e-05 1.46608e-10 
131 1 0.115609 0.0176432 0.00717872 0.0054126 -0.000737831 0.000334703 -1.31119e-10 9.09513e-11 -9.96795e-11 5e-05 1.46608e-10 
132 1 0.121603 0.0177245 0.00715606 0.00565083 0.00049953 -0.000356178 2.48559e-11 1.24019e-11 -2.01435e-11 5e-05 1.46608e-10 
133 1 0.121428 0.016491 0.00762529 0.00562082 0.000261411 -0.000459963 -2.57654e-10 3.94369e-10 -4.4137e-10 5e-05 1.46608e-10 
134 1 0.121581 0.0171819 0.00727971 0.00561878 0.000490394 -0.000357689 -3.04275e-10 -4.3411e-11 -5.30735e-11 5e-05 1.46608e-10 
135 1 0.121169 0.0159612 0.00824405 0.00622555 0.000108023 -0.000533289 -8.43256e-11 3.15718e-10 -3.45504e-10 5e-05 1.46608e-10 
136 1 0.115159 0.0160115 0.00834884 0.005778 -0.000353392 0.000807922 -1.00437e-10 -1.16344e-10 9.16472e-11 5e-05 1.46608e-10 
137 1 0.121634 0.0182956 0.00702554 0.00606214 0.00043211 -0.000362454 -8.86242e-11 9.91636e-11 4.62046e-12 5e-05 1.46608e-10 
138 1 0.121314 0.0164079 0.00772498 0.00610503 0.000156685 -0.000571108 -1.64779e-10 4.29607e-10 -2.84614e-10 5e-05 1.46608e-10 
140 1 0.12182 0.0182303 0.00703231 0.00606016 0.00041407 -0.000353799 -8.63123e-11 2.7054e-10 -6.47582e-11 5e-05 1.46608e-10 
141 1 0.115202 0.0161564 0.00821808 0.00577585 -0.000360072 0.000813527 -1.00646e-11 -9.13567e-11 1.01299e-10 5e-05 1.46608e-10 
142 1 0.115494 0.0168404 0.00760829 0.00537849 -0.000390214 0.000807817 -2.43386e-10 2.95234e-10 -2.91602e-10 5e-05 1.46608e-10 
143 1 0.115107 0.0161303 0.00823432 0.00577417 -0.000359348 0.000812994 -3.18823e-11 -4.98802e-11 4.53927e-11 5e-05 1.46608e-10 
144 1 0.115625 0.0173834 0.00718847 0.00539311 -0.000857885 0.000235283 3.93519e-11 -9.85091e-11 1.21962e-10 5e-05 1.46608e-10 
146 1 0.115532 0.0166525 0.00778566 0.00550771 -0.0003796 0.000810716 9.86262e-11 1.24593e-11 -9.7515e-12 5e-05 1.46608e-10 
147 1 0.115137 0.015939 0.00841423 0.00577736 -0.000351144 0.000805642 -7.58416e-11 -9.82704e-11 8.13843e-11 5e-05 1.46608e-10 
148 1 0.11536 0.0170057 0.00745398 0.00538266 -0.000714719 0.000291552 -4.63009e-12 -1.11892e-10 1.85498e-11 5e-05 1.46608e-10 
149 1 0.121613 0.0182003 0.00704798 0.00568326 0.000507897 -0.000359676 -1.31269e-10 2.27254e-10 -3.66549e-11 5e-05 1.46608e-10 
150 1 0.115312 0.0165194 0.00789069 0.00586448 -0.000288432 0.000753859 1.8315e-10 -3.24631e-10 2.90066e-10 5e-05 1.46608e-10 
151 1 0.115813 0.0174398 0.00714062 0.00537086 -0.000891452 0.000233603 8.33545e-11 1.31379e-10 1.85368e-10 5e-05 1.46608e-10 
153 1 0.115269 0.0163743 0.00802159 0.00587426 -0.000311094 0.000777925 1.13936e-10 -5.54836e-11 4.07239e-11 5e-05 1.46608e-10 
154 1 0.115456 0.0170297 0.00742968 0.00545088 -0.000394031 0.000817645 -8.22799e-11 -2.57155e-10 1.26679e-10 5e-05 1.46608e-10 
155 1 0.115531 0.0173569 0.00721136 0.00547377 -0.000842984 0.000221321 -2.67881e-10 -2.80952e-10 9.11062e-11 5e-05 1.46608e-10 
156 1 0.115436 0.0169569 0.00749555 0.00538602 -0.000310772 0.000728845 6.92042e-11 -8.29836e-11 1.30016e-10 5e-05 1.46608e-10 
157 1 0.0219312 0.0187687 0.00551176 -3.83322e-14 8.16639e-14 2.95889e-13 -1.29035e-21 -7.56405e-22 4.63221e-23 5e-05 1.46608e-10 
158 1 0.115551 0.0170609 0.00741301 0.00532827 -0.000730683 0.000378779 -2.93384e-10 -2.24748e-10 -2.24883e-10 5e-05 1.46608e-10 
159 1 0.121685 0.0177789 0.00714019 0.00565423 0.000516184 -0.000359283 5.8906e-11 -5.1629e-11 -1.4198e-11 5e-05 1.46608e-10 
160 1 0.115435 0.0173309 0.00723391 0.00544846 -0.000828674 0.000207937 1.83573e-10 1.17275e-10 -8.16358e-11 5e-05 1.46608e-10 
162 1 0.115474 0.0171109 0.00737394 0.00549542 -0.00087984 0.000209092 9.03493e-11 3.05644e-10 -3.88789e-10 5e-05 1.46608e-10 
164 1 0.115605 0.0177247 0.00709502 0.00544738 -0.000758446 0.000300019 -1.06634e-10 1.27916e-10 1.55434e-10 5e-05 1.46608e-10 
165 1 0.115718 0.0174116 0.00716582 0.00539218 -0.000861179 0.000265888 -4.57202e-11 4.1567e-11 -9.92687e-11 5e-05 1.46608e-10 
166 1 0.121391 0.0163613 0.00777293 0.00592118 0.000127887 -0.000538336 8.11141e-10 -2.30652e-10 1.8928e-10 5e-05 1.46608e-10 
167 1 0.11529 0.0164469 0.00795607 0.00586608 -0.000313619 0.000780658 2.54083e-10 5.79541e-11 6.79776e-12 5e-05 1.46608e-10 
168 1 0.115648 0.017089 0.00739071 0.00539729 -0.000399504 0.000814452 -1.05558e-10 -9.82708e-11 1.28054e-10 5e-05 1.46608e-10 
169 1 0.115773 0.0176895 0.00710293 0.0054176 -0.000855649 0.000265488 -3.9775e-11 1.82799e-10 2.07388e-11 5e-05 1.46608e-10 
170 1 0.115685 0.0172464 0.00727354 0.00539926 -0.000875806 0.000237984 9.05413e-11 -1.26808e-11 4.00582e-11 5e-05 1.46608e-10 
171 1 0.12141 0.0164254 0.00769857 0.00577819 0.000151721 -0.000551528 4.73792e-11 2.85566e-10 -2.95982e-10 5e-05 1.46608e-10 
172 1 0.115847 0.0176227 0.00710155 0.00543076 -0.00088655 0.000276446 -2.77027e-10 1.21589e-10 8.2723e-12 5e-05 1.46608e-10 
173 1 0.12178 0.0180395 0.00707719 0.00567164 0.000516776 -0.000362853 -8.06511e-11 -1.40337e-10 4.19537e-11 5e-05 1.46608e-10 
174 1 0.115589 0.0172199 0.00729786 0.00540446 -0.000843575 0.00024386 1.71444e-11 -2.57186e-10 -1.26503e-10 5e-05 1.46608e-10 
175 1 0.109428 0.0173428 0.00738751 0.00551492 0.00046594 -0.000572358 -4.21747e-11 -4.92976e-11 2.42612e-11 5e-05 1.46608e-10 
176 1 0.115416 0.0168833 0.00756209 0.00538711 -0.000291424 0.000723964 1.16415e-10 -9.66108e-11 2.27779e-10 5e-05 1.46608e-10 
177 1 0.115472 0.0174995 0.00713326 0.00544316 -0.000796716 0.000230232 3.27767e-11 1.85889e-11 -3.47192e-10 5e-05 1.46608e-10 
178 1 0.115814 0.0178841 0.00712431 0.00550217 -0.000877267 0.000273509 -1.10111e-10 -1.76232e-11 -2.00639e-10 5e-05 1.46608e-10 
179 1 0.115753 0.0175922 0.00709224 0.00541876 -0.000854546 0.000284578 3.80384e-11 3.69719e-11 2.74734e-11 5e-05 1.46608e-10 
181 1 0.115397 0.0171671 0.0073422 0.00545947 -0.000814849 0.000197045 5.81333e-11 1.77459e-10 -1.19177e-10 5e-05 1.46608e-10 
182 1 0.121296 0.0163435 0.00779954 0.00599949 4.79772e-05 -0.000453836 1.62012e-09 1.64667e-09 -1.88222e-09 5e-05 1.46608e-10 
183 1 0.115667 0.0171644 0.00732771 0.00539335 -0.000878451 0.000236474 -4.08002e-11 -1.28692e-10 1.17553e-11 5e-05 1.46608e-10 
184 1 0.121736 0.0180189 0.00716474 0.00567032 0.000523093 -0.000365256 -5.35431e-11 1.32037e-10 3.76747e-11 5e-05 1.46608e-10 
185 1 0.115341 0.0169296 0.007516 0.00535998 -0.000589346 0.000446556 -6.2973e-11 -3.65724e-11 8.99668e-11 5e-05 1.46608e-10 
186 1 0.115379 0.0170851 0.00739657 0.0054476 -0.00078023 0.000228615 1.37556e-10 -1.1791e-11 6.82192e-11 5e-05 1.46608e-10 
187 1 0.121715 0.0174033 0.00722388 0.00566929 0.000503187 -0.000358078 -1.22608e-10 -6.37141e-11 1.91533e-11 5e-05 1.46608e-10 
188 1 0.121692 0.0180869 0.00707023 0.00566659 0.000514104 -0.000360195 6.23984e-11 1.5225e-10 -3.46566e-11 5e-05 1.46608e-10 
189 1 0.121754 0.0175951 0.00717882 0.00566458 0.000515242 -0.000360351 2.54438e-11 2.02707e-11 -3.26446e-13 5e-05 1.46608e-10 
190 1 0.109586 0.0176516 0.00726568 0.00577096 0.000428632 -0.000578068 -1.74591e-12 -8.87032e-13 8.32299e-13 5e-05 1.46608e-10 
191 1 0.121655 0.0183931 0.00702003 0.00608221 0.000440112 -0.000377029 9.52298e-11 1.12592e-10 -6.54729e-11 5e-05 1.46608e-10 
192 1 0.115591 0.0168706 0.00758838 0.00546252 -0.000366863 0.0007928 1.33531e-11 8.02364e-11 -7.90285e-11 5e-05 1.46608e-10 
193 1 0.121484 0.0167302 0.00745398 0.00574234 0.000489771 -0.000134977 -3.63134e-10 4.54447e-11 1.68417e-10 5e-05 1.46608e-10 
194 1 0.115434 0.0166223 0.00780552 0.00592064 -0.000191455 0.000670053 1.29054e-10 -1.32914e-10 1.20387e-10 5e-05 1.46608e-10 
195 1 0.115868 0.01772 0.00711224 0.00549158 -0.000891936 0.000280483 -9.2596e-11 5.51567e-11 -4.3992e-11 5e-05 1.46608e-10 
196 1 0.114918 0.0155007 0.00880227 0.00575639 -0.000375679 0.00082678 1.76524e-12 3.11093e-13 -1.00939e-13 5e-05 1.46608e-10 
197 1 0.109487 0.0176185 0.00728484 0.00555318 0.000472441 -0.000577557 -7.85913e-12 -2.86529e-13 -1.74056e-12 5e-05 1.46608e-10 
198 1 0.115405 0.0170876 0.00749332 0.00473286 -0.000488072 0.000376702 6.01521e-11 -3.61766e-10 -1.64889e-10 5e-05 1.46608e-10 
199 1 0.115493 0.017193 0.00731997 0.00540979 -0.000842505 0.000211795 1.82468e-10 2.17898e-10 -9.2831e-11 5e-05 1.46608e-10 
200 1 0.115281 0.0167106 0.00771196 0.00576562 -0.00038164 0.000814205 1.79787e-12 -4.62655e-11 7.27481e-11 5e-05 1.46608e-10 
201 1 0.115739 0.0179507 0.00712612 0.00553143 -0.000841361 0.000267434 1.08525e-10 1.36951e-10 -4.82189e-11 5e-05 1.46608e-10 
202 1 0.115611 0.0169433 0.00752267 0.0051972 -0.000376166 0.000781 -3.63871e-10 -1.84662e-10 1.85396e-10 5e-05 1.46608e-10 
203 1 0.121773 0.0176906 0.00715638 0.00564371 0.000513706 -0.000359069 1.19458e-10 -3.99046e-11 1.13246e-11 5e-05 1.46608e-10 
204 1 0.115356 0.0166647 0.00775972 0.00583757 -0.000288532 0.00074746 -4.5776e-12 -2.19921e-10 2.27482e-10 5e-05 1.46608e-10 
205 1 0.115562 0.0175272 0.00709923 0.00535275 -0.000760326 0.000114249 6.63318e-10 2.00909e-10 1.06605e-09 5e-05 1.46608e-10 
206 1 0.115608 0.0173012 0.0072427 0.00538622 -0.000847854 0.000231536 2.40042e-10 -1.38511e-10 8.83793e-11 5e-05 1.46608e-10 
207 1 0.115246 0.0163019 0.00808692 0.00579402 -0.000358984 0.000813438 2.98344e-11 5.79478e-11 -4.53241e-11 5e-05 1.46608e-10 
208 1 0.11557 0.0171403 0.00735527 0.00537878 -0.000810936 0.00029502 -5.67875e-11 -1.28192e-10 -1.57989e-10 5e-05 1.46608e-10 
209 1 0.115334 0.016592 0.00782531 0.00587986 -0.000297315 0.000762671 1.331e-10 5.85615e-11 -4.7741e-11 5e-05 1.46608e-10 
210 1 0.121531 0.0176577 0.00725796 0.00562103 0.000478202 -0.000363861 -1.52876e-11 7.68205e-11 -1.44857e-11 5e-05 1.46608e-10 
211 1 0.121672 0.0179915 0.00709268 0.00565342 0.000508858 -0.000358069 2.74799e-11 1.9143e-11 8.02184e-12 5e-05 1.46608e-10 
212 1 0.115703 0.0173285 0.00721931 0.00538438 -0.000872592 0.000238111 1.72315e-10 -2.97792e-12 -6.7227e-11 5e-05 1.46608e-10 
213 1 0.121696 0.0173078 0.00724632 0.00557471 0.000513663 -0.00035585 2.3195e-12 -1.18744e-10 2.71751e-11 5e-05 1.46608e-10 
214 1 0.121652 0.0178921 0.00711603 0.00564297 0.000497534 -0.000356805 3.09608e-11 3.16779e-11 -5.17056e-13 5e-05 1.46608e-10 
215 1 0.109545 0.017466 0.00733492 0.00556222 0.000495973 -0.000586742 -3.76605e-11 -4.80865e-11 1.86662e-11 5e-05 1.46608e-10 
216 1 0.115454 0.0174128 0.00717974 0.00545959 -0.000822223 0.000215938 2.20304e-11 1.59784e-10 -1.30155e-10 5e-05 1.46608e-10 
217 1 0.121446 0.0165677 0.00756374 0.00573508 0.000405951 -0.000233965 -6.20419e-10 1.48444e-10 -4.0938e-10 5e-05 1.46608e-10 
218 1 0.115579 0.0177377 0.00719056 0.00543522 -0.000740079 0.000296253 -7.91783e-11 3.13279e-10 -1.53769e-10 5e-05 1.46608e-10 
219 1 0.121593 0.0181049 0.00707041 0.00565858 0.000506876 -0.000358032 2.9718e-11 1.88367e-10 -4.54086e-11 5e-05 1.46608e-10 
220 1 0.115416 0.017249 0.00728804 0.00544083 -0.000823671 0.000198894 6.15153e-12 8.30623e-11 -9.61921e-11 5e-05 1.46608e-10 
221 1 0.109484 0.0171878 0.00743864 0.00546613 0.000462993 -0.000567713 2.70617e-11 -2.36308e-11 1.06848e-11 5e-05 1.46608e-10 
222 1 0.121464 0.0166455 0.00750342 0.00577442 0.000485904 -0.000126958 -2.32983e-11 -5.14116e-11 -7.92182e-11 5e-05 1.46608e-10 
223 1 0.115513 0.0169132 0.00754244 0.00545277 -0.00038545 0.000814324 2.51914e-10 2.09631e-10 -1.38742e-10 5e-05 1.46608e-10 
224 1 0.115322 0.0168553 0.00758028 0.00534115 -0.00041946 0.000642728 -1.03758e-10 3.59052e-11 9.64483e-11 5e-05 1.46608e-10 
225 1 0.121674 0.0184833 0.00698134 0.00615332 0.000450911 -0.000366217 -5.71874e-11 -1.25199e-10 5.07812e-11 5e-05 1.46608e-10 
226 1 0.115827 0.0175254 0.00709086 0.00538474 -0.000876857 0.000273463 8.94802e-11 7.31985e-11 1.1412e-10 5e-05 1.46608e-10 
227 1 0.109607 0.0177447 0.0072309 0.00581735 0.000412015 -0.000575581 -4.66565e-12 1.86891e-11 -6.42342e-12 5e-05 1.46608e-10 
228 1 0.109448 0.0174347 0.00735328 0.00552978 0.000470668 -0.000575423 -2.75166e-11 -5.2759e-11 2.54965e-11 5e-05 1.46608e-10 
229 1 0.115496 0.0174484 0.00726303 0.00546308 -0.000727701 0.000193484 -1.69148e-12 1.02852e-10 -8.79422e-11 5e-05 1.46608e-10 
230 1 0.115685 0.0181137 0.00714308 0.00565544 -0.000834905 0.000566608 -1.79467e-10 1.87993e-10 -1.37553e-10 5e-05 1.46608e-10 
231 1 0.109408 0.0172508 0.00742173 0.00547446 0.000470993 -0.000570795 2.53674e-11 -2.66097e-11 6.29814e-12 5e-05 1.46608e-10 
232 1 0.11539 0.0164773 0.00793626 0.00592964 -0.000205697 0.000684343 1.61611e-10 -2.80981e-10 2.82538e-10 5e-05 1.46608e-10 
233 1 0.115475 0.0167676 0.00767421 0.00524939 -0.000387196 0.000795429 -1.32137e-13 2.59239e-10 -2.46784e-10 5e-05 1.46608e-10 
234 1 0.121732 0.0182779 0.00702532 0.00605861 0.00042314 -0.000356554 -8.74686e-11 1.39819e-10 -1.44297e-11 5e-05 1.46608e-10 
235 1 0.115653 0.018372 0.0071786 0.00561166 -0.000798202 0.000580884 -6.4657e-12 -6.30744e-11 7.92392e-11 5e-05 1.46608e-10 
236 1 0.115803 0.0182394 0.00717713 0.00550665 -0.000878437 0.000557841 -2.02734e-11 -1.25733e-10 -2.30461e-11 5e-05 1.46608e-10 
237 1 0.115728 0.0183062 0.00717799 0.00557502 -0.000813805 0.000579288 9.74585e-11 1.81828e-13 3.92271e-11 5e-05 1.46608e-10 
239 1 0.109226 0.016453 0.00778644 0.00579356 0.000663916 8.321e-06 -2.05384e-12 6.18811e-11 1.6067e-11 5e-05 1.46608e-10 
240 1 0.109287 0.0167012 0.00762928 0.00586138 0.000642991 2.56503e-05 -5.32367e-11 5.66582e-12 -1.50777e-10 5e-05 1.46608e-10 
241 1 0.109206 0.0163703 0.00783882 0.00577156 0.000670333 4.26554e-06 1.58293e-11 4.03651e-11 -5.24568e-11 5e-05 1.46608e-10 
242 1 0.115454 0.0166949 0.00773986 0.00573598 -0.000154004 0.000629693 4.56802e-11 -8.93565e-11 2.72776e-11 5e-05 1.46608e-10 
243 1 0.115399 0.0171732 0.007442 0.00542322 -0.000579035 0.000167986 1.14492e-10 -3.37632e-10 2.84349e-11 5e-05 1.46608e-10 
244 1 0.109246 0.0165357 0.00773405 0.00581431 0.000655884 1.68449e-05 -1.08579e-12 -6.35375e-12 -2.2048e-11 5e-05 1.46608e-10 
246 1 0.109369 0.0170671 0.00749018 0.0056536 0.00043805 -0.000573324 1.70813e-10 -1.41286e-11 1.95927e-11 5e-05 1.46608e-10 
247 1 0.115581 0.0176285 0.00708413 0.00541566 -0.000745552 0.000302407 -3.05559e-10 -6.0817e-11 4.4987e-11 5e-05 1.46608e-10 