ITEM: TIMESTEP
60200000
ITEM: NUMBER OF ATOMS
269
ITEM: BOX BOUNDS ff ff ff
-0.02 0.43
-0.02 0.06
-0.02 0.07
ITEM: ATOMS id type x y z vx vy vz fx fy fz radius mass 
1 1 0.364144 0.0179646 0.00695164 0.00580751 -0.000229187 4.07255e-05 -2.55367e-11 -1.14929e-10 -2.33348e-11 5e-05 1.46608e-10 
2 1 0.363879 0.0168867 0.00762283 0.00594803 -0.000155942 5.48773e-05 5.00275e-11 1.59338e-10 5.24459e-11 5e-05 1.46608e-10 
4 1 0.364091 0.0170191 0.00753545 0.00600122 -0.000210934 8.78037e-05 1.3676e-10 -8.76462e-11 5.25323e-11 5e-05 1.46608e-10 
5 1 0.363648 0.0159748 0.00819286 0.00548325 -4.43352e-05 0.000122309 -2.70713e-11 -3.66956e-11 1.75307e-11 5e-05 1.46608e-10 
6 1 0.369907 0.0169929 0.00754916 0.00596963 -0.000144477 2.69956e-05 2.43167e-11 3.22265e-11 -3.02215e-11 5e-05 1.46608e-10 
7 1 0.364241 0.0175954 0.00716145 0.00616549 -0.000229391 9.9193e-05 -9.87926e-11 -7.07805e-11 3.63727e-11 5e-05 1.46608e-10 
8 1 0.363889 0.0165841 0.00781843 0.00584659 -0.000104274 0.000137014 1.41589e-10 -1.77631e-11 -5.87084e-11 5e-05 1.46608e-10 
9 1 0.37011 0.0178012 0.00699884 0.00575977 -9.01024e-05 5.14793e-05 -4.34045e-11 -5.0805e-11 -7.16138e-12 5e-05 1.46608e-10 
10 1 0.364027 0.0167732 0.00769502 0.00592694 -0.000191552 7.5846e-05 -8.67251e-11 7.61644e-11 4.05026e-11 5e-05 1.46608e-10 
11 1 0.364334 0.0180268 0.00695536 0.0057695 -0.000217705 4.26312e-05 2.83439e-11 5.18559e-11 -1.75354e-11 5e-05 1.46608e-10 
12 1 0.358294 0.0173825 0.00724028 0.00606412 0.000526097 -0.000257273 -3.86017e-10 1.33758e-10 -1.50421e-10 5e-05 1.46608e-10 
13 1 0.363629 0.0158914 0.00824438 0.00551315 -5.71646e-05 0.000129919 3.22966e-11 7.3974e-11 -6.85252e-11 5e-05 1.46608e-10 
14 1 0.358442 0.0181783 0.00706605 0.00592133 0.000547584 -9.09513e-05 1.05647e-10 -1.16103e-10 -6.95629e-11 5e-05 1.46608e-10 
16 1 0.358328 0.0184107 0.00702299 0.00583418 0.000511824 -7.46749e-05 -4.72999e-10 -1.07281e-10 2.95913e-11 5e-05 1.46608e-10 
17 1 0.363794 0.0165575 0.00783337 0.00586394 -6.21773e-05 0.000138319 -1.35066e-10 -4.4385e-13 2.29893e-12 5e-05 1.46608e-10 
19 1 0.364185 0.0181602 0.00695857 0.00579783 -0.000202315 4.18055e-05 1.35757e-11 6.69922e-11 -9.56584e-12 5e-05 1.46608e-10 
21 1 0.364279 0.0177604 0.00705439 0.00596667 -6.29014e-05 -5.15574e-06 1.09563e-10 9.01818e-11 -6.89863e-11 5e-05 1.46608e-10 
22 1 0.364049 0.0168552 0.00764184 0.00594157 -0.00021214 8.89375e-05 -9.71743e-12 -1.83991e-11 5.61337e-12 5e-05 1.46608e-10 
23 1 0.358418 0.0180024 0.00700349 0.00587783 0.000529736 -7.03869e-05 -9.47951e-11 -2.28493e-11 4.42801e-11 5e-05 1.46608e-10 
24 1 0.370034 0.0174698 0.00720801 0.0062079 -0.000183951 5.26321e-05 -1.34537e-11 6.89841e-11 -5.57377e-11 5e-05 1.46608e-10 
26 1 0.370075 0.0176291 0.00709408 0.00608956 -0.000156584 5.75343e-05 -1.01138e-11 8.51407e-11 -2.14536e-11 5e-05 1.46608e-10 
27 1 0.357901 0.0167164 0.00809611 0.00557788 -0.000359581 -0.0012026 3.65407e-10 -7.33805e-10 5.11761e-10 5e-05 1.46608e-10 
28 1 0.364284 0.0179305 0.00704752 0.00582025 -5.28437e-05 1.8231e-05 -2.92488e-11 -1.34743e-10 4.07965e-11 5e-05 1.46608e-10 
29 1 0.363609 0.0158079 0.00829592 0.00547427 -6.48015e-05 0.000134176 3.99492e-11 9.29159e-11 -3.92472e-11 5e-05 1.46608e-10 
30 1 0.363751 0.0163912 0.00793592 0.00579519 -6.20107e-05 0.00013688 3.1829e-10 -3.21453e-10 1.74949e-10 5e-05 1.46608e-10 
31 1 0.364393 0.0178699 0.00698281 0.00587789 -0.000134245 4.76195e-05 -1.4504e-10 3.23675e-11 -5.79906e-11 5e-05 1.46608e-10 
32 1 0.247451 0.0181454 0.00545794 3.69545e-15 -5.32259e-14 -2.74082e-13 -4.14722e-21 -8.44241e-23 -4.67357e-23 5e-05 1.46608e-10 
33 1 0.369928 0.0170724 0.00749228 0.00601398 -0.000144174 2.69773e-05 -1.76101e-11 1.31633e-11 -9.28383e-12 5e-05 1.46608e-10 
35 1 0.3642 0.0174309 0.00726818 0.00618332 -0.000210565 8.63848e-05 3.3913e-11 -1.24825e-10 6.81697e-11 5e-05 1.46608e-10 
36 1 0.370171 0.0180941 0.00697848 0.00578679 -8.55887e-05 5.09788e-05 -2.32481e-11 7.83911e-11 -5.67577e-12 5e-05 1.46608e-10 
37 1 0.36407 0.0169371 0.00758863 0.00598606 -0.000205709 8.4796e-05 9.31351e-11 -1.07196e-10 7.29184e-11 5e-05 1.46608e-10 
38 1 0.364155 0.017265 0.00737586 0.00602778 -0.000219201 9.30082e-05 1.46223e-11 -8.84007e-12 -9.40763e-13 5e-05 1.46608e-10 
39 1 0.370054 0.0175495 0.007151 0.0062091 -0.000184783 5.43364e-05 3.96832e-11 8.41816e-11 -5.16133e-11 5e-05 1.46608e-10 
41 1 0.363687 0.0161417 0.00808983 0.00568682 -4.84932e-05 0.000127747 -1.41368e-10 1.53671e-10 -1.01667e-10 5e-05 1.46608e-10 
42 1 0.364134 0.0171831 0.00742904 0.00599821 -0.000212212 8.87927e-05 1.79505e-11 1.95393e-11 -1.29532e-11 5e-05 1.46608e-10 
44 1 0.364336 0.0176227 0.00714305 0.00615775 -0.0001944 7.61033e-05 -1.43249e-10 -4.95572e-11 3.66337e-11 5e-05 1.46608e-10 
45 1 0.369949 0.0171519 0.0074354 0.00604434 -0.000149027 2.93308e-05 1.25881e-11 -3.38507e-11 1.98659e-11 5e-05 1.46608e-10 
47 1 0.363708 0.016225 0.00803849 0.00578669 -4.83188e-05 0.000128694 -1.42052e-10 1.57031e-10 -1.02729e-10 5e-05 1.46608e-10 
48 1 0.36409 0.0177066 0.00709072 0.00564386 -0.000173631 6.44032e-05 5.63241e-10 -1.15212e-10 -2.35133e-11 5e-05 1.46608e-10 
49 1 0.37013 0.0178989 0.00699206 0.00576839 -8.84398e-05 5.14222e-05 -1.04628e-11 -6.25795e-11 1.32074e-12 5e-05 1.46608e-10 
50 1 0.354881 0.0174094 0.00796612 0.01443 0.0305036 -0.0131629 -1.76467e-10 -3.79448e-11 -7.13208e-11 5e-05 1.46608e-10 
51 1 0.364413 0.0179634 0.0069539 0.00585655 -0.000128145 4.57151e-05 -5.60784e-11 5.69348e-11 2.38807e-11 5e-05 1.46608e-10 
52 1 0.358353 0.0176328 0.00708597 0.00582955 0.000449905 -0.000205283 7.24535e-11 -1.83866e-10 6.85516e-11 5e-05 1.46608e-10 
53 1 0.369991 0.017311 0.00732164 0.00606621 -0.000156078 3.41725e-05 -1.17772e-10 1.79157e-11 -9.37777e-12 5e-05 1.46608e-10 
54 1 0.364341 0.0184854 0.00697084 0.0055601 -0.000110429 4.39855e-05 -6.258e-11 1.67347e-10 1.24934e-11 5e-05 1.46608e-10 
55 1 0.358014 0.0170948 0.00764605 0.00601975 -0.000364856 -0.00132374 -2.69018e-10 2.7452e-10 -2.07056e-10 5e-05 1.46608e-10 
56 1 0.364226 0.0183559 0.0069655 0.00558695 -0.000123069 4.32683e-05 -2.31693e-10 2.33082e-10 4.17865e-12 5e-05 1.46608e-10 
57 1 0.36997 0.0172315 0.00737852 0.00607116 -0.000156256 3.4124e-05 -8.73692e-11 -3.27671e-11 1.92888e-11 5e-05 1.46608e-10 
59 1 0.378022 0.019866 0.005332 -5.01956e-15 -7.41221e-15 7.69802e-14 1.00942e-23 -2.06795e-24 4.1359e-25 5e-05 1.46608e-10 
60 1 0.364355 0.017705 0.00708961 0.00610531 -0.000180818 6.68381e-05 -4.16614e-12 -4.64169e-11 8.9632e-12 5e-05 1.46608e-10 
61 1 0.363668 0.0160583 0.00814135 0.00551365 -3.55332e-05 0.000117139 -1.87531e-10 4.59087e-11 -3.60733e-11 5e-05 1.46608e-10 
62 1 0.364179 0.0173487 0.00732152 0.00619588 -0.000191025 7.35423e-05 2.94842e-11 5.43352e-11 -4.06436e-11 5e-05 1.46608e-10 
63 1 0.364416 0.0184191 0.00696925 0.00559812 -7.04386e-05 4.53805e-05 -4.80995e-11 2.60306e-10 1.33356e-11 5e-05 1.46608e-10 
64 1 0.370012 0.0173905 0.00726475 0.00613913 -0.000170424 4.35241e-05 -4.7486e-11 2.13571e-11 -3.13157e-11 5e-05 1.46608e-10 
65 1 0.358039 0.0174196 0.00739691 0.00699989 0.000508971 -0.00105167 3.59457e-10 1.00373e-10 -1.46668e-09 5e-05 1.46608e-10 
66 1 0.358178 0.0177167 0.00703258 0.00587598 0.000537503 -0.000222344 7.10472e-11 2.17695e-10 -6.6453e-11 5e-05 1.46608e-10 
67 1 0.364297 0.017843 0.00700084 0.0058129 -3.7217e-05 -2.30021e-05 -8.40611e-11 1.88707e-11 -3.47448e-11 5e-05 1.46608e-10 
68 1 0.364039 0.0171578 0.00744614 0.00601879 -0.000196954 7.88624e-05 1.44279e-11 -3.4171e-11 3.98195e-11 5e-05 1.46608e-10 
69 1 0.364453 0.0181593 0.00696082 0.00577055 -0.000100666 4.58283e-05 3.87596e-11 -9.3438e-12 2.7778e-12 5e-05 1.46608e-10 
70 1 0.370093 0.0177131 0.00704303 0.00575125 -0.000105208 2.17748e-05 -1.16098e-11 2.5113e-12 -4.9286e-11 5e-05 1.46608e-10 
71 1 0.358308 0.0183128 0.00701897 0.00587679 0.000512077 -7.57319e-05 1.70542e-10 4.06103e-11 1.22893e-10 5e-05 1.46608e-10 
72 1 0.364355 0.0181247 0.00695883 0.00582854 -0.000139336 4.49427e-05 -4.38674e-11 1.7006e-11 5.82473e-12 5e-05 1.46608e-10 
73 1 0.364113 0.0171011 0.00748226 0.00598851 -0.000212809 8.89936e-05 -9.41467e-12 -6.4563e-11 3.43296e-11 5e-05 1.46608e-10 
74 1 0.36373 0.0163081 0.00798721 0.00579646 -5.62537e-05 0.000132971 2.86661e-10 -1.13649e-11 3.28615e-11 5e-05 1.46608e-10 
76 1 0.357956 0.0169083 0.0078723 0.00563922 -0.000339462 -0.00124406 2.81723e-10 2.62286e-10 -3.35385e-10 5e-05 1.46608e-10 
77 1 0.363901 0.0169686 0.00756964 0.00597164 -0.000165919 5.83419e-05 5.92862e-11 1.05015e-10 -6.58519e-11 5e-05 1.46608e-10 
78 1 0.35727 0.0151969 0.00977801 0.00388856 -0.00515269 0.00677449 -1.687e-10 2.31081e-10 -9.02329e-11 5e-05 1.46608e-10 
79 1 0.358348 0.0185086 0.007027 0.00578273 0.000517317 -6.80673e-05 -2.43992e-10 -3.66466e-10 -4.09239e-11 5e-05 1.46608e-10 
80 1 0.363996 0.0169939 0.00755251 0.00598745 -0.000196438 7.94388e-05 1.11737e-10 4.418e-11 -6.67929e-11 5e-05 1.46608e-10 
82 1 0.358277 0.0178626 0.00699953 0.00585328 0.00055871 -6.5032e-05 2.25785e-10 -1.57813e-11 8.69512e-11 5e-05 1.46608e-10 
83 1 0.358319 0.0174651 0.00718941 0.00573635 0.00043871 -0.000193338 -3.19682e-10 -2.0602e-10 1.78961e-10 5e-05 1.46608e-10 
84 1 0.370151 0.0179965 0.00698527 0.00577663 -8.7041e-05 5.12231e-05 6.85001e-12 -1.9302e-11 9.45268e-12 5e-05 1.46608e-10 
85 1 0.358169 0.0180861 0.00705368 0.00587339 0.000602406 -0.000111099 5.55172e-11 3.8907e-10 2.18124e-12 5e-05 1.46608e-10 
86 1 0.364317 0.0175403 0.00719648 0.00618987 -0.000203873 8.21209e-05 -1.87225e-10 -1.11265e-10 7.32545e-11 5e-05 1.46608e-10 
87 1 0.363953 0.0168302 0.00765913 0.00593839 -0.000177072 6.57069e-05 -6.15301e-11 1.47102e-10 9.80765e-11 5e-05 1.46608e-10 
88 1 0.364103 0.0174042 0.00728622 0.00613887 -0.000231238 9.96021e-05 -1.49695e-10 -1.35092e-10 9.15307e-11 5e-05 1.46608e-10 
89 1 0.364473 0.0182572 0.00696429 0.00566366 -6.61006e-05 4.60876e-05 -2.67576e-10 1.32781e-11 -3.0403e-12 5e-05 1.46608e-10 
90 1 0.364314 0.0179286 0.00695188 0.00567732 2.8467e-05 4.81654e-05 9.1313e-11 -2.98598e-11 2.24416e-13 5e-05 1.46608e-10 
91 1 0.358138 0.0171698 0.00751666 0.00576485 -0.000415248 -0.00120397 -2.89909e-11 -3.45143e-11 5.52184e-11 5e-05 1.46608e-10 
92 1 0.364007 0.0173784 0.00730372 0.00607373 -0.00021755 8.98041e-05 -6.28792e-11 -2.06294e-10 1.17018e-10 5e-05 1.46608e-10 
93 1 0.364125 0.0177887 0.00713563 0.00617472 -0.000375919 -6.845e-06 1.41004e-10 2.47341e-10 -1.02919e-10 5e-05 1.46608e-10 
94 1 0.36426 0.0180936 0.00695697 0.00578885 -0.000207785 4.46056e-05 -2.75471e-11 3.72981e-11 3.57275e-12 5e-05 1.46608e-10 
95 1 0.364188 0.0179566 0.00704113 0.00578217 -0.000208831 4.40513e-05 8.57009e-13 -1.15971e-10 -2.15214e-11 5e-05 1.46608e-10 
96 1 0.363986 0.0172964 0.00735691 0.00605357 -0.000205056 8.23089e-05 1.40896e-10 -7.37285e-11 5.3772e-11 5e-05 1.46608e-10 
97 1 0.357365 0.0154678 0.00949967 0.00409378 -0.00522538 0.00689603 5.68101e-10 -1.45464e-10 2.20216e-10 5e-05 1.46608e-10 
98 1 0.363847 0.0164178 0.00792102 0.00577392 -8.04737e-05 0.000149478 -8.85143e-11 6.55876e-11 -4.27923e-11 5e-05 1.46608e-10 
99 1 0.35801 0.0173896 0.00730586 0.00615726 -0.000426108 -0.00128988 9.68035e-11 -6.40567e-11 -3.714e-10 5e-05 1.46608e-10 
100 1 0.364261 0.017678 0.00710788 0.00612725 -0.000224795 9.59638e-05 -4.66727e-11 2.94793e-11 -1.68967e-11 5e-05 1.46608e-10 
101 1 0.35803 0.017454 0.00723192 0.0060495 -0.000118459 -0.00104366 -2.46792e-10 -1.37137e-10 1.79478e-10 5e-05 1.46608e-10 
102 1 0.0643568 0.0187248 0.00531097 4.21188e-15 1.0566e-14 8.29541e-14 -1.23366e-21 1.32985e-21 -1.07327e-22 5e-05 1.46608e-10 
103 1 0.230779 0.0182774 0.00551293 -5.50282e-15 6.50824e-15 4.4683e-14 -8.02624e-23 -1.4013e-22 9.51258e-24 5e-05 1.46608e-10 
104 1 0.35829 0.0186701 0.00703582 0.00542618 0.000309408 -0.000221961 6.39913e-11 4.77984e-10 7.87372e-11 5e-05 1.46608e-10 
105 1 0.357392 0.0155353 0.00943111 0.00406708 -0.00521808 0.00688472 3.72963e-10 -1.58575e-10 4.15009e-10 5e-05 1.46608e-10 
106 1 0.358053 0.0172147 0.00749077 0.00635581 -0.000462095 -0.00132914 -1.06097e-10 3.74286e-10 -1.0779e-09 5e-05 1.46608e-10 
107 1 0.35729 0.0152647 0.00970739 0.00381603 -0.00517088 0.00676896 -8.31278e-11 -2.56227e-11 -2.64214e-10 5e-05 1.46608e-10 
108 1 0.364396 0.018321 0.00696578 0.00562461 -8.04776e-05 4.55021e-05 -2.05755e-10 1.30045e-11 7.44346e-13 5e-05 1.46608e-10 
109 1 0.364246 0.0184538 0.00696896 0.00556733 -0.000113492 4.40029e-05 1.3666e-10 6.81997e-11 -5.01152e-12 5e-05 1.46608e-10 
110 1 0.36409 0.0176223 0.00724245 0.00616189 -0.000244508 0.000109016 1.08047e-10 -7.55825e-11 4.86444e-11 5e-05 1.46608e-10 
111 1 0.363858 0.0168047 0.00767604 0.00592373 -0.000140621 6.36645e-05 -7.64476e-11 1.0719e-10 1.34809e-10 5e-05 1.46608e-10 
112 1 0.358038 0.0175232 0.00730364 0.00596758 -0.000317182 -0.000767297 8.02785e-10 -6.93006e-10 1.45828e-09 5e-05 1.46608e-10 
113 1 0.357932 0.017104 0.00770217 0.00578802 -0.000407748 -0.00123032 -5.25236e-11 -6.22942e-11 2.43251e-11 5e-05 1.46608e-10 
114 1 0.357972 0.0172649 0.00745745 0.00604253 -0.000414879 -0.00127305 1.40001e-10 -1.4762e-10 -1.11552e-10 5e-05 1.46608e-10 
115 1 0.364298 0.017458 0.00724986 0.00619683 -0.00020441 8.21002e-05 -1.37769e-10 -1.62488e-10 1.10548e-10 5e-05 1.46608e-10 
116 1 0.364185 0.0177332 0.00707273 0.006039 -0.000228877 9.89924e-05 6.99753e-11 -2.50348e-11 2.69552e-11 5e-05 1.46608e-10 
117 1 0.364222 0.0175129 0.00721498 0.00618078 -0.000217996 9.11415e-05 1.54201e-12 -4.377e-11 3.32095e-11 5e-05 1.46608e-10 
118 1 0.358156 0.0172324 0.00744087 0.00583789 -0.000428932 -0.00119563 2.31405e-09 1.00125e-09 5.48099e-10 5e-05 1.46608e-10 
119 1 0.364375 0.0182226 0.00696229 0.00577531 -0.000117058 4.53606e-05 1.0886e-11 -1.14573e-10 -3.59312e-12 5e-05 1.46608e-10 
120 1 0.364006 0.0166913 0.00774821 0.00589755 -0.000188495 7.22564e-05 -5.0268e-11 7.17929e-11 -4.51599e-11 5e-05 1.46608e-10 
121 1 0.36428 0.0181914 0.00696043 0.00580656 -0.000168341 4.40482e-05 -6.5239e-12 9.87311e-11 4.24153e-12 5e-05 1.46608e-10 
122 1 0.363965 0.0172145 0.00741009 0.00603695 -0.000194633 7.70642e-05 4.1816e-11 3.65342e-11 -9.25418e-12 5e-05 1.46608e-10 
123 1 0.35821 0.0182777 0.00701898 0.00589224 0.000521991 -7.10386e-05 -6.11583e-11 3.82755e-10 8.42945e-11 5e-05 1.46608e-10 
124 1 0.363868 0.0165009 0.00786975 0.00582989 -9.08589e-05 0.000155583 -1.17926e-10 -4.50464e-12 1.72697e-11 5e-05 1.46608e-10 
125 1 0.364081 0.0173217 0.00733977 0.00604674 -0.000216037 9.03039e-05 9.92885e-12 -5.70218e-11 3.71033e-11 5e-05 1.46608e-10 
127 1 0.357337 0.0154003 0.00956783 0.00404755 -0.00520427 0.00687922 -3.40952e-10 -2.29478e-10 2.72422e-10 5e-05 1.46608e-10 
128 1 0.363773 0.0164744 0.00788464 0.00581684 -5.80176e-05 0.000134499 -1.7986e-10 -2.70928e-10 1.38599e-10 5e-05 1.46608e-10 
129 1 0.364277 0.018036 0.00703686 0.00577864 -0.000211684 4.96893e-05 1.04198e-10 1.46868e-10 1.0591e-11 5e-05 1.46608e-10 
130 1 0.35809 0.0173396 0.00733917 0.00624112 -0.000395136 -0.00137295 -2.06017e-10 -6.60675e-10 -1.03509e-09 5e-05 1.46608e-10 
131 1 0.358109 0.017402 0.00726343 0.00602354 -0.000436964 -0.00138576 -1.08372e-09 -9.09984e-10 7.1794e-10 5e-05 1.46608e-10 
132 1 0.364276 0.017376 0.00730306 0.00619621 -0.000202299 8.07197e-05 -8.05355e-11 -2.19705e-10 1.45192e-10 5e-05 1.46608e-10 
133 1 0.364203 0.0178158 0.00701918 0.00585677 -0.000201269 7.90503e-05 8.77681e-11 -2.49945e-11 3.27069e-11 5e-05 1.46608e-10 
134 1 0.364166 0.0176509 0.00712617 0.00614441 -0.000245843 0.000110867 4.37154e-13 -1.85562e-11 1.43801e-11 5e-05 1.46608e-10 
135 1 0.364432 0.0180615 0.00695736 0.00583744 -0.000122656 4.54195e-05 -6.65099e-12 3.89351e-11 1.58447e-11 5e-05 1.46608e-10 
136 1 0.357995 0.017028 0.00771788 0.00582566 -0.000331205 -0.0013015 4.67845e-10 3.96158e-10 -2.74797e-10 5e-05 1.46608e-10 
137 1 0.364286 0.0186497 0.00697589 0.00556737 -0.000101117 4.38952e-05 8.74506e-12 2.57136e-10 1.29536e-11 5e-05 1.46608e-10 
138 1 0.36405 0.0175423 0.00719736 0.00615809 -0.000242146 0.000106589 -6.43597e-12 -1.28609e-10 8.6468e-11 5e-05 1.46608e-10 
140 1 0.363922 0.0170506 0.00751646 0.00599752 -0.000176904 6.65656e-05 8.03738e-11 9.22961e-11 -7.52767e-11 5e-05 1.46608e-10 
141 1 0.358007 0.0167335 0.00804675 0.00540298 -0.000319239 -0.00123021 -2.1805e-10 1.53792e-10 -1.0997e-10 5e-05 1.46608e-10 
142 1 0.358363 0.0178105 0.00699588 0.00583009 0.000544484 -6.0095e-05 3.01502e-10 5.12855e-12 5.70969e-11 5e-05 1.46608e-10 
143 1 0.357312 0.0153325 0.00963722 0.00391493 -0.00518983 0.00680817 -2.74642e-10 2.59758e-11 1.4516e-10 5e-05 1.46608e-10 
144 1 0.358195 0.0173573 0.00728948 0.00593606 -0.000249818 -0.00100727 -2.23985e-10 -4.70354e-10 -1.03244e-10 5e-05 1.46608e-10 
146 1 0.357621 0.0157334 0.00926899 0.00582569 -0.00520602 0.00734066 -1.04256e-09 -5.21821e-11 -3.10926e-10 5e-05 1.46608e-10 
147 1 0.358071 0.0172772 0.00741497 0.00631904 -0.000458931 -0.00135779 -2.35835e-09 -1.81394e-10 -1.6182e-09 5e-05 1.46608e-10 
148 1 0.35803 0.0167945 0.00797091 0.00549615 -0.00032685 -0.00122101 1.74744e-10 -5.59086e-11 3.74746e-11 5e-05 1.46608e-10 
149 1 0.363815 0.0166406 0.00778207 0.00587951 -6.92514e-05 0.000140813 8.07895e-11 6.30304e-11 -1.56636e-10 5e-05 1.46608e-10 
150 1 0.358148 0.0179886 0.0070622 0.00585815 0.000575251 -5.49954e-05 1.65798e-10 4.66088e-10 8.36223e-11 5e-05 1.46608e-10 
151 1 0.358067 0.0176007 0.00710191 0.00581472 0.000594002 -0.000294486 3.37574e-10 1.4972e-10 -1.76869e-10 5e-05 1.46608e-10 
153 1 0.35804 0.016859 0.00789523 0.005567 -0.000335042 -0.00123002 1.02381e-10 -1.42924e-10 1.33823e-10 5e-05 1.46608e-10 
154 1 0.349969 0.0225344 0.0138416 0.056204 0.0690407 -0.109222 0 0 -1.43822e-09 5e-05 1.46608e-10 
155 1 0.358058 0.017592 0.00723389 0.00602995 -0.00040671 -0.000775385 4.00782e-10 3.2242e-10 -8.18209e-10 5e-05 1.46608e-10 
156 1 0.357987 0.0166712 0.00812232 0.00550785 -0.000338098 -0.00120574 1.05333e-09 -1.80646e-10 -1.01881e-10 5e-05 1.46608e-10 
157 1 0.0219312 0.0187687 0.00551176 -3.8311e-14 8.16712e-14 2.95889e-13 -4.50917e-22 -2.22201e-22 3.10193e-24 5e-05 1.46608e-10 
158 1 0.358083 0.0169822 0.00774405 0.00590284 -0.000430675 -0.00121796 -5.52198e-10 -2.32105e-11 1.73704e-10 5e-05 1.46608e-10 
159 1 0.364368 0.0179853 0.00704033 0.00577894 -3.26132e-06 -2.76657e-05 -8.16747e-11 2.42795e-12 1.44512e-10 5e-05 1.46608e-10 
160 1 0.35805 0.0175227 0.00716205 0.00583003 0.000397634 -0.000572333 -7.92117e-11 6.64769e-11 -1.82349e-10 5e-05 1.46608e-10 
162 1 0.358327 0.0182536 0.00709722 0.00588659 0.000566933 -6.27868e-05 2.02041e-10 -3.40992e-10 1.11418e-10 5e-05 1.46608e-10 
164 1 0.357971 0.0173016 0.00755049 0.0059796 -3.807e-05 -0.00142948 -2.70878e-11 2.46432e-11 -3.1982e-10 5e-05 1.46608e-10 
165 1 0.358201 0.0179265 0.00700358 0.00584886 0.000574061 -6.69434e-05 1.51356e-10 2.16703e-10 2.27591e-11 5e-05 1.46608e-10 
166 1 0.364071 0.0176242 0.00714417 0.00615354 -0.000248461 0.000113664 3.13729e-11 -4.91494e-11 2.52511e-11 5e-05 1.46608e-10 
167 1 0.358105 0.0177821 0.00707224 0.00585734 0.000607015 -5.66984e-05 1.90042e-11 3.8292e-11 -2.02187e-10 5e-05 1.46608e-10 
168 1 0.358256 0.0181186 0.00701119 0.00586851 0.000550267 -6.87513e-05 -2.41249e-10 2.19356e-10 1.32659e-10 5e-05 1.46608e-10 
169 1 0.358126 0.0178829 0.00705434 0.00588942 0.000597436 -3.98934e-05 2.08207e-10 3.00241e-10 -9.5143e-11 5e-05 1.46608e-10 
170 1 0.35823 0.0180221 0.00700734 0.00586654 0.000557999 -6.65252e-05 -1.23999e-10 1.75047e-10 2.48516e-11 5e-05 1.46608e-10 
171 1 0.364321 0.0183874 0.00696737 0.00559839 -9.07269e-05 4.4951e-05 -6.33277e-11 6.75726e-11 -6.25571e-12 5e-05 1.46608e-10 
172 1 0.357897 0.0170237 0.00775088 0.00577857 -0.000389029 -0.00123109 -8.20334e-11 -1.41453e-10 1.34536e-10 5e-05 1.46608e-10 
173 1 0.364206 0.018258 0.00696204 0.00580167 -0.000186794 4.39662e-05 2.66145e-11 1.24386e-10 1.14525e-11 5e-05 1.46608e-10 
174 1 0.357463 0.0157386 0.00922226 0.00379127 -0.00516034 0.00677021 -3.84487e-10 2.4949e-11 -2.45566e-10 5e-05 1.46608e-10 
176 1 0.358119 0.0171075 0.00759245 0.00588235 -0.00043525 -0.00121014 2.97663e-10 -1.78115e-10 1.36741e-10 5e-05 1.46608e-10 
177 1 0.357913 0.0171229 0.00779867 0.00569428 -0.000380775 -0.00127097 -2.5774e-10 2.27392e-10 2.40897e-10 5e-05 1.46608e-10 
178 1 0.358208 0.0177862 0.00709775 0.00585955 0.000538692 -8.43024e-05 1.72565e-10 -6.55327e-11 1.38038e-11 5e-05 1.46608e-10 
179 1 0.358161 0.0178607 0.00714534 0.00588874 0.000548477 -3.98308e-05 -3.22915e-11 1.33319e-11 -1.67968e-10 5e-05 1.46608e-10 
182 1 0.364165 0.0180624 0.00695511 0.00579876 -0.000221734 4.23879e-05 2.75848e-12 -7.12853e-11 1.21526e-11 5e-05 1.46608e-10 
183 1 0.357952 0.0172026 0.00753324 0.00596798 -0.000420358 -0.00124384 -1.82708e-10 6.56822e-11 -7.33516e-12 5e-05 1.46608e-10 
184 1 0.364239 0.0179958 0.00695353 0.0057615 -0.000197266 5.50849e-05 -6.38738e-12 2.35896e-11 3.96006e-11 5e-05 1.46608e-10 
185 1 0.358212 0.0174392 0.00723479 0.00576376 1.95516e-05 -0.000669673 -7.42499e-10 -5.29463e-10 -4.32558e-10 5e-05 1.46608e-10 
186 1 0.35819 0.0181838 0.00704709 0.0058331 0.000527883 -7.14722e-05 3.40577e-11 5.38966e-10 1.32759e-10 5e-05 1.46608e-10 
187 1 0.364219 0.0178985 0.00696552 0.00575739 -0.000189389 7.00901e-05 4.27544e-11 -3.23192e-11 3.07394e-11 5e-05 1.46608e-10 
188 1 0.36406 0.0172398 0.00739296 0.00602604 -0.00020591 8.40923e-05 8.6857e-11 -9.13469e-11 5.59276e-11 5e-05 1.46608e-10 
189 1 0.364213 0.0181141 0.00704286 0.00576087 -0.000226881 3.41716e-05 5.70086e-11 1.51458e-11 1.13928e-11 5e-05 1.46608e-10 
190 1 0.352238 0.0184256 0.00689086 0.00571229 9.53073e-06 -9.72438e-05 -1.01818e-10 -2.00919e-10 8.23232e-11 5e-05 1.46608e-10 
191 1 0.363837 0.0167229 0.00772934 0.00589782 -0.000135809 6.04837e-05 5.18746e-11 5.59553e-11 1.43611e-11 5e-05 1.46608e-10 
192 1 0.357933 0.0171403 0.00760903 0.00588867 -0.000429159 -0.00122022 2.92334e-10 2.49745e-10 -2.5575e-10 5e-05 1.46608e-10 
193 1 0.364266 0.0185517 0.00697243 0.00555916 -0.000105959 4.41736e-05 2.47427e-11 1.45474e-10 9.47656e-12 5e-05 1.46608e-10 
194 1 0.358384 0.0182476 0.00701489 0.0058884 0.000524296 -7.36339e-05 4.51899e-11 -2.33293e-10 -6.91262e-12 5e-05 1.46608e-10 
195 1 0.358307 0.017958 0.00700329 0.00585655 0.000551619 -6.63659e-05 -7.07294e-11 5.01849e-11 5.77243e-11 5e-05 1.46608e-10 
196 1 0.358266 0.0176755 0.00706167 0.00584743 0.000501048 -0.000162315 -1.40691e-10 -3.25328e-10 -2.87129e-10 5e-05 1.46608e-10 
197 1 0.351912 0.0169904 0.00750856 0.00605857 1.16652e-05 0.000424382 5.62928e-11 -1.33815e-10 8.71185e-11 5e-05 1.46608e-10 
198 1 0.358337 0.0175488 0.00713777 0.00576143 0.000436507 -0.000193408 1.56773e-10 -8.37348e-11 2.17851e-10 5e-05 1.46608e-10 
199 1 0.358449 0.0180977 0.00700723 0.00587509 0.000531625 -6.84645e-05 1.95188e-10 -1.3944e-10 -2.46814e-11 5e-05 1.46608e-10 
200 1 0.357961 0.0165436 0.00827348 0.00598853 -0.000465398 -0.00120511 1.69866e-10 -1.1983e-10 5.68675e-11 5e-05 1.46608e-10 
201 1 0.358333 0.0180545 0.00700714 0.00587737 0.000544776 -6.8173e-05 -1.4007e-10 4.33517e-11 4.08383e-12 5e-05 1.46608e-10 
202 1 0.358098 0.0170455 0.00766821 0.00597487 -0.000450557 -0.00121691 -4.62047e-10 5.51092e-11 1.51688e-10 5e-05 1.46608e-10 
203 1 0.364146 0.0175682 0.00717982 0.00616098 -0.000238538 0.000104579 8.87362e-11 1.40257e-12 -1.69825e-11 5e-05 1.46608e-10 
204 1 0.358483 0.0182523 0.00701352 0.00588804 0.000567921 -6.99906e-05 8.30292e-11 -2.06447e-10 1.54174e-11 5e-05 1.46608e-10 
206 1 0.357881 0.0166542 0.00817189 0.00583709 -0.000431652 -0.0012116 1.89137e-10 -7.15667e-10 7.06265e-10 5e-05 1.46608e-10 
207 1 0.357555 0.0157743 0.00920615 0.00447634 -0.00625726 0.00814422 -5.76785e-10 3.81404e-10 -5.86389e-10 5e-05 1.46608e-10 
208 1 0.358361 0.0177243 0.00704648 0.00584235 0.000489967 -0.000143178 2.81063e-10 -1.73003e-10 -1.15923e-11 5e-05 1.46608e-10 
209 1 0.358033 0.0171526 0.00756655 0.00625934 -0.000430781 -0.00132034 1.74578e-10 3.4132e-10 -4.84534e-10 5e-05 1.46608e-10 
210 1 0.363911 0.0166661 0.00776526 0.00588969 -0.000162738 5.98593e-05 -7.67206e-13 2.64963e-11 -7.59534e-11 5e-05 1.46608e-10 
211 1 0.363932 0.0167482 0.00771234 0.00591361 -0.000169182 6.20973e-05 -7.76696e-11 9.15196e-11 5.26834e-11 5e-05 1.46608e-10 
212 1 0.358363 0.0181497 0.00701088 0.00589583 0.000532027 -6.94731e-05 6.96651e-11 -1.58628e-10 3.03408e-11 5e-05 1.46608e-10 
213 1 0.364125 0.0178719 0.00698352 0.00577336 -0.000203761 8.1222e-05 -5.52634e-11 -4.23314e-11 -1.9666e-11 5e-05 1.46608e-10 
214 1 0.364017 0.0170759 0.00749933 0.00600532 -0.000202719 8.29383e-05 1.50984e-10 8.66932e-11 -3.67373e-11 5e-05 1.46608e-10 
215 1 0.352143 0.017961 0.00704911 0.00578756 1.89886e-05 -0.000125724 2.77674e-11 -3.97101e-10 -1.26782e-10 5e-05 1.46608e-10 
216 1 0.357439 0.0156708 0.00929185 0.00372309 -0.00517677 0.00675442 -6.3525e-10 2.54591e-10 -3.15947e-11 5e-05 1.46608e-10 
217 1 0.364301 0.0182893 0.0069639 0.00578976 -0.000167208 4.40624e-05 -2.27268e-11 -1.09182e-12 -2.77055e-12 5e-05 1.46608e-10 
218 1 0.357991 0.0173273 0.00738165 0.00607448 -0.000411844 -0.00129779 6.38243e-10 1.61506e-11 -5.63266e-11 5e-05 1.46608e-10 
219 1 0.36411 0.0177051 0.00718876 0.00624408 -0.000175124 -7.19704e-05 1.28928e-10 -6.2548e-11 -3.12316e-11 5e-05 1.46608e-10 
220 1 0.358127 0.0174651 0.00718799 0.00593874 0.000129171 -0.00100649 2.51936e-10 -4.89995e-10 -7.57292e-10 5e-05 1.46608e-10 
222 1 0.364374 0.0177874 0.00703618 0.00601592 -0.000162814 5.63817e-05 -1.36828e-11 -3.88346e-11 -6.70907e-11 5e-05 1.46608e-10 
224 1 0.35792 0.0167787 0.00802032 0.00545791 -0.00032646 -0.00120331 1.11094e-10 -2.37897e-10 3.54224e-10 5e-05 1.46608e-10 
225 1 0.363975 0.016912 0.0076057 0.00595959 -0.000188789 7.15592e-05 6.37537e-11 9.43846e-11 -4.25884e-11 5e-05 1.46608e-10 
226 1 0.358392 0.017906 0.00699963 0.00586049 0.000536855 -6.92476e-05 -1.25275e-10 7.21133e-11 -6.82347e-12 5e-05 1.46608e-10 
227 1 0.352162 0.0180537 0.0070175 0.0057915 7.4819e-06 -9.99903e-05 -3.31033e-10 -6.84917e-10 -1.53403e-10 5e-05 1.46608e-10 
228 1 0.352103 0.0177754 0.00711242 0.00577148 0.00014701 0.00034521 3.50409e-10 6.65857e-10 5.52375e-10 5e-05 1.46608e-10 
229 1 0.358286 0.0182139 0.00701494 0.00590176 0.000533371 -7.1359e-05 -2.73578e-10 3.80762e-10 6.18642e-11 5e-05 1.46608e-10 
230 1 0.357805 0.0167109 0.00813001 0.0047627 -9.0315e-06 -0.0013615 1.13227e-09 -1.64728e-09 1.52243e-09 5e-05 1.46608e-10 
232 1 0.35827 0.0185718 0.00703103 0.00563572 0.000427652 -7.18616e-05 9.31832e-12 -2.10678e-10 -2.52242e-11 5e-05 1.46608e-10 
233 1 0.358085 0.0176845 0.0070503 0.00586792 0.0005463 -0.000292067 9.18211e-11 3.53098e-10 8.66127e-11 5e-05 1.46608e-10 
234 1 0.363943 0.0171325 0.00746327 0.00601757 -0.000186382 7.27586e-05 7.73689e-11 7.87936e-11 -4.67604e-11 5e-05 1.46608e-10 
235 1 0.357765 0.0165854 0.00828293 0.00611271 -0.000635211 -0.00104755 -3.7621e-11 -5.38198e-10 6.68663e-10 5e-05 1.46608e-10 
236 1 0.357858 0.016899 0.00790259 0.00576374 -0.000294531 -0.00133508 -4.43621e-10 6.93132e-11 8.95228e-11 5e-05 1.46608e-10 
237 1 0.357878 0.0169613 0.0078268 0.00575723 -0.00030413 -0.00130903 3.62534e-10 4.61507e-10 -3.52971e-10 5e-05 1.46608e-10 
239 1 0.351803 0.0165546 0.00772831 0.00603558 9.0382e-05 0.000381834 7.124e-12 -3.48135e-11 1.62588e-11 5e-05 1.46608e-10 
240 1 0.351868 0.016816 0.00759646 0.00604989 6.57803e-05 0.000395675 -1.43705e-10 -3.68045e-10 1.75445e-10 5e-05 1.46608e-10 
241 1 0.351781 0.0164674 0.00777226 0.0060286 9.10682e-05 0.00038095 -2.0419e-11 -4.79575e-11 2.4347e-11 5e-05 1.46608e-10 
242 1 0.357967 0.0166091 0.0081981 0.00580283 -0.00042881 -0.00119644 9.7049e-10 -2.5966e-10 -4.96077e-11 5e-05 1.46608e-10 
243 1 0.35825 0.0175901 0.007111 0.005783 0.000474795 -0.000210047 -4.02169e-10 -4.10515e-10 7.71358e-11 5e-05 1.46608e-10 
244 1 0.351825 0.0166417 0.00768436 0.00604474 8.93774e-05 0.000382749 2.44799e-12 -6.1033e-11 3.13795e-11 5e-05 1.46608e-10 
246 1 0.35202 0.0174262 0.00728882 0.00611733 0.000112129 0.000372568 1.59357e-10 -1.39196e-10 8.68262e-11 5e-05 1.46608e-10 
248 1 0.358147 0.0177166 0.00713514 0.00583638 0.000560375 -0.000109667 1.49193e-10 1.81346e-10 2.01954e-12 5e-05 1.46608e-10 
249 1 0.351955 0.0171647 0.00742067 0.00607075 3.8362e-05 0.000411497 2.52904e-11 4.8108e-10 -2.63811e-10 5e-05 1.46608e-10 
250 1 0.348034 0.0158993 0.0091852 0.477726 -0.297051 0.246736 0 0 -1.43822e-09 5e-05 1.46608e-10 
251 1 0.364125 0.0174862 0.00723304 0.00616609 -0.000228807 9.75576e-05 9.19983e-11 -6.5043e-11 4.71333e-11 5e-05 1.46608e-10 
252 1 0.352042 0.0175133 0.00724487 0.00612106 0.000113366 0.000378852 -2.02716e-10 -2.32706e-10 1.4091e-10 5e-05 1.46608e-10 
253 1 0.352219 0.0183326 0.00692253 0.00565412 -2.7814e-07 -9.3582e-05 -5.5271e-11 -1.36051e-10 7.44665e-11 5e-05 1.46608e-10 
254 1 0.351977 0.0172519 0.00737672 0.00610033 7.62904e-05 0.000396052 8.58682e-11 5.47432e-10 -2.75034e-10 5e-05 1.46608e-10 
255 1 0.35825 0.0184738 0.00702701 0.00558227 0.000299862 -7.36521e-05 7.11999e-11 -6.49432e-10 -6.5245e-11 5e-05 1.46608e-10 
256 1 0.35823 0.0183755 0.00702298 0.00587929 0.000515562 -7.31199e-05 3.0284e-11 1.4096e-10 -1.02615e-11 5e-05 1.46608e-10 
257 1 0.358056 0.0169223 0.00781939 0.00572158 -0.000369683 -0.00123734 -7.08755e-10 -3.75471e-11 1.27605e-10 5e-05 1.46608e-10 
258 1 0.358244 0.0178802 0.00709203 0.00587665 0.000596414 -5.84506e-05 7.07168e-11 3.62347e-11 8.40648e-11 5e-05 1.46608e-10 
259 1 0.352063 0.0176005 0.00720092 0.00613758 9.27037e-05 0.000394962 1.26563e-10 -1.01446e-10 9.4584e-11 5e-05 1.46608e-10 
260 1 0.358167 0.0178102 0.00699897 0.00587746 0.00059587 -6.12111e-05 2.73334e-11 2.24803e-10 -4.00411e-11 5e-05 1.46608e-10 
261 1 0.358114 0.0173148 0.00749753 0.0166908 0.00552262 -0.00920827 0 0 -1.43822e-09 5e-05 1.46608e-10 
262 1 0.358137 0.0176326 0.00718866 0.00582939 0.000523529 -0.000201308 1.04609e-10 4.88565e-11 -1.86734e-10 5e-05 1.46608e-10 
263 1 0.351933 0.0170775 0.00746461 0.00605712 9.41981e-06 0.000424833 1.38557e-10 2.40294e-10 -1.23446e-10 5e-05 1.46608e-10 