ITEM: TIMESTEP
12800000
ITEM: NUMBER OF ATOMS
287
ITEM: BOX BOUNDS ff ff ff
-0.02 0.43
-0.02 0.06
-0.02 0.07
ITEM: ATOMS id type x y z vx vy vz fx fy fz radius mass 
1 1 0.0874812 0.0163597 0.0077455 0.00569513 -0.000127575 0.000304917 -9.25552e-11 -7.11502e-12 -4.11167e-11 5e-05 1.46608e-10 
2 1 0.0880461 0.0176582 0.00722269 0.00686457 0.00110379 -0.00092263 1.46415e-10 -3.63247e-11 -1.43885e-10 5e-05 1.46608e-10 
3 1 0.0812879 0.0159419 0.00803003 0.0059045 -8.77121e-05 7.48331e-05 -2.25794e-10 9.7755e-11 6.69426e-11 5e-05 1.46608e-10 
4 1 0.0877995 0.0178168 0.00715898 0.00552572 -0.000351708 -6.78983e-05 -4.56318e-10 -6.18357e-10 -9.09026e-10 5e-05 1.46608e-10 
5 1 0.0873463 0.0161717 0.0078632 0.00562608 -0.000289297 7.70017e-05 -2.72536e-11 -1.49457e-10 2.17382e-10 5e-05 1.46608e-10 
6 1 0.093491 0.0167959 0.0075729 0.00566343 -0.00032593 -1.15377e-05 2.87166e-11 3.35592e-11 -2.22508e-11 5e-05 1.46608e-10 
7 1 0.0875293 0.0169652 0.00750143 0.00570329 -0.000115474 0.000299814 -2.5909e-10 2.27466e-10 -9.8453e-11 5e-05 1.46608e-10 
8 1 0.0872414 0.0158528 0.00823556 0.00610322 -0.000421125 0.000195696 -1.95754e-10 -1.14456e-10 1.2901e-10 5e-05 1.46608e-10 
9 1 0.0937397 0.0179163 0.00701584 0.00561597 -0.000163529 0.00019194 2.48861e-12 7.20222e-12 -1.58023e-12 5e-05 1.46608e-10 
10 1 0.0874676 0.0166922 0.00760968 0.00570388 -0.000120827 0.000301646 1.8068e-11 2.21507e-11 -6.8785e-12 5e-05 1.46608e-10 
11 1 0.0879632 0.0177101 0.00720187 0.00654133 0.000686929 -0.000703611 5.23778e-11 1.54427e-10 1.50292e-10 5e-05 1.46608e-10 
12 1 0.0814726 0.016731 0.00763957 0.00569403 6.19678e-05 0.000337244 -1.1788e-12 -4.04733e-11 1.85012e-11 5e-05 1.46608e-10 
13 1 0.0873276 0.0161068 0.00793883 0.00616111 -0.00045434 0.000231133 -6.4551e-11 -2.03097e-10 2.78025e-10 5e-05 1.46608e-10 
14 1 0.081203 0.0157038 0.00833667 0.00625081 -0.00012481 0.000143995 2.77752e-10 -5.77557e-10 -1.45329e-10 5e-05 1.46608e-10 
15 1 0.087684 0.0172699 0.0073844 0.00546728 1.07773e-05 0.000237524 -3.90962e-11 3.92937e-11 -2.78956e-11 5e-05 1.46608e-10 
16 1 0.0811817 0.0156514 0.00841916 0.00616929 -0.000106196 0.000109267 2.87809e-10 6.13688e-10 2.97056e-10 5e-05 1.46608e-10 
17 1 0.087447 0.0166013 0.00764576 0.00569738 -0.000131516 0.000305884 -4.59363e-11 5.14805e-11 -1.7279e-11 5e-05 1.46608e-10 
18 1 0.0936241 0.0173552 0.00717365 0.00559122 -0.000201897 0.000130645 -4.33006e-12 -8.25417e-12 3.92351e-11 5e-05 1.46608e-10 
19 1 0.0873061 0.0160433 0.00801302 0.00616665 -0.000448693 0.000222548 -1.82923e-11 -2.34861e-10 2.84542e-10 5e-05 1.46608e-10 
21 1 0.087461 0.0162687 0.00778162 0.00569253 -0.000135238 0.000303204 -8.32514e-11 1.79786e-12 2.41489e-11 5e-05 1.46608e-10 
22 1 0.0875695 0.0171473 0.00742917 0.00550079 -4.90626e-05 0.000263985 -1.37792e-10 1.30381e-10 -5.93528e-11 5e-05 1.46608e-10 
23 1 0.0816091 0.0169394 0.00754817 0.00572149 6.12367e-05 0.00033878 -5.43909e-11 2.8414e-11 -4.8043e-11 5e-05 1.46608e-10 
24 1 0.093681 0.0176286 0.0070776 0.00558767 -0.000158132 0.000189865 1.04592e-11 2.24919e-11 -5.97957e-12 5e-05 1.46608e-10 
25 1 0.0875087 0.0168742 0.00753751 0.00567753 -0.000154561 0.000315048 1.38615e-10 4.81379e-11 -1.35058e-11 5e-05 1.46608e-10 
26 1 0.0935686 0.0171138 0.00734294 0.00562154 -0.000308648 -2.22079e-05 -6.53408e-11 1.35482e-11 -1.10222e-11 5e-05 1.46608e-10 
27 1 0.081622 0.0172711 0.00748673 0.00540612 0.000129443 0.000301356 8.696e-11 1.25564e-10 -3.54359e-11 5e-05 1.46608e-10 
28 1 0.0877816 0.0177259 0.00720329 0.00533514 -1.46959e-05 0.000207774 1.34978e-10 -4.83798e-10 8.73796e-10 5e-05 1.46608e-10 
29 1 0.0872845 0.0159798 0.0080872 0.00614434 -0.000434975 0.000209391 4.98329e-11 -1.89456e-10 2.29173e-10 5e-05 1.46608e-10 
30 1 0.0877424 0.0175433 0.00727578 0.00547379 -9.72863e-05 0.000282216 1.95767e-10 -2.50092e-10 2.0208e-10 5e-05 1.46608e-10 
31 1 0.0875496 0.0170562 0.00746532 0.00558679 -7.75421e-05 0.000279026 -4.27042e-10 1.90223e-10 -1.01205e-10 5e-05 1.46608e-10 
32 1 0.0876647 0.0171787 0.00742061 0.0054935 2.49867e-05 0.000233414 -2.0726e-11 5.59009e-11 -2.21593e-11 5e-05 1.46608e-10 
33 1 0.0935108 0.0168753 0.00751545 0.00569617 -0.000330389 -1.02689e-05 8.97182e-11 -1.16398e-11 1.04729e-11 5e-05 1.46608e-10 
34 1 0.0874264 0.0165103 0.00768184 0.00569321 -0.000140181 0.000309108 -1.48663e-11 -1.22042e-11 9.46024e-12 5e-05 1.46608e-10 
35 1 0.0876448 0.0170876 0.00745678 0.00557107 1.08661e-05 0.000242385 -1.22219e-10 1.32795e-10 -6.19301e-11 5e-05 1.46608e-10 
36 1 0.093779 0.018108 0.00697467 0.00561247 -0.000161899 0.000191467 -1.26939e-12 1.48543e-12 -4.10812e-13 5e-05 1.46608e-10 
37 1 0.0876046 0.0169055 0.00752904 0.00575423 -6.82064e-05 0.000282699 -8.79165e-11 2.21997e-10 -8.98962e-11 5e-05 1.46608e-10 
38 1 0.0877786 0.0173012 0.00737585 0.00552259 7.53302e-06 0.0002414 2.76522e-10 -3.35295e-10 1.13937e-10 5e-05 1.46608e-10 
39 1 0.0937005 0.0177245 0.00705701 0.00560078 -0.000160725 0.00019089 -1.37687e-11 2.96745e-11 -7.18304e-12 5e-05 1.46608e-10 
41 1 0.0873853 0.0163284 0.00775399 0.0056987 -9.90835e-05 0.000292929 -4.75163e-11 -1.76746e-10 7.53995e-11 5e-05 1.46608e-10 
42 1 0.0875893 0.0172384 0.007393 0.00539884 -2.62441e-05 0.000250875 1.1832e-10 7.67378e-11 -3.15263e-11 5e-05 1.46608e-10 
44 1 0.0877981 0.0173923 0.00733965 0.00554664 -5.54598e-05 0.000268553 1.20854e-10 -2.75012e-10 1.09131e-10 5e-05 1.46608e-10 
45 1 0.0935306 0.0169547 0.00745799 0.00572738 -0.000332881 -9.90672e-06 1.34738e-11 -7.82244e-11 4.68019e-11 5e-05 1.46608e-10 
46 1 0.0936053 0.0172737 0.00722858 0.00560329 -0.00027182 2.9563e-05 -2.76088e-11 1.55758e-11 5.86862e-11 5e-05 1.46608e-10 
47 1 0.0874058 0.0164193 0.00771792 0.00570283 -0.000107226 0.000295919 -7.66834e-11 -1.13624e-10 4.89872e-11 5e-05 1.46608e-10 
48 1 0.0876281 0.0174207 0.00732057 0.00545344 2.21544e-06 0.000242022 6.73236e-11 1.75305e-10 -1.12186e-10 5e-05 1.46608e-10 
49 1 0.0935866 0.0171936 0.00728533 0.0056113 -0.000307703 -2.17843e-05 -3.2763e-11 -6.82128e-13 1.50111e-11 5e-05 1.46608e-10 
50 1 0.0876866 0.0176942 0.00721195 0.00543073 -0.000151228 0.000289887 -7.49296e-11 -8.23709e-10 -1.85168e-10 5e-05 1.46608e-10 
51 1 0.0876671 0.0176031 0.00724816 0.00545547 -9.94316e-05 0.000291208 1.00737e-10 -2.07979e-10 1.49885e-10 5e-05 1.46608e-10 
52 1 0.081452 0.0166423 0.00768089 0.00569001 6.66389e-05 0.000334401 2.47521e-11 -2.40313e-11 2.36966e-11 5e-05 1.46608e-10 
53 1 0.093642 0.0174368 0.00711879 0.00559265 -0.000161092 0.000191466 2.32808e-12 -1.60792e-11 8.4527e-12 5e-05 1.46608e-10 
54 1 0.0874426 0.0161924 0.00784357 0.00580714 -0.000217416 0.000239653 -4.52052e-11 -6.53526e-11 1.66639e-10 5e-05 1.46608e-10 
55 1 0.0812449 0.0158092 0.00817199 0.00621604 -0.000229863 4.17934e-05 3.34671e-10 -4.5076e-10 2.11321e-10 5e-05 1.46608e-10 
56 1 0.0876249 0.0169965 0.00749293 0.00568485 -3.29625e-05 0.000265254 -2.43526e-10 2.70273e-10 -1.32624e-10 5e-05 1.46608e-10 
57 1 0.0935496 0.0170343 0.00740046 0.00564822 -0.000313966 -1.95666e-05 -7.01134e-11 -1.20638e-11 7.09543e-12 5e-05 1.46608e-10 
59 1 0.0876995 0.016936 0.00752083 0.00572433 -1.03401e-05 0.000257732 2.44159e-10 6.87461e-10 -2.697e-10 5e-05 1.46608e-10 
60 1 0.0877197 0.0170274 0.00748458 0.00564687 9.34194e-05 0.000212393 -2.83747e-10 2.62837e-10 -1.14268e-10 5e-05 1.46608e-10 
61 1 0.0873647 0.0162374 0.00779007 0.00569704 -9.41758e-05 0.000284906 -8.3473e-11 -2.55728e-10 9.87053e-11 5e-05 1.46608e-10 
62 1 0.0878176 0.0174835 0.00730344 0.00551932 -5.80485e-05 0.000267679 1.15652e-10 -4.77193e-10 1.58299e-10 5e-05 1.46608e-10 
63 1 0.0877364 0.0177264 0.00729248 0.0054031 5.96922e-06 0.000225371 -3.84372e-10 2.72561e-11 1.09032e-10 5e-05 1.46608e-10 
64 1 0.0936615 0.0175327 0.0070982 0.00558997 -0.000159713 0.00019013 2.60757e-11 -2.4729e-13 2.30884e-13 5e-05 1.46608e-10 
65 1 0.0816906 0.0176142 0.00732312 0.00547757 4.34332e-05 0.000323405 -1.27383e-10 -1.29244e-10 5.2458e-11 5e-05 1.46608e-10 
66 1 0.0817186 0.0172966 0.00748234 0.00542453 6.46848e-05 0.000319891 -1.44604e-10 7.24278e-11 1.10087e-11 5e-05 1.46608e-10 
67 1 0.0879343 0.0176071 0.00725388 0.00573415 0.000399376 -0.000558926 1.10553e-09 -1.15996e-09 3.81649e-10 5e-05 1.46608e-10 
68 1 0.0878574 0.0176662 0.00722954 0.00567343 1.70718e-05 -0.000856833 -9.61439e-11 5.84851e-10 3.14267e-09 5e-05 1.46608e-10 
69 1 0.0875429 0.0166326 0.00763727 0.00571367 -0.000115826 0.000300313 2.04827e-11 8.68014e-11 -3.29252e-11 5e-05 1.46608e-10 
70 1 0.0937201 0.0178204 0.00703642 0.00561779 -0.000163996 0.000192051 -6.87602e-12 1.62105e-11 -3.87024e-12 5e-05 1.46608e-10 
71 1 0.0812238 0.0157562 0.00825412 0.00626667 -0.000109887 0.000138468 2.86638e-10 -2.78064e-10 -1.24977e-10 5e-05 1.46608e-10 
72 1 0.0878371 0.0175747 0.00726722 0.00548248 -0.000110704 0.000284086 -3.94762e-11 -3.02177e-10 2.26574e-10 5e-05 1.46608e-10 
73 1 0.0874882 0.0167832 0.00757359 0.00572048 -3.5758e-05 0.000268095 1.82078e-13 -2.08593e-12 8.75431e-13 5e-05 1.46608e-10 
74 1 0.0877034 0.017361 0.00734819 0.00548399 -1.89774e-05 0.000249828 1.06254e-10 -2.51124e-11 1.99468e-11 5e-05 1.46608e-10 
76 1 0.0817459 0.0175624 0.00725792 0.00549576 5.3563e-05 0.000328679 -1.02568e-10 -6.55788e-11 -1.74518e-11 5e-05 1.46608e-10 
77 1 0.0878881 0.0183712 0.00690243 0.00522512 0.00021754 -4.7379e-05 -1.09487e-09 -1.5817e-10 2.76311e-10 5e-05 1.46608e-10 
78 1 0.0813084 0.0160267 0.0079812 0.00561981 -5.3536e-05 4.09441e-05 -1.53104e-10 2.00571e-10 5.14734e-11 5e-05 1.46608e-10 
79 1 0.081589 0.0170196 0.0076044 0.00567927 0.000123089 0.000218981 5.27702e-10 -2.75984e-10 3.56228e-10 5e-05 1.46608e-10 
80 1 0.087742 0.0179506 0.00709662 0.0055204 -0.000374385 -4.3763e-05 2.19082e-10 4.19295e-10 1.06281e-12 5e-05 1.46608e-10 
81 1 0.0815191 0.0169594 0.0076428 0.00561499 0.000190905 0.000294612 -8.04989e-10 -7.67146e-10 1.43959e-10 5e-05 1.46608e-10 
82 1 0.0815342 0.0169971 0.00751562 0.00571014 5.79719e-05 0.000345277 -2.11861e-10 -2.33579e-10 1.12526e-10 5e-05 1.46608e-10 
83 1 0.0816423 0.0167037 0.00766363 0.00568335 3.90504e-05 0.000347677 1.41213e-11 -2.96364e-11 1.39926e-11 5e-05 1.46608e-10 
84 1 0.0937594 0.0180121 0.00699526 0.0056142 -0.000162852 0.000191698 4.93006e-12 6.13019e-12 -1.08181e-12 5e-05 1.46608e-10 
85 1 0.0814244 0.0161409 0.00792012 0.00562069 2.46884e-05 0.00035566 1.24097e-10 -2.866e-13 7.48827e-11 5e-05 1.46608e-10 
86 1 0.0877619 0.0176345 0.00723958 0.00546494 -0.000112089 0.000293242 -1.47765e-10 -4.4589e-10 9.67731e-11 5e-05 1.46608e-10 
87 1 0.0876792 0.0168449 0.00755697 0.00572544 -7.22048e-05 0.000283122 1.29571e-10 1.82483e-10 -6.87109e-11 5e-05 1.46608e-10 
88 1 0.0878006 0.0182137 0.0069649 0.00559404 -0.000284734 -0.000215504 4.23251e-10 4.8444e-10 2.38283e-10 5e-05 1.46608e-10 
89 1 0.0877613 0.0180393 0.00705454 0.00552676 -0.000341914 -9.84055e-05 3.71182e-10 9.42285e-10 -4.68069e-10 5e-05 1.46608e-10 
90 1 0.0880121 0.0175491 0.00727797 0.0058132 0.000733532 -0.000681766 -5.81829e-10 4.96283e-10 -1.85329e-10 5e-05 1.46608e-10 
91 1 0.0814931 0.0168197 0.00759825 0.0057013 5.89742e-05 0.000340133 -1.41739e-11 -7.64131e-11 2.319e-11 5e-05 1.46608e-10 
92 1 0.0879244 0.0178732 0.00712422 0.00646678 0.0016208 -0.00115278 -1.46887e-10 -3.17166e-10 -1.69376e-10 5e-05 1.46608e-10 
93 1 0.0878976 0.0181903 0.00697054 0.00576003 0.000152608 -0.000400118 -1.44266e-10 -3.99716e-11 1.17848e-10 5e-05 1.46608e-10 
94 1 0.0879994 0.0182271 0.00694685 0.00622106 0.000396068 -0.00051116 -3.83782e-10 4.60546e-10 -4.52151e-10 5e-05 1.46608e-10 
95 1 0.0877254 0.0178832 0.00716859 0.00552522 -0.000180578 0.000192098 -5.38998e-10 -4.78442e-10 9.41646e-10 5e-05 1.46608e-10 
96 1 0.0879566 0.0180462 0.00703779 0.00603046 0.000611517 -0.000632183 -3.65722e-10 3.99485e-10 -1.6507e-10 5e-05 1.46608e-10 
97 1 0.0814109 0.0164648 0.00776353 0.00568358 7.33744e-05 0.000331873 -7.99841e-11 -1.29558e-10 2.01333e-11 5e-05 1.46608e-10 
98 1 0.0878188 0.0183014 0.00692054 0.00562487 -0.000250893 -0.000205208 -3.22676e-10 2.90618e-10 2.37622e-11 5e-05 1.46608e-10 
99 1 0.0817097 0.0173871 0.00744062 0.00546695 7.23408e-05 0.000318988 -1.08776e-10 2.18577e-11 1.53942e-11 5e-05 1.46608e-10 
100 1 0.0878733 0.0173325 0.00736732 0.00559445 -3.81592e-05 0.000263377 1.31978e-10 -5.45033e-10 2.00882e-10 5e-05 1.46608e-10 
101 1 0.0815386 0.016865 0.00767492 0.00570076 5.61397e-05 0.000342119 1.13391e-10 2.4917e-11 4.46945e-11 5e-05 1.46608e-10 
102 1 0.0643568 0.0187248 0.00531097 4.47773e-15 1.04356e-14 8.29571e-14 1.38266e-21 -3.74403e-22 -2.68834e-23 5e-05 1.46608e-10 
103 1 0.24257 0.0191927 0.00520306 1.19201e-22 4.86658e-23 1.23839e-22 0 0 0 5e-05 1.46608e-10 
104 1 0.0817628 0.0172378 0.00741464 0.00540554 4.952e-05 0.000323405 -1.4773e-10 6.25145e-11 -2.32498e-11 5e-05 1.46608e-10 
105 1 0.0813698 0.0162874 0.00784617 0.00566836 6.79862e-05 0.000332538 2.13179e-11 -5.23545e-11 3.51449e-11 5e-05 1.46608e-10 
106 1 0.0818378 0.0171802 0.00744716 0.00539037 2.2231e-05 0.000336924 -6.07653e-11 -3.86689e-11 -7.18746e-12 5e-05 1.46608e-10 
107 1 0.081329 0.0161124 0.00793397 0.00555966 -3.52316e-05 7.49619e-05 -1.41805e-10 1.21513e-10 -6.11699e-11 5e-05 1.46608e-10 
108 1 0.0875841 0.0168145 0.00756512 0.00573406 -8.52693e-05 0.000288762 -6.39285e-11 2.74215e-10 -1.11088e-10 5e-05 1.46608e-10 
109 1 0.0876476 0.0175119 0.00728436 0.00546319 -4.80592e-05 0.000263982 2.41052e-10 3.25395e-10 -5.5651e-11 5e-05 1.46608e-10 
110 1 0.0880776 0.0181695 0.00697072 0.00698791 0.00103608 -0.000886708 -1.64011e-10 6.5496e-11 2.12126e-10 5e-05 1.46608e-10 
111 1 0.0878555 0.0184808 0.00699205 0.00573634 -0.00035424 0.000634342 -4.77273e-10 2.12559e-10 -8.97996e-10 5e-05 1.46608e-10 
112 1 0.0814315 0.0165535 0.00772221 0.00568535 7.22868e-05 0.00033265 -3.65396e-11 -7.22587e-11 4.69875e-11 5e-05 1.46608e-10 
113 1 0.0821187 0.0177265 0.00720269 0.00567379 0.00257524 -0.000867717 -4.30079e-10 3.21465e-10 -1.92551e-10 5e-05 1.46608e-10 
114 1 0.0818478 0.0175071 0.00738636 0.00549313 3.12203e-05 0.000335727 -2.5146e-10 7.74046e-11 -6.06232e-11 5e-05 1.46608e-10 
115 1 0.0877229 0.0174522 0.00731198 0.00549768 -5.68041e-05 0.000267742 2.83331e-10 -1.43521e-11 -7.67709e-11 5e-05 1.46608e-10 
116 1 0.0875635 0.0167235 0.0076012 0.00571799 -0.000101795 0.000294821 -2.08433e-10 1.75783e-10 -8.97081e-11 5e-05 1.46608e-10 
117 1 0.0874229 0.0161243 0.00791416 0.00612064 -0.000350219 0.000195776 -3.57717e-11 -2.2186e-10 2.17149e-10 5e-05 1.46608e-10 
118 1 0.0812694 0.0158682 0.00809501 0.00623879 -0.000164552 8.67889e-05 -5.68585e-10 -9.98569e-11 2.16743e-10 5e-05 1.46608e-10 
119 1 0.0877396 0.0171185 0.0074484 0.00555757 7.98244e-05 0.000213966 5.63606e-11 5.65598e-10 -2.25574e-10 5e-05 1.46608e-10 
120 1 0.087263 0.0159163 0.00816138 0.00613013 -0.000428119 0.000202187 -1.14712e-11 -1.56168e-10 1.7674e-10 5e-05 1.46608e-10 
121 1 0.0872199 0.0157893 0.00830974 0.00607625 -0.000420301 0.000195407 -2.72076e-11 -9.44619e-11 1.05378e-10 5e-05 1.46608e-10 
122 1 0.0880754 0.0182901 0.00691184 0.00523677 0.00132702 -0.00102243 4.99449e-09 -4.48663e-09 2.47031e-09 5e-05 1.46608e-10 
123 1 0.0814652 0.0163184 0.00783742 0.00568185 7.36776e-05 0.000330621 -2.04883e-10 -2.24115e-10 9.54805e-11 5e-05 1.46608e-10 
124 1 0.0878583 0.018015 0.00705849 0.00565217 8.75227e-05 -0.000346783 2.2804e-10 -2.09452e-10 7.95734e-11 5e-05 1.46608e-10 
125 1 0.0874015 0.0160608 0.00798836 0.00617652 -0.000396902 0.000170993 5.2437e-11 -2.64653e-10 2.78367e-10 5e-05 1.46608e-10 
126 1 0.0876087 0.0173295 0.00735679 0.00535532 -9.75439e-05 0.000277303 1.24558e-10 7.96962e-10 -3.12666e-10 5e-05 1.46608e-10 
127 1 0.0813904 0.0163761 0.00780485 0.00567335 7.08804e-05 0.000330686 -1.56088e-11 -1.05345e-10 5.66947e-11 5e-05 1.46608e-10 
128 1 0.0877061 0.0177854 0.00717575 0.00535904 -0.000166684 0.00033194 -5.2705e-10 -1.15812e-09 9.37669e-10 5e-05 1.46608e-10 
129 1 0.0877804 0.018126 0.00700852 0.00555737 -0.000296583 -0.00014644 7.98257e-10 8.07494e-10 -7.16539e-10 5e-05 1.46608e-10 
130 1 0.0816291 0.0170283 0.00750672 0.00551205 0.000145215 0.000285794 3.91639e-11 4.21597e-10 -1.4792e-10 5e-05 1.46608e-10 
131 1 0.0817985 0.017432 0.00743023 0.00547543 4.61936e-05 0.000333302 -1.2903e-10 4.65878e-11 -3.3086e-11 5e-05 1.46608e-10 
132 1 0.0878334 0.0179122 0.00711018 0.00582963 0.000257172 -0.000429861 6.10246e-11 6.38655e-10 -1.54195e-10 5e-05 1.46608e-10 
133 1 0.0875969 0.016481 0.00770129 0.00571859 -0.000129572 0.000306076 1.31573e-10 1.23122e-10 -4.89459e-11 5e-05 1.46608e-10 
134 1 0.0877592 0.01721 0.00741207 0.00552363 1.41897e-05 0.000239563 -8.81064e-11 -6.05189e-11 1.88613e-11 5e-05 1.46608e-10 
135 1 0.0873798 0.0159973 0.00806253 0.00613376 -0.000393174 0.000160967 9.6628e-11 -2.63045e-10 3.13275e-10 5e-05 1.46608e-10 
136 1 0.0814039 0.0160542 0.00796563 0.00557989 -9.54837e-05 0.000111704 -2.06742e-11 -1.50404e-10 -4.1295e-10 5e-05 1.46608e-10 
137 1 0.0878736 0.0185669 0.00691636 0.0062175 0.000164453 0.000243832 1.18907e-10 9.59765e-10 7.61976e-11 5e-05 1.46608e-10 
138 1 0.0875224 0.0165416 0.00767335 0.00571533 -0.000126087 0.000305028 1.32946e-10 6.18845e-11 -2.58787e-11 5e-05 1.46608e-10 
140 1 0.0879893 0.0183374 0.00689344 0.00482178 0.000704561 -0.000421275 -2.02816e-09 -1.07989e-09 2.84531e-09 5e-05 1.46608e-10 
141 1 0.0814447 0.0162297 0.00787875 0.00569449 0.000110806 0.000312118 7.67555e-11 -1.67883e-10 1.04379e-10 5e-05 1.46608e-10 
142 1 0.0817237 0.0170595 0.00749785 0.00531451 9.39168e-05 0.000299734 4.39985e-10 4.19673e-10 -1.82109e-10 5e-05 1.46608e-10 
143 1 0.0813494 0.0161998 0.00788978 0.00565197 1.55209e-05 0.000233959 -2.85751e-11 -6.65428e-12 -8.00936e-11 5e-05 1.46608e-10 
144 1 0.0818669 0.017596 0.00734476 0.00554468 3.06134e-05 0.000346007 -1.52155e-10 4.12197e-11 9.53998e-12 5e-05 1.46608e-10 
146 1 0.0817372 0.0167341 0.00765512 0.00568148 3.42518e-05 0.000349664 -5.38326e-11 -7.73068e-11 3.61301e-11 5e-05 1.46608e-10 
147 1 0.0813833 0.0159694 0.00801444 0.00556086 -0.000112107 7.92961e-05 -1.68893e-10 2.99814e-10 -4.56254e-11 5e-05 1.46608e-10 
148 1 0.0815931 0.0172637 0.00739127 0.00542533 0.000115505 0.000296974 2.2673e-10 5.69257e-11 -3.0814e-11 5e-05 1.46608e-10 
149 1 0.0878715 0.0184694 0.00689399 0.00450496 0.000220669 0.000228673 -1.87975e-09 -4.67853e-10 8.80304e-10 5e-05 1.46608e-10 
150 1 0.0815475 0.0166733 0.00767214 0.00568736 5.14827e-05 0.000341932 4.05123e-11 3.19275e-11 -1.13443e-11 5e-05 1.46608e-10 
151 1 0.0819323 0.0172117 0.00743814 0.00540879 3.78321e-06 0.000346852 -9.21966e-11 6.59992e-11 -3.11401e-11 5e-05 1.46608e-10 
153 1 0.0815064 0.0164959 0.00775478 0.00567663 5.75009e-05 0.000338473 -2.13069e-10 -1.20608e-10 4.42142e-11 5e-05 1.46608e-10 
154 1 0.0816876 0.0172952 0.00738219 0.00542778 8.25238e-05 0.000309908 -9.49975e-11 1.40298e-10 -7.26895e-11 5e-05 1.46608e-10 
155 1 0.0817674 0.0176557 0.00721872 0.00554348 4.70408e-05 0.000321587 -1.13468e-11 -1.70476e-10 4.26184e-11 5e-05 1.46608e-10 
156 1 0.0816683 0.0172063 0.00742372 0.00541412 9.31049e-05 0.000309366 1.3254e-10 -4.79414e-11 4.33276e-11 5e-05 1.46608e-10 
157 1 0.0219312 0.0187687 0.00551176 -3.82386e-14 8.17159e-14 2.95886e-13 7.85822e-24 -3.14846e-22 8.62336e-23 5e-05 1.46608e-10 
158 1 0.0817822 0.0173267 0.00737315 0.00547765 9.12586e-05 0.000309591 -3.03253e-11 2.62142e-11 -9.9234e-12 5e-05 1.46608e-10 
159 1 0.0878809 0.0177628 0.00718065 0.00612508 0.000189312 -0.000469684 -2.34911e-10 -1.64165e-10 -6.07906e-10 5e-05 1.46608e-10 
160 1 0.0816705 0.0176193 0.00722531 0.00550572 7.58576e-05 0.000320349 -8.99295e-11 -1.78575e-10 7.81082e-11 5e-05 1.46608e-10 
162 1 0.081707 0.0173841 0.0073407 0.00547481 9.46013e-05 0.000309514 -9.57488e-11 -4.92823e-11 2.25495e-11 5e-05 1.46608e-10 
164 1 0.0818429 0.0179951 0.00705579 0.00537035 0.000879743 -7.67641e-05 -5.33404e-11 2.97175e-10 -8.25334e-11 5e-05 1.46608e-10 
165 1 0.0819912 0.0174797 0.00731308 0.00548507 -2.15091e-05 0.000363408 -3.30142e-11 1.08809e-10 -3.71243e-11 5e-05 1.46608e-10 
166 1 0.0875559 0.0162991 0.00777346 0.00570353 -0.000146221 0.00031529 5.73255e-11 1.02433e-10 3.02669e-11 5e-05 1.46608e-10 
167 1 0.0815269 0.0165846 0.00771346 0.00568713 5.84379e-05 0.000338541 1.18623e-10 7.66033e-11 -2.51388e-11 5e-05 1.46608e-10 
168 1 0.0818573 0.0172693 0.00740561 0.00545104 5.4748e-05 0.000325038 -2.70854e-11 6.91621e-11 -2.90043e-11 5e-05 1.46608e-10 
169 1 0.0820114 0.0178593 0.00713192 0.00468416 0.00169612 -0.000516882 2.16446e-10 7.88861e-11 2.53056e-11 5e-05 1.46608e-10 
170 1 0.0818966 0.0174477 0.00732235 0.0054768 1.94143e-05 0.00034198 -1.6376e-10 2.61416e-11 -1.00856e-11 5e-05 1.46608e-10 
171 1 0.0875763 0.0163901 0.00773736 0.00571334 -0.000140682 0.000310283 -9.42412e-11 1.656e-10 -5.91012e-11 5e-05 1.46608e-10 
172 1 0.0819717 0.0173902 0.00735484 0.00548331 2.61059e-05 0.000340501 -9.81495e-11 1.33943e-10 -7.2019e-11 5e-05 1.46608e-10 
173 1 0.0881063 0.0177952 0.00715231 0.00787829 0.00430083 -0.00254446 1.38491e-09 -5.71573e-10 2.84659e-10 5e-05 1.46608e-10 
174 1 0.0818214 0.0175051 0.00728992 0.0054874 3.47605e-05 0.000336604 -1.59981e-10 -1.97733e-11 -3.94892e-11 5e-05 1.46608e-10 
175 1 0.0755801 0.0171599 0.00725301 0.00572136 0.000554821 -0.000187508 5.48498e-11 5.34043e-11 -4.14732e-11 5e-05 1.46608e-10 
176 1 0.0816488 0.0171172 0.00746528 0.00537971 0.000116774 0.000294928 3.48759e-10 4.4781e-10 -2.10039e-10 5e-05 1.46608e-10 
177 1 0.0817092 0.0177971 0.00714233 0.00553917 4.2061e-05 0.000335302 1.66424e-10 3.94035e-11 -7.647e-12 5e-05 1.46608e-10 
178 1 0.0820878 0.0175349 0.00729277 0.00588702 0.000344852 0.000214306 1.26088e-10 -1.48485e-11 6.75319e-12 5e-05 1.46608e-10 
179 1 0.0820224 0.0177479 0.00718616 0.00547867 0.00185633 -0.00053304 4.08284e-11 -3.71087e-10 2.89685e-10 5e-05 1.46608e-10 
181 1 0.0816317 0.0174415 0.00730828 0.00547304 0.000106012 0.000302428 -9.25384e-11 1.39577e-11 -1.46343e-11 5e-05 1.46608e-10 
182 1 0.0875018 0.0164507 0.00770943 0.00570989 -0.000128677 0.000306538 6.45283e-11 2.68442e-11 -2.67588e-11 5e-05 1.46608e-10 
183 1 0.0818767 0.0173583 0.00736409 0.00546285 3.94034e-05 0.000333472 8.16515e-11 7.91239e-11 -4.18769e-11 5e-05 1.46608e-10 
184 1 0.0878665 0.0178948 0.0072029 0.00681902 0.000660413 -0.000698 5.81848e-10 -4.17426e-10 -4.39808e-10 5e-05 1.46608e-10 
185 1 0.0815738 0.0171748 0.00743277 0.00540144 0.00012495 0.000293237 -2.27596e-10 9.26431e-11 -1.58638e-10 5e-05 1.46608e-10 
186 1 0.0816124 0.0173526 0.00734977 0.00544555 0.000111697 0.000296883 -4.37206e-11 -4.55955e-12 -4.47073e-11 5e-05 1.46608e-10 
187 1 0.0878538 0.0172413 0.00740353 0.00557647 -4.93802e-05 0.000267654 -6.80324e-11 -2.87047e-10 1.14236e-10 5e-05 1.46608e-10 
188 1 0.0879159 0.0182782 0.00692651 0.00578207 0.000147613 -0.00035055 -1.60594e-10 4.09231e-10 -1.10862e-09 5e-05 1.46608e-10 
189 1 0.0878928 0.0174237 0.00733111 0.00552155 -6.36048e-05 0.000271633 7.22918e-10 -8.3592e-11 6.01322e-11 5e-05 1.46608e-10 
190 1 0.075688 0.0172747 0.00718643 0.00572545 0.00051527 -0.000158918 1.15821e-10 -1.51879e-11 4.14497e-11 5e-05 1.46608e-10 
191 1 0.0878953 0.0186643 0.00692164 0.00611119 0.000143753 0.000355533 -6.20247e-10 5.09536e-10 -3.84973e-10 5e-05 1.46608e-10 
192 1 0.0817986 0.0170017 0.00753043 0.00530596 0.000124972 0.000281825 -1.13556e-10 -1.20384e-10 4.36271e-11 5e-05 1.46608e-10 
193 1 0.0876586 0.0167539 0.00759305 0.00572749 -9.81792e-05 0.000293962 -3.02321e-10 2.2312e-10 -1.00439e-10 5e-05 1.46608e-10 
194 1 0.0816629 0.0167924 0.00762231 0.00569058 3.80312e-05 0.000348216 6.79654e-12 -4.51543e-11 6.78108e-12 5e-05 1.46608e-10 
195 1 0.0820053 0.0175837 0.00726402 0.00582878 0.000285638 0.000238379 3.57676e-11 -6.41355e-11 7.83745e-12 5e-05 1.46608e-10 
196 1 0.0811608 0.0155998 0.00850223 0.00620152 0.000321493 0.000301607 -5.60052e-10 -4.13825e-10 -8.43159e-10 5e-05 1.46608e-10 
197 1 0.0756385 0.0174439 0.00718113 0.00574987 0.000517292 -0.000271948 1.2426e-10 -8.17902e-11 -3.04605e-11 5e-05 1.46608e-10 
198 1 0.081554 0.0171075 0.00757185 0.00551291 6.83273e-05 0.00030327 7.2765e-10 -4.69295e-12 -6.65096e-11 5e-05 1.46608e-10 
199 1 0.0817263 0.017473 0.00729921 0.00547548 6.91585e-05 0.000319081 -1.20308e-11 -2.62222e-11 1.60361e-11 5e-05 1.46608e-10 
200 1 0.0815137 0.0169084 0.00755693 0.00571603 5.72015e-05 0.000348753 2.20312e-11 -1.90971e-10 -1.15265e-11 5e-05 1.46608e-10 
201 1 0.0820219 0.018074 0.0070294 0.00503344 0.00185047 -0.000557868 8.2325e-10 -2.11184e-10 4.62927e-10 5e-05 1.46608e-10 
202 1 0.0818182 0.017091 0.0074888 0.00531749 -7.70952e-06 0.00034671 1.96821e-11 -5.86819e-11 2.65283e-11 5e-05 1.46608e-10 
203 1 0.0879123 0.0175149 0.00729489 0.00552712 -7.7685e-05 0.000277278 3.21561e-10 6.61911e-11 -7.24291e-11 5e-05 1.46608e-10 
204 1 0.0815886 0.0168507 0.00758949 0.00570212 4.46469e-05 0.000346868 -2.68126e-11 -7.41572e-11 7.49675e-11 5e-05 1.46608e-10 
205 1 0.08184 0.0178045 0.00714721 0.00500384 0.000524243 6.51627e-05 2.65326e-10 1.85613e-10 -1.07313e-10 5e-05 1.46608e-10 
206 1 0.0818408 0.0175945 0.00724822 0.00554261 4.2919e-05 0.000338364 -1.17605e-11 -5.19004e-11 2.81307e-11 5e-05 1.46608e-10 
207 1 0.0814858 0.0164071 0.00779611 0.0056844 7.54561e-05 0.000330813 -9.63885e-11 -2.03603e-10 1.13673e-10 5e-05 1.46608e-10 
208 1 0.0818016 0.0174158 0.0073316 0.00546794 5.01648e-05 0.000329132 -3.13831e-11 5.04242e-12 -1.26469e-11 5e-05 1.46608e-10 
209 1 0.081568 0.016762 0.00763082 0.00569177 4.7461e-05 0.000344538 -5.6598e-12 -4.51111e-11 2.79356e-11 5e-05 1.46608e-10 
210 1 0.0876811 0.0174431 0.00740237 0.00545089 -2.56172e-05 0.000255684 1.96698e-10 -1.34601e-10 -1.92448e-10 5e-05 1.46608e-10 
211 1 0.0879795 0.018137 0.00699208 0.00624969 0.000713799 -0.00069772 -5.41737e-10 -1.48242e-10 2.60049e-11 5e-05 1.46608e-10 
212 1 0.0819161 0.0175372 0.00728061 0.00551733 1.16769e-05 0.000349803 -3.90148e-11 3.15915e-11 1.42206e-11 5e-05 1.46608e-10 
213 1 0.0878344 0.0171501 0.00743975 0.0054954 -3.30251e-05 0.000256961 -8.02208e-11 1.24602e-10 -5.18986e-11 5e-05 1.46608e-10 
214 1 0.0878775 0.0181027 0.00701449 0.00562383 0.000159551 -0.000384589 1.38087e-10 -1.9535e-10 7.98383e-11 5e-05 1.46608e-10 
215 1 0.075656 0.0171051 0.00728804 0.00576559 0.00057264 -0.000198968 -1.09514e-10 -6.41509e-11 3.04306e-11 5e-05 1.46608e-10 
216 1 0.0816898 0.0177082 0.00718382 0.00553422 5.67912e-05 0.000331633 -3.40394e-11 -1.32547e-10 9.12165e-11 5e-05 1.46608e-10 
217 1 0.0876175 0.016572 0.0076652 0.00571615 -0.000117761 0.000301392 1.64978e-10 1.7332e-10 -5.44249e-11 5e-05 1.46608e-10 
218 1 0.0817781 0.0178579 0.00720481 0.00518818 0.00017154 0.000565229 3.73685e-10 -5.62252e-11 1.72698e-10 5e-05 1.46608e-10 
219 1 0.0878322 0.0183765 0.0069852 0.00598348 -0.000329354 -0.000145762 9.85358e-10 5.58074e-10 -8.64674e-11 5e-05 1.46608e-10 
220 1 0.0816511 0.0175304 0.00726679 0.00548748 9.02434e-05 0.00031116 5.34684e-11 -4.22621e-11 2.4691e-12 5e-05 1.46608e-10 
221 1 0.0755977 0.0168516 0.00743956 0.00579165 0.000529786 -0.00017415 -4.36751e-11 -5.4557e-11 5.70221e-11 5e-05 1.46608e-10 
222 1 0.087638 0.016663 0.00762913 0.00572227 -0.000107161 0.000297077 -9.32239e-11 2.40146e-10 -1.09106e-10 5e-05 1.46608e-10 
223 1 0.0817433 0.0171487 0.00745624 0.00538005 5.53639e-05 0.000321312 1.03278e-10 5.0881e-11 -1.07358e-11 5e-05 1.46608e-10 
224 1 0.0815541 0.0170859 0.0074742 0.00547738 8.13271e-05 0.000310073 1.58156e-10 3.6589e-11 -1.25667e-10 5e-05 1.46608e-10 
225 1 0.0881614 0.0182423 0.00693045 0.00541506 0.00218283 -0.00136871 -5.17392e-10 3.30236e-10 -1.33726e-10 5e-05 1.46608e-10 
226 1 0.0819519 0.0173008 0.00739654 0.0054564 3.17712e-05 0.00033662 5.63946e-11 1.91223e-11 -3.56959e-12 5e-05 1.46608e-10 
227 1 0.0757852 0.017296 0.00717605 0.00565912 0.000755527 -0.000317851 1.70555e-10 -1.28063e-10 -1.40339e-10 5e-05 1.46608e-10 
228 1 0.0755996 0.0172549 0.00722877 0.00571549 0.000553572 -0.000172844 4.58636e-11 -5.91837e-11 -1.93462e-10 5e-05 1.46608e-10 
229 1 0.0816715 0.0175253 0.00736455 0.00546848 6.00974e-05 0.000316654 -2.42806e-11 6.90568e-11 -7.45002e-12 5e-05 1.46608e-10 
230 1 0.0819875 0.0181974 0.00696786 0.00579868 0.000826618 -1.92408e-05 -1.03952e-10 -7.19392e-10 3.78167e-10 5e-05 1.46608e-10 
231 1 0.0755614 0.0170764 0.00730467 0.00576532 0.000555586 -0.000180899 2.39636e-10 4.51385e-11 -1.0871e-11 5e-05 1.46608e-10 
232 1 0.0816218 0.016615 0.00770495 0.00568189 4.03758e-05 0.000346963 6.87516e-11 6.24991e-11 -2.7654e-11 5e-05 1.46608e-10 
233 1 0.0817038 0.0169704 0.00753938 0.00563768 0.000327392 0.00020408 3.79416e-10 -2.78112e-11 -1.9393e-11 5e-05 1.46608e-10 
234 1 0.0879651 0.0184345 0.0068947 0.00477526 0.000660404 0.000452708 -2.26758e-09 2.10363e-09 -7.9202e-10 5e-05 1.46608e-10 
235 1 0.0820329 0.0183748 0.00688761 0.0063412 0.000363036 -0.000478489 -2.86052e-10 5.95709e-10 2.73836e-10 5e-05 1.46608e-10 
236 1 0.0820093 0.0182859 0.00692672 0.0062645 0.000626204 9.88589e-05 -4.42472e-10 4.95173e-10 -2.27225e-10 5e-05 1.46608e-10 
237 1 0.0820947 0.0182413 0.00695367 0.00674369 0.00125743 -0.000171538 8.08195e-12 5.03438e-10 -3.59437e-10 5e-05 1.46608e-10 
239 1 0.0753851 0.0163505 0.00780437 0.00582495 0.00029678 -0.000618847 -2.32093e-10 -7.77629e-11 7.92873e-11 5e-05 1.46608e-10 
240 1 0.0754451 0.0165853 0.00762755 0.00558558 0.000333911 -0.000629792 5.12083e-10 -2.92468e-10 2.45781e-10 5e-05 1.46608e-10 
241 1 0.0753651 0.0162723 0.00786332 0.00579087 0.000300973 -0.000618905 2.70549e-11 -4.89171e-11 3.26547e-11 5e-05 1.46608e-10 
242 1 0.0816835 0.0168811 0.00758098 0.00570399 5.10442e-05 0.000342378 -7.15095e-12 -1.58664e-10 8.44685e-11 5e-05 1.46608e-10 
243 1 0.0816046 0.0171816 0.00752768 0.00540044 0.000135417 0.000308598 -2.86012e-11 1.63058e-10 -2.85596e-10 5e-05 1.46608e-10 
244 1 0.0754051 0.0164288 0.00774543 0.00587304 0.000287772 -0.000614213 1.51046e-11 -1.37625e-10 1.0722e-10 5e-05 1.46608e-10 
246 1 0.0755226 0.0169096 0.00740789 0.00581134 0.000558072 -0.000183218 -4.43906e-11 -4.81355e-11 -4.5608e-11 5e-05 1.46608e-10 