ITEM: TIMESTEP
52200000
ITEM: NUMBER OF ATOMS
275
ITEM: BOX BOUNDS ff ff ff
-0.02 0.43
-0.02 0.06
-0.02 0.07
ITEM: ATOMS id type x y z vx vy vz fx fy fz radius mass 
1 1 0.317609 0.0180302 0.00707317 0.00597078 0.000878932 -0.00130828 1.7978e-10 -1.89856e-11 -8.26308e-11 5e-05 1.46608e-10 
2 1 0.317245 0.0169005 0.0074833 0.00637455 0.00104438 6.40207e-05 1.11108e-11 -8.04292e-11 -1.52242e-10 5e-05 1.46608e-10 
4 1 0.317391 0.0167896 0.00755004 0.00633731 0.000986962 7.48868e-05 4.21164e-11 -4.98849e-10 -1.6427e-10 5e-05 1.46608e-10 
5 1 0.316873 0.015816 0.00894876 0.00615849 -0.000411842 -0.00126772 4.93851e-11 -1.73793e-11 -1.78554e-11 5e-05 1.46608e-10 
6 1 0.323259 0.0169741 0.00749525 0.0060694 5.4637e-05 7.07273e-05 2.60658e-11 1.66706e-10 -1.14309e-10 5e-05 1.46608e-10 
7 1 0.317546 0.0173981 0.00725577 0.00641517 0.00102157 7.15148e-05 -2.70068e-10 -5.31277e-10 1.91342e-10 5e-05 1.46608e-10 
8 1 0.317238 0.0165099 0.00771057 0.00575379 -0.000401969 -0.00170122 2.17205e-10 -2.38075e-10 -3.14145e-10 5e-05 1.46608e-10 
9 1 0.323467 0.0178133 0.00699564 0.00572017 -6.46408e-05 -0.000698527 -2.38595e-10 -1.92339e-10 -4.44358e-10 5e-05 1.46608e-10 
10 1 0.317331 0.0165131 0.00764746 0.00342422 0.000791623 -0.00161651 9.77543e-11 -2.98353e-10 -1.08707e-09 5e-05 1.46608e-10 
11 1 0.317527 0.017807 0.0071912 0.00637218 0.00108933 6.72186e-05 5.33225e-11 -1.61648e-10 -8.9138e-11 5e-05 1.46608e-10 
12 1 0.311621 0.0173313 0.00726509 0.00623688 0.000216614 8.38516e-05 1.09284e-12 -1.71343e-12 -4.83518e-13 5e-05 1.46608e-10 
13 1 0.316851 0.0157689 0.00903409 0.00610915 -0.000408052 -0.0012616 -1.86978e-10 1.43852e-10 -1.68005e-10 5e-05 1.46608e-10 
14 1 0.31161 0.0179178 0.00716834 0.0057242 0.000270451 5.2667e-05 7.3489e-11 -1.73937e-10 6.19115e-11 5e-05 1.46608e-10 
16 1 0.311805 0.0181742 0.00700027 0.00576461 0.000430656 5.24761e-06 -1.01359e-10 3.32703e-11 -4.1379e-12 5e-05 1.46608e-10 
17 1 0.317208 0.0163994 0.00787372 0.00591534 -0.000197674 -0.00155151 -2.32122e-10 6.21066e-10 -9.80477e-10 5e-05 1.46608e-10 
19 1 0.319447 0.0177394 0.00725956 -0.00262716 0.0475568 -0.022216 -6.763e-11 -4.41846e-11 1.46821e-11 5e-05 1.46608e-10 
21 1 0.317589 0.0175736 0.00717827 0.00638311 0.00106872 5.93194e-05 1.01768e-10 -2.79214e-10 1.87679e-10 5e-05 1.46608e-10 
22 1 0.317347 0.0166029 0.00760665 0.0061829 0.00102122 4.00656e-05 -2.74364e-12 -1.83098e-10 -3.20854e-10 5e-05 1.46608e-10 
23 1 0.311766 0.0179865 0.00705928 0.00576202 0.000223557 7.01941e-05 1.4981e-10 8.2023e-11 -3.93569e-11 5e-05 1.46608e-10 
24 1 0.323386 0.0174731 0.00718742 0.00627171 0.000169832 1.02383e-06 2.12651e-10 4.16109e-11 -3.12538e-11 5e-05 1.46608e-10 
25 1 0.316982 0.0160522 0.0085219 0.00624665 -0.000376344 -0.00135976 1.97708e-10 -1.47742e-10 2.8071e-10 5e-05 1.46608e-10 
26 1 0.323429 0.0176394 0.00708481 0.00633994 0.000182764 -7.47837e-07 -5.3892e-12 1.4591e-10 -1.15138e-10 5e-05 1.46608e-10 
27 1 0.311302 0.0167214 0.00747594 0.0061381 0.000237203 0.000111765 6.7966e-11 -4.91315e-11 -4.35569e-11 5e-05 1.46608e-10 
28 1 0.317317 0.0168323 0.00749796 0.00635998 0.00102793 6.77323e-05 -2.77286e-10 -4.63865e-10 1.36678e-10 5e-05 1.46608e-10 
29 1 0.316828 0.0157217 0.00911944 0.00603074 -0.000398325 -0.00125139 -2.9174e-11 1.46259e-10 -2.12829e-10 5e-05 1.46608e-10 
30 1 0.317057 0.0162436 0.00818014 0.00560617 -0.000184895 -0.00147256 1.85395e-10 -3.94622e-10 3.49073e-10 5e-05 1.46608e-10 
31 1 0.31763 0.0173428 0.00728849 0.00630421 0.00106793 4.28937e-05 -7.67882e-11 -2.38439e-10 9.26745e-11 5e-05 1.46608e-10 
32 1 0.317005 0.0161022 0.00843845 0.00610364 -0.00036792 -0.0014253 6.86538e-11 -3.27679e-10 3.75651e-10 5e-05 1.46608e-10 
33 1 0.32328 0.0170573 0.00744395 0.00610404 6.53186e-05 6.57603e-05 8.02818e-12 1.77357e-10 -1.15302e-10 5e-05 1.46608e-10 
34 1 0.316961 0.0160058 0.00860798 0.00623627 -0.000379133 -0.00133047 -4.35778e-10 -2.42083e-11 2.16993e-10 5e-05 1.46608e-10 
35 1 0.317504 0.0172305 0.00734444 0.00639637 0.00103168 7.38321e-05 1.20487e-10 -2.38356e-10 3.08734e-11 5e-05 1.46608e-10 
36 1 0.323527 0.0181067 0.0069853 0.00575441 -9.11729e-06 -0.000197095 -1.50141e-10 -1.23985e-10 3.88183e-11 5e-05 1.46608e-10 
37 1 0.317368 0.0166977 0.00758203 0.00630316 0.000967955 1.01866e-05 -2.76802e-11 -1.73379e-10 3.21287e-10 5e-05 1.46608e-10 
38 1 0.317455 0.0170455 0.00741111 0.00645016 0.00100113 8.3637e-05 7.42695e-10 2.28877e-10 -3.70167e-10 5e-05 1.46608e-10 
39 1 0.323408 0.0175563 0.00713611 0.00631466 0.000145253 3.85237e-05 -4.22059e-10 4.34084e-10 -3.187e-10 5e-05 1.46608e-10 
41 1 0.316919 0.01591 0.0087782 0.00623482 -0.000413379 -0.0012927 -3.65235e-12 -1.2666e-10 2.31484e-10 5e-05 1.46608e-10 
42 1 0.317485 0.0168104 0.00752233 0.00637285 0.000934568 0.000116541 -1.05641e-10 9.79043e-11 -3.12382e-10 5e-05 1.46608e-10 
44 1 0.317561 0.0170759 0.00740605 0.00614997 0.00112631 1.38133e-06 2.41257e-10 -7.51686e-11 3.24401e-11 5e-05 1.46608e-10 
45 1 0.323301 0.0171404 0.00739264 0.00613837 8.53468e-05 5.41288e-05 3.91751e-11 1.50186e-10 -9.92159e-11 5e-05 1.46608e-10 
47 1 0.316942 0.0159569 0.00869298 0.00622846 -0.00039749 -0.00131318 -6.64532e-11 -1.23917e-10 2.29565e-10 5e-05 1.46608e-10 
48 1 0.317457 0.0177808 0.00712478 0.00637422 0.00101297 8.35337e-05 -9.32415e-11 -3.09499e-10 1.04666e-10 5e-05 1.46608e-10 
49 1 0.323486 0.0179109 0.00698534 0.0057456 -1.62305e-05 -0.000194209 3.96844e-12 -2.07053e-10 -8.13589e-12 5e-05 1.46608e-10 
50 1 0.317029 0.0161519 0.00835513 0.00579238 -0.000304093 -0.00150171 -5.84571e-10 -1.58162e-10 4.1043e-10 5e-05 1.46608e-10 
51 1 0.31765 0.0174322 0.00724891 0.00632664 0.00105687 4.38663e-05 8.81242e-11 -2.89612e-10 9.55774e-11 5e-05 1.46608e-10 
52 1 0.311686 0.0176109 0.00717735 0.00610129 0.000578828 -3.54286e-05 -4.89784e-10 3.02456e-10 -1.01117e-10 5e-05 1.46608e-10 
53 1 0.323344 0.0173068 0.00729003 0.00620006 0.000119016 3.16619e-05 2.15218e-11 1.54855e-10 -1.01494e-10 5e-05 1.46608e-10 
54 1 0.317822 0.0178307 0.00707921 0.0063746 0.000975026 9.63776e-05 1.63903e-11 -5.29499e-11 3.58862e-11 5e-05 1.46608e-10 
55 1 0.311504 0.0172086 0.00730142 0.00622266 0.000230378 7.88058e-05 -8.9189e-11 -4.14911e-11 -1.97472e-12 5e-05 1.46608e-10 
56 1 0.3178 0.0177416 0.00711854 0.00636414 0.000970428 9.2439e-05 1.92914e-10 -9.02123e-11 3.99849e-11 5e-05 1.46608e-10 
57 1 0.323323 0.0172236 0.00734134 0.00617041 0.000108201 3.96724e-05 6.97759e-11 1.2495e-10 -6.05395e-11 5e-05 1.46608e-10 
59 1 0.378022 0.019866 0.005332 -5.01952e-15 -7.41199e-15 7.69803e-14 2.92098e-24 -3.23117e-24 -2.06795e-25 5e-05 1.46608e-10 
60 1 0.317578 0.0171659 0.00736586 0.00640079 0.00105529 5.96235e-05 3.42112e-10 -2.47631e-11 7.36081e-12 5e-05 1.46608e-10 
61 1 0.316895 0.0158632 0.0088634 0.00619887 -0.000415302 -0.00127612 -3.00824e-10 -5.14965e-11 2.06201e-10 5e-05 1.46608e-10 
62 1 0.317483 0.0171347 0.00737222 0.00642115 0.00100812 7.8117e-05 4.87567e-11 -1.39969e-10 5.27749e-11 5e-05 1.46608e-10 
63 1 0.317477 0.0178784 0.00711867 0.0063323 0.000973506 -6.11319e-06 -3.41344e-11 -1.94346e-10 -2.00678e-11 5e-05 1.46608e-10 
64 1 0.323365 0.0173899 0.00723872 0.00624172 0.000135563 2.65518e-05 -1.80881e-11 1.79281e-10 -1.2748e-10 5e-05 1.46608e-10 
65 1 0.311429 0.0172715 0.0072795 0.00622797 0.000236557 7.72832e-05 -1.39868e-10 -6.00735e-11 4.26161e-11 5e-05 1.46608e-10 
66 1 0.311576 0.0180951 0.00710579 0.00578421 0.000304086 4.51664e-05 7.13107e-11 1.40568e-10 -4.34465e-13 5e-05 1.46608e-10 
67 1 0.317614 0.0176695 0.00713607 0.00634566 0.00101282 6.99077e-05 9.74033e-11 7.77402e-12 1.24833e-11 5e-05 1.46608e-10 
68 1 0.31738 0.0171102 0.00739914 0.00646187 0.00103299 6.41054e-05 5.05435e-10 -1.93985e-10 -2.09813e-10 5e-05 1.46608e-10 
69 1 0.317689 0.0176116 0.0071692 0.00633101 0.000996017 7.85892e-05 9.80078e-11 6.94582e-11 -4.21877e-11 5e-05 1.46608e-10 
70 1 0.323446 0.0177222 0.00703152 0.0055948 7.09313e-05 -0.00042145 -8.32985e-10 1.9447e-10 1.23484e-11 5e-05 1.46608e-10 
71 1 0.311844 0.0183635 0.00694076 0.00567289 0.000411411 8.08919e-06 -7.01161e-12 8.23961e-12 2.08264e-11 5e-05 1.46608e-10 
72 1 0.317647 0.0178517 0.00705459 0.00625012 0.000976948 7.53069e-05 3.12703e-10 -1.53892e-10 2.57911e-11 5e-05 1.46608e-10 
73 1 0.317463 0.0167211 0.00756177 0.00630026 0.000936377 9.24373e-05 6.37999e-10 5.13563e-11 1.04331e-10 5e-05 1.46608e-10 
74 1 0.317044 0.0162038 0.00827094 0.00552729 -0.000211111 -0.00150022 -5.199e-10 -2.15976e-10 3.9534e-10 5e-05 1.46608e-10 
76 1 0.311438 0.0169291 0.00738911 0.00628097 0.000218241 8.39885e-05 4.6095e-11 -1.78732e-10 4.98433e-11 5e-05 1.46608e-10 
77 1 0.317266 0.0169794 0.00742559 0.0063976 0.00104682 6.43657e-05 7.70138e-11 -5.23824e-11 -8.89932e-11 5e-05 1.46608e-10 
78 1 0.310891 0.015619 0.00862599 0.00553402 0.000494798 0.000186734 1.56942e-10 5.91283e-11 5.4673e-11 5e-05 1.46608e-10 
79 1 0.311768 0.0184254 0.00691913 0.00564534 0.000390231 1.37958e-05 -3.71287e-11 -1.36187e-11 -1.63285e-11 5e-05 1.46608e-10 
80 1 0.31734 0.0169214 0.00745876 0.00641894 0.00103532 7.67342e-05 2.82354e-10 2.17022e-10 -1.22692e-10 5e-05 1.46608e-10 
82 1 0.311651 0.0180323 0.00712758 0.00575842 0.000255616 5.9069e-05 1.55229e-10 2.47807e-11 -3.53027e-11 5e-05 1.46608e-10 
83 1 0.311643 0.0174245 0.00723585 0.00622312 0.000211102 8.49896e-05 -1.94426e-10 2.50811e-10 -8.20166e-11 5e-05 1.46608e-10 
84 1 0.323506 0.0180088 0.00698532 0.0057543 -1.51662e-05 -0.000194711 3.41357e-11 -1.55955e-10 9.70117e-12 5e-05 1.46608e-10 
85 1 0.311636 0.0186439 0.00685302 0.00578711 0.00030549 -2.85562e-05 7.9049e-11 9.15935e-11 1.45362e-10 5e-05 1.46608e-10 
86 1 0.31753 0.0169885 0.0074439 0.00648701 0.00105684 6.21272e-05 -4.59129e-11 -1.0061e-10 -3.18758e-11 5e-05 1.46608e-10 
87 1 0.317291 0.0167429 0.00753708 0.00633508 0.00104207 5.01525e-05 -3.62126e-10 -3.04914e-10 2.1923e-10 5e-05 1.46608e-10 
88 1 0.31745 0.0173717 0.00727678 0.00643329 0.00100969 8.16568e-05 2.36121e-10 -1.47834e-10 2.42964e-11 5e-05 1.46608e-10 
89 1 0.317611 0.0177525 0.00719183 0.00629209 0.00100957 6.88012e-05 1.31409e-10 -1.18858e-10 1.60185e-10 5e-05 1.46608e-10 
90 1 0.317636 0.0177611 0.00709561 0.00633777 0.000986541 8.29787e-05 3.5278e-11 -2.10425e-10 1.10159e-10 5e-05 1.46608e-10 
91 1 0.311599 0.0172381 0.00729431 0.00622747 0.000221988 8.16729e-05 -5.64951e-12 4.6281e-13 -2.73999e-12 5e-05 1.46608e-10 
92 1 0.317374 0.0174232 0.00722955 0.00641014 0.00100264 7.88118e-05 3.00648e-10 1.10846e-10 -2.23531e-11 5e-05 1.46608e-10 
93 1 0.317108 0.016389 0.00792271 0.005745 -0.000222066 -0.0014439 1.36715e-10 4.94448e-11 -1.20045e-10 5e-05 1.46608e-10 
94 1 0.317563 0.017901 0.0071659 0.00633114 0.0010935 -7.41505e-05 -3.71355e-11 1.04583e-10 -3.45415e-10 5e-05 1.46608e-10 
95 1 0.317413 0.0175908 0.00724995 0.006452 0.00105446 0.000185228 -4.09253e-11 -1.38767e-11 1.15182e-12 5e-05 1.46608e-10 
96 1 0.317353 0.0173421 0.00728428 0.00639907 0.0010067 7.63353e-05 5.32132e-10 1.38358e-10 1.03248e-10 5e-05 1.46608e-10 
97 1 0.310969 0.0158774 0.00833231 0.005501 0.00049071 0.000176093 -4.75841e-11 -4.73358e-11 6.06912e-11 5e-05 1.46608e-10 
98 1 0.317088 0.0163413 0.00800838 0.00576117 -0.000222517 -0.00143883 1.82781e-10 -1.62587e-10 -5.88231e-11 5e-05 1.46608e-10 
99 1 0.311462 0.0177997 0.00711152 0.00571136 0.000337664 3.29072e-05 1.52547e-11 -9.06288e-12 4.27695e-12 5e-05 1.46608e-10 
100 1 0.317572 0.0174921 0.00723373 0.00634037 0.00104562 2.83866e-06 4.94601e-11 -4.9578e-10 1.04507e-10 5e-05 1.46608e-10 
101 1 0.311482 0.0178932 0.00708213 0.00573579 0.000333762 3.33164e-05 -1.59039e-11 -6.82498e-11 1.72852e-11 5e-05 1.46608e-10 
102 1 0.0643568 0.0187248 0.00531097 4.17333e-15 1.05243e-14 8.29616e-14 -2.22302e-21 7.0574e-22 2.29543e-23 5e-05 1.46608e-10 
103 1 0.24257 0.0191927 0.00520306 -3.43631e-22 -1.00924e-21 8.29106e-22 0 0 0 5e-05 1.46608e-10 
104 1 0.311825 0.0182688 0.00697052 0.00570907 0.00040403 1.23604e-05 3.25421e-11 7.50082e-11 -7.03693e-12 5e-05 1.46608e-10 
105 1 0.311102 0.0160343 0.00816587 0.0055601 0.000465257 0.000216281 2.07877e-11 -1.12894e-10 1.38764e-10 5e-05 1.46608e-10 
106 1 0.311472 0.0174577 0.00722104 0.00624086 0.000222363 8.30547e-05 -8.98561e-11 -7.35137e-11 3.15809e-11 5e-05 1.46608e-10 
107 1 0.310911 0.0156915 0.00856009 0.00555794 0.000466253 0.000147572 -6.32767e-11 -1.47112e-10 -1.2287e-10 5e-05 1.46608e-10 
108 1 0.317709 0.0177012 0.0071295 0.00635173 0.000993041 8.02005e-05 2.28169e-10 -1.05646e-10 5.73888e-11 5e-05 1.46608e-10 
109 1 0.317784 0.0176435 0.0071625 0.00635289 0.000998486 7.82472e-05 6.86997e-11 -1.79143e-10 9.3646e-11 5e-05 1.46608e-10 
110 1 0.317224 0.0168172 0.00753427 0.0063332 0.00104631 6.34015e-05 -9.13618e-11 2.08395e-10 2.39677e-10 5e-05 1.46608e-10 
111 1 0.317181 0.0166467 0.00763045 0.00630808 0.000967844 4.5315e-06 -6.62841e-10 -1.32712e-10 2.26685e-11 5e-05 1.46608e-10 
112 1 0.311257 0.0169454 0.00747282 0.00628901 0.000180969 9.43678e-05 3.00516e-11 7.06719e-11 -1.76807e-10 5e-05 1.46608e-10 
113 1 0.311354 0.0173339 0.0072577 0.00624717 0.000218442 8.30068e-05 -9.28036e-11 -9.68804e-11 2.25156e-11 5e-05 1.46608e-10 
114 1 0.311419 0.0176133 0.00717002 0.00622846 0.000222162 8.32816e-05 -4.54547e-11 -1.00817e-10 3.79191e-11 5e-05 1.46608e-10 
115 1 0.317511 0.0168987 0.0074838 0.00642404 0.000920064 0.000116688 8.71314e-11 2.41667e-11 1.17307e-11 5e-05 1.46608e-10 
116 1 0.31753 0.0177146 0.00710804 0.00635943 0.00102374 6.65317e-05 6.34861e-11 -1.2413e-10 6.88801e-11 5e-05 1.46608e-10 
117 1 0.317537 0.0173218 0.00731978 0.00632347 0.00103016 4.25626e-05 1.84662e-10 -4.42438e-10 3.05323e-10 5e-05 1.46608e-10 
118 1 0.311547 0.0173949 0.00724295 0.00624103 0.000221652 8.12968e-05 -3.3126e-11 5.55399e-11 -2.41168e-11 5e-05 1.46608e-10 
119 1 0.317727 0.0178043 0.00709186 0.00634545 0.000957217 -0.000113543 6.03293e-11 -1.25518e-10 1.40434e-10 5e-05 1.46608e-10 
120 1 0.317322 0.0164616 0.00773404 0.00824963 0.00196912 -0.00590574 5.86436e-11 1.08716e-10 -5.49849e-10 5e-05 1.46608e-10 
121 1 0.31763 0.018128 0.00707723 0.00621563 0.000822006 -0.000887239 -9.18833e-11 -1.5774e-10 -2.81289e-11 5e-05 1.46608e-10 
122 1 0.317331 0.0172473 0.00730725 0.00640058 0.00101489 7.65785e-05 2.85483e-10 3.20901e-10 -4.03162e-11 5e-05 1.46608e-10 
123 1 0.311787 0.018519 0.00688967 0.00583252 0.000362923 2.65573e-05 1.70772e-10 -6.8252e-11 2.99353e-11 5e-05 1.46608e-10 
124 1 0.317222 0.0164484 0.00778774 0.00605723 -0.000207603 -0.00157196 -2.69858e-10 6.6837e-10 -9.48222e-10 5e-05 1.46608e-10 
125 1 0.317427 0.0172774 0.00730151 0.00639587 0.00100902 8.04349e-05 2.12315e-10 -2.28747e-10 9.27018e-11 5e-05 1.46608e-10 
127 1 0.31095 0.0158126 0.008406 0.00545054 0.000499442 0.000158281 -3.56779e-11 1.20365e-11 1.75293e-11 5e-05 1.46608e-10 
128 1 0.317073 0.0162934 0.00809481 0.00573385 -0.000204467 -0.00144719 7.4055e-10 -4.70025e-10 1.70283e-10 5e-05 1.46608e-10 
129 1 0.31748 0.0176641 0.00726344 0.00624385 0.00104936 -3.2345e-06 -7.12757e-11 -5.63169e-11 -4.95588e-11 5e-05 1.46608e-10 
130 1 0.311516 0.017644 0.00716258 0.00621994 0.00022198 8.2348e-05 -1.05491e-10 3.14909e-11 -3.35468e-11 5e-05 1.46608e-10 
131 1 0.311537 0.0177373 0.00713331 0.00569937 0.000324625 3.8361e-05 8.56256e-11 2.3328e-11 -9.14566e-12 5e-05 1.46608e-10 
132 1 0.317414 0.0168805 0.00751291 0.00642631 0.00100905 9.05974e-05 1.97782e-10 2.04013e-10 3.32511e-11 5e-05 1.46608e-10 
133 1 0.317558 0.0178236 0.00709787 0.00634844 0.00099667 4.50835e-05 8.71148e-11 -1.40682e-10 -3.58173e-11 5e-05 1.46608e-10 
134 1 0.317514 0.0176399 0.0071727 0.00635684 0.00102624 5.36552e-05 1.21019e-10 -7.79223e-11 1.51322e-10 5e-05 1.46608e-10 
135 1 0.317669 0.017522 0.00720891 0.00636701 0.0010562 5.56883e-05 2.38553e-10 -1.23328e-10 2.88281e-10 5e-05 1.46608e-10 
136 1 0.311482 0.0171155 0.00733064 0.00625464 0.000226493 8.07757e-05 4.62447e-11 -2.10241e-11 6.99307e-12 5e-05 1.46608e-10 
137 1 0.317592 0.017659 0.00723287 0.00632264 0.00109215 6.73495e-05 -7.35298e-12 -2.70586e-10 7.50436e-11 5e-05 1.46608e-10 
138 1 0.317417 0.0176018 0.00715064 0.00643116 0.000935821 0.00013564 -1.21374e-10 -1.22901e-10 -5.73264e-12 5e-05 1.46608e-10 
140 1 0.317288 0.0170687 0.00738615 0.00642847 0.0010317 7.01198e-05 2.58728e-10 -1.22869e-10 -1.8116e-11 5e-05 1.46608e-10 
141 1 0.311314 0.0164499 0.0077055 0.00570936 0.000341013 0.000382683 -1.47918e-10 -8.85614e-11 7.945e-11 5e-05 1.46608e-10 
142 1 0.311726 0.0177995 0.00711809 0.00572257 0.00027236 5.30941e-05 9.55746e-11 4.82732e-11 -3.80358e-11 5e-05 1.46608e-10 
143 1 0.31093 0.0157478 0.00847966 0.00541226 0.000507909 0.000145059 -9.58736e-11 7.99116e-11 -5.02496e-12 5e-05 1.46608e-10 
144 1 0.31159 0.0175812 0.0071845 0.00621466 0.00022064 8.30141e-05 -2.30032e-10 1.68366e-10 -5.35342e-11 5e-05 1.46608e-10 
146 1 0.310988 0.0159422 0.00825865 0.00552163 0.000483207 0.000188585 6.47082e-11 -5.04447e-11 6.91837e-11 5e-05 1.46608e-10 
147 1 0.311494 0.0175509 0.00719181 0.00622709 0.000221288 8.15603e-05 -2.19841e-10 -1.58559e-11 5.11631e-12 5e-05 1.46608e-10 
148 1 0.311334 0.0165146 0.00763198 0.00575274 0.000342536 0.0003877 -4.04556e-11 -9.05179e-11 1.06162e-10 5e-05 1.46608e-10 
149 1 0.317142 0.0165017 0.00776123 0.00601127 -8.03111e-05 -0.0012826 -4.01454e-10 6.93827e-10 6.93002e-11 5e-05 1.46608e-10 
150 1 0.311617 0.0185484 0.00687609 0.00575259 0.000320063 3.9363e-05 -6.56904e-12 -2.27772e-11 1.50976e-11 5e-05 1.46608e-10 
151 1 0.311616 0.0181114 0.0070157 0.00581329 0.000273842 5.36855e-05 6.11193e-11 -7.21124e-12 -1.01588e-11 5e-05 1.46608e-10 
153 1 0.311352 0.0165795 0.00755812 0.00575766 0.000347401 0.000387412 1.19208e-10 -8.13362e-11 1.33317e-10 5e-05 1.46608e-10 
154 1 0.311083 0.0159695 0.00823953 0.00553649 0.00047171 0.00020558 -4.474e-11 -1.16743e-10 1.29526e-10 5e-05 1.46608e-10 
155 1 0.311302 0.0171265 0.00741355 0.00627891 0.000224983 7.96351e-05 -6.46431e-11 1.25937e-10 -4.92713e-11 5e-05 1.46608e-10 
156 1 0.311294 0.0163851 0.00777903 0.00566954 0.000338984 0.000380303 -5.69102e-11 -8.16788e-11 8.99936e-11 5e-05 1.46608e-10 
157 1 0.0219312 0.0187687 0.00551176 -3.83343e-14 8.16639e-14 2.95888e-13 3.00732e-22 3.06781e-22 -3.03989e-23 5e-05 1.46608e-10 
158 1 0.311396 0.0167427 0.00744764 0.0062897 0.000181849 9.5817e-05 1.07665e-11 3.35231e-11 -5.87436e-12 5e-05 1.46608e-10 
159 1 0.317436 0.0169558 0.00745099 0.00648177 0.0010167 8.05347e-05 2.92476e-10 -1.11441e-10 1.1559e-10 5e-05 1.46608e-10 
160 1 0.311501 0.0179867 0.00705273 0.0057796 0.00032112 3.52586e-05 -1.67408e-11 -9.45087e-11 2.50396e-11 5e-05 1.46608e-10 
162 1 0.311595 0.0181886 0.00707638 0.00583994 0.000268702 5.4177e-05 -6.66172e-11 8.89444e-11 -3.85517e-11 5e-05 1.46608e-10 
164 1 0.311066 0.0162014 0.00796401 0.00560139 0.000466776 0.000221356 1.42329e-11 9.06911e-11 -1.18071e-10 5e-05 1.46608e-10 
165 1 0.311655 0.018299 0.00695671 0.0056899 0.000348317 2.8206e-05 -6.91491e-11 5.7644e-11 -1.40356e-11 5e-05 1.46608e-10 
166 1 0.317436 0.0177014 0.00718173 0.00628668 0.000958626 -5.57514e-05 1.36748e-10 -7.53494e-11 2.55799e-10 5e-05 1.46608e-10 
167 1 0.31158 0.0183609 0.00693508 0.00566197 0.000328817 3.47725e-05 -4.10074e-11 7.92502e-12 -1.03329e-11 5e-05 1.46608e-10 
168 1 0.311692 0.0184869 0.0068976 0.0057547 0.000325225 3.85706e-05 5.11362e-11 -5.9067e-11 3.18412e-11 5e-05 1.46608e-10 
169 1 0.311598 0.0184547 0.00690559 0.00570776 0.000325456 3.63799e-05 -3.31317e-11 6.52894e-12 -3.39973e-11 5e-05 1.46608e-10 
170 1 0.311674 0.0183931 0.00692713 0.00565739 0.000352491 2.59154e-05 -3.50722e-11 -1.46983e-12 9.41249e-12 5e-05 1.46608e-10 
171 1 0.317683 0.0179633 0.00705931 0.00619624 0.000933621 -0.000420637 1.55143e-10 -3.39473e-12 -1.75306e-10 5e-05 1.46608e-10 
172 1 0.311332 0.0172408 0.00728692 0.00626003 0.000216711 8.3215e-05 -6.11332e-11 -4.86878e-11 2.16662e-11 5e-05 1.46608e-10 
173 1 0.317658 0.0179061 0.00713771 0.00630802 0.00131524 -0.000115688 1.20795e-10 1.3722e-10 -5.70321e-11 5e-05 1.46608e-10 
174 1 0.311105 0.016331 0.0078167 0.00563739 0.000455787 0.000239547 -1.67368e-11 8.60859e-11 -1.12066e-10 5e-05 1.46608e-10 
176 1 0.311407 0.0171783 0.00730872 0.00626314 0.000227025 8.09243e-05 -3.66342e-12 -1.00499e-11 -2.01212e-11 5e-05 1.46608e-10 
177 1 0.311008 0.016007 0.00818499 0.00553801 0.000477571 0.000197885 2.06778e-11 -4.2683e-11 4.89055e-11 5e-05 1.46608e-10 
178 1 0.311508 0.0178783 0.00717737 0.00572363 0.000338153 3.30257e-05 1.71411e-10 -7.47863e-12 -1.83678e-11 5e-05 1.46608e-10 
179 1 0.311521 0.0180803 0.00702333 0.00581182 0.000307226 4.05322e-05 3.57628e-12 -6.22989e-11 2.89273e-11 5e-05 1.46608e-10 
182 1 0.317704 0.0180611 0.00705974 0.00600615 0.000920447 -0.000859938 -5.24982e-11 -1.12433e-11 -1.07216e-10 5e-05 1.46608e-10 
183 1 0.311397 0.0175202 0.00719925 0.00623734 0.000218554 8.32639e-05 -1.25113e-10 -1.44766e-10 4.0389e-11 5e-05 1.46608e-10 
184 1 0.317562 0.0180111 0.00715911 0.00558561 0.00153702 -0.00140937 4.20493e-10 1.68626e-10 -1.22525e-10 5e-05 1.46608e-10 
185 1 0.311612 0.0176744 0.00715523 0.00569773 0.000320434 3.84527e-05 3.15418e-10 3.1492e-10 -9.83495e-11 5e-05 1.46608e-10 
186 1 0.311655 0.0187393 0.00683002 0.00582549 0.000271274 -0.000164074 -1.27488e-10 8.70479e-11 -2.08005e-12 5e-05 1.46608e-10 
187 1 0.317587 0.01793 0.00707055 0.00601443 0.000964052 -0.000820621 8.58248e-10 -3.03376e-10 5.85593e-10 5e-05 1.46608e-10 
188 1 0.317404 0.0171883 0.00734078 0.00640157 0.00100304 7.8941e-05 1.17029e-10 -1.98798e-11 1.20755e-10 5e-05 1.46608e-10 
189 1 0.31754 0.018168 0.00709485 0.00611683 0.000618246 -0.00088932 -1.05689e-10 -2.42147e-10 -4.28949e-11 5e-05 1.46608e-10 
190 1 0.305542 0.0181774 0.00696289 0.00580849 -0.000179695 0.000125083 1.15254e-10 -6.78313e-11 6.62951e-11 5e-05 1.46608e-10 
191 1 0.31716 0.0165685 0.00768909 0.00615046 0.000392337 -0.000811436 -3.09192e-10 -5.70691e-10 -7.89938e-10 5e-05 1.46608e-10 
192 1 0.311376 0.0174271 0.00722847 0.00624455 0.000218785 8.34356e-05 -8.32911e-11 -1.35398e-10 3.98486e-11 5e-05 1.46608e-10 
193 1 0.317752 0.0178925 0.00704465 0.00627434 0.000890168 0.000121006 5.44908e-11 -3.80026e-11 -5.66835e-11 5e-05 1.46608e-10 
194 1 0.311671 0.0181258 0.00709814 0.00580496 0.000259958 5.47408e-05 3.23325e-11 -1.44807e-12 -2.05868e-11 5e-05 1.46608e-10 
195 1 0.311711 0.0181426 0.00700807 0.00583046 0.000241551 6.55609e-05 5.71636e-11 1.93449e-11 -3.86747e-12 5e-05 1.46608e-10 
196 1 0.311671 0.0179554 0.0070669 0.00575203 0.000258316 5.78294e-05 6.02793e-11 -3.80304e-11 -4.73492e-12 5e-05 1.46608e-10 
197 1 0.305209 0.0167185 0.0074805 0.00619466 -0.000144576 0.000308611 3.38814e-12 1.98996e-11 -2.16655e-11 5e-05 1.46608e-10 
198 1 0.311664 0.0175176 0.00720662 0.0061987 0.000214279 8.33444e-05 -2.25005e-10 1.63166e-10 -4.82436e-11 5e-05 1.46608e-10 
199 1 0.311499 0.0179751 0.00715201 0.00576252 0.000341444 2.63737e-05 -1.24741e-10 4.15404e-11 -9.18299e-12 5e-05 1.46608e-10 
200 1 0.311063 0.0159047 0.00831318 0.00551043 0.000474997 0.00019715 6.80427e-11 -1.15398e-10 1.38707e-10 5e-05 1.46608e-10 
201 1 0.31173 0.0182367 0.00697847 0.00571815 0.000378089 2.18269e-05 -1.22907e-12 1.77432e-10 -4.21188e-11 5e-05 1.46608e-10 
202 1 0.311417 0.016836 0.00741834 0.0062844 0.000183315 9.55172e-05 9.55105e-11 -4.22267e-11 3.37496e-11 5e-05 1.46608e-10 
203 1 0.317491 0.0175432 0.00718401 0.00639955 0.00101744 6.41204e-05 1.46475e-11 2.61057e-11 -4.04766e-12 5e-05 1.46608e-10 
204 1 0.311786 0.0180803 0.00702981 0.00580196 0.000219273 7.33281e-05 5.88334e-11 -1.66794e-10 5.3438e-11 5e-05 1.46608e-10 
205 1 0.311238 0.0164879 0.00765028 0.00567084 0.000453089 0.00024936 1.29943e-11 -8.59965e-12 3.27435e-11 5e-05 1.46608e-10 
206 1 0.311278 0.0166373 0.00752437 0.00585359 0.000348641 0.000167556 9.16975e-11 -1.42326e-10 -3.76424e-11 5e-05 1.46608e-10 
207 1 0.31116 0.0162287 0.00794496 0.00561261 0.000460508 0.000229022 2.69748e-11 5.23425e-11 -4.52984e-11 5e-05 1.46608e-10 
208 1 0.311706 0.0177056 0.00714758 0.0056895 0.000271228 5.28059e-05 1.2601e-10 2.54311e-11 -3.83325e-12 5e-05 1.46608e-10 
209 1 0.311525 0.0173017 0.00727218 0.00623654 0.000227709 8.07518e-05 -7.66497e-11 -5.96883e-11 3.92308e-11 5e-05 1.46608e-10 
210 1 0.317258 0.0165841 0.00764643 0.00603782 0.000592635 -0.00044887 7.18541e-10 -3.90239e-10 2.01038e-10 5e-05 1.46608e-10 
211 1 0.317264 0.0166545 0.0075757 0.00632212 0.00105641 4.79711e-05 -7.58074e-10 -2.04682e-10 2.87677e-11 5e-05 1.46608e-10 
212 1 0.311749 0.0183312 0.00694876 0.0056843 0.000381385 1.86154e-05 -1.31801e-11 3.23183e-11 -1.12954e-11 5e-05 1.46608e-10 
213 1 0.317519 0.0180703 0.00708957 0.00578623 0.000695201 -0.00184052 -6.35139e-11 -1.42437e-10 3.45901e-10 5e-05 1.46608e-10 
214 1 0.317359 0.0170165 0.00743348 0.00646813 0.0010375 6.76091e-05 4.67371e-10 -2.41416e-10 1.00156e-10 5e-05 1.46608e-10 
215 1 0.30544 0.0176971 0.00705748 0.00572965 -0.000171981 0.000121029 7.27306e-12 1.71778e-10 -3.57158e-11 5e-05 1.46608e-10 
216 1 0.311141 0.0161639 0.00801855 0.005601 0.000459553 0.000228718 4.96267e-11 1.80113e-11 -8.4551e-12 5e-05 1.46608e-10 
217 1 0.317777 0.0179914 0.00704208 0.00614226 0.000778366 -0.00088361 3.6015e-10 2.07255e-10 -5.36055e-11 5e-05 1.46608e-10 
218 1 0.311441 0.0177065 0.00714079 0.00622703 0.000229194 8.07933e-05 -8.12485e-12 -5.10723e-11 5.12837e-11 5e-05 1.46608e-10 
219 1 0.317124 0.0164421 0.00783959 0.00578111 -0.00021111 -0.00143216 -1.10846e-10 8.42361e-10 2.62691e-10 5e-05 1.46608e-10 
220 1 0.311557 0.0178308 0.00710391 0.00572066 0.000315318 4.01232e-05 4.33993e-11 -7.10518e-11 2.6487e-11 5e-05 1.46608e-10 
222 1 0.317609 0.017253 0.00732825 0.00634359 0.00106543 4.59335e-05 8.90052e-10 7.37381e-13 1.15935e-10 5e-05 1.46608e-10 
224 1 0.311321 0.0168056 0.00742569 0.00628362 0.000193212 9.30402e-05 2.4691e-11 6.80979e-11 -1.72573e-11 5e-05 1.46608e-10 
225 1 0.317202 0.0167327 0.00758331 0.00628792 0.00103619 7.14554e-05 -1.76681e-10 1.05809e-10 -1.92304e-10 5e-05 1.46608e-10 
226 1 0.311746 0.017893 0.00708868 0.00574517 0.000255807 5.94497e-05 9.07223e-11 -2.37244e-11 5.80801e-12 5e-05 1.46608e-10 
227 1 0.30546 0.0177931 0.00703856 0.00571957 -0.000182176 0.000122205 2.12122e-10 1.14318e-10 -1.86279e-11 5e-05 1.46608e-10 
228 1 0.3054 0.0175049 0.00709532 0.00566999 -0.000159451 0.00011765 -1.6699e-10 2.05799e-10 -3.67125e-11 5e-05 1.46608e-10 
229 1 0.311711 0.0185806 0.00686815 0.00579858 0.000331896 3.2148e-05 -1.18226e-10 -2.90986e-10 1.94354e-10 5e-05 1.46608e-10 
230 1 0.311224 0.0167751 0.00743299 0.00629265 0.00019282 9.82311e-05 1.42564e-10 1.03911e-10 3.82396e-11 5e-05 1.46608e-10 
232 1 0.31169 0.0182196 0.00706861 0.00583934 0.000266793 6.58599e-05 6.44241e-11 1.02675e-11 3.10526e-11 5e-05 1.46608e-10 
233 1 0.31156 0.0182673 0.00696453 0.00587959 0.000283736 5.105e-05 2.77775e-12 -5.34791e-11 -2.4808e-12 5e-05 1.46608e-10 
234 1 0.317309 0.017158 0.00734669 0.00641077 0.00102918 7.36307e-05 1.93076e-10 1.3349e-10 -4.85329e-11 5e-05 1.46608e-10 
235 1 0.311183 0.0166045 0.00752865 0.00579696 0.000467149 -0.000515381 -3.54837e-11 -4.63179e-10 3.23223e-10 5e-05 1.46608e-10 
236 1 0.311289 0.0170545 0.00734538 0.00628393 0.000208399 8.63214e-05 1.414e-10 1.50902e-10 -6.90062e-11 5e-05 1.46608e-10 
237 1 0.311311 0.0171476 0.00731615 0.00627251 0.000214636 8.33937e-05 3.10918e-11 6.09894e-11 -3.66719e-11 5e-05 1.46608e-10 
239 1 0.305109 0.0163113 0.00775273 0.0056303 -6.48663e-05 0.000234448 9.88193e-13 1.77889e-11 -1.19597e-11 5e-05 1.46608e-10 
240 1 0.305168 0.0165558 0.00758925 0.00574685 -7.71504e-05 0.000246601 -2.01239e-11 1.17372e-12 -5.90455e-13 5e-05 1.46608e-10 
241 1 0.305089 0.0162298 0.00780724 0.00564052 -6.93936e-05 0.000237867 9.2799e-12 2.75551e-11 -1.83652e-11 5e-05 1.46608e-10 
242 1 0.311274 0.0163203 0.0078527 0.00567828 0.000333991 0.000388509 -4.43803e-11 -4.81316e-11 7.15102e-11 5e-05 1.46608e-10 
243 1 0.311651 0.0178619 0.0070963 0.00573165 0.000281159 5.03932e-05 2.7117e-11 1.81943e-11 -7.11638e-12 5e-05 1.46608e-10 
244 1 0.305129 0.0163928 0.00769821 0.00561992 -6.0698e-05 0.000231288 -8.17326e-12 1.51755e-12 -1.4459e-12 5e-05 1.46608e-10 
246 1 0.305317 0.0171482 0.00724915 0.00624507 -0.000330403 3.92201e-05 -4.23842e-11 -5.25344e-11 1.06961e-11 5e-05 1.46608e-10 
247 1 0.311124 0.0163958 0.00774304 0.00566262 0.000453698 0.000247091 -4.58717e-11 3.25118e-11 -8.49559e-11 5e-05 1.46608e-10 
248 1 0.311489 0.0177848 0.00720677 0.0056956 0.000344474 3.50047e-05 8.45383e-11 -4.1752e-12 -2.12686e-12 5e-05 1.46608e-10 
249 1 0.305253 0.0168885 0.00738471 0.00620721 -0.000318645 2.9859e-05 -4.70486e-11 5.58969e-13 -1.26029e-11 5e-05 1.46608e-10 
250 1 0.311199 0.0163583 0.00779754 0.00567596 0.000453997 0.0002478 -5.41276e-11 4.05344e-11 -2.25607e-11 5e-05 1.46608e-10 
251 1 0.317469 0.0174539 0.00722345 0.00643489 0.00101723 6.72274e-05 5.69197e-11 -2.75186e-12 -2.76118e-11 5e-05 1.46608e-10 
252 1 0.305339 0.0172347 0.00720397 0.00619936 -0.00032322 3.47672e-05 -9.96709e-11 -4.4243e-11 -9.79884e-12 5e-05 1.46608e-10 
253 1 0.305521 0.0180814 0.00698181 0.00578292 -0.000180949 0.000122907 -7.82542e-11 -1.629e-10 3.26856e-11 5e-05 1.46608e-10 
254 1 0.305274 0.0169751 0.0073395 0.0062282 -0.000322302 3.53885e-05 3.73897e-11 2.08506e-12 1.36604e-11 5e-05 1.46608e-10 
255 1 0.310871 0.0155543 0.00869946 0.00575856 0.000478118 0.000228486 -6.36749e-11 1.21242e-10 -1.35575e-10 5e-05 1.46608e-10 
256 1 0.311919 0.0183011 0.00696251 0.00569819 0.000432535 1.543e-06 4.61609e-11 -2.83245e-11 1.00385e-11 5e-05 1.46608e-10 
257 1 0.311373 0.0166524 0.00748706 0.00583012 -0.000100756 -9.49228e-05 1.24076e-10 -1.08208e-10 1.05228e-10 5e-05 1.46608e-10 
258 1 0.311587 0.0178198 0.00719867 0.00571464 0.000306482 4.22293e-05 1.63475e-10 -2.24898e-10 2.53789e-11 5e-05 1.46608e-10 
259 1 0.305361 0.0173213 0.00715884 0.00602927 -0.00027941 4.90716e-05 -1.49482e-10 4.94596e-12 -5.54218e-11 5e-05 1.46608e-10 
260 1 0.311636 0.018205 0.00698629 0.00585999 0.000269126 5.69e-05 5.98158e-11 2.16917e-11 -1.57585e-11 5e-05 1.46608e-10 