ITEM: TIMESTEP
32200000
ITEM: NUMBER OF ATOMS
275
ITEM: BOX BOUNDS ff ff ff
-0.02 0.43
-0.02 0.06
-0.02 0.07
ITEM: ATOMS id type x y z vx vy vz fx fy fz radius mass 
1 1 0.20109 0.0185438 0.00685307 0.00570552 0.000135505 0.000236425 -2.16469e-10 -5.53713e-10 2.03112e-10 5e-05 1.46608e-10 
2 1 0.200729 0.0173368 0.00730037 0.00613684 0.000187382 0.000270782 2.40281e-10 -1.88379e-10 1.1727e-10 5e-05 1.46608e-10 
4 1 0.200877 0.0172255 0.00737494 0.00609052 0.0002088 0.000259313 1.00526e-09 -6.40401e-10 4.44059e-10 5e-05 1.46608e-10 
5 1 0.200271 0.0155682 0.00860905 0.00559586 -0.000221066 -0.000225114 -8.71445e-11 -1.86214e-10 3.48576e-10 5e-05 1.46608e-10 
6 1 0.206584 0.0167562 0.00762239 0.0058171 -0.000299382 0.000452663 5.68394e-11 -5.70209e-11 3.55819e-11 5e-05 1.46608e-10 
7 1 0.20112 0.0178506 0.00702346 0.00573641 0.000315919 0.00017768 2.4411e-11 -6.80221e-10 4.91662e-10 5e-05 1.46608e-10 
8 1 0.200719 0.0169418 0.00753145 0.00593865 0.000170409 0.000268916 5.72873e-10 1.05374e-12 7.02273e-11 5e-05 1.46608e-10 
9 1 0.206787 0.0175645 0.007134 0.00618264 -0.000560871 -0.000946378 4.0332e-11 -8.91529e-11 1.08047e-10 5e-05 1.46608e-10 
10 1 0.200384 0.0159032 0.00814502 0.00559073 -7.80386e-05 0.000290872 -3.34631e-10 -9.62369e-11 -1.08344e-10 5e-05 1.46608e-10 
11 1 0.200873 0.0179315 0.0069605 0.00529209 0.000379766 0.000142151 1.22751e-11 -2.1039e-10 -1.49949e-09 5e-05 1.46608e-10 
12 1 0.194885 0.0168525 0.00745095 0.00581026 -9.99716e-05 0.000322825 -1.89505e-10 -1.63165e-11 -6.86969e-11 5e-05 1.46608e-10 
13 1 0.200252 0.0155329 0.0087006 0.00576203 -0.000231298 -0.000245375 1.76953e-11 -1.06911e-10 1.4366e-10 5e-05 1.46608e-10 
14 1 0.194884 0.017602 0.00709778 0.00656099 -8.76363e-05 0.000353482 7.20947e-11 -2.72356e-11 7.16341e-12 5e-05 1.46608e-10 
16 1 0.195161 0.0179208 0.00696075 0.00592317 0.000126476 0.000228987 -3.42499e-10 8.46435e-10 -4.84039e-10 5e-05 1.46608e-10 
17 1 0.200363 0.0158193 0.00819499 0.00563674 -8.5482e-05 0.000264413 -2.15222e-10 -3.23977e-10 1.98356e-10 5e-05 1.46608e-10 
19 1 0.200231 0.0154984 0.00879214 0.00601388 -0.000253563 -0.000229902 2.38333e-10 -1.40009e-11 3.58908e-11 5e-05 1.46608e-10 
21 1 0.201159 0.0180261 0.0069342 0.0057263 9.62742e-05 -4.25082e-05 4.57881e-10 -3.13199e-10 9.08003e-10 5e-05 1.46608e-10 
22 1 0.200676 0.016772 0.00762839 0.00591482 8.65839e-05 0.000318044 7.77309e-10 2.97839e-11 2.37539e-11 5e-05 1.46608e-10 
23 1 0.195124 0.0177425 0.00704299 0.00593007 0.000120802 0.000224989 -5.26807e-10 4.26805e-10 -2.42916e-10 5e-05 1.46608e-10 
24 1 0.206704 0.017212 0.00725096 0.00610203 -0.000526451 0.00017186 -7.04138e-11 9.55959e-11 9.07869e-11 5e-05 1.46608e-10 
25 1 0.200424 0.0160704 0.00804354 0.00546293 -4.7362e-05 0.000251009 -5.05971e-11 2.19637e-10 -1.46467e-10 5e-05 1.46608e-10 
26 1 0.206745 0.0173698 0.00713518 0.00621862 -0.000438293 0.000324179 3.05468e-10 4.93619e-11 6.26019e-12 5e-05 1.46608e-10 
27 1 0.194714 0.0168822 0.00742883 0.00605292 3.1921e-05 0.000272794 -3.65087e-11 1.46407e-10 -7.91718e-11 5e-05 1.46608e-10 
28 1 0.200803 0.0172813 0.00733758 0.00615417 0.000245582 0.000241264 1.30992e-09 7.55306e-11 6.34964e-11 5e-05 1.46608e-10 
29 1 0.20021 0.0154641 0.00888355 0.00602923 -0.000246669 -0.000248726 -5.50174e-11 -6.36788e-11 7.8884e-11 5e-05 1.46608e-10 
30 1 0.200502 0.0164062 0.00784081 0.00556209 5.46452e-05 0.000190605 -4.97362e-10 4.53791e-10 -2.89524e-10 5e-05 1.46608e-10 
31 1 0.201195 0.017796 0.00706021 0.00594194 0.000576396 3.38859e-05 -1.33579e-10 -1.67125e-10 6.83497e-11 5e-05 1.46608e-10 
32 1 0.200441 0.0161551 0.00799316 0.00546532 -2.8929e-05 0.0002209 4.69202e-10 2.38932e-10 -1.38869e-10 5e-05 1.46608e-10 
33 1 0.206604 0.0168325 0.00756084 0.00581386 -0.000550168 0.000127196 -8.93741e-11 -1.04288e-10 1.24211e-10 5e-05 1.46608e-10 
34 1 0.200345 0.0157512 0.00826603 0.00566488 -0.000117729 0.000181171 1.84989e-10 -4.31632e-10 4.72343e-10 5e-05 1.46608e-10 
35 1 0.201079 0.0176803 0.00712085 0.00591094 0.000644327 -7.6198e-06 -6.83663e-10 5.59921e-10 -3.69048e-10 5e-05 1.46608e-10 
36 1 0.206847 0.0178559 0.00717179 0.00603719 -0.000531801 -0.000925712 -4.99146e-11 -1.26005e-10 5.36817e-11 5e-05 1.46608e-10 
37 1 0.200856 0.0171407 0.00742341 0.0060914 0.000182468 0.000274937 9.30101e-10 -4.18628e-10 3.10767e-10 5e-05 1.46608e-10 
38 1 0.200941 0.0174803 0.00722945 0.00620291 5.36969e-05 0.000358006 1.15634e-09 -2.12537e-10 1.82314e-10 5e-05 1.46608e-10 
39 1 0.206725 0.0172889 0.00719051 0.00620329 -0.000469231 0.000281376 2.79289e-11 -8.78898e-12 9.99744e-11 5e-05 1.46608e-10 
41 1 0.200305 0.0156373 0.00842445 0.00554783 -0.000266182 -0.000115959 -2.2874e-10 -4.17925e-10 7.03604e-10 5e-05 1.46608e-10 
42 1 0.200973 0.017255 0.00736364 0.00613046 0.000294711 0.00021139 9.49121e-10 -9.26339e-10 6.1096e-10 5e-05 1.46608e-10 
44 1 0.201037 0.0175099 0.00721812 0.00604724 0.00049161 9.05533e-05 -6.84043e-10 5.76059e-10 -3.8099e-10 5e-05 1.46608e-10 
45 1 0.206624 0.0169083 0.00749872 0.00587795 -0.000547592 0.000130375 -2.39006e-10 -9.81026e-11 3.10523e-11 5e-05 1.46608e-10 
47 1 0.200324 0.0156868 0.00833962 0.00555062 -0.000213166 -9.39165e-06 1.17649e-11 -5.71823e-10 5.65763e-10 5e-05 1.46608e-10 
48 1 0.200932 0.0182198 0.00690312 0.00584506 0.000196939 -6.76775e-05 -4.60946e-10 -9.63102e-10 5.45461e-10 5e-05 1.46608e-10 
49 1 0.206807 0.0176616 0.00714652 0.00613533 -0.000547322 -0.00094215 5.73808e-11 9.84712e-12 7.64783e-11 5e-05 1.46608e-10 
50 1 0.200461 0.0162385 0.00794197 0.00549655 8.09021e-06 0.000220074 4.5471e-10 3.05508e-10 -1.66813e-10 5e-05 1.46608e-10 
51 1 0.201215 0.0178812 0.00701148 0.00565583 0.000207607 0.000238369 -7.43708e-10 -1.74621e-09 8.37185e-10 5e-05 1.46608e-10 
52 1 0.194949 0.0171192 0.00732834 0.00617761 -9.62021e-05 0.000339864 -4.38112e-11 1.50361e-10 -6.94615e-11 5e-05 1.46608e-10 
53 1 0.206664 0.0170598 0.0073745 0.00600879 -0.000551153 0.000129776 1.4785e-11 1.29751e-10 -2.04908e-10 5e-05 1.46608e-10 
54 1 0.201274 0.0181542 0.00691042 0.00571214 9.88194e-05 -8.47437e-05 -6.74876e-10 -3.66709e-11 3.69937e-11 5e-05 1.46608e-10 
55 1 0.194896 0.0172667 0.00725633 0.00614508 -4.74842e-05 0.000314577 -2.15279e-10 5.21869e-11 -4.16178e-11 5e-05 1.46608e-10 
56 1 0.201329 0.0179955 0.00695157 0.00573502 5.06192e-05 0.000352286 3.48772e-10 2.16441e-10 -1.84493e-10 5e-05 1.46608e-10 
57 1 0.206644 0.0169841 0.0074366 0.00594425 -0.000548122 0.00013083 7.88384e-11 8.72101e-11 -5.05882e-11 5e-05 1.46608e-10 
59 1 0.378022 0.019866 0.005332 -5.01959e-15 -7.41216e-15 7.69802e-14 -4.88554e-24 3.87741e-24 2.06795e-25 5e-05 1.46608e-10 
60 1 0.201058 0.0175948 0.00716966 0.00604757 0.00051421 7.72453e-05 -6.84218e-10 5.73401e-10 -3.78602e-10 5e-05 1.46608e-10 
61 1 0.200288 0.0156024 0.00851661 0.0055317 -0.000245482 -0.000182091 -2.10541e-10 -2.09913e-10 6.17781e-10 5e-05 1.46608e-10 
62 1 0.200962 0.0175652 0.00718098 0.00584137 0.000337075 0.000168279 -6.85494e-10 5.90795e-10 -3.88343e-10 5e-05 1.46608e-10 
63 1 0.200972 0.0184128 0.00686894 0.00588616 2.68712e-05 -6.50559e-05 2.91325e-10 2.65016e-10 -5.68213e-11 5e-05 1.46608e-10 
64 1 0.206684 0.0171357 0.00731237 0.00604821 -0.000553591 0.000123267 -9.43636e-11 1.6866e-10 -6.26448e-11 5e-05 1.46608e-10 
65 1 0.194939 0.0174441 0.00717479 0.00609363 -2.99757e-05 0.000301977 1.83497e-10 -1.11416e-10 7.85497e-12 5e-05 1.46608e-10 
66 1 0.194873 0.0177223 0.00712285 0.00591883 -6.20302e-05 0.000404476 -2.98387e-10 8.51973e-11 2.32328e-10 5e-05 1.46608e-10 
67 1 0.201179 0.0181226 0.0069171 0.00585617 0.000126836 -8.77759e-05 5.88869e-10 -3.43636e-10 8.1094e-11 5e-05 1.46608e-10 
68 1 0.200867 0.0175361 0.00719211 0.00625762 0.000142647 0.000306173 2.05832e-10 -5.89118e-10 4.00295e-10 5e-05 1.46608e-10 
69 1 0.201255 0.0180578 0.00692778 0.00578292 0.00010439 2.3282e-05 1.06324e-11 7.4774e-11 6.82758e-10 5e-05 1.46608e-10 
70 1 0.206767 0.0174669 0.00712584 0.00624718 -0.000570775 -0.00104807 1.83737e-11 -1.0555e-10 -1.72838e-10 5e-05 1.46608e-10 
71 1 0.195258 0.0179504 0.00695139 0.00598443 6.91721e-05 0.000262981 -3.25468e-10 2.66124e-10 -7.4034e-11 5e-05 1.46608e-10 
72 1 0.201144 0.018381 0.00687243 0.00590671 0.000113929 4.45619e-05 4.75358e-10 -9.0283e-10 5.31973e-10 5e-05 1.46608e-10 
73 1 0.200402 0.0159901 0.00809879 0.00548061 -6.683e-05 0.000264412 -2.11817e-10 8.57876e-11 -1.72434e-10 5e-05 1.46608e-10 
74 1 0.20048 0.0163228 0.00789149 0.0055177 4.10832e-05 0.000205965 -2.00593e-11 3.61043e-10 -2.46739e-10 5e-05 1.46608e-10 
76 1 0.194831 0.0170005 0.00737865 0.00600371 -2.9173e-05 0.000299841 1.51957e-11 1.35568e-10 -7.54899e-11 5e-05 1.46608e-10 
77 1 0.20075 0.0174217 0.00725191 0.00616232 0.000179634 0.000275005 1.27773e-10 -1.80285e-11 1.45484e-10 5e-05 1.46608e-10 
78 1 0.194164 0.0151885 0.00893697 0.00572283 -0.000132666 0.000138891 -4.13032e-11 -2.78323e-11 -1.63403e-10 5e-05 1.46608e-10 
79 1 0.195222 0.0182047 0.00690006 0.00589666 -5.63988e-05 -0.000138052 -8.15467e-11 -2.55782e-10 1.69058e-10 5e-05 1.46608e-10 
80 1 0.200824 0.0173662 0.00728909 0.00614128 0.000244834 0.000238316 4.03879e-10 -8.14028e-11 1.07452e-10 5e-05 1.46608e-10 
82 1 0.194939 0.0175249 0.00723378 0.00623482 -6.73227e-05 0.000339478 7.23329e-11 -4.81904e-11 6.98842e-12 5e-05 1.46608e-10 
83 1 0.194905 0.0169414 0.00741006 0.00591258 -0.000121854 0.000339617 -1.69235e-10 2.24671e-11 1.49388e-12 5e-05 1.46608e-10 
84 1 0.206827 0.0177588 0.00715919 0.00608954 -0.000539386 -0.000934559 -1.00493e-10 6.23288e-12 4.69117e-11 5e-05 1.46608e-10 
85 1 0.195393 0.0181708 0.00689839 0.00596542 5.94814e-05 -0.000128605 5.32137e-10 -4.63976e-10 -7.99835e-11 5e-05 1.46608e-10 
86 1 0.201015 0.017425 0.00726661 0.00596117 0.000434038 0.000118918 -6.84566e-10 5.81417e-10 -3.83785e-10 5e-05 1.46608e-10 
87 1 0.200782 0.0171964 0.00738604 0.00617948 0.000258879 0.00023595 9.75365e-10 -1.53767e-11 6.6206e-11 5e-05 1.46608e-10 
88 1 0.201025 0.0178207 0.00703504 0.00582477 0.000296283 0.00019169 -4.08672e-10 -6.29483e-10 2.67938e-10 5e-05 1.46608e-10 
89 1 0.200909 0.0177062 0.00709499 0.00590482 0.000479724 8.82927e-05 -6.82725e-10 5.75012e-10 -3.83075e-10 5e-05 1.46608e-10 
90 1 0.201124 0.0182845 0.00688949 0.00588348 8.96106e-05 -7.01339e-05 1.13653e-09 -5.08497e-10 -7.08755e-11 5e-05 1.46608e-10 
91 1 0.194864 0.0167636 0.00749184 0.00571668 -7.99498e-05 0.00030459 -2.95092e-10 1.36961e-11 -4.69692e-11 5e-05 1.46608e-10 
92 1 0.200968 0.0179628 0.00694815 0.00562372 0.000315107 0.000170025 2.57405e-12 -1.4012e-09 -5.52028e-10 5e-05 1.46608e-10 
93 1 0.20056 0.0166584 0.0076895 0.0058428 9.97854e-05 0.000210957 1.91786e-10 2.68823e-10 -1.71473e-10 5e-05 1.46608e-10 
94 1 0.200892 0.0180268 0.00693749 0.00567835 0.000185081 -0.000219787 -3.35138e-10 -1.48237e-09 -3.58961e-10 5e-05 1.46608e-10 
95 1 0.200813 0.0176763 0.00710651 0.00608969 0.000181047 0.000261091 1.27605e-09 -2.70479e-09 1.11203e-09 5e-05 1.46608e-10 
96 1 0.20095 0.0178776 0.00699696 0.00582306 0.00021433 0.00024994 -8.05298e-10 -7.0787e-11 -1.57173e-10 5e-05 1.46608e-10 
97 1 0.194266 0.0155212 0.00858415 0.00579558 3.33023e-05 0.000111325 -2.39814e-11 2.03418e-10 -5.7297e-11 5e-05 1.46608e-10 
98 1 0.20054 0.0165742 0.00773934 0.00575757 7.02358e-05 0.000183499 6.3729e-10 2.55928e-10 -1.71389e-11 5e-05 1.46608e-10 
99 1 0.194995 0.0180739 0.00692437 0.00585338 -0.000137162 7.75296e-05 1.27064e-10 4.99952e-10 2.03865e-10 5e-05 1.46608e-10 
100 1 0.20114 0.0179357 0.00697476 0.0057216 0.000253946 0.000203276 3.67349e-10 -5.26014e-10 1.10996e-10 5e-05 1.46608e-10 
101 1 0.195014 0.0181695 0.00690238 0.00581801 -0.000146549 6.88521e-05 2.65043e-10 2.5472e-10 5.08293e-11 5e-05 1.46608e-10 
102 1 0.0643568 0.0187248 0.00531097 4.07825e-15 1.05838e-14 8.2959e-14 -6.24366e-22 -4.39957e-22 8.16841e-23 5e-05 1.46608e-10 
103 1 0.24257 0.0191927 0.00520306 -7.91558e-23 -1.27651e-22 1.23839e-22 0 0 0 5e-05 1.46608e-10 
104 1 0.195181 0.0180102 0.00692049 0.00589651 -8.39963e-05 -8.49729e-05 -2.14137e-10 1.7697e-10 9.59006e-12 5e-05 1.46608e-10 
105 1 0.194224 0.015372 0.00871082 0.00578567 7.54591e-06 0.000140218 -2.11692e-10 6.29103e-11 -5.51973e-11 5e-05 1.46608e-10 
106 1 0.194942 0.0177037 0.00705273 0.00588021 -1.50496e-05 0.000334282 -3.39043e-10 -3.62187e-11 -1.45564e-11 5e-05 1.46608e-10 
107 1 0.194185 0.0152399 0.00885381 0.00575978 -2.48081e-05 0.000186239 -2.50345e-10 -1.45704e-10 -5.40755e-11 5e-05 1.46608e-10 
108 1 0.201199 0.0182191 0.00689999 0.00573194 8.52412e-05 -8.26762e-05 4.71646e-10 -1.3176e-10 -4.90788e-12 5e-05 1.46608e-10 
109 1 0.201154 0.0176252 0.00715786 0.00619232 0.000680513 -1.12062e-05 -6.82595e-10 5.58356e-10 -3.70137e-10 5e-05 1.46608e-10 
110 1 0.200708 0.0172519 0.00734883 0.00613127 0.000201739 0.00026594 2.72515e-10 -2.5571e-10 1.87338e-10 5e-05 1.46608e-10 
111 1 0.200665 0.0170822 0.00744577 0.00601649 0.000201793 0.000254965 -2.91494e-10 -3.42142e-10 1.33488e-10 5e-05 1.46608e-10 
112 1 0.194306 0.0156703 0.00845752 0.00564211 8.16143e-05 7.62791e-05 -6.03499e-11 4.47478e-11 -7.75406e-11 5e-05 1.46608e-10 
113 1 0.19479 0.017562 0.00711212 0.00628498 4.3424e-05 0.0002796 6.66055e-11 -2.27476e-10 1.08153e-10 5e-05 1.46608e-10 
114 1 0.194874 0.0179382 0.00694924 0.00570622 -0.000215405 -2.39992e-05 3.45915e-10 6.97128e-10 -6.47346e-10 5e-05 1.46608e-10 
115 1 0.200994 0.0173401 0.00731508 0.0060023 0.000508863 7.76118e-05 -6.83413e-10 5.7321e-10 -3.80218e-10 5e-05 1.46608e-10 
116 1 0.201104 0.018188 0.00690658 0.00585912 8.87054e-05 -9.04222e-05 4.61819e-10 2.88826e-10 -4.15204e-10 5e-05 1.46608e-10 
117 1 0.2011 0.0177656 0.0070721 0.00577499 0.000339255 0.000162528 -3.16703e-10 1.39109e-10 -9.57826e-11 5e-05 1.46608e-10 
118 1 0.194992 0.0172967 0.00724674 0.00616131 1.10432e-05 0.000287635 -6.77745e-12 -1.26701e-10 6.72877e-11 5e-05 1.46608e-10 
119 1 0.201219 0.0183156 0.0068829 0.00587134 7.97791e-05 -8.3585e-05 9.76624e-10 -3.79059e-10 -5.13776e-11 5e-05 1.46608e-10 
120 1 0.200697 0.0168569 0.00757992 0.00579207 0.000163818 0.000264474 6.59327e-10 -6.61525e-11 4.0567e-11 5e-05 1.46608e-10 
121 1 0.20111 0.0186414 0.00686176 0.00565804 0.000150571 0.00024166 7.69452e-10 3.10353e-10 1.58079e-10 5e-05 1.46608e-10 
122 1 0.20093 0.0177911 0.0070465 0.0058925 0.000282376 0.000198677 1.0537e-10 -8.53434e-10 4.48844e-10 5e-05 1.46608e-10 
123 1 0.195278 0.018043 0.00691928 0.00601502 2.39604e-05 7.06393e-05 6.73941e-11 -1.78904e-11 -5.64051e-10 5e-05 1.46608e-10 
124 1 0.200581 0.0167433 0.0076408 0.00593457 0.000137715 0.000251811 2.51639e-10 2.14441e-10 -9.82971e-11 5e-05 1.46608e-10 
125 1 0.201005 0.0177355 0.00708375 0.00586976 0.000277908 0.000205995 1.26154e-09 -6.03333e-10 4.45384e-10 5e-05 1.46608e-10 
127 1 0.194245 0.0154465 0.00864752 0.00577197 2.63719e-05 0.000123686 -3.07404e-12 1.37242e-10 -1.04942e-10 5e-05 1.46608e-10 
128 1 0.200519 0.0164918 0.00779208 0.00562845 5.21438e-05 0.00015419 -9.61941e-11 3.61975e-10 -2.04672e-10 5e-05 1.46608e-10 
129 1 0.200856 0.017846 0.00700957 0.0058912 0.000186996 0.000245037 -3.58647e-10 -3.8777e-10 3.72939e-11 5e-05 1.46608e-10 
130 1 0.194955 0.017884 0.00697137 0.00575382 -7.85773e-05 0.00020494 -6.65115e-10 2.20573e-10 2.91766e-10 5e-05 1.46608e-10 
131 1 0.194974 0.0179778 0.00694221 0.00583012 -0.000103565 0.000130061 -2.79347e-10 5.46862e-10 3.14712e-10 5e-05 1.46608e-10 
132 1 0.200899 0.0173105 0.00732641 0.00609578 0.000260246 0.000229113 1.41656e-09 7.04496e-11 2.7436e-11 5e-05 1.46608e-10 
133 1 0.201049 0.0183498 0.00687899 0.00590672 2.71322e-05 -6.03549e-05 7.29851e-10 -6.16227e-10 1.06399e-10 5e-05 1.46608e-10 
134 1 0.201084 0.0180915 0.00692368 0.00581894 0.000130901 -8.01294e-05 2.63309e-10 4.36342e-10 -4.31221e-10 5e-05 1.46608e-10 
135 1 0.201234 0.0179664 0.0069627 0.0056716 0.000206425 0.000186983 7.5419e-10 -9.66128e-10 1.47325e-09 5e-05 1.46608e-10 
136 1 0.194874 0.017178 0.00729711 0.00619575 -6.35723e-05 0.000325333 -9.25524e-11 5.88274e-11 -4.59338e-11 5e-05 1.46608e-10 
137 1 0.200834 0.0177611 0.00705805 0.00594598 0.000220449 0.000242388 -1.47045e-09 -6.60659e-10 2.44587e-10 5e-05 1.46608e-10 
138 1 0.201029 0.0182533 0.00689609 0.00582629 6.43215e-05 -8.98034e-05 2.25472e-10 1.21851e-09 -2.95952e-10 5e-05 1.46608e-10 
140 1 0.200771 0.0175065 0.00720344 0.00620745 0.00016192 0.00028931 7.17318e-10 9.12209e-11 2.82564e-10 5e-05 1.46608e-10 
141 1 0.194711 0.0164903 0.0076632 0.00560285 -0.00018016 -1.47946e-05 -5.3747e-11 1.53876e-10 -5.54574e-11 5e-05 1.46608e-10 
142 1 0.195172 0.0176642 0.00708219 0.00572367 1.53861e-05 0.000265321 -5.63102e-10 4.85001e-10 -2.60851e-10 5e-05 1.46608e-10 
143 1 0.194204 0.0152974 0.00877415 0.00579311 -2.89202e-06 0.000170904 -1.43309e-10 -2.73486e-11 1.12005e-10 5e-05 1.46608e-10 
144 1 0.195037 0.0174742 0.00716527 0.00603496 -2.47372e-05 0.000296694 -1.04003e-10 -6.01145e-11 -4.5102e-11 5e-05 1.46608e-10 
146 1 0.194346 0.0158151 0.00832548 0.00558348 -9.31901e-05 -0.00015546 -3.22561e-11 -2.00398e-10 -7.0649e-11 5e-05 1.46608e-10 
147 1 0.195071 0.0176647 0.00707714 0.00597366 8.44133e-05 0.0002464 -5.18731e-10 3.25429e-10 -1.8485e-10 5e-05 1.46608e-10 
148 1 0.194729 0.0165695 0.00760494 0.00556322 -4.49392e-05 0.000149229 -2.25041e-10 -2.80063e-11 -2.25852e-10 5e-05 1.46608e-10 
149 1 0.200623 0.0169124 0.0075427 0.00597394 0.000193942 0.00025746 -5.70635e-10 4.10333e-10 -1.15623e-10 5e-05 1.46608e-10 
150 1 0.195242 0.0183026 0.00689405 0.00585831 -7.56265e-05 -0.00011923 -6.00839e-10 1.12362e-10 -6.55356e-11 5e-05 1.46608e-10 
151 1 0.195075 0.0184629 0.00688861 0.00589278 -0.000187737 -0.000163979 1.74414e-10 1.48349e-10 -4.4968e-10 5e-05 1.46608e-10 
153 1 0.194748 0.0166451 0.00754216 0.00557606 3.73027e-05 0.000249383 1.29484e-10 1.05449e-10 -9.92082e-12 5e-05 1.46608e-10 
154 1 0.194328 0.0157432 0.00839271 0.00563158 -3.51752e-05 -7.27406e-05 1.97791e-11 -1.35819e-10 -7.63595e-11 5e-05 1.46608e-10 
155 1 0.194424 0.0160942 0.00804996 0.00549322 -9.41157e-05 -0.000214483 6.15462e-12 2.40643e-10 -2.17166e-10 5e-05 1.46608e-10 
156 1 0.194692 0.0164173 0.0077288 0.00560595 -0.000234996 -8.95053e-05 1.50779e-10 1.52172e-10 -1.42588e-10 5e-05 1.46608e-10 
157 1 0.0219312 0.0187687 0.00551176 -3.83878e-14 8.16552e-14 2.95884e-13 -4.78705e-22 -5.3043e-23 -6.34861e-23 5e-05 1.46608e-10 
158 1 0.194789 0.0168228 0.00746042 0.00578608 8.57493e-07 0.00027282 -2.81851e-10 1.55531e-10 -1.3076e-10 5e-05 1.46608e-10 
159 1 0.20092 0.0173955 0.00727792 0.00606698 4.90158e-05 0.000351423 1.06019e-09 -4.10356e-10 2.90545e-10 5e-05 1.46608e-10 
160 1 0.194975 0.0184266 0.00689262 0.00579805 -0.000236025 -0.000109949 1.64733e-10 3.9286e-10 1.05158e-10 5e-05 1.46608e-10 
162 1 0.194913 0.0181283 0.00690183 0.00584066 -9.07512e-05 7.13725e-05 1.58925e-10 7.77062e-10 -3.23731e-10 5e-05 1.46608e-10 
164 1 0.194482 0.016306 0.00784597 0.00558597 -9.94621e-05 -0.000216991 -1.58126e-10 -4.28316e-11 1.11139e-11 5e-05 1.46608e-10 
165 1 0.195153 0.0183472 0.0068934 0.00582912 -0.000147815 -0.00011429 5.73142e-11 3.22784e-10 3.76042e-11 5e-05 1.46608e-10 
166 1 0.200952 0.0183163 0.00688603 0.0058483 0.000106462 -0.000106623 2.49529e-10 1.39504e-09 5.22685e-11 5e-05 1.46608e-10 
167 1 0.195262 0.0184003 0.00688805 0.00593671 -6.37395e-05 -0.000119991 -6.21143e-10 -1.0448e-10 6.64381e-11 5e-05 1.46608e-10 
168 1 0.195318 0.0182373 0.00689617 0.00591043 1.19579e-05 -0.000133786 -3.01834e-10 1.13725e-10 -4.59104e-11 5e-05 1.46608e-10 
169 1 0.195173 0.018445 0.00688739 0.00590797 -0.000128847 -0.000113952 -2.04646e-10 3.64433e-11 -8.68621e-11 5e-05 1.46608e-10 
170 1 0.195193 0.0185429 0.00688139 0.00549329 -5.89327e-05 -0.000112795 -5.04006e-10 -8.5297e-11 1.59134e-11 5e-05 1.46608e-10 
171 1 0.201164 0.0184774 0.00685532 0.00567529 0.000150379 -8.28255e-05 4.42541e-10 -2.22598e-10 1.81393e-10 5e-05 1.46608e-10 
172 1 0.194768 0.0174733 0.0071529 0.00624901 3.36895e-05 0.000280703 -5.26621e-11 -2.49087e-10 9.19667e-11 5e-05 1.46608e-10 
173 1 0.201009 0.0181568 0.00691318 0.00584782 0.000192444 -9.81025e-05 6.45722e-10 1.43489e-09 1.69171e-10 5e-05 1.46608e-10 
174 1 0.194521 0.0164471 0.00770997 0.00562036 -0.000115198 -0.000206343 -1.26368e-10 -7.26696e-11 4.43962e-11 5e-05 1.46608e-10 
176 1 0.194822 0.0173262 0.00722478 0.00620905 3.2159e-05 0.000280266 1.26462e-10 -1.10072e-10 5.806e-11 5e-05 1.46608e-10 
177 1 0.194404 0.0160253 0.00811977 0.00548878 -0.000100813 -0.000210288 8.32564e-11 1.45443e-10 -1.73649e-10 5e-05 1.46608e-10 
178 1 0.194836 0.0177562 0.00702284 0.00561364 -0.00010014 0.000312896 -2.91546e-11 4.79008e-11 -4.14995e-11 5e-05 1.46608e-10 
179 1 0.194996 0.0185246 0.0068866 0.00581296 -0.000273927 -0.000107675 2.7433e-11 -1.0978e-09 2.99158e-11 5e-05 1.46608e-10 
182 1 0.201185 0.0185758 0.00685943 0.005674 0.000171224 0.00024489 9.74827e-10 1.01876e-09 5.02128e-11 5e-05 1.46608e-10 
183 1 0.194935 0.0177938 0.00700985 0.00574926 -4.49474e-05 0.000287796 -4.00029e-10 -6.62819e-11 7.11663e-11 5e-05 1.46608e-10 
184 1 0.200912 0.0181233 0.00692021 0.00578029 0.000111346 -4.59318e-05 6.2687e-10 -7.95395e-10 -1.13183e-09 5e-05 1.46608e-10 
185 1 0.195059 0.0175651 0.00712347 0.00597959 -1.24907e-05 0.000286789 1.87527e-11 2.32747e-10 -1.79755e-10 5e-05 1.46608e-10 
186 1 0.195353 0.0179808 0.00694163 0.00592113 -2.13275e-05 0.000293938 -8.48899e-11 2.38652e-10 -2.14294e-10 5e-05 1.46608e-10 
187 1 0.201069 0.0184464 0.00686258 0.00587739 4.58254e-05 4.57892e-05 1.82257e-10 -1.00964e-09 -7.04616e-10 5e-05 1.46608e-10 
188 1 0.200984 0.0176506 0.00713227 0.00574088 0.000269495 0.000201769 -6.83117e-10 5.96307e-10 -3.96943e-10 5e-05 1.46608e-10 
189 1 0.201032 0.0187048 0.00686384 0.00563471 9.74004e-05 0.000231252 2.51714e-10 2.3766e-10 2.59374e-12 5e-05 1.46608e-10 
190 1 0.188946 0.0182867 0.00690875 0.00582498 -7.15888e-05 -0.000104148 -6.06579e-11 -5.39941e-11 1.35125e-11 5e-05 1.46608e-10 
191 1 0.200644 0.0169973 0.00749423 0.00601055 0.000190897 0.000260349 -5.68695e-11 1.56408e-11 1.51356e-10 5e-05 1.46608e-10 
192 1 0.194815 0.0176661 0.00706428 0.00618086 -0.000451231 0.000505616 4.39794e-11 4.72194e-11 -4.4135e-12 5e-05 1.46608e-10 
193 1 0.20124 0.0184119 0.00686585 0.00586695 0.00013231 1.821e-05 9.95306e-11 -5.97568e-11 -1.55325e-10 5e-05 1.46608e-10 
194 1 0.194899 0.0176086 0.00719645 0.0068865 0.000194689 0.000267405 8.503e-11 -2.11735e-11 -5.01014e-12 5e-05 1.46608e-10 
195 1 0.195113 0.0181515 0.0069039 0.00582413 -0.000163387 7.61073e-05 2.51464e-10 -2.93156e-11 1.75801e-11 5e-05 1.46608e-10 
196 1 0.195072 0.0179604 0.00693833 0.00585797 -0.000115711 -4.05389e-05 -3.7974e-10 4.88774e-10 -9.30938e-10 5e-05 1.46608e-10 
197 1 0.188619 0.01689 0.00754324 0.0060122 1.55959e-05 0.00025077 2.18823e-11 1.06399e-10 -2.58867e-11 5e-05 1.46608e-10 
198 1 0.194927 0.0170302 0.00736923 0.00604426 -0.000174219 0.00036977 -7.70245e-11 -1.99103e-10 1.00065e-10 5e-05 1.46608e-10 
199 1 0.194855 0.0178455 0.00698164 0.00566741 -0.000125192 0.000316733 -4.05565e-10 -4.92057e-10 8.28965e-10 5e-05 1.46608e-10 
200 1 0.19429 0.0155952 0.00852151 0.00576043 5.23242e-05 9.25851e-05 -2.61302e-10 2.25157e-10 -7.86043e-11 5e-05 1.46608e-10 
201 1 0.195132 0.0182495 0.0068994 0.00584317 -0.000162801 -9.9121e-05 2.67884e-10 1.28496e-10 1.05453e-10 5e-05 1.46608e-10 
202 1 0.19481 0.0169117 0.00741952 0.00588043 -1.00688e-05 0.000285782 -1.87455e-10 1.68982e-10 -1.09649e-10 5e-05 1.46608e-10 
203 1 0.201065 0.0179974 0.00695119 0.00577763 0.000197338 5.55424e-05 2.54523e-10 -6.46946e-11 6.41937e-10 5e-05 1.46608e-10 
204 1 0.195143 0.0178316 0.00700192 0.00591737 0.000133376 0.000218909 -4.44363e-10 6.18586e-10 -2.78434e-10 5e-05 1.46608e-10 
205 1 0.194653 0.0166154 0.00755163 0.00570234 0.000183343 0.000185435 -9.65645e-11 -1.35514e-10 1.03063e-10 5e-05 1.46608e-10 
206 1 0.194694 0.0167933 0.00746976 0.0058323 6.64038e-05 0.000245583 5.26683e-12 1.33988e-11 1.97163e-11 5e-05 1.46608e-10 
207 1 0.194577 0.0163273 0.00782044 0.00557412 -0.000135323 -0.000181459 -9.72412e-11 6.62146e-11 -1.36551e-10 5e-05 1.46608e-10 
208 1 0.19497 0.017208 0.00728756 0.00615171 -2.15962e-05 0.000303253 -2.8991e-10 5.52894e-11 -5.24132e-11 5e-05 1.46608e-10 
209 1 0.194917 0.0173557 0.00721611 0.00612441 -3.78068e-05 0.00030944 5.54081e-11 -2.725e-11 2.74904e-11 5e-05 1.46608e-10 
210 1 0.20074 0.0170267 0.00748299 0.00597926 0.000183681 0.000266891 7.51649e-11 1.64614e-10 -1.21513e-10 5e-05 1.46608e-10 
211 1 0.200761 0.0171116 0.00743451 0.00604384 0.000142956 0.000296039 -1.61326e-10 1.1167e-10 -1.03053e-10 5e-05 1.46608e-10 
212 1 0.195202 0.0181068 0.00690576 0.00589508 -6.60759e-05 8.16817e-05 -9.45442e-11 -3.51502e-10 -1.13074e-10 5e-05 1.46608e-10 
213 1 0.201012 0.0186071 0.00685514 0.00561421 1.44761e-05 0.000233641 1.95901e-10 1.52617e-10 9.1499e-11 5e-05 1.46608e-10 
214 1 0.200845 0.0174511 0.00724062 0.00622831 0.000181077 0.000277764 1.23011e-09 -5.93771e-10 4.38601e-10 5e-05 1.46608e-10 
215 1 0.188847 0.0178053 0.00699856 0.00555463 3.19049e-05 0.000113006 -8.4263e-11 3.85729e-11 -1.84311e-11 5e-05 1.46608e-10 
216 1 0.194558 0.0162567 0.00788848 0.0055502 -0.00013065 -0.00018124 -7.21719e-11 2.73206e-10 -1.45905e-10 5e-05 1.46608e-10 
217 1 0.20126 0.0185095 0.00685702 0.00570037 0.00020148 0.000236983 2.37173e-11 2.19884e-10 3.51771e-10 5e-05 1.46608e-10 
218 1 0.194893 0.0180319 0.00691938 0.00577624 -0.000150668 -7.87347e-05 -5.49434e-10 -1.04735e-10 -7.47968e-10 5e-05 1.46608e-10 
219 1 0.200602 0.0168276 0.00759116 0.00597104 0.000173435 0.000271472 6.72898e-11 8.72237e-11 3.63006e-11 5e-05 1.46608e-10 
220 1 0.194934 0.0182292 0.00690038 0.00581541 -0.00010959 6.7014e-05 -6.5149e-11 -3.88713e-10 -4.28914e-12 5e-05 1.46608e-10 
222 1 0.201175 0.0177109 0.00710889 0.00606372 0.000623429 1.42742e-05 -6.81194e-10 5.61358e-10 -3.75775e-10 5e-05 1.46608e-10 
224 1 0.194735 0.0169712 0.00738791 0.00616556 9.69537e-06 0.00028917 -2.21855e-10 1.44954e-11 -2.01137e-11 5e-05 1.46608e-10 
225 1 0.200686 0.017167 0.0073973 0.00609143 0.000202452 0.000262844 -2.66377e-10 -4.16397e-10 2.11903e-10 5e-05 1.46608e-10 
226 1 0.194807 0.0176469 0.00716209 0.00645125 -0.000164964 0.000588597 3.75113e-11 -3.0917e-10 -3.3902e-11 5e-05 1.46608e-10 
227 1 0.188866 0.0179007 0.00697509 0.00573631 -4.95233e-07 0.000124129 -2.47254e-11 1.87159e-11 -2.63139e-11 5e-05 1.46608e-10 
228 1 0.188806 0.0176152 0.00704524 0.00563646 9.16976e-06 0.000124058 -8.65165e-12 9.41226e-11 -2.20284e-11 5e-05 1.46608e-10 
229 1 0.195298 0.0181395 0.00690218 0.00594526 6.95918e-06 -0.000166717 5.12273e-10 -9.41948e-11 -4.64839e-10 5e-05 1.46608e-10 
230 1 0.194639 0.0169409 0.00739764 0.00606959 6.07088e-05 0.000260293 -2.30794e-10 1.17266e-10 -7.51315e-11 5e-05 1.46608e-10 
232 1 0.194955 0.0183288 0.00689863 0.00578878 -0.00018985 -0.000105872 1.03169e-10 -4.96994e-10 -5.03796e-12 5e-05 1.46608e-10 
233 1 0.195114 0.0186587 0.00687646 0.00561463 -0.000164531 -0.000109248 -1.78002e-10 -2.82099e-10 2.65095e-11 5e-05 1.46608e-10 
234 1 0.200888 0.0176213 0.00714346 0.00615311 0.000287169 0.000217167 2.34592e-09 -1.1159e-09 7.88797e-10 5e-05 1.46608e-10 
235 1 0.194599 0.016763 0.00747952 0.00572317 0.000122066 0.00022698 4.74986e-11 1.05563e-10 9.17035e-11 5e-05 1.46608e-10 
236 1 0.194704 0.0172071 0.00727524 0.00621868 3.46687e-05 0.000280114 7.92759e-11 4.95268e-11 -1.69418e-11 5e-05 1.46608e-10 
237 1 0.194725 0.0172959 0.00723446 0.00622006 2.96773e-05 0.000281282 4.37658e-11 -7.853e-11 4.75878e-11 5e-05 1.46608e-10 
239 1 0.188514 0.0164771 0.00780492 0.00550516 0.000115152 0.000164033 1.29258e-10 -5.44012e-11 4.13484e-11 5e-05 1.46608e-10 
240 1 0.188577 0.0167248 0.00764791 0.00594797 3.75142e-05 0.000233359 3.87676e-11 3.22381e-11 -1.01862e-11 5e-05 1.46608e-10 
241 1 0.188494 0.0163944 0.00785746 0.00552141 0.000129309 0.000155664 -1.12961e-10 7.97651e-11 -5.26092e-11 5e-05 1.46608e-10 
242 1 0.194367 0.0158849 0.00825705 0.00550561 -0.000105703 -0.000194901 -9.14694e-11 -9.04067e-11 -4.14015e-11 5e-05 1.46608e-10 
243 1 0.195054 0.0178709 0.00697915 0.00582134 4.97172e-05 0.000267389 -5.91123e-10 4.61879e-10 -1.36804e-10 5e-05 1.46608e-10 
244 1 0.188535 0.0165597 0.00775258 0.00588845 5.51437e-05 0.000220922 6.34244e-11 -7.87819e-11 5.99897e-11 5e-05 1.46608e-10 
246 1 0.188724 0.0172946 0.00726964 0.00613862 -0.000293274 -0.000112357 2.11113e-11 -6.86249e-11 -9.89645e-11 5e-05 1.46608e-10 
247 1 0.19454 0.0165186 0.00764262 0.00564078 -0.000143501 -0.000220511 -1.99064e-11 -2.16366e-11 5.19072e-11 5e-05 1.46608e-10 
248 1 0.194866 0.0175047 0.00714275 0.00632144 0.000102205 0.000252881 3.20994e-10 -2.60075e-10 1.34986e-10 5e-05 1.46608e-10 
249 1 0.188661 0.0170551 0.0074386 0.00608495 -4.4644e-06 0.000267192 -2.12949e-10 -5.38767e-11 3.53879e-11 5e-05 1.46608e-10 
250 1 0.194616 0.0164687 0.0076843 0.00560832 -0.000147525 -0.000187888 1.98794e-10 9.04469e-11 4.95635e-11 5e-05 1.46608e-10 
251 1 0.201045 0.0179059 0.00698631 0.00578 0.000257718 0.000200869 -5.9272e-10 -3.26524e-10 4.91555e-10 5e-05 1.46608e-10 
252 1 0.188744 0.0173727 0.00721043 0.00620293 -0.000294632 -9.64631e-05 8.08756e-11 -4.74449e-11 -5.61983e-11 5e-05 1.46608e-10 
253 1 0.188926 0.01819 0.00692376 0.00579819 -7.18737e-05 -0.000103724 1.95188e-11 -6.57517e-11 1.14595e-11 5e-05 1.46608e-10 
254 1 0.188682 0.0171376 0.00738624 0.00610767 -2.4733e-06 0.000267095 8.65584e-12 -1.27122e-11 4.35986e-11 5e-05 1.46608e-10 
255 1 0.194146 0.0151551 0.00902945 0.00566275 -0.000204097 0.000114907 -7.99384e-11 -3.76048e-11 -2.68201e-10 5e-05 1.46608e-10 
256 1 0.195238 0.0178615 0.00699235 0.00596973 4.36582e-05 0.000257965 -1.47413e-10 1.58414e-10 -8.20592e-11 5e-05 1.46608e-10 
257 1 0.194769 0.0167348 0.00750313 0.00567231 1.95152e-05 0.000255815 -2.37879e-10 1.74782e-10 -1.15032e-12 5e-05 1.46608e-10 
258 1 0.194843 0.0174149 0.007184 0.00620758 2.16318e-05 0.000285534 -1.51814e-11 -9.69977e-11 5.37805e-11 5e-05 1.46608e-10 
259 1 0.188765 0.0174526 0.00715403 0.00623063 -0.00029312 -8.87304e-05 3.34118e-11 -9.57333e-12 -9.33073e-11 5e-05 1.46608e-10 