ITEM: TIMESTEP
16200000
ITEM: NUMBER OF ATOMS
287
ITEM: BOX BOUNDS ff ff ff
-0.02 0.43
-0.02 0.06
-0.02 0.07
ITEM: ATOMS id type x y z vx vy vz fx fy fz radius mass 
1 1 0.107283 0.0163045 0.00780765 0.00555823 -0.000175816 -0.000115256 -1.47435e-11 5.12359e-11 -1.53566e-10 5e-05 1.46608e-10 
2 1 0.107943 0.018164 0.00706559 0.00585171 0.000595379 0.000301002 -2.77327e-11 6.37594e-11 -3.00444e-11 5e-05 1.46608e-10 
3 1 0.101118 0.016048 0.00810782 0.0056646 0.00022407 -0.000277739 -1.21862e-10 8.07079e-11 -6.29675e-11 5e-05 1.46608e-10 
4 1 0.107615 0.0177519 0.00721198 0.00605854 -1.47572e-06 0.000577742 1.39757e-11 4.03065e-12 3.85741e-12 5e-05 1.46608e-10 
5 1 0.107149 0.016113 0.00793036 0.00553228 -0.000226026 -0.000134557 3.60671e-11 1.94799e-10 -1.53731e-10 5e-05 1.46608e-10 
6 1 0.113323 0.0169132 0.0076316 0.00564978 -0.000415376 -7.2155e-05 -7.24686e-11 -2.16701e-10 1.42192e-10 5e-05 1.46608e-10 
7 1 0.107326 0.0169055 0.00754915 0.00587954 8.12249e-05 0.000525506 -4.56415e-12 -1.38379e-11 6.74528e-12 5e-05 1.46608e-10 
8 1 0.107059 0.0158183 0.00830253 0.00563519 0.00033955 0.000371646 8.53132e-11 1.21423e-11 -4.06643e-10 5e-05 1.46608e-10 
9 1 0.113591 0.0180021 0.00698597 0.00622167 -0.000263331 0.000398847 1.54849e-11 2.04839e-10 -3.61753e-11 5e-05 1.46608e-10 
10 1 0.107265 0.0166334 0.00766065 0.00551839 0.000127548 0.000469797 -1.68502e-10 -2.47652e-10 1.10136e-10 5e-05 1.46608e-10 
11 1 0.107826 0.017916 0.00716134 0.00607771 -3.24807e-05 0.00059294 3.48484e-11 3.4665e-12 -2.95532e-12 5e-05 1.46608e-10 
12 1 0.101293 0.0167298 0.00754701 0.00565169 0.000133752 -0.000235674 -8.40827e-11 1.56577e-10 -2.05078e-11 5e-05 1.46608e-10 
13 1 0.107129 0.0160316 0.00798508 0.00570242 -0.000167003 -9.22938e-05 -1.97292e-10 -7.87e-11 -5.68029e-11 5e-05 1.46608e-10 
14 1 0.101038 0.0157454 0.0083568 0.00585821 0.00015527 -0.00022519 1.11842e-11 1.25182e-11 -2.55332e-11 5e-05 1.46608e-10 
15 1 0.107486 0.0172091 0.0074336 0.00593792 4.42254e-05 0.000546647 -3.54163e-11 7.31591e-11 -3.34539e-11 5e-05 1.46608e-10 
16 1 0.101018 0.0156698 0.00841898 0.00584822 0.000153295 -0.000222863 -7.51581e-11 -7.64965e-11 6.14545e-11 5e-05 1.46608e-10 
17 1 0.107246 0.0165427 0.0076979 0.0055332 0.000115559 0.000477798 1.68921e-11 -1.40154e-10 8.95477e-11 5e-05 1.46608e-10 
18 1 0.113465 0.0174847 0.00725318 0.00599256 -0.000450059 -6.8646e-05 -1.00813e-10 -6.40653e-11 9.83485e-11 5e-05 1.46608e-10 
19 1 0.107109 0.0159507 0.00804027 0.00564852 -3.7351e-05 0.000103052 -3.00764e-10 -1.47792e-12 -2.02005e-10 5e-05 1.46608e-10 
21 1 0.107263 0.0162189 0.00785557 0.00562325 -0.000268254 -0.000227809 -2.79025e-10 -1.96058e-10 -7.46883e-10 5e-05 1.46608e-10 
22 1 0.107369 0.0170863 0.00747531 0.00591468 7.47974e-05 0.000531125 -1.86423e-11 4.3956e-12 -4.80046e-12 5e-05 1.46608e-10 
23 1 0.101427 0.0169081 0.00740418 0.00559995 0.000366007 -7.18307e-06 4.86961e-11 1.52599e-11 4.02409e-10 5e-05 1.46608e-10 
24 1 0.113526 0.0177296 0.007091 0.00614495 -0.000474282 -5.53743e-05 2.10476e-10 2.97844e-10 -4.46524e-10 5e-05 1.46608e-10 
25 1 0.107304 0.0168149 0.00758616 0.00547455 5.84473e-05 0.000496553 1.93096e-10 8.33872e-10 -3.50016e-10 5e-05 1.46608e-10 
26 1 0.113405 0.0172398 0.00741536 0.00588114 -0.000419733 -8.29087e-05 -5.81173e-11 -4.71771e-10 4.00114e-10 5e-05 1.46608e-10 
27 1 0.101475 0.0173712 0.00727247 0.00632007 4.65453e-05 -0.000311621 -5.78188e-10 1.14334e-09 2.71722e-10 5e-05 1.46608e-10 
28 1 0.107594 0.0176613 0.00724897 0.00604486 6.961e-06 0.000572951 -6.75271e-12 2.79045e-11 -1.08764e-11 5e-05 1.46608e-10 
29 1 0.107091 0.0158984 0.00812357 0.00567036 0.000129977 0.000230654 1.33839e-10 -8.04058e-11 -4.77099e-10 5e-05 1.46608e-10 
30 1 0.107551 0.0174804 0.00732281 0.00601374 3.52591e-05 0.000557647 9.71574e-11 7.04113e-11 -3.30108e-11 5e-05 1.46608e-10 
31 1 0.107347 0.0169959 0.00751223 0.0058956 7.92088e-05 0.00052735 -4.58681e-12 -5.57039e-12 1.57861e-12 5e-05 1.46608e-10 
32 1 0.107465 0.0171187 0.00747052 0.00591306 4.43986e-05 0.000544289 -7.51785e-11 6.61101e-11 -3.5939e-11 5e-05 1.46608e-10 
33 1 0.113344 0.0169948 0.00757754 0.00571472 -0.000419609 -7.26549e-05 -1.0499e-10 -1.31069e-10 9.11321e-11 5e-05 1.46608e-10 
34 1 0.107227 0.0164519 0.00773515 0.00554588 9.82266e-05 0.000482424 -1.74487e-10 -1.21749e-10 1.61094e-10 5e-05 1.46608e-10 
35 1 0.107443 0.0170283 0.00750745 0.00590042 7.10936e-05 0.000531714 -6.32086e-11 -8.22216e-12 -2.4265e-12 5e-05 1.46608e-10 
36 1 0.113632 0.0181966 0.00700738 0.00614494 -0.00022342 0.000392345 1.09455e-10 4.82201e-10 7.30787e-11 5e-05 1.46608e-10 
37 1 0.107401 0.0168474 0.00758129 0.0058834 7.60849e-05 0.000527688 5.79592e-11 5.86575e-11 -1.56257e-11 5e-05 1.46608e-10 
38 1 0.107625 0.0174221 0.00735508 0.00601851 1.793e-05 0.000565802 -1.22206e-10 2.33311e-11 -2.74204e-11 5e-05 1.46608e-10 
39 1 0.113548 0.0178162 0.00704585 0.00614766 -0.000403899 4.50727e-05 2.75208e-10 7.47281e-12 -9.72128e-10 5e-05 1.46608e-10 
41 1 0.107188 0.0162765 0.00782186 0.00547563 -0.000219894 -8.60039e-05 3.87197e-10 5.07267e-10 1.50629e-09 5e-05 1.46608e-10 
42 1 0.10739 0.0171767 0.00743839 0.00593264 6.41879e-05 0.000537567 -8.67156e-11 2.24879e-11 -2.5587e-11 5e-05 1.46608e-10 
44 1 0.107647 0.0175125 0.00731813 0.00603653 1.39128e-05 0.000569375 -5.49957e-11 -7.76528e-12 -2.44918e-12 5e-05 1.46608e-10 
45 1 0.113364 0.0170765 0.00752348 0.00575278 -0.000423364 -7.26805e-05 1.15074e-10 -2.68386e-10 1.59928e-10 5e-05 1.46608e-10 
46 1 0.113445 0.017403 0.00730725 0.00593069 -0.000433745 -8.10481e-05 -7.84366e-10 -2.44574e-10 2.23173e-10 5e-05 1.46608e-10 
47 1 0.107207 0.0163612 0.00777243 0.0055286 0.000116563 0.000478011 -8.57089e-11 -4.49345e-11 1.90647e-11 5e-05 1.46608e-10 
48 1 0.107433 0.0173578 0.00736447 0.00597555 6.29275e-05 0.000542011 -4.80426e-11 -2.77733e-12 -7.37893e-12 5e-05 1.46608e-10 
49 1 0.113425 0.0173214 0.0073613 0.00589621 -0.000426917 -8.38821e-05 3.27181e-10 -5.21128e-10 3.98158e-10 5e-05 1.46608e-10 
50 1 0.107497 0.0176291 0.00725369 0.00603359 1.81291e-05 0.00056743 5.65038e-11 6.60945e-11 -2.25279e-11 5e-05 1.46608e-10 
51 1 0.107476 0.0175387 0.00729061 0.00601297 3.2804e-05 0.00055849 2.77866e-11 3.24217e-11 -1.65386e-11 5e-05 1.46608e-10 
52 1 0.101274 0.0166541 0.00760931 0.00563541 0.00014641 -0.000213151 -1.18926e-10 1.56469e-10 -1.58247e-10 5e-05 1.46608e-10 
53 1 0.113486 0.0175663 0.00719913 0.00601151 -0.000464755 -6.28095e-05 7.87746e-10 -4.79543e-11 -2.64842e-11 5e-05 1.46608e-10 
54 1 0.107244 0.0161372 0.0079098 0.0056884 -0.000239166 -0.000134207 -1.68487e-10 8.07606e-11 -1.54702e-10 5e-05 1.46608e-10 
55 1 0.101078 0.0158967 0.00823234 0.00562581 0.000210694 -0.000265976 1.12804e-10 7.21092e-11 -6.18445e-11 5e-05 1.46608e-10 
56 1 0.107422 0.0169379 0.00754437 0.00588396 7.54798e-05 0.000528265 -1.06158e-11 3.55253e-11 -2.13753e-11 5e-05 1.46608e-10 
57 1 0.113384 0.0171581 0.00746942 0.00579626 -0.000419947 -7.75733e-05 -3.0697e-10 -4.76233e-10 3.12161e-10 5e-05 1.46608e-10 
59 1 0.10754 0.0170604 0.00750276 0.00588582 4.17311e-05 0.000542399 -1.21493e-10 2.34909e-11 -1.8018e-11 5e-05 1.46608e-10 
60 1 0.107561 0.0171508 0.00746585 0.00589377 3.9999e-05 0.000544405 -9.6546e-11 2.39835e-11 -3.11189e-11 5e-05 1.46608e-10 
61 1 0.107168 0.0161947 0.00787611 0.0055262 -0.000228093 -0.00012786 2.24332e-11 1.72326e-10 3.07464e-10 5e-05 1.46608e-10 
62 1 0.107668 0.017603 0.00728118 0.00604298 3.96742e-06 0.000574158 -5.18604e-12 1.79351e-11 -9.10987e-12 5e-05 1.46608e-10 
63 1 0.107568 0.0177448 0.00729998 0.00605183 -2.36082e-06 0.000574849 -2.6295e-12 2.99963e-11 9.41362e-12 5e-05 1.46608e-10 
64 1 0.113507 0.0176478 0.0071451 0.00610141 -0.000482034 -5.54302e-05 -1.62203e-11 3.40696e-10 -1.04226e-10 5e-05 1.46608e-10 
65 1 0.101576 0.0177007 0.00719519 0.00627993 0.000114407 -3.25102e-05 4.49795e-11 3.75554e-11 1.194e-10 5e-05 1.46608e-10 
66 1 0.101594 0.017496 0.00724194 0.00639709 -3.0864e-05 -0.000227988 -8.03037e-11 2.57164e-10 -6.88776e-11 5e-05 1.46608e-10 
67 1 0.107803 0.0178259 0.00719791 0.00606557 -3.04317e-05 0.000590969 1.02085e-10 2.1269e-11 1.50672e-13 5e-05 1.46608e-10 
68 1 0.107712 0.0177837 0.00720752 0.00605236 -1.14771e-05 0.000581412 1.90268e-11 -8.72866e-12 -1.90067e-12 5e-05 1.46608e-10 
69 1 0.10734 0.0165755 0.00769276 0.00551759 0.000124355 0.000471951 -1.23067e-10 4.31917e-11 -5.61726e-11 5e-05 1.46608e-10 
70 1 0.113569 0.0179086 0.00701385 0.00622872 -0.000319604 0.000280987 -9.43963e-11 1.44994e-10 -5.42169e-10 5e-05 1.46608e-10 
71 1 0.101058 0.015821 0.00829459 0.00560786 0.000203296 -0.000259897 -6.54168e-11 7.6435e-11 -6.38242e-11 5e-05 1.46608e-10 
72 1 0.10769 0.0176935 0.00724426 0.00605262 -9.63191e-07 0.000577122 7.15291e-13 -2.25042e-13 2.83467e-12 5e-05 1.46608e-10 
73 1 0.107285 0.0167242 0.0076234 0.00549569 9.99179e-05 0.000480677 -2.13787e-10 -5.70525e-10 2.25029e-10 5e-05 1.46608e-10 
74 1 0.107508 0.0172996 0.00739666 0.00595587 4.67357e-05 0.000547364 -1.73056e-10 -2.9356e-11 -1.40053e-11 5e-05 1.46608e-10 
76 1 0.101573 0.0175327 0.00715122 0.0062939 0.0001174 -0.000156307 1.16631e-12 4.05611e-10 -1.0704e-10 5e-05 1.46608e-10 
77 1 0.107738 0.0182684 0.00700109 0.0061644 -4.86176e-05 0.000610307 -2.70619e-11 1.31647e-12 3.7364e-12 5e-05 1.46608e-10 
78 1 0.101138 0.0161238 0.00804551 0.00551707 0.000247292 -0.000294246 -2.21283e-10 -2.23196e-11 2.24395e-11 5e-05 1.46608e-10 
79 1 0.101526 0.0172166 0.00731349 0.00614333 0.00033609 -0.000165707 5.87265e-10 -1.65772e-09 2.53728e-10 5e-05 1.46608e-10 
80 1 0.10754 0.0178099 0.00717985 0.00606332 -2.94255e-06 0.000578335 -2.96195e-13 1.35705e-11 -7.80566e-12 5e-05 1.46608e-10 
81 1 0.10135 0.0169815 0.00745991 0.00584902 0.000872671 -0.000316746 3.52461e-11 8.76927e-11 -4.16752e-10 5e-05 1.46608e-10 
82 1 0.101352 0.0169593 0.00736242 0.00583119 0.000806915 -0.000315961 -1.73481e-11 2.47408e-10 -2.91374e-10 5e-05 1.46608e-10 
83 1 0.101463 0.0167021 0.0075677 0.00562681 0.00021536 -6.93828e-05 2.52101e-10 -1.03942e-10 5.587e-11 5e-05 1.46608e-10 
84 1 0.113611 0.0180994 0.00699668 0.00618775 -0.000240658 0.000394612 7.19293e-11 3.27992e-10 3.27702e-11 5e-05 1.46608e-10 
85 1 0.101252 0.0162237 0.00796185 0.00558498 0.000167106 -0.000229609 -5.95874e-11 -9.18707e-11 7.62665e-11 5e-05 1.46608e-10 
86 1 0.107572 0.0175709 0.00728589 0.00603426 1.266e-05 0.00056984 1.69967e-11 5.05958e-11 -2.42694e-11 5e-05 1.46608e-10 
87 1 0.107518 0.01697 0.00753968 0.00586542 4.48123e-05 0.000539849 -5.97462e-11 -1.08487e-11 1.37504e-11 5e-05 1.46608e-10 
88 1 0.10759 0.0180189 0.00709453 0.00610072 -8.53789e-05 0.000619441 -2.5306e-13 -3.07066e-11 -5.45554e-12 5e-05 1.46608e-10 
89 1 0.107562 0.017907 0.00716935 0.00605605 -4.47417e-06 0.000584185 1.79645e-11 -1.69054e-11 -2.06058e-11 5e-05 1.46608e-10 
90 1 0.107924 0.0179344 0.00716277 0.00608969 -6.77523e-05 0.00060868 2.05666e-11 -1.3989e-11 5.06159e-12 5e-05 1.46608e-10 
91 1 0.101313 0.0168057 0.00748459 0.00569338 0.000298831 -0.000344292 6.0568e-10 -1.02284e-09 1.54174e-09 5e-05 1.46608e-10 
92 1 0.107751 0.0179819 0.00716331 0.00608304 -2.67256e-05 0.000590633 7.17147e-11 1.07272e-11 2.38383e-11 5e-05 1.46608e-10 
93 1 0.107667 0.018117 0.00714071 0.00612137 -2.31638e-05 0.00061049 2.25303e-11 4.94309e-11 3.59703e-11 5e-05 1.46608e-10 
94 1 0.107811 0.0182088 0.00703374 0.00616955 -5.1424e-05 0.000610309 -6.21944e-12 -2.23908e-11 1.5387e-11 5e-05 1.46608e-10 
95 1 0.107582 0.017861 0.00725587 0.00605555 -1.83498e-05 0.000580776 -3.16276e-11 -1.33299e-11 -6.19109e-11 5e-05 1.46608e-10 
96 1 0.10782 0.0180318 0.00711087 0.0061141 -5.52141e-05 0.000605511 -1.2262e-11 -1.32896e-11 8.5805e-12 5e-05 1.46608e-10 
97 1 0.101235 0.0165026 0.00773393 0.00559623 0.000137952 -0.000205736 5.87007e-11 1.06974e-10 -9.58836e-11 5e-05 1.46608e-10 
98 1 0.107611 0.0181093 0.00705761 0.00611132 -0.000103295 0.000625484 -4.32564e-12 -9.7338e-11 4.81007e-11 5e-05 1.46608e-10 
99 1 0.101655 0.0176347 0.00720911 0.00645334 -6.15232e-06 -0.000172967 9.01915e-11 -2.7759e-11 -6.257e-11 5e-05 1.46608e-10 
100 1 0.107743 0.0175447 0.00731342 0.00604256 4.98163e-06 0.000573658 -7.0732e-11 -4.3923e-11 1.22511e-11 5e-05 1.46608e-10 
101 1 0.101359 0.0168998 0.00751687 0.00591046 0.000304436 -0.000197567 7.68717e-12 -2.34115e-10 2.61595e-11 5e-05 1.46608e-10 
102 1 0.0643568 0.0187248 0.00531097 4.22208e-15 1.05718e-14 8.29532e-14 1.36242e-21 -7.74655e-22 1.69572e-23 5e-05 1.46608e-10 
103 1 0.24257 0.0191927 0.00520306 -1.01195e-22 4.86658e-23 -5.81428e-22 0 0 0 5e-05 1.46608e-10 
104 1 0.101583 0.0171846 0.00723792 0.00630055 0.000202025 3.22564e-05 1.5652e-10 -2.97806e-10 -4.54277e-10 5e-05 1.46608e-10 
105 1 0.101196 0.0163511 0.00785855 0.00557783 0.000165948 -0.000227624 -2.92844e-10 -1.4937e-10 1.18923e-10 5e-05 1.46608e-10 
106 1 0.101679 0.0172099 0.00721839 0.00627643 6.10607e-05 -0.000187951 -1.24422e-10 1.38262e-10 7.72376e-11 5e-05 1.46608e-10 
107 1 0.101157 0.0161995 0.00798318 0.00551125 0.000191663 -0.000248519 -1.3603e-10 -4.22042e-10 3.42578e-10 5e-05 1.46608e-10 
108 1 0.10738 0.0167569 0.00761828 0.00568041 0.000105514 0.000496068 5.27877e-11 8.17639e-11 -2.99097e-11 5e-05 1.46608e-10 
109 1 0.107455 0.0174482 0.00732753 0.00599685 4.23572e-05 0.000553045 2.06907e-11 -1.35261e-11 1.00754e-11 5e-05 1.46608e-10 
110 1 0.107849 0.0183985 0.00695565 0.00585929 0.000599072 0.000300922 -2.37378e-11 1.73724e-11 -7.55621e-12 5e-05 1.46608e-10 
111 1 0.107741 0.0184477 0.0070144 0.00584455 0.000618734 0.000287538 6.6574e-12 -5.85905e-12 1.08231e-11 5e-05 1.46608e-10 
112 1 0.101254 0.0165783 0.00767162 0.00561585 0.000142912 -0.00020719 -1.30967e-11 1.65081e-10 -1.09004e-10 5e-05 1.46608e-10 
113 1 0.101873 0.018068 0.00702272 0.00568482 0.000257557 -5.73671e-05 1.59554e-10 9.42752e-11 -1.63644e-11 5e-05 1.46608e-10 
114 1 0.101824 0.0175967 0.00721239 0.00632164 0.000145293 -0.000195011 -7.963e-11 -2.24368e-10 2.23885e-10 5e-05 1.46608e-10 
115 1 0.107529 0.01739 0.00735973 0.005983 3.51129e-05 0.000554994 -7.81302e-12 -1.29205e-11 9.49938e-12 5e-05 1.46608e-10 
116 1 0.10736 0.0166662 0.00765551 0.00549484 0.000130611 0.000467887 -4.83672e-11 4.01477e-11 -2.6424e-11 5e-05 1.46608e-10 
117 1 0.107224 0.0160556 0.00796401 0.00572286 -0.000259149 -0.000123694 -1.83136e-10 2.06449e-11 5.61015e-11 5e-05 1.46608e-10 
118 1 0.101099 0.0159723 0.0081701 0.00565629 0.000216327 -0.000271092 6.36519e-11 7.86626e-11 -6.37849e-11 5e-05 1.46608e-10 
119 1 0.107582 0.0172413 0.0074289 0.0059318 3.18194e-05 0.000551773 -1.66773e-10 2.26782e-11 -1.66317e-11 5e-05 1.46608e-10 
120 1 0.107073 0.0158481 0.00820816 0.00560347 0.000316485 0.00035101 -1.35894e-11 8.16713e-11 -3.58037e-10 5e-05 1.46608e-10 
121 1 0.10704 0.0157881 0.00839603 0.00571302 0.000318465 0.000386424 1.44159e-10 1.85553e-10 -3.79901e-10 5e-05 1.46608e-10 
122 1 0.107778 0.0184601 0.0069223 0.00586883 0.000610713 0.000296551 -1.02476e-11 9.42889e-12 -8.72533e-12 5e-05 1.46608e-10 
123 1 0.101291 0.0163752 0.00783723 0.00558993 0.000141807 -0.000209375 -1.73501e-10 6.75408e-11 -3.69405e-11 5e-05 1.46608e-10 
124 1 0.107647 0.017944 0.00713221 0.00605872 -7.86417e-06 0.000583752 7.25086e-11 -1.23092e-11 3.86396e-11 5e-05 1.46608e-10 
125 1 0.107204 0.015974 0.00801822 0.00568244 -0.000276869 -0.000128841 -4.74411e-10 -1.97227e-10 7.72713e-11 5e-05 1.46608e-10 
126 1 0.107412 0.0172672 0.00740147 0.00595532 6.4078e-05 0.000539686 7.08811e-11 1.01025e-10 -4.19244e-11 5e-05 1.46608e-10 
127 1 0.101215 0.0164268 0.00779624 0.00559061 0.000145795 -0.000212311 3.77004e-10 2.90461e-11 -1.60068e-11 5e-05 1.46608e-10 
128 1 0.107519 0.0177195 0.00721677 0.00604866 7.06437e-06 0.000573196 -2.63305e-11 3.69966e-11 -9.58963e-12 5e-05 1.46608e-10 
129 1 0.10759 0.018 0.00719273 0.00607319 -3.36846e-05 0.000629358 4.44825e-11 -2.08671e-11 -2.80173e-11 5e-05 1.46608e-10 
130 1 0.101446 0.0169872 0.00734613 0.00570532 0.000358216 1.41462e-05 -1.92751e-10 -1.69553e-10 4.43325e-11 5e-05 1.46608e-10 
131 1 0.101675 0.0177307 0.00718714 0.00641659 0.000120185 -0.000113618 -7.64036e-11 -1.19518e-10 -1.70311e-10 5e-05 1.46608e-10 
132 1 0.107638 0.0178423 0.00717518 0.00605557 -1.07663e-05 0.000581131 1.59004e-11 -5.57272e-12 -2.32017e-12 5e-05 1.46608e-10 
133 1 0.107436 0.0166078 0.0076879 0.00537983 0.000115178 0.000463431 -1.67467e-10 -6.64717e-11 -3.76791e-11 5e-05 1.46608e-10 
134 1 0.107604 0.0173317 0.00739198 0.0059788 2.49696e-05 0.000558755 -2.00343e-10 3.74876e-11 -3.24091e-11 5e-05 1.46608e-10 
135 1 0.107182 0.0158952 0.00808097 0.00551236 0.000204589 0.000708194 -2.96512e-10 6.99004e-11 -4.32513e-10 5e-05 1.46608e-10 
136 1 0.101232 0.0161479 0.00802417 0.00553509 0.000192639 -0.000249717 -1.20366e-10 -1.35477e-10 1.1316e-10 5e-05 1.46608e-10 
137 1 0.107681 0.018423 0.0069291 0.00585256 0.000635716 0.000285028 -1.32011e-12 8.7262e-11 -4.74359e-11 5e-05 1.46608e-10 
138 1 0.107321 0.0164848 0.00773 0.00553126 0.000120551 0.000474452 -6.95246e-11 -2.29896e-11 5.68817e-12 5e-05 1.46608e-10 
140 1 0.107831 0.0183067 0.00699345 0.00585878 0.000614856 0.000293447 -1.08481e-10 3.82648e-11 -3.27575e-11 5e-05 1.46608e-10 
141 1 0.101271 0.0162994 0.00789954 0.00559225 0.000150933 -0.000216869 1.40584e-10 -5.23085e-11 3.37235e-11 5e-05 1.46608e-10 
142 1 0.101541 0.0170157 0.00733228 0.00609096 0.000266375 9.9132e-05 5.26857e-10 -2.59765e-10 3.65094e-10 5e-05 1.46608e-10 
143 1 0.101176 0.0162753 0.00792086 0.0055309 0.000181962 -0.000240993 -3.18124e-10 -3.63554e-10 2.774e-10 5e-05 1.46608e-10 
144 1 0.101691 0.0176576 0.00711896 0.00630594 0.000102953 -0.000200316 2.49077e-10 1.11522e-11 5.83714e-11 5e-05 1.46608e-10 
146 1 0.101578 0.0168042 0.00748894 0.00573011 0.000241266 9.56654e-05 2.2292e-10 2.16165e-11 1.6746e-11 5e-05 1.46608e-10 
147 1 0.101213 0.0160722 0.00808648 0.00552634 0.000214425 -0.000267457 -1.02992e-10 -1.07708e-10 9.09437e-11 5e-05 1.46608e-10 
148 1 0.10141 0.017215 0.00722471 0.00630321 0.000196708 -0.000204587 4.5063e-10 8.57911e-10 -3.10017e-10 5e-05 1.46608e-10 
149 1 0.107664 0.0183341 0.00698749 0.00615797 -4.01997e-05 0.000613347 -8.25349e-12 5.3934e-11 3.17596e-12 5e-05 1.46608e-10 
150 1 0.101368 0.0166782 0.00758798 0.00564509 0.000139097 -0.000208579 -2.23417e-10 2.17225e-10 -1.18067e-10 5e-05 1.46608e-10 
151 1 0.101861 0.0176203 0.00712249 0.00627462 0.0001417 -0.000206514 -1.49387e-10 5.75946e-11 4.08296e-11 5e-05 1.46608e-10 
153 1 0.101329 0.0165267 0.0077126 0.00559954 0.000134806 -0.000203152 1.30158e-10 4.47164e-12 -4.25094e-11 5e-05 1.46608e-10 
154 1 0.101508 0.0172469 0.00721497 0.00636123 0.000227071 -0.000191916 -2.96422e-10 -5.22891e-10 2.54417e-11 5e-05 1.46608e-10 
155 1 0.101595 0.0176278 0.00712909 0.00628624 0.000129413 -6.12193e-05 1.67135e-10 1.54486e-10 -4.55209e-11 5e-05 1.46608e-10 
156 1 0.101487 0.0171538 0.0072445 0.00630833 0.00024401 -1.86844e-05 1.25918e-10 -2.22257e-10 6.65729e-12 5e-05 1.46608e-10 
157 1 0.0219312 0.0187687 0.00551176 -3.83402e-14 8.16515e-14 2.95891e-13 7.14503e-22 2.96906e-22 1.0133e-23 5e-05 1.46608e-10 
158 1 0.101605 0.0172768 0.00720646 0.0063396 0.000154504 -6.97184e-05 -8.01865e-11 5.53484e-11 -1.38345e-10 5e-05 1.46608e-10 
159 1 0.107728 0.0178845 0.00716558 0.00606678 -2.30485e-05 0.000587723 2.99638e-11 1.36488e-11 -1.85695e-12 5e-05 1.46608e-10 
160 1 0.101497 0.0175962 0.0071369 0.00627669 0.000177097 -4.35391e-05 -8.05829e-11 7.33123e-10 3.07249e-11 5e-05 1.46608e-10 
162 1 0.10153 0.0173421 0.00719327 0.00638392 0.000266016 -0.00023994 -2.23663e-10 -1.12012e-10 -6.36375e-11 5e-05 1.46608e-10 
164 1 0.101682 0.0180073 0.00703726 0.00626412 0.000145333 -3.05652e-05 -6.48836e-11 5.67782e-11 1.49008e-11 5e-05 1.46608e-10 
165 1 0.101787 0.0176869 0.00710979 0.00626962 0.000127029 -0.000204243 -6.95919e-11 1.0384e-10 -1.61848e-10 5e-05 1.46608e-10 
166 1 0.107396 0.0164264 0.00776227 0.00553743 8.13907e-05 0.000487093 -3.76899e-10 1.76598e-10 1.30083e-10 5e-05 1.46608e-10 
167 1 0.101349 0.0166025 0.00765029 0.00562219 0.00013804 -0.000207169 1.0493e-10 1.23437e-10 -1.78999e-10 5e-05 1.46608e-10 
168 1 0.101701 0.0173056 0.00719659 0.00634715 7.00985e-05 -0.0001892 8.98321e-11 -2.83685e-11 -1.71821e-10 5e-05 1.46608e-10 
169 1 0.101853 0.0179727 0.00704473 0.00626181 0.000104367 -0.000194333 -1.98087e-10 7.59547e-11 -1.09987e-10 5e-05 1.46608e-10 
170 1 0.101744 0.0174964 0.00715316 0.00633109 0.0001159 -0.000199315 1.3972e-10 3.53225e-11 2.38621e-11 5e-05 1.46608e-10 
171 1 0.107416 0.0165171 0.00772509 0.00547648 9.39542e-05 0.000476697 -1.5372e-10 -9.0834e-12 2.95152e-11 5e-05 1.46608e-10 
172 1 0.101904 0.0178109 0.0070791 0.00630093 9.8847e-05 -0.000198342 -1.56813e-10 6.07857e-11 2.66648e-11 5e-05 1.46608e-10 
173 1 0.10785 0.0181258 0.00707328 0.00615259 -6.16368e-05 0.000612594 5.67629e-11 -4.01301e-11 2.46812e-11 5e-05 1.46608e-10 
174 1 0.101648 0.0174672 0.0071623 0.0063244 0.000126859 -0.000198259 1.0094e-10 2.61232e-10 9.05221e-11 5e-05 1.46608e-10 
175 1 0.0954367 0.0173258 0.00719794 0.00613938 -0.000474774 0.000274131 -1.02999e-11 3.59692e-13 3.48436e-12 5e-05 1.46608e-10 
176 1 0.101466 0.0170662 0.00728807 0.00611497 0.000308897 6.5636e-05 -2.34826e-11 -9.68069e-11 2.90042e-10 5e-05 1.46608e-10 
177 1 0.101541 0.0177861 0.00709082 0.00626569 0.000156763 -3.52277e-05 -1.07953e-10 -1.0581e-10 5.20034e-11 5e-05 1.46608e-10 
178 1 0.101894 0.0181641 0.00699942 0.0056646 0.000246847 -5.45054e-05 1.39813e-10 -7.73196e-11 3.49501e-11 5e-05 1.46608e-10 
179 1 0.101831 0.0178775 0.00706644 0.00630767 0.000124569 -0.000175548 -1.26316e-10 -2.10591e-11 -3.96584e-10 5e-05 1.46608e-10 
181 1 0.101454 0.017406 0.00718122 0.00625188 0.000170361 -0.000242409 -5.09573e-10 -1.9683e-10 -3.02818e-10 5e-05 1.46608e-10 
182 1 0.107301 0.0163959 0.00777133 0.0055535 1.96335e-05 0.000346468 -3.15857e-10 1.98073e-10 3.18158e-10 5e-05 1.46608e-10 
183 1 0.101722 0.0174013 0.00717483 0.00635497 0.000117115 -0.000198098 7.89498e-11 7.28837e-11 1.93299e-11 5e-05 1.46608e-10 
184 1 0.107781 0.0180816 0.00718836 0.00613753 -4.05191e-05 0.000603992 -5.21713e-11 -6.35644e-11 2.95149e-11 5e-05 1.46608e-10 
185 1 0.101391 0.0171179 0.00724675 0.00564907 -0.000208621 -0.000110714 -2.03874e-11 -1.08743e-10 2.43267e-11 5e-05 1.46608e-10 
186 1 0.101432 0.0173105 0.00720297 0.00627678 0.000287022 -0.000272402 -5.9057e-10 -1.26867e-09 3.53359e-10 5e-05 1.46608e-10 
187 1 0.107721 0.0174541 0.0073504 0.00605299 3.15485e-05 0.000563152 1.18571e-10 1.22062e-10 -4.05599e-11 5e-05 1.46608e-10 
188 1 0.107716 0.0181781 0.00703787 0.00611957 -4.69134e-05 0.000603147 -4.53875e-11 -1.01671e-11 6.8865e-12 5e-05 1.46608e-10 
189 1 0.107764 0.0176351 0.0072765 0.00604477 -7.28895e-06 0.000579113 -8.30387e-12 1.1925e-12 -2.264e-12 5e-05 1.46608e-10 
190 1 0.0955987 0.0176422 0.00712597 0.00612178 -0.000494618 0.000142616 -1.47432e-11 -2.00408e-11 5.52364e-12 5e-05 1.46608e-10 
191 1 0.107703 0.018526 0.00692151 0.00587048 0.000613044 0.000261876 -2.08186e-11 -4.23558e-11 -2.16046e-11 5e-05 1.46608e-10 
192 1 0.101637 0.0170412 0.00731487 0.00600984 0.000178813 0.000149843 -1.63776e-10 1.27294e-10 -4.35592e-11 5e-05 1.46608e-10 
193 1 0.107497 0.0168795 0.00757664 0.00575838 6.25909e-05 0.00052178 1.07588e-10 -8.00018e-11 2.18024e-11 5e-05 1.46608e-10 
194 1 0.101483 0.0167788 0.00750657 0.00569428 0.000234016 -3.583e-05 -8.06186e-11 8.76229e-11 -1.03088e-10 5e-05 1.46608e-10 
195 1 0.101926 0.0179062 0.0070574 0.0062999 0.000137651 -0.000203164 5.86314e-13 2.43891e-10 -1.4947e-10 5e-05 1.46608e-10 
196 1 0.100997 0.0155942 0.00848116 0.0058484 0.000154755 -0.000224003 -4.00322e-11 -1.41094e-10 1.1626e-10 5e-05 1.46608e-10 
197 1 0.0955018 0.017611 0.00713202 0.00612023 -0.000468654 0.000273475 -3.92749e-12 -1.0871e-11 3.3559e-12 5e-05 1.46608e-10 
198 1 0.101396 0.0171367 0.00734482 0.00565185 -0.000204059 -0.000111747 4.28493e-12 -1.18754e-10 2.46958e-11 5e-05 1.46608e-10 
199 1 0.101552 0.0174373 0.00717245 0.00632224 7.39083e-05 -0.000243703 -1.402e-10 4.48355e-10 -1.04396e-10 5e-05 1.46608e-10 
200 1 0.101332 0.0168815 0.00742224 0.00565828 -3.6448e-05 -7.232e-05 -3.44161e-11 5.10285e-11 4.28762e-11 5e-05 1.46608e-10 
201 1 0.101819 0.0182285 0.00698371 0.00568636 0.000269386 -5.94589e-05 4.19591e-11 -1.4208e-10 2.46391e-11 5e-05 1.46608e-10 
202 1 0.101657 0.0171202 0.00725688 0.00622927 0.000159546 0.000200058 4.62379e-10 4.69532e-11 1.51852e-11 5e-05 1.46608e-10 
203 1 0.107787 0.0177254 0.00723977 0.00605185 -9.09786e-06 0.00058053 9.1117e-12 -9.563e-12 3.04607e-12 5e-05 1.46608e-10 
204 1 0.101407 0.01683 0.00746339 0.00572429 -0.000704704 -0.00139858 -8.90778e-11 -1.11918e-10 9.1053e-10 5e-05 1.46608e-10 
205 1 0.101638 0.0178176 0.00708328 0.00626332 0.000146787 -2.47935e-05 8.92562e-12 3.90835e-11 -9.82657e-12 5e-05 1.46608e-10 
206 1 0.10167 0.0175625 0.00714143 0.00627469 -6.9666e-05 -0.0009664 3.2913e-11 -1.24955e-10 -4.72567e-10 5e-05 1.46608e-10 
207 1 0.10131 0.016451 0.00777491 0.00559471 0.000137605 -0.000204472 -1.83076e-10 1.0008e-10 -6.21597e-11 5e-05 1.46608e-10 
208 1 0.101627 0.0173719 0.00718399 0.00636379 0.000117189 -0.00018143 3.18833e-11 2.58312e-10 7.11135e-11 5e-05 1.46608e-10 
209 1 0.101388 0.0167541 0.00752588 0.0056724 0.000135267 -0.00021392 -4.10665e-11 1.1544e-10 -3.33807e-11 5e-05 1.46608e-10 
210 1 0.107525 0.0175644 0.00737388 0.00601644 9.53736e-06 0.000561041 -1.79903e-11 4.57736e-11 -5.22428e-11 5e-05 1.46608e-10 
211 1 0.107755 0.0181061 0.007095 0.00611955 -4.94717e-05 0.000605584 -3.0705e-11 -1.23673e-11 2.17444e-11 5e-05 1.46608e-10 
212 1 0.101765 0.0175916 0.00713149 0.00632283 0.00011673 -0.000202974 2.04696e-10 -1.07806e-11 -3.59564e-11 5e-05 1.46608e-10 
213 1 0.107699 0.0173626 0.0073877 0.00598996 -1.08615e-05 0.000575505 -1.66509e-10 5.64824e-11 -4.02837e-11 5e-05 1.46608e-10 
214 1 0.107689 0.0180287 0.00709977 0.00609304 -2.18269e-05 0.000589537 9.96242e-12 2.0639e-11 1.38232e-12 5e-05 1.46608e-10 
215 1 0.0955553 0.0174517 0.00716862 0.00611986 -0.00047872 0.000275338 -6.88382e-12 -3.20402e-12 7.42868e-13 5e-05 1.46608e-10 
216 1 0.101519 0.017691 0.00711389 0.00626111 0.000143554 -2.57325e-05 4.3388e-10 1.02772e-09 -2.95918e-10 5e-05 1.46608e-10 
217 1 0.107455 0.0166984 0.00765073 0.0054206 0.000112897 0.000468795 -1.34814e-10 -3.9538e-11 3.0326e-11 5e-05 1.46608e-10 
218 1 0.10162 0.0178905 0.00714921 0.00625608 0.000156776 -3.47842e-05 -1.27183e-11 -2.84078e-11 -4.36765e-12 5e-05 1.46608e-10 
219 1 0.107643 0.0182459 0.00702956 0.00612403 -4.13929e-05 0.000599401 1.04407e-11 5.75887e-11 -4.79754e-12 5e-05 1.46608e-10 
220 1 0.101476 0.0175012 0.00715955 0.00628924 0.000211881 -0.000173913 -3.67416e-10 -6.41444e-11 -1.67624e-10 5e-05 1.46608e-10 
221 1 0.0954778 0.0170896 0.00727802 0.00594816 -0.000527024 0.00011944 -2.80065e-11 -1.10358e-11 8.53853e-12 5e-05 1.46608e-10 
222 1 0.107476 0.016789 0.00761366 0.00559703 8.69577e-05 0.000495173 1.23278e-10 -8.22753e-11 5.65039e-11 5e-05 1.46608e-10 
223 1 0.101561 0.0170933 0.0072724 0.00623937 0.000241622 0.00010821 2.22361e-10 -3.17068e-10 9.2044e-12 5e-05 1.46608e-10 
224 1 0.101371 0.0170384 0.00730435 0.00586001 0.00090442 -0.000396531 4.32526e-11 1.6622e-10 -1.20856e-10 5e-05 1.46608e-10 
225 1 0.107719 0.0186111 0.00687174 0.00585937 0.000268214 -0.000330331 -9.4709e-12 -5.16977e-11 1.63106e-12 5e-05 1.46608e-10 
226 1 0.101883 0.0177157 0.00710077 0.0062791 9.71963e-05 -0.000196693 -9.1213e-11 6.93821e-11 -7.43508e-11 5e-05 1.46608e-10 
227 1 0.0956366 0.0177614 0.00709618 0.00611992 -0.000488658 0.000141373 -2.3182e-12 8.15938e-12 -4.50253e-12 5e-05 1.46608e-10 
228 1 0.0954589 0.01742 0.00717293 0.00613032 -0.00047245 0.000274244 -1.76746e-11 5.23138e-12 -5.13342e-12 5e-05 1.46608e-10 
229 1 0.101555 0.017605 0.00721795 0.00635509 -2.65258e-05 -6.09245e-05 -8.16362e-11 -8.67017e-11 -3.1912e-11 5e-05 1.46608e-10 
230 1 0.101763 0.018388 0.00694494 0.00578135 0.000239921 -5.13418e-05 1.65332e-10 -6.2934e-11 4.32969e-12 5e-05 1.46608e-10 
231 1 0.095415 0.0172294 0.00721371 0.00614469 -0.000476335 0.000275432 2.77158e-13 7.07694e-14 -3.07124e-12 5e-05 1.46608e-10 
232 1 0.101444 0.0166259 0.00762954 0.00560462 0.000154126 -0.000138606 2.85164e-10 -7.77786e-13 4.97538e-10 5e-05 1.46608e-10 
233 1 0.101522 0.0169353 0.00738841 0.005886 0.000286901 6.46856e-05 3.83611e-10 -3.70696e-10 8.7735e-12 5e-05 1.46608e-10 
234 1 0.107756 0.0183641 0.00696151 0.00585307 0.000619259 0.000291474 -5.82782e-11 3.38743e-11 -3.08169e-11 5e-05 1.46608e-10 
235 1 0.101726 0.0186422 0.00688317 0.00587131 0.000221307 -4.78583e-05 -1.92002e-12 -1.92411e-11 1.02914e-11 5e-05 1.46608e-10 
236 1 0.101877 0.0185151 0.00691418 0.00584029 0.000186741 -3.95966e-05 -8.2612e-11 -2.51536e-11 4.39879e-12 5e-05 1.46608e-10 
237 1 0.101805 0.0185831 0.00689761 0.00586962 0.000216867 -4.69692e-05 -8.737e-12 1.62581e-11 -3.90943e-12 5e-05 1.46608e-10 
239 1 0.0952365 0.0165011 0.00770787 0.00550193 -0.000439694 7.65359e-05 -7.50397e-11 1.35582e-11 -3.40275e-12 5e-05 1.46608e-10 
240 1 0.0952954 0.0167395 0.00753545 0.00552573 -0.000442487 7.75294e-05 -3.02818e-11 1.1113e-11 -8.94524e-12 5e-05 1.46608e-10 
241 1 0.0952169 0.0164217 0.00776535 0.00549611 -0.000441352 7.80518e-05 5.26673e-11 1.48336e-12 -4.2193e-12 5e-05 1.46608e-10 
242 1 0.101502 0.0168564 0.00744664 0.00574232 0.000265095 1.8515e-07 7.02097e-13 -1.44974e-10 -1.56432e-10 5e-05 1.46608e-10 
243 1 0.101449 0.0172777 0.00729593 0.00614612 0.000155232 -0.000365269 5.47662e-10 -2.31911e-10 5.39904e-10 5e-05 1.46608e-10 
244 1 0.0952561 0.0165806 0.0076504 0.00551317 -0.000440176 7.63537e-05 -3.34768e-11 5.89612e-11 -3.77007e-11 5e-05 1.46608e-10 
246 1 0.0953747 0.0170571 0.00730565 0.00558483 -0.00045205 7.76828e-05 2.01018e-11 1.58603e-11 -1.40901e-11 5e-05 1.46608e-10 
247 1 0.10166 0.0179125 0.00706027 0.00626267 0.000149034 -2.88886e-05 5.96599e-11 -4.94431e-12 3.21347e-12 5e-05 1.46608e-10 
248 1 0.101778 0.0180378 0.00702997 0.00625591 0.000142512 -2.63915e-05 -1.86213e-10 1.47816e-10 3.37897e-11 5e-05 1.46608e-10 