ITEM: TIMESTEP
62600000
ITEM: NUMBER OF ATOMS
269
ITEM: BOX BOUNDS ff ff ff
-0.02 0.43
-0.02 0.06
-0.02 0.07
ITEM: ATOMS id type x y z vx vy vz fx fy fz radius mass 
1 1 0.378098 0.0178507 0.007144 0.0059982 1.40142e-06 0.000608585 8.51355e-11 1.20092e-11 7.04942e-11 5e-05 1.46608e-10 
2 1 0.377838 0.0166785 0.0076393 0.00555996 5.26578e-05 0.000546881 4.6313e-11 1.10899e-10 -5.63741e-11 5e-05 1.46608e-10 
4 1 0.378046 0.0168282 0.00757878 0.00550276 6.83695e-05 0.000536077 3.1647e-11 -6.48043e-12 1.45514e-11 5e-05 1.46608e-10 
5 1 0.377616 0.0159085 0.00835898 0.00598807 -0.00040668 -0.000163129 2.91936e-11 6.71936e-11 -7.64435e-11 5e-05 1.46608e-10 
6 1 0.384886 0.0178326 0.000121917 0.0171501 0.00719686 0.0395304 0 0 -1.43822e-09 5e-05 1.46608e-10 
7 1 0.378186 0.0174634 0.00731972 0.00590205 -5.70053e-05 0.000632364 6.68464e-11 1.22077e-10 -4.2426e-11 5e-05 1.46608e-10 
8 1 0.377853 0.0163539 0.00779236 0.0054944 -0.000350407 -0.000166851 -8.10405e-12 -1.71088e-10 1.95618e-10 5e-05 1.46608e-10 
9 1 0.38368 0.0197067 5.13521e-05 -3.38135e-09 -3.33079e-09 -4.41361e-12 2.37784e-13 3.77366e-13 3.1151e-16 5e-05 1.46608e-10 
10 1 0.377987 0.016556 0.00768985 0.00556308 5.58059e-05 0.000547171 9.59606e-11 -9.38954e-11 5.97411e-11 5e-05 1.46608e-10 
11 1 0.37829 0.0179165 0.00713531 0.00600319 3.95131e-05 0.000604475 3.02018e-10 -2.38024e-10 1.64398e-10 5e-05 1.46608e-10 
12 1 0.372296 0.0174325 0.00716852 0.00549741 -6.81392e-05 -0.000206384 3.13554e-10 2.17481e-10 -1.56413e-10 5e-05 1.46608e-10 
13 1 0.377594 0.0158476 0.00843526 0.0059836 -0.000411414 -0.000157487 5.98389e-11 1.25399e-10 -1.63113e-10 5e-05 1.46608e-10 
14 1 0.372455 0.0182337 0.00693568 0.00631396 0.000159648 -0.000198556 2.24313e-10 -1.20667e-10 -6.72616e-12 5e-05 1.46608e-10 
16 1 0.372311 0.0183715 0.00692546 0.00632829 0.000123215 -0.00019658 8.45198e-11 1.77499e-10 -1.26088e-11 5e-05 1.46608e-10 
17 1 0.377759 0.0163364 0.00782399 0.00552751 -0.000314837 -0.000225967 2.46214e-11 -6.9324e-11 1.34056e-10 5e-05 1.46608e-10 
19 1 0.37814 0.0180321 0.00707017 0.0060752 3.01988e-05 0.000601251 4.26408e-11 -2.73861e-10 1.62513e-10 5e-05 1.46608e-10 
21 1 0.378228 0.0176445 0.00724608 0.00592148 -2.77205e-06 0.000610293 2.41794e-10 -2.33528e-11 3.55395e-11 5e-05 1.46608e-10 
22 1 0.378007 0.0166466 0.00765296 0.00556323 5.91445e-05 0.000545992 8.73395e-11 -1.11307e-10 5.27957e-11 5e-05 1.46608e-10 
23 1 0.372405 0.0180415 0.0069607 0.00628866 0.00010795 0.000181962 8.34826e-12 -1.68708e-10 -8.47021e-12 5e-05 1.46608e-10 
24 1 0.383784 0.0184701 0.000501968 0.0292107 0.0301109 -0.00295706 0 0 -1.43822e-09 5e-05 1.46608e-10 
26 1 0.383596 0.0182377 0.000222759 0.0076834 0.00427161 -0.0190186 0 0 -1.43822e-09 5e-05 1.46608e-10 
27 1 0.371884 0.0165248 0.00779855 0.005756 5.4873e-05 -0.000338828 1.30442e-10 -1.87648e-10 1.20544e-10 5e-05 1.46608e-10 
28 1 0.378226 0.0178175 0.00726208 0.00595034 -1.5482e-05 0.000606834 2.16693e-11 1.48412e-10 1.03793e-10 5e-05 1.46608e-10 
29 1 0.377572 0.0157867 0.00851155 0.00597575 -0.000415208 -0.000151562 2.9299e-11 1.77198e-10 -2.21327e-10 5e-05 1.46608e-10 
30 1 0.377723 0.0162153 0.00797897 0.00558384 -0.000300297 -0.000209123 -1.22843e-10 -1.08632e-10 1.21894e-10 5e-05 1.46608e-10 
31 1 0.378343 0.0177677 0.00720491 0.00592609 -6.29496e-06 0.000613439 2.24403e-10 -1.86055e-10 1.28257e-10 5e-05 1.46608e-10 
32 1 0.247451 0.0181454 0.00545794 3.75241e-15 -5.32164e-14 -2.74083e-13 5.21066e-22 2.11551e-22 -2.85377e-23 5e-05 1.46608e-10 
33 1 0.384008 0.0174688 0.000256971 -0.00444417 -0.00207571 -0.00433926 0 0 -1.43822e-09 5e-05 1.46608e-10 
35 1 0.378145 0.017282 0.0073936 0.00572937 2.98936e-05 0.0005757 2.83214e-11 4.59919e-12 -2.49278e-13 5e-05 1.46608e-10 
36 1 0.38358 0.0185238 0.0052242 6.88099e-16 -4.57689e-15 -5.98175e-14 -1.61559e-26 0 0 5e-05 1.46608e-10 
37 1 0.378027 0.0167374 0.00761588 0.00554873 6.62296e-05 0.000541979 1.34398e-10 -8.43475e-11 3.76687e-11 5e-05 1.46608e-10 
38 1 0.378105 0.0171005 0.00746762 0.00550323 6.68426e-05 0.000537461 -3.69052e-11 4.30988e-11 3.25959e-12 5e-05 1.46608e-10 
39 1 0.383735 0.0198091 7.80254e-05 -0.00309422 -0.00235269 -0.00749065 0 0 -1.43822e-09 5e-05 1.46608e-10 
41 1 0.37766 0.0160302 0.00820649 0.00600061 -0.000403384 -0.000173669 4.10981e-12 -1.14704e-11 9.0704e-13 5e-05 1.46608e-10 
42 1 0.378085 0.0170098 0.00750462 0.00546791 6.94531e-05 0.000531453 -1.45905e-10 7.87725e-11 -5.38511e-11 5e-05 1.46608e-10 
44 1 0.378281 0.0174958 0.00731556 0.00581156 -4.70682e-05 0.000617367 -4.3143e-10 2.57634e-10 -1.49956e-10 5e-05 1.46608e-10 
45 1 0.384023 0.0173476 0.000745711 -0.00183681 0.00348556 -0.0611457 0 0 -1.43822e-09 5e-05 1.46608e-10 
47 1 0.377681 0.0160912 0.00813013 0.00600865 -0.000399667 -0.000173401 -2.55078e-12 -3.47713e-11 2.99662e-11 5e-05 1.46608e-10 
48 1 0.378036 0.0175791 0.00725455 0.00592013 7.06868e-05 0.000579572 8.94171e-11 3.04976e-10 -1.20073e-10 5e-05 1.46608e-10 
49 1 0.383797 0.019272 5.15048e-05 -3.50198e-19 -4.06443e-22 2.67381e-16 0 -7.83012e-27 0 5e-05 1.46608e-10 
50 1 0.369097 0.017054 0.00816184 -6.23427e-05 -0.0192972 0.0115933 -2.61323e-12 6.84308e-11 -1.66236e-11 5e-05 1.46608e-10 
51 1 0.378364 0.0178583 0.00716802 0.00591811 -4.17017e-06 0.00061072 1.99543e-10 -2.68356e-10 2.06257e-10 5e-05 1.46608e-10 
52 1 0.372357 0.0176951 0.00704512 0.0056683 0.000105754 0.000162417 -2.00549e-10 9.42317e-11 -3.74434e-11 5e-05 1.46608e-10 
53 1 0.384666 0.0175037 0.000518416 -0.0174376 0.0035555 -0.129196 0 0 -1.43822e-09 5e-05 1.46608e-10 
54 1 0.3783 0.01834 0.00696139 0.00618538 -0.000199967 7.09399e-05 -1.66157e-10 -1.7035e-10 -3.98578e-10 5e-05 1.46608e-10 
55 1 0.372 0.017011 0.00746539 0.00555116 0.000100021 -0.000328125 1.80452e-10 1.309e-10 -2.97851e-11 5e-05 1.46608e-10 
56 1 0.378181 0.0182134 0.00699642 0.00616762 4.02213e-05 0.000590773 -6.75004e-10 -1.51836e-09 -1.23054e-11 5e-05 1.46608e-10 
57 1 0.383642 0.0193002 0.000214946 0.00187721 0.0434266 -0.00129731 0 0 -1.43822e-09 5e-05 1.46608e-10 
59 1 0.378022 0.019866 0.005332 -5.01927e-15 -7.4122e-15 7.69802e-14 -1.9904e-24 -5.06648e-24 -6.20385e-25 5e-05 1.46608e-10 
60 1 0.378303 0.0175864 0.00727877 0.0058825 -4.08703e-05 0.00062277 3.26056e-10 -2.99149e-11 3.44444e-11 5e-05 1.46608e-10 
61 1 0.377637 0.0159694 0.00828269 0.00598254 -0.000400991 -0.00016987 3.90914e-11 4.68685e-12 6.05624e-12 5e-05 1.46608e-10 
62 1 0.378125 0.0171913 0.00743063 0.00562548 5.09725e-05 0.000556132 1.83159e-10 -4.36602e-11 -1.14426e-11 5e-05 1.46608e-10 
63 1 0.378374 0.0182787 0.00698812 0.00609193 -6.47921e-05 0.000659324 -1.6648e-10 -1.0118e-10 1.75945e-10 5e-05 1.46608e-10 
64 1 0.383269 0.0178073 0.0053438 -1.46686e-15 -3.32035e-15 -2.09205e-14 -6.74669e-24 5.71272e-24 -4.1359e-25 5e-05 1.46608e-10 
65 1 0.372038 0.0174907 0.00725152 0.00568064 0.000152842 -0.000374295 -2.34724e-11 -1.7258e-10 3.33124e-11 5e-05 1.46608e-10 
66 1 0.372178 0.017773 0.00702122 0.00566913 0.000297013 0.000106713 -1.1387e-10 -1.08583e-10 6.57892e-11 5e-05 1.46608e-10 
67 1 0.378248 0.0177352 0.0072091 0.00595962 2.515e-06 0.000611187 4.68358e-10 -1.37833e-10 1.12676e-10 5e-05 1.46608e-10 
68 1 0.377991 0.0169769 0.00750909 0.00545279 6.72438e-05 0.000531045 1.60388e-10 -2.53159e-11 3.96003e-11 5e-05 1.46608e-10 
69 1 0.378405 0.0180396 0.00709426 0.00600516 -3.98891e-05 0.000634743 4.951e-10 -5.75717e-10 3.10417e-10 5e-05 1.46608e-10 
70 1 0.384524 0.0161893 5.24575e-05 2.24035e-18 -1.6985e-22 -1.71051e-15 0 3.20066e-27 0 5e-05 1.46608e-10 
71 1 0.372289 0.018274 0.00693628 0.00629536 9.00048e-05 -0.000192204 1.31249e-10 -5.79613e-11 5.83016e-12 5e-05 1.46608e-10 
72 1 0.37831 0.0180071 0.00709843 0.00603492 3.58474e-05 0.000604219 7.742e-11 -3.13128e-10 1.06666e-10 5e-05 1.46608e-10 
73 1 0.378066 0.016919 0.00754168 0.00548326 6.76124e-05 0.000534771 -4.77617e-11 4.3119e-11 -2.8242e-11 5e-05 1.46608e-10 
74 1 0.377702 0.0161522 0.00805379 0.00586036 -0.000365298 -0.000189465 5.00027e-11 -9.31566e-11 1.03286e-10 5e-05 1.46608e-10 
76 1 0.371942 0.0167681 0.00763165 0.00547365 5.72285e-05 -0.000326006 -1.45782e-10 3.01075e-11 -4.53822e-11 5e-05 1.46608e-10 
77 1 0.377857 0.0167621 0.00758783 0.00542983 8.63654e-05 0.000519766 1.59988e-11 -4.06568e-11 2.41562e-11 5e-05 1.46608e-10 
78 1 0.371499 0.0154013 0.00862283 0.00637643 0.000322666 -0.00024732 4.98564e-10 -9.55774e-10 6.63127e-10 5e-05 1.46608e-10 
79 1 0.372333 0.0184691 0.00691462 0.00632104 0.000152109 -0.000199809 -1.26798e-10 -9.78303e-11 1.57048e-11 5e-05 1.46608e-10 
80 1 0.377952 0.0167953 0.00758324 0.00553925 7.81356e-05 0.000536215 1.45086e-11 1.32458e-10 -6.44792e-11 5e-05 1.46608e-10 
82 1 0.372219 0.0179358 0.0069845 0.00583184 0.000328451 -7.88982e-05 3.44906e-11 -2.01331e-10 -1.23426e-10 5e-05 1.46608e-10 
83 1 0.372316 0.0175133 0.00711332 0.00555768 -9.05772e-05 -0.000227819 1.38862e-10 -5.99361e-11 -5.44482e-10 5e-05 1.46608e-10 
84 1 0.383829 0.0185536 5.15469e-05 2.81056e-18 -1.0868e-21 -2.14593e-15 0 2.86566e-25 0 5e-05 1.46608e-10 
85 1 0.372153 0.0180859 0.00704803 0.00617919 0.000170019 -0.00016426 -6.09912e-11 3.55919e-10 -1.66102e-10 5e-05 1.46608e-10 
86 1 0.37826 0.0174052 0.0073524 0.00592051 -8.13438e-05 0.000643627 1.95646e-10 2.62119e-10 -8.60951e-11 5e-05 1.46608e-10 
87 1 0.377912 0.0166138 0.00765727 0.00556302 5.3401e-05 0.000548427 1.83227e-11 -3.33316e-11 5.94981e-11 5e-05 1.46608e-10 
88 1 0.37805 0.0172492 0.00739791 0.00518094 0.000174832 0.000457555 -4.88405e-10 1.38179e-10 -1.88687e-10 5e-05 1.46608e-10 
89 1 0.378427 0.0181299 0.00705762 0.00612234 -5.41533e-05 0.000664012 9.10218e-10 -5.00534e-10 5.88916e-10 5e-05 1.46608e-10 
90 1 0.378269 0.0178258 0.00717222 0.00595955 1.12359e-05 0.000608637 4.37092e-11 -1.5371e-10 7.19832e-11 5e-05 1.46608e-10 
91 1 0.372137 0.0171573 0.00736077 0.00559102 0.000167497 -0.000375531 -6.7921e-10 -1.22667e-10 1.20472e-11 5e-05 1.46608e-10 
92 1 0.377955 0.0172162 0.00740244 0.00549023 0.000115829 0.000518062 -4.44018e-11 3.33223e-10 -1.42968e-10 5e-05 1.46608e-10 
93 1 0.378106 0.0176949 0.00730109 0.00590557 7.84728e-05 0.000595668 1.29695e-10 -4.61271e-10 5.39936e-11 5e-05 1.46608e-10 
94 1 0.378215 0.0179746 0.00710264 0.00605538 4.60956e-05 0.000605833 7.80424e-11 -2.96318e-10 1.12095e-10 5e-05 1.46608e-10 
95 1 0.378146 0.0178801 0.00722694 0.00596754 9.99919e-05 0.00058416 -2.77254e-10 -8.26448e-11 7.06361e-11 5e-05 1.46608e-10 
96 1 0.377936 0.0171254 0.0074395 0.00546095 8.19607e-05 0.000525256 -5.19984e-11 1.83777e-10 -9.81394e-11 5e-05 1.46608e-10 
97 1 0.371583 0.0156943 0.00837362 0.00629285 -3.60832e-05 -0.000310351 6.32026e-11 -1.74555e-10 1.13616e-10 5e-05 1.46608e-10 
98 1 0.377818 0.0162305 0.00794607 0.00555524 -0.000295392 -0.000251625 3.48472e-12 -8.75085e-11 1.11551e-10 5e-05 1.46608e-10 
99 1 0.372002 0.0173927 0.00721178 0.00564132 0.000111874 -0.000394472 2.74148e-10 -3.22146e-10 -3.00637e-11 5e-05 1.46608e-10 
100 1 0.378207 0.017554 0.00728284 0.00591642 1.37755e-05 0.000602922 1.49145e-10 -2.61762e-11 8.32085e-12 5e-05 1.46608e-10 
101 1 0.372021 0.0174726 0.00715473 0.00569327 0.000130713 -0.000349389 8.33825e-11 -4.39202e-11 2.26729e-10 5e-05 1.46608e-10 
102 1 0.0643568 0.0187248 0.00531097 4.01673e-15 1.05721e-14 8.29636e-14 -2.19389e-21 8.57864e-22 9.51258e-24 5e-05 1.46608e-10 
103 1 0.230779 0.0182774 0.00551293 -5.43711e-15 6.54594e-15 4.46855e-14 9.45131e-22 6.35611e-22 2.46086e-23 5e-05 1.46608e-10 
104 1 0.372276 0.0186274 0.00689974 0.00631394 0.000143835 -0.000198462 7.05653e-11 -1.13735e-10 6.34897e-12 5e-05 1.46608e-10 
105 1 0.371604 0.0157749 0.00831825 0.00625248 -2.05381e-05 -0.000321098 -7.99102e-11 -2.43019e-10 -2.89635e-11 5e-05 1.46608e-10 
106 1 0.372038 0.0171731 0.00735479 0.00559905 0.000116497 -0.000347228 -3.49169e-10 3.20367e-10 -1.77525e-10 5e-05 1.46608e-10 
107 1 0.37152 0.0154526 0.00853973 0.0062963 -7.69116e-06 -0.000252907 8.41478e-10 1.55869e-09 1.79403e-09 5e-05 1.46608e-10 
108 1 0.378353 0.0181882 0.00702491 0.00612037 -5.94366e-05 0.000680864 9.51147e-10 -3.0863e-10 -2.76215e-10 5e-05 1.46608e-10 
109 1 0.378202 0.0183069 0.00696795 0.00616604 -0.00025307 0.000113963 3.93658e-10 1.08099e-09 7.69204e-10 5e-05 1.46608e-10 
110 1 0.378064 0.0175134 0.00737511 0.00585017 6.46468e-05 0.000589388 -1.76327e-10 -2.87208e-10 -5.68303e-12 5e-05 1.46608e-10 
111 1 0.377818 0.0165905 0.00768229 0.00557267 5.82885e-05 0.000573 -8.31042e-11 1.09951e-10 3.8323e-11 5e-05 1.46608e-10 
112 1 0.372041 0.0175751 0.00719715 0.00559351 -0.000121258 -3.86676e-05 -1.36521e-10 -1.24284e-10 2.29568e-10 5e-05 1.46608e-10 
113 1 0.371905 0.0169863 0.00748666 0.00555275 0.000100112 -0.000340985 4.25873e-11 1.82594e-10 -5.67049e-11 5e-05 1.46608e-10 
114 1 0.371963 0.0172294 0.00732062 0.0056235 0.000117216 -0.000343772 9.28232e-12 1.42957e-10 -1.01579e-10 5e-05 1.46608e-10 
115 1 0.37824 0.0173146 0.00738929 0.00584486 -8.52771e-05 0.000637038 -5.0232e-11 2.42926e-10 -1.17265e-10 5e-05 1.46608e-10 
116 1 0.378132 0.017612 0.00725022 0.00592274 2.71927e-05 0.000596481 1.16495e-10 -1.35354e-11 5.78254e-12 5e-05 1.46608e-10 
117 1 0.378165 0.0173728 0.0073566 0.00585351 6.96141e-05 0.000571437 9.66415e-11 6.49379e-11 -2.07188e-11 5e-05 1.46608e-10 
118 1 0.372156 0.0172383 0.00730545 0.00557557 0.00015461 -0.000387206 -4.48013e-10 1.39328e-11 1.2371e-10 5e-05 1.46608e-10 
119 1 0.378331 0.0180978 0.00706154 0.00605703 -1.71154e-05 0.00063368 7.84654e-10 -2.39728e-10 2.20433e-10 5e-05 1.46608e-10 
120 1 0.377967 0.0164653 0.00772682 0.00555105 5.58707e-05 0.0005474 6.0214e-11 -9.64613e-11 5.08495e-11 5e-05 1.46608e-10 
121 1 0.378236 0.0180654 0.0070657 0.0061066 6.92327e-05 0.000596059 -4.34846e-11 -4.68507e-10 2.22373e-10 5e-05 1.46608e-10 
122 1 0.377916 0.0170346 0.00747655 0.00545332 5.60014e-05 0.000536526 1.03636e-11 -1.37736e-11 9.98772e-12 5e-05 1.46608e-10 
123 1 0.372189 0.0182393 0.00694281 0.0062915 8.54384e-05 -0.000193851 1.85455e-11 -1.14304e-10 -6.90686e-12 5e-05 1.46608e-10 
124 1 0.377836 0.016292 0.0078694 0.00553213 -0.000298967 -0.000245312 6.18405e-11 -1.35391e-10 1.45114e-10 5e-05 1.46608e-10 
125 1 0.37803 0.0171584 0.00743498 0.00549046 6.51841e-05 0.000537205 -3.2645e-10 1.47945e-10 -9.27468e-11 5e-05 1.46608e-10 
127 1 0.371562 0.0156137 0.00842899 0.00630937 -3.68465e-05 -0.000298502 2.74103e-10 -1.74002e-10 1.55459e-10 5e-05 1.46608e-10 
128 1 0.37774 0.0162749 0.00790066 0.00552867 -0.000313132 -0.000227896 -8.03182e-11 -1.01649e-10 1.37691e-10 5e-05 1.46608e-10 
129 1 0.378226 0.0179574 0.00720057 0.00598686 6.74337e-05 0.000612406 2.01704e-10 9.57935e-11 1.31878e-10 5e-05 1.46608e-10 
130 1 0.372077 0.0173353 0.00724418 0.00565739 0.000136078 -0.000344552 2.45112e-10 -7.64314e-11 -9.11297e-11 5e-05 1.46608e-10 
131 1 0.372096 0.0174163 0.00718887 0.00567148 0.000134767 -0.000352989 4.27196e-10 4.06009e-11 2.76091e-11 5e-05 1.46608e-10 
132 1 0.37822 0.0172239 0.00742628 0.00568885 -7.55114e-05 0.000617206 9.40327e-11 1.61574e-10 -5.1479e-11 5e-05 1.46608e-10 
133 1 0.378154 0.0177027 0.00721339 0.00594309 1.09712e-05 0.000607298 9.73798e-11 3.48028e-11 3.65444e-11 5e-05 1.46608e-10 
134 1 0.378111 0.0175213 0.0072871 0.00589481 -1.08809e-05 0.000612027 -1.34916e-10 -1.01185e-11 -4.35879e-11 5e-05 1.46608e-10 
135 1 0.378385 0.0179489 0.00713114 0.00595278 -2.20463e-05 0.00062121 -1.46906e-10 -3.78279e-10 1.36496e-10 5e-05 1.46608e-10 
136 1 0.371981 0.01693 0.00752076 0.00552739 8.16911e-05 -0.000331801 1.10932e-10 1.48628e-10 -1.37673e-10 5e-05 1.46608e-10 
137 1 0.378245 0.0184962 0.00691552 0.00622085 -0.000206359 2.2851e-05 5.98841e-11 1.42011e-10 -7.63903e-11 5e-05 1.46608e-10 
138 1 0.377995 0.0173978 0.00732831 0.00581737 7.38714e-05 0.000563737 1.26882e-10 1.04987e-10 8.84017e-12 5e-05 1.46608e-10 
140 1 0.377877 0.0168529 0.00755074 0.00543134 3.02676e-05 0.000546891 -2.11406e-10 1.3857e-10 -9.36572e-11 5e-05 1.46608e-10 
141 1 0.372002 0.0165901 0.00774834 0.0056551 0.000142196 -0.000393742 -1.01768e-10 2.57604e-10 -1.87751e-10 5e-05 1.46608e-10 
142 1 0.372352 0.0178877 0.00699713 0.00599656 0.000137257 0.000160736 -3.01312e-10 -6.82747e-11 1.93967e-11 5e-05 1.46608e-10 
143 1 0.371541 0.0155331 0.00848436 0.00633401 -3.65017e-05 -0.000285543 2.82354e-10 -1.36677e-10 3.10467e-10 5e-05 1.46608e-10 
144 1 0.372195 0.0174003 0.00719489 0.00559992 0.00013481 -0.000371437 2.66723e-11 2.31797e-10 7.17762e-11 5e-05 1.46608e-10 
146 1 0.371707 0.0161782 0.00804124 0.00571749 3.0493e-05 -0.000320989 3.23858e-11 6.3893e-11 -4.36766e-11 5e-05 1.46608e-10 
147 1 0.372058 0.0172542 0.00729948 0.00563224 0.000123641 -0.000344941 5.52744e-11 1.70867e-10 -9.65475e-11 5e-05 1.46608e-10 
148 1 0.372022 0.0166711 0.00769283 0.00550566 0.000191763 -0.000423253 -4.92786e-10 2.99068e-10 -9.66362e-11 5e-05 1.46608e-10 
149 1 0.377778 0.0164101 0.00775915 0.00553307 -0.000306988 -0.000200979 1.14862e-10 -4.83323e-11 1.68951e-11 5e-05 1.46608e-10 
150 1 0.372132 0.0179893 0.00706283 0.00602083 0.000220726 -0.000126379 3.54576e-11 4.82426e-10 1.93839e-10 5e-05 1.46608e-10 
151 1 0.372059 0.017638 0.00704947 0.00573205 0.000372697 8.65226e-05 -1.5795e-10 -6.68138e-10 2.25664e-11 5e-05 1.46608e-10 
153 1 0.372041 0.016752 0.00763735 0.00548186 0.000211471 -0.000435083 -3.73563e-10 2.19744e-10 1.96151e-10 5e-05 1.46608e-10 
154 1 0.360106 0.0178579 0.00697038 0.00636547 0.000267815 -7.87392e-05 1.86893e-11 1.2863e-10 -8.68023e-11 5e-05 1.46608e-10 
155 1 0.372092 0.0176581 0.00714199 0.00645569 0.00077044 -0.000252172 -3.05114e-11 -2.65214e-10 -9.53854e-11 5e-05 1.46608e-10 
156 1 0.371983 0.0165093 0.0078038 0.00575637 9.17664e-05 -0.000363065 2.59635e-10 1.20938e-10 -9.59568e-11 5e-05 1.46608e-10 
157 1 0.0219312 0.0187687 0.00551176 -3.8254e-14 8.17052e-14 2.95887e-13 4.36906e-22 2.2825e-22 -1.38553e-23 5e-05 1.46608e-10 
158 1 0.372079 0.0169141 0.00752667 0.00553164 0.00021185 -0.000408851 9.73962e-11 -2.98042e-10 1.78082e-10 5e-05 1.46608e-10 
159 1 0.3783 0.0178992 0.00723323 0.00593682 2.75093e-05 0.00062251 1.50113e-10 2.23535e-11 1.98748e-10 5e-05 1.46608e-10 
160 1 0.37204 0.0175537 0.00709949 0.00571069 0.000272264 -0.00012417 -1.16832e-10 -4.49406e-10 1.52869e-10 5e-05 1.46608e-10 
162 1 0.372355 0.01826 0.00701053 0.00632664 0.000207248 -0.00019326 -2.46823e-11 -7.06307e-11 -1.07285e-10 5e-05 1.46608e-10 
164 1 0.372018 0.0173253 0.00735757 0.00565388 0.000150562 -0.00034869 1.28595e-10 6.07402e-11 3.10898e-11 5e-05 1.46608e-10 
165 1 0.372119 0.0179273 0.0069854 0.00584291 0.000216553 -7.5543e-05 -2.47351e-11 1.91079e-12 2.42059e-10 5e-05 1.46608e-10 
166 1 0.378016 0.0174885 0.00729143 0.00586733 9.78209e-05 0.000564531 -1.95144e-10 8.37573e-11 -8.45909e-11 5e-05 1.46608e-10 
167 1 0.372147 0.0177394 0.00712388 0.00587696 0.000217007 -9.85095e-05 -1.95862e-10 -3.64983e-11 9.27378e-11 5e-05 1.46608e-10 
168 1 0.37218 0.0181144 0.00695612 0.00610256 0.000151629 -0.000191732 1.52909e-10 4.46802e-11 -9.87657e-12 5e-05 1.46608e-10 
169 1 0.372098 0.0178295 0.00710285 0.00567155 0.000312748 9.06426e-05 1.74694e-11 2.61181e-10 2.88089e-10 5e-05 1.46608e-10 
170 1 0.372141 0.0180231 0.0069668 0.00626875 8.92655e-05 -0.000189874 4.37084e-11 3.14699e-11 -1.66365e-12 5e-05 1.46608e-10 
171 1 0.378278 0.0182484 0.00699683 0.00609916 -0.000179105 0.00049884 7.57671e-10 1.38125e-10 -8.27564e-10 5e-05 1.46608e-10 
172 1 0.371886 0.0169054 0.00754214 0.00552984 0.000104439 -0.000357057 1.37186e-10 2.09783e-10 -1.23871e-10 5e-05 1.46608e-10 
173 1 0.378161 0.0181227 0.00703329 0.00612663 3.90817e-05 0.000604597 5.33944e-11 -3.85107e-10 2.53524e-10 5e-05 1.46608e-10 
174 1 0.371666 0.0160168 0.00815208 0.00543751 0.000112843 -0.00036131 -8.45801e-11 -6.20658e-11 2.77051e-11 5e-05 1.46608e-10 
176 1 0.372118 0.0170762 0.00741606 0.00561103 0.000174452 -0.000382707 -1.01745e-10 -1.89687e-10 2.21406e-10 5e-05 1.46608e-10 
177 1 0.371966 0.0172616 0.00741526 0.00562898 0.000125558 -0.000343667 -1.17065e-11 -1.94461e-11 -1.01718e-11 5e-05 1.46608e-10 
178 1 0.372176 0.0178713 0.00705267 0.00567584 0.000409652 6.11363e-05 -3.9338e-10 1.25009e-10 3.47833e-10 5e-05 1.46608e-10 
179 1 0.372231 0.0179213 0.0071192 0.00596117 0.000448215 -0.000166607 -5.27186e-11 8.32069e-11 3.51406e-10 5e-05 1.46608e-10 
182 1 0.378119 0.0179413 0.00710712 0.00603624 2.45925e-05 0.000601936 1.63843e-11 -2.74488e-10 1.13829e-10 5e-05 1.46608e-10 
183 1 0.371944 0.0171483 0.00737592 0.00558903 9.66633e-05 -0.000332807 -7.83455e-11 -6.81965e-11 2.54505e-11 5e-05 1.46608e-10 
184 1 0.378194 0.017884 0.00713954 0.00599974 4.13218e-05 0.000600283 -9.30366e-11 -3.07389e-10 1.43951e-10 5e-05 1.46608e-10 
185 1 0.372214 0.0174815 0.00713954 0.00565317 0.000139321 -0.000332585 1.33309e-10 4.19251e-10 -2.29884e-11 5e-05 1.46608e-10 
186 1 0.372176 0.0181856 0.00702616 0.00624942 0.000145821 -0.000179025 -1.55078e-10 -5.73849e-11 3.78658e-11 5e-05 1.46608e-10 
187 1 0.378174 0.0177934 0.00717642 0.00599234 1.67174e-05 0.000607253 3.9174e-10 -1.38193e-10 1.13702e-10 5e-05 1.46608e-10 
188 1 0.37801 0.0170677 0.00747204 0.00545628 6.33734e-05 0.000533322 -2.28623e-10 1.03555e-10 -8.3166e-11 5e-05 1.46608e-10 
189 1 0.378156 0.0180214 0.00716831 0.00608696 0.000129356 0.000590765 4.57374e-10 -1.39343e-10 2.22675e-10 5e-05 1.46608e-10 
190 1 0.366195 0.018266 0.0069793 0.00616486 -0.000238618 4.47178e-05 -3.11185e-12 -8.96301e-12 -3.11279e-13 5e-05 1.46608e-10 
191 1 0.377798 0.016501 0.00772256 0.00553907 -0.000106923 0.00030166 -1.05295e-10 1.95562e-11 -7.37093e-11 5e-05 1.46608e-10 
192 1 0.371925 0.0170673 0.00743123 0.00555778 9.75641e-05 -0.000329995 1.164e-10 6.02067e-11 -5.77865e-11 5e-05 1.46608e-10 
193 1 0.378224 0.018402 0.0069416 0.00618794 -0.000207552 2.23411e-05 -8.09472e-11 6.14513e-12 4.81955e-11 5e-05 1.46608e-10 
194 1 0.372388 0.0183084 0.0069298 0.00633983 0.000169029 -0.00020043 -5.49175e-12 3.12142e-11 -3.98666e-11 5e-05 1.46608e-10 
195 1 0.37224 0.0180311 0.00696327 0.00624738 0.000201686 -0.000168834 3.6553e-11 -1.63615e-10 -9.77411e-11 5e-05 1.46608e-10 
196 1 0.372275 0.0177509 0.00702856 0.00567577 0.000319997 0.000108353 -1.62425e-10 -6.56011e-12 4.00336e-11 5e-05 1.46608e-10 
197 1 0.365877 0.0168883 0.00760562 0.00540625 -8.55015e-05 1.19342e-05 -1.00851e-10 -7.21407e-12 -6.0519e-13 5e-05 1.46608e-10 
198 1 0.372342 0.017599 0.00706849 0.00560915 0.000111327 0.000166288 -1.66621e-10 1.57871e-10 -1.20671e-10 5e-05 1.46608e-10 
199 1 0.372451 0.0181331 0.00694631 0.00630918 0.000164574 -0.000200037 4.11826e-10 5.90386e-11 -1.54205e-11 5e-05 1.46608e-10 
200 1 0.371942 0.0163479 0.00791464 0.00579061 2.99965e-05 -0.000323747 -1.03222e-10 2.5278e-10 -1.63901e-10 5e-05 1.46608e-10 
201 1 0.372319 0.0180919 0.00695443 0.00631021 0.00010532 -0.000167598 9.70826e-11 -1.95671e-10 -3.52019e-10 5e-05 1.46608e-10 
202 1 0.372098 0.0169952 0.00747136 0.00556482 0.000194348 -0.000397703 1.01814e-10 -2.82668e-10 2.47523e-10 5e-05 1.46608e-10 
203 1 0.378091 0.0174307 0.00732399 0.00584135 6.77075e-05 0.000573973 -2.69916e-10 -4.5473e-11 -9.18466e-12 5e-05 1.46608e-10 
204 1 0.37241 0.0184054 0.00691904 0.00633662 0.000164939 -0.000202806 5.41389e-11 1.18561e-10 -7.68784e-12 5e-05 1.46608e-10 
206 1 0.371864 0.0164438 0.00785413 0.00575243 3.46599e-05 -0.000326021 5.54008e-11 2.91621e-10 -1.95209e-10 5e-05 1.46608e-10 
207 1 0.371823 0.0162824 0.007965 0.00573398 1.72327e-07 -0.000300623 -8.93452e-11 -1.1922e-10 8.75735e-11 5e-05 1.46608e-10 
208 1 0.372366 0.0177917 0.00702143 0.00578591 9.8682e-05 0.000163164 -2.91984e-10 5.25775e-11 -2.14444e-11 5e-05 1.46608e-10 
209 1 0.372019 0.0170921 0.00741009 0.00557762 0.000104179 -0.000338948 1.23669e-11 1.7962e-10 -1.10247e-10 5e-05 1.46608e-10 
210 1 0.377872 0.0164345 0.00773612 0.00557394 -0.000122654 0.000180539 5.01307e-11 -1.14518e-10 1.03425e-10 5e-05 1.46608e-10 
211 1 0.377891 0.0165232 0.0076941 0.00557243 5.37317e-05 0.000549961 2.6172e-11 -4.67334e-11 1.23317e-10 5e-05 1.46608e-10 
212 1 0.372367 0.0181869 0.00694312 0.0063042 0.000146858 -0.000198067 1.23617e-10 -2.42083e-10 -1.49251e-11 5e-05 1.46608e-10 
213 1 0.378078 0.0177619 0.00718522 0.00595492 1.5837e-05 0.000600057 4.80616e-11 7.85922e-11 1.02381e-10 5e-05 1.46608e-10 
214 1 0.377971 0.0168861 0.00754615 0.00549512 7.75634e-05 0.000532268 3.98519e-10 -1.21306e-10 9.2294e-11 5e-05 1.46608e-10 
215 1 0.366094 0.0177926 0.00701888 0.0055904 -0.000116146 2.96332e-05 2.7395e-11 -2.45148e-11 1.22705e-11 5e-05 1.46608e-10 
216 1 0.371646 0.0159361 0.00820749 0.00551053 0.000112828 -0.000365039 -3.81233e-10 -1.02187e-10 1.06944e-10 5e-05 1.46608e-10 
217 1 0.378257 0.0181561 0.00702882 0.00612789 5.51616e-05 0.000606276 2.60537e-10 -3.65228e-10 1.77774e-10 5e-05 1.46608e-10 
218 1 0.371982 0.0173105 0.00726531 0.0056434 0.000102347 -0.000334073 -7.52329e-11 -9.27522e-11 9.34584e-11 5e-05 1.46608e-10 
219 1 0.378085 0.0176041 0.00733821 0.00590952 8.45963e-05 0.000590461 6.83061e-11 -9.06901e-11 1.75389e-11 5e-05 1.46608e-10 
220 1 0.372115 0.0174988 0.00713567 0.0056785 0.000191051 -0.000260793 2.13875e-10 -2.82538e-11 -1.02815e-10 5e-05 1.46608e-10 
222 1 0.378323 0.0176771 0.00724179 0.00592685 -2.13756e-05 0.000619505 3.48585e-10 -1.55689e-10 9.0528e-11 5e-05 1.46608e-10 
224 1 0.371904 0.0166061 0.00774277 0.00551444 0.0002483 -0.000456393 -1.11875e-10 1.42109e-10 -8.83531e-11 5e-05 1.46608e-10 
225 1 0.377933 0.0167044 0.00762038 0.00555939 5.48418e-05 0.000546019 1.50036e-10 -1.94597e-11 2.143e-15 5e-05 1.46608e-10 
226 1 0.372326 0.0179812 0.00697305 0.00620605 0.000198073 0.000153575 -9.64327e-11 -1.16055e-10 -1.62651e-11 5e-05 1.46608e-10 
227 1 0.36611 0.0178758 0.00696545 0.00563634 -0.000116009 4.40023e-05 3.28252e-11 -1.93875e-11 1.51847e-12 5e-05 1.46608e-10 
228 1 0.366051 0.0176288 0.00712521 0.00557945 -0.000115423 2.91891e-05 5.21729e-11 1.29895e-11 5.97872e-12 5e-05 1.46608e-10 
229 1 0.372267 0.018177 0.00694705 0.00631026 9.81393e-05 -0.000189806 6.6228e-12 -2.65778e-10 -1.19078e-10 5e-05 1.46608e-10 
230 1 0.371789 0.0165009 0.00781961 0.00576349 3.67472e-05 -0.000326954 -1.77474e-11 -5.03636e-11 2.8107e-11 5e-05 1.46608e-10 
232 1 0.372254 0.0185303 0.00691051 0.00630132 0.00011914 -0.000195367 -1.62834e-11 1.67068e-11 -9.64039e-13 5e-05 1.46608e-10 
233 1 0.372083 0.0177429 0.00704758 0.0056305 0.000354213 0.000157124 9.02846e-11 -2.80793e-10 1.38555e-10 5e-05 1.46608e-10 
234 1 0.377896 0.0169438 0.00751361 0.00545255 4.34512e-05 0.00054138 9.91523e-11 -1.49359e-10 8.10749e-11 5e-05 1.46608e-10 
235 1 0.371748 0.0163396 0.00793042 0.00574123 2.28284e-05 -0.000316821 -9.41009e-11 -2.47463e-11 2.7303e-11 5e-05 1.46608e-10 
236 1 0.371848 0.0167435 0.00765316 0.00545044 0.000123325 -0.000369204 -1.21158e-10 6.05458e-11 -4.28691e-11 5e-05 1.46608e-10 
237 1 0.371867 0.0168245 0.00759765 0.00551472 0.000109167 -0.00036395 -9.58715e-11 1.70907e-10 -1.14119e-10 5e-05 1.46608e-10 
239 1 0.365779 0.016477 0.00787247 0.00565862 -0.000130543 3.86282e-05 -3.32694e-11 -1.02643e-11 7.24445e-12 5e-05 1.46608e-10 
240 1 0.365838 0.0167237 0.00771241 0.00536846 -8.22571e-05 1.00026e-05 2.41952e-11 3.64719e-11 -1.79183e-11 5e-05 1.46608e-10 
241 1 0.365758 0.0163949 0.00792574 0.00565281 -0.000130414 3.86573e-05 -3.23064e-12 2.73673e-11 -1.70891e-11 5e-05 1.46608e-10 
242 1 0.371962 0.0164286 0.00785923 0.00575388 5.70351e-05 -0.000339801 6.57457e-11 2.53584e-10 -1.77137e-10 5e-05 1.46608e-10 
243 1 0.372261 0.017655 0.00705287 0.00572903 0.000265923 -2.90197e-05 -8.33713e-12 1.22588e-10 -5.08546e-11 5e-05 1.46608e-10 
244 1 0.365799 0.0165591 0.00781918 0.00545467 -9.70242e-05 1.85178e-05 8.4566e-11 -3.00427e-11 2.05749e-11 5e-05 1.46608e-10 
246 1 0.365977 0.0172992 0.007339 0.00550107 -0.000103448 2.24104e-05 -2.28657e-11 1.68645e-11 -1.68063e-12 5e-05 1.46608e-10 
248 1 0.372228 0.017795 0.00710491 0.00572287 0.00046098 3.07059e-05 -3.12377e-10 -7.80442e-11 6.89668e-12 5e-05 1.46608e-10 
249 1 0.365918 0.0170525 0.00749909 0.00544971 -9.52596e-05 1.79436e-05 -5.91048e-11 4.84847e-11 -2.53289e-11 5e-05 1.46608e-10 
250 1 0.383321 0.0170332 0.00815336 4.36853e-09 -0.0206864 0.0124592 4.97774e-15 1.35637e-11 1.75899e-11 5e-05 1.46608e-10 
251 1 0.37807 0.01734 0.00736098 0.00578901 8.4085e-05 0.000558398 -1.62973e-10 -1.59142e-10 1.0026e-10 5e-05 1.46608e-10 
252 1 0.365993 0.017382 0.00728534 0.00552276 -0.000105106 2.35134e-05 1.01742e-11 6.86242e-12 2.08221e-12 5e-05 1.46608e-10 
253 1 0.366177 0.0181678 0.00697584 0.00618779 -0.000243256 4.4763e-05 4.35916e-12 7.5211e-13 -3.32144e-12 5e-05 1.46608e-10 
254 1 0.365935 0.0171351 0.00744548 0.00546562 -9.60142e-05 1.85724e-05 -4.25086e-11 2.59078e-11 -1.40132e-11 5e-05 1.46608e-10 
255 1 0.372232 0.0184333 0.00692128 0.0062848 5.85084e-05 -0.000188588 2.18447e-10 5.27002e-10 -7.77783e-11 5e-05 1.46608e-10 
256 1 0.372211 0.0183363 0.00693205 0.00628922 7.60393e-05 -0.000192196 9.82417e-11 2.13746e-10 -2.74496e-11 5e-05 1.46608e-10 
257 1 0.37206 0.016833 0.00758198 0.00551795 0.000217747 -0.000418881 1.01006e-10 -1.49487e-10 1.81676e-10 5e-05 1.46608e-10 
258 1 0.372231 0.0180012 0.00705912 0.00599878 0.000394611 -0.000183307 2.29366e-10 -3.15113e-10 -3.00055e-10 5e-05 1.46608e-10 
259 1 0.366013 0.0174643 0.00723196 0.00554141 -0.000108288 2.51313e-05 3.53776e-12 -1.16081e-11 6.38265e-12 5e-05 1.46608e-10 
260 1 0.372099 0.0178309 0.00700286 0.00568377 0.000296454 0.000108741 -6.0428e-11 -2.50105e-10 1.12502e-10 5e-05 1.46608e-10 
261 1 0.372315 0.0178461 0.0070876 0.00597196 0.000538616 -7.12206e-05 -1.83495e-10 -1.46291e-11 1.04779e-10 5e-05 1.46608e-10 
262 1 0.372199 0.0176539 0.00713133 0.00575288 0.000149579 -4.82017e-06 -2.09886e-10 1.08736e-11 -2.46501e-10 5e-05 1.46608e-10 
263 1 0.365896 0.0169706 0.00755223 0.00542695 -9.02702e-05 1.47813e-05 7.67471e-11 1.72258e-11 -6.01617e-12 5e-05 1.46608e-10 
264 1 0.372044 0.0174068 0.00730567 0.00562101 0.000151601 -0.000367021 -2.6387e-10 3.89552e-11 5.95067e-11 5e-05 1.46608e-10 
265 1 0.366217 0.0183636 0.00698277 0.00614741 -0.00023449 4.46691e-05 6.76485e-13 -1.09359e-11 4.50279e-13 5e-05 1.46608e-10 