ITEM: TIMESTEP
16800000
ITEM: NUMBER OF ATOMS
287
ITEM: BOX BOUNDS ff ff ff
-0.02 0.43
-0.02 0.06
-0.02 0.07
ITEM: ATOMS id type x y z vx vy vz fx fy fz radius mass 
1 1 0.110825 0.0165412 0.007851 0.00592099 9.70417e-05 0.000388593 -1.24579e-11 1.43896e-12 -1.62664e-12 5e-05 1.46608e-10 
2 1 0.111449 0.0183057 0.00689509 0.00574353 -0.000699498 -0.000170288 -1.65701e-10 8.8944e-11 -1.28657e-12 5e-05 1.46608e-10 
3 1 0.104616 0.0160368 0.00810808 0.00608013 -0.000537466 3.84969e-05 1.52228e-10 8.8409e-11 2.55798e-11 5e-05 1.46608e-10 
4 1 0.111144 0.0178945 0.00706441 0.00558189 -0.00021327 -0.000336908 -4.31668e-11 3.21844e-10 7.42762e-11 5e-05 1.46608e-10 
5 1 0.110687 0.0163473 0.00796684 0.00597177 6.96433e-05 0.000410364 5.38196e-12 2.68269e-11 -1.62744e-11 5e-05 1.46608e-10 
6 1 0.116781 0.0167155 0.00774508 0.00592366 -0.000251013 -0.000278137 3.12592e-12 -1.00093e-11 4.90224e-12 5e-05 1.46608e-10 
7 1 0.110878 0.0170908 0.00749672 0.00547595 0.000134331 0.000327318 2.49115e-10 1.68052e-10 -8.86064e-11 5e-05 1.46608e-10 
8 1 0.110583 0.0159446 0.00822138 0.00607363 3.45767e-05 0.000441252 1.11396e-11 5.0739e-11 -3.43544e-11 5e-05 1.46608e-10 
9 1 0.117029 0.0177518 0.00706548 0.00568891 5.38608e-06 -0.00081128 -5.04679e-11 -3.08315e-11 -4.22869e-11 5e-05 1.46608e-10 
10 1 0.110816 0.0168428 0.00765371 0.00583643 8.36562e-05 0.000390898 -1.70968e-11 4.71701e-12 -3.43865e-12 5e-05 1.46608e-10 
11 1 0.111351 0.0180475 0.00699444 0.00562044 -0.000208688 -0.000340353 -4.72435e-11 3.69352e-11 -1.79301e-11 5e-05 1.46608e-10 
12 1 0.104805 0.0167695 0.00762109 0.00568284 -0.000360967 -1.00154e-05 9.58563e-10 -1.59511e-09 9.34051e-10 5e-05 1.46608e-10 
13 1 0.110666 0.0162648 0.00801902 0.00599236 6.34341e-05 0.000416116 1.75187e-11 3.6554e-11 -2.21287e-11 5e-05 1.46608e-10 
14 1 0.10453 0.0157115 0.00832446 0.00611497 -0.000607526 0.000134318 1.29034e-09 -3.6355e-10 -2.79723e-10 5e-05 1.46608e-10 
15 1 0.111029 0.0173696 0.00732656 0.00543008 0.000168855 0.000307195 1.95689e-10 -1.45964e-10 2.26882e-10 5e-05 1.46608e-10 
16 1 0.104509 0.0156302 0.00837856 0.00614694 -0.000768471 -0.00014382 -8.22851e-11 -2.58083e-10 -8.37493e-10 5e-05 1.46608e-10 
17 1 0.110795 0.0167602 0.0077059 0.00585887 8.22522e-05 0.000393635 1.61089e-11 2.92754e-11 -1.63109e-11 5e-05 1.46608e-10 
18 1 0.116915 0.017215 0.0072734 0.00553588 -4.91127e-05 -0.000212342 3.96862e-11 1.40241e-10 -1.1198e-10 5e-05 1.46608e-10 
19 1 0.110645 0.0161822 0.00807121 0.00601607 5.6696e-05 0.000422364 3.76325e-12 3.84801e-11 -2.6087e-11 5e-05 1.46608e-10 
21 1 0.110804 0.0164586 0.00790319 0.00594454 9.53241e-05 0.000391528 1.4129e-11 -4.83756e-12 3.91545e-12 5e-05 1.46608e-10 
22 1 0.110916 0.0172566 0.00739153 0.00540731 0.000147671 0.000323057 -5.16292e-11 2.47055e-11 4.89752e-11 5e-05 1.46608e-10 
23 1 0.104939 0.0169591 0.00749319 0.00546166 -0.000360564 -0.000179065 8.53852e-10 2.61072e-10 4.65947e-10 5e-05 1.46608e-10 
24 1 0.11697 0.0174646 0.00712925 0.0056492 0.000215805 0.000156441 3.65931e-11 7.36319e-11 -2.78333e-11 5e-05 1.46608e-10 
25 1 0.110858 0.017008 0.00754918 0.00545862 0.000134694 0.000328885 4.4747e-11 4.88535e-11 1.55424e-11 5e-05 1.46608e-10 
26 1 0.116862 0.0169995 0.00747516 0.00549199 -0.000164793 -0.000322995 4.84126e-11 -6.59018e-11 1.00313e-10 5e-05 1.46608e-10 
27 1 0.104974 0.0174298 0.00728547 0.00552777 -0.000246467 0.000273516 -1.23463e-11 -2.56457e-10 9.4016e-10 5e-05 1.46608e-10 
28 1 0.111125 0.0178027 0.007099 0.00556761 -0.000205593 -0.000312188 -1.36709e-10 1.47003e-11 -3.85767e-10 5e-05 1.46608e-10 
29 1 0.110626 0.0161229 0.00814946 0.0060447 4.64594e-05 0.000427392 1.03673e-10 3.4921e-11 -2.51616e-11 5e-05 1.46608e-10 
30 1 0.111086 0.0176187 0.0071685 0.00533238 7.50411e-05 0.00033733 8.26897e-10 -5.66821e-10 7.78555e-10 5e-05 1.46608e-10 
31 1 0.110897 0.0171737 0.00744417 0.00538072 0.00016044 0.000311808 -3.53475e-10 -1.4611e-10 4.00806e-11 5e-05 1.46608e-10 
32 1 0.11101 0.0172867 0.00737916 0.0053931 0.00013854 0.000315539 2.27345e-10 -8.11364e-11 1.98453e-10 5e-05 1.46608e-10 
33 1 0.116803 0.0167862 0.00767775 0.00593152 -0.000241889 -0.00028653 -6.42458e-11 -5.31293e-11 5.23188e-11 5e-05 1.46608e-10 
34 1 0.110773 0.0166776 0.00775809 0.00588116 7.87718e-05 0.000397344 2.50612e-11 2.91318e-11 -1.70037e-11 5e-05 1.46608e-10 
35 1 0.110991 0.0172037 0.00743184 0.00539736 0.000169904 0.000304676 -2.93914e-10 1.47228e-10 9.06398e-12 5e-05 1.46608e-10 
36 1 0.117065 0.0179461 0.00709585 0.00559754 3.42438e-05 -0.000785083 3.81871e-12 -7.37404e-11 -2.3971e-11 5e-05 1.46608e-10 
37 1 0.110952 0.017038 0.00753685 0.00545657 0.000153189 0.00031588 4.52316e-11 -4.41348e-11 4.30263e-11 5e-05 1.46608e-10 
38 1 0.111161 0.0175657 0.00720882 0.00556513 0.000100627 0.000366033 4.69663e-11 -8.4744e-11 1.78681e-11 5e-05 1.46608e-10 
39 1 0.11699 0.0175601 0.00710695 0.00564206 0.000209171 0.000158142 2.45026e-10 1.34741e-11 -1.21829e-11 5e-05 1.46608e-10 
41 1 0.11073 0.0165125 0.00786246 0.00592685 7.67667e-05 0.000402227 -8.78838e-12 -1.15387e-11 6.8038e-12 5e-05 1.46608e-10 
42 1 0.110935 0.017345 0.00734874 0.00543119 0.000146069 0.000324323 1.88312e-10 -5.1889e-11 6.1033e-11 5e-05 1.46608e-10 
44 1 0.111181 0.0176517 0.00716172 0.00557871 7.35472e-06 0.000182934 -9.3852e-11 -1.13733e-10 -1.12567e-11 5e-05 1.46608e-10 
45 1 0.116824 0.016857 0.00761036 0.00547811 -0.000147339 -0.000335971 -7.93261e-11 -9.23965e-11 8.64358e-11 5e-05 1.46608e-10 
46 1 0.116897 0.0171423 0.00733981 0.00549898 -0.000157593 -0.000329912 -9.47274e-11 7.72418e-11 -9.4922e-11 5e-05 1.46608e-10 
47 1 0.110752 0.016595 0.00781027 0.00590314 7.74363e-05 0.000400081 -2.96479e-12 1.57567e-12 -9.45966e-13 5e-05 1.46608e-10 
48 1 0.110972 0.0175044 0.0072343 0.0055373 0.000125254 0.000335561 1.84015e-10 2.34963e-10 -2.13415e-10 5e-05 1.46608e-10 
49 1 0.116879 0.0170709 0.00740749 0.00548712 -0.000160186 -0.000324883 -1.41892e-10 5.24032e-12 -8.47331e-12 5e-05 1.46608e-10 
50 1 0.11103 0.0177741 0.00711563 0.00553483 -0.000225718 -0.000328422 5.80468e-11 2.7121e-10 6.13899e-11 5e-05 1.46608e-10 
51 1 0.11101 0.0176815 0.0071501 0.00554912 3.52398e-05 -0.000594744 -8.72213e-10 1.52183e-09 7.42524e-09 5e-05 1.46608e-10 
52 1 0.104785 0.0166889 0.00767646 0.00567601 -0.000412449 1.68838e-05 1.98226e-09 -3.20537e-10 2.71268e-10 5e-05 1.46608e-10 
53 1 0.116932 0.0172889 0.00720844 0.00562202 0.000142536 2.68475e-05 -2.89389e-10 1.88965e-10 -9.67455e-11 5e-05 1.46608e-10 
54 1 0.110783 0.0163761 0.00795538 0.0059704 9.39009e-05 0.000394432 -1.34192e-11 5.9645e-12 -5.15258e-12 5e-05 1.46608e-10 
55 1 0.104573 0.0158741 0.00821627 0.00609188 -0.000591808 8.29369e-05 1.64673e-10 9.12196e-11 -6.90753e-11 5e-05 1.46608e-10 
56 1 0.110972 0.0171208 0.00748439 0.00543504 0.000166562 0.0003066 1.94321e-10 -1.20867e-10 1.38921e-10 5e-05 1.46608e-10 
57 1 0.116844 0.0169281 0.00754283 0.00548672 -0.000156094 -0.000330315 2.34499e-10 -1.67848e-10 1.48151e-10 5e-05 1.46608e-10 
59 1 0.111086 0.0172341 0.00741925 0.00541792 0.000113171 0.000337917 -3.35667e-10 2.29681e-10 -1.70398e-10 5e-05 1.46608e-10 
60 1 0.111105 0.017317 0.00736668 0.00550941 9.62459e-05 0.000356335 -3.51721e-10 1.48764e-10 -1.92292e-10 5e-05 1.46608e-10 
61 1 0.110709 0.0164299 0.00791465 0.00595007 7.43767e-05 0.000405599 1.88072e-12 6.25779e-12 -4.55218e-12 5e-05 1.46608e-10 
62 1 0.1112 0.0177396 0.00711805 0.00555948 -0.0001851 -0.000225627 -1.66408e-10 -4.08642e-11 -3.94935e-12 5e-05 1.46608e-10 
63 1 0.111104 0.0179049 0.00715542 0.00558407 -0.000153734 -0.000345777 -9.46949e-11 -1.15701e-10 3.10477e-11 5e-05 1.46608e-10 
64 1 0.116951 0.0173691 0.00715151 0.0056574 0.000220012 0.000152084 -1.68368e-10 6.94294e-11 -3.3382e-11 5e-05 1.46608e-10 
65 1 0.105057 0.0177293 0.00710031 0.00573464 -7.04475e-05 0.000501259 1.00999e-10 -1.32195e-10 5.25167e-10 5e-05 1.46608e-10 
66 1 0.105093 0.0175372 0.00720823 0.00691982 -0.00127538 -0.000222653 2.46927e-10 -3.06889e-10 5.53578e-10 5e-05 1.46608e-10 
67 1 0.111333 0.0179507 0.00703024 0.00560852 -0.000221223 -0.00033398 1.14985e-10 1.10363e-10 -5.23601e-11 5e-05 1.46608e-10 
68 1 0.111239 0.0179226 0.00704724 0.00561028 -0.000224108 -0.000341872 -2.10085e-10 -3.47741e-11 5.43778e-11 5e-05 1.46608e-10 
69 1 0.11089 0.0167889 0.00769443 0.00584805 9.04044e-05 0.000387328 -1.49589e-11 2.51684e-11 -1.95331e-11 5e-05 1.46608e-10 
70 1 0.117009 0.0176556 0.00708464 0.00563809 0.000202079 0.000160876 1.4858e-10 5.3347e-12 2.93624e-11 5e-05 1.46608e-10 
71 1 0.104552 0.0157928 0.00827036 0.00611278 -0.00060776 0.000110933 5.39978e-10 1.39181e-10 9.40399e-11 5e-05 1.46608e-10 
72 1 0.111219 0.0178307 0.00708148 0.00559127 -0.000253722 -0.000400333 -2.20479e-10 -6.42416e-11 1.09075e-10 5e-05 1.46608e-10 
73 1 0.110837 0.0169254 0.00760149 0.00541413 0.000142272 0.000320135 2.09785e-10 -3.23435e-11 2.91975e-11 5e-05 1.46608e-10 
74 1 0.111047 0.0174526 0.00727385 0.00554093 0.000135382 0.000336878 -2.05927e-10 -3.27675e-10 9.19671e-11 5e-05 1.46608e-10 
76 1 0.105071 0.0175312 0.00711107 0.00566378 -0.000358653 1.12713e-06 4.08504e-10 -4.19394e-10 3.30747e-10 5e-05 1.46608e-10 
77 1 0.11126 0.0184405 0.00688716 0.00566779 -0.000225542 -0.000235212 -9.13423e-11 4.57777e-11 -1.19124e-10 5e-05 1.46608e-10 
78 1 0.104638 0.0161181 0.00805398 0.00605194 -0.000505534 2.02394e-05 7.42151e-11 -3.18126e-10 6.84027e-11 5e-05 1.46608e-10 
79 1 0.105077 0.0174528 0.00726319 0.00706238 -0.00140826 -0.000568786 2.06924e-10 5.25555e-10 5.84463e-10 5e-05 1.46608e-10 
80 1 0.111069 0.0179581 0.00704709 0.00558596 -0.00019515 -0.000341934 -4.99619e-12 -5.394e-12 3.38827e-12 5e-05 1.46608e-10 
81 1 0.104884 0.017129 0.00749848 0.00568762 0.00103069 -0.00168826 0 0 -1.43822e-09 5e-05 1.46608e-10 
82 1 0.104864 0.0170145 0.00745821 0.0054932 -0.00033316 -6.34438e-05 7.8109e-10 8.06762e-10 -4.33686e-10 5e-05 1.46608e-10 
83 1 0.104976 0.0167376 0.0076331 0.00579122 -0.000383258 -6.1752e-05 -3.92996e-10 6.17099e-10 -3.78347e-11 5e-05 1.46608e-10 
84 1 0.117047 0.017849 0.00708067 0.0056368 2.0547e-05 -0.000795545 -3.07567e-11 -6.03752e-11 3.9354e-11 5e-05 1.46608e-10 
85 1 0.104755 0.0162232 0.00797958 0.0060453 -0.000409383 -3.79307e-05 2.358e-10 -2.71004e-10 1.64196e-10 5e-05 1.46608e-10 
86 1 0.111105 0.0177106 0.0071327 0.005523 -0.000205277 -0.000357273 -2.58102e-10 3.69797e-11 1.13126e-10 5e-05 1.46608e-10 
87 1 0.111067 0.0171512 0.00747182 0.00537757 0.000124411 0.000328709 -4.2406e-10 2.39111e-10 -2.15514e-10 5e-05 1.46608e-10 
88 1 0.111108 0.0181419 0.00697864 0.00561689 -0.000188041 -0.00034389 -7.01756e-11 -7.48167e-12 -8.54196e-12 5e-05 1.46608e-10 
89 1 0.111089 0.01805 0.00701286 0.00559887 -0.00019379 -0.000343646 6.58661e-11 2.4904e-11 -1.60835e-11 5e-05 1.46608e-10 
90 1 0.111444 0.0180801 0.00697598 0.00561815 -0.000207457 -0.000338843 1.39714e-10 -2.42017e-10 1.07135e-10 5e-05 1.46608e-10 
91 1 0.104825 0.0168511 0.00756672 0.00571155 -0.000308755 -7.94595e-05 -5.67259e-10 -7.77781e-10 5.21593e-10 5e-05 1.46608e-10 
92 1 0.111276 0.0181132 0.00700601 0.00562726 -0.000205272 -0.000340569 -1.23469e-10 -5.43008e-12 1.39841e-11 5e-05 1.46608e-10 
93 1 0.111149 0.0183319 0.00694722 0.00562356 -0.000178698 -0.000289247 -2.40374e-11 -7.60753e-11 -1.75222e-10 5e-05 1.46608e-10 
94 1 0.111332 0.0183709 0.00688048 0.00560673 -0.00027364 -0.000304941 4.34759e-11 1.85309e-11 -5.48818e-12 5e-05 1.46608e-10 
95 1 0.111113 0.0180255 0.00710669 0.00561554 -0.000210752 -0.000352879 -5.15463e-11 -9.15125e-11 1.73437e-11 5e-05 1.46608e-10 
96 1 0.111324 0.0181801 0.00694909 0.0056176 -0.000188857 -0.000341189 -1.59473e-11 -1.31362e-10 1.053e-10 5e-05 1.46608e-10 
97 1 0.104744 0.0165248 0.00778347 0.00595936 -0.000362601 -6.15445e-05 -5.47963e-10 -5.47324e-10 2.91789e-10 5e-05 1.46608e-10 
98 1 0.111128 0.0182342 0.00694549 0.00562911 -0.000184914 -0.000345922 2.02522e-11 -9.16851e-11 -1.75738e-10 5e-05 1.46608e-10 
99 1 0.105148 0.0176493 0.00712585 0.00621588 9.90904e-05 -0.000183745 4.2992e-10 -1.23418e-10 -3.75788e-10 5e-05 1.46608e-10 
100 1 0.111275 0.0176791 0.00714361 0.0055789 9.80246e-05 0.000357371 -2.83165e-11 -3.47505e-11 1.3336e-10 5e-05 1.46608e-10 
101 1 0.104904 0.0169674 0.00758617 0.005699 -0.000175789 -0.000171774 -8.78412e-10 -3.39178e-11 1.51384e-10 5e-05 1.46608e-10 
102 1 0.0643568 0.0187248 0.00531097 4.3843e-15 1.0458e-14 8.29592e-14 -5.70806e-22 1.60034e-22 9.92617e-24 5e-05 1.46608e-10 
103 1 0.24257 0.0191927 0.00520306 9.00258e-24 -1.27651e-22 8.29106e-22 0 0 0 5e-05 1.46608e-10 
104 1 0.105091 0.0172288 0.00730707 0.00533142 -9.79804e-05 -0.000185222 1.55618e-09 -8.50038e-10 4.19785e-10 5e-05 1.46608e-10 
105 1 0.104702 0.0163621 0.0078917 0.00598679 -0.000431525 -2.04323e-05 -4.05378e-10 5.81417e-10 -4.63754e-10 5e-05 1.46608e-10 
106 1 0.105185 0.0172537 0.00728609 0.00527015 -5.28186e-05 -0.000228616 6.56967e-10 -6.07916e-10 4.86102e-10 5e-05 1.46608e-10 
107 1 0.104659 0.0161995 0.00799989 0.00603343 -0.000477939 1.18879e-05 1.0721e-10 -5.0648e-10 2.45859e-10 5e-05 1.46608e-10 
108 1 0.110932 0.0169548 0.00758955 0.00548584 0.000155093 0.000317257 1.69807e-10 -5.62099e-11 4.69612e-11 5e-05 1.46608e-10 
109 1 0.110991 0.0175913 0.0071886 0.00555953 0.00012328 0.000365073 7.69108e-11 5.39746e-10 -1.31471e-10 5e-05 1.46608e-10 
110 1 0.111377 0.0185684 0.00688961 0.00589298 -0.000485001 0.000362336 -1.06371e-10 6.40421e-11 -8.82979e-12 5e-05 1.46608e-10 
111 1 0.111243 0.0186286 0.00697082 0.00612677 -0.00013616 0.000439391 5.18111e-12 7.49016e-11 7.70976e-12 5e-05 1.46608e-10 
112 1 0.104765 0.0166064 0.00772929 0.0056615 -0.000360258 -4.70465e-05 1.57266e-10 -1.95646e-09 1.08604e-09 5e-05 1.46608e-10 
113 1 0.105363 0.0180663 0.00700984 0.00570095 -0.000206023 -0.000312627 -1.40919e-10 -2.6297e-10 -5.01333e-11 5e-05 1.46608e-10 
114 1 0.105336 0.017623 0.00715457 0.00553381 0.000272121 0.000460366 7.99794e-12 -3.08842e-10 1.15037e-10 5e-05 1.46608e-10 
115 1 0.111067 0.0175355 0.00722135 0.00555359 0.000108092 0.000354262 -6.81485e-11 2.05215e-10 -1.15095e-10 5e-05 1.46608e-10 
116 1 0.110911 0.0168716 0.00764215 0.00545991 0.000192646 0.000291289 4.49187e-11 -1.81845e-10 1.20611e-10 5e-05 1.46608e-10 
117 1 0.110761 0.0162935 0.00800756 0.00598652 8.50737e-05 0.000401416 6.35293e-12 2.50909e-11 -1.57581e-11 5e-05 1.46608e-10 
118 1 0.104595 0.0159555 0.00816217 0.00607743 -0.000559666 6.14039e-05 2.49686e-11 1.6887e-10 -4.83762e-11 5e-05 1.46608e-10 
119 1 0.111124 0.0173999 0.00731412 0.00556318 8.49908e-05 0.000363679 5.65725e-11 4.51692e-11 -4.95842e-11 5e-05 1.46608e-10 
120 1 0.110604 0.0160272 0.00816919 0.00605505 4.09716e-05 0.000434501 1.83572e-11 5.72048e-11 -3.71588e-11 5e-05 1.46608e-10 
121 1 0.110562 0.015862 0.00827357 0.00609717 2.94478e-05 0.000446164 1.40323e-11 5.47835e-11 -3.4237e-11 5e-05 1.46608e-10 
122 1 0.111303 0.0186354 0.00689088 0.00608471 -0.000270092 0.000394581 3.47729e-12 1.20791e-10 1.37815e-11 5e-05 1.46608e-10 
123 1 0.104798 0.0163859 0.00787136 0.00597351 -0.00040306 -3.5829e-05 -1.36339e-11 -6.5482e-11 3.53883e-11 5e-05 1.46608e-10 
124 1 0.111183 0.0180783 0.0069958 0.00561486 -0.000203847 -0.000341898 -8.73028e-11 1.95408e-11 -7.66294e-11 5e-05 1.46608e-10 
125 1 0.11074 0.0162109 0.00805975 0.00601305 8.11857e-05 0.000406005 -5.64883e-12 3.19852e-11 -2.0995e-11 5e-05 1.46608e-10 
126 1 0.110953 0.0174215 0.00728693 0.00549302 0.000129026 0.000335689 1.20587e-10 1.88041e-10 -8.66106e-11 5e-05 1.46608e-10 
127 1 0.104723 0.0164434 0.0078376 0.00605561 -0.000384914 -5.5177e-05 9.48898e-10 6.5006e-10 -7.17905e-10 5e-05 1.46608e-10 
128 1 0.111049 0.017866 0.00708141 0.0055744 -0.00021893 -0.000327197 -6.68654e-11 1.95999e-10 -1.56543e-10 5e-05 1.46608e-10 
129 1 0.111148 0.0181356 0.00706993 0.00562875 -0.000188076 -0.000345078 -1.98639e-11 4.15489e-11 -3.1814e-11 5e-05 1.46608e-10 
130 1 0.104959 0.0170399 0.00743746 0.00543503 -0.000321692 -7.6614e-05 7.9033e-10 4.59331e-12 2.813e-11 5e-05 1.46608e-10 
131 1 0.105155 0.0177474 0.00710799 0.00578753 7.29944e-05 -0.000251638 -8.98546e-11 1.90677e-11 -4.42252e-10 5e-05 1.46608e-10 
132 1 0.111164 0.0179864 0.00703003 0.00560155 -0.000219182 -0.000348165 -1.1445e-10 2.06221e-10 4.27378e-11 5e-05 1.46608e-10 
133 1 0.110985 0.0168182 0.00768265 0.00563576 0.000366682 0.000191073 5.12475e-11 -1.4839e-10 9.74579e-11 5e-05 1.46608e-10 
134 1 0.111142 0.0174829 0.0072615 0.00555013 9.18919e-05 0.000362632 7.92959e-11 -3.94993e-11 -3.0784e-11 5e-05 1.46608e-10 
135 1 0.110718 0.0161283 0.00811195 0.00602869 6.71826e-05 0.000416211 1.48649e-11 3.53434e-11 -2.13243e-11 5e-05 1.46608e-10 
136 1 0.104733 0.0161418 0.00803368 0.0060657 -0.000426362 -2.71144e-05 2.5587e-10 -3.72283e-10 2.33178e-10 5e-05 1.46608e-10 
137 1 0.111206 0.0186043 0.00688121 0.00620247 -0.000153747 0.000413379 7.5174e-12 2.41635e-11 5.43596e-12 5e-05 1.46608e-10 
138 1 0.110868 0.0167064 0.00774662 0.00587268 9.69771e-05 0.000384956 -3.79574e-11 8.21097e-12 -5.8559e-12 5e-05 1.46608e-10 
140 1 0.111355 0.0184713 0.00687886 0.00588264 -0.000480133 0.000361289 7.18044e-11 5.57113e-11 2.17338e-11 5e-05 1.46608e-10 
141 1 0.104776 0.0163045 0.00792548 0.00603562 -0.000433729 -2.22872e-05 -8.56829e-11 4.86633e-11 4.18708e-12 5e-05 1.46608e-10 
142 1 0.105053 0.017065 0.00741576 0.00547129 -0.000251424 -9.86244e-05 4.85638e-10 -2.10345e-10 1.26681e-10 5e-05 1.46608e-10 
143 1 0.10468 0.0162808 0.00794579 0.00601969 -0.000463334 -1.85827e-06 -4.15352e-10 -1.53698e-10 2.48603e-10 5e-05 1.46608e-10 
144 1 0.105186 0.0176406 0.00703389 0.0058478 -7.1046e-05 -0.000261946 4.4214e-10 -2.37605e-10 9.45122e-11 5e-05 1.46608e-10 
146 1 0.10509 0.0168446 0.00755757 0.00568046 -4.25701e-05 -0.000264986 2.78513e-10 1.2637e-10 -6.58459e-11 5e-05 1.46608e-10 
147 1 0.104712 0.0160605 0.00808777 0.00609825 -0.000449786 -1.44697e-05 4.46896e-10 -3.97512e-10 2.01016e-10 5e-05 1.46608e-10 
148 1 0.104921 0.0172613 0.00729742 0.00532945 -0.000318535 -8.90922e-05 6.24202e-10 -1.43165e-10 3.70946e-11 5e-05 1.46608e-10 
149 1 0.111184 0.0185073 0.00687047 0.00562469 -1.86342e-05 0.000387909 4.52268e-11 4.08496e-11 9.15257e-12 5e-05 1.46608e-10 
150 1 0.104881 0.0167125 0.00765426 0.005616 -0.000489185 4.00938e-05 1.1947e-09 -8.37829e-10 3.80021e-10 5e-05 1.46608e-10 
151 1 0.105357 0.0176107 0.0070576 0.00551453 0.000136187 0.000463249 1.29423e-10 -2.41334e-10 2.13327e-11 5e-05 1.46608e-10 
153 1 0.10484 0.0165494 0.00776263 0.00555926 -0.000417834 -6.95294e-06 -5.30813e-10 6.78687e-10 -4.63806e-10 5e-05 1.46608e-10 
154 1 0.105015 0.0172855 0.00727398 0.00540072 -0.000272118 -8.60582e-05 -6.39536e-10 4.12291e-10 -1.44026e-10 5e-05 1.46608e-10 
155 1 0.10509 0.0176108 0.00705375 0.00567003 -0.00012505 0.000348281 2.33917e-10 -2.62715e-10 3.10461e-10 5e-05 1.46608e-10 
156 1 0.104996 0.0172035 0.00732834 0.00538887 -0.000251062 -7.51133e-05 5.60332e-10 -1.09911e-09 1.35496e-10 5e-05 1.46608e-10 
157 1 0.0219312 0.0187687 0.00551176 -3.83642e-14 8.16469e-14 2.9589e-13 1.12548e-22 9.27993e-23 -1.30281e-23 5e-05 1.46608e-10 
158 1 0.105109 0.017311 0.00725257 0.0053242 -0.000129975 -0.000181794 -3.21816e-10 5.26941e-10 -2.70502e-10 5e-05 1.46608e-10 
159 1 0.111258 0.0180145 0.00701302 0.00561632 -0.000210091 -0.000339295 -8.15325e-11 -1.62891e-11 -3.15073e-11 5e-05 1.46608e-10 
160 1 0.104995 0.0175823 0.00707065 0.00565115 -3.21621e-05 0.000353174 1.18845e-10 2.39564e-10 2.25656e-11 5e-05 1.46608e-10 
162 1 0.105034 0.0173674 0.00721965 0.0054718 -0.000335959 -7.71271e-05 -8.9211e-10 -7.7005e-11 3.4361e-10 5e-05 1.46608e-10 
164 1 0.105167 0.0179989 0.00702156 0.00564108 -1.12328e-05 -0.00048026 -9.89077e-11 -7.06833e-10 -9.63536e-10 5e-05 1.46608e-10 
165 1 0.105284 0.0176785 0.00704554 0.00540855 -8.3345e-05 -4.87562e-05 9.01136e-11 -1.85096e-10 -2.33259e-10 5e-05 1.46608e-10 
166 1 0.110942 0.0166526 0.00778728 0.00589682 0.000118962 0.000372468 -1.65212e-11 8.10754e-11 -5.43404e-11 5e-05 1.46608e-10 
167 1 0.10486 0.016631 0.00770842 0.00580767 -0.000459615 1.26258e-05 1.39111e-09 -4.388e-10 2.86767e-10 5e-05 1.46608e-10 
168 1 0.105204 0.0173355 0.0072318 0.00530088 -6.24895e-05 -0.000210056 7.20512e-10 -5.1499e-10 3.0599e-10 5e-05 1.46608e-10 
169 1 0.105341 0.0179686 0.0070122 0.0054521 -0.000171839 -0.000310606 -4.56685e-10 -1.0187e-10 -5.12962e-11 5e-05 1.46608e-10 
170 1 0.105241 0.0174993 0.00712316 0.00567466 -0.000163202 -0.000182439 -1.84297e-10 -2.46386e-10 1.85613e-13 5e-05 1.46608e-10 
171 1 0.110964 0.0167353 0.00773502 0.00585519 9.26779e-05 0.000386471 -9.70801e-12 2.83393e-11 -1.87049e-11 5e-05 1.46608e-10 
172 1 0.105396 0.0178043 0.00701109 0.00529402 -0.000172484 -0.000297563 8.63618e-11 4.22921e-10 -3.59395e-10 5e-05 1.46608e-10 
173 1 0.111354 0.0182786 0.00691176 0.00559475 -0.00026884 -0.000317844 -2.6116e-11 -7.09209e-11 3.21574e-11 5e-05 1.46608e-10 
174 1 0.105147 0.017476 0.00714549 0.00565752 -0.00129505 -0.00143006 3.68719e-10 -7.06381e-10 -3.63293e-10 5e-05 1.46608e-10 
175 1 0.0989343 0.0173099 0.00720964 0.00562063 4.80227e-05 -2.03405e-05 -1.14535e-12 4.55088e-12 8.28292e-14 5e-05 1.46608e-10 
176 1 0.104977 0.0171217 0.00738262 0.00543748 -0.000279013 -9.43606e-05 5.37935e-10 -3.60665e-10 -1.19932e-10 5e-05 1.46608e-10 
177 1 0.105034 0.0177678 0.00701091 0.00570561 7.42487e-06 0.000533003 2.57793e-10 3.96645e-10 4.96344e-11 5e-05 1.46608e-10 
178 1 0.105383 0.0181641 0.0070075 0.00592191 -0.000251727 -0.000328858 -4.70429e-10 -3.02136e-10 8.74707e-11 5e-05 1.46608e-10 
179 1 0.105321 0.0178707 0.00701449 0.00524601 -0.000121758 -0.000290501 1.06584e-10 1.63443e-10 4.69046e-10 5e-05 1.46608e-10 
181 1 0.104958 0.0174238 0.00718691 0.00555586 -8.27427e-05 0.000248425 -4.87582e-10 -1.06534e-10 5.74855e-10 5e-05 1.46608e-10 
182 1 0.110847 0.0166238 0.00779881 0.00590319 9.76254e-05 0.00038683 -4.74366e-12 -2.74436e-11 1.63368e-11 5e-05 1.46608e-10 
183 1 0.105223 0.0174174 0.00717755 0.00544715 -0.000112558 -0.000204102 1.43642e-11 -4.55927e-10 2.0753e-11 5e-05 1.46608e-10 
184 1 0.111302 0.0182264 0.00703483 0.00562911 -0.000224537 -0.000332286 -2.65764e-11 -1.20931e-10 7.97324e-11 5e-05 1.46608e-10 
185 1 0.104902 0.0171782 0.00734964 0.00538283 -0.000381058 -0.000102755 5.72413e-10 2.80299e-10 -3.75776e-10 5e-05 1.46608e-10 
186 1 0.10494 0.0173436 0.00724379 0.00541057 -0.000171256 0.000104171 -9.5312e-10 6.06231e-11 2.44496e-10 5e-05 1.46608e-10 
187 1 0.111257 0.0175962 0.00719622 0.00556259 0.000107562 0.000351587 5.71188e-11 -8.8585e-11 5.85119e-11 5e-05 1.46608e-10 
188 1 0.111238 0.0183438 0.00690143 0.00559023 -0.00020303 -0.000299545 -2.02362e-11 8.45892e-11 9.20161e-11 5e-05 1.46608e-10 
189 1 0.111294 0.0177668 0.00709874 0.00555653 -0.000279185 -0.000312618 -1.54234e-10 -9.26376e-11 1.3163e-10 5e-05 1.46608e-10 
190 1 0.0990877 0.0176264 0.0071301 0.00562799 4.82085e-05 -2.059e-05 -1.49373e-11 6.63626e-13 -2.37471e-13 5e-05 1.46608e-10 
191 1 0.111228 0.0187014 0.00689196 0.00619814 -0.000151508 0.000414658 7.54188e-12 2.51604e-11 5.01905e-12 5e-05 1.46608e-10 
192 1 0.105147 0.0170901 0.00739466 0.0054209 -0.000104625 -0.000201944 9.54889e-11 -3.62644e-10 2.85495e-10 5e-05 1.46608e-10 
193 1 0.111047 0.0170683 0.00752434 0.00535899 0.000130151 0.000323531 -2.00461e-10 1.68618e-10 -1.32555e-10 5e-05 1.46608e-10 
194 1 0.104996 0.0168193 0.0075788 0.00564222 -0.000270647 -0.000112266 5.44266e-10 -4.53355e-10 2.86855e-10 5e-05 1.46608e-10 
195 1 0.105416 0.0179023 0.00700882 0.0054086 -0.000182366 -0.000298474 -2.58248e-10 5.90349e-10 -4.3832e-11 5e-05 1.46608e-10 
196 1 0.104488 0.015577 0.00846056 0.00625047 0.000277884 0.000518234 0 0 -1.43822e-09 5e-05 1.46608e-10 
197 1 0.0989929 0.0175953 0.00713794 0.00563053 4.48863e-05 -1.96781e-05 3.74167e-13 -4.2416e-12 7.11963e-13 5e-05 1.46608e-10 
198 1 0.104922 0.0172041 0.00744417 0.00637533 0.00128287 -0.000873223 -2.07384e-10 -4.72172e-10 5.96553e-10 5e-05 1.46608e-10 
199 1 0.105052 0.01745 0.00716643 0.00562879 -0.000487287 -0.00024529 1.31379e-10 -9.95326e-11 5.47306e-10 5e-05 1.46608e-10 
200 1 0.104845 0.0169331 0.00751297 0.00564151 -0.000303385 -8.62358e-05 -4.30336e-10 3.56038e-10 -6.10539e-10 5e-05 1.46608e-10 
201 1 0.105308 0.0182291 0.00701556 0.00591516 -0.000275408 -0.000329617 -3.56151e-10 4.04788e-11 4.17227e-11 5e-05 1.46608e-10 
202 1 0.105166 0.0171719 0.00734038 0.00529986 -8.31493e-05 -0.000213062 -6.78632e-10 -2.05067e-10 1.90271e-10 5e-05 1.46608e-10 
203 1 0.111314 0.0178587 0.00706451 0.00563338 -0.000199049 -0.000347782 -2.02595e-10 -1.02588e-10 5.73147e-11 5e-05 1.46608e-10 
204 1 0.10492 0.016876 0.00754568 0.00564283 -0.000255114 -0.000125967 -1.15463e-09 -8.52094e-11 1.60442e-10 5e-05 1.46608e-10 
205 1 0.105128 0.0178005 0.00701988 0.00565928 6.48168e-05 0.000524214 1.32393e-10 1.53973e-11 -1.70794e-10 5e-05 1.46608e-10 
206 1 0.105167 0.0175583 0.00708907 0.00570433 -0.000253343 0.000109237 4.09689e-10 -2.52576e-10 2.52457e-10 5e-05 1.46608e-10 
207 1 0.104819 0.0164679 0.00781681 0.00569994 -0.000298971 -9.3273e-05 -5.52367e-10 6.91661e-10 -4.16825e-10 5e-05 1.46608e-10 
208 1 0.105128 0.017393 0.00719821 0.00545007 -0.000561259 9.43512e-05 3.3938e-10 -1.35566e-10 -4.59051e-12 5e-05 1.46608e-10 
209 1 0.1049 0.0167952 0.00760132 0.00575424 -0.000356969 -8.39797e-05 -1.5821e-10 2.98822e-10 -1.03148e-09 5e-05 1.46608e-10 
210 1 0.111064 0.0177251 0.00722247 0.00534768 0.000335946 -0.000580568 -4.78011e-10 -4.01243e-11 8.80107e-10 5e-05 1.46608e-10 
211 1 0.111263 0.0182594 0.00694863 0.00558129 -0.000212832 -0.000315892 -2.03977e-11 -4.02343e-11 9.08354e-11 5e-05 1.46608e-10 
212 1 0.105262 0.0175886 0.00708336 0.00563456 -0.00012913 -9.20718e-05 2.17489e-10 -2.11115e-10 -6.05303e-11 5e-05 1.46608e-10 
213 1 0.111237 0.0175134 0.00724874 0.00551861 0.000125515 0.000339791 7.87192e-11 -1.10624e-10 8.19857e-11 5e-05 1.46608e-10 
214 1 0.111203 0.0181702 0.00696158 0.0056391 -0.000195352 -0.000344422 7.54027e-11 -1.09914e-11 -6.72306e-12 5e-05 1.46608e-10 
215 1 0.0990485 0.0174361 0.00717716 0.00563585 4.43873e-05 -1.95928e-05 1.46914e-11 6.15481e-12 -2.04077e-12 5e-05 1.46608e-10 
216 1 0.105014 0.0176717 0.00703043 0.00569543 -1.59472e-05 0.00046352 3.52684e-10 3.14995e-10 -1.93864e-11 5e-05 1.46608e-10 
217 1 0.111007 0.0169023 0.0076295 0.00556423 0.000230785 0.000274242 9.91835e-11 -2.08413e-10 1.48567e-10 5e-05 1.46608e-10 
218 1 0.105103 0.017856 0.00709927 0.00562171 9.58515e-05 0.000593018 3.95683e-10 2.17665e-10 -5.66113e-10 5e-05 1.46608e-10 
219 1 0.111165 0.0184108 0.00688782 0.00563972 -0.000133175 -0.000225028 -5.55249e-12 2.56422e-11 -3.6203e-11 5e-05 1.46608e-10 
220 1 0.104976 0.017503 0.00712881 0.00562112 -4.45963e-05 0.000316862 1.06012e-10 -8.00463e-11 1.04439e-10 5e-05 1.46608e-10 
221 1 0.0989776 0.0170641 0.00726915 0.005636 5.26899e-05 -2.4551e-05 8.42802e-12 -4.89833e-12 4.56947e-12 5e-05 1.46608e-10 
222 1 0.111028 0.0169855 0.00757681 0.00540533 0.000136607 0.000323071 9.30287e-11 4.02807e-11 -1.72041e-11 5e-05 1.46608e-10 
223 1 0.105072 0.0171469 0.00736144 0.00539297 -0.000290404 -6.6e-05 3.37788e-11 -4.68402e-10 3.90153e-10 5e-05 1.46608e-10 
224 1 0.104883 0.0170963 0.00740396 0.00541606 -0.000342132 -4.59316e-05 6.80333e-10 1.40388e-10 -2.38733e-10 5e-05 1.46608e-10 
225 1 0.111249 0.0187984 0.00690271 0.00619523 -0.000148072 0.000414326 8.56278e-12 3.68476e-11 6.29171e-12 5e-05 1.46608e-10 
226 1 0.105376 0.0177061 0.00701837 0.0054092 0.000105992 0.000447816 2.77538e-10 -1.1509e-10 6.16036e-10 5e-05 1.46608e-10 
227 1 0.0991219 0.0177428 0.00710133 0.00562231 5.07013e-05 -2.11769e-05 -6.65143e-12 -1.02789e-11 2.45939e-12 5e-05 1.46608e-10 
228 1 0.0989538 0.0174049 0.007185 0.00562959 4.55977e-05 -2.00331e-05 -1.4773e-11 4.56888e-12 1.46212e-12 5e-05 1.46608e-10 
229 1 0.105043 0.0176378 0.0071382 0.00583126 -0.000160561 0.000292673 2.05623e-10 -5.47663e-10 4.47588e-10 5e-05 1.46608e-10 
230 1 0.105252 0.0183905 0.00701214 0.00595476 -0.000246122 -0.000376788 -3.81549e-10 1.62134e-10 -6.52296e-10 5e-05 1.46608e-10 
231 1 0.0989148 0.0172144 0.00723207 0.00562163 4.77008e-05 -2.05577e-05 -4.31253e-12 -1.16474e-12 -2.49328e-12 5e-05 1.46608e-10 
232 1 0.104956 0.0166559 0.00768737 0.00559009 -0.000630504 0.0001287 4.89494e-10 3.56877e-10 -2.16318e-10 5e-05 1.46608e-10 
233 1 0.105034 0.0169829 0.00747026 0.00552572 -0.000226622 -0.000136995 2.57563e-10 -2.6929e-10 3.40681e-11 5e-05 1.46608e-10 
234 1 0.111281 0.0185381 0.00688008 0.00608637 -0.000269953 0.000395153 7.13059e-11 5.17397e-11 1.48453e-11 5e-05 1.46608e-10 
235 1 0.105218 0.018649 0.00701093 0.00598579 -0.000401922 -0.000329442 -2.4575e-10 1.77739e-10 4.09506e-11 5e-05 1.46608e-10 
236 1 0.105372 0.0185219 0.00700384 0.00601898 -0.000341241 -0.000332067 -3.73769e-11 2.1698e-10 7.57352e-12 5e-05 1.46608e-10 
237 1 0.105296 0.0185869 0.0070073 0.00601696 -0.000357623 -0.000331639 -3.26796e-11 1.07793e-10 -2.93472e-13 5e-05 1.46608e-10 
239 1 0.0987438 0.0165071 0.00774286 0.0057333 3.65568e-05 -8.97673e-06 8.69065e-12 -1.90183e-11 1.48389e-11 5e-05 1.46608e-10 
240 1 0.0988026 0.0167311 0.0075522 0.00572895 3.02753e-05 -8.09657e-06 -9.58445e-11 -8.48972e-11 4.29694e-11 5e-05 1.46608e-10 
241 1 0.098724 0.0164324 0.00780639 0.00570027 3.89853e-05 -1.29489e-05 -2.38889e-11 3.29565e-11 -2.70475e-11 5e-05 1.46608e-10 
242 1 0.105015 0.0169011 0.00752453 0.00552084 -0.000230678 -0.00014321 7.47793e-11 6.49796e-11 -6.76446e-11 5e-05 1.46608e-10 
243 1 0.104941 0.0173512 0.00734349 0.00553494 -0.000269511 8.11669e-05 -4.53226e-10 -2.11156e-12 -1.47322e-10 5e-05 1.46608e-10 
244 1 0.0987637 0.0165817 0.00767934 0.00577198 2.58081e-05 -2.31899e-06 -1.99231e-10 -8.01674e-11 4.56547e-11 5e-05 1.46608e-10 
246 1 0.0988763 0.0170304 0.00729746 0.0056416 4.38026e-05 -1.78177e-05 1.67359e-11 -1.27427e-11 2.21237e-11 5e-05 1.46608e-10 
247 1 0.105148 0.0179008 0.00702236 0.00553452 1.01464e-05 0.000473301 -7.39977e-10 -4.00097e-10 -1.17989e-10 5e-05 1.46608e-10 
248 1 0.105265 0.0180338 0.00701612 0.00547713 -0.00017875 -0.000325801 -2.86546e-11 3.01844e-11 1.31555e-10 5e-05 1.46608e-10 