ITEM: TIMESTEP
72400000
ITEM: NUMBER OF ATOMS
269
ITEM: BOX BOUNDS ff ff ff
-0.02 0.43
-0.02 0.06
-0.02 0.07
ITEM: ATOMS id type x y z vx vy vz fx fy fz radius mass 
1 1 0.384599 0.0175858 5.25551e-05 8.34922e-15 -2.3428e-15 1.20778e-15 6.54598e-20 -1.83789e-20 9.92617e-23 5e-05 1.46608e-10 
2 1 0.384183 0.0168012 5.20101e-05 2.24035e-18 5.28846e-21 -1.71052e-15 4.03897e-28 1.82159e-25 0 5e-05 1.46608e-10 
4 1 0.384401 0.018342 5.22951e-05 8.61621e-20 1.96607e-21 -6.55654e-17 0 0 0 5e-05 1.46608e-10 
5 1 0.385011 0.0167669 5.30953e-05 2.24033e-18 3.98508e-20 -1.71052e-15 0 2.75323e-25 0 5e-05 1.46608e-10 
6 1 0.385108 0.0179216 5.32215e-05 1.79761e-18 -2.47658e-22 -1.37249e-15 0 7.1436e-27 0 5e-05 1.46608e-10 
7 1 0.384328 0.0189229 5.22005e-05 -3.50272e-19 -1.60682e-20 2.6738e-16 0 1.15506e-25 0 5e-05 1.46608e-10 
8 1 0.384815 0.0184943 5.2838e-05 1.79757e-18 -2.17229e-21 -1.37249e-15 0 1.50392e-26 0 5e-05 1.46608e-10 
9 1 0.383777 0.0196525 5.1478e-05 2.81057e-18 -2.19576e-20 -2.14593e-15 0 3.36199e-26 0 5e-05 1.46608e-10 
10 1 0.384888 0.0164946 5.29341e-05 -9.20556e-19 -7.35673e-22 7.02842e-16 0 9.8085e-26 0 5e-05 1.46608e-10 
11 1 0.383974 0.0191869 5.17367e-05 2.81057e-18 1.19363e-21 -2.14593e-15 0 2.78597e-26 0 5e-05 1.46608e-10 
12 1 0.384004 0.0179482 5.17757e-05 1.25839e-19 1.72206e-20 -9.03221e-17 -6.46235e-27 0 0 5e-05 1.46608e-10 
13 1 0.384309 0.0184568 5.21751e-05 1.79763e-18 1.66213e-21 -1.37251e-15 -4.03897e-28 2.505e-26 0 5e-05 1.46608e-10 
14 1 0.384724 0.0196711 5.2719e-05 8.71333e-19 1.23666e-20 -6.65298e-16 0 1.89109e-25 0 5e-05 1.46608e-10 
16 1 0.383685 0.0191826 5.13578e-05 2.81059e-18 1.65032e-21 -2.14593e-15 0 -4.71318e-26 0 5e-05 1.46608e-10 
17 1 0.384698 0.0173096 5.26849e-05 2.24031e-18 1.39483e-21 -1.71051e-15 0 -6.96552e-27 0 5e-05 1.46608e-10 
19 1 0.383912 0.0197978 5.16557e-05 2.81059e-18 3.85028e-21 -2.14593e-15 0 1.5625e-25 0 5e-05 1.46608e-10 
21 1 0.383597 0.0186925 5.12422e-05 -6.85906e-19 -4.84205e-21 5.27388e-16 0 0 0 5e-05 1.46608e-10 
22 1 0.38463 0.0163628 5.2596e-05 2.24033e-18 -3.40856e-21 -1.71051e-15 0 -9.32508e-27 0 5e-05 1.46608e-10 
23 1 0.383878 0.0175317 5.1611e-05 9.70167e-22 3.12401e-21 -4.02974e-19 -6.46235e-27 0 0 5e-05 1.46608e-10 
24 1 0.384101 0.0187635 5.19028e-05 -9.85849e-20 2.70579e-21 7.4944e-17 0 0 0 5e-05 1.46608e-10 
26 1 0.38362 0.0183342 5.12731e-05 -2.89661e-21 1.08003e-21 1.92861e-20 0 0 0 5e-05 1.46608e-10 
27 1 0.384785 0.0180411 5.27984e-05 1.79761e-18 -1.10569e-21 -1.37251e-15 0 -3.71459e-27 0 5e-05 1.46608e-10 
28 1 0.384198 0.0187953 5.20297e-05 -3.50113e-19 3.68171e-22 2.67382e-16 0 -5.51315e-27 0 5e-05 1.46608e-10 
29 1 0.384214 0.0168974 5.20505e-05 -9.20543e-19 -1.33641e-21 7.02842e-16 -4.03897e-28 8.6479e-26 0 5e-05 1.46608e-10 
30 1 0.384097 0.0179868 5.18972e-05 1.20812e-19 1.47714e-21 -9.0307e-17 1.29247e-26 0 0 5e-05 1.46608e-10 
31 1 0.383893 0.0179765 5.16305e-05 1.47597e-20 -1.74879e-20 -2.54645e-19 1.03398e-25 -2.58494e-26 0 5e-05 1.46608e-10 
32 1 0.247451 0.0181454 0.00545794 3.76137e-15 -5.3215e-14 -2.74083e-13 -2.02564e-21 -2.64801e-22 2.83309e-23 5e-05 1.46608e-10 
33 1 0.383882 0.0177775 5.16151e-05 2.15858e-20 -3.17513e-20 -3.53883e-19 -3.87741e-26 2.58494e-26 0 5e-05 1.46608e-10 
35 1 0.384808 0.0177286 5.28287e-05 1.79763e-18 2.24766e-21 -1.37251e-15 0 2.23534e-26 0 5e-05 1.46608e-10 
36 1 0.383662 0.0180556 5.13278e-05 -5.84368e-22 1.11316e-22 -4.12677e-20 0 0 0 5e-05 1.46608e-10 
37 1 0.383909 0.0178755 5.16511e-05 -6.3239e-19 2.22675e-20 4.77477e-16 -1.61559e-27 -8.07794e-27 0 5e-05 1.46608e-10 
38 1 0.384713 0.0170615 5.27042e-05 2.24032e-18 2.14341e-21 -1.71052e-15 4.03897e-28 -2.85213e-25 0 5e-05 1.46608e-10 
39 1 0.383717 0.0197911 5.13996e-05 2.81059e-18 -5.49117e-21 -2.14593e-15 0 4.61055e-26 0 5e-05 1.46608e-10 
41 1 0.383748 0.018123 5.14409e-05 2.24031e-18 2.80555e-20 -1.71052e-15 0 1.17397e-25 0 5e-05 1.46608e-10 
42 1 0.384212 0.0181264 5.20477e-05 -2.83956e-19 -8.66535e-22 2.16031e-16 0 0 0 5e-05 1.46608e-10 
44 1 0.384674 0.017655 5.26539e-05 1.79762e-18 2.4363e-22 -1.37251e-15 0 4.74033e-27 0 5e-05 1.46608e-10 
45 1 0.384212 0.0172077 5.20482e-05 2.24032e-18 -8.00754e-22 -1.71051e-15 0 -8.68205e-27 0 5e-05 1.46608e-10 
47 1 0.384502 0.0170164 5.24283e-05 2.24037e-18 2.45963e-22 -1.71051e-15 0 1.2825e-26 0 5e-05 1.46608e-10 
48 1 0.383855 0.0191595 5.15803e-05 2.81058e-18 5.05709e-21 -2.14593e-15 0 -4.20438e-26 0 5e-05 1.46608e-10 
49 1 0.384166 0.0195438 5.19874e-05 2.81059e-18 -4.06879e-21 -2.14593e-15 0 4.44369e-25 0 5e-05 1.46608e-10 
50 1 0.393014 0.0167648 0.00834675 -8.40428e-05 -0.0139394 0.0106714 -1.65438e-12 1.26472e-10 -6.66862e-11 5e-05 1.46608e-10 
51 1 0.384626 0.0177793 5.25903e-05 1.79764e-18 -5.40656e-22 -1.37251e-15 0 -2.65189e-27 0 5e-05 1.46608e-10 
52 1 0.38448 0.0176805 5.23994e-05 2.96703e-14 -1.12597e-14 -2.97988e-14 -7.6666e-19 -4.41039e-19 4.45246e-19 5e-05 1.46608e-10 
53 1 0.384734 0.0175226 5.27322e-05 1.04286e-13 -2.71493e-13 2.16893e-15 -5.04026e-19 1.47782e-18 -4.65386e-20 5e-05 1.46608e-10 
54 1 0.383738 0.0190139 5.14271e-05 -3.50222e-19 1.00925e-21 2.67381e-16 0 5.49037e-27 0 5e-05 1.46608e-10 
55 1 0.384694 0.0180885 5.26795e-05 -2.80686e-19 4.1627e-22 2.16615e-16 0 0 0 5e-05 1.46608e-10 
56 1 0.383635 0.0196308 5.12923e-05 2.81059e-18 2.72798e-21 -2.14593e-15 0 3.12406e-26 0 5e-05 1.46608e-10 
57 1 0.383634 0.0197324 5.1291e-05 -3.50174e-19 5.03639e-21 2.67381e-16 0 -1.38526e-27 0 5e-05 1.46608e-10 
59 1 0.378022 0.019866 0.005332 -5.02041e-15 -7.41205e-15 7.69802e-14 3.21825e-24 -1.65436e-24 0 5e-05 1.46608e-10 
60 1 0.384057 0.0182172 5.1845e-05 1.79764e-18 -4.76118e-21 -1.37251e-15 0 5.54962e-26 0 5e-05 1.46608e-10 
61 1 0.384827 0.0175585 5.28544e-05 -9.64491e-14 2.50619e-13 -9.0724e-16 5.56117e-19 -1.28592e-18 1.24563e-20 5e-05 1.46608e-10 
62 1 0.384311 0.0186263 5.21774e-05 1.79764e-18 3.16313e-21 -1.37251e-15 0 -1.59827e-25 0 5e-05 1.46608e-10 
63 1 0.383577 0.018452 5.1216e-05 -4.85377e-22 8.36289e-21 -2.88402e-20 0 0 0 5e-05 1.46608e-10 
64 1 0.383269 0.0178073 0.0053438 -1.46613e-15 -3.32067e-15 -2.09205e-14 2.21012e-23 -9.15069e-24 0 5e-05 1.46608e-10 
65 1 0.384532 0.0167022 5.24676e-05 2.24032e-18 6.87831e-23 -1.71051e-15 0 -1.14467e-27 0 5e-05 1.46608e-10 
66 1 0.383745 0.0178455 0.000126364 -1.81015e-19 -7.39185e-20 -6.51887e-21 -2.06795e-25 0 2.35876e-25 5e-05 1.46608e-10 
67 1 0.384602 0.0180485 5.25594e-05 -2.85997e-19 -3.1127e-21 2.16615e-16 0 0 4.1359e-25 5e-05 1.46608e-10 
68 1 0.384886 0.0184142 5.2931e-05 3.4833e-19 -6.23655e-23 -2.65996e-16 0 0 0 5e-05 1.46608e-10 
69 1 0.383711 0.0207759 5.13922e-05 2.00504e-18 1.28379e-21 -1.5309e-15 0 -3.57458e-27 0 5e-05 1.46608e-10 
70 1 0.384746 0.0161015 5.27478e-05 2.24033e-18 -3.63302e-23 -1.71051e-15 0 6.31225e-26 0 5e-05 1.46608e-10 
71 1 0.383741 0.0188606 5.14314e-05 -3.50177e-19 1.98405e-20 2.6738e-16 0 4.06318e-26 0 5e-05 1.46608e-10 
72 1 0.384005 0.0195345 5.17769e-05 -3.50178e-19 -6.16972e-22 2.67382e-16 0 -5.93906e-26 0 5e-05 1.46608e-10 
73 1 0.385165 0.0173714 5.3297e-05 1.7976e-18 1.12868e-21 -1.37251e-15 0 1.41381e-26 0 5e-05 1.46608e-10 
74 1 0.384312 0.0182285 5.21795e-05 8.52334e-20 -2.59083e-21 -6.55705e-17 0 0 0 5e-05 1.46608e-10 
76 1 0.384529 0.0179806 5.24634e-05 1.79756e-18 1.03088e-22 -1.37249e-15 0 -9.82892e-27 0 5e-05 1.46608e-10 
77 1 0.384211 0.0182562 5.20468e-05 1.79759e-18 -4.40137e-21 -1.37249e-15 0 1.2004e-25 0 5e-05 1.46608e-10 
78 1 0.384019 0.0174293 5.17959e-05 2.24034e-18 -3.64065e-22 -1.71052e-15 0 1.16247e-27 0 5e-05 1.46608e-10 
79 1 0.383618 0.019402 5.12705e-05 -3.5017e-19 -5.30291e-21 2.67382e-16 0 1.97246e-26 0 5e-05 1.46608e-10 
80 1 0.384203 0.0173209 5.20365e-05 2.24035e-18 -3.70439e-20 -1.71051e-15 0 -1.38177e-25 0 5e-05 1.46608e-10 
82 1 0.384071 0.0186677 5.1864e-05 -3.5017e-19 2.60956e-21 2.67382e-16 0 -1.79709e-26 0 5e-05 1.46608e-10 
83 1 0.384602 0.0164616 5.25589e-05 2.24031e-18 -2.55922e-20 -1.71052e-15 0 -6.61882e-26 0 5e-05 1.46608e-10 
84 1 0.384003 0.0188652 5.17748e-05 -9.43966e-20 7.69126e-22 7.49431e-17 0 0 0 5e-05 1.46608e-10 
85 1 0.384491 0.0201706 5.24132e-05 8.71332e-19 8.19823e-21 -6.65297e-16 0 6.28351e-26 0 5e-05 1.46608e-10 
86 1 0.38452 0.0190801 5.24517e-05 2.81057e-18 1.43498e-20 -2.14593e-15 0 -1.76093e-25 0 5e-05 1.46608e-10 
87 1 0.384401 0.0173066 5.22954e-05 2.24033e-18 7.32444e-21 -1.71051e-15 0 -7.84056e-26 0 5e-05 1.46608e-10 
88 1 0.384597 0.0181855 5.25521e-05 1.7976e-18 1.07667e-21 -1.37249e-15 0 1.07877e-26 0 5e-05 1.46608e-10 
89 1 0.383831 0.0209331 5.15494e-05 2.00508e-18 -1.62838e-22 -1.5309e-15 0 -5.51401e-26 0 5e-05 1.46608e-10 
90 1 0.384476 0.0180662 5.23935e-05 -2.83816e-19 2.57852e-20 2.16056e-16 0 0 0 5e-05 1.46608e-10 
91 1 0.384562 0.0161408 5.25065e-05 2.24034e-18 9.93188e-20 -1.71051e-15 -4.03897e-28 -1.77922e-24 0 5e-05 1.46608e-10 
92 1 0.383623 0.0181478 5.12773e-05 1.25417e-21 1.75341e-21 -4.52604e-20 0 0 0 5e-05 1.46608e-10 
93 1 0.384831 0.0190845 5.28587e-05 2.81056e-18 -5.36965e-21 -2.14593e-15 0 7.34829e-27 0 5e-05 1.46608e-10 
94 1 0.384215 0.0186925 5.20517e-05 -3.50189e-19 2.77263e-21 2.67382e-16 0 2.25922e-26 0 5e-05 1.46608e-10 
95 1 0.383676 0.018497 5.13469e-05 2.81051e-18 2.34519e-22 -2.14593e-15 0 6.06292e-27 0 5e-05 1.46608e-10 
96 1 0.385068 0.0173509 5.31688e-05 2.24035e-18 -3.10127e-21 -1.71052e-15 0 1.57412e-26 0 5e-05 1.46608e-10 
97 1 0.385082 0.0166964 5.31883e-05 2.24031e-18 -2.08711e-22 -1.71052e-15 0 5.56799e-27 0 5e-05 1.46608e-10 
98 1 0.384494 0.017574 5.24182e-05 -9.2053e-19 -2.02431e-22 7.02843e-16 0 -2.27425e-27 0 5e-05 1.46608e-10 
99 1 0.383876 0.0176099 0.000113825 5.27254e-20 1.74913e-20 -3.97544e-19 0 0 0 5e-05 1.46608e-10 
100 1 0.383701 0.0182111 5.13792e-05 1.7976e-18 5.79153e-22 -1.37251e-15 0 4.34231e-27 0 5e-05 1.46608e-10 
101 1 0.3839 0.0196686 5.16397e-05 -3.50211e-19 1.23611e-21 2.67381e-16 0 1.74707e-26 0 5e-05 1.46608e-10 
102 1 0.0643568 0.0187248 0.00531097 4.37177e-15 1.04932e-14 8.29552e-14 2.45559e-21 -1.01929e-21 1.13737e-23 5e-05 1.46608e-10 
103 1 0.230779 0.0182774 0.00551293 -5.39488e-15 6.60866e-15 4.46814e-14 6.00973e-22 5.57959e-22 -6.41065e-24 5e-05 1.46608e-10 
104 1 0.38388 0.0192583 5.16135e-05 2.8106e-18 -1.42804e-21 -2.14593e-15 0 2.95554e-26 0 5e-05 1.46608e-10 
105 1 0.384197 0.0178013 5.20291e-05 2.24036e-18 -1.31365e-21 -1.71052e-15 0 7.99573e-27 0 5e-05 1.46608e-10 
106 1 0.384064 0.01708 5.85246e-05 4.57923e-18 1.88532e-18 1.01289e-19 0 0 0 5e-05 1.46608e-10 
107 1 0.383991 0.0177466 5.17583e-05 -1.51441e-21 -2.02413e-22 -4.31321e-19 0 -2.58494e-26 0 5e-05 1.46608e-10 
108 1 0.383604 0.0189528 5.1252e-05 2.70569e-21 6.65105e-21 7.08695e-21 -1.29247e-26 0 0 5e-05 1.46608e-10 
109 1 0.383824 0.0193429 5.15405e-05 2.81054e-18 -4.98467e-22 -2.14593e-15 0 -4.9518e-27 0 5e-05 1.46608e-10 
110 1 0.384848 0.0181615 5.28813e-05 -2.83456e-19 7.48206e-22 2.16623e-16 0 0 0 5e-05 1.46608e-10 
111 1 0.383759 0.0180222 5.14545e-05 1.44306e-22 -7.11956e-21 -2.88721e-19 0 5.16988e-26 0 5e-05 1.46608e-10 
112 1 0.384668 0.0204846 5.26453e-05 2.00505e-18 -1.20399e-20 -1.5309e-15 0 -1.57994e-25 0 5e-05 1.46608e-10 
113 1 0.384006 0.0178482 5.17777e-05 1.01524e-19 2.23106e-20 -9.0299e-17 -2.58494e-26 0 0 5e-05 1.46608e-10 
114 1 0.385064 0.0164614 5.31641e-05 2.24032e-18 8.31707e-20 -1.71052e-15 4.03897e-28 -3.3785e-25 0 5e-05 1.46608e-10 
115 1 0.38433 0.0192224 5.22022e-05 2.81054e-18 -5.1154e-22 -2.14593e-15 0 1.36409e-25 0 5e-05 1.46608e-10 
116 1 0.384884 0.0180547 5.29282e-05 1.7976e-18 -1.34914e-21 -1.37249e-15 0 1.44739e-27 0 5e-05 1.46608e-10 
117 1 0.383529 0.0177712 0.00534448 4.12792e-18 -1.80377e-14 -5.94669e-14 -1.63389e-25 -5.16988e-26 0 5e-05 1.46608e-10 
118 1 0.384874 0.0171689 5.29154e-05 2.24035e-18 -5.11118e-21 -1.71052e-15 0 -1.92661e-25 0 5e-05 1.46608e-10 
119 1 0.383718 0.017918 5.14012e-05 -2.99695e-21 -4.1455e-21 5.43829e-19 2.58494e-26 0 -4.1359e-25 5e-05 1.46608e-10 
120 1 0.384613 0.0170491 5.25734e-05 2.24034e-18 -3.43535e-21 -1.71052e-15 0 -6.48552e-26 0 5e-05 1.46608e-10 
121 1 0.385676 0.0164514 5.39659e-05 1.45282e-18 5.67877e-21 -1.10923e-15 0 2.31813e-25 0 5e-05 1.46608e-10 
122 1 0.384725 0.0177988 5.27197e-05 1.79758e-18 -1.24402e-21 -1.37249e-15 0 -3.88517e-27 0 5e-05 1.46608e-10 
123 1 0.383915 0.0205035 5.16596e-05 8.71357e-19 -1.97012e-21 -6.65298e-16 0 -3.88322e-26 0 5e-05 1.46608e-10 
124 1 0.38514 0.0150589 5.32639e-05 -6.70538e-20 -7.58357e-21 5.11809e-17 0 6.89927e-25 0 5e-05 1.46608e-10 
125 1 0.384411 0.0182414 5.23096e-05 1.79759e-18 5.06835e-23 -1.37251e-15 0 9.09039e-32 0 5e-05 1.46608e-10 
127 1 0.384568 0.0171652 5.25152e-05 2.24035e-18 -1.39249e-22 -1.71052e-15 0 -2.07657e-27 0 5e-05 1.46608e-10 
128 1 0.384299 0.0176122 5.21628e-05 2.24032e-18 9.547e-23 -1.71051e-15 0 5.88466e-28 0 5e-05 1.46608e-10 
129 1 0.384156 0.0171195 5.19742e-05 1.65617e-20 -1.51906e-20 4.37534e-19 0 0 0 5e-05 1.46608e-10 
130 1 0.385036 0.0171379 5.31278e-05 2.24032e-18 -6.53869e-21 -1.71052e-15 0 2.78373e-25 0 5e-05 1.46608e-10 
131 1 0.38397 0.0175718 5.17312e-05 2.24036e-18 1.28059e-21 -1.71051e-15 0 7.95694e-27 0 5e-05 1.46608e-10 
132 1 0.385069 0.0180992 5.31713e-05 1.79759e-18 5.57662e-22 -1.37251e-15 0 2.93396e-27 0 5e-05 1.46608e-10 
133 1 0.384477 0.0187082 5.23958e-05 1.79762e-18 -3.59818e-22 -1.37251e-15 0 7.23607e-26 0 5e-05 1.46608e-10 
134 1 0.384249 0.0183505 5.20968e-05 8.57491e-20 -2.61864e-21 -6.55682e-17 5.16988e-26 -2.58494e-26 0 5e-05 1.46608e-10 
135 1 0.383899 0.019542 5.16388e-05 -3.50215e-19 -3.28114e-21 2.6738e-16 0 -7.10704e-26 0 5e-05 1.46608e-10 
136 1 0.384145 0.017899 5.19599e-05 1.39398e-19 1.14509e-21 -9.03135e-17 -5.16988e-26 0 0 5e-05 1.46608e-10 
137 1 0.383813 0.0198281 5.15254e-05 -3.50188e-19 4.94712e-22 2.67381e-16 0 3.35414e-26 0 5e-05 1.46608e-10 
138 1 0.384467 0.0171735 5.23827e-05 2.24031e-18 7.25413e-22 -1.71052e-15 0 1.3214e-26 0 5e-05 1.46608e-10 
140 1 0.384752 0.0179004 5.27554e-05 1.7976e-18 -4.61916e-21 -1.37249e-15 0 -2.49147e-26 0 5e-05 1.46608e-10 
141 1 0.38497 0.0181068 5.30405e-05 -5.31509e-19 -4.83415e-21 4.04658e-16 0 0 0 5e-05 1.46608e-10 
142 1 0.38496 0.0184888 5.30276e-05 1.79761e-18 -3.86782e-23 -1.37249e-15 0 -1.3343e-26 0 5e-05 1.46608e-10 
143 1 0.384762 0.0181437 0.000100712 -2.74361e-19 6.1206e-21 2.16619e-16 0 0 0 5e-05 1.46608e-10 
144 1 0.383431 0.0175376 0.00541532 1.06712e-17 -1.80377e-14 -5.94669e-14 -1.02416e-22 0 0 5e-05 1.46608e-10 
146 1 0.384977 0.0180356 0.000122854 -5.36517e-19 -4.79366e-22 4.04649e-16 -2.58494e-26 5.16988e-26 0 5e-05 1.46608e-10 
147 1 0.383614 0.0185748 5.12645e-05 -3.50221e-19 -4.16317e-21 2.67381e-16 0 -2.24912e-27 0 5e-05 1.46608e-10 
148 1 0.384112 0.0172175 5.19177e-05 2.24035e-18 7.12022e-22 -1.71051e-15 0 1.12899e-26 0 5e-05 1.46608e-10 
149 1 0.385015 0.0183005 5.30994e-05 1.79763e-18 7.96953e-23 -1.37251e-15 0 -8.05254e-27 0 5e-05 1.46608e-10 
150 1 0.384846 0.0192085 5.28787e-05 8.71386e-19 -3.89181e-21 -6.65297e-16 0 -3.4247e-27 0 5e-05 1.46608e-10 
151 1 0.384832 0.0188472 5.28603e-05 1.79759e-18 2.2312e-20 -1.37251e-15 0 -1.94134e-26 0 5e-05 1.46608e-10 
153 1 0.383898 0.0179255 0.00013754 1.31855e-17 -1.42278e-16 2.38856e-16 -4.20053e-26 0 0 5e-05 1.46608e-10 
154 1 0.383898 0.0181094 5.16374e-05 1.79759e-18 -2.66816e-23 -1.37251e-15 0 -3.25237e-28 0 5e-05 1.46608e-10 
155 1 0.384945 0.0179716 5.30077e-05 -5.31547e-19 -4.94564e-21 4.04653e-16 0 0 0 5e-05 1.46608e-10 
156 1 0.384147 0.0170045 5.19627e-05 -4.24729e-21 1.62954e-21 -1.71876e-18 0 1.29247e-26 0 5e-05 1.46608e-10 
157 1 0.0219312 0.0187687 0.00551176 -3.8291e-14 8.1697e-14 2.95885e-13 -8.21752e-22 -4.88192e-22 2.58494e-23 5e-05 1.46608e-10 
158 1 0.384399 0.017607 5.22938e-05 2.24034e-18 5.77166e-23 -1.71052e-15 0 -1.12597e-27 0 5e-05 1.46608e-10 
159 1 0.384201 0.0184387 5.20343e-05 1.79763e-18 -7.36971e-22 -1.37251e-15 0 -2.3114e-26 0 5e-05 1.46608e-10 
160 1 0.383571 0.0183829 0.000123314 -1.5007e-21 4.85387e-22 -9.00604e-22 0 0 3.23117e-27 5e-05 1.46608e-10 
162 1 0.384488 0.0195864 5.24091e-05 -3.50212e-19 -3.61077e-21 2.67381e-16 0 4.45175e-26 0 5e-05 1.46608e-10 
164 1 0.384755 0.0166629 5.27588e-05 -9.20536e-19 6.21368e-21 7.02843e-16 0 -7.46073e-26 0 5e-05 1.46608e-10 
165 1 0.383838 0.0177344 0.000130408 -1.1394e-19 4.23459e-20 -3.42582e-19 -5.16988e-26 -5.16988e-26 -6.20385e-25 5e-05 1.46608e-10 
166 1 0.383767 0.0192404 5.14661e-05 2.81056e-18 3.64673e-21 -2.14593e-15 0 3.88096e-26 0 5e-05 1.46608e-10 
167 1 0.384912 0.0178665 5.29654e-05 1.7976e-18 -4.55885e-22 -1.37251e-15 0 -3.7942e-26 0 5e-05 1.46608e-10 
168 1 0.384018 0.01725 5.17936e-05 2.24031e-18 -1.45193e-20 -1.71052e-15 0 1.35537e-25 0 5e-05 1.46608e-10 
169 1 0.384049 0.019854 5.18343e-05 -3.50184e-19 9.41299e-21 2.67382e-16 0 -6.0613e-26 0 5e-05 1.46608e-10 
170 1 0.383999 0.018436 5.17689e-05 1.79762e-18 1.26298e-21 -1.37251e-15 0 -7.50634e-26 0 5e-05 1.46608e-10 
171 1 0.384038 0.0188005 0.000119845 -9.13768e-20 7.0025e-21 7.49371e-17 0 0 0 5e-05 1.46608e-10 
172 1 0.384373 0.0180412 5.22591e-05 1.79759e-18 5.65235e-22 -1.37249e-15 0 4.08968e-27 0 5e-05 1.46608e-10 
173 1 0.384964 0.0172331 5.30331e-05 2.24032e-18 4.87733e-21 -1.71052e-15 0 -1.24067e-25 0 5e-05 1.46608e-10 
174 1 0.384622 0.0182827 5.25858e-05 1.79761e-18 -1.13529e-22 -1.37251e-15 -4.03897e-28 -9.92202e-27 0 5e-05 1.46608e-10 
176 1 0.383932 0.0176648 5.16808e-05 1.24028e-22 3.58226e-21 -3.97226e-19 0 0 0 5e-05 1.46608e-10 
177 1 0.38404 0.0185721 5.18234e-05 1.79759e-18 5.85865e-21 -1.37251e-15 0 3.13627e-26 0 5e-05 1.46608e-10 
178 1 0.384829 0.019706 5.28566e-05 8.71367e-19 4.0174e-22 -6.65297e-16 -4.03897e-28 2.20155e-27 0 5e-05 1.46608e-10 
179 1 0.384191 0.0191787 5.20202e-05 2.81054e-18 4.89598e-21 -2.14593e-15 0 -1.72148e-25 0 5e-05 1.46608e-10 
182 1 0.384115 0.018498 5.19211e-05 1.79758e-18 -6.25809e-22 -1.37249e-15 0 -4.95713e-27 0 5e-05 1.46608e-10 
183 1 0.384721 0.0202918 5.27147e-05 8.71381e-19 -3.81592e-22 -6.65297e-16 0 -5.3622e-27 0 5e-05 1.46608e-10 
184 1 0.384677 0.0179669 5.2657e-05 1.7976e-18 -1.31134e-21 -1.37249e-15 0 4.25204e-27 0 5e-05 1.46608e-10 
185 1 0.38458 0.01769 5.25298e-05 2.07316e-14 8.08537e-14 2.86131e-14 -7.6329e-19 -4.74436e-19 -4.3243e-19 5e-05 1.46608e-10 
186 1 0.38368 0.0195057 5.13522e-05 -3.50169e-19 7.18416e-21 2.67381e-16 0 -2.28879e-25 0 5e-05 1.46608e-10 
187 1 0.384427 0.0170821 5.23292e-05 -1.52388e-20 3.30593e-21 4.53859e-19 0 0 0 5e-05 1.46608e-10 
188 1 0.38383 0.0176734 5.15473e-05 -6.50277e-21 -5.80126e-21 -3.90402e-19 2.58494e-26 1.55096e-25 0 5e-05 1.46608e-10 
189 1 0.383918 0.017439 5.16628e-05 2.24034e-18 6.03942e-22 -1.71052e-15 0 4.47773e-27 0 5e-05 1.46608e-10 
190 1 0.383979 0.0193213 5.17425e-05 -3.50175e-19 -5.55276e-21 2.67381e-16 0 2.1837e-28 0 5e-05 1.46608e-10 
191 1 0.384646 0.017421 5.26161e-05 2.24034e-18 3.15635e-22 -1.71052e-15 4.03897e-28 9.38852e-27 0 5e-05 1.46608e-10 
192 1 0.384378 0.0175059 5.22658e-05 2.24034e-18 -1.1014e-21 -1.71052e-15 0 -6.64955e-26 0 5e-05 1.46608e-10 
193 1 0.384089 0.0190435 5.18871e-05 -3.50222e-19 1.38076e-21 2.67382e-16 0 -2.30828e-26 0 5e-05 1.46608e-10 
194 1 0.383653 0.019074 5.13159e-05 -4.05918e-21 4.4977e-21 -5.42201e-21 0 0 0 5e-05 1.46608e-10 
195 1 0.383846 0.0182168 5.15694e-05 1.79755e-18 5.48868e-22 -1.37249e-15 0 -3.67522e-27 0 5e-05 1.46608e-10 
196 1 0.384118 0.0180904 5.19255e-05 1.79762e-18 4.75613e-22 -1.37251e-15 -4.03897e-28 3.97705e-27 0 5e-05 1.46608e-10 
197 1 0.383944 0.0178123 0.000121771 -3.96412e-17 -2.28212e-17 -4.53774e-17 0 -5.16988e-26 0 5e-05 1.46608e-10 
198 1 0.383892 0.0185466 5.16296e-05 -3.50222e-19 2.14796e-21 2.67381e-16 0 -2.94904e-26 0 5e-05 1.46608e-10 
199 1 0.383899 0.0194311 5.16383e-05 2.81057e-18 -1.90482e-21 -2.14593e-15 0 1.06958e-25 0 5e-05 1.46608e-10 
200 1 0.385014 0.0178743 5.30989e-05 1.79761e-18 -3.6435e-21 -1.37249e-15 0 -8.06564e-26 0 5e-05 1.46608e-10 
201 1 0.384311 0.0181229 5.21786e-05 -2.81022e-19 2.43748e-22 2.16032e-16 0 0 0 5e-05 1.46608e-10 
202 1 0.38375 0.0179324 0.000175661 -1.74183e-19 -1.14234e-19 -2.22706e-21 1.03398e-25 0 -2.06795e-25 5e-05 1.46608e-10 
203 1 0.384564 0.0165956 5.2509e-05 2.24036e-18 -1.72245e-21 -1.71052e-15 0 2.89547e-26 0 5e-05 1.46608e-10 
204 1 0.38396 0.0190065 5.17177e-05 2.81056e-18 5.48176e-22 -2.14593e-15 0 6.54064e-28 0 5e-05 1.46608e-10 
206 1 0.384465 0.0168375 5.23795e-05 2.24031e-18 1.0546e-21 -1.71052e-15 0 -9.14401e-27 0 5e-05 1.46608e-10 
207 1 0.385175 0.0175512 5.33093e-05 1.79764e-18 5.18111e-21 -1.37251e-15 0 3.93172e-25 0 5e-05 1.46608e-10 
208 1 0.383584 0.0182412 5.12248e-05 1.40076e-21 2.7769e-21 2.29313e-20 -7.75482e-26 0 0 5e-05 1.46608e-10 
209 1 0.38493 0.0182425 5.29879e-05 3.50152e-19 2.35238e-21 -2.65995e-16 0 0 0 5e-05 1.46608e-10 
210 1 0.384351 0.0171769 5.22304e-05 2.24031e-18 1.73956e-21 -1.71051e-15 0 -5.86936e-25 0 5e-05 1.46608e-10 
211 1 0.383783 0.0177617 5.14859e-05 -1.37454e-21 -2.48056e-21 -2.63001e-19 5.16988e-26 2.58494e-26 0 5e-05 1.46608e-10 
212 1 0.384062 0.0199546 5.18516e-05 2.81054e-18 -6.38888e-21 -2.14593e-15 0 -4.06942e-26 0 5e-05 1.46608e-10 
213 1 0.384476 0.0184173 5.2394e-05 1.79757e-18 1.01382e-21 -1.37249e-15 0 3.0469e-26 0 5e-05 1.46608e-10 
214 1 0.38469 0.0169374 5.26743e-05 2.24035e-18 1.30377e-22 -1.71051e-15 0 -7.7695e-27 0 5e-05 1.46608e-10 
215 1 0.384121 0.0182994 5.19287e-05 1.79758e-18 1.89221e-22 -1.37249e-15 0 -4.2188e-27 0 5e-05 1.46608e-10 
216 1 0.384245 0.017708 5.20916e-05 2.24033e-18 -8.52409e-21 -1.71052e-15 0 -1.15881e-25 0 5e-05 1.46608e-10 
217 1 0.384064 0.0191417 5.1854e-05 -3.5017e-19 -9.14216e-23 2.67382e-16 0 9.49203e-28 0 5e-05 1.46608e-10 
218 1 0.384457 0.017909 5.23695e-05 1.79761e-18 2.17261e-24 -1.37251e-15 -4.03897e-28 -8.34502e-28 0 5e-05 1.46608e-10 
219 1 0.384944 0.0197441 5.30067e-05 8.71343e-19 4.89851e-22 -6.65297e-16 0 6.79302e-27 0 5e-05 1.46608e-10 
220 1 0.383696 0.018399 5.13731e-05 -1.3611e-20 7.39773e-21 1.49945e-20 0 0 0 5e-05 1.46608e-10 
222 1 0.384799 0.0201778 5.28171e-05 8.71332e-19 2.21492e-20 -6.65297e-16 0 -7.82982e-27 0 5e-05 1.46608e-10 
224 1 0.384494 0.0174269 5.24173e-05 2.24033e-18 2.38082e-21 -1.71052e-15 -4.03897e-28 -5.44933e-26 0 5e-05 1.46608e-10 
225 1 0.385146 0.0176526 5.3272e-05 1.79759e-18 2.9653e-23 -1.37251e-15 0 -6.2618e-26 0 5e-05 1.46608e-10 
226 1 0.384104 0.018398 5.1907e-05 1.79761e-18 5.48937e-23 -1.37251e-15 0 -1.00996e-30 0 5e-05 1.46608e-10 
227 1 0.383688 0.0179861 0.000118273 1.14518e-19 -3.23969e-19 2.59744e-19 0 0 2.06795e-25 5e-05 1.46608e-10 
228 1 0.383956 0.018209 5.17134e-05 1.7976e-18 -1.57435e-21 -1.37249e-15 0 3.05867e-26 0 5e-05 1.46608e-10 
229 1 0.383699 0.0187044 5.13766e-05 -6.90086e-19 -1.17969e-21 5.27391e-16 0 0 0 5e-05 1.46608e-10 
230 1 0.384584 0.0183818 5.25351e-05 1.79763e-18 -2.11137e-22 -1.37251e-15 -4.03897e-28 -9.36391e-27 0 5e-05 1.46608e-10 
232 1 0.384362 0.0190848 5.22448e-05 -3.50219e-19 -3.34015e-21 2.67381e-16 0 7.13485e-26 0 5e-05 1.46608e-10 
233 1 0.384256 0.0171177 5.21052e-05 -1.49652e-20 5.57143e-21 4.32228e-19 0 5.16988e-26 0 5e-05 1.46608e-10 
234 1 0.383811 0.0178578 5.15218e-05 1.35315e-20 -1.55031e-20 -2.60435e-19 2.06795e-25 5.16988e-26 0 5e-05 1.46608e-10 
235 1 0.384124 0.0177325 5.19334e-05 1.199e-19 -6.62325e-21 -9.02805e-17 0 0 0 5e-05 1.46608e-10 
236 1 0.385085 0.017804 5.3192e-05 1.79756e-18 4.64559e-22 -1.37249e-15 0 -1.02807e-27 0 5e-05 1.46608e-10 
237 1 0.384023 0.0180557 5.18008e-05 1.79755e-18 1.23573e-22 -1.37249e-15 0 1.44965e-27 0 5e-05 1.46608e-10 
239 1 0.38421 0.017017 0.000128507 8.9217e-19 -2.1473e-19 -6.09369e-19 0 6.46235e-27 0 5e-05 1.46608e-10 
240 1 0.384108 0.0176224 5.19122e-05 6.78374e-21 2.74582e-21 -4.27858e-19 1.03398e-25 -5.16988e-26 0 5e-05 1.46608e-10 
241 1 0.384924 0.0176585 5.29803e-05 1.79762e-18 1.67242e-22 -1.37251e-15 0 -6.12557e-26 0 5e-05 1.46608e-10 
242 1 0.385388 0.0170488 5.35891e-05 1.45282e-18 8.79192e-21 -1.10924e-15 0 -4.21093e-25 0 5e-05 1.46608e-10 
243 1 0.38396 0.0173391 5.17184e-05 2.24032e-18 9.80968e-24 -1.71052e-15 0 -3.56024e-27 0 5e-05 1.46608e-10 
244 1 0.383851 0.0186443 5.15749e-05 -3.50173e-19 2.30946e-22 2.67382e-16 0 1.25203e-27 0 5e-05 1.46608e-10 
246 1 0.385125 0.016896 5.32444e-05 2.24033e-18 1.80669e-21 -1.71052e-15 4.03897e-28 -3.43419e-26 0 5e-05 1.46608e-10 
248 1 0.383834 0.0184534 5.15531e-05 -3.50223e-19 2.19311e-21 2.67381e-16 0 -2.41975e-26 0 5e-05 1.46608e-10 
249 1 0.386067 0.0153632 5.44775e-05 1.45281e-18 1.18468e-23 -1.10923e-15 0 5.06359e-27 0 5e-05 1.46608e-10 
250 1 0.383281 0.0166575 0.00842036 -2.75968e-05 -0.00322856 0.00362861 -3.03097e-13 1.95692e-10 -1.5388e-10 5e-05 1.46608e-10 
251 1 0.384572 0.0174895 5.25197e-05 -8.35029e-15 2.34311e-15 1.18547e-15 -6.54477e-20 1.83541e-20 -9.90549e-23 5e-05 1.46608e-10 
252 1 0.384889 0.0183235 9.50979e-05 3.51054e-19 3.51005e-21 -2.65993e-16 1.29247e-26 0 0 5e-05 1.46608e-10 
253 1 0.383571 0.018535 0.00522286 -7.98398e-15 2.53761e-14 1.31295e-13 -5.55762e-25 3.10193e-25 -2.06795e-25 5e-05 1.46608e-10 
254 1 0.384301 0.0172952 5.21647e-05 2.24031e-18 2.45306e-22 -1.71052e-15 0 9.4969e-26 0 5e-05 1.46608e-10 
255 1 0.38386 0.0190057 5.15867e-05 -3.50198e-19 -5.32274e-21 2.67381e-16 0 6.30015e-26 0 5e-05 1.46608e-10 
256 1 0.383997 0.0204249 5.17662e-05 8.71363e-19 8.11959e-22 -6.65297e-16 -4.03897e-28 -1.56616e-26 0 5e-05 1.46608e-10 
257 1 0.385041 0.0180031 5.31334e-05 -5.2893e-19 -5.33397e-22 4.04648e-16 2.58494e-26 -2.58494e-26 0 5e-05 1.46608e-10 
258 1 0.384272 0.0170005 5.21271e-05 1.01106e-20 -8.20288e-21 4.49695e-19 5.16988e-26 7.75482e-26 0 5e-05 1.46608e-10 
259 1 0.384253 0.0166268 5.21024e-05 -9.20536e-19 -1.39185e-21 7.02844e-16 0 3.11426e-26 0 5e-05 1.46608e-10 
260 1 0.385186 0.0206932 5.33243e-05 -2.31213e-19 9.02618e-21 1.76521e-16 0 1.22335e-25 0 5e-05 1.46608e-10 
261 1 0.38441 0.0181414 5.23073e-05 -2.92665e-19 8.11862e-21 2.16037e-16 5.16988e-26 0 0 5e-05 1.46608e-10 
262 1 0.383808 0.0179475 9.56896e-05 2.24224e-20 -5.32993e-20 -2.68871e-19 0 -7.75482e-26 2.06795e-25 5e-05 1.46608e-10 
263 1 0.385136 0.0154015 5.32589e-05 1.45286e-18 -4.44306e-21 -1.10923e-15 0 6.5422e-26 0 5e-05 1.46608e-10 
264 1 0.384094 0.0178206 8.84889e-05 1.33512e-19 -2.91186e-20 -9.02803e-17 0 -5.16988e-26 0 5e-05 1.46608e-10 
265 1 0.383903 0.018864 5.16441e-05 2.81057e-18 4.23809e-24 -2.14593e-15 0 -2.22464e-29 0 5e-05 1.46608e-10 
266 1 0.384739 0.0172129 5.27388e-05 -9.20552e-19 1.27821e-21 7.02843e-16 4.03897e-28 -1.81889e-26 0 5e-05 1.46608e-10 
268 1 0.387501 0.0145625 5.63555e-05 -6.70068e-20 -2.66339e-21 5.11804e-17 0 -8.20872e-26 0 5e-05 1.46608e-10 
269 1 0.384702 0.0182078 5.26903e-05 -2.8889e-19 -6.92002e-21 2.16617e-16 0 0 0 5e-05 1.46608e-10 
270 1 0.383998 0.0187387 5.17683e-05 -9.70709e-20 1.35308e-21 7.49404e-17 0 0 0 5e-05 1.46608e-10 
271 1 0.38456 0.0198571 5.2504e-05 8.71374e-19 9.00465e-21 -6.65297e-16 0 -6.95875e-25 0 5e-05 1.46608e-10 
272 1 0.384323 0.0183113 0.000107218 9.40716e-20 -1.54547e-20 -6.55678e-17 -5.16988e-26 2.58494e-26 0 5e-05 1.46608e-10 
273 1 0.384247 0.0174825 5.20942e-05 -9.20548e-19 -2.16779e-21 7.02843e-16 0 -1.00128e-25 0 5e-05 1.46608e-10 
274 1 0.38379 0.0183625 5.14951e-05 1.7976e-18 2.30149e-23 -1.37251e-15 0 3.43963e-28 0 5e-05 1.46608e-10 
275 1 0.384335 0.0170692 8.94554e-05 1.94468e-20 -6.44978e-21 4.35061e-19 0 2.58494e-26 2.06795e-25 5e-05 1.46608e-10 
276 1 0.384997 0.0161341 5.30769e-05 2.24037e-18 -6.71504e-20 -1.71052e-15 0 4.73933e-26 0 5e-05 1.46608e-10 
278 1 0.384825 0.018259 5.28512e-05 3.47292e-19 -1.85381e-21 -2.65994e-16 2.58494e-26 0 0 5e-05 1.46608e-10 
279 1 0.384252 0.0210736 5.21011e-05 2.00506e-18 3.26917e-22 -1.5309e-15 0 4.83156e-27 0 5e-05 1.46608e-10 
280 1 0.383599 0.0190252 0.000120033 -7.01232e-21 -1.49831e-22 -2.51689e-22 0 1.9387e-26 5.16988e-26 5e-05 1.46608e-10 
281 1 0.384805 0.0186896 5.28247e-05 1.7976e-18 -8.28011e-23 -1.37249e-15 0 -9.01603e-26 0 5e-05 1.46608e-10 
283 1 0.383797 0.0177162 0.000219802 -2.81502e-19 -1.04453e-19 7.85311e-22 5.16988e-26 -6.46235e-26 -6.46235e-27 5e-05 1.46608e-10 
284 1 0.383576 0.0182495 0.000150621 1.30593e-20 6.96421e-21 -4.44982e-22 0 5.16988e-26 0 5e-05 1.46608e-10 
285 1 0.384577 0.0172681 5.25269e-05 2.24035e-18 9.39841e-21 -1.71051e-15 0 -7.99784e-26 0 5e-05 1.46608e-10 
286 1 0.383757 0.0185573 5.14518e-05 -3.50204e-19 1.2392e-22 2.67382e-16 0 -7.58671e-27 0 5e-05 1.46608e-10 
287 1 0.384957 0.0177572 5.30246e-05 1.7976e-18 -2.04398e-21 -1.37251e-15 4.03897e-28 -3.22687e-26 0 5e-05 1.46608e-10 
288 1 0.383954 0.0183132 5.17102e-05 1.79759e-18 2.72496e-21 -1.37249e-15 0 9.51216e-26 0 5e-05 1.46608e-10 
289 1 0.384537 0.0180461 0.000128511 -5.58516e-20 2.35126e-21 2.16342e-16 0 -2.58494e-26 0 5e-05 1.46608e-10 
290 1 0.384346 0.0178493 5.22233e-05 1.79757e-18 8.55101e-22 -1.37249e-15 0 1.14644e-27 0 5e-05 1.46608e-10 
291 1 0.383806 0.0207438 5.15163e-05 2.00505e-18 -1.09888e-21 -1.5309e-15 0 8.28319e-29 0 5e-05 1.46608e-10 
292 1 0.384812 0.0169702 5.28343e-05 2.24033e-18 4.25439e-22 -1.71051e-15 0 -4.81081e-27 0 5e-05 1.46608e-10 
293 1 0.383927 0.0199158 5.1675e-05 2.81058e-18 -8.90925e-22 -2.14593e-15 -4.03897e-28 -4.71635e-27 0 5e-05 1.46608e-10 
294 1 0.383957 0.0186367 5.17142e-05 2.81057e-18 -5.89884e-21 -2.14593e-15 0 -6.88478e-26 0 5e-05 1.46608e-10 
295 1 0.384861 0.0185948 5.28981e-05 1.79756e-18 -2.14207e-21 -1.37249e-15 0 2.27087e-26 0 5e-05 1.46608e-10 
296 1 0.385006 0.0184002 5.30883e-05 1.79759e-18 1.4135e-21 -1.37249e-15 4.03897e-28 1.16483e-26 0 5e-05 1.46608e-10 
297 1 0.383629 0.01881 5.12843e-05 -6.91671e-19 8.11215e-22 5.27383e-16 -9.69352e-27 5.16988e-26 0 5e-05 1.46608e-10 
298 1 0.384024 0.0176603 8.98669e-05 1.14629e-20 3.26026e-20 -4.19135e-19 -5.16988e-26 1.03398e-25 0 5e-05 1.46608e-10 
299 1 0.383643 0.018743 0.000124216 -6.87307e-19 -1.10704e-20 5.27385e-16 2.58494e-26 0 0 5e-05 1.46608e-10 
300 1 0.384681 0.0189793 5.2662e-05 -3.50171e-19 -4.26694e-21 2.67381e-16 0 2.11824e-26 0 5e-05 1.46608e-10 
