ITEM: TIMESTEP
13200000
ITEM: NUMBER OF ATOMS
287
ITEM: BOX BOUNDS ff ff ff
-0.02 0.43
-0.02 0.06
-0.02 0.07
ITEM: ATOMS id type x y z vx vy vz fx fy fz radius mass 
1 1 0.0897813 0.0162357 0.00784413 0.00576883 -0.000144218 0.000313383 -8.46269e-11 -1.26418e-12 2.94285e-11 5e-05 1.46608e-10 
2 1 0.0904037 0.0177597 0.00704215 0.00565647 -0.000177904 -0.000222655 1.91233e-10 -2.01861e-10 4.84403e-11 5e-05 1.46608e-10 
3 1 0.0836466 0.0160569 0.00796202 0.00580264 0.000146728 0.000158523 6.01734e-11 7.63211e-11 -1.64956e-10 5e-05 1.46608e-10 
4 1 0.0901092 0.0176576 0.00710848 0.00556479 -0.000385444 -0.000120348 3.18507e-11 -2.37502e-11 -7.00858e-12 5e-05 1.46608e-10 
5 1 0.0896434 0.0160383 0.00796076 0.0057097 -0.000148615 0.000308504 1.11156e-10 -5.91161e-11 8.87877e-11 5e-05 1.46608e-10 
6 1 0.0957935 0.0166544 0.00757986 0.00554325 -0.000162461 0.000322016 1.89047e-11 -9.38991e-12 3.77468e-11 5e-05 1.46608e-10 
7 1 0.0898261 0.0168113 0.00753899 0.00547488 -0.00032981 -0.000159744 3.8854e-10 -1.82091e-10 5.31078e-11 5e-05 1.46608e-10 
8 1 0.0895441 0.0157624 0.00836395 0.00612314 -0.000301426 0.000155747 -2.64197e-10 -6.63941e-10 3.98374e-10 5e-05 1.46608e-10 
9 1 0.0960446 0.0178067 0.00708607 0.00554162 -0.000309116 9.46425e-05 4.59794e-13 8.57836e-13 -2.15287e-13 5e-05 1.46608e-10 
10 1 0.0897663 0.0165487 0.00767106 0.00566552 -0.000338329 -2.80429e-05 1.8051e-11 2.48479e-10 9.37518e-11 5e-05 1.46608e-10 
11 1 0.0903094 0.0177141 0.00706971 0.00562339 -0.000282641 -0.00017601 2.42294e-10 -1e-10 2.99781e-11 5e-05 1.46608e-10 
12 1 0.083828 0.0168313 0.00755457 0.00543043 -4.48936e-05 -0.000283394 -1.22899e-11 -1.39919e-10 7.15598e-11 5e-05 1.46608e-10 
13 1 0.0896264 0.0159738 0.00803529 0.00571656 -0.000185609 0.000265613 9.78408e-11 -9.65327e-11 1.21638e-10 5e-05 1.46608e-10 
14 1 0.0835679 0.0157914 0.00825061 0.00622233 6.28635e-05 0.000262654 1.80208e-10 -6.24107e-12 2.4041e-11 5e-05 1.46608e-10 
15 1 0.0899845 0.017107 0.00738484 0.00544187 -0.0003505 -0.000129828 1.02129e-10 -2.06742e-11 7.6053e-12 5e-05 1.46608e-10 
16 1 0.0835462 0.0157252 0.00832239 0.0061925 5.27849e-05 0.000273395 -6.31282e-11 -3.55457e-11 1.41061e-11 5e-05 1.46608e-10 
17 1 0.0897459 0.0164617 0.00771587 0.00575245 -0.000291278 9.47386e-05 4.7888e-11 1.83275e-10 6.5036e-12 5e-05 1.46608e-10 
18 1 0.0959272 0.0172354 0.00722662 0.00555173 -0.000283336 0.00021651 2.12609e-12 7.32222e-13 -9.9236e-13 5e-05 1.46608e-10 
19 1 0.0896064 0.0159138 0.00811271 0.00570795 -0.000295825 0.000169438 1.03648e-10 2.86718e-10 7.95345e-11 5e-05 1.46608e-10 
21 1 0.0897607 0.0161519 0.00789512 0.0057368 -0.000144555 0.000311752 -4.81696e-11 8.42962e-11 -2.66436e-11 5e-05 1.46608e-10 
22 1 0.0898654 0.0169876 0.00745315 0.00540929 -0.00032986 -0.000168298 1.59016e-10 -6.00607e-11 2.31055e-11 5e-05 1.46608e-10 
23 1 0.0839616 0.0170387 0.00745917 0.00547925 -5.93642e-05 -0.000282281 -8.564e-11 -8.34403e-11 3.62435e-11 5e-05 1.46608e-10 
24 1 0.0959857 0.0175213 0.00715748 0.00556401 -0.000312805 9.56214e-05 7.00513e-13 6.69676e-13 -1.57097e-13 5e-05 1.46608e-10 
25 1 0.0898061 0.0167235 0.00758241 0.00550866 -0.000342657 -0.000143956 5.08331e-10 -1.59558e-10 7.33592e-11 5e-05 1.46608e-10 
26 1 0.0958704 0.0169699 0.00734642 0.00560944 -0.000398644 4.22874e-05 -6.12937e-12 1.2915e-12 1.43942e-12 5e-05 1.46608e-10 
27 1 0.0839887 0.0173774 0.0074093 0.00550469 -6.24419e-05 -0.000279974 4.42173e-11 -1.59799e-11 -8.13594e-12 5e-05 1.46608e-10 
28 1 0.090085 0.0175473 0.0071638 0.00553609 -0.000375557 -0.000123447 -6.6177e-11 -1.1857e-10 3.16819e-11 5e-05 1.46608e-10 
29 1 0.0895864 0.0158599 0.00819458 0.00615313 -0.000361052 0.000201909 -1.14984e-10 1.78902e-10 -5.26529e-10 5e-05 1.46608e-10 
30 1 0.0900446 0.0173723 0.0072517 0.00551945 -0.000363112 -0.000129326 5.33756e-12 -7.58479e-11 2.89237e-11 5e-05 1.46608e-10 
31 1 0.0898458 0.0168995 0.00749602 0.00540566 -0.000317711 -0.000178063 1.24435e-10 -1.34201e-10 -4.37792e-12 5e-05 1.46608e-10 
32 1 0.0899655 0.0170189 0.00742902 0.00542403 -0.000358939 -0.000131308 2.4406e-11 -1.07008e-11 -3.51743e-11 5e-05 1.46608e-10 
33 1 0.0958124 0.0167314 0.00751892 0.00556135 -0.000389661 3.75409e-05 4.39195e-13 -1.25467e-11 -2.2078e-11 5e-05 1.46608e-10 
34 1 0.0897255 0.0163759 0.00776307 0.00576362 -0.000198586 0.000261133 -2.23986e-11 1.43456e-10 -9.65038e-12 5e-05 1.46608e-10 
35 1 0.0899456 0.0169313 0.00747298 0.00539725 -0.000344633 -0.000131653 2.77743e-10 2.21175e-11 -5.96931e-11 5e-05 1.46608e-10 
36 1 0.0960838 0.0179969 0.00703846 0.0055271 -0.000306533 9.39499e-05 -4.55502e-13 4.35728e-14 -1.66133e-14 5e-05 1.46608e-10 
37 1 0.0899064 0.0167559 0.00756098 0.00549899 -0.000286833 -0.000164633 1.64035e-10 -1.39325e-10 3.60237e-11 5e-05 1.46608e-10 
38 1 0.0901027 0.0172252 0.00732045 0.00548612 -0.000361628 -0.000127691 -1.48264e-11 -1.84008e-10 9.39524e-11 5e-05 1.46608e-10 
39 1 0.0960053 0.0176165 0.00713367 0.00555594 -0.000311516 9.52904e-05 6.49149e-14 8.26981e-13 -2.23842e-13 5e-05 1.46608e-10 
41 1 0.0896844 0.0162055 0.00785907 0.00573313 -0.0001514 0.000316953 7.24635e-11 6.22377e-11 -9.01482e-11 5e-05 1.46608e-10 
42 1 0.089885 0.0170739 0.00740656 0.00544002 -0.00033199 -0.00014207 -1.03391e-11 -2.48619e-11 4.84607e-11 5e-05 1.46608e-10 
44 1 0.0901213 0.017313 0.00727642 0.00551355 -0.000371928 -0.000123751 -3.94388e-11 -8.54838e-11 2.7897e-11 5e-05 1.46608e-10 
45 1 0.0958317 0.0168109 0.00746142 0.00559566 -0.000395647 4.12952e-05 2.42601e-11 3.61667e-12 -1.00206e-11 5e-05 1.46608e-10 
46 1 0.0959078 0.0171394 0.00724722 0.00556442 -0.000285786 0.000217484 5.23735e-13 -7.8363e-13 1.82587e-12 5e-05 1.46608e-10 
47 1 0.0897048 0.0162891 0.00780819 0.00575053 -0.000155255 0.000325513 1.62722e-11 1.17857e-10 -1.79023e-11 5e-05 1.46608e-10 
48 1 0.0899235 0.0172493 0.00731858 0.00546607 -0.000342455 -0.000134299 6.15142e-12 -8.45124e-11 2.30933e-11 5e-05 1.46608e-10 
49 1 0.0958889 0.0170537 0.00729508 0.00558063 -0.00033886 0.000128989 -5.98163e-12 -1.7197e-12 9.27164e-14 5e-05 1.46608e-10 
50 1 0.0899818 0.017513 0.00718799 0.0055298 -0.000360513 -0.000131163 -9.25743e-11 -1.29011e-10 1.35676e-10 5e-05 1.46608e-10 
51 1 0.0899622 0.0174247 0.00723061 0.00552107 -0.000358853 -0.000132371 -9.66974e-12 -1.21378e-10 1.13678e-10 5e-05 1.46608e-10 
52 1 0.0838081 0.0167414 0.00759374 0.00540442 -3.91744e-05 -0.000286292 -1.04966e-10 -1.22534e-10 4.64204e-11 5e-05 1.46608e-10 
53 1 0.0959466 0.0173311 0.0072051 0.00557107 -0.000314365 9.60834e-05 2.76224e-13 1.57177e-12 8.61022e-13 5e-05 1.46608e-10 
54 1 0.089739 0.0160671 0.00794668 0.00573393 -0.000131325 0.000303964 -1.9485e-12 -1.0178e-10 7.09699e-11 5e-05 1.46608e-10 
55 1 0.0836086 0.015924 0.00810654 0.00582878 0.000128882 0.000166246 5.68541e-11 -6.56229e-11 -7.26054e-11 5e-05 1.46608e-10 
56 1 0.089926 0.0168436 0.00751698 0.00541419 -0.000266127 -0.00017871 -2.90828e-11 -3.98725e-10 1.88638e-10 5e-05 1.46608e-10 
57 1 0.0958508 0.0168905 0.00740389 0.00563032 -0.000402581 4.45251e-05 -3.5776e-12 1.10548e-12 -5.55071e-12 5e-05 1.46608e-10 
59 1 0.0900094 0.0167924 0.00753744 0.00546477 -0.000221247 -0.000195222 -1.28149e-10 -1.08442e-10 4.59078e-11 5e-05 1.46608e-10 
60 1 0.0900308 0.0168826 0.0074921 0.00542404 -0.000309657 -0.000147927 1.73596e-10 -2.29784e-10 6.93161e-11 5e-05 1.46608e-10 
61 1 0.0896639 0.0161228 0.00791147 0.00571667 -0.000149445 0.000316218 9.38129e-11 6.66153e-12 -4.52414e-12 5e-05 1.46608e-10 
62 1 0.0901419 0.0174017 0.00723188 0.00551633 -0.000382412 -0.00011948 3.03818e-11 -5.73055e-11 7.86473e-11 5e-05 1.46608e-10 
63 1 0.090044 0.0175539 0.00725476 0.0055167 -0.000370923 -0.000121686 7.18742e-11 6.66823e-12 8.27984e-11 5e-05 1.46608e-10 
64 1 0.0959661 0.0174262 0.00718128 0.00557033 -0.000314294 9.6037e-05 3.54607e-13 7.95358e-13 2.70322e-13 5e-05 1.46608e-10 
65 1 0.0840489 0.0177197 0.00725932 0.00561588 -0.000144594 -0.000235466 -1.63807e-10 -1.12826e-10 1.18702e-10 5e-05 1.46608e-10 
66 1 0.0840848 0.0174007 0.0073946 0.00550361 -6.05917e-05 -0.000278498 8.32148e-11 -1.09876e-11 9.46172e-12 5e-05 1.46608e-10 
67 1 0.0902795 0.0176169 0.00711894 0.00565623 -0.000280813 -0.000177215 -2.06262e-10 1.93986e-10 -3.07381e-11 5e-05 1.46608e-10 
68 1 0.0901771 0.0175903 0.00713764 0.0055693 -0.00038128 -0.000122519 -3.1054e-11 -6.13178e-11 1.8502e-11 5e-05 1.46608e-10 
69 1 0.089846 0.0164938 0.0076964 0.00584882 -0.000198112 -0.00021133 -9.32558e-11 9.08191e-11 -9.31857e-10 5e-05 1.46608e-10 
70 1 0.096025 0.0177116 0.00710987 0.00554888 -0.000310321 9.49698e-05 -1.44289e-13 6.92573e-13 -1.71422e-13 5e-05 1.46608e-10 
71 1 0.0835887 0.0158577 0.00817866 0.00578886 0.00012977 0.000168944 -1.88313e-10 -9.66324e-12 -1.47251e-11 5e-05 1.46608e-10 
72 1 0.0901627 0.0174891 0.00718796 0.00552865 -0.000383831 -0.000116678 6.16481e-11 -5.52385e-11 -8.76493e-12 5e-05 1.46608e-10 
73 1 0.0897861 0.0166363 0.00762714 0.00552923 -0.000339451 -0.000107834 9.71647e-11 9.49971e-11 6.01318e-11 5e-05 1.46608e-10 
74 1 0.0900042 0.0171946 0.00734087 0.00545427 -0.000352702 -0.000128287 -2.00071e-11 -1.08799e-10 8.20041e-11 5e-05 1.46608e-10 
76 1 0.0840993 0.0176679 0.00718485 0.00551797 -0.000239791 -0.000210347 -5.60418e-11 6.1942e-11 -1.95719e-11 5e-05 1.46608e-10 
77 1 0.0901848 0.0182071 0.00699253 0.00592148 -0.00045506 0.000280387 1.90195e-10 -2.12674e-10 -1.83291e-11 5e-05 1.46608e-10 
78 1 0.083667 0.0161273 0.00789401 0.00576908 1.63482e-05 4.72619e-06 -8.81824e-11 -1.67365e-10 -2.8832e-10 5e-05 1.46608e-10 
79 1 0.0839571 0.0171233 0.00751689 0.0054782 -1.5099e-05 -0.00028935 4.29278e-11 6.83297e-12 8.22599e-11 5e-05 1.46608e-10 
80 1 0.090037 0.0177617 0.00706156 0.00558918 -0.000357308 -0.000120177 -3.46831e-11 -6.11538e-11 -4.60014e-11 5e-05 1.46608e-10 
81 1 0.0838755 0.0170772 0.00755174 0.00546457 4.38844e-06 -0.000283254 5.5884e-12 -3.68831e-11 8.18598e-11 5e-05 1.46608e-10 
82 1 0.0838865 0.017101 0.007437 0.0054933 -4.69857e-05 -0.000288356 -2.82611e-11 -4.46931e-11 2.09469e-11 5e-05 1.46608e-10 
83 1 0.0839976 0.0167965 0.00755977 0.0054027 -7.9834e-05 -0.00026933 9.75343e-11 3.36896e-11 -2.41049e-11 5e-05 1.46608e-10 
84 1 0.0960642 0.0179018 0.00706226 0.00553439 -0.000307844 9.4302e-05 -3.17234e-13 6.13525e-13 -1.5539e-13 5e-05 1.46608e-10 
85 1 0.0837814 0.0162296 0.00781209 0.00589722 -9.32043e-05 -0.000290719 7.86998e-11 -1.08134e-10 -7.35459e-11 5e-05 1.46608e-10 
86 1 0.0900642 0.0174599 0.00720772 0.00552656 -0.000369158 -0.000125885 4.9941e-11 -8.18994e-11 2.30273e-11 5e-05 1.46608e-10 
87 1 0.0899898 0.0167047 0.00758142 0.00546965 -0.000288029 -0.00016168 1.85367e-10 8.48892e-11 -6.83806e-11 5e-05 1.46608e-10 
88 1 0.0900959 0.0180391 0.00696473 0.00560164 -0.000177626 0.000305406 -9.31534e-12 2.29842e-10 -2.71142e-11 5e-05 1.46608e-10 
89 1 0.0900578 0.0178519 0.00702382 0.00556623 -0.000297701 -4.78333e-06 7.85117e-11 5.12001e-11 -2.35861e-10 5e-05 1.46608e-10 
90 1 0.0903755 0.0176454 0.00709969 0.00566332 -0.0002636 -0.000186679 1.84807e-10 -3.21633e-10 1.23857e-10 5e-05 1.46608e-10 
91 1 0.0838475 0.0169212 0.00751538 0.00544415 -3.7043e-05 -0.000286869 -6.68507e-11 -1.19721e-10 8.74916e-11 5e-05 1.46608e-10 
92 1 0.0902367 0.0177773 0.00704282 0.00558678 -0.00030549 -0.000156463 -9.17659e-11 -2.85934e-10 7.9015e-11 5e-05 1.46608e-10 
93 1 0.0901856 0.0180189 0.00700408 0.00557521 -0.000404237 0.000295078 -2.04064e-10 -2.37972e-10 5.94427e-11 5e-05 1.46608e-10 
94 1 0.0903112 0.0180894 0.00698398 0.00570295 -0.000607158 0.000250746 2.6017e-11 -6.47084e-11 3.00301e-11 5e-05 1.46608e-10 
95 1 0.0900221 0.0176977 0.00713694 0.00557137 -0.000370297 -0.000125823 2.3439e-11 -1.09157e-10 7.9964e-11 5e-05 1.46608e-10 
96 1 0.0902717 0.0178976 0.00698204 0.00537403 -0.000546082 -2.88055e-05 -3.05942e-10 -2.87776e-10 7.61636e-11 5e-05 1.46608e-10 
97 1 0.0837682 0.0165618 0.00767209 0.00545781 -5.81923e-05 -0.00028156 -1.5394e-10 -1.03713e-10 4.74129e-11 5e-05 1.46608e-10 
98 1 0.0901158 0.018136 0.00697923 0.00565362 -0.000190364 0.000364587 -1.83731e-10 2.89661e-10 6.80065e-11 5e-05 1.46608e-10 
99 1 0.0840716 0.0174945 0.00736231 0.0055205 -5.96862e-05 -0.000282873 1.56903e-10 -7.14504e-12 -2.38162e-11 5e-05 1.46608e-10 
100 1 0.0902179 0.0173418 0.007257 0.00551688 -0.000385932 -0.000117136 6.79812e-11 7.68498e-12 -2.36323e-12 5e-05 1.46608e-10 
101 1 0.0838938 0.0169828 0.00757909 0.00544737 -1.74402e-05 -0.000289496 -1.27263e-10 -3.6969e-11 1.32532e-10 5e-05 1.46608e-10 
102 1 0.0643568 0.0187248 0.00531097 4.19776e-15 1.05899e-14 8.29521e-14 -8.76876e-22 7.76361e-22 -4.67357e-23 5e-05 1.46608e-10 
103 1 0.24257 0.0191927 0.00520306 1.4124e-22 -1.27651e-22 1.23839e-22 0 0 0 5e-05 1.46608e-10 
104 1 0.084115 0.017336 0.0073246 0.0055082 -6.50614e-05 -0.000279995 6.95553e-11 -7.28246e-12 -4.15388e-12 5e-05 1.46608e-10 
105 1 0.0837277 0.0163823 0.00775042 0.005697 -0.000109918 -0.000267503 1.48405e-10 -8.94881e-11 1.88192e-11 5e-05 1.46608e-10 
106 1 0.0841902 0.0172736 0.00734684 0.00561241 -0.000185313 -0.000237275 1.46304e-10 -7.92652e-11 6.12904e-11 5e-05 1.46608e-10 
107 1 0.0836866 0.0162064 0.007836 0.00586963 -0.000118215 -0.000160534 9.22857e-11 -1.87491e-10 -1.60432e-10 5e-05 1.46608e-10 
108 1 0.0898863 0.0166682 0.00760502 0.00556563 -0.000295561 -0.000163971 1.45519e-10 -3.88934e-10 1.32857e-10 5e-05 1.46608e-10 
109 1 0.0899434 0.0173372 0.00727517 0.00549823 -0.000351772 -0.000135404 1.19078e-12 -1.28835e-10 8.52677e-11 5e-05 1.46608e-10 
110 1 0.0904137 0.0180851 0.00698934 0.00582879 -0.000346668 0.000287111 5.79808e-10 -3.16742e-10 -1.62036e-10 5e-05 1.46608e-10 
111 1 0.0901531 0.0182954 0.00710305 0.00595664 -0.000424279 0.000290577 -1.95371e-10 -4.77015e-10 -3.06882e-12 5e-05 1.46608e-10 
112 1 0.0837882 0.0166516 0.00763292 0.0053971 -3.99651e-05 -0.000285754 -2.02287e-10 -8.14554e-11 5.54705e-11 5e-05 1.46608e-10 
113 1 0.0844427 0.0179547 0.00707439 0.00603653 -0.000218067 4.67095e-05 -2.8391e-11 1.28062e-10 -3.2918e-11 5e-05 1.46608e-10 
114 1 0.0842416 0.017639 0.00728752 0.00586867 -0.000150287 3.23001e-05 -6.96685e-11 -1.05609e-10 -2.34724e-11 5e-05 1.46608e-10 
115 1 0.090025 0.0172833 0.00729632 0.00548359 -0.00036161 -0.000127972 -4.59375e-11 -2.3485e-10 1.57824e-10 5e-05 1.46608e-10 
116 1 0.0898661 0.0165805 0.00764908 0.00570764 -3.18216e-05 -0.00029617 -5.86717e-10 5.75965e-10 -2.3254e-10 5e-05 1.46608e-10 
117 1 0.0897185 0.0159834 0.00799753 0.00573519 -0.000128393 0.000305848 1.34258e-10 -1.07383e-10 8.81592e-11 5e-05 1.46608e-10 
118 1 0.0836284 0.0159905 0.0080345 0.00580745 0.000133782 0.000158824 1.18234e-10 9.72009e-11 -2.91265e-11 5e-05 1.46608e-10 
119 1 0.0900631 0.0170499 0.00740841 0.00545835 -0.000339696 -0.000136807 1.47147e-10 1.57181e-10 -7.85301e-11 5e-05 1.46608e-10 
120 1 0.0895653 0.0158121 0.00827983 0.00616967 -0.000364159 0.000163213 4.04815e-10 -1.22891e-12 -1.80921e-10 5e-05 1.46608e-10 
121 1 0.0895228 0.0157092 0.00844589 0.00609317 9.67882e-05 0.00043966 3.8537e-10 9.64752e-11 6.46022e-10 5e-05 1.46608e-10 
122 1 0.0903825 0.0181795 0.00700026 0.00591677 -0.000332874 0.000295975 6.13481e-10 -1.4477e-10 1.0991e-11 5e-05 1.46608e-10 
123 1 0.0838226 0.0164094 0.0077336 0.00561867 -2.40139e-05 -0.000304513 2.44157e-10 7.82772e-11 -3.33403e-11 5e-05 1.46608e-10 
124 1 0.0901557 0.0178317 0.00702093 0.00556584 -0.000300093 -0.000105258 -1.23859e-10 -4.02625e-10 -4.39235e-10 5e-05 1.46608e-10 
125 1 0.0897032 0.0159262 0.00807808 0.00570831 -0.000211098 0.000232887 5.5716e-11 -1.53223e-10 4.55799e-12 5e-05 1.46608e-10 
126 1 0.0899038 0.0171621 0.00736339 0.00544816 -0.000337115 -0.000135695 6.44267e-11 -3.54713e-11 1.10971e-11 5e-05 1.46608e-10 
127 1 0.0837479 0.0164721 0.00771125 0.00556128 -8.35242e-05 -0.000275331 3.72974e-11 -9.53454e-11 4.06643e-11 5e-05 1.46608e-10 
128 1 0.0900025 0.0175998 0.00714285 0.00554567 -0.000365557 -0.000131687 -8.43499e-11 -1.47531e-10 9.94911e-11 5e-05 1.46608e-10 
129 1 0.0900792 0.0179449 0.00699401 0.00557384 -0.000231736 0.000172129 3.12707e-10 1.91101e-10 -5.81953e-11 5e-05 1.46608e-10 
130 1 0.0839812 0.0171286 0.00741998 0.00549658 -5.76785e-05 -0.000284278 -2.46274e-11 -5.99592e-11 3.9058e-11 5e-05 1.46608e-10 
131 1 0.0841874 0.0175647 0.00732688 0.00552736 -7.71686e-05 -0.000273304 -1.44727e-10 -1.81483e-10 1.16478e-10 5e-05 1.46608e-10 
132 1 0.0901354 0.0177441 0.00706468 0.0055923 -0.000336293 -0.000141403 1.34766e-10 3.74288e-11 5.71391e-11 5e-05 1.46608e-10 
133 1 0.0899026 0.0163535 0.00777609 0.00577988 -0.000154104 0.000313551 -1.81736e-10 6.72214e-11 -6.59222e-11 5e-05 1.46608e-10 
134 1 0.0900829 0.0171376 0.00736442 0.00544418 -0.000357135 -0.000128001 2.63834e-11 -2.1108e-10 1.23931e-10 5e-05 1.46608e-10 
135 1 0.0896844 0.0158752 0.008162 0.00570771 -0.000320171 0.000161436 2.73638e-13 1.59975e-11 -4.33024e-11 5e-05 1.46608e-10 
136 1 0.0837615 0.0161482 0.00786758 0.00580869 2.70048e-05 0.000278172 1.70467e-11 -1.92104e-10 2.40472e-11 5e-05 1.46608e-10 
137 1 0.0901727 0.0183974 0.00701747 0.00599249 -0.000494486 0.000280658 1.40656e-10 -3.44301e-12 3.21619e-11 5e-05 1.46608e-10 
138 1 0.0898245 0.0164053 0.00774108 0.0057651 -0.000166873 0.000319992 -1.66581e-11 4.46604e-11 8.76344e-12 5e-05 1.46608e-10 
140 1 0.0902831 0.0181891 0.0069958 0.00591152 -0.000457621 0.000279936 4.70629e-10 -3.27315e-10 -1.85351e-12 5e-05 1.46608e-10 
141 1 0.0838022 0.0163194 0.00777289 0.00580703 3.37505e-05 -0.000337345 1.38811e-10 -1.18426e-10 4.81374e-11 5e-05 1.46608e-10 
142 1 0.0840758 0.0171562 0.00740297 0.00547804 -6.89828e-05 -0.000278687 3.52016e-11 -2.03317e-11 2.48491e-12 5e-05 1.46608e-10 
143 1 0.0837071 0.016293 0.00779043 0.00583686 -0.000140619 -0.000235757 6.87056e-11 -1.29873e-10 -1.27524e-10 5e-05 1.46608e-10 
144 1 0.084291 0.017729 0.00715824 0.0059408 -0.000168808 2.59986e-05 8.08445e-11 -4.37785e-11 3.13882e-11 5e-05 1.46608e-10 
146 1 0.0840922 0.0168241 0.00754278 0.00539377 -0.000120857 -0.000251372 -4.80919e-11 1.35135e-10 -5.45134e-11 5e-05 1.46608e-10 
147 1 0.0837421 0.0160808 0.00794083 0.00576063 0.000149467 0.000141552 -1.75446e-10 -2.53358e-11 -9.91477e-11 5e-05 1.46608e-10 
148 1 0.0839453 0.0173706 0.00731945 0.00551435 -6.05323e-05 -0.000283231 1.47987e-11 7.26077e-11 -2.5679e-11 5e-05 1.46608e-10 
149 1 0.0901513 0.0183007 0.00700321 0.0060053 -0.000468717 0.000285765 1.2304e-10 -6.6506e-11 -1.61767e-11 5e-05 1.46608e-10 
150 1 0.083903 0.0167689 0.00757676 0.00540313 -5.46851e-05 -0.000279568 1.19916e-10 -1.23356e-10 5.10778e-11 5e-05 1.46608e-10 
151 1 0.084285 0.0173011 0.00732986 0.00568527 -0.000248413 -0.000213613 -2.89321e-11 -2.46487e-11 2.45507e-11 5e-05 1.46608e-10 
153 1 0.0838631 0.0165892 0.00765516 0.0054388 6.54105e-06 -0.000308061 -1.52332e-10 3.43976e-11 -1.50404e-11 5e-05 1.46608e-10 
154 1 0.08404 0.0173983 0.00730242 0.00551637 -6.08497e-05 -0.000282758 7.7551e-11 1.14591e-11 7.05199e-13 5e-05 1.46608e-10 
155 1 0.0841225 0.0177621 0.00714698 0.00598419 -8.7828e-05 -4.22872e-06 6.64645e-11 1.11945e-10 -3.83976e-10 5e-05 1.46608e-10 
156 1 0.0840204 0.0173084 0.00734161 0.00550905 -6.52776e-05 -0.000281122 4.83051e-11 8.77156e-12 -4.25544e-12 5e-05 1.46608e-10 
157 1 0.0219312 0.0187687 0.00551176 -3.83242e-14 8.1639e-14 2.95896e-13 2.83568e-23 4.6167e-23 -9.71937e-24 5e-05 1.46608e-10 
158 1 0.0841346 0.0174259 0.00728541 0.00551889 -7.28436e-05 -0.000278898 8.84791e-11 -2.1866e-11 -7.4925e-12 5e-05 1.46608e-10 
159 1 0.0902108 0.0176836 0.00709011 0.0056173 -0.000312716 -0.000160729 3.49646e-11 1.81903e-10 -6.89554e-11 5e-05 1.46608e-10 
160 1 0.0840242 0.0177302 0.00716301 0.00568205 -6.82831e-05 -0.00024292 1.09096e-10 1.44889e-10 3.61718e-11 5e-05 1.46608e-10 
162 1 0.0840596 0.0174882 0.00726324 0.00552892 -6.38651e-05 -0.00028336 8.00315e-11 -1.21186e-11 -7.85041e-12 5e-05 1.46608e-10 
164 1 0.0842031 0.0181229 0.00701391 0.00612178 -0.000124891 1.07613e-05 -7.82385e-11 -2.257e-11 -9.60008e-12 5e-05 1.46608e-10 
165 1 0.0843443 0.0175721 0.00721559 0.0058999 -0.000123665 9.72675e-06 1.62086e-11 3.36334e-10 -1.64961e-11 5e-05 1.46608e-10 
166 1 0.0898568 0.0161812 0.00788071 0.00577275 -0.000146646 0.000313342 -9.18896e-12 5.00439e-12 -4.28358e-11 5e-05 1.46608e-10 
167 1 0.0838831 0.0166791 0.00761597 0.00538976 -4.11035e-05 -0.000285191 -1.26824e-10 -3.41902e-11 2.28471e-11 5e-05 1.46608e-10 
168 1 0.08421 0.0173634 0.00730766 0.00570984 -0.000204646 -0.000234228 -1.63133e-11 3.35386e-11 5.08379e-12 5e-05 1.46608e-10 
169 1 0.0843571 0.0180034 0.00705699 0.00605969 -0.000191135 3.64797e-05 -7.63903e-11 2.32673e-11 -1.88121e-11 5e-05 1.46608e-10 
170 1 0.0842496 0.0175431 0.00722931 0.00589184 -0.000221126 -0.000209788 -3.05842e-10 -1.02762e-10 -5.70181e-10 5e-05 1.46608e-10 
171 1 0.0898823 0.0162698 0.007827 0.00578304 -0.000177466 0.000327699 9.95551e-11 -1.14556e-10 -3.76504e-12 5e-05 1.46608e-10 
172 1 0.0843246 0.0174809 0.00725147 0.00586035 -0.000246216 -0.000201566 4.66984e-10 -1.78897e-10 -4.16764e-11 5e-05 1.46608e-10 
173 1 0.0903754 0.0178935 0.00697825 0.00551172 -0.000233688 -0.000156525 3.55972e-10 -2.59842e-10 -7.49633e-11 5e-05 1.46608e-10 
174 1 0.0841767 0.0176076 0.00720609 0.00589447 -0.000222788 -0.000285726 -6.12164e-10 5.39411e-11 2.57251e-10 5e-05 1.46608e-10 
175 1 0.0779398 0.0173094 0.00722218 0.00575045 0.000475797 -0.000141856 1.16029e-11 1.33094e-10 -9.43588e-11 5e-05 1.46608e-10 
176 1 0.0840008 0.0172185 0.0073808 0.00549939 -6.00558e-05 -0.000284276 2.56951e-11 -1.64435e-11 -5.70966e-12 5e-05 1.46608e-10 
177 1 0.0840652 0.0179136 0.0070945 0.00601899 -7.70437e-05 -1.8636e-05 3.56281e-11 2.10593e-10 -2.7286e-12 5e-05 1.46608e-10 
178 1 0.0845313 0.0179111 0.00708995 0.00601745 -0.000243853 5.5584e-05 -9.28388e-11 2.81314e-12 -2.45862e-12 5e-05 1.46608e-10 
179 1 0.0843366 0.0179116 0.00709086 0.0060315 -0.000181535 3.28956e-05 -6.35922e-13 5.1465e-11 -6.43988e-12 5e-05 1.46608e-10 
181 1 0.0839845 0.0175504 0.00724108 0.00553035 -6.17962e-05 -0.000283759 5.52074e-11 5.193e-11 -8.50189e-11 5e-05 1.46608e-10 
182 1 0.0898043 0.0163216 0.00779198 0.00577332 -0.000171799 0.00031702 -1.12669e-10 -8.18446e-11 2.87525e-11 5e-05 1.46608e-10 
183 1 0.0842299 0.0174533 0.00726849 0.00582011 -0.00022036 -0.000229266 1.3374e-10 2.2623e-11 -1.05765e-10 5e-05 1.46608e-10 
184 1 0.0902 0.017772 0.00713569 0.00559373 -0.000324326 -0.000157834 -2.43459e-11 1.07345e-10 2.35563e-10 5e-05 1.46608e-10 
185 1 0.0839257 0.0172808 0.00735863 0.00550502 -5.61484e-05 -0.000284973 -2.51939e-11 -3.97304e-11 2.75651e-12 5e-05 1.46608e-10 
186 1 0.0839649 0.0174605 0.00728026 0.00551719 -6.36087e-05 -0.000281173 1.18746e-10 1.13835e-10 -6.10499e-11 5e-05 1.46608e-10 
187 1 0.0901983 0.0172541 0.00730098 0.00550722 -0.000382282 -0.000118566 3.38122e-11 -2.21505e-11 -9.16631e-13 5e-05 1.46608e-10 
188 1 0.0902139 0.0181121 0.00698141 0.00574095 -0.000473627 0.000266864 -3.96236e-11 -2.80388e-10 -4.58741e-11 5e-05 1.46608e-10 
189 1 0.0902406 0.0174313 0.00721193 0.00553767 -0.000371005 -0.000125837 1.22253e-10 1.52522e-11 -4.09254e-12 5e-05 1.46608e-10 
190 1 0.0780539 0.0174224 0.00715679 0.00575922 0.000425237 -0.000111968 3.49708e-11 4.19336e-11 -2.05281e-11 5e-05 1.46608e-10 
191 1 0.0901942 0.018494 0.00703173 0.00596859 -0.000513297 0.000276625 8.00562e-11 3.40334e-10 4.9809e-11 5e-05 1.46608e-10 
192 1 0.0841509 0.0170938 0.0074252 0.00547672 -0.00014359 -0.000246293 -4.43592e-11 -6.72573e-11 1.32037e-11 5e-05 1.46608e-10 
193 1 0.0899689 0.0166159 0.00762605 0.00562513 -0.000245211 -0.000192319 -5.98008e-11 -2.6625e-11 1.90095e-11 5e-05 1.46608e-10 
194 1 0.0840172 0.0168864 0.00752059 0.00543015 -8.58093e-05 -0.00026816 -7.32881e-11 9.35487e-11 -3.31724e-11 5e-05 1.46608e-10 
195 1 0.0844189 0.0178581 0.00711005 0.00600686 -0.000211842 4.49742e-05 6.77882e-11 8.83454e-12 -8.43192e-12 5e-05 1.46608e-10 
196 1 0.0835245 0.0156591 0.00839416 0.00619954 3.81131e-05 0.000292132 -1.63194e-11 2.65857e-11 -2.89037e-11 5e-05 1.46608e-10 
197 1 0.0779978 0.017562 0.00707114 0.00580749 0.000455006 -0.000127836 -8.40128e-12 -1.91935e-11 4.98102e-12 5e-05 1.46608e-10 
198 1 0.0839129 0.0172123 0.00749527 0.00548841 -2.04998e-05 -0.00029287 -3.6371e-11 1.15198e-10 -2.71226e-11 5e-05 1.46608e-10 
199 1 0.0840792 0.0175781 0.00722405 0.00554679 -6.97439e-05 -0.000283865 5.93663e-11 -1.77076e-11 -6.16676e-11 5e-05 1.46608e-10 
200 1 0.083867 0.0170111 0.00747619 0.00546611 -4.15264e-05 -0.000288774 -1.37971e-10 -4.03648e-11 3.85224e-11 5e-05 1.46608e-10 
201 1 0.0843434 0.018312 0.00694363 0.0061853 -0.000154075 2.13878e-05 -2.90813e-11 6.65857e-12 4.12847e-12 5e-05 1.46608e-10 
202 1 0.0841705 0.0171837 0.00738602 0.00553326 -0.000165941 -0.000240906 1.64726e-10 -1.54431e-10 3.92546e-11 5e-05 1.46608e-10 
203 1 0.0902533 0.0175305 0.00716268 0.00559618 -0.000351541 -0.000138051 2.10148e-11 1.72351e-11 -6.26381e-12 5e-05 1.46608e-10 
204 1 0.0839421 0.0169488 0.00749837 0.00544773 -4.52133e-05 -0.000283948 -1.98413e-10 7.68612e-11 9.00794e-12 5e-05 1.46608e-10 
205 1 0.084161 0.0179393 0.00708163 0.00602537 -0.000113063 2.86142e-06 8.27394e-13 6.8946e-11 1.57685e-11 5e-05 1.46608e-10 
206 1 0.0841964 0.0176987 0.00716999 0.00596061 -0.000120214 -7.91738e-06 3.81432e-12 -8.87677e-11 -2.24189e-10 5e-05 1.46608e-10 
207 1 0.0838431 0.0164994 0.00769434 0.00551703 -4.58978e-06 -0.000307762 8.32118e-11 3.49406e-11 -6.85382e-12 5e-05 1.46608e-10 
208 1 0.0841542 0.0175158 0.00724623 0.00553557 -8.09762e-05 -0.00027531 1.44926e-10 -5.77808e-11 -1.95045e-11 5e-05 1.46608e-10 
209 1 0.0839226 0.0168588 0.00753758 0.00542693 -5.90273e-05 -0.0002794 -5.64445e-11 -7.53441e-11 3.66252e-11 5e-05 1.46608e-10 
210 1 0.0899873 0.0172808 0.00738889 0.00545924 -0.00032882 -0.000137179 -4.65692e-11 -2.76628e-10 2.1235e-10 5e-05 1.46608e-10 
211 1 0.0902767 0.0179966 0.00696948 0.00551534 -0.000536895 0.000240267 -4.31834e-11 -1.171e-10 1.53272e-10 5e-05 1.46608e-10 
212 1 0.0842717 0.0176369 0.00719219 0.00587227 -0.000165224 2.20911e-05 1.58424e-10 -9.66977e-11 1.05711e-10 5e-05 1.46608e-10 
213 1 0.0901797 0.0171663 0.007345 0.00547276 -0.000379012 -0.00011832 1.67819e-10 4.9644e-11 -3.64158e-11 5e-05 1.46608e-10 
214 1 0.0901745 0.0179202 0.00697636 0.00549174 -0.000297599 -0.000153363 2.43371e-10 2.03673e-10 -4.48692e-10 5e-05 1.46608e-10 
215 1 0.0780151 0.0172539 0.00725753 0.00573133 0.000454639 -0.00013032 1.35958e-11 6.19108e-11 -2.17494e-11 5e-05 1.46608e-10 
216 1 0.0840445 0.0178214 0.00712719 0.00598839 -6.32758e-05 -3.67469e-05 7.28347e-11 2.11915e-10 -7.01587e-11 5e-05 1.46608e-10 
217 1 0.0899265 0.0164409 0.00772302 0.00604393 0.000221959 9.71847e-05 -4.13861e-10 3.76461e-10 -3.75428e-10 5e-05 1.46608e-10 
218 1 0.0841183 0.0179669 0.00716778 0.00602565 -0.000103701 -1.51547e-05 -6.28106e-11 1.14735e-10 -4.56141e-11 5e-05 1.46608e-10 
219 1 0.0901244 0.0181813 0.00706795 0.0059748 -0.000271796 0.000386959 -1.0122e-10 3.43716e-10 -7.56037e-11 5e-05 1.46608e-10 
220 1 0.0840042 0.0176403 0.0072019 0.00555173 -5.50413e-05 -0.000285101 -9.91442e-11 -2.56055e-12 -6.91606e-11 5e-05 1.46608e-10 
221 1 0.0779572 0.0170013 0.00740859 0.00561643 0.000471844 -0.000144002 2.95566e-10 1.54945e-10 -6.41948e-11 5e-05 1.46608e-10 
222 1 0.0899484 0.0165278 0.00767031 0.0060338 0.00026219 -0.000464575 -5.52803e-10 5.14252e-10 -2.84498e-10 5e-05 1.46608e-10 
223 1 0.0840954 0.0172461 0.00736379 0.00551214 -6.4565e-05 -0.000281909 1.50211e-10 8.71718e-12 -1.12585e-11 5e-05 1.46608e-10 
224 1 0.0839061 0.0171909 0.00739782 0.00549921 -5.24511e-05 -0.000287176 1.7279e-11 -6.25225e-11 1.69845e-11 5e-05 1.46608e-10 
225 1 0.0904803 0.0181585 0.00700308 0.00589714 -0.000452271 0.000281111 7.55067e-10 8.24309e-11 3.132e-11 5e-05 1.46608e-10 
226 1 0.0843049 0.0173909 0.00729068 0.00577424 -0.000263547 -0.000209367 7.34354e-11 -4.51321e-11 5.41989e-11 5e-05 1.46608e-10 
227 1 0.0780733 0.0175067 0.00710643 0.00581552 0.000461603 -0.000131972 -2.14619e-12 1.96954e-11 -1.24542e-11 5e-05 1.46608e-10 
228 1 0.0779591 0.0173936 0.00717183 0.00576083 0.000464956 -0.000135729 1.19258e-10 6.56784e-11 -2.73042e-11 5e-05 1.46608e-10 
229 1 0.0840329 0.0176284 0.00729695 0.00552278 -0.000137803 -0.000273211 -8.21751e-11 -2.07743e-10 -1.70812e-10 5e-05 1.46608e-10 
230 1 0.0843487 0.0184057 0.00690915 0.00622308 -0.000155087 2.3296e-05 1.68473e-11 1.78907e-11 2.96058e-12 5e-05 1.46608e-10 
231 1 0.0779204 0.0172252 0.00727252 0.0057244 0.000480047 -0.000144879 -5.39085e-11 5.05618e-11 -4.57517e-11 5e-05 1.46608e-10 
232 1 0.0839779 0.0167065 0.00759902 0.00536756 -8.31204e-05 -0.000265962 3.20382e-10 5.74968e-11 -4.33984e-11 5e-05 1.46608e-10 
233 1 0.0840562 0.0170664 0.00744216 0.00547944 -8.40735e-05 -0.000271789 -8.80356e-11 1.50438e-11 9.5988e-12 5e-05 1.46608e-10 
234 1 0.0902496 0.018283 0.0070065 0.00600308 -0.000468975 0.000285149 1.50515e-10 -1.10747e-10 3.04748e-11 5e-05 1.46608e-10 
235 1 0.0843932 0.018592 0.00686018 0.00629377 -0.000144463 2.01293e-05 1.74951e-11 3.19778e-11 5.51886e-12 5e-05 1.46608e-10 
236 1 0.084386 0.0184934 0.00687668 0.00629689 -0.000139543 1.57311e-05 6.16334e-11 8.62753e-12 -7.36593e-12 5e-05 1.46608e-10 
237 1 0.0844766 0.0185368 0.00686022 0.0062785 -0.000162799 2.45397e-05 2.14058e-11 2.98386e-11 3.37588e-13 5e-05 1.46608e-10 
239 1 0.0777451 0.0164637 0.00771902 0.00567256 0.000410487 -0.00022051 -6.69913e-11 -9.61236e-11 4.77199e-11 5e-05 1.46608e-10 
240 1 0.0778046 0.0167185 0.00757235 0.00573011 0.000435002 -0.000245294 -1.88918e-10 -6.06442e-12 -2.08403e-10 5e-05 1.46608e-10 
241 1 0.0777252 0.0163788 0.00776792 0.00565776 0.000416105 -0.000223425 -2.24194e-11 -2.76553e-10 1.61995e-10 5e-05 1.46608e-10 
242 1 0.0840367 0.0169765 0.00748134 0.00545165 -7.3512e-05 -0.000274411 -2.34261e-10 -1.20939e-11 2.22477e-11 5e-05 1.46608e-10 
243 1 0.0839711 0.0172868 0.00744757 0.0055085 -6.31065e-05 -0.000281697 -2.30068e-11 -1.84739e-11 -3.97379e-11 5e-05 1.46608e-10 
244 1 0.0777649 0.0165486 0.00767013 0.00569142 0.000414752 -0.000221267 5.96403e-11 9.74888e-11 -2.45807e-11 5e-05 1.46608e-10 