ITEM: TIMESTEP
56200000
ITEM: NUMBER OF ATOMS
275
ITEM: BOX BOUNDS ff ff ff
-0.02 0.43
-0.02 0.06
-0.02 0.07
ITEM: ATOMS id type x y z vx vy vz fx fy fz radius mass 
1 1 0.340882 0.0179797 0.00730902 0.00563449 -0.000781324 0.00066772 -2.48924e-10 -3.68107e-11 5.08534e-11 5e-05 1.46608e-10 
2 1 0.340529 0.0167179 0.00751147 0.00600591 -0.000735338 0.000629921 -2.74068e-10 -6.78639e-11 2.13576e-10 5e-05 1.46608e-10 
4 1 0.340678 0.0166001 0.00757508 0.00607366 -4.52001e-05 0.00179352 7.50604e-11 9.06289e-12 1.25579e-10 5e-05 1.46608e-10 
5 1 0.340203 0.0157683 0.00885079 0.00607582 0.000230252 0.00131972 1.22205e-10 -1.54896e-11 9.41866e-11 5e-05 1.46608e-10 
6 1 0.346595 0.0170602 0.00758102 0.00621048 0.000960441 -0.00108728 3.46989e-12 6.62826e-12 -5.57311e-12 5e-05 1.46608e-10 
7 1 0.340828 0.0172256 0.00732533 0.00589747 -0.000883356 0.00069741 5.44359e-10 -5.34036e-10 2.94393e-11 5e-05 1.46608e-10 
8 1 0.340531 0.0164377 0.00785619 0.00577092 0.000231698 0.00123587 2.7806e-10 -1.66408e-10 -7.81173e-11 5e-05 1.46608e-10 
9 1 0.346811 0.0179339 0.00714502 0.00635452 0.000915248 -0.00108117 1.32823e-10 -6.42429e-12 -4.76622e-12 5e-05 1.46608e-10 
10 1 0.340625 0.0164439 0.007825 0.00596261 -4.08465e-05 0.00175265 -8.87262e-11 5.95114e-11 -2.27109e-10 5e-05 1.46608e-10 
11 1 0.340931 0.0177156 0.00732244 0.00570602 -0.000803157 0.000673563 -1.4922e-11 -1.04364e-11 -8.43405e-12 5e-05 1.46608e-10 
12 1 0.335005 0.0176374 0.00728808 0.00602664 -1.86921e-06 0.00012024 6.47241e-11 -1.23673e-11 5.60298e-12 5e-05 1.46608e-10 
13 1 0.34018 0.0157161 0.00893293 0.00600683 0.000226685 0.00130895 -2.69203e-11 -1.62944e-12 -4.70587e-11 5e-05 1.46608e-10 
14 1 0.335124 0.0183662 0.00705477 0.00554074 1.02547e-05 0.000113939 2.42711e-10 -1.37723e-10 1.53932e-11 5e-05 1.46608e-10 
16 1 0.335203 0.0185414 0.00688448 0.00566597 2.42017e-05 0.000101595 -1.98837e-10 2.38923e-11 -1.53703e-11 5e-05 1.46608e-10 
17 1 0.340416 0.0163389 0.00794399 0.00580384 0.000296659 0.00115423 -1.06534e-10 1.29085e-10 -3.75211e-10 5e-05 1.46608e-10 
19 1 0.340854 0.0181981 0.00729927 0.00554359 -0.000734524 0.000656583 1.94271e-10 5.20328e-10 8.5977e-11 5e-05 1.46608e-10 
21 1 0.340869 0.0174213 0.00732418 0.00581626 -0.000873113 0.000686492 4.24165e-11 1.15515e-12 3.01038e-11 5e-05 1.46608e-10 
22 1 0.340652 0.0164962 0.0077439 0.0059742 -4.47966e-05 0.00176143 5.94809e-11 2.21054e-12 -4.79838e-11 5e-05 1.46608e-10 
23 1 0.335149 0.0182708 0.00700541 0.00549702 -6.75669e-05 0.000139437 9.74238e-11 -1.07332e-10 4.70994e-11 5e-05 1.46608e-10 
24 1 0.346724 0.0175844 0.00731942 0.00630147 0.00093507 -0.00108455 9.96089e-11 -4.63211e-12 -1.16797e-11 5e-05 1.46608e-10 
25 1 0.340315 0.0160297 0.00843944 0.00594474 0.000255548 0.00123892 7.10098e-11 1.17645e-10 3.9013e-11 5e-05 1.46608e-10 
26 1 0.346767 0.0177592 0.00723222 0.0063225 0.000940393 -0.00108908 -2.63538e-10 7.64689e-12 3.35564e-11 5e-05 1.46608e-10 
27 1 0.334663 0.0169571 0.00758797 0.00599066 2.39504e-05 0.000107756 2.18867e-11 -2.64891e-11 1.10938e-11 5e-05 1.46608e-10 
28 1 0.340604 0.0166592 0.0075432 0.00605738 -0.000268416 0.00141196 -5.73499e-11 4.3035e-11 1.48086e-10 5e-05 1.46608e-10 
29 1 0.340158 0.0156638 0.00901508 0.0059656 0.000220855 0.00130307 1.18725e-10 8.11008e-11 -1.11905e-10 5e-05 1.46608e-10 
30 1 0.340382 0.0162382 0.008105 0.00564382 0.000270596 0.00113197 5.25679e-11 8.28773e-11 -2.84739e-10 5e-05 1.46608e-10 
31 1 0.340923 0.0172566 0.00733516 0.0058915 -0.000847221 0.000696451 4.73545e-10 -6.30137e-10 1.10906e-10 5e-05 1.46608e-10 
32 1 0.340334 0.0160819 0.00835645 0.00589236 0.0002647 0.0012108 2.07554e-10 2.18192e-11 2.42649e-11 5e-05 1.46608e-10 
33 1 0.346616 0.0171476 0.00753742 0.00622502 0.000956919 -0.00108701 2.86927e-12 6.74715e-12 -2.22536e-12 5e-05 1.46608e-10 
34 1 0.340293 0.0159774 0.00852194 0.0059885 0.000250908 0.00126164 -1.51665e-10 -7.40954e-11 7.08394e-11 5e-05 1.46608e-10 
35 1 0.340784 0.0170304 0.00733458 0.00606612 -0.00107726 8.60664e-05 2.31521e-10 -2.4271e-10 -8.6453e-11 5e-05 1.46608e-10 
36 1 0.346872 0.0182103 0.0070463 0.00595914 0.00124416 -0.000503158 1.09243e-11 9.1905e-12 -3.62108e-12 5e-05 1.46608e-10 
37 1 0.340667 0.0165483 0.00765992 0.00603468 -4.59737e-05 0.00177964 -1.57054e-10 -2.0912e-11 1.83751e-11 5e-05 1.46608e-10 
38 1 0.340743 0.0168507 0.00742 0.00608169 -0.00109436 0.000111265 -1.24121e-10 -5.08848e-10 -1.2061e-11 5e-05 1.46608e-10 
39 1 0.346746 0.0176718 0.00727582 0.00630368 0.000933595 -0.00108349 1.41835e-10 -7.00937e-11 1.12098e-11 5e-05 1.46608e-10 
41 1 0.340249 0.0158729 0.00868649 0.00606691 0.000240302 0.00130101 5.68916e-11 -8.39005e-11 2.35597e-10 5e-05 1.46608e-10 
42 1 0.340796 0.0166995 0.00748572 0.00608872 -0.0011231 9.66907e-05 1.96305e-10 -4.13305e-11 1.85988e-11 5e-05 1.46608e-10 
44 1 0.340859 0.0169662 0.00736397 0.00593247 -0.00131128 -0.000805354 1.12233e-09 3.26524e-10 8.01042e-10 5e-05 1.46608e-10 
45 1 0.346638 0.017235 0.00749382 0.00623964 0.000953278 -0.00108685 -1.45498e-12 7.65517e-12 -3.04915e-13 5e-05 1.46608e-10 
47 1 0.340271 0.0159251 0.00860424 0.00603959 0.000246225 0.00128436 -1.05826e-10 -1.41464e-10 1.60109e-10 5e-05 1.46608e-10 
48 1 0.34074 0.0176497 0.00730262 0.00576881 -0.000884637 0.000682727 -7.32362e-11 -1.61796e-10 5.04315e-11 5e-05 1.46608e-10 
49 1 0.346832 0.0180248 0.0071094 0.00636921 0.00114895 -0.00047615 1.6778e-10 -1.87127e-11 1.57694e-12 5e-05 1.46608e-10 
50 1 0.340353 0.0161341 0.0082732 0.00578515 0.000269532 0.00117225 -1.61104e-10 2.45942e-11 -8.70033e-11 5e-05 1.46608e-10 
51 1 0.340943 0.0173548 0.00733459 0.00583242 -0.00084635 0.000689371 4.51882e-10 5.16188e-12 3.59178e-11 5e-05 1.46608e-10 
52 1 0.335072 0.0179093 0.00716686 0.00570377 8.85208e-05 7.3158e-05 -1.27806e-10 -7.29442e-11 2.72256e-11 5e-05 1.46608e-10 
53 1 0.346681 0.0174097 0.00740662 0.00626825 0.00094648 -0.00108657 -3.62041e-12 1.22613e-11 -3.36143e-12 5e-05 1.46608e-10 
54 1 0.34107 0.0179472 0.00731782 0.00567731 -0.000719865 -0.000526557 -5.6966e-11 1.59302e-10 -8.17505e-11 5e-05 1.46608e-10 
55 1 0.334867 0.017431 0.00737838 0.00601511 9.04695e-06 0.000115059 -1.33527e-11 -1.09871e-11 4.07558e-12 5e-05 1.46608e-10 
56 1 0.341038 0.0181227 0.00730395 0.00568376 -0.000680809 -0.000532474 -8.06499e-11 1.26143e-10 3.75694e-11 5e-05 1.46608e-10 
57 1 0.346659 0.0173223 0.00745022 0.00625396 0.000949712 -0.00108663 -5.86535e-12 9.52189e-12 -3.97676e-12 5e-05 1.46608e-10 
59 1 0.378022 0.019866 0.005332 -5.01965e-15 -7.41192e-15 7.69802e-14 -7.92284e-24 5.19573e-24 0 5e-05 1.46608e-10 
60 1 0.34088 0.0170601 0.00733617 0.0059309 -0.000883561 0.00069441 1.14339e-09 -2.273e-10 4.34885e-11 5e-05 1.46608e-10 
61 1 0.340226 0.0158206 0.00876865 0.0060982 0.000232288 0.00132105 7.59559e-11 -5.0853e-11 1.32994e-10 5e-05 1.46608e-10 
62 1 0.340764 0.0169398 0.00737759 0.00605533 -0.000953865 2.9637e-06 -1.6852e-09 -2.04154e-10 -7.23918e-10 5e-05 1.46608e-10 
63 1 0.340887 0.0178947 0.00740903 0.00566523 -0.000794338 0.00067034 -4.93322e-12 1.62372e-10 -1.7912e-10 5e-05 1.46608e-10 
64 1 0.346703 0.0174971 0.00736302 0.00628638 0.000942356 -0.00108661 -5.89664e-11 1.48596e-11 -4.78402e-12 5e-05 1.46608e-10 
65 1 0.334793 0.017492 0.00734943 0.00601991 1.3149e-05 0.000113302 -1.95304e-11 -1.38352e-11 7.99242e-12 5e-05 1.46608e-10 
66 1 0.334978 0.018298 0.00698978 0.00577708 0.000309504 -2.59117e-05 -6.05746e-10 4.8419e-10 -2.4738e-10 5e-05 1.46608e-10 
67 1 0.34089 0.0175194 0.0073236 0.00581155 -0.000835249 0.000686122 -1.07666e-10 3.99313e-11 -2.17688e-11 5e-05 1.46608e-10 
68 1 0.340668 0.0169133 0.00739675 0.00603562 -0.00109026 0.000208092 -1.42903e-10 -3.04854e-10 3.98659e-10 5e-05 1.46608e-10 
69 1 0.340984 0.0175509 0.00733341 0.00579622 -0.000782122 0.000682691 -8.26246e-11 1.43393e-12 -3.19227e-12 5e-05 1.46608e-10 
70 1 0.346789 0.0178465 0.00718862 0.0063512 0.000931794 -0.00108861 -1.03527e-10 8.4552e-11 -2.98513e-11 5e-05 1.46608e-10 
71 1 0.335094 0.0188577 0.00686128 0.00558309 7.42406e-05 -7.03263e-05 3.14183e-11 9.63848e-12 -3.76649e-11 5e-05 1.46608e-10 
72 1 0.34095 0.0178149 0.00732164 0.00568679 -0.000748863 0.000668332 -1.79069e-11 -1.64799e-11 -4.77659e-11 5e-05 1.46608e-10 
73 1 0.340775 0.0166264 0.00755779 0.00619207 -3.94e-06 0.00175484 6.96531e-12 6.26618e-11 -3.5848e-10 5e-05 1.46608e-10 
74 1 0.340367 0.0161861 0.00818895 0.00567003 0.000270016 0.00114295 -3.0707e-10 8.46481e-11 -1.69465e-10 5e-05 1.46608e-10 
76 1 0.334801 0.0171636 0.00749766 0.00600133 2.01727e-05 0.000109748 2.13969e-11 -2.30377e-11 1.06176e-11 5e-05 1.46608e-10 
77 1 0.34055 0.016799 0.00745701 0.00599221 -0.00109906 0.000123078 -1.91577e-10 -5.92637e-10 -4.24479e-10 5e-05 1.46608e-10 
78 1 0.334249 0.0156942 0.00845009 0.005456 0.000201116 0.000293151 -1.77556e-10 4.04938e-11 -1.49979e-10 5e-05 1.46608e-10 
79 1 0.33517 0.0187934 0.00685007 0.00560131 7.01173e-05 -6.6243e-05 7.69357e-11 9.25455e-11 -3.22577e-11 5e-05 1.46608e-10 
80 1 0.340625 0.0167409 0.00748973 0.0060991 -0.000764499 0.000677734 -1.74358e-10 -2.61782e-10 -2.96241e-10 5e-05 1.46608e-10 
82 1 0.335073 0.0183293 0.00697754 0.00556448 1.30266e-05 0.00010447 1.07807e-10 -1.40446e-10 5.22114e-11 5e-05 1.46608e-10 
83 1 0.335027 0.0177266 0.00724832 0.00606144 -3.81322e-06 0.000121763 1.56481e-10 -5.86906e-11 2.96989e-11 5e-05 1.46608e-10 
84 1 0.346853 0.0181174 0.00707788 0.00592428 0.00125203 -0.000504474 -1.13964e-10 -5.55416e-11 3.03534e-12 5e-05 1.46608e-10 
85 1 0.334976 0.0187286 0.00684286 0.00576327 1.94815e-05 -4.09e-05 3.20281e-11 5.41007e-11 -1.40112e-10 5e-05 1.46608e-10 
86 1 0.340838 0.0168762 0.00740171 0.00604649 -0.00100241 5.39979e-05 6.77361e-11 -2.26929e-11 2.96548e-10 5e-05 1.46608e-10 
87 1 0.34057 0.0165749 0.00758756 0.0057858 -9.65591e-05 0.00177418 -4.10564e-10 -1.02123e-10 -7.15182e-11 5e-05 1.46608e-10 
88 1 0.340733 0.0171942 0.00731545 0.00591367 -0.000925526 0.00068667 4.36591e-10 -1.21125e-10 1.60039e-10 5e-05 1.46608e-10 
89 1 0.341005 0.0176488 0.00733282 0.00573189 -0.000737684 0.000673985 -1.62838e-10 9.63149e-11 -1.60738e-11 5e-05 1.46608e-10 
90 1 0.34091 0.0176174 0.00732301 0.00575797 -0.000821767 0.000679498 -9.6857e-11 -3.66581e-11 -2.38643e-11 5e-05 1.46608e-10 
91 1 0.334984 0.0175483 0.00732784 0.00603073 -5.74266e-07 0.000119646 5.02723e-11 1.50047e-11 -7.83635e-12 5e-05 1.46608e-10 
92 1 0.340658 0.0172602 0.00730499 0.00593293 -0.000968406 0.000708882 3.51433e-10 2.61486e-10 1.3418e-10 5e-05 1.46608e-10 
93 1 0.340647 0.0167436 0.00758727 0.00587738 0.000246298 0.000687594 6.41407e-13 -8.73161e-11 -3.8413e-10 5e-05 1.46608e-10 
94 1 0.340964 0.0179227 0.00731999 0.00564702 -0.000762507 0.00066588 -9.29332e-11 8.71923e-11 5.63839e-11 5e-05 1.46608e-10 
95 1 0.340787 0.0176432 0.00739018 0.0057904 -0.000884394 0.000670328 1.2115e-11 -2.56178e-10 -2.7251e-11 5e-05 1.46608e-10 
96 1 0.340638 0.0171637 0.00732142 0.00594654 -0.000988427 0.000622369 3.09436e-10 1.52111e-10 3.68915e-10 5e-05 1.46608e-10 
97 1 0.33432 0.0158634 0.0080948 0.00565156 0.000250014 0.000352921 2.23098e-10 2.91822e-11 1.52775e-10 5e-05 1.46608e-10 
98 1 0.340519 0.0163169 0.00801036 0.00573457 0.000227023 0.00122333 -7.95977e-12 2.16536e-10 -4.15377e-10 5e-05 1.46608e-10 
99 1 0.334827 0.0179981 0.00712195 0.00566447 7.51743e-05 7.88785e-05 7.77762e-11 1.04362e-10 -2.83378e-11 5e-05 1.46608e-10 
100 1 0.340849 0.0173234 0.00732478 0.00585715 -0.00087634 0.000692111 4.81125e-10 -3.10704e-10 3.06298e-11 5e-05 1.46608e-10 
101 1 0.334846 0.0180877 0.00708194 0.00563376 8.25518e-05 7.49055e-05 3.32017e-11 1.01916e-10 -1.86915e-11 5e-05 1.46608e-10 
102 1 0.0643568 0.0187248 0.00531097 3.97942e-15 1.05869e-14 8.29634e-14 2.38474e-21 1.69831e-22 -1.49306e-22 5e-05 1.46608e-10 
103 1 0.24257 0.0191927 0.00520306 1.85319e-22 -1.27651e-22 -5.81428e-22 0 0 0 5e-05 1.46608e-10 
104 1 0.335245 0.018728 0.00683871 0.00556822 4.29123e-05 -7.50935e-05 9.04446e-11 7.75126e-12 -5.81123e-12 5e-05 1.46608e-10 
105 1 0.334453 0.0160642 0.00798633 0.00565634 9.0866e-05 7.02133e-05 1.04734e-11 -1.09207e-10 -9.35519e-12 5e-05 1.46608e-10 
106 1 0.334836 0.0176703 0.00726991 0.0060298 5.5331e-06 0.00011697 2.75556e-12 -7.40035e-12 9.05659e-13 5e-05 1.46608e-10 
107 1 0.334267 0.0157367 0.00836136 0.00550441 0.000213235 0.000305937 1.31262e-10 1.50488e-10 -5.34044e-11 5e-05 1.46608e-10 
108 1 0.341025 0.0177492 0.00733209 0.00568187 -0.000752964 0.000668772 -7.80821e-11 5.29845e-11 1.53392e-11 5e-05 1.46608e-10 
109 1 0.341107 0.0180508 0.00730377 0.00567696 -0.000693092 -0.000525051 9.80001e-13 1.6638e-10 2.03861e-10 5e-05 1.46608e-10 
110 1 0.34051 0.0166546 0.00758647 0.00602821 4.84966e-05 0.00126587 -1.33197e-10 -1.17469e-10 4.90077e-11 5e-05 1.46608e-10 
111 1 0.340472 0.0165282 0.00773501 0.00588676 0.000345505 0.00132909 -9.75775e-11 7.61603e-11 -8.28991e-11 5e-05 1.46608e-10 
112 1 0.334771 0.0176419 0.0073761 0.00603183 1.52167e-05 0.000112929 -6.08748e-12 -2.54275e-11 4.02656e-12 5e-05 1.46608e-10 
113 1 0.334718 0.0175523 0.00732075 0.00602545 1.81191e-05 0.000111459 -4.36504e-12 2.8332e-11 -1.21847e-11 5e-05 1.46608e-10 
114 1 0.334784 0.0178198 0.00720148 0.00603798 6.99414e-06 0.000116684 1.63056e-11 4.19185e-11 -2.18383e-11 5e-05 1.46608e-10 
115 1 0.340817 0.0167879 0.00744372 0.00607314 -0.00110557 8.55797e-05 4.27158e-10 -1.68908e-11 5.12758e-11 5e-05 1.46608e-10 
116 1 0.340816 0.0175855 0.00731318 0.00579143 -0.000854258 0.00068243 -8.87909e-11 -9.38508e-11 -1.87562e-11 5e-05 1.46608e-10 
117 1 0.340807 0.0171278 0.00732763 0.00593833 -0.000887716 0.000688257 6.87913e-10 -5.8647e-10 -2.58477e-10 5e-05 1.46608e-10 
118 1 0.33491 0.0176093 0.00729887 0.00602928 1.94292e-06 0.000118403 5.61223e-12 -1.82196e-11 1.40471e-11 5e-05 1.46608e-10 
119 1 0.341043 0.0178519 0.00733002 0.00576597 -0.000719588 -0.000412637 2.43906e-13 4.41518e-11 -2.1044e-10 5e-05 1.46608e-10 
120 1 0.340607 0.0163917 0.00790835 0.00592973 -3.70408e-05 0.00173606 -3.56116e-11 3.88583e-11 -1.14928e-10 5e-05 1.46608e-10 
121 1 0.34082 0.0180293 0.00736898 0.00561345 -0.000814825 0.000678889 -2.22975e-11 2.40728e-10 4.66695e-11 5e-05 1.46608e-10 
122 1 0.340615 0.017069 0.00734455 0.00598095 -0.00102117 0.000480154 8.72637e-11 2.05569e-11 -8.59674e-11 5e-05 1.46608e-10 
123 1 0.335014 0.0189161 0.00687162 0.00560482 7.8635e-05 -6.6037e-05 -1.37024e-10 -2.4185e-10 -3.08751e-11 5e-05 1.46608e-10 
124 1 0.340512 0.0163666 0.00792394 0.00578335 0.000238655 0.00123587 -1.49576e-10 2.0545e-10 -3.21394e-10 5e-05 1.46608e-10 
125 1 0.340709 0.0170939 0.00731575 0.0058794 -0.00108991 0.000713432 4.0132e-10 5.23413e-11 1.91515e-10 5e-05 1.46608e-10 
127 1 0.334302 0.0158212 0.00818372 0.00562393 0.000247501 0.000344282 -4.5655e-11 -4.65899e-12 1.80149e-10 5e-05 1.46608e-10 
128 1 0.340425 0.0162894 0.00803041 0.00570453 0.000266355 0.00115885 1.32125e-10 1.91582e-10 -3.69188e-10 5e-05 1.46608e-10 
129 1 0.34079 0.0177929 0.00738593 0.00571622 -0.000834621 0.00067447 2.3552e-11 -8.25346e-11 -4.59961e-11 5e-05 1.46608e-10 
130 1 0.33488 0.0178486 0.0071904 0.00604284 -3.99663e-06 0.000120779 -5.83907e-11 -6.30833e-11 2.44161e-11 5e-05 1.46608e-10 
131 1 0.334901 0.0179379 0.00715059 0.00570197 0.000101847 6.74302e-05 1.18884e-12 -7.63488e-11 2.57714e-11 5e-05 1.46608e-10 
132 1 0.3407 0.0166849 0.0075258 0.00613147 -0.000275365 0.00138638 -7.07614e-11 -2.50561e-10 -4.44649e-10 5e-05 1.46608e-10 
133 1 0.340836 0.0176834 0.00731258 0.00575098 -0.000828926 0.000677403 -1.69222e-10 -1.58913e-10 -3.25596e-11 5e-05 1.46608e-10 
134 1 0.340795 0.0174876 0.00731377 0.00581011 -0.000883454 0.000681244 -4.81582e-11 -1.35609e-10 -1.67723e-11 5e-05 1.46608e-10 
135 1 0.340964 0.0174527 0.00733399 0.0058117 -0.000840819 0.000685826 -1.87161e-10 8.73046e-11 -1.56615e-11 5e-05 1.46608e-10 
136 1 0.334845 0.0173419 0.00741814 0.00600906 1.33422e-05 0.000112939 -2.19859e-11 -2.6363e-12 1.70632e-12 5e-05 1.46608e-10 
137 1 0.341016 0.0179124 0.00740491 0.00679417 -0.000545505 -2.09553e-05 1.12554e-10 -4.77623e-11 -4.62734e-12 5e-05 1.46608e-10 
138 1 0.340699 0.0174539 0.00730407 0.00581669 -0.000930115 0.000662581 1.86437e-10 -1.94957e-10 1.66289e-10 5e-05 1.46608e-10 
140 1 0.340573 0.016887 0.00741505 0.00602152 -0.00113505 0.00012175 1.01816e-10 -2.56038e-10 -3.65724e-11 5e-05 1.46608e-10 
141 1 0.334671 0.0166287 0.0077362 0.00596977 1.71577e-05 0.000110495 6.7225e-11 -1.84911e-11 1.1069e-11 5e-05 1.46608e-10 
142 1 0.335111 0.0180895 0.00708636 0.00580593 -6.32685e-06 0.000117044 3.55562e-10 -2.19874e-10 9.69375e-11 5e-05 1.46608e-10 
143 1 0.334286 0.015779 0.00827293 0.00555266 0.000241338 0.000327636 -6.82391e-11 -1.60232e-10 -6.24206e-12 5e-05 1.46608e-10 
144 1 0.334953 0.0177876 0.00721935 0.00605221 -5.25501e-06 0.000121914 -7.72651e-12 -1.3018e-10 5.33775e-11 5e-05 1.46608e-10 
146 1 0.334339 0.0159466 0.0080427 0.00564473 0.000196574 0.000266537 8.10697e-11 -5.08283e-11 1.22288e-10 5e-05 1.46608e-10 
147 1 0.334858 0.0177594 0.00723016 0.0060349 1.98816e-06 0.000119082 5.99777e-11 -2.52597e-11 2.13754e-11 5e-05 1.46608e-10 
148 1 0.334693 0.0167178 0.00769644 0.00597579 1.86697e-05 0.000109882 5.31082e-11 -2.351e-11 1.18333e-11 5e-05 1.46608e-10 
149 1 0.340436 0.0164058 0.00787235 0.00585809 0.000239895 0.00111226 -3.3545e-11 1.54698e-10 -3.27745e-10 5e-05 1.46608e-10 
150 1 0.334957 0.0186336 0.00686779 0.0057319 5.45846e-05 5.78383e-05 9.56234e-11 1.05375e-10 -2.57072e-10 5e-05 1.46608e-10 
151 1 0.334884 0.018267 0.00700186 0.00582914 8.55194e-05 8.41351e-05 -3.75493e-11 6.9526e-11 -4.88328e-11 5e-05 1.46608e-10 
153 1 0.334715 0.016807 0.00765669 0.00598161 2.0323e-05 0.000109292 4.94911e-11 -3.01742e-11 1.36502e-11 5e-05 1.46608e-10 
154 1 0.334434 0.0159746 0.00802634 0.00564328 8.81089e-05 7.11902e-05 -3.02016e-11 -2.45568e-11 3.49618e-11 5e-05 1.46608e-10 
155 1 0.334842 0.0179156 0.00725442 0.00604897 -2.7741e-06 0.000119884 1.12537e-11 -4.38634e-11 1.91082e-11 5e-05 1.46608e-10 
156 1 0.334649 0.0165395 0.00777596 0.00596533 1.53484e-05 0.000111229 1.42427e-10 -2.02945e-11 1.18789e-11 5e-05 1.46608e-10 
157 1 0.0219312 0.0187687 0.00551176 -3.82682e-14 8.16963e-14 2.95888e-13 -9.22487e-22 2.92202e-22 -2.24786e-22 5e-05 1.46608e-10 
158 1 0.334758 0.0169853 0.00757717 0.0059926 2.22719e-05 0.000108616 1.82357e-11 -3.08948e-11 1.44614e-11 5e-05 1.46608e-10 
159 1 0.340721 0.0167614 0.00746245 0.00610048 -0.00109854 7.94724e-05 -2.38357e-10 -1.61434e-10 5.91108e-11 5e-05 1.46608e-10 
160 1 0.334865 0.0181774 0.0070419 0.00571568 8.99229e-05 7.4226e-05 -6.17602e-11 9.47725e-11 -5.86605e-11 5e-05 1.46608e-10 
162 1 0.335067 0.0186413 0.00692698 0.00562548 0.000175788 -3.00482e-05 -7.67625e-11 -1.34759e-11 -2.11132e-11 5e-05 1.46608e-10 
164 1 0.334416 0.016304 0.00787749 0.00557065 0.000117895 5.70999e-05 -6.03391e-12 -4.9495e-11 2.31721e-11 5e-05 1.46608e-10 
165 1 0.335015 0.0184777 0.00690949 0.00567085 5.74956e-05 8.66308e-05 1.51086e-10 -3.04943e-11 1.47424e-11 5e-05 1.46608e-10 
166 1 0.340719 0.0175518 0.00730323 0.00580498 -0.000908278 0.000676859 -3.15949e-11 -1.22083e-10 -1.71006e-11 5e-05 1.46608e-10 
167 1 0.33492 0.0184466 0.00692163 0.00566126 0.000100902 6.95789e-05 -2.47315e-10 2.676e-10 -1.18152e-10 5e-05 1.46608e-10 
168 1 0.335047 0.0186587 0.00683074 0.00570223 -3.06211e-05 -8.41864e-05 8.22428e-11 -1.06485e-10 -9.0134e-11 5e-05 1.46608e-10 
169 1 0.334938 0.0185365 0.00688145 0.00570961 7.65509e-05 8.17141e-05 -4.84318e-11 1.8213e-10 -1.52371e-10 5e-05 1.46608e-10 
170 1 0.335032 0.0185676 0.00686931 0.00571229 4.26557e-05 9.13462e-05 6.85817e-11 2.96093e-11 -4.73043e-11 5e-05 1.46608e-10 
171 1 0.340948 0.0181669 0.00730897 0.00572514 -0.000585456 -0.000633023 -3.2902e-11 1.12036e-10 -2.56253e-10 5e-05 1.46608e-10 
172 1 0.334697 0.0174632 0.00736051 0.00601704 2.18637e-05 0.000109396 -4.52299e-11 -3.69135e-11 1.17917e-11 5e-05 1.46608e-10 
173 1 0.340874 0.018296 0.00729868 0.00550355 -0.000694739 0.000646465 1.55802e-10 3.37727e-10 7.892e-12 5e-05 1.46608e-10 
174 1 0.334458 0.0164826 0.00779784 0.00596382 3.31994e-05 0.000103148 -1.19988e-12 -4.76717e-11 2.09762e-11 5e-05 1.46608e-10 
176 1 0.334771 0.0174029 0.00738918 0.0060133 1.69193e-05 0.000111557 -9.53065e-12 -2.86374e-13 -1.89217e-12 5e-05 1.46608e-10 
177 1 0.334358 0.016034 0.0079982 0.00565433 0.000124794 0.00012927 -1.25143e-11 -4.87299e-12 1.37026e-10 5e-05 1.46608e-10 
178 1 0.334912 0.0182639 0.00709782 0.00579954 1.65184e-05 0.000101713 -8.91164e-12 -7.40126e-11 -1.40659e-11 5e-05 1.46608e-10 
179 1 0.334903 0.0183573 0.00706177 0.00559934 0.00010262 6.56164e-05 -1.6989e-10 -2.35193e-10 -2.64164e-10 5e-05 1.46608e-10 
182 1 0.340834 0.0181003 0.00729987 0.00557674 -0.000778419 0.000664496 1.73261e-10 6.89683e-10 1.38808e-10 5e-05 1.46608e-10 
183 1 0.334762 0.0177306 0.00724124 0.00603116 1.01056e-05 0.000115044 6.33082e-12 4.01771e-12 8.07904e-13 5e-05 1.46608e-10 
184 1 0.340874 0.0178797 0.00731105 0.00567376 -0.000801764 0.000668809 -1.59154e-11 -2.34393e-10 -2.54614e-11 5e-05 1.46608e-10 
185 1 0.334975 0.0178769 0.00717951 0.00576806 0.000162245 4.13359e-05 -7.23305e-11 -2.59905e-10 1.20915e-10 5e-05 1.46608e-10 
186 1 0.334996 0.0188183 0.00688235 0.00568102 5.74913e-05 -7.1844e-05 -1.83873e-10 -1.42473e-10 1.00931e-12 5e-05 1.46608e-10 
187 1 0.340856 0.0177813 0.00731198 0.00570951 -0.000809898 0.000673524 -7.1469e-11 -1.84985e-10 -4.43436e-12 5e-05 1.46608e-10 
188 1 0.340689 0.0170023 0.00735408 0.00607283 -0.00099843 -9.37163e-05 -2.54236e-10 2.078e-10 -1.1849e-09 5e-05 1.46608e-10 
189 1 0.340797 0.0179371 0.00733787 0.00566319 -0.000834903 0.000692007 -7.65701e-11 -1.63497e-10 -7.75208e-11 5e-05 1.46608e-10 
190 1 0.328853 0.0181216 0.00704877 0.00579955 0.000195172 -0.000351921 9.64208e-11 7.48151e-11 -1.02783e-11 5e-05 1.46608e-10 
191 1 0.340452 0.0164414 0.00778026 0.00574067 0.000288804 0.00112645 2.08303e-11 1.78864e-10 -2.02293e-10 5e-05 1.46608e-10 
192 1 0.33474 0.0176415 0.007281 0.00602776 1.30866e-05 0.000113595 3.74097e-11 1.23436e-11 -4.29125e-12 5e-05 1.46608e-10 
193 1 0.341016 0.0180289 0.00733722 0.00583154 -0.000712083 -0.000125749 -3.16975e-10 -1.43005e-10 -1.06436e-10 5e-05 1.46608e-10 
194 1 0.335146 0.0186973 0.00683688 0.00574105 2.95691e-05 -2.52759e-05 1.18857e-10 -1.23251e-12 3.61122e-12 5e-05 1.46608e-10 
195 1 0.335091 0.0184192 0.00693735 0.00561894 9.53686e-06 0.000106199 3.45907e-10 6.82232e-11 -1.50742e-11 5e-05 1.46608e-10 
196 1 0.335035 0.0181488 0.00705816 0.00580982 1.30849e-05 0.000107723 2.45454e-10 -1.53436e-10 5.48145e-11 5e-05 1.46608e-10 
197 1 0.328518 0.0167299 0.00768793 0.00605554 0.000450821 0.000527426 1.42709e-10 2.0982e-10 -9.49176e-11 5e-05 1.46608e-10 
198 1 0.335049 0.017816 0.00720843 0.00588682 0.000278901 -9.23719e-06 1.20367e-10 -1.19926e-10 5.56875e-11 5e-05 1.46608e-10 
199 1 0.335168 0.0183615 0.00696489 0.00556555 -3.85358e-05 0.000128505 3.10498e-10 -2.64271e-11 7.84043e-12 5e-05 1.46608e-10 
200 1 0.334414 0.015885 0.00806634 0.00562778 9.11409e-05 7.40604e-05 1.07599e-10 -7.58576e-11 5.32606e-11 5e-05 1.46608e-10 
201 1 0.335109 0.0185097 0.00689693 0.00567755 2.09376e-07 0.000113198 -3.95236e-11 -7.15367e-11 2.34265e-11 5e-05 1.46608e-10 
202 1 0.33478 0.0170744 0.00753741 0.00599735 2.17267e-05 0.000108973 1.80576e-11 -3.02184e-11 1.36243e-11 5e-05 1.46608e-10 
203 1 0.340775 0.0173897 0.00731437 0.00583854 -0.000901374 0.00068746 3.7392e-10 -2.07763e-10 3.70332e-11 5e-05 1.46608e-10 
204 1 0.335185 0.0184514 0.0069247 0.00565394 -2.86236e-05 0.000124933 6.84917e-11 -3.94009e-11 2.81556e-11 5e-05 1.46608e-10 
205 1 0.334597 0.0166897 0.00770724 0.00597436 2.25478e-05 0.000108199 3.31473e-11 -3.74911e-11 1.59381e-11 5e-05 1.46608e-10 
206 1 0.334641 0.016868 0.00762772 0.00598566 2.36398e-05 0.000107833 2.54381e-11 -1.87092e-11 1.08925e-11 5e-05 1.46608e-10 
207 1 0.334512 0.0163328 0.00786641 0.00582361 5.57987e-05 8.97446e-05 7.33366e-11 -2.75416e-11 1.77246e-11 5e-05 1.46608e-10 
208 1 0.335091 0.0179998 0.00712644 0.00559279 3.41524e-05 9.59709e-05 1.76968e-10 -1.88196e-10 8.97232e-11 5e-05 1.46608e-10 
209 1 0.334888 0.0175202 0.00733863 0.00602261 5.12223e-06 0.000116969 1.37773e-12 -1.15303e-11 5.11088e-12 5e-05 1.46608e-10 
210 1 0.340547 0.0164679 0.00776227 0.00578961 0.000220029 0.00125571 -1.3097e-10 1.17836e-11 -7.78276e-11 5e-05 1.46608e-10 
211 1 0.340553 0.0165206 0.00767457 0.00581372 0.000234859 0.00123753 -5.30911e-11 1.48261e-11 -8.23897e-11 5e-05 1.46608e-10 
212 1 0.335125 0.0186013 0.00685593 0.00569795 5.53547e-05 9.0978e-05 1.62916e-10 -2.86224e-12 4.28211e-11 5e-05 1.46608e-10 
213 1 0.34078 0.0178454 0.00730142 0.00568987 -0.000836737 0.000677687 -5.61735e-11 -2.82219e-10 1.04658e-10 5e-05 1.46608e-10 
214 1 0.340647 0.0168242 0.00743877 0.00605801 -0.00111215 9.67372e-05 -1.1711e-12 -7.78772e-11 9.88675e-11 5e-05 1.46608e-10 
215 1 0.328751 0.0176391 0.00713108 0.00569751 0.000191833 -0.000340598 -1.60782e-10 -2.60902e-11 3.49023e-11 5e-05 1.46608e-10 
216 1 0.334492 0.0162434 0.00790632 0.00574186 7.46787e-05 8.0555e-05 -3.07686e-11 -2.68623e-12 2.13259e-11 5e-05 1.46608e-10 
217 1 0.340928 0.0180688 0.00731153 0.00558398 -0.00074917 0.000660938 -4.04248e-11 -1.74817e-11 1.33711e-10 5e-05 1.46608e-10 
218 1 0.334805 0.0179089 0.00716173 0.0060426 3.07684e-06 0.000118552 4.85647e-11 8.73426e-11 -2.89103e-11 5e-05 1.46608e-10 
219 1 0.340546 0.0168137 0.00755582 0.00607931 -0.000820169 9.83475e-05 -2.94903e-10 -1.8163e-10 -1.31464e-10 5e-05 1.46608e-10 
220 1 0.334921 0.0180283 0.0071102 0.00566277 8.61683e-05 7.30295e-05 1.23168e-10 1.74961e-10 -5.15497e-11 5e-05 1.46608e-10 
222 1 0.340902 0.0171587 0.0073357 0.00591988 -0.000820597 0.000698782 9.2549e-10 -5.26817e-10 2.45274e-10 5e-05 1.46608e-10 
224 1 0.334684 0.0170463 0.00754821 0.00599538 2.46719e-05 0.000107657 1.73081e-11 -3.31918e-11 1.34957e-11 5e-05 1.46608e-10 
225 1 0.340492 0.0165998 0.00766819 0.0060296 0.000413225 0.00147857 -3.03501e-10 -1.52724e-10 -1.48777e-10 5e-05 1.46608e-10 
226 1 0.33513 0.0181799 0.00704598 0.00571714 9.97169e-05 6.8553e-05 -6.79261e-10 5.27643e-10 -2.50735e-10 5e-05 1.46608e-10 
227 1 0.328771 0.0177356 0.00711462 0.00572324 0.000192646 -0.000346722 -3.84476e-11 -7.94611e-11 4.76444e-11 5e-05 1.46608e-10 
228 1 0.32871 0.0174537 0.00718859 0.00630268 0.00046291 0.00056099 -1.24466e-10 2.30359e-10 -1.1691e-10 5e-05 1.46608e-10 
229 1 0.33507 0.0187618 0.00684658 0.00575019 3.23248e-05 -7.23938e-05 1.46318e-10 2.23245e-11 4.8804e-12 5e-05 1.46608e-10 
230 1 0.334588 0.0170174 0.0075593 0.0059939 2.68702e-05 0.000106548 7.32735e-12 2.79161e-12 3.13471e-13 5e-05 1.46608e-10 
232 1 0.33519 0.0188904 0.00686501 0.00556016 7.76402e-05 -6.88869e-05 1.73081e-10 1.39586e-10 2.18077e-11 5e-05 1.46608e-10 
233 1 0.334902 0.0183567 0.00696178 0.00560427 0.000123685 6.20512e-05 -1.07948e-10 8.97014e-11 -1.10316e-10 5e-05 1.46608e-10 
234 1 0.340594 0.0169768 0.00737632 0.00599966 -0.00107333 0.000297835 -3.2745e-11 3.05358e-11 3.93975e-10 5e-05 1.46608e-10 
235 1 0.334545 0.0168392 0.00763881 0.00598376 2.69061e-05 0.000106342 2.31428e-11 -1.70663e-12 1.23424e-13 5e-05 1.46608e-10 
236 1 0.334653 0.0172849 0.00744002 0.0060098 2.55093e-05 0.00010754 -3.96494e-12 7.05435e-12 1.17043e-13 5e-05 1.46608e-10 
237 1 0.334675 0.017374 0.00740027 0.00601171 2.19214e-05 0.00010899 1.93389e-11 -1.81848e-11 8.91287e-12 5e-05 1.46608e-10 
239 1 0.328412 0.0163278 0.00796534 0.00590871 0.000456575 0.000500096 -3.91142e-13 1.74062e-12 9.14718e-12 5e-05 1.46608e-10 
240 1 0.328476 0.016569 0.00779889 0.00596867 0.000448285 0.000510074 -6.78446e-11 -2.42443e-10 1.34257e-11 5e-05 1.46608e-10 
241 1 0.328391 0.0162473 0.00802082 0.00588415 0.00046017 0.00049315 -1.0425e-11 -2.27228e-11 2.95653e-12 5e-05 1.46608e-10 
242 1 0.334628 0.0164503 0.00781573 0.0059306 1.78393e-05 0.000109403 7.47611e-11 -2.07706e-11 1.05843e-11 5e-05 1.46608e-10 
243 1 0.335016 0.018059 0.00709825 0.00561087 5.62379e-05 8.71422e-05 7.18899e-11 -7.40265e-11 3.67811e-11 5e-05 1.46608e-10 
244 1 0.328433 0.0164082 0.00790986 0.00594067 0.000453325 0.000507445 -5.61504e-12 -1.20777e-11 2.71787e-12 5e-05 1.46608e-10 
246 1 0.328625 0.017132 0.00741052 0.00614899 0.000457087 0.000525289 -5.3967e-10 -4.35132e-10 -5.69359e-11 5e-05 1.46608e-10 
247 1 0.33448 0.0165717 0.00775808 0.00596808 2.74112e-05 0.000105842 2.25539e-11 -6.13856e-11 2.67404e-11 5e-05 1.46608e-10 
248 1 0.334883 0.0181623 0.00713906 0.00560646 6.05498e-05 8.95124e-05 -1.41418e-10 -1.55599e-10 -9.15871e-11 5e-05 1.46608e-10 
249 1 0.328561 0.0168907 0.00757696 0.0060845 0.00044696 0.000528672 -2.95332e-10 -2.17981e-10 -7.07484e-11 5e-05 1.46608e-10 
250 1 0.334554 0.0165114 0.00778675 0.00596924 2.52682e-05 0.00010685 9.92263e-11 -5.44908e-11 2.65341e-11 5e-05 1.46608e-10 
251 1 0.340754 0.0172919 0.00731492 0.00587975 -0.000910848 0.000693811 5.23683e-10 -3.15037e-10 -1.49268e-10 5e-05 1.46608e-10 
252 1 0.328646 0.0172124 0.00735503 0.00623288 0.000485087 0.000535383 -3.37443e-10 -1.49593e-10 7.92016e-11 5e-05 1.46608e-10 
253 1 0.328832 0.0180251 0.00706523 0.00578364 0.000204903 -0.000352063 -1.83237e-10 1.01418e-11 1.88408e-11 5e-05 1.46608e-10 
254 1 0.328582 0.0169712 0.00752148 0.00614419 0.000454275 0.000545877 3.59596e-11 2.21105e-10 -1.4068e-10 5e-05 1.46608e-10 
255 1 0.335114 0.0189549 0.00687624 0.00556736 7.87829e-05 -6.85533e-05 8.41594e-11 -9.42946e-11 -3.58736e-12 5e-05 1.46608e-10 
256 1 0.335033 0.019013 0.00688655 0.00558822 8.49612e-05 -6.6604e-05 7.08845e-11 -1.61579e-10 -2.43917e-11 5e-05 1.46608e-10 
257 1 0.334736 0.0168961 0.00761693 0.00598714 2.17261e-05 0.000108782 3.71166e-11 -2.84307e-11 1.39226e-11 5e-05 1.46608e-10 
258 1 0.334984 0.0182002 0.00712675 0.00583048 3.11868e-05 0.000104442 2.8045e-10 -3.14641e-10 2.71966e-11 5e-05 1.46608e-10 
259 1 0.328667 0.0172929 0.00729955 0.00624446 0.000471377 0.000537673 2.99376e-10 9.6117e-11 9.70531e-11 5e-05 1.46608e-10 
260 1 0.334997 0.0183879 0.0069496 0.00562178 6.88086e-05 7.89861e-05 8.5919e-11 -5.95693e-11 1.81667e-12 5e-05 1.46608e-10 