ITEM: TIMESTEP
39600000
ITEM: NUMBER OF ATOMS
275
ITEM: BOX BOUNDS ff ff ff
-0.02 0.43
-0.02 0.06
-0.02 0.07
ITEM: ATOMS id type x y z vx vy vz fx fy fz radius mass 
1 1 0.244163 0.0182332 0.00704578 0.00549932 5.89896e-05 1.28229e-05 -3.94928e-11 3.298e-11 8.72015e-13 5e-05 1.46608e-10 
2 1 0.243843 0.017163 0.00743665 0.00601145 -5.49672e-05 3.09301e-05 6.51724e-12 1.08782e-10 -9.91733e-11 5e-05 1.46608e-10 
4 1 0.243994 0.0170609 0.00752028 0.00611569 5.30572e-05 -5.98793e-05 -8.24971e-11 5.49439e-11 -5.04191e-11 5e-05 1.46608e-10 
5 1 0.24335 0.0154674 0.00889154 0.00554686 -4.79778e-05 -0.000133882 -1.52612e-10 1.39834e-10 -1.21803e-10 5e-05 1.46608e-10 
6 1 0.249797 0.0169583 0.00749791 0.00615523 0.000334428 0.000178932 4.35167e-12 2.79577e-12 -6.09118e-13 5e-05 1.46608e-10 
7 1 0.244123 0.0175939 0.00708136 0.0058037 -4.06857e-05 2.08595e-05 -1.38377e-10 -3.96671e-12 -4.84417e-11 5e-05 1.46608e-10 
8 1 0.243831 0.0168096 0.00772751 0.00596573 -6.49814e-05 3.75443e-05 -3.37689e-10 1.45516e-10 -1.08496e-10 5e-05 1.46608e-10 
9 1 0.249997 0.0178399 0.00707047 0.00573838 0.000404512 0.000120567 -5.00157e-12 3.51552e-12 2.73433e-12 5e-05 1.46608e-10 
10 1 0.243478 0.0159003 0.00850972 0.00576281 -0.000136997 -6.17169e-05 2.02311e-10 6.78911e-11 -5.0389e-11 5e-05 1.46608e-10 
11 1 0.244035 0.0177801 0.00711704 0.00572448 -3.39277e-05 6.73578e-06 -8.38102e-11 -1.49844e-10 -6.45264e-12 5e-05 1.46608e-10 
12 1 0.238128 0.0172124 0.00724733 0.00586164 -0.000135853 0.000145226 1.06757e-10 8.69731e-12 6.35307e-12 5e-05 1.46608e-10 
13 1 0.243329 0.0153941 0.0089562 0.00534053 -6.20268e-06 -0.00016335 2.20462e-10 1.5363e-11 -2.15793e-11 5e-05 1.46608e-10 
14 1 0.238083 0.0176606 0.00713195 0.00540232 -0.000128389 0.000108028 -5.02601e-11 -1.079e-10 -1.55761e-10 5e-05 1.46608e-10 
16 1 0.238342 0.0182333 0.00693565 0.00560889 -0.000212974 3.37717e-06 8.52618e-11 -9.50351e-11 1.97775e-11 5e-05 1.46608e-10 
17 1 0.243484 0.015825 0.00857522 0.00574278 -0.000134679 -6.51158e-05 1.57744e-10 -3.82097e-11 1.48164e-11 5e-05 1.46608e-10 
19 1 0.24331 0.0153205 0.00902103 0.0054699 -1.8105e-05 -0.000155898 -3.52461e-11 1.9497e-12 3.63365e-11 5e-05 1.46608e-10 
21 1 0.244161 0.017775 0.00703099 0.00577512 0.000128758 1.81566e-05 8.17695e-11 -4.48885e-11 -9.13483e-12 5e-05 1.46608e-10 
22 1 0.243797 0.0166576 0.00785276 0.00589975 -6.62007e-05 3.68531e-05 -4.65652e-11 7.85976e-11 -7.61769e-11 5e-05 1.46608e-10 
23 1 0.238304 0.0180403 0.0069721 0.00547545 -0.000291332 1.69446e-05 -8.9817e-11 -2.50096e-10 6.76713e-11 5e-05 1.46608e-10 
24 1 0.24992 0.0174867 0.0072419 0.00583168 0.000389847 0.000133093 2.17904e-11 3.90383e-11 -3.24679e-11 5e-05 1.46608e-10 
25 1 0.243532 0.0160443 0.00838239 0.00576612 -0.000143994 -5.73577e-05 4.23337e-11 7.14873e-11 -9.71802e-11 5e-05 1.46608e-10 
26 1 0.249959 0.0176632 0.00715626 0.00565991 0.000420815 0.000108662 6.45108e-11 1.02981e-10 -3.63325e-11 5e-05 1.46608e-10 
27 1 0.237899 0.0169849 0.00737623 0.00572294 -0.000202387 0.000182156 -3.91134e-11 9.10593e-11 -5.40729e-11 5e-05 1.46608e-10 
28 1 0.243918 0.0171116 0.00747874 0.00605259 -1.12008e-05 -6.97776e-06 -6.98464e-11 7.33237e-11 -5.4113e-11 5e-05 1.46608e-10 
29 1 0.24329 0.0152469 0.00908588 0.00549574 -1.15549e-05 -0.000163318 2.58907e-12 3.9134e-13 5.03613e-12 5e-05 1.46608e-10 
30 1 0.243607 0.0163388 0.00812308 0.00582331 -0.000121699 -2.47121e-05 7.06471e-11 -7.92571e-11 1.54996e-11 5e-05 1.46608e-10 
31 1 0.244204 0.0175401 0.00712535 0.00589678 8.92758e-05 -6.98881e-05 7.71756e-11 -2.14979e-11 -9.08968e-11 5e-05 1.46608e-10 
32 1 0.243542 0.0161191 0.00831685 0.00578519 -0.000153079 -6.11494e-05 4.4926e-11 3.19256e-11 -1.87738e-11 5e-05 1.46608e-10 
33 1 0.249819 0.0170462 0.00745539 0.00614146 0.000335903 0.000177482 -6.13825e-13 2.33065e-11 -1.14284e-11 5e-05 1.46608e-10 
34 1 0.243436 0.0157653 0.00863964 0.00569238 -0.000113032 -9.57745e-05 -9.64993e-11 -1.51156e-11 -3.87224e-12 5e-05 1.46608e-10 
35 1 0.244088 0.0174419 0.00720645 0.00578035 -5.93729e-05 3.25829e-05 -1.38392e-10 1.01892e-10 -7.34001e-11 5e-05 1.46608e-10 
36 1 0.250052 0.0181051 0.00694162 0.00569861 0.000410626 0.000115353 3.02283e-12 3.76106e-12 -6.88442e-12 5e-05 1.46608e-10 
37 1 0.243972 0.0169855 0.00758237 0.00609619 2.43457e-05 -3.61369e-05 1.91108e-11 1.47971e-10 -1.22158e-10 5e-05 1.46608e-10 
38 1 0.244052 0.0172889 0.0073325 0.00577927 0.000195079 -0.000175922 -1.0457e-10 1.11377e-10 -9.08698e-11 5e-05 1.46608e-10 
39 1 0.24994 0.0175749 0.00719916 0.00580478 0.000407598 0.000124753 -5.14347e-10 1.16721e-10 -1.15387e-10 5e-05 1.46608e-10 
41 1 0.243397 0.0156131 0.00876292 0.00568329 -8.58191e-05 -0.00010535 2.13105e-10 -6.82203e-12 2.57198e-12 5e-05 1.46608e-10 
42 1 0.244089 0.0170856 0.00749969 0.00603905 3.38364e-05 -4.39016e-05 -8.03778e-13 -3.6722e-11 3.14921e-11 5e-05 1.46608e-10 
44 1 0.244147 0.0173127 0.00731261 0.00581879 9.27167e-05 -9.22197e-05 -7.48146e-11 5.76014e-11 -5.14778e-11 5e-05 1.46608e-10 
45 1 0.24984 0.0171341 0.00741287 0.00605189 0.000351176 0.000164734 -9.46095e-11 1.2205e-11 -1.47407e-11 5e-05 1.46608e-10 
47 1 0.243414 0.015687 0.00869786 0.00567883 -9.63953e-05 -9.49783e-05 -2.67411e-11 -3.3143e-11 6.15252e-11 5e-05 1.46608e-10 
48 1 0.24403 0.0180049 0.00703816 0.00553124 1.36951e-05 1.00514e-05 -4.91853e-11 3.30445e-11 -3.66827e-11 5e-05 1.46608e-10 
49 1 0.250016 0.0179283 0.00702755 0.0056185 0.000422644 0.000104956 -1.68255e-12 4.37393e-13 6.50347e-13 5e-05 1.46608e-10 
50 1 0.243563 0.0161924 0.00825217 0.00579464 -0.00014924 -5.23247e-05 6.88349e-11 -1.70968e-11 -1.24344e-12 5e-05 1.46608e-10 
51 1 0.244223 0.0176162 0.00706338 0.00585353 0.000151562 -1.39874e-05 3.2647e-11 -3.07087e-11 -1.14587e-10 5e-05 1.46608e-10 
52 1 0.238186 0.0174675 0.00710054 0.00553873 -1.3331e-05 7.2516e-05 -2.60096e-10 1.73298e-10 -1.50415e-10 5e-05 1.46608e-10 
53 1 0.24988 0.0173104 0.00732739 0.00577408 0.000393398 0.000128286 3.11806e-12 1.17659e-11 -6.19039e-12 5e-05 1.46608e-10 
54 1 0.24437 0.0179375 0.00703664 0.00555971 0.000358425 2.20656e-05 1.31021e-12 -1.16851e-10 -1.36533e-12 5e-05 1.46608e-10 
55 1 0.238072 0.0173539 0.00716497 0.00573237 -0.000163123 0.000160249 2.63054e-11 1.30098e-10 -3.23664e-11 5e-05 1.46608e-10 
56 1 0.24435 0.0178392 0.00703343 0.00566923 0.000360776 2.25693e-05 6.09675e-11 7.02645e-12 7.39977e-13 5e-05 1.46608e-10 
57 1 0.24986 0.0172222 0.00737014 0.00574591 0.000398941 0.000123885 8.91436e-12 1.2271e-11 -3.29423e-12 5e-05 1.46608e-10 
59 1 0.378022 0.019866 0.005332 -5.01956e-15 -7.41205e-15 7.69802e-14 1.29247e-24 6.17801e-24 6.20385e-25 5e-05 1.46608e-10 
60 1 0.244167 0.0173884 0.00725026 0.005913 7.5259e-05 -7.91423e-05 3.56759e-11 2.56203e-11 -3.85312e-11 5e-05 1.46608e-10 
61 1 0.243371 0.0155407 0.00882692 0.00566428 -7.21086e-05 -0.000117859 -1.77139e-11 1.02712e-10 -9.66585e-11 5e-05 1.46608e-10 
62 1 0.24407 0.017366 0.00726899 0.00572375 -6.1439e-05 3.48338e-05 1.0265e-10 9.4736e-11 -7.32995e-11 5e-05 1.46608e-10 
63 1 0.244049 0.0181029 0.00704136 0.00550651 2.36778e-05 1.12128e-05 -1.11703e-10 3.18557e-11 -6.47996e-12 5e-05 1.46608e-10 
64 1 0.2499 0.0173986 0.00728465 0.00580276 0.000389506 0.000131636 -8.63341e-14 2.39344e-11 -1.25831e-11 5e-05 1.46608e-10 
65 1 0.238014 0.0174957 0.0070823 0.00567441 -0.000198668 0.000175018 -1.26681e-10 -1.69952e-10 7.82253e-11 5e-05 1.46608e-10 
66 1 0.23806 0.018007 0.00706471 0.00554819 -0.000176381 -1.07058e-05 2.88891e-10 -4.87242e-12 5.46865e-11 5e-05 1.46608e-10 
67 1 0.24418 0.017873 0.00703419 0.00564946 0.000200055 1.88382e-05 1.64039e-10 -1.28355e-10 -5.57694e-12 5e-05 1.46608e-10 
68 1 0.243976 0.0173401 0.00729053 0.00580734 -9.16362e-06 -8.69855e-06 1.59455e-10 9.51451e-11 -7.45422e-11 5e-05 1.46608e-10 
69 1 0.244256 0.0178072 0.00703222 0.0057233 0.000200413 1.75009e-05 3.50409e-11 -1.3059e-11 -3.23087e-12 5e-05 1.46608e-10 
70 1 0.249978 0.0177516 0.00711337 0.00569674 0.000410778 0.000115166 -3.31363e-12 2.76495e-11 -2.40395e-11 5e-05 1.46608e-10 
71 1 0.23841 0.0186398 0.00685894 0.0056539 -0.000228629 4.24925e-06 4.02205e-11 -2.28754e-10 7.17162e-11 5e-05 1.46608e-10 
72 1 0.244219 0.0180693 0.0070406 0.00547741 0.000161083 1.63195e-05 -2.40556e-10 1.03564e-10 -7.53466e-12 5e-05 1.46608e-10 
73 1 0.243499 0.0159737 0.00844506 0.00575531 -0.000137381 -6.25961e-05 1.06885e-10 1.29895e-10 -1.2397e-10 5e-05 1.46608e-10 
74 1 0.243585 0.0162655 0.00818765 0.0058043 -0.000142081 -4.82214e-05 1.2202e-11 -7.49456e-11 -1.42149e-11 5e-05 1.46608e-10 
76 1 0.238014 0.0170986 0.00731182 0.00580295 -0.000195563 0.000179255 -1.03004e-10 3.14341e-11 -1.64135e-11 5e-05 1.46608e-10 
77 1 0.243863 0.0172386 0.00737435 0.00590616 -4.07652e-05 2.42579e-05 -6.7537e-11 1.0523e-10 -8.41268e-11 5e-05 1.46608e-10 
78 1 0.237395 0.0155072 0.00862195 0.00554551 -0.000115918 0.000182758 8.21876e-11 1.07068e-10 -1.31312e-10 5e-05 1.46608e-10 
79 1 0.238334 0.018704 0.00684737 0.00565884 -0.000229759 1.59691e-05 5.00824e-11 5.57274e-12 -5.3181e-11 5e-05 1.46608e-10 
80 1 0.243938 0.0171874 0.00741632 0.00601577 3.24061e-05 -4.30176e-05 -1.17115e-10 -1.40911e-11 1.13859e-11 5e-05 1.46608e-10 
82 1 0.238155 0.0180378 0.00705788 0.00548474 -0.000161768 4.23025e-05 -2.86281e-10 2.91071e-10 -1.06739e-10 5e-05 1.46608e-10 
83 1 0.238147 0.0172975 0.00719837 0.00583026 -7.09781e-05 0.000108314 3.96644e-11 2.20425e-10 -1.36471e-10 5e-05 1.46608e-10 
84 1 0.250034 0.0180167 0.00698459 0.00565835 0.000416802 0.000110243 -4.88107e-13 9.45694e-13 3.9966e-12 5e-05 1.46608e-10 
85 1 0.238221 0.0189501 0.00683536 0.00562836 -0.000213601 0.000498235 -3.93289e-13 -8.82923e-11 -2.1927e-11 5e-05 1.46608e-10 
86 1 0.244128 0.017237 0.00737496 0.00584978 8.91251e-05 -8.91765e-05 -1.66108e-10 7.3344e-11 -5.94887e-11 5e-05 1.46608e-10 
87 1 0.243896 0.0170362 0.00754083 0.00603767 -2.98788e-05 8.38396e-06 2.92614e-11 1.0911e-10 -8.89124e-11 5e-05 1.46608e-10 
88 1 0.244029 0.0175687 0.00710228 0.00579356 -1.96235e-05 7.26511e-07 -4.92652e-11 -6.44907e-11 4.76723e-11 5e-05 1.46608e-10 
89 1 0.244099 0.0177019 0.00711492 0.00570858 -8.21028e-05 5.38978e-06 2.1327e-10 -9.13493e-11 -2.07669e-11 5e-05 1.46608e-10 
90 1 0.2442 0.0179711 0.0070374 0.00554873 0.000159515 1.75e-05 7.35324e-12 -5.74223e-11 -5.35597e-12 5e-05 1.46608e-10 
91 1 0.238109 0.0171273 0.0072963 0.00587215 -0.000167648 0.000164098 1.61325e-10 -1.00487e-10 6.09544e-11 5e-05 1.46608e-10 
92 1 0.243952 0.0176183 0.00706159 0.00576819 -3.41597e-05 1.14448e-05 1.59633e-11 -1.36629e-11 3.84143e-11 5e-05 1.46608e-10 
93 1 0.243672 0.0165609 0.00793262 0.00589652 -7.7366e-05 4.78301e-05 1.02663e-10 -2.97951e-11 2.79119e-11 5e-05 1.46608e-10 
94 1 0.244059 0.0178833 0.00711941 0.00562108 2.14247e-05 9.74156e-06 -6.86629e-11 4.80331e-11 -9.88352e-11 5e-05 1.46608e-10 
95 1 0.243949 0.0174897 0.00727877 0.00579839 -5.68128e-06 -7.78194e-06 -1.40968e-10 5.3092e-12 2.47692e-11 5e-05 1.46608e-10 
96 1 0.243935 0.0175423 0.0071242 0.00578606 -3.35508e-05 1.20709e-05 1.59374e-11 -1.55477e-11 6.29904e-11 5e-05 1.46608e-10 
97 1 0.237517 0.0158065 0.00824285 0.00595372 -0.000264197 0.000208492 -9.434e-11 4.91977e-11 -4.09229e-11 5e-05 1.46608e-10 
98 1 0.243649 0.0164859 0.00799447 0.00587652 -7.34584e-05 4.3919e-05 -9.67274e-11 -5.16336e-11 7.6906e-12 5e-05 1.46608e-10 
99 1 0.238038 0.0180415 0.00697362 0.00557126 -0.000172028 -5.78145e-06 2.18996e-10 -1.29945e-11 5.96247e-11 5e-05 1.46608e-10 
100 1 0.244141 0.0176765 0.00702778 0.00576426 -2.31285e-05 1.37162e-05 1.46027e-12 -6.86009e-11 -3.21975e-11 5e-05 1.46608e-10 
101 1 0.238057 0.0181378 0.00695541 0.00557982 -0.000170904 -4.47459e-06 -1.70222e-10 1.69004e-10 -1.86565e-11 5e-05 1.46608e-10 
102 1 0.0643568 0.0187248 0.00531097 4.22951e-15 1.05333e-14 8.29576e-14 1.13382e-21 -3.68612e-23 -5.39735e-23 5e-05 1.46608e-10 
103 1 0.24257 0.0191927 0.00520306 -7.91558e-23 -1.27651e-22 8.29106e-22 0 0 0 5e-05 1.46608e-10 
104 1 0.238358 0.0183393 0.00691565 0.00561092 -0.000235904 7.45271e-06 7.68396e-11 -1.29575e-10 1.99406e-11 5e-05 1.46608e-10 
105 1 0.237454 0.0156889 0.0083908 0.00562459 -0.000195196 0.000132461 1.41557e-10 1.0635e-10 -1.75795e-10 5e-05 1.46608e-10 
106 1 0.238054 0.0176871 0.00703999 0.00557536 -0.000141471 -9.52738e-06 2.94695e-11 2.5377e-11 -5.91991e-11 5e-05 1.46608e-10 
107 1 0.237414 0.015567 0.00854433 0.00552566 -0.000119242 0.000174206 2.31422e-10 8.08415e-11 -1.34657e-10 5e-05 1.46608e-10 
108 1 0.244275 0.0179053 0.00703542 0.0056019 0.000230443 1.76316e-05 -1.45474e-11 -3.93092e-11 2.33529e-11 5e-05 1.46608e-10 
109 1 0.244322 0.0176585 0.00702755 0.00571524 -1.7439e-05 7.00459e-06 1.81362e-10 6.35552e-11 -1.42511e-11 5e-05 1.46608e-10 
110 1 0.243822 0.0170876 0.00749874 0.00600743 -5.93263e-05 3.31563e-05 1.0264e-10 8.50912e-11 -7.4741e-11 5e-05 1.46608e-10 
111 1 0.243778 0.0169369 0.00762289 0.00596975 -7.25606e-05 4.35667e-05 -8.85171e-11 6.77509e-11 -4.79779e-11 5e-05 1.46608e-10 
112 1 0.237537 0.0159297 0.00808876 0.00616811 -0.000269839 0.000212425 4.94426e-12 -4.14615e-11 4.04882e-11 5e-05 1.46608e-10 
113 1 0.237939 0.0175611 0.00707068 0.00570202 -0.000180868 0.000115847 -1.35545e-11 -7.2429e-11 7.1097e-11 5e-05 1.46608e-10 
114 1 0.237999 0.0178487 0.00701004 0.00544599 -0.000161103 -3.86068e-06 -2.10939e-10 -1.75944e-10 -1.25059e-10 5e-05 1.46608e-10 
115 1 0.244108 0.0171613 0.0074373 0.00602107 7.03558e-05 -7.36456e-05 -1.08668e-10 1.5784e-11 -1.75215e-11 5e-05 1.46608e-10 
116 1 0.244105 0.017939 0.00703618 0.00557738 8.34401e-05 1.31754e-05 -3.18396e-11 -6.61802e-13 -2.50672e-12 5e-05 1.46608e-10 
117 1 0.244107 0.0175178 0.00714395 0.00580764 -5.26328e-05 2.86983e-05 -2.62574e-10 5.98943e-11 -6.29602e-11 5e-05 1.46608e-10 
118 1 0.238111 0.0175284 0.00707615 0.00542405 -0.000132296 9.27056e-05 -2.58744e-10 9.7905e-11 -9.10965e-11 5e-05 1.46608e-10 
119 1 0.244294 0.0180035 0.00703862 0.0055591 0.000131252 1.51812e-05 -4.63312e-11 -1.21761e-10 9.33706e-12 5e-05 1.46608e-10 
120 1 0.243814 0.0167337 0.0077901 0.0059168 -6.18309e-05 3.53789e-05 -2.70581e-10 1.11027e-10 -1.07996e-10 5e-05 1.46608e-10 
121 1 0.244183 0.0183313 0.00704899 0.00552157 8.76662e-05 1.3252e-05 1.59866e-10 3.64107e-11 -3.94962e-12 5e-05 1.46608e-10 
122 1 0.243918 0.0174663 0.00718685 0.00578312 -3.09036e-05 8.94053e-06 -6.1785e-13 -3.83578e-12 2.23101e-11 5e-05 1.46608e-10 
123 1 0.238372 0.0188189 0.00683716 0.00563185 -0.000205466 0.000502423 9.9503e-11 -1.2563e-10 2.88392e-12 5e-05 1.46608e-10 
124 1 0.243702 0.0166392 0.00787788 0.00590325 -8.01922e-05 4.53867e-05 3.17583e-11 2.50303e-11 3.27848e-11 5e-05 1.46608e-10 
125 1 0.244012 0.0174926 0.00716493 0.00579552 -2.53857e-05 5.77711e-06 2.13223e-13 -5.76723e-11 6.11744e-11 5e-05 1.46608e-10 
127 1 0.237478 0.0157503 0.00831559 0.00578711 -0.000218036 0.00015958 -1.65367e-10 1.75056e-10 -1.46639e-10 5e-05 1.46608e-10 
128 1 0.243628 0.0164123 0.00805866 0.00584752 -8.80991e-05 1.8424e-05 -1.1293e-10 -5.65599e-11 -1.86497e-11 5e-05 1.46608e-10 
129 1 0.244001 0.0176834 0.00712001 0.00574112 -4.03566e-05 2.42154e-06 2.1111e-10 1.67556e-10 2.25412e-11 5e-05 1.46608e-10 
130 1 0.238093 0.0178802 0.00700352 0.00551947 -0.00022176 6.35814e-06 3.71254e-10 -5.3523e-10 2.85636e-11 5e-05 1.46608e-10 
131 1 0.238113 0.0179766 0.0069853 0.00555801 -0.000192775 2.20083e-06 1.69801e-10 1.2105e-10 -3.53786e-11 5e-05 1.46608e-10 
132 1 0.244013 0.0171365 0.00745797 0.00603695 3.30705e-05 -4.35986e-05 -4.16216e-11 -1.94996e-11 1.435e-11 5e-05 1.46608e-10 
133 1 0.244124 0.0180371 0.00703938 0.00551072 6.72977e-05 1.22568e-05 -2.83516e-11 -3.09542e-11 -2.42511e-11 5e-05 1.46608e-10 
134 1 0.244086 0.0178409 0.00703298 0.00569982 5.54955e-05 1.33924e-05 9.14352e-11 -3.41013e-11 -2.11122e-11 5e-05 1.46608e-10 
135 1 0.244236 0.0177092 0.00702901 0.00582411 0.000174 1.91153e-05 1.08754e-10 -2.03263e-11 -1.54986e-11 5e-05 1.46608e-10 
136 1 0.238053 0.0172688 0.0072139 0.00582734 -0.000177824 0.000168982 1.30451e-10 5.22572e-11 -1.24909e-11 5e-05 1.46608e-10 
137 1 0.243938 0.0175699 0.00722025 0.00569469 -6.75458e-06 5.96145e-06 2.16481e-11 7.33357e-11 1.537e-10 5e-05 1.46608e-10 
138 1 0.243991 0.0178087 0.00703176 0.00572521 -3.06076e-05 6.37657e-06 3.09049e-11 4.54145e-11 -1.8601e-11 5e-05 1.46608e-10 
140 1 0.243882 0.0173161 0.00731388 0.00569453 -1.02203e-05 4.99207e-06 -4.10545e-11 6.80223e-11 -6.49615e-11 5e-05 1.46608e-10 
141 1 0.237895 0.0165883 0.0076054 0.00580646 -0.000221165 0.000194097 6.57591e-11 4.53063e-11 -3.19885e-11 5e-05 1.46608e-10 
142 1 0.238264 0.0178475 0.00700853 0.00511983 -0.000226434 8.96193e-06 -5.00437e-10 1.07872e-10 -1.58532e-11 5e-05 1.46608e-10 
143 1 0.237434 0.015628 0.00846747 0.00554292 -0.000170978 0.000135141 6.7014e-11 2.34793e-10 -7.01442e-11 5e-05 1.46608e-10 
144 1 0.23815 0.0177197 0.00703325 0.00524174 -0.000116718 -3.06425e-06 5.74559e-10 -1.25105e-10 2.50234e-10 5e-05 1.46608e-10 
146 1 0.237611 0.0160469 0.00795621 0.00622899 -0.000304558 0.0002193 -2.3599e-10 -1.04186e-10 -4.41785e-11 5e-05 1.46608e-10 
147 1 0.238074 0.0177836 0.00702176 0.00534255 -7.67108e-05 -2.12702e-05 3.35385e-10 -4.74919e-10 -3.46906e-11 5e-05 1.46608e-10 
148 1 0.237915 0.0166733 0.00755653 0.00580586 -0.000140133 0.000147237 1.5369e-10 -1.9462e-11 1.20336e-11 5e-05 1.46608e-10 
149 1 0.243735 0.0167862 0.00774704 0.00592828 -7.82604e-05 4.83097e-05 1.73288e-10 -1.35122e-11 1.69235e-11 5e-05 1.46608e-10 
150 1 0.238202 0.0188526 0.0068246 0.00565574 -0.00022002 0.000505003 -9.66827e-12 -8.4356e-11 -3.2765e-11 5e-05 1.46608e-10 
151 1 0.238191 0.0183623 0.00691242 0.00561544 -0.000208745 2.11867e-06 3.34036e-11 -8.65628e-11 9.07224e-12 5e-05 1.46608e-10 
153 1 0.237935 0.0167583 0.00750764 0.00571149 -0.000169411 0.000163369 -1.15819e-10 -8.33799e-11 5.1227e-11 5e-05 1.46608e-10 
154 1 0.2376 0.0159777 0.0080276 0.00620712 -0.00028621 0.000232485 -6.61605e-12 -4.42703e-11 1.14453e-12 5e-05 1.46608e-10 
155 1 0.237595 0.0161095 0.00787974 0.00622976 -0.000293266 0.000232599 4.46916e-11 -3.36137e-11 1.86733e-11 5e-05 1.46608e-10 
156 1 0.237873 0.0165019 0.00765511 0.00619334 -0.000244364 0.000212001 1.23156e-10 7.56951e-12 -2.07987e-11 5e-05 1.46608e-10 
157 1 0.0219312 0.0187687 0.00551176 -3.82879e-14 8.16961e-14 2.95885e-13 5.96552e-22 1.44757e-23 7.65142e-23 5e-05 1.46608e-10 
158 1 0.237974 0.0169283 0.00740983 0.00571522 -0.000211255 0.0001874 -7.71032e-11 1.97328e-11 -1.23087e-11 5e-05 1.46608e-10 
159 1 0.244033 0.0172128 0.00739512 0.0058124 0.000156785 -0.000144457 -9.25036e-11 1.99302e-10 -1.60642e-10 5e-05 1.46608e-10 
160 1 0.238077 0.0182342 0.0069372 0.00560784 -0.000179852 -6.1597e-07 1.13858e-10 2.74351e-10 -8.51056e-11 5e-05 1.46608e-10 
162 1 0.238096 0.0181955 0.00702741 0.00562684 -0.000205254 2.33275e-06 -5.14952e-11 2.3393e-10 -4.13954e-11 5e-05 1.46608e-10 
164 1 0.23766 0.0163631 0.00773333 0.00621534 -0.000288044 0.000229918 -1.84275e-10 -5.5985e-11 9.15293e-11 5e-05 1.46608e-10 
165 1 0.238231 0.0185549 0.00687602 0.00563478 -0.000211292 1.14442e-06 6.10877e-11 -4.72364e-11 -5.93025e-12 5e-05 1.46608e-10 
166 1 0.24401 0.0179068 0.00703496 0.00561074 -6.94392e-06 2.81943e-06 -6.76287e-11 5.98146e-11 -4.85991e-11 5e-05 1.46608e-10 
167 1 0.238155 0.0186198 0.00686435 0.00565485 -0.000211695 3.43332e-06 4.5259e-11 2.64222e-11 -4.84926e-12 5e-05 1.46608e-10 
168 1 0.238278 0.0187863 0.0068382 0.00562387 -0.000219005 0.000263732 6.1401e-11 2.47598e-11 -8.27611e-11 5e-05 1.46608e-10 
169 1 0.238183 0.0187555 0.00683871 0.00564945 -0.00028864 7.8664e-05 2.01087e-11 -5.22546e-11 -2.34091e-10 5e-05 1.46608e-10 
170 1 0.238238 0.0186739 0.00685365 0.0056972 -0.000273323 1.73021e-05 8.06367e-12 6.60539e-11 -1.59984e-11 5e-05 1.46608e-10 
171 1 0.244238 0.0181674 0.0070438 0.00538692 0.000172074 1.55946e-05 -4.63765e-11 9.69601e-12 -1.27052e-11 5e-05 1.46608e-10 
172 1 0.23792 0.0174669 0.00709785 0.0056562 -0.000157722 0.000153731 -7.82948e-11 -6.87988e-11 8.70594e-11 5e-05 1.46608e-10 
173 1 0.244181 0.0180231 0.00712068 0.00551316 0.000142414 1.94674e-05 -2.08013e-10 1.13057e-10 -5.24634e-11 5e-05 1.46608e-10 
174 1 0.237703 0.0165323 0.0076357 0.00618854 -0.000300022 0.000191298 -1.00805e-10 1.77409e-10 2.18421e-10 5e-05 1.46608e-10 
176 1 0.237996 0.0174105 0.00713135 0.00560498 -0.000188 0.000174304 -1.77192e-10 -1.10742e-10 5.92036e-11 5e-05 1.46608e-10 
177 1 0.23769 0.0161363 0.00786511 0.00625348 -0.000261227 0.00021399 5.64462e-11 -8.62069e-11 5.47406e-11 5e-05 1.46608e-10 
178 1 0.238008 0.0177257 0.00712015 0.00550022 -4.41396e-05 4.49731e-05 5.56103e-11 -1.32495e-11 -5.69475e-13 5e-05 1.46608e-10 
179 1 0.238096 0.0183306 0.00691899 0.00562867 -0.000196952 2.94933e-06 8.59515e-11 1.63569e-10 -3.65659e-11 5e-05 1.46608e-10 
182 1 0.244258 0.0182654 0.007047 0.00554279 0.000127321 1.43615e-05 1.88593e-10 -4.55964e-11 -1.14723e-12 5e-05 1.46608e-10 
183 1 0.237979 0.0177523 0.00702825 0.00549827 -0.000205854 2.9436e-07 -2.83343e-10 -3.99356e-10 2.39107e-11 5e-05 1.46608e-10 
184 1 0.244086 0.0179909 0.00711948 0.00553432 6.90597e-05 1.71212e-05 -1.16409e-10 -2.98453e-11 -8.93926e-11 5e-05 1.46608e-10 
185 1 0.23817 0.0178161 0.00701505 0.00512216 -9.61803e-05 -1.17406e-05 3.67411e-11 -2.33402e-10 1.12047e-10 5e-05 1.46608e-10 
186 1 0.238241 0.0190477 0.00684613 0.0056019 -0.000205669 0.000497753 -2.04419e-11 -9.18285e-11 -8.96073e-12 5e-05 1.46608e-10 
187 1 0.244144 0.0181352 0.00704258 0.005487 6.74106e-05 1.27053e-05 5.22854e-11 -6.99266e-11 -1.34717e-12 5e-05 1.46608e-10 
188 1 0.243994 0.0174161 0.00722795 0.0057689 -2.8689e-05 6.35837e-06 -5.67564e-11 -3.76912e-11 1.63646e-11 5e-05 1.46608e-10 
189 1 0.244107 0.0183971 0.00705096 0.00550141 5.04871e-05 1.21732e-05 3.9969e-11 2.72316e-11 2.76475e-12 5e-05 1.46608e-10 
190 1 0.232164 0.0186709 0.00687963 0.00560921 -0.000248999 0.000187202 3.89858e-12 1.76965e-11 -9.68249e-12 5e-05 1.46608e-10 
191 1 0.243757 0.0168616 0.00768496 0.00594488 -7.51055e-05 4.64479e-05 8.96405e-12 1.53616e-11 -3.47609e-12 5e-05 1.46608e-10 
192 1 0.237959 0.0176561 0.00704686 0.00569478 -0.000216342 4.12751e-05 -1.54565e-10 -1.36033e-10 1.81113e-10 5e-05 1.46608e-10 
193 1 0.244314 0.0181016 0.00704182 0.00555185 0.000135698 1.47579e-05 1.24669e-10 -2.08302e-10 -1.43655e-12 5e-05 1.46608e-10 
194 1 0.238175 0.0181348 0.00703979 0.00557905 -0.000191563 1.01611e-05 -1.09671e-10 1.76884e-10 3.6644e-11 5e-05 1.46608e-10 
195 1 0.238267 0.018298 0.006924 0.00560681 -0.000216699 4.16627e-06 9.28554e-11 -9.05659e-11 2.51849e-11 5e-05 1.46608e-10 
196 1 0.238228 0.0181052 0.00696043 0.00555221 -0.000194037 -1.56106e-06 -4.91184e-11 -6.81138e-11 3.96099e-11 5e-05 1.46608e-10 
197 1 0.231851 0.017189 0.00739509 0.00563875 -0.000258541 0.000191861 2.62814e-11 -2.12747e-11 1.90875e-11 5e-05 1.46608e-10 
198 1 0.238166 0.0173826 0.0071494 0.00568781 -4.26731e-05 8.98458e-05 -8.71732e-11 2.24069e-10 -1.32049e-10 5e-05 1.46608e-10 
199 1 0.238056 0.0178525 0.00709198 0.00536885 -4.09995e-05 2.38996e-05 -3.68809e-10 7.71018e-11 -2.08961e-10 5e-05 1.46608e-10 
200 1 0.237514 0.015869 0.00816488 0.00609427 -0.000266533 0.000204306 -4.294e-11 -8.38157e-11 -5.14979e-13 5e-05 1.46608e-10 
201 1 0.238304 0.0184221 0.00690047 0.00562578 -0.000226412 6.5396e-06 7.75914e-11 -8.7576e-11 2.90013e-11 5e-05 1.46608e-10 
202 1 0.237994 0.0170134 0.00736087 0.00570725 -0.000251278 0.000210412 -1.56914e-10 8.81602e-11 -5.21303e-11 5e-05 1.46608e-10 
203 1 0.244066 0.0177427 0.00702977 0.0057356 -3.84038e-05 9.18939e-06 6.32253e-11 1.09479e-11 -3.2377e-13 5e-05 1.46608e-10 
204 1 0.238323 0.0181368 0.00695388 0.00557248 -0.000230183 7.00464e-06 3.37961e-11 -3.1577e-10 6.00891e-11 5e-05 1.46608e-10 
205 1 0.23784 0.01673 0.00752291 0.00577605 -0.000173271 0.000165519 1.98003e-10 6.9806e-11 -2.17023e-11 5e-05 1.46608e-10 
206 1 0.237879 0.0168999 0.00742511 0.00569706 -0.00017318 0.000165406 1.65136e-10 1.89126e-10 -9.88526e-11 5e-05 1.46608e-10 
207 1 0.237756 0.0163905 0.00771841 0.0062188 -0.000261008 0.000211654 -1.03298e-10 -1.65751e-10 1.54645e-10 5e-05 1.46608e-10 
208 1 0.238206 0.0175582 0.00706318 0.00534797 -2.55827e-05 -3.6775e-05 -1.16955e-10 6.30172e-11 7.80252e-12 5e-05 1.46608e-10 
209 1 0.238091 0.017439 0.00711595 0.00558861 -0.00014468 0.000143006 -2.42161e-10 9.23464e-11 -1.02678e-10 5e-05 1.46608e-10 
210 1 0.243853 0.0168851 0.00766538 0.00598918 -6.46601e-05 3.71542e-05 -7.75349e-11 8.39413e-11 -6.90223e-11 5e-05 1.46608e-10 
211 1 0.243874 0.0169604 0.00760331 0.00598959 -6.82862e-05 3.99931e-05 7.49187e-11 -5.73456e-12 -3.35358e-12 5e-05 1.46608e-10 
212 1 0.238315 0.0186075 0.0068656 0.00565439 -0.000236929 8.31605e-06 6.31526e-11 2.20334e-11 -3.00653e-12 5e-05 1.46608e-10 
213 1 0.244088 0.018299 0.00704776 0.00551462 6.24691e-05 1.30839e-05 -1.13345e-10 -1.1508e-10 6.06877e-12 5e-05 1.46608e-10 
214 1 0.243958 0.0172638 0.00735334 0.00580901 0.000144785 -0.000134122 -1.17573e-10 7.12623e-11 -6.64385e-11 5e-05 1.46608e-10 
215 1 0.232068 0.0182075 0.00704084 0.00548698 -0.000233706 0.000180336 -4.88165e-12 1.2348e-11 1.50952e-11 5e-05 1.46608e-10 
216 1 0.237734 0.0163054 0.00776755 0.00622532 -0.000284327 0.000226841 -2.38185e-10 -2.72739e-11 -1.27665e-11 5e-05 1.46608e-10 
217 1 0.244333 0.0181996 0.00704502 0.00555263 0.000138788 1.54594e-05 1.78406e-10 -2.19343e-10 -1.32973e-11 5e-05 1.46608e-10 
218 1 0.238018 0.0179451 0.00699183 0.00554658 -0.000176123 2.32135e-07 3.93917e-10 -3.51756e-10 -5.33969e-12 5e-05 1.46608e-10 
219 1 0.243714 0.0167109 0.00780912 0.00591248 -8.09274e-05 4.75474e-05 3.79313e-11 2.60319e-11 7.57996e-12 5e-05 1.46608e-10 
220 1 0.238132 0.018073 0.00696709 0.00557368 -0.0001952 1.13116e-06 -5.45721e-11 3.78774e-10 -1.00735e-10 5e-05 1.46608e-10 
222 1 0.244186 0.0174642 0.00718784 0.00592842 7.38364e-05 -7.59312e-05 4.3725e-11 2.89193e-11 -2.88561e-11 5e-05 1.46608e-10 
224 1 0.237919 0.0170699 0.00732731 0.00573626 -0.000224656 0.00019538 -3.58126e-11 1.43397e-10 -8.24586e-11 5e-05 1.46608e-10 
225 1 0.2438 0.0170123 0.00756081 0.00599742 -6.60621e-05 3.80539e-05 1.20356e-10 5.30017e-11 -4.47227e-11 5e-05 1.46608e-10 
226 1 0.238284 0.0179439 0.00699032 0.00528574 -0.000281395 1.69185e-05 -3.49391e-10 -2.32361e-11 8.84427e-14 5e-05 1.46608e-10 
227 1 0.232087 0.0183002 0.0070086 0.0055169 -0.000236533 0.000180779 -5.15915e-11 -8.63798e-11 2.69763e-11 5e-05 1.46608e-10 
228 1 0.23203 0.0180221 0.00710533 0.00543782 -0.000217243 0.000171743 2.41645e-12 -9.26618e-11 1.36152e-11 5e-05 1.46608e-10 
229 1 0.238297 0.0188844 0.00683625 0.00562823 -0.000215413 0.000497686 8.36657e-11 -1.84992e-11 5.83638e-12 5e-05 1.46608e-10 
230 1 0.237824 0.0170416 0.00734261 0.00573991 -0.000184367 0.000171076 1.81199e-11 1.31763e-10 -8.95286e-11 5e-05 1.46608e-10 
232 1 0.238173 0.0182646 0.00703064 0.00566938 -0.000272404 1.72142e-06 -8.59409e-11 1.13045e-10 -1.78659e-11 5e-05 1.46608e-10 
233 1 0.238135 0.0185234 0.00688256 0.00563558 -0.000214132 2.21617e-06 3.62122e-12 -3.1653e-11 -2.87612e-12 5e-05 1.46608e-10 
234 1 0.2439 0.0173903 0.00724941 0.00578126 -3.10395e-05 9.36464e-06 -6.54425e-12 2.12807e-11 -2.47485e-11 5e-05 1.46608e-10 
235 1 0.237785 0.0168716 0.00744041 0.00570168 -0.000186031 0.000172842 1.2637e-10 8.8262e-11 -3.74737e-11 5e-05 1.46608e-10 
236 1 0.237883 0.0172966 0.00719589 0.00568633 -0.000153935 0.000154055 -7.95251e-11 6.46358e-11 -1.62951e-11 5e-05 1.46608e-10 
237 1 0.237901 0.0173817 0.00714693 0.00557984 -0.000139574 0.000144378 -1.39489e-10 -4.17931e-11 6.59142e-11 5e-05 1.46608e-10 
239 1 0.231747 0.0167497 0.00760935 0.00605008 -0.000489188 -0.000139415 -5.98493e-12 -1.35791e-11 7.41743e-12 5e-05 1.46608e-10 
240 1 0.231811 0.0170111 0.00747654 0.00558751 -0.000391586 -0.000158561 1.21678e-11 -3.11287e-11 2.18482e-11 5e-05 1.46608e-10 
241 1 0.231725 0.0166627 0.00765361 0.00606888 -0.000493769 -0.00013843 4.53347e-12 1.52377e-11 -7.9412e-12 5e-05 1.46608e-10 
242 1 0.237852 0.0164172 0.00770386 0.0062145 -0.000265562 0.000216365 -1.07857e-10 1.47303e-10 -1.09224e-10 5e-05 1.46608e-10 
243 1 0.238209 0.0180088 0.00697864 0.0054058 -0.000155481 -6.57279e-06 -4.32536e-10 -6.41725e-11 2.00697e-11 5e-05 1.46608e-10 
244 1 0.231768 0.0168368 0.00756509 0.00603219 -0.000485413 -0.000140182 -2.60835e-13 -3.36593e-11 1.57251e-11 5e-05 1.46608e-10 
246 1 0.231953 0.0176514 0.0072343 0.00548606 -0.000220675 0.000175334 -5.23562e-11 5.49756e-11 -1.68392e-11 5e-05 1.46608e-10 
247 1 0.237725 0.0166169 0.00758696 0.00617545 -0.000294938 0.000193787 4.13714e-12 6.19364e-11 3.2204e-11 5e-05 1.46608e-10 
248 1 0.237981 0.0176249 0.00713946 0.0055811 -2.98836e-05 0.000131004 -7.05308e-11 -6.33244e-11 1.32892e-10 5e-05 1.46608e-10 
249 1 0.231892 0.0173739 0.00733081 0.0056592 -0.000263818 0.00019346 -1.11394e-11 -8.40027e-12 3.77198e-12 5e-05 1.46608e-10 
250 1 0.237799 0.0165596 0.0076209 0.00617156 -0.000272098 0.00022436 1.53825e-11 1.65199e-11 3.58768e-11 5e-05 1.46608e-10 
251 1 0.244046 0.0176452 0.00703926 0.00574988 -1.4893e-05 -4.74006e-06 6.12922e-11 4.58239e-11 -1.70675e-11 5e-05 1.46608e-10 
252 1 0.231972 0.0177441 0.00720207 0.00538363 -0.000203196 0.000167102 2.58177e-10 -3.73138e-11 3.06461e-11 5e-05 1.46608e-10 
253 1 0.232145 0.0185782 0.00691187 0.00558595 -0.000243716 0.000185076 -1.07186e-11 -8.96479e-12 1.09808e-11 5e-05 1.46608e-10 
254 1 0.231913 0.0174663 0.00729867 0.00567069 -0.00026416 0.000193936 5.1694e-12 7.59831e-11 -2.2265e-11 5e-05 1.46608e-10 
255 1 0.237375 0.0154473 0.00869961 0.0055398 -0.00011969 0.000180624 2.35412e-11 4.14724e-11 -5.34795e-11 5e-05 1.46608e-10 
256 1 0.238433 0.0182746 0.00692729 0.00560819 -0.000240863 8.55189e-06 9.5755e-11 -1.67342e-10 2.86053e-11 5e-05 1.46608e-10 
257 1 0.237955 0.0168433 0.00745873 0.00570122 -0.000168756 0.000162531 -8.96729e-12 -5.93385e-12 3.20303e-12 5e-05 1.46608e-10 
258 1 0.23806 0.0175658 0.00715369 0.00548634 -0.000159919 0.000140284 -1.0703e-10 -1.1428e-10 3.73096e-11 5e-05 1.46608e-10 
259 1 0.231991 0.0178368 0.00716982 0.00536965 -0.000203743 0.000166337 5.70851e-11 8.71904e-12 7.50929e-12 5e-05 1.46608e-10 