ITEM: TIMESTEP
15800000
ITEM: NUMBER OF ATOMS
287
ITEM: BOX BOUNDS ff ff ff
-0.02 0.43
-0.02 0.06
-0.02 0.07
ITEM: ATOMS id type x y z vx vy vz fx fy fz radius mass 
1 1 0.104962 0.0163823 0.00786536 0.00542853 -0.000166603 -0.000165251 1.7984e-10 -1.8724e-10 9.04203e-11 5e-05 1.46608e-10 
2 1 0.105609 0.018146 0.00699511 0.00624759 0.000208498 -0.00035202 -2.65225e-10 9.20157e-11 -9.93567e-12 5e-05 1.46608e-10 
3 1 0.0987811 0.0160312 0.00814843 0.0057455 6.92074e-05 -3.82076e-05 4.01729e-11 9.44914e-11 -7.31704e-11 5e-05 1.46608e-10 
4 1 0.105277 0.0177064 0.00703139 0.00633495 0.00013979 0.000229476 3.76198e-11 -2.31478e-10 6.15683e-11 5e-05 1.46608e-10 
5 1 0.104828 0.0161943 0.00799474 0.00552952 -0.000179675 -0.000163125 5.66702e-10 2.55423e-12 -1.14969e-11 5e-05 1.46608e-10 
6 1 0.11099 0.0168985 0.00763063 0.00583999 0.0010906 -0.000265189 2.03159e-12 -2.19736e-14 1.72213e-13 5e-05 1.46608e-10 
7 1 0.105004 0.0169295 0.00750656 0.00552734 -0.000101955 -0.000212923 2.39422e-11 -6.61208e-11 2.8085e-11 5e-05 1.46608e-10 
8 1 0.104725 0.0157867 0.00826557 0.00574246 -0.000212798 -0.000151524 6.36304e-11 1.17044e-10 -8.5752e-11 5e-05 1.46608e-10 
9 1 0.111253 0.0180076 0.00701589 0.00641245 0.000755548 -0.000741993 6.30144e-13 3.15814e-13 1.29037e-13 5e-05 1.46608e-10 
10 1 0.104945 0.0166844 0.00766931 0.00547466 -7.98026e-05 -0.000223892 -1.32017e-10 2.24412e-12 1.80869e-11 5e-05 1.46608e-10 
11 1 0.105493 0.0178621 0.00700503 0.00600008 -0.000111646 -0.000328961 -2.09397e-10 2.62749e-11 -1.16784e-11 5e-05 1.46608e-10 
12 1 0.0989564 0.0167034 0.00757632 0.00559097 7.08255e-05 -4.1164e-05 3.74772e-11 -7.50733e-11 5.78546e-11 5e-05 1.46608e-10 
13 1 0.104807 0.0161128 0.00804891 0.00573844 -0.000223949 -0.000145899 -3.17758e-10 -3.53515e-11 5.51558e-11 5e-05 1.46608e-10 
14 1 0.0986993 0.015733 0.00840218 0.00569144 7.04424e-05 -3.85462e-05 -4.62307e-11 -1.13664e-10 9.50474e-11 5e-05 1.46608e-10 
15 1 0.105157 0.0171996 0.00732274 0.00577966 0.000398188 -0.000550305 -1.75447e-10 6.1109e-10 -3.1867e-10 5e-05 1.46608e-10 
16 1 0.0986788 0.0156585 0.00846562 0.00567657 7.26181e-05 -4.48871e-05 -8.90087e-11 -2.01015e-10 2.00155e-10 5e-05 1.46608e-10 
17 1 0.104926 0.0166027 0.00772356 0.00543704 -6.66874e-05 -0.000229738 1.22737e-10 3.53409e-11 -5.13385e-11 5e-05 1.46608e-10 
18 1 0.111129 0.0174782 0.00726341 0.00621939 0.00103925 -0.000202751 1.34429e-12 5.45426e-13 1.05561e-13 5e-05 1.46608e-10 
19 1 0.104787 0.0160313 0.00810307 0.00574037 -0.00022735 -0.000142844 2.32589e-10 1.68861e-10 -6.08999e-11 5e-05 1.46608e-10 
21 1 0.104943 0.0163006 0.00791959 0.00540836 -0.000178105 -0.000157034 7.10069e-12 -1.87523e-10 1.11204e-10 5e-05 1.46608e-10 
22 1 0.105043 0.0170929 0.00739807 0.00554701 -0.000125549 -0.000199574 -1.28409e-10 -3.21946e-10 2.02349e-10 5e-05 1.46608e-10 
23 1 0.0990892 0.0168778 0.00742825 0.00565116 6.46223e-05 -3.1837e-05 1.24962e-10 -2.66807e-11 2.88014e-11 5e-05 1.46608e-10 
24 1 0.111189 0.017733 0.00711854 0.00632698 0.000775144 -0.000742639 1.64517e-12 1.79624e-13 -6.40132e-14 5e-05 1.46608e-10 
25 1 0.104984 0.0168478 0.00756081 0.00552541 -8.74583e-05 -0.000222018 -1.72305e-10 2.02093e-11 -1.92084e-11 5e-05 1.46608e-10 
26 1 0.111069 0.0172298 0.00742079 0.0060568 0.00106126 -0.000229519 1.7201e-12 1.29945e-13 -1.13065e-13 5e-05 1.46608e-10 
27 1 0.0991294 0.0173346 0.00728592 0.00575088 0.00011509 -0.00011226 -9.51785e-11 -1.90157e-10 -2.07501e-10 5e-05 1.46608e-10 
28 1 0.105254 0.017609 0.00705102 0.00535379 0.00120916 -0.00105655 -2.68544e-10 7.69396e-11 -1.84516e-10 5e-05 1.46608e-10 
29 1 0.104766 0.0159498 0.00815724 0.00574399 -0.000217142 -0.000150756 4.74492e-11 2.31855e-10 -1.16042e-10 5e-05 1.46608e-10 
30 1 0.105216 0.0174453 0.00716001 0.0064983 -0.00107648 0.0036865 0 0 -1.43822e-09 5e-05 1.46608e-10 
31 1 0.105023 0.0170112 0.00745232 0.00552775 -0.000122315 -0.000200944 3.84095e-11 -1.96965e-10 1.51044e-10 5e-05 1.46608e-10 
32 1 0.105138 0.0171179 0.00737704 0.00559262 0.000164001 -0.000371842 -3.17104e-10 3.80951e-10 -7.02079e-10 5e-05 1.46608e-10 
33 1 0.11101 0.0169813 0.00757817 0.0058942 0.00108327 -0.000256278 1.98422e-12 -6.05832e-14 -7.12188e-14 5e-05 1.46608e-10 
34 1 0.104907 0.0165214 0.00777856 0.00540664 -0.000458165 -0.000822976 3.22505e-11 -3.65155e-10 -7.02413e-10 5e-05 1.46608e-10 
35 1 0.105118 0.017036 0.00743136 0.005516 -0.000143089 -0.000184947 -8.13473e-12 -1.94236e-10 1.21346e-10 5e-05 1.46608e-10 
36 1 0.111295 0.0181907 0.00694746 0.00646944 0.000742505 -0.000741515 6.16743e-13 3.70531e-13 -1.74423e-14 5e-05 1.46608e-10 
37 1 0.105079 0.0168726 0.00753986 0.00550758 -0.000134565 -0.000190438 -2.6555e-10 -2.36124e-10 1.72507e-10 5e-05 1.46608e-10 
38 1 0.105291 0.0173877 0.00719371 0.00590566 -0.000140195 -0.000103005 9.94965e-11 5.70973e-10 -8.56997e-11 5e-05 1.46608e-10 
39 1 0.11121 0.0178246 0.00708432 0.00635547 0.000768604 -0.000742448 1.068e-12 -8.11513e-14 -5.75767e-13 5e-05 1.46608e-10 
41 1 0.104868 0.0163575 0.00788631 0.00542179 -0.000180785 -0.00015761 4.7414e-10 1.52447e-10 -1.47822e-10 5e-05 1.46608e-10 
42 1 0.105062 0.0171751 0.00734405 0.00568733 -0.000402803 -0.00172633 -1.12217e-10 -1.62976e-10 -8.86374e-10 5e-05 1.46608e-10 
44 1 0.105312 0.0174705 0.00714167 0.0060106 -5.71377e-05 6.89287e-05 4.27667e-11 3.33033e-10 -5.13101e-10 5e-05 1.46608e-10 
45 1 0.11103 0.0170642 0.00752571 0.00594839 0.00107594 -0.000247359 1.77175e-12 1.73696e-13 2.93823e-13 5e-05 1.46608e-10 
46 1 0.111109 0.0173954 0.00731587 0.0061652 0.00104658 -0.000211687 1.39367e-12 3.20037e-13 -9.99843e-14 5e-05 1.46608e-10 
47 1 0.104887 0.0164392 0.00783208 0.00538828 -0.000178447 -0.000156186 1.03096e-10 7.19709e-12 -1.95583e-12 5e-05 1.46608e-10 
48 1 0.105101 0.0173386 0.00723499 0.00582403 0.000800963 -0.000816528 4.24175e-11 1.69962e-10 -1.11992e-10 5e-05 1.46608e-10 
49 1 0.111089 0.0173126 0.00736833 0.006111 0.00105392 -0.000220605 1.49326e-12 3.01382e-13 6.63213e-16 5e-05 1.46608e-10 
50 1 0.10516 0.0175839 0.0070721 0.0057529 9.56449e-05 -0.000345717 -1.39379e-10 1.15578e-10 -2.3332e-10 5e-05 1.46608e-10 
51 1 0.10514 0.0175021 0.0071264 0.00471963 -0.000285352 -0.00175368 -4.13102e-08 4.4249e-08 8.02999e-08 5e-05 1.46608e-10 
52 1 0.0989373 0.0166287 0.00763994 0.00553029 8.51695e-05 -5.3122e-05 2.16023e-11 -1.31394e-10 1.04335e-10 5e-05 1.46608e-10 
53 1 0.111148 0.017561 0.00721095 0.0062736 0.00103191 -0.000193834 1.50487e-12 2.88266e-13 -6.81259e-13 5e-05 1.46608e-10 
54 1 0.104923 0.016219 0.0079738 0.00554918 -0.000221633 -0.000137959 9.77614e-11 1.85144e-11 -5.72576e-11 5e-05 1.46608e-10 
55 1 0.0987402 0.0158821 0.0082753 0.0057242 6.65271e-05 -3.62266e-05 9.75911e-11 4.69378e-11 -4.48653e-11 5e-05 1.46608e-10 
56 1 0.105099 0.0169543 0.00748561 0.00550315 -0.000131938 -0.000192387 5.90042e-11 -2.62408e-10 1.60693e-10 5e-05 1.46608e-10 
57 1 0.111049 0.017147 0.00747325 0.0060026 0.0010686 -0.000238449 1.62402e-12 1.98475e-13 1.01076e-13 5e-05 1.46608e-10 
59 1 0.105213 0.0170608 0.00741047 0.00551391 -0.000162883 -0.000170973 -3.67555e-12 2.82247e-10 -2.16785e-10 5e-05 1.46608e-10 
60 1 0.105233 0.0171424 0.00735626 0.00553042 -0.000158877 -0.000176447 -2.254e-10 4.94674e-10 -3.95855e-10 5e-05 1.46608e-10 
61 1 0.104848 0.0162759 0.00794052 0.00552253 -0.000186171 -0.000160477 -2.42311e-10 -4.60176e-11 8.70892e-11 5e-05 1.46608e-10 
62 1 0.105332 0.0175549 0.00709205 0.00623531 7.11794e-05 0.000357538 2.01284e-10 1.23782e-10 -3.38153e-10 5e-05 1.46608e-10 
63 1 0.105235 0.0176803 0.00711834 0.00475854 0.000463514 -0.000440182 1.55157e-10 -4.54365e-10 1.09857e-10 5e-05 1.46608e-10 
64 1 0.111168 0.0176438 0.00715849 0.00632777 0.00102457 -0.000184945 8.0127e-13 2.69398e-13 -3.18995e-13 5e-05 1.46608e-10 
65 1 0.0992305 0.017663 0.00720462 0.00616533 -4.4573e-05 9.0518e-06 -3.80161e-11 1.79401e-11 4.44111e-11 5e-05 1.46608e-10 
66 1 0.099254 0.0174375 0.00726543 0.0060273 -3.27284e-05 -2.03238e-07 -3.51438e-10 5.45994e-11 1.30102e-11 5e-05 1.46608e-10 
67 1 0.105466 0.0177658 0.00700767 0.00628329 -0.000206005 -0.000349658 2.00462e-11 1.61732e-11 9.27535e-11 5e-05 1.46608e-10 
68 1 0.105375 0.0177397 0.0070388 0.00633915 0.000193209 0.000175241 2.4386e-11 -1.03181e-10 6.21424e-11 5e-05 1.46608e-10 
69 1 0.105021 0.0166275 0.00770259 0.00541937 -0.000125114 -0.000191427 -3.39477e-10 -2.08934e-10 1.72676e-10 5e-05 1.46608e-10 
70 1 0.111231 0.0179161 0.00705011 0.00638394 0.00076209 -0.000742181 1.1021e-12 1.85177e-13 -3.9577e-14 5e-05 1.46608e-10 
71 1 0.0987197 0.0158076 0.00833874 0.00570919 6.79147e-05 -3.69635e-05 2.40459e-11 -8.51603e-13 3.31803e-12 5e-05 1.46608e-10 
72 1 0.105351 0.0176406 0.0070442 0.0063422 0.000169425 0.000532752 7.43621e-11 3.03941e-11 -4.32157e-11 5e-05 1.46608e-10 
73 1 0.104965 0.0167661 0.00761506 0.00550591 -8.14635e-05 -0.000225451 3.94599e-11 8.43995e-11 -5.39077e-11 5e-05 1.46608e-10 
74 1 0.105176 0.0172814 0.00726845 0.00551151 0.000572859 -0.000653536 -3.51399e-10 -9.93042e-10 6.5655e-10 5e-05 1.46608e-10 
76 1 0.0992272 0.017495 0.00716233 0.00611492 -1.14794e-05 -6.49912e-06 -2.87959e-11 3.91522e-11 -1.80754e-11 5e-05 1.46608e-10 
77 1 0.105402 0.018276 0.00700512 0.00623321 6.38051e-05 -0.000350259 7.59942e-10 -2.01337e-10 5.44579e-11 5e-05 1.46608e-10 
78 1 0.0988015 0.0161057 0.00808499 0.00576701 7.06531e-05 -3.93501e-05 -4.85931e-11 8.08296e-11 -8.00194e-11 5e-05 1.46608e-10 
79 1 0.0991966 0.017146 0.00733757 0.00569443 6.54097e-05 -2.54462e-05 -2.27273e-11 1.04961e-10 -3.19923e-11 5e-05 1.46608e-10 
80 1 0.105201 0.0177713 0.00702237 0.00631007 7.11373e-05 -0.000351799 1.83568e-10 -9.50823e-12 -6.84588e-12 5e-05 1.46608e-10 
81 1 0.0990125 0.016948 0.00748322 0.00565764 5.8425e-05 -1.37623e-05 4.56101e-11 5.84791e-12 1.0306e-10 5e-05 1.46608e-10 
82 1 0.0990138 0.0169279 0.00738527 0.00567442 4.83414e-05 -1.65716e-05 -9.17825e-11 -3.23953e-11 5.08022e-11 5e-05 1.46608e-10 
83 1 0.0991266 0.0166785 0.00759816 0.00558402 5.40114e-05 -2.62897e-05 2.73151e-12 -3.78771e-11 3.74233e-11 5e-05 1.46608e-10 
84 1 0.111274 0.0180992 0.00698167 0.00644094 0.000749031 -0.000741736 7.77156e-13 3.31012e-13 -1.25578e-13 5e-05 1.46608e-10 
85 1 0.0989171 0.0162051 0.00800076 0.00562867 6.56698e-05 -3.57321e-05 -1.49149e-10 -2.00496e-11 1.25355e-11 5e-05 1.46608e-10 
86 1 0.105235 0.0175271 0.00710535 0.00649936 0.000727796 -0.000803502 -1.16302e-11 2.63913e-10 -1.45249e-10 5e-05 1.46608e-10 
87 1 0.105194 0.0169789 0.00746476 0.00554966 -0.000177251 -0.000164576 2.0726e-10 2.00396e-10 -1.01661e-10 5e-05 1.46608e-10 
88 1 0.105263 0.0180499 0.00701628 0.00626726 0.000144261 -0.000290756 -3.32004e-11 -5.19055e-10 -1.27591e-10 5e-05 1.46608e-10 
89 1 0.105223 0.017869 0.00702318 0.00630064 0.000162017 -0.00010638 -1.81491e-10 -5.75765e-10 8.96935e-11 5e-05 1.46608e-10 
90 1 0.10559 0.0178822 0.00699933 0.00606102 -0.000396345 -0.000336017 -2.9018e-10 -8.09065e-11 3.0418e-11 5e-05 1.46608e-10 
91 1 0.0989755 0.0167782 0.00751271 0.00564869 6.1514e-05 -3.24607e-05 -2.09819e-10 4.97059e-11 -4.23346e-11 5e-05 1.46608e-10 
92 1 0.105422 0.0179305 0.00702236 0.00622228 0.000146817 -0.000434792 8.68527e-11 4.04225e-11 4.64612e-10 5e-05 1.46608e-10 
93 1 0.10534 0.0180856 0.00706854 0.00627228 0.000217379 -0.000323887 -2.18709e-10 -3.38047e-10 2.8201e-10 5e-05 1.46608e-10 
94 1 0.105476 0.0182084 0.00700182 0.00622286 8.46016e-05 -0.00035254 1.0571e-09 9.45563e-12 6.99735e-11 5e-05 1.46608e-10 
95 1 0.105219 0.0177839 0.00712 0.00665908 0.00133611 -0.000575272 1.01697e-10 -2.89851e-10 1.87214e-10 5e-05 1.46608e-10 
96 1 0.105482 0.0180083 0.00700388 0.00625263 0.000144347 -0.000352169 1.65928e-10 1.32633e-10 5.11665e-11 5e-05 1.46608e-10 
97 1 0.0988992 0.0164792 0.00776719 0.00547195 0.000101225 -6.7481e-05 1.39508e-10 -1.10097e-10 8.80915e-11 5e-05 1.46608e-10 
98 1 0.105285 0.0181475 0.00701322 0.00625096 0.000107589 -0.000346926 -1.24388e-10 -4.44103e-10 -9.91279e-12 5e-05 1.46608e-10 
99 1 0.0993058 0.0175987 0.00722052 0.00608108 -5.92308e-05 -1.92437e-05 -6.81041e-11 -8.67985e-13 -2.88615e-11 5e-05 1.46608e-10 
100 1 0.105407 0.0174936 0.00711853 0.00608191 -0.000376494 -0.000198102 -1.62985e-11 -6.23085e-11 -2.84345e-10 5e-05 1.46608e-10 
101 1 0.0990176 0.0168695 0.007545 0.00563973 6.12148e-05 -1.64477e-05 1.77771e-11 -3.23727e-11 2.52253e-12 5e-05 1.46608e-10 
102 1 0.0643568 0.0187248 0.00531097 4.10616e-15 1.05398e-14 8.2963e-14 1.65631e-21 -5.62586e-22 -1.90252e-23 5e-05 1.46608e-10 
103 1 0.24257 0.0191927 0.00520306 4.16735e-22 6.65775e-22 8.29106e-22 3.23117e-27 2.58494e-26 0 5e-05 1.46608e-10 
104 1 0.0992423 0.0171454 0.00724862 0.00569263 7.47904e-05 -2.77498e-05 7.19676e-12 1.14761e-10 -2.27294e-11 5e-05 1.46608e-10 
105 1 0.0988609 0.0163297 0.00789442 0.00559452 9.95579e-05 -6.38001e-05 -6.43643e-11 2.89644e-11 -4.10799e-11 5e-05 1.46608e-10 
106 1 0.0993371 0.0171762 0.00724087 0.00572327 3.39002e-06 -1.06549e-05 3.92129e-11 -2.55286e-11 1.85044e-12 5e-05 1.46608e-10 
107 1 0.0988218 0.0161803 0.00802153 0.00575047 7.32827e-05 -4.1431e-05 4.13389e-11 9.95242e-11 -8.74016e-11 5e-05 1.46608e-10 
108 1 0.10506 0.0167909 0.0075941 0.00549286 -0.000133869 -0.000190197 -4.14003e-10 -4.75885e-11 6.00446e-11 5e-05 1.46608e-10 
109 1 0.105121 0.0174204 0.00718066 0.0058085 0.000658383 -0.000721887 -5.83905e-11 1.22359e-10 -8.95624e-11 5e-05 1.46608e-10 
110 1 0.105519 0.0184036 0.00699706 0.00622888 7.82909e-05 -0.000349736 1.11217e-09 -4.27018e-11 -1.14482e-10 5e-05 1.46608e-10 
111 1 0.105376 0.0183905 0.00708872 0.0061276 2.59919e-05 -0.000349243 9.48742e-10 -8.94407e-10 1.62707e-10 5e-05 1.46608e-10 
112 1 0.0989182 0.0165539 0.00770356 0.00550428 9.26743e-05 -5.96171e-05 -1.05196e-10 -1.28998e-10 9.29025e-11 5e-05 1.46608e-10 
113 1 0.0995283 0.0180299 0.00702983 0.00620717 -0.000103281 1.89277e-05 -5.97848e-11 9.03165e-11 -4.76587e-11 5e-05 1.46608e-10 
114 1 0.0994768 0.0175638 0.00722899 0.0061161 -9.18141e-05 1.77099e-05 1.10659e-10 7.69632e-11 2.09138e-12 5e-05 1.46608e-10 
115 1 0.105196 0.0173634 0.00721402 0.00579723 0.000639235 -0.000709634 1.4105e-10 2.41642e-10 -1.3857e-10 5e-05 1.46608e-10 
116 1 0.10504 0.0167098 0.00764927 0.00546031 -0.000132002 -0.000190856 -3.74534e-10 -1.69449e-10 1.3028e-10 5e-05 1.46608e-10 
117 1 0.104903 0.0161374 0.00802802 0.00548187 -0.000230699 -0.000126987 3.99315e-10 1.87457e-10 -1.41787e-10 5e-05 1.46608e-10 
118 1 0.098761 0.0159566 0.00821191 0.00572583 6.9901e-05 -3.85846e-05 1.7278e-10 5.55374e-11 -5.08021e-11 5e-05 1.46608e-10 
119 1 0.105252 0.0172241 0.00730201 0.00563565 -0.000161986 -0.000183753 2.90469e-10 4.05507e-10 -3.20592e-10 5e-05 1.46608e-10 
120 1 0.104745 0.0158683 0.00821141 0.00574104 -0.000214315 -0.000152547 -4.06184e-11 2.82745e-10 -1.57968e-10 5e-05 1.46608e-10 
121 1 0.104704 0.0157052 0.00831974 0.00574172 -0.000207747 -0.000154534 8.58887e-11 2.78061e-10 -1.95872e-10 5e-05 1.46608e-10 
122 1 0.105445 0.0184712 0.00700036 0.0061802 1.06792e-05 -0.000345471 5.52212e-10 -7.83401e-10 -4.605e-11 5e-05 1.46608e-10 
123 1 0.0989555 0.0163545 0.00787356 0.00549589 9.59385e-05 -6.24136e-05 -4.23292e-10 7.33106e-11 -6.40531e-11 5e-05 1.46608e-10 
124 1 0.105317 0.0179015 0.00701436 0.00630083 0.000156618 -0.00034901 -2.4742e-10 -8.54072e-11 5.33332e-11 5e-05 1.46608e-10 
125 1 0.104882 0.0160559 0.00808219 0.00576236 -0.000197094 -0.000162433 -3.92692e-10 -8.17444e-11 5.00027e-11 5e-05 1.46608e-10 
126 1 0.105082 0.0172566 0.00728945 0.00568041 0.000352318 -0.000518642 -6.53107e-10 1.13194e-10 -1.67349e-10 5e-05 1.46608e-10 
127 1 0.0988801 0.0164044 0.00783081 0.00544939 0.000112277 -7.57314e-05 2.64953e-10 -4.97081e-11 3.68422e-11 5e-05 1.46608e-10 
128 1 0.105181 0.017674 0.00703261 0.0050481 -0.000263198 -0.00660245 0 0 -1.43822e-09 5e-05 1.46608e-10 
129 1 0.105243 0.0179609 0.00705718 0.00631242 0.000184165 -0.000198593 -7.41748e-11 -5.84979e-10 1.70459e-10 5e-05 1.46608e-10 
130 1 0.0991089 0.0169525 0.00736471 0.00567671 6.31024e-05 -3.10979e-05 4.00922e-11 2.03007e-11 7.26673e-11 5e-05 1.46608e-10 
131 1 0.0993274 0.0176935 0.00719705 0.00615811 -7.16642e-05 8.94081e-06 -8.07428e-11 -6.44269e-11 2.19292e-11 5e-05 1.46608e-10 
132 1 0.105299 0.0178039 0.00702724 0.00631772 0.000149877 -0.000129344 -1.14102e-10 -3.72126e-10 -3.01176e-11 5e-05 1.46608e-10 
133 1 0.105116 0.0166521 0.00768172 0.00540848 -0.000160893 -0.000168546 -3.36072e-10 4.98825e-11 -6.03177e-12 5e-05 1.46608e-10 
134 1 0.105271 0.0173059 0.00724774 0.00578627 -0.000169303 -0.000180776 2.57971e-10 2.64926e-10 2.10292e-10 5e-05 1.46608e-10 
135 1 0.104862 0.0159744 0.00813636 0.0057721 -0.000227626 -0.000145206 -1.49279e-10 1.82559e-10 -8.85053e-11 5e-05 1.46608e-10 
136 1 0.098897 0.0161303 0.00806442 0.00581647 0.000113145 -7.53434e-05 -6.8312e-11 2.53602e-11 -2.13352e-11 5e-05 1.46608e-10 
137 1 0.105349 0.0184403 0.00700609 0.00617552 -7.66989e-06 -0.000356357 6.88216e-11 -2.02854e-10 1.32279e-10 5e-05 1.46608e-10 
138 1 0.105001 0.0165458 0.00775684 0.00537304 -0.000133123 -0.000185169 -1.39013e-10 -2.48049e-10 1.68507e-10 5e-05 1.46608e-10 
140 1 0.105497 0.018306 0.00699944 0.00623852 7.17237e-05 -0.000348574 1.05951e-09 -1.48882e-10 -1.3835e-10 5e-05 1.46608e-10 
141 1 0.0989364 0.0162798 0.00793717 0.00557678 7.76086e-05 -4.60587e-05 -2.02888e-10 1.38966e-11 -7.46626e-12 5e-05 1.46608e-10 
142 1 0.0992034 0.0169777 0.00734352 0.00570057 6.6314e-05 -3.63976e-05 1.17491e-10 2.80971e-11 1.28805e-11 5e-05 1.46608e-10 
143 1 0.0988416 0.0162549 0.00795801 0.00566733 8.94138e-05 -5.53169e-05 1.73455e-10 8.95656e-11 -6.97e-11 5e-05 1.46608e-10 
144 1 0.0993453 0.0176204 0.00713121 0.00614733 -7.72005e-05 9.10264e-06 -6.97815e-11 -5.01066e-12 -9.10532e-12 5e-05 1.46608e-10 
146 1 0.0992403 0.016778 0.0075138 0.0056272 3.90203e-05 -1.31594e-05 -4.90823e-11 -6.71504e-11 5.51177e-11 5e-05 1.46608e-10 
147 1 0.0988767 0.0160557 0.0081279 0.0057828 7.48948e-05 -4.28272e-05 -1.30109e-10 1.04623e-10 -9.14093e-11 5e-05 1.46608e-10 
148 1 0.0990715 0.0171777 0.00724091 0.00569901 7.67096e-05 -2.41466e-05 -5.59053e-12 -6.04259e-11 -1.21693e-12 5e-05 1.46608e-10 
149 1 0.105328 0.0183427 0.00700862 0.00619476 2.87241e-05 -0.000337041 3.70902e-10 8.2547e-12 -4.55313e-11 5e-05 1.46608e-10 
150 1 0.0990319 0.0166536 0.00761909 0.00557649 7.88399e-05 -4.69639e-05 9.73765e-11 1.3771e-11 -9.50194e-12 5e-05 1.46608e-10 
151 1 0.0995159 0.0175855 0.00713954 0.00612815 -0.000108161 1.82461e-05 3.34998e-11 8.40234e-11 -2.2359e-11 5e-05 1.46608e-10 
153 1 0.0989938 0.016504 0.00774634 0.00544522 0.000108351 -7.28992e-05 -3.78614e-11 2.91248e-11 -2.45577e-11 5e-05 1.46608e-10 
154 1 0.099167 0.0172097 0.00723285 0.00576685 6.6797e-05 -2.04824e-05 8.07865e-11 6.30132e-11 7.14761e-12 5e-05 1.46608e-10 
155 1 0.0992486 0.0175898 0.00713889 0.00617589 -3.06179e-05 -1.53215e-06 -4.96224e-11 7.37721e-11 -2.33933e-11 5e-05 1.46608e-10 
156 1 0.0991475 0.0171145 0.00725638 0.00569602 7.28398e-05 -2.59755e-05 8.16134e-11 4.26932e-11 7.49817e-12 5e-05 1.46608e-10 
157 1 0.0219312 0.0187687 0.00551176 -3.82893e-14 8.16612e-14 2.95895e-13 -1.78878e-22 3.03885e-22 -9.47122e-23 5e-05 1.46608e-10 
158 1 0.0992617 0.0172406 0.00722508 0.0058184 -5.79474e-05 6.33424e-06 -3.1449e-11 1.52299e-10 -5.67225e-11 5e-05 1.46608e-10 
159 1 0.105392 0.0178356 0.00701095 0.00629393 0.000116094 -0.000351416 -1.75233e-10 4.98395e-11 1.11517e-10 5e-05 1.46608e-10 
160 1 0.0991514 0.0175583 0.00714683 0.00616681 3.53105e-05 -1.82899e-05 -9.68029e-11 -2.23908e-10 2.21266e-11 5e-05 1.46608e-10 
162 1 0.0991864 0.0173049 0.00720932 0.00588638 5.06554e-05 -1.38657e-05 3.62858e-11 1.07661e-10 1.64477e-12 5e-05 1.46608e-10 
164 1 0.0993352 0.017969 0.00704517 0.00619882 -8.32322e-05 8.59156e-06 -2.30394e-11 1.25008e-10 -5.16584e-11 5e-05 1.46608e-10 
165 1 0.0994418 0.0176508 0.00712356 0.00614484 -9.20462e-05 1.32914e-05 -4.01221e-11 -1.76207e-11 7.83333e-12 5e-05 1.46608e-10 
166 1 0.105076 0.0164888 0.00779021 0.0053801 -0.000160295 -0.000166001 -8.52394e-12 6.05957e-11 -2.55008e-11 5e-05 1.46608e-10 
167 1 0.0990128 0.0165788 0.00768271 0.00550737 9.43465e-05 -6.04032e-05 -1.19703e-10 4.45989e-11 -3.66406e-11 5e-05 1.46608e-10 
168 1 0.099357 0.0172713 0.00721736 0.00588699 -2.98378e-05 -1.31006e-06 -3.51409e-11 -1.48723e-12 -2.54887e-12 5e-05 1.46608e-10 
169 1 0.0995067 0.0179351 0.00705326 0.00618917 -0.000101084 1.54377e-05 -4.23004e-11 5.88699e-11 -3.27059e-11 5e-05 1.46608e-10 
170 1 0.0993985 0.0174612 0.00717041 0.006131 -8.30999e-05 1.07179e-05 -1.16757e-10 -1.04625e-11 5.02696e-13 5e-05 1.46608e-10 
171 1 0.105096 0.0165705 0.00773595 0.00538542 -0.000158682 -0.000168099 -3.46029e-10 7.01967e-11 -2.76481e-11 5e-05 1.46608e-10 
172 1 0.0995596 0.0177757 0.00709254 0.00617467 -9.80138e-05 1.46374e-05 -5.60401e-12 -6.12844e-11 1.56788e-11 5e-05 1.46608e-10 
173 1 0.105514 0.018116 0.00700079 0.00625866 0.000163074 -0.000349522 -1.11672e-10 -3.01191e-10 8.91252e-11 5e-05 1.46608e-10 
174 1 0.0993022 0.0174308 0.00717808 0.00603873 -9.47649e-05 1.41744e-05 -1.48098e-10 9.64811e-11 1.68436e-11 5e-05 1.46608e-10 
175 1 0.0931131 0.017379 0.0071735 0.00571028 0.000209009 -0.000397934 1.65841e-11 1.64644e-11 -7.26881e-12 5e-05 1.46608e-10 
176 1 0.0991276 0.0170273 0.00730109 0.00569635 6.55561e-05 -2.99849e-05 9.9609e-11 3.72382e-11 5.12358e-11 5e-05 1.46608e-10 
177 1 0.0991948 0.0177483 0.00709985 0.00617429 -4.73903e-05 2.0369e-06 -7.82582e-12 5.88884e-11 -2.33523e-11 5e-05 1.46608e-10 
178 1 0.0995484 0.0181251 0.00700661 0.00618677 -9.4502e-05 2.73231e-05 -3.27492e-10 8.23714e-11 -2.20117e-11 5e-05 1.46608e-10 
179 1 0.099485 0.0178403 0.00707669 0.00617483 -9.82854e-05 1.50511e-05 2.34394e-11 9.83102e-12 -3.48179e-12 5e-05 1.46608e-10 
181 1 0.0991099 0.0173682 0.00719381 0.00564982 0.000106331 -3.41802e-05 -9.15928e-11 -8.598e-11 3.63933e-11 5e-05 1.46608e-10 
182 1 0.104982 0.016464 0.0078111 0.00538065 -0.000153381 -0.000173377 1.10682e-10 -2.57712e-10 1.13669e-10 5e-05 1.46608e-10 
183 1 0.0993771 0.0173664 0.00719385 0.00604874 -6.39358e-05 6.64096e-06 -2.52775e-10 4.17714e-11 -8.21418e-12 5e-05 1.46608e-10 
184 1 0.105417 0.0180179 0.00707987 0.00626808 0.000202172 -0.000359787 9.86307e-11 -1.03608e-10 7.88947e-11 5e-05 1.46608e-10 
185 1 0.0990523 0.0170824 0.00726446 0.00573158 5.88679e-05 -2.12671e-05 -2.0477e-11 -4.98638e-11 -6.79358e-12 5e-05 1.46608e-10 
186 1 0.0990907 0.017273 0.00721735 0.00567326 9.11299e-05 -3.3397e-05 -8.19999e-11 -6.1993e-11 6.39672e-11 5e-05 1.46608e-10 
187 1 0.105387 0.0174119 0.00717275 0.00595157 -0.00031124 -0.000115924 -4.55272e-10 3.24133e-10 -8.74538e-11 5e-05 1.46608e-10 
188 1 0.105381 0.0181784 0.00700947 0.00624008 9.94531e-05 -0.000315821 8.73947e-10 -6.29447e-11 2.72733e-10 5e-05 1.46608e-10 
189 1 0.105428 0.0175819 0.00707678 0.00579677 5.05645e-05 0.000534188 -4.30055e-10 1.28088e-10 -1.02639e-10 5e-05 1.46608e-10 
190 1 0.0932713 0.0176774 0.00705549 0.00631519 0.000269495 0.000115918 -2.14819e-10 1.79617e-11 -1.57668e-11 5e-05 1.46608e-10 
191 1 0.105371 0.0185379 0.00700372 0.00617663 2.38633e-05 -0.000345022 1.31143e-10 -5.03215e-10 -8.86323e-11 5e-05 1.46608e-10 
192 1 0.0992985 0.0170023 0.00732308 0.0056712 2.33261e-05 -7.81544e-06 -2.0458e-10 1.37234e-11 3.069e-12 5e-05 1.46608e-10 
193 1 0.105174 0.0168973 0.00751896 0.00556149 -0.000182295 -0.000161969 8.56524e-11 6.4108e-11 -3.93676e-11 5e-05 1.46608e-10 
194 1 0.0991456 0.0167533 0.00753454 0.0056157 5.18846e-05 -2.3015e-05 3.18875e-11 -5.27561e-11 6.90036e-11 5e-05 1.46608e-10 
195 1 0.0995813 0.0178704 0.00706911 0.00618798 -0.000106802 1.68688e-05 -8.30318e-11 4.68242e-11 2.10317e-13 5e-05 1.46608e-10 
196 1 0.0986584 0.0155837 0.00852874 0.00566637 2.54562e-05 -0.000111234 -7.78468e-11 -2.81915e-10 2.10747e-10 5e-05 1.46608e-10 
197 1 0.0931751 0.0176467 0.00705957 0.00632676 0.000272925 0.000111183 8.52794e-13 5.43423e-12 1.56247e-11 5e-05 1.46608e-10 
198 1 0.0990522 0.0170973 0.00736334 0.00572099 7.10138e-05 -2.20718e-05 1.93489e-11 -1.01063e-10 5.7794e-11 5e-05 1.46608e-10 
199 1 0.0992065 0.0174 0.00718581 0.00599206 2.17207e-05 -1.33953e-05 -1.00686e-10 6.07681e-11 2.98e-12 5e-05 1.46608e-10 
200 1 0.0989946 0.0168529 0.0074491 0.00565498 6.14817e-05 -2.9816e-05 8.3654e-11 1.08098e-10 -7.68397e-11 5e-05 1.46608e-10 
201 1 0.0994735 0.0181894 0.00699091 0.00619427 -8.41319e-05 2.77511e-05 5.94937e-11 1.88342e-10 -2.90343e-11 5e-05 1.46608e-10 
202 1 0.0993172 0.017081 0.00726439 0.00563997 2.28626e-05 -1.51637e-05 -1.69877e-10 3.20501e-12 -2.09261e-12 5e-05 1.46608e-10 
203 1 0.105449 0.0176725 0.00703974 0.0061942 3.00204e-06 0.000595934 1.34423e-10 5.46798e-11 -6.33514e-11 5e-05 1.46608e-10 
204 1 0.0990701 0.016803 0.00749186 0.00562863 6.53105e-05 -3.51107e-05 1.24349e-10 -1.4767e-11 1.95053e-11 5e-05 1.46608e-10 
205 1 0.099292 0.0177794 0.00709203 0.00617284 -6.89128e-05 6.71877e-06 4.29462e-11 1.78888e-11 1.55736e-11 5e-05 1.46608e-10 
206 1 0.0993236 0.0175256 0.00715463 0.00613793 -7.54804e-05 1.00564e-05 -5.698e-11 3.17999e-11 -9.18997e-12 5e-05 1.46608e-10 
207 1 0.0989747 0.0164293 0.00780995 0.00543739 0.000112245 -7.58241e-05 -4.0672e-11 4.35281e-11 -3.49934e-11 5e-05 1.46608e-10 
208 1 0.0992817 0.0173357 0.00720156 0.00591028 -7.35879e-05 9.60411e-06 -1.66134e-10 1.69557e-10 -7.48555e-11 5e-05 1.46608e-10 
209 1 0.0990511 0.0167283 0.00755549 0.00561056 6.92745e-05 -3.96272e-05 1.32497e-10 -2.94621e-12 -1.55198e-12 5e-05 1.46608e-10 
210 1 0.105164 0.0175072 0.00722347 0.00798404 -0.000881861 -0.00148787 -4.17129e-09 5.149e-09 7.48263e-09 5e-05 1.46608e-10 
211 1 0.105419 0.018086 0.00700646 0.00626564 0.000139049 -0.000340463 -1.41339e-10 -1.67937e-10 8.67902e-11 5e-05 1.46608e-10 
212 1 0.0994201 0.017556 0.00714698 0.00613414 -8.75083e-05 1.19387e-05 3.99747e-12 -8.68256e-12 5.52669e-12 5e-05 1.46608e-10 
213 1 0.105366 0.0173304 0.00722692 0.00580593 -0.000283899 -0.000105272 -5.68125e-10 4.09297e-10 -3.20066e-10 5e-05 1.46608e-10 
214 1 0.105348 0.0179967 0.00701151 0.00626292 0.000175826 -0.000341818 1.26371e-10 -2.21361e-10 -4.75248e-11 5e-05 1.46608e-10 
215 1 0.0932277 0.0174849 0.0070967 0.00599305 0.000103771 0.000144833 -2.94421e-11 -7.30066e-12 -5.68271e-12 5e-05 1.46608e-10 
216 1 0.0991732 0.0176536 0.00712328 0.0061713 -3.7906e-05 3.80281e-07 3.85637e-13 8.288e-11 -1.69167e-11 5e-05 1.46608e-10 
217 1 0.105135 0.0167339 0.00762745 0.00546529 -0.000166679 -0.000167501 -4.79921e-10 -2.84828e-11 3.16648e-11 5e-05 1.46608e-10 
218 1 0.0992738 0.0178525 0.00715778 0.00617624 -6.61617e-05 6.73215e-06 8.64199e-12 6.07829e-11 -2.07472e-11 5e-05 1.46608e-10 
219 1 0.105306 0.0182451 0.00701084 0.00622296 7.24865e-05 -0.000346778 1.44486e-10 -2.18514e-10 1.28232e-10 5e-05 1.46608e-10 
220 1 0.0991297 0.0174634 0.00717028 0.00615581 2.34803e-05 -1.61739e-05 1.26037e-11 -1.87034e-11 1.70033e-11 5e-05 1.46608e-10 
221 1 0.0931499 0.0171654 0.0073242 0.00565947 0.000193726 -0.000381907 7.19677e-11 3.61727e-11 -3.08727e-11 5e-05 1.46608e-10 
222 1 0.105154 0.0168156 0.00757321 0.00552004 -0.000177519 -0.000163286 -2.32056e-10 -1.21417e-10 6.55697e-11 5e-05 1.46608e-10 
223 1 0.0992223 0.0170525 0.00727988 0.0056971 6.9269e-05 -3.5558e-05 9.13341e-11 6.23312e-11 -3.39469e-11 5e-05 1.46608e-10 
224 1 0.0990329 0.0170027 0.00732165 0.00570534 4.72534e-05 -1.89078e-05 2.63814e-11 6.78141e-11 -3.60104e-12 5e-05 1.46608e-10 
225 1 0.105392 0.0186355 0.00700134 0.00618204 0.000186177 -0.000347706 -7.13807e-11 -4.31845e-10 2.58187e-12 5e-05 1.46608e-10 
226 1 0.099538 0.0176809 0.00711597 0.00616119 -9.19702e-05 1.33524e-05 -5.15585e-11 -1.28913e-10 3.25129e-11 5e-05 1.46608e-10 
227 1 0.0933094 0.0177974 0.00703009 0.00633409 0.000267772 0.000116832 -4.16002e-11 3.25336e-11 -4.40292e-12 5e-05 1.46608e-10 
228 1 0.0931334 0.0174607 0.00711939 0.00584762 0.000243974 -0.000300537 -7.06383e-11 2.05856e-11 -2.57712e-11 5e-05 1.46608e-10 
229 1 0.0991923 0.0175506 0.00723776 0.0061778 6.36669e-05 -2.54107e-05 1.42636e-10 3.17938e-10 -1.14424e-10 5e-05 1.46608e-10 
230 1 0.0994386 0.0183427 0.00695366 0.00593803 5.42859e-05 -2.42641e-06 9.3838e-11 -2.25615e-11 6.23089e-11 5e-05 1.46608e-10 
231 1 0.0930946 0.0172994 0.00723106 0.00571247 0.000207666 -0.000393573 -2.37156e-11 -1.34009e-11 1.02471e-11 5e-05 1.46608e-10 
232 1 0.0991075 0.0166038 0.00766177 0.00553166 5.96528e-05 -3.11128e-05 3.78934e-11 -1.9442e-11 1.11138e-11 5e-05 1.46608e-10 
233 1 0.0991844 0.0169027 0.00740738 0.00566031 4.74771e-05 -1.89872e-05 -2.33158e-11 -5.98782e-11 6.01298e-11 5e-05 1.46608e-10 
234 1 0.105424 0.0183736 0.00700274 0.00622065 3.89465e-05 -0.00034582 6.52972e-10 1.11419e-10 -5.09952e-11 5e-05 1.46608e-10 
235 1 0.0993858 0.018599 0.00689139 0.00566225 -0.000123313 3.49703e-05 -9.94172e-12 -8.64962e-11 2.06017e-11 5e-05 1.46608e-10 
236 1 0.0995393 0.0184749 0.00692167 0.00581973 6.68036e-05 -1.03672e-05 -4.55635e-11 -6.98222e-11 -1.35498e-11 5e-05 1.46608e-10 
237 1 0.0994658 0.0185408 0.00690561 0.0057416 -1.65911e-05 9.69946e-06 -2.32333e-11 -9.81387e-11 2.71214e-11 5e-05 1.46608e-10 
239 1 0.0929185 0.0165843 0.00774838 0.00554035 0.000241215 -0.000412126 -1.16095e-10 -1.39459e-11 5.36272e-12 5e-05 1.46608e-10 
240 1 0.0929769 0.0168227 0.00757591 0.00558509 0.000218479 -0.000396899 3.1003e-10 -7.1179e-11 4.79197e-11 5e-05 1.46608e-10 
241 1 0.0928989 0.0165012 0.00780045 0.00554303 0.000455815 -6.64301e-05 4.51176e-11 -1.57553e-11 2.71112e-11 5e-05 1.46608e-10 
242 1 0.0991647 0.016828 0.00747092 0.00564055 4.9493e-05 -2.10925e-05 5.94959e-12 -8.30573e-11 6.74816e-11 5e-05 1.46608e-10 
243 1 0.0991207 0.0172108 0.00732148 0.00571204 0.000123757 -4.93949e-05 -9.51201e-11 3.17771e-11 -2.10012e-11 5e-05 1.46608e-10 
244 1 0.092938 0.0166638 0.00769089 0.00557061 0.000236404 -0.000407951 -1.30841e-10 4.77338e-11 -3.65055e-11 5e-05 1.46608e-10 
246 1 0.0930548 0.0171406 0.00734596 0.0056526 0.000208216 -0.00039271 5.51705e-11 4.20037e-11 -2.88406e-11 5e-05 1.46608e-10 