ITEM: TIMESTEP
70600000
ITEM: NUMBER OF ATOMS
269
ITEM: BOX BOUNDS ff ff ff
-0.02 0.43
-0.02 0.06
-0.02 0.07
ITEM: ATOMS id type x y z vx vy vz fx fy fz radius mass 
1 1 0.384599 0.0175858 5.25551e-05 3.40902e-15 -9.56051e-16 1.20054e-15 9.9596e-20 -2.79534e-20 1.42895e-22 5e-05 1.46608e-10 
2 1 0.384183 0.0168012 5.20101e-05 2.24032e-18 5.02093e-21 -1.71052e-15 0 3.25277e-26 0 5e-05 1.46608e-10 
4 1 0.384401 0.018342 5.22951e-05 9.07463e-20 -3.85238e-21 -6.55654e-17 0 0 0 5e-05 1.46608e-10 
5 1 0.385011 0.0167669 5.30953e-05 2.24031e-18 -2.30838e-20 -1.71052e-15 0 -6.20124e-26 0 5e-05 1.46608e-10 
6 1 0.385108 0.0179216 5.32215e-05 1.79757e-18 -8.2485e-22 -1.37249e-15 4.03897e-28 3.33377e-26 0 5e-05 1.46608e-10 
7 1 0.384328 0.0189229 5.22005e-05 -3.50272e-19 -1.60682e-20 2.6738e-16 0 1.15506e-25 0 5e-05 1.46608e-10 
8 1 0.384815 0.0184943 5.2838e-05 1.79757e-18 -8.21858e-22 -1.37249e-15 0 -4.14105e-26 0 5e-05 1.46608e-10 
9 1 0.383777 0.0196525 5.1478e-05 2.81056e-18 2.18564e-20 -2.14593e-15 0 3.19849e-27 0 5e-05 1.46608e-10 
10 1 0.384888 0.0164946 5.29341e-05 -9.20548e-19 -3.92574e-21 7.02842e-16 0 4.83214e-26 0 5e-05 1.46608e-10 
11 1 0.383974 0.0191869 5.17367e-05 2.81055e-18 1.83162e-21 -2.14593e-15 0 3.79913e-26 0 5e-05 1.46608e-10 
12 1 0.384004 0.0179482 5.17757e-05 1.35641e-19 1.66916e-20 -9.71364e-17 -1.61559e-27 5.16988e-26 0 5e-05 1.46608e-10 
13 1 0.384309 0.0184568 5.21751e-05 1.79762e-18 2.23776e-22 -1.37251e-15 0 1.71614e-26 0 5e-05 1.46608e-10 
14 1 0.384724 0.0196711 5.2719e-05 8.71347e-19 3.92525e-21 -6.65298e-16 0 -6.25891e-26 0 5e-05 1.46608e-10 
16 1 0.383685 0.0191826 5.13578e-05 2.81057e-18 8.46012e-22 -2.14593e-15 4.03897e-28 5.99477e-26 0 5e-05 1.46608e-10 
17 1 0.384698 0.0173096 5.26849e-05 2.24032e-18 1.51092e-21 -1.71051e-15 0 -4.22336e-26 0 5e-05 1.46608e-10 
19 1 0.383912 0.0197978 5.16557e-05 2.81059e-18 1.2865e-20 -2.14593e-15 0 -4.51945e-26 0 5e-05 1.46608e-10 
21 1 0.383597 0.0186925 5.12422e-05 -6.95603e-19 2.91589e-21 5.27388e-16 0 0 0 5e-05 1.46608e-10 
22 1 0.38463 0.0163628 5.2596e-05 2.24033e-18 -3.28131e-21 -1.71051e-15 4.03897e-28 -3.68616e-26 0 5e-05 1.46608e-10 
23 1 0.383878 0.0175317 5.1611e-05 5.51415e-22 4.88718e-21 -4.1708e-19 0 -1.03398e-25 0 5e-05 1.46608e-10 
24 1 0.384101 0.0187635 5.19028e-05 -9.85849e-20 2.70579e-21 7.4944e-17 0 0 0 5e-05 1.46608e-10 
26 1 0.38362 0.0183342 5.12731e-05 -2.89661e-21 1.08003e-21 1.92861e-20 0 0 0 5e-05 1.46608e-10 
27 1 0.384785 0.0180411 5.27984e-05 1.79763e-18 -1.71114e-21 -1.37251e-15 0 6.18303e-27 0 5e-05 1.46608e-10 
28 1 0.384198 0.0187953 5.20297e-05 -3.50113e-19 -1.66574e-21 2.67382e-16 0 4.15629e-27 0 5e-05 1.46608e-10 
29 1 0.384214 0.0168974 5.20505e-05 -9.20569e-19 -8.98492e-21 7.02842e-16 0 -1.41762e-25 0 5e-05 1.46608e-10 
30 1 0.384097 0.0179868 5.18972e-05 1.24338e-19 5.07393e-22 -9.71058e-17 -1.29247e-26 2.58494e-26 0 5e-05 1.46608e-10 
31 1 0.383893 0.0179765 5.16305e-05 1.37018e-20 -2.17195e-20 -2.54645e-19 0 -2.58494e-26 0 5e-05 1.46608e-10 
32 1 0.247451 0.0181454 0.00545794 3.69569e-15 -5.32149e-14 -2.74084e-13 3.22488e-21 2.03176e-23 3.99115e-23 5e-05 1.46608e-10 
33 1 0.383882 0.0177775 5.16151e-05 2.44509e-20 -3.45724e-20 -3.67989e-19 -5.16988e-26 7.75482e-26 0 5e-05 1.46608e-10 
35 1 0.384808 0.0177286 5.28287e-05 1.79759e-18 -1.17739e-21 -1.37251e-15 0 -4.11636e-26 0 5e-05 1.46608e-10 
36 1 0.383662 0.0180556 5.13278e-05 -4.28702e-21 -4.82556e-21 -4.69098e-20 5.16988e-26 -1.03398e-25 0 5e-05 1.46608e-10 
37 1 0.383909 0.0178755 5.16511e-05 -6.56717e-19 1.94189e-20 4.96745e-16 7.10858e-26 1.9387e-26 0 5e-05 1.46608e-10 
38 1 0.384713 0.0170615 5.27042e-05 2.24034e-18 8.70476e-21 -1.71052e-15 0 3.17967e-25 0 5e-05 1.46608e-10 
39 1 0.383717 0.0197911 5.13996e-05 2.81055e-18 3.25696e-21 -2.14593e-15 0 -1.26153e-26 0 5e-05 1.46608e-10 
41 1 0.383748 0.018123 5.14409e-05 2.24037e-18 -2.46507e-20 -1.71052e-15 0 2.43073e-25 0 5e-05 1.46608e-10 
42 1 0.384212 0.0181264 5.20477e-05 -2.74082e-19 9.07653e-22 2.16017e-16 0 3.23117e-27 0 5e-05 1.46608e-10 
44 1 0.384674 0.017655 5.26539e-05 1.7976e-18 -1.02696e-22 -1.37251e-15 0 -3.7293e-27 0 5e-05 1.46608e-10 
45 1 0.384212 0.0172077 5.20482e-05 2.24032e-18 3.69354e-22 -1.71051e-15 0 7.11758e-27 0 5e-05 1.46608e-10 
47 1 0.384502 0.0170164 5.24283e-05 2.24031e-18 -1.95075e-22 -1.71051e-15 0 6.52991e-27 0 5e-05 1.46608e-10 
48 1 0.383855 0.0191595 5.15803e-05 2.81057e-18 8.05549e-21 -2.14593e-15 0 -3.10596e-26 0 5e-05 1.46608e-10 
49 1 0.384166 0.0195438 5.19874e-05 2.81059e-18 -2.30723e-20 -2.14593e-15 0 -2.32482e-25 0 5e-05 1.46608e-10 
50 1 0.393427 0.0167394 0.00836768 -0.000154798 -0.0131944 0.0104041 -2.8771e-12 1.3232e-10 -7.27519e-11 5e-05 1.46608e-10 
51 1 0.384626 0.0177793 5.25903e-05 1.79761e-18 7.16316e-22 -1.37251e-15 0 5.53464e-27 0 5e-05 1.46608e-10 
52 1 0.38448 0.0176805 5.23994e-05 4.45907e-14 -2.20144e-15 -3.79383e-14 -6.9409e-19 -4.55338e-19 3.80001e-19 5e-05 1.46608e-10 
53 1 0.384734 0.0175226 5.27322e-05 9.3562e-14 -2.57335e-13 4.27051e-15 7.02931e-19 -1.70238e-18 -6.21159e-20 5e-05 1.46608e-10 
54 1 0.383738 0.0190139 5.14271e-05 -3.502e-19 6.23874e-22 2.67381e-16 0 1.54663e-26 0 5e-05 1.46608e-10 
55 1 0.384694 0.0180885 5.26795e-05 -2.82097e-19 6.36364e-23 2.16621e-16 0 0 0 5e-05 1.46608e-10 
56 1 0.383635 0.0196308 5.12923e-05 2.81058e-18 -2.96911e-21 -2.14593e-15 0 -5.02647e-26 0 5e-05 1.46608e-10 
57 1 0.383634 0.0197324 5.1291e-05 -3.50199e-19 1.02294e-22 2.67381e-16 0 -2.82545e-26 0 5e-05 1.46608e-10 
59 1 0.378022 0.019866 0.005332 -5.01925e-15 -7.41208e-15 7.69803e-14 3.38627e-24 3.61892e-25 2.06795e-25 5e-05 1.46608e-10 
60 1 0.384057 0.0182172 5.1845e-05 1.7976e-18 1.08864e-21 -1.37251e-15 0 6.61781e-26 0 5e-05 1.46608e-10 
61 1 0.384827 0.0175585 5.28544e-05 -9.4024e-14 2.30781e-13 -4.74772e-15 -5.75215e-19 1.62054e-18 2.01712e-20 5e-05 1.46608e-10 
62 1 0.384311 0.0186263 5.21774e-05 1.79762e-18 -5.53925e-21 -1.37251e-15 -4.03897e-28 1.05997e-25 0 5e-05 1.46608e-10 
63 1 0.383577 0.018452 5.1216e-05 1.71858e-21 8.36289e-21 -2.88402e-20 0 0 0 5e-05 1.46608e-10 
64 1 0.383269 0.0178073 0.0053438 -1.46695e-15 -3.31991e-15 -2.09205e-14 2.75555e-23 -1.33641e-23 0 5e-05 1.46608e-10 
65 1 0.384532 0.0167022 5.24676e-05 2.24033e-18 9.9529e-23 -1.71051e-15 0 2.09677e-28 0 5e-05 1.46608e-10 
66 1 0.383745 0.0178455 0.000126364 -1.83131e-19 -7.25079e-20 -5.25159e-21 0 0 -6.46235e-26 5e-05 1.46608e-10 
67 1 0.384602 0.0180485 5.25594e-05 -2.82823e-19 -3.7979e-22 2.16622e-16 0 2.58494e-26 0 5e-05 1.46608e-10 
68 1 0.384886 0.0184142 5.2931e-05 3.47911e-19 4.16924e-21 -2.65996e-16 6.46235e-27 0 0 5e-05 1.46608e-10 
69 1 0.383711 0.0207759 5.13922e-05 2.00505e-18 -7.05598e-22 -1.5309e-15 -4.03897e-28 -4.58869e-27 0 5e-05 1.46608e-10 
70 1 0.384746 0.0161015 5.27478e-05 2.24033e-18 7.70014e-21 -1.71051e-15 0 1.13946e-25 0 5e-05 1.46608e-10 
71 1 0.383741 0.0188606 5.14314e-05 -3.50188e-19 -1.5129e-20 2.6738e-16 0 4.45303e-26 0 5e-05 1.46608e-10 
72 1 0.384005 0.0195345 5.17769e-05 -3.50211e-19 2.44417e-21 2.67382e-16 0 4.82966e-26 0 5e-05 1.46608e-10 
73 1 0.385165 0.0173714 5.3297e-05 1.79759e-18 -3.3617e-23 -1.37251e-15 0 2.63716e-26 0 5e-05 1.46608e-10 
74 1 0.384312 0.0182285 5.21795e-05 8.41755e-20 2.34605e-21 -6.55705e-17 0 0 0 5e-05 1.46608e-10 
76 1 0.384529 0.0179806 5.24634e-05 1.79759e-18 -3.80425e-22 -1.37249e-15 0 -1.46557e-27 0 5e-05 1.46608e-10 
77 1 0.384211 0.0182562 5.20468e-05 1.79755e-18 9.12863e-21 -1.37249e-15 0 -8.1434e-26 0 5e-05 1.46608e-10 
78 1 0.384019 0.0174293 5.17959e-05 2.24035e-18 -6.68014e-22 -1.71052e-15 0 1.38365e-26 0 5e-05 1.46608e-10 
79 1 0.383618 0.019402 5.12705e-05 -3.50181e-19 2.22335e-22 2.67382e-16 0 4.53189e-26 0 5e-05 1.46608e-10 
80 1 0.384203 0.0173209 5.20365e-05 2.24034e-18 4.01973e-20 -1.71051e-15 0 -5.47016e-26 0 5e-05 1.46608e-10 
82 1 0.384071 0.0186677 5.1864e-05 -3.50214e-19 -1.18834e-22 2.67382e-16 0 -8.57753e-27 0 5e-05 1.46608e-10 
83 1 0.384602 0.0164616 5.25589e-05 2.24031e-18 6.7493e-21 -1.71052e-15 0 -3.06519e-26 0 5e-05 1.46608e-10 
84 1 0.384003 0.0188652 5.17748e-05 -9.43966e-20 7.69126e-22 7.49431e-17 0 0 0 5e-05 1.46608e-10 
85 1 0.384491 0.0201706 5.24132e-05 8.71384e-19 -6.57642e-21 -6.65297e-16 0 -1.91243e-25 0 5e-05 1.46608e-10 
86 1 0.38452 0.0190801 5.24517e-05 2.81058e-18 -1.04319e-20 -2.14593e-15 0 1.08265e-25 0 5e-05 1.46608e-10 
87 1 0.384401 0.0173066 5.22954e-05 2.24034e-18 7.44568e-21 -1.71051e-15 -4.03897e-28 -1.65311e-25 0 5e-05 1.46608e-10 
88 1 0.384597 0.0181855 5.25521e-05 1.79757e-18 -6.00288e-22 -1.37249e-15 0 -2.04636e-26 0 5e-05 1.46608e-10 
89 1 0.383831 0.0209331 5.15494e-05 2.00504e-18 7.36099e-21 -1.5309e-15 0 -2.05012e-26 0 5e-05 1.46608e-10 
90 1 0.384476 0.0180662 5.23935e-05 -2.82052e-19 2.33167e-20 2.16044e-16 0 0 0 5e-05 1.46608e-10 
91 1 0.384562 0.0161408 5.25065e-05 2.24032e-18 -9.81225e-20 -1.71051e-15 0 -1.51826e-24 0 5e-05 1.46608e-10 
92 1 0.383623 0.0181478 5.12773e-05 -6.82083e-23 9.15872e-21 -5.09025e-20 -2.58494e-26 1.03398e-25 0 5e-05 1.46608e-10 
93 1 0.384831 0.0190845 5.28587e-05 2.81058e-18 1.24998e-20 -2.14593e-15 0 6.45151e-26 0 5e-05 1.46608e-10 
94 1 0.384215 0.0186925 5.20517e-05 -3.50205e-19 -2.0809e-21 2.67382e-16 0 1.6829e-26 0 5e-05 1.46608e-10 
95 1 0.383676 0.018497 5.13469e-05 2.81051e-18 1.2131e-21 -2.14593e-15 0 5.7393e-27 0 5e-05 1.46608e-10 
96 1 0.385068 0.0173509 5.31688e-05 2.24032e-18 7.40976e-22 -1.71052e-15 0 -6.75666e-26 0 5e-05 1.46608e-10 
97 1 0.385082 0.0166964 5.31883e-05 2.24031e-18 4.25203e-22 -1.71052e-15 0 -6.94372e-27 0 5e-05 1.46608e-10 
98 1 0.384494 0.017574 5.24182e-05 -9.20551e-19 -3.31703e-22 7.02843e-16 -4.03897e-28 -1.6026e-27 0 5e-05 1.46608e-10 
99 1 0.383876 0.0176099 0.000113825 4.09122e-20 2.13703e-20 -4.03892e-19 0 1.03398e-25 2.06795e-25 5e-05 1.46608e-10 
100 1 0.383701 0.0182111 5.13792e-05 1.79759e-18 -1.16146e-21 -1.37251e-15 0 -8.51304e-28 0 5e-05 1.46608e-10 
101 1 0.3839 0.0196686 5.16397e-05 -3.50217e-19 -1.67814e-21 2.67381e-16 0 7.26823e-26 0 5e-05 1.46608e-10 
102 1 0.0643568 0.0187248 0.00531097 4.14708e-15 1.05495e-14 8.29599e-14 -9.48065e-22 -2.88221e-23 4.48745e-23 5e-05 1.46608e-10 
103 1 0.230779 0.0182774 0.00551293 -5.39338e-15 6.60348e-15 4.46823e-14 6.20954e-22 6.29924e-22 -1.40621e-23 5e-05 1.46608e-10 
104 1 0.38388 0.0192583 5.16135e-05 2.81055e-18 3.08605e-21 -2.14593e-15 0 1.80563e-26 0 5e-05 1.46608e-10 
105 1 0.384197 0.0178013 5.20291e-05 2.24036e-18 3.46791e-22 -1.71052e-15 0 5.85676e-27 0 5e-05 1.46608e-10 
106 1 0.384064 0.01708 5.85246e-05 5.38887e-18 2.22844e-18 1.27384e-19 0 1.03398e-25 0 5e-05 1.46608e-10 
107 1 0.383991 0.0177466 5.17583e-05 -1.69073e-21 2.70681e-21 -4.36963e-19 -2.58494e-26 5.16988e-26 0 5e-05 1.46608e-10 
108 1 0.383604 0.0189528 5.1252e-05 2.30898e-21 6.65105e-21 7.08695e-21 0 0 0 5e-05 1.46608e-10 
109 1 0.383824 0.0193429 5.15405e-05 2.81058e-18 -2.06395e-22 -2.14593e-15 0 -4.25102e-27 0 5e-05 1.46608e-10 
110 1 0.384848 0.0181615 5.28813e-05 -2.83456e-19 5.2781e-22 2.16623e-16 0 -1.29247e-26 0 5e-05 1.46608e-10 
111 1 0.383759 0.0180222 5.14545e-05 -5.1452e-21 -1.38196e-20 -3.02827e-19 0 -5.16988e-26 0 5e-05 1.46608e-10 
112 1 0.384668 0.0204846 5.26453e-05 2.00507e-18 -7.41781e-21 -1.5309e-15 0 2.85074e-25 0 5e-05 1.46608e-10 
113 1 0.384006 0.0178482 5.17777e-05 1.07872e-19 2.34566e-20 -9.71119e-17 -1.29247e-25 2.58494e-26 0 5e-05 1.46608e-10 
114 1 0.385064 0.0164614 5.31641e-05 2.24036e-18 8.05706e-20 -1.71052e-15 0 7.63089e-25 0 5e-05 1.46608e-10 
115 1 0.38433 0.0192224 5.22022e-05 2.81057e-18 2.15813e-21 -2.14593e-15 -4.03897e-28 -1.13111e-25 0 5e-05 1.46608e-10 
116 1 0.384884 0.0180547 5.29282e-05 1.79755e-18 6.65565e-23 -1.37249e-15 0 -1.56071e-26 0 5e-05 1.46608e-10 
117 1 0.383529 0.0177712 0.00534448 4.30695e-18 -1.80377e-14 -5.94669e-14 -1.89882e-25 0 0 5e-05 1.46608e-10 
118 1 0.384874 0.0171689 5.29154e-05 2.24034e-18 1.39876e-20 -1.71052e-15 0 8.99046e-26 0 5e-05 1.46608e-10 
119 1 0.383718 0.017918 5.14012e-05 1.85176e-21 -6.2613e-21 5.45239e-19 0 0 0 5e-05 1.46608e-10 
120 1 0.384613 0.0170491 5.25734e-05 2.24034e-18 4.79644e-21 -1.71052e-15 0 -1.59525e-25 0 5e-05 1.46608e-10 
121 1 0.385676 0.0164514 5.39659e-05 1.45286e-18 -2.86049e-20 -1.10923e-15 0 1.43076e-25 0 5e-05 1.46608e-10 
122 1 0.384725 0.0177988 5.27197e-05 1.79757e-18 -9.57857e-22 -1.37249e-15 0 1.84997e-27 0 5e-05 1.46608e-10 
123 1 0.383915 0.0205035 5.16596e-05 8.71343e-19 2.54824e-22 -6.65298e-16 0 -1.7545e-26 0 5e-05 1.46608e-10 
124 1 0.38514 0.0150589 5.32639e-05 -6.70428e-20 -3.20258e-20 5.11809e-17 0 3.06681e-26 0 5e-05 1.46608e-10 
125 1 0.384411 0.0182414 5.23096e-05 1.79759e-18 2.56647e-23 -1.37251e-15 0 -2.6512e-28 0 5e-05 1.46608e-10 
127 1 0.384568 0.0171652 5.25152e-05 2.24034e-18 -3.9862e-22 -1.71052e-15 0 -2.42826e-27 0 5e-05 1.46608e-10 
128 1 0.384299 0.0176122 5.21628e-05 2.24032e-18 5.52195e-23 -1.71051e-15 0 -5.49269e-28 0 5e-05 1.46608e-10 
129 1 0.384156 0.0171195 5.19742e-05 8.45113e-21 -1.62485e-20 5.19345e-19 -1.03398e-25 1.03398e-25 0 5e-05 1.46608e-10 
130 1 0.385036 0.0171379 5.31278e-05 2.24033e-18 -6.93278e-21 -1.71052e-15 0 2.61179e-25 0 5e-05 1.46608e-10 
131 1 0.38397 0.0175718 5.17312e-05 2.24032e-18 1.29349e-21 -1.71051e-15 4.03897e-28 -7.43964e-27 0 5e-05 1.46608e-10 
132 1 0.385069 0.0180992 5.31713e-05 1.79762e-18 -3.68336e-22 -1.37251e-15 -4.03897e-28 -5.93619e-27 0 5e-05 1.46608e-10 
133 1 0.384477 0.0187082 5.23958e-05 1.79762e-18 -3.70792e-21 -1.37251e-15 0 -1.37124e-26 0 5e-05 1.46608e-10 
134 1 0.384249 0.0183505 5.20968e-05 8.87465e-20 -6.20507e-23 -6.55682e-17 0 0 0 5e-05 1.46608e-10 
135 1 0.383899 0.019542 5.16388e-05 -3.50202e-19 3.5744e-22 2.6738e-16 0 -9.79405e-26 0 5e-05 1.46608e-10 
136 1 0.384145 0.017899 5.19599e-05 1.43982e-19 -7.9439e-22 -9.7108e-17 5.16988e-26 -5.16988e-26 0 5e-05 1.46608e-10 
137 1 0.383813 0.0198281 5.15254e-05 -3.5018e-19 -2.40629e-21 2.67381e-16 0 -9.31184e-27 0 5e-05 1.46608e-10 
138 1 0.384467 0.0171735 5.23827e-05 2.24035e-18 2.09057e-22 -1.71052e-15 0 8.33366e-27 0 5e-05 1.46608e-10 
140 1 0.384752 0.0179004 5.27554e-05 1.79759e-18 -1.54025e-21 -1.37249e-15 0 -1.32758e-25 0 5e-05 1.46608e-10 
141 1 0.38497 0.0181068 5.30405e-05 -5.31509e-19 -4.83415e-21 4.04658e-16 0 0 0 5e-05 1.46608e-10 
142 1 0.38496 0.0184888 5.30276e-05 1.79756e-18 1.95405e-21 -1.37249e-15 0 3.13355e-27 0 5e-05 1.46608e-10 
143 1 0.384762 0.0181437 0.000100712 -2.83706e-19 -9.39528e-21 2.16619e-16 0 0 0 5e-05 1.46608e-10 
144 1 0.383431 0.0175376 0.00541532 1.06729e-17 -1.80378e-14 -5.94669e-14 -7.92031e-23 0 0 5e-05 1.46608e-10 
146 1 0.384977 0.0180356 0.000122854 -5.36517e-19 -4.79366e-22 4.04649e-16 -2.58494e-26 5.16988e-26 0 5e-05 1.46608e-10 
147 1 0.383614 0.0185748 5.12645e-05 -3.50169e-19 2.10979e-21 2.67381e-16 0 -5.31005e-26 0 5e-05 1.46608e-10 
148 1 0.384112 0.0172175 5.19177e-05 2.24033e-18 7.78881e-22 -1.71051e-15 0 4.67067e-27 0 5e-05 1.46608e-10 
149 1 0.385015 0.0183005 5.30994e-05 1.79759e-18 7.86163e-23 -1.37251e-15 0 -2.78435e-26 0 5e-05 1.46608e-10 
150 1 0.384846 0.0192085 5.28787e-05 8.71337e-19 -8.586e-21 -6.65297e-16 0 -9.836e-26 0 5e-05 1.46608e-10 
151 1 0.384832 0.0188472 5.28603e-05 1.7976e-18 1.79131e-20 -1.37251e-15 0 -1.12851e-26 0 5e-05 1.46608e-10 
153 1 0.383898 0.0179255 0.00013754 1.37208e-17 -1.48004e-16 2.48504e-16 -4.20053e-26 5.16988e-26 0 5e-05 1.46608e-10 
154 1 0.383898 0.0181094 5.16374e-05 1.79759e-18 -9.97415e-23 -1.37251e-15 0 -3.32643e-27 0 5e-05 1.46608e-10 
155 1 0.384945 0.0179716 5.30077e-05 -5.31547e-19 -4.94564e-21 4.04653e-16 0 0 0 5e-05 1.46608e-10 
156 1 0.384147 0.0170045 5.19627e-05 7.30146e-21 4.45061e-21 -1.84571e-18 2.58494e-26 2.58494e-26 0 5e-05 1.46608e-10 
157 1 0.0219312 0.0187687 0.00551176 -3.8301e-14 8.16616e-14 2.95893e-13 5.34152e-22 2.65163e-22 -1.38553e-23 5e-05 1.46608e-10 
158 1 0.384399 0.017607 5.22938e-05 2.24035e-18 -7.72239e-23 -1.71052e-15 0 -5.18189e-28 0 5e-05 1.46608e-10 
159 1 0.384201 0.0184387 5.20343e-05 1.79764e-18 2.04857e-21 -1.37251e-15 0 2.82546e-26 0 5e-05 1.46608e-10 
160 1 0.383571 0.0183829 0.000123314 -1.5007e-21 4.85387e-22 -1.37446e-21 0 0 0 5e-05 1.46608e-10 
162 1 0.384488 0.0195864 5.24091e-05 -3.50198e-19 -1.70308e-21 2.67381e-16 0 -2.74666e-26 0 5e-05 1.46608e-10 
164 1 0.384755 0.0166629 5.27588e-05 -9.20522e-19 -2.95334e-20 7.02843e-16 0 -9.95265e-26 0 5e-05 1.46608e-10 
165 1 0.383838 0.0177344 0.000130408 -1.11647e-19 4.49025e-20 -3.70088e-19 1.03398e-25 -2.58494e-26 0 5e-05 1.46608e-10 
166 1 0.383767 0.0192404 5.14661e-05 2.81058e-18 -3.88544e-21 -2.14593e-15 0 4.1167e-26 0 5e-05 1.46608e-10 
167 1 0.384912 0.0178665 5.29654e-05 1.7976e-18 1.15362e-22 -1.37251e-15 0 1.69123e-26 0 5e-05 1.46608e-10 
168 1 0.384018 0.01725 5.17936e-05 2.24032e-18 -7.88563e-21 -1.71052e-15 0 -3.61798e-25 0 5e-05 1.46608e-10 
169 1 0.384049 0.019854 5.18343e-05 -3.50176e-19 6.04097e-21 2.67382e-16 0 -1.37441e-25 0 5e-05 1.46608e-10 
170 1 0.383999 0.018436 5.17689e-05 1.79761e-18 2.96591e-21 -1.37251e-15 0 1.19737e-25 0 5e-05 1.46608e-10 
171 1 0.384038 0.0188005 0.000119845 -9.13768e-20 7.0025e-21 7.49371e-17 0 0 0 5e-05 1.46608e-10 
172 1 0.384373 0.0180412 5.22591e-05 1.79756e-18 3.17877e-22 -1.37249e-15 0 -2.45435e-26 0 5e-05 1.46608e-10 
173 1 0.384964 0.0172331 5.30331e-05 2.24031e-18 -8.81424e-22 -1.71052e-15 0 -1.03876e-25 0 5e-05 1.46608e-10 
174 1 0.384622 0.0182827 5.25858e-05 1.79759e-18 4.45059e-22 -1.37251e-15 0 -3.9104e-27 0 5e-05 1.46608e-10 
176 1 0.383932 0.0176648 5.16808e-05 -4.10758e-21 6.22701e-21 -4.08511e-19 0 0 0 5e-05 1.46608e-10 
177 1 0.38404 0.0185721 5.18234e-05 1.79764e-18 -1.9017e-21 -1.37251e-15 0 -9.08603e-26 0 5e-05 1.46608e-10 
178 1 0.384829 0.019706 5.28566e-05 8.71363e-19 2.90991e-22 -6.65297e-16 0 5.84782e-27 0 5e-05 1.46608e-10 
179 1 0.384191 0.0191787 5.20202e-05 2.81058e-18 1.00653e-20 -2.14593e-15 0 -1.51769e-25 0 5e-05 1.46608e-10 
182 1 0.384115 0.018498 5.19211e-05 1.79757e-18 1.02008e-22 -1.37249e-15 0 -3.81577e-27 0 5e-05 1.46608e-10 
183 1 0.384721 0.0202918 5.27147e-05 8.71373e-19 -8.2475e-23 -6.65297e-16 0 -6.19966e-28 0 5e-05 1.46608e-10 
184 1 0.384677 0.0179669 5.2657e-05 1.79756e-18 -1.85333e-21 -1.37249e-15 0 1.77501e-26 0 5e-05 1.46608e-10 
185 1 0.38458 0.01769 5.25298e-05 3.5738e-14 8.86758e-14 3.70253e-14 -7.08616e-19 -2.99673e-19 -3.6906e-19 5e-05 1.46608e-10 
186 1 0.38368 0.0195057 5.13522e-05 -3.50177e-19 2.53525e-21 2.67381e-16 0 -1.20614e-25 0 5e-05 1.46608e-10 
187 1 0.384427 0.0170821 5.23292e-05 -2.3702e-20 5.15726e-21 5.48365e-19 0 -2.58494e-26 4.1359e-25 5e-05 1.46608e-10 
188 1 0.38383 0.0176734 5.15473e-05 -8.61857e-21 1.93509e-22 -4.04507e-19 0 0 0 5e-05 1.46608e-10 
189 1 0.383918 0.017439 5.16628e-05 2.24033e-18 -5.05567e-22 -1.71052e-15 4.03897e-28 -6.38668e-27 0 5e-05 1.46608e-10 
190 1 0.383979 0.0193213 5.17425e-05 -3.5017e-19 -4.16106e-21 2.67381e-16 0 6.52e-27 0 5e-05 1.46608e-10 
191 1 0.384646 0.017421 5.26161e-05 2.24034e-18 2.4868e-22 -1.71052e-15 -4.03897e-28 -7.95655e-27 0 5e-05 1.46608e-10 
192 1 0.384378 0.0175059 5.22658e-05 2.24031e-18 -9.81065e-22 -1.71052e-15 0 6.55365e-27 0 5e-05 1.46608e-10 
193 1 0.384089 0.0190435 5.18871e-05 -3.50222e-19 -1.67611e-21 2.67382e-16 0 -1.55739e-26 0 5e-05 1.46608e-10 
194 1 0.383653 0.019074 5.13159e-05 -4.05918e-21 4.14507e-21 -5.42201e-21 0 0 0 5e-05 1.46608e-10 
195 1 0.383846 0.0182168 5.15694e-05 1.79758e-18 1.14359e-22 -1.37249e-15 0 1.59329e-26 0 5e-05 1.46608e-10 
196 1 0.384118 0.0180904 5.19255e-05 1.79759e-18 7.46901e-22 -1.37251e-15 0 -9.55119e-27 0 5e-05 1.46608e-10 
197 1 0.383944 0.0178123 0.000121771 -4.26332e-17 -2.45488e-17 -4.87966e-17 5.16988e-26 5.16988e-26 0 5e-05 1.46608e-10 
198 1 0.383892 0.0185466 5.16296e-05 -3.50178e-19 2.67543e-21 2.67381e-16 0 1.53259e-25 0 5e-05 1.46608e-10 
199 1 0.383899 0.0194311 5.16383e-05 2.81058e-18 2.29843e-21 -2.14593e-15 0 -1.89746e-25 0 5e-05 1.46608e-10 
200 1 0.385014 0.0178743 5.30989e-05 1.79761e-18 -2.76074e-22 -1.37249e-15 0 1.69945e-27 0 5e-05 1.46608e-10 
201 1 0.384311 0.0181229 5.21786e-05 -2.81903e-19 7.72698e-22 2.16019e-16 0 0 0 5e-05 1.46608e-10 
202 1 0.38375 0.0179324 0.000175661 -1.78768e-19 -1.19171e-19 -5.75339e-21 0 0 0 5e-05 1.46608e-10 
203 1 0.384564 0.0165956 5.2509e-05 2.24037e-18 8.17309e-22 -1.71052e-15 0 5.08571e-27 0 5e-05 1.46608e-10 
204 1 0.38396 0.0190065 5.17177e-05 2.81056e-18 -1.17859e-22 -2.14593e-15 0 -7.95644e-27 0 5e-05 1.46608e-10 
206 1 0.384465 0.0168375 5.23795e-05 2.24032e-18 7.88481e-22 -1.71052e-15 -4.03897e-28 3.16518e-25 0 5e-05 1.46608e-10 
207 1 0.385175 0.0175512 5.33093e-05 1.79759e-18 -1.43868e-20 -1.37251e-15 0 -2.97791e-25 0 5e-05 1.46608e-10 
208 1 0.383584 0.0182412 5.12248e-05 1.40076e-21 2.7769e-21 2.29313e-20 -7.75482e-26 0 0 5e-05 1.46608e-10 
209 1 0.38493 0.0182425 5.29879e-05 3.53855e-19 9.40505e-21 -2.65995e-16 0 0 0 5e-05 1.46608e-10 
210 1 0.384351 0.0171769 5.22304e-05 2.24033e-18 5.94075e-22 -1.71051e-15 0 1.78666e-25 0 5e-05 1.46608e-10 
211 1 0.383783 0.0177617 5.14859e-05 9.17576e-22 -3.4503e-21 -2.71464e-19 0 0 0 5e-05 1.46608e-10 
212 1 0.384062 0.0199546 5.18516e-05 2.81054e-18 3.21935e-21 -2.14593e-15 0 7.58386e-27 0 5e-05 1.46608e-10 
213 1 0.384476 0.0184173 5.2394e-05 1.79761e-18 2.22249e-21 -1.37249e-15 0 4.7223e-27 0 5e-05 1.46608e-10 
214 1 0.38469 0.0169374 5.26743e-05 2.24031e-18 1.4003e-21 -1.71051e-15 0 1.79531e-27 0 5e-05 1.46608e-10 
215 1 0.384121 0.0182994 5.19287e-05 1.79761e-18 -3.76219e-22 -1.37249e-15 0 -1.21769e-26 0 5e-05 1.46608e-10 
216 1 0.384245 0.017708 5.20916e-05 2.24034e-18 -1.0542e-20 -1.71052e-15 0 -6.40705e-26 0 5e-05 1.46608e-10 
217 1 0.384064 0.0191417 5.1854e-05 -3.50187e-19 2.4171e-23 2.67382e-16 0 9.01713e-29 0 5e-05 1.46608e-10 
218 1 0.384457 0.017909 5.23695e-05 1.79763e-18 -1.73409e-23 -1.37251e-15 0 -1.17568e-27 0 5e-05 1.46608e-10 
219 1 0.384944 0.0197441 5.30067e-05 8.71363e-19 3.34286e-22 -6.65297e-16 0 4.18083e-27 0 5e-05 1.46608e-10 
220 1 0.383696 0.018399 5.13731e-05 -1.3611e-20 7.39773e-21 1.49945e-20 0 0 0 5e-05 1.46608e-10 
222 1 0.384799 0.0201778 5.28171e-05 8.71368e-19 1.26888e-20 -6.65297e-16 0 6.17641e-26 0 5e-05 1.46608e-10 
224 1 0.384494 0.0174269 5.24173e-05 2.24035e-18 -3.43221e-21 -1.71052e-15 0 -1.58109e-26 0 5e-05 1.46608e-10 
225 1 0.385146 0.0176526 5.3272e-05 1.79763e-18 6.86257e-21 -1.37251e-15 4.03897e-28 1.06925e-25 0 5e-05 1.46608e-10 
226 1 0.384104 0.018398 5.1907e-05 1.79763e-18 2.29282e-24 -1.37251e-15 4.03897e-28 -3.18868e-28 0 5e-05 1.46608e-10 
227 1 0.383688 0.0179861 0.000118273 1.06055e-19 -3.48124e-19 2.6327e-19 0 5.16988e-26 0 5e-05 1.46608e-10 
228 1 0.383956 0.018209 5.17134e-05 1.7976e-18 -3.57836e-21 -1.37249e-15 0 -6.26469e-26 0 5e-05 1.46608e-10 
229 1 0.383699 0.0187044 5.13766e-05 -6.87441e-19 1.90586e-21 5.27391e-16 0 0 0 5e-05 1.46608e-10 
230 1 0.384584 0.0183818 5.25351e-05 1.79764e-18 -4.90376e-22 -1.37251e-15 0 2.48475e-26 0 5e-05 1.46608e-10 
232 1 0.384362 0.0190848 5.22448e-05 -3.50222e-19 1.74167e-21 2.67381e-16 0 4.48894e-26 0 5e-05 1.46608e-10 
233 1 0.384256 0.0171177 5.21052e-05 -2.27037e-21 7.86355e-21 5.06281e-19 0 0 -2.06795e-25 5e-05 1.46608e-10 
234 1 0.383811 0.0178578 5.15218e-05 1.70579e-20 -6.86358e-21 -2.71719e-19 0 0 0 5e-05 1.46608e-10 
235 1 0.384124 0.0177325 5.19334e-05 1.21134e-19 -1.01496e-20 -9.70849e-17 -5.16988e-26 0 0 5e-05 1.46608e-10 
236 1 0.385085 0.017804 5.3192e-05 1.79756e-18 1.28471e-22 -1.37249e-15 0 -1.21767e-28 0 5e-05 1.46608e-10 
237 1 0.384023 0.0180557 5.18008e-05 1.7976e-18 8.74806e-23 -1.37249e-15 0 1.59338e-27 0 5e-05 1.46608e-10 
239 1 0.38421 0.017017 0.000128507 9.97079e-19 -1.99897e-19 -6.48159e-19 0 -1.29247e-26 2.06795e-25 5e-05 1.46608e-10 
240 1 0.384108 0.0176224 5.19122e-05 -7.67424e-21 -6.04203e-22 -4.36321e-19 0 0 0 5e-05 1.46608e-10 
241 1 0.384924 0.0176585 5.29803e-05 1.79764e-18 1.49614e-21 -1.37251e-15 0 7.80842e-26 0 5e-05 1.46608e-10 
242 1 0.385388 0.0170488 5.35891e-05 1.45284e-18 1.63028e-20 -1.10924e-15 0 1.45505e-26 0 5e-05 1.46608e-10 
243 1 0.38396 0.0173391 5.17184e-05 2.24036e-18 1.26794e-23 -1.71052e-15 0 -5.99121e-27 0 5e-05 1.46608e-10 
244 1 0.383851 0.0186443 5.15749e-05 -3.50199e-19 -4.35455e-22 2.67382e-16 4.03897e-28 -1.26998e-27 0 5e-05 1.46608e-10 
246 1 0.385125 0.016896 5.32444e-05 2.24036e-18 2.67894e-22 -1.71052e-15 0 8.91216e-28 0 5e-05 1.46608e-10 
248 1 0.383834 0.0184534 5.15531e-05 -3.5019e-19 1.73927e-21 2.67381e-16 0 2.17586e-26 0 5e-05 1.46608e-10 
249 1 0.386067 0.0153632 5.44775e-05 1.45287e-18 1.84362e-22 -1.10923e-15 0 -1.20271e-26 0 5e-05 1.46608e-10 
250 1 0.383325 0.0167044 0.00838564 6.9361e-06 0.000140136 0.000799368 -1.29228e-12 1.94924e-10 -1.63107e-10 5e-05 1.46608e-10 
251 1 0.384572 0.0174895 5.25197e-05 -3.41107e-15 9.57679e-16 1.19271e-15 -9.95748e-20 2.79343e-20 -1.42689e-22 5e-05 1.46608e-10 
252 1 0.384889 0.0183235 9.50979e-05 3.50129e-19 1.1268e-20 -2.65992e-16 -1.29247e-26 0 0 5e-05 1.46608e-10 
253 1 0.383571 0.018535 0.00522286 -7.98408e-15 2.53761e-14 1.31295e-13 8.65955e-25 -5.16988e-26 0 5e-05 1.46608e-10 
254 1 0.384301 0.0172952 5.21647e-05 2.24031e-18 -1.95535e-21 -1.71052e-15 0 -1.99704e-26 0 5e-05 1.46608e-10 
255 1 0.38386 0.0190057 5.15867e-05 -3.5022e-19 1.83859e-21 2.67381e-16 0 -5.59917e-26 0 5e-05 1.46608e-10 
256 1 0.383997 0.0204249 5.17662e-05 8.71378e-19 -9.86083e-22 -6.65297e-16 0 2.40119e-26 0 5e-05 1.46608e-10 
257 1 0.385041 0.0180031 5.31334e-05 -5.2893e-19 -5.33397e-22 4.04648e-16 2.58494e-26 -2.58494e-26 0 5e-05 1.46608e-10 
258 1 0.384272 0.0170005 5.21271e-05 9.93425e-21 8.3709e-21 5.39969e-19 0 -2.58494e-26 0 5e-05 1.46608e-10 
259 1 0.384253 0.0166268 5.21024e-05 -9.20572e-19 1.61945e-21 7.02844e-16 0 -1.96364e-27 0 5e-05 1.46608e-10 
260 1 0.385186 0.0206932 5.33243e-05 -2.31191e-19 -7.70703e-21 1.76521e-16 0 -2.83418e-25 0 5e-05 1.46608e-10 
261 1 0.38441 0.0181414 5.23073e-05 -2.87199e-19 6.70809e-21 2.16023e-16 0 0 0 5e-05 1.46608e-10 
262 1 0.383808 0.0179475 9.56896e-05 1.39592e-20 -5.78394e-20 -2.73102e-19 0 3.87741e-26 -2.06795e-25 5e-05 1.46608e-10 
263 1 0.385136 0.0154015 5.32589e-05 1.45282e-18 -9.71695e-21 -1.10923e-15 0 -1.47354e-25 0 5e-05 1.46608e-10 
264 1 0.384094 0.0178206 8.84889e-05 1.38449e-19 -4.62213e-20 -9.70911e-17 0 0 2.06795e-25 5e-05 1.46608e-10 
265 1 0.383903 0.018864 5.16441e-05 2.81055e-18 3.84594e-24 -2.14593e-15 0 1.98671e-29 0 5e-05 1.46608e-10 
266 1 0.384739 0.0172129 5.27388e-05 -9.2057e-19 1.25375e-21 7.02843e-16 0 -2.5171e-27 0 5e-05 1.46608e-10 
268 1 0.387501 0.0145625 5.63555e-05 -6.70578e-20 4.6293e-21 5.11804e-17 4.03897e-28 -4.77049e-26 0 5e-05 1.46608e-10 
269 1 0.384702 0.0182078 5.26903e-05 -2.82543e-19 1.01423e-21 2.16628e-16 0 5.16988e-26 0 5e-05 1.46608e-10 
270 1 0.383998 0.0187387 5.17683e-05 -9.84814e-20 1.35308e-21 7.49404e-17 0 0 0 5e-05 1.46608e-10 
271 1 0.38456 0.0198571 5.2504e-05 8.71385e-19 2.87291e-20 -6.65297e-16 0 8.91933e-25 0 5e-05 1.46608e-10 
272 1 0.384323 0.0183113 0.000107218 9.3719e-20 -5.66915e-21 -6.55678e-17 -5.16988e-26 0 0 5e-05 1.46608e-10 
273 1 0.384247 0.0174825 5.20942e-05 -9.20559e-19 -1.73497e-21 7.02843e-16 0 -8.12409e-26 0 5e-05 1.46608e-10 
274 1 0.38379 0.0183625 5.14951e-05 1.7976e-18 1.07763e-23 -1.37251e-15 0 -2.44196e-27 0 5e-05 1.46608e-10 
275 1 0.384335 0.0170692 8.94554e-05 5.16512e-21 2.66978e-20 5.33798e-19 5.16988e-26 2.58494e-26 -2.06795e-25 5e-05 1.46608e-10 
276 1 0.384997 0.0161341 5.30769e-05 2.24035e-18 4.02781e-20 -1.71052e-15 4.03897e-28 9.4637e-25 0 5e-05 1.46608e-10 
278 1 0.384825 0.018259 5.28512e-05 3.52846e-19 1.3199e-21 -2.65994e-16 0 0 0 5e-05 1.46608e-10 
279 1 0.384252 0.0210736 5.21011e-05 2.00505e-18 4.03556e-21 -1.5309e-15 0 8.07561e-26 0 5e-05 1.46608e-10 
280 1 0.383599 0.0190252 0.000120033 -7.01232e-21 7.20733e-22 3.6542e-22 0 9.69352e-27 5.16988e-26 5e-05 1.46608e-10 
281 1 0.384805 0.0186896 5.28247e-05 1.79755e-18 -1.07757e-20 -1.37249e-15 0 1.1252e-25 0 5e-05 1.46608e-10 
283 1 0.383797 0.0177162 0.000219802 -2.89612e-19 -1.04982e-19 -8.2358e-22 -5.16988e-26 6.46235e-26 -6.46235e-27 5e-05 1.46608e-10 
284 1 0.383576 0.0182495 0.000150621 1.30593e-20 6.96421e-21 -4.44982e-22 0 5.16988e-26 0 5e-05 1.46608e-10 
285 1 0.384577 0.0172681 5.25269e-05 2.24032e-18 1.13182e-20 -1.71051e-15 0 -5.29462e-26 0 5e-05 1.46608e-10 
286 1 0.383757 0.0185573 5.14518e-05 -3.50207e-19 5.29708e-23 2.67382e-16 0 -6.42441e-27 0 5e-05 1.46608e-10 
287 1 0.384957 0.0177572 5.30246e-05 1.79763e-18 -5.84906e-22 -1.37251e-15 4.03897e-28 4.79569e-26 0 5e-05 1.46608e-10 
288 1 0.383954 0.0183132 5.17102e-05 1.7976e-18 -5.53103e-22 -1.37249e-15 0 -3.80002e-26 0 5e-05 1.46608e-10 
289 1 0.384537 0.0180461 0.000128511 -4.49199e-20 1.84953e-20 2.1634e-16 0 3.23117e-27 0 5e-05 1.46608e-10 
290 1 0.384346 0.0178493 5.22233e-05 1.7976e-18 -1.7419e-22 -1.37249e-15 -4.03897e-28 3.16905e-27 0 5e-05 1.46608e-10 
291 1 0.383806 0.0207438 5.15163e-05 2.00507e-18 -9.14389e-22 -1.5309e-15 -4.03897e-28 -2.13575e-27 0 5e-05 1.46608e-10 
292 1 0.384812 0.0169702 5.28343e-05 2.24036e-18 -2.02724e-22 -1.71051e-15 0 1.08785e-27 0 5e-05 1.46608e-10 
293 1 0.383927 0.0199158 5.1675e-05 2.81055e-18 -3.53946e-21 -2.14593e-15 0 -1.35562e-26 0 5e-05 1.46608e-10 
294 1 0.383957 0.0186367 5.17142e-05 2.81057e-18 2.44692e-21 -2.14593e-15 0 -5.73056e-26 0 5e-05 1.46608e-10 
295 1 0.384861 0.0185948 5.28981e-05 1.79759e-18 -2.57783e-21 -1.37249e-15 0 1.00897e-26 0 5e-05 1.46608e-10 
296 1 0.385006 0.0184002 5.30883e-05 1.79759e-18 6.88428e-22 -1.37249e-15 0 -1.1137e-26 0 5e-05 1.46608e-10 
297 1 0.383629 0.01881 5.12843e-05 -6.91649e-19 6.9823e-21 5.27383e-16 9.69352e-27 0 0 5e-05 1.46608e-10 
298 1 0.384024 0.0176603 8.98669e-05 8.99442e-21 3.59527e-20 -4.20546e-19 2.58494e-26 -5.16988e-26 0 5e-05 1.46608e-10 
299 1 0.383643 0.018743 0.000124216 -6.97534e-19 2.32964e-21 5.2739e-16 0 0 0 5e-05 1.46608e-10 
300 1 0.384681 0.0189793 5.2662e-05 -3.50212e-19 -1.7246e-21 2.67381e-16 0 -3.02216e-26 0 5e-05 1.46608e-10 
