ITEM: TIMESTEP
37600000
ITEM: NUMBER OF ATOMS
275
ITEM: BOX BOUNDS ff ff ff
-0.02 0.43
-0.02 0.06
-0.02 0.07
ITEM: ATOMS id type x y z vx vy vz fx fy fz radius mass 
1 1 0.232625 0.0187785 0.00684998 0.00584533 -0.000129637 0.000150266 -8.22112e-12 5.82323e-11 -5.20486e-11 5e-05 1.46608e-10 
2 1 0.232279 0.0176343 0.00724613 0.00598897 -0.000195735 0.00017541 3.85072e-11 1.19746e-10 -2.83486e-11 5e-05 1.46608e-10 
4 1 0.232428 0.0175091 0.0072928 0.00595067 -0.000243019 0.000191348 8.30403e-11 9.03034e-11 -3.17082e-11 5e-05 1.46608e-10 
5 1 0.231827 0.0158186 0.0084186 0.00592789 0.000238434 0.00040967 1.55444e-10 -1.75712e-11 5.27222e-11 5e-05 1.46608e-10 
6 1 0.238119 0.0169002 0.0074277 0.00564881 9.24336e-05 1.1062e-05 5.95184e-12 3.25867e-11 -1.70887e-11 5e-05 1.46608e-10 
7 1 0.232578 0.0181549 0.00706841 0.00609102 -0.000237534 0.000192792 -3.57438e-11 -5.25507e-11 -1.24496e-12 5e-05 1.46608e-10 
8 1 0.232267 0.0172026 0.00739771 0.00589335 -0.000189035 0.000167925 -1.40591e-10 -2.50686e-11 8.50231e-12 5e-05 1.46608e-10 
9 1 0.238319 0.0177809 0.00702068 0.00625776 -0.000117377 -2.29183e-05 3.10881e-11 1.01878e-11 1.97887e-11 5e-05 1.46608e-10 
10 1 0.231933 0.0161124 0.00791182 0.00565881 -0.000230086 -9.56368e-06 3.20141e-11 7.22243e-11 -8.36675e-11 5e-05 1.46608e-10 
11 1 0.232468 0.018348 0.00708523 0.0061239 -0.000201041 0.000183609 -7.47131e-11 9.19458e-11 -2.14867e-11 5e-05 1.46608e-10 
12 1 0.226465 0.0172611 0.00738277 0.00588043 -9.63818e-05 0.000472996 6.02882e-10 -2.00896e-10 1.67209e-10 5e-05 1.46608e-10 
13 1 0.231802 0.0157731 0.00850417 0.00593473 0.000244499 0.000399755 1.58515e-11 -2.36852e-11 4.57593e-11 5e-05 1.46608e-10 
14 1 0.226419 0.0178131 0.00718498 0.00613279 -5.49007e-05 0.000469632 1.33798e-10 3.57786e-12 -3.84882e-11 5e-05 1.46608e-10 
16 1 0.226691 0.0181765 0.00692076 0.0059194 -7.91986e-06 -0.000214913 5.44094e-10 3.09559e-10 -1.20452e-10 5e-05 1.46608e-10 
17 1 0.231917 0.0160467 0.00798554 0.00532519 0.000232051 0.000340253 1.61135e-10 3.40196e-11 -9.76373e-11 5e-05 1.46608e-10 
19 1 0.231781 0.0157273 0.00859055 0.00592659 0.000249683 0.000388148 -4.63513e-11 -4.85854e-11 8.71108e-11 5e-05 1.46608e-10 
21 1 0.232621 0.0183394 0.00700429 0.00611283 -0.000257833 0.000198828 5.05826e-11 -8.85182e-11 3.17359e-11 5e-05 1.46608e-10 
22 1 0.232225 0.0170179 0.00746189 0.00561031 -0.000103718 0.00013481 -1.42396e-11 -2.07195e-11 -4.53311e-11 5e-05 1.46608e-10 
23 1 0.226647 0.0179978 0.00700526 0.00626719 -2.41549e-05 0.000460595 -4.58684e-10 2.24586e-10 -1.87566e-10 5e-05 1.46608e-10 
24 1 0.238237 0.0174101 0.00713433 0.00567934 3.73767e-05 4.13793e-05 3.31025e-11 -8.30064e-11 4.97974e-11 5e-05 1.46608e-10 
25 1 0.231973 0.0162871 0.0078231 0.00552567 -0.000282132 -0.000208472 -1.04686e-10 1.1474e-10 -3.80029e-11 5e-05 1.46608e-10 
26 1 0.238277 0.0175888 0.007057 0.005986 -5.80371e-05 -1.83681e-05 6.5588e-11 -9.27797e-12 1.46367e-10 5e-05 1.46608e-10 
27 1 0.226246 0.0171162 0.00744382 0.00589884 -4.42096e-05 0.000447742 9.87953e-11 -9.12185e-11 1.24919e-10 5e-05 1.46608e-10 
28 1 0.232353 0.0175718 0.00726941 0.00597168 -0.000216575 0.000182044 2.68518e-11 2.53688e-11 -1.21846e-11 5e-05 1.46608e-10 
29 1 0.231759 0.0156816 0.00867672 0.00591036 0.000254137 0.000375766 -4.97236e-11 -9.35864e-11 1.53162e-10 5e-05 1.46608e-10 
30 1 0.232053 0.0166367 0.00764581 0.00540359 -0.000262367 -0.00021071 -7.68667e-11 5.11731e-11 -1.92943e-11 5e-05 1.46608e-10 
31 1 0.232652 0.018092 0.00709184 0.00608665 -0.000241439 0.000193117 6.18887e-11 1.78526e-11 -1.07826e-12 5e-05 1.46608e-10 
32 1 0.231993 0.0163746 0.00777875 0.00539657 -0.000252313 -0.000215066 1.70867e-10 5.84979e-11 -3.07993e-11 5e-05 1.46608e-10 
33 1 0.238138 0.0169852 0.0073788 0.00565388 8.67872e-05 1.44532e-05 9.622e-12 2.14195e-11 -1.61114e-11 5e-05 1.46608e-10 
34 1 0.2319 0.0160142 0.00807846 0.00568765 0.000362726 0.000458527 2.91999e-10 -6.70634e-11 -9.86614e-11 5e-05 1.46608e-10 
35 1 0.232535 0.0179703 0.00713253 0.00605205 -0.000226756 0.000187738 3.98868e-11 -5.10142e-11 1.99992e-11 5e-05 1.46608e-10 
36 1 0.238384 0.0180686 0.00696627 0.00626454 -0.000138769 -1.50074e-05 -6.98876e-12 -2.24381e-11 4.81059e-13 5e-05 1.46608e-10 
37 1 0.232406 0.0174164 0.007325 0.00593092 -0.000248989 0.000192982 -6.17177e-12 4.46344e-11 -1.84708e-11 5e-05 1.46608e-10 
38 1 0.232492 0.0177858 0.00719664 0.0060129 -0.000230717 0.000188485 -2.83769e-11 1.08379e-11 7.44323e-12 5e-05 1.46608e-10 
39 1 0.238256 0.0174951 0.0070854 0.00567436 3.14416e-05 4.68988e-05 9.68262e-11 -1.66259e-11 1.54988e-10 5e-05 1.46608e-10 
41 1 0.231865 0.0159118 0.00824586 0.00585521 0.000211741 0.000395513 3.07976e-11 -1.09493e-11 -4.08849e-11 5e-05 1.46608e-10 
42 1 0.232523 0.0175381 0.00728429 0.00595585 -0.000263009 0.000198374 1.20893e-10 1.70493e-11 -3.18112e-12 5e-05 1.46608e-10 
44 1 0.232588 0.0178151 0.00718803 0.0060199 -0.000238147 0.000190863 -8.1044e-11 -6.8268e-11 2.59197e-11 5e-05 1.46608e-10 
45 1 0.238158 0.0170702 0.0073299 0.00565694 7.89519e-05 1.89938e-05 -1.64023e-11 -9.00826e-12 9.53913e-12 5e-05 1.46608e-10 
47 1 0.23188 0.0159561 0.00815753 0.0057869 0.000264581 0.000412188 1.4117e-11 -4.52732e-11 -1.03777e-10 5e-05 1.46608e-10 
48 1 0.232492 0.0185572 0.00692542 0.00565466 -0.000110796 0.000146363 -6.8574e-12 1.97435e-10 -9.44273e-11 5e-05 1.46608e-10 
49 1 0.23834 0.0178768 0.00700254 0.00626395 -0.000122293 -1.74858e-05 -1.23366e-10 1.10344e-10 -7.95788e-11 5e-05 1.46608e-10 
50 1 0.232012 0.0164621 0.00773441 0.00527722 -0.000227619 -0.000219741 -2.12836e-11 8.11916e-11 -4.46339e-11 5e-05 1.46608e-10 
51 1 0.232674 0.0181843 0.00705979 0.00613098 -0.000219682 0.000186297 3.86554e-11 -8.74667e-11 3.02452e-11 5e-05 1.46608e-10 
52 1 0.226538 0.0175209 0.00725021 0.00606916 -0.00014217 0.000509213 -2.32565e-10 2.43679e-11 -3.37888e-11 5e-05 1.46608e-10 
53 1 0.238197 0.0172401 0.0072321 0.0056651 5.85371e-05 3.06139e-05 9.21521e-12 -5.87277e-11 4.0174e-11 5e-05 1.46608e-10 
54 1 0.23283 0.0184979 0.00695227 0.00615463 0.000253586 2.05883e-05 2.03387e-10 4.96131e-11 -3.39815e-11 5e-05 1.46608e-10 
55 1 0.226443 0.0174912 0.00725913 0.00604934 -9.49667e-05 0.000484376 -1.64623e-10 -3.09426e-10 1.4086e-10 5e-05 1.46608e-10 
56 1 0.23281 0.0184028 0.00698538 0.00608015 0.000248647 2.17652e-05 -4.53445e-12 2.48533e-11 1.05602e-11 5e-05 1.46608e-10 
57 1 0.238177 0.0171552 0.007281 0.00566206 6.92418e-05 2.46441e-05 -2.04846e-11 -4.93277e-11 2.22754e-11 5e-05 1.46608e-10 
59 1 0.378022 0.019866 0.005332 -5.01982e-15 -7.41197e-15 7.69802e-14 -1.62851e-24 3.87741e-25 -2.06795e-25 5e-05 1.46608e-10 
60 1 0.232609 0.0179074 0.00715597 0.00603906 -0.000238151 0.000191153 1.17709e-10 -2.27552e-11 1.85849e-11 5e-05 1.46608e-10 
61 1 0.231845 0.0158645 0.00833157 0.00589233 0.000230953 0.000408961 1.18328e-10 -4.04547e-12 2.20056e-11 5e-05 1.46608e-10 
62 1 0.232514 0.0178781 0.00716459 0.00603777 -0.000221136 0.000185226 -9.10464e-12 1.32302e-11 -2.15417e-11 5e-05 1.46608e-10 
63 1 0.23251 0.0186501 0.00689307 0.00571548 -9.66888e-05 0.000136351 -1.00791e-10 6.96681e-11 -9.57277e-12 5e-05 1.46608e-10 
64 1 0.238217 0.0173251 0.0071832 0.00567304 4.99541e-05 3.67552e-05 3.90097e-11 -2.33107e-11 1.67335e-11 5e-05 1.46608e-10 
65 1 0.226373 0.0176417 0.00717435 0.0061175 -6.10295e-05 0.000468005 -5.11346e-11 -9.00422e-11 3.6565e-11 5e-05 1.46608e-10 
66 1 0.226443 0.0180064 0.00709353 0.00619806 -9.37511e-05 0.000482803 -1.01047e-10 -5.36621e-11 -2.81969e-10 5e-05 1.46608e-10 
67 1 0.232642 0.0184329 0.00697181 0.00629325 8.19212e-05 8.33941e-05 6.94214e-11 1.5631e-10 -5.41091e-11 5e-05 1.46608e-10 
68 1 0.232418 0.0178486 0.00717325 0.00602967 -0.000214712 0.000182608 -2.02125e-11 -1.60287e-11 -5.52477e-12 5e-05 1.46608e-10 
69 1 0.232716 0.0183703 0.00699512 0.00640123 0.000201319 4.30158e-05 -1.39069e-10 8.71447e-11 -3.59485e-11 5e-05 1.46608e-10 
70 1 0.238297 0.017685 0.00703882 0.00626146 -0.000114285 -2.40647e-05 -1.25255e-10 -1.60011e-11 2.75217e-10 5e-05 1.46608e-10 
71 1 0.226787 0.018207 0.00691702 0.00587654 0.000160403 -0.000602389 -4.36953e-10 -6.46745e-11 -1.08995e-09 5e-05 1.46608e-10 
72 1 0.23268 0.018622 0.00690598 0.00594131 5.62476e-05 9.03123e-05 1.36352e-10 -2.20465e-10 1.61742e-10 5e-05 1.46608e-10 
73 1 0.231953 0.0161997 0.00786742 0.00566305 -0.000318018 -0.000202404 -2.7248e-11 9.48456e-11 -2.32005e-11 5e-05 1.46608e-10 
74 1 0.232032 0.0165495 0.00769009 0.00526904 -0.000228646 -0.00021864 -3.97592e-10 1.41565e-10 -4.51593e-11 5e-05 1.46608e-10 
76 1 0.226362 0.0172333 0.00739008 0.0059321 -7.43946e-05 0.000466853 -1.14571e-10 1.22603e-10 -4.87607e-11 5e-05 1.46608e-10 
77 1 0.2323 0.0177265 0.00721407 0.00600227 -0.000200129 0.000176722 1.59492e-10 4.51775e-11 -2.12641e-11 5e-05 1.46608e-10 
78 1 0.225745 0.0155643 0.00867908 0.00602157 -0.000605032 -0.000158075 5.38961e-11 4.55464e-10 -3.57335e-10 5e-05 1.46608e-10 
79 1 0.226751 0.0184854 0.00691634 0.00564036 -0.000199661 -0.00020646 -6.85853e-10 -4.84754e-11 3.00017e-11 5e-05 1.46608e-10 
80 1 0.232375 0.0176641 0.00723736 0.00599221 -0.00021437 0.000181843 4.92373e-11 3.59242e-11 -2.20462e-11 5e-05 1.46608e-10 
82 1 0.226521 0.018056 0.00705387 0.00618782 -6.81439e-05 0.000459024 3.24705e-12 1.24234e-10 1.89369e-10 5e-05 1.46608e-10 
83 1 0.226493 0.0173467 0.00733936 0.00592175 -0.000104026 0.000480202 1.65911e-10 -1.73004e-10 9.60212e-11 5e-05 1.46608e-10 
84 1 0.238362 0.0179727 0.00698441 0.00626499 -0.000133499 -1.52469e-05 7.07566e-11 7.42253e-11 7.27639e-12 5e-05 1.46608e-10 
85 1 0.226898 0.0183498 0.00691191 0.00561087 -0.000262905 -0.000204096 -6.65101e-10 4.19451e-11 2.49931e-11 5e-05 1.46608e-10 
86 1 0.232566 0.0177229 0.00722009 0.00599122 -0.000252969 0.000195277 -9.52524e-11 -2.56713e-11 5.62197e-12 5e-05 1.46608e-10 
87 1 0.232332 0.0174796 0.00730146 0.00595283 -0.000215612 0.000181725 1.6046e-11 8.59033e-11 -2.34636e-11 5e-05 1.46608e-10 
88 1 0.232482 0.0181254 0.00707709 0.00608422 -0.000219234 0.000185105 -3.86411e-11 -3.97533e-11 1.80522e-11 5e-05 1.46608e-10 
89 1 0.232508 0.0181113 0.00717281 0.00606977 -0.000223634 0.000186444 8.88847e-11 1.05147e-10 -1.30911e-11 5e-05 1.46608e-10 
90 1 0.232661 0.0185276 0.00693883 0.00601948 0.000192127 3.76688e-05 -1.3632e-10 -4.79375e-11 4.2955e-11 5e-05 1.46608e-10 
91 1 0.226437 0.0171756 0.00742603 0.00588588 -9.62466e-05 0.000474761 4.83377e-10 -2.16511e-10 1.43169e-10 5e-05 1.46608e-10 
92 1 0.232408 0.0181878 0.00705381 0.0061021 -0.000206297 0.000180524 -2.10681e-12 5.21103e-11 -1.78629e-11 5e-05 1.46608e-10 
93 1 0.23211 0.0169002 0.0075143 0.00554849 -0.000235624 -9.29895e-05 3.70595e-11 -1.36678e-10 -2.07712e-10 5e-05 1.46608e-10 
94 1 0.232496 0.0184483 0.00705347 0.00617161 -0.000192665 0.000185934 5.88604e-11 7.77299e-11 3.75735e-12 5e-05 1.46608e-10 
95 1 0.232388 0.0179865 0.00721376 0.00604535 -0.00021275 0.000180363 -5.16919e-11 -6.45563e-11 -2.22721e-12 5e-05 1.46608e-10 
96 1 0.232386 0.0180956 0.00708586 0.00607784 -0.000203747 0.000180417 -1.13632e-10 -7.07825e-11 5.98755e-12 5e-05 1.46608e-10 
97 1 0.225849 0.0159359 0.0083613 0.00586189 -0.000450605 -0.000266931 -2.28408e-10 1.97772e-10 -1.26516e-10 5e-05 1.46608e-10 
98 1 0.23209 0.0168119 0.0075571 0.00550189 -0.000275021 -0.000189803 -7.41372e-12 -6.17707e-11 -9.54296e-11 5e-05 1.46608e-10 
99 1 0.226404 0.0181483 0.00695153 0.0062706 -0.000114638 -9.03511e-05 -4.45216e-11 -7.26629e-11 -6.1105e-10 5e-05 1.46608e-10 
100 1 0.2326 0.0182471 0.00703635 0.00610805 -0.000240809 0.000193511 8.65575e-12 -8.3107e-11 5.13634e-11 5e-05 1.46608e-10 
101 1 0.226426 0.0182437 0.00693097 0.00626869 -0.00015011 -0.000281455 -1.34173e-10 -1.24208e-10 2.73831e-10 5e-05 1.46608e-10 
102 1 0.0643568 0.0187248 0.00531097 4.01273e-15 1.05823e-14 8.29625e-14 2.50093e-22 -1.60783e-23 -7.03104e-24 5e-05 1.46608e-10 
103 1 0.24257 0.0191927 0.00520306 9.7161e-23 -2.15809e-22 1.23839e-22 0 2.58494e-26 0 5e-05 1.46608e-10 
104 1 0.226714 0.0182752 0.00691922 0.00574988 -4.77898e-06 -0.000203707 6.36035e-10 2.41175e-10 5.17516e-11 5e-05 1.46608e-10 
105 1 0.225807 0.0157872 0.00848841 0.00583162 -0.00051537 -0.000210611 -4.61107e-10 4.24967e-10 -2.75748e-10 5e-05 1.46608e-10 
106 1 0.226415 0.0178157 0.00708511 0.0061754 -5.53525e-05 0.000471949 -3.31658e-11 -8.24684e-11 2.59688e-11 5e-05 1.46608e-10 
107 1 0.225765 0.0156386 0.00861552 0.00598867 -0.000593196 -0.000161993 1.01481e-10 3.22653e-10 -2.51738e-10 5e-05 1.46608e-10 
108 1 0.232736 0.0184653 0.00696207 0.00612763 0.000301441 1.04878e-06 -8.07965e-11 -4.25237e-12 -2.471e-11 5e-05 1.46608e-10 
109 1 0.232704 0.0179365 0.00714746 0.00604295 -0.000249921 0.000195243 7.10847e-11 1.00885e-10 -3.27698e-11 5e-05 1.46608e-10 
110 1 0.232257 0.0175421 0.00727818 0.00596338 -0.000192557 0.000174105 -5.04715e-11 6.6063e-11 -2.31114e-11 5e-05 1.46608e-10 
111 1 0.232214 0.0173575 0.00734229 0.00592277 -0.000187251 0.000170202 -1.88837e-11 8.28964e-11 -1.41956e-11 5e-05 1.46608e-10 
112 1 0.225891 0.0160845 0.00823419 0.00557177 -0.000326147 -0.000337438 -4.46484e-10 -2.02681e-11 8.80655e-11 5e-05 1.46608e-10 
113 1 0.226298 0.0176978 0.00713925 0.00613274 -4.46153e-05 0.000459173 9.05377e-11 1.50892e-10 -9.14607e-11 5e-05 1.46608e-10 
114 1 0.226361 0.0179645 0.00701932 0.00622335 -4.89334e-05 0.000448794 -5.55523e-12 -4.38823e-10 -9.40571e-11 5e-05 1.46608e-10 
115 1 0.232544 0.0176304 0.00725223 0.00597631 -0.000248076 0.000193527 5.30211e-11 -2.53236e-11 3.91709e-12 5e-05 1.46608e-10 
116 1 0.232567 0.0184952 0.00694856 0.00612685 -9.80397e-05 0.000142428 -9.68596e-12 -6.02129e-11 3.11646e-11 5e-05 1.46608e-10 
117 1 0.232557 0.0180626 0.00710047 0.00606536 -0.000235388 0.000190539 2.32134e-12 4.15584e-12 8.7697e-13 5e-05 1.46608e-10 
118 1 0.226469 0.0176758 0.00717212 0.00610472 -9.90946e-05 0.000484476 -4.61298e-11 9.31174e-11 1.47817e-10 5e-05 1.46608e-10 
119 1 0.232755 0.0185599 0.00692917 0.00603293 0.000143158 5.59997e-05 -2.2073e-11 -1.80113e-10 9.81268e-11 5e-05 1.46608e-10 
120 1 0.232246 0.0171103 0.00742977 0.00556605 -0.000110523 0.000138443 -1.67617e-11 -3.8914e-12 -3.28554e-12 5e-05 1.46608e-10 
121 1 0.232646 0.018876 0.00681607 0.00579608 -0.000311578 0.000207983 9.35271e-11 2.26363e-10 -4.25467e-11 5e-05 1.46608e-10 
122 1 0.232365 0.0180033 0.00711791 0.00605746 -0.000207587 0.00018004 1.3439e-10 2.34621e-11 3.41531e-12 5e-05 1.46608e-10 
123 1 0.226809 0.0183044 0.0069155 0.00573022 5.81551e-05 -0.000212277 7.05125e-10 1.37422e-11 -2.68804e-11 5e-05 1.46608e-10 
124 1 0.23213 0.0169896 0.00747416 0.00563735 -0.000175779 7.66565e-05 -2.56461e-11 -4.19754e-11 -8.61044e-11 5e-05 1.46608e-10 
125 1 0.232461 0.0180331 0.00710914 0.00606273 -0.000218199 0.000184105 -1.96956e-11 -1.81569e-11 2.59701e-11 5e-05 1.46608e-10 
127 1 0.225828 0.0158616 0.00842485 0.00579827 -0.000473265 -0.000241935 -2.7129e-10 3.4539e-10 -2.4253e-10 5e-05 1.46608e-10 
128 1 0.232071 0.0167245 0.00760141 0.00550634 -0.000284627 -0.000202811 3.47604e-11 9.37479e-12 -1.33598e-11 5e-05 1.46608e-10 
129 1 0.232455 0.0182285 0.00713182 0.00609227 -0.000204228 0.000180386 2.94482e-11 -5.54269e-11 2.54971e-11 5e-05 1.46608e-10 
130 1 0.226455 0.0179899 0.00699565 0.00623095 -4.60448e-05 0.000473795 -2.4724e-10 -1.37054e-10 -1.67087e-11 5e-05 1.46608e-10 
131 1 0.226478 0.0180812 0.00696169 0.00626101 -6.72584e-05 0.000355098 -3.74164e-10 8.81491e-11 -1.95655e-11 5e-05 1.46608e-10 
132 1 0.232449 0.0176013 0.00726075 0.00597292 -0.000241001 0.000191137 6.27026e-11 2.398e-11 -5.47111e-12 5e-05 1.46608e-10 
133 1 0.232586 0.0185896 0.00691571 0.00570219 -0.000120315 0.000143115 -2.67561e-10 2.11791e-11 -3.48956e-11 5e-05 1.46608e-10 
134 1 0.232547 0.0184021 0.00698092 0.00613495 -0.000239776 0.000193379 2.51277e-11 -4.23174e-11 3.25634e-11 5e-05 1.46608e-10 
135 1 0.232695 0.0182765 0.00702773 0.00613825 -0.000227109 0.000188872 6.96995e-11 -7.25917e-11 3.04215e-11 5e-05 1.46608e-10 
136 1 0.226418 0.0174045 0.00730337 0.00602409 -9.94595e-05 0.000484275 9.45951e-11 -1.1909e-10 4.9284e-11 5e-05 1.46608e-10 
137 1 0.232386 0.018088 0.00718557 0.0060682 -0.000212917 0.000179965 -1.60199e-10 -1.02578e-10 -6.63142e-12 5e-05 1.46608e-10 
138 1 0.232451 0.0183723 0.0069897 0.00613966 -0.000207736 0.000182332 -4.71126e-11 1.95656e-11 -1.41202e-11 5e-05 1.46608e-10 
140 1 0.232322 0.0178188 0.00718202 0.0060189 -0.00019744 0.000176782 -1.04987e-10 -5.3569e-11 4.44849e-12 5e-05 1.46608e-10 
141 1 0.226239 0.0167201 0.00767279 0.00562962 -0.000196301 0.000191325 1.54696e-10 1.60266e-10 1.29714e-10 5e-05 1.46608e-10 
142 1 0.226622 0.0179095 0.00705028 0.00616124 -0.000152133 0.000526077 -3.6866e-10 1.80539e-10 -1.38027e-10 5e-05 1.46608e-10 
143 1 0.225786 0.0157129 0.00855197 0.00589509 -0.000562163 -0.000172847 4.3146e-10 8.00278e-11 1.06936e-10 5e-05 1.46608e-10 
144 1 0.226578 0.0178172 0.00709601 0.00616543 -7.70448e-05 0.000488822 1.6044e-10 -2.37023e-10 3.56046e-11 5e-05 1.46608e-10 
146 1 0.225934 0.016233 0.00810712 0.00458239 -7.3304e-05 -0.00043952 -2.97266e-10 -1.79139e-10 2.0105e-10 5e-05 1.46608e-10 
147 1 0.226437 0.0179025 0.0070407 0.00620699 -5.48035e-05 0.000465757 -4.06442e-11 -1.81972e-10 -6.43874e-11 5e-05 1.46608e-10 
148 1 0.226259 0.0167981 0.00761338 0.00566032 -2.40255e-05 0.000420561 1.02747e-10 1.06439e-11 -3.84934e-11 5e-05 1.46608e-10 
149 1 0.232171 0.0171731 0.0074064 0.00588557 -0.00018603 0.000163444 -2.11354e-12 5.98292e-12 -4.16358e-11 5e-05 1.46608e-10 
150 1 0.226765 0.0185845 0.00691513 0.00567199 -0.000190186 -0.00020699 -6.34322e-10 1.34089e-10 1.63207e-11 5e-05 1.46608e-10 
151 1 0.226576 0.018491 0.00692275 0.00560833 -9.80417e-05 -0.000204673 -4.19726e-11 7.35829e-10 -5.05169e-11 5e-05 1.46608e-10 
153 1 0.226279 0.0168855 0.0075691 0.0057569 -3.11295e-05 0.000440753 -2.30411e-10 4.14405e-11 -9.66379e-11 5e-05 1.46608e-10 
154 1 0.225912 0.0161587 0.00817065 0.00511456 -0.000205158 -0.000387637 -5.53207e-10 -7.54595e-11 1.22056e-10 5e-05 1.46608e-10 
155 1 0.225955 0.0163072 0.00804358 0.00454973 -5.80218e-05 -0.000447364 -4.03051e-10 -2.68572e-10 2.67869e-10 5e-05 1.46608e-10 
156 1 0.22622 0.0166451 0.00773611 0.0056065 -0.000546038 -0.000230823 1.31722e-10 6.07155e-11 2.20373e-10 5e-05 1.46608e-10 
157 1 0.0219312 0.0187687 0.00551176 -3.83374e-14 8.16682e-14 2.95887e-13 -8.84566e-23 -2.48413e-22 4.1359e-23 5e-05 1.46608e-10 
158 1 0.22632 0.0170593 0.00747932 0.00588654 -5.73714e-05 0.000448179 3.33097e-10 -5.66859e-12 1.85565e-11 5e-05 1.46608e-10 
159 1 0.232471 0.0176936 0.00722869 0.00599908 -0.000225644 0.000185775 4.75665e-11 2.28507e-13 2.14196e-11 5e-05 1.46608e-10 
160 1 0.226447 0.0183416 0.00692855 0.00584519 -6.5577e-05 -0.000216343 -2.38979e-10 -7.2874e-12 2.21429e-10 5e-05 1.46608e-10 
162 1 0.226439 0.0181255 0.00704261 0.00614574 0.000151553 8.70648e-05 -8.28618e-10 -2.17435e-10 3.18595e-10 5e-05 1.46608e-10 
164 1 0.226012 0.0165313 0.00785255 0.00545289 -0.000299357 -0.000351803 2.30998e-10 -8.41636e-10 6.60108e-10 5e-05 1.46608e-10 
165 1 0.22666 0.0185441 0.00691927 0.00562512 -0.00021325 -0.000203984 -2.13922e-10 6.39336e-10 1.29116e-11 5e-05 1.46608e-10 
166 1 0.232472 0.0184646 0.00695765 0.0061631 -0.000210609 0.000184166 3.29928e-11 1.08193e-10 -3.64075e-11 5e-05 1.46608e-10 
167 1 0.226536 0.0187736 0.0069222 0.00572609 -3.64278e-05 -0.000210775 9.26959e-11 6.32483e-10 1.10191e-11 5e-05 1.46608e-10 
168 1 0.226844 0.018523 0.00691267 0.00573293 -0.000174516 -0.000209372 -6.64048e-10 3.21513e-11 2.19663e-11 5e-05 1.46608e-10 
169 1 0.226683 0.0186415 0.00691774 0.00562441 -0.000208708 -0.000205142 -6.19142e-10 1.18988e-10 2.44867e-11 5e-05 1.46608e-10 
170 1 0.22662 0.0187189 0.00691952 0.00565041 -0.000166548 -0.000206098 -5.26216e-10 3.87825e-12 1.93461e-11 5e-05 1.46608e-10 
171 1 0.232699 0.0187161 0.00687326 0.00584061 -0.0001318 0.000151012 -2.01648e-11 4.33582e-11 -1.85716e-11 5e-05 1.46608e-10 
172 1 0.226277 0.0176108 0.00718387 0.00610807 -4.16782e-05 0.000456868 -2.59611e-11 2.15771e-10 -9.60258e-11 5e-05 1.46608e-10 
173 1 0.232642 0.0186067 0.00699694 0.00584929 0.000115128 6.88644e-05 -1.50076e-10 -1.75996e-11 2.59287e-10 5e-05 1.46608e-10 
174 1 0.22605 0.0166807 0.00772517 0.00546859 -0.000160053 -0.000502723 -1.06174e-09 -8.74125e-10 2.64819e-10 5e-05 1.46608e-10 
176 1 0.226346 0.0175495 0.00722136 0.00608258 -6.05965e-05 0.00046586 -4.31962e-11 1.34842e-10 -7.19086e-11 5e-05 1.46608e-10 
177 1 0.226049 0.0163271 0.00801688 0.00480157 -0.000256346 -0.000311586 2.54481e-10 -4.63533e-10 3.58125e-10 5e-05 1.46608e-10 
178 1 0.226341 0.0178654 0.0071498 0.0061894 -7.23546e-05 0.000452621 1.43885e-10 3.04668e-10 1.11272e-10 5e-05 1.46608e-10 
179 1 0.226467 0.0184394 0.0069271 0.00570751 -5.14256e-05 -0.000209304 -3.80658e-10 1.21735e-10 1.95435e-11 5e-05 1.46608e-10 
182 1 0.232719 0.0188126 0.00683966 0.00581508 -0.000271443 0.000198167 -3.20921e-10 1.1806e-10 -6.96256e-12 5e-05 1.46608e-10 
183 1 0.22634 0.0178718 0.00705001 0.00621256 -3.74607e-05 0.000460849 -1.08565e-10 -1.1314e-10 7.39677e-11 5e-05 1.46608e-10 
184 1 0.232518 0.0185439 0.00702098 0.00603627 2.93659e-05 7.16468e-05 6.82097e-11 7.5886e-11 -1.67266e-10 5e-05 1.46608e-10 
185 1 0.226527 0.0179028 0.00708384 0.00618129 -6.18474e-05 0.000509863 -3.82058e-12 -1.74417e-10 -2.17827e-10 5e-05 1.46608e-10 
186 1 0.226882 0.0182362 0.0069133 0.00581203 0.000416502 -0.000217456 -3.38914e-10 7.48236e-11 -1.34614e-11 5e-05 1.46608e-10 
187 1 0.232605 0.0186838 0.00688294 0.00588612 2.41211e-06 0.000105693 4.46759e-10 1.64019e-10 1.8345e-11 5e-05 1.46608e-10 
188 1 0.232439 0.0179409 0.00714119 0.00604795 -0.000213768 0.00018217 -1.19123e-11 -2.62313e-11 3.4204e-12 5e-05 1.46608e-10 
189 1 0.232566 0.0189363 0.00681167 0.00579022 -0.000394546 -0.00029493 -6.86936e-11 -1.26483e-10 -1.74091e-10 5e-05 1.46608e-10 
190 1 0.220396 0.0181362 0.00710479 0.00601766 -0.000408702 -0.000173367 -7.64225e-13 -1.28926e-11 3.91902e-12 5e-05 1.46608e-10 
191 1 0.232193 0.0172653 0.00737434 0.00590466 -0.000186232 0.00016251 1.06064e-11 5.77369e-11 -3.69494e-11 5e-05 1.46608e-10 
192 1 0.226319 0.0177848 0.00709463 0.00616968 -3.58367e-05 0.000460858 2.62111e-11 -1.13724e-11 3.19076e-12 5e-05 1.46608e-10 
193 1 0.232775 0.0186543 0.0068963 0.00594612 -9.15525e-06 0.000109351 -1.50659e-10 7.96037e-11 -2.08671e-11 5e-05 1.46608e-10 
194 1 0.226533 0.0181487 0.00701819 0.00620731 -0.00016264 6.70957e-05 -5.95421e-10 8.82621e-11 -7.46803e-11 5e-05 1.46608e-10 
195 1 0.226639 0.0183434 0.00692148 0.00556858 -8.11288e-05 -0.000199067 -2.79467e-10 3.56649e-10 -1.33647e-10 5e-05 1.46608e-10 
196 1 0.226596 0.0181496 0.00694069 0.00602463 -0.000176152 -6.58321e-05 1.29254e-10 2.07678e-10 -2.33894e-10 5e-05 1.46608e-10 
197 1 0.220069 0.0167151 0.00759102 0.00558266 0.000470104 0.000723417 1.25157e-10 5.40275e-11 4.65993e-11 5e-05 1.46608e-10 
198 1 0.226516 0.0174334 0.00729503 0.0060209 -0.000120684 0.000496284 5.27141e-12 -2.02725e-10 1.0373e-10 5e-05 1.46608e-10 
199 1 0.226359 0.017959 0.00711913 0.00622395 -0.000117944 0.000432375 1.74031e-10 2.30549e-10 -6.24201e-11 5e-05 1.46608e-10 
200 1 0.22587 0.0160102 0.00829774 0.00585896 -0.000416348 -0.000295201 -1.33934e-10 1.56853e-11 4.16244e-11 5e-05 1.46608e-10 
201 1 0.226662 0.0184406 0.00691994 0.00555936 -9.59007e-05 -0.000202885 -7.29314e-10 3.43847e-10 1.23309e-10 5e-05 1.46608e-10 
202 1 0.226341 0.0171463 0.0074347 0.00588945 -6.35091e-05 0.000454022 1.49389e-10 3.62677e-11 -1.17896e-10 5e-05 1.46608e-10 
203 1 0.232525 0.0183099 0.00701298 0.00612075 -0.000229194 0.000190733 -3.55806e-11 -2.79282e-11 8.09524e-12 5e-05 1.46608e-10 
204 1 0.22667 0.0180845 0.00696095 0.00618016 0.000179232 0.000374296 -5.70696e-10 4.60423e-10 -5.72162e-10 5e-05 1.46608e-10 
205 1 0.226184 0.0168552 0.00757772 0.00573793 -2.26645e-05 0.000417166 4.78876e-10 -2.26636e-11 -2.88272e-10 5e-05 1.46608e-10 
206 1 0.226225 0.0170292 0.00748848 0.0058877 -3.27832e-05 0.000456821 3.21234e-10 -2.92161e-10 -1.4779e-10 5e-05 1.46608e-10 
207 1 0.226106 0.0165513 0.00782584 0.00547012 -0.000383451 -0.000277328 -1.31129e-10 -1.55485e-10 1.67408e-10 5e-05 1.46608e-10 
208 1 0.226536 0.0176092 0.0072033 0.0060809 -0.00012897 0.000504012 -9.65849e-11 -3.87164e-11 6.66169e-11 5e-05 1.46608e-10 
209 1 0.226441 0.0175795 0.00721223 0.00608571 -9.41791e-05 0.000482785 -1.39118e-10 -1.20835e-10 5.36239e-11 5e-05 1.46608e-10 
210 1 0.232289 0.0172948 0.00736566 0.00591166 -0.000203043 0.000176433 -1.76269e-10 -3.75867e-13 -1.02001e-11 5e-05 1.46608e-10 
211 1 0.23231 0.0173873 0.00733352 0.00593469 -0.00020663 0.000178146 -6.88416e-11 1.01283e-10 -3.57804e-11 5e-05 1.46608e-10 
212 1 0.226735 0.0183728 0.00691772 0.00561454 2.87196e-07 -0.000206641 2.29066e-10 7.83253e-10 3.07408e-11 5e-05 1.46608e-10 
213 1 0.232546 0.0188359 0.00682839 0.00584014 -0.000128117 0.000152689 -2.00318e-10 -1.48556e-10 1.7221e-11 5e-05 1.46608e-10 
214 1 0.232396 0.0177564 0.0072053 0.00601098 -0.000213344 0.000182862 5.15511e-11 6.72343e-11 -4.40652e-11 5e-05 1.46608e-10 
215 1 0.220294 0.0176579 0.00719929 0.00609429 -0.000343459 3.36122e-05 7.78183e-11 3.6508e-11 -6.55124e-11 5e-05 1.46608e-10 
216 1 0.226087 0.0164765 0.00788953 0.0052524 -0.000316666 -0.000312128 -5.723e-12 -1.03297e-10 1.35433e-10 5e-05 1.46608e-10 
217 1 0.232793 0.0187494 0.00686321 0.00587361 -0.000207844 0.000177667 -3.14974e-10 4.17831e-10 -1.90352e-10 5e-05 1.46608e-10 
218 1 0.226383 0.0180594 0.00699241 0.00622148 -0.000105999 0.000352349 -1.77431e-10 -1.73256e-10 3.39821e-10 5e-05 1.46608e-10 
219 1 0.23215 0.0170807 0.00743847 0.00577339 -0.00016579 0.000164003 -8.17896e-11 1.17794e-11 9.46964e-12 5e-05 1.46608e-10 
220 1 0.226501 0.0181774 0.00692772 0.00536785 -0.00111684 -0.000188632 4.90651e-10 -1.74058e-11 -6.41241e-11 5e-05 1.46608e-10 
222 1 0.232631 0.0179997 0.00712389 0.00605137 -0.000246287 0.000194511 -1.55932e-11 5.98976e-12 -9.02063e-12 5e-05 1.46608e-10 
224 1 0.226267 0.0172033 0.00739921 0.00592714 -4.62425e-05 0.000448446 -8.3182e-11 -1.47369e-11 2.77346e-11 5e-05 1.46608e-10 
225 1 0.232236 0.0174498 0.00731023 0.00594268 -0.000190497 0.000172769 2.93777e-11 7.57634e-11 -3.58688e-11 5e-05 1.46608e-10 
226 1 0.226535 0.0179916 0.00712917 0.00625356 -2.4007e-05 0.000482802 -7.08641e-11 -1.72311e-10 7.95224e-12 5e-05 1.46608e-10 
227 1 0.220309 0.0177502 0.00716375 0.00604963 -0.000416288 -0.000176515 -4.86839e-11 -3.11632e-11 -3.83751e-11 5e-05 1.46608e-10 
228 1 0.220245 0.0174654 0.00720348 0.0059653 -0.00034072 0.000274661 8.37229e-12 -6.26603e-11 -6.99876e-11 5e-05 1.46608e-10 
229 1 0.226825 0.0184176 0.00691413 0.00560909 -0.000202367 -0.000204075 -4.54202e-10 3.98107e-10 1.10998e-11 5e-05 1.46608e-10 
230 1 0.226171 0.0171725 0.00740864 0.00591698 -4.0131e-05 0.00044439 -1.06834e-10 -2.42493e-10 1.41014e-10 5e-05 1.46608e-10 
232 1 0.226469 0.0182877 0.00700966 0.00589742 5.14535e-05 -0.00016794 -5.89998e-11 -8.25712e-11 -2.3591e-10 5e-05 1.46608e-10 
233 1 0.226516 0.0186757 0.00692364 0.0057011 -4.06758e-05 -0.000212203 -1.15078e-11 3.53774e-10 -2.0059e-11 5e-05 1.46608e-10 
234 1 0.232343 0.017911 0.00714997 0.00604739 -0.000199432 0.000177974 -1.13187e-11 1.02104e-10 -1.85966e-11 5e-05 1.46608e-10 
235 1 0.226129 0.0169985 0.00749788 0.00587156 -1.8546e-05 0.000437541 1.30713e-10 6.35017e-11 -5.87684e-11 5e-05 1.46608e-10 
236 1 0.226234 0.0174335 0.00727478 0.00601371 -8.08414e-05 0.000472122 -2.13299e-11 -2.12845e-11 7.47943e-11 5e-05 1.46608e-10 
237 1 0.226256 0.0175298 0.00725909 0.00601618 -0.000116061 0.000269457 -1.26456e-11 8.50887e-12 -5.58899e-11 5e-05 1.46608e-10 
239 1 0.219975 0.0163832 0.00795294 0.00543607 0.000486832 0.000681662 -2.15515e-11 2.20473e-10 1.58158e-12 5e-05 1.46608e-10 
240 1 0.220031 0.0165823 0.00773576 0.00551375 0.000470031 0.000712388 -8.06281e-11 -1.20848e-10 2.68407e-11 5e-05 1.46608e-10 
241 1 0.219956 0.0163168 0.00802542 0.00545713 0.000470134 0.000685722 6.20914e-11 -2.2143e-10 3.12002e-10 5e-05 1.46608e-10 
242 1 0.226201 0.0165704 0.00779974 0.00551676 -0.000503132 -0.00018215 9.39628e-11 -4.3822e-11 2.65295e-10 5e-05 1.46608e-10 
243 1 0.226574 0.0180562 0.00696906 0.0062487 -7.28715e-05 0.000491888 -1.99908e-10 4.04364e-10 -2.48883e-11 5e-05 1.46608e-10 
244 1 0.219994 0.0164496 0.00788055 0.00543547 0.000465965 0.000691049 1.69582e-10 2.54485e-10 -1.04265e-11 5e-05 1.46608e-10 
246 1 0.220165 0.0170881 0.0072817 0.00560087 -0.000346564 7.76353e-05 5.81894e-11 1.00154e-10 -2.46906e-10 5e-05 1.46608e-10 
247 1 0.22607 0.0167562 0.00766249 0.00545014 -0.000691954 -0.00109756 6.51819e-11 1.56648e-09 -5.02329e-10 5e-05 1.46608e-10 
248 1 0.226334 0.0177644 0.00720453 0.00611214 -3.12521e-05 0.000448229 1.09894e-10 8.85079e-11 -1.32571e-10 5e-05 1.46608e-10 
249 1 0.220107 0.0168513 0.00744956 0.00559894 0.000189687 0.00044185 3.25125e-11 -1.24867e-10 -5.48929e-11 5e-05 1.46608e-10 
250 1 0.226145 0.016701 0.00769894 0.0056436 -0.000324492 -3.5832e-05 -1.33769e-10 4.81168e-10 4.49287e-10 5e-05 1.46608e-10 
251 1 0.232504 0.0182176 0.00704503 0.00610241 -0.000221662 0.000186394 5.36272e-11 1.83788e-12 1.18569e-11 5e-05 1.46608e-10 
252 1 0.220184 0.0171779 0.00724184 0.0055978 -0.000262767 0.00024793 -1.2733e-10 7.62121e-11 -1.80193e-10 5e-05 1.46608e-10 
253 1 0.220374 0.0180397 0.00711953 0.00602676 -0.000410609 -0.000173421 -9.34649e-12 1.63004e-12 2.82032e-12 5e-05 1.46608e-10 
254 1 0.220125 0.0169191 0.00737851 0.0056083 -0.000377722 -8.29556e-05 1.15199e-11 1.49661e-11 1.21721e-10 5e-05 1.46608e-10 
255 1 0.225724 0.01549 0.00874264 0.00605434 -0.000631176 -0.000138954 1.39749e-10 3.90437e-10 -3.64464e-10 5e-05 1.46608e-10 
256 1 0.226764 0.0181157 0.00695119 0.00620383 0.000404394 0.000218561 -7.8339e-10 5.30942e-10 -2.83209e-10 5e-05 1.46608e-10 
257 1 0.2263 0.0169723 0.00752396 0.00586308 -5.06335e-05 0.000452079 1.94406e-10 -1.77764e-11 1.30184e-10 5e-05 1.46608e-10 
258 1 0.22642 0.0176654 0.00725909 0.00610054 -0.000102205 0.000477815 -3.23468e-11 -6.30757e-11 1.75594e-10 5e-05 1.46608e-10 