ITEM: TIMESTEP
49600000
ITEM: NUMBER OF ATOMS
275
ITEM: BOX BOUNDS ff ff ff
-0.02 0.43
-0.02 0.06
-0.02 0.07
ITEM: ATOMS id type x y z vx vy vz fx fy fz radius mass 
1 1 0.302477 0.0182046 0.00692423 0.00572551 -0.000103698 -3.66917e-05 -2.31033e-10 3.79926e-10 4.65732e-10 5e-05 1.46608e-10 
2 1 0.302129 0.0170801 0.00732824 0.00563447 0.000112961 6.98625e-05 -2.18404e-11 -2.40767e-11 9.51446e-12 5e-05 1.46608e-10 
4 1 0.302279 0.0169609 0.00738613 0.00577559 5.62694e-05 8.95841e-05 -3.5689e-10 -1.49579e-10 1.38596e-10 5e-05 1.46608e-10 
5 1 0.301759 0.0156586 0.00848925 0.00573041 -8.44857e-05 -0.000202415 1.21724e-12 6.29494e-11 -6.79124e-11 5e-05 1.46608e-10 
6 1 0.308057 0.0167608 0.00750095 0.00567838 9.90343e-05 -0.000238409 6.02422e-11 -6.81036e-12 1.05219e-11 5e-05 1.46608e-10 
7 1 0.302425 0.0175772 0.00708852 0.00621184 -0.000139979 -5.31362e-05 5.02065e-10 -3.99854e-11 -4.3973e-11 5e-05 1.46608e-10 
8 1 0.302126 0.0166632 0.00751932 0.00569561 3.32401e-05 0.00010834 3.03571e-10 3.01561e-10 -1.66134e-10 5e-05 1.46608e-10 
9 1 0.308257 0.0176323 0.0070848 0.00628193 9.60756e-05 0.000130181 7.66739e-11 4.53159e-11 -1.04191e-11 5e-05 1.46608e-10 
10 1 0.30222 0.016693 0.00750769 0.00570807 9.57309e-06 0.000118437 2.72545e-10 4.6217e-10 -1.98511e-10 5e-05 1.46608e-10 
11 1 0.302369 0.0179548 0.00704731 0.00629843 -1.68064e-06 9.22966e-05 -2.05949e-11 -2.346e-10 1.80946e-10 5e-05 1.46608e-10 
12 1 0.296452 0.0173134 0.0071823 0.00592741 6.22234e-05 -0.000584847 -3.13166e-11 1.30951e-09 -1.10781e-09 5e-05 1.46608e-10 
13 1 0.301739 0.0155918 0.0085609 0.00570625 -7.17518e-05 -0.000214326 -3.5127e-10 5.11852e-11 -1.23394e-11 5e-05 1.46608e-10 
14 1 0.29643 0.0178756 0.00711961 0.0063734 0.000136684 0.000172633 1.62171e-10 1.51943e-10 2.04026e-11 5e-05 1.46608e-10 
16 1 0.296647 0.0181645 0.0069706 0.00581051 0.000437768 7.55461e-05 -2.83934e-10 -1.93907e-10 5.15936e-11 5e-05 1.46608e-10 
17 1 0.302085 0.0164847 0.0076003 0.00570376 2.12811e-05 0.00011048 -1.60309e-10 1.04572e-10 -9.41714e-11 5e-05 1.46608e-10 
19 1 0.301719 0.0155251 0.00863255 0.00567277 -6.63041e-05 -0.000217201 -3.21468e-11 -3.58604e-11 5.49998e-11 5e-05 1.46608e-10 
21 1 0.30247 0.0177567 0.00701283 0.00613263 -0.000113835 5.86852e-05 -5.57433e-11 -7.50081e-11 -1.59719e-10 5e-05 1.46608e-10 
22 1 0.30224 0.0167823 0.00746716 0.0057377 2.25126e-05 0.000114498 -6.5774e-12 2.79957e-10 -9.56312e-11 5e-05 1.46608e-10 
23 1 0.296607 0.0179739 0.007017 0.00581838 0.000363265 9.59088e-05 -3.33104e-11 7.52703e-11 3.69546e-11 5e-05 1.46608e-10 
24 1 0.308173 0.0172591 0.00720125 0.00569062 0.000213187 7.70566e-05 -2.6581e-11 1.27918e-11 -1.13841e-11 5e-05 1.46608e-10 
25 1 0.301859 0.015992 0.00813138 0.00558749 -9.8905e-05 -0.000177887 -2.83409e-10 -1.87463e-10 1.84586e-10 5e-05 1.46608e-10 
26 1 0.308214 0.0174459 0.00714293 0.0062523 0.000103879 0.000126615 -3.67922e-11 -1.83739e-11 1.29278e-12 5e-05 1.46608e-10 
27 1 0.296149 0.0168444 0.0076536 0.00580732 -1.39526e-05 -0.00051203 5.66803e-10 -1.66252e-10 1.36181e-10 5e-05 1.46608e-10 
28 1 0.302204 0.0170207 0.00735707 0.00562938 0.00010682 7.25184e-05 -8.65905e-11 7.5158e-12 -5.12763e-12 5e-05 1.46608e-10 
29 1 0.301698 0.0154583 0.0087042 0.00566873 -6.26591e-05 -0.000220948 1.42723e-10 -3.77558e-11 2.70673e-11 5e-05 1.46608e-10 
30 1 0.301936 0.0162596 0.00784432 0.00551529 -0.000138887 -0.00013768 1.6975e-10 -3.83858e-10 3.64914e-10 5e-05 1.46608e-10 
31 1 0.3025 0.0175177 0.00711768 0.00623429 -0.000140803 -6.20588e-05 9.28471e-11 2.95274e-10 3.32709e-11 5e-05 1.46608e-10 
32 1 0.301878 0.0160589 0.00805965 0.00553275 -0.00010173 -0.000172555 2.86573e-10 -2.75102e-10 2.67596e-10 5e-05 1.46608e-10 
33 1 0.308076 0.0168388 0.00744155 0.00568784 9.99279e-05 -0.000239622 -3.71611e-11 -3.25383e-11 1.32204e-11 5e-05 1.46608e-10 
34 1 0.301848 0.015924 0.00820389 0.00570536 -0.00010713 -0.000175969 -1.53239e-10 -8.00569e-11 8.5861e-11 5e-05 1.46608e-10 
35 1 0.302383 0.0174045 0.00718017 0.00620673 -0.000106906 -9.0826e-05 3.63651e-10 -4.53185e-10 -8.04212e-11 5e-05 1.46608e-10 
36 1 0.308322 0.0179119 0.00699761 0.00631746 9.04578e-05 0.000132417 6.70503e-12 -9.42974e-12 8.42007e-13 5e-05 1.46608e-10 
37 1 0.30226 0.0168716 0.00742664 0.00577946 2.9925e-05 0.000111289 -2.56152e-10 7.5045e-11 -9.51305e-11 5e-05 1.46608e-10 
38 1 0.302341 0.0172282 0.00726488 0.00604671 2.91097e-05 0.00011945 2.86655e-10 -5.6205e-10 1.04774e-10 5e-05 1.46608e-10 
39 1 0.308193 0.0173525 0.00717208 0.00596424 0.000161608 0.00010102 1.61777e-11 -1.00476e-11 -1.97722e-12 5e-05 1.46608e-10 
41 1 0.3018 0.015792 0.00834596 0.00576872 -0.0001173 -0.000168762 -1.27434e-10 -5.84806e-11 7.07013e-11 5e-05 1.46608e-10 
42 1 0.302375 0.0169903 0.00737468 0.0057435 -4.1469e-05 0.000150032 2.28188e-10 -4.00755e-10 2.25421e-10 5e-05 1.46608e-10 
44 1 0.302437 0.0172576 0.0072534 0.00619744 -3.24145e-05 -9.11789e-05 -1.76642e-10 9.78681e-12 -2.50187e-10 5e-05 1.46608e-10 
45 1 0.308096 0.0169169 0.00738215 0.00571209 9.99355e-05 -0.000239617 -5.36023e-11 2.18449e-11 -3.0983e-11 5e-05 1.46608e-10 
47 1 0.30182 0.0158588 0.00827431 0.00578137 -0.00012202 -0.000164209 1.11018e-10 -4.31717e-11 5.5166e-11 5e-05 1.46608e-10 
48 1 0.30234 0.0179779 0.00695455 0.00628138 -0.000148383 0.000111758 1.81769e-10 -3.63297e-10 -4.63083e-11 5e-05 1.46608e-10 
49 1 0.308279 0.0177255 0.00705574 0.00629216 9.20013e-05 0.000131376 -2.49819e-11 -1.38872e-11 6.65374e-12 5e-05 1.46608e-10 
50 1 0.3019 0.0161253 0.00798821 0.00550876 -0.000112758 -0.000160008 1.30977e-10 -2.86668e-10 3.09661e-10 5e-05 1.46608e-10 
51 1 0.302522 0.0176042 0.00707252 0.00610123 -3.94205e-05 -9.84941e-05 1.15617e-09 -1.04654e-09 2.27572e-10 5e-05 1.46608e-10 
52 1 0.29653 0.0175927 0.00710982 0.00630689 0.000179718 0.00015719 -7.84803e-11 -1.01275e-10 -1.03974e-11 5e-05 1.46608e-10 
53 1 0.308134 0.017073 0.00726336 0.00574147 9.06383e-05 -0.000234955 -6.95048e-11 2.5907e-11 1.14386e-11 5e-05 1.46608e-10 
54 1 0.302702 0.0180085 0.00695389 0.00577758 3.16886e-05 8.07727e-05 -2.34234e-10 8.97456e-10 -1.71969e-10 5e-05 1.46608e-10 
55 1 0.296342 0.0172221 0.00728227 0.00607493 -7.18319e-05 -0.000252202 -3.382e-11 5.16692e-12 1.21472e-10 5e-05 1.46608e-10 
56 1 0.302681 0.0179104 0.00697321 0.00617868 0.000462982 1.37455e-06 -2.4363e-10 2.17697e-10 -5.77252e-11 5e-05 1.46608e-10 
57 1 0.308115 0.0169949 0.00732276 0.00572172 9.718e-05 -0.00023764 -1.84271e-12 4.10837e-11 -4.28376e-11 5e-05 1.46608e-10 
59 1 0.378022 0.019866 0.005332 -5.01968e-15 -7.41205e-15 7.69802e-14 -5.73857e-24 2.92098e-24 0 5e-05 1.46608e-10 
60 1 0.302458 0.0173443 0.00720814 0.00616347 -0.000109852 -7.71305e-05 3.46211e-10 -1.68811e-10 5.93703e-11 5e-05 1.46608e-10 
61 1 0.30178 0.0157253 0.00841764 0.00574044 -0.000102367 -0.000183356 1.81528e-10 -6.3275e-11 4.33297e-11 5e-05 1.46608e-10 
62 1 0.302362 0.0173172 0.00722428 0.00614735 -5.98386e-05 -1.41153e-05 4.38848e-10 -3.8717e-10 3.70494e-11 5e-05 1.46608e-10 
63 1 0.302361 0.0180746 0.00693851 0.00536029 -0.000420833 -0.000846635 3.51453e-09 -2.42524e-09 1.40104e-09 5e-05 1.46608e-10 
64 1 0.308154 0.0171654 0.00723052 0.00571174 0.000207104 7.93113e-05 1.64697e-11 1.52194e-11 3.89736e-12 5e-05 1.46608e-10 
65 1 0.296262 0.017268 0.00724235 0.00619624 7.77071e-06 -0.000563821 4.91487e-11 2.47552e-10 7.53291e-11 5e-05 1.46608e-10 
66 1 0.296358 0.0180267 0.00708942 0.00633547 0.00029969 9.73727e-06 -1.92584e-10 4.60257e-10 -1.46566e-10 5e-05 1.46608e-10 
67 1 0.302491 0.0178496 0.00698249 0.0062939 -0.000133329 0.000117315 1.56966e-09 -5.03055e-10 2.28044e-10 5e-05 1.46608e-10 
68 1 0.302266 0.0172881 0.00723582 0.00617947 -1.12912e-05 0.000142656 1.48047e-10 3.23623e-11 -4.87596e-11 5e-05 1.46608e-10 
69 1 0.302565 0.0177838 0.00699679 0.00627939 -0.000163429 0.000119476 -3.31765e-11 -1.20935e-09 2.4744e-10 5e-05 1.46608e-10 
70 1 0.308236 0.0175391 0.00711386 0.00627488 0.000101805 0.000128388 -8.98497e-11 6.33186e-11 -2.04322e-11 5e-05 1.46608e-10 
71 1 0.296686 0.0183556 0.00692407 0.00581189 0.000277021 0.000117084 -5.19728e-11 -2.26015e-11 7.18635e-12 5e-05 1.46608e-10 
72 1 0.302532 0.0180417 0.00694468 0.00573241 -3.55003e-05 9.53108e-05 -1.12263e-09 -1.11302e-09 3.23177e-10 5e-05 1.46608e-10 
73 1 0.302354 0.0169011 0.00741515 0.00575173 3.31594e-06 0.000118023 -1.92362e-10 -5.98133e-10 2.01636e-10 5e-05 1.46608e-10 
74 1 0.301916 0.0161927 0.00791607 0.00550072 -0.000127135 -0.000145518 -9.57649e-11 -3.3473e-10 3.54479e-10 5e-05 1.46608e-10 
76 1 0.296285 0.017009 0.00748549 0.0058452 -0.000150507 -0.000384764 -1.69064e-11 -1.98476e-11 -2.73948e-11 5e-05 1.46608e-10 
77 1 0.302148 0.0171695 0.00728767 0.0056144 6.1295e-05 9.2947e-05 2.27786e-10 -1.11861e-10 6.22845e-11 5e-05 1.46608e-10 
78 1 0.295718 0.0156867 0.0087469 0.00591394 0.000146937 -0.000255234 9.7274e-11 2.54169e-10 -2.22295e-10 5e-05 1.46608e-10 
79 1 0.296611 0.018419 0.00690581 0.00584904 0.000321843 0.000106918 -3.55257e-12 -6.23852e-12 2.46685e-12 5e-05 1.46608e-10 
80 1 0.302223 0.01711 0.00731653 0.00565677 4.81473e-05 9.97335e-05 -6.35294e-11 1.10409e-10 -5.1452e-11 5e-05 1.46608e-10 
82 1 0.29645 0.0179711 0.00709644 0.00619289 0.000139565 0.000211142 1.10419e-10 4.35983e-11 2.11164e-11 5e-05 1.46608e-10 
83 1 0.296473 0.0174071 0.00715443 0.00620094 0.000156433 0.000153799 -3.66715e-11 4.91382e-10 -5.32772e-10 5e-05 1.46608e-10 
84 1 0.308301 0.0178187 0.00702667 0.00630657 9.18245e-05 0.000131979 1.97455e-11 -2.57467e-11 1.28605e-11 5e-05 1.46608e-10 
85 1 0.296477 0.0186397 0.00687621 0.00589744 0.000385718 -0.000125301 3.25707e-11 3.44204e-11 1.20352e-10 5e-05 1.46608e-10 
86 1 0.302416 0.0171685 0.00729386 0.0059031 -0.000108534 0.000172445 3.44203e-10 -2.30813e-10 1.8848e-10 5e-05 1.46608e-10 
87 1 0.302184 0.0169314 0.0073976 0.00565765 0.000119711 6.72054e-05 -4.26283e-12 -2.09918e-11 9.57935e-12 5e-05 1.46608e-10 
88 1 0.302329 0.0175502 0.0071045 0.00623032 -0.000118976 -5.67681e-05 2.93057e-10 -4.92283e-11 -7.99586e-12 5e-05 1.46608e-10 
89 1 0.302471 0.0179199 0.00705115 0.00639113 -0.000221138 -3.51949e-05 1.3784e-10 1.00737e-09 5.15189e-10 5e-05 1.46608e-10 
90 1 0.302512 0.0179455 0.00696363 0.00595756 -4.67257e-05 8.75395e-05 -7.63428e-10 -1.88121e-09 1.69802e-10 5e-05 1.46608e-10 
91 1 0.296437 0.0172422 0.00725099 0.00642535 4.76976e-05 -0.000631393 -4.59331e-10 -1.35206e-09 1.18285e-09 5e-05 1.46608e-10 
92 1 0.302254 0.0176096 0.00707535 0.00627931 -0.00012352 -5.63107e-05 -3.93652e-10 -6.89323e-10 -1.27084e-10 5e-05 1.46608e-10 
93 1 0.301992 0.0164685 0.00763718 0.00562879 -6.647e-05 -3.95923e-05 3.86986e-11 -3.21566e-11 -9.70938e-11 5e-05 1.46608e-10 
94 1 0.302417 0.0180757 0.00702189 0.00529949 3.82943e-05 3.3424e-05 -7.37387e-10 -5.94655e-10 -1.10765e-10 5e-05 1.46608e-10 
95 1 0.302295 0.017685 0.0071276 0.00630721 -0.00024224 7.09774e-05 2.30522e-11 -5.04851e-10 -1.52827e-10 5e-05 1.46608e-10 
96 1 0.302233 0.017523 0.00712058 0.00622275 -0.000192449 -3.84049e-05 -2.04517e-10 -4.65688e-10 1.67954e-10 5e-05 1.46608e-10 
97 1 0.295804 0.0159788 0.00848746 0.00618099 7.53718e-05 -0.00019626 4.46141e-10 -4.95885e-11 1.58517e-11 5e-05 1.46608e-10 
98 1 0.301973 0.0163939 0.00770087 0.00560448 -0.000123897 -0.000100582 -1.21045e-10 -1.25843e-10 1.3057e-10 5e-05 1.46608e-10 
99 1 0.296294 0.0177812 0.0070551 0.00633611 0.000311223 0.000124586 -2.53548e-11 1.06167e-10 -2.99662e-11 5e-05 1.46608e-10 
100 1 0.302447 0.0176665 0.00704955 0.00611257 -9.69578e-05 -9.31572e-06 4.56229e-10 -3.99622e-10 3.96541e-10 5e-05 1.46608e-10 
101 1 0.296315 0.0178761 0.00703208 0.00633059 0.000268262 0.000136674 4.6877e-11 -7.17711e-11 1.54414e-11 5e-05 1.46608e-10 
102 1 0.0643568 0.0187248 0.00531097 4.29075e-15 1.04875e-14 8.29601e-14 1.62757e-21 -7.2094e-22 1.40621e-23 5e-05 1.46608e-10 
103 1 0.24257 0.0191927 0.00520306 -1.56294e-22 -6.56601e-22 -5.81428e-22 3.23117e-27 0 0 5e-05 1.46608e-10 
104 1 0.296667 0.0182601 0.00694732 0.00577973 0.000293985 0.000111473 -9.03486e-11 1.73959e-10 -5.50897e-11 5e-05 1.46608e-10 
105 1 0.295948 0.0161423 0.00833632 0.0064179 -0.000314871 -0.000363197 -5.68805e-11 1.68275e-10 -1.04797e-10 5e-05 1.46608e-10 
106 1 0.296304 0.0174487 0.00716957 0.00623842 0.000313455 0.000137172 1.55483e-10 -4.99544e-11 -1.30976e-10 5e-05 1.46608e-10 
107 1 0.295739 0.0157599 0.00868195 0.00587042 0.000150229 -0.00025911 -1.41415e-10 2.17104e-10 -1.09579e-10 5e-05 1.46608e-10 
108 1 0.302586 0.0178798 0.00697789 0.00628367 3.80169e-05 8.35731e-05 8.37923e-10 -3.05138e-10 9.3662e-12 5e-05 1.46608e-10 
109 1 0.30266 0.0178139 0.00699219 0.00642336 7.56497e-05 8.04341e-05 -3.30874e-10 2.05456e-10 -4.47698e-11 5e-05 1.46608e-10 
110 1 0.302109 0.0169908 0.00736876 0.00564797 0.000110129 7.13771e-05 8.06413e-12 2.2566e-11 -1.0572e-11 5e-05 1.46608e-10 
111 1 0.30207 0.0168119 0.00744991 0.00569836 0.00012563 6.59498e-05 1.22973e-11 4.04186e-10 -1.82288e-10 5e-05 1.46608e-10 
112 1 0.295873 0.0161312 0.00846392 0.00634087 0.000114559 -0.000250234 1.49433e-10 1.86526e-10 2.34386e-10 5e-05 1.46608e-10 
113 1 0.296187 0.0173239 0.00720874 0.00629528 0.000415091 -2.84358e-05 -3.68729e-10 -1.26399e-10 2.5638e-10 5e-05 1.46608e-10 
114 1 0.29625 0.0175902 0.00710148 0.00636705 0.000466675 7.66673e-05 -1.03687e-10 -4.16579e-10 1.27292e-10 5e-05 1.46608e-10 
115 1 0.302395 0.0170795 0.00733425 0.00574279 -7.11991e-05 0.000158177 -3.82181e-10 -9.4639e-11 2.35849e-10 5e-05 1.46608e-10 
116 1 0.302415 0.0179133 0.00696861 0.00628683 -0.000104644 0.00010356 1.73575e-09 2.94748e-10 1.42902e-11 5e-05 1.46608e-10 
117 1 0.302404 0.0174907 0.00713406 0.00623173 -0.000124255 -6.93365e-05 8.32637e-11 -2.05822e-10 2.38385e-10 5e-05 1.46608e-10 
118 1 0.296372 0.0173761 0.00715892 0.00621341 0.000254555 0.000136812 4.9295e-10 1.63627e-11 1.34172e-10 5e-05 1.46608e-10 
119 1 0.302607 0.0179761 0.00695894 0.00578526 0.000270343 3.09925e-05 1.782e-09 5.90142e-11 -4.77695e-11 5e-05 1.46608e-10 
120 1 0.302201 0.0166037 0.0075482 0.00565422 -2.22977e-05 0.000133187 5.10695e-10 2.3394e-10 -1.0388e-10 5e-05 1.46608e-10 
121 1 0.302497 0.0183023 0.00691777 0.00570404 -8.03709e-05 -0.000151077 4.30109e-10 8.71025e-10 5.27253e-11 5e-05 1.46608e-10 
122 1 0.302212 0.0174361 0.00716589 0.00619511 -9.79024e-05 -9.20679e-05 8.90198e-11 -3.44412e-10 4.1535e-10 5e-05 1.46608e-10 
123 1 0.29663 0.0185144 0.00688256 0.00587923 0.00032825 0.000106406 -1.18156e-10 4.98234e-11 -2.44176e-12 5e-05 1.46608e-10 
124 1 0.302106 0.0165739 0.00755986 0.0056572 1.53025e-05 0.00012118 -2.51258e-10 8.67157e-11 -2.88282e-11 5e-05 1.46608e-10 
125 1 0.302308 0.0174636 0.00714996 0.0062125 -9.95746e-05 -7.05904e-05 -1.42225e-10 -2.00272e-10 1.41677e-10 5e-05 1.46608e-10 
127 1 0.295781 0.015906 0.00855213 0.00585432 0.000138328 -0.000247279 -3.75643e-10 1.65332e-10 -1.00185e-10 5e-05 1.46608e-10 
128 1 0.301956 0.0163263 0.00777274 0.00555554 -0.000146519 -0.000128303 -1.00132e-10 -2.31903e-10 2.71131e-10 5e-05 1.46608e-10 
129 1 0.302341 0.0178512 0.00706575 0.00639189 -0.000148067 0.000104617 -3.40907e-10 -7.37341e-11 -1.61803e-10 5e-05 1.46608e-10 
130 1 0.296351 0.0176389 0.0071293 0.00634712 0.000288499 5.04495e-05 -1.29558e-10 6.01678e-11 5.19088e-12 5e-05 1.46608e-10 
131 1 0.29637 0.0177193 0.00707304 0.00636216 0.000342844 0.000119789 -6.94613e-11 7.13376e-11 3.91344e-11 5e-05 1.46608e-10 
132 1 0.302299 0.0170501 0.00734567 0.00579808 7.41294e-05 9.01125e-05 6.43178e-12 -2.6053e-10 5.24697e-10 5e-05 1.46608e-10 
133 1 0.302436 0.0180092 0.00694974 0.00553396 -2.764e-05 0.000100539 -5.79275e-10 -9.03909e-10 1.97342e-10 5e-05 1.46608e-10 
134 1 0.302393 0.0178174 0.00698748 0.00639176 -0.000100738 0.000100784 -3.26276e-10 -3.77896e-11 -4.57511e-11 5e-05 1.46608e-10 
135 1 0.302544 0.0176909 0.00702727 0.00615917 -0.000178157 -4.07389e-05 -3.28935e-10 -2.10281e-10 6.60716e-10 5e-05 1.46608e-10 
136 1 0.296323 0.01715 0.00734899 0.006041 -0.00018193 -0.000369136 -1.48007e-10 5.43726e-11 -1.2653e-11 5e-05 1.46608e-10 
137 1 0.302439 0.0178283 0.00707558 0.00636834 -4.70296e-05 0.000111037 8.16166e-10 2.79608e-10 -3.53826e-10 5e-05 1.46608e-10 
138 1 0.302297 0.0177863 0.00699222 0.00634766 -5.30766e-05 0.000100205 -3.11732e-10 1.65675e-10 2.76755e-10 5e-05 1.46608e-10 
140 1 0.302169 0.0172585 0.0072473 0.00614603 -2.3647e-05 0.000143963 1.12563e-10 -1.7769e-10 9.50682e-11 5e-05 1.46608e-10 
141 1 0.296173 0.0165861 0.00789597 0.0053562 -6.56693e-05 -0.000420594 3.8321e-10 -3.82298e-10 3.45463e-10 5e-05 1.46608e-10 
142 1 0.296565 0.0177839 0.00706314 0.00637247 0.000213123 0.000151539 1.34246e-11 -1.49388e-10 5.27048e-11 5e-05 1.46608e-10 
143 1 0.29576 0.015833 0.008617 0.00572955 0.000166183 -0.000269359 -4.46956e-10 2.10094e-10 -2.0063e-10 5e-05 1.46608e-10 
144 1 0.296417 0.0175654 0.00711302 0.006311 0.00022347 0.000145759 -2.71191e-10 1.55238e-10 -5.43139e-11 5e-05 1.46608e-10 
146 1 0.295829 0.0160512 0.00842306 0.00635913 4.4553e-05 -0.00016328 4.12184e-10 1.09973e-10 2.43272e-11 5e-05 1.46608e-10 
147 1 0.296325 0.0175441 0.00714804 0.00626238 0.000287846 1.90717e-05 -1.5683e-10 -3.11236e-11 -2.14259e-10 5e-05 1.46608e-10 
148 1 0.296191 0.0166566 0.00782753 0.00560091 -0.000102999 -0.000408605 2.58635e-10 -2.19898e-10 2.14066e-10 5e-05 1.46608e-10 
149 1 0.302031 0.0166333 0.00753096 0.00568933 5.82036e-05 9.88958e-05 4.74819e-11 3.85508e-10 -1.09226e-10 5e-05 1.46608e-10 
150 1 0.296457 0.0185407 0.00687043 0.00588577 0.000333569 0.000104132 -6.85701e-11 -1.66669e-10 4.12183e-11 5e-05 1.46608e-10 
151 1 0.296457 0.0181009 0.00698043 0.00566293 0.000264688 0.000117243 -1.03855e-10 2.64132e-11 3.66603e-11 5e-05 1.46608e-10 
153 1 0.29621 0.0167272 0.0077591 0.00571503 -0.000114565 -0.00040606 3.91332e-10 -2.80354e-10 2.39953e-10 5e-05 1.46608e-10 
154 1 0.295925 0.0160715 0.00840309 0.00638948 8.07732e-05 -0.000196443 1.46071e-10 -3.37531e-10 4.2003e-10 5e-05 1.46608e-10 
155 1 0.295865 0.016213 0.00840704 0.00620886 -2.54473e-05 -0.000449823 -1.17198e-10 -7.05827e-11 -1.04775e-10 5e-05 1.46608e-10 
156 1 0.296154 0.0165156 0.00796439 0.00510878 6.1121e-06 -0.000465017 3.70468e-11 -3.00773e-10 2.65809e-10 5e-05 1.46608e-10 
157 1 0.0219312 0.0187687 0.00551176 -3.83414e-14 8.16471e-14 2.95892e-13 -9.5423e-22 -3.10451e-22 -4.17726e-23 5e-05 1.46608e-10 
158 1 0.296248 0.016868 0.00762232 0.00579108 -0.000131255 -0.000398667 -4.9567e-10 3.77457e-11 -6.68093e-12 5e-05 1.46608e-10 
159 1 0.30232 0.0171392 0.00730526 0.00592611 7.25628e-05 0.000137829 4.60072e-10 -5.87443e-10 2.35675e-10 5e-05 1.46608e-10 
160 1 0.296337 0.0179711 0.00700902 0.00627178 4.65569e-05 0.000192733 -8.55665e-11 -3.6549e-10 1.61565e-10 5e-05 1.46608e-10 
162 1 0.296407 0.0181423 0.00705701 0.0057069 0.00028617 0.000109291 -1.98777e-11 -2.78808e-11 -6.0689e-12 5e-05 1.46608e-10 
164 1 0.295921 0.0163324 0.00816031 0.00585266 -1.72069e-05 -0.000537405 -3.79658e-10 3.75887e-11 6.14225e-10 5e-05 1.46608e-10 
165 1 0.296497 0.0182914 0.00693406 0.00578083 0.000260666 0.000121325 -4.8728e-11 1.00911e-10 -3.38503e-11 5e-05 1.46608e-10 
166 1 0.302318 0.0178821 0.00697339 0.00633584 -9.95148e-05 0.000118089 -1.72551e-10 -6.31706e-12 -1.41073e-10 5e-05 1.46608e-10 
167 1 0.296419 0.0183544 0.00693106 0.00577479 0.000267074 -0.000145374 8.62021e-12 1.68532e-10 -8.03402e-11 5e-05 1.46608e-10 
168 1 0.296536 0.018482 0.00688764 0.00587523 0.000343993 0.00010211 -4.42107e-11 -1.37451e-11 3.61077e-13 5e-05 1.46608e-10 
169 1 0.296437 0.0184453 0.00689365 0.00584807 0.000348574 9.57379e-05 4.73584e-11 2.27066e-10 -4.69809e-11 5e-05 1.46608e-10 
170 1 0.296516 0.0183873 0.00691324 0.00584835 0.000353154 9.32574e-05 -6.17823e-11 8.25216e-11 -3.79153e-11 5e-05 1.46608e-10 
171 1 0.302552 0.0181378 0.00692574 0.00574612 -4.50558e-05 0.000111361 8.20496e-10 -8.59566e-11 3.9497e-10 5e-05 1.46608e-10 
172 1 0.296167 0.0172507 0.00727413 0.00624858 0.000263595 -0.000229175 -3.17771e-10 6.20784e-11 4.07879e-10 5e-05 1.46608e-10 
173 1 0.302518 0.0181106 0.00701585 0.00471548 -0.000205443 -0.000395703 0 0 -1.43822e-09 5e-05 1.46608e-10 
174 1 0.295961 0.0164721 0.00802298 0.00491925 0.000169714 -0.000604886 1.39878e-10 2.6003e-10 -2.48118e-10 5e-05 1.46608e-10 
176 1 0.296244 0.0171975 0.00731077 0.00619441 -5.0638e-06 -0.000553259 1.47385e-10 1.60535e-10 -1.26269e-10 5e-05 1.46608e-10 
177 1 0.295852 0.0161238 0.0083585 0.00637252 4.38394e-05 -0.000166233 1.84614e-10 2.20174e-11 1.55274e-10 5e-05 1.46608e-10 
178 1 0.296334 0.0178368 0.00712825 0.00630664 0.000396684 0.000108751 4.38799e-10 3.29756e-10 -2.4172e-11 5e-05 1.46608e-10 
179 1 0.296359 0.0180708 0.00699971 0.00627559 9.8959e-05 -6.77366e-05 -5.38317e-11 3.37703e-10 1.67887e-10 5e-05 1.46608e-10 
182 1 0.302572 0.0182359 0.00691889 0.00571964 -0.00020208 -0.000292393 -1.34479e-10 1.3493e-10 -1.32044e-09 5e-05 1.46608e-10 
183 1 0.296228 0.0174953 0.00712459 0.00636715 0.000458009 7.07914e-05 -1.76834e-10 -5.42466e-10 9.78581e-11 5e-05 1.46608e-10 
184 1 0.302439 0.0181725 0.00701098 0.00551973 2.1912e-05 7.40875e-06 -1.34328e-09 7.40007e-12 1.19845e-09 5e-05 1.46608e-10 
185 1 0.296448 0.0176578 0.00709092 0.00635387 0.000208688 0.000151264 -1.67992e-10 1.08244e-10 -4.39971e-11 5e-05 1.46608e-10 
186 1 0.296498 0.0187375 0.00687216 0.00591037 0.000366608 -0.000663989 5.1159e-11 3.4368e-11 7.77244e-11 5e-05 1.46608e-10 
187 1 0.302457 0.0181065 0.00693063 0.00524092 -0.000157263 -0.000573328 0 0 -1.43822e-09 5e-05 1.46608e-10 
188 1 0.302287 0.0173769 0.00719505 0.00618283 -8.01802e-05 -9.01669e-05 1.5875e-10 -4.59084e-10 2.76432e-10 5e-05 1.46608e-10 
189 1 0.302422 0.0183679 0.00691676 0.00565408 -0.000168724 -0.000186545 7.81491e-10 1.51787e-09 -4.03625e-10 5e-05 1.46608e-10 
190 1 0.290394 0.0182326 0.00695503 0.00549506 -0.000921882 -0.000144604 -1.39087e-13 2.90794e-11 -2.67184e-11 5e-05 1.46608e-10 
191 1 0.302051 0.0167226 0.00749044 0.00569061 9.21304e-05 7.90574e-05 2.81173e-11 3.43707e-10 -3.40377e-10 5e-05 1.46608e-10 
192 1 0.296206 0.0174005 0.00714752 0.00634903 0.000459133 8.10812e-05 -1.14201e-10 -4.08166e-10 1.52113e-10 5e-05 1.46608e-10 
193 1 0.302627 0.0180731 0.00693983 0.00558844 -0.000237241 0.000136245 8.8122e-10 1.38542e-09 -2.36264e-11 5e-05 1.46608e-10 
194 1 0.296479 0.0180752 0.00707453 0.0056786 0.000231806 0.000106927 -8.86218e-11 4.22346e-11 7.14858e-11 5e-05 1.46608e-10 
195 1 0.296552 0.0181329 0.00697547 0.00569323 0.000380759 8.88961e-05 -6.48924e-11 8.59183e-11 -8.58896e-12 5e-05 1.46608e-10 
196 1 0.296511 0.0179428 0.00702165 0.0061487 0.000267342 0.000132853 2.08559e-10 -6.97276e-11 6.84358e-11 5e-05 1.46608e-10 
197 1 0.290063 0.0168471 0.00759246 0.00580001 -0.000157054 0.0012437 -1.36867e-10 1.12629e-10 -1.40017e-11 5e-05 1.46608e-10 
198 1 0.296492 0.0175026 0.00713114 0.00626396 0.000198194 0.000150837 -1.50702e-10 1.7418e-10 -2.46011e-11 5e-05 1.46608e-10 
199 1 0.296326 0.0179354 0.00711414 0.00620885 0.000331699 -0.000144025 2.69294e-10 4.58105e-10 5.76935e-11 5e-05 1.46608e-10 
200 1 0.295901 0.0159989 0.00846768 0.00649632 0.000172055 -0.000288534 1.7998e-10 -1.67234e-10 1.82564e-10 5e-05 1.46608e-10 
201 1 0.296572 0.0182281 0.00695229 0.00576372 0.000365708 9.3339e-05 -6.39278e-12 1.26205e-10 -3.29842e-11 5e-05 1.46608e-10 
202 1 0.296266 0.0169385 0.00755389 0.00585527 -0.000148473 -0.000386507 -1.21404e-10 2.56069e-11 1.57064e-11 5e-05 1.46608e-10 
203 1 0.302371 0.0177235 0.00701405 0.00639074 -0.000134821 -2.79149e-05 -3.84952e-10 1.92121e-10 -7.68675e-10 5e-05 1.46608e-10 
204 1 0.296627 0.0180693 0.00699378 0.00577853 0.000457207 7.13778e-05 -3.06329e-11 -1.31212e-10 3.99324e-11 5e-05 1.46608e-10 
205 1 0.296092 0.0166329 0.00785885 0.00548782 4.01568e-05 -0.000530309 2.43892e-10 -1.41265e-10 9.39629e-11 5e-05 1.46608e-10 
206 1 0.296129 0.016774 0.00772198 0.00577399 -1.20259e-05 -0.000505306 1.12517e-10 9.76725e-11 6.26605e-12 5e-05 1.46608e-10 
207 1 0.296019 0.0163508 0.00813257 0.00515369 6.04442e-05 -0.000518277 -3.68556e-10 2.70423e-11 6.61264e-11 5e-05 1.46608e-10 
208 1 0.296544 0.0176889 0.00708623 0.00635417 0.000169083 0.000160759 -3.75842e-10 -1.635e-10 5.00557e-11 5e-05 1.46608e-10 
209 1 0.29636 0.0172953 0.00721651 0.0061255 0.000137402 -1.27365e-05 3.27419e-10 -1.85314e-10 4.66112e-10 5e-05 1.46608e-10 
210 1 0.302145 0.0167526 0.00747875 0.00570628 7.65652e-05 8.87282e-05 -7.51517e-11 3.69063e-10 -1.83761e-10 5e-05 1.46608e-10 
211 1 0.302165 0.0168419 0.00743823 0.00574846 7.94886e-05 8.77435e-05 -4.89361e-11 2.87802e-10 -1.30582e-10 5e-05 1.46608e-10 
212 1 0.296592 0.0183234 0.00692908 0.00582173 0.000342105 9.94224e-05 -7.89486e-11 1.54542e-10 -4.71775e-11 5e-05 1.46608e-10 
213 1 0.302402 0.01827 0.00692301 0.00560921 -0.000307752 -0.000176849 4.89314e-10 7.44623e-10 2.11828e-10 5e-05 1.46608e-10 
214 1 0.302244 0.0171991 0.00727616 0.00613432 -3.61306e-05 0.000148049 3.06551e-10 3.73088e-11 3.06911e-11 5e-05 1.46608e-10 
215 1 0.290293 0.0177644 0.00703159 0.00608675 -0.000748619 0.000467003 1.29917e-10 -9.99585e-11 6.85764e-11 5e-05 1.46608e-10 
216 1 0.295997 0.016281 0.00820067 0.00559552 -4.58918e-05 -0.000453219 -2.62163e-10 9.86833e-11 -1.21499e-10 5e-05 1.46608e-10 
217 1 0.302647 0.0181692 0.0069209 0.00577179 -0.000256241 0.000182774 1.61326e-11 7.46239e-10 -2.98555e-10 5e-05 1.46608e-10 
218 1 0.296272 0.017685 0.00707846 0.0063687 0.000471456 8.27356e-05 -5.15021e-11 -2.99232e-10 4.29819e-11 5e-05 1.46608e-10 
219 1 0.302011 0.0165497 0.0075822 0.00567473 6.45678e-06 5.83338e-05 -6.96474e-11 2.93544e-10 -6.03476e-12 5e-05 1.46608e-10 
220 1 0.296392 0.0178142 0.00705001 0.00633722 0.000278374 0.000143963 1.52905e-10 -3.90323e-11 -1.68468e-11 5e-05 1.46608e-10 
222 1 0.302479 0.017431 0.00716291 0.00622154 -0.000110627 -7.8751e-05 6.53568e-10 -1.97118e-10 9.8138e-11 5e-05 1.46608e-10 
224 1 0.296167 0.0169149 0.0075852 0.00586661 -3.63556e-06 -0.000526379 -2.36808e-10 -1.32446e-10 1.3872e-10 5e-05 1.46608e-10 
225 1 0.30209 0.0169015 0.00740929 0.00565976 0.000111944 7.08128e-05 1.6469e-12 3.24073e-11 -1.47054e-11 5e-05 1.46608e-10 
226 1 0.296585 0.0178791 0.00703999 0.0061612 0.000289355 0.00012242 1.05603e-10 -9.92824e-12 -3.8309e-11 5e-05 1.46608e-10 
227 1 0.290314 0.0178509 0.00698569 0.00614736 -0.000765459 0.000475493 1.81274e-11 -6.61145e-11 3.69559e-11 5e-05 1.46608e-10 
228 1 0.29025 0.0175919 0.00712314 0.00606277 -0.000712887 0.000501753 5.75287e-11 1.47857e-10 5.33046e-10 5e-05 1.46608e-10 
229 1 0.296555 0.0185774 0.00686439 0.0058968 0.000347426 0.000103587 2.00436e-11 1.48687e-11 4.88619e-11 5e-05 1.46608e-10 
230 1 0.296072 0.0168951 0.00761244 0.00586177 8.2508e-06 -0.000549329 4.43325e-10 8.07975e-10 -4.85758e-10 5e-05 1.46608e-10 
232 1 0.296502 0.0181741 0.0070514 0.00570413 0.000308374 0.000145749 -7.79328e-12 1.01307e-10 1.36319e-10 5e-05 1.46608e-10 
233 1 0.296399 0.0182568 0.00693957 0.00575532 0.000287222 0.000116772 -1.10768e-10 -1.98656e-10 3.84016e-11 5e-05 1.46608e-10 
234 1 0.302191 0.0173475 0.00720695 0.00620762 5.11759e-06 0.000130056 -1.33049e-10 -2.25348e-10 -1.20955e-10 5e-05 1.46608e-10 
235 1 0.296035 0.0167541 0.00774927 0.00572221 5.09235e-05 -0.000558696 -8.50571e-10 1.54076e-10 -3.13384e-10 5e-05 1.46608e-10 
236 1 0.296129 0.0171065 0.00740727 0.00606242 -4.07479e-05 -0.000576264 1.011e-10 -1.87449e-10 -3.61401e-10 5e-05 1.46608e-10 
237 1 0.296148 0.0171777 0.00733976 0.00616177 4.9749e-05 -0.000483954 -1.60635e-10 -2.39678e-10 -5.40375e-11 5e-05 1.46608e-10 
239 1 0.289962 0.0164332 0.00785393 0.00534408 -0.000102444 0.00111382 -3.58884e-12 -7.10973e-11 5.00303e-11 5e-05 1.46608e-10 
240 1 0.290022 0.0166816 0.00769682 0.00571028 -0.000151638 0.0012182 4.65043e-11 6.53628e-11 -7.82486e-11 5e-05 1.46608e-10 
241 1 0.289942 0.0163503 0.00790639 0.00534531 -9.48065e-05 0.00110942 -1.41019e-10 -5.73363e-10 3.64749e-10 5e-05 1.46608e-10 
242 1 0.296135 0.0164451 0.00803282 0.00492919 6.41431e-05 -0.000504358 -2.89797e-10 -5.45528e-11 6.35573e-11 5e-05 1.46608e-10 
243 1 0.29649 0.0178477 0.0070448 0.0063817 0.000207249 0.000154828 5.68492e-11 -1.15114e-10 4.22856e-11 5e-05 1.46608e-10 
244 1 0.289981 0.016516 0.00780147 0.00533907 -0.000112777 0.00111932 5.67569e-11 -4.02843e-12 -4.79698e-12 5e-05 1.46608e-10 
246 1 0.290167 0.0172608 0.00733156 0.0059746 -0.000165642 0.00127795 -1.18611e-10 1.94083e-11 -7.80288e-11 5e-05 1.46608e-10 
247 1 0.295979 0.0165427 0.00795451 0.00513057 0.000138288 -0.000603772 -4.50457e-10 3.96686e-10 -2.20359e-10 5e-05 1.46608e-10 
248 1 0.296311 0.017742 0.00715053 0.00637677 0.000413285 0.000115825 9.78964e-11 1.39907e-10 8.84452e-11 5e-05 1.46608e-10 
249 1 0.290105 0.0170126 0.0074881 0.00585077 -0.000159799 0.00124972 -2.15499e-10 -7.71353e-11 -1.20596e-10 5e-05 1.46608e-10 
250 1 0.296055 0.0164919 0.0079957 0.00498327 0.000111131 -0.000555049 -4.71298e-10 -2.3505e-10 2.30781e-10 5e-05 1.46608e-10 
251 1 0.30235 0.0176368 0.00705928 0.00626734 -0.000132404 -4.08455e-05 -8.50591e-11 3.33299e-10 -4.05472e-10 5e-05 1.46608e-10 
252 1 0.290188 0.0173435 0.00727938 0.00602966 -0.000167876 0.00129444 -1.07025e-10 -4.18395e-11 -1.4554e-11 5e-05 1.46608e-10 
253 1 0.290373 0.0181348 0.00695092 0.00548945 -0.000921989 -0.000142416 3.57344e-12 2.63886e-12 -7.87086e-12 5e-05 1.46608e-10 
254 1 0.290126 0.0170953 0.00743592 0.00591896 -0.000145528 0.00126272 -2.42428e-10 5.34158e-11 -1.58247e-10 5e-05 1.46608e-10 
255 1 0.295697 0.0156136 0.00881186 0.00594972 0.000143383 -0.000251807 6.27367e-11 2.098e-10 -1.84313e-10 5e-05 1.46608e-10 
256 1 0.296761 0.0182921 0.00694236 0.00578922 0.000242242 0.000125334 -2.74714e-11 1.61001e-11 -9.61823e-12 5e-05 1.46608e-10 
257 1 0.296229 0.0167975 0.00769073 0.00572066 -0.000113099 -0.000408082 -1.8753e-10 -9.07381e-11 8.7944e-11 5e-05 1.46608e-10 
258 1 0.296416 0.0177594 0.00715227 0.0063549 0.000341149 0.000124293 -9.55518e-11 -8.88227e-12 4.64998e-12 5e-05 1.46608e-10 
259 1 0.290209 0.0174263 0.00722721 0.00607802 -0.000180367 0.00131153 4.40839e-11 -7.47258e-11 5.45453e-11 5e-05 1.46608e-10 