ITEM: TIMESTEP
45800000
ITEM: NUMBER OF ATOMS
275
ITEM: BOX BOUNDS ff ff ff
-0.02 0.43
-0.02 0.06
-0.02 0.07
ITEM: ATOMS id type x y z vx vy vz fx fy fz radius mass 
1 1 0.280312 0.0182029 0.00690083 0.00582809 4.09864e-05 -0.000203871 5.88e-11 -4.13124e-10 1.28452e-10 5e-05 1.46608e-10 
2 1 0.279981 0.0170639 0.00731484 0.00567518 6.67922e-05 -0.000147567 4.28293e-12 -8.20287e-11 -5.52578e-10 5e-05 1.46608e-10 
4 1 0.280131 0.0169418 0.00736779 0.00592394 0.000145335 -4.96176e-05 9.16446e-10 -4.83583e-10 1.30535e-10 5e-05 1.46608e-10 
5 1 0.279591 0.0157049 0.0085268 0.00599377 5.57536e-05 -0.000141129 -9.87044e-11 5.68961e-11 -4.6513e-11 5e-05 1.46608e-10 
6 1 0.285957 0.0170393 0.00756829 0.00600897 -0.000208199 -0.000882695 2.64e-12 -1.00937e-10 7.96641e-11 5e-05 1.46608e-10 
7 1 0.280269 0.0175829 0.00711894 0.00565148 0.000421598 1.69014e-05 -1.36704e-10 -1.64971e-10 6.56728e-11 5e-05 1.46608e-10 
8 1 0.279974 0.016643 0.00749608 0.00582691 8.79278e-05 -2.2814e-05 -8.08454e-11 -1.90205e-10 7.15631e-11 5e-05 1.46608e-10 
9 1 0.286143 0.0178157 0.00701369 0.00566674 0.000294205 -9.24989e-05 1.33327e-11 -8.46022e-11 -5.99337e-11 5e-05 1.46608e-10 
10 1 0.280069 0.0166718 0.00748392 0.00583479 7.90964e-05 -1.85805e-05 -8.97677e-12 -1.84426e-10 9.50833e-11 5e-05 1.46608e-10 
11 1 0.280175 0.0178691 0.00709635 0.0056375 0.000109264 0.000107819 -4.34136e-11 2.62745e-10 -4.62486e-11 5e-05 1.46608e-10 
12 1 0.27429 0.0172687 0.00726679 0.00563271 -0.000108702 0.000266656 -7.61595e-11 1.13977e-10 5.47297e-11 5e-05 1.46608e-10 
13 1 0.27957 0.0156415 0.00860112 0.00596176 5.85472e-05 -0.000144856 -9.03507e-11 1.08602e-11 6.79338e-12 5e-05 1.46608e-10 
14 1 0.274214 0.0176485 0.00727356 0.00540519 -0.000139144 0.00028212 -1.10805e-10 -1.33146e-11 1.02551e-10 5e-05 1.46608e-10 
16 1 0.274467 0.0181368 0.00710721 0.00585741 -0.000281588 0.000307802 1.53154e-10 -1.19844e-10 7.94855e-11 5e-05 1.46608e-10 
17 1 0.27994 0.0164876 0.00760892 0.00588955 1.5206e-05 -8.86131e-05 -1.97034e-10 -2.48067e-10 2.34973e-10 5e-05 1.46608e-10 
19 1 0.279549 0.015578 0.00867544 0.00593085 6.44676e-05 -0.000151897 -4.64244e-11 -7.68217e-11 9.58837e-11 5e-05 1.46608e-10 
21 1 0.280308 0.017767 0.00705054 0.0057016 0.000161432 0.000114364 -2.97375e-10 -1.48123e-10 7.29967e-11 5e-05 1.46608e-10 
22 1 0.28009 0.0167617 0.00744524 0.00585501 7.38473e-05 -1.63721e-05 7.64187e-11 -2.26424e-10 8.59603e-11 5e-05 1.46608e-10 
23 1 0.274427 0.017944 0.00714263 0.00559549 -0.000258624 0.000292157 5.09576e-10 -2.58531e-10 4.13876e-11 5e-05 1.46608e-10 
24 1 0.286069 0.0174663 0.00716218 0.00572576 -0.000170345 -0.000865038 2.61495e-10 -1.00997e-10 5.49051e-12 5e-05 1.46608e-10 
25 1 0.279697 0.0160215 0.00815644 0.00612696 3.13972e-05 -0.000109253 -1.32174e-10 2.29563e-10 -2.52634e-10 5e-05 1.46608e-10 
26 1 0.286108 0.0176312 0.00705727 0.00577254 7.30359e-05 -0.000444018 -5.3801e-13 -9.57283e-11 -4.21591e-11 5e-05 1.46608e-10 
27 1 0.273987 0.0167209 0.00758699 0.00592811 -0.000396036 -1.81951e-05 5.70376e-10 1.28739e-10 -3.47112e-10 5e-05 1.46608e-10 
28 1 0.280056 0.0170028 0.00734128 0.00583821 0.000107763 -3.20706e-05 1.10695e-09 -6.03651e-10 3.03603e-10 5e-05 1.46608e-10 
29 1 0.279528 0.0155146 0.00874976 0.00590555 7.19731e-05 -0.000160035 2.66752e-11 -8.43467e-11 9.1603e-11 5e-05 1.46608e-10 
30 1 0.279782 0.0162743 0.00786063 0.00622859 5.6726e-06 -8.65364e-05 8.751e-11 -4.94136e-11 2.10779e-11 5e-05 1.46608e-10 
31 1 0.280344 0.017522 0.0071443 0.00569954 0.00047073 -2.89644e-07 1.52617e-10 -8.03904e-11 2.04214e-11 5e-05 1.46608e-10 
32 1 0.279718 0.0160847 0.00808192 0.00614041 2.44324e-05 -0.000106516 -6.42362e-11 2.14416e-10 -2.26471e-10 5e-05 1.46608e-10 
33 1 0.285978 0.0171098 0.00750071 0.00601444 -0.000217557 -0.000874219 2.76012e-11 -1.1315e-10 9.84621e-11 5e-05 1.46608e-10 
34 1 0.279688 0.0159565 0.00823189 0.00609659 2.97306e-05 -0.000110792 2.51545e-11 2.54212e-10 -2.72024e-10 5e-05 1.46608e-10 
35 1 0.28023 0.0173985 0.0071874 0.00571432 0.000155534 0.000119312 -5.65737e-11 -1.38011e-10 5.89017e-11 5e-05 1.46608e-10 
36 1 0.2862 0.0181099 0.00702614 0.0056465 0.000306255 -8.86156e-05 4.17153e-11 -1.29481e-11 -1.4423e-11 5e-05 1.46608e-10 
37 1 0.28011 0.0168517 0.00740655 0.00592349 0.000124593 -3.77552e-05 4.33522e-10 -3.84525e-10 1.73321e-10 5e-05 1.46608e-10 
38 1 0.280191 0.0172147 0.00725564 0.00567427 0.000190037 9.93369e-05 1.33128e-10 -1.90011e-10 4.59763e-11 5e-05 1.46608e-10 
39 1 0.286086 0.0175447 0.00710267 0.00573548 -7.20767e-05 -0.000734774 5.30291e-11 -7.75008e-11 -5.90237e-11 5e-05 1.46608e-10 
41 1 0.279634 0.0158318 0.00837816 0.00603778 3.73344e-05 -0.000121868 5.466e-11 3.22128e-11 -6.43527e-11 5e-05 1.46608e-10 
42 1 0.280226 0.0169712 0.00735535 0.00562284 0.000133702 -4.5195e-05 1.42964e-09 1.35208e-10 -5.40105e-11 5e-05 1.46608e-10 
44 1 0.280285 0.0172456 0.00724693 0.00568506 0.000181914 0.000108769 8.34447e-11 2.59827e-10 -9.68747e-11 5e-05 1.46608e-10 
45 1 0.285999 0.0171805 0.00743309 0.00588179 -0.000189482 -0.00087671 2.50129e-10 -1.17673e-10 6.52589e-11 5e-05 1.46608e-10 
47 1 0.279656 0.0158955 0.00830427 0.00608505 2.90881e-05 -0.000112821 -7.99068e-11 1.612e-10 -1.84046e-10 5e-05 1.46608e-10 
48 1 0.280176 0.0179804 0.00696582 0.00570794 0.000198699 0.000106527 8.79864e-11 4.14514e-10 -1.08367e-10 5e-05 1.46608e-10 
49 1 0.286162 0.0179138 0.00701785 0.00565361 0.00030003 -8.90329e-05 2.37225e-12 -5.56342e-11 -8.08248e-12 5e-05 1.46608e-10 
50 1 0.279753 0.0161488 0.00801331 0.00614957 8.62298e-06 -0.00011061 7.60909e-11 8.40237e-11 -9.79383e-11 5e-05 1.46608e-10 
51 1 0.280364 0.0176142 0.00711005 0.00571907 0.000231034 9.02599e-05 -2.23018e-10 -1.04191e-10 1.81071e-11 5e-05 1.46608e-10 
52 1 0.274349 0.0175582 0.00721357 0.00538537 -0.000177767 0.000267106 8.76808e-11 1.52606e-10 -1.84117e-11 5e-05 1.46608e-10 
53 1 0.286035 0.0173231 0.00729767 0.00579419 -0.000182069 -0.000867646 -3.11691e-12 -1.56341e-11 1.96067e-11 5e-05 1.46608e-10 
54 1 0.280536 0.0180132 0.00696458 0.0058975 5.00579e-05 0.0001594 4.85164e-10 -1.97951e-10 -2.01174e-11 5e-05 1.46608e-10 
55 1 0.274175 0.0171403 0.00728657 0.0055414 -0.000149511 0.000264092 -6.84325e-10 -1.05373e-09 1.71578e-10 5e-05 1.46608e-10 
56 1 0.280516 0.0179213 0.00699871 0.00579553 6.72604e-05 0.000158641 -9.0006e-11 -2.74699e-10 1.40511e-10 5e-05 1.46608e-10 
57 1 0.286017 0.0172517 0.00736539 0.00583299 -0.000184421 -0.000872221 2.5144e-11 -2.86659e-11 1.60218e-11 5e-05 1.46608e-10 
59 1 0.378022 0.019866 0.005332 -5.0197e-15 -7.41197e-15 7.69802e-14 3.48967e-24 -1.16322e-24 0 5e-05 1.46608e-10 
60 1 0.280305 0.0173375 0.0072128 0.00570449 0.000147 0.000121707 3.73473e-11 -3.97939e-12 1.91071e-12 5e-05 1.46608e-10 
61 1 0.279613 0.0157683 0.00845251 0.00600851 4.79998e-05 -0.000132547 5.21084e-11 3.37564e-11 -4.68304e-11 5e-05 1.46608e-10 
62 1 0.28021 0.0173066 0.00722152 0.00569665 0.00018298 0.000109744 -1.23756e-10 -7.69477e-12 7.59282e-12 5e-05 1.46608e-10 
63 1 0.280195 0.0180724 0.00693165 0.00574085 0.000218461 0.000132439 2.49971e-10 4.74292e-10 -2.75536e-10 5e-05 1.46608e-10 
64 1 0.286052 0.0173947 0.00722992 0.00574985 -0.000175018 -0.000865373 3.52163e-10 -9.82289e-11 3.818e-11 5e-05 1.46608e-10 
65 1 0.2741 0.0172046 0.00727106 0.00555577 -7.8055e-05 0.000243156 -9.03659e-10 -8.89275e-10 -4.36197e-10 5e-05 1.46608e-10 
66 1 0.274178 0.0179047 0.00722253 0.00547209 -0.000154558 0.000262106 1.34179e-10 5.45013e-11 -2.88755e-10 5e-05 1.46608e-10 
67 1 0.280327 0.017859 0.00701637 0.00571086 0.000153695 0.000118285 -4.67221e-10 -3.68338e-11 2.44737e-11 5e-05 1.46608e-10 
68 1 0.280115 0.0172756 0.00723028 0.0056868 0.000194536 9.7629e-05 -1.31991e-11 -5.09743e-11 7.13006e-11 5e-05 1.46608e-10 
69 1 0.280402 0.0177983 0.00704165 0.00570927 0.000118014 0.000133065 -3.30892e-10 4.35726e-11 -3.60114e-11 5e-05 1.46608e-10 
70 1 0.286124 0.0177176 0.00700955 0.005695 0.000285143 -8.90768e-05 -4.12456e-11 -9.75959e-11 6.5362e-12 5e-05 1.46608e-10 
71 1 0.274508 0.0183293 0.00707192 0.00590103 -0.000253746 0.000304607 -1.34332e-10 1.75782e-11 -1.37513e-11 5e-05 1.46608e-10 
72 1 0.280365 0.0180431 0.00694801 0.00572419 0.000189345 0.000123511 3.90631e-11 2.1476e-10 -8.38273e-11 5e-05 1.46608e-10 
73 1 0.280205 0.0168806 0.00739432 0.00602031 0.000200279 -7.01629e-05 6.74622e-10 -3.45704e-10 1.69152e-10 5e-05 1.46608e-10 
74 1 0.279763 0.0162101 0.00793498 0.00619762 1.21384e-05 -9.58536e-05 1.62144e-10 -3.13724e-11 -2.36244e-11 5e-05 1.46608e-10 
76 1 0.274123 0.0168833 0.00740714 0.00584951 -1.90046e-05 -0.000320938 7.85181e-11 1.65443e-09 -2.28018e-09 5e-05 1.46608e-10 
77 1 0.280001 0.0171541 0.0072766 0.00567207 0.00011502 -6.22484e-05 5.44212e-10 -2.46109e-10 -2.50494e-10 5e-05 1.46608e-10 
78 1 0.273515 0.0155793 0.00893548 0.00552603 -0.000756753 -0.000282959 8.8789e-11 1.70853e-10 -2.2538e-10 5e-05 1.46608e-10 
79 1 0.274434 0.0183936 0.00705628 0.00588285 -0.00028371 0.000309857 -1.15976e-12 1.66114e-11 -6.47503e-12 5e-05 1.46608e-10 
80 1 0.280076 0.0170933 0.00730239 0.00567887 0.000126753 -7.46283e-05 1.44554e-10 -6.25087e-10 4.8059e-11 5e-05 1.46608e-10 
82 1 0.274255 0.0178435 0.00723873 0.00548076 -0.000160378 0.000257751 1.69404e-11 7.91646e-11 1.23155e-11 5e-05 1.46608e-10 
83 1 0.27431 0.0173652 0.00724907 0.00560473 -2.61048e-05 0.000245645 5.85522e-10 1.59106e-10 2.26014e-11 5e-05 1.46608e-10 
84 1 0.286181 0.0180118 0.00702199 0.00564974 0.000303747 -8.9055e-05 -6.34657e-11 -3.3266e-11 1.0746e-11 5e-05 1.46608e-10 
85 1 0.274304 0.0186179 0.00700744 0.00591925 -0.000309224 0.000317356 -6.00685e-11 -1.5741e-10 -2.54522e-12 5e-05 1.46608e-10 
86 1 0.280266 0.0171537 0.00728105 0.00567323 0.000200038 9.54307e-05 2.48865e-10 1.05564e-10 2.93696e-11 5e-05 1.46608e-10 
87 1 0.280036 0.0169128 0.00738002 0.00586989 6.79793e-05 -1.41243e-05 2.68967e-10 -3.68459e-10 1.50958e-10 5e-05 1.46608e-10 
88 1 0.280175 0.0175516 0.00712784 0.00565667 0.000389585 2.40188e-05 -4.76828e-11 -5.27294e-11 4.80968e-11 5e-05 1.46608e-10 
89 1 0.280257 0.0178166 0.00712141 0.0057264 0.00017632 0.000112261 -4.53033e-10 -6.47586e-11 6.13445e-11 5e-05 1.46608e-10 
90 1 0.280346 0.017951 0.00698219 0.00576911 0.000157282 0.000120928 -2.8383e-10 2.62995e-11 -1.72017e-13 5e-05 1.46608e-10 
91 1 0.27427 0.017172 0.00728457 0.00561001 -8.3351e-05 0.000266586 -1.30326e-10 -1.35858e-10 -9.66006e-11 5e-05 1.46608e-10 
92 1 0.280099 0.0176124 0.0071025 0.00566922 0.000197341 0.000104764 -2.50059e-10 -1.47979e-11 -1.16601e-11 5e-05 1.46608e-10 
93 1 0.279845 0.0164716 0.00764403 0.00614367 -8.25238e-06 -9.72528e-05 1.49582e-10 -1.12079e-10 8.74417e-11 5e-05 1.46608e-10 
94 1 0.280195 0.0179614 0.00706219 0.00567187 0.000117031 0.00010853 -5.97858e-11 4.09643e-10 -1.11101e-10 5e-05 1.46608e-10 
95 1 0.280118 0.0175931 0.00719888 0.00570008 0.000212397 0.000108594 -3.72089e-11 2.54444e-10 -1.6113e-10 5e-05 1.46608e-10 
96 1 0.28008 0.0175204 0.00713666 0.00573166 0.000182517 0.000109555 -9.8252e-11 4.44301e-12 1.13834e-11 5e-05 1.46608e-10 
97 1 0.273614 0.0158622 0.00856163 0.0057249 -0.000766608 -0.00031575 -2.52515e-10 -7.8468e-11 3.04458e-11 5e-05 1.46608e-10 
98 1 0.279824 0.0164022 0.00771295 0.00627954 -2.85199e-05 -8.76505e-05 -7.2315e-11 -5.20771e-11 1.03757e-10 5e-05 1.46608e-10 
99 1 0.274123 0.01775 0.00716682 0.00544245 -0.000106133 0.000260646 -2.00584e-12 -9.55685e-11 3.19088e-11 5e-05 1.46608e-10 
100 1 0.280288 0.017675 0.00708472 0.00566064 0.00017605 0.000109635 -2.03492e-10 2.1701e-11 2.10635e-11 5e-05 1.46608e-10 
101 1 0.274143 0.0178464 0.00714909 0.00546756 -0.000102636 0.000256293 -1.07577e-10 -2.04466e-10 2.70701e-11 5e-05 1.46608e-10 
102 1 0.0643568 0.0187248 0.00531097 4.1716e-15 1.0527e-14 8.29613e-14 -1.96775e-21 8.72676e-22 -1.5096e-23 5e-05 1.46608e-10 
103 1 0.24257 0.0191927 0.00520306 -1.01195e-22 -1.27651e-22 8.29106e-22 0 0 0 5e-05 1.46608e-10 
104 1 0.274488 0.018233 0.00708958 0.00588707 -0.000265143 0.00030494 1.69281e-10 -6.7484e-11 2.94057e-11 5e-05 1.46608e-10 
105 1 0.273621 0.0157383 0.00871421 0.00565492 -0.00076024 -0.000306153 -7.41163e-11 7.9561e-12 -7.51305e-11 5e-05 1.46608e-10 
106 1 0.27414 0.0173973 0.00723552 0.00558837 -0.000122912 0.000258078 -3.07379e-10 5.34788e-10 -8.47107e-11 5e-05 1.46608e-10 
107 1 0.273535 0.0156386 0.00885738 0.00558928 -0.000755686 -0.000294726 -6.52321e-12 2.10716e-10 -2.48532e-10 5e-05 1.46608e-10 
108 1 0.280421 0.0178903 0.00700748 0.00576583 0.00012631 0.000131136 -4.62105e-10 2.31509e-10 -1.11729e-10 5e-05 1.46608e-10 
109 1 0.280478 0.0177376 0.00706694 0.00568805 6.96565e-05 0.000150162 -2.83025e-10 1.89916e-10 -7.67448e-11 5e-05 1.46608e-10 
110 1 0.279961 0.0169739 0.0073535 0.00586766 6.19858e-05 -1.47716e-05 3.99147e-10 1.21415e-10 -1.09807e-10 5e-05 1.46608e-10 
111 1 0.27992 0.0167941 0.00743086 0.00584514 8.50281e-05 -2.1353e-05 -8.81416e-12 -1.52677e-10 8.93854e-11 5e-05 1.46608e-10 
112 1 0.273658 0.0159808 0.00840648 0.00577559 -0.000724807 -0.000246309 1.48525e-10 2.51268e-11 9.41263e-11 5e-05 1.46608e-10 
113 1 0.274024 0.0172679 0.00725543 0.00554355 -0.000102202 0.000178901 -4.28873e-10 6.64795e-10 2.74555e-11 5e-05 1.46608e-10 
114 1 0.274084 0.0175571 0.0072023 0.00539885 -0.00014848 0.000267122 1.71953e-09 -9.34235e-10 1.09907e-10 5e-05 1.46608e-10 
115 1 0.280246 0.0170616 0.00731645 0.00580788 0.00029143 -0.000108846 1.37047e-10 4.5011e-10 -2.90399e-10 5e-05 1.46608e-10 
116 1 0.280251 0.0179197 0.00699109 0.00570454 0.000166817 0.000112617 -2.4496e-10 7.32284e-11 -1.37179e-11 5e-05 1.46608e-10 
117 1 0.28025 0.0174907 0.00715319 0.00565245 0.00042658 1.03171e-05 -1.56844e-10 1.24509e-10 -5.97178e-11 5e-05 1.46608e-10 
118 1 0.274215 0.017333 0.00725116 0.00562089 -0.000100355 0.000262983 5.19639e-10 5.24791e-10 -9.73444e-11 5e-05 1.46608e-10 
119 1 0.280441 0.0179823 0.00697331 0.00575614 0.000199404 0.000103804 -3.58174e-10 3.24642e-10 7.10235e-11 5e-05 1.46608e-10 
120 1 0.280049 0.0165819 0.00752261 0.00582415 8.09179e-05 -1.9692e-05 5.00487e-11 -1.42992e-10 6.21332e-11 5e-05 1.46608e-10 
121 1 0.280332 0.0183007 0.006908 0.00579641 0.00010256 -0.000277901 9.51607e-11 -1.02494e-10 -5.90264e-10 5e-05 1.46608e-10 
122 1 0.28006 0.0174285 0.00717077 0.00572403 0.000191696 0.00010616 -6.69026e-11 9.67474e-11 9.51442e-11 5e-05 1.46608e-10 
123 1 0.274454 0.0184898 0.00703864 0.00594542 -0.000301069 0.000315664 -2.55694e-10 -2.72186e-11 -1.24461e-11 5e-05 1.46608e-10 
124 1 0.279954 0.0165531 0.00753476 0.00581644 9.46044e-05 -2.76392e-05 -1.62217e-10 -1.85694e-10 1.33689e-10 5e-05 1.46608e-10 
125 1 0.280155 0.0174595 0.00716204 0.00572765 0.000171361 0.000113722 -5.72947e-11 -6.87035e-11 3.69816e-11 5e-05 1.46608e-10 
127 1 0.273602 0.015806 0.00864332 0.00568116 -0.000753354 -0.000313375 -2.04722e-10 1.30299e-11 8.31942e-11 5e-05 1.46608e-10 
128 1 0.279805 0.016337 0.00778637 0.00625789 -2.4528e-06 -7.84834e-05 -2.04926e-10 -2.0675e-11 4.41371e-11 5e-05 1.46608e-10 
129 1 0.280155 0.0177773 0.00713074 0.00561362 0.000194659 0.000112049 -4.42797e-11 2.19814e-10 -9.1083e-11 5e-05 1.46608e-10 
130 1 0.274179 0.0175902 0.00720005 0.00537069 -0.000136261 0.000258848 1.02368e-10 4.37878e-11 -5.45083e-11 5e-05 1.46608e-10 
131 1 0.274199 0.0176867 0.00718232 0.0054105 -0.000148313 0.000262341 9.68525e-11 1.01316e-10 5.18968e-11 5e-05 1.46608e-10 
132 1 0.280151 0.0170322 0.00732887 0.00578309 0.000226067 -8.06325e-05 8.864e-10 -1.4892e-11 1.56879e-10 5e-05 1.46608e-10 
133 1 0.280271 0.0180119 0.00695687 0.00574587 0.00017124 0.000122546 1.57201e-10 3.396e-10 -2.32359e-10 5e-05 1.46608e-10 
134 1 0.280232 0.0178277 0.00702526 0.00567752 0.000163519 0.000112684 -2.59774e-10 -1.6783e-11 2.51748e-12 5e-05 1.46608e-10 
135 1 0.280383 0.0177063 0.00707583 0.00566986 0.000125805 0.000128249 -1.31888e-10 1.76883e-11 2.74567e-13 5e-05 1.46608e-10 
136 1 0.274155 0.017044 0.00730422 0.00541769 -0.000204754 0.000281759 3.04557e-10 -1.19319e-09 -8.28647e-10 5e-05 1.46608e-10 
137 1 0.280137 0.0176851 0.00716469 0.00557495 0.000217791 0.000125129 -6.65771e-11 4.3693e-10 6.56994e-11 5e-05 1.46608e-10 
138 1 0.280138 0.0177964 0.00703416 0.0056362 0.00019033 0.000104836 6.33817e-11 1.66449e-10 -9.53074e-11 5e-05 1.46608e-10 
140 1 0.280021 0.0172447 0.00723901 0.00567149 0.000191775 0.000106471 -3.34541e-11 -1.35101e-10 1.18764e-10 5e-05 1.46608e-10 
141 1 0.274009 0.0164812 0.00783706 0.00612062 -0.000313337 -0.00010105 -5.35226e-10 -4.46068e-11 3.2414e-11 5e-05 1.46608e-10 
142 1 0.274388 0.0177511 0.0071781 0.0053612 -0.000200668 0.00027095 1.79055e-12 5.82921e-11 -2.04301e-11 5e-05 1.46608e-10 
143 1 0.273558 0.015697 0.0087796 0.00562658 -0.000754959 -0.00030893 -7.29903e-12 1.2744e-10 -2.02184e-10 5e-05 1.46608e-10 
144 1 0.274254 0.0175259 0.0072157 0.00538155 -0.000132517 0.000263784 1.40074e-10 5.22065e-11 -4.26555e-11 5e-05 1.46608e-10 
146 1 0.273752 0.0159892 0.00837334 0.00575756 -0.000756231 -0.000330962 -1.32826e-10 -9.85301e-11 2.61175e-11 5e-05 1.46608e-10 
147 1 0.27416 0.0174937 0.00721779 0.00540401 -0.00013265 0.000252697 3.02306e-10 -6.6913e-13 -5.90127e-11 5e-05 1.46608e-10 
148 1 0.27403 0.0165478 0.00776567 0.00609574 -0.000301768 -0.000109661 -2.7685e-11 -4.12411e-10 4.31096e-10 5e-05 1.46608e-10 
149 1 0.279879 0.0166142 0.00750823 0.00581865 0.00010865 -3.27242e-05 -1.02258e-10 -1.41137e-10 7.72737e-11 5e-05 1.46608e-10 
150 1 0.274283 0.0185216 0.00702508 0.00587596 -0.000303711 0.000312912 -8.0789e-11 -2.11368e-10 4.67375e-11 5e-05 1.46608e-10 
151 1 0.274277 0.0180724 0.00711138 0.00546958 -0.000165811 0.000270442 -4.38861e-11 -1.19824e-11 2.52772e-11 5e-05 1.46608e-10 
153 1 0.274051 0.0166147 0.00769411 0.00600661 -0.000286742 -0.000114581 -2.72347e-10 -7.42582e-10 6.88252e-10 5e-05 1.46608e-10 
154 1 0.273731 0.0159301 0.00845137 0.00580741 -0.000765519 -0.000335258 -9.25311e-11 -7.09611e-11 1.84821e-10 5e-05 1.46608e-10 
155 1 0.273678 0.016042 0.00833014 0.00585442 -0.000617525 -0.000156172 1.67377e-10 -4.2059e-11 -1.4995e-10 5e-05 1.46608e-10 
156 1 0.273986 0.0164148 0.00790831 0.00607605 -0.000306523 -0.000100596 7.45031e-10 -2.46783e-10 1.51026e-10 5e-05 1.46608e-10 
157 1 0.0219312 0.0187687 0.00551176 -3.83598e-14 8.161e-14 2.959e-13 -5.12671e-22 -5.63517e-23 -4.28066e-23 5e-05 1.46608e-10 
158 1 0.274092 0.0167482 0.00755113 0.00609551 -0.000262538 -0.000144934 3.83013e-10 7.22549e-10 -8.85639e-10 5e-05 1.46608e-10 
159 1 0.280171 0.0171227 0.00728997 0.00565813 0.000129395 -3.68151e-05 2.1258e-10 -2.15106e-10 -2.86891e-10 5e-05 1.46608e-10 
160 1 0.274162 0.0179429 0.00713136 0.00547995 -0.000129573 0.000264363 8.34072e-11 1.98054e-10 -8.30875e-11 5e-05 1.46608e-10 
162 1 0.274235 0.018045 0.00719798 0.00543692 -0.000156257 0.000265446 9.44761e-11 -2.73277e-10 5.58198e-11 5e-05 1.46608e-10 
164 1 0.273742 0.0162372 0.00811162 0.00588072 -0.000396456 2.2682e-06 1.17129e-11 -1.0594e-10 3.31743e-11 5e-05 1.46608e-10 
165 1 0.274317 0.0182652 0.00707596 0.00589765 -0.000237089 0.000301501 -1.27661e-10 -1.2486e-10 3.2986e-11 5e-05 1.46608e-10 
166 1 0.280157 0.0178884 0.00699999 0.00566667 0.000189817 0.000105431 -7.87598e-11 1.56068e-10 -5.33237e-11 5e-05 1.46608e-10 
167 1 0.274242 0.0183291 0.00706038 0.00581449 -0.000302079 0.000313192 -5.44237e-11 -1.0165e-10 -1.93104e-11 5e-05 1.46608e-10 
168 1 0.274358 0.0184577 0.00704067 0.00586773 -0.000306803 0.000313043 2.87119e-11 -2.85921e-11 1.68134e-12 5e-05 1.46608e-10 
169 1 0.274262 0.0184254 0.00704273 0.00582856 -0.000368438 0.000324996 1.54991e-10 5.25832e-11 1.46299e-11 5e-05 1.46608e-10 
170 1 0.274338 0.0183615 0.00705831 0.00589788 -0.000294896 0.000312255 2.53549e-10 -1.74935e-10 5.86341e-11 5e-05 1.46608e-10 
171 1 0.280388 0.0181402 0.00691931 0.00582971 8.17177e-06 4.12531e-05 5.14377e-10 -8.24192e-11 -2.68253e-10 5e-05 1.46608e-10 
172 1 0.274004 0.0171737 0.00728224 0.00553918 -6.6384e-05 0.000204092 -2.66569e-10 -1.22475e-09 1.09624e-09 5e-05 1.46608e-10 
173 1 0.280346 0.0181208 0.00700771 0.00567373 0.000396009 0.000110939 3.72574e-10 -6.03759e-11 -9.29904e-10 5e-05 1.46608e-10 
174 1 0.273785 0.0163706 0.00796881 0.00593191 -0.000412582 1.87959e-05 -3.35976e-11 -5.2832e-10 3.6481e-10 5e-05 1.46608e-10 
176 1 0.27408 0.0171083 0.00728857 0.00545035 -8.92781e-05 0.000235759 2.69548e-10 -1.37133e-09 5.18455e-10 5e-05 1.46608e-10 
177 1 0.273773 0.016056 0.0083021 0.00585617 -0.000527823 -9.9651e-05 5.95883e-11 2.93272e-10 4.89316e-11 5e-05 1.46608e-10 
178 1 0.274119 0.0176154 0.00727572 0.00536692 -0.000119207 0.00026212 1.9434e-10 -2.08427e-10 -3.55465e-11 5e-05 1.46608e-10 
179 1 0.274182 0.0180396 0.00711358 0.00545464 -0.000198413 0.000270097 1.0664e-10 7.9766e-11 -2.87729e-11 5e-05 1.46608e-10 
182 1 0.280408 0.0182367 0.00689914 0.00590525 5.07093e-05 -5.08234e-05 5.46553e-11 -6.12032e-11 -1.06967e-09 5e-05 1.46608e-10 
183 1 0.274064 0.0174606 0.00722003 0.00557909 -0.000154814 0.000278277 -4.84117e-10 -1.84473e-10 2.19225e-10 5e-05 1.46608e-10 
184 1 0.28025 0.018092 0.00701302 0.00572338 0.000222744 0.00018029 6.71209e-10 -4.67969e-11 -5.02703e-10 5e-05 1.46608e-10 
185 1 0.274274 0.0176224 0.00719794 0.00537944 -0.000191301 0.000270341 1.40602e-11 4.58349e-11 3.21406e-11 5e-05 1.46608e-10 
186 1 0.274325 0.0187141 0.0069898 0.00596773 -0.000301858 0.000317377 -2.66803e-11 -1.09594e-10 3.32238e-11 5e-05 1.46608e-10 
187 1 0.280293 0.0181073 0.00692308 0.00573919 7.74821e-05 -0.000349887 -2.33438e-11 -1.68579e-11 -7.63948e-10 5e-05 1.46608e-10 
188 1 0.280135 0.0173675 0.00719617 0.00570673 0.000187319 0.000107524 -1.75388e-10 -1.56842e-11 1.22396e-11 5e-05 1.46608e-10 
189 1 0.280253 0.0183618 0.00691675 0.00574243 0.000133639 -0.000238628 3.37538e-10 1.30421e-10 -9.54692e-11 5e-05 1.46608e-10 
190 1 0.268251 0.01836 0.0069269 0.00565116 3.07187e-06 2.1156e-05 -9.58259e-12 -7.20558e-11 8.04974e-12 5e-05 1.46608e-10 
191 1 0.2799 0.0167041 0.00746956 0.00583351 9.86058e-05 -2.7192e-05 1.02745e-11 -1.54529e-10 6.85585e-11 5e-05 1.46608e-10 
192 1 0.274044 0.0173643 0.00723773 0.00557338 -0.000135714 0.000257988 -1.99159e-10 7.1619e-10 1.41894e-10 5e-05 1.46608e-10 
193 1 0.280461 0.0180742 0.00693921 0.00587058 5.428e-05 0.000147005 2.65747e-10 -2.53557e-10 2.11013e-10 5e-05 1.46608e-10 
194 1 0.274311 0.0179808 0.00721371 0.00548852 -0.000163742 0.000273772 1.75462e-10 -2.52959e-10 -1.1493e-10 5e-05 1.46608e-10 
195 1 0.274372 0.0181047 0.00710927 0.00552684 -0.000145834 0.00026596 -2.40676e-10 1.80011e-10 -2.33218e-11 5e-05 1.46608e-10 
196 1 0.274333 0.0179118 0.00714474 0.00553192 -0.000169522 0.000273183 4.52393e-10 2.83336e-11 -2.26865e-11 5e-05 1.46608e-10 
197 1 0.267943 0.0169239 0.00747507 0.00575505 2.63142e-05 0.000105886 6.70019e-11 -6.46408e-11 3.55282e-11 5e-05 1.46608e-10 
198 1 0.274329 0.0174616 0.00723133 0.00539979 -0.000126726 0.000258395 3.37453e-12 6.35581e-11 -1.7647e-12 5e-05 1.46608e-10 
199 1 0.274138 0.0177119 0.00725802 0.00541603 -0.000118804 0.000270422 -1.84742e-10 -4.72074e-11 7.75042e-11 5e-05 1.46608e-10 
200 1 0.273635 0.0159212 0.00848364 0.0057535 -0.000779261 -0.000305949 -2.61704e-11 4.17487e-11 5.22024e-11 5e-05 1.46608e-10 
201 1 0.274392 0.018201 0.00709158 0.00591864 -0.000222351 0.000301151 1.39894e-10 5.13644e-11 -5.02522e-11 5e-05 1.46608e-10 
202 1 0.27411 0.0168154 0.00747934 0.00596853 -0.000158029 -0.000222558 -9.974e-10 1.83624e-09 -2.06792e-09 5e-05 1.46608e-10 
203 1 0.280213 0.0177357 0.00705944 0.00563383 0.000166307 0.00011499 -1.12661e-10 1.07265e-10 -4.22238e-11 5e-05 1.46608e-10 
204 1 0.274447 0.0180405 0.00712489 0.00575561 -0.000276658 0.000302173 2.52465e-10 -2.20803e-10 7.13157e-11 5e-05 1.46608e-10 
205 1 0.273924 0.0165208 0.00780137 0.00604265 -0.000408502 -3.20177e-06 -1.35593e-10 3.15178e-10 -4.73137e-10 5e-05 1.46608e-10 
206 1 0.273966 0.0166544 0.00765853 0.00596813 -0.000379146 1.67901e-05 7.30604e-10 -1.84242e-10 -3.64513e-10 5e-05 1.46608e-10 
207 1 0.273838 0.0162545 0.00808679 0.0058586 -0.000400543 1.62642e-05 1.04479e-10 -3.70875e-10 2.25954e-10 5e-05 1.46608e-10 
208 1 0.274369 0.0176547 0.00719583 0.00537623 -0.00018825 0.0002693 -1.07761e-10 1.95165e-10 -5.35531e-11 5e-05 1.46608e-10 
209 1 0.274195 0.0172366 0.00726888 0.00561328 -0.000109988 0.000262006 -8.49292e-11 -3.77534e-10 7.67725e-11 5e-05 1.46608e-10 
210 1 0.279995 0.0167329 0.00745739 0.00583715 7.68098e-05 -1.8175e-05 4.36013e-11 -1.78464e-10 6.43926e-11 5e-05 1.46608e-10 
211 1 0.280015 0.0168229 0.00741871 0.00584959 6.532e-05 -1.23712e-05 -9.60342e-12 -1.43559e-10 7.98998e-11 5e-05 1.46608e-10 
212 1 0.274413 0.0182972 0.00707394 0.00594804 -0.000239718 0.00030378 4.8664e-10 -1.34038e-10 7.31802e-11 5e-05 1.46608e-10 
213 1 0.280234 0.0182639 0.00690957 0.00577157 0.000138651 -0.000289597 2.06592e-11 -2.66422e-11 1.54798e-10 5e-05 1.46608e-10 
214 1 0.280096 0.017184 0.00726539 0.00567454 0.000183473 3.939e-05 2.60577e-10 -4.50444e-10 1.85689e-10 5e-05 1.46608e-10 
215 1 0.268166 0.0178714 0.00698428 0.0056617 2.08755e-06 2.33461e-05 6.67872e-11 3.37968e-11 1.02046e-11 5e-05 1.46608e-10 
216 1 0.273817 0.0161879 0.00815819 0.00584748 -0.000407068 2.15924e-05 4.22431e-10 -8.30369e-11 8.04859e-11 5e-05 1.46608e-10 
217 1 0.280482 0.01817 0.00690366 0.00590034 -7.21904e-05 0.000252677 -1.41314e-11 1.13649e-10 -2.31385e-10 5e-05 1.46608e-10 
218 1 0.274103 0.0176535 0.00718456 0.00542475 -0.000121355 0.000260555 -2.96829e-11 -3.61116e-10 6.30843e-11 5e-05 1.46608e-10 
219 1 0.279863 0.0165438 0.00757733 0.00591683 7.31506e-05 -5.94175e-05 3.54025e-11 -1.20569e-10 6.70385e-11 5e-05 1.46608e-10 
220 1 0.274218 0.0177831 0.00716458 0.005479 -0.000158534 0.000270637 2.05043e-11 1.71411e-10 -4.24106e-11 5e-05 1.46608e-10 
222 1 0.280325 0.0174297 0.00717857 0.00564121 0.00044146 8.41494e-06 -3.46884e-10 1.87083e-10 -8.7711e-11 5e-05 1.46608e-10 
224 1 0.274007 0.0167879 0.00751561 0.00594566 -0.000441916 -7.70485e-05 -1.59508e-10 -1.16969e-10 -5.32117e-10 5e-05 1.46608e-10 
225 1 0.279941 0.016884 0.00739218 0.00586021 7.16815e-05 -1.31338e-05 -1.09502e-10 -2.91605e-11 -5.75823e-12 5e-05 1.46608e-10 
226 1 0.274408 0.0178476 0.00716036 0.00545946 -0.000231478 0.000280873 2.8641e-10 -1.23517e-10 3.61153e-11 5e-05 1.46608e-10 
227 1 0.268173 0.0179704 0.00697261 0.00565049 3.03335e-06 2.06707e-05 2.97364e-11 3.44993e-11 -4.74165e-12 5e-05 1.46608e-10 
228 1 0.268115 0.0176841 0.00703073 0.00565337 2.70636e-05 0.000102931 2.66788e-11 1.3715e-11 3.21912e-12 5e-05 1.46608e-10 
229 1 0.274379 0.018554 0.00702302 0.00593241 -0.000308067 0.000316429 -4.44775e-11 1.0674e-11 1.77302e-11 5e-05 1.46608e-10 
230 1 0.27391 0.0167756 0.00753496 0.00576134 -9.99708e-05 -0.000278293 -1.81803e-10 5.91189e-10 -5.28674e-10 5e-05 1.46608e-10 
232 1 0.274312 0.0181307 0.0071849 0.00550057 -0.000140841 0.000234099 -2.36543e-10 1.23557e-10 6.4684e-11 5e-05 1.46608e-10 
233 1 0.274221 0.0182327 0.00707808 0.00546222 -0.000126682 0.000259286 -1.1498e-10 -3.38264e-11 7.99638e-11 5e-05 1.46608e-10 
234 1 0.28004 0.0173366 0.0072049 0.00569528 0.000198826 0.000102902 -1.52706e-10 -2.11592e-10 3.47327e-11 5e-05 1.46608e-10 
235 1 0.273871 0.016637 0.00768313 0.00600533 -0.000478801 9.95351e-05 4.56649e-10 2.82832e-10 -3.3032e-10 5e-05 1.46608e-10 
236 1 0.273964 0.0169813 0.00731543 0.00555018 -0.000255064 -0.000155974 -8.8252e-10 1.40472e-09 -3.63972e-11 5e-05 1.46608e-10 
237 1 0.273984 0.0170761 0.00729066 0.00558944 -0.000153366 0.000279003 -8.10266e-11 -1.16888e-10 -2.69398e-10 5e-05 1.46608e-10 
239 1 0.267842 0.0165011 0.00772207 0.00614096 -5.02888e-05 0.000159553 -1.74486e-11 2.02274e-11 -9.6169e-12 5e-05 1.46608e-10 
240 1 0.267903 0.0167547 0.00757389 0.0057041 3.57282e-05 9.95592e-05 1.43562e-11 -6.9373e-11 4.03017e-11 5e-05 1.46608e-10 
241 1 0.267821 0.0164167 0.00777131 0.00615909 -5.74715e-05 0.000164112 2.10157e-11 8.72972e-11 -5.13684e-11 5e-05 1.46608e-10 
242 1 0.273966 0.016348 0.00797986 0.00607299 -0.000286748 -0.000120895 -7.57397e-10 -8.05971e-10 8.88132e-10 5e-05 1.46608e-10 
243 1 0.274313 0.0178153 0.00716248 0.00549067 -0.000180211 0.000271791 8.11846e-11 4.61489e-11 3.14982e-12 5e-05 1.46608e-10 
244 1 0.267863 0.0165856 0.00767271 0.00564963 3.64183e-05 9.78953e-05 4.61432e-11 -1.25361e-11 1.23797e-11 5e-05 1.46608e-10 
246 1 0.268041 0.0173472 0.00722765 0.00566456 2.80681e-05 0.000103128 1.10246e-11 -5.61996e-11 3.37898e-11 5e-05 1.46608e-10 
247 1 0.273806 0.0164372 0.00789735 0.00596958 -0.000432482 4.20379e-05 -2.93009e-11 -5.93702e-10 5.60671e-10 5e-05 1.46608e-10 
248 1 0.274099 0.0175188 0.00729341 0.00548089 -5.14344e-05 0.000268912 2.51702e-10 1.22885e-10 1.85755e-11 5e-05 1.46608e-10 
249 1 0.267983 0.017093 0.00737622 0.00555635 5.74652e-05 8.39614e-05 6.95845e-12 -2.14606e-11 1.29695e-11 5e-05 1.46608e-10 
250 1 0.273881 0.0163876 0.00794411 0.00592922 -0.000408865 2.09285e-05 5.28675e-10 -6.89331e-12 2.14016e-11 5e-05 1.46608e-10 
251 1 0.280194 0.0176437 0.00709362 0.00560298 0.000361403 4.25944e-05 -1.70475e-10 1.60953e-10 4.0754e-11 5e-05 1.46608e-10 
252 1 0.268076 0.0174282 0.00718064 0.00565749 2.83754e-05 0.000102813 -1.65704e-11 -5.67846e-11 3.43149e-11 5e-05 1.46608e-10 
253 1 0.268232 0.0182626 0.00693833 0.00565843 -6.2889e-08 2.15353e-05 7.45726e-12 -2.35469e-11 3.1972e-12 5e-05 1.46608e-10 
254 1 0.268005 0.0171773 0.00732703 0.00558252 4.80712e-05 8.97245e-05 1.11269e-10 -5.44282e-11 3.61795e-11 5e-05 1.46608e-10 
255 1 0.273493 0.0155207 0.00901333 0.00550786 -0.000760933 -0.000271463 2.78927e-11 1.41345e-10 -2.06898e-10 5e-05 1.46608e-10 
256 1 0.274583 0.0182645 0.00708764 0.00580299 -0.000369519 0.000322901 -2.01286e-10 1.48893e-10 -3.78388e-11 5e-05 1.46608e-10 
257 1 0.274072 0.0166813 0.00762267 0.00599695 -0.000289739 -0.000125923 4.36724e-10 -3.1485e-10 8.94172e-11 5e-05 1.46608e-10 
258 1 0.274194 0.0175519 0.00729136 0.00534608 -0.000151443 0.00026403 -5.29192e-12 -1.49543e-10 -3.28295e-13 5e-05 1.46608e-10 
259 1 0.268078 0.0175144 0.00712992 0.00564832 2.80146e-05 0.000103289 5.25668e-11 -4.36399e-11 2.99454e-11 5e-05 1.46608e-10 