ITEM: TIMESTEP
69600000
ITEM: NUMBER OF ATOMS
269
ITEM: BOX BOUNDS ff ff ff
-0.02 0.43
-0.02 0.06
-0.02 0.07
ITEM: ATOMS id type x y z vx vy vz fx fy fz radius mass 
1 1 0.384599 0.0175858 5.25551e-05 -6.80684e-15 1.91065e-15 1.18635e-15 8.09718e-20 -2.27163e-20 1.07947e-22 5e-05 1.46608e-10 
2 1 0.384183 0.0168012 5.20101e-05 2.24032e-18 2.30948e-21 -1.71052e-15 0 1.3619e-25 0 5e-05 1.46608e-10 
4 1 0.384401 0.018342 5.22951e-05 8.26358e-20 2.02904e-22 -6.55654e-17 0 0 0 5e-05 1.46608e-10 
5 1 0.385011 0.0167669 5.30953e-05 2.24036e-18 -2.3408e-21 -1.71052e-15 0 4.25374e-25 0 5e-05 1.46608e-10 
6 1 0.385108 0.0179216 5.32215e-05 1.79755e-18 -7.34509e-22 -1.37249e-15 0 -1.60902e-26 0 5e-05 1.46608e-10 
7 1 0.384328 0.0189229 5.22005e-05 -3.50272e-19 -1.60682e-20 2.6738e-16 0 1.15506e-25 0 5e-05 1.46608e-10 
8 1 0.384815 0.0184943 5.2838e-05 1.79761e-18 -1.65225e-21 -1.37249e-15 -4.03897e-28 2.89988e-26 0 5e-05 1.46608e-10 
9 1 0.383777 0.0196525 5.1478e-05 2.81057e-18 -2.06217e-20 -2.14593e-15 0 7.38755e-26 0 5e-05 1.46608e-10 
10 1 0.384888 0.0164946 5.29341e-05 -9.20553e-19 7.0267e-22 7.02842e-16 0 -4.19758e-26 0 5e-05 1.46608e-10 
11 1 0.383974 0.0191869 5.17367e-05 2.81056e-18 3.0533e-21 -2.14593e-15 0 -1.39177e-26 0 5e-05 1.46608e-10 
12 1 0.384004 0.0179482 5.17757e-05 1.41542e-19 1.36942e-20 -1.01183e-16 -1.61559e-26 0 0 5e-05 1.46608e-10 
13 1 0.384309 0.0184568 5.21751e-05 1.79763e-18 7.12288e-22 -1.37251e-15 0 3.37476e-26 0 5e-05 1.46608e-10 
14 1 0.384724 0.0196711 5.2719e-05 8.71342e-19 -4.68522e-21 -6.65298e-16 0 -1.39952e-26 0 5e-05 1.46608e-10 
16 1 0.383685 0.0191826 5.13578e-05 2.81054e-18 -2.83029e-21 -2.14593e-15 0 -5.45556e-26 0 5e-05 1.46608e-10 
17 1 0.384698 0.0173096 5.26849e-05 2.24031e-18 -1.94166e-21 -1.71051e-15 0 -1.23115e-25 0 5e-05 1.46608e-10 
19 1 0.383912 0.0197978 5.16557e-05 2.81054e-18 6.29196e-21 -2.14593e-15 0 -1.10534e-25 0 5e-05 1.46608e-10 
21 1 0.383597 0.0186925 5.12422e-05 -6.89608e-19 -3.51967e-21 5.27388e-16 0 2.58494e-26 0 5e-05 1.46608e-10 
22 1 0.38463 0.0163628 5.2596e-05 2.24034e-18 -3.1249e-21 -1.71051e-15 0 -6.94126e-26 0 5e-05 1.46608e-10 
23 1 0.383878 0.0175317 5.1611e-05 -8.81159e-22 5.59245e-21 -4.36827e-19 2.58494e-26 -1.03398e-25 0 5e-05 1.46608e-10 
24 1 0.384101 0.0187635 5.19028e-05 -9.85849e-20 2.70579e-21 7.4944e-17 0 0 0 5e-05 1.46608e-10 
26 1 0.38362 0.0183342 5.12731e-05 -2.89661e-21 1.08003e-21 1.92861e-20 0 0 0 5e-05 1.46608e-10 
27 1 0.384785 0.0180411 5.27984e-05 1.79761e-18 7.64006e-22 -1.37251e-15 0 4.63672e-26 0 5e-05 1.46608e-10 
28 1 0.384198 0.0187953 5.20297e-05 -3.50113e-19 -1.69136e-21 2.67382e-16 0 3.35523e-27 0 5e-05 1.46608e-10 
29 1 0.384214 0.0168974 5.20505e-05 -9.20533e-19 -8.76963e-21 7.02842e-16 0 -4.00316e-26 0 5e-05 1.46608e-10 
30 1 0.384097 0.0179868 5.18972e-05 1.33286e-19 -3.63605e-21 -1.01146e-16 0 0 0 5e-05 1.46608e-10 
31 1 0.383893 0.0179765 5.16305e-05 1.86387e-20 -1.41379e-20 -2.82855e-19 0 2.58494e-26 0 5e-05 1.46608e-10 
32 1 0.247451 0.0181454 0.00545794 3.84491e-15 -5.32018e-14 -2.74084e-13 -1.47124e-21 3.46382e-24 -1.98523e-23 5e-05 1.46608e-10 
33 1 0.383882 0.0177775 5.16151e-05 2.60818e-20 -3.28973e-20 -3.62346e-19 1.29247e-26 -1.03398e-25 0 5e-05 1.46608e-10 
35 1 0.384808 0.0177286 5.28287e-05 1.7976e-18 1.90973e-21 -1.37251e-15 0 -3.14648e-26 0 5e-05 1.46608e-10 
36 1 0.383662 0.0180556 5.13278e-05 1.70775e-21 -3.59134e-21 -5.81941e-20 5.16988e-26 5.16988e-26 0 5e-05 1.46608e-10 
37 1 0.383909 0.0178755 5.16511e-05 -6.74706e-19 2.24438e-20 5.07738e-16 -2.42338e-26 8.07794e-27 -4.1359e-25 5e-05 1.46608e-10 
38 1 0.384713 0.0170615 5.27042e-05 2.24035e-18 -1.84233e-20 -1.71052e-15 0 1.95595e-25 0 5e-05 1.46608e-10 
39 1 0.383717 0.0197911 5.13996e-05 2.81055e-18 -1.05837e-21 -2.14593e-15 0 4.28633e-26 0 5e-05 1.46608e-10 
41 1 0.383748 0.018123 5.14409e-05 2.24036e-18 1.40592e-20 -1.71052e-15 0 2.51158e-25 0 5e-05 1.46608e-10 
42 1 0.384212 0.0181264 5.20477e-05 -2.74082e-19 4.22782e-22 2.1602e-16 0 3.23117e-27 0 5e-05 1.46608e-10 
44 1 0.384674 0.017655 5.26539e-05 1.79763e-18 -1.03371e-22 -1.37251e-15 0 1.32823e-27 0 5e-05 1.46608e-10 
45 1 0.384212 0.0172077 5.20482e-05 2.24032e-18 -1.98931e-24 -1.71051e-15 0 -1.70706e-26 0 5e-05 1.46608e-10 
47 1 0.384502 0.0170164 5.24283e-05 2.24035e-18 1.19025e-22 -1.71051e-15 0 9.69635e-27 0 5e-05 1.46608e-10 
48 1 0.383855 0.0191595 5.15803e-05 2.81058e-18 9.7877e-22 -2.14593e-15 0 1.96951e-26 0 5e-05 1.46608e-10 
49 1 0.384166 0.0195438 5.19874e-05 2.81059e-18 -1.59734e-20 -2.14593e-15 0 -1.47551e-26 0 5e-05 1.46608e-10 
50 1 0.393164 0.0169378 0.0082162 0.00272855 0.0270704 -0.0117436 0 0 -1.43822e-09 5e-05 1.46608e-10 
51 1 0.384626 0.0177793 5.25903e-05 1.79764e-18 -4.47836e-22 -1.37251e-15 0 -1.35756e-27 0 5e-05 1.46608e-10 
52 1 0.38448 0.0176805 5.23994e-05 7.11255e-14 4.47648e-14 -3.92005e-14 4.12889e-19 -4.97421e-20 -3.75285e-19 5e-05 1.46608e-10 
53 1 0.384734 0.0175226 5.27322e-05 1.14923e-13 -3.02826e-13 3.50921e-15 -1.79192e-19 6.24059e-19 -2.69216e-20 5e-05 1.46608e-10 
54 1 0.383738 0.0190139 5.14271e-05 -3.50178e-19 8.75767e-22 2.67381e-16 0 5.6304e-27 0 5e-05 1.46608e-10 
55 1 0.384694 0.0180885 5.26795e-05 -2.87298e-19 6.36364e-23 2.16623e-16 0 0 0 5e-05 1.46608e-10 
56 1 0.383635 0.0196308 5.12923e-05 2.81059e-18 -4.26202e-21 -2.14593e-15 4.03897e-28 4.37722e-29 0 5e-05 1.46608e-10 
57 1 0.383634 0.0197324 5.1291e-05 -3.50173e-19 1.55509e-21 2.67381e-16 4.03897e-28 4.96026e-26 0 5e-05 1.46608e-10 
59 1 0.378022 0.019866 0.005332 -5.01963e-15 -7.41207e-15 7.69802e-14 -1.15805e-23 3.61892e-24 -4.1359e-25 5e-05 1.46608e-10 
60 1 0.384057 0.0182172 5.1845e-05 1.79763e-18 5.41369e-21 -1.37251e-15 0 -3.16543e-27 0 5e-05 1.46608e-10 
61 1 0.384827 0.0175585 5.28544e-05 -1.08226e-13 2.77515e-13 -2.89814e-15 2.5393e-19 -5.00365e-19 1.73019e-20 5e-05 1.46608e-10 
62 1 0.384311 0.0186263 5.21774e-05 1.79761e-18 -4.5894e-21 -1.37251e-15 0 -1.00535e-25 0 5e-05 1.46608e-10 
63 1 0.383577 0.018452 5.1216e-05 1.45411e-21 8.36289e-21 -2.88402e-20 0 0 0 5e-05 1.46608e-10 
64 1 0.383269 0.0178073 0.0053438 -1.46629e-15 -3.32056e-15 -2.09205e-14 1.30539e-24 -3.10193e-25 -2.06795e-25 5e-05 1.46608e-10 
65 1 0.384532 0.0167022 5.24676e-05 2.24031e-18 -2.0405e-23 -1.71051e-15 0 -1.26714e-27 0 5e-05 1.46608e-10 
66 1 0.383745 0.0178455 0.000126364 -1.83131e-19 -7.46237e-20 -6.50785e-21 0 0 -2.39107e-25 5e-05 1.46608e-10 
67 1 0.384602 0.0180485 5.25594e-05 -2.82294e-19 -8.20582e-22 2.16622e-16 0 0 0 5e-05 1.46608e-10 
68 1 0.384886 0.0184142 5.2931e-05 3.47481e-19 -6.23655e-23 -2.65996e-16 -3.23117e-27 0 0 5e-05 1.46608e-10 
69 1 0.383711 0.0207759 5.13922e-05 2.00508e-18 9.41202e-22 -1.5309e-15 0 3.15047e-27 0 5e-05 1.46608e-10 
70 1 0.384746 0.0161015 5.27478e-05 2.24035e-18 7.87737e-21 -1.71051e-15 0 -1.42087e-25 0 5e-05 1.46608e-10 
71 1 0.383741 0.0188606 5.14314e-05 -3.50172e-19 2.64413e-20 2.6738e-16 0 1.50802e-25 0 5e-05 1.46608e-10 
72 1 0.384005 0.0195345 5.17769e-05 -3.50222e-19 -4.41226e-22 2.67382e-16 0 -3.87287e-26 0 5e-05 1.46608e-10 
73 1 0.385165 0.0173714 5.3297e-05 1.7976e-18 -1.7858e-22 -1.37251e-15 0 -7.71516e-27 0 5e-05 1.46608e-10 
74 1 0.384312 0.0182285 5.21795e-05 8.69525e-20 -1.17593e-20 -6.55705e-17 1.29247e-26 0 0 5e-05 1.46608e-10 
76 1 0.384529 0.0179806 5.24634e-05 1.79759e-18 -1.69231e-22 -1.37249e-15 0 -1.56136e-27 0 5e-05 1.46608e-10 
77 1 0.384211 0.0182562 5.20468e-05 1.79755e-18 -2.3917e-21 -1.37249e-15 0 3.85756e-26 0 5e-05 1.46608e-10 
78 1 0.384019 0.0174293 5.17959e-05 2.24037e-18 1.02123e-21 -1.71052e-15 0 -2.8649e-26 0 5e-05 1.46608e-10 
79 1 0.383618 0.019402 5.12705e-05 -3.5017e-19 -2.99977e-21 2.67382e-16 0 3.23479e-26 0 5e-05 1.46608e-10 
80 1 0.384203 0.0173209 5.20365e-05 2.24036e-18 -3.61985e-20 -1.71051e-15 0 1.60633e-25 0 5e-05 1.46608e-10 
82 1 0.384071 0.0186677 5.1864e-05 -3.502e-19 -1.29452e-21 2.67382e-16 0 6.00374e-27 0 5e-05 1.46608e-10 
83 1 0.384602 0.0164616 5.25589e-05 2.24037e-18 5.07596e-21 -1.71052e-15 0 1.18983e-25 0 5e-05 1.46608e-10 
84 1 0.384003 0.0188652 5.17748e-05 -9.43966e-20 7.69126e-22 7.49431e-17 0 0 0 5e-05 1.46608e-10 
85 1 0.384491 0.0201706 5.24132e-05 8.71332e-19 6.77085e-21 -6.65297e-16 0 -4.19046e-26 0 5e-05 1.46608e-10 
86 1 0.38452 0.0190801 5.24517e-05 2.81059e-18 1.45126e-20 -2.14593e-15 0 -1.65413e-25 0 5e-05 1.46608e-10 
87 1 0.384401 0.0173066 5.22954e-05 2.24031e-18 7.78649e-21 -1.71051e-15 0 2.07685e-25 0 5e-05 1.46608e-10 
88 1 0.384597 0.0181855 5.25521e-05 1.7976e-18 -5.47892e-22 -1.37249e-15 0 -1.39321e-26 0 5e-05 1.46608e-10 
89 1 0.383831 0.0209331 5.15494e-05 2.00505e-18 4.09666e-21 -1.5309e-15 0 -8.56869e-26 0 5e-05 1.46608e-10 
90 1 0.384476 0.0180662 5.23935e-05 -2.82934e-19 1.82035e-20 2.16042e-16 -5.16988e-26 5.16988e-26 0 5e-05 1.46608e-10 
91 1 0.384562 0.0161408 5.25065e-05 2.24036e-18 1.08219e-19 -1.71051e-15 0 -1.30235e-24 0 5e-05 1.46608e-10 
92 1 0.383623 0.0181478 5.12773e-05 4.95682e-21 9.86399e-21 -6.21868e-20 5.16988e-26 -1.03398e-25 0 5e-05 1.46608e-10 
93 1 0.384831 0.0190845 5.28587e-05 2.81059e-18 -6.73381e-21 -2.14593e-15 0 -8.70502e-26 0 5e-05 1.46608e-10 
94 1 0.384215 0.0186925 5.20517e-05 -3.50216e-19 7.01966e-22 2.67382e-16 0 -4.90635e-26 0 5e-05 1.46608e-10 
95 1 0.383676 0.018497 5.13469e-05 2.81051e-18 -1.60343e-22 -2.14593e-15 0 -1.33658e-26 0 5e-05 1.46608e-10 
96 1 0.385068 0.0173509 5.31688e-05 2.24036e-18 6.46816e-22 -1.71052e-15 0 7.63562e-26 0 5e-05 1.46608e-10 
97 1 0.385082 0.0166964 5.31883e-05 2.24032e-18 -5.55783e-23 -1.71052e-15 0 2.02894e-27 0 5e-05 1.46608e-10 
98 1 0.384494 0.017574 5.24182e-05 -9.20522e-19 -3.62627e-22 7.02843e-16 0 -2.65166e-27 0 5e-05 1.46608e-10 
99 1 0.383876 0.0176099 0.000113825 4.27635e-20 2.33979e-20 -4.1306e-19 -2.58494e-26 2.58494e-26 0 5e-05 1.46608e-10 
100 1 0.383701 0.0182111 5.13792e-05 1.79759e-18 6.86829e-22 -1.37251e-15 0 -5.72573e-27 0 5e-05 1.46608e-10 
101 1 0.3839 0.0196686 5.16397e-05 -3.50175e-19 4.13764e-21 2.67381e-16 0 -2.35456e-26 0 5e-05 1.46608e-10 
102 1 0.0643568 0.0187248 0.00531097 4.13374e-15 1.05554e-14 8.29596e-14 3.2671e-22 -1.37932e-22 5.99706e-24 5e-05 1.46608e-10 
103 1 0.230779 0.0182774 0.00551293 -5.40634e-15 6.56954e-15 4.46857e-14 -8.78285e-22 -8.26922e-22 2.08863e-23 5e-05 1.46608e-10 
104 1 0.38388 0.0192583 5.16135e-05 2.81059e-18 -2.46224e-22 -2.14593e-15 0 -2.08565e-27 0 5e-05 1.46608e-10 
105 1 0.384197 0.0178013 5.20291e-05 2.24033e-18 -1.38456e-22 -1.71052e-15 4.03897e-28 -2.33492e-26 0 5e-05 1.46608e-10 
106 1 0.384064 0.01708 5.85246e-05 6.25635e-18 2.58918e-18 1.49953e-19 0 0 0 5e-05 1.46608e-10 
107 1 0.383991 0.0177466 5.17583e-05 -1.42625e-21 -4.08138e-21 -4.48247e-19 0 2.58494e-26 0 5e-05 1.46608e-10 
108 1 0.383604 0.0189528 5.1252e-05 -6.00251e-22 6.65105e-21 7.08695e-21 0 0 0 5e-05 1.46608e-10 
109 1 0.383824 0.0193429 5.15405e-05 2.81056e-18 -2.69058e-22 -2.14593e-15 0 7.71187e-28 0 5e-05 1.46608e-10 
110 1 0.384848 0.0181615 5.28813e-05 -2.80635e-19 -6.62329e-22 2.16625e-16 0 0 0 5e-05 1.46608e-10 
111 1 0.383759 0.0180222 5.14545e-05 -4.79256e-21 -1.09985e-20 -2.91542e-19 0 5.16988e-26 0 5e-05 1.46608e-10 
112 1 0.384668 0.0204846 5.26453e-05 2.00506e-18 8.77714e-21 -1.5309e-15 0 -1.33739e-25 0 5e-05 1.46608e-10 
113 1 0.384006 0.0178482 5.17777e-05 1.15718e-19 2.425e-20 -1.01157e-16 0 0 0 5e-05 1.46608e-10 
114 1 0.385064 0.0164614 5.31641e-05 2.24033e-18 9.62534e-20 -1.71052e-15 0 1.66198e-25 0 5e-05 1.46608e-10 
115 1 0.38433 0.0192224 5.22022e-05 2.81058e-18 7.34836e-22 -2.14593e-15 -4.03897e-28 1.21864e-25 0 5e-05 1.46608e-10 
116 1 0.384884 0.0180547 5.29282e-05 1.79756e-18 -4.91184e-22 -1.37249e-15 0 1.24197e-27 0 5e-05 1.46608e-10 
117 1 0.383529 0.0177712 0.00534448 4.52816e-18 -1.80377e-14 -5.94669e-14 9.25858e-25 0 0 5e-05 1.46608e-10 
118 1 0.384874 0.0171689 5.29154e-05 2.24034e-18 1.39697e-20 -1.71052e-15 4.03897e-28 6.96334e-26 0 5e-05 1.46608e-10 
119 1 0.383718 0.017918 5.14012e-05 -2.29169e-21 2.2019e-21 5.64987e-19 -2.58494e-26 0 0 5e-05 1.46608e-10 
120 1 0.384613 0.0170491 5.25734e-05 2.24033e-18 7.59703e-21 -1.71052e-15 0 7.793e-26 0 5e-05 1.46608e-10 
121 1 0.385676 0.0164514 5.39659e-05 1.45281e-18 2.78529e-20 -1.10923e-15 0 1.26825e-25 0 5e-05 1.46608e-10 
122 1 0.384725 0.0177988 5.27197e-05 1.79757e-18 1.05083e-21 -1.37249e-15 0 4.60775e-27 0 5e-05 1.46608e-10 
123 1 0.383915 0.0205035 5.16596e-05 8.71385e-19 -1.50086e-21 -6.65298e-16 0 -3.16334e-26 0 5e-05 1.46608e-10 
124 1 0.38514 0.0150589 5.32639e-05 -6.7007e-20 4.96074e-20 5.11809e-17 0 3.88804e-25 0 5e-05 1.46608e-10 
125 1 0.384411 0.0182414 5.23096e-05 1.79759e-18 -9.36396e-23 -1.37251e-15 0 9.35702e-28 0 5e-05 1.46608e-10 
127 1 0.384568 0.0171652 5.25152e-05 2.24032e-18 2.53771e-22 -1.71052e-15 0 -9.98568e-28 0 5e-05 1.46608e-10 
128 1 0.384299 0.0176122 5.21628e-05 2.24036e-18 -4.96854e-24 -1.71051e-15 0 2.86566e-28 0 5e-05 1.46608e-10 
129 1 0.384156 0.0171195 5.19742e-05 1.12722e-20 -3.2117e-20 6.09619e-19 1.03398e-25 0 0 5e-05 1.46608e-10 
130 1 0.385036 0.0171379 5.31278e-05 2.24033e-18 -6.42483e-21 -1.71052e-15 0 -2.28754e-25 0 5e-05 1.46608e-10 
131 1 0.38397 0.0175718 5.17312e-05 2.24031e-18 1.02849e-21 -1.71051e-15 0 1.1463e-26 0 5e-05 1.46608e-10 
132 1 0.385069 0.0180992 5.31713e-05 1.79764e-18 1.16908e-21 -1.37251e-15 4.03897e-28 1.46442e-26 0 5e-05 1.46608e-10 
133 1 0.384477 0.0187082 5.23958e-05 1.79761e-18 1.20418e-21 -1.37251e-15 0 2.58973e-26 0 5e-05 1.46608e-10 
134 1 0.384249 0.0183505 5.20968e-05 8.64544e-20 -5.91001e-22 -6.55682e-17 -5.16988e-26 0 0 5e-05 1.46608e-10 
135 1 0.383899 0.019542 5.16388e-05 -3.50184e-19 4.91985e-21 2.6738e-16 -4.03897e-28 1.30222e-25 0 5e-05 1.46608e-10 
136 1 0.384145 0.017899 5.19599e-05 1.42395e-19 -6.78916e-21 -1.01156e-16 0 5.16988e-26 -2.06795e-25 5e-05 1.46608e-10 
137 1 0.383813 0.0198281 5.15254e-05 -3.50172e-19 -1.95635e-21 2.67381e-16 0 1.28454e-26 0 5e-05 1.46608e-10 
138 1 0.384467 0.0171735 5.23827e-05 2.24037e-18 2.95576e-23 -1.71052e-15 0 8.15788e-27 0 5e-05 1.46608e-10 
140 1 0.384752 0.0179004 5.27554e-05 1.79756e-18 2.64275e-21 -1.37249e-15 0 -2.61728e-26 0 5e-05 1.46608e-10 
141 1 0.38497 0.0181068 5.30405e-05 -5.31509e-19 -4.83415e-21 4.04658e-16 0 0 0 5e-05 1.46608e-10 
142 1 0.38496 0.0184888 5.30276e-05 1.7976e-18 -2.95286e-21 -1.37249e-15 0 1.16644e-26 0 5e-05 1.46608e-10 
143 1 0.384762 0.0181437 0.000100712 -2.84235e-19 3.65216e-21 2.16625e-16 0 0 0 5e-05 1.46608e-10 
144 1 0.383431 0.0175376 0.00541532 2.62455e-18 -1.80377e-14 -5.94669e-14 1.11199e-22 0 0 5e-05 1.46608e-10 
146 1 0.384977 0.0180356 0.000122854 -5.36517e-19 -4.79366e-22 4.04649e-16 -2.58494e-26 5.16988e-26 0 5e-05 1.46608e-10 
147 1 0.383614 0.0185748 5.12645e-05 -3.50192e-19 3.25165e-21 2.67381e-16 -4.03897e-28 4.2771e-26 0 5e-05 1.46608e-10 
148 1 0.384112 0.0172175 5.19177e-05 2.24037e-18 8.46402e-22 -1.71051e-15 0 1.26062e-26 0 5e-05 1.46608e-10 
149 1 0.385015 0.0183005 5.30994e-05 1.79764e-18 7.85777e-22 -1.37251e-15 0 -3.41181e-26 0 5e-05 1.46608e-10 
150 1 0.384846 0.0192085 5.28787e-05 8.71367e-19 -1.00055e-21 -6.65297e-16 0 1.01425e-26 0 5e-05 1.46608e-10 
151 1 0.384832 0.0188472 5.28603e-05 1.79763e-18 5.61845e-21 -1.37251e-15 0 2.53652e-25 0 5e-05 1.46608e-10 
153 1 0.383898 0.0179255 0.00013754 1.40352e-17 -1.51281e-16 2.5399e-16 3.23117e-27 0 2.06795e-25 5e-05 1.46608e-10 
154 1 0.383898 0.0181094 5.16374e-05 1.79761e-18 -2.55743e-22 -1.37251e-15 0 -3.77973e-27 0 5e-05 1.46608e-10 
155 1 0.384945 0.0179716 5.30077e-05 -5.31547e-19 -4.94564e-21 4.04653e-16 0 0 0 5e-05 1.46608e-10 
156 1 0.384147 0.0170045 5.19627e-05 -5.83414e-21 5.15587e-21 -1.95009e-18 0 -2.58494e-26 0 5e-05 1.46608e-10 
157 1 0.0219312 0.0187687 0.00551176 -3.83182e-14 8.16809e-14 2.95886e-13 -2.73461e-22 -1.87925e-22 2.48154e-24 5e-05 1.46608e-10 
158 1 0.384399 0.017607 5.22938e-05 2.24031e-18 -5.02643e-24 -1.71052e-15 0 -1.23112e-28 0 5e-05 1.46608e-10 
159 1 0.384201 0.0184387 5.20343e-05 1.79764e-18 8.78706e-22 -1.37251e-15 0 2.7184e-26 0 5e-05 1.46608e-10 
160 1 0.383571 0.0183829 0.000123314 -1.5007e-21 4.85387e-22 -7.35307e-22 0 0 0 5e-05 1.46608e-10 
162 1 0.384488 0.0195864 5.24091e-05 -3.50197e-19 -3.72295e-21 2.67381e-16 4.03897e-28 -5.35297e-26 0 5e-05 1.46608e-10 
164 1 0.384755 0.0166629 5.27588e-05 -9.20553e-19 1.61558e-20 7.02843e-16 0 -8.95137e-26 0 5e-05 1.46608e-10 
165 1 0.383838 0.0177344 0.000130408 -1.17818e-19 4.24341e-20 -3.51045e-19 -5.16988e-26 -2.58494e-26 2.06795e-25 5e-05 1.46608e-10 
166 1 0.383767 0.0192404 5.14661e-05 2.81058e-18 -4.00838e-21 -2.14593e-15 4.03897e-28 -3.4886e-26 0 5e-05 1.46608e-10 
167 1 0.384912 0.0178665 5.29654e-05 1.79764e-18 1.47266e-21 -1.37251e-15 0 -3.19578e-26 0 5e-05 1.46608e-10 
168 1 0.384018 0.01725 5.17936e-05 2.24035e-18 2.29967e-21 -1.71052e-15 0 2.34276e-25 0 5e-05 1.46608e-10 
169 1 0.384049 0.019854 5.18343e-05 -3.50222e-19 6.98832e-21 2.67382e-16 0 -1.67418e-25 0 5e-05 1.46608e-10 
170 1 0.383999 0.018436 5.17689e-05 1.7976e-18 -4.12126e-21 -1.37251e-15 0 -5.39992e-26 0 5e-05 1.46608e-10 
171 1 0.384038 0.0188005 0.000119845 -9.13768e-20 7.0025e-21 7.49371e-17 0 0 0 5e-05 1.46608e-10 
172 1 0.384373 0.0180412 5.22591e-05 1.79756e-18 6.72092e-22 -1.37249e-15 0 -2.9547e-26 0 5e-05 1.46608e-10 
173 1 0.384964 0.0172331 5.30331e-05 2.24036e-18 6.30178e-21 -1.71052e-15 4.03897e-28 1.17392e-25 0 5e-05 1.46608e-10 
174 1 0.384622 0.0182827 5.25858e-05 1.79759e-18 -7.73997e-23 -1.37251e-15 0 8.87201e-27 0 5e-05 1.46608e-10 
176 1 0.383932 0.0176648 5.16808e-05 2.76878e-21 4.64016e-21 -4.14153e-19 5.16988e-26 0 0 5e-05 1.46608e-10 
177 1 0.38404 0.0185721 5.18234e-05 1.79759e-18 3.42227e-21 -1.37251e-15 0 -4.30776e-26 0 5e-05 1.46608e-10 
178 1 0.384829 0.019706 5.28566e-05 8.71374e-19 2.3665e-22 -6.65297e-16 0 -4.99364e-27 0 5e-05 1.46608e-10 
179 1 0.384191 0.0191787 5.20202e-05 2.81054e-18 1.22631e-20 -2.14593e-15 0 2.83093e-25 0 5e-05 1.46608e-10 
182 1 0.384115 0.018498 5.19211e-05 1.79761e-18 -1.3705e-22 -1.37249e-15 0 -8.24882e-27 0 5e-05 1.46608e-10 
183 1 0.384721 0.0202918 5.27147e-05 8.71365e-19 1.73587e-22 -6.65297e-16 0 -4.7293e-27 0 5e-05 1.46608e-10 
184 1 0.384677 0.0179669 5.2657e-05 1.79761e-18 6.94614e-22 -1.37249e-15 0 -1.55344e-27 0 5e-05 1.46608e-10 
185 1 0.38458 0.01769 5.25298e-05 7.22354e-14 3.50213e-14 3.98169e-14 3.14329e-19 8.77017e-19 3.36764e-19 5e-05 1.46608e-10 
186 1 0.38368 0.0195057 5.13522e-05 -3.50191e-19 -6.80647e-21 2.67381e-16 0 -1.11986e-25 0 5e-05 1.46608e-10 
187 1 0.384427 0.0170821 5.23292e-05 -1.17124e-20 6.47963e-21 6.09018e-19 0 0 0 5e-05 1.46608e-10 
188 1 0.38383 0.0176734 5.15473e-05 -1.03597e-20 -1.04071e-21 -3.96044e-19 4.52364e-26 0 0 5e-05 1.46608e-10 
189 1 0.383918 0.017439 5.16628e-05 2.24034e-18 5.94619e-23 -1.71052e-15 0 -6.87489e-27 0 5e-05 1.46608e-10 
190 1 0.383979 0.0193213 5.17425e-05 -3.50181e-19 -1.78903e-21 2.67381e-16 0 4.47864e-26 0 5e-05 1.46608e-10 
191 1 0.384646 0.017421 5.26161e-05 2.24033e-18 -1.27516e-21 -1.71052e-15 4.03897e-28 1.23319e-27 0 5e-05 1.46608e-10 
192 1 0.384378 0.0175059 5.22658e-05 2.24035e-18 -3.28488e-21 -1.71052e-15 0 -2.55736e-26 0 5e-05 1.46608e-10 
193 1 0.384089 0.0190435 5.18871e-05 -3.502e-19 1.22402e-21 2.67382e-16 0 1.16743e-26 0 5e-05 1.46608e-10 
194 1 0.383653 0.019074 5.13159e-05 -1.59075e-21 9.71366e-22 -5.42201e-21 0 0 0 5e-05 1.46608e-10 
195 1 0.383846 0.0182168 5.15694e-05 1.79758e-18 8.11242e-22 -1.37249e-15 4.03897e-28 1.98355e-26 0 5e-05 1.46608e-10 
196 1 0.384118 0.0180904 5.19255e-05 1.79761e-18 -5.6962e-22 -1.37251e-15 0 4.99701e-27 0 5e-05 1.46608e-10 
197 1 0.383944 0.0178123 0.000121771 -4.43928e-17 -2.557e-17 -5.08207e-17 -5.16988e-26 5.16988e-26 0 5e-05 1.46608e-10 
198 1 0.383892 0.0185466 5.16296e-05 -3.50189e-19 1.78871e-21 2.67381e-16 0 -3.23668e-26 0 5e-05 1.46608e-10 
199 1 0.383899 0.0194311 5.16383e-05 2.8106e-18 8.00477e-21 -2.14593e-15 0 1.25661e-25 0 5e-05 1.46608e-10 
200 1 0.385014 0.0178743 5.30989e-05 1.79757e-18 2.34123e-21 -1.37249e-15 0 1.13165e-26 0 5e-05 1.46608e-10 
201 1 0.384311 0.0181229 5.21786e-05 -2.8208e-19 -1.47534e-21 2.16017e-16 0 -1.29247e-26 0 5e-05 1.46608e-10 
202 1 0.38375 0.0179324 0.000175661 -1.87936e-19 -1.34863e-19 -1.11254e-22 0 -5.16988e-26 0 5e-05 1.46608e-10 
203 1 0.384564 0.0165956 5.2509e-05 2.24032e-18 9.5692e-22 -1.71052e-15 0 7.80765e-27 0 5e-05 1.46608e-10 
204 1 0.38396 0.0190065 5.17177e-05 2.81056e-18 -2.98711e-22 -2.14593e-15 0 1.10487e-26 0 5e-05 1.46608e-10 
206 1 0.384465 0.0168375 5.23795e-05 2.24034e-18 -3.8174e-21 -1.71052e-15 0 -3.38562e-25 0 5e-05 1.46608e-10 
207 1 0.385175 0.0175512 5.33093e-05 1.79761e-18 8.70323e-22 -1.37251e-15 -4.03897e-28 -1.7321e-25 0 5e-05 1.46608e-10 
208 1 0.383584 0.0182412 5.12248e-05 1.40076e-21 2.7769e-21 2.29313e-20 -7.75482e-26 0 0 5e-05 1.46608e-10 
209 1 0.38493 0.0182425 5.29879e-05 3.50681e-19 2.70501e-21 -2.65995e-16 0 0 0 5e-05 1.46608e-10 
210 1 0.384351 0.0171769 5.22304e-05 2.24033e-18 -2.48133e-20 -1.71051e-15 0 3.53896e-27 0 5e-05 1.46608e-10 
211 1 0.383783 0.0177617 5.14859e-05 5.64942e-22 2.01552e-21 -2.65822e-19 0 0 0 5e-05 1.46608e-10 
212 1 0.384062 0.0199546 5.18516e-05 2.81054e-18 -4.10483e-21 -2.14593e-15 0 2.83403e-26 0 5e-05 1.46608e-10 
213 1 0.384476 0.0184173 5.2394e-05 1.79756e-18 -9.80853e-22 -1.37249e-15 0 -1.67053e-26 0 5e-05 1.46608e-10 
214 1 0.38469 0.0169374 5.26743e-05 2.24031e-18 4.50577e-22 -1.71051e-15 0 2.21651e-26 0 5e-05 1.46608e-10 
215 1 0.384121 0.0182994 5.19287e-05 1.79757e-18 -1.31524e-22 -1.37249e-15 0 1.05184e-27 0 5e-05 1.46608e-10 
216 1 0.384245 0.017708 5.20916e-05 2.24032e-18 7.38774e-21 -1.71052e-15 0 -8.23742e-26 0 5e-05 1.46608e-10 
217 1 0.384064 0.0191417 5.1854e-05 -3.5017e-19 1.11029e-22 2.67382e-16 0 6.1374e-28 0 5e-05 1.46608e-10 
218 1 0.384457 0.017909 5.23695e-05 1.79761e-18 8.31793e-23 -1.37251e-15 0 -1.02128e-27 0 5e-05 1.46608e-10 
219 1 0.384944 0.0197441 5.30067e-05 8.71363e-19 6.87479e-22 -6.65297e-16 0 2.92999e-27 0 5e-05 1.46608e-10 
220 1 0.383696 0.018399 5.13731e-05 -1.3611e-20 7.39773e-21 1.49945e-20 0 0 0 5e-05 1.46608e-10 
222 1 0.384799 0.0201778 5.28171e-05 8.71332e-19 1.74388e-20 -6.65297e-16 0 6.00062e-25 0 5e-05 1.46608e-10 
224 1 0.384494 0.0174269 5.24173e-05 2.24036e-18 5.63256e-21 -1.71052e-15 0 -2.41404e-27 0 5e-05 1.46608e-10 
225 1 0.385146 0.0176526 5.3272e-05 1.79759e-18 -4.97152e-21 -1.37251e-15 0 4.84561e-26 0 5e-05 1.46608e-10 
226 1 0.384104 0.018398 5.1907e-05 1.79762e-18 -5.40122e-23 -1.37251e-15 0 7.87172e-28 0 5e-05 1.46608e-10 
227 1 0.383688 0.0179861 0.000118273 9.98842e-20 -3.46361e-19 2.51986e-19 -5.16988e-26 -5.16988e-26 0 5e-05 1.46608e-10 
228 1 0.383956 0.018209 5.17134e-05 1.79756e-18 4.91686e-21 -1.37249e-15 0 1.04162e-25 0 5e-05 1.46608e-10 
229 1 0.383699 0.0187044 5.13766e-05 -6.89204e-19 2.96376e-21 5.27391e-16 0 0 0 5e-05 1.46608e-10 
230 1 0.384584 0.0183818 5.25351e-05 1.79759e-18 1.3861e-22 -1.37251e-15 0 3.42551e-26 0 5e-05 1.46608e-10 
232 1 0.384362 0.0190848 5.22448e-05 -3.5017e-19 7.42593e-21 2.67381e-16 0 -5.40274e-26 0 5e-05 1.46608e-10 
233 1 0.384256 0.0171177 5.21052e-05 1.25596e-21 -1.04045e-21 6.02902e-19 0 -2.58494e-26 0 5e-05 1.46608e-10 
234 1 0.383811 0.0178578 5.15218e-05 2.12895e-20 -1.69136e-20 -2.66077e-19 0 -5.16988e-26 0 5e-05 1.46608e-10 
235 1 0.384124 0.0177325 5.19334e-05 1.27834e-19 -7.68115e-21 -1.01159e-16 -5.16988e-26 1.03398e-25 0 5e-05 1.46608e-10 
236 1 0.385085 0.017804 5.3192e-05 1.79756e-18 9.28461e-23 -1.37249e-15 0 -8.10147e-27 0 5e-05 1.46608e-10 
237 1 0.384023 0.0180557 5.18008e-05 1.79756e-18 -2.37633e-22 -1.37249e-15 4.03897e-28 -2.79352e-27 0 5e-05 1.46608e-10 
239 1 0.38421 0.017017 0.000128507 1.04689e-18 -1.88811e-19 -6.47454e-19 -2.58494e-26 4.52364e-26 0 5e-05 1.46608e-10 
240 1 0.384108 0.0176224 5.19122e-05 6.07847e-21 1.5116e-21 -4.53247e-19 1.03398e-25 0 0 5e-05 1.46608e-10 
241 1 0.384924 0.0176585 5.29803e-05 1.79764e-18 -5.16018e-21 -1.37251e-15 0 5.48085e-26 0 5e-05 1.46608e-10 
242 1 0.385388 0.0170488 5.35891e-05 1.45284e-18 -1.05283e-20 -1.10924e-15 0 1.21641e-25 0 5e-05 1.46608e-10 
243 1 0.38396 0.0173391 5.17184e-05 2.24036e-18 -7.96897e-23 -1.71052e-15 0 -2.26984e-27 0 5e-05 1.46608e-10 
244 1 0.383851 0.0186443 5.15749e-05 -3.50222e-19 6.81317e-23 2.67382e-16 0 -6.26176e-28 0 5e-05 1.46608e-10 
246 1 0.385125 0.016896 5.32444e-05 2.24034e-18 -3.81582e-21 -1.71052e-15 0 1.53225e-26 0 5e-05 1.46608e-10 
248 1 0.383834 0.0184534 5.15531e-05 -3.50223e-19 -1.90176e-21 2.67381e-16 0 1.74268e-26 0 5e-05 1.46608e-10 
249 1 0.386067 0.0153632 5.44775e-05 1.45282e-18 8.79625e-22 -1.10923e-15 0 -5.29344e-28 0 5e-05 1.46608e-10 
250 1 0.383328 0.0172442 0.00803507 6.2487e-05 0.028866 -0.0107108 0 0 -1.43822e-09 5e-05 1.46608e-10 
251 1 0.384572 0.0174895 5.25197e-05 6.80244e-15 -1.90814e-15 1.2069e-15 -8.09516e-20 2.27197e-20 -1.07947e-22 5e-05 1.46608e-10 
252 1 0.384889 0.0183235 9.50979e-05 3.51605e-19 7.74166e-21 -2.65993e-16 6.46235e-27 0 0 5e-05 1.46608e-10 
253 1 0.383571 0.018535 0.00522286 -7.98404e-15 2.5376e-14 1.31295e-13 -7.49632e-25 -2.06795e-25 0 5e-05 1.46608e-10 
254 1 0.384301 0.0172952 5.21647e-05 2.24031e-18 -5.6876e-21 -1.71052e-15 0 2.59951e-27 0 5e-05 1.46608e-10 
255 1 0.38386 0.0190057 5.15867e-05 -3.50168e-19 -2.45958e-22 2.67381e-16 0 -1.4003e-25 0 5e-05 1.46608e-10 
256 1 0.383997 0.0204249 5.17662e-05 8.71369e-19 -4.52994e-22 -6.65297e-16 0 -2.84799e-27 0 5e-05 1.46608e-10 
257 1 0.385041 0.0180031 5.31334e-05 -5.2893e-19 -5.33397e-22 4.04648e-16 2.58494e-26 -2.58494e-26 0 5e-05 1.46608e-10 
258 1 0.384272 0.0170005 5.21271e-05 8.17108e-21 1.17209e-20 6.10496e-19 0 -2.58494e-26 0 5e-05 1.46608e-10 
259 1 0.384253 0.0166268 5.21024e-05 -9.20556e-19 -2.42424e-21 7.02844e-16 0 1.57977e-26 0 5e-05 1.46608e-10 
260 1 0.385186 0.0206932 5.33243e-05 -2.31177e-19 -1.38528e-20 1.76521e-16 0 -6.59648e-26 0 5e-05 1.46608e-10 
261 1 0.38441 0.0181414 5.23073e-05 -2.94957e-19 3.88702e-21 2.16022e-16 0 0 0 5e-05 1.46608e-10 
262 1 0.383808 0.0179475 9.56896e-05 2.54198e-20 -5.98671e-20 -2.77334e-19 -5.16988e-26 3.87741e-26 2.06795e-25 5e-05 1.46608e-10 
263 1 0.385136 0.0154015 5.32589e-05 1.45282e-18 1.38874e-20 -1.10923e-15 -4.03897e-28 -1.37932e-25 0 5e-05 1.46608e-10 
264 1 0.384094 0.0178206 8.84889e-05 1.30162e-19 -3.47607e-20 -1.01144e-16 -5.16988e-26 -5.16988e-26 2.06795e-25 5e-05 1.46608e-10 
265 1 0.383903 0.018864 5.16441e-05 2.8106e-18 2.96868e-24 -2.14593e-15 0 -2.16706e-30 0 5e-05 1.46608e-10 
266 1 0.384739 0.0172129 5.27388e-05 -9.2057e-19 -1.26284e-21 7.02843e-16 0 1.21684e-27 0 5e-05 1.46608e-10 
268 1 0.387501 0.0145625 5.63555e-05 -6.70344e-20 -3.43877e-22 5.11804e-17 0 -1.48719e-26 0 5e-05 1.46608e-10 
269 1 0.384702 0.0182078 5.26903e-05 -2.75666e-19 4.01162e-21 2.16623e-16 0 0 0 5e-05 1.46608e-10 
270 1 0.383998 0.0187387 5.17683e-05 -9.67183e-20 1.35308e-21 7.49404e-17 0 0 0 5e-05 1.46608e-10 
271 1 0.38456 0.0198571 5.2504e-05 8.71363e-19 -8.23242e-20 -6.65297e-16 0 3.49277e-25 0 5e-05 1.46608e-10 
272 1 0.384323 0.0183113 0.000107218 7.25609e-20 1.55984e-21 -6.55678e-17 5.16988e-26 0 0 5e-05 1.46608e-10 
273 1 0.384247 0.0174825 5.20942e-05 -9.20567e-19 -5.83085e-21 7.02843e-16 0 -6.65919e-27 0 5e-05 1.46608e-10 
274 1 0.38379 0.0183625 5.14951e-05 1.79759e-18 -8.99231e-23 -1.37251e-15 0 -2.3226e-27 0 5e-05 1.46608e-10 
275 1 0.384335 0.0170692 8.94554e-05 3.28469e-20 9.77136e-21 6.00799e-19 0 2.58494e-26 0 5e-05 1.46608e-10 
276 1 0.384997 0.0161341 5.30769e-05 2.24033e-18 -6.80587e-20 -1.71052e-15 0 6.35158e-25 0 5e-05 1.46608e-10 
278 1 0.384825 0.018259 5.28512e-05 3.50378e-19 -2.03012e-21 -2.65994e-16 0 0 0 5e-05 1.46608e-10 
279 1 0.384252 0.0210736 5.21011e-05 2.00508e-18 -3.3971e-21 -1.5309e-15 0 -1.8882e-26 0 5e-05 1.46608e-10 
280 1 0.383599 0.0190252 0.000120033 -7.01232e-21 3.4606e-22 1.89103e-22 0 -3.23117e-27 0 5e-05 1.46608e-10 
281 1 0.384805 0.0186896 5.28247e-05 1.79755e-18 1.00787e-20 -1.37249e-15 0 2.42998e-26 0 5e-05 1.46608e-10 
283 1 0.383797 0.0177162 0.000219802 -2.83794e-19 -1.09919e-19 1.24123e-22 0 1.16322e-25 -3.23117e-26 5e-05 1.46608e-10 
284 1 0.383576 0.0182495 0.000150621 1.30593e-20 6.96421e-21 -4.44982e-22 0 5.16988e-26 0 5e-05 1.46608e-10 
285 1 0.384577 0.0172681 5.25269e-05 2.24036e-18 -1.00096e-21 -1.71051e-15 0 1.68556e-25 0 5e-05 1.46608e-10 
286 1 0.383757 0.0185573 5.14518e-05 -3.50179e-19 6.04605e-22 2.67382e-16 0 3.15824e-27 0 5e-05 1.46608e-10 
287 1 0.384957 0.0177572 5.30246e-05 1.79762e-18 9.42471e-23 -1.37251e-15 0 6.74084e-27 0 5e-05 1.46608e-10 
288 1 0.383954 0.0183132 5.17102e-05 1.79759e-18 4.55485e-21 -1.37249e-15 -4.03897e-28 -5.374e-26 0 5e-05 1.46608e-10 
289 1 0.384537 0.0180461 0.000128511 -3.91015e-20 -3.14762e-21 2.1633e-16 5.16988e-26 -1.61559e-26 2.06795e-25 5e-05 1.46608e-10 
290 1 0.384346 0.0178493 5.22233e-05 1.7976e-18 -2.47438e-21 -1.37249e-15 0 -4.80184e-27 0 5e-05 1.46608e-10 
291 1 0.383806 0.0207438 5.15163e-05 2.00509e-18 -1.62833e-21 -1.5309e-15 0 1.49256e-26 0 5e-05 1.46608e-10 
292 1 0.384812 0.0169702 5.28343e-05 2.24033e-18 2.61144e-22 -1.71051e-15 0 -4.76351e-27 0 5e-05 1.46608e-10 
293 1 0.383927 0.0199158 5.1675e-05 2.81055e-18 2.30335e-21 -2.14593e-15 0 3.21622e-26 0 5e-05 1.46608e-10 
294 1 0.383957 0.0186367 5.17142e-05 2.81059e-18 -1.06436e-21 -2.14593e-15 0 -1.68046e-26 0 5e-05 1.46608e-10 
295 1 0.384861 0.0185948 5.28981e-05 1.79757e-18 -3.46905e-22 -1.37249e-15 0 3.53482e-26 0 5e-05 1.46608e-10 
296 1 0.385006 0.0184002 5.30883e-05 1.79761e-18 1.0486e-21 -1.37249e-15 -4.03897e-28 -1.65207e-27 0 5e-05 1.46608e-10 
297 1 0.383629 0.01881 5.12843e-05 -6.90899e-19 3.27965e-21 5.27383e-16 -3.23117e-27 5.16988e-26 0 5e-05 1.46608e-10 
298 1 0.384024 0.0176603 8.98669e-05 1.21681e-20 2.86355e-20 -4.36062e-19 -5.16988e-26 -2.58494e-26 0 5e-05 1.46608e-10 
299 1 0.383643 0.018743 0.000124216 -6.86381e-19 -2.43091e-21 5.2739e-16 1.29247e-26 -5.16988e-26 0 5e-05 1.46608e-10 
300 1 0.384681 0.0189793 5.2662e-05 -3.50209e-19 -3.78489e-21 2.67381e-16 0 -4.48257e-26 0 5e-05 1.46608e-10 
