ITEM: TIMESTEP
17800000
ITEM: NUMBER OF ATOMS
287
ITEM: BOX BOUNDS ff ff ff
-0.02 0.43
-0.02 0.06
-0.02 0.07
ITEM: ATOMS id type x y z vx vy vz fx fy fz radius mass 
1 1 0.116552 0.0162341 0.00821068 0.00590293 0.00010279 -0.000603947 1.96745e-10 2.15288e-10 -2.15237e-10 5e-05 1.46608e-10 
2 1 0.117145 0.017835 0.00706417 0.00568356 0.00081775 -0.000649501 -2.10451e-11 -7.11189e-11 -2.56636e-11 5e-05 1.46608e-10 
3 1 0.110471 0.0161978 0.00810533 0.00605219 0.000269023 0.000289043 -4.17808e-11 -5.23913e-11 2.6878e-11 5e-05 1.46608e-10 
4 1 0.116879 0.0173856 0.00714492 0.005795 0.000886599 2.477e-06 2.90208e-11 -8.8873e-11 1.73358e-11 5e-05 1.46608e-10 
5 1 0.116413 0.0160727 0.00837214 0.00583455 0.000144221 -0.000637599 2.09181e-10 1.48124e-10 -1.59467e-10 5e-05 1.46608e-10 
6 1 0.122578 0.0164919 0.00762524 0.00631033 0.000116373 0.00010732 1.64334e-11 3.89842e-11 -2.21754e-11 5e-05 1.46608e-10 
7 1 0.116604 0.0167096 0.00776579 0.00610402 0.000135309 -0.000649279 2.70483e-11 1.55283e-10 -1.2297e-10 5e-05 1.46608e-10 
8 1 0.116307 0.0157215 0.00870654 0.00571261 0.000186948 -0.000667617 -2.93833e-10 7.29411e-11 -3.53129e-11 5e-05 1.46608e-10 
9 1 0.122844 0.0176457 0.00712043 0.00559477 7.96882e-05 -0.000258916 1.20495e-10 3.5901e-11 -1.33607e-11 5e-05 1.46608e-10 
10 1 0.11654 0.0164973 0.00796791 0.00598218 0.000122213 -0.000629443 7.66148e-11 9.98436e-11 -9.9021e-11 5e-05 1.46608e-10 
11 1 0.117114 0.0176402 0.00709222 0.0057897 0.000830906 1.18143e-05 -2.71921e-10 -7.54789e-11 1.93829e-11 5e-05 1.46608e-10 
12 1 0.110661 0.0169049 0.00760138 0.00605691 0.000291336 0.000272185 -1.74107e-11 3.08561e-12 -5.27942e-12 5e-05 1.46608e-10 
13 1 0.116392 0.016002 0.0084395 0.00581683 0.000153215 -0.00064434 -1.3072e-10 8.15346e-11 -8.05486e-11 5e-05 1.46608e-10 
14 1 0.110384 0.0158547 0.00826478 0.00605575 0.000286361 0.000275438 5.02815e-12 6.72211e-11 -4.44327e-11 5e-05 1.46608e-10 
15 1 0.116766 0.0169421 0.00753653 0.00622112 0.000158995 -0.000683432 -1.03756e-10 2.77315e-10 -2.95415e-10 5e-05 1.46608e-10 
16 1 0.110363 0.0157721 0.00831703 0.00548108 0.000373254 0.000174981 -3.71956e-10 1.58808e-10 -1.31221e-10 5e-05 1.46608e-10 
17 1 0.116519 0.0164278 0.0080366 0.00594378 0.00012641 -0.000630765 9.34793e-11 1.12355e-10 -1.25376e-10 5e-05 1.46608e-10 
18 1 0.122722 0.0170833 0.00727974 0.00581153 0.000208825 3.72934e-05 4.39229e-12 3.67292e-11 -2.8695e-11 5e-05 1.46608e-10 
19 1 0.11637 0.0159312 0.00850687 0.00577299 0.000158712 -0.000643761 -1.40116e-10 -9.26145e-13 2.58154e-11 5e-05 1.46608e-10 
21 1 0.116531 0.0161633 0.00827805 0.00585645 0.000109895 -0.000606537 1.40628e-10 8.68666e-11 -9.4844e-11 5e-05 1.46608e-10 
22 1 0.116647 0.0168511 0.00763106 0.00612856 0.000139771 -0.000658605 1.27476e-10 2.54286e-10 -2.33643e-10 5e-05 1.46608e-10 
23 1 0.1108 0.0170983 0.00748589 0.00607782 0.000328781 0.000248934 -8.79689e-11 1.26224e-11 -8.31023e-12 5e-05 1.46608e-10 
24 1 0.122783 0.0173598 0.00718773 0.00583931 2.88394e-05 -0.000257749 8.56703e-11 5.52961e-11 -3.82959e-11 5e-05 1.46608e-10 
25 1 0.116583 0.0166388 0.00783316 0.00608451 0.000119845 -0.000635203 -3.41563e-10 1.86532e-10 -1.54295e-10 5e-05 1.46608e-10 
26 1 0.122664 0.0168292 0.00742831 0.00571084 0.000228791 2.4143e-05 -3.14958e-10 1.64417e-11 -1.36307e-11 5e-05 1.46608e-10 
27 1 0.110885 0.0176031 0.00728122 0.00596858 0.000753021 -0.000221144 -1.10464e-10 -2.05234e-10 2.78823e-10 5e-05 1.46608e-10 
28 1 0.116864 0.0173009 0.00719581 0.00569406 0.000393785 -0.000851637 9.85947e-11 -1.70969e-10 2.73333e-11 5e-05 1.46608e-10 
29 1 0.116353 0.015874 0.00858708 0.00574641 0.000166014 -0.000649575 7.7981e-11 2.16468e-11 -4.62168e-11 5e-05 1.46608e-10 
30 1 0.116828 0.0171557 0.00733337 0.00598162 0.000305404 -0.000826707 -3.45562e-10 1.04725e-10 3.38419e-11 5e-05 1.46608e-10 
31 1 0.116626 0.0167808 0.00769923 0.00612198 0.000137615 -0.000654278 2.28427e-10 1.81365e-10 -1.71145e-10 5e-05 1.46608e-10 
32 1 0.116744 0.0168713 0.00760395 0.00622951 0.000198734 -0.000719633 -2.56115e-10 1.13108e-10 -1.06909e-10 5e-05 1.46608e-10 
33 1 0.122599 0.0165762 0.00757602 0.00631057 0.000118232 0.000106255 -4.686e-12 3.17032e-11 -1.95091e-11 5e-05 1.46608e-10 
34 1 0.116498 0.0163558 0.00810263 0.00593847 0.000127645 -0.000630967 3.96955e-11 1.21806e-10 -1.16644e-10 5e-05 1.46608e-10 
35 1 0.116723 0.0168004 0.00767144 0.00618244 0.000192102 -0.000710766 1.01475e-10 1.56659e-10 -1.59017e-10 5e-05 1.46608e-10 
36 1 0.122883 0.0178365 0.00707556 0.00563579 7.78944e-05 -0.000260444 -1.88665e-11 -6.06502e-11 1.24255e-11 5e-05 1.46608e-10 
37 1 0.11668 0.0166589 0.00780621 0.00615731 0.000168441 -0.000685508 -9.19142e-11 -1.05452e-10 8.46809e-11 5e-05 1.46608e-10 
38 1 0.11691 0.017111 0.00736762 0.00594668 0.000268453 -0.000758772 -2.53341e-10 3.12012e-10 -2.33136e-10 5e-05 1.46608e-10 
39 1 0.122803 0.0174551 0.0071653 0.00584422 2.99952e-05 -0.000258092 1.2659e-11 -2.09782e-11 4.64606e-12 5e-05 1.46608e-10 
41 1 0.116455 0.0162143 0.00823738 0.00589471 0.000136871 -0.000634926 -7.57803e-11 1.50546e-10 -1.38186e-10 5e-05 1.46608e-10 
42 1 0.116668 0.0169219 0.00756369 0.00614061 0.000150121 -0.000665524 1.96001e-12 2.92208e-10 -2.70829e-10 5e-05 1.46608e-10 
44 1 0.116929 0.0171824 0.00729997 0.0056657 0.000303869 -0.000778541 -3.00136e-10 1.64716e-10 -2.6323e-10 5e-05 1.46608e-10 
45 1 0.122621 0.0166605 0.00752681 0.00631091 0.000120725 0.00010474 1.04098e-11 1.28449e-11 -8.07511e-12 5e-05 1.46608e-10 
46 1 0.122703 0.0169985 0.00732928 0.0057753 0.000216079 3.33837e-05 -1.96816e-11 1.17655e-11 -7.45696e-12 5e-05 1.46608e-10 
47 1 0.116477 0.016285 0.00817001 0.00592581 0.00012938 -0.000630598 1.70762e-10 2.11332e-10 -2.07835e-10 5e-05 1.46608e-10 
48 1 0.11671 0.0170634 0.00742895 0.00625207 0.000162582 -0.000695231 7.55088e-12 2.13547e-10 -1.04751e-10 5e-05 1.46608e-10 
49 1 0.122683 0.0169139 0.00737878 0.00572954 0.000225723 2.67647e-05 -1.72294e-11 -9.33739e-12 1.69288e-11 5e-05 1.46608e-10 
50 1 0.116769 0.0172815 0.00723163 0.00574933 0.000600412 -0.000406648 5.27843e-12 -1.01959e-10 -1.11526e-10 5e-05 1.46608e-10 
51 1 0.116751 0.0172068 0.00729546 0.00592178 0.000413989 -0.000561592 -1.96539e-10 2.0274e-11 -8.69187e-11 5e-05 1.46608e-10 
52 1 0.110639 0.0168224 0.00765351 0.00605503 0.000285831 0.00027567 1.36431e-12 8.88654e-12 -4.65011e-12 5e-05 1.46608e-10 
53 1 0.122742 0.0171693 0.0072326 0.00582764 3.78959e-05 -0.000257837 1.42042e-11 5.71934e-11 4.74018e-12 5e-05 1.46608e-10 
54 1 0.116509 0.0160922 0.0083458 0.00583537 0.00010774 -0.000603025 -7.01787e-14 2.48921e-10 -2.37498e-10 5e-05 1.46608e-10 
55 1 0.110429 0.0160265 0.00817394 0.00605327 0.000277787 0.000280386 -1.45044e-11 -1.00574e-11 2.07884e-11 5e-05 1.46608e-10 
56 1 0.116702 0.0167295 0.00773892 0.00615383 0.000170528 -0.00068854 -6.0315e-11 1.43078e-10 -1.30117e-10 5e-05 1.46608e-10 
57 1 0.122643 0.0167448 0.00747759 0.00631197 0.000123957 0.000102947 -3.70531e-11 -1.32668e-11 7.35082e-12 5e-05 1.46608e-10 
59 1 0.116827 0.0168272 0.00763763 0.00628593 0.000230509 -0.000755678 -3.2439e-10 -1.89025e-11 5.97299e-11 5e-05 1.46608e-10 
60 1 0.116849 0.016898 0.00757026 0.00633812 0.00021785 -0.000748643 -3.24131e-10 4.97674e-11 1.57246e-11 5e-05 1.46608e-10 
61 1 0.116434 0.0161435 0.00830475 0.0058539 0.000137368 -0.00063215 -9.55967e-11 7.46683e-11 -6.33206e-11 5e-05 1.46608e-10 
62 1 0.116945 0.0172546 0.00723265 0.005666 0.000406214 -0.000656911 -3.93438e-11 4.50147e-11 -1.92496e-10 5e-05 1.46608e-10 
63 1 0.116877 0.0174921 0.00721991 0.00580807 0.00088892 -3.27803e-05 -1.55171e-10 -1.16225e-11 9.40772e-12 5e-05 1.46608e-10 
64 1 0.122762 0.0172645 0.00721016 0.00583442 3.24452e-05 -0.000259516 -3.03281e-11 5.81411e-11 -2.03312e-11 5e-05 1.46608e-10 
65 1 0.110929 0.0179178 0.00715893 0.005491 -1.40245e-05 -0.000409109 2.24281e-10 2.67084e-10 2.47061e-10 5e-05 1.46608e-10 
66 1 0.110985 0.0177626 0.00721058 0.00554264 -1.01104e-05 -0.000416078 -2.74739e-11 4.69646e-12 -8.4982e-11 5e-05 1.46608e-10 
67 1 0.117089 0.0175459 0.00711404 0.00583063 0.000820939 1.26319e-05 -1.6828e-10 -3.07583e-11 6.50015e-11 5e-05 1.46608e-10 
68 1 0.116975 0.0174252 0.00713889 0.0055454 0.0005554 6.64349e-05 -1.61477e-10 3.23939e-11 -1.61784e-11 5e-05 1.46608e-10 
69 1 0.116616 0.0164465 0.00800839 0.00604848 0.000191939 -0.000699835 -1.8298e-10 -3.79367e-11 5.40362e-11 5e-05 1.46608e-10 
70 1 0.122824 0.0175503 0.00714287 0.00584537 2.8412e-05 -0.000257906 -1.75087e-11 -7.71172e-11 5.74017e-11 5e-05 1.46608e-10 
71 1 0.110406 0.0159373 0.00821265 0.00605512 0.000282573 0.000277636 1.43301e-11 2.50645e-11 -1.03643e-11 5e-05 1.46608e-10 
72 1 0.116959 0.0173312 0.00717008 0.0057892 0.000813283 -0.000119672 1.11264e-10 1.45451e-11 -2.43977e-11 5e-05 1.46608e-10 
73 1 0.116562 0.0165681 0.00790054 0.0060304 0.000119475 -0.000631101 -4.36356e-11 1.76241e-10 -1.69499e-10 5e-05 1.46608e-10 
74 1 0.116787 0.0170129 0.00746914 0.0062989 0.000190277 -0.000719014 -1.17096e-10 9.91598e-11 -1.08849e-10 5e-05 1.46608e-10 
76 1 0.11094 0.0176942 0.00715073 0.00556565 -2.94116e-05 -0.000401187 -4.65223e-11 -1.97364e-10 3.80765e-11 5e-05 1.46608e-10 
77 1 0.116996 0.0179626 0.00710876 0.00571901 0.000912555 -0.000649506 2.88563e-11 -1.11095e-11 1.87973e-10 5e-05 1.46608e-10 
78 1 0.110487 0.0162447 0.00801843 0.00605227 0.000265809 0.000289198 -4.60229e-12 -4.29345e-11 2.79686e-11 5e-05 1.46608e-10 
79 1 0.110966 0.017671 0.00724592 0.00567559 -5.90758e-05 -0.000490475 -1.28917e-10 1.16155e-10 2.18888e-10 5e-05 1.46608e-10 
80 1 0.116803 0.0174474 0.00712722 0.00578567 0.000875359 9.38003e-07 1.26588e-11 -1.07079e-10 9.78034e-12 5e-05 1.46608e-10 
81 1 0.110775 0.0173895 0.00740956 0.00594168 0.00033178 0.00020514 2.00988e-13 -1.73376e-11 1.75203e-12 5e-05 1.46608e-10 
82 1 0.110726 0.017152 0.00744524 0.00605771 0.000303537 0.000263841 -3.44768e-11 -8.28852e-12 -3.24823e-13 5e-05 1.46608e-10 
83 1 0.11083 0.0168792 0.00763101 0.00607783 0.000314944 0.000258576 -6.41428e-12 1.47828e-10 -9.75314e-11 5e-05 1.46608e-10 
84 1 0.122864 0.0177411 0.00709799 0.00561474 7.80264e-05 -0.000259727 -4.78917e-11 -1.24882e-11 6.31905e-12 5e-05 1.46608e-10 
85 1 0.110604 0.0163556 0.00795504 0.00605201 0.000264163 0.000289687 -8.24977e-12 -3.80733e-11 2.43036e-11 5e-05 1.46608e-10 
86 1 0.116847 0.017228 0.00726478 0.00586674 0.000457787 -0.000933196 5.59706e-11 1.15073e-10 -1.00184e-10 5e-05 1.46608e-10 
87 1 0.116806 0.0167565 0.007705 0.0062153 0.000231542 -0.000749996 -1.22925e-10 -3.13952e-11 3.51366e-11 5e-05 1.46608e-10 
88 1 0.116844 0.0176509 0.00714743 0.00588914 0.0015654 -0.000780132 -1.12077e-10 1.4566e-11 1.91463e-10 5e-05 1.46608e-10 
89 1 0.116822 0.0175432 0.00715388 0.00571253 0.000759214 -7.23132e-05 1.28823e-10 2.31467e-10 1.71508e-10 5e-05 1.46608e-10 
90 1 0.117207 0.0176779 0.00708653 0.00578792 0.000838683 1.1296e-05 -1.59981e-10 -8.14399e-11 -4.60616e-12 5e-05 1.46608e-10 
91 1 0.110683 0.0169909 0.00755522 0.00605731 0.000296664 0.000268058 -5.93469e-11 1.49972e-11 -1.68017e-11 5e-05 1.46608e-10 
92 1 0.117022 0.0176185 0.00712928 0.0058317 0.000825405 2.37803e-05 -2.0298e-10 -1.98946e-10 -8.28384e-11 5e-05 1.46608e-10 
93 1 0.116881 0.017828 0.00710058 0.00577665 0.000858149 -0.000730782 -1.53064e-10 -2.67299e-10 5.45077e-10 5e-05 1.46608e-10 
94 1 0.117072 0.0178998 0.00708906 0.00573547 0.000891543 -0.000643249 -1.87417e-11 -6.84574e-11 -2.63177e-10 5e-05 1.46608e-10 
95 1 0.116941 0.0175783 0.00718778 0.00582695 0.000909452 -2.95112e-05 -3.51036e-10 2.27729e-10 -1.55253e-10 5e-05 1.46608e-10 
96 1 0.117033 0.0177015 0.00707448 0.0058324 0.000812662 1.52793e-05 9.73276e-11 -1.02453e-11 1.43801e-10 5e-05 1.46608e-10 
97 1 0.110596 0.0166573 0.00775777 0.00605341 0.000275079 0.000282682 2.0212e-11 1.41106e-11 -4.76658e-12 5e-05 1.46608e-10 
98 1 0.116861 0.0177283 0.00708498 0.00579651 0.000686482 -0.000706712 -2.28528e-10 -1.72543e-10 9.32453e-11 5e-05 1.46608e-10 
99 1 0.111004 0.0178545 0.0071761 0.00549635 -4.89223e-06 -0.000393312 2.20502e-10 1.97957e-12 -1.13172e-10 5e-05 1.46608e-10 
100 1 0.117043 0.017275 0.00721911 0.00577123 0.000651164 -0.000209073 6.93957e-11 4.16852e-11 -3.09064e-10 5e-05 1.46608e-10 
101 1 0.110765 0.0172487 0.00749061 0.0060722 0.00025363 0.000268837 -7.76457e-12 3.07964e-11 -1.32093e-11 5e-05 1.46608e-10 
102 1 0.0643568 0.0187248 0.00531097 4.07502e-15 1.05805e-14 8.29593e-14 5.7511e-22 -8.20848e-22 6.59677e-23 5e-05 1.46608e-10 
103 1 0.24257 0.0191927 0.00520306 -1.01195e-22 2.24983e-22 1.23839e-22 0 0 0 5e-05 1.46608e-10 
104 1 0.110957 0.0173764 0.00731669 0.00600221 0.000347278 0.000231623 -8.09471e-11 -5.009e-11 4.2851e-11 5e-05 1.46608e-10 
105 1 0.110552 0.0164923 0.00786203 0.00605164 0.000266785 0.000287967 -2.48325e-12 -1.87978e-11 1.27962e-11 5e-05 1.46608e-10 
106 1 0.111052 0.0174067 0.00730415 0.00605685 0.000557235 9.87565e-05 -1.99411e-10 -2.24131e-10 1.34566e-10 5e-05 1.46608e-10 
107 1 0.110509 0.0163272 0.0079663 0.00605114 0.000264593 0.000289251 -1.15835e-11 -3.96821e-11 2.51507e-11 5e-05 1.46608e-10 
108 1 0.116659 0.0165881 0.0078736 0.00614841 0.000150167 -0.000669259 -8.33909e-11 2.12031e-10 -1.87054e-10 5e-05 1.46608e-10 
109 1 0.116731 0.0171345 0.00736172 0.00615231 0.000245519 -0.000661952 -5.23264e-11 2.89032e-10 7.74809e-11 5e-05 1.46608e-10 
110 1 0.11711 0.0180941 0.00711655 0.00563982 0.000918121 -0.000630305 -1.93906e-10 -1.4269e-10 5.40878e-12 5e-05 1.46608e-10 
111 1 0.116989 0.01815 0.00722733 0.00558088 0.000865424 -0.000663655 -1.59405e-11 -2.61404e-11 3.61139e-11 5e-05 1.46608e-10 
112 1 0.110617 0.0167398 0.00770564 0.00605407 0.000280321 0.000279197 2.06109e-11 1.54383e-11 -8.15707e-12 5e-05 1.46608e-10 
113 1 0.111224 0.0182118 0.00694514 0.00558125 -6.13079e-05 -0.000389657 -5.61824e-11 7.03186e-11 -1.62895e-12 5e-05 1.46608e-10 
114 1 0.111173 0.0178184 0.00717612 0.00551743 -1.14394e-05 -0.00039166 2.09094e-10 1.24473e-10 -1.50033e-11 5e-05 1.46608e-10 
115 1 0.116808 0.0170841 0.00740137 0.00621811 0.000246603 -0.00077152 -1.51007e-10 -1.27949e-10 1.47859e-10 5e-05 1.46608e-10 
116 1 0.116638 0.0165173 0.00794099 0.00609308 0.000164499 -0.000677786 -2.03019e-11 2.30127e-10 -1.80367e-10 5e-05 1.46608e-10 
117 1 0.116488 0.0160214 0.00841318 0.00579158 0.000118174 -0.000608793 -3.75683e-11 1.5572e-10 -1.39223e-10 5e-05 1.46608e-10 
118 1 0.110452 0.0161547 0.00819353 0.0060481 0.000264658 0.000287069 -1.5917e-10 -5.15442e-11 1.10585e-11 5e-05 1.46608e-10 
119 1 0.11687 0.0169688 0.00750288 0.00633088 0.000214167 -0.000745463 -1.62377e-10 7.64228e-11 -5.97262e-11 5e-05 1.46608e-10 
120 1 0.116329 0.0157922 0.00863916 0.00573818 0.000175533 -0.000660241 -9.49534e-11 1.01106e-10 -1.29467e-10 5e-05 1.46608e-10 
121 1 0.116286 0.0156507 0.00877391 0.00567204 0.000194321 -0.000668089 1.37765e-11 -8.53968e-11 9.63538e-11 5e-05 1.46608e-10 
122 1 0.117035 0.0181566 0.00713859 0.00564031 0.000927935 -0.00062963 -8.81532e-11 -5.31011e-11 -3.15359e-11 5e-05 1.46608e-10 
123 1 0.110647 0.0165207 0.00785078 0.00605313 0.000270722 0.00028549 1.13486e-11 -1.28981e-11 8.54743e-12 5e-05 1.46608e-10 
124 1 0.116896 0.017581 0.00709847 0.0057176 0.00087855 9.03689e-06 -3.49768e-11 2.29667e-10 -8.62802e-11 5e-05 1.46608e-10 
125 1 0.116467 0.0159506 0.00848055 0.0057973 0.000132337 -0.00062279 -1.27494e-10 -9.52765e-12 4.61724e-11 5e-05 1.46608e-10 
126 1 0.116689 0.0169927 0.00749638 0.00620123 0.000157306 -0.000673962 -6.54617e-11 2.51088e-10 -2.73467e-10 5e-05 1.46608e-10 
127 1 0.110574 0.0165748 0.0078099 0.00605237 0.000270255 0.000285739 7.71741e-12 -1.65306e-12 1.26028e-12 5e-05 1.46608e-10 
128 1 0.116786 0.0173588 0.00717056 0.00576459 0.000798894 -0.000159311 6.93875e-11 -1.70809e-10 -2.09668e-11 5e-05 1.46608e-10 
129 1 0.116915 0.0177361 0.00716861 0.0052519 0.00105552 -0.000448262 -5.11759e-12 -1.39238e-10 -1.92211e-10 5e-05 1.46608e-10 
130 1 0.110822 0.017181 0.00743366 0.00605829 0.000311343 0.000258523 -7.82335e-11 -2.53237e-11 1.33528e-11 5e-05 1.46608e-10 
131 1 0.111023 0.0179465 0.00714176 0.005497 -1.68752e-05 -0.00040386 6.01321e-11 5.58986e-11 -1.62476e-11 5e-05 1.46608e-10 
132 1 0.116896 0.0174838 0.00712205 0.00580073 0.000861064 -2.037e-05 1.31804e-11 -6.40385e-11 2.54561e-11 5e-05 1.46608e-10 
133 1 0.116721 0.0164734 0.00797449 0.00615892 0.000222224 -0.000736988 -2.65242e-10 2.58459e-11 -1.4142e-11 5e-05 1.46608e-10 
134 1 0.116891 0.0170401 0.00743597 0.00620279 0.000214232 -0.000748688 3.57576e-10 2.59597e-10 1.11721e-10 5e-05 1.46608e-10 
135 1 0.116446 0.0158798 0.00854793 0.00576703 0.00013952 -0.000626121 -1.62462e-10 7.64899e-11 -3.02667e-11 5e-05 1.46608e-10 
136 1 0.110582 0.0162731 0.00800718 0.00605093 0.000263379 0.000290137 -1.18522e-11 -4.1266e-11 2.65909e-11 5e-05 1.46608e-10 
137 1 0.116939 0.0181212 0.00714569 0.00558837 0.000965378 -0.000609927 -7.63224e-12 -3.13634e-10 -8.76421e-11 5e-05 1.46608e-10 
138 1 0.116595 0.0163757 0.0080758 0.00599332 0.000182819 -0.000685671 -1.67436e-10 9.27437e-11 -5.83143e-11 5e-05 1.46608e-10 
140 1 0.117091 0.0179972 0.00710155 0.00565022 0.00091051 -0.000633213 -2.47288e-10 -1.11406e-10 9.63175e-13 5e-05 1.46608e-10 
141 1 0.110626 0.0164382 0.00790291 0.00605245 0.000266728 0.000288045 -3.55194e-12 -2.61132e-11 1.75277e-11 5e-05 1.46608e-10 
142 1 0.110917 0.0172109 0.00742144 0.00608526 0.00032959 0.000249653 -6.77287e-11 3.12366e-11 -3.16932e-11 5e-05 1.46608e-10 
143 1 0.11053 0.0164098 0.00791416 0.0060512 0.00026483 0.000289191 -7.869e-12 -3.1777e-11 2.03466e-11 5e-05 1.46608e-10 
144 1 0.111054 0.0178145 0.0070994 0.00549786 -3.0362e-05 -0.000389683 7.38331e-11 1.19339e-10 -1.41003e-10 5e-05 1.46608e-10 
146 1 0.110947 0.0169907 0.0075673 0.00612148 0.00038134 0.000218756 -5.59823e-11 8.48869e-11 -6.03905e-11 5e-05 1.46608e-10 
147 1 0.11056 0.0161906 0.00805931 0.00606605 0.000275765 0.000283582 1.03105e-10 5.51377e-11 -2.79925e-11 5e-05 1.46608e-10 
148 1 0.110787 0.0174046 0.00729604 0.00578571 -3.48978e-05 -0.000461997 -9.69746e-11 1.11144e-10 3.40575e-10 5e-05 1.46608e-10 
149 1 0.11692 0.0180242 0.00713064 0.00569027 0.000937985 -0.000639553 -2.93035e-10 -2.59927e-10 1.23345e-10 5e-05 1.46608e-10 
150 1 0.110734 0.0168508 0.00764226 0.00605534 0.000292432 0.000271516 -6.28368e-11 5.49016e-11 -4.12231e-11 5e-05 1.46608e-10 
151 1 0.111224 0.0177793 0.00709949 0.00550995 -4.204e-05 -0.000388932 -4.02845e-11 6.25333e-11 -4.91916e-11 5e-05 1.46608e-10 
153 1 0.110691 0.0166857 0.00774652 0.00605406 0.000281681 0.000278435 6.87898e-11 2.50241e-11 -1.2765e-11 5e-05 1.46608e-10 
154 1 0.110883 0.0174344 0.00728485 0.00596201 0.000311922 0.000251339 -7.41797e-11 -7.98557e-11 1.45973e-11 5e-05 1.46608e-10 
155 1 0.11096 0.0177862 0.00711647 0.00557755 -3.99688e-05 -0.000403199 -1.45575e-11 -2.30549e-10 5.41158e-11 5e-05 1.46608e-10 
156 1 0.110863 0.0173468 0.00732873 0.00601842 0.000309284 0.000258152 -9.50117e-11 -4.55927e-11 2.06128e-11 5e-05 1.46608e-10 
157 1 0.0219312 0.0187687 0.00551176 -3.82605e-14 8.16891e-14 2.95891e-13 3.69181e-22 3.37386e-22 -4.15658e-23 5e-05 1.46608e-10 
158 1 0.110977 0.0174593 0.00726414 0.00591192 0.000412699 0.000182156 7.47915e-12 -3.11037e-11 2.36213e-11 5e-05 1.46608e-10 
159 1 0.116986 0.0175266 0.00711486 0.00581217 0.000848011 1.07302e-05 6.15952e-11 -2.89227e-10 1.29906e-10 5e-05 1.46608e-10 
160 1 0.110865 0.017758 0.0071335 0.00558812 -1.57145e-05 -0.000408028 4.86342e-11 -1.80415e-10 8.42785e-11 5e-05 1.46608e-10 
162 1 0.110901 0.0175117 0.00722417 0.00589722 0.00031395 0.000240436 -1.04094e-10 -1.30308e-10 7.16658e-11 5e-05 1.46608e-10 
164 1 0.111036 0.0181545 0.00697945 0.00557492 -2.89997e-05 -0.000400181 1.95398e-11 2.71789e-11 -1.7287e-11 5e-05 1.46608e-10 
165 1 0.111149 0.0178431 0.00708225 0.00550177 -4.11404e-05 -0.000390426 -1.04994e-11 6.75843e-11 -5.36253e-11 5e-05 1.46608e-10 
166 1 0.116678 0.0163319 0.00810924 0.00605324 0.000256996 -0.000759895 -3.84198e-10 6.91543e-12 3.02538e-11 5e-05 1.46608e-10 
167 1 0.110713 0.0167683 0.00769439 0.00605305 0.000286267 0.000275265 1.94969e-11 4.14238e-11 -2.36581e-11 5e-05 1.46608e-10 
168 1 0.111072 0.0174896 0.0072516 0.00584201 0.000569673 7.51304e-05 6.10304e-11 -7.30613e-11 6.04657e-11 5e-05 1.46608e-10 
169 1 0.111206 0.0181197 0.00697937 0.00555769 -7.62992e-05 -0.000382009 6.86956e-11 9.30988e-11 -3.81764e-11 5e-05 1.46608e-10 
170 1 0.11111 0.0176587 0.00715086 0.00557768 -4.06577e-05 -0.000396935 -3.95726e-11 1.58036e-10 1.64262e-11 5e-05 1.46608e-10 
171 1 0.1167 0.0164026 0.00804186 0.00609534 0.000244481 -0.000751623 -3.47314e-10 -5.80006e-12 2.99689e-11 5e-05 1.46608e-10 
172 1 0.111262 0.0179641 0.00703073 0.0055331 -7.91859e-05 -0.000379294 -3.53863e-12 -3.43236e-11 1.06742e-11 5e-05 1.46608e-10 
173 1 0.117053 0.0178016 0.00708444 0.00576634 0.000864092 -0.000254064 -1.74261e-10 -1.31721e-11 4.11672e-10 5e-05 1.46608e-10 
174 1 0.111015 0.0176305 0.00716791 0.00554324 -4.85414e-05 -0.000388247 2.86512e-11 -7.07354e-11 1.52958e-12 5e-05 1.46608e-10 
175 1 0.104802 0.0174547 0.00715666 0.0055474 -0.000264733 0.000459941 4.20168e-11 -5.7326e-11 3.76328e-11 5e-05 1.46608e-10 
176 1 0.110842 0.0172641 0.00738111 0.00605615 0.00030692 0.000262132 -7.8956e-11 -2.58001e-11 9.8106e-12 5e-05 1.46608e-10 
177 1 0.110904 0.0179419 0.00706505 0.00549734 3.25774e-06 -0.000409331 -7.66791e-11 -2.30509e-10 9.74429e-11 5e-05 1.46608e-10 
178 1 0.111244 0.0183037 0.00691092 0.00561211 -6.57306e-05 -0.000401594 -2.80735e-12 -5.67936e-11 9.89326e-11 5e-05 1.46608e-10 
179 1 0.111187 0.0180277 0.0070136 0.00553626 -7.34157e-05 -0.000381817 6.64249e-11 -1.22189e-11 5.28787e-13 5e-05 1.46608e-10 
181 1 0.110826 0.0175754 0.00720516 0.00580423 0.000161054 0.000132045 2.02929e-11 2.11109e-11 1.45242e-10 5e-05 1.46608e-10 
182 1 0.116574 0.016305 0.00814318 0.00601174 0.000195527 -0.000699406 -3.95961e-11 2.31017e-11 -2.2472e-11 5e-05 1.46608e-10 
183 1 0.111091 0.0175727 0.00719893 0.00569465 0.000440438 0.000147894 7.15273e-11 3.54763e-11 -3.10343e-11 5e-05 1.46608e-10 
184 1 0.117019 0.0177481 0.00716184 0.00561274 0.00110827 -0.000118589 5.40312e-10 -1.46778e-10 6.96978e-10 5e-05 1.46608e-10 
185 1 0.110767 0.0173174 0.00734066 0.0057402 0.000338187 0.000214713 -9.86081e-11 -5.04888e-11 6.5694e-12 5e-05 1.46608e-10 
186 1 0.110806 0.0174825 0.00723613 0.00578079 -1.49494e-05 -0.000421238 -1.12086e-11 -1.11777e-10 1.23463e-11 5e-05 1.46608e-10 
187 1 0.117026 0.0171984 0.00728122 0.00574406 0.000348318 -0.000600625 -1.3986e-11 1.4935e-10 -2.56221e-10 5e-05 1.46608e-10 
188 1 0.116977 0.0178653 0.00709688 0.00576632 0.000885664 -0.000534177 -1.09283e-10 5.33713e-11 -1.49551e-11 5e-05 1.46608e-10 
189 1 0.117056 0.0173539 0.00715906 0.00581726 0.000815979 1.87437e-05 1.55415e-11 9.47399e-11 -9.0192e-11 5e-05 1.46608e-10 
190 1 0.104955 0.0177483 0.00702259 0.00561777 -0.000287342 0.000473485 -2.53993e-10 6.13067e-11 4.53648e-10 5e-05 1.46608e-10 
191 1 0.116959 0.0182181 0.00716057 0.00562552 0.000918737 -0.000630616 1.02627e-11 1.21937e-11 1.51288e-11 5e-05 1.46608e-10 
192 1 0.111012 0.0172408 0.00740924 0.00606403 0.000357827 0.000229687 -4.03616e-11 1.06547e-10 -6.9807e-11 5e-05 1.46608e-10 
193 1 0.116786 0.0166855 0.00777247 0.00619188 0.000219622 -0.000737701 -1.51132e-10 -1.48889e-11 2.63612e-11 5e-05 1.46608e-10 
194 1 0.110852 0.0169618 0.00757882 0.00603513 0.000293867 0.000269009 7.09454e-11 6.81838e-11 -3.97764e-11 5e-05 1.46608e-10 
195 1 0.111281 0.0180563 0.00699645 0.00554453 -9.53256e-05 -0.000374415 8.37743e-11 1.40639e-10 -6.14194e-11 5e-05 1.46608e-10 
196 1 0.110344 0.0156892 0.00836965 0.00562873 0.000356579 0.000197339 2.78508e-11 1.30317e-10 -7.77631e-11 5e-05 1.46608e-10 
197 1 0.104858 0.0177108 0.00701924 0.00563876 -0.000560028 -2.82037e-05 -4.4733e-11 -1.64726e-11 2.06633e-12 5e-05 1.46608e-10 
198 1 0.11084 0.0174556 0.00737292 0.00588421 0.000378874 0.000195049 -3.98177e-11 -1.74886e-11 -1.88477e-11 5e-05 1.46608e-10 
199 1 0.110921 0.0176031 0.00718786 0.00550652 -2.9623e-05 -0.000399892 1.18839e-10 -2.39158e-11 2.70828e-10 5e-05 1.46608e-10 
200 1 0.110704 0.0170695 0.00749737 0.00605849 0.000301243 0.000265724 -2.3295e-11 -8.60135e-12 4.95352e-13 5e-05 1.46608e-10 
201 1 0.111169 0.0183677 0.00689361 0.00563923 -3.91344e-05 -0.000389133 9.24598e-11 -9.62728e-11 7.03309e-11 5e-05 1.46608e-10 
202 1 0.111032 0.0173235 0.00735684 0.00602405 0.000367606 0.000219938 -1.09686e-11 -1.43614e-11 1.43603e-11 5e-05 1.46608e-10 
203 1 0.117072 0.0174499 0.00713651 0.00584265 0.000815325 1.76304e-05 -5.5763e-11 7.47526e-12 -9.28665e-12 5e-05 1.46608e-10 
204 1 0.110778 0.0170158 0.00753804 0.00604965 0.000301344 0.000265104 -4.28616e-11 -3.17672e-11 1.76405e-11 5e-05 1.46608e-10 
205 1 0.110998 0.0179705 0.0070479 0.00551192 -2.2388e-05 -0.000400979 -1.04717e-10 -4.13052e-11 4.80342e-12 5e-05 1.46608e-10 
206 1 0.111035 0.0177224 0.00713369 0.00555954 -5.18018e-05 -0.000390286 3.46756e-11 3.80441e-11 -4.78077e-11 5e-05 1.46608e-10 
207 1 0.110669 0.0166032 0.00779865 0.00605392 0.00027571 0.000282309 4.76086e-11 4.17931e-12 2.36224e-12 5e-05 1.46608e-10 
208 1 0.110997 0.0175422 0.00721161 0.00570733 0.000435871 0.000152313 1.17708e-10 -5.55691e-11 6.90226e-12 5e-05 1.46608e-10 
209 1 0.110756 0.0169332 0.00759018 0.0060586 0.000296673 0.00026898 -9.03085e-11 4.49074e-11 -3.67744e-11 5e-05 1.46608e-10 
210 1 0.116849 0.0173981 0.00723942 0.00568322 0.000928718 -3.56334e-05 -1.11244e-13 -8.29327e-12 -7.27683e-11 5e-05 1.46608e-10 
211 1 0.116959 0.0177677 0.00708452 0.00581105 0.000824275 -0.000250037 -6.82026e-12 8.00674e-11 2.5782e-10 5e-05 1.46608e-10 
212 1 0.111129 0.0177507 0.00711664 0.005538 -2.05382e-05 -0.000397572 7.74766e-11 1.11209e-10 -3.86388e-11 5e-05 1.46608e-10 
213 1 0.117008 0.0171249 0.00734641 0.00608553 0.000192985 -0.000696622 4.41852e-10 1.2453e-10 -1.15369e-10 5e-05 1.46608e-10 
214 1 0.116941 0.0176702 0.00709799 0.00584548 0.000820398 -0.000193161 -6.93401e-11 2.35111e-10 -4.94796e-10 5e-05 1.46608e-10 
215 1 0.104915 0.0175624 0.00708159 0.00561586 -0.000284375 0.000476382 -1.5332e-10 -3.40516e-11 -1.081e-10 5e-05 1.46608e-10 
216 1 0.110885 0.0178499 0.00709927 0.0056043 -3.27199e-05 -0.000415106 1.60448e-10 -2.26786e-10 2.0377e-10 5e-05 1.46608e-10 
217 1 0.116742 0.0165442 0.00790711 0.00619973 0.000206865 -0.00072576 5.48823e-13 5.68911e-11 -6.35972e-11 5e-05 1.46608e-10 
218 1 0.110966 0.0181015 0.00709042 0.00553879 4.2139e-06 -0.000409516 -8.33794e-12 -5.75805e-11 -4.72803e-11 5e-05 1.46608e-10 
219 1 0.116901 0.0179272 0.00711617 0.00576594 0.000905085 -0.00061089 -5.28114e-11 -2.0244e-10 6.9418e-11 5e-05 1.46608e-10 
220 1 0.110846 0.0176663 0.00716838 0.00553984 7.23129e-06 -0.00038979 3.92526e-11 -1.774e-10 -1.24608e-10 5e-05 1.46608e-10 
221 1 0.104842 0.0172435 0.00731008 0.00604259 -0.000229603 -0.0001547 4.98197e-11 1.97596e-10 -6.77416e-11 5e-05 1.46608e-10 
222 1 0.116764 0.0166149 0.00783974 0.0062028 0.000210235 -0.000728835 7.13228e-11 5.65713e-12 7.28939e-12 5e-05 1.46608e-10 
223 1 0.110937 0.0172936 0.00736907 0.00604395 0.000337791 0.000241081 -6.59806e-11 -1.93426e-12 -1.2e-11 5e-05 1.46608e-10 
224 1 0.110748 0.0172346 0.00739311 0.00605776 0.000300847 0.000265758 -4.79457e-11 -4.06374e-11 1.73601e-11 5e-05 1.46608e-10 
225 1 0.116981 0.0183146 0.00717515 0.005633 0.000917199 -0.000630783 -1.34894e-11 1.36415e-12 1.41904e-12 5e-05 1.46608e-10 
226 1 0.111243 0.0178717 0.00706511 0.00551402 -6.2674e-05 -0.000384771 3.12252e-11 -2.42501e-11 -3.71114e-12 5e-05 1.46608e-10 
227 1 0.104974 0.0178449 0.0070058 0.00555363 -0.000283247 0.000511818 -1.14214e-10 8.01271e-13 5.14377e-11 5e-05 1.46608e-10 
228 1 0.10482 0.0175344 0.00709797 0.00561577 -0.000252657 0.000456233 -2.70169e-11 1.55761e-10 -1.01715e-10 5e-05 1.46608e-10 
229 1 0.110909 0.0178258 0.00719316 0.0055806 -4.37969e-05 -0.000448632 3.79574e-10 3.02649e-10 7.9605e-10 5e-05 1.46608e-10 
230 1 0.111114 0.0185313 0.00688006 0.00571955 2.83557e-05 0.00019235 8.92041e-11 -4.05667e-11 -1.67099e-10 5e-05 1.46608e-10 
231 1 0.104785 0.0173754 0.00721499 0.00575658 -0.0002913 0.000496266 -1.86766e-10 -3.5367e-11 -6.94457e-11 5e-05 1.46608e-10 
232 1 0.110808 0.0167967 0.00768314 0.00605119 0.00028942 0.000273218 -1.90739e-11 1.36121e-10 -9.101e-11 5e-05 1.46608e-10 
233 1 0.110896 0.0171281 0.00747389 0.00605655 0.000318248 0.000254553 -6.59456e-11 7.4754e-12 -9.46492e-12 5e-05 1.46608e-10 
234 1 0.117015 0.0180597 0.00712366 0.00567691 0.000921047 -0.000634575 -2.32949e-11 -9.90873e-12 -2.07609e-11 5e-05 1.46608e-10 
235 1 0.111076 0.0187923 0.00689015 0.00564471 2.59716e-05 0.00039248 -1.06435e-11 -5.15919e-11 6.66311e-12 5e-05 1.46608e-10 
236 1 0.111228 0.0186617 0.00688818 0.00570501 8.94505e-05 0.000403919 -1.05839e-11 6.51391e-13 -1.00054e-11 5e-05 1.46608e-10 
237 1 0.111152 0.0187271 0.00688919 0.00567002 5.23437e-05 0.00039705 -4.6318e-11 -5.34592e-11 -6.86589e-12 5e-05 1.46608e-10 
239 1 0.1046 0.0166476 0.00771073 0.00597582 -0.00058999 8.23607e-05 3.08164e-11 1.12644e-10 -7.63357e-11 5e-05 1.46608e-10 
240 1 0.104665 0.0168914 0.00754852 0.00597598 -0.000611323 9.6324e-05 -3.97146e-11 -7.58957e-11 4.39522e-11 5e-05 1.46608e-10 
241 1 0.104578 0.0165663 0.0077648 0.00597497 -0.000589629 8.23864e-05 4.18824e-11 1.5801e-10 -1.04102e-10 5e-05 1.46608e-10 
242 1 0.110874 0.0170445 0.00752662 0.00610762 0.000362936 0.000229283 -1.34091e-10 -3.29851e-12 -1.01394e-11 5e-05 1.46608e-10 
243 1 0.110815 0.0175415 0.00731638 0.00608087 0.00050138 -0.000827912 1.7386e-11 1.18259e-10 -1.3287e-10 5e-05 1.46608e-10 
244 1 0.104622 0.0167289 0.00765666 0.00597596 -0.0005932 8.48154e-05 2.0239e-11 4.34437e-11 -2.80966e-11 5e-05 1.46608e-10 
246 1 0.104747 0.0172171 0.00733136 0.0055971 -0.000283994 0.000480859 -1.25853e-11 1.00674e-10 -1.67587e-12 5e-05 1.46608e-10 
247 1 0.111017 0.0180625 0.00701368 0.00554558 -2.46887e-05 -0.00040016 -4.20461e-11 -3.19213e-12 -2.52615e-11 5e-05 1.46608e-10 
248 1 0.11113 0.0181832 0.0069623 0.00558068 -5.06158e-05 -0.000391769 3.75335e-11 4.32729e-11 -2.56924e-11 5e-05 1.46608e-10 