ITEM: TIMESTEP
18800000
ITEM: NUMBER OF ATOMS
287
ITEM: BOX BOUNDS ff ff ff
-0.02 0.43
-0.02 0.06
-0.02 0.07
ITEM: ATOMS id type x y z vx vy vz fx fy fz radius mass 
1 1 0.12244 0.0162969 0.00778496 0.00569357 2.46904e-05 -0.000354019 1.10891e-10 3.95072e-10 -1.90538e-10 5e-05 1.46608e-10 
2 1 0.123067 0.0181272 0.00700389 0.00579351 0.000308846 -0.000194155 -5.80755e-11 -2.85688e-11 3.8005e-11 5e-05 1.46608e-10 
3 1 0.116221 0.0159809 0.00853828 0.00546977 0.000930903 -0.000192887 -1.68368e-10 -3.13039e-11 -3.91746e-10 5e-05 1.46608e-10 
4 1 0.122774 0.0176851 0.00711452 0.00573283 0.000292118 -0.000312562 -1.12812e-10 2.77801e-11 -9.03552e-12 5e-05 1.46608e-10 
5 1 0.122306 0.016146 0.00795788 0.00568158 -7.65689e-06 -0.000360741 3.30807e-10 5.10651e-10 -5.05731e-10 5e-05 1.46608e-10 
6 1 0.128388 0.0165078 0.00778413 0.00561275 -0.000916682 0.00138151 1.11793e-10 3.84846e-10 -3.39232e-10 5e-05 1.46608e-10 
7 1 0.122484 0.0168343 0.00742028 0.00628916 0.00025972 2.21742e-05 -1.60571e-10 -2.81764e-10 1.3106e-10 5e-05 1.46608e-10 
8 1 0.12221 0.0158259 0.00832941 0.00550254 2.28337e-05 -0.000389767 6.02198e-11 1.06498e-10 -1.32042e-10 5e-05 1.46608e-10 
9 1 0.128651 0.0175698 0.00723921 0.00567381 -0.00185754 0.000844949 -2.61503e-10 -1.12001e-09 -1.12607e-10 5e-05 1.46608e-10 
10 1 0.122423 0.0165815 0.00756799 0.00582706 0.000333327 -2.48306e-05 -5.84813e-10 3.05719e-13 3.84729e-11 5e-05 1.46608e-10 
11 1 0.123024 0.0179311 0.00704812 0.00576037 0.000282632 -0.00031252 -1.44173e-11 -5.91365e-12 1.52557e-11 5e-05 1.46608e-10 
12 1 0.116393 0.016578 0.00790585 0.00589059 0.000297048 -0.000785016 3.40302e-11 1.44847e-10 -1.87724e-10 5e-05 1.46608e-10 
13 1 0.122287 0.016082 0.00803224 0.00568177 -1.55894e-05 -0.000356272 3.54205e-10 3.85947e-10 -3.54851e-10 5e-05 1.46608e-10 
14 1 0.116125 0.0156684 0.0087472 0.00631063 0.000684328 -0.000110337 6.90956e-10 -4.32469e-10 4.86221e-10 5e-05 1.46608e-10 
15 1 0.122642 0.0171156 0.00725839 0.00634096 0.000227777 3.76061e-05 -4.14121e-11 3.28028e-11 -4.26823e-11 5e-05 1.46608e-10 
16 1 0.116104 0.0155959 0.00881255 0.00588534 0.000742042 -0.000197615 -7.99308e-11 -4.46416e-10 3.82368e-10 5e-05 1.46608e-10 
17 1 0.122404 0.0164969 0.00761745 0.00572025 0.000348506 -5.16981e-05 -6.58241e-11 -2.55274e-10 3.34451e-11 5e-05 1.46608e-10 
18 1 0.128529 0.0170196 0.00732785 0.00593287 -0.000890924 0.00143967 2.07028e-09 1.53885e-09 -6.05917e-10 5e-05 1.46608e-10 
19 1 0.122268 0.0160179 0.00810655 0.00562927 4.13877e-06 -0.000375799 6.53578e-11 2.36758e-10 -2.38312e-10 5e-05 1.46608e-10 
21 1 0.122421 0.0162289 0.00785574 0.0057187 -1.55663e-05 -0.000384519 2.13572e-10 1.63609e-10 -5.73832e-11 5e-05 1.46608e-10 
22 1 0.122527 0.0170029 0.00732177 0.00634889 0.000265586 2.19722e-05 -3.55253e-11 -2.43104e-10 2.58716e-11 5e-05 1.46608e-10 
23 1 0.116529 0.0167396 0.0077445 0.00592616 0.000248511 -0.000721689 4.53196e-11 4.89616e-11 4.79285e-10 5e-05 1.46608e-10 
24 1 0.128593 0.0172781 0.00719987 0.00584504 -0.00181522 0.000846879 -5.26097e-10 6.8282e-10 -3.53223e-10 5e-05 1.46608e-10 
25 1 0.122464 0.0167551 0.00747801 0.0062516 0.00026408 1.61773e-05 -1.43143e-10 -1.07834e-10 3.14488e-11 5e-05 1.46608e-10 
26 1 0.128468 0.0168003 0.0075234 0.00583184 -0.000850399 0.00134133 1.30735e-10 3.61581e-10 -2.96672e-10 5e-05 1.46608e-10 
27 1 0.116635 0.0172756 0.00735717 0.00622533 0.000264406 -0.000739225 4.57928e-10 -4.19958e-10 -4.46093e-10 5e-05 1.46608e-10 
28 1 0.122753 0.01759 0.00713696 0.00626331 0.000118722 -0.000296505 2.31638e-10 8.18266e-11 -2.08303e-11 5e-05 1.46608e-10 
29 1 0.122249 0.0159572 0.00818392 0.00558477 4.40986e-06 -0.000376793 -1.00207e-10 2.34049e-10 -2.64938e-10 5e-05 1.46608e-10 
30 1 0.122709 0.0173997 0.00718185 0.00622779 0.000103386 -0.000292811 2.69487e-10 8.34009e-11 -1.36325e-11 5e-05 1.46608e-10 
31 1 0.122506 0.0169185 0.00737114 0.00632173 0.000263752 2.33968e-05 -2.79905e-10 -2.57102e-10 1.67499e-10 5e-05 1.46608e-10 
32 1 0.122623 0.0170309 0.00730796 0.0063461 0.000239571 3.2314e-05 -3.8273e-11 -1.07031e-12 -1.95628e-10 5e-05 1.46608e-10 
33 1 0.128408 0.0165809 0.00771895 0.00566501 -0.000908341 0.00137859 1.04512e-10 3.83101e-10 -3.43122e-10 5e-05 1.46608e-10 
34 1 0.122385 0.0164232 0.00768238 0.00572278 0.000194564 -0.000234191 -2.75674e-10 -2.94144e-10 -1.10379e-10 5e-05 1.46608e-10 
35 1 0.122601 0.0169557 0.00737007 0.00622814 0.000249233 -2.16133e-05 -7.4064e-11 2.55381e-10 -4.24958e-10 5e-05 1.46608e-10 
36 1 0.12869 0.0177642 0.00726544 0.0055476 -0.00189842 0.000821928 -9.4636e-11 -4.99858e-10 -6.61094e-11 5e-05 1.46608e-10 
37 1 0.12256 0.0167796 0.00745475 0.00626715 0.000250563 2.27437e-05 1.74861e-10 3.10799e-10 9.44692e-11 5e-05 1.46608e-10 
38 1 0.122784 0.0173338 0.00719358 0.00620091 7.32138e-05 -0.000283196 2.64473e-10 -1.26411e-11 6.27752e-12 5e-05 1.46608e-10 
39 1 0.128612 0.0173753 0.00721299 0.00527959 -0.00172851 0.000791302 -5.0548e-10 -3.92176e-11 -5.16707e-11 5e-05 1.46608e-10 
41 1 0.122345 0.0162742 0.00780922 0.00571456 -2.52933e-05 -0.000389993 1.01057e-10 -5.87581e-12 -7.87131e-11 5e-05 1.46608e-10 
42 1 0.122549 0.017095 0.00728936 0.00635926 0.000248332 -2.18344e-05 -1.13292e-12 -1.96409e-10 -4.11367e-10 5e-05 1.46608e-10 
44 1 0.122805 0.0174288 0.00717115 0.00623975 6.92139e-05 -0.000284719 3.7896e-11 -1.00069e-10 2.21286e-11 5e-05 1.46608e-10 
45 1 0.128428 0.016654 0.00765377 0.00572069 -0.000892804 0.00137043 9.10663e-11 3.8478e-10 -3.56427e-10 5e-05 1.46608e-10 
46 1 0.128509 0.0169465 0.00739303 0.00594372 -0.000785999 0.00127956 -1.11019e-09 -1.79727e-09 1.49237e-09 5e-05 1.46608e-10 
47 1 0.122364 0.0163455 0.00774194 0.00571914 2.67566e-05 -0.000410291 -4.66362e-11 -5.59395e-10 1.10608e-10 5e-05 1.46608e-10 
48 1 0.122592 0.0172768 0.00721847 0.00634286 0.000158467 -0.000236207 3.04828e-11 2.13236e-10 1.48488e-10 5e-05 1.46608e-10 
49 1 0.128489 0.0168734 0.00745822 0.00503173 -0.000592254 0.00102817 -1.90454e-11 -2.63454e-10 2.63967e-10 5e-05 1.46608e-10 
50 1 0.122657 0.017561 0.00714763 0.00629661 0.00014357 -0.000303061 6.15303e-11 1.06913e-10 -7.17444e-11 5e-05 1.46608e-10 
51 1 0.122635 0.017466 0.00717006 0.00627295 0.000143689 -0.000306505 2.50851e-10 8.0472e-11 6.87316e-11 5e-05 1.46608e-10 
52 1 0.116373 0.0165071 0.00797333 0.00583448 0.000299595 -0.000783093 1.30053e-10 3.01543e-10 -1.15137e-10 5e-05 1.46608e-10 
53 1 0.128549 0.0170968 0.00726779 0.00587729 -0.00201422 -2.79112e-05 -1.50523e-11 -4.97266e-10 -6.28507e-10 5e-05 1.46608e-10 
54 1 0.122402 0.0161649 0.00793008 0.00571851 -1.54961e-05 -0.000358721 6.17938e-10 -9.56454e-11 -7.75192e-12 5e-05 1.46608e-10 
55 1 0.116173 0.0158128 0.00861725 0.00650837 0.000662737 -7.50387e-05 -9.31887e-11 -1.14656e-10 1.0095e-10 5e-05 1.46608e-10 
56 1 0.122581 0.0168703 0.00741826 0.00616044 0.000207823 -0.000146224 2.34028e-11 3.45826e-10 -3.07483e-10 5e-05 1.46608e-10 
57 1 0.128448 0.0167271 0.00758859 0.00577613 -0.000874534 0.00135906 1.03292e-10 3.75614e-10 -3.3579e-10 5e-05 1.46608e-10 
59 1 0.122699 0.0169761 0.00734245 0.00629949 0.000172535 7.63284e-05 7.37011e-11 -1.33955e-10 -3.32218e-11 5e-05 1.46608e-10 
60 1 0.122718 0.0170609 0.00729287 0.00629672 0.000187269 6.44442e-05 -3.10839e-11 3.64511e-11 -4.02229e-11 5e-05 1.46608e-10 
61 1 0.122325 0.0162101 0.00788356 0.00565962 -4.23962e-06 -0.0003429 1.11839e-09 1.50782e-10 -8.68902e-11 5e-05 1.46608e-10 
62 1 0.122827 0.0175239 0.00714872 0.00623427 8.85365e-05 -0.000288613 1.88869e-10 -1.3879e-10 2.88953e-11 5e-05 1.46608e-10 
63 1 0.122796 0.0177858 0.0071919 0.00572661 0.000302382 -0.000320061 4.92917e-12 -1.55216e-10 -1.9138e-11 5e-05 1.46608e-10 
64 1 0.128571 0.0171829 0.00722184 0.00592901 -0.00195617 5.64763e-05 -1.27182e-10 3.17201e-10 -4.79406e-10 5e-05 1.46608e-10 
65 1 0.116702 0.0174941 0.00721102 0.00587446 0.000876297 -2.3341e-05 3.94045e-09 -1.7579e-09 3.67186e-09 5e-05 1.46608e-10 
66 1 0.116766 0.0174186 0.00722499 0.0056761 0.000930942 8.80374e-06 -4.85697e-09 2.73573e-09 1.22475e-09 5e-05 1.46608e-10 
67 1 0.122991 0.0178384 0.00707049 0.00570585 0.000323683 -0.00031973 -3.66682e-10 5.69722e-11 -3.48148e-12 5e-05 1.46608e-10 
68 1 0.122869 0.0177144 0.0071038 0.00574495 0.000277865 -0.000310205 -1.68589e-10 4.50027e-11 -1.5715e-11 5e-05 1.46608e-10 
69 1 0.122499 0.016526 0.0076029 0.0057959 0.000318063 -2.36474e-05 -5.53754e-10 4.68057e-11 1.02772e-10 5e-05 1.46608e-10 
70 1 0.128631 0.0174726 0.0072261 0.00573295 -0.00184246 0.000862364 -2.25006e-10 -6.10679e-10 -1.2699e-10 5e-05 1.46608e-10 
71 1 0.116149 0.0157406 0.00868222 0.00657449 0.00064612 -5.24937e-05 2.70435e-10 -1.55461e-10 2.20118e-10 5e-05 1.46608e-10 
72 1 0.122848 0.017619 0.00712627 0.00574221 0.000294889 -0.000314208 -9.02804e-11 2.82669e-11 -2.22561e-12 5e-05 1.46608e-10 
73 1 0.122444 0.016666 0.00751861 0.00607342 0.000286692 1.2145e-07 -6.17476e-10 3.87322e-11 -1.31631e-11 5e-05 1.46608e-10 
74 1 0.122666 0.0172106 0.00723034 0.00631512 0.000134865 -0.000226825 -5.43537e-11 1.13813e-10 2.08638e-10 5e-05 1.46608e-10 
76 1 0.11667 0.0172371 0.00727157 0.00626042 0.00019322 -0.000717397 -8.01674e-11 1.59402e-10 -4.42139e-10 5e-05 1.46608e-10 
77 1 0.122905 0.01824 0.00698582 0.00585096 0.00036122 -0.000209798 5.12098e-11 -8.97336e-11 -8.24605e-12 5e-05 1.46608e-10 
78 1 0.116233 0.0160069 0.00844244 0.00474279 0.000999985 -0.000284341 3.83709e-10 1.94545e-10 -5.85465e-10 5e-05 1.46608e-10 
79 1 0.11674 0.0173444 0.00728688 0.00644308 9.77711e-05 -0.000671336 -9.9088e-11 -2.87912e-10 -8.82899e-11 5e-05 1.46608e-10 
80 1 0.1227 0.0177511 0.00710278 0.00572035 0.000294567 -0.000309777 -1.1875e-10 3.30138e-11 -3.28603e-11 5e-05 1.46608e-10 
81 1 0.116515 0.0170283 0.00759796 0.00618419 0.000264533 -0.000776945 2.30682e-11 6.58394e-11 -5.25618e-11 5e-05 1.46608e-10 
82 1 0.116453 0.016791 0.00770341 0.00605319 0.000289225 -0.000788411 -1.32662e-10 -3.14572e-11 2.51477e-11 5e-05 1.46608e-10 
83 1 0.116566 0.0165478 0.00791902 0.00609602 0.000430471 -0.000924 2.1412e-10 -5.88e-11 2.26333e-11 5e-05 1.46608e-10 
84 1 0.12867 0.017667 0.00725232 0.0056174 -0.00189984 0.000834805 7.16452e-11 6.13017e-10 5.72852e-11 5e-05 1.46608e-10 
85 1 0.116347 0.0161006 0.00835199 0.00519267 0.00041472 -0.000815537 8.92749e-10 -1.04628e-09 8.58254e-10 5e-05 1.46608e-10 
86 1 0.122731 0.0174949 0.00715939 0.00628672 0.000123283 -0.000297981 3.12072e-11 -5.24962e-11 8.26765e-12 5e-05 1.46608e-10 
87 1 0.122675 0.0168922 0.00739136 0.00614563 0.000188973 5.67534e-05 -3.51481e-10 2.82349e-10 -2.53465e-10 5e-05 1.46608e-10 
88 1 0.122741 0.0179366 0.00714537 0.00567065 0.000314642 -0.000320158 -3.80871e-10 -2.01178e-10 6.40829e-11 5e-05 1.46608e-10 
89 1 0.122716 0.0178398 0.0071461 0.00568761 0.000298184 -0.000285462 -4.3761e-10 -1.16698e-10 2.44767e-10 5e-05 1.46608e-10 
90 1 0.123118 0.0179621 0.00703702 0.00578193 0.000295291 -0.000315835 8.09037e-12 -1.24426e-10 -2.24798e-12 5e-05 1.46608e-10 
91 1 0.116413 0.016649 0.00783839 0.00594876 0.000296443 -0.000783496 -1.9325e-11 -5.80304e-11 -1.81628e-10 5e-05 1.46608e-10 
92 1 0.122933 0.0179178 0.00708695 0.00572857 0.000335416 -0.000324523 -1.35029e-10 9.53564e-11 -4.19066e-11 5e-05 1.46608e-10 
93 1 0.122766 0.0180654 0.00702884 0.00577617 0.000288932 -0.000311055 1.43441e-11 -1.60407e-10 -7.97216e-11 5e-05 1.46608e-10 
94 1 0.122992 0.0181925 0.00699298 0.00583977 0.000352094 -0.000202538 -7.19413e-11 -1.09646e-10 -7.65008e-12 5e-05 1.46608e-10 
95 1 0.122839 0.017901 0.00714158 0.00569323 0.000329359 -0.000318544 -2.82688e-10 2.61044e-10 1.43562e-10 5e-05 1.46608e-10 
96 1 0.122952 0.0180012 0.00703534 0.0057748 0.00033337 -0.00032528 1.80458e-10 -1.45329e-11 1.47934e-11 5e-05 1.46608e-10 
97 1 0.116332 0.0163652 0.00810831 0.00573558 0.000322916 -0.000824394 -5.00058e-11 4.70169e-10 -2.84433e-10 5e-05 1.46608e-10 
98 1 0.122746 0.0179701 0.00705127 0.00568241 0.000316974 -0.000313774 -1.06959e-10 -1.83658e-10 8.94938e-11 5e-05 1.46608e-10 
99 1 0.1168 0.0175111 0.00720719 0.00598198 0.000758393 2.02047e-05 1.18874e-11 1.67571e-10 -9.55332e-11 5e-05 1.46608e-10 
100 1 0.122922 0.0175525 0.00713815 0.00612126 0.000427731 -0.000360452 1.28667e-10 3.90589e-11 -1.77699e-11 5e-05 1.46608e-10 
101 1 0.116522 0.0169523 0.00766255 0.00617642 0.000256884 -0.000786676 8.9399e-11 6.54292e-11 7.03745e-12 5e-05 1.46608e-10 
102 1 0.0643568 0.0187248 0.00531097 4.16812e-15 1.05301e-14 8.29613e-14 6.4047e-22 -6.87077e-23 -2.29543e-23 5e-05 1.46608e-10 
103 1 0.24257 0.0191927 0.00520306 -1.56294e-22 4.86658e-23 1.23839e-22 -3.23117e-27 0 0 5e-05 1.46608e-10 
104 1 0.116687 0.0169742 0.00751356 0.0061828 0.000232886 -0.000749777 3.14448e-10 1.39279e-10 -1.25226e-10 5e-05 1.46608e-10 
105 1 0.116292 0.0162232 0.00824332 0.00562558 0.000380107 -0.000848268 -2.76028e-10 -4.54688e-10 -4.77048e-10 5e-05 1.46608e-10 
106 1 0.116785 0.0169955 0.00748545 0.00616757 0.000169474 -0.000691014 6.60789e-10 -7.07306e-11 -1.42928e-11 5e-05 1.46608e-10 
107 1 0.116253 0.0160795 0.00837664 0.00508869 0.000881068 -0.0003719 3.99905e-10 6.28475e-10 -4.20416e-10 5e-05 1.46608e-10 
108 1 0.12254 0.0166951 0.00750409 0.00622047 0.000247421 2.55886e-05 3.1243e-11 1.736e-10 -6.2087e-11 5e-05 1.46608e-10 
109 1 0.122614 0.0173711 0.00719304 0.00630942 0.000140355 -0.000295753 2.33401e-10 2.35677e-10 4.40096e-10 5e-05 1.46608e-10 
110 1 0.123034 0.0183919 0.00695326 0.00552045 0.000425642 -0.000211334 -4.56049e-10 2.37307e-10 -4.27363e-11 5e-05 1.46608e-10 
111 1 0.122903 0.0184069 0.00703415 0.00559919 0.000398274 -0.000228944 -3.5742e-10 1.15429e-10 1.12863e-10 5e-05 1.46608e-10 
112 1 0.116353 0.0164373 0.00804233 0.00577917 0.000305382 -0.00080026 1.03663e-10 3.76207e-10 -2.08797e-10 5e-05 1.46608e-10 
113 1 0.116963 0.0177475 0.00708626 0.00630159 0.000724832 -0.000671097 -2.82431e-10 -2.15877e-11 -4.45059e-10 5e-05 1.46608e-10 
114 1 0.117016 0.0175506 0.00719626 0.0061106 0.000425296 0.000109644 -1.75544e-10 3.03637e-10 1.75347e-10 5e-05 1.46608e-10 
115 1 0.122688 0.0173047 0.00720428 0.00626196 9.51603e-05 -0.000289956 8.38325e-11 4.90292e-11 -9.3864e-11 5e-05 1.46608e-10 
116 1 0.122519 0.0166105 0.00755351 0.00603913 0.00027492 6.83717e-06 -1.74823e-10 1.16699e-10 7.09441e-12 5e-05 1.46608e-10 
117 1 0.122382 0.0161008 0.0080044 0.0056912 -2.92816e-05 -0.000342931 6.25053e-10 1.85254e-11 -2.25657e-12 5e-05 1.46608e-10 
118 1 0.116205 0.0159463 0.00863069 0.00634512 0.000700753 -0.00011236 9.08541e-11 -9.90671e-11 -1.50799e-10 5e-05 1.46608e-10 
119 1 0.12274 0.0171451 0.00724371 0.00629194 0.000176024 6.79509e-05 -3.74278e-11 1.24578e-10 -2.26361e-11 5e-05 1.46608e-10 
120 1 0.122229 0.01589 0.00825506 0.00553887 1.13872e-05 -0.000380121 1.25974e-10 1.77214e-10 -1.95226e-10 5e-05 1.46608e-10 
121 1 0.122191 0.0157618 0.00840375 0.00548857 3.07672e-05 -0.00039845 -5.41169e-11 2.93993e-11 -2.70529e-11 5e-05 1.46608e-10 
122 1 0.122944 0.0184345 0.00694713 0.00557046 0.000514531 -0.000223235 -5.64347e-10 8.15729e-12 4.45295e-11 5e-05 1.46608e-10 
123 1 0.116387 0.0162426 0.00821702 0.00566058 0.000364954 -0.00081826 -3.87414e-10 3.86009e-10 -3.31439e-10 5e-05 1.46608e-10 
124 1 0.122772 0.0178756 0.00707151 0.00564837 0.0003134 -0.000311459 -1.54791e-10 -2.70711e-10 1.21989e-10 5e-05 1.46608e-10 
125 1 0.122363 0.0160368 0.00807876 0.00567302 -3.22044e-05 -0.000340705 2.35479e-10 -2.47513e-10 2.32219e-10 5e-05 1.46608e-10 
126 1 0.12257 0.0171851 0.00725169 0.00634632 0.00020698 -0.000125946 -3.10473e-11 -6.39033e-11 -4.20936e-10 5e-05 1.46608e-10 
127 1 0.116312 0.0162944 0.00817606 0.0056674 0.000368613 -0.000836294 -3.31606e-11 3.72486e-10 -2.39881e-10 5e-05 1.46608e-10 
128 1 0.122679 0.017656 0.00712521 0.00629435 0.000152658 -0.000305675 3.6301e-11 6.11674e-11 -2.99622e-11 5e-05 1.46608e-10 
129 1 0.122809 0.0180225 0.007108 0.00572742 0.000291722 -0.00033614 -5.68955e-11 -5.38611e-11 -1.91552e-10 5e-05 1.46608e-10 
130 1 0.116549 0.0168106 0.00767702 0.00605721 0.000214899 -0.000734762 -1.09128e-10 -8.69322e-11 1.55663e-10 5e-05 1.46608e-10 
131 1 0.116775 0.0176064 0.00718168 0.0060419 0.00101539 -9.04055e-05 -1.8598e-10 -4.95391e-12 -7.70158e-10 5e-05 1.46608e-10 
132 1 0.122795 0.0177804 0.00709206 0.0057108 0.000322823 -0.00031949 -1.81277e-10 4.73634e-11 -2.11839e-11 5e-05 1.46608e-10 
133 1 0.122594 0.0165543 0.00758885 0.00608195 0.000257718 1.6406e-05 -6.37396e-10 2.21965e-10 -1.25072e-10 5e-05 1.46608e-10 
134 1 0.122762 0.0172388 0.00721601 0.00623721 7.83325e-05 -0.000286603 1.65099e-10 1.42374e-10 -2.34342e-11 5e-05 1.46608e-10 
135 1 0.122344 0.0159727 0.00815307 0.0056299 -2.21818e-05 -0.000347356 -4.83522e-10 -2.7746e-10 3.4271e-10 5e-05 1.46608e-10 
136 1 0.116328 0.0160295 0.00841954 0.00512919 0.000401225 -0.00083015 -5.38929e-10 -3.06968e-10 2.64547e-10 5e-05 1.46608e-10 
137 1 0.122826 0.0183525 0.00696584 0.00587768 0.000318356 -0.00019791 1.70209e-11 -3.61797e-11 1.94696e-11 5e-05 1.46608e-10 
138 1 0.122479 0.0164414 0.00765234 0.0056816 0.000333762 -4.17833e-05 2.46712e-11 3.18343e-11 3.61367e-11 5e-05 1.46608e-10 
140 1 0.123012 0.0182886 0.00697385 0.00588574 0.000344989 -0.000207795 -5.53335e-12 -1.0166e-10 -4.19167e-12 5e-05 1.46608e-10 
141 1 0.116367 0.0161716 0.0082845 0.00553514 0.000370084 -0.000816072 5.88112e-10 -4.06064e-10 6.9532e-10 5e-05 1.46608e-10 
142 1 0.116647 0.0168321 0.00764866 0.00654731 0.000480278 -0.00103433 -1.75421e-10 2.36593e-10 4.12765e-10 5e-05 1.46608e-10 
143 1 0.116272 0.0161521 0.00831068 0.00562939 0.000508297 -0.000680734 -6.72729e-11 5.06086e-11 -8.26092e-10 5e-05 1.46608e-10 
144 1 0.116787 0.0173319 0.00717367 0.00564641 0.00040355 -0.000874014 -3.22265e-10 7.44421e-10 -9.34697e-10 5e-05 1.46608e-10 
146 1 0.116682 0.0166393 0.00782416 0.00739166 0.000615881 -0.00121034 -1.95892e-10 2.38709e-10 -3.48167e-10 5e-05 1.46608e-10 
147 1 0.116308 0.0159583 0.0084871 0.00480048 0.000512585 -0.000892501 -2.97038e-11 -1.40469e-10 7.56282e-11 5e-05 1.46608e-10 
148 1 0.116514 0.0170039 0.00750098 0.00620797 0.000277758 -0.000784271 -3.0714e-11 2.25122e-10 -1.36665e-10 5e-05 1.46608e-10 
149 1 0.122806 0.0182565 0.00698568 0.00585319 0.000312621 -0.000244481 5.68071e-11 -7.97361e-11 7.25328e-11 5e-05 1.46608e-10 
150 1 0.116468 0.0165265 0.0079471 0.00586725 0.000272858 -0.000761398 -3.4264e-10 6.34084e-11 -5.81895e-11 5e-05 1.46608e-10 
151 1 0.116981 0.0173861 0.00714854 0.00572014 0.00056626 7.03926e-05 -2.4142e-11 2.04469e-10 -1.70175e-12 5e-05 1.46608e-10 
153 1 0.116428 0.0163844 0.00808212 0.00573038 0.000323557 -0.000795288 -1.52484e-10 2.75458e-10 -3.64804e-10 5e-05 1.46608e-10 
154 1 0.11661 0.0170236 0.00747449 0.00622891 0.000266458 -0.000783935 -7.73652e-11 -9.48715e-12 -9.20963e-11 5e-05 1.46608e-10 
155 1 0.11669 0.0173109 0.00720695 0.00650034 0.000375133 -0.000821294 -9.60913e-11 1.74516e-11 1.81078e-11 5e-05 1.46608e-10 
156 1 0.116589 0.016953 0.00754237 0.00620336 0.000251876 -0.000792543 -2.11449e-10 4.37434e-10 -1.24804e-10 5e-05 1.46608e-10 
157 1 0.0219312 0.0187687 0.00551176 -3.83036e-14 8.16732e-14 2.9589e-13 4.91009e-22 2.17497e-22 1.26145e-23 5e-05 1.46608e-10 
158 1 0.116707 0.0170452 0.00744608 0.00622524 0.000227204 -0.000753059 2.81207e-10 1.68273e-10 -6.00501e-11 5e-05 1.46608e-10 
159 1 0.122877 0.0178357 0.00707602 0.00569312 0.000348572 -0.000325072 -3.4119e-10 1.98074e-10 4.04794e-11 5e-05 1.46608e-10 
160 1 0.116596 0.0172978 0.00724304 0.00636976 0.000263286 -0.000813395 3.54476e-10 4.61266e-10 3.05069e-10 5e-05 1.46608e-10 
162 1 0.11663 0.0170949 0.00740679 0.00626436 0.000263122 -0.000784047 1.6578e-10 1.2505e-10 -1.20587e-10 5e-05 1.46608e-10 
164 1 0.116766 0.0176768 0.00708895 0.00600572 0.000797512 -0.000697724 -1.4294e-10 -5.49668e-10 5.82228e-10 5e-05 1.46608e-10 
165 1 0.116884 0.0173609 0.00715103 0.00381795 -0.000332685 0.000444403 1.44068e-08 -9.59049e-09 3.16544e-09 5e-05 1.46608e-10 
166 1 0.122554 0.0163851 0.00768774 0.00572702 0.000328436 -2.19124e-05 1.68352e-10 1.80578e-10 -9.43496e-11 5e-05 1.46608e-10 
167 1 0.116448 0.0164561 0.00801524 0.00583152 0.00027168 -0.000796444 -4.27417e-10 9.05404e-11 -2.86597e-10 5e-05 1.46608e-10 
168 1 0.116805 0.0170665 0.00741797 0.00615306 0.000156335 -0.000676387 3.73626e-10 1.31634e-11 -4.80954e-11 5e-05 1.46608e-10 
169 1 0.116941 0.0176442 0.00708489 0.00631005 0.000527936 0.000110377 2.12488e-11 6.84604e-11 -8.77268e-11 5e-05 1.46608e-10 
170 1 0.116844 0.0172087 0.0072829 0.00629061 0.000121257 -0.000648948 7.23605e-11 2.62598e-11 -2.92399e-11 5e-05 1.46608e-10 
171 1 0.122574 0.0164697 0.00763828 0.00591303 0.000298819 -8.66404e-06 -2.05728e-10 1.93041e-10 -8.18224e-11 5e-05 1.46608e-10 
172 1 0.117019 0.0175844 0.00710218 0.00620713 0.000409638 0.000126679 -2.07687e-11 3.84479e-11 6.7351e-11 5e-05 1.46608e-10 
173 1 0.122972 0.0180966 0.00701292 0.00579853 0.000322948 -0.000332579 -3.4203e-10 1.49781e-11 1.74103e-10 5e-05 1.46608e-10 
174 1 0.116747 0.0171875 0.00731081 0.00619711 0.000157181 -0.000670361 -8.79451e-11 -3.00886e-11 -4.79483e-10 5e-05 1.46608e-10 
175 1 0.110626 0.0174487 0.00726291 0.00635852 0.000705919 -0.000714197 -7.97734e-12 -1.97611e-11 1.26206e-10 5e-05 1.46608e-10 
176 1 0.116569 0.0168816 0.00760947 0.00627504 0.000303533 -0.000825297 1.82076e-10 3.16647e-10 -1.91895e-10 5e-05 1.46608e-10 
177 1 0.116636 0.0174505 0.00712037 0.00591975 0.00108524 -2.10055e-05 -9.37483e-10 -4.28096e-11 -1.86375e-10 5e-05 1.46608e-10 
178 1 0.116981 0.0178458 0.0070894 0.00619858 0.000752085 -0.000739878 -1.40762e-11 -4.6611e-11 -4.8569e-11 5e-05 1.46608e-10 
179 1 0.116928 0.0175548 0.00713096 0.00609453 0.0006609 8.01007e-05 -8.18402e-11 7.71037e-11 2.34412e-10 5e-05 1.46608e-10 
181 1 0.116554 0.0171459 0.00736602 0.00629578 0.000272231 -0.00079725 -9.5737e-12 7.47966e-11 -1.09456e-10 5e-05 1.46608e-10 
182 1 0.122461 0.0163692 0.00771904 0.0056693 0.000209919 -0.000179 2.22476e-10 1.6193e-10 -3.08429e-11 5e-05 1.46608e-10 
183 1 0.116824 0.0171376 0.00735043 0.00615784 0.000142831 -0.000658159 3.37322e-10 9.30742e-11 -2.71053e-11 5e-05 1.46608e-10 
184 1 0.122929 0.0180751 0.00710026 0.00575878 0.000306633 -0.000341107 -1.06304e-10 -8.78031e-11 3.64962e-10 5e-05 1.46608e-10 
185 1 0.116494 0.0169331 0.00756864 0.00616219 0.000259285 -0.00078095 3.28416e-10 3.30948e-10 -5.89207e-11 5e-05 1.46608e-10 
186 1 0.116534 0.0170749 0.0074335 0.00625468 0.000280953 -0.000794006 -1.64543e-11 8.66086e-11 -1.1394e-10 5e-05 1.46608e-10 
187 1 0.1229 0.0174574 0.00716059 0.0062157 6.60858e-05 -0.000282676 2.56529e-10 -1.35153e-10 9.19722e-12 5e-05 1.46608e-10 
188 1 0.122885 0.0181439 0.00700597 0.0058087 0.000316767 -0.000328783 -2.09861e-10 4.00821e-11 3.89294e-11 5e-05 1.46608e-10 
189 1 0.122943 0.0176484 0.00711554 0.00569791 0.000216202 -0.000294318 -1.3731e-10 5.73071e-11 -6.77492e-12 5e-05 1.46608e-10 
190 1 0.110792 0.0177556 0.00713977 0.00581712 0.000808448 -0.000716993 -6.47133e-12 -3.61685e-12 1.73376e-12 5e-05 1.46608e-10 
191 1 0.122847 0.0184503 0.00696397 0.00552054 0.000391145 -0.000374251 -6.3351e-10 2.13011e-12 -1.56425e-10 5e-05 1.46608e-10 
192 1 0.116744 0.0168535 0.00762041 0.00612632 0.000182169 -0.000697814 6.06256e-11 -9.19305e-11 1.52492e-10 5e-05 1.46608e-10 
193 1 0.122661 0.0168069 0.00744138 0.00592702 0.000233595 2.70181e-05 -4.23874e-10 4.45522e-10 -2.65544e-10 5e-05 1.46608e-10 
194 1 0.116586 0.016619 0.00785129 0.00640333 0.000608681 -0.00111555 -4.20443e-11 2.95948e-10 -2.38753e-10 5e-05 1.46608e-10 
195 1 0.117037 0.0176803 0.00707972 0.00609404 0.000439192 0.000108213 -3.45507e-10 -6.25311e-11 -2.30232e-11 5e-05 1.46608e-10 
196 1 0.116084 0.0155232 0.00887828 0.00592993 0.000744946 -0.000198693 -2.28824e-10 -4.62636e-10 3.90466e-10 5e-05 1.46608e-10 
197 1 0.110692 0.0177225 0.00715896 0.00634767 0.000704107 -0.000718898 -3.12031e-12 -2.76156e-11 1.30108e-11 5e-05 1.46608e-10 
198 1 0.116569 0.0171007 0.00752364 0.00623378 0.000288596 -0.000803589 8.13632e-11 -2.75577e-11 -8.323e-11 5e-05 1.46608e-10 
199 1 0.11665 0.0171659 0.00733925 0.00631239 0.000254743 -0.000789242 6.3335e-11 1.11116e-10 -1.73795e-10 5e-05 1.46608e-10 
200 1 0.116433 0.0167201 0.00777103 0.006019 0.000289878 -0.000785151 -3.55581e-10 -7.56752e-11 -6.00751e-11 5e-05 1.46608e-10 
201 1 0.116907 0.0179092 0.0071115 0.00620478 0.000752914 -0.000745662 3.15674e-10 2.69741e-10 2.78378e-11 5e-05 1.46608e-10 
202 1 0.116765 0.0169245 0.00755292 0.00614615 0.000187772 -0.000703161 1.75288e-10 -9.06368e-11 1.52543e-11 5e-05 1.46608e-10 
203 1 0.122964 0.0177449 0.00709283 0.00574329 0.000305611 -0.000317214 -2.29518e-10 1.00347e-10 -1.03492e-11 5e-05 1.46608e-10 
204 1 0.116508 0.0166685 0.00781214 0.00597269 0.000245781 -0.000739671 -1.83442e-10 1.78233e-10 -1.91651e-10 5e-05 1.46608e-10 
205 1 0.11673 0.0174842 0.00711573 0.00595161 0.000980413 -5.1828e-05 -1.25908e-09 2.86533e-09 3.36569e-11 5e-05 1.46608e-10 
206 1 0.116767 0.0172589 0.00724304 0.00643078 0.000250933 -0.000787877 -1.98329e-10 -1.13513e-10 -7.70285e-11 5e-05 1.46608e-10 
207 1 0.116408 0.0163136 0.00814953 0.00571906 0.000330433 -0.000800711 2.00833e-10 5.55097e-10 -4.00283e-10 5e-05 1.46608e-10 
208 1 0.116728 0.0171162 0.00737859 0.00626068 0.000218468 -0.000742648 7.38969e-11 1.23835e-10 -1.20262e-10 5e-05 1.46608e-10 
209 1 0.116488 0.0165975 0.00787962 0.00590728 0.000264724 -0.000754628 4.56651e-10 8.27389e-11 -1.28765e-10 5e-05 1.46608e-10 
210 1 0.122721 0.0177153 0.00719373 0.00575242 0.000302484 -0.00030464 -7.34119e-11 2.21154e-11 -1.65036e-11 5e-05 1.46608e-10 
211 1 0.122864 0.0180481 0.00702851 0.00576049 0.00030479 -0.000319658 6.53677e-11 6.82337e-12 -6.46296e-12 5e-05 1.46608e-10 
212 1 0.116864 0.0172818 0.00721344 0.00572348 0.000438099 -0.000904454 -2.61595e-10 4.12792e-10 -4.40257e-10 5e-05 1.46608e-10 
213 1 0.122879 0.0173623 0.00718302 0.00620594 6.86317e-05 -0.000283485 3.80014e-10 -1.62291e-10 3.0756e-11 5e-05 1.46608e-10 
214 1 0.122843 0.0179462 0.00705249 0.00567866 0.000323005 -0.000319533 -6.12044e-11 -1.10552e-10 7.20206e-11 5e-05 1.46608e-10 
215 1 0.110748 0.0175703 0.00720913 0.00635894 0.000712078 -0.000722409 -1.80977e-13 -2.31498e-11 1.93934e-11 5e-05 1.46608e-10 
216 1 0.116616 0.0173733 0.00718086 0.00644811 0.000433686 -0.000628686 -2.26248e-10 -2.39469e-11 2.43573e-10 5e-05 1.46608e-10 
217 1 0.122614 0.0166388 0.00753943 0.00618125 0.000223025 3.85433e-05 -7.26709e-11 1.09751e-10 -1.11054e-10 5e-05 1.46608e-10 
218 1 0.116772 0.0177107 0.00718287 0.00620839 0.000544777 -0.000648749 4.63336e-11 5.81726e-10 7.33866e-10 5e-05 1.46608e-10 
219 1 0.122786 0.0181608 0.00700651 0.0058181 0.000292991 -0.000317146 -1.46911e-10 -1.31879e-10 -2.34211e-10 5e-05 1.46608e-10 
220 1 0.116575 0.0172192 0.00730116 0.00631724 0.0002438 -0.000824014 7.635e-11 3.4998e-10 1.96837e-10 5e-05 1.46608e-10 
221 1 0.110678 0.0173052 0.00734179 0.00635806 0.000956625 -0.000137893 -2.51507e-11 -3.83063e-11 3.7043e-11 5e-05 1.46608e-10 
222 1 0.122636 0.0167232 0.00749015 0.00575388 0.000292274 -1.17319e-05 1.12484e-10 1.93674e-10 -1.13663e-10 5e-05 1.46608e-10 
223 1 0.116667 0.0169032 0.00758104 0.00617299 0.000241889 -0.000764427 -1.72748e-10 4.35541e-10 8.41406e-11 5e-05 1.46608e-10 
224 1 0.116474 0.0168622 0.00763624 0.00610399 0.00027041 -0.000784899 2.79695e-10 1.35663e-10 -1.93647e-11 5e-05 1.46608e-10 
225 1 0.122865 0.0185419 0.00692813 0.0056802 0.000420789 -0.000212246 1.37025e-10 -1.00596e-10 7.15034e-12 5e-05 1.46608e-10 
226 1 0.116997 0.0174823 0.00712596 0.00595135 0.000526509 8.63635e-05 -1.24807e-10 2.91519e-10 1.63751e-10 5e-05 1.46608e-10 
227 1 0.110812 0.0178488 0.00710498 0.0058803 0.000825387 -0.000727684 5.62878e-11 5.50257e-11 -2.38357e-11 5e-05 1.46608e-10 
228 1 0.110648 0.0175396 0.00722738 0.00635668 0.000705909 -0.000718113 8.32029e-12 7.52384e-12 2.19371e-11 5e-05 1.46608e-10 
229 1 0.116662 0.0174157 0.00725898 0.0062908 0.00042268 -0.000514818 -1.54066e-10 -9.10182e-11 -5.12593e-10 5e-05 1.46608e-10 
230 1 0.116851 0.0180695 0.00714874 0.00611079 0.000715655 -0.000735041 3.02048e-10 -2.01951e-11 -1.11592e-11 5e-05 1.46608e-10 
231 1 0.110605 0.0173589 0.00730114 0.00635525 0.000950309 -0.000133485 3.4898e-12 1.15986e-12 1.10829e-11 5e-05 1.46608e-10 
232 1 0.116545 0.0164766 0.00798663 0.00607698 0.000431439 -0.00092483 -2.87502e-10 2.96769e-10 -2.79499e-10 5e-05 1.46608e-10 
233 1 0.116627 0.0167619 0.00771693 0.0070227 0.000383961 -0.000945524 -4.3473e-10 -4.30104e-10 -1.62721e-10 5e-05 1.46608e-10 
234 1 0.122925 0.0183364 0.00696663 0.00588747 0.000365757 -0.000212774 7.42953e-12 1.42724e-11 1.3032e-10 5e-05 1.46608e-10 
235 1 0.116812 0.0183239 0.00720077 0.00602612 0.000825316 -0.000704854 -1.07073e-10 -2.20955e-10 -7.62609e-12 5e-05 1.46608e-10 
236 1 0.116964 0.0182004 0.00715668 0.00610631 0.000621337 -0.000753907 -5.76918e-11 -2.47904e-10 -1.03376e-10 5e-05 1.46608e-10 
237 1 0.116889 0.0182634 0.00717876 0.00609172 0.000741028 -0.000729301 1.39624e-10 -2.72857e-10 -1.22089e-10 5e-05 1.46608e-10 
239 1 0.110412 0.0166158 0.00777083 0.00615957 0.000994194 -0.000177957 2.32728e-13 4.76581e-12 -2.06727e-12 5e-05 1.46608e-10 
240 1 0.110476 0.0168635 0.00761427 0.00622611 0.000982167 -0.000165012 1.15883e-11 1.3801e-11 3.65757e-13 5e-05 1.46608e-10 
241 1 0.110391 0.0165332 0.00782302 0.00613793 0.000999024 -0.000182681 4.50957e-12 6.2766e-12 -5.09093e-12 5e-05 1.46608e-10 
242 1 0.116606 0.0166901 0.00778364 0.00629043 0.000542741 -0.00104526 1.5008e-11 -3.31398e-10 2.74919e-11 5e-05 1.46608e-10 
243 1 0.116557 0.0171775 0.00746086 0.00627893 0.000310446 -0.000794117 6.44957e-11 9.35563e-11 -4.69205e-11 5e-05 1.46608e-10 
244 1 0.110433 0.0166984 0.00771864 0.00618116 0.00098941 -0.000173382 -1.13584e-12 5.78169e-12 -2.97611e-12 5e-05 1.46608e-10 
246 1 0.110562 0.0171938 0.00740551 0.00632138 0.000969213 -0.000147722 -1.42251e-10 3.28969e-11 -4.28052e-11 5e-05 1.46608e-10 
247 1 0.116737 0.0175812 0.00709258 0.00601522 0.000888503 -2.40618e-05 -1.19051e-09 1.38288e-10 -1.80298e-10 5e-05 1.46608e-10 