ITEM: TIMESTEP
37000000
ITEM: NUMBER OF ATOMS
275
ITEM: BOX BOUNDS ff ff ff
-0.02 0.43
-0.02 0.06
-0.02 0.07
ITEM: ATOMS id type x y z vx vy vz fx fy fz radius mass 
1 1 0.2291 0.0186825 0.00685382 0.00584484 0.000464187 0.000178668 5.23317e-10 2.68936e-10 -4.71293e-10 5e-05 1.46608e-10 
2 1 0.228757 0.0175402 0.00739929 0.0059481 0.000442864 0.000178478 -6.61643e-11 -2.43052e-10 9.18269e-11 5e-05 1.46608e-10 
4 1 0.228909 0.0174239 0.00745558 0.00593593 0.000158496 -0.000458184 -1.40365e-10 -1.66105e-11 1.07391e-11 5e-05 1.46608e-10 
5 1 0.228271 0.0155684 0.00846394 0.00562657 8.44857e-05 -0.000292905 6.32113e-11 -7.89954e-11 6.01961e-11 5e-05 1.46608e-10 
6 1 0.234675 0.017111 0.00734797 0.00616659 -0.00044 -0.000302238 -8.91844e-13 -2.06469e-12 5.70879e-13 5e-05 1.46608e-10 
7 1 0.229069 0.0180896 0.00711749 0.00579871 0.000401744 -0.000451236 -2.57071e-10 -3.29036e-10 -4.44417e-11 5e-05 1.46608e-10 
8 1 0.228745 0.0171333 0.00760918 0.00597485 9.85564e-05 -0.000427347 -2.11809e-10 2.14154e-10 -7.83588e-11 5e-05 1.46608e-10 
9 1 0.23488 0.0180283 0.00700634 0.00556771 -0.00029728 -0.000308384 1.83738e-11 2.05016e-11 -8.13509e-12 5e-05 1.46608e-10 
10 1 0.228388 0.0160633 0.0081557 0.0058518 0.000472937 0.000169197 3.92757e-11 -1.52691e-10 8.73583e-11 5e-05 1.46608e-10 
11 1 0.228942 0.0182102 0.00715516 0.00568427 0.000472925 0.000146553 -5.9799e-11 3.93617e-11 3.90342e-10 5e-05 1.46608e-10 
12 1 0.222964 0.017111 0.00741355 0.00626455 0.000486836 7.31332e-05 1.21948e-10 2.28468e-11 -6.35272e-13 5e-05 1.46608e-10 
13 1 0.228252 0.0155056 0.00853922 0.00562746 -8.38604e-05 -0.000424276 7.45194e-13 -3.34645e-11 8.50892e-11 5e-05 1.46608e-10 
14 1 0.222888 0.0176564 0.00714465 0.00599714 0.000240837 -0.000161029 -1.39084e-10 -1.49313e-10 -4.97678e-11 5e-05 1.46608e-10 
16 1 0.223161 0.0180785 0.0070064 0.00576979 0.000360429 -0.00027449 -1.73364e-10 -5.0347e-11 1.85514e-11 5e-05 1.46608e-10 
17 1 0.228368 0.0159763 0.00820037 0.00568379 0.000505673 0.000139867 5.42338e-11 -1.33802e-10 7.35151e-11 5e-05 1.46608e-10 
19 1 0.228236 0.0154708 0.00863157 0.00558684 -8.70735e-05 -0.000427705 2.67008e-11 -3.90432e-11 1.0289e-10 5e-05 1.46608e-10 
21 1 0.229104 0.0182652 0.00702874 0.00588446 0.000293627 -0.000538836 -3.57979e-10 -1.45838e-10 -9.14496e-10 5e-05 1.46608e-10 
22 1 0.228701 0.0169593 0.00769766 0.00592782 0.000109501 -0.000421595 1.12922e-10 1.42515e-10 -6.93437e-11 5e-05 1.46608e-10 
23 1 0.223121 0.0178845 0.00703584 0.00586299 0.000354907 -0.000277193 -6.08486e-11 3.13496e-11 1.21217e-11 5e-05 1.46608e-10 
24 1 0.234801 0.0176608 0.007143 0.00566028 -0.000319967 -0.000307286 1.25554e-10 3.33703e-11 -2.07898e-11 5e-05 1.46608e-10 
25 1 0.228432 0.0162371 0.00806671 0.00594257 0.000438383 0.000194083 -3.49512e-11 -1.26377e-10 6.3661e-11 5e-05 1.46608e-10 
26 1 0.234841 0.0178445 0.00707467 0.00571909 -0.000330316 -0.000308005 -8.99367e-11 -3.13769e-11 1.7122e-11 5e-05 1.46608e-10 
27 1 0.222733 0.016996 0.00749454 0.00619911 0.000436661 0.000112672 -2.21962e-10 -1.54005e-10 1.19769e-10 5e-05 1.46608e-10 
28 1 0.228831 0.0174815 0.00743231 0.00597296 0.000118015 -0.000550718 -1.18096e-10 -9.26414e-11 -3.57839e-11 5e-05 1.46608e-10 
29 1 0.228216 0.0154358 0.00872323 0.00552806 -7.84452e-05 -0.000433474 -1.66185e-11 -3.67894e-11 1.02607e-10 5e-05 1.46608e-10 
30 1 0.22852 0.0165843 0.00788898 0.00594451 0.000420068 0.000204071 5.80832e-11 7.74494e-11 -3.4316e-11 5e-05 1.46608e-10 
31 1 0.229149 0.0180343 0.00713965 0.00590372 0.000469443 -0.000584028 6.31918e-11 1.51691e-10 3.93084e-11 5e-05 1.46608e-10 
32 1 0.228453 0.016324 0.00802217 0.00594097 0.000429622 0.000198732 -1.44293e-11 -7.1537e-11 3.79091e-11 5e-05 1.46608e-10 
33 1 0.234697 0.0172025 0.00731381 0.00615594 -0.00043648 -0.000302662 -1.54687e-12 -4.97424e-12 2.32776e-12 5e-05 1.46608e-10 
34 1 0.228348 0.0158891 0.00824517 0.00560915 0.000519136 0.000127102 -7.69758e-12 -9.75466e-11 5.01758e-11 5e-05 1.46608e-10 
35 1 0.229031 0.0179137 0.00720656 0.0059826 0.000374962 -0.000566901 1.97192e-10 -1.36077e-10 1.47002e-10 5e-05 1.46608e-10 
36 1 0.234937 0.0183107 0.00692532 0.00564698 -0.000206482 4.96686e-05 2.7803e-12 1.03611e-11 -1.51495e-12 5e-05 1.46608e-10 
37 1 0.228888 0.0173368 0.00749987 0.00590151 0.000180563 -0.000452777 -3.03895e-10 1.00813e-10 -3.35151e-10 5e-05 1.46608e-10 
38 1 0.228973 0.017687 0.00732192 0.0058157 0.000653207 -0.000678455 -5.32508e-10 4.48607e-10 -2.44399e-10 5e-05 1.46608e-10 
39 1 0.234821 0.0177526 0.00710884 0.00568536 -0.000327915 -0.000306282 7.00046e-11 -8.40336e-12 -3.03285e-12 5e-05 1.46608e-10 
41 1 0.22831 0.0157145 0.00833504 0.00567388 0.000507598 0.000140887 -1.17529e-11 -8.33802e-11 3.90442e-11 5e-05 1.46608e-10 
42 1 0.229026 0.0174808 0.00742021 0.00600206 0.000254722 -0.000506919 -3.99724e-10 -2.57492e-12 4.69757e-11 5e-05 1.46608e-10 
44 1 0.229049 0.0177433 0.00728939 0.00625496 0.000232199 -0.000509534 9.99416e-12 1.02464e-10 7.22574e-12 5e-05 1.46608e-10 
45 1 0.234719 0.0172939 0.00727965 0.00614651 -0.000432748 -0.000303295 1.31374e-12 -9.88263e-12 2.69863e-12 5e-05 1.46608e-10 
47 1 0.228329 0.0158018 0.00829013 0.00564068 0.00051356 0.000131076 -6.39792e-11 -7.47091e-11 4.33076e-11 5e-05 1.46608e-10 
48 1 0.228968 0.0184654 0.00692392 0.00564348 0.000491643 0.000138978 1.28873e-10 5.45573e-10 4.23856e-11 5e-05 1.46608e-10 
49 1 0.234899 0.0181204 0.00697217 0.00556213 -0.000296252 -0.000308322 -7.84232e-13 1.35109e-11 -7.28303e-12 5e-05 1.46608e-10 
50 1 0.228475 0.0164108 0.00797773 0.0059415 0.000422101 0.000202708 -8.1798e-12 -2.82315e-13 -1.73685e-12 5e-05 1.46608e-10 
51 1 0.229167 0.0181221 0.00709524 0.00577368 0.000475835 -0.000594739 -5.95401e-10 5.40722e-10 -1.53222e-10 5e-05 1.46608e-10 
52 1 0.222997 0.017338 0.00722307 0.00592408 0.00047518 6.73139e-05 -2.05733e-10 1.02987e-10 -1.16305e-10 5e-05 1.46608e-10 
53 1 0.234761 0.017477 0.00721134 0.00558381 -0.000304754 -0.000306933 3.40822e-11 -3.36973e-11 1.0165e-11 5e-05 1.46608e-10 
54 1 0.229312 0.0183477 0.00697493 0.00606363 0.00033071 -0.000547123 9.17448e-11 -6.71054e-11 3.58725e-12 5e-05 1.46608e-10 
55 1 0.222898 0.0173433 0.00720811 0.00574315 0.00049944 3.24586e-05 -7.47472e-12 1.996e-10 -2.35594e-10 5e-05 1.46608e-10 
56 1 0.229293 0.0182572 0.00702078 0.00607625 0.0004268 -0.000593446 -6.03754e-10 5.41617e-10 -8.42851e-11 5e-05 1.46608e-10 
57 1 0.23474 0.0173854 0.0072455 0.00613612 -0.000429668 -0.000303598 -3.45368e-12 -1.73064e-11 5.83605e-12 5e-05 1.46608e-10 
59 1 0.378022 0.019866 0.005332 -5.01951e-15 -7.41181e-15 7.69803e-14 4.1876e-24 -2.71419e-24 0 5e-05 1.46608e-10 
60 1 0.22907 0.0178303 0.00724514 0.00581036 0.000312593 -0.000523285 -3.16383e-11 -1.31363e-10 3.54175e-11 5e-05 1.46608e-10 
61 1 0.228291 0.0156336 0.0083907 0.00567918 0.00039133 -1.53597e-05 7.55551e-11 -1.07597e-10 3.58825e-11 5e-05 1.46608e-10 
62 1 0.228971 0.0178013 0.00726571 0.00621672 0.000195969 -0.00049007 -2.01763e-10 -2.25402e-10 -1.77814e-11 5e-05 1.46608e-10 
63 1 0.228986 0.018557 0.00688819 0.00572812 0.000478142 0.000127504 8.72374e-11 5.20683e-10 -6.77321e-10 5e-05 1.46608e-10 
64 1 0.234781 0.0175689 0.00717717 0.00562111 -0.000310265 -0.000307861 -1.78153e-10 1.68472e-11 8.49063e-12 5e-05 1.46608e-10 
65 1 0.222857 0.0175054 0.00710131 0.00589492 0.000404535 -4.3855e-05 1.49485e-10 1.27806e-10 5.5284e-11 5e-05 1.46608e-10 
66 1 0.222932 0.0178309 0.00715195 0.0056579 0.000205886 -0.000261073 2.34403e-11 -4.8036e-11 7.69509e-11 5e-05 1.46608e-10 
67 1 0.229122 0.0183537 0.00698564 0.00595955 0.000429654 -0.0003877 1.69501e-10 -1.94052e-10 -1.20422e-09 5e-05 1.46608e-10 
68 1 0.228895 0.017745 0.00729823 0.00576937 0.000646521 -0.000633881 -4.32789e-11 5.55946e-10 3.35648e-10 5e-05 1.46608e-10 
69 1 0.229202 0.018298 0.00700638 0.00591569 0.000185011 -0.000462806 -4.67214e-10 2.9637e-10 -2.07864e-10 5e-05 1.46608e-10 
70 1 0.23486 0.0179364 0.00704051 0.00575245 -0.000336032 -0.000308385 1.31795e-11 -3.85062e-12 -1.04806e-12 5e-05 1.46608e-10 
71 1 0.223255 0.0181097 0.00699825 0.00576429 0.000384621 -0.000277789 2.39513e-12 -8.09406e-11 2.3504e-12 5e-05 1.46608e-10 
72 1 0.229157 0.0185296 0.00689732 0.00587862 0.00028219 -0.000277097 -1.82618e-11 1.33187e-10 -8.03334e-10 5e-05 1.46608e-10 
73 1 0.22841 0.0161503 0.00811116 0.00593749 0.000449426 0.000187896 -1.83044e-11 -1.48446e-10 7.65031e-11 5e-05 1.46608e-10 
74 1 0.228496 0.0164981 0.00793383 0.00594121 0.000419562 0.000204076 2.74369e-11 5.14901e-11 -3.52077e-11 5e-05 1.46608e-10 
76 1 0.222864 0.0171154 0.00740197 0.00626364 0.000455827 9.91278e-05 6.34836e-12 1.47891e-11 4.56958e-12 5e-05 1.46608e-10 
77 1 0.228779 0.017627 0.00735479 0.00595156 0.000449944 0.000186231 -9.12874e-11 -1.91907e-10 7.11643e-11 5e-05 1.46608e-10 
78 1 0.222216 0.0155523 0.0088543 0.00529493 -0.00017573 -0.000602094 1.07572e-10 1.06672e-10 -1.33408e-10 5e-05 1.46608e-10 
79 1 0.223205 0.0183855 0.00696046 0.00562795 0.000314711 -0.000258722 9.73282e-11 5.37257e-11 -3.8136e-11 5e-05 1.46608e-10 
80 1 0.228853 0.0175689 0.00738867 0.00599321 0.000243123 -0.000309842 -2.43329e-10 -2.97937e-11 2.62454e-10 5e-05 1.46608e-10 
82 1 0.223006 0.0179134 0.0071187 0.00550528 0.000193184 -0.000229325 5.37436e-11 -1.00964e-10 -4.40271e-11 5e-05 1.46608e-10 
83 1 0.222986 0.0171858 0.00735083 0.00620139 0.000491337 6.39481e-05 2.49339e-10 9.18061e-11 -5.17879e-11 5e-05 1.46608e-10 
84 1 0.234918 0.0182144 0.00694393 0.00562148 -0.000201261 4.874e-05 2.09103e-12 8.65382e-12 -1.76619e-12 5e-05 1.46608e-10 
85 1 0.223359 0.018259 0.00697272 0.00573695 0.000383932 -0.000280238 -9.86822e-11 -3.558e-11 6.67507e-11 5e-05 1.46608e-10 
86 1 0.229069 0.0176549 0.00733168 0.00620303 0.00022154 -0.000497903 9.11955e-11 6.02677e-11 -1.08938e-10 5e-05 1.46608e-10 
87 1 0.228809 0.0173944 0.00747638 0.00592684 0.000196883 -0.000345445 1.05732e-09 -4.50447e-11 8.37072e-11 5e-05 1.46608e-10 
88 1 0.228973 0.01806 0.00713809 0.00572393 0.000266656 -0.000505941 2.63106e-10 2.8077e-10 4.08883e-10 5e-05 1.46608e-10 
89 1 0.228987 0.01805 0.00723654 0.00638581 0.000180362 -0.000636809 -2.20343e-10 -7.6299e-10 1.62492e-09 5e-05 1.46608e-10 
90 1 0.229141 0.0184416 0.00694158 0.0059148 0.000348048 -0.000110976 -2.21716e-10 -5.17324e-10 -3.89651e-10 5e-05 1.46608e-10 
91 1 0.222946 0.0170358 0.00747695 0.0062772 0.000484767 7.61645e-05 1.19196e-10 -2.87021e-11 5.3638e-11 5e-05 1.46608e-10 
92 1 0.228897 0.0181156 0.00710424 0.0056035 0.000499575 0.000166233 5.50264e-10 2.39899e-10 -2.8594e-10 5e-05 1.46608e-10 
93 1 0.228584 0.016845 0.00775538 0.00595244 0.000435157 0.000196394 3.7504e-11 7.49955e-11 -3.4332e-11 5e-05 1.46608e-10 
94 1 0.228978 0.0183384 0.00708944 0.00553964 0.000643285 0.000134977 -4.75453e-10 -2.80951e-10 -1.43475e-10 5e-05 1.46608e-10 
95 1 0.228874 0.0179253 0.00729856 0.00628748 0.000392994 0.000119154 1.03842e-11 2.0398e-10 -2.33559e-10 5e-05 1.46608e-10 
96 1 0.228878 0.0180342 0.00715943 0.00580614 0.000493664 0.000206401 6.92872e-11 3.56077e-10 -4.48668e-10 5e-05 1.46608e-10 
97 1 0.222315 0.0158533 0.00846778 0.00570907 -8.70989e-05 -0.00038132 -8.11506e-11 1.3308e-10 -6.54053e-11 5e-05 1.46608e-10 
98 1 0.228562 0.0167583 0.00779976 0.00594481 0.00042982 0.000198702 5.30824e-11 6.83322e-11 -3.41845e-11 5e-05 1.46608e-10 
99 1 0.222888 0.0180722 0.00701783 0.00559927 -1.86911e-05 -0.000212347 4.4656e-11 1.06723e-10 -1.92115e-11 5e-05 1.46608e-10 
100 1 0.229087 0.0181774 0.00707309 0.00558068 0.000384654 -0.000365132 -1.20486e-10 -1.06908e-10 -6.57595e-10 5e-05 1.46608e-10 
101 1 0.222908 0.0181693 0.00700309 0.00566142 0.00018821 -0.000245407 1.58481e-11 -9.5789e-11 1.01698e-11 5e-05 1.46608e-10 
102 1 0.0643568 0.0187248 0.00531097 4.32983e-15 1.04586e-14 8.29616e-14 -2.65624e-21 4.37268e-22 7.63074e-23 5e-05 1.46608e-10 
103 1 0.24257 0.0191927 0.00520306 -1.01195e-22 -1.27651e-22 1.23839e-22 0 0 0 5e-05 1.46608e-10 
104 1 0.22318 0.0181754 0.00699168 0.00574635 0.000358468 -0.000273473 -7.87729e-11 -4.51993e-11 2.29939e-12 5e-05 1.46608e-10 
105 1 0.222276 0.0157301 0.00862031 0.00559828 -0.000248742 -0.000561673 3.73414e-10 1.19573e-10 -3.16746e-10 5e-05 1.46608e-10 
106 1 0.222906 0.0177199 0.00706944 0.00598066 0.000122622 -0.000256014 -7.61963e-11 7.29901e-11 2.48011e-11 5e-05 1.46608e-10 
107 1 0.222236 0.0156116 0.00877627 0.00539596 -0.000200479 -0.000584204 -4.49123e-10 1.70839e-10 -1.26807e-10 5e-05 1.46608e-10 
108 1 0.229221 0.0183857 0.006962 0.00598311 0.000193135 -0.000545982 -1.24708e-10 3.48808e-10 5.26544e-10 5e-05 1.46608e-10 
109 1 0.229165 0.0178581 0.00722552 0.00579351 0.000409535 -0.000574005 -1.18915e-10 -3.05891e-10 -4.57541e-11 5e-05 1.46608e-10 
110 1 0.228735 0.0174533 0.00744378 0.00594814 0.000450695 0.000168489 7.17562e-11 -2.66162e-10 2.71368e-10 5e-05 1.46608e-10 
111 1 0.228692 0.0172795 0.00753277 0.00598802 0.000473075 0.000185322 -2.03753e-11 2.83351e-11 -5.61832e-11 5e-05 1.46608e-10 
112 1 0.222356 0.0159924 0.00833014 0.00579957 0.00040658 0.000114745 -3.48603e-10 -6.44656e-11 -6.64243e-12 5e-05 1.46608e-10 
113 1 0.222783 0.0175718 0.00709411 0.00590641 0.000378557 -0.000133036 6.55537e-12 -5.79533e-11 1.749e-10 5e-05 1.46608e-10 
114 1 0.222848 0.0178785 0.00704728 0.00554792 -4.14637e-06 -0.000214228 -4.55693e-12 -3.70919e-11 -1.81661e-12 5e-05 1.46608e-10 
115 1 0.229048 0.0175677 0.00737598 0.00607918 0.000240542 -0.000508368 1.14725e-10 -7.48079e-11 8.9093e-11 5e-05 1.46608e-10 
116 1 0.229045 0.0184108 0.00695838 0.00575703 0.000457895 0.000168987 -5.2281e-10 -9.02654e-11 3.60358e-11 5e-05 1.46608e-10 
117 1 0.229051 0.0180032 0.00716472 0.00583612 0.000319593 -0.000700226 3.34078e-10 -6.89602e-11 6.45016e-10 5e-05 1.46608e-10 
118 1 0.22296 0.0174902 0.00710155 0.00578299 0.000211789 -0.000246876 -6.90706e-11 3.35486e-10 9.59181e-11 5e-05 1.46608e-10 
119 1 0.229238 0.0184736 0.00691758 0.00592002 0.000251337 -0.000540133 -2.6573e-10 4.94258e-11 -2.30487e-11 5e-05 1.46608e-10 
120 1 0.228723 0.0170463 0.00765342 0.00591244 0.000113051 -0.000423729 -2.59228e-10 2.65558e-10 -8.22114e-11 5e-05 1.46608e-10 
121 1 0.229119 0.0187807 0.00685113 0.00571616 0.000506494 0.000401473 3.29495e-10 2.07566e-10 1.13765e-10 5e-05 1.46608e-10 
122 1 0.228858 0.0179424 0.00719325 0.0059953 0.000441124 0.000215261 3.65344e-10 5.18271e-10 -2.32843e-10 5e-05 1.46608e-10 
123 1 0.223275 0.0182068 0.0069835 0.00573068 0.000399182 -0.000279034 -5.18058e-11 -1.31938e-10 1.36984e-11 5e-05 1.46608e-10 
124 1 0.228605 0.0169321 0.00771072 0.0059551 0.000440188 0.00019172 1.15173e-11 7.51941e-11 -4.77475e-11 5e-05 1.46608e-10 
125 1 0.228954 0.0179726 0.00718268 0.0059432 0.00042747 -0.000284739 -1.30907e-10 -6.25589e-10 -4.30581e-10 5e-05 1.46608e-10 
127 1 0.222295 0.0157897 0.00854218 0.00560335 -0.000245501 -0.000549442 5.7417e-12 1.85527e-10 -1.5258e-10 5e-05 1.46608e-10 
128 1 0.22854 0.0166715 0.0078442 0.00594458 0.000423002 0.000202081 4.94726e-11 7.82218e-11 -4.15707e-11 5e-05 1.46608e-10 
129 1 0.228925 0.0181223 0.00720003 0.00646387 0.000207249 -2.89259e-05 1.71639e-10 1.47002e-10 -5.06031e-10 5e-05 1.46608e-10 
130 1 0.222946 0.0179134 0.00703845 0.00554381 0.000201958 -0.000245428 5.33703e-12 6.48962e-11 -2.85004e-12 5e-05 1.46608e-10 
131 1 0.222966 0.0180103 0.00702373 0.00559593 0.000185903 -0.000243025 9.76036e-11 5.26352e-11 -1.11686e-11 5e-05 1.46608e-10 
132 1 0.228931 0.017511 0.00741126 0.00598236 0.000188441 -0.000472158 -1.42452e-10 1.64278e-10 -5.61295e-11 5e-05 1.46608e-10 
133 1 0.229063 0.0184981 0.00691338 0.00581898 0.000479942 0.000182604 -2.97025e-10 -2.25719e-12 -2.16441e-10 5e-05 1.46608e-10 
134 1 0.229027 0.0183232 0.00700353 0.00564484 0.000386603 0.000204335 -1.11878e-10 1.50916e-10 -9.97324e-11 5e-05 1.46608e-10 
135 1 0.229185 0.01821 0.00705082 0.00595691 0.000344613 -0.000534998 -1.29111e-10 3.02004e-11 2.63567e-10 5e-05 1.46608e-10 
136 1 0.222902 0.0172672 0.007274 0.00619594 0.00117909 -0.000531395 -5.42308e-11 -3.0628e-10 3.43618e-10 5e-05 1.46608e-10 
137 1 0.228876 0.0180166 0.00725783 0.00604515 0.000443317 0.000209239 2.78995e-10 5.75334e-12 -4.99135e-10 5e-05 1.46608e-10 
138 1 0.228933 0.0182904 0.00701417 0.00566222 0.000482775 0.000153172 2.8021e-10 6.12727e-11 -6.02921e-12 5e-05 1.46608e-10 
140 1 0.228801 0.0177139 0.00731029 0.00596582 0.000443294 0.000193045 -1.51873e-10 -3.48492e-10 -1.41836e-11 5e-05 1.46608e-10 
141 1 0.222737 0.0166665 0.00777887 0.0060697 0.000419196 0.000116721 9.51843e-11 -2.16881e-11 2.42342e-11 5e-05 1.46608e-10 
142 1 0.223102 0.0177876 0.00705056 0.00597211 0.000337512 -0.000277653 1.34142e-11 5.68019e-11 -4.85152e-11 5e-05 1.46608e-10 
143 1 0.222255 0.015671 0.00869823 0.00551339 -0.000220388 -0.000578474 -3.32653e-10 1.97837e-10 -2.52492e-10 5e-05 1.46608e-10 
144 1 0.223078 0.0176491 0.00707144 0.00605413 0.000251351 -0.000266139 1.49541e-10 1.98996e-10 9.47314e-11 5e-05 1.46608e-10 
146 1 0.222399 0.0161421 0.00820444 0.00586837 0.0004119 0.000113229 -4.47092e-11 -3.12347e-12 -8.09119e-11 5e-05 1.46608e-10 
147 1 0.222926 0.0178165 0.00705318 0.00568042 0.000182598 -0.00025295 9.01327e-11 5.03709e-11 -9.3929e-12 5e-05 1.46608e-10 
148 1 0.222757 0.0167414 0.00771593 0.00608411 0.000422883 0.000113667 7.31819e-11 5.36844e-11 -3.74918e-11 5e-05 1.46608e-10 
149 1 0.228649 0.0171071 0.00762429 0.00598241 0.000450736 0.000179468 -1.62841e-10 1.02365e-10 -7.15405e-11 5e-05 1.46608e-10 
150 1 0.223222 0.0184868 0.00695405 0.00561121 0.000310375 9.84193e-05 1.12658e-10 -5.5073e-11 -1.20036e-11 5e-05 1.46608e-10 
151 1 0.223044 0.0183981 0.00696484 0.00559068 0.000204878 -0.000254253 -8.62907e-11 6.98942e-11 5.19115e-11 5e-05 1.46608e-10 
153 1 0.222779 0.0168163 0.00765309 0.00612888 0.000427603 0.000113316 1.64648e-11 1.09551e-10 -9.06824e-11 5e-05 1.46608e-10 
154 1 0.222378 0.0160672 0.00826734 0.00586247 0.000403896 0.000119216 -1.5878e-10 1.99777e-11 -4.48043e-11 5e-05 1.46608e-10 
155 1 0.222421 0.0162168 0.00814177 0.00586988 0.000411459 0.000112815 1.03506e-10 2.00879e-11 2.65214e-11 5e-05 1.46608e-10 
156 1 0.222715 0.0165918 0.00784159 0.00607904 0.000412891 0.000122821 4.38966e-11 -7.67239e-11 7.63876e-11 5e-05 1.46608e-10 
157 1 0.0219312 0.0187687 0.00551176 -3.84119e-14 8.16587e-14 2.9588e-13 -2.01263e-22 -5.1797e-22 1.04845e-22 5e-05 1.46608e-10 
158 1 0.222823 0.0169657 0.00752771 0.00620467 0.000458915 9.39081e-05 1.54372e-10 1.15224e-10 -5.40893e-11 5e-05 1.46608e-10 
159 1 0.228953 0.0175985 0.00736674 0.0060741 0.000257311 -0.00049683 2.76985e-10 6.33158e-11 2.00033e-10 5e-05 1.46608e-10 
160 1 0.222927 0.0182662 0.00698835 0.00567076 0.00016606 -0.00024261 -2.95478e-11 -3.4932e-10 7.02725e-11 5e-05 1.46608e-10 
162 1 0.222911 0.0180292 0.00710503 0.00558012 -2.55886e-05 -0.000210072 9.19519e-11 2.10982e-10 2.52845e-11 5e-05 1.46608e-10 
164 1 0.222484 0.0164413 0.00795315 0.00598934 0.000420268 0.000112868 6.69414e-11 1.49027e-12 -1.9883e-11 5e-05 1.46608e-10 
165 1 0.223129 0.0184506 0.00695669 0.00557727 0.000265109 -0.000172177 8.20866e-12 -3.34419e-11 -9.03727e-11 5e-05 1.46608e-10 
166 1 0.228951 0.0183779 0.00696906 0.00573315 0.000463262 0.000150021 9.42993e-11 1.85284e-10 1.82273e-10 5e-05 1.46608e-10 
167 1 0.223014 0.0186978 0.00694518 0.00557934 0.000251197 9.82683e-05 2.48057e-11 5.57585e-11 4.26846e-12 5e-05 1.46608e-10 
168 1 0.223299 0.0184229 0.00695699 0.00565998 0.000379736 9.64801e-05 2.92699e-12 -1.64754e-10 -2.49067e-11 5e-05 1.46608e-10 
169 1 0.223144 0.0185493 0.00695112 0.00559449 0.00027866 9.73826e-05 1.50837e-10 3.34885e-11 -9.44563e-12 5e-05 1.46608e-10 
170 1 0.22309 0.018633 0.00694812 0.00558774 0.000267597 9.78187e-05 5.75227e-11 4.26278e-11 -4.74838e-12 5e-05 1.46608e-10 
171 1 0.229177 0.0186178 0.00685038 0.00585443 0.000510616 -0.000625068 3.89404e-10 -7.60306e-11 -8.63536e-11 5e-05 1.46608e-10 
172 1 0.222762 0.017475 0.00710869 0.00592615 0.000392884 -0.000278581 -3.83143e-11 5.2648e-11 -4.33294e-11 5e-05 1.46608e-10 
173 1 0.229078 0.0184934 0.00701221 0.0058197 0.000434904 0.000175027 1.89759e-10 -6.91848e-12 -4.46531e-10 5e-05 1.46608e-10 
174 1 0.222526 0.016591 0.00782739 0.00605235 0.000437729 0.000101992 1.03755e-10 1.73013e-10 -1.48716e-10 5e-05 1.46608e-10 
176 1 0.222809 0.0173743 0.00717455 0.00576432 0.000547265 -2.22578e-05 1.49489e-11 2.42307e-10 -1.37043e-10 5e-05 1.46608e-10 
177 1 0.22252 0.0162468 0.00812367 0.00589354 0.000408643 0.000111311 -2.93803e-10 7.93955e-11 -7.5465e-11 5e-05 1.46608e-10 
178 1 0.222821 0.0177362 0.00715082 0.00597301 0.000136161 -9.81594e-05 -2.33913e-11 6.2914e-11 -1.00932e-10 5e-05 1.46608e-10 
179 1 0.222947 0.0183632 0.00697363 0.00553933 0.000208354 -0.000243419 -3.26272e-11 -3.02746e-10 5.2183e-11 5e-05 1.46608e-10 
182 1 0.229194 0.0187157 0.00684046 0.00573294 0.000585102 0.000115336 -3.02152e-10 -4.18983e-10 -7.10961e-11 5e-05 1.46608e-10 
183 1 0.222828 0.0177817 0.00706201 0.00583631 -6.08956e-05 -0.000214555 -4.37912e-11 1.10262e-10 -1.31922e-10 5e-05 1.46608e-10 
184 1 0.228983 0.0184562 0.00702242 0.00576253 0.000422791 0.000128026 4.29737e-10 8.05427e-10 3.17851e-10 5e-05 1.46608e-10 
185 1 0.22301 0.0177491 0.00705966 0.00601687 0.000237949 -0.000270817 -1.13133e-10 1.22825e-10 -6.38326e-11 5e-05 1.46608e-10 
186 1 0.22335 0.0181411 0.00699008 0.00575086 0.000421379 -0.000282777 4.7739e-11 -2.18347e-11 6.11863e-12 5e-05 1.46608e-10 
187 1 0.22908 0.0185857 0.00686818 0.00580106 0.000464001 0.000172144 1.66747e-10 4.1302e-10 -4.82776e-10 5e-05 1.46608e-10 
188 1 0.228932 0.0178851 0.00722698 0.00615913 0.000202829 -0.000494987 -2.23661e-10 -1.87511e-10 7.83867e-11 5e-05 1.46608e-10 
189 1 0.229044 0.0188454 0.00685981 0.00569408 0.000428659 0.000505191 -5.18531e-11 -3.29152e-10 -2.20908e-10 5e-05 1.46608e-10 
190 1 0.216937 0.0183166 0.00695841 0.00552127 3.70509e-05 0.000182902 -5.97724e-10 -1.89405e-10 1.64829e-10 5e-05 1.46608e-10 
191 1 0.228671 0.0171926 0.00757732 0.00599227 0.00046154 0.00018557 -2.08379e-10 9.1336e-11 -9.57522e-11 5e-05 1.46608e-10 
192 1 0.222804 0.0176685 0.00707923 0.00591417 0.000345168 -0.000271111 6.2359e-11 -1.34894e-10 9.51573e-11 5e-05 1.46608e-10 
193 1 0.229257 0.0185613 0.00687322 0.00581006 0.000386827 -0.000414722 1.94383e-10 -1.65735e-10 -4.37178e-10 5e-05 1.46608e-10 
194 1 0.223026 0.0180103 0.00710397 0.00559824 0.000144418 -0.00023532 -7.16208e-11 -1.21022e-10 3.34669e-11 5e-05 1.46608e-10 
195 1 0.2231 0.0182353 0.00698614 0.0055262 5.36467e-05 -0.000219941 7.09303e-11 -7.67476e-11 1.61016e-11 5e-05 1.46608e-10 
196 1 0.223061 0.0180413 0.0070156 0.00560599 0.00013065 -0.000235427 1.4827e-10 -1.75446e-10 4.38325e-11 5e-05 1.46608e-10 
197 1 0.216621 0.0169545 0.00759944 0.00595105 -0.000364712 -0.000126516 -1.83113e-10 -2.25926e-10 2.09061e-10 5e-05 1.46608e-10 
198 1 0.223001 0.0172612 0.00728696 0.00607948 0.000490519 5.74908e-05 7.27019e-11 1.29031e-10 -7.20527e-11 5e-05 1.46608e-10 
199 1 0.222848 0.0178852 0.00714705 0.00556912 -2.83589e-05 -0.000213587 -1.23908e-10 1.14454e-10 -3.78664e-11 5e-05 1.46608e-10 
200 1 0.222337 0.0159217 0.00839817 0.00573971 0.000250987 -4.71104e-05 -2.90188e-10 -5.91204e-11 -1.64382e-10 5e-05 1.46608e-10 
201 1 0.22312 0.0183333 0.00697125 0.00564744 0.000286465 -0.000265553 -2.84759e-12 6.60367e-11 -5.1346e-11 5e-05 1.46608e-10 
202 1 0.222846 0.0170402 0.00746537 0.00628083 0.000459125 0.000100764 1.29661e-10 -6.21342e-11 6.19454e-11 5e-05 1.46608e-10 
203 1 0.229009 0.0182355 0.00704877 0.00561414 0.000456449 0.000154869 3.51087e-10 -2.29179e-10 2.2055e-10 5e-05 1.46608e-10 
204 1 0.223141 0.0179815 0.00702112 0.00579402 0.000361904 -0.000275845 -1.08858e-10 -4.92788e-11 -1.16627e-13 5e-05 1.46608e-10 
205 1 0.222668 0.0167716 0.00768289 0.00608985 0.000432441 0.000106173 7.62e-11 5.46286e-11 -4.56428e-11 5e-05 1.46608e-10 
206 1 0.222712 0.0169212 0.00755737 0.00618391 0.000440365 0.000104397 -1.55295e-10 -5.89958e-11 4.52841e-11 5e-05 1.46608e-10 
207 1 0.222584 0.0164714 0.0079351 0.00598336 0.000386321 0.000135667 -7.55235e-11 7.05174e-11 -4.72219e-11 5e-05 1.46608e-10 
208 1 0.22299 0.017412 0.00715611 0.0058347 0.000451936 7.07597e-05 -1.94085e-10 1.6444e-10 -2.98554e-11 5e-05 1.46608e-10 
209 1 0.222891 0.0174202 0.00714128 0.00586264 0.000460407 7.483e-05 1.09011e-10 1.81476e-10 -1.27704e-10 5e-05 1.46608e-10 
210 1 0.228766 0.0172204 0.00756487 0.00598882 0.000128647 -0.000445566 -4.21754e-11 2.92661e-10 1.84471e-11 5e-05 1.46608e-10 
211 1 0.228788 0.0173074 0.00752062 0.00600008 0.000135769 -0.000452794 2.16645e-10 -7.13329e-11 -1.54437e-10 5e-05 1.46608e-10 
212 1 0.223199 0.0182724 0.00697696 0.00569377 0.000358819 -0.000273388 1.64286e-11 -3.9031e-11 -4.24933e-12 5e-05 1.46608e-10 
213 1 0.229023 0.0187446 0.00683933 0.00575278 0.000436784 0.000380292 -5.5348e-11 -3.24667e-10 -1.48078e-10 5e-05 1.46608e-10 
214 1 0.228875 0.0176568 0.00734422 0.00603248 0.000341158 -0.000144135 -3.88332e-11 -1.29905e-10 -4.5864e-11 5e-05 1.46608e-10 
215 1 0.216839 0.0178368 0.00704669 0.0055891 -2.12164e-05 0.000213214 -2.58727e-13 2.22336e-11 9.10988e-12 5e-05 1.46608e-10 
216 1 0.222561 0.0163965 0.00799786 0.00596715 0.000396064 0.000129964 4.40043e-11 -1.54886e-10 1.3366e-10 5e-05 1.46608e-10 
217 1 0.229272 0.0186523 0.00683472 0.00575047 0.000584162 -7.78977e-05 1.68961e-10 3.56057e-11 6.71812e-11 5e-05 1.46608e-10 
218 1 0.222868 0.0179753 0.00703255 0.00559039 -9.22905e-06 -0.000214863 1.10595e-10 6.77272e-11 -3.53321e-11 5e-05 1.46608e-10 
219 1 0.228627 0.017019 0.00766622 0.00595935 0.000446243 0.000183861 4.13826e-12 9.11752e-11 -5.46027e-11 5e-05 1.46608e-10 
220 1 0.222986 0.0181072 0.00700901 0.00564306 0.000173731 -0.000241918 1.45269e-10 -5.00009e-11 -5.94401e-12 5e-05 1.46608e-10 
222 1 0.229127 0.017942 0.00718655 0.00584031 0.000415961 -0.000598482 4.54671e-10 -5.16267e-10 4.78085e-10 5e-05 1.46608e-10 
224 1 0.222757 0.0170705 0.00743219 0.00624057 0.000409399 0.00014038 9.07598e-11 -1.35498e-10 8.86167e-11 5e-05 1.46608e-10 
225 1 0.228714 0.0173664 0.00748828 0.00597511 0.000464962 0.000177372 -3.64323e-11 -1.53195e-10 9.5366e-11 5e-05 1.46608e-10 
226 1 0.222951 0.0177329 0.00715782 0.00595256 0.000265882 -0.000392687 -7.60733e-11 -3.16965e-12 1.64189e-10 5e-05 1.46608e-10 
227 1 0.216858 0.0179279 0.00701044 0.00560714 -2.64862e-05 0.000213982 1.58293e-10 9.48065e-11 5.53338e-11 5e-05 1.46608e-10 
228 1 0.216799 0.0176423 0.0070486 0.00559734 -2.00832e-05 0.000216593 -2.18412e-11 3.34556e-11 -2.60008e-11 5e-05 1.46608e-10 
229 1 0.223284 0.0183245 0.00696633 0.00570936 0.000355872 -0.000140674 -9.93851e-12 -5.80701e-11 3.45795e-11 5e-05 1.46608e-10 
230 1 0.222655 0.0170521 0.0074678 0.00620594 0.000433009 0.000116729 -2.60753e-10 -1.39366e-10 6.38657e-11 5e-05 1.46608e-10 
232 1 0.222951 0.0182232 0.00707559 0.00567624 0.000192363 -0.000236576 1.58089e-10 -3.5067e-10 6.19224e-11 5e-05 1.46608e-10 
233 1 0.222993 0.0185946 0.00694723 0.0055504 0.000120473 0.000101886 2.39408e-11 1.03214e-11 4.77386e-12 5e-05 1.46608e-10 
234 1 0.228836 0.0178555 0.00723775 0.00602501 0.000432441 0.000206442 3.20966e-10 9.58988e-11 -1.9332e-10 5e-05 1.46608e-10 
235 1 0.222611 0.0168902 0.00757611 0.00615408 0.000439103 0.000107329 -3.38731e-11 -6.99024e-11 2.52355e-11 5e-05 1.46608e-10 
236 1 0.222716 0.0172678 0.00727064 0.00609246 0.00042487 5.79145e-05 2.98061e-11 -2.11715e-10 -1.67085e-10 5e-05 1.46608e-10 
237 1 0.222736 0.0173615 0.00724155 0.00575974 0.000471811 -2.48704e-05 -4.48773e-11 -1.58865e-10 -1.78095e-11 5e-05 1.46608e-10 
239 1 0.216515 0.0165799 0.00791304 0.00581803 -0.000303199 -8.00938e-05 2.50968e-10 1.47301e-10 -1.50125e-10 5e-05 1.46608e-10 
240 1 0.216579 0.0168054 0.00772573 0.00590683 -0.000334462 -0.000117108 -2.19534e-10 -2.21577e-10 -2.11622e-10 5e-05 1.46608e-10 
241 1 0.216494 0.0165047 0.00797536 0.00580776 -0.000299968 -8.22513e-05 7.24866e-11 2.84791e-10 -2.21235e-10 5e-05 1.46608e-10 
242 1 0.222693 0.016517 0.00790442 0.00608595 0.000410512 0.000119895 -9.50809e-11 1.0874e-10 -5.0739e-11 5e-05 1.46608e-10 
243 1 0.223041 0.0179443 0.00703034 0.00555811 0.000142324 -0.000233573 3.94764e-11 4.13598e-11 8.34326e-12 5e-05 1.46608e-10 
244 1 0.216536 0.0166552 0.00785072 0.00585901 -0.000297404 -8.85685e-05 -1.56312e-10 7.97424e-11 -5.196e-11 5e-05 1.46608e-10 
246 1 0.216727 0.0173275 0.00728373 0.00531932 -0.000256229 -0.000168536 -1.80033e-11 2.94558e-11 7.9763e-13 5e-05 1.46608e-10 
247 1 0.222547 0.0166664 0.00776527 0.00607857 0.000442941 9.6963e-05 -2.23731e-12 1.75936e-10 -4.32564e-11 5e-05 1.46608e-10 
248 1 0.222866 0.0175738 0.00719645 0.00572354 0.000414615 -2.41668e-05 -6.48038e-11 -3.49989e-10 1.14157e-10 5e-05 1.46608e-10 
249 1 0.216664 0.0171037 0.00747321 0.00604729 -0.000387693 -0.000111757 1.92471e-10 -1.46597e-10 2.31942e-10 5e-05 1.46608e-10 
250 1 0.222625 0.0166214 0.00780903 0.00607866 0.000424991 0.000112056 -1.58054e-10 8.08697e-11 -3.43771e-11 5e-05 1.46608e-10 
251 1 0.228991 0.0181478 0.00709373 0.00566942 0.000411172 -0.000124927 2.34509e-11 -1.65317e-11 -3.65382e-10 5e-05 1.46608e-10 
252 1 0.216749 0.0174022 0.00722093 0.00497015 -0.000187317 -0.000204578 -6.40883e-11 1.06681e-10 4.9021e-11 5e-05 1.46608e-10 
253 1 0.216917 0.0182194 0.00697142 0.00568399 7.84411e-07 0.00021367 9.68738e-11 -7.45666e-11 -4.6369e-11 5e-05 1.46608e-10 
254 1 0.216685 0.0171783 0.00741005 0.00603083 -0.000391207 -0.000108606 -4.09356e-12 -1.00586e-10 1.00133e-10 5e-05 1.46608e-10 
255 1 0.222195 0.0154931 0.00893224 0.00632425 -0.000387376 -0.00049287 1.00732e-10 1.07014e-10 -1.44726e-10 5e-05 1.46608e-10 
256 1 0.223236 0.0180127 0.00701297 0.00578609 0.000377645 -0.000277814 -1.52638e-10 -8.71474e-12 1.6276e-11 5e-05 1.46608e-10 
257 1 0.222801 0.0168909 0.00759054 0.00617652 0.000441904 0.000103731 5.0288e-11 1.45969e-10 -1.43883e-10 5e-05 1.46608e-10 
258 1 0.222852 0.0174764 0.00721443 0.0057822 0.000421432 0.000101082 7.57774e-11 -4.3405e-10 3.06589e-10 5e-05 1.46608e-10 
259 1 0.216769 0.0174814 0.00716333 0.00536751 -0.000140228 -1.63444e-06 4.29902e-11 9.3364e-11 8.09212e-11 5e-05 1.46608e-10 