ITEM: TIMESTEP
40000000
ITEM: NUMBER OF ATOMS
275
ITEM: BOX BOUNDS ff ff ff
-0.02 0.43
-0.02 0.06
-0.02 0.07
ITEM: ATOMS id type x y z vx vy vz fx fy fz radius mass 
1 1 0.24649 0.0182252 0.00704998 0.00553367 2.29718e-06 1.06348e-05 8.88138e-12 5.33716e-11 8.80497e-13 5e-05 1.46608e-10 
2 1 0.246173 0.0171532 0.00743847 0.00559472 6.516e-06 -2.35416e-05 9.31029e-12 1.08644e-12 -3.4139e-11 5e-05 1.46608e-10 
4 1 0.246324 0.0170516 0.00752169 0.005658 4.70007e-05 -5.33607e-05 -9.54287e-11 -1.48736e-10 1.18109e-10 5e-05 1.46608e-10 
5 1 0.245679 0.0154311 0.00885718 0.00569999 -7.95979e-05 5.04049e-05 -5.48001e-10 2.11924e-10 -1.2901e-10 5e-05 1.46608e-10 
6 1 0.252175 0.01717 0.00746594 0.00624237 0.00117477 -0.000886721 -2.11023e-12 -4.85773e-12 2.22669e-12 5e-05 1.46608e-10 
7 1 0.246452 0.0175847 0.00708322 0.00564143 -2.55851e-06 2.26536e-05 -6.45508e-11 -7.05372e-11 1.0634e-10 5e-05 1.46608e-10 
8 1 0.246163 0.0167998 0.00772938 0.00597003 -1.50133e-05 -3.6639e-06 3.49318e-11 4.84603e-11 -3.85796e-11 5e-05 1.46608e-10 
9 1 0.252368 0.018052 0.00703651 0.00586233 0.0012514 -0.00090317 2.05651e-12 4.43644e-12 -2.40255e-12 5e-05 1.46608e-10 
10 1 0.245807 0.0158751 0.00849138 0.00585351 -8.95277e-05 5.76731e-05 -4.23771e-11 -1.18607e-10 9.77941e-11 5e-05 1.46608e-10 
11 1 0.246363 0.0177724 0.00712113 0.00560005 -8.49095e-06 1.30555e-05 2.53415e-12 -7.98261e-11 -7.63771e-11 5e-05 1.46608e-10 
12 1 0.240423 0.0170625 0.00737382 0.00546449 5.73914e-05 0.00100739 1.21075e-10 -2.71378e-11 1.59565e-10 5e-05 1.46608e-10 
13 1 0.245658 0.0153557 0.00891932 0.00545995 -4.98179e-05 3.55872e-05 7.79987e-10 -1.10963e-10 1.12984e-10 5e-05 1.46608e-10 
14 1 0.240388 0.017525 0.00719341 0.00566552 -0.00019503 0.000149919 7.32675e-12 -1.29492e-10 1.88232e-10 5e-05 1.46608e-10 
16 1 0.240634 0.0180436 0.00697411 0.00552663 -0.000554381 0.000461559 -8.12627e-11 2.60614e-11 3.5493e-12 5e-05 1.46608e-10 
17 1 0.245818 0.0157983 0.00855456 0.00585103 -8.78834e-05 5.66585e-05 -1.57953e-11 -7.07849e-11 6.36482e-11 5e-05 1.46608e-10 
19 1 0.245639 0.0152804 0.00898236 0.00555078 -0.000132454 -4.26376e-05 2.36166e-10 9.9359e-11 -3.26314e-10 5e-05 1.46608e-10 
21 1 0.246488 0.0177672 0.0070352 0.00560929 1.68313e-05 1.26136e-05 6.68032e-11 -1.88344e-10 -4.12244e-12 5e-05 1.46608e-10 
22 1 0.246131 0.0166475 0.00785483 0.00588088 -9.89108e-06 -9.89165e-06 4.97233e-11 3.88969e-11 -1.17499e-10 5e-05 1.46608e-10 
23 1 0.240595 0.0178481 0.00699322 0.00553331 -0.000549829 7.01739e-05 1.95169e-11 1.37357e-10 -5.35151e-11 5e-05 1.46608e-10 
24 1 0.252293 0.0176988 0.00720837 0.00570171 0.00128321 -0.000909837 6.09604e-13 -8.24044e-13 3.92084e-13 5e-05 1.46608e-10 
25 1 0.245865 0.0160224 0.00836997 0.00585743 -9.77389e-05 6.48463e-05 -7.13414e-11 -1.43171e-10 9.99786e-11 5e-05 1.46608e-10 
26 1 0.252331 0.0178754 0.00712244 0.00579633 0.00126391 -0.000905637 5.79017e-13 7.7903e-13 -2.08783e-14 5e-05 1.46608e-10 
27 1 0.240193 0.0168502 0.00752576 0.00574931 0.000176163 0.000947696 -3.15741e-11 2.61688e-11 5.23968e-11 5e-05 1.46608e-10 
28 1 0.246248 0.0171024 0.00748013 0.00563374 2.38911e-05 -3.57172e-05 -1.47508e-10 -1.93521e-10 1.20654e-10 5e-05 1.46608e-10 
29 1 0.24562 0.0152067 0.00904725 0.0055689 -0.000145205 -4.68219e-05 7.95107e-11 9.04834e-11 -1.21552e-10 5e-05 1.46608e-10 
30 1 0.245938 0.0163254 0.00812042 0.00588483 -0.000102107 6.83574e-05 1.40751e-11 3.82584e-11 -2.07616e-11 5e-05 1.46608e-10 
31 1 0.246532 0.0175314 0.00712622 0.00567173 -2.92237e-05 1.73236e-05 -2.78633e-10 -6.13378e-11 1.4804e-10 5e-05 1.46608e-10 
32 1 0.245873 0.0160994 0.00830661 0.00586171 -0.000101153 6.74571e-05 -1.39571e-10 -9.60386e-11 9.76979e-11 5e-05 1.46608e-10 
33 1 0.252195 0.017258 0.00742305 0.00597062 0.00123169 -0.000899481 -4.79632e-13 -4.69922e-12 2.25985e-12 5e-05 1.46608e-10 
34 1 0.245766 0.015735 0.00861228 0.00584511 -8.47376e-05 5.3755e-05 5.28085e-11 -3.40982e-11 4.40741e-11 5e-05 1.46608e-10 
35 1 0.246416 0.0174325 0.00720799 0.00543278 -2.93294e-06 -1.42222e-05 -2.44266e-10 -9.71295e-11 1.0182e-10 5e-05 1.46608e-10 
36 1 0.252425 0.018317 0.00690761 0.00596224 0.0012354 -0.000900804 -3.33263e-13 -1.59644e-12 8.0547e-13 5e-05 1.46608e-10 
37 1 0.246304 0.0169759 0.00758408 0.00568528 6.28844e-05 -6.71054e-05 6.62759e-11 -1.99909e-10 1.64462e-10 5e-05 1.46608e-10 
38 1 0.24638 0.0172806 0.00733307 0.00557953 2.7326e-05 -3.93422e-05 -2.36354e-10 2.87582e-10 -1.06055e-10 5e-05 1.46608e-10 
39 1 0.252312 0.0177871 0.00716541 0.00573258 0.00127668 -0.000908348 6.63794e-13 -1.26826e-13 1.63623e-13 5e-05 1.46608e-10 
41 1 0.245725 0.0155813 0.00873341 0.0058424 -8.87935e-05 5.75596e-05 -1.6098e-12 7.9186e-11 -6.26193e-11 5e-05 1.46608e-10 
42 1 0.246418 0.0170767 0.00750077 0.00561829 2.19494e-05 -3.30412e-05 -2.58631e-10 -5.75307e-12 9.03135e-12 5e-05 1.46608e-10 
44 1 0.246476 0.017304 0.00731356 0.00560679 -1.07252e-05 -8.03222e-06 -6.41648e-11 5.60705e-11 -3.52655e-11 5e-05 1.46608e-10 
45 1 0.252215 0.017346 0.00738015 0.00599044 0.00122735 -0.000898489 -3.0844e-13 -3.60352e-12 1.72251e-12 5e-05 1.46608e-10 
47 1 0.245744 0.0156571 0.00867102 0.00584389 -8.57448e-05 5.5238e-05 4.43821e-11 3.3703e-11 -2.66857e-11 5e-05 1.46608e-10 
48 1 0.246357 0.0179964 0.00704234 0.00559115 -2.36521e-05 8.92131e-06 -8.79245e-12 7.8708e-11 2.33077e-11 5e-05 1.46608e-10 
49 1 0.252387 0.0181404 0.00699354 0.00589574 0.0012461 -0.000902396 3.17368e-12 6.09316e-12 -2.87423e-12 5e-05 1.46608e-10 
50 1 0.245894 0.0161749 0.00824443 0.00586315 -0.000102614 6.83852e-05 -5.41992e-12 -7.95174e-11 5.68678e-11 5e-05 1.46608e-10 
51 1 0.246555 0.0176073 0.00706514 0.00568216 -3.16873e-08 3.80208e-05 4.44958e-11 -2.61771e-10 1.1462e-10 5e-05 1.46608e-10 
52 1 0.24048 0.0173119 0.0072167 0.0053786 -0.000448387 0.000321291 8.92392e-11 7.88239e-12 3.39831e-11 5e-05 1.46608e-10 
53 1 0.252255 0.0175222 0.0072943 0.00580026 0.0012647 -0.000906211 6.82596e-13 -1.97827e-12 9.21138e-13 5e-05 1.46608e-10 
54 1 0.246697 0.0179303 0.00704085 0.0055904 4.94546e-05 1.20831e-05 -6.21969e-12 -1.24386e-10 -3.95442e-12 5e-05 1.46608e-10 
55 1 0.240366 0.017197 0.0072821 0.00542664 -0.000419938 0.000309976 8.31666e-11 6.12996e-11 8.44514e-11 5e-05 1.46608e-10 
56 1 0.246678 0.0178322 0.00703765 0.00559913 4.51968e-05 1.24445e-05 -7.64965e-11 -1.13303e-10 5.88273e-12 5e-05 1.46608e-10 
57 1 0.252236 0.017434 0.00733724 0.00601013 0.00122296 -0.000897398 4.43748e-13 -2.59131e-12 1.38282e-12 5e-05 1.46608e-10 
59 1 0.378022 0.019866 0.005332 -5.0195e-15 -7.41203e-15 7.69802e-14 3.45089e-24 5.16988e-26 2.06795e-25 5e-05 1.46608e-10 
60 1 0.246495 0.0173798 0.00725114 0.00557615 -1.56805e-05 -3.02061e-06 1.50226e-12 -7.1434e-12 -1.51044e-11 5e-05 1.46608e-10 
61 1 0.245701 0.0155064 0.00879511 0.00583702 -9.42836e-05 6.1548e-05 -2.60856e-12 9.80826e-11 -7.45819e-11 5e-05 1.46608e-10 
62 1 0.246398 0.0173565 0.00727053 0.00549205 -1.40445e-05 -8.22874e-06 -2.86965e-10 -6.77904e-11 7.78924e-11 5e-05 1.46608e-10 
63 1 0.246376 0.0180946 0.00704554 0.00556758 -7.1208e-06 1.05083e-05 3.75817e-12 6.96982e-11 5.80241e-12 5e-05 1.46608e-10 
64 1 0.252274 0.0176105 0.00725134 0.00567099 0.00128974 -0.000911308 4.0619e-13 -1.57646e-12 6.05114e-13 5e-05 1.46608e-10 
65 1 0.240309 0.0173381 0.00719985 0.00542378 -0.000438881 0.000332851 9.57489e-11 2.84591e-11 -1.21232e-11 5e-05 1.46608e-10 
66 1 0.240349 0.0178099 0.0070848 0.00554357 -0.000531252 7.19883e-05 2.13613e-10 2.73945e-10 -2.50652e-11 5e-05 1.46608e-10 
67 1 0.246508 0.0178653 0.0070384 0.00559943 2.12665e-05 1.04851e-05 -4.67504e-11 -4.8482e-11 9.1426e-12 5e-05 1.46608e-10 
68 1 0.246304 0.0173307 0.00729203 0.00549348 -3.06386e-05 9.33897e-06 -4.16831e-11 5.78082e-11 1.25464e-10 5e-05 1.46608e-10 
69 1 0.246583 0.0177997 0.00703643 0.00560116 3.11591e-05 1.25609e-05 -6.82632e-11 -1.93179e-10 -1.10819e-11 5e-05 1.46608e-10 
70 1 0.25235 0.0179637 0.00707947 0.00582927 0.0012574 -0.000904274 8.50324e-13 2.04071e-12 -1.31297e-12 5e-05 1.46608e-10 
71 1 0.240712 0.0184291 0.00701685 0.00572054 -0.000701215 0.000462774 -5.01956e-11 -5.04136e-11 9.1881e-13 5e-05 1.46608e-10 
72 1 0.246546 0.0180615 0.0070448 0.00557459 2.43499e-05 1.2182e-05 2.87117e-11 8.53898e-11 9.28378e-12 5e-05 1.46608e-10 
73 1 0.245829 0.0159504 0.00842932 0.00585699 -9.31941e-05 6.11226e-05 -3.95542e-11 -1.39654e-10 1.13483e-10 5e-05 1.46608e-10 
74 1 0.245916 0.0162501 0.0081825 0.00586785 -0.000101763 6.83775e-05 6.33577e-11 -3.69591e-11 2.41466e-11 5e-05 1.46608e-10 
76 1 0.240307 0.0169559 0.00744998 0.00561957 9.32252e-05 0.000984489 3.44801e-10 3.03975e-10 -1.90911e-10 5e-05 1.46608e-10 
77 1 0.246192 0.017229 0.00737606 0.00557931 9.90223e-06 -2.14802e-05 -1.15273e-10 1.72701e-10 -6.72593e-12 5e-05 1.46608e-10 
78 1 0.239714 0.0154933 0.00868756 0.00584924 -2.35864e-05 0.00114474 -5.08789e-11 -4.34258e-11 3.66431e-11 5e-05 1.46608e-10 
79 1 0.240638 0.0184968 0.00701631 0.00566831 -0.000688868 0.000458855 2.00332e-10 1.597e-12 1.77254e-11 5e-05 1.46608e-10 
80 1 0.246267 0.0171783 0.0074176 0.0055857 3.13589e-05 -4.62426e-05 -6.42988e-11 1.93316e-10 -7.09427e-11 5e-05 1.46608e-10 
82 1 0.240445 0.0178411 0.0070793 0.00553481 -0.000584646 7.71802e-05 7.52121e-11 -1.35545e-10 5.36982e-12 5e-05 1.46608e-10 
83 1 0.240443 0.0171415 0.00731478 0.00546222 -0.000380369 0.000292089 3.29614e-11 -4.91006e-11 1.49921e-11 5e-05 1.46608e-10 
84 1 0.252406 0.0182287 0.00695058 0.00592923 0.00124115 -0.00090178 -3.11086e-13 2.56811e-12 -1.26581e-12 5e-05 1.46608e-10 
85 1 0.240509 0.0187253 0.0070255 0.00587958 -0.000579475 0.000488512 -2.09397e-11 5.35963e-11 2.48551e-12 5e-05 1.46608e-10 
86 1 0.246456 0.0172283 0.00737595 0.00565042 -1.51316e-05 -4.29901e-06 8.32841e-11 1.16022e-11 -6.3942e-12 5e-05 1.46608e-10 
87 1 0.246229 0.0170264 0.00754274 0.00566623 4.07336e-05 -4.82645e-05 -2.03614e-10 -2.54688e-10 2.11326e-10 5e-05 1.46608e-10 
88 1 0.246357 0.0175591 0.00710395 0.00555872 -5.83603e-05 3.36977e-05 3.31339e-11 6.375e-11 -5.50275e-11 5e-05 1.46608e-10 
89 1 0.246428 0.0176951 0.00711925 0.00562548 2.8264e-05 1.74499e-05 1.35757e-10 3.27541e-11 2.37718e-11 5e-05 1.46608e-10 
90 1 0.246527 0.0179634 0.0070416 0.0055876 2.5071e-05 1.18979e-05 -9.71719e-13 3.53027e-11 4.0107e-12 5e-05 1.46608e-10 
91 1 0.240402 0.0169878 0.00743874 0.00560517 0.000198742 0.000887471 5.97349e-11 1.23172e-10 -7.57402e-11 5e-05 1.46608e-10 
92 1 0.24628 0.0176088 0.00706324 0.00560099 -2.71666e-05 8.26445e-06 -9.06516e-11 -6.35632e-11 4.84311e-11 5e-05 1.46608e-10 
93 1 0.246003 0.0165514 0.00793424 0.00590875 -9.01023e-05 5.92626e-05 2.68245e-10 1.00436e-10 -5.44946e-11 5e-05 1.46608e-10 
94 1 0.246392 0.0178824 0.00712143 0.00560993 -1.56786e-06 8.27754e-06 9.69582e-11 4.53553e-11 7.01963e-11 5e-05 1.46608e-10 
95 1 0.246301 0.0175051 0.00725618 0.00550606 -1.40807e-05 9.89185e-06 1.73112e-11 5.39053e-12 1.34773e-12 5e-05 1.46608e-10 
96 1 0.246263 0.0175328 0.00712581 0.00555682 -2.26472e-05 4.27413e-06 1.45066e-11 -7.65212e-12 -1.93279e-12 5e-05 1.46608e-10 
97 1 0.239841 0.0158592 0.00837382 0.00587301 8.95701e-07 0.00112517 -1.43701e-11 3.98626e-11 -2.95103e-11 5e-05 1.46608e-10 
98 1 0.24598 0.0164762 0.00799618 0.00588601 -9.24582e-05 6.00415e-05 1.02545e-10 1.21179e-10 -1.02936e-10 5e-05 1.46608e-10 
99 1 0.240329 0.0178487 0.00699484 0.00554367 -0.000545881 6.68537e-05 5.36172e-11 4.46648e-11 -3.84509e-11 5e-05 1.46608e-10 
100 1 0.246469 0.0176688 0.00703198 0.00565971 1.27457e-05 2.20518e-05 3.50874e-10 -2.1486e-10 2.46885e-11 5e-05 1.46608e-10 
101 1 0.240348 0.017945 0.00697663 0.00554348 -0.000547593 6.62354e-05 8.22475e-12 1.97484e-11 1.04478e-11 5e-05 1.46608e-10 
102 1 0.0643568 0.0187248 0.00531097 4.31226e-15 1.05323e-14 8.29534e-14 7.25308e-22 1.97076e-22 -5.74891e-23 5e-05 1.46608e-10 
103 1 0.24257 0.0191927 0.00520306 -1.23235e-22 -1.27651e-22 -5.81428e-22 0 0 0 5e-05 1.46608e-10 
104 1 0.240651 0.0181481 0.00698527 0.0055262 -0.000635151 0.000450678 -6.30572e-11 -5.7626e-11 -1.21237e-11 5e-05 1.46608e-10 
105 1 0.239779 0.0157145 0.00849567 0.00586178 -5.59899e-06 0.00113024 -1.12835e-10 -7.93056e-11 3.79761e-11 5e-05 1.46608e-10 
106 1 0.240347 0.0175091 0.00710354 0.00546506 -0.000471081 0.000291778 -2.53661e-11 5.60115e-11 1.6208e-10 5e-05 1.46608e-10 
107 1 0.239735 0.015567 0.00862359 0.00585294 -2.05438e-05 0.00114038 5.65594e-11 -1.64357e-11 4.74308e-11 5e-05 1.46608e-10 
108 1 0.246602 0.0178978 0.00703963 0.00559354 3.6176e-05 1.22137e-05 -5.66276e-11 -8.86757e-11 -4.10487e-12 5e-05 1.46608e-10 
109 1 0.246647 0.017646 0.00703159 0.00555577 -4.68787e-05 1.46493e-05 4.14101e-13 -5.6116e-11 3.39289e-11 5e-05 1.46608e-10 
110 1 0.246154 0.0170775 0.00750086 0.00564048 -1.11045e-06 -1.74945e-05 -1.21287e-10 -1.21344e-10 3.95405e-11 5e-05 1.46608e-10 
111 1 0.24611 0.0169268 0.00762502 0.00578619 -2.78105e-05 7.55829e-06 -2.08571e-10 2.38009e-11 -2.49803e-11 5e-05 1.46608e-10 
112 1 0.239865 0.0160066 0.00824228 0.00589222 6.32907e-06 0.00112462 4.77568e-11 3.45652e-11 -1.17991e-11 5e-05 1.46608e-10 
113 1 0.240233 0.0173942 0.00716628 0.00545645 -0.000455422 0.000323534 1.47669e-11 -8.30249e-11 4.80086e-11 5e-05 1.46608e-10 
114 1 0.24029 0.0176565 0.00703397 0.005544 -0.000529103 0.000150694 6.54219e-11 8.91256e-11 1.00214e-10 5e-05 1.46608e-10 
115 1 0.246437 0.0171525 0.00743834 0.00565048 -5.68096e-06 -1.06562e-05 -2.80488e-10 -2.19085e-11 -5.63364e-12 5e-05 1.46608e-10 
116 1 0.246432 0.0179309 0.00704037 0.00559071 2.6956e-06 1.10741e-05 -2.04576e-11 4.91749e-11 1.1042e-11 5e-05 1.46608e-10 
117 1 0.246435 0.0175083 0.00714549 0.00547989 -1.23661e-06 -4.60963e-06 7.66274e-11 -5.16937e-11 1.96956e-10 5e-05 1.46608e-10 
118 1 0.240404 0.0173671 0.00718393 0.0054094 -0.000429746 0.000310081 8.71212e-11 2.28083e-11 1.4209e-11 5e-05 1.46608e-10 
119 1 0.246621 0.0179959 0.00704283 0.00557956 4.04995e-05 1.20698e-05 1.16436e-10 -5.99144e-11 4.90139e-12 5e-05 1.46608e-10 
120 1 0.246143 0.0167241 0.00779173 0.00589566 -8.09344e-06 -9.23376e-06 -1.72357e-11 7.16e-11 -8.36083e-11 5e-05 1.46608e-10 
121 1 0.246511 0.0183231 0.00705317 0.00590764 -3.02536e-05 1.0332e-05 -2.83954e-11 -2.13262e-10 -6.76572e-12 5e-05 1.46608e-10 
122 1 0.246246 0.0174567 0.00718847 0.00552044 -1.2719e-05 -5.32184e-06 2.43848e-10 3.84976e-11 -5.34008e-11 5e-05 1.46608e-10 
123 1 0.24066 0.0185939 0.00702726 0.0057427 -0.000723856 0.000462479 2.90494e-11 6.42166e-11 1.35201e-11 5e-05 1.46608e-10 
124 1 0.246036 0.0166278 0.00787896 0.00591037 -8.48401e-05 5.08622e-05 9.16484e-11 1.37195e-10 -6.36015e-11 5e-05 1.46608e-10 
125 1 0.24634 0.017483 0.00716658 0.00552346 -4.47708e-05 2.49961e-05 1.97186e-10 7.68712e-11 -5.39914e-11 5e-05 1.46608e-10 
127 1 0.239801 0.0157882 0.00843171 0.00587316 -8.57765e-07 0.00112781 -1.73748e-11 5.54824e-12 1.35786e-11 5e-05 1.46608e-10 
128 1 0.245959 0.016401 0.00805852 0.00588765 -9.86625e-05 6.52325e-05 -3.34151e-11 9.79272e-11 -8.29905e-11 5e-05 1.46608e-10 
129 1 0.246331 0.0176728 0.00712308 0.0056276 -3.15626e-05 1.225e-05 -1.26852e-11 -1.62046e-11 2.08185e-11 5e-05 1.46608e-10 
130 1 0.240386 0.0176895 0.00702714 0.00552946 -0.000552607 0.000111103 -1.27657e-12 4.79663e-11 1.20782e-10 5e-05 1.46608e-10 
131 1 0.240406 0.0177852 0.00700625 0.00553982 -0.000565003 6.55962e-05 -1.75544e-11 -8.74158e-12 2.37249e-11 5e-05 1.46608e-10 
132 1 0.246343 0.0171274 0.00745928 0.00563534 3.3759e-05 -4.18259e-05 -2.57703e-10 -8.33701e-12 2.78538e-11 5e-05 1.46608e-10 
133 1 0.246451 0.018029 0.00704357 0.00557607 4.02889e-06 1.12191e-05 7.64064e-12 7.9682e-11 5.87143e-12 5e-05 1.46608e-10 
134 1 0.246413 0.0178328 0.00703717 0.00560531 -5.04096e-06 1.0795e-05 3.94998e-11 3.03572e-12 1.60691e-11 5e-05 1.46608e-10 
135 1 0.246564 0.0177016 0.00703322 0.00561723 1.93822e-05 1.80053e-05 6.8302e-11 -2.63821e-10 1.6946e-11 5e-05 1.46608e-10 
136 1 0.240347 0.0171133 0.00733356 0.00548249 -0.000314773 0.000482231 1.00987e-10 1.84357e-10 2.4084e-10 5e-05 1.46608e-10 
137 1 0.246278 0.0176132 0.0071834 0.00552197 1.70537e-05 -3.71853e-05 -4.61332e-11 -3.67799e-11 2.15054e-11 5e-05 1.46608e-10 
138 1 0.246318 0.0178002 0.00703594 0.00560631 -2.2611e-05 1.08211e-05 3.79551e-11 -4.91282e-11 -3.90311e-11 5e-05 1.46608e-10 
140 1 0.24621 0.0173058 0.00731469 0.00555438 9.59434e-06 -1.50536e-05 -9.07605e-11 2.30756e-10 1.77458e-10 5e-05 1.46608e-10 
141 1 0.240186 0.0165129 0.00783621 0.00598801 2.70086e-05 0.00112314 -1.41824e-10 2.66535e-10 -2.60836e-10 5e-05 1.46608e-10 
142 1 0.240555 0.0176545 0.0070298 0.00554045 -0.000576336 7.43768e-05 5.89838e-11 -2.0864e-11 -1.44562e-11 5e-05 1.46608e-10 
143 1 0.239757 0.0156408 0.00855963 0.00585304 -1.4621e-05 0.00113496 4.46911e-11 -8.01641e-11 5.38838e-11 5e-05 1.46608e-10 
144 1 0.240443 0.0175371 0.00708609 0.00548803 -0.000456196 0.000323301 -1.71536e-10 -1.44691e-10 8.91208e-11 5e-05 1.46608e-10 
146 1 0.239959 0.0160375 0.00823184 0.00589163 7.38278e-06 0.00112283 3.7781e-11 1.14976e-11 -5.80619e-12 5e-05 1.46608e-10 
147 1 0.240367 0.0175967 0.0070594 0.00549802 -0.000511134 0.000211104 2.51093e-11 8.18747e-11 1.65789e-10 5e-05 1.46608e-10 
148 1 0.240208 0.0165866 0.00777224 0.00601681 3.37117e-05 0.00112432 -1.12725e-10 1.85409e-10 -1.73455e-10 5e-05 1.46608e-10 
149 1 0.246068 0.0167759 0.00774929 0.00593664 -7.26366e-05 4.41822e-05 1.34462e-10 8.2137e-11 -5.90052e-11 5e-05 1.46608e-10 
150 1 0.240488 0.0186283 0.00701455 0.00587741 -0.000581703 0.000488237 -4.51581e-11 -1.14784e-10 -2.03387e-11 5e-05 1.46608e-10 
151 1 0.240483 0.018175 0.00697234 0.00549035 -0.000544892 0.000455376 -2.06275e-11 2.1303e-11 3.43875e-11 5e-05 1.46608e-10 
153 1 0.240228 0.0166605 0.00770788 0.00549295 0.00014042 0.000924471 -3.63234e-10 3.32829e-11 -9.65887e-11 5e-05 1.46608e-10 
154 1 0.239938 0.0159638 0.0082958 0.00589731 1.03651e-05 0.00112121 1.27515e-11 -7.96149e-12 1.38602e-11 5e-05 1.46608e-10 
155 1 0.239887 0.0160804 0.00817832 0.00588998 4.5775e-06 0.00112484 4.24347e-11 -3.38015e-12 1.61566e-11 5e-05 1.46608e-10 
156 1 0.240165 0.0164391 0.00790017 0.00598457 2.7315e-05 0.00112219 -2.5025e-10 1.66549e-10 -1.99828e-10 5e-05 1.46608e-10 
157 1 0.0219312 0.0187687 0.00551176 -3.8369e-14 8.16238e-14 2.95895e-13 1.29686e-21 8.48377e-23 1.50754e-22 5e-05 1.46608e-10 
158 1 0.240268 0.0168082 0.00757917 0.00576883 0.000107632 0.00102102 4.02421e-11 -4.14972e-10 3.24818e-10 5e-05 1.46608e-10 
159 1 0.246362 0.0172039 0.00739623 0.00557265 2.30581e-05 -3.83099e-05 -2.43319e-10 4.49971e-10 -3.71143e-10 5e-05 1.46608e-10 
160 1 0.240368 0.0180414 0.00695843 0.00557317 -0.000556078 6.27136e-05 -2.32086e-11 -5.20906e-11 2.40802e-11 5e-05 1.46608e-10 
162 1 0.240383 0.0180038 0.00704996 0.0054714 -0.000522108 8.37585e-05 -6.13343e-11 4.03372e-11 9.97841e-11 5e-05 1.46608e-10 
164 1 0.239952 0.0163016 0.00798644 0.00590037 -4.3206e-06 0.00113522 -7.6737e-13 -3.93446e-12 4.5862e-12 5e-05 1.46608e-10 
165 1 0.240522 0.0183699 0.00699391 0.00568749 -0.000597224 0.000472013 4.84475e-11 -1.64408e-11 -4.92354e-11 5e-05 1.46608e-10 
166 1 0.246337 0.0178983 0.00703914 0.00560181 -2.61164e-05 9.9597e-06 6.31419e-11 3.10499e-11 -6.03864e-12 5e-05 1.46608e-10 
167 1 0.240444 0.0184341 0.00699262 0.0058723 -0.000611747 0.000484932 -8.43869e-12 -3.20406e-11 1.1498e-11 5e-05 1.46608e-10 
168 1 0.240564 0.0185642 0.00701571 0.00571318 -0.000608471 0.000470842 8.92244e-11 4.33101e-12 1.35549e-11 5e-05 1.46608e-10 
169 1 0.240466 0.0185313 0.0070036 0.00587298 -0.000584658 0.000487269 -3.00484e-11 -1.59642e-10 -1.19311e-11 5e-05 1.46608e-10 
170 1 0.240543 0.0184672 0.00700476 0.00582349 -0.000630133 0.000478881 4.17483e-12 -5.57147e-11 -3.11589e-11 5e-05 1.46608e-10 
171 1 0.246565 0.0181596 0.007048 0.00555319 2.53153e-05 1.1395e-05 1.026e-11 7.35315e-11 4.76788e-12 5e-05 1.46608e-10 
172 1 0.240215 0.0173091 0.00721526 0.00545417 -0.000462078 0.000327026 -2.17636e-10 -1.05995e-10 -5.15943e-11 5e-05 1.46608e-10 
173 1 0.246508 0.0180154 0.00712491 0.00557802 2.24284e-05 1.33495e-05 -1.36294e-12 8.0752e-11 3.60872e-12 5e-05 1.46608e-10 
174 1 0.239995 0.016449 0.00785852 0.00590445 -1.47108e-05 0.00114599 -4.59866e-11 -1.95928e-11 -1.62814e-11 5e-05 1.46608e-10 
176 1 0.24029 0.0172529 0.00724863 0.0054433 -0.000451141 0.000322904 4.83216e-11 3.09785e-11 3.30657e-11 5e-05 1.46608e-10 
177 1 0.239981 0.0161113 0.00816788 0.00589115 2.95898e-06 0.00112713 -2.4846e-11 -7.35404e-12 -1.6948e-12 5e-05 1.46608e-10 
178 1 0.240317 0.0175902 0.00715332 0.00558341 -0.000405902 0.000265084 -7.71487e-11 9.40455e-11 2.27005e-10 5e-05 1.46608e-10 
179 1 0.240387 0.0181395 0.00696021 0.0055378 -0.000551332 0.000461119 -4.72245e-11 -1.25134e-10 -2.37266e-11 5e-05 1.46608e-10 
182 1 0.246586 0.0182576 0.00705121 0.00595025 2.41458e-05 1.21653e-05 1.72941e-10 -5.15531e-11 -8.65957e-13 5e-05 1.46608e-10 
183 1 0.240271 0.0175646 0.00706826 0.00552686 -0.000458341 0.000321779 4.95511e-11 1.24315e-12 8.05017e-11 5e-05 1.46608e-10 
184 1 0.246413 0.0179828 0.00712368 0.00558271 -1.3491e-05 1.46604e-05 -7.16473e-12 8.67208e-11 2.00856e-11 5e-05 1.46608e-10 
185 1 0.24046 0.0176235 0.00703638 0.00553839 -0.000511716 0.00036318 -2.01099e-12 2.78e-11 1.87548e-11 5e-05 1.46608e-10 
186 1 0.240531 0.0188223 0.00703645 0.00587758 -0.000581399 0.000488016 6.03167e-11 2.16304e-10 2.75324e-11 5e-05 1.46608e-10 
187 1 0.24647 0.0181271 0.00704677 0.00555993 3.57489e-06 1.0556e-05 2.59937e-12 6.9911e-11 -2.03323e-12 5e-05 1.46608e-10 
188 1 0.246322 0.0174068 0.0072294 0.00551815 1.40566e-06 -1.61132e-05 2.28784e-11 -1.65588e-10 1.09666e-10 5e-05 1.46608e-10 
189 1 0.246435 0.0183886 0.00705514 0.00585821 -9.1878e-05 8.46903e-06 3.18435e-11 -2.30533e-11 -6.94794e-12 5e-05 1.46608e-10 
190 1 0.234471 0.0185513 0.00687794 0.00564088 -6.65259e-05 2.27875e-05 2.13189e-11 -3.69007e-11 1.24024e-11 5e-05 1.46608e-10 
191 1 0.246089 0.0168514 0.00768708 0.00590844 -5.97636e-05 3.35435e-05 6.55017e-11 8.10561e-11 -6.21225e-11 5e-05 1.46608e-10 
192 1 0.240252 0.0174794 0.00711729 0.00548254 -0.00044653 0.000314925 7.73045e-12 -6.44099e-11 9.30739e-11 5e-05 1.46608e-10 
193 1 0.246641 0.0180938 0.00704603 0.00568462 1.80545e-05 1.14104e-05 1.91698e-10 -6.35724e-11 -5.11798e-12 5e-05 1.46608e-10 
194 1 0.240469 0.017937 0.0070637 0.00556551 -0.000591973 9.95872e-05 -6.57108e-11 -5.33556e-11 1.1026e-10 5e-05 1.46608e-10 
195 1 0.240559 0.0181097 0.00697329 0.00548176 -0.000538411 0.000455141 -5.28879e-11 -3.95e-11 -5.54397e-11 5e-05 1.46608e-10 
196 1 0.24052 0.0179132 0.00698149 0.00553216 -0.000538714 5.82721e-05 -7.95688e-11 -3.93634e-12 -2.507e-11 5e-05 1.46608e-10 
197 1 0.234158 0.0170732 0.00739989 0.00554221 -0.000160516 -0.000355635 6.14464e-11 -5.79337e-11 7.75281e-12 5e-05 1.46608e-10 
198 1 0.240462 0.0172267 0.00726575 0.00543844 -0.000409921 0.000300183 -1.13182e-10 -2.25597e-10 1.58984e-10 5e-05 1.46608e-10 
199 1 0.240342 0.0176796 0.00711631 0.00554211 -0.00044941 0.000122313 4.06189e-11 2.30836e-11 1.98151e-10 5e-05 1.46608e-10 
200 1 0.239843 0.0159329 0.00830624 0.00588136 4.92679e-06 0.0011241 -6.32956e-11 7.41225e-12 -2.24539e-11 5e-05 1.46608e-10 
201 1 0.240593 0.01823 0.00698755 0.00553769 -0.000626372 0.000452879 -6.83194e-11 -3.51384e-11 -8.11449e-12 5e-05 1.46608e-10 
202 1 0.240288 0.0168824 0.00751497 0.00570771 0.000107518 0.00101623 3.57829e-11 7.82825e-12 -1.04644e-10 5e-05 1.46608e-10 
203 1 0.246394 0.0177346 0.00703396 0.0056239 -7.35636e-06 1.11727e-05 1.76378e-10 -1.98755e-10 -3.05944e-11 5e-05 1.46608e-10 
204 1 0.240615 0.0179449 0.00697492 0.00551624 -0.000514885 6.23072e-05 4.41596e-12 1.37245e-10 1.56452e-11 5e-05 1.46608e-10 
205 1 0.240134 0.0166282 0.00771962 0.00596135 -6.10815e-06 0.00114938 2.44342e-11 2.91174e-10 -3.12798e-10 5e-05 1.46608e-10 
206 1 0.240174 0.0167763 0.00759049 0.00569463 0.000107621 0.000988707 1.52679e-09 -4.03278e-09 3.95981e-09 5e-05 1.46608e-10 
207 1 0.240046 0.0163325 0.00797599 0.00590023 -6.82492e-06 0.00113802 -9.01145e-11 7.45225e-12 -3.18128e-11 5e-05 1.46608e-10 
208 1 0.240501 0.0173968 0.00716786 0.00542434 -0.000456742 0.000325518 7.34098e-11 -3.99756e-11 1.01031e-11 5e-05 1.46608e-10 
209 1 0.240385 0.0172819 0.00723294 0.00542249 -0.000429112 0.000311184 3.46911e-12 -2.20214e-11 2.82052e-11 5e-05 1.46608e-10 
210 1 0.246185 0.0168751 0.00766732 0.00589169 6.62213e-05 -7.0271e-05 -1.44647e-10 5.88369e-11 -3.86086e-11 5e-05 1.46608e-10 
211 1 0.246207 0.0169505 0.00760524 0.00581188 0.000126864 -0.000120058 -2.96457e-10 1.75306e-10 -1.38824e-10 5e-05 1.46608e-10 
212 1 0.240617 0.0183998 0.00700539 0.00570824 -0.000682633 0.000463417 -5.67206e-11 7.52816e-11 -2.52513e-11 5e-05 1.46608e-10 
213 1 0.246414 0.0182909 0.00705195 0.00551387 -1.96176e-05 9.99516e-06 1.59999e-11 3.47982e-11 -8.94108e-13 5e-05 1.46608e-10 
214 1 0.246286 0.0172548 0.00735457 0.00556482 1.51691e-05 -2.45265e-05 -1.4659e-10 5.59671e-10 -2.7056e-10 5e-05 1.46608e-10 
215 1 0.234373 0.0180844 0.00702406 0.00559813 -0.000159289 -0.000359942 3.17396e-11 3.96723e-11 -1.41285e-11 5e-05 1.46608e-10 
216 1 0.240025 0.0162587 0.00803995 0.00590034 -5.53356e-06 0.00113626 -1.07577e-11 1.58553e-11 -1.4444e-11 5e-05 1.46608e-10 
217 1 0.246662 0.0181917 0.00704922 0.00589822 -2.9641e-05 1.03176e-05 1.93325e-10 -5.67752e-11 -7.05727e-13 5e-05 1.46608e-10 
218 1 0.240309 0.0177523 0.00701324 0.00554551 -0.000545237 8.50703e-05 4.82471e-11 1.10984e-10 6.74563e-11 5e-05 1.46608e-10 
219 1 0.246045 0.0167008 0.00781119 0.00589957 -7.39179e-05 4.57146e-05 2.04809e-11 1.15708e-10 -6.0478e-11 5e-05 1.46608e-10 
220 1 0.240425 0.0178816 0.00698803 0.00554037 -0.000560744 7.11285e-05 -9.37158e-11 -2.86233e-11 2.23757e-11 5e-05 1.46608e-10 
222 1 0.246513 0.0174556 0.0071887 0.00558547 -2.21803e-05 3.60945e-06 1.21312e-10 -7.68617e-11 8.46108e-11 5e-05 1.46608e-10 
224 1 0.240213 0.016924 0.00746136 0.00570753 6.64545e-05 0.0010214 -3.58498e-10 1.80417e-09 -2.46881e-09 5e-05 1.46608e-10 
225 1 0.246132 0.0170021 0.00756297 0.00568863 -5.36336e-06 -1.0747e-05 -3.09742e-10 -1.05154e-11 1.91086e-12 5e-05 1.46608e-10 
226 1 0.240575 0.0177516 0.00701144 0.00554992 -0.000540668 6.58455e-05 3.63375e-11 1.02916e-10 -3.03909e-11 5e-05 1.46608e-10 
227 1 0.234393 0.0181764 0.00698989 0.00560362 -0.000166894 -0.00035735 8.95915e-11 1.08583e-10 -4.06465e-11 5e-05 1.46608e-10 
228 1 0.234334 0.0179005 0.00709239 0.00553939 -0.000157019 -0.000356066 1.56465e-10 -2.32025e-11 -7.29023e-12 5e-05 1.46608e-10 
229 1 0.240586 0.0186612 0.00702666 0.00583424 -0.000633429 0.00047934 -6.04277e-11 4.49194e-11 -5.019e-12 5e-05 1.46608e-10 
230 1 0.240118 0.0168936 0.00747506 0.00572841 -5.58876e-05 0.00100879 -7.50622e-10 5.27021e-10 -5.8905e-10 5e-05 1.46608e-10 
232 1 0.240471 0.0180569 0.00706951 0.00546211 -0.000795848 0.000258661 2.97717e-11 1.81435e-11 2.97842e-11 5e-05 1.46608e-10 
233 1 0.240425 0.0183365 0.00698188 0.00549046 -0.000534743 0.000456525 -8.09287e-11 5.10466e-12 -1.45655e-11 5e-05 1.46608e-10 
234 1 0.246228 0.0173808 0.00725102 0.00552021 1.57673e-06 -1.39542e-05 2.8934e-10 1.28688e-10 2.40091e-12 5e-05 1.46608e-10 
235 1 0.24008 0.0167441 0.00760226 0.00586029 5.16685e-06 0.00112911 -6.11096e-10 3.72263e-10 -6.1746e-10 5e-05 1.46608e-10 
236 1 0.240176 0.017139 0.00731314 0.00548295 -0.000483334 0.000331568 -6.53291e-11 2.47541e-10 5.77617e-10 5e-05 1.46608e-10 
237 1 0.240195 0.0172241 0.0072642 0.00544921 -0.000471164 0.000323226 -4.56957e-10 3.99372e-11 1.02921e-10 5e-05 1.46608e-10 
239 1 0.234056 0.0166146 0.00757071 0.00577549 -0.000205791 -0.000356522 -5.39654e-12 -1.52847e-11 6.24123e-12 5e-05 1.46608e-10 
240 1 0.234118 0.0168897 0.00746822 0.00578167 -0.000208299 -0.000355867 -6.79642e-12 -2.02243e-11 5.30194e-12 5e-05 1.46608e-10 
241 1 0.234035 0.0165229 0.00760487 0.0057736 -0.000203944 -0.000357 -2.37052e-12 -2.52948e-11 9.31771e-12 5e-05 1.46608e-10 
242 1 0.240143 0.0163654 0.00796413 0.00598305 4.98125e-05 0.00110143 -6.55118e-11 -1.92317e-11 4.0963e-12 5e-05 1.46608e-10 
243 1 0.2405 0.0178168 0.0069997 0.00553824 -0.000557203 6.83398e-05 -8.19988e-12 -1.56407e-11 -3.45823e-11 5e-05 1.46608e-10 
244 1 0.234077 0.0167063 0.00753655 0.00577747 -0.000206789 -0.00035633 -8.03723e-13 1.00522e-11 -2.57671e-12 5e-05 1.46608e-10 
246 1 0.234257 0.0175327 0.00722906 0.00545425 -0.000141097 -0.00035565 1.18e-11 2.6969e-11 -1.17318e-11 5e-05 1.46608e-10 
247 1 0.240017 0.0165228 0.00779456 0.00591323 -2.05019e-05 0.00115361 -1.10162e-10 -2.92844e-11 -2.77157e-11 5e-05 1.46608e-10 
248 1 0.240273 0.0174764 0.00721507 0.00543232 -0.000439041 0.000326732 -2.1285e-11 -4.10023e-11 1.71838e-10 5e-05 1.46608e-10 
249 1 0.234198 0.0172569 0.00733156 0.00556787 -0.00016479 -0.000355208 6.06382e-11 -2.67489e-12 -1.7026e-11 5e-05 1.46608e-10 
250 1 0.24009 0.0164806 0.0078476 0.00594192 -7.74251e-06 0.00114716 1.76107e-11 2.03999e-10 -1.77006e-10 5e-05 1.46608e-10 
251 1 0.246374 0.0176364 0.00704026 0.00564683 -1.69521e-05 4.33098e-07 1.48471e-10 4.8058e-11 -8.32605e-11 5e-05 1.46608e-10 
252 1 0.234276 0.0176247 0.00719489 0.00548058 -0.000147108 -0.000355392 -2.74915e-11 5.00726e-12 2.50297e-13 5e-05 1.46608e-10 
253 1 0.234451 0.018455 0.00689654 0.00564383 -6.70584e-05 2.28003e-05 -1.69273e-11 -1.21578e-11 -3.20273e-11 5e-05 1.46608e-10 
254 1 0.234218 0.0173488 0.00729739 0.00542387 -0.000129136 -0.000357466 -1.4361e-10 -1.20177e-11 1.64805e-11 5e-05 1.46608e-10 
255 1 0.239692 0.0154195 0.00875157 0.00538471 1.27291e-06 0.00103149 -4.21364e-11 -5.74225e-11 3.58409e-11 5e-05 1.46608e-10 
256 1 0.240726 0.018082 0.00698609 0.00555048 -0.000603094 0.00045589 -4.30393e-11 -9.30146e-12 2.62899e-12 5e-05 1.46608e-10 
257 1 0.240248 0.0167343 0.0076435 0.00583561 0.000118671 0.00101219 1.87684e-10 -6.17189e-11 5.16439e-11 5e-05 1.46608e-10 
258 1 0.240348 0.0174187 0.00724857 0.00541989 -0.000445913 0.000333153 5.52964e-11 1.87821e-10 7.99316e-11 5e-05 1.46608e-10 
259 1 0.234295 0.0177166 0.00716073 0.00551629 -0.000152974 -0.000356303 -1.0596e-10 1.15693e-11 1.02793e-11 5e-05 1.46608e-10 