ITEM: TIMESTEP
50600000
ITEM: NUMBER OF ATOMS
275
ITEM: BOX BOUNDS ff ff ff
-0.02 0.43
-0.02 0.06
-0.02 0.07
ITEM: ATOMS id type x y z vx vy vz fx fy fz radius mass 
1 1 0.30831 0.0182544 0.00689086 0.00626617 -0.000119912 0.000174891 1.78581e-10 8.1221e-11 -1.89422e-11 5e-05 1.46608e-10 
2 1 0.307975 0.0170963 0.00725038 0.0056465 -0.000110076 -8.03418e-05 -1.81132e-12 2.12267e-10 -2.24291e-10 5e-05 1.46608e-10 
4 1 0.308126 0.0169878 0.00732808 0.00565003 -0.000167704 -5.18807e-05 8.1314e-11 2.59692e-10 -3.57786e-10 5e-05 1.46608e-10 
5 1 0.307596 0.0156249 0.00838299 0.00625257 -0.000257507 -7.93243e-06 2.1623e-12 -4.0659e-11 6.57431e-11 5e-05 1.46608e-10 
6 1 0.313893 0.016757 0.00751015 0.00566943 0.000127985 0.000193825 -9.28157e-11 2.66982e-12 -1.00236e-10 5e-05 1.46608e-10 
7 1 0.308262 0.0176266 0.00708675 0.00562936 -3.36973e-05 0.000154356 1.39281e-10 -2.66967e-11 2.04837e-11 5e-05 1.46608e-10 
8 1 0.307975 0.0167282 0.00752784 0.00564617 -0.000195834 -1.37789e-05 3.2834e-10 1.36339e-10 -8.25446e-11 5e-05 1.46608e-10 
9 1 0.314084 0.0176323 0.00712961 0.00563447 3.3381e-05 -0.000135864 5.64732e-11 -6.14437e-11 9.85525e-12 5e-05 1.46608e-10 
10 1 0.308069 0.0167532 0.00750629 0.00566625 -0.000194987 -1.76287e-05 -4.30969e-11 -2.1558e-10 1.00012e-10 5e-05 1.46608e-10 
11 1 0.308202 0.0180222 0.00705014 0.00567816 -5.79862e-06 0.000143811 -1.63963e-10 -1.76687e-10 3.81584e-11 5e-05 1.46608e-10 
12 1 0.302284 0.0173244 0.00721957 0.00561674 -1.06501e-05 0.000126777 4.67778e-11 2.08196e-10 -8.90953e-11 5e-05 1.46608e-10 
13 1 0.307575 0.0155666 0.00846125 0.0062312 -0.000277688 1.96679e-05 2.76445e-11 -1.73175e-11 -2.79523e-11 5e-05 1.46608e-10 
14 1 0.302252 0.0178714 0.00706606 0.00568948 5.99964e-05 8.04621e-05 -3.69372e-11 -3.07997e-11 -1.22524e-11 5e-05 1.46608e-10 
16 1 0.302464 0.018147 0.00692773 0.00615116 -0.000210472 -0.000207068 -3.89472e-11 -4.29508e-11 1.26035e-11 5e-05 1.46608e-10 
17 1 0.307937 0.0165718 0.00764678 0.00564095 -0.00017972 -2.67212e-05 4.13165e-10 -2.01413e-10 -2.69925e-11 5e-05 1.46608e-10 
19 1 0.307553 0.0155082 0.00853952 0.00621097 -0.000293977 4.34625e-05 7.70275e-11 3.78318e-11 -5.75523e-11 5e-05 1.46608e-10 
21 1 0.308301 0.0178138 0.00702827 0.00563337 -2.46638e-05 0.000152586 5.16063e-11 6.77205e-11 -1.77474e-11 5e-05 1.46608e-10 
22 1 0.308088 0.0168313 0.00744686 0.00566107 -0.000193604 -2.14017e-05 1.91644e-12 -1.82424e-10 2.19401e-10 5e-05 1.46608e-10 
23 1 0.302423 0.0179541 0.00696056 0.00606692 -0.00014725 0.000120162 -6.59578e-11 5.63802e-11 1.64066e-11 5e-05 1.46608e-10 
24 1 0.314006 0.0172568 0.00724294 0.00561398 3.61017e-05 -0.000139621 6.69739e-11 1.91845e-10 -1.935e-10 5e-05 1.46608e-10 
25 1 0.307701 0.0159859 0.00806068 0.00569965 9.25926e-05 0.000133185 -2.48838e-11 -2.40178e-10 1.21709e-10 5e-05 1.46608e-10 
26 1 0.314045 0.0174445 0.00718627 0.00564274 3.69368e-05 -0.000139924 -1.6856e-10 3.23612e-11 6.33299e-11 5e-05 1.46608e-10 
27 1 0.301978 0.0167284 0.0074862 0.00568524 4.37734e-05 0.000107575 4.76508e-11 1.16396e-10 -8.42415e-11 5e-05 1.46608e-10 
28 1 0.308051 0.0170431 0.00729327 0.00565556 -0.000101178 3.32407e-05 -1.24584e-10 1.06528e-10 -2.7462e-10 5e-05 1.46608e-10 
29 1 0.307532 0.0154498 0.00861778 0.00619573 -0.00030418 5.64535e-05 3.16355e-11 8.01441e-11 -9.8344e-11 5e-05 1.46608e-10 
30 1 0.307782 0.0163118 0.00784327 0.00574804 -1.42383e-05 4.50951e-05 -1.10656e-11 -2.7243e-10 9.86856e-11 5e-05 1.46608e-10 
31 1 0.308337 0.0175642 0.00710848 0.00562242 -3.27309e-05 0.000152643 1.51228e-10 -9.85956e-11 1.5675e-11 5e-05 1.46608e-10 
32 1 0.30772 0.0160675 0.00800616 0.00572141 8.74031e-05 0.00014062 -2.37106e-10 -1.09734e-10 1.26382e-10 5e-05 1.46608e-10 
33 1 0.313911 0.0168192 0.00743388 0.00565428 0.000124259 0.000197114 -8.32406e-11 -4.92958e-11 6.76766e-11 5e-05 1.46608e-10 
34 1 0.30768 0.0159047 0.00811496 0.00568777 9.4717e-05 0.000128106 2.30594e-11 -3.21877e-10 8.85917e-11 5e-05 1.46608e-10 
35 1 0.308223 0.0174394 0.00714523 0.0056613 -3.57336e-05 0.000154787 -3.42668e-11 -4.44306e-11 3.42833e-13 5e-05 1.46608e-10 
36 1 0.314143 0.0179142 0.00704578 0.00561892 0.000394323 0.0010737 -2.5325e-11 -1.71538e-10 -4.70932e-11 5e-05 1.46608e-10 
37 1 0.308107 0.0169095 0.00738738 0.00565583 -0.000142007 -5.91579e-05 6.77875e-11 9.42225e-11 2.2504e-10 5e-05 1.46608e-10 
38 1 0.308184 0.0172522 0.00720371 0.00567012 -2.81181e-05 0.00015243 8.60715e-11 4.10306e-11 2.31703e-11 5e-05 1.46608e-10 
39 1 0.314025 0.0173507 0.0072146 0.00561397 3.85011e-05 -0.000135132 1.3481e-11 1.84349e-10 -8.20723e-11 5e-05 1.46608e-10 
41 1 0.30764 0.0157463 0.00823008 0.00623776 -0.000181934 -2.66679e-05 -2.58899e-10 -4.49403e-10 -1.36699e-10 5e-05 1.46608e-10 
42 1 0.308221 0.0170127 0.00730635 0.00565666 -0.000199376 -9.08977e-05 -4.79062e-12 -5.97506e-11 -7.21804e-10 5e-05 1.46608e-10 
44 1 0.308278 0.0172835 0.00719619 0.00567609 -3.44261e-05 0.000156096 1.67935e-10 -5.26024e-11 -2.58482e-11 5e-05 1.46608e-10 
45 1 0.313928 0.0168816 0.00735751 0.00563207 0.00012855 0.000194658 9.7457e-11 -2.13853e-11 1.6453e-10 5e-05 1.46608e-10 
47 1 0.307661 0.0158233 0.00817006 0.00575325 -5.88869e-06 6.1362e-06 -1.07281e-10 -5.21591e-10 -1.45296e-10 5e-05 1.46608e-10 
48 1 0.308171 0.0180319 0.00695562 0.00564824 -1.50789e-05 0.000148385 -4.61148e-11 -1.56733e-10 6.63092e-11 5e-05 1.46608e-10 
49 1 0.314104 0.0177262 0.00710129 0.00563531 3.39487e-05 -0.000127813 6.91953e-11 -5.785e-11 -2.4461e-11 5e-05 1.46608e-10 
50 1 0.307741 0.0161489 0.00795184 0.00572346 8.85747e-05 0.000160045 2.11288e-10 -6.65746e-12 6.65999e-11 5e-05 1.46608e-10 
51 1 0.308357 0.0176578 0.00707924 0.00563953 -3.12519e-05 0.000154827 6.29416e-11 -2.38951e-11 -3.8402e-12 5e-05 1.46608e-10 
52 1 0.302343 0.0175865 0.00708546 0.00561487 -0.000120724 -5.36411e-05 -5.99291e-12 -2.0467e-11 -6.82441e-12 5e-05 1.46608e-10 
53 1 0.313967 0.017069 0.00729961 0.00561369 3.94768e-05 -0.000131883 -9.456e-11 3.75059e-11 2.89486e-10 5e-05 1.46608e-10 
54 1 0.308532 0.0180627 0.00695506 0.00607413 -0.000254903 0.000232638 -5.36832e-11 2.94302e-11 -1.50467e-11 5e-05 1.46608e-10 
55 1 0.30217 0.0172051 0.00727179 0.00560247 4.00494e-05 0.000102404 -1.4981e-10 6.13669e-11 -2.67179e-11 5e-05 1.46608e-10 
56 1 0.308511 0.0179692 0.00698424 0.00588454 -0.000189867 0.000211288 -2.39363e-10 -1.8087e-10 7.26707e-11 5e-05 1.46608e-10 
57 1 0.313947 0.016975 0.00732797 0.00562719 6.00781e-05 -4.66541e-05 -3.93573e-11 -5.74319e-11 8.20964e-11 5e-05 1.46608e-10 
59 1 0.378022 0.019866 0.005332 -5.01981e-15 -7.41192e-15 7.69802e-14 5.98413e-24 -2.11965e-24 2.06795e-25 5e-05 1.46608e-10 
60 1 0.308298 0.0173771 0.00716695 0.00566857 -3.44116e-05 0.000157822 6.48515e-11 -2.03676e-11 -5.95821e-12 5e-05 1.46608e-10 
61 1 0.307618 0.0156833 0.00830472 0.00627261 -0.000243996 -3.33332e-05 -1.18404e-10 -1.50085e-10 1.02916e-10 5e-05 1.46608e-10 
62 1 0.308203 0.0173458 0.00717446 0.00563156 -3.49953e-05 0.000154324 2.59098e-10 2.26679e-10 -4.45339e-11 5e-05 1.46608e-10 
63 1 0.30819 0.0181266 0.00693021 0.00564921 -0.000198467 -0.000516312 -3.7644e-11 4.45626e-11 -2.08357e-11 5e-05 1.46608e-10 
64 1 0.313986 0.0171629 0.00727127 0.00561766 3.61026e-05 -0.000148467 -1.11278e-10 1.11445e-10 5.16369e-11 5e-05 1.46608e-10 
65 1 0.302094 0.0172643 0.00724299 0.00561255 4.04104e-05 0.000102317 4.29703e-11 5.64434e-11 -4.09063e-11 5e-05 1.46608e-10 
66 1 0.302208 0.018027 0.00703401 0.00563375 3.63841e-05 -0.000180445 1.7772e-11 -6.31862e-11 -1.39454e-12 5e-05 1.46608e-10 
67 1 0.308321 0.0179073 0.00699904 0.00561081 -1.29154e-05 0.00014828 -1.76354e-10 1.37758e-10 -4.54437e-11 5e-05 1.46608e-10 
68 1 0.308108 0.0173145 0.00718198 0.00565375 -2.95034e-05 0.000152063 1.4993e-10 -1.69445e-11 2.2869e-12 5e-05 1.46608e-10 
69 1 0.308396 0.017845 0.00702077 0.00561902 -1.76699e-05 0.000146846 -1.21208e-11 4.56334e-11 -2.32197e-11 5e-05 1.46608e-10 
70 1 0.314064 0.0175384 0.00715794 0.0056388 3.70332e-05 -0.000138773 7.65645e-11 -9.5471e-11 1.07342e-11 5e-05 1.46608e-10 
71 1 0.302508 0.0183419 0.00691517 0.00618227 -0.000176834 -0.000210666 2.08192e-10 6.28238e-11 -1.65614e-11 5e-05 1.46608e-10 
72 1 0.308361 0.0180944 0.0069406 0.00627587 -0.00011365 0.000194895 1.40079e-10 1.56035e-10 -1.3478e-10 5e-05 1.46608e-10 
73 1 0.308202 0.0169345 0.00736582 0.00563348 -0.000177202 -3.1553e-05 -3.99672e-11 1.31332e-10 -1.84986e-10 5e-05 1.46608e-10 
74 1 0.307762 0.0162301 0.00789746 0.00568315 7.96001e-05 0.000139154 6.32114e-10 -2.40049e-10 1.03611e-10 5e-05 1.46608e-10 
76 1 0.302111 0.0169372 0.00739338 0.00556864 6.37141e-05 9.09162e-05 2.44036e-11 2.26219e-11 -9.83733e-12 5e-05 1.46608e-10 
77 1 0.307994 0.0171892 0.00721888 0.00565065 -1.89104e-05 0.000153722 2.36915e-11 4.10201e-10 -1.29936e-10 5e-05 1.46608e-10 
78 1 0.301559 0.0155818 0.00858068 0.00612467 -0.000256144 -3.98061e-05 6.35027e-11 1.92525e-10 -2.06419e-10 5e-05 1.46608e-10 
79 1 0.302433 0.0184087 0.00691405 0.00621229 -0.000151964 -0.000213459 1.39515e-11 -7.84435e-12 4.22745e-12 5e-05 1.46608e-10 
80 1 0.308069 0.0171294 0.00724637 0.00566245 -3.68623e-05 0.000134553 -1.49806e-10 2.27129e-10 -2.01136e-10 5e-05 1.46608e-10 
82 1 0.302286 0.0179656 0.00704658 0.0056981 0.000154419 3.18468e-06 -6.37774e-12 -6.18359e-11 2.37691e-11 5e-05 1.46608e-10 
83 1 0.302304 0.0174125 0.00717616 0.00562178 -0.000117833 -5.81601e-05 -1.66034e-10 -3.15793e-11 1.54034e-11 5e-05 1.46608e-10 
84 1 0.314123 0.0178202 0.00707345 0.00562561 0.000204008 0.000441654 4.7884e-11 -1.336e-10 -4.47226e-11 5e-05 1.46608e-10 
85 1 0.302304 0.0186375 0.00690572 0.00622778 -0.000159654 -0.000213163 4.73187e-11 3.97834e-11 -4.46926e-12 5e-05 1.46608e-10 
86 1 0.308259 0.0171899 0.00722544 0.00567507 -3.67069e-05 0.000157655 -1.64254e-11 5.19969e-11 -1.68037e-11 5e-05 1.46608e-10 
87 1 0.308032 0.0169626 0.00734952 0.00565588 -0.000161444 -2.65653e-05 9.5031e-11 1.80699e-11 -1.8311e-10 5e-05 1.46608e-10 
88 1 0.308167 0.0175953 0.00709427 0.00562882 -3.02447e-05 0.000151702 2.70057e-10 -9.77081e-11 5.09125e-11 5e-05 1.46608e-10 
89 1 0.308301 0.0179841 0.0070598 0.00566322 9.28167e-05 0.000115814 -9.86157e-12 1.65702e-10 -7.39451e-11 5e-05 1.46608e-10 
90 1 0.308341 0.0180009 0.00696981 0.00583204 -4.17879e-05 0.000162717 -1.0928e-10 2.12556e-10 -8.19963e-11 5e-05 1.46608e-10 
91 1 0.302264 0.017235 0.0072601 0.00560663 1.53706e-05 0.00011375 -4.91024e-12 2.04952e-10 -1.19591e-10 5e-05 1.46608e-10 
92 1 0.308092 0.0176575 0.00707258 0.00565429 -4.21097e-05 0.000157678 7.04363e-11 -1.63634e-14 2.88311e-11 5e-05 1.46608e-10 
93 1 0.307843 0.016551 0.00767291 0.00563685 -0.000144369 -5.32162e-05 3.39788e-10 6.11339e-11 -4.39195e-11 5e-05 1.46608e-10 
94 1 0.308248 0.0181414 0.00701052 0.0056037 -0.000752751 -0.000436282 -1.17634e-10 -3.01659e-10 -3.03763e-10 5e-05 1.46608e-10 
95 1 0.308166 0.0177661 0.00712581 0.00562657 -2.46818e-05 0.000156716 2.05794e-10 -2.60756e-10 -4.77099e-12 5e-05 1.46608e-10 
96 1 0.308072 0.0175639 0.00710182 0.005658 -3.88933e-05 0.000156371 -1.83241e-11 -1.08685e-10 4.53131e-11 5e-05 1.46608e-10 
97 1 0.301646 0.0158477 0.00829485 0.00612759 -0.000228249 -6.95638e-05 1.75259e-11 -1.81451e-12 2.39739e-12 5e-05 1.46608e-10 
98 1 0.307822 0.0164713 0.00772962 0.00577761 -0.000165745 -7.7366e-05 6.67673e-11 1.29975e-11 7.57437e-11 5e-05 1.46608e-10 
99 1 0.302117 0.0177641 0.00699846 0.0057152 -2.34481e-05 -0.000108839 -1.07458e-11 -3.88478e-11 1.8554e-11 5e-05 1.46608e-10 
100 1 0.308282 0.0177202 0.00705751 0.00563886 -3.16764e-05 0.000154041 6.2841e-11 -1.00475e-11 1.09327e-11 5e-05 1.46608e-10 
101 1 0.302136 0.0178593 0.00697521 0.00569949 2.73866e-05 7.84912e-05 -3.14469e-11 -4.07159e-11 3.81311e-12 5e-05 1.46608e-10 
102 1 0.0643568 0.0187248 0.00531097 4.13784e-15 1.05615e-14 8.29585e-14 1.11566e-21 -1.64842e-22 -3.24668e-23 5e-05 1.46608e-10 
103 1 0.24257 0.0191927 0.00520306 -1.67314e-22 -3.03968e-22 -9.34062e-22 0 0 1.03398e-25 5e-05 1.46608e-10 
104 1 0.302486 0.0182444 0.00692145 0.00613865 -0.00023882 -0.000205745 -2.15335e-11 1.12209e-10 -1.5768e-11 5e-05 1.46608e-10 
105 1 0.301784 0.0159989 0.00812784 0.00611197 -0.000189649 -0.000108719 -2.61564e-10 2.98572e-11 -1.53049e-11 5e-05 1.46608e-10 
106 1 0.302133 0.0174429 0.00716194 0.00566058 3.74748e-05 0.00010393 -5.4596e-11 6.0812e-11 -3.27606e-12 5e-05 1.46608e-10 
107 1 0.30158 0.0156483 0.00850923 0.00612494 -0.000249977 -4.63351e-05 5.25967e-11 1.68225e-10 -1.8109e-10 5e-05 1.46608e-10 
108 1 0.308416 0.0179385 0.00699156 0.00574934 -3.94785e-05 0.000159089 1.44794e-10 -1.12985e-10 5.13453e-11 5e-05 1.46608e-10 
109 1 0.308491 0.0178758 0.00701342 0.00565323 -0.000132822 0.000186554 1.1929e-10 -2.0811e-10 6.33135e-11 5e-05 1.46608e-10 
110 1 0.307956 0.017017 0.00731073 0.00562606 -3.98028e-05 -0.000129625 -8.58912e-11 -8.32086e-11 4.49641e-11 5e-05 1.46608e-10 
111 1 0.307918 0.01686 0.00743014 0.00555259 -2.49774e-05 -0.000142384 6.76157e-11 2.84883e-10 -2.31374e-10 5e-05 1.46608e-10 
112 1 0.30192 0.0168922 0.00751567 0.00557153 3.49502e-05 9.04479e-05 -1.24268e-11 -4.13217e-11 6.3288e-11 5e-05 1.46608e-10 
113 1 0.302019 0.0173236 0.0072142 0.00564293 4.27077e-05 0.000101332 2.92938e-11 4.6504e-11 5.2144e-12 5e-05 1.46608e-10 
114 1 0.302078 0.0175899 0.00708941 0.00567935 -1.7763e-05 -7.83885e-06 -6.73993e-11 7.06165e-11 8.714e-11 5e-05 1.46608e-10 
115 1 0.308239 0.0170963 0.00725468 0.00567181 -4.02742e-05 0.000159337 -2.38742e-10 1.84712e-10 -8.67249e-11 5e-05 1.46608e-10 
116 1 0.308246 0.0179697 0.00697732 0.00564412 -2.01246e-05 0.000148229 -1.0855e-10 -1.95689e-10 9.03185e-12 5e-05 1.46608e-10 
117 1 0.308242 0.017533 0.00711599 0.00562165 -3.57083e-05 0.000154854 3.24002e-10 -3.23881e-11 3.96311e-12 5e-05 1.46608e-10 
118 1 0.302209 0.0173837 0.00719074 0.00564859 2.65354e-05 0.000111665 -6.1667e-11 8.80196e-11 -1.51288e-11 5e-05 1.46608e-10 
119 1 0.308437 0.018032 0.00696239 0.00599721 -8.54702e-05 0.000182199 -1.93037e-10 -1.41919e-10 3.89099e-11 5e-05 1.46608e-10 
120 1 0.30805 0.016675 0.00756574 0.00567975 -0.000164228 -3.98011e-05 1.23652e-10 -1.7757e-11 2.60963e-11 5e-05 1.46608e-10 
121 1 0.308331 0.0183492 0.00686737 0.00632462 -0.000112264 0.000275589 1.15395e-10 2.3885e-10 -8.27279e-11 5e-05 1.46608e-10 
122 1 0.308053 0.0174703 0.00713106 0.00566734 -1.02816e-05 0.000147758 -1.02293e-10 -4.07467e-10 1.1939e-10 5e-05 1.46608e-10 
123 1 0.302455 0.0185061 0.00690777 0.00623303 -0.000158133 -0.000213216 1.6543e-11 -8.7158e-11 6.539e-12 5e-05 1.46608e-10 
124 1 0.307956 0.01665 0.0075873 0.00566603 -0.00019134 -1.40813e-05 1.71574e-10 8.47486e-11 -1.47256e-10 5e-05 1.46608e-10 
125 1 0.308148 0.0175017 0.0071235 0.00565831 -3.16295e-05 0.000155075 -1.63809e-11 -9.32102e-11 4.36453e-11 5e-05 1.46608e-10 
127 1 0.301624 0.0157812 0.00836631 0.00612692 -0.000234729 -6.25665e-05 6.90533e-12 7.44432e-11 -7.84757e-11 5e-05 1.46608e-10 
128 1 0.307803 0.0163915 0.0077866 0.00584771 -0.000138642 -5.8792e-05 -2.67383e-10 -1.37003e-10 1.43664e-10 5e-05 1.46608e-10 
129 1 0.308171 0.0179158 0.00708014 0.00566119 -1.83997e-05 0.000151395 -1.38428e-11 -8.3498e-11 1.07387e-11 5e-05 1.46608e-10 
130 1 0.302172 0.017618 0.00707358 0.00568151 -4.24936e-05 -4.8639e-05 7.2706e-12 6.19678e-11 -3.41783e-11 5e-05 1.46608e-10 
131 1 0.302192 0.0177047 0.00702754 0.00566945 -3.62559e-05 -0.000104339 -7.7747e-11 2.61031e-11 -2.24812e-11 5e-05 1.46608e-10 
132 1 0.308144 0.0170669 0.00726767 0.0056623 -0.000108529 -7.93971e-05 -2.3564e-10 2.36698e-10 -2.02407e-11 5e-05 1.46608e-10 
133 1 0.308266 0.0180633 0.00694808 0.00564635 -2.41796e-05 0.000153506 -4.81977e-11 -9.36167e-11 1.24955e-10 5e-05 1.46608e-10 
134 1 0.308226 0.0178761 0.00700655 0.00563798 -2.30214e-05 0.000150629 -8.47891e-11 -1.18187e-10 6.2314e-11 5e-05 1.46608e-10 
135 1 0.308376 0.0177514 0.00705001 0.00563103 -2.43209e-05 0.000151196 -1.0874e-10 6.17213e-11 -1.77893e-11 5e-05 1.46608e-10 
136 1 0.30215 0.0171158 0.00731233 0.00559098 4.78636e-05 9.88555e-05 -3.07717e-11 3.09941e-11 -9.86458e-12 5e-05 1.46608e-10 
137 1 0.308281 0.0178905 0.00708906 0.00563184 -2.31753e-05 0.000150833 1.15239e-10 -2.20213e-10 4.57136e-11 5e-05 1.46608e-10 
138 1 0.308131 0.0178447 0.0070141 0.00565409 -1.85453e-05 0.000150351 2.15358e-11 -7.11795e-11 2.56139e-11 5e-05 1.46608e-10 
140 1 0.308014 0.0172831 0.00718956 0.00562679 -7.67121e-05 0.000168554 2.01662e-11 5.39601e-12 -2.80793e-12 5e-05 1.46608e-10 
141 1 0.301997 0.0164233 0.00766809 0.00568553 -5.34033e-05 3.50816e-05 -1.88979e-10 2.75545e-10 1.81557e-10 5e-05 1.46608e-10 
142 1 0.302381 0.0177622 0.00699833 0.00572501 -7.72381e-05 0.000100666 4.69448e-11 2.57118e-11 -2.42133e-11 5e-05 1.46608e-10 
143 1 0.301602 0.0157148 0.00843777 0.00612569 -0.000242575 -5.42382e-05 5.05277e-11 1.30554e-10 -1.39735e-10 5e-05 1.46608e-10 
144 1 0.302248 0.0175596 0.00710397 0.00567541 -5.72355e-05 -6.84714e-05 -5.92253e-11 5.79067e-11 1.21074e-11 5e-05 1.46608e-10 
146 1 0.301667 0.0159142 0.00822339 0.00612881 -0.000224448 -7.3668e-05 4.85412e-11 -9.27713e-11 9.49416e-11 5e-05 1.46608e-10 
147 1 0.302153 0.0175314 0.00711952 0.00567458 6.3571e-06 4.388e-05 -7.02213e-11 5.87829e-11 -7.68517e-11 5e-05 1.46608e-10 
148 1 0.302013 0.0164907 0.00759598 0.00572797 2.82355e-05 0.000110987 1.17281e-12 9.76174e-11 3.8977e-11 5e-05 1.46608e-10 
149 1 0.30788 0.0167035 0.00754916 0.0056176 -0.000165649 -3.88168e-05 3.30871e-10 -5.84835e-11 6.42169e-11 5e-05 1.46608e-10 
150 1 0.302283 0.0185401 0.006912 0.00622643 -0.000148485 -0.000213847 2.22179e-12 4.8365e-11 -2.62032e-12 5e-05 1.46608e-10 
151 1 0.302271 0.0180845 0.00693816 0.00619649 -0.000150288 -0.000212522 1.23278e-11 -2.99517e-11 7.29672e-12 5e-05 1.46608e-10 
153 1 0.302033 0.0165799 0.00755549 0.00573914 4.05956e-05 0.000108095 2.9918e-10 7.67309e-11 -1.96646e-11 5e-05 1.46608e-10 
154 1 0.301763 0.0159324 0.00819931 0.00613001 -0.000218666 -7.98024e-05 2.14968e-11 -6.17039e-14 -2.37811e-12 5e-05 1.46608e-10 
155 1 0.301944 0.0170009 0.00747012 0.0055864 0.0001095 7.28876e-05 1.4864e-11 1.20107e-11 -1.09014e-11 5e-05 1.46608e-10 
156 1 0.30198 0.016356 0.00774009 0.00568658 -0.000164424 -6.57653e-05 2.80204e-10 -2.23391e-10 -1.4479e-10 5e-05 1.46608e-10 
157 1 0.0219312 0.0187687 0.00551176 -3.83052e-14 8.16823e-14 2.95887e-13 -1.58661e-21 -6.11959e-22 -2.79173e-23 5e-05 1.46608e-10 
158 1 0.302072 0.0167585 0.00747446 0.00561254 6.30144e-05 9.18591e-05 -4.63177e-11 1.48516e-11 -4.82048e-11 5e-05 1.46608e-10 
159 1 0.308164 0.0171586 0.00723295 0.00567091 -3.1426e-05 0.000158452 -6.56706e-11 1.67529e-10 -1.56154e-11 5e-05 1.46608e-10 
160 1 0.302156 0.0179556 0.00695624 0.00568114 3.29124e-05 7.97484e-05 -1.03297e-11 -4.98386e-11 2.05768e-12 5e-05 1.46608e-10 
162 1 0.302234 0.018124 0.00702568 0.00610709 3.37551e-05 -0.00011965 -3.27286e-12 2.26374e-11 2.31101e-11 5e-05 1.46608e-10 
164 1 0.301748 0.0161812 0.00793676 0.00575164 -0.000179345 -0.000102216 -5.66186e-11 -8.45788e-11 8.7038e-11 5e-05 1.46608e-10 
165 1 0.302314 0.0182794 0.00692559 0.00622322 -0.000142982 -0.000215224 -1.29719e-11 2.67618e-11 6.31534e-12 5e-05 1.46608e-10 
166 1 0.308151 0.0179383 0.00698486 0.0056504 -1.57194e-05 0.000150063 -3.81451e-11 -7.71302e-11 2.43821e-11 5e-05 1.46608e-10 
167 1 0.302239 0.0183453 0.00692456 0.00622091 -0.000148715 -0.000212896 -3.72345e-11 -4.77614e-11 -5.35631e-14 5e-05 1.46608e-10 
168 1 0.302358 0.0184744 0.00691302 0.00622313 -0.000145499 -0.000213806 -5.41719e-11 1.51278e-12 -5.79861e-13 5e-05 1.46608e-10 
169 1 0.302261 0.0184427 0.00691828 0.00622314 -0.000146318 -0.000213361 -2.75253e-11 -3.72812e-11 1.37312e-11 5e-05 1.46608e-10 
170 1 0.302336 0.0183769 0.00691931 0.00621314 -0.000150459 -0.000213247 -4.77469e-11 -3.58731e-11 4.04453e-12 5e-05 1.46608e-10 
171 1 0.308382 0.0181882 0.00691136 0.00625768 -9.96907e-05 0.000189895 2.70638e-11 -2.4211e-11 4.42848e-11 5e-05 1.46608e-10 
172 1 0.301999 0.0172343 0.00725472 0.00561921 5.11872e-05 9.81648e-05 2.13138e-10 6.62075e-11 -3.04943e-11 5e-05 1.46608e-10 
173 1 0.308343 0.0181715 0.00700188 0.00590173 -8.17189e-05 4.61697e-05 -3.84735e-12 -1.13286e-10 -2.65618e-10 5e-05 1.46608e-10 
174 1 0.301787 0.016315 0.00779324 0.00579848 -0.000193179 -8.68605e-05 -7.45716e-11 -6.5656e-11 9.32799e-11 5e-05 1.46608e-10 
176 1 0.302075 0.017175 0.00728352 0.00559686 4.21544e-05 0.000100965 1.35792e-10 4.28874e-11 -1.27335e-11 5e-05 1.46608e-10 
177 1 0.301689 0.0159807 0.00815193 0.00612357 -0.000223453 -7.45779e-05 -7.64375e-11 -1.46461e-10 1.57059e-10 5e-05 1.46608e-10 
178 1 0.302156 0.0178411 0.00707152 0.00570744 2.54619e-05 7.12133e-05 2.48735e-11 -3.8497e-11 -1.29497e-11 5e-05 1.46608e-10 
179 1 0.302175 0.0180529 0.00694337 0.00566696 -2.00598e-07 -0.000202323 -4.95038e-12 -5.87036e-11 2.89841e-12 5e-05 1.46608e-10 
182 1 0.308407 0.0182851 0.0068812 0.00634123 -0.000131025 0.000209563 -3.66284e-11 -1.94991e-12 -4.00925e-11 5e-05 1.46608e-10 
183 1 0.302058 0.0175022 0.00713316 0.00566532 4.10704e-05 0.000102987 -3.88876e-11 7.28801e-12 2.91575e-11 5e-05 1.46608e-10 
184 1 0.308269 0.018235 0.00697987 0.00606351 -0.000192652 6.8797e-05 -1.63883e-10 -3.6992e-10 1.32258e-10 5e-05 1.46608e-10 
185 1 0.302267 0.0176454 0.00705657 0.00567851 -6.27184e-05 -8.47198e-05 6.98071e-11 3.12205e-11 4.14105e-11 5e-05 1.46608e-10 
186 1 0.302326 0.0187349 0.00689945 0.00622979 -0.000162341 -0.000212991 -1.21267e-11 -4.65894e-11 5.37311e-13 5e-05 1.46608e-10 
187 1 0.308286 0.0181573 0.00691933 0.00633731 -8.27163e-05 3.30162e-06 2.21528e-11 5.21744e-11 -1.91072e-10 5e-05 1.46608e-10 
188 1 0.308128 0.0174081 0.00715274 0.00565088 -2.51952e-05 0.000152143 5.68098e-11 -1.24701e-10 5.25901e-11 5e-05 1.46608e-10 
189 1 0.308253 0.0184102 0.00685613 0.00632359 -7.60626e-05 0.000374576 1.28104e-11 2.46145e-10 8.83893e-11 5e-05 1.46608e-10 
190 1 0.296248 0.0183781 0.0069044 0.00657644 0.00129236 -0.000112636 -5.23319e-11 -9.86957e-11 2.46843e-11 5e-05 1.46608e-10 
191 1 0.307899 0.0167816 0.00748974 0.00564594 -0.000178337 -3.01353e-05 2.05827e-11 -3.06855e-11 -8.58212e-11 5e-05 1.46608e-10 
192 1 0.302039 0.0174129 0.00717368 0.00565459 4.44257e-05 0.000100492 -1.27047e-10 1.64119e-11 -6.07527e-11 5e-05 1.46608e-10 
193 1 0.308457 0.0181254 0.00693322 0.00619811 -0.000132582 0.000204263 -2.16508e-10 -2.03655e-10 5.18857e-11 5e-05 1.46608e-10 
194 1 0.302311 0.0180611 0.00703016 0.00612424 7.19424e-05 8.17574e-05 8.28272e-11 1.01989e-10 1.32228e-11 5e-05 1.46608e-10 
195 1 0.302368 0.0181166 0.00693496 0.00622223 -0.000133369 2.51982e-05 -1.82542e-10 -4.40106e-12 -4.45471e-11 5e-05 1.46608e-10 
196 1 0.302326 0.0179236 0.00696522 0.00571869 -1.2458e-05 9.10699e-05 7.56665e-11 -2.95533e-11 1.25667e-11 5e-05 1.46608e-10 
197 1 0.295935 0.0169915 0.00753357 0.0056673 0.00105876 -0.0015122 -1.22103e-10 7.07565e-11 -6.65009e-11 5e-05 1.46608e-10 
198 1 0.302323 0.0174995 0.00713081 0.00561992 -0.000119771 -5.72945e-05 -1.53122e-10 -1.34186e-11 9.84877e-12 5e-05 1.46608e-10 
199 1 0.302152 0.0179396 0.00705487 0.00568724 2.61465e-05 8.0445e-05 8.58449e-12 -1.15992e-10 -2.14071e-11 5e-05 1.46608e-10 
200 1 0.301741 0.0158659 0.00827077 0.00612987 -0.000222152 -7.61238e-05 3.16973e-10 3.60732e-12 -2.00904e-11 5e-05 1.46608e-10 
201 1 0.30239 0.0182139 0.00692695 0.00621714 -0.000146302 -0.000138592 -1.48248e-10 -6.48348e-11 -3.83479e-11 5e-05 1.46608e-10 
202 1 0.302092 0.0168478 0.00743392 0.00556586 6.91579e-05 8.87145e-05 4.88133e-11 2.2744e-11 6.66988e-12 5e-05 1.46608e-10 
203 1 0.308207 0.0177825 0.00703579 0.00564585 -2.8198e-05 0.000154732 3.19097e-11 -7.46509e-11 3.67576e-12 5e-05 1.46608e-10 
204 1 0.302443 0.0180503 0.00694161 0.00618489 -0.000168476 0.000124944 -1.77804e-10 4.73551e-11 -1.76981e-11 5e-05 1.46608e-10 
205 1 0.301919 0.0164747 0.0076331 0.00570978 -2.68453e-05 -4.388e-05 7.80522e-11 -1.22483e-10 -5.74351e-11 5e-05 1.46608e-10 
206 1 0.301958 0.0166392 0.00752668 0.00572066 4.35351e-05 9.9834e-05 1.94913e-11 2.13351e-10 -1.01544e-10 5e-05 1.46608e-10 
207 1 0.301845 0.0161992 0.00791281 0.00594359 -0.000174408 -0.000119143 -1.76126e-10 -1.61717e-10 1.81667e-10 5e-05 1.46608e-10 
208 1 0.302362 0.0176735 0.00704024 0.00562255 -8.78928e-05 2.28028e-05 9.8865e-11 -1.1473e-11 -3.01709e-11 5e-05 1.46608e-10 
209 1 0.302189 0.0172944 0.00723128 0.00562439 3.04359e-05 0.00010572 -1.23501e-10 8.72394e-11 -2.11399e-11 5e-05 1.46608e-10 
210 1 0.307994 0.0168063 0.0074684 0.00565157 -0.000193437 -1.78511e-05 1.41173e-10 6.59499e-11 3.18827e-11 5e-05 1.46608e-10 
211 1 0.308013 0.0168845 0.00740897 0.00566654 -0.000182814 -1.88818e-05 1.95175e-10 4.05077e-11 2.76177e-11 5e-05 1.46608e-10 
212 1 0.302412 0.0183113 0.00692032 0.00621163 -0.000150804 -0.000213657 -3.8969e-11 -4.9767e-11 -8.25541e-13 5e-05 1.46608e-10 
213 1 0.308232 0.018315 0.00687785 0.00626969 -0.000124706 0.000169412 1.29531e-10 1.33989e-10 -2.70567e-10 5e-05 1.46608e-10 
214 1 0.308089 0.0172209 0.00721122 0.00566947 -2.83619e-05 0.000157609 8.66808e-12 1.37089e-10 -7.48617e-11 5e-05 1.46608e-10 
215 1 0.296142 0.0179033 0.0070197 0.00606864 0.00141161 -0.000158901 -7.10623e-11 3.5359e-11 -2.03657e-11 5e-05 1.46608e-10 
216 1 0.301826 0.0161323 0.00798462 0.00599791 -0.000174353 -0.000119286 -9.66167e-11 -1.88854e-10 1.94285e-10 5e-05 1.46608e-10 
217 1 0.308478 0.0182187 0.00690411 0.00632703 -0.000154521 0.000209239 -8.78678e-11 -1.10175e-10 1.66726e-10 5e-05 1.46608e-10 
218 1 0.302097 0.0176769 0.00704393 0.00568571 -6.4854e-05 -8.64502e-05 -1.49908e-11 2.80918e-11 -4.70833e-12 5e-05 1.46608e-10 
219 1 0.307861 0.0166254 0.00760859 0.00559446 -0.000148854 -4.5162e-05 4.04036e-10 -6.8798e-11 6.92021e-11 5e-05 1.46608e-10 
220 1 0.302212 0.0177949 0.00698922 0.00571206 3.44608e-05 7.88605e-05 -6.30697e-11 1.33883e-11 -1.16141e-11 5e-05 1.46608e-10 
222 1 0.308318 0.0174706 0.00713772 0.00563282 -3.31742e-05 0.000154433 1.19593e-10 -6.93809e-11 6.89368e-11 5e-05 1.46608e-10 
224 1 0.301997 0.0168178 0.00744566 0.00563369 4.81001e-05 0.000102633 1.17765e-10 3.19495e-11 -5.88858e-11 5e-05 1.46608e-10 
225 1 0.307937 0.0169384 0.00737049 0.00559162 -2.65559e-05 -0.000142219 4.24305e-11 2.32347e-10 -1.55109e-10 5e-05 1.46608e-10 
226 1 0.302402 0.0178581 0.00697946 0.00591066 -0.000115965 0.000111772 -2.06968e-11 4.37967e-11 -1.00588e-11 5e-05 1.46608e-10 
227 1 0.296162 0.0179984 0.00699661 0.00634616 0.00135147 -0.000134078 -1.66519e-10 1.08313e-10 -3.80796e-11 5e-05 1.46608e-10 
228 1 0.296105 0.0177135 0.00707021 0.00592044 0.00144052 -0.000170885 -5.13576e-11 1.69354e-11 6.88883e-12 5e-05 1.46608e-10 
229 1 0.30238 0.018572 0.00690673 0.00623388 -0.000156497 -0.000213586 8.62041e-11 -1.26284e-11 -4.27737e-12 5e-05 1.46608e-10 
230 1 0.301902 0.0167877 0.00745739 0.00557467 7.64458e-05 8.38432e-05 -7.56046e-11 -2.87183e-10 1.4639e-10 5e-05 1.46608e-10 
232 1 0.302335 0.0181583 0.0070196 0.0061804 3.23656e-05 -7.67895e-05 1.08673e-11 4.94547e-11 -5.01227e-11 5e-05 1.46608e-10 
233 1 0.302217 0.0182479 0.00693083 0.00621962 -0.000149022 -0.000215691 -2.54369e-11 -4.36572e-12 8.25201e-12 5e-05 1.46608e-10 
234 1 0.308033 0.0173767 0.00716031 0.00565268 -0.000115855 0.000181234 -1.71184e-11 -8.23033e-11 2.57235e-11 5e-05 1.46608e-10 
235 1 0.301862 0.0166092 0.0075384 0.00570857 2.32028e-05 0.000111563 8.74195e-11 7.82501e-11 2.00806e-11 5e-05 1.46608e-10 
236 1 0.30196 0.0170557 0.00733578 0.00559014 6.00838e-05 9.24841e-05 -2.13765e-11 6.30037e-11 -1.56901e-11 5e-05 1.46608e-10 
237 1 0.30198 0.017145 0.00729525 0.00559812 5.42167e-05 9.64158e-05 6.36605e-11 1.05383e-10 -6.67744e-11 5e-05 1.46608e-10 
239 1 0.295834 0.0166406 0.00787487 0.00626908 0.00099605 -0.00150813 -3.33778e-10 4.26818e-10 -3.80698e-10 5e-05 1.46608e-10 
240 1 0.295898 0.0168505 0.00767045 0.00530092 0.00112528 -0.00154379 -2.58691e-10 6.45659e-11 -3.29841e-11 5e-05 1.46608e-10 
241 1 0.295812 0.0165708 0.00794296 0.0061244 0.000998564 -0.00149702 9.23984e-11 3.05033e-10 -3.01586e-10 5e-05 1.46608e-10 
242 1 0.301961 0.016289 0.00781189 0.00568325 -0.000189405 -8.51399e-05 3.98124e-10 -7.99394e-11 -2.80091e-11 5e-05 1.46608e-10 
243 1 0.302306 0.0178291 0.00699117 0.00565412 -1.17136e-05 4.12482e-05 8.31589e-11 -4.46766e-11 -4.6533e-11 5e-05 1.46608e-10 
244 1 0.295857 0.0167101 0.00780695 0.00680673 0.000864108 -0.00143537 -1.65331e-10 5.62193e-11 -5.43772e-11 5e-05 1.46608e-10 
246 1 0.296024 0.0173447 0.00719116 0.00596072 0.00103493 -0.00151525 -1.1316e-10 -1.16909e-10 2.99085e-11 5e-05 1.46608e-10 
247 1 0.301805 0.0163822 0.00772124 0.00561671 -3.15646e-05 -0.000253438 -2.15624e-10 -2.44467e-10 1.82554e-10 5e-05 1.46608e-10 
248 1 0.302137 0.0177494 0.00710667 0.00556211 2.7045e-05 -1.18323e-05 -4.86473e-11 5.91455e-11 8.81814e-11 5e-05 1.46608e-10 
249 1 0.29597 0.017133 0.00739654 0.00584415 0.00104136 -0.00150893 2.44857e-10 3.61012e-11 -1.95188e-11 5e-05 1.46608e-10 
250 1 0.301882 0.0163332 0.00776916 0.00576307 -0.000144619 -0.000127443 -1.04784e-10 7.47373e-11 -9.09684e-11 5e-05 1.46608e-10 
251 1 0.308187 0.0176889 0.00706503 0.00563261 -3.41758e-05 0.000153985 1.4798e-10 -4.09609e-11 2.15545e-11 5e-05 1.46608e-10 
252 1 0.296044 0.0174281 0.0071397 0.00595973 0.00107482 -0.0014635 -1.55004e-10 -4.00532e-11 -1.55752e-10 5e-05 1.46608e-10 
253 1 0.296226 0.0182832 0.00692744 0.00655486 0.00129682 -0.000113866 -1.47391e-11 -5.01627e-11 -3.85127e-13 5e-05 1.46608e-10 
254 1 0.295989 0.0172036 0.00732851 0.00587206 0.00104198 -0.00151572 -2.04417e-10 1.21809e-11 -2.04581e-11 5e-05 1.46608e-10 
255 1 0.301537 0.0155153 0.00865214 0.00612498 -0.000260373 -3.53336e-05 6.79268e-11 2.0536e-10 -2.21153e-10 5e-05 1.46608e-10 
256 1 0.302581 0.0182741 0.00691637 0.00614221 -0.000216313 -0.000206233 7.64877e-11 -1.85453e-10 1.41389e-11 5e-05 1.46608e-10 
257 1 0.302053 0.0166692 0.00751499 0.00569152 4.82649e-05 9.89851e-05 9.22525e-11 4.10842e-11 -1.61699e-11 5e-05 1.46608e-10 
258 1 0.302231 0.0177755 0.007086 0.00559094 3.51621e-05 -0.000144398 5.24356e-11 -5.72361e-11 -3.2876e-11 5e-05 1.46608e-10 