ITEM: TIMESTEP
26400000
ITEM: NUMBER OF ATOMS
275
ITEM: BOX BOUNDS ff ff ff
-0.02 0.43
-0.02 0.06
-0.02 0.07
ITEM: ATOMS id type x y z vx vy vz fx fy fz radius mass 
1 1 0.167341 0.0173177 0.00742816 0.0056808 -0.00142704 0.00118898 -8.41227e-11 5.21743e-12 -1.31817e-11 5e-05 1.46608e-10 
2 1 0.166973 0.0176266 0.0072907 0.00565327 -0.00143681 0.0011883 -5.72082e-12 4.37718e-12 -8.6173e-12 5e-05 1.46608e-10 
4 1 0.166895 0.0169027 0.00748192 0.00571521 -0.00145155 0.00120122 2.43413e-11 -1.37596e-11 2.06928e-11 5e-05 1.46608e-10 
5 1 0.166435 0.0157391 0.00880833 0.00559905 -0.000615845 0.00141378 1.5161e-10 -1.39092e-10 2.57796e-10 5e-05 1.46608e-10 
6 1 0.172506 0.0159263 0.00859743 0.00618935 0.000288177 0.00102482 3.08535e-12 8.25521e-12 -3.72883e-12 5e-05 1.46608e-10 
7 1 0.166667 0.0163716 0.00793936 0.00544572 -0.000657443 0.00140051 4.64359e-10 1.99127e-10 -1.93819e-11 5e-05 1.46608e-10 
8 1 0.166822 0.0165675 0.00756521 0.00534176 -0.00120888 0.00108221 7.05666e-11 8.17918e-12 1.51031e-11 5e-05 1.46608e-10 
9 1 0.173166 0.0184689 0.0069468 0.00579342 6.81822e-05 -1.0288e-05 -1.50505e-10 -9.14624e-10 2.55616e-10 5e-05 1.46608e-10 
10 1 0.166575 0.0160841 0.00833773 0.0059295 -0.000649817 0.00150528 -2.91767e-10 3.99251e-11 -9.05608e-11 5e-05 1.46608e-10 
11 1 0.16706 0.0180095 0.00720709 0.00561068 -0.00142553 0.00117932 -6.25075e-12 1.42631e-11 6.88442e-12 5e-05 1.46608e-10 
12 1 0.160619 0.0160731 0.00806822 0.00571006 0.000733708 -0.000464891 1.22409e-13 -2.06484e-10 2.19591e-10 5e-05 1.46608e-10 
13 1 0.166413 0.0156816 0.00888696 0.00538494 -0.000593459 0.00136216 6.86948e-11 -1.88881e-10 2.75622e-10 5e-05 1.46608e-10 
14 1 0.160961 0.0173287 0.00737995 0.0059543 -0.000988243 0.000623966 -2.36611e-10 -1.20816e-10 -9.25307e-11 5e-05 1.46608e-10 
16 1 0.161457 0.0173296 0.00732701 0.00584108 -0.000831176 0.000605939 3.75203e-11 -6.0605e-11 1.33567e-11 5e-05 1.46608e-10 
17 1 0.166553 0.0160265 0.00841649 0.00598105 -0.000656761 0.00151177 2.26359e-10 9.12998e-11 -1.25864e-10 5e-05 1.46608e-10 
19 1 0.166391 0.0156239 0.00896579 0.0053857 -0.000593607 0.00136304 -1.33617e-10 -2.0511e-10 2.6357e-10 5e-05 1.46608e-10 
21 1 0.16713 0.0171585 0.00744319 0.00568398 -0.00142818 0.00118973 -3.60013e-11 1.59056e-11 -8.92924e-12 5e-05 1.46608e-10 
22 1 0.166813 0.0165115 0.00764755 0.00535292 -0.00124444 0.00105538 -6.47657e-11 8.41943e-11 -1.67021e-12 5e-05 1.46608e-10 
23 1 0.161181 0.0173277 0.00731006 0.00584401 -0.000918925 0.000629725 1.16022e-10 -2.64303e-10 5.80476e-11 5e-05 1.46608e-10 
24 1 0.173001 0.017759 0.00729364 0.0208601 0.0539639 -0.0400394 1.59732e-11 1.93079e-10 -1.31688e-10 5e-05 1.46608e-10 
25 1 0.166613 0.0161998 0.0081791 0.00563702 -0.00067324 0.00144693 7.55859e-10 -8.78651e-12 -2.16056e-10 5e-05 1.46608e-10 
26 1 0.173127 0.0182801 0.00700024 0.00576446 0.000388464 -0.000101289 -3.87173e-11 -1.95832e-10 5.53949e-11 5e-05 1.46608e-10 
27 1 0.160981 0.0172523 0.00731885 0.00586714 -0.000900002 0.000627206 -4.3324e-10 1.48431e-10 -1.6662e-10 5e-05 1.46608e-10 
28 1 0.16697 0.0168415 0.00750931 0.00572284 -0.00144337 0.00119935 8.68246e-11 2.36576e-11 5.72924e-12 5e-05 1.46608e-10 
29 1 0.16637 0.0155663 0.00904462 0.00541571 -0.000596758 0.00136922 -6.07512e-11 -1.15626e-10 1.68803e-10 5e-05 1.46608e-10 
30 1 0.166779 0.0167737 0.00750163 0.00525252 -0.00138041 0.00111582 -1.74916e-11 -3.46506e-11 -1.46967e-11 5e-05 1.46608e-10 
31 1 0.166629 0.0162578 0.00809931 0.00551024 -0.000651224 0.00143014 2.9631e-10 2.65802e-10 -1.98995e-10 5e-05 1.46608e-10 
32 1 0.166721 0.0164983 0.00768606 0.00535222 -0.00131152 0.00103185 2.50755e-11 -1.17885e-10 -2.90735e-11 5e-05 1.46608e-10 
33 1 0.172535 0.0160305 0.00853621 0.00810086 0.00544716 -0.0052222 4.98817e-11 1.57961e-10 -1.15002e-10 5e-05 1.46608e-10 
34 1 0.166531 0.0159689 0.00849516 0.00599975 -0.000658565 0.0015137 -3.50818e-11 1.69351e-10 -2.39181e-10 5e-05 1.46608e-10 
35 1 0.166949 0.0167463 0.00753295 0.00562138 -0.00151242 0.00120481 1.50901e-11 1.2059e-11 8.84357e-12 5e-05 1.46608e-10 
36 1 0.173224 0.0187592 0.00686462 0.0058788 0.00129864 -0.000359019 -5.36862e-11 -2.88719e-10 8.17636e-11 5e-05 1.46608e-10 
37 1 0.166854 0.0167127 0.00752922 0.00559566 -0.00144186 0.00118246 -6.79423e-11 8.8872e-11 -3.65033e-11 5e-05 1.46608e-10 
38 1 0.166991 0.0169363 0.00748589 0.00570924 -0.00143328 0.00119459 -1.68934e-11 -3.4424e-11 6.61697e-13 5e-05 1.46608e-10 
39 1 0.173108 0.0181835 0.0070286 0.00707576 -0.00539635 0.00137692 0 0 -1.43822e-09 5e-05 1.46608e-10 
41 1 0.166484 0.0158539 0.00865211 0.00597515 -0.000643047 0.00149846 7.01834e-11 8.13853e-11 -3.57759e-11 5e-05 1.46608e-10 
42 1 0.166736 0.0164477 0.00777105 0.00532779 -0.00135902 0.00102067 -1.64676e-10 -2.10035e-11 -4.71439e-11 5e-05 1.46608e-10 
44 1 0.167014 0.017031 0.00746255 0.00568852 -0.00143292 0.00119141 8.05603e-13 1.84139e-11 -6.11743e-12 5e-05 1.46608e-10 
45 1 0.17259 0.0162149 0.00840254 0.0106658 0.015115 -0.0121646 4.48277e-11 1.47792e-10 -1.07239e-10 5e-05 1.46608e-10 
47 1 0.166508 0.0159113 0.00857379 0.00598224 -0.000653833 0.00150579 6.73351e-11 1.43698e-10 -1.64325e-10 5e-05 1.46608e-10 
48 1 0.167081 0.0181011 0.00717344 0.0056132 -0.00142806 0.00117971 7.50437e-12 1.05829e-11 1.21122e-12 5e-05 1.46608e-10 
49 1 0.173185 0.0185633 0.00692009 0.00585922 0.000257692 -6.44427e-05 9.40418e-11 5.46627e-10 -1.53527e-10 5e-05 1.46608e-10 
50 1 0.16673 0.0165488 0.00760018 0.00534072 -0.00122484 0.00107546 2.74757e-11 2.12002e-11 6.58057e-13 5e-05 1.46608e-10 
51 1 0.166727 0.0165977 0.00769575 0.00519512 -0.00130084 0.00114308 -7.87298e-11 -1.38417e-10 -5.76624e-11 5e-05 1.46608e-10 
52 1 0.160581 0.0160097 0.00813567 0.00572455 0.000757571 -0.000500278 -4.23592e-10 -4.81196e-10 5.26236e-10 5e-05 1.46608e-10 
53 1 0.172764 0.0168093 0.00797263 0.0150015 0.03417 -0.025706 -4.4591e-12 2.00713e-10 -1.32766e-10 5e-05 1.46608e-10 
54 1 0.167225 0.0171906 0.0074474 0.00568679 -0.00143184 0.00119114 -6.56785e-11 6.48168e-11 -2.72759e-11 5e-05 1.46608e-10 
55 1 0.161053 0.0171208 0.00742224 0.00596049 -0.000901659 0.000663562 4.388e-10 1.01119e-10 1.02495e-10 5e-05 1.46608e-10 
56 1 0.166841 0.0164568 0.00772624 0.00536707 -0.00134381 0.000978694 -3.06121e-11 2.10455e-11 -6.02856e-11 5e-05 1.46608e-10 
57 1 0.172667 0.0164744 0.00821478 0.0134326 0.0241635 -0.018738 -4.54914e-11 2.14081e-10 -1.64123e-10 5e-05 1.46608e-10 
59 1 0.378022 0.019866 0.005332 -5.0196e-15 -7.41217e-15 7.69802e-14 4.05835e-24 -3.12778e-24 0 5e-05 1.46608e-10 
60 1 0.167087 0.0169688 0.00749011 0.00569036 -0.0014313 0.00119158 6.32152e-12 1.8339e-11 -4.31277e-12 5e-05 1.46608e-10 
61 1 0.166459 0.0157965 0.00873012 0.00588767 -0.000641404 0.00148263 -2.55763e-10 -5.5658e-13 5.00188e-11 5e-05 1.46608e-10 
62 1 0.167035 0.0171258 0.00743913 0.00568342 -0.00143087 0.0011903 -1.65528e-11 2.25447e-11 -1.05042e-11 5e-05 1.46608e-10 
63 1 0.167178 0.0181355 0.0071773 0.00560989 -0.00142434 0.00117833 9.94428e-13 -1.73674e-11 5.61138e-12 5e-05 1.46608e-10 
64 1 0.172873 0.0172377 0.00766584 0.0162522 0.0451448 -0.0332599 2.66531e-11 1.89364e-10 -1.31335e-10 5e-05 1.46608e-10 
65 1 0.161063 0.0175801 0.00732709 0.00587453 -0.000937548 0.000645431 4.19937e-11 -2.01208e-10 -1.57615e-10 5e-05 1.46608e-10 
66 1 0.161077 0.0179054 0.00721928 0.00585625 -0.000889873 0.000621603 -3.35115e-11 1.02413e-10 8.71654e-11 5e-05 1.46608e-10 
67 1 0.167122 0.0175049 0.00734539 0.00565989 -0.00143965 0.00118956 -7.6585e-12 5.64626e-11 -1.73669e-11 5e-05 1.46608e-10 
68 1 0.167057 0.0172206 0.00741564 0.00568164 -0.00142891 0.00118964 -1.5447e-11 1.85983e-11 -7.02921e-12 5e-05 1.46608e-10 
69 1 0.167152 0.0172532 0.00741978 0.00567034 -0.00142302 0.00118639 -3.35461e-11 -2.93734e-12 -3.80657e-12 5e-05 1.46608e-10 
70 1 0.173146 0.0183745 0.00697352 0.00580817 0.000391137 -0.00010198 -3.97679e-11 -1.97671e-10 5.59266e-11 5e-05 1.46608e-10 
71 1 0.161257 0.017266 0.00733236 0.00588209 -0.000870655 0.000619779 1.14524e-10 -2.6621e-10 8.91128e-11 5e-05 1.46608e-10 
72 1 0.167238 0.0176324 0.00732602 0.00564693 -0.00143885 0.00118756 4.94944e-11 2.97673e-12 6.10856e-12 5e-05 1.46608e-10 
73 1 0.166595 0.0161419 0.00825864 0.00578808 -0.000652861 0.00148658 -6.39607e-10 1.19765e-11 -3.09146e-10 5e-05 1.46608e-10 
74 1 0.166751 0.0166323 0.00753727 0.00534388 -0.00121036 0.00108247 2.96039e-12 -1.12433e-10 4.21161e-11 5e-05 1.46608e-10 
76 1 0.160969 0.0170215 0.00746941 0.00574391 -0.00104459 0.000470845 -3.47263e-11 -6.03574e-11 -1.8024e-10 5e-05 1.46608e-10 
77 1 0.167026 0.0174713 0.00734141 0.00566269 -0.00143745 0.00118941 1.29884e-11 6.68719e-11 -1.72568e-11 5e-05 1.46608e-10 
78 1 0.160443 0.0155767 0.00866669 0.00590116 0.000782647 -0.000519655 -6.97031e-11 -1.23821e-10 1.13247e-10 5e-05 1.46608e-10 
79 1 0.161167 0.0178679 0.00724242 0.00586386 -0.000860361 0.000628166 1.39248e-11 1.18669e-10 8.55224e-11 5e-05 1.46608e-10 
80 1 0.166888 0.0170721 0.00751893 0.00569837 -0.00144653 0.00119744 8.11089e-12 -2.56088e-11 1.77073e-11 5e-05 1.46608e-10 
82 1 0.160669 0.0162571 0.00784076 0.00586328 0.000757692 -0.000446241 1.91194e-10 2.8459e-10 -2.70189e-10 5e-05 1.46608e-10 
83 1 0.160938 0.0165896 0.0075539 0.00615161 -0.00102064 0.00018654 1.6209e-10 2.82501e-10 -1.52876e-10 5e-05 1.46608e-10 
84 1 0.173205 0.0186578 0.00689332 0.00567431 -2.55557e-05 1.43713e-05 -3.37393e-10 8.87672e-11 1.5087e-12 5e-05 1.46608e-10 
85 1 0.161474 0.0174364 0.00729771 0.00583649 -0.000896067 0.000624123 -3.06115e-10 -1.10958e-11 -1.53874e-11 5e-05 1.46608e-10 
86 1 0.166875 0.0168077 0.00750551 0.00567248 -0.00145123 0.0011945 5.06215e-12 2.26165e-11 -1.31088e-11 5e-05 1.46608e-10 
87 1 0.166697 0.016425 0.00786031 0.00546168 -0.000987562 0.00118128 -1.41223e-10 -3.03058e-11 -2.42428e-10 5e-05 1.46608e-10 
88 1 0.16704 0.0177372 0.0073549 0.00564808 -0.00145854 0.00118979 6.00186e-12 -1.02577e-11 2.62787e-12 5e-05 1.46608e-10 
89 1 0.167019 0.0176414 0.00737831 0.00565134 -0.00144321 0.00119181 -1.69584e-11 1.56018e-11 -1.98228e-12 5e-05 1.46608e-10 
90 1 0.167077 0.0179772 0.00730001 0.00560939 -0.00143008 0.00117872 7.50955e-13 9.04029e-12 8.04495e-12 5e-05 1.46608e-10 
91 1 0.160618 0.016131 0.00798671 0.00573198 0.000718611 -0.00046269 5.19855e-10 2.51743e-10 -2.01366e-10 5e-05 1.46608e-10 
92 1 0.167143 0.0175998 0.00732189 0.00565594 -0.00144261 0.00118961 1.78563e-11 1.32514e-11 2.81039e-12 5e-05 1.46608e-10 
93 1 0.166821 0.0169634 0.00745459 0.00570302 -0.00145595 0.0012004 1.00887e-11 -2.56423e-11 1.80459e-11 5e-05 1.46608e-10 
94 1 0.167135 0.0179457 0.00722424 0.0056092 -0.00142985 0.00117975 -3.62402e-11 -3.90517e-12 -3.6956e-12 5e-05 1.46608e-10 
95 1 0.167043 0.0178829 0.00731589 0.0056442 -0.0014303 0.0011848 -1.96504e-11 4.64868e-11 -8.11019e-12 5e-05 1.46608e-10 
96 1 0.167165 0.0176946 0.00729847 0.00564247 -0.00144146 0.00118751 3.73189e-11 5.54154e-12 5.25097e-12 5e-05 1.46608e-10 
97 1 0.160542 0.0158942 0.00829398 0.00552201 0.000827799 -0.0006078 -5.58549e-11 -1.06128e-10 2.36689e-10 5e-05 1.46608e-10 
98 1 0.166799 0.0168687 0.00747801 0.00571044 -0.00145669 0.00120367 3.02799e-13 -2.27026e-11 1.90387e-11 5e-05 1.46608e-10 
99 1 0.161133 0.0180933 0.00717541 0.00584096 -0.000814419 0.000590548 -1.14132e-10 4.13766e-11 -1.7601e-10 5e-05 1.46608e-10 
100 1 0.167078 0.0173154 0.00739223 0.00567207 -0.0014232 0.00118671 2.25912e-11 5.46345e-11 -1.18817e-11 5e-05 1.46608e-10 
101 1 0.161216 0.0180419 0.00719714 0.00582091 -0.000825527 0.000606849 6.91968e-12 2.26993e-10 -2.03901e-10 5e-05 1.46608e-10 
102 1 0.0643568 0.0187248 0.00531097 4.18492e-15 1.05485e-14 8.2958e-14 -1.3231e-21 8.25811e-22 -3.24668e-23 5e-05 1.46608e-10 
103 1 0.24257 0.0191927 0.00520306 -1.01195e-22 -3.03968e-22 1.23839e-22 0 0 0 5e-05 1.46608e-10 
104 1 0.161322 0.017558 0.00725348 0.0058318 -0.000906643 0.000628802 -4.77215e-11 -8.96281e-11 3.25119e-11 5e-05 1.46608e-10 
105 1 0.160503 0.0157624 0.00843898 0.00572685 0.000813176 -0.000571648 2.65912e-10 3.07064e-10 -4.08877e-10 5e-05 1.46608e-10 
106 1 0.161232 0.0175152 0.00725996 0.00582989 -0.000917192 0.000630842 -2.75612e-11 -2.20123e-10 3.27441e-11 5e-05 1.46608e-10 
107 1 0.160463 0.0156386 0.00859083 0.00594818 0.000781051 -0.000511911 4.0742e-12 2.83147e-10 -3.4284e-10 5e-05 1.46608e-10 
108 1 0.167173 0.017348 0.00739635 0.00567176 -0.00144026 0.00119137 -8.91754e-11 4.15992e-11 -2.35989e-11 5e-05 1.46608e-10 
109 1 0.166901 0.0166291 0.00755896 0.00555009 -0.00146965 0.00118249 -6.13986e-12 1.38876e-10 -4.97232e-11 5e-05 1.46608e-10 
110 1 0.166951 0.0175319 0.00731411 0.00565951 -0.00143605 0.00118867 -1.01736e-12 -1.00138e-11 4.77962e-12 5e-05 1.46608e-10 
111 1 0.166908 0.0173423 0.00736095 0.00567399 -0.00143641 0.00119072 -1.85297e-11 -2.82773e-11 1.956e-12 5e-05 1.46608e-10 
112 1 0.160561 0.0159477 0.00821156 0.0056363 0.000796385 -0.000561406 -4.17413e-10 -4.61254e-10 5.86158e-10 5e-05 1.46608e-10 
113 1 0.161205 0.0177605 0.00719512 0.00588469 -0.000893466 0.000629748 6.06923e-11 2.83578e-10 -1.20425e-10 5e-05 1.46608e-10 
114 1 0.161188 0.0180966 0.00709193 0.0058647 -0.00082667 0.000604259 -4.63822e-11 2.1303e-12 -4.59195e-11 5e-05 1.46608e-10 
115 1 0.16677 0.0167442 0.00759678 0.00525517 -0.00138652 0.00111425 -9.34269e-11 -8.76196e-11 -6.14275e-11 5e-05 1.46608e-10 
116 1 0.167246 0.0172855 0.00742396 0.00568061 -0.00143661 0.00119162 -9.85703e-11 7.0566e-11 -3.42073e-11 5e-05 1.46608e-10 
117 1 0.167182 0.0170015 0.00749423 0.00568386 -0.0014294 0.00119002 1.28384e-12 -1.90018e-12 1.52473e-12 5e-05 1.46608e-10 
118 1 0.161115 0.0169505 0.00741307 0.00592049 -0.000882872 0.000624671 -4.67786e-10 5.74684e-11 -5.15623e-11 5e-05 1.46608e-10 
119 1 0.167195 0.0174428 0.00737293 0.00566795 -0.00143665 0.00118988 -2.79428e-11 6.85385e-11 -2.18426e-11 5e-05 1.46608e-10 
120 1 0.166646 0.0163157 0.00801955 0.00541546 -0.000622425 0.00141692 1.2391e-10 3.02273e-10 -1.20147e-10 5e-05 1.46608e-10 
121 1 0.167362 0.0174128 0.00740462 0.00567583 -0.00142376 0.00118734 -2.65275e-11 -2.19222e-11 2.90563e-12 5e-05 1.46608e-10 
122 1 0.167069 0.0176614 0.00729442 0.00565015 -0.0014455 0.00118982 2.52449e-12 2.36894e-11 -6.56783e-12 5e-05 1.46608e-10 
123 1 0.16135 0.0173012 0.00732829 0.00584225 -0.000854039 0.000612029 5.04242e-11 1.28158e-10 -2.41096e-11 5e-05 1.46608e-10 
124 1 0.166817 0.0169356 0.00755057 0.00570003 -0.00143772 0.00120677 -3.17791e-11 -9.65524e-11 4.34642e-11 5e-05 1.46608e-10 
125 1 0.167108 0.0170635 0.0074667 0.00568356 -0.00143022 0.00119032 4.81859e-12 2.15998e-11 -6.41306e-12 5e-05 1.46608e-10 
127 1 0.160524 0.0158243 0.00836311 0.00559462 0.000828939 -0.000601287 2.47625e-10 1.84813e-10 -1.59112e-10 5e-05 1.46608e-10 
128 1 0.166749 0.0166941 0.00768084 0.00505605 -0.00126374 0.00114033 -1.12002e-10 -1.21295e-10 -1.00776e-10 5e-05 1.46608e-10 
129 1 0.167119 0.0178187 0.00734399 0.00563407 -0.001441 0.00118621 1.74343e-11 1.06363e-11 -1.97583e-12 5e-05 1.46608e-10 
130 1 0.161308 0.0174541 0.00728213 0.00583632 -0.000886495 0.000621916 -5.68804e-11 -1.32118e-10 5.33269e-11 5e-05 1.46608e-10 
131 1 0.161101 0.017999 0.00719297 0.00586676 -0.000877465 0.000603464 8.11944e-12 7.05175e-11 1.19973e-10 5e-05 1.46608e-10 
132 1 0.166917 0.0169974 0.0074585 0.00570124 -0.00144492 0.00119648 4.57323e-12 -2.19429e-11 2.22422e-11 5e-05 1.46608e-10 
133 1 0.167209 0.0178845 0.00725163 0.00561643 -0.00142451 0.00117925 -9.70159e-11 -3.17755e-11 -5.26935e-12 5e-05 1.46608e-10 
134 1 0.167216 0.0175376 0.00734944 0.00566312 -0.00143675 0.00118918 -4.78742e-12 -2.03515e-11 5.42534e-12 5e-05 1.46608e-10 
135 1 0.167064 0.0168739 0.00751348 0.00572568 -0.00141331 0.00119142 1.94574e-11 4.18102e-11 -7.2367e-12 5e-05 1.46608e-10 
136 1 0.161093 0.0168563 0.00743844 0.00597625 -0.000872164 0.000646713 3.76786e-10 -7.37658e-11 -7.78793e-11 5e-05 1.46608e-10 
137 1 0.167038 0.0179117 0.00722026 0.00563174 -0.00143365 0.00118451 1.5941e-11 4.93077e-11 -7.99649e-12 5e-05 1.46608e-10 
138 1 0.167384 0.0175076 0.0073812 0.00566637 -0.00142105 0.00118529 1.75529e-11 -3.62537e-11 1.25671e-11 5e-05 1.46608e-10 
140 1 0.166995 0.0177221 0.0072671 0.00564205 -0.00145199 0.00119085 2.50597e-12 1.84262e-12 -3.9976e-12 5e-05 1.46608e-10 
141 1 0.160787 0.0164026 0.00765991 0.00577144 0.000712599 -0.000513206 -1.17466e-09 -6.49952e-10 -1.47553e-10 5e-05 1.46608e-10 
142 1 0.160905 0.016505 0.00759575 0.00631353 -0.00105239 0.000186226 5.12384e-10 -5.51079e-11 1.65959e-10 5e-05 1.46608e-10 
143 1 0.160484 0.0157005 0.00851498 0.00593241 0.000787831 -0.00052433 8.81933e-11 3.31411e-10 -4.29737e-10 5e-05 1.46608e-10 
144 1 0.16108 0.0172869 0.00731525 0.00594741 -0.000925464 0.000641882 3.06383e-10 2.22716e-10 -7.46424e-11 5e-05 1.46608e-10 
146 1 0.160714 0.0164696 0.00764219 0.00586546 0.000735401 -0.000562404 -2.48795e-10 -8.45092e-11 1.01318e-10 5e-05 1.46608e-10 
147 1 0.161161 0.017233 0.00733573 0.00595869 -0.000935524 0.000642553 1.5081e-10 1.59025e-10 -5.77933e-11 5e-05 1.46608e-10 
148 1 0.160807 0.0164865 0.00760966 0.00591329 0.000545896 -0.000616667 4.53518e-11 -2.23358e-10 5.76501e-10 5e-05 1.46608e-10 
149 1 0.166864 0.0171538 0.00741156 0.00568112 -0.00144343 0.00119227 -2.47209e-11 -5.64018e-11 -5.561e-12 5e-05 1.46608e-10 
150 1 0.161468 0.0176857 0.00722643 0.00587135 -0.000931955 0.000636351 -1.75118e-10 -2.6003e-14 -9.35308e-12 5e-05 1.46608e-10 
151 1 0.161351 0.0179878 0.00713313 0.0058735 -0.000839795 0.000612526 -1.03274e-10 -5.95144e-11 4.05785e-12 5e-05 1.46608e-10 
153 1 0.160859 0.0166782 0.00751563 0.0051111 0.00245745 -0.00141872 -5.16524e-10 2.87624e-10 -9.28163e-11 5e-05 1.46608e-10 
154 1 0.160693 0.0163835 0.00768822 0.00585256 0.000739562 -0.000501439 -6.46813e-10 -2.14561e-10 3.12781e-10 5e-05 1.46608e-10 
155 1 0.160799 0.0168494 0.00743713 0.00585064 -0.00110205 0.000370834 2.56012e-09 -1.16529e-09 2.08625e-09 5e-05 1.46608e-10 
156 1 0.160678 0.0163157 0.00776027 0.00591243 0.000750677 -0.000474 -5.85938e-10 -1.78489e-10 -2.1849e-10 5e-05 1.46608e-10 
157 1 0.0219312 0.0187687 0.00551176 -3.84242e-14 8.16385e-14 2.95883e-13 -5.74167e-22 -5.67549e-22 9.24374e-23 5e-05 1.46608e-10 
158 1 0.160973 0.0167678 0.00747065 0.0058535 -0.000956368 0.000300928 4.65405e-10 -1.50612e-10 -1.974e-10 5e-05 1.46608e-10 
159 1 0.166939 0.0170921 0.00743516 0.00568402 -0.00143816 0.00119199 -2.30912e-11 -2.48359e-11 -5.96166e-13 5e-05 1.46608e-10 
160 1 0.161291 0.0181371 0.0070869 0.00561402 -0.000528115 0.000505122 8.60167e-12 2.05334e-10 -5.16796e-11 5e-05 1.46608e-10 
162 1 0.161153 0.0184073 0.00701612 0.00546397 -0.00111425 -0.000352536 1.46719e-10 5.14682e-10 6.74031e-10 5e-05 1.46608e-10 
164 1 0.160864 0.0171277 0.00734684 0.00592558 -0.000980519 0.000683338 3.93871e-10 5.23436e-12 5.43462e-10 5e-05 1.46608e-10 
165 1 0.161308 0.017798 0.00718436 0.00587453 -0.000891959 0.000625952 2.54685e-11 1.47434e-10 -2.30111e-11 5e-05 1.46608e-10 
166 1 0.167103 0.0181959 0.00715002 0.00560737 -0.00142746 0.00117885 1.08859e-11 1.87796e-11 -2.29948e-12 5e-05 1.46608e-10 
167 1 0.161383 0.0173926 0.0073044 0.00585385 -0.00084017 0.000608478 -3.99739e-11 -9.60003e-11 3.19782e-11 5e-05 1.46608e-10 
168 1 0.161366 0.0176474 0.00723086 0.00588302 -0.000881922 0.000622373 -8.23272e-11 9.81691e-11 -2.14252e-11 5e-05 1.46608e-10 
169 1 0.161328 0.0178925 0.00715884 0.00587526 -0.000884499 0.000623471 -5.43567e-11 9.70471e-11 -3.71923e-11 5e-05 1.46608e-10 
170 1 0.161387 0.0177417 0.00720543 0.00588628 -0.000896764 0.000627365 -8.10306e-11 9.41722e-11 -3.50428e-11 5e-05 1.46608e-10 
171 1 0.167311 0.0175701 0.00735359 0.00565656 -0.00143026 0.00118653 2.51546e-11 -3.0244e-11 1.19676e-11 5e-05 1.46608e-10 
172 1 0.161072 0.0180317 0.00710303 0.00588049 -0.000857422 0.000613168 -1.09288e-10 -1.8497e-10 3.27576e-11 5e-05 1.46608e-10 
173 1 0.167186 0.0177893 0.00727504 0.00563724 -0.0014413 0.0011868 -1.39299e-13 1.71843e-12 -1.71494e-12 5e-05 1.46608e-10 
174 1 0.161001 0.0170473 0.0073784 0.00594717 -0.000871329 0.000618549 1.71538e-10 -1.35636e-10 2.7192e-10 5e-05 1.46608e-10 
176 1 0.161197 0.0174233 0.0072839 0.00584601 -0.000903932 0.000627084 4.87649e-10 -2.36135e-10 8.87733e-11 5e-05 1.46608e-10 
177 1 0.160779 0.0167631 0.00748362 0.00563886 -0.00110124 0.000128542 2.41139e-10 -3.76459e-10 1.15878e-09 5e-05 1.46608e-10 
178 1 0.161144 0.017905 0.00714357 0.00587464 -0.000877983 0.000621986 -5.219e-13 -8.24515e-12 -4.74176e-12 5e-05 1.46608e-10 
179 1 0.161372 0.0180831 0.00710741 0.00570895 -0.000377895 0.000468681 -2.57048e-10 -1.30057e-10 6.25254e-12 5e-05 1.46608e-10 
182 1 0.167319 0.0172228 0.0074516 0.00568821 -0.00143217 0.00119144 -8.45824e-11 1.00741e-10 -3.97987e-11 5e-05 1.46608e-10 
183 1 0.161242 0.017614 0.00723249 0.00584222 -0.000898788 0.000629653 2.34501e-12 -1.5367e-10 8.16636e-11 5e-05 1.46608e-10 
184 1 0.16726 0.0177275 0.00730254 0.00564398 -0.00143745 0.0011867 -7.22686e-12 -3.32441e-12 -2.865e-13 5e-05 1.46608e-10 
185 1 0.161144 0.0171369 0.00736197 0.00597052 -0.000920763 0.000642226 4.98948e-10 2.05292e-10 1.75946e-13 5e-05 1.46608e-10 
186 1 0.161068 0.0170338 0.00747585 0.00576706 -0.000966667 0.00053821 -1.0181e-11 1.40983e-11 2.07331e-11 5e-05 1.46608e-10 
187 1 0.167156 0.0180407 0.00720072 0.00561281 -0.00142615 0.00117923 -1.98243e-11 -3.0946e-11 7.26028e-12 5e-05 1.46608e-10 
188 1 0.167004 0.0173765 0.00736483 0.00566998 -0.00142861 0.00118793 -5.85152e-12 4.87506e-12 -2.29975e-12 5e-05 1.46608e-10 
189 1 0.16723 0.0179794 0.00722814 0.00561427 -0.00142337 0.00117867 -8.57228e-12 -3.76977e-11 8.74219e-12 5e-05 1.46608e-10 
190 1 0.154964 0.0171906 0.00736336 0.0063059 0.000621541 -0.00079133 1.80137e-12 -3.63043e-12 -1.33461e-12 5e-05 1.46608e-10 
191 1 0.166886 0.0172485 0.00738796 0.00567765 -0.00143869 0.00119128 -5.15372e-11 -4.28072e-11 -2.40621e-11 5e-05 1.46608e-10 
192 1 0.161114 0.0182187 0.00705253 0.00551093 -0.000756708 0.000564201 -3.60528e-11 -1.00979e-10 -5.67717e-11 5e-05 1.46608e-10 
193 1 0.167268 0.0173803 0.00740053 0.00567628 -0.00143206 0.00118975 -4.34871e-11 5.86807e-11 -2.24635e-11 5e-05 1.46608e-10 
194 1 0.160748 0.0166413 0.007617 0.00563802 0.000256339 0.000711002 3.61235e-10 1.44836e-09 -1.27663e-09 5e-05 1.46608e-10 
195 1 0.161247 0.0179473 0.00713812 0.00588054 -0.00087052 0.000619691 -1.23007e-10 2.39781e-11 -3.16137e-11 5e-05 1.46608e-10 
196 1 0.161398 0.0174969 0.00727565 0.00583629 -0.00089499 0.000623644 -1.34679e-10 4.50642e-11 -2.39145e-11 5e-05 1.46608e-10 
197 1 0.154743 0.0165999 0.00755131 0.0058027 0.000760958 -0.00014599 2.44469e-11 1.77445e-11 8.69446e-11 5e-05 1.46608e-10 
198 1 0.16096 0.0166773 0.00751112 0.0059331 -0.000995305 0.000187154 4.26492e-10 9.228e-11 -2.62066e-10 5e-05 1.46608e-10 
199 1 0.161135 0.0183166 0.00705372 0.00548355 -0.000776309 0.000375644 -3.36187e-10 -1.07864e-10 -1.43883e-09 5e-05 1.46608e-10 
200 1 0.160636 0.0161962 0.00791286 0.00577263 0.000722956 -0.000471922 4.63924e-10 5.22927e-10 -3.36846e-10 5e-05 1.46608e-10 
201 1 0.161227 0.0178529 0.00716364 0.00586721 -0.000886406 0.000625502 8.43525e-11 9.23454e-11 2.65083e-11 5e-05 1.46608e-10 
202 1 0.160993 0.016859 0.00743502 0.00596195 -0.000912053 0.000504601 -6.94543e-11 -2.06422e-10 -1.314e-10 5e-05 1.46608e-10 
203 1 0.1671 0.0174102 0.00736881 0.00566514 -0.00144162 0.0011909 -4.63739e-11 4.97001e-11 -2.04069e-11 5e-05 1.46608e-10 
204 1 0.161275 0.0173628 0.007306 0.005819 -0.000880687 0.000619541 7.19112e-11 -4.13663e-11 1.42777e-11 5e-05 1.46608e-10 
205 1 0.160917 0.0169716 0.0073946 0.00592819 -0.000976537 0.000649503 -3.10828e-10 -4.63042e-10 4.82766e-10 5e-05 1.46608e-10 
206 1 0.160959 0.0171582 0.0073442 0.00585302 -0.00092125 0.000621908 5.78793e-11 -4.24659e-10 3.22266e-10 5e-05 1.46608e-10 
207 1 0.160815 0.0165972 0.00755629 0.00656004 -0.000247929 -0.000203755 -5.94657e-10 5.85391e-10 -2.39799e-10 5e-05 1.46608e-10 
208 1 0.161015 0.0169522 0.00740628 0.00594898 -0.000880573 0.000614192 -3.57507e-10 -3.43783e-10 -1.28572e-10 5e-05 1.46608e-10 
209 1 0.161073 0.0172059 0.00737355 0.00598542 -0.000907989 0.000670563 3.68705e-10 5.27982e-11 -1.59928e-10 5e-05 1.46608e-10 
210 1 0.166807 0.0168385 0.00757298 0.00572558 -0.00144401 0.00121049 -5.70141e-11 -5.81648e-11 1.65739e-11 5e-05 1.46608e-10 
211 1 0.166982 0.0172818 0.00738825 0.00567784 -0.00143214 0.00118998 6.60235e-12 2.47865e-11 -8.59068e-12 5e-05 1.46608e-10 
212 1 0.161285 0.017703 0.00720996 0.00589564 -0.000871087 0.00062223 1.95362e-11 2.4581e-10 -5.32461e-11 5e-05 1.46608e-10 
213 1 0.167252 0.0180742 0.00720472 0.00560811 -0.00142573 0.00117849 2.89044e-11 -2.07052e-12 4.80168e-12 5e-05 1.46608e-10 
214 1 0.166961 0.0171869 0.00741175 0.0056802 -0.00143507 0.00119107 -6.27627e-11 -2.55276e-11 -3.4664e-12 5e-05 1.46608e-10 
215 1 0.154915 0.01699 0.00737738 0.00613486 0.000453356 -0.000763631 1.34213e-11 -4.31991e-12 -9.32457e-12 5e-05 1.46608e-10 
216 1 0.160874 0.0167882 0.00746255 0.00579262 -0.00108137 0.000237099 -5.51875e-10 6.4473e-10 -3.48686e-10 5e-05 1.46608e-10 
217 1 0.16729 0.0174753 0.00737701 0.00567049 -0.00142988 0.00118839 5.44822e-12 -1.58291e-12 1.88355e-12 5e-05 1.46608e-10 
218 1 0.161209 0.0181913 0.00706634 0.00554493 -0.000642069 0.000532623 -5.20757e-11 1.2981e-10 -6.39617e-11 5e-05 1.46608e-10 
219 1 0.166843 0.0170582 0.00743117 0.00569694 -0.00144983 0.00119754 -2.13001e-11 -4.18886e-11 2.08915e-11 5e-05 1.46608e-10 
220 1 0.161172 0.0184974 0.00697697 0.00559894 -0.000829454 0.000576726 -8.64369e-11 4.45798e-10 -5.04409e-10 5e-05 1.46608e-10 
222 1 0.166886 0.0166315 0.00765788 0.0055568 -0.0015157 0.00118763 -4.79392e-11 -1.66805e-10 -6.62995e-11 5e-05 1.46608e-10 
224 1 0.161109 0.0170464 0.00738543 0.00593262 -0.000901527 0.000627431 -1.66957e-10 1.10457e-10 -5.42486e-11 5e-05 1.46608e-10 
225 1 0.166929 0.0174371 0.00733753 0.00566807 -0.0014343 0.00118926 -1.59058e-11 -2.30792e-11 3.55488e-12 5e-05 1.46608e-10 
226 1 0.161093 0.0181286 0.00709072 0.00586457 -0.000830903 0.000595949 -5.79869e-11 -1.75438e-10 -1.53962e-10 5e-05 1.46608e-10 
227 1 0.154891 0.0172581 0.00736959 0.00628261 0.000595779 -0.000787436 1.42315e-12 -1.22188e-12 -5.61246e-13 5e-05 1.46608e-10 
228 1 0.154891 0.0168954 0.00741022 0.00631705 0.000706778 -0.000103328 -3.79023e-12 2.43492e-12 8.88692e-12 5e-05 1.46608e-10 
229 1 0.161163 0.0176873 0.00730997 0.00586972 -0.00082992 0.00060136 -2.62521e-10 -1.26845e-10 1.32321e-11 5e-05 1.46608e-10 
230 1 0.161034 0.0175405 0.00724023 0.00589882 -0.000966329 0.000651745 -3.1739e-11 1.93871e-10 -8.69693e-11 5e-05 1.46608e-10 
232 1 0.161252 0.0183922 0.00701195 0.00563882 -6.94365e-05 0.000371158 1.13183e-11 6.0699e-12 -1.09968e-11 5e-05 1.46608e-10 
233 1 0.16144 0.0175846 0.00725341 0.00586765 -0.0009015 0.00062771 -9.16977e-11 5.79968e-11 -3.25388e-11 5e-05 1.46608e-10 
234 1 0.167048 0.0175666 0.00731791 0.00565383 -0.00144208 0.00118949 6.03472e-12 2.37803e-11 -2.616e-12 5e-05 1.46608e-10 
235 1 0.160949 0.0175078 0.00728207 0.00587989 -0.000901503 0.0006633 6.34625e-11 3.59954e-10 -4.17254e-11 5e-05 1.46608e-10 
236 1 0.161012 0.0177845 0.0072332 0.00580072 -0.000927546 0.000625109 -7.15935e-11 9.57885e-11 2.75158e-11 5e-05 1.46608e-10 
237 1 0.161029 0.0178432 0.00715386 0.00588025 -0.00092239 0.00062855 3.81721e-11 -2.2184e-11 9.19055e-11 5e-05 1.46608e-10 
239 1 0.154649 0.0162718 0.00790116 0.00570303 0.000182312 -0.00099412 -4.14635e-10 6.83811e-11 -1.62873e-10 5e-05 1.46608e-10 
240 1 0.154704 0.016439 0.00766028 0.00581378 0.000348119 -0.000807897 -1.81363e-10 8.32254e-11 2.01171e-10 5e-05 1.46608e-10 
241 1 0.154631 0.0162216 0.00798574 0.00566299 0.000175954 -0.000992832 1.80532e-10 -4.76925e-11 1.7755e-10 5e-05 1.46608e-10 
242 1 0.160732 0.0165486 0.00758345 0.00585462 0.000684196 -0.000622801 4.05496e-10 6.56344e-10 1.40967e-10 5e-05 1.46608e-10 
243 1 0.161212 0.0176017 0.00732706 0.00583723 -0.000848341 0.000642496 -2.42121e-11 2.29018e-11 1.78653e-10 5e-05 1.46608e-10 
244 1 0.154667 0.016322 0.00781658 0.0057679 0.000181066 -0.000997078 -1.48268e-10 3.24835e-11 -3.40834e-10 5e-05 1.46608e-10 
246 1 0.154857 0.0167184 0.00749687 0.00618197 0.000725545 -0.000118415 -4.05753e-11 2.92148e-11 1.94659e-12 5e-05 1.46608e-10 
247 1 0.160927 0.0171001 0.00741929 0.00595786 -0.000922829 0.000663099 8.1398e-10 -1.82157e-10 1.19136e-09 5e-05 1.46608e-10 
248 1 0.161162 0.0176702 0.00721147 0.00583851 -0.000908392 0.000628349 -1.66636e-10 -1.32392e-10 -3.40661e-11 5e-05 1.46608e-10 
249 1 0.154763 0.0166934 0.00752159 0.00611975 0.000640954 -0.000314354 -1.22965e-11 -9.53191e-12 -1.04722e-11 5e-05 1.46608e-10 
250 1 0.160895 0.0168763 0.00742026 0.00569077 -0.00100807 0.000667088 1.00094e-09 -1.19433e-09 7.42896e-10 5e-05 1.46608e-10 
251 1 0.167091 0.0177562 0.00727099 0.00563843 -0.00144383 0.00118747 1.54758e-11 -2.70933e-12 2.16082e-12 5e-05 1.46608e-10 
252 1 0.154804 0.0168795 0.00745795 0.00631034 0.000704017 -0.000120009 9.39273e-12 -9.33646e-13 5.76642e-11 5e-05 1.46608e-10 
253 1 0.154985 0.0172882 0.0073569 0.00627193 0.000629261 -0.000787489 2.19011e-12 -1.53437e-12 -1.97662e-13 5e-05 1.46608e-10 
254 1 0.154839 0.01663 0.00754011 0.00592488 0.000766073 -0.000146844 -5.79187e-12 3.95166e-11 3.67513e-11 5e-05 1.46608e-10 
255 1 0.160423 0.0155148 0.00874254 0.00587714 0.000779999 -0.000519197 -2.12496e-10 -6.02894e-10 7.70177e-10 5e-05 1.46608e-10 
256 1 0.161101 0.0173835 0.00728912 0.00584324 -0.000932384 0.000632791 -6.20924e-11 -3.94346e-10 1.59199e-10 5e-05 1.46608e-10 
257 1 0.16087 0.0170089 0.00747422 0.00571146 -0.000915683 0.000498436 -2.42181e-10 -4.43276e-11 3.723e-10 5e-05 1.46608e-10 
258 1 0.161077 0.0177208 0.00719205 0.00582624 -0.000922968 0.000629491 -2.02306e-10 1.00925e-10 -2.61536e-10 5e-05 1.46608e-10 
259 1 0.154826 0.0169713 0.00742021 0.00633416 0.000737436 -0.000225113 -5.42901e-12 8.32843e-13 -5.46921e-12 5e-05 1.46608e-10 
260 1 0.161269 0.0180421 0.00711255 0.00585624 -0.000842834 0.000613253 1.52667e-10 3.18449e-10 -7.58559e-11 5e-05 1.46608e-10 