ITEM: TIMESTEP
14800000
ITEM: NUMBER OF ATOMS
287
ITEM: BOX BOUNDS ff ff ff
-0.02 0.43
-0.02 0.06
-0.02 0.07
ITEM: ATOMS id type x y z vx vy vz fx fy fz radius mass 
1 1 0.0991195 0.0163713 0.00785986 0.00561927 0.000168603 -0.000123369 1.11902e-10 -7.78977e-12 2.941e-12 5e-05 1.46608e-10 
2 1 0.0997981 0.0180881 0.00701582 0.00587584 0.000339181 -7.6522e-05 9.45628e-11 1.46387e-10 -3.15408e-11 5e-05 1.46608e-10 
3 1 0.0929334 0.0159697 0.00813007 0.00563086 0.000369893 -1.17549e-05 6.67061e-13 -1.07888e-10 7.94265e-11 5e-05 1.46608e-10 
4 1 0.099454 0.0177013 0.00711106 0.0062959 2.47695e-06 -9.59648e-06 4.18087e-10 2.06138e-10 -2.89986e-11 5e-05 1.46608e-10 
5 1 0.0989853 0.0161974 0.00800752 0.00555925 0.000200097 -0.000150643 1.05059e-11 -7.20021e-11 6.3199e-11 5e-05 1.46608e-10 
6 1 0.105154 0.0168546 0.00754783 0.0059949 -0.000273029 -0.000124835 6.6782e-12 2.77013e-11 -1.27658e-11 5e-05 1.46608e-10 
7 1 0.0991657 0.016869 0.00743598 0.00622647 0.000118869 -7.72327e-05 -1.88062e-10 -1.24801e-10 7.69033e-11 5e-05 1.46608e-10 
8 1 0.0988874 0.015824 0.0083253 0.00550692 0.000233253 -0.00017889 6.29581e-11 7.98487e-11 -6.90721e-11 5e-05 1.46608e-10 
9 1 0.105423 0.0179733 0.00700756 0.00566513 -0.000198319 -0.000315888 -6.07343e-11 1.97036e-10 2.91001e-11 5e-05 1.46608e-10 
10 1 0.0991047 0.0166454 0.00762633 0.00609783 0.000132624 -8.75892e-05 6.44581e-11 2.60238e-10 -1.46802e-10 5e-05 1.46608e-10 
11 1 0.0996736 0.0178675 0.0070697 0.00562701 0.000167681 -4.98165e-05 -1.72481e-10 -3.62457e-10 9.38763e-11 5e-05 1.46608e-10 
12 1 0.0931167 0.0167092 0.00765086 0.00605031 7.13511e-05 -0.000311016 -2.81322e-11 4.76494e-11 -2.49518e-11 5e-05 1.46608e-10 
13 1 0.0989657 0.0161228 0.00807107 0.00554954 0.000205907 -0.000155558 8.24127e-11 -2.15602e-11 1.86085e-11 5e-05 1.46608e-10 
14 1 0.0928559 0.0156448 0.00834728 0.00565174 0.000203251 -0.000215006 -6.66078e-11 1.54263e-11 3.32766e-11 5e-05 1.46608e-10 
15 1 0.0993243 0.0171326 0.00725163 0.00631857 4.30011e-05 -1.96068e-05 -1.39523e-10 -1.92186e-10 1.67631e-11 5e-05 1.46608e-10 
16 1 0.0928372 0.0155936 0.0084311 0.00572981 -2.36465e-05 -0.00034257 1.60884e-10 -1.40711e-11 -1.23839e-11 5e-05 1.46608e-10 
17 1 0.0990843 0.0165708 0.00768978 0.00603815 0.000140252 -9.30829e-05 -3.46326e-10 1.07798e-10 -1.30335e-10 5e-05 1.46608e-10 
18 1 0.105301 0.0174245 0.00716892 0.00603908 -0.000416813 4.11213e-05 3.21548e-09 -2.21825e-09 -5.84148e-10 5e-05 1.46608e-10 
19 1 0.0989461 0.0160481 0.00813462 0.00555275 0.000211175 -0.000159911 2.12647e-11 6.77015e-11 -5.79141e-11 5e-05 1.46608e-10 
21 1 0.0990998 0.0162967 0.0079234 0.00554957 0.000181646 -0.00013459 3.07059e-11 -1.28337e-11 1.14713e-11 5e-05 1.46608e-10 
22 1 0.0992075 0.017018 0.00730923 0.00632089 8.12848e-05 -5.85663e-05 -5.16292e-11 -5.03144e-11 -6.51565e-11 5e-05 1.46608e-10 
23 1 0.0932541 0.0168909 0.00751538 0.00615931 5.66815e-05 -0.000306043 4.42815e-11 1.26087e-10 -9.88065e-11 5e-05 1.46608e-10 
24 1 0.105362 0.017681 0.00702785 0.00564361 -3.96756e-05 0.00054868 -2.2316e-10 -2.75316e-10 1.84863e-10 5e-05 1.46608e-10 
25 1 0.0991456 0.0167945 0.00749945 0.00616066 0.000120051 -8.04878e-05 -3.99578e-10 -5.04031e-12 2.22124e-11 5e-05 1.46608e-10 
26 1 0.105238 0.0171802 0.00733131 0.00609025 -0.000382046 -6.19399e-05 -1.60907e-10 -5.86268e-10 1.8879e-10 5e-05 1.46608e-10 
27 1 0.0932878 0.0172696 0.00734627 0.00628257 6.49686e-05 -0.000306433 1.73091e-10 3.48237e-10 3.23035e-10 5e-05 1.46608e-10 
28 1 0.0994324 0.0176065 0.00713448 0.00626027 3.46864e-07 -1.07298e-05 2.31725e-10 8.08076e-11 -1.81937e-11 5e-05 1.46608e-10 
29 1 0.0989265 0.0159734 0.00819817 0.00554472 0.000216361 -0.000164315 -9.42733e-11 9.95338e-11 -8.40288e-11 5e-05 1.46608e-10 
30 1 0.0993891 0.017417 0.00718134 0.00630435 1.38583e-05 -1.37284e-05 -5.14359e-11 -6.3612e-11 1.88303e-11 5e-05 1.46608e-10 
31 1 0.0991861 0.0169436 0.00737253 0.00627582 0.000108315 -7.29468e-05 -8.48707e-11 -6.1437e-11 4.58731e-11 5e-05 1.46608e-10 
32 1 0.0993032 0.0170423 0.00728897 0.00632116 4.73547e-05 -1.84479e-05 -1.75611e-10 -2.14329e-11 -8.45982e-11 5e-05 1.46608e-10 
33 1 0.105175 0.016936 0.0074937 0.00601937 -0.000296173 -0.000111479 -8.60273e-11 -3.57184e-11 2.12666e-11 5e-05 1.46608e-10 
34 1 0.099064 0.0164962 0.00775324 0.00580147 0.000171206 -0.000122812 -1.36347e-10 1.02529e-10 -8.61377e-11 5e-05 1.46608e-10 
35 1 0.0992824 0.0169678 0.0073523 0.00630098 5.58475e-05 -2.32261e-05 -1.50987e-10 -2.92742e-11 -5.70747e-11 5e-05 1.46608e-10 
36 1 0.105465 0.018169 0.00700292 0.00567935 -0.000210793 -0.000313935 5.77938e-11 1.09609e-10 6.5698e-12 5e-05 1.46608e-10 
37 1 0.0992407 0.0168188 0.00747906 0.00618096 7.98155e-05 -4.56554e-05 -7.71653e-11 4.17872e-11 -1.31372e-11 5e-05 1.46608e-10 
38 1 0.0994631 0.0173517 0.00719735 0.00632004 2.29915e-05 -1.55124e-05 -1.51559e-10 -5.12323e-11 5.90072e-12 5e-05 1.46608e-10 
39 1 0.105382 0.0177777 0.00701234 0.00563632 -0.0001721 -0.000299179 -1.045e-10 7.9505e-11 1.49193e-09 5e-05 1.46608e-10 
41 1 0.0990246 0.0163469 0.00788031 0.00557927 0.00020666 -0.000156052 3.76812e-12 5.00437e-11 -4.42794e-11 5e-05 1.46608e-10 
42 1 0.0992278 0.0171022 0.00725929 0.00633025 7.39942e-05 -3.44984e-05 -2.32417e-11 -1.84263e-10 -3.11776e-11 5e-05 1.46608e-10 
44 1 0.0994848 0.0174465 0.00717391 0.00631035 2.25749e-05 -1.54035e-05 2.95667e-11 5.77664e-11 -1.7342e-11 5e-05 1.46608e-10 
45 1 0.105196 0.0170174 0.00743957 0.00605088 -0.000322509 -9.54142e-05 5.0243e-11 -4.78429e-11 3.8071e-11 5e-05 1.46608e-10 
46 1 0.10528 0.0173431 0.00722305 0.00619658 -0.000442412 3.25941e-05 9.91324e-10 -4.18099e-10 -1.26334e-09 5e-05 1.46608e-10 
47 1 0.0990442 0.0164216 0.00781676 0.00558837 0.00020257 -0.000152353 5.24006e-11 4.60116e-11 -2.26601e-11 5e-05 1.46608e-10 
48 1 0.0992711 0.0172918 0.00721243 0.00629363 1.04082e-05 -1.24777e-05 7.87446e-11 2.21644e-10 -5.70812e-11 5e-05 1.46608e-10 
49 1 0.105259 0.0172617 0.00727718 0.00613408 -0.000428155 -3.27621e-05 -6.38833e-10 -2.03566e-10 4.61651e-10 5e-05 1.46608e-10 
50 1 0.099336 0.0175763 0.0071421 0.00625217 -5.84045e-06 -8.68424e-06 1.42829e-11 8.37261e-11 -1.41196e-12 5e-05 1.46608e-10 
51 1 0.0993144 0.0174815 0.00716552 0.00625996 1.012e-06 -1.00907e-05 -8.98191e-11 -7.16324e-11 1.11719e-11 5e-05 1.46608e-10 
52 1 0.0930957 0.01663 0.00770821 0.00600553 7.07223e-05 -0.000308925 2.55905e-10 3.9165e-11 -2.74102e-11 5e-05 1.46608e-10 
53 1 0.105323 0.0175072 0.00711712 0.00607777 -0.000223868 0.000379255 -6.01507e-10 8.87374e-10 1.38406e-09 5e-05 1.46608e-10 
54 1 0.09908 0.016222 0.00798694 0.0055635 0.000185351 -0.000137968 -4.91882e-11 -3.14114e-12 3.13219e-12 5e-05 1.46608e-10 
55 1 0.0928947 0.0158026 0.00823182 0.00561333 0.000370138 -8.95135e-06 4.98654e-12 3.60763e-12 6.70275e-11 5e-05 1.46608e-10 
56 1 0.0992612 0.0168933 0.00741563 0.00624306 6.84885e-05 -3.50176e-05 -1.81279e-10 4.42388e-12 -3.44402e-11 5e-05 1.46608e-10 
57 1 0.105217 0.0170988 0.00738544 0.00606922 -0.000349534 -7.93032e-05 1.38589e-10 -2.4386e-10 1.84526e-10 5e-05 1.46608e-10 
59 1 0.0993787 0.0169925 0.00733158 0.00635313 5.89849e-05 -2.37568e-05 -7.1654e-11 2.4482e-10 -2.73082e-10 5e-05 1.46608e-10 
60 1 0.0993981 0.0170672 0.007268 0.00633129 4.76027e-05 -1.69944e-05 4.50669e-10 2.60659e-10 -2.76008e-10 5e-05 1.46608e-10 
61 1 0.099005 0.0162722 0.00794387 0.00555847 0.000147275 -0.000105148 -1.46433e-11 9.7871e-11 -8.60288e-11 5e-05 1.46608e-10 
62 1 0.0995064 0.0175413 0.00715048 0.00629609 1.78239e-05 -1.36952e-05 -2.19199e-11 -2.84545e-10 7.99521e-11 5e-05 1.46608e-10 
63 1 0.0994137 0.0176785 0.00720137 0.00620147 -2.55794e-05 -7.46054e-06 3.27039e-11 -1.30175e-10 2.01055e-11 5e-05 1.46608e-10 
64 1 0.105343 0.0175901 0.00706519 0.00612041 -0.000105144 0.000618445 -6.09787e-10 3.46451e-11 3.98606e-10 5e-05 1.46608e-10 
65 1 0.0933998 0.0176199 0.00715662 0.00557244 0.000274808 8.32424e-05 -2.55395e-10 4.24713e-10 -1.20817e-10 5e-05 1.46608e-10 
66 1 0.0934057 0.0173729 0.00726808 0.00647606 0.000411206 -0.000341832 -1.48546e-09 3.47055e-10 1.59478e-11 5e-05 1.46608e-10 
67 1 0.0996526 0.0177725 0.00709318 0.00581883 0.000141963 -4.31549e-05 8.59403e-10 3.05517e-10 -4.4003e-11 5e-05 1.46608e-10 
68 1 0.099549 0.0177315 0.00710345 0.00630144 8.66937e-05 -2.73712e-05 1.87307e-10 -1.0569e-10 1.82196e-11 5e-05 1.46608e-10 
69 1 0.0991796 0.0165951 0.0076694 0.00605339 9.49734e-05 -5.77118e-05 -5.42319e-11 2.56697e-11 2.99844e-12 5e-05 1.46608e-10 
70 1 0.105403 0.0178755 0.00700988 0.00565376 -0.000186964 -0.000318009 4.5262e-13 1.61579e-10 1.11964e-10 5e-05 1.46608e-10 
71 1 0.0928754 0.0157188 0.00828284 0.00563215 0.000369539 -1.42141e-05 4.60527e-11 -1.73779e-11 2.54279e-11 5e-05 1.46608e-10 
72 1 0.099528 0.0176361 0.00712705 0.0062565 2.24198e-05 -1.44647e-05 3.23529e-10 -3.44964e-10 1.14058e-10 5e-05 1.46608e-10 
73 1 0.099125 0.0167199 0.00756288 0.00613337 0.000120098 -8.05835e-05 8.70863e-11 1.65083e-10 -3.90405e-11 5e-05 1.46608e-10 
74 1 0.0993461 0.0172274 0.00722823 0.00631501 3.71321e-05 -1.64453e-05 -8.33005e-11 -8.46426e-11 6.1282e-11 5e-05 1.46608e-10 
76 1 0.0934001 0.0174494 0.00711101 0.00614892 0.000544432 -0.000570644 1.14668e-09 -2.71044e-10 -2.72416e-10 5e-05 1.46608e-10 
77 1 0.099576 0.0182743 0.00697041 0.0058632 0.000230043 -4.89162e-05 4.51436e-10 1.8428e-10 -3.07663e-11 5e-05 1.46608e-10 
78 1 0.0929529 0.0160535 0.00807908 0.00562981 0.000385107 -2.09062e-05 -6.55725e-11 -3.08324e-10 2.00408e-10 5e-05 1.46608e-10 
79 1 0.0932692 0.0169889 0.00755607 0.00622816 2.52504e-05 -0.000290544 1.13765e-10 4.18321e-12 -1.63029e-10 5e-05 1.46608e-10 
80 1 0.0993793 0.0177659 0.00709524 0.00625696 1.74051e-05 -1.51005e-05 2.834e-10 5.89106e-10 -1.36183e-10 5e-05 1.46608e-10 
81 1 0.0931766 0.016957 0.00757824 0.00611892 7.88015e-05 -0.000326094 -1.29198e-10 1.00688e-10 -1.42231e-10 5e-05 1.46608e-10 
82 1 0.0931796 0.0169467 0.00747881 0.00616828 7.88743e-05 -0.000322538 -1.50192e-10 -1.40261e-10 3.97544e-11 5e-05 1.46608e-10 
83 1 0.0932867 0.0166767 0.00766669 0.00605802 3.55277e-05 -0.000286223 -2.40038e-10 9.45749e-11 -4.38639e-11 5e-05 1.46608e-10 
84 1 0.105444 0.0180712 0.00700524 0.0056774 -0.000206205 -0.00031471 3.21602e-11 1.57417e-10 -3.60209e-11 5e-05 1.46608e-10 
85 1 0.0930671 0.0161662 0.00801386 0.00572691 0.000324035 1.98634e-05 1.69602e-10 -2.07984e-10 1.67156e-10 5e-05 1.46608e-10 
86 1 0.0994107 0.0175118 0.00715791 0.00627792 5.0283e-06 -1.20184e-05 -9.90947e-11 6.48703e-12 -2.1836e-11 5e-05 1.46608e-10 
87 1 0.0993579 0.0169179 0.00739504 0.00625973 1.40077e-05 1.23235e-05 -2.14422e-10 -2.90127e-11 2.80027e-11 5e-05 1.46608e-10 
88 1 0.0994368 0.0180377 0.00702805 0.00574243 0.000148917 -4.55493e-05 -8.3234e-11 4.32014e-11 4.18398e-11 5e-05 1.46608e-10 
89 1 0.0993998 0.0178609 0.00707175 0.00564367 0.000113813 -3.53818e-05 -3.74429e-10 1.64666e-10 -8.71608e-12 5e-05 1.46608e-10 
90 1 0.0997708 0.0178903 0.00706391 0.00563627 0.000108057 -3.71133e-05 1.60333e-10 3.62231e-11 -6.70922e-11 5e-05 1.46608e-10 
91 1 0.0931377 0.0167883 0.00759351 0.00608748 7.9288e-05 -0.000319758 3.01556e-12 7.33472e-11 -3.25783e-11 5e-05 1.46608e-10 
92 1 0.0995905 0.0179214 0.00705653 0.0056566 0.000233789 -6.00338e-05 -6.42895e-10 -1.74055e-10 -2.25605e-11 5e-05 1.46608e-10 
93 1 0.0995169 0.0180919 0.00707319 0.00581132 0.000154554 -7.14447e-05 3.36269e-11 7.66823e-11 -1.49786e-10 5e-05 1.46608e-10 
94 1 0.0996515 0.0182105 0.00698596 0.00584872 0.000188808 -3.95474e-05 -2.91132e-10 5.35076e-11 -1.16971e-11 5e-05 1.46608e-10 
95 1 0.0993868 0.0177746 0.00719457 0.00617243 -3.14863e-05 -3.69781e-06 -1.22195e-12 -1.00866e-10 -4.62514e-11 5e-05 1.46608e-10 
96 1 0.0996433 0.0180039 0.00703613 0.00577855 0.000172852 -5.3288e-05 -2.48552e-10 -3.93606e-10 2.14559e-10 5e-05 1.46608e-10 
97 1 0.0930538 0.0164716 0.00782292 0.00594022 8.1949e-05 -0.000314071 -1.0681e-10 -1.5504e-10 1.11694e-10 5e-05 1.46608e-10 
98 1 0.0994567 0.0181328 0.00700464 0.00577104 0.00014836 -2.90199e-05 -6.97303e-11 -5.19351e-11 -5.31013e-11 5e-05 1.46608e-10 
99 1 0.0934649 0.0175396 0.00717897 0.00594226 0.00142608 -0.000183009 1.97468e-11 1.08665e-11 3.83896e-10 5e-05 1.46608e-10 
100 1 0.0995802 0.0174757 0.00716656 0.00631189 2.80069e-05 -1.67481e-05 1.55591e-10 -1.96876e-10 4.71788e-11 5e-05 1.46608e-10 
101 1 0.0931827 0.0168736 0.00763303 0.00610706 6.91532e-05 -0.000326448 -7.96097e-11 2.05215e-10 -9.86057e-11 5e-05 1.46608e-10 
102 1 0.0643568 0.0187248 0.00531097 4.44104e-15 1.04548e-14 8.29567e-14 -1.30477e-21 3.30226e-22 2.99853e-23 5e-05 1.46608e-10 
103 1 0.24257 0.0191927 0.00520306 -1.01195e-22 -3.03968e-22 8.29106e-22 0 0 0 5e-05 1.46608e-10 
104 1 0.0934133 0.0171525 0.00732209 0.00637972 9.83851e-05 -0.000347011 9.77927e-11 1.32961e-10 -9.58916e-11 5e-05 1.46608e-10 
105 1 0.0930116 0.0163053 0.00792579 0.00560609 0.000516189 -0.000102954 -2.00857e-11 1.94674e-10 -1.01372e-10 5e-05 1.46608e-10 
106 1 0.0935097 0.0171767 0.00730064 0.00646761 0.000127363 -0.000368894 -4.20224e-10 4.82426e-11 -2.37437e-11 5e-05 1.46608e-10 
107 1 0.0929724 0.0161373 0.00802804 0.00563812 0.000506084 -9.52986e-05 2.40334e-11 -1.12015e-10 6.07479e-11 5e-05 1.46608e-10 
108 1 0.0992208 0.0167442 0.00754257 0.00613144 8.5683e-05 -5.12712e-05 -3.66422e-11 4.58227e-11 -1.03682e-11 5e-05 1.46608e-10 
109 1 0.0992927 0.0173868 0.00718895 0.00628249 8.15127e-06 -1.28048e-05 -8.25183e-12 -5.27278e-11 3.47163e-12 5e-05 1.46608e-10 
110 1 0.0996942 0.018406 0.00693854 0.00577797 0.000436239 -0.000100794 -5.11943e-11 2.61459e-10 -5.22679e-11 5e-05 1.46608e-10 
111 1 0.0995405 0.0183972 0.00702346 0.00587656 0.000167488 -3.94742e-05 -2.58131e-10 1.97501e-10 -1.74912e-10 5e-05 1.46608e-10 
112 1 0.0930747 0.0165508 0.00776557 0.00598193 7.5074e-05 -0.00031106 2.21412e-11 -3.03062e-11 9.39107e-12 5e-05 1.46608e-10 
113 1 0.0936928 0.0179921 0.00699781 0.00585241 0.000270563 0.000104026 -1.36303e-11 -8.86217e-11 3.53446e-11 5e-05 1.46608e-10 
114 1 0.093639 0.0175012 0.00719671 0.00536107 0.000886765 -0.000199735 1.71977e-10 -1.918e-10 4.52551e-11 5e-05 1.46608e-10 
115 1 0.0993675 0.0173222 0.00720477 0.00630722 2.83702e-05 -1.53573e-05 -4.4842e-11 -7.6954e-11 4.85643e-11 5e-05 1.46608e-10 
116 1 0.0992 0.0166697 0.00760595 0.00609484 8.83978e-05 -5.31286e-05 -1.29009e-10 4.54641e-11 -1.20505e-11 5e-05 1.46608e-10 
117 1 0.0990604 0.0161473 0.00805049 0.00555431 0.000194854 -0.000146059 6.90616e-11 -3.02172e-11 2.41209e-11 5e-05 1.46608e-10 
118 1 0.0929139 0.01589 0.00818724 0.00561003 0.00037366 -1.26788e-05 1.8843e-10 -1.85487e-11 -1.30932e-10 5e-05 1.46608e-10 
119 1 0.0994199 0.0171619 0.00724427 0.00630812 3.97021e-05 -1.94538e-05 9.35086e-11 7.4129e-11 1.41606e-11 5e-05 1.46608e-10 
120 1 0.0989069 0.0158987 0.00826173 0.00552448 0.000223369 -0.00017031 4.63603e-12 6.64845e-11 -5.69779e-11 5e-05 1.46608e-10 
121 1 0.098868 0.0157493 0.00838886 0.00550205 0.000240034 -0.000184705 1.92599e-11 1.08253e-10 -9.25312e-11 5e-05 1.46608e-10 
122 1 0.0996185 0.0184696 0.00692303 0.00562364 0.000188194 -4.0135e-05 -6.38995e-11 5.50745e-11 -8.23224e-12 5e-05 1.46608e-10 
123 1 0.0931071 0.0163336 0.007912 0.00591138 0.000286435 5.33337e-05 -2.12059e-10 8.64284e-11 -1.10077e-10 5e-05 1.46608e-10 
124 1 0.0994944 0.0178946 0.00706328 0.00583841 8.69765e-05 -3.51912e-05 -2.61791e-10 -5.40664e-11 -3.25552e-11 5e-05 1.46608e-10 
125 1 0.0990408 0.0160727 0.00811404 0.00556273 0.000195949 -0.000146853 1.30593e-11 -2.34747e-11 1.97792e-11 5e-05 1.46608e-10 
126 1 0.0992494 0.017197 0.00723586 0.00632091 6.21688e-05 -2.51163e-05 -9.87617e-11 -3.28604e-10 8.51297e-11 5e-05 1.46608e-10 
127 1 0.0930325 0.0163889 0.00787498 0.00595554 0.000348178 1.63072e-05 1.66502e-11 2.91318e-10 -1.81592e-10 5e-05 1.46608e-10 
128 1 0.0993576 0.0176711 0.00711867 0.0062462 2.64526e-06 -1.36994e-05 1.35234e-10 3.74542e-10 -1.4236e-10 5e-05 1.46608e-10 
129 1 0.0994202 0.0179578 0.00708585 0.00583551 0.000101083 -6.61543e-05 -1.20803e-10 4.07417e-11 -1.97969e-10 5e-05 1.46608e-10 
130 1 0.0932752 0.0169701 0.00745804 0.00619161 4.88375e-05 -0.000300971 -2.37046e-10 1.51802e-10 -1.22607e-10 5e-05 1.46608e-10 
131 1 0.0935237 0.0176428 0.00715849 0.00552096 0.000796601 0.000301404 1.14092e-10 4.13054e-10 5.42028e-11 5e-05 1.46608e-10 
132 1 0.0994745 0.0177963 0.00708757 0.00571711 0.000178979 -5.04597e-05 1.39466e-10 7.51205e-10 -2.08088e-10 5e-05 1.46608e-10 
133 1 0.0992753 0.0166197 0.00764883 0.00606089 5.05875e-05 -2.23426e-05 -1.15641e-10 5.8282e-11 -4.08779e-11 5e-05 1.46608e-10 
134 1 0.0994414 0.0172568 0.00722081 0.00630309 2.75571e-05 -1.58383e-05 -1.09477e-10 -1.00644e-10 3.77833e-11 5e-05 1.46608e-10 
135 1 0.0990212 0.015998 0.00817759 0.00553719 0.000195392 -0.000146481 2.56284e-11 -3.30128e-11 2.79902e-11 5e-05 1.46608e-10 
136 1 0.0930475 0.0160825 0.00806484 0.00565215 0.000348097 3.04625e-06 -2.55415e-11 -3.60908e-10 2.35403e-10 5e-05 1.46608e-10 
137 1 0.0995193 0.0184318 0.00693211 0.00587241 0.000184837 -3.86349e-05 8.90608e-12 6.807e-11 -5.79021e-11 5e-05 1.46608e-10 
138 1 0.0991596 0.0165205 0.00773289 0.00593602 0.000114561 -7.59419e-05 -4.30946e-11 2.47534e-11 -9.31655e-12 5e-05 1.46608e-10 
140 1 0.0996709 0.0183059 0.00696284 0.00587414 0.000183406 -3.92752e-05 -1.03821e-10 2.35411e-10 -6.10068e-11 5e-05 1.46608e-10 
141 1 0.0930869 0.01625 0.00796294 0.00580135 0.000309034 3.80774e-05 -1.6235e-10 1.16694e-11 5.12735e-11 5e-05 1.46608e-10 
142 1 0.0933706 0.0169935 0.00743727 0.00619836 2.27062e-05 -0.000283027 -2.97445e-10 9.87113e-11 -5.77985e-11 5e-05 1.46608e-10 
143 1 0.092992 0.0162214 0.00797686 0.00565098 0.00064321 -0.000179243 3.33193e-11 1.51159e-10 -9.1682e-11 5e-05 1.46608e-10 
144 1 0.0935169 0.0175756 0.00708474 0.00556553 0.00126646 -0.000121891 2.75622e-11 -1.79493e-11 1.5619e-10 5e-05 1.46608e-10 
146 1 0.0934027 0.0167789 0.0075888 0.00608828 -2.96321e-05 -0.000241898 -1.63881e-10 1.29691e-10 -8.73373e-11 5e-05 1.46608e-10 
147 1 0.093028 0.0159987 0.00811583 0.00562113 0.000353976 -1.38467e-06 -2.45871e-10 -3.57248e-10 1.46584e-10 5e-05 1.46608e-10 
148 1 0.0932426 0.0171851 0.00730797 0.00625427 4.32996e-05 -0.000320717 -1.42615e-11 -7.41292e-11 1.36027e-10 5e-05 1.46608e-10 
149 1 0.0994993 0.0183366 0.00695521 0.0058585 0.000208599 -4.55966e-05 4.69008e-11 8.48136e-11 -2.23078e-12 5e-05 1.46608e-10 
150 1 0.0931912 0.0166534 0.00768742 0.00602993 3.41487e-05 -0.000283751 -1.38942e-10 -4.71876e-12 -3.62792e-13 5e-05 1.46608e-10 
151 1 0.0936872 0.0175446 0.00709628 0.00491591 0.000186065 0.000103502 -4.8521e-10 3.8326e-11 9.64598e-11 5e-05 1.46608e-10 
153 1 0.0931495 0.0164978 0.00780596 0.00601471 7.78813e-05 -0.000203396 7.91745e-12 -1.20378e-10 -1.59321e-10 5e-05 1.46608e-10 
154 1 0.0933382 0.0172077 0.00728594 0.00632778 5.61811e-05 -0.000316815 -1.33329e-10 2.18589e-11 9.69978e-11 5e-05 1.46608e-10 
155 1 0.0934219 0.0175449 0.00708886 0.00564395 0.00100384 -4.94133e-05 -1.78184e-10 5.29424e-11 2.63012e-10 5e-05 1.46608e-10 
156 1 0.0933171 0.0171285 0.00734333 0.00624852 4.21207e-05 -0.000305936 -2.83926e-10 -7.1817e-11 7.50163e-11 5e-05 1.46608e-10 
157 1 0.0219312 0.0187687 0.00551176 -3.83362e-14 8.16871e-14 2.95882e-13 9.5255e-23 -7.7057e-22 2.31817e-22 5e-05 1.46608e-10 
158 1 0.0934344 0.0172318 0.0072646 0.0061126 -0.000214993 -0.000111558 -2.14458e-10 2.90752e-10 -2.31539e-10 5e-05 1.46608e-10 
159 1 0.0995695 0.0178265 0.00707997 0.00579721 0.000158451 -5.27573e-05 1.04547e-09 -2.17427e-10 -7.85386e-11 5e-05 1.46608e-10 
160 1 0.0933272 0.0175177 0.00710615 0.00582264 0.000256245 -5.44857e-05 -3.32636e-10 5.47801e-10 1.04865e-11 5e-05 1.46608e-10 
162 1 0.0933593 0.0172871 0.00722846 0.00628154 -4.20377e-05 -0.000242451 -2.18564e-10 -1.6851e-11 1.10982e-10 5e-05 1.46608e-10 
164 1 0.0935018 0.0179317 0.0070163 0.00584715 0.000268806 9.63794e-05 5.6951e-11 4.62511e-11 -1.05151e-10 5e-05 1.46608e-10 
165 1 0.0936116 0.0176086 0.00708008 0.0052549 0.000218081 0.000100544 -4.69122e-10 4.2368e-11 -6.1781e-11 5e-05 1.46608e-10 
166 1 0.0992348 0.0164705 0.00777582 0.00582758 1.8388e-05 4.96798e-06 -1.81284e-10 8.99003e-11 -7.48494e-11 5e-05 1.46608e-10 
167 1 0.0931703 0.0165749 0.00774576 0.00600594 1.77958e-05 -0.000292145 -9.8597e-11 -1.01471e-10 -5.96376e-11 5e-05 1.46608e-10 
168 1 0.0935306 0.0172559 0.00724328 0.0063707 0.000172854 -0.000397731 -2.08566e-10 2.57623e-10 -1.79598e-10 5e-05 1.46608e-10 
169 1 0.0936711 0.0178967 0.00701825 0.00582582 0.000259762 0.000104463 2.17325e-11 -8.49598e-11 1.62806e-11 5e-05 1.46608e-10 
170 1 0.0935701 0.0174226 0.00714046 0.00540354 5.02658e-05 -0.000203406 -3.40992e-10 1.79926e-10 -5.38816e-10 5e-05 1.46608e-10 
171 1 0.0992549 0.0165451 0.00771228 0.00599587 5.81316e-05 -2.87469e-05 -1.81896e-10 2.09213e-11 -1.51547e-11 5e-05 1.46608e-10 
172 1 0.0937263 0.0177366 0.00705507 0.00580578 0.000226789 0.00010976 -3.32599e-11 -2.9831e-11 6.30926e-11 5e-05 1.46608e-10 
173 1 0.0996982 0.018093 0.00701454 0.0058614 0.000186993 -4.24788e-05 1.48306e-11 -1.38431e-10 -3.6617e-11 5e-05 1.46608e-10 
174 1 0.0934745 0.0173916 0.00714897 0.00568158 0.000944309 -0.000918247 -4.94157e-10 1.56565e-10 1.50966e-11 5e-05 1.46608e-10 
175 1 0.0873034 0.0174653 0.00728807 0.00600544 -0.00036135 0.000413163 -1.86066e-12 1.25328e-13 6.6729e-12 5e-05 1.46608e-10 
176 1 0.0932961 0.0170493 0.00740068 0.00620969 4.66142e-05 -0.00029996 -5.63295e-11 4.05855e-11 -5.84528e-11 5e-05 1.46608e-10 
177 1 0.0933668 0.0177056 0.00705203 0.00567841 0.000352094 8.91615e-05 -1.2633e-10 -1.90792e-10 -3.01613e-11 5e-05 1.46608e-10 
178 1 0.0937115 0.0180942 0.00697583 0.00586395 0.000299416 9.74039e-05 4.18112e-11 6.54353e-12 1.50045e-11 5e-05 1.46608e-10 
179 1 0.093651 0.0178009 0.0070388 0.00585267 0.000234611 0.000112116 -9.61075e-11 -2.95058e-11 -1.02873e-10 5e-05 1.46608e-10 
181 1 0.0932845 0.0173426 0.00719209 0.00632139 2.6495e-05 -0.000295859 -3.04849e-10 -1.68076e-10 2.64548e-10 5e-05 1.46608e-10 
182 1 0.0991399 0.0164459 0.00779643 0.00577435 0.000141804 -0.000100074 -1.79561e-11 2.14574e-11 -1.98159e-11 5e-05 1.46608e-10 
183 1 0.0935498 0.0173357 0.00718559 0.0059402 -9.69712e-05 -0.000204784 5.08095e-10 -2.34516e-10 3.25724e-10 5e-05 1.46608e-10 
184 1 0.0995869 0.0179997 0.00711862 0.00578303 0.000276022 -8.78735e-05 1.02459e-10 -1.31674e-10 3.34267e-10 5e-05 1.46608e-10 
185 1 0.0932216 0.0171051 0.00736412 0.00619828 6.14499e-05 -0.000326505 -1.10864e-10 -2.00908e-10 1.6229e-10 5e-05 1.46608e-10 
186 1 0.0932636 0.0172634 0.00724944 0.00630259 3.7351e-05 -0.000303718 -5.62121e-11 -1.9582e-10 2.19538e-10 5e-05 1.46608e-10 
187 1 0.0995585 0.0173809 0.00719 0.00632764 3.21087e-05 -1.75432e-05 -5.11774e-11 -2.3059e-13 -7.21018e-13 5e-05 1.46608e-10 
188 1 0.0995567 0.018179 0.00699354 0.00586219 0.000229115 -4.55056e-05 2.40265e-10 -7.24864e-11 -1.04652e-10 5e-05 1.46608e-10 
189 1 0.0996027 0.0175715 0.00714288 0.00623119 6.36741e-05 -2.55472e-05 -1.15465e-10 -2.9871e-10 7.82807e-11 5e-05 1.46608e-10 
190 1 0.0874247 0.0175899 0.00724278 0.00600729 -0.000361021 0.000413062 -3.0108e-13 2.9588e-12 -1.18408e-12 5e-05 1.46608e-10 
191 1 0.0995381 0.0185273 0.00690895 0.00565175 0.00019431 -4.189e-05 1.0936e-10 -3.16234e-11 2.32626e-12 5e-05 1.46608e-10 
192 1 0.0934677 0.0170184 0.00741534 0.00629404 0.00012327 -0.000357893 -6.79679e-10 8.82017e-11 -2.8274e-11 5e-05 1.46608e-10 
193 1 0.0993367 0.0168435 0.00745837 0.00616686 2.02112e-05 5.71228e-06 -9.40319e-11 -2.13293e-11 2.91699e-11 5e-05 1.46608e-10 
194 1 0.0933076 0.0167559 0.00760932 0.00606709 1.63189e-05 -0.000272692 -1.13027e-10 1.25396e-10 -6.52584e-11 5e-05 1.46608e-10 
195 1 0.093746 0.0178324 0.00703449 0.00578133 0.000223294 0.000113316 1.38322e-10 -1.20898e-10 -1.51591e-11 5e-05 1.46608e-10 
196 1 0.0928184 0.0155445 0.00851616 0.00569892 -1.58131e-05 -0.000354404 2.93002e-10 1.04209e-10 -5.15695e-11 5e-05 1.46608e-10 
197 1 0.0873686 0.0177375 0.00718025 0.00600682 -0.000362091 0.000413451 1.1386e-12 1.84531e-12 1.6067e-13 5e-05 1.46608e-10 
198 1 0.0932186 0.0171156 0.00746351 0.00616822 6.38485e-05 -0.000345743 -4.19436e-11 3.48534e-10 1.88164e-10 5e-05 1.46608e-10 
199 1 0.0933803 0.0173667 0.00717155 0.0061452 -6.31193e-05 -0.000226302 -2.96847e-10 8.74822e-11 6.3466e-10 5e-05 1.46608e-10 
200 1 0.0931587 0.0168675 0.00753616 0.00611666 8.23037e-05 -0.000324128 -2.00797e-10 7.00227e-12 2.1239e-11 5e-05 1.46608e-10 
201 1 0.0936375 0.0181595 0.00695938 0.00587914 0.00031037 9.56776e-05 5.52258e-11 1.16876e-10 -3.51175e-11 5e-05 1.46608e-10 
202 1 0.0934887 0.0170975 0.00735799 0.00640052 0.000121224 -0.000362411 1.05241e-10 2.69574e-11 -3.40924e-11 5e-05 1.46608e-10 
203 1 0.0996314 0.0176765 0.00711692 0.00652664 0.000360731 -9.8811e-05 1.40108e-10 -7.99842e-10 2.11286e-10 5e-05 1.46608e-10 
204 1 0.0932331 0.0168117 0.00757273 0.00610432 5.55128e-05 -0.000303989 -6.01795e-11 9.43692e-11 -1.0991e-10 5e-05 1.46608e-10 
205 1 0.0934616 0.017737 0.00704762 0.00569478 0.000227863 0.000107428 -4.95712e-10 3.30358e-11 -2.52448e-11 5e-05 1.46608e-10 
206 1 0.0934954 0.0174792 0.00710539 0.00591032 0.00128265 -0.000107023 1.30287e-10 -1.71174e-11 1.83995e-10 5e-05 1.46608e-10 
207 1 0.0931284 0.0164163 0.00785991 0.00601001 0.000206377 -1.40864e-05 -1.00029e-10 -5.3687e-11 -2.36465e-10 5e-05 1.46608e-10 
208 1 0.0934553 0.017311 0.00720725 0.00594816 -0.000217557 -0.000119751 -5.76823e-11 6.15662e-11 3.22096e-10 5e-05 1.46608e-10 
209 1 0.0932122 0.0167325 0.00763008 0.00606295 4.40282e-05 -0.000292534 -1.79151e-10 6.89361e-11 -3.71659e-11 5e-05 1.46608e-10 
210 1 0.0993294 0.0173743 0.00728117 0.00628994 2.65568e-05 -1.66104e-05 4.29174e-11 1.76014e-10 -3.73757e-11 5e-05 1.46608e-10 
211 1 0.0995982 0.0180906 0.00701503 0.00584089 0.000206414 -5.02314e-05 -1.90702e-10 -4.45063e-10 1.11666e-10 5e-05 1.46608e-10 
212 1 0.0935926 0.0175149 0.00710918 0.00488441 0.000227366 -6.11417e-05 -2.63553e-10 2.72433e-10 1.59359e-10 5e-05 1.46608e-10 
213 1 0.0995368 0.017286 0.00721344 0.00632333 2.36043e-05 -1.56931e-05 -2.05925e-10 4.9102e-11 -8.45571e-12 5e-05 1.46608e-10 
214 1 0.0995286 0.0179993 0.00703739 0.0057449 0.00014963 -5.58225e-05 -2.13998e-10 -1.72712e-10 4.45915e-11 5e-05 1.46608e-10 
215 1 0.0873787 0.0174056 0.00731568 0.00600735 -0.000359862 0.000412576 -1.16846e-11 -1.29067e-11 4.75269e-12 5e-05 1.46608e-10 
216 1 0.0933467 0.0176098 0.00707247 0.00555334 0.000365761 8.59172e-05 -1.86181e-10 1.72588e-10 -2.66311e-10 5e-05 1.46608e-10 
217 1 0.0992961 0.0166942 0.00758543 0.00613512 9.20008e-05 -5.72832e-05 -1.50062e-10 6.18358e-11 -5.57334e-11 5e-05 1.46608e-10 
218 1 0.0934376 0.0178071 0.00711729 0.00580931 0.00029425 9.96401e-05 -2.67148e-10 -1.63442e-10 -2.77673e-11 5e-05 1.46608e-10 
219 1 0.0994792 0.0182404 0.00697855 0.00584101 0.00023525 -5.03854e-05 3.39722e-10 4.5338e-10 -3.62096e-11 5e-05 1.46608e-10 
220 1 0.0933059 0.0174275 0.0071438 0.00633171 3.56738e-05 -0.000265663 2.50742e-10 1.0727e-10 1.89564e-10 5e-05 1.46608e-10 
221 1 0.0873133 0.0171331 0.00742356 0.00600076 -0.000365345 0.000414523 -1.34608e-11 -2.56091e-11 1.0846e-11 5e-05 1.46608e-10 
222 1 0.0993161 0.016769 0.0075218 0.00619405 9.96677e-05 -6.32242e-05 2.30714e-11 5.56434e-11 -6.54788e-11 5e-05 1.46608e-10 
223 1 0.0933921 0.0170732 0.00737951 0.0062879 9.1162e-05 -0.000336751 -2.54275e-10 -1.20964e-11 -1.55614e-11 5e-05 1.46608e-10 
224 1 0.0932006 0.0170262 0.00742188 0.00618841 7.06384e-05 -0.000324026 -4.29493e-11 -2.79322e-10 1.16505e-10 5e-05 1.46608e-10 
225 1 0.0995569 0.0186227 0.0068858 0.00567179 0.000145715 -3.11449e-05 -8.84305e-11 1.78929e-10 -6.05687e-11 5e-05 1.46608e-10 
226 1 0.0937069 0.0176405 0.0070757 0.00571183 3.22715e-05 0.000151999 5.31447e-10 -1.9023e-10 1.50177e-10 5e-05 1.46608e-10 
227 1 0.0874477 0.0176822 0.00720624 0.00600983 -0.00035875 0.000412255 8.06045e-12 7.45297e-12 -2.88877e-12 5e-05 1.46608e-10 
228 1 0.0873251 0.017556 0.00725213 0.00600595 -0.00036167 0.000413197 -4.96413e-12 -4.50356e-12 -1.29878e-12 5e-05 1.46608e-10 
229 1 0.0933635 0.017491 0.00719543 0.00828237 -0.00149083 -0.00151258 -6.41363e-11 7.11783e-11 -5.78523e-10 5e-05 1.46608e-10 
230 1 0.0936215 0.0182976 0.00692852 0.00581141 0.000375436 7.98124e-05 -4.4859e-11 1.972e-10 -2.5423e-11 5e-05 1.46608e-10 
231 1 0.0872817 0.0173745 0.00732401 0.0060049 -0.00036157 0.000413317 9.04251e-12 -3.96088e-12 -5.81917e-12 5e-05 1.46608e-10 
232 1 0.0932656 0.0165975 0.00772404 0.00603601 1.99394e-05 -0.000273324 -1.30817e-10 -6.88703e-11 8.43167e-11 5e-05 1.46608e-10 
233 1 0.0933497 0.0169143 0.00749463 0.00617584 1.16849e-05 -0.000274401 -8.83781e-11 9.4351e-11 -6.07181e-11 5e-05 1.46608e-10 
234 1 0.0995997 0.0183741 0.00694619 0.00587299 0.000180253 -3.88794e-05 -9.38306e-11 3.01419e-10 -8.26035e-11 5e-05 1.46608e-10 
235 1 0.0935416 0.0185517 0.00687029 0.00575439 0.000364057 7.87121e-05 5.38107e-11 -3.25751e-11 7.51678e-12 5e-05 1.46608e-10 
236 1 0.0936983 0.0183935 0.00690951 0.00571964 0.000417193 6.69211e-05 -2.15131e-10 4.59582e-11 -1.03559e-11 5e-05 1.46608e-10 
237 1 0.0936174 0.0184884 0.00688634 0.00574926 0.000358662 8.02134e-05 1.74822e-10 5.85574e-12 7.66454e-12 5e-05 1.46608e-10 
239 1 0.0870861 0.0165577 0.00764746 0.00599915 -0.000365155 0.000414447 5.4434e-12 6.67538e-12 -2.22237e-12 5e-05 1.46608e-10 
240 1 0.0871513 0.01683 0.00753964 0.00600039 -0.000364887 0.000414159 2.25877e-11 8.71646e-13 7.53474e-12 5e-05 1.46608e-10 
241 1 0.0870664 0.0164666 0.00768364 0.0055296 -0.000284769 0.000360901 9.80141e-13 3.78897e-12 -1.31821e-12 5e-05 1.46608e-10 
242 1 0.0933286 0.0168351 0.00755196 0.00611549 1.49746e-05 -0.000274277 -1.86462e-10 1.21652e-10 -6.69373e-11 5e-05 1.46608e-10 
243 1 0.0932681 0.0171906 0.00740451 0.00622154 5.14451e-05 -0.000330505 1.14209e-10 2.90833e-10 1.58895e-10 5e-05 1.46608e-10 
244 1 0.0871078 0.0166485 0.00761152 0.00599837 -0.000364896 0.000414099 9.10157e-12 -5.09791e-12 3.76649e-12 5e-05 1.46608e-10 
246 1 0.0872382 0.017193 0.00739589 0.00600363 -0.000362221 0.000413837 -1.48262e-11 3.00398e-11 -1.26593e-11 5e-05 1.46608e-10 