ITEM: TIMESTEP
50400000
ITEM: NUMBER OF ATOMS
275
ITEM: BOX BOUNDS ff ff ff
-0.02 0.43
-0.02 0.06
-0.02 0.07
ITEM: ATOMS id type x y z vx vy vz fx fy fz radius mass 
1 1 0.307144 0.0182165 0.0069237 0.0056338 -1.21148e-06 -0.000123998 -2.47834e-10 3.04033e-10 -5.86094e-11 5e-05 1.46608e-10 
2 1 0.306803 0.0170756 0.00729268 0.00629349 0.000172699 9.7619e-05 -9.00393e-10 2.4883e-10 2.89864e-10 5e-05 1.46608e-10 
4 1 0.306951 0.0169665 0.00737155 0.00597309 0.000246037 3.89688e-05 -3.7738e-10 2.71064e-10 -1.21131e-10 5e-05 1.46608e-10 
5 1 0.306421 0.0156325 0.00843834 0.00557376 0.000308884 -0.000713168 -2.43543e-09 -7.33925e-09 9.97163e-09 5e-05 1.46608e-10 
6 1 0.312692 0.0166523 0.00756681 0.0063061 0.000587377 -0.000344951 3.76673e-12 -1.10266e-12 5.93386e-12 5e-05 1.46608e-10 
7 1 0.307097 0.0175775 0.00707811 0.00576134 5.39147e-05 1.46155e-05 -3.02124e-11 -3.62274e-10 -5.77e-11 5e-05 1.46608e-10 
8 1 0.306792 0.0166961 0.00754921 0.00607945 0.000279201 1.41657e-05 -1.791e-09 2.71513e-10 -2.29517e-10 5e-05 1.46608e-10 
9 1 0.312903 0.0175241 0.00718841 0.0063621 0.000599229 -0.000321637 -1.72178e-12 -3.86859e-12 2.34844e-12 5e-05 1.46608e-10 
10 1 0.306887 0.0167228 0.00753438 0.00619124 0.000146021 0.000112605 -1.17693e-09 3.07653e-10 -2.01672e-10 5e-05 1.46608e-10 
11 1 0.307039 0.0179722 0.00707295 0.00588674 0.0001074 -0.000139908 2.04757e-10 -1.56886e-10 2.54569e-11 5e-05 1.46608e-10 
12 1 0.301136 0.0173546 0.00718092 0.00548611 -0.000489251 0.000334361 7.11287e-11 1.77448e-10 -1.67416e-10 5e-05 1.46608e-10 
13 1 0.306402 0.0155738 0.00851699 0.00580996 0.000341884 -0.000775144 1.55087e-10 3.87003e-10 -5.09331e-10 5e-05 1.46608e-10 
14 1 0.301108 0.0179076 0.00705921 0.00523633 -0.000461062 -2.74387e-05 2.5549e-10 -2.82233e-10 3.12332e-10 5e-05 1.46608e-10 
16 1 0.301314 0.0181955 0.00695056 0.00552433 -0.000537033 0.000179752 4.60085e-11 -1.1262e-10 -2.39837e-12 5e-05 1.46608e-10 
17 1 0.30675 0.0165335 0.00765781 0.00589106 0.000374244 -4.59182e-05 -6.03273e-10 6.04932e-10 -4.85171e-10 5e-05 1.46608e-10 
19 1 0.306383 0.0155151 0.00859556 0.00576461 0.00028179 -0.000692312 1.29542e-10 4.01826e-10 -5.38596e-10 5e-05 1.46608e-10 
21 1 0.307137 0.0177679 0.00703155 0.00579471 7.49023e-05 -0.000143109 2.6752e-10 -3.50382e-10 8.08773e-11 5e-05 1.46608e-10 
22 1 0.306908 0.016804 0.0074801 0.00607732 0.000222602 5.79858e-05 -3.88717e-10 2.19783e-10 -2.03142e-10 5e-05 1.46608e-10 
23 1 0.301274 0.0179994 0.00695747 0.00550464 -0.000511245 0.000179064 -2.22059e-10 8.01816e-12 7.00531e-12 5e-05 1.46608e-10 
24 1 0.312817 0.0171503 0.00730141 0.00639847 0.000587967 -0.000319132 -4.90454e-14 9.20853e-13 -9.6281e-13 5e-05 1.46608e-10 
25 1 0.306522 0.0159365 0.00805557 0.00586062 0.000397035 4.45036e-05 3.30754e-10 7.52103e-10 -1.242e-09 5e-05 1.46608e-10 
26 1 0.31286 0.0173372 0.00724491 0.00638034 0.000593828 -0.000320406 -1.6416e-12 -8.62394e-12 1.90926e-12 5e-05 1.46608e-10 
27 1 0.300816 0.0167608 0.00744631 0.0061003 -0.000548485 0.00037538 -3.1813e-10 1.96297e-11 6.93884e-11 5e-05 1.46608e-10 
28 1 0.306877 0.0170211 0.00733211 0.00621955 0.000128851 0.000102642 -5.29996e-10 7.18841e-10 -1.10115e-10 5e-05 1.46608e-10 
29 1 0.306363 0.0154564 0.00867414 0.00572963 0.000263488 -0.00066672 1.30642e-10 4.04026e-10 -5.41645e-10 5e-05 1.46608e-10 
30 1 0.306595 0.0162635 0.00783739 0.00571314 0.000536803 -0.000180416 -4.71421e-10 3.13693e-10 -5.20539e-10 5e-05 1.46608e-10 
31 1 0.307172 0.0175134 0.00709486 0.0057583 8.15893e-05 0.000114229 -4.32451e-11 -4.2756e-10 1.74744e-10 5e-05 1.46608e-10 
32 1 0.306536 0.016018 0.00799956 0.00580383 0.00041802 -6.06141e-05 1.18495e-10 1.72001e-09 -2.14668e-09 5e-05 1.46608e-10 
33 1 0.312711 0.0167145 0.0074908 0.00636981 0.00058155 -0.000334068 -4.69848e-13 -8.26896e-12 1.4702e-11 5e-05 1.46608e-10 
34 1 0.306502 0.015867 0.00812472 0.00557593 0.000229126 6.28728e-06 -3.49368e-10 -2.47055e-10 1.90437e-09 5e-05 1.46608e-10 
35 1 0.307057 0.017389 0.00713146 0.00572627 0.000127761 0.00011286 1.26187e-10 9.55827e-11 -8.71911e-11 5e-05 1.46608e-10 
36 1 0.312967 0.0178046 0.00710362 0.00580484 0.000716725 -0.000343943 9.866e-13 3.5441e-12 -1.18001e-12 5e-05 1.46608e-10 
37 1 0.30693 0.0168852 0.00742583 0.0059578 0.000265235 1.63015e-05 2.15944e-10 1.80625e-10 -9.05737e-11 5e-05 1.46608e-10 
38 1 0.307015 0.0172075 0.00720485 0.00594118 0.00022952 7.41779e-05 -7.24435e-10 5.58699e-10 -6.50331e-11 5e-05 1.46608e-10 
39 1 0.312838 0.0172437 0.00727316 0.00638939 0.000590781 -0.000319712 -5.45992e-13 -5.23417e-12 1.32176e-12 5e-05 1.46608e-10 
41 1 0.306463 0.0157495 0.00828157 0.00544914 -0.000302791 5.69103e-05 -5.72448e-10 -3.11671e-10 4.98315e-10 5e-05 1.46608e-10 
42 1 0.307047 0.0169934 0.00735469 0.00647255 0.000266063 -0.000411322 8.53553e-10 -5.20251e-10 7.09381e-11 5e-05 1.46608e-10 
44 1 0.30711 0.0172313 0.00718293 0.0058637 0.000339472 4.523e-05 -4.67091e-10 1.48511e-10 -2.04138e-10 5e-05 1.46608e-10 
45 1 0.31273 0.0167766 0.00741479 0.00643419 0.000576196 -0.000322235 -8.61505e-13 -1.0221e-11 1.49643e-11 5e-05 1.46608e-10 
47 1 0.306478 0.0158088 0.00820251 0.00557412 -0.000162789 -7.88942e-06 -1.97806e-10 -1.05453e-09 2.81483e-09 5e-05 1.46608e-10 
48 1 0.307007 0.0179923 0.00698044 0.00584356 4.54958e-05 -0.000137757 1.8845e-10 2.94136e-10 -3.25533e-11 5e-05 1.46608e-10 
49 1 0.312925 0.0176175 0.00716016 0.00635277 0.000601688 -0.000322127 4.06877e-13 -1.09223e-12 -8.10577e-13 5e-05 1.46608e-10 
50 1 0.306556 0.0160995 0.00794506 0.00574041 0.000439526 -8.71951e-05 2.43845e-10 1.77372e-09 -1.13947e-09 5e-05 1.46608e-10 
51 1 0.307192 0.0176078 0.00706882 0.00574145 2.14759e-05 -0.000132548 -1.18203e-10 -4.87855e-10 -5.98186e-11 5e-05 1.46608e-10 
52 1 0.301195 0.0176226 0.00705974 0.00547119 -0.000581717 -5.60259e-05 -3.13208e-15 2.11714e-10 -1.18708e-10 5e-05 1.46608e-10 
53 1 0.312773 0.0169634 0.00735791 0.00641707 0.000583244 -0.000318206 -6.50865e-12 3.95447e-12 -9.49739e-13 5e-05 1.46608e-10 
54 1 0.307366 0.0180202 0.0069661 0.00574429 2.0514e-05 -0.000127035 -1.10166e-10 1.66962e-10 -2.31806e-11 5e-05 1.46608e-10 
55 1 0.301021 0.0172349 0.00723333 0.00558766 -0.000364675 0.000292693 2.35559e-11 8.44306e-11 -5.28084e-11 5e-05 1.46608e-10 
56 1 0.307347 0.0179239 0.00698964 0.00574516 2.77135e-05 -0.000128679 -4.45934e-10 1.61173e-10 -2.81833e-11 5e-05 1.46608e-10 
57 1 0.312752 0.0168699 0.00738616 0.00642741 0.000579702 -0.000319032 -3.06654e-12 -2.22391e-12 4.97769e-12 5e-05 1.46608e-10 
59 1 0.378022 0.019866 0.005332 -5.01895e-15 -7.41191e-15 7.69803e-14 4.66582e-24 -9.82277e-25 2.06795e-25 5e-05 1.46608e-10 
60 1 0.307131 0.0173256 0.00715348 0.00571915 0.000128266 0.000104685 4.59623e-10 5.96152e-10 -2.7683e-10 5e-05 1.46608e-10 
61 1 0.306442 0.0156911 0.00835987 0.00527457 -0.000187957 -4.97826e-05 3.95143e-09 5.29813e-09 -7.71993e-09 5e-05 1.46608e-10 
62 1 0.307036 0.0172948 0.00716084 0.00575171 0.000219595 6.62828e-05 -8.96028e-11 2.77603e-10 -1.54551e-10 5e-05 1.46608e-10 
63 1 0.307027 0.0180876 0.00695713 0.00590965 0.000159259 -0.000166135 1.7043e-10 1.37906e-09 -3.89142e-10 5e-05 1.46608e-10 
64 1 0.312795 0.0170568 0.00732966 0.00640743 0.000585569 -0.000318613 -1.73898e-12 4.94312e-12 3.8732e-13 5e-05 1.46608e-10 
65 1 0.300946 0.0172944 0.00720442 0.00555339 -0.00041317 0.000308893 -9.75046e-11 5.87826e-11 -3.55559e-11 5e-05 1.46608e-10 
66 1 0.301058 0.0180624 0.00703472 0.0054756 -0.00049779 0.000159787 -3.35586e-10 2.81271e-10 7.58695e-11 5e-05 1.46608e-10 
67 1 0.307157 0.017863 0.00700827 0.00579275 7.44977e-05 -0.000145394 -2.20733e-10 -3.36488e-10 -5.40333e-12 5e-05 1.46608e-10 
68 1 0.306941 0.017264 0.00716821 0.00577045 0.000200005 8.20407e-05 3.85926e-10 2.70342e-10 1.79265e-10 5e-05 1.46608e-10 
69 1 0.307232 0.0177982 0.00702224 0.00567992 2.80326e-05 -0.000128903 3.25206e-10 -1.60087e-10 4.5991e-11 5e-05 1.46608e-10 
70 1 0.312882 0.0174306 0.00721666 0.00637128 0.000596705 -0.000321023 -1.21782e-12 -6.94974e-12 2.15401e-12 5e-05 1.46608e-10 
71 1 0.301354 0.0183914 0.00694366 0.00555517 -0.00054292 0.000181689 2.61232e-11 -3.76413e-11 5.39744e-12 5e-05 1.46608e-10 
72 1 0.307197 0.0180535 0.00696171 0.00588728 0.000154321 -0.000163182 -2.14675e-10 -3.02402e-11 -8.82912e-11 5e-05 1.46608e-10 
73 1 0.307026 0.0169128 0.00741045 0.0062169 0.000417717 -7.21887e-05 -5.97642e-10 5.0332e-10 -3.26981e-10 5e-05 1.46608e-10 
74 1 0.306576 0.016181 0.00789056 0.00571337 0.000454618 -0.000174673 2.15649e-10 1.01346e-09 -4.51073e-10 5e-05 1.46608e-10 
76 1 0.300956 0.0169678 0.00735438 0.00613848 -0.000519259 0.000370864 -2.8053e-11 9.01756e-11 -5.55441e-11 5e-05 1.46608e-10 
77 1 0.306824 0.0171566 0.00723805 0.00647725 6.31593e-05 -8.56968e-05 2.06326e-09 -6.32058e-10 5.39755e-09 5e-05 1.46608e-10 
78 1 0.300403 0.0156377 0.00857763 0.00535951 -0.000344241 0.000243534 2.90388e-10 3.46944e-10 -4.53258e-10 5e-05 1.46608e-10 
79 1 0.301279 0.0184574 0.0069388 0.00554348 -0.000550166 0.000181647 -1.7178e-11 -6.65316e-12 -5.4468e-12 5e-05 1.46608e-10 
80 1 0.306898 0.0171021 0.0072775 0.00633742 2.86532e-05 9.90374e-06 -9.7618e-10 3.86169e-10 3.94269e-10 5e-05 1.46608e-10 
82 1 0.301137 0.0180014 0.00704007 0.00549257 -0.000470428 0.000182692 1.49941e-10 3.64553e-12 1.77335e-10 5e-05 1.46608e-10 
83 1 0.301155 0.0174439 0.0071404 0.00556376 -0.00044732 0.000321818 5.00758e-10 3.09573e-10 -1.42618e-10 5e-05 1.46608e-10 
84 1 0.312947 0.0177109 0.00713191 0.00634411 0.000604332 -0.00032272 4.29511e-13 2.4979e-12 -4.57845e-13 5e-05 1.46608e-10 
85 1 0.301149 0.0186876 0.00692561 0.00544133 -0.000538612 0.000176981 -2.45335e-10 -2.48975e-10 -2.20722e-12 5e-05 1.46608e-10 
86 1 0.30709 0.017149 0.00723616 0.00604379 0.000103627 -0.000265626 -5.76251e-10 3.79426e-10 -2.59648e-10 5e-05 1.46608e-10 
87 1 0.306856 0.0169398 0.00738638 0.00624088 0.000133803 0.0001403 9.33734e-10 -4.19167e-10 3.81094e-10 5e-05 1.46608e-10 
88 1 0.307002 0.0175473 0.00708739 0.00576231 1.8703e-05 -0.000156838 -5.80508e-11 -5.96938e-11 -1.62867e-10 5e-05 1.46608e-10 
89 1 0.30714 0.0179357 0.00707523 0.00584327 8.72426e-05 -0.000142342 6.05198e-11 3.73747e-10 1.70842e-10 5e-05 1.46608e-10 
90 1 0.307177 0.0179583 0.00698499 0.00585619 8.69725e-05 -0.000142259 2.92428e-11 8.00391e-12 3.60923e-11 5e-05 1.46608e-10 
91 1 0.301116 0.0172644 0.00722186 0.0056269 -0.000374974 0.000289669 -3.16604e-11 -1.34511e-10 8.3848e-11 5e-05 1.46608e-10 
92 1 0.306926 0.0176115 0.00707356 0.00574204 1.48333e-05 -0.000132444 1.14151e-10 3.40736e-10 -3.81309e-11 5e-05 1.46608e-10 
93 1 0.306654 0.0165091 0.00767588 0.00564895 0.000652732 -0.000250297 -9.33438e-10 3.60425e-10 -4.32289e-10 5e-05 1.46608e-10 
94 1 0.307086 0.0180957 0.00703779 0.00577872 -1.95158e-05 -5.16184e-05 -4.46519e-10 -4.27278e-11 -2.131e-10 5e-05 1.46608e-10 
95 1 0.307005 0.0177151 0.00713095 0.00575251 3.49926e-05 -0.000131533 -4.75689e-11 -4.3587e-10 3.3989e-11 5e-05 1.46608e-10 
96 1 0.306906 0.0175164 0.00709684 0.00568637 2.08218e-05 -0.000140665 -1.97792e-10 4.49681e-10 1.28218e-10 5e-05 1.46608e-10 
97 1 0.300481 0.0159064 0.00829185 0.00536338 -0.00046058 0.000211915 3.92837e-11 -1.14749e-10 -6.10993e-11 5e-05 1.46608e-10 
98 1 0.306634 0.0164256 0.007727 0.00569373 0.000627144 -0.000237564 -3.09912e-10 4.44781e-10 -1.39926e-10 5e-05 1.46608e-10 
99 1 0.300969 0.0178145 0.00700675 0.00555236 -0.000905388 -0.00120118 -1.29234e-10 -6.72313e-10 -6.1086e-10 5e-05 1.46608e-10 
100 1 0.307117 0.0176727 0.00705483 0.00575562 4.99978e-05 -0.000132219 1.38357e-10 -2.01655e-10 1.42573e-10 5e-05 1.46608e-10 
101 1 0.300989 0.0179078 0.00697687 0.0057389 -0.000559016 6.44594e-05 7.69869e-11 -1.58984e-10 4.88471e-12 5e-05 1.46608e-10 
102 1 0.0643568 0.0187248 0.00531097 4.29862e-15 1.04892e-14 8.29596e-14 8.04407e-22 -6.82967e-22 4.52881e-23 5e-05 1.46608e-10 
103 1 0.24257 0.0191927 0.00520306 3.83676e-22 4.86658e-23 1.23839e-22 0 0 0 5e-05 1.46608e-10 
104 1 0.301334 0.0182934 0.00694711 0.00552474 -0.000540023 0.000180656 7.95722e-11 -1.06523e-10 2.86821e-12 5e-05 1.46608e-10 
105 1 0.300615 0.01606 0.00812253 0.00540081 -0.000514113 0.000270055 -1.36348e-10 3.90694e-11 -2.32869e-11 5e-05 1.46608e-10 
106 1 0.300985 0.0174736 0.00712311 0.00508505 -0.000458782 0.000295833 -3.26678e-10 -5.4417e-10 -4.04279e-10 5e-05 1.46608e-10 
107 1 0.300422 0.0157058 0.00850702 0.00532475 -0.000346339 0.000234668 -3.42227e-10 8.92206e-11 2.96066e-11 5e-05 1.46608e-10 
108 1 0.307252 0.0178934 0.00699896 0.00576306 3.66187e-05 -0.000130503 4.9031e-11 1.58211e-10 2.05893e-11 5e-05 1.46608e-10 
109 1 0.307327 0.0178285 0.00701295 0.00567617 -3.79039e-05 -0.000112036 -5.52804e-10 1.703e-10 -3.32201e-11 5e-05 1.46608e-10 
110 1 0.306782 0.0169944 0.00734696 0.00632602 0.000256106 4.34789e-05 7.92163e-11 -2.02221e-09 1.0768e-09 5e-05 1.46608e-10 
111 1 0.306739 0.0168319 0.00745551 0.00628302 0.000398918 -6.43005e-05 3.45123e-11 -1.39472e-09 7.67076e-10 5e-05 1.46608e-10 
112 1 0.30076 0.0169244 0.00747571 0.00614383 -0.000547969 0.000375802 -2.09025e-12 -1.19571e-10 6.02535e-11 5e-05 1.46608e-10 
113 1 0.300871 0.0173543 0.00717533 0.00555085 -0.000411038 0.000307805 -1.30024e-11 7.65253e-11 -1.66446e-10 5e-05 1.46608e-10 
114 1 0.30093 0.0176286 0.00706922 0.00542347 -0.000715298 -0.000461214 -4.32231e-10 -1.02312e-09 1.26271e-11 5e-05 1.46608e-10 
115 1 0.307069 0.0170711 0.00729545 0.00633059 0.000269848 -0.00038616 -2.69478e-10 8.63712e-11 3.35878e-11 5e-05 1.46608e-10 
116 1 0.307082 0.0179279 0.0069943 0.0058541 8.23425e-05 -0.000144837 -1.02177e-10 -3.81753e-11 1.4956e-12 5e-05 1.46608e-10 
117 1 0.307077 0.0174826 0.00710222 0.00575573 5.44471e-05 0.000135446 2.68063e-10 -6.33003e-11 2.70795e-11 5e-05 1.46608e-10 
118 1 0.301061 0.017414 0.00715205 0.00555977 -0.000414514 0.000316482 4.55833e-10 1.46645e-10 -3.69812e-11 5e-05 1.46608e-10 
119 1 0.307272 0.0179887 0.00697567 0.00586945 0.000156183 -0.000162335 -1.41369e-10 2.04744e-10 -5.29616e-11 5e-05 1.46608e-10 
120 1 0.306866 0.0166415 0.00758866 0.00609629 0.000123044 0.000122736 -3.38207e-10 1.50746e-10 -1.67899e-10 5e-05 1.46608e-10 
121 1 0.307163 0.0183118 0.0069004 0.00571368 -1.35086e-05 -0.000120652 8.95745e-11 -1.34731e-11 6.75653e-11 5e-05 1.46608e-10 
122 1 0.306886 0.0174219 0.00712298 0.00567579 -1.41298e-05 -0.000300208 -3.53822e-10 -8.27056e-10 -1.24486e-10 5e-05 1.46608e-10 
123 1 0.301299 0.0185555 0.00693534 0.00550161 -0.000475311 0.000177364 -8.32218e-11 -4.66308e-11 -2.63943e-12 5e-05 1.46608e-10 
124 1 0.306771 0.0166148 0.00760349 0.00597755 0.000296303 2.72282e-06 -2.70899e-10 -5.71065e-11 9.35425e-11 5e-05 1.46608e-10 
125 1 0.306982 0.017453 0.00711406 0.00573115 4.63323e-05 -0.000164155 -4.77478e-11 4.84592e-11 1.17364e-10 5e-05 1.46608e-10 
127 1 0.300462 0.0158396 0.00836359 0.00534533 -0.000497722 0.000156349 -6.62608e-10 1.04771e-09 1.01333e-09 5e-05 1.46608e-10 
128 1 0.306615 0.016344 0.0077816 0.00569862 0.000605253 -0.00020291 -5.96257e-10 6.81397e-10 -6.57295e-11 5e-05 1.46608e-10 
129 1 0.307008 0.0178642 0.00709575 0.00587386 9.27275e-05 -0.000125884 -9.54435e-12 -1.46253e-10 3.53911e-11 5e-05 1.46608e-10 
130 1 0.301025 0.0176575 0.00705526 0.00544048 -0.000621987 6.32527e-05 2.28467e-10 -3.46464e-10 -4.44445e-10 5e-05 1.46608e-10 
131 1 0.301044 0.0177504 0.00702401 0.00560537 -0.000657396 -7.12014e-06 1.05902e-10 -2.51343e-10 -1.84423e-10 5e-05 1.46608e-10 
132 1 0.306972 0.0170472 0.0073165 0.00621138 0.000104905 -3.5735e-05 5.35162e-10 -9.25647e-11 -2.08021e-10 5e-05 1.46608e-10 
133 1 0.307102 0.018023 0.00697102 0.00587988 8.9327e-05 -0.000149055 -1.35506e-10 4.63814e-10 -1.39933e-10 5e-05 1.46608e-10 
134 1 0.307062 0.0178327 0.00701757 0.00581445 6.32985e-05 -0.00013945 2.78442e-11 -2.64298e-10 9.32973e-11 5e-05 1.46608e-10 
135 1 0.307212 0.017703 0.00704553 0.00575101 6.70594e-05 -0.000139336 3.38975e-10 -4.67321e-10 1.17753e-10 5e-05 1.46608e-10 
136 1 0.300999 0.0171458 0.00727374 0.00613412 -0.000500842 0.000360461 3.59578e-10 -1.27521e-10 1.45702e-10 5e-05 1.46608e-10 
137 1 0.30712 0.0178404 0.00709851 0.00582669 8.14333e-05 -0.000147803 -9.66977e-11 2.2185e-10 1.18559e-10 5e-05 1.46608e-10 
138 1 0.306967 0.0178018 0.00702702 0.00577217 4.27663e-05 -0.000131918 -1.73692e-10 -1.39619e-10 -2.24497e-11 5e-05 1.46608e-10 
140 1 0.306845 0.0172344 0.00717882 0.00643441 -0.000427758 0.000346161 -2.57839e-09 7.68472e-09 -1.00208e-09 5e-05 1.46608e-10 
141 1 0.300829 0.0164811 0.00766613 0.0062879 -0.000346253 4.6673e-05 -2.31225e-10 7.46524e-11 -5.99693e-11 5e-05 1.46608e-10 
142 1 0.301235 0.0178086 0.0069972 0.00548311 -0.000535046 -4.52367e-05 -2.063e-10 2.54367e-10 -3.86417e-11 5e-05 1.46608e-10 
143 1 0.300442 0.0157727 0.00843534 0.00529861 -0.000520648 9.52481e-05 -2.08937e-09 4.06331e-09 3.46322e-09 5e-05 1.46608e-10 
144 1 0.3011 0.0175939 0.00707408 0.00552947 -0.000445235 0.000250659 1.49369e-10 2.52919e-10 -6.24464e-11 5e-05 1.46608e-10 
146 1 0.300501 0.0159733 0.0082201 0.0053859 -0.000467493 0.000227343 -4.81357e-11 -6.2238e-11 5.89131e-11 5e-05 1.46608e-10 
147 1 0.301005 0.0175646 0.00708657 0.00527886 -0.00053418 0.000227256 2.79398e-11 -3.21776e-10 -3.5901e-10 5e-05 1.46608e-10 
148 1 0.30085 0.0165478 0.0075945 0.00646533 -0.000364109 5.61104e-05 -9.58987e-11 1.10281e-10 -7.17944e-11 5e-05 1.46608e-10 
149 1 0.306697 0.0166694 0.00756405 0.0062778 0.000519594 -0.000140132 -4.24148e-10 -4.57848e-10 2.74855e-10 5e-05 1.46608e-10 
150 1 0.301129 0.0185896 0.00692907 0.00554683 -0.000560943 0.000181496 -1.29245e-10 -1.14922e-10 6.64444e-12 5e-05 1.46608e-10 
151 1 0.301125 0.0181318 0.00694774 0.0055125 -0.000501259 0.000179192 -1.04082e-10 6.73216e-11 -2.49425e-12 5e-05 1.46608e-10 
153 1 0.300869 0.0166153 0.00752207 0.00623823 -0.00153099 -0.0015205 -1.55002e-10 -2.68009e-10 -9.23158e-10 5e-05 1.46608e-10 
154 1 0.300595 0.0159932 0.00819427 0.00538708 -0.00050103 0.000258012 -2.2351e-10 2.47689e-11 -1.00949e-11 5e-05 1.46608e-10 
155 1 0.300785 0.0170279 0.00743218 0.00615036 -0.000512936 0.00036926 -4.60675e-11 -6.64995e-11 3.11322e-11 5e-05 1.46608e-10 
156 1 0.300808 0.0164138 0.00773844 0.00602088 -0.000623363 0.000356227 -5.74049e-11 -2.5931e-11 3.80612e-11 5e-05 1.46608e-10 
157 1 0.0219312 0.0187687 0.00551176 -3.83321e-14 8.16669e-14 2.95888e-13 9.53015e-22 2.46345e-22 5.37667e-23 5e-05 1.46608e-10 
158 1 0.300912 0.01679 0.00743498 0.0061597 -0.000485417 0.00035201 -1.36968e-12 3.42617e-10 -1.44463e-10 5e-05 1.46608e-10 
159 1 0.306994 0.017128 0.00726176 0.00608937 0.000176406 1.73141e-06 -2.24981e-10 3.05412e-11 3.72483e-10 5e-05 1.46608e-10 
160 1 0.301009 0.018002 0.00694976 0.00579768 -0.000502317 0.000196813 6.20369e-11 2.32303e-11 3.65465e-11 5e-05 1.46608e-10 
162 1 0.301081 0.0181698 0.00703372 0.00550036 -0.000455102 0.000158022 6.11495e-11 2.59218e-10 -1.28384e-10 5e-05 1.46608e-10 
164 1 0.300579 0.0162408 0.00793313 0.00544847 -0.000505998 0.000260746 -4.97091e-11 3.02344e-11 -6.44022e-11 5e-05 1.46608e-10 
165 1 0.301164 0.0183277 0.00694083 0.00552786 -0.000541475 0.000182456 4.69496e-11 1.58724e-11 1.53932e-12 5e-05 1.46608e-10 
166 1 0.306987 0.017897 0.00700375 0.00581734 5.47247e-05 -0.000134078 2.47815e-11 -1.42543e-10 5.19835e-11 5e-05 1.46608e-10 
167 1 0.301089 0.0183936 0.00693597 0.00552797 -0.000541557 0.000181372 -5.89186e-12 -8.65723e-11 1.44855e-11 5e-05 1.46608e-10 
168 1 0.301204 0.0185235 0.00693393 0.00553664 -0.000558355 0.00018154 -1.16397e-11 -5.46867e-11 -2.57743e-13 5e-05 1.46608e-10 
169 1 0.301109 0.0184917 0.00693252 0.00553 -0.000560046 0.000181753 -2.47432e-11 1.53336e-12 3.98511e-13 5e-05 1.46608e-10 
170 1 0.301184 0.0184256 0.00693738 0.0055321 -0.000552815 0.000181505 3.2505e-11 7.22482e-11 -2.41229e-12 5e-05 1.46608e-10 
171 1 0.307217 0.01815 0.00693811 0.00574747 7.76736e-05 -0.000128717 -5.29415e-13 2.58453e-10 -1.45485e-10 5e-05 1.46608e-10 
172 1 0.30085 0.0172654 0.00721567 0.00616285 -0.000525213 0.000373189 2.25575e-10 2.17006e-10 -9.10529e-12 5e-05 1.46608e-10 
173 1 0.307181 0.0181262 0.00702837 0.00578967 7.3183e-05 -0.000102187 -8.71188e-11 6.01564e-11 -1.75636e-10 5e-05 1.46608e-10 
174 1 0.300618 0.0163745 0.00778975 0.00565674 -0.000548835 0.000293535 2.05443e-10 -2.55744e-11 2.3493e-11 5e-05 1.46608e-10 
176 1 0.300925 0.0172053 0.0072448 0.00616027 -0.000498021 0.000364292 1.62495e-10 -3.92983e-10 6.88977e-11 5e-05 1.46608e-10 
177 1 0.30052 0.0160402 0.00814836 0.00540459 -0.000479723 0.000234475 -3.07959e-10 -1.67617e-11 7.32968e-12 5e-05 1.46608e-10 
178 1 0.301012 0.0178798 0.00707009 0.00572388 -0.000652846 5.97247e-05 2.82715e-10 -2.34262e-10 -7.26541e-11 5e-05 1.46608e-10 
179 1 0.30103 0.0180998 0.00694633 0.00550599 -0.000448818 0.000173313 -4.29749e-11 1.24436e-11 2.07063e-11 5e-05 1.46608e-10 
182 1 0.307238 0.0182478 0.00691417 0.00571186 -2.23837e-05 -0.000118422 -1.37448e-10 -1.19071e-10 4.24862e-11 5e-05 1.46608e-10 
183 1 0.30091 0.0175369 0.00710382 0.00538014 -0.000872532 -0.000615626 7.48496e-09 -4.3925e-09 5.54444e-10 5e-05 1.46608e-10 
184 1 0.307107 0.0181923 0.00701345 0.00554893 0.000145014 -0.000157779 -2.7328e-10 -1.84642e-10 7.49049e-12 5e-05 1.46608e-10 
185 1 0.30112 0.0176866 0.007042 0.00549884 -0.000478864 0.000145361 1.01677e-10 2.14324e-10 -1.38784e-12 5e-05 1.46608e-10 
186 1 0.301169 0.0187856 0.00692214 0.00541995 -0.000521071 0.000176059 1.86603e-10 2.99136e-10 -2.35271e-11 5e-05 1.46608e-10 
187 1 0.307122 0.0181186 0.00694765 0.00554649 0.000114658 -0.000131907 -6.11758e-10 1.16873e-10 -1.16305e-10 5e-05 1.46608e-10 
188 1 0.306962 0.0173585 0.00713997 0.00570788 8.83934e-05 -8.30621e-05 2.11885e-10 -3.82684e-13 -1.10415e-10 5e-05 1.46608e-10 
189 1 0.307085 0.0183736 0.00688722 0.00566389 -5.74089e-05 -0.000107817 1.46755e-10 1.09856e-10 -2.15828e-11 5e-05 1.46608e-10 
190 1 0.295041 0.0181545 0.00699837 0.00595757 0.00101684 -0.000620726 3.24802e-12 -3.83796e-11 -4.84721e-12 5e-05 1.46608e-10 
191 1 0.306718 0.0167506 0.00750978 0.00630314 0.000468923 -0.000103063 -5.31014e-10 -1.06532e-09 5.47494e-10 5e-05 1.46608e-10 
192 1 0.300891 0.0174468 0.0071427 0.00501809 -0.000438456 -2.95243e-05 8.19738e-10 -6.46566e-10 3.49555e-10 5e-05 1.46608e-10 
193 1 0.307292 0.0180849 0.00695215 0.00589843 0.00021101 -0.000175131 -1.77098e-10 2.36967e-10 -5.43435e-11 5e-05 1.46608e-10 
194 1 0.301152 0.0181002 0.00703853 0.00549613 -0.000459077 0.000161455 -5.91024e-11 1.35399e-10 -6.23567e-11 5e-05 1.46608e-10 
195 1 0.30122 0.0181636 0.00694915 0.00552203 -0.000524772 0.000179065 -6.48035e-12 -3.22647e-11 6.87061e-12 5e-05 1.46608e-10 
196 1 0.301179 0.0179676 0.00695605 0.00547442 -0.000476339 0.000175271 -2.61494e-10 5.96446e-11 -3.67551e-11 5e-05 1.46608e-10 
197 1 0.294721 0.0168561 0.00773643 0.00605163 0.000630988 -0.000682761 -5.94751e-10 -4.61674e-11 4.9198e-11 5e-05 1.46608e-10 
198 1 0.301175 0.0175332 0.00709988 0.00552355 -0.000430312 0.000322651 2.26664e-10 3.00319e-10 -1.24344e-10 5e-05 1.46608e-10 
199 1 0.301005 0.0179782 0.00704679 0.00575715 -0.000646567 0.000164663 5.02448e-11 1.58626e-10 1.57651e-10 5e-05 1.46608e-10 
200 1 0.300576 0.0159263 0.00826602 0.00535737 -0.000489528 0.000247655 -1.59105e-10 -5.19283e-11 5.92034e-11 5e-05 1.46608e-10 
201 1 0.301239 0.0182616 0.0069457 0.00552784 -0.000539154 0.000181017 2.94742e-11 -7.47852e-11 -1.01985e-12 5e-05 1.46608e-10 
202 1 0.300934 0.0168789 0.00739469 0.0061421 -0.000531626 0.00037688 -1.58688e-11 1.93781e-10 -1.0827e-10 5e-05 1.46608e-10 
203 1 0.307042 0.0177375 0.00704085 0.00576813 5.12888e-05 -0.000130067 2.61968e-11 -2.17957e-10 1.89619e-10 5e-05 1.46608e-10 
204 1 0.301294 0.0180975 0.00695402 0.00550914 -0.000534325 0.000180098 -7.61097e-11 -6.73612e-11 -1.63368e-11 5e-05 1.46608e-10 
205 1 0.300753 0.0165278 0.00762052 0.00603697 -0.000622666 0.000347724 -8.07189e-11 -4.29236e-11 -5.32173e-11 5e-05 1.46608e-10 
206 1 0.300794 0.0166706 0.00748716 0.00613669 -0.000560295 0.000397308 7.1338e-11 1.293e-11 4.59283e-11 5e-05 1.46608e-10 
207 1 0.300674 0.0162606 0.0079073 0.00545908 -0.000555314 0.00030962 -1.70203e-10 1.44948e-12 2.64143e-11 5e-05 1.46608e-10 
208 1 0.301215 0.0177155 0.0070285 0.00549061 -0.000565105 -3.67181e-05 2.91541e-10 1.19498e-10 -1.11156e-10 5e-05 1.46608e-10 
209 1 0.301041 0.0173244 0.00719275 0.00562141 -0.000358708 0.000283231 2.05793e-10 -8.47801e-11 1.26649e-10 5e-05 1.46608e-10 
210 1 0.306813 0.0167773 0.00749493 0.00597094 0.000241513 4.12311e-05 7.6511e-11 -5.19849e-10 3.22012e-10 5e-05 1.46608e-10 
211 1 0.306835 0.0168586 0.00744066 0.00614239 0.000162207 9.64615e-05 2.34512e-09 -1.1405e-09 8.62182e-10 5e-05 1.46608e-10 
212 1 0.301259 0.0183595 0.00694225 0.00552456 -0.000544782 0.000180746 2.72094e-11 -5.98814e-11 -3.32146e-13 5e-05 1.46608e-10 
213 1 0.307066 0.0182782 0.00691054 0.00562669 -1.69018e-05 -0.000119183 -1.60598e-10 3.89402e-10 -1.36611e-10 5e-05 1.46608e-10 
214 1 0.30692 0.0171827 0.00722232 0.006256 3.34518e-05 3.80353e-05 6.81321e-10 6.3681e-10 -8.18734e-10 5e-05 1.46608e-10 
215 1 0.294939 0.0176708 0.00703931 0.006029 0.00100931 -5.41053e-05 1.06499e-10 2.06149e-11 6.06672e-11 5e-05 1.46608e-10 
216 1 0.300654 0.0161938 0.00797904 0.00542723 -0.00054372 0.000300709 2.00075e-11 -4.58013e-11 4.60135e-11 5e-05 1.46608e-10 
217 1 0.307311 0.0181812 0.0069286 0.00575743 2.69332e-06 -0.000123256 -3.14425e-10 2.68777e-11 -6.12776e-11 5e-05 1.46608e-10 
218 1 0.30095 0.0177214 0.00703739 0.00565683 -0.000608152 -3.29712e-05 4.97819e-12 -2.52203e-10 2.29037e-10 5e-05 1.46608e-10 
219 1 0.306675 0.0165881 0.00761834 0.00578687 0.000645996 -0.000237027 -9.03996e-10 4.84731e-10 -3.21264e-10 5e-05 1.46608e-10 
220 1 0.301064 0.0178433 0.00699276 0.00570217 -0.000659151 -2.2897e-05 9.40239e-11 -5.53948e-11 2.80424e-10 5e-05 1.46608e-10 
222 1 0.307151 0.0174199 0.00712406 0.0057312 9.56056e-05 0.000116576 -4.30737e-11 -3.03423e-10 1.54197e-10 5e-05 1.46608e-10 
224 1 0.300838 0.0168497 0.00740601 0.00613868 -0.000525209 0.000375674 -2.43568e-10 -5.04614e-11 -4.44143e-11 5e-05 1.46608e-10 
225 1 0.306761 0.0169131 0.00740123 0.00630619 0.000327552 -1.20244e-05 1.54838e-09 -1.32843e-09 1.34332e-09 5e-05 1.46608e-10 
226 1 0.301254 0.0179018 0.00696587 0.00546739 -0.000521574 -4.99638e-05 -1.6846e-10 3.59265e-12 1.09905e-11 5e-05 1.46608e-10 
227 1 0.294959 0.0177659 0.00701618 0.00604808 0.00100703 -5.74451e-05 9.04905e-11 9.94541e-12 -4.6001e-11 5e-05 1.46608e-10 
228 1 0.294904 0.0175055 0.00714107 0.00588972 0.000526261 -0.000775938 6.95231e-11 -1.34207e-10 9.82666e-11 5e-05 1.46608e-10 
229 1 0.301224 0.0186216 0.00693047 0.00550334 -0.000485196 0.000177704 7.39052e-12 -6.1637e-11 -4.51759e-12 5e-05 1.46608e-10 
230 1 0.300741 0.0168209 0.00741714 0.00614364 -0.000537911 0.000380867 -6.76093e-11 -1.0084e-10 3.64576e-11 5e-05 1.46608e-10 
232 1 0.301179 0.0181997 0.00703317 0.00553023 -0.000535698 0.000180696 1.08756e-10 8.97167e-11 5.36365e-12 5e-05 1.46608e-10 
233 1 0.30107 0.0182957 0.00693942 0.00551884 -0.000527306 0.000179554 2.47436e-11 1.80972e-10 1.00256e-12 5e-05 1.46608e-10 
234 1 0.306866 0.0173272 0.00714801 0.00562205 2.8561e-05 -1.17388e-05 7.36818e-11 -6.29962e-10 6.29475e-10 5e-05 1.46608e-10 
235 1 0.300699 0.0166505 0.00751289 0.00610946 -0.000582976 0.000331094 -4.4177e-11 5.45503e-11 1.09882e-10 5e-05 1.46608e-10 
236 1 0.300807 0.0170876 0.00729626 0.00616626 -0.000520507 0.000371781 2.76874e-11 -1.03271e-10 2.99358e-11 5e-05 1.46608e-10 
237 1 0.300828 0.0171765 0.00725597 0.00616406 -0.000523684 0.000372753 1.11196e-10 3.08344e-11 7.81172e-11 5e-05 1.46608e-10 
239 1 0.294617 0.0164904 0.00806122 0.00587734 0.000667828 -0.000713527 1.60796e-10 6.42359e-11 -6.25161e-11 5e-05 1.46608e-10 
240 1 0.29468 0.0167097 0.00786643 0.00598306 0.000647942 -0.000698834 6.0961e-10 -1.66406e-10 8.4532e-11 5e-05 1.46608e-10 
241 1 0.294597 0.0164173 0.00812619 0.00584488 0.000676247 -0.000720354 7.61631e-12 -7.13698e-12 2.93556e-11 5e-05 1.46608e-10 
242 1 0.300788 0.016347 0.00781013 0.00558841 -0.000557555 0.000305611 -1.93335e-10 -2.28444e-11 3.57062e-11 5e-05 1.46608e-10 
243 1 0.30116 0.0178728 0.00698103 0.00549146 -0.000486896 0.000143679 -2.31676e-10 8.44591e-11 -2.30746e-10 5e-05 1.46608e-10 
244 1 0.294638 0.0165636 0.00799626 0.00591202 0.000666099 -0.000715165 5.142e-11 3.64607e-11 -7.50913e-11 5e-05 1.46608e-10 
246 1 0.294825 0.0172218 0.00741163 0.00626026 0.000574841 -0.000631312 3.96962e-11 2.59764e-10 2.62344e-11 5e-05 1.46608e-10 
247 1 0.300638 0.0164413 0.00771795 0.00584322 -0.000576398 0.000315271 -4.09509e-10 3.40017e-11 -6.96915e-11 5e-05 1.46608e-10 
248 1 0.300991 0.0177868 0.00710045 0.00564734 -0.000657787 3.22078e-05 4.74496e-10 -3.53278e-10 1.18093e-10 5e-05 1.46608e-10 
249 1 0.294763 0.0170024 0.00760651 0.00616003 0.000607642 -0.000671038 4.16222e-11 1.76175e-11 1.71432e-10 5e-05 1.46608e-10 
250 1 0.300713 0.0163943 0.00776385 0.00585135 -0.000608071 0.000347663 2.89491e-10 1.55459e-11 -4.45134e-11 5e-05 1.46608e-10 
251 1 0.307022 0.0176424 0.00706411 0.00575683 2.70631e-05 -0.000123029 -6.16906e-11 -2.17837e-10 -2.90957e-11 5e-05 1.46608e-10 
252 1 0.294846 0.0172945 0.00734623 0.00631136 0.000498157 -0.000694867 1.62259e-10 7.18941e-11 -1.73199e-10 5e-05 1.46608e-10 
253 1 0.29502 0.0180568 0.00699326 0.00606219 0.000995705 -0.000636309 -1.12512e-11 -6.8721e-12 -1.9254e-11 5e-05 1.46608e-10 
254 1 0.294783 0.0170756 0.00754155 0.006166 0.000580936 -0.00065412 5.51791e-10 -3.5254e-11 2.27365e-10 5e-05 1.46608e-10 
255 1 0.300383 0.0155696 0.00864821 0.00546273 -0.000373291 0.000275012 3.15592e-10 -8.11776e-11 1.2208e-11 5e-05 1.46608e-10 
256 1 0.301429 0.0183252 0.00694852 0.00553279 -0.00056384 0.000181943 1.32099e-10 -8.44116e-11 5.91486e-12 5e-05 1.46608e-10 
257 1 0.300891 0.0167011 0.00747528 0.00617723 -0.000487376 0.00035651 -5.95482e-10 2.74968e-10 -2.72111e-10 5e-05 1.46608e-10 
258 1 0.301087 0.0178142 0.00708825 0.00541402 -0.000520819 2.39354e-05 1.51754e-10 -4.48477e-10 1.59477e-10 5e-05 1.46608e-10 