ITEM: TIMESTEP
57800000
ITEM: NUMBER OF ATOMS
275
ITEM: BOX BOUNDS ff ff ff
-0.02 0.43
-0.02 0.06
-0.02 0.07
ITEM: ATOMS id type x y z vx vy vz fx fy fz radius mass 
1 1 0.350194 0.0182314 0.00699 0.00553658 -0.000278847 9.64564e-08 -4.86193e-11 -1.74729e-10 5.68238e-11 5e-05 1.46608e-10 
2 1 0.349939 0.0170247 0.00740118 0.00548414 -0.000273766 4.09141e-06 4.30314e-12 -4.24527e-11 -2.62979e-11 5e-05 1.46608e-10 
4 1 0.350123 0.0170264 0.00739757 0.0053264 -0.000302977 1.48143e-05 1.06625e-10 -2.29084e-10 7.17586e-11 5e-05 1.46608e-10 
5 1 0.349634 0.0159242 0.00829033 0.00596516 -0.000502792 0.00010328 2.23474e-12 -1.00854e-10 1.4247e-10 5e-05 1.46608e-10 
6 1 0.355926 0.0169889 0.0074919 0.00549861 -0.000967804 0.000184083 -9.0337e-12 -3.1253e-11 1.91005e-11 5e-05 1.46608e-10 
7 1 0.350294 0.0177374 0.00715495 0.00549474 -0.000290552 9.0925e-06 8.86181e-11 -5.44461e-11 9.95598e-12 5e-05 1.46608e-10 
8 1 0.349954 0.0166903 0.00752607 0.00570141 -0.000160118 0.000488198 9.80244e-11 -6.58623e-11 2.48706e-11 5e-05 1.46608e-10 
9 1 0.35612 0.0178562 0.00703362 0.00540946 -0.000951805 0.000199489 1.08759e-11 -1.26309e-11 -1.32911e-10 5e-05 1.46608e-10 
10 1 0.350069 0.0167505 0.00750284 0.00578761 9.88744e-05 0.000353038 2.25293e-10 -1.16767e-10 1.03371e-10 5e-05 1.46608e-10 
11 1 0.350398 0.0182003 0.00699714 0.00559707 -0.000286762 4.37597e-06 -4.94931e-11 -5.30298e-11 1.56851e-11 5e-05 1.46608e-10 
12 1 0.344227 0.0172161 0.00762337 0.00629504 7.67165e-05 0.00093298 -7.97194e-10 5.79049e-10 -4.23097e-10 5e-05 1.46608e-10 
13 1 0.349613 0.0158691 0.00837116 0.00592422 -0.00049323 9.36864e-05 -5.19733e-11 -7.72434e-11 1.13616e-10 5e-05 1.46608e-10 
14 1 0.344354 0.018027 0.00730915 0.00581568 3.65624e-05 0.000882507 4.36045e-11 -2.48695e-11 -1.54739e-10 5e-05 1.46608e-10 
16 1 0.344428 0.018108 0.00718287 0.00620891 -0.000190161 0.00105675 4.5545e-10 7.17435e-11 -1.15548e-10 5e-05 1.46608e-10 
17 1 0.349858 0.016659 0.00753866 0.00571304 -0.00025876 0.0001918 -1.04459e-10 -1.45542e-10 -2.24849e-10 5e-05 1.46608e-10 
19 1 0.350233 0.0184177 0.00692652 0.00558836 -0.0002777 2.97769e-06 1.1197e-10 3.03627e-10 -1.07298e-10 5e-05 1.46608e-10 
21 1 0.350333 0.0179231 0.00709169 0.00550829 -0.000286226 6.13797e-06 4.18431e-11 1.56142e-11 1.02884e-11 5e-05 1.46608e-10 
22 1 0.35009 0.016839 0.00746132 0.00579482 -2.23995e-05 -8.79281e-05 2.51071e-11 3.18559e-11 -1.59347e-11 5e-05 1.46608e-10 
23 1 0.344369 0.0178408 0.00731498 0.00561149 -9.81778e-05 0.000917025 6.20673e-10 -4.62813e-10 3.11768e-10 5e-05 1.46608e-10 
24 1 0.356044 0.0175089 0.00721691 0.00527531 -0.000935837 0.000180193 -7.4926e-12 -4.44275e-11 1.89024e-11 5e-05 1.46608e-10 
25 1 0.34974 0.0161987 0.00788712 0.00571131 -0.000472996 9.05557e-05 1.16407e-10 -1.7859e-11 4.5292e-11 5e-05 1.46608e-10 
26 1 0.356083 0.0176824 0.00712522 0.00533496 -0.000945249 0.000181953 5.12885e-11 2.43425e-11 -4.42075e-12 5e-05 1.46608e-10 
27 1 0.343896 0.016557 0.00792053 0.00584609 0.000259647 0.000768165 -8.08148e-11 1.16005e-10 -5.5534e-11 5e-05 1.46608e-10 
28 1 0.350161 0.0173231 0.00737713 0.0054913 -0.000319172 3.53056e-05 -9.49258e-11 1.78855e-10 -5.91824e-12 5e-05 1.46608e-10 
29 1 0.349592 0.0158141 0.00845199 0.00589105 -0.000486572 8.75023e-05 -1.51624e-12 -5.65114e-11 8.27113e-11 5e-05 1.46608e-10 
30 1 0.349816 0.0164833 0.0076243 0.00571211 -0.000122299 0.000470906 -1.33997e-11 3.95183e-11 -2.54053e-11 5e-05 1.46608e-10 
31 1 0.350449 0.0180456 0.00704848 0.00553322 -0.000306836 1.23896e-05 -5.49272e-11 -7.67367e-11 2.76119e-11 5e-05 1.46608e-10 
32 1 0.349759 0.0162541 0.00780602 0.00554361 -0.000448258 6.39099e-05 -4.40749e-11 -3.88033e-11 -7.6442e-11 5e-05 1.46608e-10 
33 1 0.355947 0.0170754 0.0074461 0.0055189 -0.0009742 0.000186133 1.86545e-11 -5.15982e-11 2.18134e-11 5e-05 1.46608e-10 
34 1 0.349723 0.01615 0.00797287 0.00592767 -0.000495671 0.000120647 7.97768e-11 -5.20584e-11 1.0649e-10 5e-05 1.46608e-10 
35 1 0.350255 0.0175517 0.00721823 0.00540341 -0.000279822 5.68305e-06 -8.94477e-12 4.66766e-12 2.10541e-11 5e-05 1.46608e-10 
36 1 0.356176 0.018131 0.00696976 0.00545973 -0.000944169 0.000234127 1.69854e-11 1.27948e-11 -5.09997e-12 5e-05 1.46608e-10 
37 1 0.350112 0.0169314 0.00742979 0.00564011 6.46625e-06 -9.57494e-05 1.77183e-10 1.30341e-10 -4.29336e-11 5e-05 1.46608e-10 
38 1 0.350209 0.0173394 0.00729061 0.00536841 -0.000245553 -8.16424e-06 -2.46128e-10 1.30487e-11 5.15621e-11 5e-05 1.46608e-10 
39 1 0.356064 0.0175957 0.00717106 0.00528522 -0.000936329 0.000179728 2.01893e-11 -1.31229e-11 5.6472e-12 5e-05 1.46608e-10 
41 1 0.349676 0.0160343 0.0081287 0.00605787 -0.000527141 0.000128331 5.52493e-11 -1.23998e-10 1.69687e-10 5e-05 1.46608e-10 
42 1 0.350181 0.0172319 0.0073273 0.00547911 -0.000237261 -9.9097e-06 1.46705e-10 1.95598e-10 -7.73739e-11 5e-05 1.46608e-10 
44 1 0.350389 0.0177674 0.0071433 0.00547375 -0.000325171 1.95885e-05 -1.04662e-10 -1.03875e-10 3.77384e-11 5e-05 1.46608e-10 
45 1 0.355967 0.017162 0.0074003 0.00553679 -0.000981651 0.000189034 -2.23767e-11 -6.93949e-11 3.75173e-11 5e-05 1.46608e-10 
47 1 0.349697 0.0160893 0.00804785 0.00606561 -0.000532497 0.000135085 -3.84308e-12 -9.0156e-11 1.3137e-10 5e-05 1.46608e-10 
48 1 0.350136 0.0179527 0.00708495 0.00550456 -0.0002891 4.77554e-06 -3.82297e-11 1.88201e-10 -8.12903e-11 5e-05 1.46608e-10 
49 1 0.356141 0.0179439 0.00699019 0.00545835 -0.000949134 0.000226883 -4.6201e-11 3.30589e-12 -1.09804e-10 5e-05 1.46608e-10 
50 1 0.34978 0.0163294 0.00774377 0.00552869 -0.000356943 0.000158265 -1.33943e-11 1.91881e-11 -7.23557e-11 5e-05 1.46608e-10 
51 1 0.350473 0.0181374 0.0070171 0.00557257 -0.000315782 1.46709e-05 -1.3739e-10 -9.27011e-11 3.63187e-11 5e-05 1.46608e-10 
52 1 0.344293 0.0174829 0.00749247 0.00477742 -0.000138329 0.000814226 -4.91307e-10 -2.38439e-10 1.95914e-11 5e-05 1.46608e-10 
53 1 0.356006 0.0173354 0.00730863 0.00536223 -0.000952133 0.000183758 6.16953e-11 -7.26714e-12 5.10201e-12 5e-05 1.46608e-10 
54 1 0.350387 0.0187313 0.00683051 0.00611226 -0.000395074 5.6412e-05 1.1379e-10 -1.46858e-11 4.84245e-11 5e-05 1.46608e-10 
55 1 0.344017 0.0170325 0.00768795 0.00561074 0.000392027 0.000654569 -3.67581e-10 -1.13264e-09 3.89444e-10 5e-05 1.46608e-10 
56 1 0.350272 0.0186038 0.00686313 0.00560641 -0.000302782 9.85127e-06 -1.29476e-11 -8.0992e-12 -4.00798e-13 5e-05 1.46608e-10 
57 1 0.355987 0.0172486 0.00735448 0.00538717 -0.000954468 0.000183531 2.22521e-10 -9.03178e-11 3.60561e-11 5e-05 1.46608e-10 
59 1 0.378022 0.019866 0.005332 -5.01934e-15 -7.41214e-15 7.69803e-14 -5.22158e-24 3.30872e-24 0 5e-05 1.46608e-10 
60 1 0.350408 0.0178602 0.00711166 0.00550945 -0.000300161 1.05597e-05 1.14508e-11 -1.46893e-10 4.95727e-11 5e-05 1.46608e-10 
61 1 0.349655 0.0159792 0.00820951 0.00602157 -0.000516481 0.000117068 8.70132e-12 -1.17433e-10 1.66526e-10 5e-05 1.46608e-10 
62 1 0.350235 0.0174632 0.00726041 0.00537421 -0.000271563 7.74662e-06 2.567e-11 1.24494e-10 6.98715e-11 5e-05 1.46608e-10 
63 1 0.350463 0.0186676 0.00683846 0.00596198 -0.000571376 9.41436e-05 8.51599e-11 1.76518e-12 -5.70196e-11 5e-05 1.46608e-10 
64 1 0.356026 0.0174221 0.00726279 0.00531312 -0.000942867 0.000181815 -7.53533e-12 -3.28555e-11 1.75531e-11 5e-05 1.46608e-10 
65 1 0.343983 0.0171217 0.00771743 0.00571727 0.000455658 0.000584305 -5.59288e-11 -7.66184e-10 1.14608e-09 5e-05 1.46608e-10 
66 1 0.344201 0.0178655 0.00729598 0.00563976 -5.42077e-05 0.000902753 2.95485e-10 -5.41617e-10 4.60032e-10 5e-05 1.46608e-10 
67 1 0.350353 0.0180159 0.00706008 0.00551864 -0.000281207 3.97479e-06 4.00293e-11 -2.0609e-11 1.24887e-11 5e-05 1.46608e-10 
68 1 0.350097 0.0172846 0.00731092 0.00549822 -0.000268323 -5.40159e-07 -1.44353e-11 1.77945e-10 -5.17332e-11 5e-05 1.46608e-10 
69 1 0.350478 0.0183322 0.00695132 0.00558833 -0.000294429 7.44346e-06 1.30875e-10 -1.26541e-10 3.54443e-11 5e-05 1.46608e-10 
70 1 0.356101 0.0177695 0.0070793 0.00537717 -0.000951309 0.000185165 7.74573e-12 3.73832e-11 -3.98032e-11 5e-05 1.46608e-10 
71 1 0.344317 0.0183912 0.00701586 0.00610514 -0.000162789 0.00103365 7.9616e-11 -5.40927e-10 3.39447e-10 5e-05 1.46608e-10 
72 1 0.350386 0.0182944 0.00696559 0.00560288 -0.000283509 2.24808e-06 2.77584e-11 -6.21154e-11 2.11023e-11 5e-05 1.46608e-10 
73 1 0.350159 0.0171365 0.00735985 0.00538993 -0.000347977 2.7455e-05 1.04615e-10 6.19586e-11 -1.54236e-11 5e-05 1.46608e-10 
74 1 0.349803 0.0163981 0.00767481 0.00569463 -0.000182504 0.000376304 7.85396e-11 1.06695e-10 3.26829e-11 5e-05 1.46608e-10 
76 1 0.343971 0.0167695 0.00781978 0.00573144 0.000372758 0.000694706 -5.7253e-10 3.41684e-10 -3.1613e-10 5e-05 1.46608e-10 
77 1 0.349959 0.0171174 0.00736959 0.00539659 -0.000250819 -3.53325e-06 -5.13956e-11 -2.7862e-11 -1.19173e-11 5e-05 1.46608e-10 
78 1 0.343496 0.0154827 0.00873652 0.00587214 -0.00101603 -0.00031945 -1.39654e-10 1.27644e-10 -9.25401e-11 5e-05 1.46608e-10 
79 1 0.344393 0.0183394 0.00705501 0.00619222 -8.57816e-05 0.0010023 4.47902e-10 -2.24785e-10 2.42854e-10 5e-05 1.46608e-10 
80 1 0.350057 0.0170985 0.00737433 0.00537899 -0.000281046 8.05436e-06 -2.4688e-11 -1.21026e-10 3.24145e-11 5e-05 1.46608e-10 
82 1 0.344294 0.017894 0.0072753 0.00563138 -9.1147e-05 0.000918883 3.0474e-10 -5.86104e-10 3.84749e-10 5e-05 1.46608e-10 
83 1 0.344249 0.0173047 0.00757992 0.00562433 0.000665474 0.00051595 2.32787e-09 -3.25914e-09 1.91494e-09 5e-05 1.46608e-10 
84 1 0.356157 0.0180345 0.00695116 0.00546543 -0.000944266 0.000236144 9.67962e-12 3.90726e-11 3.79139e-12 5e-05 1.46608e-10 
85 1 0.344197 0.0182581 0.00706777 0.00593733 -0.000173105 0.0010418 2.81492e-10 1.22895e-09 -7.38523e-10 5e-05 1.46608e-10 
86 1 0.350296 0.017385 0.00727378 0.00538789 -0.000269434 6.3233e-06 -1.92181e-10 -2.33831e-10 8.6808e-11 5e-05 1.46608e-10 
87 1 0.350019 0.0169675 0.00741914 0.00558944 -0.00013113 -4.63936e-05 1.74199e-10 6.94227e-11 -4.86428e-11 5e-05 1.46608e-10 
88 1 0.350156 0.0175635 0.0072159 0.00540389 -0.000299133 1.24817e-05 -2.08889e-10 1.82903e-10 -5.4334e-11 5e-05 1.46608e-10 
89 1 0.350481 0.0184847 0.00689985 0.00581306 -0.000458801 5.91226e-05 7.01336e-11 -1.87341e-11 7.93494e-12 5e-05 1.46608e-10 
90 1 0.350374 0.0181084 0.00702851 0.0055555 -0.00028172 3.61688e-06 -1.08047e-10 -4.30474e-11 1.42539e-11 5e-05 1.46608e-10 
91 1 0.344172 0.0171055 0.00767328 0.00512092 -0.000378331 0.000996112 -4.6045e-10 3.13288e-10 -1.52718e-10 5e-05 1.46608e-10 
92 1 0.350058 0.0175814 0.00721147 0.00541402 -0.000254123 -3.60129e-06 -4.83522e-11 -6.08393e-11 9.61004e-12 5e-05 1.46608e-10 
93 1 0.35008 0.0174589 0.00732915 0.00535526 -0.000330634 -3.50786e-05 -1.25765e-10 8.03385e-11 -4.22207e-11 5e-05 1.46608e-10 
94 1 0.35031 0.0183566 0.00694587 0.00559335 -0.000290625 4.84538e-06 -2.37186e-11 -3.68982e-12 9.67739e-13 5e-05 1.46608e-10 
95 1 0.350197 0.0180142 0.00713859 0.00548857 -0.000310773 2.72078e-05 -2.02249e-10 1.25617e-10 5.50906e-12 5e-05 1.46608e-10 
96 1 0.350038 0.0174885 0.00724311 0.00537218 -0.000235596 -9.45357e-06 2.94108e-12 1.58092e-11 -3.18496e-11 5e-05 1.46608e-10 
97 1 0.343578 0.0156897 0.00840445 0.00603686 -0.00070176 -3.40225e-05 3.32927e-11 -1.51192e-11 -7.91755e-11 5e-05 1.46608e-10 
98 1 0.349911 0.0165132 0.00761545 0.00570887 -0.00012274 0.000469694 -8.20507e-11 6.55056e-11 -3.01514e-11 5e-05 1.46608e-10 
99 1 0.344049 0.0175521 0.00741812 0.00477286 6.62411e-05 0.000694069 -1.65489e-11 -5.12946e-11 -1.3596e-10 5e-05 1.46608e-10 
100 1 0.350314 0.0178302 0.00712332 0.00550486 -0.000290826 7.76618e-06 1.11926e-11 -2.29066e-11 1.71388e-11 5e-05 1.46608e-10 
101 1 0.344066 0.0176403 0.00737417 0.00543692 3.99558e-05 0.000799928 -2.52473e-10 -3.5999e-10 -7.56789e-11 5e-05 1.46608e-10 
102 1 0.0643568 0.0187248 0.00531097 3.96746e-15 1.05862e-14 8.29642e-14 1.3384e-21 -5.00548e-22 8.27181e-25 5e-05 1.46608e-10 
103 1 0.24257 0.0191927 0.00520306 1.4124e-22 4.86658e-23 8.29106e-22 0 0 0 5e-05 1.46608e-10 
104 1 0.344469 0.0182876 0.00709417 0.0061645 -0.000143085 0.00102884 4.89062e-10 -1.31418e-10 1.17897e-10 5e-05 1.46608e-10 
105 1 0.3436 0.0157459 0.00832445 0.00611855 -2.47528e-05 0.000475342 -1.77263e-10 -1.69689e-11 -2.48956e-11 5e-05 1.46608e-10 
106 1 0.344058 0.0172383 0.0075855 0.00609689 9.59634e-05 0.00092266 1.44608e-10 2.60136e-10 3.56783e-10 5e-05 1.46608e-10 
107 1 0.343516 0.0155339 0.00865314 0.00589579 -0.00102518 -0.000314475 5.93553e-11 -2.5578e-11 -1.24052e-10 5e-05 1.46608e-10 
108 1 0.350445 0.0185731 0.00687062 0.00583389 -0.000451587 5.79249e-05 1.09837e-11 -5.91675e-11 1.35675e-11 5e-05 1.46608e-10 
109 1 0.350292 0.0186966 0.0068315 0.00562596 -0.000288605 5.11434e-06 -5.64464e-11 -1.77161e-11 -1.95286e-12 5e-05 1.46608e-10 
110 1 0.349983 0.0171916 0.00743617 0.00551998 -0.000317974 -9.98843e-06 -1.67913e-10 1.06889e-10 -9.4672e-12 5e-05 1.46608e-10 
111 1 0.349919 0.0169347 0.00743982 0.00565056 -0.000308489 2.2193e-05 4.32241e-11 -6.4896e-11 -3.97848e-11 5e-05 1.46608e-10 
112 1 0.344005 0.017368 0.00760342 0.0061634 -0.000181987 0.00109191 -1.33255e-10 4.83491e-11 -7.30558e-10 5e-05 1.46608e-10 
113 1 0.343932 0.0171131 0.00763207 0.00563854 0.000299463 0.000698829 -5.82041e-10 -1.21814e-11 8.58937e-11 5e-05 1.46608e-10 
114 1 0.344004 0.0173769 0.00750382 0.0061389 -0.000168568 0.00105894 -1.62468e-10 1.4434e-10 -4.23287e-10 5e-05 1.46608e-10 
115 1 0.350294 0.0172895 0.00730603 0.00544361 -0.000133833 -4.55725e-05 -1.91928e-10 -1.56041e-11 -8.06116e-11 5e-05 1.46608e-10 
116 1 0.350234 0.0179356 0.00708909 0.0055045 -0.000292346 6.88023e-06 -1.89721e-11 1.9335e-10 -9.09064e-11 5e-05 1.46608e-10 
117 1 0.350275 0.0176445 0.0071866 0.00545139 -0.000286093 7.75185e-06 8.73363e-11 -6.43324e-11 -5.30043e-14 5e-05 1.46608e-10 
118 1 0.344132 0.0171839 0.00762567 0.00606541 4.52916e-05 0.000916883 -8.57115e-10 3.70086e-10 -5.53237e-10 5e-05 1.46608e-10 
119 1 0.35042 0.0184097 0.00692614 0.0055892 -0.000294555 7.25314e-06 1.6366e-10 -1.04256e-10 3.38337e-11 5e-05 1.46608e-10 
120 1 0.350027 0.0166315 0.00756191 0.00570566 -0.000145355 0.000482894 1.36398e-10 1.35885e-10 -3.00825e-11 5e-05 1.46608e-10 
121 1 0.350329 0.0184495 0.00691423 0.00559001 -0.000298687 9.27998e-06 1.09972e-10 -1.00406e-10 3.12431e-11 5e-05 1.46608e-10 
122 1 0.350019 0.0173957 0.00727475 0.00543516 -0.000253224 -4.34101e-06 1.17965e-10 5.49184e-11 -3.2337e-11 5e-05 1.46608e-10 
123 1 0.344235 0.0184362 0.00697945 0.00603534 -0.000217844 0.00105576 6.45535e-11 -2.4566e-10 2.03451e-10 5e-05 1.46608e-10 
124 1 0.349932 0.0166005 0.00757134 0.00570464 -0.000126046 0.000472722 -2.59116e-11 4.24654e-11 -7.394e-11 5e-05 1.46608e-10 
125 1 0.350137 0.0174704 0.00724761 0.0053708 -0.000247681 -7.35546e-06 -4.07956e-12 -9.62807e-11 3.6658e-11 5e-05 1.46608e-10 
127 1 0.343558 0.0156363 0.00848637 0.0059988 -0.00105063 -0.000293087 -1.43197e-10 1.93316e-10 2.33924e-11 5e-05 1.46608e-10 
128 1 0.349837 0.0165732 0.00758568 0.00571551 -0.000163951 0.000366894 -6.45809e-11 -8.403e-11 -1.20307e-10 5e-05 1.46608e-10 
129 1 0.350236 0.0181999 0.00707525 0.00549839 -0.000260802 1.56621e-06 4.5175e-11 -8.99034e-11 4.78162e-11 5e-05 1.46608e-10 
130 1 0.344101 0.0174181 0.00750982 0.0062667 8.4763e-05 0.000952749 -1.80061e-09 2.14487e-09 -8.77369e-10 5e-05 1.46608e-10 
131 1 0.344125 0.0174999 0.00745743 0.00489743 0.000197215 0.000660576 3.39241e-10 7.18339e-10 -6.77266e-10 5e-05 1.46608e-10 
132 1 0.350274 0.0171968 0.00733762 0.00546044 -0.000143796 -4.00827e-05 -4.05381e-10 -6.58105e-11 2.6906e-11 5e-05 1.46608e-10 
133 1 0.350254 0.0180285 0.00705745 0.00552492 -0.000267102 -1.12755e-06 1.93488e-11 5.84385e-11 -2.48101e-11 5e-05 1.46608e-10 
134 1 0.350214 0.0178428 0.00712073 0.0055033 -0.000265588 -7.62323e-07 -3.65498e-11 2.54584e-11 -3.94857e-11 5e-05 1.46608e-10 
135 1 0.350489 0.018238 0.00698292 0.00560126 -0.000292818 6.57592e-06 -2.08836e-11 -1.24607e-10 4.08449e-11 5e-05 1.46608e-10 
136 1 0.343989 0.016946 0.00772926 0.00572433 0.000419954 0.00066785 -3.40673e-10 -2.84663e-10 6.61024e-11 5e-05 1.46608e-10 
137 1 0.350332 0.0188869 0.00687802 0.00615439 -0.000324629 8.05699e-05 1.2088e-10 5.2827e-11 1.95421e-11 5e-05 1.46608e-10 
138 1 0.350097 0.0177671 0.0071482 0.00548411 -0.000273971 2.161e-06 2.35156e-11 7.10025e-11 -4.38759e-11 5e-05 1.46608e-10 
140 1 0.349979 0.0172101 0.00733797 0.00546649 -0.000258667 1.67096e-06 -5.77223e-11 9.44893e-13 1.23353e-12 5e-05 1.46608e-10 
141 1 0.343916 0.0162546 0.00808361 0.00596883 0.000298534 0.000763464 -7.82355e-11 -1.25081e-10 4.39467e-11 5e-05 1.46608e-10 
142 1 0.344333 0.0176596 0.00740522 0.00555439 -1.2054e-05 0.000865896 2.16423e-10 1.37327e-10 -2.35839e-11 5e-05 1.46608e-10 
143 1 0.343537 0.0155851 0.00856975 0.00593247 -0.00104162 -0.000308348 -3.70046e-10 8.99462e-11 5.66375e-11 5e-05 1.46608e-10 
144 1 0.344176 0.0173597 0.00753955 0.00614522 0.000108753 0.00087141 -7.5001e-10 2.22187e-09 -7.74628e-10 5e-05 1.46608e-10 
146 1 0.343717 0.0158579 0.00826259 0.00609167 0.000249132 0.000810357 2.25049e-10 2.04725e-10 -1.36956e-10 5e-05 1.46608e-10 
147 1 0.344081 0.0173258 0.00754268 0.00626775 5.88647e-05 0.000916535 -6.50868e-10 1.88629e-09 -6.85232e-10 5e-05 1.46608e-10 
148 1 0.34392 0.0163432 0.00803741 0.00594128 0.000287855 0.000766524 -2.83221e-11 -1.30665e-10 5.01559e-11 5e-05 1.46608e-10 
149 1 0.349878 0.016748 0.00749766 0.00574427 -0.00031758 7.08673e-05 1.89515e-11 -9.68148e-11 -1.6446e-11 5e-05 1.46608e-10 
150 1 0.344184 0.0181906 0.00714022 0.00578616 -0.000178082 0.00102447 4.03081e-10 8.49954e-10 -7.06989e-10 5e-05 1.46608e-10 
151 1 0.344107 0.01783 0.00731618 0.0055346 -5.55894e-05 0.000881188 9.28189e-11 -2.55953e-11 -4.43128e-11 5e-05 1.46608e-10 
153 1 0.343951 0.0164293 0.00799658 0.0059163 0.00028585 0.000764354 1.32694e-11 -2.43732e-11 -1.71174e-11 5e-05 1.46608e-10 
154 1 0.343802 0.0159105 0.00824789 0.00604235 0.000269153 0.000793764 1.82179e-10 -1.38807e-10 4.76479e-11 5e-05 1.46608e-10 
155 1 0.34405 0.0175435 0.00751774 0.00532009 0.000198091 0.000720097 5.07458e-11 -6.57373e-11 -9.7412e-10 5e-05 1.46608e-10 
156 1 0.343894 0.016167 0.00812647 0.00600314 0.000302318 0.00076922 -8.66861e-11 -1.01673e-10 3.77725e-11 5e-05 1.46608e-10 
157 1 0.0219312 0.0187687 0.00551176 -3.82715e-14 8.16946e-14 2.95888e-13 2.96518e-22 2.7633e-22 -4.38406e-23 5e-05 1.46608e-10 
158 1 0.344012 0.0166013 0.00791508 0.00581807 0.000326609 0.000728762 -1.65118e-10 3.35719e-10 -1.83743e-10 5e-05 1.46608e-10 
159 1 0.350237 0.0174158 0.00734843 0.00535138 -0.000274751 1.53352e-06 -1.2077e-10 -2.69983e-11 -1.47471e-10 5e-05 1.46608e-10 
160 1 0.344085 0.0177295 0.00732989 0.00550967 3.23987e-05 0.000832602 2.56822e-11 -4.7987e-10 2.93709e-10 5e-05 1.46608e-10 
162 1 0.344311 0.0183117 0.00715868 0.00594822 7.72368e-06 0.00100566 3.71289e-10 -2.05126e-10 3.04015e-10 5e-05 1.46608e-10 
164 1 0.343844 0.0166724 0.00794927 0.00582727 0.000229535 0.000779953 -3.06155e-11 -9.9524e-11 -2.30494e-10 5e-05 1.46608e-10 
165 1 0.344236 0.0180394 0.00719556 0.00577624 -0.000148227 0.000965827 -1.10994e-11 -2.06379e-10 -1.17417e-09 5e-05 1.46608e-10 
166 1 0.350116 0.0178604 0.00711821 0.00549369 -0.000280609 6.06605e-06 3.49232e-11 1.09526e-10 -1.01391e-10 5e-05 1.46608e-10 
167 1 0.344143 0.0180011 0.00719522 0.00570657 -3.41364e-05 0.000897017 -5.62504e-11 -1.10347e-10 -6.79844e-11 5e-05 1.46608e-10 
168 1 0.344279 0.0182193 0.00711049 0.00601062 -0.000219491 0.00102374 -4.5857e-10 4.09095e-10 -2.99034e-10 5e-05 1.46608e-10 
169 1 0.344161 0.0180891 0.00715157 0.00581381 -3.34346e-05 0.000931945 -3.21179e-10 -2.187e-10 -3.5692e-10 5e-05 1.46608e-10 
170 1 0.344258 0.0181245 0.00714789 0.00583829 -0.000145585 0.00101615 3.54757e-10 2.0205e-10 5.74879e-11 5e-05 1.46608e-10 
171 1 0.350369 0.0186352 0.00685123 0.00591631 -0.000357359 4.4884e-05 -3.30007e-11 -1.03641e-10 4.5647e-11 5e-05 1.46608e-10 
172 1 0.34391 0.0170254 0.00767519 0.00570621 0.000282108 0.000722149 4.11363e-10 3.0142e-10 -9.12276e-11 5e-05 1.46608e-10 
173 1 0.350253 0.0185109 0.00689476 0.00558816 -0.000315431 1.42489e-05 9.83143e-11 1.33848e-10 -2.02364e-11 5e-05 1.46608e-10 
174 1 0.343679 0.0160857 0.00817287 0.00599399 0.000265643 0.000803568 8.47382e-11 3.45368e-11 -1.0406e-10 5e-05 1.46608e-10 
176 1 0.343958 0.0170327 0.00776827 0.00569611 0.000377684 0.000705389 -1.3071e-10 2.82321e-10 1.9745e-10 5e-05 1.46608e-10 
177 1 0.343752 0.0164316 0.00807557 0.00584408 0.000368239 0.000480915 9.5708e-12 -5.50713e-11 -3.38379e-12 5e-05 1.46608e-10 
178 1 0.344141 0.0179125 0.00736141 0.00554564 -7.0194e-05 0.000889779 -1.10183e-10 7.07677e-12 -1.43284e-10 5e-05 1.46608e-10 
179 1 0.344144 0.0179864 0.00729411 0.00569388 -6.62953e-05 0.000894364 1.20984e-10 6.09493e-11 -1.03827e-11 5e-05 1.46608e-10 
182 1 0.350214 0.0183246 0.00695823 0.00556627 -0.000286267 6.50375e-06 -4.28355e-11 1.01486e-11 -8.24296e-12 5e-05 1.46608e-10 
183 1 0.34398 0.0172876 0.00754733 0.00629262 9.44241e-05 0.000897449 -4.65802e-10 -8.03309e-10 2.7061e-10 5e-05 1.46608e-10 
184 1 0.350293 0.0182143 0.00699415 0.00552365 -0.000297465 9.38467e-06 -7.69303e-11 3.72287e-11 -1.08323e-11 5e-05 1.46608e-10 
185 1 0.344198 0.0174516 0.00750445 0.00524546 0.000542969 0.000499544 -3.60464e-10 2.72162e-10 -3.46764e-10 5e-05 1.46608e-10 
186 1 0.344221 0.0183651 0.0070589 0.005905 -0.000219806 0.000917693 1.62966e-10 2.99639e-10 3.1227e-10 5e-05 1.46608e-10 
187 1 0.350273 0.0181214 0.00702581 0.0054836 -0.000258817 -1.91147e-06 3.17797e-10 1.63132e-11 -2.45456e-11 5e-05 1.46608e-10 
188 1 0.350117 0.0173775 0.00727926 0.00546636 -6.91625e-05 -6.83094e-05 5.3097e-11 3.47103e-10 -1.44637e-10 5e-05 1.46608e-10 
189 1 0.350283 0.0183076 0.00702865 0.00558516 -0.000281952 2.99859e-06 -1.80425e-10 -5.58295e-12 2.02166e-11 5e-05 1.46608e-10 
190 1 0.338247 0.0184876 0.006994 0.00581438 -0.00111336 0.000694734 -1.84915e-11 2.94678e-11 -1.23255e-11 5e-05 1.46608e-10 
191 1 0.349898 0.0168399 0.00746416 0.00573799 -0.000331283 2.76265e-05 7.5336e-11 -4.30303e-11 8.86053e-11 5e-05 1.46608e-10 
192 1 0.343956 0.0172003 0.00758975 0.00738395 -2.85065e-06 0.00114872 -3.00895e-10 -4.63866e-10 1.87923e-10 5e-05 1.46608e-10 
193 1 0.350311 0.0187929 0.00685148 0.00617598 -0.000327457 8.95445e-05 5.14146e-11 6.3915e-11 -1.56967e-11 5e-05 1.46608e-10 
194 1 0.344375 0.0182508 0.00709911 0.00599789 -0.000153668 0.00102029 -2.31719e-11 -8.96545e-10 4.18472e-10 5e-05 1.46608e-10 
195 1 0.34431 0.0179822 0.00723111 0.00578775 -0.000125622 0.000976725 -4.56572e-10 -5.0016e-10 1.09239e-11 5e-05 1.46608e-10 
196 1 0.344257 0.0177116 0.00736599 0.0056091 3.83045e-05 0.000849472 -3.08824e-10 -3.12464e-10 9.56643e-11 5e-05 1.46608e-10 
197 1 0.337932 0.0170362 0.00752887 0.00542171 -0.00123489 0.000201028 3.01857e-11 -1.30804e-10 1.4124e-10 5e-05 1.46608e-10 
198 1 0.344272 0.0173923 0.00753715 0.0054352 0.000720849 0.000468886 -3.77563e-10 1.92782e-10 -2.49246e-10 5e-05 1.46608e-10 
199 1 0.344388 0.017932 0.00726965 0.00584974 -4.268e-05 0.000930056 2.64798e-10 -7.1474e-11 1.36267e-10 5e-05 1.46608e-10 
200 1 0.343846 0.0159925 0.00821129 0.00595497 0.000301979 0.000761467 1.26002e-10 -1.53797e-10 1.07101e-10 5e-05 1.46608e-10 
201 1 0.344333 0.018071 0.00718768 0.0058703 -0.000160764 0.00100743 7.1652e-11 3.11649e-10 1.2328e-10 5e-05 1.46608e-10 
202 1 0.344006 0.0166892 0.00786771 0.00578077 0.000351446 0.000713308 -2.26828e-10 5.32062e-10 -3.50006e-10 5e-05 1.46608e-10 
203 1 0.350195 0.0177492 0.00715263 0.00549091 -0.000285045 6.27297e-06 8.78326e-11 3.16308e-11 -4.97823e-11 5e-05 1.46608e-10 
204 1 0.34441 0.01802 0.00722653 0.00594468 -0.000146507 0.000994999 -5.20435e-10 1.12562e-10 -1.43667e-10 5e-05 1.46608e-10 
205 1 0.343833 0.0163091 0.00807245 0.00595496 0.000275094 0.000763926 -6.42704e-11 -7.79464e-11 3.60342e-11 5e-05 1.46608e-10 
206 1 0.343869 0.0164854 0.00798491 0.00588598 0.000246017 0.000777885 7.27726e-13 -1.29152e-11 -6.6129e-11 5e-05 1.46608e-10 
207 1 0.343727 0.0159631 0.00820842 0.00604634 0.000281265 0.000792451 1.07244e-10 -8.23359e-11 6.67078e-11 5e-05 1.46608e-10 
208 1 0.344311 0.0175717 0.00744833 0.00510432 -0.000223292 0.000908714 -2.30611e-10 -1.50139e-10 2.55558e-11 5e-05 1.46608e-10 
209 1 0.344073 0.0171092 0.00765596 0.00558985 0.000307552 0.000692132 -2.58437e-10 -1.65011e-09 7.26976e-10 5e-05 1.46608e-10 
210 1 0.349976 0.0167796 0.00748323 0.0057887 -0.000259297 -8.87808e-05 1.52118e-10 2.50936e-11 4.2889e-10 5e-05 1.46608e-10 
211 1 0.349997 0.0168735 0.00745122 0.00573528 -0.00019236 -3.62582e-05 -8.4547e-11 -1.31386e-10 -1.81554e-11 5e-05 1.46608e-10 
212 1 0.344353 0.018161 0.00714325 0.00612499 -0.000196485 0.00103657 -7.65238e-10 -3.51063e-10 4.44884e-10 5e-05 1.46608e-10 
213 1 0.350175 0.0181384 0.00702169 0.00553128 -0.000272589 1.30609e-06 -2.24749e-10 -8.95878e-11 5.74126e-11 5e-05 1.46608e-10 
214 1 0.350077 0.0171913 0.00734272 0.00543639 -0.000309007 1.33501e-05 -4.01931e-11 -6.07834e-11 -3.32756e-11 5e-05 1.46608e-10 
215 1 0.338146 0.0180125 0.00706984 0.00532463 -0.00115897 0.000286101 -3.1582e-11 -4.98499e-12 -4.51871e-11 5e-05 1.46608e-10 
216 1 0.343642 0.0159156 0.00823174 0.00606876 0.000242869 0.000816989 2.34078e-11 -6.89495e-11 -8.50477e-11 5e-05 1.46608e-10 
217 1 0.350349 0.0185422 0.00688262 0.0056978 -0.000317265 2.11908e-05 -2.19055e-11 -1.84465e-10 -1.06079e-11 5e-05 1.46608e-10 
218 1 0.344027 0.0174644 0.00746106 0.00615777 -0.000132038 0.00103844 -3.33941e-10 1.74807e-09 -9.54213e-10 5e-05 1.46608e-10 
219 1 0.35004 0.0172701 0.00739154 0.00551866 -0.000262547 -1.38558e-06 -1.77037e-10 -1.46318e-10 1.31094e-11 5e-05 1.46608e-10 
220 1 0.344142 0.0175881 0.00741352 0.00480821 7.34245e-05 0.000702492 -6.867e-10 4.37416e-10 -4.51878e-10 5e-05 1.46608e-10 
222 1 0.350428 0.017953 0.00708004 0.00551683 -0.000302416 1.12139e-05 8.52569e-11 -1.48498e-10 4.90224e-11 5e-05 1.46608e-10 
224 1 0.343917 0.0166447 0.00787748 0.00581675 0.000267323 0.000758436 2.50351e-11 3.45881e-11 1.02357e-11 5e-05 1.46608e-10 
225 1 0.35 0.0170837 0.00745467 0.00535329 -0.000324091 -1.7955e-05 6.23014e-11 1.03279e-10 6.40222e-11 5e-05 1.46608e-10 
226 1 0.344351 0.0177511 0.0073596 0.00572104 4.42913e-06 0.000884884 6.23955e-10 -4.45499e-10 3.96613e-10 5e-05 1.46608e-10 
227 1 0.338167 0.0181038 0.00703437 0.00531714 -0.00107576 0.000499131 -1.0072e-10 -6.01886e-11 -9.55014e-11 5e-05 1.46608e-10 
228 1 0.338108 0.0178336 0.00715061 0.00530395 -0.00118497 0.000177303 -8.67222e-11 4.21014e-11 -8.2418e-12 5e-05 1.46608e-10 
229 1 0.344299 0.0183031 0.00705979 0.00593007 -0.000203559 0.00102295 -1.25716e-11 -4.6859e-10 3.51991e-10 5e-05 1.46608e-10 
230 1 0.343805 0.016587 0.00789066 0.00583571 0.000234373 0.000781297 1.6779e-11 2.08234e-10 -9.81954e-11 5e-05 1.46608e-10 
232 1 0.344413 0.0184273 0.00701172 0.0061696 -5.72735e-05 0.000985745 2.43436e-10 -3.4389e-10 2.29855e-10 5e-05 1.46608e-10 
233 1 0.344121 0.0178995 0.00724562 0.0056145 -8.30029e-05 0.000907687 2.07325e-10 -1.37186e-11 1.83905e-10 5e-05 1.46608e-10 
234 1 0.349999 0.0173029 0.00730636 0.00551888 -0.000274337 2.33397e-06 1.03667e-11 6.8741e-11 1.36943e-11 5e-05 1.46608e-10 
235 1 0.343763 0.0164115 0.00797688 0.00589628 0.000229575 0.000790681 -2.43322e-11 -9.49076e-11 5.72452e-11 5e-05 1.46608e-10 
236 1 0.343868 0.01685 0.00776138 0.00575378 0.000280961 0.000730693 -1.62341e-10 1.39416e-10 -1.45965e-10 5e-05 1.46608e-10 
237 1 0.343889 0.016939 0.00772075 0.00572154 0.00027928 0.00072215 -4.12981e-11 2.21151e-10 7.76436e-11 5e-05 1.46608e-10 
239 1 0.337829 0.0165887 0.00772659 0.00553767 -0.00113926 0.000415745 -2.24154e-10 1.43434e-10 -5.07683e-11 5e-05 1.46608e-10 
240 1 0.337891 0.0168586 0.00761119 0.00541514 -0.00114848 0.000437466 5.05759e-10 4.60844e-11 -2.05721e-10 5e-05 1.46608e-10 
241 1 0.337809 0.0164987 0.00776505 0.00581092 -0.00120489 0.000444819 1.07051e-10 -2.24529e-10 4.46954e-11 5e-05 1.46608e-10 
242 1 0.34388 0.0160777 0.0081716 0.0060081 0.000286247 0.000777192 -3.51798e-11 -3.80135e-11 9.79056e-12 5e-05 1.46608e-10 
243 1 0.344235 0.0176239 0.00740902 0.00536622 4.88318e-05 0.00080359 -1.70283e-10 -2.1334e-10 1.00449e-10 5e-05 1.46608e-10 
244 1 0.33785 0.0166787 0.00768813 0.00539706 -0.00111668 0.000406642 -4.36865e-10 1.20024e-10 -2.88073e-12 5e-05 1.46608e-10 
246 1 0.338031 0.017479 0.00731875 0.00518003 -0.00115626 0.000172886 7.64242e-11 4.83693e-11 -2.29426e-11 5e-05 1.46608e-10 
247 1 0.343701 0.0161543 0.00810333 0.00599676 0.000253334 0.000796804 4.33614e-11 5.05864e-11 -3.22453e-11 5e-05 1.46608e-10 
248 1 0.344155 0.0177605 0.00742318 0.00551675 -8.81841e-06 0.000833603 -4.96198e-11 1.54117e-10 8.22369e-11 5e-05 1.46608e-10 
249 1 0.337973 0.017213 0.00744486 0.00532548 -0.00120178 0.000182483 -6.80085e-11 1.26378e-10 -6.10644e-11 5e-05 1.46608e-10 
250 1 0.343802 0.0161386 0.00815616 0.00601135 0.000286478 0.000781435 -4.97885e-11 -5.37983e-11 1.00445e-11 5e-05 1.46608e-10 
251 1 0.350175 0.0176563 0.00718427 0.00546166 -0.000290666 8.64952e-06 1.84627e-10 1.01922e-10 -3.99893e-11 5e-05 1.46608e-10 
252 1 0.33805 0.0175677 0.00727671 0.00520723 -0.00116103 0.00017336 -3.88719e-12 2.07538e-11 -1.32133e-11 5e-05 1.46608e-10 
253 1 0.338226 0.01839 0.00699445 0.00580757 -0.00111343 0.000694154 6.27684e-11 2.65071e-11 1.53052e-11 5e-05 1.46608e-10 
254 1 0.337992 0.0173017 0.00740283 0.00513649 -0.00114979 0.000172983 8.72735e-11 1.54137e-10 -9.22374e-11 5e-05 1.46608e-10 
255 1 0.344341 0.0184833 0.00697094 0.00610843 -9.018e-05 0.000990197 -1.24416e-11 -4.59945e-10 3.02599e-10 5e-05 1.46608e-10 
256 1 0.344258 0.0185386 0.00697208 0.00608132 -9.04977e-05 0.000967072 1.77058e-10 2.44069e-10 2.76062e-10 5e-05 1.46608e-10 
257 1 0.34398 0.0165156 0.00795541 0.00586751 0.000298675 0.000749915 -5.74883e-11 1.29848e-10 -9.01322e-11 5e-05 1.46608e-10 
258 1 0.344231 0.0178237 0.00740783 0.00411531 0.00142028 -0.000240342 2.93576e-10 8.50354e-12 -1.67062e-10 5e-05 1.46608e-10 
259 1 0.33807 0.0176563 0.00723468 0.00521925 -0.00115975 0.000172114 -1.99636e-10 3.42399e-11 -2.82141e-12 5e-05 1.46608e-10 