ITEM: TIMESTEP
37400000
ITEM: NUMBER OF ATOMS
275
ITEM: BOX BOUNDS ff ff ff
-0.02 0.43
-0.02 0.06
-0.02 0.07
ITEM: ATOMS id type x y z vx vy vz fx fy fz radius mass 
1 1 0.231453 0.0187909 0.00684221 0.00573437 0.000158532 -1.43538e-05 -8.17129e-11 5.7808e-11 7.00292e-11 5e-05 1.46608e-10 
2 1 0.231126 0.0176399 0.00722364 0.00579611 0.000146026 5.18721e-05 -3.55081e-11 -2.92608e-11 6.52614e-12 5e-05 1.46608e-10 
4 1 0.231275 0.0175156 0.00727002 0.00592785 0.000254531 1.69415e-05 1.77163e-11 -3.09318e-12 1.46184e-11 5e-05 1.46608e-10 
5 1 0.230646 0.0157585 0.0083634 0.00556773 0.000321286 0.000195778 4.76967e-11 -1.83096e-11 5.82289e-11 5e-05 1.46608e-10 
6 1 0.23697 0.0169197 0.00740361 0.00612284 -0.000358551 0.000269552 -2.31655e-10 6.05007e-11 -4.19298e-11 5e-05 1.46608e-10 
7 1 0.231412 0.0181658 0.00704384 0.00549202 0.000154537 4.20205e-05 -1.06781e-10 2.7794e-10 -1.21275e-10 5e-05 1.46608e-10 
8 1 0.231116 0.0172234 0.00741557 0.00605495 -8.13887e-05 -0.000340918 3.20331e-14 -1.74313e-11 -2.85159e-13 5e-05 1.46608e-10 
9 1 0.237165 0.0178112 0.00702252 0.00560501 -0.00034385 2.76525e-05 5.21783e-11 4.72066e-11 -7.62425e-12 5e-05 1.46608e-10 
10 1 0.230761 0.0161546 0.00796463 0.00612373 -8.96975e-05 -0.000342652 1.32857e-11 -9.85845e-12 -7.17957e-12 5e-05 1.46608e-10 
11 1 0.231307 0.018333 0.00707498 0.00555383 0.000192339 3.10476e-05 2.6167e-11 2.30914e-11 5.69501e-11 5e-05 1.46608e-10 
12 1 0.225303 0.0172077 0.00737203 0.00610737 -0.00015047 -0.000544116 -3.62695e-10 9.78547e-11 -1.17646e-10 5e-05 1.46608e-10 
13 1 0.230622 0.0157122 0.00844892 0.00554836 0.00032187 0.000191246 2.46459e-11 -2.56447e-11 4.07916e-11 5e-05 1.46608e-10 
14 1 0.225247 0.0177594 0.00712793 0.00568132 0.000296058 0.000243272 -1.85936e-10 3.60922e-10 1.51998e-10 5e-05 1.46608e-10 
16 1 0.225517 0.0181523 0.00696404 0.00562503 0.000212097 -0.000206968 -2.67153e-10 2.28435e-11 2.82055e-11 5e-05 1.46608e-10 
17 1 0.230739 0.0160678 0.00800915 0.00598251 2.03018e-05 -0.000201394 6.41506e-12 1.44585e-11 4.65114e-11 5e-05 1.46608e-10 
19 1 0.230603 0.0156664 0.00853574 0.00554546 0.000320863 0.00019176 8.22945e-11 -1.92398e-11 4.28403e-11 5e-05 1.46608e-10 
21 1 0.23145 0.0183514 0.00697926 0.00557089 0.000113268 5.9917e-05 -1.74078e-10 4.14825e-11 -2.58783e-11 5e-05 1.46608e-10 
22 1 0.231073 0.0170494 0.00750407 0.00607639 -7.76693e-05 -0.000343854 -1.85512e-11 -2.24119e-11 2.06701e-11 5e-05 1.46608e-10 
23 1 0.225474 0.0179524 0.00696703 0.00559594 0.000246361 -0.000204438 -4.0865e-10 4.66101e-11 1.09167e-10 5e-05 1.46608e-10 
24 1 0.237086 0.0174298 0.00710976 0.00583012 -0.000313708 0.000248812 8.29711e-11 -3.1444e-11 1.08168e-10 5e-05 1.46608e-10 
25 1 0.230804 0.0163288 0.00787611 0.00614677 -9.69039e-05 -0.000338327 2.60797e-11 9.65164e-12 -2.41884e-12 5e-05 1.46608e-10 
26 1 0.237125 0.0176186 0.00705892 0.00557279 -0.000337553 2.69413e-05 -9.53584e-11 6.43136e-11 2.20204e-12 5e-05 1.46608e-10 
27 1 0.225088 0.0171074 0.00747829 0.00607747 -0.000213537 -0.000482532 1.00348e-10 -8.62802e-11 -6.22241e-11 5e-05 1.46608e-10 
28 1 0.2312 0.0175778 0.00724683 0.00585593 0.000213916 2.78872e-05 -2.4535e-11 -6.75993e-11 6.47905e-12 5e-05 1.46608e-10 
29 1 0.230584 0.0156206 0.00862256 0.00549026 0.000321876 0.000182531 -1.59998e-11 -2.9993e-11 1.23731e-11 5e-05 1.46608e-10 
30 1 0.230893 0.0166764 0.00769921 0.00610503 -9.60766e-05 -0.000336512 -1.0518e-11 1.85529e-11 9.00637e-13 5e-05 1.46608e-10 
31 1 0.231488 0.0181044 0.00706678 0.00555624 0.000216253 2.33227e-05 -1.51528e-10 1.09618e-10 -3.84098e-11 5e-05 1.46608e-10 
32 1 0.230826 0.0164158 0.00783186 0.00613906 -9.73812e-05 -0.000338236 1.35583e-11 1.29479e-11 -4.79157e-12 5e-05 1.46608e-10 
33 1 0.236989 0.0170047 0.00735455 0.00559979 -0.000272925 0.000217148 5.85617e-11 2.86428e-11 -3.4559e-11 5e-05 1.46608e-10 
34 1 0.230718 0.015981 0.00805398 0.00575591 0.000226429 8.61895e-05 2.81726e-11 6.80931e-12 3.06278e-11 5e-05 1.46608e-10 
35 1 0.231374 0.0179799 0.00710854 0.00556309 0.000284905 -2.40873e-06 -1.98423e-10 -7.70097e-11 1.62566e-11 5e-05 1.46608e-10 
36 1 0.237225 0.0181001 0.00696793 0.00562922 -0.000338748 2.68897e-05 -7.67155e-10 6.20309e-10 -1.02262e-10 5e-05 1.46608e-10 
37 1 0.231255 0.0174248 0.00730762 0.00595014 4.88023e-05 -0.000398443 9.04819e-11 -4.74307e-12 -1.14844e-11 5e-05 1.46608e-10 
38 1 0.231335 0.0177939 0.00717324 0.00567267 0.000194789 3.24548e-05 9.62427e-11 -2.66933e-11 1.07581e-11 5e-05 1.46608e-10 
39 1 0.237105 0.0175223 0.00707711 0.00557552 -0.000337728 2.79631e-05 7.94438e-11 8.89892e-12 -1.31567e-11 5e-05 1.46608e-10 
41 1 0.23068 0.0158496 0.00818864 0.00563971 0.000319917 0.000208985 -9.4896e-11 2.02067e-11 -1.11371e-11 5e-05 1.46608e-10 
42 1 0.23137 0.017546 0.00726103 0.00590403 0.000319452 -7.39862e-06 3.65344e-11 -1.99794e-11 6.00069e-12 5e-05 1.46608e-10 
44 1 0.23143 0.017825 0.00716399 0.00567967 0.000237407 1.7572e-05 1.77093e-11 -5.14009e-11 1.98059e-11 5e-05 1.46608e-10 
45 1 0.237008 0.0170897 0.00730551 0.00564709 -0.00027825 0.000224862 -3.08411e-10 1.73702e-11 -7.71783e-11 5e-05 1.46608e-10 
47 1 0.230699 0.0158954 0.00810182 0.00566367 0.000320303 0.000213222 -4.73357e-11 -9.04292e-12 -1.2606e-11 5e-05 1.46608e-10 
48 1 0.231317 0.0185666 0.00690123 0.0056928 0.000178266 4.00417e-05 -9.76736e-11 8.18635e-11 -7.24186e-11 5e-05 1.46608e-10 
49 1 0.237185 0.0179075 0.00700433 0.00561416 -0.000349066 2.88525e-05 3.18302e-11 2.48986e-11 -6.81069e-12 5e-05 1.46608e-10 
50 1 0.230847 0.0165028 0.00778761 0.00612602 -9.67475e-05 -0.00033778 3.22623e-11 1.20825e-11 -2.90238e-13 5e-05 1.46608e-10 
51 1 0.231507 0.0181973 0.00703446 0.00550827 0.000115523 5.74723e-05 -2.53276e-10 5.73924e-11 -2.18271e-11 5e-05 1.46608e-10 
52 1 0.225367 0.0174476 0.00720506 0.00578327 0.000428661 0.000187028 -1.64128e-10 3.672e-10 -1.05671e-10 5e-05 1.46608e-10 
53 1 0.237047 0.0172598 0.00720763 0.00574001 -0.000313579 0.000248267 8.94976e-11 1.22363e-10 4.59114e-11 5e-05 1.46608e-10 
54 1 0.231658 0.0185071 0.0069282 0.0056307 6.53622e-05 7.72006e-05 7.75566e-11 -3.30507e-11 1.35005e-11 5e-05 1.46608e-10 
55 1 0.225267 0.0174325 0.00720587 0.00585444 0.000435846 0.00019686 2.14151e-10 3.42285e-10 -5.11696e-10 5e-05 1.46608e-10 
56 1 0.231639 0.0184142 0.00696053 0.00562365 5.93938e-05 7.90789e-05 -3.25064e-11 -9.89611e-11 2.7712e-11 5e-05 1.46608e-10 
57 1 0.237028 0.0171747 0.00725657 0.00570982 -0.000294282 0.000238809 1.42905e-10 1.92451e-10 -5.16224e-11 5e-05 1.46608e-10 
59 1 0.378022 0.019866 0.005332 -5.01965e-15 -7.41197e-15 7.69802e-14 6.96641e-24 4.65289e-25 4.1359e-25 5e-05 1.46608e-10 
60 1 0.231449 0.0179181 0.00713159 0.005551 0.000291407 -3.67889e-06 -1.31638e-10 1.09829e-10 -5.03146e-11 5e-05 1.46608e-10 
61 1 0.230661 0.0158038 0.00827547 0.00560681 0.000320037 0.000202059 6.9503e-11 -3.25491e-12 4.11394e-11 5e-05 1.46608e-10 
62 1 0.231355 0.0178869 0.0071409 0.00565306 0.000209002 2.67396e-05 3.45412e-11 -1.25445e-11 -2.34968e-12 5e-05 1.46608e-10 
63 1 0.231336 0.0186594 0.00686895 0.00571601 0.000162338 4.22584e-05 1.48658e-10 1.94311e-10 -1.58738e-11 5e-05 1.46608e-10 
64 1 0.237067 0.0173447 0.00715875 0.00578674 -0.000318796 0.000249432 -3.15297e-10 -9.46143e-11 8.58348e-11 5e-05 1.46608e-10 
65 1 0.225205 0.0175927 0.00712358 0.005645 0.00028836 0.000217469 1.17024e-12 2.21836e-10 -2.50665e-10 5e-05 1.46608e-10 
66 1 0.225272 0.0179563 0.00707868 0.00563516 0.000406543 -0.000180351 -2.10001e-10 -1.42384e-10 -2.92998e-10 5e-05 1.46608e-10 
67 1 0.231469 0.0184442 0.00694696 0.0056505 9.96788e-05 6.56059e-05 2.00676e-11 7.32196e-11 -1.94013e-11 5e-05 1.46608e-10 
68 1 0.23126 0.0178558 0.00715014 0.00566426 0.000185649 3.58859e-05 7.7106e-11 6.60945e-11 -2.5382e-11 5e-05 1.46608e-10 
69 1 0.231544 0.0183828 0.00696989 0.00561545 4.94172e-05 8.25412e-05 -5.95571e-11 -3.36836e-12 -7.71107e-13 5e-05 1.46608e-10 
70 1 0.237145 0.0177149 0.00704072 0.00558227 -0.000338293 2.67235e-05 -1.19724e-10 -1.89893e-12 4.14048e-12 5e-05 1.46608e-10 
71 1 0.225612 0.018184 0.00696033 0.00556546 0.000254299 -0.00020459 6.06204e-11 -6.53479e-11 5.00367e-11 5e-05 1.46608e-10 
72 1 0.231507 0.0186303 0.00688223 0.00569529 0.000115535 6.17446e-05 2.24291e-11 -2.73232e-11 -3.94529e-11 5e-05 1.46608e-10 
73 1 0.230782 0.0162418 0.00792035 0.00615056 -9.60711e-05 -0.000338959 2.62324e-11 3.86014e-12 -1.28759e-11 5e-05 1.46608e-10 
74 1 0.230869 0.0165898 0.00774337 0.00611393 -9.65075e-05 -0.00033652 4.79285e-12 1.26942e-11 -1.89969e-12 5e-05 1.46608e-10 
76 1 0.225205 0.0172005 0.0073887 0.0061002 -0.000173064 -0.000534778 -9.60642e-11 4.08086e-10 1.09006e-10 5e-05 1.46608e-10 
77 1 0.231146 0.0177336 0.00719495 0.00576189 0.000150142 5.01319e-05 3.71389e-11 2.81821e-11 -9.58979e-12 5e-05 1.46608e-10 
78 1 0.224563 0.0156054 0.00877393 0.00564929 -0.000125098 -0.000508951 2.77012e-10 -1.02631e-10 -4.82252e-11 5e-05 1.46608e-10 
79 1 0.22557 0.0184612 0.00695988 0.00566305 0.000257696 -0.000209495 8.8262e-11 -1.15323e-10 5.70727e-12 5e-05 1.46608e-10 
80 1 0.23122 0.0176703 0.00721463 0.00580333 0.000201533 3.23655e-05 1.42029e-12 -2.62647e-11 1.19487e-11 5e-05 1.46608e-10 
82 1 0.225349 0.0180156 0.00705519 0.00564187 0.00030955 -0.000260424 -1.56708e-10 -2.09082e-10 1.76701e-10 5e-05 1.46608e-10 
83 1 0.225325 0.0172819 0.00730855 0.00603478 -8.38719e-05 -0.000492098 8.9095e-11 -8.47594e-11 -2.79884e-10 5e-05 1.46608e-10 
84 1 0.237205 0.0180038 0.00698613 0.00562892 -0.000348305 2.869e-05 -8.16579e-11 -5.03237e-12 -9.09899e-13 5e-05 1.46608e-10 
85 1 0.22572 0.0183286 0.00695533 0.00565759 0.000216522 -0.000209207 -2.50888e-12 -9.58219e-11 -6.89177e-12 5e-05 1.46608e-10 
86 1 0.23141 0.0177319 0.00719636 0.00566759 0.000190858 3.36306e-05 1.48079e-10 -6.24863e-11 2.59426e-11 5e-05 1.46608e-10 
87 1 0.23118 0.0174866 0.00728271 0.00594142 0.000129197 -0.000150039 7.59636e-12 -1.1363e-10 -5.64742e-11 5e-05 1.46608e-10 
88 1 0.231318 0.0181343 0.00705324 0.00551106 0.00024333 7.49719e-06 -1.87344e-10 -3.32967e-10 1.23354e-10 5e-05 1.46608e-10 
89 1 0.231344 0.0181208 0.00714879 0.005492 0.00026765 -5.27938e-06 1.02252e-10 3.06882e-10 7.829e-11 5e-05 1.46608e-10 
90 1 0.231488 0.0185371 0.00691465 0.00564366 8.31156e-05 7.17696e-05 -2.38146e-12 -3.62436e-11 3.8361e-11 5e-05 1.46608e-10 
91 1 0.225281 0.0171337 0.00743549 0.00606523 -0.000135455 -0.000551377 1.28696e-10 4.16365e-11 -5.20351e-11 5e-05 1.46608e-10 
92 1 0.231242 0.0181961 0.00703178 0.0055153 0.000212845 2.26636e-05 -5.54631e-13 8.03914e-11 -4.98048e-11 5e-05 1.46608e-10 
93 1 0.230956 0.0169378 0.00756641 0.00608558 -9.35864e-05 -0.000336723 4.87439e-11 -2.18975e-12 5.97612e-13 5e-05 1.46608e-10 
94 1 0.231323 0.0184585 0.00702917 0.00556266 0.000128095 4.2833e-05 -1.79496e-10 -2.86591e-11 -3.65076e-11 5e-05 1.46608e-10 
95 1 0.231228 0.0179938 0.00719061 0.00564803 0.00019063 3.71186e-05 -1.70358e-10 -2.37752e-10 -4.7147e-11 5e-05 1.46608e-10 
96 1 0.231223 0.0181029 0.0070626 0.00553822 0.000201017 2.61375e-05 -1.10135e-10 1.16844e-10 -5.16735e-11 5e-05 1.46608e-10 
97 1 0.22467 0.0159763 0.00845636 0.00575658 -0.000137478 -0.000512946 -4.16356e-10 -5.77839e-11 1.2114e-10 5e-05 1.46608e-10 
98 1 0.230934 0.0168508 0.00761065 0.00609402 -9.5525e-05 -0.000336286 4.67879e-11 -5.44624e-13 -3.25483e-12 5e-05 1.46608e-10 
99 1 0.225226 0.0181126 0.006975 0.00559523 0.000161076 -0.000210503 1.07932e-11 -7.34138e-11 4.47587e-11 5e-05 1.46608e-10 
100 1 0.231431 0.0182586 0.00701154 0.00551719 0.000126848 5.30842e-05 -2.36152e-10 8.39963e-11 -3.67071e-11 5e-05 1.46608e-10 
101 1 0.225245 0.0182107 0.0069736 0.00558526 0.000151515 -0.000206616 1.98609e-11 -3.68668e-12 7.439e-13 5e-05 1.46608e-10 
102 1 0.0643568 0.0187248 0.00531097 4.15305e-15 1.04959e-14 8.29662e-14 3.71352e-21 -1.01663e-21 -6.63812e-23 5e-05 1.46608e-10 
103 1 0.24257 0.0191927 0.00520306 -1.3037e-23 -1.27651e-22 -5.81428e-22 0 0 0 5e-05 1.46608e-10 
104 1 0.225537 0.0182503 0.00696261 0.00563495 0.000222214 -0.000208908 -2.31771e-10 -2.38514e-11 -9.16009e-12 5e-05 1.46608e-10 
105 1 0.224627 0.015828 0.00858338 0.00569858 -0.000122529 -0.000517876 4.51593e-10 -1.25337e-10 4.6276e-11 5e-05 1.46608e-10 
106 1 0.225242 0.0177644 0.00702816 0.00575836 0.000289637 0.000262244 2.28736e-11 -5.59982e-11 2.06122e-11 5e-05 1.46608e-10 
107 1 0.224585 0.0156796 0.00871043 0.00566717 -0.000124952 -0.000513169 -3.56548e-11 5.12105e-11 -6.54354e-11 5e-05 1.46608e-10 
108 1 0.231563 0.0184757 0.00693757 0.0056207 5.55115e-05 7.97567e-05 -1.52938e-11 -3.07998e-11 2.1695e-11 5e-05 1.46608e-10 
109 1 0.231544 0.0179495 0.00712222 0.00551996 0.000334359 -1.94112e-05 2.60852e-10 -7.19428e-11 2.11063e-11 5e-05 1.46608e-10 
110 1 0.231105 0.0175485 0.00725872 0.0058496 9.97946e-05 -4.3403e-05 3.92186e-12 -8.54277e-11 -1.88132e-11 5e-05 1.46608e-10 
111 1 0.231064 0.0173729 0.00734517 0.00603842 -8.31956e-05 -0.00033559 -2.207e-11 -5.84659e-11 6.09785e-11 5e-05 1.46608e-10 
112 1 0.224714 0.0161246 0.00832936 0.00579496 -0.000158328 -0.000501832 -1.46443e-10 9.58422e-11 -8.58986e-11 5e-05 1.46608e-10 
113 1 0.22513 0.0176453 0.00708381 0.00567222 0.000306547 0.000229617 1.63501e-11 -2.45499e-10 1.02485e-10 5e-05 1.46608e-10 
114 1 0.225187 0.0179165 0.00697784 0.00578384 0.000172536 -5.41634e-05 -3.01301e-10 -1.81314e-10 9.99091e-10 5e-05 1.46608e-10 
115 1 0.23139 0.0176385 0.00722886 0.00579869 0.000331024 -1.32094e-05 1.20783e-10 -1.37703e-11 6.29482e-12 5e-05 1.46608e-10 
116 1 0.231393 0.0185055 0.00692408 0.00566997 0.000135905 5.39768e-05 -1.84099e-10 -8.30107e-11 3.87012e-11 5e-05 1.46608e-10 
117 1 0.231393 0.0180729 0.00707618 0.00552749 0.000300947 -8.1331e-06 -1.21063e-10 -5.32117e-11 5.29336e-11 5e-05 1.46608e-10 
118 1 0.225303 0.0176109 0.00713186 0.00562702 0.000336802 0.000197048 -1.02927e-10 3.85414e-11 -1.899e-10 5e-05 1.46608e-10 
119 1 0.231583 0.0185687 0.00690521 0.00565543 8.28639e-05 7.24589e-05 3.96838e-12 -1.40319e-10 4.98996e-11 5e-05 1.46608e-10 
120 1 0.231094 0.0171364 0.00745982 0.00605898 -8.30448e-05 -0.000340128 3.20102e-11 1.73684e-13 -7.1971e-12 5e-05 1.46608e-10 
121 1 0.231475 0.0188877 0.00683018 0.00573971 0.00014888 -3.53259e-05 -1.17445e-10 -2.29676e-11 9.95706e-11 5e-05 1.46608e-10 
122 1 0.231204 0.0180102 0.00709486 0.00561452 0.000178913 3.70527e-05 -1.13691e-11 7.801e-11 -3.83209e-11 5e-05 1.46608e-10 
123 1 0.225631 0.018282 0.0069589 0.00564572 0.000233712 -0.000209672 4.21607e-11 -2.13115e-10 9.56296e-12 5e-05 1.46608e-10 
124 1 0.230978 0.0170248 0.00752215 0.00607431 -9.05605e-05 -0.000337369 4.75327e-12 -2.20081e-14 -2.31981e-12 5e-05 1.46608e-10 
125 1 0.231299 0.0180414 0.00708555 0.00556312 0.000262662 4.85753e-06 -4.51357e-11 -8.90393e-11 6.39259e-11 5e-05 1.46608e-10 
127 1 0.224649 0.0159022 0.00851987 0.00570712 -0.000126255 -0.000513135 -4.02891e-11 -2.03035e-10 2.41025e-10 5e-05 1.46608e-10 
128 1 0.230912 0.0167638 0.0076549 0.00609852 -9.59647e-05 -0.000336384 1.41605e-11 1.09918e-11 -4.92486e-12 5e-05 1.46608e-10 
129 1 0.231292 0.0182326 0.00711033 0.00552506 0.000183033 3.32303e-05 -7.17331e-11 2.29326e-10 -6.23164e-11 5e-05 1.46608e-10 
130 1 0.225283 0.0179508 0.0069742 0.00561578 0.000165579 -0.000253727 -9.4343e-11 -1.46786e-10 1.53389e-10 5e-05 1.46608e-10 
131 1 0.225307 0.0180547 0.00697242 0.00560015 0.000185543 -0.000206938 1.22186e-10 -2.56466e-11 -1.59937e-11 5e-05 1.46608e-10 
132 1 0.231295 0.0176081 0.00723784 0.0058572 0.000266677 1.04723e-05 2.72204e-11 -1.38022e-11 3.96846e-12 5e-05 1.46608e-10 
133 1 0.231412 0.0185983 0.00689177 0.00568975 0.000135507 5.20383e-05 9.5585e-11 1.20771e-10 -4.43176e-11 5e-05 1.46608e-10 
134 1 0.231374 0.0184127 0.00695637 0.00558575 0.000142387 4.87032e-05 -7.65855e-11 1.62433e-10 -6.96562e-11 5e-05 1.46608e-10 
135 1 0.231526 0.0182901 0.00700216 0.00553764 6.52816e-05 7.54752e-05 -1.96395e-10 3.65195e-11 -1.13631e-11 5e-05 1.46608e-10 
136 1 0.225248 0.0173507 0.00726016 0.0057769 -0.00010518 -0.000560634 -1.5185e-10 7.63755e-10 -8.6139e-11 5e-05 1.46608e-10 
137 1 0.231223 0.0180959 0.00716235 0.00557944 0.000177567 2.40761e-05 1.5074e-10 1.31988e-10 -9.4302e-11 5e-05 1.46608e-10 
138 1 0.23128 0.0183811 0.00696578 0.00557716 0.000188499 2.93671e-05 1.17291e-10 6.67031e-11 -2.69933e-11 5e-05 1.46608e-10 
140 1 0.231166 0.0178249 0.00715933 0.00567254 0.000165718 4.35043e-05 3.92731e-11 8.10492e-11 -2.43929e-11 5e-05 1.46608e-10 
141 1 0.225076 0.0167548 0.00777026 0.00593331 -0.000218394 -0.000466224 1.10636e-10 4.40091e-11 -4.25383e-11 5e-05 1.46608e-10 
142 1 0.225444 0.0178512 0.00699664 0.00565725 0.000327881 0.000245297 -3.27339e-10 -1.74779e-10 1.88443e-10 5e-05 1.46608e-10 
143 1 0.224606 0.0157538 0.0086469 0.00569977 -0.00012177 -0.000523828 -1.3498e-10 1.07655e-10 -9.6417e-11 5e-05 1.46608e-10 
144 1 0.225405 0.0177581 0.00704315 0.00554849 0.000413528 0.000167986 -4.8126e-10 3.01321e-10 -1.79588e-10 5e-05 1.46608e-10 
146 1 0.224757 0.016273 0.00820232 0.00582367 -0.00018448 -0.000483371 4.1844e-10 -1.64123e-10 9.44648e-11 5e-05 1.46608e-10 
147 1 0.225264 0.0178538 0.00698891 0.00564228 0.000141538 -0.000199411 -4.75232e-10 -2.58718e-10 -5.85885e-10 5e-05 1.46608e-10 
148 1 0.225098 0.0168288 0.0077068 0.00594726 -0.000206844 -0.000477381 6.95663e-11 -4.28439e-11 2.71415e-11 5e-05 1.46608e-10 
149 1 0.231021 0.0171989 0.00743366 0.00605668 -8.675e-05 -0.000338485 -7.01125e-12 -3.29676e-11 1.04421e-11 5e-05 1.46608e-10 
150 1 0.225585 0.01856 0.00695863 0.00564055 0.00026301 -0.000208992 -6.38321e-12 -9.14472e-11 -1.43417e-12 5e-05 1.46608e-10 
151 1 0.225395 0.0184633 0.00696632 0.00564388 0.000208704 -0.000208766 5.29468e-11 -5.2009e-11 -1.55229e-11 5e-05 1.46608e-10 
153 1 0.225119 0.0169031 0.00764324 0.00597555 -0.000209467 -0.000478671 -1.88801e-10 8.25048e-11 -5.63571e-11 5e-05 1.46608e-10 
154 1 0.224735 0.0161989 0.00826581 0.00580326 -0.000168509 -0.000494634 -2.73607e-10 -1.99811e-12 6.79699e-11 5e-05 1.46608e-10 
155 1 0.224778 0.0163473 0.00813878 0.00582987 -0.000190377 -0.000476625 3.75038e-10 -9.49027e-11 1.71527e-11 5e-05 1.46608e-10 
156 1 0.225054 0.0166807 0.00783376 0.00591374 -0.000216737 -0.000465546 1.92035e-10 1.13235e-11 -2.7339e-11 5e-05 1.46608e-10 
157 1 0.0219312 0.0187687 0.00551176 -3.84076e-14 8.16442e-14 2.95884e-13 6.84621e-22 2.9427e-22 3.30872e-24 5e-05 1.46608e-10 
158 1 0.225161 0.0170517 0.00751617 0.00605807 -0.00022461 -0.000472719 1.70773e-10 -5.23757e-11 7.43891e-12 5e-05 1.46608e-10 
159 1 0.231316 0.0177009 0.00720557 0.00573262 0.000248768 1.45142e-05 1.35323e-10 5.88381e-11 -1.54447e-11 5e-05 1.46608e-10 
160 1 0.225265 0.0183088 0.00697218 0.00559348 0.000146433 -0.000204568 1.42733e-10 1.77911e-10 -2.2717e-11 5e-05 1.46608e-10 
162 1 0.225251 0.0180578 0.00705482 0.00559982 0.000173971 -0.000207608 3.31619e-11 3.11892e-12 3.01882e-11 5e-05 1.46608e-10 
164 1 0.224842 0.0165699 0.00794824 0.00591778 -0.000183865 -0.000493228 -1.60858e-11 -3.53216e-11 1.97626e-11 5e-05 1.46608e-10 
165 1 0.225478 0.0185183 0.00696286 0.00563885 0.000225221 -0.000208036 1.01541e-10 -3.80385e-12 2.69619e-12 5e-05 1.46608e-10 
166 1 0.231299 0.0184739 0.0069335 0.00561441 0.000184897 3.53558e-05 -1.29316e-10 -8.42521e-11 -4.19955e-12 5e-05 1.46608e-10 
167 1 0.225351 0.0187435 0.00696591 0.00559502 0.000181078 -0.000206388 7.82958e-13 -5.32983e-11 -5.17526e-12 5e-05 1.46608e-10 
168 1 0.225663 0.0184975 0.00695621 0.00566008 0.000293639 -0.000210035 -7.05455e-13 9.85177e-12 1.22031e-12 5e-05 1.46608e-10 
169 1 0.225502 0.0186154 0.00696129 0.00562787 0.000235974 -0.000208273 8.08969e-11 -2.44213e-11 -2.63474e-12 5e-05 1.46608e-10 
170 1 0.225436 0.0186909 0.00696316 0.00560691 0.000210303 -0.000207382 8.82935e-11 -5.55491e-12 -5.7249e-12 5e-05 1.46608e-10 
171 1 0.231526 0.0187233 0.00684987 0.00571933 0.000162192 4.4827e-05 -5.66528e-11 -4.10778e-11 8.23468e-11 5e-05 1.46608e-10 
172 1 0.225111 0.0175577 0.0071283 0.00567148 0.000315626 0.000238081 1.50563e-10 2.28601e-11 -7.3344e-11 5e-05 1.46608e-10 
173 1 0.231468 0.0186158 0.00697302 0.00566544 0.00014144 6.01385e-05 1.36795e-11 1.10929e-10 4.78608e-12 5e-05 1.46608e-10 
174 1 0.224885 0.0167182 0.00782121 0.00593906 -0.000183062 -0.000496398 -9.65347e-12 -7.76717e-11 8.46944e-11 5e-05 1.46608e-10 
176 1 0.22517 0.0174885 0.00716926 0.00580228 0.000400671 0.00020842 -2.51975e-10 4.96171e-11 -3.79452e-11 5e-05 1.46608e-10 
177 1 0.224873 0.0163654 0.00811347 0.0058638 -0.000197123 -0.000476679 2.34575e-11 -1.33676e-10 1.11832e-10 5e-05 1.46608e-10 
178 1 0.225165 0.0178127 0.00709548 0.00574761 0.000372958 0.000166948 6.2356e-11 -1.81821e-10 3.09206e-10 5e-05 1.46608e-10 
179 1 0.225284 0.0184069 0.00697077 0.00560169 0.000130481 -0.000205269 4.27973e-11 1.61221e-10 -9.76009e-13 5e-05 1.46608e-10 
182 1 0.231546 0.0188183 0.00681682 0.00574306 0.000147169 4.55897e-05 -5.69626e-11 7.38899e-11 1.67853e-11 5e-05 1.46608e-10 
183 1 0.225167 0.0178198 0.00699338 0.00576131 0.000251395 0.000256779 -6.65594e-11 -4.47404e-10 2.69042e-10 5e-05 1.46608e-10 
184 1 0.231344 0.0185537 0.00699671 0.0056826 0.000166298 4.50124e-05 -4.80985e-11 1.2693e-10 -1.70859e-12 5e-05 1.46608e-10 
185 1 0.225352 0.0178429 0.00703471 0.00555112 0.000404074 8.09688e-05 -5.53069e-10 2.82193e-10 1.55746e-12 5e-05 1.46608e-10 
186 1 0.225706 0.0182158 0.00695662 0.00558841 0.000185679 -0.000207225 -4.60341e-11 -1.62063e-10 1.01519e-11 5e-05 1.46608e-10 
187 1 0.231432 0.018692 0.00685919 0.00572662 0.000144117 4.88859e-05 -2.28009e-11 3.74128e-11 2.81323e-11 5e-05 1.46608e-10 
188 1 0.23128 0.0179486 0.00711786 0.00563658 0.000195568 3.07618e-05 4.20552e-11 7.83473e-11 -4.91036e-11 5e-05 1.46608e-10 
189 1 0.231394 0.0189448 0.00684035 0.00570819 8.76887e-05 -0.000106535 -1.47682e-12 -9.74718e-11 1.35922e-10 5e-05 1.46608e-10 
190 1 0.219249 0.0182435 0.00705587 0.00539588 -0.000501772 0.000274303 5.60482e-12 -5.10733e-12 -1.37686e-13 5e-05 1.46608e-10 
191 1 0.231043 0.0172859 0.00738941 0.00604895 -8.57897e-05 -0.000338601 -1.61189e-11 -5.09568e-11 2.57378e-11 5e-05 1.46608e-10 
192 1 0.225148 0.0177324 0.00703835 0.00576631 0.00029647 0.000260038 6.67925e-11 -2.45077e-10 2.82328e-10 5e-05 1.46608e-10 
193 1 0.231602 0.0186615 0.00687291 0.00569239 0.000143141 5.08152e-05 -1.38498e-10 1.50414e-11 -8.19139e-12 5e-05 1.46608e-10 
194 1 0.225369 0.0181136 0.00705234 0.00565766 0.000284571 -0.000218559 1.86208e-10 -3.33968e-10 -2.27965e-11 5e-05 1.46608e-10 
195 1 0.225462 0.0183166 0.00696489 0.00566571 0.000220055 -0.000208142 2.22376e-11 3.54137e-11 -4.15359e-12 5e-05 1.46608e-10 
196 1 0.225422 0.0181207 0.00696775 0.00560396 0.000234413 -0.00023191 -1.99057e-10 3.26773e-10 1.57622e-10 5e-05 1.46608e-10 
197 1 0.218937 0.016818 0.00754691 0.00600393 -0.000748171 0.000189492 -1.26266e-10 1.83246e-11 -2.27106e-12 5e-05 1.46608e-10 
198 1 0.225347 0.0173626 0.00725396 0.00581152 0.00021693 -0.00015126 -1.5517e-10 1.5899e-10 -1.58334e-10 5e-05 1.46608e-10 
199 1 0.225183 0.0179105 0.00708596 0.00567932 0.000369137 -6.57307e-05 -1.74293e-10 -2.37654e-10 -4.06124e-10 5e-05 1.46608e-10 
200 1 0.224692 0.0160506 0.00839284 0.00578034 -0.000145513 -0.000511795 9.64648e-12 1.5553e-11 -3.12859e-11 5e-05 1.46608e-10 
201 1 0.225482 0.0184146 0.00696418 0.00566413 0.000229328 -0.000209113 1.40106e-10 -8.34201e-11 2.44312e-12 5e-05 1.46608e-10 
202 1 0.225183 0.0171259 0.00745256 0.00609188 -0.000205372 -0.000496147 -2.38767e-11 4.43249e-11 -5.91865e-11 5e-05 1.46608e-10 
203 1 0.231355 0.0183199 0.00698866 0.00555581 0.000172521 3.63925e-05 -6.58635e-11 6.38372e-11 -2.0978e-11 5e-05 1.46608e-10 
204 1 0.225497 0.0180539 0.00696544 0.00558726 0.000249046 -0.000212947 -1.36215e-10 1.81581e-10 -1.94236e-10 5e-05 1.46608e-10 
205 1 0.225024 0.0168849 0.00766937 0.00596542 -0.000202839 -0.000482694 -1.42886e-10 -2.39026e-11 3.80251e-11 5e-05 1.46608e-10 
206 1 0.225066 0.0170332 0.0075418 0.00602185 -0.000209438 -0.000484014 1.67319e-10 -2.0304e-11 2.93146e-11 5e-05 1.46608e-10 
207 1 0.224937 0.0165881 0.00792288 0.00591766 -0.00018955 -0.00048837 -7.23797e-11 -2.54855e-11 2.70588e-11 5e-05 1.46608e-10 
208 1 0.225364 0.0175358 0.00715807 0.00579756 0.000443846 0.000177467 2.99668e-10 4.71987e-10 -1.68291e-10 5e-05 1.46608e-10 
209 1 0.225265 0.0175208 0.00715894 0.0058106 0.000430037 0.000197338 1.39683e-10 5.18973e-10 -2.69458e-10 5e-05 1.46608e-10 
210 1 0.231138 0.0173105 0.00737128 0.00603614 -8.44104e-05 -0.000337879 -1.90886e-11 -5.83021e-11 2.04172e-11 5e-05 1.46608e-10 
211 1 0.23116 0.0173981 0.00732676 0.00606874 4.19253e-05 -0.000401831 3.11331e-11 -5.48693e-11 1.77713e-11 5e-05 1.46608e-10 
212 1 0.225557 0.0183482 0.00696118 0.00568014 0.000250587 -0.000210392 9.62243e-11 -2.27157e-10 -3.3798e-12 5e-05 1.46608e-10 
213 1 0.231375 0.0188487 0.00681962 0.00575226 0.000130331 -0.000101078 -1.76635e-11 1.44474e-11 1.16884e-11 5e-05 1.46608e-10 
214 1 0.231241 0.0177629 0.00718244 0.00569513 0.000197394 3.19964e-05 6.04564e-11 5.57215e-11 -1.92429e-11 5e-05 1.46608e-10 
215 1 0.219153 0.0177629 0.00714336 0.00549878 -0.000525449 0.00028127 -8.02585e-12 -2.6711e-11 -1.70293e-11 5e-05 1.46608e-10 
216 1 0.224916 0.0165139 0.0079864 0.00590258 -0.000192197 -0.000484465 -3.95523e-11 -4.9209e-11 4.21343e-11 5e-05 1.46608e-10 
217 1 0.231621 0.0187558 0.0068401 0.00571111 0.000121498 5.88919e-05 -8.32696e-11 9.00353e-11 5.80655e-12 5e-05 1.46608e-10 
218 1 0.225206 0.0180146 0.00697642 0.00562043 0.000169001 -0.000201714 1.29617e-10 -7.16748e-11 1.34811e-10 5e-05 1.46608e-10 
219 1 0.230999 0.0171119 0.00747791 0.006065 -8.84544e-05 -0.000338029 -6.53702e-12 -1.44424e-11 7.24388e-12 5e-05 1.46608e-10 
220 1 0.225328 0.0181545 0.00697096 0.00558994 0.000176534 -0.000211783 7.6826e-11 1.50617e-10 2.52493e-12 5e-05 1.46608e-10 
222 1 0.231469 0.0180113 0.00709917 0.00553718 0.000339017 -2.18817e-05 -9.08092e-11 -1.75113e-10 6.79682e-11 5e-05 1.46608e-10 
224 1 0.225109 0.0171817 0.00741491 0.00609929 -0.000190641 -0.000446669 -4.15762e-11 -2.9047e-11 -1.1087e-10 5e-05 1.46608e-10 
225 1 0.231086 0.0174601 0.00730122 0.00596663 -1.52736e-05 -0.000234716 1.05505e-11 -9.84188e-11 8.33372e-12 5e-05 1.46608e-10 
226 1 0.225339 0.017894 0.00711961 0.00560533 0.000521329 1.25024e-05 -1.24387e-11 3.67121e-10 1.05942e-10 5e-05 1.46608e-10 
227 1 0.219171 0.0178547 0.00710792 0.00549874 -0.000524505 0.000281143 -6.44171e-12 -2.01633e-11 -4.22228e-12 5e-05 1.46608e-10 
228 1 0.219112 0.0175686 0.00714617 0.00546043 -0.000522978 0.000276788 -8.75098e-11 8.28183e-12 -7.44496e-12 5e-05 1.46608e-10 
229 1 0.225645 0.0183948 0.00695761 0.00569121 0.000259404 -0.000210928 -2.88907e-12 -6.5294e-11 1.58594e-12 5e-05 1.46608e-10 
230 1 0.225014 0.0171634 0.00744013 0.00607526 -0.000185985 -0.000501469 2.7656e-11 2.23027e-11 -1.4485e-10 5e-05 1.46608e-10 
232 1 0.22529 0.0182538 0.00705166 0.00558808 0.000132846 -0.000208013 1.83284e-10 6.33741e-11 -3.77147e-11 5e-05 1.46608e-10 
233 1 0.225332 0.0186454 0.00696733 0.00560503 0.000186128 -0.000207521 1.23647e-11 -6.81253e-11 -4.90047e-13 5e-05 1.46608e-10 
234 1 0.231185 0.0179175 0.0071271 0.00565026 0.000170576 4.23961e-05 6.8126e-11 8.3705e-11 -3.82526e-11 5e-05 1.46608e-10 
235 1 0.224971 0.017015 0.00756715 0.00601315 -0.000195198 -0.000493586 -1.71372e-10 2.50345e-11 1.45075e-11 5e-05 1.46608e-10 
236 1 0.225072 0.0173896 0.00724725 0.00575665 -0.000135096 -0.000513552 2.10791e-11 7.19866e-11 -6.37524e-11 5e-05 1.46608e-10 
237 1 0.225093 0.0174863 0.00723257 0.00574987 -3.80302e-05 0.000120799 -5.41699e-11 5.78017e-11 -1.91234e-10 5e-05 1.46608e-10 
239 1 0.218829 0.0164454 0.00786243 0.00590637 -0.000733526 0.000184214 -3.26844e-11 -9.77389e-12 7.73718e-12 5e-05 1.46608e-10 
240 1 0.218894 0.0166688 0.00767316 0.00594765 -0.000741284 0.000187457 5.41707e-11 -5.02786e-11 3.7328e-11 5e-05 1.46608e-10 
241 1 0.218808 0.0163709 0.00792553 0.00589314 -0.000733499 0.000185306 1.20751e-10 -8.86111e-12 2.58842e-13 5e-05 1.46608e-10 
242 1 0.225033 0.0166065 0.00789728 0.00587028 -0.000213508 -0.000463724 6.14727e-11 5.28423e-12 -1.05357e-11 5e-05 1.46608e-10 
243 1 0.225403 0.0180226 0.00697107 0.00559723 0.000239321 -0.000252103 -2.98803e-10 3.58557e-10 2.31466e-10 5e-05 1.46608e-10 
244 1 0.218851 0.0165199 0.00779932 0.00593336 -0.000738034 0.000185817 5.17332e-11 -1.75379e-11 7.06977e-12 5e-05 1.46608e-10 
246 1 0.219038 0.0171986 0.00723927 0.00557834 -0.000688022 0.000118589 -5.34997e-12 7.42261e-12 -1.97098e-11 5e-05 1.46608e-10 
247 1 0.224907 0.0167924 0.00775769 0.00595868 -0.000188906 -0.000493479 -7.58242e-12 -1.00437e-10 7.55321e-11 5e-05 1.46608e-10 
248 1 0.22517 0.0177017 0.0071558 0.0057041 0.000282148 0.000224238 5.1805e-11 8.63853e-11 1.62128e-10 5e-05 1.46608e-10 
249 1 0.218978 0.0169674 0.00742052 0.00596379 -0.000740386 0.00018629 9.38191e-11 4.58765e-12 -4.34048e-12 5e-05 1.46608e-10 
250 1 0.22498 0.0167364 0.00779585 0.00593855 -0.000197552 -0.000483752 7.21636e-11 -6.97284e-11 4.70115e-11 5e-05 1.46608e-10 
251 1 0.231337 0.0182271 0.00702093 0.00551711 0.000182107 3.39473e-05 8.4924e-12 1.69982e-10 -5.65531e-11 5e-05 1.46608e-10 
252 1 0.219052 0.0172811 0.00718461 0.00575523 -0.000593913 0.000301731 8.45308e-13 1.15467e-11 -1.95139e-12 5e-05 1.46608e-10 
253 1 0.21923 0.0181463 0.00706888 0.00535546 -0.000497337 0.00027212 4.73592e-11 -6.02223e-12 3.12302e-12 5e-05 1.46608e-10 
254 1 0.218999 0.0170421 0.00735733 0.00586251 -0.000720689 0.000176936 6.06488e-11 1.12499e-11 -2.20385e-11 5e-05 1.46608e-10 
255 1 0.224541 0.0155312 0.00883745 0.00563641 -0.000114107 -0.0005204 -7.02072e-11 -1.20981e-10 6.35284e-11 5e-05 1.46608e-10 
256 1 0.225592 0.018086 0.00696174 0.00556859 0.000266672 -0.00019802 3.06166e-10 3.87301e-11 -8.78211e-11 5e-05 1.46608e-10 
257 1 0.22514 0.0169773 0.00757972 0.00601962 -0.000215069 -0.000478298 -1.31526e-10 6.15895e-11 -3.00114e-11 5e-05 1.46608e-10 
258 1 0.225223 0.017591 0.00722203 0.00568025 0.000262746 0.000224412 -5.72091e-11 2.61728e-10 -2.14927e-10 5e-05 1.46608e-10 