ITEM: TIMESTEP
22600000
ITEM: NUMBER OF ATOMS
285
ITEM: BOX BOUNDS ff ff ff
-0.02 0.43
-0.02 0.06
-0.02 0.07
ITEM: ATOMS id type x y z vx vy vz fx fy fz radius mass 
1 1 0.144531 0.0163259 0.00844346 0.00566039 -9.77712e-06 0.00192802 1.6735e-10 1.44387e-10 -6.66693e-11 5e-05 1.46608e-10 
2 1 0.145003 0.0185041 0.0069412 0.00591384 -0.00214404 0.00176452 0 0 -1.43822e-09 5e-05 1.46608e-10 
3 1 0.138819 0.0172331 0.00732783 0.00544954 -0.000614612 0.000431698 9.74742e-11 2.60603e-10 5.00272e-11 5e-05 1.46608e-10 
4 1 0.144909 0.0176475 0.00754005 0.00613356 0.000250294 0.00187943 -1.46834e-10 3.82708e-10 -5.70003e-11 5e-05 1.46608e-10 
5 1 0.144348 0.0159944 0.00864091 0.00534233 -0.000154715 0.00193438 -2.55215e-10 -5.54601e-10 2.86593e-10 5e-05 1.46608e-10 
6 1 0.150734 0.0172344 0.00737137 0.00546534 -0.00041594 1.94161e-05 1.85391e-12 5.45413e-12 -1.64326e-12 5e-05 1.46608e-10 
7 1 0.144598 0.0168476 0.00805767 0.00572239 1.86406e-05 0.00191135 4.84051e-12 -1.41714e-10 -8.10819e-11 5e-05 1.46608e-10 
8 1 0.14424 0.0155929 0.00891861 0.0054475 -6.10624e-05 0.00189662 5.7688e-11 2.15039e-10 -1.49119e-10 5e-05 1.46608e-10 
9 1 0.15091 0.0180694 0.00708555 0.00544809 -0.000420913 2.14493e-05 -8.80943e-13 -5.95959e-12 1.99137e-12 5e-05 1.46608e-10 
10 1 0.144483 0.016476 0.00830957 0.00618952 -0.000229778 0.00229139 -8.18419e-11 5.38609e-10 -3.65466e-10 5e-05 1.46608e-10 
11 1 0.145223 0.0182454 0.0071438 0.0129013 0.0115196 -0.011779 -1.38061e-10 3.58106e-10 -2.38336e-10 5e-05 1.46608e-10 
12 1 0.138607 0.0167151 0.00770255 0.00577729 -0.000409663 0.000747095 -1.47192e-10 -1.5087e-10 -3.22182e-12 5e-05 1.46608e-10 
13 1 0.144326 0.0159141 0.00869645 0.00536243 -0.000110445 0.00190421 -2.14744e-10 -6.67403e-10 4.40513e-10 5e-05 1.46608e-10 
14 1 0.138348 0.0158812 0.0085136 0.00575011 -0.00031384 0.000630409 8.70871e-11 6.94621e-11 -6.90954e-11 5e-05 1.46608e-10 
15 1 0.144781 0.0171647 0.00787173 0.005917 0.000242321 0.00181868 -2.77591e-10 -3.3764e-11 -6.10857e-12 5e-05 1.46608e-10 
16 1 0.138326 0.0158112 0.00858166 0.00574917 -0.000320461 0.000637097 6.50323e-11 9.93241e-11 -9.16783e-11 5e-05 1.46608e-10 
17 1 0.144456 0.0163959 0.00836341 0.00617327 -0.000223404 0.00229195 -3.99895e-10 2.11372e-10 -5.95651e-10 5e-05 1.46608e-10 
19 1 0.144305 0.0158338 0.00875199 0.00538782 -9.57316e-05 0.00190322 4.55897e-12 -1.54102e-10 7.95973e-11 5e-05 1.46608e-10 
21 1 0.144498 0.0162117 0.0085216 0.00555648 0.000133933 0.00178162 2.41685e-10 8.74008e-12 8.2574e-11 5e-05 1.46608e-10 
22 1 0.144644 0.0170115 0.00794506 0.00586803 0.000124781 0.00189383 3.88466e-12 1.1612e-11 -7.69156e-12 5e-05 1.46608e-10 
23 1 0.138742 0.0168804 0.00754278 0.00545687 -0.000480324 0.000517467 2.77581e-10 2.68696e-10 -4.41147e-11 5e-05 1.46608e-10 
24 1 0.150851 0.0177911 0.00718083 0.00541259 -0.000407953 1.78731e-05 -1.64841e-11 -2.06377e-11 7.0554e-12 5e-05 1.46608e-10 
25 1 0.144533 0.0166363 0.00820131 0.00624712 -0.000251357 0.0023137 4.44463e-11 4.84951e-10 -3.21935e-10 5e-05 1.46608e-10 
26 1 0.150949 0.0178252 0.00716711 0.00542361 -0.000413458 1.94754e-05 4.743e-12 1.60805e-11 -5.68932e-12 5e-05 1.46608e-10 
27 1 0.138892 0.0175734 0.00726504 0.00545746 -0.000577447 0.00041423 -1.98112e-10 2.67319e-10 1.81823e-11 5e-05 1.46608e-10 
28 1 0.144889 0.0175658 0.00759439 0.00592589 0.000240315 0.00183281 5.87772e-10 7.96306e-10 -3.22391e-10 5e-05 1.46608e-10 
29 1 0.144283 0.0157535 0.00880753 0.00542049 -5.20397e-05 0.00188033 5.57607e-11 2.01059e-10 -1.37747e-10 5e-05 1.46608e-10 
30 1 0.144853 0.0174053 0.00770789 0.0060403 0.000189861 0.00190464 7.01786e-10 8.44128e-10 -3.02946e-10 5e-05 1.46608e-10 
31 1 0.144569 0.0167482 0.00812569 0.00633376 -0.000422782 0.00248055 2.20576e-12 -2.95984e-13 9.8913e-13 5e-05 1.46608e-10 
32 1 0.144702 0.0170839 0.0079082 0.0059305 9.82631e-05 0.00192389 -4.17537e-10 -3.14631e-10 -1.95356e-12 5e-05 1.46608e-10 
33 1 0.150753 0.0173271 0.00733963 0.00532519 -0.000388863 1.33502e-05 2.27379e-12 4.45958e-12 -1.60369e-12 5e-05 1.46608e-10 
34 1 0.144435 0.0163156 0.00841883 0.00571611 -0.000235938 0.00213492 -4.31538e-10 4.41972e-10 -4.28595e-10 5e-05 1.46608e-10 
35 1 0.144621 0.0169311 0.00800034 0.00574056 -0.000151869 0.00206627 4.14712e-11 -5.84717e-11 1.80528e-11 5e-05 1.46608e-10 
36 1 0.150949 0.018255 0.00702204 0.00547202 -0.000430944 2.43178e-05 -1.70762e-12 -7.1121e-12 2.4448e-12 5e-05 1.46608e-10 
37 1 0.14466 0.0169183 0.00809168 0.00586819 -3.70445e-06 0.00203067 -4.73566e-11 -4.63127e-11 2.16387e-10 5e-05 1.46608e-10 
38 1 0.144944 0.01745 0.00770361 0.00607368 0.000247494 0.00187119 1.13183e-09 3.96199e-10 7.15089e-13 5e-05 1.46608e-10 
39 1 0.150871 0.0178838 0.00714907 0.00542374 -0.000412174 1.90214e-05 9.75845e-12 1.31104e-11 -3.87418e-12 5e-05 1.46608e-10 
41 1 0.144391 0.016155 0.00852984 0.0052999 -0.000245067 0.00199028 2.67766e-10 1.65218e-10 9.04659e-11 5e-05 1.46608e-10 
42 1 0.144698 0.0171817 0.00794037 0.00596245 7.68524e-05 0.00191853 -1.12205e-10 -3.52617e-11 8.81666e-11 5e-05 1.46608e-10 
44 1 0.144966 0.0175303 0.00764816 0.0060489 0.000295846 0.00181455 -4.8465e-10 5.9007e-10 -2.63603e-10 5e-05 1.46608e-10 
45 1 0.150773 0.0174199 0.00730786 0.0053354 -0.000391566 1.40516e-05 1.42627e-12 2.55532e-12 -1.07887e-12 5e-05 1.46608e-10 
47 1 0.144413 0.0162353 0.00847432 0.0053097 -0.000255236 0.00200099 4.57361e-10 2.48845e-10 -1.31008e-10 5e-05 1.46608e-10 
48 1 0.144708 0.0172389 0.00778878 0.00598345 1.46442e-05 0.00201871 7.44651e-11 -3.16957e-10 3.18503e-10 5e-05 1.46608e-10 
49 1 0.150988 0.0180101 0.00710385 0.00544532 -0.000423762 2.24846e-05 -4.81297e-13 -5.16628e-12 1.77591e-12 5e-05 1.46608e-10 
50 1 0.144771 0.0174668 0.00763168 0.00595621 -7.28205e-05 0.00212555 3.99866e-10 2.48191e-11 5.75015e-10 5e-05 1.46608e-10 
51 1 0.144754 0.0174146 0.00771528 0.0059923 -6.59494e-05 0.00213607 1.47036e-10 -9.21659e-11 8.15772e-10 5e-05 1.46608e-10 
52 1 0.138585 0.0166452 0.0077706 0.00576992 -0.000430819 0.000758576 3.37119e-10 1.38449e-10 -1.06838e-11 5e-05 1.46608e-10 
53 1 0.150812 0.0176055 0.00724434 0.00538768 -0.000401901 1.63825e-05 3.23649e-13 -8.14558e-12 2.65085e-12 5e-05 1.46608e-10 
54 1 0.144468 0.0161195 0.00858358 0.0053599 -0.000184762 0.00196321 2.20035e-10 -4.78876e-10 4.87393e-10 5e-05 1.46608e-10 
55 1 0.138392 0.0160211 0.00837765 0.00576768 -0.000304979 0.000622881 -1.65722e-12 3.02447e-11 -2.90194e-11 5e-05 1.46608e-10 
56 1 0.144663 0.0171067 0.00799733 0.0055747 0.000286272 0.00169461 -8.1465e-11 1.14699e-10 -8.51068e-11 5e-05 1.46608e-10 
57 1 0.150792 0.0175127 0.0072761 0.00534575 -0.000393954 1.46269e-05 1.2546e-12 -4.70614e-13 2.03727e-13 5e-05 1.46608e-10 
59 1 0.144799 0.0170905 0.00793612 0.00571664 0.000223243 0.00176454 -5.87867e-12 -8.17032e-10 6.64492e-10 5e-05 1.46608e-10 
60 1 0.14488 0.0172094 0.00787033 0.00610952 0.000227686 0.00189425 -7.39464e-10 -5.95717e-10 2.17128e-10 5e-05 1.46608e-10 
61 1 0.14437 0.0160747 0.00858538 0.00531998 -0.000209778 0.00196989 1.51749e-11 -1.81625e-10 1.88204e-10 5e-05 1.46608e-10 
62 1 0.144986 0.0176107 0.00759203 0.00609935 0.000254321 0.00187245 -3.43517e-10 -2.86477e-11 7.7706e-11 5e-05 1.46608e-10 
63 1 0.145046 0.0182132 0.00725471 0.00682013 0.0111608 -0.00544117 1.77385e-10 4.91064e-11 -1.25506e-09 5e-05 1.46608e-10 
64 1 0.150831 0.0176983 0.00721259 0.00540053 -0.000404132 1.68536e-05 -3.56464e-12 -1.87823e-11 6.56475e-12 5e-05 1.46608e-10 
65 1 0.138903 0.0178101 0.00720408 0.00541774 -0.000501549 0.000404562 1.1488e-10 -2.64207e-10 -8.44133e-11 5e-05 1.46608e-10 
66 1 0.138984 0.0177365 0.00722086 0.00544082 -0.000582292 0.000411773 -2.42141e-10 6.33417e-11 -2.6115e-11 5e-05 1.46608e-10 
67 1 0.145076 0.0180241 0.00729899 0.00776152 0.00286232 0.000392827 -7.96123e-10 4.63198e-10 -6.31132e-10 5e-05 1.46608e-10 
68 1 0.145012 0.0178046 0.00744924 0.00542221 0.00283715 -0.000387238 -2.4522e-10 -2.72302e-10 6.2702e-11 5e-05 1.46608e-10 
69 1 0.144604 0.0165665 0.00828011 0.00626278 2.25618e-05 0.00211165 1.876e-10 -1.80434e-10 1.17214e-10 5e-05 1.46608e-10 
70 1 0.15089 0.0179766 0.00711731 0.00543886 -0.000411612 1.86177e-05 7.80476e-12 3.05557e-11 -9.66389e-12 5e-05 1.46608e-10 
71 1 0.13837 0.0159512 0.00844555 0.00575782 -0.00030718 0.000624445 -1.56953e-11 4.5831e-11 -5.42492e-11 5e-05 1.46608e-10 
72 1 0.145011 0.0176951 0.00753472 0.00674425 0.00105257 0.00148351 -3.80962e-10 -4.98611e-10 8.0038e-11 5e-05 1.46608e-10 
73 1 0.144508 0.0165562 0.00825549 0.00620906 -0.000221025 0.00230205 4.01173e-11 5.64829e-10 -5.51731e-10 5e-05 1.46608e-10 
74 1 0.144804 0.017245 0.00781656 0.00605144 0.000217875 0.00188325 3.0388e-10 -7.45101e-11 2.21191e-10 5e-05 1.46608e-10 
76 1 0.138869 0.0174398 0.00719142 0.00545803 -0.000591383 0.000416019 -2.93548e-11 2.43009e-10 -3.76581e-11 5e-05 1.46608e-10 
77 1 0.145027 0.0182074 0.00713881 0.00699506 0.00154506 0.00116465 -3.73069e-10 -7.2616e-10 5.68262e-10 5e-05 1.46608e-10 
78 1 0.138435 0.0161611 0.00824139 0.00577161 -0.000314074 0.000632166 -3.62804e-11 -8.28235e-11 8.15627e-11 5e-05 1.46608e-10 
79 1 0.138961 0.0176407 0.00723852 0.00546934 -0.000587581 0.000415064 -2.32647e-11 5.23395e-11 6.06368e-11 5e-05 1.46608e-10 
80 1 0.144827 0.0176744 0.00748838 0.00613719 0.00030847 0.00182307 -1.78295e-10 -9.23963e-13 -1.88957e-10 5e-05 1.46608e-10 
81 1 0.138754 0.0173162 0.00731203 0.00540319 -0.000662692 0.000421388 1.16992e-10 -4.12387e-12 2.29335e-11 5e-05 1.46608e-10 
82 1 0.138665 0.0169332 0.00750569 0.00539471 -0.000530232 0.00050841 -8.86825e-11 -1.26474e-10 5.87937e-11 5e-05 1.46608e-10 
83 1 0.138781 0.0166989 0.00772834 0.00573218 -0.000352551 0.000678448 -1.77343e-10 -2.62635e-10 2.89549e-10 5e-05 1.46608e-10 
84 1 0.150929 0.0181622 0.0070538 0.00546009 -0.000426219 2.2987e-05 -1.43353e-12 -6.30705e-12 2.15311e-12 5e-05 1.46608e-10 
85 1 0.138552 0.016255 0.00815493 0.0057642 -0.000331742 0.000648841 8.77448e-11 -2.16274e-10 2.12498e-10 5e-05 1.46608e-10 
86 1 0.144867 0.0174855 0.00764984 0.00600133 0.000223843 0.00187662 5.77187e-10 4.67312e-10 -3.20727e-10 5e-05 1.46608e-10 
87 1 0.144741 0.0170182 0.00797281 0.00591179 9.50871e-05 0.00193021 1.25296e-10 1.72541e-10 -1.14191e-10 5e-05 1.46608e-10 
88 1 0.144899 0.0179373 0.00741226 0.00534731 0.00225506 0.00125885 1.26862e-09 -7.10075e-10 2.31084e-09 5e-05 1.46608e-10 
89 1 0.144868 0.0177531 0.00755544 0.00568823 1.82163e-05 0.00142292 0 0 -1.43822e-09 5e-05 1.46608e-10 
90 1 0.145274 0.0184283 0.00699317 0.0154298 0.0276289 -0.0245726 -7.66262e-12 2.7972e-10 -2.09921e-10 5e-05 1.46608e-10 
91 1 0.138627 0.0167854 0.00763428 0.00567848 -0.000394338 0.00072477 -4.30198e-10 -1.06986e-10 2.56049e-12 5e-05 1.46608e-10 
92 1 0.145093 0.0181046 0.00724186 0.00750234 0.00289918 0.000280306 5.11321e-10 6.48611e-11 1.95842e-10 5e-05 1.46608e-10 
93 1 0.144877 0.0179147 0.00731724 0.00561827 0.000123437 0.00177891 1.3737e-10 7.06647e-11 -6.15615e-11 5e-05 1.46608e-10 
94 1 0.145168 0.0184271 0.00701483 0.0103029 0.00330833 -4.58502e-05 0 0 -1.43822e-09 5e-05 1.46608e-10 
95 1 0.14495 0.0181995 0.00723316 0.00664703 0.0039989 -0.000289999 -7.78921e-10 1.49681e-10 3.91935e-10 5e-05 1.46608e-10 
96 1 0.145113 0.0181856 0.00718507 0.00867831 0.00418113 -0.000331175 -9.17343e-10 4.96405e-10 -4.43554e-10 5e-05 1.46608e-10 
97 1 0.138542 0.0165429 0.00794397 0.00572471 -0.000344701 0.000559985 4.62839e-12 -1.59381e-10 -2.93355e-10 5e-05 1.46608e-10 
98 1 0.14486 0.0178344 0.00737434 0.00571572 4.62633e-05 0.00191682 -8.79369e-10 6.89922e-10 -7.82594e-10 5e-05 1.46608e-10 
99 1 0.139063 0.017829 0.00720677 0.00550992 -0.000711804 0.000384395 -5.56693e-12 -4.65304e-11 2.16057e-10 5e-05 1.46608e-10 
100 1 0.145089 0.0177699 0.00750257 0.00527935 0.00260866 -0.000248485 7.10278e-12 6.8775e-11 -6.55573e-11 5e-05 1.46608e-10 
101 1 0.138916 0.0174629 0.00727656 0.0054855 -0.00058609 0.000394674 1.60358e-10 -2.06845e-11 -2.48343e-11 5e-05 1.46608e-10 
102 1 0.0643568 0.0187248 0.00531097 4.39946e-15 1.04108e-14 8.29642e-14 -5.83602e-22 5.63775e-23 2.97785e-23 5e-05 1.46608e-10 
103 1 0.24257 0.0191927 0.00520306 -1.45275e-22 -8.32918e-22 8.29106e-22 0 0 0 5e-05 1.46608e-10 
104 1 0.138883 0.0170963 0.00729323 0.00541284 -0.000611412 0.000287253 -1.83734e-10 -9.317e-11 1.14188e-10 5e-05 1.46608e-10 
105 1 0.1385 0.016371 0.00803722 0.00577325 -0.000342767 0.00065929 4.46781e-11 -1.0846e-10 1.54158e-10 5e-05 1.46608e-10 
106 1 0.138977 0.0171183 0.00726436 0.00548978 -0.000577953 0.000416611 1.76969e-10 1.16163e-10 4.54867e-11 5e-05 1.46608e-10 
107 1 0.138457 0.0162311 0.00817333 0.00577218 -0.000323532 0.000641426 -9.28879e-12 -1.14454e-10 1.11456e-10 5e-05 1.46608e-10 
108 1 0.144665 0.016802 0.00811617 0.00572361 6.99262e-05 0.00188911 5.54783e-11 -1.49282e-10 1.23536e-10 5e-05 1.46608e-10 
109 1 0.14473 0.0173192 0.00773361 0.00601748 -2.29454e-05 0.002066 -1.30492e-10 -1.63534e-10 1.98179e-10 5e-05 1.46608e-10 
110 1 0.144981 0.0184053 0.00696842 0.00609229 -0.000517782 0.002458 -8.13495e-10 1.42216e-09 -2.71557e-09 5e-05 1.46608e-10 
111 1 0.144945 0.0182364 0.0070885 0.00583606 -0.000946162 0.00281509 -3.70675e-10 1.39462e-09 -1.65124e-09 5e-05 1.46608e-10 
112 1 0.138569 0.0166221 0.00786652 0.00573402 -0.000402645 0.000780534 3.09613e-10 -6.76928e-11 -1.01189e-10 5e-05 1.46608e-10 
113 1 0.139083 0.0180502 0.00707547 0.00586534 -0.000636272 0.000457731 -1.97254e-10 -5.61661e-11 -4.85115e-11 5e-05 1.46608e-10 
114 1 0.139288 0.0177628 0.00714648 0.00571442 -0.000652606 0.000447669 -1.72021e-10 2.31445e-10 -7.60925e-11 5e-05 1.46608e-10 
115 1 0.144826 0.0173252 0.00776139 0.00603729 0.000191437 0.00190316 2.83677e-10 5.89884e-10 -2.87261e-10 5e-05 1.46608e-10 
116 1 0.14463 0.0166466 0.00822594 0.00627859 1.15858e-05 0.00212395 -2.86479e-10 -2.08565e-10 -9.72688e-12 5e-05 1.46608e-10 
117 1 0.144444 0.0160373 0.00864007 0.00535548 -0.000172025 0.00195222 2.53789e-10 -2.03195e-10 2.36885e-10 5e-05 1.46608e-10 
118 1 0.138729 0.0172168 0.00736828 0.00533282 -0.000446321 0.000264743 3.94749e-11 1.68343e-12 -2.51286e-10 5e-05 1.46608e-10 
119 1 0.144903 0.0172897 0.00781516 0.006042 0.000218094 0.00187695 -7.83695e-10 -3.52588e-10 4.42127e-11 5e-05 1.46608e-10 
120 1 0.144262 0.0156732 0.00886307 0.00543328 -5.88821e-05 0.00189001 5.85679e-11 2.07454e-10 -1.41207e-10 5e-05 1.46608e-10 
121 1 0.144218 0.0155125 0.00897416 0.00545504 -8.7246e-05 0.00191964 6.01178e-11 2.23421e-10 -1.54807e-10 5e-05 1.46608e-10 
122 1 0.145061 0.0183747 0.0070196 0.00720305 0.00122423 0.0014871 4.40882e-11 -8.88113e-10 5.24449e-10 5e-05 1.46608e-10 
123 1 0.138596 0.0163949 0.00801891 0.00577216 -0.000349831 0.000669555 5.80321e-11 -1.82022e-10 2.04289e-10 5e-05 1.46608e-10 
124 1 0.144855 0.017787 0.00746225 0.00595202 4.11943e-05 0.00201226 8.84107e-10 -1.19375e-09 2.92894e-10 5e-05 1.46608e-10 
125 1 0.144423 0.0159569 0.00869564 0.0053563 -0.000119947 0.00191148 1.18257e-10 -1.77922e-10 1.90351e-10 5e-05 1.46608e-10 
126 1 0.144685 0.0171586 0.00784395 0.00593137 7.11785e-05 0.00194565 -5.35342e-10 -6.49245e-10 1.51846e-10 5e-05 1.46608e-10 
127 1 0.138521 0.016457 0.00799066 0.00574986 -0.00034257 0.000646153 -5.7989e-11 -1.93106e-10 -4.37924e-11 5e-05 1.46608e-10 
128 1 0.144793 0.0175471 0.00757623 0.00592631 -0.000148025 0.00213841 2.96132e-10 3.24052e-10 1.60914e-10 5e-05 1.46608e-10 
129 1 0.144907 0.0180235 0.00735515 0.00407085 0.00259243 0.00126058 3.01658e-10 -1.83997e-10 -7.05089e-10 5e-05 1.46608e-10 
130 1 0.138756 0.0169414 0.00746128 0.00529469 -0.000690343 0.000220764 -1.67178e-10 2.18744e-11 1.42875e-10 5e-05 1.46608e-10 
131 1 0.139094 0.0179339 0.00719083 0.00557889 -0.000722105 0.000378132 -1.02702e-09 2.31589e-09 2.40531e-09 5e-05 1.46608e-10 
132 1 0.144932 0.0177264 0.00748316 0.00624976 0.00027464 0.00190502 -1.69339e-09 1.03287e-09 -1.10367e-09 5e-05 1.46608e-10 
133 1 0.144671 0.0167246 0.00817909 0.00588247 0.000109311 0.00191084 2.79732e-10 -2.18291e-10 2.91896e-10 5e-05 1.46608e-10 
134 1 0.14493 0.0173698 0.00776166 0.00609291 0.000228237 0.00188339 -3.37998e-10 -2.151e-10 7.6721e-11 5e-05 1.46608e-10 
135 1 0.144401 0.0158766 0.0087512 0.0053596 -6.8557e-05 0.00187161 4.49625e-11 -3.18538e-11 3.28659e-11 5e-05 1.46608e-10 
136 1 0.13853 0.0161851 0.00822298 0.00577028 -0.00032143 0.000639172 -2.11275e-11 -1.78218e-10 1.82205e-10 5e-05 1.46608e-10 
137 1 0.145059 0.0183986 0.00712106 0.00808293 0.0140886 -0.00301692 0 0 -1.43822e-09 5e-05 1.46608e-10 
138 1 0.144579 0.0164863 0.00833419 0.00620673 1.81228e-05 0.00209313 -2.63491e-10 9.82601e-11 -2.32473e-10 5e-05 1.46608e-10 
140 1 0.145017 0.0185689 0.00686457 0.00547192 -0.000548877 -0.000121153 -5.83509e-10 4.15189e-10 -1.72941e-10 5e-05 1.46608e-10 
141 1 0.138574 0.016325 0.00808687 0.00576924 -0.000342503 0.000659191 8.78297e-11 -1.71258e-10 1.91689e-10 5e-05 1.46608e-10 
142 1 0.13885 0.0169574 0.00743199 0.00530633 -0.000671218 0.000222824 -5.73688e-11 -1.1465e-10 7.38173e-11 5e-05 1.46608e-10 
143 1 0.138478 0.0163011 0.00810528 0.00577207 -0.000334552 0.000651526 1.19748e-11 -1.11824e-10 1.30044e-10 5e-05 1.46608e-10 
144 1 0.138984 0.0175694 0.00717053 0.00544198 -0.000574029 0.000409776 5.60485e-11 1.4424e-10 -4.21143e-11 5e-05 1.46608e-10 
146 1 0.138896 0.0167869 0.00762865 0.00544574 -0.000767676 0.00030932 1.16384e-10 -1.68362e-10 2.93541e-10 5e-05 1.46608e-10 
147 1 0.138508 0.0161151 0.00829103 0.00576978 -0.000314849 0.000632513 -1.11054e-10 -1.48145e-10 1.3319e-10 5e-05 1.46608e-10 
148 1 0.138721 0.0171439 0.00730025 0.00540536 -0.000598429 0.000431963 -3.53402e-10 6.23237e-11 -1.71205e-10 5e-05 1.46608e-10 
149 1 0.144911 0.0180753 0.00720301 0.00537516 7.35332e-06 0.00177916 -4.62892e-10 -3.22797e-09 3.50132e-10 5e-05 1.46608e-10 
150 1 0.138683 0.0166716 0.00775002 0.00582227 -0.000361812 0.000732583 -1.40376e-11 9.29285e-11 3.38623e-11 5e-05 1.46608e-10 
151 1 0.139173 0.0176342 0.00716719 0.00557161 -0.000665462 0.000439325 -3.0862e-10 1.45456e-10 -1.88737e-11 5e-05 1.46608e-10 
153 1 0.138619 0.0165366 0.00787997 0.00581826 -0.000369301 0.000683936 6.64035e-12 -1.48647e-10 9.09564e-11 5e-05 1.46608e-10 
154 1 0.138807 0.0171475 0.00724913 0.00546832 -0.000628518 0.000442419 4.98935e-10 -1.82861e-10 -1.01488e-11 5e-05 1.46608e-10 
155 1 0.138888 0.017536 0.00717238 0.00545412 -0.00059117 0.000416513 5.85244e-11 1.6489e-10 5.92314e-12 5e-05 1.46608e-10 
156 1 0.138787 0.0170687 0.00730729 0.00523412 -0.00073325 0.000275407 7.22803e-12 1.31537e-10 2.59082e-10 5e-05 1.46608e-10 
157 1 0.0219312 0.0187687 0.00551176 -3.84358e-14 8.16075e-14 2.95891e-13 1.05944e-21 6.27106e-22 -4.03251e-23 5e-05 1.46608e-10 
158 1 0.138905 0.0171873 0.0072577 0.00548177 -0.000566858 0.000425218 6.72229e-11 9.48291e-12 1.23927e-10 5e-05 1.46608e-10 
159 1 0.144956 0.0178595 0.00738726 0.00533898 0.00279284 -0.000369313 3.24371e-10 2.419e-10 -4.46103e-10 5e-05 1.46608e-10 
160 1 0.138794 0.0175035 0.00717407 0.00542266 -0.00061069 0.000419312 9.02051e-11 -2.82726e-11 4.68879e-12 5e-05 1.46608e-10 
162 1 0.13883 0.0172473 0.00722951 0.00546922 -0.000583112 0.000421497 1.47697e-10 7.35716e-11 1.27226e-11 5e-05 1.46608e-10 
164 1 0.138967 0.017923 0.00710386 0.00543173 -0.000612907 0.000270385 5.33619e-11 -2.14131e-11 -4.83183e-10 5e-05 1.46608e-10 
165 1 0.139079 0.0176017 0.00716888 0.00543176 -0.000500532 0.000397533 3.25033e-11 -2.92265e-11 7.59462e-11 5e-05 1.46608e-10 
166 1 0.144699 0.0165965 0.00828884 0.00619749 0.000342149 0.00183696 3.80143e-10 -1.02768e-09 9.13376e-10 5e-05 1.46608e-10 
167 1 0.138663 0.0166033 0.00782029 0.00585512 -0.000387068 0.000710248 -1.15686e-10 8.04214e-11 1.81617e-10 5e-05 1.46608e-10 
168 1 0.139 0.0172163 0.00724512 0.00548111 -0.000557918 0.000412796 5.5727e-11 1.36115e-10 7.06321e-11 5e-05 1.46608e-10 
169 1 0.139137 0.0178903 0.00711177 0.00569743 -0.000641789 0.000434796 -1.02387e-09 -7.0771e-11 1.72535e-09 5e-05 1.46608e-10 
170 1 0.13904 0.0174093 0.00720696 0.00550149 -0.000510417 0.000402634 -3.98844e-11 -2.90977e-11 -1.0338e-11 5e-05 1.46608e-10 
171 1 0.144735 0.0166756 0.00823893 0.00615449 0.000343102 0.00182045 -9.83774e-11 -7.47654e-10 5.6606e-10 5e-05 1.46608e-10 
172 1 0.139213 0.0178266 0.00712913 0.00573682 -0.00063868 0.0004134 -3.51635e-10 3.55317e-10 -3.46219e-10 5e-05 1.46608e-10 
173 1 0.145143 0.0183467 0.00706936 0.00913667 0.00394929 1.00985e-05 -8.08837e-10 4.4814e-10 -5.81149e-10 5e-05 1.46608e-10 
174 1 0.138945 0.017377 0.00720868 0.0054999 -0.000564847 0.000382022 9.56621e-11 8.24563e-11 1.05432e-11 5e-05 1.46608e-10 
175 1 0.13265 0.0169157 0.00763382 0.00562238 -0.000517524 0.00062127 -2.12157e-11 -2.88951e-10 1.45296e-10 5e-05 1.46608e-10 
176 1 0.138771 0.0170049 0.00738445 0.00531393 -0.000654537 0.000200382 2.18282e-10 2.22743e-10 -2.90457e-10 5e-05 1.46608e-10 
177 1 0.138833 0.017696 0.00713597 0.0054491 -0.000585322 0.000416865 -4.32101e-11 -1.2592e-11 -9.1825e-11 5e-05 1.46608e-10 
178 1 0.139194 0.0181894 0.00705238 0.00580872 -0.000703981 0.000454649 -1.15402e-11 1.24772e-11 -1.1474e-11 5e-05 1.46608e-10 
179 1 0.139118 0.0177941 0.00713081 0.00561714 -0.000577884 0.000400058 -7.82853e-10 -2.16935e-10 6.07588e-10 5e-05 1.46608e-10 
181 1 0.138755 0.017311 0.00721217 0.00544456 -0.00060861 0.000419533 3.04134e-11 -3.45766e-11 8.16263e-12 5e-05 1.46608e-10 
182 1 0.144553 0.0164062 0.00838804 0.00624804 5.30584e-06 0.00211433 -2.66864e-10 2.45322e-10 -3.7027e-10 5e-05 1.46608e-10 
183 1 0.13902 0.0173131 0.007226 0.00552596 -0.000530972 0.000406756 3.36666e-11 -2.96963e-11 -7.93827e-11 5e-05 1.46608e-10 
184 1 0.145126 0.0182662 0.00712654 0.00946335 0.00421797 -8.99637e-05 -7.55658e-10 4.14705e-10 -6.3014e-10 5e-05 1.46608e-10 
185 1 0.138704 0.017078 0.00737339 0.00533723 -0.000592326 0.000425696 1.58284e-11 -2.21378e-10 -4.25212e-10 5e-05 1.46608e-10 
186 1 0.138735 0.0172148 0.00723121 0.00546003 -0.000608614 0.000423678 6.91812e-11 8.29046e-11 -4.38111e-11 5e-05 1.46608e-10 
187 1 0.145098 0.0176749 0.00757999 0.0073928 0.00228495 0.000725191 1.00323e-09 2.94216e-11 4.91657e-10 5e-05 1.46608e-10 
188 1 0.145003 0.0181182 0.00720063 0.00640993 0.000945547 0.00141525 8.67581e-10 -3.68806e-10 4.89144e-10 5e-05 1.46608e-10 
189 1 0.145155 0.0179908 0.00735076 0.0125501 0.00563278 -0.00353884 0 0 -1.43822e-09 5e-05 1.46608e-10 
190 1 0.132831 0.0173118 0.00749562 0.00527764 -0.000688664 0.000635725 -7.11428e-10 4.65926e-10 -3.24996e-10 5e-05 1.46608e-10 
191 1 0.144928 0.0181557 0.00714589 0.00586704 0.000153831 0.00181921 1.61646e-09 1.31274e-09 1.17821e-09 5e-05 1.46608e-10 
192 1 0.138946 0.0169767 0.00740166 0.00519136 -0.00066736 0.000293902 1.84443e-10 8.77058e-12 4.48698e-11 5e-05 1.46608e-10 
193 1 0.144739 0.0169391 0.00803397 0.00581807 7.65257e-05 0.00192604 -6.27865e-11 4.95633e-10 -7.98757e-11 5e-05 1.46608e-10 
194 1 0.1388 0.0167691 0.00765981 0.00566005 -0.000443158 0.000534298 1.63917e-10 -1.43572e-10 1.78553e-10 5e-05 1.46608e-10 
195 1 0.139158 0.0179863 0.00709283 0.00584186 -0.000650807 0.00043681 -1.49654e-10 -3.43141e-10 5.20914e-10 5e-05 1.46608e-10 
196 1 0.138304 0.0157413 0.00864972 0.00574108 -0.000324825 0.000641065 -1.28157e-11 8.26701e-11 -8.18889e-11 5e-05 1.46608e-10 
197 1 0.132715 0.0171863 0.0075268 0.00613671 -0.000607208 0.000687123 1.92638e-10 3.7249e-10 -1.3762e-10 5e-05 1.46608e-10 
198 1 0.138827 0.0174135 0.00727815 0.00544728 -0.000595945 0.000411646 -7.57683e-11 1.5413e-10 -2.75585e-11 5e-05 1.46608e-10 
199 1 0.13885 0.0173435 0.00721047 0.00544643 -0.000589381 0.000415486 -5.47977e-12 2.33484e-10 -5.71539e-11 5e-05 1.46608e-10 
200 1 0.138646 0.0168556 0.00756563 0.00558645 -0.000406687 0.000703905 9.53617e-11 3.89671e-11 2.16451e-10 5e-05 1.46608e-10 
201 1 0.139104 0.0181463 0.00705753 0.0058231 -0.000731755 0.00026692 -9.23912e-11 3.98416e-11 -1.70693e-11 5e-05 1.46608e-10 
202 1 0.138964 0.0170439 0.0073299 0.00543547 -0.000606716 0.000390759 1.48114e-10 2.58436e-10 1.80588e-10 5e-05 1.46608e-10 
203 1 0.145058 0.0179393 0.0073593 0.00588986 0.00848494 -0.00464405 1.24636e-10 2.60541e-10 -1.40008e-10 5e-05 1.46608e-10 
204 1 0.138723 0.0168119 0.00761319 0.00558143 -0.000368356 0.000685556 4.98531e-10 2.17124e-10 -2.33849e-11 5e-05 1.46608e-10 
205 1 0.138928 0.017729 0.0071342 0.00546736 -0.000572322 0.000419582 -7.51899e-11 9.81469e-12 -1.26029e-10 5e-05 1.46608e-10 
206 1 0.138965 0.0174732 0.00718972 0.00547055 -0.000568272 0.000386081 -8.6302e-12 1.08138e-10 -4.67263e-11 5e-05 1.46608e-10 
207 1 0.138612 0.0164655 0.00794996 0.0057771 -0.000358118 0.000679808 1.13804e-10 -2.15148e-10 1.89937e-10 5e-05 1.46608e-10 
208 1 0.138925 0.0172821 0.00723329 0.00550678 -0.000543269 0.000449378 9.77814e-11 1.0935e-11 5.23207e-11 5e-05 1.46608e-10 
209 1 0.138704 0.0167421 0.00768212 0.00571044 -0.000340652 0.000741622 1.71266e-10 -6.55035e-11 -2.30499e-10 5e-05 1.46608e-10 
210 1 0.144816 0.0176445 0.00758316 0.00608449 7.85808e-05 0.00173066 -4.05866e-11 8.43727e-11 -1.85941e-10 5e-05 1.46608e-10 
211 1 0.144985 0.0180367 0.00725844 0.00608168 -0.000169535 0.00222325 -7.88478e-10 6.60424e-10 -7.99016e-10 5e-05 1.46608e-10 
212 1 0.139059 0.0175055 0.00718791 0.00544853 -0.000504899 0.000396809 4.73488e-11 -2.72617e-11 1.80614e-12 5e-05 1.46608e-10 
213 1 0.14506 0.0175726 0.00764706 0.0066366 0.000834497 0.00159228 -3.34443e-10 2.56924e-10 -1.82081e-10 5e-05 1.46608e-10 
214 1 0.144969 0.0179549 0.00731679 0.00385827 0.00427307 -0.00203669 -2.02422e-10 2.22338e-10 -1.14071e-10 5e-05 1.46608e-10 
215 1 0.132789 0.0171246 0.00755264 0.00606295 -0.00069493 0.00070886 -9.08042e-11 -2.88267e-10 1.0821e-10 5e-05 1.46608e-10 
216 1 0.138813 0.0175997 0.00715503 0.00544558 -0.000613974 0.000419503 6.44341e-12 1.15034e-11 1.46323e-11 5e-05 1.46608e-10 
217 1 0.144753 0.0167844 0.00815983 0.00567758 4.27902e-05 0.00189184 6.82689e-10 2.63712e-10 -2.61999e-11 5e-05 1.46608e-10 
218 1 0.139179 0.0180822 0.00707395 0.00587372 -0.000633064 0.000450118 -5.13561e-11 -2.8823e-11 -4.33366e-11 5e-05 1.46608e-10 
219 1 0.144894 0.017995 0.00726013 0.00553372 -0.000175279 0.00198277 3.62681e-10 -2.98988e-10 -8.46041e-10 5e-05 1.46608e-10 
220 1 0.138774 0.0174073 0.00719312 0.00542902 -0.000607313 0.000419408 -1.77893e-11 -7.64917e-11 1.45167e-11 5e-05 1.46608e-10 
221 1 0.13272 0.016844 0.0076376 0.0056657 -0.00047323 0.000609617 3.40055e-12 1.0027e-10 -3.69492e-12 5e-05 1.46608e-10 
222 1 0.144743 0.0168611 0.00809641 0.00575115 5.20568e-05 0.00191018 -1.2867e-10 3.35347e-10 -3.52631e-11 5e-05 1.46608e-10 
223 1 0.138866 0.0170204 0.00735587 0.0052741 -0.00065649 0.000210248 -5.89391e-10 -2.92139e-10 -1.40889e-10 5e-05 1.46608e-10 
224 1 0.138684 0.0170081 0.00744208 0.00533018 -0.000579543 0.000430925 -8.9709e-11 -2.9395e-10 -3.78255e-10 5e-05 1.46608e-10 
225 1 0.144964 0.018325 0.00702552 0.005819 -0.00062099 0.00246141 -8.67059e-10 7.80399e-10 -7.5232e-10 5e-05 1.46608e-10 
226 1 0.139193 0.0177304 0.00714816 0.00566834 -0.000645913 0.000439707 -4.18217e-10 2.07836e-10 -1.23721e-10 5e-05 1.46608e-10 
227 1 0.132852 0.0174055 0.00746707 0.00532317 -0.000487809 0.000581317 -4.10613e-10 1.50794e-10 -9.66204e-11 5e-05 1.46608e-10 
228 1 0.132671 0.0169995 0.00758355 0.00561777 -0.000524945 0.000616728 -1.71267e-10 -1.63074e-10 7.21669e-11 5e-05 1.46608e-10 
229 1 0.138885 0.0177094 0.00722208 0.00544682 -0.000589217 0.000420946 -7.1509e-11 1.57156e-10 -1.58062e-10 5e-05 1.46608e-10 
230 1 0.13905 0.0183061 0.00702609 0.00586581 -0.000697197 0.000278232 3.33388e-11 -5.54092e-11 5.03235e-11 5e-05 1.46608e-10 
231 1 0.132629 0.0168278 0.00767665 0.00567184 -0.000517378 0.000626068 -6.61686e-11 -3.16551e-10 7.42838e-11 5e-05 1.46608e-10 
232 1 0.138761 0.0166288 0.00779662 0.00584217 -0.000381597 0.000701475 -4.52359e-10 -6.20932e-10 2.18205e-10 5e-05 1.46608e-10 
233 1 0.138835 0.0168947 0.00750828 0.00538777 -0.000641996 0.000277637 2.63686e-10 -8.73537e-11 5.64079e-11 5e-05 1.46608e-10 
234 1 0.145043 0.0182927 0.00707759 0.00737704 0.00131798 0.00148181 -7.35038e-10 5.06639e-10 -7.80661e-10 5e-05 1.46608e-10 
235 1 0.139018 0.0185631 0.00700706 0.00596143 -0.000662653 0.000247294 2.22408e-11 -2.07136e-10 -2.25408e-10 5e-05 1.46608e-10 
236 1 0.139057 0.0187468 0.00694499 0.0060112 -0.000642699 0.000268231 4.96754e-11 3.26889e-10 -7.64801e-11 5e-05 1.46608e-10 
237 1 0.13911 0.0185851 0.00697616 0.00597874 -0.00068843 0.000272875 -1.88131e-10 2.54e-10 -8.86434e-11 5e-05 1.46608e-10 
239 1 0.132451 0.0160492 0.00801928 0.00606929 -0.0007629 0.000229973 5.38157e-11 -1.15239e-11 3.22732e-12 5e-05 1.46608e-10 
240 1 0.132511 0.0162705 0.00782926 0.00533021 -0.000536142 0.000367188 2.41896e-10 -9.23318e-11 -1.39207e-10 5e-05 1.46608e-10 
241 1 0.132429 0.015981 0.00808909 0.00609554 -0.000748235 0.000212825 1.12868e-10 -6.50947e-11 4.95904e-11 5e-05 1.46608e-10 
242 1 0.138819 0.0168352 0.00758717 0.00552979 -0.000568008 0.000371866 1.36207e-10 -2.38079e-10 -3.66392e-11 5e-05 1.46608e-10 
243 1 0.138794 0.017517 0.00727315 0.00540931 -0.00063551 0.000421356 2.6114e-11 1.28561e-10 -3.20725e-11 5e-05 1.46608e-10 
244 1 0.132471 0.0161177 0.00794933 0.0055178 -0.000666973 0.000177002 7.70672e-11 6.16898e-11 -3.17359e-11 5e-05 1.46608e-10 
246 1 0.132592 0.0166361 0.00769441 0.0055724 -0.000480187 0.000599345 -1.83951e-10 8.11958e-11 -5.9934e-11 5e-05 1.46608e-10 
247 1 0.138948 0.0178255 0.00711613 0.00542679 -0.00060646 0.000371536 -5.06167e-11 6.46177e-11 -2.33986e-10 5e-05 1.46608e-10 
248 1 0.139062 0.0179551 0.00709853 0.0056875 -0.000698021 0.000141531 -7.24773e-11 2.87397e-10 2.3109e-10 5e-05 1.46608e-10 
249 1 0.132736 0.0172798 0.00749838 0.00409096 -0.000210212 0.000393598 5.157e-10 -1.12117e-11 -4.00786e-12 5e-05 1.46608e-10 
250 1 0.138908 0.0176323 0.00715331 0.00544355 -0.000583905 0.0004156 3.3175e-11 1.3841e-10 -1.50567e-11 5e-05 1.46608e-10 
251 1 0.145086 0.0184549 0.00696528 0.00757662 0.000234725 0.00236547 0 0 -1.43822e-09 5e-05 1.46608e-10 
252 1 0.132777 0.017467 0.00744129 0.0053517 -0.000404907 0.000554975 -9.36447e-11 6.7597e-10 -1.18442e-10 5e-05 1.46608e-10 