ITEM: TIMESTEP
69400000
ITEM: NUMBER OF ATOMS
269
ITEM: BOX BOUNDS ff ff ff
-0.02 0.43
-0.02 0.06
-0.02 0.07
ITEM: ATOMS id type x y z vx vy vz fx fy fz radius mass 
1 1 0.384599 0.0175858 5.25551e-05 -8.92651e-15 2.50401e-15 1.18459e-15 -5.76465e-20 1.61868e-20 -8.87151e-23 5e-05 1.46608e-10 
2 1 0.384183 0.0168012 5.20101e-05 2.24031e-18 -1.15009e-21 -1.71052e-15 0 2.63652e-26 0 5e-05 1.46608e-10 
4 1 0.384401 0.018342 5.22951e-05 8.36937e-20 2.14239e-21 -6.55654e-17 0 0 0 5e-05 1.46608e-10 
5 1 0.385011 0.0167669 5.30953e-05 2.24036e-18 -1.26559e-20 -1.71052e-15 0 -1.71761e-25 0 5e-05 1.46608e-10 
6 1 0.385108 0.0179216 5.32215e-05 1.7976e-18 -1.67531e-21 -1.37249e-15 0 3.2197e-26 0 5e-05 1.46608e-10 
7 1 0.384328 0.0189229 5.22005e-05 -3.50272e-19 -1.60682e-20 2.6738e-16 0 1.15506e-25 0 5e-05 1.46608e-10 
8 1 0.384815 0.0184943 5.2838e-05 1.79761e-18 1.44741e-21 -1.37249e-15 0 2.91409e-26 0 5e-05 1.46608e-10 
9 1 0.383777 0.0196525 5.1478e-05 2.81058e-18 8.28642e-21 -2.14593e-15 0 -1.79816e-25 0 5e-05 1.46608e-10 
10 1 0.384888 0.0164946 5.29341e-05 -9.20548e-19 -2.80403e-21 7.02842e-16 0 5.79381e-26 0 5e-05 1.46608e-10 
11 1 0.383974 0.0191869 5.17367e-05 2.81059e-18 -7.33814e-23 -2.14593e-15 0 -3.33077e-26 0 5e-05 1.46608e-10 
12 1 0.384004 0.0179482 5.17757e-05 1.42589e-19 1.73969e-20 -1.02006e-16 1.29247e-26 -5.16988e-26 0 5e-05 1.46608e-10 
13 1 0.384309 0.0184568 5.21751e-05 1.79761e-18 -1.3372e-21 -1.37251e-15 0 1.65772e-26 0 5e-05 1.46608e-10 
14 1 0.384724 0.0196711 5.2719e-05 8.71386e-19 -1.39062e-20 -6.65298e-16 0 -8.60447e-26 0 5e-05 1.46608e-10 
16 1 0.383685 0.0191826 5.13578e-05 2.81057e-18 2.73114e-21 -2.14593e-15 0 -3.15473e-26 0 5e-05 1.46608e-10 
17 1 0.384698 0.0173096 5.26849e-05 2.24034e-18 4.51413e-21 -1.71051e-15 0 -2.19803e-26 0 5e-05 1.46608e-10 
19 1 0.383912 0.0197978 5.16557e-05 2.81059e-18 8.19208e-21 -2.14593e-15 0 -3.57037e-26 0 5e-05 1.46608e-10 
21 1 0.383597 0.0186925 5.12422e-05 -6.94369e-19 -2.46177e-21 5.27388e-16 0 -2.58494e-26 0 5e-05 1.46608e-10 
22 1 0.38463 0.0163628 5.2596e-05 2.24036e-18 1.64092e-21 -1.71051e-15 0 -2.55084e-26 0 5e-05 1.46608e-10 
23 1 0.383878 0.0175317 5.1611e-05 2.34764e-21 6.55576e-22 -4.22722e-19 3.23117e-27 -1.03398e-25 0 5e-05 1.46608e-10 
24 1 0.384101 0.0187635 5.19028e-05 -9.85849e-20 2.70579e-21 7.4944e-17 0 0 0 5e-05 1.46608e-10 
26 1 0.38362 0.0183342 5.12731e-05 -2.89661e-21 1.08003e-21 1.92861e-20 0 0 0 5e-05 1.46608e-10 
27 1 0.384785 0.0180411 5.27984e-05 1.79761e-18 2.90871e-21 -1.37251e-15 0 1.80251e-26 0 5e-05 1.46608e-10 
28 1 0.384198 0.0187953 5.20297e-05 -3.50113e-19 4.91246e-22 2.67382e-16 0 -6.40276e-27 0 5e-05 1.46608e-10 
29 1 0.384214 0.0168974 5.20505e-05 -9.2053e-19 -1.89429e-21 7.02842e-16 0 1.32134e-25 0 5e-05 1.46608e-10 
30 1 0.384097 0.0179868 5.18972e-05 1.34741e-19 -2.22552e-21 -1.01975e-16 -1.29247e-26 0 0 5e-05 1.46608e-10 
31 1 0.383893 0.0179765 5.16305e-05 1.89913e-20 -1.73997e-20 -2.57466e-19 -1.03398e-25 0 0 5e-05 1.46608e-10 
32 1 0.247451 0.0181454 0.00545794 3.8679e-15 -5.3204e-14 -2.74084e-13 2.7201e-21 -1.1322e-22 6.01774e-23 5e-05 1.46608e-10 
33 1 0.383882 0.0177775 5.16151e-05 2.82417e-20 -3.66882e-20 -3.84915e-19 -2.58494e-26 -1.29247e-25 0 5e-05 1.46608e-10 
35 1 0.384808 0.0177286 5.28287e-05 1.79764e-18 -5.36079e-21 -1.37251e-15 0 3.2191e-26 0 5e-05 1.46608e-10 
36 1 0.383662 0.0180556 5.13278e-05 6.49849e-22 -3.94397e-21 -5.2552e-20 -5.16988e-26 5.16988e-26 0 5e-05 1.46608e-10 
37 1 0.383909 0.0178755 5.16511e-05 -6.77247e-19 2.33033e-20 5.09934e-16 3.23117e-27 1.45403e-26 0 5e-05 1.46608e-10 
38 1 0.384713 0.0170615 5.27042e-05 2.24033e-18 1.68356e-20 -1.71052e-15 0 -2.43305e-25 0 5e-05 1.46608e-10 
39 1 0.383717 0.0197911 5.13996e-05 2.81057e-18 2.31507e-21 -2.14593e-15 0 4.92788e-26 0 5e-05 1.46608e-10 
41 1 0.383748 0.018123 5.14409e-05 2.24035e-18 -1.02793e-20 -1.71052e-15 4.03897e-28 -5.01062e-25 0 5e-05 1.46608e-10 
42 1 0.384212 0.0181264 5.20477e-05 -2.74787e-19 -1.08693e-21 2.16014e-16 0 6.46235e-27 0 5e-05 1.46608e-10 
44 1 0.384674 0.017655 5.26539e-05 1.79764e-18 -1.49744e-23 -1.37251e-15 0 3.1483e-27 0 5e-05 1.46608e-10 
45 1 0.384212 0.0172077 5.20482e-05 2.24034e-18 1.1381e-22 -1.71051e-15 0 -6.23126e-28 0 5e-05 1.46608e-10 
47 1 0.384502 0.0170164 5.24283e-05 2.24035e-18 -4.35894e-22 -1.71051e-15 0 3.11482e-27 0 5e-05 1.46608e-10 
48 1 0.383855 0.0191595 5.15803e-05 2.8106e-18 -4.51046e-21 -2.14593e-15 0 -3.45392e-26 0 5e-05 1.46608e-10 
49 1 0.384166 0.0195438 5.19874e-05 2.81054e-18 2.53643e-20 -2.14593e-15 0 8.15648e-26 0 5e-05 1.46608e-10 
50 1 0.393126 0.017613 0.00787874 6.81543e-10 -0.022385 0.00887106 -3.6819e-19 8.02252e-12 2.03001e-11 5e-05 1.46608e-10 
51 1 0.384626 0.0177793 5.25903e-05 1.79759e-18 5.32148e-22 -1.37251e-15 0 -3.06903e-27 0 5e-05 1.46608e-10 
52 1 0.38448 0.0176805 5.23994e-05 -8.06592e-14 -4.08441e-14 4.85293e-14 -1.59462e-19 1.92474e-19 2.16474e-19 5e-05 1.46608e-10 
53 1 0.384734 0.0175226 5.27322e-05 -1.10572e-13 2.98385e-13 -4.25079e-15 -3.61172e-19 8.08429e-19 5.20911e-20 5e-05 1.46608e-10 
54 1 0.383738 0.0190139 5.14271e-05 -3.50213e-19 1.71102e-22 2.67381e-16 0 -1.17293e-26 0 5e-05 1.46608e-10 
55 1 0.384694 0.0180885 5.26795e-05 -2.82714e-19 -2.58112e-21 2.16626e-16 0 -5.16988e-26 0 5e-05 1.46608e-10 
56 1 0.383635 0.0196308 5.12923e-05 2.81054e-18 7.39852e-22 -2.14593e-15 0 -3.82144e-26 0 5e-05 1.46608e-10 
57 1 0.383634 0.0197324 5.1291e-05 -3.50173e-19 5.14928e-21 2.67381e-16 -4.03897e-28 -1.42112e-26 0 5e-05 1.46608e-10 
59 1 0.378022 0.019866 0.005332 -5.01965e-15 -7.41208e-15 7.69802e-14 6.78547e-24 -3.64476e-24 2.06795e-25 5e-05 1.46608e-10 
60 1 0.384057 0.0182172 5.1845e-05 1.79761e-18 1.45676e-21 -1.37251e-15 0 -5.35531e-26 0 5e-05 1.46608e-10 
61 1 0.384827 0.0175585 5.28544e-05 1.08024e-13 -2.70185e-13 3.6853e-15 2.61337e-19 -8.05674e-19 1.84213e-21 5e-05 1.46608e-10 
62 1 0.384311 0.0186263 5.21774e-05 1.79759e-18 1.36777e-21 -1.37251e-15 4.03897e-28 1.82179e-25 0 5e-05 1.46608e-10 
63 1 0.383577 0.018452 5.1216e-05 -1.36696e-21 8.36289e-21 -2.88402e-20 0 0 0 5e-05 1.46608e-10 
64 1 0.383269 0.0178073 0.0053438 -1.46639e-15 -3.32036e-15 -2.09205e-14 -1.42042e-23 1.08567e-24 1.03398e-24 5e-05 1.46608e-10 
65 1 0.384532 0.0167022 5.24676e-05 2.24033e-18 2.54647e-22 -1.71051e-15 0 5.12969e-28 0 5e-05 1.46608e-10 
66 1 0.383745 0.0178455 0.000126364 -1.91594e-19 -7.74448e-20 -2.05585e-21 0 0 -1.9387e-26 5e-05 1.46608e-10 
67 1 0.384602 0.0180485 5.25594e-05 -2.85115e-19 -1.70217e-21 2.1663e-16 0 0 0 5e-05 1.46608e-10 
68 1 0.384886 0.0184142 5.2931e-05 3.47063e-19 -6.23655e-23 -2.65996e-16 -3.23117e-27 0 0 5e-05 1.46608e-10 
69 1 0.383711 0.0207759 5.13922e-05 2.00507e-18 -1.5393e-21 -1.5309e-15 0 3.41836e-27 0 5e-05 1.46608e-10 
70 1 0.384746 0.0161015 5.27478e-05 2.24032e-18 -1.04867e-20 -1.71051e-15 0 -1.55138e-25 0 5e-05 1.46608e-10 
71 1 0.383741 0.0188606 5.14314e-05 -3.50166e-19 3.09746e-20 2.6738e-16 0 5.52513e-25 0 5e-05 1.46608e-10 
72 1 0.384005 0.0195345 5.17769e-05 -3.50221e-19 -1.59083e-21 2.67382e-16 -4.03897e-28 -2.45009e-26 0 5e-05 1.46608e-10 
73 1 0.385165 0.0173714 5.3297e-05 1.79763e-18 5.75759e-22 -1.37251e-15 0 1.51529e-26 0 5e-05 1.46608e-10 
74 1 0.384312 0.0182285 5.21795e-05 8.69084e-20 -8.27657e-22 -6.55705e-17 0 0 0 5e-05 1.46608e-10 
76 1 0.384529 0.0179806 5.24634e-05 1.79756e-18 8.86423e-23 -1.37249e-15 0 -6.08234e-27 0 5e-05 1.46608e-10 
77 1 0.384211 0.0182562 5.20468e-05 1.79756e-18 2.29388e-21 -1.37249e-15 0 3.24299e-26 0 5e-05 1.46608e-10 
78 1 0.384019 0.0174293 5.17959e-05 2.24033e-18 -7.40371e-22 -1.71052e-15 -4.03897e-28 1.78073e-26 0 5e-05 1.46608e-10 
79 1 0.383618 0.019402 5.12705e-05 -3.50223e-19 3.29433e-21 2.67382e-16 0 -1.83387e-26 0 5e-05 1.46608e-10 
80 1 0.384203 0.0173209 5.20365e-05 2.24036e-18 4.28826e-20 -1.71051e-15 0 2.46234e-25 0 5e-05 1.46608e-10 
82 1 0.384071 0.0186677 5.1864e-05 -3.50195e-19 -6.58911e-22 2.67382e-16 0 2.06152e-26 0 5e-05 1.46608e-10 
83 1 0.384602 0.0164616 5.25589e-05 2.24033e-18 4.65061e-21 -1.71052e-15 0 -1.55228e-25 0 5e-05 1.46608e-10 
84 1 0.384003 0.0188652 5.17748e-05 -9.43966e-20 7.69126e-22 7.49431e-17 0 0 0 5e-05 1.46608e-10 
85 1 0.384491 0.0201706 5.24132e-05 8.71349e-19 -2.49139e-21 -6.65297e-16 0 2.93394e-26 0 5e-05 1.46608e-10 
86 1 0.38452 0.0190801 5.24517e-05 2.81056e-18 3.83367e-21 -2.14593e-15 0 -1.43879e-25 0 5e-05 1.46608e-10 
87 1 0.384401 0.0173066 5.22954e-05 2.24035e-18 -4.09494e-21 -1.71051e-15 0 -3.65922e-26 0 5e-05 1.46608e-10 
88 1 0.384597 0.0181855 5.25521e-05 1.79761e-18 1.13468e-21 -1.37249e-15 0 4.06923e-27 0 5e-05 1.46608e-10 
89 1 0.383831 0.0209331 5.15494e-05 2.00503e-18 3.87384e-21 -1.5309e-15 0 -5.45808e-26 0 5e-05 1.46608e-10 
90 1 0.384476 0.0180662 5.23935e-05 -2.80994e-19 1.2914e-20 2.16044e-16 0 -5.16988e-26 0 5e-05 1.46608e-10 
91 1 0.384562 0.0161408 5.25065e-05 2.24036e-18 -1.02116e-19 -1.71051e-15 0 -1.84568e-24 0 5e-05 1.46608e-10 
92 1 0.383623 0.0181478 5.12773e-05 -7.38536e-21 4.57448e-21 -4.52604e-20 5.16988e-26 0 0 5e-05 1.46608e-10 
93 1 0.384831 0.0190845 5.28587e-05 2.81057e-18 1.03383e-20 -2.14593e-15 0 2.18943e-25 0 5e-05 1.46608e-10 
94 1 0.384215 0.0186925 5.20517e-05 -3.50222e-19 -1.2232e-21 2.67382e-16 0 -2.53038e-26 0 5e-05 1.46608e-10 
95 1 0.383676 0.018497 5.13469e-05 2.81051e-18 -1.00269e-22 -2.14593e-15 0 9.6816e-27 0 5e-05 1.46608e-10 
96 1 0.385068 0.0173509 5.31688e-05 2.24031e-18 -3.3481e-21 -1.71052e-15 0 8.93243e-26 0 5e-05 1.46608e-10 
97 1 0.385082 0.0166964 5.31883e-05 2.24032e-18 2.43649e-22 -1.71052e-15 0 -5.69835e-28 0 5e-05 1.46608e-10 
98 1 0.384494 0.017574 5.24182e-05 -9.20569e-19 -5.23311e-24 7.02843e-16 0 -4.70435e-27 0 5e-05 1.46608e-10 
99 1 0.383876 0.0176099 0.000113825 4.87583e-20 2.37506e-20 -4.16587e-19 -2.58494e-26 1.29247e-25 2.06795e-25 5e-05 1.46608e-10 
100 1 0.383701 0.0182111 5.13792e-05 1.79763e-18 -2.77557e-22 -1.37251e-15 -4.03897e-28 -8.48979e-27 0 5e-05 1.46608e-10 
101 1 0.3839 0.0196686 5.16397e-05 -3.50202e-19 -4.00721e-22 2.67381e-16 -4.03897e-28 1.26213e-26 0 5e-05 1.46608e-10 
102 1 0.0643568 0.0187248 0.00531097 4.21788e-15 1.05251e-14 8.29592e-14 -8.46852e-22 4.03173e-22 -7.65142e-24 5e-05 1.46608e-10 
103 1 0.230779 0.0182774 0.00551293 -5.48376e-15 6.51557e-15 4.46842e-14 -7.68761e-23 8.60785e-24 -1.03398e-23 5e-05 1.46608e-10 
104 1 0.38388 0.0192583 5.16135e-05 2.8106e-18 2.06723e-21 -2.14593e-15 0 -1.60343e-26 0 5e-05 1.46608e-10 
105 1 0.384197 0.0178013 5.20291e-05 2.24031e-18 -6.84616e-22 -1.71052e-15 0 1.8157e-26 0 5e-05 1.46608e-10 
106 1 0.384064 0.01708 5.85246e-05 6.53846e-18 2.69568e-18 1.45721e-19 0 0 0 5e-05 1.46608e-10 
107 1 0.383991 0.0177466 5.17583e-05 -1.20586e-21 -2.60965e-23 -4.49658e-19 -1.29247e-26 -2.58494e-26 0 5e-05 1.46608e-10 
108 1 0.383604 0.0189528 5.1252e-05 1.51555e-21 7.18e-21 7.08695e-21 0 5.16988e-26 0 5e-05 1.46608e-10 
109 1 0.383824 0.0193429 5.15405e-05 2.81059e-18 -1.59842e-22 -2.14593e-15 4.03897e-28 -2.53271e-27 0 5e-05 1.46608e-10 
110 1 0.384848 0.0181615 5.28813e-05 -2.82751e-19 -3.09695e-22 2.16628e-16 0 0 0 5e-05 1.46608e-10 
111 1 0.383759 0.0180222 5.14545e-05 -2.67676e-21 -5.18008e-21 -3.00006e-19 0 0 0 5e-05 1.46608e-10 
112 1 0.384668 0.0204846 5.26453e-05 2.00507e-18 -1.50458e-20 -1.5309e-15 0 -1.87105e-25 0 5e-05 1.46608e-10 
113 1 0.384006 0.0178482 5.17777e-05 1.15806e-19 2.31921e-20 -1.01984e-16 -2.58494e-26 0 0 5e-05 1.46608e-10 
114 1 0.385064 0.0164614 5.31641e-05 2.24036e-18 2.48928e-20 -1.71052e-15 0 -1.14155e-24 0 5e-05 1.46608e-10 
115 1 0.38433 0.0192224 5.22022e-05 2.81054e-18 8.18998e-22 -2.14593e-15 0 -1.09118e-25 0 5e-05 1.46608e-10 
116 1 0.384884 0.0180547 5.29282e-05 1.79755e-18 -2.10443e-22 -1.37249e-15 0 -1.19976e-26 0 5e-05 1.46608e-10 
117 1 0.383529 0.0177712 0.00534448 4.49381e-18 -1.80377e-14 -5.94669e-14 6.53821e-25 -5.16988e-26 0 5e-05 1.46608e-10 
118 1 0.384874 0.0171689 5.29154e-05 2.24034e-18 -1.56895e-20 -1.71052e-15 0 -7.1307e-26 0 5e-05 1.46608e-10 
119 1 0.383718 0.017918 5.14012e-05 2.20439e-21 7.91369e-22 5.70629e-19 0 0 0 5e-05 1.46608e-10 
120 1 0.384613 0.0170491 5.25734e-05 2.24031e-18 5.21996e-21 -1.71052e-15 0 -1.57645e-25 0 5e-05 1.46608e-10 
121 1 0.385676 0.0164514 5.39659e-05 1.45281e-18 -1.02659e-20 -1.10923e-15 0 -3.87262e-26 0 5e-05 1.46608e-10 
122 1 0.384725 0.0177988 5.27197e-05 1.79759e-18 -3.31111e-22 -1.37249e-15 0 2.19593e-26 0 5e-05 1.46608e-10 
123 1 0.383915 0.0205035 5.16596e-05 8.71357e-19 -1.74477e-21 -6.65298e-16 0 2.14595e-27 0 5e-05 1.46608e-10 
124 1 0.38514 0.0150589 5.32639e-05 -6.70428e-20 2.12431e-20 5.11809e-17 0 -5.26752e-25 0 5e-05 1.46608e-10 
125 1 0.384411 0.0182414 5.23096e-05 1.7976e-18 4.1642e-24 -1.37251e-15 0 9.15891e-28 0 5e-05 1.46608e-10 
127 1 0.384568 0.0171652 5.25152e-05 2.24036e-18 4.31776e-22 -1.71052e-15 0 1.31657e-27 0 5e-05 1.46608e-10 
128 1 0.384299 0.0176122 5.21628e-05 2.24034e-18 9.00869e-23 -1.71051e-15 0 -1.20209e-28 0 5e-05 1.46608e-10 
129 1 0.384156 0.0171195 5.19742e-05 -6.35948e-21 -3.07065e-20 6.4065e-19 0 0 0 5e-05 1.46608e-10 
130 1 0.385036 0.0171379 5.31278e-05 2.24031e-18 1.06451e-20 -1.71052e-15 -4.03897e-28 -1.90989e-25 0 5e-05 1.46608e-10 
131 1 0.38397 0.0175718 5.17312e-05 2.24036e-18 -1.04777e-21 -1.71051e-15 0 1.65179e-26 0 5e-05 1.46608e-10 
132 1 0.385069 0.0180992 5.31713e-05 1.79763e-18 -3.94204e-22 -1.37251e-15 0 -1.07814e-26 0 5e-05 1.46608e-10 
133 1 0.384477 0.0187082 5.23958e-05 1.79762e-18 -1.60313e-21 -1.37251e-15 0 5.92455e-26 0 5e-05 1.46608e-10 
134 1 0.384249 0.0183505 5.20968e-05 8.3986e-20 8.19533e-22 -6.55682e-17 5.16988e-26 0 0 5e-05 1.46608e-10 
135 1 0.383899 0.019542 5.16388e-05 -3.50184e-19 -2.48521e-21 2.6738e-16 4.03897e-28 1.0037e-25 0 5e-05 1.46608e-10 
136 1 0.384145 0.017899 5.19599e-05 1.49272e-19 -5.90758e-21 -1.01981e-16 5.16988e-26 0 0 5e-05 1.46608e-10 
137 1 0.383813 0.0198281 5.15254e-05 -3.50209e-19 1.52663e-21 2.67381e-16 4.03897e-28 2.0304e-26 0 5e-05 1.46608e-10 
138 1 0.384467 0.0171735 5.23827e-05 2.24032e-18 -4.66058e-22 -1.71052e-15 0 -1.21028e-26 0 5e-05 1.46608e-10 
140 1 0.384752 0.0179004 5.27554e-05 1.7976e-18 -2.64192e-21 -1.37249e-15 0 1.05877e-26 0 5e-05 1.46608e-10 
141 1 0.38497 0.0181068 5.30405e-05 -5.31509e-19 -4.83415e-21 4.04658e-16 0 0 0 5e-05 1.46608e-10 
142 1 0.38496 0.0184888 5.30276e-05 1.79759e-18 -3.20981e-22 -1.37249e-15 0 1.10756e-26 0 5e-05 1.46608e-10 
143 1 0.384762 0.0181437 0.000100712 -2.7586e-19 -1.46848e-20 2.16623e-16 -2.58494e-26 0 2.06795e-25 5e-05 1.46608e-10 
144 1 0.383431 0.0175376 0.00541532 -2.47769e-18 -1.80377e-14 -5.94669e-14 7.72944e-23 0 0 5e-05 1.46608e-10 
146 1 0.384977 0.0180356 0.000122854 -5.36517e-19 -4.79366e-22 4.04649e-16 -2.58494e-26 5.16988e-26 0 5e-05 1.46608e-10 
147 1 0.383614 0.0185748 5.12645e-05 -3.50218e-19 -1.42757e-21 2.67381e-16 0 9.69004e-26 0 5e-05 1.46608e-10 
148 1 0.384112 0.0172175 5.19177e-05 2.24036e-18 -2.55891e-22 -1.71051e-15 0 1.93776e-26 0 5e-05 1.46608e-10 
149 1 0.385015 0.0183005 5.30994e-05 1.79761e-18 -1.04844e-21 -1.37251e-15 0 1.46759e-26 0 5e-05 1.46608e-10 
150 1 0.384846 0.0192085 5.28787e-05 8.71383e-19 -9.49702e-21 -6.65297e-16 0 1.11481e-25 0 5e-05 1.46608e-10 
151 1 0.384832 0.0188472 5.28603e-05 1.79764e-18 9.05034e-21 -1.37251e-15 0 2.86374e-25 0 5e-05 1.46608e-10 
153 1 0.383898 0.0179255 0.00013754 1.4079e-17 -1.51917e-16 2.55094e-16 -3.06962e-26 0 0 5e-05 1.46608e-10 
154 1 0.383898 0.0181094 5.16374e-05 1.79759e-18 -9.86281e-23 -1.37251e-15 0 -7.81711e-28 0 5e-05 1.46608e-10 
155 1 0.384945 0.0179716 5.30077e-05 -5.31547e-19 -4.94564e-21 4.04653e-16 0 0 0 5e-05 1.46608e-10 
156 1 0.384147 0.0170045 5.19627e-05 -1.43855e-20 -5.53333e-21 -1.95855e-18 -2.58494e-26 -1.9387e-26 0 5e-05 1.46608e-10 
157 1 0.0219312 0.0187687 0.00551176 -3.83131e-14 8.16753e-14 2.95888e-13 3.01662e-22 1.51167e-22 -1.7164e-23 5e-05 1.46608e-10 
158 1 0.384399 0.017607 5.22938e-05 2.24034e-18 -2.04931e-24 -1.71052e-15 0 2.04711e-27 0 5e-05 1.46608e-10 
159 1 0.384201 0.0184387 5.20343e-05 1.79762e-18 -1.98789e-21 -1.37251e-15 0 7.20444e-26 0 5e-05 1.46608e-10 
160 1 0.383571 0.0183829 0.000123314 -1.5007e-21 4.85387e-22 -6.91228e-22 0 0 0 5e-05 1.46608e-10 
162 1 0.384488 0.0195864 5.24091e-05 -3.50187e-19 6.14662e-21 2.67381e-16 0 1.72104e-26 0 5e-05 1.46608e-10 
164 1 0.384755 0.0166629 5.27588e-05 -9.20561e-19 1.47117e-20 7.02843e-16 0 -1.28597e-25 0 5e-05 1.46608e-10 
165 1 0.383838 0.0177344 0.000130408 -1.16761e-19 4.21696e-20 -3.82077e-19 5.16988e-26 5.16988e-26 -2.06795e-25 5e-05 1.46608e-10 
166 1 0.383767 0.0192404 5.14661e-05 2.81059e-18 3.08755e-21 -2.14593e-15 0 1.90067e-26 0 5e-05 1.46608e-10 
167 1 0.384912 0.0178665 5.29654e-05 1.79761e-18 -1.99477e-21 -1.37251e-15 0 -1.18284e-26 0 5e-05 1.46608e-10 
168 1 0.384018 0.01725 5.17936e-05 2.24036e-18 -1.81442e-20 -1.71052e-15 0 1.73458e-25 0 5e-05 1.46608e-10 
169 1 0.384049 0.019854 5.18343e-05 -3.50171e-19 4.51412e-21 2.67382e-16 -4.03897e-28 -7.16165e-26 0 5e-05 1.46608e-10 
170 1 0.383999 0.018436 5.17689e-05 1.7976e-18 -2.74674e-21 -1.37251e-15 4.03897e-28 1.31697e-26 0 5e-05 1.46608e-10 
171 1 0.384038 0.0188005 0.000119845 -9.13768e-20 7.0025e-21 7.49371e-17 0 0 0 5e-05 1.46608e-10 
172 1 0.384373 0.0180412 5.22591e-05 1.79758e-18 1.71022e-21 -1.37249e-15 0 -2.60121e-26 0 5e-05 1.46608e-10 
173 1 0.384964 0.0172331 5.30331e-05 2.24032e-18 -1.31183e-21 -1.71052e-15 4.03897e-28 -6.68659e-26 0 5e-05 1.46608e-10 
174 1 0.384622 0.0182827 5.25858e-05 1.79762e-18 -7.89905e-23 -1.37251e-15 0 5.63305e-27 0 5e-05 1.46608e-10 
176 1 0.383932 0.0176648 5.16808e-05 -1.28651e-21 2.87699e-21 -4.14153e-19 0 0 0 5e-05 1.46608e-10 
177 1 0.38404 0.0185721 5.18234e-05 1.79763e-18 6.06477e-21 -1.37251e-15 0 -8.78445e-26 0 5e-05 1.46608e-10 
178 1 0.384829 0.019706 5.28566e-05 8.71374e-19 3.09371e-22 -6.65297e-16 0 8.04606e-28 0 5e-05 1.46608e-10 
179 1 0.384191 0.0191787 5.20202e-05 2.81058e-18 -2.27261e-20 -2.14593e-15 0 -5.37629e-26 0 5e-05 1.46608e-10 
182 1 0.384115 0.018498 5.19211e-05 1.79756e-18 -4.46564e-22 -1.37249e-15 0 7.10271e-28 0 5e-05 1.46608e-10 
183 1 0.384721 0.0202918 5.27147e-05 8.71373e-19 -4.92862e-23 -6.65297e-16 0 -9.33397e-27 0 5e-05 1.46608e-10 
184 1 0.384677 0.0179669 5.2657e-05 1.7976e-18 1.6452e-21 -1.37249e-15 0 -2.03293e-26 0 5e-05 1.46608e-10 
185 1 0.38458 0.01769 5.25298e-05 -7.82763e-14 -6.09524e-14 -4.87393e-14 -6.70767e-20 -7.17397e-19 -2.12525e-19 5e-05 1.46608e-10 
186 1 0.38368 0.0195057 5.13522e-05 -3.50181e-19 5.15522e-21 2.67381e-16 -4.03897e-28 1.94382e-25 0 5e-05 1.46608e-10 
187 1 0.384427 0.0170821 5.23292e-05 -1.10072e-20 2.42435e-21 6.88008e-19 0 0 0 5e-05 1.46608e-10 
188 1 0.38383 0.0176734 5.15473e-05 -9.76463e-21 1.71922e-23 -4.07328e-19 0 0 0 5e-05 1.46608e-10 
189 1 0.383918 0.017439 5.16628e-05 2.24032e-18 9.51359e-23 -1.71052e-15 0 7.24991e-27 0 5e-05 1.46608e-10 
190 1 0.383979 0.0193213 5.17425e-05 -3.50197e-19 3.79649e-21 2.67381e-16 0 -5.7912e-26 0 5e-05 1.46608e-10 
191 1 0.384646 0.017421 5.26161e-05 2.24034e-18 8.07124e-22 -1.71052e-15 0 1.16485e-27 0 5e-05 1.46608e-10 
192 1 0.384378 0.0175059 5.22658e-05 2.24034e-18 -2.49697e-21 -1.71052e-15 0 4.8398e-26 0 5e-05 1.46608e-10 
193 1 0.384089 0.0190435 5.18871e-05 -3.50189e-19 -1.46659e-22 2.67382e-16 0 2.57637e-26 0 5e-05 1.46608e-10 
194 1 0.383653 0.019074 5.13159e-05 -1.59075e-21 9.71366e-22 -5.42201e-21 0 0 0 5e-05 1.46608e-10 
195 1 0.383846 0.0182168 5.15694e-05 1.7976e-18 -1.9316e-21 -1.37249e-15 0 6.64505e-26 0 5e-05 1.46608e-10 
196 1 0.384118 0.0180904 5.19255e-05 1.79763e-18 7.09781e-22 -1.37251e-15 4.03897e-28 2.49034e-27 0 5e-05 1.46608e-10 
197 1 0.383944 0.0178123 0.000121771 -4.47518e-17 -2.57881e-17 -5.12453e-17 -5.16988e-26 0 0 5e-05 1.46608e-10 
198 1 0.383892 0.0185466 5.16296e-05 -3.50181e-19 -4.20578e-22 2.67381e-16 0 -3.53742e-26 0 5e-05 1.46608e-10 
199 1 0.383899 0.0194311 5.16383e-05 2.81059e-18 -1.48359e-20 -2.14593e-15 0 2.68597e-26 0 5e-05 1.46608e-10 
200 1 0.385014 0.0178743 5.30989e-05 1.79757e-18 -2.82406e-21 -1.37249e-15 -4.03897e-28 2.17016e-26 0 5e-05 1.46608e-10 
201 1 0.384311 0.0181229 5.21786e-05 -2.82432e-19 1.47797e-21 2.16017e-16 0 0 0 5e-05 1.46608e-10 
202 1 0.38375 0.0179324 0.000175661 -1.93049e-19 -1.27987e-19 1.29928e-21 5.16988e-26 0 0 5e-05 1.46608e-10 
203 1 0.384564 0.0165956 5.2509e-05 2.24033e-18 -1.96598e-21 -1.71052e-15 0 1.63084e-26 0 5e-05 1.46608e-10 
204 1 0.38396 0.0190065 5.17177e-05 2.81055e-18 -2.52471e-22 -2.14593e-15 0 1.6693e-27 0 5e-05 1.46608e-10 
206 1 0.384465 0.0168375 5.23795e-05 2.24036e-18 -1.23099e-20 -1.71052e-15 -4.03897e-28 9.21621e-26 0 5e-05 1.46608e-10 
207 1 0.385175 0.0175512 5.33093e-05 1.79764e-18 -1.67449e-20 -1.37251e-15 0 3.17603e-25 0 5e-05 1.46608e-10 
208 1 0.383584 0.0182412 5.12248e-05 1.40076e-21 2.7769e-21 2.29313e-20 -7.75482e-26 0 0 5e-05 1.46608e-10 
209 1 0.38493 0.0182425 5.29879e-05 3.50857e-19 2.35238e-21 -2.65995e-16 0 0 0 5e-05 1.46608e-10 
210 1 0.384351 0.0171769 5.22304e-05 2.24033e-18 1.78075e-20 -1.71051e-15 0 2.59681e-25 0 5e-05 1.46608e-10 
211 1 0.383783 0.0177617 5.14859e-05 -1.72718e-21 -1.07002e-21 -2.77106e-19 5.16988e-26 -2.58494e-26 0 5e-05 1.46608e-10 
212 1 0.384062 0.0199546 5.18516e-05 2.81056e-18 1.76323e-21 -2.14593e-15 0 -5.75124e-26 0 5e-05 1.46608e-10 
213 1 0.384476 0.0184173 5.2394e-05 1.79755e-18 2.66551e-21 -1.37249e-15 0 -7.79416e-27 0 5e-05 1.46608e-10 
214 1 0.38469 0.0169374 5.26743e-05 2.24034e-18 1.63685e-21 -1.71051e-15 0 8.08065e-27 0 5e-05 1.46608e-10 
215 1 0.384121 0.0182994 5.19287e-05 1.79756e-18 9.45261e-23 -1.37249e-15 0 4.58735e-27 0 5e-05 1.46608e-10 
216 1 0.384245 0.017708 5.20916e-05 2.24035e-18 1.08531e-20 -1.71052e-15 -4.03897e-28 -3.76546e-26 0 5e-05 1.46608e-10 
217 1 0.384064 0.0191417 5.1854e-05 -3.50195e-19 -1.44709e-22 2.67382e-16 0 7.11713e-28 0 5e-05 1.46608e-10 
218 1 0.384457 0.017909 5.23695e-05 1.79761e-18 -7.54478e-24 -1.37251e-15 0 6.11307e-28 0 5e-05 1.46608e-10 
219 1 0.384944 0.0197441 5.30067e-05 8.71335e-19 -1.08896e-22 -6.65297e-16 0 -3.28332e-27 0 5e-05 1.46608e-10 
220 1 0.383696 0.018399 5.13731e-05 -1.3611e-20 7.39773e-21 1.49945e-20 0 0 0 5e-05 1.46608e-10 
222 1 0.384799 0.0201778 5.28171e-05 8.7136e-19 -6.37886e-23 -6.65297e-16 0 -3.6951e-25 0 5e-05 1.46608e-10 
224 1 0.384494 0.0174269 5.24173e-05 2.24035e-18 -9.31711e-22 -1.71052e-15 0 1.95154e-26 0 5e-05 1.46608e-10 
225 1 0.385146 0.0176526 5.3272e-05 1.79761e-18 1.73671e-21 -1.37251e-15 0 -7.43791e-26 0 5e-05 1.46608e-10 
226 1 0.384104 0.018398 5.1907e-05 1.7976e-18 2.10972e-23 -1.37251e-15 0 3.56936e-29 0 5e-05 1.46608e-10 
227 1 0.383688 0.0179861 0.000118273 1.16282e-19 -3.46185e-19 2.6186e-19 0 0 0 5e-05 1.46608e-10 
228 1 0.383956 0.018209 5.17134e-05 1.79759e-18 -2.10424e-22 -1.37249e-15 0 1.20259e-25 0 5e-05 1.46608e-10 
229 1 0.383699 0.0187044 5.13766e-05 -6.90967e-19 5.45301e-23 5.27391e-16 0 0 0 5e-05 1.46608e-10 
230 1 0.384584 0.0183818 5.25351e-05 1.79762e-18 -8.44352e-23 -1.37251e-15 0 2.46263e-26 0 5e-05 1.46608e-10 
232 1 0.384362 0.0190848 5.22448e-05 -3.50181e-19 -4.82191e-22 2.67381e-16 0 -5.01609e-26 0 5e-05 1.46608e-10 
233 1 0.384256 0.0171177 5.21052e-05 1.98064e-22 8.30434e-21 6.29703e-19 -1.03398e-25 7.75482e-26 0 5e-05 1.46608e-10 
234 1 0.383811 0.0178578 5.15218e-05 1.28263e-20 -1.35636e-20 -2.71719e-19 0 0 0 5e-05 1.46608e-10 
235 1 0.384124 0.0177325 5.19334e-05 1.27658e-19 -3.09692e-21 -1.01971e-16 0 0 0 5e-05 1.46608e-10 
236 1 0.385085 0.017804 5.3192e-05 1.79757e-18 -5.66128e-22 -1.37249e-15 0 1.91182e-27 0 5e-05 1.46608e-10 
237 1 0.384023 0.0180557 5.18008e-05 1.79758e-18 1.03643e-22 -1.37249e-15 4.03897e-28 -4.50469e-27 0 5e-05 1.46608e-10 
239 1 0.38421 0.017017 0.000128507 1.06399e-18 -3.13027e-19 -6.24885e-19 2.58494e-26 4.52364e-26 0 5e-05 1.46608e-10 
240 1 0.384108 0.0176224 5.19122e-05 8.19428e-21 2.92213e-21 -4.53247e-19 -1.03398e-25 0 0 5e-05 1.46608e-10 
241 1 0.384924 0.0176585 5.29803e-05 1.79759e-18 5.34787e-21 -1.37251e-15 0 4.39267e-26 0 5e-05 1.46608e-10 
242 1 0.385388 0.0170488 5.35891e-05 1.45285e-18 -6.3661e-21 -1.10924e-15 0 -2.66586e-25 0 5e-05 1.46608e-10 
243 1 0.38396 0.0173391 5.17184e-05 2.24036e-18 4.01923e-22 -1.71052e-15 0 8.61017e-28 0 5e-05 1.46608e-10 
244 1 0.383851 0.0186443 5.15749e-05 -3.50221e-19 1.15777e-22 2.67382e-16 4.03897e-28 -5.03827e-28 0 5e-05 1.46608e-10 
246 1 0.385125 0.016896 5.32444e-05 2.24035e-18 -2.91286e-21 -1.71052e-15 -4.03897e-28 -1.15004e-26 0 5e-05 1.46608e-10 
248 1 0.383834 0.0184534 5.15531e-05 -3.50209e-19 2.38271e-21 2.67381e-16 0 2.41893e-26 0 5e-05 1.46608e-10 
249 1 0.386067 0.0153632 5.44775e-05 1.45286e-18 -6.69295e-22 -1.10923e-15 0 1.15236e-26 0 5e-05 1.46608e-10 
250 1 0.38333 0.0174226 0.00794883 -6.29504e-11 -0.0219496 0.0100551 6.91114e-20 9.10131e-12 1.99037e-11 5e-05 1.46608e-10 
251 1 0.384572 0.0174895 5.25197e-05 8.9212e-15 -2.50409e-15 1.20866e-15 5.76364e-20 -1.61618e-20 8.87151e-23 5e-05 1.46608e-10 
252 1 0.384889 0.0183235 9.50979e-05 3.41225e-19 9.15219e-21 -2.65991e-16 0 0 2.06795e-25 5e-05 1.46608e-10 
253 1 0.383571 0.018535 0.00522286 -7.98405e-15 2.5376e-14 1.31295e-13 7.23783e-25 3.10193e-25 -2.06795e-25 5e-05 1.46608e-10 
254 1 0.384301 0.0172952 5.21647e-05 2.24035e-18 -8.70671e-22 -1.71052e-15 0 2.70813e-26 0 5e-05 1.46608e-10 
255 1 0.38386 0.0190057 5.15867e-05 -3.5017e-19 -3.05416e-21 2.67381e-16 0 8.01459e-27 0 5e-05 1.46608e-10 
256 1 0.383997 0.0204249 5.17662e-05 8.71375e-19 1.54905e-21 -6.65297e-16 0 1.2075e-27 0 5e-05 1.46608e-10 
257 1 0.385041 0.0180031 5.31334e-05 -5.2893e-19 -5.33397e-22 4.04648e-16 2.58494e-26 -2.58494e-26 0 5e-05 1.46608e-10 
258 1 0.384272 0.0170005 5.21271e-05 9.22898e-21 -2.11995e-21 6.55633e-19 0 5.16988e-26 0 5e-05 1.46608e-10 
259 1 0.384253 0.0166268 5.21024e-05 -9.20572e-19 -9.8151e-22 7.02844e-16 0 -2.75894e-26 0 5e-05 1.46608e-10 
260 1 0.385186 0.0206932 5.33243e-05 -2.3121e-19 -5.41234e-21 1.76521e-16 0 4.93865e-25 0 5e-05 1.46608e-10 
261 1 0.38441 0.0181414 5.23073e-05 -2.94957e-19 6.70809e-21 2.16023e-16 0 0 0 5e-05 1.46608e-10 
262 1 0.383808 0.0179475 9.56896e-05 2.34803e-20 -5.44013e-20 -2.70986e-19 0 1.29247e-26 0 5e-05 1.46608e-10 
263 1 0.385136 0.0154015 5.32589e-05 1.45286e-18 1.01877e-20 -1.10923e-15 0 1.31816e-25 0 5e-05 1.46608e-10 
264 1 0.384094 0.0178206 8.84889e-05 1.38096e-19 -3.56423e-20 -1.01965e-16 0 0 0 5e-05 1.46608e-10 
265 1 0.383903 0.018864 5.16441e-05 2.81055e-18 4.23877e-24 -2.14593e-15 0 -8.34351e-30 0 5e-05 1.46608e-10 
266 1 0.384739 0.0172129 5.27388e-05 -9.20535e-19 -6.00385e-22 7.02843e-16 0 4.99937e-27 0 5e-05 1.46608e-10 
268 1 0.387501 0.0145625 5.63555e-05 -6.70179e-20 -1.56231e-21 5.11804e-17 0 -5.20387e-26 0 5e-05 1.46608e-10 
269 1 0.384702 0.0182078 5.26903e-05 -2.80691e-19 -9.74109e-21 2.1664e-16 2.58494e-26 0 0 5e-05 1.46608e-10 
270 1 0.383998 0.0187387 5.17683e-05 -9.74235e-20 1.35308e-21 7.49404e-17 0 0 0 5e-05 1.46608e-10 
271 1 0.38456 0.0198571 5.2504e-05 8.71344e-19 4.84695e-22 -6.65297e-16 0 -5.17983e-26 0 5e-05 1.46608e-10 
272 1 0.384323 0.0183113 0.000107218 7.82031e-20 1.50481e-20 -6.55706e-17 -5.16988e-26 -2.58494e-26 0 5e-05 1.46608e-10 
273 1 0.384247 0.0174825 5.20942e-05 -9.20525e-19 -5.14636e-23 7.02843e-16 0 2.25192e-26 0 5e-05 1.46608e-10 
274 1 0.38379 0.0183625 5.14951e-05 1.79759e-18 -3.48135e-23 -1.37251e-15 0 1.43781e-28 0 5e-05 1.46608e-10 
275 1 0.384335 0.0170692 8.94554e-05 9.04409e-21 2.51109e-20 6.48757e-19 5.16988e-26 2.58494e-26 0 5e-05 1.46608e-10 
276 1 0.384997 0.0161341 5.30769e-05 2.24031e-18 -4.25449e-20 -1.71052e-15 0 -5.44834e-25 0 5e-05 1.46608e-10 
278 1 0.384825 0.018259 5.28512e-05 3.46851e-19 8.56784e-23 -2.65994e-16 0 0 -2.06795e-25 5e-05 1.46608e-10 
279 1 0.384252 0.0210736 5.21011e-05 2.00506e-18 1.89239e-21 -1.5309e-15 0 2.42475e-26 0 5e-05 1.46608e-10 
280 1 0.383599 0.0190252 0.000120033 -7.01232e-21 1.39294e-21 1.27865e-23 0 -6.46235e-27 0 5e-05 1.46608e-10 
281 1 0.384805 0.0186896 5.28247e-05 1.79761e-18 -7.35314e-21 -1.37249e-15 0 2.35403e-25 0 5e-05 1.46608e-10 
283 1 0.383797 0.0177162 0.000219802 -2.95078e-19 -1.08817e-19 -3.57853e-21 0 2.58494e-26 -3.23117e-26 5e-05 1.46608e-10 
284 1 0.383576 0.0182495 0.000150621 1.30593e-20 6.96421e-21 -4.44982e-22 0 5.16988e-26 0 5e-05 1.46608e-10 
285 1 0.384577 0.0172681 5.25269e-05 2.24034e-18 -1.08095e-20 -1.71051e-15 0 1.92982e-26 0 5e-05 1.46608e-10 
286 1 0.383757 0.0185573 5.14518e-05 -3.50207e-19 4.18104e-22 2.67382e-16 0 -9.866e-28 0 5e-05 1.46608e-10 
287 1 0.384957 0.0177572 5.30246e-05 1.79761e-18 1.15109e-21 -1.37251e-15 0 -2.38385e-26 0 5e-05 1.46608e-10 
288 1 0.383954 0.0183132 5.17102e-05 1.79755e-18 -2.89452e-22 -1.37249e-15 0 -1.18205e-25 0 5e-05 1.46608e-10 
289 1 0.384537 0.0180461 0.000128511 -4.63305e-20 -2.65173e-21 2.16343e-16 0 1.9387e-26 0 5e-05 1.46608e-10 
290 1 0.384346 0.0178493 5.22233e-05 1.79756e-18 -1.09748e-21 -1.37249e-15 0 5.70863e-27 0 5e-05 1.46608e-10 
291 1 0.383806 0.0207438 5.15163e-05 2.00508e-18 -3.6109e-22 -1.5309e-15 0 -2.64228e-26 0 5e-05 1.46608e-10 
292 1 0.384812 0.0169702 5.28343e-05 2.24035e-18 -4.24843e-22 -1.71051e-15 0 2.90806e-28 0 5e-05 1.46608e-10 
293 1 0.383927 0.0199158 5.1675e-05 2.81055e-18 3.36979e-21 -2.14593e-15 0 -9.61142e-27 0 5e-05 1.46608e-10 
294 1 0.383957 0.0186367 5.17142e-05 2.81059e-18 -4.46903e-22 -2.14593e-15 0 1.19206e-27 0 5e-05 1.46608e-10 
295 1 0.384861 0.0185948 5.28981e-05 1.79756e-18 -1.9242e-21 -1.37249e-15 0 -2.15246e-26 0 5e-05 1.46608e-10 
296 1 0.385006 0.0184002 5.30883e-05 1.79756e-18 -6.52318e-23 -1.37249e-15 -4.03897e-28 -1.38856e-26 0 5e-05 1.46608e-10 
297 1 0.383629 0.01881 5.12843e-05 -6.92354e-19 2.39807e-21 5.27383e-16 -3.23117e-27 0 0 5e-05 1.46608e-10 
298 1 0.384024 0.0176603 8.98669e-05 1.33142e-20 2.90763e-20 -4.38883e-19 5.16988e-26 0 0 5e-05 1.46608e-10 
299 1 0.383643 0.018743 0.000124216 -7.0441e-19 -1.37301e-21 5.27393e-16 2.58494e-26 5.16988e-26 0 5e-05 1.46608e-10 
300 1 0.384681 0.0189793 5.2662e-05 -3.50195e-19 -5.33048e-22 2.67381e-16 0 4.66978e-26 0 5e-05 1.46608e-10 
