ITEM: TIMESTEP
13800000
ITEM: NUMBER OF ATOMS
287
ITEM: BOX BOUNDS ff ff ff
-0.02 0.43
-0.02 0.06
-0.02 0.07
ITEM: ATOMS id type x y z vx vy vz fx fy fz radius mass 
1 1 0.0932738 0.0163087 0.00792984 0.00608778 -5.38477e-05 -0.000195889 -2.52341e-10 4.39531e-10 6.06088e-10 5e-05 1.46608e-10 
2 1 0.0939201 0.0178935 0.00702585 0.00545396 0.000462695 5.00857e-05 3.34241e-10 2.52675e-10 -4.68817e-11 5e-05 1.46608e-10 
3 1 0.0871133 0.0160095 0.00806121 0.00604139 -0.000451446 0.000235045 6.75856e-11 2.44848e-10 -1.45134e-10 5e-05 1.46608e-10 
4 1 0.093599 0.0176178 0.00710158 0.00570483 0.00025531 9.32162e-05 1.0912e-11 -4.87315e-12 -1.22333e-11 5e-05 1.46608e-10 
5 1 0.0931345 0.0161161 0.00804742 0.00608712 0.000189566 0.000117304 -7.38991e-12 5.32784e-12 -6.14524e-13 5e-05 1.46608e-10 
6 1 0.0992892 0.0166683 0.00760744 0.00619025 -1.49228e-05 3.5058e-05 -5.14971e-13 6.5215e-12 -6.28564e-12 5e-05 1.46608e-10 
7 1 0.0933295 0.0168391 0.00754909 0.00612587 -7.60788e-05 -0.000209662 -2.21166e-10 4.84659e-12 -6.24468e-12 5e-05 1.46608e-10 
8 1 0.093033 0.0156973 0.0083022 0.00575576 0.000544464 -0.000118582 -3.36349e-11 -7.93349e-11 3.3593e-11 5e-05 1.46608e-10 
9 1 0.0995521 0.0177968 0.00708734 0.00560377 8.6914e-05 -3.00329e-05 -5.66775e-11 3.83578e-11 -1.35701e-11 5e-05 1.46608e-10 
10 1 0.0932646 0.0166019 0.00772094 0.0061241 -7.73109e-05 -0.000208738 -1.34821e-10 -7.0994e-11 5.28672e-11 5e-05 1.46608e-10 
11 1 0.0938311 0.0177286 0.00705973 0.00567465 0.000336263 8.59383e-05 -2.61909e-10 1.97466e-10 -1.01913e-10 5e-05 1.46608e-10 
12 1 0.0873038 0.0167239 0.00758954 0.00605894 -0.000379257 0.000423189 1.33277e-11 -8.92349e-11 4.2459e-11 5e-05 1.46608e-10 
13 1 0.0931127 0.0160327 0.0080981 0.00608644 0.000194533 0.000115121 -5.49717e-12 4.14445e-11 -2.30049e-11 5e-05 1.46608e-10 
14 1 0.0870316 0.0157547 0.00835856 0.00549683 -0.000381083 0.000177172 -8.77022e-11 1.26517e-10 -1.73708e-10 5e-05 1.46608e-10 
15 1 0.093489 0.0171009 0.00735557 0.00600144 -1.6916e-05 -0.000248148 -1.9476e-10 -1.06844e-10 8.87753e-11 5e-05 1.46608e-10 
16 1 0.0870119 0.0156909 0.00843301 0.00548351 -0.000388772 0.00018766 6.24886e-11 1.40888e-10 -1.53279e-10 5e-05 1.46608e-10 
17 1 0.0932429 0.0165229 0.00777823 0.00611112 -6.9652e-05 -0.000210713 2.89117e-12 -1.04315e-10 7.50719e-11 5e-05 1.46608e-10 
18 1 0.0994301 0.0172265 0.0072283 0.00579437 4.47155e-05 -1.99512e-05 1.31424e-10 2.79344e-11 -1.35603e-11 5e-05 1.46608e-10 
19 1 0.093091 0.0159493 0.00814879 0.00608735 0.000194113 0.000114985 1.04447e-11 3.67111e-11 -2.66998e-11 5e-05 1.46608e-10 
21 1 0.093252 0.0162271 0.00798338 0.00607561 0.000174525 0.000121895 -7.16721e-11 -3.98759e-11 2.66871e-12 5e-05 1.46608e-10 
22 1 0.0933728 0.0169972 0.00743453 0.00616123 -9.06005e-05 -0.000201015 -8.33642e-11 -8.90425e-12 7.07997e-12 5e-05 1.46608e-10 
23 1 0.0874434 0.0169367 0.0075092 0.00600185 -0.000386796 0.000423374 3.7845e-11 -2.97079e-10 6.31767e-11 5e-05 1.46608e-10 
24 1 0.0994916 0.0175115 0.00715785 0.00582413 4.3495e-05 -2.0134e-05 1.23074e-10 6.47395e-11 -1.61364e-11 5e-05 1.46608e-10 
25 1 0.0933078 0.01676 0.00760638 0.00613537 -8.20473e-05 -0.000206342 5.19878e-12 -5.60521e-11 4.57775e-11 5e-05 1.46608e-10 
26 1 0.0993722 0.0169663 0.00735388 0.00576546 4.83527e-05 -2.0417e-05 3.56342e-11 2.49101e-12 -1.31076e-12 5e-05 1.46608e-10 
27 1 0.0874855 0.0172917 0.00745518 0.00577892 -0.000386534 0.000485219 2.57945e-10 -6.25135e-10 5.71932e-11 5e-05 1.46608e-10 
28 1 0.0935831 0.0175164 0.00709961 0.00558591 0.000162025 0.000117405 1.94001e-10 1.2584e-10 -1.95542e-11 5e-05 1.46608e-10 
29 1 0.0930707 0.015865 0.00820004 0.00568662 0.000538697 -0.000113174 -2.49413e-12 -5.93947e-13 4.73342e-12 5e-05 1.46608e-10 
30 1 0.093545 0.0173414 0.00718174 0.00592514 1.70258e-05 -0.00030064 1.89004e-10 2.01517e-10 -2.81761e-10 5e-05 1.46608e-10 
31 1 0.0933511 0.0169181 0.00749181 0.00613967 -7.81122e-05 -0.000208987 -3.07041e-10 -5.45226e-13 6.78172e-11 5e-05 1.46608e-10 
32 1 0.0934686 0.0170207 0.00741365 0.00612546 -1.40436e-05 -0.000253142 -1.86589e-10 5.7534e-11 -3.26808e-11 5e-05 1.46608e-10 
33 1 0.0993105 0.0167427 0.00754413 0.00621425 -1.80694e-05 3.78363e-05 -2.40216e-14 8.56757e-12 -6.08896e-12 5e-05 1.46608e-10 
34 1 0.0932213 0.0164438 0.00783551 0.00610323 -6.56871e-05 -0.00021929 -2.50938e-11 -1.15135e-10 -6.14301e-11 5e-05 1.46608e-10 
35 1 0.093447 0.0169412 0.00747126 0.00618502 -2.8091e-05 -0.000245533 -2.56258e-10 -8.86888e-11 -2.04644e-11 5e-05 1.46608e-10 
36 1 0.0995916 0.0179871 0.00704029 0.00565081 8.1889e-05 -2.8735e-05 4.47333e-13 -2.17601e-11 5.68303e-12 5e-05 1.46608e-10 
37 1 0.093406 0.0167824 0.00758621 0.00611798 -7.54689e-05 -0.000209701 7.68742e-11 -1.34512e-10 8.24869e-11 5e-05 1.46608e-10 
38 1 0.0936235 0.0172375 0.00725242 0.00599824 6.86132e-05 -0.000308668 3.79475e-10 9.48663e-11 -3.55875e-11 5e-05 1.46608e-10 
39 1 0.0995121 0.0176065 0.00713436 0.00582767 4.22446e-05 -1.95695e-05 -1.52313e-10 -1.20674e-11 4.69594e-12 5e-05 1.46608e-10 
41 1 0.0931779 0.0162829 0.00794605 0.00608447 0.000175633 0.000122755 -5.77915e-11 -1.37205e-10 6.77401e-11 5e-05 1.46608e-10 
42 1 0.0933939 0.0170763 0.0073772 0.00605994 -7.59865e-05 -0.000209502 -5.80535e-11 4.98542e-12 -8.7822e-11 5e-05 1.46608e-10 
44 1 0.0936412 0.0173173 0.00719479 0.00595636 7.30352e-05 -0.000310456 2.58546e-10 1.82813e-10 -2.18417e-10 5e-05 1.46608e-10 
45 1 0.0993319 0.0168171 0.00748082 0.00623837 -2.11183e-05 4.05126e-05 -9.28979e-12 4.16037e-12 -5.60407e-12 5e-05 1.46608e-10 
46 1 0.0994096 0.0171315 0.00725179 0.00578287 4.777e-05 -2.07616e-05 -8.1306e-11 4.00271e-11 -9.71249e-12 5e-05 1.46608e-10 
47 1 0.0931996 0.0163647 0.0078928 0.0060793 -4.58113e-05 -0.000211304 1.11715e-10 -1.7812e-10 2.31972e-11 5e-05 1.46608e-10 
48 1 0.0934316 0.0172355 0.00726213 0.00591079 -3.98396e-05 -0.000243111 2.2148e-10 6.71205e-11 -3.94917e-11 5e-05 1.46608e-10 
49 1 0.0993897 0.0170413 0.00729006 0.00577083 4.88724e-05 -2.04516e-05 -8.87527e-12 2.9499e-11 -1.38163e-11 5e-05 1.46608e-10 
50 1 0.0934874 0.017484 0.00710411 0.00566016 0.000257211 0.00010563 3.49073e-11 2.10634e-10 -4.45876e-11 5e-05 1.46608e-10 
51 1 0.0934683 0.0173981 0.0071517 0.00587946 -4.81681e-06 -0.000260381 8.35083e-11 1.66566e-10 -9.37804e-11 5e-05 1.46608e-10 
52 1 0.0872823 0.0166331 0.00762552 0.006083 -0.000379636 0.000425759 7.37956e-11 -1.36924e-11 3.20303e-11 5e-05 1.46608e-10 
53 1 0.0994506 0.0173215 0.00720482 0.00579544 4.49248e-05 -1.97205e-05 -1.599e-11 -3.54389e-11 1.33726e-11 5e-05 1.46608e-10 
54 1 0.0932303 0.0161437 0.00803407 0.00608088 0.000185813 0.000120497 1.24988e-11 -3.8884e-11 3.18125e-11 5e-05 1.46608e-10 
55 1 0.0870728 0.015882 0.00820994 0.00586773 -0.000425829 0.000214728 -4.91414e-10 2.62704e-10 -2.51816e-10 5e-05 1.46608e-10 
56 1 0.0934251 0.0168619 0.00752869 0.00612331 -8.17822e-05 -0.000206087 -8.79002e-11 -1.51873e-10 9.74404e-11 5e-05 1.46608e-10 
57 1 0.0993533 0.0168915 0.00741751 0.00626304 -2.49595e-05 4.35943e-05 3.87623e-11 3.74065e-12 -2.03953e-12 5e-05 1.46608e-10 
59 1 0.0935441 0.0169199 0.00748222 0.00618406 3.33329e-05 -0.000288982 -5.75012e-11 -1.39771e-10 1.4251e-10 5e-05 1.46608e-10 
60 1 0.0935655 0.016999 0.00742492 0.00613147 4.86345e-05 -0.000297729 -3.50687e-10 -1.70306e-10 1.44026e-10 5e-05 1.46608e-10 
61 1 0.0931562 0.0161995 0.00799673 0.0060848 0.000183667 0.00012213 -1.06702e-12 -5.26765e-11 7.08929e-11 5e-05 1.46608e-10 
62 1 0.0936591 0.017397 0.00713718 0.00588487 9.397e-05 -0.000307255 1.45625e-10 -1.22197e-11 -2.69233e-10 5e-05 1.46608e-10 
63 1 0.093548 0.0175724 0.00717465 0.00573089 0.000216225 8.36011e-05 -5.68375e-11 4.46466e-11 -3.6182e-11 5e-05 1.46608e-10 
64 1 0.0994711 0.0174165 0.00718133 0.0058116 4.63523e-05 -2.06339e-05 -1.294e-10 2.70895e-11 4.58137e-12 5e-05 1.46608e-10 
65 1 0.0875449 0.0176324 0.00732425 0.005388 -0.000219221 0.000470056 4.93452e-11 3.98177e-11 3.16094e-10 5e-05 1.46608e-10 
66 1 0.0875813 0.0173217 0.00744726 0.00562544 -0.000257781 0.00045737 3.44771e-10 -1.20576e-10 -3.88596e-10 5e-05 1.46608e-10 
67 1 0.0938065 0.0176338 0.00707994 0.00573364 0.000325882 8.38911e-05 1.35314e-11 1.94087e-10 -1.04614e-10 5e-05 1.46608e-10 
68 1 0.0936919 0.0175834 0.00708786 0.00571423 0.000270617 0.000100201 6.96335e-11 1.73514e-11 4.12762e-11 5e-05 1.46608e-10 
69 1 0.093339 0.0165457 0.00775784 0.00612923 -0.000100262 -0.000195928 5.42566e-11 1.27473e-11 7.01905e-12 5e-05 1.46608e-10 
70 1 0.0995324 0.0177016 0.00711086 0.00558751 8.93222e-05 -3.07012e-05 1.22449e-10 7.32039e-12 -1.39502e-12 5e-05 1.46608e-10 
71 1 0.0870513 0.0158185 0.00828413 0.00563311 -0.000397126 0.000189208 -1.99062e-10 2.13942e-10 -1.97243e-10 5e-05 1.46608e-10 
72 1 0.093696 0.0174874 0.00711532 0.00575208 0.000224719 -2.68023e-05 7.99323e-11 -4.82882e-11 -1.97182e-10 5e-05 1.46608e-10 
73 1 0.0932862 0.016681 0.00766366 0.00613255 -8.35453e-05 -0.000203984 -2.77613e-11 -1.23747e-11 3.79653e-11 5e-05 1.46608e-10 
74 1 0.0935078 0.0171807 0.00729788 0.00592428 -2.68783e-05 -0.000240802 1.25048e-10 -7.17974e-11 -4.65336e-11 5e-05 1.46608e-10 
76 1 0.0875891 0.0175732 0.00725686 0.00513475 -0.000252992 0.000326828 -4.26815e-10 -2.63621e-10 8.29104e-11 5e-05 1.46608e-10 
77 1 0.0936891 0.0181526 0.00696235 0.00558162 0.000156392 0.000128234 1.50515e-10 -3.25638e-10 1.76084e-10 5e-05 1.46608e-10 
78 1 0.087134 0.0160731 0.00798692 0.00607707 -0.00046363 0.000253388 3.05832e-10 1.70613e-10 -2.54414e-11 5e-05 1.46608e-10 
79 1 0.0874497 0.0170294 0.00757205 0.00599357 -0.000319736 0.000430912 -1.30299e-10 7.186e-12 1.44266e-10 5e-05 1.46608e-10 
80 1 0.0935271 0.0176756 0.00706297 0.00569542 0.000256662 9.7431e-05 5.68505e-12 5.19124e-11 -2.07407e-11 5e-05 1.46608e-10 
81 1 0.0873608 0.0169821 0.00758033 0.00601811 -0.000358185 0.000422799 -3.18046e-11 1.82128e-12 2.56313e-10 5e-05 1.46608e-10 
82 1 0.087368 0.0169963 0.00748162 0.00598372 -0.000407944 0.00042725 -1.07503e-10 -4.85304e-10 1.61647e-10 5e-05 1.46608e-10 
83 1 0.087475 0.0166941 0.00760924 0.00607259 -0.000332751 0.000403958 8.80132e-11 8.84229e-11 -1.05898e-10 5e-05 1.46608e-10 
84 1 0.0995718 0.017892 0.00706381 0.00562749 8.39553e-05 -2.94273e-05 -1.7277e-11 2.54695e-12 6.53047e-12 5e-05 1.46608e-10 
85 1 0.0872511 0.0161519 0.00789062 0.0061083 -0.000483921 0.000271314 -7.87036e-11 1.85897e-11 2.44795e-12 5e-05 1.46608e-10 
86 1 0.0935629 0.0174215 0.00712384 0.00561523 6.00131e-05 -0.000291585 -2.87423e-10 1.92549e-10 8.05546e-12 5e-05 1.46608e-10 
87 1 0.0935223 0.0168409 0.00753949 0.00617082 3.71987e-05 -0.00029271 6.64304e-11 -2.60508e-10 2.01582e-10 5e-05 1.46608e-10 
88 1 0.0935834 0.0179475 0.00700462 0.00574798 0.000259888 9.91291e-05 -1.39361e-10 -2.39301e-10 3.8228e-12 5e-05 1.46608e-10 
89 1 0.0935469 0.0177714 0.00704241 0.00572271 0.000259116 9.88248e-05 7.9701e-11 9.53208e-11 2.7398e-11 5e-05 1.46608e-10 
90 1 0.0939282 0.0177665 0.00705408 0.00573347 0.000251508 0.000102491 -3.94737e-10 1.66539e-10 -7.90254e-11 5e-05 1.46608e-10 
91 1 0.0873252 0.0168147 0.00755357 0.00603875 -0.000378104 0.000422695 -6.86201e-11 -2.18292e-10 7.98063e-11 5e-05 1.46608e-10 
92 1 0.0937422 0.0177727 0.00704753 0.00566265 0.000320037 8.79508e-05 -4.83744e-11 -1.18989e-11 -3.36689e-15 5e-05 1.46608e-10 
93 1 0.0936583 0.0180022 0.00705666 0.00555057 0.000292482 8.7898e-05 -1.92462e-10 -6.56801e-12 2.05599e-10 5e-05 1.46608e-10 
94 1 0.0937967 0.0180889 0.00697938 0.00563616 0.000162157 0.000119857 -4.74373e-11 -1.44224e-10 7.04216e-11 5e-05 1.46608e-10 
95 1 0.0935318 0.017671 0.00716275 0.00566671 0.000228187 9.55726e-05 2.44143e-11 -1.50419e-11 2.98325e-11 5e-05 1.46608e-10 
96 1 0.0937595 0.017869 0.0070268 0.00575287 0.000303527 9.39166e-05 -2.54342e-10 -4.87467e-11 7.77707e-11 5e-05 1.46608e-10 
97 1 0.0872395 0.0164515 0.00769747 0.00611439 -0.000376941 0.000420312 -8.4211e-11 -1.28358e-10 7.08111e-11 5e-05 1.46608e-10 
98 1 0.0936032 0.0180433 0.00698405 0.00559148 0.000287887 8.66823e-05 -9.04739e-11 -3.21175e-10 6.68548e-11 5e-05 1.46608e-10 
99 1 0.0875899 0.0174406 0.00740557 0.00546866 0.000132768 6.46011e-05 2.33137e-10 -1.3523e-10 5.47271e-10 5e-05 1.46608e-10 
100 1 0.0937479 0.0173577 0.00716143 0.00588942 0.000150262 -9.32899e-05 2.06986e-10 2.26829e-12 -2.19952e-10 5e-05 1.46608e-10 
101 1 0.0873632 0.0168875 0.00761454 0.00604948 -0.000326119 0.000420846 4.15341e-11 -2.37802e-10 1.14186e-10 5e-05 1.46608e-10 
102 1 0.0643568 0.0187248 0.00531097 4.19593e-15 1.05351e-14 8.29591e-14 1.21903e-21 -3.31674e-22 -1.59232e-23 5e-05 1.46608e-10 
103 1 0.24257 0.0191927 0.00520306 3.10422e-23 -3.03968e-22 -5.81428e-22 0 0 0 5e-05 1.46608e-10 
104 1 0.087603 0.0172397 0.00739307 0.00579578 -0.000379528 0.000408678 8.1146e-10 3.70505e-12 4.20208e-11 5e-05 1.46608e-10 
105 1 0.0871967 0.0162698 0.00776942 0.00616473 -0.000353299 0.00041115 2.70584e-11 8.08408e-11 1.34022e-10 5e-05 1.46608e-10 
106 1 0.0876777 0.0171793 0.00742095 0.0058005 -0.000442936 0.000437862 1.24613e-09 -1.00077e-10 6.08281e-11 5e-05 1.46608e-10 
107 1 0.0871548 0.0161371 0.00791297 0.006102 -0.000448908 0.0002807 -5.79633e-11 1.06077e-10 -3.65904e-11 5e-05 1.46608e-10 
108 1 0.0933819 0.0167038 0.00764323 0.00609499 -9.06636e-05 -0.000198094 2.12458e-10 2.53254e-11 -3.0839e-11 5e-05 1.46608e-10 
109 1 0.0934509 0.017316 0.00720612 0.00590081 -4.72625e-05 -0.000292294 4.0862e-10 -1.34925e-10 -3.51469e-10 5e-05 1.46608e-10 
110 1 0.0938333 0.0183047 0.00693283 0.00564748 0.000175561 0.000118408 -2.32819e-10 -3.87198e-11 1.07755e-11 5e-05 1.46608e-10 
111 1 0.0936791 0.0182988 0.00701321 0.00560299 0.00016628 0.000107409 -2.23062e-10 5.91393e-10 -3.89996e-11 5e-05 1.46608e-10 
112 1 0.0872609 0.0165423 0.0076615 0.00610755 -0.000376557 0.000427004 -1.68144e-11 -1.01444e-10 7.46625e-12 5e-05 1.46608e-10 
113 1 0.0878749 0.0180796 0.00702596 0.00638969 0.000483765 -0.000590517 1.41869e-10 -3.17912e-10 1.47274e-10 5e-05 1.46608e-10 
114 1 0.0877337 0.0175574 0.00737089 0.00583115 -0.000235026 0.000337682 7.81943e-12 7.88396e-11 5.00384e-11 5e-05 1.46608e-10 
115 1 0.0935265 0.0172603 0.00724033 0.00589154 -2.67578e-05 -0.000238048 1.94263e-10 -6.33588e-11 -2.2908e-10 5e-05 1.46608e-10 
116 1 0.0933603 0.0166248 0.00770052 0.00612454 -9.42161e-05 -0.000196813 3.122e-11 2.80038e-11 -4.76999e-11 5e-05 1.46608e-10 
117 1 0.0932086 0.0160603 0.00808476 0.00608336 0.000191148 0.000116741 -1.52639e-11 -3.85921e-14 -1.42029e-11 5e-05 1.46608e-10 
118 1 0.0870926 0.0159458 0.00813551 0.00600276 -0.000438404 0.000224882 -3.6293e-10 9.48283e-11 -1.35996e-10 5e-05 1.46608e-10 
119 1 0.0935857 0.0170784 0.00736749 0.00602816 7.03473e-05 -0.000308567 -5.82572e-11 -2.13181e-10 1.46992e-10 5e-05 1.46608e-10 
120 1 0.0930518 0.0157811 0.00825112 0.00572087 0.000540776 -0.000112816 3.54827e-11 -4.34544e-11 1.81535e-11 5e-05 1.46608e-10 
121 1 0.0930134 0.015624 0.00836739 0.00578769 0.000125164 -0.000596969 -1.19491e-11 -3.44025e-11 7.45923e-11 5e-05 1.46608e-10 
122 1 0.093758 0.0183685 0.00691668 0.00564752 0.000175612 0.00011855 -4.67668e-11 6.38864e-11 -2.46154e-11 5e-05 1.46608e-10 
123 1 0.0872958 0.0163055 0.00777176 0.00612378 -0.000416023 0.000373471 1.7962e-10 1.51024e-10 2.33929e-10 5e-05 1.46608e-10 
124 1 0.093642 0.0178022 0.00703826 0.00572137 0.000280487 9.63382e-05 4.63511e-11 7.85551e-12 -5.33767e-11 5e-05 1.46608e-10 
125 1 0.0931868 0.0159769 0.00813544 0.00607741 0.000196012 0.000113674 -4.37877e-11 4.18048e-11 -1.88304e-11 5e-05 1.46608e-10 
126 1 0.0934134 0.0171558 0.00731971 0.00595449 -5.63733e-05 -0.000217954 1.03589e-11 8.45722e-11 -2.73805e-12 5e-05 1.46608e-10 
127 1 0.0872183 0.0163607 0.0077336 0.00614588 -0.000360134 0.000408244 -5.18515e-12 8.36226e-11 2.96746e-10 5e-05 1.46608e-10 
128 1 0.0935073 0.0175798 0.00708356 0.00567389 0.000259975 0.000107399 1.28435e-10 1.09258e-10 -1.2666e-10 5e-05 1.46608e-10 
129 1 0.0935695 0.0178668 0.00706209 0.00570384 0.00026637 0.000110272 -1.33834e-10 -4.14848e-11 1.72667e-10 5e-05 1.46608e-10 
130 1 0.0874648 0.0170275 0.00747322 0.00597024 -0.000407078 0.000431543 -1.2959e-11 -2.20677e-10 7.50233e-11 5e-05 1.46608e-10 
131 1 0.0876834 0.0174746 0.00739581 0.00558651 -0.00018147 8.94047e-05 -1.04204e-10 1.00756e-10 2.8632e-10 5e-05 1.46608e-10 
132 1 0.0936221 0.0177064 0.00705883 0.00569362 0.000276161 9.85412e-05 1.3084e-11 -6.79134e-11 1.36989e-11 5e-05 1.46608e-10 
133 1 0.0934361 0.0165246 0.00776863 0.00620738 0.000146225 -0.000370857 1.81451e-10 1.2884e-10 -1.49727e-10 5e-05 1.46608e-10 
134 1 0.0936045 0.0171579 0.00730994 0.00598211 7.63596e-05 -0.00031121 2.37602e-10 -8.13969e-11 6.83076e-11 5e-05 1.46608e-10 
135 1 0.0931656 0.0158934 0.00818619 0.00579715 0.000248303 7.00786e-05 3.01074e-11 1.22186e-11 -7.61976e-12 5e-05 1.46608e-10 
136 1 0.0872304 0.0160882 0.00796494 0.00604989 -0.000470273 0.000263565 -5.31251e-11 4.9642e-11 -1.26093e-11 5e-05 1.46608e-10 
137 1 0.0936619 0.0183347 0.00692146 0.00564279 0.000194277 0.000113804 3.32717e-11 -8.46486e-11 -2.21186e-11 5e-05 1.46608e-10 
138 1 0.0933189 0.0164666 0.00781564 0.00612269 -9.52108e-05 -0.000195616 1.89581e-12 -5.13169e-12 2.95865e-11 5e-05 1.46608e-10 
140 1 0.0937836 0.0181856 0.0069577 0.00562684 0.000171127 0.000117149 -3.20044e-10 -4.34176e-12 2.59671e-11 5e-05 1.46608e-10 
141 1 0.0872737 0.0162237 0.00782485 0.00612225 -0.000466485 0.000296214 1.68249e-10 2.50834e-11 6.99342e-11 5e-05 1.46608e-10 
142 1 0.0875609 0.0170579 0.00746511 0.00594523 -0.000387999 0.000422905 1.64931e-10 -1.3759e-10 8.28189e-11 5e-05 1.46608e-10 
143 1 0.0871763 0.0162016 0.00783966 0.00614404 -0.00037866 0.000360028 5.07933e-11 2.63455e-10 2.05803e-10 5e-05 1.46608e-10 
144 1 0.0877382 0.0176833 0.00721869 0.000444495 0.00277344 -0.00110824 -1.52932e-10 -1.1031e-10 3.80516e-11 5e-05 1.46608e-10 
146 1 0.0875711 0.0167249 0.007601 0.00606644 -0.000324095 0.000400659 1.27999e-10 -1.1521e-10 6.61304e-11 5e-05 1.46608e-10 
147 1 0.0872097 0.0160246 0.00803921 0.00602972 -0.00046644 0.00025186 2.07167e-10 -2.2298e-12 7.66804e-11 5e-05 1.46608e-10 
148 1 0.0874323 0.0172689 0.00737362 0.00586114 -0.000562553 0.000486202 -3.16243e-11 -1.39543e-10 5.7274e-11 5e-05 1.46608e-10 
149 1 0.0936426 0.0182388 0.00694206 0.00564144 0.000205494 0.000113175 3.01974e-12 -6.81553e-11 -1.68201e-11 5e-05 1.46608e-10 
150 1 0.0873792 0.0166643 0.00761713 0.00607137 -0.000360895 0.000415701 1.91233e-10 9.42744e-12 5.81076e-11 5e-05 1.46608e-10 
151 1 0.0877725 0.0172099 0.00741272 0.00574199 -0.000301156 0.000377683 1.76804e-09 -1.13149e-10 1.36648e-10 5e-05 1.46608e-10 
153 1 0.0873364 0.0164826 0.00768909 0.00609161 -0.000372661 0.000419352 -2.03399e-10 4.77855e-11 -1.17507e-10 5e-05 1.46608e-10 
154 1 0.0875284 0.0173001 0.00736521 0.00567777 -0.000414336 0.000426297 4.61002e-10 1.33775e-10 -8.82693e-11 5e-05 1.46608e-10 
155 1 0.0876093 0.0176642 0.00722073 0.00569536 -0.000339705 0.000388553 -1.51382e-10 -3.0149e-10 4.91636e-11 5e-05 1.46608e-10 
156 1 0.0875076 0.0172092 0.00740126 0.00588193 -0.000458651 0.000450447 1.70521e-10 -1.41578e-10 -4.43984e-11 5e-05 1.46608e-10 
157 1 0.0219312 0.0187687 0.00551176 -3.82627e-14 8.16994e-14 2.95888e-13 -9.72739e-22 -2.76899e-22 -6.10046e-23 5e-05 1.46608e-10 
158 1 0.0876232 0.0173307 0.00735695 0.00552628 -0.000337671 0.00038496 2.00586e-09 -9.7468e-11 4.03368e-11 5e-05 1.46608e-10 
159 1 0.0937176 0.0176779 0.00706775 0.00570903 0.000291764 9.47153e-05 -2.39427e-11 -7.98276e-11 -8.53626e-13 5e-05 1.46608e-10 
160 1 0.0875138 0.017633 0.00722919 0.00561947 -0.000386918 0.000404362 -1.34846e-10 -5.18009e-10 1.96824e-10 5e-05 1.46608e-10 
162 1 0.0875486 0.0173911 0.00732909 0.00553593 -0.00037771 0.000389235 9.15821e-10 -3.96842e-10 3.22453e-10 5e-05 1.46608e-10 
164 1 0.0876856 0.0180235 0.00706446 0.00528841 -0.000465356 -4.90352e-05 -3.30028e-10 3.0435e-10 2.25656e-10 5e-05 1.46608e-10 
165 1 0.0878365 0.0174865 0.00730305 0.00593917 -5.52264e-05 0.000283522 -4.72801e-10 3.40531e-10 -1.95897e-10 5e-05 1.46608e-10 
166 1 0.0933925 0.0163666 0.00788315 0.00614492 0.00012679 -0.000352615 -9.47754e-11 2.44659e-10 -1.56567e-11 5e-05 1.46608e-10 
167 1 0.0873577 0.0165735 0.0076531 0.00609469 -0.000363176 0.000418582 8.80402e-11 -2.32762e-11 4.31298e-11 5e-05 1.46608e-10 
168 1 0.0876979 0.0172703 0.00738482 0.00544406 -0.000383705 0.000393789 1.82361e-09 -1.10134e-09 6.75002e-10 5e-05 1.46608e-10 
169 1 0.0878563 0.0179917 0.00707002 0.00597941 0.000365366 -0.000511461 3.48923e-10 -6.57875e-10 3.72371e-10 5e-05 1.46608e-10 
170 1 0.0877385 0.0174524 0.00731257 0.0051593 -0.000222326 0.000319038 -2.40458e-11 -1.32229e-10 9.87809e-11 5e-05 1.46608e-10 
171 1 0.0934161 0.0164453 0.00782607 0.00618617 0.000119708 -0.000353867 7.97053e-11 1.99773e-10 -1.5173e-10 5e-05 1.46608e-10 
172 1 0.0878131 0.017392 0.00734045 0.00517262 -0.000188555 0.000305522 -1.75234e-10 -4.84711e-11 7.41909e-12 5e-05 1.46608e-10 
173 1 0.0938311 0.0179376 0.00701368 0.00552946 0.000489144 4.34677e-05 -2.83084e-11 -5.71253e-10 1.00765e-10 5e-05 1.46608e-10 
174 1 0.0876638 0.0175128 0.00728472 0.00514605 -0.000265324 0.000336758 -6.52112e-12 -2.90187e-11 -3.00881e-11 5e-05 1.46608e-10 
175 1 0.0814617 0.0173996 0.00731747 0.0057353 0.000274081 0.000238205 5.17455e-12 8.12423e-12 -3.82169e-12 5e-05 1.46608e-10 
176 1 0.0874863 0.0171183 0.00743725 0.00593393 -0.000430385 0.000439835 6.93644e-11 -2.06794e-10 1.17606e-10 5e-05 1.46608e-10 
177 1 0.0875535 0.0178152 0.00715687 0.00545223 -0.000328761 0.000374584 -3.24442e-10 1.49001e-10 2.01809e-10 5e-05 1.46608e-10 
178 1 0.0878916 0.0181695 0.00698102 0.00399252 0.00391381 -0.00213689 -3.65788e-10 1.44556e-10 -5.2441e-11 5e-05 1.46608e-10 
179 1 0.0878365 0.0178411 0.00714482 0.00599778 0.000272793 -0.000562232 -9.77152e-11 4.68617e-11 -1.39344e-09 5e-05 1.46608e-10 
181 1 0.0874734 0.0174509 0.00730143 0.00552296 -0.000439317 0.000411213 1.72361e-10 -1.08231e-09 3.05936e-10 5e-05 1.46608e-10 
182 1 0.0932954 0.0163876 0.00787236 0.00609212 -7.60581e-05 -0.000206829 -1.3404e-11 -4.5423e-11 -5.13e-11 5e-05 1.46608e-10 
183 1 0.0877183 0.0173614 0.0073487 0.00526513 -0.000282444 0.000351313 4.22503e-10 -3.07977e-10 2.93929e-10 5e-05 1.46608e-10 
184 1 0.0936921 0.0178131 0.00712413 0.00569425 0.000330044 0.00010838 -1.17773e-10 1.46926e-10 -2.40561e-11 5e-05 1.46608e-10 
185 1 0.0874109 0.0171779 0.00740966 0.00593117 -0.000436299 0.000440283 6.4498e-11 -7.32215e-11 5.98891e-11 5e-05 1.46608e-10 
186 1 0.0874531 0.0173599 0.00733756 0.00557658 -0.000445371 0.000434429 1.72529e-10 6.51974e-10 -3.02751e-10 5e-05 1.46608e-10 
187 1 0.0937299 0.017278 0.00721899 0.00593101 2.85125e-05 -0.000235116 4.40825e-10 9.32952e-12 -8.95707e-11 5e-05 1.46608e-10 
188 1 0.0937025 0.0180557 0.00698406 0.00560122 0.000238127 0.000103521 5.18488e-11 -3.17652e-10 1.17141e-10 5e-05 1.46608e-10 
189 1 0.0937848 0.0174417 0.00712167 0.00578225 0.000303964 0.000103549 9.17434e-11 1.71714e-10 -3.71283e-11 5e-05 1.46608e-10 
190 1 0.0815772 0.0175199 0.00726707 0.00577518 0.000248084 0.000253107 -2.44464e-11 -3.54113e-11 1.55089e-11 5e-05 1.46608e-10 
191 1 0.0936812 0.0184306 0.00690085 0.00565495 0.000179004 0.000117901 -1.37761e-10 -1.26716e-10 1.5603e-11 5e-05 1.46608e-10 
192 1 0.0876355 0.0169974 0.00749304 0.00596656 -0.000345735 0.000404484 2.73211e-10 -1.08895e-10 6.37554e-11 5e-05 1.46608e-10 
193 1 0.0935033 0.0167613 0.00759702 0.00603039 6.15576e-05 -0.000303593 5.22646e-10 -3.9605e-10 2.54603e-10 5e-05 1.46608e-10 
194 1 0.0874967 0.0167855 0.00757304 0.00604265 -0.000353612 0.000412235 -1.36611e-11 -2.2771e-10 4.4616e-11 5e-05 1.46608e-10 
195 1 0.0879249 0.0177973 0.00716133 0.00655354 0.00120928 -0.000978457 -6.91171e-10 5.73368e-10 2.43144e-10 5e-05 1.46608e-10 
196 1 0.0869923 0.0156271 0.00850745 0.00548068 -0.000395632 0.000195482 3.73217e-11 1.09361e-10 -1.26203e-10 5e-05 1.46608e-10 
197 1 0.0815216 0.017666 0.00719326 0.00558219 0.000293635 0.000218713 1.88378e-13 7.88715e-13 -1.82611e-13 5e-05 1.46608e-10 
198 1 0.0874018 0.0171348 0.00753267 0.00590358 -0.000428634 0.000448589 -1.9015e-10 -2.68641e-10 7.05571e-11 5e-05 1.46608e-10 
199 1 0.0875689 0.0174821 0.00729298 0.00524725 -0.000267607 0.000349906 -2.46604e-10 -8.76861e-11 8.80513e-11 5e-05 1.46608e-10 
200 1 0.0873466 0.0169055 0.00751759 0.00601313 -0.000384152 0.000422751 -7.91833e-11 -3.272e-10 1.30246e-10 5e-05 1.46608e-10 
201 1 0.0878374 0.0182573 0.00694108 0.00558196 -0.000512627 -4.7592e-05 1.21224e-10 1.70132e-10 1.0513e-10 5e-05 1.46608e-10 
202 1 0.0876569 0.0170883 0.00745701 0.00588163 -0.000341591 0.000398253 -1.30208e-10 -3.99589e-10 1.49814e-10 5e-05 1.46608e-10 
203 1 0.0937808 0.0175393 0.00710006 0.00576296 0.000316055 8.76582e-05 1.51919e-11 1.71576e-10 -4.2265e-12 5e-05 1.46608e-10 
204 1 0.087422 0.0168459 0.00754517 0.00602293 -0.000370593 0.00041704 -2.42416e-11 -2.08434e-10 1.55311e-10 5e-05 1.46608e-10 
205 1 0.0876483 0.017846 0.00714855 0.00543657 -0.000283802 0.000356491 -2.84067e-10 9.81037e-11 1.51119e-10 5e-05 1.46608e-10 
206 1 0.0876844 0.0176045 0.00724872 0.0057417 -0.000270292 0.000357766 2.18885e-12 1.37578e-10 -7.95104e-11 5e-05 1.46608e-10 
207 1 0.0873149 0.0163918 0.00772505 0.00609021 -0.000379852 0.000416665 1.73391e-10 1.22268e-10 1.20171e-10 5e-05 1.46608e-10 
208 1 0.0876436 0.0174217 0.00732084 0.00522951 -0.000290181 0.000361827 4.1075e-11 2.59781e-10 4.95805e-11 5e-05 1.46608e-10 
209 1 0.0874008 0.016755 0.00758118 0.00604688 -0.000360079 0.000418664 4.29163e-11 -4.67193e-11 4.99363e-11 5e-05 1.46608e-10 
210 1 0.0934756 0.0173194 0.00730296 0.00585975 6.74025e-05 -0.000304588 1.20456e-10 -1.07794e-10 -3.23185e-10 5e-05 1.46608e-10 
211 1 0.0937349 0.0179635 0.00700529 0.00549965 0.000279123 8.53651e-05 -2.03955e-10 8.12361e-10 -2.69129e-10 5e-05 1.46608e-10 
212 1 0.0877612 0.0175463 0.00727542 0.00581281 -0.000181105 0.000326354 -3.34918e-10 1.44238e-10 -7.08756e-11 5e-05 1.46608e-10 
213 1 0.0937122 0.0171982 0.00727662 0.00596054 -2.47632e-07 -0.000259143 4.29442e-10 1.55561e-11 -1.3178e-11 5e-05 1.46608e-10 
214 1 0.0936649 0.0178996 0.00703731 0.00574766 0.000267591 9.18837e-05 -1.83355e-10 -7.08943e-11 1.29358e-10 5e-05 1.46608e-10 
215 1 0.081537 0.0173423 0.00734986 0.00574036 0.000279914 0.000235644 -3.92196e-12 3.58982e-12 -2.03154e-12 5e-05 1.46608e-10 
216 1 0.0875341 0.017724 0.00719308 0.005652 -0.000380003 0.000404391 -6.93108e-11 -1.82047e-10 4.99158e-11 5e-05 1.46608e-10 
217 1 0.0934574 0.0166038 0.00771131 0.00619833 0.000149339 -0.000372745 1.71195e-10 -3.63367e-10 2.5971e-10 5e-05 1.46608e-10 
218 1 0.0875917 0.0178781 0.00722452 0.00528592 -4.21009e-05 0.000231742 2.56243e-10 -1.29914e-10 2.3383e-10 5e-05 1.46608e-10 
219 1 0.0936201 0.0181299 0.00703106 0.00542332 0.000342348 2.643e-05 -6.12386e-11 -4.82363e-10 -1.11919e-10 5e-05 1.46608e-10 
220 1 0.0874936 0.017542 0.00726531 0.0056108 -0.000401723 0.000403938 6.0036e-11 -6.69404e-10 2.35587e-10 5e-05 1.46608e-10 
221 1 0.0814746 0.0170762 0.00747376 0.00605321 0.00021019 0.000289275 -2.51104e-11 -9.19733e-12 2.76959e-12 5e-05 1.46608e-10 
222 1 0.0934791 0.0166828 0.00765403 0.00612267 5.48213e-05 -0.000302574 -2.99385e-10 5.81205e-11 -2.54746e-11 5e-05 1.46608e-10 
223 1 0.0875823 0.0171488 0.00742912 0.00589913 -0.000385294 0.000419621 2.39929e-10 -1.21922e-10 1.34965e-10 5e-05 1.46608e-10 
224 1 0.0873895 0.0170871 0.00744564 0.00594875 -0.000439261 0.000441805 -7.23117e-11 -2.47441e-10 7.97085e-11 5e-05 1.46608e-10 
225 1 0.0937005 0.0185266 0.00688025 0.00565737 0.000127229 0.000128785 1.13173e-10 6.99134e-10 -1.67181e-10 5e-05 1.46608e-10 
226 1 0.0877928 0.0173009 0.00737661 0.00531611 -0.000239629 0.00033159 1.37059e-09 -1.58315e-10 1.46677e-10 5e-05 1.46608e-10 
227 1 0.081597 0.0176088 0.0072256 0.0055842 0.000296101 0.000217733 3.50395e-11 3.80586e-11 -1.61611e-11 5e-05 1.46608e-10 
228 1 0.0814818 0.0174883 0.00727608 0.00575995 0.000266692 0.00024313 -7.19597e-12 -7.48288e-12 2.36298e-12 5e-05 1.46608e-10 
229 1 0.0875183 0.017534 0.00736189 0.00541001 -0.000201612 0.000433049 -1.62252e-10 -3.51809e-12 1.47337e-10 5e-05 1.46608e-10 
230 1 0.087818 0.0183458 0.00689883 0.00548621 -0.000512607 -8.23624e-05 -1.06351e-10 1.01077e-11 -1.35492e-11 5e-05 1.46608e-10 
231 1 0.0814416 0.0173108 0.00735886 0.00570537 0.000277207 0.000234512 5.61295e-12 1.53299e-11 -7.06007e-12 5e-05 1.46608e-10 
232 1 0.0874533 0.0166033 0.00764519 0.00608608 -0.00034044 0.000406525 1.5855e-10 2.49576e-11 -1.76333e-12 5e-05 1.46608e-10 
233 1 0.0875395 0.0169671 0.00750109 0.00599358 -0.000378127 0.000418639 7.48342e-11 -1.5592e-10 4.77834e-11 5e-05 1.46608e-10 
234 1 0.0937387 0.0182726 0.00693728 0.00562511 0.000180136 0.000116613 -1.28641e-10 -3.19038e-13 4.8699e-11 5e-05 1.46608e-10 
235 1 0.0877963 0.0185678 0.00690289 0.00552552 -0.000509484 0.0002544 1.54374e-10 2.83722e-11 3.6024e-12 5e-05 1.46608e-10 
236 1 0.0878668 0.0184325 0.00688875 0.00559559 -0.000511752 0.000250459 -2.00035e-10 -5.99735e-11 -3.51224e-11 5e-05 1.46608e-10 
237 1 0.0878885 0.0185291 0.00690302 0.00551152 -0.000474692 0.000253989 -9.93971e-11 -1.2887e-10 5.75003e-11 5e-05 1.46608e-10 
239 1 0.0812485 0.0165137 0.00772956 0.00617091 0.000183236 0.000309777 -9.46543e-12 2.60111e-12 -1.21922e-12 5e-05 1.46608e-10 
240 1 0.0813132 0.0167794 0.00760603 0.00612133 0.000196205 0.00030043 1.2268e-11 1.03116e-11 -4.06373e-12 5e-05 1.46608e-10 
241 1 0.0812269 0.0164252 0.00777073 0.0061857 0.000180027 0.000312423 5.29322e-12 -4.93878e-11 2.31751e-11 5e-05 1.46608e-10 
242 1 0.0875181 0.0168763 0.00753706 0.00601837 -0.000364503 0.000415003 -2.03967e-11 -1.84494e-10 1.23935e-10 5e-05 1.46608e-10 
243 1 0.0874643 0.0172008 0.00749103 0.00588355 -0.000418265 0.000450072 4.04081e-11 -5.30128e-10 1.64017e-10 5e-05 1.46608e-10 
244 1 0.08127 0.0166023 0.00768838 0.00615399 0.00018816 0.000306313 -1.0891e-11 1.53493e-12 -1.23321e-12 5e-05 1.46608e-10 
246 1 0.0813994 0.0171335 0.00744134 0.00605465 0.000211209 0.000288842 2.50934e-12 1.74671e-11 -8.46196e-12 5e-05 1.46608e-10 