ITEM: TIMESTEP
19800000
ITEM: NUMBER OF ATOMS
287
ITEM: BOX BOUNDS ff ff ff
-0.02 0.43
-0.02 0.06
-0.02 0.07
ITEM: ATOMS id type x y z vx vy vz fx fy fz radius mass 
1 1 0.128197 0.0160649 0.00817234 0.00521385 -0.000752535 0.00118905 9.4955e-10 -5.75849e-10 5.83666e-10 5e-05 1.46608e-10 
2 1 0.128797 0.0177423 0.00728271 0.00569368 -0.00105534 0.000929908 -1.79596e-10 -4.8928e-11 -3.04291e-11 5e-05 1.46608e-10 
3 1 0.122409 0.0170737 0.00738361 0.00560186 0.000366587 -0.000131471 1.13743e-10 -3.33626e-10 -1.14077e-10 5e-05 1.46608e-10 
4 1 0.128506 0.0172857 0.00721275 0.00555435 -0.00119551 0.000792771 -2.40264e-10 6.82724e-11 -3.40297e-10 5e-05 1.46608e-10 
5 1 0.12806 0.0158904 0.00831942 0.0055873 -0.000721201 0.00120248 5.44304e-10 6.39936e-11 5.53368e-12 5e-05 1.46608e-10 
6 1 0.134134 0.0160695 0.00793815 0.00583155 0.000640589 -0.000709349 1.33457e-12 2.68704e-13 -2.44125e-13 5e-05 1.46608e-10 
7 1 0.128238 0.0165487 0.00773224 0.00522368 -0.000821419 0.00126278 7.87874e-11 2.66751e-10 -1.57366e-10 5e-05 1.46608e-10 
8 1 0.127954 0.0155254 0.00864428 0.0058633 -0.000651701 0.00116285 3.14114e-10 8.72147e-10 -7.71872e-10 5e-05 1.46608e-10 
9 1 0.134405 0.0172971 0.00749709 0.00570638 -9.58315e-05 -0.000125666 8.69003e-13 -7.01103e-13 9.5941e-13 5e-05 1.46608e-10 
10 1 0.128181 0.016329 0.0079284 0.0052404 -0.00082594 0.00125803 1.05832e-10 -1.05319e-10 1.3376e-10 5e-05 1.46608e-10 
11 1 0.128752 0.0175418 0.00725487 0.00581698 -0.00129391 0.00093319 1.41676e-10 -3.54869e-10 -2.59357e-11 5e-05 1.46608e-10 
12 1 0.122258 0.0165744 0.00756757 0.00569245 0.000351415 -4.85878e-05 -4.27441e-11 -7.5611e-11 4.20444e-11 5e-05 1.46608e-10 
13 1 0.128039 0.0158174 0.0083844 0.00570412 -0.000746723 0.00123437 3.2817e-10 1.10671e-11 1.57565e-11 5e-05 1.46608e-10 
14 1 0.122027 0.0157635 0.00841267 0.00571156 2.81348e-05 -0.000410409 1.61346e-10 8.15469e-11 -1.04104e-10 5e-05 1.46608e-10 
15 1 0.128391 0.0167968 0.00751915 0.00526512 -0.000787678 0.00124073 2.74645e-10 1.89663e-10 -1.21639e-10 5e-05 1.46608e-10 
16 1 0.122006 0.0156997 0.00848682 0.00613417 -4.40087e-05 -0.00035631 -1.0961e-11 1.04256e-10 -1.15957e-10 5e-05 1.46608e-10 
17 1 0.128162 0.0162558 0.00799371 0.00522078 -0.000801885 0.00123413 1.74536e-10 -8.7169e-11 1.51687e-10 5e-05 1.46608e-10 
18 1 0.134278 0.0167472 0.00770045 0.00542209 -0.000134367 -0.000416705 1.04263e-12 2.38874e-12 -7.8051e-13 5e-05 1.46608e-10 
19 1 0.128018 0.0157444 0.00844937 0.00577314 -0.000730405 0.00122598 -9.40693e-12 -3.70833e-10 3.33079e-10 5e-05 1.46608e-10 
21 1 0.128176 0.0159919 0.00823742 0.00527451 -0.000799334 0.00124238 -7.36744e-10 -4.48935e-10 3.12247e-10 5e-05 1.46608e-10 
22 1 0.128277 0.0166953 0.00760183 0.00515847 -0.000786881 0.00120823 3.76049e-10 -5.25538e-12 -1.74112e-10 5e-05 1.46608e-10 
23 1 0.122391 0.0167726 0.00745416 0.0057535 0.000333538 -3.73116e-05 1.24947e-10 -6.91243e-11 3.54588e-11 5e-05 1.46608e-10 
24 1 0.134341 0.0170224 0.00759948 0.00562609 -7.89674e-05 -0.000129554 2.03426e-12 8.23005e-13 1.71128e-14 5e-05 1.46608e-10 
25 1 0.128219 0.0164755 0.00779764 0.00524305 -0.000837777 0.00127742 1.83264e-10 1.02468e-10 -8.69827e-11 5e-05 1.46608e-10 
26 1 0.134218 0.0164612 0.00780069 0.00557349 0.000521283 -0.000647702 6.05011e-13 -1.10372e-12 3.22728e-13 5e-05 1.46608e-10 
27 1 0.122538 0.017463 0.00726607 0.00621225 0.000245128 -0.000328361 8.29332e-11 8.27171e-11 -7.60789e-11 5e-05 1.46608e-10 
28 1 0.128487 0.0171889 0.0072298 0.00541945 -0.00121573 0.000622863 9.15669e-11 4.34586e-10 -4.52628e-10 5e-05 1.46608e-10 
29 1 0.127997 0.0156714 0.00851434 0.0058004 -0.00069662 0.00119751 -7.26708e-11 -3.03871e-10 2.68006e-10 5e-05 1.46608e-10 
30 1 0.128448 0.0170208 0.00732814 0.00537904 -0.000927471 0.00105315 -4.59531e-11 3.18187e-10 -4.66597e-10 5e-05 1.46608e-10 
31 1 0.128257 0.0166219 0.00766683 0.00520826 -0.00082051 0.00124455 4.5227e-10 2.59361e-10 -1.83838e-10 5e-05 1.46608e-10 
32 1 0.128373 0.0167239 0.00758512 0.00515191 -0.000795826 0.00121038 1.21356e-10 2.42343e-10 -1.08645e-10 5e-05 1.46608e-10 
33 1 0.134155 0.0161684 0.00790346 0.00580538 0.000596795 -0.000692554 1.31286e-12 2.50481e-13 -1.52673e-13 5e-05 1.46608e-10 
34 1 0.128142 0.0161827 0.00805894 0.00513764 -0.000782796 0.00121057 3.32027e-10 -2.82551e-10 3.30545e-10 5e-05 1.46608e-10 
35 1 0.128353 0.016652 0.00765177 0.00508443 -0.000805537 0.00121666 -1.39417e-10 2.31065e-10 -1.80364e-10 5e-05 1.46608e-10 
36 1 0.134448 0.0174802 0.00742884 0.00575991 -0.000107132 -0.000123021 1.02684e-12 -1.95134e-12 -2.61102e-14 5e-05 1.46608e-10 
37 1 0.128314 0.016504 0.0077805 0.00516036 -0.000826487 0.00125512 2.95541e-10 -5.6358e-11 2.77542e-11 5e-05 1.46608e-10 
38 1 0.128525 0.0169735 0.00737002 0.00552517 -0.000777172 0.001194 -7.57523e-10 1.18385e-10 -6.88696e-10 5e-05 1.46608e-10 
39 1 0.134363 0.017114 0.00756535 0.00565286 -8.45954e-05 -0.000128258 1.87432e-12 -6.47166e-15 -5.33522e-13 5e-05 1.46608e-10 
41 1 0.128101 0.0160366 0.00818916 0.00527445 -0.000739133 0.00118894 -2.48781e-11 -3.21482e-10 2.5825e-10 5e-05 1.46608e-10 
42 1 0.128296 0.0167683 0.0075361 0.00522855 -0.000758798 0.00120305 2.23225e-10 -1.4153e-12 7.36357e-11 5e-05 1.46608e-10 
44 1 0.128544 0.0170466 0.00730457 0.00549563 -0.000722798 0.00118829 -2.03022e-10 -5.02097e-11 -2.01852e-10 5e-05 1.46608e-10 
45 1 0.134176 0.0162666 0.007869 0.00577974 0.000554934 -0.000676447 1.14986e-12 5.0395e-13 -2.97953e-13 5e-05 1.46608e-10 
46 1 0.134258 0.016654 0.00773313 0.00555181 0.000415983 -0.000610824 8.22547e-13 4.17032e-13 -1.95108e-13 5e-05 1.46608e-10 
47 1 0.128122 0.0161096 0.00812408 0.00512523 -0.000774354 0.0012029 6.90572e-10 -3.02559e-10 4.04225e-10 5e-05 1.46608e-10 
48 1 0.128334 0.0169192 0.00741041 0.00539694 -0.000743778 0.00123486 -1.4142e-10 -2.43155e-10 -3.77438e-11 5e-05 1.46608e-10 
49 1 0.134238 0.0165578 0.00776684 0.0055466 0.000468888 -0.000627981 7.65289e-13 3.62842e-13 -2.30141e-13 5e-05 1.46608e-10 
50 1 0.128392 0.0171548 0.00723367 0.00544047 -0.00115938 0.000655113 5.90189e-11 -7.33998e-12 1.52343e-11 5e-05 1.46608e-10 
51 1 0.128372 0.0170716 0.00728557 0.00543685 -0.00115183 0.000641904 1.80688e-09 -5.3458e-11 2.02458e-10 5e-05 1.46608e-10 
52 1 0.122238 0.0164897 0.00761708 0.00569221 0.0003469 -4.33536e-05 -1.17469e-11 8.94651e-12 -3.228e-11 5e-05 1.46608e-10 
53 1 0.134299 0.0168393 0.00766774 0.00557256 -6.76666e-05 -0.000132145 3.09939e-12 1.36544e-12 -7.44016e-13 5e-05 1.46608e-10 
54 1 0.128156 0.0159188 0.00830254 0.005348 -0.000840505 0.0012869 -1.06839e-09 -7.63949e-10 6.15285e-10 5e-05 1.46608e-10 
55 1 0.122067 0.0158914 0.00826419 0.00577071 2.15174e-05 -0.000406751 4.25502e-11 6.85391e-11 -8.36651e-11 5e-05 1.46608e-10 
56 1 0.128333 0.0165772 0.0077152 0.00510691 -0.000813909 0.00123682 -3.988e-11 1.94599e-10 -8.97522e-11 5e-05 1.46608e-10 
57 1 0.134197 0.0163642 0.00783473 0.00575456 0.000514778 -0.000660944 1.06183e-12 4.91836e-13 -2.93758e-13 5e-05 1.46608e-10 
59 1 0.12845 0.0166805 0.0076316 0.00510936 -0.000810987 0.00123988 8.20051e-11 1.52612e-10 -1.13436e-10 5e-05 1.46608e-10 
60 1 0.128468 0.0167538 0.00756605 0.00522821 -0.000803552 0.00124464 9.54027e-11 2.47014e-10 -2.92211e-10 5e-05 1.46608e-10 
61 1 0.128081 0.0159635 0.00825428 0.00543085 -0.000707539 0.00117843 9.13016e-11 -2.36432e-10 1.69443e-10 5e-05 1.46608e-10 
62 1 0.128564 0.0171281 0.00725001 0.00558108 -0.000887838 0.000947788 -1.26623e-09 -3.8264e-10 -1.58481e-10 5e-05 1.46608e-10 
63 1 0.128574 0.0173778 0.00728285 0.00579319 -0.00128314 0.0009117 -4.09177e-10 1.34537e-10 -2.75683e-12 5e-05 1.46608e-10 
64 1 0.13432 0.0169309 0.00763361 0.00559934 -7.33432e-05 -0.000130898 2.07787e-12 1.17746e-12 -6.62501e-13 5e-05 1.46608e-10 
65 1 0.122544 0.0177169 0.00720234 0.00630127 8.80116e-05 -0.00028151 2.6933e-10 -2.23341e-10 -1.90791e-10 5e-05 1.46608e-10 
66 1 0.122621 0.0176339 0.0072202 0.00625176 0.000217739 -0.000328945 2.25464e-10 7.8305e-11 -1.39297e-10 5e-05 1.46608e-10 
67 1 0.128719 0.0174473 0.00723953 0.00570238 -0.00139352 0.000902534 3.68742e-10 -8.63787e-12 8.63371e-11 5e-05 1.46608e-10 
68 1 0.128599 0.0173201 0.00720525 0.00563451 -0.00133781 0.00090055 -2.82377e-10 4.79881e-11 -1.1205e-10 5e-05 1.46608e-10 
69 1 0.128257 0.0162844 0.00797666 0.00524225 -0.000816248 0.00124759 4.68743e-10 -6.68288e-11 5.23174e-12 5e-05 1.46608e-10 
70 1 0.134384 0.0172055 0.00753122 0.00567963 -9.02189e-05 -0.000126985 1.14047e-12 -3.08067e-13 1.15117e-13 5e-05 1.46608e-10 
71 1 0.122047 0.0158275 0.00833841 0.00573796 2.37098e-05 -0.000407248 2.12136e-11 9.27722e-11 -1.0666e-10 5e-05 1.46608e-10 
72 1 0.12858 0.017219 0.00720911 0.00543019 -0.00134678 0.000371671 6.8677e-12 -9.90203e-11 -1.16027e-10 5e-05 1.46608e-10 
73 1 0.128201 0.0164022 0.00786305 0.00524569 -0.000839269 0.00127362 4.2617e-10 6.64039e-11 1.2319e-10 5e-05 1.46608e-10 
74 1 0.12841 0.0168699 0.00745389 0.00536243 -0.000771446 0.00126102 -2.42039e-10 1.33661e-10 -2.93656e-10 5e-05 1.46608e-10 
76 1 0.122529 0.017399 0.00718979 0.00620644 0.000241068 -0.000321559 -9.3741e-11 2.3835e-11 -2.29852e-11 5e-05 1.46608e-10 
77 1 0.128638 0.0178601 0.00726537 0.00569373 -0.001042 0.000931479 -3.47229e-11 2.119e-10 7.13031e-11 5e-05 1.46608e-10 
78 1 0.122106 0.0160193 0.00811565 0.00583609 1.19983e-05 -0.0003999 -7.60296e-11 3.0605e-12 -8.01144e-12 5e-05 1.46608e-10 
79 1 0.122599 0.0175388 0.00724253 0.00623321 0.00022509 -0.000321437 8.79885e-11 6.62669e-11 -6.63308e-11 5e-05 1.46608e-10 
80 1 0.12843 0.0173428 0.00717863 0.00543386 -0.00124016 0.000346933 -4.35272e-10 4.46295e-10 -2.35727e-10 5e-05 1.46608e-10 
81 1 0.122382 0.0171615 0.00734373 0.00567006 0.000311191 -0.000300146 5.0046e-11 -3.06461e-10 -1.57033e-11 5e-05 1.46608e-10 
82 1 0.122316 0.0168284 0.00741909 0.00575075 0.00033957 -3.98685e-05 8.04626e-11 4.25587e-11 -1.06747e-11 5e-05 1.46608e-10 
83 1 0.122428 0.0165474 0.00758828 0.0056753 0.000322293 -3.48337e-05 -2.32191e-11 -1.51846e-10 1.6251e-10 5e-05 1.46608e-10 
84 1 0.134426 0.0173887 0.00746297 0.00573314 -0.000101465 -0.000124342 9.24631e-13 -1.36194e-12 7.28958e-13 5e-05 1.46608e-10 
85 1 0.12222 0.0161015 0.00801434 0.00573392 3.97363e-05 -0.000425511 -6.67468e-11 7.0861e-11 -9.93094e-11 5e-05 1.46608e-10 
86 1 0.128467 0.0170994 0.00726947 0.00538997 -0.00118273 0.0007165 3.08716e-10 1.47533e-10 -8.93046e-10 5e-05 1.46608e-10 
87 1 0.12843 0.0166073 0.00769689 0.0050829 -0.000813018 0.00123268 -2.11513e-10 7.78684e-11 -4.20398e-11 5e-05 1.46608e-10 
88 1 0.128455 0.0174952 0.00730382 0.00562281 -0.0014522 0.000628596 2.41342e-10 8.29203e-10 -7.39321e-10 5e-05 1.46608e-10 
89 1 0.128441 0.0174126 0.00724949 0.00540234 -0.00118504 0.000289327 -6.84331e-10 4.95597e-10 -2.15574e-10 5e-05 1.46608e-10 
90 1 0.128846 0.0175715 0.00727477 0.0057803 -0.00115491 0.000938944 -9.43611e-11 1.50464e-10 6.24479e-11 5e-05 1.46608e-10 
91 1 0.122277 0.016659 0.00751807 0.0057005 0.000351048 -4.83705e-05 -1.86623e-11 -8.72607e-11 4.96597e-11 5e-05 1.46608e-10 
92 1 0.128656 0.0175192 0.00726804 0.00580488 -0.00129988 0.000929513 1.80478e-10 7.39772e-12 -9.89387e-11 5e-05 1.46608e-10 
93 1 0.128497 0.0176737 0.00722694 0.00578851 -0.00109714 0.00087646 -4.78767e-11 -1.99947e-10 -1.28835e-10 5e-05 1.46608e-10 
94 1 0.128724 0.0178102 0.0072761 0.00567174 -0.00108164 0.000924857 -1.30904e-10 1.23481e-10 -2.06747e-11 5e-05 1.46608e-10 
95 1 0.128555 0.0174887 0.00730107 0.00566483 -0.00115046 0.000830694 -3.40143e-10 2.64252e-10 -1.09686e-10 5e-05 1.46608e-10 
96 1 0.128683 0.0176147 0.00724952 0.00574758 -0.00118788 0.000925625 -1.14895e-10 2.08965e-10 5.70647e-12 5e-05 1.46608e-10 
97 1 0.1222 0.0163401 0.00774361 0.00563276 5.47683e-05 -0.000447373 -4.53203e-13 4.09042e-11 -3.76127e-11 5e-05 1.46608e-10 
98 1 0.128477 0.0175776 0.0072085 0.00581369 -0.00111873 0.000930543 -8.62604e-11 -1.66145e-10 -2.87016e-10 5e-05 1.46608e-10 
99 1 0.122667 0.0177217 0.00720833 0.00626397 0.000212186 -0.000305413 1.15702e-10 1.81858e-10 4.78128e-12 5e-05 1.46608e-10 
100 1 0.128658 0.0171572 0.00722904 0.00544214 -0.00136288 0.000785734 -1.64632e-11 7.44583e-10 1.81318e-09 5e-05 1.46608e-10 
101 1 0.122517 0.0171479 0.00733801 0.0056106 0.000436296 -0.000312329 1.99083e-10 -7.05606e-11 3.26075e-11 5e-05 1.46608e-10 
102 1 0.0643568 0.0187248 0.00531097 4.45509e-15 1.04431e-14 8.29573e-14 1.13551e-21 -3.62228e-22 -1.11669e-23 5e-05 1.46608e-10 
103 1 0.24257 0.0191927 0.00520306 -3.43631e-22 4.86658e-23 1.23839e-22 0 0 0 5e-05 1.46608e-10 
104 1 0.122545 0.017057 0.00729427 0.00577857 0.000312633 -9.31063e-05 2.18974e-10 -1.65486e-10 3.07318e-11 5e-05 1.46608e-10 
105 1 0.122163 0.0162117 0.00789246 0.00571619 5.46709e-05 -0.000436442 -1.91304e-10 -3.2895e-11 3.56734e-11 5e-05 1.46608e-10 
106 1 0.12264 0.0170841 0.00727697 0.00580834 0.000291146 -7.43657e-06 2.33356e-10 6.74669e-11 -2.53423e-11 5e-05 1.46608e-10 
107 1 0.122125 0.0160835 0.00804123 0.00563165 4.5102e-05 -0.000421622 -1.53553e-10 -9.92159e-11 1.22239e-10 5e-05 1.46608e-10 
108 1 0.128295 0.0164308 0.0078459 0.00521724 -0.000828483 0.00126008 5.11232e-10 -6.79801e-11 6.40047e-11 5e-05 1.46608e-10 
109 1 0.128353 0.0169892 0.00733881 0.00540414 -0.000740335 0.00114099 4.47176e-11 -7.57159e-10 4.6113e-10 5e-05 1.46608e-10 
110 1 0.128623 0.0182556 0.00730162 0.00555868 -0.000955534 0.000916648 8.88476e-12 1.39213e-11 -2.57926e-12 5e-05 1.46608e-10 
111 1 0.128631 0.0180226 0.00735238 0.00563646 -0.000979176 0.000920828 1.24018e-10 -1.52238e-10 2.74523e-11 5e-05 1.46608e-10 
112 1 0.122219 0.0164056 0.00766761 0.00567765 8.20355e-05 -0.000472418 3.89991e-11 7.55044e-11 -5.51847e-11 5e-05 1.46608e-10 
113 1 0.12283 0.0179337 0.00705585 0.00620185 0.000133464 -0.000297094 1.19405e-10 9.72287e-11 -1.68943e-11 5e-05 1.46608e-10 
114 1 0.122956 0.0177056 0.00710203 0.00607314 6.09763e-05 -0.000275738 4.74088e-11 -2.0661e-10 6.04139e-11 5e-05 1.46608e-10 
115 1 0.128428 0.0169433 0.00738825 0.0054179 -0.000782082 0.00124128 -3.6673e-10 2.39587e-10 -2.73636e-10 5e-05 1.46608e-10 
116 1 0.128276 0.0163576 0.00791131 0.00525174 -0.000824212 0.0012624 4.69844e-10 -2.77231e-11 3.92421e-11 5e-05 1.46608e-10 
117 1 0.128135 0.0158453 0.00836802 0.00578848 -0.000522944 0.00103709 2.44354e-12 3.61343e-10 -3.20652e-10 5e-05 1.46608e-10 
118 1 0.122352 0.0169979 0.00742004 0.00576679 0.000324277 -4.14341e-05 7.26394e-11 -6.01675e-11 -1.53521e-10 5e-05 1.46608e-10 
119 1 0.128488 0.0168269 0.00750083 0.00536143 -0.000805573 0.00123143 9.46466e-11 5.0559e-10 -3.73494e-10 5e-05 1.46608e-10 
120 1 0.127975 0.0155984 0.00857931 0.0058227 -0.000674266 0.0011788 -6.11786e-11 1.62226e-10 -1.39769e-10 5e-05 1.46608e-10 
121 1 0.127933 0.0154524 0.00870925 0.0058997 -0.0005998 0.00111811 -1.53499e-10 -4.96045e-10 4.45525e-10 5e-05 1.46608e-10 
122 1 0.128675 0.0180913 0.00729501 0.00560837 -0.000943914 0.000923699 5.94317e-11 -5.37982e-11 7.36522e-11 5e-05 1.46608e-10 
123 1 0.122258 0.0162297 0.0078656 0.0055747 6.67418e-05 -0.00044411 -7.29508e-11 5.65318e-11 -4.83798e-11 5e-05 1.46608e-10 
124 1 0.128499 0.0174801 0.00720372 0.00586294 -0.00114253 0.00104024 -1.00921e-10 -1.40164e-10 -1.38995e-10 5e-05 1.46608e-10 
125 1 0.128113 0.0157716 0.00843357 0.00585346 -0.000633567 0.00114443 3.36928e-11 -7.40476e-11 7.39642e-11 5e-05 1.46608e-10 
126 1 0.128315 0.0168428 0.00747237 0.00533414 -0.0007417 0.0012143 2.33992e-10 -1.45389e-11 2.37898e-10 5e-05 1.46608e-10 
127 1 0.122182 0.0162759 0.00781806 0.00569435 5.86284e-05 -0.000439899 -2.07322e-10 6.63754e-11 -5.05403e-11 5e-05 1.46608e-10 
128 1 0.128411 0.0172472 0.00720079 0.00544848 -0.00123354 0.000434212 3.18276e-11 3.83463e-10 -5.01798e-11 5e-05 1.46608e-10 
129 1 0.128532 0.0176082 0.00729406 0.00584241 -0.00105636 0.000863488 -4.00424e-11 7.71124e-11 5.89415e-12 5e-05 1.46608e-10 
130 1 0.122411 0.0168572 0.00740468 0.00576082 0.000334732 -3.76826e-05 9.66648e-11 -1.06745e-11 2.76693e-11 5e-05 1.46608e-10 
131 1 0.122659 0.017839 0.00716841 0.00624162 0.000171025 -0.000302909 -4.61744e-11 -6.01715e-11 -4.3516e-12 5e-05 1.46608e-10 
132 1 0.128522 0.0173831 0.0071974 0.00574512 -0.00119096 0.000936758 -3.21126e-10 -1.13313e-10 -1.81377e-10 5e-05 1.46608e-10 
133 1 0.128353 0.0163145 0.00795825 0.00521784 -0.00087396 0.00130324 8.13951e-11 -3.07309e-10 3.26686e-10 5e-05 1.46608e-10 
134 1 0.128505 0.0169003 0.00743519 0.00545554 -0.000817739 0.00119833 -3.06139e-10 4.40843e-10 -5.19975e-10 5e-05 1.46608e-10 
135 1 0.128092 0.0156986 0.00849856 0.00590214 -0.000643116 0.00115863 1.95247e-10 -5.72081e-10 5.51669e-10 5e-05 1.46608e-10 
136 1 0.122201 0.0160375 0.00808868 0.00582774 2.70047e-05 -0.000416453 -1.50021e-10 1.12791e-10 -1.13814e-10 5e-05 1.46608e-10 
137 1 0.12856 0.0179649 0.00726163 0.00565679 -0.00103304 0.000927936 1.28716e-10 9.4365e-11 4.2056e-11 5e-05 1.46608e-10 
138 1 0.128237 0.0162112 0.00804198 0.00521738 -0.000783747 0.00120757 -4.8959e-10 -3.43749e-10 5.1476e-11 5e-05 1.46608e-10 
140 1 0.128743 0.0179075 0.00728915 0.00559908 -0.00110428 0.000907835 1.39589e-10 -6.53353e-11 -1.57859e-11 5e-05 1.46608e-10 
141 1 0.122239 0.0161656 0.00793999 0.00561073 5.81467e-05 -0.000439951 -8.37819e-11 6.64265e-11 -8.2185e-11 5e-05 1.46608e-10 
142 1 0.122506 0.0168861 0.00739046 0.00575844 0.000318403 -2.92536e-05 7.90613e-11 -1.57999e-10 -9.94377e-12 5e-05 1.46608e-10 
143 1 0.122144 0.0161476 0.00796685 0.00569173 4.42056e-05 -0.000425441 -1.49569e-10 -3.53022e-11 3.95732e-11 5e-05 1.46608e-10 
144 1 0.122648 0.0175243 0.00715633 0.0062343 0.000167954 -0.000307105 5.188e-12 -4.07104e-12 2.00829e-11 5e-05 1.46608e-10 
146 1 0.122542 0.0166608 0.00752442 0.00570513 0.000299806 -1.82853e-05 -5.71032e-11 1.76258e-10 -1.14418e-10 5e-05 1.46608e-10 
147 1 0.122182 0.0159734 0.008163 0.00584913 2.13573e-05 -0.000411621 -5.87807e-11 1.11291e-10 -1.26038e-10 5e-05 1.46608e-10 
148 1 0.122375 0.0170824 0.00727055 0.00576508 0.000325091 -3.03991e-05 9.23539e-11 4.48797e-11 -4.5998e-11 5e-05 1.46608e-10 
149 1 0.128539 0.0178681 0.0072483 0.00569493 -0.00105289 0.00093329 3.31023e-11 -4.31301e-11 9.83019e-11 5e-05 1.46608e-10 
150 1 0.122333 0.0165186 0.00760264 0.00568605 0.000353119 -5.10249e-05 -2.31712e-11 -4.57276e-11 -2.22562e-12 5e-05 1.46608e-10 
151 1 0.122839 0.0175821 0.00713501 0.0062013 0.000145307 -0.000300103 -3.90759e-11 7.12697e-11 -8.50575e-12 5e-05 1.46608e-10 
153 1 0.122295 0.016361 0.00771928 0.00563182 0.000151325 -0.000354944 1.73665e-11 -6.13263e-12 1.06864e-10 5e-05 1.46608e-10 
154 1 0.12247 0.0171125 0.00725715 0.00574331 0.000268161 -0.000308943 1.21379e-10 -7.12261e-11 -9.81149e-12 5e-05 1.46608e-10 
155 1 0.122551 0.017494 0.00716737 0.00621289 0.000242644 -0.000322771 -4.07505e-11 6.44529e-11 -3.17004e-11 5e-05 1.46608e-10 
156 1 0.12245 0.0170265 0.0073057 0.00577585 0.000331752 -3.10023e-05 1.6903e-10 -8.66055e-11 6.23611e-12 5e-05 1.46608e-10 
157 1 0.0219312 0.0187687 0.00551176 -3.83134e-14 8.16549e-14 2.95893e-13 -1.96274e-22 -2.92408e-22 6.51405e-23 5e-05 1.46608e-10 
158 1 0.122565 0.0171446 0.00725034 0.00583977 0.00026658 -0.000180962 1.40546e-10 -1.0776e-10 -3.35874e-11 5e-05 1.46608e-10 
159 1 0.128593 0.0174504 0.007217 0.00578242 -0.00121092 0.000925776 -4.75754e-10 6.24122e-11 -8.69658e-11 5e-05 1.46608e-10 
160 1 0.122454 0.017464 0.00717832 0.00623344 0.000279833 -0.0003345 -3.94654e-11 3.17761e-11 8.03431e-12 5e-05 1.46608e-10 
162 1 0.122489 0.0172083 0.00723466 0.00572426 0.000297421 -0.000307293 1.20976e-10 -9.41534e-11 4.23035e-11 5e-05 1.46608e-10 
164 1 0.122638 0.0178746 0.00707753 0.00623158 0.000166524 -0.000304758 -3.454e-13 -6.62245e-11 1.6294e-11 5e-05 1.46608e-10 
165 1 0.122744 0.0175536 0.00714557 0.00620224 0.000122886 -0.000294748 -5.57376e-11 1.69677e-11 -7.90904e-12 5e-05 1.46608e-10 
166 1 0.128314 0.0161681 0.0080889 0.00509098 -0.000881244 0.00129597 -5.29151e-10 -3.66415e-10 2.71337e-10 5e-05 1.46608e-10 
167 1 0.122313 0.0164367 0.00765662 0.00566668 0.00029758 -0.000150422 1.02725e-10 3.28347e-12 1.90821e-10 5e-05 1.46608e-10 
168 1 0.122659 0.0171728 0.00723535 0.00580176 0.000130074 -0.000346579 -1.29154e-10 -1.13649e-11 -2.22091e-10 5e-05 1.46608e-10 
169 1 0.122809 0.0178387 0.00707829 0.006163 0.000132428 -0.000290084 1.38823e-10 -4.11525e-11 -5.03423e-11 5e-05 1.46608e-10 
170 1 0.1227 0.0173633 0.00719048 0.00607891 9.93692e-05 -0.000283062 1.02853e-10 -1.71214e-10 -2.14036e-11 5e-05 1.46608e-10 
171 1 0.128334 0.0162413 0.0080236 0.00519032 -0.000876458 0.00130118 2.12382e-10 -3.5401e-10 2.95374e-10 5e-05 1.46608e-10 
172 1 0.122883 0.0177724 0.0070901 0.00609519 7.78402e-05 -0.000281334 2.19829e-10 -1.16886e-10 -4.06907e-12 5e-05 1.46608e-10 
173 1 0.128703 0.0177132 0.00726283 0.0057148 -0.0011191 0.000935146 -8.88606e-11 -6.46737e-11 -7.54645e-11 5e-05 1.46608e-10 
174 1 0.122605 0.0173342 0.00720118 0.00599428 0.000218194 -0.00030832 7.27027e-11 -4.20527e-11 7.98937e-11 5e-05 1.46608e-10 
175 1 0.116387 0.0171858 0.00734348 0.00601843 -8.69928e-05 -0.000445821 3.11829e-10 -8.48306e-11 2.37617e-10 5e-05 1.46608e-10 
176 1 0.122431 0.0169419 0.00735519 0.0057705 0.000333653 -3.65827e-05 7.82682e-11 -1.6177e-11 3.17057e-11 5e-05 1.46608e-10 
177 1 0.122497 0.0176542 0.00713342 0.0062393 0.000212577 -0.000321986 1.85357e-11 4.54392e-11 -5.5395e-11 5e-05 1.46608e-10 
178 1 0.122852 0.0180288 0.00703341 0.00619044 0.000109745 -0.000291071 6.7229e-11 -3.73589e-11 2.02618e-12 5e-05 1.46608e-10 
179 1 0.122787 0.0177437 0.00710072 0.00617925 0.000125538 -0.000294926 -7.43239e-11 -4.17938e-11 1.07113e-11 5e-05 1.46608e-10 
181 1 0.122413 0.0172732 0.00722323 0.00571395 0.000261253 -0.000306511 1.91922e-11 -6.49338e-12 -8.24662e-12 5e-05 1.46608e-10 
182 1 0.128217 0.016138 0.0081072 0.00514696 -0.000748368 0.00117434 9.07566e-11 -4.21767e-10 4.40026e-10 5e-05 1.46608e-10 
183 1 0.12268 0.0172681 0.00721291 0.00591132 0.000125066 -0.00029254 -1.83468e-10 -6.49255e-11 -1.32627e-10 5e-05 1.46608e-10 
184 1 0.128632 0.0176873 0.00732826 0.00572036 -0.00114611 0.000936613 -5.48109e-11 -2.07304e-10 -2.07354e-10 5e-05 1.46608e-10 
185 1 0.122355 0.0169977 0.00732011 0.00576671 0.000344129 -4.21283e-05 1.01216e-10 1.51767e-10 -9.65128e-11 5e-05 1.46608e-10 
186 1 0.122394 0.0171774 0.00724572 0.00574237 0.000253698 -0.00030291 7.69474e-11 -1.77481e-11 4.2676e-12 5e-05 1.46608e-10 
187 1 0.128642 0.0170768 0.00728622 0.00534678 -0.000909273 0.00130803 -1.17383e-09 -1.6349e-10 4.60146e-10 5e-05 1.46608e-10 
188 1 0.128617 0.0177626 0.00725201 0.00575247 -0.00103139 0.0009456 1.79578e-10 2.08836e-10 6.20526e-11 5e-05 1.46608e-10 
189 1 0.128674 0.0172544 0.00721243 0.00552261 -0.00141468 0.000842489 8.38719e-11 5.15825e-10 2.77264e-10 5e-05 1.46608e-10 
190 1 0.116559 0.0175237 0.00709991 0.00629565 0.000212515 0.000185183 8.94708e-11 8.36092e-11 9.39886e-11 5e-05 1.46608e-10 
191 1 0.128581 0.0180618 0.00727496 0.00562135 -0.00101095 0.000922939 7.73525e-11 9.97356e-11 1.60639e-11 5e-05 1.46608e-10 
192 1 0.1226 0.0169147 0.00737596 0.00575398 0.000292055 -1.39526e-05 5.99146e-11 1.67209e-10 -1.06891e-10 5e-05 1.46608e-10 
193 1 0.12841 0.0165341 0.00776214 0.00512538 -0.000825399 0.00125028 -5.62699e-11 -4.18504e-11 5.91705e-11 5e-05 1.46608e-10 
194 1 0.122447 0.016632 0.00753878 0.00570626 0.000316435 -2.97918e-05 -9.70632e-11 -6.89491e-11 2.01093e-11 5e-05 1.46608e-10 
195 1 0.122904 0.0178674 0.00706768 0.00614264 6.75799e-05 -0.000279298 1.01092e-10 7.07829e-11 7.08365e-12 5e-05 1.46608e-10 
196 1 0.121984 0.0156361 0.00856085 0.00614799 -4.59405e-05 -0.000354527 6.08769e-11 1.06447e-10 -1.23341e-10 5e-05 1.46608e-10 
197 1 0.116444 0.0174003 0.00714217 0.0062526 1.06856e-05 -0.00030541 -6.6137e-12 -2.49652e-11 1.92719e-10 5e-05 1.46608e-10 
198 1 0.122437 0.0172398 0.00731441 0.00569688 0.000288704 -0.000304827 -6.371e-11 -2.18081e-10 3.12466e-11 5e-05 1.46608e-10 
199 1 0.122509 0.0173037 0.00721222 0.0059397 0.000288391 -0.000321684 2.33689e-11 -8.40653e-11 1.40868e-12 5e-05 1.46608e-10 
200 1 0.122297 0.0167437 0.00746857 0.00574303 0.000341714 -4.15996e-05 -1.13639e-11 -5.5143e-11 3.46478e-11 5e-05 1.46608e-10 
201 1 0.122778 0.0180944 0.00702178 0.00625015 0.00016994 -0.000305764 1.32843e-11 -6.22875e-11 5.82009e-12 5e-05 1.46608e-10 
202 1 0.12262 0.0169994 0.00732647 0.0057922 0.000289024 -9.29047e-06 -3.56683e-11 1.75917e-10 -4.23809e-11 5e-05 1.46608e-10 
203 1 0.128692 0.017352 0.00722524 0.00567128 -0.00139843 0.000890855 -2.45865e-10 -6.231e-11 -7.47053e-11 5e-05 1.46608e-10 
204 1 0.122372 0.0166879 0.00750365 0.00573235 0.000340403 -4.07846e-05 1.50929e-10 -5.52055e-11 3.42464e-11 5e-05 1.46608e-10 
205 1 0.122594 0.0176843 0.00712245 0.0062465 0.000145981 -0.000303089 2.19062e-10 -4.66735e-11 -1.16586e-10 5e-05 1.46608e-10 
206 1 0.122626 0.0174293 0.00717876 0.00615356 0.000184559 -0.00030782 3.25575e-11 -6.42223e-11 1.03266e-10 5e-05 1.46608e-10 
207 1 0.122277 0.0162939 0.0077912 0.00560312 6.06396e-05 -0.000445834 -1.12728e-12 -4.53389e-11 -3.42532e-11 5e-05 1.46608e-10 
208 1 0.122584 0.017239 0.00722368 0.00590317 0.000243233 -0.000267266 1.3349e-10 -5.30198e-11 5.91159e-11 5e-05 1.46608e-10 
209 1 0.122352 0.0166032 0.00755315 0.00570043 0.000347864 -4.62151e-05 -1.45532e-11 -5.58493e-11 2.19675e-11 5e-05 1.46608e-10 
210 1 0.128433 0.0173149 0.00727462 0.00515753 -0.00131887 0.000356187 8.39205e-11 1.67843e-10 -8.22284e-10 5e-05 1.46608e-10 
211 1 0.128596 0.0176624 0.00723836 0.00577081 -0.00111859 0.000928811 -1.90051e-10 1.87661e-10 -7.41413e-11 5e-05 1.46608e-10 
212 1 0.122722 0.0174584 0.00716804 0.00619927 0.000108986 -0.000292783 -1.14327e-10 5.18223e-11 -2.2782e-11 5e-05 1.46608e-10 
213 1 0.128622 0.0170037 0.00735142 0.00508777 -0.000834967 0.00125393 -7.4579e-10 -4.60451e-10 3.18718e-10 5e-05 1.46608e-10 
214 1 0.128572 0.0175503 0.00722295 0.00582225 -0.00116915 0.00094137 -4.5089e-12 -5.42326e-11 -1.47122e-10 5e-05 1.46608e-10 
215 1 0.116522 0.0173541 0.00718711 0.00621414 0.000101059 2.20314e-05 7.57975e-11 4.01835e-12 -7.37101e-11 5e-05 1.46608e-10 
216 1 0.122476 0.017559 0.00715589 0.00624255 0.000283803 -0.000334647 2.0239e-11 6.24267e-11 -3.57928e-12 5e-05 1.46608e-10 
217 1 0.128372 0.0163877 0.00789284 0.00516235 -0.000855974 0.00128342 1.45824e-10 -2.5264e-10 2.27036e-10 5e-05 1.46608e-10 
218 1 0.122681 0.0179341 0.00714604 0.00623739 0.000206062 -0.000294576 3.27263e-11 -1.02327e-10 6.36833e-11 5e-05 1.46608e-10 
219 1 0.128518 0.017771 0.00723648 0.00574836 -0.00107557 0.000909546 5.33684e-11 -1.69626e-10 -2.93544e-11 5e-05 1.46608e-10 
220 1 0.122432 0.0173688 0.00720079 0.00569108 0.000272078 -0.000309335 2.50177e-11 -1.65172e-11 -1.57663e-11 5e-05 1.46608e-10 
221 1 0.116463 0.0171354 0.00738362 0.00592233 -0.000148691 -0.000374212 5.87496e-10 -1.06466e-10 1.11854e-10 5e-05 1.46608e-10 
222 1 0.128391 0.016461 0.00782743 0.00515223 -0.000838038 0.0012649 5.76948e-10 -1.26226e-10 1.55793e-10 5e-05 1.46608e-10 
223 1 0.122525 0.0169707 0.00734081 0.00577845 0.000330124 -3.03892e-05 1.49592e-10 -1.49805e-10 7.65808e-11 5e-05 1.46608e-10 
224 1 0.122336 0.016913 0.0073696 0.0057584 0.000340768 -4.11897e-05 4.66089e-11 6.78624e-11 -4.16009e-11 5e-05 1.46608e-10 
225 1 0.128602 0.0181587 0.00728829 0.00558551 -0.000984414 0.000918498 3.39346e-11 4.73509e-11 4.46505e-11 5e-05 1.46608e-10 
226 1 0.122861 0.0176773 0.00711255 0.00608929 3.87778e-05 -0.000270997 -3.3703e-11 2.6763e-11 -6.14012e-12 5e-05 1.46608e-10 
227 1 0.116579 0.0176215 0.00710538 0.0061766 0.000281106 -0.000823908 -1.39095e-10 1.17604e-10 1.14229e-10 5e-05 1.46608e-10 
228 1 0.116406 0.017261 0.00728037 0.00602022 -8.67606e-05 -0.000440686 6.12976e-11 -1.77997e-11 2.61887e-10 5e-05 1.46608e-10 
229 1 0.122519 0.0176187 0.00722428 0.00619501 0.000198149 -0.000326873 -6.07086e-11 1.93201e-10 -4.65727e-12 5e-05 1.46608e-10 
230 1 0.122724 0.0182547 0.00698782 0.00625246 0.000157195 -0.00030489 3.79586e-11 -4.54883e-11 1.67245e-11 5e-05 1.46608e-10 
231 1 0.116369 0.017117 0.0074138 0.0060444 -7.45201e-05 -0.00046064 -1.24864e-10 -2.29735e-10 2.17498e-10 5e-05 1.46608e-10 
232 1 0.122408 0.0164627 0.00763777 0.00566459 0.000329352 -4.00248e-05 1.35834e-10 -1.05719e-10 1.75125e-10 5e-05 1.46608e-10 
233 1 0.122486 0.0168014 0.00743984 0.00575428 0.000316165 -2.15851e-05 1.42252e-10 -3.09599e-10 5.44762e-11 5e-05 1.46608e-10 
234 1 0.128658 0.0179606 0.00727908 0.00565984 -0.000995412 0.000929369 2.15378e-10 1.82228e-10 3.03009e-11 5e-05 1.46608e-10 
235 1 0.122693 0.0185112 0.00693817 0.00587037 0.00027429 -0.000194553 -1.69098e-10 5.61057e-11 -1.99741e-11 5e-05 1.46608e-10 
236 1 0.122843 0.0183807 0.00695998 0.00584911 0.000307276 -0.000197808 -1.78059e-10 -8.7642e-11 2.1676e-11 5e-05 1.46608e-10 
237 1 0.122768 0.018446 0.00694905 0.00587817 0.000307959 -0.000197532 -2.25929e-10 -4.30213e-11 2.28358e-13 5e-05 1.46608e-10 
239 1 0.116202 0.016467 0.00801327 0.00636197 0.000396836 0.000155183 3.63194e-10 1.05544e-11 -5.22848e-11 5e-05 1.46608e-10 
240 1 0.116257 0.0166855 0.00781537 0.00562821 0.000479905 2.34272e-05 -1.04387e-10 1.14505e-10 -3.07849e-10 5e-05 1.46608e-10 
241 1 0.116179 0.0163947 0.00807845 0.00634433 0.000446214 0.00011731 -1.39636e-10 -4.52542e-10 5.47668e-10 5e-05 1.46608e-10 
242 1 0.122467 0.0167167 0.00748928 0.00574552 0.000313652 -2.66025e-05 -2.33876e-11 -2.26321e-10 1.38249e-10 5e-05 1.46608e-10 
243 1 0.122433 0.0173388 0.0072962 0.00570018 0.000277286 -0.000310447 5.97054e-11 1.02876e-10 -9.55056e-12 5e-05 1.46608e-10 
244 1 0.11622 0.0165399 0.00794724 0.0055647 0.00048306 2.60531e-05 6.66979e-11 -3.92105e-10 -1.06143e-10 5e-05 1.46608e-10 
246 1 0.116332 0.016972 0.00754628 0.00584299 -5.43647e-06 -0.000492481 1.46388e-10 -6.74841e-11 2.55116e-10 5e-05 1.46608e-10 
247 1 0.122616 0.0177796 0.00709996 0.00623711 0.000159578 -0.000304431 -1.71047e-11 -4.47379e-11 6.34944e-12 5e-05 1.46608e-10 
248 1 0.122734 0.0179044 0.00706663 0.00621887 0.000175714 -0.000306557 5.95781e-11 -1.71398e-11 -7.41349e-12 5e-05 1.46608e-10 