ITEM: TIMESTEP
45200000
ITEM: NUMBER OF ATOMS
275
ITEM: BOX BOUNDS ff ff ff
-0.02 0.43
-0.02 0.06
-0.02 0.07
ITEM: ATOMS id type x y z vx vy vz fx fy fz radius mass 
1 1 0.27676 0.0179654 0.00714773 0.006139 0.000288212 -0.000754508 9.58237e-11 3.99896e-12 -3.35303e-11 5e-05 1.46608e-10 
2 1 0.276414 0.016794 0.00745032 0.00572593 0.000612243 0.00013457 1.32243e-10 1.9671e-10 -5.51329e-11 5e-05 1.46608e-10 
4 1 0.276564 0.0166654 0.0074816 0.00574932 0.000685387 0.000108307 3.39151e-10 -2.59164e-10 1.52378e-10 5e-05 1.46608e-10 
5 1 0.276033 0.015489 0.00875551 0.00621714 0.000374362 -0.00033873 5.39129e-11 1.04354e-10 -1.21969e-10 5e-05 1.46608e-10 
6 1 0.282379 0.016654 0.00756947 0.00574362 0.000988762 -0.000160607 -1.74617e-12 -5.7961e-12 1.21757e-12 5e-05 1.46608e-10 
7 1 0.276704 0.017334 0.00732431 0.00594695 0.000328937 -0.000742747 1.24481e-10 1.07612e-11 -5.50659e-11 5e-05 1.46608e-10 
8 1 0.276416 0.016433 0.0077202 0.00568466 0.000254657 -0.000660963 -1.96776e-10 -1.82993e-10 2.4062e-10 5e-05 1.46608e-10 
9 1 0.282573 0.0175279 0.007149 0.00580927 0.000833965 -0.000444269 6.36902e-13 4.10203e-12 2.32866e-13 5e-05 1.46608e-10 
10 1 0.276512 0.0164547 0.00769071 0.00586995 0.000349888 -0.000777083 2.19923e-10 -1.09267e-10 1.33741e-10 5e-05 1.46608e-10 
11 1 0.276623 0.0176187 0.00734126 0.00603004 0.00040324 -0.000770105 8.263e-11 1.25627e-10 -4.47605e-12 5e-05 1.46608e-10 
12 1 0.270798 0.0173172 0.00716969 0.0056047 0.000124474 -0.000250901 2.75957e-10 4.03111e-10 -3.14291e-10 5e-05 1.46608e-10 
13 1 0.276011 0.015424 0.00882835 0.00622975 0.000369078 -0.000332877 5.44602e-11 1.83318e-10 -2.0488e-10 5e-05 1.46608e-10 
14 1 0.270732 0.0176912 0.00715991 0.00608823 -0.000230909 0.000234527 -4.91617e-11 2.61193e-10 -2.92942e-10 5e-05 1.46608e-10 
16 1 0.270989 0.0181756 0.00700981 0.00601396 -0.00030759 0.000211689 1.06353e-10 -1.36606e-10 2.81211e-11 5e-05 1.46608e-10 
17 1 0.276378 0.0162987 0.00786376 0.00584247 0.000288137 -0.000710872 2.33099e-10 -2.24831e-10 3.03917e-10 5e-05 1.46608e-10 
19 1 0.275989 0.015359 0.00890118 0.00623691 0.000363373 -0.000326562 7.52543e-11 2.17686e-10 -2.42223e-10 5e-05 1.46608e-10 
21 1 0.276747 0.0175215 0.00726897 0.00597623 0.000318234 -0.000744895 -2.5049e-11 1.67828e-11 2.42995e-11 5e-05 1.46608e-10 
22 1 0.27653 0.016522 0.0076189 0.00536708 0.000270802 -0.000654093 9.26757e-11 -8.35087e-10 9.65463e-10 5e-05 1.46608e-10 
23 1 0.270946 0.0179823 0.00703733 0.00603649 -0.000370031 0.000221857 -3.89298e-12 -2.25911e-11 1.34388e-11 5e-05 1.46608e-10 
24 1 0.282494 0.0171609 0.00728746 0.00583535 0.000828127 -0.000442662 9.61728e-13 -1.64384e-13 -7.19892e-13 5e-05 1.46608e-10 
25 1 0.276141 0.0158142 0.00839295 0.0061674 0.000305841 -0.000425864 -7.87825e-12 -1.29592e-10 6.85376e-11 5e-05 1.46608e-10 
26 1 0.282534 0.0173444 0.00721823 0.00582231 0.000831052 -0.000443445 4.87692e-14 1.63831e-13 5.79613e-13 5e-05 1.46608e-10 
27 1 0.27049 0.0167553 0.00750569 0.00317512 0.000673081 0.000925139 0 0 -1.43822e-09 5e-05 1.46608e-10 
28 1 0.276489 0.0167297 0.00746596 0.00572825 0.000620556 0.000127365 3.04435e-10 -1.96835e-10 2.94127e-10 5e-05 1.46608e-10 
29 1 0.275968 0.015294 0.00897402 0.00624507 0.000358874 -0.000321231 7.54421e-11 2.26451e-10 -2.54378e-10 5e-05 1.46608e-10 
30 1 0.276224 0.016079 0.00810693 0.00590313 0.000205497 -0.000627314 9.083e-12 -8.60007e-11 3.74299e-11 5e-05 1.46608e-10 
31 1 0.276778 0.0172681 0.0073339 0.00590102 0.000285099 -0.000729264 1.33165e-10 7.66187e-12 1.25503e-11 5e-05 1.46608e-10 
32 1 0.276163 0.0158786 0.00831959 0.00610958 0.000165297 -0.000579718 -7.11171e-11 -1.24154e-10 5.08258e-11 5e-05 1.46608e-10 
33 1 0.282398 0.0167262 0.00750283 0.00577917 0.000986604 -0.000153761 -8.2196e-13 1.70259e-12 4.50168e-12 5e-05 1.46608e-10 
34 1 0.276129 0.0157472 0.0084663 0.00617729 0.000385766 -0.000349651 8.84062e-11 -1.32652e-10 8.57391e-11 5e-05 1.46608e-10 
35 1 0.276661 0.0171465 0.00737965 0.00598078 0.000332383 -0.000748545 -2.15221e-11 9.24406e-11 -1.0678e-11 5e-05 1.46608e-10 
36 1 0.282634 0.0178027 0.00704528 0.00637356 0.000718873 -0.000414332 3.99347e-12 1.01274e-11 -3.38509e-12 5e-05 1.46608e-10 
37 1 0.276547 0.0165895 0.00754695 0.00567251 0.000251554 -0.000628029 5.1168e-10 -5.83264e-10 4.91165e-10 5e-05 1.46608e-10 
38 1 0.276622 0.0169565 0.00742804 0.0057986 0.000543711 0.00014463 2.90419e-10 -4.64561e-11 -2.68349e-10 5e-05 1.46608e-10 
39 1 0.282514 0.0172527 0.00725285 0.00582881 0.000829556 -0.000443038 -6.50678e-13 -2.9027e-13 -1.37511e-13 5e-05 1.46608e-10 
41 1 0.276076 0.015619 0.00860984 0.00620151 0.000380267 -0.000346154 -7.72522e-11 -1.72251e-11 8.03178e-11 5e-05 1.46608e-10 
42 1 0.276658 0.0166989 0.00747925 0.00576459 0.000649777 0.000127367 -2.23196e-11 -1.83634e-10 1.03103e-11 5e-05 1.46608e-10 
44 1 0.276717 0.0169864 0.0074168 0.00566114 0.000367449 -0.000752674 -2.43e-10 2.34263e-10 1.0959e-09 5e-05 1.46608e-10 
45 1 0.282416 0.0167985 0.0074362 0.00581549 0.000984513 -0.000146873 -4.07264e-12 -3.25671e-12 -2.8583e-12 5e-05 1.46608e-10 
47 1 0.276098 0.0156855 0.00853838 0.00618641 0.00038242 -0.000347764 -1.13651e-10 -6.21259e-11 5.37783e-11 5e-05 1.46608e-10 
48 1 0.276617 0.0177448 0.00722298 0.00609843 0.000403878 -0.000780091 -1.64652e-11 -4.16995e-12 7.93101e-12 5e-05 1.46608e-10 
49 1 0.282592 0.0176196 0.00711439 0.0058028 0.000835267 -0.000444527 -7.6706e-13 6.26172e-12 -2.88943e-12 5e-05 1.46608e-10 
50 1 0.276195 0.0159466 0.00825377 0.00603779 9.23024e-05 -0.000700074 -9.64646e-11 -1.12291e-10 1.74594e-11 5e-05 1.46608e-10 
51 1 0.2768 0.0173617 0.00730625 0.0059504 0.000270691 -0.000729192 7.59501e-11 5.5022e-12 -4.02922e-11 5e-05 1.46608e-10 
52 1 0.270859 0.0175957 0.00709235 0.00591302 -0.000477761 0.000238268 1.8355e-10 2.2377e-10 -6.13563e-11 5e-05 1.46608e-10 
53 1 0.282455 0.0169774 0.00735669 0.00581327 0.000832308 -0.000443576 -9.5979e-12 4.95059e-13 -5.7436e-14 5e-05 1.46608e-10 
54 1 0.27698 0.0177642 0.00717775 0.00610195 0.000234706 -0.000735454 1.83151e-10 -7.75572e-12 -7.37083e-12 5e-05 1.46608e-10 
55 1 0.270684 0.0172057 0.00723806 0.00569053 -0.000219202 3.83447e-05 3.57068e-10 -2.55167e-11 3.45693e-10 5e-05 1.46608e-10 
56 1 0.276958 0.0176698 0.00720562 0.00602708 0.000198397 -0.000717071 8.42911e-11 -6.49272e-11 1.13126e-11 5e-05 1.46608e-10 
57 1 0.282436 0.0168857 0.00739131 0.00581648 0.000831506 -0.000443365 -5.89791e-12 -2.20693e-12 2.89423e-12 5e-05 1.46608e-10 
59 1 0.378022 0.019866 0.005332 -5.01939e-15 -7.41201e-15 7.69803e-14 5.01478e-24 -1.57681e-24 2.06795e-25 5e-05 1.46608e-10 
60 1 0.276736 0.0170805 0.00738914 0.00572463 0.000348671 -0.000728759 -2.58268e-11 1.68671e-11 6.65153e-11 5e-05 1.46608e-10 
61 1 0.276054 0.015554 0.00868268 0.00620803 0.000377978 -0.000344113 1.09579e-10 1.26886e-11 -1.6054e-11 5e-05 1.46608e-10 
62 1 0.276641 0.0170524 0.0074072 0.00524214 0.000471627 -0.000728483 -5.09133e-10 1.67784e-10 9.18731e-10 5e-05 1.46608e-10 
63 1 0.276639 0.0178392 0.00719511 0.00611585 0.000368769 -0.000774251 -5.66107e-12 1.22284e-10 -5.94874e-11 5e-05 1.46608e-10 
64 1 0.282475 0.0170692 0.00732208 0.00584184 0.000826728 -0.000442327 8.85494e-13 -4.29094e-13 1.36762e-12 5e-05 1.46608e-10 
65 1 0.270607 0.0172625 0.00720741 0.00494121 1.56138e-05 -0.000167304 7.72281e-10 -2.25878e-10 1.48978e-10 5e-05 1.46608e-10 
66 1 0.270694 0.0179403 0.00711852 0.0061254 -0.000243712 0.000196705 -1.59479e-10 -1.63056e-11 1.3389e-11 5e-05 1.46608e-10 
67 1 0.276768 0.0176152 0.00724132 0.00600211 0.000325612 -0.000750087 -2.84259e-11 -3.29188e-11 1.43509e-11 5e-05 1.46608e-10 
68 1 0.276547 0.0170204 0.00741246 0.0052334 0.000483651 0.00013175 -4.84868e-10 -1.79645e-10 1.50556e-11 5e-05 1.46608e-10 
69 1 0.276843 0.0175491 0.00725096 0.00593749 0.000265077 -0.000725279 -7.92144e-11 -4.24287e-11 2.62025e-11 5e-05 1.46608e-10 
70 1 0.282553 0.0174361 0.00718362 0.00581585 0.000832589 -0.000443867 -4.64663e-13 1.33434e-12 -1.53779e-12 5e-05 1.46608e-10 
71 1 0.271032 0.018369 0.00698229 0.00599755 -0.000303616 0.000211269 -3.30742e-12 -1.1368e-10 1.28731e-11 5e-05 1.46608e-10 
72 1 0.276813 0.0178056 0.00718501 0.0061073 0.000282846 -0.000749937 1.52064e-11 -8.12249e-11 1.13245e-11 5e-05 1.46608e-10 
73 1 0.276641 0.0166091 0.00751982 0.00563101 0.000289878 -0.000696721 7.393e-12 -8.71365e-11 1.43473e-10 5e-05 1.46608e-10 
74 1 0.276206 0.0160108 0.00817785 0.00591121 0.000206237 -0.000626141 -1.70896e-11 -9.53196e-11 2.65147e-11 5e-05 1.46608e-10 
76 1 0.270625 0.0169522 0.0073871 0.00543457 -0.000187643 -4.44879e-05 1.59562e-09 -5.83247e-10 -5.86213e-10 5e-05 1.46608e-10 
77 1 0.276433 0.0168906 0.007433 0.00572932 0.000618032 0.000134737 2.96399e-10 5.77977e-11 2.82889e-11 5e-05 1.46608e-10 
78 1 0.270031 0.0156186 0.00886785 0.00583586 0.000560802 0.00065624 -5.29466e-11 4.7454e-11 -3.26639e-11 5e-05 1.46608e-10 
79 1 0.270959 0.0184354 0.00697037 0.00607879 -0.000233731 0.000202732 9.77979e-11 -2.62207e-12 3.71631e-12 5e-05 1.46608e-10 
80 1 0.276508 0.0168283 0.00745253 0.00568566 0.000603748 0.000191944 3.82924e-10 2.53431e-10 3.09223e-10 5e-05 1.46608e-10 
82 1 0.270776 0.0178857 0.00713243 0.00602417 -0.00039911 0.0002266 -1.65826e-10 -7.88926e-11 -3.15744e-12 5e-05 1.46608e-10 
83 1 0.270816 0.0174023 0.00712046 0.00572872 -0.00069106 -0.00163369 -7.85607e-11 -3.33725e-10 -1.13747e-09 5e-05 1.46608e-10 
84 1 0.282613 0.0177112 0.00707981 0.00634251 0.000725553 -0.000416178 3.49786e-12 8.09307e-12 -4.01084e-12 5e-05 1.46608e-10 
85 1 0.270829 0.0186607 0.0069333 0.00617508 -0.000175377 0.000197516 2.14348e-11 3.07825e-10 -4.8303e-11 5e-05 1.46608e-10 
86 1 0.276698 0.016892 0.00744373 0.0056592 0.000593493 2.04655e-05 2.66841e-10 -2.01725e-10 -3.04594e-11 5e-05 1.46608e-10 
87 1 0.27647 0.016641 0.00750838 0.00564322 0.000256099 -0.000650733 -2.63409e-10 -6.22118e-10 6.1041e-10 5e-05 1.46608e-10 
88 1 0.276608 0.0173067 0.00734222 0.00597827 0.000403782 -0.00070291 1.5505e-10 1.40474e-10 7.58111e-11 5e-05 1.46608e-10 
89 1 0.276699 0.0175551 0.00735039 0.00598042 0.000348532 -0.000755979 -6.36405e-12 8.48268e-11 4.63099e-11 5e-05 1.46608e-10 
90 1 0.27679 0.0177095 0.00721348 0.00605269 0.000298955 -0.000747156 7.49661e-11 -1.96066e-12 6.28922e-12 5e-05 1.46608e-10 
91 1 0.270779 0.0172325 0.00721947 0.00575434 -0.000292319 -1.32862e-05 -6.07285e-11 5.68462e-11 -1.15031e-10 5e-05 1.46608e-10 
92 1 0.276531 0.0173701 0.00733358 0.00600574 0.0003992 -0.000718857 -4.31232e-11 -7.14843e-11 -3.66343e-10 5e-05 1.46608e-10 
93 1 0.276282 0.0162788 0.00789129 0.00584086 0.000198077 -0.00061282 1.65375e-10 -1.46464e-10 1.82616e-10 5e-05 1.46608e-10 
94 1 0.276645 0.017712 0.00731313 0.00606829 0.00039116 -0.000785811 -6.68598e-12 1.29153e-10 -6.61302e-12 5e-05 1.46608e-10 
95 1 0.276558 0.0173374 0.0074243 0.00656169 0.000337237 -0.00089989 -2.27698e-10 -2.45086e-10 -4.28577e-10 5e-05 1.46608e-10 
96 1 0.27651 0.0172764 0.00736116 0.00600483 0.000442403 -0.000520337 1.02169e-11 1.52439e-10 -4.04119e-12 5e-05 1.46608e-10 
97 1 0.270136 0.0159106 0.00849451 0.00579958 0.000510522 0.000715109 -1.60244e-10 -4.03163e-10 5.24945e-10 5e-05 1.46608e-10 
98 1 0.276263 0.0162118 0.00796295 0.00588227 0.000199813 -0.000618801 -6.38516e-11 -9.88671e-11 1.19912e-10 5e-05 1.46608e-10 
99 1 0.270633 0.0177897 0.00705728 0.00616533 -0.00020682 0.000198702 -1.5621e-10 -2.52976e-10 -7.41467e-11 5e-05 1.46608e-10 
100 1 0.276725 0.0174277 0.00729666 0.00598937 0.00031731 -0.000744444 1.11509e-11 -5.70434e-11 3.3353e-11 5e-05 1.46608e-10 
101 1 0.270655 0.0178863 0.00704353 0.00617182 -0.000205462 0.000198909 -7.81588e-11 -2.18269e-11 -7.91334e-11 5e-05 1.46608e-10 
102 1 0.0643568 0.0187248 0.00531097 4.15514e-15 1.05618e-14 8.29578e-14 -2.70333e-22 4.43265e-22 -4.25998e-23 5e-05 1.46608e-10 
103 1 0.24257 0.0191927 0.00520306 2.73478e-22 4.86658e-23 1.23839e-22 0 0 0 5e-05 1.46608e-10 
104 1 0.271011 0.0182722 0.00699606 0.00599224 -0.000316197 0.000212689 1.78945e-10 -2.12495e-10 3.85022e-11 5e-05 1.46608e-10 
105 1 0.270126 0.0157943 0.00865099 0.00574983 0.000527547 0.000664629 1.40124e-10 -1.99753e-10 3.18642e-10 5e-05 1.46608e-10 
106 1 0.270647 0.0174411 0.00712799 0.00572464 -0.000109358 3.19128e-05 -6.74289e-10 7.98808e-10 1.20696e-10 5e-05 1.46608e-10 
107 1 0.270052 0.0156787 0.00879097 0.00582909 0.000536778 0.000669351 4.40139e-11 -1.96437e-11 -2.89969e-12 5e-05 1.46608e-10 
108 1 0.276864 0.0176429 0.00722333 0.00600914 0.000252693 -0.000730607 2.09576e-11 -8.30709e-11 1.10019e-11 5e-05 1.46608e-10 
109 1 0.276916 0.0174819 0.00726102 0.00592995 0.000260425 -0.000723473 -5.1516e-11 6.4485e-11 -5.23281e-12 5e-05 1.46608e-10 
110 1 0.276395 0.0167049 0.00749189 0.00567491 0.000517883 -6.86188e-05 4.86564e-10 3.57989e-10 1.14345e-10 5e-05 1.46608e-10 
111 1 0.276356 0.0165469 0.00760731 0.00566023 0.000196687 -0.000567043 6.14598e-11 1.01674e-11 1.71641e-10 5e-05 1.46608e-10 
112 1 0.27018 0.0160309 0.00834082 0.00577604 0.00047208 0.000757327 -1.72646e-11 -2.51298e-10 3.5013e-10 5e-05 1.46608e-10 
113 1 0.270532 0.0173204 0.00717614 0.00569987 -4.81664e-05 -0.000172491 -6.83127e-11 -1.3169e-09 3.56272e-10 5e-05 1.46608e-10 
114 1 0.27059 0.0175962 0.00708482 0.00560072 -0.000160442 0.000183314 3.18282e-10 2.0628e-09 -4.83559e-10 5e-05 1.46608e-10 
115 1 0.276678 0.0167953 0.0074615 0.00569252 0.000673179 0.000116819 2.41093e-10 -3.17966e-10 1.42493e-10 5e-05 1.46608e-10 
116 1 0.276695 0.0176821 0.00723137 0.00606765 0.000380115 -0.000772089 2.65663e-11 -1.20111e-11 1.14787e-11 5e-05 1.46608e-10 
117 1 0.276682 0.0172403 0.00735197 0.00592415 0.0003671 -0.000740929 2.97278e-10 1.90337e-10 6.66514e-11 5e-05 1.46608e-10 
118 1 0.270722 0.0173754 0.00713898 0.00586262 -0.000222306 0.000173645 -4.04926e-10 -9.53972e-11 4.09297e-11 5e-05 1.46608e-10 
119 1 0.276885 0.0177371 0.00719556 0.00607365 0.000248415 -0.000735647 -6.11473e-11 -1.71616e-10 3.34117e-11 5e-05 1.46608e-10 
120 1 0.276494 0.0163876 0.00776249 0.0058456 0.000394426 -0.00082195 2.49136e-10 1.45816e-10 -1.60075e-10 5e-05 1.46608e-10 
121 1 0.276781 0.0180591 0.0071201 0.00615619 0.000252278 -0.000746503 9.11817e-11 -1.81028e-10 3.83952e-11 5e-05 1.46608e-10 
122 1 0.27649 0.0171801 0.00737923 0.00518648 0.000711345 7.33703e-05 2.25743e-10 1.40349e-10 -2.04574e-10 5e-05 1.46608e-10 
123 1 0.27098 0.0185321 0.0069566 0.00613123 -0.000239299 0.000205358 -1.55579e-11 1.09051e-10 -1.6577e-11 5e-05 1.46608e-10 
124 1 0.276397 0.0163658 0.00779199 0.00605586 0.000565087 -0.00101501 8.7174e-11 6.49018e-11 -9.98241e-11 5e-05 1.46608e-10 
125 1 0.276586 0.0172123 0.00737015 0.00603116 0.000413114 -0.000729459 -1.55809e-10 1.00752e-10 -6.60198e-10 5e-05 1.46608e-10 
127 1 0.270116 0.0158654 0.00858143 0.00581475 0.000557383 0.000709471 -3.84929e-10 -3.77948e-10 4.1676e-10 5e-05 1.46608e-10 
128 1 0.276247 0.0161443 0.00803493 0.00588598 0.000206111 -0.000625207 -1.17941e-10 -6.85414e-11 5.72116e-11 5e-05 1.46608e-10 
129 1 0.276602 0.0175247 0.0073685 0.00604403 0.000410704 -0.000768911 -7.09065e-11 -4.29633e-11 2.78423e-11 5e-05 1.46608e-10 
130 1 0.270689 0.0176312 0.00708237 0.0061387 -0.000223226 0.000204588 9.16691e-11 9.84825e-12 1.66252e-11 5e-05 1.46608e-10 
131 1 0.270711 0.0177278 0.00706862 0.00617366 -0.000215046 0.00020203 1.35662e-10 -9.97651e-11 -1.45643e-10 5e-05 1.46608e-10 
132 1 0.276583 0.0167628 0.00746368 0.0057261 0.000626867 0.000136917 2.80092e-10 8.25739e-11 4.73114e-11 5e-05 1.46608e-10 
133 1 0.276716 0.017776 0.00720368 0.00609394 0.000341472 -0.000761018 5.10317e-11 3.50209e-11 -2.60475e-11 5e-05 1.46608e-10 
134 1 0.276673 0.0175884 0.00725902 0.0060347 0.000366759 -0.000763835 -7.03771e-11 2.55283e-11 1.02376e-11 5e-05 1.46608e-10 
135 1 0.276821 0.0174554 0.00727861 0.00592821 0.000267007 -0.000725029 -2.18535e-11 -9.47154e-12 -1.52872e-11 5e-05 1.46608e-10 
136 1 0.270665 0.0171212 0.0072877 0.00559456 -0.000220974 -2.96221e-05 -2.61009e-11 3.68929e-11 2.28607e-10 5e-05 1.46608e-10 
137 1 0.27658 0.0174307 0.00739614 0.00601785 0.000403996 -0.00076427 -1.06839e-11 -1.05376e-10 -4.04294e-11 5e-05 1.46608e-10 
138 1 0.276574 0.0175575 0.00727827 0.00605221 0.00039667 -0.000772951 4.11731e-12 -8.0863e-11 8.11125e-12 5e-05 1.46608e-10 
140 1 0.276452 0.0169871 0.00741476 0.0056956 0.000625631 0.000128768 2.28982e-10 1.62357e-10 1.63064e-10 5e-05 1.46608e-10 
141 1 0.270509 0.0165107 0.00776561 0.00578957 0.000380321 0.000798192 4.09673e-10 1.08181e-10 -3.18141e-10 5e-05 1.46608e-10 
142 1 0.270903 0.0177889 0.00706487 0.00599304 -0.000467123 0.000232382 -2.09797e-10 3.52814e-11 -2.59944e-11 5e-05 1.46608e-10 
143 1 0.270074 0.0157486 0.00872272 0.0057989 0.000501778 0.000666965 4.9951e-10 1.57354e-10 3.73995e-10 5e-05 1.46608e-10 
144 1 0.270763 0.0175651 0.00709425 0.00606043 -0.000297448 0.000208806 3.08994e-10 -5.85555e-11 1.09849e-11 5e-05 1.46608e-10 
146 1 0.270274 0.0160597 0.00832452 0.00581968 0.000511348 0.00071665 7.87621e-12 -2.54948e-10 3.74839e-10 5e-05 1.46608e-10 
147 1 0.270668 0.0175366 0.007107 0.00607648 -0.000190409 0.000208176 -8.03545e-11 2.85569e-10 -5.84132e-11 5e-05 1.46608e-10 
148 1 0.270528 0.0165709 0.00768799 0.00544559 0.000400612 0.000733724 -3.87592e-10 1.04266e-10 -4.55433e-10 5e-05 1.46608e-10 
149 1 0.276322 0.0164235 0.00776008 0.00561813 0.00022125 -0.000604478 -1.00316e-10 -1.67225e-10 9.1739e-11 5e-05 1.46608e-10 
150 1 0.270807 0.0185634 0.00694716 0.0061458 -0.000232339 0.000204051 -5.2161e-11 -2.732e-10 3.81715e-11 5e-05 1.46608e-10 
151 1 0.270798 0.0181144 0.00701361 0.00618368 -0.00020217 0.000201336 9.35929e-11 2.27664e-11 -1.40322e-11 5e-05 1.46608e-10 
153 1 0.270546 0.016631 0.00761017 0.0052672 0.00038269 0.000704518 -1.23967e-09 1.79696e-10 -4.02023e-10 5e-05 1.46608e-10 
154 1 0.270253 0.0159995 0.00840143 0.00580387 0.000509745 0.00071779 -2.56999e-10 -2.61978e-10 2.40586e-10 5e-05 1.46608e-10 
155 1 0.270201 0.016091 0.00826395 0.00576209 0.000463585 0.000762686 2.34303e-10 -7.47475e-11 2.36685e-10 5e-05 1.46608e-10 
156 1 0.270494 0.0164505 0.00784393 0.00585362 0.000404664 0.000850983 4.7174e-10 1.72518e-10 -3.32595e-12 5e-05 1.46608e-10 
157 1 0.0219312 0.0187687 0.00551176 -3.83405e-14 8.1659e-14 2.95889e-13 1.42534e-22 3.91877e-23 3.10193e-24 5e-05 1.46608e-10 
158 1 0.270586 0.0167851 0.00748977 0.00538199 -1.02563e-05 0.000234129 -5.96166e-10 8.05541e-10 1.8194e-10 5e-05 1.46608e-10 
159 1 0.276603 0.0168599 0.00744582 0.00565628 0.000634174 0.000127364 4.2648e-10 -1.42261e-10 1.40264e-10 5e-05 1.46608e-10 
160 1 0.270676 0.0179829 0.00702977 0.00617292 -0.00020266 0.000198656 7.61269e-11 1.92044e-10 -8.94538e-12 5e-05 1.46608e-10 
162 1 0.270754 0.0180845 0.00709861 0.00619297 -0.00020712 0.000201528 -1.87001e-10 2.51543e-10 -2.81883e-11 5e-05 1.46608e-10 
164 1 0.270266 0.0162769 0.00803791 0.00573436 0.00050413 0.000731001 -7.12885e-11 2.8357e-10 -5.70851e-10 5e-05 1.46608e-10 
165 1 0.270841 0.0183076 0.00698609 0.00615026 -0.000217429 0.000203187 -1.0902e-10 -7.16129e-11 4.27332e-12 5e-05 1.46608e-10 
166 1 0.276596 0.0176511 0.00725062 0.00607597 0.000403903 -0.000778684 -1.07666e-10 -8.87553e-11 3.47469e-11 5e-05 1.46608e-10 
167 1 0.270763 0.0183695 0.00697475 0.00615595 -0.000230661 0.000205401 -6.64198e-12 4.00137e-11 -8.85626e-12 5e-05 1.46608e-10 
168 1 0.270884 0.018501 0.00695857 0.0061269 -0.000212929 0.000201166 -7.27597e-12 -1.37286e-10 2.59694e-11 5e-05 1.46608e-10 
169 1 0.270785 0.0184662 0.00696099 0.00614558 -0.000246583 0.000206426 7.68052e-11 1.54924e-10 -1.92878e-11 5e-05 1.46608e-10 
170 1 0.270863 0.0184043 0.00697234 0.00613977 -0.000218353 0.000202348 -3.02597e-11 -1.73323e-10 2.10078e-11 5e-05 1.46608e-10 
171 1 0.276834 0.0178993 0.00715737 0.00612906 0.000270648 -0.000748251 6.04731e-11 -1.22914e-10 1.66495e-11 5e-05 1.46608e-10 
172 1 0.270512 0.0172358 0.00722585 0.00568721 -7.69225e-06 -0.000170171 -9.75592e-11 -2.58373e-10 2.03439e-10 5e-05 1.46608e-10 
173 1 0.276764 0.0178369 0.0072665 0.00611844 0.000311744 -0.000750824 7.07439e-11 -3.17012e-11 -4.421e-11 5e-05 1.46608e-10 
174 1 0.270305 0.0163914 0.00787872 0.00560656 0.00054172 0.000633094 2.90248e-10 6.161e-10 -7.73843e-10 5e-05 1.46608e-10 
176 1 0.270588 0.017178 0.00725711 0.00533517 -4.10046e-05 -0.000130347 2.26477e-10 -3.54478e-10 2.72504e-10 5e-05 1.46608e-10 
177 1 0.270298 0.0161209 0.00824649 0.00577184 0.00047578 0.000755434 -3.89989e-10 -1.54026e-10 1.08188e-10 5e-05 1.46608e-10 
178 1 0.270629 0.0176504 0.00715983 0.00618197 -0.000220594 0.000228868 5.71577e-10 -2.13106e-10 -6.63308e-11 5e-05 1.46608e-10 
179 1 0.270698 0.0180796 0.00701602 0.00618176 -0.000188481 0.000199491 1.12838e-10 4.23784e-10 -7.71952e-11 5e-05 1.46608e-10 
182 1 0.276855 0.017993 0.00712974 0.00615617 0.000255075 -0.000746551 1.61059e-10 -1.84901e-10 2.47094e-11 5e-05 1.46608e-10 
183 1 0.270571 0.017499 0.00709875 0.0056444 -8.53665e-05 0.000107608 -2.10579e-10 1.19765e-09 1.47213e-10 5e-05 1.46608e-10 
184 1 0.276666 0.0178057 0.00728527 0.00611061 0.000384847 -0.00076579 2.52313e-11 6.17973e-11 -1.22691e-10 5e-05 1.46608e-10 
185 1 0.270785 0.017662 0.00708046 0.00605096 -0.000336952 0.00022247 -2.14523e-10 -4.15235e-10 -2.5349e-11 5e-05 1.46608e-10 
186 1 0.270849 0.0187577 0.00691944 0.00565153 -7.25866e-05 0.000166518 8.36363e-12 1.65811e-10 -4.80635e-11 5e-05 1.46608e-10 
187 1 0.276739 0.0178719 0.00717638 0.00612193 0.000296885 -0.000756537 3.32465e-11 3.46983e-11 9.53938e-12 5e-05 1.46608e-10 
188 1 0.276566 0.0171169 0.0073947 0.00509071 0.000547673 0.000119735 -5.39055e-10 1.32053e-10 -2.36208e-10 5e-05 1.46608e-10 
189 1 0.276704 0.0181218 0.00711171 0.0061495 0.000242523 -0.000742578 2.12995e-11 -1.49475e-10 3.86503e-11 5e-05 1.46608e-10 
190 1 0.264752 0.0183126 0.00696553 0.00631655 0.000310092 -0.000137322 -3.15761e-11 1.87356e-11 -3.50288e-11 5e-05 1.46608e-10 
191 1 0.276337 0.0164785 0.00767795 0.00562919 0.000198156 -0.000597763 -1.41338e-10 -8.56965e-11 1.18169e-10 5e-05 1.46608e-10 
192 1 0.270551 0.0174049 0.00712643 0.00567318 -0.00010236 -7.30214e-05 -2.21463e-10 -1.06195e-09 1.15157e-09 5e-05 1.46608e-10 
193 1 0.276908 0.0178322 0.00716739 0.0061171 0.000255633 -0.000741692 6.76609e-11 -9.37438e-11 -1.00064e-13 5e-05 1.46608e-10 
194 1 0.27083 0.0180185 0.0071112 0.00615614 -0.000178181 0.000224389 4.91559e-11 1.40724e-10 3.48198e-11 5e-05 1.46608e-10 
195 1 0.270894 0.0181453 0.00701167 0.00615078 -0.000237767 0.000203565 -4.98939e-11 -1.10701e-10 3.53244e-11 5e-05 1.46608e-10 
196 1 0.27085 0.0179519 0.00703919 0.00612984 -0.00027936 0.000210765 -1.42108e-10 -2.4751e-10 3.81657e-11 5e-05 1.46608e-10 
197 1 0.264427 0.0169097 0.00751688 0.00559448 -7.69003e-05 -0.000703904 -5.28564e-12 -5.47531e-11 6.55244e-11 5e-05 1.46608e-10 
198 1 0.270837 0.0174991 0.00710611 0.00588658 -0.000474399 0.000225906 7.58951e-10 -2.93996e-10 -8.6136e-12 5e-05 1.46608e-10 
199 1 0.270651 0.0177495 0.00714694 0.00610129 -0.000195487 0.000215648 -7.33578e-11 3.0537e-11 -3.27876e-10 5e-05 1.46608e-10 
200 1 0.270158 0.0159731 0.00841956 0.00579896 0.000487929 0.000742082 -1.74622e-10 -4.00843e-10 4.04792e-10 5e-05 1.46608e-10 
201 1 0.270915 0.0182419 0.00699792 0.00610945 -0.000234255 0.000204467 -5.92288e-11 -1.49299e-10 2.25656e-11 5e-05 1.46608e-10 
202 1 0.270606 0.0168678 0.00743701 0.00532175 -0.000132276 1.61531e-05 3.12126e-10 1.76724e-10 -3.01544e-10 5e-05 1.46608e-10 
203 1 0.276651 0.0174943 0.00728684 0.006032 0.000369171 -0.000763155 1.31861e-11 1.45102e-11 1.36517e-13 5e-05 1.46608e-10 
204 1 0.270968 0.018079 0.00702357 0.00605273 -0.000342202 0.000216389 5.93743e-11 -2.09185e-11 5.0888e-12 5e-05 1.46608e-10 
205 1 0.270433 0.016542 0.00770591 0.00531381 0.000542329 0.000556559 2.87519e-11 1.05353e-10 -1.83941e-11 5e-05 1.46608e-10 
206 1 0.270471 0.0166743 0.00756101 0.00550592 0.000127247 0.000209221 -1.37861e-09 1.4553e-11 3.98122e-10 5e-05 1.46608e-10 
207 1 0.270361 0.0163014 0.00801541 0.00559901 0.000411434 0.000806932 -3.30009e-10 3.19778e-10 -6.09905e-10 5e-05 1.46608e-10 
208 1 0.270881 0.0176924 0.0070786 0.00594931 -0.000467111 0.000231371 2.76967e-11 1.50811e-10 -3.84577e-11 5e-05 1.46608e-10 
209 1 0.270704 0.0172904 0.00718851 0.00577313 -0.000198203 0.00014138 2.65295e-10 -3.24713e-10 -1.68885e-10 5e-05 1.46608e-10 
210 1 0.276434 0.0165004 0.0076483 0.00572669 0.000235793 -0.00063743 1.59951e-10 -1.19877e-10 1.34013e-10 5e-05 1.46608e-10 
211 1 0.276453 0.0165685 0.00757543 0.00568387 0.000194483 -0.000587458 7.85486e-11 -3.19529e-10 1.28969e-10 5e-05 1.46608e-10 
212 1 0.270937 0.0183385 0.00698417 0.0060896 -0.000242313 0.000204756 -1.01714e-10 -4.31654e-10 6.75551e-11 5e-05 1.46608e-10 
213 1 0.276682 0.0180276 0.00713952 0.00613782 0.000284372 -0.000752655 7.88254e-11 1.12955e-10 -4.59828e-11 5e-05 1.46608e-10 
214 1 0.276527 0.0169239 0.00743023 0.00573146 0.000604508 0.000129935 4.82626e-10 1.44003e-10 1.00297e-10 5e-05 1.46608e-10 
215 1 0.264659 0.0178279 0.00703904 0.00632085 0.000306136 -0.00013597 -4.59892e-13 6.79039e-12 6.06939e-13 5e-05 1.46608e-10 
216 1 0.270342 0.0162412 0.0080929 0.00559371 0.000388441 0.000828483 -5.95842e-10 3.59292e-11 -3.58543e-10 5e-05 1.46608e-10 
217 1 0.27693 0.0179271 0.0071393 0.0061292 0.000225508 -0.000735919 2.82635e-10 -1.66097e-10 1.52201e-11 5e-05 1.46608e-10 
218 1 0.270611 0.017693 0.00707104 0.00616091 -0.000225176 0.00020936 1.86616e-10 3.93387e-10 3.00095e-11 5e-05 1.46608e-10 
219 1 0.276302 0.0163459 0.00781973 0.00573924 0.000211692 -0.000605337 2.19281e-10 -2.20867e-10 1.6421e-10 5e-05 1.46608e-10 
220 1 0.270732 0.0178245 0.00705487 0.00619767 -0.000206619 0.000204475 -3.07715e-10 -1.07086e-10 -8.13056e-11 5e-05 1.46608e-10 
222 1 0.276757 0.0171744 0.00736154 0.0058391 0.000307044 -0.000727955 1.86655e-10 4.70459e-11 8.19723e-12 5e-05 1.46608e-10 
224 1 0.27051 0.0168398 0.00745596 0.00560375 -0.000170272 -2.08073e-05 6.16384e-10 -2.62142e-10 -6.55772e-10 5e-05 1.46608e-10 
225 1 0.276375 0.0166225 0.00754472 0.00568009 0.000311359 -0.000398965 4.12203e-10 1.57023e-10 2.79864e-10 5e-05 1.46608e-10 
226 1 0.270924 0.0178857 0.00705108 0.00597525 -0.000452624 0.000231955 1.62792e-10 -3.12338e-11 -8.7713e-12 5e-05 1.46608e-10 
227 1 0.264665 0.0179266 0.00702425 0.00631911 0.000306637 -0.00013589 -4.10965e-12 -6.32196e-12 9.73646e-13 5e-05 1.46608e-10 
228 1 0.264601 0.0176392 0.00706797 0.0061849 0.000334221 -0.000138021 5.48586e-12 4.0786e-12 -4.08917e-13 5e-05 1.46608e-10 
229 1 0.270905 0.0185977 0.00694479 0.00615413 -0.000213606 0.000202391 -1.33179e-10 1.38824e-11 -4.26182e-12 5e-05 1.46608e-10 
230 1 0.270414 0.0168128 0.00747465 0.00562508 -5.08821e-05 -8.61706e-05 2.77103e-10 -6.03848e-10 -2.51711e-10 5e-05 1.46608e-10 
232 1 0.270836 0.0181687 0.00708968 0.00615712 -0.000253324 0.00020317 -3.86922e-12 1.19319e-10 2.86723e-11 5e-05 1.46608e-10 
233 1 0.270742 0.0182729 0.0069885 0.00616425 -0.000222731 0.000208676 4.02136e-12 5.72624e-11 -3.14913e-11 5e-05 1.46608e-10 
234 1 0.276471 0.0170836 0.007397 0.00545782 0.000676887 0.000115992 7.88007e-10 1.29813e-10 -2.11597e-10 5e-05 1.46608e-10 
235 1 0.270375 0.0166437 0.00757409 0.00557378 -1.82786e-05 -0.000166926 -3.88622e-10 5.25649e-10 -8.58789e-11 5e-05 1.46608e-10 
236 1 0.270473 0.0170663 0.00732552 0.00565131 -8.7396e-05 -0.000125787 -9.12031e-11 -1.42935e-10 3.51794e-11 5e-05 1.46608e-10 
237 1 0.270493 0.0171509 0.00727582 0.00564284 -9.8749e-05 -0.000121009 1.5335e-12 -9.23647e-11 5.45643e-11 5e-05 1.46608e-10 
239 1 0.264336 0.0165681 0.00787038 0.00542171 -5.28358e-05 -0.000702754 4.22943e-11 -1.78356e-10 1.60218e-10 5e-05 1.46608e-10 
240 1 0.264391 0.0167731 0.00765826 0.00552796 -7.81704e-05 -0.00069547 3.08146e-10 -1.49547e-10 1.2978e-10 5e-05 1.46608e-10 
241 1 0.264319 0.0164995 0.00794116 0.00639811 -0.000233595 -0.000658254 -2.5781e-10 1.62865e-10 -9.5342e-11 5e-05 1.46608e-10 
242 1 0.270474 0.0163904 0.00792142 0.00585051 0.000390633 0.000878233 1.98477e-10 3.32988e-11 4.72056e-11 5e-05 1.46608e-10 
243 1 0.270829 0.0178551 0.00705298 0.00599307 -0.000450503 0.000232768 -1.96537e-11 1.34835e-10 1.50032e-11 5e-05 1.46608e-10 
244 1 0.264354 0.0166365 0.00779965 0.00549792 -7.89241e-05 -0.00069662 3.66773e-10 -2.10074e-10 2.00648e-10 5e-05 1.46608e-10 
246 1 0.264522 0.0172769 0.00719465 0.00576794 0.000427111 -0.000129554 -1.55317e-12 5.44586e-12 6.76953e-13 5e-05 1.46608e-10 
247 1 0.270321 0.0164515 0.00780054 0.00550455 0.000565924 0.00058934 -6.67337e-11 3.86984e-10 -9.03035e-10 5e-05 1.46608e-10 
248 1 0.270626 0.0175289 0.00719732 0.00594982 -0.000185691 0.000154831 -1.98889e-10 -1.63825e-10 -2.45828e-10 5e-05 1.46608e-10 
249 1 0.264466 0.0170468 0.00737636 0.00555257 4.59285e-05 -0.000601765 -2.77007e-12 5.54182e-13 2.7574e-12 5e-05 1.46608e-10 
250 1 0.270397 0.0164308 0.00786758 0.00535214 -6.62637e-06 0.000237498 -1.71027e-10 2.98579e-11 -6.07321e-10 5e-05 1.46608e-10 
251 1 0.27663 0.0174005 0.00731453 0.00599862 0.000374347 -0.000762937 7.81078e-12 -1.29896e-10 3.84121e-11 5e-05 1.46608e-10 
252 1 0.264545 0.0173664 0.00715625 0.00576389 0.000425948 -0.000136231 -1.10434e-11 9.43436e-12 6.8297e-12 5e-05 1.46608e-10 
253 1 0.26473 0.0182161 0.00698021 0.00631531 0.000307897 -0.000135772 6.24705e-12 1.42896e-11 -6.97711e-12 5e-05 1.46608e-10 
254 1 0.264484 0.0171183 0.00730909 0.00574125 0.000303765 -0.000275647 -6.04139e-12 7.46991e-12 8.86384e-13 5e-05 1.46608e-10 
255 1 0.270009 0.0155584 0.00894473 0.00584126 0.000572297 0.000640352 3.07569e-11 6.16787e-11 -9.23265e-11 5e-05 1.46608e-10 
256 1 0.271106 0.0183026 0.00699419 0.00598031 -0.000325168 0.000213863 7.609e-11 -1.96106e-10 3.0045e-11 5e-05 1.46608e-10 
257 1 0.270567 0.0167045 0.00754557 0.00542665 0.00020295 0.000554405 -5.82398e-10 -5.83081e-11 -7.55391e-10 5e-05 1.46608e-10 
258 1 0.270712 0.0175944 0.00717543 0.00610055 -0.00024983 0.000245112 7.66413e-11 2.75835e-10 7.43727e-11 5e-05 1.46608e-10 
259 1 0.264561 0.0174455 0.00709738 0.00578097 0.000416618 -0.000144625 -3.39424e-12 1.11821e-12 3.73669e-13 5e-05 1.46608e-10 