ITEM: TIMESTEP
61800000
ITEM: NUMBER OF ATOMS
269
ITEM: BOX BOUNDS ff ff ff
-0.02 0.43
-0.02 0.06
-0.02 0.07
ITEM: ATOMS id type x y z vx vy vz fx fy fz radius mass 
1 1 0.373453 0.0179129 0.00702717 0.00563389 -2.03995e-06 0.000186752 6.59245e-12 8.09909e-11 -1.11158e-11 5e-05 1.46608e-10 
2 1 0.373202 0.0167756 0.00756619 0.00563309 -0.000238142 -0.000107904 -3.31787e-10 1.73398e-10 -1.04896e-10 5e-05 1.46608e-10 
4 1 0.373413 0.0169069 0.00746805 0.00576551 -0.000197159 -0.000141761 -1.20451e-10 6.14841e-11 -3.59593e-11 5e-05 1.46608e-10 
5 1 0.372969 0.0158881 0.00817276 0.00617563 -0.000344727 -6.2319e-05 5.44798e-12 1.79902e-11 -1.23753e-11 5e-05 1.46608e-10 
6 1 0.379104 0.0164252 0.00786098 0.00589281 -0.000470973 0.000808256 1.15326e-11 5.20863e-11 -2.12182e-11 5e-05 1.46608e-10 
7 1 0.373545 0.0175003 0.00713267 0.00559224 -1.6976e-05 0.000189228 1.77123e-11 -7.4106e-11 1.13441e-11 5e-05 1.46608e-10 
8 1 0.373216 0.0164753 0.00776705 0.00614966 -0.000344617 -6.34859e-05 -1.28255e-10 1.1389e-10 -8.65086e-11 5e-05 1.46608e-10 
9 1 0.379315 0.0173312 0.00749266 0.00726234 -0.000831313 0.0011065 -3.32991e-10 6.39086e-10 -3.57193e-10 5e-05 1.46608e-10 
10 1 0.373354 0.016664 0.00763388 0.00566428 -0.000228243 -0.000116165 1.03063e-10 -7.08638e-11 4.2455e-11 5e-05 1.46608e-10 
11 1 0.373643 0.017977 0.00701752 0.00563975 -2.02414e-05 0.000191383 2.44131e-11 1.10755e-13 -4.40006e-12 5e-05 1.46608e-10 
12 1 0.36763 0.0174615 0.00724428 0.00553019 -0.000179813 5.87645e-05 1.10747e-11 -1.96224e-11 -1.94177e-10 5e-05 1.46608e-10 
13 1 0.372947 0.0158076 0.00822787 0.00618785 -0.000347968 -6.071e-05 1.18625e-11 4.23925e-11 -2.89909e-11 5e-05 1.46608e-10 
14 1 0.367804 0.0182451 0.00694927 0.00563297 -0.000116459 5.28574e-05 5.02118e-11 -1.52037e-10 -7.50962e-12 5e-05 1.46608e-10 
16 1 0.367641 0.0184047 0.00694335 0.00610012 -0.000310413 -0.000236611 4.59599e-10 -1.38992e-10 2.61277e-12 5e-05 1.46608e-10 
17 1 0.37312 0.0164523 0.00778703 0.0060988 -0.000326165 -7.27532e-05 4.09589e-10 3.49832e-11 -2.15807e-11 5e-05 1.46608e-10 
19 1 0.373493 0.0181037 0.0069811 0.0056372 -1.75287e-05 0.000190313 1.32876e-11 3.36202e-11 -7.75718e-12 5e-05 1.46608e-10 
21 1 0.373584 0.017691 0.0070866 0.00562266 -2.12915e-05 0.000190797 8.91165e-12 -3.9369e-11 1.0988e-11 5e-05 1.46608e-10 
22 1 0.373373 0.016745 0.00757858 0.00581169 -0.000158159 -0.000170191 2.58779e-10 -3.43674e-10 2.17768e-10 5e-05 1.46608e-10 
23 1 0.367733 0.01806 0.00696191 0.0055919 -0.000124878 5.33323e-05 2.36865e-11 -1.92047e-10 -2.6041e-11 5e-05 1.46608e-10 
24 1 0.37923 0.0169692 0.00763969 0.00568836 -0.000364986 0.000741625 3.41447e-12 1.95022e-11 -8.05794e-12 5e-05 1.46608e-10 
26 1 0.379271 0.0171504 0.00756598 0.00559849 -0.000437248 0.000764623 -3.21269e-10 -3.42451e-10 6.26087e-11 5e-05 1.46608e-10 
27 1 0.367223 0.0165773 0.00784396 0.0058949 -0.0001077 0.000251967 -6.50998e-12 -5.67342e-11 -7.66413e-11 5e-05 1.46608e-10 
28 1 0.373593 0.0178773 0.00713566 0.00563411 -3.29748e-05 0.000187469 1.96174e-11 4.72435e-11 -2.94861e-12 5e-05 1.46608e-10 
29 1 0.372926 0.015727 0.00828298 0.00620008 -0.000351236 -5.90941e-05 1.53561e-11 5.43978e-11 -3.72369e-11 5e-05 1.46608e-10 
30 1 0.373077 0.0162911 0.00789724 0.00610637 -0.00035866 -4.9522e-05 -2.32921e-11 3.59453e-11 -1.19716e-11 5e-05 1.46608e-10 
31 1 0.373698 0.0178183 0.00705876 0.00563762 -2.08706e-05 0.000190683 5.89511e-11 8.26904e-12 9.47067e-13 5e-05 1.46608e-10 
32 1 0.247451 0.0181454 0.00545794 3.72962e-15 -5.32183e-14 -2.74083e-13 1.73704e-21 5.75925e-23 5.37667e-24 5e-05 1.46608e-10 
33 1 0.379125 0.016516 0.00782407 0.00586981 -0.00040504 0.000777511 9.02005e-12 4.142e-11 -1.69355e-11 5e-05 1.46608e-10 
35 1 0.373506 0.017313 0.00719114 0.00556694 -0.000132156 -0.00017515 2.17106e-11 -2.39978e-11 2.08153e-11 5e-05 1.46608e-10 
36 1 0.379383 0.0176024 0.00738294 0.00359209 0.000446258 0.000176978 -3.17966e-10 5.41371e-11 -5.60331e-11 5e-05 1.46608e-10 
37 1 0.373393 0.016826 0.00752333 0.00578447 -0.000196138 -0.000143409 -3.62395e-10 1.55343e-10 -8.57789e-11 5e-05 1.46608e-10 
38 1 0.37347 0.0171503 0.00730207 0.00563032 -0.000176278 -0.000148487 -5.79801e-11 2.60612e-11 5.23939e-12 5e-05 1.46608e-10 
39 1 0.37925 0.0170598 0.00760284 0.00565596 -0.000340146 0.000727602 1.93656e-12 1.35755e-11 -5.65971e-12 5e-05 1.46608e-10 
41 1 0.373012 0.0160493 0.00806255 0.00615018 -0.000343094 -6.22325e-05 -3.28414e-11 -1.27097e-10 8.61285e-11 5e-05 1.46608e-10 
42 1 0.373452 0.0170691 0.00735745 0.00565857 -0.000181249 -0.000148014 -5.09254e-12 2.60043e-11 -1.86941e-11 5e-05 1.46608e-10 
44 1 0.37364 0.0175323 0.00712787 0.005598 -1.21419e-05 0.000187659 -9.3896e-11 3.50662e-11 -1.24441e-11 5e-05 1.46608e-10 
45 1 0.379146 0.0166067 0.00778716 0.00584763 -0.000335521 0.000745307 6.37362e-12 3.08303e-11 -1.25772e-11 5e-05 1.46608e-10 
47 1 0.373034 0.0161299 0.00800745 0.00613415 -0.000348971 -5.73982e-05 -6.29885e-11 -2.28562e-10 1.57458e-10 5e-05 1.46608e-10 
48 1 0.373394 0.0176266 0.00709633 0.00559409 4.20991e-06 0.00018267 -1.09098e-11 -5.50123e-12 3.2648e-12 5e-05 1.46608e-10 
49 1 0.379339 0.0174213 0.00745634 0.00628647 -0.000584614 0.000897623 -1.06307e-11 -4.28738e-11 1.73694e-11 5e-05 1.46608e-10 
50 1 0.363905 0.0177071 0.00784245 -5.16097e-11 -0.0226023 0.00830937 -1.15495e-18 7.53123e-12 2.04907e-11 5e-05 1.46608e-10 
51 1 0.373718 0.0179136 0.00703574 0.00563703 -2.33254e-05 0.000191182 3.53293e-11 1.02301e-11 -1.53921e-12 5e-05 1.46608e-10 
52 1 0.367686 0.0177027 0.00707183 0.00568978 -0.00010674 7.81347e-06 9.8459e-11 2.50526e-10 -2.41832e-10 5e-05 1.46608e-10 
53 1 0.379188 0.016788 0.00771341 0.00577428 -0.000300786 0.000722722 -2.96545e-11 -4.61165e-11 3.27326e-11 5e-05 1.46608e-10 
54 1 0.373647 0.0184227 0.006907 0.00563371 -2.40128e-05 0.000192173 1.74858e-11 -7.08017e-11 3.52808e-11 5e-05 1.46608e-10 
55 1 0.367351 0.0170651 0.00751717 0.00574907 2.89341e-05 0.000155327 1.80014e-10 9.27181e-11 -5.0991e-11 5e-05 1.46608e-10 
56 1 0.373532 0.0182943 0.00693506 0.00563913 -2.00748e-05 0.000190885 2.4182e-11 2.51752e-11 -1.33598e-12 5e-05 1.46608e-10 
57 1 0.379167 0.0166974 0.00775026 0.00580943 -0.000358091 0.000751153 2.65521e-11 1.03787e-10 -6.03881e-11 5e-05 1.46608e-10 
59 1 0.378022 0.019866 0.005332 -5.01955e-15 -7.41197e-15 7.69802e-14 5.68687e-25 -2.1455e-24 -2.06795e-25 5e-05 1.46608e-10 
60 1 0.37366 0.0176276 0.00710482 0.00561505 -1.50647e-05 0.00018892 -8.74108e-11 4.01143e-11 -1.22771e-11 5e-05 1.46608e-10 
61 1 0.372991 0.0159687 0.00811766 0.00616321 -0.000342372 -6.32801e-05 -8.59337e-12 -3.18384e-11 2.18089e-11 5e-05 1.46608e-10 
62 1 0.373489 0.0172314 0.00724674 0.00560729 -0.000163381 -0.000138509 1.02388e-11 2.06521e-11 4.96951e-11 5e-05 1.46608e-10 
63 1 0.373722 0.0183582 0.00692544 0.0056455 -1.26087e-05 0.000189144 3.99424e-11 -5.00304e-11 1.25373e-11 5e-05 1.46608e-10 
64 1 0.379209 0.0168786 0.00767655 0.00572651 -0.00036496 0.000745531 4.43715e-12 2.26178e-11 -9.40375e-12 5e-05 1.46608e-10 
65 1 0.367382 0.0175383 0.00730113 0.00551516 -8.47518e-05 5.8832e-05 -5.92053e-12 2.64173e-10 -2.48797e-10 5e-05 1.46608e-10 
66 1 0.367519 0.0177921 0.0070103 0.00563695 -0.000170172 5.90204e-05 -9.29311e-12 5.54431e-11 8.89069e-11 5e-05 1.46608e-10 
67 1 0.373604 0.0177863 0.00706357 0.00563496 -2.15682e-05 0.00019085 1.72306e-11 -3.88764e-11 1.09619e-11 5e-05 1.46608e-10 
68 1 0.373356 0.017043 0.00737948 0.00567058 -0.000198308 -0.000136573 -5.17571e-11 1.00795e-13 5.40226e-12 5e-05 1.46608e-10 
69 1 0.373757 0.0181042 0.0069897 0.00563359 -2.59377e-05 0.000192243 2.60232e-11 -1.22843e-12 6.47942e-13 5e-05 1.46608e-10 
70 1 0.379292 0.017241 0.00752912 0.0055634 -0.000386421 0.000735752 5.66355e-10 -3.07291e-10 2.23464e-10 5e-05 1.46608e-10 
71 1 0.367621 0.0183067 0.00694574 0.0056171 -0.000221117 -0.000248805 -6.33165e-11 -8.08752e-11 7.19666e-10 5e-05 1.46608e-10 
72 1 0.373663 0.0180723 0.0069945 0.00563603 -2.28632e-05 0.000191527 8.00787e-12 4.26528e-12 3.60936e-13 5e-05 1.46608e-10 
73 1 0.373433 0.0169879 0.00741277 0.00570237 -0.000188692 -0.000144573 1.07454e-10 7.08574e-12 -1.43708e-11 5e-05 1.46608e-10 
74 1 0.373056 0.0162105 0.00795237 0.00611866 -0.00035792 -5.08684e-05 -1.62748e-11 -1.97259e-10 1.32991e-10 5e-05 1.46608e-10 
76 1 0.367288 0.0168208 0.00768088 0.00585239 -8.23357e-05 0.000235171 -5.33736e-13 -3.02794e-12 1.37156e-11 5e-05 1.46608e-10 
77 1 0.373222 0.0168566 0.00751093 0.00572273 -0.000245309 -0.000107228 -6.1857e-11 -5.25781e-11 3.6763e-11 5e-05 1.46608e-10 
78 1 0.366826 0.0154141 0.00862024 0.00559741 -4.12251e-05 0.000199013 1.32595e-11 2.47048e-11 -1.55879e-11 5e-05 1.46608e-10 
79 1 0.367663 0.0185023 0.00694177 0.0060539 -0.000291237 -0.000230624 5.26265e-11 -2.51627e-10 -5.82833e-11 5e-05 1.46608e-10 
80 1 0.373317 0.016881 0.00749004 0.00577348 -0.000221776 -0.000125619 -1.08141e-10 -5.28583e-11 3.93759e-11 5e-05 1.46608e-10 
82 1 0.367561 0.0179337 0.00696955 0.00560738 -0.000155421 6.2347e-05 2.66983e-10 1.28348e-10 4.22763e-11 5e-05 1.46608e-10 
83 1 0.367649 0.0175414 0.00718718 0.0055495 -0.000188792 5.72694e-05 1.82855e-10 4.18452e-11 -2.6169e-11 5e-05 1.46608e-10 
84 1 0.379362 0.0175115 0.00741986 0.00610627 -0.00053978 0.000859808 -9.68669e-12 -4.02194e-11 1.63077e-11 5e-05 1.46608e-10 
85 1 0.367491 0.0181008 0.00704023 0.00556996 7.8867e-06 -1.63542e-05 -1.55148e-10 -9.46638e-11 -2.7264e-10 5e-05 1.46608e-10 
86 1 0.373621 0.0174369 0.00715092 0.00557881 -9.15874e-06 0.000186745 -3.32157e-11 1.87604e-11 -5.20404e-12 5e-05 1.46608e-10 
87 1 0.373277 0.0167191 0.00760058 0.00562826 -0.000255633 -9.59683e-05 -1.16339e-10 1.31419e-10 -8.47071e-11 5e-05 1.46608e-10 
88 1 0.373412 0.0172901 0.00721923 0.00559197 -0.000143209 -7.57376e-05 2.00768e-13 -3.46998e-11 -8.88153e-11 5e-05 1.46608e-10 
89 1 0.373777 0.0181995 0.00696668 0.00563847 -2.67783e-05 0.000192652 6.86946e-11 -2.72439e-11 9.02391e-12 5e-05 1.46608e-10 
90 1 0.373623 0.0178817 0.00704054 0.00563764 -1.94893e-05 0.000190329 3.69955e-11 -1.30558e-11 -2.79799e-13 5e-05 1.46608e-10 
91 1 0.367479 0.0171925 0.00743478 0.00542524 -4.43355e-05 0.000191727 2.13451e-10 1.44312e-10 1.97881e-11 5e-05 1.46608e-10 
92 1 0.373317 0.0172626 0.00723396 0.00564214 -0.000314926 -5.75325e-05 -4.27392e-12 -4.34557e-11 2.20993e-11 5e-05 1.46608e-10 
93 1 0.373463 0.0177261 0.00716055 0.00559609 1.21465e-05 0.000175028 -1.44904e-11 3.62568e-11 -3.90879e-11 5e-05 1.46608e-10 
94 1 0.373568 0.0180404 0.0069993 0.00563931 -1.69557e-05 0.00019025 2.06395e-11 1.67953e-11 -5.49602e-12 5e-05 1.46608e-10 
95 1 0.373507 0.0179228 0.00711077 0.00563594 -1.45159e-05 0.000187426 2.54316e-11 5.3861e-11 -4.57482e-12 5e-05 1.46608e-10 
96 1 0.373299 0.0171809 0.0072897 0.00562495 -0.00020374 -0.000130425 1.29374e-11 3.67751e-12 4.3072e-13 5e-05 1.46608e-10 
97 1 0.366911 0.0157388 0.00840275 0.00606901 -0.00011941 0.000266259 -4.97177e-12 -2.23963e-11 1.34394e-11 5e-05 1.46608e-10 
98 1 0.373173 0.0163141 0.00787729 0.00614744 -0.000321187 -7.66042e-05 -8.17047e-11 -1.98394e-11 2.06779e-11 5e-05 1.46608e-10 
99 1 0.367352 0.0174476 0.00726496 0.00541753 -6.56557e-05 0.000165326 3.39231e-11 4.8986e-10 1.40961e-10 5e-05 1.46608e-10 
100 1 0.373565 0.0175957 0.00710963 0.0056061 -1.93208e-05 0.000189875 6.99277e-12 -3.45969e-11 2.98663e-12 5e-05 1.46608e-10 
101 1 0.367369 0.0175242 0.00720298 0.00548231 -0.000171034 5.55773e-05 -3.03107e-11 1.88885e-10 -1.71206e-10 5e-05 1.46608e-10 
102 1 0.0643568 0.0187248 0.00531097 4.27297e-15 1.04804e-14 8.29618e-14 2.72516e-21 -9.92591e-22 -8.4786e-24 5e-05 1.46608e-10 
103 1 0.230779 0.0182774 0.00551293 -5.41848e-15 6.60105e-15 4.46796e-14 -6.8687e-22 -2.91917e-22 -3.78435e-23 5e-05 1.46608e-10 
104 1 0.36761 0.0186664 0.00694255 0.00607691 -0.000247352 -0.00023261 -4.46179e-11 -1.57237e-10 -5.62516e-12 5e-05 1.46608e-10 
105 1 0.366933 0.0158199 0.00834842 0.00605255 -0.000119827 0.000266063 -5.25792e-12 -2.14203e-11 1.42465e-11 5e-05 1.46608e-10 
106 1 0.36739 0.0172287 0.00740751 0.00549407 2.69049e-05 0.000152164 3.97485e-11 -3.28022e-10 3.23019e-10 5e-05 1.46608e-10 
107 1 0.366847 0.0154954 0.00856576 0.00611714 -0.000123485 0.00027052 -3.28051e-12 1.10348e-11 -7.43093e-12 5e-05 1.46608e-10 
108 1 0.373702 0.0182629 0.00694846 0.00564793 -1.5251e-05 0.000190043 5.71785e-11 -2.93443e-11 7.98263e-12 5e-05 1.46608e-10 
109 1 0.373552 0.0183896 0.00691204 0.00564484 -1.78662e-05 0.000190671 -1.23782e-11 -1.52018e-11 -1.3175e-11 5e-05 1.46608e-10 
110 1 0.373401 0.0175337 0.00721577 0.00560016 7.99638e-06 0.000182541 -5.66317e-11 4.65038e-11 2.09554e-11 5e-05 1.46608e-10 
111 1 0.373182 0.0166947 0.00762145 0.00562662 -0.000237999 -0.000108277 3.53432e-10 2.49034e-10 -1.90642e-10 5e-05 1.46608e-10 
112 1 0.367386 0.0176209 0.00724484 0.00551709 -0.000140376 -9.69042e-06 -1.3288e-10 2.28554e-10 -3.91814e-10 5e-05 1.46608e-10 
113 1 0.367256 0.017037 0.00753335 0.00578202 -7.49158e-05 0.000226357 -6.66558e-11 -1.21319e-11 4.56432e-11 5e-05 1.46608e-10 
114 1 0.367314 0.0172814 0.00736945 0.00543347 -4.77305e-05 0.000196847 1.08129e-10 2.56038e-10 -6.2632e-11 5e-05 1.46608e-10 
115 1 0.373601 0.0173411 0.00717405 0.00559978 1.90201e-05 0.000178486 2.84807e-11 3.00195e-11 1.13587e-11 5e-05 1.46608e-10 
116 1 0.37349 0.0176591 0.00709141 0.00559843 -6.25107e-06 0.00018663 -3.00795e-11 -1.26113e-11 -1.35854e-12 5e-05 1.46608e-10 
117 1 0.373526 0.0174056 0.00715897 0.00557761 -1.76355e-05 0.000155848 -1.66738e-11 -2.25504e-11 -2.82381e-11 5e-05 1.46608e-10 
118 1 0.367498 0.0172739 0.00737972 0.00543446 -0.000115218 7.37437e-05 9.64512e-11 4.03576e-10 2.13379e-10 5e-05 1.46608e-10 
119 1 0.373682 0.0181676 0.00697148 0.00563523 -2.47759e-05 0.000191968 2.88967e-11 1.23842e-11 -2.92079e-12 5e-05 1.46608e-10 
120 1 0.373334 0.016583 0.00768915 0.00570128 -0.000213482 -0.000127836 1.37909e-10 -1.08863e-10 6.36255e-11 5e-05 1.46608e-10 
121 1 0.373587 0.0181357 0.00697628 0.00563771 -2.01684e-05 0.000191037 1.79865e-11 2.2543e-11 -3.84607e-12 5e-05 1.46608e-10 
122 1 0.37328 0.0170997 0.00734505 0.00565289 -0.000210259 -0.000127615 -7.27531e-12 -3.37449e-11 2.45494e-11 5e-05 1.46608e-10 
123 1 0.367527 0.0182746 0.00695047 0.00560769 -0.000193945 -0.000335276 -5.35401e-11 -1.92494e-10 6.73036e-10 5e-05 1.46608e-10 
124 1 0.373194 0.0163947 0.00782218 0.00612694 -0.000325088 -7.38001e-05 -1.66879e-10 1.92305e-10 -1.3331e-10 5e-05 1.46608e-10 
125 1 0.373393 0.0172055 0.00726898 0.0056192 -0.000187922 -0.000141612 1.11381e-11 2.0157e-11 -9.7604e-12 5e-05 1.46608e-10 
127 1 0.36689 0.0156577 0.00845709 0.00608553 -0.000119702 0.000266852 -6.21301e-12 -1.37757e-11 9.73351e-12 5e-05 1.46608e-10 
128 1 0.373099 0.0163717 0.00784213 0.00609388 -0.000344941 -5.77716e-05 9.1549e-11 1.66274e-10 -1.24754e-10 5e-05 1.46608e-10 
129 1 0.373584 0.0180071 0.00709227 0.00563867 -2.07904e-05 0.000190308 -9.14381e-12 -4.16877e-11 -3.09406e-11 5e-05 1.46608e-10 
130 1 0.367428 0.0173911 0.00729695 0.00538552 -0.000196894 6.70532e-05 -5.63258e-10 -1.15545e-10 4.81031e-12 5e-05 1.46608e-10 
131 1 0.367446 0.0174712 0.00723972 0.00547091 -0.000227916 8.93281e-05 -1.12472e-10 -7.6053e-11 -9.41134e-11 5e-05 1.46608e-10 
132 1 0.373583 0.0172571 0.00722501 0.00560692 -0.000173873 -0.000145714 2.42096e-11 2.50885e-11 1.01186e-11 5e-05 1.46608e-10 
133 1 0.373509 0.0177544 0.00706837 0.00561069 -3.66746e-06 0.000184642 -5.00571e-11 1.37999e-12 -8.07372e-12 5e-05 1.46608e-10 
134 1 0.37347 0.0175638 0.00711444 0.00559927 -7.6902e-06 0.000186818 7.1632e-13 -3.0699e-11 7.43003e-12 5e-05 1.46608e-10 
135 1 0.373738 0.0180089 0.00701272 0.00563464 -2.45202e-05 0.000191895 4.91242e-12 6.91491e-12 -2.65618e-12 5e-05 1.46608e-10 
136 1 0.367331 0.0169836 0.00757182 0.00580633 -5.69885e-05 0.00021566 -1.63259e-10 -1.5234e-10 7.01787e-11 5e-05 1.46608e-10 
137 1 0.373591 0.0185803 0.00686645 0.00564799 -9.65266e-05 -0.000154321 -4.10844e-11 -7.31878e-11 6.4613e-12 5e-05 1.46608e-10 
138 1 0.373355 0.017436 0.00714239 0.00558737 -8.7414e-06 0.000186674 3.41138e-12 9.79866e-12 -3.60608e-12 5e-05 1.46608e-10 
140 1 0.373242 0.0169375 0.00745568 0.00575927 -0.000241155 -0.000111679 -2.79707e-11 -9.30972e-11 6.56603e-11 5e-05 1.46608e-10 
141 1 0.367335 0.0166235 0.00781604 0.00588107 -9.41555e-05 0.000243312 8.00052e-11 -1.99047e-11 4.59233e-11 5e-05 1.46608e-10 
142 1 0.367696 0.017875 0.00697478 0.00555015 -9.12748e-05 4.89526e-05 -2.63695e-10 -1.01807e-10 8.25441e-11 5e-05 1.46608e-10 
143 1 0.366868 0.0155765 0.00851142 0.00610101 -0.000121018 0.000268417 8.57941e-12 -1.0362e-12 2.86895e-12 5e-05 1.46608e-10 
144 1 0.367535 0.017434 0.00726583 0.0055527 -0.000271001 -0.000147065 4.12265e-10 -2.40096e-10 -2.27611e-10 5e-05 1.46608e-10 
146 1 0.367041 0.0162256 0.00807678 0.00597092 -0.000120463 0.00026397 2.68358e-12 -2.55135e-11 1.38989e-11 5e-05 1.46608e-10 
147 1 0.367408 0.0173103 0.00735274 0.00546801 4.54823e-05 0.000148179 -4.39029e-10 -1.57591e-10 3.5918e-10 5e-05 1.46608e-10 
148 1 0.367356 0.0167046 0.00776171 0.00587329 -8.71069e-05 0.000237197 6.01189e-11 1.61927e-12 1.3971e-12 5e-05 1.46608e-10 
149 1 0.373142 0.0165329 0.00773193 0.006104 -0.000313925 -8.37204e-05 -9.04087e-10 7.06363e-12 1.08225e-10 5e-05 1.46608e-10 
150 1 0.36747 0.0179987 0.0070516 0.00567862 -0.000156529 6.57696e-05 -1.03322e-10 3.60252e-10 -1.00995e-11 5e-05 1.46608e-10 
151 1 0.367406 0.0176843 0.0070892 0.00554193 -0.000203214 1.78381e-05 -1.29521e-10 1.32605e-10 1.81111e-10 5e-05 1.46608e-10 
153 1 0.367378 0.0167857 0.00770738 0.0058598 -7.78241e-05 0.000232238 6.01421e-12 -2.57645e-11 -2.98523e-12 5e-05 1.46608e-10 
154 1 0.355501 0.0181413 0.00692186 0.00548458 -0.00103517 0.00021961 -3.15572e-13 6.63323e-14 -8.60529e-15 5e-05 1.46608e-10 
155 1 0.367431 0.0176928 0.00718563 0.00546351 -0.000242639 4.01665e-05 2.97057e-11 9.20001e-11 9.26634e-11 5e-05 1.46608e-10 
156 1 0.367313 0.0165424 0.00787037 0.0058973 -9.90253e-05 0.000248197 -1.21852e-11 -1.23358e-11 5.83662e-11 5e-05 1.46608e-10 
157 1 0.0219312 0.0187687 0.00551176 -3.83759e-14 8.16442e-14 2.95888e-13 -6.17542e-23 2.16566e-22 -8.18909e-23 5e-05 1.46608e-10 
158 1 0.367421 0.0169481 0.00759866 0.00580067 -7.95645e-05 0.000228975 -1.60916e-10 -1.76282e-10 9.72645e-11 5e-05 1.46608e-10 
159 1 0.373662 0.0179479 0.00711124 0.00563324 -3.16529e-05 0.000190503 4.18409e-11 1.86703e-11 1.78643e-12 5e-05 1.46608e-10 
160 1 0.367387 0.0176044 0.00714621 0.00551909 -0.000213144 -3.73484e-06 -9.41196e-11 7.69359e-11 -1.54218e-10 5e-05 1.46608e-10 
162 1 0.36767 0.0182676 0.00702362 0.00543438 -5.85241e-05 -3.34122e-05 -2.05306e-11 -5.71324e-11 -4.67492e-11 5e-05 1.46608e-10 
164 1 0.367356 0.0173792 0.00741048 0.00543283 -5.61253e-05 0.000192267 -7.76483e-11 8.54958e-11 1.3451e-10 5e-05 1.46608e-10 
165 1 0.367461 0.0179425 0.00696929 0.00562619 -0.000162847 6.30438e-05 -9.43094e-11 -4.49428e-11 7.13141e-11 5e-05 1.46608e-10 
166 1 0.373375 0.0175313 0.00711936 0.00559112 -8.62154e-09 0.000184593 -2.07607e-12 -1.27574e-11 3.73543e-12 5e-05 1.46608e-10 
167 1 0.367454 0.0178123 0.00711536 0.00558921 -0.000202147 4.20444e-05 -1.23682e-10 1.74839e-10 4.77259e-10 5e-05 1.46608e-10 
168 1 0.367549 0.0181136 0.00695915 0.00559869 -0.000107637 -2.24941e-05 3.18304e-11 -3.22896e-10 -3.47325e-10 5e-05 1.46608e-10 
169 1 0.367449 0.0179116 0.00710438 0.0055313 -0.000189247 6.74031e-05 -1.72545e-11 1.12376e-10 -3.85284e-10 5e-05 1.46608e-10 
170 1 0.367481 0.0180403 0.00696134 0.00566121 -0.000157235 6.91144e-05 1.08472e-10 -9.86093e-11 -1.0727e-10 5e-05 1.46608e-10 
171 1 0.373627 0.0183264 0.00693023 0.00564958 -1.31097e-05 0.000189602 1.14754e-11 -3.03079e-11 6.64856e-12 5e-05 1.46608e-10 
172 1 0.367235 0.0169558 0.00758777 0.00583566 -8.20915e-05 0.000234737 -3.50041e-11 -2.40639e-11 2.11036e-11 5e-05 1.46608e-10 
173 1 0.373512 0.018199 0.00695808 0.00563893 -1.85791e-05 0.000190798 1.82839e-11 4.41275e-11 -8.91745e-12 5e-05 1.46608e-10 
174 1 0.366998 0.0160633 0.00818542 0.00600325 -0.0001207 0.000265081 -3.0384e-12 -7.56159e-12 5.1346e-12 5e-05 1.46608e-10 
176 1 0.367461 0.0171108 0.00748956 0.00552754 -4.16055e-05 0.000235785 -4.19514e-10 5.68107e-11 2.69624e-11 5e-05 1.46608e-10 
177 1 0.367317 0.017306 0.00746632 0.00542364 -5.19795e-05 0.000205155 7.92163e-11 7.63644e-11 8.47468e-11 5e-05 1.46608e-10 
178 1 0.367528 0.0178837 0.00704957 0.00560806 -0.000167731 9.38316e-05 3.06003e-10 1.11548e-10 2.73971e-10 5e-05 1.46608e-10 
179 1 0.367586 0.0179135 0.00712523 0.00559301 -0.000110516 7.28831e-05 3.6537e-10 2.10522e-10 3.61039e-10 5e-05 1.46608e-10 
182 1 0.373473 0.0180084 0.00700413 0.00563785 -6.2217e-06 0.000187683 1.7718e-11 3.83826e-11 -8.03715e-12 5e-05 1.46608e-10 
183 1 0.367296 0.0171998 0.00742422 0.00553157 -4.60446e-05 0.000201751 2.56364e-11 6.19991e-12 -2.22381e-11 5e-05 1.46608e-10 
184 1 0.373548 0.0179451 0.00702232 0.00563781 -1.36461e-05 0.000189235 1.17697e-11 -1.6618e-12 -9.13553e-12 5e-05 1.46608e-10 
185 1 0.367553 0.0175136 0.00720823 0.0055705 -0.000201151 -4.892e-05 2.57291e-10 -9.49612e-11 6.12659e-11 5e-05 1.46608e-10 
186 1 0.367508 0.0181929 0.00700511 0.0056371 -3.3611e-05 -0.000153826 1.94599e-11 -6.15213e-10 -3.05139e-10 5e-05 1.46608e-10 
187 1 0.373529 0.0178498 0.00704534 0.00562942 -8.46911e-06 0.00018684 -5.21343e-11 8.60071e-12 -1.65401e-11 5e-05 1.46608e-10 
188 1 0.373375 0.0171241 0.00732415 0.00564419 -0.000193224 -0.000138602 -3.24694e-11 2.05611e-11 -6.96757e-12 5e-05 1.46608e-10 
189 1 0.373509 0.0180711 0.0070742 0.00563475 -2.48873e-05 0.000189244 1.22881e-11 -8.71852e-12 -1.8144e-11 5e-05 1.46608e-10 
190 1 0.361541 0.0183505 0.00696943 0.00609723 5.86533e-05 -9.35715e-05 8.13526e-11 1.55851e-10 1.74259e-11 5e-05 1.46608e-10 
191 1 0.373163 0.0166137 0.00767672 0.00573022 -0.000255453 -0.000102037 2.65302e-10 1.18652e-10 -5.87134e-11 5e-05 1.46608e-10 
192 1 0.367276 0.0171184 0.00747876 0.00567023 -6.11888e-05 0.000215287 -3.1493e-12 -2.41365e-11 1.18868e-11 5e-05 1.46608e-10 
193 1 0.373571 0.0184854 0.00689129 0.00564445 -5.29716e-05 1.88693e-05 1.99022e-11 -4.39242e-11 -2.12116e-11 5e-05 1.46608e-10 
194 1 0.367721 0.0183017 0.0069446 0.0056255 -0.000127885 5.30606e-05 1.17722e-10 -4.51295e-11 -2.34009e-11 5e-05 1.46608e-10 
195 1 0.367598 0.0180266 0.00696323 0.00556701 -0.00010434 6.77112e-05 1.1411e-10 -3.7358e-11 4.37022e-12 5e-05 1.46608e-10 
196 1 0.367608 0.0177535 0.00703663 0.00564925 -0.000148194 3.94104e-05 6.20144e-11 1.40599e-10 1.96676e-11 5e-05 1.46608e-10 
197 1 0.361236 0.0169457 0.00755108 0.00574148 0.000181178 -3.46056e-05 -5.7095e-11 -2.48298e-10 1.59954e-10 5e-05 1.46608e-10 
198 1 0.367669 0.0176218 0.00712966 0.0055794 -0.000242696 0.000100721 -6.98311e-12 -1.15014e-11 -1.65936e-10 5e-05 1.46608e-10 
199 1 0.367779 0.0181484 0.00695597 0.00564025 -0.000133494 4.82267e-05 -1.29373e-10 -1.39855e-10 5.80842e-11 5e-05 1.46608e-10 
200 1 0.36727 0.0163801 0.00797903 0.00592346 -0.000108891 0.000254618 -6.90632e-11 1.93606e-11 -1.4627e-11 5e-05 1.46608e-10 
201 1 0.367648 0.0181135 0.00695743 0.00560927 -9.15435e-05 5.44199e-05 2.48521e-11 -1.82292e-12 7.14126e-12 5e-05 1.46608e-10 
202 1 0.367441 0.0170295 0.00754407 0.00571018 -7.54345e-05 0.000235055 -3.01899e-10 -9.35303e-11 1.30659e-10 5e-05 1.46608e-10 
203 1 0.373451 0.0174684 0.00713747 0.00558818 -8.36694e-06 0.000187121 -1.7026e-11 -3.96733e-11 -2.14106e-11 5e-05 1.46608e-10 
204 1 0.367741 0.0183996 0.00693954 0.00612332 -0.000238462 -0.000235954 3.45197e-10 -2.0214e-10 -5.5248e-11 5e-05 1.46608e-10 
206 1 0.367202 0.0164961 0.00789832 0.00591414 -0.000110257 0.00025517 -6.91029e-11 -3.40672e-12 -5.85176e-12 5e-05 1.46608e-10 
207 1 0.367158 0.0163332 0.0080074 0.00594925 -0.000106567 0.000253901 -7.26865e-11 -7.43421e-11 4.83903e-11 5e-05 1.46608e-10 
208 1 0.367701 0.0177833 0.0070143 0.00562741 -0.000101982 3.70393e-06 -1.99921e-10 -3.12834e-11 -3.24606e-10 5e-05 1.46608e-10 
209 1 0.367371 0.0171465 0.00746263 0.00567062 8.31369e-05 0.000116582 2.66292e-10 7.59198e-11 -2.79739e-11 5e-05 1.46608e-10 
210 1 0.373237 0.0165567 0.00771146 0.00611396 -4.8458e-05 -0.000261658 -5.57033e-10 6.78898e-10 -4.08143e-10 5e-05 1.46608e-10 
211 1 0.373257 0.0166381 0.00765585 0.00567706 -0.000243495 -0.000107255 4.93995e-10 -5.40393e-11 1.36257e-11 5e-05 1.46608e-10 
212 1 0.367695 0.0182029 0.00695144 0.00562339 -0.000120576 4.74612e-05 -2.88213e-11 3.52583e-11 1.85687e-10 5e-05 1.46608e-10 
213 1 0.373434 0.0178174 0.00705025 0.0056336 2.03821e-05 0.000178647 -5.14373e-11 -9.66423e-11 1.9681e-11 5e-05 1.46608e-10 
214 1 0.373336 0.016962 0.00743476 0.00574761 -0.000212818 -0.000130436 -1.32225e-10 3.92384e-12 4.69436e-12 5e-05 1.46608e-10 
215 1 0.361445 0.0178646 0.0069845 0.00573892 0.000124795 6.33341e-06 3.5278e-10 1.10033e-10 1.77838e-10 5e-05 1.46608e-10 
216 1 0.366976 0.0159822 0.00823975 0.00601967 -0.00012063 0.000265585 -2.42241e-12 -9.25338e-12 5.44772e-12 5e-05 1.46608e-10 
217 1 0.373607 0.018231 0.00695326 0.00563782 -2.18783e-05 0.000191309 2.27617e-11 1.44371e-11 -1.84398e-12 5e-05 1.46608e-10 
218 1 0.367332 0.017363 0.00731468 0.00540335 -4.0779e-05 0.000202711 1.99958e-10 4.22664e-10 -8.18012e-11 5e-05 1.46608e-10 
219 1 0.373443 0.0176308 0.00718358 0.00561018 1.07111e-05 0.000176223 5.80294e-12 -6.19148e-12 -1.28598e-11 5e-05 1.46608e-10 
220 1 0.367464 0.0175512 0.00718255 0.00552541 -0.000223936 8.76315e-05 2.01352e-10 -1.12463e-10 1.23739e-11 5e-05 1.46608e-10 
222 1 0.373679 0.017723 0.00708179 0.00563027 -1.83183e-05 0.000190122 5.15529e-12 2.348e-11 -5.25151e-12 5e-05 1.46608e-10 
224 1 0.367245 0.0166585 0.00778958 0.00587972 -0.000101212 0.000246599 6.72689e-11 -3.56349e-11 -5.92167e-11 5e-05 1.46608e-10 
225 1 0.373297 0.0168001 0.0075453 0.00574435 -0.000221332 -0.000124571 8.80955e-11 -1.34463e-10 8.72781e-11 5e-05 1.46608e-10 
226 1 0.367682 0.0179738 0.00696764 0.00554607 -0.000102945 5.33339e-05 1.20814e-10 -9.01745e-11 4.5143e-11 5e-05 1.46608e-10 
227 1 0.361465 0.0179582 0.00695521 0.00575082 0.000120837 -4.78418e-05 6.47894e-11 -1.7934e-10 -1.3617e-10 5e-05 1.46608e-10 
228 1 0.361407 0.0176974 0.0070876 0.00568024 0.000142089 -6.52607e-06 3.88462e-11 4.63612e-12 -9.26268e-12 5e-05 1.46608e-10 
229 1 0.367595 0.0182017 0.00695217 0.00562646 -0.000159473 -0.000148403 -1.37596e-10 -2.78889e-10 -2.8048e-10 5e-05 1.46608e-10 
230 1 0.367127 0.0165501 0.00785943 0.00590601 -0.000115371 0.000258524 -1.64802e-11 -3.06042e-12 2.60002e-11 5e-05 1.46608e-10 
232 1 0.367588 0.0185686 0.00694414 0.00606018 -0.000283955 -0.000231675 1.43575e-10 6.7272e-11 -1.43226e-11 5e-05 1.46608e-10 
233 1 0.367425 0.0177645 0.00703247 0.00560779 -0.00019064 4.40234e-05 -7.0193e-11 1.45707e-10 1.78545e-10 5e-05 1.46608e-10 
234 1 0.373261 0.0170185 0.00740041 0.00567384 -0.000218063 -0.000123457 -5.22183e-11 -6.78292e-11 4.80371e-11 5e-05 1.46608e-10 
235 1 0.367084 0.0163879 0.00796809 0.00593677 -0.000119112 0.000262327 -1.63151e-11 -3.07122e-11 1.9439e-11 5e-05 1.46608e-10 
236 1 0.367192 0.0167935 0.00769643 0.00586279 -9.61686e-05 0.000242085 1.78287e-11 9.54767e-12 -7.84423e-12 5e-05 1.46608e-10 
237 1 0.367213 0.0168746 0.0076421 0.00584608 -8.72959e-05 0.000237786 1.73818e-11 -2.80466e-11 -3.68776e-11 5e-05 1.46608e-10 
239 1 0.361132 0.0165294 0.00780763 0.0060493 0.000145768 -8.02082e-06 -1.03841e-11 5.35357e-11 -2.70137e-11 5e-05 1.46608e-10 
240 1 0.361195 0.016779 0.00765384 0.00569617 0.000199442 -4.71214e-05 2.32648e-10 -1.62727e-10 1.11981e-10 5e-05 1.46608e-10 
241 1 0.36111 0.0164462 0.00785887 0.00606876 0.000134343 -3.81321e-07 2.8881e-11 6.57308e-11 -4.45538e-11 5e-05 1.46608e-10 
242 1 0.367292 0.0164612 0.0079247 0.00591606 -0.00010458 0.000251555 -9.57893e-11 2.62402e-13 -3.46135e-12 5e-05 1.46608e-10 
243 1 0.367591 0.0176733 0.00709395 0.00564796 -0.000153803 3.83326e-05 7.42976e-11 1.18429e-10 4.81585e-11 5e-05 1.46608e-10 
244 1 0.361153 0.0166126 0.00775639 0.00602588 0.000153724 -1.26139e-05 2.25132e-11 -2.48787e-11 1.12261e-11 5e-05 1.46608e-10 
246 1 0.361335 0.0173628 0.00729394 0.0055257 0.00020415 -5.03713e-05 1.44457e-10 -1.84401e-11 4.90045e-12 5e-05 1.46608e-10 
248 1 0.367553 0.0178035 0.00710378 0.00561547 -0.000184676 5.93366e-05 1.71492e-10 -2.74199e-10 3.88021e-10 5e-05 1.46608e-10 
249 1 0.361276 0.0171125 0.00744823 0.00556273 0.000206468 -5.29647e-05 -1.87325e-10 -1.83883e-10 9.849e-11 5e-05 1.46608e-10 
250 1 0.383346 0.0176401 0.00786317 2.39267e-05 -0.0222596 0.0086408 -1.82632e-11 -1.55114e-10 8.19169e-11 5e-05 1.46608e-10 
251 1 0.373432 0.0173779 0.00717548 0.00557854 -5.35964e-05 8.86797e-05 -1.33251e-11 -7.09495e-11 -1.25651e-10 5e-05 1.46608e-10 
252 1 0.361351 0.0174468 0.00724215 0.00554394 0.000193598 -4.18081e-05 -1.69864e-10 3.5047e-11 -1.97041e-11 5e-05 1.46608e-10 
253 1 0.361524 0.018252 0.00696533 0.00595694 9.39981e-05 -8.96317e-05 2.63211e-10 2.92972e-11 -8.89089e-12 5e-05 1.46608e-10 
254 1 0.361297 0.0171957 0.00739698 0.00550257 0.000224146 -6.23831e-05 -6.8148e-11 -1.01744e-10 3.0757e-11 5e-05 1.46608e-10 
255 1 0.367566 0.0184706 0.00694574 0.00604205 -0.000341356 -0.000230722 1.89442e-10 1.01027e-10 -1.42628e-11 5e-05 1.46608e-10 
256 1 0.367546 0.0183726 0.00694728 0.00556176 -0.000227169 -0.000229859 2.48712e-10 1.90357e-10 6.0099e-11 5e-05 1.46608e-10 
257 1 0.3674 0.0168669 0.00765304 0.00583696 -7.51609e-05 0.00022876 -1.19089e-10 -8.09747e-11 6.25226e-11 5e-05 1.46608e-10 
258 1 0.367569 0.0179883 0.00705292 0.00566701 6.41752e-05 -9.12914e-05 3.30576e-11 4.50385e-11 8.06496e-11 5e-05 1.46608e-10 
259 1 0.36137 0.0175304 0.00719057 0.00558414 0.000183487 -3.29575e-05 -1.42165e-10 -2.56946e-11 -1.89633e-11 5e-05 1.46608e-10 
260 1 0.367442 0.0178446 0.00697497 0.00563923 -0.000181053 5.87475e-05 4.35703e-11 2.34663e-11 6.43516e-11 5e-05 1.46608e-10 
261 1 0.367648 0.0178314 0.00708457 0.00563738 -0.000145287 3.80952e-05 -2.61582e-10 1.56441e-10 4.43319e-11 5e-05 1.46608e-10 
262 1 0.367531 0.0177131 0.00716382 0.00565007 -0.000219584 4.5135e-05 -6.05882e-11 -1.08876e-11 -4.06484e-10 5e-05 1.46608e-10 