ITEM: TIMESTEP
46000000
ITEM: NUMBER OF ATOMS
275
ITEM: BOX BOUNDS ff ff ff
-0.02 0.43
-0.02 0.06
-0.02 0.07
ITEM: ATOMS id type x y z vx vy vz fx fy fz radius mass 
1 1 0.281495 0.0182496 0.00690506 0.00591165 0.000301671 -0.000198179 -2.98686e-10 2.00567e-10 -5.25693e-11 5e-05 1.46608e-10 
2 1 0.281147 0.0171163 0.0073226 0.00625049 0.000302361 7.98023e-05 1.3959e-11 6.0604e-11 -2.25273e-11 5e-05 1.46608e-10 
4 1 0.281297 0.0169941 0.00737345 0.00623565 0.000280771 8.97491e-05 5.83988e-11 -1.29434e-11 1.57431e-11 5e-05 1.46608e-10 
5 1 0.280778 0.0157268 0.00849127 0.00581317 0.00026569 -0.000188253 8.65973e-11 -1.15818e-12 2.09189e-12 5e-05 1.46608e-10 
6 1 0.287111 0.0169798 0.00741642 0.00598679 -0.000675612 -0.000454344 -2.84284e-12 9.62613e-11 -8.98049e-11 5e-05 1.46608e-10 
7 1 0.281449 0.0176346 0.00713518 0.00634344 0.000163109 -0.00024725 1.58813e-11 3.05439e-11 -3.66582e-10 5e-05 1.46608e-10 
8 1 0.281141 0.0166881 0.00748422 0.00577096 0.000385511 3.29056e-05 -4.10309e-11 -3.37074e-11 2.59133e-11 5e-05 1.46608e-10 
9 1 0.287324 0.017853 0.00699381 0.00599247 -0.00019944 -0.00022508 -1.56238e-10 -2.85611e-11 -7.12898e-10 5e-05 1.46608e-10 
10 1 0.281236 0.0167187 0.00747562 0.00579843 0.000367589 4.09344e-05 3.85425e-11 1.79039e-11 -9.47714e-12 5e-05 1.46608e-10 
11 1 0.28136 0.0179205 0.00711359 0.00569026 0.000422043 2.91266e-05 2.39095e-10 -2.87625e-10 3.62107e-11 5e-05 1.46608e-10 
12 1 0.275433 0.0171968 0.0073302 0.0060708 -0.000311944 0.000323246 -1.21828e-11 6.55639e-11 -1.18668e-11 5e-05 1.46608e-10 
13 1 0.280757 0.0156639 0.0085661 0.00577804 0.000286204 -0.000210665 -1.2601e-11 -4.52481e-11 4.46366e-11 5e-05 1.46608e-10 
14 1 0.275364 0.0175773 0.00733726 0.00600855 -0.000314694 0.000321761 3.21234e-12 -1.14303e-11 4.56448e-12 5e-05 1.46608e-10 
16 1 0.275627 0.0180617 0.00717196 0.00593059 -0.000305206 0.000316 -1.09118e-11 6.24426e-12 -3.23595e-12 5e-05 1.46608e-10 
17 1 0.281101 0.0165108 0.00756691 0.00575972 0.000234745 -0.00036015 -2.72834e-11 -4.40796e-11 2.8711e-12 5e-05 1.46608e-10 
19 1 0.280737 0.0156009 0.00864106 0.00574709 0.000303373 -0.000234555 -1.46094e-10 -1.68462e-10 1.76775e-10 5e-05 1.46608e-10 
21 1 0.281492 0.0178176 0.00706626 0.00573902 0.000319877 -0.000353905 -1.05842e-10 6.42402e-11 -2.06348e-10 5e-05 1.46608e-10 
22 1 0.281256 0.0168106 0.00744151 0.00589147 0.000347336 5.25031e-05 5.13884e-11 1.00325e-11 -1.64375e-11 5e-05 1.46608e-10 
23 1 0.275584 0.0178695 0.00720712 0.00595942 -0.000295512 0.000315222 1.73166e-11 -1.3755e-11 3.83704e-12 5e-05 1.46608e-10 
24 1 0.287239 0.0174968 0.00713993 0.00620127 -0.000304568 0.000234541 3.91627e-10 3.59618e-10 -1.20513e-10 5e-05 1.46608e-10 
25 1 0.280874 0.0160424 0.00811745 0.00551961 0.000246198 -0.000293866 -8.31913e-11 -1.17467e-10 2.40587e-11 5e-05 1.46608e-10 
26 1 0.287283 0.017669 0.00704854 0.00627535 -0.000273825 0.00021646 -4.24154e-10 -5.2876e-11 2.26971e-11 5e-05 1.46608e-10 
27 1 0.275119 0.0166287 0.00760508 0.00553805 -0.000367321 7.61944e-07 -5.36959e-11 2.10939e-11 -2.00517e-11 5e-05 1.46608e-10 
28 1 0.281222 0.0170553 0.00734798 0.00623876 0.00029093 8.37992e-05 4.76886e-11 -2.00874e-12 7.63571e-12 5e-05 1.46608e-10 
29 1 0.280716 0.015538 0.00871601 0.00574782 0.000321307 -0.000256077 -1.77579e-11 -1.99917e-10 2.50263e-10 5e-05 1.46608e-10 
30 1 0.28095 0.0162966 0.00782068 0.00568004 0.000191947 -0.000299025 1.06298e-10 6.67759e-11 8.04593e-12 5e-05 1.46608e-10 
31 1 0.281524 0.0175722 0.00715663 0.0063235 0.000153407 -0.000207109 -6.81492e-11 8.27384e-11 -3.3457e-11 5e-05 1.46608e-10 
32 1 0.280894 0.0161056 0.00804246 0.00555501 0.000185878 -0.00034134 -1.47185e-10 1.88561e-11 7.21194e-11 5e-05 1.46608e-10 
33 1 0.287132 0.0170652 0.00736894 0.00605424 -0.000309716 0.00023314 -2.41836e-11 1.12489e-10 -6.19096e-11 5e-05 1.46608e-10 
34 1 0.280868 0.0159775 0.00819319 0.00547005 0.000307344 -0.000248023 6.78275e-11 5.91978e-12 2.94761e-11 5e-05 1.46608e-10 
35 1 0.281405 0.0174518 0.00720383 0.00629026 0.000279684 8.92534e-05 -1.23365e-10 7.8771e-11 -6.83962e-11 5e-05 1.46608e-10 
36 1 0.287385 0.0181464 0.00700613 0.00562331 -8.71344e-05 -0.000108407 -1.25883e-10 -2.47754e-10 7.43159e-11 5e-05 1.46608e-10 
37 1 0.281276 0.0169024 0.00740745 0.00611655 0.00030343 7.64019e-05 1.66792e-11 1.30481e-11 1.40916e-11 5e-05 1.46608e-10 
38 1 0.281362 0.0172687 0.00727168 0.00625542 0.000279014 8.83827e-05 4.60424e-11 -2.07293e-11 3.04722e-12 5e-05 1.46608e-10 
39 1 0.28726 0.0175831 0.00709412 0.00622239 -0.000301673 0.000225347 2.72476e-10 -4.67062e-11 7.92648e-11 5e-05 1.46608e-10 
41 1 0.280818 0.0158529 0.00834114 0.00571087 0.000268526 -0.000198277 2.64334e-10 6.86288e-11 3.42617e-11 5e-05 1.46608e-10 
42 1 0.281393 0.0170237 0.00736389 0.00628384 0.000204762 -0.000221094 1.06386e-10 -7.02351e-11 1.39827e-11 5e-05 1.46608e-10 
44 1 0.281459 0.0172983 0.00726014 0.00628102 0.000176112 -0.000205877 -6.31253e-11 -1.29246e-10 8.7596e-12 5e-05 1.46608e-10 
45 1 0.287154 0.0171515 0.00732314 0.00608597 -0.000312242 0.000237058 3.04423e-11 8.56679e-11 -2.29674e-11 5e-05 1.46608e-10 
47 1 0.280837 0.015916 0.0082661 0.00553994 0.000295134 -0.000226166 -9.43939e-11 2.06588e-10 4.68548e-11 5e-05 1.46608e-10 
48 1 0.28136 0.0180323 0.00698302 0.00574248 0.000382434 3.18322e-05 1.12462e-10 -5.38836e-10 1.29303e-10 5e-05 1.46608e-10 
49 1 0.287344 0.0179508 0.00699791 0.00570193 -0.000130527 -0.000104667 -2.63726e-10 -7.81876e-11 1.10657e-10 5e-05 1.46608e-10 
50 1 0.280927 0.0161688 0.0079725 0.00559539 0.000196156 -0.000313612 2.42633e-10 1.13973e-10 2.24732e-10 5e-05 1.46608e-10 
51 1 0.281546 0.0176635 0.00712213 0.0063342 0.000160735 -0.000208169 -9.69893e-11 7.17835e-11 -1.17713e-10 5e-05 1.46608e-10 
52 1 0.275498 0.0174852 0.00727744 0.00601315 -0.000304885 0.000319824 6.98444e-12 1.62311e-11 -2.37612e-12 5e-05 1.46608e-10 
53 1 0.287196 0.0173242 0.00723153 0.00611793 -0.00030849 0.000230243 2.03808e-10 -1.34018e-10 4.23048e-12 5e-05 1.46608e-10 
54 1 0.28172 0.0180621 0.00696969 0.00580074 0.000151867 -0.00019113 -6.06025e-10 4.26088e-10 -2.29777e-10 5e-05 1.46608e-10 
55 1 0.275316 0.0170697 0.00734962 0.00607684 -0.000326407 0.000326479 1.04621e-10 1.34119e-11 3.99407e-12 5e-05 1.46608e-10 
56 1 0.2817 0.0179704 0.0070043 0.0057776 0.000191924 -0.000204322 -6.34591e-10 4.39906e-10 -1.69857e-10 5e-05 1.46608e-10 
57 1 0.287175 0.0172378 0.00727734 0.00610735 -0.000317843 0.000235988 1.69219e-10 5.72952e-11 2.88783e-11 5e-05 1.46608e-10 
59 1 0.378022 0.019866 0.005332 -5.01964e-15 -7.41211e-15 7.69802e-14 5.35082e-24 -3.54137e-24 0 5e-05 1.46608e-10 
60 1 0.281481 0.0173896 0.00722564 0.00627534 0.000164682 -0.000210432 -6.12425e-11 1.78024e-10 -3.72184e-11 5e-05 1.46608e-10 
61 1 0.280798 0.0157899 0.00841619 0.00579393 0.000258816 -0.000182824 2.85729e-11 -3.06037e-12 -7.88748e-12 5e-05 1.46608e-10 
62 1 0.281384 0.0173602 0.00723776 0.00628113 0.000286343 8.84468e-05 -1.61168e-11 -8.01178e-11 3.95456e-11 5e-05 1.46608e-10 
63 1 0.281379 0.0181244 0.00694882 0.0057734 0.000394591 3.41914e-05 -4.95929e-10 -3.34092e-10 1.02515e-11 5e-05 1.46608e-10 
64 1 0.287217 0.0174105 0.00718573 0.00617483 -0.000290977 0.000228645 -5.33839e-10 2.7525e-10 -2.08458e-10 5e-05 1.46608e-10 
65 1 0.275243 0.0171358 0.00733378 0.00607817 -0.000333535 0.000326555 1.67586e-11 -2.4223e-11 -3.16876e-12 5e-05 1.46608e-10 
66 1 0.275332 0.0178328 0.00728643 0.00597779 -0.000323489 0.00032192 -2.68893e-12 2.83672e-11 -1.48357e-11 5e-05 1.46608e-10 
67 1 0.281511 0.0179102 0.00703105 0.00575866 0.000289623 -6.60791e-05 3.4041e-10 1.56948e-11 -3.25939e-11 5e-05 1.46608e-10 
68 1 0.281287 0.0173299 0.00724622 0.0062658 0.000285797 8.69651e-05 1.3974e-11 -2.72779e-11 6.61896e-12 5e-05 1.46608e-10 
69 1 0.281587 0.0178479 0.00705252 0.0056885 0.000211193 -0.000181145 -2.59674e-09 2.3012e-09 -3.51251e-10 5e-05 1.46608e-10 
70 1 0.287302 0.0177557 0.00700253 0.00630902 -0.00024652 0.000212616 2.27006e-10 -2.38296e-11 -2.49413e-11 5e-05 1.46608e-10 
71 1 0.27567 0.0182539 0.00713678 0.00590071 -0.000281539 0.000310034 -7.27662e-13 2.45642e-11 -4.67481e-12 5e-05 1.46608e-10 
72 1 0.28155 0.0180946 0.00696151 0.00588767 0.000291645 -0.0004692 -7.12233e-10 5.80565e-10 -1.09085e-09 5e-05 1.46608e-10 
73 1 0.281371 0.0169322 0.00739848 0.00628201 0.000202808 -0.000222972 4.07289e-11 -3.62594e-11 -1.63534e-11 5e-05 1.46608e-10 
74 1 0.280934 0.0162315 0.00789493 0.00563485 0.000197356 -0.000306571 1.21678e-10 7.76166e-11 7.29769e-11 5e-05 1.46608e-10 
76 1 0.27525 0.0168029 0.00744951 0.00555988 -0.000448449 0.000284831 1.19575e-10 -8.60679e-11 1.79418e-11 5e-05 1.46608e-10 
77 1 0.281169 0.0172078 0.00728868 0.00625669 0.000296082 8.27279e-05 6.60813e-11 3.9692e-11 -1.88528e-11 5e-05 1.46608e-10 
78 1 0.274669 0.0154215 0.00890314 0.00593425 -0.000481312 9.44983e-05 2.59424e-11 3.00062e-11 -1.75216e-11 5e-05 1.46608e-10 
79 1 0.275596 0.0183196 0.00712093 0.00588864 -0.000297631 0.000312609 5.1295e-13 1.46906e-11 -2.91728e-12 5e-05 1.46608e-10 
80 1 0.281244 0.0171468 0.00731406 0.00625105 0.00028874 8.53132e-05 5.65986e-11 -1.5983e-12 -1.02233e-12 5e-05 1.46608e-10 
82 1 0.275409 0.0177715 0.00730262 0.00598383 -0.000316786 0.000320102 -1.15822e-11 1.39973e-11 -4.90603e-12 5e-05 1.46608e-10 
83 1 0.275455 0.0172928 0.00731263 0.00605042 -0.000307536 0.000321524 -9.62614e-12 4.9174e-11 -9.8786e-12 5e-05 1.46608e-10 
84 1 0.287365 0.0180486 0.00700202 0.00560146 -9.9236e-05 -0.00010801 -1.75705e-10 -1.97951e-10 3.99431e-11 5e-05 1.46608e-10 
85 1 0.275468 0.0185446 0.00707202 0.00585486 -0.000318308 0.000315128 -3.06579e-12 -8.34175e-13 -1.68178e-13 5e-05 1.46608e-10 
86 1 0.281437 0.0172068 0.00729472 0.00629176 0.000212669 -0.000223195 4.46001e-11 -3.70888e-11 2.66186e-11 5e-05 1.46608e-10 
87 1 0.281201 0.0169637 0.00738195 0.00611365 0.000319937 6.9432e-05 6.4825e-11 -1.56835e-11 5.26209e-12 5e-05 1.46608e-10 
88 1 0.281352 0.0176045 0.00714446 0.00629498 0.000270523 9.46087e-05 1.56818e-12 2.82406e-11 2.36889e-12 5e-05 1.46608e-10 
89 1 0.281442 0.0178681 0.0071387 0.00568748 0.000375525 3.34836e-05 -1.57681e-10 6.22447e-11 -1.92591e-11 5e-05 1.46608e-10 
90 1 0.281531 0.0180026 0.00699622 0.00565436 0.000381122 -0.00013587 -3.5738e-10 -3.4577e-10 3.15453e-09 5e-05 1.46608e-10 
91 1 0.275411 0.0171003 0.00734785 0.00607487 -0.000331067 0.000327203 7.33883e-11 1.24325e-10 -2.20927e-11 5e-05 1.46608e-10 
92 1 0.281277 0.0176655 0.00711906 0.0062952 0.000272042 9.33719e-05 1.29478e-11 6.34689e-11 -2.69072e-11 5e-05 1.46608e-10 
93 1 0.281008 0.0164963 0.00760559 0.00573997 0.000189587 -0.000301917 -7.24667e-11 -1.49937e-10 -5.08446e-11 5e-05 1.46608e-10 
94 1 0.281379 0.0180126 0.00707933 0.00573804 0.000413913 3.53198e-05 6.48717e-10 -2.7551e-10 1.13381e-10 5e-05 1.46608e-10 
95 1 0.281295 0.0176456 0.00721542 0.00628561 0.00026161 9.37322e-05 2.03614e-10 1.00253e-10 5.71514e-11 5e-05 1.46608e-10 
96 1 0.281256 0.017574 0.00715298 0.00628407 0.000269919 9.35449e-05 -4.25348e-11 -1.01151e-11 2.89642e-11 5e-05 1.46608e-10 
97 1 0.274769 0.0157403 0.00856162 0.00576837 -0.000458157 7.93139e-05 -3.1656e-11 3.18605e-11 -2.5248e-11 5e-05 1.46608e-10 
98 1 0.280988 0.0164232 0.00767059 0.00574075 0.000186444 -0.000288778 1.30154e-10 -3.99146e-11 4.11363e-11 5e-05 1.46608e-10 
99 1 0.275274 0.0176788 0.00723042 0.0059985 -0.000330596 0.000323277 2.29391e-12 -1.90319e-12 2.02584e-12 5e-05 1.46608e-10 
100 1 0.281471 0.017726 0.00710059 0.00634761 0.000162265 -0.000267572 8.91034e-12 2.44871e-11 -4.96497e-10 5e-05 1.46608e-10 
101 1 0.275295 0.0177749 0.00721285 0.00598433 -0.000328833 0.00032265 -7.812e-12 -2.14482e-11 3.63365e-12 5e-05 1.46608e-10 
102 1 0.0643568 0.0187248 0.00531097 4.16182e-15 1.05517e-14 8.29587e-14 -1.31823e-21 4.31478e-22 1.36485e-23 5e-05 1.46608e-10 
103 1 0.24257 0.0191927 0.00520306 -1.23235e-22 -1.27651e-22 -5.81428e-22 0 0 0 5e-05 1.46608e-10 
104 1 0.275648 0.0181578 0.00715437 0.0059231 -0.000287915 0.000312244 -4.29656e-12 1.57985e-11 -3.62105e-12 5e-05 1.46608e-10 
105 1 0.274777 0.0156046 0.00870343 0.00585212 -0.000458157 7.25143e-05 -2.02396e-10 3.75536e-11 -6.72867e-11 5e-05 1.46608e-10 
106 1 0.275285 0.0173279 0.00729853 0.00605504 -0.000328123 0.000326014 -3.09386e-11 -3.01159e-12 -5.48592e-12 5e-05 1.46608e-10 
107 1 0.27469 0.0154882 0.00883167 0.0059011 -0.000477222 8.68591e-05 -3.29917e-11 -1.28679e-11 -4.05379e-11 5e-05 1.46608e-10 
108 1 0.281606 0.0179403 0.00701768 0.00567605 0.000337852 -0.00024841 -6.44016e-10 3.65933e-10 4.91531e-11 5e-05 1.46608e-10 
109 1 0.281661 0.0177851 0.00707421 0.00534494 0.000388648 -0.000278413 2.33099e-09 -2.19461e-09 3.66902e-10 5e-05 1.46608e-10 
110 1 0.281125 0.0170247 0.00735652 0.00623673 0.000308874 7.7005e-05 -3.91811e-11 1.35461e-11 3.02746e-12 5e-05 1.46608e-10 
111 1 0.281085 0.0168411 0.00742465 0.00586514 0.000383811 3.73281e-05 5.69097e-13 -3.27436e-11 -5.47315e-12 5e-05 1.46608e-10 
112 1 0.27481 0.0158738 0.00841862 0.00561964 -0.000337039 -3.70359e-05 5.04843e-12 8.80742e-11 -8.52061e-11 5e-05 1.46608e-10 
113 1 0.275166 0.0171986 0.00731828 0.00607973 -0.000342245 0.000329649 1.29322e-11 1.30862e-12 2.85715e-12 5e-05 1.46608e-10 
114 1 0.275231 0.0174867 0.00726556 0.00603389 -0.000333446 0.000326702 9.0309e-12 2.25854e-11 -4.04615e-12 5e-05 1.46608e-10 
115 1 0.281415 0.0171153 0.00732927 0.00629023 0.000210802 -0.00022334 5.36828e-11 -3.96083e-11 1.12675e-11 5e-05 1.46608e-10 
116 1 0.281436 0.0179719 0.0070082 0.00571542 0.000388181 1.24481e-05 9.58149e-10 -4.84083e-10 7.33567e-10 5e-05 1.46608e-10 
117 1 0.281427 0.0175432 0.00716965 0.00632156 0.000162812 -0.000245288 2.44904e-11 -3.95913e-11 -2.67024e-10 5e-05 1.46608e-10 
118 1 0.275359 0.0172624 0.00731436 0.00606507 -0.000317629 0.0003241 -3.572e-11 1.08021e-12 -1.68901e-12 5e-05 1.46608e-10 
119 1 0.281625 0.0180327 0.00698284 0.00577357 0.000258721 -0.000178635 3.56768e-10 -3.34904e-10 -1.07475e-09 5e-05 1.46608e-10 
120 1 0.281216 0.0166268 0.00750972 0.00580782 0.000371384 4.30332e-05 2.99543e-11 4.63156e-11 6.37124e-11 5e-05 1.46608e-10 
121 1 0.281516 0.0183434 0.00687057 0.00595788 0.000365346 -0.000654708 -1.9757e-10 7.4534e-11 -5.96629e-10 5e-05 1.46608e-10 
122 1 0.281234 0.0174825 0.0071869 0.00628268 0.000292834 8.46389e-05 -7.40698e-12 1.56641e-11 -2.69583e-12 5e-05 1.46608e-10 
123 1 0.275618 0.0184156 0.00710336 0.00587249 -0.000295582 0.000311513 2.64647e-14 6.21746e-12 -1.18947e-12 5e-05 1.46608e-10 
124 1 0.281121 0.0165963 0.00751935 0.00579398 0.000384374 -6.02239e-05 -1.84754e-12 -3.00299e-11 4.28105e-12 5e-05 1.46608e-10 
125 1 0.281331 0.017513 0.00717838 0.00628662 0.000273636 9.0235e-05 -5.47825e-11 7.82064e-12 1.04732e-11 5e-05 1.46608e-10 
127 1 0.274754 0.0156751 0.00863606 0.00581325 -0.00046368 8.16171e-05 -1.1633e-10 5.33643e-11 -5.2391e-11 5e-05 1.46608e-10 
128 1 0.280971 0.0163591 0.00774556 0.00572005 0.000187029 -0.000290876 3.40927e-10 -5.78516e-11 4.29699e-11 5e-05 1.46608e-10 
129 1 0.281338 0.0178287 0.00714758 0.00633206 0.000285179 9.19828e-05 2.66474e-10 1.27059e-10 -1.33646e-12 5e-05 1.46608e-10 
130 1 0.275329 0.0175199 0.00726342 0.00601472 -0.00032249 0.000322963 2.96994e-12 -8.48501e-12 2.07303e-12 5e-05 1.46608e-10 
131 1 0.27535 0.0176161 0.00724582 0.00600365 -0.000321465 0.000322427 3.17411e-13 -7.06589e-12 1.82195e-12 5e-05 1.46608e-10 
132 1 0.281319 0.0170856 0.00733953 0.00624376 0.000278681 8.90617e-05 9.34001e-11 -2.73733e-11 1.9224e-11 5e-05 1.46608e-10 
133 1 0.281455 0.0180641 0.00697397 0.00571176 0.000407813 1.35566e-05 -4.55753e-10 1.21407e-09 1.97054e-10 5e-05 1.46608e-10 
134 1 0.281417 0.0178793 0.00704261 0.00567089 0.000377521 3.42143e-05 1.43199e-10 2.37675e-10 2.73729e-11 5e-05 1.46608e-10 
135 1 0.281567 0.017755 0.00708759 0.00567142 0.000297957 -0.00024858 -1.41941e-10 2.01482e-11 1.52276e-12 5e-05 1.46608e-10 
136 1 0.275293 0.0169724 0.00736735 0.00598404 -0.000442495 0.000347081 7.79529e-11 9.62022e-12 -3.62582e-11 5e-05 1.46608e-10 
137 1 0.281317 0.0177372 0.0071815 0.00628668 0.000252206 8.69987e-05 1.22767e-10 -5.13906e-11 5.8988e-11 5e-05 1.46608e-10 
138 1 0.281321 0.0178486 0.00705122 0.00631482 0.000277595 9.26408e-05 -1.35799e-10 -1.16554e-10 3.10193e-11 5e-05 1.46608e-10 
140 1 0.28119 0.0172994 0.00725476 0.00626212 0.000290869 8.48812e-05 -2.69835e-11 -2.46197e-11 1.73081e-11 5e-05 1.46608e-10 
141 1 0.27514 0.016383 0.00786141 0.005346 -0.000464902 0.000116187 -8.50814e-11 -1.08261e-10 1.24135e-10 5e-05 1.46608e-10 
142 1 0.275541 0.0176773 0.00724229 0.00599399 -0.000301849 0.000317971 -2.01532e-11 -3.49314e-12 5.85212e-14 5e-05 1.46608e-10 
143 1 0.274711 0.0155548 0.0087603 0.00587467 -0.000469486 8.69557e-05 -1.33949e-10 9.34829e-11 1.13022e-12 5e-05 1.46608e-10 
144 1 0.275403 0.0174545 0.00727924 0.00601819 -0.000314954 0.000321517 1.33975e-11 1.02595e-11 -6.81176e-13 5e-05 1.46608e-10 
146 1 0.274905 0.0158919 0.00839308 0.00565369 -0.000414396 4.13922e-05 2.73705e-11 -5.30048e-11 5.40493e-11 5e-05 1.46608e-10 
147 1 0.275307 0.017424 0.00728097 0.0060356 -0.000325109 0.000324477 -1.24961e-12 -8.56327e-12 -1.81083e-12 5e-05 1.46608e-10 
148 1 0.275159 0.0164501 0.00778968 0.00535005 -0.000473092 0.00012422 -4.32931e-11 -1.09746e-10 1.13283e-10 5e-05 1.46608e-10 
149 1 0.281046 0.0166574 0.00749357 0.00576882 0.000348471 -0.000100521 -2.28512e-11 -6.12468e-11 9.47109e-11 5e-05 1.46608e-10 
150 1 0.275447 0.0184486 0.00708959 0.00586937 -0.000323155 0.000316664 -2.4392e-12 1.26403e-13 -1.06035e-13 5e-05 1.46608e-10 
151 1 0.275436 0.0180003 0.0071755 0.00593866 -0.000320663 0.000319465 -5.36198e-12 -2.33821e-11 2.78719e-12 5e-05 1.46608e-10 
153 1 0.275178 0.0165172 0.00771802 0.00536594 -0.000483958 0.000133469 2.11197e-11 -1.0131e-10 1.08033e-10 5e-05 1.46608e-10 
154 1 0.274885 0.0158251 0.00846459 0.00571434 -0.000426694 5.07018e-05 5.55191e-11 -5.4565e-11 6.0233e-11 5e-05 1.46608e-10 
155 1 0.27483 0.0159409 0.00834688 0.0053045 -0.000310169 -4.32404e-05 -1.59398e-12 3.02319e-11 -3.24295e-11 5e-05 1.46608e-10 
156 1 0.27512 0.0163161 0.007933 0.00534228 -0.000457911 0.000108921 -9.92345e-11 -1.16607e-10 1.27508e-10 5e-05 1.46608e-10 
157 1 0.0219312 0.0187687 0.00551176 -3.83248e-14 8.16518e-14 2.95893e-13 -5.33531e-22 4.73561e-23 -6.74152e-23 5e-05 1.46608e-10 
158 1 0.275216 0.0166512 0.0075747 0.00536087 -0.000490681 0.000154376 2.34743e-10 -1.04357e-10 1.04588e-10 5e-05 1.46608e-10 
159 1 0.28134 0.0171772 0.0073056 0.00625044 0.000281413 8.8044e-05 5.30486e-11 -2.8806e-11 1.36753e-11 5e-05 1.46608e-10 
160 1 0.275317 0.0178711 0.00719524 0.005969 -0.000327738 0.000321782 1.71811e-11 4.63868e-11 -9.27939e-12 5e-05 1.46608e-10 
162 1 0.275392 0.0179738 0.00726157 0.0059444 -0.00032911 0.00032099 7.42108e-12 -2.30351e-11 4.92321e-12 5e-05 1.46608e-10 
164 1 0.274888 0.016142 0.00813187 0.00536213 -0.00033894 -1.7253e-05 2.10778e-10 -1.07849e-10 1.00897e-10 5e-05 1.46608e-10 
165 1 0.275479 0.0181925 0.00714035 0.00591503 -0.000316928 0.000317461 4.08482e-13 1.26566e-11 -3.62281e-12 5e-05 1.46608e-10 
166 1 0.281342 0.0179403 0.00701723 0.00569624 0.000391083 3.08624e-05 3.78121e-10 -2.99159e-10 6.48601e-11 5e-05 1.46608e-10 
167 1 0.275403 0.018256 0.00712483 0.00590204 -0.000330756 0.000319577 2.98261e-11 8.34362e-11 -1.4168e-11 5e-05 1.46608e-10 
168 1 0.275522 0.0183846 0.00710518 0.00587886 -0.000310946 0.000314739 -2.2686e-12 3.79921e-12 -7.6076e-13 5e-05 1.46608e-10 
169 1 0.275425 0.0183523 0.0071072 0.00588264 -0.000336541 0.000319804 -1.88564e-11 -5.87498e-11 1.02362e-11 5e-05 1.46608e-10 
170 1 0.2755 0.0182885 0.00712276 0.00589783 -0.000315431 0.000316436 4.65994e-12 -4.60427e-12 1.24848e-12 5e-05 1.46608e-10 
171 1 0.281572 0.0181888 0.00692593 0.0059151 0.000206667 -0.000412542 -1.94893e-10 2.09296e-10 -1.13811e-09 5e-05 1.46608e-10 
172 1 0.275144 0.0171025 0.00733585 0.00609215 -0.000342342 0.000332058 1.20869e-11 -1.54758e-11 -1.15053e-11 5e-05 1.46608e-10 
173 1 0.281534 0.0181763 0.00701779 0.0060703 0.0004538 -7.53541e-05 2.63133e-10 7.27836e-11 -6.64924e-10 5e-05 1.46608e-10 
174 1 0.274927 0.0162759 0.00798858 0.00541528 -0.000346008 -1.34938e-05 5.15346e-11 -6.34158e-11 6.62505e-11 5e-05 1.46608e-10 
176 1 0.275221 0.0170398 0.00735128 0.00608432 -0.000335169 0.000337989 5.83874e-11 -1.88916e-11 5.6776e-12 5e-05 1.46608e-10 
177 1 0.274926 0.0159587 0.00832156 0.00554483 -0.000393267 2.71554e-05 2.73403e-11 -5.58636e-11 5.42798e-11 5e-05 1.46608e-10 
178 1 0.275267 0.0175445 0.00733914 0.00602941 -0.000309217 0.000331221 2.65831e-11 4.14264e-11 9.90752e-12 5e-05 1.46608e-10 
179 1 0.275339 0.0179676 0.00717758 0.00594384 -0.000350344 0.000324716 -9.34998e-12 -4.57422e-11 9.90893e-12 5e-05 1.46608e-10 
182 1 0.281591 0.0182806 0.00689129 0.0057892 0.000337983 -0.000272075 -1.69715e-10 4.32105e-11 -2.53976e-11 5e-05 1.46608e-10 
183 1 0.275209 0.0173907 0.00728313 0.00604745 -0.000337279 0.000327524 1.52865e-12 1.28812e-11 -5.32606e-12 5e-05 1.46608e-10 
184 1 0.281434 0.0181453 0.00702963 0.00587833 0.000366055 -2.26157e-06 -9.36144e-11 1.11483e-10 -1.44099e-10 5e-05 1.46608e-10 
185 1 0.275424 0.0175507 0.00726162 0.0060073 -0.000309228 0.000319881 -1.01934e-12 -1.42623e-12 -3.25515e-13 5e-05 1.46608e-10 
186 1 0.275489 0.0186409 0.00705437 0.0056144 -0.000269403 0.00029523 -1.91453e-12 -6.79383e-12 7.88403e-13 5e-05 1.46608e-10 
187 1 0.281475 0.0181577 0.00693921 0.00591355 0.000401034 3.68443e-05 3.513e-11 2.30243e-10 -1.42986e-10 5e-05 1.46608e-10 
188 1 0.281309 0.0174214 0.0072123 0.0062787 0.000282047 8.73538e-05 -4.53877e-11 -2.17587e-11 -3.38199e-12 5e-05 1.46608e-10 
189 1 0.281437 0.0184043 0.00686449 0.00592448 0.000329008 -0.000261325 -2.30998e-10 -3.77153e-10 -2.18526e-10 5e-05 1.46608e-10 
190 1 0.269417 0.0183066 0.00694683 0.00569665 -0.000494813 0.000231193 -6.39088e-11 2.13091e-11 -1.01898e-11 5e-05 1.46608e-10 
191 1 0.281065 0.0167492 0.00745879 0.0057347 0.000405334 2.46175e-05 -6.14421e-11 -5.69841e-11 4.2644e-11 5e-05 1.46608e-10 
192 1 0.275187 0.0172946 0.00730071 0.00606026 -0.00033971 0.000327857 2.83866e-12 7.59333e-12 4.67663e-12 5e-05 1.46608e-10 
193 1 0.281645 0.0181244 0.00694822 0.00581453 0.000189698 -0.000202271 -5.07918e-10 2.64984e-10 2.86499e-11 5e-05 1.46608e-10 
194 1 0.275467 0.0179085 0.00727769 0.00595621 -0.000313708 0.000319935 -7.61571e-13 -2.01867e-11 4.26888e-12 5e-05 1.46608e-10 
195 1 0.275532 0.0180313 0.00717369 0.00593331 -0.000308791 0.000316874 -7.86957e-12 6.91257e-12 -3.52531e-12 5e-05 1.46608e-10 
196 1 0.275488 0.0178391 0.00720885 0.00597115 -0.000309706 0.000318637 1.55498e-11 -1.23808e-11 3.39726e-12 5e-05 1.46608e-10 
197 1 0.269086 0.0168696 0.00748288 0.00596833 -0.000594115 0.000160213 -2.0671e-10 -2.21326e-11 5.12049e-12 5e-05 1.46608e-10 
198 1 0.275477 0.0173888 0.00729509 0.00602849 -0.000302766 0.000319593 1.33185e-11 2.67528e-11 -4.24451e-12 5e-05 1.46608e-10 
199 1 0.275288 0.0176407 0.00732166 0.00600003 -0.000327153 0.000322338 2.21314e-11 1.65972e-11 1.28563e-11 5e-05 1.46608e-10 
200 1 0.27479 0.015807 0.00849016 0.0057237 -0.00044997 7.41478e-05 2.48357e-11 3.36609e-11 -1.63954e-11 5e-05 1.46608e-10 
201 1 0.275553 0.0181273 0.00715612 0.00592577 -0.00030698 0.000316064 -8.70757e-12 6.62596e-12 -3.29829e-12 5e-05 1.46608e-10 
202 1 0.275235 0.0167226 0.00750708 0.0053497 -0.00046495 0.000191661 1.63829e-10 -1.11925e-10 3.88741e-11 5e-05 1.46608e-10 
203 1 0.281396 0.0177876 0.00707662 0.00631975 0.000275222 9.25138e-05 2.07607e-13 7.66886e-11 -2.47904e-11 5e-05 1.46608e-10 
204 1 0.275605 0.0179656 0.00718954 0.00594102 -0.000300514 0.00031554 1.2337e-11 1.21329e-11 -1.06737e-12 5e-05 1.46608e-10 
205 1 0.275061 0.0164277 0.00782005 0.00546105 -0.000360142 -1.84812e-06 3.04109e-11 -1.30551e-11 1.76351e-11 5e-05 1.46608e-10 
206 1 0.275099 0.0165618 0.00767666 0.00550955 -0.000364553 -7.66771e-07 -1.41858e-11 8.69767e-12 -1.31307e-11 5e-05 1.46608e-10 
207 1 0.274984 0.0161597 0.00810662 0.00539533 -0.000360242 3.11432e-06 -7.43545e-11 -4.08903e-11 4.07549e-11 5e-05 1.46608e-10 
208 1 0.275519 0.0175813 0.00725987 0.00600376 -0.000303394 0.000318718 -8.69167e-12 6.72267e-12 -1.51267e-12 5e-05 1.46608e-10 
209 1 0.275338 0.0171663 0.00733195 0.00607551 -0.000323866 0.000325552 2.69128e-12 2.56348e-11 -2.47399e-12 5e-05 1.46608e-10 
210 1 0.28116 0.0167801 0.00745005 0.00578454 0.000385684 3.36496e-05 -2.65043e-11 -4.00258e-11 9.60325e-12 5e-05 1.46608e-10 
211 1 0.28118 0.016872 0.00741596 0.00590275 0.000363483 4.62772e-05 6.66413e-14 -2.44129e-11 5.83231e-12 5e-05 1.46608e-10 
212 1 0.275575 0.0182234 0.00713853 0.00590936 -0.000302674 0.000314479 6.78286e-12 1.56214e-11 -2.7668e-12 5e-05 1.46608e-10 
213 1 0.281418 0.0183136 0.00690237 0.00593263 0.000380991 -0.000249113 -1.82353e-10 2.35921e-10 -2.74047e-10 5e-05 1.46608e-10 
214 1 0.281266 0.0172384 0.00728014 0.00625743 0.000287252 8.62066e-05 5.09788e-11 -1.75272e-11 8.78553e-12 5e-05 1.46608e-10 
215 1 0.269321 0.017821 0.00701632 0.00553953 -0.000470781 0.000222778 -1.09102e-10 2.7401e-11 -1.32749e-12 5e-05 1.46608e-10 
216 1 0.274965 0.0160926 0.00817833 0.00540313 -0.000364498 6.52966e-06 -2.54434e-11 -4.37186e-11 4.51183e-11 5e-05 1.46608e-10 
217 1 0.281666 0.0182186 0.00691267 0.00573495 0.000251617 -0.000221937 -6.34523e-10 4.3385e-10 -1.66997e-10 5e-05 1.46608e-10 
218 1 0.275252 0.0175828 0.00724799 0.0060159 -0.000330883 0.000324918 7.28841e-12 1.88529e-11 -1.14078e-12 5e-05 1.46608e-10 
219 1 0.281028 0.0165783 0.00755213 0.0057554 0.000241696 -0.000239766 -3.49201e-11 -1.40389e-10 -4.03335e-11 5e-05 1.46608e-10 
220 1 0.275372 0.0177121 0.00722824 0.00599074 -0.000320445 0.000321385 -3.33854e-12 -7.15616e-12 1.6078e-12 5e-05 1.46608e-10 
222 1 0.281502 0.0174809 0.00719113 0.00630507 0.000155039 -0.000206814 -1.80366e-11 1.01555e-10 -9.96151e-11 5e-05 1.46608e-10 
224 1 0.275137 0.0166959 0.00753333 0.00555274 -0.000366483 1.74072e-06 3.25429e-11 1.3852e-11 -9.73839e-13 5e-05 1.46608e-10 
225 1 0.281105 0.016933 0.00739054 0.00610924 0.000338291 6.26166e-05 7.72868e-11 -1.74761e-11 1.1018e-11 5e-05 1.46608e-10 
226 1 0.275562 0.0177734 0.00722469 0.00597986 -0.000298829 0.000316771 -4.30624e-12 -1.31297e-11 2.4345e-12 5e-05 1.46608e-10 
227 1 0.269336 0.0179188 0.0070022 0.00561645 -0.00048858 0.000227503 2.17357e-10 5.04059e-11 1.07743e-11 5e-05 1.46608e-10 
228 1 0.269275 0.0176283 0.00704368 0.00557431 -0.000495854 0.000234473 3.75533e-10 -4.56895e-10 3.10481e-10 5e-05 1.46608e-10 
229 1 0.275543 0.0184807 0.00708761 0.00586304 -0.000307654 0.000313427 -3.39152e-12 2.15831e-12 -4.71437e-13 5e-05 1.46608e-10 
230 1 0.275042 0.0166782 0.00755852 0.00555364 -0.000365693 -2.35379e-06 1.77643e-11 2.38091e-11 -3.17924e-11 5e-05 1.46608e-10 
232 1 0.275472 0.0180583 0.00724943 0.00592709 -0.000315898 0.00031661 -3.11301e-12 6.25323e-11 -1.66263e-11 5e-05 1.46608e-10 
233 1 0.275382 0.0181598 0.00714242 0.00592175 -0.000318139 0.000318225 1.31539e-11 5.71476e-11 -1.74728e-11 5e-05 1.46608e-10 
234 1 0.281212 0.0173909 0.00722084 0.00627095 0.00029551 8.34655e-05 -2.19691e-11 -8.60295e-11 2.38328e-11 5e-05 1.46608e-10 
235 1 0.275003 0.0165441 0.00770186 0.0055069 -0.000355479 -1.01719e-05 4.29035e-12 -6.97065e-12 1.19174e-11 5e-05 1.46608e-10 
236 1 0.2751 0.0169008 0.00737279 0.00557835 -0.000209629 0.000282524 -1.30978e-12 -5.92253e-13 4.22367e-12 5e-05 1.46608e-10 
237 1 0.275121 0.016997 0.00735515 0.00612011 -0.000318645 0.000326699 5.14659e-12 4.553e-12 -2.46617e-12 5e-05 1.46608e-10 
239 1 0.268984 0.0164478 0.0077311 0.0055053 -0.000504503 0.000122025 5.19254e-12 -5.05036e-11 3.30407e-11 5e-05 1.46608e-10 
240 1 0.269043 0.0167012 0.00758203 0.0059308 -0.000581337 0.000153851 -1.24863e-10 8.91162e-11 -5.02972e-11 5e-05 1.46608e-10 
241 1 0.268964 0.0163633 0.00778081 0.00551621 -0.000511293 0.000125594 1.41366e-13 -1.06122e-11 5.00507e-12 5e-05 1.46608e-10 
242 1 0.275102 0.0162488 0.00800483 0.00532588 -0.00045128 0.000103224 1.75339e-11 -1.41943e-10 1.45516e-10 5e-05 1.46608e-10 
243 1 0.275467 0.0177429 0.00722646 0.0059852 -0.000311995 0.000319461 -1.31725e-11 -7.15044e-12 1.01294e-12 5e-05 1.46608e-10 
244 1 0.269003 0.0165323 0.00768138 0.00549782 -0.000501443 0.000120363 -5.9627e-11 -5.01011e-11 3.56162e-11 5e-05 1.46608e-10 
246 1 0.269192 0.0172906 0.00723503 0.00611209 -0.000626282 0.000174456 8.28847e-11 -1.78865e-10 1.36717e-10 5e-05 1.46608e-10 
247 1 0.274946 0.016343 0.00791686 0.00543492 -0.00034765 -1.31594e-05 9.74103e-12 -4.64368e-11 4.9437e-11 5e-05 1.46608e-10 
248 1 0.275246 0.0174483 0.00735655 0.00604657 -0.000323103 0.000329912 2.51831e-11 1.66081e-11 -2.45746e-12 5e-05 1.46608e-10 
249 1 0.269128 0.017038 0.00738374 0.006044 -0.000617039 0.000169808 3.61527e-10 1.26837e-11 1.45553e-11 5e-05 1.46608e-10 
250 1 0.275023 0.0162936 0.00796341 0.00542192 -0.000358671 -5.92092e-07 7.80854e-11 -5.50626e-11 4.95127e-11 5e-05 1.46608e-10 
251 1 0.281374 0.0176961 0.00711054 0.00631327 0.000271648 9.51937e-05 -9.85549e-11 3.22415e-11 -3.96477e-11 5e-05 1.46608e-10 
252 1 0.26923 0.0173702 0.00718764 0.00609657 -0.000633192 0.00017977 -5.26517e-10 1.58753e-11 4.69271e-11 5e-05 1.46608e-10 
253 1 0.269397 0.0182097 0.00696067 0.00567455 -0.000493545 0.00023037 5.0237e-11 -3.10074e-11 4.75647e-12 5e-05 1.46608e-10 
254 1 0.26915 0.0171222 0.00733417 0.00603968 -0.00062723 0.000173146 3.30578e-10 -2.60222e-10 1.49807e-10 5e-05 1.46608e-10 
255 1 0.274648 0.0153547 0.00897461 0.00596914 -0.000489363 9.7884e-05 -5.46045e-13 1.10316e-11 -1.34369e-11 5e-05 1.46608e-10 
256 1 0.275744 0.0181883 0.00715262 0.00591715 -0.000260863 0.000306769 -5.94096e-12 3.25184e-11 -6.63258e-12 5e-05 1.46608e-10 
257 1 0.275198 0.016584 0.00764644 0.00537019 -0.000493387 0.000140634 1.48966e-10 -9.55248e-11 1.19826e-10 5e-05 1.46608e-10 
258 1 0.275343 0.0174811 0.0073548 0.00600451 -0.000339336 0.000320858 -2.78879e-12 -7.23454e-12 -1.32327e-13 5e-05 1.46608e-10 
259 1 0.269234 0.0174565 0.00713736 0.00621471 -0.000658712 0.00018543 3.44812e-10 -2.57838e-10 7.23402e-11 5e-05 1.46608e-10 