ITEM: TIMESTEP
8800000
ITEM: NUMBER OF ATOMS
287
ITEM: BOX BOUNDS ff ff ff
-0.02 0.43
-0.02 0.06
-0.02 0.07
ITEM: ATOMS id type x y z vx vy vz fx fy fz radius mass 
1 1 0.0641738 0.0165158 0.00784948 0.00608156 0.000237547 -1.83472e-05 4.36775e-11 -9.75118e-11 8.40686e-11 5e-05 1.46608e-10 
2 1 0.0645854 0.0173971 0.00720809 0.00565063 0.000293387 -6.53571e-05 7.14309e-12 -1.35391e-10 1.69535e-10 5e-05 1.46608e-10 
3 1 0.057969 0.016186 0.00826439 0.00587104 5.04084e-05 4.44884e-05 2.31511e-11 3.15239e-12 1.57902e-11 5e-05 1.46608e-10 
4 1 0.0644968 0.0178385 0.00706143 0.00569239 0.000357267 -0.000184892 -4.97025e-10 2.78196e-10 -4.21149e-11 5e-05 1.46608e-10 
5 1 0.0640565 0.0164114 0.00792366 0.0060693 0.000244354 -2.44341e-05 -3.5185e-11 -1.30026e-10 9.32472e-11 5e-05 1.46608e-10 
6 1 0.0700777 0.0164458 0.00781268 0.0059817 -0.0003653 0.000487331 8.92605e-12 2.98703e-11 -2.38185e-11 5e-05 1.46608e-10 
7 1 0.064243 0.0171215 0.00740319 0.00566949 0.000307822 -7.89289e-05 -1.88055e-10 1.76723e-10 -1.68882e-10 5e-05 1.46608e-10 
8 1 0.0639482 0.0160144 0.0082076 0.0061378 0.000132571 -0.000218955 2.15224e-11 5.10785e-11 -4.60071e-11 5e-05 1.46608e-10 
9 1 0.0703294 0.017514 0.0072153 0.00536261 -0.000409296 0.000362938 7.77724e-11 -3.48953e-11 1.13563e-11 5e-05 1.46608e-10 
10 1 0.0641849 0.0168842 0.00757725 0.00583165 0.000234388 -2.31931e-05 1.23358e-11 2.88996e-10 -2.0929e-10 5e-05 1.46608e-10 
11 1 0.0646432 0.0176384 0.00704604 0.00556844 0.000277662 -0.000100501 -1.00503e-10 -2.10472e-11 8.50352e-11 5e-05 1.46608e-10 
12 1 0.058164 0.0168066 0.00764254 0.0057455 9.08171e-05 2.39482e-06 4.85017e-11 -6.96592e-11 5.98684e-11 5e-05 1.46608e-10 
13 1 0.0640348 0.0163327 0.00798136 0.00607624 0.000248699 -2.73304e-05 -3.65687e-11 -1.25729e-10 9.22985e-11 5e-05 1.46608e-10 
14 1 0.0578822 0.0159102 0.0085407 0.0058372 3.78833e-05 6.44763e-05 1.47209e-10 1.72865e-10 -1.58616e-10 5e-05 1.46608e-10 
15 1 0.0643742 0.0173082 0.00726953 0.00551745 0.000364907 -0.000112343 -4.32103e-10 2.6296e-10 -3.00519e-10 5e-05 1.46608e-10 
16 1 0.0578606 0.0158455 0.00861379 0.00582079 -0.000170744 -0.000115538 1.45386e-10 -1.10976e-10 -5.94085e-10 5e-05 1.46608e-10 
17 1 0.0641646 0.0168052 0.00763515 0.00591708 0.000208477 -1.90845e-06 1.06111e-10 2.26823e-10 -1.70041e-10 5e-05 1.46608e-10 
18 1 0.0702168 0.0169836 0.00738704 0.00551504 -0.00030053 0.000419728 -2.00657e-12 3.81732e-11 -3.79869e-11 5e-05 1.46608e-10 
19 1 0.0640131 0.0162539 0.00803906 0.00608785 0.000250263 -3.15317e-05 4.23054e-12 -1.043e-10 7.74404e-11 5e-05 1.46608e-10 
21 1 0.0641521 0.016437 0.00790718 0.00607957 0.000243889 -1.97992e-05 -6.49026e-12 -1.13309e-10 8.11795e-11 5e-05 1.46608e-10 
22 1 0.0642799 0.0172799 0.0072869 0.00553433 0.000302563 -8.5537e-05 1.40895e-10 1.67415e-11 -2.81888e-11 5e-05 1.46608e-10 
23 1 0.0582993 0.0169693 0.00748089 0.00567287 0.000122571 -3.15583e-05 -9.72603e-11 1.15076e-12 -6.52775e-12 5e-05 1.46608e-10 
24 1 0.070272 0.0172196 0.00721169 0.005638 -0.000452347 0.000228874 -4.58033e-11 3.5455e-11 1.66974e-11 5e-05 1.46608e-10 
25 1 0.064224 0.0170423 0.00746126 0.00583972 0.000281584 -5.07812e-05 -5.32725e-10 1.00345e-10 -1.87554e-10 5e-05 1.46608e-10 
26 1 0.0701593 0.0167528 0.00756973 0.00564194 -0.000315798 0.000436616 -7.86478e-12 -4.63464e-11 3.51335e-11 5e-05 1.46608e-10 
27 1 0.0582533 0.0171879 0.00743863 0.00554165 0.000142051 -0.000149727 -9.79032e-12 1.62125e-11 1.35732e-10 5e-05 1.46608e-10 
28 1 0.0644779 0.0177403 0.00706037 0.00572528 0.000329466 -0.000114044 -3.62005e-11 2.01253e-10 1.00739e-11 5e-05 1.46608e-10 
29 1 0.0639915 0.0161745 0.00809585 0.00610404 0.000133961 -0.000203599 -1.57247e-11 1.51562e-10 4.01039e-10 5e-05 1.46608e-10 
30 1 0.0644904 0.0174978 0.00713117 0.00564491 0.000276239 -5.68526e-05 -2.94274e-10 1.53158e-10 -1.09556e-10 5e-05 1.46608e-10 
31 1 0.0642615 0.0172007 0.00734504 0.00559516 0.00030634 -8.43312e-05 5.72855e-10 2.51199e-11 -2.37915e-11 5e-05 1.46608e-10 
32 1 0.0643559 0.0172284 0.00732697 0.00559281 0.000352288 -0.000115938 -2.57135e-11 1.79411e-10 -1.05875e-10 5e-05 1.46608e-10 
33 1 0.0700994 0.0165223 0.00775214 0.00597857 -0.000364074 0.000486271 -3.48566e-12 1.7831e-11 -1.48069e-11 5e-05 1.46608e-10 
34 1 0.0641431 0.0167264 0.00769287 0.00600754 0.000194348 1.08713e-05 1.15874e-10 1.2202e-10 -7.73233e-11 5e-05 1.46608e-10 
35 1 0.0643374 0.0171492 0.00738511 0.00565367 0.000347974 -0.000112731 8.16488e-11 3.28303e-12 -2.19851e-11 5e-05 1.46608e-10 
36 1 0.0703675 0.0177103 0.00721932 0.00536696 -0.000417626 0.000360726 -2.38068e-11 -1.00449e-11 8.09989e-13 5e-05 1.46608e-10 
37 1 0.0642992 0.0169902 0.00750173 0.00583301 0.000228645 -1.75511e-05 4.24464e-11 3.89899e-10 -3.26193e-10 5e-05 1.46608e-10 
38 1 0.0644508 0.0172569 0.00730833 0.00553949 0.000358546 -0.000117704 -5.20197e-11 4.44367e-10 -2.88319e-10 5e-05 1.46608e-10 
39 1 0.0702916 0.0173176 0.0072117 0.00557362 -0.000440705 0.000263024 -1.59251e-10 7.25622e-11 -1.40053e-10 5e-05 1.46608e-10 
41 1 0.0640998 0.0165689 0.00780827 0.00604258 0.000218551 -6.16047e-06 -2.32383e-11 -1.1529e-10 8.36737e-11 5e-05 1.46608e-10 
42 1 0.064298 0.0173592 0.00722871 0.00559826 0.000336364 -0.000108686 2.76847e-10 -2.16082e-10 2.21104e-10 5e-05 1.46608e-10 
44 1 0.0644707 0.0173373 0.00724939 0.00544542 0.000364824 -0.000156943 1.68912e-10 -2.8041e-10 2.55874e-10 5e-05 1.46608e-10 
45 1 0.0701203 0.016599 0.00769147 0.00556406 -0.00030172 0.000422729 2.57846e-11 -2.84435e-12 5.63904e-12 5e-05 1.46608e-10 
46 1 0.0702015 0.0169061 0.00744846 0.00556681 -0.000307242 0.000427234 3.79082e-12 6.73073e-12 1.57222e-12 5e-05 1.46608e-10 
47 1 0.0641214 0.0166477 0.00775057 0.00602427 0.000204811 3.68204e-06 -6.42392e-11 -1.77651e-11 7.58033e-12 5e-05 1.46608e-10 
48 1 0.0643356 0.0175332 0.0071449 0.0056484 0.000329784 -0.000211895 -2.68723e-10 -1.39459e-10 -3.34854e-10 5e-05 1.46608e-10 
49 1 0.0701801 0.0168295 0.00750905 0.00561605 -0.000314247 0.000434308 -4.89026e-12 -3.67473e-11 2.64421e-11 5e-05 1.46608e-10 
50 1 0.0643881 0.0177841 0.00706291 0.00571083 0.000323128 -0.000152697 -2.86267e-11 -8.0249e-11 -2.17039e-10 5e-05 1.46608e-10 
51 1 0.0643691 0.0176849 0.00705815 0.00570109 0.000347498 -0.000199825 -9.6168e-11 -1.47243e-10 1.60531e-11 5e-05 1.46608e-10 
52 1 0.0581425 0.0167376 0.00771167 0.00593112 5.87777e-05 3.58469e-05 1.4711e-11 -8.3704e-11 8.03238e-11 5e-05 1.46608e-10 
53 1 0.070236 0.0170605 0.00732612 0.00545776 -0.00028878 0.000411575 -1.89459e-11 7.53069e-11 -3.82481e-11 5e-05 1.46608e-10 
54 1 0.0641305 0.0163583 0.00796488 0.00607418 0.000246562 -2.73089e-05 -3.17968e-11 -1.09512e-10 7.92252e-11 5e-05 1.46608e-10 
55 1 0.0579256 0.0160481 0.00840252 0.00585813 4.45689e-05 4.88947e-05 -8.95979e-11 -7.14909e-11 8.33478e-11 5e-05 1.46608e-10 
56 1 0.0643185 0.0170697 0.00744342 0.00588729 0.000432443 -0.000168133 -6.34321e-10 3.17201e-10 -3.29227e-10 5e-05 1.46608e-10 
57 1 0.0701402 0.0166759 0.00763067 0.00561469 -0.000309943 0.000431026 -1.8832e-11 -2.77138e-11 2.27559e-11 5e-05 1.46608e-10 
59 1 0.0643759 0.0169396 0.00754116 0.00581791 0.000192332 8.54508e-06 -6.75419e-11 3.75673e-10 -2.89248e-10 5e-05 1.46608e-10 
60 1 0.064395 0.0170189 0.007483 0.00586181 0.000315762 -8.13993e-05 -8.32663e-10 6.38455e-10 -5.10792e-10 5e-05 1.46608e-10 
61 1 0.0640781 0.0164902 0.00786597 0.00605704 0.000233851 -1.79024e-05 -3.34697e-11 -1.34737e-10 1.00903e-10 5e-05 1.46608e-10 
62 1 0.064486 0.0174174 0.00719051 0.00554032 0.000271615 -5.14823e-05 -7.25485e-11 1.93207e-10 -5.85056e-11 5e-05 1.46608e-10 
63 1 0.0644271 0.0175735 0.00714685 0.00567382 0.000302903 -0.000103657 -6.35184e-10 3.2853e-10 1.46518e-10 5e-05 1.46608e-10 
64 1 0.0702618 0.0171367 0.00726673 0.00549576 -0.000418426 0.000256366 -2.59108e-12 7.68528e-11 1.01256e-11 5e-05 1.46608e-10 
65 1 0.05835 0.0174339 0.00728668 0.00558895 0.000147202 -5.73081e-05 -8.3845e-11 2.58369e-11 -6.0171e-11 5e-05 1.46608e-10 
66 1 0.0583591 0.0171208 0.00745216 0.00583291 0.000126848 -0.000251383 -2.94535e-11 -3.91521e-11 1.51011e-10 5e-05 1.46608e-10 
67 1 0.0646231 0.0175529 0.00709383 0.005553 0.000294171 -6.32079e-05 -3.41573e-10 -6.94694e-11 1.43638e-10 5e-05 1.46608e-10 
68 1 0.0645484 0.01767 0.00705071 0.00572547 0.000318952 -0.000198952 -3.66413e-10 4.62493e-11 -2.88072e-11 5e-05 1.46608e-10 
69 1 0.064239 0.0167524 0.00767614 0.00611737 0.000374695 -0.00011951 1.59896e-10 2.23897e-10 -1.5812e-10 5e-05 1.46608e-10 
70 1 0.0703105 0.0174158 0.0072133 0.00541805 -0.000416392 0.000361759 -4.1563e-11 2.66157e-11 -2.19816e-11 5e-05 1.46608e-10 
71 1 0.0579039 0.0159792 0.00847161 0.00583316 4.03471e-05 5.09213e-05 1.9923e-11 -2.22071e-11 2.0914e-11 5e-05 1.46608e-10 
72 1 0.0645262 0.0175733 0.00707623 0.00572269 0.000274284 -4.17424e-05 -1.54396e-10 2.70262e-10 -9.92666e-11 5e-05 1.46608e-10 
73 1 0.0642045 0.0169632 0.00751926 0.00583635 0.000252784 -3.51299e-05 1.99412e-10 2.08108e-10 -1.66212e-10 5e-05 1.46608e-10 
74 1 0.0643929 0.0173869 0.00721071 0.00548389 0.000368647 -0.000115867 -1.98301e-10 8.3481e-11 -2.81444e-10 5e-05 1.46608e-10 
76 1 0.0584239 0.0175454 0.00719363 0.00556797 0.000144803 -6.22747e-05 -3.51922e-11 1.11935e-11 7.11356e-12 5e-05 1.46608e-10 
77 1 0.0646195 0.0184252 0.0070875 0.00592783 0.000221803 -0.000209776 5.97821e-10 -7.74678e-10 -5.04074e-11 5e-05 1.46608e-10 
78 1 0.0579907 0.0162549 0.0081953 0.00588107 5.04665e-05 4.41112e-05 -2.64328e-11 -9.49558e-12 1.46533e-11 5e-05 1.46608e-10 
79 1 0.0582439 0.0169069 0.00764727 0.0057495 0.000108498 -1.26289e-05 -3.87516e-12 3.85504e-12 3.13482e-11 5e-05 1.46608e-10 
80 1 0.064445 0.0180784 0.00707588 0.00544676 0.000414732 -0.000182188 -6.23213e-10 -1.85781e-10 -2.0124e-11 5e-05 1.46608e-10 
81 1 0.0581674 0.016883 0.00770701 0.00580881 5.73188e-05 4.18232e-05 -2.86631e-11 -1.3426e-10 5.99597e-11 5e-05 1.46608e-10 
82 1 0.0582202 0.0170184 0.00743021 0.00559686 0.000121212 -2.78598e-05 -1.62146e-11 -6.84461e-12 3.48585e-12 5e-05 1.46608e-10 
83 1 0.0583404 0.0167093 0.00774339 0.00580745 0.000117809 -2.36712e-05 -4.09972e-11 4.12306e-11 -2.63849e-11 5e-05 1.46608e-10 
84 1 0.0703484 0.0176122 0.0072173 0.00538965 -0.000420469 0.000362727 1.78921e-11 -5.02751e-11 2.00092e-11 5e-05 1.46608e-10 
85 1 0.0580884 0.0162408 0.00821113 0.00586914 6.86915e-05 2.47398e-05 -6.09287e-11 3.12747e-11 -4.21504e-11 5e-05 1.46608e-10 
86 1 0.0644575 0.0176454 0.00708435 0.00575324 0.000327273 -3.97906e-05 -2.44331e-10 3.49363e-10 1.68167e-10 5e-05 1.46608e-10 
87 1 0.0643564 0.0168605 0.00759916 0.005821 0.000183562 1.45849e-05 -1.4295e-10 1.7431e-10 -1.32031e-10 5e-05 1.46608e-10 
88 1 0.0645093 0.0183744 0.00708895 0.00591516 7.13809e-05 -0.000212936 2.30357e-10 1.94226e-10 -1.21189e-11 5e-05 1.46608e-10 
89 1 0.0644652 0.0181763 0.00708024 0.00596459 0.000308416 -0.000205559 -1.24803e-10 -4.56637e-10 -3.14994e-11 5e-05 1.46608e-10 
90 1 0.0645681 0.0173177 0.00726637 0.00557788 0.000319347 -9.46172e-05 5.29219e-11 -1.59408e-10 1.53374e-10 5e-05 1.46608e-10 
91 1 0.0581827 0.016876 0.00757299 0.00573042 9.64367e-05 -3.94459e-06 -9.94048e-12 -6.44015e-11 5.07768e-11 5e-05 1.46608e-10 
92 1 0.0645915 0.0178711 0.0070596 0.0056803 0.000332015 -0.000184128 2.02837e-10 -1.41113e-11 2.12432e-11 5e-05 1.46608e-10 
93 1 0.0645759 0.0182302 0.00707894 0.0059825 0.000299451 -0.000206563 -6.13148e-10 -3.58731e-10 -4.46778e-11 5e-05 1.46608e-10 
94 1 0.0646518 0.0181654 0.00707273 0.0059631 0.000246857 -0.000210158 -6.92975e-11 -3.7471e-11 2.10382e-11 5e-05 1.46608e-10 
95 1 0.064426 0.0179803 0.00707147 0.00567027 0.000277659 -0.000194897 4.07937e-10 -4.27077e-10 -2.84029e-10 5e-05 1.46608e-10 
96 1 0.0646113 0.0179691 0.00706399 0.00570547 0.000309497 -0.000195621 -4.4078e-11 -2.8165e-10 -2.2423e-11 5e-05 1.46608e-10 
97 1 0.0580992 0.0165997 0.00784985 0.00590754 6.43862e-05 3.1631e-05 1.41877e-11 -5.05411e-11 5.45082e-11 5e-05 1.46608e-10 
98 1 0.064531 0.0184719 0.00709323 0.00590949 4.69015e-05 -0.000214303 2.95864e-10 3.98084e-10 -1.12551e-11 5e-05 1.46608e-10 
99 1 0.0583401 0.0171966 0.00738974 0.00555417 0.000165544 -0.000118877 -1.75474e-11 -5.22988e-11 8.67135e-11 5e-05 1.46608e-10 
100 1 0.0645293 0.0171595 0.00738241 0.00557679 0.000332063 -0.000100852 -9.40161e-11 1.6766e-10 -1.72077e-10 5e-05 1.46608e-10 
101 1 0.0581813 0.0166125 0.00790705 0.00591601 7.50904e-05 2.16111e-05 1.46035e-10 -5.58938e-11 2.30172e-10 5e-05 1.46608e-10 
102 1 0.0643568 0.0187248 0.00531097 4.32945e-15 1.04437e-14 8.29637e-14 9.45571e-23 -1.87382e-22 1.32349e-23 5e-05 1.46608e-10 
103 1 0.24257 0.0191927 0.00520306 -1.01195e-22 4.01299e-22 8.29106e-22 0 0 0 5e-05 1.46608e-10 
104 1 0.0584424 0.017204 0.00724684 0.00560881 0.000145099 -5.20682e-05 1.98439e-11 -5.89109e-11 5.03163e-11 5e-05 1.46608e-10 
105 1 0.0580564 0.0164624 0.00798882 0.00591119 5.92774e-05 3.66949e-05 -3.36927e-11 -2.69567e-11 6.91994e-11 5e-05 1.46608e-10 
106 1 0.0585219 0.0171562 0.0072963 0.00561829 0.000148669 -5.60315e-05 6.88453e-12 -3.52235e-11 4.92219e-11 5e-05 1.46608e-10 
107 1 0.0580124 0.0163239 0.00812621 0.00589062 5.4609e-05 3.97536e-05 2.50611e-11 -3.85416e-11 3.56575e-11 5e-05 1.46608e-10 
108 1 0.0642796 0.0169111 0.00755974 0.00583699 0.000219688 -1.17444e-05 6.31945e-12 2.17887e-10 -1.76849e-10 5e-05 1.46608e-10 
109 1 0.06435 0.0175868 0.0070617 0.0057252 0.00032982 -8.53998e-05 3.7653e-10 -2.02781e-10 4.16969e-10 5e-05 1.46608e-10 
110 1 0.0647039 0.0179319 0.0070586 0.0057017 0.000264877 -0.00019657 7.38282e-11 2.36857e-10 1.09825e-11 5e-05 1.46608e-10 
111 1 0.0645745 0.0186669 0.0071018 0.00589938 -1.2963e-07 -0.000217269 4.89285e-11 1.06728e-10 1.91589e-11 5e-05 1.46608e-10 
112 1 0.0581209 0.0166687 0.00778076 0.0059107 6.20103e-05 3.16906e-05 1.23441e-10 -1.19106e-10 1.19118e-10 5e-05 1.46608e-10 
113 1 0.0587889 0.0175815 0.00718892 0.00558824 0.000115774 -6.37958e-05 -4.242e-11 1.11902e-10 -8.99027e-12 5e-05 1.46608e-10 
114 1 0.0584649 0.0173156 0.00729453 0.00563156 0.00014793 -5.11074e-05 5.60489e-11 -1.2414e-11 6.32519e-11 5e-05 1.46608e-10 
115 1 0.0644101 0.0174829 0.00718881 0.00559476 0.000346956 -0.000115234 -3.06631e-10 3.07673e-10 -2.79231e-10 5e-05 1.46608e-10 
116 1 0.06426 0.0168321 0.00761773 0.00582309 0.000213101 -7.36609e-06 -7.48964e-11 2.78054e-10 -2.12439e-10 5e-05 1.46608e-10 
117 1 0.0641088 0.0162787 0.00802147 0.00607804 0.000163559 -0.000154642 -1.45313e-13 -7.55997e-11 1.34978e-10 5e-05 1.46608e-10 
118 1 0.0579496 0.0161176 0.00833479 0.00587643 4.69341e-05 4.74284e-05 1.16397e-10 -1.02353e-10 1.22554e-10 5e-05 1.46608e-10 
119 1 0.0644136 0.0170981 0.00742487 0.00560753 0.000334109 -0.000102229 3.69855e-10 2.82047e-10 -2.04281e-10 5e-05 1.46608e-10 
120 1 0.0639699 0.0160944 0.00815163 0.0061186 0.000129276 -0.000217364 5.34871e-12 -3.53006e-11 7.46236e-11 5e-05 1.46608e-10 
121 1 0.0639266 0.0159344 0.00826358 0.00614996 0.000131158 -0.000217538 3.79587e-11 1.2902e-10 -9.34015e-11 5e-05 1.46608e-10 
122 1 0.0647241 0.0180297 0.00706296 0.00581983 0.000231859 -0.000204965 -2.93418e-10 1.72961e-10 4.211e-11 5e-05 1.46608e-10 
123 1 0.0581322 0.0163794 0.00807379 0.00589142 7.49157e-05 1.52278e-05 -3.88407e-11 1.68743e-11 -1.97957e-11 5e-05 1.46608e-10 
124 1 0.0645355 0.0180346 0.00707023 0.00560755 0.000394777 -0.00018961 -3.27882e-11 -3.17752e-10 -2.18847e-11 5e-05 1.46608e-10 
125 1 0.0640872 0.0161984 0.00807699 0.00609254 0.000131224 -0.000209043 6.77106e-11 -1.29223e-10 1.26306e-10 5e-05 1.46608e-10 
126 1 0.0643161 0.0174385 0.00717052 0.00565829 0.000347666 -9.57351e-05 9.35141e-11 -1.24095e-10 5.28174e-11 5e-05 1.46608e-10 
127 1 0.0580775 0.0165308 0.00791894 0.00591627 6.37879e-05 3.34861e-05 -4.00381e-11 -3.69702e-11 4.55583e-11 5e-05 1.46608e-10 
128 1 0.064407 0.0178822 0.00706705 0.00555724 0.000335651 -0.000167081 1.39696e-09 -1.17689e-09 -4.43485e-10 5e-05 1.46608e-10 
129 1 0.0644875 0.0182766 0.00708466 0.00601817 0.000449438 -0.000208284 -2.18171e-10 4.04466e-11 3.55835e-11 5e-05 1.46608e-10 
130 1 0.0583173 0.0170394 0.00741184 0.00563434 0.000126951 -4.10402e-05 -2.00971e-11 -3.56388e-11 7.3855e-11 5e-05 1.46608e-10 
131 1 0.0584071 0.017243 0.00733186 0.00559737 0.000174597 -6.30547e-05 4.00531e-11 5.90807e-11 6.6813e-11 5e-05 1.46608e-10 
132 1 0.0645158 0.0179366 0.00706584 0.00555003 0.000396818 -0.000184946 -2.94304e-10 2.86693e-11 2.29573e-11 5e-05 1.46608e-10 
133 1 0.0642698 0.0165417 0.00783278 0.00609362 0.000275103 -4.65568e-05 4.1117e-11 -6.63717e-11 5.13496e-11 5e-05 1.46608e-10 
134 1 0.0644322 0.0171774 0.00736667 0.00559318 0.000349949 -0.000116253 -3.60951e-13 2.16459e-10 -2.20563e-10 5e-05 1.46608e-10 
135 1 0.0640655 0.0161184 0.00813296 0.00610051 0.000128153 -0.000216824 -8.67781e-12 -1.57374e-10 1.46981e-10 5e-05 1.46608e-10 
136 1 0.0580667 0.0161718 0.00828022 0.00586129 6.70857e-05 2.72982e-05 2.64345e-11 2.64746e-12 1.04961e-11 5e-05 1.46608e-10 
137 1 0.0645962 0.0187644 0.00710609 0.00591676 -1.56106e-05 -0.000221105 4.08748e-11 2.04192e-10 2.2025e-12 5e-05 1.46608e-10 
138 1 0.0642171 0.0166733 0.00773408 0.00605002 0.000223306 -9.23697e-06 -3.1218e-11 -4.08712e-11 3.07558e-11 5e-05 1.46608e-10 
140 1 0.0647442 0.0181276 0.00706732 0.0059453 0.000201441 -0.000210135 1.77923e-10 -4.20381e-12 -1.76151e-11 5e-05 1.46608e-10 
141 1 0.0581101 0.0163097 0.00814204 0.00589187 6.81269e-05 2.73275e-05 7.93732e-11 2.20123e-11 1.52873e-11 5e-05 1.46608e-10 
142 1 0.0584108 0.0170645 0.00738682 0.00563069 0.000135205 -4.61882e-05 -2.72038e-11 -1.34096e-10 1.12129e-10 5e-05 1.46608e-10 
143 1 0.0580341 0.0163928 0.00805712 0.00589641 5.59691e-05 3.86472e-05 -5.43375e-12 -4.33968e-11 7.01602e-11 5e-05 1.46608e-10 
144 1 0.0584494 0.0174243 0.0072821 0.00558903 0.000147143 -6.16552e-05 -2.51664e-11 2.62819e-11 3.87591e-11 5e-05 1.46608e-10 
146 1 0.0583669 0.0167775 0.00767518 0.00576211 0.00012425 -3.14146e-05 2.0021e-10 1.2075e-12 -3.3777e-11 5e-05 1.46608e-10 
147 1 0.0580474 0.0161025 0.00834969 0.00588414 6.71917e-05 2.73682e-05 2.47528e-10 1.61526e-11 -9.35113e-12 5e-05 1.46608e-10 
148 1 0.0582709 0.0172214 0.00722652 0.00561401 0.000132969 -4.27903e-05 3.54971e-11 -4.58117e-12 1.68459e-11 5e-05 1.46608e-10 
149 1 0.064641 0.0185228 0.0070918 0.0059264 0.000199235 -0.000209366 5.82247e-11 -5.8097e-10 -3.46e-11 5e-05 1.46608e-10 
150 1 0.0582312 0.0167058 0.00774516 0.0059344 6.70872e-05 2.75366e-05 3.62826e-11 -7.74152e-11 7.82753e-11 5e-05 1.46608e-10 
151 1 0.0586115 0.0171173 0.00733694 0.00564899 0.000167177 -6.86621e-05 -4.73085e-11 3.71261e-11 -2.97505e-11 5e-05 1.46608e-10 
153 1 0.0581752 0.0165166 0.00793479 0.00592091 7.54903e-05 2.05646e-05 3.79707e-11 6.31146e-12 9.36166e-11 5e-05 1.46608e-10 
154 1 0.0583638 0.0172481 0.00720114 0.00561382 0.000122172 -3.06821e-05 4.85235e-11 -8.87543e-11 1.0076e-10 5e-05 1.46608e-10 
155 1 0.0584427 0.0176436 0.00719149 0.00555616 0.00014208 -6.36613e-05 -3.70216e-12 2.98904e-11 2.14461e-11 5e-05 1.46608e-10 
156 1 0.058349 0.0171781 0.0072714 0.0056155 0.000133335 -4.32679e-05 2.35071e-11 -6.58324e-11 6.63759e-11 5e-05 1.46608e-10 
157 1 0.0219312 0.0187687 0.00551176 -3.83859e-14 8.1643e-14 2.95887e-13 3.68095e-23 -4.73561e-23 1.59232e-23 5e-05 1.46608e-10 
158 1 0.058465 0.0172885 0.00719828 0.0055817 0.000151056 -5.57849e-05 5.8778e-11 -3.31555e-11 4.8787e-11 5e-05 1.46608e-10 
159 1 0.0645723 0.0177731 0.00705524 0.00569353 0.00033686 -0.000163522 2.61518e-10 1.24718e-10 2.28007e-10 5e-05 1.46608e-10 
160 1 0.0583474 0.0176104 0.00719318 0.0055707 0.000144781 -6.90424e-05 -1.35411e-10 -1.15778e-10 -1.22346e-11 5e-05 1.46608e-10 
162 1 0.0583854 0.0173492 0.00719792 0.00560598 0.000155695 -6.33558e-05 2.92349e-11 -6.29619e-11 1.41115e-12 5e-05 1.46608e-10 
164 1 0.0586045 0.0179741 0.00719135 0.00580165 0.000110395 -6.74082e-05 1.17998e-11 2.39656e-12 -1.10486e-11 5e-05 1.46608e-10 
165 1 0.0586746 0.0174517 0.00719273 0.00554189 0.000164099 -6.29188e-05 1.13274e-10 2.3893e-11 -1.04158e-11 5e-05 1.46608e-10 
166 1 0.0642264 0.0163827 0.00794622 0.00610078 0.000115527 -0.00021082 -1.29261e-10 -1.73132e-10 1.18607e-10 5e-05 1.46608e-10 
167 1 0.0582095 0.0166368 0.00781427 0.00589851 6.80319e-05 2.49875e-05 9.70225e-11 -1.59026e-10 1.95814e-10 5e-05 1.46608e-10 
168 1 0.0585394 0.017231 0.00723236 0.00558573 0.00015512 -6.04626e-05 5.25006e-12 -2.27506e-11 5.90304e-11 5e-05 1.46608e-10 
169 1 0.0587346 0.0177456 0.00718628 0.00570496 0.000117743 -6.45277e-05 3.31667e-12 6.03381e-11 5.86661e-12 5e-05 1.46608e-10 
170 1 0.0585798 0.0174201 0.00719439 0.00554906 0.000159781 -6.42888e-05 5.60081e-11 1.02733e-11 2.11374e-12 5e-05 1.46608e-10 
171 1 0.0642481 0.0164627 0.00789025 0.0060926 0.000116026 -0.000206216 2.95649e-11 -1.87689e-10 1.15057e-10 5e-05 1.46608e-10 
172 1 0.0586368 0.0172578 0.00719697 0.00562483 0.000198598 -6.15658e-05 -1.64199e-10 -7.84807e-11 8.68836e-12 5e-05 1.46608e-10 
173 1 0.0646925 0.0174959 0.00713778 0.00567664 0.000380329 -0.000134012 -2.8389e-10 -1.7237e-10 1.56072e-10 5e-05 1.46608e-10 
174 1 0.0585033 0.0174847 0.00719396 0.00557737 0.000148508 -6.4292e-05 -1.60811e-11 4.04043e-11 2.01076e-11 5e-05 1.46608e-10 
175 1 0.0522814 0.017327 0.00739308 0.0052893 -0.000577574 -4.00665e-05 -1.84994e-12 -1.17471e-11 5.04297e-12 5e-05 1.46608e-10 
176 1 0.058332 0.0171086 0.00734118 0.00562222 0.000130167 -4.31368e-05 5.97135e-12 -4.50594e-11 6.93136e-11 5e-05 1.46608e-10 
177 1 0.0583858 0.0178067 0.00718889 0.00551543 0.000147615 -6.30334e-05 3.32833e-11 9.9423e-11 -1.5459e-13 5e-05 1.46608e-10 
178 1 0.0587694 0.0174834 0.00719107 0.00555091 0.000129173 -6.3178e-05 1.29875e-10 4.71861e-11 8.64093e-12 5e-05 1.46608e-10 
179 1 0.058714 0.0176478 0.00718843 0.00562137 0.000143481 -6.33644e-05 -3.90184e-11 7.1118e-11 -1.76716e-11 5e-05 1.46608e-10 
181 1 0.0583094 0.0174141 0.00719747 0.0055916 0.000139322 -6.31114e-05 -5.21669e-11 -2.86732e-11 -7.44911e-11 5e-05 1.46608e-10 
182 1 0.0641955 0.0165945 0.00779178 0.00605227 0.00023542 -1.81933e-05 1.98763e-11 -6.03432e-11 4.4136e-11 5e-05 1.46608e-10 
183 1 0.0585602 0.017322 0.00719654 0.00558472 0.000155748 -6.3609e-05 8.60409e-12 -1.07052e-11 2.63749e-11 5e-05 1.46608e-10 
184 1 0.0645565 0.0178234 0.00714021 0.00572448 0.000340105 -0.000150436 6.25691e-11 2.71045e-10 -2.87927e-11 5e-05 1.46608e-10 
185 1 0.0582537 0.0171519 0.00729629 0.0057208 0.000125974 -2.88416e-05 -6.80314e-11 -1.17154e-11 -7.55561e-11 5e-05 1.46608e-10 
186 1 0.0582904 0.017316 0.00720042 0.00561763 0.000131799 -4.70548e-05 7.07976e-11 5.54407e-12 3.52779e-11 5e-05 1.46608e-10 
187 1 0.0645107 0.0170803 0.00744054 0.00555489 0.000319647 -9.26492e-05 -2.53591e-10 3.58463e-10 -2.53605e-10 5e-05 1.46608e-10 
188 1 0.0645976 0.0183278 0.00708323 0.00598549 0.000242472 -0.000210186 2.70575e-10 -4.08531e-10 -1.45954e-11 5e-05 1.46608e-10 
189 1 0.0645479 0.0172387 0.00732428 0.00554999 0.000334549 -0.000106817 7.10597e-11 -1.05438e-10 2.37319e-11 5e-05 1.46608e-10 
190 1 0.0523922 0.0174526 0.00733436 0.00279396 0.00472692 -0.00213659 -6.62015e-11 4.94086e-12 1.46559e-12 5e-05 1.46608e-10 
191 1 0.0646179 0.0188619 0.00711038 0.00591943 -1.84917e-05 -0.000221252 3.72222e-11 2.91069e-10 2.17473e-11 5e-05 1.46608e-10 
192 1 0.0585143 0.0170192 0.00744153 0.00568855 0.000160205 -4.34584e-05 9.13531e-11 -1.00458e-10 -1.50166e-10 5e-05 1.46608e-10 
193 1 0.0643367 0.0167814 0.00765715 0.00581925 0.000185022 1.30932e-05 -7.01809e-11 2.37355e-10 -1.72844e-10 5e-05 1.46608e-10 
194 1 0.058308 0.0168339 0.00761735 0.0057451 0.000113011 -1.86547e-05 -1.44997e-11 1.62671e-11 2.494e-11 5e-05 1.46608e-10 
195 1 0.0586939 0.0175498 0.00719058 0.0055713 0.00015569 -6.56869e-05 1.09628e-10 4.22349e-11 2.55373e-11 5e-05 1.46608e-10 
196 1 0.057839 0.0157815 0.0086876 0.00578925 -0.000355614 -0.000275385 9.08023e-11 2.9554e-10 -2.9448e-10 5e-05 1.46608e-10 
197 1 0.0523452 0.0176222 0.00726556 0.00561207 0.000653202 -0.000574738 5.19161e-13 3.58547e-13 -1.77106e-13 5e-05 1.46608e-10 
198 1 0.0582147 0.0170321 0.00755397 0.0057379 0.000143489 -6.10582e-05 -2.63751e-11 -6.00992e-11 2.15346e-11 5e-05 1.46608e-10 
199 1 0.0584044 0.0174474 0.00719579 0.00557469 0.000148071 -6.71953e-05 1.69004e-11 -4.75273e-11 -1.21584e-10 5e-05 1.46608e-10 
200 1 0.0582026 0.0169489 0.00749992 0.00578441 9.41095e-05 2.50839e-06 7.53478e-14 -1.37301e-11 -1.15318e-11 5e-05 1.46608e-10 
201 1 0.058703 0.0180071 0.00718146 0.00580704 0.000104147 -6.59445e-05 2.73262e-11 6.10443e-12 8.04657e-13 5e-05 1.46608e-10 
202 1 0.0585215 0.0170857 0.00736725 0.00565268 0.000147959 -5.45193e-05 8.24586e-11 -2.33507e-11 1.17692e-12 5e-05 1.46608e-10 
203 1 0.0645868 0.0174775 0.00714865 0.00563222 0.0002781 -5.09756e-05 5.71741e-12 -4.8089e-11 3.32507e-11 5e-05 1.46608e-10 
204 1 0.0582767 0.0169036 0.00755285 0.00572527 0.000112898 -2.13676e-05 -4.19034e-11 4.63626e-11 -6.02348e-11 5e-05 1.46608e-10 
205 1 0.0585626 0.0177787 0.00718751 0.00573277 0.000117595 -6.50075e-05 -4.76765e-11 8.453e-12 5.41649e-13 5e-05 1.46608e-10 
206 1 0.0585224 0.0175828 0.00719181 0.00557824 0.000147147 -6.40161e-05 -1.2454e-10 3.80116e-11 1.56117e-12 5e-05 1.46608e-10 
207 1 0.0581552 0.0164474 0.00800416 0.00591613 7.59236e-05 1.78462e-05 -3.00392e-11 1.81007e-12 1.05726e-11 5e-05 1.46608e-10 
208 1 0.0584839 0.0173867 0.0071961 0.00557836 0.00015001 -6.35181e-05 7.75567e-11 1.71497e-11 2.17684e-11 5e-05 1.46608e-10 
209 1 0.0582526 0.0167748 0.00767602 0.00575833 9.97891e-05 -7.55186e-06 4.97251e-11 -4.64785e-11 3.49889e-11 5e-05 1.46608e-10 
210 1 0.0643284 0.017508 0.0072414 0.0056743 0.000455288 -0.000183508 3.82331e-11 3.34517e-10 -2.97935e-10 5e-05 1.46608e-10 
211 1 0.0646312 0.0180669 0.00706836 0.00577846 0.000280598 -0.000199561 -2.6625e-11 -2.60006e-10 -1.06197e-11 5e-05 1.46608e-10 
212 1 0.0585989 0.0175182 0.00719225 0.00555936 0.000157029 -6.41738e-05 -3.45507e-11 2.57377e-11 -2.41227e-11 5e-05 1.46608e-10 
213 1 0.0644922 0.0170011 0.00749867 0.00565227 0.000289112 -6.85763e-05 -4.63282e-10 3.92964e-10 -2.9721e-10 5e-05 1.46608e-10 
214 1 0.0645559 0.0181324 0.00707458 0.00584624 0.000347983 -0.000199654 -4.10642e-10 -5.71715e-10 -3.80234e-11 5e-05 1.46608e-10 
215 1 0.0523503 0.0171923 0.00744602 0.0060975 0.000905324 -0.000706693 5.90244e-12 1.12148e-11 -5.05555e-12 5e-05 1.46608e-10 
216 1 0.0583666 0.0177085 0.00719104 0.00554612 0.000142552 -6.42747e-05 1.24982e-11 7.65361e-11 5.83986e-12 5e-05 1.46608e-10 
217 1 0.0642915 0.0166205 0.00777506 0.00613318 0.000294318 -5.96871e-05 3.42575e-11 -2.65038e-11 1.94009e-11 5e-05 1.46608e-10 
218 1 0.0584823 0.0178396 0.00718719 0.00576705 7.69682e-05 -6.47645e-05 -8.28045e-11 -6.66103e-11 4.33209e-13 5e-05 1.46608e-10 
219 1 0.0645528 0.0185694 0.00709752 0.00589786 3.5033e-05 -0.00021458 1.32451e-10 1.9499e-10 2.9018e-11 5e-05 1.46608e-10 
220 1 0.0583283 0.0175123 0.00719535 0.00556266 0.000140109 -6.52827e-05 4.00232e-11 -3.21831e-11 -1.73139e-10 5e-05 1.46608e-10 
221 1 0.0522839 0.0169025 0.00757142 0.00688982 0.00137035 -0.000944606 -4.00492e-13 3.6786e-11 -1.53567e-11 5e-05 1.46608e-10 
222 1 0.0643141 0.0167002 0.0077167 0.00639404 0.000618315 -0.000292708 -2.84442e-12 -6.32673e-11 4.68668e-11 5e-05 1.46608e-10 
223 1 0.0584265 0.0171342 0.00731689 0.0056205 0.000136678 -4.63927e-05 1.25494e-11 -1.12847e-10 6.57074e-11 5e-05 1.46608e-10 
224 1 0.0582399 0.0171044 0.00738318 0.00569587 0.000104314 -3.49979e-05 3.84809e-13 -3.37884e-11 -1.49573e-10 5e-05 1.46608e-10 
225 1 0.064779 0.0178661 0.00705237 0.0055502 0.00024154 -0.0001933 -1.77775e-11 -8.98545e-12 2.44168e-11 5e-05 1.46608e-10 
226 1 0.0586257 0.0171874 0.00726707 0.0056476 0.000184026 -6.46064e-05 -1.77037e-10 -4.75071e-12 2.11962e-11 5e-05 1.46608e-10 
227 1 0.0524415 0.0171531 0.00745764 0.00684002 0.00243015 -0.00138743 1.15858e-11 3.40854e-11 -1.49349e-11 5e-05 1.46608e-10 
228 1 0.0523008 0.017417 0.00735418 0.00530799 -0.000571316 -4.36967e-05 -3.09743e-13 -4.29263e-12 1.81925e-12 5e-05 1.46608e-10 
229 1 0.0583491 0.0173067 0.00728084 0.00563252 0.000131637 -6.16571e-05 8.53333e-11 1.7127e-11 7.63863e-11 5e-05 1.46608e-10 
230 1 0.0586483 0.0181686 0.00717888 0.00581179 0.000108473 -6.59237e-05 -9.62968e-12 2.58456e-12 2.13065e-12 5e-05 1.46608e-10 
231 1 0.0522619 0.0172369 0.00743197 0.00524677 -0.000568984 -4.14013e-05 -1.71599e-12 -1.16099e-11 4.9775e-12 5e-05 1.46608e-10 
232 1 0.0583093 0.0166421 0.00781059 0.0058872 0.000101387 -7.84126e-06 3.29328e-11 -4.34121e-11 -1.22376e-11 5e-05 1.46608e-10 
233 1 0.0583865 0.0170244 0.00748241 0.00607606 0.000454045 -0.000408446 9.81169e-11 -6.74152e-11 -4.7419e-11 5e-05 1.46608e-10 
234 1 0.0647148 0.0184555 0.00708554 0.0059141 0.000291971 -0.000204718 4.78736e-10 4.34117e-11 -2.31916e-11 5e-05 1.46608e-10 
235 1 0.0586911 0.0183639 0.00717456 0.00583226 0.000108391 -6.59739e-05 -3.30224e-11 1.08302e-11 4.9791e-13 5e-05 1.46608e-10 
236 1 0.0586697 0.0182663 0.00717672 0.00581398 0.000109232 -6.58123e-05 -3.57644e-11 4.98736e-12 -3.69402e-12 5e-05 1.46608e-10 
237 1 0.058765 0.0182966 0.00717507 0.00581773 9.49364e-05 -6.56321e-05 -4.51538e-11 1.93696e-11 2.37577e-12 5e-05 1.46608e-10 
239 1 0.0520752 0.016403 0.007763 0.00560517 -0.000361388 0.000601281 2.38833e-12 6.44411e-12 -2.39122e-12 5e-05 1.46608e-10 
240 1 0.0521369 0.0166776 0.00765906 0.00559598 -0.000359467 0.000599768 1.8493e-12 5.60291e-12 -1.86082e-12 5e-05 1.46608e-10 
241 1 0.0520547 0.0163115 0.00779765 0.00560825 -0.000361981 0.000601769 2.63023e-12 6.5843e-12 -2.4096e-12 5e-05 1.46608e-10 
242 1 0.0583732 0.0169196 0.00753214 0.00571632 0.000134511 -4.66084e-05 -4.62542e-11 1.34341e-10 -1.99621e-10 5e-05 1.46608e-10 
243 1 0.0582372 0.0171005 0.00748459 0.00561778 0.000161599 -8.20663e-05 -3.27681e-11 -2.40699e-11 5.483e-14 5e-05 1.46608e-10 
244 1 0.0520958 0.0164945 0.00772835 0.0056021 -0.000360764 0.000600784 2.23934e-12 6.19976e-12 -2.02441e-12 5e-05 1.46608e-10 
246 1 0.0522208 0.0170487 0.00751331 0.0058941 0.000711426 -0.000614299 7.82976e-13 1.17001e-12 -5.33355e-13 5e-05 1.46608e-10 