# vtk DataFile Version 3.0
LIGGGHTS particles timestep 5000000
ASCII
DATASET POLYDATA
POINTS 248 float
0.0228443 0.0174483 0.0169263
0.0245418 0.0220989 0.0157945
0.021214 0.0234292 0.0121742
0.0234826 0.0163497 0.0150451
0.0166155 0.0151032 0.0163219
0.0150699 0.0156202 0.0155044
0.0153891 0.0216285 0.0154413
0.0157404 0.0167642 0.0162739
0.0220607 0.0194484 0.016153
0.014909 0.0207286 0.0166152
0.0137266 0.018724 0.016759
0.0183861 0.0192809 0.0168303
0.0167216 0.0198542 0.0160111
0.023398 0.0195684 0.0172375
0.0169096 0.0188797 0.0161226
0.0173959 0.0240601 0.0131225
0.0177593 0.0239956 0.016409
0.0229842 0.022627 0.0148701
0.027826 0.0195272 0.0157905
0.0242851 -0.0094314 -0.00323339
0.0214193 0.0149194 0.0147791
0.0163532 0.0216548 0.0152446
0.0234403 0.0172001 0.0155696
0.0149959 0.0227679 0.0138839
0.0162797 0.0208648 0.0166828
0.0239628 0.0154209 0.00919957
0.0204462 0.0234549 0.0116285
0.0179448 0.0161691 0.014887
0.019703 0.0217789 0.0160743
0.0290369 0.0150882 0.0129396
0.0242237 0.0169124 0.00659102
0.0169189 0.0152947 0.013887
0.020262 0.0228025 0.016421
0.0190721 0.024415 0.0137431
0.0148035 0.022234 0.016023
0.12014 0.0210465 0.00606171
0.0163379 0.0232335 0.0163098
0.0236931 0.0162247 0.0160157
0.0165329 0.0165762 0.0151931
0.0206956 0.0232343 0.0128794
0.0248617 0.0162415 0.0159659
0.0178987 0.0243364 0.0139529
0.0230447 0.0236576 0.0150879
0.0276264 0.0202486 0.0156469
0.0208462 0.0234677 0.0146344
0.018122 0.0142023 0.0126838
0.0152247 0.0175745 0.0165881
0.0204782 0.0150508 0.0162198
0.0189362 0.0201031 0.0166492
0.014995 0.0193649 0.0167796
0.0172841 0.0209712 0.0166149
0.0225187 0.0166356 0.0152292
0.0191023 0.0149786 0.0157659
0.0171787 0.0148004 0.01283
0.0214549 0.0149163 0.0158361
0.0159117 0.0192715 0.0160524
0.0197186 0.0143208 0.0161986
0.0187598 0.0183599 0.00721647
0.0216997 0.0203062 0.015787
0.0156028 0.0215625 0.0164159
0.017945 0.0153652 0.0158745
0.0181361 0.0163332 0.0163117
0.0203029 0.0140469 0.0130867
0.0247747 0.0183614 0.0177905
0.0227208 0.0158725 0.0146074
0.0151942 0.0221769 0.0146408
0.0283333 0.0171317 0.0153294
0.0139993 0.0203523 0.0174728
0.0201623 0.0146455 0.0153583
0.0242235 0.0163607 0.00816455
0.0174236 0.0165574 0.015647
0.0147627 0.0219497 0.0169807
0.0242225 0.0157327 0.0153152
0.0183482 0.0240779 0.012966
0.0193872 0.0169181 0.0163065
0.0169805 0.0239635 0.0139654
0.0170138 0.0221777 0.0158385
0.017201 0.0219755 0.0148617
0.0229705 0.018042 0.0158342
0.0160267 0.0224929 0.0143267
0.0189759 0.0193603 0.00718481
0.0221435 0.0238535 0.0147075
0.0185317 0.0221226 0.0157938
0.0222345 0.0146368 0.0171598
0.0222889 0.0149142 0.0152727
0.0185165 0.0153653 0.0150538
0.0210819 0.022617 0.0141708
0.0168207 0.0227141 0.0170147
0.0258869 0.0209537 0.0213229
0.0205525 0.0225121 0.015508
0.0202795 0.0163307 0.0159918
0.0142794 0.0214128 0.0162478
0.0187042 0.0229115 0.0152042
0.0197892 0.0156381 0.0154607
0.0161086 0.0182834 0.0161239
0.0235978 0.0148712 0.010555
0.0168448 0.0239366 0.0168083
0.0267878 0.0229668 0.0131946
0.0158087 0.0151131 0.0150573
0.0194339 0.0213844 0.00793977
0.0229639 0.021654 0.0150998
0.0286073 0.0162395 0.0147326
0.0193963 0.0149636 0.0147997
0.0171616 0.0156549 0.0152366
0.0215281 0.0212938 0.0156916
0.027471 0.0209032 0.0154173
0.0201992 0.0238277 0.0154974
0.0146972 0.018411 0.0167382
0.0294994 0.0147945 0.0110644
0.0249706 0.0193656 0.00715291
0.0223598 0.0150548 0.0162602
0.03013 0.0158635 0.00859503
0.0163226 0.0173834 0.0157444
0.0175612 0.0205041 0.0157482
0.024132 0.0174084 0.0162678
0.0156686 0.0200791 0.0165894
0.0233691 0.0147351 0.011762
0.0183412 0.01693 0.0154107
0.0207644 0.0154485 0.0153463
0.0177696 0.0226198 0.0153561
0.0296515 0.0149435 0.0103127
0.0166801 0.0176508 0.0166466
0.0205096 0.0205898 0.0165523
0.0194633 0.0227173 0.0158255
0.0195907 0.0236151 0.0141757
0.0241854 0.0191959 0.0167277
0.0189769 0.0160918 0.0158272
0.0430669 0.0177959 0.00604066
0.0186476 0.0146191 0.0119424
0.0198743 0.0227124 0.00927795
0.0219084 0.0232885 0.0128349
0.0238899 0.0226709 0.0152958
0.0160815 0.0143845 0.014018
0.015418 0.0232397 0.0145895
0.0186859 0.0142389 0.0141512
0.0194298 0.0236735 0.0161173
0.0137338 0.0174767 0.0165704
0.0148728 0.0149217 0.0147613
0.021529 0.0224602 0.0157345
0.0293463 0.0148105 0.0118216
0.0255335 0.0192235 0.0167451
0.0212297 0.0239263 0.0130906
0.0221578 0.0229049 0.0136955
0.0152258 0.0211931 0.0174425
0.0135518 0.0160008 0.0157802
0.0192771 0.0237163 0.01513
0.0139921 0.0213185 0.017201
0.0279521 0.0109428 0.0334074
0.0255799 0.0202433 0.0166147
0.0215397 0.0233843 0.0153526
0.0228679 0.0233566 0.0141787
0.0195931 0.0143171 0.0137375
0.018647 0.0175087 0.00745346
0.0135591 0.0213756 0.0181006
0.0145263 0.0230261 0.015001
0.0222483 0.0160001 0.0159522
0.0177765 0.0218049 0.0163672
0.0273147 0.0214733 0.0149971
0.0270932 0.0222422 0.0142105
0.0166033 0.0227376 0.0151113
0.0127271 0.0206469 0.0165133
0.0163057 0.0159852 0.015967
0.0173799 0.0141059 0.0144582
0.0178247 0.0173032 0.016182
0.0141325 0.0153806 0.0152528
0.0160272 0.022322 0.0159141
0.0257188 0.0181365 0.0166738
0.0224621 0.020904 0.0155384
0.0137599 0.0206085 0.0165362
0.0235695 0.0153366 0.0146474
0.0206941 0.0216501 0.0161134
0.0258782 0.0228364 0.00933923
0.0195535 0.0208638 0.0164487
0.0243265 0.0168017 0.015334
0.019306 0.0240977 0.0128292
0.0183636 0.0181085 0.0166112
0.0205561 0.0137053 0.0139852
0.0203052 0.0241025 0.0128555
0.0252443 0.0171302 0.0163621
0.0221022 0.0223234 0.0145072
0.0279824 0.0187718 0.0158257
0.0230871 0.0197795 0.0159356
0.00637172 0.0355202 0.0633592
0.0186102 0.0237285 0.0142931
0.0132801 0.0214266 0.0162194
0.0160084 0.0236073 0.0152334
0.0281248 0.017945 0.0156636
0.0204748 0.0238911 0.0138116
0.0192185 0.0141956 0.0126457
0.0166926 0.0217752 0.0166954
0.0237382 0.01875 0.0159473
0.0223288 0.021872 0.0158549
0.0169422 0.0141602 0.0135607
0.0172754 0.0232429 0.0159622
0.0201975 0.0220589 0.00843531
0.0220779 0.0184598 0.0160035
0.0127399 0.0196684 0.0167186
0.0178609 0.0191517 0.0159894
0.0181199 0.0236506 0.015539
0.0212569 0.016131 0.0158874
0.0177789 0.0152286 0.0143926
0.016605 0.0207753 0.0156441
0.0205183 0.0146698 0.0144242
0.0182308 0.0143504 0.0153392
0.0218063 0.014026 0.0144406
0.0234625 0.0208933 0.0155415
0.0195786 0.0155156 0.0164692
0.0231354 0.0212098 0.0164389
0.0189688 0.0135235 0.0174101
0.0163787 0.0233698 0.0143699
0.0235056 0.0219601 0.0158849
0.0209644 0.0196868 0.016739
0.0175992 0.0146201 0.0119409
0.0169933 0.023663 0.0150992
0.0213744 0.0241596 0.0141505
0.0230567 0.0155337 0.0154862
0.0169962 0.0226327 0.0141527
0.022146 0.0191223 0.0177193
0.01768 0.023404 0.0144275
0.0189556 0.0220753 0.0166982
0.0188493 0.0150356 0.0134211
0.0179086 0.013909 0.0136156
0.0242122 0.0212574 0.0162458
0.0156108 0.020681 0.0156698
0.0229546 0.0152038 0.0137496
0.017161 0.0179594 0.0158222
0.0138646 0.0222673 0.0156811
0.0185942 0.0212365 0.0162529
0.0140442 0.019672 0.0167413
0.0239651 0.0166528 0.0174751
0.0195718 0.00241766 0.0435188
0.0159271 0.0231308 0.0132787
0.0223986 0.0172297 0.0160248
0.0226864 0.0145312 0.014439
0.0212964 0.0219062 0.0149322
0.0213255 0.0142004 0.0135813
0.0174118 0.014546 0.0160857
0.0264415 0.0233746 0.0115418
0.0167398 0.0148727 0.0147764
0.0198044 0.020656 0.00756318
0.0246774 0.0158114 0.00861819
0.0261259 0.0231935 0.0102444
0.0207602 0.0231395 0.010017
0.0202378 0.023306 0.0107022
0.015334 0.0229838 0.0156281
0.0199763 0.0230668 0.0149076
0.020973 0.0227073 0.0092235
0.0128483 0.018406 0.0250313

VERTICES 248 496
1 0
1 1
1 2
1 3
1 4
1 5
1 6
1 7
1 8
1 9
1 10
1 11
1 12
1 13
1 14
1 15
1 16
1 17
1 18
1 19
1 20
1 21
1 22
1 23
1 24
1 25
1 26
1 27
1 28
1 29
1 30
1 31
1 32
1 33
1 34
1 35
1 36
1 37
1 38
1 39
1 40
1 41
1 42
1 43
1 44
1 45
1 46
1 47
1 48
1 49
1 50
1 51
1 52
1 53
1 54
1 55
1 56
1 57
1 58
1 59
1 60
1 61
1 62
1 63
1 64
1 65
1 66
1 67
1 68
1 69
1 70
1 71
1 72
1 73
1 74
1 75
1 76
1 77
1 78
1 79
1 80
1 81
1 82
1 83
1 84
1 85
1 86
1 87
1 88
1 89
1 90
1 91
1 92
1 93
1 94
1 95
1 96
1 97
1 98
1 99
1 100
1 101
1 102
1 103
1 104
1 105
1 106
1 107
1 108
1 109
1 110
1 111
1 112
1 113
1 114
1 115
1 116
1 117
1 118
1 119
1 120
1 121
1 122
1 123
1 124
1 125
1 126
1 127
1 128
1 129
1 130
1 131
1 132
1 133
1 134
1 135
1 136
1 137
1 138
1 139
1 140
1 141
1 142
1 143
1 144
1 145
1 146
1 147
1 148
1 149
1 150
1 151
1 152
1 153
1 154
1 155
1 156
1 157
1 158
1 159
1 160
1 161
1 162
1 163
1 164
1 165
1 166
1 167
1 168
1 169
1 170
1 171
1 172
1 173
1 174
1 175
1 176
1 177
1 178
1 179
1 180
1 181
1 182
1 183
1 184
1 185
1 186
1 187
1 188
1 189
1 190
1 191
1 192
1 193
1 194
1 195
1 196
1 197
1 198
1 199
1 200
1 201
1 202
1 203
1 204
1 205
1 206
1 207
1 208
1 209
1 210
1 211
1 212
1 213
1 214
1 215
1 216
1 217
1 218
1 219
1 220
1 221
1 222
1 223
1 224
1 225
1 226
1 227
1 228
1 229
1 230
1 231
1 232
1 233
1 234
1 235
1 236
1 237
1 238
1 239
1 240
1 241
1 242
1 243
1 244
1 245
1 246
1 247

POINT_DATA 248
SCALARS id int 1
LOOKUP_TABLE default
2
3
4
5
8
9
10
12
13
14
15
19
20
21
22
23
24
26
27
28
29
31
32
33
34
35
36
37
38
39
40
41
42
43
44
45
46
48
53
54
57
58
59
60
61
62
63
65
66
69
70
71
72
73
74
76
77
79
81
82
83
84
85
86
87
89
90
92
93
94
95
96
97
99
100
101
103
104
105
106
107
108
109
111
112
114
116
119
122
123
124
126
129
130
131
132
133
134
135
137
139
140
141
142
143
144
145
146
147
152
153
154
155
156
157
159
160
161
162
163
164
165
167
168
169
172
173
175
176
177
178
179
180
182
183
184
185
186
187
189
190
191
192
193
194
195
196
197
198
199
200
202
203
204
205
206
207
208
209
211
212
213
214
215
217
218
219
220
222
223
224
226
228
230
231
232
233
235
236
237
239
241
242
245
247
249
253
254
255
256
258
259
260
261
262
263
264
265
269
270
271
273
275
277
278
280
281
282
283
284
285
287
289
290
292
294
296
297
298
299
301
303
305
306
307
308
309
310
311
313
314
315
316
317
318
319
320
321
322
323
327
328
331
333
334
335
337
340

SCALARS type int 1
LOOKUP_TABLE default
1
1
1
1
1
1
1
1
1
1
1
1
1
1
1
1
1
1
1
1
1
1
1
1
1
1
1
1
1
1
1
1
1
1
1
1
1
1
1
1
1
1
1
1
1
1
1
1
1
1
1
1
1
1
1
1
1
1
1
1
1
1
1
1
1
1
1
1
1
1
1
1
1
1
1
1
1
1
1
1
1
1
1
1
1
1
1
1
1
1
1
1
1
1
1
1
1
1
1
1
1
1
1
1
1
1
1
1
1
1
1
1
1
1
1
1
1
1
1
1
1
1
1
1
1
1
1
1
1
1
1
1
1
1
1
1
1
1
1
1
1
1
1
1
1
1
1
1
1
1
1
1
1
1
1
1
1
1
1
1
1
1
1
1
1
1
1
1
1
1
1
1
1
1
1
1
1
1
1
1
1
1
1
1
1
1
1
1
1
1
1
1
1
1
1
1
1
1
1
1
1
1
1
1
1
1
1
1
1
1
1
1
1
1
1
1
1
1
1
1
1
1
1
1
1
1
1
1
1
1
1
1
1
1
1
1
1
1
1
1
1
1
1
1
1
1
1
1

SCALARS radius float 1
LOOKUP_TABLE default
0.0005
0.0005
0.0005
0.0005
0.0005
0.0005
0.0005
0.0005
0.0005
0.0005
0.0005
0.0005
0.0005
0.0005
0.0005
0.0005
0.0005
0.0005
0.0005
0.0005
0.0005
0.0005
0.0005
0.0005
0.0005
0.0005
0.0005
0.0005
0.0005
0.0005
0.0005
0.0005
0.0005
0.0005
0.0005
0.0005
0.0005
0.0005
0.0005
0.0005
0.0005
0.0005
0.0005
0.0005
0.0005
0.0005
0.0005
0.0005
0.0005
0.0005
0.0005
0.0005
0.0005
0.0005
0.0005
0.0005
0.0005
0.0005
0.0005
0.0005
0.0005
0.0005
0.0005
0.0005
0.0005
0.0005
0.0005
0.0005
0.0005
0.0005
0.0005
0.0005
0.0005
0.0005
0.0005
0.0005
0.0005
0.0005
0.0005
0.0005
0.0005
0.0005
0.0005
0.0005
0.0005
0.0005
0.0005
0.0005
0.0005
0.0005
0.0005
0.0005
0.0005
0.0005
0.0005
0.0005
0.0005
0.0005
0.0005
0.0005
0.0005
0.0005
0.0005
0.0005
0.0005
0.0005
0.0005
0.0005
0.0005
0.0005
0.0005
0.0005
0.0005
0.0005
0.0005
0.0005
0.0005
0.0005
0.0005
0.0005
0.0005
0.0005
0.0005
0.0005
0.0005
0.0005
0.0005
0.0005
0.0005
0.0005
0.0005
0.0005
0.0005
0.0005
0.0005
0.0005
0.0005
0.0005
0.0005
0.0005
0.0005
0.0005
0.0005
0.0005
0.0005
0.0005
0.0005
0.0005
0.0005
0.0005
0.0005
0.0005
0.0005
0.0005
0.0005
0.0005
0.0005
0.0005
0.0005
0.0005
0.0005
0.0005
0.0005
0.0005
0.0005
0.0005
0.0005
0.0005
0.0005
0.0005
0.0005
0.0005
0.0005
0.0005
0.0005
0.0005
0.0005
0.0005
0.0005
0.0005
0.0005
0.0005
0.0005
0.0005
0.0005
0.0005
0.0005
0.0005
0.0005
0.0005
0.0005
0.0005
0.0005
0.0005
0.0005
0.0005
0.0005
0.0005
0.0005
0.0005
0.0005
0.0005
0.0005
0.0005
0.0005
0.0005
0.0005
0.0005
0.0005
0.0005
0.0005
0.0005
0.0005
0.0005
0.0005
0.0005
0.0005
0.0005
0.0005
0.0005
0.0005
0.0005
0.0005
0.0005
0.0005
0.0005
0.0005
0.0005
0.0005
0.0005
0.0005
0.0005
0.0005
0.0005
0.0005
0.0005
0.0005
0.0005
0.0005
0.0005
0.0005
0.0005
0.0005
0.0005
0.0005
0.0005
0.0005
0.0005

SCALARS mass float 1
LOOKUP_TABLE default
1.46608e-07
1.46608e-07
1.46608e-07
1.46608e-07
1.46608e-07
1.46608e-07
1.46608e-07
1.46608e-07
1.46608e-07
1.46608e-07
1.46608e-07
1.46608e-07
1.46608e-07
1.46608e-07
1.46608e-07
1.46608e-07
1.46608e-07
1.46608e-07
1.46608e-07
1.46608e-07
1.46608e-07
1.46608e-07
1.46608e-07
1.46608e-07
1.46608e-07
1.46608e-07
1.46608e-07
1.46608e-07
1.46608e-07
1.46608e-07
1.46608e-07
1.46608e-07
1.46608e-07
1.46608e-07
1.46608e-07
1.46608e-07
1.46608e-07
1.46608e-07
1.46608e-07
1.46608e-07
1.46608e-07
1.46608e-07
1.46608e-07
1.46608e-07
1.46608e-07
1.46608e-07
1.46608e-07
1.46608e-07
1.46608e-07
1.46608e-07
1.46608e-07
1.46608e-07
1.46608e-07
1.46608e-07
1.46608e-07
1.46608e-07
1.46608e-07
1.46608e-07
1.46608e-07
1.46608e-07
1.46608e-07
1.46608e-07
1.46608e-07
1.46608e-07
1.46608e-07
1.46608e-07
1.46608e-07
1.46608e-07
1.46608e-07
1.46608e-07
1.46608e-07
1.46608e-07
1.46608e-07
1.46608e-07
1.46608e-07
1.46608e-07
1.46608e-07
1.46608e-07
1.46608e-07
1.46608e-07
1.46608e-07
1.46608e-07
1.46608e-07
1.46608e-07
1.46608e-07
1.46608e-07
1.46608e-07
1.46608e-07
1.46608e-07
1.46608e-07
1.46608e-07
1.46608e-07
1.46608e-07
1.46608e-07
1.46608e-07
1.46608e-07
1.46608e-07
1.46608e-07
1.46608e-07
1.46608e-07
1.46608e-07
1.46608e-07
1.46608e-07
1.46608e-07
1.46608e-07
1.46608e-07
1.46608e-07
1.46608e-07
1.46608e-07
1.46608e-07
1.46608e-07
1.46608e-07
1.46608e-07
1.46608e-07
1.46608e-07
1.46608e-07
1.46608e-07
1.46608e-07
1.46608e-07
1.46608e-07
1.46608e-07
1.46608e-07
1.46608e-07
1.46608e-07
1.46608e-07
1.46608e-07
1.46608e-07
1.46608e-07
1.46608e-07
1.46608e-07
1.46608e-07
1.46608e-07
1.46608e-07
1.46608e-07
1.46608e-07
1.46608e-07
1.46608e-07
1.46608e-07
1.46608e-07
1.46608e-07
1.46608e-07
1.46608e-07
1.46608e-07
1.46608e-07
1.46608e-07
1.46608e-07
1.46608e-07
1.46608e-07
1.46608e-07
1.46608e-07
1.46608e-07
1.46608e-07
1.46608e-07
1.46608e-07
1.46608e-07
1.46608e-07
1.46608e-07
1.46608e-07
1.46608e-07
1.46608e-07
1.46608e-07
1.46608e-07
1.46608e-07
1.46608e-07
1.46608e-07
1.46608e-07
1.46608e-07
1.46608e-07
1.46608e-07
1.46608e-07
1.46608e-07
1.46608e-07
1.46608e-07
1.46608e-07
1.46608e-07
1.46608e-07
1.46608e-07
1.46608e-07
1.46608e-07
1.46608e-07
1.46608e-07
1.46608e-07
1.46608e-07
1.46608e-07
1.46608e-07
1.46608e-07
1.46608e-07
1.46608e-07
1.46608e-07
1.46608e-07
1.46608e-07
1.46608e-07
1.46608e-07
1.46608e-07
1.46608e-07
1.46608e-07
1.46608e-07
1.46608e-07
1.46608e-07
1.46608e-07
1.46608e-07
1.46608e-07
1.46608e-07
1.46608e-07
1.46608e-07
1.46608e-07
1.46608e-07
1.46608e-07
1.46608e-07
1.46608e-07
1.46608e-07
1.46608e-07
1.46608e-07
1.46608e-07
1.46608e-07
1.46608e-07
1.46608e-07
1.46608e-07
1.46608e-07
1.46608e-07
1.46608e-07
1.46608e-07
1.46608e-07
1.46608e-07
1.46608e-07
1.46608e-07
1.46608e-07
1.46608e-07
1.46608e-07
1.46608e-07
1.46608e-07
1.46608e-07
1.46608e-07
1.46608e-07
1.46608e-07
1.46608e-07
1.46608e-07
1.46608e-07
1.46608e-07
1.46608e-07
1.46608e-07
1.46608e-07
1.46608e-07
1.46608e-07
1.46608e-07
1.46608e-07
1.46608e-07
1.46608e-07

VECTORS velocity float
0.0440498 -0.0102275 -0.0112677
0.0178009 -0.0109923 0.0178839
-0.000188163 0.000462782 -0.00144351
0.00682784 0.0118844 0.00971707
0.0116154 -0.00461011 -0.00805889
0.00127923 -0.00597553 -0.00319807
0.00436718 0.0044608 -0.00346196
-0.0229717 -0.00517475 0.00629211
0.000669523 -0.00133151 0.0139908
0.00094477 -0.00209778 -0.00514875
-0.00225135 0.000422663 0.00160268
0.0202211 -0.00742957 -0.00345163
0.0069365 -0.00656467 -0.0077206
0.0199455 -0.00954502 -0.100744
0.00771277 -0.00490644 0.00812431
0.000576663 0.00017403 -8.51402e-05
0.00449662 -0.00165751 -0.00794172
0.0199579 -0.00745195 0.0092464
0.00325716 0.0134858 -0.00394679
-0.0176255 -0.109515 -1.01847
-0.0013553 9.25853e-05 0.00156748
0.00318267 -0.0041207 -0.00860907
0.0076347 0.012097 0.0103389
0.00490459 0.00235213 -0.00366146
0.0001065 0.00102635 0.00426377
0.000356295 -0.0136297 0.0209815
0.00333078 -0.000205211 -0.0153725
0.00741081 0.00381216 0.00182241
0.0093911 0.00342984 -0.00665506
5.43365e-05 0.00790867 0.02419
-1.17678e-14 -2.41542e-14 -7.9176e-14
0.00194424 0.0103851 0.0168261
0.0194184 0.0128001 -0.00634903
-0.000258421 0.000286663 -0.0005155
0.000104361 -0.00112301 -0.00408982
3.63741e-16 8.22957e-15 -3.99459e-14
-0.000125376 -0.00121543 -0.00217707
0.0181414 0.00327744 0.00907405
0.00507681 0.00260462 0.00282228
0.00110748 0.00293515 -0.00940183
0.000697473 -0.000410959 0.000811581
0.00169648 0.000930811 -0.00110139
-0.000201289 -7.44501e-05 -2.7233e-05
0.00268542 0.0164629 -0.00525321
0.00499663 0.00267123 -0.00288491
0.000210121 0.000927752 -0.00281815
0.00122013 0.0055249 0.0026171
0.00404724 0.00281994 0.00790674
-0.00894811 0.0111042 -0.00171949
0.0022779 0.00422651 -0.00141318
0.00291324 -0.00233329 -0.0129639
0.00261613 0.0129549 0.00831628
0.00853091 0.000668715 0.00303877
0.00514627 0.00196833 -0.00104283
0.00870089 0.00168765 -0.00157225
0.00701478 -0.00687636 0.00401294
0.00274652 -0.00432318 -0.000888038
0.000807916 -0.0233897 0.00357321
0.00919093 -0.00115852 0.00321945
0.0055785 0.00295923 -0.0037385
-0.0041659 0.0187071 -0.0116177
0.00641213 0.00322953 0.00336943
0.000332463 0.000322157 -0.000454435
-0.0219384 -0.00641366 -0.034875
0.00266238 0.0114936 0.0131432
0.0039145 0.00410143 -0.00312701
0.000119929 0.0224831 0.0122331
0.00405894 0.00078145 -0.00315048
0.00142481 0.00288467 0.00277839
0.0021394 -0.0109637 0.00835665
0.00615165 0.000842862 0.00224112
0.000359611 -0.00490706 -0.0054741
0.00389533 0.00272108 0.00312605
0.000117593 1.14994e-06 -0.000490046
-0.00242942 0.0049027 0.00497859
0.00243003 -0.000141799 0.000127831
0.00318358 -0.00579229 -3.48286e-05
0.0048284 -0.00433723 -0.00100266
0.00918621 0.0131525 0.00212686
0.00508933 -0.00247271 -0.000641084
0.000824632 -0.0237024 -0.00207603
0.00162642 0.00195129 -0.00252783
0.00306318 -0.000963802 0.00940127
-0.00402247 -0.0113287 -0.00729083
-0.000659652 -0.000534901 0.0006806
0.0135192 0.00575908 0.00181344
0.00201099 0.00968113 -0.012458
0.00436757 0.00257493 -0.00319678
-0.138448 -0.0432901 -0.422555
0.00886072 0.0121945 -0.00626685
-0.000222016 -0.00546576 -0.000396056
0.000531293 -0.001735 -0.00415104
0.00405447 -0.00117558 0.00947549
0.00572534 0.00325505 0.00198958
0.00693579 -0.00488621 0.0149791
-5.07523e-05 -0.00797157 0.0222856
0.00575313 -0.00183343 -0.00716088
8.27608e-06 0.0138021 -0.0214017
0.00329176 -0.000872697 -0.0080962
0.000834993 -0.0192667 -0.010662
0.0207142 -0.00810498 0.00496894
0.00099803 0.0170697 0.0139946
0.0101895 0.00282331 -0.00665576
-0.0027365 0.0122956 -0.00841445
0.00823814 -0.00882614 0.00200687
0.00262408 0.0122044 -0.00411137
0.000324842 0.000334499 -0.00179998
-0.00281679 0.00549738 -0.000653608
0.00068419 -0.000560161 0.0109297
0.00415284 0.00031833 -0.00189374
0.00118261 0.00251867 -4.21816e-05
0.000210594 -0.0174109 0.0182566
0.00591962 -0.00477573 0.0143276
0.00654107 -0.0117587 -0.0306574
-0.055756 -0.00661904 0.0929828
0.00306703 -0.000367432 -0.00497346
0.00135144 -0.000147259 0.0202489
0.00683267 -0.00385576 -0.00453613
0.00541923 0.00428693 0.00609775
0.00324663 -0.00335 0.00276523
0.00499447 -0.00211917 -0.00138202
0.015252 -0.00628007 0.00396813
0.00472744 0.025687 -0.00762216
0.00853414 0.00815612 0.00823243
-0.000702901 0.0106474 -0.0065719
0.0316706 -0.00475761 -0.0342653
0.00596511 0.0025641 0.003118
-2.81424e-15 8.18672e-15 4.49377e-14
0.000887493 0.00134334 -0.0021794
0.000197925 -0.0127577 -0.0216195
-0.000144409 -7.83561e-05 -0.000672162
0.0181919 -0.0134361 0.0234853
0.00196529 -0.000757398 -0.00125318
0.00361829 0.00081833 -0.00245607
-0.00109503 0.00357412 -0.00341422
0.000626221 0.00202481 0.000764726
-0.0311854 -0.0336497 0.00731009
0.00208335 5.64477e-05 -0.00334646
0.00710191 0.00313744 0.00143749
-0.00313942 0.016967 0.010445
-4.63882e-09 0.0290028 -0.000837142
-0.000384107 -0.000168456 -0.00241036
-0.00033016 -0.000820496 -0.000473323
0.0107038 -0.00122342 -0.00954956
0.00154587 -0.00250282 -0.000171084
-0.000121476 0.00117953 0.000130636
0.00138345 -0.000802556 -0.00355515
-0.111115 0.0972203 -0.31031
-7.93928e-09 0.0283306 -0.0063956
-0.000441685 0.0055744 -0.000651653
0.000112187 -0.00033718 -0.000249729
0.000337921 -3.10396e-05 -0.00105039
0.000176948 -0.020073 0.00813244
0.00117909 -0.000515 -0.00317145
0.0070956 0.00206924 -0.00480422
0.00156989 0.00147323 -0.00178932
0.00159201 -0.00378882 -0.00499107
0.00222171 0.0132399 -0.0136309
0.000144935 0.0165505 -0.0191502
0.00447469 -0.00100429 -0.00101824
0.000626303 -0.000620754 -0.00123946
0.00424895 -0.00642883 -0.00465535
0.0125441 0.000244727 -0.0123744
0.0158605 9.90271e-05 -0.000725607
-0.00137581 -0.000967053 -0.00151527
0.00635444 0.00147055 -0.0151722
4.31744e-07 0.0285848 0.00523017
0.0129217 -0.0138626 0.00512605
0.000774325 -0.00155782 -0.00329925
0.000523249 0.00443359 -0.00400762
0.00293442 0.00345784 -0.0166109
0.00428224 0.00156044 -0.000854837
-0.00139318 0.00368805 -0.00922674
0.00780103 0.012184 0.00785245
-0.000275255 0.00114725 -0.00111196
-0.00642139 0.0242235 0.0012386
1.67721e-06 0.000118342 -0.000124726
-0.000373381 0.00130187 -0.000978913
0.000792814 0.0111115 0.00554014
0.0187239 -0.00175805 -0.000739505
0.00208515 0.0159871 0.00254392
0.00443066 0.030058 0.016132
-0.288247 0.391794 0.980925
-4.40507e-05 -4.41627e-05 -0.000813153
0.000630226 -0.000711453 -0.00141159
0.00155233 -0.000667425 0.000170265
0.000526704 0.0244495 0.00804624
0.00310519 0.00451515 -0.00110643
0.00358057 0.0025212 -0.00402409
0.000906604 0.00084989 0.00292674
9.37514e-06 0.0241685 0.00188482
0.00432325 -0.000148927 -0.00284254
0.000217626 0.00111731 -0.0034437
0.00175021 -0.00456144 0.00320128
-0.00022998 -0.00696778 -0.00867031
0.00544533 -0.00103186 0.0084423
0.000599114 -0.000731714 -0.00217308
0.00291517 0.0120975 0.00380829
-0.00328638 -0.00161639 -0.00361057
0.0061272 0.00871389 0.00324217
0.00697086 0.00709294 0.00863226
0.00599785 -0.011906 -0.0248638
-0.000807885 0.000409571 0.00188086
0.0171393 0.023906 -0.0770943
-0.000917445 0.00154728 -0.00357478
0.00837366 -0.0188008 0.00781477
0.0126571 0.00831789 -0.00833619
-0.00955667 -0.0168121 0.00239077
-0.00334972 0.0302108 -0.0644609
0.00605347 -0.00401074 -0.000181737
0.00550514 -0.00857969 0.0160801
-1.09087e-08 0.0290048 -0.00336639
0.000290031 0.00141894 -0.00234911
0.00199065 -0.00390764 0.00434322
0.00278412 0.0025407 -0.00254599
0.0128749 -0.00283379 0.00423723
0.00681839 -0.0122197 0.000978086
0.0268457 -0.0561391 -0.0724182
0.00104737 -0.000807159 0.00233092
0.007493 0.00124446 0.00816704
0.0153209 -0.0282136 -0.079382
-0.000429465 0.00113106 -0.00276028
-0.000370111 -0.0246218 0.00643993
0.00452963 0.00255696 -0.0128196
0.00415019 0.00302438 0.00774664
0.00858229 -0.00410208 0.000104332
0.000555117 -0.000357559 -0.00379475
0.00805609 -0.00322562 0.00381089
0.000950407 -0.000941751 -0.0015067
-0.0335488 -0.0149407 0.0177789
9.75741e-317 9.69321e-317 3.10717e-12
0.00645888 0.00299897 -0.0036487
0.00326108 0.0224618 0.00330529
-0.000198746 -0.00114451 0.0015645
0.00923231 -0.000511677 -0.00153181
-0.00186522 0.00038323 -0.00318244
0.0140018 0.00426997 -0.0214004
0.000141141 0.000963556 -0.0254207
0.0100283 -0.00553746 0.00857939
-0.00036116 -0.0228508 -0.00930756
-0.0024298 -0.0174295 0.0187096
0.000400758 -0.007142 -0.0239587
0.000882092 -0.00232133 -0.0120204
0.000523096 -0.00462959 -0.0201697
-0.000340992 -0.000379939 -0.00274581
0.000144572 0.00846662 -0.0103291
-0.000380388 -0.0110452 -0.0157159
-0.104132 -0.0173491 0.0167543

VECTORS force float
0.0 0.0 -1.43822e-06
0.0 0.0 -1.43822e-06
-2.95817e-08 -4.11656e-08 1.9029e-07
-2.81086e-07 -2.79235e-07 -1.84111e-06
3.5745e-07 -5.58561e-07 1.88912e-07
1.15091e-05 2.92784e-06 6.00609e-06
-4.30616e-07 3.68197e-06 6.77816e-07
0.0 0.0 -1.43822e-06
-6.13167e-08 -1.1718e-07 -1.4195e-06
6.1631e-07 -3.35791e-06 2.19969e-06
6.03698e-08 -9.48231e-07 -1.43486e-07
9.73292e-07 7.96504e-07 4.45439e-07
-1.91962e-06 2.90382e-06 1.76946e-06
0.0 0.0 -1.43822e-06
-9.32771e-07 9.3456e-07 -1.27903e-06
2.58078e-08 2.82953e-07 -2.58578e-06
1.04731e-05 -2.7548e-06 -1.4967e-05
-9.30399e-08 6.40257e-07 -1.22302e-06
-1.45419e-05 8.07579e-06 -2.01301e-05
0.0 0.0 -1.43822e-06
-1.80989e-07 -3.38987e-07 -5.6996e-07
5.73705e-07 -7.68765e-06 1.05344e-05
-2.47164e-06 3.46496e-06 -9.82181e-06
-1.16162e-06 -4.11777e-07 -3.56619e-08
1.28533e-07 -2.42234e-06 3.34932e-07
1.86801e-07 6.05762e-07 -9.17573e-07
1.60364e-08 -4.8366e-08 5.00605e-08
3.66164e-07 -7.61597e-07 -5.84679e-07
6.69813e-08 2.62094e-07 -1.28109e-06
-1.53924e-09 1.56744e-08 -2.03545e-09
-1.04026e-20 1.90582e-21 -5.0822e-21
-2.61478e-08 3.53345e-07 8.12966e-07
1.03415e-06 -2.76435e-07 -7.91123e-07
-2.59791e-06 9.99797e-07 -2.55016e-07
-9.69717e-07 -3.62047e-07 -3.67756e-08
-3.98536e-21 0.0 0.0
3.19027e-07 1.23999e-06 7.80367e-07
0.0 0.0 -1.43822e-06
-5.11712e-07 5.37173e-07 3.56047e-07
1.68265e-07 -2.04524e-07 7.37216e-07
-1.25124e-06 -2.49473e-06 2.21717e-06
-2.33551e-06 3.92406e-06 -5.28901e-06
2.14527e-06 -1.56365e-07 1.05119e-07
-7.25873e-06 1.12838e-05 3.4947e-06
-1.04021e-05 1.08353e-05 -9.37376e-06
-7.47352e-07 -6.05394e-07 -3.62244e-07
-6.91382e-08 3.58366e-07 1.64219e-07
0.0 0.0 -1.43822e-06
3.39902e-07 1.13202e-06 4.8227e-08
-9.11386e-07 -2.2056e-06 -6.03939e-07
-1.49057e-05 -2.72122e-05 9.1556e-06
-5.97198e-07 -2.68262e-07 5.59786e-07
-1.22226e-06 -6.09948e-08 -2.31087e-06
-9.1073e-07 -6.36832e-07 5.88363e-07
7.42399e-08 -1.95042e-07 -1.16144e-06
-6.05454e-07 -6.14972e-07 1.35243e-06
2.79536e-06 -5.38521e-07 6.42223e-07
3.67994e-07 1.05849e-06 -3.65178e-07
0.0 0.0 -1.43822e-06
4.02604e-07 -9.29409e-07 -2.39362e-07
1.35969e-08 7.0389e-09 -1.44734e-06
1.28929e-06 -2.425e-07 6.62772e-07
1.02354e-07 -3.38244e-08 -1.12632e-07
0.0 0.0 -1.43822e-06
8.75498e-08 -9.27297e-07 -2.27838e-07
-4.10213e-06 -3.77952e-07 4.86474e-07
-1.08802e-07 -1.08487e-06 -5.74436e-07
-1.64768e-07 1.37815e-06 1.71429e-07
2.05211e-06 -1.04147e-06 -8.85421e-07
-5.00894e-06 -8.95965e-06 9.65803e-06
1.93279e-07 -2.57723e-07 -1.21011e-07
2.43169e-07 7.60358e-07 2.23028e-06
0.0 0.0 -1.43822e-06
-3.02794e-07 -2.4263e-07 -3.37406e-06
7.12098e-09 7.16017e-08 -3.10591e-08
7.13879e-06 -2.99561e-05 -4.36904e-06
-1.25568e-06 -1.71181e-06 -4.66858e-06
6.2719e-06 -4.58131e-05 3.99492e-05
-4.44321e-06 1.29666e-06 3.38427e-06
-8.59596e-06 -3.98584e-05 -1.41364e-05
1.05667e-07 3.73101e-07 2.59332e-08
-4.47186e-06 -8.47793e-06 1.16517e-05
1.35226e-06 2.19554e-06 -2.97103e-06
-2.36174e-08 -8.49141e-08 3.80022e-07
-6.68449e-07 -2.36198e-07 -1.91762e-07
2.54674e-07 -8.24594e-07 -1.23743e-07
-3.43805e-06 5.85682e-06 -7.24989e-06
-3.26203e-07 -5.85357e-07 3.3679e-07
0.0 0.0 -1.43822e-06
-6.07352e-07 -1.00718e-06 -4.12571e-06
-4.23967e-08 -1.9008e-08 3.04979e-08
1.88795e-06 -1.57619e-06 -2.43606e-07
2.02566e-07 2.03908e-06 3.15512e-06
1.50383e-06 4.00799e-07 -1.26995e-06
7.92633e-07 -1.45591e-06 6.83563e-07
-2.43405e-08 3.40571e-08 -6.88147e-08
-1.15446e-05 -1.09806e-06 1.63676e-05
-2.02944e-09 -1.05235e-08 -1.04885e-08
0.0 0.0 -1.43822e-06
-1.74065e-08 -3.44031e-08 -1.0236e-08
-2.83949e-07 8.61391e-07 -7.40526e-07
-9.91785e-09 3.63691e-08 6.67727e-09
-2.52565e-06 7.34245e-07 -1.50605e-06
-2.39148e-07 -4.99087e-07 -9.71015e-07
0.0 0.0 -1.43822e-06
-3.18702e-06 -8.04435e-06 5.93775e-06
1.34144e-06 -1.54402e-06 -4.08084e-06
5.47917e-08 6.86497e-07 9.1253e-07
-0.00124975 -0.00162361 -0.000634315
9.52971e-08 5.13293e-07 4.57772e-08
-4.79591e-07 8.83675e-08 -8.04367e-08
9.09479e-10 7.76662e-09 1.46807e-08
-1.98299e-07 1.22058e-06 1.15544e-06
-5.96566e-07 6.36584e-07 1.88447e-06
0.0 0.0 -1.43822e-06
-5.22969e-07 -2.14116e-06 -7.36026e-07
3.62159e-08 -1.47626e-08 -1.90366e-07
-3.7296e-07 -3.80976e-07 2.2771e-06
-3.13736e-07 -2.27608e-07 -2.90984e-08
-3.00874e-06 -2.23357e-06 -4.49577e-06
-8.83697e-07 -4.834e-05 -1.10604e-06
8.2769e-08 -6.2256e-08 -1.22763e-06
-7.43654e-07 7.9792e-07 -3.05295e-08
1.76825e-07 4.18133e-07 7.62756e-07
-6.19012e-06 9.58293e-06 2.46207e-06
0.0 0.0 -1.43822e-06
1.09922e-06 -4.69682e-07 -6.53037e-07
-4.16767e-20 -9.84676e-21 -1.69407e-21
-1.01828e-07 -2.7569e-07 2.67767e-07
-7.25471e-10 -1.50567e-08 2.24618e-09
-7.0487e-08 -9.67355e-08 7.3184e-07
0.0 0.0 -1.43822e-06
1.6464e-07 1.14103e-07 -4.11118e-07
8.17713e-06 -9.87686e-06 -5.75753e-06
1.53017e-06 8.60674e-08 1.37529e-06
2.85759e-07 -9.62231e-07 1.15844e-06
0.0 0.0 -1.43822e-06
1.88595e-07 3.87024e-08 -1.88008e-08
5.16724e-07 2.15741e-07 -1.57944e-06
0.0122783 0.0699508 -0.0216054
-3.03396e-14 -5.55668e-10 -2.32393e-08
-5.72099e-07 2.92392e-07 6.36519e-08
-1.61861e-07 -4.32556e-07 5.52431e-07
0.0 0.0 -1.43822e-06
4.44835e-08 -1.42825e-07 9.72827e-07
5.94154e-07 5.48275e-07 -4.46199e-07
7.52433e-08 7.84279e-07 -6.76565e-07
0.0 0.0 -1.43822e-06
-2.65418e-14 -4.93323e-09 -2.27488e-08
-5.16724e-07 -2.15741e-07 -1.297e-06
-4.14235e-07 -3.44002e-07 3.19534e-07
-1.68977e-08 -5.06069e-07 -8.12673e-07
4.99947e-08 4.39016e-07 -1.44051e-07
2.99002e-07 -2.20909e-07 -1.12113e-06
7.61746e-08 4.69963e-08 -1.69949e-08
-6.27076e-08 -2.2166e-07 -2.27579e-07
1.38337e-05 2.51799e-05 -8.51801e-06
6.87367e-07 -7.58327e-06 5.12683e-06
-1.76518e-09 -7.17573e-09 -1.40306e-08
1.19418e-06 -2.29514e-06 2.09874e-08
1.41061e-07 1.97076e-07 -5.79936e-08
8.05848e-07 -5.95636e-07 -1.75772e-07
0.0 0.0 -1.43822e-06
0.0 0.0 -1.43822e-06
2.97549e-06 -2.3074e-06 1.21706e-05
-2.54129e-06 3.51518e-07 3.63606e-06
-6.72125e-10 6.38463e-09 -2.2644e-08
0.0 0.0 -1.43822e-06
4.28175e-07 8.89047e-07 -3.14602e-07
-4.37478e-07 1.3882e-07 -8.90334e-07
0.0 0.0 -1.43822e-06
2.31254e-06 1.57556e-06 2.41675e-06
-6.56324e-08 5.359e-08 -1.41343e-06
-6.12226e-07 -6.07329e-07 -2.18047e-06
-4.93265e-07 3.22787e-08 -2.16087e-07
-7.46654e-08 -1.29639e-08 -7.35615e-08
-3.46942e-08 3.83002e-10 -1.35929e-08
-4.67394e-07 2.06464e-07 4.87179e-08
-5.41391e-08 6.06924e-08 2.51283e-08
0.0 0.0 -1.43822e-06