# vtk DataFile Version 3.0
LIGGGHTS particles timestep 12400000
ASCII
DATASET POLYDATA
POINTS 287 float
0.0851728 0.0164418 0.00764748
0.0855947 0.0175166 0.00722898
0.0789037 0.0158091 0.00819727
0.0854921 0.0179063 0.00708631
0.0850587 0.0163396 0.0077286
0.0911283 0.0166625 0.00763251
0.0852415 0.0171399 0.00736942
0.0849518 0.0160074 0.00808671
0.0913814 0.017768 0.00700261
0.08518 0.0168652 0.00747287
0.0856374 0.0177082 0.00715831
0.079116 0.0166005 0.0076442
0.0850374 0.0162722 0.00779935
0.0788208 0.0155993 0.00852749
0.0853768 0.0173534 0.00729018
0.0788003 0.0155468 0.00861009
0.0851595 0.0167738 0.0075077
0.0912691 0.0172483 0.00727612
0.085016 0.016206 0.0078712
0.0851534 0.0163626 0.00770585
0.0852821 0.0173237 0.00730165
0.0792913 0.0169676 0.00743312
0.0913243 0.0175001 0.00712272
0.0852211 0.0170489 0.0074054
0.0912094 0.0169971 0.00742895
0.0791963 0.0169401 0.00744873
0.0854735 0.0178141 0.0071203
0.0849946 0.0161398 0.00794303
0.0855108 0.0175679 0.0072106
0.0852621 0.0172318 0.00733556
0.0853569 0.0172613 0.00732416
0.0911499 0.0167459 0.0075818
0.085139 0.016683 0.00754441
0.0853366 0.0171691 0.00735819
0.0914187 0.0179625 0.00703097
0.0852955 0.0169854 0.00742593
0.0854517 0.0172911 0.00731269
0.0913442 0.0175863 0.00707603
0.0850982 0.0165035 0.00762245
0.0853018 0.0174156 0.00726774
0.0854716 0.0173833 0.00727867
0.0911697 0.0168297 0.00753085
0.0912491 0.0171646 0.00732705
0.0851185 0.0165931 0.00758306
0.085341 0.0175997 0.00719987
0.0912293 0.0170809 0.00737801
0.085399 0.0178804 0.00711215
0.0853797 0.0177866 0.0071411
0.0790958 0.0165156 0.00769305
0.091287 0.0173323 0.00722493
0.085133 0.0162954 0.00777888
0.0788619 0.0157043 0.00836229
0.0853161 0.0170772 0.00739206
0.0911896 0.0169134 0.0074799
0.08537 0.0169226 0.00744858
0.0853906 0.0170145 0.00741471
0.0850782 0.0164168 0.00766813
0.0854913 0.0174755 0.00724465
0.0854356 0.0176299 0.00718824
0.0913057 0.0174162 0.00717383
0.0792109 0.016628 0.0076286
0.0791489 0.0163732 0.00777525
0.0856185 0.017616 0.00719229
0.0855492 0.0177526 0.00714248
0.0852338 0.0167099 0.00752754
0.0913646 0.0176744 0.00703334
0.0788413 0.0156518 0.00844488
0.0855302 0.0176601 0.00717658
0.0852005 0.0169563 0.00743714
0.0853966 0.0174455 0.00725622
0.079407 0.0174821 0.0071453
0.0856093 0.0185371 0.00685376
0.0789235 0.0158619 0.00811468
0.079136 0.0166854 0.00759532
0.085438 0.0180635 0.0070288
0.0790744 0.0164309 0.00774178
0.0792164 0.017025 0.00739986
0.0792273 0.0162868 0.00782527
0.0914 0.0178652 0.00701679
0.0790207 0.0158805 0.00808951
0.0854548 0.0177219 0.00715429
0.0853495 0.0168308 0.00748245
0.0854892 0.0183075 0.00693882
0.0854573 0.0181556 0.00699485
0.0855711 0.0174189 0.00726502
0.0791561 0.0167703 0.00754646
0.0856078 0.0180189 0.00704426
0.0855726 0.0182556 0.00695744
0.0856729 0.0182925 0.00694331
0.085448 0.0180643 0.0071283
0.0856468 0.0181052 0.0070123
0.0790314 0.0162617 0.0078392
0.0855085 0.0183996 0.00690487
0.0791909 0.0165431 0.00767748
0.0855285 0.0172308 0.00733441
0.0791274 0.0162886 0.00782396
0.0643568 0.0187248 0.00531097
0.24257 0.0191927 0.00520306
0.0794699 0.0173185 0.00729921
0.0789883 0.0160924 0.00793664
0.079545 0.0172598 0.00726549
0.0789456 0.0159311 0.00804597
0.085275 0.0168936 0.0074598
0.0853602 0.0176917 0.00716592
0.0857563 0.0182406 0.00696195
0.0855463 0.0185916 0.0069091
0.0790529 0.0163463 0.00779049
0.0798243 0.0178089 0.00701512
0.0794112 0.0170503 0.0073858
0.0854162 0.0175377 0.00722224
0.0852544 0.0168018 0.00749366
0.0851114 0.016229 0.00785097
0.0788826 0.0157591 0.00828124
0.0854111 0.0171063 0.00738083
0.0849732 0.0160736 0.00801487
0.0849305 0.0159413 0.00815855
0.0857663 0.0183339 0.00692757
0.0790628 0.0160346 0.00797011
0.0855397 0.0180882 0.00701917
0.08509 0.0161628 0.00792281
0.0853215 0.0175076 0.00723381
0.0790098 0.016177 0.00788791
0.0854185 0.0179743 0.00708387
0.085481 0.0182496 0.00701989
0.0793112 0.0170527 0.00738418
0.0791703 0.0164579 0.00772648
0.0855102 0.0179985 0.00705229
0.0852675 0.0164674 0.00762794
0.0854316 0.0171988 0.00734673
0.0850685 0.0160966 0.00799469
0.0789985 0.0158257 0.00817017
0.0855656 0.0186897 0.00691167
0.0852135 0.0166201 0.00756643
0.0856913 0.0184833 0.00687309
0.0790403 0.015949 0.00801938
0.0794308 0.0171353 0.00733689
0.0789668 0.0160077 0.00798534
0.0793913 0.0169654 0.00743468
0.0792489 0.0163715 0.00777655
0.0789786 0.0157731 0.00825292
0.0792744 0.0172801 0.00725302
0.0856841 0.0183876 0.00690829
0.0792914 0.0165408 0.00767908
0.0796403 0.0172937 0.00725089
0.0791058 0.0162039 0.00787267
0.079369 0.0173086 0.00723687
0.079426 0.0175711 0.00710376
0.07935 0.0172235 0.00728586
0.0219312 0.0187687 0.00551176
0.0794487 0.0174119 0.00727037
0.0855767 0.0178561 0.00710428
0.0793315 0.0175391 0.00711301
0.0792934 0.0173653 0.00720397
0.0795958 0.017988 0.00702306
0.079701 0.0175821 0.00711618
0.0852288 0.0163205 0.00775632
0.0792703 0.0164561 0.00772784
0.0795255 0.0173474 0.00722131
0.079737 0.0178505 0.00698948
0.0795839 0.0174648 0.00716502
0.085248 0.016387 0.00768409
0.0796794 0.0174936 0.00715733
0.085738 0.0179409 0.00707219
0.0795039 0.0175167 0.00713492
0.0732414 0.0171281 0.00730233
0.0793309 0.0171381 0.00733501
0.0793694 0.0177171 0.00702992
0.0798226 0.0177176 0.0070589
0.0797361 0.0177604 0.00703275
0.0793063 0.0174564 0.00734038
0.085193 0.0165303 0.00760549
0.0794857 0.0174288 0.00717903
0.0855179 0.0178839 0.00718027
0.0792554 0.017195 0.007302
0.0792894 0.0173648 0.00730389
0.0855062 0.0171362 0.00736933
0.0855919 0.0183477 0.00692348
0.0855506 0.0173257 0.00729941
0.0733503 0.0172379 0.00722326
0.0855855 0.0187811 0.00694692
0.079515 0.0170886 0.00736405
0.0853289 0.016739 0.00751632
0.0793318 0.0167106 0.00758137
0.0797157 0.0176716 0.00707409
0.0787798 0.0154943 0.0086927
0.0733005 0.0174078 0.00722772
0.0791762 0.0168552 0.00749759
0.0793125 0.0174504 0.00715499
0.0792712 0.0168827 0.007482
0.0796909 0.0180168 0.00701187
0.0795341 0.0171737 0.00731509
0.0857965 0.0180728 0.00702339
0.0792511 0.0167978 0.00753086
0.0795605 0.0177925 0.00704815
0.0795235 0.0176056 0.0070935
0.0790843 0.0161193 0.00792138
0.079388 0.0173936 0.00718789
0.0793119 0.0166256 0.00763025
0.0854015 0.0177534 0.00723285
0.0856524 0.0181989 0.00697782
0.0796036 0.0175537 0.00712357
0.0854856 0.0170436 0.00740348
0.0855579 0.0181861 0.0070278
0.0733304 0.0171465 0.00725859
0.0793505 0.0176281 0.00707146
0.0852879 0.0165572 0.00758878
0.0794634 0.0177607 0.00705988
0.0855271 0.0184952 0.0069275
0.0793633 0.0175478 0.00720742
0.0732451 0.0167674 0.00757327
0.0853083 0.0166472 0.00755018
0.0794499 0.017221 0.00728901
0.0792363 0.0171099 0.00735097
0.0856387 0.0179296 0.00707692
0.0796186 0.0173812 0.00720746
0.073302 0.0169943 0.00738493
0.073261 0.0172183 0.00726394
0.0793611 0.0174609 0.00725685
0.0796399 0.0181804 0.00705639
0.073222 0.0170406 0.00734666
0.0792058 0.0162022 0.00787398
0.0793514 0.0167956 0.00753245
0.085602 0.0184413 0.00688903
0.079665 0.0184001 0.00710774
0.0796597 0.018276 0.00707794
0.0797363 0.0182069 0.00705415
0.0730401 0.0163625 0.00790958
0.0731054 0.0165878 0.00772254
0.0730184 0.0162874 0.00797193
0.0794754 0.0169187 0.00746185
0.079231 0.0167129 0.00757973
0.0730618 0.0164376 0.00784723
0.073185 0.0168894 0.00747218
0.0795582 0.0178827 0.00699113
0.0797613 0.0179475 0.00698858
0.0733199 0.0175059 0.00723038
0.0794452 0.0176603 0.0070621
0.0857365 0.018148 0.0069961
0.0733576 0.0177022 0.00723571
0.0732837 0.0169186 0.00744773
0.0731654 0.0168139 0.00753482
0.0789574 0.0157207 0.00833541
0.0795384 0.017695 0.00705141
0.0794279 0.0180171 0.0070357
0.0794855 0.0178582 0.00705513
0.0733774 0.0178002 0.00723837
0.0793711 0.0168805 0.00748355
0.079583 0.0183432 0.00710128
0.0797157 0.0181114 0.0070327
0.0731474 0.0167382 0.00759765
0.0794461 0.0181137 0.00706088
0.0732809 0.0173097 0.00722863
0.079627 0.0172059 0.00729679
0.0795253 0.0180539 0.00704924
0.0793775 0.0173298 0.00733572
0.0794086 0.017919 0.00703529
0.085707 0.0180302 0.00703954
0.0796184 0.0176432 0.0070815
0.0734201 0.0179955 0.00724368
0.0795071 0.0184 0.00713318
0.0733985 0.0178979 0.00724102
0.0795068 0.0179558 0.00705553
0.0793884 0.0178061 0.00698833
0.0795289 0.0184971 0.00714372
0.0796394 0.0178245 0.00699568
0.0732038 0.0169649 0.00740945
0.0733756 0.0173418 0.00722609
0.0794553 0.0168338 0.00751072
0.0732647 0.0168428 0.00751063
0.0730836 0.0165127 0.00778488
0.0795639 0.0182475 0.00707964
0.0795442 0.0181516 0.00705913
0.0794653 0.0182101 0.00707942
0.0796195 0.0180844 0.00703481
0.0794854 0.0183057 0.00710093
0.0794355 0.0167488 0.00755962
0.0794954 0.0170036 0.00741297
0.0796674 0.0179197 0.00700843
0.0791843 0.0161175 0.00792269
0.0796396 0.0177318 0.00704025
0.0795505 0.0185924 0.00716502
0.0733203 0.0170699 0.00732214
0.0797493 0.0183204 0.00708068
0.085465 0.0169517 0.00743736
0.0731269 0.0166629 0.00766016
0.0733386 0.0176041 0.00723305
0.0856571 0.0178002 0.00712439

VERTICES 287 574
1 0
1 1
1 2
1 3
1 4
1 5
1 6
1 7
1 8
1 9
1 10
1 11
1 12
1 13
1 14
1 15
1 16
1 17
1 18
1 19
1 20
1 21
1 22
1 23
1 24
1 25
1 26
1 27
1 28
1 29
1 30
1 31
1 32
1 33
1 34
1 35
1 36
1 37
1 38
1 39
1 40
1 41
1 42
1 43
1 44
1 45
1 46
1 47
1 48
1 49
1 50
1 51
1 52
1 53
1 54
1 55
1 56
1 57
1 58
1 59
1 60
1 61
1 62
1 63
1 64
1 65
1 66
1 67
1 68
1 69
1 70
1 71
1 72
1 73
1 74
1 75
1 76
1 77
1 78
1 79
1 80
1 81
1 82
1 83
1 84
1 85
1 86
1 87
1 88
1 89
1 90
1 91
1 92
1 93
1 94
1 95
1 96
1 97
1 98
1 99
1 100
1 101
1 102
1 103
1 104
1 105
1 106
1 107
1 108
1 109
1 110
1 111
1 112
1 113
1 114
1 115
1 116
1 117
1 118
1 119
1 120
1 121
1 122
1 123
1 124
1 125
1 126
1 127
1 128
1 129
1 130
1 131
1 132
1 133
1 134
1 135
1 136
1 137
1 138
1 139
1 140
1 141
1 142
1 143
1 144
1 145
1 146
1 147
1 148
1 149
1 150
1 151
1 152
1 153
1 154
1 155
1 156
1 157
1 158
1 159
1 160
1 161
1 162
1 163
1 164
1 165
1 166
1 167
1 168
1 169
1 170
1 171
1 172
1 173
1 174
1 175
1 176
1 177
1 178
1 179
1 180
1 181
1 182
1 183
1 184
1 185
1 186
1 187
1 188
1 189
1 190
1 191
1 192
1 193
1 194
1 195
1 196
1 197
1 198
1 199
1 200
1 201
1 202
1 203
1 204
1 205
1 206
1 207
1 208
1 209
1 210
1 211
1 212
1 213
1 214
1 215
1 216
1 217
1 218
1 219
1 220
1 221
1 222
1 223
1 224
1 225
1 226
1 227
1 228
1 229
1 230
1 231
1 232
1 233
1 234
1 235
1 236
1 237
1 238
1 239
1 240
1 241
1 242
1 243
1 244
1 245
1 246
1 247
1 248
1 249
1 250
1 251
1 252
1 253
1 254
1 255
1 256
1 257
1 258
1 259
1 260
1 261
1 262
1 263
1 264
1 265
1 266
1 267
1 268
1 269
1 270
1 271
1 272
1 273
1 274
1 275
1 276
1 277
1 278
1 279
1 280
1 281
1 282
1 283
1 284
1 285
1 286

POINT_DATA 287
SCALARS id int 1
LOOKUP_TABLE default
1
2
3
4
5
6
7
8
9
10
11
12
13
14
15
16
17
18
19
21
22
23
24
25
26
27
28
29
30
31
32
33
34
35
36
37
38
39
41
42
44
45
46
47
48
49
50
51
52
53
54
55
56
57
59
60
61
62
63
64
65
66
67
68
69
70
71
72
73
74
76
77
78
79
80
81
82
83
84
85
86
87
88
89
90
91
92
93
94
95
96
97
98
99
100
101
102
103
104
105
106
107
108
109
110
111
112
113
114
115
116
117
118
119
120
121
122
123
124
125
126
127
128
129
130
131
132
133
134
135
136
137
138
140
141
142
143
144
146
147
148
149
150
151
153
154
155
156
157
158
159
160
162
164
165
166
167
168
169
170
171
172
173
174
175
176
177
178
179
181
182
183
184
185
186
187
188
189
190
191
192
193
194
195
196
197
198
199
200
201
202
203
204
205
206
207
208
209
210
211
212
213
214
215
216
217
218
219
220
221
222
223
224
225
226
227
228
229
230
231
232
233
234
235
236
237
239
240
241
242
243
244
246
247
248
249
250
251
252
253
254
255
256
257
258
259
260
261
262
263
264
265
266
267
268
269
270
271
272
273
274
275
276
277
278
279
280
281
282
283
284
285
286
287
288
289
290
291
292
293
294
295
296
297
298
299
300

SCALARS type int 1
LOOKUP_TABLE default
1
1
1
1
1
1
1
1
1
1
1
1
1
1
1
1
1
1
1
1
1
1
1
1
1
1
1
1
1
1
1
1
1
1
1
1
1
1
1
1
1
1
1
1
1
1
1
1
1
1
1
1
1
1
1
1
1
1
1
1
1
1
1
1
1
1
1
1
1
1
1
1
1
1
1
1
1
1
1
1
1
1
1
1
1
1
1
1
1
1
1
1
1
1
1
1
1
1
1
1
1
1
1
1
1
1
1
1
1
1
1
1
1
1
1
1
1
1
1
1
1
1
1
1
1
1
1
1
1
1
1
1
1
1
1
1
1
1
1
1
1
1
1
1
1
1
1
1
1
1
1
1
1
1
1
1
1
1
1
1
1
1
1
1
1
1
1
1
1
1
1
1
1
1
1
1
1
1
1
1
1
1
1
1
1
1
1
1
1
1
1
1
1
1
1
1
1
1
1
1
1
1
1
1
1
1
1
1
1
1
1
1
1
1
1
1
1
1
1
1
1
1
1
1
1
1
1
1
1
1
1
1
1
1
1
1
1
1
1
1
1
1
1
1
1
1
1
1
1
1
1
1
1
1
1
1
1
1
1
1
1
1
1
1
1
1
1
1
1
1
1
1
1
1
1
1
1
1
1
1
1
1
1
1
1
1
1

SCALARS radius float 1
LOOKUP_TABLE default
5e-05
5e-05
5e-05
5e-05
5e-05
5e-05
5e-05
5e-05
5e-05
5e-05
5e-05
5e-05
5e-05
5e-05
5e-05
5e-05
5e-05
5e-05
5e-05
5e-05
5e-05
5e-05
5e-05
5e-05
5e-05
5e-05
5e-05
5e-05
5e-05
5e-05
5e-05
5e-05
5e-05
5e-05
5e-05
5e-05
5e-05
5e-05
5e-05
5e-05
5e-05
5e-05
5e-05
5e-05
5e-05
5e-05
5e-05
5e-05
5e-05
5e-05
5e-05
5e-05
5e-05
5e-05
5e-05
5e-05
5e-05
5e-05
5e-05
5e-05
5e-05
5e-05
5e-05
5e-05
5e-05
5e-05
5e-05
5e-05
5e-05
5e-05
5e-05
5e-05
5e-05
5e-05
5e-05
5e-05
5e-05
5e-05
5e-05
5e-05
5e-05
5e-05
5e-05
5e-05
5e-05
5e-05
5e-05
5e-05
5e-05
5e-05
5e-05
5e-05
5e-05
5e-05
5e-05
5e-05
5e-05
5e-05
5e-05
5e-05
5e-05
5e-05
5e-05
5e-05
5e-05
5e-05
5e-05
5e-05
5e-05
5e-05
5e-05
5e-05
5e-05
5e-05
5e-05
5e-05
5e-05
5e-05
5e-05
5e-05
5e-05
5e-05
5e-05
5e-05
5e-05
5e-05
5e-05
5e-05
5e-05
5e-05
5e-05
5e-05
5e-05
5e-05
5e-05
5e-05
5e-05
5e-05
5e-05
5e-05
5e-05
5e-05
5e-05
5e-05
5e-05
5e-05
5e-05
5e-05
5e-05
5e-05
5e-05
5e-05
5e-05
5e-05
5e-05
5e-05
5e-05
5e-05
5e-05
5e-05
5e-05
5e-05
5e-05
5e-05
5e-05
5e-05
5e-05
5e-05
5e-05
5e-05
5e-05
5e-05
5e-05
5e-05
5e-05
5e-05
5e-05
5e-05
5e-05
5e-05
5e-05
5e-05
5e-05
5e-05
5e-05
5e-05
5e-05
5e-05
5e-05
5e-05
5e-05
5e-05
5e-05
5e-05
5e-05
5e-05
5e-05
5e-05
5e-05
5e-05
5e-05
5e-05
5e-05
5e-05
5e-05
5e-05
5e-05
5e-05
5e-05
5e-05
5e-05
5e-05
5e-05
5e-05
5e-05
5e-05
5e-05
5e-05
5e-05
5e-05
5e-05
5e-05
5e-05
5e-05
5e-05
5e-05
5e-05
5e-05
5e-05
5e-05
5e-05
5e-05
5e-05
5e-05
5e-05
5e-05
5e-05
5e-05
5e-05
5e-05
5e-05
5e-05
5e-05
5e-05
5e-05
5e-05
5e-05
5e-05
5e-05
5e-05
5e-05
5e-05
5e-05
5e-05
5e-05
5e-05
5e-05
5e-05
5e-05
5e-05
5e-05
5e-05
5e-05
5e-05
5e-05
5e-05
5e-05
5e-05
5e-05
5e-05
5e-05
5e-05
5e-05
5e-05
5e-05
5e-05
5e-05
5e-05
5e-05
5e-05
5e-05
5e-05
5e-05
5e-05
5e-05
5e-05
5e-05

SCALARS mass float 1
LOOKUP_TABLE default
1.46608e-10
1.46608e-10
1.46608e-10
1.46608e-10
1.46608e-10
1.46608e-10
1.46608e-10
1.46608e-10
1.46608e-10
1.46608e-10
1.46608e-10
1.46608e-10
1.46608e-10
1.46608e-10
1.46608e-10
1.46608e-10
1.46608e-10
1.46608e-10
1.46608e-10
1.46608e-10
1.46608e-10
1.46608e-10
1.46608e-10
1.46608e-10
1.46608e-10
1.46608e-10
1.46608e-10
1.46608e-10
1.46608e-10
1.46608e-10
1.46608e-10
1.46608e-10
1.46608e-10
1.46608e-10
1.46608e-10
1.46608e-10
1.46608e-10
1.46608e-10
1.46608e-10
1.46608e-10
1.46608e-10
1.46608e-10
1.46608e-10
1.46608e-10
1.46608e-10
1.46608e-10
1.46608e-10
1.46608e-10
1.46608e-10
1.46608e-10
1.46608e-10
1.46608e-10
1.46608e-10
1.46608e-10
1.46608e-10
1.46608e-10
1.46608e-10
1.46608e-10
1.46608e-10
1.46608e-10
1.46608e-10
1.46608e-10
1.46608e-10
1.46608e-10
1.46608e-10
1.46608e-10
1.46608e-10
1.46608e-10
1.46608e-10
1.46608e-10
1.46608e-10
1.46608e-10
1.46608e-10
1.46608e-10
1.46608e-10
1.46608e-10
1.46608e-10
1.46608e-10
1.46608e-10
1.46608e-10
1.46608e-10
1.46608e-10
1.46608e-10
1.46608e-10
1.46608e-10
1.46608e-10
1.46608e-10
1.46608e-10
1.46608e-10
1.46608e-10
1.46608e-10
1.46608e-10
1.46608e-10
1.46608e-10
1.46608e-10
1.46608e-10
1.46608e-10
1.46608e-10
1.46608e-10
1.46608e-10
1.46608e-10
1.46608e-10
1.46608e-10
1.46608e-10
1.46608e-10
1.46608e-10
1.46608e-10
1.46608e-10
1.46608e-10
1.46608e-10
1.46608e-10
1.46608e-10
1.46608e-10
1.46608e-10
1.46608e-10
1.46608e-10
1.46608e-10
1.46608e-10
1.46608e-10
1.46608e-10
1.46608e-10
1.46608e-10
1.46608e-10
1.46608e-10
1.46608e-10
1.46608e-10
1.46608e-10
1.46608e-10
1.46608e-10
1.46608e-10
1.46608e-10
1.46608e-10
1.46608e-10
1.46608e-10
1.46608e-10
1.46608e-10
1.46608e-10
1.46608e-10
1.46608e-10
1.46608e-10
1.46608e-10
1.46608e-10
1.46608e-10
1.46608e-10
1.46608e-10
1.46608e-10
1.46608e-10
1.46608e-10
1.46608e-10
1.46608e-10
1.46608e-10
1.46608e-10
1.46608e-10
1.46608e-10
1.46608e-10
1.46608e-10
1.46608e-10
1.46608e-10
1.46608e-10
1.46608e-10
1.46608e-10
1.46608e-10
1.46608e-10
1.46608e-10
1.46608e-10
1.46608e-10
1.46608e-10
1.46608e-10
1.46608e-10
1.46608e-10
1.46608e-10
1.46608e-10
1.46608e-10
1.46608e-10
1.46608e-10
1.46608e-10
1.46608e-10
1.46608e-10
1.46608e-10
1.46608e-10
1.46608e-10
1.46608e-10
1.46608e-10
1.46608e-10
1.46608e-10
1.46608e-10
1.46608e-10
1.46608e-10
1.46608e-10
1.46608e-10
1.46608e-10
1.46608e-10
1.46608e-10
1.46608e-10
1.46608e-10
1.46608e-10
1.46608e-10
1.46608e-10
1.46608e-10
1.46608e-10
1.46608e-10
1.46608e-10
1.46608e-10
1.46608e-10
1.46608e-10
1.46608e-10
1.46608e-10
1.46608e-10
1.46608e-10
1.46608e-10
1.46608e-10
1.46608e-10
1.46608e-10
1.46608e-10
1.46608e-10
1.46608e-10
1.46608e-10
1.46608e-10
1.46608e-10
1.46608e-10
1.46608e-10
1.46608e-10
1.46608e-10
1.46608e-10
1.46608e-10
1.46608e-10
1.46608e-10
1.46608e-10
1.46608e-10
1.46608e-10
1.46608e-10
1.46608e-10
1.46608e-10
1.46608e-10
1.46608e-10
1.46608e-10
1.46608e-10
1.46608e-10
1.46608e-10
1.46608e-10
1.46608e-10
1.46608e-10
1.46608e-10
1.46608e-10
1.46608e-10
1.46608e-10
1.46608e-10
1.46608e-10
1.46608e-10
1.46608e-10
1.46608e-10
1.46608e-10
1.46608e-10
1.46608e-10
1.46608e-10
1.46608e-10
1.46608e-10
1.46608e-10
1.46608e-10
1.46608e-10
1.46608e-10
1.46608e-10
1.46608e-10
1.46608e-10
1.46608e-10
1.46608e-10
1.46608e-10
1.46608e-10
1.46608e-10
1.46608e-10
1.46608e-10
1.46608e-10
1.46608e-10
1.46608e-10
1.46608e-10
1.46608e-10
1.46608e-10
1.46608e-10
1.46608e-10
1.46608e-10
1.46608e-10
1.46608e-10
1.46608e-10
1.46608e-10
1.46608e-10
1.46608e-10
1.46608e-10

VECTORS velocity float
0.00549326 -2.51013e-05 -0.000208121
0.00551811 0.000123537 -7.63484e-05
0.00629458 9.41261e-05 -0.000213713
0.00555649 9.4941e-05 -6.6764e-05
0.00569331 -0.000121314 -0.00064195
0.00595714 -0.000657618 0.000635985
0.00578615 5.65603e-06 -3.607e-05
0.00624831 0.000323015 -2.51273e-05
0.00550186 -0.000667592 0.000230615
0.00575594 2.61014e-05 -2.15177e-05
0.00547089 4.01981e-05 -4.58257e-05
0.00514296 0.000393952 -0.000211912
0.00634816 0.000320991 -1.11147e-05
0.00613783 0.000134455 -0.000279502
0.00569469 7.05115e-05 -5.73811e-05
0.00610207 0.000148956 -0.000297781
0.00574628 3.27245e-05 -5.10498e-05
0.00551207 -0.000609407 0.000589647
0.00632819 0.000317296 -1.44019e-05
0.00552678 0.000438543 -0.000182384
0.0057115 1.50638e-05 -3.77942e-05
0.00583977 0.00023543 -0.000118671
0.00557685 -0.000575855 0.0005845
0.00577467 8.51481e-06 -3.84045e-05
0.00558605 -0.000609471 0.000588454
0.00581691 0.000241292 -0.0001237
0.00549445 0.000103238 -6.91227e-05
0.00630734 0.000329722 -2.16899e-05
0.00551029 0.000127744 -7.82015e-05
0.00578332 1.37013e-06 -3.29771e-05
0.00575951 3.99435e-05 -4.68174e-05
0.0056525 -0.000604691 0.000596651
0.00573745 6.91985e-06 -0.000162859
0.00577038 -7.16921e-06 -3.03063e-05
0.00543317 -0.000648082 0.000229838
0.00576968 1.27717e-05 -3.27934e-05
0.00572713 9.79586e-05 -6.83285e-05
0.00559006 -0.000685044 0.000329165
0.0056162 -0.000110357 -0.000534887
0.00565259 3.13456e-05 -4.32405e-05
0.00565198 7.35633e-05 -5.88593e-05
0.00557325 -0.000613385 0.00059453
0.00564881 -0.000632594 0.000609428
0.00572115 -3.77756e-05 -0.00029761
0.00548102 7.25837e-05 -5.73918e-05
0.00562574 -0.000623205 0.000599025
0.0055336 2.31441e-06 -0.000254451
0.00549702 3.94302e-05 -0.000157892
0.00557361 0.000335352 -0.0001776
0.00554178 -0.000601088 0.000584102
0.00627989 0.000877015 -0.000629725
0.00623465 0.000114941 -0.000244559
0.00578169 4.85502e-06 -3.56897e-05
0.00555899 -0.000601975 0.000584449
0.00577106 1.76053e-05 -4.0923e-05
0.00578096 5.3337e-06 -3.47031e-05
0.005392 -0.000262557 -0.000925282
0.00557737 0.000201762 -0.000105601
0.00547311 9.9696e-05 -6.72425e-05
0.00557538 -0.000596571 0.000576376
0.00520126 0.000330848 -0.000175508
0.00629199 0.000216269 -0.000106238
0.00543267 5.10183e-05 -4.95736e-05
0.00547655 9.21069e-05 -6.47848e-05
0.00569542 -5.74878e-06 -2.77557e-05
0.00552068 -0.000672768 0.000267774
0.00617989 0.000128545 -0.000266897
0.00546219 0.000101991 -6.7754e-05
0.00577169 1.36208e-05 -2.75353e-05
0.00562911 6.01579e-05 -5.36755e-05
0.00567425 0.000476422 0.000136623
0.00544113 -0.00023515 -2.23363e-05
0.00632543 0.000102541 -0.000184766
0.00550915 0.000322785 -0.000168956
0.00561323 9.51493e-05 -6.79503e-05
0.00627337 0.000216743 -0.000107789
0.00585366 0.000242147 -0.000122447
0.00631948 0.000229681 -0.000114027
0.005473 -0.000652876 0.000227997
0.00630161 0.000157379 -0.000153165
0.00545983 0.000106693 -7.02131e-05
0.00575982 2.21606e-05 -4.6053e-05
0.00563659 -1.85182e-05 -3.64406e-05
0.00564389 0.000105872 -6.89252e-05
0.00564775 0.000302956 -0.000143073
0.00578481 0.000267992 -0.000136556
0.0056089 4.72662e-05 -4.78803e-05
0.00570227 7.5159e-05 -5.90473e-05
0.00575242 6.84619e-05 -5.90129e-05
0.00562043 9.35744e-05 -6.83653e-05
0.00564098 2.87838e-05 -4.21185e-05
0.00631342 0.000215374 -0.000106635
0.00567975 1.40527e-05 -3.98873e-05
0.00504078 0.00030398 -0.00016064
0.00576034 0.0001404 -8.38901e-05
0.00631302 0.000222548 -0.000109762
4.27107e-15 1.05016e-14 8.29593e-14
5.30818e-23 4.86658e-23 1.23839e-22
0.00564136 0.000340572 1.48143e-05
0.00633971 0.000203764 -9.99186e-05
0.0056692 0.000325744 -0.000102069
0.00632546 0.000158858 -0.000133192
0.00576158 2.34632e-05 -3.80026e-05
0.00548023 6.90318e-05 -5.63776e-05
0.00577978 8.63892e-05 -6.31212e-05
0.00563909 7.15689e-05 -5.18092e-05
0.00629179 0.00021591 -0.000105953
0.00578775 0.000382424 0.000189571
0.00567188 0.000298628 -0.000154541
0.00551226 0.000117503 -7.41676e-05
0.00575396 3.15643e-05 -4.25764e-05
0.00636638 0.00033736 -3.1437e-05
0.00626081 0.000105049 -0.000226114
0.00577019 -6.74721e-06 -2.95048e-05
0.00627127 0.000328837 -2.45281e-05
0.00623908 0.000330927 -2.92817e-05
0.0057466 0.000102789 -6.75342e-05
0.00635632 0.000216167 -0.000106332
0.00564028 7.58594e-05 -6.21255e-05
0.00635098 0.000329149 -1.89055e-05
0.00560573 4.62422e-05 -4.82571e-05
0.00633434 0.00021032 -0.000103949
0.00554678 -2.01014e-05 -0.000324034
0.00555374 -6.70843e-05 -0.000103816
0.00560654 0.000268429 -0.000138036
0.00596134 0.000725526 -0.000399673
0.00560252 8.60881e-05 -6.47445e-05
0.00552949 -0.000241264 -0.000202508
0.00578737 5.73448e-05 -5.32385e-05
0.00631148 0.000325143 -1.84088e-05
0.00628244 8.69308e-05 -0.000208376
0.00556035 0.000100432 0.000107234
0.00571895 -3.30758e-05 -0.00026423
0.00565011 6.72423e-05 -6.41551e-05
0.00632878 0.000203222 -9.73823e-05
0.00561373 0.000312462 -0.000169356
0.00632867 0.00019983 -9.56882e-05
0.00575414 0.000280907 -0.000145088
0.0062924 0.00022417 -0.000110743
0.00628819 9.31749e-05 -0.000218797
0.00569674 0.000320303 -0.000173115
0.00568918 5.6269e-05 -5.25056e-05
0.00562864 0.000316725 -0.000166192
0.00568863 0.000443488 0.000156515
0.00633005 0.000224215 -0.000110421
0.00572364 0.000313944 -0.000163212
0.00570257 0.000475725 0.000139034
0.00569419 0.000330885 -0.000175698
-3.83577e-14 8.16561e-14 2.95887e-13
0.00570175 0.000387187 0.00010783
0.00552867 5.77306e-05 -5.31369e-05
0.00565804 0.000460722 0.000136483
0.00575745 0.000355821 -0.00018809
0.00571024 0.000425505 -0.000185164
0.00568344 0.000455445 0.000147486
0.00486971 4.23256e-05 0.000216045
0.0060604 0.000251767 -0.000127459
0.00569694 0.000410341 6.23558e-05
0.00581863 0.000443588 0.000168012
0.00570033 0.000463585 0.0001466
0.0052688 -1.86745e-06 0.000285376
0.0057013 0.000454988 0.00014974
0.00556206 -1.79345e-05 -2.4743e-05
0.00570548 0.000470479 0.000142477
0.00570872 -1.71213e-05 2.73349e-05
0.00561811 0.000288511 -0.000149748
0.00572868 0.000480399 0.000139794
0.00569434 0.000376414 0.00018596
0.00573872 0.000441614 0.000158396
0.00559531 0.000443327 -0.000342534
0.00565676 -9.67052e-05 -0.000278893
0.00570478 0.000448644 0.00011594
0.00554335 9.25927e-05 -6.03958e-05
0.00544317 0.00037618 -0.000201807
0.00566758 0.00049543 -0.000474064
0.00578926 5.00697e-05 -5.11035e-05
0.00572956 7.20437e-05 -5.8724e-05
0.00570782 0.000131748 -8.04432e-05
0.00564562 5.43844e-05 1.24505e-05
0.00609707 2.00545e-05 7.45819e-05
0.00562477 0.000308149 -0.000168191
0.00575273 3.15459e-05 -4.30885e-05
0.00571154 0.00028816 -0.00014941
0.00567978 0.000453562 0.000148398
0.00604657 0.000158803 -0.000316605
0.00549602 2.06952e-05 7.35725e-06
0.00581163 0.000246657 -0.000125617
0.00578025 0.000294827 -0.000151479
0.00582129 0.000251959 -0.000128742
0.00569964 0.000508346 -0.000202202
0.00564642 0.000309279 -0.000150687
0.00562189 -1.39984e-05 -2.63417e-05
0.00581407 0.000248298 -0.000126529
0.00568867 0.000489557 9.43138e-05
0.00570534 0.000477238 0.000137186
0.006343 0.00022108 -0.000108719
0.00577905 0.000303973 -0.000151312
0.0055234 0.000325059 -0.000171296
0.00544096 0.000145796 -0.000102404
0.0056634 2.7493e-05 -4.26078e-05
0.00570998 0.00047568 0.000139685
0.00578508 1.26987e-05 -3.70849e-05
0.00564129 7.41436e-05 -6.12394e-05
0.00570831 2.67039e-05 -3.56058e-05
0.00570204 0.000485511 0.000134105
0.00565297 -9.9169e-05 -0.000271142
0.00477705 0.00028505 -0.00675263
0.0056185 5.1258e-05 -9.65937e-05
0.00586173 0.000562803 4.13984e-05
0.0054125 -8.32843e-05 5.84854e-05
0.00575159 4.01948e-05 -4.29833e-05
0.00556018 0.000363542 -0.000119236
0.00562147 0.000288058 -0.000149652
0.00555985 3.33547e-05 -4.36165e-05
0.00570585 0.000457741 0.000152159
0.00580127 3.65478e-06 -1.34659e-05
0.00565782 -9.86721e-06 1.03855e-05
0.00576852 0.000417846 -0.000242079
0.00568443 0.000341453 -0.000434917
0.0057681 -3.73219e-05 2.51331e-05
0.00633368 0.000229207 -0.000113715
0.00581735 0.000271484 -0.00013957
0.00566461 5.39299e-05 -4.25491e-05
0.00588022 0.000312922 -0.000454277
0.00577132 0.000322558 -0.000444331
0.00560989 0.000582785 -0.000364351
0.0060621 -0.000100047 7.12668e-05
0.00588599 -7.09308e-05 4.81959e-05
0.00606141 -0.00010027 7.14885e-05
0.00575549 0.000299188 -0.000154563
0.00550218 0.000286854 -0.000149257
0.00606516 -0.000100846 7.20192e-05
0.00570972 -3.72157e-05 1.95657e-05
0.00541104 -0.000136367 -0.000524485
0.00570566 0.000460827 -0.00040257
0.00543647 3.06102e-05 9.36699e-06
0.00574745 0.00049093 0.000134959
0.00565631 1.32433e-05 -3.69903e-05
0.00544143 2.40204e-05 1.05602e-05
0.0058121 -4.95491e-05 2.98882e-05
0.00548674 -4.42388e-06 -7.12668e-06
0.00628211 0.00010244 -0.000232694
0.00570808 0.000482845 0.00013365
0.00569968 0.000446139 -0.000405441
0.00565673 0.000469245 -4.78402e-05
0.00547112 1.44117e-05 9.71257e-06
0.00582169 0.00027186 -0.000140209
0.00583207 0.000376857 -0.000433897
0.00563766 0.000570574 -0.000365685
0.0054339 4.89153e-06 -1.36091e-05
0.00564801 0.000432563 -0.000403816
0.00558676 1.7096e-06 -4.50067e-06
0.00566944 0.0002761 -0.000150168
0.00565223 0.000433998 -0.000356324
0.00554296 0.000403379 -0.00024573
0.00567437 0.000442732 -0.000209302
0.00561471 2.91193e-06 -3.27896e-05
0.00570804 0.000480775 0.000136453
0.00558253 -2.21735e-05 1.15269e-05
0.00585166 0.00039004 -0.000427498
0.00558449 -1.11355e-05 8.74013e-06
0.00567406 0.000452492 -0.000176347
0.00573908 0.000409572 0.000173181
0.00584893 0.000383963 -0.000433312
0.00576258 0.000456016 0.000151592
0.00581244 -4.99779e-05 3.00409e-05
0.00556063 9.57185e-05 1.13666e-05
0.00584148 0.000284311 -0.000146751
0.00563133 -0.000117651 8.68012e-05
0.00606465 -0.000102547 7.31677e-05
0.00575297 0.000397317 -0.000430351
0.0056699 0.000426658 -0.000441594
0.00571297 0.000413692 -0.00041968
0.00563825 0.000467014 -0.000399082
0.00586841 0.00037753 -0.000436311
0.00578329 0.000230873 -0.000116176
0.00567669 0.000307355 -0.000161059
0.00579684 0.000462315 6.10074e-05
0.00634142 0.00022666 -0.000112051
0.00571285 0.000525487 0.000118442
0.00584145 0.000385841 -0.000434327
0.00573086 1.05194e-05 -2.2379e-05
0.00579999 0.000269246 -0.000458519
0.00577119 -1.07307e-05 -2.77199e-05
0.00562713 -2.48325e-05 1.15605e-05
0.00542472 3.06893e-05 1.02464e-05
0.00550733 3.02477e-05 -4.25084e-05

VECTORS force float
-1.01849e-10 5.40559e-11 -2.6704e-11
-2.53163e-10 1.97796e-10 -7.8529e-11
1.74343e-10 -2.73896e-11 1.00459e-10
-6.1054e-11 -2.44612e-11 -6.10295e-12
-5.11833e-12 1.11639e-10 1.69516e-10
6.52273e-11 2.27582e-10 -1.34508e-10
-2.97594e-11 -6.44505e-11 -1.01842e-11
1.13388e-10 -1.43959e-10 2.01691e-10
6.57652e-11 4.98629e-11 -5.92069e-11
1.27698e-10 -8.56321e-11 1.1275e-10
2.52402e-11 7.06259e-12 -6.0225e-12
4.19303e-10 1.50713e-11 -2.82082e-13
2.33446e-11 -3.09304e-11 1.01148e-10
5.07708e-11 1.53381e-10 -1.96191e-10
1.92838e-10 9.84103e-11 -3.63328e-11
2.51197e-11 1.60055e-10 -2.26019e-10
1.61608e-11 -1.2436e-10 1.17983e-10
-1.60025e-10 2.86643e-11 -6.21879e-12
-4.45106e-11 -1.46146e-11 -1.07832e-11
-2.94508e-10 -8.72393e-11 5.50504e-11
1.87265e-10 -1.4312e-11 -3.67524e-12
-4.93193e-10 2.26518e-10 -1.27953e-10
2.67934e-10 2.1798e-11 1.20418e-10
1.44459e-10 -4.07162e-11 1.56931e-11
2.31275e-10 -3.24627e-10 2.43905e-10
-1.60647e-10 -1.09746e-10 3.59494e-11
-2.32337e-11 -1.55633e-11 1.93028e-11
-4.87133e-11 -6.33596e-11 4.98707e-12
-3.96799e-10 -1.63557e-10 7.85571e-11
9.22095e-11 -1.73191e-12 1.34884e-11
2.51186e-10 8.07394e-11 -5.18506e-11
-5.79886e-10 -2.64483e-10 2.91585e-10
-3.79523e-11 -2.29536e-10 -2.01011e-10
8.06357e-11 1.07488e-10 -3.92947e-11
1.20978e-10 1.04359e-10 -1.13938e-11
1.68573e-10 7.89245e-11 1.44261e-10
3.18935e-10 2.21058e-10 -7.6236e-11
-5.87562e-11 -4.34261e-11 -2.26756e-10
2.54976e-11 7.20186e-11 2.77098e-10
1.22205e-10 1.03471e-11 -1.04784e-11
-9.5418e-11 -2.92957e-11 9.07065e-12
2.44184e-10 1.10062e-09 -4.17933e-10
9.16974e-11 1.5167e-11 8.8571e-11
7.42045e-11 1.38541e-11 2.67582e-10
-1.5542e-10 -5.98632e-11 2.49465e-11
2.36119e-11 -3.04839e-10 1.91737e-10
-1.22337e-11 -4.08572e-12 1.40348e-10
3.35569e-11 -8.44533e-11 -1.23013e-11
1.2982e-10 -1.03249e-11 -1.31446e-11
-2.22071e-10 -9.41991e-11 -3.79939e-11
3.17257e-11 -6.51606e-11 4.2086e-11
5.2952e-11 2.22513e-11 -4.62446e-11
1.53797e-11 -6.52977e-11 2.3623e-11
-9.4188e-11 -7.96993e-11 1.17448e-10
2.81781e-11 2.18847e-12 -6.53455e-11
6.64468e-11 -4.77031e-11 -4.06357e-12
-6.99109e-11 4.29866e-11 1.19608e-10
-5.44401e-11 -2.31723e-11 5.43024e-12
-1.55232e-10 -8.09439e-11 2.11902e-11
-7.56467e-11 -1.39834e-10 2.16563e-11