# vtk DataFile Version 3.0
LIGGGHTS particles timestep 7000000
ASCII
DATASET POLYDATA
POINTS 287 float
0.0536782 0.0164325 0.00772724
0.0540696 0.0173775 0.00727619
0.0474503 0.0160144 0.00823611
0.053994 0.0178587 0.00707798
0.0535669 0.0163721 0.00784712
0.0596324 0.016703 0.00777065
0.0537432 0.0171096 0.00740629
0.0534597 0.0160444 0.00820239
0.0598784 0.0177428 0.0071738
0.0536836 0.0168397 0.00752294
0.0541137 0.0175636 0.0071956
0.0476555 0.0167079 0.00754571
0.0535453 0.0163033 0.00791647
0.0473641 0.0157397 0.00850909
0.0538771 0.017318 0.00731153
0.0473423 0.0156704 0.00857789
0.0536631 0.0167499 0.0075618
0.0597666 0.017188 0.0072844
0.0535239 0.0162198 0.00796719
0.0536584 0.0163756 0.00780706
0.053782 0.0172897 0.00732851
0.0478286 0.0170985 0.00739551
0.0598239 0.0174479 0.00718022
0.0537233 0.0170196 0.00744517
0.0597134 0.0169796 0.00749338
0.0477343 0.0170694 0.00741228
0.0539742 0.0177683 0.00711702
0.0535025 0.0161614 0.0080455
0.0540119 0.0175276 0.00721618
0.0537628 0.0171996 0.00736741
0.0538576 0.0172279 0.00735042
0.0596541 0.0167719 0.00770155
0.0536425 0.0166601 0.00760065
0.0538381 0.0171375 0.00738947
0.0599181 0.0179388 0.0071695
0.0537985 0.0169576 0.00746724
0.053953 0.0172566 0.00733327
0.0598402 0.0175466 0.00717809
0.0536014 0.0164805 0.00767837
0.0538015 0.0173797 0.00728961
0.0539725 0.0173466 0.00729437
0.0596757 0.0168409 0.00763244
0.0597484 0.0171186 0.00735403
0.053622 0.0165703 0.00763951
0.0538402 0.0175598 0.00721182
0.0597344 0.0170487 0.00742417
0.0538986 0.01783 0.00709514
0.0538793 0.0177399 0.00713407
0.0476388 0.0166383 0.00761549
0.0597828 0.0172576 0.00721451
0.0536351 0.0163034 0.0078723
0.0474073 0.0158896 0.00838526
0.0538184 0.0170475 0.00742836
0.0596946 0.0169103 0.00756292
0.0538741 0.0168959 0.00748915
0.053894 0.0169858 0.00745027
0.053581 0.0163965 0.00772873
0.0539924 0.0174375 0.00725512
0.0539353 0.0175882 0.00719481
0.0598024 0.0173503 0.00718238
0.0477502 0.0167507 0.00756344
0.0476859 0.0165499 0.00777252
0.0540898 0.0174684 0.00723691
0.0540514 0.0177083 0.00713812
0.0537381 0.0166876 0.00758397
0.0598593 0.0176447 0.00717595
0.0473858 0.0158089 0.00844029
0.0540316 0.0176178 0.00717723
0.0537034 0.0169297 0.00748405
0.0538966 0.017408 0.00727264
0.0479687 0.0177636 0.00722722
0.0541396 0.018534 0.0070344
0.047472 0.0160837 0.00816731
0.0476756 0.016803 0.00752239
0.0539573 0.0181125 0.007031
0.0476179 0.0165689 0.00768447
0.0477537 0.0171645 0.00738828
0.0477512 0.0164078 0.00786549
0.0598977 0.0178409 0.00717166
0.0475676 0.0161103 0.00815079
0.053955 0.017679 0.00715783
0.0538536 0.0168053 0.00752833
0.0540204 0.0184051 0.00701967
0.0539777 0.0182104 0.00703333
0.0540331 0.0172 0.00735279
0.0476942 0.0168796 0.00746083
0.0540902 0.0178893 0.00705994
0.0540731 0.0182419 0.00701986
0.0541488 0.0181767 0.00702498
0.0539377 0.0180144 0.00702975
0.0541078 0.0179811 0.00702041
0.0475798 0.01643 0.00782316
0.0540421 0.0185026 0.00702448
0.0477208 0.0166963 0.00764196
0.0539901 0.017015 0.00743286
0.0476747 0.0164566 0.00780658
0.0643568 0.0187248 0.00531097
0.24257 0.0191927 0.00520306
0.0479815 0.0174126 0.00730679
0.0475372 0.0162914 0.00796093
0.0480563 0.0173458 0.00731422
0.0474937 0.0161529 0.00809852
0.0537786 0.0168676 0.00750612
0.0538597 0.0176499 0.00717293
0.0541893 0.0179263 0.00703909
0.0540849 0.0186943 0.00703395
0.0475987 0.0164995 0.00775379
0.0482659 0.0174975 0.00725687
0.0479229 0.0171273 0.00737881
0.0539158 0.0174981 0.00723373
0.0537587 0.0167775 0.00754507
0.0536197 0.016245 0.00795197
0.0474286 0.0159452 0.0083049
0.0539138 0.0170759 0.00741132
0.0534811 0.0161028 0.00812408
0.0534383 0.015986 0.0082807
0.0542093 0.0180234 0.00702617
0.0476103 0.0162525 0.00801694
0.0540323 0.0180466 0.00702438
0.0535994 0.0161866 0.00803052
0.0538211 0.0174697 0.00725072
0.0475589 0.0163606 0.00789214
0.0539181 0.0179201 0.00705644
0.0539989 0.018308 0.00703046
0.047848 0.0171936 0.00737151
0.0476957 0.0166269 0.00770948
0.0540132 0.0179495 0.00703877
0.0537713 0.0164491 0.0076947
0.0539335 0.0171666 0.00737216
0.0535765 0.0161282 0.00810845
0.0475458 0.016041 0.00821958
0.0541066 0.0187918 0.00703876
0.0537176 0.0165981 0.00762368
0.0542441 0.0182054 0.00703462
0.0475893 0.0161795 0.00808199
0.0479423 0.0172224 0.00735481
0.0475155 0.0162222 0.00802972
0.0479034 0.017032 0.00740287
0.0477724 0.0164771 0.00779657
0.0475241 0.0159718 0.00828838
0.0478125 0.0174499 0.0073162
0.0541712 0.0182741 0.00702985
0.0477965 0.0166167 0.00765564
0.0481313 0.0172793 0.00732155
0.0476539 0.0163872 0.00787559
0.0479068 0.0174789 0.00729948
0.0479897 0.0178585 0.0072031
0.0478871 0.0173838 0.00732349
0.0219312 0.0187687 0.00551176
0.0480017 0.0175075 0.00728275
0.0540715 0.0177991 0.00709886
0.0478941 0.0178298 0.00721991
0.0479267 0.0175739 0.00727544
0.0481477 0.018171 0.00711418
0.0481916 0.0175642 0.00724943
0.053733 0.0163299 0.00785555
0.0477805 0.016547 0.00772554
0.0480762 0.0174408 0.00729019
0.0482867 0.0175923 0.00723279
0.0481172 0.0176305 0.00724207
0.0537529 0.0163884 0.00777688
0.0481709 0.0174693 0.0072735
0.054111 0.0171408 0.00737348
0.048043 0.0176972 0.0072346
0.0417808 0.017298 0.00734354
0.0478675 0.0172887 0.00734751
0.047936 0.0180196 0.00717168
0.0482453 0.0174027 0.00728094
0.0482334 0.0177537 0.00720126
0.0478521 0.01764 0.00726815
0.0536973 0.0165109 0.00766819
0.0480964 0.0175357 0.00726614
0.0540179 0.0178392 0.00717311
0.0477928 0.0173548 0.00734024
0.0478321 0.017545 0.00729219
0.0539699 0.0169245 0.00747199
0.0540955 0.0183392 0.00702472
0.05401 0.0171059 0.00739358
0.0418809 0.0173359 0.00733465
0.0541283 0.0188893 0.00704357
0.0480175 0.0171555 0.00736222
0.0538334 0.0167149 0.00756738
0.0478392 0.0167551 0.00751802
0.0482125 0.0176589 0.00722534
0.0473206 0.0156012 0.00864668
0.0418397 0.017577 0.00725025
0.0477143 0.0169745 0.0074365
0.0479477 0.0176689 0.0072513
0.047809 0.0170034 0.00741953
0.0482454 0.0182021 0.0070966
0.0480369 0.0172506 0.00733822
0.0541995 0.0175148 0.00721154
0.0477896 0.01691 0.00744925
0.0481058 0.0179815 0.00716235
0.0480639 0.017792 0.00721052
0.0476325 0.0163178 0.00794455
0.0480221 0.0176024 0.00725869
0.047822 0.0166855 0.00758771
0.0538263 0.0172234 0.00744531
0.0541266 0.0180793 0.00702013
0.0481381 0.0177253 0.00721799
0.0539497 0.0168342 0.00751102
0.0540507 0.0181445 0.00701498
0.0418562 0.0172369 0.0073676
0.047915 0.0179247 0.0071958
0.0537921 0.0165351 0.0076452
0.0480315 0.0180481 0.00715493
0.0540635 0.0185975 0.00704736
0.0478731 0.017735 0.007244
0.0417584 0.0167729 0.00752279
0.0538127 0.0166249 0.00760633
0.0479618 0.0173175 0.00733081
0.0477732 0.0172597 0.00736427
0.0541331 0.0176537 0.0071567
0.0481508 0.0173744 0.00729754
0.0418791 0.0169039 0.00748282
0.0418004 0.017391 0.00731244
0.0478185 0.0171706 0.00746424
0.0481897 0.0183607 0.00706678
0.0417612 0.017205 0.00737464
0.0477307 0.0163384 0.00793455
0.0478655 0.0168486 0.00747081
0.0541172 0.0184367 0.00702953
0.0482321 0.018552 0.00702674
0.0482108 0.018456 0.00704474
0.048289 0.0183941 0.00705212
0.041585 0.0164024 0.00770207
0.0416421 0.0166473 0.00756108
0.0415662 0.0163438 0.00778093
0.0479776 0.0169654 0.00741031
0.0477725 0.0168283 0.00750435
0.041602 0.0164615 0.00762319
0.0417222 0.017019 0.00743686
0.0481267 0.0180763 0.00713827
0.0482956 0.0180372 0.00712926
0.0418969 0.0176553 0.00722575
0.0480105 0.0179533 0.00717902
0.0541727 0.0178357 0.00707806
0.0418962 0.0178403 0.00716223
0.0417993 0.0169598 0.00746034
0.0417023 0.016926 0.00746793
0.0475024 0.0159025 0.00835718
0.0480848 0.0178867 0.00718644
0.0479989 0.0183039 0.00709942
0.0480525 0.0181429 0.00713083
0.0419168 0.0179331 0.00713124
0.0478833 0.0169368 0.00742696
0.0481581 0.0186188 0.0070183
0.0482677 0.0182984 0.00707202
0.0416822 0.0168331 0.00749898
0.0480199 0.0183986 0.00707534
0.0418201 0.017484 0.00728135
0.0481118 0.0171842 0.00734555
0.0480945 0.0183324 0.00708264
0.0477991 0.0170754 0.00748821
0.047978 0.0182091 0.00712351
0.0541526 0.0177437 0.00711781
0.048159 0.0178201 0.0071939
0.0420157 0.0179213 0.00713938
0.0480831 0.0186844 0.00701011
0.0419374 0.0180259 0.00710024
0.0480735 0.0182377 0.00710673
0.047957 0.0181143 0.0071476
0.0481044 0.0187804 0.00699211
0.0482009 0.0180096 0.00714573
0.0417417 0.017112 0.00740575
0.041954 0.0172724 0.00735948
0.0479565 0.0168692 0.00743475
0.0417785 0.0168658 0.00749172
0.041622 0.0165544 0.00759214
0.0481367 0.0185225 0.00703645
0.0481155 0.0184273 0.00705853
0.0480408 0.0184934 0.00705126
0.0481687 0.0182658 0.00709011
0.0480618 0.0185884 0.00702811
0.047934 0.0167822 0.00750092
0.0479978 0.0170605 0.00738624
0.0482219 0.0181044 0.00712164
0.0477079 0.0162693 0.00800311
0.0481799 0.0179148 0.00716982
0.0481257 0.0188765 0.00697411
0.0418366 0.0171439 0.00739871
0.0483143 0.0184955 0.00703298
0.0539284 0.0167428 0.00755061
0.0416622 0.0167402 0.00753003
0.0418757 0.0177474 0.00719325
0.0539202 0.0173894 0.00736803

VERTICES 287 574
1 0
1 1
1 2
1 3
1 4
1 5
1 6
1 7
1 8
1 9
1 10
1 11
1 12
1 13
1 14
1 15
1 16
1 17
1 18
1 19
1 20
1 21
1 22
1 23
1 24
1 25
1 26
1 27
1 28
1 29
1 30
1 31
1 32
1 33
1 34
1 35
1 36
1 37
1 38
1 39
1 40
1 41
1 42
1 43
1 44
1 45
1 46
1 47
1 48
1 49
1 50
1 51
1 52
1 53
1 54
1 55
1 56
1 57
1 58
1 59
1 60
1 61
1 62
1 63
1 64
1 65
1 66
1 67
1 68
1 69
1 70
1 71
1 72
1 73
1 74
1 75
1 76
1 77
1 78
1 79
1 80
1 81
1 82
1 83
1 84
1 85
1 86
1 87
1 88
1 89
1 90
1 91
1 92
1 93
1 94
1 95
1 96
1 97
1 98
1 99
1 100
1 101
1 102
1 103
1 104
1 105
1 106
1 107
1 108
1 109
1 110
1 111
1 112
1 113
1 114
1 115
1 116
1 117
1 118
1 119
1 120
1 121
1 122
1 123
1 124
1 125
1 126
1 127
1 128
1 129
1 130
1 131
1 132
1 133
1 134
1 135
1 136
1 137
1 138
1 139
1 140
1 141
1 142
1 143
1 144
1 145
1 146
1 147
1 148
1 149
1 150
1 151
1 152
1 153
1 154
1 155
1 156
1 157
1 158
1 159
1 160
1 161
1 162
1 163
1 164
1 165
1 166
1 167
1 168
1 169
1 170
1 171
1 172
1 173
1 174
1 175
1 176
1 177
1 178
1 179
1 180
1 181
1 182
1 183
1 184
1 185
1 186
1 187
1 188
1 189
1 190
1 191
1 192
1 193
1 194
1 195
1 196
1 197
1 198
1 199
1 200
1 201
1 202
1 203
1 204
1 205
1 206
1 207
1 208
1 209
1 210
1 211
1 212
1 213
1 214
1 215
1 216
1 217
1 218
1 219
1 220
1 221
1 222
1 223
1 224
1 225
1 226
1 227
1 228
1 229
1 230
1 231
1 232
1 233
1 234
1 235
1 236
1 237
1 238
1 239
1 240
1 241
1 242
1 243
1 244
1 245
1 246
1 247
1 248
1 249
1 250
1 251
1 252
1 253
1 254
1 255
1 256
1 257
1 258
1 259
1 260
1 261
1 262
1 263
1 264
1 265
1 266
1 267
1 268
1 269
1 270
1 271
1 272
1 273
1 274
1 275
1 276
1 277
1 278
1 279
1 280
1 281
1 282
1 283
1 284
1 285
1 286

POINT_DATA 287
SCALARS id int 1
LOOKUP_TABLE default
1
2
3
4
5
6
7
8
9
10
11
12
13
14
15
16
17
18
19
21
22
23
24
25
26
27
28
29
30
31
32
33
34
35
36
37
38
39
41
42
44
45
46
47
48
49
50
51
52
53
54
55
56
57
59
60
61
62
63
64
65
66
67
68
69
70
71
72
73
74
76
77
78
79
80
81
82
83
84
85
86
87
88
89
90
91
92
93
94
95
96
97
98
99
100
101
102
103
104
105
106
107
108
109
110
111
112
113
114
115
116
117
118
119
120
121
122
123
124
125
126
127
128
129
130
131
132
133
134
135
136
137
138
140
141
142
143
144
146
147
148
149
150
151
153
154
155
156
157
158
159
160
162
164
165
166
167
168
169
170
171
172
173
174
175
176
177
178
179
181
182
183
184
185
186
187
188
189
190
191
192
193
194
195
196
197
198
199
200
201
202
203
204
205
206
207
208
209
210
211
212
213
214
215
216
217
218
219
220
221
222
223
224
225
226
227
228
229
230
231
232
233
234
235
236
237
239
240
241
242
243
244
246
247
248
249
250
251
252
253
254
255
256
257
258
259
260
261
262
263
264
265
266
267
268
269
270
271
272
273
274
275
276
277
278
279
280
281
282
283
284
285
286
287
288
289
290
291
292
293
294
295
296
297
298
299
300

SCALARS type int 1
LOOKUP_TABLE default
1
1
1
1
1
1
1
1
1
1
1
1
1
1
1
1
1
1
1
1
1
1
1
1
1
1
1
1
1
1
1
1
1
1
1
1
1
1
1
1
1
1
1
1
1
1
1
1
1
1
1
1
1
1
1
1
1
1
1
1
1
1
1
1
1
1
1
1
1
1
1
1
1
1
1
1
1
1
1
1
1
1
1
1
1
1
1
1
1
1
1
1
1
1
1
1
1
1
1
1
1
1
1
1
1
1
1
1
1
1
1
1
1
1
1
1
1
1
1
1
1
1
1
1
1
1
1
1
1
1
1
1
1
1
1
1
1
1
1
1
1
1
1
1
1
1
1
1
1
1
1
1
1
1
1
1
1
1
1
1
1
1
1
1
1
1
1
1
1
1
1
1
1
1
1
1
1
1
1
1
1
1
1
1
1
1
1
1
1
1
1
1
1
1
1
1
1
1
1
1
1
1
1
1
1
1
1
1
1
1
1
1
1
1
1
1
1
1
1
1
1
1
1
1
1
1
1
1
1
1
1
1
1
1
1
1
1
1
1
1
1
1
1
1
1
1
1
1
1
1
1
1
1
1
1
1
1
1
1
1
1
1
1
1
1
1
1
1
1
1
1
1
1
1
1
1
1
1
1
1
1
1
1
1
1
1
1

SCALARS radius float 1
LOOKUP_TABLE default
5e-05
5e-05
5e-05
5e-05
5e-05
5e-05
5e-05
5e-05
5e-05
5e-05
5e-05
5e-05
5e-05
5e-05
5e-05
5e-05
5e-05
5e-05
5e-05
5e-05
5e-05
5e-05
5e-05
5e-05
5e-05
5e-05
5e-05
5e-05
5e-05
5e-05
5e-05
5e-05
5e-05
5e-05
5e-05
5e-05
5e-05
5e-05
5e-05
5e-05
5e-05
5e-05
5e-05
5e-05
5e-05
5e-05
5e-05
5e-05
5e-05
5e-05
5e-05
5e-05
5e-05
5e-05
5e-05
5e-05
5e-05
5e-05
5e-05
5e-05
5e-05
5e-05
5e-05
5e-05
5e-05
5e-05
5e-05
5e-05
5e-05
5e-05
5e-05
5e-05
5e-05
5e-05
5e-05
5e-05
5e-05
5e-05
5e-05
5e-05
5e-05
5e-05
5e-05
5e-05
5e-05
5e-05
5e-05
5e-05
5e-05
5e-05
5e-05
5e-05
5e-05
5e-05
5e-05
5e-05
5e-05
5e-05
5e-05
5e-05
5e-05
5e-05
5e-05
5e-05
5e-05
5e-05
5e-05
5e-05
5e-05
5e-05
5e-05
5e-05
5e-05
5e-05
5e-05
5e-05
5e-05
5e-05
5e-05
5e-05
5e-05
5e-05
5e-05
5e-05
5e-05
5e-05
5e-05
5e-05
5e-05
5e-05
5e-05
5e-05
5e-05
5e-05
5e-05
5e-05
5e-05
5e-05
5e-05
5e-05
5e-05
5e-05
5e-05
5e-05
5e-05
5e-05
5e-05
5e-05
5e-05
5e-05
5e-05
5e-05
5e-05
5e-05
5e-05
5e-05
5e-05
5e-05
5e-05
5e-05
5e-05
5e-05
5e-05
5e-05
5e-05
5e-05
5e-05
5e-05
5e-05
5e-05
5e-05
5e-05
5e-05
5e-05
5e-05
5e-05
5e-05
5e-05
5e-05
5e-05
5e-05
5e-05
5e-05
5e-05
5e-05
5e-05
5e-05
5e-05
5e-05
5e-05
5e-05
5e-05
5e-05
5e-05
5e-05
5e-05
5e-05
5e-05
5e-05
5e-05
5e-05
5e-05
5e-05
5e-05
5e-05
5e-05
5e-05
5e-05
5e-05
5e-05
5e-05
5e-05
5e-05
5e-05
5e-05
5e-05
5e-05
5e-05
5e-05
5e-05
5e-05
5e-05
5e-05
5e-05
5e-05
5e-05
5e-05
5e-05
5e-05
5e-05
5e-05
5e-05
5e-05
5e-05
5e-05
5e-05
5e-05
5e-05
5e-05
5e-05
5e-05
5e-05
5e-05
5e-05
5e-05
5e-05
5e-05
5e-05
5e-05
5e-05
5e-05
5e-05
5e-05
5e-05
5e-05
5e-05
5e-05
5e-05
5e-05
5e-05
5e-05
5e-05
5e-05
5e-05
5e-05
5e-05
5e-05
5e-05
5e-05
5e-05
5e-05
5e-05
5e-05
5e-05
5e-05
5e-05
5e-05
5e-05
5e-05
5e-05
5e-05
5e-05
5e-05
5e-05
5e-05
5e-05
5e-05

SCALARS mass float 1
LOOKUP_TABLE default
1.46608e-10
1.46608e-10
1.46608e-10
1.46608e-10
1.46608e-10
1.46608e-10
1.46608e-10
1.46608e-10
1.46608e-10
1.46608e-10
1.46608e-10
1.46608e-10
1.46608e-10
1.46608e-10
1.46608e-10
1.46608e-10
1.46608e-10
1.46608e-10
1.46608e-10
1.46608e-10
1.46608e-10
1.46608e-10
1.46608e-10
1.46608e-10
1.46608e-10
1.46608e-10
1.46608e-10
1.46608e-10
1.46608e-10
1.46608e-10
1.46608e-10
1.46608e-10
1.46608e-10
1.46608e-10
1.46608e-10
1.46608e-10
1.46608e-10
1.46608e-10
1.46608e-10
1.46608e-10
1.46608e-10
1.46608e-10
1.46608e-10
1.46608e-10
1.46608e-10
1.46608e-10
1.46608e-10
1.46608e-10
1.46608e-10
1.46608e-10
1.46608e-10
1.46608e-10
1.46608e-10
1.46608e-10
1.46608e-10
1.46608e-10
1.46608e-10
1.46608e-10
1.46608e-10
1.46608e-10
1.46608e-10
1.46608e-10
1.46608e-10
1.46608e-10
1.46608e-10
1.46608e-10
1.46608e-10
1.46608e-10
1.46608e-10
1.46608e-10
1.46608e-10
1.46608e-10
1.46608e-10
1.46608e-10
1.46608e-10
1.46608e-10
1.46608e-10
1.46608e-10
1.46608e-10
1.46608e-10
1.46608e-10
1.46608e-10
1.46608e-10
1.46608e-10
1.46608e-10
1.46608e-10
1.46608e-10
1.46608e-10
1.46608e-10
1.46608e-10
1.46608e-10
1.46608e-10
1.46608e-10
1.46608e-10
1.46608e-10
1.46608e-10
1.46608e-10
1.46608e-10
1.46608e-10
1.46608e-10
1.46608e-10
1.46608e-10
1.46608e-10
1.46608e-10
1.46608e-10
1.46608e-10
1.46608e-10
1.46608e-10
1.46608e-10
1.46608e-10
1.46608e-10
1.46608e-10
1.46608e-10
1.46608e-10
1.46608e-10
1.46608e-10
1.46608e-10
1.46608e-10
1.46608e-10
1.46608e-10
1.46608e-10
1.46608e-10
1.46608e-10
1.46608e-10
1.46608e-10
1.46608e-10
1.46608e-10
1.46608e-10
1.46608e-10
1.46608e-10
1.46608e-10
1.46608e-10
1.46608e-10
1.46608e-10
1.46608e-10
1.46608e-10
1.46608e-10
1.46608e-10
1.46608e-10
1.46608e-10
1.46608e-10
1.46608e-10
1.46608e-10
1.46608e-10
1.46608e-10
1.46608e-10
1.46608e-10
1.46608e-10
1.46608e-10
1.46608e-10
1.46608e-10
1.46608e-10
1.46608e-10
1.46608e-10
1.46608e-10
1.46608e-10
1.46608e-10
1.46608e-10
1.46608e-10
1.46608e-10
1.46608e-10
1.46608e-10
1.46608e-10
1.46608e-10
1.46608e-10
1.46608e-10
1.46608e-10
1.46608e-10
1.46608e-10
1.46608e-10
1.46608e-10
1.46608e-10
1.46608e-10
1.46608e-10
1.46608e-10
1.46608e-10
1.46608e-10
1.46608e-10
1.46608e-10
1.46608e-10
1.46608e-10
1.46608e-10
1.46608e-10
1.46608e-10
1.46608e-10
1.46608e-10
1.46608e-10
1.46608e-10
1.46608e-10
1.46608e-10
1.46608e-10
1.46608e-10
1.46608e-10
1.46608e-10
1.46608e-10
1.46608e-10
1.46608e-10
1.46608e-10
1.46608e-10
1.46608e-10
1.46608e-10
1.46608e-10
1.46608e-10
1.46608e-10
1.46608e-10
1.46608e-10
1.46608e-10
1.46608e-10
1.46608e-10
1.46608e-10
1.46608e-10
1.46608e-10
1.46608e-10
1.46608e-10
1.46608e-10
1.46608e-10
1.46608e-10
1.46608e-10
1.46608e-10
1.46608e-10
1.46608e-10
1.46608e-10
1.46608e-10
1.46608e-10
1.46608e-10
1.46608e-10
1.46608e-10
1.46608e-10
1.46608e-10
1.46608e-10
1.46608e-10
1.46608e-10
1.46608e-10
1.46608e-10
1.46608e-10
1.46608e-10
1.46608e-10
1.46608e-10
1.46608e-10
1.46608e-10
1.46608e-10
1.46608e-10
1.46608e-10
1.46608e-10
1.46608e-10
1.46608e-10
1.46608e-10
1.46608e-10
1.46608e-10
1.46608e-10
1.46608e-10
1.46608e-10
1.46608e-10
1.46608e-10
1.46608e-10
1.46608e-10
1.46608e-10
1.46608e-10
1.46608e-10
1.46608e-10
1.46608e-10
1.46608e-10
1.46608e-10
1.46608e-10
1.46608e-10
1.46608e-10
1.46608e-10
1.46608e-10
1.46608e-10
1.46608e-10
1.46608e-10
1.46608e-10
1.46608e-10
1.46608e-10
1.46608e-10
1.46608e-10
1.46608e-10
1.46608e-10
1.46608e-10
1.46608e-10
1.46608e-10
1.46608e-10
1.46608e-10
1.46608e-10
1.46608e-10
1.46608e-10
1.46608e-10

VECTORS velocity float
0.00576897 0.000307178 0.000349744
0.00549203 -9.03675e-05 -0.000255892
0.00618596 0.000733146 -5.18976e-05
0.00562852 -4.34412e-05 -0.000279672
0.00580597 0.000505883 0.00051198
0.00592845 0.000123305 -2.85544e-05
0.00557273 -2.90989e-05 -0.000285333
0.00604058 0.000475646 0.000612724
0.00555868 0.000161471 -6.4235e-05
0.00574433 -3.63046e-05 -0.000299601
0.00559759 -0.00010007 -0.000255709
0.0057483 0.00079606 -0.000148303
0.00583052 0.000479492 0.000478162
0.00619982 0.000818998 -0.000139116
0.00549077 -2.71495e-05 -0.000281638
0.00619917 0.000828059 -0.000147902
0.0058097 -4.78954e-05 -0.000294345
0.00563006 0.000149516 -5.96143e-05
0.00611265 0.000489818 0.000596136
0.00581515 0.000535194 0.00052872
0.00547007 9.59273e-07 -0.000291169
0.00555193 0.000593 -0.000725799
0.00558943 0.00015343 -6.43326e-05
0.00560808 -2.88572e-05 -0.000286409
0.00578415 0.000136688 -4.41091e-05
0.00563504 0.000697698 -0.000767161
0.00562636 -5.24327e-05 -0.000277758
0.00610988 0.000505193 0.000585676
0.00552665 -7.06438e-05 -0.000266048
0.0054914 -3.63332e-06 -0.000290699
0.00544232 -1.4317e-05 -0.000282559
0.00593264 0.000120571 -2.58588e-05
0.00581795 -5.81276e-05 -0.000279775
0.0054974 5.58609e-05 -0.000317124
0.00581091 0.000111199 -6.58723e-05
0.00562714 -6.73262e-08 -0.000301131
0.00546772 -4.72168e-05 -0.000272143
0.00557406 0.000156244 -6.43109e-05
0.00582603 -7.21609e-05 -0.000285485
0.00550883 -5.23884e-06 -0.000293571
0.0055158 -5.76535e-05 -0.000269983
0.00575556 0.000144882 -5.27913e-05
0.00566615 0.000146721 -5.57186e-05
0.00582858 -7.92831e-05 -0.000267895
0.00555242 -1.80889e-05 -0.000288474
0.00574155 0.00014082 -4.92192e-05
0.00563502 -2.62097e-05 -0.000289506
0.00561207 -2.77876e-05 -0.000287084
0.00577706 0.000779891 -0.000150844
0.0056199 0.000149029 -6.05472e-05
0.0058161 0.000516887 0.000500256
0.00618179 0.000772075 -8.22575e-05
0.00556484 1.45168e-05 -0.000303571
0.005773 0.00014025 -4.80934e-05
0.00565066 3.41561e-05 -0.000316352
0.00552311 3.57463e-05 -0.000310257
0.00593024 0.000401661 0.000763585
0.00554401 -3.0678e-05 -0.000283055
0.00554519 -5.3474e-05 -0.000273469
0.00560505 0.000150411 -6.38783e-05
0.00573813 0.000714039 -0.000234908
0.00579914 0.000736546 -0.00020013
0.0055588 -3.01909e-05 -0.000284512
0.00561422 -7.88699e-05 -0.000267267
0.00581754 -5.4449e-05 -0.000289507
0.00556118 0.000159396 -6.40823e-05
0.00619283 0.000797189 -0.000115602
0.00558687 -9.95857e-05 -0.000259077
0.00565033 -2.67275e-05 -0.000290348
0.00553345 -2.86894e-05 -0.000283011
0.00588364 0.000498509 -0.000742663
0.00595437 -0.000169116 0.000548771
0.00618586 0.000726586 -4.45209e-05
0.00577052 0.000784067 -0.00030878
0.00569589 -3.53684e-05 -0.000143314
0.00579012 0.000780134 -0.000139973
0.00561822 0.000706231 -0.000758926
0.00615287 0.000725933 -4.92115e-05
0.00557581 0.000159153 -6.42236e-05
0.00611652 0.000676053 5.69036e-06
0.00559668 -6.71741e-05 -0.000267731
0.00568517 1.62992e-05 -0.000310318
0.00604363 -9.56127e-05 0.000554486
0.0058618 -7.86455e-05 0.000248597
0.00545357 -6.86752e-05 -0.000262874
0.00579695 0.000688767 -0.000492299
0.00561611 -5.67432e-05 -0.000278342
0.00594637 -0.000161591 0.000545725
0.00591225 -0.000214114 0.000535799
0.0056203 -2.17287e-05 -0.00032886
0.00549252 -0.000132382 -0.000237837
0.00595001 0.000741145 -8.81112e-05
0.00604285 -8.91099e-05 0.00055468
0.00558499 0.000659459 -0.0003126
0.00548373 9.33937e-05 -0.000332552
0.00594383 0.000763217 -0.000116468
4.25294e-15 1.05549e-14 8.29536e-14
-1.3037e-23 3.13141e-22 -5.81428e-22
0.00577176 0.000482182 -0.000726249
0.00620784 0.000707137 -1.42925e-05
0.00570989 0.000474758 -0.000717689
0.00617801 0.000720469 -3.9323e-05
0.00566919 -3.65583e-06 -0.000302833
0.00557137 -2.10929e-05 -0.000288889
0.0052508 -0.000428123 -0.000101197
0.00602561 -0.000124208 0.000553002
0.00587166 0.000765599 -0.000117229
0.00589326 0.00039856 -0.000720261
0.00560143 0.00050941 -0.000715417
0.00554838 -2.53834e-05 -0.000286444
0.00582888 5.30697e-05 -0.000337399
0.00589405 0.00051874 0.000520981
0.00618434 0.000748203 -6.74913e-05
0.00550368 9.76189e-05 -0.000335621
0.00607004 0.000478785 0.000613292
0.0060169 0.000470335 0.000613965
0.00554677 -0.000407852 0.000501276
0.00620629 0.000698981 -2.17076e-05
0.00562581 -3.2359e-06 -1.62895e-05
0.00598624 0.000514848 0.000546359
0.0055428 -1.44214e-05 -0.00028996
0.00618612 0.000710551 -2.50256e-05
0.00563046 -1.9652e-05 -0.000304122
0.00600108 -9.99958e-05 0.000494363
0.00555902 0.000584798 -0.000729634
0.00556195 0.000615389 -0.000367645
0.0055975 -4.54617e-05 -0.00028614
0.00585931 0.000409753 0.000678807
0.00541647 -8.60533e-06 -0.000286101
0.00606109 0.000508818 0.000571023
0.00618555 0.000730202 -4.90818e-05
0.00601084 -0.000126115 0.000551582
0.00580171 -6.6687e-05 -0.000288968
0.00594233 -0.000279174 0.000541743
0.0062084 0.000691995 3.49978e-07
0.00557399 0.000528296 -0.000717208
0.00619565 0.000710175 -2.20873e-05
0.00556672 0.000469244 -0.00070536
0.00600331 0.000759466 -9.95413e-05
0.00619925 0.000734065 -5.08326e-05
0.00558514 0.000464767 -0.000702338
0.0058871 -0.000209499 0.00053551
0.00587069 0.000798307 -0.000153374
0.00582644 0.000384795 -0.000708639
0.00616856 0.000703043 -2.22486e-05
0.00560715 0.000463582 -0.000705597
0.0059136 0.000488333 -0.000743409
0.00561164 0.000531886 -0.000721306
-3.83331e-14 8.16578e-14 2.9589e-13
0.0057781 0.00048148 -0.000727303
0.00561306 -7.32489e-05 -0.000269845
0.00588308 0.000506025 -0.000744457
0.00579175 0.000463729 -0.000724695
0.0060504 0.000416842 -0.000743956
0.00583889 0.000412856 -0.000717893
0.00583692 0.000519477 0.000505732
0.00587351 0.000781213 -0.000133899
0.00573433 0.000473586 -0.000721224
0.00587719 0.000402524 -0.000719826
0.00584494 0.000439299 -0.00072495
0.00580876 0.000524873 0.000500632
0.00586709 0.000399573 -0.000717948
0.00542887 -9.44607e-05 -0.000250707
0.00586686 0.00047078 -0.000734591
0.00536812 -0.00050622 0.000395139
0.00560741 0.000573538 -0.000729577
0.00595372 0.00049535 -0.000749284
0.00590216 0.00039468 -0.000720769
0.0059003 0.000400342 -0.000721601
0.00580062 0.000473007 -0.000727714
0.00581341 0.000103961 7.04829e-05
0.00580591 0.000456207 -0.000724056
0.00567189 -2.73494e-05 -0.000271783
0.00563489 0.000634489 -0.000749376
0.0055868 0.00045629 -0.00069985
0.0054768 6.10838e-06 -0.000295869
0.00597898 -0.000156574 0.000549589
0.00539238 9.60145e-06 -0.000291999
0.00537003 -0.000508997 0.00039617
0.00601844 -0.000123944 0.000553288
0.00568004 0.000451802 -0.000711526
0.00593132 0.000149812 -0.000380349
0.00577302 0.000823327 -0.000174941
0.00586775 0.000405747 -0.000719529
0.00619648 0.000822179 -0.000141714
0.00537669 -0.000510742 0.000397039
0.00579601 0.000667124 -0.000676428
0.00583514 0.000511931 -0.000740096
0.00550877 0.000581679 -0.000724734
0.00602145 0.000339816 -0.000722802
0.00572346 0.000461865 -0.000716545
0.00560617 -9.27647e-05 -0.000260925
0.0057338 0.000569543 -0.000557114
0.00596655 0.000445561 -0.000738943
0.00589905 0.000460215 -0.000735401
0.00625177 0.000780067 -9.12024e-05
0.00580466 0.000479694 -0.0007301
0.00587506 0.00081133 -0.000165557
0.00539845 -5.07786e-06 -0.000286183
0.00570311 -0.000169966 0.000520456
0.00588424 0.000432275 -0.000727141
0.00558288 -3.2124e-05 -0.000284727
0.0058512 -0.000175072 0.000526418
0.00536522 -0.000509498 0.000396142
0.00592194 0.000512026 -0.000750161
0.00580514 -6.48107e-05 -0.000287425
0.00598055 0.000467363 -0.000745722
0.00602927 -0.0001033 0.000553775
0.00584503 0.000517331 -0.000742218
0.00548461 -0.000521348 0.000405142
0.00580929 -8.47088e-05 -0.000274667
0.00566434 0.000499703 -0.000719269
0.00556681 0.000473659 -0.000703164
0.00560397 -9.32357e-05 -0.000260742
0.00589503 0.000386104 -0.000718212
0.00534544 -0.000481253 0.00038565
0.0053711 -0.000507942 0.000395861
0.00561288 0.000506997 -0.00073989
0.00611181 0.000371445 -0.000706158
0.00533619 -0.000498538 0.000391188
0.0062289 0.000693331 -5.61423e-06
0.00578809 0.000601076 -0.000719417
0.00603589 -0.000171262 0.000552994
0.00617287 0.000377517 -0.000349458
0.00614923 0.000410139 -0.000362984
0.00611871 0.000366296 -0.000349371
0.00547415 -0.000528275 0.000402452
0.0054792 -0.000523496 0.000405672
0.00563232 -0.000551051 0.000422967
0.00573448 0.00061042 -0.000752116
0.00573804 0.000843165 -9.47413e-05
0.00547649 -0.000524675 0.000405764
0.00533345 -0.00049684 0.000390491
0.00601564 0.000434527 -0.000741439
0.00601438 0.000383487 -0.000729947
0.00537927 -0.00051253 0.000397776
0.00594399 0.000479107 -0.000744643
0.00534613 -0.000446806 -9.76278e-05
0.00575094 -0.00057961 0.000436135
0.00533747 -0.000491779 0.000388914
0.00548335 -0.000524736 0.000406252
0.00618933 0.000739032 -5.54333e-05
0.00592645 0.000452858 -0.000736615
0.00604642 0.000431574 -0.000745296
0.00602288 0.000452699 -0.000746939
0.00579238 -0.000586884 0.000440322
0.00571651 0.000566728 -0.000733028
0.00617101 0.000378439 -0.000350191
0.00607021 0.000317315 -0.000713814
0.00548308 -0.00052391 0.000405894
0.00607774 0.000400348 -0.000741491
0.00537396 -0.000509513 0.000396514
0.00573901 0.000377901 -0.000699532
0.00607944 0.000399534 -0.000741812
0.00560155 0.000552215 -0.000711338
0.00601986 0.000459633 -0.000747912
0.00561505 -8.53721e-05 -0.000265665
0.00591506 0.000424839 -0.000728654
0.00594606 0.000455821 8.88927e-05
0.00616859 0.000385429 -0.000350947
0.00583432 -0.000593845 0.000444452
0.00605227 0.000427168 -0.000744956
0.00598844 0.00048247 -0.00075025
0.00619072 0.000357157 -0.00034742
0.00599109 0.000405136 -0.0007322
0.00533403 -0.000497663 0.000390801
0.00536784 -0.000510997 0.000396774
0.00572546 0.000564078 -0.000737143
0.00547889 -0.000529238 0.000407636
0.0054792 -0.000524073 0.000405769
0.00614964 0.000409893 -0.000366832
0.00611128 0.000370292 -0.000729109
0.00609865 0.000371553 -0.000693649
0.00607688 0.000392924 -0.000751386
0.00614664 0.000409423 -0.000362811
0.00574324 0.000829074 -0.000216542
0.0056202 0.000416305 -0.000703169
0.00603257 0.000396998 -0.000735655
0.00620461 0.00067802 8.44495e-06
0.00594319 0.00041662 -0.00073017
0.0062194 0.000360375 -0.000349308
0.00534183 -0.000492755 0.000389441
0.00615271 0.000330076 -0.000340825
0.00563207 -3.29294e-05 -0.000287271
0.0054814 -0.000523341 0.00040565
0.00538213 -0.000511916 0.000397664
0.00552065 -3.03823e-05 -0.000281138

VECTORS force float
-1.1478e-10 -3.75369e-11 -2.03291e-10
1.56226e-10 -1.83389e-10 7.25518e-11
-1.69166e-10 -1.713e-10 1.56011e-10
4.04078e-11 1.59607e-10 -7.99553e-11
-1.14854e-10 -6.21561e-12 5.44555e-11
2.94871e-11 -1.24035e-11 1.5418e-11
-2.98742e-11 1.53801e-10 -5.77348e-11
6.23421e-11 1.11314e-11 -5.97166e-12
1.05573e-12 2.58754e-11 -2.32371e-12
1.22019e-10 3.26346e-11 -1.16169e-10
1.16273e-10 -1.30195e-10 3.25375e-11
3.51727e-10 4.87348e-10 -1.91474e-10
-1.07578e-10 -3.49596e-12 1.42872e-10
3.4618e-11 2.08612e-12 -1.61354e-11
2.87814e-11 -7.70691e-11 -6.96579e-13
7.49413e-11 2.4933e-10 -2.52327e-10
-5.65917e-11 -5.13574e-11 4.26967e-10
-9.95754e-12 -9.87646e-12 1.56607e-11
-1.76313e-11 -5.97435e-11 1.23123e-10
-1.4345e-10 2.71509e-10 3.39194e-11
-3.81714e-12 -1.94981e-12 3.93613e-11
-2.658e-10 -4.81008e-12 4.49848e-11
4.83518e-11 1.34873e-11 -7.85469e-13
7.86697e-11 1.57746e-10 -4.71721e-11
-5.84913e-12 -1.19751e-11 1.26704e-11
-2.50136e-10 4.09553e-10 -6.9907e-11
1.62264e-10 1.63598e-10 -9.84582e-11
6.4513e-11 6.28761e-11 -5.67786e-11
-6.42263e-11 -3.57223e-11 2.93549e-11
-8.1056e-12 4.79393e-12 -5.6403e-11
-4.95191e-11 -6.17084e-11 4.61611e-11
-2.87458e-11 -1.91847e-11 1.4583e-11
9.88078e-11 -4.34921e-10 5.16281e-11
-4.96652e-11 -2.44469e-11 4.3094e-11
1.39195e-11 2.75701e-11 -1.15685e-12
2.21826e-10 1.29107e-10 -1.14412e-10
8.14479e-12 -2.86053e-11 2.79979e-11
1.17871e-11 2.78956e-11 -4.14014e-12
-9.87098e-11 -9.70337e-10 -1.11167e-09
2.36148e-11 -3.84657e-11 2.1149e-11
1.41961e-10 -2.00309e-10 5.34988e-11
5.7562e-11 -2.61143e-11 2.96608e-11
1.23872e-11 -1.61768e-11 2.06044e-11
2.18118e-10 -7.48972e-10 -7.34743e-10
1.30298e-10 -5.40552e-11 2.90612e-11
1.70775e-11 -1.90926e-11 1.64392e-11
5.15057e-11 6.48434e-11 -2.24232e-11
-3.80762e-11 2.1689e-11 -4.93005e-11
-2.64828e-10 2.02148e-10 -3.54046e-10
1.36355e-12 -4.09593e-12 6.71888e-12
-1.5875e-10 -2.4754e-11 1.38941e-11
-8.84827e-11 -2.4306e-10 3.01332e-10
-2.98951e-10 1.50316e-10 -4.63982e-11
9.04715e-12 -1.67193e-11 1.66167e-11
2.14813e-10 -4.23597e-11 7.60061e-13
2.31295e-10 -6.6713e-11 1.36118e-11
-2.78201e-11 -6.27015e-11 -1.4856e-09
1.58e-10 -1.40876e-10 4.34596e-11