# vtk DataFile Version 3.0
LIGGGHTS particles timestep 15200000
ASCII
DATASET POLYDATA
POINTS 287 float
0.101484 0.0164775 0.00775028
0.101927 0.0175306 0.00714052
0.0952224 0.0158114 0.00825306
0.101818 0.0178523 0.00707301
0.101368 0.0163788 0.00783297
0.107442 0.016673 0.00766046
0.101557 0.0170702 0.00728944
0.101266 0.0160003 0.00814439
0.107725 0.0178479 0.00718106
0.101494 0.0168338 0.00746281
0.101968 0.0177215 0.00709712
0.0954263 0.016579 0.00764417
0.101347 0.0163033 0.0078951
0.0951444 0.015507 0.00850053
0.101697 0.0172797 0.00720483
0.0951264 0.0154671 0.00859043
0.101473 0.0167566 0.0075227
0.107594 0.0173056 0.00740232
0.101326 0.0162278 0.00795722
0.101463 0.016402 0.00781241
0.1016 0.0172467 0.00721245
0.0956286 0.0169976 0.00733711
0.10766 0.0175768 0.00729169
0.101536 0.0169914 0.00734723
0.107529 0.0170345 0.00751295
0.0955117 0.0168955 0.00741492
0.101798 0.0177567 0.00709406
0.101305 0.0161523 0.00801942
0.101832 0.0175004 0.00714984
0.101579 0.0171509 0.00723437
0.101676 0.0171874 0.00723738
0.107464 0.0167634 0.00762358
0.101452 0.0166808 0.0075845
0.101653 0.0170972 0.00727388
0.107766 0.018029 0.00710688
0.101611 0.0169397 0.00738949
0.101771 0.0172134 0.00721506
0.107681 0.0176671 0.00725481
0.10141 0.0165298 0.00770872
0.10162 0.0173427 0.00719062
0.101791 0.0173094 0.00719324
0.107486 0.0168537 0.0075867
0.107573 0.0172152 0.0074392
0.101431 0.0166053 0.0076466
0.101661 0.0175343 0.00714708
0.107551 0.0171249 0.00747607
0.101722 0.0178213 0.00708208
0.101702 0.0177258 0.00710357
0.0954049 0.0164999 0.00770148
0.107616 0.017396 0.00736544
0.101442 0.0163265 0.00787453
0.0951833 0.0156592 0.00837678
0.101632 0.0170186 0.00733181
0.107508 0.0169441 0.00754983
0.101685 0.0168877 0.00743167
0.101706 0.0169666 0.00737382
0.101389 0.0164543 0.00777085
0.101812 0.0174049 0.00717154
0.101757 0.0175658 0.00713783
0.107638 0.0174864 0.00732857
0.0955432 0.0166812 0.00756634
0.0954793 0.0164459 0.00774111
0.101947 0.0176261 0.00711882
0.101872 0.0176914 0.00710644
0.101547 0.0167056 0.00756591
0.107703 0.0177575 0.00721794
0.0951638 0.0155831 0.00843865
0.101852 0.0175959 0.00712813
0.101515 0.0169126 0.00740502
0.101717 0.0173747 0.00718086
0.0957534 0.0175493 0.00715029
0.101855 0.0184643 0.0069265
0.095242 0.0158875 0.00819121
0.0954476 0.0166582 0.00758685
0.101763 0.0180117 0.00703628
0.0953836 0.0164208 0.00775879
0.0955331 0.0169746 0.0073576
0.0955748 0.0164709 0.00772318
0.107746 0.0179383 0.00714414
0.0953565 0.0159898 0.00811104
0.101777 0.0176612 0.00711576
0.101664 0.0168089 0.00748947
0.101799 0.0181839 0.0069945
0.101783 0.0181073 0.0070569
0.101906 0.0174351 0.00716222
0.095469 0.0167373 0.00752954
0.101932 0.0179799 0.00704091
0.101894 0.0181552 0.00700157
0.101982 0.0183231 0.00696088
0.101915 0.0180527 0.00710915
0.101952 0.0180755 0.0070192
0.0953413 0.0162686 0.0078815
0.101819 0.0182819 0.00699575
0.0955218 0.0166021 0.00762366
0.101866 0.0172436 0.00720573
0.0954578 0.0163707 0.00780345
0.0643568 0.0187248 0.00531097
0.24257 0.0191927 0.00520306
0.0958282 0.0174849 0.00716626
0.095301 0.0161166 0.00800504
0.095903 0.0174205 0.00718251
0.0952616 0.0159638 0.00812924
0.101589 0.0168608 0.00744721
0.101681 0.0176302 0.00712529
0.102039 0.0184057 0.0069409
0.101862 0.0184801 0.00702502
0.0953624 0.0163445 0.00781987
0.0962137 0.0181244 0.00700689
0.0957673 0.0172015 0.00724226
0.101737 0.0174703 0.00715973
0.101568 0.0167821 0.00750499
0.101421 0.016251 0.00793666
0.0952027 0.0157354 0.00831491
0.101728 0.0170455 0.00731601
0.101285 0.0160761 0.0080821
0.101246 0.0159246 0.00820668
0.101978 0.0186028 0.00689298
0.0953965 0.0161419 0.00798749
0.101856 0.0180453 0.00702822
0.1014 0.0161755 0.00799884
0.101641 0.0174386 0.00716884
0.0953208 0.0161926 0.00794321
0.101742 0.0179165 0.00705936
0.101869 0.0182288 0.00706426
0.0956504 0.017081 0.00728645
0.0955005 0.0165231 0.00768118
0.101838 0.0179478 0.00705112
0.101579 0.0165006 0.00772983
0.101751 0.0171242 0.00725834
0.10138 0.0160998 0.00806106
0.0953367 0.0159138 0.00817287
0.101875 0.0185596 0.00690337
0.101526 0.016629 0.00762664
0.101958 0.0185062 0.00691641
0.0953761 0.0160659 0.0080492
0.095788 0.0172939 0.00720986
0.0952813 0.0160406 0.00806833
0.0957447 0.0171029 0.00725707
0.0955963 0.016547 0.00766138
0.0953171 0.0158377 0.00823472
0.0955953 0.017228 0.00721903
0.101939 0.0184108 0.00693955
0.0956393 0.0167047 0.00754538
0.0960179 0.0175463 0.00715132
0.0954366 0.0162939 0.0078639
0.0957132 0.0173583 0.00719399
0.0957735 0.0176445 0.00712732
0.0956932 0.0172625 0.00721414
0.0219312 0.0187687 0.00551176
0.09581 0.0175583 0.0072322
0.101893 0.0177868 0.00708474
0.0956568 0.0175164 0.00715717
0.0956157 0.0173237 0.00719849
0.0959304 0.0180285 0.00703007
0.0961215 0.0178115 0.0070851
0.101537 0.0163496 0.00785409
0.0956178 0.0166254 0.00760285
0.0959231 0.0175156 0.00715873
0.0961194 0.0180919 0.00701475
0.0959432 0.0176106 0.00713495
0.101558 0.0164251 0.00779196
0.0960582 0.0177363 0.00710376
0.102009 0.0179166 0.00705281
0.0958684 0.0176749 0.00711858
0.0896483 0.0174827 0.00721968
0.0956722 0.0171714 0.00724972
0.0956976 0.0177073 0.00710994
0.0961957 0.018029 0.00703077
0.0961016 0.0179962 0.0070387
0.0956318 0.0174205 0.00727774
0.101505 0.016553 0.00768817
0.0958483 0.0175799 0.00714236
0.101897 0.0179551 0.00713131
0.095575 0.017133 0.00724286
0.0956688 0.017328 0.00728569
0.101846 0.0171525 0.00724169
0.101913 0.0182529 0.00697786
0.101886 0.0173396 0.00718392
0.0897828 0.0176857 0.00711285
0.101893 0.0186551 0.00688021
0.0958622 0.0172288 0.00722625
0.101642 0.0167301 0.0075473
0.0956822 0.016863 0.00743075
0.0961414 0.0179073 0.00706113
0.095109 0.0154359 0.00868383
0.0897068 0.0177456 0.00708773
0.0954904 0.0168164 0.00747223
0.0956362 0.0174201 0.00717784
0.0956073 0.0169185 0.00739442
0.0960654 0.0181735 0.00699411
0.0958829 0.0173253 0.00720556
0.102124 0.0183551 0.00695254
0.0955859 0.0168394 0.00745172
0.0959032 0.0179532 0.00712361
0.0958884 0.01777 0.00709479
0.0954166 0.016218 0.00792583
0.0957333 0.017454 0.00717304
0.0956607 0.0167839 0.00748807
0.101743 0.0177853 0.00717297
0.101999 0.0182034 0.00698959
0.0959632 0.0177057 0.00711116
0.101826 0.017073 0.00730009
0.101965 0.0181592 0.00707247
0.0897621 0.0175976 0.00715713
0.0956772 0.017612 0.00713379
0.1016 0.0165761 0.0076677
0.0958135 0.0178343 0.00707843
0.101839 0.0183649 0.0070495
0.0957332 0.0176219 0.00721602
0.0896588 0.0171594 0.00737726
0.101621 0.0166516 0.00760558
0.0958081 0.0173897 0.0071893
0.0955544 0.0170537 0.00730029
0.101913 0.0178828 0.00706293
0.096038 0.0176413 0.00712754
0.0897231 0.0174216 0.00724541
0.0896674 0.0175704 0.00717568
0.0957133 0.0175265 0.00723903
0.0959889 0.018236 0.00697818
0.0896277 0.0173952 0.00726361
0.0955535 0.0163951 0.00778478
0.0957035 0.0169422 0.00737335
0.101836 0.0183689 0.00694963
0.0959515 0.018491 0.00691409
0.0960075 0.0183314 0.00695432
0.0961026 0.0183641 0.0069464
0.0894321 0.0166104 0.0076585
0.0894973 0.016872 0.00752687
0.0894104 0.0165232 0.00770238
0.0958202 0.0170466 0.00729395
0.0955645 0.0167603 0.00750903
0.0894538 0.0166976 0.00761462
0.0895842 0.0172208 0.00735136
0.0958347 0.0179303 0.00705441
0.0961603 0.0182064 0.00698615
0.0897251 0.0178335 0.0070437
0.0957936 0.0177392 0.00710222
0.102068 0.0182738 0.0069721
0.0897628 0.0180099 0.00695733
0.0897024 0.017334 0.00728944
0.0895625 0.0171336 0.00739524
0.0952975 0.0157616 0.00829657
0.0959086 0.017865 0.00707102
0.0957587 0.0179932 0.00703839
0.0957955 0.0179079 0.00714363
0.0897818 0.0181081 0.00695586
0.0957257 0.017022 0.00731554
0.0959311 0.0183939 0.00693839
0.0960839 0.0182688 0.00697025
0.0895407 0.0170464 0.00743911
0.0957915 0.0181519 0.00699867
0.0896866 0.0176581 0.00713169
0.0959979 0.0174512 0.0071751
0.0958788 0.0181142 0.00702946
0.0957892 0.0174622 0.00725552
0.0957384 0.0178982 0.00706216
0.102031 0.0180152 0.00703036
0.0959834 0.0178007 0.00708739
0.0898216 0.018302 0.0069843
0.0958333 0.0183578 0.00694716
0.0898017 0.018205 0.00697008
0.0958418 0.0180339 0.00707618
0.0957179 0.0178027 0.00708607
0.095853 0.0184543 0.00692299
0.0959721 0.0179404 0.0070523
0.0896059 0.017308 0.00730749
0.089802 0.0177745 0.00706832
0.0958011 0.016967 0.00735148
0.0896805 0.0172466 0.00733338
0.0894756 0.0167848 0.00757075
0.0959124 0.0182984 0.00696229
0.0958945 0.018203 0.00698618
0.0958134 0.0182597 0.00697171
0.0959713 0.0181405 0.00700208
0.0959073 0.0183695 0.00703241
0.0957791 0.0168874 0.00740918
0.0958396 0.0171326 0.00724683
0.0960254 0.018059 0.00702272
0.095532 0.0163193 0.00784634
0.0960467 0.0178759 0.00706872
0.0958719 0.0185496 0.00689915
0.0897428 0.0175098 0.00720117
0.0960263 0.0184266 0.00693047
0.101802 0.0169936 0.00735821
0.089519 0.0169592 0.00748299
0.0897443 0.0179212 0.00699971
0.101988 0.0178172 0.00707539

VERTICES 287 574
1 0
1 1
1 2
1 3
1 4
1 5
1 6
1 7
1 8
1 9
1 10
1 11
1 12
1 13
1 14
1 15
1 16
1 17
1 18
1 19
1 20
1 21
1 22
1 23
1 24
1 25
1 26
1 27
1 28
1 29
1 30
1 31
1 32
1 33
1 34
1 35
1 36
1 37
1 38
1 39
1 40
1 41
1 42
1 43
1 44
1 45
1 46
1 47
1 48
1 49
1 50
1 51
1 52
1 53
1 54
1 55
1 56
1 57
1 58
1 59
1 60
1 61
1 62
1 63
1 64
1 65
1 66
1 67
1 68
1 69
1 70
1 71
1 72
1 73
1 74
1 75
1 76
1 77
1 78
1 79
1 80
1 81
1 82
1 83
1 84
1 85
1 86
1 87
1 88
1 89
1 90
1 91
1 92
1 93
1 94
1 95
1 96
1 97
1 98
1 99
1 100
1 101
1 102
1 103
1 104
1 105
1 106
1 107
1 108
1 109
1 110
1 111
1 112
1 113
1 114
1 115
1 116
1 117
1 118
1 119
1 120
1 121
1 122
1 123
1 124
1 125
1 126
1 127
1 128
1 129
1 130
1 131
1 132
1 133
1 134
1 135
1 136
1 137
1 138
1 139
1 140
1 141
1 142
1 143
1 144
1 145
1 146
1 147
1 148
1 149
1 150
1 151
1 152
1 153
1 154
1 155
1 156
1 157
1 158
1 159
1 160
1 161
1 162
1 163
1 164
1 165
1 166
1 167
1 168
1 169
1 170
1 171
1 172
1 173
1 174
1 175
1 176
1 177
1 178
1 179
1 180
1 181
1 182
1 183
1 184
1 185
1 186
1 187
1 188
1 189
1 190
1 191
1 192
1 193
1 194
1 195
1 196
1 197
1 198
1 199
1 200
1 201
1 202
1 203
1 204
1 205
1 206
1 207
1 208
1 209
1 210
1 211
1 212
1 213
1 214
1 215
1 216
1 217
1 218
1 219
1 220
1 221
1 222
1 223
1 224
1 225
1 226
1 227
1 228
1 229
1 230
1 231
1 232
1 233
1 234
1 235
1 236
1 237
1 238
1 239
1 240
1 241
1 242
1 243
1 244
1 245
1 246
1 247
1 248
1 249
1 250
1 251
1 252
1 253
1 254
1 255
1 256
1 257
1 258
1 259
1 260
1 261
1 262
1 263
1 264
1 265
1 266
1 267
1 268
1 269
1 270
1 271
1 272
1 273
1 274
1 275
1 276
1 277
1 278
1 279
1 280
1 281
1 282
1 283
1 284
1 285
1 286

POINT_DATA 287
SCALARS id int 1
LOOKUP_TABLE default
1
2
3
4
5
6
7
8
9
10
11
12
13
14
15
16
17
18
19
21
22
23
24
25
26
27
28
29
30
31
32
33
34
35
36
37
38
39
41
42
44
45
46
47
48
49
50
51
52
53
54
55
56
57
59
60
61
62
63
64
65
66
67
68
69
70
71
72
73
74
76
77
78
79
80
81
82
83
84
85
86
87
88
89
90
91
92
93
94
95
96
97
98
99
100
101
102
103
104
105
106
107
108
109
110
111
112
113
114
115
116
117
118
119
120
121
122
123
124
125
126
127
128
129
130
131
132
133
134
135
136
137
138
140
141
142
143
144
146
147
148
149
150
151
153
154
155
156
157
158
159
160
162
164
165
166
167
168
169
170
171
172
173
174
175
176
177
178
179
181
182
183
184
185
186
187
188
189
190
191
192
193
194
195
196
197
198
199
200
201
202
203
204
205
206
207
208
209
210
211
212
213
214
215
216
217
218
219
220
221
222
223
224
225
226
227
228
229
230
231
232
233
234
235
236
237
239
240
241
242
243
244
246
247
248
249
250
251
252
253
254
255
256
257
258
259
260
261
262
263
264
265
266
267
268
269
270
271
272
273
274
275
276
277
278
279
280
281
282
283
284
285
286
287
288
289
290
291
292
293
294
295
296
297
298
299
300

SCALARS type int 1
LOOKUP_TABLE default
1
1
1
1
1
1
1
1
1
1
1
1
1
1
1
1
1
1
1
1
1
1
1
1
1
1
1
1
1
1
1
1
1
1
1
1
1
1
1
1
1
1
1
1
1
1
1
1
1
1
1
1
1
1
1
1
1
1
1
1
1
1
1
1
1
1
1
1
1
1
1
1
1
1
1
1
1
1
1
1
1
1
1
1
1
1
1
1
1
1
1
1
1
1
1
1
1
1
1
1
1
1
1
1
1
1
1
1
1
1
1
1
1
1
1
1
1
1
1
1
1
1
1
1
1
1
1
1
1
1
1
1
1
1
1
1
1
1
1
1
1
1
1
1
1
1
1
1
1
1
1
1
1
1
1
1
1
1
1
1
1
1
1
1
1
1
1
1
1
1
1
1
1
1
1
1
1
1
1
1
1
1
1
1
1
1
1
1
1
1
1
1
1
1
1
1
1
1
1
1
1
1
1
1
1
1
1
1
1
1
1
1
1
1
1
1
1
1
1
1
1
1
1
1
1
1
1
1
1
1
1
1
1
1
1
1
1
1
1
1
1
1
1
1
1
1
1
1
1
1
1
1
1
1
1
1
1
1
1
1
1
1
1
1
1
1
1
1
1
1
1
1
1
1
1
1
1
1
1
1
1
1
1
1
1
1
1

SCALARS radius float 1
LOOKUP_TABLE default
5e-05
5e-05
5e-05
5e-05
5e-05
5e-05
5e-05
5e-05
5e-05
5e-05
5e-05
5e-05
5e-05
5e-05
5e-05
5e-05
5e-05
5e-05
5e-05
5e-05
5e-05
5e-05
5e-05
5e-05
5e-05
5e-05
5e-05
5e-05
5e-05
5e-05
5e-05
5e-05
5e-05
5e-05
5e-05
5e-05
5e-05
5e-05
5e-05
5e-05
5e-05
5e-05
5e-05
5e-05
5e-05
5e-05
5e-05
5e-05
5e-05
5e-05
5e-05
5e-05
5e-05
5e-05
5e-05
5e-05
5e-05
5e-05
5e-05
5e-05
5e-05
5e-05
5e-05
5e-05
5e-05
5e-05
5e-05
5e-05
5e-05
5e-05
5e-05
5e-05
5e-05
5e-05
5e-05
5e-05
5e-05
5e-05
5e-05
5e-05
5e-05
5e-05
5e-05
5e-05
5e-05
5e-05
5e-05
5e-05
5e-05
5e-05
5e-05
5e-05
5e-05
5e-05
5e-05
5e-05
5e-05
5e-05
5e-05
5e-05
5e-05
5e-05
5e-05
5e-05
5e-05
5e-05
5e-05
5e-05
5e-05
5e-05
5e-05
5e-05
5e-05
5e-05
5e-05
5e-05
5e-05
5e-05
5e-05
5e-05
5e-05
5e-05
5e-05
5e-05
5e-05
5e-05
5e-05
5e-05
5e-05
5e-05
5e-05
5e-05
5e-05
5e-05
5e-05
5e-05
5e-05
5e-05
5e-05
5e-05
5e-05
5e-05
5e-05
5e-05
5e-05
5e-05
5e-05
5e-05
5e-05
5e-05
5e-05
5e-05
5e-05
5e-05
5e-05
5e-05
5e-05
5e-05
5e-05
5e-05
5e-05
5e-05
5e-05
5e-05
5e-05
5e-05
5e-05
5e-05
5e-05
5e-05
5e-05
5e-05
5e-05
5e-05
5e-05
5e-05
5e-05
5e-05
5e-05
5e-05
5e-05
5e-05
5e-05
5e-05
5e-05
5e-05
5e-05
5e-05
5e-05
5e-05
5e-05
5e-05
5e-05
5e-05
5e-05
5e-05
5e-05
5e-05
5e-05
5e-05
5e-05
5e-05
5e-05
5e-05
5e-05
5e-05
5e-05
5e-05
5e-05
5e-05
5e-05
5e-05
5e-05
5e-05
5e-05
5e-05
5e-05
5e-05
5e-05
5e-05
5e-05
5e-05
5e-05
5e-05
5e-05
5e-05
5e-05
5e-05
5e-05
5e-05
5e-05
5e-05
5e-05
5e-05
5e-05
5e-05
5e-05
5e-05
5e-05
5e-05
5e-05
5e-05
5e-05
5e-05
5e-05
5e-05
5e-05
5e-05
5e-05
5e-05
5e-05
5e-05
5e-05
5e-05
5e-05
5e-05
5e-05
5e-05
5e-05
5e-05
5e-05
5e-05
5e-05
5e-05
5e-05
5e-05
5e-05
5e-05
5e-05
5e-05
5e-05
5e-05
5e-05
5e-05
5e-05
5e-05
5e-05
5e-05
5e-05
5e-05
5e-05
5e-05
5e-05
5e-05
5e-05
5e-05
5e-05

SCALARS mass float 1
LOOKUP_TABLE default
1.46608e-10
1.46608e-10
1.46608e-10
1.46608e-10
1.46608e-10
1.46608e-10
1.46608e-10
1.46608e-10
1.46608e-10
1.46608e-10
1.46608e-10
1.46608e-10
1.46608e-10
1.46608e-10
1.46608e-10
1.46608e-10
1.46608e-10
1.46608e-10
1.46608e-10
1.46608e-10
1.46608e-10
1.46608e-10
1.46608e-10
1.46608e-10
1.46608e-10
1.46608e-10
1.46608e-10
1.46608e-10
1.46608e-10
1.46608e-10
1.46608e-10
1.46608e-10
1.46608e-10
1.46608e-10
1.46608e-10
1.46608e-10
1.46608e-10
1.46608e-10
1.46608e-10
1.46608e-10
1.46608e-10
1.46608e-10
1.46608e-10
1.46608e-10
1.46608e-10
1.46608e-10
1.46608e-10
1.46608e-10
1.46608e-10
1.46608e-10
1.46608e-10
1.46608e-10
1.46608e-10
1.46608e-10
1.46608e-10
1.46608e-10
1.46608e-10
1.46608e-10
1.46608e-10
1.46608e-10
1.46608e-10
1.46608e-10
1.46608e-10
1.46608e-10
1.46608e-10
1.46608e-10
1.46608e-10
1.46608e-10
1.46608e-10
1.46608e-10
1.46608e-10
1.46608e-10
1.46608e-10
1.46608e-10
1.46608e-10
1.46608e-10
1.46608e-10
1.46608e-10
1.46608e-10
1.46608e-10
1.46608e-10
1.46608e-10
1.46608e-10
1.46608e-10
1.46608e-10
1.46608e-10
1.46608e-10
1.46608e-10
1.46608e-10
1.46608e-10
1.46608e-10
1.46608e-10
1.46608e-10
1.46608e-10
1.46608e-10
1.46608e-10
1.46608e-10
1.46608e-10
1.46608e-10
1.46608e-10
1.46608e-10
1.46608e-10
1.46608e-10
1.46608e-10
1.46608e-10
1.46608e-10
1.46608e-10
1.46608e-10
1.46608e-10
1.46608e-10
1.46608e-10
1.46608e-10
1.46608e-10
1.46608e-10
1.46608e-10
1.46608e-10
1.46608e-10
1.46608e-10
1.46608e-10
1.46608e-10
1.46608e-10
1.46608e-10
1.46608e-10
1.46608e-10
1.46608e-10
1.46608e-10
1.46608e-10
1.46608e-10
1.46608e-10
1.46608e-10
1.46608e-10
1.46608e-10
1.46608e-10
1.46608e-10
1.46608e-10
1.46608e-10
1.46608e-10
1.46608e-10
1.46608e-10
1.46608e-10
1.46608e-10
1.46608e-10
1.46608e-10
1.46608e-10
1.46608e-10
1.46608e-10
1.46608e-10
1.46608e-10
1.46608e-10
1.46608e-10
1.46608e-10
1.46608e-10
1.46608e-10
1.46608e-10
1.46608e-10
1.46608e-10
1.46608e-10
1.46608e-10
1.46608e-10
1.46608e-10
1.46608e-10
1.46608e-10
1.46608e-10
1.46608e-10
1.46608e-10
1.46608e-10
1.46608e-10
1.46608e-10
1.46608e-10
1.46608e-10
1.46608e-10
1.46608e-10
1.46608e-10
1.46608e-10
1.46608e-10
1.46608e-10
1.46608e-10
1.46608e-10
1.46608e-10
1.46608e-10
1.46608e-10
1.46608e-10
1.46608e-10
1.46608e-10
1.46608e-10
1.46608e-10
1.46608e-10
1.46608e-10
1.46608e-10
1.46608e-10
1.46608e-10
1.46608e-10
1.46608e-10
1.46608e-10
1.46608e-10
1.46608e-10
1.46608e-10
1.46608e-10
1.46608e-10
1.46608e-10
1.46608e-10
1.46608e-10
1.46608e-10
1.46608e-10
1.46608e-10
1.46608e-10
1.46608e-10
1.46608e-10
1.46608e-10
1.46608e-10
1.46608e-10
1.46608e-10
1.46608e-10
1.46608e-10
1.46608e-10
1.46608e-10
1.46608e-10
1.46608e-10
1.46608e-10
1.46608e-10
1.46608e-10
1.46608e-10
1.46608e-10
1.46608e-10
1.46608e-10
1.46608e-10
1.46608e-10
1.46608e-10
1.46608e-10
1.46608e-10
1.46608e-10
1.46608e-10
1.46608e-10
1.46608e-10
1.46608e-10
1.46608e-10
1.46608e-10
1.46608e-10
1.46608e-10
1.46608e-10
1.46608e-10
1.46608e-10
1.46608e-10
1.46608e-10
1.46608e-10
1.46608e-10
1.46608e-10
1.46608e-10
1.46608e-10
1.46608e-10
1.46608e-10
1.46608e-10
1.46608e-10
1.46608e-10
1.46608e-10
1.46608e-10
1.46608e-10
1.46608e-10
1.46608e-10
1.46608e-10
1.46608e-10
1.46608e-10
1.46608e-10
1.46608e-10
1.46608e-10
1.46608e-10
1.46608e-10
1.46608e-10
1.46608e-10
1.46608e-10
1.46608e-10
1.46608e-10
1.46608e-10
1.46608e-10
1.46608e-10
1.46608e-10
1.46608e-10
1.46608e-10
1.46608e-10
1.46608e-10
1.46608e-10
1.46608e-10
1.46608e-10
1.46608e-10
1.46608e-10
1.46608e-10
1.46608e-10

VECTORS velocity float
0.00610159 6.50361e-05 -0.000154006
0.0056887 0.000220552 -0.000207052
0.00562468 0.000148458 6.92012e-05
0.00579404 0.000258931 -0.000213447
0.00606073 9.27906e-05 -0.000176053
0.0058917 -0.000516907 0.000784181
0.00636876 0.000295862 7.49776e-05
0.00561603 0.000221729 -0.000274888
0.00586511 -0.000509338 0.000778382
0.00627775 0.000262627 0.000102241
0.00579882 0.000257393 -0.000217152
0.00614359 -0.000147051 -0.000162205
0.00603025 0.000113198 -0.000192472
0.00561439 0.000167815 4.96492e-05
0.0058432 0.0002038 -0.000198068
0.00555154 3.91123e-05 -2.91197e-05
0.00622789 0.000196655 1.65566e-05
0.00587765 -0.00051231 0.000780851
0.00600337 0.00013127 -0.00020785
0.00607507 6.76542e-05 -0.000156295
0.00557084 -0.00030358 -8.74913e-05
0.00628854 -0.00017887 -0.000158534
0.00587142 -0.000510347 0.000779424
0.00633458 0.000290185 8.29367e-05
0.00588356 -0.000514639 0.000782441
0.00630023 -0.000164743 -0.000154034
0.00574222 0.000274574 -0.000222943
0.00560434 0.000209048 -0.000264463
0.00570512 0.000238362 -0.000210103
0.00637007 0.000276257 6.1292e-05
0.00602 0.000228869 -0.000125671
0.00588966 -0.000516417 0.000783771
0.00619532 9.93848e-05 -0.000108198
0.00633934 0.000282184 6.61914e-05
0.00558619 -0.000461308 0.00073112
0.00630343 0.000289084 7.17082e-05
0.00576502 9.53513e-05 -0.000121271
0.0058694 -0.00051058 0.000779304
0.00612235 7.14199e-05 -0.00015997
0.00572047 7.9655e-05 -0.000180263
0.00575855 0.000235028 -0.000220449
0.00588759 -0.000515904 0.000783341
0.00587961 -0.000513029 0.00078136
0.00616505 6.97226e-05 -0.000153852
0.00575798 0.000300366 -0.000225729
0.00588154 -0.00051376 0.000781844
0.00581767 0.000269947 -0.000101671
0.00581669 0.000255002 -0.000191831
0.00613255 -0.000147007 -0.000159343
0.00587555 -0.000511794 0.000780447
0.00603526 6.97162e-05 -0.000157739
0.00561164 0.000159812 6.03485e-05
0.00633862 0.000296183 8.08246e-05
0.00588562 -0.00051538 0.000782941
0.00626459 0.000283073 8.67117e-05
0.00628984 0.000267052 0.000103511
0.00607995 7.98519e-05 -0.000167946
0.00574005 0.000237797 -0.000219448
0.00579421 0.000238292 -0.000204761
0.00587365 -0.000511049 0.000779925
0.00617892 -0.000146482 -0.000180664
0.00613115 -8.0043e-05 -7.13377e-05
0.00577001 0.000239744 -0.000213681
0.00570612 0.000250037 -0.000216313
0.00623919 0.000188913 1.69035e-05
0.00586775 -0.000509592 0.000778758
0.00560548 0.000166024 5.29717e-05
0.00583406 0.000211242 -0.000211641
0.00629846 0.000269457 9.35523e-05
0.00571694 0.000227022 -0.000207971
0.0057331 3.34716e-05 4.2709e-06
0.00573185 0.000274816 -6.25628e-05
0.005612 0.000150279 6.80319e-05
0.00617027 -0.000145498 -0.000166348
0.00583793 0.000255884 -5.64905e-05
0.00610099 -0.000145485 -0.000158851
0.00634353 -0.000165147 -0.00015469
0.00611086 4.88603e-05 0.000166735
0.00554503 -0.000455196 0.000724542
0.00565636 0.000160921 6.15268e-05
0.00585217 0.000244397 -0.000213384
0.00621643 0.000242503 0.000114512
0.00563893 0.000302216 -6.59257e-05
0.00572608 0.000286513 -6.04342e-05
0.00568939 0.000184459 -0.000201259
0.00620369 -0.000144188 -0.000165012
0.00579122 0.000313201 -0.000215053
0.00565659 0.000337472 -7.88569e-05
0.00567906 0.000251669 -5.44282e-05
0.00588686 0.000373454 -0.000120268
0.00570694 0.000354264 -0.000204387
0.00607358 0.000132821 9.6473e-05
0.00565275 0.000293716 -6.6525e-05
0.00616169 -0.00014745 -0.00017233
0.00602853 0.00044685 -0.000251177
0.00611212 3.3994e-05 6.5692e-05
4.38411e-15 1.04714e-14 8.29576e-14
-7.91558e-23 -2.15809e-22 -5.81428e-22
0.0057186 3.278e-05 2.75713e-06
0.0056029 0.000185577 3.82766e-05
0.00570863 3.71003e-05 6.47102e-06
0.00568972 0.000421068 -0.000167323
0.00627732 0.000270969 7.76387e-05
0.00579751 0.000308415 -0.000230077
0.00574958 0.000277049 -6.088e-05
0.00572867 0.000312495 -7.03751e-05
0.0060928 0.000132778 0.000101355
0.00586212 0.000191247 -2.99228e-05
0.00577694 0.000190952 0.000110359
0.00570281 0.000226573 -0.000222743
0.00627037 0.00026327 0.000100736
0.00597187 7.69373e-05 -0.000162158
0.00562047 0.000150588 6.83922e-05
0.006449 0.000390499 3.89165e-06
0.00561838 0.000219806 -0.000273667
0.00562168 0.000223019 -0.00027595
0.0056453 0.000289949 -6.46387e-05
0.00590666 0.000125884 0.000117113
0.00579512 0.000342539 -7.07844e-05
0.00582123 0.000108689 -0.000185975
0.00572368 0.000217341 -0.000210748
0.00582989 0.000163746 6.49124e-05
0.00583409 0.000264983 -6.28233e-05
0.00563396 0.000300333 -5.08029e-05
0.0061502 -0.000106652 -9.7808e-05
0.0061548 -0.000143297 -0.000154003
0.00583059 0.000252985 -0.000142181
0.00608152 2.4473e-05 -0.000119339
0.00610755 0.000398684 -6.88743e-05
0.00564901 0.000145235 -0.000212916
0.00560085 0.000170192 5.10545e-05
0.00560853 0.000295398 -6.54306e-05
0.00618347 9.37631e-05 -0.00010876
0.00560567 0.000284982 -6.36951e-05
0.00580415 0.000136085 8.80374e-05
0.00570847 7.1947e-05 0.000142398
0.00569481 -0.000669741 -0.00150758
0.00602878 0.000172371 -0.000381703
0.00612437 4.16969e-05 0.000170296
0.00560875 0.000167926 5.21564e-05
0.00566876 6.12111e-05 0.000143851
0.00573832 0.00027405 -6.40372e-05
0.00614039 -0.000207917 -0.00011761
0.00573437 2.58264e-05 1.14175e-05
0.00604359 9.74245e-05 0.000126661
0.00570202 7.58293e-05 0.000141808
0.00574687 3.30127e-05 6.20285e-06
0.00569164 8.43693e-05 0.000138394
-3.83444e-14 8.16444e-14 2.95892e-13
0.00573283 3.42587e-05 7.65493e-06
0.00578305 0.000248855 -0.000211662
0.00572051 7.10319e-05 0.000141644
0.00568835 7.57356e-05 0.000142158
0.0057944 0.000150419 -2.02492e-05
0.00570132 7.41856e-05 -4.00025e-07
0.00608094 7.25725e-05 -0.000160654
0.00614462 -0.000137738 -0.000167725
0.00572345 3.06127e-05 9.19887e-06
0.00576663 0.000222257 -3.7822e-05
0.00574412 2.92399e-05 1.03453e-05
0.00609216 6.04302e-05 -0.000149479
0.00576465 2.17236e-05 1.23158e-05
0.005493 -1.18778e-05 -0.0001554
0.00575114 2.76678e-05 1.12343e-05
0.00572243 0.000144816 -0.000388226
0.00583843 2.42788e-05 6.15119e-05
0.00575295 3.2885e-05 7.2805e-06
0.00581712 0.000188279 -2.93325e-05
0.0057907 0.000236301 -4.13631e-05
0.00574624 0.000103232 0.000142153
0.00613192 6.54029e-05 -0.000149524
0.00573683 3.16696e-05 9.54624e-06
0.00595096 0.000186938 -0.000205546
0.00563588 -2.4409e-05 -0.000225272
0.00571288 9.01387e-05 0.000144517
0.00607888 0.000478835 -8.05682e-05
0.00564225 0.000283742 -6.19225e-05
0.00572064 0.000154078 -0.000203976
0.00586495 1.84943e-05 -0.000335173
0.00563788 0.000289003 -6.47252e-05
0.00578099 0.000144461 0.000128503
0.00621794 0.00021868 0.000129063
0.00628449 -0.000179949 -0.000141883
0.00567058 0.000182236 -2.82421e-05
0.00548566 -0.000238513 -0.000136809
0.00584042 2.65622e-05 -0.000336717
0.00623578 -0.000148285 -0.000161726
0.00570502 7.49206e-05 0.000141463
0.00628895 -0.00016945 -0.000148698
0.00571818 0.000182917 -2.82122e-05
0.0057068 7.56976e-05 0.00014173
0.00576975 0.000264738 -0.000221293
0.00627939 -0.000167338 -0.000149444
0.0057834 0.000176562 -2.82863e-05
0.00576014 3.91683e-05 8.24965e-06
0.00595213 0.000119781 0.000126995
0.00571628 6.97696e-05 0.000142014
0.00624985 -0.000216702 -0.000114882
0.0058307 0.000182321 -0.000137652
0.00570119 0.00036444 -0.000239556
0.005756 3.04411e-05 1.03614e-05
0.0063495 0.000686637 -0.000210437
0.00588448 0.000381423 -0.00017261
0.0058172 0.000132117 -0.000387708
0.00573414 3.06676e-05 7.98362e-06
0.00613689 1.93139e-05 -0.000117792
0.00578534 2.37168e-05 1.15705e-05
0.00569067 0.000280425 -6.5116e-05
0.00570943 3.88852e-05 -9.24807e-06
0.00619625 -4.62457e-05 -0.000321157
0.0061949 1.8563e-05 -0.000114465
0.00570551 6.97902e-05 0.000143264
0.00631249 -0.000145264 -0.000166279
0.00583463 0.000213439 -0.000210619
0.00574723 2.89275e-05 1.02857e-05
0.00581642 0.000310298 -0.000474612
0.00563713 0.000135257 -0.000379414
0.00580279 0.000153991 7.18578e-05
0.00572525 0.000165061 -2.31408e-05
0.00620191 8.99606e-06 -0.000349003
0.00607432 4.8092e-05 0.000166325
0.00625397 -0.000188647 -0.000137524
0.00569719 0.000283177 -6.3685e-05
0.00562336 0.000147454 -1.95337e-05
0.00575855 0.000153956 -1.97726e-05
0.00566721 0.000175594 -2.63216e-05
0.00605983 -0.000470452 -0.00010604
0.00610935 -0.000293321 -0.00019557
0.00605095 -0.00049747 -9.21106e-05
0.0062859 0.000131255 -0.000349361
0.00622464 -0.000154888 -0.000161073
0.0060731 -0.000423697 -0.000129649
0.00617565 -5.9678e-05 -0.000313307
0.00580491 2.64033e-05 1.09598e-05
0.00582987 0.000193263 -3.00702e-05
0.00584737 1.08833e-05 -0.00032553
0.00576259 3.18373e-05 1.00531e-05
0.00561167 0.000109105 -0.000180694
0.00558827 4.53254e-05 -0.000260558
0.00623326 1.75489e-05 -0.000354383
0.00615878 -0.000107994 -0.000288609
0.00561304 0.000162394 5.79524e-05
0.00579891 3.16519e-05 9.68935e-06
0.00581607 2.49696e-05 1.20745e-05
0.00580018 2.54386e-05 9.94888e-06
0.00566103 2.50959e-05 0.000328724
0.00631789 -4.36123e-06 -0.000278498
0.00574802 0.000143147 -1.70126e-05
0.00577785 0.000164826 -2.40918e-05
0.00614768 -0.000161807 -0.000262412
0.00551514 -0.000315939 9.37031e-05
0.00576818 7.32662e-05 -0.00035672
0.00571545 2.80297e-05 1.07392e-05
0.00571827 0.000111309 -1.67956e-05
0.00579552 0.000153783 7.39956e-05
0.00579402 2.84277e-05 1.07409e-05
0.00550832 0.000104448 -0.000170626
0.00578339 2.96912e-05 1.04631e-05
0.00563937 1.97266e-05 0.000326428
0.00570669 0.000196218 -3.04684e-05
0.0056538 2.08215e-05 0.000328679
0.00580549 7.06233e-05 -6.21503e-07
0.00577791 4.32795e-05 7.25157e-06
0.00571121 8.94411e-05 -5.72607e-06
0.00577927 0.000144752 -1.92703e-05
0.00618639 -6.51853e-05 -0.000311819
0.00593902 8.24116e-05 -0.000369716
0.00640724 9.09355e-05 -0.000337826
0.00623067 -7.88235e-05 -0.000307771
0.00609029 -0.000362617 -0.000160682
0.00569261 0.000154405 -2.12399e-05
0.00566402 0.000139046 -1.77926e-05
0.00564326 9.6683e-05 -7.04043e-06
0.00569579 0.000173662 -2.56399e-05
0.00572252 0.000155339 -2.03948e-05
0.00623606 -0.000191991 -0.000131885
0.00599072 0.000423368 7.1194e-05
0.00577551 0.000219353 -3.75027e-05
0.00605431 4.50403e-05 0.00016658
0.00572189 9.86568e-05 -8.24049e-06
0.00558889 0.00011467 -1.11777e-05
0.00560791 0.00016013 -0.000389748
0.00565832 0.000174713 -2.66406e-05
0.00667166 0.000627483 -0.00014844
0.0061278 -0.000225757 -0.000229685
0.00571047 2.06911e-05 -0.000315101
0.00580409 0.000160026 -0.00019389

VECTORS force float
1.08275e-10 7.14899e-11 -9.62351e-11
-7.08251e-10 -3.68219e-11 2.50134e-11
-3.41292e-12 -1.04857e-10 5.26216e-11
4.86593e-10 -2.8687e-10 1.72399e-10
-1.21655e-11 -5.69837e-11 5.20554e-11
5.17152e-13 6.02196e-13 -1.06463e-13
-1.15692e-10 -4.04443e-10 -6.34856e-12
1.06839e-11 -5.68611e-11 4.52977e-11
1.46706e-13 -1.29791e-12 1.36437e-12
-1.87789e-11 1.64549e-12 -1.39522e-10
7.94995e-12 -7.34628e-10 1.80637e-10
1.62017e-10 -7.53923e-11 3.43673e-11
-2.83029e-11 3.18651e-11 -4.29361e-11
9.30992e-11 2.37057e-10 -6.66224e-11
-6.35353e-10 3.07381e-10 3.77532e-10
1.16921e-10 3.03493e-10 1.09763e-11
-6.55544e-11 3.54739e-11 -1.52854e-10
-1.16289e-12 -8.80877e-13 5.20204e-13
-1.84683e-11 5.65579e-11 -5.06299e-11
2.68116e-11 1.08952e-10 -9.07083e-11
-2.36421e-11 -1.28947e-10 2.79876e-11
-5.09122e-11 2.68809e-11 -3.97782e-11
-6.59829e-12 -3.62106e-12 -2.34427e-13
7.04157e-11 -2.82598e-11 -6.33169e-12
1.54133e-12 6.31069e-13 8.10578e-14
-1.69894e-10 -8.78978e-11 7.19765e-11
2.63626e-11 -1.08112e-10 1.58748e-11
4.24123e-11 1.78786e-10 -1.3749e-10
-2.55452e-10 6.75406e-11 -2.78067e-11
-6.06725e-10 -1.30443e-09 -4.22735e-10
-8.06587e-10 -6.15643e-11 9.19219e-10
4.4185e-13 -5.66519e-13 6.56534e-14
3.22785e-12 1.19935e-10 -5.06557e-12
-8.19108e-10 -3.20341e-11 -8.91916e-11
7.56181e-13 -5.97001e-13 -9.93082e-13
4.08334e-10 1.4221e-10 1.28476e-10
4.72703e-10 -3.39799e-10 -9.76296e-10
9.25997e-12 -2.8481e-12 5.93647e-12
-9.85557e-11 -6.66627e-11 9.27987e-11
-9.07245e-11 1.72633e-10 5.66678e-11
9.84993e-11 5.62252e-10 3.86639e-10
7.95044e-14 -1.7988e-12 8.25261e-13
1.44144e-12 4.06176e-13 -2.02817e-13
-8.05282e-12 -4.29198e-12 -2.88213e-11
2.76128e-11 -3.86743e-10 7.38608e-11
-3.04308e-12 2.00096e-13 -5.19297e-13
3.57546e-11 1.0569e-10 1.13081e-10
2.54311e-10 -6.0332e-11 -1.78059e-10
7.53223e-11 1.06659e-10 -8.69921e-11
1.53951e-13 -1.84161e-13 -2.67345e-14
-1.75977e-10 5.81968e-11 -3.3641e-11
2.49239e-10 -2.17622e-11 4.70097e-12
1.26043e-10 -1.56957e-12 -1.39143e-10
1.03505e-12 -5.21413e-13 3.51195e-13
4.03608e-10 -1.05244e-10 4.94105e-11
2.3193e-10 -1.1908e-10 1.42757e-10
-1.85711e-10 -1.34066e-10 1.05031e-10
8.15503e-10 8.94067e-10 -1.97207e-10
-5.42613e-10 -6.11014e-11 1.33341e-10
9.3064e-13 1.15695e-12 -6.17918e-13
9.6737e-11 1.01448e-10 -1.07358e-10
1.63837e-11 -3.03686e-12 3.5163e-11
-2.16897e-10 -4.46974e-10 1.07607e-10