# vtk DataFile Version 3.0
LIGGGHTS particles timestep 17000000
ASCII
DATASET POLYDATA
POINTS 287 float
0.111977 0.0165493 0.00793363
0.112465 0.0176553 0.0072031
0.105733 0.0158465 0.00818699
0.112317 0.0178604 0.00707929
0.111861 0.0164377 0.00799745
0.117943 0.0167033 0.0076562
0.112053 0.0171808 0.00752777
0.111754 0.016025 0.00825831
0.118215 0.0178027 0.00709351
0.111989 0.0169331 0.00768433
0.112528 0.0178129 0.00709734
0.105937 0.0166563 0.00763751
0.111839 0.0163572 0.00805287
0.105663 0.0156485 0.0085145
0.112192 0.0173718 0.00740585
0.105644 0.0156184 0.00860792
0.111968 0.0168506 0.00773652
0.118088 0.0172316 0.00722642
0.111818 0.0162727 0.00810175
0.111956 0.0164667 0.00798581
0.112097 0.0173491 0.00742899
0.10614 0.0170944 0.00735893
0.118152 0.0175169 0.00716006
0.112032 0.0170983 0.00757996
0.118024 0.0169872 0.00738628
0.106022 0.0169842 0.00742512
0.112299 0.0177784 0.00713347
0.111796 0.0161901 0.00815393
0.112342 0.0175688 0.00726649
0.112075 0.0172634 0.00747559
0.112171 0.0172892 0.00745807
0.117964 0.0167743 0.00758872
0.111946 0.016768 0.0077887
0.112149 0.0172082 0.0075125
0.118255 0.0179935 0.00704903
0.112106 0.0170447 0.00762004
0.112278 0.0173246 0.00742843
0.118174 0.017612 0.00713794
0.111903 0.0166029 0.00789308
0.112117 0.017428 0.00737116
0.112299 0.017406 0.00737445
0.117984 0.0168453 0.00752124
0.118066 0.0171453 0.00727222
0.111925 0.0166854 0.00784089
0.11216 0.0175916 0.00726432
0.118045 0.0170619 0.00732309
0.112223 0.0178352 0.0071013
0.112203 0.0177536 0.0071555
0.105915 0.016575 0.00769161
0.118109 0.0173267 0.0072043
0.111935 0.0163842 0.008038
0.105694 0.0157085 0.0083264
0.112128 0.0171263 0.00756578
0.118005 0.0169161 0.00745381
0.112192 0.0169989 0.00764435
0.112213 0.0170803 0.00759039
0.111882 0.0165203 0.00794526
0.11232 0.0174874 0.00732046
0.112257 0.0176156 0.00724236
0.118131 0.0174217 0.00718221
0.106054 0.0167615 0.00756298
0.10599 0.0165175 0.00772528
0.112495 0.0177345 0.00715005
0.112396 0.0177572 0.00714128
0.112042 0.0167971 0.00777705
0.118195 0.0177073 0.00711576
0.105681 0.0156799 0.00842123
0.112365 0.0176527 0.00721078
0.11201 0.0170157 0.00763215
0.112214 0.0174523 0.00734961
0.106266 0.0176357 0.00713354
0.112332 0.0183636 0.00693585
0.105753 0.0159226 0.00812509
0.105958 0.0167376 0.00758341
0.112259 0.0180115 0.00701866
0.105894 0.0164936 0.0077457
0.106044 0.0170678 0.00737479
0.106085 0.0165409 0.00770523
0.118235 0.0178981 0.00707127
0.105867 0.0160283 0.00805034
0.112278 0.0176966 0.00718765
0.11217 0.0169175 0.00769833
0.112273 0.0180757 0.00694332
0.112323 0.018138 0.00700425
0.112441 0.0175743 0.00725692
0.105979 0.016819 0.00752935
0.112444 0.0180412 0.00695567
0.112366 0.0181023 0.00691979
0.112502 0.0183287 0.00694395
0.112413 0.0181019 0.00702881
0.112461 0.0181339 0.00692259
0.105851 0.016331 0.00785391
0.112292 0.0181696 0.00691458
0.106033 0.0166802 0.00761708
0.112399 0.0174115 0.00736487
0.105968 0.0164362 0.00777937
0.0643568 0.0187248 0.00531097
0.24257 0.0191927 0.00520306
0.106341 0.0175773 0.00716582
0.105811 0.0161677 0.00796235
0.106416 0.0175188 0.00719816
0.105772 0.0160043 0.00807084
0.112085 0.0169622 0.00767267
0.112182 0.0176749 0.00721356
0.112411 0.0187532 0.00697852
0.112447 0.0184922 0.00695591
0.105872 0.0164123 0.0077998
0.106742 0.0182199 0.00693101
0.10628 0.0173053 0.00727716
0.112235 0.0175337 0.00729561
0.112063 0.0168796 0.00772485
0.111914 0.0163016 0.00809024
0.105714 0.015778 0.00825719
0.112235 0.0171617 0.00753641
0.111775 0.0161076 0.00820612
0.111733 0.0159423 0.0083106
0.112392 0.0186557 0.00696786
0.105907 0.0161917 0.00794187
0.112348 0.0180186 0.00697501
0.111892 0.016219 0.00814236
0.112139 0.0175102 0.0073184
0.105831 0.0162494 0.0079081
0.11224 0.0179174 0.00704703
0.112431 0.018199 0.00701335
0.106162 0.0171832 0.00731857
0.106011 0.0165989 0.00767118
0.112334 0.0179558 0.00705433
0.112073 0.0165788 0.00792174
0.112257 0.017243 0.00748247
0.11187 0.0161365 0.00819455
0.105848 0.0159467 0.00810456
0.112352 0.018461 0.00694652
0.11202 0.0167145 0.00782925
0.112467 0.0185898 0.00696661
0.105887 0.01611 0.0079961
0.106301 0.0173957 0.00724028
0.105792 0.016086 0.0080166
0.106258 0.0172149 0.00731404
0.106107 0.0166223 0.00765106
0.105827 0.0158651 0.00815876
0.106109 0.0173316 0.00724956
0.112427 0.0183948 0.00694524
0.106149 0.016785 0.00754286
0.10653 0.0176421 0.00715591
0.105947 0.0163548 0.00783349
0.106227 0.0174543 0.00720794
0.106287 0.0177262 0.00709647
0.106205 0.0173643 0.00724563
0.0219312 0.0187687 0.00551176
0.10631 0.0176963 0.00720959
0.112415 0.0178392 0.0070871
0.106172 0.0176031 0.00713854
0.10613 0.017422 0.00721268
0.106458 0.0181249 0.006948
0.106616 0.0179094 0.0070489
0.112031 0.0164136 0.00802616
0.106128 0.0167037 0.00759696
0.106436 0.0176095 0.007161
0.106647 0.0181883 0.00693667
0.106456 0.0177006 0.0071236
0.112052 0.0164961 0.00797397
0.106572 0.0178256 0.00708083
0.112538 0.0180663 0.00693269
0.106381 0.0177592 0.00709126
0.100119 0.0173578 0.00719482
0.106184 0.0172735 0.0072817
0.106212 0.0177913 0.00708731
0.106699 0.0181097 0.00697045
0.106604 0.0180811 0.00698672
0.106163 0.0175849 0.00724377
0.111999 0.0166319 0.00788144
0.106362 0.0176679 0.00712871
0.112504 0.0179721 0.00699573
0.106087 0.0172412 0.00728646
0.106164 0.0174906 0.00727704
0.112377 0.0173301 0.00741884
0.112386 0.0182001 0.00692389
0.11242 0.0174929 0.00731089
0.100255 0.0175793 0.00713994
0.112372 0.0185584 0.00695719
0.106375 0.0173362 0.00727293
0.112146 0.0168318 0.00775529
0.106192 0.0169477 0.00743466
0.106651 0.0179968 0.00701451
0.105627 0.0155884 0.00870177
0.10018 0.017643 0.00712433
0.106001 0.016901 0.00747632
0.106152 0.0175123 0.0071758
0.106118 0.0170089 0.00740625
0.106575 0.0182575 0.00693987
0.106396 0.017428 0.00723537
0.112542 0.0185234 0.00696529
0.106097 0.0169243 0.00745491
0.106402 0.0180666 0.00706549
0.106404 0.0178494 0.00705456
0.105927 0.0162733 0.00788766
0.106247 0.017545 0.00717075
0.106171 0.0168663 0.00748876
0.112271 0.017923 0.00714195
0.112482 0.0182313 0.0069333
0.106478 0.0177909 0.00708686
0.112356 0.0172486 0.00747285
0.112576 0.0182621 0.0069426
0.100235 0.0174842 0.00716344
0.106191 0.0176939 0.00710128
0.112095 0.0166615 0.00786853
0.10632 0.0179085 0.00702107
0.112407 0.0182975 0.00693456
0.106238 0.0177575 0.00717775
0.100131 0.0170213 0.00730977
0.11212 0.016746 0.00781236
0.106322 0.0174865 0.00720308
0.106065 0.0171508 0.0073233
0.112425 0.0179224 0.00703263
0.106553 0.0177324 0.00711916
0.100195 0.0172941 0.00721044
0.100139 0.0174529 0.00717132
0.106207 0.0176671 0.00720765
0.1065 0.0183238 0.00694325
0.100099 0.0172628 0.00721831
0.106064 0.0164595 0.00775935
0.106214 0.0170337 0.00738793
0.112312 0.0182656 0.00693393
0.10639 0.018652 0.00694546
0.10652 0.0184217 0.00694096
0.10654 0.0185197 0.00693868
0.0999096 0.0165519 0.00770891
0.0999723 0.0167753 0.00751878
0.0998887 0.0164774 0.00777228
0.106331 0.0171554 0.00734669
0.106075 0.0168429 0.00750888
0.0999305 0.0166263 0.00764553
0.100056 0.0170732 0.00726528
0.106346 0.0180063 0.0070083
0.106669 0.0182891 0.0069342
0.1002 0.0177382 0.00710117
0.106304 0.0178173 0.00705881
0.112522 0.018426 0.00695462
0.100241 0.0179285 0.007055
0.100174 0.0171991 0.00723393
0.100035 0.0169987 0.0073287
0.105807 0.0157837 0.0082129
0.106421 0.0179404 0.00701695
0.106271 0.0180704 0.00699364
0.106318 0.0180064 0.00710408
0.100261 0.0180237 0.00703192
0.106236 0.0171248 0.00735146
0.106445 0.0184879 0.00694435
0.106595 0.0183554 0.00693758
0.100015 0.016924 0.0073922
0.10629 0.0181615 0.00695692
0.10016 0.017548 0.00714782
0.106511 0.0175511 0.00719323
0.106385 0.018194 0.00695131
0.106283 0.0176057 0.00724167
0.106252 0.0179807 0.00703335
0.112556 0.0181647 0.00693191
0.106498 0.0178842 0.00704848
0.1003 0.0182142 0.0069857
0.10633 0.0183576 0.00695233
0.100281 0.0181188 0.00700883
0.106366 0.0180998 0.0069784
0.106232 0.0178866 0.00706287
0.10635 0.018456 0.00695003
0.106439 0.0180315 0.0069794
0.100077 0.017168 0.00724175
0.100276 0.0176744 0.00711672
0.106309 0.0170648 0.00738363
0.100152 0.0171038 0.00725749
0.0999514 0.0167008 0.00758215
0.106425 0.01839 0.00694664
0.106405 0.018292 0.00694892
0.10631 0.0182595 0.00695463
0.10648 0.0182257 0.00694553
0.106373 0.018402 0.00703105
0.106287 0.0169745 0.00742048
0.106353 0.0172458 0.00730981
0.106553 0.0181567 0.00694679
0.106042 0.0163782 0.00781345
0.106515 0.0179754 0.00701086
0.10637 0.018554 0.00694774
0.100215 0.0173892 0.00718694
0.106465 0.0185859 0.00694206
0.112334 0.0171673 0.00752679
0.0999932 0.0168498 0.0074554
0.10022 0.0178333 0.00707808
0.112546 0.0178949 0.00704315

VERTICES 287 574
1 0
1 1
1 2
1 3
1 4
1 5
1 6
1 7
1 8
1 9
1 10
1 11
1 12
1 13
1 14
1 15
1 16
1 17
1 18
1 19
1 20
1 21
1 22
1 23
1 24
1 25
1 26
1 27
1 28
1 29
1 30
1 31
1 32
1 33
1 34
1 35
1 36
1 37
1 38
1 39
1 40
1 41
1 42
1 43
1 44
1 45
1 46
1 47
1 48
1 49
1 50
1 51
1 52
1 53
1 54
1 55
1 56
1 57
1 58
1 59
1 60
1 61
1 62
1 63
1 64
1 65
1 66
1 67
1 68
1 69
1 70
1 71
1 72
1 73
1 74
1 75
1 76
1 77
1 78
1 79
1 80
1 81
1 82
1 83
1 84
1 85
1 86
1 87
1 88
1 89
1 90
1 91
1 92
1 93
1 94
1 95
1 96
1 97
1 98
1 99
1 100
1 101
1 102
1 103
1 104
1 105
1 106
1 107
1 108
1 109
1 110
1 111
1 112
1 113
1 114
1 115
1 116
1 117
1 118
1 119
1 120
1 121
1 122
1 123
1 124
1 125
1 126
1 127
1 128
1 129
1 130
1 131
1 132
1 133
1 134
1 135
1 136
1 137
1 138
1 139
1 140
1 141
1 142
1 143
1 144
1 145
1 146
1 147
1 148
1 149
1 150
1 151
1 152
1 153
1 154
1 155
1 156
1 157
1 158
1 159
1 160
1 161
1 162
1 163
1 164
1 165
1 166
1 167
1 168
1 169
1 170
1 171
1 172
1 173
1 174
1 175
1 176
1 177
1 178
1 179
1 180
1 181
1 182
1 183
1 184
1 185
1 186
1 187
1 188
1 189
1 190
1 191
1 192
1 193
1 194
1 195
1 196
1 197
1 198
1 199
1 200
1 201
1 202
1 203
1 204
1 205
1 206
1 207
1 208
1 209
1 210
1 211
1 212
1 213
1 214
1 215
1 216
1 217
1 218
1 219
1 220
1 221
1 222
1 223
1 224
1 225
1 226
1 227
1 228
1 229
1 230
1 231
1 232
1 233
1 234
1 235
1 236
1 237
1 238
1 239
1 240
1 241
1 242
1 243
1 244
1 245
1 246
1 247
1 248
1 249
1 250
1 251
1 252
1 253
1 254
1 255
1 256
1 257
1 258
1 259
1 260
1 261
1 262
1 263
1 264
1 265
1 266
1 267
1 268
1 269
1 270
1 271
1 272
1 273
1 274
1 275
1 276
1 277
1 278
1 279
1 280
1 281
1 282
1 283
1 284
1 285
1 286

POINT_DATA 287
SCALARS id int 1
LOOKUP_TABLE default
1
2
3
4
5
6
7
8
9
10
11
12
13
14
15
16
17
18
19
21
22
23
24
25
26
27
28
29
30
31
32
33
34
35
36
37
38
39
41
42
44
45
46
47
48
49
50
51
52
53
54
55
56
57
59
60
61
62
63
64
65
66
67
68
69
70
71
72
73
74
76
77
78
79
80
81
82
83
84
85
86
87
88
89
90
91
92
93
94
95
96
97
98
99
100
101
102
103
104
105
106
107
108
109
110
111
112
113
114
115
116
117
118
119
120
121
122
123
124
125
126
127
128
129
130
131
132
133
134
135
136
137
138
140
141
142
143
144
146
147
148
149
150
151
153
154
155
156
157
158
159
160
162
164
165
166
167
168
169
170
171
172
173
174
175
176
177
178
179
181
182
183
184
185
186
187
188
189
190
191
192
193
194
195
196
197
198
199
200
201
202
203
204
205
206
207
208
209
210
211
212
213
214
215
216
217
218
219
220
221
222
223
224
225
226
227
228
229
230
231
232
233
234
235
236
237
239
240
241
242
243
244
246
247
248
249
250
251
252
253
254
255
256
257
258
259
260
261
262
263
264
265
266
267
268
269
270
271
272
273
274
275
276
277
278
279
280
281
282
283
284
285
286
287
288
289
290
291
292
293
294
295
296
297
298
299
300

SCALARS type int 1
LOOKUP_TABLE default
1
1
1
1
1
1
1
1
1
1
1
1
1
1
1
1
1
1
1
1
1
1
1
1
1
1
1
1
1
1
1
1
1
1
1
1
1
1
1
1
1
1
1
1
1
1
1
1
1
1
1
1
1
1
1
1
1
1
1
1
1
1
1
1
1
1
1
1
1
1
1
1
1
1
1
1
1
1
1
1
1
1
1
1
1
1
1
1
1
1
1
1
1
1
1
1
1
1
1
1
1
1
1
1
1
1
1
1
1
1
1
1
1
1
1
1
1
1
1
1
1
1
1
1
1
1
1
1
1
1
1
1
1
1
1
1
1
1
1
1
1
1
1
1
1
1
1
1
1
1
1
1
1
1
1
1
1
1
1
1
1
1
1
1
1
1
1
1
1
1
1
1
1
1
1
1
1
1
1
1
1
1
1
1
1
1
1
1
1
1
1
1
1
1
1
1
1
1
1
1
1
1
1
1
1
1
1
1
1
1
1
1
1
1
1
1
1
1
1
1
1
1
1
1
1
1
1
1
1
1
1
1
1
1
1
1
1
1
1
1
1
1
1
1
1
1
1
1
1
1
1
1
1
1
1
1
1
1
1
1
1
1
1
1
1
1
1
1
1
1
1
1
1
1
1
1
1
1
1
1
1
1
1
1
1
1
1

SCALARS radius float 1
LOOKUP_TABLE default
5e-05
5e-05
5e-05
5e-05
5e-05
5e-05
5e-05
5e-05
5e-05
5e-05
5e-05
5e-05
5e-05
5e-05
5e-05
5e-05
5e-05
5e-05
5e-05
5e-05
5e-05
5e-05
5e-05
5e-05
5e-05
5e-05
5e-05
5e-05
5e-05
5e-05
5e-05
5e-05
5e-05
5e-05
5e-05
5e-05
5e-05
5e-05
5e-05
5e-05
5e-05
5e-05
5e-05
5e-05
5e-05
5e-05
5e-05
5e-05
5e-05
5e-05
5e-05
5e-05
5e-05
5e-05
5e-05
5e-05
5e-05
5e-05
5e-05
5e-05
5e-05
5e-05
5e-05
5e-05
5e-05
5e-05
5e-05
5e-05
5e-05
5e-05
5e-05
5e-05
5e-05
5e-05
5e-05
5e-05
5e-05
5e-05
5e-05
5e-05
5e-05
5e-05
5e-05
5e-05
5e-05
5e-05
5e-05
5e-05
5e-05
5e-05
5e-05
5e-05
5e-05
5e-05
5e-05
5e-05
5e-05
5e-05
5e-05
5e-05
5e-05
5e-05
5e-05
5e-05
5e-05
5e-05
5e-05
5e-05
5e-05
5e-05
5e-05
5e-05
5e-05
5e-05
5e-05
5e-05
5e-05
5e-05
5e-05
5e-05
5e-05
5e-05
5e-05
5e-05
5e-05
5e-05
5e-05
5e-05
5e-05
5e-05
5e-05
5e-05
5e-05
5e-05
5e-05
5e-05
5e-05
5e-05
5e-05
5e-05
5e-05
5e-05
5e-05
5e-05
5e-05
5e-05
5e-05
5e-05
5e-05
5e-05
5e-05
5e-05
5e-05
5e-05
5e-05
5e-05
5e-05
5e-05
5e-05
5e-05
5e-05
5e-05
5e-05
5e-05
5e-05
5e-05
5e-05
5e-05
5e-05
5e-05
5e-05
5e-05
5e-05
5e-05
5e-05
5e-05
5e-05
5e-05
5e-05
5e-05
5e-05
5e-05
5e-05
5e-05
5e-05
5e-05
5e-05
5e-05
5e-05
5e-05
5e-05
5e-05
5e-05
5e-05
5e-05
5e-05
5e-05
5e-05
5e-05
5e-05
5e-05
5e-05
5e-05
5e-05
5e-05
5e-05
5e-05
5e-05
5e-05
5e-05
5e-05
5e-05
5e-05
5e-05
5e-05
5e-05
5e-05
5e-05
5e-05
5e-05
5e-05
5e-05
5e-05
5e-05
5e-05
5e-05
5e-05
5e-05
5e-05
5e-05
5e-05
5e-05
5e-05
5e-05
5e-05
5e-05
5e-05
5e-05
5e-05
5e-05
5e-05
5e-05
5e-05
5e-05
5e-05
5e-05
5e-05
5e-05
5e-05
5e-05
5e-05
5e-05
5e-05
5e-05
5e-05
5e-05
5e-05
5e-05
5e-05
5e-05
5e-05
5e-05
5e-05
5e-05
5e-05
5e-05
5e-05
5e-05
5e-05
5e-05
5e-05
5e-05
5e-05
5e-05
5e-05
5e-05
5e-05
5e-05
5e-05
5e-05
5e-05
5e-05
5e-05
5e-05
5e-05
5e-05
5e-05

SCALARS mass float 1
LOOKUP_TABLE default
1.46608e-10
1.46608e-10
1.46608e-10
1.46608e-10
1.46608e-10
1.46608e-10
1.46608e-10
1.46608e-10
1.46608e-10
1.46608e-10
1.46608e-10
1.46608e-10
1.46608e-10
1.46608e-10
1.46608e-10
1.46608e-10
1.46608e-10
1.46608e-10
1.46608e-10
1.46608e-10
1.46608e-10
1.46608e-10
1.46608e-10
1.46608e-10
1.46608e-10
1.46608e-10
1.46608e-10
1.46608e-10
1.46608e-10
1.46608e-10
1.46608e-10
1.46608e-10
1.46608e-10
1.46608e-10
1.46608e-10
1.46608e-10
1.46608e-10
1.46608e-10
1.46608e-10
1.46608e-10
1.46608e-10
1.46608e-10
1.46608e-10
1.46608e-10
1.46608e-10
1.46608e-10
1.46608e-10
1.46608e-10
1.46608e-10
1.46608e-10
1.46608e-10
1.46608e-10
1.46608e-10
1.46608e-10
1.46608e-10
1.46608e-10
1.46608e-10
1.46608e-10
1.46608e-10
1.46608e-10
1.46608e-10
1.46608e-10
1.46608e-10
1.46608e-10
1.46608e-10
1.46608e-10
1.46608e-10
1.46608e-10
1.46608e-10
1.46608e-10
1.46608e-10
1.46608e-10
1.46608e-10
1.46608e-10
1.46608e-10
1.46608e-10
1.46608e-10
1.46608e-10
1.46608e-10
1.46608e-10
1.46608e-10
1.46608e-10
1.46608e-10
1.46608e-10
1.46608e-10
1.46608e-10
1.46608e-10
1.46608e-10
1.46608e-10
1.46608e-10
1.46608e-10
1.46608e-10
1.46608e-10
1.46608e-10
1.46608e-10
1.46608e-10
1.46608e-10
1.46608e-10
1.46608e-10
1.46608e-10
1.46608e-10
1.46608e-10
1.46608e-10
1.46608e-10
1.46608e-10
1.46608e-10
1.46608e-10
1.46608e-10
1.46608e-10
1.46608e-10
1.46608e-10
1.46608e-10
1.46608e-10
1.46608e-10
1.46608e-10
1.46608e-10
1.46608e-10
1.46608e-10
1.46608e-10
1.46608e-10
1.46608e-10
1.46608e-10
1.46608e-10
1.46608e-10
1.46608e-10
1.46608e-10
1.46608e-10
1.46608e-10
1.46608e-10
1.46608e-10
1.46608e-10
1.46608e-10
1.46608e-10
1.46608e-10
1.46608e-10
1.46608e-10
1.46608e-10
1.46608e-10
1.46608e-10
1.46608e-10
1.46608e-10
1.46608e-10
1.46608e-10
1.46608e-10
1.46608e-10
1.46608e-10
1.46608e-10
1.46608e-10
1.46608e-10
1.46608e-10
1.46608e-10
1.46608e-10
1.46608e-10
1.46608e-10
1.46608e-10
1.46608e-10
1.46608e-10
1.46608e-10
1.46608e-10
1.46608e-10
1.46608e-10
1.46608e-10
1.46608e-10
1.46608e-10
1.46608e-10
1.46608e-10
1.46608e-10
1.46608e-10
1.46608e-10
1.46608e-10
1.46608e-10
1.46608e-10
1.46608e-10
1.46608e-10
1.46608e-10
1.46608e-10
1.46608e-10
1.46608e-10
1.46608e-10
1.46608e-10
1.46608e-10
1.46608e-10
1.46608e-10
1.46608e-10
1.46608e-10
1.46608e-10
1.46608e-10
1.46608e-10
1.46608e-10
1.46608e-10
1.46608e-10
1.46608e-10
1.46608e-10
1.46608e-10
1.46608e-10
1.46608e-10
1.46608e-10
1.46608e-10
1.46608e-10
1.46608e-10
1.46608e-10
1.46608e-10
1.46608e-10
1.46608e-10
1.46608e-10
1.46608e-10
1.46608e-10
1.46608e-10
1.46608e-10
1.46608e-10
1.46608e-10
1.46608e-10
1.46608e-10
1.46608e-10
1.46608e-10
1.46608e-10
1.46608e-10
1.46608e-10
1.46608e-10
1.46608e-10
1.46608e-10
1.46608e-10
1.46608e-10
1.46608e-10
1.46608e-10
1.46608e-10
1.46608e-10
1.46608e-10
1.46608e-10
1.46608e-10
1.46608e-10
1.46608e-10
1.46608e-10
1.46608e-10
1.46608e-10
1.46608e-10
1.46608e-10
1.46608e-10
1.46608e-10
1.46608e-10
1.46608e-10
1.46608e-10
1.46608e-10
1.46608e-10
1.46608e-10
1.46608e-10
1.46608e-10
1.46608e-10
1.46608e-10
1.46608e-10
1.46608e-10
1.46608e-10
1.46608e-10
1.46608e-10
1.46608e-10
1.46608e-10
1.46608e-10
1.46608e-10
1.46608e-10
1.46608e-10
1.46608e-10
1.46608e-10
1.46608e-10
1.46608e-10
1.46608e-10
1.46608e-10
1.46608e-10
1.46608e-10
1.46608e-10
1.46608e-10
1.46608e-10
1.46608e-10
1.46608e-10
1.46608e-10
1.46608e-10
1.46608e-10
1.46608e-10
1.46608e-10
1.46608e-10
1.46608e-10
1.46608e-10
1.46608e-10
1.46608e-10
1.46608e-10
1.46608e-10
1.46608e-10
1.46608e-10

VECTORS velocity float
0.005667 -0.000286025 0.000618692
0.0060251 1.14559e-05 -0.000371903
0.00559649 -8.56058e-05 4.57814e-06
0.00595213 -0.000621722 3.60939e-05
0.00563914 -0.000278037 0.000610149
0.00601434 -0.000187234 -0.000342787
0.00591614 -0.000283291 0.000638475
0.00553019 -0.000266222 0.000596157
0.0057388 8.1139e-05 0.000190139
0.0057564 -0.000293677 0.000630321
0.00690982 -0.000288011 -0.000229005
0.00605162 -0.000310291 -0.000101949
0.00560599 -0.000276886 0.000603803
0.0053699 0.000358698 0.000167487
0.00588285 -0.00066897 1.28169e-05
0.00531444 0.000353037 0.000130936
0.00574283 -0.000294284 0.000627206
0.00628973 -2.11939e-05 0.000238767
0.00559576 -0.000271115 0.000603098
0.00564582 -0.00028671 0.000618585
0.00586801 -0.000371106 0.000461024
0.00613125 1.69477e-05 0.000455386
0.00620838 -1.08474e-05 0.000229584
0.00583788 -0.000279523 0.000623746
0.00620505 -0.000286375 -0.000268551
0.00611148 -7.05415e-05 0.000241132
0.00600078 -0.00060746 3.68165e-05
0.005565 -0.00027407 0.000601592
0.00606925 -0.000607805 3.21468e-05
0.00589852 -0.000265481 0.00064079
0.00590045 -0.000755412 -5.63197e-05
0.00605979 -0.000212159 -0.000325826
0.00572769 -0.000282849 0.000622473
0.00583376 -0.000773078 -5.35616e-05
0.00572557 2.52917e-05 0.000203674
0.00583642 -0.000532482 0.00025365
0.00591682 -0.000596556 4.38524e-05
0.0061921 1.53612e-06 0.000226185
0.00567909 -0.000282747 0.000617296
0.00584561 -0.000672785 4.05757e-05
0.00592514 -0.000570587 4.05951e-06
0.00610207 -0.000247731 -0.000302813
0.00625584 -0.000162328 -2.07947e-05
0.00570015 -0.00028172 0.00061825
0.00592943 -0.000955048 -0.000361476
0.0061845 -0.000313039 -0.000288975
0.00587414 -0.000803176 -0.000107056
0.0059597 -0.000911074 -0.000226262
0.00601455 -0.000331936 -8.69338e-05
0.00626629 -2.42739e-05 0.000236783
0.00562291 -0.000290934 0.000620166
0.00558498 0.000326216 0.000285566
0.00594508 -0.000689494 0.000135035
0.00619091 -0.000276913 -0.000271208
0.00579937 -0.000648666 7.16951e-05
0.00581042 -0.000643345 6.66121e-05
0.00566283 -0.000279992 0.000615494
0.00601522 -0.000583885 1.60598e-05
0.00600077 -0.000787282 -8.69529e-05
0.00621388 -1.85404e-05 0.000232734
0.00607891 -0.000305831 -0.000118803
0.00600482 -0.000316785 -9.66592e-05
0.0063285 -9.52306e-05 -0.000320497
0.00607932 -0.000295712 -0.000173864
0.00575413 -0.000276061 0.000617947
0.00586957 6.32562e-05 0.000198395
0.00556029 0.000319818 0.000250181
0.00606914 -0.000463843 -6.47718e-05
0.00580028 -0.000282079 0.000630656
0.00588581 -0.000764884 -0.000145869
0.00568884 0.000186389 0.000458943
0.00551073 -0.000586969 0.000316524
0.00559213 -0.000196346 -7.59635e-05
0.00607591 -0.000307827 -0.000113612
0.00563901 -0.000624981 0.000125507
0.00598849 -0.000357285 -7.01976e-05
0.00614684 6.29637e-05 0.000460089
0.00604818 -0.000305228 -0.000107253
0.0056958 5.29363e-05 0.000197009
0.00574929 -0.000301192 -9.24674e-05
0.00599611 -0.000624642 2.4269e-05
0.00575673 -0.000651288 7.4332e-05
0.00574348 -0.000724238 2.51563e-05
0.00558581 -0.00066999 0.000273783
0.00600902 4.07423e-05 -0.000388375
0.0060696 -0.000330202 -0.000146307
0.00570508 -0.00066024 0.000203306
0.00573483 -0.000600735 4.35163e-05
0.00556559 -0.000551696 0.000320832
0.00566096 -0.000602961 0.000125467
0.00558361 -0.000569139 0.000330894
0.00586188 -0.000444428 -7.01333e-06
0.0055105 -0.00059613 0.000315165
0.00608176 -0.00029929 -0.00010972
0.00584417 0.000114759 -0.000426338
0.00598114 -0.000332315 -8.62201e-05
4.16394e-15 1.05523e-14 8.29586e-14
-3.43631e-22 2.24983e-22 -5.81428e-22
0.00583657 1.48646e-05 0.000551283
0.00558794 -0.000412519 -6.9558e-06
0.00582506 0.000110931 0.000506219
0.00555728 -0.000265825 -0.000107859
0.00576685 -0.000314462 0.000634905
0.00595801 -0.000949602 -0.000297054
0.00533543 -0.000549743 0.000306529
0.00551179 -0.000573493 0.000314861
0.00596513 -0.000413032 -3.29266e-05
0.00555372 -0.000146741 -0.000306637
0.00605501 9.8753e-05 0.000531084
0.005964 -0.00066029 7.14119e-05
0.00571476 -0.000305272 0.000626621
0.00560069 -0.00029278 0.000617951
0.00558818 0.000167355 0.000183476
0.0058712 -0.000641257 5.69143e-05
0.00554577 -0.000274037 0.000601233
0.00532464 -0.000236047 0.000559957
0.00549551 -0.000584328 0.000313665
0.00573253 -0.000284397 -0.000106838
0.00568857 -0.000747743 0.000181408
0.00557444 -0.000297172 0.000617648
0.00587586 -0.000895255 -0.000297954
0.00568396 -0.000441234 -8.41171e-07
0.00558852 -0.000630533 7.42079e-05
0.00558742 -0.000559742 0.000324836
0.00616454 9.63509e-05 0.000577858
0.00604861 -0.000308339 -0.000104686
0.00573883 -0.000594431 7.42966e-05
0.0056659 -0.000296719 0.000625411
0.00595489 -0.000632762 5.01154e-05
0.0055479 -0.000300472 0.000619595
0.00561283 -0.00029554 -0.000108071
0.00550625 -0.000589783 0.000313835
0.00571521 -0.000280729 0.000615994
0.0055069 -0.000571845 0.00031605
0.0058082 -0.000300553 -9.20101e-05
0.00593624 0.000152283 0.000500371
0.00554658 -0.000341876 -7.04588e-05
0.00603449 0.00015458 0.000511397
0.00603529 -0.000337027 -8.61166e-05
0.00553233 -0.000253802 -0.000115949
0.006167 4.18041e-05 0.000537123
0.00553866 -0.000575663 0.000318156
0.00602554 -0.000334216 -7.25004e-05
0.00583577 0.000118976 0.000505338
0.00583673 -0.000299853 -9.91024e-05
0.00590766 0.000138852 0.000506773
0.00576422 0.000172432 0.000485089
0.0061332 9.93283e-05 0.000524899
-3.82051e-14 8.16695e-14 2.95903e-13
0.00574853 0.000152439 0.00048937
0.00599671 -0.000291739 -0.000169735
0.00567754 6.99151e-05 0.000508341
0.006162 3.40309e-05 0.000566754
0.00561256 -0.00011853 -0.00031686
0.00563465 0.000141718 0.000476681
0.00562211 -0.000300245 0.000624959
0.00607313 -0.000339116 -8.70639e-05
0.0058155 0.000115767 0.000501875
0.00555605 -0.000140354 -0.000310244
0.00582515 -3.72832e-05 0.000574825
0.00564445 -0.000299784 0.000626172
0.00580905 5.57619e-05 0.000528669
0.00567916 -0.000592887 2.57466e-05
0.00578388 6.00402e-05 0.000524694
0.00576457 0.000179001 -5.32878e-05
0.0061373 0.000108309 0.000521661
0.00580042 0.000253468 0.000430507
0.0055886 0.000202822 0.000433402
0.0055863 0.000115873 0.000147392
0.00580494 0.000233659 0.000493078
0.00568383 -0.000287276 0.000621649
0.00575494 9.24625e-05 0.000508077
0.00607644 -0.000506659 -3.10254e-05
0.00617338 7.30569e-05 0.000532358
0.0058937 0.000250618 0.000509749
0.00583253 0.000133618 -0.000438211
0.00555529 -0.000575016 0.000320475
0.00590607 8.11313e-05 -0.000408681
0.00573275 0.000163078 -5.09679e-05
0.0054965 -0.000588338 0.00031329
0.00563545 0.000199324 0.00045115
0.00710928 0.00105282 -0.00110178
0.00609622 -0.00034653 -0.000258673
0.00553375 0.000183469 0.000452996
0.00549483 0.000295878 0.000295941
0.00574565 0.000174049 -6.49383e-05
0.00609561 -0.000254026 -2.62472e-05
0.00587938 0.000121997 0.00051247
0.00608388 -0.00025838 -3.82093e-05
0.00557145 -0.000133946 -0.000309525
0.00583188 0.000318976 0.000417131
0.00552569 -0.000546508 0.000319395
0.00608568 -0.00037962 -0.000223596
0.00549186 0.000435103 0.000203947
0.00583703 3.25522e-05 0.000542703
0.00569059 -0.000271565 -0.000110475
0.00572134 0.000188313 0.000468424
0.00606799 -0.000352781 -7.78232e-05
0.00602501 -0.00040026 -0.000116062
0.00557463 -0.000555731 0.000335556
0.00581502 3.14805e-06 0.000554136
0.00586448 0.000135047 -0.000441135
0.0055793 -0.000525678 0.000325334
0.00571727 0.000164634 -4.8574e-05
0.00574036 0.000127903 0.000492885
0.00637738 -3.88957e-05 -0.000356375
0.00576502 0.000203079 0.000467606
0.00554358 -0.000569237 0.000322367
0.00584525 0.000345371 0.000500104
0.00634967 4.95258e-05 -1.91114e-05
0.00685315 0.000480464 -0.000723462
0.00578608 0.000272905 0.000442012
0.00618646 9.62098e-05 0.000533589
0.00580901 -0.000260007 -0.000181059
0.00583589 9.09899e-05 0.000516798
0.00574275 0.000156639 -4.74771e-05
0.00571617 0.000189556 -5.47226e-05
0.0058568 0.000287004 0.000521227
0.00556929 -0.00013586 -0.000310185
0.00624404 7.63722e-05 -3.03768e-05
0.00594447 -0.00033453 -8.18148e-05
0.00597068 -7.45275e-05 0.000560677
0.00550951 -0.000589669 0.000318298
0.0054566 -2.64172e-05 -0.000303138
0.00556958 -0.000141265 -0.000308147
0.00537481 -7.23873e-05 -0.000299215
0.00611095 7.2331e-05 -3.74576e-05
0.00622005 3.98571e-05 -1.53341e-05
0.00605789 7.47447e-05 -4.18279e-05
0.00596317 0.0001215 0.000522221
0.00605739 -0.000318902 -0.000134585
0.00615513 5.59699e-05 -2.44123e-05
0.0063734 4.14391e-05 -1.05909e-05
0.00583752 -1.80516e-06 0.000399084
0.00557103 -0.000124345 -0.000309389
0.00577471 0.000174002 -3.87467e-05
0.00582996 0.000192012 0.00047615
0.00554644 -0.000549266 0.000320565
0.00581685 0.000166613 -3.50789e-05
0.00620966 5.99698e-05 -2.45393e-05
0.00634196 3.57275e-05 -9.71523e-06
0.00544704 -0.000218075 -0.000120741
0.00585173 3.16135e-05 0.000545865
0.00581256 -8.12032e-05 5.77169e-05
0.00577375 0.000331383 0.000414165
0.00583731 0.000168459 -3.53005e-05
0.00611894 -0.000110828 -4.21483e-05
0.00559344 -0.000122799 -0.000310584
0.00555414 -0.000144412 -0.000308765
0.00626991 4.572e-05 -1.78037e-05
0.00556245 -0.000206351 -0.000303482
0.00573176 0.00018333 -5.49367e-05
0.00594386 0.000246695 0.000461514
0.00560215 -0.00013407 -0.000211619
0.00576167 0.000141924 0.000467708
0.00574801 0.000157683 0.000487777
0.00558471 -0.000554827 0.000332235
0.00580007 -3.99752e-06 0.000555909
0.00562774 0.000211754 -4.68574e-05
0.005578 -0.000144358 -0.000311977
0.00585899 0.000176039 -3.64798e-05
0.00573489 -8.70431e-05 6.73856e-05
0.00581038 0.000216222 0.00044239
0.00558012 -0.000161653 -0.000311419
0.00587583 5.44123e-05 0.00053721
0.00632538 4.91499e-05 -2.38144e-05
0.00576419 0.00016236 -3.27762e-05
0.00606768 0.000128866 0.000516604
0.00633603 5.47599e-05 -2.1198e-05
0.00616953 3.4164e-05 -1.32772e-05
0.0055734 -0.000138584 -0.000312768
0.00557568 -0.000135521 -0.000310259
0.00559212 -0.000108985 -0.000301989
0.00558076 -0.000122334 -0.000298763
0.00557011 -0.000170241 -0.000321604
0.00606448 0.000133293 0.00051534
0.00578761 0.000214129 0.000459228
0.00556882 -0.000116284 -0.000253124
0.00583432 -0.000298886 -0.000100219
0.00590584 6.8856e-05 0.000535066
0.00562105 -8.04051e-05 -0.000313818
0.00569446 0.000167579 -5.02361e-05
0.00540757 -4.69591e-05 -0.000301684
0.00578366 0.000156314 -0.00044927
0.00625774 5.11525e-05 -1.87587e-05
0.00579442 0.000170181 -3.52986e-05
0.00677357 -0.000263449 -0.000239344

VECTORS force float
-9.19786e-11 -4.83779e-11 2.52622e-11
1.29792e-11 -2.9131e-10 1.98018e-10
-9.08869e-10 -1.00277e-10 5.93476e-10
-6.67256e-10 5.84236e-10 -5.15583e-10
-2.65086e-11 8.83045e-11 -9.16765e-11
-4.20201e-10 -6.09249e-10 6.53227e-10
6.67467e-11 1.69186e-10 -1.29569e-10
-4.90912e-11 6.13831e-12 1.36262e-11
2.8212e-10 2.38583e-10 -3.36335e-12
-1.4374e-10 -2.28659e-11 1.06269e-10
-2.23526e-10 -2.89075e-10 1.9888e-10
-3.47537e-10 -8.16467e-11 4.71172e-11
5.62424e-11 1.60878e-10 2.53508e-12
4.86086e-10 3.65604e-10 -1.2742e-09
-3.73981e-10 -5.43601e-11 1.51123e-11
3.72092e-10 -3.4159e-10 1.24688e-09
1.30907e-10 2.99576e-11 -3.90047e-11
-2.87411e-10 -1.8973e-10 8.30678e-13
-6.39152e-11 4.79435e-11 4.56919e-11
-1.95113e-11 -2.46461e-11 1.81157e-11
-5.14873e-11 -3.26999e-10 -3.6008e-10
3.06908e-10 1.8317e-10 2.82359e-10
1.9812e-10 1.14461e-10 -1.49913e-11
1.40931e-10 3.86954e-11 -1.55979e-10
-7.36136e-11 -2.73422e-10 -1.14856e-10
-4.61717e-10 -5.04158e-10 -1.08723e-09
-4.92843e-10 -6.18469e-10 1.00431e-10
-5.44693e-11 -1.16413e-10 8.22904e-11
5.55521e-11 2.60661e-11 9.6119e-11
-7.36934e-11 1.71543e-10 -2.47565e-10
-2.18756e-10 4.94725e-12 -5.94239e-10
4.61087e-11 -7.27379e-10 5.55335e-10
-5.20353e-11 7.16832e-11 -1.48294e-11
-2.21607e-11 -1.45797e-10 -1.04463e-09
-1.06901e-10 1.33702e-10 -3.31419e-11
4.4172e-11 -8.34864e-11 1.3876e-11
-3.51513e-11 3.42048e-11 7.46223e-11
-4.20518e-10 -1.19995e-10 4.00123e-11
4.37542e-11 -1.57702e-11 2.42327e-11
-2.19204e-10 -4.63621e-10 -3.01187e-10
-2.56316e-10 2.89366e-10 -2.95686e-10
-1.23355e-10 -4.77646e-10 6.61177e-10
-2.25146e-10 5.5159e-11 3.93422e-10
-7.461e-11 -2.35567e-11 -7.01334e-12
-6.5088e-10 -4.47556e-10 3.12894e-10
2.24783e-10 1.22263e-09 1.90139e-09
1.09667e-10 3.04449e-10 -4.67968e-10
5.04678e-10 5.78842e-11 -4.04719e-10
1.7877e-10 1.92161e-11 -1.47175e-11
3.82864e-11 2.85066e-10 -6.70903e-11
2.87425e-11 -1.12122e-11 4.54179e-12
-1.03694e-10 -2.78296e-10 1.00042e-09
9.0139e-10 -2.34137e-10 -1.0448e-09
-2.0319e-10 -1.9494e-10 2.55627e-10
-8.14266e-11 1.52493e-10 -5.00368e-11
-3.19562e-10 2.33726e-10 -1.65251e-10
6.09859e-11 5.55821e-11 -4.48678e-11
-4.82716e-11 2.81805e-10 -1.7474e-10
7.30941e-11 -5.47222e-11 3.46266e-10
3.43481e-10 3.95452e-10 -5.17277e-11
1.1593e-10 -2.6731e-10 3.72367e-10
3.47414e-11 1.67953e-11 -1.41516e-11
8.21379e-11 -3.75118e-10 2.31096e-10
-3.66308e-10 4.06962e-10 -2.62579e-10
-6.6658e-11 8.86707e-11 -8.05519e-11
2.29325e-10 3.86864e-10 -6.3434e-11