# vtk DataFile Version 3.0
LIGGGHTS particles timestep 4800000
ASCII
DATASET POLYDATA
POINTS 287 float
0.0408586 0.0164446 0.00768633
0.0412487 0.0174034 0.00728542
0.034584 0.0158091 0.0082502
0.0411724 0.0178936 0.00711408
0.0407442 0.0163713 0.00779344
0.0467025 0.0162385 0.00792043
0.0409204 0.0171168 0.00737023
0.0406378 0.0160698 0.00817774
0.0469674 0.0173693 0.00742493
0.0408599 0.0168377 0.00746347
0.0412882 0.0175902 0.00722296
0.0347926 0.0165757 0.00767622
0.0407231 0.0163126 0.00787156
0.0344984 0.0155606 0.00855155
0.0410557 0.0173355 0.00730077
0.0344769 0.0155012 0.00862909
0.0408393 0.0167446 0.00749456
0.0468453 0.0167999 0.00756925
0.0407018 0.0162526 0.00794867
0.0408389 0.0163859 0.00776491
0.0409604 0.0173031 0.00730795
0.0349696 0.0169522 0.00748292
0.0469068 0.0170845 0.00749707
0.0409004 0.0170237 0.00740133
0.0467837 0.016516 0.00764408
0.0348748 0.0169244 0.00749877
0.0411529 0.0178006 0.00714519
0.0406805 0.0161917 0.00802504
0.0411936 0.0175585 0.00722993
0.0409404 0.0172101 0.00733903
0.0410362 0.017243 0.00733345
0.0467241 0.0163078 0.00785161
0.0408187 0.0166518 0.00752556
0.0410164 0.0171499 0.00736401
0.0470114 0.0175584 0.00737663
0.0409767 0.0169636 0.0074251
0.0411341 0.0172779 0.00732377
0.0469274 0.0171794 0.007473
0.0407797 0.0164914 0.00762795
0.0409801 0.0173963 0.00727676
0.0411541 0.0173717 0.00729241
0.0467457 0.0163771 0.00778279
0.0468248 0.016705 0.00759332
0.0407981 0.016559 0.00755656
0.0410189 0.0175825 0.00721448
0.0468042 0.0166102 0.00761744
0.0410776 0.0178618 0.00712106
0.041058 0.0177687 0.00715219
0.0347724 0.0164858 0.00771517
0.0468658 0.0168948 0.00754519
0.0408188 0.0163276 0.00784358
0.0345409 0.0156807 0.00839735
0.0409966 0.0170566 0.00739403
0.0467656 0.0164465 0.00771362
0.0410515 0.0169018 0.00744939
0.0410715 0.0169949 0.00741828
0.0407621 0.0164312 0.00770895
0.041174 0.0174653 0.00726109
0.0411139 0.0176145 0.00720741
0.0468863 0.0169896 0.00752113
0.0348881 0.0166049 0.0076638
0.0348271 0.0163366 0.00778322
0.0412686 0.017497 0.00725412
0.0412331 0.0177452 0.00716749
0.0409159 0.016685 0.00751819
0.0469476 0.0172743 0.00744896
0.0345196 0.0156201 0.00847397
0.0412134 0.017652 0.00719867
0.0408804 0.0169308 0.00743239
0.0410751 0.0174285 0.00726965
0.0351049 0.0175632 0.00716818
0.0412887 0.0184443 0.00692991
0.0346056 0.0158739 0.00817716
0.0348131 0.0166643 0.00763479
0.0411363 0.0181409 0.00702772
0.0347517 0.0163959 0.00775363
0.0348946 0.0170115 0.00745376
0.0348809 0.0161875 0.00785135
0.0469905 0.0174636 0.00740074
0.034701 0.0158917 0.00815243
0.0411333 0.0177079 0.00717741
0.0410312 0.0168086 0.00748052
0.0411932 0.0184117 0.00693714
0.0411558 0.0182339 0.00699661
0.0412079 0.017215 0.00734839
0.0348338 0.0167522 0.00759174
0.0412722 0.0179313 0.00710525
0.0412503 0.0182657 0.0069896
0.041331 0.0182109 0.00701173
0.0411167 0.0180479 0.00705882
0.0412918 0.0180243 0.00707414
0.034711 0.0162171 0.0078327
0.0412127 0.0185047 0.00690604
0.0348676 0.0165164 0.00770574
0.0411662 0.0170261 0.00741146
0.0348059 0.0162468 0.00782182
0.0643568 0.0187248 0.00531097
0.24257 0.0191927 0.00520306
0.0351235 0.0172428 0.00733179
0.0346703 0.0160683 0.00795805
0.0352004 0.0171854 0.00735994
0.0346271 0.0159387 0.00810413
0.0409567 0.0168707 0.00745616
0.0410385 0.0176757 0.00718332
0.0413669 0.0179629 0.00709832
0.0412518 0.0186907 0.00684382
0.0347311 0.0163088 0.00779827
0.0353566 0.0170732 0.00741485
0.0350657 0.0169808 0.00746677
0.0410945 0.0175215 0.00723853
0.0409363 0.0167778 0.00748719
0.0407978 0.0162693 0.0079221
0.0345625 0.0157444 0.00832335
0.0410913 0.0170878 0.00738721
0.0406591 0.0161307 0.00810138
0.0406164 0.0160088 0.0082541
0.0413865 0.0180559 0.00706721
0.0347441 0.0160213 0.00800635
0.0412115 0.0180796 0.00705186
0.0407765 0.0162111 0.00800059
0.0409995 0.0174894 0.00724562
0.0346909 0.0161338 0.00788428
0.0410972 0.0179549 0.00708994
0.0411756 0.0183319 0.00699479
0.0349902 0.0170396 0.00743788
0.0348476 0.0164265 0.00774454
0.0411919 0.0179866 0.00708297
0.0409577 0.016469 0.00765208
0.0411133 0.0171832 0.00735539
0.0407552 0.0161519 0.00807829
0.0346795 0.0158269 0.00822547
0.0412733 0.0187879 0.00683429
0.0408953 0.0165987 0.0075643
0.0414059 0.018149 0.00703608
0.0347231 0.0159564 0.00807946
0.0350852 0.0170683 0.00742169
0.0346487 0.0160035 0.00803111
0.0350449 0.0168936 0.00751298
0.0349022 0.0162773 0.00781274
0.0346579 0.0157621 0.00829851
0.0349532 0.017273 0.00731904
0.0414664 0.0182251 0.00701246
0.0349426 0.0164572 0.00773526
0.0352585 0.0170411 0.00743284
0.0347864 0.0161629 0.00787266
0.0350478 0.0173014 0.00730303
0.035124 0.0176512 0.00712457
0.0350286 0.0172141 0.00734801
0.0219312 0.0187687 0.00551176
0.0351426 0.0173301 0.00728684
0.0412527 0.0178383 0.00713637
0.0350293 0.0176221 0.00713925
0.0350668 0.0173887 0.00725807
0.0352753 0.0179413 0.00697219
0.0353161 0.0173034 0.00729776
0.0409214 0.0163498 0.00780845
0.0349225 0.0163672 0.00777403
0.0352195 0.0172727 0.00731499
0.0353763 0.0171613 0.00736951
0.0352582 0.017448 0.0072247
0.040941 0.0164083 0.00772983
0.0352971 0.0172161 0.00734271
0.041241 0.0169643 0.00743575
0.0351807 0.0175047 0.00719694
0.0289512 0.0172544 0.00727016
0.0350094 0.0171268 0.00739295
0.0350675 0.0177967 0.00704936
0.0353363 0.0169847 0.00746049
0.0353586 0.0174829 0.00720526
0.0349913 0.0174476 0.00722915
0.0408768 0.0165222 0.00762602
0.0352384 0.01736 0.00727004
0.0411936 0.0178723 0.00720948
0.034934 0.0171858 0.00736398
0.0349723 0.0173603 0.0072741
0.0411462 0.0169331 0.00744257
0.0413917 0.018287 0.00698814
0.0411211 0.0170803 0.00748237
0.0290265 0.0171905 0.00728592
0.0412941 0.0188854 0.00684264
0.0351617 0.0170105 0.00745006
0.0410109 0.0167157 0.00751155
0.034984 0.0166316 0.00764666
0.0353368 0.0173924 0.0072519
0.0344556 0.0154418 0.00870665
0.0290097 0.0175412 0.00720436
0.0348546 0.0168378 0.00754448
0.0350858 0.017476 0.00721312
0.0349499 0.016865 0.00752781
0.0354461 0.0179193 0.00698065
0.0351813 0.0170982 0.00740488
0.0413632 0.0175287 0.00724716
0.0349297 0.0167781 0.0075729
0.0352379 0.0177665 0.00706211
0.0351997 0.0175919 0.007152
0.0347655 0.0160863 0.00793334
0.0351616 0.0174176 0.00724225
0.0349632 0.0165447 0.00769147
0.040966 0.0171989 0.00743507
0.0413113 0.0181173 0.00704304
0.0352773 0.0175353 0.00717974
0.0411261 0.0168399 0.00747372
0.0412311 0.0181727 0.00702073
0.0289963 0.0170119 0.007327
0.0350485 0.0177094 0.00709431
0.0409675 0.01653 0.00757348
0.035162 0.017825 0.00703336
0.0412323 0.0185977 0.00687493
0.0350103 0.0175349 0.0071842
0.0289302 0.0167454 0.00745915
0.04099 0.0166225 0.0075427
0.0351044 0.0171556 0.00737674
0.0349148 0.0170986 0.00740891
0.0413081 0.0176837 0.00719171
0.0352781 0.0171288 0.00738766
0.0290462 0.0168467 0.00737251
0.0289707 0.01735 0.00724822
0.0349147 0.0170005 0.0075511
0.0353182 0.0181334 0.00695123
0.0289316 0.0171588 0.00729209
0.0348616 0.0161062 0.00790614
0.0350047 0.0167186 0.00760184
0.0413554 0.0183746 0.00695656
0.0353566 0.0183233 0.00700191
0.0353374 0.0182285 0.0069766
0.0354127 0.0181646 0.006961
0.0287573 0.0164184 0.007733
0.0288159 0.0166448 0.00754509
0.0287376 0.016343 0.00779562
0.0351198 0.0168336 0.00754117
0.0349091 0.016692 0.00761939
0.0287768 0.0164939 0.00767036
0.0288916 0.0169679 0.00733587
0.0352568 0.0178538 0.00701716
0.0354298 0.0178273 0.00702794
0.029085 0.0174773 0.00722013
0.0351434 0.0177377 0.00707834
0.0413474 0.0178699 0.00712943
0.029049 0.0177323 0.00716051
0.0289698 0.0169075 0.00735088
0.0288715 0.0168724 0.00735777
0.0346364 0.0156995 0.00837349
0.0352192 0.0176791 0.00710708
0.0351253 0.0180647 0.00692996
0.0351811 0.0179151 0.00699445
0.0290686 0.0178279 0.00713858
0.035025 0.0168061 0.00755745
0.035281 0.0183872 0.00701753
0.0353938 0.0180697 0.00693568
0.0288536 0.016796 0.00741972
0.0351426 0.0181598 0.00695554
0.0289902 0.0174456 0.00722629
0.035238 0.0169524 0.00747853
0.0352235 0.0181027 0.0069416
0.0348951 0.0169134 0.00759607
0.0351057 0.0179712 0.00695949
0.0413278 0.0177768 0.00716055
0.0352968 0.0176225 0.00713482
0.0291438 0.0177639 0.00715437
0.0352004 0.0184447 0.0070314
0.0290883 0.0179234 0.00711666
0.035201 0.0180073 0.00696112
0.0350866 0.0178839 0.00700442
0.0352218 0.0185391 0.00705662
0.035333 0.0177956 0.00704569
0.0289116 0.0170641 0.0073171
0.0290646 0.0169409 0.00734432
0.0350998 0.0167463 0.00758619
0.0289482 0.0168211 0.00739634
0.0287965 0.0165693 0.00760774
0.035262 0.0182924 0.00699222
0.0352428 0.0181975 0.00696701
0.0351605 0.018255 0.0069807
0.0353676 0.0179749 0.00695344
0.035179 0.0183499 0.00700603
0.0350792 0.0166588 0.00763125
0.0351414 0.0169221 0.00749557
0.0353536 0.0178854 0.00699941
0.0348418 0.016041 0.00797941
0.035396 0.0177261 0.00708024
0.0352431 0.0186335 0.00708185
0.0291405 0.0168777 0.00735994
0.035432 0.0182594 0.00698631
0.0411058 0.0167466 0.00750489
0.0288351 0.0167203 0.00748241
0.0290293 0.0176367 0.00718243
0.0410822 0.0173229 0.00739638

VERTICES 287 574
1 0
1 1
1 2
1 3
1 4
1 5
1 6
1 7
1 8
1 9
1 10
1 11
1 12
1 13
1 14
1 15
1 16
1 17
1 18
1 19
1 20
1 21
1 22
1 23
1 24
1 25
1 26
1 27
1 28
1 29
1 30
1 31
1 32
1 33
1 34
1 35
1 36
1 37
1 38
1 39
1 40
1 41
1 42
1 43
1 44
1 45
1 46
1 47
1 48
1 49
1 50
1 51
1 52
1 53
1 54
1 55
1 56
1 57
1 58
1 59
1 60
1 61
1 62
1 63
1 64
1 65
1 66
1 67
1 68
1 69
1 70
1 71
1 72
1 73
1 74
1 75
1 76
1 77
1 78
1 79
1 80
1 81
1 82
1 83
1 84
1 85
1 86
1 87
1 88
1 89
1 90
1 91
1 92
1 93
1 94
1 95
1 96
1 97
1 98
1 99
1 100
1 101
1 102
1 103
1 104
1 105
1 106
1 107
1 108
1 109
1 110
1 111
1 112
1 113
1 114
1 115
1 116
1 117
1 118
1 119
1 120
1 121
1 122
1 123
1 124
1 125
1 126
1 127
1 128
1 129
1 130
1 131
1 132
1 133
1 134
1 135
1 136
1 137
1 138
1 139
1 140
1 141
1 142
1 143
1 144
1 145
1 146
1 147
1 148
1 149
1 150
1 151
1 152
1 153
1 154
1 155
1 156
1 157
1 158
1 159
1 160
1 161
1 162
1 163
1 164
1 165
1 166
1 167
1 168
1 169
1 170
1 171
1 172
1 173
1 174
1 175
1 176
1 177
1 178
1 179
1 180
1 181
1 182
1 183
1 184
1 185
1 186
1 187
1 188
1 189
1 190
1 191
1 192
1 193
1 194
1 195
1 196
1 197
1 198
1 199
1 200
1 201
1 202
1 203
1 204
1 205
1 206
1 207
1 208
1 209
1 210
1 211
1 212
1 213
1 214
1 215
1 216
1 217
1 218
1 219
1 220
1 221
1 222
1 223
1 224
1 225
1 226
1 227
1 228
1 229
1 230
1 231
1 232
1 233
1 234
1 235
1 236
1 237
1 238
1 239
1 240
1 241
1 242
1 243
1 244
1 245
1 246
1 247
1 248
1 249
1 250
1 251
1 252
1 253
1 254
1 255
1 256
1 257
1 258
1 259
1 260
1 261
1 262
1 263
1 264
1 265
1 266
1 267
1 268
1 269
1 270
1 271
1 272
1 273
1 274
1 275
1 276
1 277
1 278
1 279
1 280
1 281
1 282
1 283
1 284
1 285
1 286

POINT_DATA 287
SCALARS id int 1
LOOKUP_TABLE default
1
2
3
4
5
6
7
8
9
10
11
12
13
14
15
16
17
18
19
21
22
23
24
25
26
27
28
29
30
31
32
33
34
35
36
37
38
39
41
42
44
45
46
47
48
49
50
51
52
53
54
55
56
57
59
60
61
62
63
64
65
66
67
68
69
70
71
72
73
74
76
77
78
79
80
81
82
83
84
85
86
87
88
89
90
91
92
93
94
95
96
97
98
99
100
101
102
103
104
105
106
107
108
109
110
111
112
113
114
115
116
117
118
119
120
121
122
123
124
125
126
127
128
129
130
131
132
133
134
135
136
137
138
140
141
142
143
144
146
147
148
149
150
151
153
154
155
156
157
158
159
160
162
164
165
166
167
168
169
170
171
172
173
174
175
176
177
178
179
181
182
183
184
185
186
187
188
189
190
191
192
193
194
195
196
197
198
199
200
201
202
203
204
205
206
207
208
209
210
211
212
213
214
215
216
217
218
219
220
221
222
223
224
225
226
227
228
229
230
231
232
233
234
235
236
237
239
240
241
242
243
244
246
247
248
249
250
251
252
253
254
255
256
257
258
259
260
261
262
263
264
265
266
267
268
269
270
271
272
273
274
275
276
277
278
279
280
281
282
283
284
285
286
287
288
289
290
291
292
293
294
295
296
297
298
299
300

SCALARS type int 1
LOOKUP_TABLE default
1
1
1
1
1
1
1
1
1
1
1
1
1
1
1
1
1
1
1
1
1
1
1
1
1
1
1
1
1
1
1
1
1
1
1
1
1
1
1
1
1
1
1
1
1
1
1
1
1
1
1
1
1
1
1
1
1
1
1
1
1
1
1
1
1
1
1
1
1
1
1
1
1
1
1
1
1
1
1
1
1
1
1
1
1
1
1
1
1
1
1
1
1
1
1
1
1
1
1
1
1
1
1
1
1
1
1
1
1
1
1
1
1
1
1
1
1
1
1
1
1
1
1
1
1
1
1
1
1
1
1
1
1
1
1
1
1
1
1
1
1
1
1
1
1
1
1
1
1
1
1
1
1
1
1
1
1
1
1
1
1
1
1
1
1
1
1
1
1
1
1
1
1
1
1
1
1
1
1
1
1
1
1
1
1
1
1
1
1
1
1
1
1
1
1
1
1
1
1
1
1
1
1
1
1
1
1
1
1
1
1
1
1
1
1
1
1
1
1
1
1
1
1
1
1
1
1
1
1
1
1
1
1
1
1
1
1
1
1
1
1
1
1
1
1
1
1
1
1
1
1
1
1
1
1
1
1
1
1
1
1
1
1
1
1
1
1
1
1
1
1
1
1
1
1
1
1
1
1
1
1
1
1
1
1
1
1

SCALARS radius float 1
LOOKUP_TABLE default
5e-05
5e-05
5e-05
5e-05
5e-05
5e-05
5e-05
5e-05
5e-05
5e-05
5e-05
5e-05
5e-05
5e-05
5e-05
5e-05
5e-05
5e-05
5e-05
5e-05
5e-05
5e-05
5e-05
5e-05
5e-05
5e-05
5e-05
5e-05
5e-05
5e-05
5e-05
5e-05
5e-05
5e-05
5e-05
5e-05
5e-05
5e-05
5e-05
5e-05
5e-05
5e-05
5e-05
5e-05
5e-05
5e-05
5e-05
5e-05
5e-05
5e-05
5e-05
5e-05
5e-05
5e-05
5e-05
5e-05
5e-05
5e-05
5e-05
5e-05
5e-05
5e-05
5e-05
5e-05
5e-05
5e-05
5e-05
5e-05
5e-05
5e-05
5e-05
5e-05
5e-05
5e-05
5e-05
5e-05
5e-05
5e-05
5e-05
5e-05
5e-05
5e-05
5e-05
5e-05
5e-05
5e-05
5e-05
5e-05
5e-05
5e-05
5e-05
5e-05
5e-05
5e-05
5e-05
5e-05
5e-05
5e-05
5e-05
5e-05
5e-05
5e-05
5e-05
5e-05
5e-05
5e-05
5e-05
5e-05
5e-05
5e-05
5e-05
5e-05
5e-05
5e-05
5e-05
5e-05
5e-05
5e-05
5e-05
5e-05
5e-05
5e-05
5e-05
5e-05
5e-05
5e-05
5e-05
5e-05
5e-05
5e-05
5e-05
5e-05
5e-05
5e-05
5e-05
5e-05
5e-05
5e-05
5e-05
5e-05
5e-05
5e-05
5e-05
5e-05
5e-05
5e-05
5e-05
5e-05
5e-05
5e-05
5e-05
5e-05
5e-05
5e-05
5e-05
5e-05
5e-05
5e-05
5e-05
5e-05
5e-05
5e-05
5e-05
5e-05
5e-05
5e-05
5e-05
5e-05
5e-05
5e-05
5e-05
5e-05
5e-05
5e-05
5e-05
5e-05
5e-05
5e-05
5e-05
5e-05
5e-05
5e-05
5e-05
5e-05
5e-05
5e-05
5e-05
5e-05
5e-05
5e-05
5e-05
5e-05
5e-05
5e-05
5e-05
5e-05
5e-05
5e-05
5e-05
5e-05
5e-05
5e-05
5e-05
5e-05
5e-05
5e-05
5e-05
5e-05
5e-05
5e-05
5e-05
5e-05
5e-05
5e-05
5e-05
5e-05
5e-05
5e-05
5e-05
5e-05
5e-05
5e-05
5e-05
5e-05
5e-05
5e-05
5e-05
5e-05
5e-05
5e-05
5e-05
5e-05
5e-05
5e-05
5e-05
5e-05
5e-05
5e-05
5e-05
5e-05
5e-05
5e-05
5e-05
5e-05
5e-05
5e-05
5e-05
5e-05
5e-05
5e-05
5e-05
5e-05
5e-05
5e-05
5e-05
5e-05
5e-05
5e-05
5e-05
5e-05
5e-05
5e-05
5e-05
5e-05
5e-05
5e-05
5e-05
5e-05
5e-05
5e-05
5e-05
5e-05
5e-05
5e-05
5e-05
5e-05
5e-05
5e-05
5e-05
5e-05
5e-05
5e-05
5e-05
5e-05
5e-05
5e-05
5e-05

SCALARS mass float 1
LOOKUP_TABLE default
1.46608e-10
1.46608e-10
1.46608e-10
1.46608e-10
1.46608e-10
1.46608e-10
1.46608e-10
1.46608e-10
1.46608e-10
1.46608e-10
1.46608e-10
1.46608e-10
1.46608e-10
1.46608e-10
1.46608e-10
1.46608e-10
1.46608e-10
1.46608e-10
1.46608e-10
1.46608e-10
1.46608e-10
1.46608e-10
1.46608e-10
1.46608e-10
1.46608e-10
1.46608e-10
1.46608e-10
1.46608e-10
1.46608e-10
1.46608e-10
1.46608e-10
1.46608e-10
1.46608e-10
1.46608e-10
1.46608e-10
1.46608e-10
1.46608e-10
1.46608e-10
1.46608e-10
1.46608e-10
1.46608e-10
1.46608e-10
1.46608e-10
1.46608e-10
1.46608e-10
1.46608e-10
1.46608e-10
1.46608e-10
1.46608e-10
1.46608e-10
1.46608e-10
1.46608e-10
1.46608e-10
1.46608e-10
1.46608e-10
1.46608e-10
1.46608e-10
1.46608e-10
1.46608e-10
1.46608e-10
1.46608e-10
1.46608e-10
1.46608e-10
1.46608e-10
1.46608e-10
1.46608e-10
1.46608e-10
1.46608e-10
1.46608e-10
1.46608e-10
1.46608e-10
1.46608e-10
1.46608e-10
1.46608e-10
1.46608e-10
1.46608e-10
1.46608e-10
1.46608e-10
1.46608e-10
1.46608e-10
1.46608e-10
1.46608e-10
1.46608e-10
1.46608e-10
1.46608e-10
1.46608e-10
1.46608e-10
1.46608e-10
1.46608e-10
1.46608e-10
1.46608e-10
1.46608e-10
1.46608e-10
1.46608e-10
1.46608e-10
1.46608e-10
1.46608e-10
1.46608e-10
1.46608e-10
1.46608e-10
1.46608e-10
1.46608e-10
1.46608e-10
1.46608e-10
1.46608e-10
1.46608e-10
1.46608e-10
1.46608e-10
1.46608e-10
1.46608e-10
1.46608e-10
1.46608e-10
1.46608e-10
1.46608e-10
1.46608e-10
1.46608e-10
1.46608e-10
1.46608e-10
1.46608e-10
1.46608e-10
1.46608e-10
1.46608e-10
1.46608e-10
1.46608e-10
1.46608e-10
1.46608e-10
1.46608e-10
1.46608e-10
1.46608e-10
1.46608e-10
1.46608e-10
1.46608e-10
1.46608e-10
1.46608e-10
1.46608e-10
1.46608e-10
1.46608e-10
1.46608e-10
1.46608e-10
1.46608e-10
1.46608e-10
1.46608e-10
1.46608e-10
1.46608e-10
1.46608e-10
1.46608e-10
1.46608e-10
1.46608e-10
1.46608e-10
1.46608e-10
1.46608e-10
1.46608e-10
1.46608e-10
1.46608e-10
1.46608e-10
1.46608e-10
1.46608e-10
1.46608e-10
1.46608e-10
1.46608e-10
1.46608e-10
1.46608e-10
1.46608e-10
1.46608e-10
1.46608e-10
1.46608e-10
1.46608e-10
1.46608e-10
1.46608e-10
1.46608e-10
1.46608e-10
1.46608e-10
1.46608e-10
1.46608e-10
1.46608e-10
1.46608e-10
1.46608e-10
1.46608e-10
1.46608e-10
1.46608e-10
1.46608e-10
1.46608e-10
1.46608e-10
1.46608e-10
1.46608e-10
1.46608e-10
1.46608e-10
1.46608e-10
1.46608e-10
1.46608e-10
1.46608e-10
1.46608e-10
1.46608e-10
1.46608e-10
1.46608e-10
1.46608e-10
1.46608e-10
1.46608e-10
1.46608e-10
1.46608e-10
1.46608e-10
1.46608e-10
1.46608e-10
1.46608e-10
1.46608e-10
1.46608e-10
1.46608e-10
1.46608e-10
1.46608e-10
1.46608e-10
1.46608e-10
1.46608e-10
1.46608e-10
1.46608e-10
1.46608e-10
1.46608e-10
1.46608e-10
1.46608e-10
1.46608e-10
1.46608e-10
1.46608e-10
1.46608e-10
1.46608e-10
1.46608e-10
1.46608e-10
1.46608e-10
1.46608e-10
1.46608e-10
1.46608e-10
1.46608e-10
1.46608e-10
1.46608e-10
1.46608e-10
1.46608e-10
1.46608e-10
1.46608e-10
1.46608e-10
1.46608e-10
1.46608e-10
1.46608e-10
1.46608e-10
1.46608e-10
1.46608e-10
1.46608e-10
1.46608e-10
1.46608e-10
1.46608e-10
1.46608e-10
1.46608e-10
1.46608e-10
1.46608e-10
1.46608e-10
1.46608e-10
1.46608e-10
1.46608e-10
1.46608e-10
1.46608e-10
1.46608e-10
1.46608e-10
1.46608e-10
1.46608e-10
1.46608e-10
1.46608e-10
1.46608e-10
1.46608e-10
1.46608e-10
1.46608e-10
1.46608e-10
1.46608e-10
1.46608e-10
1.46608e-10
1.46608e-10
1.46608e-10
1.46608e-10
1.46608e-10
1.46608e-10
1.46608e-10
1.46608e-10
1.46608e-10
1.46608e-10
1.46608e-10
1.46608e-10
1.46608e-10
1.46608e-10
1.46608e-10
1.46608e-10
1.46608e-10

VECTORS velocity float
0.00580211 -0.000304876 0.000148252
0.00541161 -0.000192867 0.000289375
0.00614473 -0.000406645 0.00013874
0.00551585 -0.000142614 0.000276763
0.00585447 -0.000393326 0.000178221
0.00641647 0.00107937 -0.000382995
0.00554218 -0.0001609 0.000283792
0.00599147 -0.000100538 0.000359431
0.00608909 0.00106306 -0.000893473
0.00575486 -0.000243043 0.000320256
0.00545093 -0.000181867 0.00028711
0.00567052 -9.6223e-05 0.000294857
0.00599179 -0.000224067 0.000323801
0.00604641 -0.000101879 0.000369591
0.00543069 -0.00013977 0.000271472
0.00604332 -9.54514e-05 0.00035145
0.00578368 -0.000171802 0.000297348
0.00597948 0.001083 -0.00088759
0.00606553 -0.000130714 0.000400046
0.00582227 -0.000339208 0.000135591
0.00554649 -0.000154439 0.000282185
0.00550825 -0.000111784 -4.0598e-05
0.00593952 0.00106212 -0.000878794
0.00549208 -0.000304002 0.000330875
0.00602346 0.00121493 -0.000541765
0.00553998 -0.000186734 -2.61937e-05
0.00549732 -0.000141297 0.0002755
0.00606875 -0.000124881 0.00039144
0.00545756 -0.000163546 0.000281293
0.0055442 -0.000153336 0.000279521
0.00553679 -0.000144806 0.000278695
0.00645582 0.0011271 -0.000420756
0.00577852 -0.000179419 0.000299775
0.0055453 -0.000142495 0.00028057
0.00594098 0.000496247 -0.000805204
0.00559666 -0.000143786 0.000280824
0.00545584 -0.000105369 0.000262593
0.00600262 0.00105482 -0.000883783
0.00570502 -0.000334619 0.000131395
0.00540181 -0.000178083 0.000283708
0.00539467 -0.00016664 0.000279709
0.00645099 0.00116442 -0.000460046
0.00597318 0.00112037 -0.000865881
0.0057791 -0.000180008 0.000299663
0.00542804 -0.000166261 0.00028167
0.00592501 0.00118825 -0.000704873
0.00550347 -0.000137805 0.000274526
0.00549249 -0.000136992 0.000273913
0.00533162 -2.37909e-05 0.000309535
0.00595913 0.00106127 -0.000877588
0.00588685 -0.000337331 0.000155549
0.00608898 -0.000271856 0.000250277
0.00556956 -0.000144247 0.000279581
0.00629618 0.00120184 -0.000487574
0.00559697 -0.000133843 0.000277301
0.00560608 -0.000108458 0.000268382
0.00570129 -8.04996e-05 -0.000207232
0.00543675 -0.000163943 0.000280539
0.00546983 -0.000147174 0.000276547
0.00595338 0.00105654 -0.000878259
0.0057264 -5.0354e-05 0.000206124
0.00573261 2.72869e-05 0.000253302
0.00545295 -0.000167467 0.000282434
0.0054902 -0.000148252 0.000277637
0.00578381 -0.00019662 0.000306109
0.00610976 0.0010455 -0.000891758
0.00606607 -0.000141607 0.000357454
0.0054719 -0.000162105 0.00028167
0.00548878 -0.000268417 0.000318528
0.00541773 -0.000140763 0.000271735
0.00553494 -0.000165265 -3.8945e-06
0.00558715 -0.000154083 0.000283587
0.00612422 -0.000406269 0.000126778
0.00567965 -0.000173189 0.000122494
0.00553724 -0.000160226 0.000282879
0.00482202 5.87443e-05 0.000183562
0.0054904 -0.000156544 -1.34596e-05
0.00611818 -1.62463e-05 0.000302811
0.00658407 0.000945146 -0.000919674
0.00621344 -0.000331092 4.8201e-05
0.00548882 -0.000143108 0.000275603
0.00566117 -6.22272e-05 0.000254834
0.00557632 -0.000156088 0.000283114
0.00554954 -0.000161498 0.000284431
0.00552274 -2.91489e-05 0.000238023
0.00562898 -0.000198716 6.95616e-05
0.00552287 -0.000154889 0.000280889
0.00555284 -0.000161617 0.000284224
0.00555724 -0.000154691 0.000282603
0.0055244 -0.000157696 0.000281831
0.00553205 -0.000156886 0.000281367
0.00587442 -0.00219907 -0.00515411
0.00558959 -0.000154681 0.000283336
0.00574817 -5.59544e-07 0.000257014
0.00549897 -0.000194389 0.000293093
0.00589469 4.2781e-06 0.000286621
4.16027e-15 1.05633e-14 8.29574e-14
5.30818e-23 5.77616e-22 -5.81428e-22
0.00543818 -0.000171882 1.9032e-06
0.00622818 -0.000392215 0.000117373
0.00540033 -0.000219368 2.5963e-05
0.00612851 -0.000405767 0.000132199
0.00557216 -0.000144536 0.000278967
0.00548048 -0.00013451 0.000272592
0.00551794 -0.000169961 0.000286621
0.005613 -0.000149345 0.000282092
0.00563575 -0.000653773 -0.000944715
0.00535506 -0.000267733 5.2073e-05
0.0054981 -0.000100246 -3.45896e-05
0.0054436 -0.000146926 0.000275094
0.00576801 -0.000204091 0.000307373
0.00597579 -0.000358319 0.000167903
0.00611779 -0.00037228 0.000155553
0.00553466 -0.000155662 0.000280527
0.0060204 -0.000116809 0.000373522
0.00597508 -8.83968e-05 0.000345534
0.00552429 -0.00017345 0.000287581
0.00630349 -0.000348015 6.85192e-05
0.00553493 -0.000156899 0.000283645
0.00608775 -0.000391596 0.000168718
0.00542621 -0.00012191 0.000266034
0.004139 0.000802163 -0.00104737
0.00552396 -0.000123049 0.000270654
0.00555679 -0.000159683 0.000277463
0.0054743 -0.000135805 -1.69819e-05
0.00571026 1.93302e-05 0.000247538
0.00552917 -0.000147578 0.000279313
0.00575828 -0.000316235 0.000229353
0.00554395 -0.000143617 0.000278528
0.00609149 -0.000114573 0.000374767
0.00610749 -0.000338711 5.20725e-05
0.00592975 -0.00027424 -0.000287468
0.00577839 -0.000209077 0.000267426
0.00554538 -0.00016416 0.000284803
0.00621854 -0.000326155 4.01768e-05
0.00554226 -0.00011194 -3.08665e-05
0.00617834 -0.000395841 0.000129841
0.00559809 -0.00011212 -0.000460772
0.0060212 1.12324e-06 0.000274377
0.0063104 -0.000321406 2.05831e-05
0.00544678 -0.000116353 -2.59565e-05
0.00555436 -0.000171784 0.000289299
0.00574792 3.74362e-05 0.000247584
0.0054469 -0.000268972 5.10995e-05
0.00610218 -0.000125233 0.000215326
0.00547191 -0.000122029 -2.45962e-05
0.00558025 -0.000172179 -4.46275e-07
0.00548876 -0.000127145 -2.22364e-05
-3.82733e-14 8.16931e-14 2.95888e-13
0.00542612 -0.000182405 7.21667e-06
0.00550176 -0.000159993 0.000281971
0.00553574 -0.000148947 -1.22168e-05
0.00545589 -0.000152327 -8.68945e-06
0.00570422 -0.000176593 1.36998e-05
0.0054663 -0.00019287 1.20622e-05
0.00574655 -0.00037262 0.000186946
0.00580585 3.65118e-05 0.000249474
0.00540297 -0.000216068 2.46412e-05
0.00542132 -0.000200261 1.62791e-05
0.00551205 -0.000175368 2.5386e-06
0.00574401 -0.000389442 0.000173736
0.00538842 -0.00023115 3.32493e-05
0.00565921 -1.8008e-05 0.000239711
0.00550254 -0.00019165 1.07529e-05
0.00545301 -0.00034516 0.000148661
0.005477 -0.000143288 -1.28696e-05
0.00562435 -0.000149983 -1.48451e-05
0.00540691 -0.000337077 8.66269e-05
0.00556379 -0.000183059 5.04108e-06
0.00548066 -0.000130884 -1.99095e-05
0.00575192 -0.000255054 0.000199889
0.00544028 -0.000218747 2.53476e-05
0.00549992 -0.000153064 0.000277828
0.00548428 -0.000127388 -2.26424e-05
0.00544352 -0.000121719 -2.35267e-05
0.00564102 -6.69769e-05 0.000255548
0.00556009 -0.000164377 0.000283491
0.00550904 -0.000171736 0.00028198
0.00546107 -0.000336926 0.000147038
0.00620348 -0.000332735 -0.000308452
0.00565194 -2.95488e-05 -7.44846e-05
0.00579724 -0.000205721 0.000311033
0.00579852 -7.42193e-05 -3.67623e-05
0.00554089 -0.00014185 -1.55318e-05
0.00601711 -8.60564e-05 0.000329346
0.00547163 -0.000350063 0.000150203
0.00560267 -0.00020916 1.39085e-05
0.00549144 -0.00015819 -6.11232e-06
0.0055645 -0.000128671 -3.64636e-05
0.00570265 -0.000229237 2.82022e-05
0.00545418 -0.000232131 3.29584e-05
0.0054489 -0.000182563 0.000287486
0.00562659 -0.000138702 -3.90448e-05
0.00565587 -0.000206532 1.51052e-05
0.00556079 -0.000197932 1.33976e-05
0.00623059 -0.000322141 5.97639e-05
0.00546838 -0.00018595 8.15902e-06
0.0058318 -6.22469e-05 3.40021e-05
0.00553332 -0.000139864 0.000277962
0.0055435 -0.000157786 0.000283176
0.0055614 -0.000192894 1.0961e-05
0.0056335 -7.97258e-05 0.000259755
0.00555037 -0.000157315 0.000283451
0.00560485 -0.000373647 0.000157365
0.00559315 -0.000150527 -1.20786e-05
0.00577924 -0.000206872 0.000310458
0.00565482 -0.000174731 1.76526e-07
0.00560058 -0.000151778 0.00028264
0.00550035 -0.00014323 -1.42383e-05
0.00558088 -0.000390164 0.000165744
0.00579028 -0.000198106 0.00030664
0.00547365 -0.000176975 2.24518e-06
0.00547759 -0.000139074 -1.97211e-05
0.00547786 -0.000160073 0.000280987
0.00539596 -0.00023157 3.27887e-05
0.00566874 -0.000364461 0.000139376
0.0054475 -0.000344754 0.00014874
0.00551369 -0.000144203 -1.71013e-05
0.00576831 -0.000186323 4.47262e-05
0.00561061 -0.000377251 0.000158178
0.0060986 -0.000214403 7.04712e-05
0.00567724 -6.04075e-05 -6.03459e-05
0.00558013 -0.000160197 0.000286583
0.00591973 -0.000238127 3.5333e-05
0.00584164 -0.000226621 3.65124e-05
0.0058079 -0.000264523 2.55552e-05
0.00562534 -0.000400419 0.000172218
0.00575716 -0.00041819 0.000182755
0.00560464 -0.000396644 0.000170036
0.00559553 7.22227e-05 -0.000137762
0.00569423 -0.000107161 6.98124e-05
0.00567986 -0.000408174 0.000177048
0.00562193 -0.00038286 0.000159642
0.00568805 -0.00020035 1.06538e-05
0.00563113 -0.000264132 4.5317e-05
0.00546787 -0.000351009 0.000150384
0.00562249 -0.000175419 9.27611e-07
0.0054999 -0.000178016 0.000288336
0.00546597 -0.000353488 0.000150924
0.00563421 -0.000383707 0.00016185
0.00562208 -0.00038344 0.000159465
0.00625481 -2.49005e-05 0.000238861
0.00560281 -0.000208123 1.74882e-05
0.00570194 -0.000116803 6.40883e-05
0.00569645 -0.000168303 1.49837e-05
0.00546227 -0.000356136 0.000151485
0.00564034 -4.94025e-05 -7.80129e-05
0.00598159 -0.000178654 7.09677e-05
0.00574103 -0.000217557 3.09529e-05
0.00559596 -0.00038043 0.000156896
0.00562329 -0.000243941 -0.000477707
0.00545886 -0.000347269 0.00014942
0.00568582 -1.57816e-05 -8.18521e-05
0.00575052 -0.000154561 4.83934e-05
0.0055548 -0.00012416 -3.2642e-05
0.00569324 -0.000136674 1.55673e-05
0.00549647 -0.000165658 0.000283581
0.00556921 -0.00026045 4.49935e-05
0.0054634 -0.000356453 0.000151583
0.00598814 -0.000126375 0.000122249
0.00545993 -0.000357649 0.000151821
0.00571458 -0.000151708 3.74718e-05
0.00566115 -0.000148226 -1.21822e-05
0.00596456 -0.000104348 7.23868e-05
0.00566732 -0.000222868 2.26966e-05
0.00560863 -0.000378075 0.000159241
0.00562069 -0.00034925 0.000152638
0.00571212 3.32167e-05 -0.000104274
0.00561418 -0.000389164 0.000164219
0.0057318 -0.000415459 0.000181668
0.00589794 -0.000165861 5.18155e-05
0.00581685 -0.000158757 4.60003e-05
0.00529242 -0.00031328 3.56519e-06
0.00572012 -0.000208927 1.92927e-05
0.00592548 -0.000433816 -1.74899e-05
0.00566069 -5.10261e-05 -6.43196e-05
0.00555064 -3.27724e-05 -7.12716e-05
0.00567532 -0.000216181 2.06114e-05
0.00619761 -0.000338393 4.32565e-05
0.00561599 -0.000257588 4.29146e-05
0.00592508 -8.77359e-05 7.20096e-05
0.00565389 -0.000298935 0.000141198
0.00586176 -0.000274369 2.40344e-05
0.00577314 7.83615e-05 0.000211088
0.00560919 -0.000388475 0.000162481
0.00546962 -0.000351232 0.000150448
0.00544048 -0.000125434 0.000268859

VECTORS force float
-4.56857e-10 8.17506e-11 -1.32987e-10
2.30469e-11 -1.8537e-10 6.60513e-11
-2.04552e-11 -1.35465e-10 -1.17256e-10
4.81073e-11 2.59227e-11 -6.29426e-12
-2.9712e-10 -1.07021e-10 1.04463e-10
-2.01849e-10 -1.30639e-10 5.41143e-11
1.92675e-10 8.4863e-10 -2.85026e-10
6.88782e-11 -1.68242e-11 4.76135e-12
-2.98957e-10 1.7196e-10 6.83295e-12
2.15803e-10 4.87666e-10 -1.37397e-10
-1.07904e-10 2.50481e-10 -8.19842e-11
-5.64794e-13 4.40296e-10 -8.76331e-12
-1.30163e-10 5.00376e-11 9.82337e-11
-4.36465e-10 -2.72426e-10 1.22774e-10
1.99224e-10 1.92843e-10 -6.37921e-11
-7.37338e-11 -2.50864e-10 5.77919e-10
1.26413e-11 -5.49806e-11 4.6197e-11
1.78498e-10 4.34126e-10 -1.06402e-10
1.33801e-11 2.50684e-11 -1.12904e-10
-4.18043e-10 6.68561e-11 -1.51747e-10
-1.52428e-10 -4.08604e-10 1.39879e-10
-4.91737e-10 -2.97221e-10 -1.48731e-10
-6.04304e-11 7.68552e-11 4.9443e-12
-8.16319e-12 -4.26987e-11 1.43416e-11
-2.85389e-10 -9.71415e-11 -2.33902e-10
-1.17079e-10 -2.50597e-10 8.29761e-11
-9.34741e-11 -4.77657e-12 1.73808e-12
-1.31106e-10 -1.17934e-11 -4.26264e-11
-5.98655e-11 -3.43235e-12 -8.86128e-13
5.55261e-11 2.07305e-10 -8.73646e-11
8.95332e-11 1.78453e-10 -3.34784e-11
2.59002e-10 -1.48962e-10 2.49647e-10
-4.42825e-12 4.62535e-11 -1.73279e-11
2.15519e-10 1.89599e-10 -5.79015e-11
-9.87262e-10 4.58261e-10 1.16708e-09
-2.24725e-10 -2.12888e-10 6.33922e-11
1.33977e-10 2.83721e-10 -8.70275e-11
-1.64562e-10 1.27063e-10 2.96569e-11
-1.19501e-11 3.4513e-11 -4.6501e-11
2.15426e-11 -4.1051e-11 3.20309e-12
4.35454e-12 6.38519e-11 -2.36097e-11
-5.32174e-10 -8.62039e-10 4.5959e-11
1.21128e-10 2.71619e-10 2.04697e-10
1.4233e-11 4.00379e-11 -1.19788e-11
2.32287e-11 1.56007e-10 -5.4897e-11
-5.12645e-11 1.41299e-10 6.62701e-10
-2.4174e-11 1.24764e-11 -8.67712e-12
-9.60806e-11 -2.03748e-10 6.40675e-11
-1.2561e-09 7.65735e-10 7.99265e-10
1.81363e-10 3.03785e-10 -1.30256e-10
-2.49736e-10 4.42582e-11 -6.8227e-11
-1.69266e-10 1.68815e-10 3.17789e-11
-1.08493e-10 1.81828e-10 -6.53561e-11
2.48303e-10 2.34874e-10 5.88704e-11
2.32509e-11 -6.78152e-11 1.60979e-11
-3.23987e-10 -1.75575e-10 4.56746e-11
-1.9099e-10 -4.21605e-10 5.67218e-10
-2.32907e-11 -5.61308e-11 1.48132e-11