# vtk DataFile Version 3.0
LIGGGHTS particles timestep 20200000
ASCII
DATASET POLYDATA
POINTS 287 float
0.130557 0.016171 0.00806324
0.131038 0.0173562 0.00733801
0.1244 0.0158455 0.00816195
0.13089 0.0174856 0.00732541
0.130442 0.0160816 0.00816237
0.136559 0.0165028 0.00773143
0.130614 0.0167093 0.00754196
0.13034 0.0157391 0.00851216
0.136825 0.0176311 0.00718967
0.130556 0.016494 0.00774188
0.131075 0.0175539 0.0072772
0.124595 0.0166373 0.00759564
0.130422 0.016013 0.00823239
0.124324 0.0156042 0.0084704
0.130748 0.0169208 0.00745522
0.124305 0.0155553 0.00855567
0.130537 0.0164253 0.00781196
0.136696 0.0170785 0.0073845
0.130402 0.0159445 0.00830234
0.130538 0.0161019 0.00813371
0.130653 0.0168917 0.00746756
0.12479 0.0170819 0.00732229
0.13676 0.0173548 0.00728709
0.130594 0.0166321 0.00760239
0.136636 0.016801 0.00748186
0.124674 0.0169723 0.00739172
0.130859 0.0173914 0.00731232
0.130381 0.015876 0.00837229
0.130909 0.017233 0.00736738
0.130633 0.0167991 0.00750234
0.130727 0.0168272 0.00748376
0.136579 0.0165729 0.00766269
0.130518 0.0163565 0.00788205
0.130707 0.0167322 0.00751273
0.136868 0.0178152 0.00712473
0.130672 0.0165835 0.00764266
0.130844 0.0169568 0.00746366
0.136781 0.0174469 0.00725462
0.13048 0.0162191 0.00802221
0.130672 0.016982 0.00742942
0.130867 0.0170459 0.00742436
0.136598 0.0166429 0.00759398
0.136675 0.0169862 0.00741696
0.130499 0.0162878 0.00795212
0.130716 0.0171688 0.00737266
0.136656 0.0168936 0.00744941
0.130781 0.0174491 0.00728751
0.130759 0.0173557 0.00731589
0.124576 0.0165526 0.00764513
0.136717 0.0171707 0.00735203
0.130519 0.0160332 0.00820379
0.124363 0.0157175 0.00831053
0.130691 0.0166531 0.00757176
0.136617 0.016713 0.00752523
0.130767 0.0166099 0.00762828
0.130785 0.0166892 0.00756988
0.130461 0.0161503 0.00809229
0.130888 0.0171393 0.00739596
0.130814 0.0172009 0.00737016
0.136738 0.0172628 0.00731956
0.12471 0.0167503 0.00753121
0.124651 0.0164967 0.00768026
0.131042 0.0174634 0.00730373
0.130962 0.0174209 0.0073474
0.130615 0.0163773 0.00785294
0.136803 0.017539 0.00722215
0.124343 0.0156567 0.00838748
0.13093 0.0173264 0.00733896
0.130575 0.0165627 0.00767181
0.130769 0.0170143 0.00742673
0.124918 0.0176104 0.00707994
0.13089 0.0179333 0.00720857
0.124421 0.0159094 0.00808774
0.124615 0.0167219 0.00754614
0.130818 0.0176146 0.00737501
0.124556 0.016468 0.00769461
0.124694 0.0170554 0.00733985
0.124746 0.0165254 0.00766593
0.136846 0.0177232 0.0071572
0.124534 0.0159936 0.00798467
0.130834 0.0172945 0.00734159
0.130749 0.0165336 0.00769017
0.130825 0.0176526 0.00728278
0.130921 0.0177024 0.00731894
0.131005 0.0172657 0.00736457
0.124635 0.0168059 0.0074955
0.131024 0.0177093 0.00722303
0.130941 0.017762 0.00724016
0.131083 0.0179879 0.00713793
0.131039 0.0177866 0.0072846
0.131014 0.0178084 0.00719027
0.124517 0.0162986 0.00779359
0.130847 0.0177497 0.00727211
0.12469 0.016666 0.00758129
0.130963 0.0170783 0.00742163
0.124631 0.0164121 0.00772975
0.0643568 0.0187248 0.00531097
0.24257 0.0191927 0.00520306
0.124992 0.017545 0.00709598
0.124478 0.0161293 0.00789262
0.125066 0.0174797 0.00711202
0.124439 0.0159777 0.00801699
0.130653 0.0165148 0.00771275
0.130738 0.0172622 0.00734428
0.130977 0.0182958 0.00704871
0.131008 0.0181237 0.00708811
0.124536 0.0163833 0.00774409
0.125284 0.0183336 0.00691464
0.124929 0.017274 0.00720135
0.130792 0.0171075 0.00739854
0.130634 0.0164461 0.00778283
0.130499 0.0159646 0.00827381
0.124382 0.0157847 0.00823927
0.130803 0.0167667 0.0075093
0.130361 0.0158075 0.00844224
0.130319 0.0156707 0.00858202
0.130953 0.0182024 0.0071162
0.124573 0.0161581 0.00787824
0.130911 0.0176548 0.00723157
0.130479 0.0158961 0.00834376
0.130694 0.0170754 0.00740104
0.124497 0.016214 0.00784311
0.130801 0.0175455 0.00730483
0.130984 0.0178956 0.00723497
0.124811 0.0171647 0.00727065
0.12467 0.0165814 0.00763078
0.130893 0.0175842 0.00730916
0.130672 0.0162565 0.00796817
0.130823 0.0168628 0.00749057
0.130458 0.0158276 0.00841371
0.124516 0.0159291 0.00805906
0.130911 0.0180181 0.00715748
0.130596 0.0163085 0.00792309
0.131035 0.0182158 0.00706063
0.124553 0.0160734 0.00792773
0.124948 0.0173574 0.00714929
0.124459 0.0160514 0.0079523
0.124908 0.0171911 0.00725307
0.124765 0.0166099 0.00761623
0.124498 0.0158648 0.00813349
0.124756 0.0173044 0.00718453
0.131007 0.0180499 0.00715552
0.124805 0.0167761 0.00751222
0.125183 0.0176044 0.00708407
0.124612 0.0163274 0.00777925
0.124873 0.017419 0.00712423
0.124939 0.0177055 0.00705792
0.124854 0.0173314 0.00716859
0.0219312 0.0187687 0.00551176
0.12514 0.0180933 0.00696933
0.130968 0.0175256 0.00727777
0.124821 0.0175799 0.00708608
0.124778 0.0173963 0.00715156
0.125043 0.018115 0.00696325
0.12525 0.0178908 0.00701781
0.130633 0.0161192 0.00810826
0.124785 0.0166934 0.00756485
0.125087 0.0175748 0.00709001
0.125319 0.0181817 0.0069505
0.125108 0.0176706 0.00706782
0.130653 0.0161878 0.00803825
0.125228 0.0177941 0.00704018
0.131118 0.0177439 0.00721935
0.125034 0.017736 0.00705176
0.118736 0.0172226 0.00725239
0.124833 0.0172476 0.00721904
0.124865 0.0177701 0.00704206
0.125384 0.0181084 0.00696832
0.125294 0.0180675 0.00697695
0.124833 0.0176471 0.00715964
0.130576 0.0162398 0.00799316
0.125013 0.0176401 0.00707397
0.131098 0.0176471 0.00724898
0.124735 0.0172214 0.0072363
0.124842 0.0175494 0.00717906
0.130941 0.0169846 0.00745009
0.130924 0.0178473 0.00717052
0.130984 0.0171722 0.00739299
0.11893 0.0176274 0.00716203
0.130932 0.0181158 0.00716243
0.125024 0.0173003 0.00718387
0.130729 0.0164627 0.00775793
0.124844 0.0169424 0.00740826
0.125307 0.0179709 0.00699965
0.124285 0.0155065 0.00864054
0.118799 0.0175059 0.00723001
0.124654 0.0168891 0.00744361
0.124799 0.0174862 0.00711355
0.124769 0.0169989 0.0073741
0.125241 0.0182422 0.00693554
0.125044 0.0173846 0.00713403
0.130998 0.0183826 0.00700384
0.124749 0.0169164 0.00742707
0.125076 0.0181843 0.00702735
0.125054 0.0178398 0.00702771
0.124592 0.0162427 0.00782873
0.124895 0.0175148 0.00710206
0.124824 0.0168592 0.00746014
0.130984 0.0175986 0.00734822
0.131056 0.0178956 0.00716554
0.12513 0.0177658 0.00704578
0.130918 0.0168915 0.00747825
0.131161 0.0179307 0.00716262
0.118877 0.0175432 0.00718036
0.124843 0.017675 0.00706407
0.130691 0.0163253 0.00789808
0.124974 0.0178978 0.00701333
0.130967 0.0179364 0.00714526
0.124996 0.0178652 0.0071054
0.118789 0.017063 0.00729282
0.13071 0.016394 0.007828
0.12497 0.0174499 0.00711799
0.124715 0.0171384 0.00728808
0.131001 0.0176161 0.00725125
0.125204 0.0176996 0.00706203
0.118856 0.0173497 0.0072262
0.118759 0.0173196 0.00724622
0.12492 0.0177786 0.00712464
0.125157 0.018295 0.00692273
0.118714 0.0171275 0.00727449
0.124726 0.0164408 0.00771542
0.124865 0.0170254 0.00735647
0.130868 0.0178456 0.00725369
0.125043 0.0186073 0.00690601
0.125194 0.018493 0.00688257
0.125058 0.0186873 0.00684806
0.118537 0.016453 0.00783677
0.118596 0.0166664 0.00763412
0.118518 0.0163819 0.00790433
0.124982 0.0171339 0.00728767
0.12473 0.0168338 0.00747983
0.118557 0.0165241 0.00776924
0.118673 0.0169589 0.00737351
0.125004 0.0179843 0.00705347
0.125203 0.0183902 0.00690235
0.118821 0.0176033 0.00723688
0.12496 0.0178013 0.00703573
0.131105 0.0181489 0.00708775
0.118856 0.017752 0.00715068
0.118834 0.0172529 0.0072487
0.118653 0.0168799 0.00743143
0.124477 0.015801 0.0082077
0.125088 0.017934 0.00703082
0.124926 0.0180604 0.00706733
0.125031 0.0180805 0.00705641
0.118877 0.0178403 0.00710878
0.124886 0.0171082 0.00730476
0.125103 0.018533 0.00687697
0.125114 0.0184354 0.00689568
0.118634 0.0168088 0.00749899
0.12496 0.0181537 0.00705567
0.118779 0.0174103 0.00720876
0.125161 0.0175091 0.00710612
0.124946 0.0181376 0.00695804
0.125071 0.0178007 0.00711874
0.124907 0.0179654 0.00704296
0.131134 0.0178382 0.00719029
0.125155 0.0178601 0.00702399
0.11892 0.0180305 0.00706457
0.124979 0.018303 0.00692456
0.118899 0.0179354 0.00708667
0.12497 0.018043 0.00697934
0.124885 0.0178677 0.00704816
0.12504 0.0184005 0.00699256
0.12507 0.0180214 0.00698542
0.118697 0.0170443 0.00732739
0.118951 0.017723 0.00713975
0.124961 0.017051 0.00733937
0.11881 0.0171582 0.00727063
0.118576 0.0165953 0.00770166
0.125071 0.0183466 0.00691392
0.125066 0.0182586 0.00696114
0.124976 0.0182278 0.00699034
0.125147 0.0181997 0.0069584
0.125138 0.0183844 0.00697843
0.124939 0.0169682 0.00739107
0.125003 0.017217 0.00723582
0.125228 0.0181406 0.00695916
0.124706 0.0163561 0.00776491
0.125165 0.0179896 0.00699382
0.125003 0.0184185 0.00690156
0.118874 0.0174455 0.00720377
0.125136 0.0186259 0.00685815
0.130898 0.0167979 0.00750681
0.118615 0.0167376 0.00756656
0.118834 0.0176543 0.00715202
0.131192 0.0176818 0.00724529

VERTICES 287 574
1 0
1 1
1 2
1 3
1 4
1 5
1 6
1 7
1 8
1 9
1 10
1 11
1 12
1 13
1 14
1 15
1 16
1 17
1 18
1 19
1 20
1 21
1 22
1 23
1 24
1 25
1 26
1 27
1 28
1 29
1 30
1 31
1 32
1 33
1 34
1 35
1 36
1 37
1 38
1 39
1 40
1 41
1 42
1 43
1 44
1 45
1 46
1 47
1 48
1 49
1 50
1 51
1 52
1 53
1 54
1 55
1 56
1 57
1 58
1 59
1 60
1 61
1 62
1 63
1 64
1 65
1 66
1 67
1 68
1 69
1 70
1 71
1 72
1 73
1 74
1 75
1 76
1 77
1 78
1 79
1 80
1 81
1 82
1 83
1 84
1 85
1 86
1 87
1 88
1 89
1 90
1 91
1 92
1 93
1 94
1 95
1 96
1 97
1 98
1 99
1 100
1 101
1 102
1 103
1 104
1 105
1 106
1 107
1 108
1 109
1 110
1 111
1 112
1 113
1 114
1 115
1 116
1 117
1 118
1 119
1 120
1 121
1 122
1 123
1 124
1 125
1 126
1 127
1 128
1 129
1 130
1 131
1 132
1 133
1 134
1 135
1 136
1 137
1 138
1 139
1 140
1 141
1 142
1 143
1 144
1 145
1 146
1 147
1 148
1 149
1 150
1 151
1 152
1 153
1 154
1 155
1 156
1 157
1 158
1 159
1 160
1 161
1 162
1 163
1 164
1 165
1 166
1 167
1 168
1 169
1 170
1 171
1 172
1 173
1 174
1 175
1 176
1 177
1 178
1 179
1 180
1 181
1 182
1 183
1 184
1 185
1 186
1 187
1 188
1 189
1 190
1 191
1 192
1 193
1 194
1 195
1 196
1 197
1 198
1 199
1 200
1 201
1 202
1 203
1 204
1 205
1 206
1 207
1 208
1 209
1 210
1 211
1 212
1 213
1 214
1 215
1 216
1 217
1 218
1 219
1 220
1 221
1 222
1 223
1 224
1 225
1 226
1 227
1 228
1 229
1 230
1 231
1 232
1 233
1 234
1 235
1 236
1 237
1 238
1 239
1 240
1 241
1 242
1 243
1 244
1 245
1 246
1 247
1 248
1 249
1 250
1 251
1 252
1 253
1 254
1 255
1 256
1 257
1 258
1 259
1 260
1 261
1 262
1 263
1 264
1 265
1 266
1 267
1 268
1 269
1 270
1 271
1 272
1 273
1 274
1 275
1 276
1 277
1 278
1 279
1 280
1 281
1 282
1 283
1 284
1 285
1 286

POINT_DATA 287
SCALARS id int 1
LOOKUP_TABLE default
1
2
3
4
5
6
7
8
9
10
11
12
13
14
15
16
17
18
19
21
22
23
24
25
26
27
28
29
30
31
32
33
34
35
36
37
38
39
41
42
44
45
46
47
48
49
50
51
52
53
54
55
56
57
59
60
61
62
63
64
65
66
67
68
69
70
71
72
73
74
76
77
78
79
80
81
82
83
84
85
86
87
88
89
90
91
92
93
94
95
96
97
98
99
100
101
102
103
104
105
106
107
108
109
110
111
112
113
114
115
116
117
118
119
120
121
122
123
124
125
126
127
128
129
130
131
132
133
134
135
136
137
138
140
141
142
143
144
146
147
148
149
150
151
153
154
155
156
157
158
159
160
162
164
165
166
167
168
169
170
171
172
173
174
175
176
177
178
179
181
182
183
184
185
186
187
188
189
190
191
192
193
194
195
196
197
198
199
200
201
202
203
204
205
206
207
208
209
210
211
212
213
214
215
216
217
218
219
220
221
222
223
224
225
226
227
228
229
230
231
232
233
234
235
236
237
239
240
241
242
243
244
246
247
248
249
250
251
252
253
254
255
256
257
258
259
260
261
262
263
264
265
266
267
268
269
270
271
272
273
274
275
276
277
278
279
280
281
282
283
284
285
286
287
288
289
290
291
292
293
294
295
296
297
298
299
300

SCALARS type int 1
LOOKUP_TABLE default
1
1
1
1
1
1
1
1
1
1
1
1
1
1
1
1
1
1
1
1
1
1
1
1
1
1
1
1
1
1
1
1
1
1
1
1
1
1
1
1
1
1
1
1
1
1
1
1
1
1
1
1
1
1
1
1
1
1
1
1
1
1
1
1
1
1
1
1
1
1
1
1
1
1
1
1
1
1
1
1
1
1
1
1
1
1
1
1
1
1
1
1
1
1
1
1
1
1
1
1
1
1
1
1
1
1
1
1
1
1
1
1
1
1
1
1
1
1
1
1
1
1
1
1
1
1
1
1
1
1
1
1
1
1
1
1
1
1
1
1
1
1
1
1
1
1
1
1
1
1
1
1
1
1
1
1
1
1
1
1
1
1
1
1
1
1
1
1
1
1
1
1
1
1
1
1
1
1
1
1
1
1
1
1
1
1
1
1
1
1
1
1
1
1
1
1
1
1
1
1
1
1
1
1
1
1
1
1
1
1
1
1
1
1
1
1
1
1
1
1
1
1
1
1
1
1
1
1
1
1
1
1
1
1
1
1
1
1
1
1
1
1
1
1
1
1
1
1
1
1
1
1
1
1
1
1
1
1
1
1
1
1
1
1
1
1
1
1
1
1
1
1
1
1
1
1
1
1
1
1
1
1
1
1
1
1
1

SCALARS radius float 1
LOOKUP_TABLE default
5e-05
5e-05
5e-05
5e-05
5e-05
5e-05
5e-05
5e-05
5e-05
5e-05
5e-05
5e-05
5e-05
5e-05
5e-05
5e-05
5e-05
5e-05
5e-05
5e-05
5e-05
5e-05
5e-05
5e-05
5e-05
5e-05
5e-05
5e-05
5e-05
5e-05
5e-05
5e-05
5e-05
5e-05
5e-05
5e-05
5e-05
5e-05
5e-05
5e-05
5e-05
5e-05
5e-05
5e-05
5e-05
5e-05
5e-05
5e-05
5e-05
5e-05
5e-05
5e-05
5e-05
5e-05
5e-05
5e-05
5e-05
5e-05
5e-05
5e-05
5e-05
5e-05
5e-05
5e-05
5e-05
5e-05
5e-05
5e-05
5e-05
5e-05
5e-05
5e-05
5e-05
5e-05
5e-05
5e-05
5e-05
5e-05
5e-05
5e-05
5e-05
5e-05
5e-05
5e-05
5e-05
5e-05
5e-05
5e-05
5e-05
5e-05
5e-05
5e-05
5e-05
5e-05
5e-05
5e-05
5e-05
5e-05
5e-05
5e-05
5e-05
5e-05
5e-05
5e-05
5e-05
5e-05
5e-05
5e-05
5e-05
5e-05
5e-05
5e-05
5e-05
5e-05
5e-05
5e-05
5e-05
5e-05
5e-05
5e-05
5e-05
5e-05
5e-05
5e-05
5e-05
5e-05
5e-05
5e-05
5e-05
5e-05
5e-05
5e-05
5e-05
5e-05
5e-05
5e-05
5e-05
5e-05
5e-05
5e-05
5e-05
5e-05
5e-05
5e-05
5e-05
5e-05
5e-05
5e-05
5e-05
5e-05
5e-05
5e-05
5e-05
5e-05
5e-05
5e-05
5e-05
5e-05
5e-05
5e-05
5e-05
5e-05
5e-05
5e-05
5e-05
5e-05
5e-05
5e-05
5e-05
5e-05
5e-05
5e-05
5e-05
5e-05
5e-05
5e-05
5e-05
5e-05
5e-05
5e-05
5e-05
5e-05
5e-05
5e-05
5e-05
5e-05
5e-05
5e-05
5e-05
5e-05
5e-05
5e-05
5e-05
5e-05
5e-05
5e-05
5e-05
5e-05
5e-05
5e-05
5e-05
5e-05
5e-05
5e-05
5e-05
5e-05
5e-05
5e-05
5e-05
5e-05
5e-05
5e-05
5e-05
5e-05
5e-05
5e-05
5e-05
5e-05
5e-05
5e-05
5e-05
5e-05
5e-05
5e-05
5e-05
5e-05
5e-05
5e-05
5e-05
5e-05
5e-05
5e-05
5e-05
5e-05
5e-05
5e-05
5e-05
5e-05
5e-05
5e-05
5e-05
5e-05
5e-05
5e-05
5e-05
5e-05
5e-05
5e-05
5e-05
5e-05
5e-05
5e-05
5e-05
5e-05
5e-05
5e-05
5e-05
5e-05
5e-05
5e-05
5e-05
5e-05
5e-05
5e-05
5e-05
5e-05
5e-05
5e-05
5e-05
5e-05
5e-05
5e-05
5e-05
5e-05
5e-05
5e-05
5e-05
5e-05
5e-05
5e-05
5e-05
5e-05
5e-05
5e-05
5e-05
5e-05
5e-05

SCALARS mass float 1
LOOKUP_TABLE default
1.46608e-10
1.46608e-10
1.46608e-10
1.46608e-10
1.46608e-10
1.46608e-10
1.46608e-10
1.46608e-10
1.46608e-10
1.46608e-10
1.46608e-10
1.46608e-10
1.46608e-10
1.46608e-10
1.46608e-10
1.46608e-10
1.46608e-10
1.46608e-10
1.46608e-10
1.46608e-10
1.46608e-10
1.46608e-10
1.46608e-10
1.46608e-10
1.46608e-10
1.46608e-10
1.46608e-10
1.46608e-10
1.46608e-10
1.46608e-10
1.46608e-10
1.46608e-10
1.46608e-10
1.46608e-10
1.46608e-10
1.46608e-10
1.46608e-10
1.46608e-10
1.46608e-10
1.46608e-10
1.46608e-10
1.46608e-10
1.46608e-10
1.46608e-10
1.46608e-10
1.46608e-10
1.46608e-10
1.46608e-10
1.46608e-10
1.46608e-10
1.46608e-10
1.46608e-10
1.46608e-10
1.46608e-10
1.46608e-10
1.46608e-10
1.46608e-10
1.46608e-10
1.46608e-10
1.46608e-10
1.46608e-10
1.46608e-10
1.46608e-10
1.46608e-10
1.46608e-10
1.46608e-10
1.46608e-10
1.46608e-10
1.46608e-10
1.46608e-10
1.46608e-10
1.46608e-10
1.46608e-10
1.46608e-10
1.46608e-10
1.46608e-10
1.46608e-10
1.46608e-10
1.46608e-10
1.46608e-10
1.46608e-10
1.46608e-10
1.46608e-10
1.46608e-10
1.46608e-10
1.46608e-10
1.46608e-10
1.46608e-10
1.46608e-10
1.46608e-10
1.46608e-10
1.46608e-10
1.46608e-10
1.46608e-10
1.46608e-10
1.46608e-10
1.46608e-10
1.46608e-10
1.46608e-10
1.46608e-10
1.46608e-10
1.46608e-10
1.46608e-10
1.46608e-10
1.46608e-10
1.46608e-10
1.46608e-10
1.46608e-10
1.46608e-10
1.46608e-10
1.46608e-10
1.46608e-10
1.46608e-10
1.46608e-10
1.46608e-10
1.46608e-10
1.46608e-10
1.46608e-10
1.46608e-10
1.46608e-10
1.46608e-10
1.46608e-10
1.46608e-10
1.46608e-10
1.46608e-10
1.46608e-10
1.46608e-10
1.46608e-10
1.46608e-10
1.46608e-10
1.46608e-10
1.46608e-10
1.46608e-10
1.46608e-10
1.46608e-10
1.46608e-10
1.46608e-10
1.46608e-10
1.46608e-10
1.46608e-10
1.46608e-10
1.46608e-10
1.46608e-10
1.46608e-10
1.46608e-10
1.46608e-10
1.46608e-10
1.46608e-10
1.46608e-10
1.46608e-10
1.46608e-10
1.46608e-10
1.46608e-10
1.46608e-10
1.46608e-10
1.46608e-10
1.46608e-10
1.46608e-10
1.46608e-10
1.46608e-10
1.46608e-10
1.46608e-10
1.46608e-10
1.46608e-10
1.46608e-10
1.46608e-10
1.46608e-10
1.46608e-10
1.46608e-10
1.46608e-10
1.46608e-10
1.46608e-10
1.46608e-10
1.46608e-10
1.46608e-10
1.46608e-10
1.46608e-10
1.46608e-10
1.46608e-10
1.46608e-10
1.46608e-10
1.46608e-10
1.46608e-10
1.46608e-10
1.46608e-10
1.46608e-10
1.46608e-10
1.46608e-10
1.46608e-10
1.46608e-10
1.46608e-10
1.46608e-10
1.46608e-10
1.46608e-10
1.46608e-10
1.46608e-10
1.46608e-10
1.46608e-10
1.46608e-10
1.46608e-10
1.46608e-10
1.46608e-10
1.46608e-10
1.46608e-10
1.46608e-10
1.46608e-10
1.46608e-10
1.46608e-10
1.46608e-10
1.46608e-10
1.46608e-10
1.46608e-10
1.46608e-10
1.46608e-10
1.46608e-10
1.46608e-10
1.46608e-10
1.46608e-10
1.46608e-10
1.46608e-10
1.46608e-10
1.46608e-10
1.46608e-10
1.46608e-10
1.46608e-10
1.46608e-10
1.46608e-10
1.46608e-10
1.46608e-10
1.46608e-10
1.46608e-10
1.46608e-10
1.46608e-10
1.46608e-10
1.46608e-10
1.46608e-10
1.46608e-10
1.46608e-10
1.46608e-10
1.46608e-10
1.46608e-10
1.46608e-10
1.46608e-10
1.46608e-10
1.46608e-10
1.46608e-10
1.46608e-10
1.46608e-10
1.46608e-10
1.46608e-10
1.46608e-10
1.46608e-10
1.46608e-10
1.46608e-10
1.46608e-10
1.46608e-10
1.46608e-10
1.46608e-10
1.46608e-10
1.46608e-10
1.46608e-10
1.46608e-10
1.46608e-10
1.46608e-10
1.46608e-10
1.46608e-10
1.46608e-10
1.46608e-10
1.46608e-10
1.46608e-10
1.46608e-10
1.46608e-10
1.46608e-10
1.46608e-10
1.46608e-10
1.46608e-10
1.46608e-10
1.46608e-10
1.46608e-10
1.46608e-10
1.46608e-10
1.46608e-10
1.46608e-10
1.46608e-10
1.46608e-10
1.46608e-10
1.46608e-10

VECTORS velocity float
0.00540277 -0.00019709 -0.000275159
0.00597727 0.000117691 0.000440561
0.00566886 -0.000216411 -0.00013739
0.00601658 0.000204634 0.000422172
0.00555189 -0.000146582 -0.000338551
0.00588523 0.00142903 -0.000839407
0.00571251 4.65387e-07 -0.000162981
0.00597814 -0.000201375 -0.000320131
0.00645661 0.00124576 -0.000963518
0.0055779 -0.000151017 -0.000330161
0.00599374 0.000207127 0.000411333
0.00560144 -5.70322e-07 0.000156256
0.00575042 -0.000169932 -0.00033318
0.00582642 0.000196589 0.000204997
0.00578864 0.000272434 0.000371891
0.00578169 0.000187151 0.000202544
0.00554903 -0.000155986 -0.000328285
0.00614513 0.00131786 -0.000961528
0.00571551 -0.000185759 -0.00031437
0.0054377 -0.000125151 -0.000349674
0.00560949 9.65214e-05 -0.000431129
0.00613222 -0.000179273 3.53621e-05
0.00642498 0.00125245 -0.000965583
0.00563252 -0.000175693 -0.000376358
0.00596509 0.0013569 -0.000951571
0.00584312 -0.000105005 -7.46736e-06
0.00609369 0.000175187 0.000434926
0.0057016 -0.000183712 -0.000315372
0.00602393 0.000168431 0.000426647
0.00561435 0.000224069 0.000266647
0.00559709 0.000312369 0.000343277
0.00591318 0.00142711 -0.00083517
0.00552689 -0.000159629 -0.000323777
0.00574513 0.000419856 0.000285286
0.00648348 0.00123596 -0.000962726
0.0055656 -0.000213773 -0.000277524
0.00582123 0.000204496 0.000365937
0.0064288 0.00124088 -0.000960746
0.00539615 -0.000150531 -0.000321124
0.00609401 0.000334602 0.000379128
0.00591941 0.000179507 0.000408908
0.00594343 0.00142497 -0.000830475
0.00591892 0.00136685 -0.00095843
0.00548151 -0.00015397 -0.000323528
0.00611415 0.000373455 0.00036761
0.00593028 0.00136248 -0.000955551
0.0060957 0.000188865 0.00043225
0.00605004 0.00019802 0.000419319
0.00560407 7.52733e-07 0.000155745
0.00637278 0.00126226 -0.000960971
0.00562472 -0.000175304 -0.000316809
0.00567922 -0.000212687 -0.00010981
0.00550346 -1.4244e-05 -0.000478083
0.00596869 0.00141968 -0.00082485
0.00554661 -0.000119684 -0.000263294
0.00541276 0.000129354 5.11476e-05
0.00537009 -0.000143976 -0.000326379
0.00598222 0.00016811 0.000421853
0.00601188 0.000187273 0.000419995
0.00639863 0.00125974 -0.000963971
0.00564759 -2.18889e-05 0.000122823
0.00560495 -1.72754e-06 0.000157518
0.00598987 0.000212899 0.000408967
0.00602726 0.000195361 0.000418604
0.00558353 -0.000148742 -0.000339135
0.00643973 0.00124004 -0.00096017
0.00562538 -0.00021196 -0.000106984
0.0060687 0.000160956 0.000434009
0.00559712 -0.000155971 -0.000333652
0.00602333 0.000234524 0.00040649
0.00626614 -0.000187978 0.000108233
0.00608092 0.000328085 0.000253019
0.00560443 -0.000205193 -0.000127886
0.00559969 5.41331e-05 0.000125586
0.00601083 0.000222517 0.000435875
0.00560663 9.33e-07 0.00015588
0.00612236 -0.000161938 2.4729e-05
0.00561305 -1.48971e-05 0.000166291
0.00646743 0.00124144 -0.000963286
0.00558841 -6.12314e-05 2.46991e-05
0.00602327 0.000177258 0.000424202
0.00562759 -0.000209388 -0.000361979
0.00602921 0.000200958 0.000422415
0.00602559 0.000250406 0.000397754
0.00600578 0.000104818 0.000446672
0.00562879 -4.8258e-05 -4.10468e-05
0.00602089 0.000218955 0.000409149
0.00601713 0.000223296 0.000396896
0.00606118 0.000197287 0.000421855
0.00603673 0.000217961 0.000402885
0.00602317 0.000213623 0.000407635
0.00558664 2.09574e-05 0.00014343
0.00602188 0.000213184 0.00039106
0.00558177 5.53177e-06 0.00015335
0.00589409 9.93848e-05 0.000439464
0.0055933 5.96475e-07 0.000156244
4.30386e-15 1.05198e-14 8.29555e-14
2.73478e-22 2.24983e-22 8.29106e-22
0.0062586 -0.000209173 0.000113294
0.0055719 -9.9239e-06 0.000159783
0.00625402 -0.000226531 0.000116982
0.00555342 -0.000133938 -4.66082e-05
0.00554572 -0.000209369 -0.000275719
0.00613318 0.000398623 0.00036238
0.0061316 0.000168556 0.000407357
0.00606748 0.000180455 0.000425138
0.00560757 6.02404e-06 0.000153006
0.00565552 -0.000420126 0.000156636
0.0062218 -0.000222639 7.65219e-05
0.0060453 0.000197839 0.000421608
0.00555441 -0.000210477 -0.000270285
0.00578336 -0.000209399 -0.00029659
0.0057386 -0.000232649 -0.000127871
0.00556957 0.000288651 0.000334756
0.00579728 -0.000201113 -0.000306932
0.00606545 -0.000102344 -0.00043098
0.00608218 0.000199363 0.000415725
0.0055568 1.04188e-05 0.000151629
0.00602104 0.000221374 0.000411077
0.00575535 -0.000201588 -0.000300551
0.00609509 0.000331656 0.00037824
0.00557701 1.08817e-05 0.000149564
0.00602601 0.000205949 0.000437534
0.00606553 0.000178304 0.000411482
0.00617198 -0.000185666 4.69298e-05
0.00560955 -2.34023e-06 0.000157091
0.00602071 0.000208308 0.000423406
0.00550073 -0.000167215 -0.000312734
0.00566378 0.000251304 0.00033692
0.00570884 -0.000203857 -0.000295094
0.00559727 -0.000177934 -9.74749e-05
0.00607625 0.000167994 0.000433345
0.00551711 -0.000169333 -0.000311338
0.00611247 0.000164713 0.000433901
0.00556991 8.56994e-06 0.0001412
0.00623893 -0.000217392 6.10646e-05
0.00557373 -4.91609e-05 8.38668e-05
0.00618767 -0.000223956 6.03951e-05
0.00567102 -4.88866e-05 0.000136463
0.00561157 -0.000204516 -0.000138538
0.00623376 -0.000196698 4.822e-05
0.0060409 0.000169619 0.000404311
0.00583518 -0.000161117 1.75057e-05
0.00623501 -0.000136888 9.61668e-05
0.00557118 5.20123e-06 0.000152899
0.00626337 -0.000180319 0.000106349
0.0062734 -0.000187196 0.00010908
0.00624095 -0.00018467 8.47771e-05
-3.82575e-14 8.1713e-14 2.95884e-13
0.00566866 -2.63579e-05 6.52979e-05
0.00601006 0.000214351 0.000412654
0.00626732 -0.000174 0.000103604
0.00624182 -0.000194461 7.50572e-05
0.00561864 -0.000213604 0.000105536
0.0061414 -0.000156691 9.96516e-05
0.0054703 -0.000169754 -0.00030825
0.00574346 -0.000115843 5.57383e-05
0.00625822 -0.000240011 0.00012032
0.00581589 -0.000219907 0.000111206
0.00629186 -0.00019552 0.000109669
0.00545206 -0.000161156 -0.000315651
0.00613651 -0.000116575 8.93133e-05
0.00604184 0.000143989 0.000436002
0.00628945 -0.000192601 0.000109531
0.0061245 -0.000347553 0.000308528
0.00621063 -0.000189041 6.21129e-05
0.00626887 -0.000165591 0.000105158
0.00589953 -0.000143664 9.4706e-05
0.0058911 -9.9784e-05 8.3007e-05
0.00624395 -0.00018963 0.000107424
0.00545379 -0.000192118 -0.000285345
0.00626159 -0.000219542 0.000115652
0.00598358 0.000174085 0.000422432
0.00620767 -0.000175462 3.57349e-05
0.00624714 -0.000192022 9.78266e-05
0.0059165 0.00015845 0.000422398
0.00601224 0.000231701 0.000397582
0.00598322 0.000116206 0.000441202
0.00610331 -0.000355612 0.00031059
0.00604341 0.000175987 0.000328542
0.00622875 -0.000249124 7.63986e-05
0.00562695 -0.000177038 -0.000324027
0.00608672 -0.000194743 4.90527e-05
0.00603826 -8.03921e-05 8.04809e-05
0.00572271 0.000186819 0.000194244
0.00610829 -0.00034883 0.000310423
0.00560989 -5.34513e-05 -3.4136e-05
0.00626583 -0.000176179 9.99375e-05
0.00610544 -0.000181466 1.80164e-05
0.00575611 -0.000289758 0.000129572
0.00623571 -0.000222374 0.000117844
0.00615924 0.000169118 0.000435603
0.00599973 -0.000162695 7.62502e-06
0.00561695 -0.000236723 0.000132785
0.00629761 -0.000162801 0.000103953
0.00555285 9.91635e-06 0.000149832
0.00625699 -0.000188452 0.000106466
0.005985 -0.000180866 3.9884e-05
0.00602005 0.000178057 0.000407131
0.00607984 0.000181446 0.000425404
0.00630474 -0.000207392 0.000113197
0.00574886 0.000170364 0.000403433
0.00604586 0.000194159 0.00041992
0.0061044 -0.000349222 0.000308724
0.00626668 -0.00017254 0.00010643
0.00555039 -0.000177034 -0.000306771
0.00629476 -0.000159544 0.000104538
0.00608161 0.00018466 0.000421221
0.00626826 -0.000211021 9.36187e-05
0.00600347 -0.000313353 0.000293031
0.00560725 -0.00017446 -0.000311646
0.0062458 -0.000206974 0.000110649
0.00614491 -0.000166864 2.72322e-05
0.00601274 0.000219477 0.000411115
0.00628077 -0.000143517 9.77778e-05
0.00611806 -0.0003523 0.000309535
0.00611364 -0.000347632 0.000307506
0.0062745 -0.000188705 0.000101366
0.0056906 -0.000402427 2.91166e-05
0.00613939 -0.000349077 0.000309428
0.00559176 -1.26978e-05 0.000163065
0.00611922 -0.000201226 5.0676e-05
0.00600755 0.000235202 0.000386697
0.0057271 -0.000366647 -6.51958e-05
0.0057195 -0.000383501 -6.02819e-05
0.00581151 -0.000377637 -6.37201e-05
0.0054353 -0.000414643 -8.44677e-05
0.00549941 -0.000423145 -8.19374e-05
0.00541623 -0.000407331 -8.95913e-05
0.00618341 -0.000234797 7.16461e-05
0.00582864 -9.90851e-05 5.32101e-05
0.00544353 -0.000413071 -8.64102e-05
0.00565191 -0.000392214 2.12136e-05
0.00615098 -0.000147961 0.000158825
0.0057136 -0.000386854 -6.02687e-05
0.00610679 -0.000349327 0.00031087
0.00623105 -0.000149286 9.83408e-05
0.00607913 0.000133672 0.000443248
0.00607502 -0.00034711 0.00030018
0.00611915 -0.000337016 0.000305607
0.00554879 -0.000438807 -7.34066e-05
0.00570332 -0.000213639 -0.000132773
0.00617247 -8.48878e-05 6.66277e-05
0.00607173 -0.000303565 0.000298741
0.00590395 -7.72749e-05 0.00019256
0.0060948 -0.000348805 0.000308023
0.00614834 -0.00021464 5.56751e-05
0.0057251 -0.000370826 -6.37326e-05
0.00572504 -0.000372825 -6.34261e-05
0.00554348 -0.000432719 -7.42602e-05
0.00552661 -0.000309474 -4.04766e-05
0.00611898 -0.0003501 0.000309066
0.00626206 -0.000242833 0.000121519
0.00556942 -0.000496347 -1.96438e-05
0.00629283 -0.000186518 0.000100262
0.00616491 -0.000302059 0.000184638
0.00607019 0.000150922 0.000437104
0.00612133 -0.000140885 9.7173e-05
0.00608335 -0.00034718 0.000307062
0.00566421 -0.000365262 -6.4093e-05
0.00608927 -0.000348016 0.00030786
0.00575922 -0.000423384 0.000168782
0.00628772 -0.000161537 0.000107062
0.00571408 -0.000342659 -6.59178e-05
0.00580935 -0.000146774 9.44e-05
0.00598362 -0.000373684 0.00022171
0.00607679 -0.000342278 0.00030747
0.00616622 -0.000233702 7.13825e-05
0.00610177 -0.000344451 0.00030621
0.00547638 -0.000414947 -8.76841e-05
0.00570877 -0.000360592 -4.85627e-05
0.00565364 -0.00032289 2.93731e-05
0.00562365 -0.000502492 -0.000231949
0.00568526 -0.000292786 0.0001017
0.00571109 -0.000369782 -5.90411e-05
0.00610641 -0.000227297 6.7777e-05
0.00619308 -0.000262468 8.77132e-05
0.00576834 -0.0001924 0.00010367
0.00557906 -1.13775e-05 0.000161984
0.00587457 6.57527e-05 4.4669e-05
0.00571975 -0.000338603 -6.93748e-05
0.00610694 -0.000349857 0.000308194
0.00582177 -0.000365264 -6.65516e-05
0.00562071 0.000169611 0.000389705
0.00551811 -0.000429636 -7.69299e-05
0.00610498 -0.000351829 0.000309522
0.00601445 0.000103492 0.000448104

VECTORS force float
-2.90583e-10 3.07812e-10 -2.83491e-10
1.04318e-10 5.95221e-11 -1.8255e-11
-2.26858e-10 -7.85632e-11 5.45394e-11
4.78869e-11 -3.85225e-11 -2.64086e-11
2.61009e-10 1.26639e-10 -1.57434e-10
-6.26453e-12 9.92211e-12 -1.32464e-11
1.75117e-10 -3.27938e-10 -3.55664e-11
-3.91017e-10 3.75513e-10 -3.7781e-10
1.00891e-11 -8.11236e-11 2.09367e-11
3.3143e-10 3.99357e-10 -3.73734e-10
1.57033e-11 -5.49854e-11 1.19327e-11
4.79883e-11 1.55402e-10 -8.68948e-11
-2.63147e-10 3.04842e-10 -2.95806e-10
1.65635e-10 1.04254e-10 -1.40668e-10
-9.91269e-11 8.55509e-11 5.24446e-11
1.61256e-10 -6.94298e-11 1.7565e-10
5.07877e-11 3.18639e-10 -2.77278e-10
4.57018e-11 -4.59365e-11 3.11869e-11
-1.1978e-11 2.58644e-10 -2.56821e-10
-9.93175e-11 9.95624e-11 -1.0351e-10
-8.44466e-11 -2.00433e-10 -8.26951e-10
-1.64496e-11 -7.0438e-11 -2.52349e-14
-9.06198e-11 1.54374e-10 -4.17122e-11
-4.65992e-12 -5.48035e-10 -8.00876e-10
7.00299e-11 1.81593e-11 -4.32005e-11
4.63722e-10 -4.66709e-10 2.58563e-10
1.63393e-10 1.76878e-10 -1.06709e-10
-3.22289e-10 -1.21324e-10 1.3968e-10
-2.29586e-10 -1.50107e-11 -3.06586e-11
-2.18904e-10 5.93924e-11 1.34511e-09
-2.3708e-10 5.79616e-11 3.48601e-10
2.51689e-11 3.81748e-12 -2.90864e-12
-3.31767e-10 2.31828e-10 -2.74711e-10
-4.68459e-10 1.20327e-10 -4.54914e-10
-8.9092e-12 1.37147e-11 -3.55586e-12
5.6758e-11 1.70287e-10 -2.91048e-10
3.99872e-12 -8.95632e-12 2.60953e-10
1.31976e-10 6.03948e-11 -5.80829e-11
-6.06946e-10 3.07464e-10 -2.5803e-10
-2.81925e-11 1.20907e-10 -2.28737e-11
1.82571e-11 -1.31702e-10 8.6489e-11
-5.70548e-11 -3.11866e-11 1.42722e-11
-4.57499e-11 8.20734e-12 2.63449e-11
-2.57369e-10 1.72757e-10 -1.39124e-10
1.00077e-10 -7.31996e-11 7.73514e-12
4.83714e-11 4.3333e-11 1.61811e-11
-5.77708e-11 5.0332e-12 2.63229e-12
-3.86139e-10 5.73498e-11 -5.12758e-11
5.75041e-11 1.43061e-10 -8.03026e-11
-1.31787e-11 -5.14152e-11 2.77453e-11
1.89007e-11 1.3909e-10 -1.41005e-10
3.52185e-10 -6.67149e-11 -1.01747e-10
-2.426e-10 7.41787e-11 2.14136e-10
-1.59258e-11 4.32747e-12 7.01854e-11
8.68828e-11 7.32365e-12 6.07323e-11
1.44043e-10 -2.10427e-10 -1.42942e-10
1.39709e-10 1.28937e-10 -1.54227e-10
-7.17438e-11 -1.59702e-10 8.40978e-11
6.91856e-11 -4.25447e-11 7.03051e-11
-2.20334e-10 6.68383e-11 3.12965e-11
1.53831e-10 2.52602e-11 -1.78349e-10
7.26671e-11 1.16143e-10 -6.00673e-11
1.07386e-10 -5.57706e-11 2.40036e-11
-6.45654e-11 -9.07638e-11 1.7472e-11
1.33896e-11 2.23064e-10 -2.14388e-10
3.40144e-11 -9.39158e-11 1.73577e-11
4.31407e-12 -9.53554e-11 -2.99748e-10
1.2716e-10 1.76169e-11 -2.65487e-11