# vtk DataFile Version 3.0
LIGGGHTS particles timestep 18200000
ASCII
DATASET POLYDATA
POINTS 287 float
0.118936 0.0163193 0.00792622
0.11941 0.0175152 0.00720668
0.112718 0.0158913 0.00832946
0.119256 0.0176379 0.00717146
0.118819 0.0162302 0.00801893
0.124938 0.0166051 0.00761653
0.119008 0.0168691 0.00741421
0.118712 0.015883 0.00836204
0.125193 0.0177355 0.00705353
0.118948 0.0166543 0.00761492
0.119472 0.0177008 0.00716424
0.112935 0.0167048 0.00778991
0.118797 0.0161594 0.00808627
0.112631 0.0155699 0.00854802
0.119139 0.0170654 0.00730506
0.112612 0.0154971 0.00861381
0.118927 0.0165836 0.00768227
0.125077 0.0171873 0.0072534
0.118776 0.0160888 0.00815363
0.118915 0.0162486 0.0079936
0.119043 0.0170335 0.00730921
0.113139 0.0171345 0.00749952
0.125134 0.0174491 0.00711987
0.118989 0.0167965 0.00748019
0.125018 0.0169377 0.00740909
0.113022 0.0170302 0.0075741
0.11924 0.0175417 0.00719405
0.118754 0.0160185 0.00822143
0.119295 0.0173844 0.00723396
0.119025 0.016944 0.0073503
0.119119 0.0169698 0.00732736
0.124959 0.0166881 0.00756476
0.118905 0.0165129 0.00774961
0.119102 0.0168893 0.00738408
0.125232 0.0179266 0.00700924
0.119065 0.0167457 0.00752024
0.119235 0.0170986 0.0073006
0.125154 0.0175446 0.00709776
0.118862 0.0163716 0.00788424
0.119063 0.0171301 0.00729324
0.119255 0.0171951 0.00728379
0.124979 0.0167713 0.00751287
0.125058 0.017104 0.00730534
0.118884 0.0164442 0.00781902
0.119103 0.0173192 0.00724261
0.125038 0.0170208 0.0073572
0.119163 0.0176027 0.0071765
0.119144 0.0175124 0.00721504
0.112913 0.0166234 0.00784387
0.125097 0.0172704 0.00720152
0.118893 0.0161779 0.00806095
0.112675 0.01573 0.00843643
0.119084 0.016817 0.00745255
0.124998 0.0168545 0.00746098
0.119161 0.0167617 0.00749714
0.11918 0.016835 0.00743184
0.11884 0.0163009 0.00795158
0.119274 0.0172892 0.00725611
0.119198 0.0173537 0.00724735
0.125115 0.0173589 0.00715867
0.113052 0.0168087 0.00771561
0.112987 0.0165646 0.00787749
0.119426 0.0176138 0.00718352
0.119333 0.0175769 0.007189
0.119001 0.0165318 0.00772386
0.125174 0.01764 0.00707565
0.112653 0.0156487 0.00849044
0.119317 0.01748 0.00721172
0.118969 0.0167252 0.00754749
0.119159 0.017161 0.00728276
0.113255 0.0176278 0.00717323
0.119274 0.0181453 0.00704989
0.112739 0.0159726 0.0082755
0.112956 0.0167861 0.00773596
0.1192 0.0177963 0.00720274
0.112891 0.0165421 0.00789782
0.113043 0.0171115 0.00752015
0.113082 0.0165872 0.00785711
0.125213 0.0178311 0.00703138
0.112856 0.0160766 0.0082012
0.119219 0.0174464 0.00721622
0.11914 0.0166908 0.00756458
0.119213 0.0178494 0.00711895
0.119264 0.0179065 0.00718363
0.119391 0.0174163 0.00722982
0.112978 0.0168675 0.00768201
0.119406 0.017856 0.00712446
0.119327 0.0179154 0.00710725
0.119463 0.0181433 0.00705735
0.119411 0.0179243 0.00719729
0.119425 0.0179516 0.0071021
0.112848 0.0163794 0.00800573
0.119232 0.0179449 0.00709665
0.11303 0.0167273 0.00776957
0.119349 0.0172259 0.00727414
0.112965 0.0164833 0.00793143
0.0643568 0.0187248 0.00531097
0.24257 0.0191927 0.00520306
0.113331 0.0175711 0.00720533
0.112805 0.0162167 0.00811364
0.113407 0.0175143 0.00723756
0.112761 0.016054 0.00822155
0.119045 0.0166742 0.00758825
0.119123 0.0174146 0.00722038
0.11935 0.018519 0.00696268
0.119404 0.0182974 0.00701804
0.11287 0.0164607 0.00795177
0.113645 0.0182761 0.00701585
0.113276 0.0173243 0.00736839
0.119179 0.0172564 0.00726054
0.119023 0.0166029 0.00765613
0.118872 0.0161072 0.0081283
0.112697 0.0158177 0.00839397
0.119198 0.0169196 0.00738159
0.118733 0.0159482 0.00828922
0.11869 0.0158179 0.00843486
0.119332 0.0184348 0.0070134
0.112901 0.016239 0.00809338
0.119308 0.0178199 0.00712955
0.11885 0.0160365 0.00819564
0.119083 0.0172239 0.00726486
0.112826 0.016298 0.00805968
0.119181 0.0176983 0.00719983
0.119428 0.0180204 0.00717464
0.11316 0.0172168 0.0074449
0.113008 0.016646 0.00782352
0.119258 0.0177354 0.00714804
0.119053 0.0164082 0.00783386
0.119216 0.0170106 0.00734401
0.118829 0.0159689 0.00826623
0.112835 0.0159952 0.00825515
0.119293 0.0182415 0.00702744
0.11898 0.0164609 0.0077914
0.119422 0.0183955 0.00699508
0.112878 0.0161579 0.00814724
0.113295 0.0174063 0.00731422
0.112783 0.0161353 0.00816759
0.113257 0.0172424 0.00742254
0.113104 0.0166686 0.00780315
0.112813 0.0159139 0.00830911
0.113106 0.0173559 0.00735823
0.119384 0.0182019 0.00704033
0.113147 0.0168313 0.00769521
0.113524 0.0176122 0.00716716
0.112943 0.0164019 0.00798538
0.113219 0.0174631 0.007282
0.113273 0.0177099 0.00711904
0.1132 0.0173811 0.00733619
0.0219312 0.0187687 0.00551176
0.113361 0.0179337 0.0070721
0.119349 0.0176748 0.00716598
0.113161 0.0176018 0.00719574
0.113124 0.0174378 0.00730408
0.113443 0.0180985 0.0069853
0.113577 0.0178713 0.00702733
0.11901 0.0162668 0.00796856
0.113125 0.0167499 0.00774919
0.113425 0.0175968 0.00718306
0.113632 0.0181641 0.00700425
0.113444 0.0176787 0.00712888
0.119032 0.0163375 0.00790121
0.11356 0.0177807 0.00706598
0.119504 0.0178929 0.00711916
0.113368 0.0177354 0.00709678
0.107127 0.0174518 0.00729474
0.113181 0.0172988 0.0073906
0.113197 0.0177661 0.00708739
0.113685 0.0180797 0.00699977
0.113591 0.0180471 0.00699032
0.113164 0.017615 0.00729481
0.118958 0.01639 0.00785887
0.113349 0.0176534 0.00715096
0.119486 0.0177971 0.00714158
0.113085 0.0172742 0.00741229
0.113175 0.0175286 0.00734397
0.11933 0.0171304 0.00729643
0.119346 0.0180123 0.007091
0.119371 0.0173211 0.00725199
0.107259 0.0176665 0.00721489
0.119313 0.018337 0.00700516
0.113371 0.0173501 0.00734598
0.119119 0.0166201 0.00763193
0.113192 0.0169951 0.00758656
0.113618 0.017951 0.00698291
0.112592 0.0154244 0.0086796
0.107184 0.0177241 0.00718288
0.113 0.0169488 0.00762805
0.113143 0.0175198 0.00724989
0.113117 0.0170531 0.0075535
0.113556 0.018232 0.00700562
0.113389 0.0174321 0.00729179
0.1195 0.0183348 0.00701255
0.113096 0.0169717 0.00760745
0.11341 0.0181344 0.00707222
0.113386 0.017818 0.00704226
0.112923 0.0163203 0.00803943
0.113237 0.0175451 0.00722783
0.11317 0.0169137 0.00764052
0.119313 0.0177772 0.00721984
0.119444 0.0180474 0.00707971
0.113462 0.017761 0.00707457
0.11931 0.017035 0.00731868
0.119542 0.0180841 0.00707451
0.10724 0.0175756 0.00725221
0.113179 0.0176839 0.0071415
0.119075 0.0164789 0.00776652
0.113309 0.0178744 0.0070104
0.119365 0.0181063 0.00706262
0.113235 0.0177808 0.00717852
0.107141 0.0171215 0.00743843
0.119097 0.0165495 0.00769921
0.113313 0.0174883 0.00726004
0.113065 0.0171955 0.00747051
0.119394 0.0177639 0.00716167
0.113542 0.0176941 0.00711298
0.107201 0.0173937 0.0073269
0.107146 0.0175426 0.00725748
0.113183 0.0176972 0.00724053
0.113479 0.0182966 0.00700667
0.107107 0.0173611 0.00733195
0.11306 0.0165058 0.00791109
0.113214 0.0170778 0.00753166
0.119253 0.0180434 0.00707368
0.113369 0.0186084 0.00702911
0.113543 0.0185487 0.00703509
0.113391 0.0187054 0.00703985
0.106923 0.0165458 0.00766576
0.106984 0.0168176 0.00755451
0.106902 0.0164616 0.00771562
0.113334 0.0171862 0.0074543
0.113073 0.01689 0.00766165
0.106943 0.0166364 0.00762868
0.107066 0.0171799 0.00740619
0.113325 0.0179637 0.00696444
0.113568 0.0183409 0.00701691
0.107203 0.0178149 0.00714559
0.113292 0.017792 0.00706508
0.119483 0.0182388 0.00703506
0.107242 0.0179965 0.00707102
0.107181 0.0173028 0.00736419
0.107046 0.0170893 0.00744327
0.112791 0.0158325 0.00836306
0.113402 0.0179033 0.00698606
0.113253 0.0180332 0.00696626
0.113295 0.0180778 0.00705936
0.107261 0.0180872 0.00703373
0.113237 0.0171607 0.00747661
0.113444 0.0185343 0.00702708
0.113465 0.0184367 0.00701913
0.107025 0.0169987 0.00748035
0.113273 0.0181307 0.00697739
0.107165 0.0176333 0.00722018
0.113504 0.0175304 0.00722128
0.113367 0.0181629 0.00698632
0.113282 0.0176298 0.00726965
0.113237 0.0179436 0.00700761
0.119523 0.0179885 0.0070968
0.113479 0.0178448 0.0070193
0.1073 0.0182688 0.00695916
0.113309 0.0183222 0.00701725
0.10728 0.018178 0.00699645
0.113348 0.0180646 0.00697562
0.113216 0.0178506 0.00703744
0.113328 0.0184167 0.00704401
0.113425 0.0180008 0.0069747
0.107087 0.0172704 0.00736911
0.107279 0.0177573 0.00717757
0.113313 0.0171045 0.00750836
0.107161 0.0172121 0.00740135
0.106964 0.016727 0.0075916
0.113402 0.01836 0.00700754
0.113386 0.0182618 0.00699707
0.113291 0.0182284 0.00698749
0.113462 0.0181972 0.00699617
0.113392 0.0183722 0.00710633
0.113292 0.017023 0.00756237
0.113352 0.0172681 0.00740015
0.113538 0.0181316 0.0069948
0.113039 0.0164245 0.00796503
0.113497 0.0179316 0.00697293
0.113347 0.0185113 0.00701836
0.107221 0.0174846 0.00728959
0.113464 0.0186376 0.00703831
0.119287 0.0169402 0.00734064
0.107005 0.0169081 0.00751743
0.107223 0.0179057 0.00710831
0.11958 0.0178307 0.00713694

VERTICES 287 574
1 0
1 1
1 2
1 3
1 4
1 5
1 6
1 7
1 8
1 9
1 10
1 11
1 12
1 13
1 14
1 15
1 16
1 17
1 18
1 19
1 20
1 21
1 22
1 23
1 24
1 25
1 26
1 27
1 28
1 29
1 30
1 31
1 32
1 33
1 34
1 35
1 36
1 37
1 38
1 39
1 40
1 41
1 42
1 43
1 44
1 45
1 46
1 47
1 48
1 49
1 50
1 51
1 52
1 53
1 54
1 55
1 56
1 57
1 58
1 59
1 60
1 61
1 62
1 63
1 64
1 65
1 66
1 67
1 68
1 69
1 70
1 71
1 72
1 73
1 74
1 75
1 76
1 77
1 78
1 79
1 80
1 81
1 82
1 83
1 84
1 85
1 86
1 87
1 88
1 89
1 90
1 91
1 92
1 93
1 94
1 95
1 96
1 97
1 98
1 99
1 100
1 101
1 102
1 103
1 104
1 105
1 106
1 107
1 108
1 109
1 110
1 111
1 112
1 113
1 114
1 115
1 116
1 117
1 118
1 119
1 120
1 121
1 122
1 123
1 124
1 125
1 126
1 127
1 128
1 129
1 130
1 131
1 132
1 133
1 134
1 135
1 136
1 137
1 138
1 139
1 140
1 141
1 142
1 143
1 144
1 145
1 146
1 147
1 148
1 149
1 150
1 151
1 152
1 153
1 154
1 155
1 156
1 157
1 158
1 159
1 160
1 161
1 162
1 163
1 164
1 165
1 166
1 167
1 168
1 169
1 170
1 171
1 172
1 173
1 174
1 175
1 176
1 177
1 178
1 179
1 180
1 181
1 182
1 183
1 184
1 185
1 186
1 187
1 188
1 189
1 190
1 191
1 192
1 193
1 194
1 195
1 196
1 197
1 198
1 199
1 200
1 201
1 202
1 203
1 204
1 205
1 206
1 207
1 208
1 209
1 210
1 211
1 212
1 213
1 214
1 215
1 216
1 217
1 218
1 219
1 220
1 221
1 222
1 223
1 224
1 225
1 226
1 227
1 228
1 229
1 230
1 231
1 232
1 233
1 234
1 235
1 236
1 237
1 238
1 239
1 240
1 241
1 242
1 243
1 244
1 245
1 246
1 247
1 248
1 249
1 250
1 251
1 252
1 253
1 254
1 255
1 256
1 257
1 258
1 259
1 260
1 261
1 262
1 263
1 264
1 265
1 266
1 267
1 268
1 269
1 270
1 271
1 272
1 273
1 274
1 275
1 276
1 277
1 278
1 279
1 280
1 281
1 282
1 283
1 284
1 285
1 286

POINT_DATA 287
SCALARS id int 1
LOOKUP_TABLE default
1
2
3
4
5
6
7
8
9
10
11
12
13
14
15
16
17
18
19
21
22
23
24
25
26
27
28
29
30
31
32
33
34
35
36
37
38
39
41
42
44
45
46
47
48
49
50
51
52
53
54
55
56
57
59
60
61
62
63
64
65
66
67
68
69
70
71
72
73
74
76
77
78
79
80
81
82
83
84
85
86
87
88
89
90
91
92
93
94
95
96
97
98
99
100
101
102
103
104
105
106
107
108
109
110
111
112
113
114
115
116
117
118
119
120
121
122
123
124
125
126
127
128
129
130
131
132
133
134
135
136
137
138
140
141
142
143
144
146
147
148
149
150
151
153
154
155
156
157
158
159
160
162
164
165
166
167
168
169
170
171
172
173
174
175
176
177
178
179
181
182
183
184
185
186
187
188
189
190
191
192
193
194
195
196
197
198
199
200
201
202
203
204
205
206
207
208
209
210
211
212
213
214
215
216
217
218
219
220
221
222
223
224
225
226
227
228
229
230
231
232
233
234
235
236
237
239
240
241
242
243
244
246
247
248
249
250
251
252
253
254
255
256
257
258
259
260
261
262
263
264
265
266
267
268
269
270
271
272
273
274
275
276
277
278
279
280
281
282
283
284
285
286
287
288
289
290
291
292
293
294
295
296
297
298
299
300

SCALARS type int 1
LOOKUP_TABLE default
1
1
1
1
1
1
1
1
1
1
1
1
1
1
1
1
1
1
1
1
1
1
1
1
1
1
1
1
1
1
1
1
1
1
1
1
1
1
1
1
1
1
1
1
1
1
1
1
1
1
1
1
1
1
1
1
1
1
1
1
1
1
1
1
1
1
1
1
1
1
1
1
1
1
1
1
1
1
1
1
1
1
1
1
1
1
1
1
1
1
1
1
1
1
1
1
1
1
1
1
1
1
1
1
1
1
1
1
1
1
1
1
1
1
1
1
1
1
1
1
1
1
1
1
1
1
1
1
1
1
1
1
1
1
1
1
1
1
1
1
1
1
1
1
1
1
1
1
1
1
1
1
1
1
1
1
1
1
1
1
1
1
1
1
1
1
1
1
1
1
1
1
1
1
1
1
1
1
1
1
1
1
1
1
1
1
1
1
1
1
1
1
1
1
1
1
1
1
1
1
1
1
1
1
1
1
1
1
1
1
1
1
1
1
1
1
1
1
1
1
1
1
1
1
1
1
1
1
1
1
1
1
1
1
1
1
1
1
1
1
1
1
1
1
1
1
1
1
1
1
1
1
1
1
1
1
1
1
1
1
1
1
1
1
1
1
1
1
1
1
1
1
1
1
1
1
1
1
1
1
1
1
1
1
1
1
1

SCALARS radius float 1
LOOKUP_TABLE default
5e-05
5e-05
5e-05
5e-05
5e-05
5e-05
5e-05
5e-05
5e-05
5e-05
5e-05
5e-05
5e-05
5e-05
5e-05
5e-05
5e-05
5e-05
5e-05
5e-05
5e-05
5e-05
5e-05
5e-05
5e-05
5e-05
5e-05
5e-05
5e-05
5e-05
5e-05
5e-05
5e-05
5e-05
5e-05
5e-05
5e-05
5e-05
5e-05
5e-05
5e-05
5e-05
5e-05
5e-05
5e-05
5e-05
5e-05
5e-05
5e-05
5e-05
5e-05
5e-05
5e-05
5e-05
5e-05
5e-05
5e-05
5e-05
5e-05
5e-05
5e-05
5e-05
5e-05
5e-05
5e-05
5e-05
5e-05
5e-05
5e-05
5e-05
5e-05
5e-05
5e-05
5e-05
5e-05
5e-05
5e-05
5e-05
5e-05
5e-05
5e-05
5e-05
5e-05
5e-05
5e-05
5e-05
5e-05
5e-05
5e-05
5e-05
5e-05
5e-05
5e-05
5e-05
5e-05
5e-05
5e-05
5e-05
5e-05
5e-05
5e-05
5e-05
5e-05
5e-05
5e-05
5e-05
5e-05
5e-05
5e-05
5e-05
5e-05
5e-05
5e-05
5e-05
5e-05
5e-05
5e-05
5e-05
5e-05
5e-05
5e-05
5e-05
5e-05
5e-05
5e-05
5e-05
5e-05
5e-05
5e-05
5e-05
5e-05
5e-05
5e-05
5e-05
5e-05
5e-05
5e-05
5e-05
5e-05
5e-05
5e-05
5e-05
5e-05
5e-05
5e-05
5e-05
5e-05
5e-05
5e-05
5e-05
5e-05
5e-05
5e-05
5e-05
5e-05
5e-05
5e-05
5e-05
5e-05
5e-05
5e-05
5e-05
5e-05
5e-05
5e-05
5e-05
5e-05
5e-05
5e-05
5e-05
5e-05
5e-05
5e-05
5e-05
5e-05
5e-05
5e-05
5e-05
5e-05
5e-05
5e-05
5e-05
5e-05
5e-05
5e-05
5e-05
5e-05
5e-05
5e-05
5e-05
5e-05
5e-05
5e-05
5e-05
5e-05
5e-05
5e-05
5e-05
5e-05
5e-05
5e-05
5e-05
5e-05
5e-05
5e-05
5e-05
5e-05
5e-05
5e-05
5e-05
5e-05
5e-05
5e-05
5e-05
5e-05
5e-05
5e-05
5e-05
5e-05
5e-05
5e-05
5e-05
5e-05
5e-05
5e-05
5e-05
5e-05
5e-05
5e-05
5e-05
5e-05
5e-05
5e-05
5e-05
5e-05
5e-05
5e-05
5e-05
5e-05
5e-05
5e-05
5e-05
5e-05
5e-05
5e-05
5e-05
5e-05
5e-05
5e-05
5e-05
5e-05
5e-05
5e-05
5e-05
5e-05
5e-05
5e-05
5e-05
5e-05
5e-05
5e-05
5e-05
5e-05
5e-05
5e-05
5e-05
5e-05
5e-05
5e-05
5e-05
5e-05
5e-05
5e-05
5e-05
5e-05
5e-05
5e-05
5e-05
5e-05
5e-05
5e-05
5e-05
5e-05
5e-05
5e-05
5e-05
5e-05

SCALARS mass float 1
LOOKUP_TABLE default
1.46608e-10
1.46608e-10
1.46608e-10
1.46608e-10
1.46608e-10
1.46608e-10
1.46608e-10
1.46608e-10
1.46608e-10
1.46608e-10
1.46608e-10
1.46608e-10
1.46608e-10
1.46608e-10
1.46608e-10
1.46608e-10
1.46608e-10
1.46608e-10
1.46608e-10
1.46608e-10
1.46608e-10
1.46608e-10
1.46608e-10
1.46608e-10
1.46608e-10
1.46608e-10
1.46608e-10
1.46608e-10
1.46608e-10
1.46608e-10
1.46608e-10
1.46608e-10
1.46608e-10
1.46608e-10
1.46608e-10
1.46608e-10
1.46608e-10
1.46608e-10
1.46608e-10
1.46608e-10
1.46608e-10
1.46608e-10
1.46608e-10
1.46608e-10
1.46608e-10
1.46608e-10
1.46608e-10
1.46608e-10
1.46608e-10
1.46608e-10
1.46608e-10
1.46608e-10
1.46608e-10
1.46608e-10
1.46608e-10
1.46608e-10
1.46608e-10
1.46608e-10
1.46608e-10
1.46608e-10
1.46608e-10
1.46608e-10
1.46608e-10
1.46608e-10
1.46608e-10
1.46608e-10
1.46608e-10
1.46608e-10
1.46608e-10
1.46608e-10
1.46608e-10
1.46608e-10
1.46608e-10
1.46608e-10
1.46608e-10
1.46608e-10
1.46608e-10
1.46608e-10
1.46608e-10
1.46608e-10
1.46608e-10
1.46608e-10
1.46608e-10
1.46608e-10
1.46608e-10
1.46608e-10
1.46608e-10
1.46608e-10
1.46608e-10
1.46608e-10
1.46608e-10
1.46608e-10
1.46608e-10
1.46608e-10
1.46608e-10
1.46608e-10
1.46608e-10
1.46608e-10
1.46608e-10
1.46608e-10
1.46608e-10
1.46608e-10
1.46608e-10
1.46608e-10
1.46608e-10
1.46608e-10
1.46608e-10
1.46608e-10
1.46608e-10
1.46608e-10
1.46608e-10
1.46608e-10
1.46608e-10
1.46608e-10
1.46608e-10
1.46608e-10
1.46608e-10
1.46608e-10
1.46608e-10
1.46608e-10
1.46608e-10
1.46608e-10
1.46608e-10
1.46608e-10
1.46608e-10
1.46608e-10
1.46608e-10
1.46608e-10
1.46608e-10
1.46608e-10
1.46608e-10
1.46608e-10
1.46608e-10
1.46608e-10
1.46608e-10
1.46608e-10
1.46608e-10
1.46608e-10
1.46608e-10
1.46608e-10
1.46608e-10
1.46608e-10
1.46608e-10
1.46608e-10
1.46608e-10
1.46608e-10
1.46608e-10
1.46608e-10
1.46608e-10
1.46608e-10
1.46608e-10
1.46608e-10
1.46608e-10
1.46608e-10
1.46608e-10
1.46608e-10
1.46608e-10
1.46608e-10
1.46608e-10
1.46608e-10
1.46608e-10
1.46608e-10
1.46608e-10
1.46608e-10
1.46608e-10
1.46608e-10
1.46608e-10
1.46608e-10
1.46608e-10
1.46608e-10
1.46608e-10
1.46608e-10
1.46608e-10
1.46608e-10
1.46608e-10
1.46608e-10
1.46608e-10
1.46608e-10
1.46608e-10
1.46608e-10
1.46608e-10
1.46608e-10
1.46608e-10
1.46608e-10
1.46608e-10
1.46608e-10
1.46608e-10
1.46608e-10
1.46608e-10
1.46608e-10
1.46608e-10
1.46608e-10
1.46608e-10
1.46608e-10
1.46608e-10
1.46608e-10
1.46608e-10
1.46608e-10
1.46608e-10
1.46608e-10
1.46608e-10
1.46608e-10
1.46608e-10
1.46608e-10
1.46608e-10
1.46608e-10
1.46608e-10
1.46608e-10
1.46608e-10
1.46608e-10
1.46608e-10
1.46608e-10
1.46608e-10
1.46608e-10
1.46608e-10
1.46608e-10
1.46608e-10
1.46608e-10
1.46608e-10
1.46608e-10
1.46608e-10
1.46608e-10
1.46608e-10
1.46608e-10
1.46608e-10
1.46608e-10
1.46608e-10
1.46608e-10
1.46608e-10
1.46608e-10
1.46608e-10
1.46608e-10
1.46608e-10
1.46608e-10
1.46608e-10
1.46608e-10
1.46608e-10
1.46608e-10
1.46608e-10
1.46608e-10
1.46608e-10
1.46608e-10
1.46608e-10
1.46608e-10
1.46608e-10
1.46608e-10
1.46608e-10
1.46608e-10
1.46608e-10
1.46608e-10
1.46608e-10
1.46608e-10
1.46608e-10
1.46608e-10
1.46608e-10
1.46608e-10
1.46608e-10
1.46608e-10
1.46608e-10
1.46608e-10
1.46608e-10
1.46608e-10
1.46608e-10
1.46608e-10
1.46608e-10
1.46608e-10
1.46608e-10
1.46608e-10
1.46608e-10
1.46608e-10
1.46608e-10
1.46608e-10
1.46608e-10
1.46608e-10
1.46608e-10
1.46608e-10
1.46608e-10
1.46608e-10
1.46608e-10
1.46608e-10
1.46608e-10
1.46608e-10
1.46608e-10
1.46608e-10
1.46608e-10
1.46608e-10
1.46608e-10

VECTORS velocity float
0.00607078 -0.000448285 -0.000108095
0.00563199 -3.00844e-05 0.000213942
0.00587481 -0.00073845 0.000120186
0.00560635 -4.4108e-05 0.000217701
0.00601809 -0.000432975 -0.00011604
0.00627026 0.000133685 -0.000158299
0.00568525 -0.000254324 -0.000105716
0.00593438 -0.000155621 0.000185212
0.00563028 0.000332348 -1.99302e-05
0.00613807 -0.000426076 -0.000128953
0.00558703 8.50996e-06 0.000204063
0.0057889 -0.000751552 0.000137555
0.00599629 -0.000430402 -0.000114165
0.00589867 -0.000263391 0.000726625
0.00580907 -2.44326e-05 0.00021502
0.00571433 -0.000228096 0.000688352
0.00609146 -0.000431466 -0.000123753
0.00564158 0.000228096 -0.000210126
0.00597436 -0.000437076 -0.000114272
0.00602046 -0.000443651 -0.000108844
0.00584741 -5.66829e-05 0.000232196
0.00578242 -0.000597733 3.76526e-05
0.00576487 0.000295155 -9.01329e-06
0.00577196 -0.000353918 -0.000178115
0.00580993 0.000201267 -0.000195084
0.00575836 -0.000712554 0.000114513
0.00559995 -2.62361e-05 0.000212419
0.00597318 -0.00029605 3.49237e-05
0.00559624 -1.83135e-05 0.000210527
0.00578136 -0.000108945 9.4043e-05
0.00578768 -3.97313e-05 0.000217699
0.00570223 0.000234794 -0.000214356
0.00607138 -0.000440185 -0.000116542
0.00577909 -0.000324055 -0.000194618
0.00564999 0.000333435 -2.01982e-05
0.00585215 -0.000275754 -0.000252469
0.00554384 -1.66914e-05 0.000206787
0.0057767 0.000296759 -1.02263e-05
0.00604984 -0.000441933 -0.000112452
0.00575616 -4.3396e-05 0.000242784
0.00551168 -2.53329e-06 0.000199142
0.00574407 0.000226262 -0.000209016
0.00567819 0.000222958 -0.000206453
0.00606876 -0.000443962 -0.000112342
0.00558125 -2.59668e-05 0.000211519
0.00585315 0.000196899 -0.000192113
0.00560564 -3.24287e-05 0.000214574
0.00561111 -2.60933e-05 0.000220257
0.00579247 -0.00075607 0.000140256
0.00563543 0.00022698 -0.000209928
0.00600839 -0.000442616 -0.0001064
0.00589565 -0.00072248 0.000125097
0.00563674 -0.000353098 -0.000161194
0.0057809 0.000213241 -0.000201732
0.00588548 -0.000326505 -0.000197256
0.00562359 -0.000252869 -0.000191923
0.00602602 -0.000436269 -0.00011555
0.00553109 -2.21451e-06 0.000203299
0.00558994 -1.63112e-06 0.000206448
0.00568601 0.000265608 -0.000108571
0.00577975 -0.000736042 0.000127809
0.00579312 -0.000742612 0.000131244
0.00561015 -4.45358e-06 0.000206447
0.0056208 -3.69816e-05 0.000215095
0.00613947 -0.000398441 -0.000159857
0.00578962 0.000297439 -9.95333e-06
0.00590659 -0.000662441 0.000205271
0.00560283 -4.68856e-06 0.000206745
0.00604687 -0.000405651 -0.000145191
0.00555597 -9.44843e-06 0.000206125
0.00540862 -0.000585161 6.04021e-05
0.00553874 -5.30378e-06 0.000204636
0.00586773 -0.000742432 0.000127601
0.00578479 -0.00074554 0.000133892
0.00539253 -1.60561e-05 0.000191293
0.00580057 -0.000760843 0.000142808
0.00577787 -0.000708161 0.000110473
0.00579286 -0.000738575 0.000128608
0.00564588 0.000332927 -1.95761e-05
0.00586635 -0.000749091 0.000130542
0.00561131 -9.83777e-06 0.000208888
0.00607134 -0.000359608 -0.000189798
0.00546912 -2.08124e-05 0.000207516
0.00549576 -4.01376e-05 0.000197998
0.00555445 -3.23132e-05 0.000211888
0.00577986 -0.000737773 0.000128897
0.00552949 -2.44179e-05 0.000208467
0.00549674 -6.92538e-06 0.000202268
0.00554469 -2.86643e-05 0.000210401
0.00553317 -3.03201e-05 0.000210164
0.00553294 -2.53607e-05 0.00020927
0.00582166 -0.000764657 0.000144
0.00548027 -2.8532e-05 0.000207808
0.00578381 -0.000740486 0.000130488
0.00551567 8.60463e-06 0.000200982
0.00580518 -0.000745998 0.000132805
4.18523e-15 1.0529e-14 8.29603e-14
-1.01195e-22 4.86658e-23 1.23839e-22
0.00539006 -0.000588815 5.79667e-05
0.00584107 -0.000755172 0.000135802
0.00539453 -0.000579746 4.97601e-05
0.00585814 -0.000745073 0.000129931
0.00607622 -0.000413588 -0.000140424
0.00559058 -2.72142e-05 0.000220582
0.00556722 -4.62468e-05 0.000214775
0.00553474 -3.42382e-05 0.000211037
0.00581196 -0.000764002 0.000144167
0.00498514 -0.000472504 0.000290608
0.0054085 -0.000610542 6.89668e-05
0.0055588 1.44983e-06 0.000204308
0.0061749 -0.000402839 -0.00015879
0.00598441 -0.000442121 -0.000105423
0.00588375 -0.000733978 0.000113047
0.005401 -0.000180114 -0.000167963
0.00596496 -0.000151423 0.000184731
0.00589759 -0.000155538 0.000183607
0.00552751 -3.02114e-05 0.000213908
0.0058339 -0.000740521 0.000127262
0.00544482 2.08756e-06 0.000198422
0.00596052 -0.000439588 -0.000107773
0.00557143 -1.77928e-05 0.000209828
0.00582979 -0.000761626 0.000140844
0.00540189 6.54776e-06 0.000201971
0.0055611 -3.23639e-05 0.000212342
0.00556632 -0.000617595 6.43364e-05
0.00578964 -0.000744421 0.000132645
0.0053953 1.08525e-05 0.00018708
0.00617055 -0.000337352 -0.000219366
0.00538671 -8.74306e-05 1.75117e-05
0.00597793 -0.000152655 0.000177031
0.00587553 -0.000754169 0.000134423
0.00554438 -2.51897e-05 0.000209293
0.00608889 -0.000412752 -0.000143084
0.00552703 -2.03895e-05 0.000208073
0.00586084 -0.000746756 0.000128962
0.00541194 -0.000605673 6.567e-05
0.00585369 -0.000750536 0.000131937
0.00539106 -0.0006159 7.33103e-05
0.00579053 -0.000737777 0.000128262
0.00587633 -0.000755438 0.000135032
0.00541343 -0.000616238 7.21751e-05
0.00553952 -2.78763e-05 0.00020998
0.00578159 -0.000723019 0.000119251
0.00540753 -0.000601626 5.97446e-05
0.00582345 -0.000748861 0.00013354
0.00543282 -0.000603566 5.92988e-05
0.00538334 -0.000588048 6.33479e-05
0.0054204 -0.000608703 6.66455e-05
-3.83796e-14 8.16372e-14 2.9589e-13
0.0047203 0.000707074 -0.000682431
0.00559166 -3.76506e-05 0.000213469
0.00542265 -0.000601721 6.61632e-05
0.00543106 -0.000613254 6.77307e-05
0.00536912 -0.000636996 0.000299699
0.00538418 -0.000533948 0.000285529
0.00611377 -0.000425443 -0.000132971
0.00578596 -0.000735409 0.000127027
0.0054159 -0.00056389 3.93867e-05
0.00510093 -0.000541462 0.000292358
0.00546426 -0.000499708 -6.30273e-06
0.00612193 -0.000399303 -0.000157999
0.00540977 -0.000582571 0.000167372
0.00552189 -7.78988e-06 0.000204659
0.00538305 -0.00057716 4.72463e-05
0.00544679 -0.000337821 0.000664554
0.00539374 -0.000620316 7.62646e-05
0.00541521 -0.000621898 2.8996e-05
0.00515872 -0.000584486 0.000291681
0.00515183 -0.000526393 0.000298072
0.00542543 -0.000615025 6.7635e-05
0.00606953 -0.000442543 -0.000113612
0.00540529 -0.000581002 5.11316e-05
0.0055389 -5.18683e-08 0.000203848
0.00551368 -0.000643779 8.44619e-05
0.00543795 -0.000615682 6.244e-05
0.00553495 1.91965e-05 0.000197764
0.0055274 -1.75451e-05 0.000209051
0.00549226 -3.10179e-06 0.000202784
0.00535414 -0.000332306 0.00065335
0.00554709 -3.18495e-05 0.000210779
0.00538673 -0.000570042 4.41125e-05
0.00614506 -0.000355106 -0.000200892
0.00610383 -0.000522857 -2.97648e-05
0.00527968 -0.000474219 0.000310709
0.00549766 -0.000196373 0.000638491
0.00536283 -0.000323572 0.000650371
0.00576983 -0.000727752 0.000123094
0.00543356 -0.000612931 6.62486e-05
0.00591845 -0.000641791 5.86725e-05
0.00524148 -0.000976675 0.000258481
0.00539688 -0.000573925 4.58525e-05
0.00551562 -3.02727e-05 0.000209782
0.00583812 -0.000623648 5.16961e-05
0.00551432 -0.00053361 0.000309466
0.00541278 -0.000665622 0.00010216
0.00582486 -0.000742632 0.000129466
0.00542027 -0.000600858 6.26766e-05
0.00604917 -0.000418488 -9.39899e-05
0.00544083 -2.97105e-05 0.000174125
0.00553 -1.9776e-05 0.000208449
0.0053945 -0.000576589 6.77212e-05
0.00557793 1.94947e-05 0.000199635
0.00553891 -3.5024e-05 0.000212225
0.00534422 -0.000316916 0.000645846
0.0054196 -0.000596177 6.23149e-05
0.00622583 -0.000339178 -0.000222872
0.00540952 -0.00063207 8.51002e-05
0.00553772 -1.77449e-05 0.000208294
0.00552326 -0.000433203 -2.84035e-05
0.00560817 -0.000367868 0.000692925
0.00605472 -0.000320458 -0.00022543
0.00541258 -0.000601845 6.22867e-05
0.00570817 -0.000684053 9.90247e-05
0.0055533 -2.56084e-05 0.000207602
0.00540033 -0.000610333 7.67795e-05
0.00544287 -0.00034162 0.000665844
0.00531831 -0.000317653 0.000643613
0.00543356 -0.000545911 5.61793e-05
0.00530197 -0.000867611 0.000273613
0.00542379 -0.00033442 0.000660929
0.00578536 -0.000741639 0.000131068
0.00579373 -0.000561652 1.39698e-05
0.00551553 -5.86354e-05 0.000217392
0.00580254 -0.000627142 0.000331133
0.00579937 -0.000604029 0.000332475
0.00579774 -0.000635206 0.000328831
0.00554103 -0.000345655 0.000676976
0.00557061 -0.000355649 0.000684035
0.00605954 -0.000759606 0.00018899
0.00553785 -0.000601504 5.53936e-05
0.00577557 -0.000730153 0.000124221
0.00555087 -0.000348936 0.000679058
0.00561173 -0.000364341 0.000691709
0.0054975 -0.000513114 0.000337977
0.00512432 -0.00048538 0.000299682
0.00542066 -0.000331116 0.000658991
0.00538033 -0.000603572 5.42165e-05
0.00552466 -3.06073e-05 0.000210228
0.0054692 -0.000338496 0.000667158
0.00542294 -0.000335031 0.000661125
0.00560183 -0.000362385 0.000689912
0.00585355 -0.000758662 0.000138097
0.00542086 -0.000730572 0.000149306
0.0055253 -0.000503313 0.000326956
0.00548203 -0.000538554 0.000306458
0.00549369 -0.000341849 0.000670637
0.00555785 -0.000646052 8.28031e-05
0.0058073 -0.000580578 0.00033748
0.00544614 -0.000673623 0.000302475
0.00559125 -0.000360411 0.000688261
0.00552181 -0.000493388 0.000324032
0.005342 -0.000319603 0.000646854
0.0053936 -0.000587833 5.55416e-05
0.00552394 -0.000454538 0.000330352
0.00552959 -0.000524639 2.93572e-05
0.00545171 -0.000546207 0.000249718
0.00552216 -2.08543e-05 0.000207781
0.00546959 -0.000731212 0.000145589
0.00554551 -0.000342676 0.000676472
0.0053402 -0.000480897 0.000347215
0.00551837 -0.000343189 0.000673543
0.00553358 -0.000440136 0.000330283
0.00539537 -0.000590154 7.24023e-05
0.00554397 -0.000545234 0.000393663
0.00537502 -0.000637271 0.000297809
0.00562289 -0.000365612 0.000693395
0.00541583 -0.000335567 0.000660678
0.00560049 -0.000618842 6.28521e-05
0.00561928 -0.000369432 0.000694662
0.0055605 -0.000352301 0.000681873
0.00541733 -0.000662044 0.000298391
0.00520731 -0.000597013 0.00029425
0.00549786 -0.000499673 0.000322889
0.00513007 -0.000627932 0.000285401
0.00553864 -0.000729908 0.000315629
0.00569283 -0.000642485 7.24814e-05
0.00544398 -0.000581284 4.78693e-05
0.0051204 -0.000576764 0.000288908
0.00579954 -0.000747926 0.000134271
0.00540031 -0.000611423 0.000293826
0.00580379 -0.000617462 0.000338186
0.00540448 -0.00022527 0.000612059
0.00580008 -0.000616486 0.00033137
0.00552482 3.3624e-05 0.000199829
0.00558094 -0.000358391 0.00068608
0.0054453 -0.000334473 0.000663071
0.00553137 1.41959e-05 0.000199873

VECTORS force float
-1.48116e-10 2.20755e-11 -4.41202e-12
-4.2313e-11 -1.70759e-11 -4.47728e-12
-1.49379e-10 -7.76903e-11 1.88472e-11
-3.75642e-11 -5.90269e-11 5.07919e-11
-6.4281e-11 -1.92278e-11 4.22218e-11
-7.94626e-12 -1.07221e-10 6.53778e-11
-1.19987e-10 2.55113e-10 -1.58977e-10
-8.44722e-11 3.87084e-11 -4.37682e-12
2.31611e-11 -1.01058e-10 2.58828e-11
-8.90309e-11 7.62307e-11 -4.11165e-11
-3.02427e-10 -8.79917e-11 1.0343e-11
1.30346e-11 3.5593e-11 -1.95709e-11
-7.63432e-11 -7.50762e-11 2.42751e-11
-5.75069e-11 -2.20245e-10 2.42282e-10
-4.9159e-10 3.11094e-10 -1.49641e-10
-3.08707e-11 -2.85925e-10 2.54302e-10
8.08953e-11 9.62376e-11 -7.2407e-11
3.67058e-11 1.53622e-11 -1.95854e-12
5.35544e-11 -5.7946e-11 -5.05807e-11
-2.81764e-11 4.18927e-11 -1.58896e-11
-1.31357e-10 2.34202e-12 -5.74655e-11
-3.01311e-10 -1.09598e-10 7.68704e-11
-2.52241e-11 2.64229e-11 -2.52385e-11
-1.42489e-10 2.23912e-11 -1.9935e-10
6.82283e-12 9.6578e-11 -3.03363e-11
1.61701e-10 1.41278e-10 -1.07821e-10
-1.25463e-10 4.08248e-11 -1.40475e-11
1.37185e-10 3.26999e-11 -1.53438e-10
-4.51748e-11 -3.79715e-11 -1.13266e-11
-1.93008e-10 1.88689e-10 -7.27309e-11
-3.21731e-10 2.5114e-10 -1.11402e-10
1.2985e-11 -5.77795e-11 2.84627e-11
1.19449e-10 2.3319e-11 -2.26756e-11
-2.14779e-10 2.27593e-10 -1.35682e-10
3.84155e-11 -1.02741e-10 1.72513e-11
2.71416e-10 3.11983e-10 -2.52555e-10
3.1898e-10 6.71167e-11 1.16568e-10
-2.55511e-11 -9.82011e-12 4.18644e-12
-1.14219e-10 -8.79195e-11 8.86817e-11
-4.38437e-10 4.15027e-11 1.16192e-10
-7.24343e-11 1.02047e-11 -5.81174e-11
-1.2899e-10 1.85871e-11 -1.5719e-12
1.24514e-10 4.58762e-11 -1.67999e-11
2.8882e-11 -2.78189e-11 3.44142e-11
1.29856e-11 -1.34793e-11 7.68598e-11
-1.98598e-10 1.64145e-10 -7.12353e-11
-6.35532e-11 -8.10541e-11 3.20142e-11
-2.45315e-11 3.229e-11 -2.22544e-11
-1.58199e-11 -3.87075e-11 2.55476e-11
-4.53235e-11 4.88431e-11 -2.74602e-11
3.01191e-12 1.81712e-11 1.10993e-11
3.38044e-11 -7.23464e-11 7.96975e-11
8.31285e-11 2.67808e-10 -2.03876e-10
8.41939e-11 3.56413e-11 -3.04935e-11
4.26041e-11 -9.15297e-11 -9.58481e-11
3.3605e-10 -1.31083e-10 -5.63189e-11
-6.14761e-11 -2.12469e-11 3.80203e-11
-1.08231e-10 7.59698e-12 -1.98999e-11
-8.14226e-11 -3.01483e-11 2.86209e-11
-2.39299e-11 6.60379e-11 -3.48101e-11
5.54763e-11 8.73131e-11 -6.11754e-11
-3.03985e-11 1.70308e-11 -8.49721e-12
-1.46726e-10 3.28744e-11 -1.71776e-11
-3.43229e-11 -4.83452e-11 4.35882e-11
-1.70901e-11 2.36938e-10 -2.0308e-10
7.47815e-11 -3.4998e-11 5.39002e-12