# vtk DataFile Version 3.0
LIGGGHTS particles timestep 13600000
ASCII
DATASET POLYDATA
POINTS 287 float
0.092112 0.0162731 0.00791099
0.0925502 0.017335 0.00722913
0.0859547 0.0160128 0.00811238
0.092423 0.0175894 0.00705327
0.0919964 0.0161613 0.00797558
0.0981217 0.0166598 0.00761047
0.0921748 0.0169149 0.00751701
0.0918936 0.015746 0.00823426
0.0983726 0.0177924 0.00709025
0.0921166 0.0166635 0.00767004
0.0925871 0.0174957 0.00711595
0.086146 0.0167636 0.00752207
0.0919758 0.0160777 0.00802642
0.0858728 0.0157567 0.00841138
0.0923085 0.0171109 0.00739959
0.085851 0.0156912 0.00848376
0.0920972 0.0165797 0.00772105
0.0982542 0.0172214 0.00723138
0.0919552 0.0159941 0.00807727
0.0920914 0.0161895 0.00796185
0.0922137 0.0170824 0.00741502
0.0863191 0.0171594 0.00736881
0.0983126 0.017507 0.00716077
0.0921553 0.0168311 0.00756801
0.0981963 0.0169591 0.00735577
0.0862244 0.0171283 0.00737727
0.0924048 0.0175086 0.00711163
0.0919347 0.0159105 0.00812813
0.0924426 0.0172955 0.00726195
0.0921943 0.0169987 0.00746602
0.0922889 0.0170277 0.00745172
0.0981403 0.0167346 0.00754679
0.0920775 0.0164959 0.00777201
0.0922695 0.0169439 0.00750272
0.0984156 0.017982 0.00704337
0.0922306 0.0167763 0.00760473
0.0923851 0.0170578 0.00743569
0.098332 0.0176023 0.00713724
0.0920375 0.0163285 0.00787387
0.0922332 0.0171658 0.00736337
0.0924043 0.0171375 0.0073785
0.098159 0.0168095 0.00748312
0.0982348 0.0171261 0.00725492
0.0920575 0.0164122 0.00782295
0.0922717 0.0173269 0.0072513
0.0982155 0.0170372 0.00729637
0.0923291 0.0175642 0.00707716
0.0923099 0.0174838 0.0071334
0.0861265 0.0166724 0.00755828
0.0982737 0.0173166 0.00720784
0.0920709 0.0161058 0.00801271
0.0859151 0.0158838 0.00826289
0.09225 0.0168601 0.00755372
0.0981777 0.0168843 0.00741945
0.0923073 0.0167231 0.00764054
0.0923267 0.0168069 0.00758954
0.092017 0.0162449 0.00792473
0.0924235 0.0172167 0.00732052
0.0923663 0.0173495 0.00722669
0.0982931 0.0174118 0.00718431
0.0862407 0.0167949 0.00751356
0.0861823 0.0165214 0.00762217
0.0925695 0.0174148 0.00717206
0.0924811 0.0174551 0.00714782
0.0921722 0.0165247 0.00775788
0.0983515 0.0176975 0.0071137
0.0858944 0.0158202 0.00833721
0.0924619 0.017375 0.00720445
0.092136 0.0167473 0.00761903
0.0923279 0.0171905 0.00734172
0.0864532 0.0177195 0.00715014
0.0924915 0.0181927 0.00692865
0.0859743 0.0160768 0.00803773
0.0861655 0.0168548 0.00748586
0.0923673 0.0177537 0.00703654
0.0861071 0.0165813 0.00759449
0.0862441 0.0172194 0.00734108
0.0862574 0.0164614 0.00764991
0.0983941 0.0178872 0.00706681
0.0860704 0.0160928 0.00801475
0.0923856 0.0174291 0.00716914
0.0922879 0.0166394 0.00769155
0.092407 0.0179325 0.00697526
0.092388 0.0178522 0.00703164
0.0925309 0.0172555 0.00728663
0.0861851 0.016946 0.00744965
0.0925397 0.0177187 0.00702612
0.0924985 0.017894 0.00700098
0.0926134 0.0180113 0.00696362
0.0924692 0.0177784 0.00710846
0.0925592 0.0178146 0.00700547
0.0860677 0.016399 0.00766685
0.0924286 0.0180307 0.00698198
0.0862212 0.0167037 0.00754976
0.0924925 0.0170965 0.00740165
0.0861627 0.0164302 0.00765837
0.0643568 0.0187248 0.00531097
0.24257 0.0191927 0.00520306
0.0864936 0.0175613 0.00723309
0.0860308 0.0162687 0.00781399
0.0865693 0.0174967 0.00724275
0.0859939 0.0161406 0.00796328
0.0922112 0.0166926 0.00765573
0.0922908 0.0174061 0.00719331
0.0926897 0.0180761 0.00695147
0.0924658 0.0182028 0.00702476
0.0860876 0.0164902 0.00763081
0.0869059 0.0182639 0.00694689
0.0864343 0.0172815 0.00732427
0.0923471 0.01727 0.0072842
0.0921918 0.0166088 0.00770675
0.0920503 0.0160222 0.00806356
0.0859349 0.0159486 0.00818736
0.0923462 0.0168907 0.00753855
0.0919141 0.0158285 0.00818157
0.0918756 0.0156968 0.00831944
0.092684 0.0181735 0.00692984
0.0861085 0.0162212 0.00786621
0.0924583 0.0177847 0.00700926
0.0920297 0.0159386 0.00811441
0.0922525 0.0172475 0.00730896
0.0860492 0.0163336 0.0077402
0.0923488 0.0176553 0.00704071
0.092469 0.0179737 0.00705354
0.0863387 0.0172505 0.00733262
0.0862017 0.0166126 0.00758597
0.0924426 0.0176882 0.00703009
0.0922082 0.016303 0.0078962
0.0923657 0.0169745 0.00748754
0.0920092 0.015855 0.00816526
0.0860506 0.016029 0.00808916
0.0924875 0.0182923 0.00693754
0.0921523 0.0164409 0.00780891
0.0925901 0.0182067 0.00691993
0.0860899 0.0161566 0.00794028
0.0864552 0.0173724 0.00728824
0.0860124 0.0162047 0.0078886
0.0864138 0.0171905 0.00736036
0.086277 0.0165525 0.00761372
0.0860306 0.0159653 0.00816357
0.0863044 0.0174934 0.00723414
0.0925958 0.0181091 0.00694159
0.0863158 0.0167348 0.0075413
0.086664 0.017528 0.00723423
0.0861459 0.016357 0.00772432
0.0864005 0.0175241 0.00722591
0.0864744 0.0178111 0.00711607
0.0863793 0.0174326 0.0072604
0.0219312 0.0187687 0.00551176
0.0864707 0.0176847 0.00724358
0.0924989 0.017537 0.00709332
0.0863679 0.0177684 0.00713208
0.0863256 0.0175849 0.00719975
0.0866212 0.0181753 0.00698106
0.0867493 0.017822 0.00711844
0.0921659 0.016134 0.00799898
0.0862964 0.0166437 0.00757751
0.0865855 0.0175896 0.0072057
0.0868106 0.0182356 0.00695784
0.0866333 0.0177004 0.00716275
0.0921874 0.0162186 0.00794759
0.0867285 0.0177301 0.0071549
0.0926269 0.0176715 0.00703889
0.0865589 0.017761 0.0071348
0.0802837 0.0173958 0.00724332
0.0863589 0.0173416 0.00729649
0.0864102 0.0179518 0.00706443
0.0868551 0.0181517 0.00698907
0.086761 0.01812 0.00700062
0.0863422 0.0176641 0.00726501
0.0921323 0.0163571 0.0078599
0.0865377 0.0176702 0.00717081
0.092461 0.0176796 0.007128
0.0862833 0.0174017 0.00726871
0.0863458 0.0175693 0.00729642
0.0924733 0.0170169 0.00745917
0.0925167 0.0179861 0.00696651
0.0925118 0.017176 0.00734415
0.0803997 0.0175156 0.00719319
0.092509 0.0183898 0.00694301
0.0865302 0.0173124 0.00731596
0.0922685 0.0165556 0.00774256
0.0863549 0.0169171 0.00746891
0.0867597 0.0179334 0.0070736
0.0858294 0.015625 0.00855555
0.0803455 0.0176619 0.00711938
0.0862048 0.0170371 0.00741346
0.0863467 0.0176767 0.00716591
0.0862995 0.0170683 0.00740499
0.0867656 0.0183195 0.00692725
0.0865505 0.0174034 0.00727986
0.0927656 0.018013 0.00696747
0.0862798 0.0169771 0.00744118
0.0866068 0.0180436 0.00707673
0.08658 0.0178527 0.00710077
0.0861287 0.0162876 0.00779425
0.0864216 0.0176144 0.00718843
0.0863353 0.016826 0.0075051
0.0923362 0.0174916 0.00722957
0.0925948 0.017915 0.00698433
0.0866545 0.0177913 0.00712675
0.0924522 0.0169334 0.00751627
0.0925738 0.0178832 0.00707677
0.0803791 0.0174269 0.00723451
0.086389 0.0178601 0.00709826
0.0922283 0.0163869 0.00784517
0.0865187 0.0180015 0.0070551
0.0924605 0.0181044 0.00704166
0.0864135 0.0178347 0.00719183
0.0802801 0.0169828 0.00744163
0.0922488 0.0164714 0.0077938
0.0864755 0.0174634 0.00725212
0.0862637 0.0173105 0.0073049
0.092517 0.0176235 0.00704643
0.0866806 0.0176196 0.00719773
0.080339 0.0172493 0.00731729
0.0803039 0.0174845 0.00720196
0.0863916 0.0177433 0.00722593
0.0866858 0.0183763 0.00690684
0.080264 0.0173069 0.00728477
0.0862429 0.0163814 0.0077081
0.0863745 0.0170083 0.00743272
0.092497 0.0180945 0.00694649
0.0866522 0.0186265 0.00690052
0.0867082 0.0184706 0.00687847
0.0868045 0.0185039 0.00685926
0.0800878 0.0165242 0.00769097
0.0801462 0.0167792 0.00754417
0.0800683 0.0164392 0.0077399
0.0864889 0.0171305 0.00738809
0.0862602 0.016886 0.00747737
0.0801072 0.0166092 0.00764203
0.0802247 0.0171292 0.00736767
0.0865489 0.0181083 0.00700613
0.0868614 0.0183481 0.00691621
0.0803663 0.0177506 0.00707809
0.0864955 0.0179027 0.00708198
0.0926899 0.0179489 0.00697951
0.0804079 0.0179279 0.00699553
0.0803194 0.0171605 0.00735874
0.080205 0.0170404 0.00740911
0.0860102 0.0159016 0.00823791
0.0866 0.0179444 0.00706624
0.0864736 0.0182269 0.00696295
0.086488 0.018105 0.00708538
0.0804286 0.0180166 0.00695423
0.0863941 0.0170994 0.00739654
0.0866328 0.018535 0.00686523
0.0867874 0.0184114 0.00689335
0.0801854 0.0169515 0.00745056
0.0864948 0.0183186 0.00692913
0.0803247 0.0175732 0.00716067
0.0866443 0.0174367 0.00727049
0.0865689 0.0182554 0.00695192
0.0864434 0.0175352 0.00731554
0.0864526 0.0181351 0.00699679
0.0926464 0.0177674 0.0070183
0.0866751 0.0178828 0.00709042
0.0804701 0.018209 0.00698837
0.086537 0.0185019 0.00686147
0.0804496 0.0181135 0.00696691
0.086541 0.0182042 0.0070333
0.0864313 0.0180435 0.00703061
0.0865572 0.0185962 0.00688826
0.0866659 0.0180913 0.00701171
0.0802443 0.0172181 0.00732622
0.0804216 0.0176055 0.00715142
0.0864692 0.0170394 0.00742427
0.0802997 0.0170716 0.00740018
0.0801267 0.0166942 0.0075931
0.0866112 0.0184395 0.00688602
0.08659 0.0183471 0.00691809
0.0865159 0.0184102 0.0068953
0.0866646 0.0182845 0.00694071
0.0865544 0.0184802 0.00695753
0.0864495 0.0169482 0.00746046
0.0865094 0.0172215 0.00735201
0.0867164 0.0182041 0.00696997
0.0862236 0.0163023 0.00776616
0.0866912 0.0180005 0.00704496
0.0865766 0.0186879 0.00692311
0.0803587 0.0173382 0.00727584
0.0867312 0.0185689 0.0068794
0.0924327 0.0168496 0.00756727
0.0801657 0.0168642 0.00749526
0.080387 0.0178392 0.00703681
0.0926042 0.0175763 0.00705925

VERTICES 287 574
1 0
1 1
1 2
1 3
1 4
1 5
1 6
1 7
1 8
1 9
1 10
1 11
1 12
1 13
1 14
1 15
1 16
1 17
1 18
1 19
1 20
1 21
1 22
1 23
1 24
1 25
1 26
1 27
1 28
1 29
1 30
1 31
1 32
1 33
1 34
1 35
1 36
1 37
1 38
1 39
1 40
1 41
1 42
1 43
1 44
1 45
1 46
1 47
1 48
1 49
1 50
1 51
1 52
1 53
1 54
1 55
1 56
1 57
1 58
1 59
1 60
1 61
1 62
1 63
1 64
1 65
1 66
1 67
1 68
1 69
1 70
1 71
1 72
1 73
1 74
1 75
1 76
1 77
1 78
1 79
1 80
1 81
1 82
1 83
1 84
1 85
1 86
1 87
1 88
1 89
1 90
1 91
1 92
1 93
1 94
1 95
1 96
1 97
1 98
1 99
1 100
1 101
1 102
1 103
1 104
1 105
1 106
1 107
1 108
1 109
1 110
1 111
1 112
1 113
1 114
1 115
1 116
1 117
1 118
1 119
1 120
1 121
1 122
1 123
1 124
1 125
1 126
1 127
1 128
1 129
1 130
1 131
1 132
1 133
1 134
1 135
1 136
1 137
1 138
1 139
1 140
1 141
1 142
1 143
1 144
1 145
1 146
1 147
1 148
1 149
1 150
1 151
1 152
1 153
1 154
1 155
1 156
1 157
1 158
1 159
1 160
1 161
1 162
1 163
1 164
1 165
1 166
1 167
1 168
1 169
1 170
1 171
1 172
1 173
1 174
1 175
1 176
1 177
1 178
1 179
1 180
1 181
1 182
1 183
1 184
1 185
1 186
1 187
1 188
1 189
1 190
1 191
1 192
1 193
1 194
1 195
1 196
1 197
1 198
1 199
1 200
1 201
1 202
1 203
1 204
1 205
1 206
1 207
1 208
1 209
1 210
1 211
1 212
1 213
1 214
1 215
1 216
1 217
1 218
1 219
1 220
1 221
1 222
1 223
1 224
1 225
1 226
1 227
1 228
1 229
1 230
1 231
1 232
1 233
1 234
1 235
1 236
1 237
1 238
1 239
1 240
1 241
1 242
1 243
1 244
1 245
1 246
1 247
1 248
1 249
1 250
1 251
1 252
1 253
1 254
1 255
1 256
1 257
1 258
1 259
1 260
1 261
1 262
1 263
1 264
1 265
1 266
1 267
1 268
1 269
1 270
1 271
1 272
1 273
1 274
1 275
1 276
1 277
1 278
1 279
1 280
1 281
1 282
1 283
1 284
1 285
1 286

POINT_DATA 287
SCALARS id int 1
LOOKUP_TABLE default
1
2
3
4
5
6
7
8
9
10
11
12
13
14
15
16
17
18
19
21
22
23
24
25
26
27
28
29
30
31
32
33
34
35
36
37
38
39
41
42
44
45
46
47
48
49
50
51
52
53
54
55
56
57
59
60
61
62
63
64
65
66
67
68
69
70
71
72
73
74
76
77
78
79
80
81
82
83
84
85
86
87
88
89
90
91
92
93
94
95
96
97
98
99
100
101
102
103
104
105
106
107
108
109
110
111
112
113
114
115
116
117
118
119
120
121
122
123
124
125
126
127
128
129
130
131
132
133
134
135
136
137
138
140
141
142
143
144
146
147
148
149
150
151
153
154
155
156
157
158
159
160
162
164
165
166
167
168
169
170
171
172
173
174
175
176
177
178
179
181
182
183
184
185
186
187
188
189
190
191
192
193
194
195
196
197
198
199
200
201
202
203
204
205
206
207
208
209
210
211
212
213
214
215
216
217
218
219
220
221
222
223
224
225
226
227
228
229
230
231
232
233
234
235
236
237
239
240
241
242
243
244
246
247
248
249
250
251
252
253
254
255
256
257
258
259
260
261
262
263
264
265
266
267
268
269
270
271
272
273
274
275
276
277
278
279
280
281
282
283
284
285
286
287
288
289
290
291
292
293
294
295
296
297
298
299
300

SCALARS type int 1
LOOKUP_TABLE default
1
1
1
1
1
1
1
1
1
1
1
1
1
1
1
1
1
1
1
1
1
1
1
1
1
1
1
1
1
1
1
1
1
1
1
1
1
1
1
1
1
1
1
1
1
1
1
1
1
1
1
1
1
1
1
1
1
1
1
1
1
1
1
1
1
1
1
1
1
1
1
1
1
1
1
1
1
1
1
1
1
1
1
1
1
1
1
1
1
1
1
1
1
1
1
1
1
1
1
1
1
1
1
1
1
1
1
1
1
1
1
1
1
1
1
1
1
1
1
1
1
1
1
1
1
1
1
1
1
1
1
1
1
1
1
1
1
1
1
1
1
1
1
1
1
1
1
1
1
1
1
1
1
1
1
1
1
1
1
1
1
1
1
1
1
1
1
1
1
1
1
1
1
1
1
1
1
1
1
1
1
1
1
1
1
1
1
1
1
1
1
1
1
1
1
1
1
1
1
1
1
1
1
1
1
1
1
1
1
1
1
1
1
1
1
1
1
1
1
1
1
1
1
1
1
1
1
1
1
1
1
1
1
1
1
1
1
1
1
1
1
1
1
1
1
1
1
1
1
1
1
1
1
1
1
1
1
1
1
1
1
1
1
1
1
1
1
1
1
1
1
1
1
1
1
1
1
1
1
1
1
1
1
1
1
1
1

SCALARS radius float 1
LOOKUP_TABLE default
5e-05
5e-05
5e-05
5e-05
5e-05
5e-05
5e-05
5e-05
5e-05
5e-05
5e-05
5e-05
5e-05
5e-05
5e-05
5e-05
5e-05
5e-05
5e-05
5e-05
5e-05
5e-05
5e-05
5e-05
5e-05
5e-05
5e-05
5e-05
5e-05
5e-05
5e-05
5e-05
5e-05
5e-05
5e-05
5e-05
5e-05
5e-05
5e-05
5e-05
5e-05
5e-05
5e-05
5e-05
5e-05
5e-05
5e-05
5e-05
5e-05
5e-05
5e-05
5e-05
5e-05
5e-05
5e-05
5e-05
5e-05
5e-05
5e-05
5e-05
5e-05
5e-05
5e-05
5e-05
5e-05
5e-05
5e-05
5e-05
5e-05
5e-05
5e-05
5e-05
5e-05
5e-05
5e-05
5e-05
5e-05
5e-05
5e-05
5e-05
5e-05
5e-05
5e-05
5e-05
5e-05
5e-05
5e-05
5e-05
5e-05
5e-05
5e-05
5e-05
5e-05
5e-05
5e-05
5e-05
5e-05
5e-05
5e-05
5e-05
5e-05
5e-05
5e-05
5e-05
5e-05
5e-05
5e-05
5e-05
5e-05
5e-05
5e-05
5e-05
5e-05
5e-05
5e-05
5e-05
5e-05
5e-05
5e-05
5e-05
5e-05
5e-05
5e-05
5e-05
5e-05
5e-05
5e-05
5e-05
5e-05
5e-05
5e-05
5e-05
5e-05
5e-05
5e-05
5e-05
5e-05
5e-05
5e-05
5e-05
5e-05
5e-05
5e-05
5e-05
5e-05
5e-05
5e-05
5e-05
5e-05
5e-05
5e-05
5e-05
5e-05
5e-05
5e-05
5e-05
5e-05
5e-05
5e-05
5e-05
5e-05
5e-05
5e-05
5e-05
5e-05
5e-05
5e-05
5e-05
5e-05
5e-05
5e-05
5e-05
5e-05
5e-05
5e-05
5e-05
5e-05
5e-05
5e-05
5e-05
5e-05
5e-05
5e-05
5e-05
5e-05
5e-05
5e-05
5e-05
5e-05
5e-05
5e-05
5e-05
5e-05
5e-05
5e-05
5e-05
5e-05
5e-05
5e-05
5e-05
5e-05
5e-05
5e-05
5e-05
5e-05
5e-05
5e-05
5e-05
5e-05
5e-05
5e-05
5e-05
5e-05
5e-05
5e-05
5e-05
5e-05
5e-05
5e-05
5e-05
5e-05
5e-05
5e-05
5e-05
5e-05
5e-05
5e-05
5e-05
5e-05
5e-05
5e-05
5e-05
5e-05
5e-05
5e-05
5e-05
5e-05
5e-05
5e-05
5e-05
5e-05
5e-05
5e-05
5e-05
5e-05
5e-05
5e-05
5e-05
5e-05
5e-05
5e-05
5e-05
5e-05
5e-05
5e-05
5e-05
5e-05
5e-05
5e-05
5e-05
5e-05
5e-05
5e-05
5e-05
5e-05
5e-05
5e-05
5e-05
5e-05
5e-05
5e-05
5e-05
5e-05
5e-05
5e-05
5e-05
5e-05
5e-05
5e-05
5e-05
5e-05
5e-05
5e-05
5e-05
5e-05
5e-05
5e-05

SCALARS mass float 1
LOOKUP_TABLE default
1.46608e-10
1.46608e-10
1.46608e-10
1.46608e-10
1.46608e-10
1.46608e-10
1.46608e-10
1.46608e-10
1.46608e-10
1.46608e-10
1.46608e-10
1.46608e-10
1.46608e-10
1.46608e-10
1.46608e-10
1.46608e-10
1.46608e-10
1.46608e-10
1.46608e-10
1.46608e-10
1.46608e-10
1.46608e-10
1.46608e-10
1.46608e-10
1.46608e-10
1.46608e-10
1.46608e-10
1.46608e-10
1.46608e-10
1.46608e-10
1.46608e-10
1.46608e-10
1.46608e-10
1.46608e-10
1.46608e-10
1.46608e-10
1.46608e-10
1.46608e-10
1.46608e-10
1.46608e-10
1.46608e-10
1.46608e-10
1.46608e-10
1.46608e-10
1.46608e-10
1.46608e-10
1.46608e-10
1.46608e-10
1.46608e-10
1.46608e-10
1.46608e-10
1.46608e-10
1.46608e-10
1.46608e-10
1.46608e-10
1.46608e-10
1.46608e-10
1.46608e-10
1.46608e-10
1.46608e-10
1.46608e-10
1.46608e-10
1.46608e-10
1.46608e-10
1.46608e-10
1.46608e-10
1.46608e-10
1.46608e-10
1.46608e-10
1.46608e-10
1.46608e-10
1.46608e-10
1.46608e-10
1.46608e-10
1.46608e-10
1.46608e-10
1.46608e-10
1.46608e-10
1.46608e-10
1.46608e-10
1.46608e-10
1.46608e-10
1.46608e-10
1.46608e-10
1.46608e-10
1.46608e-10
1.46608e-10
1.46608e-10
1.46608e-10
1.46608e-10
1.46608e-10
1.46608e-10
1.46608e-10
1.46608e-10
1.46608e-10
1.46608e-10
1.46608e-10
1.46608e-10
1.46608e-10
1.46608e-10
1.46608e-10
1.46608e-10
1.46608e-10
1.46608e-10
1.46608e-10
1.46608e-10
1.46608e-10
1.46608e-10
1.46608e-10
1.46608e-10
1.46608e-10
1.46608e-10
1.46608e-10
1.46608e-10
1.46608e-10
1.46608e-10
1.46608e-10
1.46608e-10
1.46608e-10
1.46608e-10
1.46608e-10
1.46608e-10
1.46608e-10
1.46608e-10
1.46608e-10
1.46608e-10
1.46608e-10
1.46608e-10
1.46608e-10
1.46608e-10
1.46608e-10
1.46608e-10
1.46608e-10
1.46608e-10
1.46608e-10
1.46608e-10
1.46608e-10
1.46608e-10
1.46608e-10
1.46608e-10
1.46608e-10
1.46608e-10
1.46608e-10
1.46608e-10
1.46608e-10
1.46608e-10
1.46608e-10
1.46608e-10
1.46608e-10
1.46608e-10
1.46608e-10
1.46608e-10
1.46608e-10
1.46608e-10
1.46608e-10
1.46608e-10
1.46608e-10
1.46608e-10
1.46608e-10
1.46608e-10
1.46608e-10
1.46608e-10
1.46608e-10
1.46608e-10
1.46608e-10
1.46608e-10
1.46608e-10
1.46608e-10
1.46608e-10
1.46608e-10
1.46608e-10
1.46608e-10
1.46608e-10
1.46608e-10
1.46608e-10
1.46608e-10
1.46608e-10
1.46608e-10
1.46608e-10
1.46608e-10
1.46608e-10
1.46608e-10
1.46608e-10
1.46608e-10
1.46608e-10
1.46608e-10
1.46608e-10
1.46608e-10
1.46608e-10
1.46608e-10
1.46608e-10
1.46608e-10
1.46608e-10
1.46608e-10
1.46608e-10
1.46608e-10
1.46608e-10
1.46608e-10
1.46608e-10
1.46608e-10
1.46608e-10
1.46608e-10
1.46608e-10
1.46608e-10
1.46608e-10
1.46608e-10
1.46608e-10
1.46608e-10
1.46608e-10
1.46608e-10
1.46608e-10
1.46608e-10
1.46608e-10
1.46608e-10
1.46608e-10
1.46608e-10
1.46608e-10
1.46608e-10
1.46608e-10
1.46608e-10
1.46608e-10
1.46608e-10
1.46608e-10
1.46608e-10
1.46608e-10
1.46608e-10
1.46608e-10
1.46608e-10
1.46608e-10
1.46608e-10
1.46608e-10
1.46608e-10
1.46608e-10
1.46608e-10
1.46608e-10
1.46608e-10
1.46608e-10
1.46608e-10
1.46608e-10
1.46608e-10
1.46608e-10
1.46608e-10
1.46608e-10
1.46608e-10
1.46608e-10
1.46608e-10
1.46608e-10
1.46608e-10
1.46608e-10
1.46608e-10
1.46608e-10
1.46608e-10
1.46608e-10
1.46608e-10
1.46608e-10
1.46608e-10
1.46608e-10
1.46608e-10
1.46608e-10
1.46608e-10
1.46608e-10
1.46608e-10
1.46608e-10
1.46608e-10
1.46608e-10
1.46608e-10
1.46608e-10
1.46608e-10
1.46608e-10
1.46608e-10
1.46608e-10
1.46608e-10
1.46608e-10
1.46608e-10
1.46608e-10
1.46608e-10
1.46608e-10
1.46608e-10
1.46608e-10
1.46608e-10
1.46608e-10
1.46608e-10
1.46608e-10
1.46608e-10
1.46608e-10
1.46608e-10
1.46608e-10

VECTORS velocity float
0.00583413 0.000652007 -0.000177388
0.00582518 5.93191e-05 -0.000298948
0.00574098 -9.18761e-05 -0.000167805
0.00586188 0.000181167 -0.000359898
0.00593053 0.000597006 -0.000139506
0.00550575 6.00643e-05 -2.98666e-05
0.00563835 0.000645188 -0.000172971
0.00589015 0.000269109 -0.000861222
0.00610218 -3.29205e-05 -1.12707e-06
0.005604 0.000581474 -0.000140848
0.00580685 0.00031252 -2.48996e-05
0.00552757 1.29558e-05 0.000240621
0.00591242 0.000670705 -0.000187234
0.00615211 6.58968e-06 -0.000137641
0.00567345 0.000218797 -0.000717765
0.00614276 0.000240106 6.5255e-05
0.00569631 0.000539326 -0.00011355
0.00567022 4.1172e-05 -1.81454e-05
0.00591394 0.000693829 -0.000200042
0.00597118 0.000593958 -0.000137248
0.00564688 0.000641678 -0.000231839
0.0055682 2.70186e-05 0.000235895
0.00563883 5.1722e-05 -2.13392e-05
0.00561542 0.000668624 -0.000201913
0.00564201 5.04996e-05 -2.23941e-05
0.00556835 6.22774e-05 0.000221375
0.00576825 0.00013727 -0.000346158
0.00591221 0.000676585 -0.000192825
0.00571426 0.000172771 -0.000363929
0.00567198 0.00067299 -0.000181931
0.0057123 0.000737318 -0.000239881
0.0055256 5.20909e-05 -3.01046e-05
0.00557704 0.000544748 -0.000121414
0.00575565 0.00073531 -0.0002277
0.00614086 -5.14159e-05 3.05386e-06
0.00572181 0.000621312 -0.000163714
0.00557408 0.000180487 -0.000429493
0.00562535 6.10714e-05 -2.37129e-05
0.00566571 0.000522617 -0.000104106
0.00568694 0.000454579 -0.000480788
0.00567124 0.000111284 -0.000455764
0.005546 5.61329e-05 -3.34341e-05
0.0056671 4.26663e-05 -1.95048e-05
0.00549877 0.000547296 -0.000125474
0.00569439 0.000299403 -0.000570646
0.00566352 4.15471e-05 -2.01122e-05
0.00579484 0.00012064 -0.000608244
0.00577666 0.000262786 -0.000431261
0.00553218 6.53119e-07 0.000245403
0.00566906 3.78138e-05 -1.72048e-05
0.00595206 0.000627238 -0.000157265
0.00568542 -6.49333e-06 -0.000267459
0.00574133 0.000693829 -0.000207087
0.00561296 5.54005e-05 -2.7512e-05
0.0056144 0.000483437 -8.37251e-05
0.00559874 0.000484606 -7.53078e-05
0.0058655 0.000516349 -9.16164e-05
0.0056319 0.000175145 -0.000386045
0.00574159 0.000254735 -0.000437206
0.00565885 4.32073e-05 -1.92152e-05
0.00554369 9.44836e-05 0.000207113
0.00556751 3.67779e-05 0.000239846
0.00582524 0.000132651 -0.000245607
0.00584807 0.000194167 -0.00025597
0.00574906 0.000594544 -0.000145461
0.00569493 5.202e-05 -2.15193e-05
0.00613738 -6.57514e-05 -0.000198706
0.00587557 0.000146118 -0.000336296
0.00559374 0.000706105 -0.000219069
0.0055986 0.000280893 -0.000439576
0.00607962 -0.00016193 0.000147736
0.00518871 8.34057e-05 -0.000662421
0.00573655 -0.000245554 1.04631e-05
0.00553076 3.98845e-05 0.000228928
0.00588297 0.000672341 -0.00143169
0.00555715 6.5927e-05 0.000219479
0.00554535 1.52779e-05 0.000239799
0.00551877 3.83179e-05 0.00022958
0.00612907 -4.1277e-05 8.12219e-07
0.0057758 -0.000148277 -0.000108552
0.00579824 0.000177922 -0.000379907
0.00566675 0.000491513 -8.6161e-05
0.00635469 0.000357477 0.00010095
0.00629404 0.000343799 9.01801e-05
0.00570964 7.59479e-05 -0.000300472
0.00560326 0.000186577 0.0001721
0.0060504 0.000357637 6.72891e-05
0.00629888 0.000356524 7.52878e-05
0.0063038 0.000896605 -2.17865e-05
0.00622418 0.000282828 0.000133296
0.00628261 0.0003212 9.85431e-05
0.00571301 9.48072e-05 0.000203028
0.00622286 -0.000169549 0.000240997
0.00554155 5.72828e-05 0.00022213
0.00566493 0.000125881 -0.000328978
0.0055279 5.38899e-05 0.000214563
4.43244e-15 1.04581e-14 8.2957e-14
1.3022e-22 -6.56601e-22 -5.81428e-22
0.00603548 -0.00018514 0.000234315
0.00562976 -0.000120481 -3.59042e-06
0.00607531 -0.000137304 0.000323631
0.00576144 -0.000253223 1.65878e-05
0.00569088 0.0005616 -0.000129258
0.0057349 0.000291147 -0.000484714
0.00577957 0.00159989 -0.000190878
0.00619308 9.20294e-05 -0.000390598
0.00557645 0.00013167 0.000240104
0.00628434 -0.000262008 5.98958e-05
0.00577395 -5.53619e-05 0.000276247
0.00566114 0.000254036 -0.000420624
0.00568124 0.000534377 -0.00011315
0.0059211 0.000700667 -0.000204375
0.00571323 -4.85305e-05 -0.000215965
0.00551191 0.000489077 -6.29201e-05
0.00590287 0.000371805 -0.000684803
0.00584941 0.000285085 -0.000878628
0.00532559 0.0015723 -0.000197385
0.00559533 -0.000136426 -6.11909e-05
0.00632673 0.000322804 0.000111916
0.00590557 0.000701498 -0.000203385
0.00569367 0.000319464 -0.000623725
0.00576374 4.38655e-05 0.000150788
0.00578461 0.000205632 -0.000326821
0.00679315 0.000362449 0.000407007
0.00545229 -2.2509e-05 0.000248532
0.00555375 3.69924e-05 0.000230487
0.00577317 0.00038676 7.89844e-05
0.00600395 0.00097754 -0.000372147
0.0054898 0.000459236 -8.03612e-05
0.00590008 0.000705607 -0.000205422
0.00575782 -0.000122883 -0.000129207
0.00633842 0.000168365 -0.000802388
0.00557018 0.000504346 -9.62569e-05
0.00512429 0.00108866 -8.94762e-05
0.00570638 -0.000159418 -9.45815e-05
0.00603097 -9.80744e-05 0.000301018
0.0055354 -0.000179523 -4.36946e-05
0.00563688 -2.39978e-05 0.000259265
0.00548934 3.54413e-05 0.000228959
0.00573916 -0.000108394 -0.000147405
0.00592646 -0.000110958 0.000144221
0.00558842 0.00111554 -8.0012e-05
0.00555719 3.72931e-05 0.000230221
0.00605022 -9.08142e-05 0.000310604
0.0054977 2.31487e-07 0.000119509
0.00602808 -0.00012787 0.000193667
0.0060681 -0.000183392 0.000147682
0.00581408 -0.000110882 0.00029967
-3.82894e-14 8.16768e-14 2.9589e-13
0.00601731 -7.74059e-05 0.000244537
0.00582616 0.000335651 -3.90255e-05
0.00606628 -0.000206457 5.17785e-05
0.00601937 -0.000139203 2.20877e-05
0.00620776 -0.000206248 4.08808e-05
0.00604585 -0.000170498 0.00033806
0.0060614 0.000666098 -0.000177679
0.00554169 2.79898e-05 0.000233686
0.00605527 -0.000124355 0.000315213
0.00627104 -0.000236805 4.96958e-05
0.00603363 -0.000136344 0.00032609
0.0059997 0.000809135 -0.000268323
0.0060528 -0.00016277 0.000334245
0.00606665 0.000338971 9.75256e-05
0.0060522 -0.000128397 0.00031221
0.00557681 0.000151114 0.000286667
0.00557375 -5.59547e-05 0.000269624
0.00611015 -0.000200708 3.91176e-05
0.00622582 -0.000154239 0.000340477
0.00620956 -0.00022505 5.18589e-05
0.00597956 -0.000172888 6.79566e-05
0.00570709 0.00070883 -0.000217574
0.00609506 -8.13819e-05 0.000311257
0.00579219 0.000397941 8.79448e-05
0.00553832 5.9763e-05 0.000220289
0.00601241 -8.4735e-05 1.45225e-05
0.00558248 0.000125418 -0.000362263
0.00645565 0.000331738 0.000110923
0.00569993 9.07251e-05 -0.000304533
0.00611732 8.2689e-05 0.000354905
0.00630654 0.00018391 -0.000789594
0.00609352 -5.7052e-05 0.000297967
0.0056527 0.000403889 -3.14855e-05
0.0056093 4.7514e-05 0.000230038
0.00602618 -0.000198569 0.000345952
0.00615654 0.000242893 6.3539e-05
0.00615885 8.33922e-05 0.00035757
0.0055426 -6.11541e-06 0.000248486
0.00602825 -0.000208859 6.21963e-05
0.0055658 3.21787e-05 0.000233927
0.00626618 -0.000234864 5.0855e-05
0.00615056 -5.62259e-05 0.000294823
0.00585595 0.00178501 -0.000230782
0.00556648 1.22132e-05 0.000241874
0.00615858 -0.000203996 3.00318e-05
0.00607953 -0.000172407 0.000207496
0.00553246 -7.70884e-05 1.65505e-05
0.00606049 -0.000189112 0.000112145
0.00555886 5.32265e-05 0.000225592
0.0058159 0.000316496 -0.000409736
0.00618062 0.000882706 -1.74388e-05
0.00605925 -0.000150303 0.000334874
0.00554518 0.000524899 -0.000105503
0.0066798 0.000454924 -5.46444e-05
0.00580929 0.000139227 0.000307478
0.00608018 -0.000212519 3.90078e-05
0.00571835 0.000622707 -0.000163904
0.00614043 -0.000196007 4.04377e-05
0.00662518 8.84732e-05 -0.000312852
0.0060292 -0.000106903 8.95865e-05
0.00558921 0.000222305 0.000252719
0.00590225 0.000729725 -0.000222807
0.00607676 -8.34769e-05 0.00030953
0.00549428 -9.83131e-07 0.000242764
0.00582893 0.000414806 8.37432e-05
0.00602953 -0.000105102 0.000321636
0.00551902 0.000194978 0.000262214
0.00607633 7.90277e-05 0.000354244
0.00602056 -0.000120352 9.34451e-05
0.00626412 -0.000232178 5.13133e-05
0.00557518 0.000216011 0.000255248
0.00554812 -0.000148299 -1.38782e-05
0.00560263 4.61876e-05 0.000229406
0.00568922 0.000184336 -0.000237291
0.00618191 -0.000166512 1.10765e-05
0.00626903 -0.000210702 -3.73033e-06
0.00614449 -0.000247077 5.60725e-05
0.00550638 3.52688e-05 -4.77296e-06
0.00556588 2.79442e-05 -8.41572e-06
0.00550266 4.4279e-05 -9.659e-06
0.00578167 -7.11305e-05 0.000284598
0.00558234 0.000122574 0.000197385
0.005514 3.21159e-05 -1.02307e-06
0.00557829 0.00020498 0.000259654
0.00617706 -0.000159502 2.06401e-05
0.00627 -0.000256923 5.85881e-05
0.00620219 9.10415e-05 0.000356601
0.00609404 -0.00020449 7.48519e-05
0.00646941 0.00109761 -6.20121e-05
0.0062837 8.32283e-05 0.000363415
0.00554931 0.000201472 0.000260778
0.00558367 0.000197502 0.000266195
0.0057265 -9.97527e-05 -0.000159816
0.0061055 -0.000209289 9.64146e-05
0.00622661 -0.000177179 3.06578e-05
0.00615067 -0.000129193 1.07589e-05
0.00631 7.09191e-05 0.000368539
0.00558716 9.00071e-06 0.000243254
0.00627307 -0.00017316 5.16143e-06
0.00624449 -0.00025883 6.08945e-05
0.00559174 0.00019253 0.000273301
0.00623479 -0.000180287 2.97751e-05
0.00611201 7.72486e-05 0.000356183
0.00615796 3.9943e-05 0.000263717
0.00621765 -0.000200436 3.85572e-05
0.00584269 1.00146e-05 0.000252564
0.00625054 -0.00019967 4.07785e-05
0.00628055 0.000307601 0.00010861
0.00602149 -0.000199806 0.000342477
0.00628951 0.000182943 -0.000531528
0.00630929 -0.000175977 3.51201e-05
0.00633427 0.00017549 -0.000516298
0.00621318 -0.000161734 2.57485e-05
0.0061625 -0.000191089 4.12968e-05
0.00626973 -0.000152002 1.33231e-05
0.00619518 -0.000213518 3.86865e-05
0.00557995 0.000212264 0.000255503
0.00614872 6.77839e-05 0.000363838
0.00570517 -9.03735e-05 0.000290016
0.00556326 0.000211965 0.000256126
0.00553239 3.11611e-05 -7.2297e-07
0.00628679 -0.000203549 4.55028e-05
0.00624323 -0.000208117 4.1808e-05
0.00627369 -0.000178893 3.06382e-05
0.00622499 -0.000223041 4.63446e-05
0.00628675 -0.000178296 3.66555e-05
0.00565512 -7.39961e-05 0.00028009
0.005959 -6.60518e-05 0.000291853
0.00621796 -0.000222652 4.76104e-05
0.00552062 -0.000178932 -6.5531e-05
0.00613369 -0.000228731 4.83653e-05
0.00620315 -0.000136386 2.24877e-05
0.00552035 0.000189419 0.000264935
0.00615188 -0.000216681 3.78522e-06
0.00553817 0.000501664 -8.96561e-05
0.0055795 4.46598e-05 2.45866e-06
0.00624154 9.12665e-05 0.000358016
0.00583747 0.000391351 7.99453e-05

VECTORS force float
3.35976e-10 -1.88252e-10 1.407e-10
9.5155e-11 -8.98754e-11 2.64411e-12
3.51538e-11 2.28169e-10 -2.88272e-10
-1.27989e-10 -2.74074e-11 -8.46034e-11
-2.71913e-10 -4.58733e-10 2.67626e-10
-9.60718e-12 5.40971e-11 -3.27075e-12
5.52849e-11 -4.68139e-11 2.53338e-10
3.78496e-11 1.61598e-10 -2.63012e-10
-1.45468e-11 2.76316e-11 -3.54987e-12
-2.0124e-11 -1.53201e-11 1.14983e-10
5.78745e-10 1.21416e-10 1.07068e-10
-4.50053e-11 -3.17901e-10 1.25214e-10
-5.36345e-11 -3.64079e-10 2.21994e-10
5.24305e-11 7.54759e-10 9.77093e-10
-2.42329e-10 6.29372e-10 2.09024e-09
1.9039e-11 -1.75546e-10 2.71498e-10
6.23886e-10 -2.48401e-10 2.87281e-10
1.59556e-10 2.36182e-11 -5.66714e-12
6.48774e-12 -3.87862e-11 4.00602e-11
-1.35007e-10 -7.10269e-10 4.35967e-10
-3.02592e-10 1.02657e-10 1.01783e-09
6.07736e-11 4.74182e-10 -2.10972e-10
4.72629e-11 -8.83484e-11 1.70925e-11
-4.28617e-10 -6.59253e-10 2.87903e-10
1.38448e-10 1.43159e-10 -5.53073e-11
-7.56895e-11 1.0652e-10 -5.19864e-11
-5.40765e-10 -2.29589e-10 1.29798e-10
6.45276e-11 3.17123e-10 -2.08426e-10
2.14703e-10 3.26992e-10 5.16179e-11
-4.0937e-11 -3.82548e-10 4.22579e-11
-5.04336e-10 5.8644e-10 -8.57737e-10
3.84594e-10 -1.56139e-10 1.72577e-10
-1.89238e-10 -3.17483e-10 1.87131e-10
1.85204e-10 -1.55378e-10 1.05841e-10
4.14246e-11 8.74642e-11 -1.70478e-11
-5.06687e-10 -3.18696e-10 1.24257e-10
3.87534e-10 -2.93021e-11 5.02119e-10
1.75881e-11 -7.9767e-11 1.38656e-11
3.53091e-10 1.85011e-10 -1.00507e-10
-3.65253e-10 4.42535e-10 1.57053e-10
7.84064e-10 1.74276e-10 4.17262e-10
-1.24882e-10 -3.73334e-10 2.38827e-10
-1.36284e-10 6.18459e-11 -2.31289e-11
2.61432e-10 4.36884e-11 -1.61502e-11
1.26261e-10 2.53223e-11 -1.11885e-09
-2.14226e-10 1.96411e-10 -7.8825e-11
4.02827e-10 9.73967e-10 -9.55249e-10
2.68928e-10 1.24919e-09 -7.10233e-10
-1.13615e-11 -6.36317e-10 2.49184e-10
8.19304e-11 3.66671e-11 -5.87314e-12
-5.06095e-10 -2.61444e-11 5.29239e-12
-6.70208e-11 3.91232e-11 -4.90611e-11
-4.5684e-10 -5.30346e-10 3.63268e-10
-2.34644e-10 -9.89036e-11 5.90559e-11
-3.17739e-10 -4.73018e-10 3.56176e-10
-8.26035e-10 -3.05312e-10 2.24978e-10
-2.20474e-12 -1.30384e-10 8.64824e-11
1.0702e-09 -7.49681e-11 2.85258e-10
1.24768e-10 6.239e-10 -6.0273e-10
-6.58035e-11 -4.33794e-11 2.00771e-11
-2.14163e-10 1.08332e-10 -8.06597e-11