# vtk DataFile Version 3.0
LIGGGHTS particles timestep 5800000
ASCII
DATASET POLYDATA
POINTS 287 float
0.0466157 0.0162497 0.00789909
0.0470173 0.0171713 0.00746528
0.0404671 0.0160786 0.00815997
0.0469542 0.0176846 0.00735364
0.0465006 0.0161546 0.00798389
0.0526034 0.0165347 0.00770895
0.046691 0.0168991 0.00756287
0.0463978 0.0158102 0.00833147
0.0528971 0.017766 0.00717558
0.0466278 0.0166145 0.0076352
0.0470594 0.0173607 0.00741709
0.0406746 0.0167636 0.00748126
0.0464796 0.0160853 0.00805286
0.0403859 0.0158343 0.00846616
0.0468279 0.0171162 0.00749818
0.0403656 0.0157733 0.00854271
0.0466061 0.0165167 0.00766006
0.0527639 0.0171984 0.00742135
0.0464587 0.0160159 0.00812186
0.0465977 0.0161899 0.00797778
0.0467331 0.0170885 0.00751467
0.0408542 0.0171653 0.00735086
0.0528324 0.0174814 0.00729869
0.04667 0.0168043 0.00758711
0.0526953 0.0169146 0.00754432
0.0407593 0.0171344 0.00735752
0.0469331 0.0175899 0.00737773
0.0464377 0.0159466 0.00819082
0.0469647 0.0173332 0.00743355
0.046712 0.0169938 0.00753876
0.0468068 0.0170214 0.00752227
0.0526264 0.0166298 0.0076677
0.0465852 0.0164482 0.00772986
0.0467858 0.0169267 0.00754636
0.0529389 0.017957 0.00709304
0.0467437 0.0167372 0.00759455
0.0469016 0.017049 0.00750582
0.0528552 0.0175762 0.00725764
0.0465437 0.0163128 0.00787023
0.0467541 0.0171833 0.00749058
0.0469226 0.0171437 0.00748173
0.0526494 0.016725 0.00762646
0.0527411 0.017104 0.00746225
0.046565 0.0163865 0.00780594
0.0467962 0.0173728 0.0074424
0.0527182 0.0170093 0.00750328
0.0468594 0.017657 0.00737013
0.0468383 0.0175622 0.00739422
0.0406531 0.0166729 0.00751755
0.0527867 0.0172925 0.00738055
0.0465752 0.016112 0.00803625
0.0404268 0.0159564 0.00831312
0.0467647 0.0168319 0.00757046
0.0526724 0.0168199 0.00758534
0.0468173 0.0166699 0.00760221
0.0468384 0.0167647 0.00757809
0.0465223 0.0162378 0.00793288
0.0469437 0.0172385 0.00745764
0.046891 0.0174004 0.00742591
0.0528095 0.0173869 0.00733966
0.0407703 0.0167933 0.00747504
0.0407033 0.0165239 0.00758907
0.0470384 0.017266 0.00744119
0.0470068 0.0175227 0.00738537
0.0466806 0.0164719 0.00771136
0.0528762 0.0176712 0.00721656
0.0404062 0.0158954 0.00838961
0.0469858 0.0174279 0.00740946
0.0466489 0.0167097 0.00761158
0.0468489 0.0172109 0.00747409
0.0409962 0.0178159 0.00713346
0.0471023 0.0182663 0.00720371
0.0404878 0.0161396 0.00808351
0.0406966 0.0168561 0.00745042
0.0469225 0.0179412 0.00729785
0.0406321 0.0165921 0.00757256
0.0407796 0.0172273 0.0073265
0.0407661 0.0164246 0.00771753
0.0529181 0.0178612 0.00713443
0.0405847 0.0161627 0.008058
0.0469121 0.0174951 0.00740182
0.0467966 0.0165764 0.00763105
0.0469931 0.0182221 0.00722557
0.0469467 0.0180352 0.00727361
0.0469752 0.0169818 0.00751346
0.0407173 0.0169489 0.00741943
0.0470489 0.0177122 0.00733718
0.0470438 0.0180633 0.00725677
0.047117 0.0179956 0.00726456
0.0469015 0.0178465 0.00732194
0.04707 0.0178069 0.00731309
0.0405887 0.0164447 0.00770054
0.0470158 0.0183164 0.00720139
0.0407485 0.0167007 0.00750589
0.0469331 0.0167923 0.00756164
0.0406883 0.0164648 0.00766836
0.0643568 0.0187248 0.00531097
0.24257 0.0191927 0.00520306
0.0410101 0.0174747 0.00725111
0.0405491 0.0163229 0.00785412
0.0410846 0.0174127 0.00727547
0.0405076 0.0162007 0.00800688
0.0467226 0.0166426 0.00761929
0.0468173 0.0174675 0.00741831
0.0471445 0.0177395 0.00732069
0.0470526 0.0185071 0.00715351
0.0406101 0.016518 0.00763595
0.0412945 0.0175679 0.00723088
0.0409491 0.0171961 0.00734419
0.04687 0.0173057 0.00745
0.0467027 0.0165512 0.00765463
0.0465536 0.0160427 0.00810506
0.0404468 0.0160175 0.00823652
0.0468595 0.0168595 0.007554
0.0464175 0.0158772 0.00825993
0.0463782 0.0157466 0.00840614
0.0471678 0.0178337 0.00729648
0.0406262 0.0162847 0.00790507
0.0469963 0.0178741 0.00730546
0.0465326 0.0159734 0.00817403
0.0467752 0.017278 0.00746649
0.0405704 0.016384 0.00777785
0.0468804 0.0177517 0.00734604
0.0469708 0.0181315 0.00726151
0.0408745 0.0172581 0.00731983
0.0407252 0.0166065 0.00753725
0.0469752 0.0177794 0.00732955
0.0467117 0.016276 0.00788294
0.0468805 0.0169542 0.00752991
0.0465124 0.015904 0.00824314
0.0405649 0.0161016 0.00813463
0.0470714 0.0186023 0.00712953
0.0466587 0.0163882 0.00776143
0.0471903 0.0179281 0.00727232
0.040605 0.0162238 0.00798145
0.0409694 0.017289 0.00731316
0.0405279 0.0162618 0.00793034
0.0409288 0.0171032 0.00737522
0.0407828 0.0164853 0.0076398
0.0405442 0.0160406 0.00821109
0.0408406 0.0175059 0.00723342
0.0472221 0.0180197 0.00724781
0.040822 0.0166376 0.00753059
0.0411592 0.0173507 0.00729983
0.0406662 0.0164062 0.00775078
0.0409355 0.0175367 0.00722675
0.0410158 0.0179092 0.00710225
0.0409152 0.0174438 0.00725777
0.0219312 0.0187687 0.00551176
0.0410304 0.0175676 0.00722007
0.0470279 0.0176174 0.00736128
0.0409212 0.0178774 0.00710924
0.0409558 0.0176296 0.00719572
0.0411675 0.0182211 0.00700149
0.0412201 0.01763 0.0072065
0.0466709 0.0161373 0.00802107
0.0408002 0.0165449 0.00756147
0.041105 0.0175056 0.00724444
0.0413146 0.0176617 0.0071995
0.0411456 0.0176921 0.00718211
0.046693 0.0162065 0.00795235
0.0411999 0.0175364 0.00723776
0.0470067 0.016725 0.0075693
0.041071 0.017754 0.00715777
0.0348117 0.0173742 0.00726953
0.0408948 0.017351 0.0072888
0.0409597 0.0180635 0.00704697
0.0412744 0.0174744 0.00726213
0.0412601 0.0178178 0.00714369
0.0408812 0.0176916 0.00717137
0.0466349 0.0163192 0.00782978
0.0411254 0.0175985 0.00721338
0.0469802 0.0176489 0.00744335
0.0408203 0.017413 0.00726444
0.0408609 0.0175987 0.00720239
0.046912 0.0166975 0.00758575
0.0471488 0.0180872 0.00724005
0.0469542 0.016887 0.00753755
0.0349125 0.0174086 0.00725033
0.0470903 0.0186975 0.00710556
0.041044 0.0172269 0.00733752
0.0467734 0.0164838 0.00767604
0.0408653 0.0168238 0.00746848
0.0412402 0.0177238 0.00717512
0.0403453 0.0157122 0.00861926
0.0348708 0.0176357 0.00713484
0.0407386 0.0170416 0.00738851
0.0409762 0.0177225 0.00716468
0.0408339 0.0170724 0.00738188
0.0413502 0.0182485 0.00699962
0.0410643 0.0173198 0.00730649
0.0471331 0.0172936 0.00742473
0.0408131 0.0169796 0.00741287
0.0411295 0.0180344 0.00706397
0.0410908 0.0178476 0.00712647
0.0406475 0.0163457 0.0078287
0.0410508 0.0176605 0.00718903
0.040844 0.0167303 0.00749968
0.0467647 0.0169868 0.00762346
0.0470941 0.0179009 0.00728885
0.0411655 0.0177858 0.00715078
0.0468908 0.0166026 0.0076099
0.0470206 0.0179682 0.00728118
0.034868 0.0172287 0.0073431
0.0409406 0.0179705 0.00707811
0.0467382 0.0163447 0.00781525
0.0410541 0.0180956 0.00703988
0.047034 0.0184118 0.00717746
0.0409015 0.0177844 0.00714034
0.0347829 0.0168799 0.00752284
0.0467573 0.0164142 0.00774592
0.0409897 0.0173818 0.00728213
0.0407999 0.0173201 0.00729547
0.0470805 0.0174555 0.007393
0.0411795 0.0174435 0.0072688
0.0348999 0.0169929 0.00746321
0.0348315 0.0174614 0.00722464
0.0408047 0.0172144 0.00742246
0.0412058 0.018408 0.00693894
0.034792 0.0172871 0.00731443
0.0407458 0.0163663 0.00779616
0.0408871 0.0169169 0.00743743
0.0471577 0.0181841 0.00721677
0.0412501 0.0186018 0.00687424
0.0412259 0.0185017 0.00690762
0.0413102 0.0184519 0.00692819
0.0345999 0.0164981 0.00770166
0.0346647 0.0167659 0.00758304
0.0345784 0.0164084 0.00774023
0.041003 0.0170409 0.00739966
0.0407918 0.0168869 0.00744379
0.0346215 0.0165878 0.00766308
0.0347514 0.017113 0.00740412
0.0411486 0.0181279 0.0070327
0.0413183 0.0180989 0.00704965
0.0349277 0.0177085 0.00709669
0.0410351 0.0180024 0.00707105
0.0471226 0.017645 0.00734482
0.0349235 0.0178825 0.00700801
0.0348272 0.0170544 0.0074329
0.0347297 0.0170262 0.00744885
0.0405239 0.0159795 0.00828764
0.0411103 0.0179411 0.00709519
0.0410163 0.0183429 0.00695345
0.0410731 0.0181889 0.00700865
0.0349449 0.0179712 0.00696697
0.0409082 0.01701 0.00740634
0.0411721 0.01866 0.00685108
0.0412905 0.0183589 0.00695928
0.034708 0.0169394 0.00749358
0.0410352 0.018436 0.00692227
0.0348512 0.0175485 0.00717974
0.0411389 0.0172578 0.00733085
0.0411108 0.0183751 0.00694629
0.0407836 0.0171208 0.00745355
0.0409975 0.0182498 0.00698462
0.0471015 0.0175502 0.00736891
0.0411853 0.0178796 0.00711941
0.0350308 0.0179234 0.00698512
0.0410925 0.0187205 0.00684868
0.0349601 0.0180613 0.00692635
0.0410919 0.018282 0.00697747
0.0409787 0.0181566 0.00701581
0.0411122 0.0188184 0.00684436
0.0412239 0.0180667 0.0070568
0.0347723 0.0171999 0.00735933
0.0349369 0.0171638 0.00737521
0.0409822 0.0169474 0.00743087
0.0348046 0.0169667 0.00747811
0.034643 0.0166775 0.00762451
0.0411494 0.0185615 0.00688394
0.0411298 0.0184685 0.00691504
0.041054 0.0185292 0.00689109
0.0412533 0.0182706 0.00698804
0.0410734 0.0186259 0.00687502
0.0409605 0.0168537 0.00746214
0.0410236 0.0171341 0.00736855
0.0412431 0.0181602 0.00702552
0.0407275 0.0163076 0.00787507
0.0412048 0.0179731 0.00708811
0.0411317 0.0189162 0.00685278
0.0349386 0.0170747 0.00742072
0.0413291 0.018545 0.00689702
0.0468678 0.0165116 0.00765816
0.0346864 0.0168527 0.00753831
0.0349042 0.0177952 0.00705271
0.0468924 0.0171213 0.00757439

VERTICES 287 574
1 0
1 1
1 2
1 3
1 4
1 5
1 6
1 7
1 8
1 9
1 10
1 11
1 12
1 13
1 14
1 15
1 16
1 17
1 18
1 19
1 20
1 21
1 22
1 23
1 24
1 25
1 26
1 27
1 28
1 29
1 30
1 31
1 32
1 33
1 34
1 35
1 36
1 37
1 38
1 39
1 40
1 41
1 42
1 43
1 44
1 45
1 46
1 47
1 48
1 49
1 50
1 51
1 52
1 53
1 54
1 55
1 56
1 57
1 58
1 59
1 60
1 61
1 62
1 63
1 64
1 65
1 66
1 67
1 68
1 69
1 70
1 71
1 72
1 73
1 74
1 75
1 76
1 77
1 78
1 79
1 80
1 81
1 82
1 83
1 84
1 85
1 86
1 87
1 88
1 89
1 90
1 91
1 92
1 93
1 94
1 95
1 96
1 97
1 98
1 99
1 100
1 101
1 102
1 103
1 104
1 105
1 106
1 107
1 108
1 109
1 110
1 111
1 112
1 113
1 114
1 115
1 116
1 117
1 118
1 119
1 120
1 121
1 122
1 123
1 124
1 125
1 126
1 127
1 128
1 129
1 130
1 131
1 132
1 133
1 134
1 135
1 136
1 137
1 138
1 139
1 140
1 141
1 142
1 143
1 144
1 145
1 146
1 147
1 148
1 149
1 150
1 151
1 152
1 153
1 154
1 155
1 156
1 157
1 158
1 159
1 160
1 161
1 162
1 163
1 164
1 165
1 166
1 167
1 168
1 169
1 170
1 171
1 172
1 173
1 174
1 175
1 176
1 177
1 178
1 179
1 180
1 181
1 182
1 183
1 184
1 185
1 186
1 187
1 188
1 189
1 190
1 191
1 192
1 193
1 194
1 195
1 196
1 197
1 198
1 199
1 200
1 201
1 202
1 203
1 204
1 205
1 206
1 207
1 208
1 209
1 210
1 211
1 212
1 213
1 214
1 215
1 216
1 217
1 218
1 219
1 220
1 221
1 222
1 223
1 224
1 225
1 226
1 227
1 228
1 229
1 230
1 231
1 232
1 233
1 234
1 235
1 236
1 237
1 238
1 239
1 240
1 241
1 242
1 243
1 244
1 245
1 246
1 247
1 248
1 249
1 250
1 251
1 252
1 253
1 254
1 255
1 256
1 257
1 258
1 259
1 260
1 261
1 262
1 263
1 264
1 265
1 266
1 267
1 268
1 269
1 270
1 271
1 272
1 273
1 274
1 275
1 276
1 277
1 278
1 279
1 280
1 281
1 282
1 283
1 284
1 285
1 286

POINT_DATA 287
SCALARS id int 1
LOOKUP_TABLE default
1
2
3
4
5
6
7
8
9
10
11
12
13
14
15
16
17
18
19
21
22
23
24
25
26
27
28
29
30
31
32
33
34
35
36
37
38
39
41
42
44
45
46
47
48
49
50
51
52
53
54
55
56
57
59
60
61
62
63
64
65
66
67
68
69
70
71
72
73
74
76
77
78
79
80
81
82
83
84
85
86
87
88
89
90
91
92
93
94
95
96
97
98
99
100
101
102
103
104
105
106
107
108
109
110
111
112
113
114
115
116
117
118
119
120
121
122
123
124
125
126
127
128
129
130
131
132
133
134
135
136
137
138
140
141
142
143
144
146
147
148
149
150
151
153
154
155
156
157
158
159
160
162
164
165
166
167
168
169
170
171
172
173
174
175
176
177
178
179
181
182
183
184
185
186
187
188
189
190
191
192
193
194
195
196
197
198
199
200
201
202
203
204
205
206
207
208
209
210
211
212
213
214
215
216
217
218
219
220
221
222
223
224
225
226
227
228
229
230
231
232
233
234
235
236
237
239
240
241
242
243
244
246
247
248
249
250
251
252
253
254
255
256
257
258
259
260
261
262
263
264
265
266
267
268
269
270
271
272
273
274
275
276
277
278
279
280
281
282
283
284
285
286
287
288
289
290
291
292
293
294
295
296
297
298
299
300

SCALARS type int 1
LOOKUP_TABLE default
1
1
1
1
1
1
1
1
1
1
1
1
1
1
1
1
1
1
1
1
1
1
1
1
1
1
1
1
1
1
1
1
1
1
1
1
1
1
1
1
1
1
1
1
1
1
1
1
1
1
1
1
1
1
1
1
1
1
1
1
1
1
1
1
1
1
1
1
1
1
1
1
1
1
1
1
1
1
1
1
1
1
1
1
1
1
1
1
1
1
1
1
1
1
1
1
1
1
1
1
1
1
1
1
1
1
1
1
1
1
1
1
1
1
1
1
1
1
1
1
1
1
1
1
1
1
1
1
1
1
1
1
1
1
1
1
1
1
1
1
1
1
1
1
1
1
1
1
1
1
1
1
1
1
1
1
1
1
1
1
1
1
1
1
1
1
1
1
1
1
1
1
1
1
1
1
1
1
1
1
1
1
1
1
1
1
1
1
1
1
1
1
1
1
1
1
1
1
1
1
1
1
1
1
1
1
1
1
1
1
1
1
1
1
1
1
1
1
1
1
1
1
1
1
1
1
1
1
1
1
1
1
1
1
1
1
1
1
1
1
1
1
1
1
1
1
1
1
1
1
1
1
1
1
1
1
1
1
1
1
1
1
1
1
1
1
1
1
1
1
1
1
1
1
1
1
1
1
1
1
1
1
1
1
1
1
1

SCALARS radius float 1
LOOKUP_TABLE default
5e-05
5e-05
5e-05
5e-05
5e-05
5e-05
5e-05
5e-05
5e-05
5e-05
5e-05
5e-05
5e-05
5e-05
5e-05
5e-05
5e-05
5e-05
5e-05
5e-05
5e-05
5e-05
5e-05
5e-05
5e-05
5e-05
5e-05
5e-05
5e-05
5e-05
5e-05
5e-05
5e-05
5e-05
5e-05
5e-05
5e-05
5e-05
5e-05
5e-05
5e-05
5e-05
5e-05
5e-05
5e-05
5e-05
5e-05
5e-05
5e-05
5e-05
5e-05
5e-05
5e-05
5e-05
5e-05
5e-05
5e-05
5e-05
5e-05
5e-05
5e-05
5e-05
5e-05
5e-05
5e-05
5e-05
5e-05
5e-05
5e-05
5e-05
5e-05
5e-05
5e-05
5e-05
5e-05
5e-05
5e-05
5e-05
5e-05
5e-05
5e-05
5e-05
5e-05
5e-05
5e-05
5e-05
5e-05
5e-05
5e-05
5e-05
5e-05
5e-05
5e-05
5e-05
5e-05
5e-05
5e-05
5e-05
5e-05
5e-05
5e-05
5e-05
5e-05
5e-05
5e-05
5e-05
5e-05
5e-05
5e-05
5e-05
5e-05
5e-05
5e-05
5e-05
5e-05
5e-05
5e-05
5e-05
5e-05
5e-05
5e-05
5e-05
5e-05
5e-05
5e-05
5e-05
5e-05
5e-05
5e-05
5e-05
5e-05
5e-05
5e-05
5e-05
5e-05
5e-05
5e-05
5e-05
5e-05
5e-05
5e-05
5e-05
5e-05
5e-05
5e-05
5e-05
5e-05
5e-05
5e-05
5e-05
5e-05
5e-05
5e-05
5e-05
5e-05
5e-05
5e-05
5e-05
5e-05
5e-05
5e-05
5e-05
5e-05
5e-05
5e-05
5e-05
5e-05
5e-05
5e-05
5e-05
5e-05
5e-05
5e-05
5e-05
5e-05
5e-05
5e-05
5e-05
5e-05
5e-05
5e-05
5e-05
5e-05
5e-05
5e-05
5e-05
5e-05
5e-05
5e-05
5e-05
5e-05
5e-05
5e-05
5e-05
5e-05
5e-05
5e-05
5e-05
5e-05
5e-05
5e-05
5e-05
5e-05
5e-05
5e-05
5e-05
5e-05
5e-05
5e-05
5e-05
5e-05
5e-05
5e-05
5e-05
5e-05
5e-05
5e-05
5e-05
5e-05
5e-05
5e-05
5e-05
5e-05
5e-05
5e-05
5e-05
5e-05
5e-05
5e-05
5e-05
5e-05
5e-05
5e-05
5e-05
5e-05
5e-05
5e-05
5e-05
5e-05
5e-05
5e-05
5e-05
5e-05
5e-05
5e-05
5e-05
5e-05
5e-05
5e-05
5e-05
5e-05
5e-05
5e-05
5e-05
5e-05
5e-05
5e-05
5e-05
5e-05
5e-05
5e-05
5e-05
5e-05
5e-05
5e-05
5e-05
5e-05
5e-05
5e-05
5e-05
5e-05
5e-05
5e-05
5e-05
5e-05
5e-05
5e-05
5e-05
5e-05
5e-05
5e-05
5e-05
5e-05
5e-05
5e-05
5e-05
5e-05

SCALARS mass float 1
LOOKUP_TABLE default
1.46608e-10
1.46608e-10
1.46608e-10
1.46608e-10
1.46608e-10
1.46608e-10
1.46608e-10
1.46608e-10
1.46608e-10
1.46608e-10
1.46608e-10
1.46608e-10
1.46608e-10
1.46608e-10
1.46608e-10
1.46608e-10
1.46608e-10
1.46608e-10
1.46608e-10
1.46608e-10
1.46608e-10
1.46608e-10
1.46608e-10
1.46608e-10
1.46608e-10
1.46608e-10
1.46608e-10
1.46608e-10
1.46608e-10
1.46608e-10
1.46608e-10
1.46608e-10
1.46608e-10
1.46608e-10
1.46608e-10
1.46608e-10
1.46608e-10
1.46608e-10
1.46608e-10
1.46608e-10
1.46608e-10
1.46608e-10
1.46608e-10
1.46608e-10
1.46608e-10
1.46608e-10
1.46608e-10
1.46608e-10
1.46608e-10
1.46608e-10
1.46608e-10
1.46608e-10
1.46608e-10
1.46608e-10
1.46608e-10
1.46608e-10
1.46608e-10
1.46608e-10
1.46608e-10
1.46608e-10
1.46608e-10
1.46608e-10
1.46608e-10
1.46608e-10
1.46608e-10
1.46608e-10
1.46608e-10
1.46608e-10
1.46608e-10
1.46608e-10
1.46608e-10
1.46608e-10
1.46608e-10
1.46608e-10
1.46608e-10
1.46608e-10
1.46608e-10
1.46608e-10
1.46608e-10
1.46608e-10
1.46608e-10
1.46608e-10
1.46608e-10
1.46608e-10
1.46608e-10
1.46608e-10
1.46608e-10
1.46608e-10
1.46608e-10
1.46608e-10
1.46608e-10
1.46608e-10
1.46608e-10
1.46608e-10
1.46608e-10
1.46608e-10
1.46608e-10
1.46608e-10
1.46608e-10
1.46608e-10
1.46608e-10
1.46608e-10
1.46608e-10
1.46608e-10
1.46608e-10
1.46608e-10
1.46608e-10
1.46608e-10
1.46608e-10
1.46608e-10
1.46608e-10
1.46608e-10
1.46608e-10
1.46608e-10
1.46608e-10
1.46608e-10
1.46608e-10
1.46608e-10
1.46608e-10
1.46608e-10
1.46608e-10
1.46608e-10
1.46608e-10
1.46608e-10
1.46608e-10
1.46608e-10
1.46608e-10
1.46608e-10
1.46608e-10
1.46608e-10
1.46608e-10
1.46608e-10
1.46608e-10
1.46608e-10
1.46608e-10
1.46608e-10
1.46608e-10
1.46608e-10
1.46608e-10
1.46608e-10
1.46608e-10
1.46608e-10
1.46608e-10
1.46608e-10
1.46608e-10
1.46608e-10
1.46608e-10
1.46608e-10
1.46608e-10
1.46608e-10
1.46608e-10
1.46608e-10
1.46608e-10
1.46608e-10
1.46608e-10
1.46608e-10
1.46608e-10
1.46608e-10
1.46608e-10
1.46608e-10
1.46608e-10
1.46608e-10
1.46608e-10
1.46608e-10
1.46608e-10
1.46608e-10
1.46608e-10
1.46608e-10
1.46608e-10
1.46608e-10
1.46608e-10
1.46608e-10
1.46608e-10
1.46608e-10
1.46608e-10
1.46608e-10
1.46608e-10
1.46608e-10
1.46608e-10
1.46608e-10
1.46608e-10
1.46608e-10
1.46608e-10
1.46608e-10
1.46608e-10
1.46608e-10
1.46608e-10
1.46608e-10
1.46608e-10
1.46608e-10
1.46608e-10
1.46608e-10
1.46608e-10
1.46608e-10
1.46608e-10
1.46608e-10
1.46608e-10
1.46608e-10
1.46608e-10
1.46608e-10
1.46608e-10
1.46608e-10
1.46608e-10
1.46608e-10
1.46608e-10
1.46608e-10
1.46608e-10
1.46608e-10
1.46608e-10
1.46608e-10
1.46608e-10
1.46608e-10
1.46608e-10
1.46608e-10
1.46608e-10
1.46608e-10
1.46608e-10
1.46608e-10
1.46608e-10
1.46608e-10
1.46608e-10
1.46608e-10
1.46608e-10
1.46608e-10
1.46608e-10
1.46608e-10
1.46608e-10
1.46608e-10
1.46608e-10
1.46608e-10
1.46608e-10
1.46608e-10
1.46608e-10
1.46608e-10
1.46608e-10
1.46608e-10
1.46608e-10
1.46608e-10
1.46608e-10
1.46608e-10
1.46608e-10
1.46608e-10
1.46608e-10
1.46608e-10
1.46608e-10
1.46608e-10
1.46608e-10
1.46608e-10
1.46608e-10
1.46608e-10
1.46608e-10
1.46608e-10
1.46608e-10
1.46608e-10
1.46608e-10
1.46608e-10
1.46608e-10
1.46608e-10
1.46608e-10
1.46608e-10
1.46608e-10
1.46608e-10
1.46608e-10
1.46608e-10
1.46608e-10
1.46608e-10
1.46608e-10
1.46608e-10
1.46608e-10
1.46608e-10
1.46608e-10
1.46608e-10
1.46608e-10
1.46608e-10
1.46608e-10
1.46608e-10
1.46608e-10
1.46608e-10
1.46608e-10
1.46608e-10
1.46608e-10
1.46608e-10
1.46608e-10
1.46608e-10
1.46608e-10
1.46608e-10
1.46608e-10

VECTORS velocity float
0.00629838 0.000851003 -0.000144515
0.00616488 0.000616547 -0.000799034
0.00594209 7.0579e-05 0.000138181
0.00598992 0.000635929 -0.00079128
0.00628553 0.000865931 -0.000175475
0.00645129 0.00108822 -0.000802499
0.00627817 0.000498556 -0.000764164
0.00573741 0.000244378 -0.00121279
0.00583969 0.000520957 -0.000531317
0.0063829 0.00051186 -0.000794985
0.00611112 0.00064253 -0.000799042
0.0062414 -7.53254e-05 0.000282328
0.00624147 0.000855321 -0.000166576
0.00571847 4.62663e-05 0.000158335
0.00618343 0.000538602 -0.000785874
0.00569291 2.89687e-05 0.000182972
0.00638319 0.000347176 -0.000760982
0.00629878 0.000788042 -0.000668151
0.00623396 0.000931928 -0.000236699
0.00629852 0.000841809 -0.000154571
0.00621638 0.000527505 -0.000784943
0.00564493 6.79406e-05 0.000209142
0.00624143 0.000691788 -0.000624619
0.00630555 0.000497203 -0.000733049
0.00636102 0.000904104 -0.000720272
0.00560646 6.7078e-05 0.000209418
0.00603661 0.000627075 -0.000788383
0.0061412 0.000930233 -0.000261858
0.00611818 0.000605779 -0.000791935
0.00624948 0.000507469 -0.000781589
0.00621566 0.000525005 -0.00078509
0.00642797 0.00103917 -0.00078063
0.00636325 0.00080118 -0.000197106
0.00625814 0.000508253 -0.000788259
0.0056583 0.000579367 -0.000546171
0.00632066 0.000501131 -0.000789865
0.00620899 0.000557768 -0.000791792
0.00599814 0.000806818 -0.000659989
0.00630479 0.000879863 -0.000138445
0.00618865 0.000546533 -0.000788261
0.00617474 0.000575652 -0.000792279
0.00640511 0.000992038 -0.000759596
0.00631897 0.000824506 -0.00068456
0.00633066 0.000829962 -0.000193533
0.00612027 0.000567142 -0.000783846
0.00633974 0.000863236 -0.000701951
0.00601873 0.000595045 -0.000780194
0.00605883 0.000583656 -0.000781898
0.00625993 -6.14329e-05 0.000298753
0.00627918 0.000753831 -0.00065272
0.00627017 0.000841706 -0.000154898
0.00585458 7.24912e-05 0.000138368
0.00629371 0.000502154 -0.000790872
0.0063828 0.000947001 -0.000739469
0.0063313 0.000515516 -0.000801544
0.00632882 0.000522907 -0.000795338
0.00628875 0.000870556 -0.000172843
0.00614421 0.000591363 -0.000791444
0.00609944 0.000587502 -0.000786012
0.00626005 0.000721728 -0.000638201
0.0062396 -7.08687e-05 0.000281164
0.00619111 -0.000234755 -5.09551e-05
0.00613414 0.000628638 -0.000798998
0.00605517 0.00064433 -0.000792144
0.00636788 0.000771157 -0.000214913
0.00581208 0.000560305 -0.000546383
0.00579207 6.79507e-05 0.000142051
0.00608913 0.000623897 -0.000793465
0.00633332 0.000502605 -0.000687982
0.006152 0.000553587 -0.000784607
0.00547634 0.000124353 0.000182494
0.00645483 0.000545025 -0.000815462
0.0060074 6.99788e-05 0.00014894
0.00621649 -7.75322e-05 0.000284445
0.00598029 0.000634859 -0.000784246
0.00625648 -6.17961e-05 0.000300441
0.00564704 7.4625e-05 0.000207125
0.00612008 -0.000267109 5.23172e-05
0.00587186 0.000501697 -0.00052494
0.00601874 4.65818e-05 0.00017596
0.00607106 0.000606413 -0.000787543
0.00638474 0.000556521 -0.000803807
0.00648139 0.000519088 -0.000812705
0.0074748 0.000251054 -0.000855454
0.00623487 0.000574989 -0.000798102
0.00618419 -6.63401e-05 0.000279402
0.0059529 0.000616076 -0.000778244
0.00657454 0.000481093 -0.000813527
0.00660128 0.000502972 -0.000820191
0.00597078 0.00063343 -0.000783423
0.00612553 0.000559516 -0.000783072
0.00618299 -0.000266432 2.75957e-05
0.00643366 0.000547046 -0.000813542
0.00626717 -7.25808e-05 0.000280247
0.00632876 0.00054808 -0.000801544
0.00623101 -0.000264991 4.76231e-05
4.03504e-15 1.0588e-14 8.29604e-14
-1.45275e-22 4.86658e-23 1.23839e-22
0.00569464 5.81948e-05 0.000214591
0.00610095 -5.31582e-05 0.000136976
0.0056663 4.44085e-05 0.000218583
0.00604801 5.80884e-05 0.000163613
0.00634655 0.000528137 -0.000671632
0.00608632 0.00057334 -0.000781162
0.00617892 0.000673185 -0.00081453
0.00546058 0.00075039 -0.000755498
0.00621888 -0.000174912 0.000156735
0.00552062 0.000244874 0.000143618
0.00565212 6.12332e-05 0.000213394
0.00612384 0.000571061 -0.000784634
0.00642454 0.000612474 -0.000416179
0.00626741 0.000840107 -0.000148025
0.00590122 6.91662e-05 0.00013887
0.00629772 0.000533005 -0.000795203
0.00577871 0.0009863 -0.000402261
0.00574725 -0.00026052 -0.00171346
0.00654758 0.000574196 -0.000830851
0.0060524 3.40841e-05 0.000192827
0.00598985 0.000639116 -0.000784386
0.00614279 0.000819411 -0.000140918
0.00615694 0.000560606 -0.000787912
0.00614401 -0.000189517 5.73941e-05
0.00598393 0.000611326 -0.000777886
0.00656735 0.000480361 -0.000826739
0.00565857 6.13298e-05 0.000212124
0.00626081 -5.56189e-05 0.000281055
0.00596289 0.00064801 -0.000786557
0.00638766 0.000811346 -0.000107081
0.00624611 0.000542346 -0.000792548
0.00584647 0.000817815 -0.000178631
0.00598572 5.09679e-05 0.000167721
0.00563757 0.000692574 -0.000761047
0.00633879 0.000828355 -0.000130344
0.00665743 0.000552004 -0.000837069
0.00586728 6.01717e-05 0.000150611
0.0056704 5.16785e-05 0.000216397
0.00607394 3.39403e-05 0.000179757
0.00564974 9.06414e-05 0.000202233
0.00619525 -0.000120755 0.000198716
0.00593092 6.02042e-05 0.000151262
0.00573361 7.41202e-05 0.000211547
0.00653566 0.000604019 -0.000836438
0.00630861 -4.1752e-05 0.000277099
0.00566631 3.02589e-05 0.000223233
0.00617095 -0.00025226 3.80548e-05
0.00573048 7.1625e-05 0.000211439
0.00550779 7.86139e-05 0.000199792
0.00571826 6.37477e-05 0.00021457
-3.83576e-14 8.16085e-14 2.95901e-13
0.00559173 9.71396e-05 0.00019708
0.00600714 0.000653524 -0.000792239
0.00549599 0.000115034 0.000187263
0.00563872 0.000116118 0.000192511
0.00552256 6.75429e-05 0.000204651
0.00548235 0.000197658 0.000158614
0.00630167 0.000826402 -0.000132629
0.0062422 -5.91342e-05 0.000271841
0.00556274 7.25599e-05 0.000206233
0.00559568 0.000231064 0.000151634
0.00544955 0.000164039 0.000168583
0.00632011 0.000819459 -0.000123944
0.00554517 0.000141012 0.00018113
0.00636604 0.000584893 -0.000813968
0.00544496 0.000140609 0.000175995
0.00572232 -3.84604e-05 -7.38774e-05
0.00568365 6.16237e-05 0.000213526
0.00562801 8.4572e-05 0.000201426
0.0056152 0.000237819 0.00015035
0.00566121 9.02805e-05 0.000202732
0.00566938 3.84268e-05 0.000214962
0.00631123 0.000840015 -0.00013669
0.00549272 9.38314e-05 0.000194523
0.00601594 0.000691843 -0.000803484
0.00570553 7.79265e-05 0.000209099
0.0057445 5.85606e-05 0.000214945
0.0063487 0.000548609 -0.000801071
0.00646946 0.000531274 -0.00081223
0.00628047 0.000563635 -0.000800167
0.00571428 -6.86758e-05 -5.23636e-05
0.00570398 0.000704538 -0.000770284
0.00566744 4.35674e-05 0.00021892
0.00647607 0.00078208 -7.38047e-05
0.00621535 -2.62557e-05 0.000266546
0.00554374 0.000167803 0.000171291
0.00565203 2.83088e-05 0.000184704
0.00575998 -3.25517e-05 -7.68703e-05
0.00615692 -5.1444e-05 0.000272556
0.00553118 0.00011016 0.000191273
0.00563739 8.55259e-05 0.00020255
0.00553202 0.000131951 0.000183222
0.00567551 4.11661e-05 0.000219971
0.00610767 0.0006258 -0.000795914
0.00612985 4.01872e-06 0.000251678
0.00558042 0.000129938 0.000185912
0.00547538 6.19096e-05 0.000204749
0.00612684 1.4979e-05 0.000212687
0.00550301 9.65253e-05 0.000192228
0.0062722 -5.18949e-05 0.000277512
0.00626646 0.000492562 -0.000791061
0.00728013 0.000250893 -0.000834518
0.00547513 7.92547e-05 0.000198906
0.00636784 0.00056765 -0.000807689
0.00745287 0.000365418 -0.000878727
0.00573147 -2.78077e-05 -7.64671e-05
0.00555805 0.000110444 0.000189591
0.00644726 0.000796623 -8.87687e-05
0.00557807 0.00019305 0.000163663
0.00575073 0.000675428 -0.000769191
0.00553228 8.19697e-05 0.000197861
0.00614102 -0.000114126 -3.85631e-05
0.00646897 0.000792007 -7.66702e-05
0.00570139 5.5965e-05 0.000216277
0.00568943 7.35152e-05 0.000209914
0.00607685 0.000665908 -0.000800863
0.00563862 0.000131429 0.000186761
0.00615117 -0.00012952 -3.15151e-05
0.0057528 -3.77913e-05 -7.4657e-05
0.00563918 7.15349e-05 0.000209446
0.00561907 6.60582e-05 0.000211174
0.0056977 -3.86154e-05 -6.81921e-05
0.00614627 -0.000280346 3.69063e-05
0.0061564 4.42242e-05 0.000238633
0.00645843 0.000529168 -0.000811018
0.00562945 6.90993e-06 0.000227787
0.00562988 5.63256e-05 0.000212704
0.00560519 1.8841e-05 0.000225634
0.00618398 3.01482e-05 0.000267293
0.00614613 -0.000112184 -3.53865e-05
0.00619939 1.81543e-05 0.000274174
0.00586298 0.00032253 0.000131432
0.00619724 -5.61083e-05 0.000275336
0.00616894 4.59692e-05 0.000260496
0.00611509 -0.000115267 -3.84839e-05
0.0055093 7.55309e-05 0.000201659
0.00557648 0.000176325 0.000169959
0.00570991 2.03354e-06 -9.14607e-05
0.00560549 5.93613e-05 0.000210295
0.00598574 0.000714351 -0.000803515
0.00565242 -9.44959e-06 -8.35199e-05
0.00614371 -0.000114975 -3.86131e-05
0.00612627 -0.00010672 -4.20569e-05
0.00591171 7.05785e-05 0.000137894
0.00559351 3.88172e-05 0.000217842
0.00556424 8.66982e-05 0.000200062
0.00548013 5.98772e-05 0.000205468
0.00563837 3.10913e-05 -3.75512e-07
0.00592397 0.000370601 0.000117496
0.00565716 1.78974e-05 0.000222581
0.00557913 3.12326e-05 0.000219081
0.00613269 -0.000110981 -4.14422e-05
0.00561029 8.89264e-05 0.000204042
0.00579464 -3.90354e-05 -6.92199e-05
0.00567057 2.69301e-05 0.000224686
0.00557358 4.60426e-05 0.000214121
0.00566673 0.000119362 0.000203218
0.00551601 9.97399e-05 0.00019262
0.0060358 0.000690463 -0.000802643
0.00561814 5.2469e-05 0.000214258
0.00563695 3.22841e-07 -8.86811e-05
0.00569534 3.39807e-05 0.000102284
0.00563445 7.72224e-05 0.000110497
0.00552856 5.75094e-05 0.000208097
0.00546069 0.000112349 0.000187477
0.00571431 3.95229e-05 -0.000284377
0.00557615 0.000129357 0.000185989
0.0057606 -5.29905e-05 -6.42534e-05
0.00578601 1.52814e-06 -9.31112e-05
0.00600875 0.000596014 4.33637e-05
0.0061362 -0.000102496 -4.47265e-05
0.00615029 4.21116e-05 0.000258274
0.00564833 7.83574e-05 0.000205268
0.00564224 8.28163e-05 0.000204525
0.00563892 8.38031e-05 0.000199297
0.00552329 6.43024e-05 0.000205944
0.00564939 7.57155e-05 0.000203101
0.00618015 5.06852e-05 0.000236873
0.00564779 5.76724e-05 0.000213865
0.00555793 0.000131542 0.00018446
0.00610494 -0.000271679 1.98493e-05
0.00556856 0.000114431 0.00019092
0.0057036 6.21945e-05 -0.000237651
0.00584243 -7.16915e-06 -8.88326e-05
0.00561391 6.66355e-06 0.000230109
0.00645074 0.000889383 -0.000191579
0.00613799 -0.000115917 -3.9901e-05
0.00565193 -1.24678e-05 -8.70895e-05
0.0061795 0.000542676 -0.000793484

VECTORS force float
3.73834e-11 1.25271e-10 -2.32721e-10
-2.90878e-12 4.18661e-10 -1.23097e-10
1.20562e-10 -7.38794e-11 1.06169e-10
-3.60678e-10 -2.112e-10 6.7779e-11
6.55372e-11 -2.26674e-10 2.16021e-10
8.45848e-13 6.99848e-13 -3.13889e-13
-5.34658e-11 1.66903e-10 1.99313e-10
-2.74769e-10 8.60319e-11 8.39296e-10
1.01193e-12 1.38793e-13 -9.91483e-14
-8.27263e-11 -3.44657e-11 -5.68076e-11
-8.22082e-11 2.11429e-10 -3.69774e-11
2.68659e-11 -8.91623e-11 -1.91449e-11
-5.60703e-11 -1.62305e-10 1.88725e-10
-1.69843e-11 -7.89944e-11 -1.28903e-10
-6.3482e-11 1.1541e-10 -3.32198e-11
4.48583e-10 2.29143e-10 -1.54299e-10
-1.03483e-11 -7.9472e-11 -3.30847e-11
-9.24457e-14 7.3881e-13 -2.98754e-13
-2.93849e-10 4.7626e-11 -1.95594e-10
7.71417e-11 -8.59829e-11 1.55207e-11
1.33351e-10 2.82362e-10 -6.85356e-11
1.50387e-11 -5.02283e-11 -1.69823e-11
-4.60879e-13 6.34306e-13 -2.43665e-13
-1.19279e-10 2.69156e-11 1.23732e-10
2.99069e-13 7.3426e-13 -3.09837e-13
-3.52767e-10 3.55709e-12 -2.61947e-11
-2.57218e-10 -1.4108e-10 1.54213e-11
3.27818e-10 -2.91892e-10 2.60152e-10
-2.71947e-11 1.01365e-10 -4.16043e-11
1.5098e-10 2.49223e-10 4.45411e-11
-1.83307e-11 9.88171e-11 1.75877e-11
6.66152e-13 7.52085e-13 -3.73517e-13
-9.69806e-11 -7.72889e-11 7.49193e-10
7.12866e-12 1.60297e-10 -1.5029e-11
-9.80856e-14 -6.79021e-12 2.88737e-12
-2.3816e-10 -1.23944e-11 1.57314e-10
-8.97543e-12 1.80857e-10 -3.4947e-11
-7.94224e-11 4.20252e-11 -1.34155e-11
-5.97832e-11 -6.61679e-11 -5.26961e-10
-1.15203e-11 1.72984e-10 -6.07598e-11
-3.41198e-11 1.67915e-10 -6.74047e-11
5.91249e-13 6.51491e-13 -2.84914e-13
2.18653e-15 8.03409e-13 -3.38161e-13
8.05864e-11 -2.12786e-10 9.26067e-11
-4.7651e-11 -4.42469e-11 4.4388e-11
1.66211e-13 6.53664e-13 -2.94147e-13
-1.43225e-10 -8.6007e-11 5.68548e-11
-6.27322e-11 -2.76377e-12 -6.2499e-12
3.94397e-12 8.39079e-11 4.07051e-11
-2.18727e-13 7.13988e-13 -2.8536e-13
1.35289e-10 -4.68475e-11 -1.66241e-11
5.65512e-10 4.26497e-11 -2.99746e-11
-1.44237e-10 1.06714e-10 7.96384e-13
3.86478e-13 7.70315e-13 -3.67262e-13
-2.77347e-10 -8.84354e-11 3.79046e-10
-1.86702e-10 -5.2938e-11 1.41805e-10
-1.60947e-10 -2.82135e-10 9.51775e-11
-8.08195e-11 1.29644e-10 -2.23213e-11
-4.31785e-11 3.1699e-11 -2.02155e-11
-3.55641e-13 6.87039e-13 -2.71437e-13
2.43819e-10 -1.12734e-10 -2.50486e-11