# vtk DataFile Version 3.0
LIGGGHTS particles timestep 18800000
ASCII
DATASET POLYDATA
POINTS 287 float
0.122451 0.0163287 0.00774046
0.122933 0.0176134 0.00712389
0.116161 0.0157759 0.00865049
0.122783 0.0177434 0.00710096
0.122337 0.0162472 0.00784049
0.128388 0.016508 0.00778399
0.122518 0.0169661 0.00734328
0.12224 0.0159269 0.00821216
0.128651 0.01757 0.00723924
0.122453 0.0167131 0.00749106
0.123002 0.0177977 0.00707924
0.116369 0.0164934 0.00798632
0.122317 0.0161832 0.00791481
0.116074 0.015487 0.00891103
0.122656 0.0171682 0.00724063
0.116054 0.0154143 0.00897676
0.122434 0.0166284 0.00754056
0.128529 0.0170197 0.00732772
0.122298 0.0161191 0.00798915
0.122432 0.0162644 0.00781459
0.122561 0.0171457 0.00726813
0.116565 0.0168676 0.00762289
0.128593 0.0172783 0.0071999
0.122496 0.0168818 0.00739254
0.128468 0.0168004 0.00752325
0.11645 0.0167776 0.00771669
0.122766 0.0176436 0.00712423
0.122279 0.0160551 0.00806348
0.122819 0.0174817 0.00715857
0.122539 0.0170505 0.00729402
0.122634 0.0170785 0.0072801
0.128408 0.0165811 0.00771881
0.122414 0.0165432 0.00759037
0.122615 0.0169938 0.00732964
0.12869 0.0177644 0.00726546
0.122571 0.0168253 0.00742798
0.122753 0.0171976 0.00722809
0.128612 0.0173755 0.00721301
0.122375 0.0163753 0.0076918
0.122583 0.0172358 0.00723054
0.122774 0.017292 0.00720343
0.128428 0.0166542 0.00765363
0.128509 0.0169466 0.0073929
0.122395 0.0164585 0.00763987
0.122626 0.0174243 0.00717989
0.128489 0.0168735 0.00745808
0.12269 0.0177074 0.00711309
0.122672 0.0176159 0.00714923
0.116349 0.0164226 0.008054
0.128549 0.017097 0.00726767
0.122412 0.0162004 0.00788891
0.116115 0.0156321 0.00877996
0.122593 0.0169095 0.00737883
0.128448 0.0167273 0.00758845
0.122668 0.0168541 0.00741373
0.12269 0.0169383 0.00736454
0.122356 0.0163113 0.00776615
0.122797 0.0173869 0.00718101
0.122723 0.0174532 0.0071692
0.128572 0.017183 0.00722185
0.116484 0.0165836 0.00789282
0.116424 0.0163711 0.00809569
0.122953 0.0177131 0.00710048
0.122859 0.0176798 0.00711206
0.122509 0.0165719 0.00757607
0.128631 0.0174728 0.00722612
0.116094 0.0155597 0.00884532
0.12284 0.0175774 0.00713602
0.122475 0.0167974 0.0074418
0.122678 0.0172625 0.00721426
0.116687 0.0172991 0.00722429
0.122798 0.0182199 0.00699354
0.116184 0.0158482 0.00858542
0.116389 0.0165644 0.00791884
0.122729 0.0178978 0.0071528
0.116329 0.0163516 0.00812147
0.11647 0.0168492 0.00764987
0.116519 0.0163903 0.00806881
0.12867 0.0176672 0.00725235
0.116305 0.0159444 0.00850031
0.122745 0.017548 0.00714677
0.122646 0.0167698 0.00746289
0.122738 0.0179335 0.00705986
0.122802 0.0179889 0.00711778
0.122914 0.0175112 0.00714782
0.116409 0.0166355 0.00785158
0.122941 0.0179564 0.00704595
0.122857 0.0180118 0.00703706
0.123001 0.0182451 0.00698257
0.122947 0.0180246 0.00711885
0.122959 0.0180521 0.00702351
0.116289 0.0162117 0.00825879
0.122758 0.0180289 0.00703743
0.116464 0.0165126 0.0079603
0.12287 0.0173202 0.00719293
0.116404 0.0163004 0.0081635
0.0643568 0.0187248 0.00531097
0.24257 0.0191927 0.00520306
0.116763 0.0172435 0.00725769
0.116249 0.0160656 0.00838943
0.116837 0.0171912 0.00729968
0.116207 0.0159205 0.00852033
0.12255 0.0167409 0.00747727
0.122648 0.0175191 0.00715748
0.122876 0.0185988 0.00691683
0.122937 0.0183956 0.00695483
0.116308 0.0162804 0.00818876
0.117056 0.0179985 0.00710671
0.116701 0.0170297 0.00746093
0.1227 0.0173583 0.00719162
0.12253 0.0166563 0.00752672
0.122393 0.0161363 0.00796324
0.116137 0.0157118 0.00872357
0.12271 0.017023 0.00731501
0.12226 0.015991 0.00813782
0.122221 0.0158629 0.00828651
0.122859 0.0185096 0.00695866
0.116344 0.0160865 0.00836528
0.122837 0.017915 0.00705983
0.122374 0.0160722 0.0080376
0.122604 0.0173293 0.00720237
0.116268 0.0161384 0.00832342
0.122709 0.0178002 0.00714544
0.122947 0.0181232 0.00709268
0.116585 0.0169387 0.00755549
0.116444 0.0164417 0.00802777
0.122772 0.0178412 0.00707932
0.122565 0.0164317 0.00766049
0.122731 0.0171074 0.00726573
0.122355 0.0160082 0.00811191
0.116282 0.0158739 0.00856754
0.122819 0.0183157 0.00697317
0.122489 0.0164872 0.00762565
0.122955 0.0184932 0.00693547
0.116324 0.0160154 0.00843281
0.116722 0.0171008 0.00739337
0.11623 0.0159928 0.00845511
0.116681 0.0169587 0.00752846
0.116539 0.0164613 0.00800133
0.116259 0.0158026 0.00863384
0.11653 0.0170612 0.00744651
0.122917 0.0182996 0.00697396
0.11658 0.0166033 0.00786636
0.11695 0.0172846 0.00720347
0.116383 0.0162287 0.00823023
0.116646 0.0171519 0.00735319
0.116707 0.0173734 0.00715973
0.116625 0.0170806 0.00742036
0.0219312 0.0187687 0.00551176
0.116856 0.0176765 0.00717821
0.122876 0.0177765 0.00708945
0.116591 0.0172795 0.0072502
0.11655 0.0171322 0.00737903
0.116879 0.0177863 0.007093
0.117015 0.0175593 0.00710806
0.122526 0.0162824 0.00778779
0.11656 0.0165323 0.00793385
0.116858 0.017267 0.00723779
0.117068 0.0178548 0.00707871
0.116876 0.0173526 0.00718948
0.122545 0.0163562 0.00772302
0.116994 0.0174629 0.00713051
0.123037 0.0179895 0.00703451
0.116801 0.0174004 0.00713846
0.110639 0.0175017 0.00724157
0.116605 0.0170096 0.00748789
0.116632 0.0174302 0.00712509
0.117124 0.017774 0.00706035
0.117032 0.0177427 0.00708375
0.11661 0.0173677 0.00729336
0.12247 0.0164025 0.00767507
0.116783 0.0173157 0.00718908
0.123019 0.0178937 0.0070568
0.11651 0.0169903 0.00751399
0.11662 0.0172849 0.0073486
0.122848 0.0172253 0.00721535
0.122877 0.0181079 0.00701445
0.122893 0.0174149 0.00717051
0.110784 0.0177177 0.00715384
0.122839 0.0184117 0.00695404
0.116797 0.0170492 0.00743465
0.122625 0.0166854 0.00751217
0.11662 0.0167453 0.00773141
0.117059 0.0176466 0.00708866
0.116034 0.0153416 0.00904248
0.110704 0.017776 0.00713893
0.116429 0.0167063 0.00778388
0.116571 0.0172049 0.0073135
0.116545 0.0167967 0.00769048
0.116994 0.0179204 0.00710124
0.116817 0.0171202 0.00736717
0.123044 0.0184488 0.00694199
0.116524 0.0167256 0.00775785
0.116875 0.017827 0.00718427
0.11682 0.0174969 0.00711595
0.116364 0.0161575 0.00829779
0.116666 0.0172226 0.00728537
0.1166 0.0166743 0.00779889
0.122849 0.0178576 0.00714088
0.12298 0.0181483 0.00700185
0.116895 0.0174335 0.00713399
0.122826 0.0171346 0.0072523
0.123077 0.018181 0.00699321
0.110761 0.0176249 0.00718864
0.116612 0.0173544 0.0071872
0.122585 0.0165163 0.00761105
0.116738 0.017561 0.00709746
0.122897 0.0182035 0.00699309
0.116717 0.0174897 0.00721662
0.110648 0.0171875 0.00741622
0.122605 0.0166008 0.00756164
0.116742 0.0171722 0.00732543
0.11649 0.0169193 0.00758146
0.122926 0.0178625 0.00707645
0.116969 0.0173684 0.00715238
0.110716 0.0174395 0.00725812
0.110661 0.0175932 0.00720735
0.116628 0.0174523 0.0072429
0.11692 0.0179845 0.00712343
0.110617 0.0174144 0.00728513
0.116499 0.0163193 0.00813629
0.116641 0.0168166 0.00766353
0.122778 0.0181243 0.00701503
0.116802 0.0182737 0.00719297
0.116986 0.0182302 0.00715899
0.116821 0.0183708 0.00720803
0.110424 0.016663 0.00774096
0.110488 0.0169108 0.00758439
0.110403 0.0165805 0.00779314
0.116756 0.0169073 0.00756961
0.116504 0.0166546 0.00782533
0.110446 0.0167456 0.00768877
0.110574 0.017241 0.00737564
0.11677 0.0176584 0.00713118
0.116982 0.0180625 0.00712885
0.110724 0.0178679 0.0071047
0.116726 0.0174644 0.00712031
0.123021 0.0183419 0.00696329
0.110763 0.0180518 0.00703625
0.110691 0.0173525 0.00731191
0.110553 0.0171585 0.00742783
0.116234 0.0157293 0.0086998
0.116845 0.0175934 0.00712359
0.116692 0.0177215 0.00713666
0.116751 0.01776 0.00720815
0.110782 0.0181437 0.00700203
0.116661 0.0168877 0.007596
0.116887 0.0182247 0.00717201
0.116907 0.0181288 0.00715168
0.110531 0.0170759 0.00748001
0.116713 0.0178194 0.00713726
0.110682 0.0176846 0.00717314
0.116934 0.0172121 0.007272
0.116805 0.0178538 0.00711578
0.116794 0.0174292 0.00723404
0.116672 0.0176235 0.00714043
0.123057 0.018085 0.00701234
0.11692 0.0175279 0.00711213
0.11082 0.0183278 0.00693358
0.116752 0.0180148 0.00715277
0.110802 0.0182356 0.0069678
0.116786 0.0177556 0.00711478
0.116651 0.017526 0.00714628
0.116772 0.0180864 0.00721944
0.11685 0.0176873 0.00707901
0.110596 0.0173244 0.00732296
0.110804 0.0178109 0.00711911
0.116736 0.0168363 0.00763709
0.110669 0.0172701 0.00736395
0.110467 0.0168282 0.00763658
0.116845 0.0180501 0.00714601
0.116827 0.0179504 0.00713503
0.116732 0.0179173 0.00714193
0.1169 0.0178874 0.00710855
0.116924 0.0180397 0.00720681
0.116716 0.0167653 0.00770457
0.116777 0.0169783 0.00750213
0.116973 0.0178236 0.00708643
0.116479 0.0162484 0.00820378
0.116931 0.0176299 0.00708798
0.116783 0.0181767 0.00717791
0.110738 0.017532 0.00722344
0.116906 0.0183217 0.00718707
0.122805 0.0170503 0.00730154
0.11051 0.0169933 0.0075322
0.110743 0.0179599 0.00707048
0.123113 0.0179253 0.00704559

VERTICES 287 574
1 0
1 1
1 2
1 3
1 4
1 5
1 6
1 7
1 8
1 9
1 10
1 11
1 12
1 13
1 14
1 15
1 16
1 17
1 18
1 19
1 20
1 21
1 22
1 23
1 24
1 25
1 26
1 27
1 28
1 29
1 30
1 31
1 32
1 33
1 34
1 35
1 36
1 37
1 38
1 39
1 40
1 41
1 42
1 43
1 44
1 45
1 46
1 47
1 48
1 49
1 50
1 51
1 52
1 53
1 54
1 55
1 56
1 57
1 58
1 59
1 60
1 61
1 62
1 63
1 64
1 65
1 66
1 67
1 68
1 69
1 70
1 71
1 72
1 73
1 74
1 75
1 76
1 77
1 78
1 79
1 80
1 81
1 82
1 83
1 84
1 85
1 86
1 87
1 88
1 89
1 90
1 91
1 92
1 93
1 94
1 95
1 96
1 97
1 98
1 99
1 100
1 101
1 102
1 103
1 104
1 105
1 106
1 107
1 108
1 109
1 110
1 111
1 112
1 113
1 114
1 115
1 116
1 117
1 118
1 119
1 120
1 121
1 122
1 123
1 124
1 125
1 126
1 127
1 128
1 129
1 130
1 131
1 132
1 133
1 134
1 135
1 136
1 137
1 138
1 139
1 140
1 141
1 142
1 143
1 144
1 145
1 146
1 147
1 148
1 149
1 150
1 151
1 152
1 153
1 154
1 155
1 156
1 157
1 158
1 159
1 160
1 161
1 162
1 163
1 164
1 165
1 166
1 167
1 168
1 169
1 170
1 171
1 172
1 173
1 174
1 175
1 176
1 177
1 178
1 179
1 180
1 181
1 182
1 183
1 184
1 185
1 186
1 187
1 188
1 189
1 190
1 191
1 192
1 193
1 194
1 195
1 196
1 197
1 198
1 199
1 200
1 201
1 202
1 203
1 204
1 205
1 206
1 207
1 208
1 209
1 210
1 211
1 212
1 213
1 214
1 215
1 216
1 217
1 218
1 219
1 220
1 221
1 222
1 223
1 224
1 225
1 226
1 227
1 228
1 229
1 230
1 231
1 232
1 233
1 234
1 235
1 236
1 237
1 238
1 239
1 240
1 241
1 242
1 243
1 244
1 245
1 246
1 247
1 248
1 249
1 250
1 251
1 252
1 253
1 254
1 255
1 256
1 257
1 258
1 259
1 260
1 261
1 262
1 263
1 264
1 265
1 266
1 267
1 268
1 269
1 270
1 271
1 272
1 273
1 274
1 275
1 276
1 277
1 278
1 279
1 280
1 281
1 282
1 283
1 284
1 285
1 286

POINT_DATA 287
SCALARS id int 1
LOOKUP_TABLE default
1
2
3
4
5
6
7
8
9
10
11
12
13
14
15
16
17
18
19
21
22
23
24
25
26
27
28
29
30
31
32
33
34
35
36
37
38
39
41
42
44
45
46
47
48
49
50
51
52
53
54
55
56
57
59
60
61
62
63
64
65
66
67
68
69
70
71
72
73
74
76
77
78
79
80
81
82
83
84
85
86
87
88
89
90
91
92
93
94
95
96
97
98
99
100
101
102
103
104
105
106
107
108
109
110
111
112
113
114
115
116
117
118
119
120
121
122
123
124
125
126
127
128
129
130
131
132
133
134
135
136
137
138
140
141
142
143
144
146
147
148
149
150
151
153
154
155
156
157
158
159
160
162
164
165
166
167
168
169
170
171
172
173
174
175
176
177
178
179
181
182
183
184
185
186
187
188
189
190
191
192
193
194
195
196
197
198
199
200
201
202
203
204
205
206
207
208
209
210
211
212
213
214
215
216
217
218
219
220
221
222
223
224
225
226
227
228
229
230
231
232
233
234
235
236
237
239
240
241
242
243
244
246
247
248
249
250
251
252
253
254
255
256
257
258
259
260
261
262
263
264
265
266
267
268
269
270
271
272
273
274
275
276
277
278
279
280
281
282
283
284
285
286
287
288
289
290
291
292
293
294
295
296
297
298
299
300

SCALARS type int 1
LOOKUP_TABLE default
1
1
1
1
1
1
1
1
1
1
1
1
1
1
1
1
1
1
1
1
1
1
1
1
1
1
1
1
1
1
1
1
1
1
1
1
1
1
1
1
1
1
1
1
1
1
1
1
1
1
1
1
1
1
1
1
1
1
1
1
1
1
1
1
1
1
1
1
1
1
1
1
1
1
1
1
1
1
1
1
1
1
1
1
1
1
1
1
1
1
1
1
1
1
1
1
1
1
1
1
1
1
1
1
1
1
1
1
1
1
1
1
1
1
1
1
1
1
1
1
1
1
1
1
1
1
1
1
1
1
1
1
1
1
1
1
1
1
1
1
1
1
1
1
1
1
1
1
1
1
1
1
1
1
1
1
1
1
1
1
1
1
1
1
1
1
1
1
1
1
1
1
1
1
1
1
1
1
1
1
1
1
1
1
1
1
1
1
1
1
1
1
1
1
1
1
1
1
1
1
1
1
1
1
1
1
1
1
1
1
1
1
1
1
1
1
1
1
1
1
1
1
1
1
1
1
1
1
1
1
1
1
1
1
1
1
1
1
1
1
1
1
1
1
1
1
1
1
1
1
1
1
1
1
1
1
1
1
1
1
1
1
1
1
1
1
1
1
1
1
1
1
1
1
1
1
1
1
1
1
1
1
1
1
1
1
1

SCALARS radius float 1
LOOKUP_TABLE default
5e-05
5e-05
5e-05
5e-05
5e-05
5e-05
5e-05
5e-05
5e-05
5e-05
5e-05
5e-05
5e-05
5e-05
5e-05
5e-05
5e-05
5e-05
5e-05
5e-05
5e-05
5e-05
5e-05
5e-05
5e-05
5e-05
5e-05
5e-05
5e-05
5e-05
5e-05
5e-05
5e-05
5e-05
5e-05
5e-05
5e-05
5e-05
5e-05
5e-05
5e-05
5e-05
5e-05
5e-05
5e-05
5e-05
5e-05
5e-05
5e-05
5e-05
5e-05
5e-05
5e-05
5e-05
5e-05
5e-05
5e-05
5e-05
5e-05
5e-05
5e-05
5e-05
5e-05
5e-05
5e-05
5e-05
5e-05
5e-05
5e-05
5e-05
5e-05
5e-05
5e-05
5e-05
5e-05
5e-05
5e-05
5e-05
5e-05
5e-05
5e-05
5e-05
5e-05
5e-05
5e-05
5e-05
5e-05
5e-05
5e-05
5e-05
5e-05
5e-05
5e-05
5e-05
5e-05
5e-05
5e-05
5e-05
5e-05
5e-05
5e-05
5e-05
5e-05
5e-05
5e-05
5e-05
5e-05
5e-05
5e-05
5e-05
5e-05
5e-05
5e-05
5e-05
5e-05
5e-05
5e-05
5e-05
5e-05
5e-05
5e-05
5e-05
5e-05
5e-05
5e-05
5e-05
5e-05
5e-05
5e-05
5e-05
5e-05
5e-05
5e-05
5e-05
5e-05
5e-05
5e-05
5e-05
5e-05
5e-05
5e-05
5e-05
5e-05
5e-05
5e-05
5e-05
5e-05
5e-05
5e-05
5e-05
5e-05
5e-05
5e-05
5e-05
5e-05
5e-05
5e-05
5e-05
5e-05
5e-05
5e-05
5e-05
5e-05
5e-05
5e-05
5e-05
5e-05
5e-05
5e-05
5e-05
5e-05
5e-05
5e-05
5e-05
5e-05
5e-05
5e-05
5e-05
5e-05
5e-05
5e-05
5e-05
5e-05
5e-05
5e-05
5e-05
5e-05
5e-05
5e-05
5e-05
5e-05
5e-05
5e-05
5e-05
5e-05
5e-05
5e-05
5e-05
5e-05
5e-05
5e-05
5e-05
5e-05
5e-05
5e-05
5e-05
5e-05
5e-05
5e-05
5e-05
5e-05
5e-05
5e-05
5e-05
5e-05
5e-05
5e-05
5e-05
5e-05
5e-05
5e-05
5e-05
5e-05
5e-05
5e-05
5e-05
5e-05
5e-05
5e-05
5e-05
5e-05
5e-05
5e-05
5e-05
5e-05
5e-05
5e-05
5e-05
5e-05
5e-05
5e-05
5e-05
5e-05
5e-05
5e-05
5e-05
5e-05
5e-05
5e-05
5e-05
5e-05
5e-05
5e-05
5e-05
5e-05
5e-05
5e-05
5e-05
5e-05
5e-05
5e-05
5e-05
5e-05
5e-05
5e-05
5e-05
5e-05
5e-05
5e-05
5e-05
5e-05
5e-05
5e-05
5e-05
5e-05
5e-05
5e-05
5e-05
5e-05
5e-05
5e-05
5e-05
5e-05
5e-05
5e-05
5e-05
5e-05

SCALARS mass float 1
LOOKUP_TABLE default
1.46608e-10
1.46608e-10
1.46608e-10
1.46608e-10
1.46608e-10
1.46608e-10
1.46608e-10
1.46608e-10
1.46608e-10
1.46608e-10
1.46608e-10
1.46608e-10
1.46608e-10
1.46608e-10
1.46608e-10
1.46608e-10
1.46608e-10
1.46608e-10
1.46608e-10
1.46608e-10
1.46608e-10
1.46608e-10
1.46608e-10
1.46608e-10
1.46608e-10
1.46608e-10
1.46608e-10
1.46608e-10
1.46608e-10
1.46608e-10
1.46608e-10
1.46608e-10
1.46608e-10
1.46608e-10
1.46608e-10
1.46608e-10
1.46608e-10
1.46608e-10
1.46608e-10
1.46608e-10
1.46608e-10
1.46608e-10
1.46608e-10
1.46608e-10
1.46608e-10
1.46608e-10
1.46608e-10
1.46608e-10
1.46608e-10
1.46608e-10
1.46608e-10
1.46608e-10
1.46608e-10
1.46608e-10
1.46608e-10
1.46608e-10
1.46608e-10
1.46608e-10
1.46608e-10
1.46608e-10
1.46608e-10
1.46608e-10
1.46608e-10
1.46608e-10
1.46608e-10
1.46608e-10
1.46608e-10
1.46608e-10
1.46608e-10
1.46608e-10
1.46608e-10
1.46608e-10
1.46608e-10
1.46608e-10
1.46608e-10
1.46608e-10
1.46608e-10
1.46608e-10
1.46608e-10
1.46608e-10
1.46608e-10
1.46608e-10
1.46608e-10
1.46608e-10
1.46608e-10
1.46608e-10
1.46608e-10
1.46608e-10
1.46608e-10
1.46608e-10
1.46608e-10
1.46608e-10
1.46608e-10
1.46608e-10
1.46608e-10
1.46608e-10
1.46608e-10
1.46608e-10
1.46608e-10
1.46608e-10
1.46608e-10
1.46608e-10
1.46608e-10
1.46608e-10
1.46608e-10
1.46608e-10
1.46608e-10
1.46608e-10
1.46608e-10
1.46608e-10
1.46608e-10
1.46608e-10
1.46608e-10
1.46608e-10
1.46608e-10
1.46608e-10
1.46608e-10
1.46608e-10
1.46608e-10
1.46608e-10
1.46608e-10
1.46608e-10
1.46608e-10
1.46608e-10
1.46608e-10
1.46608e-10
1.46608e-10
1.46608e-10
1.46608e-10
1.46608e-10
1.46608e-10
1.46608e-10
1.46608e-10
1.46608e-10
1.46608e-10
1.46608e-10
1.46608e-10
1.46608e-10
1.46608e-10
1.46608e-10
1.46608e-10
1.46608e-10
1.46608e-10
1.46608e-10
1.46608e-10
1.46608e-10
1.46608e-10
1.46608e-10
1.46608e-10
1.46608e-10
1.46608e-10
1.46608e-10
1.46608e-10
1.46608e-10
1.46608e-10
1.46608e-10
1.46608e-10
1.46608e-10
1.46608e-10
1.46608e-10
1.46608e-10
1.46608e-10
1.46608e-10
1.46608e-10
1.46608e-10
1.46608e-10
1.46608e-10
1.46608e-10
1.46608e-10
1.46608e-10
1.46608e-10
1.46608e-10
1.46608e-10
1.46608e-10
1.46608e-10
1.46608e-10
1.46608e-10
1.46608e-10
1.46608e-10
1.46608e-10
1.46608e-10
1.46608e-10
1.46608e-10
1.46608e-10
1.46608e-10
1.46608e-10
1.46608e-10
1.46608e-10
1.46608e-10
1.46608e-10
1.46608e-10
1.46608e-10
1.46608e-10
1.46608e-10
1.46608e-10
1.46608e-10
1.46608e-10
1.46608e-10
1.46608e-10
1.46608e-10
1.46608e-10
1.46608e-10
1.46608e-10
1.46608e-10
1.46608e-10
1.46608e-10
1.46608e-10
1.46608e-10
1.46608e-10
1.46608e-10
1.46608e-10
1.46608e-10
1.46608e-10
1.46608e-10
1.46608e-10
1.46608e-10
1.46608e-10
1.46608e-10
1.46608e-10
1.46608e-10
1.46608e-10
1.46608e-10
1.46608e-10
1.46608e-10
1.46608e-10
1.46608e-10
1.46608e-10
1.46608e-10
1.46608e-10
1.46608e-10
1.46608e-10
1.46608e-10
1.46608e-10
1.46608e-10
1.46608e-10
1.46608e-10
1.46608e-10
1.46608e-10
1.46608e-10
1.46608e-10
1.46608e-10
1.46608e-10
1.46608e-10
1.46608e-10
1.46608e-10
1.46608e-10
1.46608e-10
1.46608e-10
1.46608e-10
1.46608e-10
1.46608e-10
1.46608e-10
1.46608e-10
1.46608e-10
1.46608e-10
1.46608e-10
1.46608e-10
1.46608e-10
1.46608e-10
1.46608e-10
1.46608e-10
1.46608e-10
1.46608e-10
1.46608e-10
1.46608e-10
1.46608e-10
1.46608e-10
1.46608e-10
1.46608e-10
1.46608e-10
1.46608e-10
1.46608e-10
1.46608e-10
1.46608e-10
1.46608e-10
1.46608e-10
1.46608e-10
1.46608e-10
1.46608e-10
1.46608e-10
1.46608e-10
1.46608e-10
1.46608e-10
1.46608e-10
1.46608e-10
1.46608e-10
1.46608e-10

VECTORS velocity float
0.00572526 0.000212681 -0.000512979
0.00624025 0.000159645 -0.000304952
0.00650899 0.000496618 8.08862e-05
0.00623484 0.000140022 -0.000300317
0.00562425 1.62037e-05 -0.000383978
0.00566514 -0.000727796 0.00121327
0.00633232 0.00026248 2.01148e-05
0.00537794 -0.000190843 -0.000139726
0.00569195 -0.00179983 0.000847512
0.00627097 0.000242778 3.49042e-05
0.00617968 0.000325795 -0.000340397
0.00578731 0.000145286 -0.000634481
0.00569679 4.61959e-06 -0.000378402
0.00589805 0.000592263 -6.12194e-05
0.00638149 0.000186078 5.18805e-06
0.00597718 0.000619488 -7.97129e-05
0.0056203 0.000234769 2.21926e-05
0.00573502 -0.00131668 0.00169105
0.0056922 1.40311e-06 -0.000373708
0.00563061 0.000166255 -0.000548303
0.00636252 0.000200175 0.000121553
0.00603878 2.87496e-05 -0.000546998
0.00594775 -0.00166049 0.000874302
0.00629673 0.000250964 2.70189e-05
0.00564747 -0.000865939 0.00131957
0.00599112 8.21307e-05 -0.000597272
0.00626631 8.73839e-05 -0.000290079
0.00549955 2.06529e-05 -0.000386337
0.0062971 9.42556e-05 -0.000292116
0.00635896 0.000282622 1.02187e-05
0.00642187 0.000199298 7.6405e-05
0.00571525 -0.000728445 0.00121865
0.00570051 0.000339333 -4.47172e-05
0.00634342 0.000189745 5.92449e-05
0.00550601 -0.00210673 0.000793615
0.00622978 0.000194793 6.19344e-05
0.00634291 7.1537e-05 -0.000375581
0.00583216 -0.00174879 0.00086813
0.00569216 -2.62347e-05 -0.000208308
0.00636029 0.000153042 -9.80041e-05
0.00628604 0.000102207 -0.000297183
0.00576639 -0.000724266 0.00121946
0.00582983 -0.00129851 0.00177052
0.00574194 0.000300636 6.25099e-05
0.00631269 0.000111116 -0.00028603
0.00546585 -0.00117633 0.00158889
0.0062613 8.70582e-05 -0.000290119
0.00628132 9.23789e-05 -0.000294637
0.00574486 0.000161081 -0.000636322
0.00586791 -0.00159759 0.00123991
0.00565291 0.000155505 -0.000564232
0.00624675 0.000514514 4.07445e-05
0.00632658 0.000182804 6.63561e-05
0.00582123 -0.000711516 0.00121376
0.00632552 0.000193348 6.03712e-05
0.00635126 0.000190496 6.67984e-05
0.00574657 1.16889e-05 -0.000390072
0.00629687 0.000101021 -0.000295074
0.00630003 0.000103654 -0.00029427
0.00605619 -0.00171106 0.000947906
0.00586314 9.46962e-05 -0.00059405
0.00570332 0.000132854 -0.00062216
0.00626634 0.000299621 -0.000337647
0.00625902 0.00017952 -0.000310189
0.0057291 0.000250066 2.02744e-05
0.00573144 -0.0018241 0.000871338
0.0059468 0.000567616 -2.99871e-05
0.00627768 9.65383e-05 -0.000292515
0.00629904 0.000294846 3.24637e-06
0.00635266 0.000115968 -0.000304241
0.0064124 0.000132718 -0.000441071
0.00581623 0.000186665 -0.000221016
0.00645696 0.000521866 4.57244e-05
0.00583505 0.000129714 -0.000625457
0.00577323 0.000166032 -0.00028874
0.00570653 0.00015923 -0.000645139
0.00603165 6.54172e-05 -0.000582442
0.00572285 0.000102336 -0.000588724
0.00562692 -0.00177634 0.000851496
0.00574797 6.55807e-05 -0.000573455
0.00628684 9.07055e-05 -0.000290932
0.00628485 0.000227272 3.77087e-05
0.00575775 0.000179258 -0.000286476
0.00574895 0.000186002 -0.000285492
0.00629377 0.000106755 -0.000295147
0.00587545 0.00012105 -0.000615196
0.00529312 0.000404422 -0.000319056
0.00574462 0.00019397 -0.000291508
0.00589767 0.000327222 -0.000203095
0.00587078 0.000349583 -0.000318211
0.00585814 0.000317267 -0.000324828
0.00559111 0.000244214 -0.000547851
0.00574529 0.000175206 -0.000289146
0.00581003 0.000112688 -0.000605843
0.0063072 0.000106936 -0.000293892
0.00563715 0.000142162 -0.000624576
4.16812e-15 1.05301e-14 8.29613e-14
-1.56294e-22 4.86658e-23 1.23839e-22
0.00628748 -9.78457e-05 -0.000439717
0.00558465 0.000577982 -0.00015712
0.00622563 -2.19128e-05 -0.000521683
0.00638221 0.000554199 1.6936e-05
0.00607103 0.000224039 3.97121e-05
0.00630109 0.000100812 -0.000295487
0.00566852 0.000231459 -0.000180217
0.0058805 0.00024597 -0.000186747
0.0056453 0.000164758 -0.000634116
0.0061052 0.000350923 -0.000799659
0.00624974 2.8048e-05 -0.000565175
0.00630188 0.000107498 -0.000290442
0.00593183 0.00023138 4.18199e-05
0.00560077 0.000183996 -0.000586991
0.00650322 0.000480099 8.69835e-05
0.00638397 0.000207121 5.65981e-05
0.00555033 -5.5209e-05 -0.000300639
0.00538747 -0.000430974 0.000133926
0.00561426 0.000245684 -0.000186617
0.00555355 0.000139119 -0.000602323
0.00575235 0.000191627 -0.000291665
0.00539243 0.00026891 -0.000658922
0.00633644 0.000126336 -0.000231541
0.00559569 0.000567002 -0.0001728
0.00600224 0.000115089 -0.000247084
0.00577446 0.000245741 -0.000271225
0.00604837 -6.43593e-06 -0.00051243
0.00575785 0.000124771 -0.000613385
0.00586003 0.000220033 -0.000304142
0.00577754 0.000433497 -6.75105e-05
0.00639313 0.000214315 5.2501e-05
0.00535997 0.000339129 -0.000741856
0.00643313 -0.000209515 -0.000646642
0.00584436 0.000194536 -0.000172965
0.00575556 -0.000379176 -0.00101599
0.00562635 0.000275099 -0.000183091
0.00561509 0.000108904 -0.000577605
0.006174 -5.85684e-05 -0.000479163
0.00582036 0.000615616 -8.66361e-05
0.00613885 -5.24574e-06 -0.000523387
0.00578139 8.80182e-05 -0.000579318
0.00652725 0.000564337 2.05613e-05
0.00615319 2.79641e-05 -0.000555546
0.00585147 0.000253144 -0.000186924
0.0058791 6.44067e-05 -0.000566811
0.00633164 1.85002e-05 -0.000392466
0.00558469 0.000144901 -0.000618787
0.0062291 -1.78757e-05 -0.000516497
0.00574627 0.000344045 -0.000439048
0.00622237 1.75189e-05 -0.000550682
-3.83036e-14 8.16732e-14 2.9589e-13
0.00664937 0.000784453 -0.000775945
0.00619988 0.000225338 -0.000318325
0.00637257 0.00010885 -0.000480339
0.00621855 2.79522e-05 -0.000559137
0.00591514 0.000233804 -0.000799899
0.00631564 0.000359553 0.000143666
0.00567167 7.47847e-05 -0.000462861
0.00583785 7.59868e-05 -0.000573147
0.00626432 -2.64838e-05 -0.000531357
0.00594955 0.000656486 -0.000725836
0.0059798 0.000163759 -0.000293114
0.00577093 0.000299934 -0.000215185
0.00637276 0.000368877 0.000144907
0.00600603 0.00038387 -0.000256411
0.00581926 0.000486252 9.10843e-05
0.00636313 0.000722976 -0.000726259
0.00611561 -1.84515e-05 -0.000508704
0.0058046 0.000721309 3.97114e-05
0.00613565 0.000582048 9.14341e-05
0.00610548 0.000319315 -0.000376827
0.00624653 7.83252e-05 -0.000372771
0.00569502 0.000199518 5.07951e-05
0.00583837 0.000289167 -0.000771442
0.00608419 0.000351947 -0.000338666
0.0061069 3.39794e-05 -0.000558456
0.00630414 2.71956e-05 -0.000484476
0.0063359 0.000105114 -0.000302446
0.00580026 0.000233126 -0.00032061
0.00630458 0.000101376 -0.000296564
0.00586492 0.000896827 -0.000751995
0.00586988 0.000191153 -0.000177046
0.00617442 -5.10456e-05 -0.000486777
0.00610532 0.000296554 3.02848e-07
0.00598399 3.7142e-05 -0.000551664
0.00626483 0.000390759 0.00013637
0.00603822 0.000654034 -0.000103959
0.00582812 0.000848778 -0.000732226
0.00593518 0.000106163 -0.000608516
0.00629219 5.2833e-05 -0.000539005
0.00599895 4.61401e-05 -0.000558469
0.00621991 0.000270643 -0.000828446
0.0061914 -2.94655e-05 -0.00050874
0.00563345 0.00028775 -0.000189179
0.00595322 6.10851e-05 -0.000569369
0.00601329 0.00033751 -0.00085258
0.00593972 0.000384723 0.000113058
0.00554688 0.000142199 -0.000613541
0.00628621 -1.25118e-06 -0.000501765
0.00593566 5.18027e-05 -0.000560038
0.00590413 0.000143336 -0.000348436
0.00588835 0.000338882 -0.000204214
0.00563712 0.000498506 8.47894e-05
0.00638428 0.000260232 2.72152e-05
0.0059454 0.000390621 -0.000215787
0.00635696 0.000725887 -0.000727282
0.00638925 0.000230925 -0.000362155
0.00577687 0.000420803 -5.62174e-05
0.00606882 0.00047257 9.58862e-05
0.00583035 0.000257315 -0.000186531
0.00612819 0.000576947 0.000101678
0.00633498 0.000990389 -0.000162196
0.00589255 0.000371484 -4.35378e-05
0.00624911 -4.49257e-05 -0.000491321
0.00607246 5.13176e-05 -0.000570701
0.00612001 0.000266079 -0.000324498
0.00636679 0.000353726 0.000150334
0.00636359 0.000724358 -0.000726862
0.00635861 0.000725829 -0.000727059
0.0062327 0.000315504 4.29431e-05
0.00630857 0.000424456 -0.000818466
0.00635746 0.000909188 -0.000352924
0.0056656 0.00011453 -0.000595755
0.00596937 -2.06461e-05 -0.000495372
0.00579041 0.000173096 -0.00028939
0.0060075 0.000623379 -0.000735726
0.00589477 -0.000252391 -0.000881116
0.00596628 0.000643573 -0.000730753
0.00617672 0.0010097 -0.00018687
0.00624523 0.00100477 -0.000178633
0.00615293 0.00101077 -0.000189313
0.00605039 -7.03291e-05 -0.000456413
0.00590244 8.00697e-05 -0.000581259
0.00620033 0.00100907 -0.000184332
0.00633267 0.000988322 -0.000160305
0.00626605 0.000434094 -9.63786e-05
0.00624799 0.000467547 -0.000802968
0.00585952 0.000842774 -0.000732545
0.00588189 0.000507787 9.76726e-05
0.00591465 0.000294586 -0.000196882
0.00594183 0.000833665 -0.000735169
0.00634949 0.000985443 -0.00016439
0.00631004 0.000992887 -0.000165871
0.00661651 0.000576322 1.99928e-05
0.00625468 0.000339541 4.23561e-05
0.00631333 0.000558778 -0.000166619
0.00689091 0.000616563 -0.00066174
0.00597389 0.000823602 -0.000734177
0.00600005 -5.13317e-05 -0.000469117
0.00589923 0.00054558 -0.000736872
0.00619297 0.000629469 -0.000764432
0.00629269 0.000998657 -0.000170803
0.00631041 0.000573633 -0.000392087
0.00635658 0.000728604 -0.000728573
0.00655754 0.000218437 -0.000780764
0.00596517 0.000220967 -0.000804334
0.00607229 0.000536265 8.60807e-05
0.00620163 0.000601719 3.32241e-05
0.00594542 0.000397955 -0.000220689
0.00630006 0.00033201 0.000147624
0.00578393 0.000863991 -0.00073325
0.00624158 0.000617547 -0.000768206
0.00573994 0.000851242 -0.000726346
0.00576025 0.000265707 -0.00143294
0.00603304 0.000651718 0.000114107
0.00619559 0.000619994 -0.000767895
0.00581802 0.000165935 -0.00078877
0.00635989 0.000995809 -0.000162745
0.00586122 0.000854495 -0.000736784
0.0059673 -7.67839e-05 -0.000443037
0.00633392 0.000991032 -0.000162808
0.00622315 0.00100745 -0.00018168
0.00624201 0.000604206 -0.00077309
0.00627218 0.000557955 -0.000745177
0.00625456 0.000603833 -0.000592688
0.00616466 0.000419731 -0.000781238
0.00624917 0.000376177 -0.000826955
0.00589001 -7.26627e-05 -0.000440121
0.00614059 -6.47252e-05 -0.000470222
0.00605497 0.000295449 -0.000803549
0.00561716 0.000125155 -0.000601597
0.00607886 0.00071923 2.08305e-05
0.00607477 0.000624962 -0.000744945
0.00636492 0.000730973 -0.000729488
0.00592964 0.000521609 -0.000745098
0.00639774 0.000242811 3.38676e-05
0.00626695 0.00100225 -0.000174879
0.00590023 0.000835836 -0.000732858
0.00604687 0.000423783 -0.000356285

VECTORS force float
-2.64891e-10 -2.56691e-10 -1.04884e-10
1.10103e-10 5.88488e-11 -1.93805e-11
4.10609e-10 1.21742e-10 -2.37051e-10
2.86916e-11 -1.4828e-11 7.07782e-12
2.01267e-10 3.58754e-10 -3.44928e-10
1.0187e-10 3.64488e-10 -3.24549e-10
1.59438e-10 -3.18221e-10 2.87241e-10
-4.39859e-10 7.41688e-10 -7.90169e-10
1.02271e-10 1.26531e-09 1.43407e-10
7.1551e-10 -3.49091e-10 4.18468e-10
-7.06293e-11 -6.04647e-11 2.46108e-11
8.29338e-11 -1.29768e-10 1.3693e-10
1.97729e-10 2.84385e-10 -5.38594e-10
-2.25226e-10 -2.47543e-10 2.91741e-10
4.28459e-10 -2.31512e-10 1.46428e-10
-1.88678e-10 1.9148e-10 -1.8822e-10
-6.59767e-10 6.15408e-10 -3.56254e-10
-1.15168e-09 -9.86338e-10 2.41863e-09
1.45024e-10 1.24659e-10 -1.19793e-10
3.87993e-10 9.58317e-11 1.21634e-10
-3.38617e-10 -5.36836e-10 7.50908e-11
7.52306e-11 -1.28326e-10 1.07511e-10
-2.61832e-09 2.89754e-10 3.68713e-10
-3.17012e-11 -9.45807e-11 -9.4104e-11
-3.26001e-09 -8.46188e-09 6.48477e-09
1.52779e-10 -6.6942e-11 4.99519e-11
-4.87478e-13 1.96447e-11 -4.08863e-12
-6.38665e-10 -3.19436e-10 3.07982e-10
8.05109e-11 -3.20352e-11 -2.43879e-12
7.72273e-11 -5.68035e-10 2.65961e-10
2.64339e-11 -2.2971e-10 1.57415e-11
1.02919e-10 3.62895e-10 -3.21979e-10
4.02862e-10 -7.2371e-11 -4.81055e-10
4.03906e-12 -1.2192e-10 -7.42375e-11
-9.91295e-11 -4.69161e-10 -6.39918e-11
6.71262e-11 1.24205e-10 8.6186e-11
-2.80976e-10 1.66439e-10 -3.09044e-10
-4.87552e-10 1.39293e-09 -2.5435e-10
-1.39107e-09 -9.17743e-10 1.94605e-09
-1.86212e-11 -3.76879e-10 5.16396e-11
-1.88583e-10 2.09141e-10 2.34313e-11
9.81734e-11 3.60476e-10 -3.22919e-10
-1.30888e-10 -1.63942e-11 -3.31759e-10
8.48142e-10 -1.00065e-09 2.5973e-09
3.17971e-11 9.49224e-12 5.27281e-11
6.89362e-09 4.88231e-09 -3.91917e-09
2.26147e-11 4.74814e-11 -6.7661e-12
1.23811e-10 4.38483e-11 -4.02831e-11
3.10518e-10 -8.005e-11 9.65076e-11
-5.82257e-10 -8.10707e-10 5.42635e-10
6.42841e-10 5.03878e-10 -3.03678e-10
3.33158e-10 -1.40481e-11 -4.19684e-11
-1.67107e-10 1.06052e-10 1.85268e-10
9.24909e-11 3.6012e-10 -3.27423e-10
1.61376e-10 2.25892e-10 -2.04591e-10
-1.67369e-10 -6.90964e-11 1.20949e-11
-1.11163e-10 -1.74263e-10 -1.64641e-10
1.39085e-10 2.45404e-11 -1.29095e-11
2.3858e-10 1.14427e-10 -5.07727e-11
-1.57567e-09 5.40546e-10 7.38781e-10
-4.53862e-11 -1.27727e-10 9.83912e-11
1.06134e-10 -1.35265e-10 1.65913e-10
-5.30919e-12 2.87457e-11 -6.23883e-12
-5.57917e-11 -1.35275e-10 3.5474e-11
6.17995e-10 2.22689e-10 -7.13129e-11
2.10084e-10 1.22895e-09 4.10343e-10
1.39657e-09 -3.85339e-10 5.28954e-10
1.03788e-10 5.84766e-11 -1.10481e-11