# vtk DataFile Version 3.0
LIGGGHTS particles timestep 5200000
ASCII
DATASET POLYDATA
POINTS 287 float
0.0431578 0.0163077 0.00774159
0.0435497 0.0173006 0.00741561
0.0369294 0.015866 0.00825741
0.0434802 0.017797 0.00724637
0.0430439 0.0162299 0.00785899
0.0491505 0.016722 0.00770118
0.0432221 0.017016 0.00749974
0.0429407 0.0159348 0.00824902
0.0493938 0.0177894 0.0071086
0.043162 0.0167373 0.0075929
0.0435903 0.0174866 0.00735347
0.0371301 0.0165854 0.00762275
0.0430246 0.0161677 0.0079349
0.0368429 0.0156247 0.00856447
0.0433598 0.017238 0.00742927
0.0368213 0.0155644 0.00864123
0.0431418 0.0166444 0.00762394
0.0492769 0.0172108 0.00721651
0.0430051 0.0161093 0.00801365
0.0431392 0.0162451 0.00782582
0.0432612 0.0172021 0.00743753
0.0373042 0.016963 0.00742892
0.0493351 0.0175001 0.00716256
0.0432021 0.0169231 0.0075308
0.0492244 0.0170001 0.00742337
0.0372092 0.0169351 0.0074455
0.0434602 0.0177033 0.00727503
0.0429838 0.0160511 0.00809213
0.0434953 0.0174555 0.00736026
0.0432417 0.0171091 0.00746863
0.0433401 0.017145 0.00746036
0.0491697 0.0167914 0.00763187
0.0431213 0.0165516 0.00765495
0.0433205 0.017052 0.00749147
0.0494329 0.0179822 0.00707262
0.043281 0.016866 0.00755364
0.0434351 0.0171768 0.00745338
0.0493546 0.0175966 0.00714457
0.0430803 0.0163659 0.00771696
0.0432809 0.017295 0.00740643
0.0434548 0.0172697 0.0074223
0.0491888 0.0168609 0.00756253
0.0492593 0.0171393 0.00728409
0.0431008 0.0164587 0.00768597
0.0433209 0.0174809 0.00734431
0.0492433 0.0170696 0.00735399
0.0433834 0.0177624 0.00725065
0.0433624 0.017668 0.00728182
0.03711 0.016498 0.00766704
0.0492963 0.0173073 0.00719852
0.0431213 0.0161863 0.00790492
0.0368862 0.0157454 0.00841094
0.043301 0.016959 0.00752258
0.0492069 0.0169305 0.00749301
0.0433564 0.0168048 0.00757775
0.0433763 0.0168978 0.00754669
0.0430631 0.0162981 0.00778846
0.0434751 0.0173626 0.00739127
0.0434203 0.017517 0.00733604
0.0493157 0.0174037 0.00718054
0.0372257 0.0166132 0.00760621
0.0371648 0.0163518 0.0077402
0.0435699 0.0173935 0.00738457
0.0435353 0.0176416 0.00729879
0.0432201 0.0165867 0.00764698
0.0493742 0.017693 0.00712658
0.0368645 0.015685 0.0084877
0.0435154 0.0175485 0.00732953
0.0431821 0.0168302 0.00756185
0.0433794 0.017331 0.00739817
0.0374395 0.0175757 0.00711853
0.0436054 0.0183551 0.00707997
0.036951 0.0159263 0.00818065
0.0371499 0.0166728 0.00757844
0.0434463 0.0180459 0.00716608
0.0370894 0.0164107 0.0077113
0.0372285 0.0170226 0.00740115
0.0372205 0.0162124 0.00782562
0.0494133 0.0178858 0.00709061
0.0370471 0.0159478 0.00815807
0.0434404 0.0176099 0.00730499
0.0433364 0.0167119 0.00760881
0.0435073 0.0183203 0.00708425
0.0434672 0.0181397 0.00713811
0.0435102 0.0171154 0.00747754
0.0371696 0.0167603 0.00753412
0.0435757 0.0178293 0.0072427
0.0435642 0.0181717 0.00713465
0.0436413 0.0181125 0.00715841
0.0434255 0.0179521 0.00719405
0.0435965 0.0179231 0.00721473
0.0370483 0.0162362 0.00779981
0.0435281 0.018414 0.00705629
0.0372057 0.0165258 0.00765051
0.043471 0.0169292 0.00753981
0.0371451 0.0162661 0.00778775
0.0643568 0.0187248 0.00531097
0.24257 0.0191927 0.00520306
0.0374567 0.0172535 0.00727932
0.0370107 0.0161084 0.00794874
0.0375407 0.0172041 0.00730174
0.0369726 0.0159867 0.00810388
0.0432609 0.0167731 0.00758469
0.0433416 0.0175743 0.00731313
0.0436712 0.0178613 0.00723915
0.0435697 0.0186014 0.00700038
0.0370689 0.0163235 0.00775555
0.0377597 0.0173591 0.00721817
0.0373987 0.016991 0.00741235
0.0433998 0.0174238 0.00736714
0.0432405 0.0166798 0.00761586
0.0431022 0.0161278 0.00798373
0.0369078 0.0158057 0.00833417
0.043396 0.0169907 0.00751559
0.0429621 0.015993 0.00817056
0.0429192 0.0158767 0.00832748
0.043692 0.017955 0.00721119
0.037087 0.0160688 0.00800393
0.0435214 0.0179845 0.00719041
0.0430827 0.0160693 0.00806248
0.0433005 0.017388 0.00737534
0.0370291 0.016169 0.00787139
0.0434045 0.0178577 0.00722222
0.0434889 0.0182375 0.00713725
0.0373234 0.0170506 0.00738457
0.0371854 0.0164385 0.00769478
0.0435006 0.0178908 0.00721837
0.0432544 0.0163469 0.00774765
0.0434156 0.0170837 0.0074845
0.0430614 0.0160111 0.00814096
0.0370255 0.0158875 0.00823484
0.0435906 0.0186952 0.00697242
0.0431989 0.016493 0.00767825
0.0437139 0.0180485 0.00718337
0.0370677 0.0160082 0.00808112
0.0374181 0.0170785 0.00736801
0.0369921 0.0160472 0.00802672
0.0373795 0.0169034 0.0074567
0.0372397 0.0162912 0.00776703
0.0370039 0.0158271 0.00831161
0.0372865 0.0172852 0.00726812
0.0437705 0.0181283 0.00716222
0.0372809 0.0164661 0.00767833
0.0376166 0.0171451 0.00732922
0.0371247 0.01619 0.00784939
0.0373814 0.0173131 0.00725154
0.037459 0.0176631 0.0070742
0.037362 0.0172256 0.00729588
0.0219312 0.0187687 0.00551176
0.037476 0.017341 0.00723498
0.0435552 0.0177355 0.00727072
0.0373642 0.0176352 0.00709077
0.0374007 0.0174007 0.0072072
0.0376121 0.0179625 0.00694337
0.0376758 0.0174086 0.0071957
0.0432154 0.016204 0.00787623
0.0372604 0.0163785 0.00772273
0.03756 0.0172917 0.00725739
0.0377826 0.0174503 0.0071719
0.037599 0.0174667 0.00716873
0.0432335 0.0162627 0.00779729
0.0376555 0.0173201 0.00724055
0.0435458 0.0168675 0.00756407
0.0375153 0.0175165 0.00714605
0.0312807 0.0172461 0.00723512
0.0373428 0.0171381 0.00734023
0.0374031 0.0178118 0.00700538
0.0377389 0.0172699 0.00726339
0.0377204 0.0175903 0.00710352
0.0373253 0.0174602 0.00717944
0.0431784 0.0164001 0.00770928
0.0375796 0.0173791 0.00721307
0.0434962 0.017773 0.00734215
0.0372672 0.0171977 0.00731246
0.0373059 0.0173727 0.00722378
0.0434512 0.016836 0.00757095
0.0436978 0.0181922 0.00713725
0.0434261 0.0169836 0.00761068
0.0313559 0.0171825 0.00725242
0.0436114 0.0187889 0.00694446
0.0375019 0.0170288 0.00739059
0.0433163 0.016619 0.00763986
0.0373208 0.016641 0.00758968
0.0377003 0.0175019 0.00714831
0.0367997 0.015504 0.008718
0.0313395 0.0175284 0.00715236
0.0371896 0.0168476 0.00748983
0.0374202 0.0174881 0.00716288
0.0372846 0.0168756 0.00747324
0.0377903 0.0179599 0.0069516
0.0375214 0.0171166 0.00734608
0.043665 0.0174248 0.00737776
0.0372652 0.0167881 0.00751758
0.0375737 0.0177791 0.007013
0.0375348 0.017604 0.00710171
0.0371062 0.0161294 0.00792672
0.0374957 0.0174286 0.00719058
0.037301 0.0165536 0.007634
0.0432709 0.0171 0.00756382
0.0436173 0.0180168 0.00718677
0.0376185 0.0175541 0.00712439
0.0434312 0.0167431 0.00760202
0.0435422 0.0180782 0.00716245
0.0313288 0.0170179 0.00732375
0.0373837 0.0177231 0.00704716
0.0432756 0.0164333 0.0077019
0.0374982 0.0178385 0.00698532
0.0435489 0.0185077 0.00702834
0.0373449 0.0175478 0.00713521
0.0312579 0.016732 0.00744656
0.043296 0.0165261 0.00767089
0.0374374 0.017166 0.00732367
0.0372479 0.0171102 0.00735681
0.0436102 0.0175799 0.00732319
0.0376359 0.0172326 0.00728487
0.0313725 0.0168533 0.00739831
0.0313002 0.0173402 0.00720753
0.037252 0.0170133 0.0074979
0.0376493 0.018155 0.00693517
0.0312612 0.0171519 0.00726271
0.0372007 0.0161519 0.00790272
0.0373405 0.0167284 0.00754537
0.0436695 0.0182832 0.00710684
0.0376969 0.0183572 0.00695229
0.0376705 0.0182529 0.00694354
0.0377539 0.0181966 0.00693448
0.0310905 0.0164309 0.00774097
0.0311453 0.0166317 0.00752508
0.0310714 0.0163657 0.00781433
0.0374557 0.0168447 0.007484
0.0372455 0.0167006 0.0075619
0.0311089 0.0164962 0.00766752
0.0312223 0.0169735 0.007344
0.0375932 0.0178693 0.00697455
0.037775 0.017855 0.00698698
0.0314145 0.0174641 0.0071674
0.0374786 0.017751 0.0070297
0.0436504 0.0177676 0.00726711
0.0313787 0.0177166 0.00709718
0.0312994 0.0169144 0.00736802
0.0312028 0.0168815 0.00737814
0.0369823 0.0157668 0.00838837
0.0375542 0.0176916 0.00705733
0.0374602 0.0180902 0.00693999
0.0375176 0.0179307 0.00695184
0.0313984 0.0178107 0.0070696
0.0373599 0.016816 0.00750103
0.0376201 0.0184191 0.00696868
0.0377321 0.0180993 0.00692772
0.0311832 0.0167915 0.00741695
0.0374786 0.0181884 0.00695141
0.0313198 0.0174343 0.00717995
0.0375936 0.0169923 0.00740636
0.0375541 0.0181245 0.0069365
0.0372319 0.016925 0.00754236
0.0374423 0.0179924 0.00692891
0.04363 0.0176738 0.00729511
0.0376379 0.0176417 0.00708006
0.0314734 0.0177463 0.00708464
0.0375431 0.0184785 0.00699212
0.031418 0.0179047 0.00704201
0.0375364 0.0180263 0.00692922
0.037423 0.0179019 0.00696686
0.0375646 0.0185749 0.00700788
0.0376702 0.01781 0.00699809
0.0312418 0.0170637 0.0073056
0.031394 0.0169496 0.00735681
0.0374351 0.0167562 0.00752886
0.0312779 0.0168222 0.00740769
0.0311272 0.0165621 0.00759455
0.0375958 0.0183193 0.00695318
0.0375756 0.0182215 0.00694752
0.0375002 0.0182853 0.006963
0.0377025 0.0180039 0.00693288
0.0375217 0.0183819 0.0069773
0.0374155 0.0166685 0.00757331
0.0374758 0.0169332 0.00743915
0.0376935 0.0179087 0.00696518
0.0371818 0.0160913 0.00797998
0.0376847 0.0177201 0.00703948
0.037586 0.0186713 0.00702364
0.0314659 0.0168873 0.00738756
0.037774 0.0182942 0.00694287
0.0434111 0.01665 0.00763312
0.0311631 0.0167015 0.00745571
0.0313591 0.0176225 0.00712477
0.0433851 0.0172253 0.00752516

VERTICES 287 574
1 0
1 1
1 2
1 3
1 4
1 5
1 6
1 7
1 8
1 9
1 10
1 11
1 12
1 13
1 14
1 15
1 16
1 17
1 18
1 19
1 20
1 21
1 22
1 23
1 24
1 25
1 26
1 27
1 28
1 29
1 30
1 31
1 32
1 33
1 34
1 35
1 36
1 37
1 38
1 39
1 40
1 41
1 42
1 43
1 44
1 45
1 46
1 47
1 48
1 49
1 50
1 51
1 52
1 53
1 54
1 55
1 56
1 57
1 58
1 59
1 60
1 61
1 62
1 63
1 64
1 65
1 66
1 67
1 68
1 69
1 70
1 71
1 72
1 73
1 74
1 75
1 76
1 77
1 78
1 79
1 80
1 81
1 82
1 83
1 84
1 85
1 86
1 87
1 88
1 89
1 90
1 91
1 92
1 93
1 94
1 95
1 96
1 97
1 98
1 99
1 100
1 101
1 102
1 103
1 104
1 105
1 106
1 107
1 108
1 109
1 110
1 111
1 112
1 113
1 114
1 115
1 116
1 117
1 118
1 119
1 120
1 121
1 122
1 123
1 124
1 125
1 126
1 127
1 128
1 129
1 130
1 131
1 132
1 133
1 134
1 135
1 136
1 137
1 138
1 139
1 140
1 141
1 142
1 143
1 144
1 145
1 146
1 147
1 148
1 149
1 150
1 151
1 152
1 153
1 154
1 155
1 156
1 157
1 158
1 159
1 160
1 161
1 162
1 163
1 164
1 165
1 166
1 167
1 168
1 169
1 170
1 171
1 172
1 173
1 174
1 175
1 176
1 177
1 178
1 179
1 180
1 181
1 182
1 183
1 184
1 185
1 186
1 187
1 188
1 189
1 190
1 191
1 192
1 193
1 194
1 195
1 196
1 197
1 198
1 199
1 200
1 201
1 202
1 203
1 204
1 205
1 206
1 207
1 208
1 209
1 210
1 211
1 212
1 213
1 214
1 215
1 216
1 217
1 218
1 219
1 220
1 221
1 222
1 223
1 224
1 225
1 226
1 227
1 228
1 229
1 230
1 231
1 232
1 233
1 234
1 235
1 236
1 237
1 238
1 239
1 240
1 241
1 242
1 243
1 244
1 245
1 246
1 247
1 248
1 249
1 250
1 251
1 252
1 253
1 254
1 255
1 256
1 257
1 258
1 259
1 260
1 261
1 262
1 263
1 264
1 265
1 266
1 267
1 268
1 269
1 270
1 271
1 272
1 273
1 274
1 275
1 276
1 277
1 278
1 279
1 280
1 281
1 282
1 283
1 284
1 285
1 286

POINT_DATA 287
SCALARS id int 1
LOOKUP_TABLE default
1
2
3
4
5
6
7
8
9
10
11
12
13
14
15
16
17
18
19
21
22
23
24
25
26
27
28
29
30
31
32
33
34
35
36
37
38
39
41
42
44
45
46
47
48
49
50
51
52
53
54
55
56
57
59
60
61
62
63
64
65
66
67
68
69
70
71
72
73
74
76
77
78
79
80
81
82
83
84
85
86
87
88
89
90
91
92
93
94
95
96
97
98
99
100
101
102
103
104
105
106
107
108
109
110
111
112
113
114
115
116
117
118
119
120
121
122
123
124
125
126
127
128
129
130
131
132
133
134
135
136
137
138
140
141
142
143
144
146
147
148
149
150
151
153
154
155
156
157
158
159
160
162
164
165
166
167
168
169
170
171
172
173
174
175
176
177
178
179
181
182
183
184
185
186
187
188
189
190
191
192
193
194
195
196
197
198
199
200
201
202
203
204
205
206
207
208
209
210
211
212
213
214
215
216
217
218
219
220
221
222
223
224
225
226
227
228
229
230
231
232
233
234
235
236
237
239
240
241
242
243
244
246
247
248
249
250
251
252
253
254
255
256
257
258
259
260
261
262
263
264
265
266
267
268
269
270
271
272
273
274
275
276
277
278
279
280
281
282
283
284
285
286
287
288
289
290
291
292
293
294
295
296
297
298
299
300

SCALARS type int 1
LOOKUP_TABLE default
1
1
1
1
1
1
1
1
1
1
1
1
1
1
1
1
1
1
1
1
1
1
1
1
1
1
1
1
1
1
1
1
1
1
1
1
1
1
1
1
1
1
1
1
1
1
1
1
1
1
1
1
1
1
1
1
1
1
1
1
1
1
1
1
1
1
1
1
1
1
1
1
1
1
1
1
1
1
1
1
1
1
1
1
1
1
1
1
1
1
1
1
1
1
1
1
1
1
1
1
1
1
1
1
1
1
1
1
1
1
1
1
1
1
1
1
1
1
1
1
1
1
1
1
1
1
1
1
1
1
1
1
1
1
1
1
1
1
1
1
1
1
1
1
1
1
1
1
1
1
1
1
1
1
1
1
1
1
1
1
1
1
1
1
1
1
1
1
1
1
1
1
1
1
1
1
1
1
1
1
1
1
1
1
1
1
1
1
1
1
1
1
1
1
1
1
1
1
1
1
1
1
1
1
1
1
1
1
1
1
1
1
1
1
1
1
1
1
1
1
1
1
1
1
1
1
1
1
1
1
1
1
1
1
1
1
1
1
1
1
1
1
1
1
1
1
1
1
1
1
1
1
1
1
1
1
1
1
1
1
1
1
1
1
1
1
1
1
1
1
1
1
1
1
1
1
1
1
1
1
1
1
1
1
1
1
1

SCALARS radius float 1
LOOKUP_TABLE default
5e-05
5e-05
5e-05
5e-05
5e-05
5e-05
5e-05
5e-05
5e-05
5e-05
5e-05
5e-05
5e-05
5e-05
5e-05
5e-05
5e-05
5e-05
5e-05
5e-05
5e-05
5e-05
5e-05
5e-05
5e-05
5e-05
5e-05
5e-05
5e-05
5e-05
5e-05
5e-05
5e-05
5e-05
5e-05
5e-05
5e-05
5e-05
5e-05
5e-05
5e-05
5e-05
5e-05
5e-05
5e-05
5e-05
5e-05
5e-05
5e-05
5e-05
5e-05
5e-05
5e-05
5e-05
5e-05
5e-05
5e-05
5e-05
5e-05
5e-05
5e-05
5e-05
5e-05
5e-05
5e-05
5e-05
5e-05
5e-05
5e-05
5e-05
5e-05
5e-05
5e-05
5e-05
5e-05
5e-05
5e-05
5e-05
5e-05
5e-05
5e-05
5e-05
5e-05
5e-05
5e-05
5e-05
5e-05
5e-05
5e-05
5e-05
5e-05
5e-05
5e-05
5e-05
5e-05
5e-05
5e-05
5e-05
5e-05
5e-05
5e-05
5e-05
5e-05
5e-05
5e-05
5e-05
5e-05
5e-05
5e-05
5e-05
5e-05
5e-05
5e-05
5e-05
5e-05
5e-05
5e-05
5e-05
5e-05
5e-05
5e-05
5e-05
5e-05
5e-05
5e-05
5e-05
5e-05
5e-05
5e-05
5e-05
5e-05
5e-05
5e-05
5e-05
5e-05
5e-05
5e-05
5e-05
5e-05
5e-05
5e-05
5e-05
5e-05
5e-05
5e-05
5e-05
5e-05
5e-05
5e-05
5e-05
5e-05
5e-05
5e-05
5e-05
5e-05
5e-05
5e-05
5e-05
5e-05
5e-05
5e-05
5e-05
5e-05
5e-05
5e-05
5e-05
5e-05
5e-05
5e-05
5e-05
5e-05
5e-05
5e-05
5e-05
5e-05
5e-05
5e-05
5e-05
5e-05
5e-05
5e-05
5e-05
5e-05
5e-05
5e-05
5e-05
5e-05
5e-05
5e-05
5e-05
5e-05
5e-05
5e-05
5e-05
5e-05
5e-05
5e-05
5e-05
5e-05
5e-05
5e-05
5e-05
5e-05
5e-05
5e-05
5e-05
5e-05
5e-05
5e-05
5e-05
5e-05
5e-05
5e-05
5e-05
5e-05
5e-05
5e-05
5e-05
5e-05
5e-05
5e-05
5e-05
5e-05
5e-05
5e-05
5e-05
5e-05
5e-05
5e-05
5e-05
5e-05
5e-05
5e-05
5e-05
5e-05
5e-05
5e-05
5e-05
5e-05
5e-05
5e-05
5e-05
5e-05
5e-05
5e-05
5e-05
5e-05
5e-05
5e-05
5e-05
5e-05
5e-05
5e-05
5e-05
5e-05
5e-05
5e-05
5e-05
5e-05
5e-05
5e-05
5e-05
5e-05
5e-05
5e-05
5e-05
5e-05
5e-05
5e-05
5e-05
5e-05
5e-05
5e-05
5e-05
5e-05
5e-05
5e-05
5e-05
5e-05
5e-05
5e-05
5e-05
5e-05
5e-05
5e-05
5e-05
5e-05

SCALARS mass float 1
LOOKUP_TABLE default
1.46608e-10
1.46608e-10
1.46608e-10
1.46608e-10
1.46608e-10
1.46608e-10
1.46608e-10
1.46608e-10
1.46608e-10
1.46608e-10
1.46608e-10
1.46608e-10
1.46608e-10
1.46608e-10
1.46608e-10
1.46608e-10
1.46608e-10
1.46608e-10
1.46608e-10
1.46608e-10
1.46608e-10
1.46608e-10
1.46608e-10
1.46608e-10
1.46608e-10
1.46608e-10
1.46608e-10
1.46608e-10
1.46608e-10
1.46608e-10
1.46608e-10
1.46608e-10
1.46608e-10
1.46608e-10
1.46608e-10
1.46608e-10
1.46608e-10
1.46608e-10
1.46608e-10
1.46608e-10
1.46608e-10
1.46608e-10
1.46608e-10
1.46608e-10
1.46608e-10
1.46608e-10
1.46608e-10
1.46608e-10
1.46608e-10
1.46608e-10
1.46608e-10
1.46608e-10
1.46608e-10
1.46608e-10
1.46608e-10
1.46608e-10
1.46608e-10
1.46608e-10
1.46608e-10
1.46608e-10
1.46608e-10
1.46608e-10
1.46608e-10
1.46608e-10
1.46608e-10
1.46608e-10
1.46608e-10
1.46608e-10
1.46608e-10
1.46608e-10
1.46608e-10
1.46608e-10
1.46608e-10
1.46608e-10
1.46608e-10
1.46608e-10
1.46608e-10
1.46608e-10
1.46608e-10
1.46608e-10
1.46608e-10
1.46608e-10
1.46608e-10
1.46608e-10
1.46608e-10
1.46608e-10
1.46608e-10
1.46608e-10
1.46608e-10
1.46608e-10
1.46608e-10
1.46608e-10
1.46608e-10
1.46608e-10
1.46608e-10
1.46608e-10
1.46608e-10
1.46608e-10
1.46608e-10
1.46608e-10
1.46608e-10
1.46608e-10
1.46608e-10
1.46608e-10
1.46608e-10
1.46608e-10
1.46608e-10
1.46608e-10
1.46608e-10
1.46608e-10
1.46608e-10
1.46608e-10
1.46608e-10
1.46608e-10
1.46608e-10
1.46608e-10
1.46608e-10
1.46608e-10
1.46608e-10
1.46608e-10
1.46608e-10
1.46608e-10
1.46608e-10
1.46608e-10
1.46608e-10
1.46608e-10
1.46608e-10
1.46608e-10
1.46608e-10
1.46608e-10
1.46608e-10
1.46608e-10
1.46608e-10
1.46608e-10
1.46608e-10
1.46608e-10
1.46608e-10
1.46608e-10
1.46608e-10
1.46608e-10
1.46608e-10
1.46608e-10
1.46608e-10
1.46608e-10
1.46608e-10
1.46608e-10
1.46608e-10
1.46608e-10
1.46608e-10
1.46608e-10
1.46608e-10
1.46608e-10
1.46608e-10
1.46608e-10
1.46608e-10
1.46608e-10
1.46608e-10
1.46608e-10
1.46608e-10
1.46608e-10
1.46608e-10
1.46608e-10
1.46608e-10
1.46608e-10
1.46608e-10
1.46608e-10
1.46608e-10
1.46608e-10
1.46608e-10
1.46608e-10
1.46608e-10
1.46608e-10
1.46608e-10
1.46608e-10
1.46608e-10
1.46608e-10
1.46608e-10
1.46608e-10
1.46608e-10
1.46608e-10
1.46608e-10
1.46608e-10
1.46608e-10
1.46608e-10
1.46608e-10
1.46608e-10
1.46608e-10
1.46608e-10
1.46608e-10
1.46608e-10
1.46608e-10
1.46608e-10
1.46608e-10
1.46608e-10
1.46608e-10
1.46608e-10
1.46608e-10
1.46608e-10
1.46608e-10
1.46608e-10
1.46608e-10
1.46608e-10
1.46608e-10
1.46608e-10
1.46608e-10
1.46608e-10
1.46608e-10
1.46608e-10
1.46608e-10
1.46608e-10
1.46608e-10
1.46608e-10
1.46608e-10
1.46608e-10
1.46608e-10
1.46608e-10
1.46608e-10
1.46608e-10
1.46608e-10
1.46608e-10
1.46608e-10
1.46608e-10
1.46608e-10
1.46608e-10
1.46608e-10
1.46608e-10
1.46608e-10
1.46608e-10
1.46608e-10
1.46608e-10
1.46608e-10
1.46608e-10
1.46608e-10
1.46608e-10
1.46608e-10
1.46608e-10
1.46608e-10
1.46608e-10
1.46608e-10
1.46608e-10
1.46608e-10
1.46608e-10
1.46608e-10
1.46608e-10
1.46608e-10
1.46608e-10
1.46608e-10
1.46608e-10
1.46608e-10
1.46608e-10
1.46608e-10
1.46608e-10
1.46608e-10
1.46608e-10
1.46608e-10
1.46608e-10
1.46608e-10
1.46608e-10
1.46608e-10
1.46608e-10
1.46608e-10
1.46608e-10
1.46608e-10
1.46608e-10
1.46608e-10
1.46608e-10
1.46608e-10
1.46608e-10
1.46608e-10
1.46608e-10
1.46608e-10
1.46608e-10
1.46608e-10
1.46608e-10
1.46608e-10
1.46608e-10
1.46608e-10
1.46608e-10
1.46608e-10
1.46608e-10
1.46608e-10
1.46608e-10
1.46608e-10
1.46608e-10
1.46608e-10
1.46608e-10
1.46608e-10

VECTORS velocity float
0.00573095 -0.000490615 0.000335851
0.00536168 -0.000494927 0.000391817
0.00641943 0.000807279 -0.000699822
0.00571908 -0.000410089 0.000515758
0.00568953 -0.000510018 0.000376273
0.00582609 0.000802489 -0.000163741
0.00528898 -0.000400833 0.000355561
0.00598095 -0.000518167 0.000360255
0.00572827 0.000617751 -0.000372429
0.00542545 -0.00041723 0.000367181
0.00559416 -0.000502414 0.000414913
0.00525991 0.00080938 -0.000549335
0.00571701 -0.000518498 0.000373166
0.00636526 0.00084025 -0.000745186
0.00530555 -0.000390909 0.000352343
0.00634403 0.00081717 -0.000716158
0.0056757 -0.000462929 0.000392439
0.00576637 0.000614571 -0.000373413
0.00602012 -0.000556694 0.000408008
0.00567943 -0.000524475 0.000386092
0.00531802 -0.000385746 0.000351814
0.00565734 0.000738187 -0.000522471
0.00575357 0.000614615 -0.000372873
0.00543087 -0.000425577 0.000369921
0.00578861 0.000804877 -0.000170335
0.00565234 0.000714236 -0.000516666
0.00565997 -0.000401848 0.000507854
0.00602638 -0.000546822 0.000395589
0.00554097 -0.000441132 0.000395178
0.0052812 -0.000401209 0.000354657
0.00531136 -0.000394331 0.000354334
0.00587011 0.000798516 -0.000154641
0.00569886 -0.000464389 0.000391433
0.00528064 -0.000397401 0.000355564
0.00570619 0.000622967 -0.000372282
0.00543323 -0.000423353 0.000369593
0.00530601 -0.000389655 0.000353489
0.00575521 0.00061366 -0.000373135
0.00571303 -0.00048043 0.000401431
0.00531868 -0.000376777 0.000348699
0.00533235 -0.000398882 0.000354408
0.00591661 0.000795894 -0.000146027
0.00573399 0.000804995 -0.000175292
0.00571638 -0.00047472 0.000396064
0.00554677 -0.000382221 0.000360002
0.00575699 0.000804198 -0.000174278
0.00567466 -0.000381118 0.000502827
0.00561414 -0.00046147 0.000390002
0.00577535 0.000719651 -0.000516508
0.00575244 0.00061939 -0.000372418
0.00569523 -0.000508789 0.000370577
0.00640655 0.000860981 -0.000768763
0.00530718 -0.000398051 0.000355956
0.00583229 0.00080283 -0.000162781
0.00526511 -0.00041442 0.00035918
0.00531759 -0.000405745 0.000358504
0.005696 -0.00049257 0.00039257
0.00543749 -0.000421183 0.000367161
0.00557519 -0.000414633 0.000375466
0.00574526 0.00061954 -0.000373005
0.00541122 0.000816633 -0.00056162
0.0060687 0.000682911 -0.000552666
0.00549265 -0.000494993 0.000400978
0.0056433 -0.000424239 0.000517188
0.00563046 -0.000510928 0.000407194
0.00574018 0.000615332 -0.00037244
0.00638474 0.000856641 -0.000764589
0.00561235 -0.000437072 0.000469961
0.00542606 -0.00042097 0.000368434
0.00531257 -0.000352197 0.000339876
0.00582079 0.000677569 -0.000500128
0.00591362 -0.000444634 0.000538137
0.00634096 0.000758102 -0.000648273
0.00512474 0.000819461 -0.000550407
0.0057431 -0.000528077 0.000550012
0.00601983 0.000664451 -0.00050171
0.00568073 0.000744369 -0.000525825
0.00588032 0.000587746 -0.000454261
0.00571755 0.000620224 -0.00037257
0.00617697 0.000635953 -0.000494296
0.00561968 -0.000456818 0.000388312
0.0053088 -0.000433919 0.000367848
0.0058972 -0.000399757 0.000520888
0.00582518 -0.00038513 0.000514304
0.00533802 -0.000349127 0.00034
0.00539948 0.000755438 -0.000525975
0.00574495 -0.000468169 0.000535409
0.00584091 -0.000389332 0.000519965
0.00584059 -0.000393115 0.000518595
0.00574797 -0.000441057 0.000530043
0.00573482 -0.000450001 0.000529147
0.00600248 0.000662422 -0.0004957
0.00592631 -0.000435669 0.000533855
0.00552543 0.000795799 -0.000553096
0.00532889 -0.000400773 0.000357876
0.00600321 0.000679993 -0.00057564
4.3548e-15 1.05164e-14 8.29532e-14
-1.23235e-22 -4.80285e-22 8.29106e-22
0.00577471 0.000707179 -0.00051171
0.00590605 0.000668536 -0.000548003
0.00575377 0.000677776 -0.000497128
0.0063923 0.00074103 -0.000621734
0.00541362 -0.000430743 0.000371037
0.00557821 -0.000417918 0.000372862
0.00570352 -0.000475415 0.000535288
0.00601643 -0.000440121 0.000547003
0.00600672 0.000664359 -0.000497953
0.00579312 0.000628706 -0.000472722
0.00564844 0.000736933 -0.000522171
0.00557502 -0.000345722 0.000348742
0.00541517 -0.000428523 0.000370303
0.00572617 -0.000508971 0.000364973
0.00642295 0.000851714 -0.000755617
0.00533562 -0.000397698 0.000355734
0.00599913 -0.000531077 0.000376522
0.00596084 -0.000509426 0.000349553
0.00570384 -0.000472002 0.000533295
0.00590839 0.00070137 -0.000587157
0.00575785 -0.000446403 0.000529622
0.00601654 -0.000550222 0.000401407
0.00532586 -0.000357206 0.000342115
0.00596221 0.000658988 -0.00052082
0.00573452 -0.000352272 0.00050215
0.00585326 -0.000361718 0.000521317
0.00566734 0.000743046 -0.000527262
0.00586176 0.000739199 -0.000529891
0.00576297 -0.000438058 0.00052666
0.00568919 -0.000525231 0.0004052
0.00533929 -0.000395438 0.000355115
0.00602656 -0.000548497 0.000397972
0.00612825 0.000611438 -0.000462354
0.00605645 -0.000435389 0.000549005
0.00570007 -0.000491413 0.000403262
0.00578473 -0.000462716 0.000536646
0.00594813 0.000686959 -0.000569495
0.00566555 0.000728626 -0.000520245
0.00583514 0.000801791 -0.000730136
0.00564996 0.000733643 -0.000521082
0.00606229 0.000667758 -0.000496902
0.00616931 0.000583887 -0.000423965
0.00573524 0.000753012 -0.000534149
0.005834 -0.000482279 0.000545857
0.00569598 0.000961801 -0.000637688
0.00572162 0.000641132 -0.000477601
0.00583891 0.000714789 -0.000596252
0.00579511 0.00072472 -0.000521932
0.00582359 0.000671783 -0.00049122
0.00575389 0.00073835 -0.000526836
-3.82935e-14 8.16882e-14 2.95887e-13
0.0058084 0.000700722 -0.000510302
0.00569651 -0.000455196 0.000528584
0.00582548 0.000682582 -0.000496519
0.00580905 0.000711432 -0.000514599
0.0059071 0.000653386 3.73789e-05
0.00581832 0.000666614 -0.000494528
0.00568515 -0.000521763 0.000380965
0.00600321 0.000901249 -0.000617487
0.00580046 0.000673047 -0.00049588
0.00579867 0.00069035 -0.000504021
0.00582611 0.000681142 -0.00049915
0.00568468 -0.000525978 0.000392247
0.00581366 0.000646839 -0.000483293
0.00532434 -0.000413259 0.000361482
0.00581832 0.000673202 -0.000496774
0.00570583 0.000315177 -0.000334054
0.00569991 0.000743657 -0.000528331
0.00585274 0.000663693 -0.000491975
0.00578112 0.00059067 -0.000453798
0.00578847 0.000612691 -0.000467769
0.00580524 0.000722471 -0.000515737
0.00571999 -0.000469447 0.000396394
0.00582965 0.000678487 -0.000499864
0.00570299 -0.000420878 0.000520352
0.00571866 0.000772087 -0.000543108
0.00577439 0.000735022 -0.000526747
0.00531275 -0.00040754 0.000358631
0.00584016 -0.000475506 0.000544009
0.00532485 -0.000403672 0.000357697
0.0056991 0.000406501 6.64175e-05
0.00609288 -0.000401538 0.000536774
0.00569735 0.00078445 -0.000549645
0.00549388 -0.000464081 0.000386002
0.00548386 0.000800053 -0.000551652
0.00577647 0.000659334 -0.000487413
0.00632667 0.000805026 -0.000701253
0.0057081 0.000297807 -0.000329757
0.00561075 0.000713489 -0.000510865
0.00581746 0.000692743 -0.000506645
0.00565236 0.00073908 -0.000521416
0.00593473 0.00052772 6.8178e-05
0.00569817 0.000679181 -0.000495918
0.00558893 -0.000528417 0.000406723
0.00559294 0.000765897 -0.00053434
0.00583583 0.000620925 -0.000448348
0.00580894 0.000671333 -0.000493281
0.00590566 0.000705368 -0.000598141
0.00582613 0.000691378 -0.0005061
0.00538765 0.000831257 -0.000563627
0.00529079 -0.000370716 0.000350794
0.00572553 -0.000459724 0.000532754
0.00579174 0.000666643 -0.000494652
0.00529394 -0.000396014 0.000354265
0.00578864 -0.000412569 0.000520819
0.00576031 0.000526507 3.23069e-05
0.00583405 0.000681062 -0.000473155
0.00568714 -0.000522243 0.000413028
0.00580781 0.000620113 -0.000383866
0.00596337 -0.00044642 0.000542505
0.00581857 0.000700547 -0.000500593
0.00582944 0.000463873 6.10095e-05
0.00563378 -0.000509468 0.000407556
0.00572253 0.000715119 -0.000515172
0.00570446 0.000782693 -0.000548246
0.00562895 -0.000477418 0.000529184
0.00578025 0.000637353 -0.000477273
0.00577331 0.000635774 -1.59589e-05
0.00571938 0.000280642 -0.000332536
0.00569107 0.000768241 -0.000523671
0.00637988 0.000534507 -0.000232054
0.00570311 0.000359172 -0.000322206
0.00579452 0.000594561 -0.000458545
0.00556817 0.000742206 -0.000524435
0.00589385 -0.000457887 0.000542847
0.00539761 0.000482776 -0.000196389
0.00634168 0.000667882 -0.000223961
0.0056886 0.000636352 -0.000190768
0.00585391 4.17772e-05 -0.000348209
0.00569282 0.000401918 -9.08085e-05
0.00578357 5.72525e-05 -0.000362317
0.00567215 0.000758116 -0.000534563
0.00551439 0.000798199 -0.000550242
0.005608 8.98086e-05 -0.000384914
0.00568413 0.000517197 -1.45329e-06
0.00582364 0.000656662 2.09962e-05
0.00566861 0.000266698 0.000140176
0.00571554 0.000317922 -0.000336728
0.00581328 0.000638251 -0.000472751
0.00570414 -0.000483457 0.000537365
0.00570109 0.000296642 -0.000330067
0.00568906 0.000549384 7.90594e-06
0.00569477 0.000525713 1.77472e-05
0.00604374 0.000583364 -0.000429705
0.00580046 0.000616592 -0.000468605
0.00602926 0.00107527 -0.00221282
0.00588656 0.000709503 -9.00073e-05
0.00569796 0.000298784 -0.00032981
0.00564941 0.000729339 -0.000518562
0.00540485 0.00115017 -0.00270926
0.00589619 0.00058789 -0.000350342
0.00584586 0.000490378 4.77005e-05
0.00635156 0.000754795 -0.000222232
0.00571499 0.000281218 -0.00032584
0.00578764 0.000979611 -0.000648609
0.00629573 0.000695035 -0.00020752
0.00565389 0.000768758 -0.000525979
0.00589606 0.000832256 -0.000167946
0.0056783 -0.000484371 0.000536368
0.00583256 0.000639153 -0.000480605
0.00570906 0.000295589 -0.00033014
0.00633303 0.000890725 -0.00100047
0.00569806 0.000327249 -0.000338778
0.00606482 0.000763128 -0.000399814
0.0058503 0.000727223 -0.000347607
0.00632349 0.000911566 -0.000982582
0.00589059 0.000731858 -3.15391e-05
0.00571597 0.000468594 -0.00010063
0.00585474 0.000534643 3.06115e-05
0.00565937 0.000741721 -0.000525769
0.00582091 0.000531546 2.9259e-05
0.00538503 0.00022803 -0.000339169
0.00637267 0.000633229 -0.000228095
0.00635961 0.000657736 -0.000225691
0.00632774 0.000844834 -0.000926399
0.00594593 0.000579327 6.1213e-05
0.00634268 0.000863128 -0.000948466
0.00557441 0.000726534 -0.000516012
0.00566581 0.00076213 -0.000536882
0.00581426 0.000503976 6.27663e-05
0.00573533 0.000594523 -0.000460426
0.00594616 0.000565132 -0.000440874
0.00630187 0.000925222 -0.000978925
0.00584928 0.00045844 6.18859e-05
0.0055428 0.000668119 -0.000181922
0.00546812 -0.000278708 0.000321138
0.00583184 0.000491743 4.68708e-05
0.00570602 0.000302534 -0.000332406
0.00526986 -0.000429768 0.000356897

VECTORS force float
-1.37253e-10 -3.37602e-11 8.38352e-11
-7.90147e-11 1.06897e-10 -2.68085e-11
-2.90362e-10 -6.72296e-10 8.96319e-10
-3.12279e-11 1.54244e-10 -4.41563e-11
9.73267e-12 -1.17786e-10 -8.54816e-13
4.38554e-12 -8.82065e-12 1.48104e-11
6.15156e-11 5.20838e-11 -1.53577e-11
-3.43849e-11 -1.03759e-11 1.94183e-11
-9.01101e-12 -1.47817e-11 8.42584e-12
2.44853e-12 1.14403e-11 6.36872e-12
1.68919e-10 -9.66911e-12 -1.58945e-10
-8.70979e-11 1.51456e-10 -5.85193e-11
1.25943e-10 -5.89312e-11 4.24661e-11
4.68168e-11 1.17851e-10 -1.42016e-10
3.16005e-11 -1.05962e-10 3.82654e-11
6.95066e-11 8.20449e-11 -1.09261e-10
-1.25679e-10 4.63049e-12 1.90617e-11
1.06513e-11 -3.37068e-11 -6.35939e-11
5.29431e-11 -6.24455e-11 7.77728e-11
-1.25558e-10 -3.39008e-12 9.78936e-12
-1.11843e-11 -6.7424e-11 2.28303e-11
1.5629e-10 -1.02908e-10 3.7191e-11
-8.28104e-11 2.59572e-11 5.63559e-12
1.54213e-11 6.30609e-11 -2.52912e-11
-2.10762e-11 -3.61185e-11 1.91823e-11
2.24637e-12 -4.81306e-11 3.35232e-11
4.03434e-11 3.63224e-11 -1.4588e-11
1.09211e-10 -6.73505e-11 8.77502e-11
5.09433e-11 1.81104e-11 -1.46407e-12
4.99552e-11 -3.77085e-11 3.45791e-11
1.6349e-11 -5.76127e-12 3.44884e-12
2.19935e-12 2.97337e-12 -7.80268e-13
-5.94719e-11 2.76332e-11 -1.61705e-12
1.70609e-10 5.22418e-11 -2.40661e-11
-6.96442e-12 -4.10101e-11 7.67008e-12
3.9554e-12 6.67981e-11 -2.70203e-11
7.97556e-11 -7.55083e-11 -6.3022e-12
4.24796e-11 3.80207e-11 -2.52894e-11
2.12629e-11 7.26162e-11 1.05097e-11
-2.27474e-11 -1.92843e-10 6.81103e-11
-4.85486e-11 -2.15119e-11 3.21505e-11
-9.74874e-12 1.4331e-11 -1.57468e-11
8.78716e-11 3.55743e-11 3.63724e-11
1.87279e-10 4.76565e-11 -8.13634e-12
-5.24506e-11 -1.85691e-10 5.72334e-11
-4.14623e-11 -2.50032e-11 3.32736e-11
3.3644e-11 7.49363e-11 -2.27802e-11
-4.36414e-12 -4.72542e-11 1.31064e-11
-2.03121e-10 1.23496e-10 -3.90663e-11
2.99679e-11 1.69132e-11 -3.215e-11
4.12209e-11 -9.64605e-11 9.28625e-13
-4.23009e-12 3.84506e-10 -4.52704e-10
1.13193e-10 -2.68793e-12 4.59324e-12
6.14579e-11 9.37942e-13 4.39954e-12
-4.13019e-11 4.92185e-11 -2.07992e-11
1.06839e-10 1.99143e-11 9.69289e-12
-9.26953e-11 -8.07233e-12 -2.69501e-13
-9.70425e-11 3.38411e-11 1.01636e-11
6.4851e-11 7.19313e-11 5.48965e-12
4.14271e-11 1.27639e-11 -4.68146e-12