# vtk DataFile Version 3.0
LIGGGHTS particles timestep 12000000
ASCII
DATASET POLYDATA
POINTS 287 float
0.0828119 0.0163961 0.00779595
0.0832451 0.0174425 0.00732832
0.0765607 0.0157958 0.00822914
0.0831328 0.0178355 0.0071681
0.0826943 0.0162798 0.00785183
0.0888104 0.0167555 0.00762201
0.0828877 0.0170852 0.00749975
0.0825884 0.0158715 0.00810964
0.0890967 0.0179909 0.00700155
0.0828232 0.0168167 0.00761711
0.0832951 0.017649 0.00723799
0.0767736 0.0165634 0.00764311
0.0826728 0.0161903 0.00789095
0.0764815 0.0155764 0.00855386
0.083027 0.0172924 0.00740801
0.076462 0.0155216 0.00863521
0.0828017 0.0167272 0.00765623
0.0889819 0.0174645 0.00726553
0.0826514 0.0161008 0.00793008
0.0827905 0.0163066 0.00783507
0.0829306 0.0172641 0.00742151
0.0769534 0.016928 0.00742755
0.0890407 0.0177274 0.0071336
0.0828662 0.0169957 0.00753887
0.0889212 0.017202 0.00739738
0.0768582 0.0168991 0.00744264
0.0831228 0.0177438 0.00720748
0.0826296 0.0160177 0.0079812
0.0831636 0.0174974 0.00730963
0.0829092 0.0171747 0.00746063
0.0830055 0.0172028 0.00744678
0.0888407 0.0168775 0.00756064
0.0827803 0.0166377 0.00769535
0.0829839 0.0171121 0.00748294
0.0891334 0.0181727 0.00692704
0.0829409 0.016933 0.00756123
0.0831009 0.0172279 0.00742731
0.0890595 0.0178153 0.00708958
0.0827373 0.0164588 0.00777359
0.0829521 0.0173536 0.00738239
0.0831223 0.0173174 0.00738819
0.0888698 0.0169948 0.00750163
0.0889621 0.0173769 0.0073095
0.0827588 0.0165483 0.00773447
0.0829943 0.017533 0.00730468
0.0889423 0.0172893 0.00735347
0.0830554 0.0178147 0.00722791
0.0830348 0.0177189 0.00724779
0.0767519 0.0164796 0.00769315
0.0890018 0.0175521 0.00722156
0.082769 0.0162171 0.0078742
0.0765207 0.0156859 0.00839114
0.0829623 0.0170225 0.00752211
0.0888988 0.0171115 0.00744289
0.0830151 0.0168699 0.0075838
0.0830366 0.0169594 0.00754468
0.0827158 0.0163693 0.00781271
0.083143 0.0174073 0.00734895
0.0830913 0.0175629 0.00728804
0.0890216 0.0176397 0.0071776
0.0768702 0.0165914 0.00762869
0.0768051 0.0163399 0.00777883
0.0832791 0.0175529 0.00727962
0.083204 0.0176885 0.00722639
0.0828764 0.0166646 0.00767859
0.0890777 0.0179032 0.00704555
0.0765011 0.0156311 0.0084725
0.0831903 0.0175967 0.00726603
0.0828447 0.0169062 0.00757799
0.0830485 0.0173823 0.00736982
0.0770678 0.0174344 0.00712474
0.0832864 0.018462 0.00689442
0.0765797 0.01585 0.0081473
0.0767953 0.0166472 0.00759306
0.0830973 0.0180092 0.00709647
0.0767302 0.0163958 0.00774319
0.0768778 0.0169832 0.00739233
0.0768812 0.0162394 0.00784139
0.0891158 0.0180801 0.00696057
0.076677 0.0158703 0.00812015
0.0831094 0.0176523 0.00724701
0.0829936 0.0167804 0.00762292
0.0831466 0.0182482 0.00699247
0.0831158 0.0180994 0.00705725
0.0832243 0.0173522 0.00736774
0.076817 0.0167311 0.00754302
0.0832408 0.0179449 0.00711569
0.083225 0.0181896 0.00701288
0.083324 0.0182234 0.00699299
0.0831016 0.0180069 0.00719634
0.0832945 0.0180281 0.00707742
0.0766868 0.0162282 0.00784329
0.0831652 0.0183385 0.00695393
0.0768485 0.0165076 0.00767873
0.0831795 0.0171696 0.00744761
0.0767834 0.0162561 0.00782887
0.0643568 0.0187248 0.00531097
0.24257 0.0191927 0.00520306
0.0771249 0.0172617 0.00728322
0.0766434 0.0160643 0.00794909
0.0772094 0.0172126 0.00726222
0.0766002 0.0159139 0.00807316
0.0829194 0.0168435 0.00760035
0.0830144 0.0176226 0.00726496
0.0833998 0.018162 0.00701479
0.0832013 0.018514 0.00688741
0.0767085 0.016312 0.00779324
0.0774979 0.0177079 0.00707785
0.0770699 0.0169949 0.00739014
0.0830692 0.0174724 0.00733134
0.0828979 0.0167541 0.00763947
0.0827475 0.0161276 0.00791333
0.0765405 0.0157445 0.00831258
0.083058 0.0170489 0.00750556
0.0826081 0.0159379 0.00803749
0.0825688 0.0158051 0.0081818
0.0834183 0.0182563 0.00697378
0.0767164 0.0160033 0.00797978
0.0831947 0.0180275 0.00708327
0.0827251 0.0160373 0.00795286
0.0829736 0.0174431 0.00734327
0.0766652 0.0161444 0.00789334
0.0830756 0.0179096 0.00720351
0.0831359 0.0181954 0.00707671
0.0769723 0.0170124 0.00737711
0.0768268 0.0164237 0.00772878
0.0831436 0.0179283 0.00713263
0.0829076 0.0164224 0.00777943
0.0830794 0.0171384 0.00746643
0.0827039 0.0159611 0.00801706
0.0766565 0.0158156 0.00820141
0.0832201 0.0186053 0.00685121
0.0828549 0.0165751 0.00771771
0.08337 0.0184103 0.00691296
0.0766949 0.0159252 0.0080385
0.0770895 0.017079 0.00733982
0.0766218 0.0159858 0.00800709
0.0770511 0.0169106 0.00744055
0.0769029 0.0163233 0.00779135
0.0766375 0.0157608 0.00828287
0.0769364 0.0172357 0.00724137
0.0833393 0.0183141 0.00695371
0.0769463 0.0164909 0.00769126
0.0772955 0.0172571 0.00723753
0.0767616 0.0161723 0.00787892
0.0770321 0.017265 0.00722614
0.0770875 0.0175313 0.00710888
0.0770123 0.0171808 0.00727645
0.0219312 0.0187687 0.00551176
0.0771151 0.0173561 0.00725153
0.083222 0.0177923 0.00718139
0.0769933 0.0175011 0.00712465
0.0769563 0.0173199 0.00719115
0.0772622 0.0179558 0.00708583
0.077363 0.0174819 0.00710352
0.0828646 0.0162434 0.0078577
0.0769246 0.0164071 0.0077413
0.0771846 0.0172968 0.00721074
0.077423 0.0177742 0.00708061
0.0772488 0.017423 0.00713617
0.0828861 0.016333 0.00781855
0.0773467 0.0173972 0.0071542
0.0833983 0.0178654 0.00714052
0.0771623 0.017465 0.00710868
0.0709111 0.0171308 0.00730577
0.0769918 0.0170966 0.00732677
0.0770333 0.0176959 0.00710424
0.077478 0.0176099 0.00708068
0.0774032 0.0176762 0.00708344
0.0769627 0.0173943 0.00735848
0.0828334 0.0164856 0.00775683
0.0771448 0.0173805 0.00715924
0.0831663 0.0178175 0.00726056
0.0769161 0.0171517 0.00729159
0.0769508 0.0173211 0.00729142
0.0831573 0.0170792 0.00748713
0.0832443 0.0182806 0.00697325
0.0832034 0.0172621 0.00740705
0.0710176 0.0172362 0.00721899
0.0832379 0.0186971 0.00688659
0.0771798 0.0170433 0.00736363
0.0829721 0.016691 0.00766204
0.0769897 0.0166585 0.00759117
0.0773833 0.0175783 0.00708629
0.0764424 0.0154669 0.00871657
0.0709714 0.0174087 0.00722353
0.0768381 0.016815 0.00749289
0.0769732 0.0174044 0.00714047
0.0769335 0.0168436 0.00747803
0.0773668 0.0180014 0.00707946
0.0772015 0.0171271 0.00731359
0.0834256 0.0179884 0.00708688
0.0769132 0.0167593 0.00752838
0.0772227 0.0177589 0.0070915
0.077182 0.0175623 0.00709738
0.0767388 0.0160873 0.00792968
0.0770503 0.0173499 0.0071753
0.076968 0.0165747 0.00764122
0.0830644 0.017676 0.00733312
0.083298 0.0181253 0.00703605
0.077268 0.0175115 0.00709359
0.0831343 0.0169879 0.00752712
0.0832077 0.0181265 0.0070885
0.0709995 0.0171478 0.00726203
0.0770133 0.0175982 0.00711206
0.0829291 0.0165119 0.0077403
0.077128 0.0177273 0.00709713
0.0831851 0.0184364 0.00694831
0.0770213 0.0174575 0.0072102
0.0709114 0.016767 0.00757809
0.0829506 0.0166014 0.00770118
0.0771098 0.0171631 0.0072896
0.0768967 0.0170675 0.00734193
0.0833194 0.0178106 0.00716818
0.0772716 0.0173399 0.00718691
0.0709679 0.0169938 0.00738984
0.0709314 0.0172208 0.00726717
0.0770377 0.0174039 0.00729299
0.0773011 0.0181519 0.0070802
0.070891 0.017043 0.00734917
0.0768594 0.0161556 0.00789144
0.0770109 0.0167424 0.00754105
0.0832597 0.0183714 0.00693391
0.0773396 0.0183497 0.00707457
0.0773207 0.0182499 0.00707738
0.0774058 0.0181975 0.00707383
0.0707044 0.0163586 0.00790283
0.0707695 0.0165883 0.0077212
0.0706828 0.016282 0.00796338
0.0771415 0.0168749 0.00746438
0.076892 0.0166752 0.00757863
0.0707261 0.0164352 0.00784229
0.0708543 0.0168917 0.00747474
0.0772426 0.0178575 0.00708865
0.0774423 0.0178723 0.00707781
0.0709914 0.0175066 0.00722619
0.0771077 0.0176291 0.00710014
0.0833814 0.0180718 0.00705401
0.0710308 0.0177026 0.00723151
0.0709501 0.0169181 0.0074527
0.0708345 0.0168163 0.00753741
0.0766171 0.0157061 0.00836408
0.0772024 0.0176606 0.00709436
0.0770925 0.0179898 0.0070942
0.077148 0.0178255 0.00709424
0.0710506 0.0178006 0.00723417
0.0770312 0.0168265 0.00749082
0.0772457 0.0183159 0.00708016
0.0773862 0.0180995 0.00707665
0.0708129 0.0167412 0.00759973
0.0771119 0.0180879 0.00709139
0.0709515 0.0173108 0.00722854
0.0772965 0.0171715 0.00728923
0.0771871 0.0180218 0.00708861
0.0770361 0.0172811 0.00732498
0.0770731 0.0178918 0.00709701
0.0833406 0.0179417 0.00711142
0.0772883 0.0176094 0.00709074
0.071092 0.0179962 0.00723948
0.0771706 0.0183819 0.00708293
0.0710705 0.0178985 0.00723683
0.0771677 0.0179237 0.00709142
0.0770534 0.0177938 0.0070999
0.0771914 0.0184797 0.00708006
0.077328 0.0178053 0.00708507
0.0708732 0.0169673 0.0074121
0.0710462 0.0173423 0.00722189
0.0771215 0.0167908 0.00751463
0.0709312 0.0168425 0.00751542
0.0707478 0.0165118 0.00778174
0.077226 0.0182179 0.00708298
0.0772065 0.0181198 0.0070858
0.0771314 0.0181859 0.00708857
0.0772817 0.0180538 0.00708301
0.077151 0.0182839 0.00708575
0.0771012 0.0167067 0.00756487
0.0771602 0.0169592 0.00741395
0.0773473 0.0179034 0.00708227
0.0768369 0.016072 0.00794138
0.0773083 0.0177073 0.0070879
0.0772125 0.0185774 0.00707716
0.0709883 0.0170706 0.00732605
0.0774237 0.0182958 0.00707109
0.0831117 0.0168972 0.00756682
0.0707912 0.0166649 0.00766065
0.071011 0.0176046 0.00722885
0.0832895 0.0177488 0.00724095

VERTICES 287 574
1 0
1 1
1 2
1 3
1 4
1 5
1 6
1 7
1 8
1 9
1 10
1 11
1 12
1 13
1 14
1 15
1 16
1 17
1 18
1 19
1 20
1 21
1 22
1 23
1 24
1 25
1 26
1 27
1 28
1 29
1 30
1 31
1 32
1 33
1 34
1 35
1 36
1 37
1 38
1 39
1 40
1 41
1 42
1 43
1 44
1 45
1 46
1 47
1 48
1 49
1 50
1 51
1 52
1 53
1 54
1 55
1 56
1 57
1 58
1 59
1 60
1 61
1 62
1 63
1 64
1 65
1 66
1 67
1 68
1 69
1 70
1 71
1 72
1 73
1 74
1 75
1 76
1 77
1 78
1 79
1 80
1 81
1 82
1 83
1 84
1 85
1 86
1 87
1 88
1 89
1 90
1 91
1 92
1 93
1 94
1 95
1 96
1 97
1 98
1 99
1 100
1 101
1 102
1 103
1 104
1 105
1 106
1 107
1 108
1 109
1 110
1 111
1 112
1 113
1 114
1 115
1 116
1 117
1 118
1 119
1 120
1 121
1 122
1 123
1 124
1 125
1 126
1 127
1 128
1 129
1 130
1 131
1 132
1 133
1 134
1 135
1 136
1 137
1 138
1 139
1 140
1 141
1 142
1 143
1 144
1 145
1 146
1 147
1 148
1 149
1 150
1 151
1 152
1 153
1 154
1 155
1 156
1 157
1 158
1 159
1 160
1 161
1 162
1 163
1 164
1 165
1 166
1 167
1 168
1 169
1 170
1 171
1 172
1 173
1 174
1 175
1 176
1 177
1 178
1 179
1 180
1 181
1 182
1 183
1 184
1 185
1 186
1 187
1 188
1 189
1 190
1 191
1 192
1 193
1 194
1 195
1 196
1 197
1 198
1 199
1 200
1 201
1 202
1 203
1 204
1 205
1 206
1 207
1 208
1 209
1 210
1 211
1 212
1 213
1 214
1 215
1 216
1 217
1 218
1 219
1 220
1 221
1 222
1 223
1 224
1 225
1 226
1 227
1 228
1 229
1 230
1 231
1 232
1 233
1 234
1 235
1 236
1 237
1 238
1 239
1 240
1 241
1 242
1 243
1 244
1 245
1 246
1 247
1 248
1 249
1 250
1 251
1 252
1 253
1 254
1 255
1 256
1 257
1 258
1 259
1 260
1 261
1 262
1 263
1 264
1 265
1 266
1 267
1 268
1 269
1 270
1 271
1 272
1 273
1 274
1 275
1 276
1 277
1 278
1 279
1 280
1 281
1 282
1 283
1 284
1 285
1 286

POINT_DATA 287
SCALARS id int 1
LOOKUP_TABLE default
1
2
3
4
5
6
7
8
9
10
11
12
13
14
15
16
17
18
19
21
22
23
24
25
26
27
28
29
30
31
32
33
34
35
36
37
38
39
41
42
44
45
46
47
48
49
50
51
52
53
54
55
56
57
59
60
61
62
63
64
65
66
67
68
69
70
71
72
73
74
76
77
78
79
80
81
82
83
84
85
86
87
88
89
90
91
92
93
94
95
96
97
98
99
100
101
102
103
104
105
106
107
108
109
110
111
112
113
114
115
116
117
118
119
120
121
122
123
124
125
126
127
128
129
130
131
132
133
134
135
136
137
138
140
141
142
143
144
146
147
148
149
150
151
153
154
155
156
157
158
159
160
162
164
165
166
167
168
169
170
171
172
173
174
175
176
177
178
179
181
182
183
184
185
186
187
188
189
190
191
192
193
194
195
196
197
198
199
200
201
202
203
204
205
206
207
208
209
210
211
212
213
214
215
216
217
218
219
220
221
222
223
224
225
226
227
228
229
230
231
232
233
234
235
236
237
239
240
241
242
243
244
246
247
248
249
250
251
252
253
254
255
256
257
258
259
260
261
262
263
264
265
266
267
268
269
270
271
272
273
274
275
276
277
278
279
280
281
282
283
284
285
286
287
288
289
290
291
292
293
294
295
296
297
298
299
300

SCALARS type int 1
LOOKUP_TABLE default
1
1
1
1
1
1
1
1
1
1
1
1
1
1
1
1
1
1
1
1
1
1
1
1
1
1
1
1
1
1
1
1
1
1
1
1
1
1
1
1
1
1
1
1
1
1
1
1
1
1
1
1
1
1
1
1
1
1
1
1
1
1
1
1
1
1
1
1
1
1
1
1
1
1
1
1
1
1
1
1
1
1
1
1
1
1
1
1
1
1
1
1
1
1
1
1
1
1
1
1
1
1
1
1
1
1
1
1
1
1
1
1
1
1
1
1
1
1
1
1
1
1
1
1
1
1
1
1
1
1
1
1
1
1
1
1
1
1
1
1
1
1
1
1
1
1
1
1
1
1
1
1
1
1
1
1
1
1
1
1
1
1
1
1
1
1
1
1
1
1
1
1
1
1
1
1
1
1
1
1
1
1
1
1
1
1
1
1
1
1
1
1
1
1
1
1
1
1
1
1
1
1
1
1
1
1
1
1
1
1
1
1
1
1
1
1
1
1
1
1
1
1
1
1
1
1
1
1
1
1
1
1
1
1
1
1
1
1
1
1
1
1
1
1
1
1
1
1
1
1
1
1
1
1
1
1
1
1
1
1
1
1
1
1
1
1
1
1
1
1
1
1
1
1
1
1
1
1
1
1
1
1
1
1
1
1
1

SCALARS radius float 1
LOOKUP_TABLE default
5e-05
5e-05
5e-05
5e-05
5e-05
5e-05
5e-05
5e-05
5e-05
5e-05
5e-05
5e-05
5e-05
5e-05
5e-05
5e-05
5e-05
5e-05
5e-05
5e-05
5e-05
5e-05
5e-05
5e-05
5e-05
5e-05
5e-05
5e-05
5e-05
5e-05
5e-05
5e-05
5e-05
5e-05
5e-05
5e-05
5e-05
5e-05
5e-05
5e-05
5e-05
5e-05
5e-05
5e-05
5e-05
5e-05
5e-05
5e-05
5e-05
5e-05
5e-05
5e-05
5e-05
5e-05
5e-05
5e-05
5e-05
5e-05
5e-05
5e-05
5e-05
5e-05
5e-05
5e-05
5e-05
5e-05
5e-05
5e-05
5e-05
5e-05
5e-05
5e-05
5e-05
5e-05
5e-05
5e-05
5e-05
5e-05
5e-05
5e-05
5e-05
5e-05
5e-05
5e-05
5e-05
5e-05
5e-05
5e-05
5e-05
5e-05
5e-05
5e-05
5e-05
5e-05
5e-05
5e-05
5e-05
5e-05
5e-05
5e-05
5e-05
5e-05
5e-05
5e-05
5e-05
5e-05
5e-05
5e-05
5e-05
5e-05
5e-05
5e-05
5e-05
5e-05
5e-05
5e-05
5e-05
5e-05
5e-05
5e-05
5e-05
5e-05
5e-05
5e-05
5e-05
5e-05
5e-05
5e-05
5e-05
5e-05
5e-05
5e-05
5e-05
5e-05
5e-05
5e-05
5e-05
5e-05
5e-05
5e-05
5e-05
5e-05
5e-05
5e-05
5e-05
5e-05
5e-05
5e-05
5e-05
5e-05
5e-05
5e-05
5e-05
5e-05
5e-05
5e-05
5e-05
5e-05
5e-05
5e-05
5e-05
5e-05
5e-05
5e-05
5e-05
5e-05
5e-05
5e-05
5e-05
5e-05
5e-05
5e-05
5e-05
5e-05
5e-05
5e-05
5e-05
5e-05
5e-05
5e-05
5e-05
5e-05
5e-05
5e-05
5e-05
5e-05
5e-05
5e-05
5e-05
5e-05
5e-05
5e-05
5e-05
5e-05
5e-05
5e-05
5e-05
5e-05
5e-05
5e-05
5e-05
5e-05
5e-05
5e-05
5e-05
5e-05
5e-05
5e-05
5e-05
5e-05
5e-05
5e-05
5e-05
5e-05
5e-05
5e-05
5e-05
5e-05
5e-05
5e-05
5e-05
5e-05
5e-05
5e-05
5e-05
5e-05
5e-05
5e-05
5e-05
5e-05
5e-05
5e-05
5e-05
5e-05
5e-05
5e-05
5e-05
5e-05
5e-05
5e-05
5e-05
5e-05
5e-05
5e-05
5e-05
5e-05
5e-05
5e-05
5e-05
5e-05
5e-05
5e-05
5e-05
5e-05
5e-05
5e-05
5e-05
5e-05
5e-05
5e-05
5e-05
5e-05
5e-05
5e-05
5e-05
5e-05
5e-05
5e-05
5e-05
5e-05
5e-05
5e-05
5e-05
5e-05
5e-05
5e-05
5e-05
5e-05
5e-05
5e-05
5e-05
5e-05
5e-05
5e-05
5e-05
5e-05
5e-05

SCALARS mass float 1
LOOKUP_TABLE default
1.46608e-10
1.46608e-10
1.46608e-10
1.46608e-10
1.46608e-10
1.46608e-10
1.46608e-10
1.46608e-10
1.46608e-10
1.46608e-10
1.46608e-10
1.46608e-10
1.46608e-10
1.46608e-10
1.46608e-10
1.46608e-10
1.46608e-10
1.46608e-10
1.46608e-10
1.46608e-10
1.46608e-10
1.46608e-10
1.46608e-10
1.46608e-10
1.46608e-10
1.46608e-10
1.46608e-10
1.46608e-10
1.46608e-10
1.46608e-10
1.46608e-10
1.46608e-10
1.46608e-10
1.46608e-10
1.46608e-10
1.46608e-10
1.46608e-10
1.46608e-10
1.46608e-10
1.46608e-10
1.46608e-10
1.46608e-10
1.46608e-10
1.46608e-10
1.46608e-10
1.46608e-10
1.46608e-10
1.46608e-10
1.46608e-10
1.46608e-10
1.46608e-10
1.46608e-10
1.46608e-10
1.46608e-10
1.46608e-10
1.46608e-10
1.46608e-10
1.46608e-10
1.46608e-10
1.46608e-10
1.46608e-10
1.46608e-10
1.46608e-10
1.46608e-10
1.46608e-10
1.46608e-10
1.46608e-10
1.46608e-10
1.46608e-10
1.46608e-10
1.46608e-10
1.46608e-10
1.46608e-10
1.46608e-10
1.46608e-10
1.46608e-10
1.46608e-10
1.46608e-10
1.46608e-10
1.46608e-10
1.46608e-10
1.46608e-10
1.46608e-10
1.46608e-10
1.46608e-10
1.46608e-10
1.46608e-10
1.46608e-10
1.46608e-10
1.46608e-10
1.46608e-10
1.46608e-10
1.46608e-10
1.46608e-10
1.46608e-10
1.46608e-10
1.46608e-10
1.46608e-10
1.46608e-10
1.46608e-10
1.46608e-10
1.46608e-10
1.46608e-10
1.46608e-10
1.46608e-10
1.46608e-10
1.46608e-10
1.46608e-10
1.46608e-10
1.46608e-10
1.46608e-10
1.46608e-10
1.46608e-10
1.46608e-10
1.46608e-10
1.46608e-10
1.46608e-10
1.46608e-10
1.46608e-10
1.46608e-10
1.46608e-10
1.46608e-10
1.46608e-10
1.46608e-10
1.46608e-10
1.46608e-10
1.46608e-10
1.46608e-10
1.46608e-10
1.46608e-10
1.46608e-10
1.46608e-10
1.46608e-10
1.46608e-10
1.46608e-10
1.46608e-10
1.46608e-10
1.46608e-10
1.46608e-10
1.46608e-10
1.46608e-10
1.46608e-10
1.46608e-10
1.46608e-10
1.46608e-10
1.46608e-10
1.46608e-10
1.46608e-10
1.46608e-10
1.46608e-10
1.46608e-10
1.46608e-10
1.46608e-10
1.46608e-10
1.46608e-10
1.46608e-10
1.46608e-10
1.46608e-10
1.46608e-10
1.46608e-10
1.46608e-10
1.46608e-10
1.46608e-10
1.46608e-10
1.46608e-10
1.46608e-10
1.46608e-10
1.46608e-10
1.46608e-10
1.46608e-10
1.46608e-10
1.46608e-10
1.46608e-10
1.46608e-10
1.46608e-10
1.46608e-10
1.46608e-10
1.46608e-10
1.46608e-10
1.46608e-10
1.46608e-10
1.46608e-10
1.46608e-10
1.46608e-10
1.46608e-10
1.46608e-10
1.46608e-10
1.46608e-10
1.46608e-10
1.46608e-10
1.46608e-10
1.46608e-10
1.46608e-10
1.46608e-10
1.46608e-10
1.46608e-10
1.46608e-10
1.46608e-10
1.46608e-10
1.46608e-10
1.46608e-10
1.46608e-10
1.46608e-10
1.46608e-10
1.46608e-10
1.46608e-10
1.46608e-10
1.46608e-10
1.46608e-10
1.46608e-10
1.46608e-10
1.46608e-10
1.46608e-10
1.46608e-10
1.46608e-10
1.46608e-10
1.46608e-10
1.46608e-10
1.46608e-10
1.46608e-10
1.46608e-10
1.46608e-10
1.46608e-10
1.46608e-10
1.46608e-10
1.46608e-10
1.46608e-10
1.46608e-10
1.46608e-10
1.46608e-10
1.46608e-10
1.46608e-10
1.46608e-10
1.46608e-10
1.46608e-10
1.46608e-10
1.46608e-10
1.46608e-10
1.46608e-10
1.46608e-10
1.46608e-10
1.46608e-10
1.46608e-10
1.46608e-10
1.46608e-10
1.46608e-10
1.46608e-10
1.46608e-10
1.46608e-10
1.46608e-10
1.46608e-10
1.46608e-10
1.46608e-10
1.46608e-10
1.46608e-10
1.46608e-10
1.46608e-10
1.46608e-10
1.46608e-10
1.46608e-10
1.46608e-10
1.46608e-10
1.46608e-10
1.46608e-10
1.46608e-10
1.46608e-10
1.46608e-10
1.46608e-10
1.46608e-10
1.46608e-10
1.46608e-10
1.46608e-10
1.46608e-10
1.46608e-10
1.46608e-10
1.46608e-10
1.46608e-10
1.46608e-10
1.46608e-10
1.46608e-10
1.46608e-10
1.46608e-10
1.46608e-10
1.46608e-10
1.46608e-10
1.46608e-10
1.46608e-10

VECTORS velocity float
0.00621818 2.1456e-05 -0.000358091
0.00582519 0.00022497 -0.000421026
0.00594065 0.000387959 -0.000393918
0.00568993 0.000142104 -0.000374772
0.00624577 1.72976e-06 -0.000351321
0.00668142 0.00209335 -0.0013952
0.00606793 3.63216e-05 -0.00035543
0.0057031 0.000344399 -7.33113e-05
0.0055641 -0.000509748 -5.87297e-05
0.00612621 1.87416e-05 -0.000351794
0.00572541 9.76895e-05 -0.00036124
0.00633805 0.000503391 -0.000146579
0.00626574 -1.51395e-06 -0.000351069
0.00569957 0.00042586 -0.000443496
0.00601788 7.51254e-05 -0.000368493
0.00568652 0.000430331 -0.00045195
0.00614538 1.51608e-05 -0.00035163
0.00561572 -0.000516452 -5.87994e-05
0.00628452 -5.3322e-06 -0.000350974
0.00624441 2.1484e-05 -0.000359517
0.00602772 5.06051e-05 -0.000360124
0.00593536 0.00056245 -0.000190529
0.00561591 -0.000519174 -5.73458e-05
0.00608741 2.89941e-05 -0.000355586
0.00595525 -0.000598572 -3.74708e-05
0.00595247 0.000561359 -0.000187394
0.00573083 0.000113369 -0.000362151
0.00628667 1.7483e-05 -0.000313689
0.00579834 0.0001873 -0.000406741
0.0060476 4.40495e-05 -0.000357114
0.00603838 6.86578e-05 -0.000367822
0.0066459 0.00201364 -0.00135423
0.00616662 1.21159e-05 -0.000350726
0.00605802 6.21705e-05 -0.000365267
0.00554159 -0.00037573 0.000270224
0.0061014 4.21912e-05 -0.000359268
0.00603035 9.19406e-05 -0.000376481
0.00558865 -0.000515213 -5.79216e-05
0.0062048 6.50661e-06 -0.000350763
0.00600673 5.82363e-05 -0.000360989
0.00601336 9.90815e-05 -0.000379201
0.0066129 0.00194161 -0.00131715
0.00557298 -0.000514367 -5.79312e-05
0.00618582 9.13863e-06 -0.000351223
0.00577978 0.000105542 -0.000381257
0.00555489 -0.000510257 -5.8546e-05
0.00572462 0.000107713 -0.000345798
0.0057353 0.000113873 -0.000359964
0.00634942 0.000502547 -0.000147228
0.00565588 -0.000523402 -5.74004e-05
0.00626744 2.39607e-05 -0.000361841
0.00571606 0.000412404 -0.000422274
0.00608082 4.95068e-05 -0.000362139
0.00658128 0.00187485 -0.00128272
0.00610695 4.70519e-05 -0.000362631
0.00609735 6.92401e-05 -0.000372238
0.00622523 3.91785e-06 -0.000350932
0.00593413 0.000261423 -0.000444055
0.00573387 9.05849e-05 -0.000462741
0.00567345 -0.000529718 -5.5559e-05
0.0063218 0.000491526 -0.000138873
0.00636101 0.000511482 -0.000152494
0.00569917 8.53315e-05 -0.000356497
0.00573313 0.000112242 -0.000368629
0.00616022 2.41345e-05 -0.00036142
0.0055659 -0.000510069 -5.91687e-05
0.00570612 0.000417966 -0.000431453
0.00571782 0.000112717 -0.000370027
0.00610669 2.41214e-05 -0.00035167
0.00600026 8.20234e-05 -0.000370826
0.00580105 0.00059085 -0.000211653
0.00556908 0.000272428 -5.7435e-05
0.00612159 0.000421743 -0.000387052
0.00633673 0.000505328 -0.000140142
0.00555231 0.000125241 -0.000363359
0.0063594 0.000504159 -0.000143454
0.00593928 0.000560515 -0.000189244
0.00636493 0.000520453 -0.000155962
0.00558136 -0.000461429 5.49948e-05
0.00631147 0.000457248 -0.00052075
0.00573385 0.000124748 -0.000375319
0.00613242 4.76429e-05 -0.000364723
0.00548129 0.000143241 -0.000370933
0.00552267 0.000134537 -0.000364156
0.00611956 0.000503074 -0.000556725
0.00633015 0.000499597 -0.000144179
0.00557218 0.000242293 -0.00041507
0.00549865 0.000171253 -0.000388377
0.00573983 0.00041192 -0.000505534
0.00556255 0.000147849 -0.000357707
0.0054601 0.000402267 -0.0004766
0.00637232 0.000489376 -0.000142973
0.00559771 0.000125915 -0.000374689
0.00634834 0.000513946 -0.000147333
0.00603047 9.61983e-05 -0.000379089
0.00636759 0.000505802 -0.000143134
4.12297e-15 1.06024e-14 8.29543e-14
-1.01195e-22 -3.03968e-22 -1.2867e-21
0.00591118 0.000609468 -0.000231228
0.00639743 0.000466777 -0.000208694
0.00591147 0.000612428 -0.00022339
0.00629832 0.00039718 -0.00040069
0.00611814 3.56596e-05 -0.000359904
0.00575288 0.000112302 -0.00037054
0.0058048 0.000473087 -0.000522188
0.00571507 0.000330058 8.18746e-05
0.00636723 0.000493313 -0.000149246
0.00579193 0.000658386 -0.000318254
0.00594022 0.000580727 -0.000200785
0.00580622 0.00011285 -0.000444527
0.00614088 3.20585e-05 -0.000354861
0.00628136 1.46337e-05 -0.000358734
0.00579623 0.000398851 -0.000403272
0.00606941 7.83879e-05 -0.000372873
0.00567378 0.000348068 -7.87196e-05
0.00570743 0.00034323 -7.18352e-05
0.00569226 0.00053655 -0.000547224
0.0063869 0.000456316 -0.00010602
0.00545767 0.000186829 -0.000386184
0.00629809 9.57083e-06 -0.000358036
0.00599112 6.39686e-05 -0.000362523
0.00637216 0.00049104 -0.000138592
0.00563335 0.00010676 -0.000384805
0.00554265 0.000134361 -0.000375707
0.00593544 0.000564533 -0.000192887
0.00635184 0.000515613 -0.000147392
0.00560674 0.000150305 -0.000382784
0.00620882 3.17255e-05 -0.00036184
0.00604742 8.29308e-05 -0.000376593
0.00629325 0.000259055 5.18854e-05
0.00607648 0.000337652 -0.000289509
0.00578331 0.000369037 0.000219747
0.00617967 2.22704e-05 -0.000358919
0.00562801 0.000241157 -0.000121103
0.00645275 0.00042081 -0.000402337
0.00592561 0.000590921 -0.00020528
0.00633141 0.000451294 -0.000305371
0.00594427 0.00057809 -0.000199667
0.00635255 0.000523054 -0.000155162
0.0058802 0.000344718 -0.000314258
0.00590476 0.000559068 -0.000189964
0.00572128 0.000454623 -0.000496672
0.00635134 0.000522617 -0.000157943
0.00589995 0.00062792 -0.000231181
0.00637776 0.000485494 -0.00013548
0.00587458 0.000607913 -0.000219697
0.00578067 0.000575665 -0.000217517
0.00593775 0.000587258 -0.000203552
-3.82687e-14 8.16867e-14 2.9589e-13
0.00582898 0.000617517 -0.000216386
0.00573132 0.000240664 -0.000419421
0.00578881 0.000584402 -0.000220522
0.00584289 0.000573992 -0.000195091
0.00564073 0.000634907 -0.000310232
0.00582522 0.000641814 -0.000240284
0.00627509 5.361e-05 -0.000374798
0.00635064 0.000523341 -0.000155446
0.00582546 0.000621108 -0.000227727
0.00576297 0.000652933 -0.000317116
0.00580825 0.000608072 -0.000221256
0.00624052 4.38797e-05 -0.00036878
0.00583676 0.000638678 -0.000240317
0.00577501 0.00051562 -0.000542644
0.00579185 0.000586142 -0.000208628
0.00578575 -4.1722e-05 3.99933e-05
0.00592445 0.000544248 -0.00017945
0.00578332 0.000584468 -0.000284581
0.00583367 0.000629913 -0.000319208
0.00580459 0.000628592 -0.00031675
0.00579359 0.000613182 -0.000236802
0.00619807 2.183e-05 -0.000356291
0.00581072 0.000556409 -0.000241904
0.00574985 0.000237269 -0.000386479
0.00593114 0.000556964 -0.000187737
0.00588131 0.000553125 -0.000180607
0.00604444 8.45904e-05 -0.000375007
0.00563853 0.000241549 -0.00043736
0.00601735 0.00010691 -0.000383118
0.00581537 -2.90578e-05 2.17177e-05
0.00574131 0.000362783 0.000211199
0.00593204 0.000602741 -0.000215044
0.00615225 4.39534e-05 -0.00036345
0.00633897 0.000525824 -0.00015675
0.00582968 0.000623955 -0.000335536
0.00567274 0.000430122 -0.000451908
0.00562773 2.23351e-05 1.79103e-05
0.00597111 0.000561311 -0.000189575
0.00577968 0.000586998 -0.000206199
0.00593934 0.000543746 -0.000178651
0.00566442 0.000638746 -0.000311574
0.00591648 0.00061049 -0.000219408
0.00548425 0.000517309 -0.000527004
0.00597591 0.000570412 -0.000193874
0.00578083 0.000593657 -0.00031944
0.00580568 0.000580724 -0.000300789
0.00638236 0.000492155 -0.000142225
0.00583232 0.000585486 -0.000206741
0.006357 0.000522886 -0.000156215
0.00575137 0.000112181 -0.0003712
0.00546672 0.000164341 -0.000377872
0.00581912 0.000598879 -0.000317285
0.00607755 9.04866e-05 -0.000379241
0.00544329 0.00018648 -0.000390381
0.00582855 -3.94989e-05 2.50515e-05
0.00578484 0.000585124 -0.000250065
0.00619143 3.26945e-05 -0.000361157
0.00577944 0.000589282 -0.000299455
0.00555378 0.000150318 -0.00016577
0.00580445 0.000585501 -0.000213425
0.00617922 -5.09845e-05 3.44569e-05
0.00617558 4.15088e-05 -0.00035888
0.00591489 0.000600152 -0.000213422
0.00593122 0.000559451 -0.0001879
0.00557456 0.00079232 -0.000647948
0.00585817 0.000618114 -0.00022565
0.00578883 -1.12884e-05 -3.23649e-06
0.00582157 -4.49339e-05 4.77195e-05
0.00582431 0.00060197 -0.000207756
0.00561362 0.000637712 -0.000309334
0.0057682 -4.05616e-05 2.17771e-05
0.0063902 0.000517047 -0.000151443
0.00597696 0.000578594 -0.0001989
0.00557684 0.000292086 -0.000517477
0.00557329 0.000650743 -0.000306992
0.00559342 0.00064181 -0.000307667
0.00560292 0.000661156 -0.000308784
0.00608129 2.05232e-05 0.000181816
0.00611578 1.26402e-05 0.000188344
0.00608006 4.20607e-05 0.000165373
0.00595021 0.000587325 -0.000204423
0.00633446 0.000507761 -0.000148978
0.00608164 6.32204e-06 0.000192095
0.00576352 -1.57354e-05 2.43679e-06
0.00570161 0.000786354 -0.000316279
0.00572038 0.000667469 -0.000315174
0.00555748 4.436e-05 1.18959e-05
0.00579325 0.000579137 -0.000279484
0.00540482 0.000514093 -0.000521215
0.00552529 5.89517e-05 1.07666e-05
0.00578109 -6.49037e-06 -5.38681e-06
0.00614391 -0.000116218 -2.5024e-06
0.00574361 0.000360135 -0.000343532
0.00579046 0.000605354 -0.000318348
0.00556161 0.000627733 -0.000305753
0.00574265 0.000666488 -0.000317008
0.00545085 7.12442e-05 1.21189e-05
0.00595271 0.000576328 -0.000197392
0.00558398 0.000630477 -0.000307235
0.00562643 0.000652291 -0.000309708
0.00617578 -0.00010817 2.45234e-05
0.00556315 0.000627887 -0.000306209
0.00575647 -1.62386e-05 4.47652e-05
0.00591793 0.000624857 -0.000228632
0.00555358 0.000648108 -0.000305934
0.00591358 0.000590516 -0.000211663
0.00564809 0.000611573 -0.000311259
0.00556741 0.000385235 -0.000475598
0.00580282 0.000602545 -0.000320836
0.00543215 6.92069e-05 1.16828e-05
0.0055846 0.000625073 -0.000306711
0.00538652 7.85584e-05 1.27736e-05
0.00563663 0.000647239 -0.000310363
0.00577146 0.000587355 -0.000308874
0.00583366 0.000574372 -0.000319368
0.00574794 0.000615674 -0.000315386
0.00577113 -3.06918e-05 1.0925e-05
0.00571454 0.000151312 1.60459e-05
0.00595907 0.00058334 -0.000202786
0.00576692 -4.67527e-06 -5.95827e-06
0.00609001 7.0996e-06 0.000193216
0.0056059 0.00063374 -0.000308555
0.00558874 0.000639784 -0.000307587
0.00560584 0.000621057 -0.000308726
0.00563359 0.000635436 -0.000309967
0.00559708 0.00062406 -0.000307876
0.0059703 0.000578479 -0.000198858
0.00594969 0.000592558 -0.000207904
0.00570438 0.000626015 -0.000313745
0.00639635 0.000523694 -0.000152036
0.00579395 0.000604133 -0.000316592
0.00586192 0.00056867 -0.000320806
0.00577155 -5.51427e-05 3.06381e-05
0.00558366 0.000669533 -0.00030794
0.00611288 8.627e-05 -0.000379403
0.00612167 2.42391e-05 0.000184494
0.00554179 5.29408e-05 1.11083e-05
0.00616701 0.000140528 -0.000987878

VECTORS force float
8.37662e-12 -2.06639e-11 1.65958e-11
-6.7824e-11 1.50992e-10 -5.94692e-11
-1.57833e-10 2.89545e-10 -5.46315e-10
-1.43783e-10 -1.17058e-10 2.02787e-11
-1.1811e-12 -1.29266e-11 4.47798e-12
2.70437e-13 9.74992e-13 -4.85201e-13
-4.84237e-12 5.43001e-12 -3.95844e-11
3.97191e-12 1.80854e-11 -1.08648e-11
8.68435e-12 -1.93695e-12 1.28272e-12
1.2819e-12 -1.84025e-11 -1.99959e-11
1.33545e-10 -5.9667e-11 6.41227e-11
-9.56557e-12 -6.67426e-11 -7.63217e-11
2.25385e-12 -8.37542e-12 6.91676e-13
-6.74924e-13 1.02304e-10 -1.30822e-10
-5.68146e-12 2.61589e-11 -2.63632e-13
-6.27932e-11 1.08238e-10 -1.79021e-10
6.46802e-12 -1.10809e-11 3.81065e-12
-1.59381e-10 2.34038e-12 1.85619e-12
4.45383e-12 -1.12079e-12 5.32866e-12
1.66257e-11 -2.66769e-11 8.04614e-12
-1.43961e-11 7.73972e-13 -4.27259e-12
-7.55208e-12 -4.18012e-12 2.04578e-11
1.58199e-10 -2.10447e-11 -6.28159e-13
1.20183e-12 1.53621e-11 4.15986e-12
1.29587e-11 -4.35778e-11 1.97217e-11
-2.90126e-11 -3.35759e-11 5.96947e-12
4.48966e-11 -7.03159e-11 -9.71958e-12
-2.41074e-12 8.98691e-12 1.28969e-11
-1.45072e-10 1.78092e-11 -4.10041e-11
1.88036e-11 2.46091e-11 8.15713e-12
8.51078e-12 3.4004e-11 -4.63796e-12
1.34715e-13 8.43588e-13 -4.13072e-13
-2.1713e-12 -3.08332e-12 1.19892e-11
2.83575e-11 3.93677e-11 -9.93029e-12
1.09261e-12 1.30746e-11 1.06915e-12
6.44981e-12 -1.79657e-11 -1.02538e-10
8.80642e-12 5.30189e-11 -7.69725e-11
7.39336e-11 -2.35273e-12 9.87545e-13
1.82227e-12 -1.74954e-11 1.98422e-12
8.27918e-12 -1.73844e-11 -3.12103e-12
3.44449e-11 5.43031e-11 -6.34851e-12
-1.15296e-13 9.56823e-13 -4.54555e-13
4.44619e-11 -7.26425e-11 2.57491e-11
7.22484e-12 -8.74638e-12 1.12877e-12
-1.46967e-10 -5.73648e-11 4.9441e-11
4.72554e-11 -1.66889e-13 1.39961e-12
-1.00705e-10 -1.93256e-10 -1.1788e-11
-4.97307e-11 -1.02355e-10 5.22969e-11
4.52759e-11 5.43066e-11 4.61344e-11
1.48893e-10 1.15003e-11 -1.76506e-11
3.12077e-11 1.85054e-11 -9.5958e-12
4.70516e-11 -1.96503e-11 -1.44146e-10
1.91797e-11 3.76568e-11 2.82398e-11
-1.85434e-13 7.53293e-13 -3.57871e-13
-4.69482e-12 -1.34967e-11 1.89838e-11
3.05767e-12 4.00597e-11 -3.24207e-11
1.18684e-13 -1.86802e-11 9.59709e-12
1.63676e-11 1.52519e-10 -6.58138e-11
-1.04892e-10 -4.60969e-11 -2.17164e-11