# vtk DataFile Version 3.0
LIGGGHTS particles timestep 21600000
ASCII
DATASET POLYDATA
POINTS 287 float
0.138778 0.0165279 0.00789756
0.139263 0.0176737 0.00716376
0.132476 0.0155785 0.00853381
0.139113 0.0178029 0.00712869
0.13869 0.0164328 0.00798669
0.144657 0.0164796 0.00836596
0.138854 0.0170273 0.00736214
0.13858 0.0160836 0.00832614
0.144952 0.0175286 0.0076448
0.1388 0.0168334 0.00758425
0.139295 0.0178874 0.00712083
0.132674 0.0162536 0.00782424
0.138667 0.016363 0.00805443
0.132393 0.0154334 0.00888799
0.138987 0.0172265 0.00724231
0.132372 0.0153963 0.00897842
0.138782 0.0167692 0.00765876
0.144821 0.017047 0.00797754
0.138644 0.0162931 0.00812236
0.138786 0.0164571 0.00796789
0.138894 0.0172031 0.00727218
0.132865 0.0167552 0.00767782
0.14489 0.0172878 0.00781231
0.138836 0.0169585 0.00743228
0.144753 0.0168061 0.00814277
0.132751 0.0166285 0.00770958
0.139091 0.0177071 0.00714754
0.138623 0.0162293 0.00819632
0.139144 0.0175467 0.00718387
0.138874 0.017116 0.00732024
0.138954 0.0171245 0.00726186
0.144681 0.0165623 0.00830949
0.138764 0.0166989 0.00772736
0.138944 0.0170447 0.00732128
0.144987 0.0176892 0.00753119
0.138919 0.0169166 0.00747267
0.139083 0.0172586 0.00724074
0.144913 0.017368 0.0077573
0.138738 0.0166193 0.00789596
0.138913 0.0172932 0.00723347
0.139103 0.0173546 0.00722179
0.144706 0.0166443 0.00825349
0.144798 0.0169667 0.00803261
0.138745 0.0166285 0.00779597
0.138953 0.0174834 0.00718681
0.144775 0.0168864 0.00808769
0.139016 0.0177711 0.00713015
0.138995 0.0176753 0.00714899
0.132654 0.0161724 0.00787902
0.144844 0.0171272 0.00792246
0.138764 0.0163871 0.00803598
0.132435 0.0155076 0.00870712
0.138936 0.0169804 0.00739741
0.14473 0.0167258 0.00819786
0.139021 0.0169413 0.00743241
0.139029 0.0170052 0.00735591
0.13871 0.0165294 0.00797106
0.139123 0.0174507 0.00720282
0.139048 0.0175155 0.00718521
0.144867 0.0172075 0.00786738
0.132788 0.0163798 0.00779272
0.132729 0.0161225 0.00792942
0.139285 0.0177694 0.00714498
0.139188 0.017738 0.00714631
0.138865 0.0167302 0.00770091
0.144936 0.0174483 0.00770229
0.132414 0.0154705 0.00879752
0.139165 0.0176425 0.00716503
0.138818 0.016896 0.00750823
0.139008 0.0173233 0.00722339
0.132987 0.0173107 0.00750845
0.139107 0.0181719 0.00705317
0.132495 0.0156291 0.0084498
0.132693 0.0163491 0.00780167
0.139056 0.0178332 0.0072057
0.132634 0.0161012 0.00795161
0.132771 0.0167223 0.00768087
0.132824 0.0161401 0.0078963
0.144968 0.0176089 0.00758757
0.13261 0.0157074 0.00834566
0.139069 0.0176113 0.00716638
0.139005 0.0168785 0.00750846
0.13905 0.0179312 0.00718707
0.139227 0.0180086 0.00716692
0.13924 0.0175781 0.00718249
0.132713 0.0164408 0.00776701
0.139263 0.0180524 0.00708472
0.139168 0.0180217 0.007086
0.139326 0.0183453 0.00702691
0.139242 0.0181228 0.00715233
0.13919 0.0181175 0.00706714
0.132595 0.0159634 0.00809213
0.139081 0.0180311 0.00716239
0.132768 0.016286 0.00782135
0.139198 0.0173862 0.0072203
0.13271 0.0160503 0.00799592
0.0643568 0.0187248 0.00531097
0.24257 0.0191927 0.00520306
0.133067 0.0172555 0.00753263
0.132555 0.0158263 0.00823209
0.133144 0.0171967 0.00755773
0.132515 0.0156907 0.00837356
0.138901 0.0168569 0.00755072
0.138973 0.0175795 0.00716782
0.139197 0.018569 0.00698131
0.139248 0.0184065 0.00701288
0.132615 0.0160324 0.0080217
0.1334 0.0181379 0.0072175
0.133004 0.0169743 0.00761828
0.139028 0.0174194 0.0072042
0.138882 0.0167975 0.00762898
0.138742 0.0163173 0.00810389
0.132458 0.0155694 0.00863182
0.139036 0.0170693 0.00727943
0.138601 0.0161536 0.00825805
0.138558 0.0160136 0.00839423
0.139175 0.0184729 0.00699848
0.13265 0.0158445 0.00820568
0.13906 0.0179629 0.00709244
0.138718 0.0162475 0.00817165
0.138933 0.0173873 0.00720582
0.132575 0.0158949 0.0081621
0.139038 0.0178671 0.00711127
0.139261 0.0182277 0.00713445
0.132886 0.0168487 0.00764937
0.132749 0.016202 0.00787211
0.139139 0.0178903 0.00716919
0.138933 0.0166255 0.00780945
0.139061 0.0171656 0.00727074
0.138697 0.0161775 0.00823972
0.132589 0.0156389 0.00841564
0.139129 0.018268 0.00703511
0.138847 0.0166603 0.00777021
0.139281 0.0185163 0.00699316
0.13263 0.015776 0.00827567
0.133025 0.0170678 0.00758982
0.132535 0.0157578 0.00830208
0.132982 0.016881 0.00764663
0.132843 0.0162249 0.00784703
0.132573 0.0156019 0.00850702
0.132833 0.0170038 0.0075951
0.139233 0.0183094 0.00703114
0.132882 0.0164125 0.00778971
0.133253 0.0173343 0.00751593
0.13269 0.0159816 0.00806572
0.132951 0.0171293 0.00756404
0.133005 0.0174091 0.00747815
0.13293 0.0170358 0.00759251
0.0219312 0.0187687 0.00551176
0.133193 0.0178163 0.00734111
0.139211 0.0178337 0.00712753
0.132898 0.0172878 0.00754695
0.132855 0.0170983 0.00757029
0.1331 0.0177579 0.00736509
0.133348 0.0176108 0.00741199
0.138879 0.0164855 0.00794495
0.132863 0.0163187 0.00781839
0.133159 0.0172928 0.007528
0.133451 0.017972 0.00727681
0.133175 0.0173933 0.00749651
0.138914 0.016553 0.00788013
0.133324 0.0175189 0.0074463
0.139285 0.0181481 0.00706588
0.133096 0.0174496 0.00747236
0.126908 0.0172482 0.0071935
0.132908 0.0169424 0.00762087
0.132941 0.0174792 0.00750947
0.133425 0.0178814 0.00731071
0.133368 0.0178004 0.00734198
0.132916 0.0173551 0.00761885
0.138831 0.0165898 0.00783907
0.133084 0.0173529 0.00750258
0.139359 0.0180827 0.00708349
0.132811 0.0169098 0.0076237
0.132901 0.0172285 0.00762749
0.139177 0.0172901 0.00723926
0.139085 0.0180756 0.00707284
0.139218 0.0174823 0.00720134
0.127092 0.0176938 0.00708279
0.13915 0.0183645 0.00701785
0.1331 0.0170061 0.00761566
0.138989 0.0168155 0.00758459
0.132921 0.0166 0.00773236
0.133364 0.0177066 0.00737645
0.132351 0.0153593 0.00906887
0.126964 0.0175311 0.00717114
0.132732 0.0165347 0.00773829
0.132876 0.0171906 0.00753832
0.132846 0.0166614 0.00770652
0.133355 0.0180003 0.00726915
0.133125 0.0170989 0.00758778
0.139218 0.0186651 0.00696413
0.132826 0.0165676 0.00773522
0.133209 0.0179061 0.00738201
0.133094 0.0175647 0.00743513
0.13267 0.0159131 0.00813571
0.132975 0.0172264 0.00756097
0.132902 0.0165063 0.00776102
0.139239 0.0179146 0.00719961
0.139307 0.018244 0.00704702
0.133175 0.0175087 0.00745427
0.139156 0.0171936 0.00725829
0.139421 0.0183778 0.00702521
0.127032 0.0175722 0.00711061
0.132919 0.0173825 0.00752272
0.13895 0.0166916 0.00773651
0.132975 0.0176224 0.00740703
0.139211 0.0182134 0.00704888
0.133057 0.0175866 0.00752542
0.126963 0.0171085 0.00727958
0.138967 0.0167538 0.00766002
0.133051 0.0171605 0.00756197
0.13279 0.0168162 0.00765218
0.139206 0.0179314 0.00710687
0.133254 0.0174503 0.00747342
0.127023 0.0173753 0.00715655
0.12693 0.017343 0.0071704
0.133034 0.017482 0.00754422
0.133265 0.0180418 0.00725648
0.126888 0.017165 0.00724541
0.132806 0.016071 0.00796656
0.132942 0.0166937 0.00770377
0.139127 0.0181335 0.00714332
0.1331 0.0181091 0.00732738
0.133135 0.0183116 0.00716133
0.133093 0.0181285 0.00722959
0.126712 0.0164161 0.00771254
0.126771 0.0166658 0.0075568
0.126693 0.0163403 0.00777489
0.133057 0.0168191 0.00767254
0.132807 0.0164738 0.00776394
0.126732 0.0164993 0.00766063
0.126849 0.0169986 0.0073492
0.133109 0.017676 0.00749324
0.133301 0.0181527 0.00721485
0.126989 0.0176272 0.00718224
0.133016 0.0175043 0.00744832
0.139346 0.0184417 0.00700856
0.127017 0.017758 0.00706703
0.127004 0.0172768 0.00717939
0.126829 0.0169154 0.0074011
0.132552 0.0155648 0.00859754
0.133167 0.0176366 0.00740764
0.133018 0.0177923 0.00744426
0.133279 0.0177991 0.0073879
0.127039 0.0178531 0.00704502
0.132962 0.0167873 0.00767522
0.133207 0.0181852 0.00720562
0.133071 0.018037 0.00726372
0.12681 0.0168322 0.007453
0.133129 0.0177785 0.00745861
0.126946 0.0174372 0.00714129
0.133236 0.017234 0.00755303
0.132998 0.0177212 0.00737699
0.133171 0.0175977 0.0074997
0.133005 0.0176954 0.00747334
0.1394 0.0182802 0.00704448
0.133248 0.0175804 0.00742592
0.127082 0.0180433 0.00700099
0.13302 0.0178143 0.00734672
0.12706 0.0179482 0.00702301
0.133069 0.0176562 0.00740345
0.132963 0.0175755 0.00749449
0.133136 0.0179739 0.00737715
0.133192 0.0177328 0.00739608
0.126869 0.0170818 0.0072973
0.127114 0.017789 0.00706077
0.133036 0.0167255 0.00770108
0.126983 0.0171918 0.00722763
0.126751 0.0165826 0.00760872
0.133156 0.017986 0.00727998
0.133129 0.0178892 0.00731622
0.133093 0.017853 0.00740234
0.133243 0.0179399 0.00729442
0.13318 0.0180948 0.00726342
0.133016 0.0166319 0.00772966
0.133078 0.0169126 0.00764413
0.133326 0.0178857 0.00731193
0.132788 0.0160022 0.00803667
0.133271 0.0176718 0.00739181
0.133051 0.0179517 0.00731188
0.127039 0.0174751 0.00713339
0.133114 0.0182201 0.00719546
0.139132 0.0170957 0.00727745
0.12679 0.016749 0.0075049
0.126995 0.0176629 0.00708904
0.13938 0.0181786 0.00706464

VERTICES 287 574
1 0
1 1
1 2
1 3
1 4
1 5
1 6
1 7
1 8
1 9
1 10
1 11
1 12
1 13
1 14
1 15
1 16
1 17
1 18
1 19
1 20
1 21
1 22
1 23
1 24
1 25
1 26
1 27
1 28
1 29
1 30
1 31
1 32
1 33
1 34
1 35
1 36
1 37
1 38
1 39
1 40
1 41
1 42
1 43
1 44
1 45
1 46
1 47
1 48
1 49
1 50
1 51
1 52
1 53
1 54
1 55
1 56
1 57
1 58
1 59
1 60
1 61
1 62
1 63
1 64
1 65
1 66
1 67
1 68
1 69
1 70
1 71
1 72
1 73
1 74
1 75
1 76
1 77
1 78
1 79
1 80
1 81
1 82
1 83
1 84
1 85
1 86
1 87
1 88
1 89
1 90
1 91
1 92
1 93
1 94
1 95
1 96
1 97
1 98
1 99
1 100
1 101
1 102
1 103
1 104
1 105
1 106
1 107
1 108
1 109
1 110
1 111
1 112
1 113
1 114
1 115
1 116
1 117
1 118
1 119
1 120
1 121
1 122
1 123
1 124
1 125
1 126
1 127
1 128
1 129
1 130
1 131
1 132
1 133
1 134
1 135
1 136
1 137
1 138
1 139
1 140
1 141
1 142
1 143
1 144
1 145
1 146
1 147
1 148
1 149
1 150
1 151
1 152
1 153
1 154
1 155
1 156
1 157
1 158
1 159
1 160
1 161
1 162
1 163
1 164
1 165
1 166
1 167
1 168
1 169
1 170
1 171
1 172
1 173
1 174
1 175
1 176
1 177
1 178
1 179
1 180
1 181
1 182
1 183
1 184
1 185
1 186
1 187
1 188
1 189
1 190
1 191
1 192
1 193
1 194
1 195
1 196
1 197
1 198
1 199
1 200
1 201
1 202
1 203
1 204
1 205
1 206
1 207
1 208
1 209
1 210
1 211
1 212
1 213
1 214
1 215
1 216
1 217
1 218
1 219
1 220
1 221
1 222
1 223
1 224
1 225
1 226
1 227
1 228
1 229
1 230
1 231
1 232
1 233
1 234
1 235
1 236
1 237
1 238
1 239
1 240
1 241
1 242
1 243
1 244
1 245
1 246
1 247
1 248
1 249
1 250
1 251
1 252
1 253
1 254
1 255
1 256
1 257
1 258
1 259
1 260
1 261
1 262
1 263
1 264
1 265
1 266
1 267
1 268
1 269
1 270
1 271
1 272
1 273
1 274
1 275
1 276
1 277
1 278
1 279
1 280
1 281
1 282
1 283
1 284
1 285
1 286

POINT_DATA 287
SCALARS id int 1
LOOKUP_TABLE default
1
2
3
4
5
6
7
8
9
10
11
12
13
14
15
16
17
18
19
21
22
23
24
25
26
27
28
29
30
31
32
33
34
35
36
37
38
39
41
42
44
45
46
47
48
49
50
51
52
53
54
55
56
57
59
60
61
62
63
64
65
66
67
68
69
70
71
72
73
74
76
77
78
79
80
81
82
83
84
85
86
87
88
89
90
91
92
93
94
95
96
97
98
99
100
101
102
103
104
105
106
107
108
109
110
111
112
113
114
115
116
117
118
119
120
121
122
123
124
125
126
127
128
129
130
131
132
133
134
135
136
137
138
140
141
142
143
144
146
147
148
149
150
151
153
154
155
156
157
158
159
160
162
164
165
166
167
168
169
170
171
172
173
174
175
176
177
178
179
181
182
183
184
185
186
187
188
189
190
191
192
193
194
195
196
197
198
199
200
201
202
203
204
205
206
207
208
209
210
211
212
213
214
215
216
217
218
219
220
221
222
223
224
225
226
227
228
229
230
231
232
233
234
235
236
237
239
240
241
242
243
244
246
247
248
249
250
251
252
253
254
255
256
257
258
259
260
261
262
263
264
265
266
267
268
269
270
271
272
273
274
275
276
277
278
279
280
281
282
283
284
285
286
287
288
289
290
291
292
293
294
295
296
297
298
299
300

SCALARS type int 1
LOOKUP_TABLE default
1
1
1
1
1
1
1
1
1
1
1
1
1
1
1
1
1
1
1
1
1
1
1
1
1
1
1
1
1
1
1
1
1
1
1
1
1
1
1
1
1
1
1
1
1
1
1
1
1
1
1
1
1
1
1
1
1
1
1
1
1
1
1
1
1
1
1
1
1
1
1
1
1
1
1
1
1
1
1
1
1
1
1
1
1
1
1
1
1
1
1
1
1
1
1
1
1
1
1
1
1
1
1
1
1
1
1
1
1
1
1
1
1
1
1
1
1
1
1
1
1
1
1
1
1
1
1
1
1
1
1
1
1
1
1
1
1
1
1
1
1
1
1
1
1
1
1
1
1
1
1
1
1
1
1
1
1
1
1
1
1
1
1
1
1
1
1
1
1
1
1
1
1
1
1
1
1
1
1
1
1
1
1
1
1
1
1
1
1
1
1
1
1
1
1
1
1
1
1
1
1
1
1
1
1
1
1
1
1
1
1
1
1
1
1
1
1
1
1
1
1
1
1
1
1
1
1
1
1
1
1
1
1
1
1
1
1
1
1
1
1
1
1
1
1
1
1
1
1
1
1
1
1
1
1
1
1
1
1
1
1
1
1
1
1
1
1
1
1
1
1
1
1
1
1
1
1
1
1
1
1
1
1
1
1
1
1

SCALARS radius float 1
LOOKUP_TABLE default
5e-05
5e-05
5e-05
5e-05
5e-05
5e-05
5e-05
5e-05
5e-05
5e-05
5e-05
5e-05
5e-05
5e-05
5e-05
5e-05
5e-05
5e-05
5e-05
5e-05
5e-05
5e-05
5e-05
5e-05
5e-05
5e-05
5e-05
5e-05
5e-05
5e-05
5e-05
5e-05
5e-05
5e-05
5e-05
5e-05
5e-05
5e-05
5e-05
5e-05
5e-05
5e-05
5e-05
5e-05
5e-05
5e-05
5e-05
5e-05
5e-05
5e-05
5e-05
5e-05
5e-05
5e-05
5e-05
5e-05
5e-05
5e-05
5e-05
5e-05
5e-05
5e-05
5e-05
5e-05
5e-05
5e-05
5e-05
5e-05
5e-05
5e-05
5e-05
5e-05
5e-05
5e-05
5e-05
5e-05
5e-05
5e-05
5e-05
5e-05
5e-05
5e-05
5e-05
5e-05
5e-05
5e-05
5e-05
5e-05
5e-05
5e-05
5e-05
5e-05
5e-05
5e-05
5e-05
5e-05
5e-05
5e-05
5e-05
5e-05
5e-05
5e-05
5e-05
5e-05
5e-05
5e-05
5e-05
5e-05
5e-05
5e-05
5e-05
5e-05
5e-05
5e-05
5e-05
5e-05
5e-05
5e-05
5e-05
5e-05
5e-05
5e-05
5e-05
5e-05
5e-05
5e-05
5e-05
5e-05
5e-05
5e-05
5e-05
5e-05
5e-05
5e-05
5e-05
5e-05
5e-05
5e-05
5e-05
5e-05
5e-05
5e-05
5e-05
5e-05
5e-05
5e-05
5e-05
5e-05
5e-05
5e-05
5e-05
5e-05
5e-05
5e-05
5e-05
5e-05
5e-05
5e-05
5e-05
5e-05
5e-05
5e-05
5e-05
5e-05
5e-05
5e-05
5e-05
5e-05
5e-05
5e-05
5e-05
5e-05
5e-05
5e-05
5e-05
5e-05
5e-05
5e-05
5e-05
5e-05
5e-05
5e-05
5e-05
5e-05
5e-05
5e-05
5e-05
5e-05
5e-05
5e-05
5e-05
5e-05
5e-05
5e-05
5e-05
5e-05
5e-05
5e-05
5e-05
5e-05
5e-05
5e-05
5e-05
5e-05
5e-05
5e-05
5e-05
5e-05
5e-05
5e-05
5e-05
5e-05
5e-05
5e-05
5e-05
5e-05
5e-05
5e-05
5e-05
5e-05
5e-05
5e-05
5e-05
5e-05
5e-05
5e-05
5e-05
5e-05
5e-05
5e-05
5e-05
5e-05
5e-05
5e-05
5e-05
5e-05
5e-05
5e-05
5e-05
5e-05
5e-05
5e-05
5e-05
5e-05
5e-05
5e-05
5e-05
5e-05
5e-05
5e-05
5e-05
5e-05
5e-05
5e-05
5e-05
5e-05
5e-05
5e-05
5e-05
5e-05
5e-05
5e-05
5e-05
5e-05
5e-05
5e-05
5e-05
5e-05
5e-05
5e-05
5e-05
5e-05
5e-05
5e-05
5e-05
5e-05
5e-05
5e-05
5e-05
5e-05
5e-05
5e-05
5e-05
5e-05
5e-05
5e-05
5e-05

SCALARS mass float 1
LOOKUP_TABLE default
1.46608e-10
1.46608e-10
1.46608e-10
1.46608e-10
1.46608e-10
1.46608e-10
1.46608e-10
1.46608e-10
1.46608e-10
1.46608e-10
1.46608e-10
1.46608e-10
1.46608e-10
1.46608e-10
1.46608e-10
1.46608e-10
1.46608e-10
1.46608e-10
1.46608e-10
1.46608e-10
1.46608e-10
1.46608e-10
1.46608e-10
1.46608e-10
1.46608e-10
1.46608e-10
1.46608e-10
1.46608e-10
1.46608e-10
1.46608e-10
1.46608e-10
1.46608e-10
1.46608e-10
1.46608e-10
1.46608e-10
1.46608e-10
1.46608e-10
1.46608e-10
1.46608e-10
1.46608e-10
1.46608e-10
1.46608e-10
1.46608e-10
1.46608e-10
1.46608e-10
1.46608e-10
1.46608e-10
1.46608e-10
1.46608e-10
1.46608e-10
1.46608e-10
1.46608e-10
1.46608e-10
1.46608e-10
1.46608e-10
1.46608e-10
1.46608e-10
1.46608e-10
1.46608e-10
1.46608e-10
1.46608e-10
1.46608e-10
1.46608e-10
1.46608e-10
1.46608e-10
1.46608e-10
1.46608e-10
1.46608e-10
1.46608e-10
1.46608e-10
1.46608e-10
1.46608e-10
1.46608e-10
1.46608e-10
1.46608e-10
1.46608e-10
1.46608e-10
1.46608e-10
1.46608e-10
1.46608e-10
1.46608e-10
1.46608e-10
1.46608e-10
1.46608e-10
1.46608e-10
1.46608e-10
1.46608e-10
1.46608e-10
1.46608e-10
1.46608e-10
1.46608e-10
1.46608e-10
1.46608e-10
1.46608e-10
1.46608e-10
1.46608e-10
1.46608e-10
1.46608e-10
1.46608e-10
1.46608e-10
1.46608e-10
1.46608e-10
1.46608e-10
1.46608e-10
1.46608e-10
1.46608e-10
1.46608e-10
1.46608e-10
1.46608e-10
1.46608e-10
1.46608e-10
1.46608e-10
1.46608e-10
1.46608e-10
1.46608e-10
1.46608e-10
1.46608e-10
1.46608e-10
1.46608e-10
1.46608e-10
1.46608e-10
1.46608e-10
1.46608e-10
1.46608e-10
1.46608e-10
1.46608e-10
1.46608e-10
1.46608e-10
1.46608e-10
1.46608e-10
1.46608e-10
1.46608e-10
1.46608e-10
1.46608e-10
1.46608e-10
1.46608e-10
1.46608e-10
1.46608e-10
1.46608e-10
1.46608e-10
1.46608e-10
1.46608e-10
1.46608e-10
1.46608e-10
1.46608e-10
1.46608e-10
1.46608e-10
1.46608e-10
1.46608e-10
1.46608e-10
1.46608e-10
1.46608e-10
1.46608e-10
1.46608e-10
1.46608e-10
1.46608e-10
1.46608e-10
1.46608e-10
1.46608e-10
1.46608e-10
1.46608e-10
1.46608e-10
1.46608e-10
1.46608e-10
1.46608e-10
1.46608e-10
1.46608e-10
1.46608e-10
1.46608e-10
1.46608e-10
1.46608e-10
1.46608e-10
1.46608e-10
1.46608e-10
1.46608e-10
1.46608e-10
1.46608e-10
1.46608e-10
1.46608e-10
1.46608e-10
1.46608e-10
1.46608e-10
1.46608e-10
1.46608e-10
1.46608e-10
1.46608e-10
1.46608e-10
1.46608e-10
1.46608e-10
1.46608e-10
1.46608e-10
1.46608e-10
1.46608e-10
1.46608e-10
1.46608e-10
1.46608e-10
1.46608e-10
1.46608e-10
1.46608e-10
1.46608e-10
1.46608e-10
1.46608e-10
1.46608e-10
1.46608e-10
1.46608e-10
1.46608e-10
1.46608e-10
1.46608e-10
1.46608e-10
1.46608e-10
1.46608e-10
1.46608e-10
1.46608e-10
1.46608e-10
1.46608e-10
1.46608e-10
1.46608e-10
1.46608e-10
1.46608e-10
1.46608e-10
1.46608e-10
1.46608e-10
1.46608e-10
1.46608e-10
1.46608e-10
1.46608e-10
1.46608e-10
1.46608e-10
1.46608e-10
1.46608e-10
1.46608e-10
1.46608e-10
1.46608e-10
1.46608e-10
1.46608e-10
1.46608e-10
1.46608e-10
1.46608e-10
1.46608e-10
1.46608e-10
1.46608e-10
1.46608e-10
1.46608e-10
1.46608e-10
1.46608e-10
1.46608e-10
1.46608e-10
1.46608e-10
1.46608e-10
1.46608e-10
1.46608e-10
1.46608e-10
1.46608e-10
1.46608e-10
1.46608e-10
1.46608e-10
1.46608e-10
1.46608e-10
1.46608e-10
1.46608e-10
1.46608e-10
1.46608e-10
1.46608e-10
1.46608e-10
1.46608e-10
1.46608e-10
1.46608e-10
1.46608e-10
1.46608e-10
1.46608e-10
1.46608e-10
1.46608e-10
1.46608e-10
1.46608e-10
1.46608e-10
1.46608e-10
1.46608e-10
1.46608e-10
1.46608e-10
1.46608e-10
1.46608e-10
1.46608e-10
1.46608e-10
1.46608e-10
1.46608e-10
1.46608e-10
1.46608e-10

VECTORS velocity float
0.00604868 -0.000419202 0.000780391
0.00570712 -0.000908042 0.000498437
0.00618284 0.000629812 0.000560766
0.00588344 -0.000740953 0.000470386
0.00573051 -0.000414911 0.000729354
0.00593292 0.000761354 0.00141753
0.00548382 -0.000633792 0.000272509
0.00565239 -0.000382349 0.000691707
0.00474865 0.000240283 0.00142353
0.00536491 -0.000705045 0.000209459
0.00583522 -0.000798436 0.000481161
0.00565851 0.000157351 0.000393144
0.00494358 -0.000315031 0.000593981
0.00604364 0.000622149 0.000527413
0.00546639 -0.000580605 0.000427838
0.00601097 0.000613292 0.000527993
0.00533516 -0.000273328 0.000565492
0.00576048 0.000279017 0.00173693
0.00557248 -0.000414205 0.000722267
0.00598635 -0.000441683 0.000766538
0.0055263 -0.000491625 0.000461488
0.00547949 0.000104163 0.000404894
0.00585817 0.000275504 0.0017722
0.00543825 -0.000685787 0.000225215
0.00569137 0.000281208 0.00171132
0.00544155 9.7296e-05 0.000404358
0.00579279 -0.000713526 0.000458348
0.00557633 -0.000455396 0.00065935
0.00569725 -0.000748506 0.000464093
0.00549644 -0.000566934 0.00040776
0.00550991 -0.000514708 0.000415955
0.00593597 0.000689 0.00147521
0.00533487 -0.000262063 0.000555827
0.00546943 -0.00061118 0.00030072
0.00557832 0.000257866 0.00169129
0.00543669 -0.000711843 0.000241047
0.00545948 -0.000686504 0.00042634
0.00587897 0.000275046 0.00178023
0.00607866 -0.000391658 0.000937604
0.00552343 -0.000480798 0.000440512
0.00559626 -0.000720075 0.000450208
0.00593999 0.000620589 0.00153012
0.00573701 0.000280192 0.00172818
0.00533966 -0.000248031 0.000542868
0.00571488 -0.000503061 0.000413701
0.00571442 0.000280691 0.00171953
0.00598929 -0.000503079 0.000427175
0.00596941 -0.000515314 0.000429632
0.00563993 -0.000239069 -0.000246339
0.0057836 0.00027793 0.00174485
0.00573518 -0.000410172 0.000722577
0.0061276 0.000621582 0.000542787
0.00545546 -0.000678621 0.000257622
0.00594497 0.000555991 0.00158238
0.00542457 -0.00072226 0.00025473
0.00545701 -0.000724361 0.000235115
0.00623298 -0.000469348 0.000950939
0.00567601 -0.000739541 0.000460408
0.00573179 -0.000662612 0.000449215
0.00580638 0.000277283 0.00175335
0.00556598 0.000135737 0.000409904
0.0057793 -0.000199742 -2.72124e-06
0.00575915 -0.000884862 0.000495907
0.00582984 -0.000765481 0.000470985
0.00533017 -0.000367102 0.000496779
0.00590031 0.000273925 0.00178829
0.00609625 0.000626815 0.000532831
0.00574431 -0.000757971 0.000466585
0.00540427 -0.000686026 0.000224288
0.00556365 -0.000600951 0.000428677
0.00571074 0.000194208 0.000391047
0.00597067 -0.000720999 0.000474868
0.00565178 4.00461e-05 8.80112e-05
0.00561357 6.41296e-05 0.000457045
0.00541918 -0.000749823 0.00011967
0.00564842 -3.98957e-05 -0.000446508
0.00542463 7.61908e-05 0.000408254
0.00579208 -0.000250798 -0.000316362
0.00551495 0.000258079 0.0016697
0.00555371 -0.000255233 -0.000226507
0.00576227 -0.000694881 0.000455168
0.00538158 -0.000717301 0.000259854
0.00583299 -0.000707674 0.000269602
0.0059356 -0.000784271 0.000484314
0.0057219 -0.000777154 0.000470354
0.00544662 9.83229e-05 0.000404366
0.00592629 -0.000776557 0.000480417
0.00589655 -0.000733961 0.000470774
0.00597111 -0.000767224 0.000484935
0.00595552 -0.000759829 0.000477496
0.00595699 -0.000741132 0.0004763
0.00578639 -0.000309833 -0.000183659
0.00616664 -6.82698e-06 -0.000275179
0.00567663 0.000113642 0.000434973
0.00563183 -0.000796567 0.000468036
0.00578706 -0.000322306 -0.000151243
4.06905e-15 1.0563e-14 8.29619e-14
1.19201e-22 4.01299e-22 8.29106e-22
0.00571439 0.000194314 0.000393764
0.00574274 -0.000317288 -0.000195598
0.00570504 0.000190026 0.000395639
0.00556799 -0.000229323 -0.000155807
0.00540799 -0.000630309 0.000305478
0.00592675 -0.000541909 0.000430696
0.00598899 -0.000799685 0.000298322
0.00598891 -0.000776696 0.000276171
0.00560619 -3.52072e-05 -0.000455852
0.00663084 0.00224752 -0.00101048
0.00567323 0.000202707 0.000388134
0.00563139 -0.000616859 0.00043736
0.00536344 -0.000486628 0.000400828
0.00556234 -0.000386879 0.00068979
0.00619667 0.000618161 0.00056406
0.00546032 -0.000713195 0.000231071
0.00562549 -0.000397408 0.000704223
0.00567099 -0.000375831 0.000688499
0.00598783 -0.00077147 0.000296981
0.00574649 -0.000306065 -0.000194668
0.00595029 -0.000684282 0.000456739
0.0055465 -0.000382493 0.000685667
0.00557759 -0.000482181 0.000405645
0.00575351 -0.000314773 -0.00018826
0.00594365 -0.00069346 0.000462687
0.00585408 -0.000829573 0.000440255
0.005609 8.53478e-05 0.000421166
0.00574904 9.92591e-07 0.000288732
0.00585756 -0.00074579 0.000485008
0.0053557 -0.000315567 0.000609791
0.00543285 -0.000700646 0.00032167
0.00559615 -0.000371677 0.00068191
0.00548498 -0.000575179 -0.000540172
0.00595287 -0.000803977 0.000292773
0.00537466 -0.000282409 0.000580587
0.00597226 -0.0008139 0.000300687
0.00567961 -0.000284307 -0.000214473
0.00570432 0.000193477 0.000393558
0.0057033 -0.000304622 -0.000184329
0.005656 0.000206285 0.000385985
0.00571081 0.000192567 0.00040107
0.00578291 0.000701682 0.000220966
0.00567493 0.000209277 0.000385977
0.00595992 -0.00075486 0.000371004
0.00554035 0.000202197 0.000377271
0.00575099 -4.62724e-05 -0.000147412
0.00579987 -0.000336204 -0.000185144
0.00571225 0.000199017 0.000392731
0.00570117 0.000183997 0.000392889
0.00568335 0.000202695 0.000389127
-3.83624e-14 8.16449e-14 2.9589e-13
0.00584555 -8.89088e-05 -0.000133645
0.0058629 -0.000758019 0.0004736
0.00571345 0.000192477 0.00039213
0.00569606 0.000208183 0.000389811
0.00579253 -0.000133061 -0.000113587
0.00587285 -9.84321e-05 -0.000130869
0.00541875 0.000554544 -0.000247045
0.00559622 0.000198462 0.000382771
0.00571563 0.00019996 0.000394415
0.00660458 0.00132537 -0.000671015
0.00575613 -2.74765e-05 -0.000157361
0.00633132 0.000333393 2.35274e-05
0.00593038 -0.000108412 -0.000133507
0.00594525 -0.000735906 0.000472368
0.00570612 0.000177813 0.000407112
0.00568392 -8.86488e-05 -7.30592e-06
0.00566089 0.000209572 0.000385114
0.00569824 0.000185757 0.000389266
0.00601259 0.0014758 -0.00071021
0.00599109 1.69392e-05 -0.000175795
0.00570824 0.000189106 0.000389522
0.00574947 -0.000305614 0.000638548
0.00569939 0.000183722 0.000394963
0.00591931 -0.000759318 0.000476793
0.00564132 0.000119881 0.000412145
0.00569508 0.000220866 0.000387187
0.00551853 -0.000818474 0.000465955
0.00600102 -0.000873594 -0.00190703
0.00567565 -0.000789758 0.000468901
0.00618341 -0.000189289 0.000107882
0.00597676 -0.000756532 0.000280983
0.00568687 0.000168148 0.000400154
0.00535371 -0.000708561 0.00026067
0.00544443 0.000238045 0.000358842
0.00579701 2.58064e-05 -0.000172154
0.00598847 0.000616251 0.000521268
0.00608781 -0.000161414 9.54657e-05
0.00542357 9.75176e-05 0.000404694
0.00571449 0.000197099 0.000392468
0.00543638 9.00894e-05 0.000405082
0.00643281 0.000810566 -0.000477103
0.00568761 0.00019439 0.000392403
0.00597024 -0.000895983 0.000315125
0.00542496 7.73645e-05 0.00040915
0.00593247 -8.77482e-05 -0.000181391
0.00590498 -4.1018e-05 0.000482272
0.00578616 -0.00031903 -0.000191039
0.00570188 0.000199617 0.000387304
0.00549188 0.000218138 0.000367857
0.00582594 -0.000771555 0.000469357
0.00589019 -0.00079314 0.000473868
0.00594375 -0.000161639 -7.15503e-05
0.00545418 -0.000688714 0.000434631
0.00597646 -0.000760457 0.000481397
0.00611086 -0.000196569 0.000104706
0.00570507 0.000188753 0.000389309
0.00528929 -0.000692485 0.000249137
0.00581611 0.000204589 0.000399558
0.00595393 -0.000755105 0.000375867
0.00572205 0.000176912 0.000331993
0.0056707 -9.07966e-05 -1.20186e-05
0.00531517 -0.000696527 0.000253932
0.00569476 0.000192156 0.000392952
0.00542722 0.000160775 0.00038044
0.00585932 -0.000757003 0.000473313
0.00590532 -0.000217413 -8.01525e-05
0.00563952 -7.02946e-05 7.29764e-05
0.00561495 -5.21797e-05 6.838e-05
0.00569406 0.0001907 0.000391907
0.00618262 0.000336505 -0.000299848
0.00566776 -9.03638e-05 -1.23583e-05
0.00581241 -0.000287332 -0.000209646
0.00551576 0.000230306 0.000366693
0.00594311 -0.000745728 0.000467564
0.00590834 -0.000151566 -0.000157259
0.00595508 -0.000115715 -0.0001255
0.00591341 -8.89559e-05 -0.000136004
0.00554281 -7.50835e-05 -6.75819e-06
0.00557516 -7.03901e-05 -2.36173e-05
0.00554106 0.000222883 0.000317028
0.00560966 0.000202879 0.000382749
0.00513843 0.00091275 0.000118024
0.00555154 -8.4626e-05 -1.36748e-05
0.00565164 -8.47435e-05 -1.47378e-05
0.00743873 0.000819577 -0.000564627
0.00647272 0.00127263 -0.000646577
0.00615608 -0.000166138 0.000101905
0.00569737 0.000190002 0.00038654
0.00596059 -0.00082552 0.000303611
0.00618826 -0.000171536 0.000103596
0.00561027 -5.35928e-05 6.92137e-05
0.00564278 -8.02802e-05 -1.79322e-05
0.00613123 0.000723917 0.00031013
0.00591461 -0.000109701 -0.000127496
0.00595708 0.000313902 -2.82625e-05
0.00592617 -7.48706e-05 -0.000311275
0.00619303 -0.000182949 0.000106215
0.00562497 0.000212349 0.000380604
0.00612746 0.000371662 -0.000310705
0.00587974 -8.91644e-05 -0.000132391
0.005618 -7.65194e-05 -1.98503e-05
0.00583592 -9.80051e-05 -0.000135022
0.00563741 -6.25679e-05 7.09144e-05
0.00575923 0.000124614 0.000114973
0.00575369 -0.000161844 0.000520452
0.00602584 -0.000142181 -0.000141297
0.00597672 -0.000250649 0.000481438
0.0059521 -0.000789109 0.000485145
0.00592227 -0.000103943 -0.000122515
0.00620852 -0.000192684 0.000108855
0.00579765 -0.000125298 -0.000122254
0.00619387 -0.000191939 0.000108769
0.00588984 -9.68996e-05 0.000319343
0.00569223 0.000188669 0.000386424
0.00593656 -9.58003e-05 -0.000138195
0.00585883 -9.42388e-05 -0.000124
0.00565637 -9.00046e-05 -1.36332e-05
0.00618977 -0.000191206 0.000108411
0.00552127 0.000216543 0.000371736
0.00567044 -9.66949e-05 -1.56632e-07
0.00556473 -7.68306e-05 -1.97919e-05
0.00590711 -5.90009e-05 -0.000143275
0.00583939 -8.83107e-05 -0.000131863
0.00581041 -0.000119526 -0.000161707
0.00592896 -2.65299e-05 -0.000158359
0.00592788 -8.06103e-05 -0.000129413
0.00545467 0.000222438 0.000364146
0.00566293 0.000192579 0.00039048
0.00595448 5.50286e-06 -0.000170305
0.00585317 -0.000297267 -0.000228198
0.0058636 -9.43934e-05 -0.000127539
0.00583563 -8.144e-05 -0.00012854
0.00570963 -0.000244219 0.000113031
0.0059345 -9.05718e-05 -0.000133372
0.00546867 -0.000663786 0.000438252
0.0055866 -7.11972e-05 -2.28243e-05
0.00616476 -0.000172769 0.000102837
0.00594623 -0.000727747 0.000472098

VECTORS force float
-2.5678e-10 1.42963e-10 -3.01537e-10
8.88854e-11 -1.03814e-10 2.28873e-11
-5.91899e-11 4.01118e-11 -1.7419e-10
2.42272e-10 1.6735e-10 8.50448e-11
-1.08988e-10 4.68508e-11 5.94089e-11
9.28797e-13 9.35291e-13 -4.17973e-13
-4.07791e-13 4.12992e-11 -5.5609e-12
2.59263e-11 1.08865e-11 -8.42917e-12
6.39719e-12 -2.29398e-12 4.36442e-12
1.09108e-11 2.63103e-11 1.21632e-10
-2.85545e-10 1.69588e-10 -3.22085e-11
2.15076e-11 -1.45457e-10 -4.53588e-11
1.20287e-10 -1.6745e-10 1.6388e-10
-1.28413e-10 7.54635e-11 -4.14236e-11
-1.41099e-10 -2.19605e-11 -1.19051e-11
1.81709e-10 8.99411e-11 -4.43037e-12
-1.35951e-10 -7.9061e-11 7.72395e-11
1.4117e-11 -1.10765e-11 -7.44168e-12
3.81426e-10 -5.93588e-11 2.87676e-10
-3.10344e-11 8.23288e-11 -1.53453e-10
-1.74405e-12 4.17616e-10 7.59148e-11
3.84026e-10 -2.4214e-10 9.34138e-11
-3.71034e-13 3.76666e-12 -4.6792e-12
5.51741e-11 7.93818e-11 1.13243e-10
4.62754e-13 1.90859e-12 -1.42272e-12
6.23722e-12 -4.02469e-11 2.64786e-11
2.2092e-10 3.18995e-10 -4.37837e-11
-2.54505e-10 -6.96025e-10 4.77061e-10
-4.43297e-10 -7.15143e-11 -7.25985e-12
1.18996e-10 1.28941e-10 1.32511e-10
6.31988e-11 4.11163e-10 6.37708e-11
7.86866e-13 9.18272e-13 -4.52802e-13
-2.29947e-10 1.39795e-11 4.38012e-12
-2.13609e-11 -2.25097e-11 -2.53488e-10
-1.33373e-12 -6.34153e-12 3.26371e-12
-2.83328e-11 6.89433e-11 -2.20676e-10
-5.0176e-11 -1.83562e-10 1.69299e-10
-7.85129e-12 8.79504e-12 1.27749e-11
-3.71153e-11 4.19226e-10 -3.81191e-10
4.51253e-11 1.66168e-10 -1.94379e-10
1.63185e-10 -7.38812e-11 9.53033e-11
6.47379e-13 9.09707e-13 -4.92537e-13
-1.59674e-12 -5.8617e-13 1.26839e-11
-9.128e-11 7.27193e-11 -1.4231e-10
-3.40273e-10 -9.98668e-11 -2.14979e-11
-4.60623e-12 1.16505e-12 3.47519e-13
1.67014e-10 2.2122e-10 -3.75622e-11
-1.63799e-10 -8.46473e-11 1.60449e-11
-9.46289e-11 -1.34113e-10 1.97633e-10
-8.14956e-13 1.31138e-12 -5.08711e-12
-6.56299e-11 7.43192e-11 -2.38083e-11
-7.94806e-11 -7.31827e-11 -1.15882e-10
2.71549e-11 4.51862e-11 -1.97472e-10
5.09953e-13 9.0401e-13 -5.34632e-13
2.02903e-10 2.75152e-10 4.56028e-11
-2.71338e-11 1.23373e-10 -1.65514e-10
-1.19645e-10 1.25074e-10 -1.48173e-10
-1.02878e-10 -1.78142e-10 3.12049e-11
1.98454e-10 5.41178e-10 -8.10169e-11
-3.82691e-13 5.22376e-12 -1.5791e-12
9.59965e-11 -5.5505e-11 2.97353e-10
-2.10785e-10 7.96478e-11 1.51596e-10
9.96947e-11 2.02238e-10 1.00459e-10
4.17031e-11 -5.13561e-11 2.97337e-11
-4.47204e-11 -5.4584e-11 -1.0647e-10
1.04026e-11 7.39844e-13 -8.77504e-13
5.97736e-11 4.53605e-11 -4.00304e-11
-3.30903e-10 -8.89173e-11 2.83988e-11