# vtk DataFile Version 3.0
LIGGGHTS particles timestep 6000000
ASCII
DATASET POLYDATA
POINTS 287 float
0.0478318 0.0164419 0.00783951
0.0482151 0.0173092 0.00730572
0.041639 0.0160496 0.00816789
0.0481536 0.0178218 0.00719407
0.0477183 0.0163447 0.00792665
0.0538123 0.0166909 0.0075786
0.0478884 0.017033 0.00740425
0.0476162 0.0159979 0.008272
0.0540757 0.0178594 0.00707331
0.0478301 0.0167611 0.00751083
0.0482582 0.0174985 0.00725746
0.0418268 0.0167566 0.00753119
0.0476989 0.0162752 0.00799593
0.041555 0.0158167 0.00848199
0.0480236 0.0172525 0.0073392
0.0415333 0.0157586 0.00856041
0.0478116 0.0166915 0.00758028
0.0539499 0.017321 0.00730637
0.0476789 0.0162058 0.0080651
0.0478127 0.0163723 0.00790901
0.0479271 0.0172234 0.0073562
0.0420014 0.01716 0.0074
0.0540128 0.0175902 0.00718984
0.047869 0.0169369 0.00742847
0.0538907 0.017051 0.00742303
0.0419048 0.0171287 0.00740673
0.048132 0.0177272 0.00721819
0.0476585 0.0161365 0.00813417
0.0481634 0.0174713 0.00727384
0.0479077 0.0171282 0.00738023
0.0480021 0.0171577 0.00736337
0.0538318 0.016781 0.0075397
0.0477929 0.016622 0.0076497
0.0479827 0.0170625 0.00738739
0.0541184 0.0180454 0.00701839
0.0479436 0.0168707 0.00743577
0.0480992 0.0171874 0.00734617
0.0540338 0.0176799 0.007151
0.0477564 0.0164913 0.00779618
0.0479489 0.0173186 0.00733195
0.0481202 0.0172821 0.00732208
0.0538515 0.016871 0.00750081
0.05393 0.017231 0.00734525
0.0477743 0.0165525 0.00771913
0.0479925 0.017509 0.00728338
0.0539104 0.017141 0.00738414
0.0480575 0.0177935 0.00721086
0.0480358 0.0176986 0.00723504
0.0418075 0.0166636 0.00756231
0.0539709 0.0174107 0.00726753
0.0477934 0.0163028 0.0079783
0.0415992 0.0159335 0.00832581
0.0479632 0.016967 0.00741148
0.0538711 0.016961 0.00746192
0.0480199 0.0168245 0.00748282
0.04804 0.0169046 0.0074264
0.0477373 0.0164144 0.00785712
0.0481417 0.0173767 0.00729796
0.0480887 0.0175374 0.00726657
0.0539918 0.0175004 0.00722868
0.0419215 0.0167883 0.00752424
0.0418625 0.0165092 0.00761756
0.0482367 0.0174038 0.00728158
0.0482063 0.0176606 0.00722562
0.0478873 0.0166506 0.00763108
0.0540547 0.0177696 0.00711215
0.0415767 0.0158748 0.00840357
0.0481848 0.017566 0.00724973
0.0478494 0.0168402 0.00745289
0.0480453 0.017348 0.00731488
0.0421519 0.0178089 0.00718356
0.0482969 0.0184094 0.00704904
0.041659 0.0161083 0.00808942
0.0418463 0.0168496 0.00750008
0.0481225 0.0180778 0.00713836
0.041788 0.0165741 0.00760252
0.0419263 0.0172215 0.0073758
0.0419262 0.0163845 0.00773034
0.0540967 0.0179491 0.00703447
0.0417546 0.0161261 0.00805994
0.0481103 0.0176324 0.00724237
0.0480006 0.0167477 0.00754397
0.0481874 0.0183618 0.00706674
0.0481442 0.0181724 0.00711424
0.0481738 0.0171212 0.00735346
0.0418657 0.0169427 0.00746896
0.0482493 0.0178499 0.00717739
0.0482401 0.0182005 0.00709753
0.0483141 0.0181337 0.00710503
0.0481009 0.0179832 0.0071625
0.0482709 0.0179445 0.00715327
0.0417491 0.0164013 0.00769449
0.0482091 0.0184572 0.00704595
0.0419021 0.0166952 0.00755536
0.0481341 0.0169332 0.0074086
0.0418442 0.0164216 0.00766227
0.0643568 0.0187248 0.00531097
0.24257 0.0191927 0.00520306
0.0421622 0.0174691 0.00730056
0.0417141 0.0162839 0.00785253
0.0422366 0.0174069 0.00732497
0.0416774 0.0161666 0.00801032
0.0479253 0.0168003 0.00750432
0.0480141 0.0176036 0.00725926
0.0483444 0.0178771 0.00716098
0.0482526 0.0186488 0.00700864
0.041769 0.0164846 0.00764285
0.0424489 0.0175595 0.00728139
0.0420978 0.0171912 0.00739327
0.0480671 0.0174428 0.00729069
0.0479058 0.0167201 0.00756163
0.0477735 0.0162333 0.00804757
0.0416197 0.0159911 0.00824667
0.0480585 0.0169978 0.00739519
0.0476377 0.0160671 0.00820315
0.0475947 0.0159286 0.00834086
0.048366 0.0179717 0.00713685
0.0417909 0.0162434 0.00790208
0.0481968 0.0180113 0.00714578
0.0477535 0.0161638 0.00811684
0.0479708 0.0174143 0.00730754
0.0417327 0.0163424 0.00777363
0.0480792 0.0178882 0.00718671
0.0481658 0.018267 0.00709012
0.0420229 0.0172528 0.00736904
0.0418826 0.0166022 0.00758647
0.0481752 0.0179167 0.0071699
0.0479263 0.0164696 0.00782171
0.0480787 0.0170925 0.00737023
0.0477331 0.0160944 0.00818592
0.0417359 0.0160675 0.00813879
0.0482743 0.0187447 0.00699064
0.0478688 0.016581 0.00770053
0.0483876 0.0180663 0.00711273
0.0417727 0.0161848 0.00798099
0.0421194 0.0172838 0.00736237
0.0416954 0.0162253 0.00793136
0.0420765 0.0170985 0.00742418
0.0419438 0.0164673 0.00767704
0.0417158 0.0160091 0.00821747
0.0419909 0.0174997 0.00728299
0.0484087 0.0181618 0.00708847
0.0419774 0.0166337 0.00757956
0.0423105 0.0173442 0.00734953
0.0418284 0.0163627 0.00774149
0.0420874 0.0175309 0.00727628
0.0421734 0.0179016 0.00715264
0.0420659 0.0174382 0.00730718
0.0219312 0.0187687 0.00551176
0.0421837 0.0175618 0.00726966
0.0482279 0.0177552 0.0072015
0.0420768 0.0178703 0.00715938
0.0421089 0.0176235 0.00724538
0.042334 0.0182103 0.00705334
0.0423752 0.0176224 0.00725675
0.0478878 0.0163307 0.00796034
0.0419577 0.0165408 0.00761065
0.0422581 0.0174996 0.00729407
0.0424705 0.0176522 0.00725045
0.042301 0.0176848 0.00723227
0.0479071 0.0164002 0.00789103
0.0423537 0.0175297 0.00728767
0.0482084 0.0168733 0.00743836
0.0422267 0.0177471 0.00720786
0.0359797 0.0174348 0.00722002
0.0420444 0.0173454 0.00733814
0.0421198 0.0180558 0.00709752
0.0424273 0.0174667 0.00731233
0.0424182 0.0178078 0.00719492
0.0420338 0.017685 0.00722119
0.0478508 0.0165115 0.00777009
0.0422796 0.0175922 0.00726317
0.0481803 0.0177865 0.00728373
0.0419693 0.0174069 0.00731395
0.0420123 0.0175924 0.00725209
0.0481143 0.016845 0.00745677
0.0483346 0.0182286 0.00708097
0.0481535 0.0170263 0.00737751
0.0360785 0.0174655 0.00720274
0.048296 0.0188407 0.00697264
0.0421937 0.0172216 0.00738679
0.047982 0.0166782 0.00761345
0.0420161 0.0168198 0.00751732
0.0423967 0.0177151 0.00722584
0.0415115 0.0157005 0.00863884
0.0360423 0.0176956 0.00708562
0.0418852 0.0170357 0.00743784
0.0421304 0.0177162 0.00721446
0.0419799 0.0170673 0.0074309
0.0425106 0.018268 0.00704083
0.0422151 0.0173143 0.00735587
0.0483316 0.0174311 0.00726519
0.0419604 0.0169743 0.00746201
0.042291 0.018025 0.00711514
0.0422481 0.0178397 0.00717695
0.0418114 0.0163033 0.0078213
0.0422052 0.0176544 0.00723875
0.0419967 0.0167268 0.00754844
0.0479726 0.0171345 0.00745605
0.0482925 0.0180391 0.00712915
0.0423225 0.0177775 0.00720136
0.0480968 0.0167754 0.00752642
0.0482185 0.0181059 0.00712165
0.036038 0.0172929 0.00729167
0.0420983 0.017963 0.00712846
0.0479453 0.0165391 0.00775238
0.0422163 0.0180869 0.00709083
0.0482308 0.0185529 0.00702665
0.0420553 0.0177777 0.00719028
0.0359527 0.0169406 0.00747323
0.0479641 0.0166086 0.00768298
0.0421407 0.0173765 0.00733146
0.0419478 0.0173143 0.00734485
0.0482797 0.0175932 0.00723334
0.042332 0.0174369 0.00731863
0.0360678 0.017056 0.00741241
0.0360006 0.0175217 0.00717522
0.0419519 0.0172091 0.00747168
0.0423781 0.0183969 0.00699114
0.0359588 0.0173478 0.00726483
0.0419085 0.0163152 0.00780019
0.0420357 0.0169128 0.00748622
0.0483499 0.0183255 0.00706148
0.042424 0.0185919 0.00692615
0.0423998 0.0184912 0.00695966
0.042486 0.0184445 0.00697925
0.0357792 0.0165639 0.0076687
0.0358381 0.0168254 0.007534
0.0357597 0.0164767 0.00771362
0.0421514 0.0170362 0.00744865
0.0419409 0.0168813 0.00749312
0.0357988 0.0166511 0.0076238
0.0359171 0.017174 0.00735443
0.0423125 0.0181176 0.00708424
0.0424824 0.0180855 0.00710228
0.0361033 0.0177657 0.00704876
0.0421948 0.0179942 0.00712173
0.0483227 0.0177825 0.0071851
0.036101 0.0179396 0.00696049
0.0359927 0.0171152 0.0073833
0.0358971 0.0170869 0.0073993
0.0416965 0.0159507 0.00829624
0.0422695 0.0179324 0.00714604
0.0421843 0.0183338 0.0070048
0.0422378 0.0181795 0.00705993
0.0361225 0.0180347 0.00693837
0.0420557 0.0170057 0.00745516
0.042345 0.0186488 0.00690334
0.0424653 0.0183517 0.00701023
0.0358774 0.0169997 0.0074442
0.0422058 0.0184264 0.0069739
0.0360215 0.0176086 0.00713043
0.042289 0.0172516 0.00738044
0.0422808 0.0183648 0.00699812
0.0419301 0.017116 0.00750264
0.0421628 0.0182411 0.0070357
0.0483013 0.0176878 0.00720922
0.0423439 0.0178702 0.00717045
0.0362086 0.0179838 0.00693551
0.0422655 0.0187087 0.00689374
0.0361422 0.0181295 0.00696367
0.0422593 0.0182722 0.00702903
0.0421413 0.0181485 0.00706661
0.0422822 0.0187979 0.00685169
0.0423869 0.0180555 0.00710865
0.035938 0.0172609 0.00730963
0.0361117 0.0172323 0.00732152
0.042131 0.0169433 0.00747967
0.0359724 0.0170278 0.00742834
0.0358185 0.0167382 0.0075789
0.0423231 0.0185509 0.00693603
0.0423027 0.018458 0.00696705
0.0422273 0.0185191 0.00694299
0.0424108 0.0182718 0.00703542
0.0422474 0.0186152 0.00692438
0.0421111 0.0168504 0.00751074
0.0421725 0.0171289 0.00741771
0.0424084 0.0181481 0.00707775
0.0418872 0.016257 0.00787868
0.0423654 0.0179628 0.00713955
0.0423006 0.018892 0.00682343
0.0360861 0.0171464 0.00736587
0.042505 0.0185377 0.00694829
0.0480763 0.016706 0.00759548
0.0358578 0.0169125 0.0074891
0.03608 0.0178525 0.00700476
0.0480891 0.0172597 0.00741446

VERTICES 287 574
1 0
1 1
1 2
1 3
1 4
1 5
1 6
1 7
1 8
1 9
1 10
1 11
1 12
1 13
1 14
1 15
1 16
1 17
1 18
1 19
1 20
1 21
1 22
1 23
1 24
1 25
1 26
1 27
1 28
1 29
1 30
1 31
1 32
1 33
1 34
1 35
1 36
1 37
1 38
1 39
1 40
1 41
1 42
1 43
1 44
1 45
1 46
1 47
1 48
1 49
1 50
1 51
1 52
1 53
1 54
1 55
1 56
1 57
1 58
1 59
1 60
1 61
1 62
1 63
1 64
1 65
1 66
1 67
1 68
1 69
1 70
1 71
1 72
1 73
1 74
1 75
1 76
1 77
1 78
1 79
1 80
1 81
1 82
1 83
1 84
1 85
1 86
1 87
1 88
1 89
1 90
1 91
1 92
1 93
1 94
1 95
1 96
1 97
1 98
1 99
1 100
1 101
1 102
1 103
1 104
1 105
1 106
1 107
1 108
1 109
1 110
1 111
1 112
1 113
1 114
1 115
1 116
1 117
1 118
1 119
1 120
1 121
1 122
1 123
1 124
1 125
1 126
1 127
1 128
1 129
1 130
1 131
1 132
1 133
1 134
1 135
1 136
1 137
1 138
1 139
1 140
1 141
1 142
1 143
1 144
1 145
1 146
1 147
1 148
1 149
1 150
1 151
1 152
1 153
1 154
1 155
1 156
1 157
1 158
1 159
1 160
1 161
1 162
1 163
1 164
1 165
1 166
1 167
1 168
1 169
1 170
1 171
1 172
1 173
1 174
1 175
1 176
1 177
1 178
1 179
1 180
1 181
1 182
1 183
1 184
1 185
1 186
1 187
1 188
1 189
1 190
1 191
1 192
1 193
1 194
1 195
1 196
1 197
1 198
1 199
1 200
1 201
1 202
1 203
1 204
1 205
1 206
1 207
1 208
1 209
1 210
1 211
1 212
1 213
1 214
1 215
1 216
1 217
1 218
1 219
1 220
1 221
1 222
1 223
1 224
1 225
1 226
1 227
1 228
1 229
1 230
1 231
1 232
1 233
1 234
1 235
1 236
1 237
1 238
1 239
1 240
1 241
1 242
1 243
1 244
1 245
1 246
1 247
1 248
1 249
1 250
1 251
1 252
1 253
1 254
1 255
1 256
1 257
1 258
1 259
1 260
1 261
1 262
1 263
1 264
1 265
1 266
1 267
1 268
1 269
1 270
1 271
1 272
1 273
1 274
1 275
1 276
1 277
1 278
1 279
1 280
1 281
1 282
1 283
1 284
1 285
1 286

POINT_DATA 287
SCALARS id int 1
LOOKUP_TABLE default
1
2
3
4
5
6
7
8
9
10
11
12
13
14
15
16
17
18
19
21
22
23
24
25
26
27
28
29
30
31
32
33
34
35
36
37
38
39
41
42
44
45
46
47
48
49
50
51
52
53
54
55
56
57
59
60
61
62
63
64
65
66
67
68
69
70
71
72
73
74
76
77
78
79
80
81
82
83
84
85
86
87
88
89
90
91
92
93
94
95
96
97
98
99
100
101
102
103
104
105
106
107
108
109
110
111
112
113
114
115
116
117
118
119
120
121
122
123
124
125
126
127
128
129
130
131
132
133
134
135
136
137
138
140
141
142
143
144
146
147
148
149
150
151
153
154
155
156
157
158
159
160
162
164
165
166
167
168
169
170
171
172
173
174
175
176
177
178
179
181
182
183
184
185
186
187
188
189
190
191
192
193
194
195
196
197
198
199
200
201
202
203
204
205
206
207
208
209
210
211
212
213
214
215
216
217
218
219
220
221
222
223
224
225
226
227
228
229
230
231
232
233
234
235
236
237
239
240
241
242
243
244
246
247
248
249
250
251
252
253
254
255
256
257
258
259
260
261
262
263
264
265
266
267
268
269
270
271
272
273
274
275
276
277
278
279
280
281
282
283
284
285
286
287
288
289
290
291
292
293
294
295
296
297
298
299
300

SCALARS type int 1
LOOKUP_TABLE default
1
1
1
1
1
1
1
1
1
1
1
1
1
1
1
1
1
1
1
1
1
1
1
1
1
1
1
1
1
1
1
1
1
1
1
1
1
1
1
1
1
1
1
1
1
1
1
1
1
1
1
1
1
1
1
1
1
1
1
1
1
1
1
1
1
1
1
1
1
1
1
1
1
1
1
1
1
1
1
1
1
1
1
1
1
1
1
1
1
1
1
1
1
1
1
1
1
1
1
1
1
1
1
1
1
1
1
1
1
1
1
1
1
1
1
1
1
1
1
1
1
1
1
1
1
1
1
1
1
1
1
1
1
1
1
1
1
1
1
1
1
1
1
1
1
1
1
1
1
1
1
1
1
1
1
1
1
1
1
1
1
1
1
1
1
1
1
1
1
1
1
1
1
1
1
1
1
1
1
1
1
1
1
1
1
1
1
1
1
1
1
1
1
1
1
1
1
1
1
1
1
1
1
1
1
1
1
1
1
1
1
1
1
1
1
1
1
1
1
1
1
1
1
1
1
1
1
1
1
1
1
1
1
1
1
1
1
1
1
1
1
1
1
1
1
1
1
1
1
1
1
1
1
1
1
1
1
1
1
1
1
1
1
1
1
1
1
1
1
1
1
1
1
1
1
1
1
1
1
1
1
1
1
1
1
1
1

SCALARS radius float 1
LOOKUP_TABLE default
5e-05
5e-05
5e-05
5e-05
5e-05
5e-05
5e-05
5e-05
5e-05
5e-05
5e-05
5e-05
5e-05
5e-05
5e-05
5e-05
5e-05
5e-05
5e-05
5e-05
5e-05
5e-05
5e-05
5e-05
5e-05
5e-05
5e-05
5e-05
5e-05
5e-05
5e-05
5e-05
5e-05
5e-05
5e-05
5e-05
5e-05
5e-05
5e-05
5e-05
5e-05
5e-05
5e-05
5e-05
5e-05
5e-05
5e-05
5e-05
5e-05
5e-05
5e-05
5e-05
5e-05
5e-05
5e-05
5e-05
5e-05
5e-05
5e-05
5e-05
5e-05
5e-05
5e-05
5e-05
5e-05
5e-05
5e-05
5e-05
5e-05
5e-05
5e-05
5e-05
5e-05
5e-05
5e-05
5e-05
5e-05
5e-05
5e-05
5e-05
5e-05
5e-05
5e-05
5e-05
5e-05
5e-05
5e-05
5e-05
5e-05
5e-05
5e-05
5e-05
5e-05
5e-05
5e-05
5e-05
5e-05
5e-05
5e-05
5e-05
5e-05
5e-05
5e-05
5e-05
5e-05
5e-05
5e-05
5e-05
5e-05
5e-05
5e-05
5e-05
5e-05
5e-05
5e-05
5e-05
5e-05
5e-05
5e-05
5e-05
5e-05
5e-05
5e-05
5e-05
5e-05
5e-05
5e-05
5e-05
5e-05
5e-05
5e-05
5e-05
5e-05
5e-05
5e-05
5e-05
5e-05
5e-05
5e-05
5e-05
5e-05
5e-05
5e-05
5e-05
5e-05
5e-05
5e-05
5e-05
5e-05
5e-05
5e-05
5e-05
5e-05
5e-05
5e-05
5e-05
5e-05
5e-05
5e-05
5e-05
5e-05
5e-05
5e-05
5e-05
5e-05
5e-05
5e-05
5e-05
5e-05
5e-05
5e-05
5e-05
5e-05
5e-05
5e-05
5e-05
5e-05
5e-05
5e-05
5e-05
5e-05
5e-05
5e-05
5e-05
5e-05
5e-05
5e-05
5e-05
5e-05
5e-05
5e-05
5e-05
5e-05
5e-05
5e-05
5e-05
5e-05
5e-05
5e-05
5e-05
5e-05
5e-05
5e-05
5e-05
5e-05
5e-05
5e-05
5e-05
5e-05
5e-05
5e-05
5e-05
5e-05
5e-05
5e-05
5e-05
5e-05
5e-05
5e-05
5e-05
5e-05
5e-05
5e-05
5e-05
5e-05
5e-05
5e-05
5e-05
5e-05
5e-05
5e-05
5e-05
5e-05
5e-05
5e-05
5e-05
5e-05
5e-05
5e-05
5e-05
5e-05
5e-05
5e-05
5e-05
5e-05
5e-05
5e-05
5e-05
5e-05
5e-05
5e-05
5e-05
5e-05
5e-05
5e-05
5e-05
5e-05
5e-05
5e-05
5e-05
5e-05
5e-05
5e-05
5e-05
5e-05
5e-05
5e-05
5e-05
5e-05
5e-05
5e-05
5e-05
5e-05
5e-05
5e-05
5e-05
5e-05
5e-05
5e-05
5e-05
5e-05
5e-05
5e-05
5e-05
5e-05
5e-05
5e-05

SCALARS mass float 1
LOOKUP_TABLE default
1.46608e-10
1.46608e-10
1.46608e-10
1.46608e-10
1.46608e-10
1.46608e-10
1.46608e-10
1.46608e-10
1.46608e-10
1.46608e-10
1.46608e-10
1.46608e-10
1.46608e-10
1.46608e-10
1.46608e-10
1.46608e-10
1.46608e-10
1.46608e-10
1.46608e-10
1.46608e-10
1.46608e-10
1.46608e-10
1.46608e-10
1.46608e-10
1.46608e-10
1.46608e-10
1.46608e-10
1.46608e-10
1.46608e-10
1.46608e-10
1.46608e-10
1.46608e-10
1.46608e-10
1.46608e-10
1.46608e-10
1.46608e-10
1.46608e-10
1.46608e-10
1.46608e-10
1.46608e-10
1.46608e-10
1.46608e-10
1.46608e-10
1.46608e-10
1.46608e-10
1.46608e-10
1.46608e-10
1.46608e-10
1.46608e-10
1.46608e-10
1.46608e-10
1.46608e-10
1.46608e-10
1.46608e-10
1.46608e-10
1.46608e-10
1.46608e-10
1.46608e-10
1.46608e-10
1.46608e-10
1.46608e-10
1.46608e-10
1.46608e-10
1.46608e-10
1.46608e-10
1.46608e-10
1.46608e-10
1.46608e-10
1.46608e-10
1.46608e-10
1.46608e-10
1.46608e-10
1.46608e-10
1.46608e-10
1.46608e-10
1.46608e-10
1.46608e-10
1.46608e-10
1.46608e-10
1.46608e-10
1.46608e-10
1.46608e-10
1.46608e-10
1.46608e-10
1.46608e-10
1.46608e-10
1.46608e-10
1.46608e-10
1.46608e-10
1.46608e-10
1.46608e-10
1.46608e-10
1.46608e-10
1.46608e-10
1.46608e-10
1.46608e-10
1.46608e-10
1.46608e-10
1.46608e-10
1.46608e-10
1.46608e-10
1.46608e-10
1.46608e-10
1.46608e-10
1.46608e-10
1.46608e-10
1.46608e-10
1.46608e-10
1.46608e-10
1.46608e-10
1.46608e-10
1.46608e-10
1.46608e-10
1.46608e-10
1.46608e-10
1.46608e-10
1.46608e-10
1.46608e-10
1.46608e-10
1.46608e-10
1.46608e-10
1.46608e-10
1.46608e-10
1.46608e-10
1.46608e-10
1.46608e-10
1.46608e-10
1.46608e-10
1.46608e-10
1.46608e-10
1.46608e-10
1.46608e-10
1.46608e-10
1.46608e-10
1.46608e-10
1.46608e-10
1.46608e-10
1.46608e-10
1.46608e-10
1.46608e-10
1.46608e-10
1.46608e-10
1.46608e-10
1.46608e-10
1.46608e-10
1.46608e-10
1.46608e-10
1.46608e-10
1.46608e-10
1.46608e-10
1.46608e-10
1.46608e-10
1.46608e-10
1.46608e-10
1.46608e-10
1.46608e-10
1.46608e-10
1.46608e-10
1.46608e-10
1.46608e-10
1.46608e-10
1.46608e-10
1.46608e-10
1.46608e-10
1.46608e-10
1.46608e-10
1.46608e-10
1.46608e-10
1.46608e-10
1.46608e-10
1.46608e-10
1.46608e-10
1.46608e-10
1.46608e-10
1.46608e-10
1.46608e-10
1.46608e-10
1.46608e-10
1.46608e-10
1.46608e-10
1.46608e-10
1.46608e-10
1.46608e-10
1.46608e-10
1.46608e-10
1.46608e-10
1.46608e-10
1.46608e-10
1.46608e-10
1.46608e-10
1.46608e-10
1.46608e-10
1.46608e-10
1.46608e-10
1.46608e-10
1.46608e-10
1.46608e-10
1.46608e-10
1.46608e-10
1.46608e-10
1.46608e-10
1.46608e-10
1.46608e-10
1.46608e-10
1.46608e-10
1.46608e-10
1.46608e-10
1.46608e-10
1.46608e-10
1.46608e-10
1.46608e-10
1.46608e-10
1.46608e-10
1.46608e-10
1.46608e-10
1.46608e-10
1.46608e-10
1.46608e-10
1.46608e-10
1.46608e-10
1.46608e-10
1.46608e-10
1.46608e-10
1.46608e-10
1.46608e-10
1.46608e-10
1.46608e-10
1.46608e-10
1.46608e-10
1.46608e-10
1.46608e-10
1.46608e-10
1.46608e-10
1.46608e-10
1.46608e-10
1.46608e-10
1.46608e-10
1.46608e-10
1.46608e-10
1.46608e-10
1.46608e-10
1.46608e-10
1.46608e-10
1.46608e-10
1.46608e-10
1.46608e-10
1.46608e-10
1.46608e-10
1.46608e-10
1.46608e-10
1.46608e-10
1.46608e-10
1.46608e-10
1.46608e-10
1.46608e-10
1.46608e-10
1.46608e-10
1.46608e-10
1.46608e-10
1.46608e-10
1.46608e-10
1.46608e-10
1.46608e-10
1.46608e-10
1.46608e-10
1.46608e-10
1.46608e-10
1.46608e-10
1.46608e-10
1.46608e-10
1.46608e-10
1.46608e-10
1.46608e-10
1.46608e-10
1.46608e-10
1.46608e-10
1.46608e-10
1.46608e-10
1.46608e-10
1.46608e-10
1.46608e-10
1.46608e-10
1.46608e-10
1.46608e-10
1.46608e-10
1.46608e-10
1.46608e-10

VECTORS velocity float
0.0056642 0.00109569 -0.000481087
0.00608294 0.000571841 -0.000780058
0.00567335 -0.00012707 -0.000149868
0.00620084 0.000608915 -0.000800007
0.00574386 0.00101217 -0.000384793
0.00557297 5.12785e-05 -0.000319664
0.00570605 0.000330861 -0.000685406
0.00615533 0.00108504 -0.000416957
0.00614478 -0.000185576 -0.00025132
0.00584704 0.00107757 -0.000457041
0.00610996 0.00056224 -0.000780878
0.00559313 9.53903e-05 0.000197429
0.00592001 0.000987144 -0.000344969
0.00599316 -0.000127954 -0.000158207
0.00609093 0.000747886 -0.000821583
0.00598184 -0.000116524 -0.000173557
0.00580787 0.00109195 -0.00046001
0.00595193 -0.00010732 -0.000272863
0.00589211 0.000981546 -0.000341605
0.00570576 0.0010966 -0.000477644
0.00611262 0.000580241 -0.000777411
0.00595231 7.22002e-05 0.000222133
0.00605513 -0.000129376 -0.000268251
0.00584976 0.000916717 -0.000835019
0.00556227 -4.69112e-05 -0.000277376
0.00595977 0.000154636 0.000201878
0.00617767 0.000603887 -0.000797834
0.00582451 0.000964579 -0.000335681
0.00611235 0.000597563 -0.000789952
0.00569774 0.000438319 -0.000730152
0.00612634 0.00058524 -0.000754927
0.00559833 3.60862e-05 -0.000314719
0.00574412 0.00108955 -0.000466663
0.00584929 0.000609777 -0.000773855
0.0061758 -7.23196e-05 0.000564499
0.00584503 0.000912364 -0.0008421
0.00598593 0.000664361 -0.000795454
0.00608543 -0.000146785 -0.000263887
0.00565726 0.00109752 -0.000482458
0.00613906 0.000760323 -0.000824237
0.00607985 0.000619993 -0.000794397
0.00557575 -5.91899e-05 -0.000273079
0.00573138 -7.25075e-05 -0.000275771
0.00570426 0.00108438 -0.000467476
0.00613985 0.000620185 -0.000796745
0.00556338 -5.15687e-05 -0.000275413
0.0061834 0.000612811 -0.000801416
0.00618563 0.000683361 -0.000817778
0.00558034 0.000105604 0.000191227
0.00598398 -0.000118552 -0.000271122
0.00586966 0.00107865 -0.000442164
0.00584283 -0.000133937 -0.00014964
0.00571832 0.000341007 -0.000688614
0.00557656 -3.69302e-05 -0.000282921
0.00589001 0.000746405 -0.00088988
0.00601274 0.000680179 -0.000882563
0.00563698 0.00109922 -0.000490975
0.00610946 0.000605499 -0.000792673
0.00613678 0.000617601 -0.000796677
0.00600523 -0.000125964 -0.000268354
0.005603 7.78289e-05 0.000204686
0.00564725 0.000154173 0.000182816
0.00607752 0.00056507 -0.000778391
0.00615714 0.000577776 -0.000790254
0.00577164 0.00106006 -0.00043479
0.00611509 -0.000164769 -0.000260535
0.0059633 -0.000134781 -0.000148158
0.00612838 0.000590044 -0.000788981
0.0058473 0.000648759 -0.00102173
0.00610868 0.000620287 -0.000793669
0.00609484 0.000140552 0.000203539
0.00626305 0.000644208 -0.000401358
0.00562949 -0.000110859 -0.000169009
0.00557921 9.07788e-05 0.000200015
0.00621296 0.00059154 -0.000798383
0.00559212 6.23254e-05 8.34203e-05
0.00595032 7.58633e-05 0.000217391
0.00565879 -8.28894e-05 -5.02774e-05
0.00616533 -0.000200547 -0.000239834
0.00554299 -6.83507e-05 -0.000213906
0.00615634 0.000639245 -0.000804074
0.00579083 0.00111937 -0.000493149
0.00624793 0.000573147 -0.000843864
0.00623449 0.000595294 -0.000803449
0.00594691 0.000608672 -0.000770307
0.0055587 7.31083e-05 0.00020418
0.00619472 0.000570079 -0.000792736
0.00623946 0.000584184 -0.000801878
0.00622995 0.000569633 -0.000796359
0.00620343 0.000594286 -0.000798735
0.00620826 0.00057109 -0.000793635
0.00558894 -7.90989e-05 -0.000225166
0.0062584 0.000627207 -0.000542734
0.00555155 0.000135544 0.000179789
0.00574766 0.000505046 -0.00134903
0.00558704 -4.81644e-05 -0.000250123
4.10596e-15 1.05788e-14 8.29581e-14
-5.71162e-23 2.24983e-22 1.53437e-21
0.00591321 3.59927e-05 0.000231573
0.00560334 -6.99636e-05 -0.000211735
0.00588744 2.17431e-05 0.000235644
0.0056168 -9.59085e-05 -0.000181674
0.00586141 0.0010351 -0.000729136
0.00615144 0.00061826 -0.000797271
0.00620226 0.000562304 -0.000791226
0.00626716 0.000639096 -0.000399602
0.00559087 -3.66545e-05 -0.000154764
0.00594978 9.84523e-06 0.000242115
0.00605419 -6.16369e-06 0.00025181
0.00612946 0.000620502 -0.000796534
0.00587858 0.00110194 -0.000469335
0.00593433 0.0010174 -0.000372751
0.00571068 -0.000122241 -0.000152339
0.0059527 0.000709733 -0.000868034
0.00610872 0.000950945 -0.000279714
0.00617106 0.00107007 -0.000399681
0.00620689 0.00055675 -0.000790581
0.00557343 -7.97256e-05 -0.000199187
0.00621617 0.000586837 -0.000798739
0.00584213 0.000955997 -0.000319508
0.00611393 0.000594495 -0.000785963
0.00560245 -7.01787e-05 -0.000214639
0.00620278 0.000629405 -0.000807056
0.00624237 0.000592905 -0.000805927
0.00603544 -6.61839e-06 0.000253028
0.00559007 0.000123499 0.000179485
0.00620098 0.0005865 -0.000796582
0.00555459 0.00115381 -0.000555926
0.00591107 0.000709888 -0.000806387
0.00568048 0.000961282 -0.000344765
0.00564864 -8.35024e-05 -0.000200445
0.00627301 0.000634372 -0.000400917
0.00570743 0.001069 -0.000451907
0.00620546 0.000542083 -0.000786718
0.00549439 -6.4711e-05 -0.000215716
0.00585552 3.85331e-05 0.000228376
0.00560338 -8.12439e-05 -0.000197976
0.00588086 1.74894e-05 0.000236346
0.00559905 2.03646e-05 0.000116254
0.00568137 -8.90989e-05 -0.000194935
0.00595916 -3.85304e-05 0.000256382
0.00623859 0.000545732 -0.000790898
0.00554933 7.49852e-05 0.000201166
0.00581597 -3.54746e-05 0.000252034
0.00559812 -4.83586e-05 -0.000244058
0.00595767 7.27508e-05 0.00022059
0.00608354 3.81738e-05 0.000238568
0.00594987 1.55891e-05 0.000238834
-3.82924e-14 8.16713e-14 2.95892e-13
0.00591058 4.30317e-05 0.000228932
0.00618049 0.000570188 -0.00079161
0.00608726 0.000130361 0.000205794
0.00606457 4.97765e-05 0.000233412
0.00627767 -5.96632e-05 0.000280361
0.00595033 -3.57331e-06 0.000246665
0.00577106 0.00115157 -0.00053007
0.00555906 8.06173e-05 0.000194626
0.00588824 2.73143e-05 0.000233575
0.00605871 -1.16026e-05 0.000253989
0.00597486 4.59574e-06 0.000245125
0.00566345 0.00115543 -0.000546098
0.00586712 -1.69464e-05 0.00024805
0.00588502 0.00120199 -0.000624247
0.00603175 3.85647e-05 0.000235465
0.00606854 -0.000224327 1.72288e-05
0.00602961 1.36155e-05 0.000244458
0.00612202 5.56235e-06 0.000248276
0.00586042 -6.39113e-06 0.000243941
0.00602354 -8.64216e-05 0.000278142
0.00605619 5.77504e-05 0.000231206
0.00566465 0.0010767 -0.00046422
0.00591282 1.48687e-05 0.000238372
0.00618305 0.000585376 -0.000796643
0.00597059 -3.86567e-05 0.000259569
0.00599737 2.33069e-05 0.000238052
0.00601654 0.00095195 -0.000294436
0.00625091 0.000561497 -0.000797559
0.00577537 0.000644339 -0.000762083
0.00609461 -0.000247559 2.90186e-05
0.00627492 0.000634345 -0.000400422
0.00582106 2.00788e-05 0.000233224
0.0056144 0.00113286 -0.000527491
0.00560987 5.97695e-05 0.000210824
0.00607486 -8.91755e-06 0.000253557
0.00597966 -0.000110351 -0.000181416
0.00617984 -0.000247254 2.88537e-05
0.00554514 9.36087e-05 0.000196617
0.00601947 0.000129742 0.00020281
0.00590657 6.92385e-05 0.000212897
0.00608857 -0.00017503 0.000309137
0.00586399 1.25891e-05 0.000237791
0.00608524 0.000525011 -0.000770159
0.00568442 0.000102195 0.000199059
0.00623207 5.96128e-07 0.000256737
0.00609132 2.44687e-05 0.000243112
0.00561684 -6.53112e-05 -0.000221455
0.00594715 4.80348e-05 0.000228679
0.0055787 6.55326e-05 0.000207394
0.0059721 0.000593228 -0.000719201
0.00622041 0.000571464 -0.000794619
0.00609263 -2.65832e-06 0.000252131
0.00579401 0.000985703 -0.00035555
0.00623133 0.000588203 -0.000799993
0.0060729 -0.000169204 -9.14675e-06
0.00611002 6.85881e-05 0.000231491
0.00549401 0.00114956 -0.000560625
0.00623446 4.26965e-05 0.000245008
0.00627087 0.000648123 -0.000396822
0.00608673 0.000173797 0.000189348
0.00555736 -9.59992e-05 -3.90241e-05
0.00550497 0.00114284 -0.000554354
0.00590804 2.51397e-05 0.000234747
0.00596742 -3.60781e-05 0.000258935
0.00614561 0.000554204 -0.000783567
0.00581667 -1.44227e-06 0.000240513
0.00594091 -0.000255404 3.65383e-05
0.00610188 -0.000238245 2.26987e-05
0.00592464 6.53656e-05 0.000219046
0.00632426 -3.14478e-05 0.000275991
0.00605378 -0.00019668 6.2573e-06
0.00564263 -0.000139847 -0.000127707
0.00562484 5.59663e-05 0.000212814
0.00625887 0.000640374 -0.000400703
0.00578527 0.000154075 -6.05453e-06
0.00535776 5.42187e-05 0.000201812
0.00556825 0.000130034 0.000192552
0.00552274 -0.000108541 -3.23e-05
0.00554528 -0.000111226 -3.11007e-05
0.00551833 -0.000104056 -3.42442e-05
0.00567829 6.04389e-05 0.000213541
0.00556701 0.000117236 0.000189113
0.00554529 -0.000116934 -2.813e-05
0.00596486 -0.000187873 2.0951e-06
0.00631238 -3.55701e-05 0.000271147
0.0062162 -0.00028583 0.000355127
0.00619407 -0.000267936 3.68734e-05
0.00618399 4.16816e-05 0.000239656
0.0061936 0.000558679 -0.00078938
0.00629639 -0.000248484 4.07498e-05
0.00595561 -0.000225084 2.07753e-05
0.00555252 -0.000104593 -3.45568e-05
0.0057195 -8.97041e-05 -0.000195403
0.00615722 1.45028e-05 0.000250235
0.00614858 -0.000143733 0.000307434
0.00619711 -0.000127128 0.000297436
0.00629538 -0.00023398 4.49904e-05
0.00569493 4.55533e-05 0.000219487
0.00573415 0.000144613 0.000179768
0.00631666 -4.54556e-05 0.000276017
0.00554441 -0.000103256 -3.52275e-05
0.00617388 -0.000142081 0.00030513
0.00616943 -0.000244644 2.64787e-05
0.00579615 -5.33834e-05 0.000257409
0.00620055 -0.000134883 0.000305196
0.00598424 0.000110317 0.000209519
0.00608935 -0.000262966 0.000335364
0.00616724 0.000552856 -0.000785261
0.00610841 -1.8423e-05 0.000257865
0.00631463 -0.000203661 3.59395e-06
0.00574578 0.000155904 0.000124821
0.00623721 -0.000218681 4.5361e-05
0.00617891 -0.000138753 0.00030391
0.00614211 -1.66556e-05 0.000261678
0.00588645 0.000269539 0.000330954
0.00628432 -8.94909e-05 0.000290157
0.00600795 -0.000191069 4.26782e-06
0.00612709 -9.89793e-05 -4.73666e-05
0.00561883 6.7814e-05 0.000208587
0.00554481 -9.87323e-05 -3.75174e-05
0.0055458 -0.000115155 -2.90173e-05
0.00537492 6.73779e-05 0.000170843
0.00623755 -0.000118308 0.000301848
0.00619556 -0.000140121 0.000306506
0.00617925 3.89435e-05 0.000240639
0.00550906 8.59361e-05 -0.000251727
0.005613 6.24852e-05 0.000210087
0.0057658 4.1069e-05 0.000223695
0.00631142 -0.000113481 0.000297837
0.005598 -0.000130505 -0.000137015
0.00620575 -6.10209e-05 0.000276913
0.00593261 0.000271968 0.00032397
0.00588629 -4.16485e-05 -7.21338e-05
0.00567797 0.000150549 0.000329941
0.00564047 0.00102436 -0.000413172
0.00554483 -0.000106967 -3.32497e-05
0.00625672 -0.000252436 3.41896e-05
0.00601906 0.000680465 -0.000798471

VECTORS force float
9.33395e-11 5.81886e-11 -8.54713e-11
7.18146e-11 -3.02709e-10 5.31198e-11
2.21422e-10 -4.54453e-11 5.79537e-11
6.48981e-11 3.34859e-10 -1.05672e-10
-7.98106e-11 -2.49655e-11 4.30884e-11
1.89835e-11 8.66514e-11 -3.97535e-11
-6.34572e-12 -4.31651e-11 8.53603e-12
1.58266e-10 3.63437e-11 -9.93225e-13
2.91411e-11 2.05094e-11 7.38995e-11
-2.40449e-10 -4.70753e-11 5.47052e-11
6.30008e-11 2.63869e-11 -4.71147e-12
-7.15046e-11 1.17462e-10 -4.20747e-11
2.27286e-11 -1.43737e-10 1.36688e-10
3.85704e-11 -4.99982e-11 6.82961e-11
-6.35679e-11 -3.41728e-10 8.16545e-11
-4.6699e-11 -6.61854e-11 9.04141e-11
-1.14979e-10 -1.72624e-11 1.34126e-10
-1.3417e-10 1.05273e-10 -1.63531e-11
2.16945e-10 -2.04079e-10 2.25367e-10
5.7904e-12 -1.08121e-10 1.34165e-10
2.93925e-10 1.31806e-10 -3.58288e-10
-1.75257e-10 5.41649e-11 4.92544e-12
-1.45771e-10 1.65612e-10 -4.47463e-11
-3.1633e-12 1.05425e-11 -1.14218e-11
1.10855e-10 2.49984e-10 -9.70953e-11
1.1782e-10 3.18369e-10 -1.58091e-10
-9.41961e-11 2.33529e-10 -4.84181e-11
2.08464e-11 -2.43906e-10 1.63039e-10
8.48093e-11 -7.13518e-11 -2.07419e-11
-1.24198e-11 2.79109e-10 2.50868e-10
5.31378e-10 -4.54161e-10 -1.156e-10
-1.66221e-10 -7.65717e-10 3.28131e-10
1.51498e-10 -2.16435e-11 3.84191e-11
2.77014e-10 8.46415e-10 -2.96901e-10
-2.82363e-10 -1.07846e-10 3.72825e-11
3.69443e-11 4.22746e-11 -8.13516e-11
1.7523e-10 6.13884e-11 9.37792e-11
1.59798e-10 1.25036e-10 -9.88028e-11
9.83152e-11 6.98078e-11 -5.51124e-11
7.32117e-11 -6.87709e-11 -2.40409e-12
8.46239e-11 3.92541e-11 1.30728e-11
4.70342e-11 1.27039e-10 -5.92479e-11
2.64613e-12 5.12539e-11 -1.76421e-11
-4.40065e-11 -3.75334e-11 7.60038e-11
7.34351e-11 -7.37775e-11 7.20548e-12
-5.39582e-11 1.30999e-10 -2.2885e-11
1.72092e-11 2.33692e-10 -6.43933e-11
-3.70815e-11 -8.58019e-12 1.59243e-11
-6.61734e-11 3.76752e-11 -1.35049e-12
1.6437e-10 1.64197e-10 -7.5847e-11
-7.66515e-11 -3.5096e-11 6.60889e-11
1.28425e-10 -1.12944e-10 1.45265e-10
-5.4739e-11 -1.11034e-10 3.45453e-11
-5.59187e-11 -6.80437e-11 3.83571e-11
1.01028e-10 -3.57798e-10 5.12105e-11
-1.84883e-09 -5.65391e-10 2.77558e-10
-3.01035e-11 1.08051e-11 -3.67143e-11
1.38363e-10 -9.67829e-11 -2.63636e-11
6.39953e-11 -9.7747e-11 2.46503e-11
1.20182e-10 -6.72949e-12 -1.88811e-11