# vtk DataFile Version 3.0
LIGGGHTS particles timestep 19200000
ASCII
DATASET POLYDATA
POINTS 287 float
0.124783 0.0163548 0.00776781
0.125266 0.0176046 0.00708488
0.118524 0.0158265 0.00842487
0.125116 0.0177329 0.00705333
0.124667 0.0162425 0.00783099
0.130715 0.0164625 0.00775941
0.124859 0.0169952 0.00737667
0.124569 0.0158605 0.00813375
0.130992 0.0176006 0.00725551
0.124794 0.0167461 0.00753073
0.125327 0.0177928 0.0070415
0.118731 0.0165318 0.00774708
0.124647 0.0161568 0.00788109
0.118446 0.0155654 0.00871676
0.124997 0.0171867 0.00725471
0.118426 0.0155 0.00878986
0.124773 0.0166634 0.00758266
0.130863 0.0170416 0.00742545
0.124628 0.0160721 0.00793062
0.124762 0.0162704 0.00781713
0.124902 0.0171602 0.00727227
0.118932 0.0169066 0.00738268
0.130927 0.0173203 0.00734071
0.124837 0.0169117 0.00742734
0.130798 0.0167616 0.00751054
0.118815 0.0168152 0.00747752
0.125096 0.0176376 0.007076
0.124609 0.0159955 0.00799193
0.125151 0.0174776 0.00711339
0.12488 0.0170777 0.00732441
0.124977 0.0171035 0.0073066
0.130735 0.016531 0.00768945
0.124751 0.0165802 0.00763373
0.124955 0.0170206 0.00735833
0.131035 0.0177874 0.00719872
0.124912 0.0168545 0.007462
0.125092 0.0172135 0.00723694
0.130949 0.0174137 0.00731231
0.124708 0.0164115 0.00773219
0.124922 0.0172435 0.00722071
0.125112 0.0172967 0.007185
0.130755 0.0165995 0.00761948
0.130841 0.0169481 0.00745385
0.124729 0.0164959 0.00768296
0.12496 0.0174153 0.00712598
0.130826 0.0168538 0.00748302
0.125021 0.0177017 0.00705965
0.125001 0.0176063 0.00708174
0.11871 0.016461 0.0078145
0.130891 0.0171358 0.00740773
0.124742 0.0161858 0.00786659
0.118485 0.0156962 0.0085706
0.124933 0.0169374 0.00741024
0.130777 0.0166796 0.00756351
0.125008 0.0168808 0.00744451
0.12503 0.0169641 0.00739253
0.124686 0.0163272 0.00778143
0.125131 0.0173822 0.00713549
0.125056 0.0174466 0.00711965
0.130906 0.0172269 0.00736911
0.118848 0.0166219 0.00765362
0.118785 0.0164093 0.0078559
0.125284 0.0177048 0.00706165
0.125191 0.0176688 0.0070691
0.124847 0.0166063 0.00761735
0.13097 0.0175072 0.00728391
0.118466 0.0156309 0.00864382
0.125171 0.0175731 0.00709127
0.124816 0.0168289 0.00747904
0.125017 0.01727 0.00720277
0.119057 0.0174599 0.00720702
0.125126 0.0182068 0.00694264
0.118545 0.0158952 0.0083551
0.118752 0.0166027 0.00767966
0.125061 0.0178897 0.00710528
0.11869 0.0163901 0.00788193
0.118836 0.0168861 0.00741003
0.11888 0.0164279 0.00783047
0.131013 0.017694 0.00722712
0.118661 0.0159841 0.00826045
0.125076 0.0175422 0.00709753
0.124987 0.0167977 0.00749633
0.125068 0.0179205 0.00701037
0.125131 0.0179813 0.0070705
0.125246 0.0175091 0.00710701
0.118773 0.0166736 0.00761224
0.125271 0.0179531 0.00700346
0.125187 0.0180046 0.00699055
0.125332 0.0182475 0.00693525
0.125273 0.0180224 0.00707549
0.125291 0.0180499 0.00698102
0.118648 0.0162505 0.00801903
0.125087 0.0180158 0.00698758
0.118827 0.016551 0.00772104
0.125206 0.0173234 0.0071673
0.118765 0.0163384 0.00792333
0.0643568 0.0187248 0.00531097
0.24257 0.0191927 0.00520306
0.119131 0.0173954 0.00722528
0.118607 0.0161067 0.00815156
0.119205 0.0173311 0.00724349
0.118566 0.0159653 0.00828685
0.12489 0.0167717 0.00751367
0.12498 0.0175107 0.00710388
0.125203 0.0185866 0.00686421
0.125265 0.0183914 0.00690091
0.118669 0.0163192 0.00794935
0.119422 0.0181717 0.00704899
0.119069 0.0171093 0.00729192
0.125036 0.0173543 0.00715268
0.124869 0.0166889 0.00756532
0.124723 0.0161011 0.00791612
0.118505 0.0157667 0.00850255
0.125052 0.017047 0.00734075
0.124589 0.0159245 0.00805945
0.12455 0.0157964 0.00820806
0.125185 0.0184966 0.00690414
0.118703 0.0161258 0.00812563
0.125167 0.0179073 0.00701309
0.124703 0.0160162 0.00796573
0.124941 0.0173268 0.00716838
0.118628 0.0161775 0.00808417
0.125039 0.0177924 0.00709751
0.125268 0.018125 0.00704307
0.11895 0.0169812 0.0073184
0.118806 0.0164802 0.00778847
0.125104 0.0178295 0.00703062
0.1249 0.0164665 0.00770304
0.125072 0.0171303 0.00728883
0.124684 0.0159434 0.00803155
0.11864 0.0159133 0.00832805
0.125146 0.0183026 0.00692148
0.124825 0.0165235 0.00766908
0.125281 0.0185065 0.00687791
0.118682 0.0160549 0.00819303
0.11909 0.0172048 0.00726968
0.118586 0.0160358 0.008219
0.119048 0.017014 0.00731409
0.118901 0.0164988 0.00776304
0.11862 0.0158478 0.00840128
0.118899 0.0171431 0.00727755
0.125245 0.0182957 0.00692309
0.118943 0.0166404 0.00762824
0.11932 0.0174608 0.00721647
0.118744 0.0162675 0.00799075
0.119015 0.0172693 0.0072514
0.119077 0.0175561 0.00718458
0.118995 0.017174 0.00727361
0.0219312 0.0187687 0.00551176
0.119245 0.0178781 0.00720726
0.125209 0.0177689 0.00704588
0.118961 0.0174289 0.00721097
0.11892 0.0172383 0.00725568
0.119199 0.017974 0.00708841
0.119384 0.0177489 0.00714943
0.124857 0.0162979 0.00780354
0.118922 0.0165697 0.00769562
0.119225 0.0174274 0.00722104
0.119438 0.0180342 0.00708268
0.119245 0.0175253 0.00719821
0.124878 0.0163823 0.00775426
0.119361 0.0176535 0.00717155
0.125366 0.017986 0.00699674
0.119171 0.0175895 0.00718
0.112993 0.0175866 0.00721567
0.118974 0.0170787 0.00729578
0.119002 0.0176195 0.00716654
0.119506 0.0179642 0.00710208
0.119416 0.0179216 0.007109
0.118973 0.0175015 0.00728939
0.124804 0.0164392 0.00771855
0.119151 0.0174919 0.00720278
0.125347 0.017889 0.00701922
0.118878 0.0170496 0.00730582
0.118983 0.0174027 0.00730502
0.125187 0.0172402 0.00721919
0.125206 0.0181017 0.00696805
0.125226 0.0174137 0.00712911
0.113162 0.0179444 0.00697395
0.125165 0.0183986 0.00690163
0.119164 0.0171402 0.00728796
0.124965 0.016715 0.007548
0.118985 0.0167822 0.00749344
0.119443 0.0178281 0.00713251
0.118407 0.0154346 0.00886292
0.11305 0.0178329 0.00705406
0.118794 0.0167444 0.00754486
0.118941 0.0173336 0.00723331
0.118911 0.0168344 0.00745141
0.11936 0.0180946 0.00706527
0.119185 0.0172358 0.00726571
0.12538 0.0184954 0.00687779
0.11889 0.0167635 0.00751883
0.119183 0.018045 0.00715712
0.119188 0.0176912 0.00715612
0.118723 0.0161967 0.00805817
0.119036 0.0173646 0.0072292
0.118964 0.0167113 0.00756083
0.125179 0.0178507 0.00709466
0.125313 0.0181515 0.0069575
0.119264 0.0176255 0.00717475
0.125167 0.017157 0.0072711
0.125407 0.0181833 0.00695102
0.113149 0.0178615 0.00702838
0.118982 0.017525 0.00719261
0.124922 0.0165493 0.00765135
0.119102 0.0177507 0.00713866
0.125226 0.0181996 0.00694535
0.119094 0.0176966 0.0072519
0.113047 0.0174465 0.00730309
0.124943 0.0166322 0.00759965
0.11911 0.0173001 0.00724748
0.118856 0.0169613 0.00734738
0.125252 0.0178573 0.00702565
0.11934 0.0175583 0.00719371
0.113106 0.017694 0.00713936
0.113012 0.0176687 0.00716147
0.119007 0.0176306 0.00726578
0.119281 0.018153 0.00704829
0.112973 0.017505 0.00726973
0.11886 0.016357 0.0078979
0.119006 0.0168563 0.00742967
0.125107 0.0181116 0.00696629
0.119176 0.0184541 0.00701252
0.119339 0.0183536 0.0070021
0.119195 0.0185482 0.00694993
0.112779 0.0167726 0.00775541
0.112844 0.0170167 0.00759351
0.112757 0.0166912 0.00780937
0.119122 0.0169494 0.00733238
0.118869 0.0166927 0.00758624
0.112801 0.016854 0.00770144
0.11293 0.0173422 0.00737766
0.119133 0.0178444 0.00716028
0.119342 0.01823 0.00703203
0.113069 0.0179161 0.00700199
0.119096 0.0176529 0.00716197
0.125352 0.0183432 0.00691309
0.113103 0.0180988 0.00696243
0.113088 0.0176121 0.00719352
0.112908 0.0172609 0.00743162
0.118599 0.0157825 0.00847428
0.119215 0.0177872 0.00716316
0.119062 0.0179113 0.00718309
0.119171 0.0179396 0.00717822
0.113123 0.0181962 0.0069731
0.119027 0.0169336 0.00736999
0.119244 0.0183837 0.00699138
0.119264 0.0182913 0.00702403
0.112887 0.0171794 0.00748561
0.119086 0.0180081 0.00717459
0.11303 0.0177506 0.00710731
0.1193 0.0173632 0.00723926
0.119086 0.0180135 0.00707473
0.119187 0.0176586 0.00725062
0.119042 0.0178135 0.00718766
0.125385 0.0180841 0.006974
0.119288 0.01772 0.00715288
0.113163 0.0183911 0.00699442
0.119122 0.0181882 0.00709412
0.113143 0.0182937 0.00698376
0.119114 0.0179206 0.00709817
0.119022 0.0177156 0.00718586
0.119157 0.0182836 0.00710095
0.119214 0.017878 0.00711208
0.112952 0.0174236 0.0073237
0.113185 0.0180411 0.0069624
0.119104 0.0168752 0.007397
0.113069 0.0175296 0.00724799
0.112822 0.0169354 0.00764748
0.119189 0.018223 0.00702806
0.1192 0.0181258 0.00710063
0.119102 0.0180963 0.00712833
0.119273 0.0180574 0.00710005
0.119268 0.0182338 0.00710577
0.119084 0.0168042 0.00746448
0.119143 0.0170446 0.00731021
0.119347 0.0179913 0.00708968
0.118839 0.0162862 0.00796533
0.1193 0.01783 0.00712682
0.119147 0.0183111 0.0070053
0.113126 0.0177758 0.00708527
0.119264 0.0184791 0.00696916
0.125147 0.0170732 0.00732336
0.112865 0.0170981 0.00753955
0.113083 0.0180014 0.00695176
0.125441 0.0179218 0.00701252

VERTICES 287 574
1 0
1 1
1 2
1 3
1 4
1 5
1 6
1 7
1 8
1 9
1 10
1 11
1 12
1 13
1 14
1 15
1 16
1 17
1 18
1 19
1 20
1 21
1 22
1 23
1 24
1 25
1 26
1 27
1 28
1 29
1 30
1 31
1 32
1 33
1 34
1 35
1 36
1 37
1 38
1 39
1 40
1 41
1 42
1 43
1 44
1 45
1 46
1 47
1 48
1 49
1 50
1 51
1 52
1 53
1 54
1 55
1 56
1 57
1 58
1 59
1 60
1 61
1 62
1 63
1 64
1 65
1 66
1 67
1 68
1 69
1 70
1 71
1 72
1 73
1 74
1 75
1 76
1 77
1 78
1 79
1 80
1 81
1 82
1 83
1 84
1 85
1 86
1 87
1 88
1 89
1 90
1 91
1 92
1 93
1 94
1 95
1 96
1 97
1 98
1 99
1 100
1 101
1 102
1 103
1 104
1 105
1 106
1 107
1 108
1 109
1 110
1 111
1 112
1 113
1 114
1 115
1 116
1 117
1 118
1 119
1 120
1 121
1 122
1 123
1 124
1 125
1 126
1 127
1 128
1 129
1 130
1 131
1 132
1 133
1 134
1 135
1 136
1 137
1 138
1 139
1 140
1 141
1 142
1 143
1 144
1 145
1 146
1 147
1 148
1 149
1 150
1 151
1 152
1 153
1 154
1 155
1 156
1 157
1 158
1 159
1 160
1 161
1 162
1 163
1 164
1 165
1 166
1 167
1 168
1 169
1 170
1 171
1 172
1 173
1 174
1 175
1 176
1 177
1 178
1 179
1 180
1 181
1 182
1 183
1 184
1 185
1 186
1 187
1 188
1 189
1 190
1 191
1 192
1 193
1 194
1 195
1 196
1 197
1 198
1 199
1 200
1 201
1 202
1 203
1 204
1 205
1 206
1 207
1 208
1 209
1 210
1 211
1 212
1 213
1 214
1 215
1 216
1 217
1 218
1 219
1 220
1 221
1 222
1 223
1 224
1 225
1 226
1 227
1 228
1 229
1 230
1 231
1 232
1 233
1 234
1 235
1 236
1 237
1 238
1 239
1 240
1 241
1 242
1 243
1 244
1 245
1 246
1 247
1 248
1 249
1 250
1 251
1 252
1 253
1 254
1 255
1 256
1 257
1 258
1 259
1 260
1 261
1 262
1 263
1 264
1 265
1 266
1 267
1 268
1 269
1 270
1 271
1 272
1 273
1 274
1 275
1 276
1 277
1 278
1 279
1 280
1 281
1 282
1 283
1 284
1 285
1 286

POINT_DATA 287
SCALARS id int 1
LOOKUP_TABLE default
1
2
3
4
5
6
7
8
9
10
11
12
13
14
15
16
17
18
19
21
22
23
24
25
26
27
28
29
30
31
32
33
34
35
36
37
38
39
41
42
44
45
46
47
48
49
50
51
52
53
54
55
56
57
59
60
61
62
63
64
65
66
67
68
69
70
71
72
73
74
76
77
78
79
80
81
82
83
84
85
86
87
88
89
90
91
92
93
94
95
96
97
98
99
100
101
102
103
104
105
106
107
108
109
110
111
112
113
114
115
116
117
118
119
120
121
122
123
124
125
126
127
128
129
130
131
132
133
134
135
136
137
138
140
141
142
143
144
146
147
148
149
150
151
153
154
155
156
157
158
159
160
162
164
165
166
167
168
169
170
171
172
173
174
175
176
177
178
179
181
182
183
184
185
186
187
188
189
190
191
192
193
194
195
196
197
198
199
200
201
202
203
204
205
206
207
208
209
210
211
212
213
214
215
216
217
218
219
220
221
222
223
224
225
226
227
228
229
230
231
232
233
234
235
236
237
239
240
241
242
243
244
246
247
248
249
250
251
252
253
254
255
256
257
258
259
260
261
262
263
264
265
266
267
268
269
270
271
272
273
274
275
276
277
278
279
280
281
282
283
284
285
286
287
288
289
290
291
292
293
294
295
296
297
298
299
300

SCALARS type int 1
LOOKUP_TABLE default
1
1
1
1
1
1
1
1
1
1
1
1
1
1
1
1
1
1
1
1
1
1
1
1
1
1
1
1
1
1
1
1
1
1
1
1
1
1
1
1
1
1
1
1
1
1
1
1
1
1
1
1
1
1
1
1
1
1
1
1
1
1
1
1
1
1
1
1
1
1
1
1
1
1
1
1
1
1
1
1
1
1
1
1
1
1
1
1
1
1
1
1
1
1
1
1
1
1
1
1
1
1
1
1
1
1
1
1
1
1
1
1
1
1
1
1
1
1
1
1
1
1
1
1
1
1
1
1
1
1
1
1
1
1
1
1
1
1
1
1
1
1
1
1
1
1
1
1
1
1
1
1
1
1
1
1
1
1
1
1
1
1
1
1
1
1
1
1
1
1
1
1
1
1
1
1
1
1
1
1
1
1
1
1
1
1
1
1
1
1
1
1
1
1
1
1
1
1
1
1
1
1
1
1
1
1
1
1
1
1
1
1
1
1
1
1
1
1
1
1
1
1
1
1
1
1
1
1
1
1
1
1
1
1
1
1
1
1
1
1
1
1
1
1
1
1
1
1
1
1
1
1
1
1
1
1
1
1
1
1
1
1
1
1
1
1
1
1
1
1
1
1
1
1
1
1
1
1
1
1
1
1
1
1
1
1
1

SCALARS radius float 1
LOOKUP_TABLE default
5e-05
5e-05
5e-05
5e-05
5e-05
5e-05
5e-05
5e-05
5e-05
5e-05
5e-05
5e-05
5e-05
5e-05
5e-05
5e-05
5e-05
5e-05
5e-05
5e-05
5e-05
5e-05
5e-05
5e-05
5e-05
5e-05
5e-05
5e-05
5e-05
5e-05
5e-05
5e-05
5e-05
5e-05
5e-05
5e-05
5e-05
5e-05
5e-05
5e-05
5e-05
5e-05
5e-05
5e-05
5e-05
5e-05
5e-05
5e-05
5e-05
5e-05
5e-05
5e-05
5e-05
5e-05
5e-05
5e-05
5e-05
5e-05
5e-05
5e-05
5e-05
5e-05
5e-05
5e-05
5e-05
5e-05
5e-05
5e-05
5e-05
5e-05
5e-05
5e-05
5e-05
5e-05
5e-05
5e-05
5e-05
5e-05
5e-05
5e-05
5e-05
5e-05
5e-05
5e-05
5e-05
5e-05
5e-05
5e-05
5e-05
5e-05
5e-05
5e-05
5e-05
5e-05
5e-05
5e-05
5e-05
5e-05
5e-05
5e-05
5e-05
5e-05
5e-05
5e-05
5e-05
5e-05
5e-05
5e-05
5e-05
5e-05
5e-05
5e-05
5e-05
5e-05
5e-05
5e-05
5e-05
5e-05
5e-05
5e-05
5e-05
5e-05
5e-05
5e-05
5e-05
5e-05
5e-05
5e-05
5e-05
5e-05
5e-05
5e-05
5e-05
5e-05
5e-05
5e-05
5e-05
5e-05
5e-05
5e-05
5e-05
5e-05
5e-05
5e-05
5e-05
5e-05
5e-05
5e-05
5e-05
5e-05
5e-05
5e-05
5e-05
5e-05
5e-05
5e-05
5e-05
5e-05
5e-05
5e-05
5e-05
5e-05
5e-05
5e-05
5e-05
5e-05
5e-05
5e-05
5e-05
5e-05
5e-05
5e-05
5e-05
5e-05
5e-05
5e-05
5e-05
5e-05
5e-05
5e-05
5e-05
5e-05
5e-05
5e-05
5e-05
5e-05
5e-05
5e-05
5e-05
5e-05
5e-05
5e-05
5e-05
5e-05
5e-05
5e-05
5e-05
5e-05
5e-05
5e-05
5e-05
5e-05
5e-05
5e-05
5e-05
5e-05
5e-05
5e-05
5e-05
5e-05
5e-05
5e-05
5e-05
5e-05
5e-05
5e-05
5e-05
5e-05
5e-05
5e-05
5e-05
5e-05
5e-05
5e-05
5e-05
5e-05
5e-05
5e-05
5e-05
5e-05
5e-05
5e-05
5e-05
5e-05
5e-05
5e-05
5e-05
5e-05
5e-05
5e-05
5e-05
5e-05
5e-05
5e-05
5e-05
5e-05
5e-05
5e-05
5e-05
5e-05
5e-05
5e-05
5e-05
5e-05
5e-05
5e-05
5e-05
5e-05
5e-05
5e-05
5e-05
5e-05
5e-05
5e-05
5e-05
5e-05
5e-05
5e-05
5e-05
5e-05
5e-05
5e-05
5e-05
5e-05
5e-05
5e-05
5e-05
5e-05
5e-05
5e-05
5e-05
5e-05
5e-05
5e-05
5e-05
5e-05
5e-05

SCALARS mass float 1
LOOKUP_TABLE default
1.46608e-10
1.46608e-10
1.46608e-10
1.46608e-10
1.46608e-10
1.46608e-10
1.46608e-10
1.46608e-10
1.46608e-10
1.46608e-10
1.46608e-10
1.46608e-10
1.46608e-10
1.46608e-10
1.46608e-10
1.46608e-10
1.46608e-10
1.46608e-10
1.46608e-10
1.46608e-10
1.46608e-10
1.46608e-10
1.46608e-10
1.46608e-10
1.46608e-10
1.46608e-10
1.46608e-10
1.46608e-10
1.46608e-10
1.46608e-10
1.46608e-10
1.46608e-10
1.46608e-10
1.46608e-10
1.46608e-10
1.46608e-10
1.46608e-10
1.46608e-10
1.46608e-10
1.46608e-10
1.46608e-10
1.46608e-10
1.46608e-10
1.46608e-10
1.46608e-10
1.46608e-10
1.46608e-10
1.46608e-10
1.46608e-10
1.46608e-10
1.46608e-10
1.46608e-10
1.46608e-10
1.46608e-10
1.46608e-10
1.46608e-10
1.46608e-10
1.46608e-10
1.46608e-10
1.46608e-10
1.46608e-10
1.46608e-10
1.46608e-10
1.46608e-10
1.46608e-10
1.46608e-10
1.46608e-10
1.46608e-10
1.46608e-10
1.46608e-10
1.46608e-10
1.46608e-10
1.46608e-10
1.46608e-10
1.46608e-10
1.46608e-10
1.46608e-10
1.46608e-10
1.46608e-10
1.46608e-10
1.46608e-10
1.46608e-10
1.46608e-10
1.46608e-10
1.46608e-10
1.46608e-10
1.46608e-10
1.46608e-10
1.46608e-10
1.46608e-10
1.46608e-10
1.46608e-10
1.46608e-10
1.46608e-10
1.46608e-10
1.46608e-10
1.46608e-10
1.46608e-10
1.46608e-10
1.46608e-10
1.46608e-10
1.46608e-10
1.46608e-10
1.46608e-10
1.46608e-10
1.46608e-10
1.46608e-10
1.46608e-10
1.46608e-10
1.46608e-10
1.46608e-10
1.46608e-10
1.46608e-10
1.46608e-10
1.46608e-10
1.46608e-10
1.46608e-10
1.46608e-10
1.46608e-10
1.46608e-10
1.46608e-10
1.46608e-10
1.46608e-10
1.46608e-10
1.46608e-10
1.46608e-10
1.46608e-10
1.46608e-10
1.46608e-10
1.46608e-10
1.46608e-10
1.46608e-10
1.46608e-10
1.46608e-10
1.46608e-10
1.46608e-10
1.46608e-10
1.46608e-10
1.46608e-10
1.46608e-10
1.46608e-10
1.46608e-10
1.46608e-10
1.46608e-10
1.46608e-10
1.46608e-10
1.46608e-10
1.46608e-10
1.46608e-10
1.46608e-10
1.46608e-10
1.46608e-10
1.46608e-10
1.46608e-10
1.46608e-10
1.46608e-10
1.46608e-10
1.46608e-10
1.46608e-10
1.46608e-10
1.46608e-10
1.46608e-10
1.46608e-10
1.46608e-10
1.46608e-10
1.46608e-10
1.46608e-10
1.46608e-10
1.46608e-10
1.46608e-10
1.46608e-10
1.46608e-10
1.46608e-10
1.46608e-10
1.46608e-10
1.46608e-10
1.46608e-10
1.46608e-10
1.46608e-10
1.46608e-10
1.46608e-10
1.46608e-10
1.46608e-10
1.46608e-10
1.46608e-10
1.46608e-10
1.46608e-10
1.46608e-10
1.46608e-10
1.46608e-10
1.46608e-10
1.46608e-10
1.46608e-10
1.46608e-10
1.46608e-10
1.46608e-10
1.46608e-10
1.46608e-10
1.46608e-10
1.46608e-10
1.46608e-10
1.46608e-10
1.46608e-10
1.46608e-10
1.46608e-10
1.46608e-10
1.46608e-10
1.46608e-10
1.46608e-10
1.46608e-10
1.46608e-10
1.46608e-10
1.46608e-10
1.46608e-10
1.46608e-10
1.46608e-10
1.46608e-10
1.46608e-10
1.46608e-10
1.46608e-10
1.46608e-10
1.46608e-10
1.46608e-10
1.46608e-10
1.46608e-10
1.46608e-10
1.46608e-10
1.46608e-10
1.46608e-10
1.46608e-10
1.46608e-10
1.46608e-10
1.46608e-10
1.46608e-10
1.46608e-10
1.46608e-10
1.46608e-10
1.46608e-10
1.46608e-10
1.46608e-10
1.46608e-10
1.46608e-10
1.46608e-10
1.46608e-10
1.46608e-10
1.46608e-10
1.46608e-10
1.46608e-10
1.46608e-10
1.46608e-10
1.46608e-10
1.46608e-10
1.46608e-10
1.46608e-10
1.46608e-10
1.46608e-10
1.46608e-10
1.46608e-10
1.46608e-10
1.46608e-10
1.46608e-10
1.46608e-10
1.46608e-10
1.46608e-10
1.46608e-10
1.46608e-10
1.46608e-10
1.46608e-10
1.46608e-10
1.46608e-10
1.46608e-10
1.46608e-10
1.46608e-10
1.46608e-10
1.46608e-10
1.46608e-10
1.46608e-10
1.46608e-10
1.46608e-10
1.46608e-10
1.46608e-10
1.46608e-10
1.46608e-10
1.46608e-10
1.46608e-10
1.46608e-10
1.46608e-10

VECTORS velocity float
0.00577086 -6.49243e-05 0.000198671
0.00583279 -0.000136143 9.20724e-05
0.00555636 0.000136806 -0.000138332
0.00579774 -0.000150188 9.6445e-05
0.00561235 2.76199e-05 0.000140722
0.00591559 -0.000689834 0.000170482
0.00624357 -0.000214207 5.26176e-05
0.00564136 -0.000257905 -9.32803e-05
0.00593401 -0.000400735 0.000603506
0.00616514 -0.000202506 3.57244e-05
0.00585026 -0.000153808 9.59579e-05
0.00607912 -0.000220926 -0.000318969
0.00562824 -2.03314e-05 0.000172823
0.00544016 0.00012853 -0.000136659
0.00562552 -0.000127988 1.34489e-05
0.00535864 0.000139321 -0.000146139
0.00615207 -0.000171805 8.61287e-05
0.00602635 -0.000418109 0.000616489
0.00565058 -2.39092e-05 0.000170602
0.00566129 -3.49423e-05 0.000178137
0.00623596 -0.000230236 6.74487e-05
0.00626954 -0.000251577 -0.00030628
0.00598031 -0.000409445 0.000610014
0.00620111 -0.000195805 4.67369e-05
0.00607259 -0.000426804 0.000622989
0.00621248 -0.000241461 -0.000312943
0.00577879 -0.000141989 0.000104773
0.00567037 -0.000108557 6.06102e-05
0.00574608 -0.000184483 0.00010153
0.00625062 -0.000224794 5.88578e-05
0.00622743 -0.000233912 6.94401e-05
0.00596249 -0.000698785 0.000175294
0.00614357 -8.91462e-05 0.000226491
0.00627427 -0.000203679 5.08595e-05
0.00590315 -0.000394928 0.000599167
0.00620809 -0.000226527 6.28258e-05
0.00561537 -0.00013096 1.5662e-05
0.00596487 -0.000406542 0.000607845
0.00611334 -9.01745e-05 0.000223386
0.00562221 -0.000127976 7.24043e-06
0.00561454 -0.000118906 2.89231e-05
0.0060094 -0.000707734 0.000180116
0.00604177 -0.000421015 0.000618658
0.00612152 -8.95224e-05 0.000224463
0.00561513 -0.000262218 0.00013433
0.00605735 -0.000423012 0.000620548
0.00578594 -0.000119753 8.86054e-05
0.00576694 -0.00011938 8.7462e-05
0.00603543 -0.000209667 -0.000325131
0.00601128 -0.000414041 0.000613992
0.00562322 -1.83827e-05 0.000167887
0.00544172 0.000120787 -0.000137139
0.00623038 -0.000225483 6.6719e-05
0.00604318 -0.000563986 0.0003986
0.00622635 -0.000231275 6.84731e-05
0.00631261 -0.00016948 2.96514e-05
0.00558911 4.58169e-06 0.000153025
0.00567403 -0.000176992 9.16264e-05
0.00571917 -0.000113611 8.67288e-05
0.00599573 -0.00041235 0.000612184
0.00611869 -0.000256264 -0.000288094
0.0060205 -0.000234019 -0.000300598
0.00580047 -0.000162799 9.70928e-05
0.00580007 -0.00016246 9.85563e-05
0.00613927 -0.000205309 9.50284e-05
0.00594944 -0.000403639 0.000605675
0.00547361 0.000102228 -0.000148019
0.0057645 -0.000178082 0.000102723
0.00617944 -0.000191616 4.58608e-05
0.00561587 -0.000119998 2.34669e-05
0.00578541 0.000185175 0.000169326
0.00563614 -9.91227e-05 8.50054e-05
0.00572137 4.4544e-05 -0.000173685
0.00611294 -0.000228576 -0.0003142
0.00582689 -0.000121115 8.75233e-05
0.00600558 -0.00020305 -0.000331328
0.00624863 -0.000242655 -0.000312957
0.00596472 -0.000256031 -0.000277187
0.00591858 -0.000397831 0.000601336
0.00576312 -0.000163496 -0.000341111
0.00576182 -0.000126003 0.000100833
0.0061879 -0.000247779 7.99595e-05
0.00583272 -0.000126054 9.38545e-05
0.00568628 -0.000179838 4.28608e-05
0.00573786 -0.000122925 8.69215e-05
0.00614435 -0.000234487 -0.000312107
0.00567962 -1.88521e-05 6.62536e-05
0.00566132 -4.18844e-05 7.09418e-05
0.00568318 -5.68979e-05 7.25961e-05
0.00567282 -2.5884e-05 7.29599e-05
0.00566343 -5.48597e-05 7.06149e-05
0.00592649 -0.000170299 -0.000351236
0.00564827 -9.20629e-05 8.58426e-05
0.00608961 -0.000249394 -0.000294664
0.00561019 -0.000121688 2.00199e-05
0.00599486 -0.000221319 -0.000310007
4.37803e-15 1.04716e-14 8.29577e-14
-1.01195e-22 5.77616e-22 -5.81428e-22
0.00585088 0.00023454 0.000158221
0.00586301 -0.000154672 -0.000360914
0.00592144 0.000307986 0.000143282
0.00576674 -9.14841e-05 -0.000312851
0.00617802 -0.000221701 6.37992e-05
0.00565478 -0.000550852 0.000186941
0.00558747 -0.000110006 -0.000111749
0.00569109 -2.81441e-05 6.34733e-05
0.00597275 -0.000190204 -0.000340692
0.00570127 0.000160386 0.00017033
0.00624942 0.000179878 0.00018518
0.0056532 -0.000104983 6.49575e-05
0.00614814 -0.000222226 5.70643e-05
0.00563004 -4.64071e-06 0.000160711
0.00536662 0.000148711 -0.000156756
0.00621403 -0.000243466 7.67926e-05
0.0056603 -0.00023562 -7.6087e-05
0.00563278 -0.000255341 -8.45534e-05
0.00551227 -0.000141131 -0.000162729
0.00587977 -0.000182021 -0.000331706
0.00584823 -0.00013697 9.45031e-05
0.00566359 -7.65372e-06 0.000156721
0.00568811 -0.000438239 0.000207718
0.00590253 -0.00016461 -0.000355267
0.00578344 -0.00011081 8.53379e-05
0.0056684 -5.44234e-05 7.23871e-05
0.00639912 3.78106e-05 0.000229516
0.00605274 -0.000242215 -0.00029742
0.00582243 -0.00014043 9.38275e-05
0.00612074 -0.000236283 7.25495e-05
0.005623 -0.000136835 1.83286e-05
0.00567514 -0.000237377 -9.85369e-05
0.00579123 0.000102255 -9.98075e-05
0.00567213 -0.000115669 3.78133e-05
0.00612665 -0.000147589 0.000193019
0.00543511 0.000359953 -0.000207932
0.00582971 -0.000174281 -0.00033449
0.00596548 0.000214551 0.000167825
0.00580422 -0.000153537 -0.000377271
0.0063011 7.13766e-05 0.000210902
0.00605522 -0.000275383 -0.000266202
0.0056999 9.40353e-05 -9.77476e-05
0.00627835 2.98824e-05 0.000228655
0.00568125 -6.67343e-05 7.73643e-05
0.00613048 -0.000286157 -0.000263562
0.00579352 0.000364345 0.000124967
0.00595238 -0.000207804 -0.000323437
0.0059482 0.000155672 0.000186547
0.00573128 0.000160742 0.000170573
0.00599887 0.00012893 0.000189546
-3.83421e-14 8.16647e-14 2.95887e-13
0.00588005 0.000153418 0.000120839
0.00580102 -0.000168773 9.66337e-05
0.00573526 0.00013242 0.000181977
0.00596548 9.75394e-05 0.000221146
0.00574454 0.000162535 0.000166911
0.00564611 0.000146989 0.000169489
0.00569842 -0.000130924 0.000235732
0.00609938 -0.000281336 -0.00026566
0.00582007 0.000298425 0.000141997
0.00574109 0.000121065 0.000181258
0.00573758 0.000271865 0.000145443
0.00591783 -0.000166088 0.000263861
0.00568421 0.000251153 0.000147005
0.00569113 -3.67935e-05 6.7214e-05
0.00571135 0.000212153 0.000157712
0.0057064 -0.000854848 0.000209304
0.00628855 4.6699e-05 0.000217648
0.0057188 0.000131185 0.000174593
0.00573598 0.000109134 0.00018428
0.00573098 8.3023e-05 0.000192219
0.00566732 0.000161408 0.000177481
0.00598004 -0.000100407 0.000229141
0.00576704 0.000215374 0.00015971
0.00585025 -7.70591e-05 7.80421e-05
0.00634123 -5.63048e-05 1.80945e-05
0.00583552 0.000132592 0.00016089
0.00560735 -0.000122186 8.73603e-06
0.00564926 -7.33318e-05 7.88694e-05
0.00558911 -9.57096e-05 7.85647e-05
0.00555587 -0.000765073 0.000160691
0.00568393 -0.000158607 -8.93436e-05
0.0061551 0.000458283 0.000115696
0.00615885 -0.000242753 7.6928e-05
0.00624104 -0.000732018 -0.000928919
0.00568372 8.37319e-05 0.000186957
0.00555029 0.000112468 -0.000116122
0.00548978 -0.000787483 0.000234675
0.00618036 -0.000239359 -0.000312256
0.00583846 0.000119932 0.000213399
0.00621963 -0.000265998 -0.000293249
0.00573047 0.000113007 0.000182341
0.00592964 0.000209107 0.000167117
0.0055157 0.00106396 -0.000193017
0.00618593 -0.000263463 -0.000291784
0.00574791 4.71987e-05 0.000266151
0.00568936 0.0002019 0.000157415
0.00591095 -0.000193791 -0.000331524
0.00587352 0.000169085 0.000174852
0.00557862 -5.47443e-05 -0.000432234
0.00584954 -0.000151046 9.56975e-05
0.00565616 -4.79097e-05 6.83182e-05
0.00568603 0.000229746 0.000153624
0.00564929 -0.000106394 -1.43458e-07
0.0056736 -5.52946e-05 7.087e-05
0.00565015 -0.000655421 8.25869e-05
0.00572717 0.000129483 0.000174303
0.00612146 -0.000235132 7.12732e-05
0.00569057 0.000153126 0.0001666
0.00563521 -7.64889e-05 7.66913e-05
0.0057053 0.000244182 0.000138788
0.00599463 -0.000781362 0.000144228
0.00613718 -0.000237123 7.34566e-05
0.00593262 0.000215347 0.000164686
0.00630002 -0.000162891 -0.000211402
0.00586409 -0.000134411 9.197e-05
0.00571474 0.000280258 0.000143177
0.00557653 -0.000724634 0.000132745
0.00554813 -0.000826989 0.000200171
0.00571285 0.000188231 0.000167481
0.00570048 7.27762e-05 0.000193246
0.00587485 -0.000888389 0.000220326
0.00599904 -0.00026026 -0.000276557
0.00614262 -0.000684586 -0.000889818
0.00563267 -8.90177e-05 8.0298e-05
0.00545142 4.81071e-05 0.000179329
0.00554069 0.00017702 0.000153019
0.00551702 3.82195e-05 0.000192549
0.00575153 -0.000852828 0.000204874
0.00578935 -0.000874657 0.000216798
0.00572426 -0.000850052 0.000204881
0.00634449 0.000114081 0.000206964
0.00615548 -0.000261073 -0.000287561
0.00576841 -0.000864138 0.000211186
0.00586631 -0.000885359 0.000219159
0.00572916 0.00016425 0.000196179
0.00566059 0.000123879 0.000173349
0.00551282 -0.000765333 0.000278615
0.00569763 0.000174562 0.000165817
0.00572607 3.97579e-05 4.94431e-05
0.00551455 -0.000752028 0.000298856
0.00564833 -0.000734883 0.000134708
0.00582899 -0.00088008 0.000217974
0.00547547 0.000100469 -0.000103549
0.00570431 0.000193327 0.000169018
0.00574791 0.000130569 0.00024076
0.00572229 0.000183664 0.000158404
0.00550429 -0.000746756 0.000298905
0.00625851 -0.000174587 -0.00017425
0.00550332 7.14171e-05 0.000185347
0.00561072 7.51861e-05 0.000165415
0.00580571 -0.00087496 0.000216445
0.00578827 0.000104182 0.000229456
0.00547791 -0.00080931 0.000201214
0.00591171 0.000411766 0.000117644
0.00576713 -4.11602e-05 0.000225012
0.00571033 0.00011755 0.000117496
0.00570741 0.000150017 0.00016689
0.00563961 -5.885e-05 7.0528e-05
0.00567294 0.000207326 0.000156958
0.00532574 -0.000707971 0.000290841
0.00570409 -4.16338e-05 0.000229975
0.00549315 -0.000741988 0.000298725
0.00575869 -5.12386e-05 0.000224329
0.00568536 0.000150561 0.000146602
0.0056301 6.35758e-05 0.00019367
0.00572141 0.000166536 0.000171318
0.00591831 -0.000895654 0.000222772
0.00552045 -0.000742043 0.00029959
0.0062177 -0.000419101 -0.000435959
0.00587414 -0.000695669 9.59383e-05
0.00576838 -0.000874459 0.000217805
0.00558584 5.49023e-05 0.000188622
0.00571989 6.32803e-06 0.000204519
0.00572459 -3.18662e-05 0.00023743
0.00573082 4.67153e-05 0.000190316
0.00560114 8.03297e-05 0.000160856
0.00614431 -0.000269857 -0.00028465
0.00628342 0.000210607 0.000179881
0.00573546 7.16302e-05 0.000192732
0.0059846 -0.000244048 -0.000289659
0.00570544 0.000133075 0.000178137
0.00561956 7.15523e-05 0.000191146
0.00557072 -0.000727655 0.000134439
0.00553027 5.90886e-05 0.000187725
0.00602617 0.000235101 -0.000219092
0.00580886 -0.000873716 0.000215314
0.00552739 -0.000756008 0.000299902
0.00579972 7.05304e-05 4.31821e-05

VECTORS force float
1.28211e-13 2.7063e-10 -1.53335e-10
-1.50704e-10 1.49273e-10 -5.58681e-11
9.78157e-11 1.32028e-10 -1.09478e-10
-5.45652e-12 8.30062e-11 -8.22616e-12
2.08883e-11 2.09822e-10 -1.22218e-10
1.30814e-12 6.96255e-13 -7.80167e-13
1.29774e-10 -7.90937e-11 7.15734e-11
-6.82953e-11 -1.81556e-10 2.63942e-10
-3.98341e-13 1.01718e-12 -3.58737e-13
-9.23528e-11 -1.88266e-10 -6.2862e-11
-4.49198e-12 -3.01438e-11 6.8409e-12
2.61293e-10 -2.26597e-11 1.50798e-11
-4.0832e-11 -1.8094e-11 3.45864e-11
1.6741e-11 1.42045e-10 -1.69394e-10
-2.79037e-11 -6.29755e-11 2.22937e-11
-9.97141e-11 1.82908e-10 -2.22804e-10
4.98455e-11 -1.78703e-10 -1.51603e-10
3.12948e-13 8.66796e-13 -2.60938e-13
-4.81498e-11 -6.93777e-11 2.81541e-11
-7.10241e-11 3.16932e-10 -1.76683e-10
2.82115e-11 -6.27554e-11 5.50804e-11
-9.54691e-11 1.04095e-11 -2.46977e-11
-2.79869e-14 9.7993e-13 -3.20687e-13
-4.87563e-11 -1.13112e-10 8.6552e-11
4.05454e-13 8.5377e-13 -4.38974e-13
-1.16628e-10 -4.01065e-12 9.25974e-11
6.58579e-12 -3.30269e-11 -9.4682e-12
5.13964e-11 -4.66355e-11 7.62892e-11
3.25731e-10 -1.97796e-10 -3.9876e-12
2.29944e-11 -9.05325e-11 7.61659e-11
1.22577e-11 -1.04571e-10 6.44578e-11
1.07022e-12 5.88154e-13 -5.45805e-13
-7.08129e-11 -3.37447e-11 -6.02527e-11
6.05925e-11 -7.25384e-11 2.91955e-11
-6.18888e-13 1.05899e-12 -3.90711e-13
-8.41886e-11 7.45765e-11 -2.39114e-11
-7.33307e-11 3.32959e-11 -1.05628e-10
-2.00662e-13 9.7739e-13 -3.33953e-13
7.21616e-11 -5.24882e-11 3.3973e-11
1.47845e-11 -2.86873e-11 -1.40206e-11
3.63476e-11 -3.12681e-11 -8.36931e-11
1.21493e-12 5.78265e-13 -6.22228e-13
3.78057e-13 8.68665e-13 -2.65307e-13
-2.42355e-11 -5.11124e-11 4.81546e-11
-8.12184e-10 4.00182e-10 9.74753e-11
5.49936e-13 9.70231e-13 -1.76146e-13
1.01908e-11 3.60422e-11 -1.83581e-11
4.16546e-11 4.58696e-11 -1.82903e-11
3.58403e-11 4.75047e-11 -5.91583e-11
2.09062e-13 8.81415e-13 -2.92748e-13
-7.19851e-11 1.33529e-10 -3.09281e-11
7.0677e-11 7.41837e-11 -1.42291e-10
8.45002e-11 -2.58528e-11 -2.24781e-11
7.72627e-13 7.50367e-13 -5.89291e-13
-4.37915e-11 4.70089e-11 -1.5265e-11
4.20779e-11 -6.82485e-11 3.76128e-11
-5.47184e-11 -9.5732e-11 5.67561e-11
2.93235e-10 -2.23842e-10 8.68531e-11
9.41125e-11 -7.56903e-11 -1.02379e-11
6.20997e-14 9.14809e-13 -2.91591e-13
1.85968e-10 -4.05735e-11 1.50136e-11
-9.79932e-11 -3.74389e-11 6.87056e-11
-6.18652e-11 -9.72619e-11 1.6308e-11
-3.7591e-11 1.68956e-10 -2.79567e-11
-8.24137e-11 -7.72572e-11 -1.99893e-10
-2.70857e-13 9.94573e-13 -3.41246e-13
7.61215e-11 9.75083e-11 -1.48079e-10