# vtk DataFile Version 3.0
LIGGGHTS particles timestep 16400000
ASCII
DATASET POLYDATA
POINTS 287 float
0.10846 0.0163401 0.00781699
0.108904 0.0174953 0.00737171
0.102255 0.0159475 0.00817119
0.10879 0.0178075 0.00726875
0.108343 0.0162318 0.00789039
0.11448 0.0168121 0.00762728
0.108531 0.0170455 0.00755965
0.108236 0.0158649 0.00820206
0.11473 0.0179076 0.00705362
0.108468 0.0167706 0.00766231
0.108942 0.0176822 0.00730223
0.102469 0.0167299 0.00758671
0.108321 0.0161541 0.0079495
0.102168 0.015646 0.00841931
0.108668 0.0172569 0.00747411
0.102146 0.0155706 0.00848134
0.108448 0.016679 0.00769667
0.11462 0.017384 0.00724874
0.108299 0.0160807 0.0080138
0.108439 0.016254 0.00786581
0.108572 0.0172288 0.00749121
0.102659 0.0171539 0.00727933
0.114678 0.0176295 0.00708636
0.10851 0.0169539 0.00759387
0.114563 0.0171383 0.00741117
0.102547 0.0170461 0.00735438
0.108773 0.0177151 0.00730297
0.108277 0.0159943 0.0080671
0.108809 0.0174661 0.0073891
0.108552 0.0171371 0.00752543
0.108648 0.0171652 0.00750833
0.114502 0.0168934 0.00757332
0.108427 0.0165875 0.00773124
0.108627 0.0170736 0.00754269
0.114768 0.0181029 0.00707486
0.108585 0.0168903 0.00761099
0.108743 0.0171921 0.00749176
0.114693 0.0177123 0.0070324
0.108385 0.0164041 0.00779918
0.108593 0.0173204 0.00745699
0.108763 0.0172837 0.00745752
0.114523 0.0169749 0.00751934
0.114601 0.017302 0.00730292
0.108406 0.0164957 0.00776496
0.108637 0.0175031 0.00738858
0.114582 0.0172201 0.00735704
0.108699 0.0177828 0.00730375
0.108679 0.0176864 0.00732015
0.102449 0.0166509 0.00764476
0.114638 0.017466 0.00719455
0.108414 0.0161655 0.00791185
0.102212 0.0157967 0.00829529
0.108606 0.016982 0.00757683
0.114543 0.0170566 0.00746524
0.108659 0.0168255 0.00762864
0.10868 0.0169172 0.00759442
0.108364 0.0163148 0.00783903
0.108786 0.0173749 0.0074233
0.108735 0.0175315 0.00737267
0.114658 0.0175477 0.00714047
0.102583 0.0168368 0.00751237
0.102524 0.0165992 0.00768684
0.108924 0.0175884 0.00733702
0.108848 0.0176517 0.00732001
0.108523 0.0166154 0.00771365
0.114712 0.0178099 0.00704303
0.10219 0.0157214 0.00835728
0.108829 0.0175596 0.00735423
0.108489 0.0168622 0.00762809
0.108689 0.0173485 0.0074399
0.102775 0.0176975 0.00708001
0.108809 0.0183038 0.00709972
0.102277 0.0160231 0.00810952
0.102489 0.0168089 0.00752866
0.108741 0.0179746 0.00726519
0.102429 0.016572 0.00770264
0.102565 0.0171254 0.00729613
0.102619 0.0166275 0.00767024
0.114749 0.0180053 0.00706424
0.102394 0.0161261 0.00803371
0.108754 0.0176244 0.0073408
0.108639 0.0167339 0.00766286
0.108755 0.0180517 0.00718419
0.108768 0.018079 0.00727953
0.108883 0.0174013 0.00740678
0.102508 0.0168879 0.00747062
0.108918 0.0179578 0.00720567
0.108861 0.018064 0.00717199
0.108978 0.0182661 0.0070913
0.108893 0.0180359 0.0072626
0.108961 0.0180576 0.00716695
0.102385 0.0164145 0.00781807
0.108792 0.0181432 0.00720037
0.102564 0.0167578 0.00757041
0.108838 0.0172189 0.00747519
0.102503 0.0165203 0.00774472
0.0643568 0.0187248 0.00531097
0.24257 0.0191927 0.00520306
0.102852 0.0176346 0.0070918
0.102342 0.0162571 0.0079335
0.102928 0.0175697 0.00710407
0.102299 0.0160999 0.00804921
0.108564 0.0167987 0.00764521
0.10866 0.0175943 0.00735438
0.108939 0.0186347 0.00695774
0.108913 0.0184354 0.0070726
0.102407 0.0164933 0.00776035
0.103241 0.018274 0.00693947
0.102794 0.017351 0.00716937
0.108712 0.0174397 0.00740567
0.108544 0.016707 0.00767943
0.10839 0.0160834 0.00796353
0.102233 0.0158721 0.00823322
0.108701 0.0170088 0.0075602
0.108255 0.0159061 0.00811285
0.108217 0.0158325 0.00829468
0.108864 0.0185718 0.00697769
0.102438 0.0162836 0.00791824
0.108821 0.0179789 0.00720534
0.108361 0.0160022 0.00801424
0.108614 0.017412 0.00742278
0.102364 0.0163358 0.00787578
0.10872 0.017878 0.00728039
0.10893 0.0181379 0.00721782
0.102678 0.017233 0.00722113
0.102544 0.0166787 0.00762849
0.108822 0.0179023 0.00726957
0.108555 0.0163671 0.00779985
0.108722 0.0171004 0.00752598
0.108343 0.0159193 0.00806691
0.102372 0.0160473 0.00809148
0.108826 0.0183901 0.00705233
0.108502 0.0165238 0.00774787
0.108942 0.0185155 0.00700495
0.102416 0.0162049 0.00797599
0.102814 0.0174437 0.00713741
0.10232 0.0161786 0.00799145
0.102773 0.0172602 0.00720537
0.102639 0.0167066 0.00761218
0.102351 0.01597 0.00815111
0.102621 0.0173785 0.00715499
0.108904 0.0183311 0.00707536
0.102678 0.0168646 0.00749608
0.103042 0.0176962 0.00707291
0.102481 0.0164411 0.00780278
0.102737 0.017506 0.00712348
0.102795 0.0177933 0.00705827
0.102717 0.0174104 0.00714572
0.0219312 0.0187687 0.00551176
0.102835 0.0177058 0.00715993
0.108867 0.0177458 0.00728511
0.10268 0.0176659 0.00708964
0.102641 0.0174741 0.0071332
0.102953 0.0181932 0.00696536
0.103138 0.0179669 0.00701029
0.10851 0.0161931 0.00790119
0.102658 0.0167856 0.00755413
0.102947 0.0176654 0.00708235
0.103143 0.0182553 0.00694633
0.102966 0.0177611 0.00706064
0.108534 0.0162793 0.00784679
0.103081 0.0178874 0.00702949
0.109015 0.0179773 0.00719154
0.102891 0.0178259 0.00704837
0.0966098 0.017333 0.00720635
0.102698 0.0173147 0.00716691
0.102719 0.0178577 0.00704611
0.103209 0.0181815 0.00696084
0.103114 0.0181507 0.0069703
0.10266 0.0175748 0.00721131
0.108481 0.0164321 0.00778211
0.102872 0.0177303 0.00707008
0.10898 0.0178821 0.00722815
0.102601 0.0172837 0.00717973
0.1027 0.017482 0.00721348
0.108817 0.0171273 0.00750941
0.108873 0.0181573 0.00713785
0.10886 0.01731 0.00744099
0.0967436 0.0175548 0.00715141
0.108845 0.018481 0.00701501
0.102888 0.0173777 0.00714768
0.108618 0.0166423 0.00769708
0.102717 0.0170227 0.00737993
0.103158 0.0180626 0.00698857
0.102126 0.0154951 0.00854353
0.0966683 0.0176185 0.0071352
0.102528 0.016967 0.00741253
0.102661 0.0175699 0.00711143
0.102641 0.0170747 0.00733757
0.103082 0.0183335 0.00693071
0.102908 0.017474 0.00712578
0.109002 0.0184389 0.00702782
0.102622 0.016995 0.00739613
0.102923 0.0181226 0.00705955
0.102911 0.0179215 0.00702666
0.102459 0.0163624 0.00786052
0.102756 0.0176017 0.00710177
0.102698 0.0169436 0.00743806
0.108745 0.0177577 0.00738905
0.108972 0.0181611 0.00712914
0.102986 0.0178567 0.00703893
0.108796 0.0170357 0.00754363
0.109072 0.0181621 0.00712144
0.0967244 0.0174595 0.00717497
0.1027 0.0177617 0.00706789
0.108576 0.016459 0.00776552
0.102834 0.0179847 0.00701481
0.108887 0.0182562 0.00714068
0.102759 0.0177691 0.00714834
0.0966264 0.0169947 0.00731973
0.108597 0.0165506 0.0077313
0.102833 0.0175389 0.00711356
0.102583 0.0172063 0.00724046
0.108894 0.0178357 0.00725101
0.103061 0.0177919 0.00705119
0.0966851 0.0172691 0.00722201
0.0966293 0.0174282 0.00718282
0.102739 0.0176732 0.00717002
0.103007 0.0183983 0.00691846
0.0965898 0.0172379 0.00722986
0.1026 0.0165485 0.00772828
0.102736 0.0171019 0.00732192
0.108788 0.0182094 0.00712548
0.102984 0.0186509 0.0068632
0.103042 0.0184934 0.00689644
0.103136 0.0185244 0.00688695
0.0964172 0.0165164 0.00771449
0.0964755 0.0167447 0.00752885
0.0963966 0.0164405 0.00777619
0.10285 0.017209 0.00724723
0.102603 0.0169159 0.00745422
0.0964366 0.0165925 0.0076526
0.0965494 0.0170467 0.00727713
0.102858 0.0180855 0.00699184
0.103181 0.0183529 0.00692366
0.0966878 0.0177137 0.00711139
0.102814 0.0178889 0.00703656
0.109077 0.0182561 0.00708754
0.096727 0.0179039 0.00706378
0.0966651 0.017174 0.00724552
0.0965314 0.0169708 0.00733977
0.102329 0.0158947 0.00821314
0.10293 0.0180173 0.00700494
0.102778 0.0181453 0.00698107
0.10282 0.0180587 0.00708065
0.0967467 0.017999 0.00703998
0.102755 0.0171812 0.00726394
0.102964 0.0185552 0.00688491
0.103114 0.0184258 0.00690939
0.0965136 0.0168959 0.00740355
0.102798 0.0182408 0.00695912
0.0966488 0.0175234 0.00715901
0.103022 0.0176005 0.00709463
0.102893 0.0182716 0.00694967
0.102816 0.0176101 0.00718167
0.102759 0.0180492 0.00700263
0.109059 0.018069 0.0071556
0.103005 0.0179528 0.00701712
0.096786 0.0181893 0.00699237
0.102837 0.0184321 0.0069157
0.0967663 0.0180941 0.00701617
0.102864 0.0181872 0.0070114
0.102739 0.0179534 0.00702438
0.102869 0.0185845 0.00688108
0.102986 0.0180977 0.00698559
0.0965697 0.0171427 0.00725339
0.0967641 0.017651 0.00712734
0.102831 0.01713 0.00730532
0.096645 0.0170789 0.00726905
0.096456 0.0166686 0.00759072
0.102932 0.018463 0.00690622
0.102912 0.0183673 0.00692793
0.102818 0.0183364 0.00693741
0.102988 0.0183026 0.00694018
0.102881 0.0185278 0.00696253
0.102811 0.0170509 0.00736343
0.102869 0.0172881 0.00718914
0.103048 0.0182244 0.0069558
0.102579 0.0164696 0.00778619
0.103061 0.0180332 0.00699776
0.102888 0.0186802 0.00685937
0.0967049 0.0173643 0.00719849
0.103064 0.0185917 0.00687408
0.108775 0.016944 0.00757785
0.0964948 0.0168209 0.00746695
0.0967074 0.0178088 0.00708758
0.108969 0.0177722 0.00726813

VERTICES 287 574
1 0
1 1
1 2
1 3
1 4
1 5
1 6
1 7
1 8
1 9
1 10
1 11
1 12
1 13
1 14
1 15
1 16
1 17
1 18
1 19
1 20
1 21
1 22
1 23
1 24
1 25
1 26
1 27
1 28
1 29
1 30
1 31
1 32
1 33
1 34
1 35
1 36
1 37
1 38
1 39
1 40
1 41
1 42
1 43
1 44
1 45
1 46
1 47
1 48
1 49
1 50
1 51
1 52
1 53
1 54
1 55
1 56
1 57
1 58
1 59
1 60
1 61
1 62
1 63
1 64
1 65
1 66
1 67
1 68
1 69
1 70
1 71
1 72
1 73
1 74
1 75
1 76
1 77
1 78
1 79
1 80
1 81
1 82
1 83
1 84
1 85
1 86
1 87
1 88
1 89
1 90
1 91
1 92
1 93
1 94
1 95
1 96
1 97
1 98
1 99
1 100
1 101
1 102
1 103
1 104
1 105
1 106
1 107
1 108
1 109
1 110
1 111
1 112
1 113
1 114
1 115
1 116
1 117
1 118
1 119
1 120
1 121
1 122
1 123
1 124
1 125
1 126
1 127
1 128
1 129
1 130
1 131
1 132
1 133
1 134
1 135
1 136
1 137
1 138
1 139
1 140
1 141
1 142
1 143
1 144
1 145
1 146
1 147
1 148
1 149
1 150
1 151
1 152
1 153
1 154
1 155
1 156
1 157
1 158
1 159
1 160
1 161
1 162
1 163
1 164
1 165
1 166
1 167
1 168
1 169
1 170
1 171
1 172
1 173
1 174
1 175
1 176
1 177
1 178
1 179
1 180
1 181
1 182
1 183
1 184
1 185
1 186
1 187
1 188
1 189
1 190
1 191
1 192
1 193
1 194
1 195
1 196
1 197
1 198
1 199
1 200
1 201
1 202
1 203
1 204
1 205
1 206
1 207
1 208
1 209
1 210
1 211
1 212
1 213
1 214
1 215
1 216
1 217
1 218
1 219
1 220
1 221
1 222
1 223
1 224
1 225
1 226
1 227
1 228
1 229
1 230
1 231
1 232
1 233
1 234
1 235
1 236
1 237
1 238
1 239
1 240
1 241
1 242
1 243
1 244
1 245
1 246
1 247
1 248
1 249
1 250
1 251
1 252
1 253
1 254
1 255
1 256
1 257
1 258
1 259
1 260
1 261
1 262
1 263
1 264
1 265
1 266
1 267
1 268
1 269
1 270
1 271
1 272
1 273
1 274
1 275
1 276
1 277
1 278
1 279
1 280
1 281
1 282
1 283
1 284
1 285
1 286

POINT_DATA 287
SCALARS id int 1
LOOKUP_TABLE default
1
2
3
4
5
6
7
8
9
10
11
12
13
14
15
16
17
18
19
21
22
23
24
25
26
27
28
29
30
31
32
33
34
35
36
37
38
39
41
42
44
45
46
47
48
49
50
51
52
53
54
55
56
57
59
60
61
62
63
64
65
66
67
68
69
70
71
72
73
74
76
77
78
79
80
81
82
83
84
85
86
87
88
89
90
91
92
93
94
95
96
97
98
99
100
101
102
103
104
105
106
107
108
109
110
111
112
113
114
115
116
117
118
119
120
121
122
123
124
125
126
127
128
129
130
131
132
133
134
135
136
137
138
140
141
142
143
144
146
147
148
149
150
151
153
154
155
156
157
158
159
160
162
164
165
166
167
168
169
170
171
172
173
174
175
176
177
178
179
181
182
183
184
185
186
187
188
189
190
191
192
193
194
195
196
197
198
199
200
201
202
203
204
205
206
207
208
209
210
211
212
213
214
215
216
217
218
219
220
221
222
223
224
225
226
227
228
229
230
231
232
233
234
235
236
237
239
240
241
242
243
244
246
247
248
249
250
251
252
253
254
255
256
257
258
259
260
261
262
263
264
265
266
267
268
269
270
271
272
273
274
275
276
277
278
279
280
281
282
283
284
285
286
287
288
289
290
291
292
293
294
295
296
297
298
299
300

SCALARS type int 1
LOOKUP_TABLE default
1
1
1
1
1
1
1
1
1
1
1
1
1
1
1
1
1
1
1
1
1
1
1
1
1
1
1
1
1
1
1
1
1
1
1
1
1
1
1
1
1
1
1
1
1
1
1
1
1
1
1
1
1
1
1
1
1
1
1
1
1
1
1
1
1
1
1
1
1
1
1
1
1
1
1
1
1
1
1
1
1
1
1
1
1
1
1
1
1
1
1
1
1
1
1
1
1
1
1
1
1
1
1
1
1
1
1
1
1
1
1
1
1
1
1
1
1
1
1
1
1
1
1
1
1
1
1
1
1
1
1
1
1
1
1
1
1
1
1
1
1
1
1
1
1
1
1
1
1
1
1
1
1
1
1
1
1
1
1
1
1
1
1
1
1
1
1
1
1
1
1
1
1
1
1
1
1
1
1
1
1
1
1
1
1
1
1
1
1
1
1
1
1
1
1
1
1
1
1
1
1
1
1
1
1
1
1
1
1
1
1
1
1
1
1
1
1
1
1
1
1
1
1
1
1
1
1
1
1
1
1
1
1
1
1
1
1
1
1
1
1
1
1
1
1
1
1
1
1
1
1
1
1
1
1
1
1
1
1
1
1
1
1
1
1
1
1
1
1
1
1
1
1
1
1
1
1
1
1
1
1
1
1
1
1
1
1

SCALARS radius float 1
LOOKUP_TABLE default
5e-05
5e-05
5e-05
5e-05
5e-05
5e-05
5e-05
5e-05
5e-05
5e-05
5e-05
5e-05
5e-05
5e-05
5e-05
5e-05
5e-05
5e-05
5e-05
5e-05
5e-05
5e-05
5e-05
5e-05
5e-05
5e-05
5e-05
5e-05
5e-05
5e-05
5e-05
5e-05
5e-05
5e-05
5e-05
5e-05
5e-05
5e-05
5e-05
5e-05
5e-05
5e-05
5e-05
5e-05
5e-05
5e-05
5e-05
5e-05
5e-05
5e-05
5e-05
5e-05
5e-05
5e-05
5e-05
5e-05
5e-05
5e-05
5e-05
5e-05
5e-05
5e-05
5e-05
5e-05
5e-05
5e-05
5e-05
5e-05
5e-05
5e-05
5e-05
5e-05
5e-05
5e-05
5e-05
5e-05
5e-05
5e-05
5e-05
5e-05
5e-05
5e-05
5e-05
5e-05
5e-05
5e-05
5e-05
5e-05
5e-05
5e-05
5e-05
5e-05
5e-05
5e-05
5e-05
5e-05
5e-05
5e-05
5e-05
5e-05
5e-05
5e-05
5e-05
5e-05
5e-05
5e-05
5e-05
5e-05
5e-05
5e-05
5e-05
5e-05
5e-05
5e-05
5e-05
5e-05
5e-05
5e-05
5e-05
5e-05
5e-05
5e-05
5e-05
5e-05
5e-05
5e-05
5e-05
5e-05
5e-05
5e-05
5e-05
5e-05
5e-05
5e-05
5e-05
5e-05
5e-05
5e-05
5e-05
5e-05
5e-05
5e-05
5e-05
5e-05
5e-05
5e-05
5e-05
5e-05
5e-05
5e-05
5e-05
5e-05
5e-05
5e-05
5e-05
5e-05
5e-05
5e-05
5e-05
5e-05
5e-05
5e-05
5e-05
5e-05
5e-05
5e-05
5e-05
5e-05
5e-05
5e-05
5e-05
5e-05
5e-05
5e-05
5e-05
5e-05
5e-05
5e-05
5e-05
5e-05
5e-05
5e-05
5e-05
5e-05
5e-05
5e-05
5e-05
5e-05
5e-05
5e-05
5e-05
5e-05
5e-05
5e-05
5e-05
5e-05
5e-05
5e-05
5e-05
5e-05
5e-05
5e-05
5e-05
5e-05
5e-05
5e-05
5e-05
5e-05
5e-05
5e-05
5e-05
5e-05
5e-05
5e-05
5e-05
5e-05
5e-05
5e-05
5e-05
5e-05
5e-05
5e-05
5e-05
5e-05
5e-05
5e-05
5e-05
5e-05
5e-05
5e-05
5e-05
5e-05
5e-05
5e-05
5e-05
5e-05
5e-05
5e-05
5e-05
5e-05
5e-05
5e-05
5e-05
5e-05
5e-05
5e-05
5e-05
5e-05
5e-05
5e-05
5e-05
5e-05
5e-05
5e-05
5e-05
5e-05
5e-05
5e-05
5e-05
5e-05
5e-05
5e-05
5e-05
5e-05
5e-05
5e-05
5e-05
5e-05
5e-05
5e-05
5e-05
5e-05
5e-05
5e-05
5e-05
5e-05
5e-05
5e-05
5e-05
5e-05
5e-05
5e-05
5e-05
5e-05
5e-05
5e-05
5e-05

SCALARS mass float 1
LOOKUP_TABLE default
1.46608e-10
1.46608e-10
1.46608e-10
1.46608e-10
1.46608e-10
1.46608e-10
1.46608e-10
1.46608e-10
1.46608e-10
1.46608e-10
1.46608e-10
1.46608e-10
1.46608e-10
1.46608e-10
1.46608e-10
1.46608e-10
1.46608e-10
1.46608e-10
1.46608e-10
1.46608e-10
1.46608e-10
1.46608e-10
1.46608e-10
1.46608e-10
1.46608e-10
1.46608e-10
1.46608e-10
1.46608e-10
1.46608e-10
1.46608e-10
1.46608e-10
1.46608e-10
1.46608e-10
1.46608e-10
1.46608e-10
1.46608e-10
1.46608e-10
1.46608e-10
1.46608e-10
1.46608e-10
1.46608e-10
1.46608e-10
1.46608e-10
1.46608e-10
1.46608e-10
1.46608e-10
1.46608e-10
1.46608e-10
1.46608e-10
1.46608e-10
1.46608e-10
1.46608e-10
1.46608e-10
1.46608e-10
1.46608e-10
1.46608e-10
1.46608e-10
1.46608e-10
1.46608e-10
1.46608e-10
1.46608e-10
1.46608e-10
1.46608e-10
1.46608e-10
1.46608e-10
1.46608e-10
1.46608e-10
1.46608e-10
1.46608e-10
1.46608e-10
1.46608e-10
1.46608e-10
1.46608e-10
1.46608e-10
1.46608e-10
1.46608e-10
1.46608e-10
1.46608e-10
1.46608e-10
1.46608e-10
1.46608e-10
1.46608e-10
1.46608e-10
1.46608e-10
1.46608e-10
1.46608e-10
1.46608e-10
1.46608e-10
1.46608e-10
1.46608e-10
1.46608e-10
1.46608e-10
1.46608e-10
1.46608e-10
1.46608e-10
1.46608e-10
1.46608e-10
1.46608e-10
1.46608e-10
1.46608e-10
1.46608e-10
1.46608e-10
1.46608e-10
1.46608e-10
1.46608e-10
1.46608e-10
1.46608e-10
1.46608e-10
1.46608e-10
1.46608e-10
1.46608e-10
1.46608e-10
1.46608e-10
1.46608e-10
1.46608e-10
1.46608e-10
1.46608e-10
1.46608e-10
1.46608e-10
1.46608e-10
1.46608e-10
1.46608e-10
1.46608e-10
1.46608e-10
1.46608e-10
1.46608e-10
1.46608e-10
1.46608e-10
1.46608e-10
1.46608e-10
1.46608e-10
1.46608e-10
1.46608e-10
1.46608e-10
1.46608e-10
1.46608e-10
1.46608e-10
1.46608e-10
1.46608e-10
1.46608e-10
1.46608e-10
1.46608e-10
1.46608e-10
1.46608e-10
1.46608e-10
1.46608e-10
1.46608e-10
1.46608e-10
1.46608e-10
1.46608e-10
1.46608e-10
1.46608e-10
1.46608e-10
1.46608e-10
1.46608e-10
1.46608e-10
1.46608e-10
1.46608e-10
1.46608e-10
1.46608e-10
1.46608e-10
1.46608e-10
1.46608e-10
1.46608e-10
1.46608e-10
1.46608e-10
1.46608e-10
1.46608e-10
1.46608e-10
1.46608e-10
1.46608e-10
1.46608e-10
1.46608e-10
1.46608e-10
1.46608e-10
1.46608e-10
1.46608e-10
1.46608e-10
1.46608e-10
1.46608e-10
1.46608e-10
1.46608e-10
1.46608e-10
1.46608e-10
1.46608e-10
1.46608e-10
1.46608e-10
1.46608e-10
1.46608e-10
1.46608e-10
1.46608e-10
1.46608e-10
1.46608e-10
1.46608e-10
1.46608e-10
1.46608e-10
1.46608e-10
1.46608e-10
1.46608e-10
1.46608e-10
1.46608e-10
1.46608e-10
1.46608e-10
1.46608e-10
1.46608e-10
1.46608e-10
1.46608e-10
1.46608e-10
1.46608e-10
1.46608e-10
1.46608e-10
1.46608e-10
1.46608e-10
1.46608e-10
1.46608e-10
1.46608e-10
1.46608e-10
1.46608e-10
1.46608e-10
1.46608e-10
1.46608e-10
1.46608e-10
1.46608e-10
1.46608e-10
1.46608e-10
1.46608e-10
1.46608e-10
1.46608e-10
1.46608e-10
1.46608e-10
1.46608e-10
1.46608e-10
1.46608e-10
1.46608e-10
1.46608e-10
1.46608e-10
1.46608e-10
1.46608e-10
1.46608e-10
1.46608e-10
1.46608e-10
1.46608e-10
1.46608e-10
1.46608e-10
1.46608e-10
1.46608e-10
1.46608e-10
1.46608e-10
1.46608e-10
1.46608e-10
1.46608e-10
1.46608e-10
1.46608e-10
1.46608e-10
1.46608e-10
1.46608e-10
1.46608e-10
1.46608e-10
1.46608e-10
1.46608e-10
1.46608e-10
1.46608e-10
1.46608e-10
1.46608e-10
1.46608e-10
1.46608e-10
1.46608e-10
1.46608e-10
1.46608e-10
1.46608e-10
1.46608e-10
1.46608e-10
1.46608e-10
1.46608e-10
1.46608e-10
1.46608e-10
1.46608e-10
1.46608e-10
1.46608e-10
1.46608e-10
1.46608e-10
1.46608e-10
1.46608e-10
1.46608e-10
1.46608e-10
1.46608e-10
1.46608e-10

VECTORS velocity float
0.00628616 0.000206873 -0.000635232
0.00558864 0.00061515 -0.000631151
0.00622742 0.000159823 -0.000233337
0.00553712 0.00036015 -0.000547391
0.00631704 0.000516269 -5.47471e-05
0.00581681 -0.000995101 0.000293197
0.00600293 0.000193318 -0.000510236
0.00624902 -0.000215302 -0.00030051
0.00537068 -0.000925543 0.000272839
0.00613436 0.000220558 -0.000533027
0.00528082 0.000201735 -0.000466773
0.00588236 0.000396301 -1.60306e-05
0.00632472 0.000568448 2.67614e-05
0.006232 0.000195298 -0.00026377
0.00595416 0.000245641 -0.000527164
0.00622838 0.00020279 -0.00026888
0.00617793 0.000213814 -0.000544271
0.00545807 -0.000928133 0.000271512
0.00633237 0.000617991 -1.36902e-05
0.00632699 0.000241064 -0.000587991
0.00592697 0.00020459 -0.000508337
0.0057009 0.000480172 -8.67677e-05
0.00544786 -0.000934867 0.000275911
0.00604791 0.000206976 -0.000519272
0.00544762 -0.000919739 0.000266685
0.00571036 0.000419567 -4.28356e-05
0.00539365 0.000337156 -0.000517712
0.0063253 0.000584019 0.000112169
0.00527607 0.00021902 -0.000476955
0.00595729 0.000184573 -0.0005032
0.00594282 0.000228636 -0.000518665
0.0058124 -0.000993115 0.000292041
0.00621514 0.000209912 -0.000547511
0.00599151 0.000218192 -0.00052122
0.00533711 -0.000922309 0.000271027
0.00607192 0.000223453 -0.000526965
0.00596736 0.000248401 -0.000527618
0.00543052 -0.000935191 0.000275572
0.0062885 0.000219357 -0.000541456
0.00591903 0.000246217 -0.00052776
0.00596132 0.00035601 -0.000564137
0.00544708 -0.000918083 0.000265501
0.00547376 -0.00092866 0.000270824
0.00625426 0.000217258 -0.000539774
0.00662537 0.000150547 -0.000543367
0.00555541 -0.000942022 0.000274605
0.0055163 0.00050055 -0.000628061
0.00539069 0.000541662 -0.000597222
0.00587691 0.000393713 -1.43433e-05
0.00544979 -0.000928969 0.00027267
0.00630257 0.000569704 0.000126937
0.00623093 0.000176801 -0.000248396
0.00602898 0.000218612 -0.000523253
0.00523026 -0.00087516 0.000250872
0.00611506 0.000261419 -0.000543426
0.00605688 0.000252564 -0.00053541
0.00631295 0.000205423 -0.000566022
0.00656894 1.82128e-05 -0.000491512
0.00517424 -0.000173007 -0.00174501
0.00545091 -0.000932443 0.000274697
0.00589213 0.00039365 -1.38595e-05
0.0058755 0.000387636 -1.01191e-05
0.00549311 0.000318463 -0.000513731
0.00529455 0.000178467 -0.000457559
0.00621891 0.000242283 -0.000546197
0.00539233 -0.000928732 0.000273868
0.00623116 0.000186948 -0.000257114
0.00506653 0.000156374 -0.0004277
0.00609222 0.000216385 -0.000526864
0.00588734 0.000327108 -0.000550787
0.00566659 0.000369685 -0.000239051
0.00616506 0.000351373 6.30306e-05
0.00622872 0.000191596 -0.000178972
0.00588928 0.000396878 -1.67789e-05
0.00545533 0.00034823 -0.000785844
0.00618802 0.000344381 3.60032e-05
0.00573345 0.000411577 -3.90098e-05
0.00587625 0.000382597 -6.39357e-06
0.00536895 -0.000926439 0.000272653
0.00621351 0.000347946 3.38518e-05
0.00514893 -0.000230509 -0.00192769
0.00616655 0.000274198 -0.000552388
0.00569434 0.000262551 -0.000516102
0.00572928 0.000368275 -0.000558211
0.00551766 0.000449485 -0.000569358
0.00589491 0.000397094 -1.63891e-05
0.00573479 0.000294778 -0.000525439
0.00526207 0.000434662 -0.000579169
0.00665136 0.000868105 -0.000780673
0.00557671 0.000230624 -0.000744892
0.00499468 0.000445371 -0.000535669
0.00618908 0.00034052 4.05124e-05
0.00599262 0.00020687 -0.000774782
0.00588453 0.000393276 -1.4269e-05
0.00601248 0.000351457 -0.000568098
0.00618957 0.000340518 3.99378e-05
4.36738e-15 1.04579e-14 8.29601e-14
6.41016e-23 -1.27651e-22 1.23839e-22
0.00566151 0.00036271 -0.000238562
0.00620807 0.000340281 4.23939e-05
0.00567017 0.000350885 -0.000235782
0.0062224 0.000261159 -8.01088e-05
0.00612607 0.00023046 -0.000533251
0.00536571 0.000519729 -0.000550818
0.00164978 0.00511521 -0.00204682
0.00656588 -5.06795e-05 -0.00069092
0.00618176 0.000343479 3.7988e-05
0.00572049 0.000339684 -0.000234058
0.00564208 0.000399294 -0.000132484
0.0065971 8.37853e-05 -0.000519598
0.00617363 0.000248499 -0.0005443
0.00631961 0.000572582 0.000119905
0.00622817 0.000167642 -0.000241539
0.00602456 0.0002548 -0.000533828
0.00632799 0.000400664 -1.18643e-06
0.00609253 -0.000499943 -0.000430205
0.00612494 0.000485977 0.000370935
0.00620743 0.000341902 3.98342e-05
0.00568997 0.000267659 -0.000500258
0.00632447 0.000592828 0.000104785
0.00578116 0.000296393 -0.000533353
0.00620248 0.00033863 4.22007e-05
0.0055178 0.000322098 -0.000693542
0.00670224 0.00145789 -0.00106276
0.00574603 0.00046809 -8.07356e-05
0.00587844 0.000391811 -1.32352e-05
0.0056579 0.00030282 -0.000506584
0.00633407 0.000265668 -0.000561408
0.0059842 0.000273381 -0.000540241
0.00635049 0.000598096 9.93998e-05
0.00622228 0.000351621 3.30303e-05
0.00601629 0.000544791 0.000342723
0.00624731 0.00022778 -0.00054242
0.00662097 0.000560024 -0.000927359
0.00619897 0.000329052 4.93539e-05
0.00565656 0.000368195 -0.000217365
0.0062114 0.000319953 7.16249e-06
0.00561714 0.000429621 -4.76146e-05
0.00587888 0.000385699 -8.58037e-06
0.0062288 0.000151228 -0.000225477
0.00583015 0.000339723 -0.000225318
0.00624493 0.00057126 -0.000246999
0.00590165 0.000379841 -3.1458e-06
0.00569055 0.000335699 -0.000234065
0.00616657 0.00033 4.65102e-05
0.00566617 0.000373695 -0.000241489
0.00567736 0.000369684 -0.000240531
0.00565446 0.000380709 -0.000194779
-3.82546e-14 8.16962e-14 2.9589e-13
0.0056632 0.000360064 -0.000237829
0.00540485 0.000243195 -0.000480063
0.0056649 0.000370667 -0.000239586
0.00566267 0.000369673 -0.000235846
0.00571754 0.000350292 -0.000236571
0.00572591 0.0003285 -0.000232882
0.00627425 0.000586204 9.04311e-05
0.0058664 0.000371412 1.46073e-06
0.00568298 0.000350172 -0.000234686
0.0057209 0.000337855 -0.000233591
0.00569633 0.000347901 -0.00023495
0.00634904 0.000635945 6.67265e-05
0.00572165 0.000332037 -0.000230708
0.00584008 0.000400852 -0.000572866
0.00570351 0.000357644 -0.000236984
0.00555634 7.10128e-06 -1.05126e-05
0.00583778 0.000337585 -0.000230468
0.00567106 0.000363605 -0.00023953
0.0057245 0.000341616 -0.000234572
0.00572354 0.000334942 -0.000233229
0.00567126 0.000360342 -0.000237974
0.00629301 0.000241044 -0.0005494
0.00567735 0.000360541 -0.000236196
0.00574517 -1.13365e-05 -0.000419445
0.00581446 0.000392131 -1.46965e-05
0.00565776 0.00040986 -0.000231134
0.00601211 0.000304846 -0.000551241
0.00566599 0.000389864 -0.000592349
0.00663038 8.98077e-05 -0.000519622
0.005636 8.79911e-05 -3.76781e-05
0.00607088 0.00054435 0.000343842
0.00562544 0.000328266 -0.000227632
0.00620806 0.000281415 -0.000557826
0.0059101 0.000379337 -2.39086e-06
0.00572508 0.000332113 -0.000232158
0.0057196 0.000295297 -0.000337406
0.00556425 2.42795e-05 1.49924e-05
0.00589921 0.000396993 -1.54033e-05
0.00566277 0.000362928 -0.000238291
0.00567752 0.000483743 -9.13008e-05
0.00572177 0.000337258 -0.000233565
0.00566187 0.000351015 -0.00023548
0.00652661 0.000567758 -0.000694092
0.0059051 0.000388286 -9.14927e-06
0.00570861 0.000344495 -0.000238361
0.00571323 0.000356896 -0.000237813
0.00619805 0.000344488 3.75553e-05
0.00566538 0.000378111 -0.000239114
0.00591234 0.000378782 -1.96148e-06
0.00539148 0.000423902 -0.000569122
0.00575449 0.00114103 -0.000846636
0.00570949 0.000347769 -0.000235027
0.00602698 0.000283116 -0.000544254
0.00577678 0.00187028 -0.00109359
0.00556049 8.99749e-05 -3.96956e-05
0.00567357 0.000381275 -0.00024221
0.00627886 0.000253833 -0.00055252
0.00571507 0.000362793 -0.000239228
0.00790803 0.000121616 -0.00347463
0.00567645 0.000373963 -0.000241493
0.00568059 4.26867e-05 -1.80941e-05
0.00625083 0.000261184 -0.00055307
0.00566408 0.000360164 -0.000248337
0.00577059 0.000401941 -3.04957e-05
0.00554025 0.000233061 -0.000493394
0.00570247 0.000334618 -0.000232518
0.00561843 5.37035e-05 -2.24787e-05
0.0055433 1.07367e-05 -1.21899e-05
0.00566251 0.000364436 -0.000240415
0.00572676 0.00034173 -0.000234666
0.00569208 -6.11834e-05 6.9789e-06
0.00587215 0.000380241 -4.87759e-06
0.00584359 0.000395259 -4.39667e-06
0.0058068 0.00059088 -0.000626614
0.00573502 0.000349517 -0.000236625
0.00572818 0.000345438 -0.000235485
0.00572931 0.000345425 -0.000235559
0.00570033 0.000139436 8.01937e-05
0.00581239 0.000123368 9.78647e-05
0.00614843 7.52114e-05 0.000147152
0.0057326 0.000455663 -6.83921e-05
0.00589405 0.000389439 -1.04113e-05
0.00572705 0.000135743 8.58636e-05
0.00571536 5.89425e-05 -2.45896e-05
0.00571702 0.00035689 -0.000237792
0.00571713 0.000336624 -0.000233306
0.00556129 2.95119e-05 1.04905e-05
0.00570227 0.000367487 -0.000239279
0.00677933 0.0018154 -0.00114348
0.00560379 2.62574e-05 1.0735e-05
0.00571967 1.10604e-05 -1.19646e-05
0.00566921 6.73451e-05 -3.64209e-05
0.00621915 0.000152518 -0.000228813
0.00571591 0.00035626 -0.000237677
0.00571779 0.000357592 -0.000238488
0.0057164 0.000359513 -0.00023728
0.00560776 2.46532e-05 1.10137e-05
0.00570817 0.000430724 -7.04345e-06
0.00573083 0.000347768 -0.000236032
0.00571891 0.00033736 -0.00023346
0.00567864 6.75887e-05 -3.41812e-05
0.0057199 0.000356203 -0.000237991
0.00555599 1.99093e-05 1.15391e-05
0.00567482 0.000339076 -0.000231239
0.00572026 0.000352514 -0.000236903
0.00565883 0.000357301 -0.000242826
0.00571683 0.000368595 -0.000240487
0.00478526 0.00202264 -0.00106555
0.00570957 0.000349717 -0.000235999
0.00561613 2.70997e-05 1.0548e-05
0.00572764 0.000353701 -0.000237377
0.00561387 2.55824e-05 1.08972e-05
0.00571653 0.000351852 -0.000238902
0.00571282 0.000378118 -0.000242286
0.00573014 0.00034438 -0.000235413
0.00571425 0.000358969 -0.000238227
0.00572241 6.60456e-05 -2.39485e-05
0.00556773 3.98882e-05 7.45292e-06
0.00581455 0.000449664 -5.91708e-05
0.00571173 3.01635e-05 -1.81902e-05
0.00576217 0.000125657 9.42377e-05
0.00573128 0.000346404 -0.000235889
0.00572591 0.000347839 -0.000236157
0.00572326 0.000354956 -0.000237501
0.00572338 0.000341409 -0.000234458
0.00573088 0.000345165 -0.000235827
0.00589957 0.000439779 -4.82155e-05
0.00565626 0.000454921 -8.16232e-05
0.00572198 0.000337361 -0.000233581
0.00619741 0.000344699 3.70952e-05
0.0057065 0.000348833 -0.000235555
0.00573359 0.000343591 -0.000235307
0.00551906 8.67229e-05 -2.66749e-05
0.00573627 0.000351804 -0.000237185
0.0060352 0.000266683 -0.00054107
0.00585472 0.000129319 9.62923e-05
0.00560135 2.51851e-05 1.07339e-05
0.00551133 0.000207885 -0.000480529

VECTORS force float
-1.04418e-11 -7.17106e-12 -1.99576e-11
-5.79098e-10 3.82487e-10 -8.0518e-11
1.12834e-11 -4.92772e-12 1.27484e-11
-2.09663e-10 3.05766e-10 -3.11001e-10
4.03307e-11 -4.81246e-11 1.97045e-10
-2.06605e-11 2.15465e-11 -1.19743e-11
3.84069e-12 -3.63788e-10 8.46047e-11
-1.28588e-11 5.34383e-11 -4.10198e-10
7.00587e-11 -1.66104e-11 2.45656e-12
-4.15214e-11 -8.78223e-11 4.25817e-11
-3.71271e-10 2.09254e-11 3.70167e-11
-3.33756e-11 3.28709e-11 -1.2855e-11
1.32112e-10 -5.66707e-11 6.15243e-11
-4.03831e-11 -3.54699e-11 4.19396e-11
6.87854e-10 5.82193e-10 -3.09358e-10
-7.71734e-12 -5.55812e-11 4.81269e-11
-4.51516e-11 6.91964e-12 8.71934e-11
2.11317e-11 -1.86346e-11 1.17051e-11
1.44041e-10 2.58862e-11 -1.57858e-10
1.81596e-10 -2.34155e-10 5.8611e-10
2.11339e-10 2.88346e-10 -2.24352e-10
5.38124e-13 -8.65978e-11 5.34165e-11
1.73488e-11 -9.94109e-12 4.71735e-12
-3.05066e-11 -3.07513e-10 1.05981e-10
-6.79404e-11 -1.31884e-11 1.44428e-11
-1.43096e-10 -7.22055e-11 5.29212e-11
-7.23606e-10 5.0429e-11 3.26172e-11
1.09934e-10 1.26015e-10 -9.7464e-11
-4.36174e-10 2.52989e-10 7.64122e-12
6.12119e-11 -1.60018e-10 1.86715e-11
3.43502e-10 3.12593e-10 -1.68975e-10
-2.06528e-11 2.15925e-11 -1.34605e-11
-1.01294e-10 -2.00743e-11 1.03741e-10
2.02608e-10 -4.53679e-11 -1.13105e-10
1.4913e-11 -1.79224e-11 -4.17975e-12
-2.67652e-10 -3.63577e-10 1.5324e-10
1.24665e-10 7.49181e-11 -5.32728e-11
1.22507e-11 -4.80076e-12 8.18115e-13
2.04346e-12 -1.11086e-10 1.50847e-11
1.6062e-10 4.52392e-10 -2.32609e-10
-8.43912e-11 4.60485e-10 -1.32119e-10
-5.17413e-12 -2.87961e-11 1.5503e-11
1.03887e-10 -3.56806e-11 1.86471e-11
-1.89285e-11 -2.59044e-11 5.18104e-11
5.4307e-11 3.01081e-10 4.47276e-11
-2.34769e-11 -1.56113e-11 1.34162e-11
-9.92913e-12 -6.68116e-10 1.66433e-10
5.59683e-11 -3.25835e-10 2.54598e-10
2.21224e-11 3.35067e-11 -4.52079e-11
1.21562e-11 -9.166e-12 6.48554e-12
2.51095e-10 -1.08483e-10 3.02986e-10
3.42618e-11 -3.55972e-11 2.23077e-11
1.00288e-10 -1.68736e-10 -5.73027e-11
-6.53733e-11 -2.41298e-11 1.86198e-11
-3.18233e-10 -3.97475e-10 1.6378e-10
-1.31151e-10 -2.03189e-10 7.70711e-11
1.70332e-11 -1.69589e-10 1.98097e-10
-2.78733e-10 4.08066e-10 -1.71647e-10
-2.70911e-10 3.50844e-10 -1.19169e-09
2.50326e-11 -1.23891e-11 6.64017e-12
-4.6861e-11 3.5375e-11 -3.00808e-11
-1.64228e-11 6.66653e-11 -5.08598e-11
-5.4775e-10 3.9293e-10 -1.75284e-10
-5.79126e-10 4.30296e-10 -1.11244e-10
-7.20845e-11 1.44554e-10 -4.32048e-12
7.40911e-11 -1.77148e-11 3.77943e-12
-1.52905e-11 -2.97674e-11 1.87087e-11