# vtk DataFile Version 3.0
LIGGGHTS particles timestep 8800000
ASCII
DATASET POLYDATA
POINTS 287 float
0.0641701 0.016501 0.00786032
0.0645906 0.0174342 0.00718075
0.057912 0.0160048 0.0084459
0.064486 0.0178217 0.00706095
0.0640523 0.0163962 0.00793481
0.0700775 0.0164452 0.00781308
0.0642391 0.0171058 0.00741465
0.0639441 0.0159989 0.00821841
0.0703293 0.0175134 0.00721529
0.0641806 0.0168686 0.00758866
0.0646177 0.0175935 0.00706359
0.0581281 0.0166912 0.00775818
0.0640306 0.0163175 0.00799251
0.0578255 0.0157418 0.00873434
0.0643765 0.0172941 0.0072789
0.0578045 0.0156785 0.0088088
0.0641604 0.0167937 0.00765184
0.0702167 0.0169831 0.00738741
0.0640089 0.0162387 0.00805021
0.0641484 0.0164223 0.00791803
0.0642778 0.0172641 0.00729865
0.0583028 0.0169929 0.00745723
0.0702719 0.017219 0.00721169
0.0642204 0.0170266 0.00747276
0.0701591 0.0167523 0.00757013
0.0582089 0.0169679 0.00748089
0.0644671 0.0177236 0.00705655
0.0639873 0.0161592 0.00810679
0.0644932 0.0174878 0.00713862
0.0642577 0.017185 0.00735653
0.0643552 0.0172142 0.00733749
0.0700992 0.0165218 0.00775255
0.0641389 0.0167112 0.00770402
0.0643347 0.0171348 0.00739571
0.0703674 0.0177097 0.00721931
0.0642973 0.0169762 0.00751202
0.0644557 0.0172461 0.00731649
0.0702914 0.017317 0.00721187
0.0640956 0.0165537 0.00781942
0.0642981 0.0173435 0.00724135
0.0644722 0.0173279 0.00725638
0.0701201 0.0165985 0.00769188
0.0702004 0.0169058 0.00744872
0.0641173 0.0166325 0.00776172
0.0643326 0.0175152 0.00714987
0.0701799 0.016829 0.00750944
0.0643882 0.0177848 0.00706266
0.0643695 0.0176867 0.00705823
0.0581063 0.0166223 0.00782724
0.0702366 0.0170599 0.0073266
0.0641267 0.0163433 0.00797561
0.0578687 0.0158695 0.00858658
0.064316 0.0170555 0.00745389
0.0701401 0.0166754 0.00763107
0.0643779 0.0169297 0.00754853
0.0643966 0.0170089 0.00749042
0.0640739 0.016475 0.00787711
0.0644881 0.0174074 0.00719793
0.0644377 0.017571 0.0071407
0.0702613 0.0171364 0.0072671
0.058226 0.0167153 0.00773552
0.058161 0.0165082 0.00794298
0.064598 0.0175145 0.00712158
0.0645423 0.017658 0.00705086
0.0642365 0.0167387 0.00768616
0.0703104 0.0174152 0.00721329
0.0578471 0.0158052 0.00866007
0.0645214 0.0175653 0.00708203
0.0642003 0.0169476 0.00753068
0.0643928 0.0173758 0.00721887
0.0584324 0.017578 0.00719289
0.0646311 0.0185058 0.00709128
0.0579337 0.0160739 0.00837688
0.0581496 0.0167602 0.00768906
0.0644452 0.0180791 0.00707591
0.0580849 0.0165533 0.00789638
0.0582255 0.0170375 0.00741105
0.0582136 0.016393 0.00805986
0.0703482 0.0176116 0.00721729
0.05803 0.0160946 0.00835739
0.0644422 0.0176184 0.00705199
0.0643578 0.0168507 0.00760645
0.0645088 0.018372 0.00708884
0.0644653 0.0181769 0.00708027
0.0645685 0.0173556 0.00723838
0.0581708 0.0168295 0.00762014
0.0645807 0.0178543 0.00705913
0.0645659 0.0182132 0.00707843
0.0646412 0.0181478 0.00707221
0.0644261 0.017981 0.0070715
0.0645998 0.0179523 0.00706354
0.0580419 0.0164153 0.00803462
0.0645305 0.0184695 0.00709313
0.0582045 0.0166463 0.00780464
0.0645338 0.0171968 0.00735492
0.058139 0.0164393 0.00801202
0.0643568 0.0187248 0.00531097
0.24257 0.0191927 0.00520306
0.0584473 0.0172475 0.00725871
0.058002 0.0162933 0.00818645
0.0585277 0.0171827 0.00726967
0.0579554 0.0161427 0.00830771
0.0642768 0.0168968 0.00757026
0.0643536 0.0175939 0.00709177
0.0646954 0.0179846 0.00706167
0.0645739 0.0186645 0.0071017
0.0580629 0.0164844 0.00796542
0.0588255 0.0177215 0.00718576
0.0584021 0.0170152 0.00743706
0.0644112 0.0174712 0.00719339
0.064257 0.0168177 0.00762828
0.064105 0.0162633 0.0080316
0.0578903 0.0159359 0.00851499
0.0644153 0.0170881 0.0074323
0.0639657 0.0160789 0.00816244
0.0639224 0.0159189 0.00827439
0.0647171 0.0180821 0.00706595
0.0580742 0.0162325 0.00821938
0.064524 0.0180179 0.00706978
0.0640833 0.0161833 0.00808758
0.0643125 0.0174227 0.0071821
0.0580195 0.0163465 0.00810359
0.0644072 0.0178829 0.00706708
0.0644871 0.0182744 0.00708456
0.0583184 0.0170727 0.00739908
0.0581826 0.0165774 0.00787371
0.0645049 0.0179198 0.00706537
0.0642707 0.0165314 0.00784045
0.0644354 0.0171671 0.00737439
0.0640616 0.0161032 0.00814361
0.0580078 0.0160257 0.00842639
0.0645957 0.018762 0.00710598
0.0642148 0.0166598 0.00774401
0.0647382 0.0181798 0.00707027
0.0580516 0.0161636 0.00828828
0.0584136 0.0170849 0.00736629
0.0579771 0.0162117 0.00823862
0.0583819 0.0169457 0.00750601
0.0582363 0.0164624 0.00799031
0.0579861 0.0159568 0.00849549
0.0582769 0.0172461 0.00720177
0.064663 0.0182453 0.00707649
0.0582796 0.0166004 0.0078521
0.0586223 0.0172076 0.00724682
0.058118 0.0163702 0.00808123
0.0583754 0.0172836 0.00719932
0.0584516 0.0176761 0.00719075
0.0583547 0.0171997 0.00724975
0.0219312 0.0187687 0.00551176
0.058479 0.0173367 0.00722536
0.0645616 0.0177562 0.0070548
0.058353 0.0176387 0.00719257
0.0583943 0.0173817 0.00719718
0.0586225 0.0180189 0.00718211
0.0586901 0.0174943 0.00719172
0.0642274 0.0163722 0.00795349
0.0582577 0.0165314 0.00792116
0.0585271 0.0172532 0.00719872
0.0587509 0.017788 0.00718526
0.0585951 0.017463 0.00719338
0.064249 0.0164522 0.00789752
0.0586663 0.0173927 0.00719399
0.0646936 0.0175422 0.00710354
0.0585201 0.0175296 0.00719289
0.0522845 0.0173413 0.0073869
0.0583377 0.0171302 0.00731953
0.0583913 0.017835 0.00718827
0.0588052 0.0176236 0.00718791
0.0587306 0.0176901 0.00718741
0.0583148 0.0174424 0.0071969
0.064192 0.01658 0.00780245
0.0585711 0.0173621 0.00719563
0.0645079 0.017763 0.0071389
0.0582599 0.0171765 0.00727156
0.0582959 0.0173443 0.007199
0.0645135 0.0171178 0.00741286
0.0645876 0.0183108 0.00708271
0.0645488 0.0172765 0.00729637
0.0524015 0.017449 0.00733535
0.0646174 0.0188595 0.00711027
0.0584939 0.0170436 0.00740927
0.0643381 0.0167716 0.00766443
0.0583222 0.0167384 0.00771379
0.0587103 0.0175922 0.00718957
0.0577824 0.0156153 0.00888315
0.0523535 0.0176608 0.00724887
0.05819 0.0168985 0.0075504
0.0584135 0.0174798 0.00719504
0.0582856 0.0169233 0.007527
0.058719 0.0180499 0.00718045
0.0585115 0.017113 0.00733957
0.0647109 0.0176237 0.0070437
0.0582666 0.0168538 0.00759664
0.0585799 0.0178235 0.00718643
0.0585396 0.0176277 0.00719134
0.0580956 0.0163014 0.0081502
0.0585008 0.0174324 0.00720614
0.0583011 0.0166694 0.00778297
0.0643314 0.017503 0.00724911
0.0646201 0.0180501 0.00706789
0.0586153 0.0175609 0.00719123
0.0644933 0.0170388 0.00747078
0.0645442 0.0181157 0.00707414
0.0523843 0.0173397 0.00738223
0.0583721 0.0177369 0.00719042
0.0642954 0.0166133 0.00778051
0.058492 0.0178719 0.00718644
0.0645522 0.018567 0.00709741
0.0583338 0.0175406 0.00719471
0.0522627 0.0168264 0.00760452
0.064317 0.016692 0.00772279
0.058432 0.0171557 0.00729535
0.0582428 0.0171083 0.00734258
0.0646369 0.0176906 0.00704928
0.058642 0.0172916 0.00719625
0.0523408 0.0171312 0.0074722
0.0523039 0.0174314 0.007348
0.0583622 0.0173125 0.00729413
0.058666 0.0182144 0.00717778
0.052265 0.0172512 0.00742581
0.0581914 0.0163229 0.00813007
0.0583418 0.0168077 0.00764437
0.0646094 0.0184083 0.007087
0.05871 0.0184094 0.00717345
0.0586876 0.018312 0.00717562
0.0587621 0.0182451 0.00717612
0.0520801 0.0164245 0.00775486
0.0521418 0.0166991 0.00765092
0.0520595 0.016333 0.00778951
0.058463 0.0169042 0.0075491
0.0582471 0.0167843 0.00766633
0.0521006 0.016516 0.00772022
0.0522258 0.0170712 0.00750361
0.0586011 0.0179212 0.00718427
0.0587718 0.0178858 0.0071831
0.0523745 0.0177582 0.00720684
0.0584711 0.0177742 0.0071886
0.0646754 0.0178867 0.0070573
0.0524141 0.0179414 0.00712769
0.0523146 0.0170273 0.0075173
0.0522036 0.0169739 0.00754569
0.0579645 0.0158878 0.0085646
0.0585593 0.0177257 0.00718859
0.0584561 0.0181287 0.00718177
0.0585136 0.0179695 0.00718428
0.0524337 0.0180321 0.00708851
0.0583611 0.0168817 0.00758001
0.0586256 0.0184631 0.00717332
0.0587403 0.0181476 0.00717828
0.0521829 0.0168821 0.00758163
0.0584778 0.0182264 0.0071796
0.0523324 0.0175633 0.00729102
0.0586056 0.0171377 0.0073163
0.0585566 0.0181648 0.00717996
0.0582751 0.0172667 0.00731214
0.0584343 0.0180305 0.00718395
0.0646562 0.0177887 0.00705298
0.0586355 0.0176588 0.00718907
0.0524734 0.0182137 0.00701003
0.0585428 0.0185192 0.00717312
0.0524534 0.0181224 0.0070495
0.058535 0.0180672 0.00718212
0.0584126 0.0179327 0.00718611
0.0585645 0.0186168 0.00717095
0.0586762 0.0178546 0.00718477
0.0522456 0.0171611 0.00746471
0.0525008 0.0174579 0.0073263
0.0584411 0.0168353 0.00761815
0.0522909 0.0169274 0.00756053
0.0521212 0.0166076 0.00768557
0.0586 0.0183601 0.00717563
0.0585783 0.0182624 0.00717779
0.0584995 0.018324 0.00717744
0.0586441 0.0181165 0.00717995
0.0585212 0.0184216 0.00717528
0.0584218 0.016766 0.00768762
0.0584827 0.0169734 0.00747969
0.0586972 0.0179523 0.00718261
0.0581697 0.016254 0.00819918
0.0586556 0.0177568 0.00718692
0.0585862 0.0187144 0.00716879
0.0523642 0.0172386 0.00742582
0.0587843 0.0183426 0.00717395
0.0644747 0.0169596 0.0075289
0.0521623 0.0167906 0.00761628
0.0523945 0.0178504 0.007167
0.0645238 0.0175014 0.00723285

VERTICES 287 574
1 0
1 1
1 2
1 3
1 4
1 5
1 6
1 7
1 8
1 9
1 10
1 11
1 12
1 13
1 14
1 15
1 16
1 17
1 18
1 19
1 20
1 21
1 22
1 23
1 24
1 25
1 26
1 27
1 28
1 29
1 30
1 31
1 32
1 33
1 34
1 35
1 36
1 37
1 38
1 39
1 40
1 41
1 42
1 43
1 44
1 45
1 46
1 47
1 48
1 49
1 50
1 51
1 52
1 53
1 54
1 55
1 56
1 57
1 58
1 59
1 60
1 61
1 62
1 63
1 64
1 65
1 66
1 67
1 68
1 69
1 70
1 71
1 72
1 73
1 74
1 75
1 76
1 77
1 78
1 79
1 80
1 81
1 82
1 83
1 84
1 85
1 86
1 87
1 88
1 89
1 90
1 91
1 92
1 93
1 94
1 95
1 96
1 97
1 98
1 99
1 100
1 101
1 102
1 103
1 104
1 105
1 106
1 107
1 108
1 109
1 110
1 111
1 112
1 113
1 114
1 115
1 116
1 117
1 118
1 119
1 120
1 121
1 122
1 123
1 124
1 125
1 126
1 127
1 128
1 129
1 130
1 131
1 132
1 133
1 134
1 135
1 136
1 137
1 138
1 139
1 140
1 141
1 142
1 143
1 144
1 145
1 146
1 147
1 148
1 149
1 150
1 151
1 152
1 153
1 154
1 155
1 156
1 157
1 158
1 159
1 160
1 161
1 162
1 163
1 164
1 165
1 166
1 167
1 168
1 169
1 170
1 171
1 172
1 173
1 174
1 175
1 176
1 177
1 178
1 179
1 180
1 181
1 182
1 183
1 184
1 185
1 186
1 187
1 188
1 189
1 190
1 191
1 192
1 193
1 194
1 195
1 196
1 197
1 198
1 199
1 200
1 201
1 202
1 203
1 204
1 205
1 206
1 207
1 208
1 209
1 210
1 211
1 212
1 213
1 214
1 215
1 216
1 217
1 218
1 219
1 220
1 221
1 222
1 223
1 224
1 225
1 226
1 227
1 228
1 229
1 230
1 231
1 232
1 233
1 234
1 235
1 236
1 237
1 238
1 239
1 240
1 241
1 242
1 243
1 244
1 245
1 246
1 247
1 248
1 249
1 250
1 251
1 252
1 253
1 254
1 255
1 256
1 257
1 258
1 259
1 260
1 261
1 262
1 263
1 264
1 265
1 266
1 267
1 268
1 269
1 270
1 271
1 272
1 273
1 274
1 275
1 276
1 277
1 278
1 279
1 280
1 281
1 282
1 283
1 284
1 285
1 286

POINT_DATA 287
SCALARS id int 1
LOOKUP_TABLE default
1
2
3
4
5
6
7
8
9
10
11
12
13
14
15
16
17
18
19
21
22
23
24
25
26
27
28
29
30
31
32
33
34
35
36
37
38
39
41
42
44
45
46
47
48
49
50
51
52
53
54
55
56
57
59
60
61
62
63
64
65
66
67
68
69
70
71
72
73
74
76
77
78
79
80
81
82
83
84
85
86
87
88
89
90
91
92
93
94
95
96
97
98
99
100
101
102
103
104
105
106
107
108
109
110
111
112
113
114
115
116
117
118
119
120
121
122
123
124
125
126
127
128
129
130
131
132
133
134
135
136
137
138
140
141
142
143
144
146
147
148
149
150
151
153
154
155
156
157
158
159
160
162
164
165
166
167
168
169
170
171
172
173
174
175
176
177
178
179
181
182
183
184
185
186
187
188
189
190
191
192
193
194
195
196
197
198
199
200
201
202
203
204
205
206
207
208
209
210
211
212
213
214
215
216
217
218
219
220
221
222
223
224
225
226
227
228
229
230
231
232
233
234
235
236
237
239
240
241
242
243
244
246
247
248
249
250
251
252
253
254
255
256
257
258
259
260
261
262
263
264
265
266
267
268
269
270
271
272
273
274
275
276
277
278
279
280
281
282
283
284
285
286
287
288
289
290
291
292
293
294
295
296
297
298
299
300

SCALARS type int 1
LOOKUP_TABLE default
1
1
1
1
1
1
1
1
1
1
1
1
1
1
1
1
1
1
1
1
1
1
1
1
1
1
1
1
1
1
1
1
1
1
1
1
1
1
1
1
1
1
1
1
1
1
1
1
1
1
1
1
1
1
1
1
1
1
1
1
1
1
1
1
1
1
1
1
1
1
1
1
1
1
1
1
1
1
1
1
1
1
1
1
1
1
1
1
1
1
1
1
1
1
1
1
1
1
1
1
1
1
1
1
1
1
1
1
1
1
1
1
1
1
1
1
1
1
1
1
1
1
1
1
1
1
1
1
1
1
1
1
1
1
1
1
1
1
1
1
1
1
1
1
1
1
1
1
1
1
1
1
1
1
1
1
1
1
1
1
1
1
1
1
1
1
1
1
1
1
1
1
1
1
1
1
1
1
1
1
1
1
1
1
1
1
1
1
1
1
1
1
1
1
1
1
1
1
1
1
1
1
1
1
1
1
1
1
1
1
1
1
1
1
1
1
1
1
1
1
1
1
1
1
1
1
1
1
1
1
1
1
1
1
1
1
1
1
1
1
1
1
1
1
1
1
1
1
1
1
1
1
1
1
1
1
1
1
1
1
1
1
1
1
1
1
1
1
1
1
1
1
1
1
1
1
1
1
1
1
1
1
1
1
1
1
1

SCALARS radius float 1
LOOKUP_TABLE default
5e-05
5e-05
5e-05
5e-05
5e-05
5e-05
5e-05
5e-05
5e-05
5e-05
5e-05
5e-05
5e-05
5e-05
5e-05
5e-05
5e-05
5e-05
5e-05
5e-05
5e-05
5e-05
5e-05
5e-05
5e-05
5e-05
5e-05
5e-05
5e-05
5e-05
5e-05
5e-05
5e-05
5e-05
5e-05
5e-05
5e-05
5e-05
5e-05
5e-05
5e-05
5e-05
5e-05
5e-05
5e-05
5e-05
5e-05
5e-05
5e-05
5e-05
5e-05
5e-05
5e-05
5e-05
5e-05
5e-05
5e-05
5e-05
5e-05
5e-05
5e-05
5e-05
5e-05
5e-05
5e-05
5e-05
5e-05
5e-05
5e-05
5e-05
5e-05
5e-05
5e-05
5e-05
5e-05
5e-05
5e-05
5e-05
5e-05
5e-05
5e-05
5e-05
5e-05
5e-05
5e-05
5e-05
5e-05
5e-05
5e-05
5e-05
5e-05
5e-05
5e-05
5e-05
5e-05
5e-05
5e-05
5e-05
5e-05
5e-05
5e-05
5e-05
5e-05
5e-05
5e-05
5e-05
5e-05
5e-05
5e-05
5e-05
5e-05
5e-05
5e-05
5e-05
5e-05
5e-05
5e-05
5e-05
5e-05
5e-05
5e-05
5e-05
5e-05
5e-05
5e-05
5e-05
5e-05
5e-05
5e-05
5e-05
5e-05
5e-05
5e-05
5e-05
5e-05
5e-05
5e-05
5e-05
5e-05
5e-05
5e-05
5e-05
5e-05
5e-05
5e-05
5e-05
5e-05
5e-05
5e-05
5e-05
5e-05
5e-05
5e-05
5e-05
5e-05
5e-05
5e-05
5e-05
5e-05
5e-05
5e-05
5e-05
5e-05
5e-05
5e-05
5e-05
5e-05
5e-05
5e-05
5e-05
5e-05
5e-05
5e-05
5e-05
5e-05
5e-05
5e-05
5e-05
5e-05
5e-05
5e-05
5e-05
5e-05
5e-05
5e-05
5e-05
5e-05
5e-05
5e-05
5e-05
5e-05
5e-05
5e-05
5e-05
5e-05
5e-05
5e-05
5e-05
5e-05
5e-05
5e-05
5e-05
5e-05
5e-05
5e-05
5e-05
5e-05
5e-05
5e-05
5e-05
5e-05
5e-05
5e-05
5e-05
5e-05
5e-05
5e-05
5e-05
5e-05
5e-05
5e-05
5e-05
5e-05
5e-05
5e-05
5e-05
5e-05
5e-05
5e-05
5e-05
5e-05
5e-05
5e-05
5e-05
5e-05
5e-05
5e-05
5e-05
5e-05
5e-05
5e-05
5e-05
5e-05
5e-05
5e-05
5e-05
5e-05
5e-05
5e-05
5e-05
5e-05
5e-05
5e-05
5e-05
5e-05
5e-05
5e-05
5e-05
5e-05
5e-05
5e-05
5e-05
5e-05
5e-05
5e-05
5e-05
5e-05
5e-05
5e-05
5e-05
5e-05
5e-05
5e-05
5e-05
5e-05
5e-05
5e-05
5e-05
5e-05
5e-05
5e-05
5e-05
5e-05
5e-05
5e-05
5e-05
5e-05

SCALARS mass float 1
LOOKUP_TABLE default
1.46608e-10
1.46608e-10
1.46608e-10
1.46608e-10
1.46608e-10
1.46608e-10
1.46608e-10
1.46608e-10
1.46608e-10
1.46608e-10
1.46608e-10
1.46608e-10
1.46608e-10
1.46608e-10
1.46608e-10
1.46608e-10
1.46608e-10
1.46608e-10
1.46608e-10
1.46608e-10
1.46608e-10
1.46608e-10
1.46608e-10
1.46608e-10
1.46608e-10
1.46608e-10
1.46608e-10
1.46608e-10
1.46608e-10
1.46608e-10
1.46608e-10
1.46608e-10
1.46608e-10
1.46608e-10
1.46608e-10
1.46608e-10
1.46608e-10
1.46608e-10
1.46608e-10
1.46608e-10
1.46608e-10
1.46608e-10
1.46608e-10
1.46608e-10
1.46608e-10
1.46608e-10
1.46608e-10
1.46608e-10
1.46608e-10
1.46608e-10
1.46608e-10
1.46608e-10
1.46608e-10
1.46608e-10
1.46608e-10
1.46608e-10
1.46608e-10
1.46608e-10
1.46608e-10
1.46608e-10
1.46608e-10
1.46608e-10
1.46608e-10
1.46608e-10
1.46608e-10
1.46608e-10
1.46608e-10
1.46608e-10
1.46608e-10
1.46608e-10
1.46608e-10
1.46608e-10
1.46608e-10
1.46608e-10
1.46608e-10
1.46608e-10
1.46608e-10
1.46608e-10
1.46608e-10
1.46608e-10
1.46608e-10
1.46608e-10
1.46608e-10
1.46608e-10
1.46608e-10
1.46608e-10
1.46608e-10
1.46608e-10
1.46608e-10
1.46608e-10
1.46608e-10
1.46608e-10
1.46608e-10
1.46608e-10
1.46608e-10
1.46608e-10
1.46608e-10
1.46608e-10
1.46608e-10
1.46608e-10
1.46608e-10
1.46608e-10
1.46608e-10
1.46608e-10
1.46608e-10
1.46608e-10
1.46608e-10
1.46608e-10
1.46608e-10
1.46608e-10
1.46608e-10
1.46608e-10
1.46608e-10
1.46608e-10
1.46608e-10
1.46608e-10
1.46608e-10
1.46608e-10
1.46608e-10
1.46608e-10
1.46608e-10
1.46608e-10
1.46608e-10
1.46608e-10
1.46608e-10
1.46608e-10
1.46608e-10
1.46608e-10
1.46608e-10
1.46608e-10
1.46608e-10
1.46608e-10
1.46608e-10
1.46608e-10
1.46608e-10
1.46608e-10
1.46608e-10
1.46608e-10
1.46608e-10
1.46608e-10
1.46608e-10
1.46608e-10
1.46608e-10
1.46608e-10
1.46608e-10
1.46608e-10
1.46608e-10
1.46608e-10
1.46608e-10
1.46608e-10
1.46608e-10
1.46608e-10
1.46608e-10
1.46608e-10
1.46608e-10
1.46608e-10
1.46608e-10
1.46608e-10
1.46608e-10
1.46608e-10
1.46608e-10
1.46608e-10
1.46608e-10
1.46608e-10
1.46608e-10
1.46608e-10
1.46608e-10
1.46608e-10
1.46608e-10
1.46608e-10
1.46608e-10
1.46608e-10
1.46608e-10
1.46608e-10
1.46608e-10
1.46608e-10
1.46608e-10
1.46608e-10
1.46608e-10
1.46608e-10
1.46608e-10
1.46608e-10
1.46608e-10
1.46608e-10
1.46608e-10
1.46608e-10
1.46608e-10
1.46608e-10
1.46608e-10
1.46608e-10
1.46608e-10
1.46608e-10
1.46608e-10
1.46608e-10
1.46608e-10
1.46608e-10
1.46608e-10
1.46608e-10
1.46608e-10
1.46608e-10
1.46608e-10
1.46608e-10
1.46608e-10
1.46608e-10
1.46608e-10
1.46608e-10
1.46608e-10
1.46608e-10
1.46608e-10
1.46608e-10
1.46608e-10
1.46608e-10
1.46608e-10
1.46608e-10
1.46608e-10
1.46608e-10
1.46608e-10
1.46608e-10
1.46608e-10
1.46608e-10
1.46608e-10
1.46608e-10
1.46608e-10
1.46608e-10
1.46608e-10
1.46608e-10
1.46608e-10
1.46608e-10
1.46608e-10
1.46608e-10
1.46608e-10
1.46608e-10
1.46608e-10
1.46608e-10
1.46608e-10
1.46608e-10
1.46608e-10
1.46608e-10
1.46608e-10
1.46608e-10
1.46608e-10
1.46608e-10
1.46608e-10
1.46608e-10
1.46608e-10
1.46608e-10
1.46608e-10
1.46608e-10
1.46608e-10
1.46608e-10
1.46608e-10
1.46608e-10
1.46608e-10
1.46608e-10
1.46608e-10
1.46608e-10
1.46608e-10
1.46608e-10
1.46608e-10
1.46608e-10
1.46608e-10
1.46608e-10
1.46608e-10
1.46608e-10
1.46608e-10
1.46608e-10
1.46608e-10
1.46608e-10
1.46608e-10
1.46608e-10
1.46608e-10
1.46608e-10
1.46608e-10
1.46608e-10
1.46608e-10
1.46608e-10
1.46608e-10
1.46608e-10
1.46608e-10
1.46608e-10
1.46608e-10
1.46608e-10
1.46608e-10
1.46608e-10
1.46608e-10
1.46608e-10
1.46608e-10

VECTORS velocity float
0.00625948 0.000482104 -0.000194798
0.00565252 0.000389303 -0.0001432
0.00587244 0.000107353 -1.34405e-05
0.00563693 0.000389921 -0.000191484
0.00608936 0.000304371 -6.67835e-05
0.00598318 -0.000361021 0.000483974
0.00569354 0.000393934 -0.000143693
0.00615566 0.000190596 -0.000259732
0.00537879 -0.000408044 0.000360717
0.00585491 0.000357034 -0.000113372
0.00571683 0.000381289 -0.000133376
0.00594919 0.000104166 -8.9233e-06
0.00609405 0.000298304 -6.09941e-05
0.00580595 -0.00027821 -0.000369164
0.00567192 0.000399947 -0.000149665
0.00578417 -0.000272245 -0.000369617
0.00602872 0.000326757 -8.79207e-05
0.00551382 -0.000298707 0.000419227
0.00610065 0.000292398 -6.03024e-05
0.00626616 0.0004774 -0.000190093
0.00568544 0.000406669 -0.000156034
0.00577573 0.000166347 -7.46127e-05
0.00564509 -0.000461268 0.00022662
0.00572465 0.000380238 -0.000134433
0.00564354 -0.00030895 0.000431364
0.00579284 0.000126794 -3.45613e-05
0.00571693 0.000383714 -0.000193266
0.00611673 0.000234027 -0.000146885
0.00569372 0.000389435 -0.000140676
0.00568647 0.000404021 -0.000150089
0.00568139 0.000403587 -0.000152851
0.00597945 -0.000360826 0.000483695
0.00604431 0.000321948 -8.24693e-05
0.00568877 0.000387841 -0.000140108
0.00536858 -0.000400251 0.000361231
0.00574944 0.000394354 -0.000143553
0.00566104 0.000379096 -0.000134837
0.00558716 -0.000449302 0.000290639
0.00606898 0.000315199 -7.68284e-05
0.00567481 0.000411625 -0.000160785
0.00562561 0.000394922 -0.000147341
0.00556579 -0.000298171 0.0004202
0.0055572 -0.000300505 0.000422116
0.00605733 0.000319817 -8.04234e-05
0.00568239 0.000418027 -0.000162161
0.00559825 -0.000303844 0.000425852
0.00571589 0.000388003 -0.000192984
0.00572416 0.000392216 -0.000194086
0.00595066 0.000102178 -6.64263e-06
0.00546887 -0.000294449 0.000413415
0.00634014 0.000385261 -0.000399877
0.00585109 2.88864e-06 -0.000115969
0.00568431 0.000383341 -0.000136927
0.00561461 -0.000304877 0.000427211
0.00571553 0.000355452 -0.000115631
0.00567036 0.00036452 -0.000123601
0.00607846 0.000310308 -7.29926e-05
0.00566489 0.000390155 -0.000141904
0.00570271 0.000396275 -0.00015265
0.00550167 -0.000427197 0.000255403
0.0059667 0.000115868 -2.02766e-05
0.00594537 9.94076e-05 -4.31866e-06
0.00569128 0.00038427 -0.000138565
0.00571415 0.000377755 -0.000159741
0.00617663 0.000473376 -0.000191717
0.00542529 -0.000416561 0.000366183
0.00582682 -0.000192123 -0.000291671
0.00570514 0.000392176 -0.000141161
0.00578475 0.000368069 -0.000124904
0.00564885 0.000415765 -0.00016133
0.00557284 0.00017638 -6.5077e-05
0.00598443 0.000323829 -0.000205803
0.00587904 0.000106831 -1.24453e-05
0.00595087 0.000103454 -8.70533e-06
0.00566188 0.000373765 -0.000185132
0.00593713 0.000100108 -5.09108e-06
0.00575239 0.000127368 -3.22719e-05
0.00592672 0.000108476 -1.34455e-05
0.00539899 -0.000410685 0.000363534
0.00589157 9.87838e-05 -4.39191e-06
0.00572174 0.000378129 -0.000241906
0.00574801 0.000350984 -0.000111709
0.00597548 0.000313403 -0.000205331
0.00563438 0.000313786 -0.000152794
0.00563202 0.000395643 -0.000147129
0.00591273 0.00010968 -1.57869e-05
0.00578191 0.000337458 -0.00019763
0.00599402 0.000328245 -0.000204983
0.00598924 0.000318394 -0.000205658
0.00567023 0.000395923 -0.00019187
0.00583722 0.000335383 -0.000199552
0.00591887 0.000103608 -8.23619e-06
0.00597778 0.000325148 -0.000205399
0.00595711 0.000117384 -2.1944e-05
0.00567795 0.000391418 -0.000143317
0.00590875 9.77625e-05 -2.5235e-06
4.32945e-15 1.04437e-14 8.29637e-14
-1.01195e-22 4.01299e-22 8.29106e-22
0.00558745 0.0001679 -7.78998e-05
0.00589994 0.00010256 -8.16064e-06
0.00561882 0.000197092 -0.000109379
0.00589011 0.000106154 -1.09631e-05
0.00582026 0.00042002 -0.000160833
0.00571292 0.000397528 -0.000179854
0.00592789 0.000343732 -0.000204331
0.00599042 0.00033516 -0.000205347
0.00592146 0.000103083 -8.17718e-06
0.00568192 3.04269e-05 -6.28554e-05
0.00575169 0.000189679 -9.78613e-05
0.00567554 0.000402131 -0.000158439
0.00588359 0.000382955 -0.000131766
0.00631474 0.000365533 -0.000387493
0.00586507 0.000107233 -1.59788e-05
0.00568524 0.000366321 -0.000124023
0.00614016 0.000179697 -0.000245887
0.00617137 0.000202528 -0.000267731
0.00595873 0.000336881 -0.000204556
0.00590025 9.93528e-05 -6.43085e-06
0.00567985 0.000389309 -0.000195366
0.00633636 0.000383086 -0.000396023
0.0056603 0.00042247 -0.000162457
0.00590781 0.00010362 -8.96391e-06
0.00567999 0.000399836 -0.000191945
0.00595644 0.000306846 -0.000205856
0.00573497 0.000173313 -8.43202e-05
0.00596071 0.000116034 -2.05056e-05
0.0056897 0.000385262 -0.000190275
0.00682839 0.00108431 -0.000625844
0.00568079 0.000368804 -0.000126272
0.00613156 0.000183974 -0.000254237
0.00587784 0.000100013 -5.68899e-06
0.00599591 0.000337166 -0.000205756
0.00619133 0.000461485 -0.000181451
0.00596368 0.000334723 -0.000204267
0.00589833 9.92621e-05 -4.2272e-06
0.00573403 0.000192309 -0.000100897
0.00589676 0.00010451 -8.91674e-06
0.0057829 0.000186037 -9.39891e-05
0.00597877 0.000125256 -2.94892e-05
0.00586735 0.000100774 -5.65577e-06
0.00563531 0.000122546 -3.02299e-05
0.00596871 0.000333162 -0.000204828
0.00597571 0.000140333 -4.44781e-05
0.00567757 0.000200439 -7.4435e-05
0.00589622 9.9038e-05 -4.36543e-06
0.00561577 0.000190071 -7.72808e-05
0.00558952 0.000175627 -6.48691e-05
0.00568007 0.000182834 -0.000104292
-3.83859e-14 8.1643e-14 2.95887e-13
0.00558127 0.00018204 -8.22665e-05
0.00573285 0.000339645 -0.000217134
0.00556717 0.000170583 -6.50239e-05
0.00558436 0.000178019 -6.59024e-05
0.00582367 0.000120431 -6.62998e-05
0.00558287 0.000112399 -6.30732e-05
0.00684503 0.000950318 -0.000802542
0.00598408 0.000138025 -4.22103e-05
0.00556751 0.000190686 -0.000104396
0.00571713 6.86605e-05 -6.40321e-05
0.00557133 0.000170911 -6.48325e-05
0.00684042 0.000950768 -0.000801575
0.00560107 0.000216298 -6.56377e-05
0.00572403 0.000386006 -0.00013863
0.00556206 0.000179928 -6.46694e-05
0.00531153 -0.000491257 -7.75611e-05
0.00571137 0.00018284 -9.10824e-05
0.00551532 0.000175057 -6.38687e-05
0.00564508 4.32445e-05 -6.26749e-05
0.00566749 7.98871e-05 -6.37634e-05
0.00557432 0.000139429 -5.14125e-05
0.00633853 0.000577047 -0.000263946
0.00560349 0.000195406 -6.70855e-05
0.00574188 0.000395206 -0.000215152
0.0056335 0.000167881 -2.27433e-05
0.00560795 0.000127484 -6.27873e-05
0.00571316 0.000384298 -0.000137191
0.00597404 0.000327964 -0.000205266
0.00564872 0.000394289 -0.000145782
0.00452333 0.003035 -0.00151786
0.00599936 0.000333691 -0.000205724
0.00574305 0.000199576 -0.000108001
0.00584774 0.00033859 -9.96419e-05
0.00597062 0.000160516 -6.50659e-05
0.00563282 9.20614e-05 -6.34121e-05
0.00577239 -0.000270129 -0.000370756
0.00561754 0.000644062 -0.000571189
0.00584322 0.000119665 -2.61404e-05
0.00557269 0.000176093 -6.33587e-05
0.00583677 0.000161791 -6.83023e-05
0.00583905 9.87135e-05 -6.5853e-05
0.00569254 0.00019741 -0.000106737
0.00573536 0.000332715 -0.000100604
0.0058549 0.000131102 -3.72977e-05
0.00571962 0.000138476 -6.52287e-05
0.00556037 0.000176405 -6.86594e-05
0.00589986 9.90874e-05 -5.1788e-06
0.00557604 0.000180876 -6.95393e-05
0.00600001 0.000140149 -4.41242e-05
0.00566761 0.000435315 -0.000155305
0.00590869 0.000327785 -0.000203764
0.00560785 0.000161754 -6.44028e-05
0.00570591 0.000373664 -0.000129355
0.00552222 0.00032526 -0.00019384
0.00530163 0.00286177 -0.00148661
0.00553878 0.000172061 -6.39457e-05
0.00645744 0.000754911 -0.000392253
0.00576356 0.000146546 -6.58023e-05
0.00598755 0.000331821 -0.000205417
0.00555669 0.000140348 -6.50871e-05
0.00671267 0.000721079 -0.000662146
0.00642885 0.000757538 -0.000394645
0.00565723 0.000157864 -6.65635e-05
0.00585643 8.58127e-05 -5.33388e-06
0.00576789 0.000370895 -0.000175283
0.00563559 0.000222429 -6.44317e-05
0.00612346 0.00210909 -0.00121435
0.00533574 -0.000471408 -8.71977e-05
0.00565811 0.000152174 -5.87174e-05
0.00583853 0.00010283 -6.58589e-05
0.00530852 -0.000449242 -9.5364e-05
0.00589498 9.87881e-05 -5.00885e-06
0.00591213 0.00017012 -7.57e-05
0.0059747 0.000325268 -0.000205335
0.0058466 0.000101345 -6.58044e-05
0.00583229 9.47715e-05 -6.45551e-05
0.00584621 0.000104834 -6.62153e-05
0.0056014 -0.000374784 0.000606291
0.00559215 -0.000373238 0.000604908
0.00560449 -0.000375305 0.000606753
0.00580507 0.000206759 -0.000114073
0.00593112 0.000125631 -3.03354e-05
0.00559832 -0.000374268 0.000605832
0.00539741 -0.000475955 -8.89682e-05
0.00579722 0.000120649 -6.61217e-05
0.00577721 5.79909e-05 -6.43816e-05
0.00563177 0.000623175 -0.000563168
0.00565374 0.000166708 -6.52082e-05
0.00588537 0.000351721 -0.000235281
0.00565967 0.00058898 -0.000550286
0.00605837 0.00067931 -0.000609307
0.00575885 0.000130436 -0.000362831
0.00585915 0.000101387 -5.97043e-06
0.00563721 0.000158091 -6.51381e-05
0.00580756 0.000110731 -6.6116e-05
0.00581166 0.000131812 -6.6129e-05
0.00567402 0.000574542 -0.000544984
0.00583603 0.000178263 -8.56042e-05
0.00584378 9.49244e-05 -6.64344e-05
0.00583978 0.000101015 -6.58644e-05
0.00558597 -0.000372186 0.00060401
0.0058257 0.00013664 -6.64389e-05
0.00560368 0.000666895 -0.000580046
0.00570461 0.000176864 -8.60899e-05
0.00582117 0.000122306 -6.61133e-05
0.00552753 0.00028797 -0.000336314
0.00579487 0.000105431 -6.52802e-05
0.00584166 0.000359686 -0.000242321
0.00565924 0.000148018 -6.48939e-05
0.0061026 0.000266547 -0.000438426
0.00584784 9.85032e-05 -6.59533e-05
0.0060465 0.000278996 -0.000440691
0.00581326 0.000121199 -6.63106e-05
0.00580188 0.000192013 -6.65663e-05
0.00585501 8.65589e-05 -6.59656e-05
0.00576136 0.000117587 -6.53256e-05
0.0052463 -0.000452652 -8.96279e-05
0.00396475 0.00694666 -0.00313237
0.00586428 0.000203526 -0.00010956
0.00655856 0.00144464 -0.000958063
0.00559523 -0.000373748 0.000605379
0.00583558 0.000100862 -6.82577e-05
0.00583502 0.000114954 -6.64504e-05
0.00583487 0.000118195 -6.6394e-05
0.00581674 0.000121178 -6.61636e-05
0.00584056 0.000108667 -6.48717e-05
0.00594345 0.00019653 -0.000101576
0.00576909 0.000204569 -0.000112753
0.00581407 0.000104247 -6.57435e-05
0.00590082 0.000100094 -2.9795e-06
0.00571364 0.000132541 -6.51742e-05
0.0058598 7.38776e-05 -6.55203e-05
0.00570173 0.00258436 -0.00139129
0.00585014 0.000106687 -6.61771e-05
0.0056575 0.000366431 -0.000125333
0.00558904 -0.000372706 0.000604473
0.00564563 0.000605121 -0.00055632
0.00567486 0.000357333 -0.000127767

VECTORS force float
-9.11118e-11 1.0582e-10 -9.15019e-11
-4.42139e-11 8.41978e-11 -7.11338e-11
1.42157e-11 -2.66231e-11 1.82718e-11
-9.09747e-11 1.42987e-10 -5.22414e-11
-4.2748e-12 8.9506e-11 -6.01257e-11
-1.97124e-12 -2.90829e-12 2.56788e-12
3.04725e-12 -3.74806e-11 2.26376e-11
-3.47724e-11 -9.13299e-11 7.98319e-11
-1.86792e-10 8.36834e-11 -1.39491e-11
-6.80959e-11 -5.61966e-12 5.50444e-12
-7.50875e-11 8.71613e-11 -5.49265e-11
-7.36619e-11 1.78798e-11 -2.32717e-11
-2.31136e-12 7.12333e-11 -7.40787e-11
-1.63868e-11 -3.60936e-12 2.14612e-11
9.27644e-11 -2.16537e-11 9.344e-12
-2.27409e-11 1.33944e-12 1.3497e-12
2.59546e-12 -8.17563e-12 7.05887e-12
6.5678e-12 -3.75586e-11 2.36659e-11
4.33464e-11 4.49496e-11 -1.30106e-11
-1.02706e-10 1.28467e-10 -1.10175e-10
6.78958e-11 -5.82203e-11 -1.8011e-11
-3.7005e-11 -4.22686e-13 -2.33686e-12
2.4102e-11 9.17962e-11 8.97263e-12
6.73759e-14 -5.29707e-11 3.10433e-11
-2.58839e-11 -9.24421e-12 -3.65929e-12
-1.05506e-10 -2.43612e-11 2.27554e-11
-9.37422e-11 9.12726e-11 -1.30616e-11
4.85572e-11 -1.58881e-11 1.23134e-11
1.2146e-10 6.25193e-11 -5.56554e-11
-1.51827e-12 -2.21405e-11 -2.26258e-12
4.76011e-11 -7.14431e-11 5.92927e-11
4.83832e-12 4.22649e-12 -2.77204e-12
6.02911e-11 6.79465e-12 7.26884e-15
-6.60319e-11 -1.57022e-11 -1.02648e-11
-2.73345e-11 -8.69439e-11 7.50425e-12
-1.80568e-11 -6.95026e-11 4.42776e-11
9.31692e-11 6.03089e-14 3.94355e-12
4.90973e-12 8.28602e-11 -1.13439e-10
-4.06373e-11 6.22136e-11 -4.47702e-11
8.44555e-11 -2.55686e-11 -1.57078e-12
-7.75234e-11 9.36812e-11 -7.10342e-11
-3.55643e-12 1.13184e-11 -9.24156e-12
3.46941e-12 -3.87524e-11 2.74891e-11
-3.99996e-11 2.90969e-11 -1.92749e-11
1.62297e-11 3.13508e-11 -5.18944e-11
-1.02538e-11 -1.39301e-11 1.63886e-11
-3.60793e-11 -6.91393e-11 5.07022e-11
1.20489e-11 3.90574e-11 1.24417e-11
-6.16074e-11 4.31547e-11 -4.76597e-11
-9.62132e-12 1.10278e-11 1.99014e-11
-3.15631e-11 8.13927e-11 -8.43489e-11
1.76327e-11 -1.02255e-10 -4.60508e-11
-3.35163e-11 -3.69284e-11 4.57031e-11
2.89717e-11 7.86794e-12 -5.45926e-12
-9.05075e-11 2.46372e-11 -2.64388e-11
4.45455e-11 1.12156e-11 -6.28774e-12
5.11596e-12 9.59499e-11 -6.32908e-11
5.41463e-11 7.39593e-11 -6.51606e-11
1.02309e-12 2.70605e-11 9.0494e-11