# vtk DataFile Version 3.0
LIGGGHTS particles timestep 18400000
ASCII
DATASET POLYDATA
POINTS 287 float
0.120093 0.0162813 0.00791922
0.120565 0.0174894 0.00725396
0.113869 0.0158178 0.00842106
0.120413 0.0176147 0.00721956
0.119978 0.0161934 0.00801801
0.126097 0.0166184 0.00759434
0.120151 0.0168221 0.00740781
0.119882 0.0158659 0.00838327
0.126365 0.0177576 0.00706041
0.120092 0.0165876 0.00758036
0.120632 0.0176728 0.00720958
0.114069 0.0165775 0.00780389
0.119959 0.0161276 0.00809083
0.113787 0.0155292 0.00868181
0.120286 0.0170436 0.00735247
0.113766 0.0154565 0.00874742
0.120073 0.0165203 0.00765186
0.126236 0.0172004 0.0072313
0.11994 0.0160621 0.008164
0.120074 0.0162158 0.00799238
0.120189 0.0170115 0.00735662
0.114268 0.0170086 0.00751289
0.1263 0.0174723 0.00712644
0.120131 0.016733 0.00744897
0.126175 0.0169512 0.00738678
0.114152 0.0169036 0.00758781
0.120395 0.0175188 0.00724202
0.119921 0.0159968 0.00823731
0.120449 0.0173604 0.00728213
0.12017 0.0169159 0.00737894
0.120265 0.0169483 0.00737464
0.126116 0.0167016 0.00754245
0.120054 0.0164549 0.00772502
0.120245 0.0168529 0.0073969
0.126409 0.0179478 0.00701639
0.120209 0.0166797 0.00748281
0.120383 0.0170754 0.00734835
0.126322 0.0175674 0.00710443
0.120016 0.016324 0.00787133
0.12021 0.0171066 0.00733451
0.120405 0.0171705 0.00732625
0.126136 0.0167848 0.00749056
0.126215 0.0171175 0.00728302
0.120035 0.0163907 0.00779936
0.120254 0.0172971 0.00729023
0.126195 0.0170343 0.00733492
0.120319 0.0175803 0.00722438
0.120298 0.0174892 0.00726035
0.114048 0.0164959 0.00785794
0.126258 0.0172868 0.00718601
0.120055 0.0161503 0.00806558
0.113828 0.0156744 0.00855061
0.120224 0.0167556 0.00741958
0.126156 0.016868 0.00743867
0.120305 0.0167145 0.00747899
0.120321 0.0167896 0.0074149
0.119997 0.0162585 0.0079445
0.120427 0.0172655 0.00730419
0.120351 0.0173288 0.00728614
0.126278 0.0173772 0.00714845
0.114185 0.0166825 0.00772896
0.114122 0.0164397 0.00789371
0.120583 0.0175883 0.00723081
0.120489 0.0175529 0.00723725
0.12015 0.0164779 0.00769944
0.126344 0.0176625 0.00708242
0.113807 0.0156018 0.00861621
0.120471 0.0174555 0.00726003
0.120112 0.0166575 0.00751169
0.120307 0.0171387 0.00733035
0.114393 0.0174977 0.00718879
0.120439 0.0181093 0.00710139
0.113889 0.0158904 0.00835542
0.114089 0.016659 0.00774987
0.120361 0.0177723 0.00725496
0.114027 0.0164144 0.00791196
0.114173 0.0169852 0.00753379
0.114218 0.0164615 0.00787002
0.126387 0.0178527 0.0070384
0.114003 0.0159906 0.0082721
0.120374 0.0174237 0.00726413
0.120286 0.0166375 0.00753976
0.120374 0.0178209 0.00716843
0.120427 0.0178767 0.00723244
0.120546 0.0173913 0.00727697
0.11411 0.0167406 0.00769585
0.120569 0.0178293 0.0071736
0.120491 0.0178892 0.0071563
0.120635 0.0181162 0.00710692
0.120575 0.0178975 0.00724652
0.120591 0.0179245 0.00715147
0.113987 0.0162581 0.00803118
0.120395 0.017916 0.00714633
0.114164 0.016601 0.00778298
0.120501 0.0172013 0.00732186
0.114102 0.0163615 0.00795242
0.0643568 0.0187248 0.00531097
0.24257 0.0191927 0.00520306
0.114469 0.0174408 0.00722107
0.113948 0.0161095 0.00815902
0.114545 0.0173845 0.00725288
0.113909 0.0159632 0.00828972
0.12019 0.0166096 0.00755222
0.120276 0.0173921 0.00726812
0.120523 0.0184819 0.0070147
0.120577 0.0182693 0.00706792
0.114006 0.0163328 0.007966
0.114759 0.0181947 0.00708306
0.114406 0.0171962 0.00738313
0.120329 0.0172338 0.00730824
0.12017 0.0165437 0.00762595
0.120036 0.0160849 0.00813872
0.113849 0.0157566 0.00849762
0.120341 0.016885 0.00739268
0.119902 0.0159312 0.00831028
0.119861 0.0158007 0.00845623
0.120503 0.0183978 0.0070652
0.114043 0.016136 0.00814056
0.120469 0.0177942 0.0071784
0.120017 0.0160194 0.00821189
0.120232 0.017202 0.00731233
0.113967 0.0161814 0.00809227
0.120339 0.0176751 0.00724908
0.120593 0.0179936 0.00722369
0.114289 0.0170901 0.00745887
0.114143 0.0165195 0.00783717
0.120415 0.017712 0.00719621
0.120207 0.0163673 0.00782374
0.120362 0.0169802 0.0073705
0.119998 0.0159539 0.00828507
0.113984 0.0159179 0.00833789
0.120461 0.0182052 0.00707911
0.120131 0.0164122 0.00777289
0.120596 0.0183652 0.00704549
0.114023 0.0160633 0.00820637
0.114427 0.0172778 0.0073291
0.113928 0.0160359 0.00822386
0.114384 0.0171137 0.00743787
0.114238 0.016543 0.007816
0.113964 0.0158451 0.0084037
0.114235 0.0172295 0.00737188
0.120556 0.0181742 0.00709003
0.11428 0.016706 0.00770796
0.114665 0.0174736 0.00718802
0.114081 0.0162815 0.00800892
0.114351 0.0173347 0.00729681
0.114415 0.0175798 0.0071344
0.114331 0.0172532 0.00735083
0.0219312 0.0187687 0.00551176
0.114528 0.0178294 0.00711446
0.120506 0.0176504 0.00721438
0.114298 0.0174741 0.00720984
0.114256 0.0173111 0.00731786
0.114593 0.0179791 0.00705125
0.114716 0.0177419 0.00707356
0.120169 0.0162361 0.00796982
0.114259 0.0166245 0.00776198
0.114566 0.0174661 0.00719885
0.114782 0.0180432 0.00707008
0.114586 0.0175478 0.00714477
0.120189 0.0163015 0.00789679
0.114703 0.0176445 0.00709265
0.120669 0.0178641 0.0071647
0.11451 0.0176047 0.0071125
0.108258 0.0173582 0.00744292
0.11431 0.0171716 0.00740486
0.11434 0.0176373 0.00710199
0.114833 0.0179551 0.00706509
0.114738 0.0179251 0.00705583
0.114297 0.0174888 0.00730875
0.120112 0.0163467 0.00784607
0.11449 0.0175229 0.00716663
0.120648 0.0177689 0.00718715
0.114214 0.017148 0.00742589
0.11431 0.0174024 0.00735765
0.120479 0.0171063 0.00734429
0.120512 0.0179856 0.00714005
0.120524 0.0172962 0.00729941
0.108399 0.0175718 0.00736424
0.120483 0.0183002 0.007057
0.114503 0.0172215 0.0073609
0.120265 0.0165656 0.00760632
0.114322 0.0168691 0.00759991
0.11476 0.0178279 0.00704798
0.113746 0.0153839 0.00881302
0.108323 0.0176294 0.00733226
0.114131 0.0168221 0.00764183
0.114277 0.0173926 0.00726383
0.114247 0.0169271 0.00756689
0.114707 0.01811 0.00707146
0.114524 0.017303 0.0073069
0.120677 0.0183097 0.00706186
0.114226 0.0168455 0.00762092
0.114562 0.0180182 0.00713798
0.114529 0.0176877 0.00705783
0.114062 0.0162088 0.00807476
0.114373 0.0174162 0.00724281
0.114301 0.0167876 0.00765393
0.120474 0.0177494 0.00726768
0.120613 0.01802 0.00712927
0.114604 0.0176306 0.00709005
0.120457 0.0170113 0.00736654
0.120713 0.0180541 0.00711985
0.108377 0.0174814 0.00740113
0.114319 0.0175556 0.00715583
0.120226 0.0164325 0.00775034
0.114446 0.0177562 0.00702
0.120534 0.0180791 0.00711214
0.114388 0.017705 0.00715754
0.108269 0.0170291 0.00758479
0.120246 0.0164979 0.00767724
0.114448 0.0173592 0.00727509
0.114194 0.0170693 0.00748411
0.120555 0.0177373 0.00721009
0.114685 0.0175553 0.00713394
0.108334 0.0173006 0.00747491
0.10828 0.0174486 0.00740604
0.114322 0.0175694 0.00725482
0.114633 0.0181767 0.00707283
0.108237 0.0172678 0.00747981
0.114196 0.016381 0.00792626
0.114343 0.0169506 0.0075459
0.120417 0.0180111 0.00712422
0.114522 0.0184922 0.00709559
0.114694 0.0184471 0.00710283
0.114542 0.0185896 0.00710626
0.108043 0.0164522 0.00780721
0.108107 0.0167255 0.00770114
0.108024 0.0163602 0.00784143
0.114459 0.0170556 0.00747096
0.114206 0.016764 0.00767494
0.108063 0.016544 0.00777299
0.108193 0.0170871 0.00755359
0.114477 0.0178505 0.00703115
0.114685 0.0182613 0.00708443
0.108345 0.0177198 0.00729537
0.114435 0.0176619 0.00708054
0.120658 0.0182125 0.00708457
0.108388 0.0179005 0.0072216
0.108312 0.0172103 0.00751179
0.108172 0.0169967 0.00759047
0.113943 0.0157723 0.00846944
0.114549 0.0177813 0.00702936
0.114404 0.0179182 0.00703266
0.114437 0.0179523 0.00712062
0.10841 0.0179909 0.00718471
0.114363 0.0170322 0.00749188
0.114597 0.0184257 0.00709423
0.114609 0.0183268 0.00708561
0.10815 0.0169063 0.00762736
0.114424 0.0180154 0.007044
0.108302 0.017539 0.00736915
0.114644 0.017392 0.00724205
0.114519 0.0180465 0.00705268
0.11442 0.0175004 0.00728515
0.114385 0.0178241 0.00706109
0.120691 0.017959 0.00714228
0.114623 0.0177139 0.00703505
0.108453 0.0181717 0.00711093
0.114463 0.0182072 0.0070815
0.108432 0.0180813 0.00714782
0.114498 0.0179487 0.00704197
0.114361 0.0177271 0.00706379
0.114483 0.0183004 0.00711157
0.114572 0.0178808 0.00704042
0.108215 0.0171774 0.0075167
0.10842 0.0176622 0.00732735
0.114438 0.016974 0.00752501
0.10829 0.0171199 0.00754868
0.108085 0.0166351 0.00773802
0.114556 0.0182432 0.007074
0.114539 0.0181447 0.00706342
0.114444 0.0181129 0.00705401
0.114613 0.018078 0.00706206
0.114548 0.0182553 0.00717293
0.114417 0.0168925 0.00757903
0.114483 0.01714 0.00741492
0.114688 0.0180113 0.00706067
0.114176 0.0163083 0.00799197
0.114644 0.0178115 0.00703864
0.114502 0.0183949 0.00708491
0.108355 0.017391 0.00743802
0.114617 0.018523 0.00710491
0.120436 0.0169157 0.00738877
0.108128 0.0168159 0.00766425
0.108367 0.0178102 0.00725849
0.120743 0.0177976 0.00717656

VERTICES 287 574
1 0
1 1
1 2
1 3
1 4
1 5
1 6
1 7
1 8
1 9
1 10
1 11
1 12
1 13
1 14
1 15
1 16
1 17
1 18
1 19
1 20
1 21
1 22
1 23
1 24
1 25
1 26
1 27
1 28
1 29
1 30
1 31
1 32
1 33
1 34
1 35
1 36
1 37
1 38
1 39
1 40
1 41
1 42
1 43
1 44
1 45
1 46
1 47
1 48
1 49
1 50
1 51
1 52
1 53
1 54
1 55
1 56
1 57
1 58
1 59
1 60
1 61
1 62
1 63
1 64
1 65
1 66
1 67
1 68
1 69
1 70
1 71
1 72
1 73
1 74
1 75
1 76
1 77
1 78
1 79
1 80
1 81
1 82
1 83
1 84
1 85
1 86
1 87
1 88
1 89
1 90
1 91
1 92
1 93
1 94
1 95
1 96
1 97
1 98
1 99
1 100
1 101
1 102
1 103
1 104
1 105
1 106
1 107
1 108
1 109
1 110
1 111
1 112
1 113
1 114
1 115
1 116
1 117
1 118
1 119
1 120
1 121
1 122
1 123
1 124
1 125
1 126
1 127
1 128
1 129
1 130
1 131
1 132
1 133
1 134
1 135
1 136
1 137
1 138
1 139
1 140
1 141
1 142
1 143
1 144
1 145
1 146
1 147
1 148
1 149
1 150
1 151
1 152
1 153
1 154
1 155
1 156
1 157
1 158
1 159
1 160
1 161
1 162
1 163
1 164
1 165
1 166
1 167
1 168
1 169
1 170
1 171
1 172
1 173
1 174
1 175
1 176
1 177
1 178
1 179
1 180
1 181
1 182
1 183
1 184
1 185
1 186
1 187
1 188
1 189
1 190
1 191
1 192
1 193
1 194
1 195
1 196
1 197
1 198
1 199
1 200
1 201
1 202
1 203
1 204
1 205
1 206
1 207
1 208
1 209
1 210
1 211
1 212
1 213
1 214
1 215
1 216
1 217
1 218
1 219
1 220
1 221
1 222
1 223
1 224
1 225
1 226
1 227
1 228
1 229
1 230
1 231
1 232
1 233
1 234
1 235
1 236
1 237
1 238
1 239
1 240
1 241
1 242
1 243
1 244
1 245
1 246
1 247
1 248
1 249
1 250
1 251
1 252
1 253
1 254
1 255
1 256
1 257
1 258
1 259
1 260
1 261
1 262
1 263
1 264
1 265
1 266
1 267
1 268
1 269
1 270
1 271
1 272
1 273
1 274
1 275
1 276
1 277
1 278
1 279
1 280
1 281
1 282
1 283
1 284
1 285
1 286

POINT_DATA 287
SCALARS id int 1
LOOKUP_TABLE default
1
2
3
4
5
6
7
8
9
10
11
12
13
14
15
16
17
18
19
21
22
23
24
25
26
27
28
29
30
31
32
33
34
35
36
37
38
39
41
42
44
45
46
47
48
49
50
51
52
53
54
55
56
57
59
60
61
62
63
64
65
66
67
68
69
70
71
72
73
74
76
77
78
79
80
81
82
83
84
85
86
87
88
89
90
91
92
93
94
95
96
97
98
99
100
101
102
103
104
105
106
107
108
109
110
111
112
113
114
115
116
117
118
119
120
121
122
123
124
125
126
127
128
129
130
131
132
133
134
135
136
137
138
140
141
142
143
144
146
147
148
149
150
151
153
154
155
156
157
158
159
160
162
164
165
166
167
168
169
170
171
172
173
174
175
176
177
178
179
181
182
183
184
185
186
187
188
189
190
191
192
193
194
195
196
197
198
199
200
201
202
203
204
205
206
207
208
209
210
211
212
213
214
215
216
217
218
219
220
221
222
223
224
225
226
227
228
229
230
231
232
233
234
235
236
237
239
240
241
242
243
244
246
247
248
249
250
251
252
253
254
255
256
257
258
259
260
261
262
263
264
265
266
267
268
269
270
271
272
273
274
275
276
277
278
279
280
281
282
283
284
285
286
287
288
289
290
291
292
293
294
295
296
297
298
299
300

SCALARS type int 1
LOOKUP_TABLE default
1
1
1
1
1
1
1
1
1
1
1
1
1
1
1
1
1
1
1
1
1
1
1
1
1
1
1
1
1
1
1
1
1
1
1
1
1
1
1
1
1
1
1
1
1
1
1
1
1
1
1
1
1
1
1
1
1
1
1
1
1
1
1
1
1
1
1
1
1
1
1
1
1
1
1
1
1
1
1
1
1
1
1
1
1
1
1
1
1
1
1
1
1
1
1
1
1
1
1
1
1
1
1
1
1
1
1
1
1
1
1
1
1
1
1
1
1
1
1
1
1
1
1
1
1
1
1
1
1
1
1
1
1
1
1
1
1
1
1
1
1
1
1
1
1
1
1
1
1
1
1
1
1
1
1
1
1
1
1
1
1
1
1
1
1
1
1
1
1
1
1
1
1
1
1
1
1
1
1
1
1
1
1
1
1
1
1
1
1
1
1
1
1
1
1
1
1
1
1
1
1
1
1
1
1
1
1
1
1
1
1
1
1
1
1
1
1
1
1
1
1
1
1
1
1
1
1
1
1
1
1
1
1
1
1
1
1
1
1
1
1
1
1
1
1
1
1
1
1
1
1
1
1
1
1
1
1
1
1
1
1
1
1
1
1
1
1
1
1
1
1
1
1
1
1
1
1
1
1
1
1
1
1
1
1
1
1

SCALARS radius float 1
LOOKUP_TABLE default
5e-05
5e-05
5e-05
5e-05
5e-05
5e-05
5e-05
5e-05
5e-05
5e-05
5e-05
5e-05
5e-05
5e-05
5e-05
5e-05
5e-05
5e-05
5e-05
5e-05
5e-05
5e-05
5e-05
5e-05
5e-05
5e-05
5e-05
5e-05
5e-05
5e-05
5e-05
5e-05
5e-05
5e-05
5e-05
5e-05
5e-05
5e-05
5e-05
5e-05
5e-05
5e-05
5e-05
5e-05
5e-05
5e-05
5e-05
5e-05
5e-05
5e-05
5e-05
5e-05
5e-05
5e-05
5e-05
5e-05
5e-05
5e-05
5e-05
5e-05
5e-05
5e-05
5e-05
5e-05
5e-05
5e-05
5e-05
5e-05
5e-05
5e-05
5e-05
5e-05
5e-05
5e-05
5e-05
5e-05
5e-05
5e-05
5e-05
5e-05
5e-05
5e-05
5e-05
5e-05
5e-05
5e-05
5e-05
5e-05
5e-05
5e-05
5e-05
5e-05
5e-05
5e-05
5e-05
5e-05
5e-05
5e-05
5e-05
5e-05
5e-05
5e-05
5e-05
5e-05
5e-05
5e-05
5e-05
5e-05
5e-05
5e-05
5e-05
5e-05
5e-05
5e-05
5e-05
5e-05
5e-05
5e-05
5e-05
5e-05
5e-05
5e-05
5e-05
5e-05
5e-05
5e-05
5e-05
5e-05
5e-05
5e-05
5e-05
5e-05
5e-05
5e-05
5e-05
5e-05
5e-05
5e-05
5e-05
5e-05
5e-05
5e-05
5e-05
5e-05
5e-05
5e-05
5e-05
5e-05
5e-05
5e-05
5e-05
5e-05
5e-05
5e-05
5e-05
5e-05
5e-05
5e-05
5e-05
5e-05
5e-05
5e-05
5e-05
5e-05
5e-05
5e-05
5e-05
5e-05
5e-05
5e-05
5e-05
5e-05
5e-05
5e-05
5e-05
5e-05
5e-05
5e-05
5e-05
5e-05
5e-05
5e-05
5e-05
5e-05
5e-05
5e-05
5e-05
5e-05
5e-05
5e-05
5e-05
5e-05
5e-05
5e-05
5e-05
5e-05
5e-05
5e-05
5e-05
5e-05
5e-05
5e-05
5e-05
5e-05
5e-05
5e-05
5e-05
5e-05
5e-05
5e-05
5e-05
5e-05
5e-05
5e-05
5e-05
5e-05
5e-05
5e-05
5e-05
5e-05
5e-05
5e-05
5e-05
5e-05
5e-05
5e-05
5e-05
5e-05
5e-05
5e-05
5e-05
5e-05
5e-05
5e-05
5e-05
5e-05
5e-05
5e-05
5e-05
5e-05
5e-05
5e-05
5e-05
5e-05
5e-05
5e-05
5e-05
5e-05
5e-05
5e-05
5e-05
5e-05
5e-05
5e-05
5e-05
5e-05
5e-05
5e-05
5e-05
5e-05
5e-05
5e-05
5e-05
5e-05
5e-05
5e-05
5e-05
5e-05
5e-05
5e-05
5e-05
5e-05
5e-05
5e-05
5e-05
5e-05
5e-05
5e-05
5e-05
5e-05
5e-05
5e-05
5e-05
5e-05
5e-05
5e-05
5e-05

SCALARS mass float 1
LOOKUP_TABLE default
1.46608e-10
1.46608e-10
1.46608e-10
1.46608e-10
1.46608e-10
1.46608e-10
1.46608e-10
1.46608e-10
1.46608e-10
1.46608e-10
1.46608e-10
1.46608e-10
1.46608e-10
1.46608e-10
1.46608e-10
1.46608e-10
1.46608e-10
1.46608e-10
1.46608e-10
1.46608e-10
1.46608e-10
1.46608e-10
1.46608e-10
1.46608e-10
1.46608e-10
1.46608e-10
1.46608e-10
1.46608e-10
1.46608e-10
1.46608e-10
1.46608e-10
1.46608e-10
1.46608e-10
1.46608e-10
1.46608e-10
1.46608e-10
1.46608e-10
1.46608e-10
1.46608e-10
1.46608e-10
1.46608e-10
1.46608e-10
1.46608e-10
1.46608e-10
1.46608e-10
1.46608e-10
1.46608e-10
1.46608e-10
1.46608e-10
1.46608e-10
1.46608e-10
1.46608e-10
1.46608e-10
1.46608e-10
1.46608e-10
1.46608e-10
1.46608e-10
1.46608e-10
1.46608e-10
1.46608e-10
1.46608e-10
1.46608e-10
1.46608e-10
1.46608e-10
1.46608e-10
1.46608e-10
1.46608e-10
1.46608e-10
1.46608e-10
1.46608e-10
1.46608e-10
1.46608e-10
1.46608e-10
1.46608e-10
1.46608e-10
1.46608e-10
1.46608e-10
1.46608e-10
1.46608e-10
1.46608e-10
1.46608e-10
1.46608e-10
1.46608e-10
1.46608e-10
1.46608e-10
1.46608e-10
1.46608e-10
1.46608e-10
1.46608e-10
1.46608e-10
1.46608e-10
1.46608e-10
1.46608e-10
1.46608e-10
1.46608e-10
1.46608e-10
1.46608e-10
1.46608e-10
1.46608e-10
1.46608e-10
1.46608e-10
1.46608e-10
1.46608e-10
1.46608e-10
1.46608e-10
1.46608e-10
1.46608e-10
1.46608e-10
1.46608e-10
1.46608e-10
1.46608e-10
1.46608e-10
1.46608e-10
1.46608e-10
1.46608e-10
1.46608e-10
1.46608e-10
1.46608e-10
1.46608e-10
1.46608e-10
1.46608e-10
1.46608e-10
1.46608e-10
1.46608e-10
1.46608e-10
1.46608e-10
1.46608e-10
1.46608e-10
1.46608e-10
1.46608e-10
1.46608e-10
1.46608e-10
1.46608e-10
1.46608e-10
1.46608e-10
1.46608e-10
1.46608e-10
1.46608e-10
1.46608e-10
1.46608e-10
1.46608e-10
1.46608e-10
1.46608e-10
1.46608e-10
1.46608e-10
1.46608e-10
1.46608e-10
1.46608e-10
1.46608e-10
1.46608e-10
1.46608e-10
1.46608e-10
1.46608e-10
1.46608e-10
1.46608e-10
1.46608e-10
1.46608e-10
1.46608e-10
1.46608e-10
1.46608e-10
1.46608e-10
1.46608e-10
1.46608e-10
1.46608e-10
1.46608e-10
1.46608e-10
1.46608e-10
1.46608e-10
1.46608e-10
1.46608e-10
1.46608e-10
1.46608e-10
1.46608e-10
1.46608e-10
1.46608e-10
1.46608e-10
1.46608e-10
1.46608e-10
1.46608e-10
1.46608e-10
1.46608e-10
1.46608e-10
1.46608e-10
1.46608e-10
1.46608e-10
1.46608e-10
1.46608e-10
1.46608e-10
1.46608e-10
1.46608e-10
1.46608e-10
1.46608e-10
1.46608e-10
1.46608e-10
1.46608e-10
1.46608e-10
1.46608e-10
1.46608e-10
1.46608e-10
1.46608e-10
1.46608e-10
1.46608e-10
1.46608e-10
1.46608e-10
1.46608e-10
1.46608e-10
1.46608e-10
1.46608e-10
1.46608e-10
1.46608e-10
1.46608e-10
1.46608e-10
1.46608e-10
1.46608e-10
1.46608e-10
1.46608e-10
1.46608e-10
1.46608e-10
1.46608e-10
1.46608e-10
1.46608e-10
1.46608e-10
1.46608e-10
1.46608e-10
1.46608e-10
1.46608e-10
1.46608e-10
1.46608e-10
1.46608e-10
1.46608e-10
1.46608e-10
1.46608e-10
1.46608e-10
1.46608e-10
1.46608e-10
1.46608e-10
1.46608e-10
1.46608e-10
1.46608e-10
1.46608e-10
1.46608e-10
1.46608e-10
1.46608e-10
1.46608e-10
1.46608e-10
1.46608e-10
1.46608e-10
1.46608e-10
1.46608e-10
1.46608e-10
1.46608e-10
1.46608e-10
1.46608e-10
1.46608e-10
1.46608e-10
1.46608e-10
1.46608e-10
1.46608e-10
1.46608e-10
1.46608e-10
1.46608e-10
1.46608e-10
1.46608e-10
1.46608e-10
1.46608e-10
1.46608e-10
1.46608e-10
1.46608e-10
1.46608e-10
1.46608e-10
1.46608e-10
1.46608e-10
1.46608e-10
1.46608e-10
1.46608e-10
1.46608e-10
1.46608e-10
1.46608e-10
1.46608e-10
1.46608e-10
1.46608e-10
1.46608e-10
1.46608e-10
1.46608e-10
1.46608e-10
1.46608e-10
1.46608e-10

VECTORS velocity float
0.00549005 -0.000148461 0.000170759
0.00602901 -0.000417369 -0.000165702
0.00548301 -0.000445724 0.000856423
0.00605046 -0.000270355 0.000287103
0.00543475 -0.000110225 0.00013617
0.00564639 4.47849e-05 -9.57593e-05
0.00562135 -0.000224251 0.00017515
0.00563839 -0.000139106 0.000165055
0.00626628 -4.44693e-05 7.48403e-05
0.00560449 -0.000310885 1.5369e-05
0.00604793 -0.000358882 -0.000179529
0.00556792 -0.000906613 0.00025094
0.00537396 -0.00011949 0.000140711
0.00553263 -0.000360206 0.000794278
0.00595393 -0.000248691 0.000278913
0.00550755 -0.000435524 0.000861498
0.0055162 -0.000136514 0.000172264
0.00616773 -7.01874e-05 -3.01691e-05
0.00532559 -0.000119535 0.000139933
0.00545206 -0.000142923 0.000171878
0.00608288 -0.0003079 0.000297699
0.00575422 -0.000976667 0.000284758
0.00627791 -4.88972e-05 7.5974e-05
0.0056513 -0.000314159 -1.66431e-06
0.00564209 3.06289e-05 -8.68958e-05
0.0057182 -0.000938773 0.000262488
0.00606305 -0.000272318 0.000288365
0.00530922 -0.000117642 0.000134398
0.00607505 -0.000270154 0.000289089
0.00559268 -0.000207138 0.000260108
0.00571707 -0.000196928 0.000260212
0.00564503 4.19964e-05 -9.39918e-05
0.00554714 -0.000146635 0.000167192
0.00560408 -0.000176659 0.00024026
0.00625887 -4.13402e-05 7.40451e-05
0.00556597 -0.000487816 -2.40286e-05
0.00608107 -0.000277 0.000290108
0.00627324 -4.77438e-05 7.56746e-05
0.00551762 -0.000104324 0.000123942
0.00607748 -0.000308556 0.000297507
0.00607762 -0.000272322 0.000287317
0.00564363 3.93027e-05 -9.22653e-05
0.0061928 -7.38532e-05 -2.90152e-05
0.00553106 -0.000111981 0.0001509
0.00607226 -0.000279552 0.000290435
0.00601468 -3.92234e-05 -4.79466e-05
0.00605665 -0.000276377 0.000288413
0.00606541 -0.000277262 0.000289617
0.00554471 -0.000844069 0.000214708
0.00629015 -6.54027e-05 4.18057e-05
0.00543212 -0.000142467 0.000171843
0.00518814 -0.000469102 0.000870132
0.00559473 -0.000244695 0.000269524
0.00564109 3.46362e-05 -8.94825e-05
0.00559488 -0.00017981 0.000264485
0.00559403 -0.000182948 0.000253048
0.00548805 -0.000101452 0.000126271
0.00607753 -0.000270883 0.00028835
0.00607107 -0.000275051 0.000289303
0.00628073 -4.98123e-05 7.60104e-05
0.00561103 -0.000928045 0.000256308
0.00550811 -0.000748987 0.000433273
0.0060639 -0.000366522 -0.000178104
0.00605836 -0.000263889 0.000286112
0.00555866 -0.000113646 0.000120073
0.00626957 -4.62642e-05 7.53442e-05
0.0055373 -0.000542012 0.000961523
0.00606876 -0.00026851 0.000287779
0.00563028 -0.000426225 -0.000117748
0.00607956 -0.000277619 0.000290155
0.00594991 -0.00101339 0.000297727
0.00602578 -0.000260083 0.000284022
0.0053081 -0.000420912 0.000824984
0.00559967 -0.000917504 0.000256036
0.00603675 -0.000272626 0.000286098
0.00550832 -0.000837464 0.000211797
0.00574707 -0.000947346 0.000266556
0.00547425 -0.00095387 0.000285726
0.00626263 -4.26913e-05 7.43574e-05
0.00506194 -0.000419542 0.000809128
0.00606924 -0.000274106 0.000288803
0.00561214 -0.000198588 0.000254548
0.00603902 -0.000273105 0.000287133
0.00603662 -0.000268523 0.000286499
0.00600595 -0.000458563 -0.000155111
0.00564117 -0.000924596 0.000258131
0.00603719 -0.000258071 0.000284033
0.00603481 -0.000264406 0.000285455
0.00602425 -0.000254563 0.000282402
0.00603159 -0.000256902 0.000283677
0.00603172 -0.000256676 0.000283579
0.00527256 -0.000410416 0.000796413
0.00603464 -0.000271736 0.000286958
0.00557054 -0.000938914 0.000206485
0.00609367 -0.000381808 -0.000176078
0.00536628 -0.000534683 0.000680162
4.24783e-15 1.05247e-14 8.29575e-14
9.00258e-24 4.86658e-23 1.23839e-22
0.00597912 -0.000993488 0.000282826
0.00526849 -0.000405734 0.000810015
0.00606726 -0.000915175 0.000225983
0.00512567 -0.000465683 0.000834893
0.00559717 -0.000193822 0.000224842
0.0060683 -0.000277241 0.000289678
0.00563331 -0.000205097 0.000256526
0.00601582 -0.000260404 0.000283659
0.00529233 -0.000793018 0.000195599
0.00588822 -0.000766318 0.000322866
0.00590531 -0.000964772 0.000268432
0.00607515 -0.00027611 0.000290246
0.00557931 -0.000166804 0.000176593
0.00538326 -0.000143772 0.000169473
0.00557497 -0.000493509 0.00086913
0.00572325 -0.00020773 0.000261057
0.00525622 -0.000101056 0.000120839
0.00564119 -0.000128162 0.00015296
0.00596567 -0.000266912 0.000283345
0.00518615 -0.000446226 0.000842175
0.00603838 -0.00026452 0.000285196
0.00532656 -0.000137935 0.000161418
0.00607849 -0.00028075 0.000291183
0.00525606 -0.000399167 0.00080034
0.0060455 -0.000274402 0.000286701
0.00602011 -0.00025427 0.000282126
0.00577877 -0.000982952 0.000287475
0.00555528 -0.000894273 0.000252622
0.00604243 -0.00026691 0.000286652
0.00550556 -0.000201477 0.000233095
0.00596299 -0.000255341 0.000279804
0.0052729 -0.000132792 0.000156655
0.00507168 -0.000424672 0.000804087
0.00601569 -0.000277952 0.000287928
0.00551134 -0.000153813 0.00018007
0.00598541 -0.000199343 0.000267575
0.00510051 -0.000443478 0.000829954
0.00594363 -0.000969979 0.000269893
0.00525194 -0.000417233 0.000836439
0.00578256 -0.00101711 0.000309268
0.0055238 -0.000961084 0.000287851
0.00549167 -0.000229739 0.000670439
0.00585233 -0.000970091 0.000274825
0.00602162 -0.00025998 0.000283808
0.00562555 -0.00096921 0.000291435
0.00609448 -0.000833401 0.000171462
0.00528676 -0.000424557 0.000828242
0.00591046 -0.00100157 0.000292323
0.00603048 -0.000996067 0.000271185
0.00587028 -0.000998266 0.000292342
-3.83643e-14 8.16527e-14 2.95887e-13
0.00604086 -0.000928339 0.000320879
0.00604761 -0.000261878 0.000285898
0.00595047 -0.000984018 0.000280594
0.00589623 -0.00097676 0.000276366
0.005997 -0.000854107 0.000321693
0.00592913 -0.000869948 -1.75276e-05
0.00546191 -0.000179945 0.000214191
0.00556503 -0.000963821 0.000287612
0.00610524 -0.000929785 0.000233341
0.00596053 -0.000760029 0.000328334
0.00611091 -0.000935624 0.000237151
0.00549029 -0.00019353 0.000225964
0.00606207 -0.000862705 9.61567e-05
0.00602991 -0.000359635 -0.000178364
0.00608559 -0.000960556 0.000256063
0.00580314 -0.000448699 0.000746289
0.00581895 -0.000991 0.000290468
0.00602838 -0.000993194 0.000273891
0.00599488 -0.000799147 0.000327977
0.00599203 -0.000794479 0.000325666
0.00576741 -0.000971067 0.000280327
0.00548767 -0.000146107 0.000172304
0.00607448 -0.000954042 0.000251083
0.00603838 -0.000358285 -0.000178218
0.00581625 -0.000966295 0.000274381
0.00590589 -0.000991472 0.00028636
0.00608514 -0.000384679 -0.000158611
0.00602896 -0.000261645 0.00028429
0.00601593 -0.000460644 -0.000156064
0.00583302 -0.000454923 0.000751875
0.00601058 -0.000276367 0.000287375
0.00600578 -0.000908834 0.00022621
0.00559682 -0.000210911 0.000245343
0.00569891 -0.000987772 0.000294924
0.00597901 -0.000795767 0.000326013
0.00549148 -0.000488619 0.000909272
0.00583367 -0.000454262 0.000751665
0.00567538 -0.000929804 0.000259235
0.00593029 -0.000983694 0.00027864
0.00572535 -0.000967008 0.000279974
0.00593013 -0.000792218 0.000323285
0.00603139 -0.000907874 0.000224139
0.00603047 -0.000136642 0.000254367
0.0056935 -0.000955433 0.000276097
0.00597743 -0.000867539 0.000320349
0.00605158 -0.000938343 0.00026284
0.00526029 -0.00044029 0.000839071
0.00592719 -0.00100495 0.000293098
0.00566497 -0.000977839 0.000291481
0.0060394 -0.000258245 0.000285775
0.00602565 -0.000256198 0.000283156
0.0060706 -0.000925683 0.000234119
0.00607537 -0.000285572 0.00029085
0.00601666 -0.000359075 -0.000177964
0.00582254 -0.000453538 0.000750274
0.00597668 -0.000986502 0.000275619
0.00552119 -0.000200472 0.000235564
0.00607181 -0.000955671 0.000320737
0.00602509 -0.000259924 0.000283838
0.00606089 -0.00103191 0.000288512
0.00585308 -0.000812709 -0.00013965
0.00554115 -0.000204566 0.000241442
0.00596319 -0.000970516 0.000268116
0.00578047 -0.000958189 0.000270974
0.00604024 -0.000257985 0.000285348
0.00608805 -0.000832284 0.000171133
0.00580211 -0.000449779 0.000746701
0.00581314 -0.000450878 0.000748284
0.00593062 -0.000947579 0.000268511
0.00589692 -0.000829105 0.000317592
0.00579284 -0.000446529 0.000744363
0.00546352 -0.000525696 0.000940655
0.0057299 -0.000998562 0.000300742
0.00602857 -0.000270226 0.00028644
0.00574242 -0.000884833 0.000301863
0.00576251 -0.000792813 0.000311932
0.00569259 -0.000874381 0.000299486
0.00542362 -0.000711103 -0.000145868
0.0057305 -0.000439624 0.000735403
0.00545318 -0.000717354 -0.00014593
0.00575404 -0.00103526 0.000323058
0.00565792 -0.000940442 0.000272457
0.00570067 -0.000771464 -0.000144963
0.00577128 -0.000444495 0.000740754
0.00604102 -0.000945504 0.000316965
0.00585556 -0.00080349 0.000317198
0.00584408 -0.000455562 0.000753191
0.00606762 -0.000975474 0.000276054
0.00602007 -0.000258077 0.000283322
0.00586488 -0.00045847 0.000756454
0.00579117 -0.000447478 0.000744731
0.00576137 -0.000442729 0.000739482
0.00566325 -0.000294965 0.000738678
0.00606096 -0.000920828 0.000320842
0.00603097 -0.000963769 0.000313788
0.0060105 -0.000940247 0.000313892
0.00587503 -0.000460391 0.000758233
0.0057553 -0.00101005 0.000306807
0.00577506 -0.000847449 0.000307623
0.00582309 -0.000841818 0.000311281
0.00575151 -0.000441301 0.000738081
0.00598021 -0.000948429 0.000314143
0.00582332 -0.000452784 0.000749971
0.00605829 -0.00082542 0.000168785
0.00596543 -0.000895339 0.000316125
0.00593482 -0.00101994 0.000300658
0.00604637 -0.000972452 0.000319081
0.00602137 -0.000358402 -0.00017794
0.00609181 -0.000891241 0.000208911
0.00589539 -0.000464313 0.000761851
0.00588046 -0.000920102 0.000308247
0.00588517 -0.000462396 0.000760066
0.00601573 -0.000908212 0.000317895
0.00606175 -0.000982199 0.000298341
0.00583399 -0.000906052 0.000306374
0.00602886 -0.000911988 0.000318864
0.00578293 -0.00044504 0.00074281
0.00584346 -0.000456114 0.000753381
0.00573463 -0.00103412 0.00032327
0.00578297 -0.000445253 0.000743028
0.00572004 -0.000438362 0.000734201
0.00586311 -0.000870584 0.00031128
0.00591388 -0.000879405 0.000313877
0.00593185 -0.00093546 0.000310537
0.00594695 -0.000841662 0.00031958
0.0058587 -0.000866376 0.000310999
0.0056936 -0.00102723 0.000321351
0.00596302 -0.000906213 0.000226879
0.00597812 -0.000804642 0.00032574
0.00526635 -0.000507527 0.00090833
0.00605169 -0.00088675 0.000322841
0.00579163 -0.000896592 0.00030412
0.00581242 -0.000451703 0.00074852
0.00572711 -0.000833705 0.000305654
0.00580448 -0.000423248 0.000314359
0.00574081 -0.000440423 0.000736867
0.00585463 -0.000456837 0.00075478
0.00603588 -0.000353761 -0.000179897

VECTORS force float
1.41308e-10 2.28814e-10 -1.87907e-10
-1.04413e-11 6.26831e-12 1.20416e-12
2.03618e-11 1.24502e-11 -7.35094e-12
1.24226e-11 1.30797e-11 -1.59111e-12
-2.83971e-10 1.61917e-10 -2.59213e-10
-1.07733e-11 3.82524e-11 -2.26163e-11
-3.3076e-11 -3.49366e-11 -1.17149e-10
-1.54265e-10 -5.38934e-12 3.56311e-11
3.62303e-12 7.84134e-12 -2.17036e-12
4.99807e-11 -2.93551e-10 8.76434e-11
6.03486e-12 -1.05475e-11 1.67379e-11
-8.50016e-12 1.28323e-10 -8.07694e-11
1.94869e-11 -1.02894e-11 8.98173e-13
1.25199e-10 3.66819e-10 -3.39707e-10
-5.69755e-11 1.12743e-10 -2.99037e-11
1.11128e-10 3.90014e-10 -3.48058e-10
2.82959e-10 -1.09354e-10 -2.82177e-11
6.89696e-11 -4.07926e-11 2.54207e-11
3.98401e-10 -9.71898e-11 8.24082e-11
-1.04864e-10 1.56266e-10 -1.88959e-10
-5.52532e-11 1.06224e-10 -1.97654e-11
9.44425e-12 2.28042e-11 2.61282e-12
-2.59192e-12 -7.60724e-12 2.1835e-12
-1.52323e-10 -2.43817e-10 8.36206e-11
-2.90403e-11 -1.0763e-11 7.24297e-12
5.83847e-12 4.67786e-12 -8.84389e-12
8.37744e-13 2.16312e-11 -4.26536e-12
-2.62399e-11 -2.58819e-11 6.62706e-11
-3.347e-12 2.54909e-11 -9.03191e-12
1.81959e-10 1.97569e-10 -1.14897e-10
9.49253e-11 9.80141e-11 -3.68754e-11
4.55215e-11 1.13704e-11 -9.70826e-12
1.03672e-10 1.15019e-10 3.48444e-10
3.96315e-11 -3.77382e-11 -8.6515e-11
7.89936e-12 3.27319e-11 -8.18905e-12
-1.78546e-10 -6.85877e-11 6.84374e-11
-3.4725e-11 -1.13302e-11 2.53413e-11
-4.78088e-12 -1.16721e-11 1.04639e-12
-2.3517e-11 9.17476e-11 5.68483e-11
7.80638e-12 -1.68447e-11 4.31706e-12
-1.74689e-11 -1.82617e-11 3.01489e-11
-2.64689e-11 1.3383e-11 -6.81755e-12
2.18664e-11 -4.76782e-11 1.8523e-11
-3.32913e-11 -9.52502e-11 2.03401e-10
8.06437e-12 -1.83902e-11 8.18324e-12
-2.01309e-11 -2.26943e-11 1.66039e-11
-5.68197e-12 9.85643e-12 6.58388e-13
3.35626e-12 1.14186e-11 -2.09949e-12
-6.87109e-11 8.93355e-11 -2.72494e-10
9.21506e-11 -3.44073e-11 1.59466e-11
-2.89938e-10 1.74743e-10 -1.90718e-10
-8.22256e-10 8.8427e-11 5.06052e-11
1.49858e-11 1.21542e-11 6.46137e-11
-1.56079e-12 -4.31401e-12 1.73553e-12
2.048e-10 -8.07609e-11 5.40078e-11
2.07809e-10 -1.68057e-11 -3.82285e-13
-8.72665e-11 1.3661e-10 -2.00793e-10
-3.66631e-11 2.24619e-11 -1.52493e-11
2.4061e-11 4.08056e-12 3.36431e-12
5.59805e-12 -1.31551e-11 3.21185e-12
3.23342e-12 -4.40092e-11 -1.25514e-10
-3.28653e-10 7.82627e-11 1.16432e-10
-2.3089e-12 -1.78528e-11 -4.40742e-12
8.31438e-13 2.33292e-11 -1.41723e-11
3.87096e-10 -1.2613e-10 -2.60947e-10
-1.01452e-12 -6.71091e-12 1.9733e-12