# vtk DataFile Version 3.0
LIGGGHTS particles timestep 18000000
ASCII
DATASET POLYDATA
POINTS 287 float
0.117767 0.0163377 0.00800997
0.118229 0.0174723 0.00717363
0.111587 0.0159929 0.00826651
0.118077 0.0175966 0.0071381
0.117651 0.0162476 0.00810349
0.123757 0.016569 0.00761261
0.117823 0.0168882 0.00749529
0.117544 0.0158939 0.00844028
0.124016 0.0177058 0.00706332
0.117766 0.0166744 0.00769824
0.118288 0.0176575 0.00713118
0.111794 0.0168198 0.00774329
0.117629 0.0161769 0.0081708
0.111506 0.0156644 0.00847441
0.117957 0.0170514 0.00733262
0.111485 0.0155817 0.00852675
0.117747 0.0166032 0.00776583
0.123894 0.0171615 0.00726619
0.117607 0.0161062 0.00823814
0.117747 0.0162666 0.00807751
0.117861 0.0170307 0.00736018
0.111991 0.0172627 0.00746968
0.123953 0.0174188 0.00712398
0.117804 0.0168168 0.00756307
0.123835 0.0169076 0.00741465
0.111875 0.0171506 0.00753388
0.118058 0.0175009 0.00716046
0.117586 0.0160354 0.00830552
0.118111 0.0173449 0.00719998
0.117842 0.0169594 0.0074277
0.117937 0.0169795 0.00740093
0.123776 0.0166536 0.00756311
0.117728 0.016532 0.00783341
0.117918 0.0169081 0.00746877
0.124059 0.0178972 0.00702511
0.11788 0.0167655 0.00760409
0.118052 0.0170786 0.00731873
0.123974 0.017514 0.00710155
0.117691 0.0163896 0.00796851
0.117881 0.0171043 0.00729533
0.118072 0.0171619 0.00726717
0.123796 0.0167383 0.00751362
0.123874 0.0170769 0.00731568
0.117709 0.0164634 0.00790374
0.117919 0.017275 0.00720976
0.123855 0.0169922 0.00736516
0.117982 0.0175638 0.00714253
0.117961 0.0174746 0.00718259
0.111773 0.0167371 0.00779564
0.123914 0.0172461 0.00721674
0.117726 0.0161959 0.00814489
0.111547 0.0158298 0.00836973
0.117899 0.0168367 0.00753649
0.123815 0.0168229 0.00746413
0.117974 0.0167848 0.00757804
0.117993 0.016856 0.00751045
0.117672 0.0163183 0.00803616
0.118089 0.0172496 0.00722212
0.118019 0.0173204 0.00723132
0.123933 0.0173308 0.00716722
0.111909 0.016932 0.00767896
0.111848 0.0166838 0.00783602
0.118248 0.0175682 0.00715123
0.118154 0.0175352 0.00715571
0.117823 0.0165518 0.00780689
0.123994 0.01761 0.00708242
0.111526 0.0157471 0.00842207
0.118135 0.0174395 0.00717806
0.117785 0.0167456 0.00763066
0.117979 0.0171257 0.00726193
0.112113 0.0177591 0.00715546
0.118109 0.0181166 0.00701401
0.111608 0.0160756 0.00821417
0.111814 0.0169025 0.00769094
0.118026 0.0177633 0.00716267
0.111753 0.0166544 0.00784799
0.111896 0.0172334 0.00748152
0.111942 0.0167133 0.00782406
0.124037 0.0178015 0.00704422
0.111724 0.0161878 0.00814992
0.118034 0.0174063 0.00718242
0.117955 0.0167136 0.00764562
0.118041 0.0178212 0.00708268
0.118076 0.0178824 0.00715378
0.11821 0.0173761 0.0071961
0.111834 0.0169852 0.00763858
0.11823 0.0178131 0.00709155
0.118153 0.0178749 0.00707385
0.11829 0.0180994 0.00702481
0.118235 0.0178814 0.00716444
0.118249 0.0179086 0.00706926
0.111712 0.016489 0.0079527
0.118063 0.0179163 0.00706058
0.111888 0.0168493 0.00773132
0.118165 0.0171864 0.00724014
0.111827 0.0166011 0.00788838
0.0643568 0.0187248 0.00531097
0.24257 0.0191927 0.00520306
0.112188 0.0177038 0.00719286
0.111671 0.0163235 0.00805743
0.112264 0.0176455 0.00722153
0.111628 0.0161584 0.00816175
0.117861 0.0166943 0.00767167
0.117938 0.0173705 0.00718747
0.118196 0.0185201 0.00704053
0.118234 0.0182637 0.00701716
0.111732 0.0165717 0.00790035
0.112523 0.0183794 0.00695022
0.112127 0.0174575 0.00735261
0.117996 0.017224 0.00724827
0.117842 0.016623 0.00773931
0.117704 0.016125 0.00821244
0.111567 0.0159203 0.00833211
0.118012 0.0169272 0.00744288
0.117565 0.0159647 0.0083729
0.117522 0.0158231 0.00850766
0.118175 0.0184234 0.00702575
0.111767 0.0163528 0.0080457
0.11813 0.0177777 0.00709643
0.117682 0.0160543 0.00827979
0.1179 0.0171794 0.00723209
0.111692 0.0164061 0.00800518
0.118002 0.0176584 0.00716802
0.118255 0.0179767 0.00714221
0.112012 0.0173454 0.00741733
0.111868 0.0167666 0.00778367
0.118079 0.0176938 0.00711477
0.117881 0.0164286 0.00791606
0.118032 0.0169998 0.00737704
0.117661 0.0159835 0.00834717
0.111702 0.0161052 0.00820215
0.11813 0.018212 0.00699345
0.117804 0.0164806 0.00787448
0.118251 0.0183614 0.00700374
0.111746 0.0162703 0.0080978
0.112147 0.0175397 0.00729956
0.111649 0.016241 0.00810955
0.112107 0.0173749 0.00740536
0.111963 0.016796 0.00777171
0.111682 0.0160224 0.00825452
0.111957 0.0174812 0.00732467
0.118213 0.0181636 0.00702222
0.112004 0.0169614 0.007667
0.112381 0.0177517 0.00714579
0.111807 0.0165184 0.00794077
0.112073 0.0175936 0.00726018
0.112134 0.0178416 0.00710272
0.112052 0.0175109 0.00731254
0.0219312 0.0187687 0.00551176
0.112194 0.0179441 0.00713807
0.11817 0.0176317 0.00713307
0.112018 0.0177295 0.00716749
0.111978 0.0175641 0.0072722
0.112315 0.0182155 0.00692052
0.112444 0.017996 0.00698381
0.117842 0.0162862 0.00805119
0.111983 0.0168787 0.00771935
0.112284 0.0177273 0.00716737
0.112505 0.0182816 0.00693965
0.112306 0.017809 0.00711323
0.117861 0.0163574 0.00798363
0.112422 0.0179148 0.00703772
0.118327 0.0178486 0.00708659
0.112229 0.0178672 0.00708515
0.105972 0.0175111 0.00715919
0.112032 0.0174282 0.00736489
0.112059 0.0178949 0.00706279
0.11256 0.0181984 0.00693542
0.112466 0.0181661 0.0069287
0.11202 0.0177396 0.00726697
0.117785 0.0164093 0.00794209
0.112208 0.0177856 0.00713909
0.118308 0.0177531 0.00710889
0.111937 0.0173984 0.00737703
0.112017 0.0176535 0.00731779
0.118146 0.017095 0.00727595
0.118174 0.0179743 0.00706464
0.118186 0.0172815 0.00721801
0.106111 0.0177237 0.00708077
0.118154 0.0183231 0.00701042
0.112223 0.0174823 0.00732964
0.117936 0.0166424 0.0077132
0.112045 0.0171268 0.00756233
0.11249 0.0180693 0.00693362
0.111465 0.015499 0.00857909
0.106037 0.0177826 0.00704833
0.111855 0.0170679 0.00758623
0.111998 0.0176468 0.00721985
0.11197 0.0171801 0.00752194
0.112428 0.0183474 0.00694076
0.112244 0.0175639 0.00727558
0.118323 0.0182916 0.00698071
0.11195 0.0170974 0.00757426
0.112275 0.018245 0.00700758
0.11225 0.0179487 0.00703109
0.111787 0.0164356 0.00799328
0.112093 0.0176764 0.00720782
0.112024 0.0170441 0.00761465
0.118132 0.0177371 0.00718779
0.11827 0.0180039 0.00704709
0.112326 0.0178907 0.00705914
0.118131 0.017023 0.00734388
0.118368 0.0180393 0.00704215
0.106089 0.0176332 0.00711771
0.112039 0.0178122 0.00711514
0.117899 0.0164999 0.00784844
0.112176 0.0180046 0.00699448
0.118193 0.0180658 0.00702937
0.112079 0.0179033 0.00716041
0.105983 0.017181 0.00730241
0.117917 0.0165712 0.0077808
0.112168 0.0176218 0.00724632
0.111917 0.0173192 0.00743464
0.118212 0.0177225 0.00712997
0.112401 0.0178333 0.00709175
0.106046 0.0174524 0.00719156
0.105994 0.0176015 0.00712227
0.11204 0.0178223 0.00721462
0.112357 0.0184183 0.00694281
0.105951 0.0174207 0.00719611
0.111922 0.0166306 0.00787642
0.112066 0.0172095 0.00751007
0.118085 0.0180114 0.00703847
0.112242 0.0187266 0.0069645
0.112419 0.0186534 0.00696947
0.112262 0.0188238 0.0069752
0.105768 0.0166634 0.00764139
0.105827 0.0169085 0.00747867
0.105749 0.0165817 0.00769563
0.112183 0.0173188 0.00743787
0.111929 0.0170147 0.00762661
0.105788 0.0167451 0.00758715
0.105908 0.0172398 0.00726995
0.112193 0.0180869 0.00694018
0.112452 0.0184497 0.00695217
0.106059 0.017879 0.00702565
0.112154 0.0179232 0.00704848
0.118306 0.0181954 0.00700225
0.106101 0.0180601 0.0069687
0.106025 0.0173619 0.0072285
0.105887 0.0171548 0.00731835
0.111662 0.0159397 0.00830689
0.112271 0.0180299 0.00697643
0.112119 0.0181468 0.00690318
0.112166 0.0181963 0.00699529
0.106122 0.0181577 0.00696634
0.112086 0.0172922 0.00745772
0.11232 0.0186452 0.00696199
0.112343 0.0185482 0.00695427
0.105867 0.017072 0.0073706
0.11214 0.0182443 0.00691148
0.106015 0.017692 0.0070853
0.11236 0.0176702 0.0071998
0.112238 0.0182797 0.00692152
0.112127 0.0177592 0.00725446
0.112101 0.0180684 0.00697457
0.118348 0.0179438 0.00706445
0.112347 0.0179726 0.00700483
0.106164 0.0183534 0.00696168
0.112182 0.0184386 0.0069566
0.106143 0.0182555 0.00696399
0.112216 0.0181796 0.00691046
0.11208 0.0179776 0.00701044
0.112202 0.0185341 0.00697787
0.112295 0.0181191 0.00693847
0.105929 0.0173302 0.00723303
0.106133 0.017814 0.00704392
0.112162 0.0172372 0.00749193
0.106004 0.0172715 0.0072654
0.105808 0.0168268 0.00753291
0.112275 0.0184754 0.00694277
0.112257 0.0183776 0.00693218
0.112161 0.018341 0.00693842
0.112333 0.0183131 0.00693118
0.112264 0.018488 0.00704137
0.112142 0.0171556 0.00754597
0.112203 0.0174006 0.00738378
0.112411 0.0182494 0.00693023
0.111902 0.0165478 0.0079288
0.112371 0.0180546 0.00695035
0.112221 0.0186293 0.00695381
0.106068 0.0175428 0.00715464
0.112337 0.0187569 0.00697383
0.118113 0.0169518 0.0074115
0.105847 0.0169902 0.00742444
0.106079 0.0179626 0.00697483
0.118402 0.0177852 0.00710463

VERTICES 287 574
1 0
1 1
1 2
1 3
1 4
1 5
1 6
1 7
1 8
1 9
1 10
1 11
1 12
1 13
1 14
1 15
1 16
1 17
1 18
1 19
1 20
1 21
1 22
1 23
1 24
1 25
1 26
1 27
1 28
1 29
1 30
1 31
1 32
1 33
1 34
1 35
1 36
1 37
1 38
1 39
1 40
1 41
1 42
1 43
1 44
1 45
1 46
1 47
1 48
1 49
1 50
1 51
1 52
1 53
1 54
1 55
1 56
1 57
1 58
1 59
1 60
1 61
1 62
1 63
1 64
1 65
1 66
1 67
1 68
1 69
1 70
1 71
1 72
1 73
1 74
1 75
1 76
1 77
1 78
1 79
1 80
1 81
1 82
1 83
1 84
1 85
1 86
1 87
1 88
1 89
1 90
1 91
1 92
1 93
1 94
1 95
1 96
1 97
1 98
1 99
1 100
1 101
1 102
1 103
1 104
1 105
1 106
1 107
1 108
1 109
1 110
1 111
1 112
1 113
1 114
1 115
1 116
1 117
1 118
1 119
1 120
1 121
1 122
1 123
1 124
1 125
1 126
1 127
1 128
1 129
1 130
1 131
1 132
1 133
1 134
1 135
1 136
1 137
1 138
1 139
1 140
1 141
1 142
1 143
1 144
1 145
1 146
1 147
1 148
1 149
1 150
1 151
1 152
1 153
1 154
1 155
1 156
1 157
1 158
1 159
1 160
1 161
1 162
1 163
1 164
1 165
1 166
1 167
1 168
1 169
1 170
1 171
1 172
1 173
1 174
1 175
1 176
1 177
1 178
1 179
1 180
1 181
1 182
1 183
1 184
1 185
1 186
1 187
1 188
1 189
1 190
1 191
1 192
1 193
1 194
1 195
1 196
1 197
1 198
1 199
1 200
1 201
1 202
1 203
1 204
1 205
1 206
1 207
1 208
1 209
1 210
1 211
1 212
1 213
1 214
1 215
1 216
1 217
1 218
1 219
1 220
1 221
1 222
1 223
1 224
1 225
1 226
1 227
1 228
1 229
1 230
1 231
1 232
1 233
1 234
1 235
1 236
1 237
1 238
1 239
1 240
1 241
1 242
1 243
1 244
1 245
1 246
1 247
1 248
1 249
1 250
1 251
1 252
1 253
1 254
1 255
1 256
1 257
1 258
1 259
1 260
1 261
1 262
1 263
1 264
1 265
1 266
1 267
1 268
1 269
1 270
1 271
1 272
1 273
1 274
1 275
1 276
1 277
1 278
1 279
1 280
1 281
1 282
1 283
1 284
1 285
1 286

POINT_DATA 287
SCALARS id int 1
LOOKUP_TABLE default
1
2
3
4
5
6
7
8
9
10
11
12
13
14
15
16
17
18
19
21
22
23
24
25
26
27
28
29
30
31
32
33
34
35
36
37
38
39
41
42
44
45
46
47
48
49
50
51
52
53
54
55
56
57
59
60
61
62
63
64
65
66
67
68
69
70
71
72
73
74
76
77
78
79
80
81
82
83
84
85
86
87
88
89
90
91
92
93
94
95
96
97
98
99
100
101
102
103
104
105
106
107
108
109
110
111
112
113
114
115
116
117
118
119
120
121
122
123
124
125
126
127
128
129
130
131
132
133
134
135
136
137
138
140
141
142
143
144
146
147
148
149
150
151
153
154
155
156
157
158
159
160
162
164
165
166
167
168
169
170
171
172
173
174
175
176
177
178
179
181
182
183
184
185
186
187
188
189
190
191
192
193
194
195
196
197
198
199
200
201
202
203
204
205
206
207
208
209
210
211
212
213
214
215
216
217
218
219
220
221
222
223
224
225
226
227
228
229
230
231
232
233
234
235
236
237
239
240
241
242
243
244
246
247
248
249
250
251
252
253
254
255
256
257
258
259
260
261
262
263
264
265
266
267
268
269
270
271
272
273
274
275
276
277
278
279
280
281
282
283
284
285
286
287
288
289
290
291
292
293
294
295
296
297
298
299
300

SCALARS type int 1
LOOKUP_TABLE default
1
1
1
1
1
1
1
1
1
1
1
1
1
1
1
1
1
1
1
1
1
1
1
1
1
1
1
1
1
1
1
1
1
1
1
1
1
1
1
1
1
1
1
1
1
1
1
1
1
1
1
1
1
1
1
1
1
1
1
1
1
1
1
1
1
1
1
1
1
1
1
1
1
1
1
1
1
1
1
1
1
1
1
1
1
1
1
1
1
1
1
1
1
1
1
1
1
1
1
1
1
1
1
1
1
1
1
1
1
1
1
1
1
1
1
1
1
1
1
1
1
1
1
1
1
1
1
1
1
1
1
1
1
1
1
1
1
1
1
1
1
1
1
1
1
1
1
1
1
1
1
1
1
1
1
1
1
1
1
1
1
1
1
1
1
1
1
1
1
1
1
1
1
1
1
1
1
1
1
1
1
1
1
1
1
1
1
1
1
1
1
1
1
1
1
1
1
1
1
1
1
1
1
1
1
1
1
1
1
1
1
1
1
1
1
1
1
1
1
1
1
1
1
1
1
1
1
1
1
1
1
1
1
1
1
1
1
1
1
1
1
1
1
1
1
1
1
1
1
1
1
1
1
1
1
1
1
1
1
1
1
1
1
1
1
1
1
1
1
1
1
1
1
1
1
1
1
1
1
1
1
1
1
1
1
1
1

SCALARS radius float 1
LOOKUP_TABLE default
5e-05
5e-05
5e-05
5e-05
5e-05
5e-05
5e-05
5e-05
5e-05
5e-05
5e-05
5e-05
5e-05
5e-05
5e-05
5e-05
5e-05
5e-05
5e-05
5e-05
5e-05
5e-05
5e-05
5e-05
5e-05
5e-05
5e-05
5e-05
5e-05
5e-05
5e-05
5e-05
5e-05
5e-05
5e-05
5e-05
5e-05
5e-05
5e-05
5e-05
5e-05
5e-05
5e-05
5e-05
5e-05
5e-05
5e-05
5e-05
5e-05
5e-05
5e-05
5e-05
5e-05
5e-05
5e-05
5e-05
5e-05
5e-05
5e-05
5e-05
5e-05
5e-05
5e-05
5e-05
5e-05
5e-05
5e-05
5e-05
5e-05
5e-05
5e-05
5e-05
5e-05
5e-05
5e-05
5e-05
5e-05
5e-05
5e-05
5e-05
5e-05
5e-05
5e-05
5e-05
5e-05
5e-05
5e-05
5e-05
5e-05
5e-05
5e-05
5e-05
5e-05
5e-05
5e-05
5e-05
5e-05
5e-05
5e-05
5e-05
5e-05
5e-05
5e-05
5e-05
5e-05
5e-05
5e-05
5e-05
5e-05
5e-05
5e-05
5e-05
5e-05
5e-05
5e-05
5e-05
5e-05
5e-05
5e-05
5e-05
5e-05
5e-05
5e-05
5e-05
5e-05
5e-05
5e-05
5e-05
5e-05
5e-05
5e-05
5e-05
5e-05
5e-05
5e-05
5e-05
5e-05
5e-05
5e-05
5e-05
5e-05
5e-05
5e-05
5e-05
5e-05
5e-05
5e-05
5e-05
5e-05
5e-05
5e-05
5e-05
5e-05
5e-05
5e-05
5e-05
5e-05
5e-05
5e-05
5e-05
5e-05
5e-05
5e-05
5e-05
5e-05
5e-05
5e-05
5e-05
5e-05
5e-05
5e-05
5e-05
5e-05
5e-05
5e-05
5e-05
5e-05
5e-05
5e-05
5e-05
5e-05
5e-05
5e-05
5e-05
5e-05
5e-05
5e-05
5e-05
5e-05
5e-05
5e-05
5e-05
5e-05
5e-05
5e-05
5e-05
5e-05
5e-05
5e-05
5e-05
5e-05
5e-05
5e-05
5e-05
5e-05
5e-05
5e-05
5e-05
5e-05
5e-05
5e-05
5e-05
5e-05
5e-05
5e-05
5e-05
5e-05
5e-05
5e-05
5e-05
5e-05
5e-05
5e-05
5e-05
5e-05
5e-05
5e-05
5e-05
5e-05
5e-05
5e-05
5e-05
5e-05
5e-05
5e-05
5e-05
5e-05
5e-05
5e-05
5e-05
5e-05
5e-05
5e-05
5e-05
5e-05
5e-05
5e-05
5e-05
5e-05
5e-05
5e-05
5e-05
5e-05
5e-05
5e-05
5e-05
5e-05
5e-05
5e-05
5e-05
5e-05
5e-05
5e-05
5e-05
5e-05
5e-05
5e-05
5e-05
5e-05
5e-05
5e-05
5e-05
5e-05
5e-05
5e-05
5e-05
5e-05
5e-05
5e-05
5e-05
5e-05
5e-05
5e-05
5e-05
5e-05
5e-05
5e-05

SCALARS mass float 1
LOOKUP_TABLE default
1.46608e-10
1.46608e-10
1.46608e-10
1.46608e-10
1.46608e-10
1.46608e-10
1.46608e-10
1.46608e-10
1.46608e-10
1.46608e-10
1.46608e-10
1.46608e-10
1.46608e-10
1.46608e-10
1.46608e-10
1.46608e-10
1.46608e-10
1.46608e-10
1.46608e-10
1.46608e-10
1.46608e-10
1.46608e-10
1.46608e-10
1.46608e-10
1.46608e-10
1.46608e-10
1.46608e-10
1.46608e-10
1.46608e-10
1.46608e-10
1.46608e-10
1.46608e-10
1.46608e-10
1.46608e-10
1.46608e-10
1.46608e-10
1.46608e-10
1.46608e-10
1.46608e-10
1.46608e-10
1.46608e-10
1.46608e-10
1.46608e-10
1.46608e-10
1.46608e-10
1.46608e-10
1.46608e-10
1.46608e-10
1.46608e-10
1.46608e-10
1.46608e-10
1.46608e-10
1.46608e-10
1.46608e-10
1.46608e-10
1.46608e-10
1.46608e-10
1.46608e-10
1.46608e-10
1.46608e-10
1.46608e-10
1.46608e-10
1.46608e-10
1.46608e-10
1.46608e-10
1.46608e-10
1.46608e-10
1.46608e-10
1.46608e-10
1.46608e-10
1.46608e-10
1.46608e-10
1.46608e-10
1.46608e-10
1.46608e-10
1.46608e-10
1.46608e-10
1.46608e-10
1.46608e-10
1.46608e-10
1.46608e-10
1.46608e-10
1.46608e-10
1.46608e-10
1.46608e-10
1.46608e-10
1.46608e-10
1.46608e-10
1.46608e-10
1.46608e-10
1.46608e-10
1.46608e-10
1.46608e-10
1.46608e-10
1.46608e-10
1.46608e-10
1.46608e-10
1.46608e-10
1.46608e-10
1.46608e-10
1.46608e-10
1.46608e-10
1.46608e-10
1.46608e-10
1.46608e-10
1.46608e-10
1.46608e-10
1.46608e-10
1.46608e-10
1.46608e-10
1.46608e-10
1.46608e-10
1.46608e-10
1.46608e-10
1.46608e-10
1.46608e-10
1.46608e-10
1.46608e-10
1.46608e-10
1.46608e-10
1.46608e-10
1.46608e-10
1.46608e-10
1.46608e-10
1.46608e-10
1.46608e-10
1.46608e-10
1.46608e-10
1.46608e-10
1.46608e-10
1.46608e-10
1.46608e-10
1.46608e-10
1.46608e-10
1.46608e-10
1.46608e-10
1.46608e-10
1.46608e-10
1.46608e-10
1.46608e-10
1.46608e-10
1.46608e-10
1.46608e-10
1.46608e-10
1.46608e-10
1.46608e-10
1.46608e-10
1.46608e-10
1.46608e-10
1.46608e-10
1.46608e-10
1.46608e-10
1.46608e-10
1.46608e-10
1.46608e-10
1.46608e-10
1.46608e-10
1.46608e-10
1.46608e-10
1.46608e-10
1.46608e-10
1.46608e-10
1.46608e-10
1.46608e-10
1.46608e-10
1.46608e-10
1.46608e-10
1.46608e-10
1.46608e-10
1.46608e-10
1.46608e-10
1.46608e-10
1.46608e-10
1.46608e-10
1.46608e-10
1.46608e-10
1.46608e-10
1.46608e-10
1.46608e-10
1.46608e-10
1.46608e-10
1.46608e-10
1.46608e-10
1.46608e-10
1.46608e-10
1.46608e-10
1.46608e-10
1.46608e-10
1.46608e-10
1.46608e-10
1.46608e-10
1.46608e-10
1.46608e-10
1.46608e-10
1.46608e-10
1.46608e-10
1.46608e-10
1.46608e-10
1.46608e-10
1.46608e-10
1.46608e-10
1.46608e-10
1.46608e-10
1.46608e-10
1.46608e-10
1.46608e-10
1.46608e-10
1.46608e-10
1.46608e-10
1.46608e-10
1.46608e-10
1.46608e-10
1.46608e-10
1.46608e-10
1.46608e-10
1.46608e-10
1.46608e-10
1.46608e-10
1.46608e-10
1.46608e-10
1.46608e-10
1.46608e-10
1.46608e-10
1.46608e-10
1.46608e-10
1.46608e-10
1.46608e-10
1.46608e-10
1.46608e-10
1.46608e-10
1.46608e-10
1.46608e-10
1.46608e-10
1.46608e-10
1.46608e-10
1.46608e-10
1.46608e-10
1.46608e-10
1.46608e-10
1.46608e-10
1.46608e-10
1.46608e-10
1.46608e-10
1.46608e-10
1.46608e-10
1.46608e-10
1.46608e-10
1.46608e-10
1.46608e-10
1.46608e-10
1.46608e-10
1.46608e-10
1.46608e-10
1.46608e-10
1.46608e-10
1.46608e-10
1.46608e-10
1.46608e-10
1.46608e-10
1.46608e-10
1.46608e-10
1.46608e-10
1.46608e-10
1.46608e-10
1.46608e-10
1.46608e-10
1.46608e-10
1.46608e-10
1.46608e-10
1.46608e-10
1.46608e-10
1.46608e-10
1.46608e-10
1.46608e-10
1.46608e-10
1.46608e-10
1.46608e-10
1.46608e-10
1.46608e-10
1.46608e-10
1.46608e-10
1.46608e-10
1.46608e-10
1.46608e-10
1.46608e-10
1.46608e-10
1.46608e-10

VECTORS velocity float
0.00537471 0.000152866 -0.000602374
0.0062514 0.000255583 0.000168945
0.005594 -6.56294e-05 0.000454596
0.00626165 0.000285159 0.000160591
0.00548204 0.000153743 -0.000611793
0.00567312 0.000448464 -0.000106786
0.00560092 -2.57004e-05 -0.000468771
0.00599315 6.46995e-05 -0.000577172
0.00631006 0.00019934 -0.000189523
0.00556152 0.000123958 -0.000594688
0.00623603 0.000287513 0.000160777
0.00556436 -0.000153836 0.000525431
0.00574619 0.000112868 -0.000600558
0.00560753 -0.000206557 0.000560507
0.00578888 6.56343e-05 -0.000570869
0.00561052 -0.000202763 0.000561042
0.00549221 0.000107491 -0.000576354
0.00574405 0.000426013 -9.17194e-05
0.005919 9.40142e-05 -0.00059828
0.00535316 0.000160193 -0.000608896
0.00570116 0.000134849 -0.000408683
0.00574983 -0.000382963 0.00069085
0.00575837 0.000298786 -0.000286273
0.00562184 0.000137724 -0.000612912
0.00573356 0.000432657 -9.57118e-05
0.00572022 -0.000311722 0.000643494
0.00624883 0.000284414 0.00015981
0.00595696 8.72055e-05 -0.000595257
0.00623536 0.00027207 0.000164991
0.0056414 3.07751e-05 -0.000499333
0.00571827 2.78603e-05 -0.000502344
0.00567812 0.000446055 -0.000105118
0.00546269 9.86078e-05 -0.000565837
0.00565706 6.09937e-05 -0.000548042
0.0063093 0.00019683 -0.00018703
0.00562137 0.000143389 -0.00061746
0.00581637 7.47405e-05 -0.000443408
0.00597328 0.000271347 -0.000179763
0.00546202 0.000144665 -0.000609513
0.00573662 0.000308422 -0.000136768
0.00589839 0.000243502 -0.000148052
0.00571687 0.00043671 -9.87357e-05
0.00573416 0.000428385 -9.39517e-05
0.0054279 7.71614e-05 -0.000598431
0.00572128 0.000460517 9.87412e-05
0.00573413 0.000429416 -9.36957e-05
0.00625626 0.000296925 0.00015778
0.00623815 0.000307602 0.000166079
0.00553022 -0.000121887 0.00049927
0.00575065 0.000417466 -8.64795e-05
0.00610781 0.000610526 -0.00109239
0.00554701 -0.000204691 0.000581932
0.00562617 0.000145621 -0.000619804
0.00572244 0.000435361 -9.74253e-05
0.00565335 4.91274e-05 -0.000531201
0.00567895 4.47454e-05 -0.00052619
0.00537155 0.000189963 -0.000631625
0.00594683 0.000379537 0.000130261
0.00601324 0.000420262 0.000329441
0.00575531 0.000408784 -8.24735e-05
0.00563986 -0.000249844 0.000593802
0.00547672 -0.000183135 0.00053884
0.00624622 0.000282749 0.000161853
0.00624923 0.000261617 0.000166222
0.00545526 0.000111441 -0.000574263
0.00630183 0.000201434 -0.000174309
0.00558721 -0.000204788 0.000556328
0.00624603 0.000268443 0.000164503
0.00561323 0.000131127 -0.000604766
0.00593187 0.000242298 -0.000737726
0.00608978 -0.000427871 0.000739635
0.00627961 0.00028729 0.000163861
0.0056467 -0.000139472 0.000520405
0.00560166 -0.000189492 0.000549264
0.00626216 0.000283332 0.000159252
0.00547629 -9.48668e-05 0.000479734
0.00575362 -0.000343481 0.000670222
0.00545447 -0.000198773 0.000545083
0.00631027 0.000197791 -0.000187635
0.00534272 -0.000360831 0.000643073
0.00623189 0.000291487 0.000171918
0.00560572 5.63628e-05 -0.000535712
0.00626104 0.000285571 0.000161536
0.00627172 0.000285513 0.000158696
0.0062259 0.000242731 0.000171348
0.0056535 -0.00022309 0.00057937
0.00625638 0.000295204 0.000157062
0.00625362 0.000265185 0.000165737
0.00625651 0.000306056 0.000157011
0.00624057 0.000297665 0.000156652
0.00627585 0.000294141 0.000159944
0.0053831 -0.000143888 0.000505579
0.00626712 0.00028662 0.000160818
0.0055662 -0.000211378 0.000563041
0.00598198 0.000248591 0.000158848
0.00536299 -0.000198116 0.00053804
4.34142e-15 1.0476e-14 8.2959e-14
1.4124e-22 4.86658e-23 1.23839e-22
0.00609831 -0.000843233 0.000345336
0.00388691 9.70698e-05 0.000233182
0.00610449 -0.000877802 0.000226029
0.00560749 -0.000101815 0.000473197
0.00563133 0.00014146 -0.000616088
0.00626309 0.000362326 0.000142871
0.00618262 0.000294051 -0.000822124
0.0063154 0.000329477 -0.000192519
0.00542413 -0.000154046 0.000512348
0.00563165 -0.000608813 0.000320625
0.00587928 -0.000631024 0.000671257
0.00581667 -4.44901e-05 -0.000761859
0.00551606 0.000101231 -0.000570055
0.00592562 0.000245704 -0.000739227
0.00549987 -0.000430567 -4.92804e-05
0.00570488 3.60917e-05 -0.000528355
0.00596733 8.03728e-05 -0.000590336
0.00601745 4.89913e-05 -0.000564155
0.00622742 0.000287638 -0.00082891
0.00335274 7.53593e-06 0.000251086
0.0062616 0.000299036 0.000156445
0.00604678 0.000187364 -0.000695953
0.00575411 0.000460962 9.10439e-05
0.00438827 3.26654e-06 0.000333361
0.00627775 0.000289905 0.000167771
0.00615157 0.000316949 0.000150284
0.0057772 -0.000412503 0.000730666
0.00550271 -0.000186537 0.000541724
0.00627065 0.000290414 0.00015985
0.00544117 9.98391e-05 -0.000561845
0.00575221 3.10781e-06 -0.000558307
0.00601251 0.000124289 -0.000634168
0.00546786 7.64552e-05 0.000367274
0.00627893 6.92669e-05 -0.000875062
0.00545775 0.000125601 -0.000585784
0.00620561 0.00026254 -0.00083184
0.00367447 -7.78628e-05 0.000330784
0.00600491 -0.000751965 0.000506613
0.006019 -0.000426527 0.000734475
0.00576932 -0.000503074 0.000747467
0.00556279 -0.000211768 0.000561846
0.00560939 -0.000146978 0.000523912
0.00587757 -0.000385014 0.000693629
0.00623664 0.000259817 -0.000437916
0.00572104 -0.000314295 0.000642157
0.00632136 -0.000939371 0.000237296
0.00490588 -0.00014521 0.000469338
0.00604899 -0.00045479 0.000757408
0.00618001 -0.000530739 0.000620473
0.00594895 -0.000459276 0.000721939
-3.83379e-14 8.16721e-14 2.95885e-13
0.00765845 0.000725494 -0.000987568
0.00625468 0.000291579 0.000158088
0.00600068 -0.000536479 0.000805114
0.00585243 -0.000636154 0.000876477
0.005784 -0.000614326 0.000316993
0.00600773 -0.000798282 0.000155543
0.005259 0.000147577 -0.000589935
0.00561649 -0.000242326 0.000585501
0.00620558 -0.00100395 0.000276373
0.00567944 -0.000631682 0.000328343
0.00627385 -0.000972123 0.000335063
0.0053937 0.000112106 -0.000568257
0.00634563 -0.000890543 0.000208808
0.00626987 0.000280352 0.000163133
0.00635548 -0.000871663 0.000337754
0.00610003 -0.00031606 0.000717602
0.00585035 -0.000432252 0.00072135
0.0061227 -0.000401105 0.000729081
0.0056794 -0.000635555 0.000333355
0.00567334 -0.000661158 0.000270155
0.00593542 -0.000573033 0.000805885
0.00551616 0.000150917 -0.00061224
0.0061552 -0.000874217 0.000316428
0.00624793 0.000283277 0.000161822
0.00583946 -0.000360561 0.000682221
0.00592592 -0.000570444 0.000838003
0.00573963 2.56867e-05 -0.000522613
0.00627872 0.000297404 0.000158098
0.00620066 0.000216932 0.000176814
0.00615537 -0.000402317 0.000760697
0.00624616 0.000159202 -0.00085769
0.00589521 -0.00100728 0.000317409
0.0055459 6.5533e-05 -0.000538728
0.00561196 -0.000397576 0.00069182
0.00574234 -0.000676039 8.3032e-05
0.00563209 -0.00016198 0.000535404
0.00616613 -0.000376793 0.000751004
0.00571138 -0.000250694 0.000609841
0.00590187 -0.000613914 0.000824991
0.00573661 -0.000357777 0.000671936
0.00567573 -0.000611465 0.000330421
0.0060113 -0.00104056 0.000280427
0.00611371 0.000114564 -0.000845612
0.00572356 -0.00033492 0.000654681
0.00575652 -0.000804551 0.000280343
0.00641745 -0.000879033 0.000277939
0.00414024 -6.69843e-05 0.000359892
0.00611892 -0.000436895 0.000763426
0.00572424 -0.000357812 0.000669885
0.00628373 0.000298367 0.000151965
0.00617298 0.000317727 0.000151188
0.00647093 -0.000937351 0.000225423
0.00579523 5.84531e-06 -0.000506554
0.00624828 0.000293939 0.000159539
0.00612103 -0.000401361 0.000755894
0.00605628 -0.000451779 0.000766087
0.0054494 9.33091e-05 -0.000556106
0.00612794 -0.000852459 0.000350191
0.00628129 0.000295524 0.000159793
0.00622441 -0.000297058 0.000673113
0.00589784 -0.000349072 0.000709699
0.00548202 8.17762e-05 -0.000548079
0.00609479 -0.00083143 0.000405352
0.00577981 -0.000354546 0.0006755
0.00624371 0.000295565 0.000155904
0.00643113 -0.00102083 0.000252913
0.00602839 -0.000370714 0.000734946
0.00613151 -0.000323415 0.000723795
0.00605476 -0.0004205 0.000734985
0.00563576 -0.000616978 0.000321841
0.00608988 -0.000313123 0.000713803
0.00500162 -0.000119261 0.000459255
0.00568655 -0.000449733 0.000736324
0.00627744 0.000292708 0.00015924
0.005552 -0.000703082 0.000316062
0.00549411 -0.000480076 0.000326223
0.00555918 -0.000715511 0.000316661
0.00545781 -0.000504994 5.32188e-05
0.00547733 -0.000523882 6.58805e-05
0.00544874 -0.000508964 5.65501e-05
0.00591996 -0.000727199 0.000110995
0.00572304 -0.000290293 0.000624526
0.00546311 -0.000506119 5.33098e-05
0.00605034 -0.000304417 0.000708813
0.00619918 -0.000684733 0.000147191
0.00564308 -0.000595086 0.000325623
0.00618351 -0.000400263 0.00075737
0.00591782 -0.000853753 0.000183969
0.00635674 0.000292346 0.000164793
0.00622662 -0.000480926 -0.000334549
0.00602962 -0.000369315 0.000733216
0.00587723 -0.00039303 0.000472427
0.00560455 -3.93815e-05 0.000443791
0.00623835 -0.000796005 0.000263747
0.00552379 -0.000964161 0.00108588
0.00558385 -0.000830227 0.00025128
0.00619164 -0.000472877 -0.000347691
0.00574449 -0.000459773 0.000724635
0.00549662 -0.000624217 0.00031131
0.00555141 -0.000601603 0.000308465
0.00557624 -0.000510625 0.000161031
0.00551469 -0.000846857 0.000275986
0.00612861 -0.000413808 0.000761775
0.006436 -0.000989406 0.000255248
0.005653 -0.000663878 0.000207904
0.00613126 -0.000378105 0.000702701
0.00625048 -0.000426984 0.000416197
0.00627891 0.000285096 0.000161996
0.00641903 -0.000776494 7.59851e-05
0.00557535 -0.000349622 -0.000306573
0.00555916 -0.000553603 0.000201791
0.00559059 -0.000351439 -0.000309331
0.00582907 -0.000518615 0.000341412
0.00618135 -0.000349227 0.000738912
0.00552917 -0.000659741 0.000331362
0.00604486 -0.000681013 0.0002924
0.0060668 -0.000311098 0.000710983
0.00617256 -0.000408165 0.000764759
0.00574698 -0.00067714 0.000102453
0.00600676 -0.0003633 0.000728253
0.00546349 -0.000513424 5.82623e-05
0.00558015 -0.000621006 0.000314956
0.00558138 -0.000617925 0.000299132
0.00559132 -0.000587011 0.000115772
0.00562792 -0.000590369 0.00039766
0.00555675 -0.000637184 0.000333529
0.00600879 -0.000636334 2.89875e-05
0.00612947 -0.000721003 0.000101424
0.00565995 -0.000630687 0.000357214
0.00488331 -9.89234e-05 0.000437552
0.00611834 -0.000693595 8.59343e-05
0.00550053 -0.00067428 0.000309464
0.00605386 -0.000381323 0.000740322
0.00556039 -0.000715012 0.000305473
0.00572929 1.71749e-05 -0.000521455
0.00547588 -0.000533232 7.4995e-05
0.00619098 -0.00040523 0.000757639
0.00625565 0.000253665 0.000168361

VECTORS force float
-6.41166e-11 -2.97666e-10 2.35374e-10
-4.59498e-11 3.61959e-11 -4.48656e-13
-1.32799e-12 -3.68432e-10 1.1855e-10
-2.90486e-11 6.90877e-11 -7.94252e-12
-1.01342e-09 1.6544e-10 -6.02512e-11
-2.65128e-11 -7.66221e-11 4.42871e-11
-1.90507e-11 -4.69072e-10 4.33522e-10
-4.33393e-11 9.41905e-11 -7.43183e-11
-3.65983e-11 2.18779e-11 3.16453e-11
9.45712e-11 -1.74386e-10 1.56365e-10
-3.62469e-11 -2.42751e-11 4.59363e-11
1.46114e-10 3.00559e-10 -2.07522e-10
-4.72099e-10 -1.19696e-10 1.48757e-10
8.25003e-11 4.3792e-10 -3.69181e-10
-2.51271e-10 2.4358e-10 -1.05582e-10
-2.53184e-11 -2.68268e-10 1.95382e-10
-3.04394e-11 -2.197e-10 2.41065e-10
-8.53664e-11 -6.12342e-11 3.83892e-11
1.73706e-11 -1.45607e-10 1.25954e-10
-4.8706e-11 -2.38601e-10 2.04244e-10
-1.72535e-10 4.1505e-10 6.58891e-11
8.21812e-11 -6.7252e-10 3.90729e-10
2.66243e-11 -3.3497e-12 7.32724e-11
-2.076e-11 -3.58924e-11 4.95001e-11
-1.52552e-11 3.63626e-11 -1.25318e-11
6.26967e-10 8.21139e-10 -2.61672e-10
2.44076e-11 4.03704e-11 -4.04018e-11
1.53567e-10 6.71679e-13 -9.30962e-12
3.14364e-12 -4.74862e-11 -1.6993e-11
-3.94187e-10 -4.87296e-10 9.26984e-10
2.60728e-11 3.78518e-10 -5.67574e-10
-9.75037e-12 -6.76332e-11 4.00433e-11
3.35663e-10 -3.2673e-10 1.53111e-10
-3.65564e-10 4.23951e-10 -3.40469e-10
3.42171e-11 -8.73516e-12 2.13862e-12
-2.5439e-11 -9.39831e-12 1.44938e-11
-2.53109e-10 2.48531e-11 1.58053e-10
-1.96322e-10 2.53617e-10 4.07758e-10
-3.98442e-11 3.24063e-10 -7.9175e-10
3.16266e-10 2.24329e-10 -8.28812e-10
-8.69307e-11 -1.24951e-11 1.09467e-10
2.28089e-11 -5.09507e-11 3.12743e-11
-1.32008e-11 -8.27809e-11 1.99321e-11
1.80105e-09 2.34713e-11 -1.05024e-11
8.83058e-11 1.00576e-10 -1.00435e-11
9.51051e-11 8.331e-12 8.2499e-12
4.96819e-12 4.77218e-12 5.22405e-12
4.09279e-13 -8.59956e-11 -1.07225e-10
-3.708e-11 3.21585e-10 -1.86631e-10
4.84297e-12 -3.27265e-11 5.13358e-13
-3.0325e-10 2.85036e-10 -2.3584e-10
7.01536e-10 -1.89941e-11 6.8756e-10
-6.19107e-11 -4.76055e-11 4.33814e-11
-5.80277e-11 -2.90065e-11 9.22383e-12
-6.51181e-11 8.84866e-11 -6.28366e-11
-1.92703e-10 6.33822e-11 -7.46298e-11
2.11186e-10 3.82428e-10 -2.81351e-10
1.57639e-10 -4.73711e-11 2.83762e-11
8.80901e-11 -2.55058e-12 2.84561e-11
4.74154e-11 -1.05033e-11 -1.12115e-11
-3.14056e-11 -1.03442e-10 1.24583e-10
4.49302e-10 2.21725e-10 -8.83631e-11
-1.51554e-10 3.66893e-11 -1.11993e-11
-1.11447e-10 2.18905e-11 -3.3201e-11
1.48522e-10 -1.0428e-10 5.09976e-11
2.62923e-11 1.45497e-11 7.4377e-11
4.79959e-11 9.61276e-11 1.35078e-10
-1.26712e-11 7.4912e-12 -6.13242e-11