# vtk DataFile Version 3.0
LIGGGHTS particles timestep 600000
ASCII
DATASET POLYDATA
POINTS 146 float
0.0175819 0.0187676 0.00691975
0.0192878 0.0190371 0.00684203
0.0165111 0.0237447 0.012561
0.0212869 0.0238051 0.0119674
0.0175737 0.0188767 0.00693077
0.0224419 0.0171887 0.0072396
0.0179409 0.0198268 0.00699455
0.0167536 0.018586 0.00695594
0.0234238 0.0194071 0.00689802
0.0176676 0.0198264 0.00701451
0.0193917 0.018983 0.00685449
0.0174515 0.0238576 0.0115723
0.0171511 0.0191644 0.00698913
0.0140966 0.0212523 0.0074773
0.0186098 0.0196398 0.00692779
0.0137219 0.020607 0.00729668
0.0170951 0.0202681 0.00709852
0.0226564 0.0181473 0.00709161
0.0174825 0.0187589 0.0069262
0.0174731 0.0188718 0.00693766
0.0180877 0.0200425 0.0070044
0.0179712 0.0238771 0.011607
0.0227893 0.0187509 0.00699272
0.0176825 0.0200577 0.00703549
0.0225311 0.0175892 0.00717777
0.0172971 0.0238569 0.0116616
0.0208419 0.0234309 0.0100372
0.0174812 0.0186586 0.00691673
0.0198329 0.0142285 0.0117189
0.0179057 0.02054 0.00718281
0.0189016 0.0193211 0.00687604
0.0224628 0.0172853 0.00722468
0.0176335 0.0197014 0.00700507
0.0184363 0.0195027 0.00692739
0.0245478 0.0194656 0.00687151
0.018105 0.0195949 0.00696042
0.0190371 0.0192617 0.00686047
0.0228444 0.0190204 0.00694817
0.0173429 0.0238578 0.0115727
0.0178249 0.0186917 0.00689474
0.0182538 0.0199806 0.00698635
0.0195448 0.0191442 0.00683345
0.0224845 0.0173818 0.00720979
0.0226347 0.0180509 0.0071065
0.018183 0.019034 0.00690121
0.0191635 0.0195215 0.006876
0.0225527 0.0176857 0.00716288
0.0218483 0.0217001 0.0145009
0.0198907 0.0204494 0.00725638
0.0165686 0.0225023 0.0148557
0.0227386 0.0185128 0.00703201
0.0176247 0.0186757 0.00690786
0.0148218 0.0198186 0.0154296
0.018195 0.0195191 0.00694661
0.0225094 0.0174927 0.00719266
0.0190406 0.0142446 0.0116923
0.019143 0.0142425 0.0116957
0.0176956 0.0188062 0.00691512
0.0196205 0.0192309 0.00682191
0.0196887 0.0195635 0.00691169
0.0227627 0.018621 0.00701418
0.0175559 0.0238084 0.0127683
0.0172201 0.0238573 0.0115968
0.0194584 0.0190809 0.0068408
0.0205246 0.0226187 0.00860956
0.0181665 0.019293 0.00692713
0.0228869 0.0192416 0.00691155
0.0145784 0.0197088 0.0154515
0.0198557 0.0202767 0.00719228
0.0172313 0.0204402 0.00710498
0.0194608 0.0191975 0.00682335
0.0216583 0.0175982 0.0260327
0.0234002 0.018439 0.0269892
0.0155233 0.0198826 0.0231234
0.016662 0.0226949 0.0302531
0.0206845 0.0179397 0.0235045
0.0165068 0.0179677 0.0296715
0.0179122 0.0216798 0.0288295
0.0160125 0.0184836 0.023018
0.0233448 0.0169138 0.0285569
0.0151732 0.0172732 0.0150933
0.0215346 0.021448 0.0260704
0.0219079 0.01537 0.0297258
0.0223376 0.0228668 0.0271123
0.0220639 0.0204455 0.0223913
0.0203067 0.0156342 0.025644
0.0183789 0.0216368 0.0196504
0.0205328 0.015653 0.0246164
0.022049 0.0186735 0.0278144
0.0223445 0.0193153 0.0154822
0.0222009 0.0210111 0.0299514
0.0208281 0.014685 0.0233022
0.0174018 0.0210962 0.0201441
0.0233506 0.0205377 0.027885
0.0169242 0.0194627 0.0181972
0.0197235 0.0152615 0.0287665
0.015107 0.01696 0.0296281
0.0183301 0.0220896 0.0190189
0.0182441 0.0239014 0.0116542
0.0180391 0.0196979 0.0248071
0.0156224 0.0210079 0.0230482
0.0195756 0.0220838 0.0266367
0.0143932 0.0188804 0.0235245
0.0177552 0.0144259 0.0215357
0.0198057 0.0235594 0.0115748
0.0212653 0.0209509 0.024751
0.0239415 0.0185294 0.0261449
0.0168752 0.021301 0.0234375
0.0204416 0.0185814 0.0294445
0.0181484 0.0223897 0.0242115
0.0199927 0.0200304 0.0179474
0.0189359 0.0154522 0.02434
0.0149739 0.0166798 0.0180081
0.0163497 0.0195255 0.0185227
0.019324 0.0142388 0.0117019
0.0168868 0.0161128 0.0142863
0.0163034 0.0160151 0.00818116
0.0237861 0.021116 0.0159325
0.0159541 0.0180074 0.0164204
0.021096 0.0209748 0.0262307
0.0185116 0.0168101 0.024871
0.018775 0.0238962 0.0143325
0.0161146 0.0176486 0.0217249
0.0220277 0.0237069 0.0126861
0.0165856 0.0223402 0.0227605
0.0184655 0.0219344 0.0202848
0.0174748 0.0198996 0.022457
0.0204339 0.0212077 0.0202754
0.0178878 0.0163826 0.0283713
0.0192101 0.0192068 0.00685221
0.0169712 0.0168558 0.0221036
0.0159022 0.0208424 0.0203448
0.023604 0.0178789 0.0260731
0.0226384 0.0206878 0.0160153
0.0182239 0.0232236 0.0203342
0.0211871 0.0217488 0.0276252
0.0158721 0.0180673 0.0154231
0.0188287 0.019202 0.0166568
0.017375 0.0207121 0.0224715
0.0187109 0.0235556 0.0234864
0.0191084 0.0240354 0.0262872
0.0161581 0.0156658 0.0299986
0.0150093 0.0201991 0.0225125
0.0187181 0.0230181 0.0224357
0.0216343 0.0183079 0.0228088
0.0150016 0.0165685 0.0222514

VERTICES 146 292
1 0
1 1
1 2
1 3
1 4
1 5
1 6
1 7
1 8
1 9
1 10
1 11
1 12
1 13
1 14
1 15
1 16
1 17
1 18
1 19
1 20
1 21
1 22
1 23
1 24
1 25
1 26
1 27
1 28
1 29
1 30
1 31
1 32
1 33
1 34
1 35
1 36
1 37
1 38
1 39
1 40
1 41
1 42
1 43
1 44
1 45
1 46
1 47
1 48
1 49
1 50
1 51
1 52
1 53
1 54
1 55
1 56
1 57
1 58
1 59
1 60
1 61
1 62
1 63
1 64
1 65
1 66
1 67
1 68
1 69
1 70
1 71
1 72
1 73
1 74
1 75
1 76
1 77
1 78
1 79
1 80
1 81
1 82
1 83
1 84
1 85
1 86
1 87
1 88
1 89
1 90
1 91
1 92
1 93
1 94
1 95
1 96
1 97
1 98
1 99
1 100
1 101
1 102
1 103
1 104
1 105
1 106
1 107
1 108
1 109
1 110
1 111
1 112
1 113
1 114
1 115
1 116
1 117
1 118
1 119
1 120
1 121
1 122
1 123
1 124
1 125
1 126
1 127
1 128
1 129
1 130
1 131
1 132
1 133
1 134
1 135
1 136
1 137
1 138
1 139
1 140
1 141
1 142
1 143
1 144
1 145

POINT_DATA 146
SCALARS id int 1
LOOKUP_TABLE default
1
2
3
4
5
6
7
8
9
10
11
12
13
14
15
16
17
18
19
21
22
23
24
25
26
27
28
29
30
31
32
33
34
35
36
37
38
39
40
41
42
44
45
46
47
48
49
50
51
52
53
54
55
56
57
59
60
61
62
63
64
65
66
67
68
69
70
71
72
73
74
76
77
78
79
80
81
82
83
84
85
86
87
88
89
90
91
92
93
94
95
96
97
98
99
100
101
102
103
104
105
106
107
108
109
110
111
112
113
114
115
116
117
118
119
120
121
122
123
124
125
126
127
128
129
130
131
132
133
134
135
136
137
138
139
140
141
142
143
144
145
146
147
148
149
150

SCALARS type int 1
LOOKUP_TABLE default
1
1
1
1
1
1
1
1
1
1
1
1
1
1
1
1
1
1
1
1
1
1
1
1
1
1
1
1
1
1
1
1
1
1
1
1
1
1
1
1
1
1
1
1
1
1
1
1
1
1
1
1
1
1
1
1
1
1
1
1
1
1
1
1
1
1
1
1
1
1
1
1
1
1
1
1
1
1
1
1
1
1
1
1
1
1
1
1
1
1
1
1
1
1
1
1
1
1
1
1
1
1
1
1
1
1
1
1
1
1
1
1
1
1
1
1
1
1
1
1
1
1
1
1
1
1
1
1
1
1
1
1
1
1
1
1
1
1
1
1
1
1
1
1
1
1

SCALARS radius float 1
LOOKUP_TABLE default
5e-05
5e-05
5e-05
5e-05
5e-05
5e-05
5e-05
5e-05
5e-05
5e-05
5e-05
5e-05
5e-05
5e-05
5e-05
5e-05
5e-05
5e-05
5e-05
5e-05
5e-05
5e-05
5e-05
5e-05
5e-05
5e-05
5e-05
5e-05
5e-05
5e-05
5e-05
5e-05
5e-05
5e-05
5e-05
5e-05
5e-05
5e-05
5e-05
5e-05
5e-05
5e-05
5e-05
5e-05
5e-05
5e-05
5e-05
5e-05
5e-05
5e-05
5e-05
5e-05
5e-05
5e-05
5e-05
5e-05
5e-05
5e-05
5e-05
5e-05
5e-05
5e-05
5e-05
5e-05
5e-05
5e-05
5e-05
5e-05
5e-05
5e-05
5e-05
5e-05
5e-05
5e-05
5e-05
5e-05
5e-05
5e-05
5e-05
5e-05
5e-05
5e-05
5e-05
5e-05
5e-05
5e-05
5e-05
5e-05
5e-05
5e-05
5e-05
5e-05
5e-05
5e-05
5e-05
5e-05
5e-05
5e-05
5e-05
5e-05
5e-05
5e-05
5e-05
5e-05
5e-05
5e-05
5e-05
5e-05
5e-05
5e-05
5e-05
5e-05
5e-05
5e-05
5e-05
5e-05
5e-05
5e-05
5e-05
5e-05
5e-05
5e-05
5e-05
5e-05
5e-05
5e-05
5e-05
5e-05
5e-05
5e-05
5e-05
5e-05
5e-05
5e-05
5e-05
5e-05
5e-05
5e-05
5e-05
5e-05
5e-05
5e-05
5e-05
5e-05
5e-05
5e-05

SCALARS mass float 1
LOOKUP_TABLE default
1.46608e-10
1.46608e-10
1.46608e-10
1.46608e-10
1.46608e-10
1.46608e-10
1.46608e-10
1.46608e-10
1.46608e-10
1.46608e-10
1.46608e-10
1.46608e-10
1.46608e-10
1.46608e-10
1.46608e-10
1.46608e-10
1.46608e-10
1.46608e-10
1.46608e-10
1.46608e-10
1.46608e-10
1.46608e-10
1.46608e-10
1.46608e-10
1.46608e-10
1.46608e-10
1.46608e-10
1.46608e-10
1.46608e-10
1.46608e-10
1.46608e-10
1.46608e-10
1.46608e-10
1.46608e-10
1.46608e-10
1.46608e-10
1.46608e-10
1.46608e-10
1.46608e-10
1.46608e-10
1.46608e-10
1.46608e-10
1.46608e-10
1.46608e-10
1.46608e-10
1.46608e-10
1.46608e-10
1.46608e-10
1.46608e-10
1.46608e-10
1.46608e-10
1.46608e-10
1.46608e-10
1.46608e-10
1.46608e-10
1.46608e-10
1.46608e-10
1.46608e-10
1.46608e-10
1.46608e-10
1.46608e-10
1.46608e-10
1.46608e-10
1.46608e-10
1.46608e-10
1.46608e-10
1.46608e-10
1.46608e-10
1.46608e-10
1.46608e-10
1.46608e-10
1.46608e-10
1.46608e-10
1.46608e-10
1.46608e-10
1.46608e-10
1.46608e-10
1.46608e-10
1.46608e-10
1.46608e-10
1.46608e-10
1.46608e-10
1.46608e-10
1.46608e-10
1.46608e-10
1.46608e-10
1.46608e-10
1.46608e-10
1.46608e-10
1.46608e-10
1.46608e-10
1.46608e-10
1.46608e-10
1.46608e-10
1.46608e-10
1.46608e-10
1.46608e-10
1.46608e-10
1.46608e-10
1.46608e-10
1.46608e-10
1.46608e-10
1.46608e-10
1.46608e-10
1.46608e-10
1.46608e-10
1.46608e-10
1.46608e-10
1.46608e-10
1.46608e-10
1.46608e-10
1.46608e-10
1.46608e-10
1.46608e-10
1.46608e-10
1.46608e-10
1.46608e-10
1.46608e-10
1.46608e-10
1.46608e-10
1.46608e-10
1.46608e-10
1.46608e-10
1.46608e-10
1.46608e-10
1.46608e-10
1.46608e-10
1.46608e-10
1.46608e-10
1.46608e-10
1.46608e-10
1.46608e-10
1.46608e-10
1.46608e-10
1.46608e-10
1.46608e-10
1.46608e-10
1.46608e-10
1.46608e-10
1.46608e-10
1.46608e-10
1.46608e-10
1.46608e-10
1.46608e-10
1.46608e-10
1.46608e-10

VECTORS velocity float
-1.92014e-15 2.50455e-15 -2.62516e-14
-7.45809e-15 3.50333e-14 2.14188e-13
0.0256686 -0.0118143 -0.0529763
-0.0125856 -0.00763941 -0.028702
-1.92008e-15 2.50467e-15 -2.62516e-14
0.00521894 -0.00223177 0.00037312
2.03091e-14 -2.6495e-14 2.77687e-13
0.00461503 -0.0052809 -0.000661295
4.24275e-15 -2.63635e-14 -1.54285e-13
-1.92008e-15 2.50468e-15 -2.62516e-14
-7.45607e-15 3.50335e-14 2.14188e-13
-3.77204e-06 -0.000579969 -0.0011275
-1.91998e-15 2.5048e-15 -2.62516e-14
0.00180608 -0.0489564 0.0357257
-1.91983e-15 2.50488e-15 -2.62516e-14
3.60335e-15 -1.19888e-14 6.44398e-14
0.00476936 -0.00399094 -0.000729613
0.00553308 -0.00256353 0.00042627
-2.43258e-14 3.17318e-14 -3.32583e-13
-2.43257e-14 3.17319e-14 -3.32583e-13
2.03126e-14 -2.64929e-14 2.77686e-13
-0.00699345 0.00109693 0.00443948
0.00520211 -0.00241755 0.000556118
-1.92082e-15 2.50421e-15 -2.62516e-14
0.00561066 -0.00250031 0.00041683
-0.00201053 -0.00144648 -0.00184035
-0.0164243 -0.041366 -0.169284
-1.91993e-15 2.50484e-15 -2.62516e-14
-3.46388e-05 0.00099476 -0.00165162
-9.19823e-15 -5.4499e-14 1.35808e-13
-1.9202e-15 2.50459e-15 -2.62516e-14
0.00568341 -0.0023299 0.000390703
-1.92005e-15 2.50471e-15 -2.62516e-14
-1.92008e-15 2.50467e-15 -2.62516e-14
5.81775e-15 3.50519e-14 1.88379e-13
-1.92003e-15 2.50476e-15 -2.62516e-14
2.03102e-14 -2.64944e-14 2.77686e-13
0.0052917 -0.00246435 0.000566577
-0.000125942 -0.00047444 -0.000857518
-1.9206e-15 2.504e-15 -2.62517e-14
-1.92099e-15 2.50403e-15 -2.62516e-14
-9.20262e-11 -1.56788e-10 1.95613e-11
0.00567299 -0.00232763 0.000390278
0.00554358 -0.00256561 0.000426645
-1.91432e-15 2.50655e-15 -2.62519e-14
-1.92009e-15 2.50468e-15 -2.62516e-14
0.00560021 -0.00249803 0.000416422
4.43929e-05 0.0456082 -0.0367688
-0.0148191 -0.0979468 -0.0379129
0.00117917 0.0527881 -0.056752
0.00547711 -0.00260897 0.000596385
-1.91985e-15 2.50481e-15 -2.62516e-14
7.7023e-11 0.0237184 -0.00460594
2.03109e-14 -2.64939e-14 2.77686e-13
0.0056211 -0.00250259 0.000417236
-5.75047e-05 -0.00061556 0.00102205
-5.58534e-05 -0.000597163 0.000991499
2.03103e-14 -2.64943e-14 2.77687e-13
-7.45696e-15 3.50334e-14 2.14188e-13
-0.00935813 -0.0864492 -0.0353254
0.00516259 -0.00237793 0.000548319
-0.00296125 0.0760683 -0.192727
0.000179595 -0.000328579 -0.000815395
-7.45714e-15 3.50334e-14 2.14188e-13
-0.0209476 -0.0962369 -0.146298
-1.92072e-15 2.50416e-15 -2.62516e-14
0.0051938 -0.00234757 0.00054393
-7.25758e-11 0.0238428 -0.00398963
-0.00842264 -0.0781294 -0.0392402
-1.92307e-15 2.50018e-15 -2.62519e-14
1.14493e-10 1.64399e-10 4.83653e-12
0.0 -0.0 -0.03
0.0 -0.0 -0.03
0.0 -0.0 -0.03
0.0 -0.0 -0.03
0.0 -0.0 -0.03
0.0 -0.0 -0.03
0.0 -0.0 -0.03
0.0 -0.0 -0.03
0.0 -0.0 -0.03
1.29161e-06 0.000161094 0.00159276
0.0 -0.0 -0.03
0.0 -0.0 -0.03
0.0 -0.0 -0.03
0.0 -0.0 -0.03
0.0 -0.0 -0.03
0.0 -0.0 -0.03
0.0 -0.0 -0.03
0.0 -0.0 -0.03
-1.94013e-10 0.024029 -0.00159653
0.0 -0.0 -0.03
0.0 -0.0 -0.03
0.0 -0.0 -0.03
0.0 -0.0 -0.03
0.0 0.0 -0.074199
0.0 -0.0 -0.03
0.0 -0.0 -0.03
0.0 -0.0 -0.03
-0.000683409 0.0109028 -0.0337827
0.0 -0.0 -0.03
0.0 -0.0 -0.03
0.0 -0.0 -0.03
0.0 -0.0 -0.03
0.0 -0.0 -0.03
2.26136e-05 -0.107706 -0.0265369
0.0 -0.0 -0.03
0.0 -0.0 -0.03
0.0 -0.0 -0.03
0.0 -0.0 -0.03
0.0 -0.0 -0.03
0.0 0.0 -0.10201
0.0 -0.0 -0.03
0.0 0.0 -0.0959968
0.0 -0.0 -0.03
5.89897e-05 -0.00162954 0.00269418
0.000107827 -0.0312511 -0.156203
0.0216213 0.0648539 0.0411384
-0.00279142 0.0591168 -0.00033405
0.0 0.0 -0.200915
0.0 -0.0 -0.03
0.0 -0.0 -0.03
-0.00562691 0.0844541 -0.131424
0.0 -0.0 -0.03
-0.00836046 0.00149108 -0.00743277
0.0 -0.0 -0.03
0.0 -0.0 -0.03
0.0 -0.0 -0.03
0.0 -0.0 -0.03
0.0 -0.0 -0.03
-0.0123503 -0.0570171 -0.00527073
0.0 -0.0 -0.03
0.0 -0.0 -0.03
0.0 -0.0 -0.03
2.02313e-09 0.027294 -0.00991671
0.0 -0.0 -0.03
0.0 -0.0 -0.03
-5.3655e-05 0.0147517 0.0560372
0.0 0.0 -0.189015
0.0 -0.0 -0.03
0.0 -0.0 -0.03
0.0 -0.0 -0.03
0.0 -0.0 -0.03
0.0 -0.0 -0.03
0.0 -0.0 -0.03
0.0 -0.0 -0.03
0.0 -0.0 -0.03

VECTORS force float
-2.71419e-24 -3.51552e-24 -2.06795e-25
-7.81944e-25 4.91138e-24 -8.27181e-25
0.0 0.0 -1.43822e-09
-1.9129e-10 -3.83731e-10 -9.10424e-10
3.48967e-25 3.36042e-25 0.0
-2.10003e-13 5.69936e-13 -9.2055e-14
-1.71898e-24 2.74004e-24 4.1359e-25
8.72582e-13 -1.09661e-12 -1.22321e-13
8.53676e-24 1.39587e-24 0.0
-1.29247e-26 0.0 0.0
-8.73063e-24 3.61892e-24 -1.03398e-24
0.0 0.0 -1.43822e-09
-8.14256e-25 -1.80946e-24 -2.06795e-25
0.0 0.0 -1.43822e-09
1.83918e-23 1.12445e-23 -2.06795e-25
-4.60765e-23 -4.3427e-24 1.86116e-24
-8.0951e-13 -2.73972e-12 -2.02882e-13
-8.03292e-14 -3.00923e-13 1.1267e-13
-5.82904e-24 4.3944e-25 4.1359e-25
-1.68021e-25 -2.58494e-26 0.0
-1.11928e-23 -5.68687e-25 8.27181e-25
-4.77059e-06 1.16335e-06 7.30684e-07
5.03712e-13 -5.1328e-13 1.15272e-13
2.05115e-23 1.53545e-23 -2.06795e-25
6.05137e-13 4.44456e-14 -2.42369e-14
-2.17837e-10 -7.64274e-11 -6.8874e-11
0.0 0.0 -1.43822e-09
3.91618e-24 3.92911e-24 2.06795e-25
6.41806e-12 4.44252e-10 -7.37602e-10
7.14736e-24 2.79173e-24 1.86116e-24
-2.1972e-25 1.00813e-24 2.06795e-25
8.60292e-13 -1.32224e-15 3.7101e-13
-1.65436e-24 -1.16322e-24 2.06795e-25
5.16988e-26 1.03398e-25 0.0
-7.16028e-24 5.68687e-25 2.06795e-25
7.75482e-25 -1.73191e-24 -2.06795e-25
3.23117e-24 5.16988e-26 -2.06795e-25
2.81299e-13 -3.09843e-13 6.17181e-14
-2.83558e-11 2.31065e-11 4.03334e-11
5.26035e-24 -2.32645e-24 -6.20385e-25
-5.40252e-24 -6.97934e-24 -4.1359e-25
-1.9631e-17 -5.10229e-16 2.43922e-16
8.29462e-13 1.94281e-14 -3.50772e-13
1.1312e-13 1.14039e-12 -1.7825e-13
3.90843e-23 1.36226e-23 -1.24077e-24
-9.04729e-26 5.16988e-26 0.0
4.51127e-13 8.42814e-14 1.899e-14
3.5137e-13 2.16861e-10 -2.67806e-10
1.23085e-10 1.31151e-10 4.83207e-11
0.0 0.0 -1.43822e-09
-4.93362e-13 5.70248e-13 -1.11354e-13
4.1359e-24 3.38627e-24 -2.06795e-25
3.74663e-21 -4.05049e-12 -2.09694e-11
9.04729e-26 -4.65289e-25 0.0
6.89915e-13 3.02562e-14 -1.02745e-15
-1.96674e-12 -2.2185e-11 3.6834e-11
-1.91038e-12 -2.22447e-11 3.69346e-11
-5.68687e-24 -1.70606e-24 2.06795e-25
4.52364e-26 2.58494e-26 0.0
-1.71581e-11 1.1836e-10 4.6335e-11
-1.60321e-11 1.03551e-11 -8.25829e-12
0.0 0.0 -1.43822e-09
-1.21609e-11 2.33947e-11 5.89675e-11
7.36708e-25 1.80946e-25 0.0
0.0 0.0 -1.43822e-09
-2.0938e-24 -3.15363e-24 0.0
4.99069e-13 -5.18283e-13 8.26604e-14
-1.14363e-20 -3.54736e-12 -2.10719e-11
0.0 0.0 -1.43822e-09
-1.56777e-23 -2.27216e-23 -4.1359e-25
4.21114e-17 -5.42332e-16 -2.28061e-16
0.0 0.0 0.0
0.0 0.0 0.0
0.0 0.0 0.0
0.0 0.0 0.0
0.0 0.0 0.0
0.0 0.0 0.0
0.0 0.0 0.0
0.0 0.0 0.0
0.0 0.0 0.0
0.0 0.0 -1.43822e-09
0.0 0.0 0.0
0.0 0.0 0.0
0.0 0.0 0.0
0.0 0.0 0.0
0.0 0.0 0.0
0.0 0.0 0.0
0.0 0.0 0.0
0.0 0.0 0.0
-1.65133e-15 -1.40649e-12 -2.12383e-11
0.0 0.0 0.0
0.0 0.0 0.0
0.0 0.0 0.0
0.0 0.0 0.0
0.0 0.0 -1.43822e-09
0.0 0.0 0.0
0.0 0.0 0.0
0.0 0.0 0.0
0.0 0.0 -1.43822e-09
0.0 0.0 0.0
0.0 0.0 0.0
0.0 0.0 0.0
0.0 0.0 0.0
0.0 0.0 0.0
0.0 0.0 -1.43822e-09
0.0 0.0 0.0
0.0 0.0 0.0
0.0 0.0 0.0
0.0 0.0 0.0
0.0 0.0 0.0
0.0 0.0 -1.43822e-09
0.0 0.0 0.0
0.0 0.0 -1.43822e-09
0.0 0.0 0.0
-7.31421e-12 8.60847e-10 -1.37048e-09
0.0 0.0 -1.43822e-09
0.0 0.0 -1.43822e-09
0.0 0.0 -1.43822e-09
0.0 0.0 -1.43822e-09
0.0 0.0 0.0
0.0 0.0 0.0
0.0 0.0 -1.43822e-09
0.0 0.0 0.0
9.80042e-12 6.55954e-12 2.34983e-11
0.0 0.0 0.0
0.0 0.0 0.0
0.0 0.0 0.0
0.0 0.0 0.0
0.0 0.0 0.0
0.0 0.0 -1.43822e-09
0.0 0.0 0.0
0.0 0.0 0.0
0.0 0.0 0.0
4.87862e-20 -8.80789e-12 -2.41695e-11
0.0 0.0 0.0
0.0 0.0 0.0
0.0 0.0 -1.43822e-09
0.0 0.0 -1.43822e-09
0.0 0.0 0.0
0.0 0.0 0.0
0.0 0.0 0.0
0.0 0.0 0.0
0.0 0.0 0.0
0.0 0.0 0.0
0.0 0.0 0.0
0.0 0.0 0.0
