# vtk DataFile Version 3.0
LIGGGHTS particles timestep 420000
ASCII
DATASET POLYDATA
POINTS 95 float
0.0220937 0.0222951 0.0156325
0.0203217 0.0226501 0.0154385
0.0230374 0.0236558 0.015071
0.0206462 0.0161996 0.0149081
0.0216164 0.0237513 0.014662
0.0212951 0.022751 0.0152357
0.0148111 0.0141342 0.0160741
0.0202761 0.0150666 0.0134702
0.0221502 0.0152614 0.0151039
0.0206216 0.0238493 0.0161041
0.0228398 0.0229537 0.0157547
0.019046 0.0234696 0.0137704
0.0206143 0.0146226 0.0119362
0.0174833 0.0239971 0.01433
0.0236592 0.0228755 0.0151335
0.0225687 0.0235924 0.0141889
0.019489 0.0222001 0.0157715
0.0209616 0.0220856 0.0159584
0.0245812 0.0217777 0.0154961
0.0181052 0.0233037 0.013465
0.020634 0.0238379 0.0148279
0.0198277 0.0220155 0.0148178
0.0240484 0.0170543 0.0163619
0.0207086 0.0202977 0.0157625
0.0193199 0.0226008 0.0141803
0.0195095 0.0239075 0.0145761
0.0187765 0.0139842 0.0129967
0.0188853 0.0234777 0.011783
0.0167168 0.0142139 0.0135608
0.0215144 0.0158225 0.0145745
0.0231126 0.0175088 0.0165416
0.0257601 0.0187737 0.0159274
0.0248198 0.0205091 0.0164577
0.0184872 0.0240681 0.014348
0.0224019 0.0216049 0.0187418
0.0185449 0.0219508 0.0148692
0.0178989 0.0234761 0.0117805
0.0255245 0.0196688 0.0162366
0.0177136 0.0154378 0.0167154
0.020477 0.0248018 0.0151432
0.018472 0.0242151 0.0133588
0.019338 0.0244245 0.0137374
0.0232175 0.0209756 0.0173921
0.0217035 0.0214506 0.0161692
0.0201742 0.0229995 0.0145135
0.0201217 0.015601 0.014301
0.020971 0.0139609 0.0136892
0.019864 0.023656 0.015481
0.0139525 0.0220491 0.0147859
0.0209154 0.0240231 0.0131463
0.0171123 0.024002 0.0133116
0.02528 0.0214031 0.0166147
0.0181367 0.0232595 0.0149814
0.0239459 0.0220719 0.0162418
0.0188761 0.0221365 0.0171566
0.0205408 0.0171382 0.0155213
0.0215263 0.0146276 0.0145284
0.0178773 0.023898 0.0126586
0.0192998 0.0213209 0.0153253
0.0225116 0.0145384 0.0142592
0.0254304 0.0200803 0.0171234
0.017686 0.0141074 0.0132224
0.0215244 0.0234029 0.0159614
0.0218033 0.0145032 0.0135547
0.0254126 0.0179341 0.0158002
0.0257744 0.0178421 0.0167297
0.0230349 0.015569 0.0154528
0.0199583 0.0241541 0.0130292
0.0187677 0.0233146 0.0127445
0.0258564 0.0189809 0.0169023
0.0205693 0.0214858 0.0152364
0.0167282 0.0233304 0.0145686
0.0202841 0.0140974 0.01297
0.0211941 0.01525 0.0138202
0.0254996 0.0204982 0.0157038
0.0183178 0.0226238 0.014167
0.0230053 0.0219575 0.0159133
0.0226513 0.0211219 0.0163495
0.0233053 0.0149218 0.0147312
0.0242889 0.0196288 0.0168178
0.0190241 0.02281 0.0151121
0.0161063 0.0238848 0.018272
0.0212047 0.014529 0.0127478
0.025257 0.0167683 0.0163875
0.0217494 0.0238519 0.0136756
0.0222442 0.0230301 0.0149534
0.019764 0.0165802 0.0152114
0.0196953 0.0232101 0.0130543
0.0202953 0.0237702 0.0138886
0.0152598 0.0233349 0.0146885
0.0222174 0.0227726 0.0165206
0.00929741 0.017929 0.00824837
0.0246671 0.0159888 0.0158041
0.0169136 0.021335 0.0204859
0.0240121 0.0154174 0.015307

VERTICES 95 190
1 0
1 1
1 2
1 3
1 4
1 5
1 6
1 7
1 8
1 9
1 10
1 11
1 12
1 13
1 14
1 15
1 16
1 17
1 18
1 19
1 20
1 21
1 22
1 23
1 24
1 25
1 26
1 27
1 28
1 29
1 30
1 31
1 32
1 33
1 34
1 35
1 36
1 37
1 38
1 39
1 40
1 41
1 42
1 43
1 44
1 45
1 46
1 47
1 48
1 49
1 50
1 51
1 52
1 53
1 54
1 55
1 56
1 57
1 58
1 59
1 60
1 61
1 62
1 63
1 64
1 65
1 66
1 67
1 68
1 69
1 70
1 71
1 72
1 73
1 74
1 75
1 76
1 77
1 78
1 79
1 80
1 81
1 82
1 83
1 84
1 85
1 86
1 87
1 88
1 89
1 90
1 91
1 92
1 93
1 94

POINT_DATA 95
SCALARS id int 1
LOOKUP_TABLE default
1
2
3
5
6
7
9
12
13
14
18
21
23
26
29
35
36
38
39
40
42
45
48
49
52
53
54
57
60
62
63
64
65
66
67
68
69
70
74
75
76
79
80
82
84
86
87
88
90
91
92
96
97
98
100
104
105
106
108
110
111
112
114
115
119
125
126
128
131
133
135
136
143
144
148
149
152
154
158
159
165
167
168
171
172
175
176
177
178
182
184
185
186
187
190

SCALARS type int 1
LOOKUP_TABLE default
1
1
1
1
1
1
1
1
1
1
1
1
1
1
1
1
1
1
1
1
1
1
1
1
1
1
1
1
1
1
1
1
1
1
1
1
1
1
1
1
1
1
1
1
1
1
1
1
1
1
1
1
1
1
1
1
1
1
1
1
1
1
1
1
1
1
1
1
1
1
1
1
1
1
1
1
1
1
1
1
1
1
1
1
1
1
1
1
1
1
1
1
1
1
1

SCALARS radius float 1
LOOKUP_TABLE default
0.0005
0.0005
0.0005
0.0005
0.0005
0.0005
0.0005
0.0005
0.0005
0.0005
0.0005
0.0005
0.0005
0.0005
0.0005
0.0005
0.0005
0.0005
0.0005
0.0005
0.0005
0.0005
0.0005
0.0005
0.0005
0.0005
0.0005
0.0005
0.0005
0.0005
0.0005
0.0005
0.0005
0.0005
0.0005
0.0005
0.0005
0.0005
0.0005
0.0005
0.0005
0.0005
0.0005
0.0005
0.0005
0.0005
0.0005
0.0005
0.0005
0.0005
0.0005
0.0005
0.0005
0.0005
0.0005
0.0005
0.0005
0.0005
0.0005
0.0005
0.0005
0.0005
0.0005
0.0005
0.0005
0.0005
0.0005
0.0005
0.0005
0.0005
0.0005
0.0005
0.0005
0.0005
0.0005
0.0005
0.0005
0.0005
0.0005
0.0005
0.0005
0.0005
0.0005
0.0005
0.0005
0.0005
0.0005
0.0005
0.0005
0.0005
0.0005
0.0005
0.0005
0.0005
0.0005

SCALARS mass float 1
LOOKUP_TABLE default
5.23599e-07
5.23599e-07
5.23599e-07
5.23599e-07
5.23599e-07
5.23599e-07
5.23599e-07
5.23599e-07
5.23599e-07
5.23599e-07
5.23599e-07
5.23599e-07
5.23599e-07
5.23599e-07
5.23599e-07
5.23599e-07
5.23599e-07
5.23599e-07
5.23599e-07
5.23599e-07
5.23599e-07
5.23599e-07
5.23599e-07
5.23599e-07
5.23599e-07
5.23599e-07
5.23599e-07
5.23599e-07
5.23599e-07
5.23599e-07
5.23599e-07
5.23599e-07
5.23599e-07
5.23599e-07
5.23599e-07
5.23599e-07
5.23599e-07
5.23599e-07
5.23599e-07
5.23599e-07
5.23599e-07
5.23599e-07
5.23599e-07
5.23599e-07
5.23599e-07
5.23599e-07
5.23599e-07
5.23599e-07
5.23599e-07
5.23599e-07
5.23599e-07
5.23599e-07
5.23599e-07
5.23599e-07
5.23599e-07
5.23599e-07
5.23599e-07
5.23599e-07
5.23599e-07
5.23599e-07
5.23599e-07
5.23599e-07
5.23599e-07
5.23599e-07
5.23599e-07
5.23599e-07
5.23599e-07
5.23599e-07
5.23599e-07
5.23599e-07
5.23599e-07
5.23599e-07
5.23599e-07
5.23599e-07
5.23599e-07
5.23599e-07
5.23599e-07
5.23599e-07
5.23599e-07
5.23599e-07
5.23599e-07
5.23599e-07
5.23599e-07
5.23599e-07
5.23599e-07
5.23599e-07
5.23599e-07
5.23599e-07
5.23599e-07
5.23599e-07
5.23599e-07
5.23599e-07
5.23599e-07
5.23599e-07
5.23599e-07

VECTORS velocity float
-0.00863647 0.0360279 -0.0268617
-0.00376775 0.00964663 0.00541546
0.0131514 -0.00199533 0.00533168
-0.00141632 0.00602184 0.00237499
0.00715607 0.000279758 0.00964399
-0.0120354 0.0149088 -0.0351317
7.66358e-21 -1.17022e-19 2.0377e-20
0.00772336 0.00864234 0.017481
0.00167029 -0.00236834 -0.006657
0.0155805 -0.00616231 0.0119612
0.0151486 -0.00436871 0.00489342
0.00668853 -0.00757167 0.00523365
0.0128234 0.00140403 -0.00614203
0.00823846 0.00565857 -0.0237582
0.0125238 -0.00432687 0.00619626
0.0168388 -0.0102762 0.00383445
0.00273304 0.0133742 0.00879693
-0.000220433 0.0175032 0.00387919
-0.0106293 0.0531321 -0.0687329
0.00668338 0.0118135 0.00770062
0.00670778 -0.00403704 0.00495871
0.0179055 -0.00957769 0.00163989
-0.00619606 0.00250027 -0.00127082
-2.37059e-07 0.0475722 -0.0139069
0.00953983 -0.00729793 -0.0043314
0.0323352 -0.0256122 0.0130965
-0.000399734 -0.00029751 0.000433298
0.00550436 0.00380662 -0.0059125
0.00155061 -0.00266765 0.00599697
0.00554016 0.0129218 0.00553783
-0.00456188 0.0185354 0.0180356
-0.00627301 0.0671041 -0.0103927
-0.000805914 0.0287816 0.0226593
0.0122713 0.00627143 -0.0174551
-0.238559 0.0603107 0.285288
0.0187103 0.0031183 0.00106881
0.00092829 -0.00264911 0.00565957
0.00145369 0.0182933 -0.00852072
-0.135382 -0.29396 -0.169901
1.05509e-19 -1.41109e-19 2.99065e-20
0.0219731 0.0273268 0.0063636
0.0178031 -0.00941532 0.00186842
-0.20699 -0.0499132 0.113927
0.00632529 0.0040897 -0.0040183
0.00709657 0.000274897 0.00266257
0.0059511 0.00826207 0.0126297
0.0102533 0.00664887 0.0123629
0.0102682 -0.0248206 0.00822753
0.0262927 0.0354724 -0.0368005
0.00457903 0.00496062 -0.00683206
0.0207202 -0.0158754 -0.0116719
0.0167115 0.0199267 -0.0275816
-0.00176551 -0.00525143 -0.0244908
-0.0247302 -0.0222234 -0.0204549
-0.126194 -0.0302935 -0.113101
0.0193856 0.00818532 -0.000593266
0.00151703 -0.0179146 -0.0129662
6.66396e-05 0.036457 0.00462882
0.00203952 0.00603933 0.00125676
0.00528068 0.000971786 -0.00293328
-0.00887561 0.018076 0.00988319
0.001873 0.0010149 0.000129289
-0.00350363 -0.00195684 -0.0221632
0.00471914 0.0065185 -0.0098735
0.0214627 -0.0318208 0.0753459
-0.00423575 0.00419544 0.000217814
-0.000319358 0.00386211 -0.00411095
0.0136437 0.0128979 0.00725244
0.024702 0.0269648 -0.0192512
0.00428187 0.0397129 0.0100105
0.0149232 -0.00966344 0.00167019
-0.017422 0.0297262 -0.0421983
0.00667286 -0.00264976 0.00732766
0.0119391 0.0069923 0.00674504
-0.00812387 -0.0126993 0.00515473
0.0127257 -0.00932775 0.00459471
-0.0321056 -0.0108382 -0.0153708
-0.0181636 -0.0145219 -0.00402017
0.003593 -0.00380712 0.0116529
-0.00319353 0.0570559 -0.0157302
0.00135504 0.00615368 -0.00830494
0.120151 0.0368103 -0.0763466
0.0159016 0.00764285 -0.00353141
0.0095526 0.00816293 0.00209953
0.01108 -0.00807285 0.00854832
0.00350268 0.00101706 0.0111443
0.00687677 0.014183 0.0122266
0.0120432 0.01542 -0.027627
0.00638259 -0.00371562 0.00224412
-0.210085 -0.0785878 0.132968
-0.0200505 0.0347633 -0.0136207
0.00130287 -0.00582287 0.00349431
-0.00300994 0.000260709 -0.000209426
-0.132329 0.0464391 -0.0181062
0.0019158 0.00120538 0.0010099

VECTORS force float
1.19438e-06 6.32484e-06 -2.2816e-06
-5.96104e-05 3.63706e-05 -2.21506e-05
7.26417e-07 1.44144e-05 -1.50946e-05
0.0 0.0 -5.1365e-06
-2.6097e-05 1.39622e-05 -9.5224e-06
3.4693e-05 3.59889e-06 8.47564e-06
0.0 0.0 0.0
6.45389e-07 6.53945e-06 -6.50755e-06
-8.48723e-06 5.74985e-07 -1.47713e-06
-9.61236e-07 3.27316e-06 -1.1706e-05
-7.507e-06 -4.01622e-06 1.17097e-05
-2.47758e-06 9.78245e-06 -1.94504e-05
-2.01201e-05 3.36904e-05 2.82932e-05
0.0 0.0 -5.1365e-06
2.24945e-06 1.86724e-05 -3.0013e-06
0.0 0.0 -5.1365e-06
0.0 0.0 -5.1365e-06
5.49902e-07 -1.25275e-05 -1.22904e-05
0.0110896 0.0035033 -0.00153156
-2.22502e-05 0.000228346 0.000631031
0.0 0.0 -5.1365e-06
0.0 0.0 -5.1365e-06
1.19666e-07 -1.06916e-07 -9.89635e-07
-3.14809e-11 -8.052e-08 -2.73166e-07
3.28639e-05 -4.93476e-05 3.65829e-05
0.0 0.0 -5.1365e-06
3.70815e-07 2.2259e-06 -3.24618e-06
-0.00084528 -0.00128153 -0.000324552
-2.40724e-07 -1.63331e-06 2.58929e-06
-5.83495e-06 2.97336e-06 -5.71931e-06
0.0 0.0 -5.1365e-06
0.00518375 -0.00237195 0.00419589
-4.79091e-06 -2.84428e-06 -1.03915e-05
0.0 0.0 -5.1365e-06
0.0 0.0 -5.1365e-06
3.04964e-05 -9.98807e-05 6.99723e-05
-0.00218061 -0.00344089 0.00286753
-0.00230646 0.00125362 -0.00293275
0.0 0.0 -5.1365e-06
0.0 0.0 0.0
0.000594129 0.00289766 -0.00226586
0.000562218 -0.000423653 -0.000289633
0.0 0.0 -5.1365e-06
3.74411e-05 -3.54742e-05 1.86756e-05
-2.67385e-05 -4.07247e-06 6.43844e-06
-9.21319e-07 -2.45639e-06 1.38673e-05
0.0 0.0 -5.1365e-06
9.61236e-07 -3.27316e-06 1.43301e-06
0.0 0.0 -5.1365e-06
-7.95032e-05 -2.03891e-05 0.000115018
0.0 0.0 -5.1365e-06
0.0 0.0 -5.1365e-06
0.0 0.0 -5.1365e-06
0.0 0.0 -5.1365e-06
0.0 0.0 -5.1365e-06
0.0 0.0 -5.1365e-06
6.57464e-06 -1.48701e-06 8.88405e-06
0.00279219 0.0110661 -0.00443484
0.0 0.0 -5.1365e-06
1.17144e-05 7.67906e-07 -1.49866e-06
-0.000230259 -2.08982e-05 -0.000286144
-2.93387e-07 -5.93971e-07 -4.80053e-06
0.0 0.0 -5.1365e-06
-3.04553e-06 -2.09272e-06 -2.15991e-06
0.000650329 0.00145942 -0.000837256
0.0 0.0 -5.1365e-06
2.3363e-06 5.31918e-06 1.97538e-06
8.10212e-05 5.90497e-05 -4.48928e-05
-0.000303659 0.000832598 6.89338e-05
0.0 0.0 -5.1365e-06
-6.15835e-07 4.69401e-06 -2.14525e-06
7.69154e-07 1.72138e-06 -2.67544e-06
0.0 0.0 -5.1365e-06
4.09124e-06 1.44709e-06 -6.95519e-06
-0.000321589 4.48052e-05 0.000488186
-3.04964e-05 9.98807e-05 -8.02453e-05
0.0 0.0 -5.1365e-06
0.0 0.0 -5.1365e-06
-7.07689e-06 1.20871e-06 -3.82188e-06
0.0 0.0 -5.1365e-06
-6.47339e-07 -1.88948e-06 2.5023e-07
0.0 0.0 -5.1365e-06
0.0 0.0 -5.1365e-06
0.0 0.0 -5.1365e-06
0.0 0.0 -5.1365e-06
2.60927e-05 -1.3833e-05 -7.3078e-07
8.80592e-06 5.54704e-06 1.0427e-07
-3.72648e-05 0.000249291 -0.000100478
2.1551e-05 6.78048e-06 -2.30182e-05
0.0 0.0 -5.1365e-06
0.0 0.0 -5.1365e-06
-2.69145e-07 -3.01142e-08 -4.35456e-06
-1.57462e-07 -1.09317e-06 1.72184e-06
0.0 0.0 -5.1365e-06
-2.38363e-06 -3.71771e-06 2.60957e-06
