# vtk DataFile Version 3.0
LIGGGHTS particles timestep 40000
ASCII
DATASET POLYDATA
POINTS 188 float
0.0171058 0.0146491 0.012226
0.0170423 0.0221843 0.015755
0.0163394 0.0232604 0.0129212
0.0186638 0.0138903 0.0131771
0.0225092 0.0208271 0.0169892
0.0180624 0.0146237 0.0119357
0.0208947 0.0221017 0.0147473
0.0222096 0.0164166 0.0150966
0.0233807 0.0154874 0.0141543
0.0216907 0.0142985 0.0138389
0.0232193 0.0232188 0.0146835
0.015393 0.0232531 0.0149848
0.0230399 0.0198223 0.016779
0.0159296 0.0236068 0.0142219
0.0219971 0.0172716 0.0155791
0.0181507 0.0240745 0.0130064
0.0198699 0.0186176 0.0167836
0.0233712 0.0224633 0.0161028
0.01915 0.0143749 0.0139046
0.0245008 0.0221415 0.0157586
0.0226437 0.0151204 0.0135843
0.0167469 0.0148989 0.0131251
0.0214898 0.0226276 0.0141219
0.0227596 0.0145842 0.0144199
0.0218034 0.0179745 0.0162635
0.0224277 0.0156945 0.0144333
0.0164244 0.022803 0.0138794
0.0201431 0.0143707 0.0140403
0.0171687 0.0240057 0.0131775
0.0218644 0.0215906 0.015145
0.0209068 0.0137235 0.014111
0.0206792 0.0140828 0.0131832
0.0226236 0.0226295 0.0141505
0.0238602 0.015433 0.0150329
0.0226303 0.0234071 0.0154176
0.0206058 0.0229844 0.0140592
0.0228052 0.0215176 0.0163295
0.0211733 0.021033 0.015603
0.0223786 0.019819 0.0158852
0.0228613 0.0151939 0.0152051
0.0168397 0.0153726 0.0140008
0.0156967 0.0145351 0.0142591
0.0199298 0.0198667 0.0166905
0.0158843 0.0177879 0.0157629
0.0155282 0.0194726 0.0159248
0.0154804 0.0229686 0.0136107
0.0198947 0.0252508 0.0198203
0.017076 0.020609 0.0166875
0.0244813 0.0158932 0.015669
0.0198005 0.0208766 0.0172376
0.0722968 0.0457666 0.0161953
0.0228521 0.016127 0.0183237
0.0162664 0.0201832 0.0158063
0.0207933 0.014841 0.014684
0.0258497 0.0195336 0.0167416
0.0159318 0.0220253 0.015944
0.023635 0.0167544 0.0161743
0.022999 0.0172707 0.0155845
0.02137 0.0194898 0.0166318
0.0218189 0.0147901 0.0147002
0.0230584 0.0211513 0.0154213
0.0163722 0.0212705 0.0164303
0.0188664 0.0188771 0.0167919
0.0176942 0.0150169 0.0134288
0.0163121 0.0227329 0.0153492
0.017331 0.0215522 0.0164737
0.0177939 0.0142302 0.0128198
0.0250164 0.0200807 0.0166658
0.0231926 0.0161652 0.0148821
0.0186937 0.0147711 0.0126974
0.0195674 0.0223744 0.0156016
0.0144238 0.0213048 0.0194441
0.0182155 0.0211076 0.0163323
0.0192054 0.020826 0.0164356
0.0256724 0.0208345 0.0166866
0.0134642 0.0216374 0.016235
0.0244207 0.0208512 0.0164387
0.0167342 0.0141502 0.0137858
0.0221558 0.020753 0.0156071
0.0224238 0.0159154 0.0159347
0.014704 0.0226466 0.0141302
0.015157 0.0227571 0.0158172
0.0189613 0.0217095 0.0160365
0.0149701 0.028536 0.0294689
0.0250825 0.0176982 0.0165648
0.0218246 0.0215614 0.0161429
0.0251057 0.0215725 0.0163214
0.0213824 0.020079 0.0158228
0.0227638 0.0219484 0.0148934
0.0210827 0.0234357 0.0120948
0.0202474 0.02379 0.0136358
0.0212268 0.0234329 0.0154646
0.0219485 0.0232494 0.0161365
0.0224948 0.0236532 0.0141864
0.0205437 0.0237461 0.0147123
0.0217548 0.0238105 0.0135736
0.019153 0.0241121 0.012925
0.018568 0.024374 0.0138545
0.0178653 0.0237059 0.0139856
0.0195405 0.0244103 0.0137813
0.020163 0.0234797 0.0117809
0.0226781 0.0228524 0.016709
0.0215118 0.0224768 0.0154381
0.0238475 0.0227151 0.0152653
0.0195612 0.0239364 0.0146731
0.0211294 0.0231119 0.0133109
0.020242 0.0238612 0.0156683
0.0210024 0.0243186 0.0139161
0.0208226 0.0239396 0.0128826
0.0220059 0.0230592 0.0147928
0.0224208 0.0223036 0.0158448
0.0215344 0.0239142 0.0146456
0.0218293 0.0233057 0.0127384
0.0189205 0.0236634 0.0153911
0.0174336 0.0237344 0.0150443
0.0180348 0.0237725 0.015842
0.0210622 0.0227872 0.0162798
0.023781 0.0215496 0.0161175
0.0218151 0.0223483 0.0167698
0.0195371 0.0232786 0.016078
0.0186458 0.0227437 0.0157111
0.0178361 0.0228321 0.0151329
0.0226791 0.0219722 0.017211
0.0169187 0.0235885 0.0142037
0.0254973 0.0185961 0.0167264
0.0193549 0.0224446 0.0165995
0.0187351 0.0234431 0.0144017
0.0144306 0.0229905 0.0150547
0.0210254 0.0214764 0.0167384
0.02077 0.0219186 0.0158789
0.0234259 0.0207072 0.0165207
0.0215959 0.0204323 0.0168895
0.0189839 0.0240797 0.0163053
0.0184969 0.0232449 0.0165635
0.0240825 0.020677 0.0173629
0.018014 0.0219795 0.0158666
0.022027 0.0236287 0.0170619
0.0200467 0.0213498 0.0162767
0.0204702 0.0227816 0.0154743
0.0222885 0.0191686 0.0168619
0.0210059 0.0237803 0.0163835
0.0169793 0.0235805 0.0159215
0.0164321 0.0236866 0.0150815
0.024029 0.019926 0.0166795
0.0216548 0.0191501 0.017635
0.0232446 0.0193222 0.0159335
0.0219666 0.0189104 0.0159514
0.0153005 0.0204459 0.0158376
0.0204713 0.0201541 0.0174818
0.0172654 0.0202162 0.0157859
0.021173 0.0215228 0.0186641
0.0167892 0.0193268 0.0159329
0.0226932 0.0182185 0.0158705
0.0157474 0.0212167 0.0153855
0.0156912 0.0224084 0.0144038
0.0179748 0.0201766 0.0166212
0.0269161 0.0265804 0.0335824
0.0149194 0.0219934 0.0148526
0.0169492 0.0153593 0.0149942
0.0153788 0.0211891 0.0165051
0.0152526 0.0200024 0.0167324
0.0234155 0.0158343 0.0158351
0.0143431 0.0195666 0.0167577
0.0355794 0.0281753 0.0440743
0.0232218 0.0211016 0.0176593
0.0206346 0.0205685 0.0165865
0.0189303 0.0198882 0.0166782
0.0238365 0.0448193 0.0662186
0.0226085 0.0182135 0.016869
0.0167337 0.021008 0.015487
0.0237279 0.018097 0.0158453
0.0199341 0.024285 0.0165428
0.0162025 0.0230673 0.0162871
0.0190767 0.0216027 0.0170657
0.0176656 0.0228825 0.0161245
0.01392 0.0223556 0.0156346
0.0246561 0.0191495 0.0167397
0.0183847 0.022257 0.0167528
0.0166888 0.0239036 0.0168216
0.0180491 0.0241795 0.0167552
0.0236885 0.0218398 0.0170698
0.0159749 0.0206628 0.0171179
0.0202879 0.0221718 0.0168352
0.0164361 0.0218149 0.0149778
0.014899 0.0217974 0.0158736
0.0169183 0.0225009 0.0166952
0.0202423 0.0231997 0.0167824
0.0211195 0.0232594 0.0172589

VERTICES 188 376
1 0
1 1
1 2
1 3
1 4
1 5
1 6
1 7
1 8
1 9
1 10
1 11
1 12
1 13
1 14
1 15
1 16
1 17
1 18
1 19
1 20
1 21
1 22
1 23
1 24
1 25
1 26
1 27
1 28
1 29
1 30
1 31
1 32
1 33
1 34
1 35
1 36
1 37
1 38
1 39
1 40
1 41
1 42
1 43
1 44
1 45
1 46
1 47
1 48
1 49
1 50
1 51
1 52
1 53
1 54
1 55
1 56
1 57
1 58
1 59
1 60
1 61
1 62
1 63
1 64
1 65
1 66
1 67
1 68
1 69
1 70
1 71
1 72
1 73
1 74
1 75
1 76
1 77
1 78
1 79
1 80
1 81
1 82
1 83
1 84
1 85
1 86
1 87
1 88
1 89
1 90
1 91
1 92
1 93
1 94
1 95
1 96
1 97
1 98
1 99
1 100
1 101
1 102
1 103
1 104
1 105
1 106
1 107
1 108
1 109
1 110
1 111
1 112
1 113
1 114
1 115
1 116
1 117
1 118
1 119
1 120
1 121
1 122
1 123
1 124
1 125
1 126
1 127
1 128
1 129
1 130
1 131
1 132
1 133
1 134
1 135
1 136
1 137
1 138
1 139
1 140
1 141
1 142
1 143
1 144
1 145
1 146
1 147
1 148
1 149
1 150
1 151
1 152
1 153
1 154
1 155
1 156
1 157
1 158
1 159
1 160
1 161
1 162
1 163
1 164
1 165
1 166
1 167
1 168
1 169
1 170
1 171
1 172
1 173
1 174
1 175
1 176
1 177
1 178
1 179
1 180
1 181
1 182
1 183
1 184
1 185
1 186
1 187

POINT_DATA 188
SCALARS id int 1
LOOKUP_TABLE default
1
2
3
4
5
6
7
8
9
10
11
12
13
14
15
16
17
18
19
20
21
22
23
24
25
26
27
28
29
30
31
32
33
34
35
36
37
38
39
40
41
42
43
44
45
46
47
48
49
50
51
52
53
54
55
56
57
58
59
60
61
62
63
64
65
66
67
68
69
70
71
72
73
74
75
76
77
78
79
80
81
82
83
84
85
86
87
88
89
90
91
92
93
94
95
96
97
98
99
100
101
102
103
104
105
106
107
108
109
110
111
112
113
114
115
116
117
118
119
120
121
122
123
124
125
126
127
128
129
130
131
132
133
134
135
136
137
138
139
140
141
142
143
144
145
146
147
148
149
150
151
152
153
154
155
157
158
159
160
161
163
164
165
166
167
168
169
170
171
172
173
174
175
176
177
178
179
180
181
182
183
184
185
186
187
188
189
190

SCALARS type int 1
LOOKUP_TABLE default
1
1
1
1
1
1
1
1
1
1
1
1
1
1
1
1
1
1
1
1
1
1
1
1
1
1
1
1
1
1
1
1
1
1
1
1
1
1
1
1
1
1
1
1
1
1
1
1
1
1
1
1
1
1
1
1
1
1
1
1
1
1
1
1
1
1
1
1
1
1
1
1
1
1
1
1
1
1
1
1
1
1
1
1
1
1
1
1
1
1
1
1
1
1
1
1
1
1
1
1
1
1
1
1
1
1
1
1
1
1
1
1
1
1
1
1
1
1
1
1
1
1
1
1
1
1
1
1
1
1
1
1
1
1
1
1
1
1
1
1
1
1
1
1
1
1
1
1
1
1
1
1
1
1
1
1
1
1
1
1
1
1
1
1
1
1
1
1
1
1
1
1
1
1
1
1
1
1
1
1
1
1
1
1
1
1
1
1

SCALARS radius float 1
LOOKUP_TABLE default
0.0005
0.0005
0.0005
0.0005
0.0005
0.0005
0.0005
0.0005
0.0005
0.0005
0.0005
0.0005
0.0005
0.0005
0.0005
0.0005
0.0005
0.0005
0.0005
0.0005
0.0005
0.0005
0.0005
0.0005
0.0005
0.0005
0.0005
0.0005
0.0005
0.0005
0.0005
0.0005
0.0005
0.0005
0.0005
0.0005
0.0005
0.0005
0.0005
0.0005
0.0005
0.0005
0.0005
0.0005
0.0005
0.0005
0.0005
0.0005
0.0005
0.0005
0.0005
0.0005
0.0005
0.0005
0.0005
0.0005
0.0005
0.0005
0.0005
0.0005
0.0005
0.0005
0.0005
0.0005
0.0005
0.0005
0.0005
0.0005
0.0005
0.0005
0.0005
0.0005
0.0005
0.0005
0.0005
0.0005
0.0005
0.0005
0.0005
0.0005
0.0005
0.0005
0.0005
0.0005
0.0005
0.0005
0.0005
0.0005
0.0005
0.0005
0.0005
0.0005
0.0005
0.0005
0.0005
0.0005
0.0005
0.0005
0.0005
0.0005
0.0005
0.0005
0.0005
0.0005
0.0005
0.0005
0.0005
0.0005
0.0005
0.0005
0.0005
0.0005
0.0005
0.0005
0.0005
0.0005
0.0005
0.0005
0.0005
0.0005
0.0005
0.0005
0.0005
0.0005
0.0005
0.0005
0.0005
0.0005
0.0005
0.0005
0.0005
0.0005
0.0005
0.0005
0.0005
0.0005
0.0005
0.0005
0.0005
0.0005
0.0005
0.0005
0.0005
0.0005
0.0005
0.0005
0.0005
0.0005
0.0005
0.0005
0.0005
0.0005
0.0005
0.0005
0.0005
0.0005
0.0005
0.0005
0.0005
0.0005
0.0005
0.0005
0.0005
0.0005
0.0005
0.0005
0.0005
0.0005
0.0005
0.0005
0.0005
0.0005
0.0005
0.0005
0.0005
0.0005
0.0005
0.0005
0.0005
0.0005
0.0005
0.0005
0.0005
0.0005
0.0005
0.0005
0.0005
0.0005

SCALARS mass float 1
LOOKUP_TABLE default
5.23599e-07
5.23599e-07
5.23599e-07
5.23599e-07
5.23599e-07
5.23599e-07
5.23599e-07
5.23599e-07
5.23599e-07
5.23599e-07
5.23599e-07
5.23599e-07
5.23599e-07
5.23599e-07
5.23599e-07
5.23599e-07
5.23599e-07
5.23599e-07
5.23599e-07
5.23599e-07
5.23599e-07
5.23599e-07
5.23599e-07
5.23599e-07
5.23599e-07
5.23599e-07
5.23599e-07
5.23599e-07
5.23599e-07
5.23599e-07
5.23599e-07
5.23599e-07
5.23599e-07
5.23599e-07
5.23599e-07
5.23599e-07
5.23599e-07
5.23599e-07
5.23599e-07
5.23599e-07
5.23599e-07
5.23599e-07
5.23599e-07
5.23599e-07
5.23599e-07
5.23599e-07
5.23599e-07
5.23599e-07
5.23599e-07
5.23599e-07
5.23599e-07
5.23599e-07
5.23599e-07
5.23599e-07
5.23599e-07
5.23599e-07
5.23599e-07
5.23599e-07
5.23599e-07
5.23599e-07
5.23599e-07
5.23599e-07
5.23599e-07
5.23599e-07
5.23599e-07
5.23599e-07
5.23599e-07
5.23599e-07
5.23599e-07
5.23599e-07
5.23599e-07
5.23599e-07
5.23599e-07
5.23599e-07
5.23599e-07
5.23599e-07
5.23599e-07
5.23599e-07
5.23599e-07
5.23599e-07
5.23599e-07
5.23599e-07
5.23599e-07
5.23599e-07
5.23599e-07
5.23599e-07
5.23599e-07
5.23599e-07
5.23599e-07
5.23599e-07
5.23599e-07
5.23599e-07
5.23599e-07
5.23599e-07
5.23599e-07
5.23599e-07
5.23599e-07
5.23599e-07
5.23599e-07
5.23599e-07
5.23599e-07
5.23599e-07
5.23599e-07
5.23599e-07
5.23599e-07
5.23599e-07
5.23599e-07
5.23599e-07
5.23599e-07
5.23599e-07
5.23599e-07
5.23599e-07
5.23599e-07
5.23599e-07
5.23599e-07
5.23599e-07
5.23599e-07
5.23599e-07
5.23599e-07
5.23599e-07
5.23599e-07
5.23599e-07
5.23599e-07
5.23599e-07
5.23599e-07
5.23599e-07
5.23599e-07
5.23599e-07
5.23599e-07
5.23599e-07
5.23599e-07
5.23599e-07
5.23599e-07
5.23599e-07
5.23599e-07
5.23599e-07
5.23599e-07
5.23599e-07
5.23599e-07
5.23599e-07
5.23599e-07
5.23599e-07
5.23599e-07
5.23599e-07
5.23599e-07
5.23599e-07
5.23599e-07
5.23599e-07
5.23599e-07
5.23599e-07
5.23599e-07
5.23599e-07
5.23599e-07
5.23599e-07
5.23599e-07
5.23599e-07
5.23599e-07
5.23599e-07
5.23599e-07
5.23599e-07
5.23599e-07
5.23599e-07
5.23599e-07
5.23599e-07
5.23599e-07
5.23599e-07
5.23599e-07
5.23599e-07
5.23599e-07
5.23599e-07
5.23599e-07
5.23599e-07
5.23599e-07
5.23599e-07
5.23599e-07
5.23599e-07
5.23599e-07
5.23599e-07
5.23599e-07
5.23599e-07
5.23599e-07
5.23599e-07
5.23599e-07
5.23599e-07
5.23599e-07
5.23599e-07
5.23599e-07
5.23599e-07

VECTORS velocity float
0.000883569 0.000592592 0.000381832
0.000758344 0.000711252 0.00241657
0.00958396 0.00271247 -0.00901344
0.00896924 0.00176067 -0.0120316
-0.00301617 0.00753261 0.00380773
0.0024056 0.00290013 -0.00242447
0.00988795 0.0170192 -0.016226
0.00752875 0.0122821 0.0122769
0.00841368 0.00604259 0.00808934
0.00065739 0.00221355 -0.00802559
0.0252623 0.0123185 0.0486951
-2.41238e-05 0.00266678 -0.00279038
-0.00089009 -0.00371959 0.00466721
-0.00050737 0.00408752 0.00211881
0.0081784 0.010683 0.00809068
-0.0158702 0.00873581 0.00630262
-0.0117429 0.00665746 0.000567851
-0.000315217 0.00146631 0.00272925
0.00159672 -0.00615992 0.00111898
0.000197162 -0.000665418 -0.000434966
0.00896302 0.00576198 0.00588825
0.0121877 0.0317222 -0.0134825
-0.0113924 0.0184968 -0.0624117
0.00494778 0.000350712 -0.00152253
0.0109448 0.00736303 0.010125
0.00913981 0.0143602 0.00770894
0.00300314 0.00893984 -0.00578045
0.00715604 0.00640944 -0.0485928
0.00286655 -0.00105955 0.000999168
0.009159 0.0156756 -0.00908442
-0.00438034 0.00696009 -0.00697726
-0.00139885 0.000708942 -0.000622018
0.0146651 -0.0342045 -0.0389434
0.0101899 0.0107594 0.00716039
0.030261 -0.0395394 0.0282779
-0.0832288 -0.0523763 -0.0624843
0.00195721 -0.00196111 -0.00562081
0.00846829 0.00390205 -0.0236246
0.0183192 0.00136954 0.001278
0.0178461 -0.00599362 0.0030476
0.021055 -0.00151629 0.00422072
0.0170543 -0.00926862 -0.00630663
0.00383178 0.0104215 -0.00193148
0.00714407 0.0203264 0.00483967
0.0151285 -0.00163208 -0.00101712
0.00933688 0.00866259 -0.00290985
-0.107463 -0.0748651 -0.277184
0.00247401 0.00210862 0.000219717
-0.000240882 0.00620332 0.00506375
0.00943164 -0.008564 -0.00901533
0.249711 0.162678 -0.925552
-0.192758 0.0908045 0.0899334
0.00966246 -0.00170331 -0.0040931
0.0104637 -0.013159 -0.0182371
5.86619e-05 -0.00431634 0.00176488
-0.00285779 -0.00359253 -0.00128032
0.0360209 0.0151933 -0.0112564
0.0105834 0.0326409 0.0156559
-0.00173762 0.00333324 0.00116305
0.00279426 0.00558311 -0.00691033
0.00733408 0.0340598 -0.0169163
0.00339161 0.00160733 -0.00103012
-0.00762729 -0.0114278 -0.0272112
0.0151027 0.0115943 -0.0206099
0.000986216 -0.00283412 -0.00105218
0.001539 0.00113276 0.00237133
0.00954479 -0.000681612 -0.00575719
-0.000224126 -0.000517009 0.00329761
0.0140344 0.013002 0.00461433
0.0116661 -0.00202473 -0.00706827
0.00378354 -0.00794716 0.00532097
-0.109404 0.0475959 0.0612332
0.00635777 0.00899532 0.0027092
-0.00124361 -0.00402713 -0.000201358
0.000515583 -0.00197958 0.000474775
-0.0278174 -0.0221732 -0.0524654
0.00231359 0.00328065 -0.00354562
0.0157338 0.0349101 0.0337479
0.0179015 0.0110218 0.00320217
0.00404418 -0.0136975 -0.00156344
0.0128494 0.00203944 -0.00437678
0.00497723 0.00514671 0.000761828
-0.00111759 -0.00285726 0.00813801
0.065499 0.156638 0.307125
-0.0134355 -0.00401631 -0.0107182
0.00496631 -0.00283108 -0.0114325
0.00157288 -0.00161178 -0.00130497
0.00334006 0.00806695 5.0909e-05
0.00368983 0.0423822 -0.0168772
0.0607032 -0.00425126 0.0442279
0.0846894 0.0293232 -0.0794224
0.00720751 0.0041311 0.0132655
-0.00587847 -0.0029661 0.0141784
0.0153215 0.0897075 0.0585584
0.00038073 0.00561468 -0.00589256
0.106687 -0.0137437 -0.105246
-0.0321591 -0.000419394 0.0304732
-0.0203398 0.0141801 -0.018716
0.0115343 -0.00116547 0.0123477
0.00596656 -0.145628 0.043314
-0.0627662 0.0451712 0.0191461
-0.00212813 0.00592837 -0.00704703
0.00415279 0.00980838 0.0036585
-0.0048366 0.00699963 0.00863491
0.000896432 0.00355263 -0.00809385
-0.123502 0.0874217 0.177995
-0.0024228 0.00486522 -0.000557595
-0.0915121 -0.0778651 -0.138416
-0.00860718 -0.155003 -0.0999347
0.0330049 0.0234631 0.011042
0.00260255 0.00442779 -0.00208942
-0.0292693 -0.0179825 -0.0372372
0.0466908 -0.000825032 0.0800467
-0.00261922 0.00313863 -0.00949209
0.00662586 0.000383894 0.00258031
0.0023311 0.00454498 0.00145828
0.00533195 0.00189571 0.00164467
-0.000337459 -0.00449198 -0.00227417
0.00472597 -0.0043438 -0.00596326
-0.00454077 -0.00248126 -0.00852353
0.00578196 0.00243634 0.00423821
0.0117345 0.00615334 -0.00187426
-0.00679638 0.0243083 -0.0204716
0.00150612 0.00791792 0.000532582
-0.00395384 -0.00887584 -7.00471e-05
-0.00610657 0.00425108 -0.00408072
0.003087 -0.00422726 -0.00420591
0.000133379 -0.00268902 -0.00980539
0.0120516 0.00903221 0.00322062
0.0103439 0.000721294 0.00226249
0.00118363 -0.00291808 0.00403248
-0.00426786 0.0108791 -0.00386399
-0.000867743 -0.00177882 -0.00093409
-0.00412796 0.00363595 0.00393618
-0.00392676 -0.00964661 -0.00770081
8.47446e-05 0.00113263 0.00396569
0.00611444 0.00437695 0.0186162
-0.0146306 0.0247087 0.0078678
0.00137843 -0.00286427 0.00134867
-0.0035706 -0.00355555 0.00674668
-0.00745965 0.00429061 -0.00718627
-0.00483129 -0.00214509 0.00140169
-0.00245097 0.00194721 0.00154034
0.000514771 -0.000913545 0.00454326
-0.0192249 -0.00874772 -0.00518387
0.0224282 0.0111946 -0.00170313
0.00768423 0.00501753 0.00175883
0.0136567 -0.00761665 0.000997919
0.0137062 0.00658919 -0.00175997
0.00863538 0.000417331 -0.00258937
-0.046185 0.100473 0.0365365
0.0095544 0.00966955 -0.000805972
0.00333195 0.0373666 0.00605723
0.0104547 -0.00569229 0.000516897
0.0108944 0.0124282 -0.0091309
0.0035639 0.00602306 2.14083e-05
-0.143062 -0.0370024 -0.193988
0.0146278 0.0142037 -0.00639048
0.0357078 -0.00115321 -0.00111385
0.00409533 -0.0031822 -0.000203427
0.00980813 -0.00781921 0.00107008
0.00623871 0.012898 0.00370039
2.71327e-06 0.0598482 -0.00617104
0.0552197 0.0384916 -0.0172498
-0.000991809 0.0188789 -0.0394453
0.00592183 0.010812 -0.00471107
0.00335392 0.00652385 -0.00140813
0.0445569 0.296878 -0.00481502
0.0210099 0.00510309 0.00243791
0.00762536 0.00276669 -0.00362841
0.00560927 0.0228122 0.00698568
-0.00571499 0.00734907 0.0158813
-7.48545e-05 -0.000447345 -4.06355e-05
-0.00193908 0.00172359 -0.00403348
-0.00154222 -0.00242912 0.00137054
-0.00192726 0.00343135 -0.00354783
-0.00147313 0.000300287 0.00505695
-0.00429483 0.00104376 0.00451624
-0.00922907 -0.00531443 -0.00163878
-0.00122684 0.000852968 0.00082247
-0.00523083 0.00247677 -0.00408865
-0.00277905 -0.00495846 -0.0114155
-0.00049192 0.00920796 -0.023297
0.00622065 -0.000124064 -0.000596431
0.0126036 0.00729017 -0.000903672
-0.0010464 0.000305329 0.00250865
0.000716118 0.000744923 -0.0122113
-0.00620572 -0.0040918 -0.0113427

VECTORS force float
1.6762e-05 2.70934e-05 -2.33073e-05
-6.53061e-07 1.42266e-06 -2.4129e-06
1.5508e-08 1.48335e-07 3.16336e-07
1.03194e-06 1.67561e-05 1.59283e-05
-4.39024e-06 -1.24178e-06 8.51135e-07
3.15313e-07 -1.97974e-05 6.11704e-06
-2.20176e-05 6.19004e-05 -8.25345e-06
-3.03394e-06 1.24837e-06 -9.99561e-07
0.0 0.0 -5.1365e-06
-1.19365e-06 6.6755e-07 -4.13931e-06
0.00339161 0.00565163 0.00525231
1.29205e-05 2.45581e-05 8.9236e-06
-5.50317e-06 -1.28064e-05 3.55512e-06
-8.85371e-05 -0.000194696 -9.5469e-05
4.38968e-06 5.23904e-06 9.64919e-06
0.000204153 7.04299e-05 0.000332413
0.0 0.0 -5.1365e-06
-0.000112548 0.000123745 -0.000183615
0.0 0.0 -5.1365e-06
-1.77581e-05 5.33411e-05 -1.3887e-05
-8.09221e-06 -1.53411e-06 -2.56503e-05
1.2773e-05 7.60995e-06 -6.82487e-05
0.0104721 0.019127 -0.00310178
5.93356e-06 -5.59157e-06 1.80659e-06
0.0 0.0 -5.1365e-06
0.0 0.0 -5.1365e-06
0.000311306 -0.000169083 4.99771e-05
0.0 0.0 -5.1365e-06
-6.20127e-05 -1.1578e-05 -7.33277e-05
2.24408e-05 4.51465e-05 2.04445e-05
0.0 0.0 -5.1365e-06
7.73148e-07 1.48609e-06 1.46732e-06
0.0014171 0.00107641 0.00031096
-3.4459e-06 5.5471e-07 -4.37752e-06
-0.0102059 -0.00579564 0.00122042
-0.00682808 -0.0388158 -0.00256491
-1.45284e-05 7.09637e-06 1.76173e-05
-4.08982e-06 -6.20785e-06 -7.93913e-06
-1.78043e-05 3.49955e-05 -1.1973e-05
3.18104e-06 2.53208e-05 3.46282e-05
-8.15315e-06 -5.9683e-06 1.21184e-06
9.38574e-08 4.97305e-07 1.93056e-07
5.14528e-06 -1.69794e-06 -3.14763e-06
-1.89229e-07 2.76226e-07 2.05039e-07
-5.60769e-09 2.1609e-08 -5.0988e-06
-5.00049e-05 3.56813e-05 2.1883e-05
0.0 0.0 -5.1365e-06
9.09363e-06 7.04473e-06 4.13563e-06
0.0 0.0 -5.1365e-06
2.80922e-07 7.92081e-07 -2.75317e-06
0.0 0.0 -5.1365e-06
0.0 0.0 -5.1365e-06
-1.10485e-05 -1.33751e-06 -2.27007e-06
0.0 0.0 -5.1365e-06
3.43128e-08 -3.62256e-06 -6.14974e-06
1.73461e-06 -9.47131e-06 9.31603e-06
0.0 0.0 -5.1365e-06
0.0 0.0 -5.1365e-06
2.34621e-06 4.64457e-06 -9.99054e-07
1.19365e-06 -6.6755e-07 -6.1337e-06
-2.87714e-07 -5.88321e-08 -6.14063e-06
3.55381e-06 -6.74144e-06 1.39859e-07
0.0 0.0 -5.1365e-06
1.80376e-08 2.16401e-06 9.03376e-07
-5.11487e-06 1.1001e-05 9.53831e-06
1.05293e-06 -6.30257e-06 4.36122e-06
-5.67096e-06 1.13033e-05 -1.07674e-05
-3.94691e-06 3.54154e-06 1.94887e-06
-3.62034e-06 -6.79561e-06 1.6077e-05
0.0 0.0 -5.1365e-06
2.76356e-07 -2.1846e-05 -6.73301e-06
0.0 0.0 -5.1365e-06
-3.65786e-07 -4.09076e-08 -5.10592e-06
-4.36431e-06 -5.77416e-06 7.8991e-06
-4.0356e-06 1.39305e-05 5.40693e-06
0.0 0.0 -5.1365e-06
8.69528e-06 -1.21936e-07 -2.49161e-05
-6.01815e-06 -2.53899e-05 8.54879e-05
-8.54607e-06 9.22303e-06 -8.69377e-06
2.27463e-07 -1.86002e-06 -1.77833e-06
-2.44381e-05 -6.65944e-05 -0.000134627
-6.96534e-06 -2.35712e-05 -2.7162e-05
9.29022e-06 -6.05847e-06 7.57176e-06
0.0 0.0 -5.1365e-06
0.0 0.0 -5.1365e-06
5.89592e-06 6.64202e-06 3.29632e-05
-1.69849e-05 1.53375e-05 -1.34745e-05
0.0 0.0 -5.1365e-06
0.0 0.0 -5.1365e-06
-0.00315975 -0.0099856 -0.0024901
0.0164871 -0.00474048 -0.00165185
7.06376e-05 0.000155914 2.94954e-05
0.0 0.0 -5.1365e-06
0.00014823 0.000774564 0.00228722
0.0 0.0 -5.1365e-06
0.00586862 0.00550836 0.00711476
0.00319364 -0.00212156 0.000556002
0.0017801 -0.00875581 -0.00395153
0.000594818 -0.000196522 -0.000369935
-0.0130354 -0.0093985 0.000533141
-0.0032988 0.0106807 -0.00520146
-1.75845e-05 9.67273e-06 -1.04567e-06
-1.75234e-05 5.32753e-06 7.59664e-07
-0.000562445 -0.000430292 0.000965534
3.5963e-06 3.02409e-06 -4.37529e-06
0.00305187 -0.030788 -0.0231889
0.0 0.0 -5.1365e-06
-0.0096545 0.00345247 -0.000413613
-0.00578703 0.00035979 0.00235828
-0.00552693 0.00517049 -0.00526964
2.61324e-05 6.16976e-06 9.38483e-06
-0.000875193 -0.000530239 -0.000544714
0.00366372 0.0469075 0.0108702
4.28296e-06 -1.35081e-07 -4.69881e-06
-2.30781e-05 9.38321e-05 -3.87043e-05
1.70858e-05 -5.73594e-06 6.14053e-06
-5.82132e-06 -5.16852e-07 4.50169e-06
-1.54535e-06 1.41495e-06 1.94952e-05
1.03288e-05 1.49139e-06 1.34556e-06
7.55908e-06 -1.25341e-05 -2.75899e-06
2.14164e-05 -8.31265e-06 -3.91207e-06
7.31816e-05 -2.73554e-05 4.46207e-06
-4.61835e-06 -2.71226e-07 4.5579e-06
6.8946e-05 -4.61024e-05 2.05144e-06
0.0 0.0 -5.1365e-06
2.94924e-07 3.48643e-08 -5.00459e-06
3.95727e-05 2.72651e-05 5.07794e-05
1.63082e-05 -1.2499e-05 2.29866e-05
6.58893e-06 -1.00943e-05 1.85158e-07
4.66748e-06 -4.23797e-05 1.78711e-05
-1.0274e-05 9.84528e-07 2.16313e-05
-1.01087e-06 -7.79206e-07 -4.56177e-06
-9.57052e-08 -8.55216e-07 -2.43479e-06
2.85083e-08 2.92896e-08 -5.08075e-06
-8.32378e-06 5.17229e-06 2.25803e-05
3.19537e-06 3.4396e-07 5.46295e-06
2.3165e-05 9.07852e-06 -1.60934e-05
0.0 0.0 -5.1365e-06
-3.57457e-05 3.67374e-05 -5.2154e-05
-7.20707e-06 -4.43584e-06 -2.12502e-06
0.0 0.0 -5.1365e-06
6.97318e-06 4.13954e-06 -3.66443e-05
-2.5418e-05 5.03539e-05 3.93321e-06
-4.0388e-06 -2.62806e-05 -9.32203e-07
-1.08573e-06 -1.94865e-06 5.10402e-07
1.50316e-05 -2.25815e-05 1.2101e-05
-2.41361e-05 1.09271e-05 3.98132e-05
2.90666e-06 -5.24909e-06 1.50657e-06
1.82226e-07 1.21114e-06 -6.50356e-06
5.88148e-06 -9.04118e-06 -1.73526e-06
0.0 0.0 -5.1365e-06
-6.09941e-07 2.86443e-06 -1.5729e-08
0.0 0.0 -5.1365e-06
-9.19004e-06 1.44524e-06 -2.11721e-06
-0.00011531 0.000144811 4.28296e-06
3.46873e-06 8.11514e-06 4.67744e-06
0.0 0.0 -5.1365e-06
7.80249e-05 -4.52752e-05 4.72701e-06
2.8888e-08 -1.49737e-05 3.23182e-05
-4.77713e-06 5.17449e-06 -1.30853e-06
1.25497e-06 -2.45134e-06 1.78316e-06
1.3481e-06 -4.05497e-07 -4.47547e-06
-2.21852e-08 -1.39646e-07 -3.48472e-07
0.0 0.0 -5.1365e-06
0.0 0.0 -5.1365e-06
1.9818e-07 -6.48392e-07 -3.19258e-06
7.62907e-06 -2.52824e-06 -4.37746e-06
0.0 0.0 -5.1365e-06
0.0 0.0 -5.1365e-06
-9.2772e-06 7.34507e-06 1.84792e-05
-3.04853e-07 8.50593e-07 1.90041e-07
0.0 0.0 -5.1365e-06
-1.17424e-06 2.60119e-06 5.31121e-07
0.0 0.0 -5.1365e-06
5.1848e-06 -6.49951e-06 -4.39381e-07
0.0 0.0 -5.1365e-06
5.35735e-06 5.23255e-07 1.92969e-07
7.06811e-08 -9.42927e-07 -9.26813e-07
-1.13115e-05 9.74652e-07 2.96106e-05
3.02819e-06 -6.24884e-06 -3.0274e-06
-4.39488e-06 -1.543e-06 3.69911e-06
-2.00183e-07 -5.15125e-07 -2.90834e-06
0.0 0.0 -5.1365e-06
-2.21817e-05 -1.4992e-05 1.18222e-05
2.30755e-05 1.03063e-05 -1.12727e-06
-8.54799e-07 1.61098e-06 1.85973e-06
2.96947e-06 -3.35093e-06 -1.43141e-05
-2.43392e-05 -7.04334e-06 1.5921e-05
