# vtk DataFile Version 3.0
LIGGGHTS particles timestep 60000
ASCII
DATASET POLYDATA
POINTS 185 float
0.0190239 0.0151266 0.0136504
0.018621 0.0230066 0.0153694
0.0184766 0.0234848 0.0117783
0.016934 0.0190089 0.0215084
0.0223692 0.0195889 0.016738
0.0192887 0.0147015 0.0125193
0.0222657 0.0222939 0.0164849
0.0237118 0.0202897 0.0157761
0.0251997 0.017173 0.0159059
0.0216062 0.0143018 0.0137284
0.0238285 0.0225658 0.0159578
0.0154082 0.0233649 0.0145135
0.0194861 0.0157903 0.0152479
0.0171759 0.0243415 0.0138345
0.0236923 0.0212376 0.015613
0.0189117 0.024124 0.0129494
0.0195405 0.018793 0.0161556
0.0175328 0.0148656 0.0159927
0.0156044 0.014629 0.014412
0.0253446 0.0215978 0.0167211
0.0244793 0.0166782 0.0155619
0.0198634 0.0154531 0.0141163
0.0226562 0.0225683 0.0154409
0.0224987 0.0145465 0.0142301
0.0211595 0.019629 0.0167205
0.0243077 0.0176217 0.0158393
0.0184684 0.0233179 0.0127216
0.0120785 0.0141856 0.0302757
0.0179335 0.0241095 0.0131639
0.0233508 0.0218547 0.0149463
0.0210563 0.0148651 0.0130504
0.0203695 0.0141786 0.0128165
0.0242739 0.0219631 0.0153077
0.0255367 0.0180226 0.01614
0.0226121 0.017536 0.0165693
0.0208194 0.0236113 0.0156757
0.0215064 0.01809 0.0166542
0.021349 0.0226996 0.0165228
0.02356 0.0207573 0.016932
0.0230976 0.0150244 0.0148796
0.0188263 0.0157227 0.0144721
0.0164399 0.0142885 0.0137186
0.0198145 0.0204554 0.016424
0.0174569 0.0214683 0.0152297
0.0172593 0.0223805 0.0148731
0.0175177 0.0235764 0.0119858
0.0169702 0.0227786 0.0167674
0.0178666 0.019748 0.0161077
0.0256689 0.0189553 0.0160534
0.0192248 0.0209789 0.0170749
0.0132601 0.0208157 0.0155773
0.0182439 0.0222087 0.0148894
0.0209072 0.0150163 0.0152945
0.0259724 0.0184912 0.0169173
0.0174287 0.0226476 0.015821
0.0211773 0.015035 0.0164099
0.0247546 0.0193161 0.0159718
0.0225181 0.0207034 0.0165889
0.0216046 0.014764 0.0146219
0.0236545 0.0218465 0.0167321
0.015792 0.0218995 0.0159302
0.0233378 0.0170027 0.0172704
0.0199237 0.0149645 0.0132456
0.0171037 0.0234286 0.014668
0.0177202 0.0217062 0.0161645
0.0187848 0.0139717 0.0130174
0.0250277 0.0188262 0.0168629
0.0240989 0.0185846 0.0160057
0.0201084 0.0146125 0.0119535
0.0196774 0.0224247 0.0157737
0.0145095 0.0216418 0.0160829
0.0173878 0.0208362 0.0166095
0.0190506 0.0199705 0.0168556
0.0259023 0.019539 0.0168549
0.0135164 0.0216955 0.0159774
0.0244468 0.0197274 0.0170482
0.0173734 0.014129 0.0133683
0.0206162 0.0185581 0.0167398
0.0188534 0.0197659 0.0158887
0.0167213 0.023366 0.0125089
0.0155174 0.0232101 0.0154963
0.0185784 0.0211381 0.0163228
0.0221502 0.0215035 0.0170879
0.0249054 0.0161187 0.0162953
0.0205774 0.023181 0.0169666
0.025842 0.0206462 0.016978
0.0217407 0.0215168 0.0161386
0.0248287 0.0212018 0.0154775
0.023331 0.0226182 0.0141342
0.0206835 0.0236217 0.0140786
0.0202738 0.0246503 0.0179308
0.0222265 0.0232921 0.0164522
0.0232752 0.0234126 0.0153627
0.0190099 0.0241695 0.0165074
0.0220178 0.023875 0.0140358
0.0198827 0.0241017 0.0129087
0.0190293 0.0243623 0.013883
0.0188995 0.0238591 0.0148079
0.020067 0.0243677 0.0138276
0.0228926 0.0230217 0.0133922
0.0206879 0.02419 0.017143
0.0214381 0.0226138 0.0153747
0.0246831 0.0221642 0.0162523
0.0201572 0.0237953 0.0149226
0.022838 0.023452 0.0144238
0.0186257 0.0245099 0.0173653
0.0214543 0.0232914 0.0146237
0.0212888 0.0239898 0.0133605
0.0229806 0.0227097 0.0170479
0.0158239 0.0233108 0.0193697
0.0220787 0.0233831 0.0153999
0.0237579 0.0227001 0.0149818
0.0194537 0.0237664 0.0156339
0.0179569 0.0237025 0.0150988
0.0181657 0.0238784 0.0160597
0.0202846 0.0235852 0.0178331
0.0246606 0.0207096 0.0169565
0.0201631 0.0241037 0.0162511
0.0195864 0.0230556 0.0170108
0.0188723 0.0231833 0.0163227
0.0195267 0.0230036 0.0149458
0.0189857 0.0178346 0.0158916
0.018095 0.0242289 0.0141603
0.0257839 0.0174661 0.0169603
0.0192662 0.0221608 0.0166836
0.019571 0.0235751 0.0141244
0.0145741 0.0230292 0.0149532
0.0211871 0.0217903 0.0169536
0.0207488 0.0221401 0.0159423
0.0232189 0.0197351 0.017857
0.0215218 0.0206197 0.0165223
0.017641 0.0241463 0.0168681
0.0184167 0.0235311 0.0172977
0.0247944 0.0176608 0.0167337
0.0185602 0.0222154 0.0159775
0.0213184 0.0237003 0.0165413
0.0197732 0.0214966 0.0161342
0.0204602 0.0227823 0.0152326
0.0223896 0.0185633 0.0167507
0.0197421 0.0245092 0.0170961
0.0171187 0.0235855 0.0156551
0.0162065 0.0237264 0.014989
0.0234138 0.0188261 0.0168111
0.0207763 0.0162307 0.0159395
0.0253525 0.0207939 0.0161783
0.0228864 0.021587 0.0161467
0.0170597 0.0227334 0.0139599
0.0199855 0.0194259 0.0168223
0.019231 0.0220501 0.0148606
0.0188013 0.0226147 0.0174457
0.0186153 0.0214034 0.0153503
0.024664 0.0202772 0.0157663
0.0180332 0.0227735 0.0140923
0.0176899 0.0231376 0.0132364
0.0185253 0.0167543 0.0154226
0.0139318 0.0208839 0.0163875
0.0168492 0.0235318 0.0134588
0.0207066 0.0157898 0.0145493
0.0168689 0.0147332 0.0145163
0.0136865 0.0168914 0.0156362
0.0180761 0.0187839 0.0159457
0.0149807 0.0223721 0.0155875
0.0228779 0.0212682 0.0178002
0.0207183 0.0212012 0.0162946
0.0193486 0.0207693 0.0155952
0.0230788 0.015721 0.0156001
0.019014 0.0226774 0.0140654
0.0255579 0.019897 0.0158953
0.0192966 0.0248684 0.0180141
0.0161441 0.0229672 0.0162362
0.0180273 0.0206456 0.0156497
0.0179385 0.0229782 0.0166148
0.013987 0.0224476 0.0155168
0.0239568 0.0153501 0.0152874
0.0183363 0.0218917 0.0169335
0.0160085 0.0234316 0.0171151
0.0167395 0.0238251 0.0165482
0.0237691 0.0178696 0.0166646
0.0159207 0.021011 0.0164
0.020257 0.0221285 0.016813
0.0185878 0.023495 0.0136945
0.0164152 0.0227823 0.0152411
0.0167596 0.0219836 0.0161676
0.0193231 0.0237849 0.0176443
0.0220737 0.015394 0.0152808

VERTICES 185 370
1 0
1 1
1 2
1 3
1 4
1 5
1 6
1 7
1 8
1 9
1 10
1 11
1 12
1 13
1 14
1 15
1 16
1 17
1 18
1 19
1 20
1 21
1 22
1 23
1 24
1 25
1 26
1 27
1 28
1 29
1 30
1 31
1 32
1 33
1 34
1 35
1 36
1 37
1 38
1 39
1 40
1 41
1 42
1 43
1 44
1 45
1 46
1 47
1 48
1 49
1 50
1 51
1 52
1 53
1 54
1 55
1 56
1 57
1 58
1 59
1 60
1 61
1 62
1 63
1 64
1 65
1 66
1 67
1 68
1 69
1 70
1 71
1 72
1 73
1 74
1 75
1 76
1 77
1 78
1 79
1 80
1 81
1 82
1 83
1 84
1 85
1 86
1 87
1 88
1 89
1 90
1 91
1 92
1 93
1 94
1 95
1 96
1 97
1 98
1 99
1 100
1 101
1 102
1 103
1 104
1 105
1 106
1 107
1 108
1 109
1 110
1 111
1 112
1 113
1 114
1 115
1 116
1 117
1 118
1 119
1 120
1 121
1 122
1 123
1 124
1 125
1 126
1 127
1 128
1 129
1 130
1 131
1 132
1 133
1 134
1 135
1 136
1 137
1 138
1 139
1 140
1 141
1 142
1 143
1 144
1 145
1 146
1 147
1 148
1 149
1 150
1 151
1 152
1 153
1 154
1 155
1 156
1 157
1 158
1 159
1 160
1 161
1 162
1 163
1 164
1 165
1 166
1 167
1 168
1 169
1 170
1 171
1 172
1 173
1 174
1 175
1 176
1 177
1 178
1 179
1 180
1 181
1 182
1 183
1 184

POINT_DATA 185
SCALARS id int 1
LOOKUP_TABLE default
1
2
3
4
5
6
7
8
9
10
11
12
13
14
15
16
17
18
19
20
21
22
23
24
25
26
27
28
29
30
31
32
33
34
35
36
37
38
39
40
41
42
43
44
45
46
47
48
49
50
52
53
54
55
56
57
58
59
60
61
62
63
64
65
66
67
68
69
70
71
72
73
74
75
76
77
78
79
80
81
82
83
84
85
86
87
88
89
90
91
92
93
94
95
96
97
98
99
100
101
102
103
104
105
106
107
108
109
110
111
112
113
114
115
116
117
118
119
120
121
122
123
124
125
126
127
128
129
130
131
132
133
134
135
136
137
138
139
140
141
142
143
144
145
146
147
148
149
150
151
152
153
154
155
157
158
159
160
161
163
164
165
167
168
169
171
172
173
174
175
176
177
178
179
180
181
182
183
184
185
186
187
188
189
190

SCALARS type int 1
LOOKUP_TABLE default
1
1
1
1
1
1
1
1
1
1
1
1
1
1
1
1
1
1
1
1
1
1
1
1
1
1
1
1
1
1
1
1
1
1
1
1
1
1
1
1
1
1
1
1
1
1
1
1
1
1
1
1
1
1
1
1
1
1
1
1
1
1
1
1
1
1
1
1
1
1
1
1
1
1
1
1
1
1
1
1
1
1
1
1
1
1
1
1
1
1
1
1
1
1
1
1
1
1
1
1
1
1
1
1
1
1
1
1
1
1
1
1
1
1
1
1
1
1
1
1
1
1
1
1
1
1
1
1
1
1
1
1
1
1
1
1
1
1
1
1
1
1
1
1
1
1
1
1
1
1
1
1
1
1
1
1
1
1
1
1
1
1
1
1
1
1
1
1
1
1
1
1
1
1
1
1
1
1
1
1
1
1
1
1
1

SCALARS radius float 1
LOOKUP_TABLE default
0.0005
0.0005
0.0005
0.0005
0.0005
0.0005
0.0005
0.0005
0.0005
0.0005
0.0005
0.0005
0.0005
0.0005
0.0005
0.0005
0.0005
0.0005
0.0005
0.0005
0.0005
0.0005
0.0005
0.0005
0.0005
0.0005
0.0005
0.0005
0.0005
0.0005
0.0005
0.0005
0.0005
0.0005
0.0005
0.0005
0.0005
0.0005
0.0005
0.0005
0.0005
0.0005
0.0005
0.0005
0.0005
0.0005
0.0005
0.0005
0.0005
0.0005
0.0005
0.0005
0.0005
0.0005
0.0005
0.0005
0.0005
0.0005
0.0005
0.0005
0.0005
0.0005
0.0005
0.0005
0.0005
0.0005
0.0005
0.0005
0.0005
0.0005
0.0005
0.0005
0.0005
0.0005
0.0005
0.0005
0.0005
0.0005
0.0005
0.0005
0.0005
0.0005
0.0005
0.0005
0.0005
0.0005
0.0005
0.0005
0.0005
0.0005
0.0005
0.0005
0.0005
0.0005
0.0005
0.0005
0.0005
0.0005
0.0005
0.0005
0.0005
0.0005
0.0005
0.0005
0.0005
0.0005
0.0005
0.0005
0.0005
0.0005
0.0005
0.0005
0.0005
0.0005
0.0005
0.0005
0.0005
0.0005
0.0005
0.0005
0.0005
0.0005
0.0005
0.0005
0.0005
0.0005
0.0005
0.0005
0.0005
0.0005
0.0005
0.0005
0.0005
0.0005
0.0005
0.0005
0.0005
0.0005
0.0005
0.0005
0.0005
0.0005
0.0005
0.0005
0.0005
0.0005
0.0005
0.0005
0.0005
0.0005
0.0005
0.0005
0.0005
0.0005
0.0005
0.0005
0.0005
0.0005
0.0005
0.0005
0.0005
0.0005
0.0005
0.0005
0.0005
0.0005
0.0005
0.0005
0.0005
0.0005
0.0005
0.0005
0.0005
0.0005
0.0005
0.0005
0.0005
0.0005
0.0005
0.0005
0.0005
0.0005
0.0005
0.0005
0.0005

SCALARS mass float 1
LOOKUP_TABLE default
5.23599e-07
5.23599e-07
5.23599e-07
5.23599e-07
5.23599e-07
5.23599e-07
5.23599e-07
5.23599e-07
5.23599e-07
5.23599e-07
5.23599e-07
5.23599e-07
5.23599e-07
5.23599e-07
5.23599e-07
5.23599e-07
5.23599e-07
5.23599e-07
5.23599e-07
5.23599e-07
5.23599e-07
5.23599e-07
5.23599e-07
5.23599e-07
5.23599e-07
5.23599e-07
5.23599e-07
5.23599e-07
5.23599e-07
5.23599e-07
5.23599e-07
5.23599e-07
5.23599e-07
5.23599e-07
5.23599e-07
5.23599e-07
5.23599e-07
5.23599e-07
5.23599e-07
5.23599e-07
5.23599e-07
5.23599e-07
5.23599e-07
5.23599e-07
5.23599e-07
5.23599e-07
5.23599e-07
5.23599e-07
5.23599e-07
5.23599e-07
5.23599e-07
5.23599e-07
5.23599e-07
5.23599e-07
5.23599e-07
5.23599e-07
5.23599e-07
5.23599e-07
5.23599e-07
5.23599e-07
5.23599e-07
5.23599e-07
5.23599e-07
5.23599e-07
5.23599e-07
5.23599e-07
5.23599e-07
5.23599e-07
5.23599e-07
5.23599e-07
5.23599e-07
5.23599e-07
5.23599e-07
5.23599e-07
5.23599e-07
5.23599e-07
5.23599e-07
5.23599e-07
5.23599e-07
5.23599e-07
5.23599e-07
5.23599e-07
5.23599e-07
5.23599e-07
5.23599e-07
5.23599e-07
5.23599e-07
5.23599e-07
5.23599e-07
5.23599e-07
5.23599e-07
5.23599e-07
5.23599e-07
5.23599e-07
5.23599e-07
5.23599e-07
5.23599e-07
5.23599e-07
5.23599e-07
5.23599e-07
5.23599e-07
5.23599e-07
5.23599e-07
5.23599e-07
5.23599e-07
5.23599e-07
5.23599e-07
5.23599e-07
5.23599e-07
5.23599e-07
5.23599e-07
5.23599e-07
5.23599e-07
5.23599e-07
5.23599e-07
5.23599e-07
5.23599e-07
5.23599e-07
5.23599e-07
5.23599e-07
5.23599e-07
5.23599e-07
5.23599e-07
5.23599e-07
5.23599e-07
5.23599e-07
5.23599e-07
5.23599e-07
5.23599e-07
5.23599e-07
5.23599e-07
5.23599e-07
5.23599e-07
5.23599e-07
5.23599e-07
5.23599e-07
5.23599e-07
5.23599e-07
5.23599e-07
5.23599e-07
5.23599e-07
5.23599e-07
5.23599e-07
5.23599e-07
5.23599e-07
5.23599e-07
5.23599e-07
5.23599e-07
5.23599e-07
5.23599e-07
5.23599e-07
5.23599e-07
5.23599e-07
5.23599e-07
5.23599e-07
5.23599e-07
5.23599e-07
5.23599e-07
5.23599e-07
5.23599e-07
5.23599e-07
5.23599e-07
5.23599e-07
5.23599e-07
5.23599e-07
5.23599e-07
5.23599e-07
5.23599e-07
5.23599e-07
5.23599e-07
5.23599e-07
5.23599e-07
5.23599e-07
5.23599e-07
5.23599e-07
5.23599e-07
5.23599e-07
5.23599e-07
5.23599e-07
5.23599e-07
5.23599e-07
5.23599e-07
5.23599e-07
5.23599e-07
5.23599e-07

VECTORS velocity float
0.00975683 -0.00124806 -0.00141395
0.00699477 -0.0195416 0.0133853
0.0315432 -0.0654119 0.160505
-0.037703 0.0906804 -0.110049
-0.0361888 0.00423447 -0.00202595
0.0115753 0.00335386 0.00507904
-0.00160544 -0.00065539 0.000156981
-0.000412886 -0.00142641 0.0421258
0.0146488 -0.0581779 0.0464265
-0.0145827 -0.00202609 -0.0073361
-0.0798305 0.00917224 0.0331468
0.000200081 0.0022633 -0.00100887
0.0223825 -0.0377807 -0.00528804
0.00302037 0.00745851 0.0148187
-0.039104 0.047924 0.0290904
0.0076022 -0.0382095 -0.0683059
-0.00943434 -0.0152825 -0.105384
-0.00948131 -0.0512054 0.0566452
0.00263842 0.00243838 -0.00259101
0.0188442 0.0531273 0.0699485
0.0237483 -0.0195075 0.0124614
0.00802836 0.00640466 0.00176539
0.0263745 0.0104604 -0.00384986
-0.00994573 -0.00277329 -0.00865752
-0.07162 0.028241 -0.011257
-0.0120236 -0.0198292 0.0132839
0.000217501 0.0278989 0.0744228
-0.15162 -0.0106573 0.0493811
0.0357963 -0.000611372 -0.024151
0.0726128 -0.00357 -0.0074401
0.0270571 -0.0145509 0.0079268
-0.00112886 0.0022199 0.00460127
-0.121368 -0.0172879 0.0722159
-0.0058224 -0.0189478 0.0928338
-0.0203045 -0.00117734 -0.0237895
0.00587436 -0.00512689 -0.00295502
0.00225962 -0.00445746 0.00367004
-0.00164773 2.89169e-05 -0.0223583
-0.0328406 -0.016166 0.0238434
-0.00269912 -0.0046031 0.00522973
0.00961178 -0.0112356 0.0221014
0.0144211 -0.0061776 -0.0122669
0.0204757 0.00787224 -0.00417276
0.018217 0.00239091 -0.000869461
0.0101654 0.0181644 -0.00371147
0.031129 0.0308969 0.0412271
-0.00146439 -0.0182806 -0.00562642
0.0140618 -0.0103956 0.00297537
0.0720889 -0.00537433 0.00663381
0.00878138 0.0276492 -0.00189635
-0.00382187 0.00112148 0.000730795
0.0113551 -0.00606782 -0.0135872
-0.0262282 -0.0271496 -0.0410479
0.0174288 0.0228216 0.0399328
0.00954663 0.00130175 0.0021973
-0.0342824 0.0866478 -0.0172959
0.0574252 0.0140114 -0.0145111
-0.03809 0.0174019 -0.0111083
-0.0182782 -0.00808126 -0.0238314
0.00673852 0.00586289 -0.00207181
0.00618932 0.00225446 0.000606574
0.0921541 -0.00781175 -0.0411311
0.0144113 0.00099423 0.00353048
-0.0106108 0.00447652 0.0100707
-0.00166303 -0.0194257 0.0106916
0.00368747 -0.00402353 0.00667984
-0.010092 -0.0317508 -0.0128785
0.0322453 0.0522462 -0.00611585
0.00578785 0.00193479 -0.00339896
-0.00255053 -0.0115812 0.0385706
0.000815158 0.000927936 -0.00163999
0.0151829 0.0719636 -0.0104853
0.0158788 0.00828229 0.00145536
0.00453438 0.00450275 0.000796911
0.00144292 -0.000644202 -0.000591469
-0.0302772 -0.0124745 -0.053353
0.00643569 0.00196059 -0.00304334
-0.0167802 0.0105114 -0.00381332
0.0042715 0.0367876 -0.00705348
0.015622 -0.00300539 0.00469938
0.00243852 -0.00306212 -0.00250229
0.00952479 0.00307434 -0.000834357
-0.00735815 -0.00412876 -0.012672
-0.00792646 -0.0190024 0.0380256
0.00478216 -0.00466978 0.00102249
0.0261147 0.0443017 0.12944
-0.0128668 0.00718254 -0.00429535
0.0389754 0.0463724 0.0967388
0.0975542 -0.10877 0.080119
-0.00984683 -0.00589696 -0.00256355
0.0156182 0.00376499 0.0106081
0.000212691 -0.000561719 -0.00084431
0.122121 -0.0282465 -0.0129311
0.00413967 0.00502311 0.013359
-0.00763598 0.00267807 -0.0104994
0.0219275 -0.0124425 0.0167829
0.00847064 -0.0191174 0.0149033
0.00589283 -0.0134658 0.0103039
0.012638 0.00601831 0.00100672
0.470387 -0.0072116 -0.128914
0.0072607 -0.00224046 0.00185197
0.0114395 -0.0117259 0.00629526
-0.0482379 0.0359078 -0.0100698
0.0152144 -0.0234361 0.0294584
-0.0143743 0.00287729 0.011247
-0.00190837 0.0044024 0.0105907
-0.000103527 0.00998254 -0.0055459
-0.0110247 0.00422506 -0.0102987
-0.00414612 0.00443283 0.000165611
0.0224678 -0.208203 -0.0951676
0.00486777 -0.0010198 -0.00338417
-0.0502483 0.0100524 0.0230986
0.0136176 -0.0139367 0.00933244
0.0102358 -0.0102525 0.00912358
0.00348514 0.00331723 0.013369
-0.00739676 -0.00117199 -0.0049285
-0.0118288 -0.00988817 -0.0217986
0.0164566 0.00314869 0.0124206
0.00618718 -0.00761437 0.0137847
0.00393662 -0.00770312 0.0144058
-0.00132947 -0.0116797 -0.0050265
0.0168179 0.0143627 0.0235967
0.000897094 -0.00807732 0.0115645
-0.00437237 -0.0375248 0.0313249
0.00582793 -0.0135172 0.0160951
0.0121509 0.0168036 -0.0081733
0.00154046 -0.00110736 -0.000135616
0.00690242 -0.00211257 0.00286472
0.00545311 -0.0120526 -0.00200925
-0.053946 -0.0448092 0.121668
-0.0507212 0.0330779 -0.0195146
-0.0111627 -0.00163351 0.00321264
-0.00531485 0.00260469 -0.000595014
-0.00514902 0.0187912 0.0502183
0.00580735 -0.0200786 0.0118503
-0.000307408 -0.00203453 -0.00418985
-0.00109879 -0.0172364 0.0253493
0.000576539 -0.00970682 -0.00267155
-0.0422045 0.0158638 -0.00780892
0.00847565 0.0025558 0.0109297
0.00135977 -0.00231882 0.00740128
-0.00195607 0.0046513 -0.00494075
-0.009906 -0.0242477 -0.0220388
0.00134289 -0.0695162 -0.062087
0.0275499 -0.135979 -0.0825847
0.0064854 0.00939401 -0.00240014
0.0445475 0.010605 0.0191833
-0.0858614 -0.00153609 -0.0646253
0.00591202 -0.0208767 -0.0265679
-0.0057101 0.00196818 0.00274792
0.00574859 -0.00823827 -0.0158223
0.0245536 0.133838 0.00622804
-0.00255351 -0.00221482 0.0421906
0.00239954 -0.0380764 0.0433202
0.0196283 -0.0342391 -0.0231967
0.000497914 -0.00113698 -0.000154523
-0.0242511 -0.0158975 -0.00686101
0.0104883 0.018734 -0.0242666
0.0705354 -0.0063431 -0.0295029
-0.00222718 -0.00298979 -0.0153157
0.015413 -0.00852355 0.00604391
0.00214249 -0.00298962 -0.000959248
-0.0604923 0.0154839 0.0415186
0.00732944 -0.0197162 0.0121844
0.00406672 -0.00245189 0.00088293
-0.00105965 0.0141962 -0.0156978
0.00953316 0.0252048 -0.0142303
0.0543441 -0.00407307 -0.0117626
0.00525278 0.00320287 0.0059035
-0.000620901 -0.00724725 -0.00116968
0.00271748 0.0110973 -0.00145654
0.00200606 -0.00539265 0.00906536
0.000592738 -0.00092114 0.000449132
0.000104807 0.00427541 -0.003921
0.000647165 -0.00470407 0.00321204
-0.0050413 -0.0121201 -0.0108444
5.46438e-05 -0.00184974 -0.000678124
-0.00334374 -0.0121215 0.0332448
-0.00932469 0.04656 0.0135247
0.00637669 -0.00507166 0.00535532
0.0159643 0.0249062 0.0358098
0.0047287 -0.00310646 -0.0302734
0.00337801 -0.000318117 0.00388493
-0.00367454 0.00393676 0.000646486
0.000825963 -0.0562082 -0.0137904

VECTORS force float
5.49412e-07 -4.75798e-07 -5.24735e-06
4.81161e-06 -3.57836e-05 8.59421e-06
-0.000163851 0.00145994 -0.0109956
0.0 0.0 -5.1365e-06
0.0 0.0 -5.1365e-06
-1.17366e-07 -7.75322e-07 -7.10513e-06
4.6443e-06 1.69101e-06 5.33214e-07
-0.00595455 0.00377964 0.00353717
0.000506365 0.00193368 0.000793655
0.0 0.0 -5.1365e-06
0.000681061 0.00283495 -0.00305869
1.01045e-05 -1.15007e-06 3.57277e-05
0.0 0.0 -5.1365e-06
0.0055216 -0.00537213 -0.000570583
-0.00319748 0.00207835 0.000495264
-0.00305651 0.000891296 0.00623649
0.0 0.0 -5.1365e-06
0.0 0.0 -5.1365e-06
0.0 0.0 -5.1365e-06
0.00371923 -0.00347933 0.00198423
-0.00389994 0.00247634 0.0010749
0.0 0.0 -5.1365e-06
-2.37078e-06 2.70035e-06 -3.59401e-06
0.0 0.0 -5.1365e-06
0.0 0.0 -5.1365e-06
-2.30791e-06 0.000140916 7.58169e-05
0.000794104 0.00602793 0.00200435
0.0 0.0 -5.1365e-06
0.0 0.0 -5.1365e-06
0.00544048 -0.00191038 0.0132733
3.01045e-05 8.54549e-05 1.9049e-05
-7.88749e-05 0.000124065 7.54652e-05
0.00909364 -0.00102576 0.00147947
0.00110099 -0.000825605 -0.00339761
0.0 0.0 -5.1365e-06
0.0 0.0 -5.1365e-06
0.0 0.0 -5.1365e-06
0.0 0.0 -5.1365e-06
0.0 0.0 -5.1365e-06
0.0 0.0 -5.1365e-06
0.0 0.0 -5.1365e-06
-3.92806e-07 -3.84991e-06 1.13207e-07
0.0 0.0 -5.1365e-06
1.09219e-05 1.00662e-05 -1.29064e-06
-5.65346e-05 -8.28556e-05 6.8471e-05
0.00238366 -0.00525961 0.00111956
0.0 0.0 -5.1365e-06
-1.84477e-06 8.15315e-06 2.48158e-06
-0.00171463 0.00337388 -0.00283651
0.0 0.0 -5.1365e-06
1.51387e-06 5.22947e-06 -1.77693e-06
-3.64237e-05 -2.22696e-05 5.595e-05
0.0 0.0 -5.1365e-06
0.0 0.0 -5.1365e-06
3.01424e-06 1.90503e-05 1.85615e-05
0.0 0.0 -5.1365e-06
-0.000213089 0.00457312 0.000389195
0.0 0.0 -5.1365e-06
0.0 0.0 -5.1365e-06
0.0 0.0 -5.1365e-06
6.76181e-06 -1.31953e-05 -3.18198e-06
0.0 0.0 -5.1365e-06
-1.21364e-06 -2.32065e-06 9.51685e-07
0.000438947 -5.37623e-05 0.000450056
9.90766e-06 5.25021e-06 -7.20917e-06
-2.56901e-08 -2.09918e-07 3.77793e-07
0.0 0.0 -5.1365e-06
0.000767267 -0.000748186 -0.000348682
-6.60371e-07 1.48213e-06 -3.14786e-06
0.0 0.0 -5.1365e-06
0.0 0.0 -5.1365e-06
0.0 0.0 -5.1365e-06
0.0 0.0 -5.1365e-06
0.0 0.0 -5.1365e-06
9.53112e-07 -1.07659e-05 1.5513e-06
0.0 0.0 -5.1365e-06
0.0 0.0 -5.1365e-06
0.0 0.0 -5.1365e-06
-5.0089e-07 3.19553e-07 -2.14806e-06
-0.00373467 -4.13384e-05 -0.000286702
2.14233e-05 -2.86715e-07 -1.47321e-06
2.38401e-06 3.06943e-06 -2.14171e-07
0.0 0.0 -5.1365e-06
0.0 0.0 -5.1365e-06
-1.8522e-07 -2.94733e-06 -4.83212e-06
-0.00534273 -0.0022847 -0.00497262
1.53248e-06 1.18384e-07 9.00255e-07
0.00206793 0.00304684 0.00852627
-0.0047097 0.0125325 0.0156546
1.87788e-05 -5.44307e-06 8.57188e-07
-2.07588e-06 -3.38666e-06 3.77124e-06
-1.44621e-06 2.48452e-06 -3.21567e-06
-0.0011943 -0.00269556 -0.00282548
9.63658e-06 4.87493e-06 4.34459e-06
-4.13556e-06 -1.24469e-05 9.68464e-06
0.000674714 0.00128681 0.000621622
-0.00257457 -0.00491638 0.000672659
8.31918e-05 -3.02393e-06 -7.99679e-05
0.000121103 6.86412e-05 0.000127048
-0.0253577 -0.0922791 -0.0655094
9.26219e-06 -1.34825e-06 7.36262e-06
0.0 0.0 -5.1365e-06
-0.000423419 -0.000582969 0.00145284
0.0 0.0 -5.1365e-06
0.0 0.0 -5.1365e-06
2.1357e-06 6.37308e-06 6.05667e-06
-9.78954e-08 2.41367e-06 -4.57422e-06
-4.33685e-07 5.22665e-06 8.02004e-06
-3.0087e-06 -3.99972e-06 -4.66006e-07
0.0 0.0 -5.1365e-06
-1.25732e-05 2.43877e-06 -4.54544e-06
-0.000730812 0.0119357 0.00153716
-6.05855e-07 -8.2423e-06 7.08214e-06
-3.29798e-05 1.83802e-05 -8.53247e-05
-4.21187e-06 -1.36695e-05 9.15022e-06
1.20817e-06 9.32163e-07 3.04082e-07
0.0 0.0 -5.1365e-06
2.53005e-05 -1.90565e-05 4.03515e-05
-3.16625e-06 -1.02609e-06 -6.46408e-06
1.48685e-05 1.08912e-05 -1.86371e-05
7.64141e-06 8.12792e-07 -4.13967e-06
0.0 0.0 -5.1365e-06
-0.000802681 -0.00121306 -0.000883034
0.0 0.0 -5.1365e-06
-1.29208e-05 8.91218e-06 -2.01183e-05
0.000322999 -0.000669096 -0.000507765
1.49035e-05 -9.01165e-06 1.53359e-05
1.73465e-05 5.16713e-07 6.75229e-06
-2.08152e-06 -9.56177e-06 3.37668e-06
0.0 0.0 -5.1365e-06
0.0 0.0 -5.1365e-06
0.0 0.0 -5.1365e-06
0.0 0.0 -5.1365e-06
0.0 0.0 -5.1365e-06
2.17768e-06 -1.09541e-05 1.40895e-06
3.15487e-06 1.38819e-06 2.36918e-06
5.75694e-06 5.33949e-07 -6.91248e-06
2.08152e-06 9.56177e-06 -1.36497e-05
0.0 0.0 -5.1365e-06
3.39879e-06 8.4903e-07 1.64346e-05
1.90878e-05 -9.85854e-06 -4.21663e-05
-2.15655e-05 1.61377e-05 9.96353e-05
0.0 0.0 -5.1365e-06
0.0 0.0 -5.1365e-06
0.0046552 -0.000668432 0.00103227
-3.42729e-07 2.34966e-06 -1.26176e-06
-0.00235316 -0.00162668 -0.000828838
0.0 0.0 -5.1365e-06
0.0 0.0 -5.1365e-06
-1.80325e-07 -2.75571e-07 -4.72435e-06
7.8064e-06 -1.99352e-05 1.63281e-05
-0.0038569 0.00826003 -0.00252643
0.000406604 -0.00121366 0.000795985
-0.00559471 -0.0142645 -0.00774531
0.0 0.0 -5.1365e-06
7.67217e-06 -8.62053e-06 3.36556e-06
0.00702702 0.0041614 -0.00076231
0.0 0.0 -5.1365e-06
0.0 0.0 -5.1365e-06
0.0 0.0 -5.1365e-06
-1.32611e-06 4.2644e-06 1.21901e-05
7.15927e-06 -1.9477e-05 3.36244e-06
0.0 0.0 -5.1365e-06
0.0 0.0 -5.1365e-06
5.85277e-07 9.51746e-06 4.3625e-06
0.0 0.0 -5.1365e-06
-9.59907e-05 -0.000299097 0.000314629
0.00484683 -0.00667971 -0.00176298
1.52068e-07 -4.143e-07 -1.6334e-06
1.82485e-05 2.81045e-06 3.34424e-06
-5.6517e-06 4.69774e-06 -4.76092e-06
-8.00818e-06 -6.8143e-06 1.9427e-05
-4.51686e-06 -3.46679e-06 2.96143e-06
-3.97229e-05 9.47631e-06 3.38089e-05
-1.52677e-06 2.47178e-06 7.76254e-06
0.0 0.0 -5.1365e-06
-1.02059e-05 8.10224e-06 4.69695e-05
0.0 0.0 -5.1365e-06
0.0 0.0 -5.1365e-06
-3.01943e-06 -3.17005e-06 -4.99645e-06
-0.00012023 0.000153156 -0.000834997
1.79334e-05 -8.07799e-06 6.03257e-05
4.29431e-06 -1.58059e-06 5.49188e-06
0.0 0.0 -5.1365e-06
0.0 0.0 -5.1365e-06
