# vtk DataFile Version 3.0
LIGGGHTS particles timestep 280000
ASCII
DATASET POLYDATA
POINTS 109 float
0.0220154 0.0150484 0.0159058
0.0180202 0.0230727 0.0148829
0.0172319 0.0240366 0.0131603
0.0172405 0.0145983 0.01217
0.0187301 0.0236841 0.0141519
0.0190315 0.023957 0.0126308
0.0148111 0.0141342 0.0160741
0.0231194 0.0156807 0.0158066
0.0209811 0.014536 0.0143902
0.0230399 0.0159657 0.0147057
0.0223941 0.0223964 0.0165739
0.0212983 0.0150654 0.0151785
0.0161535 0.0236695 0.014007
0.021167 0.0158846 0.0146196
0.0190314 0.0199828 0.0181113
0.0221392 0.0180685 0.0161099
0.0192654 0.0146991 0.0158471
0.015382 0.0233872 0.0145789
0.0155428 0.0222406 0.0145941
0.0218567 0.0218365 0.0158807
0.0245549 0.0197943 0.0167231
0.0203262 0.0140302 0.0131398
0.021386 0.0152458 0.0137975
0.0196656 0.0242225 0.0141003
0.0206529 0.0218253 0.0149892
0.0239561 0.0226342 0.0153739
0.0196991 0.0220587 0.0147757
0.0189525 0.023472 0.0117696
0.0238466 0.0167656 0.0163307
0.0210838 0.0232941 0.0143413
0.0206285 0.0206526 0.0163286
0.0216372 0.0219851 0.0148374
0.0195364 0.0204335 0.0170558
0.0165472 0.0147235 0.0134389
0.0198689 0.0242036 0.0131221
0.022047 0.014386 0.0140684
0.022094 0.0162478 0.0149552
0.0210017 0.0230804 0.0133683
0.0204826 0.0220755 0.015942
0.0184846 0.0125467 0.0220655
0.0141034 0.0223737 0.0144639
0.0217908 0.023983 0.0144854
0.0200302 0.0148265 0.0146659
0.0215961 0.0238677 0.0135139
0.0231538 0.0153352 0.0139378
0.0226423 0.0235541 0.0141958
-0.00373061 0.0170994 0.0619733
0.0149193 0.0180017 0.0158704
0.016855 0.019212 0.0211651
0.0193399 0.0140057 0.0129606
0.00997501 0.012738 0.0403596
0.0173379 0.0235659 0.0154424
0.0201303 0.0232996 0.0127868
0.0209765 0.022758 0.015178
0.0222262 0.0155283 0.0142601
0.0205735 0.0188641 0.0160466
0.0219123 0.0170025 0.0155861
0.0183148 0.0140364 0.0130718
0.0230183 0.0178945 0.0288874
0.0195001 0.0227048 0.0140389
0.0222658 0.0147923 0.0149599
0.0182276 0.0218663 0.0162996
0.0196876 0.0143381 0.0138488
0.0177385 0.0117277 0.0272979
0.0216368 0.0147809 0.0127672
0.0210573 0.0177683 0.0173304
0.0157733 0.013374 0.0217383
0.019252 0.0231706 0.0131547
0.019993 0.0210943 0.0154666
0.0193468 0.019319 0.0242863
0.0210518 0.0210553 0.0155178
0.0208817 0.02389 0.012799
0.0204474 0.0225182 0.0142941
0.0208728 0.0234635 0.0118882
0.0241971 0.0209163 0.0164533
0.0245562 0.0222671 0.0160887
0.0149105 0.0227285 0.0139928
0.023917 0.0151139 0.0155101
0.0226888 0.0225764 0.0154806
0.0209324 0.0167497 0.0153133
0.0181962 0.0242562 0.0134442
0.0194482 0.0233116 0.0149667
0.0168807 0.0233086 0.0145914
0.0224311 0.0149942 0.0133362
0.0235087 0.0218972 0.0159812
0.0251292 0.021653 0.0166493
0.019246 0.0169303 0.018487
0.0211751 0.0198457 0.0158708
0.0169444 0.0242605 0.0140907
0.0184726 0.014234 0.0143967
0.0255275 0.0206491 0.0167175
0.00603122 0.0143262 0.0389499
0.0232995 0.0231416 0.0148222
0.0199105 0.0235106 0.0118537
0.0201981 0.0234024 0.0138739
0.0212527 0.0142005 0.0134886
0.027679 0.0204695 0.0155537
0.0216022 0.0150667 0.0176828
0.0203878 0.0238671 0.0147731
0.020709 0.0242846 0.0137144
0.0251303 0.0174389 0.0168392
0.0207698 0.0187926 0.0226263
0.0177166 0.0236279 0.0141092
0.0219395 0.0230309 0.014936
0.0154781 0.0136836 0.0269063
0.0142993 0.0178271 0.00827691
0.0246074 0.0158394 0.0159703
0.0161026 0.02291 0.0150828
0.0232573 0.0148484 0.0148061

VERTICES 109 218
1 0
1 1
1 2
1 3
1 4
1 5
1 6
1 7
1 8
1 9
1 10
1 11
1 12
1 13
1 14
1 15
1 16
1 17
1 18
1 19
1 20
1 21
1 22
1 23
1 24
1 25
1 26
1 27
1 28
1 29
1 30
1 31
1 32
1 33
1 34
1 35
1 36
1 37
1 38
1 39
1 40
1 41
1 42
1 43
1 44
1 45
1 46
1 47
1 48
1 49
1 50
1 51
1 52
1 53
1 54
1 55
1 56
1 57
1 58
1 59
1 60
1 61
1 62
1 63
1 64
1 65
1 66
1 67
1 68
1 69
1 70
1 71
1 72
1 73
1 74
1 75
1 76
1 77
1 78
1 79
1 80
1 81
1 82
1 83
1 84
1 85
1 86
1 87
1 88
1 89
1 90
1 91
1 92
1 93
1 94
1 95
1 96
1 97
1 98
1 99
1 100
1 101
1 102
1 103
1 104
1 105
1 106
1 107
1 108

POINT_DATA 109
SCALARS id int 1
LOOKUP_TABLE default
1
2
3
5
6
7
9
10
12
13
14
17
18
21
23
24
25
26
29
35
36
38
39
40
42
44
45
48
49
52
53
54
57
60
62
63
64
65
66
67
68
69
70
74
75
76
77
79
80
81
82
84
85
86
87
88
89
90
91
92
95
96
97
98
100
103
104
105
106
108
110
111
112
114
115
119
125
126
128
131
133
135
136
137
143
144
148
149
152
154
158
159
161
165
167
168
169
171
172
175
176
177
178
182
184
185
186
187
190

SCALARS type int 1
LOOKUP_TABLE default
1
1
1
1
1
1
1
1
1
1
1
1
1
1
1
1
1
1
1
1
1
1
1
1
1
1
1
1
1
1
1
1
1
1
1
1
1
1
1
1
1
1
1
1
1
1
1
1
1
1
1
1
1
1
1
1
1
1
1
1
1
1
1
1
1
1
1
1
1
1
1
1
1
1
1
1
1
1
1
1
1
1
1
1
1
1
1
1
1
1
1
1
1
1
1
1
1
1
1
1
1
1
1
1
1
1
1
1
1

SCALARS radius float 1
LOOKUP_TABLE default
0.0005
0.0005
0.0005
0.0005
0.0005
0.0005
0.0005
0.0005
0.0005
0.0005
0.0005
0.0005
0.0005
0.0005
0.0005
0.0005
0.0005
0.0005
0.0005
0.0005
0.0005
0.0005
0.0005
0.0005
0.0005
0.0005
0.0005
0.0005
0.0005
0.0005
0.0005
0.0005
0.0005
0.0005
0.0005
0.0005
0.0005
0.0005
0.0005
0.0005
0.0005
0.0005
0.0005
0.0005
0.0005
0.0005
0.0005
0.0005
0.0005
0.0005
0.0005
0.0005
0.0005
0.0005
0.0005
0.0005
0.0005
0.0005
0.0005
0.0005
0.0005
0.0005
0.0005
0.0005
0.0005
0.0005
0.0005
0.0005
0.0005
0.0005
0.0005
0.0005
0.0005
0.0005
0.0005
0.0005
0.0005
0.0005
0.0005
0.0005
0.0005
0.0005
0.0005
0.0005
0.0005
0.0005
0.0005
0.0005
0.0005
0.0005
0.0005
0.0005
0.0005
0.0005
0.0005
0.0005
0.0005
0.0005
0.0005
0.0005
0.0005
0.0005
0.0005
0.0005
0.0005
0.0005
0.0005
0.0005
0.0005

SCALARS mass float 1
LOOKUP_TABLE default
5.23599e-07
5.23599e-07
5.23599e-07
5.23599e-07
5.23599e-07
5.23599e-07
5.23599e-07
5.23599e-07
5.23599e-07
5.23599e-07
5.23599e-07
5.23599e-07
5.23599e-07
5.23599e-07
5.23599e-07
5.23599e-07
5.23599e-07
5.23599e-07
5.23599e-07
5.23599e-07
5.23599e-07
5.23599e-07
5.23599e-07
5.23599e-07
5.23599e-07
5.23599e-07
5.23599e-07
5.23599e-07
5.23599e-07
5.23599e-07
5.23599e-07
5.23599e-07
5.23599e-07
5.23599e-07
5.23599e-07
5.23599e-07
5.23599e-07
5.23599e-07
5.23599e-07
5.23599e-07
5.23599e-07
5.23599e-07
5.23599e-07
5.23599e-07
5.23599e-07
5.23599e-07
5.23599e-07
5.23599e-07
5.23599e-07
5.23599e-07
5.23599e-07
5.23599e-07
5.23599e-07
5.23599e-07
5.23599e-07
5.23599e-07
5.23599e-07
5.23599e-07
5.23599e-07
5.23599e-07
5.23599e-07
5.23599e-07
5.23599e-07
5.23599e-07
5.23599e-07
5.23599e-07
5.23599e-07
5.23599e-07
5.23599e-07
5.23599e-07
5.23599e-07
5.23599e-07
5.23599e-07
5.23599e-07
5.23599e-07
5.23599e-07
5.23599e-07
5.23599e-07
5.23599e-07
5.23599e-07
5.23599e-07
5.23599e-07
5.23599e-07
5.23599e-07
5.23599e-07
5.23599e-07
5.23599e-07
5.23599e-07
5.23599e-07
5.23599e-07
5.23599e-07
5.23599e-07
5.23599e-07
5.23599e-07
5.23599e-07
5.23599e-07
5.23599e-07
5.23599e-07
5.23599e-07
5.23599e-07
5.23599e-07
5.23599e-07
5.23599e-07
5.23599e-07
5.23599e-07
5.23599e-07
5.23599e-07
5.23599e-07
5.23599e-07

VECTORS velocity float
-0.0396212 0.0614186 -0.00402951
0.0109699 0.0119275 -0.0198479
0.00320874 -0.000562192 -0.00472391
-0.00663557 -0.0893455 0.0316157
0.0151692 0.0158025 0.0131383
0.00375584 0.00750164 0.0116863
7.66358e-21 -1.17022e-19 2.0377e-20
-0.0110775 0.0073249 -0.079445
-0.012973 0.000400743 -0.00268968
0.0105063 0.00744537 0.00509313
-0.0923379 -0.0833195 0.0355804
0.00492034 -0.00183015 -0.0107352
0.000181449 -0.0080187 0.0061359
0.00566628 0.00854928 0.00632316
0.0110789 0.0838984 0.180804
-0.00902738 -0.0586616 0.045787
-0.0100948 0.0506263 -0.0411122
-0.00152086 -0.00173521 0.00406229
0.00975052 0.00568436 -0.00674888
-0.0491897 -0.0271568 -0.00682245
-0.0342404 0.0397683 0.0138446
-0.00360437 0.001412 -0.00694616
0.00503142 0.0110386 0.0159511
-0.0113158 -0.00945715 -0.00343493
-6.8763e-05 0.0356157 -0.0128091
0.00682152 0.0176536 0.0321893
0.0105611 0.00627554 0.00266822
0.0665637 -0.0425388 0.0327924
-0.00435866 -0.00329242 0.0224811
-0.0379852 -0.00644213 -0.00582701
0.0166709 0.0680399 -0.0428512
-0.000948273 0.042149 -0.0374703
-0.0888898 -0.103262 -0.0649076
0.0164992 -0.0226963 -0.00717656
0.000725837 -0.00392002 -0.00110443
0.000218958 0.000581569 -0.00243207
0.0113936 0.0111565 0.0120675
-0.00100085 -0.000334881 -0.00796172
-0.00338362 0.047164 -0.0169556
0.157486 0.0978441 -0.191699
0.00106462 0.00304465 -0.00886958
-0.0430781 -0.00850189 -0.0150758
0.00515429 -0.00421332 -0.00860148
-0.0310273 0.00876224 -0.0221535
0.00940877 0.00426124 0.00722831
0.0162485 0.00265647 0.00385663
-1.01187 -0.112145 1.53187
0.00856022 0.0116698 0.205377
0.28326 -0.261348 0.121319
-0.00741011 0.00388637 -0.00281609
0.113284 0.0573627 -0.175335
0.0115118 -0.0018061 0.000828318
-0.00727671 0.00328817 0.00119857
-0.0286418 0.0173996 0.00929712
0.0101511 0.00112005 0.0151707
-0.00185972 0.0493048 0.026655
0.0246469 0.0455092 -0.0238688
-0.00887923 -0.00360496 0.00495377
0.555164 -0.201368 0.395964
-0.0319881 0.0156068 -0.0345718
-0.00227065 -0.0190024 0.00786592
0.00736391 0.0682764 -0.121323
-0.0113237 0.00542075 -0.00906429
-0.138087 0.035106 0.343911
0.0108718 -0.00238144 0.012732
-0.0442889 -0.00570452 0.0493834
0.031647 0.0535048 -0.153249
-0.00118483 0.00798117 0.00340373
0.0184847 0.0265946 0.00325405
0.114885 -0.221877 -0.251501
0.0560315 0.0434587 -0.0294886
-0.0199791 0.0249482 0.00269465
-0.0462572 0.0143486 -0.00392314
-0.0999884 0.0486172 0.0502706
0.00134743 0.0502902 -0.0111646
-0.041102 -0.0500416 0.00549086
0.00323405 0.00144775 -0.00322792
0.000556136 0.0127782 -0.00361736
0.0519171 0.00619982 -0.00780153
0.00746039 0.0200925 0.00948405
0.0230756 -0.011421 -0.0457446
0.00718713 -0.0393033 0.0470632
0.0134756 -0.0131905 -0.00323099
0.0151923 0.00236957 0.000481379
-0.0232688 0.0147165 0.0221351
0.0400633 -0.147145 -0.098744
-0.19937 0.17038 -0.0531772
9.46414e-07 0.0487721 -0.00897148
0.0182545 -0.00309492 -0.00530639
0.0715 0.000640768 0.0896776
0.084481 -0.37581 -1.42891
0.0991402 -0.0483245 -0.0837854
0.0176703 -0.0132294 -0.00931669
-0.0174984 0.00136069 0.0135023
-0.0171649 0.0097458 -0.0413232
-0.00186038 -0.00249173 0.0023482
0.159241 1.58361 -0.583204
-0.0117998 -0.102288 -0.0362769
-0.0432604 0.00156661 -0.00792996
0.0168363 0.00415112 0.0295916
-3.95528e-06 0.0264533 0.0322832
-0.166675 0.0464656 0.117642
0.0259746 -0.00400968 -0.0211522
-0.010269 -0.0228126 0.0252528
0.108331 -0.0207192 -0.317812
-0.0139451 -0.0155963 0.00536245
0.00320073 -0.0202945 -0.0279085
0.00725347 0.00490915 -0.00777003
-0.00134114 -0.00375013 0.00113996

VECTORS force float
0.0 0.0 -5.1365e-06
1.6926e-05 -1.41336e-06 2.1922e-05
-3.39027e-05 -4.57371e-05 -1.44752e-05
0.000492224 0.00165618 0.000958109
0.0 0.0 -5.1365e-06
-0.0016093 0.00158666 -0.00102866
0.0 0.0 0.0
0.0 0.0 -5.1365e-06
2.69957e-06 -1.69385e-06 1.82129e-05
0.0 0.0 -5.1365e-06
0.0 0.0 -5.1365e-06
0.0 0.0 -5.1365e-06
-0.00018666 -0.000473859 0.000337796
-9.13829e-07 -5.02772e-06 8.81342e-06
0.0 0.0 -5.1365e-06
0.0 0.0 -5.1365e-06
0.0 0.0 -5.1365e-06
7.17415e-06 7.8607e-06 -4.4922e-06
2.20791e-06 -3.00029e-06 5.6861e-06
0.0 0.0 -5.1365e-06
0.0 0.0 -5.1365e-06
0.0 0.0 -5.1365e-06
-1.9572e-06 6.75139e-07 -6.74381e-06
3.11738e-05 -7.08807e-05 -4.60966e-05
-1.32883e-06 4.59529e-06 -2.20108e-05
0.000254624 -0.000239138 0.000236719
-2.792e-05 2.13026e-05 -2.54317e-05
0.000812207 -0.0135624 0.00778428
0.0 0.0 -5.1365e-06
-0.00020674 -0.000167926 -3.95086e-05
5.88807e-06 -2.76972e-05 3.46553e-05
4.99915e-07 2.88159e-06 4.45536e-06
0.0 0.0 -5.1365e-06
0.0 0.0 -5.1365e-06
0.00012394 -6.0723e-06 -1.02624e-05
0.0 0.0 -5.1365e-06
-4.2616e-07 -5.29351e-07 -2.28549e-06
-0.000207954 7.3749e-05 6.66189e-05
1.32883e-06 -4.59529e-06 1.17378e-05
0.0 0.0 -5.1365e-06
-1.00147e-05 -1.8059e-05 5.13681e-06
0.000488855 -2.25812e-05 4.49856e-06
0.0 0.0 -5.1365e-06
0.000151175 -4.03389e-05 8.02138e-05
-7.59239e-07 -4.0988e-06 1.32721e-06
-0.000251159 0.000295474 0.000255562
0.0 0.0 -5.1365e-06
0.0 0.0 -5.1365e-06
0.0 0.0 -5.1365e-06
9.6343e-06 -1.23991e-06 2.47772e-05
0.0 0.0 -5.1365e-06
1.81947e-07 -5.47892e-07 1.1007e-06
0.00873988 5.09307e-05 -0.00282927
-9.88149e-06 -3.1309e-05 9.5642e-06
1.9572e-06 -6.75139e-07 -3.5292e-06
0.0 0.0 -5.1365e-06
0.0 0.0 -5.1365e-06
0.0 0.0 -5.1365e-06
0.0 0.0 -5.1365e-06
-0.000136635 -5.36485e-06 6.80853e-05
0.0 0.0 -5.1365e-06
0.0 0.0 -5.1365e-06
0.0 0.0 -5.1365e-06
0.0 0.0 -5.1365e-06
-7.55156e-06 -2.88436e-05 2.66495e-05
0.0 0.0 -5.1365e-06
0.0 0.0 -5.1365e-06
0.000164947 0.00379055 0.00341775
0.0 0.0 -5.1365e-06
0.0 0.0 -5.1365e-06
-5.88807e-06 2.76972e-05 -4.49283e-05
0.000723755 -0.00220799 -0.00275452
0.000164555 -1.59377e-05 -5.8063e-05
0.00322945 0.0113929 -0.0024769
0.0 0.0 -5.1365e-06
0.0 0.0 -5.1365e-06
4.51342e-06 6.50405e-08 -3.58514e-06
0.0 0.0 -5.1365e-06
0.0 0.0 -5.1365e-06
4.86209e-08 -3.84279e-07 1.97323e-07
0.0 0.0 -5.1365e-06
0.0 0.0 -5.1365e-06
-1.81947e-07 5.47892e-07 -1.13737e-05
-8.31179e-08 -5.88733e-07 -4.49815e-06
0.0 0.0 -5.1365e-06
0.0 0.0 -5.1365e-06
0.0 0.0 -5.1365e-06
-4.02617e-09 -7.05595e-08 -2.78013e-07
-0.000324835 8.96979e-05 -0.000306252
0.0 0.0 -5.1365e-06
0.0 0.0 -5.1365e-06
0.0 0.0 -5.1365e-06
-0.000230602 0.000409224 0.000291063
-0.00270799 -0.00408276 0.000577306
0.0 0.0 -5.1365e-06
-1.48434e-06 1.32628e-05 -6.26544e-06
0.0127984 0.0620001 -0.00787232
0.0 0.0 -5.1365e-06
-9.94776e-06 1.74498e-06 -3.68145e-06
0.0 0.0 -5.1365e-06
0.0 0.0 -5.1365e-06
0.0 0.0 -5.1365e-06
5.82204e-05 -8.76511e-05 7.73633e-05
0.0 0.0 -5.1365e-06
0.0 0.0 -5.1365e-06
-5.02833e-07 9.94404e-08 -1.1466e-07
0.0 0.0 -5.1365e-06
0.0 0.0 -5.1365e-06
0.0 0.0 -5.1365e-06
