ITEM: TIMESTEP
260000
ITEM: NUMBER OF ATOMS
112
ITEM: BOX BOUNDS ff ff ff
-0.02 0.43
-0.02 0.06
-0.02 0.07
ITEM: ATOMS id type x y z vx vy vz fx fy fz radius mass 
1 1 0.0235447 0.021193 0.015419 -0.0015305 0.0538439 -0.021865 0 0 -5.1365e-06 0.0005 5.23599e-07 
2 1 0.0207067 0.0226216 0.0165106 0.000105421 -0.0117887 -0.0192376 0 0 -5.1365e-06 0.0005 5.23599e-07 
3 1 0.016705 0.0238114 0.0134495 -0.0316041 0.0397053 0.0411154 -4.11514e-05 -0.00191918 -7.11169e-06 0.0005 5.23599e-07 
5 1 0.0214088 0.0214331 0.0161712 -0.018607 -0.000243107 0.000255504 6.89947e-07 3.81634e-06 -2.18681e-06 0.0005 5.23599e-07 
6 1 0.0180008 0.0239867 0.0145895 0.00784892 -0.00245129 0.000425308 9.63008e-05 5.13747e-05 -4.64307e-05 0.0005 5.23599e-07 
7 1 0.0173093 0.0237344 0.0126953 -0.0497328 0.0543234 0.0809383 0.000398276 -0.0124219 0.00166466 0.0005 5.23599e-07 
9 1 0.0148111 0.0141342 0.0160741 7.84386e-20 -2.40036e-20 -2.00658e-20 -6.35275e-22 4.23516e-22 0 0.0005 5.23599e-07 
10 1 0.0223941 0.0211801 0.016349 -0.0091745 -0.0137583 0.00247279 0 0 -5.1365e-06 0.0005 5.23599e-07 
12 1 0.019112 0.0218072 0.0149951 0.00706557 0.00451094 -0.00801333 4.51829e-05 -2.68791e-05 3.29962e-06 0.0005 5.23599e-07 
13 1 0.0217334 0.0149278 0.0147691 -0.0226953 -0.0286771 -0.0505875 0 0 -5.1365e-06 0.0005 5.23599e-07 
14 1 0.0227199 0.0228968 0.0158379 -0.0134469 -0.00265156 0.00867272 -6.28112e-06 -3.97063e-06 -9.98508e-08 0.0005 5.23599e-07 
17 1 0.0222108 0.0220353 0.0158639 -0.00607136 -0.0135923 0.00042265 1.16696e-05 -6.75757e-07 -2.29542e-06 0.0005 5.23599e-07 
18 1 0.0156741 0.02348 0.0143604 0.00180614 0.00250618 -0.00313816 2.59244e-05 -6.024e-05 4.48589e-05 0.0005 5.23599e-07 
21 1 0.0195382 0.0149281 0.0131624 0.0166051 0.00202194 0.0106621 0 0 -5.1365e-06 0.0005 5.23599e-07 
23 1 0.0239023 0.0185572 0.0166689 0.0031881 0.0354131 -0.00223465 0 0 -5.1365e-06 0.0005 5.23599e-07 
24 1 0.0242437 0.0178935 0.0157911 0.0125534 0.0230748 0.011767 0.00010539 -0.000179736 -0.000240649 0.0005 5.23599e-07 
25 1 0.0248756 0.019154 0.0181552 -0.0068603 -0.033838 -0.0323948 0 0 -5.1365e-06 0.0005 5.23599e-07 
26 1 0.0148499 0.0231468 0.0148186 0.00281871 0.000456429 -0.00204504 1.5458e-06 -1.53103e-06 -2.02894e-06 0.0005 5.23599e-07 
29 1 0.0208292 0.0234948 0.0160349 0.00382011 -0.000612615 0.00468271 -1.13337e-05 1.87499e-05 -1.09957e-05 0.0005 5.23599e-07 
35 1 0.023245 0.0206968 0.0165919 -0.00360388 0.0446724 -0.000467452 0 0 -5.1365e-06 0.0005 5.23599e-07 
36 1 0.0245262 0.0167188 0.0153467 0.0176569 0.00104791 0.00611587 6.35223e-05 4.03651e-05 4.9147e-05 0.0005 5.23599e-07 
37 1 -0.0123181 0.0238724 0.065374 -0.223231 0.00169226 -0.284623 0 0 -5.1365e-06 0.0005 5.23599e-07 
38 1 0.0200191 0.0141246 0.0127773 0.0125404 0.000586028 0.000753995 -6.0249e-06 1.0704e-05 3.61676e-05 0.0005 5.23599e-07 
39 1 0.0193558 0.0146289 0.0122256 0.00890652 0.00155174 0.00670099 -1.07462e-05 2.49745e-05 -1.06829e-05 0.0005 5.23599e-07 
40 1 0.0188373 0.0244334 0.0137152 0.0331517 0.0117907 -0.0151372 0.000238164 1.64902e-06 2.67256e-05 0.0005 5.23599e-07 
42 1 0.0203373 0.0219729 0.0158388 -0.00019031 -0.0139547 -0.00470511 0 0 -5.1365e-06 0.0005 5.23599e-07 
44 1 0.0232681 0.0222306 0.0150494 -0.0783408 -0.0638701 0.0746895 -0.0174564 0.00778709 -0.0108737 0.0005 5.23599e-07 
45 1 0.0181773 0.0213267 0.0155124 -0.0357926 -0.00103526 0.0392594 0 0 -5.1365e-06 0.0005 5.23599e-07 
48 1 0.0175587 0.0234873 0.0117925 -0.00304069 0.05374 0.0176954 0.00148257 0.00360518 -0.00772867 0.0005 5.23599e-07 
49 1 0.0250137 0.0196079 0.0172322 0.00300713 -0.0166142 -0.00548127 0 0 -5.1365e-06 0.0005 5.23599e-07 
52 1 0.0195428 0.023722 0.0139004 0.000659901 -0.00434433 -0.000880537 2.72095e-05 -3.63059e-05 -1.67018e-05 0.0005 5.23599e-07 
53 1 0.0211208 0.0180053 0.0180313 -0.129884 -0.0879338 -0.0916021 0 0 -5.1365e-06 0.0005 5.23599e-07 
54 1 0.0251981 0.0174013 0.0156244 0.0355354 -0.0124665 -0.0060676 1.62534e-05 -6.76706e-05 1.57776e-05 0.0005 5.23599e-07 
57 1 0.0247632 0.0186155 0.0161614 0.0424358 0.0178317 0.035328 -0.000187844 0.000162876 -0.000261188 0.0005 5.23599e-07 
60 1 0.0167762 0.014204 0.0135492 0.00462938 -0.00306994 0.00516526 1.86502e-07 -5.19805e-07 9.32985e-08 0.0005 5.23599e-07 
62 1 0.0180619 0.0241442 0.0131649 0.0234133 0.0214722 0.0378394 -0.000236046 -0.000371153 0.000236059 0.0005 5.23599e-07 
63 1 0.0224859 0.0145426 0.0142233 0.0104683 0.0021065 -0.00109723 -3.21703e-05 1.88216e-05 1.36807e-05 0.0005 5.23599e-07 
64 1 0.0199835 0.0153416 0.0139591 0.016941 0.0116254 -0.0102434 0 0 -5.1365e-06 0.0005 5.23599e-07 
65 1 0.0190213 0.022555 0.0142519 0.000349813 0.00325457 -0.00335238 -7.73363e-05 -7.68767e-05 -5.48305e-05 0.0005 5.23599e-07 
66 1 0.0231948 0.0218657 0.0160769 -0.0111674 0.0335718 -0.0158929 0 0 -5.1365e-06 0.0005 5.23599e-07 
67 1 0.0196148 0.0231884 0.0147381 0.00156718 0.00267648 0.00515596 1.28932e-05 0.00021202 9.54346e-05 0.0005 5.23599e-07 
68 1 0.015185 0.02572 0.0246238 0.0786281 -0.16177 0.0108037 0 0 -5.1365e-06 0.0005 5.23599e-07 
69 1 0.0215025 0.0242354 0.0140654 -0.000759635 0.000947416 0.000368779 8.18949e-06 2.10516e-06 -7.22706e-06 0.0005 5.23599e-07 
70 1 0.0258189 0.0198666 0.0166957 -0.00823794 -0.0285907 0.0269078 0.00075294 -0.000532904 0.000345227 0.0005 5.23599e-07 
72 1 0.0229013 0.0230063 0.0134699 0.0462517 0.0150688 0.0340387 0.0147559 0.0276707 0.00103905 0.0005 5.23599e-07 
74 1 0.0210125 0.0240154 0.0132219 0.000223479 0.00135988 -0.000988729 -1.40756e-05 1.13815e-05 -1.19441e-05 0.0005 5.23599e-07 
75 1 0.0216275 0.0142989 0.0137577 0.00707547 0.00613395 -0.00353601 -2.07646e-06 1.32736e-06 -3.58485e-06 0.0005 5.23599e-07 
76 1 0.0223318 0.0236827 0.0140643 -0.00146235 0.00279787 0.000550045 4.21031e-06 -1.46418e-06 -1.01144e-05 0.0005 5.23599e-07 
77 1 0.0246901 0.0213943 0.0155043 0.053878 0.0535959 -0.0534653 -0.00711043 -0.00134357 0.005429 0.0005 5.23599e-07 
79 1 0.0218963 0.0216822 0.0170783 -0.0525872 0.000320085 -0.0383534 0 0 -5.1365e-06 0.0005 5.23599e-07 
80 1 0.0241337 0.0210778 0.0163023 -0.0317715 0.0104935 -0.0271865 0 0 -5.1365e-06 0.0005 5.23599e-07 
81 1 0.0190005 0.0140195 0.0129381 0.0106612 -0.00178309 0.00206968 -3.03904e-07 1.94587e-06 -2.11557e-06 0.0005 5.23599e-07 
82 1 0.0217241 0.0226842 0.016452 -0.00654526 -0.00647287 -0.000162333 2.23713e-05 3.59311e-06 1.87369e-05 0.0005 5.23599e-07 
84 1 0.0188353 0.0203399 0.0175612 -0.0690615 0.0891048 -0.0131934 0 0 -5.1365e-06 0.0005 5.23599e-07 
85 1 0.0179084 0.0227069 0.0139953 0.00131714 0.0222811 -0.0248204 -0.000111911 0.000336136 0.000165836 0.0005 5.23599e-07 
86 1 0.022393 0.0231224 0.01489 0.00164382 0.00343973 -0.000451 -1.91221e-06 -7.44727e-07 4.8101e-06 0.0005 5.23599e-07 
87 1 0.02054 0.0149232 0.0131472 0.00650302 0.00611335 5.57369e-05 0 0 -5.1365e-06 0.0005 5.23599e-07 
88 1 0.0187624 0.0159238 0.0146566 0.00947573 0.00289669 0.00691138 -2.49593e-06 -8.21921e-06 1.95237e-05 0.0005 5.23599e-07 
89 1 0.0244324 0.0209165 0.0180733 -0.0347094 0.00612026 0.00662313 0 0 -5.1365e-06 0.0005 5.23599e-07 
90 1 0.0179617 0.0140647 0.013161 0.00248148 0.000430662 -0.000587402 0 0 -5.1365e-06 0.0005 5.23599e-07 
91 1 0.0247618 0.0206168 0.0170144 -0.0333031 -0.0186998 -0.00908914 0 0 -5.1365e-06 0.0005 5.23599e-07 
92 1 0.0172273 0.0222762 0.014551 0.00992421 0.0112765 -0.0232688 4.93608e-05 0.000206995 -0.000132259 0.0005 5.23599e-07 
95 1 0.0243838 0.0198289 0.0164797 -0.00954165 -0.0554779 -0.0124711 0 0 -5.1365e-06 0.0005 5.23599e-07 
96 1 0.0217811 0.0202127 0.0167355 -0.0143026 0.0294694 -0.000842253 0 0 -5.1365e-06 0.0005 5.23599e-07 
97 1 0.0172175 0.0142747 0.0144437 0.0307612 -0.00801294 -0.00775416 1.01248e-06 -1.00619e-06 -4.52232e-07 0.0005 5.23599e-07 
98 1 0.0256491 0.0182555 0.0158708 0.0201504 -0.00299871 0.00328119 -0.000112816 -1.87213e-05 0.000153955 0.0005 5.23599e-07 
100 1 0.0203182 0.0146126 0.0119544 0.00949133 0.000887554 -0.000795865 0 0 -5.1365e-06 0.0005 5.23599e-07 
103 1 0.0252532 0.0195954 0.0159194 0.0506575 -0.0532886 0.00213962 0.000181389 -0.000183757 -4.91371e-05 0.0005 5.23599e-07 
104 1 0.0255629 0.0189354 0.0165946 0.0289909 0.00791217 0.0226433 -5.69544e-05 -0.000225795 8.04689e-07 0.0005 5.23599e-07 
105 1 0.017024 0.0231147 0.0140582 -0.00496183 0.0245399 0.0167781 -7.14185e-06 -2.41321e-05 0.000224671 0.0005 5.23599e-07 
106 1 0.019583 0.0225343 0.0154939 0.000431446 -0.00170471 0.00667135 8.38709e-06 1.74525e-05 -5.93169e-06 0.0005 5.23599e-07 
108 1 0.0228388 0.0213555 0.0175366 -0.0434788 0.00289846 -0.116094 0 0 -5.1365e-06 0.0005 5.23599e-07 
110 1 0.0212682 0.0222934 0.015653 -0.00441148 -0.00746592 -0.000341697 -1.09502e-05 -4.07575e-06 -6.48011e-06 0.0005 5.23599e-07 
111 1 0.0185719 0.0234041 0.0140098 0.00743029 0.0100268 -0.0104359 5.85794e-05 0.000112951 -0.00013506 0.0005 5.23599e-07 
112 1 0.0181935 0.0221145 0.0147494 0.00975659 0.00568919 -0.0078124 -2.5215e-05 5.28254e-06 -2.40955e-05 0.0005 5.23599e-07 
114 1 0.0193045 0.0241037 0.0129001 0.0152902 0.00170422 0.0028014 0.00023092 -2.69609e-05 -9.66185e-05 0.0005 5.23599e-07 
115 1 0.0240213 0.022728 0.0156754 -0.00450871 -0.00986359 -0.0215338 0 0 -5.1365e-06 0.0005 5.23599e-07 
119 1 0.0246973 0.0221362 0.0161839 -0.00816102 -0.00816672 -0.000310594 0 0 -5.1365e-06 0.0005 5.23599e-07 
125 1 0.0141896 0.0226205 0.0153542 -0.018183 0.0161486 -0.0118472 3.34207e-07 2.02723e-06 -1.7806e-06 0.0005 5.23599e-07 
126 1 0.02489 0.0162353 0.0161434 0.0110407 -0.00731445 0.0154929 0 0 -5.1365e-06 0.0005 5.23599e-07 
128 1 0.0212895 0.0234919 0.0147014 0.00899707 -0.00753224 -0.000116472 1.10756e-05 6.86202e-06 1.06148e-05 0.0005 5.23599e-07 
131 1 0.0189622 0.0153053 0.013895 0.00893738 -0.000480161 0.00447667 -4.52011e-08 5.19877e-07 -5.21066e-06 0.0005 5.23599e-07 
133 1 0.0173923 0.0243696 0.0138994 -0.0014853 0.0332673 0.0326807 -0.000425918 3.62273e-05 0.000231049 0.0005 5.23599e-07 
135 1 0.0186645 0.0230818 0.0150284 0.00509132 0.00367583 0.00440252 1.81708e-05 2.15767e-05 -1.99246e-05 0.0005 5.23599e-07 
136 1 0.016477 0.02321 0.0148923 0.000566082 -0.00290444 -0.0081233 0 0 -5.1365e-06 0.0005 5.23599e-07 
137 1 0.0211946 0.0146734 0.0124323 0.0102733 0.00686931 -0.00125624 -1.14055e-06 6.57484e-07 -4.59202e-06 0.0005 5.23599e-07 
142 1 0.0226055 0.0223816 0.01683 -0.0195561 -0.00621912 0.0117863 0 0 -5.1365e-06 0.0005 5.23599e-07 
143 1 0.0233589 0.023289 0.0151767 0.000112027 0.0300609 0.0378982 6.28112e-06 3.97063e-06 -1.01732e-05 0.0005 5.23599e-07 
144 1 0.024143 0.0219063 0.0149156 -0.0371531 0.0268191 -0.0464413 -0.00118341 0.00054467 0.00306238 0.0005 5.23599e-07 
148 1 0.0206318 0.0228538 0.0151241 0.00100887 0.00813161 0.00310188 1.3889e-05 -6.98482e-06 7.11544e-05 0.0005 5.23599e-07 
149 1 0.0192549 0.017098 0.0155058 0.00015429 0.00811112 0.00867511 0 0 -5.1365e-06 0.0005 5.23599e-07 
152 1 0.0164759 0.0240775 0.0143771 -0.00150248 0.00983467 0.0420914 -0.000262229 0.000383361 0.000557925 0.0005 5.23599e-07 
154 1 0.0202214 0.0237483 0.015283 0.000885641 -0.0053915 0.00615283 9.13093e-05 -0.000181649 -8.87842e-05 0.0005 5.23599e-07 
158 1 0.0252106 0.0212229 0.0162855 -0.126349 -0.0275502 0.0342552 -0.00054152 -0.000590237 -0.000462317 0.0005 5.23599e-07 
159 1 0.0215658 0.023644 0.0166938 -0.00269858 -0.00143612 -0.00837139 3.4876e-05 -7.88796e-06 2.4765e-05 0.0005 5.23599e-07 
161 1 0.0233515 0.0228034 0.0142977 -0.0329103 0.0274377 0.0412269 0.00662291 -0.0132324 -0.00395643 0.0005 5.23599e-07 
165 1 0.0180695 0.0231727 0.0131573 -0.0181958 0.0517475 0.0239558 -2.03526e-05 -0.000104832 0.000355562 0.0005 5.23599e-07 
167 1 0.0189933 0.023958 0.0146771 -0.0026847 -0.00227147 0.00133982 3.50737e-05 1.05059e-05 0.000131544 0.0005 5.23599e-07 
168 1 0.0207297 0.01397 0.0134649 0.00779076 0.00356547 -0.00398444 -2.77776e-07 4.4263e-08 -5.13996e-06 0.0005 5.23599e-07 
169 1 0.0247472 0.0204286 0.0157352 -0.0255808 -0.0887827 0.0170905 -0.00125104 0.00106911 -0.000307776 0.0005 5.23599e-07 
171 1 0.0238442 0.0216888 0.0171194 0.0236455 -0.0217583 0.0175577 0 0 -5.1365e-06 0.0005 5.23599e-07 
172 1 0.0226622 0.023376 0.0177651 -0.0563817 0.0452504 0.0389242 0 0 -5.1365e-06 0.0005 5.23599e-07 
175 1 0.0201405 0.0243881 0.0135181 0.000700848 -0.000751412 0.00191724 -2.79873e-05 -1.03019e-05 -1.02497e-06 0.0005 5.23599e-07 
176 1 0.0237535 0.0202738 0.0157901 0.0106102 0.0527045 -0.0147412 0 0 -5.1365e-06 0.0005 5.23599e-07 
177 1 0.0257819 0.0208136 0.0169285 -0.0396377 -0.0458753 0.0131895 0.000654882 0.000131771 -0.000767946 0.0005 5.23599e-07 
178 1 0.0176755 0.0230965 0.0148901 0.00613256 0.00402879 -0.00835822 3.81286e-06 7.55308e-06 -0.000148928 0.0005 5.23599e-07 
182 1 0.0205618 0.0236419 0.0140327 0.00548255 -0.0017321 0.000834683 -8.24245e-06 5.23642e-06 -1.39367e-05 0.0005 5.23599e-07 
184 1 0.0216973 0.0232639 0.0155945 0.00127866 0.00307754 -0.000706159 0 0 -5.1365e-06 0.0005 5.23599e-07 
185 1 0.0154804 0.017596 0.00837679 -0.0164898 0.0240784 -0.0132953 0 0 -5.1365e-06 0.0005 5.23599e-07 
186 1 0.026183 0.0187295 0.0173218 0.0153127 0.0343098 0.00978962 -0.000296242 0.000296185 2.25495e-06 0.0005 5.23599e-07 
187 1 0.0168604 0.0224837 0.0155328 0.0156062 0.0247689 -0.00333783 -8.34704e-06 0.000106792 3.39781e-05 0.0005 5.23599e-07 
190 1 0.0232771 0.0148977 0.0147253 0.00829512 0.0025994 0.0100317 0 0 -5.1365e-06 0.0005 5.23599e-07 
