ITEM: TIMESTEP
140000
ITEM: NUMBER OF ATOMS
163
ITEM: BOX BOUNDS ff ff ff
-0.02 0.43
-0.02 0.06
-0.02 0.07
ITEM: ATOMS id type x y z vx vy vz fx fy fz radius mass 
1 1 0.0149363 0.0149634 0.0148964 0.0174546 0.00339824 -0.0190168 0 0 -5.1365e-06 0.0005 5.23599e-07 
2 1 0.0166647 0.0151309 0.0136466 0.0213352 -0.0339704 -0.0625865 0 0 -5.1365e-06 0.0005 5.23599e-07 
3 1 0.0188609 0.0230053 0.0161975 -0.00361395 -0.010487 -0.000276466 -2.46143e-05 -4.00535e-05 4.76634e-05 0.0005 5.23599e-07 
4 1 0.0209264 0.0230411 0.0135465 0.0110452 -0.00182764 0.0132 -0.000100593 7.49151e-05 -0.000209399 0.0005 5.23599e-07 
5 1 0.0175236 0.0146234 0.0119383 0.0017159 0.000432565 0.00129286 0 0 -5.1365e-06 0.0005 5.23599e-07 
6 1 0.0223995 0.0216679 0.0172401 -0.0217669 0.0033806 -0.0303329 0 0 -5.1365e-06 0.0005 5.23599e-07 
7 1 0.0239834 0.020831 0.0189129 -0.136209 -0.0822441 -0.0171028 0 0 -5.1365e-06 0.0005 5.23599e-07 
8 1 0.0234515 0.021967 0.0205139 -0.133588 0.032076 -0.0584151 0 0 -5.1365e-06 0.0005 5.23599e-07 
9 1 0.0118923 0.0175266 0.018572 -0.0206158 0.0033729 0.147152 0 0 -5.1365e-06 0.0005 5.23599e-07 
10 1 0.0239798 0.0159664 0.0146974 0.00122435 0.00719286 0.00732034 2.70664e-06 -2.62657e-06 -7.5435e-06 0.0005 5.23599e-07 
12 1 0.0175934 0.0240389 0.0130783 0.00155286 0.00115963 -0.00387631 7.95679e-06 -1.20928e-06 -1.79465e-05 0.0005 5.23599e-07 
13 1 0.0208771 0.0140978 0.013242 -0.00519229 0.000449648 -0.00354347 2.26971e-07 2.51878e-06 -2.51157e-06 0.0005 5.23599e-07 
14 1 0.0199763 0.0244289 0.0135424 0.0106989 -0.00236286 -0.0143001 0 0 -5.1365e-06 0.0005 5.23599e-07 
16 1 0.0199127 0.0230527 0.0162395 -0.0109518 -0.0162783 -0.0089604 0 0 -5.1365e-06 0.0005 5.23599e-07 
17 1 0.0200467 0.0239649 0.0180275 -0.0383279 0.0489738 -0.0650375 0 0 -5.1365e-06 0.0005 5.23599e-07 
18 1 0.0225849 0.0192679 0.0159369 0.0130575 0.0129504 -0.00399295 -2.12008e-06 -6.04255e-07 -5.56076e-06 0.0005 5.23599e-07 
19 1 0.0172998 0.0225545 0.0154872 0.0125034 0.00857189 -0.00507285 -3.23838e-06 2.13671e-06 -4.35604e-06 0.0005 5.23599e-07 
20 1 0.0258933 0.0188396 0.0167528 0.000246994 -0.000744555 -0.00518896 -2.24723e-06 2.21037e-05 4.90786e-05 0.0005 5.23599e-07 
21 1 0.0211545 0.0191118 0.0168794 0.0142193 -0.0883338 -0.0943429 0 0 -5.1365e-06 0.0005 5.23599e-07 
23 1 0.0185517 0.0240642 0.0163744 -0.000290314 -0.00730086 -0.0149799 0 0 -5.1365e-06 0.0005 5.23599e-07 
24 1 0.0231003 0.0147107 0.0147358 -0.0125655 -0.00536721 -0.011753 -8.33e-07 6.59849e-07 -3.9275e-06 0.0005 5.23599e-07 
25 1 0.0175762 0.017891 0.0160479 -0.0071069 0.0193272 0.116989 0 0 -5.1365e-06 0.0005 5.23599e-07 
26 1 0.021884 0.0209772 0.0163516 0.00470773 -0.00415554 -0.0232856 0 0 -5.1365e-06 0.0005 5.23599e-07 
27 1 0.0180482 0.021992 0.0158589 1.22146e-06 0.00588616 -0.00135866 -9.60619e-07 -2.01579e-06 -2.81169e-06 0.0005 5.23599e-07 
28 1 0.0199327 0.0240164 0.0145012 0.00345438 -0.00137373 -0.00114057 3.51556e-07 -6.97693e-07 -4.94688e-06 0.0005 5.23599e-07 
29 1 0.0208934 0.0242908 0.0139241 0.0161199 -0.00777557 0.0123789 -0.000615775 -6.32532e-05 0.000499954 0.0005 5.23599e-07 
31 1 0.0187568 0.0143572 0.0129373 -0.00442924 0.0454895 -0.0787506 0 0 -5.1365e-06 0.0005 5.23599e-07 
32 1 0.0233382 0.0154622 0.0141193 0.00270225 0.00362462 0.00678055 -1.7639e-07 -1.79306e-06 -1.70667e-06 0.0005 5.23599e-07 
33 1 0.01786 0.0228893 0.0162576 -0.00119882 0.00289445 0.0118431 3.96876e-07 4.38715e-06 -5.45655e-06 0.0005 5.23599e-07 
34 1 0.0232173 0.0178512 0.025054 0.000644833 0.0640548 0.0224223 0 0 -5.1365e-06 0.0005 5.23599e-07 
35 1 0.0251062 0.019011 0.0193983 -0.0790053 0.00635493 -0.0459339 0 0 -5.1365e-06 0.0005 5.23599e-07 
36 1 0.00878688 0.00965515 0.0592968 -0.0244894 0.00301217 -0.299451 0 0 -5.1365e-06 0.0005 5.23599e-07 
37 1 0.0218287 0.0180664 0.0158424 -7.02776e-05 0.04832 0.0106406 4.66274e-07 4.9187e-08 2.765e-07 0.0005 5.23599e-07 
38 1 0.0234499 0.0166296 0.0152256 -0.000647935 0.00431368 0.00445152 -3.27031e-06 7.64921e-07 6.4149e-06 0.0005 5.23599e-07 
39 1 0.0242676 0.0201931 0.017597 0.0142613 0.0525898 -0.00771041 0 0 -5.1365e-06 0.0005 5.23599e-07 
40 1 0.00935912 0.0231997 0.0329713 0.0691887 0.0662687 0.2119 0 0 -5.1365e-06 0.0005 5.23599e-07 
41 1 0.0227729 0.0179056 0.0161743 0.0121511 0.0284025 -0.0143635 0 0 -5.1365e-06 0.0005 5.23599e-07 
42 1 0.0193941 0.0250445 0.0271268 0.0401123 0.24589 0.112778 0 0 -5.1365e-06 0.0005 5.23599e-07 
44 1 0.0152368 0.0207879 0.0155952 0.0107912 0.0151779 -0.00496406 -2.69846e-06 1.51808e-05 7.03387e-06 0.0005 5.23599e-07 
45 1 0.0218382 0.0233035 0.0127957 0.0197393 -0.0192737 0.00996229 0.000258622 0.000553872 5.82564e-05 0.0005 5.23599e-07 
46 1 0.023074 0.0235475 0.0149683 -0.00432437 -0.00137954 -0.00753857 -1.8363e-06 -1.86253e-06 -2.45552e-06 0.0005 5.23599e-07 
48 1 0.015721 0.0185882 0.0159249 0.00357667 0.0492808 -0.0108406 0 0 -5.1365e-06 0.0005 5.23599e-07 
49 1 0.024871 0.0187189 0.0167739 -0.00102975 -0.000869678 -0.0227474 0 0 -5.1365e-06 0.0005 5.23599e-07 
52 1 0.0201648 0.0234806 0.0117854 0.0136514 -0.0316993 -0.00774484 -0.00346141 0.00476417 -0.00117737 0.0005 5.23599e-07 
53 1 0.0178501 0.0206424 0.0508301 -0.0500864 0.174668 -0.385415 0 0 -5.1365e-06 0.0005 5.23599e-07 
54 1 0.0226717 0.0150685 0.0134761 0.011124 0.000399886 -0.00055188 -4.09267e-07 -2.74614e-06 -1.66234e-06 0.0005 5.23599e-07 
55 1 0.0191155 0.0220429 0.0164421 0.0150847 0.013309 -0.01173 0 0 -5.1365e-06 0.0005 5.23599e-07 
56 1 0.0106614 0.0276527 0.0410646 0.0988915 0.0301556 0.385062 0 0 -5.1365e-06 0.0005 5.23599e-07 
57 1 0.0201562 0.0136957 0.0138219 -0.00421728 0.000575677 -0.00450141 -7.50807e-06 -1.16081e-06 -6.92221e-06 0.0005 5.23599e-07 
58 1 0.0233147 0.0199461 0.0158524 0.00877118 0.0190406 -0.00213889 -8.40675e-06 7.53211e-06 5.46345e-06 0.0005 5.23599e-07 
59 1 0.0185482 0.0212336 0.0162766 0.00856412 0.0129436 -0.000390382 2.49386e-06 -8.10711e-06 -5.77136e-06 0.0005 5.23599e-07 
60 1 0.0248109 0.0197334 0.0166954 -0.000645103 0.000509151 -0.00738121 0 0 -5.1365e-06 0.0005 5.23599e-07 
61 1 -0.00183558 0.0120986 0.0510446 -0.684999 -0.255809 0.71653 0 0 -5.1365e-06 0.0005 5.23599e-07 
62 1 0.0152243 0.0234026 0.0147695 0.00738431 0.00987264 -0.00108124 -1.03293e-05 -1.2946e-05 -1.92147e-05 0.0005 5.23599e-07 
63 1 0.0238373 0.0151707 0.0152861 -0.0109568 -0.00926529 -0.0159443 2.58267e-07 4.29684e-07 -5.21617e-06 0.0005 5.23599e-07 
64 1 0.0220354 0.0198822 0.0166497 -0.0141503 0.0290626 0.00138477 0 0 -5.1365e-06 0.0005 5.23599e-07 
65 1 0.0184444 0.0243173 0.0135229 0.00105129 -0.000257258 -0.000471953 1.35853e-05 -7.26323e-06 7.72899e-06 0.0005 5.23599e-07 
66 1 0.0141208 0.0154067 0.0152842 0.00722871 -0.00808357 -0.0061502 0 0 -5.1365e-06 0.0005 5.23599e-07 
67 1 0.0226519 0.0160521 0.0155689 -0.00665098 -0.0160673 -0.00293685 0 0 -5.1365e-06 0.0005 5.23599e-07 
68 1 0.0163091 0.0198842 0.0159395 -0.0292057 0.046921 -0.0237949 0 0 -5.1365e-06 0.0005 5.23599e-07 
69 1 0.0152828 0.0228864 0.0137521 0.016152 0.0091697 -0.00905694 1.60043e-05 5.36275e-06 -1.26136e-05 0.0005 5.23599e-07 
70 1 0.0258002 0.019887 0.01669 -0.00194603 0.00445026 0.000274726 3.14397e-07 -2.05397e-06 -2.16221e-06 0.0005 5.23599e-07 
71 1 0.0215103 0.0218212 0.015 0.0170419 -0.00531999 -0.0112376 5.86384e-06 -1.5933e-06 -5.3854e-06 0.0005 5.23599e-07 
72 1 0.0159632 0.0235735 0.0141184 0.00273604 -0.00222503 -0.00152742 -2.42941e-05 8.76883e-06 2.02073e-05 0.0005 5.23599e-07 
73 1 0.0208283 0.0225354 0.0148437 0.0145447 -0.00289319 -0.00574392 1.12494e-05 -2.9686e-06 2.22965e-05 0.0005 5.23599e-07 
74 1 0.0163673 0.0218389 0.0179455 0.305345 -0.192267 -0.254509 0 0 -5.1365e-06 0.0005 5.23599e-07 
75 1 0.0237983 0.0200991 0.0167139 0.00266641 0.00130235 0.00179098 -4.37971e-06 2.43205e-06 -2.9794e-06 0.0005 5.23599e-07 
76 1 0.0148056 0.022367 0.0144591 0.0097542 0.0128268 -0.00968464 1.34595e-06 1.09618e-05 -1.14794e-05 0.0005 5.23599e-07 
77 1 0.0206511 0.0147443 0.0149702 -0.00578056 -0.0436617 0.0256292 0 0 -5.1365e-06 0.0005 5.23599e-07 
78 1 0.0213798 0.0200943 0.0158209 0.00960259 0.00705819 -0.0049829 2.98736e-07 -3.5904e-06 -4.8205e-06 0.0005 5.23599e-07 
79 1 0.0197439 0.0140043 0.0129633 -0.0014737 0.00164237 -0.00256219 7.59996e-07 2.42859e-06 -1.56174e-06 0.0005 5.23599e-07 
80 1 0.0148226 0.0164116 0.0161451 -0.0038588 0.00945636 0.0306886 0 0 -5.1365e-06 0.0005 5.23599e-07 
81 1 0.0221579 0.0211789 0.0154103 0.0114137 -0.00235364 -0.00816839 -1.40061e-05 -1.6751e-06 8.33978e-06 0.0005 5.23599e-07 
82 1 0.0178186 0.0236787 0.013983 0.00463897 0.00315742 -0.00381118 -1.91563e-06 3.10594e-06 -5.19994e-06 0.0005 5.23599e-07 
83 1 0.0207531 0.0234477 0.0144424 0.00496887 -0.00267332 0.0038064 2.47531e-05 -1.17662e-05 7.00775e-05 0.0005 5.23599e-07 
84 1 0.0176844 0.0158408 0.0146066 -0.00582766 -0.0630795 0.0560368 0 0 -5.1365e-06 0.0005 5.23599e-07 
85 1 0.023689 0.0177451 0.0157532 0.0161312 0.025803 -0.013702 0 0 -5.1365e-06 0.0005 5.23599e-07 
86 1 0.0142814 0.0222937 0.0157458 -0.0126282 0.0549251 0.0571958 0 0 -5.1365e-06 0.0005 5.23599e-07 
87 1 0.0211747 0.0210149 0.0154887 0.00685604 0.000352998 -0.00872928 1.62679e-06 1.94114e-06 -5.90514e-06 0.0005 5.23599e-07 
88 1 0.0173738 0.0239233 0.0164808 0.00555247 -0.0247143 -0.0137242 0 0 -5.1365e-06 0.0005 5.23599e-07 
89 1 0.0255687 0.0208367 0.0164795 -0.00326105 0.00484729 0.00010743 7.37075e-06 -5.6025e-06 -1.86718e-06 0.0005 5.23599e-07 
90 1 0.0229233 0.021427 0.0163883 -0.0101776 -0.00412631 -0.00625043 -2.36831e-05 -3.29113e-05 3.31583e-05 0.0005 5.23599e-07 
91 1 0.024003 0.0214462 0.016217 -0.00353747 -0.00217685 -0.0139924 0 0 -5.1365e-06 0.0005 5.23599e-07 
92 1 0.0184036 0.0238857 0.0147665 0.00897615 0.0041759 -0.00626908 3.8898e-06 -2.62511e-05 1.61277e-05 0.0005 5.23599e-07 
93 1 0.0216086 0.0229443 0.0154709 0.00590738 -0.0168327 -0.00624121 -1.51657e-06 7.46716e-06 -7.50233e-06 0.0005 5.23599e-07 
94 1 0.0221485 0.022068 0.0159412 -0.0218856 -0.004411 -0.0250479 0 0 -5.1365e-06 0.0005 5.23599e-07 
95 1 0.0193744 0.0236756 0.0168422 -0.00642329 0.0296784 -0.00887441 0 0 -5.1365e-06 0.0005 5.23599e-07 
96 1 0.0228657 0.0204547 0.0166256 0.00626944 0.00010789 -0.0119871 0 0 -5.1365e-06 0.0005 5.23599e-07 
97 1 0.0226626 0.0227229 0.0153653 -0.00963198 0.00124905 -0.0214825 0 0 -5.1365e-06 0.0005 5.23599e-07 
98 1 0.0169466 0.0235369 0.0144574 0.00820156 0.00500719 0.00369881 9.00596e-06 1.21867e-05 -8.01373e-06 0.0005 5.23599e-07 
99 1 0.0233761 0.0221391 0.0158532 0.00125888 4.82661e-05 0.00415768 2.08474e-05 1.77418e-05 -3.10878e-06 0.0005 5.23599e-07 
100 1 0.0158084 0.0144601 0.0144946 -0.00254761 -0.0367081 -0.0519406 0 0 -5.1365e-06 0.0005 5.23599e-07 
102 1 0.0179554 0.0236856 0.0156607 0.00942988 -0.00228985 -0.000411446 2.76427e-05 4.00744e-07 -1.01759e-05 0.0005 5.23599e-07 
103 1 0.021366 0.015419 0.0156269 -0.00878936 -0.0175301 0.00881233 0 0 -5.1365e-06 0.0005 5.23599e-07 
104 1 0.0232712 0.020353 0.0175376 0.00383304 0.0138001 -0.00610787 0 0 -5.1365e-06 0.0005 5.23599e-07 
105 1 0.0153094 0.0225751 0.0153228 0.0110133 0.00596976 0.00531828 -5.02534e-06 -1.50225e-06 2.27893e-05 0.0005 5.23599e-07 
106 1 0.0168265 0.021863 0.0149419 0.0160994 0.0108825 -0.0107001 -6.20019e-06 3.92655e-07 -5.16243e-06 0.0005 5.23599e-07 
108 1 0.0169544 0.0210282 0.0154771 0.0176107 0.0157224 -0.00767197 -9.76554e-07 -9.33404e-06 -2.71872e-06 0.0005 5.23599e-07 
109 1 0.0198956 0.0240487 0.0160584 0.0111006 -0.0156048 -0.023445 0 0 -5.1365e-06 0.0005 5.23599e-07 
110 1 0.0167943 0.0229895 0.0198492 0.133804 -0.146215 -0.0187006 0 0 -5.1365e-06 0.0005 5.23599e-07 
111 1 0.0159852 0.0214313 0.0152694 0.0118542 0.0219698 -0.00931578 1.2286e-05 -2.01392e-05 7.83551e-06 0.0005 5.23599e-07 
112 1 0.0169067 0.0218306 0.0160865 -0.00136813 0.0275761 -0.0278116 0 0 -5.1365e-06 0.0005 5.23599e-07 
113 1 0.0195735 0.0211409 0.0164841 0.012445 -0.00102149 -0.0133707 0 0 -5.1365e-06 0.0005 5.23599e-07 
114 1 0.0161316 0.0236522 0.0151128 -0.00422262 0.00450279 -0.0105795 1.16905e-06 6.51316e-06 -2.99018e-06 0.0005 5.23599e-07 
115 1 0.0165697 0.0227745 0.0139321 0.011678 0.00738795 -0.00301562 -3.04684e-06 1.61383e-05 -2.53066e-05 0.0005 5.23599e-07 
116 1 0.0214034 0.0233492 0.0163748 0.00147065 0.0160101 -0.023634 0 0 -5.1365e-06 0.0005 5.23599e-07 
118 1 0.0237311 0.0230021 0.0154955 -0.00367115 0.00880837 0.000322137 -5.36991e-05 -8.17569e-06 -8.1966e-06 0.0005 5.23599e-07 
119 1 0.0160487 0.023172 0.0131778 0.0194634 0.0077828 -0.00884908 6.45509e-06 5.51241e-06 -1.42291e-05 0.0005 5.23599e-07 
120 1 0.0185385 0.0226815 0.0152973 0.0059307 -0.000368181 -0.00323369 1.35935e-05 -2.45482e-06 -4.70943e-06 0.0005 5.23599e-07 
121 1 0.0218711 0.022853 0.0138102 0.0153787 -0.00368424 -0.00601979 1.22944e-05 -1.0423e-05 4.57588e-05 0.0005 5.23599e-07 
122 1 0.0159913 0.0174086 0.0156322 0.000168008 0.039424 0.01626 1.61653e-09 1.80621e-07 -1.30058e-07 0.0005 5.23599e-07 
124 1 0.021871 0.023467 0.0146601 0.0138431 -0.00839619 0.00050893 1.11168e-06 -1.43912e-05 -1.02607e-06 0.0005 5.23599e-07 
125 1 0.0168844 0.0163671 0.0150583 -0.00139945 -0.0140016 -0.0157347 0 0 -5.1365e-06 0.0005 5.23599e-07 
126 1 0.0229082 0.0217418 0.0150645 0.0144372 -0.00367875 -0.00376708 6.86057e-06 1.73495e-06 -1.31726e-06 0.0005 5.23599e-07 
127 1 0.0191442 0.0382668 0.0455495 -0.0142256 0.0436125 -0.0374198 0 0 -5.1365e-06 0.0005 5.23599e-07 
128 1 0.0167244 0.023851 0.0135338 0.00474205 2.53687e-05 -0.00756063 -3.27636e-05 -3.61072e-06 -3.37548e-06 0.0005 5.23599e-07 
131 1 0.0203771 0.0233122 0.0127579 0.000958558 0.061207 0.00646342 0.00203154 -0.0078101 1.1791e-05 0.0005 5.23599e-07 
132 1 0.0222621 0.0222937 0.0145395 0.0190058 -0.00265466 -0.00721376 3.45811e-06 -1.6467e-05 -3.18353e-06 0.0005 5.23599e-07 
133 1 0.0144306 0.0232007 0.0153453 0.0071501 -0.0093369 0.0239504 0.000255265 -0.000309493 1.58934e-05 0.0005 5.23599e-07 
134 1 0.0220209 0.0226464 0.0172161 -0.0204798 0.0155005 -0.00873286 0 0 -5.1365e-06 0.0005 5.23599e-07 
135 1 0.0181593 0.0203621 0.0165792 -0.00526228 0.0299818 -0.00309353 0 0 -5.1365e-06 0.0005 5.23599e-07 
136 1 0.0177261 0.0210828 0.0171885 -0.0313761 -0.0369451 0.0229552 0 0 -5.1365e-06 0.0005 5.23599e-07 
137 1 0.0217507 0.0144858 0.0172677 0.127245 0.0126293 -0.0764347 0 0 -5.1365e-06 0.0005 5.23599e-07 
138 1 0.0212151 0.0217507 0.0161795 0.00911834 0.0237155 -0.0218004 0 0 -5.1365e-06 0.0005 5.23599e-07 
140 1 0.0218819 0.0143632 0.0139869 0.00642375 -0.00620176 -0.00119474 0 0 -5.1365e-06 0.0005 5.23599e-07 
141 1 0.0203989 0.0234297 0.0154057 -0.0150474 0.00929422 0.00249387 0 0 -5.1365e-06 0.0005 5.23599e-07 
142 1 0.0163312 0.0226803 0.0152362 0.0102455 0.00788463 -0.00382606 6.11683e-06 6.34242e-06 2.04805e-06 0.0005 5.23599e-07 
143 1 0.0192358 0.024117 0.0129459 0.000580491 0.00272649 -0.00179025 6.22532e-06 2.6172e-06 1.81895e-05 0.0005 5.23599e-07 
144 1 0.0164901 0.0229015 0.0162637 -0.00743824 0.0139681 3.62638e-05 -9.75015e-06 -1.91536e-06 2.349e-05 0.0005 5.23599e-07 
145 1 0.0223651 0.02027 0.0157793 0.0138764 0.00958127 -0.00376655 0 0 -5.1365e-06 0.0005 5.23599e-07 
146 1 0.0200336 0.0219022 0.0159224 0.0298827 0.014279 -0.00847818 5.93383e-06 2.75763e-06 2.31846e-05 0.0005 5.23599e-07 
148 1 0.0226703 0.0234503 0.0140582 0.000317123 -0.00687563 -0.0125972 0 0 -5.1365e-06 0.0005 5.23599e-07 
149 1 0.0223851 0.0158476 0.0145898 -0.0128974 -0.0172278 -0.00875618 0 0 -5.1365e-06 0.0005 5.23599e-07 
150 1 0.0226919 0.0227358 0.0164715 -0.00217102 0.00088147 -0.0159411 0 0 -5.1365e-06 0.0005 5.23599e-07 
152 1 0.0243578 0.0222441 0.0156708 -0.00717296 0.00557201 -0.000859885 3.67533e-05 -6.10959e-05 1.79642e-05 0.0005 5.23599e-07 
154 1 0.0175984 0.0194854 0.0165968 -0.00123162 -0.00831867 -0.0522147 0 0 -5.1365e-06 0.0005 5.23599e-07 
155 1 0.0194041 0.0227221 0.0172111 0.00239134 -0.000201079 -0.00526659 0 0 -5.1365e-06 0.0005 5.23599e-07 
158 1 0.0210917 0.02344 0.0121158 -0.0258522 0.0437287 0.00653306 0.00819017 0.0056275 -0.000243806 0.0005 5.23599e-07 
159 1 0.0218094 0.0238487 0.0137383 -0.00193526 -0.00446545 0.00340142 5.45005e-06 1.36563e-05 -1.63827e-05 0.0005 5.23599e-07 
161 1 0.0215952 0.0191256 0.0159446 0.0125713 0.00356551 -0.00139897 -1.5608e-06 2.34159e-06 -5.82023e-06 0.0005 5.23599e-07 
163 1 0.0207939 0.0226507 0.0159703 -0.0171895 0.0131907 -0.0162908 -5.73553e-06 -8.3786e-06 6.49662e-06 0.0005 5.23599e-07 
165 1 0.0158045 0.0223816 0.0144408 0.0103877 0.00846558 -0.00511946 3.15774e-06 2.22765e-05 -1.81754e-05 0.0005 5.23599e-07 
167 1 0.0245809 0.0206967 0.0165405 -0.00467194 0.00521004 -0.00196315 -7.13555e-06 -6.27067e-06 7.564e-07 0.0005 5.23599e-07 
168 1 0.0222252 0.0149965 0.0151266 -0.034679 -0.0327163 -0.0386115 0 0 -5.1365e-06 0.0005 5.23599e-07 
169 1 0.0172531 0.0202886 0.0160828 0.0099063 0.00269812 -0.0154959 0 0 -5.1365e-06 0.0005 5.23599e-07 
171 1 0.0234811 0.0188114 0.0159926 0.0196826 0.0278244 -0.00840035 0 0 -5.1365e-06 0.0005 5.23599e-07 
172 1 0.0196281 0.0226335 0.015375 0.0117057 0.00802672 -0.00577689 -1.27596e-05 1.31995e-06 -1.09472e-05 0.0005 5.23599e-07 
173 1 0.0231195 0.0208908 0.0155444 0.0102066 -0.000532145 0.00175153 7.34143e-06 -2.15257e-05 -2.5887e-06 0.0005 5.23599e-07 
175 1 0.0150211 0.0216417 0.0151116 0.00916975 0.0103669 -0.00551181 1.68364e-06 -2.7168e-05 1.75909e-05 0.0005 5.23599e-07 
176 1 0.0136236 0.0134663 0.0234263 0.0493883 0.0638493 0.0377128 0 0 -5.1365e-06 0.0005 5.23599e-07 
177 1 0.0225978 0.0171175 0.0155193 -0.00215434 0.00554198 0.00213738 0 0 -5.1365e-06 0.0005 5.23599e-07 
178 1 0.0210957 0.0239138 0.0130371 0.00313682 0.00885009 0.0130247 -0.00358769 0.00480958 0.00300055 0.0005 5.23599e-07 
179 1 0.0249482 0.0164966 0.016135 0.00198293 -0.00961268 0.0206329 0 0 -5.1365e-06 0.0005 5.23599e-07 
180 1 0.0191532 0.023213 0.0147131 0.00443884 -0.00256049 -0.000174761 -6.91834e-06 -7.58407e-07 1.43602e-05 0.0005 5.23599e-07 
182 1 0.0159302 0.0221195 0.0159923 -0.00156424 0.00952598 -0.000414723 -8.77262e-06 -2.43298e-05 -1.05502e-06 0.0005 5.23599e-07 
183 1 0.0177791 0.0231055 0.0148044 0.0108246 0.00558524 -0.0068568 1.94494e-06 8.48721e-06 3.4772e-06 0.0005 5.23599e-07 
184 1 0.0284853 0.0267248 0.0389503 -0.0857863 0.0278933 0.333859 0 0 -5.1365e-06 0.0005 5.23599e-07 
185 1 0.0148036 0.0229604 0.0187506 0.163873 -0.138417 -0.0131636 0 0 -5.1365e-06 0.0005 5.23599e-07 
186 1 0.0249899 0.0215707 0.0161131 -0.0055045 -0.00499018 -0.00993659 0 0 -5.1365e-06 0.0005 5.23599e-07 
187 1 0.0191942 0.0237597 0.0138777 0.00477833 0.0032226 -0.000392373 4.98539e-06 -9.30779e-08 4.01974e-05 0.0005 5.23599e-07 
188 1 0.0169689 0.0235265 0.0156484 0.00599127 0.00319473 -0.00793401 -5.28509e-07 1.49576e-05 -2.04597e-06 0.0005 5.23599e-07 
189 1 0.0190145 0.0237474 0.0155464 0.00197111 -0.00568908 0.00193557 1.39201e-05 1.14783e-05 -2.2689e-05 0.0005 5.23599e-07 
190 1 0.0210905 0.0137788 0.0141678 -0.0029276 -0.00298828 -0.00356885 7.50807e-06 1.16081e-06 -3.3508e-06 0.0005 5.23599e-07 
