ITEM: TIMESTEP
440000
ITEM: NUMBER OF ATOMS
91
ITEM: BOX BOUNDS ff ff ff
-0.02 0.43
-0.02 0.06
-0.02 0.07
ITEM: ATOMS id type x y z vx vy vz fx fy fz radius mass 
1 1 0.0215432 0.0218516 0.0160173 -0.0166355 -0.0030994 -0.00626079 0 0 -5.1365e-06 0.0005 5.23599e-07 
2 1 0.0212432 0.0233641 0.015729 0.0160231 0.00706503 -0.00573024 0 0 -5.1365e-06 0.0005 5.23599e-07 
3 1 0.0240847 0.022693 0.0157846 0.0101502 -0.010155 -0.0110997 -7.40422e-06 2.45186e-06 -7.01021e-06 0.0005 5.23599e-07 
5 1 0.0218876 0.0186029 0.0159246 0.00370086 0.0337424 0.00255305 -2.91569e-07 8.79758e-07 4.2926e-08 0.0005 5.23599e-07 
6 1 0.0226582 0.0233264 0.0154554 0.0203622 0.00398195 0.000778073 2.26792e-06 -2.35345e-06 -1.20452e-05 0.0005 5.23599e-07 
7 1 0.0230715 0.0224456 0.0157126 0.0117772 -0.0038565 -0.00182127 0 0 -5.1365e-06 0.0005 5.23599e-07 
9 1 0.0148111 0.0141342 0.0160741 7.66358e-21 -1.17022e-19 2.0377e-20 0 0 0 0.0005 5.23599e-07 
12 1 0.0224264 0.0156979 0.0144378 0.0111087 0.00741415 0.00169181 6.06839e-07 1.52084e-07 -4.37316e-06 0.0005 5.23599e-07 
13 1 0.0240459 0.0165815 0.0151954 0.00914031 0.00755233 0.00707046 2.83375e-07 7.20828e-07 2.5657e-06 0.0005 5.23599e-07 
14 1 0.0220152 0.0215234 0.0151952 0.00272481 0.0169169 -0.00935113 -1.43155e-06 1.72397e-05 3.99166e-06 0.0005 5.23599e-07 
18 1 0.0211321 0.0183026 0.0179134 0.0198073 -0.0625185 0.0162649 0 0 -5.1365e-06 0.0005 5.23599e-07 
21 1 0.02151 0.0228716 0.0137677 -0.0180726 -0.00121047 -0.0219264 4.60073e-05 0.000130658 2.32434e-05 0.0005 5.23599e-07 
23 1 0.0226332 0.0151426 0.0136307 0.0101806 0.0044419 0.000372384 -1.41273e-06 -3.53125e-06 2.24568e-06 0.0005 5.23599e-07 
26 1 0.0182558 0.0240818 0.0130116 -0.000738631 0.0014604 -0.00881647 1.28593e-05 -2.49366e-06 -8.54221e-05 0.0005 5.23599e-07 
29 1 0.0247031 0.0219183 0.0159165 0.00249122 -0.00784587 -0.00209228 -5.68443e-07 -1.90815e-06 1.68402e-06 0.0005 5.23599e-07 
35 1 0.0235334 0.0229538 0.0149837 0.000582992 0.000148622 -0.0049627 -2.53721e-05 -1.63711e-05 1.14651e-05 0.0005 5.23599e-07 
36 1 0.0178712 0.0233922 0.0162099 0.0990621 -0.0161573 -0.0448094 0 0 -5.1365e-06 0.0005 5.23599e-07 
38 1 0.0156104 0.017645 0.0198991 0.224788 0.182406 0.0495029 0 0 -5.1365e-06 0.0005 5.23599e-07 
39 1 0.0252863 0.0212085 0.0163126 0.00136573 -0.000224763 0.00449258 1.93388e-07 5.25522e-06 -4.46902e-06 0.0005 5.23599e-07 
40 1 0.0196479 0.02367 0.0140916 -0.00875649 -0.00479008 -0.0044834 2.46366e-06 1.51534e-05 -5.60664e-06 0.0005 5.23599e-07 
42 1 0.0221012 0.0224948 0.0154198 0.0091792 0.016481 0.000301922 0 0 -5.1365e-06 0.0005 5.23599e-07 
45 1 0.0210266 0.0216721 0.0151693 0.000739697 0.00922142 -0.0299275 0 0 -5.1365e-06 0.0005 5.23599e-07 
48 1 0.0237191 0.0208443 0.0164411 0.0110731 -0.00398848 0.0115977 -1.58275e-06 4.38362e-06 2.42086e-06 0.0005 5.23599e-07 
49 1 0.00264122 -0.00139252 0.039174 -0.138601 -0.173355 -0.441849 0 0 -5.1365e-06 0.0005 5.23599e-07 
52 1 0.0215862 0.0222679 0.0145656 0.00830899 0.0251579 -0.0262257 -7.73588e-07 2.62782e-06 -4.146e-06 0.0005 5.23599e-07 
53 1 0.0210386 0.0238086 0.0148233 0.000883293 -0.0158231 -0.0197445 0 0 -5.1365e-06 0.0005 5.23599e-07 
54 1 0.0187426 0.0141793 0.0126727 0.00804665 0.0208788 -0.0350836 -1.68639e-07 1.07368e-06 -3.46994e-06 0.0005 5.23599e-07 
57 1 0.0210871 0.0234462 0.0121535 0.00745923 -0.000777193 0.0103853 0.000183458 0.000330459 -8.40466e-05 0.0005 5.23599e-07 
60 1 0.0177101 0.0146235 0.0119349 0.00243434 0.00177801 -0.00195864 -1.40779e-06 -5.08734e-06 1.39607e-05 0.0005 5.23599e-07 
62 1 0.0229539 0.0172521 0.015571 0.00873217 0.00630877 0.00608195 -2.96351e-07 5.98165e-08 3.82708e-07 0.0005 5.23599e-07 
63 1 0.0166851 0.0149715 0.0134492 0.0163014 0.0188673 -0.0120713 0 0 -5.1365e-06 0.0005 5.23599e-07 
64 1 0.0275348 0.0191916 0.0169039 0.000824932 -0.0134696 -0.165584 0 0 -5.1365e-06 0.0005 5.23599e-07 
65 1 0.016013 0.0147729 0.0184184 0.132274 0.0152465 -0.0371362 0 0 -5.1365e-06 0.0005 5.23599e-07 
66 1 0.019223 0.0240407 0.0132611 0.00350215 0.00113088 -0.0148877 -5.88215e-06 1.70301e-05 -2.1115e-05 0.0005 5.23599e-07 
67 1 0.0169131 0.0146143 0.0125383 -0.00471621 0.00661911 -0.00858824 -7.1658e-06 -2.25956e-06 3.01379e-06 0.0005 5.23599e-07 
68 1 0.020752 0.022755 0.0149291 0.013796 -0.00554315 -0.016362 0 0 -5.1365e-06 0.0005 5.23599e-07 
69 1 0.0201623 0.0234795 0.0117796 0.0496688 0.0162832 -0.0235543 0.00270184 0.00299394 -0.00289304 0.0005 5.23599e-07 
70 1 0.0211887 0.0158136 0.0211336 0.15164 0.0911626 -0.387546 0 0 -5.1365e-06 0.0005 5.23599e-07 
75 1 0.020477 0.0248018 0.0151432 1.05509e-19 -1.41109e-19 2.99065e-20 0 0 0 0.0005 5.23599e-07 
76 1 0.0200814 0.0244249 0.0135997 -0.000205739 -0.00154023 -0.00105649 1.34713e-05 5.07455e-06 -6.05853e-06 0.0005 5.23599e-07 
79 1 0.021719 0.0241485 0.0141623 -0.00145397 -0.0035637 -0.000941046 1.6858e-06 -1.51494e-06 -3.36256e-06 0.0005 5.23599e-07 
80 1 0.0177596 0.0234482 0.0143984 -0.00760794 0.0387426 -0.0274638 0 0 -5.1365e-06 0.0005 5.23599e-07 
84 1 0.0228347 0.0219853 0.0148563 0.0107519 0.00485556 -0.0108454 3.0197e-07 4.04362e-07 -5.10594e-06 0.0005 5.23599e-07 
86 1 0.0221226 0.0167563 0.0153047 0.0117486 0.00239558 0.00124431 3.68868e-07 -1.82661e-07 9.34876e-07 0.0005 5.23599e-07 
87 1 0.0206652 0.0140815 0.0131794 -0.00066331 -0.000517673 0.000128439 2.72299e-06 6.82285e-06 1.05774e-05 0.0005 5.23599e-07 
88 1 0.0221116 0.0231318 0.0162697 0.022137 -0.0227073 -0.00480266 -2.26792e-06 2.35345e-06 1.77216e-06 0.0005 5.23599e-07 
90 1 0.0157401 0.023067 0.0134304 -0.00465672 -0.00379468 0.000175362 1.53608e-05 2.18627e-06 -3.52171e-06 0.0005 5.23599e-07 
91 1 0.0222954 0.0234861 0.0136814 -0.00471433 0.00115983 -0.00529613 -9.56814e-07 -8.54205e-06 -2.07577e-06 0.0005 5.23599e-07 
92 1 0.0172615 0.0240226 0.0131262 -0.00384722 -0.0050602 -0.00811409 1.01648e-07 -1.83512e-07 -4.95192e-06 0.0005 5.23599e-07 
96 1 0.0248099 0.0203721 0.0165832 -0.00667416 0.00510234 0.00198546 -2.03767e-07 -4.74152e-06 -5.42095e-06 0.0005 5.23599e-07 
97 1 0.017845 0.0243201 0.0139028 -0.0180596 0.071122 -7.42686e-05 0 0 -5.1365e-06 0.0005 5.23599e-07 
98 1 0.017992 0.0148113 0.0128756 9.41123e-06 0.00290732 -0.00160108 1.10297e-06 -3.26538e-06 1.53875e-06 0.0005 5.23599e-07 
100 1 0.0235464 0.0156905 0.026677 -0.110758 -0.0272656 -0.442689 0 0 -5.1365e-06 0.0005 5.23599e-07 
104 1 0.021452 0.0198054 0.0158881 0.0108836 0.0125252 0.000968276 -8.53601e-06 4.25749e-05 4.69709e-05 0.0005 5.23599e-07 
105 1 0.0215022 0.0142481 0.013705 0.000192097 0.00114161 -0.00247405 -5.61788e-06 2.37975e-06 6.73461e-06 0.0005 5.23599e-07 
106 1 0.020252 0.0239712 0.0127038 0.0115693 0.00533744 -0.0117596 4.543e-05 1.26503e-05 -2.88255e-05 0.0005 5.23599e-07 
108 1 0.0173558 0.0234674 0.0153208 -0.0423967 0.0521286 -0.0273063 0 0 -5.1365e-06 0.0005 5.23599e-07 
110 1 0.0245945 0.0159308 0.0157265 0.00934512 0.00590155 0.0106982 -9.49707e-07 -5.66736e-07 7.47354e-08 0.0005 5.23599e-07 
111 1 0.0198416 0.0144172 0.0139754 -0.00693725 0.0374432 0.0603078 0 0 -5.1365e-06 0.0005 5.23599e-07 
112 1 0.0159397 0.0144386 0.014128 0.0239647 -0.0108445 -0.00541315 0 0 -5.1365e-06 0.0005 5.23599e-07 
114 1 0.0225281 0.0216348 0.0160671 -0.00381377 0.00409882 0.0053309 0 0 -5.1365e-06 0.0005 5.23599e-07 
115 1 0.0239455 0.0155175 0.015084 0.0067756 0.00761332 0.00276085 -1.87755e-06 1.44944e-07 -3.34872e-06 0.0005 5.23599e-07 
119 1 0.0256451 0.0243362 0.0110157 0.0341222 0.0776029 -0.102959 0 0 -5.1365e-06 0.0005 5.23599e-07 
125 1 0.0258893 0.0191314 0.0167762 -0.00363324 0.00257266 -0.00350741 0 0 -5.1365e-06 0.0005 5.23599e-07 
126 1 0.0233408 0.0158388 0.0158128 0.00854916 0.00756631 0.00549034 9.51223e-08 -2.29224e-06 -1.30602e-06 0.0005 5.23599e-07 
128 1 0.0210179 0.0241057 0.0134506 -0.00101364 -0.00203439 0.000959751 -1.14647e-05 -6.40651e-05 6.16843e-06 0.0005 5.23599e-07 
131 1 0.0207876 0.0232068 0.0130767 -0.000836926 -0.00117791 0.00718426 5.77842e-06 -6.16149e-06 1.47851e-05 0.0005 5.23599e-07 
133 1 0.025775 0.020121 0.01666 -0.00490152 0.00470785 -0.00966106 -1.18789e-06 -4.38346e-07 -3.66299e-06 0.0005 5.23599e-07 
135 1 0.0230826 0.0210541 0.0154666 0.00251645 0.0386285 -0.0177433 9.92259e-07 2.33401e-06 -5.3788e-06 0.0005 5.23599e-07 
136 1 0.0164826 0.0236963 0.0136691 -0.00245176 -0.0080232 0.00228284 0 0 -5.1365e-06 0.0005 5.23599e-07 
143 1 0.0196822 0.0139928 0.0130029 -0.00839974 -0.00853921 0.0205498 0 0 -5.1365e-06 0.0005 5.23599e-07 
144 1 0.0231976 0.0161591 0.0148765 0.00964932 0.00787745 0.00484766 -2.16725e-06 -1.8099e-06 -9.50505e-08 0.0005 5.23599e-07 
149 1 0.0206133 0.0232759 0.0140599 0.00833791 0.011416 -0.01409 0 0 -5.1365e-06 0.0005 5.23599e-07 
152 1 0.0222123 0.0206078 0.0156746 0.00936799 0.0295314 -0.00894546 -3.28297e-06 4.17534e-06 6.49983e-07 0.0005 5.23599e-07 
158 1 0.0250815 0.0166993 0.0161966 0.00241132 0.015328 0.00631534 -8.02237e-08 -1.32668e-07 2.34414e-07 0.0005 5.23599e-07 
159 1 0.0209821 0.0238355 0.0223015 -0.045822 -0.174418 -0.398445 0 0 -5.1365e-06 0.0005 5.23599e-07 
165 1 0.0187931 0.0231471 0.0148266 -0.00243078 0.0525397 -0.0102078 -2.31703e-06 -0.000105874 4.59031e-05 0.0005 5.23599e-07 
167 1 0.0186472 0.0236787 0.0139935 -0.00813065 0.021981 -0.0239421 -2.3195e-06 7.68606e-05 -2.58498e-05 0.0005 5.23599e-07 
168 1 0.023345 0.0152913 0.0143171 0.00654865 0.00675004 0.00252005 -5.05301e-07 1.09388e-07 -3.32369e-06 0.0005 5.23599e-07 
171 1 0.023903 0.0198892 0.0166854 -0.00428409 -0.00854 0.00685817 5.16419e-08 3.69955e-06 -7.06939e-07 0.0005 5.23599e-07 
172 1 0.0228726 0.0235292 0.0144977 -0.001418 -0.00187715 -0.00836367 -3.06096e-06 -2.50309e-06 -9.67873e-07 0.0005 5.23599e-07 
175 1 0.0237228 0.0217552 0.0160288 0.00477316 -0.0128146 -0.00498424 2.5363e-07 6.63105e-06 -4.13093e-06 0.0005 5.23599e-07 
176 1 0.021228 0.0207727 0.0156001 0.00667532 0.0213454 -0.00625222 0 0 -5.1365e-06 0.0005 5.23599e-07 
177 1 0.021839 0.0233033 0.0128078 -0.00110579 -0.00121098 -0.00352394 9.44352e-08 2.89019e-06 -5.46789e-06 0.0005 5.23599e-07 
178 1 0.0225367 0.0226467 0.014168 0.00459749 -0.00395251 -0.00959695 1.10434e-07 -1.73432e-07 -4.77704e-06 0.0005 5.23599e-07 
182 1 0.0158595 0.0232665 0.0144029 -0.00204996 0.00281688 -0.00373321 2.44983e-07 -2.21794e-06 5.73632e-07 0.0005 5.23599e-07 
184 1 0.0172514 0.014071 0.0137462 0.0448884 -0.0469206 -0.112542 0 0 -5.1365e-06 0.0005 5.23599e-07 
185 1 0.00914258 0.0176186 0.00836095 -0.00254603 0.00319184 -0.00399427 -1.99625e-07 2.71433e-07 -3.99017e-07 0.0005 5.23599e-07 
186 1 0.0247846 0.01937 0.0167237 0.00486004 0.000756726 0.00234212 -4.29539e-07 3.25263e-06 9.10957e-08 0.0005 5.23599e-07 
187 1 0.0454518 0.0183679 0.0509937 0.248861 0.105265 -0.241727 0 0 -5.1365e-06 0.0005 5.23599e-07 
190 1 0.0253211 0.0181232 0.0166803 0.000317678 0.0483934 0.00922559 -7.7591e-08 9.36774e-07 -1.73285e-08 0.0005 5.23599e-07 
