ITEM: TIMESTEP
340000
ITEM: NUMBER OF ATOMS
105
ITEM: BOX BOUNDS ff ff ff
-0.02 0.43
-0.02 0.06
-0.02 0.07
ITEM: ATOMS id type x y z vx vy vz fx fy fz radius mass 
1 1 0.023797 0.0167759 0.0153148 0.001686 -3.86133e-05 -0.000799818 -5.22907e-08 -6.66518e-07 -3.91571e-08 0.0005 5.23599e-07 
2 1 0.0198241 0.0240719 0.0143948 0.0174049 0.00638002 -0.0140872 1.44351e-06 2.12041e-05 -7.93299e-07 0.0005 5.23599e-07 
3 1 0.0211031 0.0234315 0.0121003 -0.0333467 -0.050225 -0.0904171 -0.00904678 0.00185203 0.00470888 0.0005 5.23599e-07 
5 1 0.0218098 0.0181594 0.015857 0.00820475 0.0119533 0.00451207 -7.221e-07 2.30739e-06 2.34519e-06 0.0005 5.23599e-07 
6 1 0.019735 0.0243559 0.0134399 0.006027 0.00530239 -0.0159065 0 0 -5.1365e-06 0.0005 5.23599e-07 
7 1 0.0215582 0.0239288 0.0135128 -0.0668221 -0.0989652 -0.0484638 -0.000916152 -0.0162236 -0.0172008 0.0005 5.23599e-07 
9 1 0.0148111 0.0141342 0.0160741 7.66358e-21 -1.17022e-19 2.0377e-20 0 0 0 0.0005 5.23599e-07 
10 1 0.0222753 0.0144455 0.0141836 -0.00796909 0.00105495 -0.0100478 -1.96078e-06 1.03757e-07 -1.65354e-06 0.0005 5.23599e-07 
12 1 0.0204197 0.0145206 0.0141597 -0.00579121 0.00179853 0.00486916 1.73892e-08 -1.57913e-05 1.7503e-05 0.0005 5.23599e-07 
13 1 0.0250751 0.0214689 0.0161798 0.00708644 -0.00391637 0.00746322 0 0 -5.1365e-06 0.0005 5.23599e-07 
14 1 0.0220825 0.0214966 0.0153031 0.0236052 -0.0214597 0.0100984 1.98472e-06 1.32319e-05 -6.27246e-06 0.0005 5.23599e-07 
17 1 0.0233831 0.0189295 0.0159519 0.0805958 -0.0580183 0.00155675 0 0 -5.1365e-06 0.0005 5.23599e-07 
18 1 0.0174421 0.0240292 0.0130949 -0.000379407 0.000746112 4.13893e-06 1.79253e-06 -4.20033e-07 -5.52228e-08 0.0005 5.23599e-07 
21 1 0.0157139 0.0224423 0.0143718 0.00691868 0.00191648 -0.00304725 -6.63679e-06 -1.53416e-06 -7.52652e-07 0.0005 5.23599e-07 
23 1 0.0180146 0.0140251 0.0138038 -0.00202811 -0.028018 -0.0197871 2.67699e-06 -4.62673e-06 1.28207e-05 0.0005 5.23599e-07 
25 1 0.0230115 0.0173718 0.015615 0.0147559 0.00956434 0.00537675 -5.81856e-07 1.19463e-09 9.29292e-07 0.0005 5.23599e-07 
26 1 0.019015 0.0237571 0.013872 0.00557642 0.00259643 0.00440854 -5.66781e-06 -3.30167e-05 6.5808e-05 0.0005 5.23599e-07 
29 1 0.0165901 0.0237544 0.0135407 -0.00119349 -0.00437723 -0.00605848 6.09544e-07 -5.34075e-07 -4.28587e-06 0.0005 5.23599e-07 
35 1 0.016669 0.0222506 0.0146013 0.0193579 0.0219221 -0.0272699 0 0 -5.1365e-06 0.0005 5.23599e-07 
36 1 0.018875 0.0227231 0.0153868 0.0255888 -0.0266411 -0.0284481 -1.0167e-06 3.39469e-08 -2.90995e-06 0.0005 5.23599e-07 
38 1 0.0226576 0.0150908 0.0135225 0.0112147 0.0022886 0.00186085 -3.32168e-07 -1.35093e-06 -2.66053e-06 0.0005 5.23599e-07 
39 1 0.0179961 0.0155148 0.0144623 0.028929 0.0258717 -0.0291122 0 0 -5.1365e-06 0.0005 5.23599e-07 
40 1 0.0207332 0.0183521 0.016946 -0.00708421 0.037036 0.056183 0 0 -5.1365e-06 0.0005 5.23599e-07 
42 1 0.0147812 0.0226813 0.0140927 0.00664475 0.00364342 -0.00191549 0 0 -5.1365e-06 0.0005 5.23599e-07 
44 1 0.019227 0.0155251 0.0169587 0.0437584 -0.295034 -0.152023 0 0 -5.1365e-06 0.0005 5.23599e-07 
45 1 0.0180367 0.0221847 0.0157182 0.0638483 -0.0153099 0.00870901 0 0 -5.1365e-06 0.0005 5.23599e-07 
48 1 0.0244036 0.0222323 0.0156916 0.0444302 -0.0360027 0.0373184 0 0 -5.1365e-06 0.0005 5.23599e-07 
49 1 0.0201927 0.0154583 0.0163336 -0.0195238 -0.0474086 0.118292 0 0 -5.1365e-06 0.0005 5.23599e-07 
52 1 0.0183357 0.0233105 0.0145821 0.00610184 0.000178869 -0.0121112 8.60793e-07 -4.42911e-07 -2.78119e-06 0.0005 5.23599e-07 
53 1 0.0209421 0.0221295 0.0147607 0.0646065 0.0232805 0.0203918 3.40595e-06 1.29858e-05 -9.19535e-06 0.0005 5.23599e-07 
54 1 0.0175903 0.015138 0.0136179 0.0166065 -0.00364646 -0.00820333 0 0 -5.1365e-06 0.0005 5.23599e-07 
57 1 0.0158662 0.0235914 0.0142996 0.00364326 0.00199672 7.3229e-05 -6.85077e-07 -1.66869e-07 -5.28298e-06 0.0005 5.23599e-07 
60 1 0.0210951 0.0213883 0.0154138 0.0118839 -0.00658648 -0.000954798 -2.39682e-06 -1.51856e-06 -4.23612e-06 0.0005 5.23599e-07 
62 1 0.020894 0.0242026 0.0141577 0.0613128 -0.0501524 0.0233277 0.0159676 0.00972273 0.00550221 0.0005 5.23599e-07 
63 1 0.0233559 0.0154701 0.0141302 0.00581736 0.0042548 0.00565182 -5.70541e-06 5.40716e-07 -2.62119e-06 0.0005 5.23599e-07 
64 1 0.0237592 0.0215747 0.0161259 0.164953 -0.190394 0.0690875 0 0 -5.1365e-06 0.0005 5.23599e-07 
65 1 0.0198404 0.0148279 0.015003 -0.0406417 -0.0256056 -0.000984746 0 0 -5.1365e-06 0.0005 5.23599e-07 
66 1 0.0167952 0.0232569 0.0144577 -4.35866e-05 -0.0136922 -0.00868982 -4.69203e-06 1.05006e-06 -4.37895e-07 0.0005 5.23599e-07 
67 1 0.0230418 0.0212312 0.0153973 0.0142328 -0.0267654 0.0143555 1.31404e-05 -1.30124e-05 -5.71524e-06 0.0005 5.23599e-07 
68 1 0.0203498 0.0233674 0.0126922 -0.0180464 -0.287167 0.124472 -0.0191305 0.0340811 -0.0234499 0.0005 5.23599e-07 
69 1 0.0174992 0.0237029 0.0150159 0.0169837 0.00098401 -0.0247581 8.49138e-10 8.87719e-08 -5.10583e-06 0.0005 5.23599e-07 
70 1 0.0227695 0.0164371 0.0151086 -0.00281044 0.0193838 0.0173621 0 0 -5.1365e-06 0.0005 5.23599e-07 
74 1 0.0223911 0.0229952 0.0159077 0.15001 -0.13581 0.300288 0 0 -5.1365e-06 0.0005 5.23599e-07 
75 1 0.0210999 0.0246496 0.0154267 -0.0317771 0.0199219 0.0010013 0 0 -5.1365e-06 0.0005 5.23599e-07 
76 1 0.0143142 0.0229403 0.0151659 0.089228 0.0593419 0.0749433 0 0 -5.1365e-06 0.0005 5.23599e-07 
79 1 0.0182236 0.0243439 0.0136404 -0.000799879 5.61253e-05 -8.60906e-05 -3.43932e-07 -2.64883e-06 -5.58269e-06 0.0005 5.23599e-07 
80 1 0.0166116 0.015353 0.0140168 0.0116911 0.022176 0.0257534 0 0 -5.1365e-06 0.0005 5.23599e-07 
81 1 0.0224281 0.015693 0.0144331 0.00889869 0.0127814 0.00719839 0 0 -5.1365e-06 0.0005 5.23599e-07 
82 1 0.0175256 0.014623 0.0119384 0.000897901 -0.00014599 -0.000971456 0 0 -5.1365e-06 0.0005 5.23599e-07 
84 1 0.0204314 0.0236135 0.0136022 0.169567 0.0497121 0.0511861 0.0226085 0.00689583 0.00317132 0.0005 5.23599e-07 
85 1 0.0222886 0.0205953 0.0156933 0.0212435 -0.026709 0.0234576 0 0 -5.1365e-06 0.0005 5.23599e-07 
86 1 0.0175246 0.0142992 0.0129768 0.000274435 0.00672724 -0.0099835 -1.37371e-05 -3.89234e-07 -2.09488e-05 0.0005 5.23599e-07 
87 1 0.0215718 0.0193046 0.0159356 0.00358199 0.0396575 -0.0129853 6.62803e-06 -1.61299e-05 6.41401e-05 0.0005 5.23599e-07 
88 1 0.0206471 0.0227364 0.0139416 -0.0532307 0.00187951 -0.0228175 -0.00943145 -0.00573597 0.0010795 0.0005 5.23599e-07 
89 1 0.0173112 0.0227442 0.0152287 0.0209069 0.000478225 0.00325362 -8.49138e-10 -8.87719e-08 -5.16717e-06 0.0005 5.23599e-07 
90 1 0.0220521 0.0170341 0.015471 0.00603984 0.0317828 0.0148607 1.62232e-06 1.0354e-06 -4.32448e-06 0.0005 5.23599e-07 
91 1 0.0155641 0.0229973 0.0135539 0.00352992 0.000631345 -0.00266515 4.03531e-06 -4.48233e-06 4.69264e-06 0.0005 5.23599e-07 
92 1 0.0157999 0.0230662 0.0151483 0.00560169 -0.003086 2.61469e-05 5.88089e-06 7.20013e-06 -2.19751e-07 0.0005 5.23599e-07 
95 1 0.0176526 0.0169964 0.01658 0.0286783 -0.0270131 -0.128486 0 0 -5.1365e-06 0.0005 5.23599e-07 
96 1 0.0136435 0.0190696 0.020586 0.181338 0.0258919 -0.135171 0 0 -5.1365e-06 0.0005 5.23599e-07 
97 1 0.0189684 0.0143199 0.01375 -0.0111878 0.00402314 -0.00750246 1.7914e-06 -4.019e-06 7.29723e-07 0.0005 5.23599e-07 
98 1 0.017593 0.0236642 0.0140135 -0.00118963 -0.000966291 -0.00039068 -1.79867e-06 -5.88391e-07 -1.96354e-06 0.0005 5.23599e-07 
100 1 0.0205884 0.0125476 0.0244362 0.021921 0.320325 -0.0207761 0 0 -5.1365e-06 0.0005 5.23599e-07 
103 1 0.0275542 0.0208111 0.0154441 -1.08077 1.85852 1.28522 -0.062018 0.0411141 -0.10451 0.0005 5.23599e-07 
104 1 0.0184897 0.0140869 0.012826 -0.000140252 0.00481881 -0.00776954 1.31796e-05 -4.56334e-06 3.40858e-06 0.0005 5.23599e-07 
105 1 0.0231428 0.0222673 0.0157298 0.141486 -0.196408 0.0573517 4.96392e-06 7.032e-05 7.09359e-05 0.0005 5.23599e-07 
106 1 0.0198578 0.0137584 0.0138296 -0.000373819 0.000310931 -0.000874569 -7.37259e-07 -2.91532e-06 -7.21049e-06 0.0005 5.23599e-07 
108 1 0.016745 0.0149051 0.0131323 0.004179 0.00912403 0.0270227 -8.9778e-06 3.11991e-05 1.08736e-05 0.0005 5.23599e-07 
110 1 0.0230333 0.0156431 0.0156564 -0.0152349 -0.00914988 -0.0150646 0 0 -5.1365e-06 0.0005 5.23599e-07 
111 1 0.0226886 0.0235196 0.0141704 0.0760137 -0.0593548 0.12378 -0.0016487 -0.00587989 0.00295908 0.0005 5.23599e-07 
112 1 0.0221213 0.0225902 0.0168863 0.0772566 -0.190527 0.282364 0 0 -5.1365e-06 0.0005 5.23599e-07 
114 1 0.0235949 0.0229058 0.0149949 0.000371977 -0.00253856 0.00355507 -2.79123e-06 -8.78723e-06 1.26466e-05 0.0005 5.23599e-07 
115 1 0.022927 0.014866 0.0148146 -0.00451976 0.00173576 -0.0139334 -1.84887e-07 -2.56217e-06 1.98214e-06 0.0005 5.23599e-07 
119 1 0.0256136 0.02067 0.0165112 -0.000475789 -0.0357398 -0.0146372 0 0 -5.1365e-06 0.0005 5.23599e-07 
125 1 0.0201597 0.0234782 0.01176 -0.100288 -0.0549152 0.182853 0.00086367 -0.0241204 0.0157056 0.0005 5.23599e-07 
126 1 0.0237913 0.0151498 0.0152294 -0.00511991 -0.00225463 -0.00844354 2.33858e-06 3.52084e-06 -3.67876e-06 0.0005 5.23599e-07 
128 1 0.0165897 0.0160569 0.0147833 0.00396664 0.0173616 0.0149497 0 0 -5.1365e-06 0.0005 5.23599e-07 
131 1 0.0148043 0.0143437 0.0306609 0.217563 0.1734 -0.0843896 0 0 -5.1365e-06 0.0005 5.23599e-07 
133 1 0.0221855 0.0232098 0.0130628 -0.00702311 0.0040155 0.00551107 5.08757e-06 8.9807e-05 -1.52456e-05 0.0005 5.23599e-07 
135 1 0.0203961 0.0233503 0.0149667 0.0409289 -0.0331667 -0.0355354 0 0 -5.1365e-06 0.0005 5.23599e-07 
136 1 0.0228137 0.0220474 0.0148128 0.0665166 -0.142593 0.0545642 -4.96392e-06 -7.032e-05 -8.12089e-05 0.0005 5.23599e-07 
137 1 0.0283836 0.0212122 0.0152931 -3.43163 1.17998 -7.76279 0.476428 -0.687473 -0.238758 0.0005 5.23599e-07 
143 1 0.0232396 0.0214257 0.025917 0.197704 0.0545713 -0.171933 0 0 -5.1365e-06 0.0005 5.23599e-07 
144 1 0.0243421 0.0208069 0.0164857 0.175679 -0.191395 0.10826 0 0 -5.1365e-06 0.0005 5.23599e-07 
148 1 0.0223736 0.0217039 0.0162632 -0.000392623 -0.132647 0.0530822 0 0 -5.1365e-06 0.0005 5.23599e-07 
149 1 0.0213653 0.0224841 0.0157711 -0.167822 0.0466634 0.340283 0 0 -5.1365e-06 0.0005 5.23599e-07 
152 1 0.0211768 0.0231654 0.0131093 0.00945279 -0.0180942 -0.236714 0.00243771 -0.00857134 0.00911978 0.0005 5.23599e-07 
154 1 0.0205663 0.014072 0.013155 -0.0017786 -0.000441846 -0.00089849 -5.415e-07 3.26687e-06 -1.22821e-06 0.0005 5.23599e-07 
158 1 0.0244296 0.0158313 0.0156028 0.00335117 -0.00819786 0.012842 0 0 -5.1365e-06 0.0005 5.23599e-07 
159 1 0.0194793 0.0140125 0.0129475 -0.00168919 0.0013248 -0.00140592 -2.0584e-06 9.63402e-07 -3.80166e-06 0.0005 5.23599e-07 
165 1 0.0219129 0.0240574 0.0143978 -0.0214239 -0.0712021 0.0631319 0.00451689 0.00319996 -0.00306313 0.0005 5.23599e-07 
167 1 0.0226416 0.0196317 0.0159404 0.0159162 -0.0902536 0.0281368 0 0 -5.1365e-06 0.0005 5.23599e-07 
168 1 0.0214213 0.0142247 0.0136515 -0.00622221 0.00366037 -0.00698424 -1.77985e-06 8.26596e-06 2.94684e-06 0.0005 5.23599e-07 
171 1 0.0213063 0.0204199 0.0157783 0.0300105 -0.0521874 0.028681 0 0 -5.1365e-06 0.0005 5.23599e-07 
172 1 0.0166943 0.0232852 0.0158253 0.0066967 -0.0229883 0.0244363 0 0 -5.1365e-06 0.0005 5.23599e-07 
175 1 0.0229897 0.0236273 0.0151457 0.00234958 0.00116536 -0.00204833 3.21963e-05 3.78424e-05 -5.30743e-05 0.0005 5.23599e-07 
176 1 0.0168423 0.0141177 0.0137402 0.0118538 -0.00315723 -0.000331631 2.18693e-05 -2.19425e-05 2.10995e-05 0.0005 5.23599e-07 
177 1 0.0193398 0.0232419 0.0146694 0.0171245 0.00601072 -0.00902483 -1.77327e-05 5.22655e-05 3.78272e-06 0.0005 5.23599e-07 
178 1 0.0189006 0.0241066 0.0129432 0.000312502 0.00204168 -0.0026352 6.35372e-06 1.32787e-05 7.11048e-05 0.0005 5.23599e-07 
182 1 0.0187494 0.0145439 0.016803 -0.0283408 0.0408719 -0.0603168 0 0 -5.1365e-06 0.0005 5.23599e-07 
184 1 0.0213409 0.0233017 0.0142746 -0.0319952 -0.0401133 -0.0776872 0.00314229 -0.0037769 0.00226074 0.0005 5.23599e-07 
185 1 0.0106054 0.0178481 0.00825978 -0.000581943 0.00519311 -0.000768381 0 0 -5.1365e-06 0.0005 5.23599e-07 
186 1 0.0214133 0.0147658 0.0145764 -0.00551912 0.00889761 -0.0112676 -3.59858e-07 -3.92817e-08 -4.72615e-06 0.0005 5.23599e-07 
187 1 0.0223366 0.0226191 0.0141446 -0.0242705 -0.126789 0.132577 -0.00113544 0.0058928 0.000375706 0.0005 5.23599e-07 
190 1 0.02401 0.0159711 0.0147017 -0.00330295 0.0105777 0.00561129 1.72237e-07 -1.50349e-06 2.1542e-08 0.0005 5.23599e-07 
