ITEM: TIMESTEP
80000
ITEM: NUMBER OF ATOMS
181
ITEM: BOX BOUNDS ff ff ff
-0.02 0.43
-0.02 0.06
-0.02 0.07
ITEM: ATOMS id type x y z vx vy vz fx fy fz radius mass 
1 1 0.0209727 0.0165988 0.0152082 0.0133008 -0.00309164 -0.00385329 9.31958e-08 -6.56553e-07 1.95381e-07 0.0005 5.23599e-07 
2 1 0.0188673 0.022289 0.015685 0.00279442 0.0101354 -0.00791684 3.07017e-06 -1.33093e-05 3.39954e-08 0.0005 5.23599e-07 
3 1 0.0208745 0.023461 0.0118795 -0.044877 0.0399882 0.0323473 0.0027684 0.0310554 -0.00381424 0.0005 5.23599e-07 
4 1 0.0141419 0.0203005 0.0157809 0.00324579 0.037059 -0.0096494 5.97517e-06 -3.76152e-06 -5.5991e-06 0.0005 5.23599e-07 
5 1 0.0159828 0.0144263 0.014074 -0.000123857 0.00120804 -0.00275196 1.02014e-06 5.63989e-06 7.88628e-06 0.0005 5.23599e-07 
6 1 0.0212408 0.0156337 0.0143508 0.00547071 0.0078329 0.0145572 -1.05152e-05 -3.45164e-06 -2.6737e-06 0.0005 5.23599e-07 
7 1 0.0191033 0.0231253 0.0161787 0.00519841 0.00337708 0.00155559 -6.59818e-07 9.68535e-06 -1.28566e-05 0.0005 5.23599e-07 
8 1 0.0230079 0.02171 0.016038 0.0058545 -0.00565003 -0.00416569 2.72315e-05 1.89297e-05 -3.38961e-07 0.0005 5.23599e-07 
9 1 0.0270563 0.02067 0.0155218 0.975643 -0.355235 -0.95367 -0.0403143 0.0272245 -0.0886642 0.0005 5.23599e-07 
10 1 0.021757 0.0143795 0.0137539 -0.00205195 0.00846572 -0.0166299 0 0 -5.1365e-06 0.0005 5.23599e-07 
11 1 0.0217522 0.0213383 0.0170846 0.00476963 0.00118802 0.0109215 0 0 -5.1365e-06 0.0005 5.23599e-07 
12 1 0.0159552 0.0235873 0.0141504 -0.000769813 -0.00478996 0.000813632 -1.01383e-05 2.16267e-05 3.79371e-06 0.0005 5.23599e-07 
13 1 0.0193523 0.0143426 0.0138514 -0.00328441 0.00288236 -0.00465354 4.0014e-07 6.20868e-06 1.49356e-06 0.0005 5.23599e-07 
14 1 0.0177593 0.0240604 0.0130912 0.000759725 -0.000452044 -0.000861998 1.81244e-06 -3.04018e-07 -2.14244e-06 0.0005 5.23599e-07 
15 1 0.0226177 0.0208614 0.0164106 0.0141889 0.00791826 -0.00270552 5.68039e-05 4.63467e-05 3.16134e-05 0.0005 5.23599e-07 
16 1 0.0198726 0.0241935 0.0131154 0.0447863 0.00511982 -0.0251596 -4.82745e-06 -0.000437067 -0.000600189 0.0005 5.23599e-07 
17 1 0.0220156 0.0204379 0.015723 0.0124928 -0.00933579 0.00821978 1.72978e-05 -3.86712e-05 2.88676e-05 0.0005 5.23599e-07 
18 1 0.0166676 0.0149515 0.0145786 0.00124735 0.00242948 -0.00580129 7.71449e-06 5.06658e-08 -9.1201e-07 0.0005 5.23599e-07 
19 1 0.0159339 0.0149541 0.0132261 -0.00227508 0.00177076 -0.00299017 -4.31885e-06 4.77582e-06 9.17801e-06 0.0005 5.23599e-07 
20 1 0.0253895 0.0210851 0.0164073 -0.00778542 -0.00637234 0.0033549 0 0 -5.1365e-06 0.0005 5.23599e-07 
21 1 0.0183268 0.0155637 0.015417 0.00826083 0.00605726 -0.028212 0 0 -5.1365e-06 0.0005 5.23599e-07 
22 1 0.0218633 0.0161839 0.0149122 0.01333 0.00543671 0.0128044 0 0 -5.1365e-06 0.0005 5.23599e-07 
23 1 0.0215284 0.0224583 0.0159205 0.00867495 -0.00610515 0.0063153 3.37304e-05 -5.41812e-05 3.66121e-05 0.0005 5.23599e-07 
24 1 0.0226877 0.014647 0.0142431 -0.00237938 -0.00196178 0.00181172 -1.68851e-07 -1.67458e-06 -5.09327e-06 0.0005 5.23599e-07 
25 1 0.016191 0.020959 0.0194261 -0.0311634 0.0845589 0.262117 0 0 -5.1365e-06 0.0005 5.23599e-07 
26 1 0.023597 0.0206822 0.0165066 0.00142631 -0.00508 0.00370811 0 0 -5.1365e-06 0.0005 5.23599e-07 
27 1 0.0203523 0.0233366 0.012678 -0.0419842 0.0159572 0.0301912 0.00468868 -0.0189019 -0.00343531 0.0005 5.23599e-07 
28 1 0.0198678 0.0233915 0.0167656 0.0081099 -0.00169038 0.0021689 -3.42599e-07 -1.78978e-06 -5.06303e-06 0.0005 5.23599e-07 
29 1 0.0189513 0.0243724 0.0135277 0.00282326 -0.000920383 0.00158618 0 0 -5.1365e-06 0.0005 5.23599e-07 
30 1 0.0242322 0.0223914 0.0155777 -0.012447 0.000432951 -0.00650563 0 0 -5.1365e-06 0.0005 5.23599e-07 
31 1 0.022434 0.0149903 0.0133379 0.0152141 0.0069102 0.00474021 -1.60291e-06 1.22854e-06 -3.84329e-06 0.0005 5.23599e-07 
32 1 0.020911 0.0140797 0.013309 -0.00178467 0.000749398 -0.00398777 1.00287e-06 -1.31661e-06 2.91569e-07 0.0005 5.23599e-07 
33 1 0.0232764 0.0226798 0.0159349 0.0170799 -0.00787282 0.00484533 -3.09451e-05 5.78721e-05 -1.30331e-05 0.0005 5.23599e-07 
34 1 0.0200049 0.0156959 0.0155564 -0.00524583 -0.00455956 0.0161131 0 0 -5.1365e-06 0.0005 5.23599e-07 
35 1 0.0202119 0.014576 0.0143056 -0.00129829 0.0010742 -0.0108773 -1.72208e-06 1.67793e-06 4.29233e-06 0.0005 5.23599e-07 
36 1 0.0214741 0.0194389 0.0167699 0.012398 0.0010018 -0.00419306 0 0 -5.1365e-06 0.0005 5.23599e-07 
37 1 0.0181259 0.0148706 0.0146837 -0.00448701 0.00217555 0.000768717 -3.75482e-07 2.55502e-06 6.16334e-06 0.0005 5.23599e-07 
38 1 0.0228768 0.0198063 0.0166891 0.0366425 0.0152563 -0.00405464 0 0 -5.1365e-06 0.0005 5.23599e-07 
39 1 0.0220249 0.0202724 0.0169575 0.0109996 -0.0011928 0.00113833 -5.98114e-05 -7.09327e-05 5.23114e-05 0.0005 5.23599e-07 
40 1 0.0234362 0.0150096 0.0148076 0.00364329 0.00653194 -0.0087188 -6.10051e-06 -2.12332e-06 -7.55798e-06 0.0005 5.23599e-07 
41 1 0.0206433 0.0180031 0.015818 0.0157575 -0.00798212 -0.00208788 0 0 -5.1365e-06 0.0005 5.23599e-07 
42 1 0.016705 0.0143236 0.0133104 -0.000457893 0.00397506 -0.0102934 9.42169e-06 -5.12247e-06 1.292e-05 0.0005 5.23599e-07 
44 1 0.0194737 0.0226798 0.0140629 0.0403132 0.0067081 0.0119225 0.000867435 -0.0018413 -0.00146636 0.0005 5.23599e-07 
45 1 0.0178913 0.0233516 0.0145602 0.00103491 -0.0110255 0.00513613 -1.40656e-05 -0.000306423 2.53532e-05 0.0005 5.23599e-07 
46 1 0.0199099 0.0234835 0.01181 -0.0160269 0.030571 0.00804704 -2.15238e-05 -0.0273708 0.00665067 0.0005 5.23599e-07 
47 1 0.0423627 -0.0143709 0.0273401 0.176786 -0.148333 -0.85418 0 0 -5.1365e-06 0.0005 5.23599e-07 
48 1 0.019898 0.0213038 0.0153581 0.00674762 -0.0117056 0.00588353 -5.24374e-06 8.0145e-05 -5.96135e-05 0.0005 5.23599e-07 
49 1 0.025816 0.0194027 0.0168906 -0.00433863 0.065319 0.0366795 0 0 -5.1365e-06 0.0005 5.23599e-07 
52 1 0.0139446 0.022099 0.0147331 0.00100926 0.000847441 0.00054298 4.79213e-06 4.70214e-06 -3.24323e-06 0.0005 5.23599e-07 
53 1 0.0187342 0.0230195 0.0149849 0.015569 0.00945034 -0.00523059 -3.83238e-07 1.96353e-06 -4.7014e-06 0.0005 5.23599e-07 
54 1 0.0196484 0.0140077 0.0129573 0.00105702 0.00160369 -0.00251696 -4.52729e-06 1.34963e-06 4.97125e-06 0.0005 5.23599e-07 
55 1 0.0241358 0.0186543 0.0167527 -0.00104588 0.0554282 0.00397886 2.86031e-07 9.89423e-07 -3.41904e-07 0.0005 5.23599e-07 
56 1 0.0181097 0.0229941 0.0162231 0.00185905 0.00017791 0.00592075 1.49266e-05 3.36142e-06 1.22452e-05 0.0005 5.23599e-07 
57 1 0.0201182 0.0137028 0.0137878 -0.00483333 0.00196151 -0.00774316 -1.34222e-06 -7.155e-07 -1.46196e-06 0.0005 5.23599e-07 
58 1 0.0191829 0.0151631 0.0150662 -0.0116783 0.00377558 -0.0251671 0 0 -5.1365e-06 0.0005 5.23599e-07 
59 1 0.0193516 0.0205851 0.0165601 0.0031449 -0.00157416 0.00229346 -7.02737e-08 7.24788e-06 -7.94567e-06 0.0005 5.23599e-07 
60 1 0.0229365 0.0160172 0.0147622 0.0120365 0.00718192 -0.00178933 5.11098e-06 -4.06116e-07 -6.03344e-08 0.0005 5.23599e-07 
61 1 0.0226952 0.021153 0.0173639 0.00476822 -0.00368773 0.00330763 1.98791e-06 1.78149e-06 -2.6115e-06 0.0005 5.23599e-07 
62 1 0.0167564 0.0228259 0.0151164 -0.0049881 -0.00650764 0.00676125 0 0 -5.1365e-06 0.0005 5.23599e-07 
63 1 0.022591 0.0152389 0.0152899 -0.0146642 -0.00611221 -0.0347033 -5.40638e-06 5.60572e-06 5.15181e-06 0.0005 5.23599e-07 
64 1 0.02223 0.015536 0.0142436 0.00231871 0.00171724 0.00852213 5.18024e-06 -3.85625e-06 1.12414e-05 0.0005 5.23599e-07 
65 1 0.0176005 0.0241988 0.0140687 0.00529812 -0.000722828 -0.000433329 -1.01998e-06 7.4793e-07 -3.87728e-06 0.0005 5.23599e-07 
66 1 0.0170348 0.0221326 0.0158258 0.0109711 -0.00315983 0.00833577 8.6293e-08 3.80562e-06 3.5008e-06 0.0005 5.23599e-07 
67 1 0.0186485 0.0140011 0.0129684 0.0020256 0.00268475 -0.0036608 2.16027e-06 1.72301e-06 -2.97854e-06 0.0005 5.23599e-07 
68 1 0.0194015 0.0153095 0.0163436 -0.0550668 0.0171429 -0.0298694 0 0 -5.1365e-06 0.0005 5.23599e-07 
69 1 0.0149775 0.0218864 0.0159603 0.0238684 0.0271702 -0.0291295 1.49724e-06 -5.25992e-08 -1.31595e-06 0.0005 5.23599e-07 
70 1 0.0216349 0.014783 0.0127738 0.010465 0.00103406 0.0122931 2.50517e-07 -1.25373e-06 -2.34947e-06 0.0005 5.23599e-07 
71 1 0.0162442 0.0214809 0.0167401 0.00643368 -0.00634536 0.00152034 2.25154e-05 6.40409e-05 6.07588e-05 0.0005 5.23599e-07 
72 1 0.0145827 0.0226863 0.0152304 0.000618498 0.00125096 0.00155616 3.64521e-06 5.12934e-06 -4.4043e-06 0.0005 5.23599e-07 
73 1 0.0156336 0.0213476 0.0153038 0.0137192 0.00991903 -0.00466983 5.88107e-06 -1.23361e-07 -1.68734e-05 0.0005 5.23599e-07 
74 1 0.0160313 0.015709 0.0144339 0.000485284 0.0049485 0.00723125 -3.54648e-06 9.34885e-07 9.68842e-06 0.0005 5.23599e-07 
75 1 0.0254356 0.0182862 0.0167335 -0.00882946 0.0361189 0.0217066 0 0 -5.1365e-06 0.0005 5.23599e-07 
76 1 0.0137921 0.0221401 0.0157205 0.000142657 -0.000143011 0.0013689 1.94955e-06 7.725e-07 -3.55682e-06 0.0005 5.23599e-07 
77 1 0.018907 0.0142489 0.0147416 -0.00643689 -0.00166211 -0.00598755 -3.13491e-07 2.15798e-06 -5.62792e-08 0.0005 5.23599e-07 
78 1 0.0176718 0.0141485 0.0131241 -0.000238026 0.00474692 -0.0137844 -5.18208e-07 3.62885e-07 -4.75631e-06 0.0005 5.23599e-07 
79 1 0.0183524 0.0143508 0.013857 -0.00151913 0.00576993 -0.00616639 1.15753e-05 1.61646e-07 1.57039e-06 0.0005 5.23599e-07 
80 1 0.020103 0.0212086 0.0163444 0.0223182 -0.00859707 0.0147441 2.93089e-08 -6.78048e-06 -1.85878e-06 0.0005 5.23599e-07 
81 1 0.0189503 0.0234707 0.0117656 0.0721293 -0.0068598 -0.010342 -0.00494457 0.00407531 -0.00220989 0.0005 5.23599e-07 
82 1 0.0161411 0.0236465 0.0151284 0.00103004 -0.00205292 0.00262558 -4.09272e-06 -4.73967e-06 3.45398e-07 0.0005 5.23599e-07 
83 1 0.0170939 0.0212317 0.0162555 0.00503992 -0.010222 -0.000982082 1.02802e-07 -1.39256e-07 -4.95927e-06 0.0005 5.23599e-07 
84 1 0.0182129 0.0142794 0.0154852 0.00310186 -0.00153378 -0.000825898 2.76908e-06 1.95984e-06 6.69671e-06 0.0005 5.23599e-07 
85 1 0.0247351 0.0161223 0.0158529 0.0081476 0.00918934 0.00770908 -2.94007e-07 -5.82414e-07 4.75293e-07 0.0005 5.23599e-07 
86 1 0.0197408 0.0221484 0.0161533 0.00253588 -0.0107484 -0.00659752 0 0 -5.1365e-06 0.0005 5.23599e-07 
87 1 0.0205173 0.0149089 0.0171766 -0.0626567 0.0880909 -0.0669868 0 0 -5.1365e-06 0.0005 5.23599e-07 
88 1 0.0213286 0.0207483 0.016397 0.0171012 -0.00409496 0.00645329 -7.11893e-07 -1.09438e-07 -5.39561e-06 0.0005 5.23599e-07 
89 1 0.0248895 0.02194 0.0162604 0.00315496 -0.0044753 0.00261486 -9.01379e-06 -2.86316e-06 -5.29778e-06 0.0005 5.23599e-07 
90 1 0.0235443 0.022959 0.0150144 0.00483462 -0.00561114 0.00107626 6.37863e-05 -3.50818e-05 4.93372e-05 0.0005 5.23599e-07 
91 1 0.0216016 0.0231119 0.0146803 0.0239783 0.0331363 0.00242394 0.000217203 0.000569475 0.000357861 0.0005 5.23599e-07 
92 1 0.0215253 0.0236934 0.0167779 0.00972149 0.000748142 0.0153222 0 0 -5.1365e-06 0.0005 5.23599e-07 
93 1 0.022431 0.0234283 0.0171291 0.0085819 0.0101526 -0.00542232 0 0 -5.1365e-06 0.0005 5.23599e-07 
94 1 0.0224605 0.0234755 0.0152911 0.00208934 0.00226185 0.00945337 -2.51496e-05 0.000286767 -7.39593e-05 0.0005 5.23599e-07 
95 1 0.0164195 0.0226249 0.0166214 0.00343848 0.00582632 0.00707139 -1.41551e-06 -2.8053e-06 -4.7303e-06 0.0005 5.23599e-07 
96 1 0.0220811 0.0239668 0.0145094 -0.0278319 -0.0154909 0.00215469 -0.00115164 -0.00430809 0.000500286 0.0005 5.23599e-07 
97 1 0.0208516 0.024033 0.0131401 -0.0154527 0.00415767 0.00412957 -0.00153432 0.000776592 0.00394854 0.0005 5.23599e-07 
98 1 0.0199298 0.0239938 0.0140976 -0.000869732 -0.0077052 0.0250797 0 0 -5.1365e-06 0.0005 5.23599e-07 
99 1 0.0208255 0.0237377 0.0149859 -0.00115869 -0.00155403 -0.00415569 1.03016e-06 0.000129057 0.000276019 0.0005 5.23599e-07 
100 1 0.02094 0.0241914 0.0141118 -0.00872065 0.0070714 -0.00090218 -2.42571e-05 -0.000492824 0.000103436 0.0005 5.23599e-07 
102 1 0.0222266 0.0231185 0.0161994 0.00718967 0.0108858 -0.00612533 0 0 -5.1365e-06 0.0005 5.23599e-07 
103 1 0.0213715 0.0227096 0.0168755 0.0101756 -0.000477084 0.00398756 -2.49857e-06 1.30953e-06 -2.50499e-06 0.0005 5.23599e-07 
104 1 0.0239858 0.0215301 0.0161404 0.00643067 -0.010863 -0.00474552 2.57461e-06 -5.13506e-06 -1.45358e-06 0.0005 5.23599e-07 
105 1 0.021473 0.0174521 0.0156519 0.00957078 0.00196042 -0.00241862 -7.12298e-07 3.3866e-07 2.67523e-06 0.0005 5.23599e-07 
106 1 0.0229098 0.0234249 0.0143995 0.0155847 0.0181326 0.0194006 -6.73641e-06 0.000634892 7.21717e-05 0.0005 5.23599e-07 
108 1 0.0205267 0.0228507 0.016242 0.00908565 -0.001665 -0.00160292 2.1466e-06 8.60966e-07 5.68372e-06 0.0005 5.23599e-07 
109 1 0.0217302 0.0238382 0.0135897 0.00340311 -0.261052 -0.0229336 0.00832826 -0.000878043 -0.00210154 0.0005 5.23599e-07 
110 1 0.0223222 0.0223203 0.0168134 0.0119763 0.00331644 -0.00874696 0 0 -5.1365e-06 0.0005 5.23599e-07 
111 1 0.0142375 0.0211944 0.0162191 0.0253964 0.0286935 0.00512401 -3.17046e-07 -1.62396e-06 -3.57523e-06 0.0005 5.23599e-07 
112 1 0.0212845 0.0234635 0.0158322 0.0116266 -0.001282 0.00720071 0 0 -5.1365e-06 0.0005 5.23599e-07 
113 1 0.0224302 0.0224907 0.0154443 0.0143568 -0.00685966 0.0060382 -3.64698e-06 -7.06995e-05 -2.85526e-05 0.0005 5.23599e-07 
114 1 0.0200558 0.0238852 0.0156106 0.00553591 -0.00199448 -0.00445157 4.15045e-06 1.17612e-05 4.55653e-06 0.0005 5.23599e-07 
115 1 0.0193549 0.0237995 0.0149026 0.0150408 0.00916444 -0.0164039 0 0 -5.1365e-06 0.0005 5.23599e-07 
116 1 0.0184861 0.0237616 0.0157053 0.00244169 -0.00134802 0.00174744 -2.31175e-06 7.35153e-06 -5.71769e-06 0.0005 5.23599e-07 
117 1 0.0186018 0.0222437 0.0166637 0.0166154 0.0127797 0.00857345 -8.17277e-07 -1.94097e-05 2.27948e-06 0.0005 5.23599e-07 
118 1 0.0226897 0.0218575 0.0190327 -0.08046 0.0578022 -0.0290565 0 0 -5.1365e-06 0.0005 5.23599e-07 
119 1 0.0206157 0.0239769 0.0164531 0.00821276 -0.00459791 -0.00287285 -1.4e-06 4.8588e-07 -3.46375e-06 0.0005 5.23599e-07 
120 1 0.0155266 0.0167485 0.0153082 0.0057988 0.016337 0.00768759 -2.23379e-07 -7.5509e-07 -2.88584e-07 0.0005 5.23599e-07 
121 1 0.0159955 0.0207973 0.0160554 0.0125054 0.00360414 -0.00624593 -4.951e-05 -6.12678e-05 -2.85686e-05 0.0005 5.23599e-07 
122 1 0.0198426 0.0229131 0.0155155 0.00788953 -0.00296892 0.00525893 -5.91236e-06 -1.7183e-06 -2.03814e-05 0.0005 5.23599e-07 
123 1 0.0202223 0.0199497 0.0158973 0.0119506 -0.00781863 0.0102293 -1.05869e-05 -3.24176e-05 -5.86479e-06 0.0005 5.23599e-07 
124 1 0.0185382 0.0240913 0.0144043 0.000357025 0.00541717 -0.00173746 2.60158e-05 -0.000137095 -0.000145925 0.0005 5.23599e-07 
125 1 0.0245695 0.0170107 0.0163398 -0.00844674 0.0102653 0.00532778 0 0 -5.1365e-06 0.0005 5.23599e-07 
126 1 0.0173509 0.0202223 0.0168384 0.000785096 0.072114 0.0475935 0 0 -5.1365e-06 0.0005 5.23599e-07 
127 1 0.0208179 0.022764 0.0152886 0.0205339 -0.00107976 0.0106199 -7.69629e-05 8.38435e-05 -4.99982e-05 0.0005 5.23599e-07 
128 1 0.0151603 0.023285 0.0146757 -0.000180631 -0.000427247 0.00064165 -3.14955e-06 2.30846e-07 2.8725e-06 0.0005 5.23599e-07 
129 1 0.0184592 0.0200989 0.016661 0.0162459 -0.00196241 0.00349413 -1.23578e-06 5.30856e-06 1.02733e-06 0.0005 5.23599e-07 
130 1 0.018968 0.0214364 0.0161997 0.0118649 0.0124662 0.000842644 0 0 -5.1365e-06 0.0005 5.23599e-07 
131 1 0.0144394 0.0214113 0.0152641 0.0104961 0.00565526 -0.00282139 -1.72011e-06 4.85212e-06 2.43904e-07 0.0005 5.23599e-07 
132 1 0.0180882 0.0209902 0.0163992 0.0137344 -0.00372907 0.00661442 -5.44157e-07 2.74985e-06 -5.32841e-06 0.0005 5.23599e-07 
133 1 0.0176527 0.0239927 0.0164281 -0.00144865 0.000924199 0.00357145 -9.40993e-06 5.88785e-06 2.16387e-05 0.0005 5.23599e-07 
134 1 0.0150907 0.0205917 0.0156671 0.00902308 0.0143534 -0.00544187 3.80041e-06 5.7186e-06 -1.70812e-05 0.0005 5.23599e-07 
135 1 0.0232961 0.0159711 0.0157363 -0.00636846 -0.0124719 -0.0134938 0 0 -5.1365e-06 0.0005 5.23599e-07 
136 1 0.0179951 0.0218792 0.015951 0.0123069 0.00056355 0.0052568 -8.78028e-06 1.91738e-05 1.16507e-05 0.0005 5.23599e-07 
137 1 0.0234489 0.021682 0.0169701 -0.00194794 0.000157318 -0.00922182 -4.89955e-07 -5.70532e-07 -3.79628e-06 0.0005 5.23599e-07 
138 1 0.0168705 0.0161213 0.0148607 -0.00589358 0.00376984 -0.00150587 0 0 -5.1365e-06 0.0005 5.23599e-07 
139 1 0.0215515 0.0212467 0.0153644 0.00925133 -0.0127164 0.00692032 -1.71282e-05 -2.60305e-05 -4.35399e-05 0.0005 5.23599e-07 
140 1 0.0218532 0.0147548 0.0147852 -0.0222329 -0.00375696 -0.0253474 0 0 -5.1365e-06 0.0005 5.23599e-07 
141 1 0.0192919 0.0241014 0.0162806 0.00428357 0.00231904 0.00543357 5.39966e-06 9.85386e-06 7.92839e-06 0.0005 5.23599e-07 
142 1 0.0175091 0.0235956 0.0155222 0.000812523 -0.000831437 0.00569099 3.58308e-06 -3.9648e-05 -1.79808e-05 0.0005 5.23599e-07 
143 1 0.0168472 0.0239127 0.0134731 0.00110814 0.00159767 -0.000140262 2.38044e-06 -2.43602e-07 3.44424e-06 0.0005 5.23599e-07 
144 1 0.0215012 0.0150037 0.0157506 -0.0183115 -0.033041 -0.0247027 0 0 -5.1365e-06 0.0005 5.23599e-07 
145 1 0.021419 0.0188621 0.0159382 0.0115161 0.00432781 0.00051311 4.25776e-06 -1.60709e-06 -2.08017e-06 0.0005 5.23599e-07 
146 1 0.0177292 0.0170332 0.0189724 0.043553 0.33393 0.044078 0 0 -5.1365e-06 0.0005 5.23599e-07 
147 1 0.0220203 0.021623 0.0161627 0.00615965 -0.00332852 0.00541628 5.02713e-05 3.15458e-05 1.16385e-05 0.0005 5.23599e-07 
148 1 0.0192915 0.0232472 0.0132784 0.0416586 0.00948731 0.0153852 0.000564963 -3.20605e-06 0.000179156 0.0005 5.23599e-07 
149 1 0.0197112 0.014574 0.0156784 -0.000893776 0.00521143 -0.00999967 0 0 -5.1365e-06 0.0005 5.23599e-07 
150 1 0.0216235 0.0221571 0.014963 0.00951597 -0.00609606 0.0108645 0.000109085 0.000171998 -9.90049e-05 0.0005 5.23599e-07 
151 1 0.0222312 0.01948 0.0159297 0.0112346 0.0145512 0.00132739 -8.57018e-07 3.57701e-06 1.52445e-08 0.0005 5.23599e-07 
152 1 0.0206987 0.021791 0.0150183 0.00894957 -0.0148051 0.00898844 -3.66487e-05 -0.00013936 0.000149504 0.0005 5.23599e-07 
153 1 0.0248839 0.0202691 0.0169588 -0.0315037 0.0198417 -0.0328329 0 0 -5.1365e-06 0.0005 5.23599e-07 
154 1 0.0201836 0.0231032 0.0145952 0.00573592 0.00226704 -0.0018345 -0.000247204 0.00048784 0.000722505 0.0005 5.23599e-07 
155 1 0.0202136 0.0229825 0.0135573 0.0735086 0.0214547 0.00780966 -0.00157825 -0.00480021 -9.71186e-05 0.0005 5.23599e-07 
157 1 0.0204253 0.0189722 0.0159464 0.0102701 -0.00659981 0.00553797 5.82989e-06 -2.10044e-05 -4.00707e-06 0.0005 5.23599e-07 
158 1 0.0152644 0.0220872 0.0147424 0.00291206 0.00432076 -0.00433549 4.36173e-06 1.05284e-05 9.80799e-06 0.0005 5.23599e-07 
159 1 0.0190444 0.0239444 0.0126284 0.0270416 -0.0111508 0.00670378 0.00291301 -0.000270763 -0.000330505 0.0005 5.23599e-07 
160 1 0.0222482 0.0183055 0.0158872 0.0220469 0.0168206 0.0026934 -6.70862e-07 3.13819e-07 -5.99619e-06 0.0005 5.23599e-07 
161 1 0.0173856 0.0145579 0.0140039 -0.000550072 0.00547264 -0.00896591 3.13633e-06 7.86001e-06 1.27963e-05 0.0005 5.23599e-07 
163 1 0.0151283 0.0160035 0.0147469 0.00681415 0.0186987 0.010176 0 0 -5.1365e-06 0.0005 5.23599e-07 
164 1 0.0207086 0.0207735 0.0156127 0.00735995 -0.00971231 0.0124521 -5.333e-06 3.45018e-05 2.22995e-05 0.0005 5.23599e-07 
165 1 0.0157365 0.0227533 0.0153176 0.00101517 -0.000933045 0.000963354 -7.51537e-07 5.96684e-06 1.24295e-05 0.0005 5.23599e-07 
167 1 0.021552 0.0180895 0.0166033 0.0145526 -0.00401109 -0.0386143 0 0 -5.1365e-06 0.0005 5.23599e-07 
168 1 0.020721 0.0150806 0.015005 -0.0101757 -0.00535775 0.000694971 0 0 -5.1365e-06 0.0005 5.23599e-07 
169 1 0.0209701 0.0216392 0.0160787 0.00834259 -0.00076864 -0.0113333 0 0 -5.1365e-06 0.0005 5.23599e-07 
171 1 0.0223351 0.0169846 0.0154397 0.0082637 0.010711 0.0115884 0 0 -5.1365e-06 0.0005 5.23599e-07 
172 1 0.0209142 0.0224861 0.0143276 0.0100091 -0.00733241 -0.00336553 -0.000205539 -7.94067e-05 -2.19964e-05 0.0005 5.23599e-07 
173 1 0.0201541 0.0150052 0.0195086 -0.137293 0.0133411 -0.151126 0 0 -5.1365e-06 0.0005 5.23599e-07 
174 1 0.02044 0.0220002 0.0168542 0.00404823 -0.00517277 -0.00357537 0 0 -5.1365e-06 0.0005 5.23599e-07 
175 1 0.0166557 0.0233607 0.0159869 -0.00225636 -0.00307871 -0.00176044 6.85082e-06 1.54937e-06 1.08279e-05 0.0005 5.23599e-07 
176 1 0.019772 0.0221606 0.0148613 0.0170262 -0.0131832 0.0104701 -8.31928e-09 -1.60794e-05 5.27584e-05 0.0005 5.23599e-07 
177 1 0.0193267 0.0241315 0.0187663 0.014365 -0.267246 0.0897414 0 0 -5.1365e-06 0.0005 5.23599e-07 
178 1 0.0146132 0.0226046 0.0141887 0.000924976 0.00140664 -0.00108657 -1.2082e-06 2.18918e-07 -8.0548e-07 0.0005 5.23599e-07 
179 1 0.0241076 0.0155107 0.0153658 0.00760612 0.00930188 -0.000237099 -5.8269e-06 3.41564e-07 -2.16607e-06 0.0005 5.23599e-07 
180 1 0.0151788 0.0193242 0.0159525 0.000164878 0.0498335 0.00213066 0 0 -5.1365e-06 0.0005 5.23599e-07 
181 1 0.0200358 0.0170165 0.0163922 -0.00577472 0.0318802 -0.00665299 0 0 -5.1365e-06 0.0005 5.23599e-07 
182 1 0.0167351 0.0239134 0.0168171 -0.00251338 -0.000641556 -0.00129181 -3.15949e-06 -3.11426e-07 3.36235e-06 0.0005 5.23599e-07 
183 1 0.0173788 0.0153202 0.015177 -0.000205 0.00717798 -0.0073293 3.10317e-06 -4.6023e-07 -3.71691e-06 0.0005 5.23599e-07 
184 1 0.0160464 0.0220177 0.0159198 0.00963105 0.00726406 0.00603808 -2.90828e-06 -1.70537e-06 6.68845e-06 0.0005 5.23599e-07 
185 1 0.0212169 0.0198547 0.0158695 0.0120267 -0.0060456 0.00175681 2.07033e-05 -2.77664e-05 1.36269e-05 0.0005 5.23599e-07 
186 1 0.0211834 0.0230423 0.0135367 0.0762816 -0.0237562 -0.0360071 -0.0039773 -0.000872954 -0.000322296 0.0005 5.23599e-07 
187 1 0.016919 0.0234929 0.0143891 -0.00162703 0.00659403 0.00979558 -6.74561e-06 1.0979e-05 -2.84918e-05 0.0005 5.23599e-07 
188 1 0.0177528 0.0226458 0.0153567 0.00888251 -0.00286231 0.00512376 -2.47824e-07 -4.32172e-05 -8.11795e-07 0.0005 5.23599e-07 
189 1 0.0185415 0.0236896 0.0167972 0.000957005 0.00417316 0.00226066 -3.19306e-06 -2.66541e-06 6.14237e-06 0.0005 5.23599e-07 
190 1 0.0211037 0.0141588 0.0144795 -0.00120392 -0.0102773 -0.0253858 5.39683e-06 -6.25387e-07 -7.93378e-06 0.0005 5.23599e-07 
