ITEM: TIMESTEP
1400000
ITEM: NUMBER OF ATOMS
179
ITEM: BOX BOUNDS ff ff ff
-0.02 0.43
-0.02 0.06
-0.02 0.07
ITEM: ATOMS id type x y z vx vy vz fx fy fz radius mass 
1 1 0.0241538 0.0173619 0.00753372 0.00187772 -0.0506001 0.0164835 -3.75623e-07 -7.26648e-07 8.69244e-07 0.0005 5.23599e-07 
2 1 0.0249639 0.017587 0.00743208 0.00338343 -0.048395 0.0125239 -2.01471e-06 -2.62472e-06 2.71616e-06 0.0005 5.23599e-07 
4 1 0.0162524 0.0226537 0.0152013 -0.00325716 -0.0037033 0.00409346 -1.21861e-06 -3.67813e-06 -3.55493e-07 0.0005 5.23599e-07 
5 1 0.0272002 0.0207227 0.0154734 -0.000247761 0.0599809 0.015501 0.000300818 0.00213084 0.00125689 0.0005 5.23599e-07 
6 1 0.0221523 0.0166332 0.0152373 6.53159e-05 0.0539257 0.0261021 -4.73034e-05 6.51983e-06 -3.1343e-05 0.0005 5.23599e-07 
7 1 0.0254305 0.0225056 0.00901217 -0.0225201 -0.0345105 0.00931265 0.00104151 -0.00264081 -0.0020052 0.0005 5.23599e-07 
8 1 0.024669 0.0167204 0.016295 0.000836219 0.0197493 0.0275379 0 0 -5.1365e-06 0.0005 5.23599e-07 
9 1 0.0223236 0.0232199 0.0152245 0.00130931 0.00604017 0.00475951 3.77826e-06 8.50009e-06 3.43075e-06 0.0005 5.23599e-07 
10 1 0.0233345 0.0154557 0.0141104 0.00649327 0.00403759 0.00790114 3.45393e-06 -2.73762e-06 3.1047e-06 0.0005 5.23599e-07 
11 1 0.0175602 0.023594 0.0154094 -0.00200895 -0.00132213 0.00313313 -2.84156e-06 -1.15648e-05 1.11896e-05 0.0005 5.23599e-07 
12 1 0.0208547 0.0239324 0.0129111 -0.00198932 -0.00429669 0.00451456 2.25864e-08 6.15434e-06 -3.97326e-05 0.0005 5.23599e-07 
13 1 0.0176251 0.0235909 0.0143821 -0.00265755 -0.000610142 0.00287402 7.04398e-06 -7.60667e-06 6.55535e-07 0.0005 5.23599e-07 
14 1 0.0182767 0.0240919 0.0165031 -0.000558567 -0.000858251 -0.00187856 -5.15532e-07 3.07332e-07 -3.93225e-06 0.0005 5.23599e-07 
15 1 0.0147099 0.0226487 0.0141326 0.00966322 0.00304038 -0.0108457 -1.27477e-05 1.19358e-05 -4.44535e-06 0.0005 5.23599e-07 
16 1 0.0215044 0.014641 0.0147776 0.0157123 -0.0179255 0.0108298 0 0 -5.1365e-06 0.0005 5.23599e-07 
17 1 0.0182182 0.0144402 0.0127889 0.00309637 0.00585546 0.00990869 -2.26563e-05 -8.47253e-06 8.22434e-06 0.0005 5.23599e-07 
18 1 0.0194615 0.0144029 0.0139012 -0.00495377 -0.000622565 -0.00432608 3.07466e-05 6.06626e-06 2.66513e-06 0.0005 5.23599e-07 
19 1 0.018871 0.0243912 0.0138083 -0.000111779 -0.000189052 0.00103217 -3.20633e-07 1.35448e-06 -2.74275e-06 0.0005 5.23599e-07 
20 1 0.0207083 0.0227535 0.0142347 0.0117012 0.00514785 0.00641655 3.71373e-06 2.29021e-06 -8.01068e-06 0.0005 5.23599e-07 
21 1 0.020909 0.0221783 0.0159701 -0.000548714 -0.00212081 0.00544884 5.20496e-06 6.05404e-06 -9.87969e-07 0.0005 5.23599e-07 
22 1 0.0203569 0.0226475 0.00913835 0.000291209 -0.0270249 -0.044096 -4.80096e-09 -2.05544e-07 4.13709e-08 0.0005 5.23599e-07 
23 1 0.0213186 0.021065 0.0154625 -0.00339875 0.00916783 -0.00528413 -4.28565e-06 4.87161e-06 -9.07198e-07 0.0005 5.23599e-07 
24 1 0.0177344 0.0146237 0.0119342 0.00131802 0.00111674 0.00633533 9.3531e-06 -3.4011e-05 -1.52991e-05 0.0005 5.23599e-07 
25 1 0.0199356 0.0222994 0.0156808 -0.001625 -0.00390445 -0.00214706 2.07302e-06 -7.02532e-06 -9.59409e-06 0.0005 5.23599e-07 
26 1 0.0202647 0.024087 0.0163291 -0.0001459 -0.000124883 -0.000103451 6.67872e-06 -2.81057e-06 -9.7075e-06 0.0005 5.23599e-07 
27 1 0.0269867 0.0214217 0.0150138 0.00425377 0.0456407 -0.0173026 -0.00178527 0.00190886 0.000625804 0.0005 5.23599e-07 
29 1 0.01689 0.0139954 0.0142639 0.00439763 0.000599804 0.00565575 -2.54252e-05 2.42855e-05 1.90711e-05 0.0005 5.23599e-07 
30 1 0.0216104 0.0233611 0.0126157 0.00100097 -0.00175426 0.00309371 1.91113e-06 -1.49404e-05 1.03359e-05 0.0005 5.23599e-07 
31 1 0.0169367 0.0227375 0.0166879 0.000461118 0.0017283 0.00599238 -1.08901e-05 -9.00887e-06 -1.35081e-06 0.0005 5.23599e-07 
34 1 0.0172763 0.0240221 0.0131131 -0.00042637 -0.000486898 1.83331e-05 4.09297e-07 1.92934e-07 -2.73093e-06 0.0005 5.23599e-07 
35 1 0.0213711 0.0201272 0.0158107 0.0113862 0.00253353 -0.0167715 7.74978e-06 6.27819e-06 -4.79824e-06 0.0005 5.23599e-07 
36 1 0.0213461 0.0234936 0.0145098 0.00375846 0.0103909 0.00545318 1.33389e-05 8.36452e-06 5.6282e-06 0.0005 5.23599e-07 
37 1 0.018681 0.0231062 0.0168866 0.00463472 -0.00129618 -0.00136147 -1.65237e-05 7.52271e-06 5.92451e-06 0.0005 5.23599e-07 
38 1 0.0230535 0.0233234 0.0145502 -0.00261229 0.003223 0.000658974 8.72144e-06 -2.61748e-06 -5.71922e-06 0.0005 5.23599e-07 
39 1 0.0213358 0.0230287 0.0135131 0.0071153 0.00229069 0.00445824 1.61093e-05 1.84684e-05 6.67584e-06 0.0005 5.23599e-07 
40 1 0.0164386 0.0156781 0.0144047 0.0108066 0.0114148 -0.0111067 0 0 -5.1365e-06 0.0005 5.23599e-07 
41 1 0.0159856 0.0236528 0.01424 -0.0048735 -0.00403476 0.00176773 6.73886e-06 -3.77733e-06 -4.69964e-06 0.0005 5.23599e-07 
42 1 0.0193071 0.02214 0.00855652 0.000226119 -0.0302978 -0.0340915 2.89509e-08 2.51268e-06 2.44614e-06 0.0005 5.23599e-07 
43 1 0.0168248 0.0241471 0.0139965 -0.00200126 0.00086891 -5.97362e-05 -7.74379e-07 -1.4024e-06 -1.42426e-06 0.0005 5.23599e-07 
44 1 0.0197062 0.0214693 0.0161879 -0.00532116 0.000679648 0.00924549 3.89447e-06 -4.78518e-06 -3.60397e-08 0.0005 5.23599e-07 
45 1 0.039852 0.0190547 0.00569119 -3.55664e-15 1.70415e-14 -8.42608e-14 9.45236e-20 -7.19978e-21 -5.0822e-21 0.0005 5.23599e-07 
46 1 0.0159603 0.0217081 0.0150601 -0.00524138 -0.00361249 0.00270547 -5.85731e-08 2.24473e-06 -3.69907e-06 0.0005 5.23599e-07 
48 1 0.021358 0.0186639 0.0172248 -0.00981634 0.0101365 -0.0649305 0 0 -5.1365e-06 0.0005 5.23599e-07 
49 1 0.0222112 0.0218091 0.0149862 0.0187986 0.0165042 -0.0127589 0 0 -5.1365e-06 0.0005 5.23599e-07 
50 1 0.0178218 0.0222727 0.0167004 -0.00347218 0.000849587 0.00911672 1.57998e-05 -1.08472e-06 -4.36532e-06 0.0005 5.23599e-07 
51 1 0.0208836 0.0140982 0.0132456 -0.00429796 -0.000134569 -0.000617804 0 0 -5.1365e-06 0.0005 5.23599e-07 
52 1 0.0214484 0.0240736 0.0137023 -0.00234376 0.00516586 0.000246883 7.2989e-06 -1.11147e-05 2.07867e-05 0.0005 5.23599e-07 
53 1 0.0234659 0.0149485 0.0149619 0.000600827 -0.00260714 0.00542035 1.70131e-06 2.40817e-06 -3.68252e-07 0.0005 5.23599e-07 
54 1 0.0236275 0.020551 0.0167728 -0.00221653 0.0381761 0.0607526 0 0 -5.1365e-06 0.0005 5.23599e-07 
55 1 0.0209645 0.0218505 0.0149546 0.00743959 0.0145438 -0.0136029 -9.76194e-06 1.4259e-05 -2.67057e-06 0.0005 5.23599e-07 
57 1 0.0167522 0.0234415 0.0148425 -0.0034685 -0.00332423 0.0027146 8.50486e-06 -1.38841e-05 -5.67407e-07 0.0005 5.23599e-07 
58 1 0.0168945 0.0147106 0.0124684 0.00385306 -0.000145569 0.0128365 2.06899e-05 1.75171e-05 7.91834e-05 0.0005 5.23599e-07 
59 1 0.0155293 0.019778 0.0160851 -0.000960955 0.0542254 -0.0370345 0 0 -5.1365e-06 0.0005 5.23599e-07 
60 1 0.019167 0.0148239 0.0153584 0.0165423 -0.0381926 0.00341514 3.2076e-05 1.11339e-05 4.06657e-05 0.0005 5.23599e-07 
61 1 0.0149281 0.0219908 0.0148538 0.00816589 -0.00129965 -0.00582572 -2.19182e-06 4.04416e-08 -4.75143e-06 0.0005 5.23599e-07 
62 1 0.0231836 0.0226572 0.0159657 -0.00260997 -0.000862903 0.000987121 -7.54779e-06 5.59399e-06 1.07021e-06 0.0005 5.23599e-07 
63 1 0.0199143 0.0148551 0.0146702 0.00504674 -0.00487208 -0.00369999 0 0 -5.1365e-06 0.0005 5.23599e-07 
64 1 0.0230739 0.019746 0.0165574 -0.0104374 0.0467754 0.0408293 0 0 -5.1365e-06 0.0005 5.23599e-07 
65 1 0.0206944 0.0145063 0.014141 0.00358411 -0.00437543 -0.00327194 0 0 -5.1365e-06 0.0005 5.23599e-07 
66 1 0.0249605 0.0216336 0.0161164 -0.00180251 0.00600315 0.00253743 2.20402e-06 -1.69349e-06 -2.68873e-07 0.0005 5.23599e-07 
68 1 0.0193183 0.0231868 0.0161208 0.00405784 -0.000864238 -0.00475965 -6.98353e-06 -1.13984e-05 5.59455e-06 0.0005 5.23599e-07 
69 1 0.0151706 0.0233196 0.0147118 -0.00513246 -0.000799946 0.0046764 7.89363e-06 6.68741e-07 -8.44846e-06 0.0005 5.23599e-07 
70 1 0.0255591 0.0208255 0.0164624 -0.0142566 0.0149248 -0.00704385 0 0 -5.1365e-06 0.0005 5.23599e-07 
71 1 0.0143279 0.0229315 0.0150842 -0.00683907 -0.00489856 -0.000179059 -7.86999e-06 -1.99483e-06 3.33822e-08 0.0005 5.23599e-07 
72 1 0.0187332 0.0198317 0.00727648 0.000869515 -0.0486177 -0.00810827 6.6315e-07 4.97045e-06 2.83272e-07 0.0005 5.23599e-07 
73 1 0.020315 0.0231098 0.0161259 0.000537115 -0.000503766 -0.00206604 1.32772e-05 -7.23193e-06 2.35382e-06 0.0005 5.23599e-07 
74 1 0.0201707 0.0243678 0.0135203 -0.00064473 0.0006769 -0.000370379 6.96618e-06 -4.1504e-06 -1.07321e-05 0.0005 5.23599e-07 
75 1 0.0236238 0.0182766 0.0166973 0.0160938 0.0646655 0.0170752 0 0 -5.1365e-06 0.0005 5.23599e-07 
76 1 0.0178682 0.0243889 0.0138328 -0.00225997 -0.000707794 0.000838629 -3.74425e-06 -6.35308e-07 3.59964e-07 0.0005 5.23599e-07 
77 1 0.0178312 0.0213005 0.0162241 -0.00617808 -0.00499131 0.00566486 -8.37713e-06 -1.51489e-05 7.06577e-06 0.0005 5.23599e-07 
78 1 0.0223884 0.0231564 0.0132082 -0.000526924 0.00128305 0.000515939 1.04672e-05 1.52655e-07 1.15518e-05 0.0005 5.23599e-07 
79 1 0.0222341 0.0233286 0.0168398 -0.00538565 0.01371 -0.0143815 0 0 -5.1365e-06 0.0005 5.23599e-07 
80 1 0.0193081 0.0160572 0.0167698 0.0317911 -0.018179 -0.000163544 0 0 -5.1365e-06 0.0005 5.23599e-07 
81 1 0.0182613 0.0154001 0.0140358 0.00984801 0.00419891 0.0131692 4.93953e-05 -1.12783e-05 -1.10511e-05 0.0005 5.23599e-07 
82 1 0.0169537 0.0204312 0.0157337 0.0165954 0.0133043 -0.0019882 2.95368e-05 -1.36291e-05 -3.15941e-06 0.0005 5.23599e-07 
83 1 0.0215288 0.0223529 0.0167351 -0.000174148 -0.000781897 0.00325993 5.94801e-07 -5.21089e-07 -3.75382e-06 0.0005 5.23599e-07 
84 1 0.0336017 0.0195831 0.00585649 -1.21547e-12 2.72472e-13 1.30725e-13 1.21864e-14 -1.33615e-14 -5.87209e-15 0.0005 5.23599e-07 
85 1 0.0186938 0.0146279 0.0145004 0.00356696 -0.00565701 0.00464663 1.11204e-05 -2.24773e-05 -2.54755e-05 0.0005 5.23599e-07 
86 1 0.0159338 0.022106 0.0159772 -0.00273033 -0.00254896 0.00309758 0 0 -5.1365e-06 0.0005 5.23599e-07 
87 1 0.0198196 0.0237826 0.0154342 0.0162489 -0.0030962 -0.0111557 5.30899e-07 9.55709e-07 -1.70394e-06 0.0005 5.23599e-07 
88 1 0.0186296 0.0236996 0.0155313 -5.44544e-05 0.000865198 0.00141352 9.1419e-07 1.31708e-06 -1.35749e-06 0.0005 5.23599e-07 
89 1 0.0264455 0.0229808 0.0132221 0.000762023 0.0284553 -0.0447484 6.9653e-09 -1.30529e-07 -2.13722e-07 0.0005 5.23599e-07 
90 1 0.0285051 0.0154549 0.0138027 0.000173054 0.0236491 0.0488568 1.32193e-07 -2.27485e-06 7.43599e-07 0.0005 5.23599e-07 
91 1 0.0206696 0.0228082 0.0152315 0.00157804 0.00056449 0.00746675 -4.10148e-06 -5.94553e-06 8.68182e-06 0.0005 5.23599e-07 
92 1 0.0157071 0.02242 0.0143968 0.00542545 0.00592066 -0.00630673 -1.0699e-05 1.38695e-06 1.93689e-06 0.0005 5.23599e-07 
93 1 0.0146406 0.0166923 0.0181544 -0.0847456 -0.0750836 0.17764 0 0 -5.1365e-06 0.0005 5.23599e-07 
94 1 0.0192688 0.0241481 0.0163928 -0.000633474 -0.000657171 1.19196e-05 -1.58663e-06 2.19432e-06 -2.35296e-06 0.0005 5.23599e-07 
95 1 0.0228083 0.0207707 0.015598 0.00301928 0.000942876 0.000917668 -6.45304e-06 1.24819e-05 5.57261e-06 0.0005 5.23599e-07 
96 1 0.0209064 0.016954 0.0173199 0.00529872 -0.0547402 0.0231481 0 0 -5.1365e-06 0.0005 5.23599e-07 
97 1 0.0192848 0.0241172 0.0129369 -0.000161109 0.00270912 -0.00151311 5.18472e-07 2.31935e-07 1.38649e-07 0.0005 5.23599e-07 
98 1 0.0168793 0.0213427 0.0153242 0.0052217 0.0164424 -0.0145127 0 0 -5.1365e-06 0.0005 5.23599e-07 
99 1 0.0175696 0.0150402 0.0134111 0.00999855 0.0050267 0.0134636 2.70351e-05 -6.27255e-06 -1.03559e-06 0.0005 5.23599e-07 
100 1 0.0216147 0.0226052 0.014881 0.00579166 0.00949867 -0.00102896 6.12268e-06 5.10665e-06 -6.15089e-06 0.0005 5.23599e-07 
101 1 0.0211894 0.0237428 0.0165017 -0.00105662 0.001871 0.00477216 9.88516e-07 2.28907e-07 -1.26404e-06 0.0005 5.23599e-07 
102 1 0.0216207 0.0190688 0.0159456 0.00285419 0.0373606 -0.000626784 -4.95965e-07 2.59662e-06 -3.40794e-07 0.0005 5.23599e-07 
103 1 0.0245656 0.0208567 0.016608 -0.00119067 0.0274414 0.0389286 0 0 -5.1365e-06 0.0005 5.23599e-07 
105 1 0.0231969 0.0189066 0.0160275 0.00710219 0.0543487 0.0303315 0 0 -5.1365e-06 0.0005 5.23599e-07 
106 1 0.020919 0.0234662 0.0117946 0.00306672 0.000266746 -0.00647797 -1.97522e-05 1.98504e-05 -2.19415e-05 0.0005 5.23599e-07 
107 1 0.0198575 0.0234047 0.0169645 -0.00681825 0.00424796 -0.00549063 -4.24503e-07 -5.82821e-07 3.38952e-06 0.0005 5.23599e-07 
108 1 0.0257005 0.0230327 0.00988422 0.0320373 -0.0025623 -0.00700729 -0.00139796 -0.00102316 -0.000672052 0.0005 5.23599e-07 
109 1 0.0198688 0.0218271 0.00815473 0.00417965 -0.01164 -0.0100866 5.76254e-07 8.80928e-06 7.27807e-06 0.0005 5.23599e-07 
110 1 0.0216961 0.0142971 0.0138512 -0.00161258 -0.00185825 -0.00417173 0 0 -5.1365e-06 0.0005 5.23599e-07 
111 1 0.0239792 0.0170005 0.0154523 -0.00390228 0.0498585 0.025377 2.06078e-05 -1.58406e-05 3.74841e-05 0.0005 5.23599e-07 
112 1 0.0200651 0.0153251 0.0155598 0.0188786 -0.0236694 -0.00737786 0 0 -5.1365e-06 0.0005 5.23599e-07 
113 1 0.0233329 0.0149087 0.0103584 0.000647025 -0.0137349 0.0496378 -4.00584e-07 -2.71229e-07 2.10507e-06 0.0005 5.23599e-07 
114 1 0.0236816 0.0170713 0.0164056 -0.00177917 0.0488525 0.0274594 0 0 -5.1365e-06 0.0005 5.23599e-07 
115 1 0.0224448 0.0226791 0.0140847 -0.00298013 0.00384157 -0.000172255 1.15729e-05 -1.66633e-05 8.32657e-06 0.0005 5.23599e-07 
116 1 0.020712 0.0212658 0.016328 -2.5762e-05 -0.00282041 0.000239213 -3.77029e-06 -6.151e-06 -2.72038e-07 0.0005 5.23599e-07 
117 1 0.0175521 0.0140433 0.0134825 0.00565132 0.00157665 -0.000550213 2.80544e-06 -1.15434e-05 7.60863e-06 0.0005 5.23599e-07 
118 1 0.0229995 0.0169716 0.0156437 -0.00269688 0.0490504 0.0291762 -2.54096e-06 -2.00599e-05 9.79531e-06 0.0005 5.23599e-07 
119 1 0.0189843 0.0225147 0.0154604 -0.000305876 -0.0060551 0.000471092 -2.82346e-06 -5.37463e-06 4.17844e-07 0.0005 5.23599e-07 
120 1 0.0221138 0.0208347 0.0163145 -0.0351816 -0.00152561 -0.0368 -5.38753e-07 1.74569e-07 -2.36947e-06 0.0005 5.23599e-07 
121 1 0.0254579 0.0173769 0.0164688 0.00171202 0.0257237 0.0108599 0 0 -5.1365e-06 0.0005 5.23599e-07 
122 1 0.0167193 0.0232578 0.0158469 -0.00275753 -0.00182762 0.00205212 2.06802e-06 1.04134e-06 -2.51787e-06 0.0005 5.23599e-07 
123 1 0.0234922 0.0156405 0.0156833 -0.00657911 0.0137738 -0.0114577 0 0 -5.1365e-06 0.0005 5.23599e-07 
124 1 0.0181054 0.0221374 0.0157513 -0.00310306 -0.00422107 0.00664541 1.64579e-05 -1.51638e-05 8.10943e-06 0.0005 5.23599e-07 
125 1 0.0178732 0.0140621 0.0144293 0.00601769 -0.00602327 0.00343656 -1.33325e-05 5.1153e-06 9.4531e-07 0.0005 5.23599e-07 
126 1 0.0201296 0.0204955 0.0165882 -0.0026484 -0.000326969 0.00253993 -1.33765e-08 1.85806e-06 -3.31569e-06 0.0005 5.23599e-07 
127 1 0.0173358 0.0226318 0.0153489 -0.00275028 -0.00447476 0.00756474 4.22086e-06 -2.38957e-05 1.94274e-05 0.0005 5.23599e-07 
128 1 0.0259624 0.0234041 0.0111725 0.00163808 -0.000954525 -0.0525452 -7.64986e-07 -4.29835e-07 -3.39769e-06 0.0005 5.23599e-07 
129 1 0.0275803 0.0188242 0.0158551 0.00232622 0.0452524 0.0013635 5.55893e-06 -0.000137502 1.40402e-05 0.0005 5.23599e-07 
131 1 0.0186885 0.0176898 0.00739068 0.00012314 -0.02189 0.00545559 -1.35822e-06 1.25835e-06 -2.32966e-07 0.0005 5.23599e-07 
132 1 0.0237628 0.0159465 0.00852183 0.000894228 -0.034009 0.0292814 8.44273e-07 4.69186e-06 -3.97494e-06 0.0005 5.23599e-07 
133 1 0.0201694 0.0136984 0.0138562 -0.000896344 -0.00167381 -0.00134237 1.71988e-05 5.23361e-06 -2.20933e-05 0.0005 5.23599e-07 
134 1 0.0222532 0.0238392 0.0142469 -0.00428029 0.00172747 0.00122826 -6.24768e-06 -1.29464e-05 6.57237e-06 0.0005 5.23599e-07 
135 1 0.0155129 0.0229769 0.0135897 0.00918717 0.00338517 -0.00842654 -2.2446e-06 3.47475e-06 -6.7795e-07 0.0005 5.23599e-07 
136 1 0.015132 0.0211904 0.0154178 0.0137334 5.75471e-05 -0.000697539 -2.19907e-06 1.96096e-06 -4.86953e-06 0.0005 5.23599e-07 
137 1 0.019808 0.0209654 0.00766334 0.00185179 -0.0382566 -0.0179054 -7.50396e-08 -1.43283e-06 -6.90845e-08 0.0005 5.23599e-07 
138 1 0.019583 0.0237183 0.0139987 0.000417655 0.00171221 0.000206961 -5.29202e-06 8.08166e-06 -1.01756e-05 0.0005 5.23599e-07 
139 1 0.0174384 0.0157421 0.0144879 0.00925377 0.00392837 0.00136357 -3.18521e-05 1.48897e-05 5.54712e-05 0.0005 5.23599e-07 
140 1 0.024468 0.0158524 0.0156285 -0.00419298 -5.98485e-05 -0.00964325 0 0 -5.1365e-06 0.0005 5.23599e-07 
141 1 0.0225505 0.0182841 0.016489 -0.00874729 0.0539394 0.0204973 1.83697e-05 6.37333e-06 -3.95658e-06 0.0005 5.23599e-07 
142 1 0.0327957 0.0190095 0.00571076 6.64017e-13 7.9309e-13 -3.126e-13 -1.14491e-14 -3.36142e-15 1.60194e-15 0.0005 5.23599e-07 
143 1 0.0189134 0.0138577 0.0132076 -0.00391748 -0.00390681 0.00918085 3.90762e-05 -3.51243e-05 3.06069e-05 0.0005 5.23599e-07 
144 1 0.0235226 0.0152709 0.00937534 0.000795625 -0.0264782 0.0440618 4.88746e-07 8.74293e-07 -1.14726e-06 0.0005 5.23599e-07 
145 1 0.0186755 0.0188848 0.00720299 -0.000307075 -0.0310344 -0.00246567 -7.34669e-06 7.61101e-06 -1.36477e-06 0.0005 5.23599e-07 
146 1 0.0187983 0.0210873 0.0163592 -0.00407967 -0.0014402 0.00616851 6.20564e-06 -1.05905e-05 1.03319e-05 0.0005 5.23599e-07 
147 1 0.0162888 0.0143743 0.0149692 -0.0276881 -0.0455677 -0.0217826 0 0 -5.1365e-06 0.0005 5.23599e-07 
148 1 0.0183878 0.0176843 0.0167278 -0.00633107 -0.0199189 0.153839 0 0 -5.1365e-06 0.0005 5.23599e-07 
149 1 0.0214096 0.0233687 0.0156009 0.00123744 -2.37145e-05 0.00708098 -1.2608e-06 1.05006e-05 4.27626e-06 0.0005 5.23599e-07 
150 1 0.0202601 0.0233865 0.012353 0.00289899 0.00775393 -0.0332621 8.53228e-06 7.87965e-06 -1.50296e-05 0.0005 5.23599e-07 
151 1 0.0267869 0.0233897 0.0116533 3.74782e-05 0.00291609 -0.0509429 1.10792e-06 2.15285e-08 -6.80367e-07 0.0005 5.23599e-07 
152 1 0.0226685 0.0150674 0.0134738 0.0103318 0.00398139 0.00629862 -3.49425e-06 1.08054e-06 -1.52325e-05 0.0005 5.23599e-07 
153 1 0.0171089 0.0219732 0.0160658 -0.00635652 -0.00141022 0.00793209 -1.3149e-06 -9.57615e-06 4.19473e-06 0.0005 5.23599e-07 
154 1 0.0261667 0.0227921 0.0093324 0.0370103 -0.0244246 -0.0157407 -0.00140872 -0.00165303 0.000195483 0.0005 5.23599e-07 
155 1 0.0196 0.0228142 0.00950359 0.000397424 -0.0244546 -0.0450231 -2.27449e-08 -2.48491e-07 -6.32301e-09 0.0005 5.23599e-07 
156 1 0.0220671 0.0171081 0.016115 -0.00671758 0.0542412 0.0232139 6.14595e-06 -9.25146e-06 6.84143e-07 0.0005 5.23599e-07 
157 1 0.0193641 0.0231599 0.0147982 0.000691125 -0.00303683 -1.66933e-05 -9.17252e-06 5.3138e-06 4.10774e-07 0.0005 5.23599e-07 
158 1 0.0188975 0.0221534 0.0163898 0.00349389 0.00955849 0.00201184 0 0 -5.1365e-06 0.0005 5.23599e-07 
159 1 0.0245773 0.0179796 0.0166402 0.00880348 0.0451685 0.0102589 -3.05416e-06 2.47642e-06 5.31516e-06 0.0005 5.23599e-07 
160 1 0.0189631 0.0209846 0.00767613 0.000569065 -0.0450086 -0.0214987 -1.23488e-07 3.73619e-06 2.73622e-06 0.0005 5.23599e-07 
161 1 0.0200372 0.0234219 0.0114117 0.00494445 -0.00509914 -0.0389195 -2.14365e-05 -2.69967e-05 -7.58773e-05 0.0005 5.23599e-07 
162 1 0.0198711 0.0140106 0.0129654 -0.00225387 -0.00120245 -0.00136296 1.71018e-05 1.01881e-05 -3.95302e-05 0.0005 5.23599e-07 
163 1 0.023795 0.0216188 0.016257 -0.0412943 -0.0170268 0.00919072 0 0 -5.1365e-06 0.0005 5.23599e-07 
164 1 0.016054 0.0208352 0.015572 0.0130641 0.00579917 -0.00129025 -2.73377e-05 1.16682e-05 -7.38058e-06 0.0005 5.23599e-07 
165 1 0.0243416 0.0222665 0.0156514 -0.00513336 0.00183032 0.00198894 6.62486e-06 2.04429e-06 -3.61308e-06 0.0005 5.23599e-07 
166 1 0.0182155 0.0229827 0.0149707 -0.00283663 -0.000160521 0.00404327 2.2941e-06 -2.47386e-06 -9.00791e-07 0.0005 5.23599e-07 
167 1 0.0232316 0.0179231 0.0158467 0.00237695 0.0529242 0.0241201 0 0 -5.1365e-06 0.0005 5.23599e-07 
168 1 0.0166908 0.0145691 0.013471 0.00993677 0.00238412 0.00888797 -9.27931e-06 2.16647e-05 3.10215e-05 0.0005 5.23599e-07 
169 1 0.0211944 0.0204857 0.0167281 0.0190814 0.0020168 -0.00971184 0 0 -5.1365e-06 0.0005 5.23599e-07 
170 1 0.0187537 0.0146237 0.0119372 0.000290543 0.00171521 -0.00182782 0 0 -5.1365e-06 0.0005 5.23599e-07 
171 1 0.0253464 0.0186376 0.0169633 -0.000603996 0.0475573 0.0415496 0 0 -5.1365e-06 0.0005 5.23599e-07 
173 1 0.0226309 0.0145606 0.0143348 0.00104653 0.000291255 0.000578654 -1.25617e-06 1.23101e-06 7.04587e-06 0.0005 5.23599e-07 
174 1 0.0218161 0.0217576 0.0159844 -0.0019631 0.0045363 -0.000860919 -2.97693e-06 1.59741e-06 -1.74902e-06 0.0005 5.23599e-07 
175 1 0.0218321 0.0180396 0.0158382 -0.000655056 0.0533909 0.0153229 1.36426e-05 1.4233e-05 1.53816e-06 0.0005 5.23599e-07 
176 1 0.0223089 0.0197946 0.0159143 0.0171917 0.0227391 0.00284652 0 0 -5.1365e-06 0.0005 5.23599e-07 
177 1 0.0180684 0.0230752 0.0160966 0.00448733 -0.00257184 -0.0022211 1.79285e-07 -2.34775e-06 1.16553e-06 0.0005 5.23599e-07 
178 1 0.0184744 0.0155101 0.0156317 -0.0738799 -0.0616819 -0.0777088 0 0 -5.1365e-06 0.0005 5.23599e-07 
179 1 0.0236988 0.0228241 0.0151268 -0.00251755 0.0045392 0.00173917 3.73442e-06 2.32347e-06 -2.93343e-06 0.0005 5.23599e-07 
180 1 0.0186127 0.0235452 0.0142474 -0.00207621 0.00046577 0.0035532 2.17212e-06 9.68863e-08 -7.59904e-06 0.0005 5.23599e-07 
181 1 0.0163365 0.0235352 0.0167424 0.000601318 0.000961609 0.00249312 -3.71707e-07 2.97597e-06 -4.98734e-06 0.0005 5.23599e-07 
182 1 0.0163394 0.0232604 0.0129212 0.00958283 0.00271187 -0.00901681 1.60353e-08 1.47757e-07 3.30116e-07 0.0005 5.23599e-07 
183 1 0.0180208 0.02038 0.0165706 0.0120364 -0.00112876 0.000189648 -9.19599e-07 5.55097e-06 1.36664e-06 0.0005 5.23599e-07 
184 1 0.0191729 0.0202045 0.016642 -0.00494592 -0.00126905 0.000332286 6.26694e-06 -4.45194e-06 -4.45863e-06 0.0005 5.23599e-07 
185 1 0.0173097 0.023895 0.0163418 -0.00116596 -0.000412303 -0.00113398 1.11727e-06 -1.04691e-06 2.22701e-06 0.0005 5.23599e-07 
187 1 0.0224806 0.015836 0.0157514 -0.00536445 -0.0180462 -0.0572324 0 0 -5.1365e-06 0.0005 5.23599e-07 
188 1 0.0221892 0.0226965 0.0160661 -0.0017739 -0.00380868 -0.00196069 0 0 -5.1365e-06 0.0005 5.23599e-07 
189 1 0.015291 0.0226865 0.0154762 -0.0037315 -0.000458399 0.00526527 -2.65608e-06 -5.52392e-06 -1.44871e-06 0.0005 5.23599e-07 
190 1 0.0227993 0.0217489 0.015803 -0.00116017 -0.00070766 0.00114692 3.31795e-06 7.94097e-06 9.03177e-06 0.0005 5.23599e-07 
