ITEM: TIMESTEP
1600000
ITEM: NUMBER OF ATOMS
178
ITEM: BOX BOUNDS ff ff ff
-0.02 0.43
-0.02 0.06
-0.02 0.07
ITEM: ATOMS id type x y z vx vy vz fx fy fz radius mass 
1 1 0.0246385 0.0164734 0.0151447 0.0342187 0.0639626 -0.0151404 0.000368764 0.000740622 -0.000655694 0.0005 5.23599e-07 
2 1 0.0250046 0.0152614 0.0135068 0.00181953 0.0226128 0.0416915 -6.37204e-08 9.82807e-07 1.73102e-06 0.0005 5.23599e-07 
4 1 0.0162692 0.0231627 0.0148381 0.00807934 0.0113067 -0.00822408 -4.48233e-07 4.86319e-06 -4.38148e-06 0.0005 5.23599e-07 
5 1 0.0276623 0.0219327 0.00827693 0.00240735 -0.0358571 -0.0318218 -2.32431e-06 -7.38647e-06 -5.28054e-06 0.0005 5.23599e-07 
6 1 0.0230633 0.0171014 0.0166337 -0.018121 -0.034634 0.04819 0 0 -5.1365e-06 0.0005 5.23599e-07 
7 1 0.0257711 0.0150168 0.0100213 0.000494675 -0.0196611 0.0505803 1.57284e-07 8.0415e-08 -2.62366e-06 0.0005 5.23599e-07 
8 1 0.0253666 0.0196135 0.015915 -0.00833157 0.00508375 0.00313422 6.96781e-07 3.37536e-06 -4.67681e-06 0.0005 5.23599e-07 
9 1 0.0223972 0.0231125 0.015393 0.00645547 -0.0131475 0.0136915 0 0 -5.1365e-06 0.0005 5.23599e-07 
10 1 0.0251547 0.0184698 0.0159132 0.00434886 0.0379255 0.00381348 -4.01644e-06 -4.53399e-06 -3.24124e-06 0.0005 5.23599e-07 
11 1 0.0181196 0.0236655 0.0155759 0.00811622 0.00216498 0.00044402 6.99883e-07 9.49898e-06 3.83597e-06 0.0005 5.23599e-07 
12 1 0.0211488 0.0198376 0.00728688 -0.998171 -0.638272 -0.926299 0.00609391 0.00983886 0.115684 0.0005 5.23599e-07 
13 1 0.0178345 0.0234956 0.0143796 -0.00388174 0.00334752 -0.00154606 1.37167e-05 5.72873e-06 1.48897e-05 0.0005 5.23599e-07 
14 1 0.0187089 0.0240437 0.0162909 0.00744422 0.00229662 0.00642 0 0 -5.1365e-06 0.0005 5.23599e-07 
15 1 0.0168803 0.0232673 0.0133691 0.0102247 0.0060043 -0.00422922 1.4109e-05 1.4575e-05 -1.59148e-05 0.0005 5.23599e-07 
16 1 0.0216709 0.0148895 0.0147299 -0.00119127 0.00377579 -0.00409485 8.70658e-07 7.12005e-07 -2.46269e-06 0.0005 5.23599e-07 
17 1 0.0196929 0.0159485 0.0146835 0.0099626 0.00874062 0.0109696 0 0 -5.1365e-06 0.0005 5.23599e-07 
18 1 0.0204935 0.0164514 0.0151065 0.00433122 0.0242011 0.0195942 -1.06465e-06 -1.40491e-06 6.09119e-06 0.0005 5.23599e-07 
19 1 0.0190881 0.024375 0.0138311 0.0051515 0.00111273 -0.00599335 0.000120824 2.04923e-05 6.57153e-05 0.0005 5.23599e-07 
20 1 0.0206481 0.0237372 0.0137854 -0.00478235 0.00104327 -0.0177144 -4.80016e-05 -0.000160268 0.000256092 0.0005 5.23599e-07 
21 1 0.012802 0.0181809 0.016 0.000820181 0.0346124 0.0415365 0 0 -5.1365e-06 0.0005 5.23599e-07 
22 1 0.02044 0.0163503 0.0081459 -0.000330635 -0.0402938 0.0347581 -2.14516e-05 -7.14979e-06 4.71523e-06 0.0005 5.23599e-07 
23 1 0.0227628 0.0232179 0.0135375 0.00509503 -0.00522784 -0.00380555 -1.03893e-05 1.61204e-05 -8.00318e-06 0.0005 5.23599e-07 
24 1 0.0185672 0.0165973 0.0152236 0.00916676 0.000600296 0.0461725 -2.13517e-05 -2.32921e-05 1.82333e-05 0.0005 5.23599e-07 
25 1 0.0195906 0.0223835 0.0157189 0.00367355 0.00867306 0.00150661 1.65286e-06 7.7943e-06 -5.73313e-06 0.0005 5.23599e-07 
26 1 0.0165325 0.0237742 0.0167857 -0.023825 -0.0235337 -0.0199573 0 0 -5.1365e-06 0.0005 5.23599e-07 
27 1 0.0273898 0.0210087 0.00765807 0.000324929 -0.0438988 -0.0204299 2.60217e-07 -1.01158e-06 -7.92028e-07 0.0005 5.23599e-07 
29 1 0.0168937 0.0141862 0.0135214 0.00188202 -0.00349683 0.00587701 -1.86943e-06 -6.28661e-06 1.18024e-05 0.0005 5.23599e-07 
30 1 0.0217295 0.0222112 0.00866437 0.000617337 -0.0345727 -0.035394 -1.90671e-08 -2.46716e-07 7.75465e-08 0.0005 5.23599e-07 
31 1 0.0160734 0.0222655 0.0159023 0.00811648 0.00585796 -0.0155533 4.68419e-06 -3.18682e-06 8.48218e-06 0.0005 5.23599e-07 
34 1 0.0180104 0.0239258 0.0130608 0.00917377 0.00972403 -0.0085118 3.96951e-05 -4.44982e-05 -1.62776e-05 0.0005 5.23599e-07 
35 1 0.0231852 0.022502 0.0150782 0.00639377 0.00517749 -0.000254363 4.74835e-07 -3.45293e-07 1.23264e-05 0.0005 5.23599e-07 
36 1 0.0211691 0.0241076 0.0143973 -0.0408662 -0.0225685 0.0385204 -0.000175068 -9.22353e-05 0.000291523 0.0005 5.23599e-07 
37 1 0.0179121 0.0229375 0.016362 -0.0149359 -0.000785027 0.00694703 0 0 -5.1365e-06 0.0005 5.23599e-07 
38 1 0.0228418 0.0235656 0.0144942 -0.020255 -0.00409459 -0.0333146 0 0 -5.1365e-06 0.0005 5.23599e-07 
39 1 0.0222336 0.0233128 0.010743 0.00127279 -0.00889027 -0.0440206 1.08948e-05 4.12894e-05 6.38329e-05 0.0005 5.23599e-07 
40 1 0.0180918 0.0194097 0.0159489 0.0234918 0.00304207 0.0185658 -5.7537e-06 1.73134e-05 2.68557e-05 0.0005 5.23599e-07 
41 1 0.016235 0.0237224 0.0140079 0.0077821 0.00578631 0.00331126 9.99281e-07 1.98536e-06 -1.54209e-06 0.0005 5.23599e-07 
42 1 0.0196392 0.0148614 0.0106656 0.000854108 -0.0120603 0.0518921 9.29909e-06 3.36632e-07 -5.12152e-06 0.0005 5.23599e-07 
43 1 0.017178 0.0241995 0.0135576 0.00623462 0.00288425 0.000344605 1.91064e-05 8.59685e-06 -1.73181e-06 0.0005 5.23599e-07 
44 1 0.0170751 0.0196355 0.0181895 -0.0334734 0.0714465 0.221549 0 0 -5.1365e-06 0.0005 5.23599e-07 
45 1 0.039852 0.0190547 0.00569119 -3.57044e-15 1.7041e-14 -8.42603e-14 -6.29981e-21 1.52466e-20 3.38813e-21 0.0005 5.23599e-07 
46 1 0.018068 0.0225298 0.01431 0.0108176 0.0108655 -0.0116097 -3.34889e-05 1.10973e-05 -1.14766e-06 0.0005 5.23599e-07 
48 1 0.0201189 0.0213081 0.0162453 0.014572 0.0542246 -0.0227036 0 0 -5.1365e-06 0.0005 5.23599e-07 
49 1 0.0233183 0.0226392 0.0141217 0.0011923 -4.22279e-05 -0.000821058 -3.23641e-06 -3.71558e-06 4.73705e-06 0.0005 5.23599e-07 
50 1 0.0174901 0.0210404 0.0164318 0.0082931 0.0429653 -0.015063 0 0 -5.1365e-06 0.0005 5.23599e-07 
51 1 0.0210842 0.0143724 0.0130767 0.0221449 -0.0104726 0.0151272 0 0 -5.1365e-06 0.0005 5.23599e-07 
52 1 0.0208859 0.0240324 0.0129636 0.000770126 -2.8169e-05 -0.00448339 -0.00013233 -7.72823e-06 6.98956e-06 0.0005 5.23599e-07 
53 1 0.0234738 0.0150147 0.0148644 -0.00110074 0.00141889 -0.00226689 4.099e-07 -8.88715e-06 1.46548e-05 0.0005 5.23599e-07 
54 1 0.0240148 0.0169547 0.0179035 -0.0583189 0.00724168 -0.0551013 0 0 -5.1365e-06 0.0005 5.23599e-07 
55 1 0.0225181 0.0233986 0.0117331 0.000423073 0.00541864 -0.0540766 -2.84361e-09 -2.25536e-07 -2.65452e-07 0.0005 5.23599e-07 
57 1 0.0169708 0.0239167 0.0146563 0.0110307 0.0186264 -0.00366135 -3.43591e-06 -1.52884e-06 6.37529e-07 0.0005 5.23599e-07 
58 1 0.0183518 0.0174652 0.0156679 0.00753213 0.00640549 0.034396 1.13067e-05 -1.79608e-05 -6.02973e-07 0.0005 5.23599e-07 
59 1 0.017563 0.0212581 0.0154385 0.0158568 -0.000463834 0.0154881 -2.0846e-05 5.27115e-06 -7.58645e-06 0.0005 5.23599e-07 
60 1 0.0195652 0.0141436 0.0142622 0.00592951 0.012456 0.00432312 5.23165e-06 -6.26575e-06 2.53635e-05 0.0005 5.23599e-07 
61 1 0.0171079 0.0227229 0.0141662 0.0097156 0.0042338 -0.00538367 -1.81246e-05 2.32393e-05 -3.29374e-05 0.0005 5.23599e-07 
62 1 0.0211154 0.0227516 0.016315 -0.0073444 0.0077346 -0.00540886 0 0 -5.1365e-06 0.0005 5.23599e-07 
63 1 0.0203528 0.0151984 0.0146271 0.0271971 0.0219452 0.0208705 0 0 -5.1365e-06 0.0005 5.23599e-07 
64 1 0.0216901 0.020259 0.0166341 -0.000571974 0.0613862 -0.0115264 0 0 -5.1365e-06 0.0005 5.23599e-07 
65 1 0.0209241 0.0144344 0.0142427 -0.000547202 0.0092689 -0.00788211 1.10845e-05 8.11846e-07 6.71644e-06 0.0005 5.23599e-07 
66 1 0.0251255 0.021433 0.0162348 -0.00775968 0.00437364 -0.00797387 0 0 -5.1365e-06 0.0005 5.23599e-07 
68 1 0.0153122 0.0184358 0.0176978 0.014326 -0.0566158 0.0247709 0 0 -5.1365e-06 0.0005 5.23599e-07 
69 1 0.0153096 0.0233261 0.0145696 0.00575418 0.0055386 -0.00331935 5.22211e-06 -1.30285e-06 2.75614e-05 0.0005 5.23599e-07 
70 1 0.0256649 0.020571 0.016631 -0.00597956 0.00699369 -0.000947318 4.18761e-09 -1.03058e-07 -4.96163e-06 0.0005 5.23599e-07 
71 1 0.0144724 0.0229764 0.0149896 0.00828844 0.00594924 -0.00918326 -2.69207e-06 -3.91987e-05 4.0428e-05 0.0005 5.23599e-07 
72 1 0.0191266 0.0147198 0.0132678 -0.00199975 -0.0036578 0.0629272 -6.02894e-05 -2.17459e-05 0.00011468 0.0005 5.23599e-07 
73 1 0.0195209 0.0208501 0.0155687 0.00497363 0.0190595 -0.00927534 0 0 -5.1365e-06 0.0005 5.23599e-07 
74 1 0.020022 0.024425 0.0135221 0.00733432 0.00203115 -0.0117305 -0.000102581 -7.13049e-05 0.000197259 0.0005 5.23599e-07 
75 1 0.0252639 0.0182516 0.0195385 -0.0188096 -0.0467458 -0.013729 0 0 -5.1365e-06 0.0005 5.23599e-07 
76 1 0.0181099 0.0243452 0.0139385 -0.000932272 0.000728789 -0.00145968 0.000103017 8.0331e-06 -2.82567e-05 0.0005 5.23599e-07 
77 1 0.0149074 0.0219653 0.0158665 -0.0158251 0.0129937 -0.00784228 0 0 -5.1365e-06 0.0005 5.23599e-07 
78 1 0.0227473 0.0231359 0.0100794 0.000413015 -0.00810763 -0.0333218 -4.73034e-05 1.34753e-05 1.70296e-05 0.0005 5.23599e-07 
79 1 0.0221148 0.0229774 0.0164633 -0.0646441 0.0246698 0.0391035 0 0 -5.1365e-06 0.0005 5.23599e-07 
81 1 0.0201077 0.0177396 0.0157584 0.00623016 0.0303306 0.00725416 -5.28701e-07 6.43516e-09 6.66602e-07 0.0005 5.23599e-07 
82 1 0.01905 0.022587 0.0142083 0.00491697 0.0265159 -0.0330715 8.89688e-06 1.91504e-05 2.47693e-06 0.0005 5.23599e-07 
83 1 0.0215723 0.0225446 0.0154313 -0.0011342 -0.00607748 -0.00979948 0 0 -5.1365e-06 0.0005 5.23599e-07 
84 1 0.0336017 0.0195831 0.00585649 -1.97426e-16 -9.86696e-16 3.79445e-15 2.64698e-21 1.3976e-20 -4.74338e-20 0.0005 5.23599e-07 
85 1 0.0198327 0.0152216 0.0137714 0.00756377 0.0179986 0.0282155 0 0 -5.1365e-06 0.0005 5.23599e-07 
86 1 0.0153683 0.0226663 0.0153177 0.00329242 0.00731272 -0.00347015 5.7555e-06 -3.64625e-06 2.10503e-05 0.0005 5.23599e-07 
87 1 0.0203108 0.0238404 0.014839 -0.00594065 0.00935572 -0.0148532 2.22045e-06 -8.4697e-06 7.73632e-08 0.0005 5.23599e-07 
88 1 0.0192767 0.0237534 0.0154979 0.0140882 0.00213815 -0.000639942 -6.1092e-07 -1.42567e-06 -4.36746e-06 0.0005 5.23599e-07 
89 1 0.0270127 0.019337 0.0071791 0.00278231 -0.0431063 -0.00524817 -5.97784e-07 -1.60932e-06 3.77657e-07 0.0005 5.23599e-07 
90 1 0.0288723 0.0229 0.0134154 -0.000809284 0.0259967 -0.045947 -3.97643e-06 2.92263e-06 -8.42735e-06 0.0005 5.23599e-07 
91 1 0.0207497 0.0229576 0.0150039 -0.00115091 0.0129339 -0.0108347 3.05076e-06 -1.72984e-07 -5.89746e-06 0.0005 5.23599e-07 
92 1 0.0178442 0.023042 0.0134839 0.0113927 0.00884096 -0.00949523 -3.79127e-05 1.3391e-05 -1.81798e-05 0.0005 5.23599e-07 
93 1 0.0151604 0.01513 0.0150247 -0.00502223 -0.0686825 -0.0566807 0 0 -5.1365e-06 0.0005 5.23599e-07 
94 1 0.0172371 0.0226618 0.0171753 0.0425585 -0.0412504 -0.127184 0 0 -5.1365e-06 0.0005 5.23599e-07 
95 1 0.0234274 0.0215224 0.015279 0.00778443 0.00555317 0.00172113 -1.89048e-07 6.8436e-06 1.72148e-05 0.0005 5.23599e-07 
96 1 0.0225292 0.0152199 0.0151222 0.00396411 -0.00848381 -0.00419584 6.20977e-07 7.38689e-07 -4.11658e-06 0.0005 5.23599e-07 
97 1 0.0193322 0.0241015 0.0128853 0.00378008 0.00330417 0.00630785 -3.51877e-05 7.52353e-05 -2.68216e-05 0.0005 5.23599e-07 
98 1 0.0187396 0.0232539 0.012952 0.00554045 0.00993306 -0.0287638 1.60971e-05 1.77951e-06 -1.29413e-05 0.0005 5.23599e-07 
99 1 0.0194262 0.0170447 0.0154808 0.00712876 0.022156 0.0134186 -3.20233e-07 3.75585e-07 -1.48385e-06 0.0005 5.23599e-07 
100 1 0.0216518 0.0232752 0.0147091 0.00517358 -0.000781772 0.000314189 0 0 -5.1365e-06 0.0005 5.23599e-07 
101 1 0.0209239 0.0236876 0.0160173 0.00288699 -0.0011834 -9.39395e-05 1.59486e-06 5.8604e-06 -2.09562e-06 0.0005 5.23599e-07 
102 1 0.0224024 0.0219885 0.015943 -0.00299917 0.00229103 -0.00571448 0 0 -5.1365e-06 0.0005 5.23599e-07 
103 1 0.02593 0.0196223 0.0170635 -0.0387631 0.00567747 -0.00682393 0 0 -5.1365e-06 0.0005 5.23599e-07 
105 1 0.024011 0.0220661 0.0147984 0.00239901 0.000833277 0.000438743 -2.61306e-06 -2.10775e-05 -1.24242e-05 0.0005 5.23599e-07 
106 1 0.0211749 0.0188828 0.00711568 0.26357 0.758652 -7.54235 0.0157789 0.199473 0.843927 0.0005 5.23599e-07 
107 1 0.0150996 0.0221177 0.0168477 0.021063 0.00368706 -0.0549445 0 0 -5.1365e-06 0.0005 5.23599e-07 
108 1 0.0261197 0.0158058 0.00864872 0.00205646 -0.0316239 0.0342846 -7.35215e-07 -2.66061e-06 2.44467e-06 0.0005 5.23599e-07 
109 1 0.0205469 0.015073 0.00985847 0.00930209 -0.00906724 0.0250505 -2.52187e-05 -1.46145e-05 3.60446e-05 0.0005 5.23599e-07 
110 1 0.0218591 0.0143737 0.0138942 0.00336173 0.000741056 -4.1106e-05 7.07802e-08 -1.75114e-06 1.49599e-05 0.0005 5.23599e-07 
111 1 0.0253833 0.0205832 0.0156716 -0.00845201 0.00598101 -0.00083485 5.22653e-07 3.11496e-06 -1.35448e-06 0.0005 5.23599e-07 
112 1 0.0210591 0.0154453 0.015293 0.0356375 0.0287105 0.0134106 0 0 -5.1365e-06 0.0005 5.23599e-07 
113 1 0.0227839 0.0159381 0.0164773 -0.100278 0.0690008 0.0858236 0 0 -5.1365e-06 0.0005 5.23599e-07 
114 1 0.0239751 0.0192789 0.0159421 0.00126684 0.0509072 -0.00413927 0 0 -5.1365e-06 0.0005 5.23599e-07 
115 1 0.0233737 0.0231668 0.0127614 -0.00115325 0.00619754 -0.0111247 2.84581e-06 -7.60392e-08 2.43791e-06 0.0005 5.23599e-07 
116 1 0.0195813 0.0198895 0.0158635 0.00915627 0.023907 -0.00631757 0 0 -5.1365e-06 0.0005 5.23599e-07 
117 1 0.0178447 0.0140773 0.0132013 -0.000828501 0.00113544 -0.0023713 8.64096e-07 -1.59405e-06 3.41642e-07 0.0005 5.23599e-07 
118 1 0.0241262 0.0202849 0.015804 -0.00280042 0.0242898 -0.0188216 0 0 -5.1365e-06 0.0005 5.23599e-07 
119 1 0.0192715 0.0216858 0.015078 0.0100721 0.0196083 -0.015065 1.75707e-05 4.4106e-06 -6.79755e-06 0.0005 5.23599e-07 
120 1 0.0157662 0.0159148 0.0163234 -0.0750163 -0.0752582 -0.118923 0 0 -5.1365e-06 0.0005 5.23599e-07 
121 1 0.0255697 0.0175987 0.0164477 -0.00330846 0.0126736 -0.0106351 -1.59642e-06 -7.75046e-08 -3.27842e-06 0.0005 5.23599e-07 
122 1 0.0168225 0.0229833 0.0156567 0.0236381 -0.0076268 -0.0194515 0 0 -5.1365e-06 0.0005 5.23599e-07 
123 1 0.0245777 0.0176357 0.01657 -0.000686982 0.0320719 0.0128889 0 0 -5.1365e-06 0.0005 5.23599e-07 
124 1 0.0186924 0.0219821 0.0158966 0.00273771 -0.000511002 -0.00885555 -4.84883e-06 -3.00831e-06 -8.6913e-07 0.0005 5.23599e-07 
125 1 0.0185784 0.0138127 0.0138271 0.000708338 -0.00356019 -0.00648589 -4.60395e-06 -6.39894e-07 5.39728e-06 0.0005 5.23599e-07 
126 1 0.0184357 0.014443 0.0148849 0.0200581 -0.0156183 0.035029 0 0 -5.1365e-06 0.0005 5.23599e-07 
127 1 0.0177785 0.0227479 0.0153741 0.00890323 0.00295363 0.005687 1.45245e-05 1.69911e-05 -6.62817e-07 0.0005 5.23599e-07 
128 1 0.0264544 0.0168847 0.00775194 0.00143577 -0.0388808 0.0245353 -4.17906e-07 -1.29695e-06 1.70137e-06 0.0005 5.23599e-07 
129 1 0.0279692 0.0228467 0.00934454 0.00231667 -0.0197065 -0.0364186 1.05812e-06 3.18583e-06 5.21453e-06 0.0005 5.23599e-07 
131 1 0.0187558 0.0156653 0.0149188 0.00371268 -0.00452153 0.0569038 -2.26028e-06 -1.95132e-05 5.22599e-05 0.0005 5.23599e-07 
132 1 0.0243975 0.0173445 0.0156076 -0.000726477 0.0487552 -0.00554869 0 0 -5.1365e-06 0.0005 5.23599e-07 
133 1 0.0203679 0.0137767 0.0137354 0.00562551 -0.00107629 0.000262825 -1.28838e-05 -3.14901e-06 1.73637e-05 0.0005 5.23599e-07 
134 1 0.0219894 0.0237951 0.0139043 -0.00700358 -0.0106105 -0.0164243 0 0 -5.1365e-06 0.0005 5.23599e-07 
135 1 0.0173858 0.0233616 0.0125661 0.0064499 0.00674688 -0.00551294 8.8963e-05 -1.91013e-05 -2.16931e-06 0.0005 5.23599e-07 
136 1 0.0173196 0.0220294 0.0148528 0.0102112 -0.0003768 0.00695146 -2.63462e-05 2.32461e-05 -2.24493e-05 0.0005 5.23599e-07 
137 1 0.0199782 0.0147116 0.0115678 -0.000537468 -0.00753629 0.070217 -3.3545e-05 -5.54355e-06 6.58042e-05 0.0005 5.23599e-07 
138 1 0.0196865 0.0236158 0.0140907 -0.0064945 -0.0167605 0.00377401 0 0 -5.1365e-06 0.0005 5.23599e-07 
139 1 0.0190154 0.0190215 0.0159422 0.01546 0.0218379 0.000891849 -1.50918e-06 2.69683e-06 8.98976e-07 0.0005 5.23599e-07 
140 1 0.0241574 0.0158612 0.0157644 0.0229217 0.136562 -0.0516067 -0.000368764 -0.000740622 0.000645421 0.0005 5.23599e-07 
141 1 0.0216822 0.0185992 0.0169237 -0.0219881 0.0361872 0.000371213 0 0 -5.1365e-06 0.0005 5.23599e-07 
142 1 0.0327957 0.0190095 0.00571076 1.54194e-16 1.33773e-15 3.96625e-15 8.47033e-22 -9.84676e-21 -4.48927e-20 0.0005 5.23599e-07 
143 1 0.0194504 0.0137776 0.0133391 0.00134623 -0.00605912 0.0125276 -5.112e-06 -2.1588e-05 1.53977e-05 0.0005 5.23599e-07 
144 1 0.0241703 0.0182998 0.0158809 0.000279078 0.048282 0.00674966 5.70661e-06 1.55112e-05 -2.26651e-06 0.0005 5.23599e-07 
145 1 0.0189537 0.0149864 0.014214 0.0071832 -0.00885902 0.0604266 -1.70856e-05 7.03659e-06 5.18385e-05 0.0005 5.23599e-07 
146 1 0.0185198 0.0209761 0.0155075 0.0194295 0.017198 -0.012225 3.12658e-06 -3.27342e-07 1.13914e-06 0.0005 5.23599e-07 
147 1 0.01604 0.0144271 0.0139983 0.00170464 -0.00137521 -0.00199555 1.56141e-06 2.0865e-06 -1.87509e-06 0.0005 5.23599e-07 
148 1 0.019914 0.015951 0.0157498 0.0147555 -0.0117254 -0.00386749 0 0 -5.1365e-06 0.0005 5.23599e-07 
149 1 0.00979445 0.0180949 0.0375095 0.0997985 -0.0180989 -0.171712 0 0 -5.1365e-06 0.0005 5.23599e-07 
150 1 0.020684 0.0180204 0.00731994 0.00207981 -0.0477145 0.0062824 -1.24119e-06 -8.06233e-06 1.80251e-06 0.0005 5.23599e-07 
151 1 0.0272566 0.0185265 0.00720232 4.18102e-05 -0.0481539 0.00725738 1.71524e-06 4.7254e-07 4.67357e-08 0.0005 5.23599e-07 
152 1 0.0217925 0.0149674 0.0157848 0.0322192 0.00615311 -0.00225642 0 0 -5.1365e-06 0.0005 5.23599e-07 
153 1 0.0169695 0.021833 0.0160009 0.0158337 0.017077 0.00254634 -1.00663e-05 6.47237e-06 1.26517e-05 0.0005 5.23599e-07 
154 1 0.0268899 0.0162355 0.00824657 0.00145836 -0.0398268 0.0249933 -1.33393e-06 1.8225e-08 -4.34869e-07 0.0005 5.23599e-07 
155 1 0.0198466 0.0152528 0.00951286 0.00320777 -0.0142806 0.0266774 -2.56298e-06 -1.04926e-05 7.32024e-06 0.0005 5.23599e-07 
156 1 0.0251486 0.0167855 0.0160257 -0.00540122 0.00447345 -0.0111354 0 0 -5.1365e-06 0.0005 5.23599e-07 
157 1 0.0197079 0.0230093 0.0149475 0.0199374 -0.0186743 0.00210346 0 0 -5.1365e-06 0.0005 5.23599e-07 
158 1 0.0152499 0.0210042 0.0172893 0.0166776 -0.0129572 -0.0183877 0 0 -5.1365e-06 0.0005 5.23599e-07 
159 1 0.0247604 0.0191341 0.0165494 -0.0130382 0.0202504 0.0109831 -6.43761e-07 -1.461e-06 -4.65007e-06 0.0005 5.23599e-07 
160 1 0.0193412 0.0145285 0.0123129 0.00175164 0.000280946 0.0741165 -3.79236e-05 -3.43315e-05 1.38665e-05 0.0005 5.23599e-07 
161 1 0.0204989 0.0171176 0.00762947 0.00151967 -0.0343888 0.0175838 3.70668e-06 -7.68534e-06 4.92997e-06 0.0005 5.23599e-07 
162 1 0.0208218 0.0146135 0.012092 0.0298923 0.0041922 0.0423117 0.000162908 -1.70226e-05 0.000121906 0.0005 5.23599e-07 
163 1 0.0241189 0.021273 0.0161696 -0.0115858 0.0381286 -0.00151293 0 0 -5.1365e-06 0.0005 5.23599e-07 
164 1 0.0182822 0.0218053 0.0150015 0.0116497 0.00864061 -0.0128143 5.15989e-07 -4.43331e-06 4.02412e-05 0.0005 5.23599e-07 
165 1 0.024417 0.0222104 0.0157003 0.000896756 0.00578831 0.00758023 1.11527e-05 -8.88981e-06 9.59547e-06 0.0005 5.23599e-07 
166 1 0.0187361 0.0229692 0.0151853 0.0144776 -0.00332809 0.000218376 0 0 -5.1365e-06 0.0005 5.23599e-07 
167 1 0.0246896 0.0212927 0.0153433 -0.0131262 0.0160592 -0.00695949 -8.41745e-06 -1.42645e-05 2.4301e-06 0.0005 5.23599e-07 
168 1 0.0181569 0.0184141 0.0159094 0.0141102 0.00851337 0.0196206 1.71885e-05 3.19566e-06 3.28047e-05 0.0005 5.23599e-07 
169 1 0.0217573 0.015951 0.0159934 -0.138506 -0.00858535 0.0355415 0 0 -5.1365e-06 0.0005 5.23599e-07 
170 1 0.0201237 0.0146956 0.0129201 0.0158872 0.0061389 0.0443947 0 0 -5.1365e-06 0.0005 5.23599e-07 
171 1 0.0258375 0.0186701 0.0166151 0.00780743 0.015004 0.00553081 2.7519e-05 7.37282e-06 8.38674e-06 0.0005 5.23599e-07 
173 1 0.022723 0.014611 0.0143389 -0.00236885 -0.00347929 -0.000566184 -1.45906e-08 3.16224e-06 -2.87026e-06 0.0005 5.23599e-07 
174 1 0.0205795 0.0222208 0.0156584 -0.00979282 0.0126062 -0.00895108 6.32309e-08 8.52486e-07 -4.71006e-06 0.0005 5.23599e-07 
175 1 0.02343 0.0179735 0.0201795 -0.00398813 -0.0841243 0.0469592 0 0 -5.1365e-06 0.0005 5.23599e-07 
176 1 0.023725 0.0201408 0.0170529 -0.0306958 -0.00796368 -0.072594 0 0 -5.1365e-06 0.0005 5.23599e-07 
177 1 0.0189562 0.0228468 0.0164022 -0.00101392 0.0291724 -0.0182392 0 0 -5.1365e-06 0.0005 5.23599e-07 
178 1 0.0187613 0.0151833 0.016195 -0.00420955 0.00317707 -0.0047859 0 0 -5.1365e-06 0.0005 5.23599e-07 
179 1 0.0234382 0.0233584 0.0153527 0.00222456 0.00101559 0.0001747 -3.36886e-06 4.36287e-06 4.48591e-06 0.0005 5.23599e-07 
180 1 0.0187638 0.023814 0.0145926 0.00623705 -0.00643899 -0.00614108 -4.6015e-07 -1.74752e-06 -4.51675e-06 0.0005 5.23599e-07 
181 1 0.0157879 0.0228626 0.0166523 0.00269526 -0.00202083 -0.00313979 6.88067e-06 -4.55055e-06 5.13654e-06 0.0005 5.23599e-07 
182 1 0.0175893 0.0234539 0.0116442 0.000533409 0.00352787 -0.00594704 2.70214e-05 -1.4241e-05 -3.32287e-05 0.0005 5.23599e-07 
183 1 0.0177874 0.0203443 0.0157728 0.021 -0.00016974 0.0199721 -1.6082e-05 1.21907e-05 1.17237e-05 0.0005 5.23599e-07 
184 1 0.0176067 0.0145054 0.0141937 0.0220019 -0.00428869 -0.0175297 0 0 -5.1365e-06 0.0005 5.23599e-07 
185 1 0.0172498 0.0237912 0.0160687 0.00062875 -0.00147271 -0.00439545 1.54872e-06 -1.08831e-05 6.46588e-06 0.0005 5.23599e-07 
187 1 0.0216323 0.0169012 0.0164713 -0.0719232 0.0348241 0.0335945 0 0 -5.1365e-06 0.0005 5.23599e-07 
188 1 0.0200282 0.0232457 0.0159731 9.63407e-05 0.00568702 0.01718 4.24194e-06 -2.99552e-06 -3.41034e-06 0.0005 5.23599e-07 
189 1 0.0139599 0.0223532 0.0155827 0.00075748 0.00972025 -0.00851374 0 0 -5.1365e-06 0.0005 5.23599e-07 
190 1 0.0233828 0.0219478 0.0162845 -0.0029919 0.0470238 -0.0125735 0 0 -5.1365e-06 0.0005 5.23599e-07 
