ITEM: TIMESTEP
2000000
ITEM: NUMBER OF ATOMS
178
ITEM: BOX BOUNDS ff ff ff
-0.02 0.43
-0.02 0.06
-0.02 0.07
ITEM: ATOMS id type x y z vx vy vz fx fy fz radius mass 
1 1 0.0250432 0.0165926 0.0159647 0.0228212 -0.000333806 0.0178089 -3.31928e-05 -1.23195e-05 3.15992e-05 0.0005 5.23599e-07 
2 1 0.0266813 0.0226218 0.00901133 -0.00103543 -0.0164319 -0.0317758 2.7396e-05 -0.000103942 -0.000191906 0.0005 5.23599e-07 
4 1 0.0165708 0.0232713 0.0149389 0.00988159 -0.00494503 0.0057627 7.9377e-06 1.29017e-06 -2.17457e-05 0.0005 5.23599e-07 
5 1 0.0284672 0.0203368 0.0155684 0.00778328 0.0292343 -0.0117889 9.85007e-06 3.37856e-06 -1.93463e-05 0.0005 5.23599e-07 
6 1 0.0207238 0.0147068 0.0152232 -0.0177651 -0.000532741 -0.0109288 0 0 -5.1365e-06 0.0005 5.23599e-07 
7 1 0.0268289 0.022985 0.00968554 0.00293269 -0.0221516 -0.0478335 0.000103284 -7.82094e-05 -2.57471e-05 0.0005 5.23599e-07 
8 1 0.0260714 0.020541 0.00745654 -0.000155833 -0.047799 -0.0180152 9.45368e-08 -1.04945e-07 2.29822e-07 0.0005 5.23599e-07 
9 1 0.0229004 0.0219256 0.0156649 0.0042371 0.00484525 -0.0110818 -4.33099e-06 1.95168e-05 -2.92579e-05 0.0005 5.23599e-07 
10 1 0.0264829 0.0218953 0.00832955 0.00071496 -0.0380324 -0.0332637 -5.81196e-08 -3.03795e-07 -7.11521e-09 0.0005 5.23599e-07 
11 1 0.0181936 0.0236443 0.0154946 -0.0020802 0.000823414 0.00701173 -5.39398e-06 1.20179e-06 -1.88722e-06 0.0005 5.23599e-07 
12 1 0.022947 0.0184059 0.0160661 0.0148633 -0.0180037 0.0575256 0 0 -5.1365e-06 0.0005 5.23599e-07 
13 1 0.0185465 0.0239299 0.0133431 0.00038835 -0.00471889 -0.00597114 8.62727e-06 8.66331e-07 -1.97272e-06 0.0005 5.23599e-07 
14 1 0.019101 0.0239634 0.0160147 8.70453e-05 -0.00409565 -0.010179 6.98473e-06 -2.79985e-06 -2.37161e-06 0.0005 5.23599e-07 
15 1 0.0184647 0.0240545 0.0124306 -0.00176734 0.00246245 -0.00663017 -1.02824e-05 8.15642e-06 -5.57164e-06 0.0005 5.23599e-07 
16 1 0.0234877 0.0200482 0.0158468 0.00730071 0.000181212 0.00578757 0 0 -5.1365e-06 0.0005 5.23599e-07 
17 1 0.0187436 0.0146002 0.0138112 -0.000333061 0.00476153 -0.0106775 1.74879e-07 5.42881e-07 -4.10432e-06 0.0005 5.23599e-07 
18 1 0.0214716 0.0147713 0.0145527 -0.00599928 0.00975774 -0.00448182 0 0 -5.1365e-06 0.0005 5.23599e-07 
19 1 0.0191476 0.0245154 0.013681 0.000527774 -0.000298382 -0.00168628 1.06424e-05 -6.30575e-07 -1.20541e-05 0.0005 5.23599e-07 
20 1 0.0210874 0.0241507 0.014188 -0.0047743 -0.00487513 0.00831701 -4.6915e-06 -3.75036e-06 2.04473e-06 0.0005 5.23599e-07 
21 1 0.0157512 0.0230645 0.0134091 0.0114589 0.00393935 -0.00945745 4.53544e-07 4.36267e-07 -4.57898e-07 0.0005 5.23599e-07 
22 1 0.019351 0.0141187 0.0144434 0.00487577 -0.01325 -0.030271 0 0 -5.1365e-06 0.0005 5.23599e-07 
23 1 0.0241162 0.0147861 0.0121744 0.0837413 -0.0422607 -0.0486189 -0.00297835 -0.0246849 0.0371098 0.0005 5.23599e-07 
24 1 0.0215599 0.0232171 0.0129649 0.00221097 0.0208706 -0.0461773 2.66365e-05 -2.841e-05 8.64409e-05 0.0005 5.23599e-07 
25 1 0.0184569 0.0148041 0.014758 -0.00437657 -0.0143301 -0.00940941 0 0 -5.1365e-06 0.0005 5.23599e-07 
26 1 0.0168832 0.0234974 0.0158614 0.00731119 -0.00184546 0.00411513 4.0193e-06 -5.72291e-06 -1.99144e-07 0.0005 5.23599e-07 
27 1 0.0282642 0.0211035 0.0152761 0.00697785 0.0264927 -0.013386 -1.73309e-06 4.82147e-06 2.16249e-06 0.0005 5.23599e-07 
29 1 0.0182064 0.0146279 0.0119596 0.0111044 -0.00118623 0.00298175 -8.05103e-07 1.98337e-07 -1.05135e-06 0.0005 5.23599e-07 
30 1 0.0233109 0.016454 0.0159585 0.0158664 -0.02857 0.0894687 0 0 -5.1365e-06 0.0005 5.23599e-07 
31 1 0.0168901 0.0222034 0.0157532 0.00775549 -0.00631327 -0.0313789 0 0 -5.1365e-06 0.0005 5.23599e-07 
34 1 0.0193944 0.0241019 0.012823 0.000386828 0.00205173 -0.0016821 1.71983e-05 4.24058e-06 -5.47377e-06 0.0005 5.23599e-07 
35 1 0.0243269 0.0212832 0.0165488 0.000361142 -0.00252545 -0.00166991 1.05516e-07 3.11563e-06 -4.55396e-06 0.0005 5.23599e-07 
36 1 0.0220082 0.0238085 0.0138508 0.00782624 0.00284975 -0.0048377 1.64341e-05 4.91452e-05 0.000120324 0.0005 5.23599e-07 
37 1 0.0181876 0.0240428 0.0164133 -0.000212368 -0.00293139 -0.00666297 -6.69371e-06 -6.01075e-07 -3.7915e-06 0.0005 5.23599e-07 
38 1 0.0240412 0.0225693 0.0154437 0.00088462 0.00237147 8.66627e-05 -8.7614e-06 4.7725e-06 -1.38429e-05 0.0005 5.23599e-07 
39 1 0.0234921 0.0160421 0.0150602 0.0107654 0.0128979 0.0620929 0 0 -5.1365e-06 0.0005 5.23599e-07 
40 1 0.0192151 0.0222849 0.0156493 0.0019093 0.0132092 -0.00682006 3.29267e-06 8.87182e-06 -4.33229e-06 0.0005 5.23599e-07 
41 1 0.0165924 0.0238316 0.0137013 -0.000128689 -0.00330222 -0.0013726 6.26579e-06 -1.06762e-06 8.81798e-06 0.0005 5.23599e-07 
42 1 0.0219562 0.0223988 0.0147007 -0.000176979 0.0238296 -0.0293754 -1.44421e-05 -1.42871e-05 -2.85414e-05 0.0005 5.23599e-07 
43 1 0.0173565 0.0240253 0.0130867 0.00171331 -0.000434137 -0.000157498 1.29052e-05 3.18469e-06 -2.37643e-06 0.0005 5.23599e-07 
44 1 0.0178243 0.0226575 0.0140962 0.0154255 -3.38701e-06 0.00206196 1.27175e-05 -1.86664e-06 7.21511e-06 0.0005 5.23599e-07 
45 1 0.0406138 0.0191626 0.00568074 -3.5943e-12 -1.72468e-10 -3.46949e-11 -8.37921e-13 1.13232e-13 5.96384e-14 0.0005 5.23599e-07 
46 1 0.0204832 0.0240659 0.0125751 -0.0013655 0.00282294 -0.00432367 1.27472e-05 -3.3287e-06 1.05939e-05 0.0005 5.23599e-07 
48 1 0.014855 0.0220695 0.0180672 -0.0070819 0.0128364 -0.0935199 0 0 -5.1365e-06 0.0005 5.23599e-07 
49 1 0.0243797 0.0147961 0.0107878 0.000487385 -0.00912045 0.0506199 -1.50228e-08 2.00694e-07 1.45452e-07 0.0005 5.23599e-07 
50 1 0.0205328 0.0221074 0.0168176 -0.00959562 0.0048972 -0.00752927 -8.96309e-07 -6.2746e-06 4.00119e-07 0.0005 5.23599e-07 
51 1 0.0215142 0.0142732 0.0136833 0.00120366 0.000850021 -0.00076032 0 0 -5.1365e-06 0.0005 5.23599e-07 
52 1 0.0212272 0.0239975 0.0132205 -0.019594 0.00715139 0.00825027 -5.282e-06 1.45853e-05 8.11075e-05 0.0005 5.23599e-07 
53 1 0.0224262 0.0167181 0.0163938 -0.0280284 0.0418767 -0.0098604 0 0 -5.1365e-06 0.0005 5.23599e-07 
54 1 0.0242573 0.0211117 0.015436 0.00234465 0.0299458 -0.0160349 2.22902e-05 -3.7096e-05 -7.11255e-06 0.0005 5.23599e-07 
55 1 0.0235913 0.0155816 0.0141737 0.0124092 0.0292623 0.0653854 2.61316e-05 -1.74172e-05 9.15429e-08 0.0005 5.23599e-07 
57 1 0.0171272 0.0239952 0.0145362 0.00043921 -0.00165928 0.00149074 7.52585e-06 1.3562e-05 1.48175e-05 0.0005 5.23599e-07 
58 1 0.0211578 0.0233353 0.0110195 0.00143121 -0.0035093 -0.0346822 -2.0823e-06 5.86949e-06 7.05317e-05 0.0005 5.23599e-07 
59 1 0.0162272 0.0216399 0.0152405 0.00904763 -0.00747649 -0.0321785 7.76131e-05 5.95721e-05 -1.15657e-05 0.0005 5.23599e-07 
60 1 0.0190232 0.0138667 0.0131917 0.0102279 0.000394944 -0.000619755 -2.6378e-06 3.15268e-06 -4.02493e-06 0.0005 5.23599e-07 
61 1 0.0193831 0.0174506 0.00747585 0.108234 0.432507 0.258039 0.0070698 0.00883069 -0.00202867 0.0005 5.23599e-07 
62 1 0.0172188 0.0212742 0.0153588 0.0168804 -0.00964651 -0.00291488 0 0 -5.1365e-06 0.0005 5.23599e-07 
63 1 0.0211332 0.0226847 0.0153551 0.0100315 -0.00749604 0.00929437 1.84118e-05 -3.52563e-05 3.68994e-05 0.0005 5.23599e-07 
64 1 0.0247469 0.0203992 0.0167521 4.3073e-05 -0.00142513 0.00301782 -2.97694e-06 -1.74319e-06 -4.89312e-07 0.0005 5.23599e-07 
65 1 0.0199191 0.014912 0.0146647 -0.014382 -0.00342442 -0.016163 -1.77937e-06 -3.14795e-06 1.11169e-06 0.0005 5.23599e-07 
66 1 0.0248719 0.0184047 0.0168253 0.0338953 -0.0131321 -0.0157772 -2.8e-06 -1.338e-06 3.72786e-06 0.0005 5.23599e-07 
68 1 0.0179488 0.0149872 0.0133417 -0.00714546 -0.00256689 -0.00665522 0 0 -5.1365e-06 0.0005 5.23599e-07 
69 1 0.0158398 0.0235758 0.0143075 -0.0015 -0.00506349 -0.00556663 -6.05491e-06 7.12924e-07 7.57638e-06 0.0005 5.23599e-07 
70 1 0.0246722 0.0188159 0.0159361 0.00674628 0.00105846 -0.00124065 -5.63051e-06 1.51342e-06 -6.00654e-06 0.0005 5.23599e-07 
71 1 0.0150154 0.0232297 0.0147548 -0.000477624 -0.00423555 -0.005743 -1.59809e-06 -9.57007e-07 3.37777e-06 0.0005 5.23599e-07 
72 1 0.0218184 0.0228709 0.0138402 0.00356502 0.0203679 -0.028546 7.56399e-06 -2.37655e-06 5.09876e-05 0.0005 5.23599e-07 
73 1 0.0233902 0.0231983 0.0150197 0.00134913 6.33414e-05 8.25808e-07 -8.92904e-06 -1.37685e-05 -1.20812e-05 0.0005 5.23599e-07 
74 1 0.0202069 0.0244496 0.0136706 -0.00021372 0.000609897 -0.000250688 1.65714e-05 -6.40485e-06 3.61012e-05 0.0005 5.23599e-07 
75 1 0.0243378 0.0157218 0.0158194 0.0147752 -0.0242123 -0.0305812 0 0 -5.1365e-06 0.0005 5.23599e-07 
76 1 0.0178051 0.0243636 0.0139032 0.000265654 -0.000312877 0.000121055 2.60008e-06 4.22311e-06 1.45095e-06 0.0005 5.23599e-07 
77 1 0.0173055 0.0234777 0.0119094 0.00946037 0.00231096 -0.00985877 1.71112e-08 1.59498e-07 1.08816e-07 0.0005 5.23599e-07 
78 1 0.0244985 0.0150039 0.0129747 0.330182 0.200356 -0.158992 0.00202938 -0.100893 0.100498 0.0005 5.23599e-07 
79 1 0.020599 0.0242151 0.0171042 0.000133024 -0.00104994 -0.000278341 5.1587e-06 -5.16213e-06 4.37118e-06 0.0005 5.23599e-07 
81 1 0.0234649 0.0225853 0.0141886 0.00127326 -0.00145642 -0.000144365 7.57539e-06 9.7594e-06 4.60297e-05 0.0005 5.23599e-07 
82 1 0.022044 0.0233831 0.0111274 0.00517387 -0.00366911 -0.0352658 6.19326e-05 -3.88845e-05 -0.000104272 0.0005 5.23599e-07 
83 1 0.0228679 0.0199718 0.0168428 -0.00723111 0.00367729 0.0185667 0 0 -5.1365e-06 0.0005 5.23599e-07 
84 1 0.0336017 0.0195831 0.00585649 -4.33394e-19 1.16118e-18 2.26289e-18 0 -1.05879e-22 0 0.0005 5.23599e-07 
85 1 0.0189296 0.0155086 0.0141992 0.0116348 -0.00165748 -0.00282942 0 0 -5.1365e-06 0.0005 5.23599e-07 
86 1 0.0153936 0.0226898 0.0155066 -5.23941e-05 -0.0110841 -0.0106026 3.06809e-06 -1.90476e-06 -1.6894e-06 0.0005 5.23599e-07 
87 1 0.0217321 0.0237952 0.0148619 0.00486604 0.00214187 -0.00125165 -3.56255e-05 -6.04977e-05 1.21997e-05 0.0005 5.23599e-07 
88 1 0.0197071 0.0231687 0.0159445 -0.0013941 0.000837407 -0.00725241 -1.16699e-05 2.67205e-05 -1.06524e-05 0.0005 5.23599e-07 
89 1 0.0280993 0.0217394 0.0147913 0.00261592 0.0305334 -0.0294762 -6.02804e-06 5.63022e-06 -7.29732e-06 0.0005 5.23599e-07 
90 1 0.0298061 0.0152056 0.0133115 -0.000147878 0.0198165 0.0493356 -2.45707e-08 2.29385e-07 -4.40826e-08 0.0005 5.23599e-07 
91 1 0.0220478 0.0225073 0.0157171 0.0152073 -0.00353595 -0.0107961 2.32429e-05 -7.84166e-06 2.52899e-05 0.0005 5.23599e-07 
92 1 0.0202509 0.0197748 0.00726798 -6.65791e-05 -0.0503536 -0.0134825 -6.51736e-09 -5.90205e-08 1.83267e-07 0.0005 5.23599e-07 
93 1 0.017386 0.0165254 0.0151601 0.0121897 -0.00213651 -0.00399479 1.20795e-08 -6.18771e-07 -2.07972e-07 0.0005 5.23599e-07 
94 1 0.0175595 0.0228076 0.016217 0.0224901 0.00112057 -0.0537115 0 0 -5.1365e-06 0.0005 5.23599e-07 
95 1 0.0214603 0.0237587 0.0168809 1.70932e-05 0.00033514 0.00137552 6.0713e-07 -5.54976e-07 -5.91635e-06 0.0005 5.23599e-07 
96 1 0.0223672 0.0145049 0.0141945 -0.00113559 0.00160078 0.0110927 0 0 -5.1365e-06 0.0005 5.23599e-07 
97 1 0.020895 0.0230748 0.00988965 0.00367753 -0.0169519 -0.0400889 -5.54702e-07 -6.29408e-07 -2.65047e-07 0.0005 5.23599e-07 
98 1 0.0199401 0.0167486 0.00783581 -0.0302729 3.2879 3.48688 0.00578569 0.0815217 0.288894 0.0005 5.23599e-07 
99 1 0.0227018 0.0231089 0.0140167 0.00474847 0.00230359 -0.00373361 4.99069e-05 1.14651e-05 3.72625e-06 0.0005 5.23599e-07 
100 1 0.0223067 0.0232195 0.0164723 0.00609646 -0.00824156 -0.0039757 4.95057e-06 2.48643e-06 -5.41448e-07 0.0005 5.23599e-07 
101 1 0.0214828 0.0234155 0.0159408 0.00384342 0.000814963 0.00476744 6.54823e-06 2.2064e-06 1.86721e-06 0.0005 5.23599e-07 
102 1 0.018449 0.0216122 0.0166159 0.0129208 -0.0408851 -0.0947061 0.000132606 1.28579e-05 0.000100581 0.0005 5.23599e-07 
103 1 0.0252668 0.0174534 0.0165804 -0.0141284 0.219605 -0.435754 0 0 -5.1365e-06 0.0005 5.23599e-07 
105 1 0.0388021 0.0192522 0.00577558 2.64318e-09 -1.26102e-08 -2.66224e-09 7.9834e-12 -3.81638e-11 -8.05579e-12 0.0005 5.23599e-07 
106 1 0.0227319 0.0193822 0.0160386 0.00924024 -0.0202252 0.0222395 3.63494e-05 2.75285e-05 -1.05481e-05 0.0005 5.23599e-07 
107 1 0.0167274 0.0227226 0.0140678 0.0126816 -0.00332476 0.00485192 1.214e-05 3.11951e-05 -7.95663e-06 0.0005 5.23599e-07 
108 1 0.027121 0.0233333 0.0107389 0.00376554 -0.00435932 -0.0392553 -2.76918e-07 -6.50148e-07 -3.79601e-06 0.0005 5.23599e-07 
109 1 0.0225354 0.0203582 0.0157967 0.016401 0.00204188 0.00281495 0 0 -5.1365e-06 0.0005 5.23599e-07 
110 1 0.0231607 0.0174405 0.0158747 0.0169553 -0.0282858 0.0747735 0 0 -5.1365e-06 0.0005 5.23599e-07 
111 1 0.0258866 0.0191743 0.0167733 0.00110286 -0.00122676 0.00383915 3.12795e-06 -2.86888e-06 -7.06707e-07 0.0005 5.23599e-07 
112 1 0.0197255 0.0237333 0.0190071 -0.0421366 -0.150129 -0.0374687 0 0 -5.1365e-06 0.0005 5.23599e-07 
113 1 0.0223364 0.0150565 0.0150346 0.0103483 -0.010807 0.025406 0 0 -5.1365e-06 0.0005 5.23599e-07 
114 1 0.0247177 0.0221487 0.0162329 0.000394913 -0.00154836 -0.001118 -2.34352e-06 9.75204e-07 -3.86473e-06 0.0005 5.23599e-07 
115 1 0.024954 0.015782 0.0086461 -0.0514849 -0.0896801 0.299215 0.00278528 0.00117004 0.00627662 0.0005 5.23599e-07 
116 1 0.0206705 0.0229365 0.0162763 -0.00033811 0.00774801 -0.0122433 6.75033e-06 8.73331e-06 1.22056e-05 0.0005 5.23599e-07 
117 1 0.0181323 0.0141454 0.0128332 0.00851612 -0.00342539 -0.0019494 2.47373e-07 3.75825e-08 -4.87413e-06 0.0005 5.23599e-07 
118 1 0.0192733 0.0233822 0.0168363 -0.00108814 0.000120944 0.00588769 6.53842e-06 -5.2824e-06 1.08075e-05 0.0005 5.23599e-07 
119 1 0.0224193 0.023186 0.0131076 0.00037738 -0.0045223 -0.000576399 -2.0477e-05 -1.20453e-06 1.47762e-05 0.0005 5.23599e-07 
120 1 0.0170293 0.0180345 0.0158264 0.00336964 0.0397145 0.0091067 -1.08995e-07 5.10313e-07 -4.55719e-08 0.0005 5.23599e-07 
121 1 0.0213469 0.0211966 0.016637 -0.0509275 -0.0507596 -0.030029 0 0 -5.1365e-06 0.0005 5.23599e-07 
122 1 0.0181267 0.0235635 0.0144075 0.00553842 0.00258021 0.00408342 -9.39316e-06 -2.70877e-06 1.15521e-06 0.0005 5.23599e-07 
123 1 0.0183955 0.0160891 0.0148272 0.000131331 -0.00151215 0.00473757 0 0 -5.1365e-06 0.0005 5.23599e-07 
124 1 0.0160152 0.0224739 0.0147124 0.013721 -0.00493266 0.00724854 6.42391e-06 -1.28636e-06 -1.34969e-05 0.0005 5.23599e-07 
125 1 0.0192059 0.0146256 0.0119317 0.0115036 -0.00150478 0.00156987 1.01121e-06 3.9615e-07 -7.2859e-08 0.0005 5.23599e-07 
126 1 0.0191033 0.014834 0.0129064 -0.00105679 -0.00199425 0.000356735 0 0 -5.1365e-06 0.0005 5.23599e-07 
127 1 0.0187127 0.0230294 0.0160877 -0.00163386 0.00140743 0.00532776 -3.13825e-06 1.19644e-05 -3.47332e-06 0.0005 5.23599e-07 
128 1 0.0276288 0.0230095 0.0131485 -0.000813293 0.0270791 -0.0461867 2.42819e-08 -1.58491e-07 -4.06942e-08 0.0005 5.23599e-07 
129 1 0.0295852 0.015759 0.0143232 0.138075 0.792265 -1.87172 0.0152464 0.0743893 -0.181172 0.0005 5.23599e-07 
131 1 0.0142287 0.0228054 0.0152026 0.000407106 -0.00245881 -0.00381281 4.94886e-07 -8.41169e-06 -1.02673e-06 0.0005 5.23599e-07 
132 1 0.0236359 0.0217712 0.015014 -0.000572675 0.0151436 -0.0111755 -1.18266e-05 8.82617e-06 8.31127e-06 0.0005 5.23599e-07 
133 1 0.0206689 0.0140828 0.0131784 0.00163821 -0.000134276 -0.00102527 -4.57476e-07 -2.62555e-06 2.25551e-06 0.0005 5.23599e-07 
134 1 0.0227329 0.0238422 0.0146546 0.00211807 0.00136991 0.00179285 -2.95148e-05 -1.11845e-05 2.60002e-05 0.0005 5.23599e-07 
135 1 0.0190991 0.0163986 0.00805481 0.249972 1.18755 0.132063 0.0170873 0.0377146 0.0628017 0.0005 5.23599e-07 
136 1 0.0196713 0.0186084 0.00721039 0.000775499 -0.0492666 0.0056359 -7.47892e-08 -1.96788e-07 2.19291e-07 0.0005 5.23599e-07 
137 1 0.0232688 0.0209779 0.0155118 -0.000787864 0.00934071 -0.0022383 2.29662e-07 1.91193e-05 7.85698e-06 0.0005 5.23599e-07 
138 1 0.0204627 0.0236726 0.015506 0.00209315 -0.00621671 0.0112585 1.14609e-05 -1.19468e-05 -8.61005e-06 0.0005 5.23599e-07 
139 1 0.0197349 0.0231067 0.0148661 0.00854007 -0.00417283 0.00346238 1.63322e-05 -1.04746e-05 -7.51373e-06 0.0005 5.23599e-07 
140 1 0.0239216 0.0180917 0.0158725 0.00760968 -0.0226613 -0.00244006 0 0 -5.1365e-06 0.0005 5.23599e-07 
141 1 0.020454 0.0205781 0.0176345 -0.0212068 -0.0371207 -0.254494 0 0 -5.1365e-06 0.0005 5.23599e-07 
142 1 0.0327957 0.0190095 0.00571076 3.29746e-19 9.18921e-19 1.7349e-18 0 0 0 0.0005 5.23599e-07 
143 1 0.0199252 0.0142652 0.0125306 0.0193006 0.00527444 -0.00528448 0 0 -5.1365e-06 0.0005 5.23599e-07 
144 1 0.0249197 0.0194161 0.0166964 -0.000533809 -0.00170122 0.00454244 -2.66233e-06 -1.61542e-06 -1.94128e-06 0.0005 5.23599e-07 
145 1 0.00728261 0.036555 0.0586053 -0.245148 0.262868 0.47112 0 0 -5.1365e-06 0.0005 5.23599e-07 
146 1 0.0200275 0.0215636 0.0161292 -0.00736079 0.00998693 0.000952039 0 0 -5.1365e-06 0.0005 5.23599e-07 
147 1 0.0176464 0.0156203 0.0143273 0.0184955 -0.0204121 -0.02071 6.38553e-07 -5.91623e-07 -2.07997e-06 0.0005 5.23599e-07 
148 1 0.0198064 0.0144622 0.0135126 -0.000270867 0.00042207 -0.00197768 -4.5347e-06 4.49079e-06 -2.54671e-06 0.0005 5.23599e-07 
149 1 0.0179946 0.0219929 0.0148269 0.0160785 0.0213031 -0.021111 1.97389e-05 -6.35905e-07 2.70987e-05 0.0005 5.23599e-07 
150 1 0.0206279 0.0145053 0.0140857 -0.000895333 -0.00109521 -0.00127416 0 0 -5.1365e-06 0.0005 5.23599e-07 
151 1 0.0278973 0.0224411 0.0140548 0.000346614 0.0326633 -0.0410044 -3.11741e-08 -1.20092e-07 -2.20816e-07 0.0005 5.23599e-07 
152 1 0.0176379 0.0146016 0.0142164 0.000618441 -9.93974e-05 0.00946932 2.18415e-05 9.56823e-07 3.68796e-05 0.0005 5.23599e-07 
153 1 0.0175341 0.0230095 0.0149915 0.0100609 -0.00734253 -6.39175e-05 -5.36962e-06 -4.36307e-06 2.21086e-06 0.0005 5.23599e-07 
154 1 0.0273912 0.0233408 0.0122273 0.00103117 0.00722766 -0.0472562 -5.33569e-08 -1.9458e-07 -2.80084e-07 0.0005 5.23599e-07 
155 1 0.0210266 0.021871 0.0159633 0.00323312 0.0145766 -0.00267755 -4.87424e-08 5.60658e-07 -4.86927e-06 0.0005 5.23599e-07 
156 1 0.0247178 0.0175028 0.0157124 0.019541 0.0132072 0.00667341 -3.00156e-05 3.45953e-05 -5.08915e-05 0.0005 5.23599e-07 
157 1 0.0224234 0.0230818 0.0149561 0.00318078 0.00510163 -0.00555713 -3.06172e-05 -1.69954e-05 -2.99601e-05 0.0005 5.23599e-07 
158 1 0.0173117 0.023082 0.0133505 0.00604703 -0.00115953 0.000843869 1.67558e-05 9.95594e-06 -3.56399e-06 0.0005 5.23599e-07 
159 1 0.0237274 0.0220124 0.0162199 0.000534522 -0.00429378 -0.00507082 -4.74907e-06 2.60522e-06 -2.13245e-06 0.0005 5.23599e-07 
160 1 0.0202085 0.0223826 0.0155843 -0.00157412 -0.000868784 -0.00708514 -1.04344e-05 -4.27517e-05 -4.60779e-06 0.0005 5.23599e-07 
161 1 0.0222013 0.021575 0.0151441 0.00232326 0.0309539 -0.0244107 -5.80157e-06 -1.35776e-05 -7.80314e-06 0.0005 5.23599e-07 
162 1 0.0237048 0.0190671 0.0159725 0.00980848 -0.0200426 0.00248141 0 0 -5.1365e-06 0.0005 5.23599e-07 
163 1 0.0201087 0.0186485 0.0167416 0.014939 -0.0190511 -0.00780383 0 0 -5.1365e-06 0.0005 5.23599e-07 
164 1 0.0202366 0.0210551 0.00772931 0.00117734 -0.0438631 -0.0215722 -1.39124e-07 -3.9071e-07 4.27517e-08 0.0005 5.23599e-07 
165 1 0.0231682 0.0227981 0.0158864 0.00476064 7.29639e-05 0.00128692 3.8279e-06 4.22612e-06 -5.8134e-06 0.0005 5.23599e-07 
166 1 0.0195976 0.0237498 0.0136744 2.31221e-05 0.00285493 -0.00344701 -2.96068e-06 1.73519e-06 9.66608e-07 0.0005 5.23599e-07 
167 1 0.0257328 0.0203183 0.0166069 -7.03973e-05 -0.00217442 -0.000671606 1.75527e-06 -1.90016e-06 -2.59172e-06 0.0005 5.23599e-07 
168 1 0.0187451 0.0230063 0.01496 0.00746594 0.00646194 0.00700353 -3.39517e-06 -1.42547e-06 4.32308e-06 0.0005 5.23599e-07 
169 1 0.0193047 0.024379 0.016905 -0.000647498 -1.64246e-05 0.00390598 -7.4073e-06 -1.41482e-06 1.17936e-05 0.0005 5.23599e-07 
170 1 0.022805 0.022224 0.0146145 -0.00422899 0.00453215 -0.0102367 -3.43824e-05 1.21452e-05 -1.06811e-05 0.0005 5.23599e-07 
171 1 0.0167405 0.0240884 0.0175389 0.0158118 -0.00192054 0.00042094 0 0 -5.1365e-06 0.0005 5.23599e-07 
173 1 0.0243489 0.0165872 0.0152136 0.0091837 0.0444153 0.0163569 0 0 -5.1365e-06 0.0005 5.23599e-07 
174 1 0.0208126 0.0233079 0.0146436 0.00238826 -0.0116019 0.0138544 -1.25754e-05 -2.04097e-05 -8.31658e-06 0.0005 5.23599e-07 
175 1 0.0244788 0.0201928 0.0157981 0.000425593 0.0350474 -0.00800366 5.3062e-07 3.65318e-06 -1.34706e-06 0.0005 5.23599e-07 
176 1 0.0235118 0.0207049 0.0166155 -0.0039741 0.000629823 0.00382587 0 0 -5.1365e-06 0.0005 5.23599e-07 
177 1 0.0200858 0.0239881 0.0145525 0.00336772 -0.00210319 0.000216022 3.82092e-06 4.31998e-06 -2.71729e-06 0.0005 5.23599e-07 
178 1 0.0181402 0.0137961 0.0137737 0.00300603 -0.00282156 0.00500532 0 0 -5.1365e-06 0.0005 5.23599e-07 
179 1 0.0252919 0.0211883 0.0163048 0.000813892 -0.00395422 -0.0032762 2.07453e-06 6.92253e-07 -4.80228e-06 0.0005 5.23599e-07 
180 1 0.0190654 0.0239241 0.014516 -0.0148158 0.0162164 -0.012325 0 0 -5.1365e-06 0.0005 5.23599e-07 
181 1 0.0169998 0.0220646 0.0147687 0.0149311 -0.0127758 -0.00368048 -2.57528e-05 2.22966e-05 -1.4718e-06 0.0005 5.23599e-07 
182 1 0.0189274 0.0157358 0.00874855 0.0617344 0.0235617 0.0690528 0.00249896 0.013937 -7.05702e-05 0.0005 5.23599e-07 
183 1 0.0184831 0.0183691 0.0162842 -0.000443289 -0.164786 -0.0875179 0 0 -5.1365e-06 0.0005 5.23599e-07 
184 1 0.0171134 0.014141 0.0135013 -0.00165318 -0.00458445 0.0115052 -1.65048e-05 -1.41343e-05 6.39533e-07 0.0005 5.23599e-07 
185 1 0.0172227 0.02398 0.0166684 0.00242171 0.00214841 0.00682213 1.8696e-06 2.70496e-06 -1.45204e-06 0.0005 5.23599e-07 
187 1 0.0181612 0.0214802 0.0156681 0.0337361 -0.0299043 -0.0416505 -0.000115359 -2.15146e-05 -5.86754e-05 0.0005 5.23599e-07 
188 1 0.0200472 0.0241616 0.0162722 -0.000679257 -0.000294541 0.00359274 -1.9614e-07 -1.3142e-05 9.1182e-06 0.0005 5.23599e-07 
189 1 0.0165096 0.023312 0.0127696 0.0128315 0.00457222 -0.00994783 -7.76752e-08 1.79269e-07 8.93587e-07 0.0005 5.23599e-07 
190 1 0.0225452 0.0209702 0.0165882 0.00293701 0.0183321 -0.00769004 0 0 -5.1365e-06 0.0005 5.23599e-07 
