ITEM: TIMESTEP
5200000
ITEM: NUMBER OF ATOMS
132
ITEM: BOX BOUNDS ff ff ff
-0.02 0.43
-0.02 0.06
-0.02 0.07
ITEM: ATOMS id type x y z vx vy vz fx fy fz radius mass 
1 1 0.0301751 0.0199402 0.00583053 1.82272e-14 1.06222e-13 -3.37787e-13 1.85818e-20 1.94818e-20 5.92923e-21 0.0005 5.23599e-07 
2 1 0.0333746 0.0160127 0.00844286 0.000786002 -0.0349117 0.0353935 -4.66234e-08 4.23557e-08 2.66904e-07 0.0005 5.23599e-07 
4 1 0.0311969 0.0190595 0.00570718 -8.71213e-15 6.23705e-17 -1.02212e-13 6.88214e-22 4.72659e-20 0 0.0005 5.23599e-07 
5 1 0.0367706 0.0206292 0.0154416 0.00119891 0.0429493 -0.0203085 -5.63791e-08 9.14275e-08 -2.94365e-07 0.0005 5.23599e-07 
7 1 0.0336702 0.017031 0.00768857 0.000818858 -0.0461917 0.0228801 -6.90414e-08 -4.24162e-09 2.54903e-07 0.0005 5.23599e-07 
8 1 0.0328017 0.0148555 0.0106741 0.000422076 -0.0100781 0.0501585 -1.35644e-08 2.04973e-07 1.30409e-07 0.0005 5.23599e-07 
10 1 0.0331204 0.0152178 0.00954855 0.00508856 -0.0124151 0.026937 -5.18816e-08 1.68115e-07 -1.10362e-08 0.0005 5.23599e-07 
11 1 0.02203 0.0237565 0.0138407 -0.00389231 0.00171767 -0.00180024 -7.7739e-07 1.50704e-06 -5.70717e-07 0.0005 5.23599e-07 
12 1 0.0232872 0.00229723 0.0435187 -2.18132e-38 -1.22536e-38 1.99711e-12 8.48048e-40 4.7639e-40 0 0.0005 5.23599e-07 
13 1 0.0302591 0.0185329 0.0057867 6.60136e-15 -6.25629e-17 7.74361e-14 5.29396e-23 1.2325e-22 0 0.0005 5.23599e-07 
15 1 0.0290551 0.0225639 0.00896146 0.00171722 -0.0285757 -0.0373466 -1.29833e-07 -1.37254e-07 4.028e-08 0.0005 5.23599e-07 
16 1 0.0287061 0.0213363 0.00783712 0.0031034 -0.0364933 -0.0204229 -2.96251e-07 -9.47415e-07 -2.7943e-07 0.0005 5.23599e-07 
19 1 0.0202505 0.0240846 0.0129156 0.00124399 -0.0106005 -0.0153001 0.000502794 -5.74779e-06 0.000678947 0.0005 5.23599e-07 
20 1 0.0264971 0.0148325 0.0121282 0.00509115 0.00719205 0.0331811 1.35078e-06 1.59952e-06 8.64209e-07 0.0005 5.23599e-07 
21 1 0.0186534 0.0139805 0.0130054 0.00361055 -0.00629155 0.000786833 0 0 -5.1365e-06 0.0005 5.23599e-07 
22 1 0.0240032 0.0157121 0.0155712 0.00522499 0.0079601 0.0112632 -2.95322e-07 -7.77066e-07 -2.46281e-07 0.0005 5.23599e-07 
23 1 0.0198952 0.0226497 0.0142563 -0.0201045 0.0125606 -0.0210019 0 0 -5.1365e-06 0.0005 5.23599e-07 
24 1 0.0247798 0.0208501 0.0155615 0.00363087 0.0377338 -0.0120255 -2.16954e-05 2.25987e-05 -0.000305471 0.0005 5.23599e-07 
25 1 0.019564 0.0174561 0.0156551 0.00515344 0.028557 0.0125339 -8.78054e-08 4.23499e-07 9.1912e-08 0.0005 5.23599e-07 
26 1 0.0283385 0.0198976 0.00731637 -0.000703953 -0.0519772 -0.0140144 -6.77644e-08 -1.0418e-07 1.74519e-07 0.0005 5.23599e-07 
27 1 0.0362165 0.0225479 0.0140281 -2.81174e-05 0.0366313 -0.0402807 9.11095e-07 -2.26226e-06 1.94686e-06 0.0005 5.23599e-07 
29 1 0.0267614 0.0147576 0.011315 0.0026025 -0.0034878 0.0447228 9.10142e-06 -2.42958e-07 8.46057e-07 0.0005 5.23599e-07 
30 1 0.0254271 0.017878 0.0157801 0.00697153 0.0147639 0.0116299 -0.000217394 5.03032e-05 0.000315731 0.0005 5.23599e-07 
31 1 0.0494639 0.0184482 0.00609482 -4.14282e-15 -1.61422e-14 -2.4118e-13 -1.77263e-18 4.57027e-19 2.5411e-21 0.0005 5.23599e-07 
34 1 -0.00507772 0.00914663 0.0455337 -0.109561 -0.130257 -0.432383 0 0 -5.1365e-06 0.0005 5.23599e-07 
35 1 0.0202261 0.0152047 0.0137331 -0.000587834 0.0182047 0.0280153 -1.96575e-06 -2.96334e-05 3.67283e-05 0.0005 5.23599e-07 
36 1 0.0231956 0.0229583 0.00965311 0.00824639 -0.00952495 -0.0228718 -4.79545e-07 1.13131e-05 1.25345e-05 0.0005 5.23599e-07 
37 1 0.0255611 0.0196436 0.0159945 0.0371964 0.028595 0.024654 0.000212767 -3.69009e-05 0.00010557 0.0005 5.23599e-07 
40 1 0.020237 0.0238593 0.0138965 -0.0111738 -0.0424755 -0.0128039 0 0 -5.1365e-06 0.0005 5.23599e-07 
41 1 0.014814 0.0191061 0.0175737 -0.354598 -0.154317 0.00673542 0 0 -5.1365e-06 0.0005 5.23599e-07 
42 1 0.0184322 0.0235643 0.0126025 -0.0308779 -0.00678083 -0.0171116 -5.57005e-06 1.3717e-05 5.05782e-05 0.0005 5.23599e-07 
43 1 0.0192011 0.0141207 0.0138556 0.0263989 -0.0200974 0.0011837 0 0 -5.1365e-06 0.0005 5.23599e-07 
44 1 0.0228559 0.0219071 0.00850589 0.00548708 -0.0262477 -0.0249446 9.31083e-08 6.97916e-06 4.02961e-06 0.0005 5.23599e-07 
45 1 0.0397699 0.0198563 0.00585678 2.95424e-15 -1.41126e-14 6.97858e-14 5.50571e-21 -1.69407e-21 -8.47033e-22 0.0005 5.23599e-07 
46 1 0.0244702 0.0166271 0.0162058 0.011993 0.0247786 0.0367048 0 0 -5.1365e-06 0.0005 5.23599e-07 
48 1 0.0161043 0.0148943 0.0131082 0.00288064 0.00372264 -0.0100024 0 0 -5.1365e-06 0.0005 5.23599e-07 
49 1 0.0310943 0.0192145 0.0158161 0.0047683 0.0319666 -0.000552345 -6.27988e-07 -1.8242e-06 3.97873e-07 0.0005 5.23599e-07 
50 1 0.0294336 0.0232436 0.0103942 0.00159789 -0.0124404 -0.0432222 5.89498e-08 1.77086e-06 6.64901e-06 0.0005 5.23599e-07 
52 1 0.0237925 0.0192214 0.00595071 2.19013e-15 4.49219e-15 1.4725e-14 -3.17637e-22 -2.11758e-22 0 0.0005 5.23599e-07 
53 1 0.0161499 0.0128309 0.0216188 -0.00222814 -0.154036 0.10795 0 0 -5.1365e-06 0.0005 5.23599e-07 
54 1 0.0215068 0.0152523 0.00948178 1.9327e-05 -0.0116531 0.0224322 4.16749e-08 -9.46211e-08 -2.30527e-07 0.0005 5.23599e-07 
55 1 0.0179826 0.0146851 0.0145874 0.0167496 -0.0165976 -0.013078 0 0 -5.1365e-06 0.0005 5.23599e-07 
58 1 0.0210287 0.0230547 0.0152176 -0.0130405 -0.0770162 -0.0522732 0 0 -5.1365e-06 0.0005 5.23599e-07 
59 1 0.0183146 0.023367 0.0110733 0.0234105 0.0642375 0.0784138 0.00225954 0.000647353 -0.00469999 0.0005 5.23599e-07 
60 1 0.0214476 0.0147445 0.012605 0.0107389 0.00513326 0.0142713 0.000110978 3.00336e-05 4.97844e-05 0.0005 5.23599e-07 
61 1 0.0205771 0.0168953 0.0153849 0.0170071 0.0151334 0.00857409 0 0 -5.1365e-06 0.0005 5.23599e-07 
62 1 0.0249643 0.0190962 0.016707 0.0023422 -0.00830722 0.0113522 3.71511e-06 4.47969e-06 2.38232e-07 0.0005 5.23599e-07 
63 1 0.0206957 0.0137625 0.0139858 0.000874195 -0.0210971 0.0489749 0 0 -5.1365e-06 0.0005 5.23599e-07 
65 1 0.0297177 0.023366 0.0118716 0.000541583 0.00397124 -0.0499753 -6.10359e-08 -2.41441e-07 -3.85783e-07 0.0005 5.23599e-07 
66 1 0.0204255 0.0241249 0.0169528 -0.0392213 -0.0705237 0.0531469 0 0 -5.1365e-06 0.0005 5.23599e-07 
68 1 0.0177372 0.0239392 0.0163286 -0.043259 0.0537608 0.0978831 0 0 -5.1365e-06 0.0005 5.23599e-07 
71 1 0.0195854 0.0214534 0.0184137 -0.174206 -0.106166 0.231599 0 0 -5.1365e-06 0.0005 5.23599e-07 
72 1 0.0193565 0.0242646 0.0133296 -0.0241268 -0.0211228 -0.0549959 0 0 -5.1365e-06 0.0005 5.23599e-07 
74 1 0.0184072 0.0210595 0.0181899 -0.171533 -0.11312 0.0601931 0 0 -5.1365e-06 0.0005 5.23599e-07 
75 1 0.0329708 0.0200808 0.00595653 3.14705e-19 -1.21044e-19 -4.78746e-19 0 0 0 0.0005 5.23599e-07 
76 1 0.0212305 0.0239895 0.0132808 -0.00080172 0.00362001 -0.00155993 -1.44174e-06 -1.09996e-06 6.31262e-07 0.0005 5.23599e-07 
78 1 0.0239395 0.0202041 0.00583859 6.31747e-16 -6.14588e-15 1.59359e-14 2.11758e-22 0 0 0.0005 5.23599e-07 
79 1 0.0213023 0.0157664 0.0087252 0.000154691 -0.0295851 0.0372623 -4.0289e-08 7.15395e-07 -5.71202e-07 0.0005 5.23599e-07 
81 1 0.0160453 0.0192141 0.0213549 -0.265187 -0.14977 0.176623 0 0 -5.1365e-06 0.0005 5.23599e-07 
82 1 0.0225637 0.0195823 0.0058395 -4.39592e-14 9.36748e-14 3.3937e-13 0 0 0 0.0005 5.23599e-07 
83 1 0.0271846 0.0153709 0.00928665 0.00127939 -0.0233121 0.0416795 -1.67189e-07 -5.61385e-08 4.69851e-07 0.0005 5.23599e-07 
84 1 0.033703 0.0194141 0.00581744 2.17236e-19 1.29079e-18 -1.50487e-19 0 0 0 0.0005 5.23599e-07 
85 1 0.0273811 0.0160456 0.00842735 -0.00185735 -0.0450672 0.0340088 1.20786e-06 6.97054e-06 -5.53161e-06 0.0005 5.23599e-07 
86 1 0.0205663 0.0157692 0.0145352 -0.0105725 -0.00771735 -0.0164124 0 0 -5.1365e-06 0.0005 5.23599e-07 
87 1 0.0209482 0.0182531 0.0131409 -0.0151799 0.330269 -0.0663038 0 0 -5.1365e-06 0.0005 5.23599e-07 
89 1 0.0354806 0.0233063 0.0106419 0.0025382 -0.00750439 -0.0398139 -7.54624e-07 -1.16449e-06 -4.36484e-06 0.0005 5.23599e-07 
90 1 0.0377192 0.0166923 0.0150866 0.00322351 0.0181485 0.0140686 -1.99833e-07 5.55312e-08 1.74558e-07 0.0005 5.23599e-07 
91 1 0.0221844 0.0143467 0.0144956 -0.0168677 0.00722806 -0.00541867 0 0 -5.1365e-06 0.0005 5.23599e-07 
92 1 0.0234375 0.0227433 0.00923619 0.00718338 -0.0132167 -0.0212232 -6.00197e-06 1.92451e-05 1.57555e-05 0.0005 5.23599e-07 
95 1 0.0167024 0.0142166 0.013563 0.00012569 -0.00237807 0.00595744 -3.60144e-07 -9.94044e-08 -2.50829e-06 0.0005 5.23599e-07 
97 1 0.0223454 0.0229675 0.0152182 0.0174678 0.072 0.0323119 0 0 -5.1365e-06 0.0005 5.23599e-07 
98 1 0.0174955 0.0233322 0.0111342 0.00472246 0.00320465 -0.07605 -7.91394e-05 0.000596703 -0.00250276 0.0005 5.23599e-07 
102 1 0.0172345 0.0240482 0.0131932 0.00227842 -0.00321089 -0.00158364 -5.15232e-06 2.32929e-05 -7.66079e-06 0.0005 5.23599e-07 
103 1 0.0221088 0.0160098 0.016248 -0.00393529 0.0388581 -0.0227983 0 0 -5.1365e-06 0.0005 5.23599e-07 
105 1 0.0389148 0.0189256 0.00570476 -7.73489e-16 3.69129e-15 -1.82454e-14 -2.12526e-19 -1.16467e-20 6.77626e-21 0.0005 5.23599e-07 
107 1 0.0234221 0.0229918 0.0151087 -0.106505 0.0531353 -0.0642639 0 0 -5.1365e-06 0.0005 5.23599e-07 
108 1 0.0341835 0.0193172 0.00734209 0.000358584 -0.0520899 -0.00665631 -7.05256e-08 -6.11805e-08 2.27337e-07 0.0005 5.23599e-07 
109 1 0.0317848 0.0163843 0.0148699 -0.00153959 0.0372619 0.0352928 -2.50072e-07 2.85115e-07 -2.3211e-07 0.0005 5.23599e-07 
110 1 0.0257632 0.0187176 0.0159389 0.0053628 0.0134692 0.00927493 -0.00023943 -3.25096e-05 -0.000291517 0.0005 5.23599e-07 
112 1 0.0237959 0.0232823 0.0121971 0.000400154 0.00826447 -0.0344013 -3.18598e-07 1.13858e-07 -1.46433e-06 0.0005 5.23599e-07 
113 1 0.0308135 0.020588 0.0155004 0.000573286 0.0486463 -0.017815 -3.00906e-09 1.00781e-08 -2.25153e-07 0.0005 5.23599e-07 
114 1 0.0164741 0.0237917 0.0137897 0.00120097 -0.00179755 0.00260422 7.68503e-06 1.06534e-05 -5.61122e-06 0.0005 5.23599e-07 
115 1 0.0325237 0.014803 0.0120252 0.00175094 0.00726109 0.0442567 6.71344e-06 -2.51683e-06 -1.43002e-05 0.0005 5.23599e-07 
118 1 0.022054 0.0182305 0.00727153 -0.00282553 -0.0153101 -0.000769779 0.000138059 1.25888e-05 6.15149e-05 0.0005 5.23599e-07 
120 1 0.0203357 0.0143261 0.0132317 -0.0202417 -0.0161015 0.0495769 0 0 -5.1365e-06 0.0005 5.23599e-07 
122 1 0.0244236 0.0216551 0.0160852 -0.0354527 0.0175537 0.00544762 0 0 -5.1365e-06 0.0005 5.23599e-07 
123 1 0.0209578 0.0149732 0.0101985 0.00255666 -0.0131919 0.0436842 1.0536e-07 3.55821e-07 4.46845e-07 0.0005 5.23599e-07 
124 1 0.0216655 0.0168609 0.00776275 0.000845008 -0.042405 0.0258892 -6.37189e-08 -2.828e-08 2.56587e-07 0.0005 5.23599e-07 
125 1 0.0301447 0.022818 0.0135564 0.000408074 0.026451 -0.0452227 -1.14983e-08 -1.52271e-07 -2.02549e-07 0.0005 5.23599e-07 
126 1 0.0229349 0.0165566 0.0161065 0.00621191 0.0397711 0.00984163 0 0 -5.1365e-06 0.0005 5.23599e-07 
127 1 0.0233208 0.0149203 0.0148413 -0.00288252 -0.0220749 0.0254469 0 0 -5.1365e-06 0.0005 5.23599e-07 
128 1 0.0348216 0.0219106 0.00824194 -0.105854 -0.0492808 0.292259 0.00116601 0.000115885 0.029453 0.0005 5.23599e-07 
129 1 0.0381621 0.0152951 0.0135869 0.000517168 0.0242814 0.0455054 -3.85568e-08 2.33086e-07 -1.65268e-08 0.0005 5.23599e-07 
133 1 0.0196757 0.0234055 0.012463 0.14595 0.001105 0.255607 0.00169903 -0.00257704 0.00227084 0.0005 5.23599e-07 
134 1 0.0243873 0.0178677 0.0166915 -0.000855115 0.0454329 -0.0263811 0 0 -5.1365e-06 0.0005 5.23599e-07 
135 1 0.0174639 0.0240362 0.0141987 -0.0316375 -0.00859708 -0.0430371 0 0 -5.1365e-06 0.0005 5.23599e-07 
136 1 0.0234 0.0231844 0.0103761 0.00866673 -0.00503613 -0.0253185 -6.3497e-05 4.79506e-06 1.52566e-05 0.0005 5.23599e-07 
138 1 0.0209106 0.0147033 0.0142625 0.0150159 -0.00850519 -0.0138635 0 0 -5.1365e-06 0.0005 5.23599e-07 
139 1 0.0217876 0.0228913 0.0175344 0.161013 -0.0291414 0.0770149 0 0 -5.1365e-06 0.0005 5.23599e-07 
140 1 0.0206627 0.0147514 0.0113028 -0.00115637 -0.00931612 0.0535924 2.05634e-07 1.77481e-07 -5.60373e-08 0.0005 5.23599e-07 
141 1 0.0198337 0.0163285 0.0150157 0.00865587 0.0199723 0.01044 0 0 -5.1365e-06 0.0005 5.23599e-07 
142 1 0.0327934 0.019013 0.00570964 -3.46738e-19 -8.88003e-19 -8.7183e-20 0 0 0 0.0005 5.23599e-07 
143 1 0.0191239 0.0229069 0.0169733 -0.018367 0.0169663 0.204517 0 0 -5.1365e-06 0.0005 5.23599e-07 
144 1 0.0182625 0.0240056 0.0134836 -0.0296332 0.0493865 0.0567696 5.57005e-06 -1.3717e-05 -6.08512e-05 0.0005 5.23599e-07 
147 1 0.0235939 0.0208174 0.0166175 -0.0586061 -0.0101428 -0.0615351 0 0 -5.1365e-06 0.0005 5.23599e-07 
148 1 0.0242825 0.0223038 0.0150731 -0.194017 0.136216 0.150755 0.0125819 -0.00437214 -0.00926053 0.0005 5.23599e-07 
149 1 0.0189525 0.0207493 0.0157634 0.0766439 -0.0351761 0.026959 0 0 -5.1365e-06 0.0005 5.23599e-07 
151 1 0.0350644 0.0225909 0.00909479 -0.00019196 -0.027408 -0.0452566 2.56646e-08 -2.33618e-07 8.44376e-08 0.0005 5.23599e-07 
153 1 0.0215636 0.0155557 0.0144318 -0.00644923 0.00194001 -0.0321612 0 0 -5.1365e-06 0.0005 5.23599e-07 
154 1 0.0346081 0.021064 0.00777524 0.00848159 -0.0327497 -0.0113691 0.000656907 0.000488843 -0.000179758 0.0005 5.23599e-07 
155 1 0.0235597 0.0221189 0.00865311 0.00416419 -0.0279946 -0.0265852 -3.23768e-06 7.88031e-06 4.6368e-06 0.0005 5.23599e-07 
156 1 0.0255901 0.020535 0.0156655 -0.00388029 0.00529457 -0.00115143 0.000129195 -2.74601e-05 -5.567e-06 0.0005 5.23599e-07 
157 1 0.0280456 0.0176433 0.00743038 -0.000247736 -0.0492502 0.0148661 -1.03698e-06 -2.77523e-07 1.09951e-07 0.0005 5.23599e-07 
158 1 0.0174411 0.0139485 0.0141813 0.00404028 -0.0106878 -0.00260377 5.0833e-07 -1.00724e-06 -3.65044e-06 0.0005 5.23599e-07 
160 1 0.0248855 0.0202745 0.0165454 -0.0280539 0.00832757 -0.0559428 0 0 -5.1365e-06 0.0005 5.23599e-07 
161 1 0.031413 0.017852 0.0156363 0.000753148 0.04862 0.0140883 -3.12345e-08 1.69276e-07 -1.72912e-07 0.0005 5.23599e-07 
163 1 0.0196344 0.0215829 0.0164328 -0.217003 -0.0921508 0.026456 0 0 -5.1365e-06 0.0005 5.23599e-07 
164 1 0.0214555 0.016475 0.0151365 -0.00354268 0.0160468 0.00899989 1.89875e-08 -1.21289e-07 -4.59947e-06 0.0005 5.23599e-07 
167 1 0.0320665 0.0154858 0.0138794 -0.0017196 0.027532 0.0438779 -2.64957e-07 1.23766e-06 2.02559e-06 0.0005 5.23599e-07 
169 1 0.019006 0.0234602 0.0117398 0.105966 -0.171347 0.308997 0.00466717 0.00676452 -0.00625642 0.0005 5.23599e-07 
170 1 0.0156954 0.0234761 0.0143321 0.000971001 0.00133198 -0.00599373 2.23261e-08 3.04606e-06 -4.67073e-06 0.0005 5.23599e-07 
171 1 0.0192045 0.0235259 0.0141247 0.0330539 -0.0609071 -0.0584657 0 0 -5.1365e-06 0.0005 5.23599e-07 
173 1 0.0186751 0.0220555 0.0178913 -0.240834 0.0109812 0.172519 0 0 -5.1365e-06 0.0005 5.23599e-07 
174 1 0.0214758 0.0143277 0.013513 -0.0175436 0.0288062 0.0122543 3.10598e-05 -2.87372e-05 3.37436e-05 0.0005 5.23599e-07 
175 1 0.0381686 0.0197868 0.00591052 1.04011e-14 -4.97182e-14 2.45847e-13 -3.00697e-20 -6.56451e-21 0 0.0005 5.23599e-07 
178 1 0.0176836 0.0141078 0.0132225 0.00140619 -0.000439375 0.00199142 5.31909e-08 1.04816e-05 -3.59617e-06 0.0005 5.23599e-07 
181 1 0.028037 0.0186055 0.00719984 0.000207295 -0.0401725 0.00322967 2.83855e-07 -1.24004e-06 1.27521e-06 0.0005 5.23599e-07 
182 1 0.020538 0.0145098 0.0122665 0.00691805 0.00132092 0.0410622 -4.97969e-05 5.02292e-05 -7.63321e-05 0.0005 5.23599e-07 
183 1 0.019082 0.0196188 0.0159087 0.00112399 0.0502932 -0.00660217 -6.67884e-09 -9.30942e-09 -3.00225e-07 0.0005 5.23599e-07 
185 1 0.0192748 0.0223209 0.0149769 0.123588 -0.107965 0.0334827 0 0 -5.1365e-06 0.0005 5.23599e-07 
189 1 0.0220557 0.0151446 0.0136319 -0.000943553 -0.0126056 -0.0135859 0 0 -5.1365e-06 0.0005 5.23599e-07 
190 1 0.0208911 0.0179718 0.0158171 0.00029656 0.0346042 0.00758221 -1.39072e-07 2.67206e-07 8.78738e-07 0.0005 5.23599e-07 
