ITEM: TIMESTEP
800000
ITEM: NUMBER OF ATOMS
186
ITEM: BOX BOUNDS ff ff ff
-0.02 0.43
-0.02 0.06
-0.02 0.07
ITEM: ATOMS id type x y z vx vy vz fx fy fz radius mass 
1 1 0.0218421 0.0212462 0.0155198 0.0128477 0.00365503 0.00670953 -3.6702e-05 2.38833e-05 -3.26396e-05 0.0005 5.23599e-07 
2 1 0.0215519 0.0221069 0.0151028 0.0051995 -0.00375544 0.00634463 -2.87333e-05 -2.29004e-08 -7.75901e-06 0.0005 5.23599e-07 
3 1 0.0211022 0.003192 0.0461702 -0.156152 -0.134668 1.04009 0 0 -5.1365e-06 0.0005 5.23599e-07 
4 1 0.0140777 0.0205671 0.015678 0.00183242 0.0460519 -0.0225774 0.000115769 9.63251e-05 1.94104e-05 0.0005 5.23599e-07 
5 1 0.0258132 0.0211444 0.0152241 0.00243529 0.0344669 -0.0229696 1.09214e-05 -2.56502e-05 1.10505e-05 0.0005 5.23599e-07 
6 1 0.0206787 0.0222395 0.0146004 0.00941393 0.0154234 -0.0163958 -1.62983e-08 -1.52814e-06 -6.22576e-06 0.0005 5.23599e-07 
7 1 0.0224051 0.0149898 0.0133586 0.00636258 0.00712754 0.0137021 0 0 -5.1365e-06 0.0005 5.23599e-07 
8 1 0.0257598 0.0210111 0.0169771 0.00110766 0.00540384 0.00148615 -0.000367837 -5.00852e-06 -6.40309e-05 0.0005 5.23599e-07 
9 1 0.0213414 0.0239652 0.0145388 -0.00210828 -0.00191648 -0.000371006 1.71931e-06 1.70251e-05 4.92629e-06 0.0005 5.23599e-07 
10 1 0.0215004 0.0143042 0.0135627 0.000761563 -0.00258969 0.00425436 1.22411e-05 4.66775e-06 -4.19171e-06 0.0005 5.23599e-07 
11 1 0.0155041 0.0228543 0.0154207 -0.00583358 -0.000290757 0.0112678 3.92487e-07 -4.12515e-07 -4.55296e-06 0.0005 5.23599e-07 
12 1 0.019921 0.0240979 0.0127404 0.000158519 0.000312038 0.00167979 0.000103583 0.000142781 -6.50539e-06 0.0005 5.23599e-07 
13 1 0.0169981 0.0239182 0.0147004 0.0197485 -0.00872865 0.0345614 0 0 -5.1365e-06 0.0005 5.23599e-07 
14 1 0.0169489 0.0235839 0.0158423 -0.0016484 0.001394 0.00384705 0 0 -5.1365e-06 0.0005 5.23599e-07 
15 1 0.022224 0.0155535 0.0142869 0.00957057 0.000509108 0.00245955 0 0 -5.1365e-06 0.0005 5.23599e-07 
16 1 0.019394 0.0228722 0.0137603 0.00253291 0.0120132 -0.0306817 -4.63531e-05 6.30196e-05 6.17717e-05 0.0005 5.23599e-07 
17 1 0.0234749 0.0185108 0.0177663 0.000227084 -0.038788 -0.0692759 0 0 -5.1365e-06 0.0005 5.23599e-07 
18 1 0.0207229 0.0209585 0.0165728 0.00182317 -0.000479621 0.00425469 0 0 -5.1365e-06 0.0005 5.23599e-07 
19 1 0.0182304 0.0243138 0.0135618 -0.00084879 0.00436937 0.00396849 -1.28598e-05 2.07142e-05 -5.45485e-06 0.0005 5.23599e-07 
20 1 0.022181 0.0167403 0.0153437 -0.0161338 0.00359001 0.0099354 0 0 -5.1365e-06 0.0005 5.23599e-07 
21 1 0.0216383 0.0147884 0.0127476 0.0102201 -0.00110968 0.0112555 -6.25528e-07 3.98525e-07 -8.69289e-06 0.0005 5.23599e-07 
22 1 0.0157999 0.0215242 0.0155412 0.0123797 0.0365362 -0.0234397 -0.000166589 8.23611e-05 1.41349e-05 0.0005 5.23599e-07 
23 1 0.0229899 0.021507 0.016189 0.0103922 0.0313177 -0.0183704 0 0 -5.1365e-06 0.0005 5.23599e-07 
24 1 0.016672 0.0142605 0.0136877 0.0107411 -0.0316017 -0.0179504 0 0 -5.1365e-06 0.0005 5.23599e-07 
25 1 0.0163883 0.0160984 0.0151806 0.0182586 -0.0290707 -0.0029089 0 0 -5.1365e-06 0.0005 5.23599e-07 
26 1 0.0166035 0.0238836 0.0168298 -0.0369352 0.00648639 0.0389947 0 0 -5.1365e-06 0.0005 5.23599e-07 
27 1 0.0254475 0.0224091 0.0140003 0.000143234 0.0338412 -0.0415861 -8.14247e-09 -1.52406e-07 -1.81493e-07 0.0005 5.23599e-07 
29 1 0.0207709 0.0234464 0.0116962 0.011004 0.00032449 0.00640149 0.000221845 1.51178e-05 0.000148825 0.0005 5.23599e-07 
30 1 0.0197799 0.0142489 0.0169308 -0.150702 -0.117995 0.0297846 0 0 -5.1365e-06 0.0005 5.23599e-07 
31 1 0.0178579 0.0224279 0.0169251 0.00476607 -0.0173333 -0.0121129 0 0 -5.1365e-06 0.0005 5.23599e-07 
32 1 0.0219582 0.0147778 0.0110495 -0.00662968 -0.00707683 0.047221 0.000137591 -3.9754e-05 -0.000147382 0.0005 5.23599e-07 
34 1 0.0163077 0.023728 0.0139116 0.0114338 0.00595435 -0.00232269 0 0 -5.1365e-06 0.0005 5.23599e-07 
35 1 0.0231105 0.0180519 0.00733056 0.000285732 -0.051983 0.0109941 -1.68104e-08 -7.95169e-08 2.59934e-07 0.0005 5.23599e-07 
36 1 0.0204551 0.0242878 0.013977 -0.000303485 0.000495291 -0.00305414 5.45904e-06 5.83254e-06 -3.10059e-05 0.0005 5.23599e-07 
37 1 0.0211667 0.0186513 0.0159324 -0.00931487 -0.0326067 0.00290141 0 0 -5.1365e-06 0.0005 5.23599e-07 
38 1 0.0223811 0.0236424 0.0139663 -0.00108562 0.0017904 0.00727636 6.01283e-05 -7.03576e-05 7.67436e-05 0.0005 5.23599e-07 
39 1 0.0160932 0.0183532 0.0178605 -0.000195156 0.00299272 0.0616312 0 0 -5.1365e-06 0.0005 5.23599e-07 
40 1 0.020444 0.0150278 0.0156796 -0.00569753 -0.0237891 0.0721368 0 0 -5.1365e-06 0.0005 5.23599e-07 
41 1 0.0146229 0.023124 0.0150327 0.00215182 -0.00358574 -0.00758019 6.25149e-06 -7.38703e-06 9.48166e-06 0.0005 5.23599e-07 
42 1 0.0145945 0.0203551 0.0165452 0.0136588 -0.0362792 -0.0430071 0 0 -5.1365e-06 0.0005 5.23599e-07 
43 1 0.0154751 0.0233509 0.0144016 0.0140905 -0.00228636 -0.0176967 0 0 -5.1365e-06 0.0005 5.23599e-07 
44 1 0.0173213 0.0152039 0.0149281 -0.0408286 -0.00142008 -0.057398 0 0 -5.1365e-06 0.0005 5.23599e-07 
45 1 0.039852 0.0190547 0.00569119 -3.51885e-15 1.70383e-14 -8.42631e-14 -1.25996e-20 1.82112e-20 4.23516e-21 0.0005 5.23599e-07 
46 1 0.0194536 0.0221695 0.0163118 0.00599297 0.00106469 -0.0025507 1.30606e-05 9.86517e-06 7.73037e-06 0.0005 5.23599e-07 
47 1 0.0230013 0.0159405 0.0147839 0.0305561 0.0305042 -0.0525061 0 0 -5.1365e-06 0.0005 5.23599e-07 
48 1 0.0222631 0.0179177 0.0157958 0.00216914 0.0125011 0.00446544 -7.68801e-08 5.62842e-07 3.40347e-07 0.0005 5.23599e-07 
49 1 0.019561 0.0144287 0.0146564 0.0218164 0.0289448 -0.00930422 0 0 -5.1365e-06 0.0005 5.23599e-07 
50 1 0.0173803 0.0145448 0.013039 0.0335126 -0.0112372 0.00975219 0 0 -5.1365e-06 0.0005 5.23599e-07 
51 1 0.0198851 0.023558 0.0118031 0.0151371 -0.00264286 0.00126395 0.000254755 0.000122937 0.000110764 0.0005 5.23599e-07 
52 1 0.0208093 0.0240707 0.0130716 0.00214738 -0.00179085 -0.00213313 5.38277e-05 -8.46072e-05 0.000184026 0.0005 5.23599e-07 
53 1 0.0224369 0.015687 0.0176693 -0.0706529 0.00737553 -0.161093 0 0 -5.1365e-06 0.0005 5.23599e-07 
54 1 0.0191324 0.020366 0.0172309 0.0320341 0.0162149 -0.0281117 2.57082e-06 3.14376e-06 1.30689e-06 0.0005 5.23599e-07 
55 1 0.0181794 0.0146289 0.0143246 -0.0123875 -0.00708709 -0.0247153 -2.01092e-05 0.000177025 4.07887e-05 0.0005 5.23599e-07 
57 1 0.016132 0.0236044 0.0151124 0.00742285 -0.0142154 -0.0146256 0 0 -5.1365e-06 0.0005 5.23599e-07 
58 1 0.0208844 0.0173064 0.0155875 0.00306415 0.0311266 0.0129052 -2.01224e-07 -9.69371e-08 -1.28794e-06 0.0005 5.23599e-07 
59 1 0.01931 0.0186798 0.0167824 0.000776189 0.0604794 0.0435838 0 0 -5.1365e-06 0.0005 5.23599e-07 
60 1 0.019398 0.0232792 0.010529 0.0192369 0.0222014 -0.00925173 0.00078538 0.00244475 -0.00368457 0.0005 5.23599e-07 
61 1 0.0171971 0.0217237 0.016032 -0.00501381 0.0124352 0.000542535 -4.35168e-06 5.66392e-06 -4.3013e-06 0.0005 5.23599e-07 
62 1 0.0223896 0.0238277 0.0148792 0.00110479 0.00597244 0.00209862 0.000121994 -0.000153709 8.98378e-05 0.0005 5.23599e-07 
63 1 0.0193636 0.0231595 0.016212 0.00223772 0.000839489 -0.000211319 -1.28189e-05 5.61425e-06 -3.36991e-06 0.0005 5.23599e-07 
64 1 0.0209421 0.0200087 0.0167959 0.0178945 -0.00518015 -0.00696983 0 0 -5.1365e-06 0.0005 5.23599e-07 
65 1 0.0213317 0.0133919 0.0190896 0.0808599 0.139441 0.0318982 0 0 -5.1365e-06 0.0005 5.23599e-07 
66 1 0.0246678 0.0219951 0.0158194 -0.00266654 0.00280117 -0.00230656 8.82569e-05 0.000340165 -0.000170255 0.0005 5.23599e-07 
67 1 0.0156257 0.0176155 0.0334677 0.243275 0.311203 0.553721 0 0 -5.1365e-06 0.0005 5.23599e-07 
68 1 0.0219866 0.0224413 0.0159721 0.0373016 -0.00757863 0.0532145 0 0 -5.1365e-06 0.0005 5.23599e-07 
69 1 0.0152809 0.0221086 0.01629 -0.0391357 -0.0924164 0.0258393 0 0 -5.1365e-06 0.0005 5.23599e-07 
70 1 0.0241397 0.0227119 0.0158579 -0.00311752 0.00362729 -0.00435706 7.24485e-05 0.000137989 -8.82646e-05 0.0005 5.23599e-07 
71 1 0.0136739 0.0214819 0.0161388 0.00652471 0.0159626 -0.00706669 9.24576e-06 1.5871e-05 9.30755e-06 0.0005 5.23599e-07 
72 1 0.014051 0.0222762 0.0145613 0.00381201 0.0110302 -0.0118538 -3.63394e-06 -4.38063e-06 -2.55054e-07 0.0005 5.23599e-07 
73 1 0.0197283 0.0239503 0.0146381 -0.0185291 -0.00188396 0.00209587 4.05614e-07 9.50981e-06 -1.75791e-06 0.0005 5.23599e-07 
74 1 0.0195278 0.0244609 0.0135862 -0.000409293 -0.00230199 -0.00670673 3.30238e-06 -3.6789e-06 1.59963e-05 0.0005 5.23599e-07 
75 1 0.0206104 0.023342 0.0161696 0.00980275 -0.00317293 0.00398533 -9.94623e-07 5.43142e-06 -8.849e-06 0.0005 5.23599e-07 
76 1 0.0172073 0.0241805 0.0137505 0.00503371 -0.012413 0.00358208 0 0 -5.1365e-06 0.0005 5.23599e-07 
77 1 0.0206039 0.0225488 0.0155483 0.00609785 -0.00866447 -0.00899365 3.40178e-06 1.05629e-05 -2.13169e-05 0.0005 5.23599e-07 
78 1 0.0223885 0.0228439 0.0151172 0.0234421 -0.0177037 -0.00253163 0 0 -5.1365e-06 0.0005 5.23599e-07 
79 1 0.0193568 0.0241466 0.0163668 0.0009931 0.000533657 -0.000276586 -1.07204e-05 -2.84694e-06 4.69705e-06 0.0005 5.23599e-07 
80 1 0.0185251 0.0242972 0.0169077 -0.0177139 -0.0115213 -0.0209833 0 0 -5.1365e-06 0.0005 5.23599e-07 
81 1 0.0243292 0.0228213 0.00934719 0.00584405 -0.0106019 -0.0190047 4.59725e-06 -1.4238e-06 2.84672e-06 0.0005 5.23599e-07 
82 1 0.0235151 0.0193727 0.00719451 0.000183629 -0.0240831 -0.00573291 -3.88811e-06 3.59954e-06 -1.38511e-06 0.0005 5.23599e-07 
83 1 0.0200995 0.0237479 0.0169274 0.0109689 0.0043571 0.00294911 0 0 -5.1365e-06 0.0005 5.23599e-07 
84 1 0.0305636 0.0236039 0.00799016 -0.0521808 -0.0556468 -0.29363 0 0 -5.1365e-06 0.0005 5.23599e-07 
85 1 0.017697 0.0225229 0.0154716 -0.0146145 -0.0113343 -1.84707e-05 0 0 -5.1365e-06 0.0005 5.23599e-07 
86 1 0.0157628 0.0223305 0.0172114 -0.0387405 0.000295497 -0.0102826 0 0 -5.1365e-06 0.0005 5.23599e-07 
87 1 0.0171212 0.0226921 0.0162841 -0.0142014 -0.00308006 0.00823845 0 0 -5.1365e-06 0.0005 5.23599e-07 
88 1 0.0167088 0.0206944 0.016482 -0.00177086 0.0735552 0.00693709 0 0 -5.1365e-06 0.0005 5.23599e-07 
89 1 0.0244986 0.0231028 0.0100566 0.00942076 -0.00807044 -0.0215333 -9.78591e-08 -2.42314e-06 -4.88917e-06 0.0005 5.23599e-07 
90 1 0.026889 0.0166207 0.0150081 0.00785881 0.0037514 0.00232705 9.2244e-07 1.31161e-05 2.18508e-08 0.0005 5.23599e-07 
91 1 0.0202343 0.0231165 0.0144181 -0.00524431 0.0125103 -0.00865374 -6.18889e-07 -9.32304e-06 -8.72845e-06 0.0005 5.23599e-07 
92 1 0.0138645 0.0176228 0.0176485 -0.098585 -0.158982 -0.33114 0 0 -5.1365e-06 0.0005 5.23599e-07 
93 1 0.0203491 0.0193497 0.0159508 0.00791624 0.0356527 0.000417179 -2.46434e-05 -2.97863e-05 -1.65877e-07 0.0005 5.23599e-07 
94 1 0.0182798 0.0230536 0.0161172 0.0115262 -0.00233497 -0.0152296 5.19912e-10 -6.89895e-09 -5.13457e-06 0.0005 5.23599e-07 
95 1 0.0184977 0.014002 0.0129845 -0.00024453 0.00124323 -0.00384373 0 0 -5.1365e-06 0.0005 5.23599e-07 
96 1 0.0189821 0.0209831 0.0164223 0.00073752 0.0274576 -0.0115784 2.11766e-06 2.68962e-06 1.0713e-06 0.0005 5.23599e-07 
97 1 0.0189378 0.0240918 0.0127548 0.000746593 0.00159477 0.000632054 0.000147755 6.20781e-05 1.74782e-05 0.0005 5.23599e-07 
98 1 0.0189985 0.0149068 0.0156456 0.00152163 -0.0232059 -0.122733 0 0 -5.1365e-06 0.0005 5.23599e-07 
99 1 0.0236243 0.0203009 0.00747696 0.00127774 -0.0468959 -0.0174028 5.85145e-07 1.25783e-07 6.24405e-07 0.0005 5.23599e-07 
100 1 0.0177144 0.0209516 0.0164004 0.0048887 0.0165231 0.00141294 -6.98013e-06 1.69306e-05 -2.40547e-06 0.0005 5.23599e-07 
101 1 0.0178027 0.0239242 0.0162372 0.00859115 -0.00406777 -0.00996125 -2.69457e-07 -1.50868e-06 -3.48975e-06 0.0005 5.23599e-07 
102 1 0.0196399 0.0222619 0.0145776 0.00424008 0.0254303 -0.0277721 1.53207e-06 -5.59619e-08 -2.10314e-06 0.0005 5.23599e-07 
103 1 0.0232312 0.0230761 0.0156952 -0.00345714 0.00429412 -0.0045491 4.43683e-05 3.85517e-05 -5.27092e-05 0.0005 5.23599e-07 
104 1 0.0212325 0.0156532 0.014381 0.00912114 0.013053 0.0138925 6.95765e-06 2.77735e-06 -2.67411e-07 0.0005 5.23599e-07 
105 1 0.0204032 0.0139355 0.01339 0.0184549 0.020955 -0.0401637 6.95766e-07 1.65498e-06 -8.05495e-08 0.0005 5.23599e-07 
106 1 0.0199742 0.0235713 0.0135629 0.00182296 0.0040882 -0.0095293 -4.09451e-05 -2.95958e-05 9.88703e-05 0.0005 5.23599e-07 
107 1 0.0256903 0.019559 0.0166799 0.000218084 0.0140653 -0.00489351 0.00100093 -0.000183616 0.000172657 0.0005 5.23599e-07 
108 1 0.0229282 0.0144037 0.0149582 0.00324961 -0.00098789 0.00646943 8.82219e-06 5.07942e-07 9.13711e-06 0.0005 5.23599e-07 
109 1 0.0153893 0.0221362 0.0146952 0.0170262 0.000589378 -0.0083912 -1.47653e-05 5.33678e-05 1.78437e-05 0.0005 5.23599e-07 
110 1 0.0210979 0.0137457 0.0142334 -0.00214164 -0.00135136 -7.04714e-05 -2.44057e-06 1.93429e-06 -5.48298e-06 0.0005 5.23599e-07 
111 1 0.0222049 0.0143583 0.0142697 0.00199863 -0.00282788 0.00843175 -8.75771e-06 1.33702e-06 -1.55275e-06 0.0005 5.23599e-07 
112 1 0.0165233 0.0152807 0.013884 0.0201071 -0.0275605 0.00435845 0 0 -5.1365e-06 0.0005 5.23599e-07 
113 1 0.0210485 0.0229298 0.013743 0.0064696 -0.00561976 0.0233998 2.74399e-06 2.71901e-06 1.29365e-05 0.0005 5.23599e-07 
114 1 0.0223953 0.0166509 0.016897 -0.0684595 -0.040902 -0.0444644 0 0 -5.1365e-06 0.0005 5.23599e-07 
115 1 0.0200225 0.0161832 0.0173267 -0.00660825 -0.0440017 0.00622007 0 0 -5.1365e-06 0.0005 5.23599e-07 
116 1 0.0187025 0.0233272 0.0109085 0.00177949 -0.00273755 -0.0364133 7.12282e-05 0.000953735 -0.00213244 0.0005 5.23599e-07 
117 1 0.0183513 0.0202147 0.0166255 0.0138655 0.0202442 -0.00391875 2.37039e-07 3.12642e-06 1.8648e-05 0.0005 5.23599e-07 
118 1 0.0215662 0.0153258 0.0163543 -0.145068 -0.127537 -0.0278636 0 0 -5.1365e-06 0.0005 5.23599e-07 
119 1 0.020021 0.0138117 0.0201164 -0.24018 -0.240842 0.0137666 0 0 -5.1365e-06 0.0005 5.23599e-07 
120 1 0.0215519 0.0233367 0.0157996 0.0175089 -0.0141116 -0.0275229 0 0 -5.1365e-06 0.0005 5.23599e-07 
121 1 0.0250662 0.0219045 0.0166348 -0.0022334 0.00057576 -0.000419679 1.17699e-05 0.000270841 -0.000138414 0.0005 5.23599e-07 
122 1 0.0161882 0.0230614 0.0163025 0.00733382 0.0107912 0.00047406 0 0 -5.1365e-06 0.0005 5.23599e-07 
123 1 0.0187378 0.0231941 0.0147744 0.0215231 0.0144674 -0.0133325 0 0 -5.1365e-06 0.0005 5.23599e-07 
124 1 0.015143 0.0160524 0.0150218 0.00168202 -0.0111269 0.0255204 0 0 -5.1365e-06 0.0005 5.23599e-07 
125 1 0.0242787 0.0156465 0.0155115 0.00712922 0.00340242 -0.00142289 5.18973e-07 6.09247e-07 -5.11441e-06 0.0005 5.23599e-07 
126 1 0.0173384 0.0146307 0.0120351 0.00560808 -0.00325869 0.00515664 0 0 -5.1365e-06 0.0005 5.23599e-07 
127 1 0.0163182 0.0218284 0.0165066 -0.0139899 -0.00797619 0.00440838 0 0 -5.1365e-06 0.0005 5.23599e-07 
128 1 0.0240149 0.0217495 0.0083036 0.000639698 -0.0397945 -0.0313533 -3.58115e-08 -2.46471e-07 9.62212e-08 0.0005 5.23599e-07 
129 1 0.0260333 0.0204242 0.015586 0.00505865 0.0337719 -0.00918109 -1.88024e-05 -6.9093e-05 4.93374e-05 0.0005 5.23599e-07 
130 1 0.0217779 0.0211367 0.0165251 0.0196832 0.00203119 0.0388121 0 0 -5.1365e-06 0.0005 5.23599e-07 
131 1 0.0175627 0.0240537 0.0128103 0.00286446 -0.0102774 -0.00238315 8.31517e-06 5.86237e-06 -1.85457e-05 0.0005 5.23599e-07 
132 1 0.0201187 0.0203954 0.0157406 0.0137325 0.00520149 8.7732e-05 -7.68448e-06 -2.26711e-05 1.11257e-05 0.0005 5.23599e-07 
133 1 0.0222683 0.0151817 0.00961787 0.000948901 -0.0230246 0.0489018 -3.36635e-06 1.17982e-05 -2.34397e-05 0.0005 5.23599e-07 
134 1 0.0215867 0.0239374 0.0135714 -0.000970546 0.00186149 -0.000904717 5.57513e-05 -0.000143097 0.000111885 0.0005 5.23599e-07 
135 1 0.0125715 0.0203746 0.0165867 0.030146 0.0244672 -0.00707636 0 0 -5.1365e-06 0.0005 5.23599e-07 
136 1 0.0181982 0.0218065 0.0159977 -0.0094732 -0.0218076 0.00102347 0 0 -5.1365e-06 0.0005 5.23599e-07 
137 1 0.0155288 0.020384 0.0158322 -0.00648887 -0.0113326 -0.0612868 0 0 -5.1365e-06 0.0005 5.23599e-07 
138 1 0.0189365 0.0237334 0.0139538 -0.00548113 1.55183e-05 -0.000715173 -1.34097e-05 5.41934e-05 2.12578e-06 0.0005 5.23599e-07 
139 1 0.0209135 0.0218763 0.0162201 0.0249332 -0.016096 -0.0275765 -3.26501e-06 -8.77721e-06 1.25306e-05 0.0005 5.23599e-07 
140 1 0.0255946 0.0204675 0.0164755 0.00530003 0.0278402 -0.00872361 -0.00102802 -1.59581e-05 -0.000134546 0.0005 5.23599e-07 
141 1 0.0277367 0.0198245 0.0261054 -0.188932 -0.0559792 -0.43469 0 0 -5.1365e-06 0.0005 5.23599e-07 
142 1 0.0329877 0.0190506 0.00569147 -5.79858e-17 -1.07622e-15 4.09281e-15 9.17734e-19 -9.76205e-20 1.60936e-20 0.0005 5.23599e-07 
143 1 0.0185198 0.0230048 0.0100751 -0.00403702 -0.00166085 -0.0256797 0.000397868 -4.29538e-05 -0.000486147 0.0005 5.23599e-07 
144 1 0.0215193 0.0229858 0.0146277 -0.00143701 -0.0075979 -0.000473631 1.9603e-05 2.8372e-06 4.00432e-06 0.0005 5.23599e-07 
145 1 0.0148106 0.0226856 0.0140563 0.00935677 -0.00093225 -0.00775426 7.04473e-06 -5.49539e-06 1.93121e-06 0.0005 5.23599e-07 
146 1 0.0201162 0.0227411 0.0167976 0.00795128 -0.00228119 0.00396082 3.80579e-07 -5.13271e-06 -5.04441e-07 0.0005 5.23599e-07 
147 1 0.019051 0.0232459 0.0127417 0.0067215 0.0117348 -0.0315492 -7.38559e-05 -0.000101303 9.18776e-05 0.0005 5.23599e-07 
148 1 0.0189553 0.0234834 0.0118225 -0.00180343 -0.00854617 -0.0369585 -0.000161182 0.000511594 1.57916e-05 0.0005 5.23599e-07 
149 1 0.0199658 0.0238804 0.0156194 0.00470608 0.00134589 0.00293569 -1.31646e-05 -7.55913e-06 2.86061e-06 0.0005 5.23599e-07 
150 1 0.0179772 0.0235739 0.0142209 0.0310147 -0.0132448 0.0040011 0 0 -5.1365e-06 0.0005 5.23599e-07 
151 1 0.0236203 0.0151253 0.0149686 0.00374128 0.000833433 0.00366663 3.3806e-08 6.12792e-07 -4.70503e-06 0.0005 5.23599e-07 
152 1 0.0206429 0.0214869 0.015313 0.00221292 -0.0152391 -0.0311454 0 0 -5.1365e-06 0.0005 5.23599e-07 
153 1 0.0188008 0.022762 0.0169365 -0.0028253 0.00248536 -0.00410882 -4.57742e-06 1.14435e-06 2.08383e-06 0.0005 5.23599e-07 
154 1 0.0231514 0.0153317 0.0139324 0.0108615 0.00820765 0.00884937 -6.03074e-06 1.51223e-06 -4.17775e-06 0.0005 5.23599e-07 
155 1 0.0156878 0.0210221 0.016709 -0.0390701 0.00452206 0.0168262 0 0 -5.1365e-06 0.0005 5.23599e-07 
156 1 0.019735 0.0229701 0.0152768 0.0131646 0.00454954 -0.00924252 -9.13954e-06 -9.29131e-06 2.76847e-06 0.0005 5.23599e-07 
157 1 0.0149034 0.0210888 0.0154669 0.00424107 0.0404241 -0.0241443 2.37634e-05 3.24417e-06 -1.64576e-05 0.0005 5.23599e-07 
158 1 0.0188349 0.0237522 0.0156011 0.00942706 0.00338047 0.00475815 -2.10571e-08 -1.07217e-07 -5.1308e-06 0.0005 5.23599e-07 
159 1 0.0260419 0.01992 0.0172718 -0.0529777 0.0749964 -0.0158467 0.000608426 0.000828917 -0.000122248 0.0005 5.23599e-07 
160 1 0.0140337 0.0215088 0.015202 -0.0041377 0.0121842 -0.0100385 5.39502e-07 -3.01473e-06 -4.68171e-06 0.0005 5.23599e-07 
161 1 0.0155746 0.0150754 0.0135785 0.00488724 -0.00593112 0.0276807 0 0 -5.1365e-06 0.0005 5.23599e-07 
162 1 0.0189805 0.0141863 0.0138426 0.00197589 -0.000448836 -0.00194651 0 0 -5.1365e-06 0.0005 5.23599e-07 
163 1 0.0237258 0.0228604 0.0150091 -0.00218411 0.00894937 -0.00576306 3.84024e-05 2.83505e-05 -4.24057e-05 0.0005 5.23599e-07 
164 1 0.0186222 0.0217785 0.0169091 -0.0112924 0.00447026 0.0132617 -3.13601e-06 1.12883e-05 5.39241e-06 0.0005 5.23599e-07 
165 1 0.0210939 0.0206013 0.0156695 0.0182473 0.00109252 0.00729505 -2.46716e-05 1.16087e-05 -5.69807e-06 0.0005 5.23599e-07 
166 1 0.0147163 0.0222037 0.0154339 0.00847574 -0.00593441 -0.0162415 0 0 -5.1365e-06 0.0005 5.23599e-07 
167 1 0.0195037 0.0140067 0.0129593 -0.00149841 0.00239453 -0.00236352 -1.45997e-06 7.21907e-07 -6.84257e-06 0.0005 5.23599e-07 
168 1 0.0212328 0.0161415 0.0152541 -0.0185458 0.0137482 0.00874376 0 0 -5.1365e-06 0.0005 5.23599e-07 
169 1 0.0213009 0.0196517 0.0159081 0.0194869 -0.00345627 0.00909753 8.62863e-06 1.73613e-05 -7.90747e-06 0.0005 5.23599e-07 
170 1 0.017861 0.0138647 0.0137655 -0.0078207 0.0377064 -2.92191e-06 1.97876e-05 -0.000177569 -5.16316e-05 0.0005 5.23599e-07 
171 1 0.0220489 0.0203014 0.0157769 0.0258214 -0.00255953 0.00986857 -0.000113853 3.98168e-05 -2.58481e-05 0.0005 5.23599e-07 
172 1 0.0131687 0.0119152 0.0389154 0.051927 0.295076 0.719981 0 0 -5.1365e-06 0.0005 5.23599e-07 
173 1 0.0221997 0.0192052 0.0159489 0.0232996 0.0230497 -0.00310661 -5.87342e-07 6.13859e-07 -3.3207e-06 0.0005 5.23599e-07 
174 1 0.0198937 0.0212947 0.0161136 0.0130478 0.00525558 -0.0010166 -1.27235e-05 -2.11445e-05 6.93927e-07 0.0005 5.23599e-07 
175 1 0.0205841 0.0232317 0.0129113 0.0043107 0.00346585 -0.000717429 -0.000141592 -0.000101354 0.000179142 0.0005 5.23599e-07 
176 1 0.0197495 0.0233159 0.0125476 0.00858576 0.00401203 -0.00803884 0.000120686 0.000129881 5.81892e-05 0.0005 5.23599e-07 
177 1 0.0167961 0.0229642 0.0171991 -0.00270689 -0.00322787 0.0140012 0 0 -5.1365e-06 0.0005 5.23599e-07 
178 1 0.0188668 0.0224619 0.01554 0.0232238 -0.0190268 0.0167344 0 0 -5.1365e-06 0.0005 5.23599e-07 
179 1 0.0230857 0.0233254 0.0145717 -0.00180953 0.00934639 -0.00389656 0.000137167 -8.2236e-05 -1.10146e-06 0.0005 5.23599e-07 
180 1 0.0168946 0.0229544 0.0149897 0.0212976 0.00452497 -0.00685993 0 0 -5.1365e-06 0.0005 5.23599e-07 
181 1 0.0237482 0.019636 0.0187318 -0.0593829 -0.0150464 -0.298557 0 0 -5.1365e-06 0.0005 5.23599e-07 
182 1 0.0138925 0.0224397 0.0159546 0.0116912 0.0139595 -0.0147968 1.16058e-05 1.60193e-05 4.92674e-06 0.0005 5.23599e-07 
183 1 0.0163793 0.0148199 0.0128806 0.00996303 -0.0103047 -0.00136123 -8.76528e-07 -7.2392e-06 2.75341e-06 0.0005 5.23599e-07 
184 1 0.0252438 0.0212853 0.0162015 -0.000631948 0.0027862 0.00101242 -8.93091e-05 0.000412941 -0.000255783 0.0005 5.23599e-07 
185 1 0.0163704 0.0223443 0.0156213 0.0130823 0.000338779 0.0111862 0 0 -5.1365e-06 0.0005 5.23599e-07 
187 1 0.0257178 0.0182533 0.017168 0.00290296 0.0147923 -0.102816 0 0 -5.1365e-06 0.0005 5.23599e-07 
188 1 0.0177878 0.0235329 0.0152296 0.0259269 0.00209817 0.0165788 0 0 -5.1365e-06 0.0005 5.23599e-07 
189 1 0.0174561 0.0136579 0.0183136 -0.0889716 0.332694 -0.0656653 0 0 -5.1365e-06 0.0005 5.23599e-07 
190 1 0.0207691 0.0234679 0.0151904 -0.00127309 -0.00250928 0.0014858 6.48981e-06 -6.82015e-06 -9.38819e-06 0.0005 5.23599e-07 
