ITEM: TIMESTEP
2800000
ITEM: NUMBER OF ATOMS
163
ITEM: BOX BOUNDS ff ff ff
-0.02 0.43
-0.02 0.06
-0.02 0.07
ITEM: ATOMS id type x y z vx vy vz fx fy fz radius mass 
1 1 0.01414 0.0225801 0.0206961 -0.245904 0.022985 -0.0938364 0 0 -5.1365e-06 0.0005 5.23599e-07 
2 1 0.0283094 0.0152985 0.00940166 0.000724088 -0.0229958 0.0432225 -9.64375e-07 1.22965e-06 -5.69634e-06 0.0005 5.23599e-07 
4 1 0.0224366 0.0185228 0.0159561 0.000427679 0.0455759 0.00554627 0 0 -5.1365e-06 0.0005 5.23599e-07 
5 1 0.0304739 0.0230726 0.00987885 0.00162885 -0.0185329 -0.0427478 2.36421e-06 2.2464e-06 4.62992e-06 0.0005 5.23599e-07 
6 1 0.0167311 0.0143756 0.0136675 -0.00224925 -0.00748705 0.00237351 1.89385e-06 -3.28922e-06 3.67703e-06 0.0005 5.23599e-07 
7 1 0.0285531 0.0158037 0.00866795 0.00225569 -0.0319227 0.0344709 -1.67779e-06 3.27323e-06 -2.70601e-06 0.0005 5.23599e-07 
8 1 0.0278258 0.0147705 0.011656 0.00462164 0.00136884 0.0355711 6.09981e-07 -3.94073e-06 1.11141e-05 0.0005 5.23599e-07 
10 1 0.0280902 0.0149312 0.010331 0.000148585 -0.0173588 0.0512494 -1.48644e-08 1.95974e-07 9.6476e-08 0.0005 5.23599e-07 
11 1 0.0203682 0.0223851 0.0147676 -0.0242344 -0.0544949 -0.0104486 0 0 -5.1365e-06 0.0005 5.23599e-07 
12 1 0.0210371 0.0148293 0.0147502 -0.021968 0.00924271 0.00425541 0 0 -5.1365e-06 0.0005 5.23599e-07 
13 1 0.0216097 0.014762 0.0130659 -0.000261685 0.00345485 0.0502412 0 0 -5.1365e-06 0.0005 5.23599e-07 
14 1 0.0225705 0.022675 0.0167786 0.0363529 -0.0533821 0.120138 0 0 -5.1365e-06 0.0005 5.23599e-07 
15 1 0.0207159 0.0176271 0.0157313 0.00479352 0.0109136 0.00394303 6.80406e-06 4.00144e-06 -1.88305e-06 0.0005 5.23599e-07 
16 1 0.0213764 0.0162958 0.0160877 0.0268451 -0.00655801 -0.0163978 0 0 -5.1365e-06 0.0005 5.23599e-07 
17 1 0.0225059 0.0175142 0.0156821 0.00445544 0.00990712 -0.00867299 0 0 -5.1365e-06 0.0005 5.23599e-07 
18 1 0.0102585 0.0174656 0.034008 0.202036 0.00129455 -0.0799036 0 0 -5.1365e-06 0.0005 5.23599e-07 
19 1 0.0200976 0.0238484 0.0136426 -0.0165167 0.00374143 -0.00820341 0.000412213 6.35802e-05 -0.00015865 0.0005 5.23599e-07 
20 1 0.0217542 0.0241819 0.0142203 -0.0105394 0.00204292 -0.00241422 9.15875e-05 -1.998e-05 0.000141306 0.0005 5.23599e-07 
21 1 0.0185231 0.0226573 0.00939292 -0.00189811 -0.0109011 -0.0280347 0.000302652 1.99306e-05 -0.000175574 0.0005 5.23599e-07 
22 1 0.0234123 0.0161563 0.0160296 0.00517716 0.0223777 -0.0172182 0 0 -5.1365e-06 0.0005 5.23599e-07 
23 1 0.0203663 0.0233146 0.0126003 0.0111225 0.00902895 -0.0404097 -7.12473e-05 -0.000246943 0.000285045 0.0005 5.23599e-07 
24 1 0.0206189 0.0202758 0.024744 0.204289 0.118007 -0.0782025 0 0 -5.1365e-06 0.0005 5.23599e-07 
25 1 0.0206041 0.0196091 0.0161638 0.058073 0.0158211 0.00273822 0 0 -5.1365e-06 0.0005 5.23599e-07 
26 1 0.0189414 0.023738 0.012037 -0.00133649 0.00418098 -0.0160376 5.54443e-05 -0.000555736 0.000345443 0.0005 5.23599e-07 
27 1 0.0300366 0.0218559 0.00818378 0.000568061 -0.03836 -0.0351603 -7.25605e-09 -2.13278e-07 1.04446e-07 0.0005 5.23599e-07 
29 1 0.0184859 0.0229666 0.0150333 0.0214504 0.0267741 -0.0247683 -4.11273e-06 -1.77941e-05 -1.06493e-05 0.0005 5.23599e-07 
30 1 0.0238716 0.0227027 0.0153189 0.00214182 0.00184924 0.00624257 9.63305e-05 8.80609e-05 -7.28402e-05 0.0005 5.23599e-07 
31 1 0.019936 0.0234681 0.0117362 0.0115403 0.00423095 -0.00804803 -0.000155217 2.10358e-06 -2.555e-05 0.0005 5.23599e-07 
34 1 0.0197889 0.0240906 0.0127518 -0.00266945 -0.00574814 -0.0231527 0.000323941 -7.14201e-05 5.3353e-05 0.0005 5.23599e-07 
35 1 0.0209575 0.0237407 0.016881 -0.0259607 0.0454863 0.0797661 0 0 -5.1365e-06 0.0005 5.23599e-07 
36 1 0.0224778 0.023859 0.0148082 -0.00315925 -0.000770485 0.000638805 4.00118e-05 1.33594e-05 -1.91142e-05 0.0005 5.23599e-07 
37 1 0.0200511 0.0242979 0.0168131 0.026024 0.00388263 0.000164534 0 0 -5.1365e-06 0.0005 5.23599e-07 
38 1 0.0235666 0.0151147 0.0149487 0.00381682 -0.00974975 -0.0132754 0 0 -5.1365e-06 0.0005 5.23599e-07 
39 1 0.0250022 0.0169614 0.0163402 0.000756753 0.0287021 -0.00577419 0 0 -5.1365e-06 0.0005 5.23599e-07 
40 1 0.0164086 0.0230836 0.0149145 -0.0218513 -0.00770344 0.0133415 0 0 -5.1365e-06 0.0005 5.23599e-07 
41 1 0.018446 0.0244545 0.0136483 -0.00274275 -0.00333287 0.00129381 1.13847e-05 4.76972e-05 -2.99491e-05 0.0005 5.23599e-07 
42 1 0.0165018 0.0147822 0.0127834 0.000729532 -0.00329395 0.00324662 -4.03599e-07 -2.0575e-06 6.82407e-06 0.0005 5.23599e-07 
43 1 0.019379 0.023276 0.0105286 0.0305549 -0.00415699 0.0653234 0.00396583 0.00316151 -0.00246291 0.0005 5.23599e-07 
44 1 0.0219527 0.0147761 0.0110801 0.00194574 -0.00664294 0.0381612 5.8489e-08 -3.59427e-07 4.31731e-09 0.0005 5.23599e-07 
45 1 0.0406138 0.0191626 0.00568074 -7.29538e-15 3.48421e-14 -1.72292e-13 -2.91168e-22 8.47033e-22 0 0.0005 5.23599e-07 
46 1 0.0207137 0.0240765 0.0129788 -0.00534167 0.00617884 -0.00838388 1.2494e-05 4.74841e-05 0.000367748 0.0005 5.23599e-07 
48 1 0.02116 0.0218506 0.0166698 -0.0396829 -0.0784706 0.143337 0 0 -5.1365e-06 0.0005 5.23599e-07 
49 1 0.0258072 0.0217315 0.0147378 -0.000591006 0.0368668 -0.0331333 2.93133e-08 -2.29997e-08 -2.61995e-07 0.0005 5.23599e-07 
50 1 0.0219655 0.0205353 0.0157017 0.00345506 -0.0362273 0.0176188 0 0 -5.1365e-06 0.0005 5.23599e-07 
51 1 0.0238032 0.0211261 0.0165806 0.05981 -0.0565011 0.0042593 0 0 -5.1365e-06 0.0005 5.23599e-07 
52 1 0.024152 0.0196584 0.00583484 -0.000290979 -2.80192e-05 -0.0091366 0 0 -5.1365e-06 0.0005 5.23599e-07 
53 1 0.0179016 0.0146705 0.0143794 -0.00115912 0.00016228 0.0033869 4.90973e-08 2.26881e-07 -4.50677e-06 0.0005 5.23599e-07 
54 1 0.0254812 0.0182314 0.0167205 -2.21432e-06 0.0594249 0.00936028 2.80046e-09 6.63362e-08 -3.65483e-07 0.0005 5.23599e-07 
55 1 0.0179253 0.019594 0.0174747 0.0186119 0.0868218 0.0400297 0 0 -5.1365e-06 0.0005 5.23599e-07 
57 1 0.0197833 0.02298 0.0135084 -0.0215213 0.016712 -0.0373207 0.000367696 -3.51424e-05 -3.68918e-05 0.0005 5.23599e-07 
58 1 0.0220906 0.0149769 0.0151076 -0.0083024 -0.00714355 -0.00220019 1.93641e-08 9.48245e-07 4.21106e-07 0.0005 5.23599e-07 
59 1 0.0217312 0.0147875 0.0120734 0.000728771 0.00756198 0.0489425 -4.96891e-07 2.99803e-06 4.64499e-06 0.0005 5.23599e-07 
60 1 0.0221369 0.015674 0.0143923 0.00543088 0.0229917 0.0283299 -1.04076e-06 2.93632e-06 1.08125e-05 0.0005 5.23599e-07 
61 1 0.0224229 0.0211695 0.0163819 0.0264885 -0.147246 0.0315073 0 0 -5.1365e-06 0.0005 5.23599e-07 
62 1 0.0208429 0.0155785 0.0154503 -0.0340851 0.0500107 -0.0213459 0 0 -5.1365e-06 0.0005 5.23599e-07 
63 1 0.015217 0.0225957 0.0146823 0.0038024 -0.0223834 -0.0255423 0 0 -5.1365e-06 0.0005 5.23599e-07 
64 1 0.0194291 0.0232918 0.0124951 0.00349117 0.00416564 -0.0456626 -0.000154998 0.00019739 0.000163995 0.0005 5.23599e-07 
65 1 0.0230424 0.0159813 0.014722 0.0247135 0.00273003 0.000682347 0 0 -5.1365e-06 0.0005 5.23599e-07 
66 1 0.0174843 0.0146208 0.0119627 0.00275325 -0.00278669 0.00534782 -4.29234e-07 -3.59005e-07 7.94486e-07 0.0005 5.23599e-07 
68 1 0.0177581 0.0240142 0.0178264 -0.0190339 -0.0509445 -0.0647561 0 0 -5.1365e-06 0.0005 5.23599e-07 
69 1 0.0174809 0.024424 0.0138765 -0.001095 -0.00133222 -0.00232625 -2.63394e-05 1.72549e-06 -1.0546e-05 0.0005 5.23599e-07 
70 1 0.0220294 0.0220981 0.0161444 -0.0116609 -0.0458527 0.118919 0 0 -5.1365e-06 0.0005 5.23599e-07 
71 1 0.015954 0.0235846 0.0141598 0.00488362 -0.00195016 -0.00368406 0 0 -5.1365e-06 0.0005 5.23599e-07 
72 1 0.0203417 0.0144426 0.014035 0.000781283 0.00173246 0.000686898 -1.72003e-06 1.0637e-06 -2.35496e-06 0.0005 5.23599e-07 
74 1 0.021035 0.0237942 0.0138067 -0.0181602 0.00853561 -0.00402317 0.000218614 0.000130137 -3.41487e-05 0.0005 5.23599e-07 
75 1 0.0244652 0.0160201 0.0158451 0.00619103 0.00497997 0.00907176 0 0 -5.1365e-06 0.0005 5.23599e-07 
76 1 0.0194288 0.024511 0.0136172 -0.00262809 -0.000737966 0.0070531 0.000207821 2.24687e-05 -0.000162687 0.0005 5.23599e-07 
77 1 0.0205203 0.0185973 0.0159387 0.0148804 0.0241804 -0.0180577 0 0 -5.1365e-06 0.0005 5.23599e-07 
78 1 0.0211058 0.0209327 0.0160248 0.0184544 -0.00308034 -0.0101748 0 0 -5.1365e-06 0.0005 5.23599e-07 
79 1 0.0167139 0.0238667 0.0135715 -0.000546332 0.00159206 -0.00172132 -7.07026e-06 7.86974e-06 -3.58059e-06 0.0005 5.23599e-07 
81 1 0.0231051 0.021829 0.016764 0.0042337 -0.0774072 0.0337466 0 0 -5.1365e-06 0.0005 5.23599e-07 
82 1 0.0225637 0.0195823 0.0058395 -4.39595e-14 9.36736e-14 3.3937e-13 -1.05879e-22 0 8.47033e-22 0.0005 5.23599e-07 
83 1 0.0153246 0.0229087 0.0137384 0.00704887 0.00147547 -0.0242066 -2.09382e-05 4.59323e-06 -8.15464e-06 0.0005 5.23599e-07 
84 1 0.0336017 0.0195831 0.00585649 7.31663e-19 -2.61952e-18 1.55756e-18 5.29396e-22 -2.11758e-22 1.69407e-21 0.0005 5.23599e-07 
85 1 0.0200268 0.0209413 0.015626 0.00688441 0.0485766 -0.0539754 0 0 -5.1365e-06 0.0005 5.23599e-07 
86 1 0.0175766 0.0228145 0.0154282 0.0292189 0.041407 0.0355614 0 0 -5.1365e-06 0.0005 5.23599e-07 
87 1 0.0219642 0.0229917 0.0156664 -0.0994859 -0.107594 0.0020651 0 0 -5.1365e-06 0.0005 5.23599e-07 
89 1 0.0298074 0.0210674 0.00768497 0.000994072 -0.0435895 -0.0211861 -9.23199e-08 -3.08922e-07 9.25409e-08 0.0005 5.23599e-07 
90 1 0.0316156 0.0221299 0.0145298 0.00436015 0.0267806 -0.0250205 -1.79497e-07 -5.4866e-07 -8.20262e-08 0.0005 5.23599e-07 
91 1 0.0164388 0.0223631 0.015664 -0.134119 -0.0176431 0.0494073 0 0 -5.1365e-06 0.0005 5.23599e-07 
92 1 0.01872 0.0143423 0.0138997 0.00450679 -0.000501177 0.00804655 0 0 -5.1365e-06 0.0005 5.23599e-07 
93 1 0.023212 0.0184356 0.00728412 0.000877515 -0.051632 0.00719098 3.36938e-05 6.16126e-06 -2.32405e-05 0.0005 5.23599e-07 
95 1 0.0207763 0.0217827 0.0155958 -0.0286498 0.00588266 0.0161368 0 0 -5.1365e-06 0.0005 5.23599e-07 
97 1 0.0224059 0.0160413 0.0158707 0.0153833 -0.0186361 -0.0157705 4.41053e-06 -3.29509e-06 -1.20775e-07 0.0005 5.23599e-07 
98 1 0.0173711 0.0143005 0.0129029 0.00190788 -0.00223209 0.00513115 3.02081e-07 4.62348e-07 4.00732e-06 0.0005 5.23599e-07 
102 1 0.0201926 0.0231892 0.0189726 -0.020396 0.0720127 0.482616 0 0 -5.1365e-06 0.0005 5.23599e-07 
103 1 0.0247958 0.0219561 0.0163685 -0.0757271 0.0449701 -0.0364652 0 0 -5.1365e-06 0.0005 5.23599e-07 
105 1 0.0389148 0.0189256 0.00570476 -7.48876e-16 3.68845e-15 -1.8247e-14 -1.058e-19 3.17637e-21 4.23516e-21 0.0005 5.23599e-07 
106 1 0.0187938 0.0233785 0.0111519 -0.00295687 0.00946596 -0.0245386 0.00134985 0.00110477 -0.000369534 0.0005 5.23599e-07 
107 1 0.0213643 0.0152944 0.0138841 0.00254607 0.0252739 0.0253224 -8.05161e-06 -7.68006e-06 -1.73838e-05 0.0005 5.23599e-07 
108 1 0.028788 0.0166582 0.00788752 0.00102423 -0.0396803 0.027985 -1.03041e-07 -1.32472e-07 3.51639e-07 0.0005 5.23599e-07 
109 1 0.0260443 0.0203691 0.0156029 0.00407887 0.0396513 -0.00924806 -4.18973e-07 4.41616e-07 -1.01183e-06 0.0005 5.23599e-07 
110 1 0.0216136 0.0192432 0.0159991 0.048868 0.0181422 0.0164106 0 0 -5.1365e-06 0.0005 5.23599e-07 
111 1 0.0257289 0.0192755 0.0167895 2.04826e-05 0.0602747 -0.00218998 9.56181e-08 -3.8077e-08 -3.4742e-07 0.0005 5.23599e-07 
112 1 0.0179348 0.0237289 0.0137415 0.000395852 -0.00425271 -0.0141355 -3.42982e-05 -2.49474e-06 -6.68595e-06 0.0005 5.23599e-07 
113 1 0.0255639 0.0232245 0.0127247 9.11305e-06 0.00930732 -0.0215784 -1.90719e-07 -1.70011e-08 8.85615e-09 0.0005 5.23599e-07 
114 1 0.0176631 0.0142095 0.0182279 -0.216959 -0.0234541 -0.0527549 0 0 -5.1365e-06 0.0005 5.23599e-07 
115 1 0.027134 0.0159154 0.0144158 -0.00511871 0.0140624 0.0102008 -0.00066757 6.80804e-05 -0.00104554 0.0005 5.23599e-07 
117 1 0.0219016 0.0165313 0.0151599 0.0133435 0.0064922 0.00304138 -5.60487e-06 2.08426e-06 -4.24897e-06 0.0005 5.23599e-07 
118 1 0.0188497 0.0241676 0.0144048 -0.0133843 -0.00826395 0.0164502 -0.000162723 8.95653e-05 -1.911e-05 0.0005 5.23599e-07 
120 1 0.0168402 0.023985 0.0145563 0.00108536 -0.000212223 -0.00797415 -6.38191e-07 1.44807e-06 1.59596e-06 0.0005 5.23599e-07 
122 1 0.0192176 0.0237232 0.0132729 -0.00540314 0.0151138 -0.0630302 0.000290805 -8.53913e-05 0.000215302 0.0005 5.23599e-07 
123 1 0.0232211 0.0232154 0.0147192 0.000549818 -3.11309e-06 0.00122921 1.14536e-05 2.09665e-05 -1.52168e-05 0.0005 5.23599e-07 
124 1 0.0230151 0.014913 0.0258025 0.331831 -0.320813 -0.0096171 0 0 -5.1365e-06 0.0005 5.23599e-07 
125 1 0.0242943 0.0227653 0.00932615 0.00608461 -0.00956521 -0.0221086 -0.000412345 -3.19139e-05 0.000798849 0.0005 5.23599e-07 
126 1 0.0216126 0.0232059 0.0146139 -0.0108244 0.00252364 -0.0316264 0 0 -5.1365e-06 0.0005 5.23599e-07 
127 1 0.0154328 0.0230941 0.0177844 -0.0482052 -0.0358622 0.0206708 0 0 -5.1365e-06 0.0005 5.23599e-07 
128 1 0.0292682 0.0185949 0.00721507 0.00177724 -0.0457464 0.00698612 -1.40658e-07 -2.50139e-07 2.35069e-07 0.0005 5.23599e-07 
129 1 0.0313141 0.0227568 0.0135111 -0.00256335 0.0288007 -0.0463757 -1.3918e-05 2.52864e-05 -4.93385e-05 0.0005 5.23599e-07 
131 1 0.0185237 0.0231397 0.010248 0.0112019 -0.0161451 -0.0363411 0.00028224 -0.000238558 0.000107797 0.0005 5.23599e-07 
132 1 0.0237341 0.0219154 0.0159186 0.0760452 0.0283403 -0.0192052 -9.63305e-05 -8.80609e-05 6.25672e-05 0.0005 5.23599e-07 
133 1 0.0167766 0.0164612 0.0161407 -0.0376212 0.0689712 -0.0626651 0 0 -5.1365e-06 0.0005 5.23599e-07 
134 1 0.0189853 0.0234703 0.0139596 -0.00948921 0.0352278 -0.0644345 2.32924e-05 -0.000124758 0.000453565 0.0005 5.23599e-07 
135 1 0.014019 0.0222416 0.0149098 -0.0898287 0.0233145 -0.209351 0 0 -5.1365e-06 0.0005 5.23599e-07 
136 1 0.0183784 0.0163144 0.0164124 0.0245046 -0.00598371 0.0347652 0 0 -5.1365e-06 0.0005 5.23599e-07 
137 1 0.0203129 0.0218473 0.0179085 0.0807243 -0.00305958 0.321272 0 0 -5.1365e-06 0.0005 5.23599e-07 
138 1 0.0171338 0.0242207 0.019216 -0.102677 0.0544792 0.0230831 0 0 -5.1365e-06 0.0005 5.23599e-07 
139 1 0.0208691 0.0212501 0.0185411 0.117549 -0.00682263 0.289931 0 0 -5.1365e-06 0.0005 5.23599e-07 
140 1 0.0192007 0.0159905 0.0195218 0.002393 0.158484 -0.601059 0 0 -5.1365e-06 0.0005 5.23599e-07 
141 1 0.0178614 0.021915 0.0160881 0.0524545 -0.122783 0.156365 0 0 -5.1365e-06 0.0005 5.23599e-07 
142 1 0.0327957 0.0190095 0.00571076 -2.11907e-18 1.17755e-18 -9.11678e-19 2.11758e-22 2.11758e-22 3.38813e-21 0.0005 5.23599e-07 
143 1 0.0226054 0.0235646 0.0139919 -0.00200754 -0.00237713 0.000688008 -3.33388e-05 4.6506e-05 -6.74049e-05 0.0005 5.23599e-07 
144 1 0.020289 0.0140271 0.0131271 0.000787045 -6.31788e-05 0.00158237 -3.13829e-07 2.10284e-06 1.23567e-06 0.0005 5.23599e-07 
146 1 0.0197515 0.0221127 0.0155107 -0.0244496 -0.0117745 0.0417158 0 0 -5.1365e-06 0.0005 5.23599e-07 
147 1 0.019023 0.0240579 0.0162726 -0.0290633 0.0090428 0.0301049 0 0 -5.1365e-06 0.0005 5.23599e-07 
148 1 0.0234467 0.019485 0.00720651 0.00162737 -0.0178375 -0.00621317 6.7457e-05 8.44975e-05 -3.32506e-05 0.0005 5.23599e-07 
149 1 0.0229074 0.0224874 0.0157412 -0.0251709 0.00146619 0.181729 0 0 -5.1365e-06 0.0005 5.23599e-07 
150 1 0.022871 0.014401 0.0148647 -0.00568473 -0.0014188 -0.00710549 5.7327e-07 5.89282e-07 1.37966e-06 0.0005 5.23599e-07 
151 1 0.0294947 0.0196944 0.00725612 0.00189329 -0.0509045 -0.00871595 -3.99432e-07 -4.89747e-07 7.49905e-08 0.0005 5.23599e-07 
152 1 0.0190238 0.0246028 0.017904 0.0572213 0.14773 -0.0804423 0 0 -5.1365e-06 0.0005 5.23599e-07 
153 1 0.0182801 0.0237191 0.0156583 0.00343351 0.00373803 0.00346232 6.20433e-06 -1.92233e-05 -1.36157e-06 0.0005 5.23599e-07 
154 1 0.028978 0.0175293 0.00745953 0.000423476 -0.0497953 0.0164246 -3.67534e-08 -1.65056e-08 2.39694e-07 0.0005 5.23599e-07 
155 1 0.019302 0.013876 0.0131765 0.000852233 -0.00257604 0.00456029 -3.20562e-06 9.8709e-07 -4.35463e-07 0.0005 5.23599e-07 
156 1 0.0176602 0.0139078 0.0137795 -0.0052011 -0.00172718 0.00788608 1.15749e-08 5.57542e-08 -3.59343e-06 0.0005 5.23599e-07 
157 1 0.0217073 0.0214694 0.0153332 0.0306138 -0.00198825 0.0438373 0 0 -5.1365e-06 0.0005 5.23599e-07 
158 1 0.0223177 0.014705 0.0138605 0.0420407 0.0145804 0.03208 0 0 -5.1365e-06 0.0005 5.23599e-07 
160 1 0.019127 0.0137919 0.0171618 -0.0341069 -0.0735397 -0.0609116 0 0 -5.1365e-06 0.0005 5.23599e-07 
161 1 0.0258114 0.0210536 0.0153209 0.00236245 0.0374613 -0.0226593 5.10654e-08 -2.22185e-08 -3.23897e-07 0.0005 5.23599e-07 
163 1 0.018689 0.0224944 0.0171718 -0.0723168 -0.0230248 0.106892 0 0 -5.1365e-06 0.0005 5.23599e-07 
164 1 0.0194707 0.0146981 0.0144588 0.00419288 -0.00060369 0.00303623 0 0 -5.1365e-06 0.0005 5.23599e-07 
166 1 0.0207298 0.0226949 0.0160135 -0.0768839 0.00775779 0.0576847 0 0 -5.1365e-06 0.0005 5.23599e-07 
167 1 0.0267036 0.0172406 0.0152917 0.00112677 0.0472608 0.0179002 2.64509e-07 8.20026e-07 -2.22293e-07 0.0005 5.23599e-07 
168 1 0.0196494 0.0236536 0.014794 -0.0195698 -0.0310034 -0.0254212 0 0 -5.1365e-06 0.0005 5.23599e-07 
169 1 0.0147304 0.0232265 0.0153505 0.00997398 -0.0168149 0.00519732 0 0 -5.1365e-06 0.0005 5.23599e-07 
170 1 0.0212144 0.0139665 0.0139279 0.00301671 0.0108792 -0.0195023 2.19066e-06 -1.66896e-06 -3.80652e-06 0.0005 5.23599e-07 
171 1 0.0175667 0.0240523 0.0129328 -0.000450419 -0.000874212 -0.0038477 2.04048e-06 -1.47493e-07 -3.43864e-06 0.0005 5.23599e-07 
173 1 0.0211267 0.0229177 0.0136552 -0.00733148 0.0172262 -0.026321 -1.50491e-05 9.84883e-05 -0.000107957 0.0005 5.23599e-07 
174 1 0.0239028 0.021394 0.00805388 0.000196927 -0.0434426 -0.0292646 -1.76301e-08 -2.0253e-07 1.32336e-07 0.0005 5.23599e-07 
175 1 0.0381686 0.0197868 0.00591052 1.04103e-14 -4.97175e-14 2.45847e-13 -2.31611e-20 4.23516e-22 8.47033e-22 0.0005 5.23599e-07 
176 1 0.0202288 0.0196467 0.0171806 0.0206558 -0.110668 0.0488651 0 0 -5.1365e-06 0.0005 5.23599e-07 
177 1 0.0224204 0.0192292 0.0167164 0.0405888 -0.0286908 0.0454226 0 0 -5.1365e-06 0.0005 5.23599e-07 
178 1 0.0183226 0.0140229 0.0130394 -0.000752006 -0.00353866 0.0108775 -3.94971e-06 1.18916e-06 -3.27054e-06 0.0005 5.23599e-07 
179 1 0.0236803 0.019978 0.016807 0.0236823 -0.0268628 0.00337725 0 0 -5.1365e-06 0.0005 5.23599e-07 
180 1 0.0206685 0.0236018 0.0147397 -0.0308347 -0.0151073 0.0153666 0 0 -5.1365e-06 0.0005 5.23599e-07 
181 1 0.0204221 0.0238194 0.0159221 0.0402984 0.0159012 0.0192992 -1.06215e-06 -1.24146e-06 3.20155e-08 0.0005 5.23599e-07 
182 1 0.0225825 0.0233591 0.0176462 0.0501385 0.0569576 0.136639 0 0 -5.1365e-06 0.0005 5.23599e-07 
183 1 0.0214107 0.0222053 0.0146464 0.0236721 -0.019325 -0.0339284 0 0 -5.1365e-06 0.0005 5.23599e-07 
184 1 0.0214743 0.0182563 0.0158994 0.00271328 0.0232415 0.00718969 4.77762e-06 4.80972e-06 -5.12108e-06 0.0005 5.23599e-07 
185 1 0.0166217 0.021422 0.0162855 -0.0541198 -0.0964451 0.0814151 0 0 -5.1365e-06 0.0005 5.23599e-07 
187 1 0.0218241 0.0240238 0.0186675 -0.00630084 -0.0600685 -0.0327186 0 0 -5.1365e-06 0.0005 5.23599e-07 
188 1 0.0217963 0.0206051 0.0169828 0.0827222 0.0426403 0.0381984 0 0 -5.1365e-06 0.0005 5.23599e-07 
189 1 0.0209349 0.0167404 0.0153077 0.0116353 0.00793144 -0.00320516 0 0 -5.1365e-06 0.0005 5.23599e-07 
190 1 0.0197292 0.0230988 0.0158968 0.0353624 0.015881 0.0299431 1.06215e-06 1.24146e-06 -1.0305e-05 0.0005 5.23599e-07 
