ITEM: TIMESTEP
1800000
ITEM: NUMBER OF ATOMS
178
ITEM: BOX BOUNDS ff ff ff
-0.02 0.43
-0.02 0.06
-0.02 0.07
ITEM: ATOMS id type x y z vx vy vz fx fy fz radius mass 
1 1 0.0254104 0.0208408 0.0165471 0.000594098 -0.0136529 -0.003473 0 0 -5.1365e-06 0.0005 5.23599e-07 
2 1 0.0260005 0.0204445 0.015589 0.00713633 0.0296279 -0.00842777 -1.49625e-05 2.54112e-05 4.39643e-06 0.0005 5.23599e-07 
4 1 0.0166086 0.0232824 0.0146368 -0.000785172 0.00343943 -0.00542236 -2.04058e-05 -2.89658e-05 -6.75006e-05 0.0005 5.23599e-07 
5 1 0.0279986 0.0148218 0.0107948 0.000268908 -0.0148133 0.048365 5.21395e-07 4.54448e-07 -1.36861e-06 0.0005 5.23599e-07 
6 1 0.022233 0.0218145 0.0160966 -0.0142999 0.0103742 0.000539831 -2.19238e-07 -6.00921e-07 -5.17601e-06 0.0005 5.23599e-07 
7 1 0.0262302 0.0196729 0.0157194 0.0088751 0.0325353 -0.00494576 7.19243e-07 4.77799e-05 -6.66634e-06 0.0005 5.23599e-07 
8 1 0.0257251 0.021761 0.0147073 -4.86084e-05 0.0365205 -0.0332534 1.00244e-05 2.66938e-06 -4.01589e-06 0.0005 5.23599e-07 
9 1 0.0227579 0.0225457 0.0156611 -0.00844687 0.00360891 -0.00386152 2.19238e-07 6.00921e-07 -5.097e-06 0.0005 5.23599e-07 
10 1 0.0258107 0.0210988 0.0152785 0.00283298 0.0354008 -0.0227306 -5.88004e-06 8.45917e-06 5.23295e-06 0.0005 5.23599e-07 
11 1 0.0184691 0.0234972 0.0151253 0.00640454 0.00198431 0.00158196 9.84368e-05 -0.000287261 0.000206334 0.0005 5.23599e-07 
12 1 0.0216505 0.0147842 0.0127776 0.00725412 -0.000978299 0.00892842 0 0 -5.1365e-06 0.0005 5.23599e-07 
13 1 0.0189749 0.02377 0.0136027 0.047221 0.00263487 0.0936601 0.00108596 -0.00116503 0.00096323 0.0005 5.23599e-07 
14 1 0.0187646 0.0239126 0.0159839 0.00361549 0.00615421 0.00396586 1.38961e-05 3.37548e-05 6.22358e-05 0.0005 5.23599e-07 
15 1 0.0184733 0.0241701 0.0124267 -0.0981188 -0.46407 -0.0567694 -0.0173427 0.100133 0.00686582 0.0005 5.23599e-07 
16 1 0.022714 0.0170215 0.0154683 0.0316507 -0.0494221 -0.0487344 0 0 -5.1365e-06 0.0005 5.23599e-07 
17 1 0.0182208 0.0148674 0.0147536 0.014171 0.0111092 0.0208885 -1.36911e-05 2.32584e-05 4.5286e-05 0.0005 5.23599e-07 
18 1 0.021803 0.0213756 0.0153072 0.0079535 0.00923996 -0.00622978 -4.23068e-06 3.35092e-05 4.58543e-06 0.0005 5.23599e-07 
19 1 0.0192047 0.0245187 0.0137171 0.0131577 0.00389933 0.0374418 0.000531343 -0.000135646 0.00082535 0.0005 5.23599e-07 
20 1 0.0208966 0.0236406 0.0138387 0.00121965 -0.00091312 -0.00418456 -1.73523e-05 4.54138e-05 -1.08485e-05 0.0005 5.23599e-07 
21 1 0.0139307 0.0220777 0.0147709 0.00185624 0.00274227 -0.0013047 -2.34795e-06 -8.60285e-06 4.95121e-06 0.0005 5.23599e-07 
22 1 0.0202302 0.015357 0.0177644 -0.0183002 -0.170261 0.279366 0 0 -5.1365e-06 0.0005 5.23599e-07 
23 1 0.0236876 0.0206564 0.00762317 0.000548627 -0.0459332 -0.0226799 2.09026e-07 1.08792e-07 3.73258e-07 0.0005 5.23599e-07 
24 1 0.0200156 0.0207924 0.0155959 0.0132328 -0.00675637 -0.00244025 -8.93954e-06 7.01066e-05 -1.33652e-05 0.0005 5.23599e-07 
25 1 0.0196214 0.0200134 0.0197124 -0.0239798 -0.0839003 0.00208862 0 0 -5.1365e-06 0.0005 5.23599e-07 
26 1 0.0170167 0.0235515 0.0155078 -0.00128649 0.00439617 -0.00844636 4.14826e-05 2.71848e-05 9.443e-05 0.0005 5.23599e-07 
27 1 0.027757 0.0147922 0.0119079 0.00126044 0.0070664 0.0464904 -6.63421e-08 2.71123e-07 2.31939e-07 0.0005 5.23599e-07 
29 1 0.0175184 0.0146181 0.0119481 0.00192447 -0.00293273 0.00652027 2.21202e-07 -1.12761e-07 1.1897e-07 0.0005 5.23599e-07 
30 1 0.0220814 0.0149024 0.0104214 0.000451659 -0.0131441 0.0503607 -2.28817e-08 1.76651e-07 1.90288e-07 0.0005 5.23599e-07 
31 1 0.0167425 0.0226018 0.0153569 -0.00550899 0.00378028 0.00299094 8.57109e-07 -3.20822e-07 -7.59168e-06 0.0005 5.23599e-07 
34 1 0.0193882 0.024143 0.0128502 -0.0147462 0.0111147 0.0278307 -0.000228285 -0.000172974 0.000881713 0.0005 5.23599e-07 
35 1 0.0235774 0.0229971 0.0152998 0.0137005 0.00430978 -0.00347178 -1.78214e-05 3.59187e-05 4.50275e-07 0.0005 5.23599e-07 
36 1 0.0215048 0.0239916 0.0145116 0.00123512 0.00143722 -0.00195665 -2.21735e-05 8.58867e-06 -2.46026e-05 0.0005 5.23599e-07 
37 1 0.0181636 0.0243031 0.0170072 0.00251788 0.00103671 0.00154235 -1.86981e-06 -7.37626e-06 -4.37692e-06 0.0005 5.23599e-07 
38 1 0.0225941 0.023573 0.0141676 0.00025989 -0.000315122 -0.000425467 1.51469e-05 8.56059e-06 -1.48847e-05 0.0005 5.23599e-07 
39 1 0.0230982 0.0180122 0.00734002 0.000492414 -0.0513953 0.0114924 2.23361e-06 -1.11879e-06 -1.32411e-06 0.0005 5.23599e-07 
40 1 0.0183528 0.0220187 0.0162045 0.0151051 -0.00653785 -0.0227244 1.20708e-05 -8.09228e-05 1.0174e-05 0.0005 5.23599e-07 
41 1 0.0164563 0.0237793 0.013783 0.000353691 0.00299709 -0.00223932 -1.23849e-05 -7.55413e-06 -0.000111324 0.0005 5.23599e-07 
42 1 0.0207711 0.0174256 0.0157085 0.0272145 -0.0662418 -0.0318729 0 0 -5.1365e-06 0.0005 5.23599e-07 
43 1 0.017212 0.0240456 0.0131907 0.00884493 0.00131551 0.00511628 3.23081e-05 -0.000148694 0.00012429 0.0005 5.23599e-07 
44 1 0.0166007 0.0218166 0.0159659 0.000208336 0.00838686 -0.00130998 1.31133e-05 1.77454e-05 9.89017e-06 0.0005 5.23599e-07 
45 1 0.039852 0.0190547 0.00569119 -3.55695e-15 1.7039e-14 -8.42613e-14 1.34255e-19 8.47033e-21 -3.38813e-21 0.0005 5.23599e-07 
46 1 0.0201154 0.0235118 0.0132591 -0.00411028 0.0253711 -0.0140842 -4.85659e-05 -4.02435e-05 4.29937e-05 0.0005 5.23599e-07 
48 1 0.0169476 0.0207152 0.0164779 -0.0188268 0.0321281 -0.00832133 -1.55036e-06 -1.32892e-05 -6.51174e-07 0.0005 5.23599e-07 
49 1 0.0240634 0.02195 0.00849206 0.00151362 -0.0358976 -0.0316229 -8.30309e-06 -1.00843e-05 5.44466e-06 0.0005 5.23599e-07 
50 1 0.0190656 0.0226271 0.0165657 0.0125152 -0.0062674 -0.021766 -1.29284e-05 -5.64361e-06 -5.44932e-07 0.0005 5.23599e-07 
51 1 0.0214399 0.0142021 0.0137978 -0.0332829 -0.000108783 -0.0453131 0 0 -5.1365e-06 0.0005 5.23599e-07 
52 1 0.0209834 0.0239831 0.0129278 6.30807e-05 -0.00138172 -0.00243913 -1.39534e-05 2.33233e-05 -5.29275e-06 0.0005 5.23599e-07 
53 1 0.0239938 0.0154186 0.0152748 -0.0157857 -0.0079088 -0.0173679 -3.86245e-06 4.38415e-06 1.84296e-06 0.0005 5.23599e-07 
54 1 0.0231438 0.0175968 0.0165423 0.0412091 0.0101308 0.0175107 0 0 -5.1365e-06 0.0005 5.23599e-07 
55 1 0.0232998 0.0189256 0.00724312 0.000672341 -0.0497841 0.00166434 -4.19829e-07 1.03778e-07 -8.02347e-08 0.0005 5.23599e-07 
57 1 0.0172694 0.0242118 0.0141741 0.0019065 0.000273857 -0.00024129 -2.19773e-05 2.53987e-05 7.93973e-05 0.0005 5.23599e-07 
58 1 0.0196333 0.0222722 0.0145638 0.0023576 0.0216752 -0.0301952 -1.25122e-05 2.32034e-05 3.4192e-05 0.0005 5.23599e-07 
59 1 0.0176857 0.0232745 0.0169588 0.00897601 -0.00228125 0.00115673 0 0 -5.1365e-06 0.0005 5.23599e-07 
60 1 0.0188823 0.0137583 0.0138409 0.0015838 -0.00173425 -0.00111336 -2.76442e-05 1.99035e-06 -4.20525e-06 0.0005 5.23599e-07 
61 1 0.0189615 0.0234861 0.011819 0.00432175 0.00569088 -0.036195 -4.09491e-05 4.06678e-05 -5.81409e-05 0.0005 5.23599e-07 
62 1 0.0199633 0.0230671 0.0167622 -0.0281437 -0.00346977 -0.0152906 0 0 -5.1365e-06 0.0005 5.23599e-07 
63 1 0.0212925 0.0191409 0.0159525 0.0107413 -0.00545723 -0.0212526 0 0 -5.1365e-06 0.0005 5.23599e-07 
64 1 0.0232801 0.0215856 0.0168312 -0.014163 0.0186331 0.00721695 0 0 -5.1365e-06 0.0005 5.23599e-07 
65 1 0.0215228 0.0157716 0.01696 -0.0880464 -0.0177572 -0.079414 0 0 -5.1365e-06 0.0005 5.23599e-07 
66 1 0.0250432 0.021905 0.0166107 0.004377 -0.00312637 0.00251384 -2.89971e-05 -1.43792e-05 -1.51682e-06 0.0005 5.23599e-07 
68 1 0.0170856 0.015091 0.0135524 -0.0137409 0.0140724 0.0329635 1.96919e-07 7.04697e-07 -5.24333e-06 0.0005 5.23599e-07 
69 1 0.0156665 0.0234316 0.0142984 0.0059566 -0.00525286 -0.0030515 -1.25214e-06 9.76762e-06 -9.23415e-06 0.0005 5.23599e-07 
70 1 0.0239956 0.0169573 0.0163225 0.00339278 0.0141352 -0.00813043 0 0 -5.1365e-06 0.0005 5.23599e-07 
71 1 0.0145501 0.0231202 0.0151088 -0.0605799 -0.0285991 0.0262252 0 0 -5.1365e-06 0.0005 5.23599e-07 
72 1 0.0203181 0.0195012 0.0159305 0.0196259 -0.0132061 0.00567639 0 0 -5.1365e-06 0.0005 5.23599e-07 
73 1 0.0211725 0.0227109 0.0140091 0.00455315 0.000744953 -0.00200488 -3.1319e-05 1.50489e-05 -2.84906e-05 0.0005 5.23599e-07 
74 1 0.0201635 0.0244487 0.0135854 0.00142815 0.0044612 -0.00117306 1.78516e-05 3.76552e-05 9.84422e-05 0.0005 5.23599e-07 
75 1 0.0225303 0.0162451 0.0163909 -0.0185353 -0.00107762 -0.0209966 -3.74315e-05 -1.4791e-05 6.42428e-05 0.0005 5.23599e-07 
76 1 0.0181768 0.0242393 0.0133496 -0.0605781 0.0222556 0.274402 -0.00188374 -0.0090195 -0.00733249 0.0005 5.23599e-07 
77 1 0.0153108 0.0222029 0.0147613 0.00185447 0.00345633 -0.00248412 -4.97288e-06 -7.92907e-06 1.72814e-05 0.0005 5.23599e-07 
78 1 0.0239066 0.018522 0.00724492 0.00187958 -0.0491511 0.00626356 -3.63846e-07 1.84089e-07 1.97312e-07 0.0005 5.23599e-07 
79 1 0.0214655 0.0239498 0.0173375 -0.000956937 -0.000978862 -0.00783223 0 0 -5.1365e-06 0.0005 5.23599e-07 
81 1 0.021435 0.0221128 0.0147559 0.00785847 0.00821777 -0.0036526 -2.35159e-05 -3.01945e-05 -1.83051e-05 0.0005 5.23599e-07 
82 1 0.0206836 0.0232791 0.0125529 -0.00062679 5.6207e-05 -0.00603044 -5.29238e-05 2.3603e-05 2.81717e-05 0.0005 5.23599e-07 
83 1 0.0218532 0.0227382 0.0160418 -0.0137598 0.000159112 -0.00786957 0 0 -5.1365e-06 0.0005 5.23599e-07 
84 1 0.0336017 0.0195831 0.00585649 1.97615e-19 -6.74641e-18 1.75381e-17 -3.17637e-22 -5.29396e-22 2.5411e-21 0.0005 5.23599e-07 
85 1 0.018123 0.0163608 0.0160081 -0.0018288 -0.00286744 -0.00241928 2.68621e-08 -4.4447e-07 1.95152e-07 0.0005 5.23599e-07 
86 1 0.0158239 0.0229603 0.0151661 -0.0013679 0.00734264 -0.00133181 -5.44034e-07 -8.16701e-06 -6.86811e-07 0.0005 5.23599e-07 
87 1 0.0206473 0.0238201 0.0149157 0.0015681 0.000679715 -0.00219072 -5.49839e-06 1.28125e-05 4.61007e-06 0.0005 5.23599e-07 
88 1 0.0197936 0.0237625 0.0154599 -0.00318588 -0.00817199 -9.94421e-05 0 0 -5.1365e-06 0.0005 5.23599e-07 
89 1 0.0274337 0.0151446 0.0131558 0.00441271 0.018051 0.038034 1.59237e-05 8.91518e-05 -4.60418e-05 0.0005 5.23599e-07 
90 1 0.0293393 0.0188757 0.00717348 0.398832 0.761086 -1.96039 0.039515 0.098983 0.100285 0.0005 5.23599e-07 
91 1 0.0212624 0.023053 0.0150419 -0.00165259 0.00336368 -0.00510479 3.95596e-05 2.64484e-05 -1.34777e-05 0.0005 5.23599e-07 
92 1 0.0197597 0.0233815 0.012355 -0.00521223 0.00788058 -0.0176608 -0.000245394 0.00012501 7.23309e-05 0.0005 5.23599e-07 
93 1 0.0158797 0.0149649 0.013296 -0.0280355 0.00993443 0.00606837 0 0 -5.1365e-06 0.0005 5.23599e-07 
94 1 0.0171392 0.0228328 0.0162472 0.000396521 -0.00596485 0.00932372 0 0 -5.1365e-06 0.0005 5.23599e-07 
95 1 0.0225116 0.0241015 0.0185985 -0.000580204 -0.0420804 -0.0631316 0 0 -5.1365e-06 0.0005 5.23599e-07 
96 1 0.0227555 0.0152159 0.0151718 -0.0178097 -0.0119082 -0.0568641 -2.53678e-05 -0.000327989 1.58172e-05 0.0005 5.23599e-07 
97 1 0.0202523 0.0236303 0.0118502 0.00817908 -0.00320678 -0.00639337 -3.717e-06 -4.00632e-05 -3.39055e-06 0.0005 5.23599e-07 
98 1 0.0194632 0.0232888 0.0107339 0.0129756 -0.00753452 -0.0224509 0.000282635 -0.000131952 -0.000351885 0.0005 5.23599e-07 
99 1 0.020829 0.0213108 0.0154187 0.00572267 0.00414579 -0.00392269 -5.17857e-06 5.24039e-05 2.84773e-05 0.0005 5.23599e-07 
100 1 0.0222479 0.023033 0.0149271 0.000806444 0.000177648 -0.00147515 1.80758e-05 2.66969e-05 -1.41795e-06 0.0005 5.23599e-07 
101 1 0.0214596 0.0235868 0.0163981 -0.00759407 0.00375242 -0.0065886 0 0 -5.1365e-06 0.0005 5.23599e-07 
102 1 0.0184752 0.0219131 0.0171937 0.00677296 0.00929972 -0.0334982 0 0 -5.1365e-06 0.0005 5.23599e-07 
103 1 0.0246791 0.0197345 0.0168257 0.000576322 0.0570404 -0.0512422 0 0 -5.1365e-06 0.0005 5.23599e-07 
105 1 0.0325813 0.0244307 0.011295 0.162304 -0.0552232 -0.111505 0 0 -5.1365e-06 0.0005 5.23599e-07 
106 1 0.0214129 0.015221 0.0137662 0.00920289 -0.00471454 -0.0130576 0 0 -5.1365e-06 0.0005 5.23599e-07 
107 1 0.0146772 0.0215493 0.015175 0.00417332 0.00185206 -0.00287144 -1.77386e-06 -2.63606e-06 -5.0165e-06 0.0005 5.23599e-07 
108 1 0.026479 0.0184408 0.0157665 0.00393127 0.0391305 0.00830725 -2.64722e-05 -0.000420687 -7.0062e-05 0.0005 5.23599e-07 
109 1 0.0212754 0.0157578 0.0146008 -0.0140447 0.000830781 0.0189491 0 0 -5.1365e-06 0.0005 5.23599e-07 
110 1 0.0223618 0.0145149 0.014151 -0.0260403 0.0239871 -0.0611661 0 0 -5.1365e-06 0.0005 5.23599e-07 
111 1 0.0247751 0.0218787 0.0158516 -0.00432568 -0.009982 0.00864746 6.38488e-06 2.62579e-05 -2.23227e-05 0.0005 5.23599e-07 
112 1 0.0222916 0.0192316 0.0159542 0.0182619 0.0208589 -0.0123161 -0.000184609 4.70086e-05 1.41657e-05 0.0005 5.23599e-07 
113 1 0.0219973 0.0204741 0.0157102 0.0188848 -0.000187197 0.00255116 0 0 -5.1365e-06 0.0005 5.23599e-07 
114 1 0.022211 0.0211859 0.0172494 -0.00706429 0.0103845 -0.0141263 0 0 -5.1365e-06 0.0005 5.23599e-07 
115 1 0.0246506 0.0225541 0.00905443 -0.0051103 0.0100008 0.000488247 6.43837e-06 1.22363e-05 1.21257e-05 0.0005 5.23599e-07 
116 1 0.0212276 0.0219087 0.0161379 0.00663998 0.00531239 0.0250721 0 0 -5.1365e-06 0.0005 5.23599e-07 
117 1 0.0174113 0.0142716 0.0130794 -0.0262709 0.00933539 0.0266044 -1.37831e-05 4.73807e-06 8.28594e-06 0.0005 5.23599e-07 
118 1 0.018895 0.0235556 0.0169082 0.0105427 -0.0143342 0.0048679 1.63339e-06 -7.921e-06 1.82485e-05 0.0005 5.23599e-07 
119 1 0.0201373 0.0227958 0.0138511 -0.00192154 0.0148831 -0.0195875 1.67274e-05 -6.68182e-05 4.98689e-05 0.0005 5.23599e-07 
120 1 0.0153291 0.015386 0.014019 0.00528566 0.0222136 0.0270449 0 0 -5.1365e-06 0.0005 5.23599e-07 
121 1 0.0235536 0.0187099 0.016734 -1.62198e-06 0.059562 0.00443787 8.57316e-08 5.27968e-08 -9.70373e-07 0.0005 5.23599e-07 
122 1 0.018172 0.0237332 0.014203 -0.0336212 0.0200227 0.0819267 -0.000786293 0.000323344 0.00223691 0.0005 5.23599e-07 
123 1 0.0192653 0.0167047 0.0165796 -0.0227473 0.0100982 0.00426077 0 0 -5.1365e-06 0.0005 5.23599e-07 
124 1 0.0148789 0.0216626 0.0161478 0.000555951 -0.000706087 -0.000602697 1.59485e-07 -3.67997e-07 -4.4162e-06 0.0005 5.23599e-07 
125 1 0.0183814 0.0140327 0.0130427 -0.0301904 0.00527645 0.0235768 -2.95841e-05 -3.1074e-06 -1.32906e-05 0.0005 5.23599e-07 
126 1 0.0180227 0.0143413 0.0139274 -0.00371028 0.0062299 0.0314907 1.36911e-05 -2.32584e-05 -5.5559e-05 0.0005 5.23599e-07 
127 1 0.0182373 0.0230095 0.0161516 0.0115067 -0.0112453 -0.00340419 2.26734e-05 -9.64975e-06 1.8209e-05 0.0005 5.23599e-07 
128 1 0.02707 0.0160646 0.0145911 0.00575002 0.0131538 0.0195035 2.46829e-05 -0.000128026 -0.000104477 0.0005 5.23599e-07 
129 1 0.0284628 0.0155648 0.00902604 -0.0364929 -0.116784 0.135056 -0.00105387 -0.00698753 -0.0155209 0.0005 5.23599e-07 
131 1 0.0137324 0.0218858 0.0157321 0.00553715 0.00914078 0.00225877 -6.95018e-08 -9.93068e-08 -5.02978e-06 0.0005 5.23599e-07 
132 1 0.0222994 0.0163196 0.0173703 -0.0119735 0.0698562 -0.10448 0 0 -5.1365e-06 0.0005 5.23599e-07 
133 1 0.0204965 0.0140572 0.0134912 0.00445506 0.02454 -0.0256094 0 0 -5.1365e-06 0.0005 5.23599e-07 
134 1 0.0218305 0.0238177 0.0136299 0.000113302 0.000327534 -0.00152991 -1.23625e-07 1.4957e-05 -9.60794e-06 0.0005 5.23599e-07 
135 1 0.0186855 0.0233038 0.0108729 0.00596072 -0.00917631 -0.0392059 -5.1544e-05 7.41142e-05 -2.19829e-06 0.0005 5.23599e-07 
136 1 0.019117 0.0232854 0.0127802 -0.0234309 0.0243472 -0.0362829 -0.000553141 8.69275e-07 0.000176115 0.0005 5.23599e-07 
137 1 0.0215907 0.0171066 0.0163039 0.0245077 -0.0808876 -0.0256208 0 0 -5.1365e-06 0.0005 5.23599e-07 
138 1 0.0200216 0.0237707 0.0141955 0.00459868 0.00100949 -0.00779174 9.264e-05 -8.73834e-05 5.87085e-05 0.0005 5.23599e-07 
139 1 0.0204632 0.0222268 0.0153815 -0.0070355 0.00256591 -0.00954331 0.000143142 0.000101717 9.24271e-05 0.0005 5.23599e-07 
140 1 0.0233556 0.0161222 0.0158416 0.0140369 -0.0097957 0.0107069 -9.55887e-06 -2.17981e-05 0.000100567 0.0005 5.23599e-07 
141 1 0.0215405 0.021007 0.0164394 0.0119121 0.00119414 0.00903447 0 0 -5.1365e-06 0.0005 5.23599e-07 
142 1 0.0327957 0.0190095 0.00571076 -1.5918e-18 7.10243e-18 1.66171e-17 1.05879e-22 1.90582e-21 2.5411e-21 0.0005 5.23599e-07 
143 1 0.0196078 0.0140115 0.013029 -0.0095673 -0.0112798 -0.0153485 0 0 -5.1365e-06 0.0005 5.23599e-07 
144 1 0.0244411 0.0210811 0.0163544 -0.0250708 -0.00531611 0.00588501 0 0 -5.1365e-06 0.0005 5.23599e-07 
145 1 0.021032 0.0201986 0.0160392 0.0315232 -0.026194 -0.0061208 0 0 -5.1365e-06 0.0005 5.23599e-07 
146 1 0.020519 0.0209799 0.0166207 0.039838 -0.00759845 -0.0144999 0 0 -5.1365e-06 0.0005 5.23599e-07 
147 1 0.0166323 0.0147481 0.0126721 -0.0216448 0.00780592 0.0148852 9.68326e-06 5.03156e-06 -4.14808e-06 0.0005 5.23599e-07 
148 1 0.0191069 0.0146105 0.0143147 0.012049 -0.00522412 0.00233038 0 0 -5.1365e-06 0.0005 5.23599e-07 
149 1 0.0175186 0.02147 0.0161558 0.00176075 0.0125393 -0.00746659 2.12736e-05 1.27815e-05 3.50775e-05 0.0005 5.23599e-07 
150 1 0.020526 0.0145574 0.0148553 -0.00542877 -0.0469209 0.00194012 0 0 -5.1365e-06 0.0005 5.23599e-07 
151 1 0.0272983 0.0155476 0.0139835 0.00237686 0.0250101 0.0378844 -5.39513e-06 -1.70481e-05 -2.10675e-05 0.0005 5.23599e-07 
152 1 0.0217838 0.016246 0.0157133 0.0282324 -0.074909 -0.0595067 1.55989e-05 1.18628e-06 8.72554e-07 0.0005 5.23599e-07 
153 1 0.017589 0.0231564 0.0147886 0.00484111 0.0021533 -0.0129728 0 0 -5.1365e-06 0.0005 5.23599e-07 
154 1 0.0270282 0.0166088 0.0149499 0.00153586 0.013678 0.0117873 4.34552e-06 -7.77466e-05 -3.45405e-05 0.0005 5.23599e-07 
155 1 0.0201242 0.0172197 0.0166045 -0.00856672 0.0132944 0.00164283 0 0 -5.1365e-06 0.0005 5.23599e-07 
156 1 0.0246692 0.0161157 0.0158494 -0.00212095 -0.0105306 -0.00427608 1.11302e-07 -5.47243e-07 3.37406e-07 0.0005 5.23599e-07 
157 1 0.0203013 0.0229725 0.0147555 0.000904975 0.00418138 -0.0134166 -2.00166e-05 4.12013e-05 4.39694e-05 0.0005 5.23599e-07 
158 1 0.0156784 0.0220757 0.0156817 -0.00251935 0.00119312 -2.09932e-05 4.11182e-06 2.48569e-06 7.60874e-06 0.0005 5.23599e-07 
159 1 0.0225084 0.0181429 0.0158605 0.01737 0.00655132 0.00370533 0 0 -5.1365e-06 0.0005 5.23599e-07 
160 1 0.0205185 0.0185023 0.0160015 -0.00318467 -0.0260727 -0.0109148 0 0 -5.1365e-06 0.0005 5.23599e-07 
161 1 0.0209853 0.0165473 0.0151927 0.0315735 -0.0573606 -0.0513156 -1.55989e-05 -1.18628e-06 -1.11456e-05 0.0005 5.23599e-07 
162 1 0.0226027 0.0161669 0.0149108 0.0023587 -0.0381605 -0.0175679 2.53678e-05 0.000327989 -2.60902e-05 0.0005 5.23599e-07 
163 1 0.0233776 0.020134 0.0174149 0.0215538 0.0299311 0.000644732 -4.00798e-06 -5.78357e-06 -1.66418e-06 0.0005 5.23599e-07 
164 1 0.0192752 0.0229326 0.0135065 0.00457123 0.0238439 -0.0382696 0.000189484 -0.000195271 0.000598776 0.0005 5.23599e-07 
165 1 0.0225456 0.02297 0.0168049 0.00121665 -0.00871114 -0.002708 0 0 -5.1365e-06 0.0005 5.23599e-07 
166 1 0.0193225 0.0232178 0.0143547 0.0141901 -0.00417858 -0.0178002 0.000249619 -0.000168859 0.00029645 0.0005 5.23599e-07 
167 1 0.0242067 0.0226107 0.0159011 0.00138589 -0.00355068 0.00620006 5.00768e-07 3.10708e-05 -1.21116e-05 0.0005 5.23599e-07 
168 1 0.0187883 0.0225971 0.0154177 0.0213352 -0.00377552 -0.00423724 7.62636e-06 4.09431e-05 9.15243e-05 0.0005 5.23599e-07 
169 1 0.0195299 0.0242358 0.0165394 0.0132768 0.00201544 -0.00506267 1.97586e-05 1.19639e-05 2.96185e-05 0.0005 5.23599e-07 
170 1 0.0215076 0.0180872 0.0158583 0.00493733 -0.0625338 -0.0373363 0 0 -5.1365e-06 0.0005 5.23599e-07 
171 1 0.0194391 0.0183555 0.031275 0.162184 -0.165421 0.00486519 0 0 -5.1365e-06 0.0005 5.23599e-07 
173 1 0.0231776 0.0150863 0.0142606 -0.0301016 0.0351536 -0.0621216 0 0 -5.1365e-06 0.0005 5.23599e-07 
174 1 0.0207275 0.0231031 0.0158868 -0.00967269 -0.000956484 0.00644215 0 0 -5.1365e-06 0.0005 5.23599e-07 
175 1 0.0226421 0.0209406 0.0163803 0.00952328 0.00721516 -0.00347372 -7.46479e-07 5.70023e-06 2.59874e-07 0.0005 5.23599e-07 
176 1 0.0235772 0.0206233 0.0165666 -0.0135658 0.0104111 -0.0378573 4.00798e-06 5.78357e-06 -8.60883e-06 0.0005 5.23599e-07 
177 1 0.019699 0.0227594 0.0158036 0.00215886 -0.0137768 -0.031415 1.29284e-05 5.64361e-06 -9.72808e-06 0.0005 5.23599e-07 
178 1 0.0172239 0.0146416 0.0144575 -0.0199963 -0.0101762 0.0400307 0 0 -5.1365e-06 0.0005 5.23599e-07 
179 1 0.0229775 0.0236892 0.0150467 0.00293406 0.000274336 -0.000705725 3.00836e-06 1.18791e-05 -4.25205e-06 0.0005 5.23599e-07 
180 1 0.0192174 0.0240016 0.0146747 0.00284298 0.000285287 -0.00758669 4.84438e-05 -1.77266e-05 -0.000131021 0.0005 5.23599e-07 
181 1 0.0161375 0.0228618 0.0161211 -0.0037292 -0.0115191 -0.0208824 0 0 -5.1365e-06 0.0005 5.23599e-07 
182 1 0.0185212 0.0230033 0.0100683 0.00673048 -0.0145382 -0.035423 -1.30851e-05 -4.09724e-05 -4.13538e-05 0.0005 5.23599e-07 
183 1 0.0190771 0.0214136 0.0165352 0.0197306 0.0552348 -0.0124137 0 0 -5.1365e-06 0.0005 5.23599e-07 
184 1 0.0166726 0.0141575 0.0137434 -0.0394768 0.0028846 0.0172042 -1.50725e-08 7.16911e-09 -5.12887e-06 0.0005 5.23599e-07 
185 1 0.017779 0.0238962 0.016178 0.00337581 -0.0103017 0.00507951 2.40638e-05 4.96224e-05 -1.42188e-05 0.0005 5.23599e-07 
187 1 0.0177166 0.0224411 0.0155152 0.0053953 0.0237896 -0.0242224 -9.07683e-06 -3.11578e-05 -1.39713e-05 0.0005 5.23599e-07 
188 1 0.0204631 0.0239828 0.0162838 0.00203242 -0.00474638 -0.0193807 0 0 -5.1365e-06 0.0005 5.23599e-07 
189 1 0.014577 0.0225844 0.0142009 0.000775506 0.00247187 -0.00165883 -1.10077e-05 -7.76154e-06 1.23279e-05 0.0005 5.23599e-07 
190 1 0.0234991 0.0219032 0.0159081 -0.0119832 0.00588204 -0.00026709 0 0 -5.1365e-06 0.0005 5.23599e-07 
