ITEM: TIMESTEP
3600000
ITEM: NUMBER OF ATOMS
153
ITEM: BOX BOUNDS ff ff ff
-0.02 0.43
-0.02 0.06
-0.02 0.07
ITEM: ATOMS id type x y z vx vy vz fx fy fz radius mass 
1 1 0.0228995 0.02341 0.0113415 0.000171399 -0.000657178 -0.0229306 -1.09878e-06 -1.18184e-06 1.23672e-06 0.0005 5.23599e-07 
2 1 0.0300133 0.0188685 0.0158083 0.000693562 0.0506678 0.00705566 8.15802e-06 -3.46125e-06 -2.08612e-07 0.0005 5.23599e-07 
4 1 0.0310671 0.0191297 0.0057183 -8.66294e-15 6.61393e-17 -1.02217e-13 -2.14193e-19 -2.52034e-20 1.77877e-20 0.0005 5.23599e-07 
5 1 0.0323743 0.0165087 0.0080099 0.00390198 -0.0317983 0.0202164 1.26933e-07 7.6417e-07 -3.50898e-07 0.0005 5.23599e-07 
6 1 0.0187507 0.0155345 0.0149279 0.00835588 0.0163331 0.016372 0 0 -5.1365e-06 0.0005 5.23599e-07 
7 1 0.0302443 0.0176333 0.0155471 0.00156095 0.03668 0.0100053 1.04602e-07 -1.97527e-06 -6.43371e-07 0.0005 5.23599e-07 
8 1 0.0294689 0.0211208 0.0152876 0.00107711 0.041122 -0.0186424 -5.32663e-05 0.000139614 -6.83091e-05 0.0005 5.23599e-07 
10 1 0.0298283 0.0196802 0.0156956 0.000225373 0.0472462 -0.0114949 -2.62963e-07 2.57081e-07 -2.33759e-07 0.0005 5.23599e-07 
11 1 0.0239201 0.019411 0.0159456 -0.00149348 0.0450975 -0.00391121 7.03181e-06 1.21748e-06 -2.42057e-06 0.0005 5.23599e-07 
12 1 0.0235421 0.0217072 0.0151923 -0.00136403 0.0760132 0.0213654 0 0 -5.1365e-06 0.0005 5.23599e-07 
13 1 0.0299633 0.0192754 0.00581251 -8.25589e-16 9.68209e-18 -1.24073e-14 1.66373e-18 -2.9034e-22 -1.41455e-19 0.0005 5.23599e-07 
14 1 0.0178553 0.0213376 0.0153272 -0.0067287 -0.0136608 0.00168098 7.04419e-06 -0.000107162 7.1864e-05 0.0005 5.23599e-07 
15 1 0.0246909 0.0160901 0.014633 -0.00581031 0.0473648 0.0451605 -2.01842e-05 5.35419e-05 4.61055e-05 0.0005 5.23599e-07 
16 1 0.025443 0.0205515 0.0157137 0.00447154 0.00358221 -0.000178539 -1.16361e-05 1.48372e-05 -4.6328e-06 0.0005 5.23599e-07 
17 1 0.0243471 0.0215395 0.0162593 -0.0393446 -0.0516555 -0.00969885 0 0 -5.1365e-06 0.0005 5.23599e-07 
19 1 0.0201846 0.0234157 0.0144005 -0.0151357 -0.00959678 0.0174253 -0.000278349 -0.000203683 0.000276019 0.0005 5.23599e-07 
20 1 0.0217997 0.0241785 0.0142892 0.0269629 0.0272146 -0.0382885 0.00158692 -0.000399433 -0.000285168 0.0005 5.23599e-07 
21 1 0.0170382 0.0227972 0.0138784 0.0142937 0.000476749 -0.00020484 -4.65722e-05 -7.81004e-05 -5.53128e-05 0.0005 5.23599e-07 
22 1 0.0192003 0.0183742 0.0159149 0.00155829 0.0491422 -0.000961299 0 0 -5.1365e-06 0.0005 5.23599e-07 
23 1 0.0167767 0.016376 0.01796 -0.00276424 0.0032805 0.0148316 0 0 -5.1365e-06 0.0005 5.23599e-07 
24 1 0.0173702 0.0234887 0.0118222 0.00502574 0.00539102 0.0107432 1.97594e-05 2.17976e-05 -8.15839e-05 0.0005 5.23599e-07 
25 1 0.0242991 0.0175156 0.0159468 -0.00351985 0.053224 0.0201766 -3.04436e-05 1.19009e-05 -4.13491e-07 0.0005 5.23599e-07 
26 1 0.0230432 0.0225749 0.0146605 0.00143254 0.0118311 -0.0015978 2.00888e-05 -0.000146931 -5.75043e-05 0.0005 5.23599e-07 
27 1 0.0318845 0.0152081 0.00948535 0.00251376 -0.0216658 0.0442144 -1.661e-06 -2.24034e-06 7.65008e-06 0.0005 5.23599e-07 
29 1 0.0210882 0.0192294 0.00716158 -0.0529423 -0.101237 -0.127548 0.00321806 0.00955033 0.000994022 0.0005 5.23599e-07 
30 1 0.0239503 0.0227657 0.015602 0.00587643 0.000812713 0.000492172 0 0 -5.1365e-06 0.0005 5.23599e-07 
31 1 0.0245072 0.0200993 0.0228434 0.126116 0.0580308 0.520811 0 0 -5.1365e-06 0.0005 5.23599e-07 
34 1 0.0202434 0.0240879 0.0127139 0.0820009 0.21899 -0.0268443 -0.000684398 -0.00874187 -0.000302572 0.0005 5.23599e-07 
35 1 0.0246242 0.015802 0.0159665 -0.010859 -0.00412757 -0.000828729 0 0 -5.1365e-06 0.0005 5.23599e-07 
36 1 0.0165459 0.0217265 0.0169216 -0.126768 -0.0485378 -0.0555627 0 0 -5.1365e-06 0.0005 5.23599e-07 
37 1 0.0176827 0.0232666 0.0148128 -0.00447402 -0.0016587 -0.00900139 0 0 -5.1365e-06 0.0005 5.23599e-07 
39 1 0.0176408 0.0227951 0.0312991 -0.329749 0.066879 0.847098 0 0 -5.1365e-06 0.0005 5.23599e-07 
40 1 0.0166449 0.0231945 0.0147221 -0.0019281 0.0254566 -0.00454017 -3.64306e-05 3.57833e-05 5.39285e-05 0.0005 5.23599e-07 
41 1 0.0187612 0.0244408 0.0137102 0.0228656 -0.0127379 -0.0226707 0.00050213 -0.000286656 -0.000314664 0.0005 5.23599e-07 
42 1 0.0211157 0.0236192 0.01396 0.0158762 0.0234542 -0.0539708 -0.000414931 0.000309811 0.000747529 0.0005 5.23599e-07 
43 1 0.0156571 0.0234399 0.0152279 -0.00867534 -0.00993201 -0.00306973 8.86535e-08 1.01959e-06 -2.74449e-06 0.0005 5.23599e-07 
44 1 0.0256718 0.0174365 0.0167484 -0.022608 0.00540679 -0.0466556 0 0 -5.1365e-06 0.0005 5.23599e-07 
45 1 0.0406138 0.0191626 0.00568074 -7.29534e-15 3.48426e-14 -1.72292e-13 1.1382e-21 4.23516e-22 0 0.0005 5.23599e-07 
46 1 0.0210508 0.024012 0.0131104 0.0699534 -0.0768926 0.0151802 -0.00182224 0.000446498 -0.00564558 0.0005 5.23599e-07 
48 1 0.0209491 0.0230608 0.0149604 0.0453173 0.0140845 -0.0473997 0 0 -5.1365e-06 0.0005 5.23599e-07 
49 1 0.0276481 0.0219201 0.00827454 0.00451105 -0.0214322 -0.0206867 6.05039e-07 3.44763e-06 2.33035e-06 0.0005 5.23599e-07 
50 1 0.0252663 0.0148246 0.0122336 0.00141666 0.00957541 0.0465301 -1.4097e-07 2.62185e-07 3.03184e-07 0.0005 5.23599e-07 
51 1 0.0251591 0.0211387 0.0168033 0.00455991 -0.0547679 -0.0181505 0 0 -5.1365e-06 0.0005 5.23599e-07 
52 1 0.0237925 0.0192214 0.00595071 1.56783e-05 -2.53806e-06 -1.5532e-06 1.22413e-08 -1.97388e-09 -1.21479e-09 0.0005 5.23599e-07 
53 1 0.0249978 0.0168451 0.0162967 -0.0197099 -0.0163306 -0.0449763 0 0 -5.1365e-06 0.0005 5.23599e-07 
54 1 0.0249393 0.0180863 0.0183331 0.0262755 -0.210051 0.106882 0 0 -5.1365e-06 0.0005 5.23599e-07 
55 1 0.0220664 0.0231234 0.0151484 0.0684574 0.0214209 -0.125093 0 0 -5.1365e-06 0.0005 5.23599e-07 
57 1 0.0116552 0.0178248 0.0355027 -0.647778 -0.217212 1.06564 0 0 -5.1365e-06 0.0005 5.23599e-07 
58 1 0.0247165 0.0212639 0.0153637 -0.0085873 0.00966203 -0.00321583 0 0 -5.1365e-06 0.0005 5.23599e-07 
59 1 0.0234515 0.0224638 0.0197942 -0.03234 0.114317 0.268961 0 0 -5.1365e-06 0.0005 5.23599e-07 
60 1 0.0183987 0.017952 0.0263752 -0.278948 -0.227661 0.431984 0 0 -5.1365e-06 0.0005 5.23599e-07 
61 1 0.0189228 0.0191585 0.0179461 -0.0670469 -0.0990809 -0.114364 0 0 -5.1365e-06 0.0005 5.23599e-07 
62 1 0.0215395 0.0148409 0.0146848 0.00927002 -9.76007e-06 -0.0248605 0 0 -5.1365e-06 0.0005 5.23599e-07 
63 1 0.0204346 0.0156719 0.00884283 -0.0353546 -7.74815 -3.73494 0.00505547 -0.104538 -0.178698 0.0005 5.23599e-07 
64 1 0.0202107 0.0177267 0.0157534 2.31891e-05 0.0534375 0.0166531 9.53958e-09 1.88837e-07 -3.99146e-07 0.0005 5.23599e-07 
65 1 0.0263282 0.0163777 0.00814074 0.000758287 -0.0411662 0.0318874 -6.4908e-07 -8.34266e-09 -7.92733e-07 0.0005 5.23599e-07 
66 1 0.022239 0.023275 0.0105979 0.00154518 -0.0111214 -0.0480093 -1.74113e-06 1.10594e-05 2.43679e-05 0.0005 5.23599e-07 
68 1 0.0217229 0.022193 0.00865102 0.000590862 -0.0347892 -0.0354179 -1.83225e-08 -2.46317e-07 7.98063e-08 0.0005 5.23599e-07 
69 1 0.0177849 0.024381 0.0138646 -0.0091033 0.0012891 0.0108106 0.000147881 -0.000169892 -4.37755e-05 0.0005 5.23599e-07 
71 1 0.0166357 0.023795 0.0136816 -0.0113181 0.0109997 0.00561449 -0.000114852 -0.000228681 6.63776e-05 0.0005 5.23599e-07 
72 1 0.0246188 0.0200917 0.0170409 -0.0202854 -0.110012 0.0270453 0 0 -5.1365e-06 0.0005 5.23599e-07 
74 1 0.0205565 0.0242806 0.0140721 -0.00570069 0.00823481 0.0101512 0.00180487 0.00339932 -0.00589446 0.0005 5.23599e-07 
75 1 0.0251327 0.0179841 0.0158087 -0.00664995 0.0409797 0.0104893 -3.26581e-05 3.08693e-05 -1.49956e-05 0.0005 5.23599e-07 
76 1 0.0197354 0.0244775 0.0136081 -0.0261378 -0.0141792 -0.028838 -0.00191807 -9.99671e-05 0.00239873 0.0005 5.23599e-07 
77 1 0.0245196 0.0167377 0.0153682 -0.00233649 0.0487199 0.0336988 4.60721e-05 4.12164e-05 -7.32717e-05 0.0005 5.23599e-07 
78 1 0.0239395 0.0202041 0.00583859 -1.71459e-06 2.57925e-07 1.57984e-07 4.96234e-09 -8.06862e-10 -5.15063e-10 0.0005 5.23599e-07 
79 1 0.017346 0.0240231 0.013051 -0.00165985 -0.00531985 0.020409 0.00045921 0.000660319 -4.07287e-05 0.0005 5.23599e-07 
81 1 0.0179666 0.0142221 0.0142917 -0.00307153 0.0167914 -0.00756971 0 0 -5.1365e-06 0.0005 5.23599e-07 
82 1 0.0225637 0.0195823 0.0058395 -4.39595e-14 9.36736e-14 3.3937e-13 0 2.11758e-22 8.47033e-22 0.0005 5.23599e-07 
83 1 0.019419 0.0145306 0.0130517 0.0203978 0.00400051 0.0104742 0 0 -5.1365e-06 0.0005 5.23599e-07 
84 1 0.0336017 0.0195831 0.00585649 -6.62402e-19 1.06664e-18 4.43305e-18 -5.29396e-22 6.35275e-22 -8.47033e-22 0.0005 5.23599e-07 
85 1 0.0218738 0.0238434 0.0134882 0.0278584 -0.0788288 0.00907318 -0.000926996 -0.00305531 0.00113318 0.0005 5.23599e-07 
86 1 0.0193055 0.0236653 0.0139784 0.00551214 -0.0345834 0.0213718 0.000566687 0.000293762 -0.000543205 0.0005 5.23599e-07 
87 1 0.0194051 0.0184544 0.0169315 -0.0763016 -0.129884 -0.103135 0 0 -5.1365e-06 0.0005 5.23599e-07 
89 1 0.0316228 0.0148144 0.0108147 0.00158818 -0.00749173 0.0465244 -6.41055e-07 -1.11264e-06 4.76005e-06 0.0005 5.23599e-07 
90 1 0.0333347 0.0209631 0.00768984 0.00184579 -0.0416462 -0.0178298 -1.08202e-07 -3.7545e-07 7.45741e-08 0.0005 5.23599e-07 
91 1 0.0199362 0.0147252 0.0112008 -0.00240097 -0.00781649 0.054164 -2.02398e-05 -2.89124e-06 -1.47696e-05 0.0005 5.23599e-07 
92 1 0.0210574 0.0146503 0.0128397 0.0539987 0.0157278 0.0670961 0 0 -5.1365e-06 0.0005 5.23599e-07 
93 1 0.0258363 0.0184536 0.0169454 0.004357 0.0172497 0.072874 0 0 -5.1365e-06 0.0005 5.23599e-07 
95 1 0.0171737 0.0227343 0.0155069 0.0071286 -0.0040991 -0.0015913 0 0 -5.1365e-06 0.0005 5.23599e-07 
97 1 0.0180064 0.0226854 0.014062 0.0111924 -0.00501906 0.00331274 -8.37829e-05 -2.48578e-05 6.22554e-05 0.0005 5.23599e-07 
98 1 0.0199355 0.0151061 0.0137068 0.0153264 0.0288391 0.0155762 0 0 -5.1365e-06 0.0005 5.23599e-07 
102 1 0.0192144 0.0220988 0.0147661 0.0159448 -0.000472576 0.00628613 -1.84391e-05 -9.79906e-06 -7.61233e-05 0.0005 5.23599e-07 
103 1 0.0254754 0.0260263 0.0271744 0.0966897 0.195545 0.519833 0 0 -5.1365e-06 0.0005 5.23599e-07 
105 1 0.0389148 0.0189256 0.00570476 -7.0155e-16 3.72235e-15 -1.82421e-14 3.4199e-19 -1.48231e-20 -1.69407e-20 0.0005 5.23599e-07 
106 1 0.0172001 0.0236822 0.0158345 0.000405005 -0.00148372 -0.00251203 0 0 -5.1365e-06 0.0005 5.23599e-07 
107 1 0.0172611 0.0222122 0.0146507 0.0157148 -0.012278 0.0086956 -4.76199e-05 2.4804e-05 -1.07695e-06 0.0005 5.23599e-07 
108 1 0.0306393 0.0161699 0.0147042 0.000597784 0.0377389 0.0343453 -2.7843e-08 2.20099e-07 -8.70048e-08 0.0005 5.23599e-07 
109 1 0.0281147 0.0231357 0.0100335 0.000917701 -0.0159109 -0.0460207 -1.84645e-07 -3.92686e-07 -5.95124e-08 0.0005 5.23599e-07 
110 1 0.0182113 0.0236711 0.0155674 -0.00483794 -0.00546976 -0.0100739 0 0 -5.1365e-06 0.0005 5.23599e-07 
111 1 0.0257148 0.0203275 0.0170653 0.00953738 0.0144971 -0.00268441 -6.02273e-06 3.05134e-06 -6.13619e-06 0.0005 5.23599e-07 
112 1 0.0183113 0.0240558 0.0129175 0.02621 -0.00219474 -0.0135799 -0.000759121 -0.000495052 -0.000623059 0.0005 5.23599e-07 
113 1 0.0279977 0.0212964 0.00779594 0.00278944 0.000841926 -0.00501202 6.3718e-07 2.77849e-06 2.114e-06 0.0005 5.23599e-07 
114 1 0.0182275 0.0221432 0.0148693 0.0181037 -0.00949479 0.00628876 -4.15581e-05 -2.9733e-05 -4.91029e-05 0.0005 5.23599e-07 
115 1 0.0288723 0.0229 0.0134153 -0.000813061 0.0259999 -0.0459565 -3.83447e-06 2.89237e-06 -8.43293e-06 0.0005 5.23599e-07 
118 1 0.0186638 0.0234319 0.0147077 -0.00441789 -0.00632871 -0.00565171 -5.5457e-05 3.58573e-05 0.000109673 0.0005 5.23599e-07 
120 1 0.0171123 0.0240365 0.0145137 -0.0043879 0.0120358 -0.000907493 2.71403e-05 7.66061e-05 -8.31257e-05 0.0005 5.23599e-07 
122 1 0.0192844 0.0240998 0.0128275 -0.0526893 -0.0257794 0.0424738 -0.000624343 0.00628784 -0.0036309 0.0005 5.23599e-07 
123 1 0.0233198 0.0233374 0.0149394 -0.00164483 0.0082244 -0.00489051 6.28044e-05 -0.000270622 -5.28197e-05 0.0005 5.23599e-07 
124 1 0.0222934 0.0229688 0.00964116 0.00110904 0.00334524 0.00056744 5.33769e-08 5.04447e-07 1.8462e-06 0.0005 5.23599e-07 
125 1 0.0267944 0.0183929 0.00725386 0.000573657 -0.0499347 0.00782286 -2.78966e-08 -7.77659e-08 2.23427e-07 0.0005 5.23599e-07 
126 1 0.0203778 0.0222563 0.0156381 0.0510111 -0.00896644 0.00199471 0 0 -5.1365e-06 0.0005 5.23599e-07 
127 1 0.0186752 0.0231634 0.0131811 0.0303205 0.00877049 -0.00138845 1.60096e-05 -5.38591e-05 -4.43148e-05 0.0005 5.23599e-07 
128 1 0.0312133 0.0149609 0.0125106 0.0052653 0.0114772 0.0348444 -6.571e-07 9.63332e-07 9.96893e-07 0.0005 5.23599e-07 
129 1 0.0328772 0.0187551 0.00728967 -0.000946874 -0.0543123 0.000177499 -1.95072e-07 -1.37587e-07 6.49911e-08 0.0005 5.23599e-07 
131 1 0.0174126 0.014114 0.013382 -0.00340679 0.00640374 -0.0167407 0 0 -5.1365e-06 0.0005 5.23599e-07 
133 1 0.0212001 0.0201282 0.00734011 0.0180567 -0.0686217 -0.0167408 0.000592967 0.000335015 -0.000806747 0.0005 5.23599e-07 
134 1 0.0203545 0.0164502 0.00802184 -7.60982e-05 -0.0420121 0.0304304 3.37071e-05 -4.06844e-05 -1.95003e-06 0.0005 5.23599e-07 
135 1 0.0189659 0.0151322 0.0139555 0.0160822 0.0142453 0.0177949 -3.5631e-06 4.87315e-07 -4.2975e-06 0.0005 5.23599e-07 
136 1 0.0205844 0.0142831 0.0137494 -0.00615602 0.00136262 -0.0466267 0 0 -5.1365e-06 0.0005 5.23599e-07 
138 1 0.0167299 0.0233727 0.0125634 0.00583793 0.00337968 0.00192051 7.92521e-05 0.000117399 -5.00365e-06 0.0005 5.23599e-07 
139 1 0.0161838 0.0213204 0.0179146 0.174237 -0.199068 0.0588632 0 0 -5.1365e-06 0.0005 5.23599e-07 
140 1 0.0204613 0.0145853 0.0120391 0.00965843 -0.00651649 0.0826395 2.65135e-07 -1.41765e-05 3.27798e-05 0.0005 5.23599e-07 
141 1 0.0207802 0.0183093 0.00730375 -0.3366 -0.108887 -1.6432 -0.0245749 0.154382 0.138388 0.0005 5.23599e-07 
142 1 0.0327957 0.0190095 0.00571076 2.40123e-18 7.13775e-19 6.33649e-18 0 -2.43522e-21 -2.5411e-21 0.0005 5.23599e-07 
143 1 0.022603 0.0235945 0.014219 0.00469029 -0.00674151 0.00112053 -6.24308e-05 0.000108045 1.55079e-05 0.0005 5.23599e-07 
144 1 0.0246165 0.0200673 0.0158261 0.00430444 0.0232543 -0.0089349 -6.52213e-06 1.55938e-05 -1.51995e-05 0.0005 5.23599e-07 
146 1 0.0192976 0.0173496 0.0156036 6.91721e-05 0.0513145 0.0215811 1.46518e-07 -2.02213e-08 5.48351e-08 0.0005 5.23599e-07 
147 1 0.020086 0.0139034 0.0231885 -0.325728 -0.568225 0.504678 0 0 -5.1365e-06 0.0005 5.23599e-07 
148 1 0.0176786 0.0231343 0.0132272 0.02235 -0.00203835 0.00156351 -3.16154e-05 -9.47827e-05 0.000214746 0.0005 5.23599e-07 
149 1 0.0146579 0.0250949 0.0234711 -0.315192 0.200279 0.363875 0 0 -5.1365e-06 0.0005 5.23599e-07 
150 1 0.025739 0.0187227 0.0159328 -0.00415482 0.0307389 0.00388441 -8.10506e-06 7.10564e-05 -1.7217e-05 0.0005 5.23599e-07 
151 1 0.0313902 0.0147803 0.0117132 0.00654232 -0.0018598 0.0307202 -4.83294e-07 5.82165e-07 3.17964e-06 0.0005 5.23599e-07 
152 1 0.02321 0.0228032 0.0138774 0.0053547 -0.00980295 -0.00448744 3.47913e-05 2.51223e-05 -0.000180061 0.0005 5.23599e-07 
153 1 0.0182194 0.0181215 0.0158505 -0.00459743 0.0719008 0.0134179 0 0 -5.1365e-06 0.0005 5.23599e-07 
154 1 0.0309572 0.0153728 0.0136673 0.00118962 0.0224446 0.0486343 -1.89177e-07 5.32135e-07 3.8992e-07 0.0005 5.23599e-07 
155 1 0.0248463 0.0191119 0.0162351 0.00323383 0.0347582 0.00346264 -2.39197e-05 5.0252e-05 -1.5888e-05 0.0005 5.23599e-07 
156 1 0.0187324 0.0138412 0.0133196 -0.0195675 -0.0124561 -0.00907629 0 0 -5.1365e-06 0.0005 5.23599e-07 
157 1 0.0239434 0.0153312 0.0152885 -0.00148156 -0.000356613 0.000844337 0 0 -5.1365e-06 0.0005 5.23599e-07 
158 1 0.0256518 0.0196594 0.0163393 0.00342436 0.0175918 0.00164266 -4.9569e-06 2.72204e-06 -1.06312e-05 0.0005 5.23599e-07 
160 1 0.0207836 0.0155129 0.014203 0.0061319 0.0130349 0.0104711 0 0 -5.1365e-06 0.0005 5.23599e-07 
161 1 0.0279428 0.0227261 0.00917699 0.0053533 -0.0202907 -0.0284567 -1.49249e-06 -3.72034e-06 -3.15592e-06 0.0005 5.23599e-07 
163 1 0.0205628 0.0173787 0.00752106 -0.0573237 -0.202279 -0.0588933 0.00162192 -0.000562033 8.44517e-05 0.0005 5.23599e-07 
164 1 0.0215855 0.0142915 0.0137265 0.00529062 0.00517778 0.0120477 0 0 -5.1365e-06 0.0005 5.23599e-07 
166 1 0.0196834 0.0229129 0.0151127 0.00622802 0.00451953 0.00102171 0 0 -5.1365e-06 0.0005 5.23599e-07 
167 1 0.0284052 0.0233678 0.0113292 0.00124388 0.00355907 -0.0526344 3.29546e-07 -3.62061e-07 2.00867e-07 0.0005 5.23599e-07 
168 1 0.0193724 0.0237761 0.0155263 -0.000594826 -0.000447597 0.00264235 0 0 -5.1365e-06 0.0005 5.23599e-07 
169 1 0.015852 0.0235656 0.0142552 0.00173463 0.0107474 0.00173287 -3.57428e-05 -1.22429e-05 9.42847e-06 0.0005 5.23599e-07 
170 1 0.0232556 0.0148865 0.0147085 -0.00731641 -0.00275095 -0.00293412 3.73367e-07 -3.82116e-06 3.34739e-06 0.0005 5.23599e-07 
171 1 0.0194 0.014597 0.0120469 0.0316375 0.00139607 0.0402691 0 0 -5.1365e-06 0.0005 5.23599e-07 
173 1 0.0202668 0.0148403 0.0148009 -0.00267956 -0.00448256 -0.0195387 0 0 -5.1365e-06 0.0005 5.23599e-07 
174 1 0.0196289 0.0157571 0.0144925 0.00823009 0.00943458 0.0185648 0 0 -5.1365e-06 0.0005 5.23599e-07 
175 1 0.0381686 0.0197868 0.00591052 1.04078e-14 -4.97161e-14 2.45847e-13 -7.06743e-20 5.29396e-21 4.23516e-21 0.0005 5.23599e-07 
176 1 0.0227053 0.0232521 0.012622 0.00040593 0.0117134 -0.0478905 -2.18584e-08 -1.64574e-07 -1.99816e-07 0.0005 5.23599e-07 
178 1 0.0224516 0.0145332 0.0142093 -0.0260917 -0.00246722 -0.0151424 0 0 -5.1365e-06 0.0005 5.23599e-07 
180 1 0.0189958 0.0227215 0.0140169 0.0124744 -0.0211931 0.00825894 -6.55319e-05 -0.000226402 0.000216956 0.0005 5.23599e-07 
181 1 0.0214624 0.017138 0.0170206 -0.0238572 -0.00259665 -0.00271657 0 0 -5.1365e-06 0.0005 5.23599e-07 
182 1 0.0178752 0.0221638 0.0159417 0.022855 0.00681896 -0.00541323 0 0 -5.1365e-06 0.0005 5.23599e-07 
183 1 0.0241147 0.0184629 0.0161814 -0.00114163 0.0518899 0.00825572 -1.78885e-05 4.09865e-05 1.40091e-05 0.0005 5.23599e-07 
185 1 0.0198555 0.0151765 0.00962822 0.00321944 -0.0215317 0.0379935 -1.23309e-06 8.48254e-08 -1.95891e-07 0.0005 5.23599e-07 
188 1 0.018516 0.0167795 0.0153538 -2.47931e-05 0.0478968 0.0296262 1.10345e-07 5.93391e-08 -8.84014e-08 0.0005 5.23599e-07 
189 1 0.0237834 0.022484 0.014595 0.00182453 0.00241801 0.000655789 3.09254e-05 8.66772e-05 2.43699e-05 0.0005 5.23599e-07 
190 1 0.0187536 0.0227652 0.0154503 0.00529318 0.000244299 -0.000476003 0 0 -5.1365e-06 0.0005 5.23599e-07 
