ITEM: TIMESTEP
3400000
ITEM: NUMBER OF ATOMS
154
ITEM: BOX BOUNDS ff ff ff
-0.02 0.43
-0.02 0.06
-0.02 0.07
ITEM: ATOMS id type x y z vx vy vz fx fy fz radius mass 
1 1 0.0214825 0.0226743 0.0140072 0.00340927 0.0186422 -0.0265468 2.26009e-06 -4.37892e-06 1.11482e-05 0.0005 5.23599e-07 
2 1 0.0295829 0.0154652 0.00913462 0.00548113 -0.0189441 0.0325201 5.63917e-07 -3.18449e-06 5.1876e-06 0.0005 5.23599e-07 
4 1 0.0310661 0.0191297 0.00572217 0.000269668 -1.84606e-06 -0.00496324 0 0 -5.1365e-06 0.0005 5.23599e-07 
5 1 0.0317776 0.0232138 0.010252 0.00124863 -0.0144435 -0.0469039 -1.84056e-07 -3.00294e-07 -3.37833e-07 0.0005 5.23599e-07 
6 1 0.0172993 0.014631 0.012055 0.00272652 0.00481832 -0.0142979 -9.33081e-07 -4.51803e-07 -1.5658e-06 0.0005 5.23599e-07 
7 1 0.0298252 0.0161473 0.0082965 0.000771777 -0.0368331 0.0334974 -2.33549e-06 3.70452e-06 -2.52762e-06 0.0005 5.23599e-07 
8 1 0.0290723 0.0147438 0.0112767 0.00232205 -0.00224088 0.0429708 2.99276e-06 -1.26396e-06 -1.51971e-05 0.0005 5.23599e-07 
10 1 0.0293753 0.015021 0.0102236 0.000604084 -0.0138381 0.0499517 -5.08016e-07 -8.93408e-08 1.04315e-06 0.0005 5.23599e-07 
11 1 0.0223677 0.0158848 0.014624 0.00396462 0.0267218 0.0280505 3.27026e-07 2.66709e-07 -1.64091e-07 0.0005 5.23599e-07 
12 1 0.0231638 0.0203813 0.0157516 -0.00436561 0.0265048 -0.00495554 4.70938e-05 9.40487e-05 -2.98457e-05 0.0005 5.23599e-07 
13 1 0.0299555 0.0192758 0.00584182 0.000834975 -0.000242208 -0.0101181 0 0 -5.1365e-06 0.0005 5.23599e-07 
14 1 0.0195431 0.0207708 0.0164704 0.0103287 -0.0462772 0.0111172 0 0 -5.1365e-06 0.0005 5.23599e-07 
15 1 0.0243302 0.0181444 0.00733651 0.000491612 -0.0517379 0.0100755 -6.41633e-08 -5.70704e-08 2.41104e-07 0.0005 5.23599e-07 
16 1 0.0253096 0.0212717 0.0162026 -0.00599125 0.00485626 0.000954236 4.85637e-05 2.98693e-05 -5.76767e-06 0.0005 5.23599e-07 
17 1 0.0245044 0.0221135 0.0157772 -0.00873944 0.00232172 0.00435156 0 0 -5.1365e-06 0.0005 5.23599e-07 
19 1 0.0202925 0.0236975 0.0142092 0.00381018 0.00584672 -0.00621024 2.5613e-06 7.3692e-06 -1.38401e-05 0.0005 5.23599e-07 
20 1 0.0217939 0.0242034 0.014219 -0.00100887 0.00129227 -0.000593483 5.81382e-07 2.79578e-07 2.40029e-06 0.0005 5.23599e-07 
21 1 0.0160033 0.0225865 0.0142074 0.00521803 0.0033187 -3.46007e-05 -1.3439e-05 1.90909e-05 -2.71964e-05 0.0005 5.23599e-07 
22 1 0.0214083 0.021026 0.0169527 -0.051882 -0.0857005 0.064688 0 0 -5.1365e-06 0.0005 5.23599e-07 
23 1 0.0228271 0.0155248 0.0154359 0.0100844 0.00430168 0.0146737 4.19279e-07 -7.27075e-07 -1.06571e-06 0.0005 5.23599e-07 
24 1 0.0158319 0.023103 0.013365 0.00258141 -0.000424356 -0.00095845 -1.8002e-07 -3.8791e-06 6.0539e-06 0.0005 5.23599e-07 
25 1 0.0235086 0.0152259 0.00946577 0.000427322 -0.0264713 0.0453954 -1.08525e-06 -8.55961e-08 3.53119e-07 0.0005 5.23599e-07 
26 1 0.0214397 0.0202565 0.0159084 0.0820569 -0.0387423 0.071651 0 0 -5.1365e-06 0.0005 5.23599e-07 
27 1 0.031518 0.0226713 0.00909499 0.00512261 -0.0225769 -0.0298952 1.30536e-06 2.17572e-05 2.34721e-05 0.0005 5.23599e-07 
29 1 0.0209689 0.0234569 0.0119626 0.00513598 -0.000397287 0.00319653 -0.000206964 0.000137419 0.000508835 0.0005 5.23599e-07 
30 1 0.0238594 0.022701 0.0152867 -0.00305048 -0.00271586 -0.0090159 6.45855e-07 2.27565e-05 7.61771e-07 0.0005 5.23599e-07 
31 1 0.0216758 0.0192504 0.0159603 0.109139 -0.0433646 0.00248225 0 0 -5.1365e-06 0.0005 5.23599e-07 
34 1 0.0203319 0.0240334 0.0126165 0.000890023 0.00110589 -0.00541879 4.7787e-06 -5.83018e-06 -5.56638e-06 0.0005 5.23599e-07 
35 1 0.0234454 0.0212377 0.0174201 -0.000213495 -0.0502625 0.0797616 0 0 -5.1365e-06 0.0005 5.23599e-07 
36 1 0.0225141 0.0236467 0.0151358 -0.0015088 -0.00103367 -0.000402812 1.56404e-06 1.53391e-06 1.78424e-06 0.0005 5.23599e-07 
37 1 0.0175459 0.0232555 0.0146392 0.00317401 0.0110168 -0.0222212 -9.46709e-08 5.27001e-06 -3.73683e-06 0.0005 5.23599e-07 
38 1 0.00524166 0.0303967 0.0638097 -0.0976298 0.225337 0.0296662 0 0 -5.1365e-06 0.0005 5.23599e-07 
39 1 0.0217737 0.0182575 0.0161858 0.0374486 0.00865589 -0.0703909 0 0 -5.1365e-06 0.0005 5.23599e-07 
40 1 0.0166038 0.0234538 0.0149251 0.00149627 -0.00311206 -0.00133731 4.75813e-06 3.50581e-06 1.33466e-06 0.0005 5.23599e-07 
41 1 0.0189062 0.0244778 0.0136944 0.00021584 -7.89779e-05 0.000727809 2.27932e-05 1.61907e-05 -1.84258e-05 0.0005 5.23599e-07 
42 1 0.0206751 0.0228519 0.0143528 0.00615853 0.0108676 -0.0217385 -6.93119e-06 2.13561e-05 -2.97166e-05 0.0005 5.23599e-07 
43 1 0.0212853 0.0219181 0.0163095 -0.0324364 0.0278507 0.0899676 0 0 -5.1365e-06 0.0005 5.23599e-07 
44 1 0.024389 0.0176753 0.0165712 -0.00051561 0.0320531 0.00588349 5.17101e-08 1.08596e-07 -2.34925e-06 0.0005 5.23599e-07 
45 1 0.0406138 0.0191626 0.00568074 -7.29415e-15 3.48445e-14 -1.72292e-13 -7.14684e-22 -8.47033e-22 -8.47033e-22 0.0005 5.23599e-07 
46 1 0.0212286 0.0239148 0.012966 0.000916939 0.00332015 -0.00314548 3.23497e-06 -4.19243e-06 -7.64448e-07 0.0005 5.23599e-07 
48 1 0.0210726 0.0238363 0.0148187 -0.002756 0.000839047 -0.000344684 1.46537e-05 -5.63971e-07 1.46109e-05 0.0005 5.23599e-07 
49 1 0.0271496 0.0208359 0.0154202 0.00663573 0.000258512 -0.00028996 5.95455e-06 1.29006e-06 -2.07512e-06 0.0005 5.23599e-07 
50 1 0.0249701 0.0206849 0.00763876 -0.00377432 -0.0446832 -0.0264708 3.37426e-07 -3.04084e-07 2.70613e-07 0.0005 5.23599e-07 
51 1 0.0250124 0.0217512 0.0167328 -0.00207712 0.00267625 0.000249364 8.87636e-05 3.80131e-05 -3.46026e-06 0.0005 5.23599e-07 
52 1 0.0237911 0.0192212 0.005951 0.000769112 0.000398382 -0.000251211 -5.64853e-07 3.5109e-07 -7.30569e-07 0.0005 5.23599e-07 
53 1 0.0224347 0.0218567 0.0161496 0.0145953 0.0160615 0.104909 0 0 -5.1365e-06 0.0005 5.23599e-07 
54 1 0.0246253 0.0199843 0.0166792 6.73938e-06 0.0589941 -0.0104949 -8.962e-08 4.18899e-08 -3.03017e-07 0.0005 5.23599e-07 
55 1 0.0220403 0.023178 0.0162632 0.0168382 -0.0249773 0.134419 0 0 -5.1365e-06 0.0005 5.23599e-07 
57 1 0.0221435 0.0166744 0.0152545 0.0147871 -0.010627 -0.00554269 -7.56188e-08 -4.62106e-07 -8.1482e-07 0.0005 5.23599e-07 
58 1 0.0234305 0.0194361 0.0159322 0.0242125 0.00317033 -0.00508915 -4.70938e-05 -9.40487e-05 1.95727e-05 0.0005 5.23599e-07 
59 1 0.0241764 0.0212483 0.0162485 0.0530376 -0.0411646 0.0371917 0 0 -5.1365e-06 0.0005 5.23599e-07 
60 1 0.0218605 0.0224514 0.0155698 0.0309749 0.0114915 0.0545096 5.74333e-05 -0.000124453 -3.12803e-05 0.0005 5.23599e-07 
61 1 0.0208836 0.023759 0.0161762 0.0148205 -0.00462127 -0.000643939 2.02803e-07 -2.82664e-06 -7.81472e-06 0.0005 5.23599e-07 
62 1 0.0206706 0.0145685 0.0142514 -0.00594137 -0.00276579 0.00187395 0 0 -5.1365e-06 0.0005 5.23599e-07 
63 1 0.0203302 0.0225805 0.00906232 0.000480186 -0.0274782 -0.0438699 5.08993e-10 -1.91536e-07 6.23362e-08 0.0005 5.23599e-07 
64 1 0.0184175 0.0150726 0.0146665 -0.0230522 0.00848736 -0.00362782 0 0 -5.1365e-06 0.0005 5.23599e-07 
65 1 0.0258491 0.0232859 0.0106087 0.00162519 -0.0108107 -0.0467416 -1.5319e-07 -1.98485e-07 -1.80597e-07 0.0005 5.23599e-07 
66 1 0.0211455 0.0221508 0.0148915 0.0195177 0.0579612 0.0419355 0 0 -5.1365e-06 0.0005 5.23599e-07 
68 1 0.0211845 0.0231111 0.0131384 0.0040303 0.0113217 -0.0180554 5.74204e-06 -2.76195e-06 -1.73499e-06 0.0005 5.23599e-07 
69 1 0.0179038 0.0243937 0.0138257 -0.000318872 0.00185034 0.00117848 1.43007e-05 7.14977e-06 1.30749e-06 0.0005 5.23599e-07 
71 1 0.016573 0.0237461 0.0135562 0.00184669 0.00127196 0.00204878 2.06862e-07 -8.45383e-07 -2.42157e-06 0.0005 5.23599e-07 
72 1 0.0226022 0.0188507 0.0159537 0.0287078 -0.0906049 0.00769266 0 0 -5.1365e-06 0.0005 5.23599e-07 
74 1 0.0208588 0.0243491 0.0138393 0.000373277 0.00241776 -0.000336024 -5.88202e-06 5.66577e-06 2.22191e-05 0.0005 5.23599e-07 
75 1 0.0236004 0.0150673 0.0149971 0.00561607 0.00298606 0.00527676 4.41653e-06 -9.82434e-06 3.6003e-07 0.0005 5.23599e-07 
76 1 0.0199095 0.0244754 0.0135961 4.55954e-05 0.000453177 -9.65568e-05 1.13842e-05 7.0232e-06 -2.12176e-06 0.0005 5.23599e-07 
77 1 0.0239576 0.0165093 0.00803131 0.000755395 -0.0415778 0.0299988 -8.93733e-08 -2.56917e-07 4.68627e-07 0.0005 5.23599e-07 
78 1 0.023997 0.0201971 0.00583849 -0.0254262 0.00803081 -0.00203854 0 0 -5.1365e-06 0.0005 5.23599e-07 
79 1 0.017368 0.0240278 0.0130195 -0.000271632 0.000614289 0.00209604 -1.03756e-05 -1.3304e-06 1.06325e-05 0.0005 5.23599e-07 
81 1 0.0225082 0.0198273 0.0163923 0.177364 -0.192977 0.139528 0 0 -5.1365e-06 0.0005 5.23599e-07 
82 1 0.0225637 0.0195823 0.0058395 -4.39598e-14 9.36742e-14 3.3937e-13 0 2.11758e-22 0 0.0005 5.23599e-07 
83 1 0.0187699 0.0200153 0.00728515 0.00281551 -0.040578 -0.00928213 1.3761e-06 -3.72379e-06 -3.17013e-06 0.0005 5.23599e-07 
84 1 0.0336017 0.0195831 0.00585649 2.44189e-20 1.25015e-18 -4.96668e-18 -2.11758e-22 1.05879e-22 0 0.0005 5.23599e-07 
85 1 0.0216038 0.0235583 0.0137243 -5.54391e-05 0.0074977 -0.00541984 1.20764e-05 -3.81045e-06 6.29999e-06 0.0005 5.23599e-07 
86 1 0.0193669 0.0237184 0.0138613 0.00241815 0.00116716 -0.00149852 1.74329e-05 2.79075e-05 1.85605e-05 0.0005 5.23599e-07 
87 1 0.0218458 0.023248 0.0146152 -0.00424403 0.00200657 -0.00228568 6.9403e-06 1.98904e-06 4.52177e-06 0.0005 5.23599e-07 
89 1 0.031173 0.0217121 0.00809833 0.00297868 -0.0394375 -0.0367168 -1.65487e-07 -1.68297e-07 1.31089e-07 0.0005 5.23599e-07 
90 1 0.0328753 0.0217712 0.0147712 -0.00119473 0.0445448 -0.0309018 3.48572e-05 -4.53948e-05 1.43342e-05 0.0005 5.23599e-07 
91 1 0.0191606 0.0217376 0.00812417 0.132845 -0.443996 -0.989541 -0.0102582 0.035155 -0.10182 0.0005 5.23599e-07 
92 1 0.0197348 0.014006 0.0129604 0.000146187 0.00294068 -0.00523312 6.15887e-07 -5.30119e-07 -1.46792e-06 0.0005 5.23599e-07 
93 1 0.0246323 0.015966 0.0157513 0.01143 0.0084008 0.0112667 -6.95325e-07 -4.77985e-07 -5.03348e-07 0.0005 5.23599e-07 
95 1 0.0190347 0.0224213 0.0155494 -0.0541286 -0.0276739 0.034744 0 0 -5.1365e-06 0.0005 5.23599e-07 
97 1 0.0168592 0.0217487 0.0155805 -0.0132125 -0.0218234 -0.0178208 1.17617e-05 -1.01593e-05 5.02391e-05 0.0005 5.23599e-07 
98 1 0.0182918 0.0146238 0.0119344 0.0031078 0.00266872 -0.00644893 -3.66968e-06 3.16879e-07 6.33374e-06 0.0005 5.23599e-07 
102 1 0.0195551 0.021721 0.0160495 0.000526213 -0.00182933 0.0128614 0 0 -5.1365e-06 0.0005 5.23599e-07 
103 1 0.0234676 0.0220412 0.0159395 0.0553454 -0.01078 0.0323234 0 0 -5.1365e-06 0.0005 5.23599e-07 
105 1 0.0389148 0.0189256 0.00570476 -6.77983e-16 3.6997e-15 -1.82477e-14 1.88994e-20 3.98105e-20 7.6233e-21 0.0005 5.23599e-07 
106 1 0.0211424 0.0212536 0.0155726 0.0227566 0.0195398 0.0835325 0 0 -5.1365e-06 0.0005 5.23599e-07 
107 1 0.0233941 0.015916 0.0174188 0.208274 -0.191229 -0.298498 0 0 -5.1365e-06 0.0005 5.23599e-07 
108 1 0.0300871 0.0169321 0.00773387 0.00410774 -0.0352391 0.0161262 -8.55193e-07 -1.12423e-05 3.7985e-06 0.0005 5.23599e-07 
109 1 0.0277418 0.0182043 0.0157213 0.00338199 0.0431625 0.015276 1.00965e-05 -2.6895e-05 -5.90293e-06 0.0005 5.23599e-07 
110 1 0.0177153 0.0236053 0.0155614 0.00917253 0.00930428 -0.0212225 0 0 -5.1365e-06 0.0005 5.23599e-07 
111 1 0.0253513 0.0209199 0.0170179 -0.000741967 0.00243854 -0.000278799 2.99152e-05 3.23938e-05 -8.13263e-06 0.0005 5.23599e-07 
112 1 0.0183591 0.0240899 0.0129648 0.000104879 -0.000900801 0.00189395 5.48405e-06 4.99933e-06 -6.54981e-06 0.0005 5.23599e-07 
113 1 0.0269391 0.0215858 0.0149073 0.0169474 -0.0173464 0.0188329 -8.3594e-07 -2.99638e-06 -2.47301e-06 0.0005 5.23599e-07 
114 1 0.0171288 0.0227533 0.0154107 0.0138293 0.00588309 -0.0114032 0 0 -5.1365e-06 0.0005 5.23599e-07 
115 1 0.0285051 0.015455 0.0138029 0.000124333 0.0234764 0.0490224 -5.16864e-06 1.86313e-06 3.75821e-06 0.0005 5.23599e-07 
118 1 0.0190439 0.0238501 0.0148349 0.000909918 -0.000929502 0.00152317 -1.06227e-05 -1.63095e-05 2.47533e-05 0.0005 5.23599e-07 
120 1 0.0170977 0.0241013 0.0143414 -0.0101099 -0.00257644 -0.013305 0 0 -5.1365e-06 0.0005 5.23599e-07 
122 1 0.0193142 0.024085 0.0127104 0.000130538 0.00108838 -0.00230507 3.915e-06 1.66255e-06 -4.45235e-05 0.0005 5.23599e-07 
123 1 0.023238 0.0232063 0.0146862 -0.000719287 -0.0041901 -8.8923e-05 -1.39088e-06 4.68805e-06 -8.34191e-06 0.0005 5.23599e-07 
124 1 0.0221803 0.023212 0.0130268 -0.000981955 0.000386442 -0.00160461 1.80408e-05 3.26874e-06 2.27005e-05 0.0005 5.23599e-07 
125 1 0.0261054 0.0233615 0.0118059 0.000212117 0.00801839 -0.048385 -4.00118e-06 -1.46364e-06 9.79885e-06 0.0005 5.23599e-07 
126 1 0.0203049 0.0224325 0.0159059 -0.0114223 -0.0283728 -0.0136049 0 0 -5.1365e-06 0.0005 5.23599e-07 
127 1 0.0183621 0.0235806 0.0141607 0.000617708 0.0044278 0.000504496 -4.30792e-07 -2.7962e-06 8.97706e-06 0.0005 5.23599e-07 
128 1 0.0305874 0.0193374 0.0071966 7.98339e-05 -0.0530116 -0.00582139 -1.94545e-08 -8.76828e-08 2.20755e-07 0.0005 5.23599e-07 
129 1 0.0324789 0.0229777 0.0132834 0.000167914 0.0237399 -0.0467226 -1.85668e-08 -1.7598e-07 -1.65822e-07 0.0005 5.23599e-07 
131 1 0.0169793 0.0141359 0.0136025 0.0145139 0.00141633 -0.013154 1.37941e-06 7.21878e-07 -1.64364e-06 0.0005 5.23599e-07 
133 1 0.0204607 0.0229377 0.0134376 0.00329599 0.0128376 -0.027843 1.62144e-06 1.65222e-06 -1.06258e-06 0.0005 5.23599e-07 
134 1 0.0201787 0.0232935 0.0106393 0.000159609 -0.00568508 -0.030709 3.71281e-06 -3.29959e-06 -8.78547e-06 0.0005 5.23599e-07 
135 1 0.0181016 0.0169725 0.00772794 0.000597045 -0.0455933 0.0240465 -1.53976e-08 2.24283e-08 2.38449e-07 0.0005 5.23599e-07 
136 1 0.0188615 0.0137667 0.0133846 -0.00280517 0.00454474 -0.0104142 -7.1448e-07 1.05843e-06 -3.62041e-06 0.0005 5.23599e-07 
138 1 0.0150512 0.0227909 0.0139075 -0.00123177 0.00188441 0.000327914 1.52409e-05 -9.67294e-06 -5.50169e-06 0.0005 5.23599e-07 
139 1 0.0220966 0.0209585 0.0155224 0.00640938 -0.00252649 0.00054088 0 0 -5.1365e-06 0.0005 5.23599e-07 
140 1 0.0187288 0.0145998 0.0128331 0.0196822 0.00535419 -0.0124511 9.27509e-06 1.29116e-07 9.25729e-06 0.0005 5.23599e-07 
141 1 0.0203583 0.0233136 0.0127505 0.00631898 0.00717582 -0.0204961 2.97068e-06 -6.72033e-06 1.01144e-06 0.0005 5.23599e-07 
142 1 0.0327957 0.0190095 0.00571076 -4.01158e-19 -2.16414e-18 -4.70198e-18 3.17637e-22 -1.05879e-22 0 0.0005 5.23599e-07 
143 1 0.0225517 0.023621 0.0141209 -0.00111249 0.00114515 -0.00112867 7.84627e-07 4.83718e-06 -8.29461e-06 0.0005 5.23599e-07 
144 1 0.0235147 0.0183958 0.015893 0.0227915 -0.0511813 -0.0132216 0 0 -5.1365e-06 0.0005 5.23599e-07 
146 1 0.0175868 0.0152196 0.0139732 0.0202613 0.0247284 -0.057573 0 0 -5.1365e-06 0.0005 5.23599e-07 
147 1 0.0237042 0.0156268 0.0159051 0.0139654 -0.000565621 0.00908458 1.40509e-07 1.20148e-08 -5.08348e-06 0.0005 5.23599e-07 
148 1 0.0167793 0.022169 0.0146775 0.00471946 0.0092378 -0.0070568 2.46408e-05 1.28011e-05 1.01325e-05 0.0005 5.23599e-07 
149 1 0.0228308 0.0226884 0.0154975 0.0542257 -0.0234052 0.0299615 0 0 -5.1365e-06 0.0005 5.23599e-07 
150 1 0.0233394 0.015459 0.014115 0.0119452 0.00817585 0.0117815 -9.40276e-06 1.13165e-05 -9.35156e-06 0.0005 5.23599e-07 
151 1 0.0309418 0.0207141 0.0075461 0.00231607 -0.0414737 -0.014902 -1.87436e-07 -3.19181e-07 2.46295e-08 0.0005 5.23599e-07 
152 1 0.0224622 0.0226605 0.0140947 -0.00137159 0.00959566 -0.00927412 9.57284e-06 1.06862e-05 -1.23833e-05 0.0005 5.23599e-07 
153 1 0.0165883 0.0152746 0.0138741 0.012172 0.00118585 -0.00244226 0 0 -5.1365e-06 0.0005 5.23599e-07 
154 1 0.030373 0.0183499 0.00723143 0.00201717 -0.0465136 0.00845792 -2.55561e-06 -7.95649e-06 3.06091e-06 0.0005 5.23599e-07 
155 1 0.0233625 0.0162049 0.014919 0.00647899 -0.0115407 -0.0109672 0 0 -5.1365e-06 0.0005 5.23599e-07 
156 1 0.0177771 0.0142283 0.0128361 0.0118221 0.00513312 -0.0217934 1.09196e-08 1.58482e-06 -3.6064e-06 0.0005 5.23599e-07 
157 1 0.0235139 0.0147212 0.011309 -8.23698e-05 -0.00551748 0.0527638 4.48809e-06 8.6076e-07 2.09798e-06 0.0005 5.23599e-07 
158 1 0.0256966 0.02045 0.0164808 -0.00134564 0.00668804 -0.00170361 -1.9716e-05 2.20882e-05 -2.35361e-05 0.0005 5.23599e-07 
160 1 0.0195048 0.0143827 0.0138587 -0.00166609 -0.0015046 -0.00138006 0 0 -5.1365e-06 0.0005 5.23599e-07 
161 1 0.0275588 0.0196534 0.0157897 0.0464055 0.817324 0.752989 0.000915619 -0.0308381 -0.0325314 0.0005 5.23599e-07 
163 1 0.0200814 0.0234575 0.0116812 0.00739429 -0.00192655 0.000447328 -0.000123556 1.59684e-05 -0.000282968 0.0005 5.23599e-07 
164 1 0.0203612 0.0137875 0.0137085 -0.00122463 0.00162045 -0.00461787 2.02461e-07 3.18591e-07 -4.40828e-06 0.0005 5.23599e-07 
166 1 0.0196947 0.0230708 0.0150207 -0.00161575 -0.0106703 0.0385181 0 0 -5.1365e-06 0.0005 5.23599e-07 
167 1 0.0279777 0.0172295 0.0153705 -3.84369e-05 0.0468185 0.0247761 -1.85482e-08 1.89123e-07 -1.6874e-07 0.0005 5.23599e-07 
168 1 0.0201689 0.0238249 0.01548 -0.0056555 -0.0101875 0.0124504 -2.02803e-07 2.82664e-06 -2.45829e-06 0.0005 5.23599e-07 
169 1 0.0158431 0.0235692 0.0142867 0.00132986 0.00128761 0.000390002 -1.66708e-05 1.43562e-05 -1.6365e-05 0.0005 5.23599e-07 
170 1 0.0220897 0.0144057 0.0140702 -0.00338751 -0.00387438 0.00327798 -4.4687e-07 -5.13528e-08 -3.23227e-07 0.0005 5.23599e-07 
171 1 0.0196395 0.0210565 0.00784474 1.12954 -4.15942 -0.508433 -0.0222242 0.288729 -0.783577 0.0005 5.23599e-07 
173 1 0.0226686 0.0150696 0.0134795 0.0106242 0.00522858 0.00724723 0 0 -5.1365e-06 0.0005 5.23599e-07 
174 1 0.0183365 0.014589 0.0137532 0.0219902 0.0118008 -0.0162596 0 0 -5.1365e-06 0.0005 5.23599e-07 
175 1 0.0381686 0.0197868 0.00591052 1.04178e-14 -4.97185e-14 2.45846e-13 -8.88061e-20 2.32934e-21 4.23516e-21 0.0005 5.23599e-07 
176 1 0.0224114 0.0220014 0.0148584 -0.025055 0.018009 -0.0154413 0 0 -5.1365e-06 0.0005 5.23599e-07 
178 1 0.0212644 0.0141828 0.0135408 -0.000461655 0.000902599 -0.0015271 -1.39666e-06 2.72105e-06 -1.65393e-06 0.0005 5.23599e-07 
180 1 0.0180296 0.0223494 0.015598 -0.00330488 -0.00926574 -0.00297704 0 0 -5.1365e-06 0.0005 5.23599e-07 
181 1 0.0231278 0.0211301 0.0164376 0.00395257 -0.0193923 0.0444082 0 0 -5.1365e-06 0.0005 5.23599e-07 
182 1 0.0210474 0.0230284 0.0155072 0.0360492 -0.022204 0.0204041 -5.74333e-05 0.000124453 2.10073e-05 0.0005 5.23599e-07 
183 1 0.0233234 0.0149059 0.0103762 0.000729322 -0.013522 0.0499148 3.08276e-06 -1.03392e-06 -1.02922e-05 0.0005 5.23599e-07 
185 1 0.0194766 0.0225504 0.00909772 0.000107793 -0.0284622 -0.0446234 -2.64584e-08 -2.34428e-07 5.90112e-08 0.0005 5.23599e-07 
188 1 0.016798 0.0148225 0.0128986 0.0132854 0.00571594 -0.0080622 3.69904e-06 2.49522e-06 4.55854e-06 0.0005 5.23599e-07 
189 1 0.0230039 0.0213421 0.0153291 -0.00790741 0.0282777 -0.0212226 0 0 -5.1365e-06 0.0005 5.23599e-07 
190 1 0.018457 0.0229986 0.0149686 -0.012576 0.00147048 -0.00138441 0 0 -5.1365e-06 0.0005 5.23599e-07 
