ITEM: TIMESTEP
3200000
ITEM: NUMBER OF ATOMS
154
ITEM: BOX BOUNDS ff ff ff
-0.02 0.43
-0.02 0.06
-0.02 0.07
ITEM: ATOMS id type x y z vx vy vz fx fy fz radius mass 
1 1 0.0197879 0.0209035 0.015569 0.0103402 -0.00475075 -0.0189572 0 0 -5.1365e-06 0.0005 5.23599e-07 
2 1 0.0290756 0.0226377 0.009034 0.00115486 -0.0277289 -0.0377147 -2.89923e-06 1.66885e-06 2.10113e-06 0.0005 5.23599e-07 
4 1 0.02401 0.0225309 0.0145754 -0.00100805 0.0116395 -0.00365052 7.41269e-07 -6.78318e-07 -8.06717e-07 0.0005 5.23599e-07 
5 1 0.0314137 0.0178499 0.0156359 0.00075134 0.0486148 0.0140997 -3.13569e-08 1.69641e-07 -1.72839e-07 0.0005 5.23599e-07 
6 1 0.0165865 0.0142545 0.0135844 -0.00708161 0.00311719 0.00400816 -5.46585e-06 -4.63047e-06 5.36621e-06 0.0005 5.23599e-07 
7 1 0.0294337 0.0232436 0.0103947 0.00152977 -0.013101 -0.0454818 4.91375e-07 3.66052e-06 1.29697e-05 0.0005 5.23599e-07 
8 1 0.0286361 0.0209977 0.00765879 0.00109473 -0.0438238 -0.0197227 -1.79877e-07 -5.56547e-07 -2.17414e-07 0.0005 5.23599e-07 
10 1 0.0287856 0.0217383 0.00809486 0.00133787 -0.03609 -0.0278934 -3.38185e-07 -2.40426e-06 -1.18303e-06 0.0005 5.23599e-07 
11 1 0.021429 0.0161969 0.00826217 0.00298388 -0.0334894 0.0286618 -3.03689e-05 -5.20328e-05 2.65881e-05 0.0005 5.23599e-07 
12 1 0.0218818 0.0156708 0.0143854 -0.00133834 0.0282812 0.0348718 2.35741e-06 -1.4166e-05 2.50741e-05 0.0005 5.23599e-07 
13 1 0.0243981 0.0217781 0.0150203 0.00323025 0.0051789 -0.00297065 -8.60166e-07 1.86966e-06 3.16122e-06 0.0005 5.23599e-07 
14 1 0.0196865 0.019876 0.0165992 0.0294973 -0.0930467 -0.0313416 0 0 -5.1365e-06 0.0005 5.23599e-07 
15 1 0.0234331 0.0232346 0.0105182 -0.0495301 -0.0472626 -0.163826 0.00108928 0.00318826 0.0107231 0.0005 5.23599e-07 
16 1 0.0250064 0.0198488 0.0160379 0.0061535 0.0048369 -0.00115337 9.22504e-06 8.6458e-06 1.19981e-05 0.0005 5.23599e-07 
17 1 0.0247686 0.0210688 0.0156034 0.0102792 0.0126757 -0.00112633 8.31212e-05 -3.84504e-06 9.61309e-06 0.0005 5.23599e-07 
19 1 0.0198086 0.0236793 0.0142928 -0.0317949 0.0011123 -0.0335378 -6.35624e-05 5.77673e-05 -2.53174e-05 0.0005 5.23599e-07 
20 1 0.0216982 0.0242277 0.0141785 0.00186903 0.000257207 0.00111946 -9.63012e-05 -1.64933e-05 3.32756e-05 0.0005 5.23599e-07 
21 1 0.0242479 0.0193762 0.0223096 -0.181163 0.0303803 0.0629846 0 0 -5.1365e-06 0.0005 5.23599e-07 
22 1 0.0261428 0.018416 0.0172957 0.000825938 0.00283668 -0.000718512 -4.22318e-05 -0.00017991 3.10841e-05 0.0005 5.23599e-07 
23 1 0.0209943 0.0150097 0.0100097 0.00110214 -0.0163839 0.0468908 7.63845e-06 -4.42977e-05 3.22684e-05 0.0005 5.23599e-07 
24 1 0.0146484 0.0213791 0.0159779 0.0256917 -0.121559 -0.0153285 0 0 -5.1365e-06 0.0005 5.23599e-07 
25 1 0.0230463 0.0226874 0.00918068 0.0483262 0.164134 0.0378288 0.0122232 -0.0193723 0.00547152 0.0005 5.23599e-07 
26 1 0.0201933 0.0152191 0.0138335 0.0129639 -0.00269096 0.00573465 0 0 -5.1365e-06 0.0005 5.23599e-07 
27 1 0.0310943 0.0192155 0.0158159 0.00478131 0.0316391 -0.000546685 -2.06686e-07 1.8278e-06 -2.26615e-07 0.0005 5.23599e-07 
29 1 0.0201274 0.0228136 0.0139059 0.0127552 0.0039111 -0.00727192 9.3675e-07 -2.57875e-05 0.00011588 0.0005 5.23599e-07 
30 1 0.0237034 0.0230047 0.0154511 -0.00179818 -0.00689839 -0.0299555 0 0 -5.1365e-06 0.0005 5.23599e-07 
31 1 0.0204062 0.0146434 0.0129166 0.0102925 0.0189529 0.00487808 0 0 -5.1365e-06 0.0005 5.23599e-07 
34 1 0.0202175 0.0240883 0.0128829 0.000598867 -0.000597579 -0.00103739 3.0735e-06 2.40716e-05 2.29104e-05 0.0005 5.23599e-07 
35 1 0.0219466 0.0240789 0.0220375 0.095532 0.00373499 0.234842 0 0 -5.1365e-06 0.0005 5.23599e-07 
36 1 0.022294 0.0237739 0.0149755 -0.00140674 0.00625537 0.00658449 6.06745e-05 -8.04991e-05 -0.000259058 0.0005 5.23599e-07 
37 1 0.0170223 0.0237007 0.0160108 0.00452145 -0.0184533 -0.0241057 0 0 -5.1365e-06 0.0005 5.23599e-07 
38 1 0.0254412 0.0174778 0.0163699 -0.0263193 0.0243934 -0.0231345 0 0 -5.1365e-06 0.0005 5.23599e-07 
39 1 0.0242945 0.0209309 0.0165415 -0.0326413 0.0310864 -0.0278751 0 0 -5.1365e-06 0.0005 5.23599e-07 
40 1 0.0161911 0.0229862 0.0150124 0.0244524 -0.019317 0.00494685 0 0 -5.1365e-06 0.0005 5.23599e-07 
41 1 0.0188575 0.0244074 0.0135482 0.00256781 0.00262337 0.000677826 1.09414e-05 2.26309e-05 3.41829e-05 0.0005 5.23599e-07 
42 1 0.0192555 0.0188671 0.0159535 0.0232539 -0.0370679 -0.011989 0 0 -5.1365e-06 0.0005 5.23599e-07 
43 1 0.0199034 0.0166834 0.0154047 0.0254406 0.0412838 0.0192453 0 0 -5.1365e-06 0.0005 5.23599e-07 
44 1 0.0231148 0.016152 0.0158858 -0.0258978 -0.0143167 -0.0152056 0 0 -5.1365e-06 0.0005 5.23599e-07 
45 1 0.0406138 0.0191626 0.00568074 -7.29381e-15 3.48391e-14 -1.72293e-13 -7.94093e-21 -8.47033e-22 0 0.0005 5.23599e-07 
46 1 0.0211382 0.0240118 0.0130771 0.00122334 -0.00193984 -0.00112618 7.08515e-06 -1.42846e-05 3.35444e-05 0.0005 5.23599e-07 
48 1 0.0206895 0.0235392 0.0147418 0.00296463 -0.0214217 -0.0347632 9.27796e-05 -0.000123443 0.000207235 0.0005 5.23599e-07 
49 1 0.0265934 0.0147529 0.0116161 0.00184825 0.000425363 0.0417261 -2.0197e-06 1.07707e-06 1.30126e-05 0.0005 5.23599e-07 
50 1 0.0241851 0.0231682 0.0101044 -0.145036 0.205688 -0.0891389 -0.0111996 -0.00310349 0.033789 0.0005 5.23599e-07 
51 1 0.0252707 0.0213629 0.0164218 -0.000140845 0.00436153 0.00507495 0 0 -5.1365e-06 0.0005 5.23599e-07 
52 1 0.0241503 0.0196581 0.00582661 -1.1428e-14 -1.84062e-15 1.86309e-13 0 -1.52201e-22 0 0.0005 5.23599e-07 
53 1 0.0207068 0.0175218 0.0156884 0.0306604 0.0617021 0.0340597 0 0 -5.1365e-06 0.0005 5.23599e-07 
54 1 0.0261214 0.0195601 0.0172615 0.000363894 0.00338679 0.0037092 1.39872e-05 -0.000142348 3.7383e-06 0.0005 5.23599e-07 
55 1 0.0213976 0.0227475 0.0153246 -0.0276755 -0.0071474 0.0198615 0 0 -5.1365e-06 0.0005 5.23599e-07 
57 1 0.0212138 0.0154114 0.00912307 0.00048531 -0.0281791 0.0417949 -6.97097e-05 -0.000404465 0.000839386 0.0005 5.23599e-07 
58 1 0.0225186 0.0152891 0.0151767 0.00114188 0.00588264 0.00308608 0 0 -5.1365e-06 0.0005 5.23599e-07 
59 1 0.0235663 0.0170927 0.016428 0.00114516 -0.0498716 -0.0160208 0 0 -5.1365e-06 0.0005 5.23599e-07 
60 1 0.0232446 0.02217 0.0157669 -0.00744505 0.024988 -0.0301764 0 0 -5.1365e-06 0.0005 5.23599e-07 
61 1 0.0190422 0.0238481 0.0165169 0.0194843 0.00866451 -0.0532389 0 0 -5.1365e-06 0.0005 5.23599e-07 
62 1 0.0207058 0.0145926 0.0144298 0.00873098 -0.000327286 -0.00209448 0 0 -5.1365e-06 0.0005 5.23599e-07 
63 1 0.0186931 0.0234132 0.0122144 0.00833432 0.00699184 -0.00777531 1.81399e-05 -9.37067e-06 -8.42271e-05 0.0005 5.23599e-07 
64 1 0.0206111 0.0146261 0.011931 0.0115562 0.00216193 -0.00412464 3.07052e-06 -6.4815e-06 1.75739e-06 0.0005 5.23599e-07 
65 1 0.0255638 0.0204919 0.0157291 0.00166645 0.00183017 0.000123289 1.07576e-05 7.78872e-07 -1.73861e-05 0.0005 5.23599e-07 
66 1 0.019533 0.0177281 0.0157468 0.000548666 0.0832415 0.0114589 0 0 -5.1365e-06 0.0005 5.23599e-07 
68 1 0.0193627 0.0223618 0.0144831 0.0115117 0.0248642 -0.0242442 0 0 -5.1365e-06 0.0005 5.23599e-07 
69 1 0.0177787 0.0243569 0.013836 -0.0134781 0.00135756 0.00805444 0 0 -5.1365e-06 0.0005 5.23599e-07 
71 1 0.0166604 0.0238544 0.0136597 -0.0200486 -0.00727655 -0.0417464 0 0 -5.1365e-06 0.0005 5.23599e-07 
72 1 0.0211931 0.0152391 0.0138017 0.00882581 0.0149784 0.0238173 0 0 -5.1365e-06 0.0005 5.23599e-07 
74 1 0.0205833 0.0242939 0.0140562 0.00375651 0.000409115 -0.000306015 -5.02522e-05 5.2107e-05 -5.43574e-05 0.0005 5.23599e-07 
75 1 0.0235288 0.015054 0.0148938 0.00266604 -0.00228894 -0.00368225 0 0 -5.1365e-06 0.0005 5.23599e-07 
76 1 0.0197617 0.0244694 0.0136571 0.00225384 -0.000567324 0.00213863 -7.8491e-07 2.84892e-05 4.88855e-05 0.0005 5.23599e-07 
77 1 0.0232587 0.0230283 0.00976581 -0.0824229 0.297969 0.0868657 0.00189777 -0.00945093 0.00497154 0.0005 5.23599e-07 
78 1 0.0239151 0.0228554 0.00936242 -0.229785 0.729484 0.730797 0.0241002 -0.229613 0.164913 0.0005 5.23599e-07 
79 1 0.0173547 0.024075 0.0129682 0.000225487 -0.00879237 -0.006888 0.000301542 1.52303e-05 8.92039e-05 0.0005 5.23599e-07 
81 1 0.0207616 0.0157067 0.0155076 0.0425347 0.034251 0.0173342 -0.00026799 -0.000103373 9.17826e-05 0.0005 5.23599e-07 
82 1 0.0225637 0.0195823 0.0058395 -4.39596e-14 9.36739e-14 3.3937e-13 0 0 -8.47033e-22 0.0005 5.23599e-07 
83 1 0.018308 0.0233924 0.0112557 0.000224509 2.65139e-05 -0.015963 4.82692e-05 -3.19214e-05 0.000137958 0.0005 5.23599e-07 
84 1 0.0336017 0.0195831 0.00585649 -1.17946e-18 1.85932e-18 1.37476e-18 -1.37643e-21 8.47033e-22 -1.69407e-21 0.0005 5.23599e-07 
85 1 0.0210961 0.0236461 0.0138359 0.00318713 0.00269609 -0.0029515 -0.00010267 3.79975e-06 9.96582e-06 0.0005 5.23599e-07 
86 1 0.01814 0.0234271 0.0139206 0.00749084 0.023688 5.27769e-05 0 0 -5.1365e-06 0.0005 5.23599e-07 
87 1 0.021652 0.0232947 0.0145125 0.0025582 0.000593041 0.00884661 4.71208e-06 -0.000199128 -0.00010894 0.0005 5.23599e-07 
89 1 0.0307939 0.0206364 0.0154781 0.000539641 0.0486688 -0.0181483 -1.06136e-08 1.72197e-08 -2.49142e-07 0.0005 5.23599e-07 
90 1 0.0325238 0.014803 0.0120254 0.00176587 0.00726597 0.0442489 7.43885e-06 7.36738e-07 -2.889e-07 0.0005 5.23599e-07 
91 1 0.0177622 0.0236791 0.0119557 0.00615871 -0.00499114 -0.00577442 -0.000153687 -0.000196691 6.52487e-06 0.0005 5.23599e-07 
92 1 0.0194322 0.0139804 0.0130056 0.000930399 0.000172206 0.000444519 -8.96585e-08 -1.45873e-05 7.32506e-06 0.0005 5.23599e-07 
93 1 0.0243953 0.0157468 0.0156168 0.0270288 0.0264502 0.0290183 0 0 -5.1365e-06 0.0005 5.23599e-07 
95 1 0.0204691 0.0233933 0.0158683 -0.0138693 -0.100738 0.0269234 0 0 -5.1365e-06 0.0005 5.23599e-07 
97 1 0.0206571 0.0121389 0.0306015 0.250918 -0.330122 0.111439 0 0 -5.1365e-06 0.0005 5.23599e-07 
98 1 0.0183675 0.0140141 0.0130336 -0.0125334 0.00010897 0.00755439 -1.40642e-05 -1.87867e-06 -2.79023e-07 0.0005 5.23599e-07 
102 1 0.0169156 0.0233936 0.0248076 0.00985834 -0.158906 -0.19518 0 0 -5.1365e-06 0.0005 5.23599e-07 
103 1 0.0244056 0.0223278 0.0159825 -0.030663 -0.0159661 -0.0126697 0 0 -5.1365e-06 0.0005 5.23599e-07 
105 1 0.0389148 0.0189256 0.00570476 -7.79089e-16 3.68404e-15 -1.82466e-14 4.6825e-20 4.5528e-20 7.6233e-21 0.0005 5.23599e-07 
106 1 0.0200119 0.0158331 0.0146032 0.00971224 0.0317473 0.0216713 0 0 -5.1365e-06 0.0005 5.23599e-07 
107 1 0.0220488 0.0125985 0.0344483 -0.111691 0.311883 0.216537 0 0 -5.1365e-06 0.0005 5.23599e-07 
108 1 0.0296231 0.0233812 0.0114422 0.000730422 0.00105457 -0.0515264 -2.75129e-09 -2.16673e-07 -1.00453e-07 0.0005 5.23599e-07 
109 1 0.0273196 0.0157901 0.0087045 0.00201785 -0.0303078 0.0335028 -2.89184e-07 -1.07003e-05 1.21316e-05 0.0005 5.23599e-07 
110 1 0.0125462 0.0275678 0.0385782 -0.124047 0.0443605 0.098195 0 0 -5.1365e-06 0.0005 5.23599e-07 
111 1 0.0257305 0.0203598 0.0167154 0.00127271 0.00897602 0.00390886 0 0 -5.1365e-06 0.0005 5.23599e-07 
112 1 0.0184208 0.0238194 0.0130387 0.00741811 0.00335164 -0.00221775 0.000124926 -7.26149e-05 -8.38996e-05 0.0005 5.23599e-07 
113 1 0.0263562 0.0150038 0.0128515 0.0005292 0.0157099 0.04914 -3.16914e-09 2.49888e-07 7.23284e-09 0.0005 5.23599e-07 
114 1 0.0188046 0.0210645 0.0157312 0.0154473 0.00865995 -0.0024191 0 0 -5.1365e-06 0.0005 5.23599e-07 
115 1 0.0281154 0.0190018 0.00717866 0.00392342 -0.0480448 0.000222653 1.85242e-05 -5.16978e-06 -3.2271e-07 0.0005 5.23599e-07 
118 1 0.0188442 0.0238492 0.0145705 -0.0127263 -0.0335156 -0.012022 0 0 -5.1365e-06 0.0005 5.23599e-07 
120 1 0.0168808 0.0236275 0.0146708 0.00955455 -0.0169131 0.00421575 0 0 -5.1365e-06 0.0005 5.23599e-07 
122 1 0.0192869 0.0240079 0.0127343 0.00199942 0.00280761 0.00077864 4.50194e-05 3.28679e-05 -1.32199e-05 0.0005 5.23599e-07 
123 1 0.0231138 0.0232904 0.0146515 0.00651037 -0.00420207 0.0101867 4.05902e-05 1.912e-06 2.63028e-05 0.0005 5.23599e-07 
124 1 0.0203643 0.022199 0.014659 0.00938705 0.00969362 -0.00742887 -1.54514e-07 1.31051e-06 -4.74553e-06 0.0005 5.23599e-07 
125 1 0.025188 0.0189405 0.0159186 0.00586548 0.00458173 -0.0014452 -6.61603e-07 4.64348e-05 -3.71843e-05 0.0005 5.23599e-07 
126 1 0.0160252 0.025947 0.0268838 -0.0985759 -0.0275383 -0.0291984 0 0 -5.1365e-06 0.0005 5.23599e-07 
127 1 0.017236 0.0227227 0.0152985 0.0082114 0.0233162 -0.0272438 0 0 -5.1365e-06 0.0005 5.23599e-07 
128 1 0.0302239 0.0226128 0.0138814 0.000288572 0.0286997 -0.0424582 -4.09922e-09 -1.20039e-07 -1.95686e-07 0.0005 5.23599e-07 
129 1 0.0320665 0.0154858 0.0138793 -0.00171928 0.0275316 0.0438762 -2.65281e-07 1.23731e-06 2.02481e-06 0.0005 5.23599e-07 
131 1 0.0180797 0.0165937 0.0177342 -0.0472084 0.0327685 -0.0605273 0 0 -5.1365e-06 0.0005 5.23599e-07 
133 1 0.0190231 0.0200591 0.0158517 0.00645432 0.0453365 0.00313153 0 0 -5.1365e-06 0.0005 5.23599e-07 
134 1 0.0197873 0.0232131 0.0130559 0.00143134 -0.000736112 0.00843724 -4.32706e-06 2.52094e-05 -0.000230066 0.0005 5.23599e-07 
135 1 0.0174826 0.02331 0.0110469 -0.000165266 -0.00365704 -0.0320863 -1.47536e-05 1.55502e-05 0.000136014 0.0005 5.23599e-07 
136 1 0.0188958 0.013771 0.0138444 -0.000521251 -0.00072124 -0.000999977 -3.79477e-06 8.49314e-06 5.78238e-06 0.0005 5.23599e-07 
138 1 0.0151103 0.0230712 0.0149179 0.0014511 0.0275592 -0.037612 0 0 -5.1365e-06 0.0005 5.23599e-07 
139 1 0.0213792 0.0163009 0.0149959 -0.00486927 0.0280779 0.0336012 0.00026799 0.000103373 -0.000102056 0.0005 5.23599e-07 
140 1 0.0177897 0.014633 0.0143455 -0.003107 0.00534904 0.00690964 -2.97986e-06 5.09807e-06 3.617e-06 0.0005 5.23599e-07 
141 1 0.0183955 0.0225259 0.0142737 -0.00780168 0.00794647 -0.0138119 0 0 -5.1365e-06 0.0005 5.23599e-07 
142 1 0.0327957 0.0190095 0.00571076 2.13289e-18 -3.45828e-19 3.26688e-18 -1.05879e-21 -5.29396e-22 -3.38813e-21 0.0005 5.23599e-07 
143 1 0.0224306 0.0236551 0.0140201 0.000656816 0.00213352 0.00790946 -0.000111132 1.89453e-05 -0.000101531 0.0005 5.23599e-07 
144 1 0.0221603 0.0151154 0.0135745 0.00522777 0.017184 0.0218108 0 0 -5.1365e-06 0.0005 5.23599e-07 
146 1 0.015721 0.0207743 0.0165959 -0.0868648 0.0891955 0.0133047 0 0 -5.1365e-06 0.0005 5.23599e-07 
147 1 0.0216284 0.0148017 0.0149199 0.000956947 0.000233745 -0.00365065 0 0 -5.1365e-06 0.0005 5.23599e-07 
148 1 0.0199095 0.0213301 0.0249391 -0.0672838 -0.00523426 -0.0588158 0 0 -5.1365e-06 0.0005 5.23599e-07 
149 1 0.0224191 0.0228 0.0151894 0.00149768 -0.0153007 0.017648 0 0 -5.1365e-06 0.0005 5.23599e-07 
150 1 0.0227781 0.0146365 0.0143683 -0.000303524 0.0027025 0.00882906 0 0 -5.1365e-06 0.0005 5.23599e-07 
151 1 0.0304132 0.0219036 0.0147235 -0.00045937 0.0339642 -0.0313533 5.0592e-08 -5.52309e-07 4.02133e-07 0.0005 5.23599e-07 
152 1 0.0205819 0.0214314 0.0152665 0.00856855 0.00284078 -0.0126998 -5.09344e-06 4.37625e-05 2.60611e-05 0.0005 5.23599e-07 
153 1 0.011607 0.0155148 0.0258124 0.166845 0.0818844 0.0368769 0 0 -5.1365e-06 0.0005 5.23599e-07 
154 1 0.0299106 0.023227 0.0126963 0.00279546 0.0145534 -0.0419758 9.749e-08 -1.33692e-07 -1.19341e-06 0.0005 5.23599e-07 
155 1 0.0216476 0.0147946 0.0127698 0.0172361 0.00534649 0.0184724 -8.31601e-06 2.90642e-06 6.51697e-06 0.0005 5.23599e-07 
156 1 0.0175522 0.013997 0.0136115 -0.0081937 0.00258403 0.0115591 -1.11797e-05 5.06366e-06 6.52041e-06 0.0005 5.23599e-07 
157 1 0.0234534 0.0217841 0.00840632 0.00352517 -0.0369367 -0.0278918 -0.00025312 0.000369994 9.06153e-05 0.0005 5.23599e-07 
158 1 0.0257774 0.0189963 0.0166136 0.00175026 0.00915236 0.00101758 -7.20515e-06 -0.00030723 4.7765e-06 0.0005 5.23599e-07 
160 1 0.0193711 0.0145055 0.0143295 0.0242395 -0.000956198 -0.0261273 0 0 -5.1365e-06 0.0005 5.23599e-07 
161 1 0.0270015 0.0150294 0.00998503 0.000166834 -0.0200141 0.0496093 -3.12309e-07 2.03984e-09 1.199e-06 0.0005 5.23599e-07 
163 1 0.0190926 0.0231244 0.0138502 0.00355809 -0.00370623 -0.0418501 0 0 -5.1365e-06 0.0005 5.23599e-07 
164 1 0.0205072 0.0137077 0.013968 -0.00060945 -0.00128003 -0.00125178 1.58825e-05 -5.02328e-06 9.0945e-06 0.0005 5.23599e-07 
166 1 0.0185971 0.021941 0.0151956 0.0155633 0.0223151 0.00297374 0 0 -5.1365e-06 0.0005 5.23599e-07 
167 1 0.0276225 0.0168169 0.00780048 0.0041245 -0.0359535 0.0238568 -4.64649e-07 -9.87655e-07 8.36426e-07 0.0005 5.23599e-07 
168 1 0.0188779 0.0231845 0.0155823 0.0381026 -0.0360614 0.038245 0 0 -5.1365e-06 0.0005 5.23599e-07 
169 1 0.0158634 0.0235436 0.0142336 -0.0195223 -0.0143838 0.0111927 2.18047e-06 1.74192e-05 -2.24483e-06 0.0005 5.23599e-07 
170 1 0.0218676 0.0142596 0.0141047 0.00150166 0.00671051 0.00419151 0 0 -5.1365e-06 0.0005 5.23599e-07 
171 1 0.019232 0.023452 0.0115062 0.001542 0.00453575 -0.00645352 4.02372e-05 -1.74899e-05 1.38895e-05 0.0005 5.23599e-07 
173 1 0.0218289 0.0174026 0.00749299 -0.474429 0.0508514 -1.85514 0.000411777 0.320421 0.436921 0.0005 5.23599e-07 
174 1 0.0231952 0.017971 0.0169323 -0.0706881 -0.0099464 -0.0483696 0 0 -5.1365e-06 0.0005 5.23599e-07 
175 1 0.0381686 0.0197868 0.00591052 1.03895e-14 -4.97162e-14 2.45848e-13 -8.78267e-20 -1.37643e-20 8.47033e-22 0.0005 5.23599e-07 
176 1 0.0208599 0.018594 0.0159177 1.25881e-06 0.0493049 0.00511558 -9.74061e-09 -1.57412e-07 5.77814e-07 0.0005 5.23599e-07 
178 1 0.0211604 0.0141892 0.0133922 0.00422728 0.00114373 0.00537227 1.18523e-05 2.52665e-06 1.57597e-05 0.0005 5.23599e-07 
180 1 0.0222493 0.0221748 0.0160516 -0.0413608 -0.0356448 -0.0706556 0 0 -5.1365e-06 0.0005 5.23599e-07 
181 1 0.0199215 0.0220288 0.0162149 0.044187 0.0544168 -0.011782 0 0 -5.1365e-06 0.0005 5.23599e-07 
182 1 0.0198459 0.0230375 0.0150782 -0.00174337 -0.00166321 0.0287945 0 0 -5.1365e-06 0.0005 5.23599e-07 
183 1 0.0228508 0.0219788 0.00854422 0.0161648 0.00971504 -0.0135439 -0.000144856 0.00269423 0.000813522 0.0005 5.23599e-07 
185 1 0.0178703 0.0232945 0.0126261 0.0115415 0.00335729 -0.00868243 -0.00010713 -5.79482e-06 0.000152105 0.0005 5.23599e-07 
188 1 0.0161879 0.0187575 0.0168923 -0.0743657 -0.086564 0.0452207 0 0 -5.1365e-06 0.0005 5.23599e-07 
189 1 0.0215772 0.0187011 0.0166641 -0.0175997 -0.0130444 -0.020683 0 0 -5.1365e-06 0.0005 5.23599e-07 
190 1 0.0179831 0.0226657 0.0160214 0.0119688 -0.0286728 -0.0371887 0 0 -5.1365e-06 0.0005 5.23599e-07 
