ITEM: TIMESTEP
400000
ITEM: NUMBER OF ATOMS
189
ITEM: BOX BOUNDS ff ff ff
-0.02 0.43
-0.02 0.06
-0.02 0.07
ITEM: ATOMS id type x y z vx vy vz fx fy fz radius mass 
1 1 0.0217152 0.0208234 0.01703 0.0346354 -0.0361369 0.0920911 0 0 -5.1365e-06 0.0005 5.23599e-07 
2 1 0.0190185 0.0144084 0.0139291 -0.00181975 0.0114713 -0.0218636 -5.83921e-06 -1.00351e-06 -4.75069e-08 0.0005 5.23599e-07 
3 1 0.0234275 0.0219154 0.0159279 0.00485028 -0.00763554 0.00903434 -1.41648e-05 6.74917e-06 -4.16075e-05 0.0005 5.23599e-07 
4 1 0.01712 0.0153467 0.0139713 -0.00206866 -0.036493 -0.0502408 0 0 -5.1365e-06 0.0005 5.23599e-07 
5 1 0.0233431 0.0154614 0.014118 0.00686312 0.00344317 0.00463187 -6.1919e-06 -6.64903e-06 1.05767e-05 0.0005 5.23599e-07 
6 1 0.0163508 0.0159416 0.0146801 0.0126999 -0.00108183 0.00214031 -5.75776e-07 -1.40048e-06 -2.58015e-07 0.0005 5.23599e-07 
7 1 0.0208287 0.0140948 0.0132258 0.000982529 0.00116077 0.00767163 1.08796e-05 -1.11951e-05 -3.52045e-05 0.0005 5.23599e-07 
8 1 0.0254111 0.0210448 0.016385 0.0060985 -0.00336862 0.00609153 1.29819e-05 -1.70392e-05 -8.65266e-07 0.0005 5.23599e-07 
9 1 0.0215893 0.0239116 0.0134506 0.00475069 -0.00325553 0.00416727 4.64886e-05 -6.16685e-05 0.000102077 0.0005 5.23599e-07 
10 1 0.0203423 0.0232821 0.0126784 0.00122307 0.00791438 -0.0370611 -1.17797e-05 1.16991e-05 -3.77162e-05 0.0005 5.23599e-07 
11 1 0.0155666 0.0216643 0.01614 -0.0119947 0.0116971 0.0304348 0 0 -5.1365e-06 0.0005 5.23599e-07 
12 1 0.0190868 0.0244023 0.0135628 0.00015234 0.00550322 0.00179706 1.45154e-05 1.33849e-05 -3.97218e-05 0.0005 5.23599e-07 
13 1 0.0168232 0.0239368 0.0146418 0.00575897 -0.000947863 0.000765761 0 0 -5.1365e-06 0.0005 5.23599e-07 
14 1 0.0161188 0.0229857 0.0163047 0.00577016 0.00447959 -0.00735719 -5.06721e-07 4.33034e-07 -3.746e-06 0.0005 5.23599e-07 
15 1 0.0236046 0.0186526 0.0159328 0.0132729 -0.00453127 -0.00382034 9.76623e-06 9.27914e-06 3.96422e-06 0.0005 5.23599e-07 
16 1 0.0170678 0.0164796 0.0151404 0.0099878 -0.000354618 0.00507304 -3.87514e-07 -3.9598e-07 1.33005e-07 0.0005 5.23599e-07 
17 1 0.0223369 0.0236796 0.0140603 -0.000421348 -0.00510019 0.00140889 3.67726e-05 -6.54817e-05 9.3055e-05 0.0005 5.23599e-07 
18 1 0.0207658 0.0238262 0.0140093 0.000282191 -0.000129087 -0.00570465 1.04619e-05 -0.000193342 0.000126 0.0005 5.23599e-07 
19 1 0.0175816 0.0236615 0.0140185 0.00224506 0.000722581 -0.000576362 -2.3756e-05 -1.89242e-05 -2.55357e-05 0.0005 5.23599e-07 
20 1 0.0219681 0.0174491 0.0156461 0.0155931 -0.00635757 -0.0172372 0 0 -5.1365e-06 0.0005 5.23599e-07 
21 1 0.0205229 0.0229634 0.0135743 0.00453289 0.012567 -0.0262632 -4.95361e-06 -1.05666e-05 2.08887e-05 0.0005 5.23599e-07 
22 1 0.0180825 0.0150118 0.0133509 0.0130679 -0.00292889 -0.00700007 -5.39431e-06 -2.34004e-05 4.76848e-05 0.0005 5.23599e-07 
23 1 0.0175646 0.0231427 0.0148719 0.00768258 0.00350922 0.00391527 4.02476e-05 2.49118e-05 2.46109e-05 0.0005 5.23599e-07 
24 1 0.018837 0.0173661 0.016736 0.00379601 0.00492462 0.096098 0 0 -5.1365e-06 0.0005 5.23599e-07 
25 1 0.0217587 0.0183974 0.0158945 0.0114992 0.00352645 0.0111925 0 0 -5.1365e-06 0.0005 5.23599e-07 
26 1 0.0169828 0.0225151 0.0164964 -0.00216288 0.00129534 -0.0029641 3.2048e-06 4.54612e-07 -3.13792e-06 0.0005 5.23599e-07 
27 1 0.0226646 0.0150751 0.0134927 0.0101132 0.00292567 -0.00284668 0 0 -5.1365e-06 0.0005 5.23599e-07 
28 1 0.0227346 0.018166 0.0158571 0.0149877 -0.00695751 0.00059492 -1.09263e-05 -5.34375e-06 -2.15949e-06 0.0005 5.23599e-07 
29 1 0.0167011 0.0219857 0.014849 0.00772812 0.00189868 -0.00662764 5.65267e-05 3.57828e-05 -7.40174e-06 0.0005 5.23599e-07 
30 1 0.0206859 0.0236734 0.0150638 0.0159722 -0.00541156 -0.00364412 7.76011e-05 0.000150864 6.33317e-05 0.0005 5.23599e-07 
31 1 0.018265 0.0226318 0.0153827 0.00165156 0.00977411 -0.0142614 -2.40878e-06 6.46395e-07 -3.60563e-06 0.0005 5.23599e-07 
32 1 0.0214935 0.0233786 0.0124797 -0.00140082 0.00374852 -0.00445499 -4.53503e-05 1.03658e-05 -4.22623e-05 0.0005 5.23599e-07 
33 1 0.0224304 0.0157326 0.0144804 0.00758748 -0.00252187 -0.00255967 -7.95427e-09 -4.26535e-08 -5.02984e-06 0.0005 5.23599e-07 
34 1 0.0158598 0.0235114 0.0141621 0.0040279 0.00438853 0.000256116 -1.92198e-06 2.15024e-05 9.02399e-06 0.0005 5.23599e-07 
35 1 0.0213969 0.0228819 0.0145439 -0.107349 -0.0816782 -0.0950234 0 0 -5.1365e-06 0.0005 5.23599e-07 
36 1 0.0200838 0.0244276 0.0136022 0.0022328 -0.00175318 -0.0141962 -6.38446e-06 -0.000119409 -1.73735e-05 0.0005 5.23599e-07 
37 1 0.0197185 0.0147772 0.0145659 -0.0037789 -0.00575317 0.0201817 -1.68719e-05 3.16611e-05 4.13643e-05 0.0005 5.23599e-07 
38 1 0.0210861 0.0213932 0.0152939 0.0208421 -0.01226 0.0205954 0 0 -5.1365e-06 0.0005 5.23599e-07 
39 1 0.0224992 0.0213353 0.0166186 -0.000337431 -0.00671982 0.00887267 -3.77705e-05 2.47151e-05 1.75731e-05 0.0005 5.23599e-07 
40 1 0.0222172 0.0233362 0.015074 0.00513716 0.00381462 0.00714748 -4.44591e-06 -2.60695e-05 -4.64166e-05 0.0005 5.23599e-07 
41 1 0.0142662 0.0228303 0.0152091 0.0198374 0.00523739 -0.0167685 0 0 -5.1365e-06 0.0005 5.23599e-07 
42 1 0.022513 0.0191487 0.0159413 0.00987373 0.000742464 0.00159915 1.62977e-05 -2.06078e-07 -9.10217e-06 0.0005 5.23599e-07 
43 1 0.0150747 0.0232441 0.0147229 0.00593108 0.0135962 -0.000283298 2.48599e-05 4.03452e-05 -3.07634e-06 0.0005 5.23599e-07 
44 1 0.0169262 0.0141838 0.0135195 0.0112414 -0.00166394 -0.000387683 1.75313e-05 -9.61827e-05 9.20624e-05 0.0005 5.23599e-07 
45 1 0.039852 0.0190547 0.00569119 3.45031e-07 -1.66425e-06 -3.52598e-07 -3.96563e-09 1.88874e-08 3.96881e-09 0.0005 5.23599e-07 
46 1 0.0199667 0.0224318 0.0160205 -0.00589073 0.0142237 0.00246131 2.41243e-05 -2.08916e-05 4.26747e-06 0.0005 5.23599e-07 
47 1 0.0219837 0.0189 0.0167518 0.00720565 -0.0281933 -0.00965898 -1.81016e-05 -0.000120153 2.01419e-05 0.0005 5.23599e-07 
48 1 0.0216157 0.0150508 0.0150456 0.00337403 -0.0350054 -0.025033 0 0 -5.1365e-06 0.0005 5.23599e-07 
49 1 0.020925 0.0139552 0.0142108 1.68008e-06 -0.00650728 -0.00213209 7.04964e-06 -1.81503e-05 3.36484e-05 0.0005 5.23599e-07 
50 1 0.0219225 0.0219309 0.0171767 0.00279474 -0.00239212 0.00974995 -1.85895e-05 9.12941e-06 1.87921e-05 0.0005 5.23599e-07 
51 1 0.0158181 0.0223861 0.0144353 0.00958724 0.0100545 -0.00716288 2.31392e-05 1.19854e-05 -5.66071e-06 0.0005 5.23599e-07 
52 1 0.0196133 0.0241081 0.0127396 -7.94489e-06 0.000392607 -0.00180798 4.95343e-08 2.37095e-07 -1.17241e-07 0.0005 5.23599e-07 
53 1 0.0226893 0.0229082 0.0158424 0.00665066 -0.000133028 0.0104869 -0.000100585 4.24252e-05 -9.28662e-05 0.0005 5.23599e-07 
54 1 0.0209641 0.022354 0.0160197 -0.00396858 -0.0209617 0.0335005 0 0 -5.1365e-06 0.0005 5.23599e-07 
55 1 0.0212458 0.022657 0.0172976 0.00664976 0.000248548 0.0145456 -3.64442e-06 2.82863e-06 -7.41653e-06 0.0005 5.23599e-07 
57 1 0.0159155 0.023617 0.015155 0.00272754 -0.0087804 0.00527959 0 0 -5.1365e-06 0.0005 5.23599e-07 
58 1 0.0195158 0.0226608 0.0092174 0.000340108 -0.0273275 -0.045026 1.05927e-07 4.85367e-07 4.67067e-07 0.0005 5.23599e-07 
59 1 0.0220472 0.0210279 0.0157818 0.0123033 -0.0128126 0.00104506 0.000158744 -7.63099e-06 1.04776e-05 0.0005 5.23599e-07 
60 1 0.0184311 0.0240855 0.0128799 -0.000134242 0.00093533 -0.000189392 3.53031e-07 3.01335e-06 -6.29391e-06 0.0005 5.23599e-07 
61 1 0.0174943 0.0146246 0.0119459 0.00254321 0.00153983 -0.00160937 -3.0807e-07 -3.63868e-05 2.14129e-05 0.0005 5.23599e-07 
62 1 0.0230906 0.0233011 0.0145897 0.00592766 -0.00425967 0.00313317 9.05866e-05 -1.26366e-05 3.28158e-05 0.0005 5.23599e-07 
63 1 0.0181597 0.0217956 0.0170803 -0.00370204 0.0287424 0.00598211 0 0 -5.1365e-06 0.0005 5.23599e-07 
64 1 0.0199928 0.014291 0.0137372 -0.00034097 -0.00164488 0.0139265 1.33146e-06 -2.05663e-05 -1.59637e-05 0.0005 5.23599e-07 
65 1 0.0231039 0.0163009 0.0150057 0.0153357 -0.00480498 -0.014574 0 0 -5.1365e-06 0.0005 5.23599e-07 
66 1 0.0234202 0.0210271 0.0163851 0.00494353 -0.00752606 0.0127406 -2.28896e-05 -7.1777e-06 2.14507e-05 0.0005 5.23599e-07 
67 1 0.0244162 0.0209777 0.0164275 0.00585602 -0.00330277 0.0114702 4.02778e-06 -1.64134e-05 1.77697e-05 0.0005 5.23599e-07 
68 1 0.0225311 0.0231994 0.0169357 0.000728601 0.00214409 0.00328708 -2.31127e-06 -1.85677e-06 -5.52152e-06 0.0005 5.23599e-07 
69 1 0.0165674 0.021115 0.016444 0.0123953 0.0144279 -0.0065233 0 0 -5.1365e-06 0.0005 5.23599e-07 
70 1 0.0241919 0.0224253 0.0155401 0.000902114 -0.00148294 0.00548666 -5.92112e-05 5.45831e-07 -7.2543e-05 0.0005 5.23599e-07 
71 1 0.0184381 0.0211239 0.0163357 -0.00598635 -0.0192937 0.0138909 0 0 -5.1365e-06 0.0005 5.23599e-07 
72 1 0.0160966 0.0168597 0.0153658 0.0105196 0.00717641 0.00326313 3.60885e-07 1.63217e-07 -2.60276e-06 0.0005 5.23599e-07 
73 1 0.0180995 0.0236511 0.0155455 0.00731779 0.00175609 0.00478472 2.33416e-05 4.72569e-06 3.76133e-05 0.0005 5.23599e-07 
74 1 0.0184076 0.0241699 0.0142573 -0.00357052 -0.00153585 0.00129375 1.07093e-05 2.09879e-05 7.42361e-06 0.0005 5.23599e-07 
75 1 0.0187985 0.0219513 0.0158945 -0.0102662 -0.00342209 -0.00716323 0 0 -5.1365e-06 0.0005 5.23599e-07 
76 1 0.0166501 0.023858 0.0136593 0.00349859 0.000142221 -0.00204343 -1.48292e-06 3.07026e-06 6.58281e-06 0.0005 5.23599e-07 
77 1 0.019264 0.0226507 0.015344 0.00185194 0.00465131 0.0106734 -2.50241e-05 1.99225e-05 -1.43317e-05 0.0005 5.23599e-07 
78 1 0.0199589 0.0234196 0.0158347 -0.00701895 -0.0149334 0.026024 9.62389e-06 1.91147e-06 -2.85542e-06 0.0005 5.23599e-07 
79 1 0.0220996 0.0238445 0.01759 0.00582358 -0.00283938 -0.00287272 -1.90047e-05 -1.80341e-05 1.26183e-05 0.0005 5.23599e-07 
80 1 0.0174418 0.0234939 0.0162819 7.00594e-06 0.00838309 0.00287606 -1.10063e-06 -2.57221e-06 -6.36592e-07 0.0005 5.23599e-07 
81 1 0.02272 0.0221609 0.0147799 0.0309278 0.00373652 0.00345036 0 0 -5.1365e-06 0.0005 5.23599e-07 
82 1 0.0222818 0.0232097 0.0131368 0.0111888 -0.00904264 0.00322408 1.18371e-05 -4.20958e-05 3.28048e-05 0.0005 5.23599e-07 
83 1 0.0184228 0.0152143 0.0142684 0.0123588 0.0144447 -0.00829596 1.15585e-05 -1.47356e-05 3.54356e-05 0.0005 5.23599e-07 
84 1 0.0221653 0.0165587 0.0152355 0.0154259 -0.000824366 -0.012496 0 0 -5.1365e-06 0.0005 5.23599e-07 
85 1 0.0175918 0.0216089 0.0161004 0.00834253 -0.000650293 -0.00234845 4.01792e-05 4.59619e-06 2.89211e-05 0.0005 5.23599e-07 
86 1 0.0223378 0.021977 0.0158681 0.0129093 -0.00509921 0.00713596 -4.87315e-05 5.35406e-05 1.03437e-05 0.0005 5.23599e-07 
87 1 0.0154644 0.0200679 0.015828 -0.00138301 0.00817408 -0.00137536 -1.33393e-05 -2.67001e-06 3.02105e-06 0.0005 5.23599e-07 
88 1 0.0213736 0.0231623 0.0155899 -0.0139658 -0.0225636 -0.00717094 0 0 -5.1365e-06 0.0005 5.23599e-07 
89 1 0.021537 0.0193846 0.0159323 0.0150481 0.0290769 0.00236537 2.33622e-05 2.19237e-05 1.54948e-06 0.0005 5.23599e-07 
90 1 0.0259717 0.0234021 0.0111791 0.00149628 -0.00102486 -0.0516938 5.60896e-08 -2.25813e-07 -4.36916e-08 0.0005 5.23599e-07 
91 1 0.0185312 0.0232576 0.0146465 0.0114207 -0.00192667 0.00444886 4.19724e-05 -7.17857e-06 -6.69729e-06 0.0005 5.23599e-07 
92 1 0.0216487 0.0236206 0.0167245 -0.000538968 -0.00142963 -0.0024733 0 0 -5.1365e-06 0.0005 5.23599e-07 
93 1 0.0191589 0.0217108 0.00809502 0.000881733 -0.0278902 -0.0248097 -2.60035e-06 -3.34629e-06 -2.07744e-06 0.0005 5.23599e-07 
94 1 0.0191555 0.0236833 0.0153012 0.0052115 -0.00232784 0.0142784 -6.06875e-06 -1.801e-06 -5.95519e-06 0.0005 5.23599e-07 
95 1 0.017675 0.0142458 0.0128547 0.0115466 -0.00135238 -0.00913275 -1.8261e-05 -1.06383e-05 -1.98934e-05 0.0005 5.23599e-07 
96 1 0.0206103 0.0225933 0.0151 -0.0785147 -0.136682 -0.0157062 0 0 -5.1365e-06 0.0005 5.23599e-07 
97 1 0.0174582 0.0240326 0.013099 0.000336916 0.000357029 -0.00212763 8.93262e-06 -3.74937e-06 -4.35032e-06 0.0005 5.23599e-07 
98 1 0.0218486 0.0227075 0.0163466 0.00189018 -0.00302834 -0.00423417 0 0 -5.1365e-06 0.0005 5.23599e-07 
99 1 0.0222663 0.0226903 0.0140589 -0.0173216 -0.0117034 0.0121518 4.70809e-05 -3.94228e-05 -4.06493e-06 0.0005 5.23599e-07 
100 1 0.0196505 0.0214943 0.0161677 -0.00295453 0.00813811 0.00149583 -1.39199e-07 5.05058e-06 -2.23456e-06 0.0005 5.23599e-07 
101 1 0.0168139 0.0233434 0.0155182 0.0055679 0.010028 -0.00518344 0 0 -5.1365e-06 0.0005 5.23599e-07 
102 1 0.0181015 0.0169719 0.00772838 0.000595753 -0.0455969 0.0240548 -1.53175e-08 2.25578e-08 2.38438e-07 0.0005 5.23599e-07 
103 1 0.023565 0.0231983 0.0154603 0.00292059 -0.00082897 0.00235469 -6.76826e-05 7.98844e-05 -2.43793e-05 0.0005 5.23599e-07 
104 1 0.0203773 0.0226199 0.00911179 0.000304474 -0.0271316 -0.0439936 -1.20216e-08 -2.05231e-07 4.19967e-08 0.0005 5.23599e-07 
105 1 0.0182877 0.0138476 0.0135371 0.0152692 0.00170655 -0.00780743 1.45629e-06 -1.53501e-06 -4.68106e-06 0.0005 5.23599e-07 
106 1 0.0195547 0.0240836 0.0143857 -0.00141737 0.00374473 -0.000478614 -1.00494e-05 1.82533e-05 -8.16592e-05 0.0005 5.23599e-07 
107 1 0.0239956 0.0159676 0.0146984 0.0195581 -0.00609864 -0.00430422 -5.80291e-06 8.08876e-07 2.78671e-07 0.0005 5.23599e-07 
108 1 0.022793 0.014634 0.0143812 0.000194873 -0.00055537 0.000395355 0 0 -5.1365e-06 0.0005 5.23599e-07 
109 1 0.0168379 0.0147759 0.0127203 0.00853428 0.0151297 0.00754446 7.31009e-06 2.37293e-05 -2.50037e-06 0.0005 5.23599e-07 
110 1 0.0207687 0.0234581 0.0117338 -0.013865 -0.000451058 -0.00577258 2.1646e-05 -1.55541e-05 -6.06319e-05 0.0005 5.23599e-07 
111 1 0.0218296 0.0143335 0.0139953 -0.00442036 -0.0211906 0.00714323 0 0 -5.1365e-06 0.0005 5.23599e-07 
112 1 0.0205022 0.0220055 0.0168632 -0.017178 -0.00909846 0.118584 0 0 -5.1365e-06 0.0005 5.23599e-07 
113 1 0.0194411 0.0140112 0.0129521 -0.00526903 -0.00168134 0.0074844 -1.94718e-06 -3.49854e-05 4.8775e-06 0.0005 5.23599e-07 
114 1 0.0206934 0.0200611 0.0166803 0.0150941 -0.0123048 0.00763872 9.43936e-06 1.28047e-05 -1.70427e-05 0.0005 5.23599e-07 
115 1 0.0205054 0.0230035 0.0167217 -0.00311602 -0.0070834 0.0241654 9.773e-06 2.64625e-06 -5.74376e-06 0.0005 5.23599e-07 
116 1 0.0152012 0.0228519 0.0138028 0.00965978 0.00700314 -0.00639985 3.59016e-05 1.70565e-05 -1.59115e-05 0.0005 5.23599e-07 
117 1 0.0219135 0.019895 0.0167051 0.0152971 -0.019749 0.051114 -5.71563e-05 8.86203e-05 1.07931e-05 0.0005 5.23599e-07 
118 1 0.024099 0.0170919 0.0162801 -0.00634603 -0.0267047 -0.0337064 0 0 -5.1365e-06 0.0005 5.23599e-07 
119 1 0.0203965 0.0210143 0.0167636 -0.0110664 -0.0107502 0.0302437 0 0 -5.1365e-06 0.0005 5.23599e-07 
120 1 0.0209673 0.0245743 0.0184885 -0.0139929 -0.0317403 -0.229805 0 0 -5.1365e-06 0.0005 5.23599e-07 
121 1 0.0248124 0.0217865 0.0159932 0.00156681 -0.00233975 0.00776202 4.47404e-05 -7.28277e-06 4.11352e-05 0.0005 5.23599e-07 
122 1 0.0174809 0.0207217 0.0165482 0.00300587 -0.00256536 -0.00679748 0 0 -5.1365e-06 0.0005 5.23599e-07 
123 1 0.0172952 0.0224291 0.0155202 0.00242249 0.00533295 -0.00475147 0 0 -5.1365e-06 0.0005 5.23599e-07 
124 1 0.0213994 0.0215144 0.0163755 0.0268521 -0.0386322 0.0740669 0 0 -5.1365e-06 0.0005 5.23599e-07 
125 1 0.0243022 0.0156136 0.0155818 0.00161513 -0.00128695 0.00337254 4.35201e-06 -3.56328e-06 -1.93123e-06 0.0005 5.23599e-07 
126 1 0.0159175 0.0144454 0.0141378 0.0510486 -0.0213014 -0.0120061 0 0 -5.1365e-06 0.0005 5.23599e-07 
127 1 0.0186881 0.0231655 0.0161917 0.00304294 -0.000764671 0.00824942 -5.82572e-06 -4.34363e-06 4.35316e-06 0.0005 5.23599e-07 
128 1 0.0217588 0.0220974 0.0150584 0.00465483 0.00726293 -0.0107878 0 0 -5.1365e-06 0.0005 5.23599e-07 
129 1 0.0240948 0.0169584 0.00771876 0.0023115 -0.0398134 0.0223047 1.04695e-07 1.97144e-06 -8.62245e-07 0.0005 5.23599e-07 
130 1 0.0208303 0.0237767 0.016171 -0.00144532 -0.000904536 0.0137174 0 0 -5.1365e-06 0.0005 5.23599e-07 
131 1 0.0148294 0.0222927 0.0145404 0.00847031 0.0112763 -0.0104514 1.31147e-05 1.65076e-05 1.64894e-06 0.0005 5.23599e-07 
132 1 0.0187898 0.020068 0.00734562 0.000474453 -0.0515443 -0.0155257 -3.17905e-07 -1.44634e-06 -7.40149e-09 0.0005 5.23599e-07 
133 1 0.0213935 0.023035 0.0134308 0.0114029 -0.00732469 0.0152262 3.21147e-05 -7.50203e-05 0.000100269 0.0005 5.23599e-07 
134 1 0.0207741 0.0239829 0.0127636 -0.00272086 0.000256615 -0.00892479 -1.5078e-05 -1.02962e-05 -5.28055e-05 0.0005 5.23599e-07 
135 1 0.016484 0.021938 0.0158495 -0.00809185 -0.00171142 0.0192632 0 0 -5.1365e-06 0.0005 5.23599e-07 
136 1 0.0215476 0.0239211 0.0146206 -0.000883898 -0.00142569 -0.000965046 -1.60545e-05 -0.000221976 4.80878e-05 0.0005 5.23599e-07 
137 1 0.0198543 0.0232102 0.0147627 -0.00156721 0.00747006 0.000782121 -4.14141e-05 8.56349e-05 -2.24303e-05 0.0005 5.23599e-07 
138 1 0.0166177 0.0229546 0.014618 0.00870943 0.00719613 -0.00133526 4.84128e-05 7.24862e-06 -1.75752e-07 0.0005 5.23599e-07 
139 1 0.0184962 0.0146185 0.0119496 -0.000124795 0.00772119 -0.0113741 0 0 -5.1365e-06 0.0005 5.23599e-07 
140 1 0.0240267 0.0167732 0.0153128 0.0166254 -0.0262384 -0.0173557 -8.23635e-08 -1.75123e-06 5.81799e-06 0.0005 5.23599e-07 
141 1 0.0228664 0.022297 0.0166632 0.00238214 0.0009666 0.00315392 0 0 -5.1365e-06 0.0005 5.23599e-07 
142 1 0.0329877 0.0190506 0.00569147 3.1254e-07 1.5846e-06 4.22958e-07 2.90755e-10 1.81836e-09 4.82253e-10 0.0005 5.23599e-07 
143 1 0.0161529 0.0232036 0.0130866 0.00446724 0.00287063 -0.00264922 5.18412e-07 1.40915e-06 -2.86638e-06 0.0005 5.23599e-07 
144 1 0.0161486 0.0207622 0.0156061 0.00311786 0.0087234 -0.00280043 -5.76282e-06 2.47583e-05 2.51727e-05 0.0005 5.23599e-07 
145 1 0.013784 0.0221444 0.0157806 0.00264099 0.0244071 -0.0145514 0 0 -5.1365e-06 0.0005 5.23599e-07 
146 1 0.0182957 0.020148 0.0166371 0.0167682 0.0153335 0.000754881 0 0 -5.1365e-06 0.0005 5.23599e-07 
147 1 0.0157969 0.021647 0.0151071 0.0191565 0.0122337 -0.00549799 -8.58461e-05 -4.895e-05 1.23395e-06 0.0005 5.23599e-07 
148 1 0.0149498 0.0221602 0.0155246 -0.00862025 0.00778131 -0.00507428 0 0 -5.1365e-06 0.0005 5.23599e-07 
149 1 0.0190443 0.0240907 0.0163151 -0.00312436 0.00108236 0.00655629 9.00675e-06 -1.17083e-05 -1.23531e-05 0.0005 5.23599e-07 
150 1 0.0151777 0.0209812 0.0155211 0.00702304 0.0188015 -0.00331547 -2.38333e-05 2.90142e-05 1.94955e-05 0.0005 5.23599e-07 
151 1 0.0228495 0.0151948 0.0152254 0.0194915 0.0136087 0.00133645 0 0 -5.1365e-06 0.0005 5.23599e-07 
152 1 0.0195118 0.0162592 0.0159617 0.00225675 -0.00252203 -0.0155782 0 0 -5.1365e-06 0.0005 5.23599e-07 
153 1 0.0192813 0.022258 0.0167282 -0.0130893 0.0118273 0.0057833 0 0 -5.1365e-06 0.0005 5.23599e-07 
154 1 0.0205594 0.0151045 0.0150095 0.0102839 -0.019965 -0.0233643 0 0 -5.1365e-06 0.0005 5.23599e-07 
155 1 0.0233096 0.0173493 0.0157047 0.00634148 -0.0163396 -0.0515265 -1.08245e-06 5.5017e-07 -3.40875e-06 0.0005 5.23599e-07 
156 1 0.0195317 0.0232301 0.0167242 -0.00101525 0.00202933 0.0181688 3.51967e-06 -2.07966e-06 -5.38674e-06 0.0005 5.23599e-07 
157 1 0.0179749 0.0224899 0.0163741 0.00348122 -0.00161448 0.00293964 1.63997e-05 6.71734e-06 1.53375e-05 0.0005 5.23599e-07 
158 1 0.0185522 0.0228334 0.0171248 0.00515965 -0.00469391 0.00776424 -3.18786e-06 -9.24881e-07 6.73665e-06 0.0005 5.23599e-07 
159 1 0.0242844 0.018809 0.0167536 0.0369261 0.0226327 0.000459708 -2.80135e-05 2.56579e-05 7.4432e-05 0.0005 5.23599e-07 
160 1 0.0218212 0.0223717 0.0180684 -0.00106787 0.00359158 0.00773754 7.99214e-07 -3.56836e-07 1.18712e-06 0.0005 5.23599e-07 
161 1 0.0192875 0.0206235 0.0165059 0.0102381 -0.00429241 0.0015876 -4.39324e-07 3.49058e-06 -1.71608e-06 0.0005 5.23599e-07 
162 1 0.0228403 0.0222085 0.0176591 0.00386265 -0.00156019 0.00398622 0 0 -5.1365e-06 0.0005 5.23599e-07 
163 1 0.0228794 0.0213378 0.0153268 0.0113627 -0.00141671 0.00200909 3.77822e-05 5.13227e-05 1.72589e-05 0.0005 5.23599e-07 
164 1 0.0178296 0.0208126 0.01751 0.0140986 -0.00916449 -0.0089067 0 0 -5.1365e-06 0.0005 5.23599e-07 
165 1 0.0203255 0.0172918 0.0167436 0.0158293 0.0168045 0.0125315 0 0 -5.1365e-06 0.0005 5.23599e-07 
166 1 0.0187267 0.0156262 0.0154631 -0.0109585 -0.00917575 -0.00213142 0 0 -5.1365e-06 0.0005 5.23599e-07 
167 1 0.0175945 0.0141372 0.0143147 0.0413721 -0.0297059 -0.0425822 0 0 -5.1365e-06 0.0005 5.23599e-07 
168 1 0.0234352 0.0160239 0.0159082 0.00248909 -0.019978 -0.0101853 0 0 -5.1365e-06 0.0005 5.23599e-07 
169 1 0.0196703 0.0151366 0.015498 0.00471516 0.0184558 0.00587027 0 0 -5.1365e-06 0.0005 5.23599e-07 
170 1 0.0188079 0.0145543 0.0149201 -0.0184467 -0.0179563 -0.0417024 0 0 -5.1365e-06 0.0005 5.23599e-07 
171 1 0.0229279 0.0165637 0.0189083 -0.080104 0.0967693 -0.157193 0 0 -5.1365e-06 0.0005 5.23599e-07 
172 1 0.022808 0.0203358 0.0167658 0.0208 -0.0175303 0.0303007 -5.08214e-05 -1.09339e-05 -2.99026e-05 0.0005 5.23599e-07 
173 1 0.0211361 0.0158394 0.0156936 -0.00201521 -0.0182114 -0.00751071 0 0 -5.1365e-06 0.0005 5.23599e-07 
174 1 0.0199018 0.0194645 0.0168099 -0.00418195 -0.00494535 -0.0701863 -9.43936e-06 -1.28047e-05 6.76974e-06 0.0005 5.23599e-07 
175 1 0.0170227 0.0202774 0.0157699 0.00975028 0.0074171 -0.00328548 -3.60141e-07 2.29579e-06 -2.45088e-06 0.0005 5.23599e-07 
176 1 0.0170164 0.0212066 0.0153902 0.00701802 0.00257531 -0.00501883 1.89823e-05 2.71114e-05 1.69412e-06 0.0005 5.23599e-07 
177 1 0.0179489 0.0159454 0.0148966 0.00434574 -0.0195163 0.00810961 0 0 -5.1365e-06 0.0005 5.23599e-07 
178 1 0.0168323 0.0189071 0.0166634 -0.0890672 0.11327 -0.196087 0 0 -5.1365e-06 0.0005 5.23599e-07 
179 1 0.0213183 0.0203513 0.0157531 0.0132028 -0.0181843 -0.00112142 5.79221e-05 8.66527e-05 -5.48306e-05 0.0005 5.23599e-07 
180 1 0.0156056 0.0190816 0.0159481 0.0101022 0.0133108 0.00230704 -9.20791e-07 3.66986e-06 1.48775e-06 0.0005 5.23599e-07 
181 1 0.0179981 0.0190807 0.016793 -0.00954552 0.0108354 0.0887015 0 0 -5.1365e-06 0.0005 5.23599e-07 
182 1 0.0208479 0.0241095 0.0171165 0.0045254 0.00372075 0.0198912 0 0 -5.1365e-06 0.0005 5.23599e-07 
183 1 0.0179435 0.0124574 0.0280714 0.0227441 -0.0041468 -0.434559 0 0 -5.1365e-06 0.0005 5.23599e-07 
184 1 0.0225228 0.0201406 0.0158137 0.00822651 -0.00223542 -0.0156282 0 0 -5.1365e-06 0.0005 5.23599e-07 
185 1 0.0178599 0.0170781 0.0154925 0.00447271 0.0150898 0.00495269 -1.78929e-07 -9.40071e-07 8.18363e-07 0.0005 5.23599e-07 
186 1 0.023383 0.019641 0.0159209 0.0102922 0.000729677 -0.00248702 3.07133e-06 2.40762e-06 -2.59142e-06 0.0005 5.23599e-07 
187 1 0.0251813 0.0172892 0.0164311 0.0110434 0.0123807 0.00698716 -4.05275e-07 2.74441e-07 -6.28282e-07 0.0005 5.23599e-07 
188 1 0.0158868 0.0226109 0.0154071 0.00161166 0.00781511 -0.00615575 5.01165e-06 4.78195e-06 3.40787e-07 0.0005 5.23599e-07 
189 1 0.0238672 0.0201646 0.0166217 0.0137678 -0.0116589 0.00761201 4.74906e-07 -1.40685e-06 -3.82994e-06 0.0005 5.23599e-07 
190 1 0.020012 0.0242565 0.0165028 -0.00436887 0.00874174 0.0332293 2.06212e-05 1.38772e-06 -8.52634e-06 0.0005 5.23599e-07 
