ITEM: TIMESTEP
600000
ITEM: NUMBER OF ATOMS
189
ITEM: BOX BOUNDS ff ff ff
-0.02 0.43
-0.02 0.06
-0.02 0.07
ITEM: ATOMS id type x y z vx vy vz fx fy fz radius mass 
1 1 0.0221825 0.0209267 0.0164221 0.0273674 -0.00170109 0.0042495 -1.34678e-05 -3.49148e-06 9.20801e-07 0.0005 5.23599e-07 
2 1 0.0199257 0.0193042 0.0167204 0.00287292 0.0561697 0.00665834 -4.42801e-07 1.80702e-06 -2.96666e-07 0.0005 5.23599e-07 
3 1 0.0241568 0.0218982 0.0165238 -0.00103954 0.00306196 0.00036527 -1.85739e-05 2.27153e-05 4.59257e-06 0.0005 5.23599e-07 
4 1 0.0187328 0.0197911 0.0168806 -0.0131154 0.0340146 0.0051461 0 0 -5.1365e-06 0.0005 5.23599e-07 
5 1 0.0250768 0.0180491 0.0158243 -0.00262975 -6.88982e-05 -0.00505253 0.000283862 0.000118585 -2.54079e-05 0.0005 5.23599e-07 
6 1 0.0175943 0.0209526 0.0155164 0.0178452 0.000888627 0.00947348 -4.64982e-05 -0.000120054 0.000206497 0.0005 5.23599e-07 
7 1 0.020513 0.0146118 0.0119545 0.000721713 0.000872563 -0.00190548 -1.21866e-06 4.34547e-06 1.35567e-06 0.0005 5.23599e-07 
8 1 0.0256166 0.0208894 0.0166076 0.000611867 0.0042772 -0.0007735 0 0 -5.1365e-06 0.0005 5.23599e-07 
9 1 0.0215366 0.0239684 0.0136161 0.00598728 -0.00428799 0.0130945 -9.98757e-06 -1.00504e-05 8.96095e-05 0.0005 5.23599e-07 
10 1 0.0208839 0.0187761 0.0071854 0.00105326 -0.0490537 0.00448913 -7.46687e-08 -1.75779e-07 2.37449e-07 0.0005 5.23599e-07 
11 1 0.0155702 0.0226691 0.0153249 0.00397991 0.00126156 -0.0047161 7.0158e-06 -1.31434e-06 2.62768e-06 0.0005 5.23599e-07 
12 1 0.0191724 0.0244392 0.013692 -0.000669393 -0.000538965 -0.0147792 -0.000203683 0.000440593 0.000352684 0.0005 5.23599e-07 
13 1 0.0168467 0.0238367 0.0147549 0.0127049 -0.00299077 0.00216781 -2.73042e-06 -8.4315e-06 2.95021e-05 0.0005 5.23599e-07 
14 1 0.0167128 0.0238183 0.0165493 0.00517826 -0.000854483 0.000158406 1.76357e-05 1.57465e-05 1.2695e-05 0.0005 5.23599e-07 
15 1 0.0252567 0.0192689 0.0170888 0.0278957 0.0130396 0.0161305 0 0 -5.1365e-06 0.0005 5.23599e-07 
16 1 0.0172494 0.0217561 0.0160005 0.0107077 0.0181372 0.00402321 1.44695e-06 8.93816e-06 6.27335e-06 0.0005 5.23599e-07 
17 1 0.0223489 0.0237086 0.0141265 0.00252405 0.000718401 -0.00529125 0.000116912 -3.24293e-05 6.49432e-05 0.0005 5.23599e-07 
18 1 0.0207069 0.0236356 0.0140515 0.00166925 0.00156074 0.00802541 -0.000105558 0.000203408 -0.000375171 0.0005 5.23599e-07 
19 1 0.0177684 0.0236969 0.0141402 -0.00116997 0.00373273 0.0113375 4.98609e-05 0.000228509 0.000107437 0.0005 5.23599e-07 
20 1 0.0224711 0.0171642 0.016413 -0.00167244 0.0024999 0.00508571 -9.98869e-08 2.8777e-07 4.87097e-07 0.0005 5.23599e-07 
21 1 0.0211211 0.0197027 0.00722779 0.00119923 -0.0510504 -0.0117264 2.24164e-08 -1.1533e-07 2.01704e-07 0.0005 5.23599e-07 
22 1 0.0189814 0.0191339 0.0161673 0.00185335 0.0639107 -0.0196057 0 0 -5.1365e-06 0.0005 5.23599e-07 
23 1 0.0185962 0.0236508 0.0153525 0.0152671 -0.00229074 0.00660105 -7.26739e-06 -7.99369e-06 -3.56938e-05 0.0005 5.23599e-07 
24 1 0.0195237 0.0203041 0.0172467 -0.0145462 0.0155931 0.0235856 0 0 -5.1365e-06 0.0005 5.23599e-07 
25 1 0.0228269 0.0189871 0.0167721 0.00421943 0.0220182 -0.00474495 -1.16085e-07 1.04327e-06 -2.39668e-06 0.0005 5.23599e-07 
26 1 0.0176013 0.0236797 0.0169861 0.00875271 0.00196991 -0.011156 -3.52411e-06 -6.39513e-06 -9.80841e-07 0.0005 5.23599e-07 
27 1 0.024166 0.018187 0.0158881 0.000970374 0.0461135 0.00149673 0.000108889 -0.000240378 -4.54534e-05 0.0005 5.23599e-07 
28 1 0.0246943 0.0186398 0.0176652 -0.0105743 0.0137598 0.00445428 0 0 -5.1365e-06 0.0005 5.23599e-07 
29 1 0.0188196 0.0233032 0.0133153 0.000997785 0.0127439 -0.0397218 -7.31329e-05 -0.00024545 -1.1785e-05 0.0005 5.23599e-07 
30 1 0.0212186 0.0230159 0.0149338 0.0135163 0.0292286 -0.022011 -7.42318e-05 -5.45223e-05 0.000163948 0.0005 5.23599e-07 
31 1 0.0191873 0.0226735 0.0154994 -0.0164267 -0.0659301 0.0390937 -7.86158e-05 0.000125163 -4.95565e-05 0.0005 5.23599e-07 
32 1 0.0217318 0.022216 0.00866834 0.000712208 -0.0343636 -0.0352791 -2.8152e-08 -2.53393e-07 6.8346e-08 0.0005 5.23599e-07 
33 1 0.0241177 0.0191396 0.015937 0.00340769 0.0374397 0.00120115 0.000172136 -0.000112753 3.52113e-05 0.0005 5.23599e-07 
34 1 0.0161005 0.0236695 0.0141089 0.00666888 0.00221676 -0.004542 0 0 -5.1365e-06 0.0005 5.23599e-07 
35 1 0.0223088 0.0233594 0.0108858 0.0012573 -0.00827007 -0.0486419 -1.65715e-06 2.0207e-05 3.66502e-05 0.0005 5.23599e-07 
36 1 0.020167 0.0244066 0.0137195 -0.0102104 0.00390763 -0.0146777 -8.80887e-05 0.000172278 0.000246146 0.0005 5.23599e-07 
37 1 0.0202508 0.0148918 0.0136009 0.0217754 -0.0376409 -0.000363878 0 0 -5.1365e-06 0.0005 5.23599e-07 
38 1 0.0231216 0.0224859 0.0147766 0.00531796 0.00763918 0.00208197 4.01034e-06 3.71807e-06 -2.02298e-05 0.0005 5.23599e-07 
39 1 0.0236337 0.0212257 0.0170636 0.000903727 0.00510458 0.000610189 1.20724e-05 -2.05198e-05 3.48475e-06 0.0005 5.23599e-07 
40 1 0.0222289 0.0235814 0.0151676 0.0144619 0.0110766 -0.00190117 0.000257069 0.000123381 4.37552e-05 0.0005 5.23599e-07 
41 1 0.0143637 0.0229285 0.0150408 0.00333308 0.000203534 -0.00169264 1.13838e-06 -4.657e-06 -1.03294e-06 0.0005 5.23599e-07 
42 1 0.0247182 0.0199477 0.0159235 0.00256557 0.000233683 -0.00358576 -8.86082e-05 -0.000161256 -2.12685e-05 0.0005 5.23599e-07 
43 1 0.015202 0.0232833 0.0146272 0.00552494 0.00407499 0.00337805 -1.07735e-05 4.4642e-06 -1.47549e-05 0.0005 5.23599e-07 
44 1 0.0174673 0.0141193 0.0133369 0.00289272 0.00147203 -0.00699215 -1.33862e-08 -5.61377e-07 -4.59083e-06 0.0005 5.23599e-07 
45 1 0.039852 0.0190547 0.00569119 -3.55636e-15 1.70435e-14 -8.42604e-14 1.20649e-19 1.29173e-20 -2.5411e-21 0.0005 5.23599e-07 
46 1 0.0211312 0.0222563 0.015663 0.0139278 -0.00541151 -0.0120945 -3.3744e-05 3.32021e-06 -1.3899e-06 0.0005 5.23599e-07 
47 1 0.0231393 0.0204599 0.0166197 0.00801084 0.0045676 0.00385526 9.73688e-05 9.6753e-05 -1.25208e-07 0.0005 5.23599e-07 
48 1 0.0212712 0.014777 0.0145214 -0.0165307 0.00436126 -0.0126872 1.97325e-06 3.30564e-06 1.09142e-06 0.0005 5.23599e-07 
49 1 0.0206724 0.0140031 0.0133622 -0.00113169 0.000416402 -0.00194109 -6.64266e-07 -1.60224e-06 -3.17414e-06 0.0005 5.23599e-07 
50 1 0.0205209 0.0214896 0.0172434 -0.0100381 0.013926 0.0088054 0 0 -5.1365e-06 0.0005 5.23599e-07 
51 1 0.0178823 0.0231567 0.0131448 0.00206736 -0.0138748 -0.000133362 -0.000160322 -9.39584e-05 -0.000163905 0.0005 5.23599e-07 
52 1 0.0196302 0.0241065 0.0128775 -0.00653455 -0.0229286 0.0278496 -0.000249647 0.000216471 -0.000474666 0.0005 5.23599e-07 
53 1 0.0228566 0.0230298 0.0157065 0.0125271 0.011068 0.00151964 0.000505365 -1.48959e-05 -0.000339491 0.0005 5.23599e-07 
54 1 0.0219721 0.0218244 0.015988 0.00861438 -0.000722341 -0.00706484 2.42415e-05 -3.66692e-07 -5.32601e-06 0.0005 5.23599e-07 
55 1 0.0217913 0.0226234 0.0172533 -0.0227063 0.00235794 0.0109325 0 0 -5.1365e-06 0.0005 5.23599e-07 
57 1 0.0159705 0.0235841 0.0151915 0.00960817 0.00518772 -0.00211952 4.71929e-06 -8.80272e-07 3.21708e-06 0.0005 5.23599e-07 
58 1 0.0198568 0.0151838 0.00961172 0.00258863 -0.0232317 0.0411804 -2.61401e-07 5.12156e-07 -1.22195e-06 0.0005 5.23599e-07 
59 1 0.0239934 0.0214427 0.0157957 0.000529742 0.0123177 -0.000974788 -1.70257e-05 3.05719e-05 -2.57595e-06 0.0005 5.23599e-07 
60 1 0.0185388 0.0235957 0.0120335 0.00497712 -0.00717523 -0.0183487 0 0 -5.1365e-06 0.0005 5.23599e-07 
61 1 0.0180711 0.0187841 0.0159459 -0.000750385 0.0554139 0.00327821 -1.96615e-07 -1.65093e-06 -1.10082e-06 0.0005 5.23599e-07 
62 1 0.0230984 0.0234187 0.0147096 0.00372952 0.00353791 0.000847942 7.07168e-05 -9.02777e-06 4.60208e-05 0.0005 5.23599e-07 
63 1 0.0192521 0.0226265 0.0170941 0.00477721 -0.00512317 0.0280641 0 0 -5.1365e-06 0.0005 5.23599e-07 
64 1 0.018932 0.0154361 0.0140868 -0.000298868 0.0227674 0.0304563 9.36905e-08 -5.31183e-06 4.50995e-06 0.0005 5.23599e-07 
65 1 0.0246811 0.0185662 0.0166588 0.0204991 0.0233319 0.00333338 0 0 -5.1365e-06 0.0005 5.23599e-07 
66 1 0.0247393 0.0213647 0.0153505 -0.000785699 0.000908435 -0.000116061 -2.97443e-05 -3.17965e-06 -1.04133e-05 0.0005 5.23599e-07 
67 1 0.0246963 0.0210879 0.0169459 -0.00113541 0.0041599 0.00071871 6.55452e-05 1.00723e-05 -1.60443e-05 0.0005 5.23599e-07 
68 1 0.0227455 0.0230624 0.0171664 0.00275995 -0.00269452 0.0027266 0 0 -5.1365e-06 0.0005 5.23599e-07 
69 1 0.0156642 0.0227829 0.0167358 -0.000151027 -0.0160895 -0.0248356 0 0 -5.1365e-06 0.0005 5.23599e-07 
70 1 0.0244464 0.0222467 0.0156896 0.000163363 0.00341517 0.000922911 4.80847e-06 1.3206e-05 1.77645e-05 0.0005 5.23599e-07 
71 1 0.0185338 0.0221563 0.0165686 0.0135576 0.00109325 -0.0151033 -6.8738e-06 3.77185e-05 -2.57788e-05 0.0005 5.23599e-07 
72 1 0.0155371 0.021615 0.0161124 -0.0373152 0.0284474 -0.0247413 0 0 -5.1365e-06 0.0005 5.23599e-07 
73 1 0.0186896 0.0240329 0.0162712 0.00313942 -0.00334942 0.00354544 3.2609e-05 8.8128e-06 3.50306e-05 0.0005 5.23599e-07 
74 1 0.0186384 0.0240674 0.0144448 0.0151485 -0.0195022 -0.00398283 0.000110579 0.000272207 0.000191589 0.0005 5.23599e-07 
75 1 0.0193776 0.0218599 0.0160464 -0.00338986 -0.0284268 0.0807887 9.18246e-05 -6.63829e-05 9.42514e-05 0.0005 5.23599e-07 
76 1 0.0169332 0.024136 0.0138054 0.0119089 0.00857645 -0.00355171 -9.10558e-06 1.81485e-05 8.41943e-07 0.0005 5.23599e-07 
77 1 0.0201641 0.0224587 0.0155087 0.00828599 -0.002342 -0.00051265 0 0 -5.1365e-06 0.0005 5.23599e-07 
78 1 0.020316 0.0233401 0.0160323 0.0226023 -0.0090224 0.0235812 2.43537e-05 5.93088e-06 6.67376e-05 0.0005 5.23599e-07 
79 1 0.0178485 0.0239753 0.0179086 -0.0142407 -0.0011819 -0.00820275 1.18885e-05 1.67229e-06 6.84392e-06 0.0005 5.23599e-07 
80 1 0.0183484 0.0243834 0.0171448 -0.00184173 -0.000635496 0.000537281 1.07047e-06 9.90098e-08 -4.44035e-06 0.0005 5.23599e-07 
81 1 0.0235333 0.022613 0.0142582 0.001539 0.00192164 0.000766787 -2.10185e-06 4.53748e-06 -1.12857e-05 0.0005 5.23599e-07 
82 1 0.0226899 0.0231001 0.0100158 0.00190073 -0.0151848 -0.0508614 6.97154e-06 1.41409e-05 5.01002e-05 0.0005 5.23599e-07 
83 1 0.0197071 0.0199601 0.0158664 0.0668467 -0.135501 0.0773165 0 0 -5.1365e-06 0.0005 5.23599e-07 
84 1 0.0237583 0.0200191 0.0158189 0.00428815 0.0287294 -0.00804815 3.16296e-05 -0.000156454 -9.32594e-06 0.0005 5.23599e-07 
85 1 0.0164867 0.0217789 0.0166883 -0.000164698 -0.0358705 -0.0163019 0 0 -5.1365e-06 0.0005 5.23599e-07 
86 1 0.0234343 0.0222697 0.0159599 -0.00866976 0.0060664 0.0062412 0.000285113 0.000196176 -6.82835e-05 0.0005 5.23599e-07 
87 1 0.0166357 0.0228255 0.0164623 0.00796559 0.00383148 -0.00159537 -1.27456e-05 -1.65114e-05 -1.51755e-05 0.0005 5.23599e-07 
88 1 0.0221148 0.0230684 0.0163763 0.0241085 0.00262507 0.00447454 -1.50021e-05 7.68127e-05 1.029e-05 0.0005 5.23599e-07 
89 1 0.0235123 0.0208838 0.0155058 0.00301107 0.0210516 -0.00852978 -3.3559e-07 1.99762e-05 -3.43888e-06 0.0005 5.23599e-07 
90 1 0.026472 0.0169692 0.00768176 0.00204597 -0.0246266 0.0130642 -3.42565e-07 7.09006e-06 -4.99233e-06 0.0005 5.23599e-07 
91 1 0.019275 0.0232567 0.0146855 0.0506106 -0.0317559 0.0343859 6.94956e-05 0.00134633 0.00024552 0.0005 5.23599e-07 
92 1 0.0216776 0.0237347 0.0170184 0.0103337 -0.000620666 0.00573104 -5.85257e-07 -6.39264e-07 -5.00427e-06 0.0005 5.23599e-07 
93 1 0.0194859 0.0147247 0.0113809 0.000146671 -0.00576931 0.0537617 -9.55197e-08 2.35642e-07 4.57767e-07 0.0005 5.23599e-07 
94 1 0.0195908 0.023759 0.0154891 0.0167152 -0.0193583 0.0229513 -0.000100858 1.91145e-05 -0.000167896 0.0005 5.23599e-07 
95 1 0.0184919 0.0139853 0.0130347 0.00261242 -0.00593037 0.00909547 0 0 -5.1365e-06 0.0005 5.23599e-07 
96 1 0.0220199 0.0226229 0.015365 0.0447794 -0.00589347 -0.0259848 -0.000150521 0.00030447 0.000119124 0.0005 5.23599e-07 
97 1 0.0176038 0.0240592 0.0130472 -0.00613896 -0.0079294 0.0123324 -0.000169151 5.39e-05 0.000265823 0.0005 5.23599e-07 
98 1 0.0226477 0.0222509 0.0165885 0.011673 -0.00177922 0.00248522 5.54879e-05 -3.60907e-05 -4.83501e-07 0.0005 5.23599e-07 
99 1 0.0230387 0.0232578 0.0124763 -0.000199667 0.0110242 -0.048788 -6.44758e-08 -1.64396e-07 -1.27402e-07 0.0005 5.23599e-07 
100 1 0.0203715 0.0216754 0.0160952 -8.38482e-05 -0.0100141 0.00440388 -1.07614e-05 2.01573e-05 -1.34695e-05 0.0005 5.23599e-07 
101 1 0.017749 0.023779 0.0159337 -0.00109268 0.00206872 0.0110305 0 0 -5.1365e-06 0.0005 5.23599e-07 
102 1 0.0182584 0.0178059 0.0158535 -0.000263659 0.0556136 0.0166664 -9.20947e-07 8.46923e-06 5.02928e-06 0.0005 5.23599e-07 
103 1 0.0237767 0.0228917 0.0152687 0.00106825 0.00383334 0.00181515 8.90285e-05 -5.79092e-05 -2.55848e-05 0.0005 5.23599e-07 
104 1 0.0204163 0.0166197 0.00793275 0.00193333 -0.0420889 0.0290231 -3.63585e-07 1.02145e-06 -5.5598e-07 0.0005 5.23599e-07 
105 1 0.0192756 0.0148589 0.013345 -0.00290707 0.0121894 0.0505618 0 0 -5.1365e-06 0.0005 5.23599e-07 
106 1 0.0197699 0.0240368 0.0145414 0.0381477 -0.012506 0.0127467 0.000116363 0.000455269 0.000464058 0.0005 5.23599e-07 
107 1 0.0257866 0.0186269 0.0159234 0.00561636 -0.00350674 -0.0029056 5.03355e-05 -0.00019847 5.84054e-05 0.0005 5.23599e-07 
108 1 0.022425 0.0145261 0.0141925 -0.00466634 0.00130626 -0.00720925 -8.08855e-07 1.05422e-06 -2.79966e-06 0.0005 5.23599e-07 
109 1 0.0178179 0.0200377 0.0158576 0.0255985 0.00520225 -0.0310468 0 0 -5.1365e-06 0.0005 5.23599e-07 
110 1 0.0206158 0.0176329 0.00742005 0.00100421 -0.0494861 0.0186922 -5.74587e-07 -3.4937e-06 1.46375e-06 0.0005 5.23599e-07 
111 1 0.0215684 0.0142922 0.013699 -0.000523224 0.00119434 -0.00558345 -1.73555e-06 -3.23692e-06 -1.10399e-05 0.0005 5.23599e-07 
112 1 0.0210826 0.0221427 0.0166582 -0.000847018 -0.00253724 -0.0137542 0 0 -5.1365e-06 0.0005 5.23599e-07 
113 1 0.0200456 0.018505 0.0161316 0.000101444 0.05729 0.00745432 6.4772e-07 8.50107e-06 -5.89831e-06 0.0005 5.23599e-07 
114 1 0.0214174 0.0202907 0.0166497 0.00528515 -0.00322123 0.00544555 -8.88627e-06 -2.59331e-05 -2.5343e-05 0.0005 5.23599e-07 
115 1 0.0208872 0.0230993 0.0168894 0.00882359 2.25289e-06 -0.00433502 3.49806e-05 -8.58238e-06 7.39207e-06 0.0005 5.23599e-07 
116 1 0.0173841 0.0234042 0.0123542 -0.00733542 -0.00594769 0.0071304 0.000203984 0.0001744 -1.7134e-05 0.0005 5.23599e-07 
117 1 0.013207 0.018463 0.0188923 0.169746 0.0410513 0.0633116 0 0 -5.1365e-06 0.0005 5.23599e-07 
118 1 0.0256073 0.0176615 0.0166504 -0.0319934 -0.0048048 0.0273025 0 0 -5.1365e-06 0.0005 5.23599e-07 
119 1 0.0212308 0.0212033 0.0162893 0.0105558 -0.00477225 0.00507467 -6.05694e-05 8.59905e-05 -1.99813e-05 0.0005 5.23599e-07 
120 1 0.0198751 0.0245928 0.017279 0.00495727 0.0109229 0.0264852 5.94228e-06 2.67342e-05 1.27348e-05 0.0005 5.23599e-07 
121 1 0.0250559 0.0216547 0.0162431 -0.000457988 0.00173256 8.98319e-05 -3.99761e-05 -2.07374e-05 -1.31028e-05 0.0005 5.23599e-07 
122 1 0.0184743 0.0216478 0.017427 -0.00762593 0.0387742 -5.51946e-05 6.8738e-06 -3.77185e-05 1.55058e-05 0.0005 5.23599e-07 
123 1 0.0182147 0.0226836 0.0157313 -0.0189798 -0.0198546 0.00918168 -2.08579e-07 -5.20747e-06 -1.96498e-05 0.0005 5.23599e-07 
124 1 0.0230526 0.0213959 0.016265 0.00815391 0.000651473 0.00143636 -2.82957e-06 1.57021e-05 1.00145e-05 0.0005 5.23599e-07 
125 1 0.0243957 0.0170742 0.0160781 0.0106276 -0.0284016 0.00479381 0 0 -5.1365e-06 0.0005 5.23599e-07 
126 1 0.0165227 0.0142589 0.01366 0.00447386 -0.00374267 0.000633967 3.62841e-07 -3.92696e-07 2.45004e-07 0.0005 5.23599e-07 
127 1 0.0193134 0.0232521 0.0163062 0.00566228 -0.00468979 0.00270735 -3.75125e-07 1.48835e-06 -4.55639e-06 0.0005 5.23599e-07 
128 1 0.0229107 0.023005 0.0135137 -0.000436955 0.00359266 -0.00941558 -8.02825e-05 -0.000174428 9.46537e-05 0.0005 5.23599e-07 
129 1 0.0247448 0.0166427 0.015237 0.0125827 -0.00433361 0.0113505 0 0 -5.1365e-06 0.0005 5.23599e-07 
130 1 0.0212896 0.0235542 0.0160918 0.019624 -0.00101893 0.00357589 5.15708e-06 -2.77792e-05 1.40601e-05 0.0005 5.23599e-07 
131 1 0.0167645 0.0235767 0.0129946 -0.000298422 -0.000643043 0.0053369 -7.41757e-05 0.000235545 -0.000520641 0.0005 5.23599e-07 
132 1 0.0193364 0.0146293 0.0123711 0.00774966 -0.00355424 0.0527852 0 0 -5.1365e-06 0.0005 5.23599e-07 
133 1 0.021974 0.0229044 0.00952906 0.00159867 -0.0140439 -0.0289304 1.23761e-06 6.97279e-05 9.60757e-05 0.0005 5.23599e-07 
134 1 0.0207487 0.0240441 0.0130153 -0.00303818 0.000698592 -0.00360611 1.12952e-05 1.11603e-05 -1.73243e-05 0.0005 5.23599e-07 
135 1 0.0175926 0.0225041 0.0165853 0.0083067 -0.00489998 -0.0124907 -1.95395e-05 -3.68513e-06 -1.32964e-06 0.0005 5.23599e-07 
136 1 0.0214742 0.023924 0.0146166 0.0172415 0.00867937 0.00223321 -6.6185e-05 0.000413818 0.000150967 0.0005 5.23599e-07 
137 1 0.0202501 0.0231502 0.0147884 0.00810278 -0.0202139 0.00178413 0.000176208 -0.000158091 -0.000118848 0.0005 5.23599e-07 
138 1 0.0177079 0.0233016 0.0150557 0.00129401 0.0102393 0.0227816 6.38633e-06 0.000118528 8.94339e-05 0.0005 5.23599e-07 
139 1 0.0191564 0.0181992 0.0158575 -0.000214234 0.0560013 0.010178 2.19298e-07 5.1796e-06 6.92109e-06 0.0005 5.23599e-07 
140 1 0.0255936 0.0195663 0.016191 0.00130325 -0.000572633 -0.00953206 -0.000147614 0.000214485 -4.19089e-05 0.0005 5.23599e-07 
141 1 0.0234515 0.0222016 0.01718 0.00629172 0.00449577 0.0104317 3.29469e-05 -1.95864e-05 1.13525e-05 0.0005 5.23599e-07 
142 1 0.0329877 0.0190506 0.00569147 -3.20515e-16 -1.0216e-15 4.0951e-15 -7.90785e-19 7.77153e-20 -1.52466e-20 0.0005 5.23599e-07 
143 1 0.0177034 0.0234194 0.0115047 -0.000943138 -1.56924e-06 0.00198187 8.82688e-05 1.20259e-05 -1.74911e-05 0.0005 5.23599e-07 
144 1 0.0180383 0.021805 0.0152489 0.0430161 -0.0141085 -0.000590732 -1.56775e-05 0.000437003 -0.000298278 0.0005 5.23599e-07 
145 1 0.013882 0.0222808 0.0156308 -7.4192e-05 -8.59917e-05 -0.00221596 -9.73796e-07 -4.5857e-06 1.2654e-06 0.0005 5.23599e-07 
146 1 0.0218622 0.0216246 0.017191 0.037718 0.00216848 -0.04169 0 0 -5.1365e-06 0.0005 5.23599e-07 
147 1 0.018111 0.0224201 0.0144612 -0.0128627 0.00988178 0.0314396 0.000211549 -0.000314758 -4.87559e-05 0.0005 5.23599e-07 
148 1 0.0173965 0.0228081 0.0139009 0.00975928 -0.0180077 0.0265328 -8.38995e-05 8.24476e-05 -0.00017355 0.0005 5.23599e-07 
149 1 0.0196782 0.0241877 0.0163867 0.021582 0.0129682 0.0202458 1.2913e-05 -2.94705e-05 0.000103315 0.0005 5.23599e-07 
150 1 0.0172106 0.0224789 0.0147872 -0.00192705 0.00789859 0.0275224 -1.84182e-05 -0.00014677 -0.0006992 0.0005 5.23599e-07 
151 1 0.0232265 0.0148683 0.0146865 -0.00387271 -0.00349833 -0.00120269 -4.71818e-07 -1.58055e-07 7.76018e-07 0.0005 5.23599e-07 
152 1 0.0192479 0.0186987 0.0173201 0.0105215 -0.0186378 0.000628656 0 0 -5.1365e-06 0.0005 5.23599e-07 
153 1 0.0201104 0.0225253 0.016574 0.00355213 -0.0181547 0.00624831 4.97465e-07 -1.09779e-06 -3.71485e-06 0.0005 5.23599e-07 
154 1 0.0209735 0.0147909 0.0128252 0.00494277 -0.000295172 -0.00129902 5.02142e-07 2.59088e-07 -4.92158e-06 0.0005 5.23599e-07 
155 1 0.0236398 0.0195734 0.0167107 -0.00055417 0.0339218 -0.011958 0 0 -5.1365e-06 0.0005 5.23599e-07 
156 1 0.0199563 0.0234208 0.0170597 0.015308 0.0062688 0.00904709 -4.80164e-05 -8.45813e-06 -7.97219e-06 0.0005 5.23599e-07 
157 1 0.0183579 0.0231468 0.0166054 0.00561486 0.00435522 -0.00520858 -1.35812e-06 -7.28913e-06 1.00427e-05 0.0005 5.23599e-07 
158 1 0.0189811 0.0235998 0.0172425 0.00303299 0.00207634 -0.00530883 1.37529e-05 1.39271e-05 -2.50976e-06 0.0005 5.23599e-07 
159 1 0.0259408 0.0200261 0.0170088 -0.00366257 -0.00106761 0.00116007 -1.26098e-06 -4.87317e-07 -5.21471e-06 0.0005 5.23599e-07 
160 1 0.0207093 0.0237727 0.0176237 0.0090687 0.00277287 0.0206915 1.38198e-06 -2.69455e-06 8.65641e-06 0.0005 5.23599e-07 
161 1 0.0200403 0.020846 0.0165785 -0.0120997 -0.00105549 0.00658298 0 0 -5.1365e-06 0.0005 5.23599e-07 
162 1 0.0223278 0.0198845 0.0167081 0.0156559 0.00203858 -0.00667742 -4.64674e-05 -0.000127801 7.97303e-07 0.0005 5.23599e-07 
163 1 0.0240555 0.0220527 0.0148337 0.000642898 0.00493326 0.000947941 1.10088e-06 2.28283e-06 -1.78867e-05 0.0005 5.23599e-07 
164 1 0.0194816 0.0215809 0.0170126 -0.019193 -0.0192358 0.0847701 0 0 -5.1365e-06 0.0005 5.23599e-07 
165 1 0.0209333 0.0184033 0.0166974 -0.00684867 0.000427374 -0.00378234 7.89541e-07 2.90997e-06 4.97083e-06 0.0005 5.23599e-07 
166 1 0.017785 0.0193879 0.01669 0.00376264 0.0188735 0.0316123 0 0 -5.1365e-06 0.0005 5.23599e-07 
167 1 0.0196375 0.013958 0.0130745 -0.00678184 0.0302321 -0.0451722 0 0 -5.1365e-06 0.0005 5.23599e-07 
168 1 0.0221697 0.0151014 0.0149695 -0.0142755 0.00361113 -0.0126953 -2.97538e-08 7.65792e-07 -4.78664e-06 0.0005 5.23599e-07 
169 1 0.0211317 0.0163609 0.0159936 -0.00956921 -0.0135202 -0.00833681 0 0 -5.1365e-06 0.0005 5.23599e-07 
170 1 0.0189613 0.0142102 0.0140597 -0.0429967 -0.0243452 0.019719 0 0 -5.1365e-06 0.0005 5.23599e-07 
171 1 0.0214 0.019293 0.016743 0.0052975 -0.0205867 0.00485068 -5.98918e-08 1.35934e-06 -2.84764e-06 0.0005 5.23599e-07 
172 1 0.0240955 0.0206714 0.0163708 -0.00276188 0.0197086 -0.00483037 0.000166039 -0.000128879 1.76899e-05 0.0005 5.23599e-07 
173 1 0.0214049 0.0155582 0.0154255 -0.0249141 -0.0120275 -0.0196706 0 0 -5.1365e-06 0.0005 5.23599e-07 
174 1 0.0205112 0.0200894 0.0170432 0.0152274 0.0394909 0.054224 0 0 -5.1365e-06 0.0005 5.23599e-07 
175 1 0.0192439 0.0216996 0.0150701 -0.0105121 -0.0260949 0.0308265 -5.85553e-06 -5.65257e-05 -6.72039e-05 0.0005 5.23599e-07 
176 1 0.0190611 0.0224072 0.0143765 0.00199006 -0.0173799 0.0303659 0.000234289 0.000915173 -0.000128754 0.0005 5.23599e-07 
177 1 0.0184135 0.0207511 0.0168917 -0.00977424 0.00930099 0.0323006 0 0 -5.1365e-06 0.0005 5.23599e-07 
178 1 0.0183897 0.0213165 0.0160447 0.0409475 -0.0237358 0.00450613 1.56884e-05 -0.000115028 0.000247036 0.0005 5.23599e-07 
179 1 0.023341 0.0216974 0.0151595 0.00244016 0.0146387 -0.00267744 -1.49569e-06 3.85308e-05 -2.44559e-05 0.0005 5.23599e-07 
180 1 0.0163311 0.0221856 0.0157572 0.0113006 0.00577566 -0.0101474 -1.4735e-06 5.81651e-06 6.6646e-07 0.0005 5.23599e-07 
181 1 0.0193392 0.0208717 0.0156232 -0.0333417 -0.0242033 0.0839408 0 0 -5.1365e-06 0.0005 5.23599e-07 
182 1 0.0181526 0.0229593 0.0175951 -0.0132408 -0.0424264 -0.000245892 0 0 -5.1365e-06 0.0005 5.23599e-07 
183 1 0.0157261 0.0145429 0.0142073 0.00435115 -0.00579276 0.0043388 7.22532e-07 1.0703e-06 -3.52615e-06 0.0005 5.23599e-07 
184 1 0.0253852 0.0206028 0.0156775 -0.0123395 0.0105552 -0.000153215 -6.21307e-05 -6.62582e-05 -0.000103994 0.0005 5.23599e-07 
185 1 0.017075 0.0201956 0.0168942 -0.0908361 -0.0136284 -0.0767849 0 0 -5.1365e-06 0.0005 5.23599e-07 
186 1 0.0245029 0.0199669 0.0170816 0.011483 0.000542579 -0.00243491 0 0 -5.1365e-06 0.0005 5.23599e-07 
187 1 0.0259882 0.018593 0.0169137 -0.0163446 -0.00758129 0.00802448 0 0 -5.1365e-06 0.0005 5.23599e-07 
188 1 0.0168765 0.0233774 0.0156446 0.00889934 -0.0109773 -0.0109445 0 0 -5.1365e-06 0.0005 5.23599e-07 
189 1 0.0229718 0.0197558 0.0174613 0.0172026 -0.00506597 -0.0130159 4.14541e-05 -4.21728e-05 2.71783e-05 0.0005 5.23599e-07 
190 1 0.0206284 0.0240472 0.0166659 0.0156164 0.00042369 0.0131665 -1.409e-05 -2.22388e-05 -1.39699e-05 0.0005 5.23599e-07 
