# vtk DataFile Version 3.0
LIGGGHTS particles timestep 1000000
ASCII
DATASET POLYDATA
POINTS 482 float
0.0219228 0.0230168 0.0150477
0.0187871 0.0149147 0.0131275
0.0126465 0.0180358 0.0158344
0.01783 0.0148368 0.0128495
0.024896 0.0167426 0.015316
0.0174136 0.0158287 0.0145591
0.0178335 0.0142491 0.0135936
0.0250658 0.0218781 0.0165104
0.0216481 0.0240647 0.0137013
0.0182631 0.0240764 0.0129047
0.0153947 0.0226812 0.0154891
0.0199658 0.0190571 0.00717941
0.0173293 0.0240464 0.0132098
0.0211946 0.0234319 0.0119945
0.0230188 0.0173471 0.0156088
0.0185904 0.0137571 0.0139072
0.0218782 0.0239 0.0147052
0.0207169 0.0236172 0.014901
0.0192851 0.0175351 0.00754817
0.0234749 0.0155164 0.014408
0.0198692 0.0230651 0.0149329
0.022705 0.0187992 0.0159356
0.0181796 0.0244396 0.0138072
0.023258 0.0164251 0.0150855
0.0224567 0.0175183 0.0170651
0.01928 0.0238717 0.0147927
0.0199643 0.0244652 0.0135949
0.0211894 0.014183 0.0134577
0.0175027 0.0229505 0.0140703
0.0207693 0.0242253 0.0141103
0.0197595 0.0199626 0.00730073
0.0217016 0.0233994 0.0111435
0.0241852 0.0160035 0.0149521
0.020849 0.0232447 0.0104589
0.0222894 0.0231952 0.0130932
0.0207839 0.0240606 0.0131489
0.0234673 0.0174056 0.0165475
0.0196063 0.0147661 0.0136819
0.0265094 0.0226448 0.00908693
0.0238385 0.0227725 0.0152661
0.0167232 0.0240775 0.0139834
0.0234983 0.0147994 0.0152821
0.0150198 0.0232296 0.0147449
0.0187752 0.0152343 0.0150771
0.0236012 0.0151917 0.013461
0.0205793 0.0234598 0.0158783
0.0163103 0.0177075 0.0166286
0.0239972 0.0170998 0.0155959
0.0187056 0.0146224 0.0119369
0.0231651 0.0233089 0.0147162
0.0157685 0.0223078 0.016337
0.0207612 0.0229112 0.009554
0.0243701 0.0149699 0.0101598
0.0213898 0.0232634 0.0128863
0.0244972 0.0221849 0.0157565
0.0260989 0.0212509 0.0078482
0.0181722 0.0235881 0.0141093
0.0190021 0.0165633 0.0079788
0.0131495 0.0215818 0.0193183
0.0187725 0.0157472 0.00871446
0.0176205 0.0152384 0.0137809
0.0224969 0.0235592 0.0139816
0.0236327 0.0218844 0.0155006
0.0202729 0.0140552 0.0130529
0.0195364 0.0136636 0.0136017
0.0222935 0.0240617 0.0182488
0.0238652 0.0219354 0.0164771
0.0246781 0.020899 0.01817
0.0193181 0.0241155 0.0129209
0.0250662 0.0169187 0.00775254
0.0176701 0.0230841 0.0151447
0.0201522 0.0146894 0.0145197
0.0174049 0.0201123 0.0159373
0.0190745 0.0237948 0.0138172
0.0183428 0.0238465 0.0188346
0.0204146 0.0224619 0.0155268
0.0165893 0.022783 0.0139148
0.0228054 0.020504 0.0165897
0.0213216 0.0177203 0.0173876
0.0230034 0.02237 0.0144694
0.0158059 0.0235593 0.0152598
0.0212312 0.0238937 0.0169779
0.0233377 0.0174725 0.0200936
0.0234085 0.0172243 0.0182371
0.0204412 0.0137937 0.0140064
0.0129629 0.0170032 0.0209021
0.0229061 0.0146653 0.014488
0.0222747 0.0207359 0.0158127
0.0168812 0.0221312 0.0148432
0.0223556 0.0228644 0.0163862
0.0184801 0.0168792 0.0162948
0.0164936 0.0197328 0.0159109
0.0199944 0.0236197 0.0141091
0.0175645 0.023057 0.0163767
0.0179161 0.0172035 0.0155379
0.0193318 0.0234256 0.0158201
0.0187423 0.0177381 0.0157507
0.0142325 0.0228101 0.0151963
0.0251272 0.0205909 0.019032
0.01805 0.0207119 0.0175921
0.0226983 0.0222189 0.0154817
0.0169617 0.0175637 0.0157025
0.0212726 0.0234452 0.014075
0.0183732 0.0244083 0.0172086
0.0175951 0.0220187 0.0181274
0.0183319 0.0161054 0.0148461
0.0156241 0.0230578 0.0135204
0.0163043 0.0250587 0.0204942
0.0247931 0.0178957 0.0157878
0.0219806 0.0227691 0.0139343
0.0170485 0.0236139 0.0157226
0.0184245 0.0196917 0.0159391
0.0138608 0.0213608 0.0163074
0.0159083 0.023616 0.0142829
0.0174252 0.0239332 0.0146792
0.0183857 0.0237047 0.0156032
0.0192116 0.0155271 0.0142265
0.0220491 0.0221603 0.0146552
0.0242985 0.0201501 0.0158058
0.0224766 0.0197836 0.0159983
0.0246666 0.0159389 0.0158719
0.0199557 0.0228416 0.0163555
0.0214124 0.0223125 0.0156645
0.0220699 0.0144321 0.0150159
0.0220569 0.0144194 0.0140152
0.0125152 0.0190319 0.0159749
0.0229941 0.0231038 0.0156488
0.0251018 0.0182011 0.0172625
0.0138235 0.0222947 0.0159509
0.0236318 0.018096 0.0158441
0.0186432 0.0231037 0.0148466
0.019308 0.0224675 0.0155059
0.0215732 0.0233665 0.0159165
0.0237578 0.0155246 0.0159201
0.026118 0.0193194 0.01726
0.0233465 0.0208567 0.0173798
0.0197156 0.0146232 0.0119356
0.0230657 0.0213935 0.0162753
0.0220327 0.0215469 0.015355
0.0167395 0.023214 0.0148035
0.0248593 0.0198051 0.0181008
0.0256782 0.0175226 0.0167179
0.0235662 0.0194661 0.0159296
0.0147763 0.0220009 0.0158813
0.0216022 0.0245538 0.019019
0.0200759 0.0156087 0.0155282
0.0192469 0.016089 0.0158905
0.0183703 0.0227115 0.0157518
0.0219676 0.0156871 0.0160072
0.0199278 0.0241498 0.0162405
0.0196579 0.021884 0.0162426
0.017482 0.0147619 0.0161464
0.018839 0.0248146 0.018033
0.0166079 0.0206641 0.0162759
0.0184896 0.0148476 0.0140786
0.00961482 0.0156783 0.041379
0.0146428 0.018035 0.0171996
0.0168601 0.0238939 0.0166659
0.016186 0.0210776 0.0154697
0.0239079 0.0209817 0.015508
0.0155423 0.0213373 0.0162774
0.0182088 0.0206295 0.0156924
0.0181319 0.0221816 0.0167874
0.023438 0.0163311 0.0176204
0.0257899 0.0200601 0.0166552
0.0175077 0.0235226 0.0181781
0.0165713 0.0218858 0.0159134
0.0171802 0.0209914 0.0155231
0.0178122 0.0222151 0.0146148
0.0180021 0.0214844 0.0152474
0.0154376 0.0212304 0.0172654
0.0159635 0.0219718 0.0150829
0.0232543 0.0215073 0.0182115
0.0157687 0.0225033 0.014278
0.0221511 0.0147729 0.0166181
0.0233347 0.0164848 0.0161036
0.0245375 0.0192246 0.0159253
0.0193664 0.0245229 0.0172184
0.0131269 0.0194583 0.0189743
0.0213513 0.0216945 0.0169595
0.0229364 0.0212851 0.0153078
0.0199773 0.0217319 0.0171779
0.0258996 0.0184975 0.0167299
0.0230158 0.0195898 0.0167717
0.0161453 0.0232026 0.0165697
0.022636 0.0147918 0.0174964
0.0165148 0.020335 0.0187044
0.0168349 0.0146629 0.0145168
0.0205004 0.0208588 0.0173379
0.0242473 0.016579 0.0165611
0.0195992 0.0146098 0.0153502
0.0225888 0.015283 0.0152425
0.0188858 0.0136559 0.0171542
0.0206271 0.0147203 0.0154184
0.0188273 0.0168228 0.0153596
0.0254847 0.0209818 0.0164143
0.0211447 0.0146362 0.0143708
0.0174793 0.0222589 0.0157307
0.018803 0.0142679 0.0148272
0.0180605 0.0203798 0.0166488
0.0252299 0.0166892 0.0163833
0.0243106 0.0182933 0.0166224
0.0168262 0.0141772 0.013609
0.0203438 0.0181627 0.0171135
0.0199097 0.0247972 0.0181477
0.0177082 0.0141008 0.0145558
0.0207523 0.0171011 0.0167037
0.0231805 0.02038 0.0157114
0.0233834 0.0188607 0.0179039
0.0171047 0.0222138 0.0166939
0.0157322 0.0159948 0.0164632
0.0184647 0.0157058 0.0175712
0.0190015 0.0225947 0.0165172
0.0180055 0.0180287 0.0173928
0.0157516 0.0189904 0.0168729
0.0235161 0.0230341 0.0188241
0.0145506 0.0206665 0.0165101
0.0221633 0.0218753 0.0163069
0.012318 0.0197719 0.0167255
0.0251577 0.0189339 0.0185442
0.0198767 0.0209507 0.0165264
0.012964 0.0170859 0.015962
0.0243337 0.0218776 0.018342
0.0162858 0.0198496 0.0169147
0.0156994 0.0150944 0.0153666
0.012953 0.0209524 0.0163855
0.0173235 0.0183809 0.0167498
0.019403 0.0234515 0.016942
0.0180165 0.0146209 0.0153319
0.0237651 0.0204812 0.0165319
0.0163738 0.0228332 0.015653
0.0244513 0.021152 0.0163191
0.0145817 0.0184369 0.0226362
0.0237041 0.0195175 0.0174111
0.0174073 0.0242463 0.0174248
0.0203447 0.0243357 0.0171319
0.0171761 0.0153393 0.0153938
0.0192456 0.0183237 0.0167113
0.0252096 0.0192204 0.0167518
0.0146617 0.0216768 0.01682
0.018481 0.0236272 0.0178406
0.0144063 0.0152004 0.0150634
0.0192117 0.015047 0.0178397
0.0177585 0.018967 0.0179831
0.0182909 0.0221515 0.018885
0.02368 0.0221271 0.0175531
0.0243675 0.0167617 0.01857
0.0244073 0.0174213 0.0174071
0.0221809 0.0235822 0.0170654
0.0174307 0.0199238 0.0177794
0.0198023 0.0174261 0.0165143
0.0176029 0.0191376 0.015997
0.0189241 0.0151517 0.0160792
0.0248431 0.0203005 0.0166077
0.0166645 0.0156703 0.0166092
0.0214301 0.0152781 0.0151714
0.018809 0.0174695 0.0170324
0.0229061 0.0229431 0.0173189
0.0172096 0.0165787 0.0151955
0.0200485 0.0159015 0.0164857
0.0210738 0.0243687 0.0181392
0.0159728 0.014442 0.0140601
0.0141257 0.0204821 0.0175022
0.0151707 0.0147761 0.014576
0.0174413 0.0154297 0.017717
0.0242712 0.0195624 0.0167301
0.0187188 0.0141884 0.0158944
0.0177873 0.0214151 0.0162215
0.0163298 0.0158127 0.0156736
0.0150239 0.0157756 0.0156611
0.0163595 0.0214209 0.0169258
0.0192874 0.0200433 0.0166543
0.00666255 0.0140596 0.0430117
0.0202488 0.0150675 0.0170094
0.0166918 0.0187542 0.0160733
0.0195592 0.0128068 0.0195866
0.0188232 0.013149 0.0182229
0.0171506 0.0133362 0.0198888
0.0171102 0.0193052 0.017062
0.0220959 0.0230541 0.0182503
0.0212233 0.0147725 0.0162289
0.0176846 0.0188755 0.0190252
0.0164415 0.0239489 0.017572
0.0209685 0.0184501 0.0192936
0.022803 0.0155511 0.0166229
0.0177717 0.0253994 0.0205326
0.0136111 0.0173847 0.0199159
0.01491 0.0232514 0.0198871
0.0193454 0.0165502 0.0167769
0.0206452 0.0215008 0.0161548
0.0171895 0.0206059 0.0170865
0.0215338 0.0222782 0.0185604
0.0119698 0.0245227 0.0257708
0.0192118 0.0223367 0.017462
0.0198448 0.0191837 0.0167291
0.0143425 0.0171484 0.0168193
0.0152377 0.0243718 0.0203968
0.0211346 0.0142707 0.0170933
0.0159603 0.0231913 0.0185292
0.0245654 0.0189559 0.017663
0.0218572 0.0141769 0.017931
0.0136404 0.0257573 0.0255909
0.0224764 0.017528 0.0191296
0.0242326 0.021325 0.0172839
0.0178279 0.0240226 0.0164532
0.0209161 0.0192709 0.0167567
0.014366 0.0189803 0.016752
0.0225422 0.0164315 0.0171662
0.0154118 0.0222424 0.0184496
0.0173723 0.014013 0.0169512
0.0193698 0.0204871 0.0200379
0.0168277 0.0121184 0.0217354
0.0224 0.0140862 0.0190282
0.0223429 0.0166141 0.0161982
0.0199959 0.0144059 0.0162451
0.0158979 0.024183 0.0183817
0.0218771 0.0211211 0.0204316
0.0219828 0.0196471 0.0168779
0.0176176 0.0174763 0.0164505
0.0208517 0.0224203 0.0164881
0.0154059 0.0222514 0.017275
0.0188672 0.0209378 0.0164562
0.0165708 0.016465 0.0193643
0.0189046 0.0190587 0.0172971
0.018702 0.0217935 0.0159651
0.0204897 0.0235514 0.021325
0.0188816 0.0241104 0.0163996
0.0186259 0.0187133 0.0159336
0.0209627 0.0159693 0.0158453
0.0200959 0.0196808 0.0176211
0.0185536 0.0159224 0.0165962
0.0133 0.0188776 0.0167423
0.0148892 0.0167961 0.017761
0.0137672 0.0157825 0.0156026
0.0189191 0.0250218 0.0203708
0.0196392 0.023742 0.017874
0.0227709 0.0201594 0.0178562
0.0214937 0.0135377 0.0187906
0.016904 0.0230525 0.0172106
0.0242746 0.0203398 0.0174462
0.0232709 0.0146169 0.0188463
0.0218698 0.0212128 0.0177413
0.0152171 0.0169669 0.0163332
0.0135951 0.0178022 0.0165903
0.0158567 0.0231094 0.0175222
0.0257788 0.023847 0.0294797
0.0212302 0.0233783 0.0178343
0.0212089 0.0150645 0.0177288
0.0155652 0.0143362 0.0184794
0.021212 0.0201568 0.017318
0.0207679 0.0137468 0.017936
0.0210778 0.0155931 0.0167826
0.0240208 0.018243 0.0204128
0.0184221 0.0135911 0.0212505
0.0215806 0.0165334 0.0168755
0.0154842 0.0196805 0.0189907
0.0178851 0.024639 0.018298
0.0314174 0.0339104 0.049804
0.0192641 0.0146774 0.0169196
0.0239779 0.0199819 0.0185715
0.0189831 0.0128122 0.0265433
0.0184093 0.0233213 0.0168637
0.0147958 0.0194896 0.0208864
0.0135339 0.0179442 0.0175796
0.019666 0.0175118 0.0175546
0.0202548 0.0213854 0.0182759
0.0228175 0.0219646 0.0170728
0.0239602 0.0153911 0.0195518
0.0197509 0.0135 0.0179437
0.0201871 0.0156057 0.0182173
0.0167602 0.0166623 0.0160898
0.0182623 0.0145134 0.0167306
0.0198765 0.0185248 0.0183161
0.0180838 0.0193984 0.0168385
0.0188169 0.0228729 0.0184037
0.0232981 0.0164325 0.0188543
0.0201222 0.0139826 0.0171448
0.0214276 0.0370676 0.0631956
0.0215499 0.0206169 0.0164954
0.0180611 0.0157567 0.015742
0.0140253 0.0177292 0.0185841
0.0182299 0.0170054 0.0200308
0.0212867 0.0160749 0.0177941
0.0190218 0.0213458 0.017357
0.023358 0.020559 0.0195756
0.0231891 0.018354 0.0168602
0.0232884 0.0153805 0.0181548
0.0211645 0.014497 0.0185804
0.021608 0.0227642 0.0170429
0.0203102 0.0170933 0.0182184
0.0178261 0.0228209 0.0175307
0.0171944 0.00662866 0.0362662
0.0200777 0.020422 0.0210371
0.0146983 0.0165662 0.0211059
0.0238835 0.0210033 0.0188418
0.0143251 0.0164559 0.0160886
0.0140938 0.0193815 0.0192347
0.0189318 0.0181647 0.0177497
0.0153356 0.0208744 0.0197912
0.0176556 0.0155103 0.0167614
0.0248907 0.0178083 0.0182676
0.02049 0.0232454 0.0171638
0.0207929 0.0204212 0.0183
0.0148844 0.0162113 0.0169485
-0.0107431 0.0383232 0.04816
0.020319 0.0200737 0.0167088
0.0176105 0.0164896 0.0165905
0.0212732 0.0126826 0.0203051
0.0171592 0.0174096 0.0173361
0.0131677 0.0186669 0.0181931
0.0221301 0.0205827 0.0171974
0.0155067 0.0203981 0.0166161
0.0204476 0.0223496 0.0190891
0.0156023 0.0242322 0.0274797
0.0166413 0.0186322 0.0202089
0.014637 0.01858 0.0202414
0.0194485 0.0199636 0.0184757
0.0210245 0.0190219 0.0178364
0.0175881 0.0149779 0.0201034
0.0156219 0.0205267 0.0215005
0.0169961 0.021251 0.0294662
0.0208538 0.0167769 0.0213791
0.0188468 0.0200939 0.0176148
0.0179156 0.0164987 0.0185762
0.0215365 0.0211943 0.0185466
0.0234083 0.0203464 0.0206211
0.0199524 0.0166701 0.020391
0.0204962 0.0256691 0.0218077
0.0183693 0.0181833 0.0186345
0.0231263 0.0190181 0.0187349
0.0150582 0.0170799 0.0200982
0.0197232 0.0224588 0.018327
0.0182333 0.0181926 0.0213958
0.0219791 0.015519 0.0172759
0.017029 0.0209151 0.0180307
0.0177658 0.0165649 0.0175886
0.0216618 0.0197021 0.0186277
0.0180981 0.0234307 0.020891
0.0151734 0.0210431 0.0186082
0.0168922 0.0224148 0.0221166
0.019821 0.0193295 0.0214982
0.022325 0.0165453 0.023736
0.0222842 0.0161102 0.0181148
0.0191856 0.0222351 0.0212852
0.0175541 0.0215194 0.0172629
0.0201308 0.020888 0.0233343
0.0206263 0.0222351 0.0177729
0.0224156 0.0190947 0.0177817
0.0160767 0.0176133 0.0187321
0.0153013 0.021121 0.022249
0.0205578 0.01901 0.0200265
0.0176245 0.0164399 0.0215088
0.0212188 0.0185762 0.0231385
0.0156118 0.0186451 0.0235633
0.0181653 0.0185053 0.0226909
0.0160221 0.0211284 0.0180703
0.0224069 0.0217344 0.018953
0.0222553 0.0188809 0.0193893
0.0177909 0.0201803 0.0241175
0.0173549 0.0152414 0.018678
0.01818 0.0203917 0.018563
0.0214107 0.0235575 0.0188506
0.0155246 0.0176385 0.0174714
0.0201212 0.0164772 0.0173929
0.0203691 0.0233749 0.0184818
0.0230882 0.0145079 0.0198444
0.020079 0.0133837 0.0233404
0.0190241 0.0143379 0.0206168
0.0220741 0.0221925 0.0177175
0.0183899 0.0143518 0.0177439
0.019091 0.01504 0.0188979
0.017376 0.021725 0.0195909
0.0204892 0.0195226 0.0186211
0.0223043 0.0180759 0.0181168
0.0214622 0.0169128 0.0190664
0.0182766 0.0110218 0.0242085
0.0176586 0.0231518 0.019521
0.0202782 0.0146286 0.0179347
0.0170226 0.0118747 0.0235633
0.0186705 0.0193256 0.0182354
0.0174405 0.0175934 0.0205676
0.0196651 0.0158 0.0207745

VERTICES 482 964
1 0
1 1
1 2
1 3
1 4
1 5
1 6
1 7
1 8
1 9
1 10
1 11
1 12
1 13
1 14
1 15
1 16
1 17
1 18
1 19
1 20
1 21
1 22
1 23
1 24
1 25
1 26
1 27
1 28
1 29
1 30
1 31
1 32
1 33
1 34
1 35
1 36
1 37
1 38
1 39
1 40
1 41
1 42
1 43
1 44
1 45
1 46
1 47
1 48
1 49
1 50
1 51
1 52
1 53
1 54
1 55
1 56
1 57
1 58
1 59
1 60
1 61
1 62
1 63
1 64
1 65
1 66
1 67
1 68
1 69
1 70
1 71
1 72
1 73
1 74
1 75
1 76
1 77
1 78
1 79
1 80
1 81
1 82
1 83
1 84
1 85
1 86
1 87
1 88
1 89
1 90
1 91
1 92
1 93
1 94
1 95
1 96
1 97
1 98
1 99
1 100
1 101
1 102
1 103
1 104
1 105
1 106
1 107
1 108
1 109
1 110
1 111
1 112
1 113
1 114
1 115
1 116
1 117
1 118
1 119
1 120
1 121
1 122
1 123
1 124
1 125
1 126
1 127
1 128
1 129
1 130
1 131
1 132
1 133
1 134
1 135
1 136
1 137
1 138
1 139
1 140
1 141
1 142
1 143
1 144
1 145
1 146
1 147
1 148
1 149
1 150
1 151
1 152
1 153
1 154
1 155
1 156
1 157
1 158
1 159
1 160
1 161
1 162
1 163
1 164
1 165
1 166
1 167
1 168
1 169
1 170
1 171
1 172
1 173
1 174
1 175
1 176
1 177
1 178
1 179
1 180
1 181
1 182
1 183
1 184
1 185
1 186
1 187
1 188
1 189
1 190
1 191
1 192
1 193
1 194
1 195
1 196
1 197
1 198
1 199
1 200
1 201
1 202
1 203
1 204
1 205
1 206
1 207
1 208
1 209
1 210
1 211
1 212
1 213
1 214
1 215
1 216
1 217
1 218
1 219
1 220
1 221
1 222
1 223
1 224
1 225
1 226
1 227
1 228
1 229
1 230
1 231
1 232
1 233
1 234
1 235
1 236
1 237
1 238
1 239
1 240
1 241
1 242
1 243
1 244
1 245
1 246
1 247
1 248
1 249
1 250
1 251
1 252
1 253
1 254
1 255
1 256
1 257
1 258
1 259
1 260
1 261
1 262
1 263
1 264
1 265
1 266
1 267
1 268
1 269
1 270
1 271
1 272
1 273
1 274
1 275
1 276
1 277
1 278
1 279
1 280
1 281
1 282
1 283
1 284
1 285
1 286
1 287
1 288
1 289
1 290
1 291
1 292
1 293
1 294
1 295
1 296
1 297
1 298
1 299
1 300
1 301
1 302
1 303
1 304
1 305
1 306
1 307
1 308
1 309
1 310
1 311
1 312
1 313
1 314
1 315
1 316
1 317
1 318
1 319
1 320
1 321
1 322
1 323
1 324
1 325
1 326
1 327
1 328
1 329
1 330
1 331
1 332
1 333
1 334
1 335
1 336
1 337
1 338
1 339
1 340
1 341
1 342
1 343
1 344
1 345
1 346
1 347
1 348
1 349
1 350
1 351
1 352
1 353
1 354
1 355
1 356
1 357
1 358
1 359
1 360
1 361
1 362
1 363
1 364
1 365
1 366
1 367
1 368
1 369
1 370
1 371
1 372
1 373
1 374
1 375
1 376
1 377
1 378
1 379
1 380
1 381
1 382
1 383
1 384
1 385
1 386
1 387
1 388
1 389
1 390
1 391
1 392
1 393
1 394
1 395
1 396
1 397
1 398
1 399
1 400
1 401
1 402
1 403
1 404
1 405
1 406
1 407
1 408
1 409
1 410
1 411
1 412
1 413
1 414
1 415
1 416
1 417
1 418
1 419
1 420
1 421
1 422
1 423
1 424
1 425
1 426
1 427
1 428
1 429
1 430
1 431
1 432
1 433
1 434
1 435
1 436
1 437
1 438
1 439
1 440
1 441
1 442
1 443
1 444
1 445
1 446
1 447
1 448
1 449
1 450
1 451
1 452
1 453
1 454
1 455
1 456
1 457
1 458
1 459
1 460
1 461
1 462
1 463
1 464
1 465
1 466
1 467
1 468
1 469
1 470
1 471
1 472
1 473
1 474
1 475
1 476
1 477
1 478
1 479
1 480
1 481

POINT_DATA 482
SCALARS id int 1
LOOKUP_TABLE default
1
2
3
4
5
6
7
8
9
10
11
12
13
14
15
16
17
18
19
20
21
22
23
24
25
26
27
28
29
30
31
32
33
34
35
36
37
38
39
40
41
42
43
44
45
46
47
48
49
50
51
52
53
54
55
56
57
58
59
60
61
62
63
64
65
66
67
68
69
70
71
72
73
74
75
76
77
78
79
80
81
82
83
84
85
86
87
88
89
90
91
92
93
94
95
96
97
98
99
100
101
102
103
104
105
106
107
108
109
110
111
112
113
114
115
116
117
118
119
120
121
122
123
124
125
126
127
128
129
130
131
132
133
134
135
136
137
138
139
140
141
142
143
144
145
146
147
148
149
150
151
153
154
155
156
157
159
160
161
162
163
164
165
166
168
169
170
171
172
173
174
175
176
177
178
179
180
181
182
183
184
186
187
188
189
190
191
192
193
194
195
196
197
198
200
201
202
203
204
205
206
207
208
209
210
211
212
213
214
215
216
217
219
220
221
222
223
225
226
227
228
229
230
231
232
233
234
235
236
238
239
240
241
242
243
244
245
246
247
248
249
250
251
252
253
254
255
256
257
259
260
261
262
264
265
266
267
268
269
270
271
272
273
274
275
276
277
278
279
280
281
282
283
284
286
287
288
289
290
291
292
293
294
295
296
297
298
299
300
301
302
303
304
305
306
307
308
309
310
311
312
313
314
315
316
317
318
319
320
321
323
324
325
326
327
328
329
330
331
332
333
334
335
336
337
338
339
340
341
342
343
344
345
346
347
348
349
350
351
352
353
354
355
356
357
358
359
360
361
362
363
364
365
366
367
368
369
370
371
372
373
374
377
378
379
380
381
382
383
384
385
386
387
388
389
390
391
392
394
395
396
397
398
399
400
401
402
403
404
405
406
407
408
409
410
411
412
413
415
416
417
418
419
420
422
423
424
425
426
427
428
429
430
431
433
434
435
436
437
439
440
441
442
443
444
445
446
447
448
449
450
451
452
453
454
455
456
457
458
459
460
461
462
463
464
465
466
467
468
469
470
471
472
473
474
475
476
477
478
479
480
481
482
483
484
485
486
487
488
489
490
491
492
493
494
495
496
497
498
499
500
501

SCALARS type int 1
LOOKUP_TABLE default
1
1
1
1
1
1
1
1
1
1
1
1
1
1
1
1
1
1
1
1
1
1
1
1
1
1
1
1
1
1
1
1
1
1
1
1
1
1
1
1
1
1
1
1
1
1
1
1
1
1
1
1
1
1
1
1
1
1
1
1
1
1
1
1
1
1
1
1
1
1
1
1
1
1
1
1
1
1
1
1
1
1
1
1
1
1
1
1
1
1
1
1
1
1
1
1
1
1
1
1
1
1
1
1
1
1
1
1
1
1
1
1
1
1
1
1
1
1
1
1
1
1
1
1
1
1
1
1
1
1
1
1
1
1
1
1
1
1
1
1
1
1
1
1
1
1
1
1
1
1
1
1
1
1
1
1
1
1
1
1
1
1
1
1
1
1
1
1
1
1
1
1
1
1
1
1
1
1
1
1
1
1
1
1
1
1
1
1
1
1
1
1
1
1
1
1
1
1
1
1
1
1
1
1
1
1
1
1
1
1
1
1
1
1
1
1
1
1
1
1
1
1
1
1
1
1
1
1
1
1
1
1
1
1
1
1
1
1
1
1
1
1
1
1
1
1
1
1
1
1
1
1
1
1
1
1
1
1
1
1
1
1
1
1
1
1
1
1
1
1
1
1
1
1
1
1
1
1
1
1
1
1
1
1
1
1
1
1
1
1
1
1
1
1
1
1
1
1
1
1
1
1
1
1
1
1
1
1
1
1
1
1
1
1
1
1
1
1
1
1
1
1
1
1
1
1
1
1
1
1
1
1
1
1
1
1
1
1
1
1
1
1
1
1
1
1
1
1
1
1
1
1
1
1
1
1
1
1
1
1
1
1
1
1
1
1
1
1
1
1
1
1
1
1
1
1
1
1
1
1
1
1
1
1
1
1
1
1
1
1
1
1
1
1
1
1
1
1
1
1
1
1
1
1
1
1
1
1
1
1
1
1
1
1
1
1
1
1
1
1
1
1
1
1
1
1
1
1
1
1
1
1
1
1
1
1
1
1
1
1
1
1
1
1
1
1
1
1
1
1
1
1
1
1
1
1
1
1
1
1
1
1
1
1
1
1
1
1
1
1
1
1
1
1
1
1
1
1
1
1
1
1

SCALARS radius float 1
LOOKUP_TABLE default
0.0005
0.0005
0.0005
0.0005
0.0005
0.0005
0.0005
0.0005
0.0005
0.0005
0.0005
0.0005
0.0005
0.0005
0.0005
0.0005
0.0005
0.0005
0.0005
0.0005
0.0005
0.0005
0.0005
0.0005
0.0005
0.0005
0.0005
0.0005
0.0005
0.0005
0.0005
0.0005
0.0005
0.0005
0.0005
0.0005
0.0005
0.0005
0.0005
0.0005
0.0005
0.0005
0.0005
0.0005
0.0005
0.0005
0.0005
0.0005
0.0005
0.0005
0.0005
0.0005
0.0005
0.0005
0.0005
0.0005
0.0005
0.0005
0.0005
0.0005
0.0005
0.0005
0.0005
0.0005
0.0005
0.0005
0.0005
0.0005
0.0005
0.0005
0.0005
0.0005
0.0005
0.0005
0.0005
0.0005
0.0005
0.0005
0.0005
0.0005
0.0005
0.0005
0.0005
0.0005
0.0005
0.0005
0.0005
0.0005
0.0005
0.0005
0.0005
0.0005
0.0005
0.0005
0.0005
0.0005
0.0005
0.0005
0.0005
0.0005
0.0005
0.0005
0.0005
0.0005
0.0005
0.0005
0.0005
0.0005
0.0005
0.0005
0.0005
0.0005
0.0005
0.0005
0.0005
0.0005
0.0005
0.0005
0.0005
0.0005
0.0005
0.0005
0.0005
0.0005
0.0005
0.0005
0.0005
0.0005
0.0005
0.0005
0.0005
0.0005
0.0005
0.0005
0.0005
0.0005
0.0005
0.0005
0.0005
0.0005
0.0005
0.0005
0.0005
0.0005
0.0005
0.0005
0.0005
0.0005
0.0005
0.0005
0.0005
0.0005
0.0005
0.0005
0.0005
0.0005
0.0005
0.0005
0.0005
0.0005
0.0005
0.0005
0.0005
0.0005
0.0005
0.0005
0.0005
0.0005
0.0005
0.0005
0.0005
0.0005
0.0005
0.0005
0.0005
0.0005
0.0005
0.0005
0.0005
0.0005
0.0005
0.0005
0.0005
0.0005
0.0005
0.0005
0.0005
0.0005
0.0005
0.0005
0.0005
0.0005
0.0005
0.0005
0.0005
0.0005
0.0005
0.0005
0.0005
0.0005
0.0005
0.0005
0.0005
0.0005
0.0005
0.0005
0.0005
0.0005
0.0005
0.0005
0.0005
0.0005
0.0005
0.0005
0.0005
0.0005
0.0005
0.0005
0.0005
0.0005
0.0005
0.0005
0.0005
0.0005
0.0005
0.0005
0.0005
0.0005
0.0005
0.0005
0.0005
0.0005
0.0005
0.0005
0.0005
0.0005
0.0005
0.0005
0.0005
0.0005
0.0005
0.0005
0.0005
0.0005
0.0005
0.0005
0.0005
0.0005
0.0005
0.0005
0.0005
0.0005
0.0005
0.0005
0.0005
0.0005
0.0005
0.0005
0.0005
0.0005
0.0005
0.0005
0.0005
0.0005
0.0005
0.0005
0.0005
0.0005
0.0005
0.0005
0.0005
0.0005
0.0005
0.0005
0.0005
0.0005
0.0005
0.0005
0.0005
0.0005
0.0005
0.0005
0.0005
0.0005
0.0005
0.0005
0.0005
0.0005
0.0005
0.0005
0.0005
0.0005
0.0005
0.0005
0.0005
0.0005
0.0005
0.0005
0.0005
0.0005
0.0005
0.0005
0.0005
0.0005
0.0005
0.0005
0.0005
0.0005
0.0005
0.0005
0.0005
0.0005
0.0005
0.0005
0.0005
0.0005
0.0005
0.0005
0.0005
0.0005
0.0005
0.0005
0.0005
0.0005
0.0005
0.0005
0.0005
0.0005
0.0005
0.0005
0.0005
0.0005
0.0005
0.0005
0.0005
0.0005
0.0005
0.0005
0.0005
0.0005
0.0005
0.0005
0.0005
0.0005
0.0005
0.0005
0.0005
0.0005
0.0005
0.0005
0.0005
0.0005
0.0005
0.0005
0.0005
0.0005
0.0005
0.0005
0.0005
0.0005
0.0005
0.0005
0.0005
0.0005
0.0005
0.0005
0.0005
0.0005
0.0005
0.0005
0.0005
0.0005
0.0005
0.0005
0.0005
0.0005
0.0005
0.0005
0.0005
0.0005
0.0005
0.0005
0.0005
0.0005
0.0005
0.0005
0.0005
0.0005
0.0005
0.0005
0.0005
0.0005
0.0005
0.0005
0.0005
0.0005
0.0005
0.0005
0.0005
0.0005
0.0005
0.0005
0.0005
0.0005
0.0005
0.0005
0.0005
0.0005
0.0005
0.0005
0.0005
0.0005
0.0005
0.0005
0.0005
0.0005
0.0005
0.0005
0.0005
0.0005
0.0005
0.0005
0.0005
0.0005
0.0005
0.0005
0.0005
0.0005
0.0005
0.0005
0.0005
0.0005
0.0005
0.0005
0.0005
0.0005
0.0005
0.0005
0.0005
0.0005
0.0005
0.0005
0.0005
0.0005
0.0005
0.0005
0.0005
0.0005
0.0005
0.0005
0.0005
0.0005
0.0005
0.0005
0.0005
0.0005
0.0005
0.0005
0.0005
0.0005
0.0005
0.0005
0.0005
0.0005
0.0005
0.0005
0.0005
0.0005
0.0005
0.0005
0.0005
0.0005
0.0005
0.0005
0.0005
0.0005
0.0005
0.0005
0.0005
0.0005
0.0005
0.0005

SCALARS mass float 1
LOOKUP_TABLE default
5.23599e-07
5.23599e-07
5.23599e-07
5.23599e-07
5.23599e-07
5.23599e-07
5.23599e-07
5.23599e-07
5.23599e-07
5.23599e-07
5.23599e-07
5.23599e-07
5.23599e-07
5.23599e-07
5.23599e-07
5.23599e-07
5.23599e-07
5.23599e-07
5.23599e-07
5.23599e-07
5.23599e-07
5.23599e-07
5.23599e-07
5.23599e-07
5.23599e-07
5.23599e-07
5.23599e-07
5.23599e-07
5.23599e-07
5.23599e-07
5.23599e-07
5.23599e-07
5.23599e-07
5.23599e-07
5.23599e-07
5.23599e-07
5.23599e-07
5.23599e-07
5.23599e-07
5.23599e-07
5.23599e-07
5.23599e-07
5.23599e-07
5.23599e-07
5.23599e-07
5.23599e-07
5.23599e-07
5.23599e-07
5.23599e-07
5.23599e-07
5.23599e-07
5.23599e-07
5.23599e-07
5.23599e-07
5.23599e-07
5.23599e-07
5.23599e-07
5.23599e-07
5.23599e-07
5.23599e-07
5.23599e-07
5.23599e-07
5.23599e-07
5.23599e-07
5.23599e-07
5.23599e-07
5.23599e-07
5.23599e-07
5.23599e-07
5.23599e-07
5.23599e-07
5.23599e-07
5.23599e-07
5.23599e-07
5.23599e-07
5.23599e-07
5.23599e-07
5.23599e-07
5.23599e-07
5.23599e-07
5.23599e-07
5.23599e-07
5.23599e-07
5.23599e-07
5.23599e-07
5.23599e-07
5.23599e-07
5.23599e-07
5.23599e-07
5.23599e-07
5.23599e-07
5.23599e-07
5.23599e-07
5.23599e-07
5.23599e-07
5.23599e-07
5.23599e-07
5.23599e-07
5.23599e-07
5.23599e-07
5.23599e-07
5.23599e-07
5.23599e-07
5.23599e-07
5.23599e-07
5.23599e-07
5.23599e-07
5.23599e-07
5.23599e-07
5.23599e-07
5.23599e-07
5.23599e-07
5.23599e-07
5.23599e-07
5.23599e-07
5.23599e-07
5.23599e-07
5.23599e-07
5.23599e-07
5.23599e-07
5.23599e-07
5.23599e-07
5.23599e-07
5.23599e-07
5.23599e-07
5.23599e-07
5.23599e-07
5.23599e-07
5.23599e-07
5.23599e-07
5.23599e-07
5.23599e-07
5.23599e-07
5.23599e-07
5.23599e-07
5.23599e-07
5.23599e-07
5.23599e-07
5.23599e-07
5.23599e-07
5.23599e-07
5.23599e-07
5.23599e-07
5.23599e-07
5.23599e-07
5.23599e-07
5.23599e-07
5.23599e-07
5.23599e-07
5.23599e-07
5.23599e-07
5.23599e-07
5.23599e-07
5.23599e-07
5.23599e-07
5.23599e-07
5.23599e-07
5.23599e-07
5.23599e-07
5.23599e-07
5.23599e-07
5.23599e-07
5.23599e-07
5.23599e-07
5.23599e-07
5.23599e-07
5.23599e-07
5.23599e-07
5.23599e-07
5.23599e-07
5.23599e-07
5.23599e-07
5.23599e-07
5.23599e-07
5.23599e-07
5.23599e-07
5.23599e-07
5.23599e-07
5.23599e-07
5.23599e-07
5.23599e-07
5.23599e-07
5.23599e-07
5.23599e-07
5.23599e-07
5.23599e-07
5.23599e-07
5.23599e-07
5.23599e-07
5.23599e-07
5.23599e-07
5.23599e-07
5.23599e-07
5.23599e-07
5.23599e-07
5.23599e-07
5.23599e-07
5.23599e-07
5.23599e-07
5.23599e-07
5.23599e-07
5.23599e-07
5.23599e-07
5.23599e-07
5.23599e-07
5.23599e-07
5.23599e-07
5.23599e-07
5.23599e-07
5.23599e-07
5.23599e-07
5.23599e-07
5.23599e-07
5.23599e-07
5.23599e-07
5.23599e-07
5.23599e-07
5.23599e-07
5.23599e-07
5.23599e-07
5.23599e-07
5.23599e-07
5.23599e-07
5.23599e-07
5.23599e-07
5.23599e-07
5.23599e-07
5.23599e-07
5.23599e-07
5.23599e-07
5.23599e-07
5.23599e-07
5.23599e-07
5.23599e-07
5.23599e-07
5.23599e-07
5.23599e-07
5.23599e-07
5.23599e-07
5.23599e-07
5.23599e-07
5.23599e-07
5.23599e-07
5.23599e-07
5.23599e-07
5.23599e-07
5.23599e-07
5.23599e-07
5.23599e-07
5.23599e-07
5.23599e-07
5.23599e-07
5.23599e-07
5.23599e-07
5.23599e-07
5.23599e-07
5.23599e-07
5.23599e-07
5.23599e-07
5.23599e-07
5.23599e-07
5.23599e-07
5.23599e-07
5.23599e-07
5.23599e-07
5.23599e-07
5.23599e-07
5.23599e-07
5.23599e-07
5.23599e-07
5.23599e-07
5.23599e-07
5.23599e-07
5.23599e-07
5.23599e-07
5.23599e-07
5.23599e-07
5.23599e-07
5.23599e-07
5.23599e-07
5.23599e-07
5.23599e-07
5.23599e-07
5.23599e-07
5.23599e-07
5.23599e-07
5.23599e-07
5.23599e-07
5.23599e-07
5.23599e-07
5.23599e-07
5.23599e-07
5.23599e-07
5.23599e-07
5.23599e-07
5.23599e-07
5.23599e-07
5.23599e-07
5.23599e-07
5.23599e-07
5.23599e-07
5.23599e-07
5.23599e-07
5.23599e-07
5.23599e-07
5.23599e-07
5.23599e-07
5.23599e-07
5.23599e-07
5.23599e-07
5.23599e-07
5.23599e-07
5.23599e-07
5.23599e-07
5.23599e-07
5.23599e-07
5.23599e-07
5.23599e-07
5.23599e-07
5.23599e-07
5.23599e-07
5.23599e-07
5.23599e-07
5.23599e-07
5.23599e-07
5.23599e-07
5.23599e-07
5.23599e-07
5.23599e-07
5.23599e-07
5.23599e-07
5.23599e-07
5.23599e-07
5.23599e-07
5.23599e-07
5.23599e-07
5.23599e-07
5.23599e-07
5.23599e-07
5.23599e-07
5.23599e-07
5.23599e-07
5.23599e-07
5.23599e-07
5.23599e-07
5.23599e-07
5.23599e-07
5.23599e-07
5.23599e-07
5.23599e-07
5.23599e-07
5.23599e-07
5.23599e-07
5.23599e-07
5.23599e-07
5.23599e-07
5.23599e-07
5.23599e-07
5.23599e-07
5.23599e-07
5.23599e-07
5.23599e-07
5.23599e-07
5.23599e-07
5.23599e-07
5.23599e-07
5.23599e-07
5.23599e-07
5.23599e-07
5.23599e-07
5.23599e-07
5.23599e-07
5.23599e-07
5.23599e-07
5.23599e-07
5.23599e-07
5.23599e-07
5.23599e-07
5.23599e-07
5.23599e-07
5.23599e-07
5.23599e-07
5.23599e-07
5.23599e-07
5.23599e-07
5.23599e-07
5.23599e-07
5.23599e-07
5.23599e-07
5.23599e-07
5.23599e-07
5.23599e-07
5.23599e-07
5.23599e-07
5.23599e-07
5.23599e-07
5.23599e-07
5.23599e-07
5.23599e-07
5.23599e-07
5.23599e-07
5.23599e-07
5.23599e-07
5.23599e-07
5.23599e-07
5.23599e-07
5.23599e-07
5.23599e-07
5.23599e-07
5.23599e-07
5.23599e-07
5.23599e-07
5.23599e-07
5.23599e-07
5.23599e-07
5.23599e-07
5.23599e-07
5.23599e-07
5.23599e-07
5.23599e-07
5.23599e-07
5.23599e-07
5.23599e-07
5.23599e-07
5.23599e-07
5.23599e-07
5.23599e-07
5.23599e-07
5.23599e-07
5.23599e-07
5.23599e-07
5.23599e-07
5.23599e-07
5.23599e-07
5.23599e-07
5.23599e-07
5.23599e-07
5.23599e-07
5.23599e-07
5.23599e-07
5.23599e-07
5.23599e-07
5.23599e-07
5.23599e-07
5.23599e-07
5.23599e-07
5.23599e-07
5.23599e-07
5.23599e-07
5.23599e-07
5.23599e-07
5.23599e-07
5.23599e-07
5.23599e-07
5.23599e-07
5.23599e-07
5.23599e-07
5.23599e-07
5.23599e-07
5.23599e-07
5.23599e-07
5.23599e-07
5.23599e-07
5.23599e-07
5.23599e-07
5.23599e-07
5.23599e-07
5.23599e-07
5.23599e-07
5.23599e-07
5.23599e-07
5.23599e-07
5.23599e-07
5.23599e-07
5.23599e-07
5.23599e-07
5.23599e-07
5.23599e-07
5.23599e-07
5.23599e-07
5.23599e-07
5.23599e-07

VECTORS velocity float
-0.00173131 0.00358395 -0.00381025
0.0111937 0.00317557 -0.00321103
0.000710492 0.00974442 0.00245925
-0.00187379 0.00593102 0.0214409
-0.0011824 0.0188462 0.00761753
-0.00184813 -0.000868297 0.00232638
-0.000713043 0.00129367 0.0119651
0.00254668 -0.000481913 0.00105487
3.18824e-05 0.00403175 -0.00612311
-0.00025208 0.000116383 0.00296381
0.00159866 -0.000400796 0.00184007
-0.000493653 -0.0041534 -0.00163804
0.000439709 -0.0119366 0.00188331
0.00128109 -0.0010255 -0.015702
-0.00578914 0.0140448 0.00279457
-0.00118508 -0.00218327 -0.00152714
-0.00376604 0.00137627 -0.00392554
0.00138385 -0.00104147 -0.0196117
-0.0249476 -3.68115 -5.19321