# vtk DataFile Version 3.0
LIGGGHTS particles timestep 2000000
ASCII
DATASET POLYDATA
POINTS 763 float
0.018899 0.0238769 0.0160342
0.0212368 0.0232671 0.0130496
0.0157288 0.0224407 0.0143987
0.0204585 0.0221415 0.00854759
0.0370004 0.0186565 0.0057314
0.0167748 0.0229557 0.0148639
0.0148092 0.0192835 0.0174131
0.0250012 0.0219955 0.0165646
0.021468 0.0240676 0.0134848
0.0187918 0.0240563 0.0124745
0.020094 0.0240787 0.0260426
0.0211344 0.0224401 0.0155507
0.017258 0.0240048 0.0130036
0.0223379 0.017791 0.0166237
0.0242657 0.0224402 0.0190563
0.0184364 0.0146185 0.0119431
0.0217603 0.0237589 0.0149624
0.0203318 0.0244341 0.0173872
0.0200137 0.0140271 0.0129973
0.0264195 0.0179603 0.00594902
0.0172816 0.0247148 0.0189506
0.0186337 0.0244818 0.0137279
0.0254769 0.0194507 0.00719587
0.0135318 0.0216298 0.0185342
0.0225797 0.0206268 0.0183944
0.0200688 0.0245056 0.0136448
0.0234832 0.017538 0.016494
0.020231 0.0195328 0.0071937
0.0208459 0.0241777 0.0142408
0.0220464 0.0209263 0.0155726
0.023174 0.0169538 0.0154244
0.0246182 0.0220249 0.0156986
0.0224859 0.0190197 0.0159447
0.0234738 0.0152116 0.0134996
0.020889 0.0239924 0.01263
0.0211106 0.012687 0.0201036
0.0127 0.019857 0.0193735
0.0276773 0.022022 0.0145221
0.0221599 0.0230045 0.0154951
0.0171104 0.0243407 0.0139314
0.0241358 0.0153998 0.0155361
0.0160012 0.0236093 0.0141019
0.0182177 0.0221018 0.0161416
0.0259607 0.0213255 0.00793972
0.0244805 0.0200594 0.0174123
0.0199981 0.0146668 0.0204476
0.0187708 0.0209485 0.0163858
0.0227522 0.0238217 0.0148026
0.0168427 0.0190847 0.0174853
0.0218366 0.020646 0.0165082
0.0251111 0.0214109 0.016094
0.0233024 0.0155564 0.0144925
0.0243061 0.022589 0.0160557
0.0271976 0.0232157 0.0127043
0.0186495 0.0236045 0.0140234
0.0221908 0.0217803 0.0150858
0.0169408 0.018372 0.0167918
0.0201418 0.0225625 0.0154291
0.0235321 0.0147687 0.0217495
0.0222852 0.0237053 0.0139095
0.0211797 0.0206796 0.0189846
0.0230205 0.0221433 0.014679
0.0191614 0.0142652 0.012533
0.0219978 0.023496 0.0201185
0.0137505 0.0161202 0.0198331
0.019878 0.0241117 0.0127364
0.0264423 0.0228223 0.00936055
0.0181867 0.0231454 0.0147783
0.0209609 0.0141116 0.0133059
0.0228802 0.0189718 0.0257851
0.0194028 0.0241614 0.0142616
0.0247852 0.0161163 0.0197631
0.0197104 0.0188285 0.00717085
0.0128449 0.0170419 0.0198291
0.020014 0.0137352 0.0175649
0.0247359 0.016219 0.00826392
0.0166562 0.0239249 0.0147187
0.0125938 0.0228923 0.0222373
0.0159176 0.0171854 0.0201254
0.0221218 0.0140384 0.0147275
0.0141309 0.0153827 0.015254
0.0244254 0.0170687 0.0154762
0.0207352 0.0251794 0.0196517
0.0199702 0.021504 0.00796787
0.0171711 0.0129617 0.0196693
0.0175277 0.0238158 0.0162232
0.0189497 0.0237331 0.0150421
0.0204892 0.0238987 0.0134035
0.0159596 0.0196373 0.0175026
0.0207886 0.0232173 0.0150255
0.0206495 0.0207738 0.0168811
0.0243578 0.0161709 0.0216658
0.0151741 0.0232464 0.014606
0.0159248 0.0250422 0.0204022
0.0224919 0.0229776 0.0144854
0.0188506 0.0288921 0.0407515
0.0214431 0.0234759 0.0140924
0.0219163 0.0170946 0.0188529
0.0174033 0.0140813 0.0144797
0.0157871 0.0238949 0.0203426
0.0189113 0.0167875 0.00784403
0.0232074 0.0219866 0.0328939
0.0262432 0.0220502 0.00869013
0.0236612 0.0148716 0.0125204
0.0144528 0.0222043 0.0157447
0.0166652 0.0233518 0.0125803
0.0178949 0.0240585 0.0144697
0.0123661 0.0190893 0.0199227
0.0222513 0.023252 0.0164603
0.0240944 0.0148171 0.0107879
0.0263067 0.0196078 0.00719261
0.0162351 0.0214298 0.0192412
0.0255807 0.0207737 0.0163496
0.0191938 0.0227778 0.0151975
0.0239954 0.0206614 0.0156444
0.023646 0.018877 0.0159385
0.0154118 0.0229586 0.013604
0.0190216 0.0224382 0.0186092
0.0249955 0.0195293 0.0167299
0.0143459 0.0229424 0.0150795
0.0228191 0.0150772 0.0170866
0.0200785 0.0240857 0.019081
0.0145249 0.0237128 0.0215979
0.0131217 0.01821 0.0184434
0.024773 0.0205196 0.018262
0.0259588 0.019349 0.0169616
0.0181557 0.0126919 0.0195818
0.0191753 0.0210346 0.0172953
0.0212971 0.0239911 0.0190871
0.0233477 0.0230639 0.0145907
0.0181812 0.0239786 0.0131422
0.0188624 0.0231974 0.0192392
0.0256991 0.0174737 0.0167658
0.0218456 0.0221108 0.0178301
0.0158945 0.0235352 0.0152358
0.021221 0.0158056 0.0181119
0.0156972 0.0229204 0.0188993
-0.00769037 0.0416497 0.0451017
0.0230389 0.0209524 0.0155426
0.0214779 0.0173004 0.0164796
0.0149908 0.0223308 0.0171571
0.0148124 0.0215602 0.017781
0.0455247 0.0055655 0.0512133
0.0154022 0.0172947 0.0181953
0.021638 0.0233751 0.0124144
0.0624976 0.0343486 -0.0189005
0.020141 0.0250702 0.0188414
0.0182682 0.0231012 0.0160811
0.0238188 0.022514 0.0152319
0.0207863 0.0153302 0.0152035
0.0205547 0.0213673 0.0207092
0.025551 0.0184619 0.0167321
0.0256861 0.0202993 0.0171184
0.0129757 0.0220029 0.0200826
0.0211494 0.022603 0.00909823
0.0197648 0.0205338 0.00750053
0.0206941 0.0203827 0.00740833
0.0136759 0.0215393 0.0206545
0.0172921 0.023098 0.0133244
0.0190931 0.0176483 0.00741419
0.0208413 0.0188004 0.0167735
0.0238756 0.0215059 0.01618
0.0228921 0.0217023 0.0164182
0.0229481 0.0226319 0.0168331
0.0159142 0.0215597 0.015401
0.0232907 0.0232926 0.0154756
0.0153382 0.0219515 0.0190334
0.0191082 0.0181755 0.0212185
0.0180716 0.0257818 0.0255165
0.0134407 0.0179853 0.0175233
0.0172198 0.0165515 0.017006
0.0172056 0.0136627 0.0178821
0.0200731 0.0207961 0.0179245
0.0242341 0.016203 0.0149201
0.0193489 0.0164847 0.0160876
0.0215203 0.0248127 0.0432546
0.0201329 0.0234922 0.0143232
0.0256189 0.0213096 0.0168968
0.0242341 0.0197216 0.0158899
0.0171687 0.0218877 0.0159339
0.0192942 0.0136375 0.0135718
0.0249645 0.0169689 0.0163125
0.0237771 0.0183349 0.0174518
0.0174743 0.0143605 0.0135227
0.0106216 0.0179382 0.0583321
0.0267753 0.0271821 0.0322603
0.0183276 0.0138662 0.0136858
0.020112 0.0145989 0.0149012
0.0191283 0.0137323 0.0170708
0.0150446 0.0187859 0.0167226
0.0177982 0.021397 0.0152722
0.0218939 0.0230758 0.0182429
0.0209791 0.014048 0.0174482
0.0188313 0.0250137 0.0202266
0.0138117 0.0189363 0.0184981
0.0129106 0.0213532 0.0166754
0.0238045 0.0166509 0.0161445
0.0216125 0.0227185 0.0147051
0.0143409 0.0217091 0.0166148
0.0252505 0.0238008 0.0267609
0.0200151 0.0253503 0.0204088
0.0165011 0.0142414 0.0137183
0.0135677 0.0217991 0.0159728
0.017831 0.0242881 0.0217426
0.0213419 0.0150212 0.0174441
0.0162232 0.0228301 0.018047
0.0174397 0.0236086 0.0152503
0.0135875 0.0221072 0.0235537
0.0131759 0.0188409 0.0167352
0.0143071 0.0176871 0.018298
0.0185613 0.0192218 0.0172748
0.0152717 0.0198826 0.0167139
0.0246003 0.0178829 0.0179031
0.0210512 0.0225118 0.0165466
0.0182278 0.0157367 0.0144608
0.0131984 0.0232077 0.0264623
0.0211406 0.0145193 0.0165797
0.018277 0.0168418 0.0153733
0.0183113 0.0210487 0.017801
0.0189696 0.0182319 0.026638
0.0166699 0.0234773 0.0186664
0.0218233 0.0218742 0.0160101
0.0151081 0.023813 0.0190971
0.0128545 0.0225955 0.0212093
0.0191599 0.0219993 0.0158236
0.0213459 0.0228785 0.0174298
0.0132419 0.0196266 0.0202302
0.0177222 0.014739 0.0126317
0.016343 0.0230166 0.0134419
0.0173986 0.0153778 0.0140048
0.0152253 0.0270979 0.026203
0.0191628 0.0133044 0.0179737
0.0361876 0.0506752 0.0439841
0.0195623 0.0255182 0.0195267
0.0182419 0.0148382 0.0140236
0.017301 0.0198723 0.0162846
0.0119816 0.019282 0.0208253
0.0202327 0.0231946 0.0161976
0.0181175 0.0154404 0.016677
0.0167226 0.0146621 0.0186968
0.018115 0.0203223 0.0159201
0.023637 0.0152692 0.0189277
0.0217714 0.0143452 0.0138428
0.0470402 -0.0196617 0.0368288
0.0152888 0.0135405 0.0198739
0.024748 0.0161536 0.015776
0.0162787 0.0207993 0.0159324
0.0137689 0.0209239 0.0164022
0.0199346 0.0237378 0.0152713
0.0219984 0.0153478 0.0189059
0.0244986 0.0206232 0.0165299
0.0167013 0.014836 0.0165513
0.021988 0.0223582 0.0168687
0.0228924 0.0180672 0.0158347
0.0198573 0.0241207 0.0161913
0.0152807 0.0226406 0.0153939
0.0208534 0.0167137 0.0170026
0.0196489 0.0156731 0.0155279
0.0128438 0.0191454 0.0186643
0.0176288 0.0180135 0.0161339
0.0224459 0.01547 0.0154135
0.0159458 0.0243562 0.0187436
0.0217423 0.00984106 0.0326819
0.0148527 0.0150674 0.018834
0.0125687 0.0204054 0.0165756
0.0196597 0.0181016 0.0166404
0.0164057 0.0218993 0.0183655
0.0185987 0.0148745 0.013091
0.0142958 0.0201226 0.016655
0.0244939 0.0181316 0.0158524
0.0218866 0.0186855 0.0167706
0.0232679 0.0200016 0.0158489
0.0134263 0.0583832 0.0410215
0.0152466 0.016774 0.0162454
0.0197494 0.0235053 0.0170729
0.0229257 0.0146229 0.0146127
0.0166977 0.0233402 0.0158634
0.0199543 0.0238417 0.0180967
0.0230224 0.0185994 0.0166765
0.0240292 0.0208281 0.0213908
0.0207696 0.023951 0.0165692
0.0155275 0.0245468 0.0196305
0.0220836 0.0148453 0.0164502
0.0220596 0.0233967 0.0115604
0.0199101 0.0173113 0.0201262
0.018849 0.0157062 0.0176675
0.0161846 0.0238944 0.0175042
0.0170673 0.0243685 0.0208062
0.0142555 0.0222617 0.0182239
0.0163048 0.0198406 0.0162125
0.0178068 0.0212013 0.0162812
0.0171961 0.0225562 0.0184587
0.0198068 0.0200577 0.0166461
0.0191993 0.0148633 0.0186932
0.0241366 0.0188637 0.0186945
0.0135294 0.0185783 0.0199319
0.0164629 0.0142594 0.0147688
0.0141055 0.0191535 0.0167484
0.0214801 0.0214979 0.0168908
0.0172207 0.0206604 0.0156391
0.0200023 0.0221033 0.0163514
0.0204399 0.0146841 0.0158851
0.0174792 0.015106 0.0159845
0.0224077 0.0232091 0.0131038
0.0139144 0.0170041 0.0163611
0.0190484 0.0161354 0.0148753
0.0181634 0.0133289 0.017976
0.0162631 0.0217264 0.0163247
0.0190008 0.0141956 0.0143475
0.0167612 0.0254188 0.0225503
0.0233032 0.0192668 0.0173662
0.0209772 0.0145849 0.0144007
0.019416 0.0151282 0.0136064
0.0187121 0.0153366 0.0154208
0.0163211 0.0179327 0.0195092
0.0157393 0.0147633 0.0152401
0.0195987 0.0239619 0.020038
0.0178413 0.0142081 0.0162345
0.020121 0.0143838 0.013925
0.0187542 0.019104 0.0213442
0.0156098 0.0231057 0.0172824
0.0143779 0.0207245 0.0174476
0.0233542 0.0162383 0.017236
0.0170594 0.0161476 0.0183838
0.0170674 0.0212141 0.028976
0.0192267 0.0151394 0.0145874
0.0242799 0.0171932 0.0170057
0.0190274 0.0182976 0.0173914
0.0231457 0.0207398 0.0165143
0.0202628 0.0174373 0.017469
0.017932 0.0164995 0.0187587
0.0231954 0.022844 0.0177865
[...]
POINT_DATA 763
SCALARS id int 1
LOOKUP_TABLE default
1
2
3
4
5
6
7
8
9
10
11
12
13
14
15
16
17
18
19
20
21
23
24
25
26
27
28
29
30
31
32
33
34
35
36
37
38
39
40
41
42
43
44
45
46
48
49
50
51
52
53
54
55
56
57
58
59
60
61
62
63
64
65
66
67
69
70
71
72
73
74
75
77
78
79
80
81
82
83
85
86
87
88
89
90
91
92
93
94
95
96
97
98
99
101
102
103
104
105
106
107
108
109
110
113
114
115
116
117
118
119
120
121
123
124
125
126
127
128
129
130
131
132
133
134
135
136
137
138
139
140
141
142
143
144
146
147
148
149
150
151
153
154
155
156
159
160
161
162
163
164
166
168
169
171
172
173
174
175
177
178
179
180
181
182
184
186
187
188
189
192
194
195
196
197
198
200
201
202
203
204
206
207
208
209
210
211
212
214
215
216
217
219
220
222
226
227
228
229
230
231
232
233
234
236
238
239
240
242
243
244
246
247
248
250
251
256
259
260
262
265
266
267
268
269
270
271
272
273
274
275
276
277
278
279
280
281
282
284
287
288
290
292
294
295
296
298
299
300
301
302
303
304
305
306
307
308
309
310
311
312
313
316
317
318
319
320
321
324
325
326
327
328
329
330
331
333
334
335
336
337
338
339
340
341
342
343
344
345
346
347
348
350
351
353
356
357
358
360
361
363
364
366
367
368
371
373
378
379
381
382
383
384
385
386
387
389
390
391
394
395
396
397
398
399
400
402
403
404
405
407
409
410
411
415
417
418
419
420
423
427
429
430
431
435
436
437
441
442
446
447
448
449
450
451
452
453
454
457
458
459
460
461
462
463
464
465
466
467
468
469
470
471
473
474
475
477
478
479
480
482
483
484
486
487
488
489
490
493
494
495
497
500
503
504
506
507
508
511
512
513
514
515
516
517
518
522
523
524
526
527
528
529
530
532
536
537
538
539
540
542
543
546
547
548
549
550
551
552
553
554
555
556
557
558
561
562
565
566
567
569
571
574
575
576
577
580
581
582
583
584
585
586
588
589
590
591
592
593
594
595
596
598
601
602
603
605
606
607
608
610
612
614
616
617
618
619
620
621
622
623
624
625
626
627
628
629
630
633
636
637
638
639
640
641
642
643
644
646
647
649
650
651
652
653
654
655
657
658
659
660
662
663
664
665
666
667
668
669
671
673
674
675
676
677
678
679
680
681
682
683
684
685
686
687
689
690
691
693
694
696
697
698
699
700
701
702
703
704
705
707
708
709
710
711
712
713
715
716
717
718
719
720
721
722
723
724
726
727
728
729
730
731
732
733
734
736
737
738
739
740
741
743
744
745
746
747
749
750
751
752
753
755
756
757
758
760
761
762
763
764
766
768
769
770
771
772
773
774
776
777
779
782
783
784
785
786
787
788
789
790
792
793
794
795
796
798
799
800
801
802
803
805
806
807
808
809
810
811
813
814
815
817
818
820
822
823
824
826
827
829
832
833
835
836
837
838
839
840
841
844
845
846
847
848
849
850
851
852
854
855
857
858
859
860
861
862
863
864
865
866
867
868
869
871
872
873
874
875
876
877
878
880
881
882
883
884
885
886
887
888
889
891
892
893
894
895
896
897
898
899
900
901
902
904
905
906
907
908
909
910
911
912
913
914
915
916
917
918
920
921
922
923
924
925
926
928
929
930
931
932
933
934
935
936
937
938
939
940
941
942
943
944
945
946
947
948
949
950
951
952
953
954

SCALARS type int 1
LOOKUP_TABLE default
1
1
1
1
1
1
1
1
1
1
1
1
1
1
1
1
1
1
1
1
1
1
1
1
1
1
1
1
1
1
1
1
1
1
1
1
1
1
1
1
1
1
1
1
1
1
1
1
1
1
1
1
1
1
1
1
1
1
1
1
1
1
1
1
1
1
1
1
1
1
1
1
1
1
1
1
1
1
1
1
1
1
1
1
1
1
1
1
1
1
1
1
1
1
1
1
1
1
1
1
1
1
1
1
1
1
1
1
1
1
1
1
1
1
1
1
1
1
1
1
1
1
1
1
1
1
1
1
1
1
1
1
1
1
1
1
1
1
1
1
1
1
1
1
1
1
1
1
1
1
1
1
1
1
1
1
1
1
1
1
1
1
1
1
1
1
1
1
1
1
1
1
1
1
1
1
1
1
1
1
1
1
1
1
1
1
1
1
1
1
1
1
1
1
1
1
1
1
1
1
1
1
1
1
1
1
1
1
1
1
1
1
1
1
1
1
1
1
1
1
1
1
1
1
1
1
1
1
1
1
1
1
1
1
1
1
1
1
1
1
1
1
1
1
1
1
1
1
1
1
1
1
1
1
1
1
1
1
1
1
1
1
1
1
1
1
1
1
1
1
1
1
1
1
1
1
1
1
1
1
1
1
1
1
1
1
1
1
1
1
1
1
1
1
1
1
1
1
1
1
1
1
1
1
1
1
1
1
1
1
1
1
1
1
1
1
1
1
1
1
1
1
1
1
1
1
1
1
1
1
1
1
1
1
1
1
1
1
1
1
1
1
1
1
1
1
1
1
1
1
1
1
1
1
1
1
1
1
1
1
1
1
1
1
1
1
1
1
1
1
1
1
1
1
1
1
1
1
1
1
1
1
1
1
1
1
1
1
1
1
1
1
1
1
1
1
1
1
1
1
1
1
1
1
1
1
1
1
1
1
1
1
1
1
1
1
1
1
1
1
1
1
1
1
1
1
1
1
1
1
1
1
1
1
1
1
1
1
1
1
1
1
1
1
1
1
1
1
1
1
1
1
1
1
1
1
1
1
1
1
1
1
1
1
1
1
1
1
1
1
1
1
1
1
1
1
1
1
1
1
1
1
1
1
1
1
1
1
1
1
1
1
1
1
1
1
1
1
1
1
1
1
1
1
1
1
1
1
1
1
1
1
1
1
1
1
1
1
1
1
1
1
1
1
1
1
1
1
1
1
1
1
1
1
1
1
1
1
1
1
1
1
1
1
1
1
1
1
1
1
1
1
1
1
1
1
1
1
1
1
1
1
1
1
1
1
1
1
1
1
1
1
1
1
1
1
1
1
1
1
1
1
1
1
1
1
1
1
1
1
1
1
1
1
1
1
1
1
1
1
1
1
1
1
1
1
1
1
1
1
1
1
1
1
1
1
1
1
1
1
1
1
1
1
1
1
1
1
1
1
1
1
1
1
1
1
1
1
1
1
1
1
1
1
1
1
1
1
1
1
1
1
1
1
1
1
1
1
1
1
1
1
1
1
1
1
1
1
1
1
1
1
1
1
1
1
1
1
1
1
1
1
1
1
1
1
1
1
1
1
1
1
1
1
1
1
1
1
1
1
1
1
1
1
1
1
1
1
1
1
1
1
1
1
1
1
1
1
1
1
1
1
1
1
1
1
1
1
1
1
1
1
1
1
1
1
1
1
1
1
1
1
1
1
1
1
1
1
1
1
1
1
1
1
1
1
1
1
1
1
1
1
1

SCALARS radius float 1
LOOKUP_TABLE default
0.0005
0.0005
0.0005
0.0005
0.0005
0.0005
0.0005
0.0005
0.0005
0.0005
0.0005
0.0005
0.0005
0.0005
0.0005
0.0005
0.0005
0.0005
0.0005
0.0005
0.0005
0.0005
0.0005
0.0005
0.0005
0.0005
0.0005
0.0005
0.0005
0.0005
0.0005
0.0005
0.0005
0.0005
0.0005
0.0005
0.0005
0.0005
0.0005
0.0005
0.0005
0.0005
0.0005
0.0005
0.0005
0.0005
0.0005
0.0005
0.0005
0.0005
0.0005
0.0005
0.0005
0.0005
0.0005
0.0005
0.0005
0.0005
0.0005
0.0005
0.0005
0.0005
0.0005
0.0005
0.0005
0.0005
0.0005
0.0005
0.0005
0.0005
0.0005
0.0005
0.0005
0.0005
0.0005
0.0005
0.0005
0.0005
0.0005
0.0005
0.0005
0.0005
0.0005
0.0005
0.0005
0.0005
0.0005
0.0005
0.0005
0.0005
0.0005
0.0005
0.0005
0.0005
0.0005
0.0005
0.0005
0.0005
0.0005
0.0005
0.0005
0.0005
0.0005
0.0005
0.0005
0.0005
0.0005
0.0005
0.0005
0.0005
0.0005
0.0005
0.0005
0.0005
0.0005
0.0005
0.0005
0.0005
0.0005
0.0005
0.0005
0.0005
0.0005
0.0005
0.0005
0.0005
0.0005
0.0005
0.0005
0.0005
0.0005
0.0005
0.0005
0.0005
0.0005
0.0005
0.0005
0.0005
0.0005
0.0005
0.0005
0.0005
0.0005
0.0005
0.0005
0.0005
0.0005
0.0005
0.0005
0.0005
0.0005
0.0005
0.0005
0.0005
0.0005
0.0005
0.0005
0.0005
0.0005
0.0005
0.0005
0.0005
0.0005
0.0005
0.0005
0.0005
0.0005
0.0005
0.0005
0.0005
0.0005
0.0005
0.0005
0.0005
0.0005
0.0005
0.0005
0.0005
0.0005
0.0005
0.0005
0.0005
0.0005
0.0005
0.0005
0.0005
0.0005
0.0005
0.0005
0.0005
0.0005
0.0005
0.0005
0.0005
0.0005
0.0005
0.0005
0.0005
0.0005
0.0005
0.0005
0.0005
0.0005
0.0005
0.0005
0.0005
0.0005
0.0005
0.0005
0.0005
0.0005
0.0005
0.0005
0.0005
0.0005
0.0005
0.0005
0.0005
0.0005
0.0005
0.0005
0.0005
0.0005
0.0005
0.0005
0.0005
0.0005
0.0005
0.0005
0.0005
0.0005
0.0005
0.0005
0.0005
0.0005
0.0005
0.0005
0.0005
0.0005
0.0005
0.0005
0.0005
0.0005
0.0005
0.0005
0.0005
0.0005
0.0005
0.0005
0.0005
0.0005
0.0005
0.0005
0.0005
0.0005
0.0005
0.0005
0.0005
0.0005
0.0005
0.0005
0.0005
0.0005
0.0005
0.0005
0.0005
0.0005
0.0005
0.0005
0.0005
0.0005
0.0005
0.0005
0.0005
0.0005
0.0005
0.0005
0.0005
0.0005
0.0005
0.0005
0.0005
0.0005
0.0005
0.0005
0.0005
0.0005
0.0005
0.0005
0.0005
0.0005
0.0005
0.0005
0.0005
0.0005
0.0005
0.0005
0.0005
0.0005
0.0005
0.0005
0.0005
0.0005
0.0005
0.0005
0.0005
0.0005
0.0005
0.0005
0.0005
0.0005
0.0005
0.0005
0.0005
0.0005
0.0005
0.0005
0.0005
0.0005
0.0005
0.0005
0.0005
0.0005
0.0005
0.0005
0.0005
0.0005
0.0005
0.0005
0.0005
0.0005
0.0005
0.0005
0.0005
0.0005
0.0005
0.0005
0.0005
0.0005
0.0005
0.0005
0.0005
0.0005
0.0005
0.0005
0.0005
0.0005
0.0005
0.0005
0.0005
0.0005
0.0005
0.0005
0.0005
0.0005
0.0005
0.0005
0.0005
0.0005
0.0005
0.0005
0.0005
0.0005
0.0005
0.0005
0.0005
0.0005
0.0005
0.0005
0.0005
0.0005
0.0005
0.0005
0.0005
0.0005
0.0005
0.0005
0.0005
0.0005
0.0005
0.0005
0.0005
0.0005
0.0005
0.0005
0.0005
0.0005
0.0005
0.0005
0.0005
0.0005
0.0005
0.0005
0.0005
0.0005
0.0005
0.0005
0.0005
0.0005
0.0005
0.0005
0.0005
0.0005
0.0005
0.0005
0.0005
0.0005
0.0005
0.0005
0.0005
0.0005
0.0005
0.0005
0.0005
0.0005
0.0005
0.0005
0.0005
0.0005
0.0005
0.0005
0.0005
0.0005
0.0005
0.0005
0.0005
0.0005
0.0005
0.0005
0.0005
0.0005
0.0005
0.0005
0.0005
0.0005
0.0005
0.0005
0.0005
0.0005
0.0005
0.0005
0.0005
0.0005
0.0005
0.0005
0.0005
0.0005
0.0005
0.0005
0.0005
0.0005
0.0005
0.0005
0.0005
0.0005
0.0005
0.0005
0.0005
0.0005
0.0005
0.0005
0.0005
0.0005
0.0005
0.0005
0.0005
0.0005
0.0005
0.0005
0.0005
0.0005
0.0005
0.0005
0.0005
0.0005
0.0005
0.0005
0.0005
0.0005
0.0005
0.0005
0.0005
0.0005
0.0005
0.0005
0.0005
0.0005
0.0005
0.0005
0.0005
0.0005
0.0005
0.0005
0.0005
0.0005
0.0005
0.0005
0.0005
0.0005
0.0005
0.0005
0.0005
0.0005
0.0005
0.0005
0.0005
0.0005
0.0005
0.0005
0.0005
0.0005
0.0005
0.0005
0.0005
0.0005
0.0005
0.0005
0.0005
0.0005
0.0005
0.0005
0.0005
0.0005
0.0005
0.0005
0.0005
0.0005
0.0005
0.0005
0.0005
0.0005
0.0005
0.0005
0.0005
0.0005
0.0005
0.0005
0.0005
0.0005
0.0005
0.0005
0.0005
0.0005
0.0005
0.0005
0.0005
0.0005
0.0005
0.0005
0.0005
0.0005
0.0005
0.0005
0.0005
0.0005
0.0005
0.0005
0.0005
0.0005
0.0005
0.0005
0.0005
0.0005
0.0005
0.0005
0.0005
0.0005
0.0005
0.0005
0.0005
0.0005
0.0005
0.0005
0.0005
0.0005
0.0005
0.0005
0.0005
0.0005
0.0005
0.0005
0.0005
0.0005
0.0005
0.0005
0.0005
0.0005
0.0005
0.0005
0.0005
0.0005
0.0005
0.0005
0.0005
0.0005
0.0005
0.0005
0.0005
0.0005
0.0005
0.0005
0.0005
0.0005
0.0005
0.0005
0.0005
0.0005
0.0005
0.0005
0.0005
0.0005
0.0005
0.0005
0.0005
0.0005
0.0005
0.0005
0.0005
0.0005
0.0005
0.0005
0.0005
0.0005
0.0005
0.0005
0.0005
0.0005
0.0005
0.0005
0.0005
0.0005
0.0005
0.0005
0.0005
0.0005
0.0005
0.0005
0.0005
0.0005
0.0005
0.0005
0.0005
0.0005
0.0005
0.0005
0.0005
0.0005
0.0005
0.0005
0.0005
0.0005
0.0005
0.0005
0.0005
0.0005
0.0005
0.0005
0.0005
0.0005
0.0005
0.0005
0.0005
0.0005
0.0005
0.0005
0.0005
0.0005
0.0005
0.0005
0.0005
0.0005
0.0005
0.0005
0.0005
0.0005
0.0005
0.0005
0.0005
0.0005
0.0005
0.0005
0.0005
0.0005
0.0005
0.0005
0.0005
0.0005
0.0005
0.0005
0.0005
0.0005
0.0005
0.0005
0.0005
0.0005
0.0005
0.0005
0.0005
0.0005
0.0005
0.0005
0.0005
0.0005
0.0005
0.0005
0.0005
0.0005
0.0005
0.0005
0.0005
0.0005
0.0005
0.0005
0.0005
0.0005
0.0005
0.0005
0.0005
0.0005
0.0005
0.0005
0.0005
0.0005
0.0005
0.0005
0.0005
0.0005
0.0005
0.0005
0.0005
0.0005
0.0005
0.0005
0.0005
0.0005
0.0005
0.0005
0.0005
0.0005
0.0005
0.0005
0.0005
0.0005
0.0005
0.0005
0.0005
0.0005
0.0005
0.0005
0.0005
0.0005
0.0005
0.0005
0.0005
0.0005
0.0005
0.0005
0.0005
0.0005
0.0005
0.0005
0.0005
0.0005

SCALARS mass float 1
LOOKUP_TABLE default
5.23599e-07
5.23599e-07
5.23599e-07
5.23599e-07
5.23599e-07
5.23599e-07
5.23599e-07
5.23599e-07
5.23599e-07
5.23599e-07
5.23599e-07
5.23599e-07
5.23599e-07
5.23599e-07
5.23599e-07
5.23599e-07
5.23599e-07
5.23599e-07
5.23599e-07
5.23599e-07
5.23599e-07
5.23599e-07
5.23599e-07
5.23599e-07
5.23599e-07
5.23599e-07
5.23599e-07
5.23599e-07
5.23599e-07
5.23599e-07
5.23599e-07
5.23599e-07
5.23599e-07
5.23599e-07
5.23599e-07
5.23599e-07
5.23599e-07
5.23599e-07
5.23599e-07
5.23599e-07
5.23599e-07
5.23599e-07
5.23599e-07
5.23599e-07
5.23599e-07
5.23599e-07
5.23599e-07
5.23599e-07
5.23599e-07
5.23599e-07
5.23599e-07
5.23599e-07
5.23599e-07
5.23599e-07
5.23599e-07
5.23599e-07
5.23599e-07
5.23599e-07
5.23599e-07
5.23599e-07
5.23599e-07
5.23599e-07
5.23599e-07
5.23599e-07
5.23599e-07
5.23599e-07
5.23599e-07
5.23599e-07
5.23599e-07
5.23599e-07
5.23599e-07
5.23599e-07
5.23599e-07
5.23599e-07
5.23599e-07
5.23599e-07
5.23599e-07
5.23599e-07
5.23599e-07
5.23599e-07
5.23599e-07
5.23599e-07
5.23599e-07
5.23599e-07
5.23599e-07
5.23599e-07
5.23599e-07
5.23599e-07
5.23599e-07
5.23599e-07
5.23599e-07
5.23599e-07
5.23599e-07
5.23599e-07
5.23599e-07
5.23599e-07
5.23599e-07
5.23599e-07
5.23599e-07
5.23599e-07
5.23599e-07
5.23599e-07
5.23599e-07
5.23599e-07
5.23599e-07
5.23599e-07
5.23599e-07
5.23599e-07
5.23599e-07
5.23599e-07
5.23599e-07
5.23599e-07
5.23599e-07
5.23599e-07
5.23599e-07
5.23599e-07
5.23599e-07
5.23599e-07
5.23599e-07
5.23599e-07
5.23599e-07
5.23599e-07
5.23599e-07
5.23599e-07
5.23599e-07
5.23599e-07
5.23599e-07
5.23599e-07
5.23599e-07
5.23599e-07
5.23599e-07
5.23599e-07
5.23599e-07
5.23599e-07
5.23599e-07
5.23599e-07
5.23599e-07
5.23599e-07
5.23599e-07
5.23599e-07
5.23599e-07
5.23599e-07
5.23599e-07
5.23599e-07
5.23599e-07
5.23599e-07
5.23599e-07
5.23599e-07
5.23599e-07
5.23599e-07
5.23599e-07
5.23599e-07
5.23599e-07
5.23599e-07
5.23599e-07
5.23599e-07
5.23599e-07
5.23599e-07
5.23599e-07
5.23599e-07
5.23599e-07
5.23599e-07
5.23599e-07
5.23599e-07
5.23599e-07
5.23599e-07
5.23599e-07
5.23599e-07
5.23599e-07
5.23599e-07
5.23599e-07
5.23599e-07
5.23599e-07
5.23599e-07
5.23599e-07
5.23599e-07
5.23599e-07
5.23599e-07
5.23599e-07
5.23599e-07
5.23599e-07
5.23599e-07
5.23599e-07
5.23599e-07
5.23599e-07
5.23599e-07
5.23599e-07
5.23599e-07
5.23599e-07
5.23599e-07
5.23599e-07
5.23599e-07
5.23599e-07
5.23599e-07
5.23599e-07
5.23599e-07
5.23599e-07
5.23599e-07
5.23599e-07
5.23599e-07
5.23599e-07
5.23599e-07
5.23599e-07
5.23599e-07
5.23599e-07
5.23599e-07
5.23599e-07
5.23599e-07
5.23599e-07
5.23599e-07
5.23599e-07
5.23599e-07
5.23599e-07
5.23599e-07
5.23599e-07
5.23599e-07
5.23599e-07
5.23599e-07
5.23599e-07
5.23599e-07
5.23599e-07
5.23599e-07
5.23599e-07
5.23599e-07
5.23599e-07
5.23599e-07
5.23599e-07
5.23599e-07
5.23599e-07
5.23599e-07
5.23599e-07
5.23599e-07
5.23599e-07
5.23599e-07
5.23599e-07
5.23599e-07
5.23599e-07
5.23599e-07
5.23599e-07
5.23599e-07
5.23599e-07
5.23599e-07
5.23599e-07
5.23599e-07
5.23599e-07
5.23599e-07
5.23599e-07
5.23599e-07
5.23599e-07
5.23599e-07
5.23599e-07
5.23599e-07
5.23599e-07
5.23599e-07
5.23599e-07
5.23599e-07
5.23599e-07
5.23599e-07
5.23599e-07
5.23599e-07
5.23599e-07
5.23599e-07
5.23599e-07
5.23599e-07
5.23599e-07
5.23599e-07
5.23599e-07
5.23599e-07
5.23599e-07
5.23599e-07
5.23599e-07
5.23599e-07
5.23599e-07
5.23599e-07
5.23599e-07
5.23599e-07
5.23599e-07
5.23599e-07
5.23599e-07
5.23599e-07
5.23599e-07
5.23599e-07
5.23599e-07
5.23599e-07
5.23599e-07
5.23599e-07
5.23599e-07
5.23599e-07
5.23599e-07
5.23599e-07
5.23599e-07
5.23599e-07
5.23599e-07
5.23599e-07
5.23599e-07
5.23599e-07
5.23599e-07
5.23599e-07
5.23599e-07
5.23599e-07
5.23599e-07
5.23599e-07
5.23599e-07
5.23599e-07
5.23599e-07
5.23599e-07
5.23599e-07
5.23599e-07
5.23599e-07
5.23599e-07
5.23599e-07
5.23599e-07
5.23599e-07
5.23599e-07
5.23599e-07
5.23599e-07
5.23599e-07
5.23599e-07
5.23599e-07
5.23599e-07
5.23599e-07
5.23599e-07
5.23599e-07
5.23599e-07
5.23599e-07
5.23599e-07
5.23599e-07
5.23599e-07
5.23599e-07
5.23599e-07
5.23599e-07
5.23599e-07
5.23599e-07
5.23599e-07
5.23599e-07
5.23599e-07
5.23599e-07
5.23599e-07
5.23599e-07
5.23599e-07
5.23599e-07
5.23599e-07
5.23599e-07
5.23599e-07
5.23599e-07
5.23599e-07
5.23599e-07
5.23599e-07
5.23599e-07
5.23599e-07
5.23599e-07
5.23599e-07
5.23599e-07
5.23599e-07
5.23599e-07
5.23599e-07
5.23599e-07
5.23599e-07
5.23599e-07
5.23599e-07
5.23599e-07
5.23599e-07
5.23599e-07
5.23599e-07
5.23599e-07
5.23599e-07
5.23599e-07
5.23599e-07
5.23599e-07
5.23599e-07
5.23599e-07
5.23599e-07
5.23599e-07
5.23599e-07
5.23599e-07
5.23599e-07
5.23599e-07
5.23599e-07
5.23599e-07
5.23599e-07
5.23599e-07
5.23599e-07
5.23599e-07
5.23599e-07
5.23599e-07
5.23599e-07
5.23599e-07
5.23599e-07
5.23599e-07
5.23599e-07
5.23599e-07
5.23599e-07
5.23599e-07
5.23599e-07
5.23599e-07
5.23599e-07
5.23599e-07
5.23599e-07
5.23599e-07
5.23599e-07
5.23599e-07
5.23599e-07
5.23599e-07
5.23599e-07
5.23599e-07
5.23599e-07
5.23599e-07
5.23599e-07
5.23599e-07
5.23599e-07
5.23599e-07
5.23599e-07
5.23599e-07
5.23599e-07
5.23599e-07
5.23599e-07
5.23599e-07
5.23599e-07
5.23599e-07
5.23599e-07
5.23599e-07
5.23599e-07
5.23599e-07
5.23599e-07
5.23599e-07
5.23599e-07
5.23599e-07
5.23599e-07
5.23599e-07
5.23599e-07
5.23599e-07
5.23599e-07
5.23599e-07
5.23599e-07
5.23599e-07
5.23599e-07
5.23599e-07
5.23599e-07
5.23599e-07
5.23599e-07
5.23599e-07
5.23599e-07
5.23599e-07
5.23599e-07
5.23599e-07
5.23599e-07
5.23599e-07
5.23599e-07
5.23599e-07
5.23599e-07
5.23599e-07
5.23599e-07
5.23599e-07
5.23599e-07
5.23599e-07
5.23599e-07
5.23599e-07
5.23599e-07
5.23599e-07
5.23599e-07
5.23599e-07
5.23599e-07
5.23599e-07
5.23599e-07
5.23599e-07
5.23599e-07
5.23599e-07
5.23599e-07
5.23599e-07
5.23599e-07
5.23599e-07
5.23599e-07
5.23599e-07
5.23599e-07
5.23599e-07
5.23599e-07
5.23599e-07
5.23599e-07
5.23599e-07
5.23599e-07
5.23599e-07
5.23599e-07
5.23599e-07
5.23599e-07
5.23599e-07
5.23599e-07
5.23599e-07
5.23599e-07
5.23599e-07
5.23599e-07
5.23599e-07
5.23599e-07
5.23599e-07
5.23599e-07
5.23599e-07
5.23599e-07
5.23599e-07
5.23599e-07
5.23599e-07
5.23599e-07
5.23599e-07
5.23599e-07
5.23599e-07
5.23599e-07
5.23599e-07
5.23599e-07
5.23599e-07
5.23599e-07
5.23599e-07
5.23599e-07
5.23599e-07
5.23599e-07
5.23599e-07
5.23599e-07
5.23599e-07
5.23599e-07
5.23599e-07
5.23599e-07
5.23599e-07
5.23599e-07
5.23599e-07
5.23599e-07
5.23599e-07
5.23599e-07
5.23599e-07
5.23599e-07
5.23599e-07
5.23599e-07
5.23599e-07
5.23599e-07
5.23599e-07
5.23599e-07
5.23599e-07
5.23599e-07
5.23599e-07
5.23599e-07
5.23599e-07
5.23599e-07
5.23599e-07
5.23599e-07
5.23599e-07
5.23599e-07
5.23599e-07
5.23599e-07
5.23599e-07
5.23599e-07
5.23599e-07
5.23599e-07
5.23599e-07
5.23599e-07
5.23599e-07
5.23599e-07
5.23599e-07
5.23599e-07
5.23599e-07
5.23599e-07
5.23599e-07
5.23599e-07
5.23599e-07
5.23599e-07
5.23599e-07
5.23599e-07
5.23599e-07
5.23599e-07
5.23599e-07
5.23599e-07
5.23599e-07
5.23599e-07
5.23599e-07
5.23599e-07
5.23599e-07
5.23599e-07
5.23599e-07
5.23599e-07
5.23599e-07
5.23599e-07
5.23599e-07
5.23599e-07
5.23599e-07
5.23599e-07
5.23599e-07
5.23599e-07
5.23599e-07
5.23599e-07
5.23599e-07
5.23599e-07
5.23599e-07
5.23599e-07
5.23599e-07
5.23599e-07
5.23599e-07
5.23599e-07
5.23599e-07
5.23599e-07
5.23599e-07
5.23599e-07
5.23599e-07
5.23599e-07
5.23599e-07
5.23599e-07
5.23599e-07
5.23599e-07
5.23599e-07
5.23599e-07
5.23599e-07
5.23599e-07
5.23599e-07
5.23599e-07
5.23599e-07
5.23599e-07
5.23599e-07
5.23599e-07
5.23599e-07
5.23599e-07
5.23599e-07
5.23599e-07
5.23599e-07
5.23599e-07
5.23599e-07
5.23599e-07
5.23599e-07
5.23599e-07
5.23599e-07
5.23599e-07
5.23599e-07
5.23599e-07
5.23599e-07
5.23599e-07
5.23599e-07
5.23599e-07
5.23599e-07
5.23599e-07
5.23599e-07
5.23599e-07
5.23599e-07
5.23599e-07
5.23599e-07
5.23599e-07
5.23599e-07
5.23599e-07
5.23599e-07
5.23599e-07
5.23599e-07
5.23599e-07
5.23599e-07
5.23599e-07
5.23599e-07
5.23599e-07
5.23599e-07
5.23599e-07
5.23599e-07
5.23599e-07
5.23599e-07
5.23599e-07
5.23599e-07
5.23599e-07
5.23599e-07
5.23599e-07
5.23599e-07
5.23599e-07
5.23599e-07
5.23599e-07
5.23599e-07
5.23599e-07
5.23599e-07
5.23599e-07
5.23599e-07
5.23599e-07
5.23599e-07
5.23599e-07
5.23599e-07
5.23599e-07
5.23599e-07
5.23599e-07
5.23599e-07
5.23599e-07
5.23599e-07
5.23599e-07
5.23599e-07
5.23599e-07
5.23599e-07
5.23599e-07
5.23599e-07
5.23599e-07
5.23599e-07
5.23599e-07
5.23599e-07
5.23599e-07
5.23599e-07
5.23599e-07
5.23599e-07
5.23599e-07
5.23599e-07
5.23599e-07
5.23599e-07
5.23599e-07
5.23599e-07
5.23599e-07
5.23599e-07
5.23599e-07
5.23599e-07
5.23599e-07
5.23599e-07
5.23599e-07
5.23599e-07
5.23599e-07
5.23599e-07
5.23599e-07
5.23599e-07
5.23599e-07
5.23599e-07
5.23599e-07
5.23599e-07
5.23599e-07
5.23599e-07
5.23599e-07
5.23599e-07
5.23599e-07
5.23599e-07
5.23599e-07
5.23599e-07
5.23599e-07
5.23599e-07
5.23599e-07
5.23599e-07
5.23599e-07
5.23599e-07
5.23599e-07
5.23599e-07
5.23599e-07
5.23599e-07
5.23599e-07
5.23599e-07
5.23599e-07
5.23599e-07
5.23599e-07
5.23599e-07
5.23599e-07
5.23599e-07
5.23599e-07
5.23599e-07
5.23599e-07
5.23599e-07
5.23599e-07
5.23599e-07
5.23599e-07
5.23599e-07
5.23599e-07
5.23599e-07
5.23599e-07
5.23599e-07
5.23599e-07
5.23599e-07
5.23599e-07
5.23599e-07
5.23599e-07
5.23599e-07
5.23599e-07
5.23599e-07
5.23599e-07
5.23599e-07
5.23599e-07
5.23599e-07

VECTORS velocity float
0.00526362 0.013342 0.00709462
0.00483035 -0.00113907 -0.00208168
0.00994183 0.000762825 -0.00281237
-0.00433787 -0.0109732 -0.00959121
-2.3676e-14 4.23972e-11 8.51872e-12
0.00409523 0.00137148 -0.00233296
-0.0326632 0.00741633 -0.00639679
-0.000377118 -0.00108382 0.000804839
0.000655496 -0.000879124 0.000141822
-0.000248893 0.00279304 -0.00823203
0.13184 -0.121528 -0.0394066
0.00783064 0.00709508 -0.00414758
0.0010239 0.000814613 -0.00129331
0.00784043 -0.00231979 0.00710839
-0.0446177 0.00751632 -0.0239798
0.0018346 -0.00122929 0.00147654
-0.000922106 -6.81902e-05 0.000868143
-0.00401235 -0.00654062 -0.0106633
0.00292353 -0.000173318 0.00119313
-3.86246e-16 -6.16795e-17 6.30453e-15
0.00628854 -0.00486589 -0.0155925
0.000357588 0.00035946 -0.0018595
0.00129753 -0.0218013 -0.00308639