LIGGGHTS (Version LIGGGHTS-PUBLIC 3.8.0, compiled 2026-05-30-04:17:57 by root, git commit 3d5c00f20519e6bb6eb6756f51f1ad36564e649d)
##################################Header for General commands#######################################################

atom_style	granular		#Simulation of particles

boundary	f f f			#fixed boundaries -> particles will be deleted if leaving the simulation box

units		si

communicate	multi vel yes		#default

newton		off			#default


###################################System variables##################################################################

#Definition of boundaries

variable xmin equal -0.02
variable xmax equal 0.43

variable ymin equal -0.02
variable ymax equal 0.06

variable zmin equal -0.02
variable zmax equal 0.10

#Definition of the timestep

variable dt equal 1e-6


###################################Specific variables for current simulation#########################################

variable natoms equal 2 				#1 -> particle #2 ->pipe and screw


####variable for material properties####

####Young Modulus####
variable	youngmodulus1	equal 	7e6
variable	youngmodulus2	equal 	2e8

####Poission ratio####
variable 	poission1	equal	0.30
variable 	poission2	equal	0.29


####variable for contact properties####

####coefficient of restitution####
variable	CoR11	equal	0.6
variable	CoR12	equal	0.3
variable	CoR21	equal	0.3
variable	CoR22	equal	0.45

####sliding friction coefficient####
variable	sf11	equal	0.65	#Particle-particle sliding friction coefficient
variable	sf12	equal	0.7
variable	sf21	equal	0.7
variable	sf22	equal	0.0

####rolling friction coefficient####
variable	rf11	equal	0.75	#Particle-particle rolling friction coefficient
variable	rf12	equal	0.6
variable	rf21	equal	0.6
variable	rf22	equal	0.0


####variable for particle####

#Number of particle radius
variable	nradii	equal	3

variable	radius1	equal	0.0005	#m
variable	radius2	equal	0.0005	#m
variable	radius3	equal	0.0005	#m

variable	frac1	equal	0.3945
variable	frac2	equal	0.4059
variable	frac3	equal	0.1996

variable	density	equal	280		#kg/m³


####filling parameters####

variable	filltime	equal	3.0		#s, prueba rápida: alimentar 2 s

variable	dischargetime	equal	90		#s, tiempo para que puedan salir partículas

variable	fillmass	equal	4.4e-5 		#kg, 2 g de material

variable	fillmassrate	equal	${fillmass}/${filltime}	#kg/s
variable	fillmassrate	equal	4.4e-05/${filltime}	
variable	fillmassrate	equal	4.4e-05/3	

variable	fillsteps	equal	${filltime}/${dt}
variable	fillsteps	equal	3/${dt}
variable	fillsteps	equal	3/1e-06

variable	dischargesteps	equal	${dischargetime}/${dt}
variable	dischargesteps	equal	90/${dt}
variable	dischargesteps	equal	90/1e-06


####screw velocities####

variable	screwPeriod	equal	1.029		#s, prueba rápida: 2 vueltas/s


###################################Definition of simulationbox#######################################################

region		reg block ${xmin} ${xmax} ${ymin} ${ymax} ${zmin} ${zmax} units box
region		reg block -0.02 ${xmax} ${ymin} ${ymax} ${zmin} ${zmax} units box
region		reg block -0.02 0.43 ${ymin} ${ymax} ${zmin} ${zmax} units box
region		reg block -0.02 0.43 -0.02 ${ymax} ${zmin} ${zmax} units box
region		reg block -0.02 0.43 -0.02 0.06 ${zmin} ${zmax} units box
region		reg block -0.02 0.43 -0.02 0.06 -0.02 ${zmax} units box
region		reg block -0.02 0.43 -0.02 0.06 -0.02 0.1 units box

processors 6 1 1

create_box	2 reg
Created orthogonal box = (-0.02 -0.02 -0.02) to (0.43 0.06 0.1)
  6 by 1 by 1 MPI processor grid

neighbor	0.001 bin

neigh_modify	delay 0


#################################Definition of the contact models####################################################

pair_style gran model hertz tangential history rolling_friction epsd2

pair_coeff	* *

timestep ${dt}
timestep 1e-06

thermo 10000

fix		integrator all nve/sphere

fix		gravi all gravity 9.81 vector 0.0 0.0 -1.0


###################################Definition of Material properties#################################################

fix 		m1 all property/global youngsModulus peratomtype ${youngmodulus1} ${youngmodulus2}
fix 		m1 all property/global youngsModulus peratomtype 7000000 ${youngmodulus2}
fix 		m1 all property/global youngsModulus peratomtype 7000000 200000000

fix 		m2 all property/global poissonsRatio peratomtype ${poission1} ${poission2}
fix 		m2 all property/global poissonsRatio peratomtype 0.3 ${poission2}
fix 		m2 all property/global poissonsRatio peratomtype 0.3 0.29

fix 		m3 all property/global coefficientRestitution peratomtypepair ${natoms} ${CoR11} ${CoR12} ${CoR21} ${CoR22}
fix 		m3 all property/global coefficientRestitution peratomtypepair 2 ${CoR11} ${CoR12} ${CoR21} ${CoR22}
fix 		m3 all property/global coefficientRestitution peratomtypepair 2 0.6 ${CoR12} ${CoR21} ${CoR22}
fix 		m3 all property/global coefficientRestitution peratomtypepair 2 0.6 0.3 ${CoR21} ${CoR22}
fix 		m3 all property/global coefficientRestitution peratomtypepair 2 0.6 0.3 0.3 ${CoR22}
fix 		m3 all property/global coefficientRestitution peratomtypepair 2 0.6 0.3 0.3 0.45

fix 		m4 all property/global coefficientFriction peratomtypepair ${natoms} ${sf11} ${sf12} ${sf21} ${sf22}
fix 		m4 all property/global coefficientFriction peratomtypepair 2 ${sf11} ${sf12} ${sf21} ${sf22}
fix 		m4 all property/global coefficientFriction peratomtypepair 2 0.65 ${sf12} ${sf21} ${sf22}
fix 		m4 all property/global coefficientFriction peratomtypepair 2 0.65 0.7 ${sf21} ${sf22}
fix 		m4 all property/global coefficientFriction peratomtypepair 2 0.65 0.7 0.7 ${sf22}
fix 		m4 all property/global coefficientFriction peratomtypepair 2 0.65 0.7 0.7 0

fix 		m5 all property/global coefficientRollingFriction peratomtypepair ${natoms} ${rf11} ${rf12} ${rf21} ${rf22}
fix 		m5 all property/global coefficientRollingFriction peratomtypepair 2 ${rf11} ${rf12} ${rf21} ${rf22}
fix 		m5 all property/global coefficientRollingFriction peratomtypepair 2 0.75 ${rf12} ${rf21} ${rf22}
fix 		m5 all property/global coefficientRollingFriction peratomtypepair 2 0.75 0.6 ${rf21} ${rf22}
fix 		m5 all property/global coefficientRollingFriction peratomtypepair 2 0.75 0.6 0.6 ${rf22}
fix 		m5 all property/global coefficientRollingFriction peratomtypepair 2 0.75 0.6 0.6 0


###################################Generation and Loading of the Geometry .stl#######################################

fix case all mesh/surface file case_remesh.stl type 2 heal auto_remove_duplicates scale 1.0 curvature 1e-5 curvature_tolerant yes

fix screw all mesh/surface file screw_simplified.stl type 2 scale 1.0 curvature 1e-5 curvature_tolerant yes

fix 		walls 		all wall/gran model hertz tangential history rolling_friction epsd2 mesh n_meshes 2 meshes case screw

fix		Movescrew	all move/mesh mesh screw rotate origin 0.2024435 0.019051 0.011497 axis -1. 0. 0. period ${screwPeriod}
fix		Movescrew	all move/mesh mesh screw rotate origin 0.2024435 0.019051 0.011497 axis -1. 0. 0. period 1.029

fix feed all mesh/surface file feed.stl type 2 scale 1.0 curvature 1e-5 curvature_tolerant yes

fix outlet all mesh/surface file outlet_1.stl type 2 scale 1.0 curvature 1e-5 curvature_tolerant yes


###################################Generation and Insertion of the particles#########################################

fix pts1 all particletemplate/sphere 10487 atom_type 1 density constant ${density} radius constant ${radius1} volume_limit 1e-18
fix pts1 all particletemplate/sphere 10487 atom_type 1 density constant 280 radius constant ${radius1} volume_limit 1e-18
fix pts1 all particletemplate/sphere 10487 atom_type 1 density constant 280 radius constant 0.0005 volume_limit 1e-18

fix pts2 all particletemplate/sphere 11887 atom_type 1 density constant ${density} radius constant ${radius2} volume_limit 1e-18
fix pts2 all particletemplate/sphere 11887 atom_type 1 density constant 280 radius constant ${radius2} volume_limit 1e-18
fix pts2 all particletemplate/sphere 11887 atom_type 1 density constant 280 radius constant 0.0005 volume_limit 1e-18

fix pts3 all particletemplate/sphere 16561 atom_type 1 density constant ${density} radius constant ${radius3} volume_limit 1e-18
fix pts3 all particletemplate/sphere 16561 atom_type 1 density constant 280 radius constant ${radius3} volume_limit 1e-18
fix pts3 all particletemplate/sphere 16561 atom_type 1 density constant 280 radius constant 0.0005 volume_limit 1e-18

fix 		pdd1 all particledistribution/discrete 32452867 ${nradii} pts1 ${frac1} pts2 ${frac2} pts3 ${frac3}
fix 		pdd1 all particledistribution/discrete 32452867 3 pts1 ${frac1} pts2 ${frac2} pts3 ${frac3}
fix 		pdd1 all particledistribution/discrete 32452867 3 pts1 0.3945 pts2 ${frac2} pts3 ${frac3}
fix 		pdd1 all particledistribution/discrete 32452867 3 pts1 0.3945 pts2 0.4059 pts3 ${frac3}
fix 		pdd1 all particledistribution/discrete 32452867 3 pts1 0.3945 pts2 0.4059 pts3 0.1996

fix		ins_mesh all mesh/surface/planar file feed.stl type 1 scale 1.0

fix 		ins all insert/stream seed 15485863 distributiontemplate pdd1         	mass ${fillmass} massrate ${fillmassrate} overlapcheck yes all_in yes vel constant 0 0 -0.01         	insertion_face ins_mesh extrude_length 0.015
fix 		ins all insert/stream seed 15485863 distributiontemplate pdd1         	mass 4.4e-05 massrate ${fillmassrate} overlapcheck yes all_in yes vel constant 0 0 -0.01         	insertion_face ins_mesh extrude_length 0.015
fix 		ins all insert/stream seed 15485863 distributiontemplate pdd1         	mass 4.4e-05 massrate 1.46666666666667e-05 overlapcheck yes all_in yes vel constant 0 0 -0.01         	insertion_face ins_mesh extrude_length 0.015


################################### Particle Residence Time Track#########################################

fix 	rt_outlet	all massflow/mesh mesh outlet vec_side 0 0 -1 file rt_outlet.txt writeTime

fix 	rt_inlet	all massflow/mesh mesh feed vec_side 0 0 -1 file rt_inlet.txt writeTime


###################################Outlet mass flow track#########################################

fix	mfout	all massflow/mesh mesh outlet vec_side 0 0 -1

fix	mfin	all massflow/mesh mesh feed vec_side 0 0 -1

variable 	time equal step*dt

variable 	in_mass_flow equal	f_mfin[3]

variable 	out_mass_flow equal	f_mfout[3]

fix mass_flow_rate all print 5000 "${time},${in_mass_flow},${out_mass_flow}" screen no title "t,in_mass_flow,out_mass_flow" file massflow.csv


###################################Dumping of the data for post-processing to visualize############################

#fix ts_check all check/timestep/gran 1000 0.1 0.1

shell 	mkdir -p post

variable dumptime equal 3.0		#guarda cada 0.05 s

variable dumpstep equal ${dumptime}/${dt}
variable dumpstep equal 3/${dt}
variable dumpstep equal 3/1e-06

dump	dmpparticle all custom ${dumpstep} post/particles_*.liggghts id type x y z vx vy vz fx fy fz radius mass
dump	dmpparticle all custom 3000000 post/particles_*.liggghts id type x y z vx vy vz fx fy fz radius mass

dump_modify	dmpparticle sort id

dump	dmpscrew	all	mesh/stl ${dumpstep} post/screw_*.stl screw
dump	dmpscrew	all	mesh/stl 3000000 post/screw_*.stl screw


####################################RUN the simulation filling and discharge###########################################################

run	${fillsteps}
run	3000000
Setting up run at Sat May 30 18:53:25 2026

WARNING: Fix mesh: Mesh contains highly skewed element, moving mesh (if used) will not parallelize well (../surface_mesh_I.h:657)
WARNING: Fix mesh: Mesh contains highly skewed element, moving mesh (if used) will not parallelize well (../surface_mesh_I.h:657)
INFO: Particle insertion ins: 150.060375 particles every 1500000 steps - particle rate 100.040250, (mass rate 1.466667e-05)
      300 particles (mass 4.398230e-05) within 1500000 steps
Memory usage per processor = 15.6054 Mbytes
    Step    Atoms         KinEng            CPU 
       0        0              0              0 
INFO: Particle insertion ins: inserted 150 particle templates (mass 2.199115e-05) at step 1
 - a total of 150 particle templates (mass 2.199115e-05) inserted so far.
   10000      150  1.0995574e-09      35.303331 
   20000      150  1.0995574e-09      63.886522 
   30000      150  1.0995574e-09      92.243819 
   40000      150  1.0995574e-09      122.47456 
   50000      150  1.0995574e-09      147.99833 
   60000      150  1.5265946e-09       177.5248 
   70000      150  3.7193474e-09      205.80439 
   80000      150  5.0382631e-09       230.7807 
   90000      150  5.1237278e-09       258.5012 
  100000      150  8.5206608e-09      286.34378 
  110000      150  7.0240138e-09       314.0935 
  120000      150  1.3684884e-08       341.6041 
  130000      150  7.2086887e-09      367.73666 
  140000      150  6.5660616e-09      395.29643 
  150000      150  7.3103187e-09      420.21117 
  160000      150  4.1984286e-09      440.60494 
  170000      150  4.3037571e-09      469.59315 
  180000      150  6.2593765e-09      496.13618 
  190000      150  2.6348638e-09      518.71811 
  200000      150  6.3824266e-09      542.20655 
  210000      150  4.2641026e-09       569.2611 
  220000      150  9.1270687e-09      595.18754 
  230000      150  5.1571413e-09      623.45627 
  240000      150  2.1936748e-07      650.68775 
  250000      150  2.1164615e-08      675.60596 
  260000      150  5.8284548e-09      702.63134 
  270000      150  4.7689234e-09      727.30421 
  280000      150  2.7101434e-09      756.06976 
  290000      150  3.0454809e-09      789.37458 
  300000      150  4.5632901e-09      821.20357 
  310000      150  4.5406091e-09      859.33815 
  320000      150  3.0939598e-09      896.87295 
  330000      150  3.9965702e-09      932.81931 
  340000      150  7.7390078e-09      971.98102 
  350000      150  9.9569856e-09       1010.355 
  360000      150  6.1530493e-09      1045.6854 
  370000      150  5.7139986e-09      1079.8638 
  380000      150  5.7755369e-09      1117.4262 
  390000      150  8.2679446e-09      1153.6843 
  400000      150  3.9875044e-09      1189.7486 
  410000      150  2.6103972e-08      1226.8005 
  420000      150  7.7444946e-09      1262.4542 
  430000      150  5.3920639e-09      1297.6657 
  440000      150  7.9012346e-09      1333.4738 
  450000      150  7.8859843e-09      1371.7731 
  460000      150  9.7496447e-09      1409.7976 
  470000      150  7.7491834e-09      1448.4756 
  480000      150  4.9050394e-09      1486.5805 
  490000      150  7.1443821e-09      1525.3341 
  500000      150  8.5657715e-09      1559.9335 
  510000      150  1.3907391e-05      1598.6835 
  520000      150  7.4871188e-09      1635.2567 
  530000      150  2.0875648e-07      1673.4009 
  540000      150  6.7094849e-08      1712.7033 
  550000      150  5.4864745e-08      1751.8545 
  560000      150  1.7160813e-07      1792.6508 
  570000      150  5.4782502e-08      1831.4324 
  580000      150  3.2489176e-08      1874.4571 
  590000      150  2.8337611e-08      1913.6571 
  600000      150  1.7090317e-08       1953.356 
  610000      150  1.2347238e-08      1993.7025 
  620000      150  7.7356113e-09      2035.8424 
  630000      150  7.9332036e-09      2076.1848 
  640000      150  9.1040124e-09      2116.3918 
  650000      150  1.4776705e-08      2154.1237 
  660000      150  1.5258746e-08       2196.175 
  670000      150  1.8910371e-08      2235.3292 
  680000      150  2.8959634e-08      2277.1975 
  690000      150  3.5607631e-08      2318.6488 
  700000      150  4.0130269e-08      2358.7521 
  710000      149  2.8201071e-09       2402.809 
  720000      149  3.9980272e-09      2444.2078 
  730000      149   7.134883e-09      2487.6645 
  740000      149  4.4159636e-09      2531.3588 
  750000      149  3.4692016e-09      2573.8223 
  760000      149  8.7652451e-09      2617.4601 
  770000      149  5.4880905e-09      2659.0897 
  780000      149  3.4926624e-09      2701.2362 
  790000      149   5.934973e-09      2743.0842 
  800000      149  1.2865153e-08      2787.7329 
  810000      149  1.2173328e-08      2828.7656 
  820000      149  8.3984342e-09      2867.9777 
  830000      149  9.4744687e-09      2910.3569 
  840000      149  1.0434171e-08      2955.5443 
  850000      149  2.9018722e-08      3001.0635 
  860000      149   4.751525e-08      3048.1088 
  870000      149  1.7327854e-08      3093.2236 
  880000      149  6.3917854e-09      3132.7528 
  890000      149  1.0618289e-08      3178.2012 
  900000      149  1.3709776e-08      3221.3298 
  910000      149  4.2390391e-07       3265.144 
  920000      149  1.2081998e-07      3310.9764 
  930000      149  6.1316729e-08      3354.4555 
  940000      149  4.0811977e-08      3400.4444 
  950000      149  3.5044083e-08      3441.6753 
  960000      149  5.1149716e-08      3486.4116 
  970000      149  2.7305536e-08      3536.6818 
  980000      149   5.424947e-07      3585.7495 
  990000      149  3.8900533e-07      3634.5606 
 1000000      149  3.3028002e-07      3678.3275 
 1010000      149  2.8240358e-07      3724.2946 
 1020000      149  2.5705408e-07      3768.3929 
 1030000      148  2.9044056e-08      3814.2323 
 1040000      148  3.3967178e-08      3858.0932 
 1050000      148  1.0699906e-07      3904.2206 
 1060000      148  4.6151683e-08      3951.2218 
 1070000      148  6.2896547e-08      3997.7951 
 1080000      148  7.0145214e-08      4044.7183 
 1090000      147  1.1179618e-08       4092.325 
 1100000      147  4.5055872e-09       4140.855 
 1110000      147  5.0517755e-09      4187.7044 
 1120000      147  4.7626228e-09      4231.7666 
 1130000      147  1.4092995e-08      4276.5242 
 1140000      147  1.0400598e-08      4323.7708 
 1150000      147   3.549219e-09      4372.7874 
 1160000      147  6.5037347e-08      4421.2161 
 1170000      147  1.0475611e-08      4465.5531 
 1180000      147  5.9757141e-09      4515.4918 
 1190000      147  8.0213663e-09      4566.4043 
 1200000      147  7.4057112e-09      4619.1236 
 1210000      147  3.8064161e-09       4669.138 
 1220000      147   6.769831e-09      4719.7713 
 1230000      147  3.9985398e-09      4765.4126 
 1240000      147  7.0617987e-09      4816.0293 
 1250000      147  1.6478722e-08      4858.4761 
 1260000      147  1.6807401e-08      4905.2534 
 1270000      147  2.5276113e-08       4952.625 
 1280000      147  4.8987762e-09      5002.2787 
 1290000      147  3.9751484e-08      5048.6939 
 1300000      147  3.2788465e-08       5093.845 
 1310000      147  1.1611283e-08      5144.7574 
 1320000      147  7.5127609e-09      5190.3958 
 1330000      147  1.3289361e-08      5236.2319 
 1340000      147  2.5377405e-08      5283.1398 
 1350000      147  3.3956983e-08      5332.5117 
 1360000      147  2.3611703e-08      5380.4736 
 1370000      147  4.3080365e-08      5425.7028 
 1380000      147  1.7789087e-08      5472.4843 
 1390000      147  1.2797916e-08      5520.7185 
 1400000      147  1.2536375e-07      5568.9293 
 1410000      147  1.1268243e-08      5615.0955 
 1420000      147   1.277675e-08      5663.4456 
 1430000      147  2.0670438e-08      5712.5376 
 1440000      147  2.5572927e-08      5761.2647 
 1450000      147   3.386148e-08      5809.8082 
 1460000      147  4.4598476e-08      5861.7668 
 1470000      147  5.3138504e-08      5912.6466 
 1480000      147   2.702304e-08      5963.9436 
 1490000      147  2.1468289e-08      6012.5433 
 1500000      147  1.9918146e-06      6065.4146 
INFO: Particle insertion ins: inserted 150 particle templates (mass 2.199115e-05) at step 1500001
 - a total of 300 particle templates (mass 4.398230e-05) inserted so far.
 1510000      297  3.5694702e-08      6117.2731 
 1520000      297  3.6537651e-08      6169.4363 
 1530000      297  8.5690582e-08      6216.3732 
 1540000      297   4.443585e-08      6269.5349 
 1550000      297  3.5544493e-08      6325.5183 
 1560000      297  2.6613944e-08      6376.0428 
 1570000      297  2.1417971e-08      6430.6831 
 1580000      297  4.7600952e-08      6484.0563 
 1590000      297  1.0162652e-06      6537.1563 
 1600000      297  1.2572249e-07      6586.6406 
 1610000      297  1.6346662e-07      6634.0808 
 1620000      297  7.5734313e-08       6683.123 
 1630000      297  4.2715098e-08      6732.0553 
 1640000      297  2.6633973e-08       6782.496 
 1650000      297  1.7854345e-07      6833.7233 
 1660000      297  2.2429476e-08      6891.3007 
 1670000      297  2.3236003e-08      6950.9346 
 1680000      297  4.2369512e-07      7007.7271 
 1690000      297  5.5966696e-08      7061.5898 
 1700000      297  6.1938115e-08      7116.1472 
 1710000      297  4.8626755e-08       7172.794 
 1720000      297  4.8469758e-08       7231.019 
 1730000      297  4.7924817e-08      7292.0973 
 1740000      297  1.3635449e-07      7345.4743 
 1750000      297  1.2353032e-07      7400.5327 
 1760000      297  1.0900586e-07       7457.201 
 1770000      297  1.1471872e-07      7510.6362 
 1780000      296  3.1905167e-08      7568.0847 
 1790000      296  2.7484782e-08      7627.7893 
 1800000      296  3.4355063e-08      7688.1286 
 1810000      296  3.6673533e-08      7744.2361 
 1820000      296  1.5032543e-07      7804.5329 
 1830000      296  1.2037472e-07      7856.5681 
 1840000      296  4.4691045e-08      7910.7117 
 1850000      296   2.255457e-07      7963.5965 
 1860000      296  5.4977277e-08      8014.3005 
 1870000      296  4.0518256e-08      8072.2043 
 1880000      296  4.4569039e-08       8132.914 
 1890000      296  5.2564636e-08      8192.0204 
 1900000      296  2.2414302e-07      8246.9453 
 1910000      296  9.5692708e-06      8311.9531 
 1920000      295  3.2742808e-07      8378.5905 
 1930000      295  8.4598526e-07      8432.4642 
 1940000      294  3.0245147e-06      8490.9475 
 1950000      294  6.0739902e-08      8549.5734 
 1960000      294  4.7245316e-08      8606.2013 
 1970000      294  3.2844267e-08      8667.5792 
 1980000      294  2.3097789e-07      8724.3367 
 1990000      294  2.1730275e-07       8783.784 
 2000000      294  1.7615609e-07      8838.5921 
 2010000      294  3.1792579e-07      8895.4826 
 2020000      294  1.9099189e-07      8953.6581 
 2030000      294  1.4592547e-07      9010.4043 
 2040000      293  8.2677029e-08      9066.6249 
 2050000      293  5.3038201e-08      9123.8498 
 2060000      293  5.5252176e-08      9183.7204 
 2070000      293  7.2133941e-08      9237.4909 
 2080000      293  7.8845697e-08      9298.7162 
 2090000      293  3.5803783e-07      9361.8864 
 2100000      293  2.9541626e-07      9426.0721 
 2110000      293   2.665476e-07      9488.6799 
 2120000      293  6.6784607e-07      9544.0884 
 2130000      292  2.2907646e-06      9605.9316 
 2140000      292  3.1042899e-07      9663.3012 
 2150000      292  1.1861328e-07      9721.5653 
 2160000      292  1.4599067e-07      9775.9521 
 2170000      292  1.0211331e-07       9831.385 
 2180000      291  6.7912644e-08      9886.4717 
 2190000      291  2.7339304e-08      9941.3546 
 2200000      291  4.1514212e-08      10004.869 
 2210000      291  3.9644913e-08      10064.399 
 2220000      291   4.759818e-08      10119.231 
 2230000      291  3.8968193e-08      10177.241 
 2240000      291   6.764575e-08      10241.872 
 2250000      291  3.6029029e-07      10301.821 
 2260000      291  2.6277283e-07      10359.909 
 2270000      291  1.0021975e-07      10419.308 
 2280000      291  3.3748634e-07      10475.882 
 2290000      291  2.6585789e-07      10536.512 
 2300000      291  5.4688324e-06      10594.574 
 2310000      290  1.9925542e-06      10650.644 
 2320000      290  9.1673592e-08      10711.271 
 2330000      290  1.2614039e-07      10776.121 
 2340000      290  1.4821907e-07      10837.674 
 2350000      290  6.2827145e-08      10893.305 
 2360000      290  5.7084644e-08       10949.55 
 2370000      290  1.6109425e-07      11007.163 
 2380000      290  2.5890006e-07      11067.187 
 2390000      290  1.2196184e-07      11124.417 
 2400000      290  1.4572949e-06      11182.943 
 2410000      290  1.9188085e-07      11239.708 
 2420000      290  1.2602068e-07       11294.14 
 2430000      290   1.442127e-07      11351.271 
 2440000      290  9.7216505e-08      11413.351 
 2450000      290  5.5495703e-07      11473.344 
 2460000      289    1.07431e-07      11533.277 
 2470000      289  6.0506677e-08      11595.416 
 2480000      289  1.8426867e-07      11657.309 
 2490000      289  4.5068536e-08      11715.766 
 2500000      289  2.9109906e-06      11777.062 
 2510000      289   1.359724e-07      11839.761 
 2520000      289  1.7038906e-07      11901.417 
 2530000      289   3.965357e-07      11964.568 
 2540000      289  1.2056914e-07      12027.428 
 2550000      289  1.3453715e-07       12086.05 
 2560000      289  1.1355157e-07      12149.256 
 2570000      289    1.32101e-07      12213.721 
 2580000      289  3.0658649e-07      12276.404 
 2590000      289  3.1182582e-07      12338.748 
 2600000      288   1.292793e-07      12401.787 
 2610000      288  1.5681262e-06      12463.487 
 2620000      288  2.2281673e-07      12526.405 
 2630000      287  2.5792342e-07      12588.101 
 2640000      287  1.2432531e-07       12648.23 
 2650000      287  9.4467885e-08      12703.711 
 2660000      286  7.6845796e-08      12765.503 
 2670000      286  4.6114709e-08      12828.749 
 2680000      286  3.0425733e-08       12889.26 
 2690000      286  2.9839911e-08      12950.738 
 2700000      286  4.7235452e-08      13008.297 
 2710000      286  1.1376874e-06      13066.163 
 2720000      286  1.1452553e-07      13122.095 
 2730000      286  3.8510994e-08       13183.68 
 2740000      286  2.7658447e-08      13247.633 
 2750000      286  2.7788773e-08      13314.607 
 2760000      286   2.690633e-08       13381.44 
 2770000      286  1.1270412e-08      13444.421 
 2780000      286  8.8209939e-09      13509.365 
 2790000      286   8.584364e-09      13569.748 
 2800000      286  9.9408498e-08       13638.43 
 2810000      286   3.856786e-08      13701.947 
 2820000      286   1.076362e-07       13768.45 
 2830000      286   5.558783e-08      13831.814 
 2840000      286  3.2440475e-08      13896.207 
 2850000      286  1.7889367e-08      13961.191 
 2860000      286  1.9557522e-08      14028.474 
 2870000      286  1.6546502e-08      14087.782 
 2880000      286  2.2743315e-08      14150.731 
 2890000      286  1.5889505e-08      14210.931 
 2900000      286  4.1712134e-08      14277.362 
 2910000      286  2.0519126e-08      14343.196 
 2920000      286  2.5026386e-08      14409.655 
 2930000      286  1.2117229e-07      14474.432 
 2940000      286  5.1188758e-08       14539.15 
 2950000      286  5.7180839e-08      14612.051 
 2960000      286  1.0274495e-07      14681.333 
 2970000      286  1.0330286e-07      14746.824 
 2980000      286   5.931482e-07       14810.33 
 2990000      285  2.9163248e-07      14874.213 
 3000000      285  1.8344341e-07      14939.325 
Loop time of 14939.3 on 6 procs for 3000000 steps with 285 atoms, finish time Sat May 30 23:02:28 2026


Pair  time (%) = 72.5888 (0.485891)
Neigh time (%) = 5.22672 (0.0349863)
Comm  time (%) = 22.8169 (0.152731)
Outpt time (%) = 5.10482 (0.0341703)
Other time (%) = 14833.6 (99.2922)

Nlocal:    47.5 ave 283 max 0 min
Histogram: 5 0 0 0 0 0 0 0 0 1
Nghost:    0 ave 0 max 0 min
Histogram: 6 0 0 0 0 0 0 0 0 0
Neighs:    275.167 ave 1651 max 0 min
Histogram: 5 0 0 0 0 0 0 0 0 1

Total # of neighbors = 1651
Ave neighs/atom = 5.79298
Neighbor list builds = 3252
Dangerous builds = 0

unfix	ins

run	${dischargesteps}
run	90000000
Setting up run at Sat May 30 23:02:28 2026

Memory usage per processor = 20.9137 Mbytes
    Step    Atoms         KinEng            CPU 
 3000000      285  1.8344341e-07              0 
 3010000      285  1.3664241e-07       62.76828 
 3020000      285   1.126945e-07      126.33028 
 3030000      285  8.4229343e-08      184.15383 
 3040000      285  7.8601075e-08      241.71238 
 3050000      285  6.9960339e-08      303.85609 
 3060000      285  4.9851811e-08      363.06885 
 3070000      285  3.1072464e-08      424.75171 
 3080000      285  3.4800819e-08      490.28918 
 3090000      285  3.8847458e-08      557.74843 
 3100000      285  1.2020931e-07      623.97859 
 3110000      285  1.5304007e-07      684.56071 
 3120000      285    1.49922e-07      747.99526 
 3130000      285  1.0073981e-07      814.99098 
 3140000      285  2.4594916e-07      871.50512 
 3150000      285  2.0501715e-07      939.50584 
 3160000      285  1.4052863e-07      1003.4487 
 3170000      285  1.5188054e-07      1069.8292 
 3180000      285  1.3889438e-07       1132.565 
 3190000      285  1.4151606e-07      1198.0329 
 3200000      285  1.5939826e-07      1268.5894 
 3210000      284  7.4309335e-08      1343.3709 
 3220000      284  8.8930691e-08      1411.3412 
 3230000      283  3.8542644e-08      1485.9169 
 3240000      283  2.9252025e-08      1551.2439 
 3250000      282   3.320483e-08      1626.3916 
 3260000      282  5.6806699e-08       1687.084 
 3270000      282  4.0284713e-08      1750.4594 
 3280000      282  2.2343717e-07      1816.2791 
 3290000      282  1.2341079e-07      1879.9579 
 3300000      282  2.0372243e-07      1951.1954 
 3310000      282  1.1970605e-07       2017.516 
 3320000      282  4.3539527e-07      2087.3202 
 3330000      282  3.1205661e-06       2153.486 
 3340000      282  5.0481087e-06       2218.107 
 3350000      282  5.5144432e-07      2283.1744 
 3360000      282  1.9461303e-07       2340.637 
 3370000      282   1.329263e-07       2398.346 
 3380000      281  8.3516335e-08      2464.7938 
 3390000      281  7.7927715e-08      2531.1183 
 3400000      281  1.9579565e-07      2598.8638 
 3410000      281  2.1437724e-07        2666.92 
 3420000      281  1.8205269e-07      2729.7567 
 3430000      281  1.8358113e-07       2789.911 
 3440000      280  8.5801584e-07      2855.9714 
 3450000      280  4.3588446e-07      2919.1151 
 3460000      280   7.415029e-07      2986.5192 
 3470000      279   8.330011e-07      3050.2537 
 3480000      279  7.6932204e-07      3114.4689 
 3490000      279   5.478484e-07      3178.2614 
 3500000      278  1.9897221e-07      3242.2804 
 3510000      277  1.1910881e-07      3301.8322 
 3520000      277   7.500241e-08      3366.1054 
 3530000      277  5.9091255e-08      3424.3949 
 3540000      277  1.1411994e-07      3491.2475 
 3550000      276  1.9157357e-07      3551.8037 
 3560000      276   6.382038e-08      3613.3499 
 3570000      276  1.3225939e-07      3672.0873 
 3580000      276  5.0024317e-07      3728.3563 
 3590000      276  7.9678149e-06      3793.1731 
 3600000      276  1.2454878e-07      3853.3446 
 3610000      276  1.0893458e-07      3913.4366 
 3620000      276  6.8652991e-08      3972.9113 
 3630000      276  4.5521118e-07      4033.9889 
 3640000      276  2.6104454e-06      4098.1344 
 3650000      276  4.1328342e-06      4160.3369 
 3660000      275  1.7648578e-06      4223.2072 
 3670000      274  1.3031039e-06      4289.1102 
 3680000      273  1.4763377e-06      4353.2891 
 3690000      273  3.1589816e-07      4414.9241 
 3700000      272   1.504862e-07      4477.2864 
 3710000      272  1.1581462e-07      4534.5339 
 3720000      272  1.4261135e-07      4600.4084 
 3730000      272  9.3810544e-08      4666.6489 
 3740000      272  9.6686839e-08      4731.8948 
 3750000      271  5.9049031e-08       4792.636 
 3760000      270  4.7335944e-08      4855.0957 
 3770000      270  4.7866753e-08      4915.2602 
 3780000      270  7.2165924e-08      4977.3877 
 3790000      270  1.0264897e-07      5040.5361 
 3800000      270  1.2244105e-07      5102.4042 
 3810000      270  6.7177484e-07       5170.101 
 3820000      270  9.7879152e-08      5228.6213 
 3830000      270  2.6932303e-07      5287.8162 
 3840000      270  2.1915547e-07      5351.5241 
 3850000      269  1.7736427e-07      5419.0895 
 3860000      269  1.1460984e-07      5480.6651 
 3870000      269  3.2290196e-07       5542.897 
 3880000      269  2.4117628e-07      5609.4734 
 3890000      269  3.1000988e-07      5674.4212 
 3900000      269  3.3797456e-07      5739.0242 
 3910000      269  4.9671889e-07      5807.8309 
 3920000      269   1.353312e-07      5873.0966 
 3930000      269  7.0243905e-08      5939.7736 
 3940000      269  1.9025525e-07      6002.5326 
 3950000      269  2.0246774e-07      6068.7006 
 3960000      269  2.0712822e-07       6133.154 
 3970000      269  2.1598981e-07      6200.8895 
 3980000      269  2.9018902e-07      6267.8786 
 3990000      269   1.320983e-07      6334.7518 
 4000000      268  3.8287891e-08      6397.6812 
 4010000      268  1.1989962e-06      6455.3586 
 4020000      268  6.2918745e-08      6509.8345 
 4030000      268  4.1796439e-08      6571.2506 
 4040000      268  3.1479081e-08      6636.3301 
 4050000      268  3.1103901e-08      6699.8992 
 4060000      268   1.998958e-08      6765.8433 
 4070000      268  2.2561714e-08      6829.6271 
 4080000      268  7.4682826e-07      6893.0431 
 4090000      268  6.3592484e-07       6959.791 
 4100000      268  5.2467067e-07      7024.3452 
 4110000      268  4.6540385e-07      7090.3769 
 4120000      268  4.0222435e-07      7156.9611 
 4130000      267  1.8855906e-07      7220.2591 
 4140000      267  3.1587991e-07      7283.6805 
 4150000      267  1.7625524e-06       7341.899 
 4160000      267  1.8270709e-07      7407.2962 
 4170000      267  1.6942486e-06      7475.5358 
 4180000      265  1.4097044e-07      7542.8395 
 4190000      265  4.3493787e-08      7607.1892 
 4200000      265  3.5446008e-07      7665.4246 
 4210000      265  2.9341418e-07      7724.9759 
 4220000      264  2.1435325e-07      7786.0736 
 4230000      264   1.716294e-07      7846.8367 
 4240000      264  2.3062554e-07      7908.7821 
 4250000      264  1.9093634e-07      7972.7651 
 4260000      264  1.7167365e-07      8041.1069 
 4270000      264  7.7732733e-07       8106.125 
 4280000      264  9.7239954e-05      8170.6786 
 4290000      264  5.7149871e-05       8235.275 
 4300000      264  2.3374741e-07      8296.6873 
 4310000      264  1.7509757e-07      8360.5951 
 4320000      264  3.9969358e-07      8419.5055 
 4330000      264  5.6243104e-07      8477.0886 
 4340000      264  1.8895536e-07      8538.1423 
 4350000      263  1.0465053e-06      8598.2611 
 4360000      263  1.3254517e-05      8664.0476 
 4370000      263  7.4309484e-06      8724.0496 
 4380000      263  1.4813304e-06      8778.3162 
 4390000      263  2.9790601e-06      8835.5941 
 4400000      262  1.8968458e-06      8897.9047 
 4410000      261  5.0506144e-07      8958.2855 
 4420000      260  9.5800136e-07      9020.9317 
 4430000      260  5.7161541e-07      9079.5046 
 4440000      259  1.0937459e-06      9141.2872 
 4450000      259  4.6989706e-07      9195.9591 
 4460000      258  5.0631685e-07      9254.0916 
 4470000      257   9.669268e-07      9314.4099 
 4480000      257  6.2429069e-07      9378.6333 
 4490000      257  2.0011529e-06      9442.2748 
 4500000      256  1.8243048e-06      9508.0877 
 4510000      255  1.2398779e-06      9571.1955 
 4520000      255  5.7033695e-07      9635.8322 
 4530000      254  2.2928893e-05      9702.1743 
 4540000      253  2.7696026e-07      9765.9263 
 4550000      252  2.1694265e-07      9835.8413 
 4560000      252  1.6815622e-07      9898.5608 
 4570000      252  2.6568288e-07      9964.2063 
 4580000      252  3.7261354e-07      10031.462 
 4590000      251  6.7679002e-07      10089.546 
 4600000      250  5.6959401e-07      10155.423 
 4610000      250  5.7759252e-07      10213.764 
 4620000      250  5.7242869e-07      10272.687 
 4630000      250  3.1701697e-07      10335.573 
 4640000      250  6.3126106e-07      10400.561 
 4650000      250  5.7428904e-07      10461.035 
 4660000      250  2.3940344e-07       10520.68 
 4670000      249   2.383315e-07      10581.474 
 4680000      249  3.0665491e-07      10642.504 
 4690000      249  2.5280101e-07      10701.408 
 4700000      249  5.9833089e-07      10765.023 
 4710000      249  4.8560764e-07      10829.369 
 4720000      249  7.5979421e-07      10889.249 
 4730000      249  4.0751455e-07       10949.02 
 4740000      249  1.9186709e-07      11013.083 
 4750000      249  3.7639377e-07      11077.087 
 4760000      249  4.0840589e-07      11140.014 
 4770000      247  1.3250371e-07      11201.987 
 4780000      247  1.4157261e-07      11264.255 
 4790000      247  7.5217579e-08      11323.183 
 4800000      247  6.8521777e-08       11379.55 
 4810000      246  3.9884283e-07      11436.194 
 4820000      246  5.8201602e-08      11497.104 
 4830000      246  5.1292265e-08      11552.875 
 4840000      246  5.1927194e-08       11614.39 
 4850000      246  1.6180143e-07      11671.954 
 4860000      246  2.1454181e-07      11728.698 
 4870000      246  1.6185867e-05      11787.714 
 4880000      246  5.4657857e-06      11845.712 
 4890000      245    4.23579e-07      11904.041 
 4900000      245  4.7443677e-07      11961.807 
 4910000      245  2.5445143e-07      12018.806 
 4920000      245  2.2997904e-07      12071.519 
 4930000      245  4.2472423e-07      12130.093 
 4940000      245  6.6911139e-07      12191.631 
 4950000      244  2.8453043e-07       12244.53 
 4960000      244  7.0257026e-07      12303.877 
 4970000      244  1.9376007e-06       12366.23 
 4980000      244  1.2776094e-06      12425.755 
 4990000      244  1.2681014e-06      12488.106 
 5000000      244   9.796629e-07      12544.974 
 5010000      242  3.8072642e-07      12604.068 
 5020000      242  3.0847569e-07      12662.844 
 5030000      242  2.6398809e-07      12715.862 
 5040000      242  2.4734139e-07      12772.761 
 5050000      241   1.807268e-07      12827.099 
 5060000      241  1.8220389e-07      12880.795 
 5070000      239  9.2154695e-08       12937.73 
 5080000      238  4.2486179e-08      12996.859 
 5090000      238  9.2175842e-08      13048.735 
 5100000      238  8.6841923e-08      13107.787 
 5110000      238  6.8862517e-08      13170.599 
 5120000      238  1.0936095e-07      13229.529 
 5130000      238  1.2361218e-07      13292.886 
 5140000      238   1.044077e-07       13349.85 
 5150000      238  1.0864793e-07      13405.562 
 5160000      238  1.2246434e-07      13463.799 
 5170000      238  1.1798798e-07      13524.673 
 5180000      238  1.3855936e-07      13582.948 
 5190000      237  8.1713476e-08      13638.174 
 5200000      237  9.9554596e-07      13693.781 
 5210000      237  1.3519887e-07      13751.748 
 5220000      237  8.9974713e-07      13805.533 
 5230000      237  1.2896186e-06      13861.299 
 5240000      237  2.1152301e-06      13919.427 
 5250000      237  1.5510396e-06      13973.923 
 5260000      237  2.0415759e-06      14032.228 
 5270000      236  1.5699359e-06      14088.423 
 5280000      234  1.2405681e-06      14149.076 
 5290000      231  4.8904513e-07       14206.01 
 5300000      230  2.7914467e-07       14260.66 
 5310000      230  2.3573646e-07       14321.67 
 5320000      230  1.7826412e-07      14377.488 
 5330000      230  1.6987162e-07      14438.948 
 5340000      230  1.6053726e-07       14496.79 
 5350000      230  1.6013717e-07      14552.866 
 5360000      230  1.7394616e-07      14609.427 
 5370000      230  1.5887502e-07      14667.641 
 5380000      230  1.7926289e-07      14729.093 
 5390000      229  1.7624207e-07      14784.027 
 5400000      229  2.4195126e-07       14843.33 
 5410000      229  2.4415825e-07      14907.911 
 5420000      229  3.6307527e-06      14967.482 
 5430000      228  3.3765486e-06      15024.802 
 5440000      227  1.3839383e-06      15084.561 
 5450000      227  1.5433639e-06      15145.409 
 5460000      226  4.3574137e-07       15203.61 
 5470000      225  7.1117831e-08      15262.988 
 5480000      225  4.7713444e-06      15321.652 
 5490000      225  2.0805214e-07      15382.963 
 5500000      225  6.3183179e-07      15443.038 
 5510000      225   6.108877e-07       15500.13 
 5520000      225  5.8876576e-07      15557.281 
 5530000      224  1.6123846e-07      15609.773 
 5540000      224  3.1227479e-08      15665.926 
 5550000      224  1.2641101e-07      15724.727 
 5560000      224  8.5890198e-08       15786.33 
 5570000      224  1.7575552e-07      15846.609 
 5580000      224  5.1855183e-07      15910.965 
 5590000      224  6.5253615e-07      15968.911 
 5600000      224  6.4928454e-07      16029.161 
 5610000      224  6.1738536e-07      16087.612 
 5620000      223  6.0032814e-07      16146.156 
 5630000      222  2.4963009e-07       16201.69 
 5640000      222  1.0546125e-07      16261.966 
 5650000      222  9.8826193e-08      16314.314 
 5660000      222  5.0723865e-07      16376.403 
 5670000      222  3.7090895e-07      16435.726 
 5680000      222  9.2251291e-07      16491.755 
 5690000      221   1.198121e-07      16546.988 
 5700000      221  1.2074912e-07      16602.218 
 5710000      221  3.2819856e-07      16662.997 
 5720000      221  2.3905118e-07       16717.54 
 5730000      221  1.0365617e-06      16774.481 
 5740000      221  1.0594649e-06      16827.596 
 5750000      221  3.4146176e-07      16882.818 
 5760000      221   5.308193e-07      16935.966 
 5770000      221  4.0856445e-07      16993.118 
 5780000      221   5.006937e-07       17051.86 
 5790000      220  6.2701088e-07      17107.243 
 5800000      219  2.1963081e-07      17168.076 
 5810000      218  4.5631171e-07       17225.37 
 5820000      218  2.2933593e-07      17280.786 
 5830000      218  2.1539236e-07      17341.903 
 5840000      218  7.1093267e-07      17403.583 
 5850000      218  5.8300714e-07      17465.025 
 5860000      217  2.8879048e-07      17523.798 
 5870000      216  2.5782463e-07      17581.632 
 5880000      216  2.4311238e-07       17640.49 
 5890000      216  2.8675414e-07      17703.504 
 5900000      215  1.0172311e-05      17759.103 
 5910000      215  7.2475789e-07      17817.938 
 5920000      214  4.7217375e-07      17878.894 
 5930000      213  9.8224942e-07       17937.07 
 5940000      213  5.2132943e-07      17994.422 
 5950000      213  4.2307957e-07      18052.167 
 5960000      213  2.9889226e-07      18105.984 
 5970000      213   2.600885e-07      18166.541 
 5980000      213  2.2926649e-07      18225.169 
 5990000      212  3.9916203e-07      18278.883 
 6000000      212  2.6946808e-07       18342.73 
 6010000      212  2.3251516e-07      18395.542 
 6020000      212  2.0089698e-07       18451.38 
 6030000      212  1.8770224e-07      18504.757 
 6040000      212  1.8906575e-07      18562.915 
 6050000      212  1.4468217e-07      18619.898 
 6060000      211  5.6952532e-08      18677.926 
 6070000      211  6.5863958e-08      18734.103 
 6080000      211  5.3190536e-08      18789.914 
 6090000      211  5.7496859e-08      18847.528 
 6100000      211  6.9520179e-08       18905.13 
 6110000      211  8.6550314e-08      18967.361 
 6120000      211  2.3250262e-07      19021.073 
 6130000      210  1.8551799e-07       19072.36 
 6140000      209  2.6349327e-08      19131.075 
 6150000      209  3.9004128e-08      19186.085 
 6160000      209  2.0533047e-08      19245.246 
 6170000      209  1.8013746e-07      19304.959 
 6180000      209  1.9105063e-07      19355.645 
 6190000      209  1.2718307e-07      19416.914 
 6200000      209  1.0202012e-07      19478.917 
 6210000      209  9.3533659e-07      19539.074 
 6220000      209   2.738714e-07      19598.376 
 6230000      209  2.3166054e-07      19658.598 
 6240000      209  1.7737079e-06      19715.562 
 6250000      209  2.3812142e-07      19773.993 
 6260000      209  1.8307888e-07      19832.322 
 6270000      208  3.1906579e-07      19892.166 
 6280000      208  1.8997657e-07      19949.137 
 6290000      207  2.0887577e-07      20004.619 
 6300000      207  3.6652725e-08      20065.299 
 6310000      207  3.0304892e-08      20124.545 
 6320000      207  2.8209061e-08      20186.087 
 6330000      207  3.7568551e-07      20243.434 
 6340000      207  7.0200373e-07      20303.534 
 6350000      207  2.4078151e-07        20360.1 
 6360000      207  2.2569396e-07       20416.09 
 6370000      207  1.3526813e-07      20469.991 
 6380000      207  9.8848423e-08       20527.07 
 6390000      207  9.2947495e-08      20584.793 
 6400000      207  7.1069628e-08      20643.743 
 6410000      207  2.3363789e-07      20701.157 
 6420000      207  1.1740731e-07      20759.101 
 6430000      207  7.1038013e-08      20818.447 
 6440000      207  6.8427785e-08      20880.775 
 6450000      207  7.7847176e-08       20940.29 
 6460000      207  1.0729286e-07      20997.694 
 6470000      207  3.2277148e-05      21057.534 
 6480000      207  2.0073455e-07      21117.203 
 6490000      207  8.8133354e-08      21177.795 
 6500000      207  8.8996397e-08      21235.044 
 6510000      207  1.2550931e-07      21298.073 
 6520000      206  1.5618987e-08       21357.23 
 6530000      206   1.798293e-08       21417.48 
 6540000      206  1.7920779e-08      21475.798 
 6550000      206  1.5436067e-08      21537.715 
 6560000      206  3.8963028e-07      21594.326 
 6570000      206  2.5387399e-07      21654.211 
 6580000      206  1.3758975e-07      21711.234 
 6590000      206  3.1552426e-07      21764.805 
 6600000      206  2.7552673e-07      21825.499 
 6610000      206  2.4931708e-07      21882.778 
 6620000      206  2.1134689e-07      21938.874 
 6630000      205  1.5368296e-06      21993.345 
 6640000      204  6.0843043e-07      22051.985 
 6650000      204  1.6670913e-07      22111.416 
 6660000      204  3.5838333e-07      22167.346 
 6670000      204  1.1741796e-06      22222.231 
 6680000      204   1.132989e-06      22280.303 
 6690000      204  1.1307404e-06       22339.51 
 6700000      204  1.0226245e-06      22393.611 
 6710000      203  4.5068046e-07      22453.339 
 6720000      202  2.4431645e-07      22513.888 
 6730000      202  2.4944764e-07      22570.078 
 6740000      202  2.6165802e-07      22623.626 
 6750000      201  2.0636964e-07      22685.922 
 6760000      200  3.2385181e-07      22743.559 
 6770000      200  9.8396665e-08       22804.71 
 6780000      199  2.3906781e-07      22866.745 
 6790000      199  5.3051672e-08      22926.754 
 6800000      199  5.5896644e-08      22984.469 
 6810000      199  6.5008558e-08      23037.175 
 6820000      199   4.012755e-07      23099.229 
 6830000      199  3.4298236e-07      23156.593 
 6840000      199  3.1388304e-07      23214.816 
 6850000      199  3.3045987e-07       23271.94 
 6860000      199  2.7080866e-07      23328.293 
 6870000      198  3.6303177e-07      23383.089 
 6880000      197  1.4598331e-07      23437.623 
 6890000      197  1.1241356e-07      23495.038 
 6900000      197  2.4951345e-05      23555.611 
 6910000      197  1.2631301e-06      23614.967 
 6920000      197  1.3525821e-06      23675.922 
 6930000      196  3.1605449e-07      23736.775 
 6940000      196  2.2453593e-07      23794.678 
 6950000      195  1.4657639e-07      23851.346 
 6960000      195  1.9767949e-07       23909.58 
 6970000      195  9.7867366e-08      23968.909 
 6980000      195  3.2490564e-06       24024.53 
 6990000      195  8.5508275e-08      24076.343 
 7000000      195  1.8481178e-07      24130.962 
 7010000      195  1.3087015e-07      24185.305 
 7020000      195  9.4735054e-08       24246.41 
 7030000      195  5.3455516e-08      24304.316 
 7040000      195  8.6189684e-08      24359.762 
 7050000      195  1.0794183e-07      24416.512 
 7060000      195  4.2115355e-06      24477.999 
 7070000      194  1.2548037e-06      24535.537 
 7080000      193  1.1025447e-06      24592.992 
 7090000      193   5.013778e-06      24651.864 
 7100000      193  1.9798887e-06      24713.346 
 7110000      193  9.3402045e-06      24771.726 
 7120000      193  1.8816465e-06      24833.071 
 7130000      192  1.1372567e-05      24892.002 
 7140000      191  4.1699728e-07       24948.57 
 7150000      189   1.040119e-06       25003.48 
 7160000      189  2.0356409e-07      25055.632 
 7170000      188  2.2631657e-07      25109.432 
 7180000      188  4.6404505e-07      25163.485 
 7190000      187  6.1651385e-08      25221.362 
 7200000      187  5.0844727e-06      25274.419 
 7210000      187  6.0268564e-06       25324.67 
 7220000      187   3.507634e-06       25381.79 
 7230000      187  8.6677855e-07      25438.578 
 7240000      187  1.8804666e-07       25493.41 
 7250000      187  8.3169966e-08      25547.864 
 7260000      187  1.3714914e-07      25596.998 
 7270000      187  4.9803395e-08      25647.103 
 7280000      187  3.7563124e-08      25704.056 
 7290000      187  4.0717265e-08      25757.834 
 7300000      187  2.9752876e-06      25813.896 
 7310000      187  8.6426443e-08      25869.158 
 7320000      187  8.9469495e-08      25927.503 
 7330000      187  1.1997948e-07      25981.184 
 7340000      187  9.5168766e-08      26037.207 
 7350000      187  4.7124888e-08      26095.443 
 7360000      187  3.3067583e-08      26149.653 
 7370000      187  2.7872499e-08      26207.123 
 7380000      187  2.5543037e-08      26260.364 
 7390000      187  3.5001869e-08      26318.153 
 7400000      187  5.7185163e-08       26378.07 
 7410000      187   8.816797e-08      26432.695 
 7420000      187   9.025054e-08      26488.373 
 7430000      187  9.6665436e-08      26546.315 
 7440000      187  7.4550334e-08      26602.936 
 7450000      187  6.7079159e-08      26660.406 
 7460000      187   5.441788e-08      26716.574 
 7470000      187   9.420392e-08      26768.944 
 7480000      187   1.575038e-07      26823.368 
 7490000      187  6.7197441e-07       26883.71 
 7500000      187  1.6744705e-06      26939.881 
 7510000      187  2.1566738e-07      26997.961 
 7520000      187  3.8041508e-07      27049.727 
 7530000      187  2.3065044e-07      27107.094 
 7540000      187  2.0856212e-07       27166.35 
 7550000      187  1.5836528e-07        27219.4 
 7560000      187  1.5890878e-06      27278.576 
 7570000      187  1.4778365e-06      27335.887 
 7580000      186  1.1238946e-07      27387.095 
 7590000      186  1.0221616e-07      27436.923 
 7600000      186  9.2793642e-08      27492.573 
 7610000      186  1.1328234e-06      27549.179 
 7620000      186  1.5518533e-07      27603.305 
 7630000      185  6.5036642e-08      27655.976 
 7640000      185  4.9468216e-08      27711.981 
 7650000      185  1.6702384e-07      27765.989 
 7660000      185  3.1991073e-06      27824.449 
 7670000      185  1.1026675e-06      27877.778 
 7680000      185  7.9980234e-07      27932.882 
 7690000      185  6.8227934e-07      27988.675 
 7700000      184  3.3109381e-07      28040.487 
 7710000      183  1.9723944e-06      28100.296 
 7720000      182  4.4865218e-08      28157.267 
 7730000      182   1.004179e-07      28216.539 
 7740000      182  5.5485917e-07      28271.975 
 7750000      182   1.055193e-07      28326.924 
 7760000      182  9.9965676e-08      28386.054 
 7770000      182  1.0031985e-07      28447.596 
 7780000      181  1.8272191e-06      28503.978 
 7790000      181  8.1837337e-08      28559.621 
 7800000      181  1.1719545e-07      28614.939 
 7810000      181  2.6021065e-06      28675.544 
 7820000      181   7.596907e-07      28733.118 
 7830000      181   1.061446e-06      28785.713 
 7840000      181  8.3333698e-07      28840.186 
 7850000      180  4.3913253e-06      28890.965 
 7860000      179  5.5706219e-07      28954.187 
 7870000      178  3.2580715e-07      29010.655 
 7880000      178  2.6528642e-07      29066.939 
 7890000      178   2.202192e-07       29121.17 
 7900000      178  2.0899725e-07      29176.593 
 7910000      176  1.3056055e-07      29235.725 
 7920000      176  3.0220477e-07      29292.427 
 7930000      176  6.7803451e-08      29348.624 
 7940000      176  7.4229737e-08       29403.75 
 7950000      176  1.3335984e-07       29458.57 
 7960000      176  1.0777301e-07      29514.836 
 7970000      175  9.9944189e-08      29569.981 
 7980000      175  9.9789037e-07      29626.744 
 7990000      175  5.2414459e-07      29679.879 
 8000000      175  1.1885431e-06      29742.957 
 8010000      175  3.7740129e-07      29803.611 
 8020000      174  2.1910602e-07      29855.393 
 8030000      174  1.7955619e-07      29911.647 
 8040000      173  4.6164223e-08      29964.607 
 8050000      173  5.9987824e-08      30014.516 
 8060000      173  4.7263935e-08      30065.402 
 8070000      173    4.67989e-08      30121.055 
 8080000      172  1.5121279e-08      30175.348 
 8090000      172  1.6847862e-08      30227.616 
 8100000      172   1.482942e-08      30281.734 
 8110000      172  3.5249761e-08       30333.48 
 8120000      172  1.0528006e-07      30387.339 
 8130000      172  6.4907015e-08      30441.168 
 8140000      172  1.2056121e-07       30493.61 
 8150000      172  2.1169141e-07      30549.208 
 8160000      172  6.3215187e-08      30608.128 
 8170000      172  1.0819526e-06      30666.924 
 8180000      172  3.0091657e-08       30722.97 
 8190000      172  2.0622461e-08      30778.169 
 8200000      172   2.129312e-08      30831.761 
 8210000      172  3.7272969e-08      30887.325 
 8220000      172   9.781061e-07      30946.785 
 8230000      172  1.2972893e-08      31005.646 
 8240000      172  2.0470476e-08      31062.202 
 8250000      172  2.7940633e-08      31110.084 
 8260000      172  1.4609437e-06      31164.462 
 8270000      172   3.688093e-07      31214.949 
 8280000      172  3.7128128e-08      31269.615 
 8290000      172  5.4804746e-08      31320.705 
 8300000      172  7.2089641e-08      31378.323 
 8310000      172  1.9940508e-06      31432.506 
 8320000      172  1.6398978e-06      31482.831 
 8330000      171  8.2639663e-07      31541.598 
 8340000      169  9.7791517e-08      31593.114 
 8350000      168  2.5835039e-08      31645.614 
 8360000      168   1.405462e-07      31701.179 
 8370000      168  1.2921049e-07      31754.223 
 8380000      168  1.0861683e-07      31806.869 
 8390000      168  2.0355684e-07      31859.839 
 8400000      168  7.6643657e-08      31909.813 
 8410000      168  7.7990205e-08      31965.434 
 8420000      168  7.0259955e-08      32016.999 
 8430000      168  5.8536268e-08      32072.445 
 8440000      168    5.07068e-08      32128.659 
 8450000      168  2.9995613e-08      32178.328 
 8460000      167  2.7669803e-08      32226.811 
 8470000      167  8.9079016e-06      32283.192 
 8480000      167  1.7284734e-06      32339.762 
 8490000      167  2.4613005e-05      32395.367 
 8500000      167  9.4547857e-08       32451.63 
 8510000      167   2.529758e-05      32501.918 
 8520000      167  5.8476204e-07       32557.89 
 8530000      167   3.351977e-08      32608.189 
 8540000      167  2.1073838e-08      32661.292 
 8550000      167   2.119275e-08      32712.011 
 8560000      167  3.9935678e-08       32765.44 
 8570000      167  2.3221648e-08      32819.741 
 8580000      167  2.7525679e-08      32871.718 
 8590000      167  1.8983108e-08      32927.892 
 8600000      167  5.6010001e-06      32983.223 
 8610000      167    2.34778e-06      33039.779 
 8620000      166  6.0772183e-07      33094.419 
 8630000      166  3.9205092e-07      33151.848 
 8640000      166  5.2326943e-07      33202.891 
 8650000      166  3.2610264e-07      33257.508 
 8660000      166  1.1143977e-05      33314.035 
 8670000      164  1.8995265e-07      33371.159 
 8680000      164  9.1855765e-07      33429.394 
 8690000      164  4.2980759e-07      33484.622 
 8700000      162  8.5708949e-07      33535.466 
 8710000      162  1.3113525e-07      33589.833 
 8720000      162  9.4239418e-08      33643.492 
 8730000      162  7.7411511e-08      33698.562 
 8740000      162  5.8283698e-08      33754.625 
 8750000      162  5.0205553e-08      33807.556 
 8760000      162  4.0127648e-08      33862.759 
 8770000      162  4.5943229e-08      33916.037 
 8780000      162  5.7757118e-08       33971.43 
 8790000      162  9.1594316e-08      34024.065 
 8800000      162   6.367554e-08      34077.034 
 8810000      162  6.8943921e-08      34126.599 
 8820000      162  8.4363636e-08       34179.44 
 8830000      162  9.2701251e-08       34235.92 
 8840000      162  2.2780348e-06       34292.41 
 8850000      162  1.4718269e-07      34351.734 
 8860000      162  1.4398158e-07      34407.875 
 8870000      161  3.2371217e-07      34463.377 
 8880000      161  2.7628995e-07      34517.626 
 8890000      161  4.2001397e-07      34570.413 
 8900000      161   2.079501e-07      34625.446 
 8910000      161  2.1376512e-07      34679.175 
 8920000      160  1.1739259e-08      34735.688 
 8930000      160  6.7012792e-07      34789.227 
 8940000      160  1.0722338e-08      34844.631 
 8950000      160  6.4708946e-08      34901.554 
 8960000      160  2.8853071e-05        34956.5 
 8970000      160  3.8375325e-07      35009.185 
 8980000      160    7.12661e-06       35065.35 
 8990000      160  3.7663374e-08      35119.677 
 9000000      160  2.2539607e-07      35176.524 
 9010000      160  7.6781797e-08      35231.312 
 9020000      160  5.4677882e-08      35283.509 
 9030000      160  1.7781068e-07      35336.189 
 9040000      160  6.7807922e-08      35393.187 
 9050000      160  1.4347539e-08      35448.736 
 9060000      160  2.0842707e-07      35502.581 
 9070000      160  2.1577284e-08      35559.742 
 9080000      160  2.4919926e-08      35613.899 
 9090000      160   1.456838e-08      35670.983 
 9100000      160  2.6051101e-07      35728.835 
 9110000      160  7.8094983e-08      35786.177 
 9120000      160  6.6903934e-08      35838.012 
 9130000      160  6.6540033e-08      35896.298 
 9140000      160  4.2354682e-08       35951.18 
 9150000      160  2.6967186e-07      36008.074 
 9160000      160  5.9372684e-08      36061.124 
 9170000      160  1.5942643e-08       36114.19 
 9180000      160  1.3414513e-08      36168.863 
 9190000      160  9.9587871e-08      36218.347 
 9200000      160  3.1698194e-08       36274.02 
 9210000      160  3.0195071e-08      36326.956 
 9220000      160  4.5472642e-08      36379.823 
 9230000      160  2.1070787e-08      36436.969 
 9240000      160  1.5058288e-08      36487.059 
 9250000      160  3.8935276e-07      36541.101 
 9260000      160  6.2401531e-07      36593.189 
 9270000      160  4.9185348e-08      36648.953 
 9280000      160  2.0066788e-08      36703.482 
 9290000      160  1.6061062e-08      36754.293 
 9300000      160  1.0051043e-08      36802.548 
 9310000      160  5.3576681e-08      36856.395 
 9320000      160  4.7790973e-09      36909.956 
 9330000      160  5.4750331e-09      36963.502 
 9340000      160  1.1232179e-08      37016.317 
 9350000      160  1.1682283e-08      37068.369 
 9360000      160  1.1459613e-08      37123.643 
 9370000      160  7.5950525e-07      37174.703 
 9380000      160  1.6699436e-07       37229.54 
 9390000      160  3.4444728e-09      37282.164 
 9400000      160  2.2261091e-08      37331.609 
 9410000      160  2.8928125e-08      37386.975 
 9420000      160  4.1386305e-08      37440.424 
 9430000      160  4.3292398e-08      37492.903 
 9440000      160   3.802398e-08      37546.735 
 9450000      160  4.7096729e-08      37601.477 
 9460000      160  2.6738105e-08      37654.104 
 9470000      160  2.3026613e-07       37710.13 
 9480000      160  6.6070998e-07      37766.039 
 9490000      160  1.1414412e-06      37830.663 
 9500000      160  4.2585026e-06      37884.966 
 9510000      160  9.8979676e-07      37936.564 
 9520000      160  4.3884847e-07      37991.616 
 9530000      160  4.7349868e-08      38043.505 
 9540000      160  2.9719801e-08      38097.799 
 9550000      160  9.4358497e-09      38153.479 
 9560000      160  1.3551913e-08      38205.427 
 9570000      160   7.732082e-09      38253.922 
 9580000      160  4.9656469e-09          38311 
 9590000      160  1.0524902e-07      38364.961 
 9600000      160  9.1067184e-08      38421.835 
 9610000      160  2.5387931e-07      38477.563 
 9620000      160  6.1714122e-08      38531.382 
 9630000      160  7.8912837e-07      38582.526 
 9640000      160  5.0809813e-08      38634.326 
 9650000      160  2.1323298e-06      38685.524 
 9660000      160  9.6514853e-07      38740.491 
 9670000      160  8.8705444e-07       38796.56 
 9680000      159   5.250612e-06      38846.565 
 9690000      159  3.2304062e-06      38898.307 
 9700000      159  1.9328607e-06      38954.185 
 9710000      159  2.7624674e-07      39006.607 
 9720000      159  1.2391489e-05      39063.957 
 9730000      159  3.3363141e-08      39116.511 
 9740000      159  4.0371124e-08      39167.375 
 9750000      159  4.4691794e-08      39223.835 
 9760000      159   5.655979e-08      39278.425 
 9770000      159  5.3801697e-07      39336.705 
 9780000      159  1.1181871e-07      39397.256 
 9790000      159  1.0882502e-07       39450.31 
 9800000      159  1.2226691e-07       39501.06 
 9810000      158  1.4698123e-07      39555.599 
 9820000      158  7.7057746e-08      39607.988 
 9830000      158  7.6478694e-08      39663.524 
 9840000      158  8.9471957e-08      39718.224 
 9850000      158  5.6432631e-06      39774.219 
 9860000      158   3.274295e-08      39830.798 
 9870000      158  2.5049313e-08       39882.83 
 9880000      158  2.4809055e-08      39939.709 
 9890000      158  4.5013812e-08      39995.023 
 9900000      158  3.4211534e-08      40047.665 
 9910000      158  2.2162778e-08      40097.969 
 9920000      158  9.8663953e-07      40147.589 
 9930000      158  2.8993576e-08      40204.623 
 9940000      158  7.6310781e-08      40257.818 
 9950000      158  8.6332707e-08      40310.408 
 9960000      158  5.2976016e-08      40362.821 
 9970000      158  5.1261182e-08      40412.789 
 9980000      158   5.748227e-08       40466.31 
 9990000      158  7.8854106e-08      40519.121 
10000000      158  7.9055046e-08      40574.846 
10010000      157  7.4036968e-09       40629.66 
10020000      157  1.0588739e-05      40679.811 
10030000      157   6.727549e-06      40733.035 
10040000      157  8.4234274e-09      40786.234 
10050000      157  1.1502426e-07      40843.885 
10060000      157  1.3051977e-08      40899.192 
10070000      157  1.6369101e-08      40953.112 
10080000      157  1.3405116e-07      41003.366 
10090000      157  5.1262795e-09      41059.875 
10100000      157  6.7146346e-09      41110.799 
10110000      157   7.295041e-09      41163.528 
10120000      157  6.8693802e-09      41214.533 
10130000      157   8.865118e-09      41269.396 
10140000      157  6.7077878e-09      41326.238 
10150000      157  3.1334042e-09      41378.941 
10160000      157   5.116307e-09      41432.347 
10170000      157  2.4202699e-09      41484.532 
10180000      157  9.4325552e-08      41533.194 
10190000      157   3.154299e-09      41584.435 
10200000      157   6.331438e-09      41633.478 
10210000      157  1.7286247e-08      41692.046 
10220000      157  1.4689393e-08       41744.42 
10230000      157  7.7873337e-09      41797.009 
10240000      157  4.0742317e-09      41845.988 
10250000      157  6.6627652e-09      41903.393 
10260000      157  5.8261853e-08      41961.033 
10270000      157  1.5219508e-06      42020.414 
10280000      157   6.775955e-08      42075.998 
10290000      157   2.656493e-07      42133.691 
10300000      157  1.4972452e-07      42189.942 
10310000      157  1.0034192e-06      42244.946 
10320000      157  1.1261041e-07       42299.16 
10330000      157  9.4644573e-08      42355.049 
10340000      157  1.0414893e-07      42406.789 
10350000      156  1.7149883e-08      42460.426 
10360000      156  2.8409868e-08      42515.337 
10370000      156  8.3028543e-09      42569.762 
10380000      156  7.8955919e-08        42625.1 
10390000      156  1.5313877e-08      42678.817 
10400000      156  4.1478288e-08       42732.01 
10410000      156  2.2595505e-08      42790.589 
10420000      156  2.6000694e-08      42843.969 
10430000      156  9.1215215e-09      42897.188 
10440000      156  4.3189453e-07      42947.648 
10450000      156  4.0306661e-07      42998.965 
10460000      156  1.6568097e-06      43055.491 
10470000      156  6.2511946e-07      43111.475 
10480000      155  2.7659029e-07      43164.258 
10490000      155  2.5109083e-07      43221.492 
10500000      155  2.1769453e-07      43274.054 
10510000      154  7.7605566e-09      43328.769 
10520000      154  7.0011865e-09      43383.413 
10530000      154  5.5523941e-08      43437.593 
10540000      154  4.7790059e-08      43493.221 
10550000      154  8.0914056e-08      43548.628 
10560000      154   1.196493e-07      43605.211 
10570000      154  4.6147853e-06      43657.199 
10580000      154  3.8103251e-06      43713.834 
10590000      152  6.4939924e-07      43770.209 
10600000      152  5.8651925e-07      43823.491 
10610000      151  7.0520406e-08      43876.831 
10620000      151  5.9345562e-08      43931.007 
10630000      151  8.7424123e-08      43982.099 
10640000      151  1.3032694e-07      44035.305 
10650000      151  6.3113088e-08      44087.468 
10660000      151  1.4246427e-06      44139.621 
10670000      151  4.1322978e-08      44190.183 
10680000      151  2.2386557e-06      44239.918 
10690000      151  7.2060167e-07       44294.15 
10700000      151  6.9031152e-07      44352.747 
10710000      150  5.7749518e-08      44408.895 
10720000      149  3.7170781e-07      44463.008 
10730000      149  1.4106884e-07      44514.025 
10740000      149  4.7721273e-08      44567.432 
10750000      149  6.2607608e-08      44620.085 
10760000      149  6.3324618e-08      44673.845 
10770000      149  4.0614798e-06      44725.704 
10780000      149  1.9023033e-07      44774.719 
10790000      149  1.2117051e-07       44827.23 
10800000      149  1.1518948e-07      44880.937 
10810000      149  1.7433994e-07      44934.274 
10820000      148  8.7606414e-09      44984.085 
10830000      148  9.8844139e-09      45032.929 
10840000      148   1.572114e-08      45088.048 
10850000      148  5.2735925e-09      45138.524 
10860000      148  3.1237352e-09      45193.551 
10870000      148  7.5578358e-09      45250.037 
10880000      148  3.3617635e-09      45302.252 
10890000      148  2.4066675e-08      45354.504 
10900000      148  2.4040348e-08      45402.605 
10910000      148  1.5833078e-06      45458.448 
10920000      148  9.5853119e-09      45512.529 
10930000      148  7.2682473e-09      45564.126 
10940000      148  1.3166144e-08      45613.671 
10950000      148  1.7890077e-08      45664.779 
10960000      148  1.9911926e-08      45712.922 
10970000      148  2.1892121e-08      45759.623 
10980000      148  8.5216684e-09      45813.194 
10990000      148  1.6268763e-08      45864.728 
11000000      148  2.6840056e-08      45912.576 
11010000      148  8.1046545e-09      45964.883 
11020000      148  8.8158099e-09      46013.477 
11030000      148  2.4846274e-08      46063.905 
11040000      148  4.1260692e-08      46117.304 
11050000      148  4.3315545e-08       46165.87 
11060000      148  6.8771027e-08      46221.846 
11070000      148  1.0239839e-08      46277.167 
11080000      148   4.100629e-07      46327.931 
11090000      148  7.7865337e-08      46380.377 
11100000      148  8.6006753e-06      46431.296 
11110000      148   4.987304e-08      46481.228 
11120000      148  2.0873391e-07      46535.219 
11130000      148  3.8752606e-08      46588.036 
11140000      148  1.3954465e-06      46639.374 
11150000      148  2.8929787e-08      46691.861 
11160000      148  1.8171318e-08      46741.118 
11170000      148  4.8148519e-08      46790.973 
11180000      148  1.5617034e-08      46847.238 
11190000      148  1.7380354e-08      46899.046 
11200000      148  2.2483894e-08      46953.854 
11210000      148  2.3982859e-08      47008.499 
11220000      148  2.8020316e-08      47062.978 
11230000      148  3.3126058e-08      47113.771 
11240000      148  1.2084409e-06       47166.86 
11250000      148  5.1041635e-08      47221.506 
11260000      148  5.9371791e-08      47272.797 
11270000      148  2.5573476e-07       47324.11 
11280000      148  5.9956277e-07      47379.211 
11290000      148  1.3450097e-07      47432.088 
11300000      148  1.2889551e-07      47485.164 
11310000      147  1.3791647e-08      47540.534 
11320000      147  6.9747682e-08       47594.36 
11330000      147  1.0646224e-08      47648.635 
11340000      147  3.2642921e-07      47699.264 
11350000      147  2.9079763e-08      47754.652 
11360000      147  2.2317001e-08      47804.664 
11370000      147  4.0531125e-07      47862.228 
11380000      147  1.2422203e-07       47916.13 
11390000      147  1.0725202e-07      47967.563 
11400000      147  1.1807836e-07      48019.851 
11410000      147  8.0326345e-08      48068.807 
11420000      147  1.3517356e-07      48122.094 
11430000      147  8.9442906e-08      48178.009 
11440000      147   2.117085e-07      48228.883 
11450000      147  1.1540402e-06      48280.833 
11460000      147  6.5897467e-08      48335.553 
11470000      146  3.4025228e-08      48386.719 
11480000      146  2.4978298e-08      48438.922 
11490000      146  2.7977226e-08      48488.111 
11500000      146  7.7439221e-08       48540.67 
11510000      146  2.1407715e-08      48593.465 
11520000      146  1.7779953e-08      48639.775 
11530000      146  1.9381106e-08      48689.428 
11540000      146  3.0758621e-08      48739.649 
11550000      146  3.7316818e-08      48792.828 
11560000      145  5.0435643e-09      48843.767 
11570000      145  5.7932457e-09      48899.522 
11580000      145  3.9562157e-08      48949.234 
11590000      145  1.0057942e-07      49001.519 
11600000      145  1.2069349e-07      49052.029 
11610000      145  2.3096634e-07      49102.638 
11620000      145  2.1936853e-07      49155.057 
11630000      145  1.3098997e-07      49207.071 
11640000      145  1.1276536e-07      49258.724 
11650000      145   9.584082e-08      49313.747 
11660000      145  1.1692249e-07      49369.656 
11670000      145  1.5683968e-06      49423.804 
11680000      145  9.6281475e-07      49476.914 
11690000      145  8.8177407e-07      49531.467 
11700000      143  9.7781168e-08      49581.633 
11710000      143  5.2600134e-08      49628.497 
11720000      143  1.8264457e-06      49677.176 
11730000      143  7.8995729e-08       49733.94 
11740000      143  3.2339459e-08      49786.918 
11750000      143  2.9851457e-06      49840.812 
11760000      143  7.4716904e-07      49896.692 
11770000      143  6.9114972e-07       49949.84 
11780000      142  3.6829471e-07      49997.849 
11790000      142  1.1210559e-07      50050.743 
11800000      141  6.6781024e-08       50106.12 
11810000      141  5.4456641e-08      50156.119 
11820000      141  1.1463052e-07      50207.506 
11830000      141  1.0271785e-07      50254.152 
11840000      141  8.9108196e-08      50305.277 
11850000      141  1.9281163e-07      50350.472 
11860000      141  1.2202324e-07      50403.613 
11870000      141  1.2224342e-07      50450.978 
11880000      140   3.693202e-08      50501.734 
11890000      140  2.3363605e-08      50553.161 
11900000      140  2.2022158e-08      50599.039 
11910000      140  1.0836601e-06      50653.697 
11920000      140   4.614095e-06      50703.515 
11930000      140   1.681953e-06      50754.868 
11940000      140  1.6449287e-06      50805.834 
11950000      140  2.9502309e-08       50861.49 
11960000      140  2.2166687e-06      50915.106 
11970000      140  1.8462681e-07      50968.932 
11980000      140  2.6913941e-08      51020.476 
11990000      140  3.6998247e-08      51070.949 
12000000      140  3.8928793e-08      51124.646 
12010000      140  8.6057926e-08      51182.441 
12020000      140  5.1127839e-09       51233.07 
12030000      140  3.1281069e-09      51286.806 
12040000      140  2.5511594e-06      51333.213 
12050000      140  5.9007206e-09      51383.135 
12060000      140    9.37762e-09      51437.433 
12070000      140  2.7527814e-08      51490.112 
12080000      140  9.1189055e-07      51539.452 
12090000      140  4.7715243e-08      51594.455 
12100000      140  3.7761495e-08      51645.973 
12110000      140  6.1122775e-09      51697.378 
12120000      140  6.5476128e-06       51751.66 
12130000      140  5.8827332e-08      51799.776 
12140000      140  5.7707352e-09       51852.19 
12150000      140   2.727064e-07      51904.256 
12160000      140  3.1367688e-08      51961.269 
12170000      140  9.8916345e-09      52013.443 
12180000      140  4.8553526e-08      52067.463 
12190000      140  8.9195995e-09       52118.88 
12200000      140  2.5658532e-09      52169.856 
12210000      140  6.0090387e-09      52220.876 
12220000      140  2.3643344e-08      52273.237 
12230000      140  1.5238039e-08      52323.683 
12240000      140  1.0334804e-08      52371.048 
12250000      140  6.9449917e-09      52418.897 
12260000      140  7.6926716e-09      52468.171 
12270000      140  4.6826203e-09      52519.185 
12280000      140  4.4211452e-09       52570.03 
12290000      140  6.2541778e-09      52618.936 
12300000      140  1.0180408e-08      52668.734 
12310000      140  1.2169136e-08      52715.427 
12320000      140  3.0821196e-08      52762.341 
12330000      140  3.6142174e-06      52817.232 
12340000      140  2.6230501e-05      52868.504 
12350000      140  2.4483271e-06      52920.356 
12360000      140  4.6956358e-07      52973.627 
12370000      140  3.9898551e-07      53024.471 
12380000      140  2.3105462e-07      53077.138 
12390000      140  1.8260915e-07       53127.76 
12400000      140   2.617066e-07      53177.688 
12410000      140  1.6190945e-07      53231.508 
12420000      139  2.6064783e-08      53283.612 
12430000      139  1.4983237e-08      53335.362 
12440000      139  1.6040545e-08      53393.877 
12450000      139  1.6287339e-08      53446.492 
12460000      139  6.1046551e-08      53498.125 
12470000      139  3.3049744e-08      53548.793 
12480000      139  4.5046915e-08      53602.868 
12490000      139  5.0169718e-08      53649.556 
12500000      139  4.4699829e-08      53706.079 
12510000      138  6.2299906e-08      53756.519 
12520000      138  1.2636888e-07      53806.624 
12530000      138  3.6968301e-08      53856.595 
12540000      138  1.4911916e-07      53908.234 
12550000      138  1.2837118e-07      53962.335 
12560000      138  1.3131157e-07      54016.882 
12570000      138  1.2096249e-07       54071.77 
12580000      138  1.1071718e-07      54119.474 
12590000      138  7.3263038e-07      54172.271 
12600000      138  6.3840925e-07      54228.722 
12610000      138  2.2247988e-06      54281.076 
12620000      138  5.1476933e-06      54338.348 
12630000      136  1.3047335e-06      54392.868 
12640000      134   1.327367e-07      54442.428 
12650000      134  1.2252592e-07      54491.733 
12660000      134  4.2622967e-08      54542.208 
12670000      134  4.3246822e-08      54591.174 
12680000      133  1.3554242e-08      54640.327 
12690000      133  2.3304982e-08      54688.741 
12700000      133  6.7062194e-08      54739.324 
12710000      133  4.5627495e-08      54793.174 
12720000      133  2.2497225e-05      54843.102 
12730000      133  2.6979497e-08      54894.419 
12740000      133  3.7088524e-08      54945.642 
12750000      133  3.1124538e-08      55001.606 
12760000      133  3.1373063e-08      55051.968 
12770000      133   5.451635e-06      55102.471 
12780000      133  5.4783566e-06      55151.058 
12790000      133   1.269129e-08      55200.406 
12800000      133  1.4107482e-08      55255.584 
12810000      133  2.0265761e-06       55305.83 
12820000      133  2.6759259e-08      55356.541 
12830000      133  2.4286535e-08       55407.48 
12840000      133  2.2041344e-08      55459.234 
12850000      133  1.0568713e-07      55508.023 
12860000      133  1.2524475e-08      55564.925 
12870000      133   8.372928e-09      55618.421 
12880000      133  6.2074042e-09      55672.326 
12890000      133  1.5163925e-08      55724.828 
12900000      133  7.8888717e-07       55774.84 
12910000      133  1.5572499e-08      55827.188 
12920000      133  1.4700827e-08      55880.681 
12930000      133  1.0871713e-08      55930.815 
12940000      133  5.8580753e-06      55983.842 
12950000      133   1.761819e-06      56034.585 
12960000      133  9.8136433e-08      56089.833 
12970000      133  1.4432307e-06      56143.258 
12980000      133  9.9246222e-09      56195.851 
12990000      133  2.4835695e-09       56245.34 
13000000      133  3.6780563e-07      56297.716 
13010000      133   2.913937e-07      56347.389 
13020000      133  1.0504967e-08       56399.22 
13030000      133  7.3845427e-08      56449.751 
13040000      133  7.6581087e-09       56497.02 
13050000      133    2.69778e-09      56546.944 
13060000      133  4.0512849e-09      56598.871 
13070000      133  1.8011797e-05      56648.402 
13080000      133  3.6508098e-08      56701.532 
13090000      133  2.0437706e-08      56754.668 
13100000      133  1.4350734e-08       56804.18 
13110000      133    7.06601e-09      56859.089 
13120000      133  5.9861797e-07      56913.688 
13130000      133  2.3954393e-06      56966.374 
13140000      133  7.2673426e-09      57015.737 
13150000      133  2.8540831e-07      57066.972 
13160000      133  2.5617794e-09      57117.336 
13170000      133  2.6663662e-09      57172.536 
13180000      133  4.3152695e-09      57228.877 
13190000      133  1.8994713e-08       57282.59 
13200000      133  1.2440889e-08      57333.494 
13210000      133  2.3655432e-08      57390.293 
13220000      133  5.8871309e-09      57445.712 
13230000      133  4.4294251e-07      57498.028 
13240000      133  3.5778398e-08      57549.391 
13250000      133  2.5406811e-08      57601.125 
13260000      133  8.2338865e-07      57654.234 
13270000      133  2.6490071e-08      57709.494 
13280000      133  1.8338335e-07      57762.959 
13290000      133  2.0979881e-08      57810.073 
13300000      133    1.68119e-08      57859.391 
13310000      133  1.3532873e-08      57910.438 
13320000      133  2.0082186e-08      57958.865 
13330000      133  1.0491401e-08      58012.286 
13340000      133  8.0720321e-09      58066.166 
13350000      133   1.244135e-08       58117.25 
13360000      133  3.9856486e-07      58169.269 
13370000      133  1.6782425e-08      58223.162 
13380000      133  3.5882997e-08      58276.265 
13390000      133  2.8334263e-08       58328.93 
13400000      133  4.5299602e-08      58374.737 
13410000      133  3.3856416e-08      58431.369 
13420000      133  2.1399489e-08      58483.811 
13430000      133  3.9158264e-08      58539.862 
13440000      133  2.2061763e-08      58591.095 
13450000      133  1.3349373e-08       58638.92 
13460000      133  2.2955247e-08      58694.344 
13470000      133  8.8543202e-08      58744.156 
13480000      133  8.0096913e-08      58795.272 
13490000      133  4.7987383e-07      58845.683 
13500000      133  6.2518669e-08      58898.908 
13510000      133  3.9609511e-06      58949.736 
13520000      133   9.488215e-07      59002.302 
13530000      133   2.270271e-07      59055.645 
13540000      133  1.8418644e-07      59105.698 
13550000      133  1.2875307e-07      59160.934 
13560000      133   1.054991e-07      59209.816 
13570000      133  9.1410724e-08      59261.094 
13580000      133  8.7731129e-08      59314.347 
13590000      133  1.9733166e-07      59365.892 
13600000      132  5.9667446e-08      59421.003 
13610000      132  1.6053897e-06      59471.302 
13620000      132  1.4025641e-07      59520.149 
13630000      132  4.5154798e-07      59573.206 
13640000      131  7.3573615e-09      59625.292 
13650000      131  3.7686909e-08       59673.49 
13660000      131  1.8916197e-08      59724.172 
[...]
20410000      119  2.4781288e-09      115322.14 
20420000      119  2.4537922e-09      115367.42 
20430000      119  2.5190956e-09      115416.33 
20440000      119   1.397087e-08      115464.12 
20450000      119  2.7199222e-08      115511.45 
20460000      119  3.2552227e-09      115555.71 
20470000      119  3.5130125e-09       115603.7 
20480000      119  2.7250654e-09      115652.35 
20490000      119  2.8014646e-09      115700.35 
20500000      119   3.140349e-09      115743.92 
20510000      119  1.3445956e-05      115794.36 
20520000      119  4.0087602e-08      115845.02 
20530000      119   4.213576e-09      115892.76 
20540000      119  2.5646314e-09      115940.33 
20550000      119  1.3213542e-07      115986.68 
20560000      119  2.6594268e-09      116035.92 
20570000      119  0.00010374701      116084.81 
20580000      119  2.2902485e-08      116127.79 
20590000      119  1.4982055e-08      116177.06 
20600000      119  8.1610915e-09      116226.03 
20610000      119   6.643425e-09      116273.92 
20620000      119  3.5252511e-09      116321.75 
20630000      119  5.6671769e-09      116366.58 
20640000      119  5.8084776e-09      116411.28 
20650000      119  6.9418823e-09      116461.58 
20660000      119  2.8837326e-09      116510.28 
20670000      119   1.752696e-08      116556.53 
20680000      119  8.2307122e-09      116599.84 
20690000      119  2.6676072e-09      116645.35 
20700000      119  7.6147809e-08      116693.13 
20710000      119  2.6114166e-09      116742.58 
20720000      119    2.68068e-09      116790.76 
20730000      119  6.5662457e-09      116836.77 
20740000      119  3.6008313e-07      116887.47 
20750000      119  1.6874855e-08      116939.07 
20760000      119  4.2040698e-09      116985.34 
20770000      119  3.6707977e-09      117031.28 
20780000      119  2.2919149e-08      117082.32 
20790000      119  3.7170997e-08      117126.72 
20800000      119  2.9701734e-09      117174.03 
20810000      119  5.7992025e-09      117220.97 
20820000      119  2.8182215e-09      117265.03 
20830000      119   2.713785e-09      117313.44 
20840000      119  2.7127572e-09      117361.36 
20850000      119  2.6996681e-09      117403.76 
20860000      119  2.7175863e-09      117451.45 
20870000      119  2.8671572e-09      117503.06 
20880000      119  3.9859298e-07      117550.81 
20890000      119  7.2383867e-08      117597.88 
20900000      119   2.922129e-08      117648.39 
20910000      119  1.8375595e-08      117697.42 
20920000      119  1.8712509e-08      117744.08 
20930000      119   3.908422e-08      117789.56 
20940000      119  3.1525576e-08       117836.7 
20950000      119  1.7255961e-06      117883.87 
20960000      119   1.626948e-06      117933.87 
20970000      118  2.3490354e-08      117984.51 
20980000      118  9.0870898e-08      118030.52 
20990000      118  1.8154685e-08      118077.37 
21000000      118   2.766708e-08      118127.39 
21010000      118  2.0725593e-06       118172.5 
21020000      118  5.7913242e-06      118219.87 
21030000      118   1.543454e-06      118265.88 
21040000      118  2.8712744e-08      118314.98 
21050000      118  4.1712339e-08         118362 
21060000      118  6.4418634e-08      118410.88 
21070000      118  1.3173387e-07      118458.94 
21080000      118  2.0454853e-08      118506.41 
21090000      118  1.0358016e-07      118551.55 
21100000      118  2.5635248e-08      118599.08 
21110000      118  8.3708346e-09      118647.15 
21120000      118  4.1735165e-08      118692.46 
21130000      118  2.7742914e-09       118736.1 
21140000      118  4.6668142e-07      118781.83 
21150000      118  1.6867885e-05      118835.01 
21160000      118  2.7050134e-09      118882.21 
21170000      118  2.4309305e-09      118929.07 
21180000      118  2.4698054e-09       118973.1 
21190000      118   2.306979e-09      119021.54 
21200000      118  1.2791841e-08      119068.14 
21210000      118  6.8420579e-09      119117.85 
21220000      118  2.7221084e-09      119162.77 
21230000      118  2.5104529e-09      119208.81 
21240000      118  2.4469149e-08      119257.66 
21250000      118  3.3880831e-08      119302.03 
21260000      118  2.6370141e-09      119350.59 
21270000      118  4.5848991e-08      119396.14 
21280000      118  1.9949366e-08      119439.46 
21290000      118  1.1191767e-08      119487.08 
21300000      118  7.6317099e-09      119532.26 
21310000      118  5.7260259e-09      119577.46 
21320000      118  4.9241836e-09      119621.61 
21330000      118  5.5669831e-07      119668.92 
21340000      118  1.0521911e-08      119714.59 
21350000      118  7.0185709e-08         119764 
21360000      118  1.0380715e-07      119811.81 
21370000      118   8.599973e-09      119859.83 
21380000      118  1.1095497e-08      119906.37 
21390000      118  5.7958335e-09      119952.76 
21400000      118  3.2593574e-09      120000.13 
21410000      118  3.4209176e-09      120051.34 
21420000      118  2.7978798e-09      120098.63 
21430000      118  3.6916129e-09      120147.62 
21440000      118  5.4774009e-08      120193.57 
21450000      118  3.7156199e-09      120239.52 
21460000      118  2.1814817e-09      120286.25 
21470000      118  2.3465634e-09      120328.88 
21480000      118  2.3878753e-09      120377.57 
21490000      118  2.3564226e-09      120424.24 
21500000      118  2.4896464e-09      120472.49 
21510000      118  2.3941815e-09      120521.22 
21520000      118  2.4371366e-09      120570.92 
21530000      118   3.477205e-09      120617.62 
21540000      118  4.4996244e-09      120668.85 
21550000      118  2.8279639e-09      120713.35 
21560000      118   2.014473e-08      120760.83 
21570000      118  6.2765213e-09      120808.98 
21580000      118  3.9802232e-09      120855.51 
21590000      118  5.0062824e-09      120900.37 
21600000      118  2.9798803e-09      120946.42 
21610000      118  3.5869905e-09      120990.69 
21620000      118  2.2538701e-09       121038.9 
21630000      118  3.2290752e-09       121088.5 
21640000      118  4.1085217e-09      121134.34 
21650000      118  4.0385572e-09      121178.98 
21660000      118   1.206164e-08      121224.01 
21670000      118  4.6097136e-09       121271.4 
21680000      118  2.9972203e-09      121316.83 
21690000      118  2.8565586e-09      121363.94 
21700000      118  4.3223365e-09      121411.84 
21710000      118   2.989962e-09      121458.96 
21720000      118  8.1796701e-09      121503.83 
21730000      118  2.4957371e-09      121549.02 
21740000      118  7.4856578e-08      121591.95 
21750000      118  2.5084707e-08      121638.28 
21760000      118  9.9969335e-09      121684.99 
21770000      118  5.9705206e-09      121733.04 
21780000      118  1.3850048e-08       121780.4 
21790000      118  4.0207387e-09      121827.88 
21800000      118  4.5392013e-09       121873.1 
21810000      118  5.3569793e-09      121919.94 
21820000      118  6.8681582e-09      121963.56 
21830000      118   1.102763e-08      122010.38 
21840000      118  4.6104783e-06      122059.06 
21850000      118   2.621537e-06      122103.44 
21860000      118   4.826986e-06      122149.16 
21870000      118  1.9210793e-08      122194.58 
21880000      118  2.3448522e-09      122239.98 
21890000      118  2.6783852e-09      122283.62 
21900000      118  3.5513461e-09      122329.03 
21910000      118  2.3900853e-09      122375.67 
21920000      118  1.8474118e-07      122423.01 
21930000      118  2.6095152e-09      122467.01 
21940000      118  1.5096452e-08      122512.93 
21950000      118  1.3996905e-06      122560.66 
21960000      118  7.9972241e-09       122606.3 
21970000      118  2.9537678e-09      122656.93 
21980000      118  1.4571834e-08      122706.59 
21990000      118  3.7891254e-09      122756.83 
22000000      118  3.7731799e-09      122802.52 
22010000      118  2.0745602e-06      122848.01 
22020000      118  3.7496497e-06       122895.9 
22030000      118  3.0837834e-08      122941.77 
22040000      118  1.8757336e-06      122990.55 
22050000      118  3.4077938e-06      123040.22 
22060000      118  2.8685919e-05      123091.44 
22070000      118  6.3874043e-09      123142.73 
22080000      118  6.9167551e-09      123193.26 
22090000      118  3.3531056e-09      123237.17 
22100000      118  2.9707495e-09      123286.17 
22110000      118  3.9484849e-09       123333.3 
22120000      118  1.3109271e-07      123380.99 
22130000      118  1.0002412e-08      123429.61 
22140000      118  3.5034653e-07      123474.35 
22150000      118   4.277188e-09      123521.74 
22160000      118  5.6374552e-09      123570.08 
22170000      118  5.1498291e-09       123613.4 
22180000      118  1.1929483e-08      123658.89 
22190000      118   4.715027e-09      123702.88 
22200000      118  2.6268864e-09      123747.86 
22210000      118  2.0903304e-08      123795.55 
22220000      118  1.3775889e-08      123844.81 
22230000      118  2.1109904e-09      123893.91 
22240000      118  1.0789664e-07      123941.33 
22250000      118  2.3184577e-09      123988.55 
22260000      118  9.5829799e-09      124033.67 
22270000      118    2.31719e-09      124078.74 
22280000      118  8.2174983e-09      124127.31 
22290000      118  5.3958096e-09      124173.53 
22300000      118  2.1574173e-09      124222.64 
22310000      118  2.2285715e-09      124266.46 
22320000      118  2.2379171e-09      124311.99 
22330000      118  4.5150751e-07      124356.93 
22340000      118  8.8078759e-07      124401.61 
22350000      118   8.976537e-06      124448.87 
22360000      118  1.2142252e-05      124496.49 
22370000      118  3.5605592e-07      124539.66 
22380000      118  6.3317659e-08      124590.68 
22390000      118  1.0831916e-06      124637.09 
22400000      118  1.7276817e-08      124682.83 
22410000      118  7.9531578e-08      124728.08 
22420000      118  2.1682782e-06      124774.61 
22430000      118  2.2423605e-09      124825.45 
22440000      118  2.5589819e-09      124870.95 
22450000      118  2.2462029e-09       124921.6 
22460000      118   2.279876e-09      124967.21 
22470000      118  4.4214764e-09      125012.86 
22480000      118    4.06126e-09      125061.09 
22490000      118  5.0084225e-09      125111.21 
22500000      118  9.7370172e-09      125157.19 
22510000      118  3.4415639e-09      125205.28 
22520000      118  4.2422769e-06      125255.11 
22530000      118  3.0952987e-07       125300.9 
22540000      118  1.1864303e-06      125347.96 
22550000      118  1.7493993e-08      125395.97 
22560000      118  2.7123668e-08      125443.01 
22570000      118  1.5760195e-08      125493.72 
22580000      118  1.2372435e-08      125541.43 
22590000      118  9.0907248e-09      125587.33 
22600000      118   1.253342e-08      125636.54 
22610000      118  2.9114814e-06      125682.32 
22620000      118  8.1548968e-09       125728.6 
22630000      118  1.1462707e-08      125775.06 
22640000      118   1.326223e-08      125821.98 
22650000      118  2.0304192e-08      125868.42 
22660000      118  9.8587772e-08      125919.05 
22670000      118  4.5326434e-08      125964.89 
22680000      118  5.2615048e-08      126008.83 
22690000      118  3.8919354e-08      126058.65 
22700000      118  2.0337375e-08      126107.54 
22710000      118  2.7576356e-08      126155.35 
22720000      118  2.8325717e-08      126202.25 
22730000      118  2.9414973e-08      126250.01 
22740000      118  4.0035554e-08       126297.4 
22750000      118  1.1429573e-06       126346.2 
22760000      118  8.3934349e-08      126389.51 
22770000      118  1.1979489e-07       126435.8 
22780000      118  1.5948532e-05      126485.09 
22790000      118  1.4238742e-06      126532.74 
22800000      118  3.4160716e-06      126580.27 
22810000      118  3.4208968e-05      126625.93 
22820000      118  3.7577899e-08      126671.91 
22830000      118  1.6975553e-08      126717.23 
22840000      118  9.5267877e-09      126764.49 
22850000      118  5.3067495e-09      126812.49 
22860000      118  7.3864471e-09      126860.35 
22870000      118  2.4142201e-09      126909.75 
22880000      118  3.0352047e-09      126957.63 
22890000      118  1.9109498e-06      127005.08 
22900000      118  6.1959026e-09      127052.09 
22910000      118  1.7411553e-06      127101.57 
22920000      118  2.2183332e-08      127146.11 
22930000      118  2.6697067e-07      127196.43 
22940000      118  6.6310223e-08      127239.15 
22950000      118   2.575811e-07      127284.98 
22960000      118  3.3964892e-08       127330.2 
22970000      118  3.2441042e-08      127374.76 
22980000      118  3.3912922e-08      127416.38 
22990000      118  3.3983772e-08      127463.66 
23000000      118  1.9365838e-08      127511.22 
23010000      118  6.0358804e-09         127558 
23020000      118  7.7983967e-08      127606.16 
23030000      118  8.9778095e-08      127654.44 
23040000      118  9.4155447e-06      127701.09 
23050000      118  1.5561735e-07      127745.39 
23060000      118  2.8667397e-09      127791.66 
23070000      118  5.4544259e-07      127839.24 
23080000      118  9.4153772e-08      127884.94 
23090000      118  4.8371635e-09      127929.63 
23100000      118  7.9256581e-09      127979.69 
23110000      118  1.4235053e-08      128027.82 
23120000      118  1.4520027e-08      128074.26 
23130000      118  1.2016304e-08      128121.84 
23140000      118  1.3576232e-08      128168.89 
23150000      118  8.9271202e-09      128217.12 
23160000      118  4.9618097e-09         128260 
23170000      118  3.6564591e-09      128303.36 
23180000      118  2.3546675e-09      128347.88 
23190000      118   2.540205e-09      128389.94 
23200000      118  2.5954949e-09      128436.73 
23210000      118  1.6321201e-08      128483.46 
23220000      118  1.9694125e-08      128526.61 
23230000      118  6.7936192e-09      128572.03 
23240000      118  4.1117508e-09       128619.2 
23250000      118  2.7792943e-09      128664.43 
23260000      118  3.0518923e-09      128710.16 
23270000      118   5.199193e-08      128758.11 
23280000      118  2.1057984e-08      128804.65 
23290000      118  1.4083239e-08      128851.21 
23300000      118  3.1477277e-08      128896.84 
23310000      118  2.9589742e-09      128945.61 
23320000      118  4.6722094e-09      128989.93 
23330000      118  3.9611696e-09      129034.63 
23340000      118  2.8058078e-09      129082.54 
23350000      118  2.2051749e-09      129126.23 
23360000      118  2.1419039e-09      129171.82 
23370000      118  2.0465044e-09      129215.33 
23380000      118  2.4665331e-09      129259.68 
23390000      118  6.8724864e-07       129298.6 
23400000      118  2.3302727e-09      129342.27 
23410000      118  2.9108515e-09      129386.81 
23420000      118  3.1155605e-08      129437.23 
23430000      118  2.2797997e-09      129487.89 
23440000      118  3.9546675e-09      129536.93 
23450000      118  9.2870742e-08       129588.5 
23460000      118  5.1167765e-09      129640.88 
23470000      118  9.4574434e-08      129690.25 
23480000      118   2.331312e-09      129739.14 
23490000      118  2.2768005e-08      129790.51 
23500000      118  2.3726369e-09       129837.6 
23510000      118  2.2881272e-09      129886.75 
23520000      118  1.0580163e-08      129939.01 
23530000      118  1.2759529e-08      129990.09 
23540000      118  3.3024378e-08      130040.88 
23550000      118  2.1070216e-09      130093.34 
23560000      118  2.3424976e-09      130143.59 
23570000      118  2.2811392e-09      130196.96 
23580000      118  2.3800873e-09       130245.1 
23590000      118   3.953977e-09      130298.29 
23600000      118  4.0763619e-09      130345.24 
23610000      118  1.8228988e-07       130399.4 
23620000      118  4.1089456e-09      130451.56 
23630000      118  1.9489806e-08      130503.94 
23640000      118  5.4666896e-09      130554.61 
23650000      118  2.9965337e-09      130603.04 
23660000      118  2.5027668e-09       130655.3 
23670000      118  2.3778825e-09      130705.71 
23680000      118  6.0828991e-09      130754.56 
23690000      118  2.3351975e-09      130809.72 
23700000      118  2.3820261e-09      130858.51 
23710000      118  2.3899506e-09      130910.38 
23720000      118  2.4427133e-09      130960.69 
23730000      118  1.5305481e-08      131009.98 
23740000      118   2.492687e-09      131056.39 
23750000      118  2.4744031e-09      131107.63 
23760000      118  3.0655407e-09      131155.24 
23770000      118  3.0937511e-09       131202.1 
23780000      118  8.2756662e-09      131257.51 
23790000      118  7.1943037e-08      131308.02 
23800000      118  2.3554726e-09      131357.47 
23810000      118  1.4999859e-06      131410.14 
23820000      118  5.3628647e-06      131458.57 
23830000      118  2.6623528e-09      131507.23 
23840000      118  2.6158986e-06      131553.64 
23850000      118  7.0344226e-09      131598.96 
23860000      118  2.5185954e-09      131643.95 
23870000      118  8.6866153e-09      131692.77 
23880000      118  5.3760489e-09      131735.73 
23890000      118  1.1120087e-06      131779.73 
23900000      118  5.6533368e-06       131826.3 
23910000      118  1.4075979e-07      131871.82 
23920000      118  7.9825715e-07      131915.11 
23930000      118   2.587829e-09      131961.11 
23940000      118  2.7550803e-09      132007.97 
23950000      118  2.4840998e-09      132058.12 
23960000      118  4.6785172e-08      132105.02 
23970000      118  8.7621043e-08      132152.36 
23980000      118  2.6463615e-09      132199.32 
23990000      118    2.53414e-09       132248.9 
24000000      118   2.586236e-09       132298.3 
24010000      118   2.463702e-09      132344.23 
24020000      118  1.3949209e-08      132387.72 
24030000      118  2.6954508e-08      132432.38 
24040000      118  5.1481519e-09      132478.88 
24050000      118  3.1211291e-09       132525.7 
24060000      118  3.8609417e-09      132573.68 
24070000      118  1.7161591e-08      132621.77 
24080000      118  7.5669416e-09      132669.08 
24090000      118  2.5305715e-09      132716.29 
24100000      118  1.1991481e-08      132760.86 
24110000      118  7.5968256e-09      132807.91 
24120000      118  2.8929793e-06      132859.32 
24130000      118  5.6098632e-07      132906.54 
24140000      118  4.7140031e-09      132957.38 
24150000      118   3.973993e-09      133004.52 
24160000      118  3.0387873e-09      133048.85 
24170000      118  1.2643193e-07      133098.69 
24180000      118  7.3988043e-09      133143.59 
24190000      118  1.0518725e-08      133189.87 
24200000      118  1.9609695e-08      133236.83 
24210000      118  3.4941483e-08      133282.22 
24220000      118  2.5192641e-06      133330.52 
24230000      118  2.5738662e-07      133375.76 
24240000      118  3.7663988e-06      133422.18 
24250000      118   1.632037e-08      133466.17 
24260000      118  3.7028215e-07      133516.19 
24270000      118  5.9539854e-08      133563.29 
24280000      118   5.794039e-08      133607.72 
24290000      118  3.9531172e-08      133654.39 
24300000      118  2.0656509e-07      133701.06 
24310000      118  4.7160005e-08      133751.65 
24320000      118  1.1655756e-07      133796.12 
24330000      118  9.3287405e-09       133843.7 
24340000      118  8.4846873e-09      133891.26 
24350000      118  5.7751785e-09      133937.75 
24360000      118  6.3912568e-09      133981.76 
24370000      118  7.7857301e-09      134027.06 
24380000      118   3.610026e-08      134070.64 
24390000      118  8.9348668e-08      134117.31 
24400000      118  1.6149086e-08      134167.14 
24410000      118  6.0135667e-07      134211.76 
24420000      118  2.8075657e-09      134255.97 
24430000      118  2.6432779e-09      134303.92 
24440000      118  2.2703223e-09      134352.34 
24450000      118  6.7228308e-08      134398.98 
24460000      118  8.3487671e-09      134445.14 
24470000      118  2.4010175e-09       134488.6 
24480000      118    2.12034e-09    