ITEM: TIMESTEP
10800000
ITEM: NUMBER OF ATOMS
287
ITEM: BOX BOUNDS ff ff ff
-0.02 0.43
-0.02 0.06
-0.02 0.07
ITEM: ATOMS id type x y z vx vy vz fx fy fz radius mass 
1 1 0.0757604 0.0161811 0.00790325 0.0057263 0.000312404 -0.000620994 4.16893e-12 -4.80185e-11 6.07251e-11 5e-05 1.46608e-10 
2 1 0.0761768 0.0171357 0.00728264 0.00640359 0.000380984 -6.85066e-05 -2.12663e-10 1.06664e-10 -5.2714e-11 5e-05 1.46608e-10 
3 1 0.0695284 0.0156719 0.00841572 0.00549497 -0.000291885 0.000399556 -1.75508e-11 2.52212e-10 1.90785e-10 5e-05 1.46608e-10 
4 1 0.0760897 0.0175296 0.00715567 0.00641258 0.000531877 -0.000354906 8.39794e-11 5.18774e-11 2.26964e-11 5e-05 1.46608e-10 
5 1 0.0756461 0.01608 0.00798544 0.00570405 0.000332517 -0.000635754 -3.89502e-11 -5.56662e-10 4.01733e-10 5e-05 1.46608e-10 
6 1 0.0817985 0.0167417 0.00765544 0.00593384 0.00011647 0.000326641 2.52185e-14 -1.61589e-11 7.82309e-12 5e-05 1.46608e-10 
7 1 0.0758238 0.0167999 0.0074765 0.00627002 0.000496848 -0.000140786 -6.92375e-12 7.18452e-11 -6.82248e-11 5e-05 1.46608e-10 
8 1 0.0755493 0.0157107 0.0083022 0.00585906 0.000560456 -0.000525846 -4.62048e-11 6.81142e-11 -4.8275e-10 5e-05 1.46608e-10 
9 1 0.0820789 0.0178927 0.00712019 0.00614125 8.43644e-05 0.00035513 -2.77585e-11 1.12946e-11 -3.37442e-11 5e-05 1.46608e-10 
10 1 0.0757639 0.0165517 0.00763394 0.00569961 0.000511491 -0.000448349 -9.00592e-10 6.16069e-10 -5.67503e-10 5e-05 1.46608e-10 
11 1 0.0762202 0.0173033 0.00718255 0.00642744 0.000415487 -8.47228e-05 1.4491e-11 -7.09736e-11 1.51229e-10 5e-05 1.46608e-10 
12 1 0.0697249 0.0164397 0.007806 0.00571026 -0.000354329 0.000469065 5.0255e-10 -1.1551e-10 1.07221e-10 5e-05 1.46608e-10 
13 1 0.0756266 0.0160016 0.00804443 0.00570019 0.000295636 -0.000609886 3.05866e-11 -3.65506e-11 7.22443e-12 5e-05 1.46608e-10 
14 1 0.0694486 0.0153825 0.00867826 0.00552242 -0.00031084 0.000335612 -1.72232e-10 -1.1464e-10 8.53883e-10 5e-05 1.46608e-10 
15 1 0.0759637 0.0169954 0.00736195 0.006444 0.000454496 -0.000112309 7.60822e-11 2.25847e-10 -9.61773e-11 5e-05 1.46608e-10 
16 1 0.0694318 0.015358 0.00877373 0.00569348 -0.000354755 0.000385879 -8.23856e-11 -3.09616e-10 1.00284e-09 5e-05 1.46608e-10 
17 1 0.0757443 0.0164717 0.00769059 0.0057496 0.000350891 -0.000582958 2.07619e-10 1.73382e-10 -4.87013e-10 5e-05 1.46608e-10 
18 1 0.0819495 0.0173615 0.00736723 0.00604145 8.43799e-05 0.000348994 2.11737e-11 4.21858e-11 -3.26422e-11 5e-05 1.46608e-10 
19 1 0.075607 0.0159232 0.00810342 0.00571473 0.000366091 -0.000661359 -5.17993e-11 -7.59241e-11 2.22226e-11 5e-05 1.46608e-10 
21 1 0.0757407 0.0161027 0.00796222 0.00573497 0.000317258 -0.000628111 -6.32561e-12 -1.3092e-10 9.19534e-11 5e-05 1.46608e-10 
22 1 0.0758664 0.0169676 0.00737629 0.0063397 0.000505404 -0.000144623 -9.71797e-11 9.14616e-11 -3.27817e-11 5e-05 1.46608e-10 
23 1 0.0699096 0.0167799 0.00753995 0.00598191 -0.000374331 0.000494772 -5.80964e-12 1.52859e-10 -7.11236e-11 5e-05 1.46608e-10 
24 1 0.0820142 0.0176271 0.00724371 0.00609127 8.45862e-05 0.000351864 -2.12879e-12 -3.90571e-12 -2.6496e-11 5e-05 1.46608e-10 
25 1 0.0758032 0.0167159 0.00752668 0.00566744 0.000600436 -0.000219339 -4.40171e-10 1.34386e-10 -8.96608e-11 5e-05 1.46608e-10 
26 1 0.0818848 0.0170959 0.00749075 0.00599123 8.71191e-05 0.000344412 -1.74875e-11 -3.07505e-11 1.20823e-11 5e-05 1.46608e-10 
27 1 0.0698074 0.0167487 0.00756576 0.00597926 -0.000369738 0.000480711 -3.56589e-11 5.9114e-11 -6.3844e-12 5e-05 1.46608e-10 
28 1 0.0760688 0.0174319 0.0071602 0.00646212 0.000520063 -0.000174759 3.81591e-11 4.05572e-11 7.6128e-11 5e-05 1.46608e-10 
29 1 0.0755875 0.0158449 0.0081624 0.00571256 0.000371331 -0.000665982 5.42867e-11 1.20477e-10 -8.87244e-11 5e-05 1.46608e-10 
30 1 0.0761023 0.0171919 0.00724681 0.00644969 0.000445949 -0.000107685 8.26662e-11 4.31e-10 -2.52526e-10 5e-05 1.46608e-10 
31 1 0.0758451 0.0168837 0.00742639 0.00631421 0.000495435 -0.000136967 5.52184e-11 1.03256e-10 -8.31006e-11 5e-05 1.46608e-10 
32 1 0.0759414 0.0169117 0.00741192 0.00639342 0.000459205 -0.000114901 -5.37686e-12 1.82348e-10 -1.08645e-10 5e-05 1.46608e-10 
33 1 0.0818201 0.0168302 0.00761426 0.00594941 0.000111484 0.000330063 -3.62629e-12 -3.20815e-11 1.5184e-11 5e-05 1.46608e-10 
34 1 0.0757246 0.0163933 0.00774956 0.00575491 0.000321549 -0.000617427 8.45396e-11 3.34005e-10 2.92699e-10 5e-05 1.46608e-10 
35 1 0.07592 0.0168284 0.00746281 0.0063334 0.000466784 -0.000123637 3.53076e-12 1.32963e-10 -1.05684e-10 5e-05 1.46608e-10 
36 1 0.0821207 0.01807 0.00703766 0.00568848 0.000150585 0.000292559 4.08915e-11 -5.6968e-11 5.83126e-11 5e-05 1.46608e-10 
37 1 0.0758786 0.0166599 0.00756235 0.00591998 0.000526721 -0.000170267 3.78492e-10 5.14372e-11 -1.43815e-11 5e-05 1.46608e-10 
38 1 0.0760387 0.0169398 0.00739801 0.00645261 0.000440465 -0.000102837 1.98872e-10 9.19498e-11 -5.31939e-11 5e-05 1.46608e-10 
39 1 0.0820358 0.0177156 0.00720254 0.00610563 8.25085e-05 0.00035357 -8.71208e-12 3.2158e-11 1.88557e-11 5e-05 1.46608e-10 
41 1 0.0756853 0.0162367 0.0078675 0.00574429 0.000321126 -0.000627814 -6.56524e-11 -1.75958e-10 6.30812e-11 5e-05 1.46608e-10 
42 1 0.0758876 0.0170515 0.00732618 0.0063551 0.000510894 -0.00014929 9.905e-11 -6.98048e-13 9.66628e-12 5e-05 1.46608e-10 
44 1 0.0760608 0.0170233 0.00734759 0.00646483 0.000451856 -0.000109609 3.25708e-10 1.53005e-10 -7.77367e-11 5e-05 1.46608e-10 
45 1 0.0818416 0.0169188 0.00757309 0.00596429 0.000104161 0.000334537 -1.30444e-11 -5.1281e-11 2.37981e-11 5e-05 1.46608e-10 
46 1 0.0819279 0.0172729 0.0074084 0.00602378 8.25234e-05 0.000349004 1.92509e-11 4.00485e-11 -1.35368e-11 5e-05 1.46608e-10 
47 1 0.075705 0.016315 0.00780853 0.00575009 0.000317007 -0.000636018 -6.40732e-11 -1.04784e-10 4.00401e-11 5e-05 1.46608e-10 
48 1 0.0759322 0.0172229 0.00723372 0.00644318 0.000518957 -0.000146598 4.98008e-11 2.9056e-11 -1.38534e-11 5e-05 1.46608e-10 
49 1 0.0819064 0.0171844 0.00744957 0.00600587 8.2478e-05 0.000347391 8.44846e-12 1.08038e-11 -2.60946e-12 5e-05 1.46608e-10 
50 1 0.0759934 0.0174975 0.00716216 0.0064187 0.000539495 -0.000253761 1.21148e-10 2.98406e-10 -2.86931e-10 5e-05 1.46608e-10 
51 1 0.0759725 0.0173999 0.00716863 0.00644521 0.000540088 -0.000176375 -7.90608e-11 2.37881e-10 -1.38525e-10 5e-05 1.46608e-10 
52 1 0.0697053 0.0163628 0.00786686 0.00561264 -0.000317662 0.000437177 -8.10941e-11 1.36666e-10 -1.16205e-10 5e-05 1.46608e-10 
53 1 0.0819711 0.01745 0.00732606 0.00605893 8.63431e-05 0.000348728 3.74627e-12 4.01204e-11 -7.6669e-12 5e-05 1.46608e-10 
54 1 0.0757211 0.0160244 0.0080212 0.00569091 0.000332323 -0.00063511 2.03238e-10 -1.29603e-10 9.87801e-11 5e-05 1.46608e-10 
55 1 0.0694895 0.0155171 0.00853627 0.00546821 -0.000246564 0.000370044 -9.78915e-11 -2.58444e-11 6.21189e-11 5e-05 1.46608e-10 
56 1 0.0758994 0.0167439 0.00751218 0.00616012 0.000488965 -0.000139868 1.40796e-10 1.00097e-10 -5.45997e-11 5e-05 1.46608e-10 
57 1 0.0818632 0.0170073 0.00753192 0.005978 9.52202e-05 0.000339708 -2.27335e-11 -5.44229e-11 2.46395e-11 5e-05 1.46608e-10 
59 1 0.075954 0.0166049 0.00759956 0.00601418 0.00051317 -0.00015584 2.76655e-10 -1.21926e-10 5.26534e-11 5e-05 1.46608e-10 
60 1 0.0759745 0.016688 0.00754783 0.00624239 0.000466198 -0.000127183 -1.9969e-10 -1.19474e-10 -5.20772e-11 5e-05 1.46608e-10 
61 1 0.0756657 0.0161583 0.00792646 0.00573757 0.000318138 -0.000627545 -1.13363e-10 -2.79198e-10 2.74455e-10 5e-05 1.46608e-10 
62 1 0.0760821 0.0171072 0.00729748 0.00643727 0.000483942 -0.000131784 -1.96181e-11 6.60103e-11 -5.40303e-11 5e-05 1.46608e-10 
63 1 0.0760269 0.0172474 0.00721144 0.00646071 0.000489709 -0.000130112 -9.56496e-11 2.52923e-10 -1.27007e-10 5e-05 1.46608e-10 
64 1 0.0819926 0.0175386 0.00728488 0.00607533 8.70178e-05 0.000350622 4.82362e-12 1.47413e-11 -1.63919e-13 5e-05 1.46608e-10 
65 1 0.0698276 0.0164729 0.00778284 0.00576435 -0.000381794 0.00049357 -3.44484e-10 1.6043e-11 -3.48143e-11 5e-05 1.46608e-10 
66 1 0.0697673 0.0162424 0.0079652 0.00558675 -0.000372964 0.000480615 9.09636e-11 1.14684e-10 -8.68316e-11 5e-05 1.46608e-10 
67 1 0.0761983 0.0172195 0.00723257 0.00629521 0.000419184 -9.54542e-05 -2.95729e-10 7.24632e-11 -7.34956e-11 5e-05 1.46608e-10 
68 1 0.0761465 0.01737 0.00717199 0.00646422 0.000478088 -0.000111469 -1.84173e-10 -1.65017e-10 1.55946e-10 5e-05 1.46608e-10 
69 1 0.0758193 0.0164161 0.00772645 0.00575815 0.000344095 -0.000555667 -5.31163e-12 -2.18033e-10 -3.71342e-10 5e-05 1.46608e-10 
70 1 0.0820573 0.0178042 0.00716137 0.00612331 8.32098e-05 0.000355612 2.7021e-11 2.39209e-11 -2.19566e-11 5e-05 1.46608e-10 
71 1 0.0694686 0.0154475 0.00860491 0.00537207 -0.000240846 0.000340091 -4.78392e-12 1.0851e-10 6.3741e-10 5e-05 1.46608e-10 
72 1 0.0761215 0.0172763 0.00719635 0.00647417 0.000472567 -0.000120097 -4.27191e-10 2.9597e-11 4.74852e-12 5e-05 1.46608e-10 
73 1 0.0757836 0.0166317 0.007577 0.00574032 0.000579558 -0.000205476 2.37686e-11 1.41033e-10 -8.29068e-11 5e-05 1.46608e-10 
74 1 0.075986 0.0170791 0.00731198 0.00644544 0.000462262 -0.000116999 2.40468e-10 1.65795e-10 -1.04616e-10 5e-05 1.46608e-10 
76 1 0.0700416 0.0173185 0.00720134 0.00613645 -0.000590665 0.000241819 -1.41415e-10 6.26181e-11 2.46182e-10 5e-05 1.46608e-10 
77 1 0.0762368 0.0182156 0.00713542 0.00605204 0.000474055 -0.000329263 5.22988e-10 5.76232e-10 -3.78716e-11 5e-05 1.46608e-10 
78 1 0.0695485 0.0157477 0.00835375 0.00540846 -0.000264694 0.000383918 8.09938e-10 3.47252e-10 -1.40875e-10 5e-05 1.46608e-10 
79 1 0.0697452 0.0165165 0.00774526 0.00583409 -0.000372233 0.000485859 -3.71024e-11 -2.02274e-10 1.39178e-10 5e-05 1.46608e-10 
80 1 0.0760559 0.0177908 0.00715272 0.00627468 0.000516052 -0.000343524 1.76092e-11 1.43042e-10 1.24593e-11 5e-05 1.46608e-10 
81 1 0.0696854 0.016286 0.00792768 0.00553004 -0.00028395 0.000407509 -3.756e-11 3.59692e-10 -2.76745e-10 5e-05 1.46608e-10 
82 1 0.0698277 0.0168234 0.00750249 0.00601265 -0.0003647 0.000489757 -5.80323e-11 6.63456e-11 -5.32505e-12 5e-05 1.46608e-10 
83 1 0.0698382 0.0161341 0.00805419 0.0054854 -0.000386349 0.000488031 9.46519e-11 1.00844e-10 -7.96764e-11 5e-05 1.46608e-10 
84 1 0.0821005 0.0179813 0.00707902 0.00615492 7.94216e-05 0.000358274 -1.2057e-11 1.51666e-11 -4.83048e-12 5e-05 1.46608e-10 
85 1 0.0696496 0.0157811 0.00833033 0.00539372 -0.000379846 0.000479141 -5.47103e-10 2.05415e-11 1.09142e-11 5e-05 1.46608e-10 
86 1 0.0760457 0.0173322 0.00716159 0.00646952 0.000475231 -0.00035746 1.04678e-10 1.28345e-10 6.95542e-12 5e-05 1.46608e-10 
87 1 0.0759338 0.0165199 0.00764825 0.00585622 0.000544527 -0.000181949 3.95407e-10 -1.97003e-10 5.172e-11 5e-05 1.46608e-10 
88 1 0.0761184 0.018084 0.00714408 0.00617005 0.000538174 -0.000338141 -4.0744e-11 -1.9089e-11 6.20933e-12 5e-05 1.46608e-10 
89 1 0.0760767 0.0178885 0.00714984 0.00623195 0.000524835 -0.00033756 -9.4424e-12 8.17354e-11 -1.51579e-11 5e-05 1.46608e-10 
90 1 0.076157 0.0170513 0.0073331 0.00646276 0.000511147 -0.000145887 -1.26032e-10 8.52415e-11 -5.93521e-11 5e-05 1.46608e-10 
91 1 0.0697659 0.0165932 0.00768455 0.00581789 -0.000358519 0.000473745 9.86548e-11 -1.82662e-10 8.24698e-11 5e-05 1.46608e-10 
92 1 0.0761876 0.0175638 0.00714986 0.00636085 0.000471112 -0.000344868 -1.09726e-10 -1.76332e-10 -5.44295e-11 5e-05 1.46608e-10 
93 1 0.0761736 0.0179215 0.00714411 0.00618165 0.000518044 -0.000336473 1.39083e-10 6.40694e-11 3.46212e-12 5e-05 1.46608e-10 
94 1 0.0762501 0.0178571 0.00714123 0.00616893 0.000515125 -0.000336305 5.49276e-11 1.06015e-10 -2.61647e-11 5e-05 1.46608e-10 
95 1 0.0760351 0.017693 0.0071556 0.00632159 0.000515502 -0.000349518 2.55063e-10 2.64748e-10 6.36703e-11 5e-05 1.46608e-10 
96 1 0.0762085 0.0176616 0.00714698 0.00627056 0.000494223 -0.000340855 -9.92764e-11 -1.62919e-10 3.53692e-11 5e-05 1.46608e-10 
97 1 0.0696461 0.0161322 0.00804939 0.00542386 -0.000259944 0.000384932 -6.86067e-11 2.13206e-10 -2.05469e-10 5e-05 1.46608e-10 
98 1 0.0761392 0.0181818 0.0071412 0.00610651 0.000523671 -0.000331847 -8.84094e-11 -3.4708e-11 1.58551e-11 5e-05 1.46608e-10 
99 1 0.0698067 0.0163962 0.00784351 0.0057169 -0.000372521 0.000483852 4.06224e-10 -2.44269e-11 3.32938e-11 5e-05 1.46608e-10 
100 1 0.0761134 0.0168834 0.00743332 0.00638707 0.000348816 -5.02014e-05 3.36491e-11 -1.20023e-10 6.95081e-11 5e-05 1.46608e-10 
101 1 0.0697476 0.0161656 0.00802603 0.00550648 -0.000367407 0.000473303 3.60439e-10 1.1617e-10 -8.22823e-11 5e-05 1.46608e-10 
102 1 0.0643568 0.0187248 0.00531097 4.29029e-15 1.05454e-14 8.29529e-14 -1.81324e-21 9.93858e-22 -3.03989e-23 5e-05 1.46608e-10 
103 1 0.24257 0.0191927 0.00520306 9.7161e-23 -3.03968e-22 -5.81428e-22 0 0 0 5e-05 1.46608e-10 
104 1 0.0700636 0.0170742 0.00735769 0.00607985 -0.000418101 0.000440375 1.90281e-10 1.7721e-10 1.08116e-10 5e-05 1.46608e-10 
105 1 0.069607 0.0159784 0.00817113 0.00538657 -0.000253591 0.000380799 1.29846e-10 3.84087e-10 -3.07124e-10 5e-05 1.46608e-10 
106 1 0.0701512 0.0170263 0.00735074 0.00610993 -0.000388409 0.000517066 1.87892e-10 1.7636e-10 -2.83268e-11 5e-05 1.46608e-10 
107 1 0.0695677 0.0158247 0.00829283 0.00543935 -0.000246673 0.000373674 -4.83734e-11 5.40226e-10 -4.15477e-10 5e-05 1.46608e-10 
108 1 0.0758586 0.0165758 0.00761261 0.00576718 0.000556886 -0.000186606 -2.17445e-10 2.69628e-10 7.31666e-11 5e-05 1.46608e-10 
109 1 0.0759513 0.0173025 0.00717626 0.00646521 0.000534431 -0.00015133 -2.57164e-11 9.36687e-11 3.88666e-11 5e-05 1.46608e-10 
110 1 0.0763035 0.0176923 0.00714139 0.00624965 0.000534302 -0.000341143 1.22559e-11 1.99794e-10 -2.77926e-11 5e-05 1.46608e-10 
111 1 0.0761808 0.0183773 0.00713544 0.00604374 0.00051827 -0.00032995 -1.09727e-10 -2.97169e-10 7.15676e-12 5e-05 1.46608e-10 
112 1 0.0696657 0.0162091 0.00798853 0.00543743 -0.000254683 0.000381664 7.97226e-11 2.72422e-10 -2.13435e-10 5e-05 1.46608e-10 
113 1 0.0704658 0.0175091 0.00722451 0.00591794 -0.000471426 0.000396917 -3.49024e-10 -7.14276e-11 -6.36925e-11 5e-05 1.46608e-10 
114 1 0.0700226 0.0168249 0.00750765 0.00600453 -0.000366647 0.000486789 -2.80982e-10 -3.26313e-11 4.34768e-11 5e-05 1.46608e-10 
115 1 0.0760072 0.017163 0.00726189 0.00643661 0.000480619 -0.000133827 1.00985e-10 1.24014e-10 -9.62784e-11 5e-05 1.46608e-10 
116 1 0.0758388 0.0164945 0.00766733 0.0056572 0.000588508 -0.000786122 2.35127e-09 -1.31097e-09 8.84535e-10 5e-05 1.46608e-10 
117 1 0.0757016 0.015946 0.00808018 0.00570586 0.0003506 -0.000647385 -1.68437e-10 7.80058e-11 -1.14037e-12 5e-05 1.46608e-10 
118 1 0.0695084 0.0155941 0.00847531 0.00554557 -0.000270957 0.000392037 -3.12355e-10 5.81805e-11 -4.1285e-11 5e-05 1.46608e-10 
119 1 0.0759949 0.016772 0.00749761 0.00635867 0.000450399 -0.000111523 -2.36591e-10 -7.88319e-11 -2.13017e-11 5e-05 1.46608e-10 
120 1 0.075568 0.0157665 0.00822138 0.00571485 0.000379647 -0.00066884 1.06391e-10 2.76752e-10 -1.51498e-10 5e-05 1.46608e-10 
121 1 0.0755304 0.0156567 0.00838423 0.00581991 0.000568765 -0.000535775 3.62891e-11 2.90146e-10 -4.07068e-10 5e-05 1.46608e-10 
122 1 0.0763243 0.0177901 0.00713851 0.00619259 0.000550086 -0.00033706 -2.13976e-10 -2.50448e-10 1.76969e-11 5e-05 1.46608e-10 
123 1 0.069689 0.0159349 0.00820865 0.00539252 -0.000375626 0.000476068 3.03483e-10 -2.28038e-11 1.62305e-11 5e-05 1.46608e-10 
124 1 0.0761318 0.0177257 0.00714988 0.00626038 0.000492015 -0.00034163 -1.69105e-10 -1.46136e-10 -1.58151e-11 5e-05 1.46608e-10 
125 1 0.0756821 0.0158677 0.00813916 0.00570997 0.000362005 -0.000656614 5.26104e-11 4.78697e-11 -7.12437e-11 5e-05 1.46608e-10 
126 1 0.0759089 0.0171354 0.00727608 0.00637847 0.000522754 -0.000152228 1.54347e-10 -4.76147e-11 4.36264e-11 5e-05 1.46608e-10 
127 1 0.0696264 0.0160553 0.00811024 0.00541284 -0.000274922 0.000396319 -4.47434e-11 2.02261e-10 -1.43551e-10 5e-05 1.46608e-10 
128 1 0.0760143 0.0175952 0.00715851 0.00637256 0.000533564 -0.000328567 1.9898e-10 3.67574e-10 1.14098e-10 5e-05 1.46608e-10 
129 1 0.0760976 0.0179863 0.00714696 0.0062078 0.000534003 -0.000338546 4.00824e-11 3.14443e-11 1.8122e-12 5e-05 1.46608e-10 
130 1 0.0699319 0.016857 0.00748037 0.00601237 -0.000415144 0.000450467 -2.28324e-10 2.16055e-10 4.6485e-11 5e-05 1.46608e-10 
131 1 0.0697872 0.0163193 0.00790438 0.00567121 -0.000378008 0.000487569 -4.63894e-11 1.16635e-10 -1.03287e-10 5e-05 1.46608e-10 
132 1 0.0761105 0.0176274 0.00715279 0.00633842 0.000492335 -0.000351976 2.61514e-10 3.04799e-10 -4.35891e-11 5e-05 1.46608e-10 
133 1 0.075855 0.0162037 0.00788009 0.00572822 0.000283702 -0.000597345 -9.39482e-12 -2.18576e-10 1.7084e-10 5e-05 1.46608e-10 
134 1 0.0760164 0.0168559 0.00744753 0.00640564 0.000447352 -0.000106988 1.11029e-10 -2.5132e-11 2.91929e-11 5e-05 1.46608e-10 
135 1 0.0756626 0.0157893 0.00819814 0.00570917 0.00037269 -0.000664949 5.0871e-11 1.05732e-10 -1.45351e-10 5e-05 1.46608e-10 
136 1 0.0696304 0.0157042 0.00839124 0.00538231 -0.000365018 0.000470775 5.25806e-10 -1.42348e-10 1.54518e-10 5e-05 1.46608e-10 
137 1 0.0762017 0.0184751 0.00713256 0.00600645 0.000529313 -0.000327724 -8.15686e-11 -3.65202e-10 7.86752e-12 5e-05 1.46608e-10 
138 1 0.0757997 0.0163377 0.00778532 0.00575703 0.000293902 -0.000626148 -1.76722e-10 -7.71414e-11 1.33968e-12 5e-05 1.46608e-10 
140 1 0.0763451 0.0178878 0.00713564 0.00612432 0.000604634 -0.000335287 7.64212e-11 1.37262e-10 -2.08357e-12 5e-05 1.46608e-10 
141 1 0.0696694 0.015858 0.0082695 0.00544549 -0.00038631 0.000485689 -6.58445e-12 -3.34086e-12 1.07509e-11 5e-05 1.46608e-10 
142 1 0.0700466 0.016901 0.0074475 0.00608634 -0.000365739 0.000496665 -2.30615e-10 -1.58074e-11 -6.16637e-11 5e-05 1.46608e-10 
143 1 0.0695875 0.0159016 0.00823208 0.00543206 -0.000251356 0.000379946 -3.03411e-10 5.58084e-10 -4.9766e-10 5e-05 1.46608e-10 
144 1 0.0700003 0.0167484 0.00756809 0.00595814 -0.000369717 0.000488614 -1.80834e-10 -1.12146e-10 8.19602e-11 5e-05 1.46608e-10 
146 1 0.0698579 0.0162109 0.00799335 0.00558831 -0.000383791 0.000489334 -6.63262e-11 1.74428e-10 -1.3972e-10 5e-05 1.46608e-10 
147 1 0.0696103 0.0156274 0.00845203 0.00539334 -0.000351645 0.000462468 -3.1241e-10 -1.45401e-10 1.08721e-10 5e-05 1.46608e-10 
148 1 0.0698903 0.0170604 0.00732976 0.00612244 -0.000542712 0.000204786 -6.54423e-11 4.5204e-11 -3.08827e-11 5e-05 1.46608e-10 
149 1 0.0762709 0.0179549 0.00713835 0.00616998 0.000513137 -0.000335942 2.44696e-11 1.97173e-10 -4.76265e-12 5e-05 1.46608e-10 
150 1 0.0698973 0.0163647 0.00787166 0.00572495 -0.000364817 0.000479023 3.1397e-10 1.17138e-10 -8.37768e-11 5e-05 1.46608e-10 
151 1 0.070239 0.0170649 0.00732268 0.00611329 -0.000386305 0.000515635 1.06869e-10 2.22167e-10 -2.02013e-10 5e-05 1.46608e-10 
153 1 0.069728 0.0160887 0.00808689 0.00544887 -0.000362978 0.00046801 -2.66795e-10 1.27927e-10 -1.14376e-10 5e-05 1.46608e-10 
154 1 0.0699816 0.0170937 0.00730398 0.00614484 -0.000549867 0.000300444 1.46234e-10 3.06558e-10 -1.45675e-11 5e-05 1.46608e-10 
155 1 0.0700637 0.0174181 0.00720088 0.00605065 -0.00051848 0.000238246 -2.24131e-10 -3.13325e-10 -3.03286e-10 5e-05 1.46608e-10 
156 1 0.0699725 0.0170128 0.00736193 0.00611676 -0.000533334 0.000323873 1.62973e-10 1.26027e-10 -3.51387e-11 5e-05 1.46608e-10 
157 1 0.0219312 0.0187687 0.00551176 -3.83782e-14 8.16601e-14 2.95883e-13 -3.6657e-22 4.08524e-22 -1.58198e-22 5e-05 1.46608e-10 
158 1 0.0700524 0.017164 0.00729463 0.00616838 -0.000581225 0.000239247 1.92457e-10 2.09117e-10 -6.12045e-11 5e-05 1.46608e-10 
159 1 0.0761668 0.017466 0.00715276 0.00639786 0.000441611 -0.000329719 -1.73232e-11 -3.22406e-10 8.78055e-11 5e-05 1.46608e-10 
160 1 0.0699687 0.0173869 0.00719757 0.00610813 -0.000633099 0.000251484 4.41314e-11 3.08246e-10 4.03808e-10 5e-05 1.46608e-10 
162 1 0.0699523 0.0171724 0.00724955 0.00616319 -0.000580219 0.000250538 -1.91857e-10 4.23643e-10 5.71647e-11 5e-05 1.46608e-10 
164 1 0.0702386 0.017772 0.00721103 0.00586442 -0.000552855 0.000396323 -2.03883e-10 -5.45406e-11 -2.6565e-10 5e-05 1.46608e-10 
165 1 0.07033 0.0172824 0.00721365 0.00609733 -0.000539793 0.000399756 -3.36544e-10 1.00035e-10 -1.09854e-10 5e-05 1.46608e-10 
166 1 0.0758157 0.016047 0.00799803 0.00568951 0.000298651 -0.000611461 2.94505e-10 -4.14494e-10 2.96857e-10 5e-05 1.46608e-10 
167 1 0.0698778 0.0162878 0.00793253 0.00568771 -0.000377012 0.000486927 8.72241e-12 2.00153e-10 -1.58669e-10 5e-05 1.46608e-10 
168 1 0.0701332 0.0171052 0.00729144 0.0061637 -0.000569509 0.000232117 3.59126e-11 -4.48436e-11 3.65404e-11 5e-05 1.46608e-10 
169 1 0.0703917 0.017576 0.00721998 0.00589215 -0.000495591 0.000393779 -5.64266e-10 1.93419e-11 3.14296e-11 5e-05 1.46608e-10 
170 1 0.0702183 0.0172278 0.00720948 0.00611735 -0.000559557 0.00024549 -9.33234e-11 1.80019e-10 -2.54336e-11 5e-05 1.46608e-10 
171 1 0.0758353 0.0161254 0.00793906 0.00571053 0.000286921 -0.00060374 -1.51419e-10 -3.22033e-10 2.53338e-10 5e-05 1.46608e-10 
172 1 0.0703071 0.0171864 0.00722952 0.00610981 -0.000568276 0.000228867 -3.07997e-10 1.81913e-10 -5.02923e-11 5e-05 1.46608e-10 
173 1 0.0762949 0.0172473 0.00721828 0.0064515 0.000416083 -8.74812e-05 3.05867e-11 -2.124e-10 6.7617e-11 5e-05 1.46608e-10 
174 1 0.0701348 0.0172826 0.00720547 0.00614168 -0.000546619 0.000244095 -1.79343e-10 2.35242e-11 4.75652e-11 5e-05 1.46608e-10 
175 1 0.0639946 0.01749 0.00715739 0.00627759 7.28108e-05 0.000108418 -2.75981e-11 -6.57638e-12 8.75829e-12 5e-05 1.46608e-10 
176 1 0.069956 0.0169338 0.00742093 0.00606721 -0.000490452 0.000374681 -1.99056e-10 1.24392e-10 -3.22025e-11 5e-05 1.46608e-10 
177 1 0.0700098 0.0175826 0.00719744 0.00602552 -0.00058547 0.000158931 -3.05965e-10 -2.58384e-10 1.35149e-09 5e-05 1.46608e-10 
178 1 0.0704454 0.0174112 0.00722242 0.00597704 -0.000479167 0.000399172 -1.66103e-10 7.9587e-11 -6.0526e-11 5e-05 1.46608e-10 
179 1 0.070371 0.0174782 0.00721786 0.00596273 -0.000504054 0.000398881 -2.81151e-10 1.58441e-10 3.0462e-11 5e-05 1.46608e-10 
181 1 0.0699312 0.0172555 0.00733737 0.00618457 -0.000544708 0.000296717 4.33622e-12 -2.17101e-10 2.76137e-10 5e-05 1.46608e-10 
182 1 0.07578 0.0162594 0.00784429 0.00574826 0.000304607 -0.000621655 -6.5623e-11 -2.02478e-10 -3.39228e-11 5e-05 1.46608e-10 
183 1 0.0701286 0.017187 0.00723415 0.00615861 -0.000552228 0.000219785 5.73247e-11 -2.41929e-11 -7.65916e-11 5e-05 1.46608e-10 
184 1 0.0761142 0.017477 0.0072371 0.00653068 0.000631529 -0.000281967 -2.20139e-10 2.43044e-10 5.8878e-11 5e-05 1.46608e-10 
185 1 0.0698725 0.0169801 0.00738662 0.00607656 -0.000555299 0.000203143 -5.07692e-10 2.46137e-10 1.36787e-11 5e-05 1.46608e-10 
186 1 0.0699104 0.0171578 0.00734025 0.00614011 -0.000534344 0.000220168 -5.29965e-11 -1.06898e-10 2.60514e-10 5e-05 1.46608e-10 
187 1 0.076091 0.0167997 0.00748329 0.00641141 0.000446753 -0.000107978 3.68296e-11 -3.06148e-10 1.92663e-10 5e-05 1.46608e-10 
188 1 0.0761952 0.0180201 0.00714117 0.00615944 0.000499304 -0.000336087 -9.61817e-11 -6.66051e-11 5.72556e-12 5e-05 1.46608e-10 
189 1 0.0761356 0.0169672 0.0073833 0.00641344 0.000396104 -7.77154e-05 1.19248e-10 -1.16184e-10 6.77757e-11 5e-05 1.46608e-10 
190 1 0.0640966 0.0175926 0.00706347 0.00604797 4.9981e-05 -0.000222664 -4.46632e-11 -2.69303e-11 6.72679e-13 5e-05 1.46608e-10 
191 1 0.0762225 0.0185729 0.00712968 0.00596795 0.00053969 -0.000325681 -7.80897e-11 -4.25259e-10 1.3041e-11 5e-05 1.46608e-10 
192 1 0.0701382 0.0168711 0.00747444 0.00608034 -0.000391023 0.000509497 -1.7525e-10 6.14906e-12 -2.09453e-12 5e-05 1.46608e-10 
193 1 0.075914 0.0164394 0.00770409 0.00577637 0.000477625 -0.000318556 2.71161e-10 -1.89309e-10 1.45784e-10 5e-05 1.46608e-10 
194 1 0.0699394 0.016518 0.00775037 0.00588188 -0.00037331 0.000488258 -3.05525e-10 3.44889e-10 -2.79789e-10 5e-05 1.46608e-10 
195 1 0.0703506 0.0173803 0.00721576 0.00603305 -0.000537933 0.000405711 -7.85512e-11 9.94809e-11 5.78196e-11 5e-05 1.46608e-10 
196 1 0.0694144 0.0153336 0.00886913 0.00581768 -0.000361552 0.000424321 1.85952e-10 -3.24197e-10 1.1556e-09 5e-05 1.46608e-10 
197 1 0.0640569 0.0177681 0.00707411 0.00578423 3.28709e-05 -0.000212412 5.99446e-11 4.62667e-11 1.13419e-11 5e-05 1.46608e-10 
198 1 0.069787 0.0166704 0.00762466 0.00588547 -0.000363255 0.000473411 -3.06634e-10 -1.29461e-12 -2.30429e-11 5e-05 1.46608e-10 
199 1 0.0699415 0.0172575 0.00719823 0.00618006 -0.000582951 0.000247884 5.25955e-11 6.01443e-10 1.09869e-10 5e-05 1.46608e-10 
200 1 0.0698893 0.0167031 0.00760072 0.005956 -0.00038544 0.000502429 1.08873e-10 -1.3157e-11 -1.48025e-10 5e-05 1.46608e-10 
201 1 0.0703422 0.0178147 0.00721837 0.00583754 -0.000528067 0.000392335 -1.23348e-10 4.44628e-11 3.34425e-11 5e-05 1.46608e-10 
202 1 0.0701552 0.0169483 0.00741323 0.00610329 -0.000392881 0.000513391 -5.17092e-11 1.31346e-10 -1.04728e-10 5e-05 1.46608e-10 
203 1 0.0763144 0.0173332 0.00716687 0.00640492 0.000418129 -8.0465e-05 2.78741e-10 -7.61604e-11 1.2077e-10 5e-05 1.46608e-10 
204 1 0.069869 0.0166263 0.00766146 0.00592798 -0.00039457 0.000511267 1.95011e-10 -1.11997e-10 -5.65434e-11 5e-05 1.46608e-10 
205 1 0.0701974 0.017576 0.0072068 0.00603042 -0.000514857 0.000407295 4.5166e-11 -4.32156e-10 -2.71998e-10 5e-05 1.46608e-10 
206 1 0.0701562 0.0173803 0.00720513 0.00610434 -0.000533204 0.000189407 -8.02393e-11 -2.78917e-11 -3.83792e-10 5e-05 1.46608e-10 
207 1 0.0697083 0.0160118 0.00814774 0.00535747 -0.000357235 0.000460477 -2.95717e-11 2.14793e-10 -1.70488e-10 5e-05 1.46608e-10 
208 1 0.0700329 0.0172197 0.00721391 0.00616615 -0.000594021 0.000241742 -3.95555e-10 1.27751e-10 -4.73127e-11 5e-05 1.46608e-10 
209 1 0.0699182 0.0164414 0.00781099 0.00577457 -0.000365227 0.000480214 -2.79207e-10 3.29687e-10 -2.89184e-10 5e-05 1.46608e-10 
210 1 0.0760011 0.0173487 0.00724959 0.00663747 0.000484736 -0.000282694 -2.96855e-10 1.55967e-10 -1.5603e-10 5e-05 1.46608e-10 
211 1 0.0762293 0.0177593 0.0071441 0.00620282 0.000510647 -0.00033927 -2.45905e-10 3.23388e-11 1.14442e-11 5e-05 1.46608e-10 
212 1 0.0702398 0.0173254 0.00720931 0.00610187 -0.000558151 0.000317174 -2.43961e-10 -4.16151e-11 5.69403e-11 5e-05 1.46608e-10 
213 1 0.0760695 0.0167159 0.00753337 0.00639904 0.000461866 -0.000116403 -4.58157e-10 -2.61209e-10 1.12848e-10 5e-05 1.46608e-10 
214 1 0.0761526 0.0178235 0.007147 0.00622233 0.000524245 -0.000338451 -1.44084e-10 7.12131e-11 1.53134e-11 5e-05 1.46608e-10 
215 1 0.0640831 0.0175069 0.00711389 0.00627409 6.65679e-05 0.000109583 -2.98152e-11 -2.16635e-11 1.90016e-11 5e-05 1.46608e-10 
216 1 0.0699893 0.0174848 0.00719717 0.00604644 -0.000603938 0.000214082 -9.91551e-11 -7.36334e-11 1.61359e-09 5e-05 1.46608e-10 
217 1 0.0758746 0.0162821 0.00782112 0.00576947 0.000268787 -0.000599458 -8.56456e-11 -2.76893e-10 -1.04558e-10 5e-05 1.46608e-10 
218 1 0.0701053 0.0176145 0.00720084 0.00602144 -0.000519994 0.000391037 -1.95621e-10 -5.86846e-11 5.63268e-10 5e-05 1.46608e-10 
219 1 0.07616 0.0182796 0.00713832 0.00608023 0.000507233 -0.000330591 5.94327e-11 -1.75429e-10 -1.92605e-12 5e-05 1.46608e-10 
220 1 0.0699697 0.0173231 0.00727456 0.00621323 -0.000591124 0.000279388 -1.71751e-10 -2.76199e-10 1.03134e-10 5e-05 1.46608e-10 
221 1 0.0639841 0.0171089 0.00740578 0.00616692 7.85755e-05 0.000100854 5.21717e-11 -4.97919e-11 4.49176e-11 5e-05 1.46608e-10 
222 1 0.0758943 0.0163606 0.00776242 0.00578818 0.000321822 -0.000518823 -3.1168e-11 -2.76563e-10 -6.93372e-11 5e-05 1.46608e-10 
223 1 0.0700632 0.0169783 0.00738622 0.00611596 -0.000383364 0.000500433 3.07563e-11 -3.32163e-11 -3.51943e-11 5e-05 1.46608e-10 
224 1 0.0698487 0.0169014 0.00744359 0.00603905 -0.000433317 0.00038139 -4.25792e-10 2.48768e-10 -5.25282e-12 5e-05 1.46608e-10 
225 1 0.0762405 0.0173985 0.00715007 0.00639569 0.000385387 -0.000355968 3.12895e-10 -2.268e-10 -8.64895e-10 5e-05 1.46608e-10 
226 1 0.0702222 0.0171434 0.00726298 0.00617319 -0.000563095 0.000247773 -7.72817e-11 1.90559e-10 -1.56865e-10 5e-05 1.46608e-10 
227 1 0.064048 0.0173465 0.0072317 0.00627888 7.61099e-05 0.000105591 -6.65627e-12 -1.34768e-11 1.3167e-11 5e-05 1.46608e-10 
228 1 0.0640162 0.0175809 0.00712177 0.00627479 6.35006e-05 9.51205e-05 -1.63196e-11 -9.04628e-12 -3.51691e-12 5e-05 1.46608e-10 
229 1 0.0699983 0.0171912 0.00737422 0.00616202 -0.00056482 0.000244871 2.05926e-10 1.91446e-10 -2.27108e-10 5e-05 1.46608e-10 
230 1 0.0702798 0.0179687 0.00721526 0.00577993 -0.000538313 0.00039598 -2.37178e-11 -2.14313e-10 -8.08165e-11 5e-05 1.46608e-10 
231 1 0.0639728 0.0173985 0.00719128 0.00627827 7.82689e-05 0.000104514 1.24536e-12 -1.16503e-11 1.44491e-11 5e-05 1.46608e-10 
232 1 0.0698186 0.0160572 0.00811505 0.00542986 -0.000388497 0.000487942 -1.77912e-10 1.11041e-10 -9.36047e-11 5e-05 1.46608e-10 
233 1 0.0699596 0.0165948 0.0076896 0.00594092 -0.000375325 0.000495252 2.12547e-10 3.56208e-11 -1.40577e-11 5e-05 1.46608e-10 
234 1 0.076216 0.0181178 0.0071383 0.00607104 0.000505704 -0.00033133 -2.57467e-10 -2.79817e-10 1.11554e-11 5e-05 1.46608e-10 
235 1 0.0703223 0.0181691 0.00721961 0.00573179 -0.000515325 0.000380944 -1.46913e-10 7.84273e-11 4.38515e-11 5e-05 1.46608e-10 
236 1 0.0703008 0.0180682 0.00721741 0.00575792 -0.000537047 0.000386305 -3.64695e-11 5.39271e-11 -8.58659e-11 5e-05 1.46608e-10 
237 1 0.0703823 0.0180106 0.00722252 0.0057375 -0.000529859 0.000386197 -1.98055e-10 -1.41627e-10 1.09488e-12 5e-05 1.46608e-10 
239 1 0.0637842 0.0166888 0.00771146 0.00597527 0.000170704 2.57797e-05 1.73964e-10 -1.19851e-10 8.47115e-11 5e-05 1.46608e-10 
240 1 0.063847 0.0169254 0.00753805 0.00609153 0.000142575 5.43447e-05 2.45441e-10 2.18093e-10 -7.19507e-11 5e-05 1.46608e-10 
241 1 0.0637632 0.0166099 0.00776926 0.00595252 0.00017979 2.05942e-05 -3.38289e-11 -7.79769e-11 6.55258e-11 5e-05 1.46608e-10 
242 1 0.0700918 0.0167184 0.00759503 0.0059444 -0.000360182 0.000482813 -8.4192e-11 -1.14037e-10 8.66332e-11 5e-05 1.46608e-10 
243 1 0.0698488 0.0165495 0.00772223 0.00584955 -0.000394212 0.000507786 -4.32447e-10 -1.24274e-11 -3.15696e-11 5e-05 1.46608e-10 
244 1 0.0638051 0.0167676 0.00765365 0.0060011 0.00016719 3.12189e-05 -1.7217e-10 -9.18664e-11 1.57235e-11 5e-05 1.46608e-10 
246 1 0.0639309 0.0172408 0.00730684 0.00621075 0.000100522 8.48765e-05 -7.58336e-11 -4.81379e-11 2.76311e-11 5e-05 1.46608e-10 