ITEM: TIMESTEP
16600000
ITEM: NUMBER OF ATOMS
287
ITEM: BOX BOUNDS ff ff ff
-0.02 0.43
-0.02 0.06
-0.02 0.07
ITEM: ATOMS id type x y z vx vy vz fx fy fz radius mass 
1 1 0.109644 0.0164916 0.00779316 0.00609616 0.000775495 -4.09362e-05 -3.91163e-10 2.20395e-10 -1.91965e-10 5e-05 1.46608e-10 
2 1 0.110093 0.0175943 0.00724881 0.00620729 0.000458676 -0.000620912 -3.91559e-10 2.97953e-10 -7.64606e-11 5e-05 1.46608e-10 
3 1 0.103419 0.0159572 0.00820846 0.0053622 -0.000205046 0.000407644 8.80212e-11 2.4246e-10 -1.72001e-10 5e-05 1.46608e-10 
4 1 0.109987 0.0179084 0.00714452 0.00625716 0.000500065 -0.000642786 4.1247e-12 3.56187e-11 -4.49676e-11 5e-05 1.46608e-10 
5 1 0.10953 0.0163829 0.00786524 0.00568939 0.000938483 -0.000167498 2.06775e-11 -1.6326e-10 3.07152e-11 5e-05 1.46608e-10 
6 1 0.115598 0.0166824 0.00776339 0.00563755 -0.000394251 0.000833841 2.94879e-11 -6.09416e-11 -3.77247e-12 5e-05 1.46608e-10 
7 1 0.109719 0.0171495 0.00743499 0.00619216 0.000517577 -0.000638441 -7.28428e-11 -1.04214e-10 1.57814e-10 5e-05 1.46608e-10 
8 1 0.10943 0.0159591 0.00812395 0.00569501 0.00094918 -0.000184061 7.77508e-12 -1.30051e-11 7.47186e-12 5e-05 1.46608e-10 
9 1 0.11586 0.0177143 0.00711113 0.00598206 -0.00108686 0.000298463 -1.11468e-11 -9.44467e-11 -4.11392e-11 5e-05 1.46608e-10 
10 1 0.109654 0.016883 0.00755588 0.00615572 0.000682096 -0.000173329 -3.04076e-11 -5.16097e-11 2.15074e-10 5e-05 1.46608e-10 
11 1 0.110136 0.0177792 0.00717968 0.00626102 0.000499632 -0.000639575 -2.01478e-10 1.28226e-10 -3.26568e-11 5e-05 1.46608e-10 
12 1 0.103621 0.0167472 0.00762849 0.00588406 -0.000326013 0.000525317 2.27243e-10 -8.72948e-11 1.20152e-10 5e-05 1.46608e-10 
13 1 0.10951 0.0163061 0.00792617 0.0056996 0.00096457 -0.00016069 -5.9665e-12 -2.04928e-10 -3.56669e-10 5e-05 1.46608e-10 
14 1 0.10334 0.0156363 0.00843363 0.00553124 -0.000467608 2.44141e-05 -5.25018e-12 -1.4449e-10 2.51749e-10 5e-05 1.46608e-10 
15 1 0.109858 0.0173591 0.00734996 0.0061872 0.000527742 -0.000645034 -6.8747e-11 3.88484e-11 -6.0133e-12 5e-05 1.46608e-10 
16 1 0.10332 0.0155547 0.00848784 0.00555463 -0.000443641 1.33137e-05 9.37789e-11 2.04478e-11 7.94554e-11 5e-05 1.46608e-10 
17 1 0.109633 0.0167937 0.00759538 0.00613317 0.000747152 -1.92344e-05 -1.91034e-11 -1.82092e-10 2.0477e-10 5e-05 1.46608e-10 
18 1 0.115736 0.0171938 0.00730594 0.00597891 -0.00113728 0.00012466 -2.93733e-11 1.60609e-10 1.63862e-10 5e-05 1.46608e-10 
19 1 0.10949 0.0162343 0.00799294 0.00567764 0.000968201 -0.000160057 1.24858e-10 7.17231e-11 -1.19426e-10 5e-05 1.46608e-10 
21 1 0.109624 0.0164085 0.00784582 0.00568004 0.000953349 -0.000187437 -3.56883e-11 1.7105e-11 1.11953e-11 5e-05 1.46608e-10 
22 1 0.109762 0.0173324 0.00736657 0.00620425 0.000519465 -0.000638104 -4.07292e-11 -6.68073e-11 1.43619e-10 5e-05 1.46608e-10 
23 1 0.103821 0.0171686 0.00732348 0.00607622 -0.000373509 0.000561054 -2.0953e-10 -1.9409e-10 -1.58134e-11 5e-05 1.46608e-10 
24 1 0.115804 0.0174365 0.00714331 0.00607073 -0.00106936 0.000311106 1.0143e-10 -1.48854e-10 -6.44388e-11 5e-05 1.46608e-10 
25 1 0.109697 0.0170588 0.00747094 0.00618951 0.000590147 -0.000455954 4.44342e-12 -5.12756e-11 3.53363e-11 5e-05 1.46608e-10 
26 1 0.115677 0.0169733 0.00750035 0.00585062 -0.00042961 0.000882692 -2.79264e-10 -2.04331e-10 -2.80946e-11 5e-05 1.46608e-10 
27 1 0.103704 0.0170627 0.007397 0.0059995 -0.000385467 0.000563607 -3.7454e-11 -4.95866e-10 3.40443e-10 5e-05 1.46608e-10 
28 1 0.109967 0.0178164 0.00717885 0.00622951 0.000501456 -0.000638478 -1.46173e-10 5.4522e-11 -1.65172e-11 5e-05 1.46608e-10 
29 1 0.109469 0.0161432 0.0080492 0.00567812 0.000927252 -0.000177892 5.94034e-11 2.28174e-11 -1.05429e-10 5e-05 1.46608e-10 
30 1 0.109997 0.0175682 0.00726514 0.00619337 0.000503008 -0.000635786 -6.28622e-11 1.81066e-10 -6.21494e-11 5e-05 1.46608e-10 
31 1 0.109741 0.0172409 0.00740078 0.00619427 0.000523441 -0.000626787 -1.68717e-10 -6.29315e-11 2.35235e-10 5e-05 1.46608e-10 
32 1 0.109837 0.0172677 0.00738418 0.00617481 0.000515009 -0.000636153 -9.65963e-13 1.3182e-10 2.3068e-11 5e-05 1.46608e-10 
33 1 0.115618 0.0167551 0.00769763 0.00570633 -0.000398957 0.000847828 -3.22716e-10 1.98843e-11 -2.61989e-11 5e-05 1.46608e-10 
34 1 0.109611 0.0167101 0.00764827 0.00610303 0.000753594 -2.71585e-05 -3.53771e-11 -1.80462e-10 1.1273e-10 5e-05 1.46608e-10 
35 1 0.109815 0.0171763 0.00741839 0.00614962 0.000504595 -0.000645729 -2.82521e-10 1.67024e-10 6.20352e-10 5e-05 1.46608e-10 
36 1 0.115899 0.0179083 0.00713858 0.00585026 -0.00110898 0.00056498 -3.32794e-11 -1.57355e-10 -4.45453e-11 5e-05 1.46608e-10 
37 1 0.109772 0.0169967 0.00749547 0.00618987 0.00064678 -0.000342964 2.637e-11 -7.29213e-11 -2.15546e-10 5e-05 1.46608e-10 
38 1 0.109932 0.0172939 0.00736779 0.00616264 0.000524777 -0.000641471 -1.22983e-10 7.97539e-11 -2.16532e-11 5e-05 1.46608e-10 
39 1 0.115819 0.0175196 0.00708979 0.00608891 -0.00108615 0.000304051 9.03035e-11 4.02849e-11 1.40138e-11 5e-05 1.46608e-10 
41 1 0.109569 0.0165446 0.00775295 0.00603792 0.000724932 -1.14223e-05 -6.91043e-11 2.46557e-10 -1.53735e-10 5e-05 1.46608e-10 
42 1 0.109784 0.0174238 0.00733236 0.00620586 0.00051913 -0.000642706 -2.31661e-11 -1.52372e-10 1.05567e-10 5e-05 1.46608e-10 
44 1 0.109954 0.0173854 0.00733357 0.00616141 0.000521821 -0.000639954 -1.58401e-10 2.23123e-11 1.17103e-11 5e-05 1.46608e-10 
45 1 0.115637 0.0168279 0.00763187 0.00578125 -0.000417047 0.000867608 3.58598e-10 1.44647e-10 6.46856e-13 5e-05 1.46608e-10 
46 1 0.115716 0.0171187 0.00736883 0.00596112 -0.000459559 0.000904829 1.14884e-10 -2.90822e-11 9.33431e-12 5e-05 1.46608e-10 
47 1 0.10959 0.0166272 0.0077007 0.00606572 0.000765646 -3.76057e-05 1.09922e-11 -2.71293e-10 1.8005e-10 5e-05 1.46608e-10 
48 1 0.109828 0.0176066 0.00726393 0.00622309 0.000517867 -0.000642752 -3.22468e-11 -6.84221e-12 -1.78663e-11 5e-05 1.46608e-10 
49 1 0.115697 0.017046 0.00743463 0.00595447 -0.000436441 0.000899981 2.33105e-10 -1.31097e-10 3.28887e-11 5e-05 1.46608e-10 
50 1 0.109893 0.0178816 0.00716336 0.00624537 0.000505988 -0.000646127 -2.1844e-11 -5.65766e-11 -2.92246e-11 5e-05 1.46608e-10 
51 1 0.109871 0.0177895 0.00719551 0.00624039 0.000508143 -0.000641203 3.51624e-11 6.71122e-11 -3.23534e-11 5e-05 1.46608e-10 
52 1 0.1036 0.0166684 0.00768636 0.0058384 -0.000323623 0.000523808 -1.4027e-10 -8.05147e-12 -5.95053e-11 5e-05 1.46608e-10 
53 1 0.115757 0.0172747 0.00725092 0.00597537 -0.00107526 0.000237233 1.82422e-10 1.73422e-10 1.62351e-10 5e-05 1.46608e-10 
54 1 0.109604 0.0163253 0.00789853 0.00568459 0.000929167 -0.000168332 1.58793e-10 -5.42393e-11 -1.09822e-11 5e-05 1.46608e-10 
55 1 0.10338 0.0157991 0.00832461 0.00535275 -0.000203347 0.000405014 9.89893e-11 2.47975e-11 2.96372e-10 5e-05 1.46608e-10 
56 1 0.109793 0.0170846 0.00745272 0.006174 0.000497351 -0.000633215 -4.92492e-11 1.24246e-10 -3.94499e-12 5e-05 1.46608e-10 
57 1 0.115657 0.0169006 0.00756611 0.00579591 -0.000438517 0.000875989 2.74321e-10 4.84426e-11 1.36579e-10 5e-05 1.46608e-10 
59 1 0.109846 0.0169339 0.00752027 0.00618366 0.000767703 -2.84942e-05 -1.6198e-11 6.37125e-11 -6.7053e-11 5e-05 1.46608e-10 
60 1 0.109867 0.0170192 0.0074706 0.00611108 0.000430191 -0.000602722 -7.26267e-11 1.7353e-10 4.37056e-12 5e-05 1.46608e-10 
61 1 0.109549 0.0164615 0.00780556 0.00578584 0.00132801 -0.000424072 2.01636e-11 8.5951e-11 -5.44761e-11 5e-05 1.46608e-10 
62 1 0.109976 0.0174768 0.00729936 0.00619771 0.0005297 -0.000645893 -1.78897e-10 1.0489e-10 -1.97148e-11 5e-05 1.46608e-10 
63 1 0.109924 0.0176334 0.00724732 0.00621557 0.000508957 -0.00063935 4.84122e-12 1.35643e-10 -4.41198e-11 5e-05 1.46608e-10 
64 1 0.115781 0.0173556 0.0071971 0.00600335 -0.00104623 0.00030525 5.34035e-10 -1.34938e-10 8.64422e-11 5e-05 1.46608e-10 
65 1 0.103737 0.0168533 0.00755488 0.0058776 -0.000321718 0.00051871 2.76195e-10 -6.73825e-11 7.23099e-11 5e-05 1.46608e-10 
66 1 0.103675 0.0166167 0.00772847 0.00584391 -0.000314215 0.000511844 3.69477e-10 -2.46646e-10 2.14759e-10 5e-05 1.46608e-10 
67 1 0.110114 0.0176858 0.00721458 0.00621936 0.000503152 -0.000637699 -2.36552e-10 1.7421e-10 -4.43495e-11 5e-05 1.46608e-10 
68 1 0.110041 0.0177512 0.00719669 0.0062136 0.000492198 -0.000633266 -2.14402e-10 1.22484e-10 -2.96109e-11 5e-05 1.46608e-10 
69 1 0.109706 0.0167396 0.00763626 0.00612251 0.000758674 -2.82854e-05 8.85583e-11 -3.88197e-11 5.60587e-11 5e-05 1.46608e-10 
70 1 0.11584 0.0176169 0.00710047 0.0060394 -0.00109044 0.000301041 8.52317e-11 -5.6832e-11 1.19076e-12 5e-05 1.46608e-10 
71 1 0.10336 0.0157188 0.00838076 0.00550851 -0.000433217 0.000121061 1.20999e-10 -8.84592e-11 4.25435e-10 5e-05 1.46608e-10 
72 1 0.110019 0.0176597 0.00723091 0.00621943 0.000480802 -0.000629628 -2.88259e-10 2.54726e-10 -7.06623e-11 5e-05 1.46608e-10 
73 1 0.109676 0.0169691 0.00750947 0.00618794 0.000740108 -0.000105416 1.41565e-12 4.34348e-11 7.58637e-11 5e-05 1.46608e-10 
74 1 0.10988 0.0174505 0.00731575 0.00618732 0.000519389 -0.000641165 -1.34047e-10 -7.0317e-11 1.68985e-11 5e-05 1.46608e-10 
76 1 0.103947 0.0176824 0.00705082 0.00550606 -0.000624431 -1.52269e-05 -2.34468e-10 -2.22788e-10 -2.17672e-11 5e-05 1.46608e-10 
77 1 0.110011 0.0184104 0.00696372 0.00594062 0.000841687 -0.000737019 1.48595e-11 4.47912e-11 -1.28604e-12 5e-05 1.46608e-10 
78 1 0.103439 0.0160362 0.00815041 0.00540606 -0.000198377 0.000404921 1.2014e-12 1.85516e-10 -1.47057e-10 5e-05 1.46608e-10 
79 1 0.103642 0.0168261 0.00757062 0.00589368 -0.000343682 0.000533498 -1.29629e-10 -3.47275e-10 2.42617e-10 5e-05 1.46608e-10 
80 1 0.109937 0.0180727 0.00712231 0.00627164 0.00047096 -0.000651805 -7.29261e-11 -1.18954e-12 -1.51512e-10 5e-05 1.46608e-10 
81 1 0.10358 0.0165895 0.00774423 0.00580001 -0.000315192 0.000511575 3.31935e-10 4.49373e-10 -2.60281e-10 5e-05 1.46608e-10 
82 1 0.103725 0.0171416 0.00733913 0.00604633 -0.000417182 0.00059657 9.5951e-11 1.97538e-10 -1.3221e-10 5e-05 1.46608e-10 
83 1 0.10377 0.0166439 0.00771265 0.00588822 -0.000320361 0.000518143 4.19061e-10 -6.81416e-11 6.0155e-11 5e-05 1.46608e-10 
84 1 0.11588 0.0178117 0.00712181 0.0059376 -0.00107844 0.000295611 -3.59239e-11 -1.26206e-10 -7.16904e-11 5e-05 1.46608e-10 
85 1 0.103553 0.0161431 0.00807611 0.00539723 -0.00020792 0.000412227 -3.73667e-10 1.2943e-10 -1.1221e-10 5e-05 1.46608e-10 
86 1 0.109945 0.0177248 0.0072131 0.00623634 0.000506685 -0.000640159 -9.14193e-11 1.54006e-10 -5.42188e-11 5e-05 1.46608e-10 
87 1 0.109823 0.0168514 0.00757231 0.00616545 0.000759727 -2.52597e-05 7.73731e-11 5.26303e-12 -1.50576e-11 5e-05 1.46608e-10 
88 1 0.109956 0.0181492 0.0070609 0.00626707 0.000484217 -0.000637292 7.84162e-11 1.51173e-10 1.05031e-10 5e-05 1.46608e-10 
89 1 0.109977 0.0181911 0.00714937 0.00648983 0.000882672 -0.00089259 8.85942e-11 -4.52436e-10 3.95414e-10 5e-05 1.46608e-10 
90 1 0.110071 0.0175028 0.00728307 0.00619951 0.000523733 -0.000643527 -2.13824e-10 1.40885e-10 -3.38505e-11 5e-05 1.46608e-10 
91 1 0.103663 0.016905 0.00751274 0.0059526 -0.000353707 0.000543983 -7.93706e-11 -4.90828e-10 3.04871e-10 5e-05 1.46608e-10 
92 1 0.110126 0.0180625 0.00707936 0.00627584 0.000469156 -0.000630145 -1.05346e-10 2.4242e-11 -6.80381e-12 5e-05 1.46608e-10 
93 1 0.110052 0.0181729 0.00704536 0.00622937 0.000629121 -0.000686188 3.31492e-11 -3.20518e-11 8.06604e-11 5e-05 1.46608e-10 
94 1 0.110189 0.0183891 0.00695817 0.0059904 0.000839542 -0.000740719 6.4936e-13 -9.53042e-12 1.75765e-12 5e-05 1.46608e-10 
95 1 0.110104 0.0181495 0.00712742 0.00636852 0.000756653 -0.000740388 6.08163e-11 -1.3558e-10 6.39807e-11 5e-05 1.46608e-10 
96 1 0.110152 0.0181651 0.00704081 0.00625173 0.000882977 -0.00077801 -5.97439e-11 6.92584e-12 1.80875e-11 5e-05 1.46608e-10 
97 1 0.103538 0.0164317 0.00785998 0.00570327 -0.000282586 0.000479313 -7.21883e-11 4.80383e-11 -8.28886e-11 5e-05 1.46608e-10 
98 1 0.109985 0.018245 0.00706549 0.0060462 0.000580185 -0.00104291 -4.5274e-11 7.74902e-10 -5.07709e-11 5e-05 1.46608e-10 
99 1 0.103716 0.0167744 0.00761272 0.00589068 -0.000323699 0.000520301 9.07445e-11 -1.47082e-10 1.41647e-10 5e-05 1.46608e-10 
100 1 0.110027 0.0173199 0.0073515 0.00615316 0.000542092 -0.000646557 -1.12455e-10 1.02432e-10 -3.31162e-11 5e-05 1.46608e-10 
101 1 0.103654 0.0165378 0.00778633 0.00580939 -0.000309789 0.000506855 3.01923e-10 -8.22289e-11 8.89732e-11 5e-05 1.46608e-10 
102 1 0.0643568 0.0187248 0.00531097 4.03493e-15 1.05528e-14 8.2965e-14 5.12955e-22 -5.55607e-22 3.70163e-23 5e-05 1.46608e-10 
103 1 0.24257 0.0191927 0.00520306 -2.77512e-22 -1.27651e-22 1.23839e-22 0 0 0 5e-05 1.46608e-10 
104 1 0.104022 0.0176177 0.00706306 0.00544709 -0.000668827 1.18599e-05 3.07628e-10 -1.80136e-10 -6.44182e-11 5e-05 1.46608e-10 
105 1 0.103498 0.0162738 0.00797593 0.0053997 -0.000231904 0.000430213 -3.52965e-11 6.49691e-11 -5.2735e-11 5e-05 1.46608e-10 
106 1 0.104097 0.0175524 0.00707544 0.00541834 -0.000529859 -2.48092e-05 1.11902e-10 -2.47257e-10 1.00052e-10 5e-05 1.46608e-10 
107 1 0.103458 0.0161153 0.00809237 0.00540369 -0.000195503 0.000402636 -1.44735e-10 2.78378e-11 -2.18707e-11 5e-05 1.46608e-10 
108 1 0.109749 0.0169048 0.00753187 0.0061781 0.000762088 -2.5173e-05 -2.80658e-11 2.28254e-11 2.75289e-11 5e-05 1.46608e-10 
109 1 0.109849 0.0176981 0.00722972 0.00623274 0.00051175 -0.000641188 -3.2682e-11 3.08851e-11 1.97305e-13 5e-05 1.46608e-10 
110 1 0.110084 0.0187831 0.00682536 0.00586696 0.000876488 -0.00074492 -2.23375e-11 -7.95705e-11 2.90058e-11 5e-05 1.46608e-10 
111 1 0.110134 0.0185467 0.00690604 0.00574903 0.000891294 -0.000741504 1.04207e-11 -5.76574e-11 2.09712e-11 5e-05 1.46608e-10 
112 1 0.103559 0.0165106 0.00780211 0.00579042 -0.000271484 0.000484264 -7.13481e-11 3.71593e-10 -2.62957e-10 5e-05 1.46608e-10 
113 1 0.104413 0.0182724 0.00695571 0.00569976 -0.000161214 0.000532728 -3.17746e-11 1.69283e-10 -4.71337e-11 5e-05 1.46608e-10 
114 1 0.103958 0.0173547 0.00719118 0.00625445 -0.000391001 0.000591083 1.02899e-09 3.07608e-11 -2.64763e-11 5e-05 1.46608e-10 
115 1 0.109902 0.017542 0.00728153 0.00621375 0.000528734 -0.00064582 -1.06762e-10 -1.13306e-11 1.05087e-11 5e-05 1.46608e-10 
116 1 0.109728 0.0168221 0.00758421 0.00615192 0.000766645 -3.05877e-05 2.26335e-11 2.8873e-11 -2.46045e-11 5e-05 1.46608e-10 
117 1 0.109582 0.0162414 0.00795151 0.00571465 0.000949338 -0.000165263 9.52655e-11 -3.24743e-11 -8.07465e-12 5e-05 1.46608e-10 
118 1 0.1034 0.0158781 0.00826655 0.00536034 -0.000202439 0.000406467 -7.45237e-11 -3.88888e-11 -4.50335e-11 5e-05 1.46608e-10 
119 1 0.109889 0.017111 0.0074364 0.00617651 0.00050082 -0.000682254 -5.07518e-10 2.36099e-10 8.75272e-11 5e-05 1.46608e-10 
120 1 0.10945 0.016042 0.00807143 0.00568735 0.000939793 -0.000179146 -1.38743e-11 -8.91333e-12 4.291e-12 5e-05 1.46608e-10 
121 1 0.109411 0.0158763 0.00817646 0.00570401 0.000961077 -0.000190982 3.06883e-12 5.20854e-11 -3.45862e-11 5e-05 1.46608e-10 
122 1 0.110066 0.0186908 0.00685958 0.00580793 0.000885167 -0.000743691 -2.44219e-12 -3.39611e-11 1.24872e-11 5e-05 1.46608e-10 
123 1 0.103593 0.0163011 0.0079601 0.00556552 -0.000239627 0.000442895 -1.16691e-12 5.59817e-12 -7.71262e-12 5e-05 1.46608e-10 
124 1 0.110027 0.0180813 0.00707988 0.00627312 0.000488505 -0.000637845 4.02983e-11 6.42666e-11 -7.27418e-11 5e-05 1.46608e-10 
125 1 0.109556 0.0161595 0.0080029 0.00569331 0.000944757 -0.000169364 2.08079e-10 1.10611e-11 6.97728e-12 5e-05 1.46608e-10 
126 1 0.109806 0.0175152 0.00729814 0.00621541 0.000521041 -0.000644384 -1.37826e-10 -1.59489e-10 6.99892e-11 5e-05 1.46608e-10 
127 1 0.103518 0.0163528 0.00791789 0.00548273 -0.000247195 0.000443791 5.27602e-11 -6.93678e-11 -6.30192e-12 5e-05 1.46608e-10 
128 1 0.109914 0.017977 0.00714046 0.0062372 0.00047415 -0.000679671 -4.99394e-11 -5.35046e-11 -2.22512e-10 5e-05 1.46608e-10 
129 1 0.110147 0.0182566 0.0070809 0.00595923 0.000847547 -0.000734949 -7.0241e-12 -6.26896e-11 4.33162e-11 5e-05 1.46608e-10 
130 1 0.103842 0.0172475 0.00726585 0.00615449 -0.000402085 0.00057414 -1.95859e-10 -2.33914e-10 3.15078e-10 5e-05 1.46608e-10 
131 1 0.103696 0.0166955 0.00767059 0.0058842 -0.000322367 0.00052102 2.04201e-10 -2.16432e-10 2.078e-10 5e-05 1.46608e-10 
132 1 0.110012 0.0180054 0.007143 0.00626835 0.000496867 -0.00064156 2.04636e-10 3.73768e-11 -2.23264e-11 5e-05 1.46608e-10 
133 1 0.109739 0.0165209 0.00778134 0.00595546 0.00077534 -5.09025e-05 2.30978e-11 4.39721e-12 3.33985e-12 5e-05 1.46608e-10 
134 1 0.10991 0.0172025 0.00740202 0.00615639 0.000497833 -0.000634353 -1.98323e-10 1.04106e-10 -4.61867e-11 5e-05 1.46608e-10 
135 1 0.109543 0.0160761 0.0080563 0.00568605 0.000931164 -0.000172942 1.84294e-11 1.70403e-11 -1.23946e-11 5e-05 1.46608e-10 
136 1 0.103534 0.0160641 0.00813416 0.00539208 -0.00021545 0.000415984 -2.78306e-10 1.17064e-10 -1.23271e-10 5e-05 1.46608e-10 
137 1 0.11003 0.0185064 0.00692803 0.00599212 0.00084585 -0.000743158 -1.89021e-12 -2.58344e-11 8.01144e-12 5e-05 1.46608e-10 
138 1 0.109686 0.0166569 0.00768863 0.00608771 0.000763097 -3.32348e-05 9.01207e-11 -3.01433e-11 1.54029e-11 5e-05 1.46608e-10 
140 1 0.110155 0.0186455 0.00686921 0.00581163 0.0008911 -0.000746035 -5.74704e-13 -6.29259e-11 2.31384e-11 5e-05 1.46608e-10 
141 1 0.103573 0.0162221 0.00801808 0.0054407 -0.000214331 0.000417898 -1.59159e-10 6.04103e-11 -4.12927e-11 5e-05 1.46608e-10 
142 1 0.10398 0.0174359 0.0071316 0.00628443 -0.000437216 0.000622395 4.54136e-10 -1.3493e-09 1.19658e-09 5e-05 1.46608e-10 
143 1 0.103478 0.0161944 0.00803427 0.00546295 3.92921e-05 0.000230121 6.53875e-11 2.68113e-10 -1.97298e-10 5e-05 1.46608e-10 
144 1 0.103938 0.0172753 0.00724942 0.006257 -0.000422224 0.000611099 3.61354e-10 -2.90999e-10 2.58107e-10 5e-05 1.46608e-10 
146 1 0.103791 0.0167228 0.00765478 0.00589733 -0.000316871 0.00051603 3.0232e-10 2.71979e-11 -1.49832e-11 5e-05 1.46608e-10 
147 1 0.103514 0.015985 0.0081922 0.00538267 -0.000223757 0.000424646 -6.1514e-11 3.64968e-11 -5.98318e-11 5e-05 1.46608e-10 
148 1 0.103788 0.0173846 0.00717589 0.00588255 -0.000440383 0.000582192 -4.39124e-10 7.1119e-11 2.54674e-10 5e-05 1.46608e-10 
149 1 0.110113 0.0184511 0.00694167 0.00599046 0.000840496 -0.000741408 1.08489e-12 -1.83796e-11 9.16757e-12 5e-05 1.46608e-10 
150 1 0.103833 0.0168805 0.00753906 0.00586904 -0.000328861 0.000525007 4.869e-10 -1.02319e-10 9.54291e-11 5e-05 1.46608e-10 
151 1 0.104212 0.0176782 0.0070444 0.00531076 -0.000371011 -6.36397e-05 9.64698e-11 -1.35929e-10 7.63493e-11 5e-05 1.46608e-10 
153 1 0.103633 0.0164589 0.0078442 0.00578156 -0.000298172 0.000498586 -1.02861e-10 1.64051e-11 -2.89032e-12 5e-05 1.46608e-10 
154 1 0.103903 0.0174905 0.0070979 0.00618706 -0.000631063 0.00054511 9.28753e-10 -3.08712e-10 1.1071e-09 5e-05 1.46608e-10 
155 1 0.103967 0.017778 0.00702909 0.00551161 -0.00065556 -7.14299e-06 2.44191e-10 -2.38833e-10 -1.45734e-11 5e-05 1.46608e-10 
156 1 0.103882 0.0174053 0.00714978 0.0062151 -0.000449736 0.000625648 2.20342e-10 -5.39469e-10 1.25887e-10 5e-05 1.46608e-10 
157 1 0.0219312 0.0187687 0.00551176 -3.82481e-14 8.1678e-14 2.95895e-13 5.38262e-22 3.91256e-22 -3.80503e-23 5e-05 1.46608e-10 
158 1 0.104005 0.017691 0.00713161 0.00545387 -0.00059837 3.37958e-05 1.44482e-11 -4.39724e-10 -2.53895e-11 5e-05 1.46608e-10 
159 1 0.110062 0.0178441 0.00716195 0.00626597 0.000506451 -0.000643223 -4.86202e-11 1.12726e-10 -4.81296e-11 5e-05 1.46608e-10 
160 1 0.103852 0.0176521 0.00706016 0.00550139 -0.000633382 -2.31418e-05 -5.86222e-11 -1.35548e-10 2.81945e-10 5e-05 1.46608e-10 
162 1 0.103809 0.0174696 0.00712764 0.0061921 -0.000467827 0.000703148 2.70409e-10 -2.29957e-10 -3.97903e-10 5e-05 1.46608e-10 
164 1 0.104127 0.0181764 0.00693646 0.00481695 -0.00119752 0.000134989 -1.77393e-10 2.55413e-10 -6.73098e-11 5e-05 1.46608e-10 
165 1 0.104309 0.0179493 0.00698168 0.00545089 -0.000473714 -4.84829e-05 2.39316e-10 -7.65014e-11 2.10398e-12 5e-05 1.46608e-10 
166 1 0.109699 0.0163554 0.0078861 0.00555521 0.000830676 -0.000117366 4.74782e-11 -3.0856e-11 3.6077e-11 5e-05 1.46608e-10 
167 1 0.103812 0.0168017 0.00759693 0.00588294 -0.000319085 0.000517455 2.97876e-10 -5.88713e-11 4.73542e-11 5e-05 1.46608e-10 
168 1 0.104117 0.0176479 0.00705373 0.00520491 -0.000151616 -0.000110786 3.68272e-10 6.08569e-11 -7.58353e-12 5e-05 1.46608e-10 
169 1 0.104318 0.0182409 0.00694671 0.00574831 -0.000332225 0.000535701 2.4913e-11 -2.79128e-11 2.73786e-11 5e-05 1.46608e-10 
170 1 0.104137 0.0177436 0.00703199 0.00540691 -0.000568057 -1.97458e-05 3.7394e-10 -4.68328e-10 1.71575e-10 5e-05 1.46608e-10 
171 1 0.109719 0.0164382 0.0078337 0.00574807 0.000801552 -8.36045e-05 -1.24388e-10 3.14416e-11 -1.7883e-11 5e-05 1.46608e-10 
172 1 0.104253 0.0178691 0.00700101 0.00531107 -0.000374229 -6.49094e-05 -1.23377e-11 -1.40634e-10 6.74789e-11 5e-05 1.46608e-10 
173 1 0.110221 0.0180958 0.00706043 0.00644585 0.00104531 -0.000847946 -1.75718e-11 1.11279e-10 -3.08615e-11 5e-05 1.46608e-10 
174 1 0.104062 0.0178088 0.00701965 0.00551674 -0.000680378 -1.90258e-06 -2.60393e-11 -2.93808e-11 4.52002e-11 5e-05 1.46608e-10 
175 1 0.097777 0.0173377 0.0072034 0.00629426 6.30332e-05 -2.52874e-05 8.37066e-12 2.84195e-11 -7.29764e-12 5e-05 1.46608e-10 
176 1 0.103863 0.0173263 0.00720782 0.00623455 -0.00043291 0.000609869 3.02255e-10 -5.67517e-10 3.74338e-10 5e-05 1.46608e-10 
177 1 0.103892 0.0178432 0.00701675 0.00558322 -0.000608133 -2.38959e-05 4.5461e-10 1.63979e-10 -5.47725e-11 5e-05 1.46608e-10 
178 1 0.104384 0.0181654 0.00695239 0.00578447 -0.000290981 0.000532583 3.86042e-10 1.2673e-10 -7.83407e-11 5e-05 1.46608e-10 
179 1 0.104289 0.018134 0.00694796 0.00582131 -0.000410291 0.000369041 2.80622e-10 2.29787e-10 5.14194e-12 5e-05 1.46608e-10 
181 1 0.103832 0.0175797 0.00718355 0.00629215 -9.92963e-05 5.92095e-05 -1.57431e-10 -1.04601e-10 9.79954e-10 5e-05 1.46608e-10 
182 1 0.109665 0.0165742 0.00774091 0.0060295 0.000767025 -4.16151e-05 3.94453e-10 -8.05217e-11 1.02241e-10 5e-05 1.46608e-10 
183 1 0.104042 0.0177132 0.00704136 0.00546469 -0.000672397 5.15766e-06 1.01518e-10 -2.2225e-10 -1.09104e-10 5e-05 1.46608e-10 
184 1 0.11017 0.0179773 0.00710645 0.006255 0.000453122 -0.000622298 -1.40834e-10 -2.66228e-11 1.83947e-11 5e-05 1.46608e-10 
185 1 0.103766 0.0172993 0.00722338 0.00491812 -0.000223859 0.000458569 -3.98222e-09 3.87876e-09 4.58699e-09 5e-05 1.46608e-10 
186 1 0.103883 0.0174942 0.0071957 0.00604573 -0.000335396 0.000525631 9.60237e-11 -1.17236e-10 6.74932e-10 5e-05 1.46608e-10 
187 1 0.110006 0.0172285 0.00738573 0.0061512 0.000536084 -0.000642125 -1.47518e-10 1.73856e-10 -7.55432e-11 5e-05 1.46608e-10 
188 1 0.110077 0.0182672 0.00700993 0.00588714 0.000863338 -0.000739732 2.67273e-11 -7.26409e-12 -6.78287e-12 5e-05 1.46608e-10 
189 1 0.110049 0.0174113 0.00731729 0.00616259 0.000513174 -0.000636957 -1.95951e-10 2.11917e-10 -6.26678e-11 5e-05 1.46608e-10 
190 1 0.0979179 0.0175589 0.00714857 0.00626644 7.69379e-05 -2.86519e-05 -4.31401e-12 -1.04918e-11 2.66142e-12 5e-05 1.46608e-10 
191 1 0.110049 0.0185985 0.0068938 0.00575104 0.000896773 -0.000743365 1.29576e-11 -7.44065e-12 5.70825e-12 5e-05 1.46608e-10 
192 1 0.104054 0.0173833 0.00717435 0.00639649 -0.000349014 0.000575815 1.30296e-09 -7.16337e-10 4.23776e-10 5e-05 1.46608e-10 
193 1 0.109803 0.0167687 0.00762464 0.0061277 0.000755804 -2.49725e-05 -4.68323e-11 4.24567e-12 -5.14449e-12 5e-05 1.46608e-10 
194 1 0.103874 0.0170383 0.00742329 0.00597299 -0.000398942 0.000581393 -2.35545e-10 1.53955e-10 -1.31194e-10 5e-05 1.46608e-10 
195 1 0.104331 0.0180443 0.00696003 0.00569418 -0.000530825 -3.95814e-05 2.00839e-10 1.22369e-10 8.61503e-12 5e-05 1.46608e-10 
196 1 0.1033 0.0154731 0.00854205 0.00557051 -0.000429779 -4.64585e-06 -4.57877e-11 -3.925e-11 3.76434e-11 5e-05 1.46608e-10 
197 1 0.0978419 0.017622 0.00713311 0.00625705 6.80474e-05 -2.64589e-05 -1.57076e-12 -1.20417e-11 3.60227e-12 5e-05 1.46608e-10 
198 1 0.103683 0.0169838 0.00745488 0.00597796 -0.000367524 0.000557076 5.65879e-11 -5.7661e-10 3.90394e-10 5e-05 1.46608e-10 
199 1 0.103831 0.0175579 0.00708598 0.00615762 -0.000720333 0.000211406 4.71826e-10 8.43071e-11 3.70366e-10 5e-05 1.46608e-10 
200 1 0.103799 0.0170899 0.00738126 0.00601264 -0.000356283 0.000553422 -1.16605e-10 -8.31524e-11 7.41065e-11 5e-05 1.46608e-10 
201 1 0.104256 0.0183193 0.00694136 0.00562787 -0.000311653 0.000526911 1.74474e-10 8.58111e-11 -1.34556e-11 5e-05 1.46608e-10 
202 1 0.104076 0.017462 0.00711669 0.00564706 -0.000251626 0.000450385 -2.57407e-10 -9.2948e-10 9.06954e-10 5e-05 1.46608e-10 
203 1 0.110227 0.0185784 0.00688789 0.00582365 0.00090244 -0.000751007 7.82983e-11 -5.96182e-12 -3.89506e-12 5e-05 1.46608e-10 
204 1 0.103779 0.017011 0.00743911 0.00597619 -0.000353775 0.000545037 9.40326e-11 -1.6695e-10 1.33759e-10 5e-05 1.46608e-10 
205 1 0.104095 0.018104 0.00703309 0.00564053 -0.000883098 0.000133278 2.76474e-10 -3.07534e-10 -1.68321e-10 5e-05 1.46608e-10 
206 1 0.104082 0.0179043 0.00699794 0.00557635 -0.000689254 -9.10733e-06 -5.75878e-11 -1.65305e-11 7.51483e-11 5e-05 1.46608e-10 
207 1 0.103613 0.01638 0.00790212 0.00569925 -0.000271767 0.000474017 -7.02695e-11 -2.59519e-12 1.33751e-11 5e-05 1.46608e-10 
208 1 0.103926 0.0175866 0.00707259 0.00549673 -0.000654145 -1.11645e-05 2.79851e-10 6.55269e-11 1.25566e-10 5e-05 1.46608e-10 
209 1 0.103853 0.0169594 0.00748115 0.00597734 -0.000355075 0.000549609 1.36006e-10 -2.6259e-10 1.90568e-10 5e-05 1.46608e-10 
210 1 0.109959 0.0178982 0.00723989 0.0062502 0.000470305 -0.000653246 -1.16544e-11 1.98664e-11 -9.99819e-11 5e-05 1.46608e-10 
211 1 0.110171 0.0182966 0.0069925 0.00594989 0.000842282 -0.000739124 -1.96311e-11 -7.98469e-11 4.71717e-11 5e-05 1.46608e-10 
212 1 0.104157 0.0178393 0.00701027 0.00553037 -0.000724313 6.32833e-06 -1.90988e-11 -2.82437e-11 -4.36001e-11 5e-05 1.46608e-10 
213 1 0.109984 0.017137 0.00741996 0.00617841 0.00054738 -0.000640427 -2.85164e-10 4.31176e-10 -1.60871e-10 5e-05 1.46608e-10 
214 1 0.110268 0.0183294 0.00697365 0.0059897 0.000836639 -0.00073984 9.23248e-12 1.50315e-11 -5.64622e-12 5e-05 1.46608e-10 
215 1 0.0978962 0.0174641 0.007172 0.00627858 7.67466e-05 -2.86246e-05 -1.65725e-13 3.20269e-12 -2.82503e-13 5e-05 1.46608e-10 
216 1 0.103872 0.0177476 0.00703846 0.00549822 -0.000611209 -1.90377e-05 -1.15118e-11 8.14605e-11 -7.83158e-13 5e-05 1.46608e-10 
217 1 0.10976 0.0166036 0.00772906 0.00606729 0.000759251 -3.24711e-05 2.71483e-11 -1.3208e-11 1.05733e-11 5e-05 1.46608e-10 
218 1 0.104007 0.0179692 0.00698568 0.00562828 -0.000638653 -9.43021e-06 1.52593e-10 1.43223e-11 -7.22179e-11 5e-05 1.46608e-10 
219 1 0.110096 0.0183615 0.00698274 0.00594593 0.000845846 -0.000739545 -4.80066e-12 -2.6966e-11 1.75774e-11 5e-05 1.46608e-10 
220 1 0.10393 0.0177562 0.00711947 0.00547986 -0.000644856 -2.66384e-06 1.5854e-10 -3.31747e-10 -3.55358e-11 5e-05 1.46608e-10 
221 1 0.0977873 0.0170016 0.00731807 0.00629925 5.62143e-05 -2.41744e-05 4.12247e-11 -1.56717e-12 -4.33179e-12 5e-05 1.46608e-10 
222 1 0.109781 0.0166862 0.00767673 0.00608289 0.000763105 -3.25969e-05 -5.51981e-11 7.63119e-12 -2.55723e-11 5e-05 1.46608e-10 
223 1 0.104002 0.0175226 0.0070867 0.00548149 -0.000676529 1.29937e-05 1.61405e-10 -2.93327e-10 7.75206e-11 5e-05 1.46608e-10 
224 1 0.103746 0.0172204 0.00728125 0.00610242 -0.000411965 0.000601638 6.70964e-11 2.45086e-10 -1.17867e-10 5e-05 1.46608e-10 
225 1 0.110082 0.0179359 0.00712773 0.0062644 0.000502486 -0.000640723 1.38801e-10 -6.35661e-11 -2.12515e-11 5e-05 1.46608e-10 
226 1 0.104232 0.0177737 0.0070227 0.00532865 -0.00037608 -6.71085e-05 1.72264e-10 -3.2664e-10 7.51982e-11 5e-05 1.46608e-10 
227 1 0.097853 0.0172746 0.00721887 0.00630077 6.99532e-05 -2.6921e-05 9.04671e-12 2.40416e-11 -7.76158e-12 5e-05 1.46608e-10 
228 1 0.0977986 0.0174325 0.00717997 0.00628179 6.48639e-05 -2.56781e-05 -7.00759e-12 2.38279e-12 -2.04861e-12 5e-05 1.46608e-10 
229 1 0.10391 0.0176603 0.00714116 0.00545997 -0.000583384 -2.3375e-05 1.56266e-10 -1.92013e-10 -3.79518e-11 5e-05 1.46608e-10 
230 1 0.104182 0.0183856 0.00693477 0.00555266 -0.000405613 0.000517306 -3.2863e-11 3.02491e-10 -7.05259e-12 5e-05 1.46608e-10 
231 1 0.0977553 0.0172429 0.00722683 0.00630785 6.19989e-05 -2.53055e-05 1.04628e-11 2.57869e-11 -1.01886e-11 5e-05 1.46608e-10 
232 1 0.103749 0.0165648 0.00777068 0.00581874 -0.000324269 0.000518051 3.98175e-10 -2.72706e-10 2.38153e-10 5e-05 1.46608e-10 
233 1 0.103895 0.0171171 0.0073655 0.00603256 -0.000398393 0.000585817 -1.13862e-10 1.25264e-10 -9.17509e-11 5e-05 1.46608e-10 
234 1 0.109992 0.0183184 0.00699795 0.00588416 0.000845712 -0.000738246 3.96805e-11 1.17786e-10 -1.59365e-10 5e-05 1.46608e-10 
235 1 0.104073 0.0187143 0.00692639 0.00554627 -0.000381917 0.000521886 -2.78764e-10 4.89991e-10 -1.41723e-11 5e-05 1.46608e-10 
236 1 0.104202 0.0184836 0.00693718 0.00545488 -0.000373448 0.000507637 -1.69182e-11 -1.75621e-10 -3.46751e-11 5e-05 1.46608e-10 
237 1 0.104255 0.0185681 0.00694261 0.00202334 0.00179715 0.000199166 -2.53138e-10 -1.58426e-10 -2.23391e-11 5e-05 1.46608e-10 
239 1 0.0975696 0.0165314 0.00771786 0.00592458 6.06991e-05 -5.2444e-05 2.91671e-09 -1.5102e-09 9.14157e-10 5e-05 1.46608e-10 
240 1 0.0976307 0.0167551 0.00752751 0.00614231 9.06619e-05 -5.73124e-05 3.64932e-10 -9.92559e-11 3.53749e-11 5e-05 1.46608e-10 
241 1 0.0975497 0.0164568 0.00778138 0.00559996 0.00015888 -0.000115992 1.86356e-10 -1.87784e-10 1.56508e-10 5e-05 1.46608e-10 
242 1 0.104013 0.0172237 0.00729151 0.00635314 -0.00035438 0.000567696 2.24322e-10 -1.54117e-10 1.35569e-10 5e-05 1.46608e-10 
243 1 0.103758 0.0169321 0.00749701 0.00590909 -0.000329147 0.000526218 4.12416e-10 -1.33674e-10 7.92379e-11 5e-05 1.46608e-10 
244 1 0.0975899 0.016606 0.0076544 0.00605626 9.43672e-05 -6.14399e-05 3.73352e-10 -4.06598e-10 3.343e-10 5e-05 1.46608e-10 
246 1 0.0977121 0.0170534 0.0072737 0.00632426 5.58762e-05 -2.674e-05 7.05367e-11 -7.25421e-11 8.99309e-11 5e-05 1.46608e-10 
247 1 0.104032 0.018071 0.00696243 0.00571467 -0.000636318 1.07272e-05 5.05958e-10 1.11332e-10 -3.76382e-10 5e-05 1.46608e-10 