ITEM: TIMESTEP
26200000
ITEM: NUMBER OF ATOMS
271
ITEM: BOX BOUNDS ff ff ff
-0.02 0.43
-0.02 0.06
-0.02 0.07
ITEM: ATOMS id type x y z vx vy vz fx fy fz radius mass 
1 1 0.165403 0.0160519 0.00827199 0.00602726 0.000176674 -0.00018122 -4.09153e-11 2.86707e-10 2.26988e-10 5e-05 1.46608e-10 
2 1 0.165943 0.0173662 0.00729713 0.00563719 0.000164948 -0.000105119 3.32641e-10 9.55369e-11 -3.50021e-11 5e-05 1.46608e-10 
3 1 0.16003 0.0169782 0.00741345 0.00564248 -5.39573e-05 -0.000250335 -7.16819e-11 4.41769e-11 -8.5921e-12 5e-05 1.46608e-10 
4 1 0.165775 0.0167795 0.00752245 0.00586245 0.000171481 -9.53287e-05 2.38605e-11 -5.07308e-10 5.18343e-12 5e-05 1.46608e-10 
5 1 0.165381 0.0159928 0.00834962 0.00598402 0.000113524 -0.000275687 -9.87266e-14 4.06785e-10 -6.29989e-11 5e-05 1.46608e-10 
6 1 0.171356 0.0158919 0.00839729 0.00593088 0.000554065 0.000839665 6.85806e-13 1.07007e-12 -4.18112e-13 5e-05 1.46608e-10 
7 1 0.165497 0.0162917 0.00796692 0.00603078 0.000224462 1.25376e-05 -3.5307e-10 -1.04579e-10 -9.62293e-13 5e-05 1.46608e-10 
8 1 0.16536 0.0159347 0.00842827 0.00597467 0.00044625 -4.93548e-05 -1.76745e-10 2.17043e-10 -3.73821e-10 5e-05 1.46608e-10 
9 1 0.171502 0.0164989 0.00811405 0.00564023 8.62472e-05 0.00102423 -8.73799e-14 9.71845e-13 -4.45225e-13 5e-05 1.46608e-10 
10 1 0.165879 0.017957 0.00715889 0.00550703 0.000210277 -0.000112432 6.59808e-11 7.66109e-12 3.78461e-11 5e-05 1.46608e-10 
11 1 0.165963 0.0174616 0.00727447 0.00525978 0.000257744 -0.000115703 -5.27055e-10 1.07963e-10 1.09727e-10 5e-05 1.46608e-10 
12 1 0.159483 0.0161855 0.00785939 0.00636047 -4.44008e-05 0.000323038 7.40083e-11 1.6903e-11 1.41361e-11 5e-05 1.46608e-10 
13 1 0.165297 0.0157616 0.00866514 0.0058617 0.000429671 -2.9336e-05 -1.46304e-10 -1.3942e-10 2.78664e-10 5e-05 1.46608e-10 
14 1 0.160074 0.0184553 0.00691948 0.00561606 -6.46784e-05 0.000388501 3.35469e-10 -3.04662e-11 7.39228e-11 5e-05 1.46608e-10 
15 1 0.165815 0.0167984 0.00743299 0.00587958 0.000118759 -0.000107812 -1.27116e-11 2.05972e-10 -1.97734e-11 5e-05 1.46608e-10 
16 1 0.16019 0.0181473 0.00701439 0.0055911 -6.68236e-05 0.00036993 -5.20998e-11 -1.55345e-10 -4.96839e-11 5e-05 1.46608e-10 
17 1 0.165851 0.01699 0.00738689 0.0058266 8.31224e-05 -9.5955e-05 1.09728e-09 -9.34006e-10 2.42391e-10 5e-05 1.46608e-10 
19 1 0.165339 0.015877 0.00850723 0.00596332 0.000451747 -4.66605e-05 -1.69928e-10 3.22572e-10 -4.83824e-10 5e-05 1.46608e-10 
21 1 0.165859 0.0178616 0.00718156 0.00549885 0.000208327 -0.000110017 3.08226e-11 -4.32452e-11 3.89318e-11 5e-05 1.46608e-10 
22 1 0.165836 0.0168935 0.00741006 0.00587361 0.00013995 -0.00011859 -3.00098e-10 3.82718e-10 -6.99897e-11 5e-05 1.46608e-10 
23 1 0.15968 0.0166268 0.00759774 0.00567604 -0.000234837 -0.000165928 1.80789e-11 2.06766e-11 -1.19866e-11 5e-05 1.46608e-10 
24 1 0.171574 0.0167997 0.00797368 0.00556251 0.000129963 0.00098712 -4.68447e-13 1.08144e-12 -6.20279e-13 5e-05 1.46608e-10 
25 1 0.165645 0.016489 0.00770434 0.00597323 0.000141722 -4.94095e-05 5.14186e-10 -8.92364e-11 1.22587e-10 5e-05 1.46608e-10 
26 1 0.171459 0.0163218 0.00819668 0.00569068 8.00477e-05 0.00103697 1.98078e-13 9.02454e-13 -4.94828e-13 5e-05 1.46608e-10 
27 1 0.160011 0.0168886 0.00745697 0.00562381 -0.000107801 -0.00022409 -1.06142e-10 1.33448e-10 -6.6833e-11 5e-05 1.46608e-10 
28 1 0.165902 0.0171757 0.00734242 0.00559063 0.000174787 -0.000108322 -2.07225e-10 -1.38574e-10 -1.44554e-11 5e-05 1.46608e-10 
29 1 0.165512 0.0163482 0.00788587 0.00611533 0.000134858 -2.85837e-05 1.68375e-10 -1.24402e-10 5.05639e-12 5e-05 1.46608e-10 
30 1 0.165963 0.0179048 0.00717019 0.00551102 0.000222678 -0.00011682 -4.14519e-11 -2.1265e-10 7.71418e-11 5e-05 1.46608e-10 
31 1 0.165663 0.0165489 0.00762617 0.00597286 0.000137329 -4.84848e-05 -1.92704e-10 -6.48834e-11 1.04461e-10 5e-05 1.46608e-10 
32 1 0.165679 0.0166089 0.00754787 0.00591905 0.000151202 -6.53385e-05 -5.02898e-11 -3.86128e-11 5.16118e-11 5e-05 1.46608e-10 
33 1 0.171385 0.0160137 0.00834044 0.0058735 0.000464179 0.000874838 5.345e-13 1.04987e-12 -4.36518e-13 5e-05 1.46608e-10 
34 1 0.165465 0.0162305 0.00803918 0.0060676 0.000139287 -6.65874e-05 5.52987e-10 -4.44881e-10 2.60431e-10 5e-05 1.46608e-10 
35 1 0.165549 0.0164771 0.00773783 0.00621899 9.34668e-05 -4.2252e-05 -1.78027e-10 7.08156e-11 -1.63602e-10 5e-05 1.46608e-10 
36 1 0.171545 0.0166759 0.00803143 0.00558978 9.24495e-05 0.0010115 -2.28821e-13 9.38138e-13 -4.64134e-13 5e-05 1.46608e-10 
37 1 0.16606 0.0179386 0.00716112 0.00556109 0.000233036 -0.000119007 2.43388e-11 -1.06311e-10 1.76696e-11 5e-05 1.46608e-10 
38 1 0.166172 0.0176191 0.00723501 0.00540039 0.00013867 -9.49605e-05 5.32653e-10 -3.79429e-10 8.0268e-11 5e-05 1.46608e-10 
39 1 0.171628 0.0167293 0.00801993 0.00556252 0.00012996 0.00098712 -4.06617e-13 1.21957e-12 -6.55525e-13 5e-05 1.46608e-10 
41 1 0.165976 0.0171094 0.00735718 0.00569047 0.000313155 -0.000134373 6.41468e-11 -4.24823e-10 2.13529e-10 5e-05 1.46608e-10 
42 1 0.321436 0.0173475 0.00552525 4.5798e-16 2.25566e-15 8.4636e-14 1.26872e-23 -1.98394e-24 2.06795e-25 5e-05 1.46608e-10 
44 1 0.165922 0.017271 0.00731977 0.0055438 0.0001887 -0.000109222 7.14625e-11 2.15589e-10 -8.50438e-11 5e-05 1.46608e-10 
45 1 0.171414 0.0161326 0.00828497 0.00581834 0.000379836 0.00090759 3.87553e-13 1.03447e-12 -4.56457e-13 5e-05 1.46608e-10 
47 1 0.165425 0.0161112 0.00819471 0.00608259 0.000196574 -0.000107305 -2.05724e-10 -4.45643e-11 2.62816e-10 5e-05 1.46608e-10 
48 1 0.166041 0.0178432 0.00718379 0.00552937 0.000236536 -0.000120783 1.33894e-10 -2.86844e-10 4.50646e-11 5e-05 1.46608e-10 
50 1 0.165621 0.0167346 0.00745349 0.00587574 0.000159118 -8.9292e-05 -1.9921e-10 -1.23157e-10 8.7158e-11 5e-05 1.46608e-10 
51 1 0.165601 0.0166466 0.00749658 0.00589883 0.000164323 -7.20757e-05 -3.75138e-11 -4.52178e-11 -6.99665e-11 5e-05 1.46608e-10 
52 1 0.159397 0.0159255 0.00814907 0.00615066 5.01784e-05 0.000405564 7.85287e-12 -1.53598e-10 7.34265e-11 5e-05 1.46608e-10 
53 1 0.171598 0.0165348 0.00811379 0.005615 8.9344e-05 0.00101787 -2.11272e-13 7.16862e-13 -3.8458e-13 5e-05 1.46608e-10 
54 1 0.16608 0.018034 0.00713846 0.00564011 0.000223451 -0.000117264 3.7595e-10 1.91658e-10 -5.03288e-11 5e-05 1.46608e-10 
55 1 0.159333 0.0157401 0.00837612 0.00607257 6.48152e-05 0.000390106 -1.66296e-10 -8.85386e-11 1.33195e-11 5e-05 1.46608e-10 
56 1 0.166135 0.0178742 0.00717542 0.00555017 0.000202591 -0.000112616 3.53548e-11 -5.24892e-10 1.29244e-10 5e-05 1.46608e-10 
57 1 0.171438 0.0162332 0.008238 0.0057159 7.69475e-05 0.00104333 2.40228e-13 9.27444e-13 -4.02928e-13 5e-05 1.46608e-10 
59 1 0.165948 0.017011 0.00738062 0.00587243 0.000156537 -0.000105853 7.5689e-10 8.69197e-10 -2.50573e-10 5e-05 1.46608e-10 
61 1 0.165528 0.01641 0.00780876 0.00627476 4.30417e-05 -6.96773e-05 2.65075e-10 -1.64876e-10 -1.136e-10 5e-05 1.46608e-10 
62 1 0.166132 0.0174276 0.0072805 0.00560512 0.000339241 -0.00014569 3.94262e-10 -4.23911e-10 5.46049e-11 5e-05 1.46608e-10 
63 1 0.165773 0.0166308 0.00752127 0.00591328 0.000131068 -5.50509e-05 -2.24484e-10 -2.26606e-10 -2.13695e-10 5e-05 1.46608e-10 
64 1 0.171596 0.0168882 0.00793237 0.00553729 0.000133062 0.000980754 -5.10606e-13 1.15822e-12 -6.90423e-13 5e-05 1.46608e-10 
65 1 0.159688 0.0170533 0.00750035 0.00576301 -0.000228994 -0.000176552 -2.78957e-10 -8.41e-11 -1.6541e-10 5e-05 1.46608e-10 
66 1 0.159312 0.0156783 0.00845181 0.00604312 6.15342e-05 0.000390176 1.33349e-10 -3.90366e-11 1.94074e-11 5e-05 1.46608e-10 
67 1 0.166038 0.0173967 0.00728886 0.00565623 0.00015818 -0.00010446 2.1645e-10 2.19982e-10 -1.44201e-11 5e-05 1.46608e-10 
68 1 0.165717 0.0167641 0.00744255 0.00589618 0.000119222 -0.000111188 -2.33226e-10 -2.64e-10 7.38024e-11 5e-05 1.46608e-10 
69 1 0.166022 0.018191 0.00710219 0.00583961 0.00021034 -0.000116902 -1.48192e-10 -2.39586e-10 6.03268e-11 5e-05 1.46608e-10 
70 1 0.171481 0.0164103 0.00815537 0.00566546 8.31486e-05 0.0010306 -7.947e-15 9.52858e-13 -4.48799e-13 5e-05 1.46608e-10 
71 1 0.159376 0.0158637 0.00822475 0.00612925 5.42057e-05 0.000403996 2.0458e-10 -7.72084e-11 7.4178e-11 5e-05 1.46608e-10 
72 1 0.166021 0.0177478 0.00720647 0.00551341 0.000230119 -0.000119788 -7.81059e-11 -3.63788e-10 6.90882e-11 5e-05 1.46608e-10 
73 1 0.1661 0.0181293 0.00711581 0.00578341 0.000188601 -0.000111416 1.27439e-10 2.72272e-10 -6.40795e-11 5e-05 1.46608e-10 
74 1 0.166112 0.0173317 0.0073033 0.00575762 0.000229462 -0.000119809 1.01882e-10 1.24541e-10 -6.25386e-11 5e-05 1.46608e-10 
76 1 0.160036 0.0178328 0.00709404 0.00555113 -3.60677e-05 0.000363018 -2.06131e-11 3.42478e-11 -5.54392e-11 5e-05 1.46608e-10 
77 1 0.165682 0.0168176 0.00751957 0.00587122 0.000135493 -0.000127973 -5.77238e-11 6.60993e-11 6.79277e-11 5e-05 1.46608e-10 
78 1 0.160131 0.018306 0.00696556 0.00561975 -6.415e-05 0.000372814 -8.73821e-11 -1.69551e-10 7.98039e-12 5e-05 1.46608e-10 
79 1 0.159441 0.0160491 0.007998 0.00620468 6.57384e-05 0.000404259 -2.28043e-11 7.06183e-11 -1.30964e-11 5e-05 1.46608e-10 
80 1 0.165982 0.0174269 0.00736626 0.00555068 0.000261587 -0.000164234 2.73555e-10 -3.1179e-10 7.44345e-11 5e-05 1.46608e-10 
81 1 0.160055 0.0179288 0.00707359 0.00557738 -4.13514e-05 0.000367901 -1.63855e-11 2.92157e-11 -8.91039e-11 5e-05 1.46608e-10 
82 1 0.159504 0.0162645 0.0078017 0.0062509 -0.00022429 3.24724e-05 2.68679e-10 9.08552e-11 4.60757e-11 5e-05 1.46608e-10 
83 1 0.160095 0.0181163 0.00701717 0.00557654 -4.47949e-05 0.000367796 -1.4959e-10 9.52935e-11 -3.51965e-11 5e-05 1.46608e-10 
84 1 0.171523 0.0165874 0.00807274 0.00561502 8.93518e-05 0.00101786 -2.15143e-13 1.26602e-12 -8.98483e-13 5e-05 1.46608e-10 
85 1 0.160065 0.0171644 0.00732319 0.00545045 -0.000291423 -0.000127802 -3.69202e-11 6.41411e-11 -2.84073e-12 5e-05 1.46608e-10 
86 1 0.165997 0.0172058 0.00733423 0.00560485 0.000186861 -0.000107042 3.48738e-10 1.44337e-10 -5.95022e-11 5e-05 1.46608e-10 
87 1 0.166302 0.0173938 0.00728652 0.00549909 0.000448573 -0.000168874 1.961e-10 1.30987e-10 -3.04373e-11 5e-05 1.46608e-10 
88 1 0.165781 0.0173508 0.00738687 0.00543155 0.000221324 -0.000107719 -2.62942e-10 1.24055e-10 1.70861e-11 5e-05 1.46608e-10 
89 1 0.166057 0.0174923 0.00726615 0.00528997 0.00034213 -0.000145795 -5.90104e-10 -2.28134e-10 1.35824e-10 5e-05 1.46608e-10 
90 1 0.166017 0.0173011 0.00731158 0.00562233 0.000130871 -9.52843e-05 1.34035e-10 1.27108e-10 -5.15141e-11 5e-05 1.46608e-10 
91 1 0.160052 0.017074 0.00736683 0.00541656 -0.000282206 -0.0001311 -6.77124e-11 8.52294e-11 -3.25428e-11 5e-05 1.46608e-10 
92 1 0.166002 0.0176523 0.00722914 0.00534688 0.000268037 -0.000123282 -4.09076e-11 -1.43384e-10 6.49166e-11 5e-05 1.46608e-10 
93 1 0.165662 0.0169243 0.0074052 0.00586716 0.000154141 -0.000126357 1.12331e-11 -2.19572e-11 6.24993e-11 5e-05 1.46608e-10 
94 1 0.165902 0.0176145 0.00723919 0.00540273 0.000214539 -0.000113063 -1.46796e-10 -1.52121e-10 3.65406e-11 5e-05 1.46608e-10 
95 1 0.165802 0.0174459 0.00736375 0.00560974 0.000194166 -0.000111275 1.76737e-10 1.4921e-10 4.10682e-12 5e-05 1.46608e-10 
96 1 0.165683 0.0170194 0.00738227 0.00586695 0.000168666 -0.000122135 1.32334e-10 -1.82465e-10 -2.2625e-10 5e-05 1.46608e-10 
97 1 0.159774 0.0166535 0.0075804 0.00568134 -0.000263803 -0.000152469 1.98433e-11 1.04723e-10 -4.80086e-11 5e-05 1.46608e-10 
98 1 0.165881 0.0173797 0.00737492 0.00559823 0.000128867 -0.000132919 8.2502e-11 1.53454e-10 -1.09474e-10 5e-05 1.46608e-10 
99 1 0.159706 0.0171428 0.00745729 0.00552234 -0.000197002 -0.000179498 4.15128e-11 -1.15049e-10 -6.99013e-11 5e-05 1.46608e-10 
100 1 0.166077 0.017588 0.0072434 0.005247 0.000216262 -0.000108344 -3.60213e-10 -5.11712e-10 9.18698e-11 5e-05 1.46608e-10 
101 1 0.159461 0.0161109 0.00792203 0.00624283 5.7512e-05 0.000401954 -2.22793e-10 -6.43569e-11 -8.3537e-11 5e-05 1.46608e-10 
102 1 0.0643568 0.0187248 0.00531097 4.45451e-15 1.04364e-14 8.2958e-14 2.83662e-21 -8.95733e-22 -2.6263e-23 5e-05 1.46608e-10 
103 1 0.24257 0.0191927 0.00520306 -1.01195e-22 4.86658e-23 -5.81428e-22 0 0 0 5e-05 1.46608e-10 
104 1 0.159956 0.0178892 0.00707294 0.00555727 -1.64131e-05 0.000354782 5.18138e-11 1.82477e-10 3.07355e-11 5e-05 1.46608e-10 
105 1 0.15989 0.0167686 0.00752001 0.00563802 -0.000336856 -0.000115411 2.52823e-11 5.77623e-11 -2.62002e-11 5e-05 1.46608e-10 
106 1 0.159836 0.0169177 0.00745171 0.0057532 -0.000222714 -0.000175104 -4.70038e-11 4.72666e-11 -2.30027e-11 5e-05 1.46608e-10 
107 1 0.159795 0.0167415 0.00753754 0.00571297 -0.000272573 -0.000150085 -2.78761e-11 9.92271e-11 -4.71741e-11 5e-05 1.46608e-10 
108 1 0.16596 0.0183426 0.00709632 0.00582444 7.14399e-05 -1.57631e-05 5.97958e-11 1.31297e-10 -9.39399e-12 5e-05 1.46608e-10 
109 1 0.165585 0.0165886 0.00757645 0.00592914 0.000152765 -6.5192e-05 2.90489e-10 -1.78754e-10 8.16048e-11 5e-05 1.46608e-10 
110 1 0.165705 0.0171152 0.00739991 0.00581611 0.000180033 -0.000121628 -6.05869e-11 -3.02853e-10 9.30464e-11 5e-05 1.46608e-10 
111 1 0.165836 0.0173197 0.0073093 0.00547029 0.000211028 -0.000111994 1.36383e-09 2.43327e-10 3.80066e-10 5e-05 1.46608e-10 
112 1 0.160208 0.0178071 0.00711226 0.00552596 -9.52151e-05 0.000376746 4.72637e-11 -6.51795e-11 1.19562e-11 5e-05 1.46608e-10 
113 1 0.159824 0.0173407 0.00725109 0.00554462 -0.000136908 -0.000197497 1.35365e-10 -1.55652e-11 -2.65946e-11 5e-05 1.46608e-10 
114 1 0.159997 0.0185198 0.00691942 0.00561082 -4.72655e-05 0.000260012 2.26195e-10 2.80545e-10 -1.60771e-10 5e-05 1.46608e-10 
115 1 0.165881 0.017085 0.00737884 0.00571017 0.000133069 -0.000103012 -1.54692e-10 -4.33654e-10 9.07052e-11 5e-05 1.46608e-10 
116 1 0.165938 0.0182431 0.0070909 0.00582148 0.000158692 -0.000104586 -8.63657e-12 2.48971e-11 -5.1625e-12 5e-05 1.46608e-10 
117 1 0.166207 0.0173626 0.00729493 0.0056518 0.000377097 -0.000153768 8.22009e-10 -3.28286e-10 6.35981e-11 5e-05 1.46608e-10 
118 1 0.15992 0.0181408 0.00699913 0.00558466 -3.76653e-05 0.000361822 -1.40848e-10 -5.12648e-10 1.22595e-10 5e-05 1.46608e-10 
119 1 0.165795 0.0167032 0.00745593 0.0059191 0.000101476 -9.39833e-05 -1.42959e-11 -1.04898e-10 -3.69737e-11 5e-05 1.46608e-10 
120 1 0.165625 0.0164294 0.00778202 0.00625274 0.00011957 -1.0743e-05 -3.28685e-10 3.39169e-11 2.82409e-10 5e-05 1.46608e-10 
121 1 0.165444 0.016171 0.00811672 0.00607112 0.000173216 -8.08747e-05 2.8598e-10 -1.57179e-10 2.91571e-10 5e-05 1.46608e-10 
122 1 0.165696 0.0170054 0.00748046 0.00588291 0.000140472 -0.000132947 4.94149e-12 -2.06259e-11 7.40628e-11 5e-05 1.46608e-10 
123 1 0.159881 0.0179509 0.00705063 0.00557021 -1.76179e-05 0.000353191 -9.81838e-11 -7.92015e-11 -1.34352e-11 5e-05 1.46608e-10 
124 1 0.165734 0.0172611 0.00741325 0.0055844 0.000242015 -0.000124565 -2.99017e-10 -1.29739e-10 -1.24525e-10 5e-05 1.46608e-10 
125 1 0.166227 0.0174588 0.00727208 0.00554914 0.00051123 -0.000183994 3.44276e-10 3.35683e-10 -8.10055e-11 5e-05 1.46608e-10 
126 1 0.165568 0.0165267 0.0076531 0.00596091 0.000149713 -5.89835e-05 5.16956e-10 -1.30933e-10 1.85725e-10 5e-05 1.46608e-10 
127 1 0.159913 0.0168584 0.00747612 0.00575147 -0.000222191 -0.000175687 -6.08463e-11 -2.89538e-11 1.77022e-11 5e-05 1.46608e-10 
128 1 0.165758 0.0169546 0.00739662 0.00577653 8.18583e-05 -0.000103494 -7.86391e-11 -7.86319e-10 2.06033e-10 5e-05 1.46608e-10 
129 1 0.165868 0.0177385 0.00729599 0.00551238 0.000221863 -0.000107521 3.15038e-10 -2.05489e-10 5.66218e-11 5e-05 1.46608e-10 
131 1 0.159936 0.0169493 0.00743183 0.00560584 -0.00011763 -0.000217569 -1.34888e-10 -6.33169e-11 5.72135e-11 5e-05 1.46608e-10 
132 1 0.165922 0.0175758 0.00732911 0.00524534 0.000210002 -9.16934e-05 -2.86811e-10 -2.97675e-13 1.00075e-10 5e-05 1.46608e-10 
133 1 0.165921 0.0178814 0.00725767 0.00551862 0.000223302 -0.000117585 6.19361e-11 -1.68844e-10 1.60058e-12 5e-05 1.46608e-10 
134 1 0.165695 0.0166689 0.0074695 0.00587306 0.000157674 -7.67732e-05 -1.22272e-10 4.95769e-12 -1.9538e-11 5e-05 1.46608e-10 
135 1 0.165318 0.0158193 0.00858618 0.00591152 0.000450507 -4.53464e-05 -5.78313e-12 5.14735e-11 -1.56231e-10 5e-05 1.46608e-10 
136 1 0.160019 0.0186177 0.00686983 0.00562897 -9.57556e-05 0.000383718 -5.06776e-11 -2.38825e-10 6.14475e-11 5e-05 1.46608e-10 
137 1 0.165642 0.0168292 0.00742864 0.00588137 0.000145786 -0.000116543 -1.5392e-10 -4.42882e-11 1.28319e-10 5e-05 1.46608e-10 
138 1 0.166002 0.0180957 0.00712485 0.00559852 0.000233127 -0.000119226 4.36727e-11 -2.72632e-11 4.74697e-12 5e-05 1.46608e-10 
140 1 0.165858 0.0174187 0.00728575 0.00564907 0.00020355 -0.00011095 3.186e-10 -2.86108e-10 -3.9769e-11 5e-05 1.46608e-10 
141 1 0.160015 0.0181742 0.00699567 0.00556593 -4.79227e-05 0.000368987 1.29126e-10 1.98357e-10 -2.50568e-11 5e-05 1.46608e-10 
142 1 0.159861 0.0178562 0.00707632 0.00553802 -9.11666e-06 0.00035396 5.06107e-11 3.13808e-11 -1.21872e-12 5e-05 1.46608e-10 
143 1 0.159355 0.0158019 0.00830051 0.00611408 6.14164e-05 0.000397955 2.07246e-10 -5.67133e-11 9.16859e-11 5e-05 1.46608e-10 
144 1 0.159958 0.0183266 0.00694876 0.00560616 -5.70816e-05 0.000370014 1.83004e-10 3.24839e-10 -5.19118e-11 5e-05 1.46608e-10 
147 1 0.160133 0.017869 0.0070899 0.00555351 -6.8977e-05 0.000371505 5.63556e-11 4.51101e-11 2.03703e-11 5e-05 1.46608e-10 
148 1 0.159528 0.0163404 0.00774133 0.00600718 -0.000290946 -0.000161661 6.15816e-11 -1.23526e-10 -3.97258e-12 5e-05 1.46608e-10 
149 1 0.165815 0.0172244 0.00733196 0.0057353 0.00032601 -0.00014608 -6.32653e-10 2.68353e-10 -1.90597e-10 5e-05 1.46608e-10 
150 1 0.0100679 0.0201683 0.00551526 8.38546e-15 1.23706e-15 -8.48744e-14 7.00519e-24 -6.32696e-23 0 5e-05 1.46608e-10 
151 1 0.159896 0.0176055 0.00714981 0.00549224 -2.95532e-05 0.000354709 -8.09067e-11 -6.30453e-11 2.65533e-11 5e-05 1.46608e-10 
153 1 0.160209 0.0182472 0.00698722 0.00560825 -8.09455e-05 0.000378678 1.02055e-10 -1.73217e-11 -4.48608e-12 5e-05 1.46608e-10 
154 1 0.159939 0.0182393 0.00699376 0.00557193 -4.88389e-05 0.000379363 -1.37333e-10 1.31754e-10 -2.89137e-11 5e-05 1.46608e-10 
155 1 0.159544 0.0164293 0.00769835 0.00564898 -0.000216512 -0.000166625 -8.88361e-11 -7.85457e-11 1.46469e-11 5e-05 1.46608e-10 
156 1 0.159976 0.0179848 0.00704704 0.00558593 -4.36913e-05 0.000367681 6.17426e-12 4.86204e-11 -5.75187e-11 5e-05 1.46608e-10 
157 1 0.0219312 0.0187687 0.00551176 -3.82757e-14 8.16914e-14 2.95888e-13 -6.00352e-22 -7.32572e-23 -6.59677e-23 5e-05 1.46608e-10 
158 1 0.160139 0.0174421 0.00721165 0.00545594 -8.36021e-05 0.000369733 6.90656e-14 7.23826e-11 1.08354e-11 5e-05 1.46608e-10 
159 1 0.166152 0.0175234 0.00725774 0.00536833 0.000330744 -0.000138545 5.10677e-11 3.32804e-12 1.56539e-11 5e-05 1.46608e-10 
160 1 0.159996 0.0180796 0.00702133 0.00556596 -4.08987e-05 0.000363487 -2.86653e-11 -8.36296e-11 4.97092e-11 5e-05 1.46608e-10 
162 1 0.160074 0.0180218 0.00704273 0.005566 -4.02336e-05 0.000362479 -1.30327e-10 1.08149e-10 2.3017e-11 5e-05 1.46608e-10 
164 1 0.159782 0.0170681 0.00738497 0.00556736 -0.000160847 -0.000191034 1.57826e-10 -1.12705e-10 -1.78221e-11 5e-05 1.46608e-10 
165 1 0.159976 0.0175491 0.00717089 0.00548224 -3.61606e-05 0.000358094 -4.28901e-11 -7.32767e-11 -2.56889e-12 5e-05 1.46608e-10 
166 1 0.166041 0.0182867 0.00707947 0.00588526 0.000159287 -0.000101188 1.64917e-10 2.12963e-10 -5.35192e-11 5e-05 1.46608e-10 
168 1 0.159857 0.0170065 0.00740843 0.00558129 -0.000142967 -0.000204407 6.98158e-11 -3.41523e-11 -1.01395e-11 5e-05 1.46608e-10 
169 1 0.159766 0.0174124 0.00728899 0.00552584 -0.000183304 -0.000163391 -2.12735e-11 6.20189e-11 1.52827e-10 5e-05 1.46608e-10 
170 1 0.159971 0.0171292 0.00734449 0.00544803 -0.000243628 -0.0001521 -5.31673e-11 -4.29678e-11 2.98897e-11 5e-05 1.46608e-10 
171 1 0.165918 0.0181478 0.00711356 0.00553536 0.00021072 -0.000113236 8.52513e-11 1.1627e-10 -3.26748e-11 5e-05 1.46608e-10 
172 1 0.159949 0.0175514 0.00726725 0.0054706 -2.7274e-05 0.000354789 -4.55578e-11 -3.66754e-11 9.27004e-11 5e-05 1.46608e-10 
173 1 0.165982 0.0175569 0.00725181 0.00521862 0.000274821 -0.000125339 -3.2225e-10 -1.16888e-10 -3.70355e-12 5e-05 1.46608e-10 
174 1 0.159815 0.0168297 0.00749458 0.00567558 -0.000296781 -0.000135851 -3.68662e-12 2.65976e-12 2.13159e-12 5e-05 1.46608e-10 
175 1 0.153601 0.0166534 0.0075157 0.0055883 -0.000831242 0.0011231 5.2004e-11 -2.25087e-11 3.01771e-12 5e-05 1.46608e-10 
177 1 0.159815 0.0172449 0.00729741 0.00551581 -0.000183701 -0.000144519 -1.8973e-11 -4.01833e-10 -1.51277e-10 5e-05 1.46608e-10 
178 1 0.159907 0.017278 0.00727684 0.00552774 -0.000234041 -0.000147594 -3.05394e-11 -7.7096e-11 6.93776e-11 5e-05 1.46608e-10 
179 1 0.159961 0.0174552 0.00720206 0.00546171 -9.27507e-05 0.000185766 1.24357e-11 4.69059e-12 3.32995e-11 5e-05 1.46608e-10 
181 1 0.160114 0.0177741 0.00711564 0.00553301 -6.27824e-05 0.000369579 5.42694e-12 8.37326e-11 -6.03006e-11 5e-05 1.46608e-10 
182 1 0.165898 0.0180524 0.00713623 0.00551907 0.000214972 -0.00011443 -4.7722e-11 2.72955e-11 5.40925e-13 5e-05 1.46608e-10 
183 1 0.159956 0.0170401 0.00738761 0.00560795 -8.81578e-05 -0.000232231 -8.93113e-11 -1.01236e-10 2.58699e-11 5e-05 1.46608e-10 
184 1 0.165879 0.0175145 0.00726298 0.0053825 0.000257487 -0.000122278 -2.76772e-10 -5.0266e-11 3.65545e-12 5e-05 1.46608e-10 
186 1 0.159841 0.0177614 0.00710202 0.00551686 -4.64671e-05 0.00036135 7.34223e-11 5.85062e-11 9.21897e-12 5e-05 1.46608e-10 
187 1 0.165839 0.0177662 0.00720423 0.00548953 0.000220776 -0.000111981 1.95244e-11 -1.15689e-10 4.00829e-11 5e-05 1.46608e-10 
188 1 0.165659 0.0167237 0.00754527 0.00589417 0.000174796 -8.50087e-05 -2.73826e-10 -1.48739e-10 -5.52374e-12 5e-05 1.46608e-10 
189 1 0.165942 0.0178072 0.00719341 0.00550542 0.000216355 -0.000114182 1.15848e-10 -8.84293e-11 4.40126e-11 5e-05 1.46608e-10 
190 1 0.153882 0.0175605 0.00745091 0.00598536 -0.000982201 -0.000239056 -6.27555e-11 1.9355e-11 5.54197e-12 5e-05 1.46608e-10 
191 1 0.165662 0.0169145 0.00750472 0.00586313 0.000141853 -0.000135871 1.24512e-11 -3.41334e-11 3.7877e-11 5e-05 1.46608e-10 
192 1 0.16021 0.0172992 0.00725674 0.00535623 -0.000197362 0.000394685 3.21669e-11 -1.71647e-11 1.81895e-11 5e-05 1.46608e-10 
193 1 0.165893 0.0166837 0.00745919 0.00595998 0.000220364 -0.000130799 2.6709e-11 -9.40881e-11 3.93285e-11 5e-05 1.46608e-10 
194 1 0.161461 0.0182058 0.00533758 1.588e-15 -1.10027e-14 8.66685e-14 4.73212e-22 -3.20532e-24 -8.06501e-24 5e-05 1.46608e-10 
195 1 0.160054 0.0174904 0.00719249 0.00546618 -5.46253e-05 0.000364175 -1.51242e-12 -4.18711e-11 4.34975e-11 5e-05 1.46608e-10 
196 1 0.1597 0.0167148 0.00755487 0.00570023 -0.000242135 -0.000163435 3.41242e-11 4.53095e-11 -2.02211e-11 5e-05 1.46608e-10 
197 1 0.15366 0.0169466 0.00751064 0.00554743 -0.000901962 -0.000225893 -1.15121e-10 3.99175e-11 7.19071e-11 5e-05 1.46608e-10 
198 1 0.160089 0.0185506 0.00689334 0.00563936 -8.1767e-05 0.000379982 7.88094e-11 -9.4415e-11 2.8141e-11 5e-05 1.46608e-10 
199 1 0.160053 0.0183674 0.00696218 0.00561895 -6.73339e-05 0.000377807 1.29619e-11 -1.34853e-10 4.03598e-11 5e-05 1.46608e-10 
201 1 0.159813 0.0174392 0.00720483 0.00530588 -3.53345e-05 -0.000243904 4.17497e-11 -2.07509e-10 1.00941e-10 5e-05 1.46608e-10 
202 1 0.160016 0.0177381 0.0071197 0.00552369 -3.54461e-05 0.00035912 -3.16786e-12 -2.70249e-11 -5.04521e-12 5e-05 1.46608e-10 
203 1 0.16572 0.0171941 0.00734031 0.00560531 0.000200114 -0.000117227 -1.73156e-10 1.04185e-10 1.6528e-10 5e-05 1.46608e-10 
204 1 0.15942 0.0159872 0.00807371 0.00619526 5.58573e-05 0.000407432 -1.1434e-10 5.12801e-11 5.35299e-11 5e-05 1.46608e-10 
205 1 0.160123 0.0173446 0.00723832 0.00540927 -0.000108512 0.000372916 4.06869e-11 2.80342e-11 -1.2673e-11 5e-05 1.46608e-10 
206 1 0.15974 0.016891 0.00746912 0.00571441 -0.000256479 -0.00015549 1.49167e-10 1.15128e-10 -6.45986e-11 5e-05 1.46608e-10 
207 1 0.159818 0.0171635 0.00743829 0.00553861 -0.000162361 -0.000189662 -7.36165e-11 -1.33266e-10 8.86576e-11 5e-05 1.46608e-10 
208 1 0.159915 0.017946 0.00714434 0.00554202 -1.37432e-05 0.000352741 -1.96455e-10 5.24809e-10 -1.39459e-10 5e-05 1.46608e-10 
209 1 0.15662 0.0170168 0.00741793 0.00580078 0.000787871 -0.000163322 -6.32002e-13 -6.99399e-12 3.45677e-12 5e-05 1.46608e-10 
210 1 0.165922 0.0177105 0.00721638 0.0054967 0.00023266 -0.000118439 3.21163e-11 -1.0518e-10 -3.83731e-12 5e-05 1.46608e-10 
211 1 0.16582 0.0176708 0.0072269 0.00544125 0.000244572 -0.000119425 -7.05733e-11 -9.99413e-11 1.76078e-11 5e-05 1.46608e-10 
212 1 0.160075 0.0175848 0.00716699 0.00549098 -5.61127e-05 0.000362884 -3.65877e-11 -3.88515e-11 6.9263e-12 5e-05 1.46608e-10 
213 1 0.165983 0.0180003 0.00714752 0.00554618 0.000235556 -0.000119597 -4.5277e-11 8.87267e-11 -2.37413e-11 5e-05 1.46608e-10 
214 1 0.165761 0.0173846 0.0072949 0.00564482 0.000164149 -0.000115907 1.21788e-10 4.87872e-10 -1.72269e-10 5e-05 1.46608e-10 
215 1 0.153831 0.0177248 0.00744073 0.00601198 -0.000987157 -0.000240054 4.97761e-11 4.40013e-11 -1.39942e-11 5e-05 1.46608e-10 
216 1 0.16002 0.0174828 0.00728609 0.00546623 -3.1348e-05 0.000364993 -4.5792e-11 -3.46691e-11 4.58294e-11 5e-05 1.46608e-10 
217 1 0.166119 0.0182249 0.0070931 0.0059129 0.000166814 -0.000108037 3.1097e-10 2.96823e-10 -5.28761e-11 5e-05 1.46608e-10 
218 1 0.159584 0.0165997 0.00761528 0.00568335 -0.00021691 -0.000176885 -5.02604e-13 4.69849e-11 -1.12818e-10 5e-05 1.46608e-10 
219 1 0.165794 0.0171277 0.00735496 0.0058198 0.000449432 -0.000171417 3.30717e-10 8.55203e-10 2.31258e-10 5e-05 1.46608e-10 
220 1 0.159997 0.0176435 0.00714538 0.00550718 -3.80071e-05 0.000358942 2.04508e-11 -6.59447e-11 3.91438e-11 5e-05 1.46608e-10 
221 1 0.219714 0.017134 0.00723036 0.00558696 -0.00089016 0.000336436 1.3308e-12 -1.8605e-13 7.34039e-14 5e-05 1.46608e-10 
222 1 0.166092 0.0172363 0.00732598 0.00559937 6.336e-05 -8.06495e-05 1.7846e-11 -5.25661e-11 4.16558e-11 5e-05 1.46608e-10 
223 1 0.159936 0.0177945 0.00709861 0.00553103 -2.19155e-05 0.000356692 1.33952e-10 9.87903e-11 -6.64468e-12 5e-05 1.46608e-10 
224 1 0.135238 0.0177203 0.00783476 7.80589e-11 -0.0226469 0.00823545 9.62132e-19 7.47067e-12 2.05286e-11 5e-05 1.46608e-10 
225 1 0.165737 0.0168593 0.0074196 0.00586831 0.000136701 -0.000118965 1.82533e-10 -1.24144e-10 7.05288e-11 5e-05 1.46608e-10 
226 1 0.159886 0.0176302 0.00724621 0.00547758 -2.35944e-05 0.000351172 -5.66493e-11 -4.28758e-11 -9.12526e-13 5e-05 1.46608e-10 
227 1 0.153835 0.017366 0.00746859 0.0059363 -0.00109389 -0.000227713 3.13949e-11 -2.27757e-11 5.58687e-12 5e-05 1.46608e-10 
228 1 0.15362 0.0167513 0.00752198 0.00554439 -0.00082187 0.00110841 -9.6164e-11 -7.45208e-12 -2.89963e-11 5e-05 1.46608e-10 
229 1 0.160169 0.0176172 0.00716375 0.00549878 -8.20677e-05 0.000370868 -1.51027e-10 1.53236e-10 -5.49409e-11 5e-05 1.46608e-10 
230 1 0.159726 0.0172223 0.00733578 0.00552562 -0.000182855 -0.000152807 -7.36806e-11 -3.5899e-10 -3.26353e-10 5e-05 1.46608e-10 
231 1 0.153586 0.0165712 0.00757088 0.00560631 -0.000799514 0.00117808 1.30007e-10 -6.79635e-11 5.73559e-11 5e-05 1.46608e-10 
232 1 0.160116 0.0182107 0.00699168 0.00560176 -5.61634e-05 0.000372077 8.85837e-12 -3.77745e-11 1.26317e-10 5e-05 1.46608e-10 
234 1 0.165974 0.0177443 0.00729449 0.00548995 0.000298286 -0.000141293 -5.10956e-12 -1.37273e-10 6.78047e-11 5e-05 1.46608e-10 
235 1 0.159985 0.0172204 0.00730043 0.0054861 -0.000265448 -0.000137778 -5.24649e-11 -1.19144e-10 1.52427e-10 5e-05 1.46608e-10 
236 1 0.159706 0.017127 0.00735854 0.00555412 -0.000182044 -0.000181993 6.38416e-11 -1.76858e-10 3.4317e-11 5e-05 1.46608e-10 
237 1 0.159666 0.0169557 0.00745315 0.00574839 -0.000225052 -0.000180276 1.01812e-10 7.49531e-12 -8.56964e-11 5e-05 1.46608e-10 
239 1 0.153424 0.0161247 0.00820502 0.00567211 -0.000707733 0.00125118 2.33321e-10 -1.1412e-10 1.36662e-10 5e-05 1.46608e-10 
240 1 0.153445 0.016178 0.00812301 0.00572529 -0.000702207 0.00125216 -3.57684e-10 -1.13421e-10 3.42137e-11 5e-05 1.46608e-10 
241 1 0.153527 0.0163349 0.00788234 0.00573774 -0.000702736 0.00125183 -2.38777e-10 -1.17757e-11 -2.69732e-11 5e-05 1.46608e-10 
242 1 0.1599 0.0180459 0.00702487 0.00558246 -5.2399e-05 0.000368078 2.4461e-11 6.7718e-11 -5.61058e-12 5e-05 1.46608e-10 
244 1 0.153466 0.0162314 0.00804101 0.00580042 -0.000707186 0.00126494 4.03618e-10 -7.11431e-11 1.18165e-10 5e-05 1.46608e-10 
246 1 0.153567 0.0165178 0.00765304 0.00532331 -0.00069479 0.00118088 2.0617e-11 -6.48632e-11 6.38616e-11 5e-05 1.46608e-10 
247 1 0.160094 0.0176795 0.0071413 0.00550895 -5.54606e-05 0.000364162 -6.08907e-12 -1.94116e-11 8.21138e-13 5e-05 1.46608e-10 
248 1 0.159746 0.0173162 0.00730786 0.00552045 -0.000238331 -0.000234661 7.43477e-12 -2.21766e-10 2.78637e-10 5e-05 1.46608e-10 
249 1 0.153808 0.0176279 0.00744953 0.00598315 -0.000983886 -0.000238479 -4.06178e-11 1.37235e-12 7.64531e-12 5e-05 1.46608e-10 
250 1 0.159568 0.0165245 0.00767926 0.00565852 -0.000216685 -0.000180151 -8.28161e-11 5.14881e-11 -2.1263e-11 5e-05 1.46608e-10 
251 1 0.165741 0.0172893 0.00731755 0.00556834 0.000188208 -0.000122104 -9.69729e-11 2.8091e-10 -1.76446e-10 5e-05 1.46608e-10 
252 1 0.1537 0.0171418 0.00749327 0.00553284 -0.00089328 -0.000222459 -8.26292e-11 6.69503e-11 5.03399e-11 5e-05 1.46608e-10 
253 1 0.153954 0.0174918 0.00745245 0.00599324 -0.000976648 -0.000240138 -5.97397e-11 2.21163e-11 3.00096e-12 5e-05 1.46608e-10 
254 1 0.153546 0.0164428 0.00771572 0.00545571 -0.000692278 0.00123181 4.34041e-11 -3.94898e-11 5.68589e-11 5e-05 1.46608e-10 
255 1 0.160037 0.0182687 0.00697018 0.00559976 -6.07623e-05 0.000371398 -3.21392e-10 1.29208e-10 -7.528e-11 5e-05 1.46608e-10 
256 1 0.160095 0.0172514 0.00728032 0.00552347 -0.000193463 -0.000176723 6.40193e-11 -4.02309e-11 -2.41129e-11 5e-05 1.46608e-10 
257 1 0.159885 0.0173807 0.00731939 0.00551907 -0.000358223 -1.03657e-05 -7.72402e-11 5.12405e-10 -6.31907e-12 5e-05 1.46608e-10 
258 1 0.159879 0.0175087 0.00717622 0.00544403 -0.000330006 0.000438388 -2.51435e-11 1.3346e-11 -3.55652e-12 5e-05 1.46608e-10 
259 1 0.153719 0.0172394 0.0074846 0.00564967 -0.000918631 -0.000228196 -9.70147e-12 9.92361e-11 -3.22701e-11 5e-05 1.46608e-10 
261 1 0.159936 0.0173641 0.00723495 0.00550279 -0.000194711 -6.50536e-05 4.65968e-11 1.61575e-10 1.75427e-10 5e-05 1.46608e-10 