ITEM: TIMESTEP
32600000
ITEM: NUMBER OF ATOMS
271
ITEM: BOX BOUNDS ff ff ff
-0.02 0.43
-0.02 0.06
-0.02 0.07
ITEM: ATOMS id type x y z vx vy vz fx fy fz radius mass 
1 1 0.20259 0.0154781 0.00860496 0.00546067 -0.000356324 9.7905e-05 3.83514e-11 1.38259e-10 -7.26208e-11 5e-05 1.46608e-10 
2 1 0.203497 0.0180103 0.00695068 0.0059229 -0.000289788 -0.000196895 5.06618e-11 -7.61972e-12 -1.46341e-10 5e-05 1.46608e-10 
3 1 0.197524 0.017745 0.00702207 0.00584284 -1.68242e-05 -0.000128315 -1.14164e-10 3.75402e-10 -2.06047e-10 5e-05 1.46608e-10 
4 1 0.203557 0.0178636 0.00702955 0.00605274 -0.000358473 -8.78106e-05 1.68849e-10 -4.28566e-11 1.35871e-10 5e-05 1.46608e-10 
5 1 0.202569 0.0154466 0.00869752 0.00549027 -0.000380502 9.97594e-05 -7.44052e-11 -1.93546e-12 -9.69812e-11 5e-05 1.46608e-10 
6 1 0.208928 0.0167577 0.0074988 0.00599113 -0.00074924 0.000288359 8.351e-13 -1.6626e-12 -2.47516e-12 5e-05 1.46608e-10 
7 1 0.202662 0.0157215 0.00830922 0.00551307 -5.26634e-05 0.000242068 3.08146e-11 1.32901e-10 3.57285e-11 5e-05 1.46608e-10 
8 1 0.202552 0.0154193 0.00879208 0.00553018 -0.000301071 0.000134581 -9.02875e-11 3.82727e-11 -8.36658e-11 5e-05 1.46608e-10 
9 1 0.209055 0.017269 0.00723532 0.00609607 -0.000697004 0.00039137 -3.02081e-14 -7.99218e-13 -6.75514e-13 5e-05 1.46608e-10 
10 1 0.203142 0.0176579 0.00716988 0.00610937 -0.000456606 -0.000107894 7.9527e-12 -2.09184e-10 1.30996e-10 5e-05 1.46608e-10 
11 1 0.203278 0.0178529 0.00705227 0.006078 -0.000429556 -4.40325e-05 -4.28021e-11 -1.96163e-10 -2.53737e-11 5e-05 1.46608e-10 
12 1 0.196653 0.0156637 0.00834259 0.00527875 0.000131601 4.7237e-05 -1.76347e-10 -2.46266e-10 -3.82522e-10 5e-05 1.46608e-10 
13 1 0.202494 0.0153464 0.00907718 0.00585781 -0.00033421 0.000193809 -2.77189e-11 3.78105e-11 -1.28703e-10 5e-05 1.46608e-10 
14 1 0.197315 0.0184746 0.00686633 0.00572976 0.000106288 5.74428e-05 3.47274e-11 2.01154e-11 4.31722e-12 5e-05 1.46608e-10 
15 1 0.203537 0.0177787 0.00707845 0.00610749 -0.000406056 -0.000140339 2.3627e-10 -4.18053e-11 -2.18128e-11 5e-05 1.46608e-10 
16 1 0.19741 0.0185066 0.00686256 0.00574265 8.27492e-05 6.12615e-05 -1.64193e-11 -7.15178e-12 4.96031e-12 5e-05 1.46608e-10 
17 1 0.203576 0.0179512 0.00698517 0.00588466 -0.000212488 0.000124181 2.12619e-10 -2.53062e-11 7.0853e-11 5e-05 1.46608e-10 
19 1 0.202535 0.015395 0.00888755 0.00564958 -0.000277525 0.000163893 -1.4691e-10 1.65627e-11 -9.95226e-11 5e-05 1.46608e-10 
21 1 0.203099 0.0174887 0.00726751 0.00604598 -0.000438937 -0.0001139 -4.52351e-11 -1.64166e-10 9.62804e-11 5e-05 1.46608e-10 
22 1 0.203313 0.017623 0.00717928 0.00614407 -0.000422103 -0.000130292 -8.18929e-11 -1.05444e-10 4.88224e-11 5e-05 1.46608e-10 
23 1 0.19688 0.0161919 0.0078572 0.0056549 0.000108352 0.000233535 1.27807e-10 1.18064e-10 2.89093e-11 5e-05 1.46608e-10 
24 1 0.209142 0.0176443 0.00712732 0.00606312 -0.000690576 0.000388501 8.4673e-14 1.10007e-12 -3.00985e-13 5e-05 1.46608e-10 
25 1 0.202721 0.0159656 0.00814605 0.00554737 -0.000280278 -0.000150815 1.24177e-10 -2.71804e-12 -1.16781e-10 5e-05 1.46608e-10 
26 1 0.209012 0.0170814 0.00728933 0.00611247 -0.00070039 0.000393018 8.71148e-12 5.14536e-12 -1.31966e-13 5e-05 1.46608e-10 
27 1 0.197655 0.0179591 0.00695099 0.00560164 -5.92825e-06 7.32572e-05 -9.33604e-11 1.21257e-10 -1.66212e-11 5e-05 1.46608e-10 
28 1 0.203462 0.0178389 0.0070491 0.00605886 -0.000397606 -0.00013262 8.74923e-11 -4.58028e-10 2.09644e-10 5e-05 1.46608e-10 
29 1 0.202687 0.0157985 0.00825013 0.00548988 -0.000180243 4.20332e-05 2.29589e-10 -1.4477e-11 -9.68299e-11 5e-05 1.46608e-10 
30 1 0.2032 0.017913 0.00702303 0.0056758 -0.000330312 -0.000152343 5.70683e-11 -7.76253e-11 1.6139e-10 5e-05 1.46608e-10 
31 1 0.202744 0.0160498 0.00809737 0.00554247 -0.000282962 -0.000165189 5.30686e-11 5.52363e-11 -4.32747e-11 5e-05 1.46608e-10 
32 1 0.203184 0.0171147 0.00747268 0.00612481 -0.000301329 -0.000195765 6.86054e-11 -7.04064e-11 3.54111e-11 5e-05 1.46608e-10 
33 1 0.208949 0.0168334 0.00743674 0.00603339 -0.000757208 0.000292654 -1.83359e-11 3.52749e-12 4.96809e-12 5e-05 1.46608e-10 
34 1 0.202645 0.0156445 0.00837039 0.00556717 -3.02541e-05 0.000299468 -1.2519e-10 2.01501e-10 2.46705e-11 5e-05 1.46608e-10 
35 1 0.20336 0.0174138 0.00729407 0.00613624 -0.000411231 -0.000134732 1.32946e-11 -8.68551e-11 7.07298e-11 5e-05 1.46608e-10 
36 1 0.20912 0.0175505 0.00715432 0.00607135 -0.000692194 0.000389217 -4.90888e-15 7.56875e-13 -4.13707e-13 5e-05 1.46608e-10 
37 1 0.203392 0.0184131 0.00690846 0.00561696 -0.000195699 0.000268144 3.85114e-11 -1.21326e-10 2.7126e-11 5e-05 1.46608e-10 
38 1 0.203452 0.0187064 0.00688839 0.00565725 -0.000252749 0.000272761 8.10674e-11 2.73585e-10 -9.16629e-11 5e-05 1.46608e-10 
39 1 0.209163 0.0177381 0.00710032 0.00605489 -0.000688947 0.000387763 -6.93557e-14 1.276e-12 -3.61778e-13 5e-05 1.46608e-10 
41 1 0.203592 0.0180419 0.00694625 0.00572943 -0.000117603 0.000271302 2.45338e-10 3.01391e-11 6.9847e-11 5e-05 1.46608e-10 
42 1 0.321436 0.0173475 0.00552525 4.52443e-16 2.25647e-15 8.4636e-14 -3.65413e-23 1.05142e-23 -2.06795e-25 5e-05 1.46608e-10 
44 1 0.203481 0.0179246 0.00699981 0.00590356 -0.000427196 -0.000105047 3.23722e-10 -1.87818e-10 8.4406e-11 5e-05 1.46608e-10 
45 1 0.20897 0.0169104 0.00737645 0.00607723 -0.000730207 0.000342561 2.48737e-11 9.30074e-12 -5.6823e-12 5e-05 1.46608e-10 
47 1 0.202611 0.0155129 0.00851349 0.00579247 -0.00017116 0.000239692 9.80411e-11 2.42118e-10 -3.44859e-11 5e-05 1.46608e-10 
48 1 0.203432 0.0186087 0.00689506 0.00564617 -0.000230773 0.000272245 -6.61127e-11 3.60952e-10 -2.71442e-11 5e-05 1.46608e-10 
50 1 0.20278 0.0162201 0.0079995 0.00553126 -0.000278268 -0.000165986 4.04276e-10 -1.87991e-10 -1.86997e-11 5e-05 1.46608e-10 
51 1 0.202759 0.0161378 0.00805254 0.00549952 -0.000273199 -0.000166104 2.49244e-10 -3.18808e-11 -1.66698e-10 5e-05 1.46608e-10 
52 1 0.196578 0.0155002 0.00869902 0.00572957 0.000602326 0.000401346 -3.50248e-11 6.61976e-12 -3.63447e-10 5e-05 1.46608e-10 
53 1 0.209098 0.0174567 0.00718132 0.00607958 -0.000693816 0.000389949 3.4786e-14 5.21852e-13 2.41592e-13 5e-05 1.46608e-10 
54 1 0.203278 0.0182829 0.0069134 0.00556371 -0.000197032 0.000260363 -1.76667e-10 -2.75889e-10 3.93308e-11 5e-05 1.46608e-10 
55 1 0.196519 0.0153816 0.00896823 0.00582503 0.000611622 0.000490398 1.72969e-10 2.60392e-10 -5.27173e-10 5e-05 1.46608e-10 
56 1 0.203412 0.0185109 0.00690176 0.00563178 -0.00020276 0.000269196 -1.81229e-10 -3.58321e-10 1.23418e-13 5e-05 1.46608e-10 
57 1 0.20899 0.0169876 0.00731633 0.00612069 -0.000701242 0.000393238 -4.59088e-11 7.84149e-12 -7.51237e-12 5e-05 1.46608e-10 
59 1 0.203292 0.0175383 0.00722817 0.00614114 -0.000432597 -0.00012514 6.57741e-11 -4.2834e-11 1.63806e-11 5e-05 1.46608e-10 
61 1 0.203066 0.0170052 0.00754122 0.00594513 -0.000420307 -0.00011792 -1.16796e-11 -3.18162e-10 1.76874e-10 5e-05 1.46608e-10 
62 1 0.203677 0.0185091 0.00691382 0.00563614 -0.000293788 0.000276387 2.70713e-10 2.05811e-10 -3.63267e-12 5e-05 1.46608e-10 
63 1 0.203518 0.0176936 0.0071274 0.0061169 -0.00040361 -0.000138348 5.03282e-10 -3.56535e-11 -3.08953e-11 5e-05 1.46608e-10 
64 1 0.209184 0.0178322 0.00707318 0.00553536 -0.000590493 0.000342893 1.46376e-12 7.12175e-13 -1.76892e-13 5e-05 1.46608e-10 
65 1 0.196824 0.0163403 0.00778461 0.00551116 0.000150413 0.000190332 -6.52639e-10 9.8744e-11 -8.79667e-11 5e-05 1.46608e-10 
66 1 0.196498 0.015342 0.00905747 0.00588631 0.000604518 0.000530595 1.05955e-10 2.48272e-10 -5.92503e-10 5e-05 1.46608e-10 
67 1 0.203428 0.0181522 0.00693421 0.00561609 -0.000230189 0.000172692 -1.3982e-10 -7.7235e-11 -4.28436e-12 5e-05 1.46608e-10 
68 1 0.203227 0.0172839 0.00737501 0.00616438 -0.000279472 -0.000210254 -8.83033e-11 9.75527e-11 -5.04024e-11 5e-05 1.46608e-10 
69 1 0.203298 0.0183808 0.00690669 0.00561006 -0.000148163 0.000265773 4.8931e-11 1.51805e-10 -1.08975e-11 5e-05 1.46608e-10 
70 1 0.209033 0.0171752 0.00726233 0.00610422 -0.000698769 0.000392134 2.83854e-13 -2.53971e-12 2.34264e-12 5e-05 1.46608e-10 
71 1 0.196558 0.0154605 0.00878862 0.0057543 0.000623992 0.000426894 -3.77125e-11 6.51856e-11 -2.91748e-10 5e-05 1.46608e-10 
72 1 0.203333 0.0181197 0.00692855 0.0058408 -0.000227392 0.000280697 6.46371e-12 4.93629e-11 1.7164e-11 5e-05 1.46608e-10 
73 1 0.203357 0.0186743 0.0068866 0.00564197 -0.000236515 0.000272845 8.21725e-11 6.59194e-10 -3.8717e-11 5e-05 1.46608e-10 
74 1 0.203487 0.0184452 0.00691023 0.00561732 -0.000232483 0.000271004 1.33917e-10 -8.9737e-11 2.73966e-11 5e-05 1.46608e-10 
76 1 0.197541 0.0182797 0.00689959 0.00569567 5.01344e-05 6.58827e-05 1.75217e-11 3.57676e-11 3.10894e-12 5e-05 1.46608e-10 
77 1 0.203382 0.0174984 0.00724525 0.00614978 -0.000415273 -0.000132528 -1.186e-11 -6.13037e-11 3.35995e-11 5e-05 1.46608e-10 
78 1 0.197296 0.0183777 0.00688117 0.00570214 0.000119967 5.49101e-05 5.16415e-11 4.6583e-11 -5.54633e-12 5e-05 1.46608e-10 
79 1 0.196614 0.0155849 0.00852154 0.00567633 0.000602775 0.000388467 1.22824e-10 1.62834e-11 -3.83574e-10 5e-05 1.46608e-10 
80 1 0.203537 0.0182052 0.0069311 0.00563282 -0.000169056 0.000265294 -6.83015e-11 -1.60223e-10 1.49268e-11 5e-05 1.46608e-10 
81 1 0.19743 0.0186036 0.00684772 0.00575201 7.56753e-05 6.29679e-05 1.44156e-11 -2.75117e-11 2.87843e-11 5e-05 1.46608e-10 
82 1 0.196668 0.0157313 0.00827053 0.00560138 -0.000167528 -0.000161087 -9.03909e-11 -7.18572e-12 -1.46775e-10 5e-05 1.46608e-10 
83 1 0.197352 0.0182158 0.0069071 0.0056713 9.99804e-05 5.71886e-05 -2.71183e-11 -3.56504e-11 -3.58057e-12 5e-05 1.46608e-10 
84 1 0.209077 0.0173629 0.00720832 0.00608782 -0.000695418 0.000390702 5.64096e-13 8.24382e-13 -3.47215e-13 5e-05 1.46608e-10 
85 1 0.197541 0.0178311 0.00697405 0.00583654 1.41654e-06 -6.63e-05 6.87076e-10 -7.98845e-10 -1.53177e-10 5e-05 1.46608e-10 
86 1 0.203612 0.0181397 0.00693956 0.00568651 -0.000108668 0.000268 1.07848e-10 2.40496e-11 7.55441e-11 5e-05 1.46608e-10 
87 1 0.203527 0.0186408 0.00689686 0.00566128 -0.000259053 0.000274792 1.83824e-10 2.49896e-10 -5.6843e-12 5e-05 1.46608e-10 
88 1 0.202949 0.0168966 0.00760923 0.00590709 -0.000414317 -0.000118865 9.20974e-11 -2.26723e-11 4.91431e-12 5e-05 1.46608e-10 
89 1 0.203507 0.018543 0.00690354 0.00563101 -0.000241642 0.000272473 -2.78126e-10 1.2624e-10 -1.46467e-11 5e-05 1.46608e-10 
90 1 0.203372 0.0178795 0.00703161 0.00604984 -0.000404293 -0.000152171 5.0359e-11 -4.06353e-10 -1.70404e-10 5e-05 1.46608e-10 
91 1 0.19758 0.0180241 0.0069399 0.005582 -2.36025e-05 7.59691e-05 -1.87704e-10 -4.71932e-11 1.27838e-11 5e-05 1.46608e-10 
92 1 0.203467 0.0183474 0.00691693 0.00561253 -0.000223355 0.000270421 2.90229e-10 -9.74157e-11 1.44362e-11 5e-05 1.46608e-10 
93 1 0.202821 0.0163892 0.007902 0.00577986 -0.000325492 -0.000163023 3.00394e-11 -1.80574e-10 9.09257e-11 5e-05 1.46608e-10 
94 1 0.203258 0.0177678 0.00710117 0.00611083 -0.000459734 -9.77138e-05 3.39053e-12 -1.60094e-10 1.03321e-11 5e-05 1.46608e-10 
95 1 0.203217 0.0175976 0.00719931 0.00612048 -0.000450173 -0.000110501 8.19912e-11 -1.85941e-10 9.58384e-11 5e-05 1.46608e-10 
96 1 0.202842 0.0164745 0.007854 0.00582176 -0.000329369 -0.000161726 -8.14505e-11 -1.75249e-10 3.82079e-11 5e-05 1.46608e-10 
97 1 0.19694 0.0164589 0.00773433 0.00573281 9.77152e-05 0.000237157 3.13638e-11 -2.34818e-11 -1.40202e-11 5e-05 1.46608e-10 
98 1 0.203353 0.0177936 0.00708106 0.00611118 -0.000415288 -0.000121742 4.09456e-11 -2.09347e-10 5.66945e-11 5e-05 1.46608e-10 
99 1 0.197046 0.0168919 0.0075087 0.00611078 -0.000211432 -0.000183177 3.86685e-11 -1.34219e-10 7.30396e-11 5e-05 1.46608e-10 
100 1 0.203582 0.0184772 0.00691203 0.00562497 -0.000262796 0.000273465 1.83654e-10 1.0075e-10 -1.56049e-11 5e-05 1.46608e-10 
101 1 0.196631 0.0156179 0.0084287 0.00558525 0.000625042 0.000380786 2.58505e-11 8.9038e-12 -3.06423e-10 5e-05 1.46608e-10 
102 1 0.0643568 0.0187248 0.00531097 4.31002e-15 1.04388e-14 8.29654e-14 2.88608e-23 1.99971e-22 -2.99853e-23 5e-05 1.46608e-10 
103 1 0.24257 0.0191927 0.00520306 -1.01195e-22 -1.27651e-22 1.23839e-22 0 0 0 5e-05 1.46608e-10 
104 1 0.197255 0.0177452 0.00702986 0.00572671 1.15383e-05 -7.02036e-05 -2.7858e-10 5.89934e-11 3.27813e-10 5e-05 1.46608e-10 
105 1 0.197621 0.017763 0.00700977 0.00454585 0.00512051 -0.00294274 1.62594e-10 -2.27014e-11 4.56147e-11 5e-05 1.46608e-10 
106 1 0.197483 0.0175713 0.00711912 0.00578748 -9.36872e-05 -8.5578e-05 9.01119e-11 -1.42548e-10 4.98093e-11 5e-05 1.46608e-10 
107 1 0.197464 0.0174856 0.00716699 0.00583732 -2.42961e-05 -0.000126355 -4.23701e-11 -1.24462e-10 8.10774e-11 5e-05 1.46608e-10 
108 1 0.203317 0.0184787 0.00689999 0.00560395 -0.000214765 0.0002694 4.28946e-11 7.88458e-11 -8.72525e-12 5e-05 1.46608e-10 
109 1 0.203499 0.0176086 0.00717634 0.0061356 -0.000403924 -0.000138423 -9.69174e-12 1.71016e-11 -8.96299e-12 5e-05 1.46608e-10 
110 1 0.202869 0.0165572 0.00780476 0.00583396 -0.000340455 -0.000155488 7.61918e-11 -1.25165e-10 6.15733e-11 5e-05 1.46608e-10 
111 1 0.203195 0.017513 0.00724813 0.0060863 -0.000448659 -0.000111081 1.20554e-10 -1.02728e-10 8.52884e-11 5e-05 1.46608e-10 
112 1 0.197312 0.018022 0.00693683 0.00589206 4.58085e-05 7.10127e-05 -1.78739e-10 5.80215e-11 9.68622e-11 5e-05 1.46608e-10 
113 1 0.196907 0.0166943 0.00761814 0.00606011 -0.000213795 -0.00024661 2.2479e-11 -9.94109e-11 -2.77654e-11 5e-05 1.46608e-10 
114 1 0.197276 0.0182807 0.00689602 0.00566924 9.90866e-05 5.79679e-05 5.51468e-11 1.19554e-10 -1.47051e-11 5e-05 1.46608e-10 
115 1 0.203443 0.0177529 0.00709859 0.00611018 -0.000405055 -0.000138809 2.61299e-10 -1.04366e-10 1.12332e-10 5e-05 1.46608e-10 
116 1 0.203257 0.0181846 0.00692012 0.00583411 -0.00022327 0.000273965 -3.63083e-11 -5.42237e-11 -3.15459e-11 5e-05 1.46608e-10 
117 1 0.203397 0.0188705 0.00689111 0.00551355 -0.000248089 -0.000138608 1.25036e-10 3.28475e-10 -1.46664e-10 5e-05 1.46608e-10 
118 1 0.197123 0.0175465 0.00714149 0.00591376 -0.000101843 -8.5178e-05 -1.27387e-10 -9.27615e-11 5.16301e-11 5e-05 1.46608e-10 
119 1 0.203403 0.017583 0.00719644 0.0061529 -0.000412894 -0.000133647 -4.31901e-11 -5.83591e-11 4.64095e-11 5e-05 1.46608e-10 
120 1 0.202701 0.0158807 0.00819511 0.00561595 -0.000288746 -0.000112714 2.17419e-10 -8.39309e-11 -2.13228e-10 5e-05 1.46608e-10 
121 1 0.202623 0.0155677 0.0084307 0.00567037 -9.0278e-05 0.000272384 6.17159e-11 1.80034e-10 -5.35074e-11 5e-05 1.46608e-10 
122 1 0.203152 0.0173438 0.00734582 0.00607905 -0.000368644 -0.000155279 -6.41763e-11 -6.78759e-11 4.11542e-11 5e-05 1.46608e-10 
123 1 0.197079 0.0173761 0.00723682 0.0061691 -0.000167337 -5.68904e-05 9.37339e-11 -8.98926e-12 2.12504e-11 5e-05 1.46608e-10 
124 1 0.203174 0.0174284 0.00729697 0.00610594 -0.000383294 -0.000148629 -1.15553e-10 -5.1573e-11 3.41866e-11 5e-05 1.46608e-10 
125 1 0.203472 0.0188045 0.00688624 0.00561751 -0.000190778 -0.000149172 -7.01003e-11 3.33186e-11 -3.13775e-11 5e-05 1.46608e-10 
126 1 0.203088 0.0170899 0.00749236 0.00598648 -0.000381296 -0.000142317 -8.96739e-11 -3.22682e-11 2.74182e-11 5e-05 1.46608e-10 
127 1 0.197635 0.0178618 0.00696589 0.00571166 0.000323576 2.38198e-05 -4.16503e-10 1.47163e-10 -3.12295e-10 5e-05 1.46608e-10 
128 1 0.203131 0.0172592 0.00739464 0.00604516 -0.00038283 -0.000145245 -1.96296e-11 -9.45845e-11 5.64276e-11 5e-05 1.46608e-10 
129 1 0.203296 0.0179388 0.00700464 0.00598873 -0.000362372 6.09441e-05 2.30391e-11 -1.3367e-10 3.90424e-11 5e-05 1.46608e-10 
131 1 0.197503 0.0176572 0.00707117 0.00589225 -5.87407e-05 -0.000111898 -1.11243e-10 2.64202e-11 -5.36224e-11 5e-05 1.46608e-10 
132 1 0.203391 0.0179658 0.006982 0.00592164 -0.000343726 -5.15086e-05 1.87651e-10 -1.44278e-10 2.67571e-10 5e-05 1.46608e-10 
133 1 0.203164 0.0177425 0.00712106 0.00610923 -0.000457301 -0.000107454 6.80862e-12 -1.49312e-10 9.91716e-11 5e-05 1.46608e-10 
134 1 0.203109 0.0171746 0.00744346 0.00603118 -0.000387602 -0.00014144 1.50714e-11 -1.13356e-10 6.41031e-11 5e-05 1.46608e-10 
135 1 0.202515 0.0153705 0.0089825 0.00589682 -0.000335689 0.000199433 -2.81242e-11 1.52091e-12 -8.46526e-11 5e-05 1.46608e-10 
136 1 0.197335 0.0185716 0.00685148 0.00575602 9.58103e-05 5.98696e-05 -3.76587e-11 -3.17447e-11 -6.2462e-12 5e-05 1.46608e-10 
137 1 0.202807 0.0163045 0.00795294 0.00566561 -0.000316206 -0.000166982 -2.18568e-11 -1.22529e-10 8.83931e-11 5e-05 1.46608e-10 
138 1 0.203236 0.0180847 0.00692692 0.00584415 -0.000128199 0.000272647 -2.65048e-11 -4.97248e-11 3.69031e-12 5e-05 1.46608e-10 
140 1 0.203334 0.0177085 0.00713001 0.00612349 -0.000443441 -0.000113455 5.29478e-12 -1.34467e-10 6.04159e-11 5e-05 1.46608e-10 
141 1 0.197332 0.0181188 0.00692195 0.00563904 0.000102167 5.57158e-05 1.57478e-12 -6.87273e-11 6.74149e-11 5e-05 1.46608e-10 
142 1 0.197058 0.0172909 0.00728448 0.00618062 -0.00016238 -5.84908e-05 4.08501e-11 -6.17645e-11 3.0267e-11 5e-05 1.46608e-10 
143 1 0.196539 0.015421 0.0088785 0.00577372 0.000621881 0.000447233 5.0297e-11 1.52062e-10 -4.35635e-10 5e-05 1.46608e-10 
144 1 0.197177 0.0178041 0.00699771 0.00581799 -6.08201e-05 -0.000148293 9.33389e-11 5.25901e-11 -9.07301e-10 5e-05 1.46608e-10 
147 1 0.197391 0.0184097 0.00687741 0.00572101 9.23884e-05 5.96162e-05 1.3408e-11 -1.75164e-11 1.48883e-11 5e-05 1.46608e-10 
148 1 0.197141 0.0169161 0.00748979 0.00612471 -0.000146125 -6.57468e-05 -1.16628e-10 -3.12173e-10 1.78984e-10 5e-05 1.46608e-10 
149 1 0.202971 0.0169814 0.00756074 0.00592999 -0.000426223 -0.000113766 1.12589e-10 -5.63957e-11 2.80898e-11 5e-05 1.46608e-10 
150 1 0.0100679 0.0201683 0.00551526 8.3841e-15 1.24613e-15 -8.48744e-14 9.48673e-24 -1.02926e-22 -4.1359e-25 5e-05 1.46608e-10 
151 1 0.197015 0.0171204 0.0073798 0.00613344 -0.000152084 -6.29624e-05 -2.20209e-11 -2.75305e-10 1.29479e-10 5e-05 1.46608e-10 
153 1 0.197374 0.0187656 0.00682258 0.00564567 8.51659e-05 -0.000121636 6.65927e-11 -5.71874e-11 -6.05037e-11 5e-05 1.46608e-10 
154 1 0.197141 0.0176324 0.00709356 0.0056977 -5.28182e-05 -0.000103315 1.10906e-10 9.81377e-11 1.83193e-11 5e-05 1.46608e-10 
155 1 0.197347 0.0173699 0.00723383 0.00619676 0.000128799 -0.00021994 -2.92408e-10 1.78082e-10 -9.14822e-11 5e-05 1.46608e-10 
156 1 0.197292 0.0179252 0.00695159 0.00585418 5.83395e-05 6.99697e-05 -4.65568e-11 7.85876e-11 -3.48168e-11 5e-05 1.46608e-10 
157 1 0.0219312 0.0187687 0.00551176 -3.82868e-14 8.16801e-14 2.9589e-13 -6.59599e-22 -4.42335e-22 2.77106e-23 5e-05 1.46608e-10 
158 1 0.197522 0.0181828 0.00691444 0.00567111 5.27616e-05 6.53781e-05 8.54266e-11 7.5062e-11 1.52079e-12 5e-05 1.46608e-10 
159 1 0.203602 0.0185749 0.00690534 0.00565303 -0.000272164 0.000276675 2.25673e-10 1.41392e-10 9.64627e-12 5e-05 1.46608e-10 
160 1 0.197159 0.0177182 0.00704563 0.0057557 -4.18429e-05 -0.000102541 3.71017e-11 3.11558e-10 -3.81351e-10 5e-05 1.46608e-10 
162 1 0.197449 0.0187005 0.00683287 0.00563695 9.62326e-05 5.89305e-05 1.93237e-10 -4.54096e-11 9.66822e-11 5e-05 1.46608e-10 
164 1 0.197004 0.0167225 0.00760625 0.00610239 -0.000336389 -0.000404235 1.24148e-11 -2.02033e-10 -3.46946e-10 5e-05 1.46608e-10 
165 1 0.197349 0.0177733 0.00701058 0.00579435 -1.37051e-05 -0.000138906 -2.47403e-10 3.00182e-10 -2.48986e-10 5e-05 1.46608e-10 
166 1 0.203337 0.0185765 0.00689329 0.00564219 -0.000163449 0.000267376 -8.99774e-11 -4.47462e-10 3.35893e-11 5e-05 1.46608e-10 
168 1 0.197067 0.0169757 0.0074586 0.00612339 -0.000143628 -6.47345e-05 1.72286e-11 -1.53501e-10 1.14749e-10 5e-05 1.46608e-10 
169 1 0.197505 0.0185386 0.00685881 0.005741 6.93495e-05 6.28994e-05 -3.9167e-11 9.47267e-11 -4.91793e-12 5e-05 1.46608e-10 
170 1 0.197426 0.017714 0.00704174 0.00584886 -4.51233e-05 -4.17603e-05 -1.69079e-10 -1.7727e-11 -2.55108e-10 5e-05 1.46608e-10 
171 1 0.203218 0.0179984 0.00697412 0.00568642 -0.000321603 -0.000139806 -7.18823e-11 -3.95654e-11 6.7186e-11 5e-05 1.46608e-10 
172 1 0.197331 0.0176865 0.00705903 0.00582819 -2.0466e-05 -0.000133344 -1.61786e-10 -8.62825e-11 2.69425e-11 5e-05 1.46608e-10 
173 1 0.203517 0.0181074 0.00693779 0.00566094 -0.00017228 0.000257696 -9.1379e-11 -1.36247e-10 8.75826e-11 5e-05 1.46608e-10 
174 1 0.197368 0.0174565 0.00718541 0.00622945 0.000213954 -0.000267287 -2.12569e-10 2.49373e-11 -2.43562e-11 5e-05 1.46608e-10 
175 1 0.191034 0.01716 0.00726155 0.00621334 -0.000118886 -0.000144061 -1.72057e-10 1.05947e-10 -7.02774e-11 5e-05 1.46608e-10 
177 1 0.197185 0.0170867 0.00739438 0.00614378 -0.000141519 -7.00719e-05 -1.82206e-10 -1.07059e-10 8.63263e-11 5e-05 1.46608e-10 
178 1 0.19711 0.0171461 0.00736327 0.00613706 -0.000142278 -6.82578e-05 -6.3371e-11 -1.62275e-10 1.23889e-10 5e-05 1.46608e-10 
179 1 0.197197 0.0174873 0.00717245 0.00596801 -5.8896e-05 -0.00011084 -1.02577e-10 9.98734e-11 -6.14369e-11 5e-05 1.46608e-10 
181 1 0.197466 0.0183447 0.0068885 0.00570809 7.05508e-05 6.29663e-05 3.99361e-11 1.14175e-12 3.69842e-12 5e-05 1.46608e-10 
182 1 0.203182 0.0178277 0.00707204 0.00464068 -0.00014036 -0.000199959 -2.73082e-10 -7.79212e-11 5.55569e-11 5e-05 1.46608e-10 
183 1 0.197407 0.0176282 0.00708948 0.00583158 -6.48961e-05 -9.63841e-05 1.08838e-10 3.50713e-11 5.3101e-11 5e-05 1.46608e-10 
184 1 0.203238 0.0176823 0.00715043 0.00612565 -0.00043865 -0.000116642 -6.15359e-11 -1.85286e-10 1.12848e-10 5e-05 1.46608e-10 
186 1 0.196993 0.0170352 0.00742746 0.00613047 -0.000147865 -6.52265e-05 1.30398e-10 -1.54769e-10 7.48123e-11 5e-05 1.46608e-10 
187 1 0.203078 0.0174041 0.00731633 0.0060262 -0.000431882 -0.000116534 -3.64386e-11 -1.65576e-10 1.01365e-10 5e-05 1.46608e-10 
188 1 0.203205 0.0171993 0.00742386 0.00612362 -0.000297292 -0.00019786 1.43383e-11 -8.8403e-12 2.43613e-12 5e-05 1.46608e-10 
189 1 0.203408 0.0180541 0.00693702 0.00588234 -0.000185346 0.000287244 3.17638e-10 3.84086e-10 2.12772e-10 5e-05 1.46608e-10 
190 1 0.191313 0.0184642 0.00685443 0.00574894 4.75014e-05 -0.000128473 -1.18804e-11 2.72617e-11 -9.17564e-12 5e-05 1.46608e-10 
191 1 0.203248 0.0173687 0.00732607 0.00621584 -0.000282726 -0.000211496 -1.04802e-10 1.30348e-10 -6.7588e-11 5e-05 1.46608e-10 
192 1 0.197312 0.0176007 0.007107 0.00583016 -3.16747e-05 -0.000118258 7.69977e-11 -1.1104e-10 3.80131e-11 5e-05 1.46608e-10 
193 1 0.203423 0.0176679 0.00714753 0.00613287 -0.000412951 -0.000134254 -2.462e-12 -2.35395e-11 3.94759e-11 5e-05 1.46608e-10 
194 1 0.161461 0.0182058 0.00533758 1.4271e-15 -1.10231e-14 8.66688e-14 1.52961e-21 1.43748e-22 -7.03104e-24 5e-05 1.46608e-10 
195 1 0.197502 0.0180858 0.00692929 0.00565451 7.15632e-05 6.23543e-05 -2.02667e-11 1.47439e-10 -3.58975e-11 5e-05 1.46608e-10 
196 1 0.1969 0.0162809 0.00781624 0.00561677 0.000105333 0.000202742 -5.0829e-11 6.39212e-11 3.78427e-11 5e-05 1.46608e-10 
197 1 0.191097 0.0174253 0.00714257 0.00559509 0.000139364 8.84576e-05 7.8033e-11 -1.55331e-10 7.17672e-11 5e-05 1.46608e-10 
198 1 0.197354 0.0186685 0.00683664 0.00577145 8.13834e-05 6.28954e-05 2.19999e-11 6.88248e-12 -1.04795e-11 5e-05 1.46608e-10 
199 1 0.197257 0.0181837 0.00691087 0.00563027 8.21489e-05 5.9352e-05 4.99143e-11 1.35163e-10 -2.74543e-11 5e-05 1.46608e-10 
201 1 0.196885 0.016607 0.00766185 0.00606318 4.78314e-05 0.000263354 -1.69805e-10 -7.89799e-11 6.21996e-12 5e-05 1.46608e-10 
202 1 0.197387 0.0179567 0.00694791 0.00585952 4.46207e-05 7.05179e-05 -3.3541e-10 -3.90605e-11 -1.12115e-10 5e-05 1.46608e-10 
203 1 0.202885 0.0166433 0.00775654 0.00585569 -0.000357109 -0.000143371 1.69952e-10 -1.08872e-10 5.28567e-11 5e-05 1.46608e-10 
204 1 0.196595 0.0155393 0.00860857 0.00566669 0.000597901 0.000384816 3.72845e-11 5.3015e-15 -4.29882e-10 5e-05 1.46608e-10 
205 1 0.197463 0.0178919 0.00695897 0.00582564 3.68506e-05 6.98686e-05 -4.96628e-11 -1.66668e-10 1.63738e-10 5e-05 1.46608e-10 
206 1 0.19696 0.0165478 0.00769329 0.0059146 6.13795e-05 0.000258254 2.31157e-10 -2.4464e-11 2.38499e-11 5e-05 1.46608e-10 
207 1 0.197089 0.0170609 0.00741094 0.00613086 -0.000145394 -6.69954e-05 -1.30216e-10 -1.75486e-10 8.14613e-11 5e-05 1.46608e-10 
208 1 0.197273 0.017833 0.00698534 0.00578761 5.24467e-05 2.86236e-05 -2.83264e-10 1.66785e-10 3.0528e-10 5e-05 1.46608e-10 
209 1 0.19395 0.0170871 0.00729592 0.00583226 0.000611854 -1.06994e-05 -9.81697e-13 8.2045e-13 -4.35052e-13 5e-05 1.46608e-10 
210 1 0.203121 0.0175733 0.00721869 0.00608221 -0.000449266 -0.000110305 -9.57635e-11 -2.24321e-10 1.2257e-10 5e-05 1.46608e-10 
211 1 0.203057 0.0173195 0.00736514 0.00600625 -0.000431442 -0.000115544 -9.52418e-11 -1.83018e-10 1.06804e-10 5e-05 1.46608e-10 
212 1 0.197407 0.0180538 0.00693304 0.00563493 0.000100301 5.62598e-05 9.88977e-11 4.45858e-11 9.37808e-12 5e-05 1.46608e-10 
213 1 0.203373 0.0183153 0.00691516 0.00561466 -0.000186027 0.000267729 4.50285e-12 -5.10354e-12 -1.811e-11 5e-05 1.46608e-10 
214 1 0.202992 0.0170658 0.0075116 0.00594187 -0.000428823 -0.000113136 7.19055e-11 -9.81552e-11 4.10775e-11 5e-05 1.46608e-10 
215 1 0.191294 0.0183706 0.00688423 0.00569692 5.11685e-05 -0.000129631 -1.62516e-10 5.57639e-11 -1.90038e-11 5e-05 1.46608e-10 
216 1 0.197367 0.0178597 0.00696274 0.00580488 7.36433e-06 7.2892e-05 -2.70177e-10 4.32869e-10 2.99045e-12 5e-05 1.46608e-10 
217 1 0.203377 0.0187725 0.00689054 0.00564708 -0.00026512 0.000199625 7.93021e-12 1.56532e-10 -8.16674e-11 5e-05 1.46608e-10 
218 1 0.196688 0.0158014 0.00820192 0.0056027 -0.000155151 -0.000156569 -2.17126e-10 1.10239e-10 -1.2285e-10 5e-05 1.46608e-10 
219 1 0.202928 0.0168122 0.00765842 0.0058882 -0.000398366 -0.000126963 -2.07186e-11 -3.27706e-11 1.75054e-11 5e-05 1.46608e-10 
220 1 0.197482 0.0179888 0.00694414 0.00562195 8.69856e-05 5.82409e-05 -4.66304e-11 -1.987e-11 1.45037e-11 5e-05 1.46608e-10 
221 1 0.25712 0.017573 0.00706966 0.00602362 -0.00121381 0.000431688 5.25056e-13 -1.26972e-13 2.28229e-16 5e-05 1.46608e-10 
222 1 0.203448 0.0182496 0.00692363 0.00560788 -0.000210692 0.00026844 -9.19645e-12 -6.8181e-11 -3.06848e-11 5e-05 1.46608e-10 
223 1 0.197237 0.0176588 0.00707664 0.00583211 -3.50155e-05 -0.000107034 -1.27229e-10 -1.31574e-10 1.89624e-10 5e-05 1.46608e-10 
224 1 0.0773527 0.0178815 0.00778032 -0.000249216 -0.0178449 0.00553017 3.02955e-11 -2.18654e-10 8.54558e-11 5e-05 1.46608e-10 
225 1 0.20327 0.0174537 0.007277 0.00611864 -0.000424772 -0.000125248 1.04187e-10 -1.81209e-10 4.33937e-11 5e-05 1.46608e-10 
226 1 0.197036 0.0172056 0.00733214 0.0061537 -0.000154381 -6.23356e-05 -1.22926e-10 -2.10331e-10 1.17166e-10 5e-05 1.46608e-10 
227 1 0.191237 0.0180898 0.00697359 0.00585419 3.36388e-05 -0.000127272 -4.8696e-11 -2.41639e-11 -6.7881e-11 5e-05 1.46608e-10 
228 1 0.191058 0.0172461 0.00721639 0.00593985 1.30575e-05 -1.97369e-05 6.02801e-11 -1.95717e-11 -4.6155e-11 5e-05 1.46608e-10 
229 1 0.197446 0.0182478 0.00690335 0.00568701 7.39091e-05 6.20921e-05 5.28282e-12 -1.97609e-11 -1.4825e-11 5e-05 1.46608e-10 
230 1 0.196843 0.0164294 0.00774353 0.00581959 9.56182e-05 0.000232898 -2.73546e-10 -6.01012e-12 -2.95375e-11 5e-05 1.46608e-10 
231 1 0.191013 0.0170777 0.00731401 0.00624633 -0.000162805 -0.00019451 -7.811e-11 -3.37649e-11 -3.37595e-11 5e-05 1.46608e-10 
232 1 0.197237 0.0180868 0.00692571 0.00589485 2.93726e-05 7.03026e-05 -5.12781e-11 1.16417e-10 -3.48501e-11 5e-05 1.46608e-10 
234 1 0.203315 0.018027 0.00696124 0.00589759 -0.00027793 0.000204228 1.4281e-10 -1.46913e-11 2.47311e-11 5e-05 1.46608e-10 
235 1 0.197445 0.0178005 0.00699521 0.00581602 1.00845e-05 2.85119e-05 -2.80712e-10 1.9483e-10 -1.01465e-10 5e-05 1.46608e-10 
236 1 0.196805 0.0162512 0.0078257 0.00561842 0.000128802 0.00020924 1.1041e-10 -1.5364e-11 2.79201e-10 5e-05 1.46608e-10 
237 1 0.196766 0.0160875 0.00793384 0.00566586 -0.000232415 -0.000221392 1.61027e-10 1.67353e-10 -2.37936e-10 5e-05 1.46608e-10 
239 1 0.190844 0.0164525 0.00778377 0.00601875 -0.00012809 -0.000208003 -4.75462e-11 6.42811e-11 -3.38337e-11 5e-05 1.46608e-10 
240 1 0.190865 0.0165307 0.00772505 0.00604016 -0.000141395 -0.000200104 2.99531e-10 1.51184e-12 1.37562e-12 5e-05 1.46608e-10 
241 1 0.190929 0.016765 0.00754895 0.00612278 -0.000145209 -0.000199534 4.6599e-10 2.88959e-11 -6.77842e-11 5e-05 1.46608e-10 
242 1 0.197101 0.0174613 0.00718915 0.00602986 -0.000132329 -7.29751e-05 1.40783e-10 -2.53997e-11 1.92253e-11 5e-05 1.46608e-10 
244 1 0.190886 0.0166088 0.00766633 0.00604713 -0.000133244 -0.000205781 -2.55392e-10 -1.09248e-10 4.79072e-11 5e-05 1.46608e-10 
246 1 0.190992 0.0169994 0.0073728 0.00623461 -0.000157761 -0.0001973 3.35915e-10 -9.81397e-11 3.86635e-11 5e-05 1.46608e-10 
247 1 0.197636 0.0183117 0.00689584 0.00569786 3.12876e-05 6.87757e-05 -3.95581e-12 -1.46018e-10 2.61452e-11 5e-05 1.46608e-10 
248 1 0.196864 0.0165183 0.00770262 0.00604605 4.94767e-05 0.000264089 -2.20133e-11 -9.84729e-11 3.01755e-11 5e-05 1.46608e-10 
249 1 0.191275 0.018277 0.00691402 0.0056521 5.80767e-05 -0.000129919 4.82916e-11 6.15556e-11 1.46627e-11 5e-05 1.46608e-10 
250 1 0.197163 0.0170015 0.00744205 0.00611773 -0.000148215 -6.49952e-05 -2.15082e-11 -9.90008e-11 5.52513e-11 5e-05 1.46608e-10 
251 1 0.202908 0.0167271 0.00770697 0.00587652 -0.000381266 -0.000136137 2.98769e-11 -6.26031e-11 4.11616e-11 5e-05 1.46608e-10 
252 1 0.191137 0.0176157 0.0070958 0.00573409 0.000111723 9.603e-05 2.58558e-11 6.72301e-11 -4.30678e-12 5e-05 1.46608e-10 
253 1 0.191333 0.0185621 0.0068504 0.00576368 5.44239e-05 7.05908e-05 1.73356e-11 3.85035e-11 3.76942e-12 5e-05 1.46608e-10 
254 1 0.19097 0.0169214 0.00743145 0.00621224 -0.000163312 -0.000193244 -2.66898e-10 3.11781e-11 -3.29828e-11 5e-05 1.46608e-10 
255 1 0.197196 0.0178927 0.0069554 0.00587969 5.21795e-05 8.08436e-05 2.42585e-10 -1.48599e-10 -3.33033e-10 5e-05 1.46608e-10 
256 1 0.197293 0.0175149 0.00715492 0.00603772 4.58095e-05 -0.000172557 -2.61995e-10 -4.64803e-11 5.42932e-11 5e-05 1.46608e-10 
257 1 0.19725 0.0173427 0.00725122 0.00618885 7.23343e-05 -0.000188193 7.32369e-11 2.0745e-10 -1.12577e-10 5e-05 1.46608e-10 
258 1 0.197154 0.0173166 0.00726794 0.00620387 -0.000124473 -8.13084e-05 3.60876e-10 -7.24427e-11 8.71952e-11 5e-05 1.46608e-10 
259 1 0.191157 0.0177108 0.00707247 0.00572451 0.000118355 9.44711e-05 1.80605e-10 -2.35506e-12 -7.94459e-12 5e-05 1.46608e-10 