ITEM: TIMESTEP
25400000
ITEM: NUMBER OF ATOMS
271
ITEM: BOX BOUNDS ff ff ff
-0.02 0.43
-0.02 0.06
-0.02 0.07
ITEM: ATOMS id type x y z vx vy vz fx fy fz radius mass 
1 1 0.160742 0.0160143 0.00814231 0.00578718 -0.000348502 0.00088642 6.59911e-10 -5.69088e-11 7.06949e-11 5e-05 1.46608e-10 
2 1 0.161293 0.0174329 0.00728722 0.00553504 -0.000670334 0.000539382 -7.20636e-11 2.63662e-11 -1.68359e-11 5e-05 1.46608e-10 
3 1 0.155254 0.0165287 0.00760683 0.0064489 0.000729968 -0.000112133 -5.4393e-12 -4.78139e-11 6.00048e-11 5e-05 1.46608e-10 
4 1 0.161092 0.0168271 0.00753688 0.00603989 -0.000790477 0.000623206 6.35703e-11 -6.73447e-12 -1.02405e-10 5e-05 1.46608e-10 
5 1 0.160721 0.0159525 0.00821815 0.00576064 -0.000340473 0.000879579 -1.97865e-10 -4.69469e-12 -2.68104e-10 5e-05 1.46608e-10 
6 1 0.166865 0.0164374 0.00775493 0.00572079 -0.00154074 0.00123523 2.97768e-11 -1.21388e-11 5.09532e-12 5e-05 1.46608e-10 
7 1 0.160826 0.0162653 0.00784273 0.00600978 -0.000369668 0.000942025 -3.99285e-11 1.85877e-10 -1.35482e-10 5e-05 1.46608e-10 
8 1 0.160701 0.0158905 0.00829405 0.00570967 -0.000345692 0.000880306 -1.17658e-10 -2.82881e-12 -2.93654e-10 5e-05 1.46608e-10 
9 1 0.166986 0.0169155 0.00749097 0.00573973 -0.00154456 0.00122995 -3.50705e-13 -2.87118e-13 8.90639e-13 5e-05 1.46608e-10 
10 1 0.161237 0.0180212 0.00711648 0.0053791 -0.000656928 0.000527339 -2.11997e-11 -4.21218e-11 1.21533e-11 5e-05 1.46608e-10 
11 1 0.161313 0.0175274 0.00726165 0.00555264 -0.000676492 0.000543333 3.97123e-11 6.47251e-11 7.21016e-12 5e-05 1.46608e-10 
12 1 0.154721 0.0160024 0.00833503 0.00592569 0.000160834 -0.00101342 -1.14148e-10 -3.09076e-11 2.28212e-11 5e-05 1.46608e-10 
13 1 0.160642 0.0157047 0.00852196 0.00530393 -0.000338511 0.000835445 1.97692e-11 -3.06642e-12 -3.14013e-11 5e-05 1.46608e-10 
14 1 0.155325 0.0180403 0.00728537 0.00650685 0.000415723 -0.000807366 1.84668e-12 5.94523e-11 -8.25562e-12 5e-05 1.46608e-10 
15 1 0.161163 0.0168702 0.00743895 0.00607917 -0.000792555 0.000611434 -2.53905e-11 -3.80031e-11 -3.32402e-11 5e-05 1.46608e-10 
16 1 0.155426 0.0177111 0.0072863 0.00643606 0.000362011 -0.000796505 1.07164e-11 6.32734e-12 -2.35162e-12 5e-05 1.46608e-10 
17 1 0.161206 0.0170588 0.00738805 0.00599631 -0.000760939 0.000594979 2.41463e-10 1.86491e-11 3.49233e-11 5e-05 1.46608e-10 
19 1 0.160681 0.0158286 0.00836998 0.00555013 -0.000342318 0.000864766 -1.87452e-10 1.45801e-10 -2.99514e-10 5e-05 1.46608e-10 
21 1 0.161217 0.0179267 0.00714207 0.00557765 -0.000694783 0.000550226 3.72439e-12 -5.13294e-11 1.9769e-11 5e-05 1.46608e-10 
22 1 0.161184 0.0169646 0.00741348 0.00603395 -0.000776413 0.000601759 5.16105e-11 -6.69546e-13 -7.56323e-11 5e-05 1.46608e-10 
23 1 0.15491 0.0162643 0.00788115 0.00625863 0.000105157 -0.000948074 -1.40782e-10 4.51335e-11 6.33925e-11 5e-05 1.46608e-10 
24 1 0.16705 0.0172001 0.00742041 0.00565165 -0.00152899 0.00121336 -4.96833e-13 2.6021e-13 -1.64182e-13 5e-05 1.46608e-10 
25 1 0.16098 0.0164854 0.00760137 0.00605925 -0.00104772 0.00020563 -9.27941e-11 -2.96795e-10 1.23409e-10 5e-05 1.46608e-10 
26 1 0.166944 0.0167257 0.00753801 0.00579856 -0.00155463 0.00124089 -3.77312e-12 1.152e-12 -2.98471e-12 5e-05 1.46608e-10 
27 1 0.155234 0.0164378 0.00765125 0.00649168 0.000737008 -0.00011221 2.88638e-11 -1.27226e-10 5.17383e-12 5e-05 1.46608e-10 
28 1 0.161252 0.0172443 0.00733957 0.00559715 -0.00068156 0.000525874 -2.01924e-10 1.12354e-10 1.39814e-11 5e-05 1.46608e-10 
29 1 0.160842 0.0163236 0.00776312 0.00604085 -0.00037463 0.000943781 -3.88177e-11 -1.14044e-11 -9.63268e-11 5e-05 1.46608e-10 
30 1 0.161317 0.017965 0.00713751 0.00538334 -0.000657012 0.000527418 2.71616e-11 7.8903e-12 -2.14252e-12 5e-05 1.46608e-10 
31 1 0.161002 0.0165731 0.00755858 0.00607518 -0.00102612 0.000193985 -1.11874e-10 -1.94927e-10 1.5878e-10 5e-05 1.46608e-10 
32 1 0.161024 0.0166609 0.00751574 0.00609328 -0.000988683 0.000169384 -1.26684e-10 -3.68506e-11 2.86915e-11 5e-05 1.46608e-10 
33 1 0.166885 0.016484 0.00766883 0.00580842 -0.00155937 0.00124721 -7.98491e-11 -2.88134e-12 1.00732e-11 5e-05 1.46608e-10 
34 1 0.160802 0.0162001 0.00791463 0.00591873 -0.000361706 0.000930278 6.08653e-10 -2.29259e-11 1.29061e-10 5e-05 1.46608e-10 
35 1 0.160884 0.0164672 0.00763328 0.00607415 -0.000902375 0.000386619 8.43647e-12 1.03899e-10 -1.68956e-10 5e-05 1.46608e-10 
36 1 0.167028 0.0171052 0.00744393 0.00568099 -0.00153419 0.0012189 -2.51693e-14 -6.05058e-13 3.12867e-13 5e-05 1.46608e-10 
37 1 0.161414 0.0179999 0.0071337 0.00539216 -0.000636939 0.00052211 -1.1752e-10 -1.15039e-10 2.35157e-11 5e-05 1.46608e-10 
38 1 0.161528 0.0176907 0.00722881 0.0055785 -0.000726245 0.000559519 -7.24265e-12 -1.52624e-10 3.75707e-11 5e-05 1.46608e-10 
39 1 0.167106 0.0170477 0.00747073 0.005681 -0.00153417 0.00121889 -2.82028e-13 4.27824e-13 -1.32145e-13 5e-05 1.46608e-10 
41 1 0.161326 0.01718 0.00736117 0.00574999 -0.000514207 0.000509341 -2.11378e-10 1.55573e-10 3.8289e-11 5e-05 1.46608e-10 
42 1 0.321436 0.0173475 0.00552525 4.60967e-16 2.25459e-15 8.4636e-14 1.83854e-24 -2.0421e-24 0 5e-05 1.46608e-10 
44 1 0.161273 0.0173384 0.00731283 0.00549895 -0.000656886 0.000533317 -2.77715e-10 1.05785e-10 -1.51845e-11 5e-05 1.46608e-10 
45 1 0.166901 0.016536 0.00758505 0.00586181 -0.00156772 0.00125281 8.37537e-11 1.96141e-11 -2.53812e-11 5e-05 1.46608e-10 
47 1 0.160762 0.0160763 0.00806635 0.00582064 -0.000369288 0.0009071 -6.91278e-11 -1.98465e-10 1.67961e-10 5e-05 1.46608e-10 
48 1 0.161395 0.0179053 0.00715938 0.00535588 -0.000625716 0.000516366 -1.35957e-10 -5.52941e-11 2.42373e-12 5e-05 1.46608e-10 
50 1 0.160971 0.0168145 0.00745785 0.00606459 -0.000875946 0.000506237 -8.01567e-12 -2.78301e-11 -4.39256e-11 5e-05 1.46608e-10 
51 1 0.160949 0.0167237 0.00749376 0.00608023 -0.000968524 0.000291816 -1.37734e-11 -1.24854e-10 -1.09162e-11 5e-05 1.46608e-10 
52 1 0.154649 0.0158017 0.00867321 0.00462793 0.000349471 -0.00118646 -1.94249e-10 -3.58685e-11 1.05957e-10 5e-05 1.46608e-10 
53 1 0.16708 0.0168883 0.00751165 0.00574929 -0.0015165 0.00122347 -9.423e-14 -1.51264e-13 -1.5306e-13 5e-05 1.46608e-10 
54 1 0.161434 0.0180946 0.00710803 0.00544405 -0.000644799 0.000527714 2.53763e-11 -9.9573e-11 3.01015e-11 5e-05 1.46608e-10 
55 1 0.154587 0.0156522 0.0089258 0.00640093 7.05844e-05 -0.000906729 -1.09233e-10 1.11419e-10 -1.54028e-10 5e-05 1.46608e-10 
56 1 0.161489 0.0179378 0.00715612 0.00538024 -0.000643911 0.000523504 -9.25201e-11 -1.817e-10 4.69781e-11 5e-05 1.46608e-10 
57 1 0.166923 0.0166309 0.00756153 0.0058275 -0.00156031 0.00124648 -1.14012e-11 -1.6663e-11 6.42923e-12 5e-05 1.46608e-10 
59 1 0.161302 0.0170861 0.00738638 0.00593927 -0.000563857 0.000535058 3.43909e-10 2.73095e-11 1.93019e-12 5e-05 1.46608e-10 
61 1 0.160863 0.0163865 0.00768807 0.00607671 -0.000649532 0.000725347 -3.10295e-10 1.17201e-10 -7.50757e-11 5e-05 1.46608e-10 
62 1 0.161483 0.0174964 0.00728117 0.00554509 -0.000670252 0.000542221 2.62386e-10 1.2396e-10 -4.01677e-11 5e-05 1.46608e-10 
63 1 0.16112 0.016685 0.00749962 0.00608962 -0.00097559 0.00016646 -1.0931e-10 -5.94802e-11 3.58486e-11 5e-05 1.46608e-10 
64 1 0.167127 0.0171427 0.0074472 0.00565165 -0.001529 0.00121336 -4.44884e-13 -1.35763e-13 -2.21129e-14 5e-05 1.46608e-10 
65 1 0.154909 0.0165955 0.00766638 0.00642805 0.000710816 -9.15869e-05 2.99051e-11 2.89036e-11 2.68815e-12 5e-05 1.46608e-10 
66 1 0.154564 0.0156028 0.00900971 0.00631272 7.89444e-05 -0.000909221 1.33772e-11 1.06166e-10 -1.9723e-10 5e-05 1.46608e-10 
67 1 0.161388 0.0174648 0.00728416 0.00555107 -0.000668484 0.00054157 5.64792e-11 4.7682e-11 -3.49414e-11 5e-05 1.46608e-10 
68 1 0.161067 0.0168415 0.00744106 0.00605599 -0.000804751 0.000613593 2.14794e-11 8.40944e-11 -4.03606e-11 5e-05 1.46608e-10 
69 1 0.161377 0.0182511 0.00705997 0.00534646 -0.000625739 0.000516356 6.28836e-11 8.37246e-11 -1.82651e-11 5e-05 1.46608e-10 
70 1 0.166965 0.0168206 0.00751449 0.00576905 -0.00154975 0.00123555 1.35293e-12 2.04227e-12 -3.54593e-13 5e-05 1.46608e-10 
71 1 0.154627 0.0157518 0.00875724 0.00418482 0.000440817 -0.00124281 -6.63933e-11 -1.60712e-11 1.64946e-11 5e-05 1.46608e-10 
72 1 0.161374 0.017812 0.00718891 0.00561294 -0.000667717 0.000544807 9.69374e-12 -3.24592e-11 -2.34185e-11 5e-05 1.46608e-10 
73 1 0.161452 0.0181894 0.00708228 0.00536219 -0.000621335 0.00051577 1.544e-11 -8.13226e-11 2.43669e-11 5e-05 1.46608e-10 
74 1 0.161462 0.0174019 0.00730675 0.00553237 -0.000673851 0.000541446 -6.61264e-11 -5.85928e-11 -4.85885e-12 5e-05 1.46608e-10 
76 1 0.155271 0.0173877 0.0073181 0.00625607 0.000508318 -0.00078007 3.30707e-11 2.04148e-12 8.0256e-12 5e-05 1.46608e-10 
77 1 0.161012 0.0168896 0.00751551 0.00605058 -0.000838635 0.000608638 1.79864e-10 4.54296e-11 -3.04464e-11 5e-05 1.46608e-10 
78 1 0.155375 0.0178762 0.00728591 0.0064997 0.000404446 -0.000806161 5.56976e-11 1.18432e-10 -4.79241e-12 5e-05 1.46608e-10 
79 1 0.154682 0.0159023 0.0085036 0.00557344 0.000228398 -0.00106379 2.4664e-10 -1.00165e-10 1.63022e-10 5e-05 1.46608e-10 
80 1 0.161334 0.0174768 0.0073673 0.00553372 -0.000673414 0.000537828 1.88328e-10 -5.53811e-11 3.13751e-11 5e-05 1.46608e-10 
81 1 0.155292 0.0174858 0.0073117 0.00625176 0.000454487 -0.000777996 1.23281e-11 -5.97045e-11 1.15094e-11 5e-05 1.46608e-10 
82 1 0.154739 0.016053 0.00825075 0.00605144 0.000154353 -0.000990298 -3.09986e-11 -2.8034e-11 1.08729e-11 5e-05 1.46608e-10 
83 1 0.155332 0.0176814 0.00729899 0.00641512 0.000420317 -0.000796695 -2.5982e-11 3.22823e-11 -5.73734e-12 5e-05 1.46608e-10 
84 1 0.167007 0.0170103 0.00746745 0.00571039 -0.00153935 0.00122443 -4.40545e-13 -5.27268e-14 -5.76129e-13 5e-05 1.46608e-10 
85 1 0.155298 0.0167084 0.00751921 0.00637716 0.000714289 -0.000103994 1.17663e-11 3.26837e-11 -6.93001e-12 5e-05 1.46608e-10 
86 1 0.161347 0.0172749 0.00733555 0.00552157 -0.000469863 0.00048445 -3.30849e-10 2.63793e-10 -7.43741e-11 5e-05 1.46608e-10 
87 1 0.161652 0.0174652 0.00730077 0.00553445 -0.000668291 0.000539841 -1.17494e-10 1.00396e-10 -3.38764e-11 5e-05 1.46608e-10 
88 1 0.161139 0.0173973 0.00737666 0.00550898 -0.000560601 0.000521252 -1.00738e-10 -7.25964e-11 -2.82782e-11 5e-05 1.46608e-10 
89 1 0.161408 0.0175593 0.0072586 0.00555253 -0.000667654 0.000541017 1.2428e-10 9.46638e-11 -3.02816e-11 5e-05 1.46608e-10 
90 1 0.161367 0.0173703 0.00730975 0.00552101 -0.000689771 0.000544568 -1.79692e-10 -9.91704e-11 1.63189e-11 5e-05 1.46608e-10 
91 1 0.155278 0.0166204 0.00756216 0.00639524 0.000716865 -0.000100431 2.95581e-11 5.93959e-11 -4.68051e-11 5e-05 1.46608e-10 
92 1 0.161354 0.0177164 0.00721051 0.00552788 -0.000653385 0.000535496 1.44158e-10 -3.03163e-11 8.53236e-12 5e-05 1.46608e-10 
93 1 0.161014 0.0169982 0.00739312 0.00601792 -0.000805321 0.000612325 4.00979e-11 8.17446e-11 -4.50552e-11 5e-05 1.46608e-10 
94 1 0.161255 0.0176802 0.00721456 0.0055234 -0.00073509 0.000557791 9.301e-11 2.72448e-11 -7.07037e-12 5e-05 1.46608e-10 
95 1 0.16115 0.0175177 0.00733853 0.0055249 -0.00066083 0.000539514 8.15891e-11 1.53835e-10 -2.78028e-11 5e-05 1.46608e-10 
96 1 0.161035 0.0170926 0.00736764 0.00598824 -0.000792682 0.000605463 6.90685e-12 7.02328e-11 -3.17819e-11 5e-05 1.46608e-10 
97 1 0.155007 0.016278 0.00784676 0.00627212 6.02105e-05 -0.000870278 -3.62577e-11 1.97633e-11 -7.80741e-11 5e-05 1.46608e-10 
98 1 0.161236 0.0174391 0.00736939 0.00551633 -0.00060763 0.000517081 -3.99768e-11 2.6328e-11 -1.1987e-11 5e-05 1.46608e-10 
99 1 0.154933 0.0166828 0.00762377 0.00644774 0.000707306 -8.88356e-05 3.27197e-11 -9.93992e-11 8.85464e-12 5e-05 1.46608e-10 
100 1 0.161429 0.017654 0.0072337 0.00551767 -0.000661435 0.000535513 1.23618e-10 2.40086e-11 1.29013e-11 5e-05 1.46608e-10 
101 1 0.1547 0.0159524 0.00841902 0.00585237 0.000181401 -0.00102292 4.07023e-11 -4.38209e-11 9.0019e-11 5e-05 1.46608e-10 
102 1 0.0643568 0.0187248 0.00531097 4.56357e-15 1.04373e-14 8.29525e-14 2.10094e-21 -7.73647e-22 -1.55096e-23 5e-05 1.46608e-10 
103 1 0.24257 0.0191927 0.00520306 2.18379e-22 2.24983e-22 1.23839e-22 -3.23117e-27 0 0 5e-05 1.46608e-10 
104 1 0.155197 0.0174548 0.00732439 0.00622403 0.00054031 -0.000774215 -1.26801e-11 2.20746e-11 4.05216e-11 5e-05 1.46608e-10 
105 1 0.155119 0.0163405 0.00773025 0.00636235 2.29404e-05 -0.000829698 2.47738e-11 2.53498e-11 3.9796e-11 5e-05 1.46608e-10 
106 1 0.155063 0.0164748 0.00764821 0.00644013 0.000641317 -0.000143894 1.96624e-11 6.4988e-11 2.06997e-11 5e-05 1.46608e-10 
107 1 0.155025 0.0163281 0.0077622 0.00634655 4.93342e-05 -0.000863137 -5.52772e-11 -2.67374e-13 -8.55823e-11 5e-05 1.46608e-10 
108 1 0.161315 0.0184027 0.00705569 0.00528266 -0.000627368 0.000508345 -2.64368e-11 -5.12248e-11 -1.54912e-10 5e-05 1.46608e-10 
109 1 0.160927 0.0166344 0.0075331 0.00608145 -0.00102339 0.000195715 -8.9962e-11 -2.65137e-10 5.58759e-11 5e-05 1.46608e-10 
110 1 0.161056 0.017189 0.00738404 0.00596215 -0.000780898 0.000601854 -6.65924e-11 -1.95701e-11 7.99281e-12 5e-05 1.46608e-10 
111 1 0.161192 0.0173937 0.00729198 0.00550599 -0.000609286 0.000521198 -2.19615e-11 9.8987e-11 -2.55972e-11 5e-05 1.46608e-10 
112 1 0.155439 0.0173509 0.00729924 0.00625168 0.000456664 -0.000779373 4.15565e-11 -2.09064e-11 -3.76368e-12 5e-05 1.46608e-10 
113 1 0.155056 0.0168776 0.00742558 0.00633554 0.000701586 -9.61721e-05 7.70675e-11 -5.20299e-12 1.64063e-11 5e-05 1.46608e-10 
114 1 0.15525 0.0181063 0.00729182 0.00651175 0.000424378 -0.00080937 -3.4605e-11 8.37194e-12 8.81629e-12 5e-05 1.46608e-10 
115 1 0.161228 0.0171559 0.00738014 0.00596465 -0.000748476 0.000589025 5.4198e-11 4.67768e-11 2.86418e-11 5e-05 1.46608e-10 
116 1 0.161295 0.0183052 0.00703941 0.0053133 -0.000646643 0.000521515 1.82488e-11 9.33625e-11 -1.85274e-11 5e-05 1.46608e-10 
117 1 0.161557 0.0174335 0.00730378 0.00553611 -0.000670739 0.00054155 1.33021e-11 -9.14555e-11 3.71003e-11 5e-05 1.46608e-10 
118 1 0.155162 0.0177171 0.00731813 0.00604055 0.00061264 -0.00075989 2.40113e-12 1.68963e-11 -9.30632e-12 5e-05 1.46608e-10 
119 1 0.161141 0.016776 0.00746436 0.00610146 -0.000801424 0.000617868 -5.27534e-11 -9.35092e-11 3.49658e-13 5e-05 1.46608e-10 
120 1 0.160958 0.0164085 0.00766591 0.00619321 -0.000409406 0.000986395 9.94453e-11 -2.86949e-11 2.95501e-11 5e-05 1.46608e-10 
121 1 0.160784 0.0161379 0.00799092 0.00584807 -0.000366678 0.000914633 -2.93974e-10 -3.38049e-10 4.01081e-12 5e-05 1.46608e-10 
122 1 0.161031 0.0170835 0.00746714 0.00600568 -0.000802907 0.000605887 -3.50411e-11 2.30201e-10 -3.64441e-11 5e-05 1.46608e-10 
123 1 0.155123 0.0175214 0.00733076 0.00616492 0.000591983 -0.000773601 -5.6404e-12 4.4139e-11 2.35236e-11 5e-05 1.46608e-10 
124 1 0.16108 0.0173212 0.00740342 0.00571421 -0.000700731 0.000561931 -6.447e-11 -7.0203e-11 -1.40471e-11 5e-05 1.46608e-10 
125 1 0.161578 0.0175282 0.00727815 0.00551532 -0.000679783 0.00054191 -8.1054e-11 3.30822e-11 -1.10641e-11 5e-05 1.46608e-10 
126 1 0.160906 0.0165474 0.00757743 0.00607597 -0.00103263 0.000207327 3.48257e-11 -1.79703e-10 1.36123e-10 5e-05 1.46608e-10 
127 1 0.155138 0.0164103 0.00766116 0.00649252 0.00071065 -9.80949e-05 1.59584e-11 4.18901e-11 7.93724e-12 5e-05 1.46608e-10 
128 1 0.16111 0.0170306 0.00739 0.00600232 -0.000779201 0.000601772 1.7239e-10 1.27475e-10 -3.07041e-11 5e-05 1.46608e-10 
129 1 0.161217 0.017808 0.00726256 0.00557119 -0.000546308 0.000514634 5.58869e-11 -2.34418e-10 8.50835e-11 5e-05 1.46608e-10 
131 1 0.155161 0.0165038 0.00763385 0.00646632 0.000712917 -9.85693e-05 2.37992e-11 -6.73033e-11 3.18312e-11 5e-05 1.46608e-10 
132 1 0.161269 0.0176474 0.00730804 0.00555959 -0.000690352 0.000559484 1.12829e-10 2.28302e-10 3.4552e-12 5e-05 1.46608e-10 
133 1 0.161256 0.0179271 0.00723433 0.00558545 -0.000677916 0.0005461 7.5311e-11 1.58784e-11 -7.84311e-12 5e-05 1.46608e-10 
134 1 0.161045 0.0167505 0.00747666 0.00609265 -0.000849708 0.000523182 -1.05038e-10 -1.18877e-10 -8.42543e-11 5e-05 1.46608e-10 
135 1 0.160662 0.0157667 0.00844595 0.00531467 -0.000335618 0.00083282 1.76775e-10 1.57089e-10 -1.7757e-10 5e-05 1.46608e-10 
136 1 0.155274 0.0182033 0.00728507 0.00629445 0.000482069 -0.000783567 -6.10452e-11 -6.95302e-11 2.66369e-11 5e-05 1.46608e-10 
137 1 0.160992 0.0169039 0.00741859 0.00604194 -0.000817401 0.000614844 1.57199e-11 5.93507e-11 -7.7829e-12 5e-05 1.46608e-10 
138 1 0.161357 0.0181547 0.00708608 0.00543394 -0.000660012 0.00053123 9.22946e-11 5.7885e-11 -9.06865e-12 5e-05 1.46608e-10 
140 1 0.161212 0.0174883 0.00726638 0.00553191 -0.000660054 0.000538075 4.77772e-11 1.13754e-10 -3.20572e-11 5e-05 1.46608e-10 
141 1 0.155257 0.0177489 0.00730538 0.00602571 0.000664502 -0.00075863 1.58085e-11 1.05946e-10 6.28513e-12 5e-05 1.46608e-10 
142 1 0.155103 0.0174236 0.00733729 0.00621199 0.000585214 -0.000745127 -2.11756e-11 4.2792e-11 3.13545e-12 5e-05 1.46608e-10 
143 1 0.154608 0.0157019 0.0088416 0.00461301 0.000371473 -0.0011783 -2.04525e-10 1.21128e-10 -1.03634e-10 5e-05 1.46608e-10 
144 1 0.155202 0.0179128 0.00730549 0.00438909 0.000952154 -0.000571635 -3.63224e-10 6.6229e-11 4.18146e-11 5e-05 1.46608e-10 
147 1 0.155366 0.0174188 0.0073054 0.0062701 0.000476536 -0.000781761 5.58174e-11 -2.53623e-11 7.66525e-13 5e-05 1.46608e-10 
148 1 0.154761 0.0161019 0.00816617 0.0061206 0.000140283 -0.00098214 1.85488e-10 -2.91864e-11 3.78258e-11 5e-05 1.46608e-10 
149 1 0.16117 0.0172978 0.00731788 0.00558159 -0.000692556 0.000551679 -2.44453e-11 4.64643e-11 -1.75863e-11 5e-05 1.46608e-10 
150 1 0.0100679 0.0201683 0.00551526 8.38435e-15 1.24531e-15 -8.48744e-14 -9.92617e-24 1.2579e-23 -4.1359e-25 5e-05 1.46608e-10 
151 1 0.155136 0.0171609 0.00736034 0.00630369 0.000635071 -0.000300363 -7.84311e-12 -1.65489e-11 -1.38344e-11 5e-05 1.46608e-10 
153 1 0.155448 0.0178084 0.00727972 0.00646262 0.000357167 -0.000799947 -1.51196e-10 1.18364e-11 1.64677e-11 5e-05 1.46608e-10 
154 1 0.155182 0.017815 0.00731181 0.00598701 0.000621605 -0.000753291 -2.2e-11 -1.41008e-11 1.57949e-11 5e-05 1.46608e-10 
155 1 0.154776 0.0161551 0.00808291 0.0061135 0.000147179 -0.000979407 1.07197e-10 -3.1048e-11 -2.2309e-11 5e-05 1.46608e-10 
156 1 0.155217 0.0175528 0.00731807 0.00614528 0.000655541 -0.00077313 2.2439e-11 -7.42401e-11 1.45113e-11 5e-05 1.46608e-10 
157 1 0.0219312 0.0187687 0.00551176 -3.8359e-14 8.16473e-14 2.9589e-13 -5.82128e-22 -3.13501e-22 7.44463e-24 5e-05 1.46608e-10 
158 1 0.155362 0.016972 0.00739073 0.00638385 0.000718367 -0.000106455 3.07134e-11 3.33991e-12 1.28294e-12 5e-05 1.46608e-10 
159 1 0.161503 0.0175912 0.00725555 0.00550994 -0.000674261 0.000539803 1.03311e-10 1.04667e-10 -3.09366e-11 5e-05 1.46608e-10 
160 1 0.155237 0.0176506 0.00731175 0.00607998 0.000664818 -0.000763294 4.73986e-11 3.48538e-11 9.77672e-12 5e-05 1.46608e-10 
162 1 0.155312 0.0175836 0.00730536 0.00633373 0.00043733 -0.00078783 5.2724e-11 -4.45291e-11 5.13594e-13 5e-05 1.46608e-10 
164 1 0.155011 0.0166097 0.00755698 0.00644317 0.000688435 -8.67055e-05 6.75501e-11 9.78086e-12 5.45873e-12 5e-05 1.46608e-10 
165 1 0.155211 0.0170947 0.00736028 0.00634883 0.00068434 -0.000171513 -5.40623e-12 -4.77121e-12 1.73277e-11 5e-05 1.46608e-10 
166 1 0.161394 0.0183461 0.00703405 0.00528154 -0.000616246 0.000507524 -3.72051e-11 -3.24389e-11 -2.19078e-11 5e-05 1.46608e-10 
168 1 0.155087 0.0165527 0.00758829 0.00645401 0.00069995 -9.16816e-05 8.80999e-11 -1.69159e-11 -1.30949e-12 5e-05 1.46608e-10 
169 1 0.155 0.0169537 0.00745878 0.00631053 0.000694611 -0.000105219 2.41806e-11 -3.22727e-11 -6.84681e-12 5e-05 1.46608e-10 
170 1 0.155201 0.0166763 0.00753136 0.00639339 0.000708546 -0.000100527 4.68317e-11 7.42088e-11 -1.09545e-11 5e-05 1.46608e-10 
171 1 0.161276 0.0182105 0.00706514 0.00542761 -0.000673282 0.000534523 8.10501e-11 1.12864e-10 -2.01532e-11 5e-05 1.46608e-10 
172 1 0.155154 0.0170336 0.00746028 0.00639917 0.000682967 -0.000169962 -2.86693e-11 4.53712e-12 7.05991e-12 5e-05 1.46608e-10 
173 1 0.161334 0.0176219 0.00723608 0.00554737 -0.000675044 0.000543906 8.90155e-11 3.60552e-11 1.28289e-11 5e-05 1.46608e-10 
174 1 0.155044 0.0163794 0.0076757 0.00652723 0.000146614 -0.00105265 7.54179e-11 6.22914e-11 -3.21022e-11 5e-05 1.46608e-10 
175 1 0.149173 0.0177303 0.00722972 0.00554218 -0.00064284 0.000327512 9.50863e-12 -1.70031e-11 8.83295e-12 5e-05 1.46608e-10 
177 1 0.155046 0.016788 0.00746995 0.0063943 0.000698255 -9.30488e-05 -7.56283e-11 7.1507e-11 -6.77733e-11 5e-05 1.46608e-10 
178 1 0.155139 0.016823 0.00745599 0.00639447 0.000701202 -9.55765e-05 -2.06421e-11 -1.4205e-11 -1.50484e-11 5e-05 1.46608e-10 
179 1 0.155187 0.0169973 0.00737125 0.00636131 0.000708832 -0.000104143 -6.74441e-11 -1.14167e-11 3.53809e-12 5e-05 1.46608e-10 
181 1 0.155345 0.0173197 0.00731193 0.00623631 0.000501096 -0.000778156 8.29379e-12 -9.99941e-12 4.34559e-11 5e-05 1.46608e-10 
182 1 0.161257 0.0181158 0.00709081 0.00539363 -0.000667653 0.000530471 -2.63734e-11 1.27498e-11 -9.80684e-12 5e-05 1.46608e-10 
183 1 0.155185 0.0166005 0.00759515 0.00640594 0.000674869 -9.86732e-05 5.86857e-11 1.16189e-10 6.82742e-12 5e-05 1.46608e-10 
184 1 0.161233 0.0175829 0.00724079 0.00554344 -0.000687836 0.000546895 1.12349e-11 4.66215e-11 -2.75465e-11 5e-05 1.46608e-10 
186 1 0.155083 0.0173261 0.00734686 0.00624836 0.000591131 -0.00061865 -2.95845e-11 1.50431e-11 -5.83065e-11 5e-05 1.46608e-10 
187 1 0.161197 0.0178321 0.00716766 0.00558307 -0.000568177 0.00051295 -7.30861e-11 -3.31366e-10 9.20803e-11 5e-05 1.46608e-10 
188 1 0.160994 0.0167912 0.00755228 0.00590966 -0.00103526 0.000507067 -1.41015e-11 -1.02445e-10 -4.34324e-11 5e-05 1.46608e-10 
189 1 0.161297 0.0178699 0.00716325 0.00560224 -0.000671536 0.000545976 -5.14756e-12 -6.23772e-11 -6.15273e-12 5e-05 1.46608e-10 
190 1 0.149447 0.0186045 0.0069288 0.00550081 -0.000641576 0.000326217 -1.18212e-12 7.18119e-12 -2.41939e-12 5e-05 1.46608e-10 
191 1 0.161014 0.0169876 0.00749254 0.00616095 -0.000855908 0.000609517 -9.4784e-11 7.87201e-11 -7.92068e-11 5e-05 1.46608e-10 
192 1 0.155416 0.0168267 0.00746504 0.00639175 0.000715186 -0.000103854 1.76875e-11 4.51714e-12 -2.53335e-12 5e-05 1.46608e-10 
193 1 0.161222 0.0167204 0.00748525 0.00610918 -0.000797676 0.000613859 1.34699e-11 -8.26417e-11 1.25322e-11 5e-05 1.46608e-10 
194 1 0.161461 0.0182058 0.00533758 1.38787e-15 -1.10251e-14 8.66692e-14 -1.1545e-21 -2.39495e-22 -7.65142e-24 5e-05 1.46608e-10 
195 1 0.155285 0.0170276 0.00736003 0.00637803 0.000714528 -0.000105416 2.72856e-11 1.19173e-12 8.19282e-12 5e-05 1.46608e-10 
196 1 0.154929 0.0163144 0.0077966 0.00633046 9.35744e-05 -0.000935932 3.11994e-11 -4.04192e-12 -6.69298e-11 5e-05 1.46608e-10 
197 1 0.149233 0.0180081 0.00713359 0.00538992 -0.000616284 0.000314688 8.1041e-13 -5.17556e-11 1.33222e-11 5e-05 1.46608e-10 
198 1 0.155349 0.0181372 0.00727862 0.00627015 0.000465959 -0.000780707 -9.03366e-11 6.65125e-11 6.42174e-12 5e-05 1.46608e-10 
199 1 0.155301 0.0179434 0.00729217 0.00650369 0.000415633 -0.000807083 5.39124e-12 4.9878e-11 -5.43616e-12 5e-05 1.46608e-10 
201 1 0.155069 0.0169665 0.0073819 0.00631163 0.000700184 -9.84136e-05 6.06114e-11 1.93929e-11 8.64371e-12 5e-05 1.46608e-10 
202 1 0.15525 0.0172885 0.00732463 0.00622508 0.000536218 -0.00077672 -1.98251e-11 -3.76893e-11 1.53396e-12 5e-05 1.46608e-10 
203 1 0.161073 0.0172647 0.00732116 0.00593649 -0.000774109 0.000595358 -4.77609e-11 -1.14401e-10 3.37614e-11 5e-05 1.46608e-10 
204 1 0.154667 0.0158516 0.00858861 0.00506656 0.0002861 -0.0011224 -1.3822e-10 -1.74522e-11 1.74688e-10 5e-05 1.46608e-10 
205 1 0.15534 0.0168842 0.00743351 0.00639089 0.000715766 -0.000104097 3.37611e-11 -8.38826e-11 3.77682e-11 5e-05 1.46608e-10 
206 1 0.154968 0.0164345 0.00764238 0.00643063 0.000622913 -5.32008e-05 1.79995e-11 1.56686e-11 2.5626e-11 5e-05 1.46608e-10 
207 1 0.155035 0.0167007 0.00761337 0.00640846 0.000683512 -8.91182e-05 -1.0881e-10 3.51526e-13 -4.84517e-11 5e-05 1.46608e-10 
208 1 0.155133 0.0173742 0.00741888 0.00635951 0.000666929 -0.000743832 -8.71499e-11 1.82181e-11 1.1279e-11 5e-05 1.46608e-10 
209 1 0.152078 0.0175738 0.00722702 0.00538255 -0.00336591 0.00101715 -3.41418e-13 2.06279e-13 -6.04613e-14 5e-05 1.46608e-10 
210 1 0.161276 0.0177751 0.00718888 0.00555339 -0.000607766 0.000523714 4.32036e-11 -1.63119e-10 2.50822e-11 5e-05 1.46608e-10 
211 1 0.161176 0.0177375 0.00719325 0.00550932 -0.000792198 0.000571161 -9.70603e-13 -7.02066e-11 1.01535e-11 5e-05 1.46608e-10 
212 1 0.155301 0.0171207 0.00732522 0.00616511 0.000509426 -0.000771432 -9.17327e-11 -2.42383e-11 3.85439e-12 5e-05 1.46608e-10 
213 1 0.161337 0.01806 0.00711177 0.00539469 -0.000652023 0.000526488 -2.32796e-11 -1.54016e-11 5.28187e-12 5e-05 1.46608e-10 
214 1 0.161115 0.0174535 0.0072701 0.00550633 -0.000621629 0.000524209 2.45028e-11 1.04552e-10 -3.04166e-11 5e-05 1.46608e-10 
215 1 0.149384 0.0187505 0.00687652 0.00553174 -0.000651829 0.00033011 7.17775e-12 2.70216e-11 -9.98897e-12 5e-05 1.46608e-10 
216 1 0.155254 0.017025 0.00745502 0.00640099 0.000712213 -0.000102166 -2.68251e-11 -3.24945e-11 -2.32639e-11 5e-05 1.46608e-10 
217 1 0.161471 0.0182856 0.00705608 0.0052852 -0.000605729 0.000506057 -1.71091e-11 2.32401e-11 -1.18341e-11 5e-05 1.46608e-10 
218 1 0.154814 0.0162515 0.00791461 0.00617608 0.000127876 -0.000968793 1.11767e-10 -1.10835e-10 -7.50879e-11 5e-05 1.46608e-10 
219 1 0.161147 0.0172005 0.00734403 0.00595192 -0.000763405 0.000594427 -3.71616e-11 -1.21939e-10 5.68631e-11 5e-05 1.46608e-10 
220 1 0.155228 0.017189 0.00733134 0.00618196 0.000534841 -0.000778197 -3.10639e-11 -8.35954e-12 1.26807e-10 5e-05 1.46608e-10 
221 1 0.215589 0.0196139 0.00729444 0.00407883 -0.00664896 -0.000807338 3.13715e-13 -2.03289e-12 -3.16079e-13 5e-05 1.46608e-10 
222 1 0.161442 0.0173072 0.00733237 0.00558357 -0.000626868 0.000531366 -1.783e-10 -1.56028e-10 4.85546e-11 5e-05 1.46608e-10 
223 1 0.155177 0.0173565 0.00733079 0.00623573 0.000558877 -0.000781516 -5.03397e-11 6.6781e-11 -1.4384e-11 5e-05 1.46608e-10 
224 1 0.140095 0.0180244 0.00772579 -0.0143666 0.0157753 -0.00305974 0 0 -1.43822e-09 5e-05 1.46608e-10 
225 1 0.161088 0.0169364 0.00741726 0.0060398 -0.000819035 0.000536097 4.15724e-11 6.86479e-11 -1.59129e-10 5e-05 1.46608e-10 
226 1 0.155091 0.0171108 0.00746741 0.00653795 0.000805348 -0.000309391 -1.1292e-11 6.5926e-11 5.55625e-11 5e-05 1.46608e-10 
227 1 0.149403 0.0184113 0.00699559 0.00543364 -0.00062558 0.000319336 -2.94139e-11 -1.61552e-11 5.72762e-12 5e-05 1.46608e-10 
228 1 0.149193 0.0178229 0.00719771 0.00555909 -0.000648694 0.000329692 4.26702e-12 -3.4322e-11 1.58101e-11 5e-05 1.46608e-10 
229 1 0.155395 0.017151 0.00731253 0.00617787 0.000484452 -0.000769313 -5.87409e-11 -2.39829e-12 -2.76563e-11 5e-05 1.46608e-10 
230 1 0.154957 0.0167647 0.00750778 0.00639784 0.000686656 -8.33095e-05 -1.19046e-11 -1.79968e-12 8.62313e-11 5e-05 1.46608e-10 
231 1 0.149153 0.0176378 0.00726174 0.00551974 -0.000639866 0.000325806 9.99626e-12 -4.91373e-12 1.87926e-12 5e-05 1.46608e-10 
232 1 0.155353 0.0177789 0.00729252 0.00647097 0.000408547 -0.00080264 2.64743e-11 6.82581e-11 -7.65974e-12 5e-05 1.46608e-10 
234 1 0.161323 0.0177988 0.00727393 0.00557197 -0.000641969 0.000521382 -2.74662e-11 -3.15758e-11 -3.69836e-11 5e-05 1.46608e-10 
235 1 0.155221 0.0167643 0.0074884 0.00636462 0.000712698 -0.00010409 3.38961e-11 3.34725e-11 -1.41502e-11 5e-05 1.46608e-10 
236 1 0.154936 0.0166684 0.00752489 0.00643502 0.000681151 -8.612e-05 1.36505e-11 -1.65099e-12 3.5091e-11 5e-05 1.46608e-10 
237 1 0.154895 0.0165013 0.0076255 0.00640192 0.000542166 -0.000297176 -2.74243e-11 2.70188e-12 3.29538e-11 5e-05 1.46608e-10 
239 1 0.148983 0.016899 0.00751723 0.0059646 -0.000736302 0.000367863 -1.20433e-12 1.88321e-11 -5.93638e-12 5e-05 1.46608e-10 
240 1 0.149004 0.0169913 0.0074853 0.00593989 -0.0007306 0.000365478 6.16748e-13 6.66149e-12 -1.41646e-12 5e-05 1.46608e-10 
241 1 0.149068 0.0172683 0.00738952 0.00586761 -0.000712445 0.000357757 5.6815e-13 1.9333e-12 -2.59822e-13 5e-05 1.46608e-10 
242 1 0.155143 0.0176193 0.00732445 0.00610073 0.000602739 -0.000765958 3.3524e-12 2.40389e-11 4.38535e-12 5e-05 1.46608e-10 
244 1 0.149025 0.0170836 0.00745337 0.00591636 -0.000725387 0.000363199 1.17396e-11 1.00966e-11 -4.77936e-12 5e-05 1.46608e-10 
246 1 0.149132 0.0175453 0.00729374 0.00579554 -0.000693518 0.000349814 -2.85247e-12 8.54037e-12 -2.45349e-12 5e-05 1.46608e-10 
247 1 0.155323 0.0172193 0.00731864 0.00619668 0.000503346 -0.000774444 -5.8586e-11 -7.21476e-11 -1.16785e-11 5e-05 1.46608e-10 
248 1 0.154978 0.01686 0.00748585 0.00635615 0.000689596 -8.26336e-05 -4.32741e-12 -9.72705e-13 1.44569e-12 5e-05 1.46608e-10 
249 1 0.149365 0.0186577 0.00690866 0.00550066 -0.000641791 0.000326342 9.12782e-13 1.23818e-11 -5.71087e-12 5e-05 1.46608e-10 
250 1 0.154799 0.0162156 0.00800667 0.00611154 0.000149021 -0.000974327 2.33045e-11 -1.16729e-10 -8.33006e-11 5e-05 1.46608e-10 
251 1 0.161094 0.017359 0.00729567 0.00558205 -0.000706983 0.000552306 -1.38151e-10 -9.29373e-11 2.48737e-11 5e-05 1.46608e-10 
252 1 0.149271 0.0181937 0.00706934 0.0053059 -0.000598913 0.000307554 -6.81973e-12 1.69931e-11 -1.62361e-11 5e-05 1.46608e-10 
253 1 0.14952 0.0185402 0.00695265 0.00550179 -0.000640473 0.000325811 6.32557e-12 1.02113e-11 -3.36854e-12 5e-05 1.46608e-10 
254 1 0.149111 0.017453 0.00732567 0.00581926 -0.000700093 0.000352505 -6.11333e-13 5.75048e-12 -1.77871e-12 5e-05 1.46608e-10 
255 1 0.155277 0.0178467 0.00729905 0.00444389 0.000997283 -0.00058014 -3.04814e-10 1.20024e-10 3.16309e-11 5e-05 1.46608e-10 
256 1 0.155321 0.0167958 0.00747668 0.00638895 0.000710686 -0.00010199 9.19938e-13 -2.5812e-13 -4.93249e-12 5e-05 1.46608e-10 
257 1 0.155113 0.0169171 0.00749716 0.00635805 0.000708964 -0.000115135 4.24278e-11 -1.01742e-11 3.91239e-11 5e-05 1.46608e-10 
258 1 0.155112 0.0170635 0.00737466 0.0063312 0.000675159 -0.000133564 -6.08958e-11 -1.17286e-11 5.87382e-11 5e-05 1.46608e-10 
259 1 0.14929 0.0182865 0.0070372 0.00534012 -0.000603265 0.000310103 -1.77229e-11 -6.48844e-12 1.14258e-12 5e-05 1.46608e-10 
261 1 0.155169 0.016909 0.00741441 0.00637816 0.000705322 -0.000100382 -2.59961e-11 -9.80332e-12 5.19763e-12 5e-05 1.46608e-10 