ITEM: TIMESTEP
15600000
ITEM: NUMBER OF ATOMS
287
ITEM: BOX BOUNDS ff ff ff
-0.02 0.43
-0.02 0.06
-0.02 0.07
ITEM: ATOMS id type x y z vx vy vz fx fy fz radius mass 
1 1 0.103833 0.0165584 0.00777945 0.00597023 -0.000226052 0.000451412 -4.09928e-11 5.66236e-11 -5.04983e-11 5e-05 1.46608e-10 
2 1 0.10427 0.0175713 0.00706644 0.00558003 -0.00015181 -0.000136048 -2.44876e-10 2.02709e-10 -1.00436e-10 5e-05 1.46608e-10 
3 1 0.0975576 0.0158743 0.00827779 0.00574594 4.08191e-05 -4.04126e-05 7.02251e-11 -3.58279e-11 -9.4025e-11 5e-05 1.46608e-10 
4 1 0.104157 0.0178902 0.00699897 0.00567662 -0.00021961 -0.000114958 -1.48379e-10 -1.99331e-10 1.16291e-10 5e-05 1.46608e-10 
5 1 0.103715 0.0164524 0.00785295 0.00595174 -0.000216212 0.000443907 2.65235e-11 7.32488e-11 -2.97332e-11 5e-05 1.46608e-10 
6 1 0.109783 0.0167014 0.00766706 0.00625817 0.000804925 -4.70964e-05 -1.59161e-13 -2.91579e-12 6.87725e-13 5e-05 1.46608e-10 
7 1 0.103909 0.0171612 0.00733325 0.00558327 -7.02818e-05 0.000319674 -1.93095e-10 9.5053e-11 -5.95951e-11 5e-05 1.46608e-10 
8 1 0.103608 0.0160587 0.00814166 0.0058683 -0.00020801 0.000435793 -9.10051e-11 -1.15518e-11 -1.35731e-11 5e-05 1.46608e-10 
9 1 0.11006 0.0178591 0.00715676 0.00585846 0.000583606 -0.000639749 3.19406e-12 4.711e-12 -3.59614e-12 5e-05 1.46608e-10 
10 1 0.103845 0.0169249 0.0075065 0.00606454 -0.00019353 0.000432387 6.22377e-11 7.72866e-11 -6.28409e-11 5e-05 1.46608e-10 
11 1 0.10431 0.0177632 0.00702284 0.005568 -0.000145282 -0.000124522 -6.4391e-10 3.18784e-10 -3.1653e-11 5e-05 1.46608e-10 
12 1 0.097771 0.0166183 0.0076446 0.00617397 -3.76129e-05 5.36825e-05 1.72722e-10 1.21558e-10 -8.03807e-11 5e-05 1.46608e-10 
13 1 0.103694 0.0163737 0.00791069 0.00593567 -0.000210172 0.00043959 -8.67971e-11 -3.81242e-11 1.81477e-11 5e-05 1.46608e-10 
14 1 0.0974789 0.0155715 0.00852697 0.0056096 0.000150496 6.65624e-05 1.13008e-11 1.38703e-10 -1.45496e-10 5e-05 1.46608e-10 
15 1 0.10404 0.0173479 0.00720011 0.00560587 -0.000112597 0.000347716 6.17472e-11 3.39463e-11 4.18741e-11 5e-05 1.46608e-10 
16 1 0.0974594 0.0154954 0.00858884 0.00561878 0.0001408 7.6075e-05 9.18007e-11 1.51872e-10 -1.37056e-10 5e-05 1.46608e-10 
17 1 0.103823 0.0168462 0.00756424 0.00604827 -0.000199846 0.000437005 7.27024e-11 1.41543e-10 -7.894e-11 5e-05 1.46608e-10 
18 1 0.109935 0.0173094 0.00736207 0.00624076 0.000496241 -0.00063681 -5.5638e-13 -2.65721e-12 1.20767e-12 5e-05 1.46608e-10 
19 1 0.103672 0.016295 0.00796843 0.00591236 -0.000211546 0.00043856 -5.65428e-11 -1.42613e-10 9.04951e-11 5e-05 1.46608e-10 
21 1 0.103812 0.0164797 0.00783719 0.00592936 -0.000223475 0.000447807 3.40158e-11 4.4419e-11 -3.25613e-11 5e-05 1.46608e-10 
22 1 0.103946 0.0173196 0.00721681 0.0055989 -7.51578e-05 0.000320141 -4.4047e-12 -6.34018e-11 3.04376e-11 5e-05 1.46608e-10 
23 1 0.0979686 0.0170169 0.0073057 0.00572612 2.80631e-05 -5.99255e-06 -9.13852e-11 -4.31033e-11 1.70749e-11 5e-05 1.46608e-10 
24 1 0.109999 0.0175838 0.00725943 0.00619316 0.000508138 -0.000637541 -1.33945e-13 3.3677e-13 -2.23684e-13 5e-05 1.46608e-10 
25 1 0.103888 0.0170824 0.00739102 0.00612067 -0.000168747 0.000417516 2.12641e-10 1.10847e-10 6.20625e-11 5e-05 1.46608e-10 
26 1 0.10987 0.0170351 0.00746471 0.00628841 0.000484353 -0.000636136 -6.07835e-13 -4.19631e-12 1.45217e-12 5e-05 1.46608e-10 
27 1 0.097856 0.0169159 0.00739132 0.00591009 1.35298e-05 1.17843e-05 -1.72964e-09 2.23358e-10 -1.50565e-10 5e-05 1.46608e-10 
28 1 0.104138 0.0177946 0.00702068 0.00564945 -0.000213475 -9.46174e-05 -4.98407e-11 -1.14614e-10 3.68484e-10 5e-05 1.46608e-10 
29 1 0.103651 0.0162162 0.00802617 0.0058964 -0.000215193 0.000439531 1.13575e-10 -7.28851e-11 5.33371e-11 5e-05 1.46608e-10 
30 1 0.104176 0.0175448 0.00708754 0.00561542 -7.77091e-05 0.00018303 7.81943e-11 5.56159e-11 -1.1931e-10 5e-05 1.46608e-10 
31 1 0.103928 0.0172404 0.00727531 0.00555329 -6.58056e-05 0.000311928 -9.06516e-11 4.12706e-11 -5.27626e-12 5e-05 1.46608e-10 
32 1 0.104023 0.0172685 0.00725853 0.00519837 0.000717772 -0.000288892 -3.41953e-10 5.63331e-10 -4.33137e-10 5e-05 1.46608e-10 
33 1 0.109805 0.0167839 0.00761492 0.00626821 0.000803558 -4.53557e-05 -1.50522e-13 -2.63899e-12 2.21332e-12 5e-05 1.46608e-10 
34 1 0.103802 0.0167674 0.00762198 0.00602649 -0.000204442 0.00043995 -2.30716e-11 9.72299e-11 -7.36542e-11 5e-05 1.46608e-10 
35 1 0.104004 0.0171893 0.00731676 0.00560234 -8.4566e-05 0.000327374 -3.12779e-10 1.43097e-10 -6.2052e-11 5e-05 1.46608e-10 
36 1 0.1101 0.0180428 0.00708831 0.00566408 0.000624864 -0.000640222 2.61811e-12 8.11473e-12 -2.66369e-12 5e-05 1.46608e-10 
37 1 0.103963 0.0170309 0.00743298 0.0062092 -0.00010725 0.000373383 5.93701e-10 -2.3611e-10 2.09793e-10 5e-05 1.46608e-10 
38 1 0.104117 0.0172966 0.0072421 0.00566732 -9.75872e-05 0.000310619 -3.60317e-10 2.98667e-10 -2.31778e-10 5e-05 1.46608e-10 
39 1 0.11002 0.0176755 0.0072252 0.00580303 0.000595172 -0.000639916 -1.62693e-13 9.97292e-13 -1.97781e-12 5e-05 1.46608e-10 
41 1 0.103758 0.0166099 0.00773746 0.0059805 -0.00021912 0.000446875 5.78055e-11 1.23787e-11 -1.64669e-11 5e-05 1.46608e-10 
42 1 0.103965 0.0174028 0.00716468 0.00573435 -0.000102615 0.000339218 2.08879e-10 -1.6112e-10 1.39046e-10 5e-05 1.46608e-10 
44 1 0.104136 0.0173758 0.00718406 0.00574405 -8.078e-05 0.000319398 -2.9047e-10 1.60042e-10 -3.57232e-10 5e-05 1.46608e-10 
45 1 0.109826 0.0168664 0.00756278 0.00627833 0.000802179 -4.37689e-05 -1.31043e-12 -2.74278e-12 2.19131e-12 5e-05 1.46608e-10 
46 1 0.109913 0.017218 0.00739628 0.00625661 0.000492256 -0.00063657 -1.00739e-12 -3.76317e-12 1.20098e-12 5e-05 1.46608e-10 
47 1 0.10378 0.0166887 0.00767972 0.0060013 -0.000211392 0.000442747 -5.52546e-11 -3.6708e-12 -1.78328e-11 5e-05 1.46608e-10 
48 1 0.104002 0.017572 0.00707483 0.00584384 -0.000162459 0.000220563 -6.85106e-11 -1.96129e-12 2.80535e-10 5e-05 1.46608e-10 
49 1 0.109891 0.0171265 0.00743049 0.00627249 0.000488319 -0.000636325 -1.63764e-12 -4.2183e-12 1.91959e-12 5e-05 1.46608e-10 
50 1 0.104062 0.0178585 0.00700864 0.0056243 -0.000197645 -0.000104341 5.07995e-11 2.05372e-10 -1.59781e-11 5e-05 1.46608e-10 
51 1 0.104042 0.0177629 0.00703035 0.00558213 -0.000183372 -0.000113166 1.19456e-11 1.38051e-10 -3.88192e-12 5e-05 1.46608e-10 
52 1 0.0977496 0.0165439 0.00770791 0.00619606 -3.6379e-05 5.30084e-05 3.43256e-10 -1.00539e-12 -2.56547e-13 5e-05 1.46608e-10 
53 1 0.109956 0.0174009 0.00732785 0.00622488 0.000500242 -0.00063708 -1.60384e-12 -2.3558e-12 5.42476e-13 5e-05 1.46608e-10 
54 1 0.10379 0.0164008 0.00789502 0.00592006 -0.000240572 0.000460161 9.06041e-11 5.63165e-12 4.69729e-12 5e-05 1.46608e-10 
55 1 0.0975178 0.0157237 0.00840323 0.00557221 0.000161844 5.94297e-05 4.45897e-11 5.24196e-11 -1.21177e-11 5e-05 1.46608e-10 
56 1 0.103984 0.0171098 0.00737517 0.00559476 -6.85556e-05 0.000317415 -1.55581e-10 1.76286e-10 -1.18834e-10 5e-05 1.46608e-10 
57 1 0.109848 0.016949 0.00751063 0.00628854 0.000800894 -4.20566e-05 -1.07923e-12 -2.99769e-12 1.96209e-12 5e-05 1.46608e-10 
59 1 0.104038 0.0169802 0.00747439 0.00639801 7.08399e-05 0.000250906 4.44465e-10 -4.67017e-10 3.59918e-10 5e-05 1.46608e-10 
60 1 0.10406 0.0170591 0.00741656 0.00558547 -8.86046e-05 0.000331596 -1.91959e-10 2.33559e-10 -1.73326e-10 5e-05 1.46608e-10 
61 1 0.103737 0.0165312 0.00779521 0.00596294 -0.000220922 0.000446776 8.76967e-11 7.39936e-11 -4.53197e-11 5e-05 1.46608e-10 
62 1 0.104154 0.017455 0.00712557 0.00571187 -5.77952e-05 0.000309909 -2.22828e-10 2.04277e-10 -2.62959e-10 5e-05 1.46608e-10 
63 1 0.104098 0.0176035 0.00706434 0.00570904 -0.000362031 -0.000855144 -3.55298e-10 -5.79774e-10 -7.22858e-10 5e-05 1.46608e-10 
64 1 0.109978 0.0174924 0.00729364 0.00620893 0.000504188 -0.000637318 -6.84779e-13 -1.25317e-12 1.18015e-12 5e-05 1.46608e-10 
65 1 0.0978893 0.0167171 0.00756086 0.00634624 0.000100699 -6.22803e-05 1.26914e-10 3.5147e-11 -2.71353e-11 5e-05 1.46608e-10 
66 1 0.0978248 0.0164938 0.00775083 0.00620186 -4.35472e-05 5.86671e-05 1.76346e-10 -1.51619e-10 1.23059e-10 5e-05 1.46608e-10 
67 1 0.10429 0.0176674 0.0070446 0.00555131 -0.000151132 -0.00011366 -1.16824e-10 4.94933e-10 5.97385e-11 5e-05 1.46608e-10 
68 1 0.104216 0.0177326 0.00703224 0.00555259 -0.00014533 -0.000132543 -4.55922e-10 -1.59301e-11 2.25782e-11 5e-05 1.46608e-10 
69 1 0.103898 0.0167947 0.00760622 0.00603515 -0.000222996 0.000452875 7.59167e-11 9.01707e-11 -3.81845e-11 5e-05 1.46608e-10 
70 1 0.11004 0.0177673 0.00719098 0.00583081 0.000589387 -0.00063984 1.17083e-12 4.21407e-12 1.9177e-12 5e-05 1.46608e-10 
71 1 0.0974983 0.0156476 0.0084651 0.00558852 0.00015675 5.9834e-05 -5.44221e-11 8.57769e-11 -6.43472e-11 5e-05 1.46608e-10 
72 1 0.104196 0.0176375 0.00705591 0.00556536 -0.000140143 -3.89265e-05 -1.98862e-10 2.02192e-11 2.98852e-10 5e-05 1.46608e-10 
73 1 0.103866 0.0170037 0.00744876 0.00608313 -0.000183723 0.000426657 7.76954e-11 8.82023e-11 -4.44785e-11 5e-05 1.46608e-10 
74 1 0.104059 0.0174271 0.00714191 0.00574603 -0.000127064 0.000371707 -3.36022e-11 1.80035e-10 3.91916e-11 5e-05 1.46608e-10 
76 1 0.0980905 0.0175802 0.00714305 0.00584407 5.81549e-05 -2.62962e-05 -2.32345e-11 -4.99765e-12 -1.7866e-11 5e-05 1.46608e-10 
77 1 0.104193 0.0185057 0.00693644 0.00550722 -0.000227281 0.000511574 -1.26269e-11 -5.35268e-11 1.39808e-11 5e-05 1.46608e-10 
78 1 0.0975788 0.0159487 0.00821438 0.0059117 2.7816e-05 -4.0365e-06 2.29157e-11 5.6232e-12 -4.06203e-11 5e-05 1.46608e-10 
79 1 0.0977926 0.0166926 0.00758133 0.00617027 -3.2185e-05 4.89638e-05 2.65265e-10 2.86128e-11 -1.7399e-11 5e-05 1.46608e-10 
80 1 0.104101 0.0180501 0.00696707 0.00566319 -0.000204116 -0.000103829 -2.72205e-11 6.88553e-11 1.99023e-11 5e-05 1.46608e-10 
81 1 0.0977283 0.0164695 0.00777123 0.0061868 -2.01472e-05 3.97424e-05 2.94518e-10 -2.04889e-11 2.74732e-11 5e-05 1.46608e-10 
82 1 0.0978747 0.0169958 0.0073341 0.00577319 3.11164e-05 -1.01115e-05 5.22359e-10 -3.52565e-10 2.48236e-10 5e-05 1.46608e-10 
83 1 0.0979209 0.0165178 0.00773077 0.00661644 0.000322702 -0.000250871 -7.26284e-12 6.11238e-11 -5.34434e-11 5e-05 1.46608e-10 
84 1 0.11008 0.0179509 0.00712254 0.00588612 0.000577713 -0.000639763 3.2337e-12 6.79584e-12 -3.59088e-12 5e-05 1.46608e-10 
85 1 0.0976965 0.0160473 0.00813079 0.00599303 -4.61326e-06 2.56884e-05 4.76833e-12 9.10998e-11 -7.76393e-11 5e-05 1.46608e-10 
86 1 0.104118 0.017699 0.00704242 0.00556189 -0.000186777 -0.000100114 6.83798e-11 -1.82355e-10 -6.74759e-11 5e-05 1.46608e-10 
87 1 0.104017 0.0169015 0.00753217 0.00629232 -6.36668e-06 0.000303351 1.73614e-10 -1.88952e-10 1.44976e-10 5e-05 1.46608e-10 
88 1 0.104136 0.0182222 0.0069315 0.00552419 -0.000148176 8.12546e-05 -2.54415e-11 -4.22006e-10 2.99672e-10 5e-05 1.46608e-10 
89 1 0.104122 0.0181444 0.00699272 0.00557999 -0.000217748 -3.46434e-05 -2.99111e-10 -3.56946e-10 8.01997e-12 5e-05 1.46608e-10 
90 1 0.104251 0.0174826 0.00710964 0.00561829 -2.59473e-05 0.000293889 7.44825e-11 -1.00806e-10 8.48179e-11 5e-05 1.46608e-10 
91 1 0.097814 0.016767 0.00751804 0.00622208 -3.06376e-05 4.98488e-05 4.9311e-11 -1.14026e-10 8.28634e-11 5e-05 1.46608e-10 
92 1 0.104272 0.01802 0.00696707 0.00480851 -1.17408e-05 -0.000131896 -3.58044e-10 -7.79846e-11 1.38446e-11 5e-05 1.46608e-10 
93 1 0.104231 0.0181897 0.00693824 0.00546473 -0.000236833 0.000510248 -2.95201e-10 -2.63521e-10 -1.84071e-10 5e-05 1.46608e-10 
94 1 0.10432 0.018357 0.00694752 0.00550229 -0.000226203 0.000514212 1.69304e-10 -2.32995e-10 -4.008e-11 5e-05 1.46608e-10 
95 1 0.104254 0.0180921 0.00703403 0.00516405 -0.000148591 0.000101656 7.69514e-10 1.19255e-10 2.1857e-10 5e-05 1.46608e-10 
96 1 0.104296 0.0181146 0.00694558 0.00557094 -0.000220963 -0.000463003 -1.05088e-10 1.10217e-10 -5.10208e-10 5e-05 1.46608e-10 
97 1 0.0976855 0.0163207 0.00789783 0.00609068 1.3651e-05 1.17611e-05 -1.2311e-10 -3.75622e-11 2.43039e-11 5e-05 1.46608e-10 
98 1 0.104155 0.0183145 0.00696539 0.00543047 -0.000237044 0.000328196 1.89663e-10 -2.11603e-10 1.87104e-10 5e-05 1.46608e-10 
99 1 0.0978679 0.0166426 0.00762419 0.00632458 9.44982e-05 -5.76603e-05 2.5725e-10 6.26124e-11 -6.14125e-11 5e-05 1.46608e-10 
100 1 0.104212 0.0173245 0.00722578 0.00565817 -6.10861e-05 0.000313451 -1.2701e-10 1.58685e-10 -1.13625e-10 5e-05 1.46608e-10 
101 1 0.0978035 0.0164194 0.00781415 0.00617771 -4.20933e-05 5.81246e-05 -8.9128e-11 -1.13206e-10 9.6908e-11 5e-05 1.46608e-10 
102 1 0.0643568 0.0187248 0.00531097 4.30499e-15 1.0539e-14 8.2953e-14 1.47645e-21 -5.69876e-22 -5.79026e-24 5e-05 1.46608e-10 
103 1 0.24257 0.0191927 0.00520306 -3.43631e-22 4.86658e-23 1.23839e-22 0 0 0 5e-05 1.46608e-10 
104 1 0.0981651 0.0175155 0.0071589 0.00586047 7.95913e-05 -2.96752e-05 -2.25074e-11 -6.04728e-11 3.95921e-12 5e-05 1.46608e-10 
105 1 0.0976428 0.0161719 0.00802444 0.00604435 2.11139e-05 4.12248e-06 -4.9182e-12 6.83242e-11 -6.11499e-11 5e-05 1.46608e-10 
106 1 0.0982396 0.0174508 0.00717477 0.00588326 9.7777e-05 -3.36231e-05 -8.9435e-12 -1.0845e-11 1.16191e-11 5e-05 1.46608e-10 
107 1 0.0976001 0.0160231 0.00815106 0.0059961 2.09938e-05 4.30911e-06 1.99382e-11 4.54042e-11 -4.91481e-11 5e-05 1.46608e-10 
108 1 0.103941 0.0169522 0.00749073 0.00614271 -0.00014024 0.000396841 3.49698e-10 1.45509e-10 -7.96186e-11 5e-05 1.46608e-10 
109 1 0.104022 0.0176674 0.00705223 0.0056909 -0.000187793 -2.27299e-05 1.89439e-11 9.14876e-11 9.35867e-11 5e-05 1.46608e-10 
110 1 0.104371 0.0184476 0.00695274 0.00545901 -0.000232414 0.000508706 6.64785e-10 1.05144e-10 7.55544e-11 5e-05 1.46608e-10 
111 1 0.104202 0.0185248 0.00703416 0.00550926 -0.000153348 0.000495113 -1.26897e-10 -1.31454e-10 7.60555e-11 5e-05 1.46608e-10 
112 1 0.0977069 0.0163953 0.00783476 0.00613374 4.37333e-06 2.19703e-05 9.11305e-12 -2.66997e-11 3.28656e-11 5e-05 1.46608e-10 
113 1 0.0985556 0.0181576 0.0069998 0.00553569 -1.99833e-05 -3.56355e-06 1.15612e-10 -1.85797e-10 4.76924e-11 5e-05 1.46608e-10 
114 1 0.0981036 0.0172305 0.00722937 0.00573992 1.0525e-05 -1.10997e-05 -7.1913e-11 -1.70522e-11 2.87833e-12 5e-05 1.46608e-10 
115 1 0.104078 0.0175077 0.00708583 0.00448355 6.08821e-05 -0.000145387 -6.10255e-10 2.70152e-10 -1.58095e-10 5e-05 1.46608e-10 
116 1 0.103919 0.0168734 0.00754847 0.00610925 -0.000157925 0.000407699 1.24386e-10 5.58995e-11 -1.95641e-11 5e-05 1.46608e-10 
117 1 0.103768 0.0163221 0.00795277 0.00591293 -0.000232827 0.000454594 2.83899e-11 -3.64046e-11 3.63539e-11 5e-05 1.46608e-10 
118 1 0.0975373 0.0157997 0.00834119 0.0055691 5.38129e-05 -7.82357e-05 -7.83037e-11 -1.28417e-10 -2.2432e-10 5e-05 1.46608e-10 
119 1 0.104079 0.0171383 0.00735836 0.00559647 -9.89716e-05 0.000339461 -3.51351e-10 4.12467e-10 -3.0819e-10 5e-05 1.46608e-10 
120 1 0.103629 0.0161375 0.00808392 0.00589133 -0.000212712 0.000437705 8.45209e-11 1.50705e-11 3.98573e-11 5e-05 1.46608e-10 
121 1 0.103586 0.0159789 0.00819789 0.00583849 -0.000493688 2.54531e-05 1.95321e-12 1.42013e-11 -5.38561e-12 5e-05 1.46608e-10 
122 1 0.10431 0.0186401 0.00694816 0.00549127 -0.000260957 0.000511581 1.19065e-10 1.01254e-09 8.0284e-12 5e-05 1.46608e-10 
123 1 0.0977393 0.0161962 0.00800407 0.00605964 5.24887e-06 1.731e-05 -4.57607e-11 1.13633e-10 -1.00916e-10 5e-05 1.46608e-10 
124 1 0.104194 0.0180858 0.00695468 0.00560454 -6.3182e-05 -0.000166236 -9.91464e-11 -1.2974e-09 9.45716e-10 5e-05 1.46608e-10 
125 1 0.103747 0.0162432 0.00801061 0.00590125 -0.000227144 0.000450483 -5.40249e-11 -1.15423e-11 -2.18705e-12 5e-05 1.46608e-10 
126 1 0.103982 0.0174776 0.00710059 0.00582821 -0.000119412 0.000358324 3.91395e-11 -1.08149e-10 2.07112e-10 5e-05 1.46608e-10 
127 1 0.0976642 0.0162463 0.00796114 0.0060653 1.88497e-05 6.81382e-06 -7.31071e-11 1.87636e-11 -2.2312e-11 5e-05 1.46608e-10 
128 1 0.104081 0.0179541 0.00698694 0.0056543 -0.00021605 -0.000116523 1.61102e-10 1.88044e-10 -1.27251e-10 5e-05 1.46608e-10 
129 1 0.104202 0.0182437 0.00701748 0.00538275 -0.000201329 0.00044937 -9.93459e-11 -2.76572e-10 -2.11028e-10 5e-05 1.46608e-10 
130 1 0.0979881 0.0171051 0.00726049 0.00574795 2.13696e-05 -1.31426e-05 -4.78387e-11 -1.10828e-10 3.59713e-11 5e-05 1.46608e-10 
131 1 0.0978462 0.0165683 0.00768745 0.00632864 8.84201e-05 -5.30747e-05 1.79518e-10 1.30935e-10 -1.14321e-10 5e-05 1.46608e-10 
132 1 0.104177 0.0179861 0.00697724 0.00568324 -0.000172654 -0.000133204 4.79111e-11 -1.16128e-10 -2.81857e-10 5e-05 1.46608e-10 
133 1 0.10393 0.0165864 0.00776317 0.00597243 -0.000248275 0.000469094 1.00367e-10 7.78547e-11 -4.86703e-11 5e-05 1.46608e-10 
134 1 0.104098 0.0172175 0.00730022 0.00562924 -9.9723e-05 0.000338333 -4.7151e-10 3.44097e-10 -3.34385e-10 5e-05 1.46608e-10 
135 1 0.103725 0.0161644 0.00806835 0.0058742 -0.000222669 0.000444808 -4.0461e-11 -6.38694e-11 3.71863e-11 5e-05 1.46608e-10 
136 1 0.0976751 0.0159729 0.00819411 0.00597774 2.54451e-06 2.02934e-05 5.27423e-11 4.83444e-11 -4.18717e-11 5e-05 1.46608e-10 
137 1 0.104212 0.0186037 0.0069388 0.00546521 -0.000221803 0.00050865 9.63443e-12 7.76011e-11 4.23741e-11 5e-05 1.46608e-10 
138 1 0.103876 0.0167159 0.00766397 0.00601291 -0.000224529 0.000454038 1.38771e-11 1.19004e-10 -9.81395e-11 5e-05 1.46608e-10 
140 1 0.104291 0.0185421 0.00694579 0.00545838 -0.000253258 0.000508481 1.16719e-10 1.39551e-10 1.56609e-11 5e-05 1.46608e-10 
141 1 0.097718 0.0161218 0.00806738 0.00602914 6.10689e-06 1.65422e-05 -1.31022e-10 5.99363e-11 -5.47603e-11 5e-05 1.46608e-10 
142 1 0.098124 0.0173255 0.00720588 0.00576665 3.66545e-06 -9.77642e-06 -3.85057e-11 2.76319e-11 -2.02718e-11 5e-05 1.46608e-10 
143 1 0.0976214 0.0160977 0.00808803 0.00601843 2.06291e-05 4.16069e-06 2.78294e-11 8.16004e-11 -6.78501e-11 5e-05 1.46608e-10 
144 1 0.0980831 0.0171354 0.00725286 0.00573157 1.61701e-05 -1.03007e-05 -1.59191e-10 1.80331e-11 -1.2061e-11 5e-05 1.46608e-10 
146 1 0.0979425 0.0165921 0.00766749 0.00662731 0.000351585 -0.000275674 1.45731e-10 -9.45682e-11 8.51204e-11 5e-05 1.46608e-10 
147 1 0.0976534 0.0158981 0.00825772 0.00579898 -7.71798e-05 8.50772e-05 -5.29923e-12 -8.02117e-11 6.82521e-11 5e-05 1.46608e-10 
148 1 0.097934 0.0172649 0.00722114 0.00578294 3.14612e-05 -1.66283e-05 4.92928e-11 -7.76624e-11 4.30158e-12 5e-05 1.46608e-10 
149 1 0.104271 0.018444 0.00694342 0.00548049 -0.000248107 0.000512064 2.47659e-10 -1.36383e-11 -5.67592e-12 5e-05 1.46608e-10 
150 1 0.097987 0.0167428 0.00753931 0.00632817 -1.8117e-05 3.85089e-05 1.56341e-11 3.62988e-10 -3.109e-10 5e-05 1.46608e-10 
151 1 0.0983549 0.0175768 0.00714348 0.00564381 0.000313741 -8.61124e-05 1.24841e-11 5.19701e-11 -1.22815e-11 5e-05 1.46608e-10 
153 1 0.0977821 0.016345 0.00787745 0.00611442 -2.93189e-05 4.7148e-05 -3.40964e-11 -8.51123e-11 8.14792e-11 5e-05 1.46608e-10 
154 1 0.0980495 0.0173902 0.00719002 0.00578831 1.87267e-05 -1.29707e-05 -1.28002e-10 1.65638e-11 1.72317e-13 5e-05 1.46608e-10 
155 1 0.0981109 0.0176755 0.0071195 0.00579536 0.000171859 -5.22394e-05 3.00501e-11 3.76362e-11 -1.60294e-11 5e-05 1.46608e-10 
156 1 0.098029 0.0172952 0.00721351 0.00577678 1.85011e-05 -1.32494e-05 -2.06626e-11 -6.71691e-11 2.3861e-11 5e-05 1.46608e-10 
157 1 0.0219312 0.0187687 0.00551176 -3.82897e-14 8.17062e-14 2.95882e-13 3.09934e-22 4.97291e-22 -1.05672e-22 5e-05 1.46608e-10 
158 1 0.0981472 0.0175885 0.00722497 0.00591284 8.44651e-05 -7.97523e-05 -2.26357e-10 6.78899e-11 7.94592e-11 5e-05 1.46608e-10 
159 1 0.104235 0.0178282 0.00701053 0.00564834 -0.000147326 -0.000124034 9.97469e-11 -1.3022e-10 -1.84374e-11 5e-05 1.46608e-10 
160 1 0.0979955 0.01755 0.00715066 0.00582277 3.4936e-05 -1.70387e-05 -2.13275e-11 7.83422e-11 -2.7788e-11 5e-05 1.46608e-10 
162 1 0.0979545 0.0173599 0.00719763 0.00579503 2.86333e-05 -1.53095e-05 -4.89143e-11 -5.4576e-11 2.58281e-12 5e-05 1.46608e-10 
164 1 0.0982729 0.0180601 0.00702431 0.00565219 0.000145769 -4.38645e-05 1.09818e-10 -1.06994e-10 -5.83818e-11 5e-05 1.46608e-10 
165 1 0.0984614 0.0178408 0.00707814 0.0058543 0.000266373 -7.44973e-05 1.7822e-10 1.15928e-10 -2.81829e-11 5e-05 1.46608e-10 
166 1 0.103887 0.0164288 0.00787873 0.00588802 -0.000247357 0.000464306 -2.41966e-10 -9.26387e-11 5.33584e-11 5e-05 1.46608e-10 
167 1 0.0979641 0.0166667 0.00760405 0.00676065 0.000473462 -0.000379155 8.09403e-11 5.77308e-11 -4.74347e-11 5e-05 1.46608e-10 
168 1 0.09826 0.017546 0.00715122 0.00578007 0.000158365 -4.84799e-05 2.09173e-10 6.8952e-11 1.27506e-11 5e-05 1.46608e-10 
169 1 0.0984617 0.0181243 0.00700818 0.00551666 3.77502e-05 -1.75615e-05 8.02653e-12 -5.27135e-11 5.95423e-12 5e-05 1.46608e-10 
170 1 0.0982804 0.0176416 0.00712761 0.00577365 0.000465424 -0.000123779 8.85171e-11 -3.09728e-11 7.53746e-12 5e-05 1.46608e-10 
171 1 0.103909 0.0165076 0.00782099 0.00593976 -0.000254066 0.000472177 -2.41042e-10 -1.24858e-10 8.02558e-11 5e-05 1.46608e-10 
172 1 0.0983953 0.017768 0.00709623 0.00573812 0.000362594 -9.84389e-05 2.31845e-10 -1.22679e-10 2.51852e-11 5e-05 1.46608e-10 
173 1 0.104349 0.017955 0.0069793 0.00568926 -9.61436e-05 -0.000137869 -2.80654e-10 2.09314e-10 -1.53365e-10 5e-05 1.46608e-10 
174 1 0.0982057 0.0177062 0.00711177 0.00571506 0.000412476 -0.000110891 1.38474e-10 -1.17018e-10 2.482e-11 5e-05 1.46608e-10 
175 1 0.0919643 0.0174083 0.00720211 0.0059162 0.000225029 -0.000383831 -9.25216e-12 -3.29864e-10 -1.77545e-10 5e-05 1.46608e-10 
176 1 0.0980085 0.0172002 0.007237 0.00576621 1.95137e-05 -1.39956e-05 2.25304e-11 -1.15761e-10 2.29138e-11 5e-05 1.46608e-10 
177 1 0.0980361 0.0177401 0.00710368 0.00581382 4.619e-05 -2.05261e-05 -1.38667e-11 -5.37279e-11 -2.27919e-12 5e-05 1.46608e-10 
178 1 0.0985365 0.0180598 0.00702398 0.00557722 0.000107175 -3.50339e-05 1.58748e-11 -1.06107e-10 2.96325e-11 5e-05 1.46608e-10 
179 1 0.098443 0.0180255 0.00703259 0.00556193 0.000161128 -4.81841e-05 1.37966e-11 2.14111e-10 -5.10727e-11 5e-05 1.46608e-10 
181 1 0.0979734 0.0174605 0.00727398 0.0058095 4.4987e-05 -1.47567e-05 -2.51867e-10 -2.21294e-10 1.60822e-11 5e-05 1.46608e-10 
182 1 0.103855 0.0166372 0.00772171 0.00599082 -0.000225734 0.00045334 4.64594e-11 8.88485e-11 -8.02693e-11 5e-05 1.46608e-10 
183 1 0.0981855 0.0176108 0.00713534 0.00584709 0.000225824 -6.65355e-05 -6.17477e-13 -2.98713e-11 2.49758e-11 5e-05 1.46608e-10 
184 1 0.104237 0.0179946 0.0070572 0.00547376 -0.000303866 3.98154e-05 -4.13043e-10 7.0447e-11 7.01093e-12 5e-05 1.46608e-10 
185 1 0.0979134 0.0171699 0.0072446 0.00577429 3.35392e-05 -1.78036e-05 -1.80338e-11 -6.96171e-11 1.61172e-11 5e-05 1.46608e-10 
186 1 0.0980111 0.017368 0.00727966 0.00578247 4.05957e-05 -1.04156e-05 -1.72633e-10 9.31517e-11 2.29494e-11 5e-05 1.46608e-10 
187 1 0.104193 0.0172454 0.0072839 0.00563779 -7.36757e-05 0.000323607 -2.72981e-10 2.23634e-10 -1.47937e-10 5e-05 1.46608e-10 
188 1 0.104248 0.0182882 0.00694039 0.00547744 -0.000201007 0.0005053 3.4526e-10 -2.96854e-10 3.93528e-11 5e-05 1.46608e-10 
189 1 0.104231 0.0174035 0.00716768 0.00562606 -4.07194e-05 0.000298137 -2.062e-10 9.9788e-11 -4.23766e-11 5e-05 1.46608e-10 
190 1 0.0920978 0.0175954 0.00706296 0.00583707 0.000315173 -0.000476703 -2.40282e-11 -6.39126e-12 -6.23278e-12 5e-05 1.46608e-10 
191 1 0.104232 0.0187018 0.00694118 0.00553083 -0.000234479 0.000514406 -2.95636e-10 6.06856e-12 -4.84963e-11 5e-05 1.46608e-10 
192 1 0.0981986 0.0172608 0.00722174 0.00581861 6.9171e-05 -2.57371e-05 -1.63453e-10 -8.94825e-11 2.36253e-11 5e-05 1.46608e-10 
193 1 0.103995 0.0168227 0.00758992 0.00620582 -7.09908e-05 0.000347863 9.30352e-11 -3.19584e-11 1.71603e-11 5e-05 1.46608e-10 
194 1 0.0980266 0.0168921 0.00741226 0.00592684 8.35554e-05 -4.82729e-05 1.11717e-10 7.8912e-11 -9.54683e-11 5e-05 1.46608e-10 
195 1 0.0984816 0.0179359 0.00705464 0.00581769 0.000269262 -7.56163e-05 1.01071e-10 2.76966e-10 -6.40941e-11 5e-05 1.46608e-10 
196 1 0.0974401 0.0154193 0.00865074 0.00560023 0.000141101 7.49491e-05 5.30524e-11 1.24678e-10 -1.08842e-10 5e-05 1.46608e-10 
197 1 0.0920205 0.017656 0.00704429 0.00582786 0.000423024 -8.39868e-05 5.45317e-11 3.89833e-11 8.81436e-11 5e-05 1.46608e-10 
198 1 0.0978351 0.0168415 0.00745468 0.00624704 -3.53874e-05 5.09796e-05 -4.26788e-11 -2.94213e-10 9.16786e-11 5e-05 1.46608e-10 
199 1 0.097975 0.017455 0.00717415 0.00580498 3.2136e-05 -1.56758e-05 -1.51842e-10 3.70166e-11 -1.19947e-11 5e-05 1.46608e-10 
200 1 0.0979509 0.0169417 0.00736972 0.00576719 2.71294e-05 -3.92979e-06 3.96164e-10 -3.01676e-10 2.84838e-10 5e-05 1.46608e-10 
201 1 0.0984063 0.0182051 0.00698831 0.00555148 6.67122e-05 -2.51814e-05 4.30375e-12 4.07424e-11 -4.0205e-12 5e-05 1.46608e-10 
202 1 0.0982191 0.0173558 0.00719826 0.00587016 8.10263e-05 -2.84634e-05 -2.00085e-10 -4.88579e-11 5.77869e-12 5e-05 1.46608e-10 
203 1 0.104455 0.0183946 0.00696034 0.00545373 -0.000211277 0.00050794 4.52549e-10 -6.78868e-10 2.80677e-11 5e-05 1.46608e-10 
204 1 0.0979322 0.0168667 0.00743349 0.00595683 6.81196e-05 -3.58962e-05 -9.9815e-10 -5.55506e-10 5.16086e-10 5e-05 1.46608e-10 
205 1 0.098242 0.0179971 0.00711274 0.00568951 0.0001311 -4.13239e-05 -9.73537e-11 1.34981e-11 2.17425e-10 5e-05 1.46608e-10 
206 1 0.0982258 0.0178017 0.00708817 0.00570321 0.000239772 -6.81453e-05 1.42079e-10 -1.17006e-11 -3.3716e-12 5e-05 1.46608e-10 
207 1 0.0977607 0.0162706 0.00794075 0.00606755 -1.65658e-05 3.61593e-05 -3.4878e-10 -1.06164e-10 8.76131e-11 5e-05 1.46608e-10 
208 1 0.09807 0.0174852 0.00716654 0.00580919 1.58244e-05 -1.31694e-05 -1.11518e-10 3.72488e-11 8.57497e-12 5e-05 1.46608e-10 
209 1 0.098008 0.0168172 0.00747594 0.00598392 4.15959e-05 -1.40039e-05 -6.83528e-10 4.80977e-10 -4.12978e-10 5e-05 1.46608e-10 
210 1 0.104083 0.0178226 0.0070995 0.00564622 -0.000222674 -0.00010297 2.60451e-10 6.87728e-11 -6.96839e-11 5e-05 1.46608e-10 
211 1 0.104334 0.0182386 0.00694819 0.00548017 -0.000215501 0.000510318 1.73077e-10 -2.74472e-10 -1.80153e-10 5e-05 1.46608e-10 
212 1 0.0983006 0.0177369 0.00710405 0.00569848 0.000468879 -0.000124491 1.79381e-10 -1.22059e-10 3.00494e-11 5e-05 1.46608e-10 
213 1 0.104174 0.0171663 0.007342 0.00559927 -8.46437e-05 0.000328522 -4.1436e-10 2.27243e-10 -2.13176e-10 5e-05 1.46608e-10 
214 1 0.104289 0.0181847 0.00701926 0.00548722 -0.000205391 0.000514905 5.45957e-11 9.78934e-11 -2.64444e-10 5e-05 1.46608e-10 
215 1 0.0920783 0.0175149 0.00712122 0.00593877 0.000285231 -0.00045586 7.91199e-11 -1.3321e-10 8.23245e-11 5e-05 1.46608e-10 
216 1 0.098016 0.017645 0.00712718 0.00583625 4.20622e-05 -2.01727e-05 -3.98039e-11 1.08469e-11 -4.96617e-13 5e-05 1.46608e-10 
217 1 0.103952 0.0166652 0.00770543 0.00599524 -0.000248101 0.000469667 8.34383e-12 8.47329e-11 -5.04905e-11 5e-05 1.46608e-10 
218 1 0.0981509 0.0178661 0.00707238 0.005728 0.000131096 -4.11032e-05 2.03674e-10 1.98253e-10 -3.17538e-11 5e-05 1.46608e-10 
219 1 0.104236 0.0183672 0.00700059 0.00550399 -0.000203319 0.000509003 3.36775e-10 -1.13383e-10 -5.82651e-11 5e-05 1.46608e-10 
220 1 0.0980724 0.0176538 0.00720923 0.00587206 4.63353e-05 -4.95536e-05 9.23455e-11 8.51291e-12 -3.10829e-11 5e-05 1.46608e-10 
221 1 0.0919811 0.0171022 0.00739381 0.00615535 0.000729557 -0.000212524 -3.4356e-10 5.1582e-10 -3.0787e-10 5e-05 1.46608e-10 
222 1 0.103973 0.0167439 0.00764768 0.00600589 -0.000252452 0.000473504 -2.58378e-11 -4.14895e-11 2.15019e-11 5e-05 1.46608e-10 
223 1 0.0981445 0.0174205 0.0071824 0.00579297 -2.8605e-06 -6.41836e-06 -1.025e-10 5.12092e-11 2.15824e-11 5e-05 1.46608e-10 
224 1 0.0978942 0.01708 0.00728382 0.00574525 4.02346e-05 -2.17035e-05 -4.84082e-11 -1.46641e-10 6.26629e-11 5e-05 1.46608e-10 
225 1 0.104255 0.0179239 0.00698882 0.00570204 -0.000148954 -0.000127521 1.41071e-10 -6.08749e-11 -2.93879e-11 5e-05 1.46608e-10 
226 1 0.0983752 0.0176723 0.00711989 0.00574871 0.000529462 -0.000139564 1.37545e-10 -7.56427e-11 1.97553e-11 5e-05 1.46608e-10 
227 1 0.0920419 0.0173554 0.00723648 0.00592375 0.000224117 -0.000416391 7.9115e-12 -7.84403e-11 5.71771e-11 5e-05 1.46608e-10 
228 1 0.0919828 0.0174879 0.00714453 0.00590614 0.000216349 -0.000413872 -4.9964e-11 -1.16703e-10 6.44445e-11 5e-05 1.46608e-10 
229 1 0.098052 0.0175585 0.00723273 0.00586421 3.94784e-05 -3.48774e-05 -3.06514e-11 -1.11422e-11 -9.15946e-11 5e-05 1.46608e-10 
230 1 0.0983299 0.0182678 0.00697296 0.00556597 9.3655e-05 -3.14939e-05 -6.1448e-11 5.13707e-12 4.61183e-12 5e-05 1.46608e-10 
231 1 0.0919451 0.0173254 0.00725459 0.0058446 0.000443776 -4.16118e-05 1.07153e-10 8.65763e-13 -5.85898e-12 5e-05 1.46608e-10 
232 1 0.0978993 0.0164432 0.00779426 0.00618033 -6.68789e-05 7.94453e-05 5.9827e-11 -1.22529e-10 9.72827e-11 5e-05 1.46608e-10 
233 1 0.098045 0.0169675 0.00734808 0.00575992 4.43133e-05 -1.79165e-05 1.02284e-10 -2.47314e-10 2.11865e-10 5e-05 1.46608e-10 
234 1 0.104173 0.0184076 0.00693408 0.00550784 -0.00021787 0.000503914 8.84913e-11 -4.12854e-12 -3.62417e-11 5e-05 1.46608e-10 
235 1 0.0982892 0.0185206 0.00691061 0.0056271 8.5211e-05 -2.96693e-05 1.51352e-11 1.1872e-10 -2.87883e-11 5e-05 1.46608e-10 
236 1 0.0983471 0.0183634 0.00694933 0.0056111 8.2327e-05 -2.90553e-05 -1.27247e-11 -1.42709e-11 1.14607e-11 5e-05 1.46608e-10 
237 1 0.0984431 0.0183965 0.006941 0.0056272 7.18689e-05 -2.64645e-05 -2.46451e-11 1.13078e-11 -1.56845e-13 5e-05 1.46608e-10 
239 1 0.0917558 0.0165736 0.00771162 0.0062172 0.000387217 6.41038e-07 -5.25811e-12 -9.94023e-11 6.25884e-11 5e-05 1.46608e-10 
240 1 0.091821 0.0168239 0.00755956 0.00621734 0.000365543 1.42821e-05 -8.66891e-11 -2.27963e-10 1.33304e-10 5e-05 1.46608e-10 
241 1 0.0917341 0.0164902 0.00776231 0.00621471 0.000382871 3.39366e-06 -3.08468e-13 2.3421e-11 -1.50723e-11 5e-05 1.46608e-10 
242 1 0.0981577 0.0170707 0.00726872 0.00576221 5.70271e-05 -2.37567e-05 -1.75778e-10 -4.25771e-11 -4.23651e-11 5e-05 1.46608e-10 
243 1 0.0979111 0.0167922 0.00749692 0.00632665 7.85371e-06 1.7044e-05 -3.91455e-10 -8.27053e-11 7.41385e-11 5e-05 1.46608e-10 
244 1 0.0917775 0.016657 0.00766093 0.00621898 0.00038646 1.38487e-06 -9.11051e-11 -2.58096e-10 1.53788e-10 5e-05 1.46608e-10 
246 1 0.0919067 0.0171577 0.00735666 0.00582994 0.000430316 -4.00256e-05 2.30849e-10 4.79764e-11 -6.1279e-11 5e-05 1.46608e-10 
247 1 0.0981727 0.0179642 0.00704813 0.00566481 0.000142271 -4.60586e-05 -6.02514e-12 1.37481e-10 -4.34013e-11 5e-05 1.46608e-10 