ITEM: TIMESTEP
2200000
ITEM: NUMBER OF ATOMS
287
ITEM: BOX BOUNDS ff ff ff
-0.02 0.43
-0.02 0.06
-0.02 0.07
ITEM: ATOMS id type x y z vx vy vz fx fy fz radius mass 
1 1 0.0257216 0.0165773 0.00764392 0.00627593 -0.000290226 0.000345108 3.54046e-10 -1.71386e-10 1.89655e-10 5e-05 1.46608e-10 
2 1 0.026074 0.017302 0.00722695 0.0057623 -0.000385278 -0.000105437 6.83635e-10 -1.74836e-10 -5.00014e-11 5e-05 1.46608e-10 
3 1 0.0197468 0.0170392 0.00736145 0.00515909 -0.00250332 0.00103068 -1.00414e-09 4.50141e-10 -1.96272e-10 5e-05 1.46608e-10 
4 1 0.0260431 0.0180107 0.00709604 0.00541871 -0.000282848 -0.000114472 -5.24115e-11 -3.22333e-12 -3.7028e-12 5e-05 1.46608e-10 
5 1 0.0256041 0.016474 0.00771961 0.00609376 -0.000342798 0.000378976 -1.42647e-10 -4.04425e-10 2.68628e-10 5e-05 1.46608e-10 
6 1 0.0316338 0.0165501 0.00758051 0.00625119 -0.00032328 3.5164e-05 -7.10935e-12 -3.74285e-11 3.58363e-11 5e-05 1.46608e-10 
7 1 0.0257868 0.0172091 0.0072531 0.00577171 -0.000318188 -9.96807e-05 -9.81075e-11 -5.28913e-11 -2.40671e-11 5e-05 1.46608e-10 
8 1 0.0254957 0.0160834 0.00801238 0.00608717 -0.000239784 0.000302121 -1.40834e-10 -1.45367e-10 1.09566e-10 5e-05 1.46608e-10 
9 1 0.031895 0.0177114 0.0070764 0.00563543 -0.000117993 -0.000209285 -7.63883e-12 -1.07411e-11 -7.86037e-12 5e-05 1.46608e-10 
10 1 0.0257272 0.0169439 0.00736722 0.00564539 -0.000383991 0.000398759 2.0451e-11 -2.55846e-11 4.4385e-11 5e-05 1.46608e-10 
11 1 0.0261164 0.0174972 0.00718932 0.00561657 -0.000214299 -0.000133406 8.24812e-14 -1.67244e-10 4.37965e-11 5e-05 1.46608e-10 
12 1 0.0199442 0.0179582 0.00704135 0.00516046 -0.00213692 0.000517434 -5.48453e-10 1.23326e-09 4.69169e-10 5e-05 1.46608e-10 
13 1 0.0255824 0.0163959 0.00777817 0.00610454 -0.000309069 0.000355143 -2.23786e-10 -4.88133e-10 3.63589e-10 5e-05 1.46608e-10 
14 1 0.0196665 0.0166864 0.00753127 0.00546203 -0.00302051 0.00125706 -4.42414e-10 -2.29107e-09 1.1901e-09 5e-05 1.46608e-10 
15 1 0.0259244 0.0174334 0.00720804 0.00570165 -0.000394941 -9.22271e-05 1.43317e-10 -1.95111e-10 2.3871e-10 5e-05 1.46608e-10 
16 1 0.0196462 0.0165981 0.00757373 0.00553514 -0.00322296 0.00135071 3.48184e-10 -1.52872e-09 9.75417e-10 5e-05 1.46608e-10 
17 1 0.0257085 0.0168653 0.00742617 0.00561715 -0.000364425 0.000385847 1.48918e-11 -3.27071e-11 1.67018e-11 5e-05 1.46608e-10 
18 1 0.0317758 0.017161 0.00728096 0.00577667 2.0526e-05 0.000253515 2.50832e-11 4.80077e-11 -2.12256e-11 5e-05 1.46608e-10 
19 1 0.0255608 0.0163178 0.00783672 0.0061017 -0.000282659 0.000334574 -9.48756e-11 -3.92994e-10 2.92451e-10 5e-05 1.46608e-10 
21 1 0.0256999 0.0164992 0.00770247 0.00626101 -0.000246785 0.000310458 -1.22184e-10 -1.3175e-10 8.65332e-11 5e-05 1.46608e-10 
22 1 0.025828 0.0174014 0.00721605 0.00572325 -0.000479125 -8.1279e-05 2.65739e-10 1.82428e-10 7.95216e-11 5e-05 1.46608e-10 
23 1 0.0201171 0.0183779 0.00697872 0.00500326 -0.002221 0.000534512 1.64944e-09 -5.90836e-10 1.43983e-10 5e-05 1.46608e-10 
24 1 0.0318362 0.0174309 0.00716472 0.00558819 5.21639e-05 0.000234173 1.05094e-10 5.27762e-11 -1.24178e-11 5e-05 1.46608e-10 
25 1 0.0257663 0.0171124 0.00726808 0.00578785 -0.000213151 6.16488e-05 7.93949e-12 5.64974e-11 -1.47315e-11 5e-05 1.46608e-10 
26 1 0.0317154 0.0168911 0.0073972 0.005702 3.0389e-05 0.000245687 6.15501e-11 3.32057e-11 -1.08582e-11 5e-05 1.46608e-10 
27 1 0.0200224 0.0183458 0.00698068 0.00510676 -0.00210988 0.00051862 -6.57414e-10 -6.30594e-10 5.16048e-12 5e-05 1.46608e-10 
28 1 0.0260237 0.0179144 0.00711456 0.00538768 -0.000273545 -0.000115593 -3.85389e-11 -2.57732e-12 -9.7773e-12 5e-05 1.46608e-10 
29 1 0.0255391 0.0162397 0.00789527 0.00610117 -0.000265097 0.000321372 8.24367e-12 -2.2441e-10 1.71386e-10 5e-05 1.46608e-10 
30 1 0.0260774 0.0176544 0.00716128 0.005491 -0.000225652 -0.000127242 1.77169e-10 1.46623e-10 -3.01206e-11 5e-05 1.46608e-10 
31 1 0.0258074 0.0173053 0.00723456 0.00573279 -0.000488069 -8.63098e-05 -2.00479e-11 -1.1037e-10 -3.40879e-11 5e-05 1.46608e-10 
32 1 0.0259039 0.0173372 0.00722643 0.0057484 -0.000421059 -9.44441e-05 3.04328e-10 -1.34469e-10 1.27449e-10 5e-05 1.46608e-10 
33 1 0.0316549 0.0166213 0.00751344 0.00562954 4.75895e-05 0.000234943 -1.85576e-11 -3.57337e-11 1.9772e-11 5e-05 1.46608e-10 
34 1 0.0256896 0.0167866 0.00748524 0.00562067 -0.000283977 0.000336777 1.93075e-10 1.11446e-09 -9.36615e-10 5e-05 1.46608e-10 
35 1 0.0258835 0.017241 0.00724433 0.00579554 -0.000445113 -0.000210542 -9.81445e-11 -7.58713e-11 2.84348e-10 5e-05 1.46608e-10 
36 1 0.0319344 0.0178996 0.00702123 0.00567986 -0.000130844 -0.000207619 8.70561e-13 -5.08903e-12 8.22447e-13 5e-05 1.46608e-10 
37 1 0.0258415 0.0170541 0.00730004 0.00559897 -0.000280989 0.000116823 -1.93674e-10 -1.45338e-10 2.92879e-11 5e-05 1.46608e-10 
38 1 0.0259989 0.0173673 0.00721713 0.00574443 -0.000373276 -0.000100728 5.8163e-10 -2.73868e-10 1.43574e-10 5e-05 1.46608e-10 
39 1 0.0318556 0.0175232 0.00713158 0.00559066 -0.000107228 -0.000213504 -7.81785e-11 -9.6247e-13 4.39924e-11 5e-05 1.46608e-10 
41 1 0.0256475 0.0166302 0.00760251 0.00615573 -0.000376584 0.000411194 -1.28526e-10 1.78541e-10 -1.11921e-10 5e-05 1.46608e-10 
42 1 0.0258484 0.0174976 0.00719753 0.00535978 -0.000325958 -0.000104733 -5.01555e-10 -4.70513e-10 1.00552e-10 5e-05 1.46608e-10 
44 1 0.0260216 0.0174666 0.00719795 0.00566654 -0.000292561 -0.000120511 -6.30075e-11 3.74284e-10 -1.19855e-10 5e-05 1.46608e-10 
45 1 0.0316751 0.0167112 0.0074747 0.00564871 4.13234e-05 0.000238559 -6.24723e-12 -2.24321e-11 1.23439e-11 5e-05 1.46608e-10 
46 1 0.0317556 0.0170711 0.00731971 0.00575381 2.52705e-05 0.000251105 -1.44695e-11 4.45646e-11 -2.7107e-11 5e-05 1.46608e-10 
47 1 0.0256691 0.0167083 0.00754396 0.00619887 -0.000352873 0.000402147 6.55585e-10 9.30841e-10 -6.21712e-10 5e-05 1.46608e-10 
48 1 0.0258884 0.01769 0.00716049 0.00551332 -0.000319514 -0.000111949 -2.14807e-10 -1.83311e-10 4.56962e-11 5e-05 1.46608e-10 
49 1 0.0317355 0.0169811 0.00735846 0.00572619 2.64724e-05 0.000248132 1.89919e-11 9.32579e-12 -8.66943e-12 5e-05 1.46608e-10 
50 1 0.0259478 0.0179788 0.00710492 0.00540041 -0.000243446 -0.000121303 6.09709e-11 2.53677e-10 -5.4347e-11 5e-05 1.46608e-10 
51 1 0.0259283 0.0178825 0.00712345 0.00536118 -0.00034228 -0.000101351 2.54758e-12 -2.13042e-10 4.30175e-11 5e-05 1.46608e-10 
52 1 0.0199247 0.0178613 0.00705652 0.00521671 -0.00208555 0.000540043 -1.45677e-09 -4.63131e-11 -4.69212e-10 5e-05 1.46608e-10 
53 1 0.0317959 0.017251 0.00724222 0.00580222 1.63392e-05 0.000256418 3.11321e-11 -1.17217e-11 -3.44864e-12 5e-05 1.46608e-10 
54 1 0.025678 0.0164209 0.00776115 0.00612737 -0.000302679 0.000350446 -2.31117e-11 -3.60285e-10 2.67128e-10 5e-05 1.46608e-10 
55 1 0.0197067 0.0168629 0.00744631 0.00518389 -0.00267168 0.00111315 1.02663e-09 7.16197e-10 -4.44056e-10 5e-05 1.46608e-10 
56 1 0.0258629 0.0171454 0.00726543 0.00571251 -0.00041476 -0.000163946 -2.99894e-10 -4.90316e-11 2.87318e-10 5e-05 1.46608e-10 
57 1 0.0316952 0.0168012 0.00743595 0.00568134 3.64233e-05 0.000242292 -1.56048e-11 3.1453e-11 -8.58025e-12 5e-05 1.46608e-10 
59 1 0.025917 0.0169965 0.00733126 0.00556365 -0.000225477 0.000281486 -1.18371e-10 -2.66735e-11 -2.30099e-11 5e-05 1.46608e-10 
60 1 0.0259352 0.0170767 0.00727335 0.00565885 -0.000427171 0.000165398 -3.00061e-10 -1.40131e-10 6.03728e-11 5e-05 1.46608e-10 
61 1 0.0256258 0.0165521 0.00766106 0.00609877 -0.000371701 0.000400895 -1.82633e-10 -1.9737e-10 1.30909e-10 5e-05 1.46608e-10 
62 1 0.0260415 0.0175628 0.00717943 0.00556557 -0.000252346 -0.000124789 -2.72006e-10 1.60347e-10 -1.63557e-11 5e-05 1.46608e-10 
63 1 0.0259845 0.0177219 0.00715198 0.00546949 -0.000291223 -0.000119286 -1.41438e-10 -4.19591e-11 3.53684e-11 5e-05 1.46608e-10 
64 1 0.0318161 0.0173409 0.00720347 0.00582501 1.10468e-05 0.000259626 -2.69664e-11 -6.24045e-11 2.97963e-11 5e-05 1.46608e-10 
65 1 0.0200389 0.0179904 0.00703939 0.00525615 -0.00223573 0.000546095 -1.66592e-09 2.94198e-10 -2.42325e-10 5e-05 1.46608e-10 
66 1 0.01998 0.0176995 0.00708492 0.00479352 -0.00276404 0.000621816 -6.60111e-10 5.81632e-10 -1.16414e-10 5e-05 1.46608e-10 
67 1 0.0260939 0.0173982 0.00720843 0.00565533 -0.000313692 -0.000115862 -4.21859e-11 1.7943e-10 -3.08892e-11 5e-05 1.46608e-10 
68 1 0.0260989 0.017849 0.0071244 0.00539307 -0.000275823 -0.000115276 -2.86066e-11 2.1676e-11 -2.06403e-11 5e-05 1.46608e-10 
69 1 0.0257846 0.0168124 0.00746765 0.0055836 -0.000193159 0.000258932 4.95639e-10 2.60404e-10 -1.1415e-10 5e-05 1.46608e-10 
70 1 0.0318753 0.0176173 0.00710399 0.00561213 -0.000111865 -0.000210916 -7.79605e-13 -1.40937e-11 -4.78007e-13 5e-05 1.46608e-10 
71 1 0.0196867 0.0167746 0.00748879 0.00538401 -0.00283961 0.00118209 1.75379e-09 -1.33718e-09 5.59027e-10 5e-05 1.46608e-10 
72 1 0.0260792 0.0177527 0.00714294 0.00545951 -0.000223477 -0.000125951 -9.60414e-11 -7.6388e-11 -7.92164e-12 5e-05 1.46608e-10 
73 1 0.0257462 0.0170234 0.0073091 0.00576308 -0.00019027 0.000100565 1.1839e-11 3.7155e-11 -9.83851e-12 5e-05 1.46608e-10 
74 1 0.0259444 0.0175294 0.00718864 0.00561341 -0.000355061 -0.000108582 -4.17051e-10 -1.08997e-10 2.09038e-11 5e-05 1.46608e-10 
76 1 0.0202593 0.0190606 0.00687025 0.00480655 -0.00258575 0.000573981 -6.58585e-10 5.72688e-10 -1.16358e-10 5e-05 1.46608e-10 
77 1 0.0261957 0.0187097 0.00696126 0.00549304 -0.000377358 -9.93971e-05 -6.43829e-11 8.97582e-11 -1.63208e-11 5e-05 1.46608e-10 
78 1 0.019767 0.0171275 0.00731897 0.00523811 -0.0024492 0.00099289 1.83407e-10 1.76609e-10 8.19237e-11 5e-05 1.46608e-10 
79 1 0.0199637 0.0180551 0.00702618 0.00511777 -0.00214714 0.000522167 -2.2624e-10 1.28384e-09 -4.47452e-10 5e-05 1.46608e-10 
80 1 0.0260062 0.0182678 0.00704934 0.00546116 -0.000277923 -0.000117053 4.28752e-11 2.74597e-10 -5.40235e-11 5e-05 1.46608e-10 
81 1 0.0199051 0.0177645 0.00707218 0.00520471 -0.00214891 0.000614978 -1.12221e-09 -5.27183e-10 -7.86917e-10 5e-05 1.46608e-10 
82 1 0.020042 0.0184426 0.00696552 0.00509412 -0.00222293 0.000533507 1.13489e-09 -1.88965e-09 3.39855e-10 5e-05 1.46608e-10 
83 1 0.0200072 0.0173736 0.00719481 0.00553919 -0.0019436 0.000752187 -3.6241e-10 4.37334e-10 -2.36305e-10 5e-05 1.46608e-10 
84 1 0.0319147 0.0178055 0.00704882 0.00565768 -0.000124481 -0.000208212 3.17093e-12 -5.45908e-12 4.76816e-12 5e-05 1.46608e-10 
85 1 0.0198581 0.0170893 0.00733425 0.0051504 -0.00253927 0.00104619 1.30811e-10 1.21164e-09 -6.28054e-10 5e-05 1.46608e-10 
86 1 0.0260042 0.0178181 0.00713308 0.00540031 -0.000280908 -0.000116587 -1.03368e-11 -8.97114e-11 1.79795e-11 5e-05 1.46608e-10 
87 1 0.0258983 0.0169179 0.00739022 0.00557044 -0.000225163 0.000282563 9.64601e-11 -2.11842e-12 -9.95025e-12 5e-05 1.46608e-10 
88 1 0.0260649 0.0185568 0.00699376 0.00547309 -0.00036463 -0.000101198 8.9618e-12 3.49554e-11 -7.54389e-12 5e-05 1.46608e-10 
89 1 0.0260258 0.0183642 0.00703081 0.00545095 -0.000353185 -0.000102652 1.76613e-11 -4.78071e-11 7.4681e-12 5e-05 1.46608e-10 
90 1 0.0260535 0.0172059 0.0072456 0.00572489 -0.00040439 -0.000399706 -1.48149e-10 -7.4825e-11 -5.53382e-10 5e-05 1.46608e-10 
91 1 0.0199832 0.018152 0.00701101 0.00519218 -0.00211254 0.000531661 -9.61068e-10 1.14169e-09 -1.61207e-10 5e-05 1.46608e-10 
92 1 0.0261377 0.0180418 0.00708733 0.00544059 -0.000334452 -0.000104866 1.26698e-10 -3.83991e-11 6.94263e-12 5e-05 1.46608e-10 
93 1 0.0261212 0.018396 0.00702194 0.00547647 -0.000347575 -0.000104486 -6.64332e-11 -1.27339e-10 2.71634e-11 5e-05 1.46608e-10 
94 1 0.0261975 0.0183321 0.00703147 0.00548602 -0.000346599 -0.000104978 -6.69374e-11 -3.1313e-10 5.84479e-11 5e-05 1.46608e-10 
95 1 0.0259867 0.0181714 0.00706787 0.00544103 -0.000284049 -0.000115155 1.44347e-11 1.73392e-10 -3.42372e-11 5e-05 1.46608e-10 
96 1 0.0261573 0.0181381 0.0070688 0.00545392 -0.000337672 -0.000105551 -3.04823e-11 3.41244e-11 -8.07011e-12 5e-05 1.46608e-10 
97 1 0.0198653 0.0175747 0.00712051 0.00520831 -0.00219956 0.000834934 5.54869e-10 4.89605e-10 -1.55242e-09 5e-05 1.46608e-10 
98 1 0.0260845 0.0186531 0.00697524 0.00548629 -0.000363762 -0.000101882 1.00161e-10 8.9686e-11 -1.51588e-11 5e-05 1.46608e-10 
99 1 0.0200194 0.0178935 0.00705456 0.00547558 -0.00242222 0.000587315 -9.46677e-10 -1.11078e-09 3.32237e-10 5e-05 1.46608e-10 
100 1 0.0260331 0.0171103 0.0072668 0.00587136 -0.00029633 0.000139836 -3.29711e-11 1.73485e-10 -3.58939e-11 5e-05 1.46608e-10 
101 1 0.0199596 0.0176025 0.00710007 0.00491632 -0.00232924 0.000553368 -6.16367e-10 4.76927e-10 -2.46101e-10 5e-05 1.46608e-10 
102 1 0.0643568 0.0187248 0.00531097 4.18812e-15 1.05581e-14 8.29566e-14 1.88614e-21 -8.81516e-22 1.44757e-23 5e-05 1.46608e-10 
103 1 0.24257 0.0191927 0.00520306 7.51214e-23 6.65775e-22 8.29106e-22 0 2.58494e-26 0 5e-05 1.46608e-10 
104 1 0.0202709 0.0187006 0.00693129 0.00496679 -0.00228209 0.000547246 -7.0097e-10 5.33471e-10 -8.75948e-11 5e-05 1.46608e-10 
105 1 0.0198269 0.0173924 0.00719162 0.00525646 -0.00232001 0.000875671 -7.92902e-10 1.91804e-10 -6.49868e-10 5e-05 1.46608e-10 
106 1 0.0203467 0.0186368 0.00694437 0.00460471 -0.00256064 0.000579206 -6.64853e-10 5.71645e-10 -1.16526e-10 5e-05 1.46608e-10 
107 1 0.0197871 0.0172157 0.00727649 0.00527106 -0.00240471 0.000981272 4.06035e-10 -3.08427e-11 7.86247e-11 5e-05 1.46608e-10 
108 1 0.0258223 0.0169695 0.00734976 0.00555241 -0.000196456 0.000258005 7.5226e-11 -5.94087e-11 1.25222e-11 5e-05 1.46608e-10 
109 1 0.0259084 0.0177862 0.00714197 0.00552108 -0.000306845 -0.000113121 2.05733e-10 4.86727e-10 -1.04686e-10 5e-05 1.46608e-10 
110 1 0.026213 0.0179766 0.00709714 0.00547014 -0.000349215 -0.000104187 1.58089e-10 -2.89342e-12 -5.17815e-12 5e-05 1.46608e-10 
111 1 0.0261236 0.0188457 0.00693819 0.0055155 -0.000328076 -0.000109332 -8.5362e-12 1.6939e-10 -3.43221e-11 5e-05 1.46608e-10 
112 1 0.0198851 0.0176689 0.00709361 0.00522502 -0.00215287 0.000763645 2.60452e-10 1.54456e-10 -9.49929e-10 5e-05 1.46608e-10 
113 1 0.0205157 0.0185307 0.00696761 0.00459616 -0.00197634 0.0004829 -6.98105e-10 5.08932e-10 -1.05404e-10 5e-05 1.46608e-10 
114 1 0.0202118 0.01841 0.00697677 0.00490584 -0.00241875 0.000566504 9.09902e-10 2.86514e-10 -5.09702e-11 5e-05 1.46608e-10 
115 1 0.0259643 0.0176256 0.00717012 0.00553051 -0.000312097 -0.000114207 -3.01704e-10 -2.75949e-11 -1.21078e-11 5e-05 1.46608e-10 
116 1 0.0258038 0.016891 0.00740881 0.00554609 -0.000195935 0.000253299 2.38325e-11 2.0847e-10 -1.0144e-10 5e-05 1.46608e-10 
117 1 0.0256563 0.0163428 0.0078197 0.0061244 -0.000283467 0.000335814 -1.60933e-11 -3.02298e-10 2.3112e-10 5e-05 1.46608e-10 
118 1 0.019727 0.0169531 0.00740829 0.00510269 -0.00257867 0.0010683 7.7835e-10 6.59937e-10 -3.26593e-10 5e-05 1.46608e-10 
119 1 0.0259579 0.0171751 0.00725489 0.00586088 -0.000328837 2.10488e-05 -2.23695e-10 -1.24343e-10 1.68151e-10 5e-05 1.46608e-10 
120 1 0.0255174 0.0161616 0.00795383 0.00609867 -0.000251061 0.00031079 -3.34602e-11 -1.43381e-10 1.12635e-10 5e-05 1.46608e-10 
121 1 0.025474 0.0160053 0.00807094 0.00607571 -0.000233742 0.000297248 -5.6094e-11 -1.69093e-10 1.26159e-10 5e-05 1.46608e-10 
122 1 0.0262324 0.0180729 0.00707862 0.00547347 -0.000340695 -0.00010542 8.57944e-11 1.14241e-11 -5.5386e-12 5e-05 1.46608e-10 
123 1 0.019903 0.0173334 0.00721881 0.00529641 -0.00234996 0.000881893 -1.05395e-09 -1.68062e-10 -3.16768e-11 5e-05 1.46608e-10 
124 1 0.0260821 0.0182033 0.00705899 0.00545371 -0.000312494 -0.000110394 -1.87746e-11 1.11656e-10 -1.36874e-11 5e-05 1.46608e-10 
125 1 0.0256346 0.0162646 0.00787831 0.0061018 -0.000273114 0.000327514 -9.48031e-11 -2.31963e-10 1.68674e-10 5e-05 1.46608e-10 
126 1 0.0258684 0.0175938 0.00717901 0.00550465 -0.000330163 -0.000109506 -1.79713e-11 -1.48504e-10 9.60995e-12 5e-05 1.46608e-10 
127 1 0.0198455 0.0174809 0.00714894 0.00513022 -0.00222929 0.000853523 -9.1638e-10 1.78425e-09 5.20655e-12 5e-05 1.46608e-10 
128 1 0.0259672 0.0180751 0.0070864 0.00538998 -0.000320808 -0.000106715 -1.62676e-11 -9.79504e-11 1.82351e-11 5e-05 1.46608e-10 
129 1 0.0260454 0.0184605 0.00701228 0.00546584 -0.000358375 -0.000102001 1.19613e-11 3.03671e-12 1.30603e-12 5e-05 1.46608e-10 
130 1 0.0201367 0.0184748 0.00696356 0.00462209 -0.00227881 0.000535803 -6.97004e-10 5.5393e-10 -8.14844e-11 5e-05 1.46608e-10 
131 1 0.0199998 0.0177965 0.00706973 0.00516046 -0.00244243 0.000588764 2.53664e-09 1.36305e-09 -4.24271e-10 5e-05 1.46608e-10 
132 1 0.0260626 0.018107 0.00707751 0.0054349 -0.000294417 -0.000112995 -5.95121e-11 9.52486e-11 -1.54458e-11 5e-05 1.46608e-10 
133 1 0.0258183 0.0166035 0.00762611 0.00648087 -6.58541e-06 0.000132544 6.80131e-10 -7.14458e-10 5.7179e-10 5e-05 1.46608e-10 
134 1 0.0259784 0.0172711 0.00723565 0.00577025 -0.000345261 -0.000129877 -1.52608e-10 -3.56744e-10 7.06238e-11 5e-05 1.46608e-10 
135 1 0.0256129 0.0161865 0.00793687 0.00609735 -0.000268398 0.000323745 -9.75911e-11 -2.29679e-10 1.71681e-10 5e-05 1.46608e-10 
136 1 0.019838 0.017001 0.00737673 0.00510543 -0.00265197 0.00110381 -5.3909e-10 8.65454e-10 -3.68587e-10 5e-05 1.46608e-10 
137 1 0.0261432 0.018942 0.00691967 0.00553379 -0.0003094 -0.00011323 5.32458e-12 1.33691e-10 -1.95991e-11 5e-05 1.46608e-10 
138 1 0.0257641 0.0167341 0.00752637 0.00625346 -0.000162854 0.000250137 1.53262e-09 5.986e-10 -4.40828e-10 5e-05 1.46608e-10 
140 1 0.026252 0.0181692 0.00706009 0.00545568 -0.000334704 -0.000106309 1.8493e-11 -6.35352e-11 1.54378e-11 5e-05 1.46608e-10 
141 1 0.0198782 0.0171776 0.00729177 0.00516657 -0.00244424 0.000998573 -3.32741e-10 4.33577e-10 -1.51915e-10 5e-05 1.46608e-10 
142 1 0.0202314 0.0185069 0.00696161 0.00480848 -0.00238744 0.000558247 2.91633e-10 1.04422e-09 -1.74803e-10 5e-05 1.46608e-10 
143 1 0.0198076 0.0173039 0.00723404 0.00531573 -0.00235681 0.000962108 -7.92768e-10 -9.97386e-11 -4.32631e-10 5e-05 1.46608e-10 
144 1 0.0201921 0.0183131 0.00699193 0.00499401 -0.00244564 0.000572195 5.68607e-10 2.67914e-09 -4.34989e-10 5e-05 1.46608e-10 
146 1 0.0200546 0.0176342 0.00709819 0.00535081 -0.00238208 0.000575841 -7.01452e-10 5.22403e-10 -9.30526e-11 5e-05 1.46608e-10 
147 1 0.0198178 0.0169128 0.0074192 0.00505051 -0.00273646 0.00114442 -5.41972e-10 8.84497e-10 -4.40118e-10 5e-05 1.46608e-10 
148 1 0.0201009 0.0187333 0.00692003 0.00514576 -0.00224349 0.000535657 -1.67095e-10 -1.1184e-10 1.15756e-10 5e-05 1.46608e-10 
149 1 0.0263271 0.018104 0.00706992 0.00547577 -0.000313009 -0.000110988 1.21761e-10 -9.16651e-12 2.14111e-13 5e-05 1.46608e-10 
150 1 0.0200945 0.0178288 0.00706776 0.00508685 -0.00278841 0.000633202 -6.66351e-10 5.67318e-10 -1.17278e-10 5e-05 1.46608e-10 
151 1 0.0204061 0.0184508 0.00697686 0.0044388 -0.00131805 0.000370125 -7.26474e-10 4.301e-10 -9.56279e-11 5e-05 1.46608e-10 
153 1 0.0199405 0.0175098 0.0071323 0.00520947 -0.0022403 0.000920325 2.91262e-10 2.43464e-10 1.50985e-10 5e-05 1.46608e-10 
154 1 0.0201958 0.0187654 0.00691808 0.00471379 -0.00223776 0.000528633 1.47558e-10 -3.73739e-10 -1.1965e-10 5e-05 1.46608e-10 
155 1 0.0202805 0.0191591 0.006854 0.00561961 -0.00301392 0.000669725 -6.58469e-10 5.71e-10 -1.17619e-10 5e-05 1.46608e-10 
156 1 0.0201762 0.0186685 0.00693325 0.00469127 -0.00224253 0.00053245 -1.2082e-09 -2.73584e-10 1.36474e-10 5e-05 1.46608e-10 
157 1 0.0219312 0.0187687 0.00551176 -3.82745e-14 8.17015e-14 2.95886e-13 -4.00536e-22 -4.89432e-22 7.75482e-23 5e-05 1.46608e-10 
158 1 0.0202907 0.0187978 0.00691601 0.00491984 -0.00244585 0.000558264 1.83073e-09 2.36448e-10 7.1814e-10 5e-05 1.46608e-10 
159 1 0.0261183 0.0179455 0.00710585 0.00540416 -0.000323678 -0.000107103 1.20088e-10 -1.20683e-10 4.93711e-11 5e-05 1.46608e-10 
160 1 0.0201792 0.0191194 0.00685799 0.0053983 -0.00171205 0.000409521 -5.44076e-10 3.45387e-10 -4.12966e-10 5e-05 1.46608e-10 
162 1 0.0202154 0.0188623 0.00690292 0.0049537 -0.00232957 0.000555027 1.75978e-09 1.67133e-10 2.15929e-10 5e-05 1.46608e-10 
164 1 0.0207223 0.0192301 0.006854 0.00131868 0.0018971 -0.000287691 -4.41377e-10 -3.38997e-10 4.88982e-11 5e-05 1.46608e-10 
165 1 0.0205339 0.0187264 0.00693489 0.00506513 -0.00185459 0.000455854 -7.043e-10 4.83218e-10 -9.60734e-11 5e-05 1.46608e-10 
166 1 0.0257747 0.016447 0.00774338 0.00654118 -1.9229e-05 0.000144663 6.00117e-11 -5.15903e-10 3.88261e-10 5e-05 1.46608e-10 
167 1 0.0200747 0.0177316 0.00708295 0.0050961 -0.00262938 0.000606733 -6.73505e-10 5.50326e-10 -1.17953e-10 5e-05 1.46608e-10 
168 1 0.020367 0.0187345 0.00692893 0.00481085 -0.00264321 0.000583097 3.91293e-10 -8.8089e-10 2.34051e-10 5e-05 1.46608e-10 
169 1 0.0205335 0.0186278 0.00695173 0.00496295 -0.00195248 0.000470431 -6.94495e-10 4.97071e-10 -1.05167e-10 5e-05 1.46608e-10 
170 1 0.0204086 0.0188752 0.00690604 0.00492536 -0.00232188 0.000620372 6.09561e-10 -2.0526e-09 -1.58624e-09 5e-05 1.46608e-10 
171 1 0.0257964 0.0165251 0.00768483 0.00653752 -4.44504e-05 0.000162677 6.03546e-10 -5.23312e-10 4.04397e-10 5e-05 1.46608e-10 
172 1 0.0204446 0.0186727 0.00694162 0.00461965 -0.00209471 0.000485449 -6.80845e-10 5.30203e-10 -1.09016e-10 5e-05 1.46608e-10 
173 1 0.0261096 0.0170494 0.00728787 0.00590679 -0.000286168 7.64372e-05 -6.15255e-11 1.37582e-10 -8.50942e-11 5e-05 1.46608e-10 
174 1 0.0203301 0.0189913 0.00688403 0.00501018 -0.00213962 0.000505999 -3.59486e-10 2.67983e-10 -7.42838e-10 5e-05 1.46608e-10 
175 1 0.0165691 0.0202176 0.00713217 2.03105e-14 -2.6494e-14 2.77687e-13 -7.38e-24 -2.79173e-24 2.06795e-25 5e-05 1.46608e-10 
176 1 0.0201564 0.0185717 0.0069484 0.0047767 -0.00223583 0.000528271 -7.85397e-10 3.68135e-10 -1.16731e-10 5e-05 1.46608e-10 
177 1 0.0202191 0.0193129 0.00682602 0.00607882 -0.000860452 0.000287963 -4.84332e-10 1.06114e-10 4.06777e-11 5e-05 1.46608e-10 
178 1 0.0205043 0.0184326 0.00698326 0.00434329 -0.00198427 0.000475742 -6.90247e-10 5.21408e-10 -1.10458e-10 5e-05 1.46608e-10 
179 1 0.0206323 0.0187447 0.00693448 0.00463753 0.000534806 3.61262e-05 -7.41742e-10 1.57532e-10 -4.8399e-11 5e-05 1.46608e-10 
181 1 0.0201402 0.0189281 0.00690024 0.00509192 -0.00227154 0.000537761 2.9134e-11 -1.20338e-09 -1.41705e-10 5e-05 1.46608e-10 
182 1 0.0257432 0.0166554 0.00758536 0.00625615 -0.000282857 0.000339246 2.81897e-10 -4.1624e-10 3.84739e-10 5e-05 1.46608e-10 
183 1 0.0204571 0.0187892 0.00692206 0.00479486 -0.0020219 0.000477385 -6.92668e-10 5.1623e-10 -9.84046e-11 5e-05 1.46608e-10 
184 1 0.0260758 0.0179392 0.00719617 0.00540526 -0.000335903 -0.000107563 -2.10737e-10 1.68497e-10 -6.79193e-12 5e-05 1.46608e-10 
185 1 0.0200813 0.0186364 0.0069352 0.00515014 -0.00222431 0.000542723 5.77686e-10 6.8906e-10 -1.57267e-10 5e-05 1.46608e-10 
186 1 0.0201205 0.0188301 0.00690487 0.00512892 -0.00225302 0.000555605 1.4584e-10 -7.90871e-10 2.49652e-10 5e-05 1.46608e-10 
187 1 0.0260112 0.0170237 0.00731177 0.0055266 -0.000252244 5.29719e-05 -1.84711e-10 2.12969e-10 -1.90081e-10 5e-05 1.46608e-10 
188 1 0.0262715 0.0182655 0.00704157 0.00549323 -0.000341266 -0.000106149 1.0962e-10 -2.32535e-10 3.99111e-11 5e-05 1.46608e-10 
189 1 0.0259385 0.0170069 0.00742836 0.00559626 -0.000207659 0.000273001 -1.07356e-10 3.25353e-10 -4.84213e-11 5e-05 1.46608e-10 
190 1 0.0167505 0.0200214 0.00710019 2.03104e-14 -2.64943e-14 2.77686e-13 3.45089e-24 1.47342e-24 -2.06795e-25 5e-05 1.46608e-10 
191 1 0.0261627 0.0190383 0.00690114 0.00554422 -0.000301655 -0.000115266 3.45903e-11 -1.35342e-11 -1.01419e-12 5e-05 1.46608e-10 
192 1 0.0203065 0.0184421 0.00697482 0.00476819 -0.00296217 0.000650469 -6.47601e-10 6.01278e-10 -1.19719e-10 5e-05 1.46608e-10 
193 1 0.0258795 0.0168394 0.00744917 0.00561394 -0.000215674 0.00027272 -3.06815e-11 1.90791e-11 -1.02156e-11 5e-05 1.46608e-10 
194 1 0.0201336 0.0180226 0.00703741 0.00540607 -0.00236946 0.000578654 2.23455e-10 1.66473e-09 -3.01137e-10 5e-05 1.46608e-10 
195 1 0.0206258 0.0185904 0.00696066 0.00529607 -0.00194329 0.000477724 -7.00482e-10 4.81572e-10 -1.02913e-10 5e-05 1.46608e-10 
196 1 0.0196246 0.0165102 0.00761612 0.00562555 -0.00334786 0.0014092 -1.71883e-10 3.65934e-11 2.81799e-11 5e-05 1.46608e-10 
197 1 0.0173242 0.0207589 0.00741566 -0.02001 -0.0897958 -0.0571326 0 0 -1.43822e-09 5e-05 1.46608e-10 
198 1 0.0200028 0.0182489 0.00699585 0.00493597 -0.00208283 0.000514004 1.43529e-09 -3.63869e-10 1.6594e-10 5e-05 1.46608e-10 
199 1 0.0202355 0.0189589 0.006887 0.00502636 -0.00237971 0.000498122 6.90459e-10 2.14825e-10 1.80101e-09 5e-05 1.46608e-10 
200 1 0.0200975 0.0182811 0.00699388 0.00494093 -0.0020734 0.000510998 -5.94965e-10 9.42531e-10 -1.8242e-10 5e-05 1.46608e-10 
201 1 0.0208477 0.0190528 0.00688776 1.13909e-14 -1.05085e-13 1.19829e-13 -7.66834e-19 6.63067e-18 -1.15411e-18 5e-05 1.46608e-10 
202 1 0.0203264 0.0185389 0.00695968 0.00512816 -0.00305022 0.00067744 -6.54076e-10 5.88881e-10 -1.19744e-10 5e-05 1.46608e-10 
203 1 0.0261401 0.0171571 0.00725728 0.00542876 -0.000760989 0.00024385 -2.71182e-10 1.66774e-10 -9.88996e-11 5e-05 1.46608e-10 
204 1 0.0200779 0.0181842 0.00700905 0.00484351 -0.00198247 0.000493295 7.21192e-10 -6.14905e-10 1.75839e-10 5e-05 1.46608e-10 
205 1 0.020562 0.0191173 0.00686888 0.00221659 2.82571e-05 5.65223e-05 -7.40089e-11 -4.27273e-10 3.38132e-11 5e-05 1.46608e-10 
206 1 0.0204301 0.0189914 0.00688676 0.00508482 -0.00215217 0.00052085 -6.62891e-10 4.95712e-10 -1.55129e-10 5e-05 1.46608e-10 
207 1 0.0199216 0.0174213 0.00717486 0.00529117 -0.00228908 0.000919046 8.02211e-11 1.09223e-10 -1.47449e-10 5e-05 1.46608e-10 
208 1 0.0203106 0.018895 0.0069036 0.00483523 -0.00266085 0.00034558 5.14631e-10 -2.40307e-09 -1.07348e-09 5e-05 1.46608e-10 
209 1 0.0201141 0.0179257 0.00705259 0.00564033 -0.00255339 0.00061151 -6.96164e-10 5.23317e-10 -1.00509e-10 5e-05 1.46608e-10 
210 1 0.0258019 0.0172726 0.00732889 0.00578336 -0.000378756 -4.71937e-05 -6.49167e-11 -2.20956e-10 1.61756e-10 5e-05 1.46608e-10 
211 1 0.0261768 0.0182344 0.00705028 0.00545389 -0.000338481 -0.000105364 -6.23742e-11 -1.47825e-10 3.0438e-11 5e-05 1.46608e-10 
212 1 0.0205042 0.0189045 0.00690365 0.00454625 -0.00136153 0.000406155 1.39741e-09 6.41707e-10 5.11515e-10 5e-05 1.46608e-10 
213 1 0.025993 0.0169454 0.00737134 0.00558339 -0.000204273 0.000267275 -1.06159e-10 -4.74605e-11 5.72114e-11 5e-05 1.46608e-10 
214 1 0.0261016 0.0182997 0.00704047 0.00546304 -0.000334327 -0.000106496 9.48191e-11 -3.78865e-11 1.18001e-12 5e-05 1.46608e-10 
215 1 0.0165568 0.0199459 0.00710715 -1.91986e-15 2.50496e-15 -2.62516e-14 -5.35082e-24 1.52511e-24 4.1359e-25 5e-05 1.46608e-10 
216 1 0.0201989 0.0192163 0.00684199 0.00507995 -0.000737746 0.000265449 -7.36657e-10 3.37684e-10 -8.23483e-11 5e-05 1.46608e-10 
217 1 0.0258397 0.0166826 0.00756679 0.00623992 -0.000300125 0.000352001 1.31287e-09 -1.56478e-10 1.87863e-10 5e-05 1.46608e-10 
218 1 0.0203484 0.0192748 0.00683609 0.00346643 -0.00195225 0.000429556 -6.58362e-10 5.89786e-10 -1.05376e-10 5e-05 1.46608e-10 
219 1 0.026104 0.0187494 0.00695671 0.00549887 -0.000351901 -0.00010444 4.24976e-11 1.36551e-10 -2.92628e-11 5e-05 1.46608e-10 
220 1 0.0201596 0.0190226 0.00687399 0.0051478 -0.00225599 0.000519921 -3.70725e-10 -6.43781e-10 8.64072e-10 5e-05 1.46608e-10 
221 1 0.0161098 0.0200529 0.00713733 2.26777e-16 -5.64803e-15 4.6042e-14 -4.75253e-21 2.0254e-21 2.64077e-22 5e-05 1.46608e-10 
222 1 0.0258602 0.0167609 0.00750806 0.00561851 -0.000200924 0.000262584 9.12959e-11 -3.66029e-11 2.75281e-11 5e-05 1.46608e-10 
223 1 0.0202513 0.0186037 0.00694646 0.00475727 -0.0023443 0.000549217 -8.48645e-10 9.35785e-10 -1.75686e-10 5e-05 1.46608e-10 
224 1 0.0200616 0.0185395 0.00695036 0.00516629 -0.00216666 0.000535697 -6.94304e-10 -2.10356e-09 3.58015e-10 5e-05 1.46608e-10 
225 1 0.0261688 0.0173327 0.00721832 0.00572906 -0.000253991 -0.000128079 8.21505e-10 1.78964e-10 -5.98243e-11 5e-05 1.46608e-10 
226 1 0.0204241 0.0185748 0.00695721 0.00493715 -0.00220945 0.000533331 -6.94119e-10 5.17842e-10 -1.0662e-10 5e-05 1.46608e-10 
227 1 0.0172549 0.0142479 0.0117898 0.000830237 -0.00112529 0.00250971 1.18564e-11 -1.82018e-11 4.15703e-11 5e-05 1.46608e-10 
228 1 0.0164404 0.0203977 0.00715878 -1.92039e-15 2.50445e-15 -2.62516e-14 4.80799e-24 3.43797e-24 0 5e-05 1.46608e-10 
229 1 0.0198623 0.0174683 0.00724672 0.00527433 -0.00237416 0.000774322 4.3951e-10 7.67015e-10 1.58297e-09 5e-05 1.46608e-10 
230 1 0.0207884 0.0193043 0.00684314 0.000931031 0.00225548 -0.000359927 -3.06296e-10 -4.10356e-10 6.48885e-11 5e-05 1.46608e-10 
231 1 0.0166435 0.0200524 0.00711097 -1.92004e-15 2.50475e-15 -2.62516e-14 2.06795e-25 1.65436e-24 0 5e-05 1.46608e-10 
232 1 0.0199395 0.0172482 0.00725637 0.00524257 -0.00239652 0.000975554 -5.13839e-10 7.68142e-11 -3.48639e-11 5e-05 1.46608e-10 
233 1 0.0201531 0.0181195 0.00702224 0.00511371 -0.00217394 0.00053318 -5.09318e-10 6.96289e-10 -1.32632e-10 5e-05 1.46608e-10 
234 1 0.0263567 0.0181977 0.00705156 0.000657445 0.0011975 -0.000243102 9.53552e-12 -4.34032e-11 5.33504e-12 5e-05 1.46608e-10 
235 1 0.021374 0.0192626 0.00686637 4.24153e-15 -2.63637e-14 -1.54285e-13 1.27955e-24 -3.10193e-25 0 5e-05 1.46608e-10 
236 1 0.0211551 0.0192354 0.00686501 4.24064e-15 -2.63639e-14 -1.54285e-13 -1.5794e-23 1.13737e-24 -6.20385e-25 5e-05 1.46608e-10 
237 1 0.021045 0.0191577 0.00687526 -3.97508e-15 2.47092e-14 1.44604e-13 4.78214e-24 -2.99853e-24 6.20385e-25 5e-05 1.46608e-10 
239 1 0.0146279 0.0204907 0.00722436 3.60573e-15 -1.19881e-14 6.44398e-14 1.97748e-24 1.55096e-25 0 5e-05 1.46608e-10 
240 1 0.0151549 0.0203413 0.00717598 -7.58037e-16 2.58188e-14 -2.11472e-13 6.51082e-25 0 2.06795e-25 5e-05 1.46608e-10 
241 1 0.0147575 0.0202894 0.00717966 3.60467e-15 -1.19883e-14 6.44398e-14 1.06758e-23 6.04876e-24 6.20385e-25 5e-05 1.46608e-10 
242 1 0.020459 0.0182603 0.00700987 0.000297346 0.000300105 -3.87342e-05 -4.62939e-10 -2.64685e-10 2.71756e-11 5e-05 1.46608e-10 
243 1 0.0200584 0.0180873 0.00702422 0.00500652 -0.00208892 0.000518094 -1.00092e-09 -5.79799e-10 4.61942e-11 5e-05 1.46608e-10 
244 1 0.0149295 0.0202501 0.00716565 3.31093e-16 -1.12794e-14 9.2385e-14 -6.24424e-24 -2.06795e-25 0 5e-05 1.46608e-10 
246 1 0.0159982 0.0203095 0.00716975 2.01506e-06 -0.000110394 -0.00383173 0 0 -1.43822e-09 5e-05 1.46608e-10 