ITEM: TIMESTEP
30000000
ITEM: NUMBER OF ATOMS
271
ITEM: BOX BOUNDS ff ff ff
-0.02 0.43
-0.02 0.06
-0.02 0.07
ITEM: ATOMS id type x y z vx vy vz fx fy fz radius mass 
1 1 0.187416 0.0154785 0.00870141 0.00555066 7.21567e-05 -0.000536302 -8.72723e-10 7.34991e-10 4.69347e-10 5e-05 1.46608e-10 
2 1 0.188304 0.0178884 0.00698153 0.00615576 0.000362205 -0.000176527 8.57248e-11 -3.64345e-11 -1.07862e-10 5e-05 1.46608e-10 
3 1 0.182348 0.0177038 0.0070541 0.00612231 0.000123931 -0.000356932 -5.29842e-10 1.4447e-10 1.43312e-11 5e-05 1.46608e-10 
4 1 0.188332 0.0176323 0.00703959 0.00629094 -0.000172838 -0.00020793 2.53976e-10 -4.00429e-10 -3.58739e-10 5e-05 1.46608e-10 
5 1 0.187395 0.0154331 0.00878806 0.00574723 7.04538e-05 -0.000572565 1.67375e-10 1.61278e-10 3.93319e-10 5e-05 1.46608e-10 
6 1 0.193788 0.0168128 0.00741748 0.00566838 6.73254e-06 0.000266597 6.45104e-13 8.00707e-12 -4.6633e-12 5e-05 1.46608e-10 
7 1 0.187491 0.0156571 0.00835161 0.00562289 -1.94028e-05 -0.000393351 1.51425e-10 -1.12561e-10 3.9847e-10 5e-05 1.46608e-10 
8 1 0.187373 0.0153887 0.00887488 0.00617779 5.43029e-05 -0.000579725 -7.51961e-10 -3.44877e-10 2.41737e-10 5e-05 1.46608e-10 
9 1 0.193906 0.017347 0.0071714 0.00620909 -8.08945e-05 0.000334153 -2.7553e-12 -3.06739e-12 -6.91649e-12 5e-05 1.46608e-10 
10 1 0.187949 0.0175245 0.00710499 0.00642944 0.00053505 -6.33484e-05 1.88535e-10 7.49364e-10 -5.79206e-10 5e-05 1.46608e-10 
11 1 0.188089 0.0177297 0.00700973 0.00630039 -1.5239e-05 -0.000117747 1.04169e-10 -1.23427e-10 3.01549e-10 5e-05 1.46608e-10 
12 1 0.181485 0.0156957 0.00844694 0.00582669 0.000126502 -0.000320732 -4.24836e-11 -1.6229e-10 3.23102e-11 5e-05 1.46608e-10 
13 1 0.187308 0.0152554 0.00913501 0.00617375 2.41655e-05 -0.000505678 8.28187e-11 4.2247e-10 -8.3113e-10 5e-05 1.46608e-10 
14 1 0.182155 0.0184544 0.00695874 0.00573811 0.000161106 -0.000341072 5.95088e-11 -2.97673e-10 3.36335e-11 5e-05 1.46608e-10 
15 1 0.188314 0.0175537 0.00709853 0.00615879 -0.000191633 -0.000182649 2.76618e-10 -1.17295e-10 1.62242e-10 5e-05 1.46608e-10 
16 1 0.182251 0.0184868 0.00694882 0.00576566 0.000154997 -0.000342057 7.84579e-10 -4.23326e-10 1.50259e-11 5e-05 1.46608e-10 
17 1 0.188355 0.0177244 0.0070081 0.00620536 -5.57441e-06 0.00014735 -3.56742e-10 1.64193e-10 1.09631e-10 5e-05 1.46608e-10 
19 1 0.187356 0.0153498 0.00896535 0.00629908 -0.000126292 -0.000711357 1.19139e-10 9.45036e-11 -4.28509e-10 5e-05 1.46608e-10 
21 1 0.187908 0.0173592 0.00720981 0.00627587 0.000499545 -5.40831e-05 -2.69092e-10 7.17837e-10 -5.12305e-10 5e-05 1.46608e-10 
22 1 0.188121 0.0174976 0.0071298 0.00617761 0.000130214 0.000190837 -7.68525e-10 7.15051e-11 1.94715e-10 5e-05 1.46608e-10 
23 1 0.181718 0.0162262 0.00796266 0.00553412 0.00011323 -0.000396175 6.80073e-11 2.62715e-11 -4.92527e-11 5e-05 1.46608e-10 
24 1 0.193992 0.0177134 0.00703736 0.00626541 -0.000228641 -5.22618e-05 -2.24111e-13 -3.1761e-12 9.48446e-13 5e-05 1.46608e-10 
25 1 0.187549 0.0158705 0.00815437 0.00569165 0.000265777 6.7845e-05 -1.39919e-10 -3.42756e-10 1.8232e-10 5e-05 1.46608e-10 
26 1 0.193866 0.017169 0.00725334 0.00562718 1.721e-05 0.000259713 -7.15354e-12 -4.93837e-12 -6.06731e-13 5e-05 1.46608e-10 
27 1 0.182465 0.0178295 0.00702984 0.00608468 8.46409e-05 -0.000349596 -3.1245e-11 -3.58239e-10 4.63528e-11 5e-05 1.46608e-10 
28 1 0.188257 0.0176931 0.0070138 0.00628256 -4.62312e-06 0.000135601 1.75582e-11 3.34891e-11 4.35887e-10 5e-05 1.46608e-10 
29 1 0.187512 0.0157135 0.00827169 0.00569207 5.24838e-06 -0.000324228 -5.33785e-11 -2.36634e-10 4.99443e-10 5e-05 1.46608e-10 
30 1 0.188013 0.0177949 0.007002 0.00634485 3.32203e-05 -8.45497e-05 2.25012e-10 2.26685e-10 -1.43133e-10 5e-05 1.46608e-10 
31 1 0.187569 0.0159539 0.00810289 0.00568963 0.00027397 7.82912e-05 -6.21509e-12 -1.08383e-10 1.68067e-10 5e-05 1.46608e-10 
32 1 0.187995 0.0170021 0.00744392 0.00584877 0.00036691 1.68615e-05 -3.52183e-10 4.09757e-10 -2.97391e-10 5e-05 1.46608e-10 
33 1 0.193807 0.0169018 0.00737645 0.0056581 8.27503e-06 0.000265483 4.51366e-12 9.466e-12 -2.49575e-12 5e-05 1.46608e-10 
34 1 0.187477 0.0156137 0.00844064 0.00554808 1.70887e-05 -0.000419364 -1.46075e-10 -1.5842e-10 2.51211e-10 5e-05 1.46608e-10 
35 1 0.188152 0.0172773 0.00727319 0.00601966 0.000212093 0.000126425 -2.2611e-10 3.63216e-12 -3.30051e-11 5e-05 1.46608e-10 
36 1 0.193971 0.0176204 0.00706703 0.00625378 -0.000227691 -5.26368e-05 4.28187e-13 -9.18209e-12 2.82315e-14 5e-05 1.46608e-10 
37 1 0.188213 0.0183097 0.00691975 0.00557153 0.000244121 -0.000147397 -7.94365e-11 4.03904e-11 1.46085e-11 5e-05 1.46608e-10 
38 1 0.188273 0.0186018 0.00687447 0.00584116 0.000204457 -0.000146084 3.16962e-11 3.71879e-10 -5.51954e-11 5e-05 1.46608e-10 
39 1 0.194014 0.0178064 0.00700769 0.00627722 -0.000229979 -5.1995e-05 -4.61878e-13 -1.07442e-12 4.82195e-13 5e-05 1.46608e-10 
41 1 0.188377 0.0178212 0.00699022 0.00612213 0.000327089 -0.000170378 7.58887e-10 -2.05149e-10 -5.29193e-11 5e-05 1.46608e-10 
42 1 0.321436 0.0173475 0.00552525 4.57288e-16 2.25531e-15 8.4636e-14 -4.47518e-24 7.56095e-25 0 5e-05 1.46608e-10 
44 1 0.188282 0.0177916 0.00699659 0.00630813 4.75271e-05 -0.00034489 -8.36416e-10 2.87724e-10 -4.75238e-10 5e-05 1.46608e-10 
45 1 0.193827 0.0169909 0.00733541 0.00564791 1.07119e-05 0.000263708 2.24298e-12 1.13425e-11 -6.63664e-12 5e-05 1.46608e-10 
47 1 0.187436 0.0155225 0.00861379 0.0054765 6.08578e-05 -0.000501385 -3.92911e-10 -1.0187e-10 1.18942e-10 5e-05 1.46608e-10 
48 1 0.188252 0.0185034 0.00688974 0.00580592 0.000206334 -0.000145758 1.00121e-10 -1.21491e-10 2.02738e-11 5e-05 1.46608e-10 
50 1 0.187614 0.0161184 0.00799868 0.00564555 0.000312185 3.52379e-05 -3.34139e-10 2.83542e-10 -2.21545e-10 5e-05 1.46608e-10 
51 1 0.18759 0.0160359 0.00804949 0.00569014 0.000281858 6.31731e-05 -1.35309e-10 9.17057e-11 -4.28083e-11 5e-05 1.46608e-10 
52 1 0.181402 0.0153981 0.00870121 0.00580541 0.000203155 -0.000194015 2.01222e-11 2.08793e-10 -6.14766e-11 5e-05 1.46608e-10 
53 1 0.193949 0.0175273 0.0070967 0.00624008 -0.000226959 -5.27523e-05 -1.88102e-11 -5.24026e-12 2.23623e-11 5e-05 1.46608e-10 
54 1 0.188098 0.0181812 0.00694141 0.00530482 0.000181947 -0.00013189 -1.89391e-10 -3.73443e-11 1.62752e-11 5e-05 1.46608e-10 
55 1 0.181341 0.0151951 0.00891196 0.00568644 8.47272e-05 -0.000292046 -3.81838e-11 5.83242e-10 -4.01225e-10 5e-05 1.46608e-10 
56 1 0.188232 0.0184066 0.00690474 0.00576724 0.000216499 -0.00014687 -3.52927e-11 -5.82597e-11 -1.27602e-11 5e-05 1.46608e-10 
57 1 0.193847 0.01708 0.00729438 0.00563741 1.40711e-05 0.000261737 4.33996e-14 7.81793e-12 -2.58991e-12 5e-05 1.46608e-10 
59 1 0.188098 0.0174154 0.00718196 0.00612858 0.000120476 0.000179923 -1.3558e-10 1.39266e-10 1.54679e-10 5e-05 1.46608e-10 
61 1 0.187881 0.0168913 0.00751038 0.00579325 0.000385524 1.08756e-06 1.45313e-10 4.00877e-10 -2.6616e-10 5e-05 1.46608e-10 
62 1 0.188499 0.0184052 0.0068997 0.00570053 9.00441e-05 -0.00012591 -2.27449e-10 -3.09066e-11 1.1105e-11 5e-05 1.46608e-10 
63 1 0.188293 0.0174715 0.00715401 0.00633041 0.000217973 0.000134991 5.51685e-10 -2.40599e-10 1.20862e-10 5e-05 1.46608e-10 
64 1 0.194036 0.0178994 0.00697803 0.0062889 -0.000231736 -5.17809e-05 7.29877e-14 -2.66024e-13 -4.56557e-13 5e-05 1.46608e-10 
65 1 0.181662 0.0163504 0.00785563 0.00557612 0.00013433 -0.000414971 1.49042e-10 1.57711e-10 -1.33745e-10 5e-05 1.46608e-10 
66 1 0.181325 0.0151781 0.0090091 0.00631432 6.79646e-05 -0.000248983 -5.33106e-10 -1.78768e-10 -7.48219e-10 5e-05 1.46608e-10 
67 1 0.188251 0.018052 0.00695789 0.00484719 0.000353145 -0.000149365 -8.29886e-11 1.68112e-10 -4.44266e-11 5e-05 1.46608e-10 
68 1 0.188036 0.0171674 0.00733907 0.00591597 0.000318388 5.04841e-05 -5.87103e-10 4.67105e-10 -3.40389e-10 5e-05 1.46608e-10 
69 1 0.188118 0.018278 0.00692641 0.00572093 9.45652e-05 -0.000127716 3.09625e-11 -2.9708e-11 2.06083e-11 5e-05 1.46608e-10 
70 1 0.193886 0.0172581 0.00721231 0.00561611 1.94049e-05 0.000258051 1.39974e-11 -3.37907e-12 3.56456e-12 5e-05 1.46608e-10 
71 1 0.181382 0.0153237 0.00876478 0.00582467 0.000212058 -0.000163271 7.17539e-11 2.86806e-10 -3.86079e-10 5e-05 1.46608e-10 
72 1 0.188153 0.0180191 0.00696478 0.00570383 0.000127674 -0.000126913 -6.65606e-10 -2.12766e-10 4.77187e-11 5e-05 1.46608e-10 
73 1 0.188177 0.0185688 0.00688135 0.00584981 0.000223916 -0.000149748 1.86902e-10 7.59467e-11 4.96742e-12 5e-05 1.46608e-10 
74 1 0.188309 0.0183428 0.00691285 0.00568024 0.000176505 -0.000138483 1.08868e-10 -1.11706e-10 1.24099e-11 5e-05 1.46608e-10 
76 1 0.182381 0.0182566 0.00697414 0.00550111 0.000332024 -0.000352262 -5.92911e-10 -5.39929e-10 1.12862e-10 5e-05 1.46608e-10 
77 1 0.188174 0.0173599 0.00722089 0.006157 0.000174687 0.000154204 -4.08845e-10 2.55286e-11 -4.40503e-11 5e-05 1.46608e-10 
78 1 0.182135 0.0183575 0.00697353 0.00552827 0.00022381 -0.0003388 3.30033e-11 -2.30802e-10 3.52114e-11 5e-05 1.46608e-10 
79 1 0.181443 0.0155469 0.00857409 0.00580624 0.000225853 -0.000200237 -7.11106e-11 -1.71728e-10 1.29042e-10 5e-05 1.46608e-10 
80 1 0.188346 0.0180829 0.00695136 0.00478855 0.000587585 -0.00018281 -5.10133e-11 1.29392e-11 -5.45006e-12 5e-05 1.46608e-10 
81 1 0.182281 0.0185811 0.00693385 0.00553482 0.000252425 -0.000342904 4.50748e-10 -6.62208e-11 -1.53437e-11 5e-05 1.46608e-10 
82 1 0.181505 0.0157695 0.00838261 0.00581732 -3.75863e-05 -0.000504817 1.59826e-10 -3.87781e-10 -2.51696e-10 5e-05 1.46608e-10 
83 1 0.182191 0.0181962 0.00699321 0.00553812 0.000264392 -0.000345119 2.47951e-10 -1.94626e-10 1.77887e-11 5e-05 1.46608e-10 
84 1 0.193928 0.0174358 0.00713058 0.00623797 -8.3535e-05 0.000336958 9.28345e-13 8.9025e-12 -6.7214e-12 5e-05 1.46608e-10 
85 1 0.182369 0.0178005 0.00703922 0.00602207 0.000116128 -0.00035082 -3.47975e-10 1.35447e-10 2.49379e-12 5e-05 1.46608e-10 
86 1 0.188399 0.0179186 0.0069751 0.00594999 0.000961218 -0.000261247 1.21697e-10 9.85031e-11 -3.31021e-11 5e-05 1.46608e-10 
87 1 0.188349 0.0185365 0.00688284 0.00577517 0.000150081 -0.000136497 -2.43293e-10 1.34516e-10 -1.48719e-11 5e-05 1.46608e-10 
88 1 0.187766 0.0167806 0.00757683 0.00566487 0.000591152 -0.000135431 1.61276e-10 3.09052e-10 -1.72284e-10 5e-05 1.46608e-10 
89 1 0.188329 0.0184397 0.00689785 0.00574349 0.000166254 -0.000138318 -1.89339e-10 -6.58564e-11 1.21156e-11 5e-05 1.46608e-10 
90 1 0.188187 0.0177645 0.00701342 0.00631662 5.70443e-05 3.02122e-05 -6.21295e-10 1.51678e-10 1.85664e-10 5e-05 1.46608e-10 
91 1 0.182413 0.0179939 0.00700949 0.00604856 0.000628156 -0.00042446 2.8953e-10 1.33723e-10 -3.67616e-11 5e-05 1.46608e-10 
92 1 0.18829 0.0182457 0.00692788 0.00520019 0.000274272 -0.000143953 1.68546e-12 -1.36538e-10 2.80538e-11 5e-05 1.46608e-10 
93 1 0.187649 0.0162839 0.00789209 0.0056264 0.000379573 -2.09217e-06 4.21232e-10 3.55441e-10 -2.456e-10 5e-05 1.46608e-10 
94 1 0.188068 0.0176391 0.00704683 0.00627823 9.02529e-06 -8.3512e-05 -1.8043e-10 3.02024e-10 4.97233e-10 5e-05 1.46608e-10 
95 1 0.188024 0.0174699 0.00714341 0.00614571 0.000215434 0.000109985 -9.77064e-10 7.11434e-11 -1.37874e-10 5e-05 1.46608e-10 
96 1 0.187668 0.0163669 0.00783945 0.00564515 0.000409547 -2.39286e-05 2.36529e-10 3.71522e-10 -2.75568e-10 5e-05 1.46608e-10 
97 1 0.181776 0.0164446 0.00776531 0.00566145 8.95887e-05 -0.00037949 1.98397e-11 6.3027e-11 -6.62122e-11 5e-05 1.46608e-10 
98 1 0.188164 0.0176709 0.00704035 0.00623442 -8.33648e-05 -0.000127203 5.09283e-10 -2.23014e-10 7.5755e-10 5e-05 1.46608e-10 
99 1 0.181874 0.0168214 0.00745295 0.00567924 0.000281733 -0.000107283 2.07359e-10 1.72799e-11 1.31769e-10 5e-05 1.46608e-10 
100 1 0.188404 0.018373 0.00690643 0.00568778 0.000107543 -0.000128439 -1.71246e-10 -7.43546e-12 2.47224e-12 5e-05 1.46608e-10 
101 1 0.181464 0.0156213 0.00851052 0.00581982 0.000222141 -0.000208737 -6.11835e-11 -1.4402e-10 1.72993e-10 5e-05 1.46608e-10 
102 1 0.0643568 0.0187248 0.00531097 4.30049e-15 1.04184e-14 8.29686e-14 -2.0626e-21 1.53504e-21 -9.05763e-23 5e-05 1.46608e-10 
103 1 0.24257 0.0191927 0.00520306 3.10422e-23 4.86658e-23 1.23839e-22 0 0 0 5e-05 1.46608e-10 
104 1 0.182081 0.0177133 0.00706756 0.00634226 0.000143204 -0.000367642 -6.6386e-11 -1.65502e-10 -4.50763e-11 5e-05 1.46608e-10 
105 1 0.182421 0.0176363 0.00705956 0.00623561 0.000168933 -0.000376175 1.06781e-10 3.01048e-10 4.55377e-11 5e-05 1.46608e-10 
106 1 0.182303 0.0175165 0.00710413 0.00628131 0.0003192 8.61514e-05 1.46904e-10 -7.43962e-11 1.20206e-10 5e-05 1.46608e-10 
107 1 0.182284 0.0174284 0.0071482 0.00632755 0.000292888 9.95679e-05 -1.89625e-11 9.5669e-11 -4.20216e-11 5e-05 1.46608e-10 
108 1 0.188137 0.0183749 0.0069114 0.00574428 7.94428e-05 -0.000124557 -2.65264e-11 -4.03676e-11 -3.37989e-12 5e-05 1.46608e-10 
109 1 0.188269 0.0173875 0.00720718 0.00624992 0.000187033 0.000146242 -2.82889e-10 2.08254e-10 -2.2001e-10 5e-05 1.46608e-10 
110 1 0.187689 0.0164494 0.00778706 0.00562295 0.00045109 -4.75451e-05 1.28207e-10 3.47244e-10 -2.18623e-10 5e-05 1.46608e-10 
111 1 0.188003 0.0173874 0.00719603 0.00610869 0.000261802 9.22676e-05 -7.01284e-10 1.63775e-10 -8.42878e-11 5e-05 1.46608e-10 
112 1 0.182149 0.018003 0.00702286 0.00626977 9.03442e-05 -0.000361586 -6.08995e-10 -1.66351e-10 6.58151e-11 5e-05 1.46608e-10 
113 1 0.181739 0.0166414 0.00759225 0.00569246 0.000115079 -0.000403489 -3.73904e-11 -1.21893e-11 -1.47079e-11 5e-05 1.46608e-10 
114 1 0.182115 0.0182607 0.00698833 0.00548581 0.000229277 -0.000336891 4.43707e-12 -2.27658e-10 3.56317e-11 5e-05 1.46608e-10 
115 1 0.188238 0.0176077 0.0070625 0.00622126 -0.00014099 -0.000185741 2.71669e-10 -4.03271e-10 5.74416e-10 5e-05 1.46608e-10 
116 1 0.188078 0.0180843 0.00695642 0.00536164 0.000174253 -0.000131981 -2.50803e-10 6.48238e-11 -2.23528e-11 5e-05 1.46608e-10 
117 1 0.188217 0.0187625 0.00685133 0.00592448 0.000239533 -0.000152749 -1.87397e-10 -2.77065e-10 3.7034e-11 5e-05 1.46608e-10 
118 1 0.181943 0.0174942 0.00712455 0.0063245 0.000204562 -3.88531e-05 1.49921e-10 -2.60167e-11 2.29191e-10 5e-05 1.46608e-10 
119 1 0.188195 0.0174424 0.00716859 0.00620459 0.000156537 0.000169726 -4.69142e-10 2.4396e-10 4.41627e-11 5e-05 1.46608e-10 
120 1 0.187535 0.0157888 0.00821015 0.00562272 0.000121587 -0.000176632 -4.05087e-10 -4.02265e-10 2.08649e-10 5e-05 1.46608e-10 
121 1 0.187457 0.015567 0.00852678 0.00545041 4.5488e-05 -0.00046818 6.08849e-11 -2.4699e-10 1.59521e-10 5e-05 1.46608e-10 
122 1 0.187962 0.017222 0.00730062 0.00598967 0.000329777 4.3197e-05 -2.52166e-11 3.2706e-10 -2.04024e-10 5e-05 1.46608e-10 
123 1 0.1819 0.0173122 0.0071922 0.00632946 0.000284741 0.0001089 2.28545e-11 4.04268e-11 1.28815e-11 5e-05 1.46608e-10 
124 1 0.187983 0.0173047 0.00724825 0.00602963 0.000297582 5.44469e-05 -3.29785e-10 2.78223e-10 1.31718e-11 5e-05 1.46608e-10 
125 1 0.188293 0.0186987 0.00685946 0.00587259 0.000214557 -0.000148661 4.1502e-10 6.34288e-10 -1.07557e-10 5e-05 1.46608e-10 
126 1 0.1879 0.0169741 0.00745788 0.00583596 0.000382048 6.16379e-06 -2.09664e-10 4.26342e-10 -3.07461e-10 5e-05 1.46608e-10 
127 1 0.182443 0.0177328 0.00704471 0.0061251 0.000109701 -0.000355532 -5.38253e-10 1.92284e-10 6.51609e-12 5e-05 1.46608e-10 
128 1 0.187941 0.0171394 0.00735302 0.00599125 0.000345522 3.91312e-05 1.70068e-10 2.89864e-10 -1.49595e-10 5e-05 1.46608e-10 
129 1 0.18811 0.0178265 0.00699723 0.00626237 -2.12943e-05 -0.0001241 -1.04783e-09 -5.05202e-11 4.95696e-12 5e-05 1.46608e-10 
131 1 0.182326 0.0176073 0.00706894 0.00623766 0.00016798 -0.000363993 1.48775e-10 -1.34685e-10 -1.07352e-10 5e-05 1.46608e-10 
132 1 0.188209 0.0178588 0.00698788 0.00627695 2.25106e-05 -0.000136126 -3.08889e-10 -1.70721e-10 7.84905e-11 5e-05 1.46608e-10 
133 1 0.18797 0.0176093 0.00705632 0.00636804 -1.17363e-05 -0.000648773 -1.32298e-10 -5.00697e-10 -5.79279e-10 5e-05 1.46608e-10 
134 1 0.187921 0.0170567 0.00740544 0.00589632 0.000368377 1.72258e-05 2.89563e-12 3.40037e-10 -1.85248e-10 5e-05 1.46608e-10 
135 1 0.18733 0.0152999 0.00904811 0.00599817 0.000123289 -0.000663813 -3.2354e-10 6.12224e-10 -1.07709e-09 5e-05 1.46608e-10 
136 1 0.182175 0.0185513 0.00694394 0.00574689 0.000114913 -0.000335603 3.82567e-10 -2.16287e-10 1.72829e-11 5e-05 1.46608e-10 
137 1 0.187628 0.0162013 0.00794449 0.00559011 0.000354566 1.27744e-05 1.34547e-10 3.12107e-10 -1.57608e-10 5e-05 1.46608e-10 
138 1 0.188057 0.0179878 0.00697141 0.00631233 -1.84307e-05 -0.000127136 -1.98912e-10 1.67729e-10 -1.30005e-10 5e-05 1.46608e-10 
140 1 0.188143 0.0175811 0.00707927 0.00624829 5.47865e-05 7.51484e-05 -4.6286e-10 -4.10608e-10 -1.59705e-10 5e-05 1.46608e-10 
141 1 0.18217 0.0180995 0.00700803 0.00621339 0.000132963 -0.000363092 2.16877e-11 -2.67186e-10 2.96724e-11 5e-05 1.46608e-10 
142 1 0.181879 0.0172248 0.00723584 0.00629637 0.000300855 9.57618e-05 -7.83185e-11 2.28002e-11 -1.17894e-11 5e-05 1.46608e-10 
143 1 0.181362 0.0152548 0.00883441 0.00577585 0.000164973 -0.000190605 -5.35012e-10 2.0803e-10 -8.5672e-10 5e-05 1.46608e-10 
144 1 0.182008 0.0177808 0.00707519 0.00631145 9.57639e-05 -0.000357597 1.51417e-12 -7.46003e-11 -9.99822e-12 5e-05 1.46608e-10 
147 1 0.182231 0.0183899 0.00696362 0.00572769 0.000158049 -0.000340204 2.00196e-10 -5.99588e-10 7.2522e-11 5e-05 1.46608e-10 
148 1 0.181969 0.0168448 0.00743274 0.00569392 0.000332015 5.87026e-05 3.01868e-10 -4.31675e-11 -5.7896e-11 5e-05 1.46608e-10 
149 1 0.187786 0.0168644 0.00752616 0.00570008 0.000610277 -0.000146329 1.88523e-10 2.68654e-10 -1.17589e-10 5e-05 1.46608e-10 
150 1 0.0100679 0.0201683 0.00551526 8.3851e-15 1.2409e-15 -8.48744e-14 -9.07314e-24 4.81154e-23 -2.06795e-25 5e-05 1.46608e-10 
151 1 0.181837 0.0170494 0.00732347 0.00461003 0.000890167 -6.62226e-05 -5.04629e-09 3.5214e-09 7.31918e-09 5e-05 1.46608e-10 
153 1 0.182215 0.0187454 0.0069143 0.0058397 0.000186202 -0.00035043 7.16264e-11 2.65726e-10 -3.88145e-11 5e-05 1.46608e-10 
154 1 0.181965 0.017587 0.00709396 0.00632274 0.00011631 -0.000264386 -2.28772e-11 -2.57355e-10 5.18961e-11 5e-05 1.46608e-10 
155 1 0.182167 0.0173106 0.00720352 0.00626989 0.000256877 0.000116759 -2.1189e-10 2.50663e-10 -1.33618e-10 5e-05 1.46608e-10 
156 1 0.182127 0.0179065 0.0070377 0.00624257 0.000111446 -0.000359904 -2.07642e-10 2.36721e-10 -1.05502e-11 5e-05 1.46608e-10 
157 1 0.0219312 0.0187687 0.00551176 -3.82902e-14 8.16663e-14 2.95893e-13 7.24171e-22 8.79913e-23 6.32793e-23 5e-05 1.46608e-10 
158 1 0.18236 0.018159 0.00698907 0.00590356 0.000846284 -0.000447207 1.2112e-09 5.25625e-10 -1.46083e-10 5e-05 1.46608e-10 
159 1 0.188424 0.0184711 0.00689123 0.0057484 0.000130529 -0.000132965 -2.13382e-10 2.08905e-10 -2.73751e-11 5e-05 1.46608e-10 
160 1 0.181986 0.0176832 0.00707738 0.00632645 9.94631e-05 -0.00038141 -9.25134e-11 -1.82488e-10 -6.45216e-11 5e-05 1.46608e-10 
162 1 0.18229 0.0186796 0.00691942 0.00584801 0.00020799 -0.000353958 -3.1662e-10 1.40979e-10 -4.97886e-12 5e-05 1.46608e-10 
164 1 0.181834 0.016663 0.00756797 0.00572053 8.6296e-05 -0.000386902 -4.74164e-10 3.78325e-11 -5.44185e-11 5e-05 1.46608e-10 
165 1 0.182179 0.0177424 0.00705802 0.00627335 0.00016169 -0.000373132 5.57125e-11 7.9217e-11 -3.11637e-11 5e-05 1.46608e-10 
166 1 0.188157 0.0184719 0.00689636 0.00580228 0.000229703 -0.00014961 -8.89443e-11 1.69634e-11 7.81127e-13 5e-05 1.46608e-10 
168 1 0.181893 0.0169039 0.00739967 0.00573804 0.000353859 3.76737e-05 -1.55703e-10 1.43067e-10 -9.95842e-11 5e-05 1.46608e-10 
169 1 0.182355 0.0185143 0.00693917 0.00559822 0.000347966 -0.000359901 4.3206e-10 -2.09217e-10 5.78507e-12 5e-05 1.46608e-10 
170 1 0.182252 0.0176747 0.0070635 0.00626704 0.00018112 -0.000374049 -1.67924e-10 -1.02128e-10 2.44073e-11 5e-05 1.46608e-10 
171 1 0.188035 0.0178913 0.00698641 0.00636733 4.61377e-05 -0.000129342 1.22833e-10 -3.7676e-11 -5.40476e-10 5e-05 1.46608e-10 
172 1 0.182156 0.0176463 0.00707289 0.00632241 0.000143129 -0.00036967 3.01334e-11 8.40699e-11 3.86736e-11 5e-05 1.46608e-10 
173 1 0.188325 0.0179857 0.00696644 0.0053923 0.00108558 -0.000270612 -2.4928e-10 2.78174e-10 -7.95601e-11 5e-05 1.46608e-10 
174 1 0.182188 0.0173984 0.00715973 0.00629435 0.000265876 0.000111369 -1.91537e-10 9.34462e-11 -3.8406e-11 5e-05 1.46608e-10 
175 1 0.175936 0.0174842 0.00722788 0.00593676 -0.000989851 0.000157656 3.12419e-13 -1.34754e-11 4.8761e-12 5e-05 1.46608e-10 
177 1 0.182008 0.0170202 0.00734506 0.00601241 0.000280412 9.4374e-05 2.25305e-10 4.99168e-11 -1.21029e-11 5e-05 1.46608e-10 
178 1 0.181933 0.0170791 0.0073121 0.00614154 0.000300916 0.000122665 2.56498e-10 2.00716e-10 1.25081e-10 5e-05 1.46608e-10 
179 1 0.182018 0.0174289 0.0071375 0.00632284 0.000245911 0.000132199 -7.06184e-11 -1.22035e-10 -1.16986e-11 5e-05 1.46608e-10 
181 1 0.182306 0.0183228 0.00696893 0.00548359 0.00035401 -0.000354057 -2.20814e-10 1.91952e-10 -1.58494e-11 5e-05 1.46608e-10 
182 1 0.187991 0.0176968 0.00701264 0.00641319 0.000304303 7.615e-05 1.80806e-10 -1.96693e-10 -1.42665e-10 5e-05 1.46608e-10 
183 1 0.182229 0.0175785 0.00707839 0.00631488 0.000145712 -0.000370186 9.89726e-11 2.3521e-10 9.56277e-12 5e-05 1.46608e-10 
184 1 0.188047 0.0175522 0.00709139 0.00622306 0.000100162 2.24397e-05 -6.99815e-10 2.5614e-10 2.01935e-10 5e-05 1.46608e-10 
186 1 0.181818 0.0169646 0.0073728 0.00587604 -0.00152353 -0.00382569 0 0 -1.43822e-09 5e-05 1.46608e-10 
187 1 0.187888 0.0172766 0.0072622 0.00625662 0.000495991 -4.77673e-05 5.66657e-11 4.71629e-10 -2.25154e-10 5e-05 1.46608e-10 
188 1 0.188016 0.0170848 0.00739148 0.00588173 0.000349717 2.94236e-05 -1.00607e-10 2.59576e-10 -1.52527e-10 5e-05 1.46608e-10 
189 1 0.18823 0.0179553 0.00697289 0.00574279 0.000150209 -0.000140536 -2.51706e-10 2.07309e-10 6.82642e-12 5e-05 1.46608e-10 
190 1 0.176224 0.0188009 0.00684952 0.00546236 -0.000885517 0.000137412 3.80229e-12 -1.23635e-11 -9.16078e-13 5e-05 1.46608e-10 
191 1 0.188057 0.01725 0.00728668 0.00599016 0.000281911 7.50701e-05 -3.16642e-10 1.48449e-10 -1.90315e-10 5e-05 1.46608e-10 
192 1 0.182135 0.0175509 0.00709766 0.0063197 0.00011794 -0.000399038 3.1069e-11 8.46264e-11 1.48844e-10 5e-05 1.46608e-10 
193 1 0.188218 0.0175256 0.00711592 0.00625285 0.000128641 0.00017409 -2.97439e-10 -5.80438e-10 3.19386e-10 5e-05 1.46608e-10 
194 1 0.161461 0.0182058 0.00533758 1.51434e-15 -1.10154e-14 8.66682e-14 1.32071e-21 1.58198e-22 -2.48154e-24 5e-05 1.46608e-10 
195 1 0.182339 0.0180615 0.00700403 0.00612836 0.000413197 -0.00039853 5.68064e-10 -3.56029e-10 1.94101e-11 5e-05 1.46608e-10 
196 1 0.181738 0.016299 0.00789688 0.00559942 0.000100318 -0.000385675 -1.83352e-11 1.28979e-10 -1.31046e-10 5e-05 1.46608e-10 
197 1 0.176001 0.0177656 0.00714694 0.00594215 -0.000993683 0.000158496 2.41911e-11 -1.39045e-11 1.64795e-12 5e-05 1.46608e-10 
198 1 0.182195 0.0186482 0.00692915 0.00578167 6.75212e-05 -0.000330449 -5.27602e-11 -2.69681e-10 4.11238e-11 5e-05 1.46608e-10 
199 1 0.182094 0.018164 0.00700315 0.00621899 5.55117e-05 -0.000350322 -1.05711e-10 -3.40095e-10 8.70779e-11 5e-05 1.46608e-10 
201 1 0.18172 0.0165691 0.00765858 0.00566594 0.000118475 -0.000409516 7.98541e-11 1.02648e-11 -3.23335e-11 5e-05 1.46608e-10 
202 1 0.182222 0.0179355 0.00702831 0.00622782 0.000165777 -0.000368538 -2.93196e-10 2.32072e-10 -1.54352e-11 5e-05 1.46608e-10 
203 1 0.187707 0.0165325 0.0077344 0.00562748 0.000487828 -7.18805e-05 1.28685e-10 2.81562e-10 -1.79324e-10 5e-05 1.46608e-10 
204 1 0.181423 0.0154725 0.00863765 0.00579508 0.000215036 -0.000202334 -8.69226e-11 -2.35626e-11 4.58285e-11 5e-05 1.46608e-10 
205 1 0.182296 0.0178681 0.00703376 0.00618254 0.000252404 -0.000378596 7.33325e-10 -2.21511e-10 1.90564e-11 5e-05 1.46608e-10 
206 1 0.181795 0.0165175 0.00769952 0.00565717 9.61713e-05 -0.000383657 1.5979e-11 3.13955e-11 -3.23305e-11 5e-05 1.46608e-10 
207 1 0.181913 0.0169915 0.00735589 0.00592174 0.000336507 9.34016e-05 -1.75062e-10 2.63753e-10 2.09113e-12 5e-05 1.46608e-10 
208 1 0.182105 0.01781 0.00705254 0.0062654 0.000109713 -0.000359512 1.61092e-10 -1.70258e-10 -1.61235e-11 5e-05 1.46608e-10 
209 1 0.178892 0.0175668 0.00714354 0.0055433 -0.000819934 0.000117563 -6.9061e-13 6.36261e-13 -1.72777e-13 5e-05 1.46608e-10 
210 1 0.187929 0.0174419 0.00715739 0.00637763 0.000517277 -5.25873e-05 -8.9634e-12 8.86265e-10 -4.50887e-10 5e-05 1.46608e-10 
211 1 0.187867 0.017194 0.0073146 0.00621634 0.000515038 -6.17884e-05 -4.22233e-10 -5.64814e-11 -5.6767e-11 5e-05 1.46608e-10 
212 1 0.182244 0.018032 0.00701347 0.00624789 0.000197554 -0.000374821 -3.35834e-10 -1.58527e-10 3.66849e-11 5e-05 1.46608e-10 
213 1 0.188194 0.0182126 0.00693477 0.00515072 0.000305687 -0.000147611 1.00429e-10 -3.57058e-11 -2.22229e-14 5e-05 1.46608e-10 
214 1 0.187805 0.016946 0.00747185 0.00588475 0.000598384 -0.000129845 -3.17388e-10 1.20273e-10 -6.89754e-11 5e-05 1.46608e-10 
215 1 0.176206 0.0187063 0.00687664 0.00567696 -0.000924746 0.000144691 2.18251e-12 -1.28801e-11 -6.87452e-12 5e-05 1.46608e-10 
216 1 0.182201 0.017839 0.00704315 0.00623543 0.000164578 -0.00036863 5.69001e-10 -4.52792e-10 3.28933e-11 5e-05 1.46608e-10 
217 1 0.188197 0.0186657 0.00686634 0.00585832 0.000219665 -0.000149792 1.87798e-10 4.84087e-12 -1.68673e-11 5e-05 1.46608e-10 
218 1 0.181526 0.0158421 0.00831706 0.00573358 -6.76641e-05 -0.000568029 7.06209e-11 -4.93728e-10 -1.46777e-10 5e-05 1.46608e-10 
219 1 0.18775 0.0166989 0.00763247 0.00566917 0.000557052 -0.000118315 3.57978e-10 2.06929e-10 -1.19703e-10 5e-05 1.46608e-10 
220 1 0.182318 0.0179646 0.00701892 0.00620992 0.000171107 -0.00036895 2.21303e-10 1.49505e-10 -3.14763e-11 5e-05 1.46608e-10 
221 1 0.24198 0.0176711 0.00702347 0.00569896 -3.05646e-05 9.91386e-06 -4.75228e-13 6.1467e-15 1.93359e-15 5e-05 1.46608e-10 
222 1 0.188271 0.0181488 0.00694289 0.00460337 0.00039582 -0.00014989 -9.73734e-11 -1.23086e-11 6.81218e-12 5e-05 1.46608e-10 
223 1 0.182061 0.0176167 0.00708397 0.00632798 0.000114037 -0.000390299 -6.96739e-11 -8.88201e-11 7.37026e-11 5e-05 1.46608e-10 
224 1 0.103827 0.0178545 0.00778817 -0.0326874 0.0261733 -0.00732985 2.35734e-10 -2.08249e-10 -1.07091e-11 5e-05 1.46608e-10 
225 1 0.188078 0.0173327 0.00723426 0.00606418 0.000126263 0.000167947 -7.09951e-10 4.36759e-10 -1.97229e-10 5e-05 1.46608e-10 
226 1 0.181857 0.0171374 0.00727951 0.0062239 0.0001533 0.000166927 1.0185e-11 4.21454e-11 -2.1196e-11 5e-05 1.46608e-10 
227 1 0.176148 0.0184234 0.00695787 0.00554376 -0.000902075 0.000141235 -9.61206e-13 -1.1775e-11 7.68618e-12 5e-05 1.46608e-10 
228 1 0.175958 0.017578 0.0072009 0.00593986 -0.000990463 0.000157505 -3.83406e-11 1.19708e-11 3.43634e-13 5e-05 1.46608e-10 
229 1 0.182286 0.018226 0.00698372 0.00548677 0.000368102 -0.000356288 6.20406e-10 -4.52851e-10 2.71765e-11 5e-05 1.46608e-10 
230 1 0.181681 0.016423 0.00778957 0.0056331 0.000127284 -0.00041268 1.27501e-10 1.31496e-10 -1.09297e-10 5e-05 1.46608e-10 
231 1 0.175914 0.0173904 0.00725487 0.00593663 -0.00098949 0.000157501 2.58173e-11 -6.79364e-12 8.29646e-13 5e-05 1.46608e-10 
232 1 0.182072 0.0180675 0.00701798 0.00625641 6.46018e-05 -0.000354945 -9.8293e-11 -1.48727e-10 3.22063e-11 5e-05 1.46608e-10 
234 1 0.188132 0.0179227 0.00698031 0.00628028 -2.56729e-05 -0.000136877 -5.27694e-10 1.88203e-10 4.7444e-11 5e-05 1.46608e-10 
235 1 0.182274 0.0177714 0.00704863 0.00623479 0.000243339 -0.000379445 -1.46814e-10 3.2187e-10 -2.11549e-11 5e-05 1.46608e-10 
236 1 0.181643 0.0162774 0.00792112 0.00553452 0.000137903 -0.000414821 2.89539e-10 1.41879e-10 -1.5276e-10 5e-05 1.46608e-10 
237 1 0.181604 0.0161318 0.00805272 0.00549762 0.000133387 -0.000411362 -3.61464e-10 8.49756e-11 -7.2463e-11 5e-05 1.46608e-10 
239 1 0.175751 0.0166494 0.00749617 0.00553389 -0.00225416 -0.00189216 8.55199e-12 -8.28615e-11 -2.04201e-10 5e-05 1.46608e-10 
240 1 0.17577 0.0167318 0.00744297 0.00553286 -0.000872296 0.000253736 -2.1543e-11 2.95067e-11 -4.55639e-12 5e-05 1.46608e-10 
241 1 0.175827 0.0170152 0.00736276 0.00593081 -0.000949506 0.000277993 2.98688e-14 -6.51592e-13 4.53149e-12 5e-05 1.46608e-10 
242 1 0.181921 0.0173997 0.00714856 0.00633602 0.000262858 0.000104058 -9.11014e-11 3.77942e-11 -7.17033e-11 5e-05 1.46608e-10 
244 1 0.175789 0.0168263 0.00741623 0.00549904 -0.000866625 0.000253931 -3.57343e-12 -1.39016e-12 -4.71356e-12 5e-05 1.46608e-10 
246 1 0.175892 0.0172966 0.00728185 0.00593616 -0.000988304 0.000157089 1.06167e-11 3.13095e-12 -4.82818e-12 5e-05 1.46608e-10 
247 1 0.182476 0.0182874 0.00696453 0.00553673 0.000101099 -0.000321576 -3.67411e-11 2.08521e-10 -2.85933e-11 5e-05 1.46608e-10 
248 1 0.181701 0.0164958 0.00772379 0.00564435 0.000127165 -0.000412712 1.30738e-10 1.16977e-10 -8.80033e-11 5e-05 1.46608e-10 
249 1 0.176186 0.018612 0.00690372 0.00563168 -0.000917437 0.000143356 -5.48261e-12 -6.50462e-12 2.15591e-11 5e-05 1.46608e-10 
250 1 0.181988 0.0169326 0.00738884 0.00584045 0.000306589 7.59471e-05 2.70476e-10 3.50618e-12 1.97271e-11 5e-05 1.46608e-10 
251 1 0.187729 0.0166148 0.00768215 0.00564908 0.000525431 -9.34009e-05 1.35044e-10 2.21456e-10 -1.53589e-10 5e-05 1.46608e-10 
252 1 0.176045 0.0179533 0.00709298 0.00594702 -0.000992028 0.000157879 -6.02954e-12 1.11467e-12 -1.96332e-13 5e-05 1.46608e-10 
253 1 0.176242 0.0188957 0.00682337 0.00553132 -0.000850932 0.000308179 -5.2367e-12 -1.53823e-11 6.12531e-12 5e-05 1.46608e-10 
254 1 0.175871 0.0172028 0.00730883 0.00593474 -0.00098689 0.000156682 2.95994e-12 6.921e-12 -1.57297e-12 5e-05 1.46608e-10 
255 1 0.182029 0.0178745 0.00704765 0.00628465 8.76519e-05 -0.000352423 7.79749e-12 -1.39121e-10 -7.57078e-11 5e-05 1.46608e-10 
256 1 0.182113 0.0174574 0.00712672 0.00631572 0.000247568 0.000119147 -6.67532e-11 -8.6253e-11 2.22414e-11 5e-05 1.46608e-10 
257 1 0.182071 0.0172825 0.00721406 0.00624979 0.000250073 0.000119402 -1.49751e-13 1.56184e-11 -1.14124e-11 5e-05 1.46608e-10 
258 1 0.181975 0.0172541 0.00722472 0.00631926 0.000257143 0.000116945 -1.89217e-10 1.08335e-10 -2.75362e-11 5e-05 1.46608e-10 
259 1 0.176066 0.0180471 0.00706599 0.00594818 -0.000993721 0.000158396 1.34488e-11 9.70386e-12 -2.70919e-12 5e-05 1.46608e-10 
261 1 0.181778 0.016788 0.00745977 0.00574668 0.000208199 -0.000485218 -1.75369e-11 6.37074e-11 -5.45526e-11 5e-05 1.46608e-10 