ITEM: TIMESTEP
20000000
ITEM: NUMBER OF ATOMS
287
ITEM: BOX BOUNDS ff ff ff
-0.02 0.43
-0.02 0.06
-0.02 0.07
ITEM: ATOMS id type x y z vx vy vz fx fy fz radius mass 
1 1 0.129372 0.0161641 0.0081777 0.00598373 0.000475307 -0.00103976 5.74687e-10 2.96799e-10 5.34804e-10 5e-05 1.46608e-10 
2 1 0.129856 0.0172464 0.00727891 0.00601137 0.00115533 0.0001095 1.99969e-10 -4.06641e-10 6.60372e-11 5e-05 1.46608e-10 
3 1 0.123228 0.0158825 0.00819743 0.00619314 -4.7215e-05 -0.00035708 1.85431e-10 1.74267e-11 -3.05264e-11 5e-05 1.46608e-10 
4 1 0.12971 0.017381 0.00727798 0.00554732 0.000815972 -0.000331021 1.50226e-11 -7.38488e-10 -4.54808e-11 5e-05 1.46608e-10 
5 1 0.129253 0.0160708 0.00826855 0.0061464 0.00104706 -0.000363427 1.80398e-11 2.96515e-12 -1.20213e-10 5e-05 1.46608e-10 
6 1 0.135337 0.0162536 0.00785772 0.00648002 0.00109715 -0.000444433 -3.09547e-12 2.43468e-12 -1.96508e-12 5e-05 1.46608e-10 
7 1 0.129445 0.0166914 0.00764601 0.00633125 0.000416147 -0.00105538 -2.07265e-10 -2.31992e-12 2.94918e-10 5e-05 1.46608e-10 
8 1 0.129145 0.015706 0.00859307 0.00604787 0.00100623 -0.000342012 -1.5066e-10 -2.7116e-10 1.81034e-10 5e-05 1.46608e-10 
9 1 0.135612 0.0174097 0.0073665 0.00617608 0.000837186 -0.000804058 -5.578e-13 5.41908e-13 -8.6551e-13 5e-05 1.46608e-10 
10 1 0.129381 0.0164847 0.00785374 0.00621612 0.000453298 -0.000990488 -3.35029e-10 6.74048e-11 2.3041e-10 5e-05 1.46608e-10 
11 1 0.129897 0.0174437 0.00721861 0.00592939 0.00112876 0.000113714 3.47741e-10 8.37319e-11 -9.39718e-13 5e-05 1.46608e-10 
12 1 0.123441 0.016619 0.00757421 0.0058455 0.000148124 7.5753e-05 6.64072e-11 -1.34968e-10 6.02952e-11 5e-05 1.46608e-10 
13 1 0.129231 0.0159978 0.00833346 0.0061242 0.00103849 -0.000367817 3.04598e-11 3.43976e-11 -2.55511e-11 5e-05 1.46608e-10 
14 1 0.123144 0.0156276 0.0084937 0.0060264 -4.96695e-05 -0.000342568 -2.89513e-10 1.70958e-10 -1.82872e-10 5e-05 1.46608e-10 
15 1 0.129583 0.016849 0.00747802 0.0055129 0.000546598 -0.00106963 -3.23289e-10 1.92568e-10 1.15902e-10 5e-05 1.46608e-10 
16 1 0.123124 0.0155637 0.00856794 0.00568332 -8.99633e-06 -0.000367127 -1.1123e-10 2.62103e-10 -2.64726e-10 5e-05 1.46608e-10 
17 1 0.12936 0.0164174 0.00792462 0.00620787 0.000435696 -0.000991377 7.8558e-11 4.64087e-10 3.55982e-10 5e-05 1.46608e-10 
18 1 0.135485 0.0168566 0.00756131 0.0063573 0.000795333 -0.000805161 2.55492e-12 1.62871e-12 2.84483e-13 5e-05 1.46608e-10 
19 1 0.12921 0.0159249 0.00839836 0.00609635 0.00103569 -0.000369377 -3.86835e-11 -4.55044e-10 1.87955e-10 5e-05 1.46608e-10 
21 1 0.12935 0.0160938 0.0082455 0.00582871 0.000514806 -0.0010168 -5.25375e-10 5.99427e-10 -3.52527e-10 5e-05 1.46608e-10 
22 1 0.129487 0.0168284 0.00750732 0.00576049 0.000570041 -0.00106695 1.76024e-10 -1.71393e-10 -1.20952e-10 5e-05 1.46608e-10 
23 1 0.123634 0.0170707 0.00731266 0.00584042 0.000180913 5.51361e-05 -6.9059e-11 3.38787e-11 -1.0346e-11 5e-05 1.46608e-10 
24 1 0.135549 0.0171332 0.0074639 0.0062667 0.00081626 -0.000804726 1.718e-13 8.19878e-13 -1.7661e-12 5e-05 1.46608e-10 
25 1 0.129424 0.0166218 0.00771458 0.00633755 0.000421735 -0.00104127 -1.62219e-10 -6.11375e-11 2.44288e-10 5e-05 1.46608e-10 
26 1 0.135422 0.01658 0.00765871 0.0064475 0.000774708 -0.000805378 -1.50938e-11 -4.78379e-12 3.30325e-11 5e-05 1.46608e-10 
27 1 0.123519 0.0169575 0.00737631 0.00582297 0.000176425 5.72113e-05 -1.92601e-10 2.7541e-10 -1.37318e-10 5e-05 1.46608e-10 
28 1 0.129685 0.0172856 0.00726164 0.00644337 0.000921439 -0.00205047 3.24044e-10 -1.55749e-10 -9.93881e-10 5e-05 1.46608e-10 
29 1 0.129188 0.0158519 0.00846326 0.00606424 0.00103081 -0.000360686 2.1576e-10 -5.71115e-10 5.11468e-10 5e-05 1.46608e-10 
30 1 0.129734 0.0171259 0.00732166 0.00605486 0.00105807 0.000150678 -2.55622e-10 -3.34967e-10 -4.44502e-10 5e-05 1.46608e-10 
31 1 0.129467 0.0167653 0.00758234 0.00614107 0.000471571 -0.00105312 -1.33342e-10 -2.01268e-10 -5.07572e-12 5e-05 1.46608e-10 
32 1 0.129563 0.0167773 0.00754657 0.00584233 0.000598605 -0.00110804 1.05417e-10 1.36095e-10 -1.79239e-10 5e-05 1.46608e-10 
33 1 0.135358 0.0163235 0.00778943 0.0065046 0.00109537 -0.000438842 2.43044e-11 -3.62917e-12 1.18444e-12 5e-05 1.46608e-10 
34 1 0.129338 0.01635 0.00799534 0.00622014 0.000430524 -0.00101453 3.36371e-10 4.83124e-10 7.10229e-11 5e-05 1.46608e-10 
35 1 0.129542 0.0167088 0.00761659 0.00624598 0.000592307 -0.00113495 -3.52791e-10 1.04135e-10 -8.20251e-11 5e-05 1.46608e-10 
36 1 0.135654 0.0175942 0.00730157 0.00588619 0.000902989 -0.000801295 7.17657e-13 -2.81739e-13 3.34376e-14 5e-05 1.46608e-10 
37 1 0.129499 0.016572 0.00775645 0.00633919 0.000460575 -0.00101723 9.37368e-12 1.63817e-10 -4.08725e-11 5e-05 1.46608e-10 
38 1 0.129677 0.0168658 0.00744857 0.00556002 0.000477638 -0.000961885 -4.07422e-10 1.4755e-10 5.89782e-11 5e-05 1.46608e-10 
39 1 0.13557 0.0172254 0.00743144 0.00623645 0.000823204 -0.000804542 -5.76235e-13 3.53111e-13 1.68212e-12 5e-05 1.46608e-10 
41 1 0.129296 0.0162117 0.00813339 0.00615903 0.000486144 -0.000987085 -7.37996e-10 3.74299e-10 -7.48481e-10 5e-05 1.46608e-10 
42 1 0.129505 0.0168947 0.00743478 0.00556286 0.000609592 -0.00108813 -1.19913e-10 4.46226e-11 8.56619e-11 5e-05 1.46608e-10 
44 1 0.129695 0.0169346 0.00737845 0.00576973 0.000368058 -0.00102038 -1.62136e-10 7.39832e-11 -9.26246e-11 5e-05 1.46608e-10 
45 1 0.13538 0.0163956 0.00772365 0.00647864 0.00076677 -0.000807352 -4.81517e-11 -2.37356e-11 1.98658e-11 5e-05 1.46608e-10 
46 1 0.135464 0.0167644 0.00759378 0.00638769 0.000788451 -0.000805988 -5.93012e-13 6.52412e-13 -1.60629e-11 5e-05 1.46608e-10 
47 1 0.129317 0.0162805 0.00806399 0.00619804 0.000431535 -0.00102707 -5.31504e-11 5.70681e-10 -6.15343e-11 5e-05 1.46608e-10 
48 1 0.129543 0.0170612 0.00733525 0.0059647 0.000729879 -0.000646374 -8.10807e-11 -6.3814e-11 4.27572e-12 5e-05 1.46608e-10 
49 1 0.135443 0.0166722 0.00762625 0.0064176 0.000781554 -0.000806976 -6.80327e-12 3.55011e-13 1.26038e-11 5e-05 1.46608e-10 
50 1 0.129604 0.0173348 0.00723025 0.00571044 0.00108046 0.000115954 1.63729e-10 1.01348e-10 -5.10863e-11 5e-05 1.46608e-10 
51 1 0.129583 0.0172412 0.0072588 0.0060365 0.00102106 0.000142029 2.62844e-11 1.08508e-10 -7.41791e-11 5e-05 1.46608e-10 
52 1 0.12342 0.0165345 0.00762357 0.00628487 6.47613e-05 0.000135865 4.66623e-11 -1.9013e-10 7.10417e-11 5e-05 1.46608e-10 
53 1 0.135506 0.0169488 0.00752884 0.00632704 0.000802266 -0.000805407 -1.33077e-12 -6.99602e-13 6.73693e-12 5e-05 1.46608e-10 
54 1 0.129329 0.0160255 0.00831534 0.00594736 0.000473664 -0.000988853 -5.16812e-10 4.69506e-10 -4.36524e-10 5e-05 1.46608e-10 
55 1 0.123186 0.0157552 0.00834547 0.00610787 -3.3927e-05 -0.000364317 1.18499e-10 -4.28528e-11 5.14315e-11 5e-05 1.46608e-10 
56 1 0.129521 0.0166403 0.00768658 0.00635273 0.0004892 -0.00105441 -3.52617e-10 1.16025e-10 -1.72714e-10 5e-05 1.46608e-10 
57 1 0.135401 0.0164879 0.00769118 0.00647998 0.000766163 -0.000803856 1.20798e-10 -2.2015e-11 -4.83085e-11 5e-05 1.46608e-10 
59 1 0.129597 0.0165913 0.00772872 0.00639378 0.00051669 -0.00107363 -3.57829e-10 -3.85292e-10 3.60425e-10 5e-05 1.46608e-10 
60 1 0.129618 0.0166597 0.00765883 0.00610479 0.000501583 -0.00103396 -1.07348e-09 4.08179e-10 -3.43323e-10 5e-05 1.46608e-10 
61 1 0.129274 0.0161433 0.00820309 0.00615761 0.00077717 -0.000672144 5.52646e-11 6.06577e-10 3.52634e-10 5e-05 1.46608e-10 
62 1 0.129711 0.017025 0.00733874 0.00589074 0.00088038 0.000182112 -5.5586e-11 1.0752e-10 -4.28108e-11 5e-05 1.46608e-10 
63 1 0.129638 0.0170919 0.00732817 0.00595357 0.000929398 5.07253e-05 -1.83943e-11 2.54681e-11 -1.16903e-10 5e-05 1.46608e-10 
64 1 0.135527 0.017041 0.00749637 0.00629693 0.000809308 -0.000805212 -1.48627e-12 -7.0263e-13 -2.57019e-12 5e-05 1.46608e-10 
65 1 0.123555 0.0167322 0.00751049 0.00585218 0.000170969 6.25254e-05 -2.9689e-11 8.1542e-11 -5.79728e-11 5e-05 1.46608e-10 
66 1 0.123494 0.0164779 0.00765912 0.00642018 0.000193662 6.55201e-05 1.45737e-10 -8.67949e-11 7.04746e-11 5e-05 1.46608e-10 
67 1 0.129856 0.0173562 0.00724351 0.00594842 0.00110668 0.000120475 2.83528e-10 2.4555e-11 -1.11498e-10 5e-05 1.46608e-10 
68 1 0.12978 0.0173108 0.00729086 0.00596213 0.00108066 0.000111506 5.12907e-10 -8.59838e-11 1.94293e-10 5e-05 1.46608e-10 
69 1 0.129435 0.016367 0.00796611 0.00617128 0.000441126 -0.00098955 1.27619e-10 2.44367e-10 -2.31039e-10 5e-05 1.46608e-10 
70 1 0.135591 0.0173176 0.00739897 0.00620626 0.0008302 -0.000804359 -1.16784e-12 1.93973e-13 -2.89968e-14 5e-05 1.46608e-10 
71 1 0.123165 0.0156915 0.00841954 0.00610381 -4.22824e-05 -0.000355495 -6.68182e-11 2.51991e-12 -1.13609e-11 5e-05 1.46608e-10 
72 1 0.129753 0.0172151 0.00728081 0.00605506 0.00105029 0.00014109 1.19867e-10 -1.69199e-10 -1.31181e-10 5e-05 1.46608e-10 
73 1 0.129402 0.016553 0.00778389 0.00628624 0.000446498 -0.00100459 -2.2802e-10 -1.03486e-10 2.03996e-10 5e-05 1.46608e-10 
74 1 0.1296 0.0169165 0.00740473 0.00575677 0.000560954 -0.00106309 4.61457e-11 -8.84895e-11 -8.85383e-11 5e-05 1.46608e-10 
76 1 0.123752 0.0176114 0.00708909 0.00574913 5.72234e-05 -0.000260762 1.2241e-11 2.06342e-11 -1.0275e-11 5e-05 1.46608e-10 
77 1 0.129708 0.0178417 0.00716964 0.00559522 0.000727236 -0.000796499 -1.55241e-10 -2.30351e-10 -6.90184e-10 5e-05 1.46608e-10 
78 1 0.123249 0.0159463 0.00812332 0.00622445 -5.59266e-05 -0.000348311 3.14431e-10 7.1877e-11 -1.04596e-11 5e-05 1.46608e-10 
79 1 0.12346 0.0167036 0.00752472 0.00579483 0.000163854 6.45457e-05 -1.1899e-10 -5.4531e-11 5.13526e-11 5e-05 1.46608e-10 
80 1 0.129637 0.017514 0.00731182 0.00581149 0.00100572 0.000257429 -5.40779e-11 7.42289e-11 -5.93322e-11 5e-05 1.46608e-10 
81 1 0.123398 0.0164502 0.00767282 0.00632282 3.13379e-05 0.00015232 -2.62105e-10 -1.49455e-10 1.31845e-10 5e-05 1.46608e-10 
82 1 0.123539 0.0170422 0.00732684 0.00586702 0.000181844 5.9906e-05 -1.54434e-11 2.43683e-10 -9.86982e-11 5e-05 1.46608e-10 
83 1 0.123589 0.0165058 0.00764524 0.00662938 0.000878787 -0.000334345 2.41079e-10 1.51354e-10 -8.6078e-11 5e-05 1.46608e-10 
84 1 0.135633 0.0175019 0.00733403 0.00614582 0.000844159 -0.000803812 -1.19736e-12 2.57815e-13 3.8062e-13 5e-05 1.46608e-10 
85 1 0.123365 0.0160268 0.00802372 0.00623848 -7.70059e-05 -0.000338952 -1.33019e-10 -1.2615e-10 6.1705e-11 5e-05 1.46608e-10 
86 1 0.129658 0.0171864 0.00729545 0.00604985 0.0010299 0.000149781 -5.29804e-11 -2.5729e-10 -4.9523e-10 5e-05 1.46608e-10 
87 1 0.129576 0.016523 0.00779859 0.00631568 0.000444511 -0.000994024 -2.15484e-11 2.762e-10 -2.73576e-10 5e-05 1.46608e-10 
88 1 0.129648 0.0175526 0.00722024 0.0057029 0.000840606 0.000179431 1.20926e-11 5.37304e-11 9.45866e-11 5e-05 1.46608e-10 
89 1 0.129736 0.0175965 0.00725978 0.00568339 0.000886237 0.000162965 2.30096e-11 -5.95632e-11 -7.6019e-12 5e-05 1.46608e-10 
90 1 0.129828 0.0171543 0.00730641 0.00613697 0.00112351 0.00012826 1.58504e-10 -1.3733e-10 2.73115e-11 5e-05 1.46608e-10 
91 1 0.12348 0.0167883 0.00747523 0.00578047 0.000170555 6.04701e-05 3.32487e-10 -3.94746e-11 3.24782e-11 5e-05 1.46608e-10 
92 1 0.129845 0.0175984 0.00716455 0.00580549 0.00106888 0.000114502 -2.70531e-10 -7.96514e-11 6.31113e-11 5e-05 1.46608e-10 
93 1 0.129764 0.0176551 0.00718062 0.00570526 0.000942474 0.00010025 -1.62876e-10 5.48248e-11 7.13835e-11 5e-05 1.46608e-10 
94 1 0.129891 0.0178929 0.00711799 0.00552528 0.000895078 -0.000976224 -4.04566e-10 2.55237e-10 4.43175e-11 5e-05 1.46608e-10 
95 1 0.129849 0.017672 0.00723215 0.00230301 0.00159581 -0.000263992 -4.70774e-13 3.75571e-11 2.90817e-11 5e-05 1.46608e-10 
96 1 0.129856 0.0176935 0.00713476 0.00089302 0.00147122 -0.000399737 -2.91119e-10 -4.59792e-11 -2.29146e-12 5e-05 1.46608e-10 
97 1 0.123355 0.0162816 0.00777125 0.00637474 6.34364e-05 5.29588e-05 -3.01528e-10 1.55658e-09 -2.48001e-09 5e-05 1.46608e-10 
98 1 0.129668 0.0176499 0.00720879 0.00570203 0.000836229 8.56759e-05 2.8755e-11 1.90071e-10 4.98879e-10 5e-05 1.46608e-10 
99 1 0.123535 0.0166483 0.00756107 0.00583668 0.000168947 6.33666e-05 1.40863e-10 -2.55283e-12 -6.87623e-12 5e-05 1.46608e-10 
100 1 0.129794 0.0169748 0.0073844 0.00609553 0.000895977 -0.000281292 3.68325e-10 2.38354e-10 -1.76302e-10 5e-05 1.46608e-10 
101 1 0.123473 0.0163936 0.00770841 0.00650104 0.000185961 8.12458e-05 1.866e-10 7.11223e-11 9.12297e-11 5e-05 1.46608e-10 
102 1 0.0643568 0.0187248 0.00531097 4.13894e-15 1.05296e-14 8.29627e-14 -1.47181e-21 7.6005e-22 -1.38553e-23 5e-05 1.46608e-10 
103 1 0.24257 0.0191927 0.00520306 3.06537e-22 5.77616e-22 -5.81428e-22 -3.23117e-27 0 0 5e-05 1.46608e-10 
104 1 0.123827 0.0175467 0.0071007 0.00555819 -4.77905e-06 -0.000517918 -9.24287e-11 -1.11843e-10 -3.38417e-10 5e-05 1.46608e-10 
105 1 0.123312 0.0161376 0.00790091 0.00632659 -0.000163849 -0.000282781 -1.89805e-11 5.09267e-10 -2.0939e-09 5e-05 1.46608e-10 
106 1 0.123902 0.0174811 0.0071121 0.00569941 2.92503e-05 -0.000231627 -2.45212e-11 -2.1249e-10 -1.84927e-10 5e-05 1.46608e-10 
107 1 0.12327 0.01601 0.00804922 0.00623991 -6.57872e-05 -0.000338907 1.31678e-10 -6.53641e-11 5.99682e-11 5e-05 1.46608e-10 
108 1 0.129478 0.0165036 0.00782646 0.00626741 0.000438271 -0.000984077 -2.29573e-10 1.22993e-10 -1.05857e-10 5e-05 1.46608e-10 
109 1 0.129563 0.017153 0.00730149 0.00599649 0.000905538 -0.000132135 -3.12953e-11 -6.23854e-12 -1.12607e-10 5e-05 1.46608e-10 
110 1 0.129788 0.018231 0.00718184 0.00565437 0.000770833 -0.00101901 1.09802e-10 2.99582e-10 -1.5304e-10 5e-05 1.46608e-10 
111 1 0.129843 0.0180606 0.00714913 0.00558848 0.000914111 -0.000991482 -1.15444e-10 3.17885e-10 2.04572e-10 5e-05 1.46608e-10 
112 1 0.123377 0.0163659 0.00772202 0.00630574 4.8208e-05 0.000168554 -3.58398e-10 4.67596e-10 -4.82431e-11 5e-05 1.46608e-10 
113 1 0.124113 0.0183429 0.00693728 0.00567319 0.000141315 -0.000161051 -4.24621e-12 2.64519e-11 -2.73588e-12 5e-05 1.46608e-10 
114 1 0.123766 0.0172705 0.00719821 0.0057094 0.000153632 5.93774e-05 -9.78757e-11 -1.35848e-12 -7.46808e-11 5e-05 1.46608e-10 
115 1 0.129615 0.0169929 0.00734145 0.00608293 0.000952061 0.000170053 -1.08669e-10 2.53717e-10 3.09692e-11 5e-05 1.46608e-10 
116 1 0.129457 0.0164371 0.00789814 0.00621308 0.000442871 -0.000994074 5.38379e-11 2.60486e-10 -2.36151e-10 5e-05 1.46608e-10 
117 1 0.129306 0.0159528 0.00838202 0.0061418 0.0010569 -0.000379064 -1.09329e-10 1.10932e-10 -1.78439e-10 5e-05 1.46608e-10 
118 1 0.123207 0.0158227 0.00827482 0.00614349 -3.51041e-05 -0.000365406 4.01792e-11 -1.80018e-11 -8.5971e-12 5e-05 1.46608e-10 
119 1 0.129639 0.016728 0.00758896 0.00580425 0.000539326 -0.0010437 -2.24234e-10 7.78056e-11 -8.14879e-11 5e-05 1.46608e-10 
120 1 0.129167 0.015779 0.00852817 0.00605557 0.00100923 -0.000346805 -3.58025e-11 -3.80899e-10 4.31574e-10 5e-05 1.46608e-10 
121 1 0.129123 0.0156331 0.00865798 0.00602991 0.00101025 -0.00034695 -2.94391e-11 -1.89107e-10 1.82395e-10 5e-05 1.46608e-10 
122 1 0.129771 0.0181327 0.0071849 0.00562809 0.000756955 -0.00104839 6.49218e-11 2.18341e-10 -1.61428e-10 5e-05 1.46608e-10 
123 1 0.123408 0.016157 0.007878 0.00623886 -5.46072e-06 -0.000251055 -2.69714e-10 -3.35193e-10 -1.19763e-11 5e-05 1.46608e-10 
124 1 0.129735 0.0175494 0.00717161 0.00566128 0.000872788 0.00016457 -1.58412e-10 2.87079e-10 -1.14913e-10 5e-05 1.46608e-10 
125 1 0.129285 0.0158798 0.00844693 0.00608028 0.00102954 -0.000359038 2.38223e-10 -2.18037e-10 2.76506e-10 5e-05 1.46608e-10 
126 1 0.129523 0.0169702 0.00737172 0.0057893 0.000634216 -0.000996231 -1.90839e-10 2.43202e-11 1.95405e-10 5e-05 1.46608e-10 
127 1 0.123333 0.0162013 0.0078268 0.00643074 9.11207e-07 -0.000251006 -6.46323e-10 6.24642e-10 -1.40899e-10 5e-05 1.46608e-10 
128 1 0.129622 0.0174263 0.0072663 0.00571423 0.00105623 0.000177421 1.53064e-10 -2.01758e-11 -5.00708e-11 5e-05 1.46608e-10 
129 1 0.129831 0.017804 0.00721321 0.0053871 0.000943287 -0.000839099 -1.15469e-10 -1.07726e-10 1.9953e-10 5e-05 1.46608e-10 
130 1 0.123655 0.0171552 0.00726323 0.0057765 0.000183793 5.33114e-05 -1.25389e-10 -8.16294e-11 -7.44741e-12 5e-05 1.46608e-10 
131 1 0.123515 0.0165624 0.00760973 0.00616123 0.000445043 -9.09588e-05 1.2055e-10 1.61474e-10 -9.40754e-11 5e-05 1.46608e-10 
132 1 0.129706 0.0174765 0.00724862 0.00578591 0.00092378 0.000171082 4.64283e-11 -2.18539e-10 -1.83131e-10 5e-05 1.46608e-10 
133 1 0.12949 0.0162493 0.00807849 0.00633519 0.000496771 -0.00105248 -6.50038e-11 -1.48568e-10 -4.39594e-11 5e-05 1.46608e-10 
134 1 0.129658 0.016797 0.00751866 0.00550382 0.000561118 -0.00104183 -7.59476e-11 2.8279e-10 -1.98229e-10 5e-05 1.46608e-10 
135 1 0.129263 0.0158069 0.00851183 0.00600151 0.00101917 -0.000359203 9.80917e-10 -4.95585e-10 5.32437e-10 5e-05 1.46608e-10 
136 1 0.123344 0.0159631 0.00809784 0.00623649 -6.46174e-05 -0.000339038 8.50688e-11 -1.2306e-10 7.43867e-11 5e-05 1.46608e-10 
137 1 0.129728 0.0179393 0.00716207 0.00552513 0.000742454 -0.00100726 -2.47945e-10 4.79677e-11 -7.05679e-11 5e-05 1.46608e-10 
138 1 0.129414 0.0162987 0.00803597 0.00624157 0.0004577 -0.00100409 2.50184e-10 4.61439e-11 2.11961e-10 5e-05 1.46608e-10 
140 1 0.129863 0.0181595 0.00715786 0.00566348 0.000653954 -0.00102546 4.34579e-10 2.62735e-10 -1.37689e-11 5e-05 1.46608e-10 
141 1 0.123386 0.0160907 0.00794977 0.00624736 -9.4757e-05 -0.000342485 -2.869e-10 -3.02156e-10 2.79703e-11 5e-05 1.46608e-10 
142 1 0.123787 0.0173596 0.0071579 0.00570492 0.000100071 -3.76937e-05 1.35671e-10 -1.44366e-11 -4.54986e-11 5e-05 1.46608e-10 
143 1 0.123291 0.0160739 0.00797501 0.00629981 2.28587e-05 -0.000449152 -6.91518e-10 -2.1619e-09 2.73407e-09 5e-05 1.46608e-10 
144 1 0.123749 0.0171856 0.00724793 0.00569254 0.000170156 5.90794e-05 6.85081e-11 1.19703e-11 6.42811e-11 5e-05 1.46608e-10 
146 1 0.123611 0.0165919 0.00759495 0.00577507 0.000119576 9.09139e-05 4.46397e-10 -5.47674e-11 4.12411e-11 5e-05 1.46608e-10 
147 1 0.123323 0.0158993 0.00817194 0.00620831 -5.6564e-05 -0.00034402 6.9872e-11 -2.98232e-11 4.52772e-12 5e-05 1.46608e-10 
148 1 0.123598 0.0173042 0.00719456 0.00568894 0.000166039 6.05322e-05 3.41923e-11 -5.4846e-11 1.04729e-11 5e-05 1.46608e-10 
149 1 0.129823 0.017963 0.00714044 0.00549814 0.00091046 -0.000970819 -4.51284e-10 2.60815e-10 1.02724e-10 5e-05 1.46608e-10 
150 1 0.12365 0.0167612 0.00749601 0.00587045 0.000154958 7.23571e-05 -1.77576e-10 2.59303e-10 -1.72374e-10 5e-05 1.46608e-10 
151 1 0.124017 0.0176068 0.00708251 0.00562491 6.98638e-05 -0.000146709 1.4444e-11 -3.83677e-12 -5.0375e-12 5e-05 1.46608e-10 
153 1 0.123451 0.0163093 0.00775757 0.0064608 0.000182889 7.33729e-05 1.67662e-10 5.0464e-11 -4.15623e-11 5e-05 1.46608e-10 
154 1 0.123711 0.0174204 0.00713403 0.00569725 4.48922e-05 -0.000256139 1.08651e-11 -1.17666e-10 2.3652e-11 5e-05 1.46608e-10 
155 1 0.123772 0.0177078 0.00706869 0.00556785 9.83447e-05 -0.00015062 6.82301e-11 -7.00875e-11 1.04597e-11 5e-05 1.46608e-10 
156 1 0.12369 0.0173256 0.0071635 0.00569372 0.000138077 7.12805e-05 -2.19985e-11 4.79624e-11 -5.05726e-11 5e-05 1.46608e-10 
157 1 0.0219312 0.0187687 0.00551176 -3.83211e-14 8.16497e-14 2.95894e-13 8.36383e-22 4.60171e-22 -2.17135e-23 5e-05 1.46608e-10 
158 1 0.123974 0.0180949 0.00701225 0.00561217 6.4971e-05 -0.000131717 6.07218e-11 6.02998e-12 6.19915e-12 5e-05 1.46608e-10 
159 1 0.129781 0.0174176 0.00721775 0.00586779 0.00101535 0.000139811 -1.12782e-10 -2.03986e-10 -9.93713e-11 5e-05 1.46608e-10 
160 1 0.123657 0.0175814 0.00709996 0.00571992 4.60999e-05 -0.000261588 -7.97363e-11 -5.05753e-11 -2.93105e-11 5e-05 1.46608e-10 
162 1 0.123617 0.0173924 0.0071514 0.00569713 0.000106561 -6.38419e-05 -2.62827e-11 -1.98772e-11 1.36975e-10 5e-05 1.46608e-10 
164 1 0.12387 0.0181267 0.00698501 0.00560365 9.09771e-05 -0.000148925 -1.57335e-11 3.441e-11 4.95642e-12 5e-05 1.46608e-10 
165 1 0.12408 0.0178967 0.00702471 0.00560951 5.68e-05 -0.000143623 -1.17773e-11 -1.91561e-11 5.59499e-12 5e-05 1.46608e-10 
166 1 0.129447 0.0161127 0.00821821 0.0060943 0.000606533 -0.0011438 -2.22518e-10 2.35055e-10 -2.82354e-10 5e-05 1.46608e-10 
167 1 0.12363 0.0166766 0.00754549 0.00583013 0.000151814 7.31864e-05 6.1095e-11 2.08095e-10 -1.21073e-10 5e-05 1.46608e-10 
168 1 0.123922 0.0175774 0.00709048 0.00556304 0.00010207 -0.000150309 9.75383e-12 -3.60618e-10 5.39892e-11 5e-05 1.46608e-10 
169 1 0.124141 0.0181883 0.00696665 0.00564269 4.92453e-05 -0.000142856 -7.78886e-11 -3.45136e-11 7.51093e-12 5e-05 1.46608e-10 
170 1 0.123941 0.0176737 0.00707131 0.00555234 5.11675e-05 -0.000141326 1.17941e-10 -1.71037e-11 -4.76966e-12 5e-05 1.46608e-10 
171 1 0.129469 0.016181 0.00814835 0.0063003 0.000507001 -0.00105331 -3.22066e-10 4.61517e-10 -4.20884e-10 5e-05 1.46608e-10 
172 1 0.124057 0.0177989 0.00704425 0.00559126 5.77669e-05 -0.000143466 -1.19439e-10 -9.12975e-12 -1.07654e-11 5e-05 1.46608e-10 
173 1 0.129939 0.0176329 0.00716092 0.00583529 0.00105557 0.000125419 -1.99843e-10 -3.64598e-10 2.8781e-11 5e-05 1.46608e-10 
174 1 0.123866 0.0177391 0.00706039 0.00557718 7.91874e-05 -0.000147048 3.81008e-11 -7.01068e-11 8.46872e-12 5e-05 1.46608e-10 
175 1 0.117588 0.0172629 0.00721823 0.00575611 0.000449245 -0.000560554 -3.05734e-10 -2.91703e-10 -4.09802e-10 5e-05 1.46608e-10 
176 1 0.123672 0.0172402 0.00721352 0.0057071 0.000186055 5.51817e-05 -3.26564e-12 -6.91413e-11 4.89961e-11 5e-05 1.46608e-10 
177 1 0.123696 0.0177728 0.00705785 0.00558065 0.000102961 -0.000150271 1.0071e-12 -4.18717e-11 -5.96264e-12 5e-05 1.46608e-10 
178 1 0.124208 0.0181146 0.00697938 0.00562596 3.40128e-05 -0.000139308 -5.03725e-12 -2.67501e-11 6.73224e-12 5e-05 1.46608e-10 
179 1 0.124116 0.0180753 0.00698918 0.00561596 5.32378e-05 -0.000142427 8.26134e-12 -1.20666e-11 -3.02067e-12 5e-05 1.46608e-10 
181 1 0.12367 0.0176476 0.00717369 0.00573276 3.57455e-05 -0.000258003 1.08635e-10 -9.54346e-11 -2.7707e-11 5e-05 1.46608e-10 
182 1 0.129393 0.016232 0.00810745 0.00613738 0.000450852 -0.0010472 6.90416e-11 1.26567e-11 4.64271e-12 5e-05 1.46608e-10 
183 1 0.123846 0.0176425 0.00707961 0.00554432 8.08283e-05 -0.000146774 1.42543e-10 -1.02159e-10 1.06677e-11 5e-05 1.46608e-10 
184 1 0.129919 0.017537 0.00719031 0.00589683 0.00114882 0.000102028 -5.47452e-11 2.17297e-10 -8.14312e-11 5e-05 1.46608e-10 
185 1 0.123579 0.0172182 0.0072421 0.00563158 0.00017118 -0.000147961 -1.2771e-11 5.36428e-11 -5.54978e-10 5e-05 1.46608e-10 
186 1 0.123679 0.0175459 0.00719089 0.00576342 9.8807e-05 -0.000247764 -2.11078e-10 -1.54493e-10 -7.89143e-11 5e-05 1.46608e-10 
187 1 0.129771 0.0168852 0.00742256 0.00559551 0.000795228 -0.000855482 2.06993e-10 2.55651e-10 -4.21635e-10 5e-05 1.46608e-10 
188 1 0.129775 0.0177514 0.00714331 0.00148093 0.00375701 -0.0102941 -1.75846e-10 7.20319e-11 -1.30229e-09 5e-05 1.46608e-10 
189 1 0.129808 0.0170606 0.00733501 0.00609979 0.00112084 0.000127001 5.19296e-11 9.98704e-11 -1.77798e-10 5e-05 1.46608e-10 
190 1 0.117775 0.017663 0.00711101 0.00569933 0.00072754 3.54717e-05 -1.00909e-11 8.85588e-11 -2.69644e-11 5e-05 1.46608e-10 
191 1 0.129747 0.0180376 0.00716516 0.00558722 0.000743795 -0.00102354 -3.66415e-11 7.77936e-11 2.41589e-10 5e-05 1.46608e-10 
192 1 0.123862 0.017299 0.00718405 0.00571682 0.000152589 7.70848e-05 2.10498e-10 3.06988e-11 -3.44456e-11 5e-05 1.46608e-10 
193 1 0.129554 0.0164547 0.00786844 0.00628094 0.000441842 -0.000989638 -5.77571e-11 2.94916e-10 -2.65227e-10 5e-05 1.46608e-10 
194 1 0.123689 0.0169305 0.00739704 0.00589358 0.000195095 4.90646e-05 -6.18907e-11 -1.33018e-10 6.64223e-11 5e-05 1.46608e-10 
195 1 0.124135 0.0179787 0.0070075 0.0056149 5.38651e-05 -0.00014317 2.29891e-11 -2.6899e-11 4.34667e-12 5e-05 1.46608e-10 
196 1 0.123104 0.0154997 0.00864223 0.00562948 -7.94723e-06 -0.000366281 -1.75345e-10 2.55506e-10 -2.03717e-10 5e-05 1.46608e-10 
197 1 0.117646 0.0175427 0.0071808 0.00575798 0.000629866 5.79288e-05 7.56215e-11 1.48857e-10 -2.24837e-10 5e-05 1.46608e-10 
198 1 0.1235 0.0168729 0.00742577 0.00579107 0.000173111 5.88681e-05 1.09783e-10 1.39552e-10 -7.58307e-11 5e-05 1.46608e-10 
199 1 0.123637 0.017486 0.00712254 0.00571053 6.40447e-05 -0.000201289 -5.89946e-11 -1.12431e-10 -5.40232e-11 5e-05 1.46608e-10 
200 1 0.123614 0.0169861 0.00736205 0.00587938 0.000180829 5.71933e-05 -2.16567e-11 1.48027e-10 -6.19301e-11 5e-05 1.46608e-10 
201 1 0.124064 0.0182507 0.00695636 0.00564658 5.85654e-05 -0.000144686 -1.02695e-10 -1.61829e-11 5.62846e-12 5e-05 1.46608e-10 
202 1 0.123881 0.0173852 0.00713467 0.00568445 1.29069e-05 -0.000245848 3.36316e-11 -1.23305e-10 -5.75256e-12 5e-05 1.46608e-10 
203 1 0.12981 0.0183283 0.00719011 0.00568539 0.000790733 -0.00102604 -3.05541e-13 3.58195e-10 1.87425e-10 5e-05 1.46608e-10 
204 1 0.123594 0.0169015 0.00741152 0.00588287 0.000178363 5.78759e-05 -2.29821e-11 1.69078e-10 -1.10579e-10 5e-05 1.46608e-10 
205 1 0.123889 0.0181963 0.00705432 0.00559378 9.03474e-05 -0.000142307 -2.00307e-11 1.16936e-10 -5.44591e-11 5e-05 1.46608e-10 
206 1 0.123881 0.017847 0.00703909 0.00559383 7.64688e-05 -0.000147717 4.87802e-12 1.84863e-11 -5.50169e-12 5e-05 1.46608e-10 
207 1 0.12343 0.0162265 0.00780984 0.00641502 0.00011563 -5.60515e-05 -6.71744e-11 -2.57788e-10 -8.07957e-11 5e-05 1.46608e-10 
208 1 0.123732 0.017516 0.00711153 0.00571422 3.96154e-05 -0.000245888 -1.67516e-11 -2.26248e-11 1.80315e-12 5e-05 1.46608e-10 
209 1 0.12367 0.0168459 0.00744652 0.00586543 0.000176245 5.95296e-05 -1.3747e-10 2.31786e-10 -1.34342e-10 5e-05 1.46608e-10 
210 1 0.129797 0.0174893 0.00728831 0.0057802 0.00102225 0.000132927 -7.38618e-11 -2.7338e-10 3.94013e-11 5e-05 1.46608e-10 
211 1 0.129881 0.0177938 0.00712766 0.00561942 0.000885783 -0.000704265 -1.41141e-10 -2.11593e-11 -8.33189e-11 5e-05 1.46608e-10 
212 1 0.12396 0.017772 0.00705178 0.00558971 6.54869e-05 -0.000144312 -2.94198e-12 4.43059e-11 -2.41447e-11 5e-05 1.46608e-10 
213 1 0.129752 0.0168157 0.00749184 0.00561032 0.000602999 -0.00108115 1.74438e-10 2.51895e-10 -3.30721e-10 5e-05 1.46608e-10 
214 1 0.12997 0.0178307 0.00709964 0.0050897 0.00245041 -0.000376483 -5.13175e-10 8.29676e-11 -1.48846e-10 5e-05 1.46608e-10 
215 1 0.117723 0.0175795 0.00712924 0.00571979 0.000702886 3.88907e-05 1.91053e-10 1.36731e-10 -8.10157e-11 5e-05 1.46608e-10 
216 1 0.123677 0.0176769 0.00707831 0.00573259 4.70413e-05 -0.000257259 -3.4319e-11 -5.46154e-11 -1.44254e-11 5e-05 1.46608e-10 
217 1 0.129511 0.0163176 0.00800864 0.00627254 0.000519741 -0.00106402 -1.26429e-10 2.50192e-10 -2.30173e-10 5e-05 1.46608e-10 
218 1 0.123797 0.017902 0.00703037 0.00559615 9.00774e-05 -0.000146486 3.62192e-11 2.71517e-11 4.69509e-11 5e-05 1.46608e-10 
219 1 0.129799 0.0178511 0.00713069 0.0055257 0.000783879 -0.000991674 6.67357e-11 -2.68852e-10 -5.56441e-11 5e-05 1.46608e-10 
220 1 0.123826 0.0178681 0.00712005 0.00560253 8.93424e-05 -0.000146567 4.82819e-11 -1.2044e-10 1.53501e-11 5e-05 1.46608e-10 
221 1 0.11765 0.0171246 0.00729137 0.00588472 0.000408797 -0.000894407 2.36131e-10 -1.30577e-10 2.62207e-10 5e-05 1.46608e-10 
222 1 0.129533 0.0163859 0.00793879 0.00629674 0.000529815 -0.00107663 -3.11388e-10 3.85508e-10 -3.10734e-10 5e-05 1.46608e-10 
223 1 0.123807 0.0174515 0.00712376 0.00570235 3.61169e-05 -0.000209278 3.72051e-11 -1.62305e-10 -3.69828e-10 5e-05 1.46608e-10 
224 1 0.123559 0.0171268 0.00727738 0.00590243 0.000182346 6.18367e-05 9.89837e-11 3.15058e-10 -2.28351e-10 5e-05 1.46608e-10 
225 1 0.129823 0.0175051 0.00719285 0.00574191 0.00106371 0.000121281 -2.33997e-10 -1.37826e-10 8.59309e-13 5e-05 1.46608e-10 
226 1 0.124037 0.017703 0.00706337 0.00558504 6.55617e-05 -0.000144524 -6.76458e-12 -1.48898e-11 1.2849e-11 5e-05 1.46608e-10 
227 1 0.117705 0.0173861 0.00717511 0.0058508 0.000655408 6.30034e-05 -3.01134e-10 2.42374e-10 2.17293e-11 5e-05 1.46608e-10 
228 1 0.117608 0.0173593 0.00720124 0.00577979 0.000526936 -0.000134798 -2.53716e-10 -9.98867e-11 5.33691e-11 5e-05 1.46608e-10 
229 1 0.123708 0.0177825 0.00715669 0.00559572 7.48736e-05 -0.000147493 -1.04915e-10 6.82494e-11 2.62011e-12 5e-05 1.46608e-10 
230 1 0.123981 0.0183058 0.00694762 0.00564883 6.85703e-05 -0.000146625 -5.92481e-11 4.07658e-11 -1.59147e-11 5e-05 1.46608e-10 
231 1 0.117569 0.0171728 0.00725709 0.00579296 0.000334427 -0.000765505 6.71298e-11 -3.78077e-10 -3.82336e-10 5e-05 1.46608e-10 
232 1 0.123568 0.0164211 0.00769474 0.00655278 0.000319474 -5.97927e-06 3.23445e-10 -1.30648e-10 7.08396e-11 5e-05 1.46608e-10 
233 1 0.12371 0.017015 0.00734763 0.00584726 0.000189968 5.0743e-05 -4.10838e-11 7.26002e-11 -3.94978e-11 5e-05 1.46608e-10 
234 1 0.129688 0.0177468 0.00719424 0.00571813 0.000806417 -0.000275359 -2.31448e-11 1.36089e-10 1.12805e-10 5e-05 1.46608e-10 
235 1 0.123866 0.0186149 0.00693242 0.00562755 7.40728e-05 -0.000144956 -5.86891e-12 -2.54873e-11 -3.44222e-12 5e-05 1.46608e-10 
236 1 0.124021 0.018505 0.00690799 0.00563284 8.19982e-05 -0.000148954 3.09483e-12 -1.28299e-11 2.47786e-12 5e-05 1.46608e-10 
237 1 0.123884 0.0186945 0.00687442 0.00568402 6.24955e-05 -0.000146179 -6.77148e-12 -2.93649e-11 7.2343e-12 5e-05 1.46608e-10 
239 1 0.117389 0.0165319 0.00786265 0.00613708 0.000206343 -0.000719839 -2.76073e-10 -1.1922e-10 1.31203e-10 5e-05 1.46608e-10 
240 1 0.117454 0.0167441 0.00766062 0.00618623 0.000185333 -0.000704664 -2.32736e-10 4.75085e-11 -1.42437e-11 5e-05 1.46608e-10 
241 1 0.117368 0.0164612 0.00793 0.00611959 0.000209894 -0.00072202 5.54292e-11 -1.34741e-10 1.17584e-10 5e-05 1.46608e-10 
242 1 0.123824 0.0171295 0.00728315 0.0058113 0.000128894 8.53128e-05 3.28049e-11 2.34307e-11 3.17681e-12 5e-05 1.46608e-10 
243 1 0.123575 0.0168169 0.00746101 0.00587447 0.000173751 6.15206e-05 -1.5922e-10 1.71812e-10 -9.88806e-11 5e-05 1.46608e-10 
244 1 0.117411 0.0166027 0.00779531 0.00616683 0.000195177 -0.000711904 -3.35411e-11 -4.92085e-11 5.03653e-11 5e-05 1.46608e-10 
246 1 0.117534 0.0170282 0.00739062 0.00600987 0.000251429 -0.00074924 -5.50555e-10 2.80143e-10 -1.64394e-10 5e-05 1.46608e-10 
247 1 0.123833 0.0179883 0.00706638 0.00560422 8.40106e-05 -0.000150316 2.921e-11 2.95265e-11 1.08002e-10 5e-05 1.46608e-10 
248 1 0.12403 0.0183966 0.00692884 0.00565612 0.000113007 -0.000154391 2.14972e-11 4.78852e-11 -1.81246e-12 5e-05 1.46608e-10 