ITEM: TIMESTEP
6400000
ITEM: NUMBER OF ATOMS
287
ITEM: BOX BOUNDS ff ff ff
-0.02 0.43
-0.02 0.06
-0.02 0.07
ITEM: ATOMS id type x y z vx vy vz fx fy fz radius mass 
1 1 0.0501986 0.0165941 0.00771545 0.00555219 -0.000351343 -0.000522782 7.97606e-10 4.86157e-10 -6.489e-10 5e-05 1.46608e-10 
2 1 0.0505908 0.0174794 0.00721452 0.00621931 -7.95032e-05 0.000539716 1.48965e-11 -1.54044e-10 6.12296e-11 5e-05 1.46608e-10 
3 1 0.0439299 0.0158843 0.00826182 0.00542536 -0.000498772 0.000366077 1.23216e-10 1.2954e-10 -1.26569e-10 5e-05 1.46608e-10 
4 1 0.050529 0.0179688 0.00702539 0.00613615 -0.000256355 0.000252143 -1.0864e-10 -4.81725e-11 2.22648e-09 5e-05 1.46608e-10 
5 1 0.0500855 0.016513 0.00781964 0.00544475 -0.000415269 -0.000437325 1.37524e-09 -8.63628e-10 6.53366e-10 5e-05 1.46608e-10 
6 1 0.056125 0.0167029 0.00783656 0.00548261 -5.04711e-05 0.00123862 4.08216e-11 -2.14881e-10 4.94909e-10 5e-05 1.46608e-10 
7 1 0.0502604 0.0172034 0.00729708 0.0060841 -3.05035e-05 0.000507331 1.50089e-10 1.31307e-10 -3.94238e-12 5e-05 1.46608e-10 
8 1 0.0499917 0.0161836 0.00818386 0.00621492 -0.000418235 -0.000560021 -1.01904e-09 -2.30818e-09 2.59508e-09 5e-05 1.46608e-10 
9 1 0.0563685 0.0176862 0.00721613 0.00587647 -0.000749722 0.000528195 1.96812e-10 -1.3802e-11 1.66746e-10 5e-05 1.46608e-10 
10 1 0.0501996 0.0169274 0.00740167 0.00558719 -1.1845e-05 0.000461076 -6.80469e-12 -2.93079e-11 1.10222e-11 5e-05 1.46608e-10 
11 1 0.0506344 0.0176624 0.00714543 0.00618325 -7.08816e-05 0.00053353 3.59628e-10 -4.30496e-10 1.98115e-10 5e-05 1.46608e-10 
12 1 0.0441179 0.0166192 0.00767285 0.00541493 -0.000512579 0.000399249 -1.25956e-11 -1.57778e-12 1.47597e-11 5e-05 1.46608e-10 
13 1 0.0500666 0.0164472 0.00789247 0.00529271 -0.00043755 -0.000386671 -1.36029e-10 -3.47595e-11 1.0292e-10 5e-05 1.46608e-10 
14 1 0.0438507 0.0156501 0.00857747 0.00559175 -0.000504826 0.000363806 2.74903e-10 -1.02116e-10 1.24754e-10 5e-05 1.46608e-10 
15 1 0.0503999 0.0174178 0.00722339 0.00614947 -1.62539e-05 0.000511495 1.56988e-10 4.65107e-10 -2.04548e-10 5e-05 1.46608e-10 
16 1 0.0438297 0.0155918 0.00865599 0.00587285 -0.000549076 0.000407681 1.93802e-11 -9.29353e-11 1.2158e-10 5e-05 1.46608e-10 
17 1 0.0501799 0.0168441 0.00745353 0.00563795 -0.000331024 -0.000555401 -2.40526e-10 4.28944e-10 -3.65091e-10 5e-05 1.46608e-10 
18 1 0.0562456 0.0171302 0.00729913 0.00543674 -0.000201466 0.000920381 -1.17001e-09 4.02373e-10 1.78812e-10 5e-05 1.46608e-10 
19 1 0.050048 0.0163813 0.00796533 0.00543158 -0.000488905 -0.00034763 -2.97986e-10 5.36706e-11 -1.06985e-10 5e-05 1.46608e-10 
21 1 0.0501797 0.0165283 0.00778829 0.00548945 -0.000364006 -0.000498807 1.02403e-09 2.13031e-10 -4.46518e-10 5e-05 1.46608e-10 
22 1 0.0503037 0.0173868 0.00722783 0.00615861 4.50809e-05 0.000486935 2.99702e-10 1.18156e-09 -4.57601e-10 5e-05 1.46608e-10 
23 1 0.0442992 0.0170234 0.00754416 0.00574293 -0.000538406 0.000550319 -2.79875e-10 -1.2196e-10 -1.24567e-10 5e-05 1.46608e-10 
24 1 0.0563055 0.0173933 0.00720188 0.00598842 -0.000765063 0.00052513 1.45096e-11 4.41044e-10 -1.51902e-10 5e-05 1.46608e-10 
25 1 0.0502388 0.0171118 0.00733167 0.00609747 5.57185e-05 0.000476706 -4.49054e-11 -5.69615e-10 2.05847e-10 5e-05 1.46608e-10 
26 1 0.056192 0.0169368 0.00751904 0.0057379 7.28772e-06 0.00123741 -7.9036e-10 -1.09697e-10 5.38659e-11 5e-05 1.46608e-10 
27 1 0.0442015 0.0169905 0.00754891 0.00572669 -0.000599334 0.000435669 9.37233e-11 -1.83146e-11 1.36654e-10 5e-05 1.46608e-10 
28 1 0.0505071 0.0178743 0.00705094 0.00615018 -0.000145028 0.000563782 3.61989e-10 -7.60929e-11 2.82863e-10 5e-05 1.46608e-10 
29 1 0.05003 0.0163152 0.00803823 0.00537261 -0.000332296 -0.000514604 -3.3759e-10 -6.53469e-10 7.1791e-10 5e-05 1.46608e-10 
30 1 0.0505391 0.0176318 0.0071498 0.00619257 -7.83148e-05 0.000537231 2.58233e-10 -2.66926e-10 1.43016e-10 5e-05 1.46608e-10 
31 1 0.050282 0.0172948 0.00726258 0.00613511 5.52051e-05 0.000478663 -2.64659e-10 -5.01058e-10 1.65133e-10 5e-05 1.46608e-10 
32 1 0.0503777 0.0173265 0.00725778 0.00614312 9.32099e-06 0.000496753 -4.11327e-11 5.02079e-10 -2.20495e-10 5e-05 1.46608e-10 
33 1 0.0561416 0.0167614 0.00775713 0.00555281 -5.8708e-05 0.00125946 7.32062e-11 -6.09391e-11 4.42932e-10 5e-05 1.46608e-10 
34 1 0.0501606 0.0167766 0.00752826 0.00559195 -0.000369556 -0.000514868 -1.91188e-10 -1.19939e-10 2.22149e-10 5e-05 1.46608e-10 
35 1 0.0503565 0.0172351 0.00729234 0.00609933 2.55577e-05 0.000486276 -1.6052e-10 1.56216e-10 -1.03355e-10 5e-05 1.46608e-10 
36 1 0.0564109 0.0178816 0.00721822 0.00588732 -0.000712106 -0.000140054 -1.76944e-11 3.44611e-10 -9.58667e-11 5e-05 1.46608e-10 
37 1 0.0503136 0.0170524 0.00736136 0.00604107 1.55466e-05 0.000489343 4.72878e-10 -2.25313e-10 -3.76738e-11 5e-05 1.46608e-10 
38 1 0.0504741 0.0173585 0.00725508 0.00616086 -4.45147e-05 0.000527727 6.08818e-11 -2.12657e-10 -2.9974e-11 5e-05 1.46608e-10 
39 1 0.0563265 0.0174909 0.00720663 0.00596529 -0.000756598 0.000527388 3.2522e-10 1.06493e-10 1.76008e-11 5e-05 1.46608e-10 
41 1 0.0501231 0.0166448 0.00767395 0.00551764 -0.000344633 -0.000524537 4.03855e-10 1.1102e-10 -1.17724e-10 5e-05 1.46608e-10 
42 1 0.0503255 0.0174827 0.00720739 0.00613041 -5.73255e-05 0.000515786 -1.25125e-10 1.34737e-10 -1.27729e-10 5e-05 1.46608e-10 
44 1 0.0504955 0.0174492 0.00721872 0.00620058 -6.4913e-05 0.000532074 -1.39064e-10 -1.17041e-10 -1.92582e-11 5e-05 1.46608e-10 
45 1 0.0561581 0.0168198 0.0076777 0.00568522 -4.04977e-05 0.00127766 -4.7524e-10 -3.38388e-10 -6.74265e-11 5e-05 1.46608e-10 
46 1 0.0562262 0.0170537 0.00736042 0.00547989 -7.0027e-06 0.00114492 -6.83257e-10 -2.46265e-10 3.89887e-10 5e-05 1.46608e-10 
47 1 0.0501421 0.0167106 0.00760112 0.00559504 -0.000365389 -0.000519603 6.23583e-10 8.18298e-12 -2.63409e-10 5e-05 1.46608e-10 
48 1 0.050368 0.0176592 0.00712494 0.00618425 -7.8876e-05 0.000538284 8.68067e-11 1.46583e-10 -2.21354e-11 5e-05 1.46608e-10 
49 1 0.0562096 0.0169952 0.00743985 0.00565919 3.30143e-05 0.00121129 -7.59988e-10 -2.15678e-10 2.58435e-10 5e-05 1.46608e-10 
50 1 0.0504333 0.0179413 0.00704302 0.00613903 -0.000199553 0.000513298 -6.87773e-11 6.38707e-11 6.81857e-10 5e-05 1.46608e-10 
51 1 0.0504111 0.017842 0.00705594 0.00621888 -3.289e-05 0.00052064 -4.24685e-11 -9.20525e-11 2.46038e-11 5e-05 1.46608e-10 
52 1 0.0440988 0.0165261 0.007704 0.0054474 -0.000500087 0.000396843 2.73803e-11 1.24009e-10 -3.43464e-11 5e-05 1.46608e-10 
53 1 0.056265 0.0172058 0.0072366 0.00554024 -0.000503289 0.000636749 -2.08706e-10 1.05601e-09 8.53198e-10 5e-05 1.46608e-10 
54 1 0.0501616 0.0164622 0.00786118 0.00544841 -0.000375644 -0.000480571 1.21714e-09 3.38496e-11 -2.24707e-10 5e-05 1.46608e-10 
55 1 0.0438905 0.0157669 0.00842007 0.00559197 -0.000500883 0.000358863 1.44871e-11 -3.55143e-11 1.97429e-11 5e-05 1.46608e-10 
56 1 0.050335 0.0171438 0.00732684 0.00609948 1.82723e-05 0.0004899 7.17456e-11 1.9881e-11 -6.06758e-11 5e-05 1.46608e-10 
57 1 0.0561746 0.0168783 0.00759827 0.00577531 -8.86823e-06 0.00127017 -2.4138e-10 -7.78282e-11 1.42421e-10 5e-05 1.46608e-10 
59 1 0.0503916 0.0169952 0.00739042 0.00573579 1.78943e-05 0.000458515 -2.86412e-10 -3.45932e-10 1.43813e-10 5e-05 1.46608e-10 
60 1 0.050412 0.0170902 0.0073667 0.00590665 -6.35369e-06 0.000485918 -7.53731e-11 -1.64422e-10 1.71912e-10 5e-05 1.46608e-10 
61 1 0.0501042 0.0165789 0.00774678 0.00549302 -0.000371771 -0.000494887 7.85909e-10 -3.08962e-10 2.13424e-10 5e-05 1.46608e-10 
62 1 0.0505176 0.0175405 0.0071843 0.00621081 -7.25607e-05 0.000536612 1.07022e-11 -1.36082e-10 4.84849e-11 5e-05 1.46608e-10 
63 1 0.0504646 0.0176915 0.00712002 0.00618755 -9.79663e-05 0.000544697 1.46979e-10 -1.22659e-10 1.58105e-11 5e-05 1.46608e-10 
64 1 0.0562852 0.0172955 0.00719719 0.00560881 -0.00066117 0.000476283 6.22328e-10 6.61204e-10 2.34709e-10 5e-05 1.46608e-10 
65 1 0.0442132 0.0166521 0.00766551 0.00548141 -0.00055905 0.000416885 2.2639e-10 3.86991e-10 -1.85062e-10 5e-05 1.46608e-10 
66 1 0.0441558 0.0163728 0.00775895 0.00548065 -0.000533295 0.000408794 8.53564e-11 1.25584e-10 -3.82213e-11 5e-05 1.46608e-10 
67 1 0.0506127 0.0175711 0.00717991 0.00621969 -1.82622e-05 0.000514658 2.71317e-10 -3.76947e-10 1.6932e-10 5e-05 1.46608e-10 
68 1 0.0505816 0.0178146 0.00708072 0.00617205 -9.10675e-05 0.00054068 -7.62245e-11 -5.00537e-10 2.89125e-10 5e-05 1.46608e-10 
69 1 0.0502546 0.0167951 0.00749945 0.0056053 -0.00031766 -0.00039497 -1.07211e-09 4.92509e-10 1.70967e-10 5e-05 1.46608e-10 
70 1 0.0563475 0.0175886 0.00721138 0.00591878 -0.000748553 0.00052493 -5.57063e-11 2.07921e-11 1.40981e-10 5e-05 1.46608e-10 
71 1 0.0438713 0.0157084 0.00849887 0.00558823 -0.000502377 0.00036136 -3.28044e-11 -1.93228e-11 3.17129e-11 5e-05 1.46608e-10 
72 1 0.0505608 0.0177231 0.00711533 0.0061989 -8.6627e-05 0.00053857 1.93899e-10 -3.78943e-10 1.51066e-10 5e-05 1.46608e-10 
73 1 0.0502189 0.0170191 0.00736685 0.00556815 -4.27315e-06 0.000456517 -7.88119e-12 -3.58984e-11 1.36105e-11 5e-05 1.46608e-10 
74 1 0.0504209 0.0175115 0.00719509 0.0062005 -6.70743e-05 0.000526943 2.14496e-11 2.65697e-10 -2.02724e-10 5e-05 1.46608e-10 
76 1 0.0444512 0.0176789 0.00734908 0.00577942 -0.000688264 0.000606661 9.67841e-11 -9.71436e-11 4.232e-11 5e-05 1.46608e-10 
77 1 0.0506682 0.0185705 0.00691163 0.00573709 -0.00015973 -0.000235006 9.97686e-11 -4.86033e-10 8.11391e-11 5e-05 1.46608e-10 
78 1 0.0439487 0.0159429 0.00818297 0.00546137 -0.000506066 0.000371505 1.46017e-10 1.13996e-10 -1.18937e-10 5e-05 1.46608e-10 
79 1 0.0441371 0.0167124 0.00764168 0.0054154 -0.000522518 0.000388319 -2.98029e-10 -2.95717e-10 9.49607e-11 5e-05 1.46608e-10 
80 1 0.0504985 0.0182272 0.00698028 0.00622654 -0.000301621 -0.000222986 3.20974e-10 9.21153e-10 -7.36289e-11 5e-05 1.46608e-10 
81 1 0.0440796 0.0164331 0.00773514 0.00546673 -0.000535457 0.000408228 -4.58599e-12 -1.1068e-10 5.2716e-11 5e-05 1.46608e-10 
82 1 0.0442232 0.0170838 0.0075201 0.00574438 -0.000557299 0.000565077 5.23995e-11 2.23053e-10 -3.9054e-11 5e-05 1.46608e-10 
83 1 0.0442114 0.0162178 0.00781443 0.00542945 -0.000529564 0.000404411 3.51037e-12 1.68232e-11 -2.4568e-12 5e-05 1.46608e-10 
84 1 0.0563896 0.0177839 0.00721967 0.00589398 -0.000723456 -0.000121219 1.46624e-10 1.24885e-10 -5.53727e-11 5e-05 1.46608e-10 
85 1 0.044045 0.0159575 0.00815829 0.00538436 -0.000515556 0.000384342 -6.55383e-11 8.65505e-11 -1.42669e-10 5e-05 1.46608e-10 
86 1 0.0504863 0.0177828 0.00708555 0.00618084 -0.000123681 0.000553555 9.9739e-11 -2.52787e-10 2.19667e-10 5e-05 1.46608e-10 
87 1 0.0503652 0.0169049 0.00742413 0.00552 5.04389e-05 0.000428564 -2.3411e-10 -1.64911e-10 2.71704e-11 5e-05 1.46608e-10 
88 1 0.050559 0.018516 0.0069263 0.00568424 -0.00021706 -0.000222274 -1.88875e-10 -2.72012e-10 4.93421e-11 5e-05 1.46608e-10 
89 1 0.0505187 0.0183235 0.00696229 0.00563784 -0.000216244 -0.000219471 4.50634e-10 6.37088e-10 -1.26189e-10 5e-05 1.46608e-10 
90 1 0.0505517 0.0173014 0.00728197 0.00612577 -4.61251e-05 0.000518262 1.47144e-10 -1.00227e-10 1.42927e-11 5e-05 1.46608e-10 
91 1 0.0441581 0.0168051 0.00761073 0.00573929 -0.000510922 0.000411957 -2.54293e-11 -2.93563e-11 1.41798e-11 5e-05 1.46608e-10 
92 1 0.0506265 0.0180014 0.00702368 0.006309 -0.000219977 0.000330857 1.08932e-10 2.8911e-10 2.10882e-10 5e-05 1.46608e-10 
93 1 0.0506133 0.0183542 0.00695249 0.00559636 -0.000150843 -0.000230227 4.58476e-11 3.25422e-10 -4.73967e-11 5e-05 1.46608e-10 
94 1 0.0506883 0.0182885 0.0069607 0.00570752 -0.00021775 -0.000223058 7.99679e-11 5.21723e-11 -1.12652e-11 5e-05 1.46608e-10 
95 1 0.0504768 0.0181313 0.00699828 0.00619836 -0.000322854 -0.000162594 1.39127e-10 3.63623e-10 3.81555e-11 5e-05 1.46608e-10 
96 1 0.050648 0.0180954 0.00699683 0.00632727 -0.000265566 -0.000247514 3.23034e-10 1.77455e-10 1.15889e-09 5e-05 1.46608e-10 
97 1 0.0440416 0.0162468 0.00779748 0.0054961 -0.000445589 0.000373204 6.3127e-12 -1.36012e-10 -3.5729e-11 5e-05 1.46608e-10 
98 1 0.0505776 0.0186126 0.00690833 0.0057205 -0.000197676 -0.000227992 -1.56042e-11 -4.45798e-10 8.26226e-11 5e-05 1.46608e-10 
99 1 0.0441941 0.016559 0.00769666 0.00541046 -0.000516636 0.000400529 -2.47714e-11 7.27132e-11 -3.64779e-11 5e-05 1.46608e-10 
100 1 0.0505082 0.0171187 0.00735095 0.00600533 -1.72772e-05 0.000496464 -2.54203e-10 -9.45877e-11 5.97014e-11 5e-05 1.46608e-10 
101 1 0.0441368 0.0162797 0.00779012 0.00546892 -0.000482403 0.000391744 3.2196e-12 9.44e-11 -9.51637e-11 5e-05 1.46608e-10 
102 1 0.0643568 0.0187248 0.00531097 4.19589e-15 1.05479e-14 8.29574e-14 1.77208e-21 -2.63922e-22 -5.27328e-23 5e-05 1.46608e-10 
103 1 0.24257 0.0191927 0.00520306 1.6328e-22 9.3025e-22 8.29106e-22 0 0 0 5e-05 1.46608e-10 
104 1 0.0444604 0.0173358 0.00745721 0.00581185 -0.000550409 0.000566676 1.08662e-11 6.526e-11 -2.22359e-11 5e-05 1.46608e-10 
105 1 0.0440042 0.0161187 0.00794628 0.00541793 -0.00053154 0.000412909 -2.07137e-11 -1.2817e-12 -8.51652e-12 5e-05 1.46608e-10 
106 1 0.0445341 0.0172729 0.00748191 0.00583025 -0.000538491 0.000563437 -2.12652e-10 -1.05196e-10 3.15103e-11 5e-05 1.46608e-10 
107 1 0.0439678 0.0160014 0.00810417 0.00540763 -0.00049472 0.000359584 1.46902e-11 3.43819e-11 -3.56733e-11 5e-05 1.46608e-10 
108 1 0.0502919 0.0169743 0.00741988 0.00551971 7.33972e-05 0.000390109 2.18178e-10 -2.69813e-10 -2.42106e-10 5e-05 1.46608e-10 
109 1 0.0503896 0.0177506 0.00709044 0.00619324 -8.61848e-05 0.000539801 1.74766e-10 1.84143e-10 -4.51567e-11 5e-05 1.46608e-10 
110 1 0.0507214 0.0180284 0.0070073 0.00628922 -8.36336e-05 0.000499795 2.89188e-10 -7.38573e-10 5.79724e-10 5e-05 1.46608e-10 
111 1 0.0506173 0.0188053 0.00687235 0.00575629 -0.000153951 -0.000239517 -1.76774e-10 -3.21736e-10 7.41804e-11 5e-05 1.46608e-10 
112 1 0.0440606 0.0163399 0.00776638 0.00548493 -0.000449753 0.000370448 3.50098e-11 1.12474e-10 -1.12633e-10 5e-05 1.46608e-10 
113 1 0.0447461 0.0174274 0.00744784 0.00590695 -0.000555793 0.000573958 -1.4487e-10 -2.76608e-10 7.36435e-11 5e-05 1.46608e-10 
114 1 0.0443953 0.0170551 0.00754075 0.00573925 -0.000528976 0.000557883 -2.85581e-10 2.32214e-11 1.94329e-11 5e-05 1.46608e-10 
115 1 0.0504431 0.0176002 0.00715452 0.00619164 -8.42182e-05 0.000540536 2.66519e-10 6.85074e-11 -1.03433e-12 5e-05 1.46608e-10 
116 1 0.0502724 0.0168822 0.00745364 0.00541908 -1.23527e-05 0.000103847 2.21875e-10 -3.09236e-10 -5.46354e-10 5e-05 1.46608e-10 
117 1 0.0501425 0.0163964 0.007934 0.00542449 -0.000385219 -0.00046746 1.13953e-09 -3.05796e-10 1.49216e-10 5e-05 1.46608e-10 
118 1 0.0439106 0.0158258 0.00834066 0.00559965 -0.00057519 0.000457178 2.23084e-11 4.47061e-11 -4.95992e-11 5e-05 1.46608e-10 
119 1 0.0504325 0.0171771 0.00732159 0.00602678 -2.6095e-05 0.000505459 -7.42454e-11 -2.69074e-11 3.61032e-11 5e-05 1.46608e-10 
120 1 0.050012 0.0162492 0.00811112 0.00535042 -0.000283348 -0.000563022 1.76082e-09 -1.52652e-09 1.34594e-09 5e-05 1.46608e-10 
121 1 0.0499688 0.0161187 0.00825638 0.00650274 -0.000393067 -0.000633554 5.00486e-11 4.55605e-10 -4.9555e-10 5e-05 1.46608e-10 
122 1 0.0507428 0.0181256 0.00698706 0.0064892 -3.93049e-05 -0.000288831 4.48772e-10 -2.35305e-10 1.05024e-10 5e-05 1.46608e-10 
123 1 0.0440817 0.0160748 0.00800047 0.00539818 -0.000503148 0.000383043 5.28541e-11 1.26595e-10 -3.62771e-11 5e-05 1.46608e-10 
124 1 0.0505734 0.0181614 0.00698849 0.00635622 -0.000276098 -0.000269689 3.52527e-10 5.26346e-10 -4.93544e-11 5e-05 1.46608e-10 
125 1 0.0501237 0.0163306 0.00800684 0.00538616 -0.000378847 -0.000467382 2.14523e-10 -3.52185e-10 3.45555e-10 5e-05 1.46608e-10 
126 1 0.0503465 0.0175679 0.00715943 0.00615431 -7.59478e-05 0.000536438 -1.61308e-10 3.06915e-11 2.29386e-12 5e-05 1.46608e-10 
127 1 0.0440226 0.0161776 0.00786707 0.00548941 -0.000467259 0.000325451 -5.424e-12 -5.0852e-11 1.15431e-10 5e-05 1.46608e-10 
128 1 0.0504551 0.0180357 0.00701825 0.00617137 -0.000301871 6.05787e-05 1.90299e-10 1.30765e-11 -3.88717e-10 5e-05 1.46608e-10 
129 1 0.0505383 0.0184199 0.0069443 0.00563105 -0.000230902 -0.000218409 -1.12625e-10 -6.79411e-11 3.07469e-12 5e-05 1.46608e-10 
130 1 0.0443211 0.0171174 0.0075162 0.00575802 -0.000488319 0.000541987 -1.14576e-10 1.2726e-10 -4.59593e-11 5e-05 1.46608e-10 
131 1 0.044175 0.0164659 0.0077278 0.00544498 -0.00050118 0.000396426 -1.78095e-10 2.53832e-11 -8.41456e-12 5e-05 1.46608e-10 
132 1 0.0505517 0.0180656 0.00700704 0.0062422 -0.000326518 -4.17874e-05 -6.50614e-11 -5.23937e-11 9.39158e-11 5e-05 1.46608e-10 
133 1 0.0502943 0.0166101 0.00768312 0.00556262 -0.000505289 -0.000365559 -6.64668e-10 7.79696e-11 5.04029e-11 5e-05 1.46608e-10 
134 1 0.0504514 0.0172733 0.00730223 0.0061083 -3.85727e-05 0.000522779 1.63472e-11 -1.35711e-10 1.79288e-11 5e-05 1.46608e-10 
135 1 0.0501057 0.0162645 0.00807973 0.00531981 -0.000366278 -0.000470133 2.12536e-10 1.07295e-10 -1.35152e-10 5e-05 1.46608e-10 
136 1 0.0440259 0.015899 0.00823707 0.00550163 -0.00053223 0.000405931 1.46499e-10 5.43723e-11 -1.25577e-10 5e-05 1.46608e-10 
137 1 0.0506367 0.0189025 0.00685948 0.00566656 -9.77885e-05 -6.66783e-05 -1.37212e-10 -2.88476e-10 -1.48142e-10 5e-05 1.46608e-10 
138 1 0.0502362 0.0167259 0.00756976 0.00566239 -0.000333339 -0.000559192 3.58348e-11 2.65964e-10 -4.33051e-10 5e-05 1.46608e-10 
140 1 0.0507628 0.0182224 0.00696899 0.00629598 0.000395267 -0.000355088 4.03854e-10 3.18519e-10 5.21182e-11 5e-05 1.46608e-10 
141 1 0.0440637 0.0160161 0.00807942 0.00534377 -0.000504204 0.000376848 -1.20559e-10 1.37408e-10 -9.55976e-11 5e-05 1.46608e-10 
142 1 0.044417 0.0171487 0.00751292 0.0057654 -0.000528248 0.000553396 -2.61042e-10 6.49621e-11 -3.43168e-11 5e-05 1.46608e-10 
143 1 0.0439859 0.0160601 0.00802523 0.00539018 -0.000489663 0.000357558 1.83051e-11 2.31347e-11 -3.04237e-13 5e-05 1.46608e-10 
144 1 0.0443738 0.0169618 0.00756955 0.00571107 -0.000539861 0.000534311 -1.9867e-10 3.04724e-11 2.11708e-10 5e-05 1.46608e-10 
146 1 0.0442316 0.0163107 0.00778339 0.00549281 -0.000545174 0.000413009 3.49681e-12 6.73618e-12 -1.66834e-11 5e-05 1.46608e-10 
147 1 0.0440063 0.0158405 0.00831582 0.00558609 -0.000547781 0.000421355 -3.03851e-11 1.10104e-10 -1.2312e-10 5e-05 1.46608e-10 
148 1 0.0442885 0.0173649 0.00743646 0.00578001 -0.000519218 0.000554 -7.63861e-13 2.16546e-10 -6.364e-11 5e-05 1.46608e-10 
149 1 0.0507825 0.0183204 0.00695071 0.00568278 -0.000111995 -0.000240934 -1.59229e-10 5.79703e-11 2.05204e-12 5e-05 1.46608e-10 
150 1 0.0442706 0.0164967 0.00772118 0.00560685 -0.000570427 0.000428307 -2.5472e-10 5.25153e-11 -2.76458e-11 5e-05 1.46608e-10 
151 1 0.0446076 0.0172098 0.00750665 0.00583802 -0.000528911 0.000560796 -1.19129e-10 1.04085e-10 -4.21343e-11 5e-05 1.46608e-10 
153 1 0.0441199 0.0162028 0.00785177 0.00541182 -0.000483458 0.000389873 -9.50185e-11 1.08368e-10 -9.44701e-11 5e-05 1.46608e-10 
154 1 0.0443862 0.0173982 0.00743263 0.00580332 -0.000529406 0.000559063 9.2795e-11 2.25233e-10 -7.1477e-11 5e-05 1.46608e-10 
155 1 0.0444729 0.0177725 0.00732123 0.00579512 -0.000663166 0.000599193 4.16065e-10 -3.19655e-10 1.42039e-10 5e-05 1.46608e-10 
156 1 0.0443646 0.0173046 0.00746048 0.00579536 -0.000524501 0.000556494 -7.86203e-11 2.37827e-10 -9.92915e-11 5e-05 1.46608e-10 
157 1 0.0219312 0.0187687 0.00551176 -3.83937e-14 8.16356e-14 2.95889e-13 3.03007e-22 9.32129e-23 8.89219e-24 5e-05 1.46608e-10 
158 1 0.044482 0.0174293 0.00742936 0.00582763 -0.000574559 0.000574419 1.40595e-10 1.10567e-11 1.47607e-11 5e-05 1.46608e-10 
159 1 0.0506039 0.0179059 0.00704632 0.00614304 -9.77658e-05 0.000529457 -5.68271e-12 -8.38403e-10 4.75853e-10 5e-05 1.46608e-10 
160 1 0.0443754 0.0177395 0.00732496 0.00573905 -0.0007434 0.000621326 -1.39577e-10 -3.36495e-10 9.59669e-11 5e-05 1.46608e-10 
162 1 0.0444079 0.0174918 0.00740478 0.00579696 -0.000600892 0.000580688 2.0135e-10 1.35327e-10 -2.62937e-11 5e-05 1.46608e-10 
164 1 0.0446334 0.0180844 0.00723438 0.00577097 -0.000552691 0.000563446 1.98883e-10 -1.51096e-10 1.18286e-10 5e-05 1.46608e-10 
165 1 0.0446726 0.0174905 0.00742309 0.00587057 -0.000569309 0.000575391 -7.10407e-10 -5.10095e-10 1.17847e-10 5e-05 1.46608e-10 
166 1 0.0502564 0.0164784 0.00782879 0.00541745 -0.000447345 -0.000399745 4.6481e-10 1.39923e-10 -2.06752e-10 5e-05 1.46608e-10 
167 1 0.0442514 0.0164037 0.00775231 0.00556053 -0.000560017 0.000421796 -1.87969e-10 4.97285e-11 -1.62214e-11 5e-05 1.46608e-10 
168 1 0.0445557 0.0173665 0.00745405 0.00583857 -0.000550769 0.000567756 1.25261e-10 -2.31908e-10 8.24935e-11 5e-05 1.46608e-10 
169 1 0.0447678 0.017521 0.00741999 0.00582464 -0.000636743 0.000593856 1.53686e-09 -4.71325e-11 1.16666e-10 5e-05 1.46608e-10 
170 1 0.0445991 0.0175536 0.00739835 0.00585143 -0.000596422 0.000583207 1.4896e-10 -2.29348e-10 7.94494e-11 5e-05 1.46608e-10 
171 1 0.0502753 0.0165442 0.00775595 0.00548345 -0.000472205 -0.000384973 3.21523e-10 -4.5021e-12 -1.71449e-11 5e-05 1.46608e-10 
172 1 0.0446509 0.0173969 0.00745094 0.00587665 -0.000552481 0.000570718 3.5233e-10 -2.01359e-10 8.79186e-11 5e-05 1.46608e-10 
173 1 0.0506236 0.0172391 0.00731257 0.00609764 -4.67289e-05 0.000516458 4.02313e-11 -2.2406e-11 -2.90532e-11 5e-05 1.46608e-10 
174 1 0.0445253 0.0176165 0.00737366 0.00583392 -0.000619634 0.000589064 3.75306e-10 -5.49194e-11 4.70576e-11 5e-05 1.46608e-10 
175 1 0.0383322 0.0174854 0.00714539 0.00626643 -6.37333e-06 5.24849e-05 2.63893e-11 7.35059e-12 6.79599e-12 5e-05 1.46608e-10 
176 1 0.0443429 0.0172111 0.00748833 0.00578246 -0.000491413 0.000544357 -9.86977e-11 2.19901e-10 -5.56267e-11 5e-05 1.46608e-10 
177 1 0.0444189 0.0179269 0.00726919 0.00575504 -0.000724982 0.000616275 1.13239e-10 -6.93418e-11 3.30655e-11 5e-05 1.46608e-10 
178 1 0.0447245 0.0173339 0.00747569 0.00586462 -0.000558237 0.000571876 2.30263e-11 -2.6847e-10 8.48815e-11 5e-05 1.46608e-10 
179 1 0.0447159 0.0176777 0.00736738 0.00582618 -0.000567329 0.000571872 6.14883e-10 -4.22929e-10 1.74964e-10 5e-05 1.46608e-10 
181 1 0.044332 0.0175522 0.0073807 0.00575672 -0.000641279 0.00059029 1.27807e-10 2.06809e-10 -5.24206e-11 5e-05 1.46608e-10 
182 1 0.0502177 0.01666 0.00764263 0.00563633 -0.000341131 -0.000545544 6.47392e-10 4.17694e-10 -5.64132e-10 5e-05 1.46608e-10 
183 1 0.0445774 0.01746 0.0074262 0.00586396 -0.00057863 0.000578396 7.87185e-11 -1.07977e-10 4.38606e-11 5e-05 1.46608e-10 
184 1 0.0505434 0.0179376 0.00711933 0.00600602 0.000263477 0.000266943 -4.85909e-10 -2.11511e-10 -1.64864e-10 5e-05 1.46608e-10 
185 1 0.0442667 0.0172713 0.00746431 0.00577758 -0.000486223 0.000543769 1.06361e-10 4.25994e-10 -1.41645e-10 5e-05 1.46608e-10 
186 1 0.0443102 0.0174586 0.00740858 0.00577925 -0.000536906 0.000559578 6.94183e-11 2.43662e-10 -7.10539e-11 5e-05 1.46608e-10 
187 1 0.050487 0.0170268 0.00738567 0.00582488 -0.000100739 0.000516621 8.90566e-11 -8.7386e-11 4.31701e-11 5e-05 1.46608e-10 
188 1 0.0507075 0.0183861 0.00694251 0.00560294 -0.000180121 -0.000225331 -2.10631e-10 -1.52576e-10 2.35917e-11 5e-05 1.46608e-10 
189 1 0.0505279 0.0172104 0.00731613 0.00609336 -5.50973e-05 0.000516404 1.53886e-11 -3.88474e-11 2.71832e-11 5e-05 1.46608e-10 
190 1 0.0384346 0.0175215 0.00712867 0.00628107 6.052e-05 0.000238856 2.19316e-11 2.76514e-11 1.72109e-12 5e-05 1.46608e-10 
191 1 0.0506556 0.0190006 0.00685396 0.0056409 -5.8862e-05 0.000353053 -3.51074e-11 -2.52965e-10 -6.56378e-11 5e-05 1.46608e-10 
192 1 0.0444907 0.0170857 0.00753761 0.00577602 -0.000504398 0.000548748 -3.37317e-10 7.48494e-11 -4.3143e-11 5e-05 1.46608e-10 
193 1 0.0503502 0.0168274 0.00748559 0.00543621 -0.000117313 0.000210373 2.4728e-10 -2.1e-10 3.02982e-10 5e-05 1.46608e-10 
194 1 0.0443096 0.0166828 0.00765898 0.0056436 -0.000583471 0.00042001 -1.90981e-10 -8.40835e-12 -5.85341e-11 5e-05 1.46608e-10 
195 1 0.0446943 0.0175841 0.00739524 0.00584958 -0.000599075 0.000583498 1.00693e-09 8.80851e-12 6.74887e-11 5e-05 1.46608e-10 
196 1 0.043808 0.0155337 0.00873443 0.00588732 -0.000550338 0.000408318 -1.89223e-11 -1.01073e-10 1.31202e-10 5e-05 1.46608e-10 
197 1 0.0383966 0.0177605 0.00704509 0.00630108 7.22605e-05 0.000235459 -6.90463e-12 3.0047e-12 -1.26227e-12 5e-05 1.46608e-10 
198 1 0.0441798 0.0168978 0.00757982 0.0057391 -0.000522682 0.000418058 -1.45574e-10 -5.23466e-10 1.87033e-10 5e-05 1.46608e-10 
199 1 0.0444295 0.0175853 0.00737693 0.00579838 -0.000662196 0.00059979 -5.38613e-11 -9.02575e-11 2.54286e-11 5e-05 1.46608e-10 
200 1 0.0442775 0.0169301 0.00757278 0.00575836 -0.000543642 0.000424821 1.20946e-10 -6.77797e-11 -5.0212e-11 5e-05 1.46608e-10 
201 1 0.0447432 0.0181347 0.00722603 0.0057512 -0.000513446 0.000549711 -1.33617e-11 2.5579e-10 -7.13407e-11 5e-05 1.46608e-10 
202 1 0.0445124 0.0171793 0.00750976 0.00580037 -0.000540931 0.000561603 -2.01413e-10 1.14323e-10 -5.19101e-11 5e-05 1.46608e-10 
203 1 0.0507078 0.0176016 0.00717557 0.00614108 -8.79387e-05 0.000536378 4.39255e-10 -3.82067e-10 1.90389e-10 5e-05 1.46608e-10 
204 1 0.0442559 0.0168374 0.00760367 0.00569532 -0.000548063 0.000422386 9.5564e-11 7.31933e-11 -7.6971e-11 5e-05 1.46608e-10 
205 1 0.0445903 0.0178972 0.00729011 0.00578366 -0.000621325 0.00058605 4.5413e-10 -2.67495e-10 1.09832e-10 5e-05 1.46608e-10 
206 1 0.044547 0.01771 0.00734581 0.00582444 -0.000626564 0.00059046 5.57561e-10 -2.02325e-10 7.71155e-11 5e-05 1.46608e-10 
207 1 0.0441 0.0161371 0.00792445 0.00540447 -0.000497961 0.000385914 -7.31013e-11 1.39035e-10 -1.05805e-10 5e-05 1.46608e-10 
208 1 0.0445037 0.0175229 0.00740151 0.00584296 -0.000602308 0.000584042 6.74851e-11 -6.02054e-11 2.5608e-12 5e-05 1.46608e-10 
209 1 0.0442898 0.0165898 0.00769004 0.00563621 -0.000578336 0.000428795 -1.41182e-10 4.25441e-13 -5.98373e-11 5e-05 1.46608e-10 
210 1 0.0503568 0.0173225 0.00735549 0.0061238 3.19019e-06 0.000488286 1.64299e-11 6.32165e-11 -2.71465e-10 5e-05 1.46608e-10 
211 1 0.0506682 0.0181917 0.00697878 0.00639989 -6.77006e-05 -0.000280345 5.47894e-10 -2.86154e-10 -2.51592e-10 5e-05 1.46608e-10 
212 1 0.0446207 0.0176472 0.0073705 0.0058389 -0.000604942 0.000585256 6.4884e-10 -3.06447e-10 1.5051e-10 5e-05 1.46608e-10 
213 1 0.050466 0.0169354 0.00742025 0.00564784 -7.11333e-05 0.000488724 3.13082e-10 2.0097e-10 -7.57349e-11 5e-05 1.46608e-10 
214 1 0.0505936 0.0182578 0.00697049 0.00568372 -0.000217651 -0.00022184 8.96002e-12 6.07792e-11 -5.18928e-12 5e-05 1.46608e-10 
215 1 0.0384058 0.017422 0.007169 0.0062426 -0.000103164 -0.000119568 4.5462e-11 2.69291e-11 -1.74039e-11 5e-05 1.46608e-10 
216 1 0.0443972 0.0178332 0.00729708 0.00575903 -0.000702114 0.000610875 1.07337e-10 -3.58277e-10 1.55453e-10 5e-05 1.46608e-10 
217 1 0.0503128 0.016676 0.00761026 0.00546251 -0.000502136 -0.000352625 -1.14835e-09 7.01033e-11 6.35801e-11 5e-05 1.46608e-10 
218 1 0.0445162 0.0179596 0.00726553 0.0057731 -0.000657211 0.00059621 1.97741e-10 -3.95879e-10 1.42955e-10 5e-05 1.46608e-10 
219 1 0.0505972 0.018709 0.00689034 0.00577962 -0.000178806 -0.000232119 -8.99145e-11 -4.07828e-10 8.55313e-11 5e-05 1.46608e-10 
220 1 0.0443537 0.0176459 0.00735282 0.00574787 -0.000716196 0.00061408 1.63335e-12 -2.10281e-11 1.30339e-11 5e-05 1.46608e-10 
221 1 0.0382999 0.0169876 0.00738933 0.00611742 -6.28653e-05 -0.000136226 -7.98058e-12 4.91342e-12 -1.95337e-12 5e-05 1.46608e-10 
222 1 0.0503311 0.0167482 0.0075435 0.00544582 -0.000379234 -0.00018476 -2.46123e-10 4.61443e-11 3.48427e-10 5e-05 1.46608e-10 
223 1 0.0444387 0.0172422 0.00748506 0.00579262 -0.000539914 0.000560201 -2.52138e-10 9.12264e-11 -6.74161e-11 5e-05 1.46608e-10 
224 1 0.044245 0.0171777 0.00749216 0.00578223 -0.000443189 0.000530253 2.13301e-12 1.73501e-10 -5.0433e-11 5e-05 1.46608e-10 
225 1 0.0506559 0.0177538 0.00711091 0.00622221 -9.97097e-05 0.000547952 1.55281e-11 6.43311e-11 -2.37763e-11 5e-05 1.46608e-10 
226 1 0.0446293 0.0173034 0.00747879 0.00584414 -0.000536195 0.000563408 -1.42921e-10 -7.61978e-11 1.01543e-11 5e-05 1.46608e-10 
227 1 0.038419 0.0171035 0.00732808 0.00619095 -6.01188e-05 -0.000139476 9.1004e-11 3.28935e-12 -2.87099e-12 5e-05 1.46608e-10 
228 1 0.0383532 0.0175753 0.00710685 0.00628817 7.12507e-05 0.000235834 4.73126e-12 1.56375e-11 6.50815e-12 5e-05 1.46608e-10 
229 1 0.0442502 0.0170731 0.00761579 0.00576578 -0.000524547 0.000562126 1.55306e-10 -4.85441e-11 -4.82884e-12 5e-05 1.46608e-10 
230 1 0.0446768 0.0182715 0.00717869 0.00577991 -0.000461863 0.000536729 1.38185e-10 1.0156e-10 -1.9861e-10 5e-05 1.46608e-10 
231 1 0.0383101 0.0173961 0.00718458 0.00623714 -7.95064e-05 -0.000131592 -3.9519e-11 5.90512e-11 -4.04152e-11 5e-05 1.46608e-10 
232 1 0.0441982 0.0161533 0.00788968 0.00541304 -0.000520076 0.000394122 -5.12495e-11 1.37132e-11 -2.57629e-11 5e-05 1.46608e-10 
233 1 0.0443305 0.0167756 0.0076282 0.00564182 -0.000582397 0.000421588 -1.4632e-10 -2.29258e-11 1.65247e-12 5e-05 1.46608e-10 
234 1 0.0507168 0.0184841 0.00692472 0.00572082 -0.000177349 -0.000231239 3.24913e-10 -3.53315e-10 5.08665e-11 5e-05 1.46608e-10 
235 1 0.0447247 0.0184637 0.0071217 0.00568742 -0.00050656 0.000543145 -2.86293e-10 4.39834e-10 -1.51182e-10 5e-05 1.46608e-10 
236 1 0.0446986 0.018365 0.00715086 0.00581778 -0.000440153 0.000529585 -2.0188e-10 3.35666e-11 -1.24295e-11 5e-05 1.46608e-10 
237 1 0.0447868 0.018322 0.0071703 0.0057477 -0.000503694 0.000546989 3.71734e-10 9.87687e-11 -4.07514e-11 5e-05 1.46608e-10 
239 1 0.0381254 0.0166105 0.00758291 0.00567471 5.72362e-05 -0.000184082 3.42367e-12 9.89756e-12 -5.13232e-12 5e-05 1.46608e-10 
240 1 0.0381841 0.0168729 0.00744993 0.00563981 5.76407e-05 -0.000183414 -6.60078e-12 -9.9919e-12 6.28054e-12 5e-05 1.46608e-10 
241 1 0.0381059 0.016523 0.00762724 0.0056868 5.68548e-05 -0.000184228 4.27625e-12 2.09233e-11 -1.05055e-11 5e-05 1.46608e-10 
242 1 0.0444474 0.0168985 0.00759334 0.00567794 -0.000553564 0.000552441 -3.76033e-10 -1.1856e-10 -9.00251e-11 5e-05 1.46608e-10 
243 1 0.0442343 0.0167448 0.00763456 0.00572944 -0.000524738 0.000416037 8.81555e-12 -1.54259e-11 7.90543e-12 5e-05 1.46608e-10 
244 1 0.038145 0.016698 0.00753858 0.00566257 5.69678e-05 -0.000183612 2.10191e-12 1.55175e-11 -7.6229e-12 5e-05 1.46608e-10 
246 1 0.0382675 0.0172218 0.00727298 0.00619355 -5.46344e-05 -0.000141774 -1.50714e-10 -7.62481e-12 3.93281e-12 5e-05 1.46608e-10 