ITEM: TIMESTEP
32400000
ITEM: NUMBER OF ATOMS
271
ITEM: BOX BOUNDS ff ff ff
-0.02 0.43
-0.02 0.06
-0.02 0.07
ITEM: ATOMS id type x y z vx vy vz fx fy fz radius mass 
1 1 0.201408 0.0154923 0.00863679 0.006083 -0.000299301 -0.000116423 -1.35672e-10 -5.85894e-12 -8.10257e-12 5e-05 1.46608e-10 
2 1 0.202306 0.0179991 0.00701064 0.00570437 0.000143732 0.000273998 -1.1329e-10 1.73864e-10 -1.26823e-10 5e-05 1.46608e-10 
3 1 0.196342 0.0177281 0.00705978 0.00567893 0.000188369 -0.000245325 2.94904e-12 2.59035e-10 -2.21865e-10 5e-05 1.46608e-10 
4 1 0.202345 0.0177755 0.00714423 0.00555314 0.00012832 0.000272739 -5.75882e-11 4.13383e-11 -3.20463e-11 5e-05 1.46608e-10 
5 1 0.201388 0.0154578 0.0087285 0.0060139 -0.000281806 -0.000127159 -7.55218e-11 3.9505e-12 3.02753e-11 5e-05 1.46608e-10 
6 1 0.207781 0.0167983 0.00752648 0.00573985 -0.000214765 -0.000128749 -1.03666e-11 -3.66736e-11 3.36147e-11 5e-05 1.46608e-10 
7 1 0.20149 0.0157008 0.00831333 0.00623561 6.97257e-05 0.000209157 -1.93441e-11 -8.32539e-12 6.83398e-12 5e-05 1.46608e-10 
8 1 0.201369 0.0154234 0.00882041 0.00594245 -0.000248455 -0.000132175 -7.20253e-11 -1.3085e-11 -2.55965e-12 5e-05 1.46608e-10 
9 1 0.207894 0.0172793 0.00719691 0.0057326 -1.00332e-05 0.000177754 2.06708e-12 8.14532e-12 -2.49496e-12 5e-05 1.46608e-10 
10 1 0.201965 0.0176505 0.0071938 0.00556523 0.000270938 0.000190758 -2.30916e-10 -4.59869e-11 2.56904e-11 5e-05 1.46608e-10 
11 1 0.202098 0.017852 0.00708392 0.00561979 0.0002141 0.00022663 -3.28669e-12 -9.37706e-11 7.00499e-11 5e-05 1.46608e-10 
12 1 0.19548 0.0156667 0.00839657 0.00624384 7.61054e-06 -0.000341544 6.73589e-10 5.04622e-11 -1.37715e-10 5e-05 1.46608e-10 
13 1 0.201312 0.0153281 0.0090991 0.00587026 0.000159307 -2.60735e-06 5.82801e-12 4.16065e-11 -8.57147e-11 5e-05 1.46608e-10 
14 1 0.196134 0.0184427 0.0068672 0.0057131 0.0002078 -0.000142064 -6.40959e-11 -2.36397e-11 4.73878e-11 5e-05 1.46608e-10 
15 1 0.202326 0.0176902 0.00719307 0.00555815 0.000156269 0.000256512 -3.59533e-13 2.76122e-13 6.35201e-12 5e-05 1.46608e-10 
16 1 0.19623 0.0184755 0.00686331 0.00555426 0.00025249 -0.000139299 -4.84442e-10 7.20989e-11 -1.98137e-11 5e-05 1.46608e-10 
17 1 0.202364 0.0178607 0.00709544 0.00562325 0.000157136 0.000259809 8.38823e-11 -1.02606e-10 6.74055e-11 5e-05 1.46608e-10 
19 1 0.20135 0.0153893 0.00891244 0.00589836 -0.000194366 -0.000122564 -3.19402e-11 -7.01489e-11 -4.67623e-11 5e-05 1.46608e-10 
21 1 0.201928 0.0174801 0.00729142 0.00549295 0.000284528 0.000177083 5.99714e-11 -7.4854e-11 2.56663e-11 5e-05 1.46608e-10 
22 1 0.202135 0.017627 0.00721826 0.00554041 0.000204414 0.00022613 -1.82651e-11 -9.85021e-12 1.47899e-12 5e-05 1.46608e-10 
23 1 0.195722 0.0161813 0.00789539 0.00591395 5.94413e-05 -0.000389715 -9.65864e-10 3.3966e-09 -3.27382e-09 5e-05 1.46608e-10 
24 1 0.207972 0.0176562 0.00708814 0.00559786 2.18208e-05 0.000164309 -3.72783e-13 -2.11751e-12 2.62634e-12 5e-05 1.46608e-10 
25 1 0.201554 0.0159529 0.00816478 0.00616592 0.000116576 0.000247108 3.43255e-11 4.80889e-11 -2.51091e-11 5e-05 1.46608e-10 
26 1 0.207856 0.0171059 0.00728245 0.00566259 -0.00010464 2.30788e-05 6.23596e-11 -1.07016e-11 1.29248e-11 5e-05 1.46608e-10 
27 1 0.196487 0.0178963 0.00696324 0.00592015 0.00187131 -0.0011775 -1.31488e-10 6.70305e-11 -2.23853e-11 5e-05 1.46608e-10 
28 1 0.202268 0.0178288 0.00710821 0.0055878 0.000163249 0.00025401 1.38025e-11 9.41617e-11 -5.19922e-11 5e-05 1.46608e-10 
29 1 0.201517 0.0157832 0.00826404 0.00624386 5.33436e-05 0.000181849 -4.26821e-11 2.58633e-11 2.47961e-11 5e-05 1.46608e-10 
30 1 0.202022 0.0179061 0.00704738 0.00565271 0.000235584 0.000216113 -1.62071e-10 -2.30116e-10 1.29723e-10 5e-05 1.46608e-10 
31 1 0.201579 0.0160367 0.00811634 0.00611782 0.000160756 0.000289789 1.09336e-10 4.52119e-11 -2.09222e-11 5e-05 1.46608e-10 
32 1 0.202021 0.0171152 0.00751137 0.00576102 0.000496595 6.96786e-05 -1.10969e-10 -9.57292e-11 4.76612e-11 5e-05 1.46608e-10 
33 1 0.2078 0.0168742 0.00746432 0.00577575 -0.000224761 -0.00012332 1.58208e-12 -2.88496e-11 2.14541e-11 5e-05 1.46608e-10 
34 1 0.201471 0.015628 0.00837915 0.00622752 -1.43314e-05 0.000115107 -5.57931e-11 -2.73929e-11 -2.944e-11 5e-05 1.46608e-10 
35 1 0.202173 0.0174027 0.00735225 0.00542919 0.000160924 0.000245737 1.11538e-10 7.27486e-11 -3.53274e-11 5e-05 1.46608e-10 
36 1 0.207953 0.0175619 0.00711534 0.00559145 2.02028e-05 0.000164492 3.54141e-12 4.61096e-12 -1.51676e-12 5e-05 1.46608e-10 
37 1 0.202214 0.0183979 0.0068857 0.00580155 0.000169935 0.000252766 6.53397e-10 -4.60228e-10 2.62178e-12 5e-05 1.46608e-10 
38 1 0.202276 0.0186904 0.00691062 0.00629038 0.000116004 3.11929e-05 -9.14623e-11 7.92356e-11 -5.30842e-10 5e-05 1.46608e-10 
39 1 0.207991 0.0177504 0.00706095 0.00560419 2.35307e-05 0.000163928 -5.12741e-12 -1.26852e-11 5.69127e-13 5e-05 1.46608e-10 
41 1 0.202383 0.0179459 0.00704666 0.00575117 0.000180808 0.000254484 -2.9355e-10 2.45787e-10 -1.48712e-10 5e-05 1.46608e-10 
42 1 0.321436 0.0173475 0.00552525 4.57976e-16 2.25517e-15 8.4636e-14 1.45306e-23 -1.5445e-24 0 5e-05 1.46608e-10 
44 1 0.202287 0.017914 0.00705942 0.00560757 0.00013802 0.000271022 -6.94109e-15 -3.08051e-11 4.84194e-11 5e-05 1.46608e-10 
45 1 0.207819 0.0169502 0.00740208 0.00555853 -0.000189335 -0.000141069 -5.16908e-12 -1.85776e-11 1.23724e-11 5e-05 1.46608e-10 
47 1 0.201427 0.0155271 0.00854487 0.00614841 -0.000308321 -0.000103678 5.87147e-11 -1.09985e-11 1.27932e-11 5e-05 1.46608e-10 
48 1 0.202255 0.018593 0.00690309 0.00614351 0.000123565 0.000251103 5.36316e-11 3.01965e-10 2.04388e-10 5e-05 1.46608e-10 
50 1 0.201618 0.0162067 0.00801904 0.00609256 0.00017048 0.000281437 2.30893e-11 4.56904e-11 -3.01553e-11 5e-05 1.46608e-10 
51 1 0.201596 0.0161247 0.00807207 0.00610353 0.000165732 0.000284879 1.16035e-10 4.73262e-11 -1.7178e-11 5e-05 1.46608e-10 
52 1 0.195387 0.0153872 0.00866671 0.00606379 0.000117817 -0.000377496 2.43859e-10 4.07822e-10 1.18814e-10 5e-05 1.46608e-10 
53 1 0.207933 0.0174677 0.00714253 0.00558694 1.91984e-05 0.000164685 1.39013e-11 7.43717e-12 -3.50498e-12 5e-05 1.46608e-10 
54 1 0.202099 0.0182616 0.00688169 0.00570804 -7.12211e-05 -3.05447e-05 1.00734e-11 -1.51348e-10 -1.68586e-10 5e-05 1.46608e-10 
55 1 0.195328 0.0152373 0.00891476 0.00578467 0.000786878 5.48689e-05 -2.64342e-10 -3.25293e-10 1.01712e-09 5e-05 1.46608e-10 
56 1 0.202234 0.0184955 0.00689439 0.00599563 0.000150518 0.000251195 5.97157e-10 -2.82825e-10 1.48647e-10 5e-05 1.46608e-10 
57 1 0.207838 0.0170262 0.00733987 0.00557486 -0.000193007 -0.000133858 5.05152e-11 -1.91585e-11 1.34784e-11 5e-05 1.46608e-10 
59 1 0.202116 0.0175418 0.00726707 0.00551241 0.000207106 0.000223974 3.36876e-11 -5.38908e-12 6.39085e-12 5e-05 1.46608e-10 
61 1 0.201904 0.0169987 0.00757241 0.00588737 0.000313781 0.000184847 -2.07273e-11 -1.69605e-11 9.05138e-12 5e-05 1.46608e-10 
62 1 0.202499 0.0184905 0.00689504 0.00591603 -0.000319133 -0.000169921 1.07668e-11 1.03668e-10 3.38675e-11 5e-05 1.46608e-10 
63 1 0.202307 0.017605 0.00724187 0.00553236 0.000143007 0.000262935 -3.63673e-11 -3.09316e-11 2.34319e-11 5e-05 1.46608e-10 
64 1 0.208011 0.0178447 0.00703376 0.00564904 1.77179e-05 0.000167011 -6.01536e-12 -1.71634e-11 7.50025e-12 5e-05 1.46608e-10 
65 1 0.195665 0.0163007 0.00778553 0.00552975 1.30725e-05 -0.000523686 -3.28144e-10 2.61145e-11 -2.15388e-11 5e-05 1.46608e-10 
66 1 0.195309 0.0151978 0.00900449 0.00571746 0.000804801 2.77542e-05 -3.50734e-10 -5.43231e-10 1.12983e-09 5e-05 1.46608e-10 
67 1 0.202249 0.0181382 0.00692546 0.00578712 0.000153103 0.000272586 2.11272e-11 1.77863e-10 -1.06589e-10 5e-05 1.46608e-10 
68 1 0.20206 0.0172861 0.0074135 0.00530685 0.000218451 0.000204468 -9.40192e-11 1.17329e-10 -7.62039e-11 5e-05 1.46608e-10 
69 1 0.202119 0.0183634 0.00687913 0.00572079 0.00017534 0.000245541 7.76732e-12 -5.18357e-10 -4.03988e-10 5e-05 1.46608e-10 
70 1 0.207874 0.0171851 0.00722406 0.00572558 -9.03936e-06 0.000176132 7.8083e-12 5.30027e-12 2.04551e-12 5e-05 1.46608e-10 
71 1 0.195367 0.0153177 0.00873583 0.00567538 0.000357314 -0.000229872 2.51962e-10 9.19708e-11 7.45268e-10 5e-05 1.46608e-10 
72 1 0.202154 0.0181076 0.00693748 0.00577115 0.000151617 0.00027275 5.96227e-12 -1.48602e-10 7.03879e-11 5e-05 1.46608e-10 
73 1 0.202179 0.0186578 0.00690534 0.00620415 0.00014842 0.000256964 1.13897e-10 5.96632e-10 4.31472e-11 5e-05 1.46608e-10 
74 1 0.202309 0.018429 0.00689197 0.00585333 6.36337e-05 0.000224656 -2.21697e-10 5.24169e-10 1.51566e-11 5e-05 1.46608e-10 
76 1 0.196362 0.0182481 0.00688927 0.00560537 0.000241794 3.42704e-05 -2.31797e-10 3.31036e-10 -1.70803e-11 5e-05 1.46608e-10 
77 1 0.202192 0.0174879 0.00730343 0.00550916 0.000204396 0.000225355 6.9454e-11 -1.27872e-10 7.75879e-11 5e-05 1.46608e-10 
78 1 0.196115 0.0183452 0.0068773 0.00573297 0.000215938 -0.00010117 -4.16345e-11 7.51556e-11 1.53033e-10 5e-05 1.46608e-10 
79 1 0.195431 0.0155277 0.00853117 0.00626364 7.95855e-06 -0.000360146 1.94e-11 4.33462e-10 -2.75327e-10 5e-05 1.46608e-10 
80 1 0.202344 0.0181696 0.00691305 0.00569687 0.000101699 0.000315389 6.94078e-10 2.66545e-10 -2.53226e-10 5e-05 1.46608e-10 
81 1 0.19625 0.0185731 0.00685731 0.00634618 7.59209e-05 -0.000141346 9.26248e-11 -2.69811e-11 -1e-11 5e-05 1.46608e-10 
82 1 0.195495 0.0157385 0.0083284 0.00626429 -2.36396e-06 -0.000340394 1.73767e-10 1.64933e-10 -1.24787e-10 5e-05 1.46608e-10 
83 1 0.196171 0.0181832 0.00689692 0.00576802 0.000253346 3.44077e-05 1.04353e-11 1.00554e-10 4.31436e-11 5e-05 1.46608e-10 
84 1 0.207914 0.0173735 0.00716973 0.00560536 1.41373e-05 0.000166747 5.3635e-11 -1.88023e-12 2.33273e-12 5e-05 1.46608e-10 
85 1 0.196364 0.0178164 0.00701038 0.00570029 0.000220619 -0.000253084 -3.12736e-11 -1.41836e-10 -1.19146e-11 5e-05 1.46608e-10 
86 1 0.202402 0.0180317 0.00699753 0.00577405 0.000165178 0.000266738 3.12456e-11 -9.25134e-11 1.08832e-10 5e-05 1.46608e-10 
87 1 0.202351 0.0186242 0.00690482 0.00611722 -5.92745e-05 -0.000245951 -4.03606e-10 9.12544e-11 1.98205e-11 5e-05 1.46608e-10 
88 1 0.201788 0.0168847 0.00763196 0.00589816 0.000202386 0.000250971 1.54108e-11 5.961e-11 -3.1444e-11 5e-05 1.46608e-10 
89 1 0.202329 0.0185266 0.00690067 0.00605556 2.39391e-05 0.000237633 -1.75187e-10 7.67904e-10 1.86084e-11 5e-05 1.46608e-10 
90 1 0.202192 0.0178826 0.00707188 0.00561518 0.00018346 0.000244111 -2.10804e-12 1.96617e-11 1.13946e-11 5e-05 1.46608e-10 
91 1 0.196408 0.0180032 0.00692801 0.00566523 0.000118217 5.61213e-05 -2.06645e-10 7.27824e-11 -1.87826e-11 5e-05 1.46608e-10 
92 1 0.202289 0.0183315 0.00688327 0.00572137 9.69719e-05 0.000238472 4.8138e-10 2.78524e-11 2.07608e-10 5e-05 1.46608e-10 
93 1 0.20166 0.016376 0.00792239 0.00605322 0.000180018 0.000273606 -5.11431e-11 -4.73185e-12 -2.77706e-12 5e-05 1.46608e-10 
94 1 0.202079 0.0177667 0.00713277 0.00558446 0.000213209 0.000223735 -1.05034e-10 -4.14493e-11 -2.49741e-11 5e-05 1.46608e-10 
95 1 0.202041 0.0175962 0.00723042 0.00553678 0.000242036 0.000205301 -4.98864e-11 -7.88026e-11 4.40291e-11 5e-05 1.46608e-10 
96 1 0.201681 0.0164616 0.00787513 0.00601887 0.000185587 0.000268525 -8.99586e-12 -3.61965e-11 1.90895e-11 5e-05 1.46608e-10 
97 1 0.195778 0.0164045 0.00770457 0.00573932 0.000392537 8.11076e-05 -1.49945e-10 2.46928e-10 1.49968e-10 5e-05 1.46608e-10 
98 1 0.202173 0.0177974 0.00712066 0.00559018 0.000189337 0.000239549 -3.75126e-11 -1.60399e-11 2.68448e-11 5e-05 1.46608e-10 
99 1 0.195881 0.016849 0.00750002 0.00590784 0.000352555 0.000115052 1.00787e-11 -6.93231e-11 4.54935e-11 5e-05 1.46608e-10 
100 1 0.202404 0.0184596 0.00689589 0.00590989 -0.000158025 -0.000164794 -6.72553e-10 1.041e-10 1.25912e-10 5e-05 1.46608e-10 
101 1 0.195451 0.0155989 0.00846411 0.00626329 5.14684e-06 -0.000347382 7.12837e-11 1.12745e-10 -3.68984e-10 5e-05 1.46608e-10 
102 1 0.0643568 0.0187248 0.00531097 4.1585e-15 1.05373e-14 8.29607e-14 -1.81605e-21 7.14865e-22 -1.65436e-24 5e-05 1.46608e-10 
103 1 0.24257 0.0191927 0.00520306 -7.91558e-23 4.01299e-22 8.29106e-22 0 0 0 5e-05 1.46608e-10 
104 1 0.196074 0.0177287 0.00706587 0.00567663 3.43883e-05 -0.000159686 2.81223e-10 -2.06211e-10 1.43866e-10 5e-05 1.46608e-10 
105 1 0.196423 0.017676 0.00708666 0.00566324 0.000151363 -0.000217399 -1.82425e-10 1.37541e-10 -1.48633e-10 5e-05 1.46608e-10 
106 1 0.196301 0.0175537 0.00715725 0.00558462 7.06162e-05 -0.000173499 -1.06959e-10 -1.18991e-10 4.65506e-11 5e-05 1.46608e-10 
107 1 0.196282 0.017468 0.00720511 0.00563066 8.95851e-05 -0.000182113 -2.93559e-10 -1.03457e-10 1.2484e-10 5e-05 1.46608e-10 
108 1 0.202138 0.0184622 0.00688788 0.00562004 -8.04783e-05 0.000217012 -1.38628e-10 -5.81692e-10 1.22256e-11 5e-05 1.46608e-10 
109 1 0.202288 0.0175198 0.00729068 0.00549787 0.000153287 0.000254686 4.15475e-11 -3.43755e-11 2.86019e-11 5e-05 1.46608e-10 
110 1 0.201709 0.0165446 0.00782651 0.00599154 0.000189808 0.000264242 4.27755e-11 -5.08074e-11 3.24618e-11 5e-05 1.46608e-10 
111 1 0.202022 0.0175109 0.00727923 0.00552016 0.000267104 0.000189351 -2.50943e-10 -4.80387e-11 9.70058e-12 5e-05 1.46608e-10 
112 1 0.196132 0.0179882 0.00692678 0.0057801 0.000191445 3.08515e-05 -1.73782e-10 1.30644e-10 1.01321e-10 5e-05 1.46608e-10 
113 1 0.195744 0.0166405 0.00759193 0.00586721 0.000347824 0.000113845 -1.55361e-10 -1.96431e-10 8.24112e-11 5e-05 1.46608e-10 
114 1 0.196096 0.0182475 0.00688673 0.00575554 0.000229682 8.7634e-06 -4.08423e-12 1.32048e-10 1.26547e-10 5e-05 1.46608e-10 
115 1 0.202249 0.0177435 0.00715701 0.00556866 0.000168506 0.000250255 -1.55635e-10 -1.04124e-10 2.59776e-11 5e-05 1.46608e-10 
116 1 0.202079 0.0181618 0.00690093 0.00575935 0.000173296 0.000261222 2.04471e-10 3.96483e-10 -1.44801e-10 5e-05 1.46608e-10 
117 1 0.202222 0.0188533 0.00691856 0.006196 3.01064e-05 -0.000150495 5.62632e-11 3.0102e-10 7.21414e-11 5e-05 1.46608e-10 
118 1 0.195942 0.01753 0.00717997 0.00559227 0.000244967 0.000105722 2.156e-10 9.33623e-11 -3.94711e-10 5e-05 1.46608e-10 
119 1 0.202211 0.0175731 0.00725461 0.00552161 0.000182198 0.00023933 -7.21246e-11 -6.58193e-11 1.94819e-11 5e-05 1.46608e-10 
120 1 0.201533 0.0158677 0.00821274 0.00624309 4.35732e-05 0.000159432 -1.58549e-11 3.92283e-11 5.43293e-12 5e-05 1.46608e-10 
121 1 0.201447 0.0155692 0.00845642 0.00619404 -0.000207061 -4.22249e-05 1.82034e-11 -2.16336e-11 -9.71666e-12 5e-05 1.46608e-10 
122 1 0.201984 0.0173405 0.00737687 0.00539244 0.000281927 0.000172283 -1.53069e-10 1.08675e-10 -6.92837e-11 5e-05 1.46608e-10 
123 1 0.195903 0.0173526 0.00726387 0.00559849 0.000292487 0.000147432 2.29189e-10 1.76321e-10 1.80256e-10 5e-05 1.46608e-10 
124 1 0.202003 0.0174257 0.00732804 0.0054293 0.000291942 0.000168848 -1.8786e-10 4.62022e-11 -3.85933e-11 5e-05 1.46608e-10 
125 1 0.202298 0.018788 0.0069137 0.00628141 0.000117811 -0.000150976 -1.1848e-10 2.39705e-10 -6.37485e-11 5e-05 1.46608e-10 
126 1 0.201926 0.0170843 0.00752352 0.0057533 0.00033485 0.000164109 -1.0966e-10 -1.56122e-10 8.34116e-11 5e-05 1.46608e-10 
127 1 0.196449 0.0177696 0.00703424 0.00576473 0.000323152 -0.000315434 1.71939e-10 -4.92871e-11 3.21044e-11 5e-05 1.46608e-10 
128 1 0.201965 0.0172552 0.00742571 0.00540287 0.000281129 0.000173249 9.35774e-11 1.73566e-10 -9.66088e-11 5e-05 1.46608e-10 
129 1 0.202116 0.0179372 0.0070351 0.00560562 0.000126448 0.000279604 1.90282e-11 -1.47602e-10 1.07522e-10 5e-05 1.46608e-10 
131 1 0.196321 0.0176399 0.00710907 0.005655 0.000156636 -0.000223687 5.06454e-10 -5.43165e-11 1.47787e-11 5e-05 1.46608e-10 
132 1 0.202211 0.0179678 0.00702309 0.00564749 0.000174235 0.000251781 -8.28909e-11 -3.74473e-11 -3.45405e-11 5e-05 1.46608e-10 
133 1 0.201984 0.0177357 0.007145 0.00559684 0.000256414 0.00019993 9.54344e-11 9.41549e-11 -5.76508e-12 5e-05 1.46608e-10 
134 1 0.201946 0.0171698 0.00747462 0.005637 0.000375024 0.000133137 7.52917e-11 6.51066e-11 -3.10823e-11 5e-05 1.46608e-10 
135 1 0.201331 0.0153565 0.00900497 0.00588067 0.000159394 -2.61047e-06 -9.53458e-12 -6.67291e-12 -6.52135e-11 5e-05 1.46608e-10 
136 1 0.196154 0.0185407 0.0068612 0.0057027 0.000215366 -0.00013352 3.11104e-11 2.32389e-11 -4.49909e-11 5e-05 1.46608e-10 
137 1 0.201645 0.0162912 0.00797311 0.00608067 0.000174568 0.000275609 -4.26729e-11 2.80974e-11 -2.26049e-11 5e-05 1.46608e-10 
138 1 0.20206 0.0180766 0.00694974 0.00574208 0.000181387 0.000265384 -5.09831e-12 2.64041e-10 -6.07288e-11 5e-05 1.46608e-10 
140 1 0.202154 0.0177122 0.00716945 0.00556971 0.000196771 0.000233088 -6.81182e-11 1.01539e-11 -1.33293e-11 5e-05 1.46608e-10 
141 1 0.196152 0.0180863 0.00691177 0.0057597 0.00026648 3.35778e-05 -9.64987e-11 7.33163e-11 9.15886e-12 5e-05 1.46608e-10 
142 1 0.195884 0.0172634 0.00730491 0.0056321 0.000303987 0.000126967 1.85456e-10 1.82857e-11 -4.22866e-11 5e-05 1.46608e-10 
143 1 0.195348 0.0152768 0.00882492 0.00574311 0.000816735 3.42838e-05 5.48462e-10 3.01447e-10 1.105e-09 5e-05 1.46608e-10 
144 1 0.195999 0.0177867 0.00703558 0.00568659 4.0862e-05 -0.000174989 2.59656e-10 2.69071e-10 -3.27445e-10 5e-05 1.46608e-10 
147 1 0.19621 0.0183777 0.00687146 0.00572215 0.000227584 -0.000171832 -1.2104e-10 3.53331e-11 6.80583e-12 5e-05 1.46608e-10 
148 1 0.195976 0.0168797 0.00749007 0.00588838 0.00040659 8.81951e-05 1.00062e-10 -2.10616e-10 1.04211e-10 5e-05 1.46608e-10 
149 1 0.201809 0.0169698 0.00758389 0.00587199 0.000208355 0.000245953 2.40053e-11 7.70074e-11 -4.1995e-11 5e-05 1.46608e-10 
150 1 0.0100679 0.0201683 0.00551526 8.38428e-15 1.25205e-15 -8.48743e-14 -6.64329e-24 4.57922e-23 -2.06795e-25 5e-05 1.46608e-10 
151 1 0.195845 0.0170853 0.00738699 0.00579028 0.000312199 0.000128902 1.64643e-10 1.12094e-11 3.33534e-11 5e-05 1.46608e-10 
153 1 0.196196 0.0187361 0.00684916 0.00631909 0.000119209 -0.000140598 -1.47536e-10 -5.33174e-10 2.68572e-11 5e-05 1.46608e-10 
154 1 0.195961 0.0176153 0.00713133 0.00561428 0.000101929 -0.000112892 4.66196e-10 6.07923e-10 2.08607e-10 5e-05 1.46608e-10 
155 1 0.196168 0.0173546 0.00727057 0.00563461 0.000103025 -0.000194062 1.59073e-10 -1.25614e-10 -8.14265e-11 5e-05 1.46608e-10 
156 1 0.196112 0.0179001 0.00697012 0.00576342 0.000121517 -0.000183055 -2.48882e-11 -1.85721e-10 7.14536e-11 5e-05 1.46608e-10 
157 1 0.0219312 0.0187687 0.00551176 -3.84125e-14 8.16363e-14 2.95885e-13 -4.76508e-22 -1.25835e-22 -3.80503e-23 5e-05 1.46608e-10 
158 1 0.196342 0.0181512 0.00690412 0.00567892 0.000206127 4.01834e-05 2.27698e-10 1.5425e-10 -9.86302e-12 5e-05 1.46608e-10 
159 1 0.202425 0.0185573 0.00689993 0.00601547 -0.000188749 -0.000150489 8.8366e-11 1.80515e-10 1.25278e-10 5e-05 1.46608e-10 
160 1 0.19598 0.017701 0.00708346 0.005647 5.45375e-05 -0.000171082 2.53346e-10 5.03661e-10 2.0177e-10 5e-05 1.46608e-10 
162 1 0.196272 0.0186706 0.0068513 0.00632519 9.94904e-05 -0.000136582 4.52099e-11 -2.92781e-10 2.99643e-11 5e-05 1.46608e-10 
164 1 0.19584 0.0166711 0.00758189 0.00589152 0.000362672 0.000109796 4.08523e-11 -1.16225e-10 8.54876e-11 5e-05 1.46608e-10 
165 1 0.196169 0.0177557 0.00704866 0.00566221 0.000107718 -0.000193007 2.29345e-10 8.45865e-11 1.29875e-11 5e-05 1.46608e-10 
166 1 0.202157 0.01856 0.00689655 0.00616443 -0.000127003 0.000232683 -2.46734e-10 -5.22852e-10 -2.77835e-11 5e-05 1.46608e-10 
168 1 0.195901 0.0169381 0.00745899 0.00592225 0.000359812 0.00011316 1.70358e-10 -8.22865e-11 4.8333e-11 5e-05 1.46608e-10 
169 1 0.196326 0.0185075 0.00685946 0.00644492 0.000126725 -0.000142586 3.56294e-10 1.29998e-10 -1.54592e-11 5e-05 1.46608e-10 
170 1 0.196245 0.0176974 0.00707907 0.00562885 0.000197857 -0.000246168 4.06504e-11 -6.15847e-10 2.922e-10 5e-05 1.46608e-10 
171 1 0.202041 0.0179914 0.00699858 0.00568561 0.000215532 0.000225835 4.35423e-11 -1.07994e-10 -2.82025e-11 5e-05 1.46608e-10 
172 1 0.19615 0.0176702 0.00709704 0.0056505 9.30248e-05 -0.00018176 1.91133e-10 3.32807e-11 -1.30628e-11 5e-05 1.46608e-10 
173 1 0.202325 0.0180845 0.00696175 0.00571847 8.30201e-05 0.00030815 2.13439e-10 -1.00101e-10 -8.09676e-11 5e-05 1.46608e-10 
174 1 0.196187 0.0174404 0.00722266 0.00557718 6.2294e-05 -0.000168534 3.66461e-11 -2.69371e-11 7.60118e-11 5e-05 1.46608e-10 
175 1 0.189861 0.0171503 0.00731836 0.00558627 0.000250349 -0.00046704 -3.1955e-11 -3.78712e-11 4.97772e-11 5e-05 1.46608e-10 
177 1 0.196015 0.0170578 0.00740803 0.00577374 0.000401924 8.50949e-05 -1.56636e-10 1.37803e-10 -8.07864e-11 5e-05 1.46608e-10 
178 1 0.19594 0.0171162 0.00737695 0.00574526 0.000365729 0.000101183 -2.1864e-11 1.24103e-10 -1.54393e-11 5e-05 1.46608e-10 
179 1 0.196017 0.0174718 0.0072105 0.00557346 0.000175835 -0.000160683 1.86754e-11 -2.13059e-10 -5.30144e-10 5e-05 1.46608e-10 
181 1 0.196286 0.0183123 0.0068783 0.00573445 0.000262105 3.4033e-05 -8.71989e-11 -2.62314e-12 5.11145e-11 5e-05 1.46608e-10 
182 1 0.202003 0.0178209 0.00709619 0.00561831 0.000239397 0.000208354 -3.00424e-11 -2.08288e-10 9.31267e-11 5e-05 1.46608e-10 
183 1 0.196226 0.0176117 0.00712694 0.00560737 6.38276e-05 -0.000167864 1.1954e-10 -1.81562e-11 1.79079e-11 5e-05 1.46608e-10 
184 1 0.20206 0.0176814 0.00718161 0.00556747 0.000234468 0.000210793 1.08126e-12 -5.22973e-11 7.51084e-11 5e-05 1.46608e-10 
186 1 0.195825 0.0169963 0.007428 0.00586147 0.000310544 0.000131314 6.33988e-11 -5.14581e-11 4.92801e-12 5e-05 1.46608e-10 
187 1 0.201909 0.0173949 0.00734023 0.00541968 0.000292378 0.000168112 -2.52401e-10 1.82648e-11 -3.56251e-11 5e-05 1.46608e-10 
188 1 0.202041 0.0172009 0.00746231 0.00533318 0.000204479 0.000214366 5.58116e-11 1.70102e-10 -9.85255e-11 5e-05 1.46608e-10 
189 1 0.20223 0.0180529 0.00697432 0.00571372 0.000160988 0.000263384 1.50136e-10 8.54716e-11 -3.07355e-11 5e-05 1.46608e-10 
190 1 0.190132 0.0184312 0.0068699 0.00575625 0.000484318 4.17929e-06 -4.28472e-12 -4.37357e-11 3.02447e-11 5e-05 1.46608e-10 
191 1 0.202079 0.0173713 0.00736468 0.00541488 0.000216937 0.000212044 -1.26217e-10 3.59661e-11 -3.57909e-11 5e-05 1.46608e-10 
192 1 0.196131 0.0175843 0.00714439 0.00561731 8.11151e-05 -0.000175916 1.25261e-10 -4.80349e-11 1.25515e-11 5e-05 1.46608e-10 
193 1 0.20223 0.0176583 0.0072058 0.0055564 0.000175077 0.000245519 -1.15475e-10 -5.50053e-11 8.11579e-12 5e-05 1.46608e-10 
194 1 0.161461 0.0182058 0.00533758 1.5972e-15 -1.10128e-14 8.66672e-14 9.43438e-22 1.04406e-22 -2.27475e-24 5e-05 1.46608e-10 
195 1 0.196323 0.0180542 0.00691897 0.00570172 0.00018065 5.50154e-05 2.33435e-11 1.38838e-10 1.89476e-11 5e-05 1.46608e-10 
196 1 0.195742 0.0162518 0.00782739 0.00576295 7.38064e-05 -0.000376382 1.66532e-10 -4.2256e-10 4.02346e-10 5e-05 1.46608e-10 
197 1 0.189918 0.0173938 0.00715319 0.00565264 0.000385163 -0.000216486 -3.55866e-11 8.90827e-11 -1.00697e-10 5e-05 1.46608e-10 
198 1 0.196175 0.0186384 0.00685519 0.00629741 6.51734e-05 -0.000137412 5.28103e-11 1.77594e-10 -1.72921e-11 5e-05 1.46608e-10 
199 1 0.196076 0.0181504 0.0069008 0.00577784 0.000289062 2.88765e-05 -1.8013e-11 5.0042e-11 -1.14986e-11 5e-05 1.46608e-10 
201 1 0.195724 0.0165515 0.00763271 0.00584683 0.000346323 0.000120996 -5.19305e-11 -1.90097e-10 9.48753e-11 5e-05 1.46608e-10 
202 1 0.196208 0.0179305 0.00695994 0.00564006 0.000232771 -2.49314e-06 -1.7433e-10 1.31249e-11 -8.94392e-11 5e-05 1.46608e-10 
203 1 0.201724 0.016631 0.00777854 0.0059657 0.000190734 0.000262177 1.76574e-13 -2.8481e-11 1.96821e-11 5e-05 1.46608e-10 
204 1 0.195408 0.0154576 0.00859883 0.00626566 3.02804e-05 -0.000375804 3.31669e-10 5.22694e-10 -3.72108e-10 5e-05 1.46608e-10 
205 1 0.196284 0.0178703 0.00698617 0.0056337 0.000138702 -0.000208281 -7.35918e-11 1.28795e-11 -5.3889e-11 5e-05 1.46608e-10 
206 1 0.195799 0.0164933 0.00766372 0.00578594 0.000381888 9.55136e-05 -1.36398e-10 -1.38578e-11 -3.11137e-11 5e-05 1.46608e-10 
207 1 0.19592 0.0170271 0.00741798 0.00584491 0.0003688 0.000104104 1.08701e-10 -1.9142e-10 9.29083e-11 5e-05 1.46608e-10 
208 1 0.196093 0.0178144 0.007018 0.00574487 0.000115947 -0.000202606 -7.62228e-11 -5.78906e-10 2.51506e-10 5e-05 1.46608e-10 
209 1 0.192774 0.0169945 0.00728683 0.00567225 -0.000837989 0.000333026 6.36886e-13 -9.52009e-14 3.53121e-14 5e-05 1.46608e-10 
210 1 0.201946 0.0175653 0.00724261 0.00552753 0.000277217 0.000183094 2.0753e-11 -9.54617e-11 4.0549e-12 5e-05 1.46608e-10 
211 1 0.20189 0.0173097 0.00738904 0.00540321 0.000285094 0.000171409 -4.00526e-11 6.16571e-12 -5.00774e-12 5e-05 1.46608e-10 
212 1 0.196227 0.0180214 0.00692284 0.00572838 0.000237329 4.25548e-05 -3.09927e-10 -4.29422e-11 -7.86472e-11 5e-05 1.46608e-10 
213 1 0.202195 0.0183003 0.00689505 0.00570076 0.000152867 0.000241817 3.68963e-10 -3.12174e-10 -2.02966e-11 5e-05 1.46608e-10 
214 1 0.20183 0.0170544 0.00753504 0.00579335 0.000221997 0.0002328 4.32729e-11 6.37154e-11 -2.78587e-11 5e-05 1.46608e-10 
215 1 0.190112 0.018336 0.0068933 0.00576043 0.000483977 3.98341e-06 -1.62815e-11 -4.09899e-11 1.02161e-11 5e-05 1.46608e-10 
216 1 0.196189 0.0178418 0.00700177 0.00562088 0.000171872 -0.00013076 1.21871e-10 6.15708e-11 1.1257e-10 5e-05 1.46608e-10 
217 1 0.202201 0.0187556 0.00691412 0.0062073 5.04622e-05 0.000257606 -1.76317e-10 -5.87734e-10 -5.23134e-11 5e-05 1.46608e-10 
218 1 0.195516 0.0158084 0.00826029 0.00630126 -1.27868e-05 -0.00033841 -2.08025e-11 9.76738e-11 -1.38672e-10 5e-05 1.46608e-10 
219 1 0.201767 0.0168003 0.0076812 0.0059198 0.000198042 0.000254753 -8.4014e-12 2.86529e-11 -2.01754e-11 5e-05 1.46608e-10 
220 1 0.196303 0.01796 0.00694608 0.00567012 0.000135845 -3.86936e-05 -2.57874e-10 1.46428e-10 5.23196e-11 5e-05 1.46608e-10 
221 1 0.256007 0.0177973 0.00698989 0.00553047 -0.00111444 0.000396346 7.49797e-13 -1.5327e-13 5.6131e-14 5e-05 1.46608e-10 
222 1 0.20227 0.0182343 0.00689669 0.00565768 0.000104693 0.000309708 3.58312e-10 -2.51329e-10 3.51984e-10 5e-05 1.46608e-10 
223 1 0.196055 0.0176429 0.00711377 0.00557445 -5.87725e-05 -0.000115521 -4.6218e-10 3.79376e-10 -2.20675e-10 5e-05 1.46608e-10 
224 1 0.0796111 0.017153 0.00809445 -0.0108581 0.00815518 -0.00335112 2.40876e-10 6.12319e-11 -7.35735e-11 5e-05 1.46608e-10 
225 1 0.202097 0.0174565 0.00731588 0.0054775 0.000209852 0.000220212 2.86895e-11 1.95351e-12 6.55875e-12 5e-05 1.46608e-10 
226 1 0.195865 0.0171743 0.00734597 0.00569102 0.000317842 0.000123817 7.44256e-11 9.51814e-11 -1.02101e-11 5e-05 1.46608e-10 
227 1 0.190053 0.0180504 0.00696348 0.00576926 0.000481038 5.15318e-06 -8.36476e-12 -1.21349e-12 1.20183e-12 5e-05 1.46608e-10 
228 1 0.189879 0.017229 0.0072594 0.00557922 0.000250116 -0.000462634 8.20632e-11 -1.1152e-11 3.05271e-11 5e-05 1.46608e-10 
229 1 0.196266 0.0182153 0.00689315 0.00572942 0.000257746 3.3477e-05 -3.18091e-10 -5.07236e-11 3.91191e-11 5e-05 1.46608e-10 
230 1 0.195684 0.0163812 0.00772942 0.00571714 0.000100646 -0.000343927 -3.39926e-11 -2.53702e-10 4.1499e-11 5e-05 1.46608e-10 
231 1 0.189843 0.0170716 0.00737736 0.00563174 0.000247804 -0.000466395 -7.27768e-11 -2.19279e-11 2.04902e-11 5e-05 1.46608e-10 
232 1 0.196056 0.0180532 0.00691569 0.00577091 0.000178979 3.92887e-05 -2.84306e-11 3.46475e-10 -2.04133e-10 5e-05 1.46608e-10 
234 1 0.202135 0.0180224 0.00698629 0.00573732 0.000127614 0.000286343 -2.20199e-10 6.31559e-12 9.4028e-12 5e-05 1.46608e-10 
235 1 0.196264 0.0177832 0.00703138 0.0056657 0.000186713 -0.000217134 3.69698e-10 -2.92234e-11 -3.32967e-10 5e-05 1.46608e-10 
236 1 0.195645 0.016231 0.00785445 0.00589058 -8.08989e-06 -0.000432581 7.31471e-11 4.70697e-11 -2.02072e-10 5e-05 1.46608e-10 
237 1 0.195603 0.0160898 0.0079898 0.00626517 -1.4334e-05 -0.000328874 -2.56242e-10 2.80804e-10 -1.74916e-10 5e-05 1.46608e-10 
239 1 0.189684 0.0164446 0.00784798 0.00613123 0.000136572 -0.000409217 2.99212e-11 1.9248e-11 -1.56541e-11 5e-05 1.46608e-10 
240 1 0.189705 0.0165226 0.00778931 0.00611805 0.000143985 -0.000414095 3.19204e-12 2.91095e-11 -1.34292e-11 5e-05 1.46608e-10 
241 1 0.189766 0.0167577 0.00761286 0.00580719 0.00021302 -0.000449047 -1.35872e-10 6.51544e-11 -4.19257e-11 5e-05 1.46608e-10 
242 1 0.195923 0.0174417 0.00722275 0.00558611 0.000293478 0.000155483 1.33207e-10 7.01913e-11 -4.43301e-10 5e-05 1.46608e-10 
244 1 0.189726 0.0166009 0.00773053 0.00568288 0.000233494 -0.000458108 -2.08168e-10 9.61455e-11 -5.37933e-11 5e-05 1.46608e-10 
246 1 0.189824 0.016993 0.00743626 0.00570718 0.000234413 -0.000460118 -1.44525e-10 1.13597e-11 -2.45941e-11 5e-05 1.46608e-10 
247 1 0.196456 0.0182803 0.00688549 0.00547838 0.000132809 5.03413e-05 -1.00821e-10 9.75798e-11 -7.80744e-12 5e-05 1.46608e-10 
248 1 0.195704 0.016468 0.00768375 0.00580356 0.000257633 -1.54679e-05 2.03055e-10 -2.5648e-10 4.56379e-11 5e-05 1.46608e-10 
249 1 0.190092 0.0182408 0.00691669 0.0057633 0.000482617 4.58579e-06 1.94572e-12 -1.69541e-11 3.18832e-12 5e-05 1.46608e-10 
250 1 0.195995 0.0169687 0.00744905 0.00582148 0.000406097 8.60046e-05 4.92403e-10 -1.16129e-10 6.94968e-11 5e-05 1.46608e-10 
251 1 0.201746 0.0167149 0.007729 0.00594055 0.000194626 0.000258238 -2.4444e-11 1.42692e-12 -3.23788e-12 5e-05 1.46608e-10 
252 1 0.189955 0.0175742 0.00708048 0.00574777 0.000490914 3.03937e-06 -5.71784e-12 6.77991e-11 -2.08357e-12 5e-05 1.46608e-10 
253 1 0.190151 0.018527 0.00684874 0.00575541 0.000445061 -0.000180637 -6.69413e-12 -1.88664e-11 -1.81127e-11 5e-05 1.46608e-10 
254 1 0.189805 0.0169145 0.00749515 0.00579244 0.000216345 -0.000451104 -3.31759e-11 8.39341e-11 -5.37501e-11 5e-05 1.46608e-10 
255 1 0.196018 0.0178724 0.00698771 0.00575137 0.000148145 -0.000217956 -5.48472e-11 -1.83609e-10 1.46207e-10 5e-05 1.46608e-10 
256 1 0.196112 0.0174988 0.00719256 0.00559888 7.20995e-05 -0.000191784 -7.425e-11 -1.3435e-10 6.73496e-12 5e-05 1.46608e-10 
257 1 0.196073 0.0173255 0.00728465 0.00562995 0.000348132 0.000102277 -1.89088e-11 -7.97925e-11 7.52552e-11 5e-05 1.46608e-10 
258 1 0.195979 0.0172944 0.00729481 0.00563909 0.000303294 0.000125408 8.1599e-11 -1.49638e-11 4.52786e-11 5e-05 1.46608e-10 
259 1 0.189975 0.0176695 0.00705707 0.00574226 0.000488465 2.45688e-06 2.12764e-12 2.6206e-11 1.28699e-11 5e-05 1.46608e-10 
261 1 0.195786 0.0168182 0.00750998 0.00587018 0.00033758 0.000121159 -2.22421e-11 -1.886e-10 7.98336e-11 5e-05 1.46608e-10 
262 1 0.195582 0.016019 0.00805699 0.00624061 -4.80313e-06 -0.000339613 -2.7496e-10 1.66496e-10 -2.04259e-10 5e-05 1.46608e-10 