ITEM: TIMESTEP
2400000
ITEM: NUMBER OF ATOMS
287
ITEM: BOX BOUNDS ff ff ff
-0.02 0.43
-0.02 0.06
-0.02 0.07
ITEM: ATOMS id type x y z vx vy vz fx fy fz radius mass 
1 1 0.0268653 0.0165255 0.00769784 0.00548564 -0.000339364 0.00013089 -3.48621e-11 3.90764e-11 4.25108e-11 5e-05 1.46608e-10 
2 1 0.0272133 0.0172288 0.00725418 0.00604805 -0.000462309 0.00018392 -7.18305e-11 8.05046e-11 -1.36107e-11 5e-05 1.46608e-10 
3 1 0.0208165 0.0166629 0.00753726 0.005312 -0.00142402 0.00112323 2.25606e-11 4.39058e-11 -8.10818e-11 5e-05 1.46608e-10 
4 1 0.0271935 0.0179281 0.00709169 0.00603569 -0.000424563 0.000175062 1.01997e-10 2.46272e-10 -5.82935e-11 5e-05 1.46608e-10 
5 1 0.0267511 0.0164242 0.00778 0.00544689 -0.000204129 0.000259865 -7.07153e-11 8.41734e-12 2.17561e-11 5e-05 1.46608e-10 
6 1 0.0327917 0.0165491 0.00759694 0.00563387 0.000161021 0.000185123 -7.73541e-11 -6.45327e-10 2.79321e-10 5e-05 1.46608e-10 
7 1 0.0269258 0.0171348 0.00727236 0.00562116 -0.000342528 0.000151002 1.17965e-10 -1.18539e-10 1.4952e-11 5e-05 1.46608e-10 
8 1 0.0266534 0.016032 0.00807426 0.0055454 -0.000229692 0.000283686 2.77291e-11 -2.99224e-11 2.86923e-11 5e-05 1.46608e-10 
9 1 0.0330568 0.017718 0.00709364 0.00621127 -1.73619e-05 0.000290114 -1.42453e-12 -1.39259e-11 -2.48399e-12 5e-05 1.46608e-10 
10 1 0.0268675 0.0168792 0.0074068 0.00558792 -0.000351063 0.000128196 -3.27877e-11 -6.07037e-11 2.22598e-12 5e-05 1.46608e-10 
11 1 0.0272568 0.0174191 0.00721058 0.00596593 -0.000473876 0.000185272 8.40183e-11 2.08601e-10 -4.76539e-11 5e-05 1.46608e-10 
12 1 0.0210204 0.0175513 0.00714539 0.0057952 -0.00185647 0.000459205 -1.66197e-10 -1.21932e-10 6.48429e-11 5e-05 1.46608e-10 
13 1 0.0267317 0.0163457 0.00783887 0.00544085 -0.000200586 0.000260969 4.02694e-11 2.60581e-11 -1.03607e-11 5e-05 1.46608e-10 
14 1 0.0207381 0.0163368 0.00775522 0.00524688 -0.00140397 0.00110623 5.46467e-12 -2.24846e-11 2.17955e-11 5e-05 1.46608e-10 
15 1 0.0270631 0.017357 0.00722255 0.00605671 -0.000453775 0.000181799 -1.77706e-10 -9.85147e-11 2.055e-11 5e-05 1.46608e-10 
16 1 0.0207186 0.0162552 0.00780972 0.0052415 -0.00140115 0.00110356 1.41653e-11 -6.79029e-11 4.64262e-11 5e-05 1.46608e-10 
17 1 0.0268481 0.0168037 0.0074694 0.00556769 -0.000344893 0.000126755 5.64723e-12 -2.94843e-11 3.80906e-11 5e-05 1.46608e-10 
18 1 0.0329289 0.0171795 0.00732526 0.00605471 -2.29985e-07 0.000275632 -4.70791e-12 1.09706e-12 -1.31614e-12 5e-05 1.46608e-10 
19 1 0.0267124 0.0162673 0.00789774 0.00542974 -0.000201893 0.00026025 5.07063e-11 4.77291e-11 -1.10841e-11 5e-05 1.46608e-10 
21 1 0.026846 0.01645 0.00776051 0.00546678 -0.000327889 0.000139784 2.81914e-11 -5.6255e-11 -6.96114e-11 5e-05 1.46608e-10 
22 1 0.0269661 0.0173258 0.00722857 0.00606908 -0.000433319 0.000176932 1.12977e-11 -2.99134e-11 -2.75676e-13 5e-05 1.46608e-10 
23 1 0.0212034 0.0179686 0.007083 0.00575374 -0.00183581 0.00047425 -1.55485e-11 1.1098e-10 -1.68612e-11 5e-05 1.46608e-10 
24 1 0.0329928 0.0174487 0.00720945 0.00613248 -1.2102e-05 0.000284158 6.68775e-12 7.102e-12 -6.19559e-12 5e-05 1.46608e-10 
25 1 0.0269066 0.0170392 0.00729431 0.00561064 -0.000343975 0.000150246 7.6472e-12 -7.59697e-11 2.93073e-11 5e-05 1.46608e-10 
26 1 0.0328699 0.0169094 0.00744166 0.005604 7.7017e-05 0.000220817 8.24425e-12 -1.66193e-11 8.5447e-12 5e-05 1.46608e-10 
27 1 0.0211068 0.0179371 0.00708527 0.00576108 -0.00183537 0.000500726 1.98665e-11 6.32561e-11 1.78754e-12 5e-05 1.46608e-10 
28 1 0.0271719 0.0178329 0.0071135 0.0060593 -0.000442202 0.000179269 1.11601e-10 1.63391e-10 -4.28564e-11 5e-05 1.46608e-10 
29 1 0.0266929 0.0161888 0.00795661 0.00541469 -0.000203737 0.000261326 -4.18295e-11 4.42721e-12 -1.358e-11 5e-05 1.46608e-10 
30 1 0.0272032 0.0175782 0.007173 0.00603677 -0.000465374 0.000184232 7.18119e-11 -1.18509e-10 2.82929e-11 5e-05 1.46608e-10 
31 1 0.0269455 0.0172304 0.00725044 0.00564169 -0.000345151 0.000150232 1.30716e-10 -1.12199e-10 2.35688e-11 5e-05 1.46608e-10 
32 1 0.0270413 0.0172618 0.00724435 0.00605683 -0.000441819 0.000179451 1.9167e-11 -6.52455e-12 -2.5895e-12 5e-05 1.46608e-10 
33 1 0.0328112 0.0166392 0.00755811 0.00563921 9.14442e-05 0.000216098 4.38984e-11 6.12648e-10 -2.66369e-10 5e-05 1.46608e-10 
34 1 0.026829 0.0167296 0.00753373 0.0055432 -0.00033427 0.000128185 1.14703e-10 1.06555e-10 1.81743e-10 5e-05 1.46608e-10 
35 1 0.0270207 0.0171664 0.00726624 0.00561988 -0.000364132 0.000155958 1.87879e-10 -1.55386e-10 4.44012e-11 5e-05 1.46608e-10 
36 1 0.0330994 0.0178975 0.00701643 0.00626664 -1.62661e-05 0.000292255 4.60302e-12 1.18269e-11 -6.39923e-12 5e-05 1.46608e-10 
37 1 0.0269814 0.0169787 0.00732172 0.0056014 -0.000352809 0.000147752 2.66771e-11 -1.82898e-10 2.43977e-13 5e-05 1.46608e-10 
38 1 0.027138 0.0172927 0.0072384 0.00604329 -0.000469859 0.000185788 -1.70517e-10 -5.35853e-11 9.23021e-12 5e-05 1.46608e-10 
39 1 0.0330141 0.0175385 0.00717085 0.00615789 -1.59209e-05 0.000286766 3.05811e-12 5.19599e-12 -2.55402e-12 5e-05 1.46608e-10 
41 1 0.02679 0.0165779 0.00765812 0.00550536 -0.000329685 0.000128149 1.43564e-11 6.46491e-11 6.49177e-11 5e-05 1.46608e-10 
42 1 0.0269878 0.0174209 0.00720677 0.00607118 -0.000435737 0.00017763 -3.41153e-11 -1.43619e-11 5.12188e-12 5e-05 1.46608e-10 
44 1 0.02716 0.0173878 0.00721661 0.00596269 -0.000456369 0.000180916 2.19904e-10 -1.23213e-10 2.49215e-11 5e-05 1.46608e-10 
45 1 0.0328307 0.0167293 0.0075193 0.00562787 7.4287e-05 0.000223166 3.53213e-11 7.4696e-11 -3.17587e-11 5e-05 1.46608e-10 
46 1 0.032909 0.0170895 0.00736403 0.00558232 8.04917e-05 0.000218225 -2.89297e-12 3.7179e-12 -1.51324e-12 5e-05 1.46608e-10 
47 1 0.0268097 0.0166541 0.0075964 0.00551712 -0.000330574 0.000128186 6.61762e-11 1.70507e-10 2.37965e-10 5e-05 1.46608e-10 
48 1 0.0270313 0.0176112 0.00716317 0.00606905 -0.000445321 0.000179913 4.79777e-11 2.02003e-11 -5.71437e-12 5e-05 1.46608e-10 
49 1 0.0328894 0.0169994 0.00740285 0.00559063 7.85868e-05 0.000219701 1.18486e-11 -4.72268e-11 1.87455e-11 5e-05 1.46608e-10 
50 1 0.0270964 0.0178966 0.00709777 0.0060637 -0.000457627 0.000182846 -1.46069e-11 -2.75585e-11 1.07421e-11 5e-05 1.46608e-10 
51 1 0.0270747 0.0178015 0.00711957 0.00606774 -0.000457007 0.000182623 1.56343e-11 -5.37423e-11 1.02242e-11 5e-05 1.46608e-10 
52 1 0.0209985 0.0174549 0.00716044 0.005809 -0.0018688 0.000429404 -1.43697e-10 -2.13982e-10 -3.56223e-12 5e-05 1.46608e-10 
53 1 0.0329502 0.0172692 0.00728666 0.00608063 -4.32819e-06 0.000278577 -2.39095e-13 -4.2314e-12 -1.54907e-12 5e-05 1.46608e-10 
54 1 0.0268265 0.0163725 0.00782057 0.00543141 -0.000217719 0.000271035 -4.42781e-11 3.77559e-11 -3.0211e-11 5e-05 1.46608e-10 
55 1 0.0207772 0.0164998 0.00764622 0.00528146 -0.00142022 0.00111744 -8.68858e-11 -2.01013e-11 2.07115e-11 5e-05 1.46608e-10 
56 1 0.0270013 0.0170707 0.00728818 0.00559956 -0.000354876 0.000152784 1.39377e-10 -1.78158e-10 5.76139e-11 5e-05 1.46608e-10 
57 1 0.0328503 0.0168193 0.00748048 0.00561553 7.48621e-05 0.000222354 5.39904e-12 3.97268e-12 -1.74518e-12 5e-05 1.46608e-10 
59 1 0.0270568 0.0169269 0.00736218 0.00560571 -0.000352237 0.000133425 6.41238e-13 -1.12981e-10 6.62517e-11 5e-05 1.46608e-10 
60 1 0.0270759 0.0170061 0.00730412 0.00559726 -0.000348647 0.000147544 4.56584e-11 -2.40634e-10 6.60425e-11 5e-05 1.46608e-10 
61 1 0.0267707 0.0165018 0.00771999 0.005488 -0.000318715 0.000128902 3.27311e-12 -8.61617e-11 -1.32119e-10 5e-05 1.46608e-10 
62 1 0.0271816 0.017483 0.0071948 0.00598 -0.000456394 0.000181258 -7.56773e-11 -5.68361e-11 1.06532e-11 5e-05 1.46608e-10 
63 1 0.0271285 0.0176426 0.0071571 0.00606146 -0.000446368 0.000179914 1.83378e-10 2.80819e-11 -5.34364e-12 5e-05 1.46608e-10 
64 1 0.0329715 0.017359 0.00724805 0.00610688 -8.10661e-06 0.000281003 -4.24609e-12 4.98765e-12 5.906e-12 5e-05 1.46608e-10 
65 1 0.0211167 0.0175829 0.00714357 0.00578979 -0.00182987 0.000496593 -1.59975e-10 -6.42999e-11 2.08417e-11 5e-05 1.46608e-10 
66 1 0.0210515 0.0172953 0.0071997 0.00571904 -0.00179013 0.000675104 1.18659e-10 -7.93255e-11 1.66909e-11 5e-05 1.46608e-10 
67 1 0.0272353 0.0173239 0.00723239 0.00596679 -0.00045702 0.000181092 1.20262e-10 2.2355e-10 -4.85279e-11 5e-05 1.46608e-10 
68 1 0.0272467 0.0177685 0.0071294 0.00605493 -0.000436154 0.000177851 1.01906e-12 1.28571e-10 -4.16405e-11 5e-05 1.46608e-10 
69 1 0.0269236 0.016752 0.00750983 0.00555888 -0.000347488 0.00012945 1.46935e-11 -3.06373e-11 -3.2849e-12 5e-05 1.46608e-10 
70 1 0.0330355 0.0176283 0.00713224 0.00618385 -1.75447e-05 0.000289038 -1.73538e-12 -2.78034e-12 1.07026e-11 5e-05 1.46608e-10 
71 1 0.0207576 0.0164183 0.00770072 0.00527042 -0.00141195 0.0011122 2.54252e-11 -1.47342e-11 5.49305e-13 5e-05 1.46608e-10 
72 1 0.027225 0.0176733 0.0071512 0.00604989 -0.000451047 0.000180958 1.20384e-11 4.98953e-11 -1.19019e-11 5e-05 1.46608e-10 
73 1 0.0268869 0.0169548 0.00734428 0.00560617 -0.000352906 0.000138534 4.22896e-12 -9.21232e-11 -4.19492e-11 5e-05 1.46608e-10 
74 1 0.027085 0.0174524 0.0072007 0.0060529 -0.000454371 0.000181724 -3.34859e-11 -3.5778e-11 7.58302e-12 5e-05 1.46608e-10 
76 1 0.0213529 0.0186465 0.00697106 0.00536029 -0.00175764 0.000447339 5.3514e-11 -2.21781e-10 4.41536e-11 5e-05 1.46608e-10 
77 1 0.0273566 0.0186218 0.00694177 0.00565073 -0.0004053 -9.90235e-05 -2.29817e-10 -4.31495e-11 5.57254e-12 5e-05 1.46608e-10 
78 1 0.0208361 0.0167444 0.00748277 0.00531392 -0.00142205 0.00111615 -6.67024e-11 7.07154e-12 -1.4503e-10 5e-05 1.46608e-10 
79 1 0.0210418 0.0176478 0.00713034 0.00578615 -0.00184692 0.000494916 -6.03714e-11 -9.90113e-11 2.77009e-11 5e-05 1.46608e-10 
80 1 0.0271617 0.0181824 0.00703279 0.00608433 -0.000385645 0.000107218 -1.07472e-10 -1.78168e-10 -3.64885e-10 5e-05 1.46608e-10 
81 1 0.0209768 0.0173584 0.00717541 0.00582726 -0.00187589 0.000430372 -3.63377e-10 -1.06539e-10 6.43523e-11 5e-05 1.46608e-10 
82 1 0.0211285 0.0180335 0.00706982 0.00575399 -0.00183254 0.000485226 -8.43169e-13 6.94826e-11 5.562e-11 5e-05 1.46608e-10 
83 1 0.0210932 0.0170674 0.00730645 0.00541484 -0.00162233 0.000600231 2.25215e-11 -1.90725e-11 -6.31352e-11 5e-05 1.46608e-10 
84 1 0.0330781 0.0178078 0.00705504 0.00623904 -1.61682e-05 0.000290895 -2.63129e-12 -1.4567e-12 1.91079e-12 5e-05 1.46608e-10 
85 1 0.0209284 0.016714 0.00750612 0.00532249 -0.00143738 0.00113101 -8.9791e-11 1.471e-10 -8.1972e-11 5e-05 1.46608e-10 
86 1 0.0271502 0.0177378 0.0071353 0.00605944 -0.000444565 0.000179728 9.47333e-11 9.02329e-11 -1.65904e-11 5e-05 1.46608e-10 
87 1 0.0270378 0.0168513 0.00742493 0.00559613 -0.000347727 0.000131764 -4.0945e-11 6.9313e-11 -1.82545e-11 5e-05 1.46608e-10 
88 1 0.0272262 0.0184695 0.00697414 0.00553326 -0.000342318 -0.000106554 3.77225e-10 7.72678e-11 -1.00401e-10 5e-05 1.46608e-10 
89 1 0.0271834 0.0182779 0.00701257 0.00608898 -0.000422857 -4.1978e-05 -2.37545e-10 -8.72663e-11 -2.15375e-10 5e-05 1.46608e-10 
90 1 0.027192 0.0171336 0.007276 0.00588873 -0.000420544 0.000171757 -5.93504e-11 4.50014e-11 -1.20307e-11 5e-05 1.46608e-10 
91 1 0.0210635 0.0177442 0.00711532 0.00577522 -0.00184094 0.000503287 1.28882e-11 -3.49566e-11 -4.65381e-12 5e-05 1.46608e-10 
92 1 0.02729 0.0179588 0.00708578 0.00601999 -0.000418678 0.000174065 -1.49078e-10 1.48005e-10 -8.84433e-11 5e-05 1.46608e-10 
93 1 0.0272808 0.0183092 0.00700478 0.00611411 -0.000402996 -4.51686e-05 -2.35999e-10 -8.48254e-11 -4.32538e-10 5e-05 1.46608e-10 
94 1 0.0273552 0.0182442 0.00702038 0.00609687 -0.000388275 0.000168703 -3.831e-10 1.92129e-10 -1.86289e-10 5e-05 1.46608e-10 
95 1 0.02714 0.0180872 0.0070541 0.00607351 -0.000383954 0.00016463 -3.85928e-11 -3.84008e-11 6.92422e-11 5e-05 1.46608e-10 
96 1 0.0273117 0.0180539 0.00706398 0.00602468 -0.000407893 0.000171019 -3.44916e-10 1.62026e-10 -5.47589e-11 5e-05 1.46608e-10 
97 1 0.0209346 0.017181 0.0072575 0.00554643 -0.00172537 0.000647856 -1.20372e-11 3.18151e-11 -2.55182e-11 5e-05 1.46608e-10 
98 1 0.0272462 0.0185657 0.00695562 0.00551188 -0.00034864 -0.000104247 1.62149e-10 1.48815e-10 -1.58107e-11 5e-05 1.46608e-10 
99 1 0.0210949 0.0174859 0.00715867 0.00579701 -0.00183889 0.000499127 -1.43864e-10 -6.43017e-11 -2.35162e-11 5e-05 1.46608e-10 
100 1 0.0271716 0.0170382 0.00729788 0.00567032 -0.000367048 0.000154002 -5.19958e-11 2.69974e-11 1.36859e-12 5e-05 1.46608e-10 
101 1 0.0210307 0.0172072 0.00724216 0.00548423 -0.00173936 0.000673724 6.07222e-11 -1.02526e-10 -1.38829e-10 5e-05 1.46608e-10 
102 1 0.0643568 0.0187248 0.00531097 4.3021e-15 1.0474e-14 8.29615e-14 1.84902e-21 -3.54809e-22 -5.39735e-23 5e-05 1.46608e-10 
103 1 0.24257 0.0191927 0.00520306 1.6328e-22 -1.27651e-22 1.23839e-22 0 0 0 5e-05 1.46608e-10 
104 1 0.0213647 0.0182886 0.00703255 0.00572172 -0.00181766 0.000468009 -1.62954e-10 3.33852e-11 -1.63274e-11 5e-05 1.46608e-10 
105 1 0.020895 0.0170032 0.00734304 0.00529691 -0.00168222 0.000651288 -2.74495e-12 -1.00883e-11 -1.45625e-10 5e-05 1.46608e-10 
106 1 0.0214383 0.0182223 0.00704591 0.00573796 -0.00182779 0.000470153 5.56164e-11 1.51495e-10 -2.34914e-11 5e-05 1.46608e-10 
107 1 0.0208557 0.016831 0.00743679 0.00531831 -0.00147693 0.00101752 -2.63334e-11 -2.02626e-10 -5.20026e-10 5e-05 1.46608e-10 
108 1 0.0269624 0.016903 0.00738454 0.00560353 -0.000352056 0.00013999 -3.6437e-11 -3.46143e-11 6.71448e-11 5e-05 1.46608e-10 
109 1 0.027053 0.0177063 0.00714137 0.00606599 -0.000452476 0.000181666 5.15326e-11 9.40017e-13 5.51983e-14 5e-05 1.46608e-10 
110 1 0.0273638 0.0178932 0.00710193 0.00602879 -0.00041507 0.000171664 -2.11316e-10 2.2441e-10 -2.85434e-11 5e-05 1.46608e-10 
111 1 0.0272847 0.0187584 0.00691857 0.00567143 -0.00041733 -9.81002e-05 8.09633e-11 3.07402e-10 -6.03591e-11 5e-05 1.46608e-10 
112 1 0.0209554 0.0172691 0.00721507 0.0058112 -0.00177328 0.000663528 5.11238e-11 -6.36248e-12 -2.96012e-11 5e-05 1.46608e-10 
113 1 0.0216032 0.0181156 0.00706867 0.00577936 -0.00179816 0.000466048 2.27011e-11 -7.48247e-11 1.11442e-11 5e-05 1.46608e-10 
114 1 0.0212996 0.0179996 0.00708015 0.005747 -0.00183763 0.000471444 -1.17273e-10 1.87295e-11 -2.79997e-11 5e-05 1.46608e-10 
115 1 0.0271067 0.0175475 0.0071789 0.00605729 -0.000448771 0.00018048 -3.90232e-11 -9.96732e-11 2.34531e-11 5e-05 1.46608e-10 
116 1 0.026943 0.0168275 0.00744718 0.00557047 -0.000357149 0.000133156 2.00714e-11 -4.04382e-11 -3.17283e-11 5e-05 1.46608e-10 
117 1 0.0268071 0.016294 0.00787944 0.00542788 -0.000216327 0.000272496 -5.46126e-11 4.03341e-11 -3.61822e-11 5e-05 1.46608e-10 
118 1 0.0207968 0.0165814 0.00759174 0.00529625 -0.00142253 0.00112068 -7.93466e-12 3.69845e-11 -2.51118e-11 5e-05 1.46608e-10 
119 1 0.0270961 0.017102 0.00728212 0.00560411 -0.000379432 0.000158555 1.36968e-10 -1.39339e-10 3.34263e-11 5e-05 1.46608e-10 
120 1 0.0266734 0.0161104 0.00801546 0.00555462 -0.000230356 0.000284218 8.14697e-11 -2.36443e-11 1.71075e-11 5e-05 1.46608e-10 
121 1 0.0266335 0.0159536 0.00813306 0.00552928 -0.000227676 0.000281737 -6.36287e-11 -6.18681e-11 4.4174e-11 5e-05 1.46608e-10 
122 1 0.0273855 0.0179884 0.00708013 0.00599847 -0.000423525 0.00017379 -4.95269e-10 1.74381e-10 -2.08592e-11 5e-05 1.46608e-10 
123 1 0.0209702 0.0169424 0.00736956 0.00531577 -0.00172322 0.00063863 -3.7845e-10 8.99597e-10 1.42854e-09 5e-05 1.46608e-10 
124 1 0.0272373 0.0181188 0.00704799 0.00605511 -0.000381522 0.000160475 -2.64807e-10 6.35684e-11 1.0125e-11 5e-05 1.46608e-10 
125 1 0.0267876 0.0162154 0.0079384 0.00541967 -0.000212932 0.000268362 -5.30429e-11 1.15662e-11 -9.2646e-12 5e-05 1.46608e-10 
126 1 0.0270095 0.017516 0.00718497 0.00607121 -0.000438321 0.000178183 -1.76635e-11 4.86353e-13 -1.12962e-12 5e-05 1.46608e-10 
127 1 0.0209148 0.0170927 0.0073 0.00529808 -0.00168337 0.000639176 6.48837e-11 1.40542e-10 -1.05657e-10 5e-05 1.46608e-10 
128 1 0.0271182 0.017992 0.00707591 0.00607161 -0.000455442 0.00018218 -7.2608e-11 -1.41389e-10 3.02084e-11 5e-05 1.46608e-10 
129 1 0.0272052 0.0183735 0.00699265 0.00607514 -0.00045406 -0.000119117 4.92666e-11 9.89462e-11 -6.88553e-11 5e-05 1.46608e-10 
130 1 0.0212251 0.0180649 0.00706693 0.00574799 -0.00183056 0.000466892 -7.39331e-11 5.2262e-11 3.04903e-11 5e-05 1.46608e-10 
131 1 0.0210729 0.0173895 0.00717418 0.00581529 -0.00182972 0.000586479 -1.71177e-11 -1.12941e-10 -1.67656e-10 5e-05 1.46608e-10 
132 1 0.0272152 0.0180232 0.00706989 0.00604167 -0.00040999 0.000169818 -1.32989e-11 2.12819e-10 -6.29391e-11 5e-05 1.46608e-10 
133 1 0.0269604 0.0165492 0.00767568 0.00548047 -0.000355736 0.000141653 2.26166e-12 -7.74349e-11 -1.16956e-10 5e-05 1.46608e-10 
134 1 0.0271162 0.0171975 0.00726022 0.00603696 -0.00046514 0.000185125 2.25135e-11 -7.22779e-11 1.90234e-11 5e-05 1.46608e-10 
135 1 0.0267681 0.0161369 0.00799729 0.00542065 -0.000202182 0.00026048 -8.73331e-11 -5.27715e-12 3.11904e-14 5e-05 1.46608e-10 
136 1 0.0209089 0.0166324 0.00756061 0.00531119 -0.0014346 0.00112878 -9.9815e-11 8.14942e-11 5.27252e-11 5e-05 1.46608e-10 
137 1 0.0273043 0.0188547 0.00690004 0.00570955 -0.00046533 -8.98682e-05 -5.71945e-11 -1.71045e-10 2.4234e-11 5e-05 1.46608e-10 
138 1 0.0269043 0.0166764 0.00757255 0.00552356 -0.000351573 0.000129292 1.18419e-11 -5.0253e-11 -6.61867e-11 5e-05 1.46608e-10 
140 1 0.0274072 0.0180835 0.00705833 0.00600736 -0.000429657 0.000175362 -3.16418e-10 2.05574e-10 -4.3109e-11 5e-05 1.46608e-10 
141 1 0.020948 0.0167955 0.00745162 0.0053451 -0.00142803 0.00114763 6.55215e-11 1.35566e-10 7.4554e-11 5e-05 1.46608e-10 
142 1 0.0213213 0.0180959 0.00706428 0.00572686 -0.00182067 0.000468252 -9.24133e-11 -9.24442e-12 1.12812e-12 5e-05 1.46608e-10 
143 1 0.0208753 0.0169161 0.00738802 0.00530633 -0.00159272 0.000815745 3.34671e-11 -9.23453e-11 -3.45566e-10 5e-05 1.46608e-10 
144 1 0.0212779 0.0179032 0.00709601 0.00574717 -0.00183754 0.000471832 -9.89932e-11 6.85723e-11 1.33071e-11 5e-05 1.46608e-10 
146 1 0.021126 0.0172341 0.00722641 0.00555849 -0.00195753 0.000755441 6.88602e-11 -6.49896e-11 5.10881e-11 5e-05 1.46608e-10 
147 1 0.0208891 0.0165509 0.00761508 0.00529304 -0.00143499 0.00112684 -1.71781e-10 8.05437e-13 1.23362e-11 5e-05 1.46608e-10 
148 1 0.0211935 0.0183224 0.00702206 0.00572527 -0.00182995 0.000469193 -4.76429e-11 -7.17947e-11 2.7096e-11 5e-05 1.46608e-10 
149 1 0.0274809 0.0180178 0.00707449 0.00597762 -0.000465489 0.000183291 6.28139e-11 4.13462e-10 -9.75916e-11 5e-05 1.46608e-10 
150 1 0.0211698 0.017421 0.00717189 0.00580697 -0.00182308 0.00050365 -2.78385e-11 3.69636e-11 1.64184e-11 5e-05 1.46608e-10 
151 1 0.0214903 0.0180597 0.00707512 0.00572685 -0.00177986 0.000461606 1.8644e-10 -1.4726e-10 3.34345e-11 5e-05 1.46608e-10 
153 1 0.0210103 0.017119 0.00728461 0.00534247 -0.00171449 0.000662882 2.55513e-11 -6.73652e-11 -1.96928e-10 5e-05 1.46608e-10 
154 1 0.0212901 0.0183539 0.00701934 0.00571688 -0.00182633 0.000469107 -1.36149e-10 -1.01241e-10 5.32636e-12 5e-05 1.46608e-10 
155 1 0.0213745 0.0187433 0.00695512 0.00535248 -0.0018268 0.000459079 3.95609e-11 6.79514e-11 -1.34095e-11 5e-05 1.46608e-10 
156 1 0.0212684 0.0182576 0.00703521 0.00573225 -0.00181519 0.000467185 -5.02907e-11 -6.05584e-11 4.85399e-12 5e-05 1.46608e-10 
157 1 0.0219312 0.0187687 0.00551176 -3.82764e-14 8.16868e-14 2.9589e-13 -2.28457e-22 -1.76913e-22 1.65436e-23 5e-05 1.46608e-10 
158 1 0.0213859 0.0183851 0.00701664 0.00544933 -0.00170306 0.000441046 2.35667e-10 4.46744e-10 -7.46332e-11 5e-05 1.46608e-10 
159 1 0.0272683 0.0178636 0.00710759 0.00603583 -0.000427123 0.000174975 -2.09872e-11 1.36043e-10 -2.30571e-11 5e-05 1.46608e-10 
160 1 0.0212751 0.018708 0.00695841 0.0053651 -0.00176946 0.000449114 9.80961e-11 -6.21236e-11 2.6649e-11 5e-05 1.46608e-10 
162 1 0.0213113 0.0184503 0.00700344 0.00540978 -0.00176195 0.000449287 -3.03372e-10 -4.14922e-11 -1.26599e-11 5e-05 1.46608e-10 
164 1 0.0215355 0.0190808 0.00690187 0.00534416 -0.00175629 0.00044677 -1.92372e-10 -3.54325e-11 7.66401e-13 5e-05 1.46608e-10 
165 1 0.0216136 0.0183144 0.00703498 0.00557043 -0.00154636 0.000417166 -3.53071e-11 1.04529e-10 -2.7079e-11 5e-05 1.46608e-10 
166 1 0.0269214 0.0163982 0.00780097 0.00544727 -0.000349788 0.000136699 3.16516e-11 -1.86138e-12 -5.04345e-11 5e-05 1.46608e-10 
167 1 0.0211479 0.0173247 0.00718753 0.00581725 -0.00181036 0.000589829 3.02518e-12 6.88099e-11 -2.95461e-11 5e-05 1.46608e-10 
168 1 0.0214599 0.0183191 0.00702995 0.00560193 -0.00153384 0.000416249 -1.95368e-10 -4.64352e-10 7.30937e-11 5e-05 1.46608e-10 
169 1 0.0216249 0.0182123 0.00705273 0.00551094 -0.00159706 0.000424385 -1.33757e-10 -4.87619e-11 3.68865e-12 5e-05 1.46608e-10 
170 1 0.0215056 0.0184744 0.00700468 0.00537789 -0.00168183 0.000435246 1.32176e-10 -7.82655e-11 1.51867e-11 5e-05 1.46608e-10 
171 1 0.0269407 0.0164737 0.00773831 0.00546025 -0.000352674 0.000137376 8.01525e-12 8.31734e-12 -2.43782e-11 5e-05 1.46608e-10 
172 1 0.0215345 0.0182539 0.00704315 0.00556962 -0.00152588 0.000413843 2.3001e-10 1.12787e-10 -1.01403e-11 5e-05 1.46608e-10 
173 1 0.0272535 0.0169825 0.00731182 0.00563811 -0.000403383 0.000163559 -1.5489e-10 -4.6751e-12 -8.50133e-12 5e-05 1.46608e-10 
174 1 0.0214256 0.0185792 0.00698457 0.00536171 -0.00175083 0.000446486 6.91711e-11 -4.56928e-11 4.62901e-12 5e-05 1.46608e-10 
175 1 0.0165691 0.0202176 0.00713217 2.03109e-14 -2.6494e-14 2.77686e-13 -3.25702e-24 -2.92098e-24 0 5e-05 1.46608e-10 
176 1 0.0212468 0.0181612 0.00705107 0.00572927 -0.00182331 0.000467228 -5.76947e-11 1.04942e-11 3.68037e-12 5e-05 1.46608e-10 
177 1 0.0213146 0.0189014 0.00692645 0.00544096 -0.00177905 0.000453686 -1.18108e-11 -2.8139e-11 1.53422e-11 5e-05 1.46608e-10 
178 1 0.0215813 0.0180193 0.00708453 0.00571616 -0.00178646 0.000462352 3.61434e-10 -1.91359e-10 4.14772e-11 5e-05 1.46608e-10 
179 1 0.0216047 0.0184618 0.00700955 0.00548032 -0.000975457 0.000317366 1.57362e-10 -1.43576e-10 2.93282e-11 5e-05 1.46608e-10 
181 1 0.0212362 0.0185162 0.00699877 0.00541196 -0.00177651 0.000447927 -3.45376e-10 4.27889e-11 -2.63687e-11 5e-05 1.46608e-10 
182 1 0.026885 0.0166009 0.00763521 0.00549785 -0.000344593 0.000128355 -3.294e-12 1.28535e-10 1.09815e-10 5e-05 1.46608e-10 
183 1 0.0215418 0.0183827 0.00702135 0.00548824 -0.00163591 0.000430649 -1.09776e-11 2.03451e-11 4.9747e-12 5e-05 1.46608e-10 
184 1 0.0272214 0.0178606 0.00719587 0.00605689 -0.000435494 0.000179979 8.53787e-11 9.01687e-12 4.1512e-11 5e-05 1.46608e-10 
185 1 0.0211718 0.0182261 0.00703792 0.00573409 -0.00182866 0.000465521 -4.16995e-11 -3.01576e-11 3.25968e-11 5e-05 1.46608e-10 
186 1 0.0212152 0.0184188 0.00700619 0.00571246 -0.0018345 0.000471038 -2.3827e-11 -7.72541e-11 5.69805e-12 5e-05 1.46608e-10 
187 1 0.0271517 0.01695 0.00734056 0.00561009 -0.000355516 0.000138754 -4.16702e-11 -5.51296e-12 5.17119e-13 5e-05 1.46608e-10 
188 1 0.0274289 0.0181786 0.00703652 0.00606495 -0.000424674 0.00017559 -4.57972e-10 2.36648e-10 -8.57725e-11 5e-05 1.46608e-10 
189 1 0.0270831 0.0169446 0.00745705 0.00562479 -0.000373688 0.000131023 -1.58335e-11 1.36367e-10 4.59926e-11 5e-05 1.46608e-10 
190 1 0.0167505 0.0200214 0.00710019 2.03103e-14 -2.64943e-14 2.77686e-13 -2.84343e-25 -1.39587e-24 -2.06795e-25 5e-05 1.46608e-10 
191 1 0.0273238 0.018951 0.00688152 0.00574987 -0.000467847 -9.05805e-05 -3.7549e-11 -1.90775e-10 3.93569e-11 5e-05 1.46608e-10 
192 1 0.021395 0.0180296 0.00707764 0.00573252 -0.00182111 0.000468784 -2.40097e-10 -3.06752e-11 -9.48172e-12 5e-05 1.46608e-10 
193 1 0.0270184 0.0167758 0.00748761 0.00556079 -0.000357933 0.00014044 8.74694e-11 5.47382e-12 4.3504e-12 5e-05 1.46608e-10 
194 1 0.0212129 0.017614 0.00714183 0.00578124 -0.00182671 0.000500428 6.47879e-11 6.23207e-11 -2.0012e-11 5e-05 1.46608e-10 
195 1 0.0217064 0.0182782 0.00704372 0.00562392 -0.00140467 0.000394685 -6.66755e-11 -4.91684e-11 9.00409e-12 5e-05 1.46608e-10 
196 1 0.0206991 0.0161737 0.00786422 0.00524025 -0.00139701 0.00110117 -1.57715e-11 -1.11568e-10 7.14984e-11 5e-05 1.46608e-10 
197 1 0.0172161 0.0200183 0.00706584 2.03097e-14 -2.64946e-14 2.77687e-13 -1.13737e-23 -6.46235e-24 0 5e-05 1.46608e-10 
198 1 0.0210851 0.0178407 0.0071003 0.00576849 -0.00183851 0.000502821 9.76358e-12 2.48142e-11 -1.25822e-11 5e-05 1.46608e-10 
199 1 0.0213309 0.0185471 0.00698745 0.00540167 -0.00176155 0.00044892 1.44907e-10 -7.99016e-11 9.55818e-12 5e-05 1.46608e-10 
200 1 0.0211817 0.0178722 0.0070985 0.00576225 -0.00183384 0.000501252 1.57702e-11 1.0428e-10 -1.29861e-11 5e-05 1.46608e-10 
201 1 0.0216601 0.0189352 0.00693019 0.00541815 -0.00170446 0.000440178 -1.01192e-10 -8.04557e-11 4.09278e-12 5e-05 1.46608e-10 
202 1 0.0214167 0.0181259 0.00706177 0.00571985 -0.00180306 0.000465469 8.89381e-11 1.19829e-11 -1.06864e-12 5e-05 1.46608e-10 
203 1 0.0272747 0.0170792 0.00728967 0.00567931 -0.000732757 0.000241659 8.3539e-11 1.69501e-10 -3.94981e-11 5e-05 1.46608e-10 
204 1 0.0211601 0.0177758 0.00711352 0.00576905 -0.00183474 0.000501237 5.55597e-11 8.36346e-11 5.83188e-12 5e-05 1.46608e-10 
205 1 0.0215613 0.018778 0.00695432 0.00542658 -0.00179744 0.000456266 1.16793e-10 -7.61517e-11 7.16508e-12 5e-05 1.46608e-10 
206 1 0.021507 0.0186367 0.00697698 0.00302545 0.00145466 -0.000165338 -3.10929e-13 1.35874e-10 -2.21564e-11 5e-05 1.46608e-10 
207 1 0.0209897 0.0170308 0.00732704 0.00529832 -0.00171014 0.000652336 3.1078e-11 5.28576e-11 8.57178e-11 5e-05 1.46608e-10 
208 1 0.021406 0.0184824 0.00700057 0.00538111 -0.0017623 0.000449052 1.99076e-10 -6.0633e-11 9.26061e-12 5e-05 1.46608e-10 
209 1 0.0211913 0.0175175 0.00715685 0.00579262 -0.00182302 0.00049913 -7.53974e-11 5.85108e-11 -2.28613e-11 5e-05 1.46608e-10 
210 1 0.0269425 0.0172006 0.00734585 0.00558592 -0.000331862 0.000151481 -1.65878e-10 -8.60357e-11 3.16462e-11 5e-05 1.46608e-10 
211 1 0.0273335 0.0181491 0.00704218 0.00604927 -0.000396215 0.000169091 -3.73009e-10 1.71477e-10 -3.56017e-11 5e-05 1.46608e-10 
212 1 0.0215637 0.0185549 0.00699252 0.00143946 0.00105741 -0.000141108 -4.71718e-11 4.0368e-11 -8.29661e-12 5e-05 1.46608e-10 
213 1 0.0271327 0.0168744 0.00740325 0.00555992 -0.000341777 0.000125152 1.95944e-10 2.15859e-11 -3.08684e-11 5e-05 1.46608e-10 
214 1 0.0272591 0.0182139 0.00702619 0.00607217 -0.000383999 0.000160862 -3.09615e-10 8.13252e-11 -2.63762e-11 5e-05 1.46608e-10 
215 1 0.0165568 0.0199459 0.00710715 -1.91981e-15 2.50488e-15 -2.62516e-14 -2.02918e-24 -2.32645e-25 0 5e-05 1.46608e-10 
216 1 0.0212964 0.0188044 0.00694253 0.00539276 -0.00177444 0.000450672 7.23084e-11 -2.19374e-11 7.36088e-12 5e-05 1.46608e-10 
217 1 0.0269798 0.0166248 0.00761293 0.00551641 -0.000353767 0.000138351 9.95698e-11 -3.98393e-11 1.05312e-11 5e-05 1.46608e-10 
218 1 0.0214143 0.0188937 0.00693051 0.00544251 -0.00179048 0.000455528 3.58861e-13 -2.89001e-11 7.20917e-12 5e-05 1.46608e-10 
219 1 0.0272652 0.0186621 0.00693709 0.0056483 -0.000389715 -0.00010245 1.38393e-11 2.10153e-10 -3.1317e-11 5e-05 1.46608e-10 
220 1 0.0212554 0.0186113 0.0069744 0.00540062 -0.00177507 0.000451303 1.78264e-10 -7.62287e-11 1.87363e-11 5e-05 1.46608e-10 
221 1 0.0161098 0.0200529 0.00713733 8.37557e-17 -5.58707e-15 4.60499e-14 4.72029e-21 -2.01173e-21 -2.6263e-22 5e-05 1.46608e-10 
222 1 0.026999 0.0167003 0.00755026 0.00554192 -0.000356018 0.000137119 5.75775e-11 -1.40257e-11 -8.69623e-12 5e-05 1.46608e-10 
223 1 0.021343 0.0181922 0.00704842 0.00572875 -0.00180816 0.00046644 2.54095e-11 2.44158e-13 -5.82361e-12 5e-05 1.46608e-10 
224 1 0.0211502 0.0181298 0.00705384 0.00574487 -0.00183099 0.00046755 -2.96517e-11 1.79503e-11 2.98876e-11 5e-05 1.46608e-10 
225 1 0.0273088 0.0172581 0.00724859 0.00600894 -0.000306839 0.000146778 8.67059e-11 5.56211e-11 -1.70035e-11 5e-05 1.46608e-10 
226 1 0.0215125 0.0181565 0.00705918 0.00574883 -0.00183861 0.000472353 1.06297e-10 1.39125e-10 -1.64562e-11 5e-05 1.46608e-10 
227 1 0.0174018 0.0142478 0.0116953 0.000293632 -0.000569007 0.00135067 1.00348e-11 -2.13768e-11 5.04856e-11 5e-05 1.46608e-10 
228 1 0.0164404 0.0203977 0.00715878 -1.92118e-15 2.50451e-15 -2.62516e-14 -9.46088e-24 -5.22158e-24 2.06795e-25 5e-05 1.46608e-10 
229 1 0.0209365 0.017079 0.00739664 0.00533104 -0.00172611 0.000648668 -2.07825e-10 1.3628e-10 -5.55179e-11 5e-05 1.46608e-10 
230 1 0.0215531 0.0192036 0.00688138 0.00534785 -0.00176661 0.000451639 1.57782e-10 2.64641e-11 8.36442e-12 5e-05 1.46608e-10 
231 1 0.0166435 0.0200524 0.00711097 -1.91986e-15 2.50489e-15 -2.62516e-14 1.78361e-24 3.87741e-25 0 5e-05 1.46608e-10 
232 1 0.0210114 0.016865 0.00741765 0.00536154 -0.00156409 0.000878114 -1.37177e-10 2.43887e-10 3.88796e-12 5e-05 1.46608e-10 
233 1 0.0212346 0.0177104 0.0071268 0.00576985 -0.00183134 0.000499624 1.23755e-10 1.27009e-10 -2.51841e-11 5e-05 1.46608e-10 
234 1 0.0275026 0.018113 0.00705269 0.00602862 -0.000462409 0.000184181 -5.5976e-10 1.54144e-10 -4.33637e-11 5e-05 1.46608e-10 
235 1 0.0216801 0.0192913 0.00686988 0.00554054 -0.000522288 0.000241516 -2.46101e-10 8.84888e-11 -1.45581e-11 5e-05 1.46608e-10 
236 1 0.0215805 0.0192985 0.00686591 0.00543814 -0.00178919 0.000456308 -1.07261e-10 3.91723e-11 -8.53824e-12 5e-05 1.46608e-10 
237 1 0.0217282 0.0191389 0.00689724 0.00537067 -0.000404913 0.000216959 -9.07167e-11 1.02357e-11 -2.48126e-12 5e-05 1.46608e-10 
239 1 0.0154486 0.0195444 0.00707763 0.00440735 -0.00496347 -0.000621795 2.6276e-13 -6.46716e-13 -7.97798e-14 5e-05 1.46608e-10 
240 1 0.0155268 0.0199315 0.00712461 0.0046565 -0.00518503 -0.000649736 9.59974e-14 -2.57204e-12 -2.96514e-13 5e-05 1.46608e-10 
241 1 0.0154283 0.0194435 0.00706538 0.00439528 -0.0049557 -0.000620802 3.41222e-13 -7.88564e-13 -9.91011e-14 5e-05 1.46608e-10 
242 1 0.0214613 0.0178622 0.00710807 0.005734 -0.00183367 0.000471162 -1.17548e-11 1.20527e-10 -2.97974e-11 5e-05 1.46608e-10 
243 1 0.0211384 0.0176793 0.00712854 0.00577652 -0.00183468 0.000501573 1.05191e-10 6.46199e-11 -3.7923e-11 5e-05 1.46608e-10 
244 1 0.0154746 0.0196738 0.00709333 0.00442357 -0.00496964 -0.000622606 1.3497e-13 -5.33232e-13 -6.53481e-14 5e-05 1.46608e-10 
246 1 0.0159982 0.0203094 0.00716906 3.31326e-16 -1.12794e-14 9.2385e-14 -6.0423e-25 0 0 5e-05 1.46608e-10 
247 1 0.0215108 0.0189197 0.00692872 0.0054429 -0.00177303 0.000452607 -6.01618e-11 -4.57557e-11 -1.29068e-12 5e-05 1.46608e-10 