ITEM: TIMESTEP
31600000
ITEM: NUMBER OF ATOMS
271
ITEM: BOX BOUNDS ff ff ff
-0.02 0.43
-0.02 0.06
-0.02 0.07
ITEM: ATOMS id type x y z vx vy vz fx fy fz radius mass 
1 1 0.196741 0.0155249 0.008698 0.00557997 0.000769067 5.20269e-05 -4.05312e-11 -3.10288e-11 2.95917e-11 5e-05 1.46608e-10 
2 1 0.197631 0.0179066 0.00695886 0.00568815 0.000287117 2.93694e-05 2.23791e-12 7.09229e-12 -2.39001e-11 5e-05 1.46608e-10 
3 1 0.19168 0.0177329 0.00707704 0.00550556 6.65567e-05 -0.000132087 -1.15413e-10 -1.14443e-11 9.92625e-12 5e-05 1.46608e-10 
4 1 0.19767 0.0176671 0.00706166 0.0058043 0.000199395 -0.000249622 3.66156e-11 2.9009e-11 -1.42915e-11 5e-05 1.46608e-10 
5 1 0.196721 0.0154839 0.00878699 0.0055634 0.000761086 3.81076e-05 4.62133e-12 -3.73055e-11 6.62139e-11 5e-05 1.46608e-10 
6 1 0.203222 0.0172728 0.00738156 0.00613279 0.000189787 -0.000472151 3.95701e-11 1.56716e-10 -9.04408e-11 5e-05 1.46608e-10 
7 1 0.196816 0.0156902 0.0083424 0.00570312 0.000578103 -1.49096e-05 7.65372e-12 4.90626e-11 1.06159e-10 5e-05 1.46608e-10 
8 1 0.196702 0.0154444 0.00887695 0.00556366 0.00076253 3.0634e-05 9.56152e-11 -5.07609e-11 1.14362e-10 5e-05 1.46608e-10 
9 1 0.203339 0.0177832 0.00708775 0.00538702 0.000126809 -0.00039306 -5.63901e-10 6.02823e-10 -2.93232e-10 5e-05 1.46608e-10 
10 1 0.197291 0.017556 0.00713219 0.00564201 0.000226174 -0.000259911 -7.529e-11 -4.51618e-11 2.95695e-12 5e-05 1.46608e-10 
11 1 0.197423 0.0177557 0.00702002 0.00564155 0.000214343 -0.000218376 -4.49054e-12 -5.44154e-11 -1.33278e-10 5e-05 1.46608e-10 
12 1 0.190815 0.015661 0.00837582 0.00569332 -0.000280785 -0.000434825 -2.29331e-10 4.48121e-11 -4.53962e-11 5e-05 1.46608e-10 
13 1 0.196647 0.0153262 0.00914706 0.00551849 0.000761643 1.03247e-05 1.76922e-10 -7.00214e-11 1.81414e-10 5e-05 1.46608e-10 
14 1 0.191476 0.018454 0.00685439 0.00569022 2.30236e-05 -0.000119974 -1.60838e-10 1.30051e-10 -4.25038e-11 5e-05 1.46608e-10 
15 1 0.197651 0.0175811 0.00710966 0.00589136 0.00019724 -0.000250776 5.50707e-11 2.73163e-11 -2.1665e-11 5e-05 1.46608e-10 
16 1 0.191571 0.0184877 0.00685459 0.00573061 0.000112414 6.93993e-05 3.34874e-11 2.30801e-11 1.54671e-12 5e-05 1.46608e-10 
17 1 0.197689 0.0177532 0.00701355 0.00568589 0.000167242 -0.000231266 -2.47211e-11 8.49388e-11 2.3634e-11 5e-05 1.46608e-10 
19 1 0.196684 0.015405 0.00896704 0.00558582 0.000764647 3.06249e-05 -6.70957e-11 -3.141e-11 1.03431e-10 5e-05 1.46608e-10 
21 1 0.197253 0.0173846 0.00722792 0.00585412 0.000180511 -0.000240057 -3.37362e-11 9.17459e-11 -6.25789e-11 5e-05 1.46608e-10 
22 1 0.197461 0.0175253 0.00714509 0.0058868 0.000150036 -0.000224313 -1.27169e-11 3.65219e-11 -1.92832e-11 5e-05 1.46608e-10 
23 1 0.19105 0.0162292 0.00793816 0.00611703 -0.000175807 -0.000177818 5.65041e-11 3.6009e-11 -3.19079e-11 5e-05 1.46608e-10 
24 1 0.203412 0.0181366 0.00693081 0.00561091 0.000103707 0.000214022 -3.0888e-10 5.85087e-10 -2.40321e-10 5e-05 1.46608e-10 
25 1 0.19688 0.0158777 0.00811887 0.00602522 -2.60933e-06 -0.000333459 -9.6139e-11 -1.3139e-11 2.07012e-11 5e-05 1.46608e-10 
26 1 0.203302 0.0176128 0.00718571 0.00577302 -6.63307e-05 -0.000305673 1.39755e-11 1.9345e-10 -1.27093e-10 5e-05 1.46608e-10 
27 1 0.191795 0.0178575 0.00703559 0.00554709 2.19598e-05 -0.000116462 -5.5421e-11 -7.3782e-11 2.87401e-11 5e-05 1.46608e-10 
28 1 0.197594 0.0177254 0.00703379 0.0057618 0.000203511 -0.000130392 3.31213e-11 2.25883e-11 -4.13871e-11 5e-05 1.46608e-10 
29 1 0.196835 0.0157439 0.00826024 0.0057208 0.000223917 -0.000239331 -1.03949e-11 4.13063e-11 1.04811e-10 5e-05 1.46608e-10 
30 1 0.197346 0.0178135 0.00698843 0.00579662 0.000208627 -0.000256283 -1.89012e-11 5.83343e-11 -3.59309e-11 5e-05 1.46608e-10 
31 1 0.196896 0.0159505 0.00805219 0.00622045 -1.4869e-05 -0.000295708 -5.56663e-11 -1.35918e-11 1.46197e-11 5e-05 1.46608e-10 
32 1 0.197345 0.0170108 0.00743251 0.00577396 0.00026323 -0.000283936 -1.30925e-10 6.93441e-11 -1.84305e-11 5e-05 1.46608e-10 
33 1 0.203243 0.0173577 0.00733258 0.00577265 0.000481948 -0.000614882 3.11306e-11 1.30388e-10 -7.5133e-11 5e-05 1.46608e-10 
34 1 0.196796 0.0156415 0.00842749 0.00570041 0.000760336 8.59068e-05 -5.3578e-12 -1.57958e-11 4.61467e-11 5e-05 1.46608e-10 
35 1 0.197498 0.0172954 0.00727141 0.00587229 0.000184896 -0.000243266 -7.72927e-11 8.28728e-11 -4.46678e-11 5e-05 1.46608e-10 
36 1 0.203393 0.018039 0.00694074 0.00544716 0.000155301 -0.000221022 -1.08868e-09 -8.20339e-10 1.83704e-09 5e-05 1.46608e-10 
37 1 0.197538 0.0183267 0.00689225 0.00570632 0.000289727 2.85106e-05 6.26723e-13 2.14907e-11 -3.75068e-12 5e-05 1.46608e-10 
38 1 0.197597 0.0186176 0.00684771 0.00577825 0.000263952 3.35342e-05 -2.8877e-11 -2.09868e-11 2.96108e-12 5e-05 1.46608e-10 
39 1 0.203432 0.0182345 0.0069241 0.00561367 4.46619e-05 0.000248989 -1.26394e-11 1.90971e-10 2.82943e-11 5e-05 1.46608e-10 
41 1 0.197706 0.0178415 0.00696996 0.00570764 0.000297843 2.79437e-05 4.68374e-11 1.58927e-12 -9.15261e-12 5e-05 1.46608e-10 
42 1 0.321436 0.0173475 0.00552525 4.57339e-16 2.25532e-15 8.4636e-14 1.5117e-23 2.08088e-24 -2.06795e-25 5e-05 1.46608e-10 
44 1 0.197612 0.0178137 0.00699062 0.00570861 0.000263043 -2.70515e-05 -9.99646e-12 1.48353e-11 -8.42171e-11 5e-05 1.46608e-10 
45 1 0.203263 0.0174428 0.00728359 0.0056795 -9.19661e-05 -0.000288142 1.8457e-10 1.27658e-10 -7.36066e-11 5e-05 1.46608e-10 
47 1 0.196759 0.0155628 0.00860725 0.00569114 0.00072661 6.19075e-05 4.9114e-11 -1.77288e-11 4.19881e-11 5e-05 1.46608e-10 
48 1 0.197577 0.0185206 0.00686256 0.00576918 0.000283281 3.04524e-05 3.25602e-11 5.14103e-11 -6.52192e-12 5e-05 1.46608e-10 
50 1 0.19694 0.0160915 0.00791783 0.00622982 6.8057e-05 -0.000195221 6.05188e-12 2.22935e-11 3.07464e-11 5e-05 1.46608e-10 
51 1 0.196915 0.0160196 0.00798243 0.00626101 -4.1255e-05 -0.000307632 -1.45761e-12 -1.05164e-11 1.34675e-11 5e-05 1.46608e-10 
52 1 0.19073 0.0154028 0.00866149 0.00571923 -0.000505992 -0.000417425 -1.5555e-11 -1.27004e-10 -7.06194e-11 5e-05 1.46608e-10 
53 1 0.203375 0.0179537 0.00698975 0.00572491 7.019e-05 -0.000383289 -2.3601e-11 2.93452e-10 -1.41808e-10 5e-05 1.46608e-10 
54 1 0.197424 0.0181976 0.00691086 0.00570319 0.000307053 2.58889e-05 -5.49362e-12 -2.2642e-11 4.61209e-12 5e-05 1.46608e-10 
55 1 0.190673 0.0152886 0.00893295 0.00554132 0.000278159 -0.0001552 1.5766e-10 4.89883e-11 -1.6961e-10 5e-05 1.46608e-10 
56 1 0.197558 0.0184236 0.0068774 0.00571482 0.000290845 2.85519e-05 -2.62652e-12 3.15418e-11 -6.0058e-12 5e-05 1.46608e-10 
57 1 0.203282 0.0175278 0.00723465 0.00573437 -8.25553e-05 -0.000294266 -4.22521e-11 1.91856e-10 -9.94471e-11 5e-05 1.46608e-10 
59 1 0.197442 0.0174396 0.00719296 0.00587161 0.000156487 -0.000227388 -4.24884e-11 3.18824e-11 -1.62589e-11 5e-05 1.46608e-10 
61 1 0.197227 0.0168971 0.00749825 0.005845 0.000246107 -0.000277198 -2.39476e-10 2.15296e-10 -6.08863e-11 5e-05 1.46608e-10 
62 1 0.197823 0.0184226 0.00688098 0.00572703 0.000207616 4.16541e-05 -6.666e-12 -1.3805e-11 2.63949e-12 5e-05 1.46608e-10 
63 1 0.197632 0.017495 0.0071578 0.00588839 0.000142162 -0.000219665 8.37025e-11 9.34712e-11 -5.33461e-11 5e-05 1.46608e-10 
64 1 0.203451 0.0183323 0.00691739 0.00561507 3.81073e-05 0.000250295 -4.99284e-11 -4.57911e-10 3.06125e-11 5e-05 1.46608e-10 
65 1 0.190998 0.0163621 0.00784275 0.00613908 -0.000174929 -0.000179567 -3.74858e-11 -1.38272e-11 2.94423e-11 5e-05 1.46608e-10 
66 1 0.190654 0.0152488 0.00902265 0.00554109 0.000278308 -0.000159005 5.02074e-11 6.47719e-11 -2.08121e-10 5e-05 1.46608e-10 
67 1 0.197575 0.0180678 0.00693303 0.00570074 0.000289996 2.85877e-05 -6.5286e-11 -5.22519e-12 -3.59815e-12 5e-05 1.46608e-10 
68 1 0.197384 0.0171824 0.00733663 0.00572519 0.000136408 -0.000213156 -1.61696e-10 1.06555e-10 -5.45953e-11 5e-05 1.46608e-10 
69 1 0.197444 0.0182946 0.00689602 0.00570745 0.00030483 2.62532e-05 -1.28589e-11 -4.01511e-11 5.6637e-12 5e-05 1.46608e-10 
70 1 0.20332 0.0176979 0.00713675 0.00531658 0.00010747 -0.000376786 -5.5416e-10 5.94974e-10 -3.14886e-10 5e-05 1.46608e-10 
71 1 0.190711 0.0153671 0.00875294 0.00560987 -0.00044862 -0.000433339 7.10704e-11 -2.50951e-10 -1.70725e-10 5e-05 1.46608e-10 
72 1 0.19748 0.0180358 0.0069368 0.0056956 0.000302641 2.65583e-05 5.73086e-12 -1.05656e-11 -1.16489e-12 5e-05 1.46608e-10 
73 1 0.197502 0.0185855 0.00685148 0.00577024 0.000285509 3.01767e-05 -3.95283e-12 1.66591e-11 -2.61999e-12 5e-05 1.46608e-10 
74 1 0.197633 0.0183587 0.00688848 0.0057147 0.000276985 3.08264e-05 3.90118e-11 -4.6951e-11 5.78195e-12 5e-05 1.46608e-10 
76 1 0.191702 0.0182649 0.00690936 0.00565713 1.19502e-05 -0.000114939 -1.61028e-10 4.47744e-11 1.85505e-11 5e-05 1.46608e-10 
77 1 0.197518 0.0173815 0.00722331 0.00586391 0.000150798 -0.000224093 -7.1149e-11 4.51714e-11 -2.54404e-11 5e-05 1.46608e-10 
78 1 0.191456 0.0183605 0.00688417 0.00567765 9.82014e-05 -0.000144289 1.36869e-10 -3.30174e-10 9.69493e-11 5e-05 1.46608e-10 
79 1 0.19077 0.0155124 0.00850134 0.00563077 0.000128578 2.66525e-05 1.28975e-10 -1.01705e-10 4.88191e-11 5e-05 1.46608e-10 
80 1 0.19767 0.0181005 0.00692917 0.0056983 0.000285984 2.9132e-05 -6.0992e-11 1.12777e-11 -4.0624e-12 5e-05 1.46608e-10 
81 1 0.191591 0.0185857 0.00685317 0.00572975 0.000127404 6.91616e-05 1.1105e-10 -3.28714e-11 8.96209e-13 5e-05 1.46608e-10 
82 1 0.190828 0.0157375 0.00831266 0.0057367 -0.000126589 -0.000242525 -3.43403e-10 4.02859e-12 -1.40559e-10 5e-05 1.46608e-10 
83 1 0.191513 0.018204 0.00693227 0.00563565 5.79574e-05 -0.000132435 -8.11881e-11 -1.60589e-10 1.50684e-11 5e-05 1.46608e-10 
84 1 0.203357 0.0178685 0.00703875 0.0054758 0.000119661 -0.000393101 -4.95105e-10 4.69304e-10 -2.49162e-10 5e-05 1.46608e-10 
85 1 0.1917 0.017827 0.00704705 0.0055374 4.72382e-05 -0.000124234 -6.46495e-11 -1.66297e-10 6.17165e-11 5e-05 1.46608e-10 
86 1 0.197726 0.0179385 0.00695512 0.00569732 0.000297181 2.72822e-05 6.9791e-11 2.53295e-11 7.10298e-13 5e-05 1.46608e-10 
87 1 0.197672 0.0185526 0.00685879 0.00577258 0.000260244 3.41327e-05 -3.36321e-11 -3.75802e-11 6.4586e-12 5e-05 1.46608e-10 
88 1 0.19711 0.0167866 0.00756237 0.00603682 6.35014e-05 -0.000307315 2.41434e-10 1.15501e-10 -1.30877e-11 5e-05 1.46608e-10 
89 1 0.197653 0.0184557 0.00687364 0.00574473 0.000268444 3.24619e-05 6.84583e-12 -5.39417e-11 7.67514e-12 5e-05 1.46608e-10 
90 1 0.197517 0.0177834 0.00700099 0.00563698 0.000194653 -0.000244475 -1.47138e-12 -4.00639e-12 2.86885e-11 5e-05 1.46608e-10 
91 1 0.191739 0.0180148 0.00698725 0.00557911 9.74692e-06 -0.00011329 3.56799e-11 -4.52362e-11 1.47088e-11 5e-05 1.46608e-10 
92 1 0.197614 0.0182618 0.00690333 0.00570071 0.000285161 2.91501e-05 -3.57897e-11 -2.8822e-11 5.17607e-12 5e-05 1.46608e-10 
93 1 0.19698 0.0162653 0.00782737 0.00623437 0.000259792 0.000175294 -8.37688e-12 2.95408e-11 -4.99815e-12 5e-05 1.46608e-10 
94 1 0.197404 0.0176694 0.00706682 0.00565126 0.000182669 -0.000274921 -2.41e-11 6.30291e-12 -1.83893e-11 5e-05 1.46608e-10 
95 1 0.197367 0.0174978 0.00716259 0.00588247 0.00016663 -0.000233353 -1.80748e-11 2.76471e-11 -1.62111e-11 5e-05 1.46608e-10 
96 1 0.197001 0.0163547 0.0077881 0.0062478 0.000233119 0.00012487 3.13518e-12 2.5558e-11 -1.13564e-11 5e-05 1.46608e-10 
97 1 0.191116 0.0164633 0.00776216 0.00616177 -0.000181631 -0.000175727 -6.63802e-12 -6.84784e-11 4.18324e-11 5e-05 1.46608e-10 
98 1 0.197499 0.0176972 0.00704913 0.0056341 0.000190414 -0.000240039 4.17504e-12 -3.43123e-11 1.04201e-11 5e-05 1.46608e-10 
99 1 0.191222 0.0168546 0.00746806 0.00612024 -0.000128438 -0.000213325 -6.86594e-11 2.50437e-10 -1.7014e-10 5e-05 1.46608e-10 
100 1 0.197728 0.0183907 0.00688473 0.00571995 0.000243241 3.60239e-05 2.74647e-11 -3.63995e-11 7.87321e-12 5e-05 1.46608e-10 
101 1 0.190787 0.0155875 0.0084375 0.00566291 0.000127806 3.87995e-05 2.68217e-11 -1.84778e-11 4.37418e-11 5e-05 1.46608e-10 
102 1 0.0643568 0.0187248 0.00531097 4.04291e-15 1.05736e-14 8.29619e-14 -2.0356e-21 2.64103e-22 7.48598e-23 5e-05 1.46608e-10 
103 1 0.24257 0.0191927 0.00520306 1.19201e-22 -1.27651e-22 1.23839e-22 0 0 0 5e-05 1.46608e-10 
104 1 0.191416 0.0177334 0.00707242 0.0054989 0.000126228 8.75176e-05 1.13493e-10 -5.09778e-11 4.76816e-11 5e-05 1.46608e-10 
105 1 0.191755 0.0176692 0.00709555 0.00549147 5.44513e-05 -0.000129353 -1.78476e-10 -8.42614e-11 7.90274e-11 5e-05 1.46608e-10 
106 1 0.191641 0.0175419 0.00712523 0.00546697 9.92539e-05 9.30547e-05 1.94885e-10 4.96328e-11 8.64257e-12 5e-05 1.46608e-10 
107 1 0.191621 0.0174466 0.00714863 0.00556561 0.000191945 7.28522e-05 1.36561e-10 2.0708e-10 -4.11158e-11 5e-05 1.46608e-10 
108 1 0.197463 0.0183916 0.00688117 0.00571019 0.000290611 2.84847e-05 1.80534e-12 1.98709e-11 -2.03427e-12 5e-05 1.46608e-10 
109 1 0.197612 0.0174091 0.00720574 0.00590088 0.000157498 -0.000228727 -5.35811e-12 3.83556e-11 -1.96638e-11 5e-05 1.46608e-10 
110 1 0.197028 0.0164423 0.00774788 0.00625782 0.000168162 -3.37572e-06 3.58531e-12 5.91937e-12 -5.51933e-11 5e-05 1.46608e-10 
111 1 0.197348 0.0174121 0.00721046 0.00586732 0.000171009 -0.000235661 -3.21705e-11 2.80077e-11 -1.75443e-11 5e-05 1.46608e-10 
112 1 0.191475 0.0180169 0.00699183 0.00559108 6.98554e-05 -0.000127728 -4.33912e-11 -3.07914e-11 8.84451e-11 5e-05 1.46608e-10 
113 1 0.191084 0.016675 0.00760901 0.00619162 -0.000187594 -0.000172232 -3.16072e-11 9.1697e-11 -5.08022e-11 5e-05 1.46608e-10 
114 1 0.191437 0.018267 0.00691395 0.00564091 5.22354e-05 -0.000129738 6.74534e-11 -4.60451e-11 2.81332e-12 5e-05 1.46608e-10 
115 1 0.197575 0.0176386 0.00707973 0.00584017 0.0001554 -0.000198004 6.2237e-11 3.88439e-11 -1.49528e-12 5e-05 1.46608e-10 
116 1 0.197405 0.0181007 0.00692571 0.00569401 0.000305877 2.59595e-05 1.05182e-11 4.54211e-13 1.78281e-12 5e-05 1.46608e-10 
117 1 0.197541 0.0187794 0.00682179 0.00578042 0.000255118 3.48428e-05 -7.17721e-12 -1.7574e-11 2.32816e-12 5e-05 1.46608e-10 
118 1 0.191281 0.0175117 0.00712496 0.00567414 9.22991e-05 9.45783e-05 4.53428e-11 5.263e-11 -1.46215e-10 5e-05 1.46608e-10 
119 1 0.197537 0.0174672 0.00717544 0.00588607 0.000144565 -0.000221192 -5.30223e-11 1.82508e-12 -1.59719e-12 5e-05 1.46608e-10 
120 1 0.196856 0.0158078 0.00818643 0.00583583 3.98667e-05 -0.000360495 -5.35179e-11 -1.46343e-11 4.08635e-11 5e-05 1.46608e-10 
121 1 0.19678 0.0156057 0.00851953 0.00569146 0.000752238 7.86282e-05 -2.79515e-13 -2.59986e-11 3.12543e-11 5e-05 1.46608e-10 
122 1 0.197309 0.0172408 0.00730614 0.0057534 0.000161022 -0.000227588 -1.08761e-10 4.73598e-11 -2.52809e-11 5e-05 1.46608e-10 
123 1 0.191242 0.017323 0.00717746 0.00559383 3.33166e-05 4.3823e-05 -9.18772e-11 1.10387e-10 2.18968e-10 5e-05 1.46608e-10 
124 1 0.197328 0.0173265 0.00725829 0.0058204 0.000150053 -0.000222691 -2.49265e-12 7.55811e-12 -2.09227e-12 5e-05 1.46608e-10 
125 1 0.197617 0.0187145 0.00683287 0.00578213 0.000260517 3.41172e-05 -1.34069e-12 -1.53112e-11 2.19825e-12 5e-05 1.46608e-10 
126 1 0.197249 0.016983 0.00745022 0.00568833 0.000202995 -0.000233437 -2.65849e-10 2.76418e-10 -2.50374e-10 5e-05 1.46608e-10 
127 1 0.191775 0.0177634 0.00706558 0.00551363 2.94279e-05 -0.000119775 -5.22781e-11 -4.09414e-11 -1.43352e-11 5e-05 1.46608e-10 
128 1 0.19729 0.0171549 0.00735411 0.00571803 0.000171486 -0.000231581 1.27792e-11 1.80348e-10 -8.15566e-11 5e-05 1.46608e-10 
129 1 0.197441 0.0178438 0.00697646 0.00565764 0.000289343 -5.88783e-05 4.00374e-11 -3.36651e-11 -1.42949e-10 5e-05 1.46608e-10 
131 1 0.191661 0.0176374 0.00710178 0.0054929 0.000103726 9.82862e-05 5.10324e-11 9.68367e-11 -9.442e-11 5e-05 1.46608e-10 
132 1 0.197536 0.0178739 0.00696272 0.00569332 0.000300217 2.71594e-05 -1.92787e-11 -1.61855e-11 -8.44811e-12 5e-05 1.46608e-10 
133 1 0.197309 0.0176419 0.00708427 0.00570558 0.00022815 -0.000262756 -2.05239e-10 3.71261e-11 -4.49758e-11 5e-05 1.46608e-10 
134 1 0.19727 0.0170692 0.00740201 0.00571667 0.000220466 -0.000257987 -3.24749e-10 -3.34264e-11 -8.45368e-12 5e-05 1.46608e-10 
135 1 0.196665 0.0153656 0.00905694 0.0055934 0.000764783 3.11196e-05 -3.66151e-11 -2.24008e-11 1.19035e-10 5e-05 1.46608e-10 
136 1 0.191495 0.018553 0.00685257 0.00573727 0.000120673 7.23843e-05 4.30655e-11 1.06643e-10 -1.03402e-11 5e-05 1.46608e-10 
137 1 0.196964 0.0161771 0.00787199 0.00623592 0.000216965 8.88271e-05 -2.74046e-12 3.98024e-11 3.32616e-11 5e-05 1.46608e-10 
138 1 0.197385 0.0180036 0.00694058 0.00568887 0.000313626 2.40747e-05 1.84014e-11 1.02783e-10 -1.71332e-11 5e-05 1.46608e-10 
140 1 0.19748 0.0176113 0.00709707 0.00567812 0.000224177 -0.000260087 -7.67072e-11 4.16501e-11 -8.9551e-12 5e-05 1.46608e-10 
141 1 0.191494 0.0181104 0.00696205 0.00561541 6.14993e-05 -0.00013248 6.51595e-11 -1.2025e-10 1.1419e-11 5e-05 1.46608e-10 
142 1 0.191222 0.0172291 0.0072053 0.00573894 -4.11358e-05 -0.000142532 -4.22507e-10 1.2658e-10 3.82899e-10 5e-05 1.46608e-10 
143 1 0.190691 0.0153283 0.00884303 0.00562075 -3.38638e-05 -0.000268568 3.24586e-11 -1.0587e-10 -2.10725e-10 5e-05 1.46608e-10 
144 1 0.191341 0.0177972 0.00705488 0.00552319 0.000147657 8.10211e-05 7.88918e-11 -9.56604e-11 -2.04724e-12 5e-05 1.46608e-10 
147 1 0.191551 0.0183919 0.00687603 0.00570111 9.64285e-05 4.77224e-06 -9.83586e-11 2.94792e-12 -7.20236e-11 5e-05 1.46608e-10 
148 1 0.191318 0.0168788 0.00744541 0.00608891 -5.02607e-05 -0.000269206 -1.30428e-10 1.97333e-10 -1.31179e-10 5e-05 1.46608e-10 
149 1 0.197131 0.0168724 0.00751551 0.0058814 0.000123783 -0.000283986 4.69436e-13 1.0931e-10 -7.48941e-12 5e-05 1.46608e-10 
150 1 0.0100679 0.0201683 0.00551526 8.38446e-15 1.24517e-15 -8.48744e-14 -2.03435e-23 5.67523e-23 -1.03398e-24 5e-05 1.46608e-10 
151 1 0.191185 0.0170669 0.00731558 0.00593723 -0.000121243 -0.000207576 7.728e-11 -1.25326e-10 -2.40837e-10 5e-05 1.46608e-10 
153 1 0.191535 0.0187491 0.00684971 0.00572288 0.000136046 6.83705e-05 2.746e-11 -1.63985e-11 -9.07629e-12 5e-05 1.46608e-10 
154 1 0.191301 0.0176069 0.00710158 0.00568661 0.000114435 9.70069e-05 1.56145e-10 -3.23878e-10 -4.95384e-11 5e-05 1.46608e-10 
155 1 0.191506 0.01732 0.00717782 0.0055962 0.000176482 7.68354e-05 -1.01472e-10 2.29497e-10 -9.41535e-11 5e-05 1.46608e-10 
156 1 0.191455 0.0179234 0.00702203 0.00556249 7.74075e-05 -0.000124735 -3.03643e-11 1.41738e-11 -4.07029e-11 5e-05 1.46608e-10 
157 1 0.0219312 0.0187687 0.00551176 -3.82784e-14 8.16892e-14 2.95888e-13 -8.56726e-22 -1.15133e-22 -7.89957e-23 5e-05 1.46608e-10 
158 1 0.191683 0.0181714 0.00693913 0.00561924 1.83803e-05 -0.0001187 4.47233e-11 3.56614e-11 -9.75365e-13 5e-05 1.46608e-10 
159 1 0.197747 0.0184876 0.00686989 0.00575098 0.000235021 3.76043e-05 -1.56973e-11 -3.21227e-11 3.25962e-12 5e-05 1.46608e-10 
160 1 0.191321 0.0177021 0.0070782 0.00577999 -2.90363e-05 0.000131853 5.70598e-10 -6.68955e-10 3.07275e-10 5e-05 1.46608e-10 
162 1 0.19161 0.0186837 0.00685175 0.00571849 0.000137272 6.84133e-05 4.61227e-11 -7.14273e-11 1.29914e-11 5e-05 1.46608e-10 
164 1 0.191181 0.0166977 0.00758598 0.00618773 -0.000192321 -0.000169105 -5.31547e-11 7.34986e-11 -5.39689e-11 5e-05 1.46608e-10 
165 1 0.191511 0.0177651 0.00706656 0.00551768 0.000113118 9.28543e-05 -1.2744e-10 -5.11071e-11 6.83257e-12 5e-05 1.46608e-10 
166 1 0.197483 0.0184885 0.00686632 0.00571805 0.000291274 2.84567e-05 1.24596e-11 2.43734e-11 -4.86238e-12 5e-05 1.46608e-10 
168 1 0.191242 0.016933 0.00740921 0.00603398 -0.000104024 -0.000226606 3.93412e-11 2.39989e-10 -1.9384e-10 5e-05 1.46608e-10 
169 1 0.191666 0.0185197 0.00685522 0.00572214 0.000123818 6.84504e-05 -1.4103e-10 1.66744e-10 9.38572e-12 5e-05 1.46608e-10 
170 1 0.191586 0.0177012 0.00708417 0.00550728 0.000114784 9.31005e-05 -2.57737e-11 -5.03689e-11 7.48336e-12 5e-05 1.46608e-10 
171 1 0.197365 0.0179059 0.00695553 0.00584911 0.000303979 2.924e-05 -1.38802e-12 9.78803e-11 -1.53281e-11 5e-05 1.46608e-10 
172 1 0.191491 0.0176696 0.00709002 0.00549451 0.000129454 8.41994e-05 3.63406e-11 -5.26276e-12 1.54739e-11 5e-05 1.46608e-10 
173 1 0.197651 0.0180035 0.00694402 0.00569161 0.000287656 2.86795e-05 9.89063e-12 -7.5902e-12 1.00321e-11 5e-05 1.46608e-10 
174 1 0.191526 0.0174153 0.00715441 0.00557009 0.00013912 8.81851e-05 2.92859e-10 9.13422e-11 -2.17608e-11 5e-05 1.46608e-10 
175 1 0.185185 0.0170933 0.00740729 0.00576648 -0.000236382 -5.3831e-06 -3.40513e-11 5.41858e-11 -2.04174e-11 5e-05 1.46608e-10 
177 1 0.191355 0.0170362 0.00732738 0.00589969 -1.04824e-05 -0.000294065 8.5738e-11 1.81572e-10 -1.51854e-10 5e-05 1.46608e-10 
178 1 0.191279 0.0170904 0.00729128 0.00589743 -5.05218e-05 -0.000311332 -5.77364e-11 -4.41878e-12 1.03641e-10 5e-05 1.46608e-10 
179 1 0.191357 0.0174479 0.00714256 0.00554773 0.000117076 8.94924e-05 1.34559e-10 1.15983e-10 6.97405e-12 5e-05 1.46608e-10 
181 1 0.191627 0.0183281 0.00689119 0.00567574 3.91675e-05 -9.51471e-05 -2.37312e-10 -6.17083e-11 -3.96771e-11 5e-05 1.46608e-10 
182 1 0.197328 0.0177277 0.00703635 0.0057557 0.000217698 -0.000258618 2.38741e-10 8.70026e-11 -2.597e-11 5e-05 1.46608e-10 
183 1 0.191566 0.0176058 0.00710762 0.00549229 0.000133793 8.68823e-05 -5.95304e-12 -5.28164e-11 2.59996e-11 5e-05 1.46608e-10 
184 1 0.197385 0.0175836 0.00711467 0.00565283 0.000200139 -0.000248723 -1.8974e-10 6.93811e-11 -2.14495e-11 5e-05 1.46608e-10 
186 1 0.191166 0.0169872 0.00737305 0.0060432 -0.000139238 -0.000191612 1.56626e-10 4.96591e-11 -1.6616e-10 5e-05 1.46608e-10 
187 1 0.197233 0.017299 0.00727576 0.00579857 0.000190896 -0.000245597 -1.87957e-10 1.81967e-10 -1.0212e-10 5e-05 1.46608e-10 
188 1 0.197365 0.0170967 0.00738451 0.00570039 0.000152033 -0.000220745 -1.75699e-10 6.6056e-11 -3.64843e-11 5e-05 1.46608e-10 
189 1 0.197555 0.0179709 0.00694787 0.00569176 0.000292853 2.80271e-05 4.87995e-12 -1.41856e-12 1.025e-12 5e-05 1.46608e-10 
190 1 0.185453 0.018347 0.00690477 0.00557854 -0.000125996 0.00011485 6.70351e-10 -4.76784e-10 5.69865e-11 5e-05 1.46608e-10 
191 1 0.197403 0.0172681 0.00728879 0.00579297 0.000126076 -0.000208844 -4.6347e-11 -2.54672e-12 -1.89398e-12 5e-05 1.46608e-10 
192 1 0.191471 0.0175744 0.0071134 0.00551911 0.000121676 8.98346e-05 1.08143e-10 -9.72797e-11 2.94572e-11 5e-05 1.46608e-10 
193 1 0.197556 0.0175529 0.00712757 0.00588606 0.000139702 -0.000218626 1.63986e-11 2.15145e-11 -1.8997e-11 5e-05 1.46608e-10 
194 1 0.161461 0.0182058 0.00533758 1.5304e-15 -1.10124e-14 8.66684e-14 -1.56773e-21 -2.50377e-22 -2.89513e-24 5e-05 1.46608e-10 
195 1 0.191664 0.0180779 0.00696891 0.00559915 2.78099e-05 -0.000119002 1.22741e-10 4.40685e-11 -3.03418e-11 5e-05 1.46608e-10 
196 1 0.191073 0.0163072 0.00787953 0.00613375 -0.000178418 -0.000176924 1.24942e-11 6.08467e-12 -2.02778e-11 5e-05 1.46608e-10 
197 1 0.185245 0.0173498 0.00726406 0.00553782 -0.000186082 -2.81408e-05 -1.18593e-10 5.7684e-12 1.78904e-12 5e-05 1.46608e-10 
198 1 0.191515 0.0186511 0.00685113 0.00572941 0.000126286 6.87629e-05 7.2692e-11 5.47207e-11 -3.85104e-12 5e-05 1.46608e-10 
199 1 0.191418 0.0181735 0.00694373 0.00562972 6.69059e-05 -0.000131066 5.8378e-11 1.55657e-11 -4.0809e-11 5e-05 1.46608e-10 
201 1 0.191063 0.0165966 0.00766753 0.00617991 -0.000183578 -0.000171524 -1.98024e-11 5.31391e-11 -3.92159e-11 5e-05 1.46608e-10 
202 1 0.19155 0.0179538 0.00701017 0.0055682 5.72932e-05 -0.000130621 -3.70322e-11 -2.7219e-11 1.19773e-11 5e-05 1.46608e-10 
203 1 0.197045 0.016531 0.00770517 0.00626031 0.000131411 -7.22751e-05 -3.45472e-12 -8.72244e-12 -8.21521e-11 5e-05 1.46608e-10 
204 1 0.190748 0.0154471 0.00857372 0.0056906 -0.000179505 -0.000244231 5.83363e-12 -1.35776e-10 -3.33389e-11 5e-05 1.46608e-10 
205 1 0.191625 0.0178905 0.00702856 0.00555293 5.17888e-05 -0.000124018 -7.56859e-11 -1.30882e-10 5.80077e-12 5e-05 1.46608e-10 
206 1 0.191138 0.0165412 0.00770355 0.00615077 -0.000214667 -0.000151239 -2.53641e-11 7.52474e-11 -5.28031e-11 5e-05 1.46608e-10 
207 1 0.191261 0.0170117 0.00735026 0.0059831 -9.26472e-05 -0.00024102 7.27236e-11 1.30349e-10 -1.83716e-10 5e-05 1.46608e-10 
208 1 0.191436 0.0178289 0.00704897 0.00553801 0.000122921 9.01192e-05 -4.18516e-11 2.92752e-11 -2.66097e-11 5e-05 1.46608e-10 
209 1 0.188256 0.017662 0.00702156 0.0056715 -0.000837879 0.000332983 6.19323e-13 -9.74096e-14 3.58034e-14 5e-05 1.46608e-10 
210 1 0.197272 0.0174703 0.00718009 0.00587921 0.000177995 -0.000239757 1.76374e-13 4.71493e-12 5.3016e-12 5e-05 1.46608e-10 
211 1 0.197214 0.0172133 0.00732362 0.00574986 0.000203313 -0.000248476 -6.11502e-11 1.01254e-10 1.68316e-11 5e-05 1.46608e-10 
212 1 0.191569 0.0180474 0.00698036 0.00559474 5.04427e-05 -0.000129238 3.96674e-11 -5.83566e-11 -2.81098e-11 5e-05 1.46608e-10 
213 1 0.197519 0.0182297 0.0069071 0.00570864 0.000304037 2.64634e-05 -1.69052e-11 -6.31013e-11 1.02528e-11 5e-05 1.46608e-10 
214 1 0.197153 0.0169578 0.00746829 0.00575651 0.000167176 -0.000271614 -5.71995e-11 1.24304e-11 -4.3524e-12 5e-05 1.46608e-10 
215 1 0.185433 0.0182494 0.00691362 0.00561692 -0.000117655 0.000114085 5.4871e-13 -1.04723e-10 1.37443e-11 5e-05 1.46608e-10 
216 1 0.191531 0.01786 0.00704003 0.00554104 7.23017e-05 -0.000134888 -1.12445e-10 4.81168e-11 2.4735e-10 5e-05 1.46608e-10 
217 1 0.197522 0.0186824 0.00683663 0.00577376 0.000258714 3.4377e-05 -1.59683e-12 -2.58833e-12 1.87093e-13 5e-05 1.46608e-10 
218 1 0.190846 0.015816 0.00825336 0.00596624 -0.000141729 -0.000197639 -1.55755e-10 1.5627e-11 -4.54274e-11 5e-05 1.46608e-10 
219 1 0.197088 0.0167015 0.0076098 0.00620267 7.55167e-05 -0.000189937 1.34797e-11 3.73014e-11 -5.95136e-11 5e-05 1.46608e-10 
220 1 0.191645 0.0179843 0.00699871 0.00557482 3.61779e-05 -0.000123061 -1.32474e-11 -7.92071e-11 2.10388e-12 5e-05 1.46608e-10 
221 1 0.251348 0.0178195 0.00715643 0.00573478 0.000439988 0.000102572 1.0792e-11 -3.42376e-11 2.58246e-11 5e-05 1.46608e-10 
222 1 0.197594 0.0181648 0.00691817 0.00570125 0.000287959 2.88808e-05 -9.43634e-11 -1.18232e-11 -8.95506e-13 5e-05 1.46608e-10 
223 1 0.191396 0.0176383 0.00709579 0.00550694 0.000123509 8.94165e-05 1.94577e-10 -4.12961e-11 3.82293e-11 5e-05 1.46608e-10 
224 1 0.0875527 0.01743 0.00794978 2.14209e-07 -0.0218303 0.00998733 3.38293e-14 2.50554e-11 1.13284e-11 5e-05 1.46608e-10 
225 1 0.197423 0.0173537 0.00724094 0.0058634 0.000172367 -0.000235806 -3.28562e-11 8.15777e-11 -4.26508e-11 5e-05 1.46608e-10 
226 1 0.191202 0.0171446 0.00725508 0.00582707 -0.000106114 -0.00021947 2.97655e-11 9.6398e-11 2.56902e-10 5e-05 1.46608e-10 
227 1 0.185375 0.0179563 0.00694014 0.00562977 -0.000115435 0.000114692 -8.43105e-12 2.09175e-11 -3.45352e-11 5e-05 1.46608e-10 
228 1 0.185204 0.017179 0.00735948 0.00567501 -0.000217882 -1.36411e-05 7.0678e-12 2.55768e-11 -1.15803e-11 5e-05 1.46608e-10 
229 1 0.191607 0.0182344 0.00692081 0.00564241 3.84563e-05 -0.0001176 9.94466e-12 2.19535e-11 1.8028e-11 5e-05 1.46608e-10 
230 1 0.191019 0.0164403 0.00778402 0.00615474 -0.000178158 -0.000178347 -1.94414e-11 -2.92516e-11 2.68169e-12 5e-05 1.46608e-10 
231 1 0.185165 0.0170078 0.00745504 0.00586172 -0.000256152 3.50217e-06 -4.65689e-12 4.78898e-11 -3.47603e-11 5e-05 1.46608e-10 
232 1 0.191399 0.0180804 0.00697505 0.00560789 8.05425e-05 -0.000125869 -3.65568e-12 6.43305e-12 -9.15437e-11 5e-05 1.46608e-10 
234 1 0.197461 0.0179388 0.00695164 0.00568738 0.000305132 2.60655e-05 -1.69646e-11 2.5285e-11 -1.80011e-11 5e-05 1.46608e-10 
235 1 0.191606 0.0177965 0.00705851 0.00551769 7.01871e-05 -0.000136421 -1.25731e-10 4.84251e-11 1.09572e-10 5e-05 1.46608e-10 
236 1 0.190975 0.0162843 0.00790151 0.00612559 -0.000172565 -0.000181243 -2.38731e-11 -2.17081e-11 2.41356e-11 5e-05 1.46608e-10 
237 1 0.190934 0.0161286 0.00801984 0.00611725 -0.000168753 -0.000181459 9.9674e-12 -2.37407e-11 2.18565e-11 5e-05 1.46608e-10 
239 1 0.184992 0.0163174 0.00782006 0.00615147 -0.000158349 0.000322849 1.59126e-11 -1.78741e-11 1.01345e-11 5e-05 1.46608e-10 
240 1 0.185014 0.0164048 0.00777646 0.00613406 -0.000161271 0.000323348 -1.55384e-11 -5.25039e-11 2.0534e-11 5e-05 1.46608e-10 
241 1 0.185079 0.0166668 0.00764557 0.00609346 -0.0003006 5.84544e-05 -1.35594e-12 -2.48489e-11 -1.21954e-10 5e-05 1.46608e-10 
242 1 0.191262 0.0174184 0.00715516 0.00560796 2.96057e-05 -0.000171875 6.93785e-12 -3.40352e-10 -1.04846e-09 5e-05 1.46608e-10 
244 1 0.185035 0.0164921 0.00773285 0.00611618 -0.000165319 0.000324708 -1.79816e-11 -4.62751e-11 2.77752e-11 5e-05 1.46608e-10 
246 1 0.185144 0.0169225 0.00750271 0.00606713 -0.000300581 2.27962e-05 5.68175e-11 5.44442e-11 -3.20427e-11 5e-05 1.46608e-10 
247 1 0.191797 0.0182956 0.00689782 0.00564701 2.76107e-05 -0.000121757 -9.07229e-11 1.4063e-11 4.23081e-11 5e-05 1.46608e-10 
248 1 0.191041 0.0165185 0.00772576 0.00616525 -0.000180354 -0.000176166 1.52266e-11 1.37366e-11 4.63076e-13 5e-05 1.46608e-10 
249 1 0.185414 0.0181517 0.00692246 0.00562181 -0.000114659 0.000113811 -6.39834e-14 -1.79656e-11 6.0694e-12 5e-05 1.46608e-10 
250 1 0.191337 0.0169576 0.00738635 0.00602103 -6.63784e-05 -0.000254076 -8.84609e-12 -5.98359e-14 -2.70517e-11 5e-05 1.46608e-10 
251 1 0.197069 0.0166161 0.00765836 0.00625254 7.08435e-05 -0.000181464 7.73322e-12 5.80481e-12 -5.6819e-11 5e-05 1.46608e-10 
252 1 0.185283 0.0175214 0.00716834 0.00551938 -0.000179581 -3.0681e-05 4.33221e-11 3.55829e-11 -1.40806e-11 5e-05 1.46608e-10 
253 1 0.185472 0.0184447 0.00689594 0.00565256 -0.000126234 0.000115694 5.18186e-12 -1.9285e-10 2.0452e-11 5e-05 1.46608e-10 
254 1 0.185122 0.0168373 0.00755033 0.00606908 -0.000306037 2.47161e-05 -6.96218e-11 4.34312e-11 -1.52978e-11 5e-05 1.46608e-10 
255 1 0.191361 0.0178924 0.00703143 0.00556253 0.000140444 8.73415e-05 -1.73975e-11 -2.09788e-11 2.13894e-11 5e-05 1.46608e-10 
256 1 0.191451 0.0174793 0.00713678 0.00554036 0.000115364 9.14098e-05 9.89985e-11 -1.40016e-10 -1.51408e-11 5e-05 1.46608e-10 
257 1 0.191411 0.0172888 0.00718356 0.00559681 0.000149452 8.11231e-05 -3.72971e-11 9.92431e-11 -1.283e-11 5e-05 1.46608e-10 
258 1 0.191316 0.0172574 0.00718934 0.00569747 0.000180182 5.7397e-05 -5.54579e-10 -1.47492e-10 -2.51468e-12 5e-05 1.46608e-10 
259 1 0.185302 0.017607 0.00712054 0.00557895 -0.000187193 -2.78137e-05 -6.01551e-11 6.59758e-11 -5.40055e-11 5e-05 1.46608e-10 
261 1 0.191127 0.016831 0.00749161 0.00614936 -0.000174144 -0.000180089 5.2447e-11 1.36258e-10 -1.45301e-10 5e-05 1.46608e-10 