ITEM: TIMESTEP
26600000
ITEM: NUMBER OF ATOMS
271
ITEM: BOX BOUNDS ff ff ff
-0.02 0.43
-0.02 0.06
-0.02 0.07
ITEM: ATOMS id type x y z vx vy vz fx fy fz radius mass 
1 1 0.167643 0.0158272 0.0086558 0.00571344 -0.00100528 0.000263466 -1.11625e-10 -3.93301e-11 2.97053e-10 5e-05 1.46608e-10 
2 1 0.168178 0.0170103 0.0076305 0.00543688 -0.000921712 0.00101268 2.54453e-10 4.75791e-10 -1.26139e-10 5e-05 1.46608e-10 
3 1 0.162308 0.0167501 0.00749402 0.00555842 -0.000235456 -2.24823e-05 1.32375e-11 1.31005e-10 -3.73458e-11 5e-05 1.46608e-10 
4 1 0.168003 0.0164186 0.00785679 0.00543204 -0.000889769 0.000993848 -2.02225e-10 -2.35218e-10 1.48204e-11 5e-05 1.46608e-10 
5 1 0.167623 0.0157779 0.00874051 0.00556202 -0.000955995 0.000238139 -4.39377e-10 1.64637e-10 -3.85462e-10 5e-05 1.46608e-10 
6 1 0.174127 0.0175556 0.0072073 0.00530365 -0.00109258 -0.000316919 2.42039e-12 4.02984e-12 -3.15674e-12 5e-05 1.46608e-10 
7 1 0.167724 0.0160192 0.00831529 0.00573455 -0.00115691 0.000422427 -9.87958e-11 6.40635e-10 4.93582e-10 5e-05 1.46608e-10 
8 1 0.1676 0.0157343 0.00882755 0.00552616 -0.00103907 0.0001897 1.89549e-10 -1.20766e-10 -1.21422e-09 5e-05 1.46608e-10 
9 1 0.174245 0.0181217 0.00704683 0.00536665 -0.000935108 0.000273145 3.54852e-13 1.40706e-12 -5.89961e-13 5e-05 1.46608e-10 
10 1 0.16813 0.0175814 0.00746445 0.0048518 -0.000817519 0.000902809 -6.23426e-10 -8.63172e-11 -3.08823e-11 5e-05 1.46608e-10 
11 1 0.168203 0.0171046 0.00760767 0.00612684 -0.00101771 0.0011348 1.54856e-11 -3.72327e-12 -4.91819e-11 5e-05 1.46608e-10 
12 1 0.161793 0.0161712 0.00802759 0.00606831 4.0476e-05 0.000449898 -1.22404e-10 4.30085e-11 -1.10223e-10 5e-05 1.46608e-10 
13 1 0.167539 0.0155981 0.00908766 0.00535518 -0.000993424 0.000348458 4.19705e-10 3.25294e-10 -7.08027e-10 5e-05 1.46608e-10 
14 1 0.162368 0.0182687 0.00711763 0.00592806 -0.000184383 0.000427406 -7.3633e-11 -6.23944e-11 1.22213e-11 5e-05 1.46608e-10 
15 1 0.16805 0.0164404 0.00777167 0.00542114 -0.000870562 0.000997223 -2.59938e-10 -5.94868e-11 2.49034e-11 5e-05 1.46608e-10 
16 1 0.162481 0.0179582 0.00720408 0.0059552 -0.000242996 -2.4243e-05 -8.73859e-11 2.46296e-10 1.7074e-11 5e-05 1.46608e-10 
17 1 0.168087 0.0166353 0.00772238 0.00540153 -0.000975168 0.00102669 -3.654e-10 9.80616e-11 -8.50463e-11 5e-05 1.46608e-10 
19 1 0.167583 0.0156877 0.00891424 0.00532327 -0.000919937 0.000232772 -1.86384e-10 4.90017e-10 -1.20224e-09 5e-05 1.46608e-10 
21 1 0.168109 0.0174899 0.00749845 0.00595296 -0.00103629 0.00111661 -6.35645e-11 -1.03827e-10 -1.44333e-10 5e-05 1.46608e-10 
22 1 0.168072 0.0165364 0.00774784 0.00517086 -0.00129578 0.00108362 1.01087e-10 -6.61556e-11 3.99636e-11 5e-05 1.46608e-10 
23 1 0.161965 0.0164264 0.00770285 0.00572966 -8.04598e-05 0.000233789 8.91593e-11 5.72175e-11 1.03349e-10 5e-05 1.46608e-10 
24 1 0.174325 0.0184987 0.00694012 0.005902 -0.00104041 0.000303828 -1.61557e-13 -3.58602e-12 3.02816e-12 5e-05 1.46608e-10 
25 1 0.167884 0.0161336 0.00802792 0.0057978 -0.00136387 0.000596966 -1.60344e-09 2.96199e-09 6.85512e-10 5e-05 1.46608e-10 
26 1 0.174205 0.017933 0.00710024 0.00535723 -0.000934198 0.000272842 2.42019e-13 3.4927e-12 6.09446e-13 5e-05 1.46608e-10 
27 1 0.162287 0.0166535 0.00751731 0.00555761 -0.000246036 -1.98538e-05 7.62596e-11 -3.83207e-12 -4.4128e-11 5e-05 1.46608e-10 
28 1 0.168139 0.01682 0.00767811 0.00548833 -0.000966927 0.00103507 -1.97148e-10 3.47018e-10 -1.733e-10 5e-05 1.46608e-10 
29 1 0.167746 0.016048 0.00822212 0.00569931 -0.00113739 0.000435971 -5.80291e-10 9.13181e-10 -1.93057e-10 5e-05 1.46608e-10 
30 1 0.168218 0.0175386 0.00748856 0.00524385 -0.000860105 0.000972365 -5.5826e-11 -2.03337e-10 5.95808e-11 5e-05 1.46608e-10 
31 1 0.167903 0.0161834 0.00794313 0.00538947 -0.00123345 0.000632652 -5.04062e-10 3.84728e-10 -2.24811e-10 5e-05 1.46608e-10 
32 1 0.167922 0.0162493 0.00787051 0.00539088 -0.000991829 0.00088886 1.88786e-10 1.84195e-10 -1.54403e-10 5e-05 1.46608e-10 
33 1 0.174146 0.0176499 0.00718035 0.00534318 -0.000932227 0.000272393 1.78486e-12 3.47477e-12 -2.74951e-12 5e-05 1.46608e-10 
34 1 0.167706 0.0159654 0.00839759 0.00566119 -0.00111543 0.000386335 1.83618e-11 -9.59234e-11 1.09811e-09 5e-05 1.46608e-10 
35 1 0.167784 0.0161507 0.00805567 0.00582553 -0.00107932 0.000533391 4.91427e-10 5.49718e-10 8.96698e-10 5e-05 1.46608e-10 
36 1 0.174304 0.0184045 0.00696677 0.00585886 -0.00103224 0.00030146 1.82963e-12 -3.79795e-12 -1.83787e-12 5e-05 1.46608e-10 
37 1 0.168314 0.0175781 0.00749102 0.00523948 -0.000873286 0.000973536 8.52008e-11 -1.06453e-11 1.60122e-11 5e-05 1.46608e-10 
38 1 0.168422 0.0172643 0.0075936 0.0059008 -0.00110516 0.00113073 -1.96307e-10 1.04923e-10 -7.92929e-11 5e-05 1.46608e-10 
39 1 0.174345 0.0185929 0.00691346 0.00594524 -0.00104873 0.000306114 -1.48421e-12 -4.13822e-12 1.54687e-13 5e-05 1.46608e-10 
41 1 0.168212 0.0167573 0.00770574 0.00540739 -0.00105798 0.00104889 -2.48382e-10 3.24134e-10 -1.42013e-10 5e-05 1.46608e-10 
42 1 0.321436 0.0173475 0.00552525 4.57171e-16 2.25534e-15 8.4636e-14 8.08924e-24 -1.4411e-24 0 5e-05 1.46608e-10 
44 1 0.168158 0.0169151 0.00765425 0.00543142 -0.000980161 0.00102928 -3.0964e-12 3.99207e-10 -1.06892e-10 5e-05 1.46608e-10 
45 1 0.174166 0.0177443 0.00715364 0.00534789 -0.000933013 0.000272394 -4.87971e-13 5.31777e-12 1.29034e-12 5e-05 1.46608e-10 
47 1 0.167662 0.0158685 0.00856662 0.00563159 -0.00100818 0.000286774 -2.99669e-10 -3.32108e-10 8.93047e-10 5e-05 1.46608e-10 
48 1 0.168296 0.0174827 0.00751511 0.00520884 -0.000908247 0.000978954 3.9951e-10 -1.61488e-10 1.23695e-10 5e-05 1.46608e-10 
50 1 0.167859 0.016375 0.00777863 0.00542226 -0.0009262 0.000985046 3.93538e-10 1.56901e-09 6.6802e-10 5e-05 1.46608e-10 
51 1 0.167839 0.0162777 0.00779021 0.00553476 -0.000965277 0.000601877 -5.60473e-10 1.25835e-09 6.56132e-11 5e-05 1.46608e-10 
52 1 0.161707 0.0159241 0.00833007 0.00597759 3.54934e-05 0.000417168 -8.65222e-11 -1.32923e-10 4.26695e-11 5e-05 1.46608e-10 
53 1 0.174284 0.0183103 0.00699343 0.00537614 -0.000935862 0.000273352 -2.33424e-13 -1.31286e-12 -1.0982e-12 5e-05 1.46608e-10 
54 1 0.168336 0.0176734 0.00746737 0.00536615 -0.000752407 0.000957092 -7.96126e-13 -8.89289e-11 1.73487e-11 5e-05 1.46608e-10 
55 1 0.161642 0.0157388 0.00855694 0.00594495 5.12034e-05 0.000400088 -2.65868e-10 -8.63685e-11 9.90559e-11 5e-05 1.46608e-10 
56 1 0.16839 0.0175181 0.00751823 0.00522446 -0.000901439 0.000979197 -3.96636e-12 8.04138e-11 -2.93452e-11 5e-05 1.46608e-10 
57 1 0.174186 0.0178386 0.00712694 0.00535256 -0.000933638 0.000272755 1.71696e-12 3.28412e-12 -2.88188e-12 5e-05 1.46608e-10 
59 1 0.168184 0.0166585 0.00772942 0.00540479 -0.00109187 0.00106122 -3.05964e-11 9.48011e-13 3.49328e-11 5e-05 1.46608e-10 
61 1 0.167763 0.0160928 0.00813435 0.00569086 -0.00110616 0.000453702 -7.69154e-10 8.71436e-10 1.20707e-10 5e-05 1.46608e-10 
62 1 0.168376 0.0170751 0.00763987 0.00589625 -0.00124735 0.00116836 1.59731e-10 -1.93229e-10 8.05365e-11 5e-05 1.46608e-10 
63 1 0.168008 0.016249 0.00781917 0.00539 -0.000905069 0.000972809 4.63975e-11 3.57293e-10 -1.23303e-11 5e-05 1.46608e-10 
64 1 0.174366 0.0186871 0.00688681 0.00598829 -0.00105707 0.000308675 -1.27468e-12 -4.96849e-12 4.02257e-12 5e-05 1.46608e-10 
65 1 0.161965 0.0168199 0.00758303 0.00553297 -0.000321232 -1.45467e-05 -5.31225e-11 1.26035e-10 6.58085e-11 5e-05 1.46608e-10 
66 1 0.16162 0.015677 0.00863257 0.00591653 4.89165e-05 0.000397105 -3.50476e-11 -2.27783e-10 2.56243e-10 5e-05 1.46608e-10 
67 1 0.168277 0.0170431 0.00763513 0.00604957 -0.00112657 0.00116635 -9.29501e-11 -1.64304e-10 7.13104e-11 5e-05 1.46608e-10 
68 1 0.167954 0.0164049 0.0077682 0.0053952 -0.000886149 0.000995996 -1.55066e-10 2.46002e-10 -8.09042e-11 5e-05 1.46608e-10 
69 1 0.168278 0.0178241 0.00741727 0.00535327 -0.000834302 0.000978906 1.73066e-10 -1.61412e-10 7.86756e-11 5e-05 1.46608e-10 
70 1 0.174225 0.0180273 0.00707354 0.00536194 -0.000934685 0.000273013 6.37907e-13 2.40647e-12 -1.38097e-12 5e-05 1.46608e-10 
71 1 0.161685 0.0158623 0.00840569 0.0059723 3.7972e-05 0.00041251 1.94774e-10 -7.46508e-12 5.67043e-11 5e-05 1.46608e-10 
72 1 0.168275 0.0173878 0.00753863 0.00598214 -0.00100934 0.00111015 -4.14826e-10 -7.72668e-11 -7.75012e-11 5e-05 1.46608e-10 
73 1 0.168358 0.0177695 0.00744172 0.00590124 -0.000501855 -2.99508e-05 1.63635e-10 -2.61712e-10 7.50314e-11 5e-05 1.46608e-10 
74 1 0.168351 0.016981 0.00766267 0.00595027 -0.00126558 0.00118494 -2.33383e-10 4.33691e-11 -4.2396e-11 5e-05 1.46608e-10 
76 1 0.162323 0.0176438 0.00728115 0.0057982 -0.000192153 -8.01906e-05 -1.30086e-10 -1.9869e-11 5.20245e-11 5e-05 1.46608e-10 
77 1 0.167921 0.0164715 0.00783473 0.00544824 -0.000876763 0.00102004 -1.58818e-10 -7.00758e-11 1.11398e-10 5e-05 1.46608e-10 
78 1 0.162424 0.0181188 0.00716378 0.00599086 -7.50693e-05 0.000400709 7.28693e-11 1.24136e-10 -1.28468e-11 5e-05 1.46608e-10 
79 1 0.16175 0.0160477 0.00817882 0.0060282 3.11544e-05 0.000433673 -2.70582e-11 2.52045e-10 -1.8734e-10 5e-05 1.46608e-10 
80 1 0.168213 0.0170776 0.00770346 0.0060918 -0.000935715 0.00114171 -1.98699e-10 2.03923e-10 -1.73783e-10 5e-05 1.46608e-10 
81 1 0.162344 0.0177405 0.00726569 0.00584775 -0.000208638 -0.000147491 -1.43007e-10 -7.2578e-11 -3.24962e-10 5e-05 1.46608e-10 
82 1 0.161815 0.016233 0.00795202 0.00592903 4.63534e-05 0.000416973 7.3311e-11 -5.5582e-11 -8.70837e-11 5e-05 1.46608e-10 
83 1 0.162386 0.017929 0.00721418 0.00593234 -0.000267213 -0.000373077 -5.73398e-11 -1.28569e-11 -2.57647e-10 5e-05 1.46608e-10 
84 1 0.174264 0.018216 0.00702013 0.00537136 -0.000935475 0.00027328 -1.48142e-13 5.41126e-13 9.19914e-13 5e-05 1.46608e-10 
85 1 0.162346 0.0169478 0.00744643 0.00557158 -0.000156492 -4.16621e-05 4.08892e-12 3.62015e-11 -1.36039e-11 5e-05 1.46608e-10 
86 1 0.168233 0.0168537 0.00768178 0.00550195 -0.000975783 0.00103969 -2.02366e-10 -2.76472e-10 6.02594e-11 5e-05 1.46608e-10 
87 1 0.168542 0.017042 0.00767223 0.00577437 -0.00144362 0.00120647 4.58806e-11 1.18231e-10 -2.83933e-11 5e-05 1.46608e-10 
88 1 0.168003 0.0169859 0.0076982 0.00549991 -0.000881801 0.00101811 -3.59614e-10 1.15042e-10 -1.87737e-11 5e-05 1.46608e-10 
89 1 0.168303 0.0171378 0.00761224 0.00592625 -0.00117601 0.00115372 2.32921e-10 -2.33558e-10 9.06136e-11 5e-05 1.46608e-10 
90 1 0.168252 0.0169489 0.00765793 0.00545643 -0.000923953 0.00101799 -3.75495e-10 1.52227e-10 -7.26247e-11 5e-05 1.46608e-10 
91 1 0.162328 0.0168475 0.00747057 0.00556742 -0.000235892 -2.26693e-05 -2.60894e-11 1.36988e-10 -3.48528e-11 5e-05 1.46608e-10 
92 1 0.168251 0.0172935 0.00756161 0.00596855 -0.00108986 0.00113741 -3.11081e-11 -8.32653e-11 3.18379e-11 5e-05 1.46608e-10 
93 1 0.1679 0.0165603 0.00771725 0.00543491 -0.00091988 0.00101664 1.35882e-11 1.41204e-10 4.3805e-11 5e-05 1.46608e-10 
94 1 0.168145 0.0172484 0.00755946 0.00593944 -0.00107644 0.00112882 2.69764e-10 -9.42391e-11 2.8323e-11 5e-05 1.46608e-10 
95 1 0.168025 0.0170841 0.00767517 0.00550514 -0.00104782 0.000960079 -7.20683e-11 7.96515e-12 -1.43522e-10 5e-05 1.46608e-10 
96 1 0.16792 0.0166553 0.0076936 0.00546612 -0.000899438 0.00104084 -2.06383e-10 -3.03471e-10 2.29749e-11 5e-05 1.46608e-10 
97 1 0.162061 0.0164486 0.0076759 0.00568622 -6.88902e-05 0.000220466 -8.57387e-11 4.31856e-11 -7.5554e-11 5e-05 1.46608e-10 
98 1 0.168107 0.0170192 0.00769967 0.00544567 -0.000917051 0.00102383 2.72183e-10 2.24208e-10 -1.70006e-10 5e-05 1.46608e-10 
99 1 0.161981 0.0169159 0.00755992 0.00553897 -0.000308003 -1.32713e-05 -8.56467e-12 2.91295e-11 9.0785e-11 5e-05 1.46608e-10 
100 1 0.168325 0.0172325 0.00758897 0.00597676 -0.00112426 0.0011462 5.34607e-11 5.53967e-11 -3.46266e-12 5e-05 1.46608e-10 
101 1 0.161771 0.0161094 0.0081032 0.00606118 2.4421e-05 0.000441422 -9.55224e-11 1.63981e-10 -2.18948e-10 5e-05 1.46608e-10 
102 1 0.0643568 0.0187248 0.00531097 4.36489e-15 1.04722e-14 8.29584e-14 8.41928e-22 -5.8081e-22 2.7297e-23 5e-05 1.46608e-10 
103 1 0.24257 0.0191927 0.00520306 -2.99552e-22 2.24983e-22 -5.81428e-22 0 0 0 5e-05 1.46608e-10 
104 1 0.162241 0.0176998 0.00726982 0.00574983 -0.000220247 9.51681e-05 -5.67086e-11 4.61737e-12 -5.79055e-11 5e-05 1.46608e-10 
105 1 0.162169 0.0165311 0.0075702 0.0056652 -5.40262e-05 0.000203883 4.14997e-11 -1.19506e-10 1.26525e-10 5e-05 1.46608e-10 
106 1 0.162118 0.016689 0.00751126 0.00556593 -0.000237071 -2.00053e-05 5.53389e-11 -2.04203e-11 -2.26912e-11 5e-05 1.46608e-10 
107 1 0.162075 0.0165088 0.00759734 0.00566658 -7.3991e-05 0.000223312 -9.4852e-11 -2.9318e-11 4.67307e-12 5e-05 1.46608e-10 
108 1 0.168211 0.0179607 0.0073665 0.00528816 -0.00110321 0.000247587 -8.29539e-11 -1.90844e-10 1.41257e-10 5e-05 1.46608e-10 
109 1 0.167823 0.0162275 0.00787513 0.00578415 -0.00114875 0.000509551 -2.91348e-09 3.68637e-10 2.40474e-11 5e-05 1.46608e-10 
110 1 0.167938 0.0167514 0.00771502 0.00557359 -0.000911608 0.00107574 -1.55219e-10 -3.03358e-10 9.48897e-11 5e-05 1.46608e-10 
111 1 0.168071 0.0169568 0.00763042 0.00546376 -0.000914559 0.0010163 -2.16978e-11 1.50438e-10 3.40631e-12 5e-05 1.46608e-10 
112 1 0.162495 0.0176118 0.00728633 0.00579375 -0.000284366 -1.51764e-05 -7.61362e-12 1.54861e-10 8.74596e-11 5e-05 1.46608e-10 
113 1 0.1621 0.0171485 0.00740215 0.00544248 -0.000138178 -4.67946e-05 -3.81728e-11 -2.05061e-11 -5.90096e-12 5e-05 1.46608e-10 
114 1 0.16229 0.0183273 0.00709605 0.00589759 -0.000222442 0.000436234 -2.86846e-11 -7.5849e-11 1.1055e-11 5e-05 1.46608e-10 
115 1 0.168116 0.0167308 0.00771702 0.00552974 -0.000998119 0.00104991 1.73491e-10 9.80483e-11 -5.91865e-11 5e-05 1.46608e-10 
116 1 0.16819 0.0178666 0.00739327 0.00529827 -0.000911484 0.000988191 1.19536e-10 1.57589e-10 -1.63775e-11 5e-05 1.46608e-10 
117 1 0.168447 0.0170107 0.00766775 0.00580782 -0.00134876 0.00118502 3.54444e-10 -3.51816e-11 4.9096e-11 5e-05 1.46608e-10 
118 1 0.162206 0.0179496 0.00719812 0.00574036 -0.000218674 0.000425139 -2.21965e-12 2.31316e-11 2.95438e-12 5e-05 1.46608e-10 
119 1 0.168029 0.016344 0.00779556 0.00535574 -0.000906063 0.000992364 -2.72659e-10 3.55924e-10 -1.25151e-10 5e-05 1.46608e-10 
120 1 0.167861 0.0160892 0.00811442 0.00599163 -0.00127474 0.000659588 -4.0089e-10 2.31351e-10 -6.93237e-10 5e-05 1.46608e-10 
121 1 0.167683 0.0159134 0.00847981 0.00560241 -0.00103461 0.000338588 8.51571e-10 -7.87243e-10 1.31146e-09 5e-05 1.46608e-10 
122 1 0.167944 0.016647 0.00779048 0.00561774 -0.000957345 0.000998719 4.58124e-11 -1.4074e-10 -3.13441e-11 5e-05 1.46608e-10 
123 1 0.162165 0.0177608 0.00724918 0.00567065 -0.000196985 0.000417451 3.52321e-11 7.73597e-11 2.1583e-12 5e-05 1.46608e-10 
124 1 0.16797 0.0168939 0.00772319 0.0056202 -0.000891721 0.00103187 7.37605e-11 7.37585e-11 6.89993e-11 5e-05 1.46608e-10 
125 1 0.16847 0.0171064 0.00764435 0.00591953 -0.00125271 0.00117321 -5.18645e-11 -4.00826e-11 2.10084e-13 5e-05 1.46608e-10 
126 1 0.167804 0.0161863 0.00796427 0.00585293 -0.00109026 0.000554751 -4.58907e-10 -3.30586e-10 6.1278e-10 5e-05 1.46608e-10 
127 1 0.162192 0.016623 0.00752591 0.00556125 -0.000241949 -2.26848e-05 1.06525e-10 3.41147e-11 7.36676e-11 5e-05 1.46608e-10 
128 1 0.167995 0.0165954 0.00772203 0.00541351 -0.00105382 0.000899259 -1.76795e-10 -2.88083e-10 4.27422e-12 5e-05 1.46608e-10 
129 1 0.168105 0.0173742 0.00760688 0.00594053 -0.00102758 0.00112741 -1.04091e-10 1.1788e-10 3.19553e-11 5e-05 1.46608e-10 
131 1 0.162213 0.0167195 0.00750266 0.00556263 -0.000240486 -2.14405e-05 2.2134e-11 6.82831e-11 -7.87317e-12 5e-05 1.46608e-10 
132 1 0.168156 0.0172143 0.00765289 0.00593137 -0.00107861 0.00113537 2.06339e-10 -5.99207e-10 -9.34821e-11 5e-05 1.46608e-10 
133 1 0.168168 0.0175185 0.00757324 0.00571692 -0.000863482 0.00124792 3.33879e-11 -1.64106e-10 2.18974e-11 5e-05 1.46608e-10 
134 1 0.167934 0.0163099 0.00779181 0.00542955 -0.000863915 0.000971414 2.55694e-10 6.45691e-10 3.36078e-10 5e-05 1.46608e-10 
135 1 0.167559 0.0156432 0.00900077 0.00541332 -0.000988828 0.000322485 1.05349e-10 5.48802e-10 -8.44155e-10 5e-05 1.46608e-10 
136 1 0.16231 0.0184217 0.00707052 0.00593808 -0.000227769 0.00044076 -3.32673e-11 -8.68256e-11 1.69892e-11 5e-05 1.46608e-10 
137 1 0.167879 0.0164653 0.00774091 0.00545794 -0.000925581 0.00104896 -1.14331e-10 7.94379e-10 -6.49982e-10 5e-05 1.46608e-10 
138 1 0.168257 0.0177289 0.00744091 0.00527671 -0.000872059 0.000978895 -1.46512e-11 -6.10677e-11 4.79588e-11 5e-05 1.46608e-10 
140 1 0.168091 0.0170522 0.00760661 0.00541801 -0.000947479 0.00101685 8.38702e-11 2.3673e-11 -4.39833e-11 5e-05 1.46608e-10 
141 1 0.162306 0.017985 0.00719434 0.00575568 -0.000236417 0.000431483 -1.59052e-11 -1.11229e-11 1.02457e-11 5e-05 1.46608e-10 
142 1 0.162144 0.0176664 0.0072747 0.00562224 -0.000186344 0.000405555 6.84704e-11 2.87155e-11 2.49657e-12 5e-05 1.46608e-10 
143 1 0.161663 0.0158006 0.00848132 0.00596996 4.57354e-05 0.000406243 1.24903e-10 3.01368e-11 2.22774e-11 5e-05 1.46608e-10 
144 1 0.162248 0.018137 0.00714749 0.00581378 -0.000221628 0.000429983 -7.40325e-11 -1.7953e-10 3.19599e-11 5e-05 1.46608e-10 
147 1 0.16242 0.0176767 0.00727195 0.00583156 -0.000232706 -2.42855e-05 4.80409e-11 1.41864e-10 -2.26205e-11 5e-05 1.46608e-10 
148 1 0.161835 0.0162944 0.0078758 0.00568444 3.31619e-05 0.000341264 2.64588e-10 -1.59866e-10 -1.83505e-10 5e-05 1.46608e-10 
149 1 0.168051 0.0168616 0.00765428 0.00551493 -0.000923508 0.00102721 1.40146e-11 2.22947e-10 -3.17617e-11 5e-05 1.46608e-10 
150 1 0.0100679 0.0201683 0.00551526 8.38416e-15 1.24286e-15 -8.48745e-14 2.86928e-24 2.18524e-23 4.1359e-25 5e-05 1.46608e-10 
151 1 0.162178 0.0174128 0.00733817 0.00542137 -0.00018248 -2.12363e-05 5.28473e-11 -2.6847e-11 5.84227e-12 5e-05 1.46608e-10 
153 1 0.162501 0.0180575 0.00718019 0.00596228 -0.000221938 -3.00765e-05 -3.91814e-11 1.00633e-10 -3.46799e-11 5e-05 1.46608e-10 
154 1 0.162228 0.0180482 0.00718933 0.00576314 -0.000214309 0.000422825 6.10866e-12 -1.84064e-11 4.10071e-11 5e-05 1.46608e-10 
155 1 0.161855 0.0163727 0.00781704 0.00574789 -1.83038e-05 0.000287667 -1.78984e-10 9.54184e-11 -8.7126e-11 5e-05 1.46608e-10 
156 1 0.162263 0.0177952 0.00724557 0.00569816 -0.000217568 0.000421505 -1.68772e-10 4.04376e-11 -3.76346e-11 5e-05 1.46608e-10 
157 1 0.0219312 0.0187687 0.00551176 -3.83011e-14 8.16921e-14 2.95885e-13 -1.00425e-22 -2.65318e-22 6.12114e-23 5e-05 1.46608e-10 
158 1 0.162423 0.0172442 0.00737483 0.00541314 -0.000193298 -2.97008e-05 3.01511e-11 5.29904e-11 1.74e-13 5e-05 1.46608e-10 
159 1 0.168398 0.01717 0.00761658 0.00597593 -0.00116208 0.00115641 1.0031e-11 3.22559e-11 1.17609e-11 5e-05 1.46608e-10 
160 1 0.162284 0.0178907 0.00721979 0.0057237 -0.00023822 0.000428581 -1.49875e-10 -9.93578e-11 2.62898e-11 5e-05 1.46608e-10 
162 1 0.162365 0.0178343 0.00723819 0.00588992 -0.000225101 -0.00022454 -1.08401e-10 -8.39878e-11 -2.49318e-10 5e-05 1.46608e-10 
164 1 0.162064 0.0168495 0.00747433 0.00556063 -0.00025019 -8.62771e-05 -8.56564e-11 -2.69677e-11 -3.44282e-11 5e-05 1.46608e-10 
165 1 0.162261 0.0173588 0.0073517 0.00543511 -0.000162335 -5.82545e-05 6.00684e-11 -5.68823e-11 4.417e-11 5e-05 1.46608e-10 
166 1 0.16831 0.0179495 0.00736711 0.00562611 0.0018014 -0.00100976 -2.17109e-10 2.57352e-10 -3.87295e-11 5e-05 1.46608e-10 
168 1 0.162139 0.0167847 0.0074882 0.00556554 -0.000234162 -2.35586e-05 -7.20856e-11 3.43452e-11 -6.06333e-11 5e-05 1.46608e-10 
169 1 0.162044 0.0171992 0.00747516 0.00538745 -0.000223938 -5.62793e-05 4.91172e-11 -6.91178e-12 -2.55606e-11 5e-05 1.46608e-10 
170 1 0.162253 0.0169123 0.00745621 0.00554483 -0.000262818 -1.57733e-05 1.31174e-11 3.79418e-11 -3.9675e-12 5e-05 1.46608e-10 
171 1 0.16817 0.0177717 0.00741685 0.00526294 -0.000896822 0.00098591 -7.93505e-11 -9.84181e-11 -7.51708e-11 5e-05 1.46608e-10 
172 1 0.162213 0.0173536 0.00743875 0.00541711 -0.000184322 -6.49348e-05 -1.04117e-10 -9.39913e-11 9.03056e-11 5e-05 1.46608e-10 
173 1 0.168228 0.0171991 0.00758563 0.00593643 -0.00112622 0.00113929 4.11204e-10 -4.3029e-11 9.31255e-11 5e-05 1.46608e-10 
174 1 0.162098 0.0165953 0.00754242 0.00557365 -0.000228824 1.89892e-05 1.36622e-10 -2.12535e-11 1.25525e-10 5e-05 1.46608e-10 
175 1 0.155963 0.0168038 0.00749797 0.00577634 0.000453186 2.15405e-06 1.54791e-10 -8.32902e-12 2.43991e-12 5e-05 1.46608e-10 
177 1 0.1621 0.0170413 0.00743036 0.00553422 -0.000212643 -3.224e-05 -7.64685e-11 9.86397e-12 -2.5153e-11 5e-05 1.46608e-10 
178 1 0.162194 0.0170747 0.00741841 0.00551605 -0.000168494 -3.77374e-05 -2.18747e-11 -1.78041e-10 5.60757e-12 5e-05 1.46608e-10 
179 1 0.162245 0.0172626 0.00737313 0.00543204 -0.000157228 -5.07846e-05 1.38411e-10 -6.19358e-11 -5.2905e-11 5e-05 1.46608e-10 
181 1 0.1624 0.0175815 0.00729489 0.00576982 -0.000231575 -3.23536e-05 -4.47685e-11 7.5565e-11 8.65807e-11 5e-05 1.46608e-10 
182 1 0.168149 0.0176767 0.00744044 0.00522443 -0.000884312 0.0009741 8.2761e-11 -1.32609e-10 8.2712e-11 5e-05 1.46608e-10 
183 1 0.162234 0.0168153 0.00747956 0.00556133 -0.000242378 -2.05008e-05 -1.39115e-11 9.53228e-11 -2.23511e-11 5e-05 1.46608e-10 
184 1 0.168117 0.0171491 0.00758327 0.00612604 -0.00103459 0.00113845 -4.02925e-11 -1.27659e-10 -2.90729e-12 5e-05 1.46608e-10 
186 1 0.162123 0.0175719 0.00730025 0.00538186 -0.000137753 0.000373441 -9.87471e-11 -6.22625e-11 7.98014e-12 5e-05 1.46608e-10 
187 1 0.168085 0.0173934 0.00751068 0.00593537 -0.00103977 0.00111875 1.08841e-10 -6.97427e-12 3.87488e-11 5e-05 1.46608e-10 
188 1 0.167912 0.0163761 0.00786367 0.00542857 -0.000887799 0.000991453 3.46724e-12 -9.80445e-11 -1.80061e-10 5e-05 1.46608e-10 
189 1 0.168195 0.0174419 0.00751241 0.00597604 -0.00100194 0.00110789 -1.95891e-10 -1.18287e-12 -7.4246e-11 5e-05 1.46608e-10 
190 1 0.156232 0.0176558 0.00719063 0.00561647 0.000376027 -0.000698282 9.85101e-12 -2.40896e-11 -1.57813e-12 5e-05 1.46608e-10 
191 1 0.167891 0.0165655 0.00781677 0.00543498 -0.000875513 0.00101482 -8.10125e-11 2.96198e-12 1.45087e-10 5e-05 1.46608e-10 
192 1 0.162472 0.0170713 0.00741528 0.00546128 -0.000124336 -4.76415e-05 7.60754e-11 5.36638e-11 -1.91224e-11 5e-05 1.46608e-10 
193 1 0.168124 0.0163786 0.00779916 0.00541476 -0.000866068 0.000995101 -1.7639e-10 2.17336e-10 -1.02991e-10 5e-05 1.46608e-10 
194 1 0.161461 0.0182058 0.00533758 1.4716e-15 -1.1019e-14 8.66686e-14 4.87558e-22 1.11178e-22 6.82424e-24 5e-05 1.46608e-10 
195 1 0.162338 0.0172961 0.00736367 0.00542956 -0.000167848 -3.69022e-05 1.51475e-10 -2.56383e-11 1.70469e-11 5e-05 1.46608e-10 
196 1 0.161984 0.0165022 0.00764055 0.00566515 -0.000124885 0.000162201 -5.95599e-11 8.42449e-11 1.69862e-10 5e-05 1.46608e-10 
197 1 0.156022 0.0170681 0.00736892 0.00560038 0.000485679 -2.0424e-05 -4.69515e-12 4.24515e-11 -2.33387e-11 5e-05 1.46608e-10 
198 1 0.162389 0.0183631 0.0070921 0.00597121 -0.000192067 0.000432559 -1.09716e-10 -1.13355e-10 2.97092e-11 5e-05 1.46608e-10 
199 1 0.162345 0.0181809 0.00715982 0.005914 -0.000179369 0.000426317 4.19602e-11 3.02245e-11 1.85874e-11 5e-05 1.46608e-10 
201 1 0.162054 0.0172349 0.00738226 0.00538418 -0.00016916 -3.58461e-05 2.13053e-11 9.28454e-11 -3.72738e-12 5e-05 1.46608e-10 
202 1 0.162303 0.0175486 0.00730408 0.00565252 -0.00021828 -2.59759e-05 3.45289e-11 -6.70412e-11 -7.46721e-11 5e-05 1.46608e-10 
203 1 0.167956 0.016826 0.00765108 0.00559235 -0.000926929 0.0010566 2.49344e-11 -2.27307e-10 1.02155e-10 5e-05 1.46608e-10 
204 1 0.161728 0.0159859 0.00825444 0.00601196 3.65441e-05 0.000424405 -3.28571e-11 2.80562e-11 -1.08672e-10 5e-05 1.46608e-10 
205 1 0.162397 0.0171358 0.00740099 0.00544446 -0.000136792 -4.4533e-05 -4.85617e-11 -6.68842e-11 2.23196e-11 5e-05 1.46608e-10 
206 1 0.162024 0.0166608 0.00752647 0.00556927 -0.000235161 -5.53686e-06 4.36032e-11 3.47981e-11 2.15239e-10 5e-05 1.46608e-10 
207 1 0.162124 0.0170063 0.0075209 0.00553769 -0.000233177 -3.92043e-05 -9.39468e-11 -1.03521e-10 -1.42938e-11 5e-05 1.46608e-10 
208 1 0.162203 0.0177581 0.00734153 0.00598376 -0.000261149 0.000286623 3.1272e-11 3.67453e-11 2.67668e-11 5e-05 1.46608e-10 
209 1 0.159032 0.0173862 0.00726821 0.00589437 0.00136429 -0.00093717 1.21104e-13 -2.28688e-12 1.08726e-12 5e-05 1.46608e-10 
210 1 0.168169 0.0173441 0.00753602 0.00593989 -0.00107672 0.00113083 2.26697e-11 -3.82262e-11 6.76517e-11 5e-05 1.46608e-10 
211 1 0.168062 0.0173021 0.00754437 0.00593429 -0.00103146 0.00111701 6.00846e-11 -6.03961e-11 1.17921e-10 5e-05 1.46608e-10 
212 1 0.162359 0.0173912 0.00734076 0.0055286 -0.000188296 -3.33541e-05 1.41006e-10 9.91493e-12 -2.74631e-12 5e-05 1.46608e-10 
213 1 0.168236 0.017634 0.0074645 0.00524111 -0.00086767 0.000971038 2.5685e-10 -8.69877e-11 6.00298e-11 5e-05 1.46608e-10 
214 1 0.167995 0.0170163 0.00760328 0.00546923 -0.000908953 0.00101444 -3.02345e-10 -9.02503e-11 -2.98413e-11 5e-05 1.46608e-10 
215 1 0.156177 0.0178197 0.00719066 0.00587298 0.000261813 -0.000723815 -5.24762e-12 1.48405e-11 3.11282e-12 5e-05 1.46608e-10 
216 1 0.1623 0.0172792 0.00745456 0.00541566 -0.000127558 -3.85785e-05 1.2451e-10 -1.04292e-11 1.30664e-11 5e-05 1.46608e-10 
217 1 0.16841 0.0179414 0.0073664 0.00586918 0.00493827 -0.00234461 -3.6869e-11 -3.37326e-11 -1.06969e-10 5e-05 1.46608e-10 
218 1 0.161869 0.0164082 0.00772459 0.00573735 -8.09403e-05 0.000254935 -7.09528e-11 -7.31627e-11 -1.06072e-10 5e-05 1.46608e-10 
219 1 0.16803 0.016764 0.00767853 0.00556526 -0.000955995 0.00104602 8.4975e-11 -4.1706e-12 1.02134e-10 5e-05 1.46608e-10 
220 1 0.162282 0.0174535 0.00732701 0.00542925 -0.000165226 -4.55869e-05 6.36011e-12 -3.19491e-11 6.22597e-11 5e-05 1.46608e-10 
221 1 0.222089 0.0173304 0.00715552 0.005852 0.000956036 -0.000363605 1.45971e-12 2.71245e-13 -1.19482e-13 5e-05 1.46608e-10 
222 1 0.168327 0.0168865 0.00768579 0.0055653 -0.0011813 0.00110525 7.70654e-11 5.82858e-10 -1.5362e-10 5e-05 1.46608e-10 
223 1 0.16222 0.0176038 0.00729235 0.00561678 -0.000284974 -6.39203e-06 1.83657e-11 4.99304e-11 5.08582e-10 5e-05 1.46608e-10 
224 1 0.132701 0.017266 0.00803296 3.23033e-10 -0.0214269 0.0110321 1.33085e-18 9.99443e-12 1.94277e-11 5e-05 1.46608e-10 
225 1 0.167975 0.0164999 0.00774454 0.00541701 -0.000903238 0.00100948 -7.76188e-11 -2.42441e-11 3.1154e-11 5e-05 1.46608e-10 
226 1 0.16217 0.0174441 0.00743279 0.00551144 -0.000130845 -2.6071e-05 -3.24797e-11 -6.50593e-11 1.99118e-11 5e-05 1.46608e-10 
227 1 0.156193 0.0174596 0.0072032 0.00565941 0.000316865 -0.000697234 -1.00455e-11 2.17621e-11 4.64607e-11 5e-05 1.46608e-10 
228 1 0.155983 0.0168919 0.00745496 0.00571955 0.000462168 -4.60928e-06 4.84373e-11 5.40303e-11 -2.14436e-11 5e-05 1.46608e-10 
229 1 0.162454 0.0174213 0.00733223 0.00558228 -0.000335715 8.21224e-07 1.48015e-10 1.62508e-10 -3.40059e-11 5e-05 1.46608e-10 
230 1 0.162007 0.0170068 0.00743721 0.0055477 -0.000244203 -2.03227e-05 -3.1785e-11 -7.59395e-11 4.01022e-11 5e-05 1.46608e-10 
231 1 0.155961 0.0167142 0.00754242 0.00582001 0.000451131 3.95284e-06 -2.80114e-12 -4.48729e-11 2.86604e-11 5e-05 1.46608e-10 
232 1 0.162407 0.0180237 0.00718959 0.00600068 -0.000188933 -2.15829e-05 -9.17463e-11 1.19033e-10 -9.46869e-11 5e-05 1.46608e-10 
234 1 0.168204 0.0174072 0.00760581 0.00596967 -0.00102018 0.00108636 -6.96547e-11 1.09189e-10 -4.36407e-11 5e-05 1.46608e-10 
235 1 0.162271 0.0170123 0.00743216 0.00553585 -0.000195805 -3.15388e-05 -7.99672e-11 -6.42822e-11 2.81467e-11 5e-05 1.46608e-10 
236 1 0.161987 0.0169115 0.00746016 0.00553278 -0.000260891 -1.42765e-05 -6.4449e-11 -7.71832e-11 5.4725e-11 5e-05 1.46608e-10 
237 1 0.161947 0.016721 0.00750606 0.00555964 -0.000257581 -2.1407e-05 5.07305e-11 2.35736e-10 -1.15352e-11 5e-05 1.46608e-10 
239 1 0.155789 0.0161216 0.00800672 0.00622865 -0.00018713 -0.000469645 5.57909e-11 -2.51856e-12 1.57952e-10 5e-05 1.46608e-10 
240 1 0.155807 0.0161718 0.00792216 0.00572347 -0.000104317 -0.000525902 -2.43051e-12 -1.79285e-11 1.13957e-10 5e-05 1.46608e-10 
241 1 0.155863 0.0163715 0.00770896 0.00591555 0.000413818 2.87547e-05 -3.2639e-11 1.52704e-11 -9.77212e-11 5e-05 1.46608e-10 
242 1 0.162186 0.0178552 0.00722365 0.00570623 -0.000203995 0.000419129 -5.12523e-11 5.09393e-11 -8.1843e-12 5e-05 1.46608e-10 
244 1 0.155826 0.0162256 0.00783992 0.00508795 0.000154315 -0.000486116 1.21129e-11 6.54147e-11 -5.12312e-11 5e-05 1.46608e-10 
246 1 0.155924 0.0166305 0.00758257 0.00587552 0.000426005 1.98402e-05 4.03989e-11 -7.4432e-11 5.28864e-11 5e-05 1.46608e-10 
247 1 0.16238 0.0174863 0.00731782 0.00567841 -0.000218372 -2.96002e-05 7.20004e-11 3.72223e-11 1.86418e-13 5e-05 1.46608e-10 
248 1 0.162025 0.0171041 0.00745068 0.0054938 -0.000222399 -3.48585e-05 -7.61461e-11 -4.27771e-11 2.90564e-11 5e-05 1.46608e-10 
249 1 0.156157 0.017722 0.00719706 0.00558117 0.000330742 -0.000691735 -1.49577e-11 3.64478e-11 -9.36407e-13 5e-05 1.46608e-10 
250 1 0.161917 0.0166081 0.00762693 0.00556664 0.000105005 3.52717e-05 -4.27571e-11 -1.80953e-10 8.90875e-12 5e-05 1.46608e-10 
251 1 0.167976 0.0169211 0.00762714 0.0055288 -0.00091627 0.00102928 -1.24276e-10 -1.66131e-10 4.69873e-11 5e-05 1.46608e-10 
252 1 0.156061 0.0172442 0.00728289 0.00562291 0.000478397 -1.65508e-05 -9.18096e-12 -3.66968e-11 2.86213e-11 5e-05 1.46608e-10 
253 1 0.156306 0.0175897 0.00718419 0.00563808 0.000405717 -0.000701922 3.88157e-11 -6.72567e-11 -9.2421e-12 5e-05 1.46608e-10 
254 1 0.155903 0.0165426 0.0076255 0.0059143 0.000410318 2.89039e-05 9.82561e-11 -2.49264e-11 5.00228e-11 5e-05 1.46608e-10 
255 1 0.162328 0.0180808 0.00716852 0.00577143 -0.000266107 0.000440448 9.25917e-11 -5.58735e-11 2.04304e-11 5e-05 1.46608e-10 
256 1 0.162369 0.0170426 0.00742357 0.00547005 -0.000141535 -4.35959e-05 -6.44582e-11 -7.28187e-11 1.3078e-11 5e-05 1.46608e-10 
257 1 0.162163 0.0171694 0.00748012 0.0054644 -0.000175635 -4.23827e-05 -6.35049e-11 7.31905e-11 -2.03676e-11 5e-05 1.46608e-10 
258 1 0.162161 0.017317 0.0073612 0.0053948 -0.000176289 -3.88849e-05 9.20686e-11 6.43261e-11 -4.65197e-11 5e-05 1.46608e-10 
259 1 0.15608 0.0173325 0.00723971 0.00564562 0.000472225 -1.21852e-05 4.73672e-11 -2.61741e-11 3.57053e-11 5e-05 1.46608e-10 
261 1 0.162216 0.0171694 0.00739554 0.00546077 -0.000159591 -4.05431e-05 2.62454e-11 -1.02477e-10 -4.29869e-12 5e-05 1.46608e-10 