ITEM: TIMESTEP
39000000
ITEM: NUMBER OF ATOMS
271
ITEM: BOX BOUNDS ff ff ff
-0.02 0.43
-0.02 0.06
-0.02 0.07
ITEM: ATOMS id type x y z vx vy vz fx fy fz radius mass 
1 1 0.239887 0.0154992 0.00871531 0.00593235 -1.60684e-05 0.00116156 -9.9167e-12 -7.94711e-11 9.30215e-11 5e-05 1.46608e-10 
2 1 0.240681 0.0178843 0.0069891 0.00586161 -0.000756897 0.000253096 -4.87905e-12 -2.84777e-11 1.20988e-12 5e-05 1.46608e-10 
3 1 0.234971 0.0183975 0.00690857 0.00619414 -0.000545697 0.000116735 -1.07326e-10 -9.25786e-11 2.31156e-11 5e-05 1.46608e-10 
4 1 0.240757 0.0178179 0.00700111 0.00569207 -0.000674786 0.000444472 -1.98908e-11 2.32006e-11 1.3201e-11 5e-05 1.46608e-10 
5 1 0.239865 0.0154254 0.00877933 0.00594324 -2.72324e-05 0.00116832 -1.4491e-10 -2.69258e-11 3.28651e-11 5e-05 1.46608e-10 
6 1 0.246296 0.0170049 0.00756024 0.00539454 1.61937e-05 -2.77919e-05 4.53103e-13 2.18814e-13 -1.03464e-14 5e-05 1.46608e-10 
7 1 0.239974 0.015794 0.00845969 0.0058715 1.44562e-06 0.00112455 -2.23862e-11 -1.4267e-10 1.24324e-10 5e-05 1.46608e-10 
8 1 0.239844 0.0153537 0.00884557 0.00596391 -0.000177142 0.00102329 5.91683e-11 -1.42537e-10 -1.81462e-10 5e-05 1.46608e-10 
9 1 0.246408 0.0174591 0.00718605 0.00562073 -1.9457e-05 8.72306e-07 -6.10133e-14 2.03715e-12 1.09369e-12 5e-05 1.46608e-10 
10 1 0.240391 0.0173698 0.00718223 0.00554602 -0.000524946 0.000367258 6.5743e-12 -4.6837e-11 -5.19424e-12 5e-05 1.46608e-10 
11 1 0.240525 0.0175682 0.00706906 0.00555663 -0.000563836 0.00038615 1.77242e-10 3.83045e-11 1.28355e-11 5e-05 1.46608e-10 
12 1 0.234035 0.0159204 0.00819119 0.00558125 -0.00050297 -3.9995e-05 8.40437e-11 1.41252e-11 -5.89186e-11 5e-05 1.46608e-10 
13 1 0.239778 0.0151689 0.00907251 0.00594144 -0.000538803 0.000728418 3.58989e-11 1.76894e-10 -2.44876e-10 5e-05 1.46608e-10 
14 1 0.234695 0.0187579 0.00683834 0.00556342 -0.000315974 7.15231e-05 -2.24497e-10 -2.30391e-10 1.82473e-11 5e-05 1.46608e-10 
15 1 0.240736 0.0177216 0.00701824 0.00559859 -0.000657031 0.000435212 3.703e-12 8.63435e-12 -2.31579e-11 5e-05 1.46608e-10 
16 1 0.234789 0.0187899 0.0068323 0.00554897 -0.000287445 6.47395e-05 -2.22562e-10 -6.16861e-11 2.90951e-11 5e-05 1.46608e-10 
17 1 0.240852 0.0178477 0.00699161 0.00569047 -0.000768097 0.000107489 1.41718e-11 -4.66008e-11 -1.17377e-11 5e-05 1.46608e-10 
19 1 0.239822 0.0152887 0.00891839 0.00596889 -0.000436814 0.000800359 1.37147e-10 -1.02476e-10 -2.67491e-10 5e-05 1.46608e-10 
21 1 0.240352 0.0171999 0.00728034 0.00551724 -0.00043661 0.000475791 -2.91609e-11 -9.85406e-11 -1.48975e-10 5e-05 1.46608e-10 
22 1 0.240505 0.0174832 0.00711799 0.00553759 -0.00055424 0.000384355 2.00083e-10 1.68886e-11 2.31372e-11 5e-05 1.46608e-10 
23 1 0.23426 0.0163965 0.00767978 0.00564857 -0.000235408 0.00019921 -4.86725e-11 -5.91311e-11 4.57563e-11 5e-05 1.46608e-10 
24 1 0.246483 0.0178024 0.00703632 0.00564428 -2.29374e-05 1.01148e-05 -5.33085e-13 7.78664e-13 3.2639e-12 5e-05 1.46608e-10 
25 1 0.240039 0.016018 0.00827097 0.00581524 9.05221e-07 0.00111813 -5.4733e-13 -6.2839e-11 1.18462e-11 5e-05 1.46608e-10 
26 1 0.246371 0.0173082 0.00731042 0.00553646 -4.75055e-06 -1.07417e-05 8.32744e-13 -4.97701e-12 -6.3764e-12 5e-05 1.46608e-10 
27 1 0.235053 0.0187898 0.00683278 0.00614217 5.99969e-05 -2.09656e-06 -3.87575e-10 3.55052e-10 -1.00276e-10 5e-05 1.46608e-10 
28 1 0.24064 0.017692 0.00702505 0.00554076 -0.000663429 0.000237785 4.20771e-11 1.92768e-11 5.40297e-13 5e-05 1.46608e-10 
29 1 0.239994 0.015868 0.00839537 0.00584802 2.09726e-06 0.00112034 -4.55647e-11 -1.08804e-10 9.31352e-11 5e-05 1.46608e-10 
30 1 0.240485 0.0176912 0.00711383 0.00563877 -0.000527338 0.000231989 1.6074e-10 1.61943e-10 1.03537e-10 5e-05 1.46608e-10 
31 1 0.240059 0.0160891 0.00820349 0.00580174 -7.09134e-07 0.00111625 1.05458e-11 -3.31487e-11 -1.53031e-11 5e-05 1.46608e-10 
32 1 0.240494 0.0170201 0.00742658 0.00545666 -6.78986e-05 0.00110944 -2.45832e-11 8.71834e-11 -1.87854e-10 5e-05 1.46608e-10 
33 1 0.246315 0.0170807 0.00749777 0.00543239 1.06589e-05 -2.32067e-05 2.11746e-12 -2.12946e-14 -3.91889e-13 5e-05 1.46608e-10 
34 1 0.239951 0.0157204 0.00852328 0.00587708 -8.93885e-07 0.00112699 -1.19872e-10 -1.56638e-10 1.33501e-10 5e-05 1.46608e-10 
35 1 0.240656 0.0173702 0.00718499 0.00552102 -0.000522424 0.000364627 -1.89779e-10 -9.70285e-11 8.80368e-11 5e-05 1.46608e-10 
36 1 0.246464 0.0177042 0.00703312 0.00568853 -3.13246e-05 9.85802e-06 -8.81181e-14 -1.03885e-13 -9.54815e-12 5e-05 1.46608e-10 
37 1 0.24053 0.0180145 0.00697935 0.00592434 -0.000678551 0.000382668 1.24528e-10 -1.57015e-10 -1.67282e-10 5e-05 1.46608e-10 
38 1 0.240696 0.0183456 0.00700766 0.00600171 -0.000660829 0.000492137 -1.61962e-11 5.54349e-12 -6.72952e-13 5e-05 1.46608e-10 
39 1 0.246501 0.0179007 0.00703953 0.00560013 -1.49619e-05 1.02095e-05 3.16088e-13 5.65689e-13 -8.38963e-13 5e-05 1.46608e-10 
41 1 0.240873 0.0179453 0.00698704 0.00585447 -0.00078687 0.000467299 -9.27447e-12 -2.62777e-11 2.33436e-11 5e-05 1.46608e-10 
42 1 0.321436 0.0173475 0.00552525 4.56835e-16 2.2566e-15 8.4636e-14 -3.89082e-23 -5.55762e-25 2.06795e-25 5e-05 1.46608e-10 
44 1 0.24066 0.0177876 0.00700414 0.00568262 -0.000733756 0.000104177 5.10186e-11 4.97452e-12 2.98821e-12 5e-05 1.46608e-10 
45 1 0.246334 0.0171565 0.00743532 0.00547023 4.92328e-06 -1.88323e-05 -1.04376e-12 -1.06561e-12 -8.24637e-13 5e-05 1.46608e-10 
47 1 0.239908 0.0155729 0.0086513 0.00590204 -9.81473e-06 0.00114486 -2.51503e-11 -1.14241e-10 1.23231e-10 5e-05 1.46608e-10 
48 1 0.240674 0.0182486 0.00699673 0.00602346 -0.000672038 0.000493477 2.36859e-11 1.79775e-11 6.67751e-12 5e-05 1.46608e-10 
50 1 0.240102 0.0162365 0.00807537 0.00575527 2.49652e-06 0.00110384 1.45263e-11 3.4285e-11 -7.7247e-11 5e-05 1.46608e-10 
51 1 0.24008 0.0161627 0.00813939 0.00578228 -6.781e-07 0.00111112 -4.21716e-12 2.48216e-11 -1.64254e-11 5e-05 1.46608e-10 
52 1 0.233954 0.015703 0.00851444 0.00602637 -0.000684192 -7.14372e-05 -1.04217e-10 1.41751e-10 -1.86605e-10 5e-05 1.46608e-10 
53 1 0.246454 0.0176092 0.00706245 0.00567509 -2.98382e-05 1.00089e-05 1.89849e-12 4.31014e-12 5.74572e-12 5e-05 1.46608e-10 
54 1 0.240646 0.0179988 0.00705695 0.00601958 -0.000740889 0.000487153 4.30097e-11 -1.1794e-10 -3.77427e-11 5e-05 1.46608e-10 
55 1 0.233887 0.0155492 0.00876308 0.00594446 -0.000674173 -7.08594e-05 -3.77928e-11 1.75569e-10 -2.6742e-10 5e-05 1.46608e-10 
56 1 0.24055 0.0181123 0.00697267 0.00605989 -0.00069629 0.000497269 -3.38831e-11 -1.3297e-10 -1.15455e-11 5e-05 1.46608e-10 
57 1 0.246352 0.0172324 0.00737284 0.00550804 -5.53098e-07 -1.42423e-05 1.54533e-12 3.40298e-12 3.94428e-12 5e-05 1.46608e-10 
59 1 0.240486 0.0173982 0.00716689 0.00553848 -0.000545369 0.000376115 4.43824e-11 -1.11253e-11 5.78109e-11 5e-05 1.46608e-10 
61 1 0.240362 0.0168413 0.00756648 0.00541888 -5.08877e-05 0.0010879 -1.28849e-10 3.97556e-11 -1.35301e-10 5e-05 1.46608e-10 
62 1 0.240823 0.0181143 0.006998 0.00596333 -0.00074304 0.000480939 1.90434e-11 -2.10494e-11 -2.62736e-13 5e-05 1.46608e-10 
63 1 0.240831 0.0177512 0.00700985 0.00561633 -0.000802654 0.000113613 -5.04834e-11 -7.88728e-13 3.18204e-11 5e-05 1.46608e-10 
64 1 0.246523 0.0179983 0.00704272 0.0060939 -0.000124221 7.64795e-06 1.09235e-12 -2.21299e-13 -2.6939e-13 5e-05 1.46608e-10 
65 1 0.234205 0.0165403 0.00760046 0.00565286 -0.000341734 -8.85127e-06 2.09975e-11 7.06439e-11 1.47994e-10 5e-05 1.46608e-10 
66 1 0.233865 0.0154979 0.00884597 0.00593004 -0.000675361 -6.71557e-05 2.55826e-11 1.78509e-10 -2.67331e-10 5e-05 1.46608e-10 
67 1 0.240604 0.0179475 0.0069745 0.00589432 -0.000686534 8.98251e-05 3.8178e-11 -9.36004e-11 2.0459e-13 5e-05 1.46608e-10 
68 1 0.240526 0.0171753 0.00730464 0.00546333 -0.000612411 0.000374754 -7.75405e-11 2.2956e-10 1.6887e-11 5e-05 1.46608e-10 
69 1 0.240595 0.0181211 0.00706145 0.00605676 -0.000704108 0.000492064 -2.20007e-10 -2.42014e-12 1.88222e-11 5e-05 1.46608e-10 
70 1 0.246399 0.0173822 0.00724937 0.00559188 -1.74505e-05 -6.34671e-07 -1.56312e-12 4.16007e-12 3.77296e-12 5e-05 1.46608e-10 
71 1 0.23393 0.0156522 0.00859696 0.00596493 -0.000672483 -7.86031e-05 -1.06002e-10 1.41779e-10 -1.96822e-10 5e-05 1.46608e-10 
72 1 0.240488 0.0178201 0.00699916 0.00555662 -0.000627892 8.67677e-05 -3.40258e-11 -3.22979e-11 -6.18984e-11 5e-05 1.46608e-10 
73 1 0.240592 0.0183058 0.00699446 0.0060179 -0.000674753 0.000491516 -1.86196e-12 -2.40745e-11 -7.60815e-13 5e-05 1.46608e-10 
74 1 0.240653 0.0181514 0.00698579 0.00602828 -0.000668151 0.000492226 -1.18288e-10 -1.49624e-10 -1.55227e-11 5e-05 1.46608e-10 
76 1 0.234939 0.0186593 0.00685785 0.00615476 0.000115798 -1.20243e-05 -1.59677e-09 3.06064e-10 -7.52855e-11 5e-05 1.46608e-10 
77 1 0.240581 0.0174269 0.00715145 0.00546906 -0.000580334 0.000400164 -9.96463e-11 -1.40803e-11 8.78616e-12 5e-05 1.46608e-10 
78 1 0.234675 0.0186616 0.00685693 0.00622149 -0.00045368 9.70532e-05 3.40863e-10 -2.28708e-10 2.30229e-11 5e-05 1.46608e-10 
79 1 0.233994 0.0158065 0.00834811 0.00605164 -0.000684683 -7.59164e-05 8.71264e-12 9.2042e-11 -1.27781e-10 5e-05 1.46608e-10 
80 1 0.240797 0.0180131 0.00698633 0.00596002 -0.000725106 0.000482522 8.06477e-11 2.28803e-11 2.23139e-11 5e-05 1.46608e-10 
81 1 0.234808 0.0188864 0.00681365 0.00560504 -0.000294478 6.36916e-05 1.88691e-10 -2.5447e-11 5.56533e-11 5e-05 1.46608e-10 
82 1 0.234063 0.0159799 0.00811575 0.00534478 -0.000314945 2.80418e-05 8.99289e-11 -6.40622e-11 -2.56276e-11 5e-05 1.46608e-10 
83 1 0.234727 0.0184999 0.00688834 0.00618383 -0.000447075 9.74043e-05 1.97824e-10 2.02202e-10 -4.73823e-11 5e-05 1.46608e-10 
84 1 0.246426 0.017535 0.00712358 0.00563928 -2.21585e-05 3.03483e-06 1.43269e-12 -5.7727e-12 -8.62659e-12 5e-05 1.46608e-10 
85 1 0.234992 0.0184947 0.00688979 0.00653361 -1.78201e-06 1.18637e-05 3.28091e-10 -1.26753e-09 2.48795e-10 5e-05 1.46608e-10 
86 1 0.240892 0.0180428 0.00699785 0.00590996 -0.000796495 0.00047119 -5.6592e-11 -4.75321e-11 -8.17026e-12 5e-05 1.46608e-10 
87 1 0.24077 0.0182788 0.00700834 0.00599839 -0.000665338 0.000491468 7.27041e-12 3.08828e-11 1.64355e-12 5e-05 1.46608e-10 
88 1 0.240263 0.0168266 0.0075616 0.00540031 4.49695e-05 0.000991279 -8.27938e-11 2.05519e-10 -1.38529e-10 5e-05 1.46608e-10 
89 1 0.240749 0.0181817 0.00699742 0.0060268 -0.000671796 0.000493498 6.13226e-11 1.26884e-11 1.5392e-11 5e-05 1.46608e-10 
90 1 0.240544 0.0176586 0.00702911 0.00555273 -0.000650285 8.54808e-05 -4.18088e-11 1.15956e-11 -1.89041e-11 5e-05 1.46608e-10 
91 1 0.235033 0.0186919 0.00685169 0.00602649 3.71481e-05 3.53857e-06 1.00593e-09 8.32102e-11 -2.34056e-11 5e-05 1.46608e-10 
92 1 0.240631 0.0180535 0.00697471 0.00604088 -0.000717308 0.000492035 -1.93407e-11 -1.12089e-10 -2.05406e-11 5e-05 1.46608e-10 
93 1 0.240147 0.0163838 0.00794778 0.00566547 1.25662e-05 0.00107472 2.57725e-10 1.13265e-10 -4.25535e-11 5e-05 1.46608e-10 
94 1 0.240587 0.0177241 0.00710386 0.00561637 -0.000467315 0.000210269 6.37486e-11 1.34674e-10 -4.99389e-12 5e-05 1.46608e-10 
95 1 0.240445 0.017407 0.00725776 0.00555505 -0.000518014 0.000370447 -1.9544e-10 -1.88609e-10 1.19531e-10 5e-05 1.46608e-10 
96 1 0.240166 0.0164577 0.00788324 0.00557333 2.54437e-05 0.00105442 1.2471e-10 1.18851e-10 -4.55905e-11 5e-05 1.46608e-10 
97 1 0.234319 0.0166547 0.00753684 0.00557245 -0.000399644 -0.000272138 4.02543e-11 1.86584e-10 -7.07286e-11 5e-05 1.46608e-10 
98 1 0.24062 0.0176021 0.00706436 0.00549238 -0.000585584 0.000393249 -3.0157e-11 -3.64043e-11 -1.46211e-10 5e-05 1.46608e-10 
99 1 0.234417 0.0171143 0.00736601 0.00552093 -0.000405382 -0.000266375 3.52893e-11 -2.20583e-11 6.86208e-12 5e-05 1.46608e-10 
100 1 0.240727 0.0180846 0.00698649 0.00602059 -0.000669666 0.000492599 1.86404e-11 -1.2577e-11 9.99161e-12 5e-05 1.46608e-10 
101 1 0.234025 0.0158557 0.00826677 0.00583511 -0.000629054 -0.000121021 -1.1266e-10 8.28208e-11 -9.48276e-11 5e-05 1.46608e-10 
102 1 0.0643568 0.0187248 0.00531097 4.53002e-15 1.04374e-14 8.29541e-14 8.40364e-23 5.55116e-22 -7.17579e-23 5e-05 1.46608e-10 
103 1 0.24257 0.0191927 0.00520306 -1.23235e-22 4.89458e-22 -5.81428e-22 0 2.58494e-26 0 5e-05 1.46608e-10 
104 1 0.234621 0.0180318 0.00702455 0.00607664 -0.000509751 -0.00024782 -9.84674e-11 1.73469e-10 4.10233e-10 5e-05 1.46608e-10 
105 1 0.234979 0.0189826 0.00679596 0.00549274 -0.000247675 -8.25136e-05 -1.61784e-10 -7.70759e-11 -3.30727e-11 5e-05 1.46608e-10 
106 1 0.234928 0.0182058 0.00694561 0.00614249 -0.000479667 9.59249e-05 1.01057e-10 2.01432e-11 2.34198e-10 5e-05 1.46608e-10 
107 1 0.234906 0.0181124 0.00697444 0.0061253 -0.000593428 -0.000249218 -2.27731e-10 -3.93813e-11 -1.11781e-10 5e-05 1.46608e-10 
108 1 0.24062 0.0182615 0.00707971 0.00602045 -0.000670198 0.000492773 2.41644e-11 6.64303e-11 1.78753e-11 5e-05 1.46608e-10 
109 1 0.240809 0.0176547 0.0070281 0.00552819 -0.000783985 0.00011261 6.73932e-11 5.10959e-11 -2.19e-11 5e-05 1.46608e-10 
110 1 0.240188 0.0165314 0.0078195 0.00548492 3.2408e-05 0.00102387 3.99692e-12 9.13751e-11 -8.15955e-11 5e-05 1.46608e-10 
111 1 0.240466 0.0173131 0.00721581 0.00553316 -0.000532523 0.000370219 -2.52991e-11 -4.21703e-11 7.04748e-12 5e-05 1.46608e-10 
112 1 0.234684 0.0183079 0.00692542 0.00619763 -0.000398874 9.43649e-05 7.95345e-11 2.08706e-10 -7.72543e-11 5e-05 1.46608e-10 
113 1 0.234284 0.0169026 0.00745128 0.00546838 -0.000410232 -0.00026136 -1.51796e-10 3.25582e-11 6.97832e-12 5e-05 1.46608e-10 
114 1 0.234653 0.0185658 0.00687545 0.00621897 -0.000421 9.41737e-05 8.62698e-11 -1.47568e-10 9.39775e-11 5e-05 1.46608e-10 
115 1 0.240714 0.017626 0.00703782 0.00552179 -0.000642051 0.000432428 3.82802e-11 -9.38292e-12 -2.32158e-11 5e-05 1.46608e-10 
116 1 0.24052 0.0179867 0.00707494 0.00590438 -0.000823657 0.000344268 5.54058e-11 -1.009e-11 -5.04303e-11 5e-05 1.46608e-10 
117 1 0.240635 0.0185 0.00701631 0.00597813 -0.000655973 0.000490541 1.88023e-12 1.11213e-10 7.8886e-12 5e-05 1.46608e-10 
118 1 0.234484 0.0178213 0.00710949 0.00597446 -0.000483372 -0.000272662 -2.13436e-11 4.68643e-11 -1.93014e-11 5e-05 1.46608e-10 
119 1 0.240676 0.0174555 0.00713592 0.00554864 -0.000562653 0.000389977 8.4538e-11 -2.65727e-10 1.43669e-10 5e-05 1.46608e-10 
120 1 0.240016 0.0159416 0.00833126 0.00582699 1.12328e-06 0.00111653 -3.08874e-11 -8.1818e-11 6.08791e-11 5e-05 1.46608e-10 
121 1 0.23993 0.0156467 0.00858731 0.0058702 -2.91912e-06 0.00112976 -2.03833e-10 -1.29902e-10 9.33073e-11 5e-05 1.46608e-10 
122 1 0.240427 0.0171431 0.00731365 0.00550557 -0.000509551 0.000354266 -4.97808e-11 5.98563e-11 2.76751e-11 5e-05 1.46608e-10 
123 1 0.234442 0.017638 0.00717781 0.00591277 -0.000474307 -0.00027116 -2.66807e-11 2.47053e-11 -6.50935e-12 5e-05 1.46608e-10 
124 1 0.240447 0.0172281 0.00726473 0.00552116 -0.000518404 0.000360878 -9.12246e-12 5.02575e-12 4.57533e-12 5e-05 1.46608e-10 
125 1 0.240717 0.0184427 0.00701858 0.00598925 -0.000652041 0.000491881 -1.37147e-10 4.43834e-11 -8.66641e-12 5e-05 1.46608e-10 
126 1 0.240378 0.016919 0.00750558 0.00542028 -4.90645e-05 0.00107574 -1.36862e-10 3.1685e-11 -1.6762e-10 5e-05 1.46608e-10 
127 1 0.234902 0.0189189 0.00680752 0.00567124 -0.000413042 9.44718e-05 -3.91447e-10 9.10273e-11 -1.09593e-10 5e-05 1.46608e-10 
128 1 0.240408 0.0170628 0.00737054 0.00549802 -3.20817e-05 0.0010843 -1.62839e-10 4.14538e-11 -1.71056e-10 5e-05 1.46608e-10 
129 1 0.240449 0.0176292 0.00704406 0.00557499 -0.000578239 0.000325195 5.69793e-11 8.86042e-11 1.04459e-10 5e-05 1.46608e-10 
131 1 0.234949 0.0183017 0.00692709 0.00614889 -0.000506042 0.000107645 -8.60887e-11 1.11025e-10 -2.07967e-11 5e-05 1.46608e-10 
132 1 0.240564 0.0177551 0.00701102 0.00557352 -0.000624388 0.000140854 -1.23574e-11 9.11767e-11 9.87449e-11 5e-05 1.46608e-10 
133 1 0.24041 0.0174548 0.00713331 0.00555363 -0.000537905 0.000374015 1.44335e-11 -2.19341e-11 6.95194e-13 5e-05 1.46608e-10 
134 1 0.240399 0.0169931 0.00744175 0.00544636 -4.45602e-05 0.00107604 -5.44571e-11 9.80538e-11 -1.19585e-10 5e-05 1.46608e-10 
135 1 0.2398 0.0152285 0.00899519 0.0059578 -0.000535479 0.000724965 5.6148e-11 8.87389e-11 -2.51456e-10 5e-05 1.46608e-10 
136 1 0.234713 0.0188544 0.00681969 0.00564276 -0.000327954 7.24748e-05 2.8747e-12 -1.68924e-10 7.70132e-11 5e-05 1.46608e-10 
137 1 0.240125 0.0163107 0.00801253 0.00573104 2.31264e-07 0.0010889 1.65955e-10 6.09631e-11 -9.03956e-11 5e-05 1.46608e-10 
138 1 0.240629 0.0178392 0.00708379 0.00600175 -0.000664712 0.000180352 4.92499e-11 -5.97669e-11 5.0841e-11 5e-05 1.46608e-10 
140 1 0.2406 0.0175119 0.00710244 0.00552311 -0.000591987 0.000406573 1.45004e-10 -6.80973e-11 -2.33725e-11 5e-05 1.46608e-10 
141 1 0.234706 0.018404 0.00690687 0.0062088 -0.000397924 8.9708e-05 9.80144e-11 1.07336e-10 -5.91972e-12 5e-05 1.46608e-10 
142 1 0.234421 0.0175464 0.00721197 0.00549272 -0.000368263 -0.000274791 7.79971e-11 -1.20708e-11 4.22879e-11 5e-05 1.46608e-10 
143 1 0.233908 0.0156008 0.00867996 0.00597018 -0.000675478 -7.35916e-05 -3.08377e-11 1.32316e-10 -1.94021e-10 5e-05 1.46608e-10 
144 1 0.234547 0.0180963 0.00700694 0.0060894 -0.00046927 -0.000286851 -9.58101e-12 5.04007e-11 -3.73437e-11 5e-05 1.46608e-10 
147 1 0.23477 0.0186926 0.00685112 0.00607367 -6.53262e-06 1.18051e-05 5.20333e-10 -1.15573e-10 1.7203e-11 5e-05 1.46608e-10 
148 1 0.234512 0.0171417 0.00734921 0.005525 -0.000413083 -0.000264099 -3.16792e-11 7.28115e-11 -2.21595e-11 5e-05 1.46608e-10 
149 1 0.24028 0.0169004 0.00749622 0.0054194 4.09306e-05 0.000996068 3.17836e-11 1.63765e-10 -2.21291e-10 5e-05 1.46608e-10 
150 1 0.0100679 0.0201683 0.00551526 8.3853e-15 1.24148e-15 -8.48744e-14 5.76441e-24 -3.38304e-24 4.1359e-25 5e-05 1.46608e-10 
151 1 0.234382 0.0173623 0.0072804 0.00553671 -0.000252574 -0.000322062 1.1445e-11 5.50867e-11 -2.04236e-11 5e-05 1.46608e-10 
153 1 0.234752 0.0190483 0.0068114 0.00573237 -0.000274026 -0.000206769 -1.89199e-10 -1.82269e-10 -7.32579e-10 5e-05 1.46608e-10 
154 1 0.234505 0.0179129 0.00707532 0.00601399 -0.000491436 -0.000273091 -5.74601e-11 -5.9959e-11 1.48947e-11 5e-05 1.46608e-10 
155 1 0.234728 0.0177192 0.00712764 0.0059428 -0.000545662 -0.000247512 1.57159e-10 9.60832e-11 -3.45007e-11 5e-05 1.46608e-10 
156 1 0.234663 0.0182159 0.00695871 0.00617545 -0.000431286 1.6695e-05 2.24396e-10 5.10986e-11 -2.23371e-10 5e-05 1.46608e-10 
157 1 0.0219312 0.0187687 0.00551176 -3.83232e-14 8.17151e-14 2.95876e-13 -2.31326e-22 -9.14345e-22 2.28095e-22 5e-05 1.46608e-10 
158 1 0.234918 0.0185608 0.00687687 0.00639522 -0.000122222 3.38513e-05 6.41054e-10 3.424e-10 -7.3606e-11 5e-05 1.46608e-10 
159 1 0.240844 0.0182113 0.00700893 0.0059355 -0.000734541 0.000479408 -4.33181e-11 -3.87233e-11 -7.69875e-12 5e-05 1.46608e-10 
160 1 0.234526 0.0180047 0.0070411 0.00605278 -0.000486446 -0.00027756 1.05722e-10 -3.63593e-11 6.82394e-12 5e-05 1.46608e-10 
162 1 0.234826 0.0189832 0.00679712 0.00573189 -0.00033717 -4.78349e-05 -2.4955e-10 -2.38774e-11 -6.52804e-10 5e-05 1.46608e-10 
164 1 0.234378 0.0169305 0.00743434 0.0054095 -0.000376648 -0.000268484 -8.99667e-11 1.10798e-10 -3.15882e-11 5e-05 1.46608e-10 
165 1 0.234717 0.018059 0.00700759 0.00610305 -0.000539198 -0.000232006 3.64904e-11 1.3736e-10 1.61773e-10 5e-05 1.46608e-10 
166 1 0.240571 0.0182083 0.0069912 0.00602648 -0.000680626 0.000491097 -5.71777e-11 -1.0879e-10 -2.29269e-12 5e-05 1.46608e-10 
168 1 0.234437 0.0172062 0.00733184 0.00551113 -0.000394785 -0.000269519 -2.80691e-11 4.25738e-12 5.15624e-12 5e-05 1.46608e-10 
169 1 0.234884 0.0188225 0.00682616 0.00555973 -0.000390684 8.56744e-05 -6.99506e-11 1.52543e-10 -1.15503e-11 5e-05 1.46608e-10 
170 1 0.234811 0.0180857 0.00699099 0.00611154 -0.000577501 -0.000258338 -1.33418e-10 -6.26404e-11 -5.06994e-11 5e-05 1.46608e-10 
171 1 0.240509 0.0177854 0.00709051 0.00557156 -0.000535026 0.000129752 1.05082e-10 1.29734e-10 -1.14839e-10 5e-05 1.46608e-10 
172 1 0.234696 0.0179674 0.00704174 0.00605405 -0.000540339 -0.000251623 -1.35517e-10 5.71449e-11 8.16594e-11 5e-05 1.46608e-10 
173 1 0.240778 0.0179154 0.00699498 0.00582654 -0.000700263 0.000466107 -2.53941e-11 3.07419e-11 1.26276e-11 5e-05 1.46608e-10 
174 1 0.234749 0.0178109 0.00709348 0.00598445 -0.000557357 -0.00024609 -5.21412e-11 9.38338e-11 -4.73775e-11 5e-05 1.46608e-10 
175 1 0.228372 0.0173518 0.00747153 0.00570281 0.000142935 0.00033171 -2.59756e-11 8.51716e-11 3.17259e-11 5e-05 1.46608e-10 
177 1 0.234551 0.0173256 0.00728088 0.00550395 -0.000413194 -0.000262498 -1.78529e-11 -4.41565e-11 1.67941e-11 5e-05 1.46608e-10 
178 1 0.234476 0.01739 0.00726351 0.00554057 -0.000387773 -0.000274344 -9.82846e-11 -1.48071e-11 1.07025e-11 5e-05 1.46608e-10 
179 1 0.234558 0.0177568 0.00712686 0.00596734 -0.000490526 -0.000269022 1.16695e-10 -4.88317e-11 2.55609e-11 5e-05 1.46608e-10 
181 1 0.234844 0.0186269 0.00686395 0.00616054 -0.000170707 4.38473e-05 1.0296e-09 3.29131e-10 -4.28378e-11 5e-05 1.46608e-10 
182 1 0.24043 0.0175398 0.0070844 0.0055621 -0.000548586 0.000375789 3.97998e-11 2.52575e-11 2.25832e-11 5e-05 1.46608e-10 
183 1 0.234791 0.0179941 0.00702515 0.00608068 -0.00057037 -0.000246383 -1.25897e-10 -1.27046e-11 -2.52216e-11 5e-05 1.46608e-10 
184 1 0.240484 0.0175772 0.00715986 0.00553745 -0.000534939 0.000381389 1.75719e-10 1.05791e-10 -8.36855e-11 5e-05 1.46608e-10 
186 1 0.234362 0.0172703 0.00731461 0.00551283 -0.000389411 -0.000271793 2.44714e-11 6.38207e-11 -3.62303e-11 5e-05 1.46608e-10 
187 1 0.240333 0.0171161 0.00733129 0.00550545 -0.000303265 0.000688796 -4.96753e-11 -1.33217e-10 -3.45215e-10 5e-05 1.46608e-10 
188 1 0.240512 0.0170986 0.00736753 0.0055704 -0.000698943 0.000299443 -2.75052e-11 -1.01932e-10 -4.14929e-10 5e-05 1.46608e-10 
189 1 0.240584 0.0178513 0.00699269 0.00568297 -0.000649347 7.97553e-05 -9.2262e-12 3.50236e-11 9.501e-12 5e-05 1.46608e-10 
190 1 0.228656 0.0185714 0.00684578 0.00630796 -0.000259381 -0.000227651 1.40588e-10 -7.78893e-11 -2.34736e-11 5e-05 1.46608e-10 
191 1 0.240542 0.0172569 0.00724919 0.00547221 -0.000587989 0.000402263 8.40348e-11 1.19727e-10 -2.31166e-11 5e-05 1.46608e-10 
192 1 0.234675 0.0178757 0.0070759 0.0060124 -0.000533554 -0.000258788 -1.49607e-10 -4.78327e-12 -5.12554e-11 5e-05 1.46608e-10 
193 1 0.240696 0.0175407 0.00708691 0.00545015 -0.000625698 0.000425075 -2.21059e-11 -2.58223e-11 3.71007e-11 5e-05 1.46608e-10 
194 1 0.161461 0.0182058 0.00533758 1.54842e-15 -1.10131e-14 8.6668e-14 1.35002e-21 1.438e-22 -4.75629e-24 5e-05 1.46608e-10 
195 1 0.234897 0.0184638 0.00689561 0.00623832 -0.000481209 0.00010374 -6.56236e-11 -5.95063e-11 -1.77141e-11 5e-05 1.46608e-10 
196 1 0.23428 0.0164814 0.00763077 0.00565768 -0.00023866 0.000199311 1.13527e-11 -4.52699e-11 4.84195e-11 5e-05 1.46608e-10 
197 1 0.228433 0.0176131 0.00733737 0.00582219 0.000118591 0.000347103 8.25545e-11 -3.53018e-10 9.75662e-11 5e-05 1.46608e-10 
198 1 0.234732 0.0189509 0.00680105 0.00571043 -0.000327037 7.37963e-05 -6.59451e-11 -1.75496e-10 3.37219e-11 5e-05 1.46608e-10 
199 1 0.234632 0.0184699 0.00689398 0.00620929 -0.000397102 9.0123e-05 -9.96389e-12 3.5941e-11 5.54466e-13 5e-05 1.46608e-10 
201 1 0.234264 0.0168107 0.00748545 0.00547519 -0.000415992 -0.000258872 -6.30216e-11 4.26704e-11 -9.58218e-13 5e-05 1.46608e-10 
202 1 0.234758 0.0182426 0.00693917 0.00616335 -0.000515643 -0.000281117 -2.1667e-10 2.66652e-10 2.27147e-11 5e-05 1.46608e-10 
203 1 0.240206 0.0166064 0.00775575 0.0054207 3.98454e-05 0.00100811 5.63183e-11 9.49463e-11 -8.48798e-11 5e-05 1.46608e-10 
204 1 0.233974 0.0157578 0.00843315 0.00618359 -0.000696423 -4.66791e-05 1.47549e-10 8.79253e-11 -1.45404e-10 5e-05 1.46608e-10 
205 1 0.234854 0.0182721 0.00693265 0.00615168 -0.000468456 0.000107115 -8.63513e-12 -3.34999e-11 3.28965e-11 5e-05 1.46608e-10 
206 1 0.234339 0.0167466 0.00750267 0.00548264 -0.000383768 -0.000271031 -2.26046e-10 2.36419e-10 -5.94959e-11 5e-05 1.46608e-10 
207 1 0.234456 0.0172981 0.00729768 0.00549411 -0.000383615 -0.000272186 -2.29319e-10 6.57817e-11 -6.13338e-12 5e-05 1.46608e-10 
208 1 0.234642 0.0181237 0.00699132 0.00612539 -0.000477886 -0.00013382 2.23059e-10 5.06481e-11 8.27548e-11 5e-05 1.46608e-10 
209 1 0.23147 0.0180482 0.00708621 0.00551171 -0.000649232 0.00032628 -5.40324e-13 5.14323e-13 -1.87759e-13 5e-05 1.46608e-10 
210 1 0.240371 0.0172847 0.00723115 0.00552953 -0.000508082 0.00036774 -1.78833e-11 -1.09912e-11 7.97554e-11 5e-05 1.46608e-10 
211 1 0.240396 0.0172629 0.00734393 0.00546755 4.63091e-06 7.97365e-05 -1.83186e-10 -5.38552e-11 -7.82726e-11 5e-05 1.46608e-10 
212 1 0.23478 0.0183382 0.00691973 0.00618346 -0.000429974 9.74331e-05 7.63228e-11 3.38437e-11 -5.50588e-11 5e-05 1.46608e-10 
213 1 0.240508 0.017917 0.00698489 0.0056669 -0.000637173 0.000158828 2.04184e-10 -1.48658e-10 -2.14498e-10 5e-05 1.46608e-10 
214 1 0.240299 0.0169817 0.0074413 0.00544076 1.19225e-05 0.0009647 1.66098e-11 1.5251e-10 -2.347e-10 5e-05 1.46608e-10 
215 1 0.228636 0.0184842 0.00689015 0.00631195 7.44803e-05 0.000414418 -1.99131e-10 -6.78914e-11 3.39219e-12 5e-05 1.46608e-10 
216 1 0.234737 0.0181509 0.00697416 0.00614968 -0.000524573 -0.000178466 3.24559e-11 -3.74595e-11 -3.93542e-10 5e-05 1.46608e-10 
217 1 0.240614 0.0184029 0.00700539 0.0059992 -0.000663082 0.000491508 7.97305e-12 4.14715e-11 1.21461e-11 5e-05 1.46608e-10 
218 1 0.234112 0.0160242 0.00804067 0.00532438 -0.000174042 0.000107204 4.50508e-11 -3.60008e-11 1.46918e-11 5e-05 1.46608e-10 
219 1 0.240244 0.0167588 0.00763246 0.00535676 4.17135e-05 0.000979813 -1.05356e-10 2.08997e-10 -1.0414e-10 5e-05 1.46608e-10 
220 1 0.234875 0.0183679 0.00691413 0.00616626 -0.000471801 0.000101266 -1.61119e-10 6.49881e-13 5.26758e-12 5e-05 1.46608e-10 
221 1 0.29446 0.0176644 0.00702892 0.00581545 0.000583646 -0.00063778 8.87925e-13 1.14762e-12 -5.23587e-13 5e-05 1.46608e-10 
222 1 0.2407 0.0179814 0.00697444 0.00599202 -0.000755812 0.000478901 -5.24632e-11 -9.55866e-11 -6.19402e-11 5e-05 1.46608e-10 
223 1 0.2346 0.0179401 0.00705854 0.00603734 -0.000510353 -0.000274318 -2.16357e-10 7.5829e-12 8.52168e-11 5e-05 1.46608e-10 
224 1 0.0148945 0.0180087 0.00774283 -1.02283e-09 -0.0232141 0.00645606 -8.47812e-15 8.5023e-12 2.02077e-11 5e-05 1.46608e-10 
225 1 0.240561 0.0173419 0.00720029 0.00546345 -0.000582306 0.000398106 -8.28679e-11 5.8594e-11 -2.80427e-11 5e-05 1.46608e-10 
226 1 0.234401 0.0174545 0.00724614 0.00549858 -0.000382496 -0.000271941 6.7395e-11 5.65606e-11 -2.46157e-11 5e-05 1.46608e-10 
227 1 0.228575 0.0182228 0.00702432 0.00616485 7.87949e-05 0.000404486 1.36577e-10 2.05555e-11 -1.42964e-10 5e-05 1.46608e-10 
228 1 0.228393 0.0174389 0.00742681 0.00575085 0.000127028 0.000346232 2.66074e-11 4.63545e-11 -1.64308e-10 5e-05 1.46608e-10 
229 1 0.234823 0.0185299 0.00688269 0.00627195 -0.000434218 9.43294e-05 5.18884e-11 1.0669e-10 -1.7101e-11 5e-05 1.46608e-10 
230 1 0.234225 0.0166279 0.00755659 0.00560036 -0.000407003 -0.000158144 9.82522e-11 8.38274e-11 1.22033e-10 5e-05 1.46608e-10 
231 1 0.228352 0.0172647 0.00751625 0.00565667 0.000153319 0.000326973 3.26395e-11 -4.999e-12 -1.78507e-11 5e-05 1.46608e-10 
232 1 0.23461 0.0183758 0.00691995 0.00620138 -0.000382889 9.2628e-05 -1.3026e-12 1.03101e-11 -6.04914e-11 5e-05 1.46608e-10 
234 1 0.240469 0.0177242 0.00701978 0.00557009 -0.000605853 0.000203716 -1.20042e-11 6.07492e-11 1.00702e-10 5e-05 1.46608e-10 
235 1 0.234832 0.0181775 0.0069568 0.00617014 -0.000578952 -0.000236912 -1.82217e-10 -2.656e-10 -1.47155e-10 5e-05 1.46608e-10 
236 1 0.234185 0.0164541 0.00764702 0.00564907 -0.000269409 0.000113062 -4.07186e-11 9.16661e-12 1.2367e-10 5e-05 1.46608e-10 
237 1 0.234145 0.0162838 0.00774398 0.0056188 -0.000209894 0.000176007 -5.04391e-11 -1.27197e-10 6.02158e-11 5e-05 1.46608e-10 
239 1 0.228184 0.0165688 0.00787311 0.00567416 0.000153378 0.000329579 1.81192e-10 -7.45325e-11 4.61213e-11 5e-05 1.46608e-10 
240 1 0.228208 0.0166552 0.00782902 0.00626815 5.0241e-05 0.000422918 -2.23199e-12 -8.85208e-11 4.28709e-11 5e-05 1.46608e-10 
241 1 0.228271 0.0169162 0.00769514 0.00545944 0.000171816 0.000296656 8.72472e-11 1.33552e-10 -4.1723e-11 5e-05 1.46608e-10 
242 1 0.234463 0.0177297 0.00714365 0.00594625 -0.000477497 -0.000272478 3.03173e-11 8.45177e-11 -2.94078e-11 5e-05 1.46608e-10 
244 1 0.228231 0.0167419 0.00778473 0.00531497 0.000211786 0.000268741 -2.91901e-10 1.62469e-10 -9.95086e-12 5e-05 1.46608e-10 
246 1 0.228332 0.0171776 0.00756097 0.00561168 0.0001579 0.000317256 -1.98069e-11 2.40873e-12 -1.64901e-11 5e-05 1.46608e-10 
247 1 0.234978 0.0188549 0.00682005 0.00579526 -0.000295498 6.86969e-05 -3.72313e-10 -6.26155e-11 4.65578e-11 5e-05 1.46608e-10 
248 1 0.234245 0.0167188 0.00751966 0.00551766 -0.000425172 -0.000250383 5.40776e-11 6.84959e-11 6.3608e-11 5e-05 1.46608e-10 
249 1 0.228616 0.0183971 0.00693487 0.00627436 8.25283e-05 0.000399601 1.16831e-10 -2.81032e-10 1.34339e-10 5e-05 1.46608e-10 
250 1 0.234531 0.0172336 0.00731504 0.00551115 -0.000412695 -0.000263292 -1.80495e-10 5.31076e-11 -4.50724e-12 5e-05 1.46608e-10 
251 1 0.240228 0.0166791 0.00769054 0.0053899 4.14265e-05 0.000994467 -4.47371e-11 1.3823e-10 -1.11069e-10 5e-05 1.46608e-10 
252 1 0.228474 0.0177873 0.00724792 0.00595088 0.000127868 0.000361706 4.82153e-10 2.0009e-10 1.26359e-11 5e-05 1.46608e-10 
253 1 0.228677 0.0186694 0.00684435 0.00562046 -0.000106723 -0.000206751 -1.70696e-10 -9.42549e-11 7.93632e-12 5e-05 1.46608e-10 
254 1 0.228311 0.0170904 0.00760569 0.00556066 0.000161645 0.000315242 -4.67281e-11 1.74385e-12 3.55356e-11 5e-05 1.46608e-10 
255 1 0.234568 0.0181879 0.00697278 0.00613111 -0.000460628 -0.000292018 -3.59173e-11 6.89231e-11 -4.83651e-11 5e-05 1.46608e-10 
256 1 0.234654 0.0177841 0.00711006 0.00597235 -0.000525221 -0.000257166 4.80444e-11 -3.46166e-11 1.07449e-12 5e-05 1.46608e-10 
257 1 0.234612 0.0176008 0.00717839 0.00585782 -0.000497055 -0.000258815 -5.39254e-11 -2.135e-11 1.159e-11 5e-05 1.46608e-10 
258 1 0.234516 0.0175736 0.00719518 0.00583697 -0.000451832 -0.000273454 3.60704e-11 -8.6795e-11 2.4951e-11 5e-05 1.46608e-10 
259 1 0.228494 0.0178744 0.0072032 0.00598066 0.000106457 0.000368417 3.949e-11 1.90963e-10 -1.07565e-10 5e-05 1.46608e-10 