ITEM: TIMESTEP
23600000
ITEM: NUMBER OF ATOMS
283
ITEM: BOX BOUNDS ff ff ff
-0.02 0.43
-0.02 0.06
-0.02 0.07
ITEM: ATOMS id type x y z vx vy vz fx fy fz radius mass 
1 1 0.150146 0.0157733 0.00862864 0.00535497 -0.000641995 0.00123813 -3.06308e-10 -1.80538e-11 -9.90857e-11 5e-05 1.46608e-10 
2 1 0.150906 0.0179677 0.00711999 0.00532218 -0.00092158 0.000192861 -9.83678e-11 -5.91535e-11 2.47268e-11 5e-05 1.46608e-10 
3 1 0.144153 0.0158479 0.00868932 0.00532678 1.99502e-05 0.00180419 -1.29042e-10 7.3865e-11 -1.66878e-10 5e-05 1.46608e-10 
4 1 0.150669 0.0172876 0.00735485 0.00582975 -0.000977036 0.000201825 2.72179e-10 9.79979e-11 -4.18194e-11 5e-05 1.46608e-10 
5 1 0.150128 0.0157201 0.00871138 0.00530618 -0.000634811 0.00122612 -6.08896e-10 1.78077e-10 -3.13349e-10 5e-05 1.46608e-10 
6 1 0.156403 0.0165437 0.0076446 0.00639118 0.000737891 -0.000115214 1.05336e-11 1.60519e-11 -8.40318e-12 5e-05 1.46608e-10 
7 1 0.150224 0.0159852 0.00829911 0.00558009 -0.000664774 0.00127109 -9.12226e-12 1.23857e-10 -1.17478e-10 5e-05 1.46608e-10 
8 1 0.150109 0.0156671 0.00879394 0.00527585 -0.000632114 0.00121126 -3.58978e-10 2.90057e-10 -3.56029e-10 5e-05 1.46608e-10 
9 1 0.156534 0.0170702 0.00738798 0.00634553 0.000746781 -0.000121628 2.21895e-11 -5.55372e-14 -3.88819e-12 5e-05 1.46608e-10 
10 1 0.150866 0.0186479 0.00703337 0.00522233 -0.0012293 0.00104748 2.0351e-10 -3.19652e-10 2.0639e-11 5e-05 1.46608e-10 
11 1 0.150925 0.0180606 0.0070882 0.00528907 -0.000926404 0.000193008 -2.23103e-11 -1.2258e-10 1.52662e-11 5e-05 1.46608e-10 
12 1 0.144369 0.0166493 0.00813542 0.00533052 -0.000171371 0.00193868 5.60946e-10 1.23829e-10 1.32815e-10 5e-05 1.46608e-10 
13 1 0.150049 0.0155081 0.00904124 0.00616625 -0.000148075 0.000485948 1.76063e-10 4.0015e-10 -6.21585e-10 5e-05 1.46608e-10 
14 1 0.144088 0.015607 0.00885582 0.00528018 -3.74927e-05 0.00182249 1.5258e-10 1.46861e-10 -3.80813e-11 5e-05 1.46608e-10 
15 1 0.15036 0.016356 0.00772184 0.00599852 -0.000676697 0.00130761 2.01036e-10 3.08141e-11 1.34227e-10 5e-05 1.46608e-10 
16 1 0.144066 0.0155267 0.00891133 0.0052537 -0.000111328 0.00187113 3.68585e-11 2.21721e-10 -1.62613e-10 5e-05 1.46608e-10 
17 1 0.150831 0.0175546 0.00726109 0.00550477 -0.000700431 0.000114619 8.03034e-11 1.18077e-10 -4.217e-11 5e-05 1.46608e-10 
19 1 0.150088 0.0156142 0.00887618 0.0051872 -0.000613882 0.00117794 -3.20622e-11 1.71899e-10 -3.21288e-10 5e-05 1.46608e-10 
21 1 0.150848 0.0185539 0.00699977 0.00525604 -0.00137116 0.00105553 5.90135e-11 -6.56767e-10 3.37972e-10 5e-05 1.46608e-10 
22 1 0.150341 0.0163068 0.0078069 0.00600052 -0.000684051 0.00131295 1.57016e-10 -4.84816e-11 5.0013e-11 5e-05 1.46608e-10 
23 1 0.144551 0.0170299 0.00789934 0.00657165 -0.000134096 0.00232964 -2.19448e-10 5.5897e-12 3.36809e-10 5e-05 1.46608e-10 
24 1 0.156594 0.0173344 0.00725906 0.00589518 0.000827849 -0.000178225 -4.84636e-11 -9.80209e-12 9.00368e-12 5e-05 1.46608e-10 
25 1 0.150424 0.0166125 0.00758863 0.00604698 -0.00100077 0.000485363 4.6859e-10 1.58691e-10 -3.04764e-10 5e-05 1.46608e-10 
26 1 0.15649 0.0168947 0.00747352 0.00636156 0.000741634 -0.000118399 -2.07612e-11 -3.32346e-11 1.50938e-11 5e-05 1.46608e-10 
27 1 0.144466 0.0169736 0.00801386 0.00575921 -0.000198887 0.00199573 -1.82544e-10 7.77591e-12 -1.44845e-09 5e-05 1.46608e-10 
28 1 0.150871 0.0177523 0.00719346 0.0052759 -0.000858016 0.000172558 6.64367e-11 -7.53245e-12 -9.29594e-12 5e-05 1.46608e-10 
29 1 0.150243 0.0160381 0.00821653 0.00566066 -0.000660196 0.00126879 -6.54917e-10 2.60246e-10 -1.53937e-10 5e-05 1.46608e-10 
30 1 0.150946 0.0185033 0.00706249 0.00529895 -0.00106556 0.00113817 -2.57336e-10 -2.45068e-11 -9.15507e-10 5e-05 1.46608e-10 
31 1 0.150321 0.0162501 0.00788669 0.00587481 -0.000668873 0.00130141 1.33458e-10 1.05637e-10 -5.18827e-11 5e-05 1.46608e-10 
32 1 0.150605 0.0170098 0.00745003 0.0059373 -0.000948079 0.000188728 -6.00715e-11 2.52685e-10 -5.76597e-11 5e-05 1.46608e-10 
33 1 0.156425 0.0166315 0.00760183 0.00638405 0.000743429 -0.000118251 2.99487e-12 1.66939e-11 -7.45775e-12 5e-05 1.46608e-10 
34 1 0.150206 0.0159319 0.00838184 0.00546372 -0.000663899 0.00126805 5.58894e-13 -2.16863e-11 -2.10768e-10 5e-05 1.46608e-10 
35 1 0.150286 0.0161438 0.0080523 0.00574657 -0.000675921 0.00126728 2.03479e-10 9.24985e-11 -1.95859e-10 5e-05 1.46608e-10 
36 1 0.156575 0.0172463 0.00730209 0.00585267 0.00082302 -0.00017923 5.19992e-11 1.78e-11 -1.2009e-12 5e-05 1.46608e-10 
37 1 0.151038 0.0185479 0.00703843 0.00528672 -0.00106318 0.00104227 -1.64084e-09 1.08115e-09 -5.91575e-10 5e-05 1.46608e-10 
38 1 0.151153 0.018227 0.00705421 0.0052035 -0.00100529 0.0010273 2.05291e-10 1.02052e-10 1.14332e-10 5e-05 1.46608e-10 
39 1 0.15663 0.0171001 0.00737691 0.00583792 0.00085411 -0.000194521 -6.75195e-12 9.21771e-12 -3.31569e-12 5e-05 1.46608e-10 
41 1 0.150967 0.0177095 0.00720578 0.00536477 -0.000834703 0.000162723 1.06963e-10 -2.49091e-10 8.03037e-11 5e-05 1.46608e-10 
42 1 0.321436 0.0173475 0.00552525 4.6049e-16 2.25478e-15 8.4636e-14 -1.90542e-23 -6.27494e-24 2.06795e-25 5e-05 1.46608e-10 
44 1 0.150891 0.017845 0.00716172 0.00535704 -0.000884829 0.000180558 -2.12035e-10 1.24088e-10 1.81904e-11 5e-05 1.46608e-10 
45 1 0.156447 0.0167192 0.00755906 0.00637617 0.00074248 -0.000118119 5.28975e-13 -6.34575e-11 3.05333e-11 5e-05 1.46608e-10 
47 1 0.150165 0.0158268 0.00854646 0.00541798 -0.000662562 0.00125123 1.28274e-11 1.54235e-10 -9.83824e-11 5e-05 1.46608e-10 
48 1 0.151027 0.0184486 0.00704223 0.00526023 -0.00108166 0.000984447 -4.64747e-10 3.71528e-10 -3.47071e-10 5e-05 1.46608e-10 
50 1 0.150509 0.0169819 0.00746156 0.00594597 -0.000991047 0.000196001 -5.22679e-12 2.32608e-10 -1.88514e-11 5e-05 1.46608e-10 
51 1 0.150488 0.0168895 0.00749324 0.0059586 -0.00100637 0.000202419 -1.53392e-11 2.01599e-10 7.94143e-11 5e-05 1.46608e-10 
52 1 0.144347 0.016569 0.00819093 0.00543498 6.53774e-05 0.00181654 3.81973e-10 3.2018e-10 8.59505e-10 5e-05 1.46608e-10 
53 1 0.156609 0.0170123 0.00741973 0.00635314 0.000760726 -0.000128075 -6.53657e-12 -3.61255e-12 2.5757e-12 5e-05 1.46608e-10 
54 1 0.151055 0.0186459 0.00704894 0.00538532 -0.00108907 0.00107463 2.29567e-10 2.87045e-10 -1.22101e-10 5e-05 1.46608e-10 
55 1 0.144131 0.0157684 0.00874604 0.00529791 -0.000217801 0.0014918 -1.29586e-10 -3.05795e-10 -6.45235e-10 5e-05 1.46608e-10 
56 1 0.151118 0.0184895 0.0070533 0.00517824 -0.000808788 0.00103262 1.56159e-09 -9.03332e-10 1.05651e-10 5e-05 1.46608e-10 
57 1 0.156468 0.016807 0.00751629 0.00637009 0.000742484 -0.000118272 -1.9401e-11 -2.58642e-11 1.29586e-11 5e-05 1.46608e-10 
59 1 0.150946 0.0176171 0.00723746 0.00527222 -0.000810049 0.000156818 -1.58843e-10 -1.39882e-10 5.17566e-11 5e-05 1.46608e-10 
61 1 0.150263 0.0160912 0.00813404 0.00571783 -0.000656018 0.00126928 -1.64676e-10 2.79365e-10 1.59421e-12 5e-05 1.46608e-10 
62 1 0.151097 0.0180304 0.0070946 0.00530756 -0.000893228 0.000185367 -2.25222e-10 -6.1133e-10 2.00601e-10 5e-05 1.46608e-10 
63 1 0.150647 0.0171951 0.00738653 0.00589175 -0.000920016 0.00018243 1.55836e-10 8.07001e-11 2.36326e-12 5e-05 1.46608e-10 
64 1 0.15665 0.0171883 0.00733388 0.00587298 0.000844594 -0.000188778 2.00391e-11 -9.23835e-12 5.53388e-12 5e-05 1.46608e-10 
65 1 0.144487 0.0167725 0.00807911 0.00538372 1.74665e-06 0.00182115 -3.98882e-10 7.60175e-10 -6.38809e-10 5e-05 1.46608e-10 
66 1 0.14442 0.0165295 0.00824664 0.00541585 -2.26135e-05 0.00184895 9.80095e-10 4.31708e-10 3.01844e-10 5e-05 1.46608e-10 
67 1 0.151001 0.0179981 0.00710762 0.00531127 -0.000899398 0.000186386 -1.43189e-10 -1.11026e-11 -1.50383e-11 5e-05 1.46608e-10 
68 1 0.15069 0.0173804 0.00732303 0.00581635 -0.000753515 0.000125577 4.47627e-11 2.03344e-10 -7.01197e-11 5e-05 1.46608e-10 
69 1 0.150995 0.0188009 0.00703595 0.00558912 -0.00126273 0.00110635 5.69049e-10 -5.94042e-10 1.33114e-10 5e-05 1.46608e-10 
70 1 0.156512 0.0169825 0.00743075 0.00635406 0.000743012 -0.000119073 8.05662e-12 -2.99896e-11 1.82031e-11 5e-05 1.46608e-10 
71 1 0.144109 0.0156873 0.00880031 0.0053125 1.4125e-05 0.0017961 2.24166e-10 1.06871e-10 1.2791e-10 5e-05 1.46608e-10 
72 1 0.151001 0.0183533 0.00702619 0.00516188 -0.00107513 0.00102243 -3.4524e-11 2.09672e-10 -1.97334e-10 5e-05 1.46608e-10 
73 1 0.151077 0.0187435 0.00705112 0.00551418 -0.00114487 0.00109629 1.87145e-10 -7.81795e-11 4.44794e-11 5e-05 1.46608e-10 
74 1 0.151069 0.0179282 0.00712972 0.00535499 -0.000847841 0.000167268 -1.67485e-10 1.0672e-10 -2.19965e-11 5e-05 1.46608e-10 
76 1 0.144707 0.0175493 0.00754546 0.00567129 0.000539325 0.00150171 -2.82882e-10 -1.01626e-10 -2.0296e-11 5e-05 1.46608e-10 
77 1 0.150595 0.0173515 0.00733489 0.00582984 -0.000986916 0.000207052 2.29707e-11 -7.55068e-11 8.13533e-13 5e-05 1.46608e-10 
78 1 0.144174 0.0159282 0.00863382 0.00533441 1.72603e-05 0.00179319 -1.84817e-11 3.55433e-10 -2.44155e-10 5e-05 1.46608e-10 
79 1 0.144391 0.0167296 0.00807992 0.00538408 -8.54748e-05 0.00190523 -1.61654e-10 6.21584e-11 -1.90414e-10 5e-05 1.46608e-10 
80 1 0.150931 0.0179508 0.00721527 0.00534299 -0.000928344 0.000193771 -2.38551e-11 9.59224e-11 -4.03447e-11 5e-05 1.46608e-10 
81 1 0.144326 0.0164887 0.00824643 0.00536361 2.72989e-05 0.00178721 9.57375e-11 -2.40057e-10 3.89586e-10 5e-05 1.46608e-10 
82 1 0.144479 0.0170584 0.00796259 0.00617894 -0.000191809 0.00214061 1.1034e-09 3.74915e-10 1.05948e-09 5e-05 1.46608e-10 
83 1 0.144513 0.0165677 0.00824806 0.0053643 7.99713e-05 0.00175751 3.3661e-10 -1.72591e-10 2.98509e-10 5e-05 1.46608e-10 
84 1 0.156555 0.017158 0.00734518 0.00582307 0.000846513 -0.000191395 -3.56573e-13 4.29507e-11 -1.98662e-11 5e-05 1.46608e-10 
85 1 0.144293 0.0160476 0.00858047 0.00537078 4.39259e-05 0.00180283 2.62793e-10 4.94739e-10 -2.6857e-10 5e-05 1.46608e-10 
86 1 0.150981 0.0178032 0.00717384 0.00538865 -0.000844802 0.000165624 -2.37525e-10 -6.56211e-11 4.72847e-11 5e-05 1.46608e-10 
87 1 0.151248 0.0180078 0.00709885 0.00545214 -0.000977815 0.000211957 -4.37417e-10 1.50108e-10 -6.51141e-11 5e-05 1.46608e-10 
88 1 0.150716 0.0178869 0.00724255 0.00530963 -0.000943458 0.000196891 2.15009e-11 3.47058e-11 9.2616e-11 5e-05 1.46608e-10 
89 1 0.151019 0.018091 0.00707584 0.00528292 -0.000912131 0.000192726 5.6913e-11 -2.71602e-10 1.24787e-10 5e-05 1.46608e-10 
90 1 0.150974 0.0178977 0.00714209 0.00535195 -0.000881145 0.00017555 5.48299e-11 -1.45438e-10 2.5175e-11 5e-05 1.46608e-10 
91 1 0.144413 0.0168099 0.00802442 0.00541571 -6.31131e-06 0.00184608 -4.59465e-10 3.23953e-11 -4.92583e-10 5e-05 1.46608e-10 
92 1 0.150954 0.0182653 0.00702135 0.00532083 -0.00112934 0.000324263 4.26811e-10 -3.45723e-11 -1.27028e-10 5e-05 1.46608e-10 
93 1 0.150731 0.0175656 0.00725959 0.00548248 -0.000893469 0.000180202 1.0744e-10 -1.42318e-10 4.46794e-11 5e-05 1.46608e-10 
94 1 0.150868 0.0182161 0.00703694 0.00524214 -0.000986647 0.000215623 3.99175e-10 2.21801e-11 6.14677e-11 5e-05 1.46608e-10 
95 1 0.150794 0.0180152 0.0071926 0.00533847 -0.000962142 0.000201086 8.69671e-11 -5.91113e-11 -2.57339e-11 5e-05 1.46608e-10 
96 1 0.150751 0.0176583 0.00722786 0.00529134 -0.000853302 0.000170468 3.60142e-11 -7.89808e-11 3.39091e-11 5e-05 1.46608e-10 
97 1 0.144282 0.0163281 0.00835743 0.00534005 1.03584e-05 0.00179318 -3.03974e-10 -5.59034e-10 2.70407e-10 5e-05 1.46608e-10 
98 1 0.150841 0.0179076 0.00722305 0.0053271 -0.000908244 0.00018481 1.84382e-10 -2.49653e-10 2.5351e-10 5e-05 1.46608e-10 
99 1 0.144464 0.0166906 0.00813538 0.0053964 -5.99303e-05 0.00187759 -1.46454e-10 6.89832e-11 -8.73801e-11 5e-05 1.46608e-10 
100 1 0.151029 0.018202 0.00703814 0.00537323 -0.00109197 0.000261228 7.31631e-12 -4.4273e-10 1.29888e-11 5e-05 1.46608e-10 
101 1 0.144399 0.0164492 0.00830214 0.00530259 -3.20843e-05 0.00181785 6.43783e-10 -2.48555e-10 4.48991e-10 5e-05 1.46608e-10 
102 1 0.0643568 0.0187248 0.00531097 4.47646e-15 1.04669e-14 8.29533e-14 -1.37415e-21 4.06947e-22 2.7297e-23 5e-05 1.46608e-10 
103 1 0.24257 0.0191927 0.00520306 5.30818e-23 2.24983e-22 -5.81428e-22 0 0 0 5e-05 1.46608e-10 
104 1 0.144806 0.0175501 0.00757842 0.00629688 0.000503236 0.00174483 -2.5178e-10 9.87493e-10 -3.99356e-11 5e-05 1.46608e-10 
105 1 0.144239 0.0161675 0.00846844 0.0053533 1.24626e-05 0.00181781 1.48702e-10 6.03883e-11 7.3395e-11 5e-05 1.46608e-10 
106 1 0.14489 0.0176029 0.0075656 0.00627734 0.000527919 0.00171 -1.31339e-10 5.66601e-11 -7.67806e-11 5e-05 1.46608e-10 
107 1 0.144196 0.0160085 0.00857831 0.00534273 5.51305e-06 0.00181094 -7.14714e-11 1.03751e-10 -3.2464e-10 5e-05 1.46608e-10 
108 1 0.150947 0.0190293 0.00703159 0.00565427 -0.00127573 0.00112411 8.14023e-12 1.414e-10 -5.23898e-11 5e-05 1.46608e-10 
109 1 0.15047 0.0167964 0.00752506 0.00601318 -0.00102649 0.000226289 1.03588e-10 2.06604e-10 4.15435e-11 5e-05 1.46608e-10 
110 1 0.150677 0.0177217 0.0072081 0.00522811 -0.000911112 0.000191442 -9.04188e-11 -1.69841e-10 7.20626e-11 5e-05 1.46608e-10 
111 1 0.150811 0.017937 0.00713242 0.00533466 -0.000934452 0.000185414 -1.89484e-10 2.63343e-10 1.01401e-10 5e-05 1.46608e-10 
112 1 0.144304 0.0164084 0.00830193 0.00534498 2.44705e-05 0.00178588 -1.4645e-11 -4.55006e-10 3.54386e-10 5e-05 1.46608e-10 
113 1 0.14487 0.0186587 0.00685346 0.00562135 -0.000343107 -0.000175726 1.05465e-10 -7.46879e-11 1.991e-10 5e-05 1.46608e-10 
114 1 0.144721 0.0173107 0.00773717 0.00500093 0.000567827 0.00126682 -6.87803e-10 -6.96466e-10 9.02771e-11 5e-05 1.46608e-10 
115 1 0.150851 0.0176473 0.00722936 0.00532051 -0.000665041 0.000106583 -8.5785e-12 -1.61847e-10 4.89687e-11 5e-05 1.46608e-10 
116 1 0.150927 0.0189333 0.00705181 0.0056144 -0.00127268 0.00111342 1.48986e-10 -2.00919e-10 7.73299e-11 5e-05 1.46608e-10 
117 1 0.151163 0.0179589 0.00711724 0.00539094 -0.000828816 0.000160791 2.40821e-10 -2.63529e-10 1.01414e-10 5e-05 1.46608e-10 
118 1 0.144615 0.0173788 0.00776685 0.00486829 8.17138e-05 0.0017851 0 0 -1.43822e-09 5e-05 1.46608e-10 
119 1 0.150382 0.0164297 0.00765805 0.00602433 -0.000790708 0.0011575 3.40383e-11 2.95665e-10 3.12601e-10 5e-05 1.46608e-10 
120 1 0.150304 0.0162002 0.00797169 0.00576421 -0.000673114 0.00127708 6.10735e-11 -3.83053e-11 -3.26636e-10 5e-05 1.46608e-10 
121 1 0.150191 0.0158832 0.00846781 0.00540632 -0.000676553 0.00125498 1.6165e-10 -4.74048e-11 -2.13868e-10 5e-05 1.46608e-10 
122 1 0.150656 0.017629 0.00723983 0.00522828 -0.000899594 0.00018792 -2.228e-10 -1.99235e-10 7.23725e-11 5e-05 1.46608e-10 
123 1 0.144334 0.0162083 0.00846865 0.00536061 4.38256e-05 0.00178416 5.22806e-10 -1.8053e-10 2.26095e-10 5e-05 1.46608e-10 
124 1 0.150552 0.0171667 0.00739824 0.00589547 -0.000975532 0.000198799 1.15067e-11 1.7775e-10 -6.54937e-11 5e-05 1.46608e-10 
125 1 0.151184 0.0180813 0.00707546 0.00537561 -0.00105023 0.000239633 -2.23917e-10 1.44387e-11 -6.96162e-11 5e-05 1.46608e-10 
126 1 0.150446 0.0167047 0.00755656 0.00606398 -0.00103085 0.000328681 4.61034e-11 2.41178e-10 -1.43852e-10 5e-05 1.46608e-10 
127 1 0.144261 0.0162478 0.00841294 0.005344 8.38003e-06 0.00180186 4.4201e-11 -2.55234e-10 2.83515e-10 5e-05 1.46608e-10 
128 1 0.150531 0.0170743 0.0074299 0.00592546 -0.00097946 0.000199112 4.22704e-11 2.25932e-10 -7.54314e-11 5e-05 1.46608e-10 
129 1 0.150813 0.0181084 0.00716079 0.00528527 -0.000980522 0.000206702 1.56339e-10 -1.94238e-11 2.80077e-11 5e-05 1.46608e-10 
130 1 0.144583 0.017118 0.007841 0.00633378 -0.000655562 0.00276431 3.19931e-10 -2.48479e-09 -2.35424e-10 5e-05 1.46608e-10 
131 1 0.144442 0.01661 0.00819103 0.00544365 -6.04947e-05 0.00189477 -1.11495e-10 2.26901e-10 -1.92552e-10 5e-05 1.46608e-10 
132 1 0.150889 0.0180456 0.00718026 0.00532483 -0.000944698 0.000193958 1.10167e-10 7.9557e-11 -7.7786e-12 5e-05 1.46608e-10 
133 1 0.150811 0.0183758 0.00707226 0.00511759 -0.00162024 0.000684672 -4.66576e-11 -3.94179e-10 1.80134e-10 5e-05 1.46608e-10 
134 1 0.150626 0.0171023 0.00741834 0.00592188 -0.000922833 0.000181485 -1.11751e-10 1.94157e-10 -6.17833e-11 5e-05 1.46608e-10 
135 1 0.150069 0.0155611 0.00895883 0.00432591 -0.000535346 0.00101881 -3.10823e-10 3.07951e-10 -5.40171e-10 5e-05 1.46608e-10 
136 1 0.144268 0.0159675 0.00863475 0.00538713 -7.13528e-06 0.00183024 -7.47854e-10 -1.548e-10 -1.44777e-10 5e-05 1.46608e-10 
137 1 0.150616 0.017444 0.00730321 0.00563585 -0.000956029 0.000198729 -2.49302e-10 -1.02975e-10 5.0782e-11 5e-05 1.46608e-10 
138 1 0.150975 0.0187032 0.00702948 0.0052712 -0.00122067 0.00105538 -5.87132e-11 -4.42478e-10 -1.1268e-10 5e-05 1.46608e-10 
140 1 0.15083 0.0180301 0.00710057 0.00529829 -0.000941308 0.000200274 -6.28856e-11 -4.34289e-11 6.29604e-12 5e-05 1.46608e-10 
141 1 0.144312 0.016128 0.00852415 0.00538067 2.87949e-05 0.00180836 3.9905e-10 -4.69691e-11 1.75881e-10 5e-05 1.46608e-10 
142 1 0.144743 0.0173909 0.00768177 0.00543992 0.000614337 0.00137179 -4.38576e-10 -4.77521e-10 -1.56741e-11 5e-05 1.46608e-10 
143 1 0.144218 0.016096 0.00853511 0.00534043 3.63218e-06 0.00181574 -7.1299e-11 6.7222e-11 -4.30638e-10 5e-05 1.46608e-10 
144 1 0.1447 0.0172304 0.00779267 0.0052873 0.000509601 0.00140515 -4.21875e-10 -6.12124e-10 -4.56944e-10 5e-05 1.46608e-10 
146 1 0.144535 0.016648 0.00819267 0.00526051 0.000185268 0.00164447 -8.53232e-10 -1.72047e-10 -1.99028e-10 5e-05 1.46608e-10 
147 1 0.144246 0.0158871 0.00869025 0.0054226 8.43968e-05 0.00177493 -3.40791e-10 2.8952e-10 -4.29509e-10 5e-05 1.46608e-10 
148 1 0.144532 0.0172608 0.00775817 0.00657662 -0.00114736 -0.000425027 0 0 -1.43822e-09 5e-05 1.46608e-10 
149 1 0.150791 0.017844 0.00716426 0.00534267 -0.000927666 0.000195419 -2.2619e-11 -9.82307e-11 7.46204e-11 5e-05 1.46608e-10 
150 1 0.144581 0.0168085 0.00808282 0.00614221 0.000162714 0.00194706 -1.0765e-11 -1.08547e-09 9.71168e-10 5e-05 1.46608e-10 
151 1 0.144969 0.0178836 0.00737273 0.00771715 0.00183864 0.00120822 -7.44399e-10 -1.51964e-11 -6.52215e-11 5e-05 1.46608e-10 
153 1 0.144377 0.0163689 0.00835764 0.00521198 -4.38685e-05 0.00179958 4.79184e-10 -5.21796e-10 6.12845e-10 5e-05 1.46608e-10 
154 1 0.144649 0.0173589 0.00767477 0.00537997 -5.07244e-05 0.00177857 -1.5413e-10 7.18993e-11 -1.24267e-09 5e-05 1.46608e-10 
155 1 0.144614 0.0175574 0.00750777 0.00539062 -0.000292611 0.00205014 5.96209e-11 2.79943e-10 -1.31928e-10 5e-05 1.46608e-10 
156 1 0.144627 0.0172786 0.00773019 0.00519891 -0.000141811 0.00195535 -5.63879e-11 6.37639e-12 -1.46663e-09 5e-05 1.46608e-10 
157 1 0.0219312 0.0187687 0.00551176 -3.83728e-14 8.16582e-14 2.95885e-13 1.64942e-21 5.46611e-22 6.01774e-23 5e-05 1.46608e-10 
158 1 0.144952 0.0181604 0.00715023 0.00596464 0.00139288 0.000945 -5.77447e-11 -1.26719e-10 3.50837e-10 5e-05 1.46608e-10 
159 1 0.151105 0.0181395 0.00705807 0.00535519 -0.00107518 0.000282447 1.69299e-10 -7.12616e-11 1.13565e-10 5e-05 1.46608e-10 
160 1 0.144593 0.0174771 0.00756328 0.00536897 -0.000365497 0.00210745 -1.26501e-11 -1.03972e-10 9.10567e-11 5e-05 1.46608e-10 
162 1 0.144553 0.0173384 0.00769866 0.00566784 -0.000204321 -5.07787e-05 0 0 -1.43822e-09 5e-05 1.46608e-10 
164 1 0.144805 0.0179273 0.00728288 0.0067323 0.000429596 0.00197092 -2.04027e-10 2.5286e-10 -9.50504e-10 5e-05 1.46608e-10 
165 1 0.145048 0.0181829 0.00716525 0.00595874 0.00201865 0.000441117 1.4311e-11 -7.93097e-11 8.72588e-11 5e-05 1.46608e-10 
166 1 0.151026 0.0189207 0.00704518 0.00565131 -0.00121505 0.00112506 3.69449e-10 2.46707e-10 1.15732e-10 5e-05 1.46608e-10 
167 1 0.144557 0.0167283 0.00813738 0.00553979 0.000214182 0.00171116 -1.39348e-10 -4.94647e-10 2.56097e-10 5e-05 1.46608e-10 
168 1 0.144879 0.0176794 0.00750211 0.00621537 0.000524847 0.00170467 2.50604e-10 8.14186e-11 -2.27296e-10 5e-05 1.46608e-10 
169 1 0.144889 0.0187567 0.00685067 0.00562892 -0.000328722 0.000226679 -1.04333e-10 -3.36212e-10 -1.63159e-10 5e-05 1.46608e-10 
170 1 0.144846 0.0177481 0.00743723 0.00624056 0.000534744 0.00169502 2.77742e-10 -9.99476e-11 -3.09606e-11 5e-05 1.46608e-10 
171 1 0.150906 0.0188415 0.00701861 0.00557864 -0.00129353 0.00110686 9.69618e-11 -5.87422e-10 9.72224e-11 5e-05 1.46608e-10 
172 1 0.145084 0.0180782 0.00725947 0.00737137 0.00285708 0.000264758 -6.8969e-11 1.44834e-10 -1.65999e-10 5e-05 1.46608e-10 
173 1 0.150944 0.0181537 0.00705636 0.00525737 -0.000935592 0.0002024 1.59864e-10 -3.61436e-10 1.8203e-10 5e-05 1.46608e-10 
174 1 0.144737 0.017686 0.00744874 0.00605954 0.000351145 0.00177728 -5.03686e-10 2.6722e-10 -5.45686e-10 5e-05 1.46608e-10 
175 1 0.138587 0.0172918 0.00720715 0.00575055 -0.000379256 0.000386686 3.44012e-11 3.16934e-11 -1.86413e-11 5e-05 1.46608e-10 
176 1 0.144605 0.0171983 0.0077857 0.0051111 -5.42389e-05 0.00177301 -8.34006e-10 6.8549e-10 -7.57014e-10 5e-05 1.46608e-10 
177 1 0.144655 0.0176387 0.00755039 0.0056517 -0.000815207 0.00220706 -7.06186e-11 -1.53403e-11 -1.25983e-10 5e-05 1.46608e-10 
178 1 0.144911 0.0184282 0.00695114 0.00484506 0.00036367 0.000466669 -3.76234e-10 -3.54172e-11 3.21369e-10 5e-05 1.46608e-10 
179 1 0.145006 0.0184559 0.00693723 0.00496968 0.000536337 0.0012973 8.88178e-11 2.55813e-10 2.5243e-10 5e-05 1.46608e-10 
181 1 0.144756 0.0177903 0.00749021 0.00608516 0.000506971 0.00176427 -3.53981e-11 1.04354e-11 -6.21755e-10 5e-05 1.46608e-10 
182 1 0.150886 0.0187437 0.00701214 0.00526644 -0.00121907 0.00105295 -2.79786e-10 -6.89572e-10 -1.00904e-10 5e-05 1.46608e-10 
183 1 0.144772 0.0176182 0.00751357 0.00612265 0.000371955 0.00178347 -4.96018e-10 7.28026e-10 -5.77106e-10 5e-05 1.46608e-10 
184 1 0.150849 0.0181232 0.00706872 0.00525766 -0.000971276 0.000206781 4.5373e-11 -1.08218e-10 3.121e-11 5e-05 1.46608e-10 
185 1 0.14451 0.0171817 0.00781549 0.00653108 -0.000527095 0.00213246 3.40347e-09 2.88403e-09 -8.38042e-10 5e-05 1.46608e-10 
186 1 0.144731 0.0175792 0.00763813 0.00682543 0.00613729 0.000635996 0 0 -1.43822e-09 5e-05 1.46608e-10 
187 1 0.150828 0.0184573 0.00701684 0.00520042 -0.00140033 0.0010459 1.33364e-10 -6.77727e-10 2.74128e-10 5e-05 1.46608e-10 
188 1 0.150573 0.0172597 0.00736839 0.00585842 -0.000978485 0.000202399 7.94212e-11 7.23514e-12 -6.8044e-11 5e-05 1.46608e-10 
189 1 0.150921 0.0184205 0.0070115 0.00529383 -0.00108764 0.00105014 5.62163e-10 -6.37055e-11 3.01722e-10 5e-05 1.46608e-10 
190 1 0.138763 0.0177081 0.00712967 0.00549376 -0.000315314 0.000355864 -2.15723e-10 3.12928e-11 -5.15744e-11 5e-05 1.46608e-10 
191 1 0.150636 0.017538 0.00727578 0.00533319 -0.000907896 0.00018858 -4.04269e-10 -1.47458e-10 5.98664e-11 5e-05 1.46608e-10 
192 1 0.144854 0.0174341 0.00768562 0.00595371 0.000759438 0.00142572 4.09694e-10 -1.19417e-09 1.00314e-09 5e-05 1.46608e-10 
193 1 0.150403 0.0165208 0.00762228 0.00602719 -0.000920393 0.000762758 1.96815e-10 2.58137e-10 -1.59574e-10 5e-05 1.46608e-10 
194 1 0.144576 0.016958 0.00796414 0.00681523 5.24083e-05 0.00227423 -1.00571e-09 -1.5962e-09 5.94714e-10 5e-05 1.46608e-10 
195 1 0.14503 0.0182574 0.00710092 0.00596066 0.00197908 0.000477602 1.70386e-10 -2.89665e-10 2.1241e-10 5e-05 1.46608e-10 
196 1 0.144044 0.0154464 0.00896683 0.00522442 -0.000175017 0.00190896 5.81523e-11 2.27541e-10 -1.54557e-10 5e-05 1.46608e-10 
197 1 0.138648 0.0175804 0.00715247 0.00550399 -0.000317524 0.000309462 2.37993e-11 -1.73065e-10 -4.88198e-11 5e-05 1.46608e-10 
198 1 0.144435 0.0168959 0.00807046 0.00581113 -0.000249762 0.00214197 -2.22996e-10 1.63048e-10 -3.09191e-10 5e-05 1.46608e-10 
199 1 0.144575 0.0174177 0.00764174 0.00604857 -0.000268746 -0.000123202 -1.40123e-10 1.69343e-10 -1.39318e-09 5e-05 1.46608e-10 
200 1 0.144457 0.0169764 0.00790935 0.00561923 0.000735035 0.00133167 -3.52598e-13 1.1792e-12 -1.05686e-12 5e-05 1.46608e-10 
201 1 0.14495 0.0185997 0.00686454 0.00598451 0.000428277 0.00100007 6.55128e-10 8.534e-11 -8.58247e-10 5e-05 1.46608e-10 
202 1 0.144882 0.0175141 0.00763242 0.00640318 0.000682582 0.00161715 6.97171e-10 1.11764e-09 -9.00505e-10 5e-05 1.46608e-10 
203 1 0.150697 0.0178144 0.00717637 0.00529019 -0.000932212 0.000196803 -2.35208e-11 -1.12061e-10 7.35764e-11 5e-05 1.46608e-10 
204 1 0.144434 0.0168902 0.00796892 0.00541392 4.40941e-05 0.00178404 -7.0651e-10 -3.0408e-12 -2.56559e-10 5e-05 1.46608e-10 
205 1 0.144943 0.0182768 0.0070561 0.00551536 0.00108756 0.00102487 2.21288e-10 -2.91415e-10 2.77271e-10 5e-05 1.46608e-10 
206 1 0.144759 0.0177663 0.00739316 0.00618782 0.000408043 0.00177894 5.00739e-10 5.57107e-10 -1.22737e-10 5e-05 1.46608e-10 
207 1 0.144355 0.0162886 0.00841314 0.00531656 2.8422e-05 0.00178343 -4.35115e-10 -7.73704e-10 4.5952e-10 5e-05 1.46608e-10 
208 1 0.144682 0.0174609 0.00760609 0.00626356 0.0015019 0.000949484 1.13568e-10 1.31991e-10 -6.72464e-11 5e-05 1.46608e-10 
209 1 0.144608 0.0168886 0.00802904 0.00662986 7.29616e-05 0.00220523 7.59485e-10 -1.16705e-09 1.59655e-09 5e-05 1.46608e-10 
210 1 0.150878 0.0183302 0.00701347 0.00530848 -0.00111025 0.000504037 2.6899e-10 -7.32083e-11 1.06355e-10 5e-05 1.46608e-10 
211 1 0.150793 0.0182786 0.00701751 0.00521868 -0.00105729 0.00023735 2.63807e-11 6.15602e-10 -8.38199e-11 5e-05 1.46608e-10 
212 1 0.144875 0.017847 0.00736945 0.00608196 0.00129533 0.00106164 1.49349e-09 -2.08434e-09 2.09886e-09 5e-05 1.46608e-10 
213 1 0.15095 0.0185944 0.00702163 0.00533134 -0.00108289 0.00106726 5.13867e-10 1.1265e-10 1.23411e-10 5e-05 1.46608e-10 
214 1 0.150736 0.0179999 0.00711287 0.00530393 -0.000957093 0.000208613 -1.29817e-10 1.31444e-11 1.09064e-11 5e-05 1.46608e-10 
215 1 0.138743 0.0176119 0.00714869 0.00548841 -0.00027435 0.000348619 -1.77402e-10 1.10382e-10 -2.07699e-11 5e-05 1.46608e-10 
216 1 0.144618 0.0175636 0.00760751 0.00676988 -0.000529666 0.00200446 -1.17958e-10 1.00136e-10 3.89389e-11 5e-05 1.46608e-10 
217 1 0.151088 0.0188427 0.00705587 0.00568091 -0.00119392 0.00113116 -1.16291e-10 -2.47143e-10 2.24799e-11 5e-05 1.46608e-10 
218 1 0.144658 0.0177186 0.00739634 0.00550893 6.21338e-05 0.00182105 5.72656e-12 2.84198e-11 -1.93228e-11 5e-05 1.46608e-10 
219 1 0.150771 0.017751 0.0071961 0.00526812 -0.000961261 0.000207089 -4.07315e-11 -1.23089e-10 7.16554e-11 5e-05 1.46608e-10 
220 1 0.144824 0.0179446 0.00737957 0.00725556 0.000875885 0.00184 1.84376e-10 9.80886e-10 -7.82437e-11 5e-05 1.46608e-10 
221 1 0.138641 0.0171323 0.00724804 0.00579911 -0.000439617 -0.000113599 -2.38231e-11 5.98406e-11 -8.69994e-11 5e-05 1.46608e-10 
222 1 0.151076 0.0178336 0.00716148 0.00539453 -0.000828416 0.000159667 -1.62576e-10 -9.95336e-12 -9.19632e-13 5e-05 1.46608e-10 
223 1 0.144778 0.0174701 0.00763163 0.00608701 0.00053899 0.00164838 -5.13055e-10 3.86901e-10 -6.04571e-10 5e-05 1.46608e-10 
224 1 0.144489 0.0171033 0.00787368 0.00648147 -0.000257221 0.00236705 -2.40409e-10 1.71627e-09 -2.0912e-09 5e-05 1.46608e-10 
225 1 0.150711 0.017473 0.0072913 0.00562546 -0.000921815 0.000186636 -3.24631e-10 -1.01816e-10 4.07554e-11 5e-05 1.46608e-10 
226 1 0.145032 0.0179541 0.00733897 0.00647829 0.00295542 -0.000111044 -1.0548e-10 2.11316e-10 -4.35286e-10 5e-05 1.46608e-10 
227 1 0.138703 0.0174195 0.0071867 0.00569058 -0.000168553 0.000341518 9.36779e-11 1.74706e-10 -5.69531e-12 5e-05 1.46608e-10 
228 1 0.138608 0.0173878 0.00718821 0.00575833 -0.000367394 0.000388703 6.83838e-11 -1.98645e-11 -1.87165e-11 5e-05 1.46608e-10 
229 1 0.144792 0.0178673 0.00743464 0.00637465 0.000856317 0.00149597 1.23719e-10 5.32713e-10 -2.61632e-10 5e-05 1.46608e-10 
230 1 0.144818 0.0184051 0.00692047 0.0053438 -0.00129777 0.000120238 -2.50191e-10 -1.14709e-09 3.65822e-10 5e-05 1.46608e-10 
231 1 0.138567 0.0171976 0.00723347 0.0057425 -0.000487317 1.41153e-06 -5.06444e-11 2.52388e-11 -1.39349e-11 5e-05 1.46608e-10 
232 1 0.144491 0.0164874 0.00830357 0.00533852 -4.70186e-05 0.0018432 2.00203e-10 2.96062e-10 -2.24852e-10 5e-05 1.46608e-10 
233 1 0.144628 0.0170892 0.00792545 0.00706039 -0.000557251 0.00237395 0 0 -1.43822e-09 5e-05 1.46608e-10 
234 1 0.150889 0.0181904 0.00713135 0.00517325 -0.00102751 0.000196939 2.32035e-10 -7.96322e-11 2.72698e-10 5e-05 1.46608e-10 
235 1 0.144848 0.0182823 0.00708702 0.00568659 0.000228513 0.0017436 3.08786e-10 7.65018e-11 4.97496e-10 5e-05 1.46608e-10 
236 1 0.144792 0.0182768 0.00700473 0.00553284 8.38337e-05 0.00182438 2.11799e-10 3.50853e-10 9.89986e-11 5e-05 1.46608e-10 
237 1 0.144759 0.0181196 0.00711662 0.00535932 2.88469e-05 0.00179046 -5.07782e-10 -2.25876e-10 -1.2117e-10 5e-05 1.46608e-10 
239 1 0.138387 0.0165614 0.00784248 0.00593192 -7.40951e-05 0.000399781 1.35996e-10 -9.95625e-11 7.28751e-11 5e-05 1.46608e-10 
240 1 0.13845 0.0167715 0.00763807 0.00601685 -7.87725e-05 0.000410556 1.61415e-10 1.42276e-10 -3.82608e-11 5e-05 1.46608e-10 
241 1 0.138365 0.0164914 0.00791062 0.00592586 -6.96482e-05 0.000398101 8.32921e-11 -3.59386e-11 8.56792e-11 5e-05 1.46608e-10 
242 1 0.144797 0.0172747 0.00779116 0.00490847 0.00083639 0.00100993 -2.05359e-09 -7.07418e-10 -1.57939e-10 5e-05 1.46608e-10 
243 1 0.144513 0.016857 0.00802146 0.00580774 0.000519569 0.00156509 -5.90376e-10 2.95154e-10 -6.37832e-10 5e-05 1.46608e-10 
244 1 0.138408 0.0166314 0.00777434 0.00597505 -6.59795e-05 0.000401619 -4.73789e-10 -1.57715e-11 -1.19428e-10 5e-05 1.46608e-10 
246 1 0.138531 0.0170481 0.00736074 0.00543616 -0.000591928 -0.00029202 -8.93004e-11 -2.13804e-10 -2.21678e-10 5e-05 1.46608e-10 
247 1 0.144865 0.0180207 0.00732139 0.00669653 0.00116702 0.000936362 3.88617e-10 7.4695e-10 1.03486e-09 5e-05 1.46608e-10 
248 1 0.14485 0.0185629 0.00687466 0.00557534 -0.000359218 -0.000182602 -6.96473e-11 -3.18506e-11 -1.18467e-10 5e-05 1.46608e-10 
249 1 0.138838 0.017644 0.00714708 0.00550349 -0.000304303 0.000359183 -1.43823e-10 3.3288e-10 -2.2541e-10 5e-05 1.46608e-10 
250 1 0.144636 0.017638 0.0074521 0.00534872 -0.00053027 0.0022468 -9.26326e-11 1.96076e-11 -5.37256e-11 5e-05 1.46608e-10 
251 1 0.150716 0.0179071 0.00714462 0.00532285 -0.000946816 0.000200531 -1.0096e-11 -5.93686e-11 5.7567e-11 5e-05 1.46608e-10 
252 1 0.138688 0.0177728 0.00711531 0.00552792 -0.000346142 0.000140291 -2.7945e-11 -8.21352e-11 4.43112e-12 5e-05 1.46608e-10 
253 1 0.138682 0.0173234 0.00720567 0.00574915 -0.000361611 0.000385828 1.58138e-10 -8.81379e-11 5.6702e-11 5e-05 1.46608e-10 
254 1 0.138514 0.0169817 0.00743356 0.00562275 4.81257e-06 0.000310699 -3.66144e-11 -1.39497e-11 -6.9505e-11 5e-05 1.46608e-10 