ITEM: TIMESTEP
13000000
ITEM: NUMBER OF ATOMS
287
ITEM: BOX BOUNDS ff ff ff
-0.02 0.43
-0.02 0.06
-0.02 0.07
ITEM: ATOMS id type x y z vx vy vz fx fy fz radius mass 
1 1 0.0886254 0.0163458 0.00780188 0.00546172 -0.000333347 0.000379875 -2.95772e-10 2.59521e-10 -1.20267e-10 5e-05 1.46608e-10 
2 1 0.0890615 0.0173768 0.00730406 0.00603577 -0.000598585 -4.19912e-05 7.47997e-12 5.92578e-12 -1.34504e-12 5e-05 1.46608e-10 
3 1 0.0824363 0.0159098 0.00805918 0.00581998 0.000726046 -0.000510413 -7.98143e-11 5.05124e-11 -3.86573e-10 5e-05 1.46608e-10 
4 1 0.0889688 0.0177532 0.00712498 0.00540099 -0.000554834 -2.53566e-05 -2.07e-10 3.92075e-11 4.62164e-11 5e-05 1.46608e-10 
5 1 0.0885121 0.0162225 0.00784696 0.00554007 -0.000348182 0.000388113 -6.29029e-11 9.15104e-11 -1.79846e-11 5e-05 1.46608e-10 
6 1 0.0946368 0.0167494 0.00755672 0.00609861 -0.000113594 -0.000181801 -5.35994e-11 -6.06188e-11 3.79093e-11 5e-05 1.46608e-10 
7 1 0.0887007 0.0170295 0.00749401 0.005932 -0.000649514 -1.11575e-05 1.95708e-11 5.94106e-11 -3.21311e-11 5e-05 1.46608e-10 
8 1 0.0884157 0.0158627 0.00816844 0.0054991 -0.000431919 0.0002357 4.92724e-11 7.42755e-11 -1.07666e-10 5e-05 1.46608e-10 
9 1 0.0949097 0.0178897 0.00705416 0.00568441 -6.39102e-05 0.000171797 -3.49493e-11 2.20575e-11 7.31271e-13 5e-05 1.46608e-10 
10 1 0.0886358 0.0167679 0.00762565 0.00591345 -0.000589537 -3.8672e-05 -1.11352e-10 -2.76918e-10 1.47527e-10 5e-05 1.46608e-10 
11 1 0.0891062 0.0175529 0.00721538 0.00605507 -0.00063426 -2.62259e-05 7.97879e-11 -1.70498e-10 6.90402e-11 5e-05 1.46608e-10 
12 1 0.0826397 0.0167896 0.00763891 0.00617681 0.000542201 -0.000575708 -1.36102e-11 -8.97083e-11 8.30542e-11 5e-05 1.46608e-10 
13 1 0.0884933 0.0161313 0.00788324 0.00557874 -0.000363681 0.000395034 4.35971e-11 9.93385e-11 -4.26734e-11 5e-05 1.46608e-10 
14 1 0.0823612 0.0156856 0.00837712 0.00570418 -1.76827e-05 -0.00105218 5.1126e-10 1.42741e-10 2.37027e-11 5e-05 1.46608e-10 
15 1 0.0888401 0.0172297 0.00738831 0.00599897 -0.000666889 -6.53273e-06 6.28992e-12 2.19522e-11 -9.2783e-12 5e-05 1.46608e-10 
16 1 0.0823436 0.0156467 0.00846754 0.0056372 -1.45851e-05 -0.00104282 8.10249e-11 6.42004e-11 1.4196e-10 5e-05 1.46608e-10 
17 1 0.0886137 0.0166776 0.0076665 0.00589478 -0.000429045 0.000467076 5.02143e-11 3.2918e-11 -1.54552e-11 5e-05 1.46608e-10 
18 1 0.0947849 0.017317 0.00718183 0.00626779 -0.000167818 5.77414e-05 1.4122e-10 2.76623e-11 2.84266e-10 5e-05 1.46608e-10 
19 1 0.0884737 0.0160576 0.00794793 0.00555134 -0.000408988 0.000327392 -3.27695e-11 -1.30765e-11 -1.26096e-10 5e-05 1.46608e-10 
21 1 0.0886066 0.0162545 0.00783816 0.00548202 -0.000362874 0.000391088 -7.82478e-12 7.28631e-11 -1.38801e-11 5e-05 1.46608e-10 
22 1 0.088744 0.017204 0.00740623 0.00597007 -0.000635885 -2.01115e-05 5.82584e-11 1.50442e-10 -7.83068e-11 5e-05 1.46608e-10 
23 1 0.0828228 0.017174 0.00746576 0.00620014 0.00052082 -0.000569394 -5.48634e-11 3.92163e-11 -2.12812e-11 5e-05 1.46608e-10 
24 1 0.094849 0.0176025 0.00711579 0.00621939 -0.000152702 0.000207275 3.12914e-11 5.33582e-11 -5.34312e-12 5e-05 1.46608e-10 
25 1 0.0886791 0.0169423 0.00753789 0.00593 -0.000632747 -1.86462e-05 1.07663e-10 2.61431e-10 -1.22439e-10 5e-05 1.46608e-10 
26 1 0.0947207 0.0170662 0.00732732 0.00622606 -0.000174398 -0.000144556 -7.59568e-11 -1.96841e-10 1.34592e-10 5e-05 1.46608e-10 
27 1 0.0827266 0.0171475 0.00748302 0.00619103 0.000529434 -0.000573031 -3.65592e-11 -7.37311e-12 -9.48451e-12 5e-05 1.46608e-10 
28 1 0.0889483 0.0176661 0.0071697 0.00601592 -0.000693366 5.03078e-06 1.03399e-10 -2.04581e-11 -4.46496e-12 5e-05 1.46608e-10 
29 1 0.0884542 0.0159911 0.00802006 0.00549748 -0.000476792 0.000233518 1.27535e-10 7.97585e-11 3.73035e-11 5e-05 1.46608e-10 
30 1 0.0889795 0.0174299 0.00728261 0.0060039 -0.000650454 -1.48697e-05 4.48452e-11 6.09377e-11 -3.62049e-11 5e-05 1.46608e-10 
31 1 0.0887224 0.0171168 0.00745011 0.00595078 -0.000636652 -1.86981e-05 -1.60544e-11 6.07e-11 -2.49094e-11 5e-05 1.46608e-10 
32 1 0.0888185 0.0171425 0.00743218 0.0059669 -0.000655679 -1.06259e-05 -1.48031e-14 4.68885e-11 -2.95313e-11 5e-05 1.46608e-10 
33 1 0.0946578 0.0168286 0.00749937 0.00613927 -0.000117254 -0.000180075 -8.01834e-11 -5.12265e-11 4.90732e-11 5e-05 1.46608e-10 
34 1 0.088592 0.0165868 0.00770239 0.00590152 -0.000424944 0.000434736 1.54798e-11 2.71817e-11 3.82643e-12 5e-05 1.46608e-10 
35 1 0.0887968 0.0170553 0.00747606 0.00594201 -0.000651488 -1.09558e-05 -6.48659e-11 2.72564e-11 -4.54168e-12 5e-05 1.46608e-10 
36 1 0.09495 0.0180813 0.00701307 0.00573554 -8.28609e-05 0.000176912 1.09341e-12 4.86679e-11 6.11118e-12 5e-05 1.46608e-10 
37 1 0.0887536 0.0168809 0.00756382 0.0059148 -0.000653901 -6.05178e-06 -3.90887e-11 4.09928e-12 -1.33787e-11 5e-05 1.46608e-10 
38 1 0.0889145 0.0171681 0.00741431 0.00597875 -0.000684401 2.88133e-06 2.37653e-11 4.2553e-11 -2.37327e-11 5e-05 1.46608e-10 
39 1 0.0948696 0.0176982 0.00709527 0.00574398 -6.58722e-05 0.000174005 4.54838e-10 -1.63298e-11 1.95339e-11 5e-05 1.46608e-10 
41 1 0.0885497 0.0164051 0.00777441 0.00547268 -0.000334112 0.000379271 -1.39833e-10 1.20046e-10 -7.56267e-11 5e-05 1.46608e-10 
42 1 0.0887656 0.0172912 0.00736235 0.00596807 -0.000664216 -6.15982e-06 3.86763e-11 1.40674e-10 -6.81929e-11 5e-05 1.46608e-10 
44 1 0.0889362 0.0172553 0.00737044 0.00600652 -0.000687983 3.11605e-06 1.68198e-11 5.83391e-11 -3.3573e-11 5e-05 1.46608e-10 
45 1 0.0946787 0.0169078 0.00744202 0.00617524 -0.000129591 -0.000173436 2.00382e-11 -1.24985e-10 9.09263e-11 5e-05 1.46608e-10 
46 1 0.0947627 0.0172245 0.00721262 0.00629884 -0.000209278 -0.000106736 4.47467e-11 -2.31566e-11 -7.04776e-11 5e-05 1.46608e-10 
47 1 0.0885703 0.016496 0.00773833 0.00590814 -0.000407711 0.000427153 -1.40997e-11 9.75239e-11 -2.06445e-11 5e-05 1.46608e-10 
48 1 0.0888089 0.0174656 0.00727459 0.00599143 -0.000685429 3.16433e-06 -6.9939e-11 -6.30018e-12 4.41346e-12 5e-05 1.46608e-10 
49 1 0.094742 0.0171453 0.00727 0.00627812 -0.000200995 -0.000128437 1.20571e-10 -8.80256e-11 4.86866e-11 5e-05 1.46608e-10 
50 1 0.0888738 0.0177272 0.00714296 0.00600761 -0.000719305 1.87151e-05 4.55462e-11 5.64969e-12 -7.07818e-13 5e-05 1.46608e-10 
51 1 0.0888522 0.01764 0.00718684 0.00600587 -0.000707165 1.18651e-05 1.00021e-10 -4.44238e-11 2.15994e-12 5e-05 1.46608e-10 
52 1 0.082618 0.0167001 0.00767802 0.0061712 0.000485132 -0.000553112 1.94333e-10 2.05984e-10 -1.22147e-10 5e-05 1.46608e-10 
53 1 0.094806 0.0174115 0.00715668 0.0062585 -0.000144247 0.000198652 3.12066e-11 -3.50123e-11 1.39108e-10 5e-05 1.46608e-10 
54 1 0.0885878 0.0161628 0.00787464 0.00555484 -0.000347786 0.000394309 1.21786e-10 -1.15501e-11 -6.7234e-11 5e-05 1.46608e-10 
55 1 0.0823976 0.0157779 0.00820424 0.005799 0.000201304 -0.000968253 8.46902e-11 9.12432e-11 -4.95662e-10 5e-05 1.46608e-10 
56 1 0.0887752 0.0169681 0.00751994 0.00592608 -0.000652348 -9.35664e-06 -7.73218e-11 -1.01467e-12 -1.79893e-12 5e-05 1.46608e-10 
57 1 0.0946997 0.016987 0.00738467 0.00619577 -0.000150787 -0.000159728 2.38338e-11 -2.162e-10 1.52007e-10 5e-05 1.46608e-10 
59 1 0.0888281 0.0168194 0.00759005 0.00583396 -0.000640714 1.61092e-05 9.32988e-11 -1.26838e-11 -7.3691e-11 5e-05 1.46608e-10 
60 1 0.0888496 0.0169065 0.00754595 0.00590446 -0.00066601 1.02868e-07 -8.07723e-11 1.20875e-11 2.3936e-11 5e-05 1.46608e-10 
61 1 0.0885309 0.0163138 0.00781068 0.005509 -0.000349369 0.000387464 7.27242e-11 1.94992e-10 -9.18313e-11 5e-05 1.46608e-10 
62 1 0.0889578 0.0173426 0.00732653 0.00601204 -0.000668025 -6.63939e-06 3.47169e-11 7.0365e-11 -3.49464e-11 5e-05 1.46608e-10 
63 1 0.088905 0.0174913 0.00725667 0.00598906 -0.000678534 -2.15802e-08 -1.16464e-11 -7.41215e-12 -6.19576e-12 5e-05 1.46608e-10 
64 1 0.0948275 0.017507 0.00713623 0.00626288 -0.000152242 0.000212858 4.41628e-11 -5.13612e-11 -2.38593e-11 5e-05 1.46608e-10 
65 1 0.082736 0.0168162 0.00762221 0.0061405 0.000505462 -0.000557777 -8.07532e-11 -1.56468e-11 3.73593e-11 5e-05 1.46608e-10 
66 1 0.0826709 0.0165479 0.00773954 0.00620187 0.000479418 -0.000550756 1.62543e-10 -1.38634e-10 6.11333e-11 5e-05 1.46608e-10 
67 1 0.0890832 0.017464 0.00726018 0.00601999 -0.000586129 -4.68814e-05 -7.66809e-12 -1.03986e-11 -4.35829e-13 5e-05 1.46608e-10 
68 1 0.0890232 0.0176047 0.00719462 0.0060273 -0.000673573 -5.92809e-06 1.63108e-10 -2.0923e-11 1.6494e-11 5e-05 1.46608e-10 
69 1 0.0886895 0.0166183 0.00769391 0.0059007 -0.000421195 0.000436174 -6.10924e-12 -8.71427e-11 -1.03374e-10 5e-05 1.46608e-10 
70 1 0.0948896 0.0177939 0.00707471 0.00566502 -5.60468e-05 0.000169404 9.71945e-11 2.34349e-11 -1.26357e-11 5e-05 1.46608e-10 
71 1 0.082379 0.0157245 0.00828671 0.0057725 -1.27305e-05 -0.00107219 -5.03725e-11 -3.76806e-12 -3.49668e-10 5e-05 1.46608e-10 
72 1 0.0890012 0.0175171 0.00723874 0.0059901 -0.000648892 -1.43304e-05 3.16747e-11 6.09048e-13 8.13194e-12 5e-05 1.46608e-10 
73 1 0.0886574 0.0168551 0.00758177 0.0059207 -0.000597584 -3.39777e-05 1.48618e-11 7.92973e-11 -6.74251e-11 5e-05 1.46608e-10 
74 1 0.0888619 0.0173174 0.00734539 0.00601264 -0.000676149 -2.50897e-06 -5.14927e-11 2.34861e-11 1.11922e-12 5e-05 1.46608e-10 
76 1 0.0829634 0.0177229 0.00722532 0.00624062 0.000560198 -0.00058691 4.13135e-11 7.66685e-11 -3.28864e-11 5e-05 1.46608e-10 
77 1 0.0890574 0.0183728 0.00694961 0.00549246 -0.000626789 0.000236099 1.19027e-11 1.98417e-11 1.26879e-11 5e-05 1.46608e-10 
78 1 0.0824558 0.0159838 0.00799474 0.00588142 0.000658434 -0.000579376 -1.68256e-10 5.67857e-11 -1.77489e-11 5e-05 1.46608e-10 
79 1 0.0826614 0.016879 0.0075998 0.00617401 0.000511767 -0.000563675 -9.08445e-12 1.77771e-10 -8.72432e-11 5e-05 1.46608e-10 
80 1 0.0889125 0.0179026 0.00705498 0.00555406 -0.000659862 1.37416e-05 -2.14678e-10 1.64339e-10 -3.52426e-11 5e-05 1.46608e-10 
81 1 0.0825962 0.0166107 0.00771713 0.00616534 0.000496953 -0.00055786 -1.19717e-11 1.2382e-11 -1.01154e-11 5e-05 1.46608e-10 
82 1 0.0827483 0.0172371 0.0074441 0.00620098 0.00052931 -0.000574511 -2.72055e-11 3.54496e-11 -1.98729e-12 5e-05 1.46608e-10 
83 1 0.0827448 0.0164844 0.0077623 0.00625185 0.000505543 -0.000564833 2.22846e-10 -1.09118e-10 3.76171e-11 5e-05 1.46608e-10 
84 1 0.0949299 0.0179855 0.00703361 0.00571459 -7.32495e-05 0.000175268 -2.59508e-11 7.01225e-11 -3.36731e-11 5e-05 1.46608e-10 
85 1 0.0825504 0.0160092 0.00797454 0.00591256 0.000516876 -0.00065115 -4.73645e-10 2.78945e-10 9.76162e-10 5e-05 1.46608e-10 
86 1 0.0889267 0.0175785 0.0072128 0.00598356 -0.00067682 -7.60525e-07 -8.1316e-13 -1.47609e-11 -3.59885e-11 5e-05 1.46608e-10 
87 1 0.0888076 0.0167318 0.00763378 0.00571713 -0.000629644 -2.57875e-05 8.52702e-11 1.13108e-11 -4.56678e-11 5e-05 1.46608e-10 
88 1 0.0889639 0.0181341 0.00696686 0.00550799 -0.000617361 0.00015373 -7.26146e-11 2.89606e-11 -7.52682e-11 5e-05 1.46608e-10 
89 1 0.0889307 0.0179905 0.00701095 0.00564056 -0.000680752 2.27999e-05 -7.35905e-11 2.09875e-10 -1.11922e-11 5e-05 1.46608e-10 
90 1 0.0890342 0.0172831 0.00735143 0.00602354 -0.000655508 -1.35616e-05 -7.56264e-12 -1.19869e-11 6.25203e-12 5e-05 1.46608e-10 
91 1 0.0826831 0.0169684 0.00756069 0.00618101 0.000522932 -0.000568529 -6.51483e-14 3.08109e-11 -9.7431e-12 5e-05 1.46608e-10 
92 1 0.0890836 0.0178674 0.00706274 0.00538981 -0.00059302 -1.11728e-05 7.25936e-12 6.91285e-11 -1.78125e-11 5e-05 1.46608e-10 
93 1 0.0890522 0.018087 0.00696887 0.00549718 -0.00062623 0.000211508 4.13084e-11 3.78578e-11 -1.57561e-10 5e-05 1.46608e-10 
94 1 0.0891551 0.0181296 0.00693746 0.00553105 -0.000599938 8.72388e-05 -8.33429e-11 -1.11441e-10 -2.34858e-10 5e-05 1.46608e-10 
95 1 0.0889389 0.0179034 0.00715142 0.00858371 -0.00176899 -0.000796782 8.43649e-11 -6.78963e-11 -6.91977e-11 5e-05 1.46608e-10 
96 1 0.0891107 0.0179532 0.00701922 0.00544694 -0.000607284 -9.16764e-06 1.31581e-11 3.30386e-11 -1.5907e-10 5e-05 1.46608e-10 
97 1 0.0825528 0.0164318 0.00779536 0.00615354 0.000496496 -0.000554794 4.47172e-13 -4.25574e-11 2.92425e-11 5e-05 1.46608e-10 
98 1 0.0889797 0.0182236 0.00692508 0.00548326 -0.0005997 0.000198704 -3.61213e-11 4.04092e-11 -1.36807e-10 5e-05 1.46608e-10 
99 1 0.0827143 0.0167268 0.00766132 0.00616102 0.000495314 -0.00055502 1.77747e-10 -8.76235e-11 -1.25606e-11 5e-05 1.46608e-10 
100 1 0.0889896 0.0171073 0.00743992 0.00594907 -0.000712139 1.84144e-05 -6.17494e-11 -2.81581e-11 1.6076e-11 5e-05 1.46608e-10 
101 1 0.0826491 0.0164585 0.00777865 0.00616846 0.00049126 -0.00055405 1.36105e-10 -2.97291e-10 9.85486e-11 5e-05 1.46608e-10 
102 1 0.0643568 0.0187248 0.00531097 4.42123e-15 1.04262e-14 8.29614e-14 -2.32722e-22 -4.92121e-22 7.01036e-23 5e-05 1.46608e-10 
103 1 0.24257 0.0191927 0.00520306 2.51438e-22 7.53933e-22 -5.81428e-22 0 0 0 5e-05 1.46608e-10 
104 1 0.0829983 0.0175752 0.00732848 0.0062528 0.000389119 -0.000693047 1.73974e-10 -7.34448e-11 5.55613e-11 5e-05 1.46608e-10 
105 1 0.0825127 0.0162522 0.0078737 0.00573076 0.000592643 -0.000573806 2.15297e-10 -3.39532e-11 2.70078e-11 5e-05 1.46608e-10 
106 1 0.0830789 0.0174943 0.00731567 0.0061639 0.000635099 -0.000614866 -3.48658e-11 -5.2522e-11 2.57141e-12 5e-05 1.46608e-10 
107 1 0.0824749 0.0160722 0.00795211 0.00584174 0.000620422 -0.000595184 7.57471e-11 7.45742e-11 -1.14782e-10 5e-05 1.46608e-10 
108 1 0.0887319 0.0167937 0.0076077 0.00586036 -0.000646178 -1.2912e-05 -4.54133e-11 7.98529e-11 1.67265e-11 5e-05 1.46608e-10 
109 1 0.0888306 0.0175528 0.00723071 0.00599391 -0.000693503 6.61874e-06 5.93277e-11 5.54661e-12 -2.01286e-11 5e-05 1.46608e-10 
110 1 0.0892416 0.0181797 0.00693424 0.00553009 -0.000585348 0.000241767 -8.96824e-11 -1.7247e-10 -5.84142e-11 5e-05 1.46608e-10 
111 1 0.0890151 0.0183921 0.00703811 0.00554137 -0.000902792 0.000313633 4.86288e-12 6.0662e-11 2.46726e-11 5e-05 1.46608e-10 
112 1 0.0825745 0.0165213 0.00775625 0.00616294 0.00049984 -0.000558244 3.0796e-11 -1.7015e-10 8.43426e-11 5e-05 1.46608e-10 
113 1 0.0834109 0.0182633 0.00697122 0.00583357 0.000371558 -0.000486171 -4.11791e-10 3.4706e-10 -1.36474e-10 5e-05 1.46608e-10 
114 1 0.0829402 0.0172895 0.00741022 0.00612539 0.000520636 -0.00056252 -5.04754e-11 8.79604e-11 4.15309e-11 5e-05 1.46608e-10 
115 1 0.0888834 0.0174041 0.00730055 0.00600184 -0.000678221 -1.41149e-06 -9.1656e-12 5.26955e-11 -2.40447e-11 5e-05 1.46608e-10 
116 1 0.088711 0.0167063 0.0076517 0.00575379 -0.000650438 -7.01453e-05 3.80923e-10 1.7381e-10 5.82326e-10 5e-05 1.46608e-10 
117 1 0.0885682 0.0160744 0.00791723 0.00560133 -0.000431831 0.000231234 1.09859e-10 4.72127e-11 -1.22619e-10 5e-05 1.46608e-10 
118 1 0.0824172 0.015846 0.00813371 0.00577449 0.000555457 -0.00065326 1.99428e-10 1.76567e-10 -4.29887e-10 5e-05 1.46608e-10 
119 1 0.0888712 0.0169937 0.00750207 0.00593058 -0.000670632 -1.06423e-06 -8.94432e-11 9.5695e-12 -7.10234e-12 5e-05 1.46608e-10 
120 1 0.0884349 0.0159265 0.00809393 0.00550166 -0.000445666 0.000243498 1.9634e-11 3.69326e-11 -5.4254e-11 5e-05 1.46608e-10 
121 1 0.0883964 0.0157988 0.00824293 0.00547573 -0.000419498 0.000223768 5.58584e-11 1.44532e-10 -1.62096e-10 5e-05 1.46608e-10 
122 1 0.0892372 0.0182852 0.00694821 0.00551602 -0.000594052 0.000238083 -1.01858e-10 7.25546e-11 3.34155e-11 5e-05 1.46608e-10 
123 1 0.082589 0.0161891 0.00789615 0.00580269 0.000582201 -0.00057052 -8.73064e-11 -6.17594e-10 2.32664e-10 5e-05 1.46608e-10 
124 1 0.0890087 0.0179291 0.0070386 0.00543371 -0.00059853 -0.000107535 -3.52003e-11 8.14458e-11 2.49128e-10 5e-05 1.46608e-10 
125 1 0.08855 0.0160103 0.00799201 0.00581995 -0.000269831 3.22888e-05 4.44807e-12 6.99851e-11 -6.86678e-11 5e-05 1.46608e-10 
126 1 0.0887873 0.0173784 0.00731847 0.00597981 -0.000674742 -1.69338e-06 1.21101e-11 1.10034e-10 -5.42554e-11 5e-05 1.46608e-10 
127 1 0.0825317 0.0163423 0.00783449 0.00595344 0.000540573 -0.000563446 -1.44608e-10 5.21516e-11 -3.19676e-11 5e-05 1.46608e-10 
128 1 0.088894 0.0178148 0.00709901 0.005511 -0.000634197 5.11257e-06 5.74702e-11 -1.37785e-11 -4.72724e-12 5e-05 1.46608e-10 
129 1 0.0889602 0.018078 0.00704952 0.00551869 -0.000683504 9.73814e-05 2.22053e-10 1.27957e-10 6.67899e-11 5e-05 1.46608e-10 
130 1 0.0828449 0.0172646 0.00742877 0.00621357 0.000530747 -0.000576784 1.25698e-10 9.7178e-11 -4.32559e-11 5e-05 1.46608e-10 
131 1 0.0826925 0.0166374 0.00770043 0.00619385 0.000485615 -0.000554212 2.25291e-10 -7.69812e-11 -4.33678e-12 5e-05 1.46608e-10 
132 1 0.0889889 0.0178408 0.00708105 0.00546237 -0.000577285 -4.79067e-05 1.3225e-10 1.06064e-11 3.64926e-11 5e-05 1.46608e-10 
133 1 0.0887219 0.0163758 0.00779392 0.0053916 -0.000320218 0.000375575 -1.20344e-10 2.4195e-11 -1.96382e-11 5e-05 1.46608e-10 
134 1 0.0888928 0.0170809 0.00745819 0.00595084 -0.000677101 1.42555e-06 -4.74255e-11 2.43413e-11 1.20218e-12 5e-05 1.46608e-10 
135 1 0.0885307 0.0159464 0.0080665 0.00575185 -0.000254843 2.44352e-05 2.10527e-10 2.42406e-11 -1.96444e-11 5e-05 1.46608e-10 
136 1 0.0825313 0.015934 0.00803761 0.00587669 0.000709935 -0.000448008 -3.7296e-11 1.54393e-10 -4.37058e-10 5e-05 1.46608e-10 
137 1 0.0890303 0.0184684 0.00696092 0.00545735 -0.000635233 0.000230522 -2.89695e-11 -4.32423e-11 -2.86816e-12 5e-05 1.46608e-10 
138 1 0.0886677 0.0165275 0.00772985 0.00591106 -0.000410079 0.000427262 -5.75341e-11 -3.97253e-11 1.69739e-11 5e-05 1.46608e-10 
140 1 0.0891476 0.0183295 0.006949 0.00550882 -0.000602632 0.000238281 -2.77319e-11 2.54407e-12 9.65327e-12 5e-05 1.46608e-10 
141 1 0.0825698 0.0160992 0.00793535 0.00583702 0.000569973 -0.000585189 -6.08319e-10 -3.46682e-10 1.59544e-10 5e-05 1.46608e-10 
142 1 0.0829619 0.017379 0.00737111 0.00614428 0.000501707 -0.00055856 1.08743e-10 1.5907e-10 -5.98095e-11 5e-05 1.46608e-10 
143 1 0.0824938 0.0161622 0.0079129 0.00578702 0.000599525 -0.000574213 9.37909e-11 4.28028e-11 4.8197e-11 5e-05 1.46608e-10 
144 1 0.0829185 0.0172001 0.00744934 0.00621161 0.000514895 -0.000566965 1.27728e-10 7.12355e-11 -3.93902e-11 5e-05 1.46608e-10 
146 1 0.0827665 0.016574 0.00772314 0.00623247 0.0005124 -0.000566567 4.27122e-10 -3.14653e-11 -3.79584e-12 5e-05 1.46608e-10 
147 1 0.0825119 0.0158676 0.00810981 0.00575551 0.000707955 -0.000465819 8.27162e-11 4.21973e-10 -4.37212e-10 5e-05 1.46608e-10 
148 1 0.0828135 0.0175051 0.00732622 0.00619692 0.000533477 -0.000573422 -2.90033e-11 -1.81864e-11 -2.85849e-10 5e-05 1.46608e-10 
149 1 0.089155 0.0182296 0.00693596 0.00551729 -0.000602834 0.000234366 7.95205e-12 -6.29951e-11 -2.15529e-11 5e-05 1.46608e-10 
150 1 0.08281 0.0167529 0.0076449 0.00612823 0.000493531 -0.000552982 -3.96385e-10 -1.9971e-11 2.40241e-11 5e-05 1.46608e-10 
151 1 0.083174 0.0175205 0.00729924 0.00615011 0.000679541 -0.000633108 -6.70051e-11 1.9689e-10 -7.39392e-11 5e-05 1.46608e-10 
153 1 0.082628 0.016369 0.00781778 0.0061077 0.000507707 -0.000558515 1.05511e-11 -4.61439e-10 2.02611e-10 5e-05 1.46608e-10 
154 1 0.0829102 0.0175321 0.00730914 0.00619763 0.000535794 -0.00057627 3.64335e-11 1.10974e-10 -6.76666e-11 5e-05 1.46608e-10 
155 1 0.0829851 0.0178124 0.00718635 0.00621027 0.000540265 -0.000574149 -2.37817e-11 1.33896e-10 -1.50554e-10 5e-05 1.46608e-10 
156 1 0.0828886 0.0174441 0.00735158 0.00617425 0.000521639 -0.000578707 -1.61177e-10 -3.01629e-11 -7.37165e-11 5e-05 1.46608e-10 
157 1 0.0219312 0.0187687 0.00551176 -3.82855e-14 8.16932e-14 2.95887e-13 -3.99218e-22 -6.88111e-23 -2.04727e-23 5e-05 1.46608e-10 
158 1 0.0829953 0.0176764 0.00732593 0.00622456 0.000548643 -0.000640203 7.71204e-12 -1.34476e-10 2.88338e-11 5e-05 1.46608e-10 
159 1 0.0890438 0.0176922 0.00715067 0.00534299 -0.000585198 -9.11784e-06 -4.39211e-11 -4.69869e-11 2.14995e-11 5e-05 1.46608e-10 
160 1 0.0828787 0.0177733 0.0072087 0.00621922 0.000525932 -0.000570641 8.34186e-11 6.20688e-11 -2.38746e-11 5e-05 1.46608e-10 
162 1 0.0828352 0.0175944 0.00728692 0.00620115 0.000528505 -0.000574261 -2.3867e-11 5.1657e-11 -1.18871e-10 5e-05 1.46608e-10 
164 1 0.08313 0.018175 0.00702439 0.00565765 0.000685494 -0.000607717 -2.85353e-11 -1.21003e-10 1.0844e-10 5e-05 1.46608e-10 
165 1 0.0832614 0.0178187 0.00716797 0.0060829 0.000971557 -0.000753261 -2.06306e-10 1.89666e-10 -5.3504e-11 5e-05 1.46608e-10 
166 1 0.0886825 0.0161936 0.00786629 0.00551919 -0.000304149 0.000370433 6.78483e-11 3.86102e-11 -5.44071e-11 5e-05 1.46608e-10 
167 1 0.0827883 0.0166635 0.00768401 0.00618765 0.000517671 -0.000566545 2.66784e-10 -1.29541e-10 5.18102e-11 5e-05 1.46608e-10 
168 1 0.083083 0.0175862 0.0072765 0.00626297 0.000616673 -0.000614821 -2.36524e-11 2.51958e-11 1.90185e-11 5e-05 1.46608e-10 
169 1 0.083314 0.0182431 0.00698524 0.00571084 0.00085451 -0.000680818 -1.46732e-10 4.60585e-10 -2.58319e-10 5e-05 1.46608e-10 
170 1 0.0831449 0.0176999 0.00722485 0.00629832 0.000685963 -0.000643774 -1.32044e-10 -3.02803e-11 4.41842e-11 5e-05 1.46608e-10 
171 1 0.0887022 0.0162847 0.00783011 0.00541257 -0.000306411 0.000362516 -9.90488e-11 2.94351e-11 -2.06736e-11 5e-05 1.46608e-10 
172 1 0.0832408 0.0177267 0.00720811 0.00608276 0.000780325 -0.000672792 2.04738e-10 -2.90069e-11 1.15461e-11 5e-05 1.46608e-10 
173 1 0.0891585 0.0178063 0.00708845 0.00534816 -0.000633896 1.50764e-05 -1.1044e-10 1.18892e-10 -3.42029e-11 5e-05 1.46608e-10 
174 1 0.0830705 0.0177629 0.00720235 0.00624876 0.00061574 -0.000608744 -8.38045e-11 3.19257e-11 -4.79219e-11 5e-05 1.46608e-10 
175 1 0.0767706 0.0172505 0.00722828 0.00635723 0.000285087 -1.13787e-05 -3.99606e-11 -2.17253e-11 -1.10986e-12 5e-05 1.46608e-10 
176 1 0.0828669 0.0173544 0.00739009 0.00617877 0.00055522 -0.00056692 -1.72079e-10 8.39447e-11 8.09717e-11 5e-05 1.46608e-10 
177 1 0.0829219 0.0179522 0.00713047 0.00595856 0.000574322 -0.000576928 -1.6475e-10 4.98115e-11 1.46291e-12 5e-05 1.46608e-10 
178 1 0.0833562 0.0181588 0.00701858 0.00573316 0.000755666 -0.000641951 2.91454e-10 8.6249e-10 -3.58449e-10 5e-05 1.46608e-10 
179 1 0.083265 0.0181232 0.00703878 0.00574185 0.000755014 -0.000640265 3.11519e-10 -1.16413e-10 -6.53599e-11 5e-05 1.46608e-10 
181 1 0.0828461 0.017675 0.00735421 0.00607438 0.000217531 -0.00139173 -4.59264e-11 4.94578e-10 1.1125e-09 5e-05 1.46608e-10 
182 1 0.088646 0.0164368 0.00776579 0.00591294 -0.000409192 0.000427986 -1.32678e-10 -4.23225e-11 3.52532e-12 5e-05 1.46608e-10 
183 1 0.0830488 0.0176734 0.00724148 0.00627409 0.00061375 -0.000610075 -4.1606e-12 5.55323e-11 -4.23286e-11 5e-05 1.46608e-10 
184 1 0.0889917 0.0177399 0.00722143 0.00550995 -0.000369931 -2.67817e-05 -1.15114e-10 6.67216e-11 -3.13558e-11 5e-05 1.46608e-10 
185 1 0.0827918 0.0174156 0.00736514 0.00619746 0.000540657 -0.00057306 -5.06841e-11 3.56925e-11 -1.14442e-10 5e-05 1.46608e-10 
186 1 0.0828426 0.0175801 0.00738561 0.0062471 0.000508076 -0.000590155 -4.88425e-11 -5.27905e-11 -2.38618e-10 5e-05 1.46608e-10 
187 1 0.0889677 0.0170198 0.00748396 0.0059258 -0.000707248 1.72048e-05 -7.82768e-11 2.48581e-11 -7.20421e-12 5e-05 1.46608e-10 
188 1 0.089067 0.0181749 0.00692348 0.00550258 -0.000604394 0.000237457 -1.49163e-10 -7.41564e-11 -1.42736e-10 5e-05 1.46608e-10 
189 1 0.0890121 0.0171953 0.00739559 0.00598723 -0.000710119 1.52773e-05 -5.4941e-12 -1.23438e-11 6.99048e-12 5e-05 1.46608e-10 
190 1 0.0768856 0.0173638 0.00716276 0.00580838 0.000453341 -0.000127989 -9.15025e-12 6.03434e-11 -2.68509e-11 5e-05 1.46608e-10 
191 1 0.0890504 0.0185653 0.00697514 0.00544755 -0.000637021 0.000229396 -1.88053e-11 -1.04759e-10 -1.18339e-11 5e-05 1.46608e-10 
192 1 0.0830355 0.0173152 0.00739398 0.00612722 0.000496584 -0.000555082 -1.79116e-10 7.26753e-11 -1.42481e-11 5e-05 1.46608e-10 
193 1 0.0887854 0.016645 0.00767812 0.00577886 -0.000626198 -6.82249e-06 1.12864e-10 -6.65631e-11 -6.15315e-11 5e-05 1.46608e-10 
194 1 0.0828534 0.0169318 0.00756667 0.00614716 0.000506053 -0.000559005 -9.66193e-11 4.14265e-11 -1.14455e-11 5e-05 1.46608e-10 
195 1 0.0832683 0.0179317 0.00711973 0.00594995 0.00101182 -0.000763072 -5.6428e-11 -4.17059e-10 1.9494e-10 5e-05 1.46608e-10 
196 1 0.082326 0.0156078 0.00855796 0.00560549 -2.15103e-05 -0.00102867 -1.06502e-10 -2.15253e-10 4.21308e-10 5e-05 1.46608e-10 
197 1 0.0768299 0.0175163 0.00711814 0.00578889 0.000362898 -0.000289324 -2.6282e-11 6.69638e-11 2.58074e-11 5e-05 1.46608e-10 
198 1 0.0827049 0.0170579 0.00752158 0.00618202 0.000528852 -0.000570479 -4.68267e-11 -2.35616e-11 1.77248e-11 5e-05 1.46608e-10 
199 1 0.0828569 0.0176839 0.00724781 0.00621363 0.00052755 -0.000570426 3.6176e-11 6.83821e-11 -4.65103e-11 5e-05 1.46608e-10 
200 1 0.0828011 0.0170845 0.00750488 0.00618675 0.000519134 -0.000567234 -8.80434e-11 3.04953e-11 1.51628e-11 5e-05 1.46608e-10 
201 1 0.083272 0.0183274 0.00695185 0.00539417 0.000763811 -0.000625341 -5.81146e-10 4.23033e-10 -1.49578e-10 5e-05 1.46608e-10 
202 1 0.0830574 0.0174047 0.00735487 0.00616503 0.000554449 -0.000580873 -1.13684e-10 -8.66576e-11 5.25788e-11 5e-05 1.46608e-10 
203 1 0.0893259 0.018126 0.00693188 0.00554882 -0.00055756 0.00024116 -1.4522e-10 -3.03039e-11 -1.0435e-11 5e-05 1.46608e-10 
204 1 0.0827794 0.0169951 0.00754399 0.00616473 0.000515997 -0.000564279 -1.13646e-10 -4.8035e-11 -1.58345e-11 5e-05 1.46608e-10 
205 1 0.083118 0.0180436 0.00712718 0.00582385 0.000725174 -0.000606089 -4.11658e-10 -1.76696e-10 -3.92289e-10 5e-05 1.46608e-10 
206 1 0.0830919 0.0178525 0.0071632 0.00607599 0.000770078 -0.000664891 2.73872e-11 -8.0437e-11 3.48012e-11 5e-05 1.46608e-10 
207 1 0.082608 0.0162791 0.00785695 0.0059335 0.000549586 -0.000563837 1.07481e-10 -5.95527e-10 2.62117e-10 5e-05 1.46608e-10 
208 1 0.0829328 0.0176225 0.00726958 0.00620652 0.000501477 -0.000559431 -1.76326e-11 -9.93029e-11 -1.11841e-11 5e-05 1.46608e-10 
209 1 0.0828317 0.0168423 0.00760578 0.00614124 0.000504202 -0.000558636 -6.94888e-11 -1.1666e-10 5.6544e-11 5e-05 1.46608e-10 
210 1 0.0888746 0.0176265 0.00728336 0.00598109 -0.000701828 1.3465e-05 7.91098e-11 -9.91145e-11 6.43851e-11 5e-05 1.46608e-10 
211 1 0.0891394 0.0180386 0.00697585 0.00550232 -0.000633071 -1.46524e-05 -5.11358e-11 -1.17131e-10 -3.51347e-10 5e-05 1.46608e-10 
212 1 0.0831663 0.0177895 0.00718571 0.00613748 0.000838112 -0.000698991 2.06171e-10 -3.66518e-11 1.12723e-11 5e-05 1.46608e-10 
213 1 0.0889459 0.0169324 0.00752792 0.00591557 -0.000689983 9.28669e-06 -3.44862e-11 7.97016e-11 -3.6563e-11 5e-05 1.46608e-10 
214 1 0.0890434 0.0180227 0.00704493 0.00553479 -0.000654618 0.000200508 5.86066e-11 -5.6698e-12 -3.4649e-10 5e-05 1.46608e-10 
215 1 0.0768659 0.0172784 0.00721384 0.00587373 0.000395413 -9.11395e-05 -5.45752e-11 -2.5097e-11 8.75988e-12 5e-05 1.46608e-10 
216 1 0.0829004 0.0178627 0.00716959 0.00620724 0.000522189 -0.00056787 -7.96395e-11 1.02692e-11 -5.93489e-11 5e-05 1.46608e-10 
217 1 0.0887422 0.0164668 0.00775782 0.00559059 -0.000379472 0.000394905 -8.98636e-11 6.77109e-11 6.35731e-11 5e-05 1.46608e-10 
218 1 0.0830286 0.0180004 0.00711511 0.00585985 0.00066173 -0.000580001 -3.32024e-11 -4.79577e-10 -2.55233e-10 5e-05 1.46608e-10 
219 1 0.0889923 0.0182832 0.00700436 0.00560723 -0.000781038 0.000324546 -4.01299e-11 -1.94837e-10 -2.77257e-11 5e-05 1.46608e-10 
220 1 0.0829285 0.017842 0.00726328 0.00622328 0.000516935 -0.000564627 -1.15321e-10 1.10985e-10 -1.2713e-10 5e-05 1.46608e-10 
221 1 0.0767589 0.0168589 0.00746439 0.00628609 0.000274638 -7.19071e-06 2.32788e-11 -2.48607e-11 3.66533e-11 5e-05 1.46608e-10 
222 1 0.0887639 0.0165575 0.00772164 0.00585272 -0.00053154 0.000220303 -8.83899e-11 -2.48995e-12 5.02913e-11 5e-05 1.46608e-10 
223 1 0.0829838 0.0174684 0.007332 0.00618604 0.00054409 -0.000577847 -2.11769e-11 6.23696e-11 -2.85057e-11 5e-05 1.46608e-10 
224 1 0.08277 0.0173262 0.00740425 0.00620228 0.00053547 -0.000573909 1.69745e-11 5.5852e-11 -8.79591e-12 5e-05 1.46608e-10 
225 1 0.0890638 0.0177798 0.00710671 0.00534469 -0.000585976 -9.49137e-06 -2.03938e-11 1.01073e-11 1.97122e-11 5e-05 1.46608e-10 
226 1 0.0831781 0.0176124 0.00726007 0.00622837 0.000675103 -0.000635707 -1.30393e-10 1.62296e-11 -7.7382e-13 5e-05 1.46608e-10 
227 1 0.0768235 0.0171104 0.00731419 0.00633633 0.000267281 -1.00186e-06 2.52271e-12 7.83299e-12 -1.83155e-11 5e-05 1.46608e-10 
228 1 0.0767912 0.0173345 0.00717809 0.00584422 0.000369251 -7.54437e-05 2.01519e-11 2.39341e-11 -1.17874e-11 5e-05 1.46608e-10 
229 1 0.0829149 0.0177341 0.00731202 0.00623204 0.000552919 -0.00060464 3.83008e-12 -2.52578e-10 4.4913e-11 5e-05 1.46608e-10 
230 1 0.083193 0.0183854 0.00693172 0.00535146 0.000678404 -0.000578806 -5.49852e-10 1.65725e-10 2.32187e-11 5e-05 1.46608e-10 
231 1 0.0767491 0.0171667 0.00727834 0.00635025 0.000283964 -1.22578e-05 1.95334e-11 -4.3728e-11 2.0385e-12 5e-05 1.46608e-10 
232 1 0.0827237 0.0163949 0.00780144 0.00589131 0.000575285 -0.000574217 -2.77893e-10 4.2873e-11 -8.70449e-12 5e-05 1.46608e-10 
233 1 0.0828751 0.0170212 0.00752756 0.00617424 0.000507717 -0.000561171 -1.79655e-10 6.72179e-11 -1.21893e-11 5e-05 1.46608e-10 
234 1 0.0890654 0.018274 0.00693675 0.00552094 -0.000616785 0.000240549 -3.00556e-11 -1.58562e-11 -4.65293e-11 5e-05 1.46608e-10 
235 1 0.0831597 0.0186229 0.00685723 0.00584152 0.000683082 0.000328646 1.78811e-10 -2.78909e-10 -4.34419e-10 5e-05 1.46608e-10 
236 1 0.0832228 0.0184727 0.0068931 0.00583093 0.000530338 -0.000645952 1.3759e-11 -1.21213e-10 -2.01259e-10 5e-05 1.46608e-10 
237 1 0.0833211 0.0185083 0.00687718 0.00593517 0.00067195 -0.000276849 3.99613e-11 -1.98545e-11 -1.81789e-11 5e-05 1.46608e-10 
239 1 0.0765553 0.0164121 0.00772897 0.00569369 0.000359439 -7.35515e-05 -1.68034e-10 -2.40256e-11 1.05933e-11 5e-05 1.46608e-10 
240 1 0.0766198 0.0166637 0.00757874 0.00623994 0.000271765 -6.62757e-06 5.8586e-11 -1.62742e-12 1.53698e-11 5e-05 1.46608e-10 
241 1 0.0765359 0.0163279 0.00777931 0.00568749 0.000358684 -7.32307e-05 1.2473e-11 -2.86741e-11 1.32958e-11 5e-05 1.46608e-10 
242 1 0.0829921 0.0171363 0.00747222 0.0061994 0.00049338 -0.000556696 6.4026e-11 1.10476e-11 -1.40136e-11 5e-05 1.46608e-10 
243 1 0.0827577 0.0169057 0.0075831 0.00614442 0.000511039 -0.000562362 -7.66675e-11 -2.08695e-11 3.29303e-11 5e-05 1.46608e-10 
244 1 0.0765767 0.016496 0.00767887 0.00619792 0.000272193 -8.50495e-06 2.00656e-11 -4.72631e-11 3.22573e-11 5e-05 1.46608e-10 