ITEM: TIMESTEP
10400000
ITEM: NUMBER OF ATOMS
287
ITEM: BOX BOUNDS ff ff ff
-0.02 0.43
-0.02 0.06
-0.02 0.07
ITEM: ATOMS id type x y z vx vy vz fx fy fz radius mass 
1 1 0.0734086 0.0161575 0.00807892 0.00542063 9.36646e-05 -9.48152e-05 -2.93124e-10 1.21015e-11 -4.17521e-11 5e-05 1.46608e-10 
2 1 0.0738166 0.0170379 0.00734771 0.00609871 -3.08169e-05 1.37644e-05 -9.47488e-11 -1.44975e-10 1.25665e-10 5e-05 1.46608e-10 
3 1 0.0672408 0.0158216 0.00827362 0.00550863 -0.000345419 0.000128058 2.56507e-12 -2.63424e-11 3.629e-12 5e-05 1.46608e-10 
4 1 0.0737282 0.017422 0.0072289 0.00613272 1.02611e-05 1.34246e-05 -1.60732e-10 -7.78727e-11 -1.8297e-10 5e-05 1.46608e-10 
5 1 0.0732944 0.0160573 0.00816227 0.00556541 7.50821e-05 -7.42288e-05 2.97919e-10 -4.38509e-11 -2.37733e-10 5e-05 1.46608e-10 
6 1 0.0794585 0.0166717 0.00760414 0.00558322 5.68127e-06 1.29637e-05 1.61273e-12 6.27447e-12 -3.52113e-12 5e-05 1.46608e-10 
7 1 0.0734695 0.0167366 0.00759838 0.00555851 4.0249e-05 -4.36922e-05 -8.4632e-11 1.10031e-11 -6.60583e-12 5e-05 1.46608e-10 
8 1 0.0731928 0.015667 0.0084577 0.00579346 -7.70104e-05 -0.000340837 9.56774e-11 3.20378e-10 -2.37188e-10 5e-05 1.46608e-10 
9 1 0.079727 0.0177974 0.00701436 0.006309 2.83168e-05 0.000396982 -1.80141e-10 4.19324e-11 -1.20843e-10 5e-05 1.46608e-10 
10 1 0.0734111 0.0165102 0.00778634 0.0055205 6.48615e-05 -6.47449e-05 3.29561e-11 3.52011e-11 -2.04644e-11 5e-05 1.46608e-10 
11 1 0.0738548 0.0171895 0.00722288 0.00620179 -1.50852e-05 8.70526e-06 6.9711e-11 -5.62313e-11 -1.60109e-11 5e-05 1.46608e-10 
12 1 0.0674376 0.0166217 0.00770706 0.0054067 -0.000398094 0.0001255 -3.61499e-10 -9.43365e-11 6.46086e-11 5e-05 1.46608e-10 
13 1 0.0732747 0.0159805 0.00822316 0.00554399 -3.87828e-05 -0.000238029 -9.66339e-11 -2.0836e-10 -6.2113e-11 5e-05 1.46608e-10 
14 1 0.067161 0.0155019 0.00850037 0.00547256 -0.000391029 0.000160674 -2.25363e-10 -5.37223e-10 -4.59913e-10 5e-05 1.46608e-10 
15 1 0.0736033 0.0169122 0.00745243 0.00563182 5.89333e-05 -5.88925e-05 -3.23568e-10 3.0104e-11 -7.80443e-13 5e-05 1.46608e-10 
16 1 0.0671426 0.0154703 0.00859345 0.00576649 2.34412e-05 0.000378383 1.8903e-11 3.90526e-11 -2.89977e-10 5e-05 1.46608e-10 
17 1 0.0733917 0.0164347 0.00784899 0.00551275 9.26132e-05 -8.66582e-05 1.12799e-11 1.13974e-11 -2.22004e-11 5e-05 1.46608e-10 
18 1 0.0795995 0.017267 0.00726394 0.00610519 -8.47322e-05 7.62392e-05 -3.51376e-11 1.73041e-11 -2.24652e-11 5e-05 1.46608e-10 
19 1 0.0732545 0.0159028 0.00828276 0.00567827 -0.000163583 -0.000386382 -4.9032e-10 -3.61121e-10 1.07212e-10 5e-05 1.46608e-10 
21 1 0.0733892 0.0160814 0.00814077 0.00536432 -0.000251257 -0.000561836 -8.553e-11 -1.79474e-10 -1.07002e-10 5e-05 1.46608e-10 
22 1 0.0735085 0.0168876 0.00747305 0.00559483 4.67714e-05 -4.97615e-05 -4.92063e-11 -1.29586e-10 1.01004e-10 5e-05 1.46608e-10 
23 1 0.0676179 0.0169696 0.00745781 0.00592446 -0.000464796 0.000159799 4.86188e-11 1.78293e-10 -2.42295e-10 5e-05 1.46608e-10 
24 1 0.0796631 0.0175317 0.00713799 0.00622079 4.1558e-05 0.000380239 -1.28274e-10 -1.28692e-10 -2.71583e-11 5e-05 1.46608e-10 
25 1 0.0734501 0.0166611 0.00766103 0.00555741 6.23468e-05 -6.17566e-05 8.56811e-11 6.51578e-11 -4.80826e-11 5e-05 1.46608e-10 
26 1 0.0795371 0.0170116 0.00740849 0.00557794 7.00156e-06 1.2487e-05 1.32291e-11 1.56838e-12 -3.12522e-12 5e-05 1.46608e-10 
27 1 0.0675188 0.0169414 0.00748085 0.00589944 -0.000447444 0.000140318 1.57612e-10 2.34179e-10 -2.43491e-10 5e-05 1.46608e-10 
28 1 0.0737072 0.0173243 0.0072263 0.0062073 -5.81927e-06 1.58731e-05 9.57849e-11 -1.16023e-10 -6.02851e-11 5e-05 1.46608e-10 
29 1 0.0732339 0.015824 0.00834078 0.00576361 -0.000162421 -0.000395849 7.22002e-12 -4.91634e-11 2.79305e-10 5e-05 1.46608e-10 
30 1 0.0737399 0.0170874 0.00730684 0.0060975 -3.563e-05 1.91292e-05 1.30659e-10 -5.93668e-11 4.67222e-11 5e-05 1.46608e-10 
31 1 0.073489 0.0168121 0.00753573 0.00558433 4.66309e-05 -4.82276e-05 7.14692e-11 7.53466e-11 -5.66653e-11 5e-05 1.46608e-10 
32 1 0.0735837 0.0168368 0.00751507 0.00560048 5.54766e-05 -5.62186e-05 -1.80593e-13 7.03551e-12 -1.31256e-11 5e-05 1.46608e-10 
33 1 0.0794781 0.0167567 0.00755523 0.00558178 6.01595e-06 1.27594e-05 1.96832e-12 8.1405e-12 -5.18228e-12 5e-05 1.46608e-10 
34 1 0.0733722 0.0163592 0.00791164 0.00548904 9.57017e-05 -9.06308e-05 8.09748e-11 1.01423e-10 -5.3442e-11 5e-05 1.46608e-10 
35 1 0.0735642 0.0167613 0.00757771 0.00559384 5.10293e-05 -5.36263e-05 1.58055e-10 3.57488e-11 -3.66268e-11 5e-05 1.46608e-10 
36 1 0.079768 0.0179824 0.0069965 0.00622688 -0.000426279 -0.000661159 8.98756e-11 -8.93764e-11 -3.56894e-11 5e-05 1.46608e-10 
37 1 0.0735253 0.0166103 0.00770301 0.00556798 5.75974e-05 -5.79434e-05 1.65852e-10 5.8296e-11 -6.26774e-11 5e-05 1.46608e-10 
38 1 0.0736785 0.0168614 0.00749441 0.00560949 3.75526e-05 -4.19926e-05 -4.70596e-11 9.12521e-11 -8.01649e-11 5e-05 1.46608e-10 
39 1 0.0796844 0.0176202 0.00709678 0.00625858 3.96791e-05 0.000386748 -1.54149e-10 4.23508e-11 -7.60004e-11 5e-05 1.46608e-10 
41 1 0.0733333 0.0162083 0.00803694 0.00543997 0.000128157 -0.000117089 5.87675e-11 6.04015e-11 -4.99666e-11 5e-05 1.46608e-10 
42 1 0.0735279 0.016963 0.0074104 0.00561396 4.76835e-05 -5.04695e-05 -5.6489e-12 -2.06853e-11 3.59415e-11 5e-05 1.46608e-10 
44 1 0.0736987 0.0169368 0.00743186 0.00568923 2.01953e-05 -2.74119e-05 -3.14751e-10 7.41818e-11 -5.74626e-11 5e-05 1.46608e-10 
45 1 0.0794978 0.0168417 0.00750632 0.0055805 6.62224e-06 1.23512e-05 -8.93242e-13 9.1142e-12 -5.08574e-12 5e-05 1.46608e-10 
46 1 0.0795784 0.0171812 0.00731087 0.0061001 -8.73508e-05 6.64911e-05 -2.96353e-11 2.90826e-11 1.74444e-12 5e-05 1.46608e-10 
47 1 0.0733527 0.0162838 0.00797429 0.0054678 0.000106962 -9.92597e-05 -5.08025e-12 6.04572e-11 -4.00619e-11 5e-05 1.46608e-10 
48 1 0.0735668 0.017114 0.0072851 0.00566351 7.71083e-05 -6.67851e-05 -4.68525e-11 7.42205e-11 -8.02444e-11 5e-05 1.46608e-10 
49 1 0.0795576 0.0170964 0.00735967 0.00583622 -3.96676e-05 3.9413e-05 -5.97e-12 3.86078e-12 -2.08927e-11 5e-05 1.46608e-10 
50 1 0.0736277 0.017385 0.0072277 0.00616944 2.13667e-05 3.33489e-06 -2.98059e-10 -5.36932e-11 2.55793e-11 5e-05 1.46608e-10 
51 1 0.0736068 0.0172873 0.00722512 0.00622233 -7.24326e-06 2.16488e-05 5.14052e-11 -7.98428e-11 -1.9966e-11 5e-05 1.46608e-10 
52 1 0.0674184 0.0165417 0.00776387 0.00533179 -0.000376158 0.00011417 9.7625e-11 -2.13794e-10 1.63915e-10 5e-05 1.46608e-10 
53 1 0.0796206 0.0173545 0.00722042 0.00618097 4.71972e-05 0.000376293 -5.26841e-11 2.54343e-11 -7.59236e-12 5e-05 1.46608e-10 
54 1 0.0733695 0.0160024 0.00819887 0.00555433 -5.35768e-05 -0.000222873 9.67603e-10 -5.69747e-10 -2.64082e-10 5e-05 1.46608e-10 
55 1 0.0672008 0.015661 0.00838592 0.00548993 -0.000361058 0.000137732 -1.13946e-10 -1.37851e-10 8.17804e-11 5e-05 1.46608e-10 
56 1 0.0735447 0.0166858 0.00764036 0.00558303 5.43001e-05 -5.58923e-05 1.46279e-10 5.64126e-11 -2.18993e-11 5e-05 1.46608e-10 
57 1 0.0795174 0.0169266 0.0074574 0.005579 7.02193e-06 1.22147e-05 -4.53177e-12 2.25042e-12 1.25589e-12 5e-05 1.46608e-10 
59 1 0.0736005 0.0165596 0.00774499 0.00557463 5.38842e-05 -5.55165e-05 1.98268e-11 -8.85968e-12 -8.85084e-13 5e-05 1.46608e-10 
60 1 0.07362 0.016635 0.00768234 0.00558493 4.96553e-05 -5.17135e-05 1.36214e-10 2.711e-11 -3.12394e-11 5e-05 1.46608e-10 
61 1 0.0733139 0.0161328 0.00809963 0.00541279 9.33768e-05 -8.93016e-05 -5.93999e-12 -1.77773e-10 1.59602e-10 5e-05 1.46608e-10 
62 1 0.0737195 0.017012 0.00736938 0.0058621 -1.20573e-05 -2.13067e-06 -2.30044e-10 -3.64648e-11 3.33446e-11 5e-05 1.46608e-10 
63 1 0.0736646 0.0171381 0.00726488 0.00613331 -2.89007e-06 -6.54791e-06 1.33705e-10 -5.64943e-11 1.8605e-11 5e-05 1.46608e-10 
64 1 0.0796418 0.0174431 0.00717921 0.00620067 4.17419e-05 0.000378683 2.10205e-10 -2.41007e-11 3.82018e-11 5e-05 1.46608e-10 
65 1 0.067536 0.0166499 0.00768444 0.00545524 -0.000410954 0.00013445 -3.58803e-10 2.52173e-10 -1.57043e-10 5e-05 1.46608e-10 
66 1 0.0674769 0.0164099 0.00785454 0.00534312 -0.000319385 7.27189e-05 8.05802e-11 -4.09699e-11 3.55952e-11 5e-05 1.46608e-10 
67 1 0.073837 0.0171133 0.00728516 0.00626357 -2.81503e-05 1.19687e-05 3.94679e-10 1.56339e-10 -1.87952e-10 5e-05 1.46608e-10 
68 1 0.0737822 0.0172582 0.00722459 0.00618904 -3.42269e-05 1.00626e-05 8.55518e-11 -6.46586e-11 -3.55959e-11 5e-05 1.46608e-10 
69 1 0.0734669 0.0163839 0.00789096 0.0055154 7.52165e-05 -7.27378e-05 -2.02924e-11 -6.72206e-11 2.04241e-11 5e-05 1.46608e-10 
70 1 0.0797062 0.0177088 0.00705563 0.00627849 3.14097e-05 0.000393282 1.67291e-10 1.65044e-10 -4.57992e-11 5e-05 1.46608e-10 
71 1 0.0671806 0.0155807 0.00844204 0.00549277 -0.000377477 0.000152341 -9.975e-11 -2.44985e-10 4.78627e-11 5e-05 1.46608e-10 
72 1 0.0737603 0.0171627 0.00724431 0.00623272 -3.97525e-05 2.52101e-05 2.24309e-10 -1.88226e-11 2.79323e-12 5e-05 1.46608e-10 
73 1 0.0734306 0.0165857 0.00772368 0.00555124 5.85721e-05 -5.9405e-05 2.59037e-11 -2.46254e-11 2.09231e-11 5e-05 1.46608e-10 
74 1 0.0736232 0.0169876 0.00738986 0.00573677 4.96764e-05 -5.30387e-05 -3.69539e-10 6.34217e-11 -4.70988e-11 5e-05 1.46608e-10 
76 1 0.0677504 0.0175251 0.00710876 0.00626001 -0.00052153 0.000257718 -3.61029e-10 2.52153e-10 3.3893e-11 5e-05 1.46608e-10 
77 1 0.0738748 0.0181062 0.00724747 0.00594095 8.70075e-05 1.2905e-05 -1.18959e-10 -4.90612e-11 -5.17583e-12 5e-05 1.46608e-10 
78 1 0.067261 0.0159017 0.00821738 0.00551065 -0.000348896 0.000120396 -1.00791e-10 -3.15999e-11 -2.29117e-11 5e-05 1.46608e-10 
79 1 0.0674574 0.0167018 0.00765068 0.00543356 -0.000401404 0.000111913 -8.23197e-10 5.24667e-11 -4.65879e-11 5e-05 1.46608e-10 
80 1 0.0736906 0.0176783 0.00723567 0.00606348 2.82542e-05 1.57992e-05 -8.37479e-11 -1.76787e-10 2.68643e-11 5e-05 1.46608e-10 
81 1 0.0673984 0.0164617 0.00782044 0.00531952 -0.000374763 0.000112865 -1.95732e-11 -1.61572e-10 1.18936e-10 5e-05 1.46608e-10 
82 1 0.0675391 0.0170212 0.00742418 0.00594712 -0.000459317 0.000146077 5.18291e-11 2.40076e-10 -3.30199e-10 5e-05 1.46608e-10 
83 1 0.0675435 0.0162875 0.00793857 0.00538257 -0.00032831 7.8129e-05 2.6997e-10 2.59134e-10 -1.83468e-10 5e-05 1.46608e-10 
84 1 0.0797487 0.0178867 0.00697489 0.00623056 -0.000424909 -0.000667571 3.12645e-12 -1.16773e-11 2.3598e-11 5e-05 1.46608e-10 
85 1 0.0673591 0.0159296 0.00819495 0.00546867 -0.00039955 0.000127925 -2.65008e-10 -2.31965e-11 4.96363e-11 5e-05 1.46608e-10 
86 1 0.0736862 0.0172266 0.00722356 0.00623123 -1.74995e-05 1.48642e-05 1.27074e-10 -1.15314e-10 -8.38825e-12 5e-05 1.46608e-10 
87 1 0.0735812 0.0164841 0.00780766 0.00558038 5.35227e-05 -5.56748e-05 -5.31931e-11 -7.25712e-11 7.48126e-11 5e-05 1.46608e-10 
88 1 0.0737535 0.0179716 0.00724364 0.00597153 4.73256e-05 1.3198e-05 -8.74273e-11 -2.57713e-10 -9.23946e-12 5e-05 1.46608e-10 
89 1 0.0737116 0.0177761 0.00723833 0.00602202 2.74238e-05 1.58078e-05 -8.04485e-11 -2.8278e-10 1.72023e-11 5e-05 1.46608e-10 
90 1 0.0737962 0.0169626 0.00741025 0.00589096 2.37005e-06 -1.34246e-05 -1.03031e-10 3.8532e-11 -3.80464e-11 5e-05 1.46608e-10 
91 1 0.0674781 0.0167814 0.00759379 0.00558252 -0.000412167 0.000130164 -4.2227e-10 1.04101e-10 -5.18947e-11 5e-05 1.46608e-10 
92 1 0.0738241 0.0174537 0.0072299 0.00603641 8.3382e-06 1.2156e-05 -1.87277e-10 1.58539e-11 -4.50218e-11 5e-05 1.46608e-10 
93 1 0.0738119 0.017813 0.0072395 0.00597977 5.90742e-05 1.29516e-05 -1.08531e-11 -2.58762e-10 -1.54864e-11 5e-05 1.46608e-10 
94 1 0.073887 0.0177469 0.00723787 0.00594337 6.76096e-05 1.32309e-05 3.21701e-10 1.41601e-10 1.22345e-11 5e-05 1.46608e-10 
95 1 0.0736697 0.0175806 0.00723302 0.0060979 2.07834e-06 1.44223e-05 -1.57931e-10 -1.88752e-10 -1.02408e-11 5e-05 1.46608e-10 
96 1 0.073845 0.0175515 0.00723255 0.00599469 2.79463e-05 1.22227e-05 -4.75693e-11 5.25435e-11 -1.95092e-11 5e-05 1.46608e-10 
97 1 0.0673594 0.0163016 0.00793385 0.00541248 -0.000383596 0.000115887 -3.96296e-11 -1.67435e-10 1.26322e-10 5e-05 1.46608e-10 
98 1 0.0737745 0.0180693 0.00724629 0.00594068 4.43708e-05 1.2184e-05 -8.22138e-12 -1.26896e-10 -2.97581e-12 5e-05 1.46608e-10 
99 1 0.0675162 0.01657 0.00774111 0.00539644 -0.00043093 0.000149798 -3.19888e-10 2.91889e-10 -1.8724e-10 5e-05 1.46608e-10 
100 1 0.0737552 0.016812 0.00753528 0.00559402 3.37064e-05 -3.86787e-05 1.60432e-10 1.07401e-10 -8.28642e-11 5e-05 1.46608e-10 
101 1 0.067457 0.0163297 0.00791136 0.00538501 -0.00036429 0.000103122 9.57381e-11 6.55574e-11 -7.04001e-11 5e-05 1.46608e-10 
102 1 0.0643568 0.0187248 0.00531097 4.41021e-15 1.04678e-14 8.29565e-14 -2.66894e-21 1.09477e-21 -1.44757e-24 5e-05 1.46608e-10 
103 1 0.24257 0.0191927 0.00520306 -1.23235e-22 4.01299e-22 -5.81428e-22 0 0 0 5e-05 1.46608e-10 
104 1 0.0677686 0.0172625 0.00728821 0.00612967 -0.000452429 0.000144321 2.80755e-10 1.03912e-10 -1.80395e-10 5e-05 1.46608e-10 
105 1 0.0673204 0.0161416 0.00804727 0.00544928 -0.00037122 0.000104462 -1.06267e-10 1.51584e-11 9.06499e-12 5e-05 1.46608e-10 
106 1 0.067854 0.0172109 0.00728181 0.00614658 -0.000439454 0.000139641 1.03988e-10 -2.1627e-12 -2.72807e-11 5e-05 1.46608e-10 
107 1 0.0672809 0.0159817 0.00816073 0.00551512 -0.000365564 0.000109386 -4.60479e-11 4.83948e-12 3.88011e-11 5e-05 1.46608e-10 
108 1 0.0735058 0.0165349 0.00776566 0.00556395 6.05236e-05 -6.11579e-05 1.9113e-10 6.01464e-11 -4.70396e-11 5e-05 1.46608e-10 
109 1 0.0735864 0.0171894 0.00722246 0.00574604 7.33379e-05 -8.34654e-05 -2.41121e-10 6.16123e-11 -9.36432e-11 5e-05 1.46608e-10 
110 1 0.0739402 0.0175822 0.00723355 0.00595986 8.00362e-05 1.35613e-05 -2.93424e-11 -3.61419e-11 8.42536e-12 5e-05 1.46608e-10 
111 1 0.0738164 0.0182648 0.00725161 0.00585376 1.16982e-05 1.12926e-05 3.12914e-11 2.49254e-10 2.48629e-11 5e-05 1.46608e-10 
112 1 0.0673787 0.0163817 0.00787714 0.00538996 -0.00039241 0.00012327 -8.34459e-11 -2.08042e-10 1.62812e-10 5e-05 1.46608e-10 
113 1 0.0681676 0.0177002 0.00712278 0.00617546 -0.000314837 0.000246746 -5.16024e-10 -1.03534e-10 -1.16651e-11 5e-05 1.46608e-10 
114 1 0.0677254 0.0170065 0.00742883 0.00595019 -0.000485762 0.000173211 1.97298e-10 -1.19342e-11 4.78276e-11 5e-05 1.46608e-10 
115 1 0.0736442 0.0170628 0.00732741 0.00592458 2.71208e-05 -3.35768e-05 -5.14504e-11 1.8594e-11 -2.42929e-11 5e-05 1.46608e-10 
116 1 0.0734864 0.0164594 0.00782831 0.00554097 6.68187e-05 -6.44547e-05 7.65609e-11 -1.78241e-11 3.99122e-11 5e-05 1.46608e-10 
117 1 0.0733497 0.0159241 0.00825782 0.00552394 -8.75119e-05 -0.000295534 3.79756e-10 -1.38768e-10 2.46632e-10 5e-05 1.46608e-10 
118 1 0.0672208 0.0157413 0.00832977 0.0054894 -0.000347513 0.000126475 -3.05483e-11 -5.06609e-11 6.09132e-11 5e-05 1.46608e-10 
119 1 0.0736394 0.0167105 0.00761969 0.00559343 4.79139e-05 -5.00794e-05 2.37079e-10 2.43607e-11 -2.37552e-11 5e-05 1.46608e-10 
120 1 0.0732134 0.0157452 0.0083988 0.00578294 -9.22953e-05 -0.000335438 2.31778e-11 -1.08625e-10 6.2728e-11 5e-05 1.46608e-10 
121 1 0.0731722 0.0155889 0.0085166 0.00579255 -9.36593e-05 -0.00032924 6.85454e-11 3.43877e-10 -2.44212e-10 5e-05 1.46608e-10 
122 1 0.0739612 0.0176799 0.0072362 0.00592731 7.56858e-05 1.26099e-05 1.44118e-10 -3.32002e-11 1.84947e-11 5e-05 1.46608e-10 
123 1 0.0673986 0.0160895 0.00808159 0.00542905 -0.000384622 0.000116761 -1.26473e-11 6.35269e-11 -3.38776e-11 5e-05 1.46608e-10 
124 1 0.07377 0.0176175 0.00723419 0.00603694 3.63004e-05 1.17867e-05 -2.01288e-10 -1.80295e-10 -4.3959e-12 5e-05 1.46608e-10 
125 1 0.0733294 0.0158459 0.00831674 0.00567331 -0.000117217 -0.000290735 -2.45959e-10 2.0312e-10 2.11372e-11 5e-05 1.46608e-10 
126 1 0.0735474 0.0170385 0.00734775 0.00562559 5.6597e-05 -5.66218e-05 9.97258e-11 5.29687e-11 -6.04968e-11 5e-05 1.46608e-10 
127 1 0.0673397 0.0162216 0.00799055 0.00541896 -0.000374658 0.000109192 5.63544e-11 -8.93885e-11 5.54942e-11 5e-05 1.46608e-10 
128 1 0.0736487 0.0174828 0.00723036 0.00615217 3.93568e-05 9.64549e-06 -1.02657e-10 -7.30989e-11 1.60553e-11 5e-05 1.46608e-10 
129 1 0.0737325 0.0178738 0.00724098 0.00599907 4.21735e-05 1.42398e-05 -5.31726e-11 -2.55645e-10 -9.07006e-12 5e-05 1.46608e-10 
130 1 0.0676392 0.0170493 0.00740129 0.00594937 -0.000469865 0.000160322 -2.82616e-10 -1.84747e-10 9.22278e-11 5e-05 1.46608e-10 
131 1 0.0674969 0.0164899 0.00779784 0.00524661 -0.000437092 0.000158829 3.97356e-10 1.91916e-10 -1.44121e-10 5e-05 1.46608e-10 
132 1 0.073749 0.0175198 0.00723153 0.00607675 2.27384e-05 1.24676e-05 -2.86328e-10 -9.66446e-11 -5.46942e-11 5e-05 1.46608e-10 
133 1 0.0735032 0.016182 0.00805802 0.00549655 3.50937e-05 -0.000116897 -4.18273e-10 -5.77375e-11 -2.7262e-10 5e-05 1.46608e-10 
134 1 0.0736589 0.016786 0.00755704 0.0055947 4.44503e-05 -4.74521e-05 1.78885e-10 5.75662e-11 -3.74424e-11 5e-05 1.46608e-10 
135 1 0.0733088 0.0157677 0.0083757 0.00576438 -9.69217e-05 -0.000332181 9.61095e-11 -1.03184e-10 2.96989e-11 5e-05 1.46608e-10 
136 1 0.0673387 0.0158492 0.00825191 0.00551248 -0.000347469 8.70032e-05 -8.05451e-11 1.06039e-10 -1.04619e-10 5e-05 1.46608e-10 
137 1 0.0738373 0.0183625 0.00725426 0.00581671 -2.35172e-05 1.02156e-05 1.62706e-10 5.75275e-10 7.99583e-12 5e-05 1.46608e-10 
138 1 0.0734474 0.0163085 0.00795361 0.00547502 8.11735e-05 -7.96641e-05 -3.91209e-10 -3.75679e-11 2.31747e-11 5e-05 1.46608e-10 
140 1 0.0739821 0.0177777 0.00723886 0.00592353 6.21577e-05 1.17328e-05 2.26319e-10 -1.99516e-12 -8.06784e-12 5e-05 1.46608e-10 
141 1 0.067379 0.0160095 0.00813828 0.00547305 -0.000396995 0.000125954 -1.93502e-10 2.71876e-11 2.00932e-12 5e-05 1.46608e-10 
142 1 0.0677474 0.0170861 0.00737239 0.00599383 -0.000469168 0.000160942 -2.35574e-10 -6.84053e-11 5.32232e-11 5e-05 1.46608e-10 
143 1 0.0673008 0.0160616 0.00810398 0.00549565 -0.000371928 0.000103477 -9.53905e-11 8.08541e-11 7.50983e-11 5e-05 1.46608e-10 
144 1 0.067704 0.0169269 0.00748535 0.00589859 -0.000493534 0.000180009 4.53487e-10 8.17963e-10 -5.44702e-10 5e-05 1.46608e-10 
146 1 0.0675632 0.0163675 0.00788188 0.0053629 -0.000286923 4.93949e-05 3.68552e-10 2.5495e-10 -1.91975e-10 5e-05 1.46608e-10 
147 1 0.067317 0.0157677 0.00830946 0.00549894 -0.000350712 0.000131185 -1.91188e-11 7.96506e-12 -4.84387e-12 5e-05 1.46608e-10 
148 1 0.0676004 0.0172605 0.00725413 0.00606574 -0.000495427 0.000173542 6.87336e-12 -5.36447e-11 4.38206e-11 5e-05 1.46608e-10 
149 1 0.0739079 0.0178447 0.00724052 0.00595196 7.38174e-05 1.26627e-05 1.16562e-10 8.3539e-11 1.43055e-11 5e-05 1.46608e-10 
150 1 0.0676025 0.0165275 0.00776849 0.00545297 -0.000234943 1.03785e-05 -4.54954e-10 4.06489e-10 -2.72256e-10 5e-05 1.46608e-10 
151 1 0.0679367 0.0172557 0.00724798 0.00628142 -0.000584969 0.000237648 4.53802e-11 2.80778e-10 -2.34069e-10 5e-05 1.46608e-10 
153 1 0.0674376 0.0162496 0.00796817 0.00540904 -0.000376255 0.000110436 3.82152e-11 1.2669e-11 -1.1716e-11 5e-05 1.46608e-10 
154 1 0.067693 0.0172916 0.00722971 0.00609671 -0.00048712 0.000163551 1.41699e-10 2.76902e-10 -3.98165e-10 5e-05 1.46608e-10 
155 1 0.0677766 0.0176278 0.00710842 0.00622292 -0.000522218 0.000251048 -9.37795e-11 7.76703e-10 1.11245e-10 5e-05 1.46608e-10 
156 1 0.0676797 0.0172097 0.00728756 0.00606077 -0.000474538 0.00016 2.29607e-11 2.00999e-10 -1.52283e-10 5e-05 1.46608e-10 
157 1 0.0219312 0.0187687 0.00551176 -3.83158e-14 8.16748e-14 2.95888e-13 -1.01151e-21 4.58517e-22 -2.59735e-22 5e-05 1.46608e-10 
158 1 0.0677647 0.017361 0.00723664 0.00617332 -0.000566713 9.75477e-05 -7.53339e-11 3.46459e-10 -7.00782e-10 5e-05 1.46608e-10 
159 1 0.0738032 0.017356 0.00722724 0.00610904 -2.07077e-05 1.06951e-05 -1.43477e-10 3.86911e-11 -3.57049e-11 5e-05 1.46608e-10 
160 1 0.0676814 0.0175973 0.00710509 0.00619671 -0.000501411 0.00022349 -6.99739e-11 3.8218e-10 -8.78889e-11 5e-05 1.46608e-10 
162 1 0.0676712 0.0173804 0.00716799 0.00589156 -0.000445055 0.000144422 -2.08163e-10 2.63003e-10 -1.87308e-10 5e-05 1.46608e-10 
164 1 0.0679524 0.0179792 0.00711062 0.00598854 -0.000485536 0.000241009 1.05488e-10 3.29392e-11 1.50972e-11 5e-05 1.46608e-10 
165 1 0.0680348 0.0174731 0.0071206 0.00624916 -0.000528933 0.000258853 -3.21472e-10 -7.88341e-11 -4.22118e-11 5e-05 1.46608e-10 
166 1 0.0734641 0.0160251 0.00817567 0.00556235 -8.3609e-05 -0.000291498 9.42937e-10 -5.60792e-11 -2.09895e-10 5e-05 1.46608e-10 
167 1 0.0675832 0.0164474 0.00782522 0.00534814 -0.000251715 2.5275e-05 -2.31462e-10 2.77002e-10 -1.86197e-10 5e-05 1.46608e-10 
168 1 0.0678385 0.017294 0.00722394 0.00620556 -0.000542565 0.00020383 -1.3528e-10 7.46971e-10 -5.79108e-10 5e-05 1.46608e-10 
169 1 0.0680935 0.0177672 0.00711898 0.00609575 -0.000431816 0.000245382 -2.96083e-10 -4.82799e-11 -5.11231e-11 5e-05 1.46608e-10 
170 1 0.0679154 0.0174228 0.00713132 0.00630214 -0.000569133 0.000226927 -3.1894e-10 -2.24561e-10 -4.11881e-10 5e-05 1.46608e-10 
171 1 0.0734838 0.0161039 0.00811733 0.00549454 -3.87685e-05 -0.000231306 4.6122e-10 8.58499e-11 -8.90305e-11 5e-05 1.46608e-10 
172 1 0.0680042 0.0173857 0.00715839 0.00633572 -0.000615612 0.00015751 8.5353e-11 -3.26858e-10 -7.24572e-10 5e-05 1.46608e-10 
173 1 0.0739315 0.0171395 0.00726319 0.00619394 -2.64365e-05 8.13016e-06 4.35059e-11 -8.97147e-11 1.31883e-10 5e-05 1.46608e-10 
174 1 0.0678442 0.0174906 0.0071129 0.00624739 -0.000559427 0.000263286 -3.90967e-10 -7.53704e-10 1.97132e-10 5e-05 1.46608e-10 
175 1 0.0616408 0.0174185 0.00716262 0.00623877 -9.88176e-05 0.000133147 2.23683e-11 -8.08683e-11 8.12138e-10 5e-05 1.46608e-10 
176 1 0.0676617 0.0171294 0.00734441 0.00598772 -0.000464093 0.000155129 1.14481e-10 -3.25297e-11 3.13318e-11 5e-05 1.46608e-10 
177 1 0.0677235 0.0177929 0.00710414 0.00610782 -0.000484827 0.000246797 2.03794e-10 1.87124e-10 -8.09347e-11 5e-05 1.46608e-10 
178 1 0.0681467 0.0176024 0.00712327 0.00625744 -0.000373545 0.000250626 3.80516e-11 2.74448e-10 -1.16215e-10 5e-05 1.46608e-10 
179 1 0.0680724 0.0176695 0.00711946 0.00620381 -0.00047318 0.00024872 -3.75899e-10 -1.8435e-10 4.84871e-11 5e-05 1.46608e-10 
181 1 0.067644 0.0174546 0.00723727 0.00614295 -0.000507205 0.000198893 8.64566e-11 -6.04439e-11 -2.1263e-10 5e-05 1.46608e-10 
182 1 0.073428 0.016233 0.00801627 0.00542166 9.37938e-05 -8.61903e-05 -3.92618e-10 3.50898e-11 -2.5475e-11 5e-05 1.46608e-10 
183 1 0.0678345 0.0173758 0.00716662 0.00628383 -0.000553443 0.000193202 6.05689e-11 6.64153e-10 -4.89419e-10 5e-05 1.46608e-10 
184 1 0.0737462 0.0173649 0.00730894 0.00615235 -3.01947e-05 5.74975e-05 6.85535e-11 1.20102e-10 3.47026e-11 5e-05 1.46608e-10 
185 1 0.0675824 0.017181 0.00731195 0.00600962 -0.000477143 0.000155407 3.2464e-10 8.42498e-11 5.31166e-11 5e-05 1.46608e-10 
186 1 0.0676218 0.0173582 0.00725205 0.00609474 -0.000498083 0.000186978 -1.37042e-10 -4.37011e-11 -1.88696e-10 5e-05 1.46608e-10 
187 1 0.0737356 0.0167365 0.00759792 0.00559371 3.64392e-05 -4.13447e-05 2.05022e-10 4.65126e-11 -3.42113e-11 5e-05 1.46608e-10 
188 1 0.0738329 0.0179108 0.00724215 0.00598001 7.15341e-05 1.31516e-05 -3.34335e-11 -1.23025e-10 1.58359e-12 5e-05 1.46608e-10 
189 1 0.0737754 0.0168873 0.00747273 0.00568677 2.54122e-05 -3.22744e-05 -3.00218e-10 1.3059e-10 -1.04096e-10 5e-05 1.46608e-10 
190 1 0.0617571 0.0175466 0.00714811 0.00621398 -9.28885e-05 -0.000238926 -1.48911e-10 2.46453e-11 -4.90374e-11 5e-05 1.46608e-10 
191 1 0.0738583 0.0184603 0.00725692 0.00577302 -5.68639e-05 8.9344e-06 1.88277e-10 8.27505e-10 2.15311e-11 5e-05 1.46608e-10 
192 1 0.0678371 0.0170487 0.00739607 0.00601357 -0.000471791 0.000160031 -1.53606e-10 1.46534e-10 -9.80219e-11 5e-05 1.46608e-10 
193 1 0.0735619 0.0164086 0.00787033 0.00555613 5.79005e-05 -5.8146e-05 -1.28191e-11 -1.209e-10 1.30154e-10 5e-05 1.46608e-10 
194 1 0.067643 0.0166872 0.00765523 0.00571343 -0.000267906 2.64139e-05 -1.28992e-10 2.2566e-10 -1.51719e-10 5e-05 1.46608e-10 
195 1 0.0680516 0.0175717 0.00711995 0.00630256 -0.000520959 0.000249444 -9.14666e-11 -2.63033e-10 4.89363e-11 5e-05 1.46608e-10 
196 1 0.067126 0.015443 0.00868822 0.00575229 1.0451e-05 0.000391301 1.2996e-10 8.24373e-11 -3.09654e-10 5e-05 1.46608e-10 
197 1 0.0617038 0.0177115 0.00715871 0.00615321 -0.00011378 -0.000235801 6.77554e-12 -5.47526e-11 6.15553e-11 5e-05 1.46608e-10 
198 1 0.0674989 0.0168612 0.00753722 0.00577684 -0.000434134 0.000140253 -1.14268e-10 1.59724e-10 -1.08909e-10 5e-05 1.46608e-10 
199 1 0.0676517 0.017461 0.00711202 0.0062213 -0.000401205 0.000101534 -4.48938e-11 1.28891e-10 -1.66155e-10 5e-05 1.46608e-10 
200 1 0.0675973 0.0168895 0.0075146 0.00592237 -0.000395942 0.0001103 -6.7287e-10 -1.54878e-10 9.08122e-11 5e-05 1.46608e-10 
201 1 0.0680476 0.01801 0.00711395 0.00593932 -0.000498447 0.000239586 -2.90287e-10 -2.43511e-10 -1.92028e-12 5e-05 1.46608e-10 
202 1 0.0678551 0.017129 0.00733923 0.0060619 -0.000458298 0.000149631 -5.37211e-10 -3.1708e-11 9.00724e-11 5e-05 1.46608e-10 
203 1 0.0739571 0.0172279 0.00722409 0.00621917 -3.21466e-05 1.16198e-05 3.87933e-11 -9.8895e-11 -3.08655e-11 5e-05 1.46608e-10 
204 1 0.0675776 0.0168095 0.00757128 0.0057755 -0.000376852 0.000101494 -3.61215e-10 -1.23284e-10 1.03502e-10 5e-05 1.46608e-10 
205 1 0.0679103 0.0177837 0.00711158 0.00609269 -0.000530078 0.000245195 -1.48001e-11 -1.16515e-10 7.93728e-12 5e-05 1.46608e-10 
206 1 0.0678683 0.0175882 0.00711254 0.00622253 -0.000602381 0.000249782 -4.73812e-10 9.9785e-11 -5.40168e-11 5e-05 1.46608e-10 
207 1 0.0674179 0.0161696 0.00802486 0.00540898 -0.000375323 0.000110247 2.10789e-10 4.7552e-11 -4.56833e-11 5e-05 1.46608e-10 
208 1 0.0677565 0.017428 0.00713219 0.00622336 -0.000610666 0.00011136 -3.93915e-10 1.2587e-10 -2.10793e-10 5e-05 1.46608e-10 
209 1 0.0676223 0.0166074 0.00771181 0.00560105 -0.000241649 1.08166e-05 -2.00727e-10 3.49161e-10 -2.36841e-10 5e-05 1.46608e-10 
210 1 0.0736281 0.0172308 0.00730484 0.00621662 -1.4455e-05 1.27892e-05 2.55062e-10 -2.01392e-10 5.96245e-11 5e-05 1.46608e-10 
211 1 0.073866 0.0176492 0.00723521 0.0059552 4.69982e-05 1.24505e-05 7.17609e-11 1.22496e-10 -1.45113e-11 5e-05 1.46608e-10 
212 1 0.0679401 0.0175187 0.00711628 0.00625062 -0.00066281 0.000257255 8.54453e-10 5.12792e-10 1.28678e-10 5e-05 1.46608e-10 
213 1 0.0737161 0.0166611 0.00766057 0.00558558 3.87965e-05 -4.30292e-05 1.65894e-10 -3.84077e-11 3.55607e-11 5e-05 1.46608e-10 
214 1 0.073791 0.0177153 0.00723684 0.00600112 4.87419e-05 1.23915e-05 -2.24184e-10 -2.65397e-10 -6.39635e-12 5e-05 1.46608e-10 
215 1 0.0617345 0.0174479 0.00714379 0.00617251 -0.000121503 -0.000237864 -3.50298e-10 6.2603e-12 1.41287e-11 5e-05 1.46608e-10 
216 1 0.0677025 0.0176951 0.00710461 0.00616193 -0.000494917 0.000240394 -1.96464e-10 3.74986e-10 1.12255e-10 5e-05 1.46608e-10 
217 1 0.0735229 0.0162577 0.00799562 0.0055103 6.78239e-05 -6.42882e-05 -1.73516e-10 -5.57604e-11 4.61988e-11 5e-05 1.46608e-10 
218 1 0.0678186 0.0178235 0.00710746 0.00610908 -0.000435758 0.000245352 2.73027e-10 6.49556e-10 5.62291e-11 5e-05 1.46608e-10 
219 1 0.0737954 0.018167 0.00724895 0.00590251 3.59013e-05 1.11545e-05 -3.82589e-11 3.568e-11 1.59481e-11 5e-05 1.46608e-10 
220 1 0.0676713 0.0175318 0.00717989 0.00618956 -0.000518766 0.000207997 1.16182e-10 -1.13455e-10 -3.78574e-10 5e-05 1.46608e-10 
221 1 0.0616329 0.0170363 0.00739889 0.00608644 -8.01862e-05 0.00021906 -4.95452e-11 -4.22871e-11 5.21642e-11 5e-05 1.46608e-10 
222 1 0.0735421 0.0163332 0.00793294 0.00551151 6.46919e-05 -6.30747e-05 -8.97117e-11 -8.49322e-11 1.54181e-10 5e-05 1.46608e-10 
223 1 0.0677654 0.0171664 0.00731554 0.00607801 -0.000451017 0.000145279 -2.2048e-10 -1.34405e-11 1.30779e-10 5e-05 1.46608e-10 
224 1 0.0675605 0.0171007 0.00736742 0.00595618 -0.000461732 0.000149992 -1.326e-11 1.26373e-10 -1.8224e-10 5e-05 1.46608e-10 
225 1 0.0738775 0.0172884 0.00722557 0.00620664 -3.49524e-05 8.38568e-06 9.06635e-12 -2.7941e-11 -2.25227e-11 5e-05 1.46608e-10 
226 1 0.0679233 0.017337 0.00719131 0.00631018 -0.000559255 0.000218099 1.58439e-10 3.68658e-10 -4.14601e-10 5e-05 1.46608e-10 
227 1 0.0616958 0.0172732 0.00722532 0.0062813 -5.37552e-05 0.000203045 -2.86501e-11 -2.76256e-10 1.90886e-10 5e-05 1.46608e-10 
228 1 0.0616621 0.0175159 0.00715505 0.00622222 -0.000122419 -9.57924e-05 1.04461e-10 -1.20298e-10 6.93537e-10 5e-05 1.46608e-10 
229 1 0.0676985 0.0173998 0.00730079 0.00618468 -0.000546143 0.000112292 4.21016e-11 -3.53059e-10 -2.65309e-10 5e-05 1.46608e-10 
230 1 0.0679945 0.0181747 0.00710967 0.00593708 -0.000444516 0.000238383 -1.12475e-10 -1.51901e-10 -1.68174e-12 5e-05 1.46608e-10 
231 1 0.0616191 0.0173238 0.00718591 0.00625216 -7.57863e-05 0.000219189 -1.50654e-11 -1.6829e-10 8.81801e-11 5e-05 1.46608e-10 
232 1 0.0675241 0.0162074 0.00799529 0.00540836 -0.000359594 9.92337e-05 1.89994e-10 2.35197e-10 -1.75962e-10 5e-05 1.46608e-10 
233 1 0.0676639 0.016767 0.00759866 0.00583041 -0.000297499 4.36558e-05 4.63313e-10 1.71729e-10 -1.393e-10 5e-05 1.46608e-10 
234 1 0.073854 0.0180085 0.00724481 0.00597601 7.84649e-05 1.27657e-05 -3.51166e-10 -1.09788e-11 -2.83971e-12 5e-05 1.46608e-10 
235 1 0.0680368 0.0183704 0.00710872 0.00581593 -0.000520105 0.000236481 3.98378e-10 1.79794e-10 2.76185e-11 5e-05 1.46608e-10 
236 1 0.0680154 0.0182725 0.00710918 0.00586427 -0.000511396 0.000237855 6.44124e-10 3.41806e-10 4.43941e-11 5e-05 1.46608e-10 
237 1 0.0680896 0.0182056 0.00711298 0.0058686 -0.000498102 0.000236204 2.37209e-10 1.79517e-10 1.09033e-11 5e-05 1.46608e-10 
239 1 0.061437 0.0166252 0.00771796 0.00578231 -0.00040083 -0.000312647 -2.12845e-11 1.18902e-11 -3.4381e-11 5e-05 1.46608e-10 
240 1 0.0614972 0.0168522 0.00753165 0.00597319 -2.79342e-05 0.000173558 6.71752e-11 -8.19749e-11 8.71023e-11 5e-05 1.46608e-10 
241 1 0.0614176 0.016554 0.00778544 0.00573076 -0.000386817 -0.000317126 6.60571e-11 5.54987e-11 -3.01558e-11 5e-05 1.46608e-10 
242 1 0.0677937 0.0168895 0.00750904 0.00597955 -0.000486081 0.00017187 -5.56197e-10 1.2875e-09 -9.04562e-10 5e-05 1.46608e-10 
243 1 0.0675566 0.0167297 0.00762784 0.00561239 -0.00039743 0.000119986 -2.17154e-10 1.19721e-10 -9.8704e-11 5e-05 1.46608e-10 
244 1 0.0614568 0.0166989 0.00765338 0.0058606 -0.000207303 -7.10971e-05 -1.1166e-10 -1.13862e-11 1.01121e-11 5e-05 1.46608e-10 
246 1 0.0615796 0.0171751 0.00731176 0.00616455 -5.23605e-05 0.00019847 2.04061e-10 2.18931e-10 2.29063e-10 5e-05 1.46608e-10 