ITEM: TIMESTEP
21000000
ITEM: NUMBER OF ATOMS
287
ITEM: BOX BOUNDS ff ff ff
-0.02 0.43
-0.02 0.06
-0.02 0.07
ITEM: ATOMS id type x y z vx vy vz fx fy fz radius mass 
1 1 0.135224 0.0162629 0.00783681 0.00616064 0.00130105 -0.000700714 1.02837e-09 2.38848e-10 5.74e-10 5e-05 1.46608e-10 
2 1 0.135743 0.0175702 0.00730199 0.00626071 0.00088538 -0.000827559 6.9794e-11 1.67535e-10 -5.83395e-11 5e-05 1.46608e-10 
3 1 0.128966 0.0156413 0.00863529 0.0054215 0.000426166 0.00012841 1.38207e-10 1.20638e-10 -6.26878e-11 5e-05 1.46608e-10 
4 1 0.135595 0.0177014 0.0072709 0.00624215 0.000879433 -0.000824646 -1.75331e-11 -2.10678e-11 3.00379e-12 5e-05 1.46608e-10 
5 1 0.135138 0.0161729 0.00794943 0.00585243 0.00132437 -0.000707078 -2.81167e-11 -1.83311e-10 3.17923e-10 5e-05 1.46608e-10 
6 1 0.141204 0.0164456 0.00777981 0.00577635 -0.000957946 0.000501788 -4.08712e-10 5.62448e-11 -7.04083e-11 5e-05 1.46608e-10 
7 1 0.135325 0.0169374 0.00754801 0.00634267 0.00100921 -0.000877347 -1.31663e-10 -1.3528e-09 4.73473e-10 5e-05 1.46608e-10 
8 1 0.13504 0.0158109 0.00827392 0.00584134 0.00137134 -0.000787898 1.03806e-10 2.40385e-10 -2.57887e-10 5e-05 1.46608e-10 
9 1 0.141473 0.0175577 0.00730691 0.00580099 -0.000958675 0.000512353 3.41508e-13 3.19218e-12 -6.28766e-13 5e-05 1.46608e-10 
10 1 0.13526 0.0166612 0.00764543 0.00641628 0.00115491 -0.000946336 -2.94386e-10 -2.54239e-10 -1.81498e-10 5e-05 1.46608e-10 
11 1 0.135783 0.0177747 0.00723055 0.0062258 0.000868984 -0.000819677 4.11097e-11 -1.18187e-10 6.49454e-11 5e-05 1.46608e-10 
12 1 0.129172 0.0163718 0.00798418 0.00588762 0.000218808 2.17171e-05 -5.79857e-11 6.54912e-10 6.46359e-10 5e-05 1.46608e-10 
13 1 0.135118 0.0160894 0.00800099 0.00587518 0.00131286 -0.000718037 2.8682e-10 9.19938e-11 1.00064e-10 5e-05 1.46608e-10 
14 1 0.128888 0.0153538 0.00889168 0.00557232 0.000431834 0.000139463 -8.84214e-11 -1.2094e-11 2.97288e-12 5e-05 1.46608e-10 
15 1 0.135465 0.0171489 0.00746578 0.00626116 0.000860085 -0.000819847 -2.23738e-11 -4.2087e-10 1.64962e-10 5e-05 1.46608e-10 
16 1 0.128868 0.0152807 0.00895682 0.0058167 0.000407318 0.000185512 2.70377e-11 -6.72875e-12 -5.93098e-12 5e-05 1.46608e-10 
17 1 0.135239 0.0165692 0.0076779 0.00639639 0.00114136 -0.000949579 -5.03689e-10 -3.12651e-10 5.49866e-10 5e-05 1.46608e-10 
18 1 0.141345 0.0169826 0.00742012 0.00594373 -0.000989021 0.000526357 1.63865e-11 -2.62772e-11 -3.14424e-12 5e-05 1.46608e-10 
19 1 0.135099 0.0160194 0.00806962 0.00589017 0.00133882 -0.000762146 -7.42437e-10 -4.33695e-10 2.9779e-10 5e-05 1.46608e-10 
21 1 0.135227 0.0161916 0.0079091 0.00586402 0.00127143 -0.000680306 1.102e-09 -7.46034e-10 1.16782e-09 5e-05 1.46608e-10 
22 1 0.135369 0.0171216 0.00748306 0.00631062 0.000895128 -0.000839128 -8.79047e-11 -6.00705e-11 -3.24602e-12 5e-05 1.46608e-10 
23 1 0.129369 0.0167331 0.00760757 0.00613499 -0.000209736 -0.000322483 -1.48744e-10 -9.09666e-11 1.26133e-10 5e-05 1.46608e-10 
24 1 0.141409 0.0172702 0.00736351 0.00587236 -0.000975024 0.000519582 -4.66168e-12 -1.00696e-11 9.86911e-13 5e-05 1.46608e-10 
25 1 0.135304 0.0168454 0.00758048 0.00635486 0.00113428 -0.000923831 -1.37728e-10 3.94023e-10 -2.76709e-11 5e-05 1.46608e-10 
26 1 0.141281 0.016695 0.00747672 0.00603113 -0.0010024 0.000533229 1.56495e-10 1.13306e-10 8.26716e-11 5e-05 1.46608e-10 
27 1 0.129253 0.0166458 0.00770456 0.00601799 -0.000184212 -0.000344682 8.67669e-11 -1.03156e-11 -1.58275e-10 5e-05 1.46608e-10 
28 1 0.135573 0.0176092 0.00730342 0.00625689 0.000882424 -0.000826162 -4.7805e-11 -8.22076e-11 4.67074e-11 5e-05 1.46608e-10 
29 1 0.135079 0.0159608 0.00814837 0.00585492 0.00135024 -0.000815921 1.7908e-10 -9.57006e-12 6.64387e-11 5e-05 1.46608e-10 
30 1 0.135626 0.0174518 0.00735133 0.00625349 0.000867346 -0.000820019 2.21395e-11 -1.33279e-10 1.86824e-11 5e-05 1.46608e-10 
31 1 0.135347 0.0170295 0.00751554 0.0063548 0.00103868 -0.000885967 2.43384e-10 4.74127e-10 -1.39553e-10 5e-05 1.46608e-10 
32 1 0.135444 0.0170568 0.00749825 0.00630009 0.000858976 -0.000821076 -3.79043e-10 -2.71545e-10 1.96442e-10 5e-05 1.46608e-10 
33 1 0.141223 0.0165079 0.00770401 0.00584964 -0.000977954 0.000517515 4.1343e-10 1.63402e-10 4.26928e-11 5e-05 1.46608e-10 
34 1 0.135217 0.0164771 0.00771038 0.00640186 0.00112234 -0.000991675 -1.6153e-10 -2.52127e-10 5.78914e-10 5e-05 1.46608e-10 
35 1 0.135422 0.0169647 0.00753072 0.00624816 0.00087684 -0.000822053 -4.4185e-10 -1.08774e-10 8.1097e-11 5e-05 1.46608e-10 
36 1 0.141516 0.0177494 0.00726917 0.00575315 -0.000949063 0.000507769 2.04497e-12 1.2184e-11 -2.44318e-12 5e-05 1.46608e-10 
37 1 0.135378 0.0167806 0.00759567 0.00610927 0.000919097 -0.000828135 1.09345e-10 4.86609e-10 -7.62405e-11 5e-05 1.46608e-10 
38 1 0.135561 0.0171756 0.00744874 0.00627742 0.000812074 -0.000803693 1.97451e-10 -1.99419e-11 1.54252e-11 5e-05 1.46608e-10 
39 1 0.14143 0.017366 0.00734465 0.00584856 -0.000969319 0.000517139 -3.12713e-12 -1.36429e-11 2.84618e-12 5e-05 1.46608e-10 
41 1 0.13518 0.0163523 0.00784551 0.00641191 0.00147071 -0.000959759 -3.87004e-11 -6.11176e-11 4.11795e-10 5e-05 1.46608e-10 
42 1 0.135391 0.0172139 0.00745048 0.00628187 0.000871044 -0.00081905 1.48864e-10 -3.10208e-10 6.47275e-11 5e-05 1.46608e-10 
44 1 0.135582 0.0172677 0.00741627 0.00625161 0.000827873 -0.000807527 4.1764e-12 -2.11087e-10 7.16827e-11 5e-05 1.46608e-10 
45 1 0.141242 0.0165703 0.0076282 0.00588857 -0.00099438 0.00052696 3.73171e-10 -1.95057e-10 1.7595e-10 5e-05 1.46608e-10 
46 1 0.141324 0.0168868 0.00743898 0.00596957 -0.000995443 0.000528232 -3.56101e-11 -1.70552e-11 -5.71509e-13 5e-05 1.46608e-10 
47 1 0.135196 0.0163897 0.00775419 0.00600857 0.00110586 -0.00121563 5.88601e-11 -3.65191e-10 2.01519e-10 5e-05 1.46608e-10 
48 1 0.135434 0.0173984 0.00738542 0.00627646 0.000869368 -0.000824598 -1.14186e-10 -1.6274e-10 7.87553e-11 5e-05 1.46608e-10 
49 1 0.141302 0.0167909 0.00745785 0.00599075 -0.00100077 0.000529698 9.23603e-12 7.08876e-11 2.04803e-11 5e-05 1.46608e-10 
50 1 0.135499 0.0176746 0.007288 0.00625256 0.000884836 -0.000828429 -2.54872e-11 -4.89982e-11 3.5678e-11 5e-05 1.46608e-10 
51 1 0.135477 0.0175825 0.00732047 0.00625826 0.000885304 -0.000826741 -2.22526e-11 -8.1608e-11 2.78658e-11 5e-05 1.46608e-10 
52 1 0.129151 0.0162989 0.00804936 0.00585527 0.000389932 0.00020661 9.84628e-11 1.32625e-10 1.12303e-10 5e-05 1.46608e-10 
53 1 0.141366 0.0170785 0.00740125 0.00592063 -0.000983921 0.000524243 -1.31474e-11 -2.85515e-12 -4.89713e-13 5e-05 1.46608e-10 
54 1 0.135227 0.0161212 0.00798012 0.00560348 0.00126641 -0.000703204 4.05391e-10 -6.18068e-10 6.71194e-10 5e-05 1.46608e-10 
55 1 0.128928 0.0155 0.00876129 0.00555984 0.000419731 0.000149405 4.12136e-11 -4.89862e-11 2.34327e-12 5e-05 1.46608e-10 
56 1 0.1354 0.0168727 0.00756319 0.00614559 0.000895337 -0.000823342 -3.39849e-10 4.76931e-10 -1.79301e-10 5e-05 1.46608e-10 
57 1 0.141262 0.0166325 0.00755253 0.00598949 -0.00101162 0.000528423 -4.63507e-10 -1.7657e-10 6.84024e-11 5e-05 1.46608e-10 
59 1 0.135474 0.0168073 0.00757863 0.00606469 0.000807044 -0.000780613 -1.25118e-10 5.51369e-10 -2.64081e-10 5e-05 1.46608e-10 
60 1 0.135496 0.0168994 0.00754616 0.00616837 0.000779916 -0.000782028 -2.42194e-10 3.93086e-10 -6.15034e-11 5e-05 1.46608e-10 
61 1 0.135156 0.0162632 0.00791089 0.00594172 0.00139673 -0.00091018 -5.78619e-10 2.58856e-10 -6.0576e-10 5e-05 1.46608e-10 
62 1 0.135604 0.0173598 0.0073838 0.00625919 0.000846089 -0.000813587 4.70828e-12 -1.39388e-10 8.20642e-11 5e-05 1.46608e-10 
63 1 0.13553 0.0174251 0.00736837 0.00626713 0.000865077 -0.00082091 -1.0445e-10 -7.21621e-11 4.69138e-11 5e-05 1.46608e-10 
64 1 0.141388 0.0171743 0.00738238 0.00589605 -0.000980004 0.000521913 8.60289e-12 1.3881e-12 1.87658e-12 5e-05 1.46608e-10 
65 1 0.129287 0.0164589 0.00788757 0.00594336 -0.00017491 -0.000325449 3.59395e-11 4.44653e-11 -1.50138e-10 5e-05 1.46608e-10 
66 1 0.129226 0.0162535 0.0080974 0.00584578 -0.000143203 -0.000292488 -3.22189e-11 1.03118e-10 -4.76255e-11 5e-05 1.46608e-10 
67 1 0.135763 0.0176652 0.00726863 0.00622516 0.000864948 -0.000817496 -5.03951e-11 -1.40863e-11 1.16258e-11 5e-05 1.46608e-10 
68 1 0.135669 0.0176359 0.00728639 0.00625096 0.000883185 -0.000825532 -3.39182e-11 1.06776e-11 1.55531e-11 5e-05 1.46608e-10 
69 1 0.135313 0.0165044 0.00769308 0.00610431 0.000844935 -0.000798231 -5.1652e-10 -2.85417e-11 -7.71931e-12 5e-05 1.46608e-10 
70 1 0.141452 0.0174619 0.00732578 0.00582481 -0.000963779 0.000514698 -1.15067e-12 -5.66958e-12 1.05668e-12 5e-05 1.46608e-10 
71 1 0.128908 0.0154269 0.00882649 0.00556532 0.000427435 0.000142868 -1.96562e-11 -3.4155e-11 3.62517e-11 5e-05 1.46608e-10 
72 1 0.135647 0.0175439 0.00731886 0.00625334 0.000877351 -0.00082466 -6.65425e-12 -2.15537e-11 7.48502e-12 5e-05 1.46608e-10 
73 1 0.135282 0.0167533 0.00761296 0.00639209 0.00115414 -0.000910534 5.25512e-10 2.21095e-10 -3.04809e-11 5e-05 1.46608e-10 
74 1 0.135487 0.017241 0.00743331 0.00627603 0.000848576 -0.000816262 1.63689e-10 -2.94051e-10 1.05964e-10 5e-05 1.46608e-10 
76 1 0.129483 0.0171888 0.00726772 0.00627407 0.000454422 0.000345451 -8.6302e-11 -1.39905e-10 1.01236e-11 5e-05 1.46608e-10 
77 1 0.135599 0.0181053 0.00715286 0.00617991 0.000857081 -0.000814547 -9.00304e-11 2.67828e-11 7.71917e-11 5e-05 1.46608e-10 
78 1 0.128986 0.0157144 0.00857003 0.00543096 0.00043048 0.000126597 3.06217e-11 9.15676e-11 -9.92116e-11 5e-05 1.46608e-10 
79 1 0.129192 0.0164414 0.00791534 0.00590298 -0.000108455 -0.000301163 -2.45811e-11 2.72031e-11 -7.31377e-11 5e-05 1.46608e-10 
80 1 0.135551 0.0177821 0.00734973 0.0062328 0.000842312 -0.000818584 -7.80746e-11 5.41083e-10 -6.25838e-11 5e-05 1.46608e-10 
81 1 0.12913 0.0162258 0.00811443 0.00582459 0.000387228 0.000190452 -2.19815e-10 -9.23596e-11 -9.26621e-11 5e-05 1.46608e-10 
82 1 0.129273 0.0167143 0.0076346 0.00607527 -0.000186478 -0.000338322 4.53572e-11 1.31943e-10 -1.29731e-10 5e-05 1.46608e-10 
83 1 0.129321 0.0162703 0.00807229 0.00574021 -5.47218e-05 -0.000453647 -3.84476e-10 -5.48537e-12 4.36784e-11 5e-05 1.46608e-10 
84 1 0.141494 0.0176536 0.00728804 0.00577709 -0.00095383 0.000510051 1.70226e-12 8.66381e-12 -1.70155e-12 5e-05 1.46608e-10 
85 1 0.129101 0.0158156 0.00848827 0.00559091 0.000395983 0.0001741 -2.78543e-10 -5.71617e-11 3.45824e-11 5e-05 1.46608e-10 
86 1 0.135552 0.0175172 0.0073359 0.00625336 0.000875559 -0.000824879 1.10916e-11 -1.0205e-10 1.87514e-11 5e-05 1.46608e-10 
87 1 0.135453 0.0167153 0.0076111 0.00600079 0.000841602 -0.000790416 -2.91669e-10 6.39763e-10 -3.72495e-10 5e-05 1.46608e-10 
88 1 0.135539 0.0178608 0.00728391 0.00625355 0.00087027 -0.000799218 4.27515e-13 6.10179e-11 -2.48801e-10 5e-05 1.46608e-10 
89 1 0.135726 0.0179138 0.00725642 0.00623513 0.000864312 -0.000838863 -6.62373e-11 1.23329e-10 3.21028e-10 5e-05 1.46608e-10 
90 1 0.135721 0.0174781 0.00733446 0.00625746 0.000882562 -0.000825694 -4.40959e-11 -8.88896e-14 -9.56832e-12 5e-05 1.46608e-10 
91 1 0.129213 0.0165128 0.00784837 0.00593065 -0.000255788 -0.00044166 -8.63251e-11 1.56471e-11 -5.14583e-11 5e-05 1.46608e-10 
92 1 0.135756 0.0179577 0.00717193 0.0061907 0.000932699 -0.000830578 -6.94164e-11 -6.64347e-11 1.42194e-10 5e-05 1.46608e-10 
93 1 0.135659 0.0179561 0.00719499 0.00618598 0.000812446 -0.000879743 -1.31965e-10 1.21773e-10 4.70024e-11 5e-05 1.46608e-10 
94 1 0.135812 0.0182721 0.00706264 0.00588841 0.000964819 -0.000821194 -2.87065e-11 -8.42326e-11 7.43347e-11 5e-05 1.46608e-10 
95 1 0.135751 0.0180459 0.00721856 0.00616166 0.000937038 -0.000813922 5.83333e-11 3.49034e-11 -7.28303e-11 5e-05 1.46608e-10 
96 1 0.135678 0.0180435 0.00715005 0.00617866 0.000859726 -0.000813873 -1.83782e-11 1.92808e-10 -6.83481e-11 5e-05 1.46608e-10 
97 1 0.129089 0.0160797 0.00824455 0.00574557 0.000398603 0.000180549 9.94849e-11 8.14414e-11 2.68105e-12 5e-05 1.46608e-10 
98 1 0.135563 0.017952 0.00725074 0.00623721 0.000864468 -0.000804048 7.38728e-11 1.20326e-10 -2.09575e-10 5e-05 1.46608e-10 
99 1 0.129267 0.0163904 0.00795754 0.00588722 -0.000158699 -0.000314145 3.30757e-11 -2.66632e-10 -4.43651e-10 5e-05 1.46608e-10 
100 1 0.135678 0.017294 0.00739943 0.00627873 0.000862274 -0.000821624 2.50382e-10 -1.96615e-10 2.23612e-11 5e-05 1.46608e-10 
101 1 0.129205 0.0161808 0.00816294 0.00578681 0.000350286 0.000229995 -2.53606e-10 2.14173e-11 -1.90914e-10 5e-05 1.46608e-10 
102 1 0.0643568 0.0187248 0.00531097 4.289e-15 1.04975e-14 8.2959e-14 -4.67905e-21 1.27301e-21 7.44463e-23 5e-05 1.46608e-10 
103 1 0.24257 0.0191927 0.00520306 3.39597e-22 4.86658e-23 1.53437e-21 0 0 0 5e-05 1.46608e-10 
104 1 0.129564 0.0171342 0.00729178 0.00633692 0.000483689 0.000349631 6.44871e-11 4.71146e-11 2.91503e-11 5e-05 1.46608e-10 
105 1 0.129047 0.0159337 0.00837468 0.00565697 0.000411276 0.000166481 -6.54098e-12 -1.39034e-10 5.66624e-11 5e-05 1.46608e-10 
106 1 0.129641 0.0170752 0.00731693 0.00634914 0.000498981 0.000349192 6.37508e-11 -1.13848e-11 4.38276e-11 5e-05 1.46608e-10 
107 1 0.129006 0.0157876 0.00850481 0.00554203 0.000427983 0.000139536 -2.35306e-10 7.65696e-11 -1.18146e-10 5e-05 1.46608e-10 
108 1 0.135357 0.0166886 0.00762814 0.00615718 0.000911406 -0.000830771 -1.939e-10 -2.01685e-10 2.45194e-10 5e-05 1.46608e-10 
109 1 0.135456 0.0174904 0.00735294 0.00626582 0.000865417 -0.000821138 -5.07882e-11 -1.3489e-10 6.05949e-11 5e-05 1.46608e-10 
110 1 0.135682 0.0184925 0.00700033 0.0057402 0.000937907 -0.000800914 -5.77592e-12 1.10405e-11 -2.63067e-12 5e-05 1.46608e-10 
111 1 0.135728 0.0183254 0.00705203 0.00570283 0.000900687 -0.000784535 2.5714e-10 1.85043e-10 -7.27146e-11 5e-05 1.46608e-10 
112 1 0.129109 0.0161528 0.00817949 0.00576586 0.000385149 0.000177857 -6.19416e-11 1.57242e-10 1.25036e-10 5e-05 1.46608e-10 
113 1 0.129823 0.0179057 0.0071331 0.00624449 0.000744068 -0.00114187 -4.30706e-11 1.40375e-11 -1.69955e-11 5e-05 1.46608e-10 
114 1 0.129507 0.0168921 0.00744923 0.00625234 0.000205287 2.7174e-05 8.86904e-11 3.9403e-11 6.03044e-11 5e-05 1.46608e-10 
115 1 0.135508 0.0173331 0.00740084 0.0062781 0.000857182 -0.00081962 -3.41429e-11 -8.13114e-11 1.1487e-11 5e-05 1.46608e-10 
116 1 0.135335 0.0165965 0.00766061 0.00610411 0.000884786 -0.000810246 -6.77483e-10 -3.46388e-10 2.8587e-10 5e-05 1.46608e-10 
117 1 0.135199 0.0160523 0.00804673 0.00596322 0.00142501 -0.000828898 -3.5853e-10 1.997e-10 -1.94518e-10 5e-05 1.46608e-10 
118 1 0.128947 0.015588 0.00871778 0.00539537 0.000436341 0.000129224 1.15745e-10 1.36021e-11 -3.2013e-11 5e-05 1.46608e-10 
119 1 0.135518 0.0169914 0.00751368 0.00629577 0.000761646 -0.000791348 -1.23968e-10 2.054e-10 -2.57834e-11 5e-05 1.46608e-10 
120 1 0.13506 0.015881 0.00820528 0.00589116 0.00135304 -0.000755528 1.56794e-10 1.37391e-10 2.89825e-10 5e-05 1.46608e-10 
121 1 0.135021 0.0157409 0.00834258 0.00583407 0.00134918 -0.000764072 5.63013e-11 2.7692e-10 -2.6825e-10 5e-05 1.46608e-10 
122 1 0.135663 0.0183997 0.00703278 0.00568803 0.000888651 -0.000779493 -1.08777e-11 3.90835e-11 -8.73972e-12 5e-05 1.46608e-10 
123 1 0.129143 0.0159617 0.00835814 0.00568084 0.000387031 0.000190675 -8.0807e-11 -1.15765e-10 1.33021e-10 5e-05 1.46608e-10 
124 1 0.135609 0.0178715 0.00721315 0.00623265 0.000863838 -0.000815643 1.32993e-10 1.50508e-10 -6.22813e-11 5e-05 1.46608e-10 
125 1 0.135179 0.0159822 0.00811537 0.00595921 0.00142085 -0.000824272 -3.18236e-10 2.11403e-10 -3.59241e-10 5e-05 1.46608e-10 
126 1 0.135412 0.0173063 0.00741791 0.00628025 0.000863407 -0.000820173 -3.37629e-11 -4.14074e-10 1.452e-10 5e-05 1.46608e-10 
127 1 0.129068 0.0160067 0.00830961 0.0057074 0.000411327 0.000173642 -1.75189e-10 -5.17098e-11 5.53135e-11 5e-05 1.46608e-10 
128 1 0.135521 0.0177666 0.00725553 0.00624469 0.000883816 -0.00082365 1.1067e-11 -3.08601e-11 -2.37705e-11 5e-05 1.46608e-10 
129 1 0.135768 0.0181593 0.00718999 0.0058759 0.000893306 -0.000803997 1.63231e-12 -4.64919e-11 -1.24453e-10 5e-05 1.46608e-10 
130 1 0.129389 0.0168019 0.00753727 0.00618577 -0.000216173 -0.00033599 -3.0677e-11 1.8099e-10 -1.47713e-10 5e-05 1.46608e-10 
131 1 0.129247 0.016323 0.00802863 0.00585659 -0.00017514 -0.000325388 -2.21482e-10 2.60519e-10 9.673e-11 5e-05 1.46608e-10 
132 1 0.13562 0.0177978 0.00727972 0.00623352 0.00086156 -0.000814647 5.51817e-11 1.71e-10 -7.18871e-11 5e-05 1.46608e-10 
133 1 0.135366 0.0163542 0.00775922 0.00611409 0.00109549 -0.000494534 3.18979e-10 3.42839e-10 -3.19649e-10 5e-05 1.46608e-10 
134 1 0.135539 0.0170835 0.00748121 0.00628716 0.000783453 -0.000795684 3.86707e-10 8.08359e-12 -1.14867e-10 5e-05 1.46608e-10 
135 1 0.135159 0.0159121 0.00818401 0.00586951 0.00140473 -0.000813322 -1.87758e-10 2.25428e-10 -1.09188e-10 5e-05 1.46608e-10 
136 1 0.129081 0.0157425 0.00855336 0.00550816 0.000419285 0.000144958 -3.30118e-10 2.51499e-11 -3.34067e-11 5e-05 1.46608e-10 
137 1 0.135619 0.0181913 0.00710589 0.00587452 0.000916802 -0.00080519 -6.6604e-11 -2.3569e-10 5.8511e-11 5e-05 1.46608e-10 
138 1 0.135291 0.0164117 0.00772612 0.006347 0.00115327 -0.000839273 1.77024e-11 9.64505e-11 3.67348e-10 5e-05 1.46608e-10 
140 1 0.135764 0.0184362 0.0070121 0.005758 0.000959034 -0.000809206 -5.62412e-11 2.60779e-11 1.09162e-12 5e-05 1.46608e-10 
141 1 0.129122 0.0158887 0.00842321 0.00564111 0.000392218 0.000182022 -5.07348e-11 -4.78052e-11 4.80942e-12 5e-05 1.46608e-10 
142 1 0.129528 0.0169655 0.00738464 0.00633673 0.000415018 0.000284923 1.29347e-10 -1.02513e-10 -1.29408e-10 5e-05 1.46608e-10 
143 1 0.129027 0.0158606 0.00843974 0.00562774 0.000416116 0.000157686 7.03929e-11 6.53835e-11 -2.29563e-12 5e-05 1.46608e-10 
144 1 0.129485 0.0168199 0.00751477 0.00619099 -2.56503e-05 -0.000244433 6.7998e-11 1.1793e-10 1.21463e-10 5e-05 1.46608e-10 
146 1 0.129342 0.0163388 0.00800235 0.00579625 -6.61991e-05 -0.000451953 -4.66207e-10 -5.14251e-11 4.96112e-11 5e-05 1.46608e-10 
147 1 0.129061 0.0156694 0.00861858 0.00538992 0.000444163 0.000113126 -3.33387e-10 2.12358e-10 -2.53899e-10 5e-05 1.46608e-10 
148 1 0.129334 0.0169206 0.00742554 0.00625468 1.65303e-05 -0.000134546 9.49496e-12 -1.0575e-10 -8.9321e-11 5e-05 1.46608e-10 
149 1 0.135723 0.0182308 0.00708392 0.00591293 0.000903888 -0.000802902 -1.23638e-10 -1.70893e-10 -2.44021e-11 5e-05 1.46608e-10 
150 1 0.129383 0.0164758 0.00786243 0.00589974 -9.45894e-05 -0.000421335 1.06938e-10 -1.39057e-10 1.53116e-10 5e-05 1.46608e-10 
151 1 0.12976 0.017201 0.00728593 0.00631887 0.000518228 0.000337496 7.62583e-11 1.63429e-10 -5.26964e-11 5e-05 1.46608e-10 
153 1 0.129184 0.0161078 0.00822801 0.00575076 0.000374286 0.000214264 -9.32167e-11 -6.57915e-11 -6.24376e-11 5e-05 1.46608e-10 
154 1 0.129451 0.0170094 0.00732624 0.00636386 0.000459343 0.000380566 9.53481e-11 5.42383e-11 4.45081e-11 5e-05 1.46608e-10 
155 1 0.129512 0.0172902 0.00726176 0.00628138 0.000468119 0.000344661 7.29928e-12 -2.12132e-11 -9.94314e-11 5e-05 1.46608e-10 
156 1 0.129431 0.0169403 0.00739581 0.00623623 -0.000211048 -0.000320783 2.49409e-11 1.32629e-10 -2.71724e-11 5e-05 1.46608e-10 
157 1 0.0219312 0.0187687 0.00551176 -3.83213e-14 8.16666e-14 2.95889e-13 5.33531e-23 -3.61892e-24 8.06501e-24 5e-05 1.46608e-10 
158 1 0.129698 0.0176553 0.00713443 0.00509468 0.00107833 5.7467e-05 -1.32141e-10 5.00413e-11 -2.76203e-11 5e-05 1.46608e-10 
159 1 0.135689 0.0177304 0.00725327 0.0062354 0.000870526 -0.000819923 -3.96318e-11 1.03811e-11 -1.51587e-11 5e-05 1.46608e-10 
160 1 0.129394 0.017166 0.0073071 0.00630493 0.000433898 0.000351732 -3.166e-12 5.18894e-11 -6.72181e-11 5e-05 1.46608e-10 
162 1 0.129354 0.0169902 0.00735672 0.00632727 0.000312179 0.000186431 -3.01827e-11 1.30839e-10 2.19465e-10 5e-05 1.46608e-10 
164 1 0.129598 0.0176578 0.00714567 0.00509855 0.000340129 -0.000966144 -7.50867e-11 3.88182e-11 2.36264e-11 5e-05 1.46608e-10 
165 1 0.129822 0.0174809 0.0072006 0.00625835 0.000553196 0.000322639 -1.16002e-10 7.2689e-11 -3.63533e-12 5e-05 1.46608e-10 
166 1 0.135324 0.0162146 0.00789572 0.00590985 0.001166 -0.000551291 7.22738e-10 -4.00536e-10 3.85978e-10 5e-05 1.46608e-10 
167 1 0.129363 0.0164072 0.00793243 0.00586062 -8.25378e-05 -0.000436825 -9.0283e-11 -1.17835e-10 1.23031e-10 5e-05 1.46608e-10 
168 1 0.129666 0.0171681 0.00728898 0.00632229 0.000505727 0.000341766 7.973e-11 3.30577e-11 1.40199e-12 5e-05 1.46608e-10 
169 1 0.129899 0.0177417 0.0071227 0.00671715 0.000450759 0.000387833 -4.72292e-11 -1.28663e-10 9.37178e-11 5e-05 1.46608e-10 
170 1 0.129682 0.0172634 0.00725956 0.00629943 0.000520097 0.000335503 2.91664e-11 5.01332e-11 -3.24945e-11 5e-05 1.46608e-10 
171 1 0.135349 0.0162849 0.0078292 0.00601791 0.0011907 -0.000461605 -6.89465e-10 -6.69723e-11 -4.8748e-11 5e-05 1.46608e-10 
172 1 0.129809 0.0173862 0.00723006 0.00628591 0.000540568 0.000327282 -1.31411e-10 1.38304e-10 -3.38777e-11 5e-05 1.46608e-10 
173 1 0.135782 0.0180785 0.00712951 0.00598892 0.00103585 -0.00085265 -1.85156e-12 1.49056e-10 -3.01995e-11 5e-05 1.46608e-10 
174 1 0.129603 0.0173301 0.00726331 0.0062772 0.000478074 0.000324133 -3.27642e-11 4.97958e-12 -1.46307e-10 5e-05 1.46608e-10 
175 1 0.123409 0.0171999 0.00722995 0.0056712 0.000171905 6.56143e-05 6.70362e-10 7.32474e-10 -6.21605e-10 5e-05 1.46608e-10 
176 1 0.129411 0.0168716 0.00746601 0.00625728 -0.000220751 -0.000425188 3.35538e-11 -9.34369e-11 1.40897e-11 5e-05 1.46608e-10 
177 1 0.129437 0.0173567 0.00726427 0.00625437 0.000445264 0.000349529 -2.09734e-11 -7.89243e-11 -1.16606e-10 5e-05 1.46608e-10 
178 1 0.129965 0.0176711 0.00715066 0.00660425 0.000362457 0.000409491 4.08511e-11 -1.89111e-11 -7.54412e-13 5e-05 1.46608e-10 
179 1 0.129871 0.0176369 0.00715418 0.00659289 0.00038232 0.00040334 -8.59562e-11 6.27912e-11 -2.1666e-11 5e-05 1.46608e-10 
181 1 0.129404 0.0172453 0.00738248 0.0062916 0.000417055 0.000334304 3.03557e-11 -3.81331e-11 2.42484e-11 5e-05 1.46608e-10 
182 1 0.135271 0.0163273 0.00777671 0.00607448 0.00135631 -0.000755473 -3.8196e-10 2.03241e-11 -1.48273e-10 5e-05 1.46608e-10 
183 1 0.129589 0.0172269 0.00726388 0.00630706 0.000493523 0.000343715 4.98026e-11 3.89454e-11 1.22264e-12 5e-05 1.46608e-10 
184 1 0.135843 0.0180018 0.00714985 0.00614006 0.00114377 -0.000904133 -1.43626e-10 -1.67555e-11 -2.5557e-11 5e-05 1.46608e-10 
185 1 0.129313 0.0168515 0.00749486 0.00619981 -0.000162588 -0.000318571 8.49722e-11 -1.82745e-10 -2.9764e-10 5e-05 1.46608e-10 
186 1 0.129394 0.0171073 0.00738803 0.00635198 0.000468371 0.00035601 -1.98655e-10 1.38733e-10 -2.1888e-10 5e-05 1.46608e-10 
187 1 0.135656 0.0172019 0.0074319 0.00628089 0.000832132 -0.000811367 1.14468e-10 -8.03325e-11 1.909e-11 5e-05 1.46608e-10 
188 1 0.135578 0.0180091 0.00717001 0.00620825 0.000852617 -0.00081301 -8.09683e-11 1.60561e-10 5.22045e-11 5e-05 1.46608e-10 
189 1 0.135699 0.0173861 0.00736693 0.0062512 0.000871595 -0.000822169 1.2001e-10 -2.7347e-11 2.09798e-12 5e-05 1.46608e-10 
190 1 0.123596 0.017599 0.00709859 0.00578093 4.52183e-05 -0.000259068 -5.49266e-11 -1.50379e-11 4.31575e-12 5e-05 1.46608e-10 
191 1 0.135639 0.0182838 0.00707344 0.00590721 0.000891942 -0.000800238 -2.80228e-11 -2.50674e-11 2.00652e-11 5e-05 1.46608e-10 
192 1 0.129606 0.0169091 0.00741306 0.00628915 0.000181799 4.70134e-06 -7.58291e-11 -2.2521e-12 -1.50765e-10 5e-05 1.46608e-10 
193 1 0.135431 0.0166232 0.00764357 0.00601927 0.000859793 -0.000817793 6.39849e-11 7.35585e-10 -2.28737e-10 5e-05 1.46608e-10 
194 1 0.129423 0.0166154 0.00772525 0.00592035 -0.000107305 -0.000404221 4.55106e-10 -4.73092e-11 5.42884e-11 5e-05 1.46608e-10 
195 1 0.129897 0.0175456 0.00718569 0.00647057 0.000337064 0.000408551 -2.00621e-10 5.91733e-11 -3.18247e-11 5e-05 1.46608e-10 
196 1 0.128847 0.0152076 0.00902194 0.00582819 0.000405318 0.00018869 -6.64176e-11 -1.04688e-10 8.75751e-11 5e-05 1.46608e-10 
197 1 0.123467 0.0174763 0.00717617 0.00569585 5.17399e-05 -0.000257037 -7.4591e-11 -1.84433e-10 -2.62354e-11 5e-05 1.46608e-10 
198 1 0.129232 0.0165773 0.00777459 0.00598366 -0.000202213 -0.000377788 -4.53024e-11 -9.94869e-11 -1.88032e-10 5e-05 1.46608e-10 
199 1 0.129375 0.0170683 0.00729793 0.00635728 0.000429517 0.000365958 1.08913e-11 -2.27927e-11 5.99856e-11 5e-05 1.46608e-10 
200 1 0.129348 0.0166644 0.00767768 0.00601795 -0.000245372 -0.000279684 -1.25389e-10 9.8555e-11 -5.26117e-11 5e-05 1.46608e-10 
201 1 0.129823 0.0178057 0.00713302 0.0066976 0.000579649 -0.000631104 -4.30787e-11 -2.60991e-11 -3.7225e-12 5e-05 1.46608e-10 
202 1 0.129623 0.0169812 0.00734579 0.00638128 0.000496236 0.000355119 -5.46904e-11 -2.95263e-11 -7.56144e-11 5e-05 1.46608e-10 
203 1 0.1357 0.0185853 0.0069679 0.00580645 0.00094619 -0.000807246 -3.73778e-11 4.64751e-11 -8.91751e-12 5e-05 1.46608e-10 
204 1 0.129328 0.0165959 0.00774765 0.00597519 -0.000189094 -0.000333899 2.82433e-10 8.41422e-12 -8.0566e-11 5e-05 1.46608e-10 
205 1 0.129675 0.017702 0.0072199 0.00525799 0.000775978 0.000271019 -7.55818e-11 5.41163e-11 -2.47056e-11 5e-05 1.46608e-10 
206 1 0.129612 0.0174117 0.00720615 0.00624719 0.000495256 0.000342472 1.90158e-11 7.69132e-11 -2.17932e-11 5e-05 1.46608e-10 
207 1 0.129164 0.0160347 0.00829307 0.0057213 0.000383574 0.000199473 -5.83177e-11 -1.44699e-10 1.73743e-10 5e-05 1.46608e-10 
208 1 0.129474 0.0171095 0.00732784 0.00633933 0.000471725 0.000344648 9.998e-12 4.93073e-11 3.07785e-11 5e-05 1.46608e-10 
209 1 0.129403 0.0165443 0.00779248 0.00593064 -0.000106376 -0.000409208 1.52047e-10 -1.00407e-10 9.38607e-11 5e-05 1.46608e-10 
210 1 0.135731 0.017801 0.00731204 0.00620571 0.000838433 -0.000821571 8.43555e-11 2.1658e-10 1.91363e-11 5e-05 1.46608e-10 
211 1 0.135802 0.0181712 0.00709697 0.00590234 0.000913804 -0.000801767 -1.23918e-10 -2.96087e-11 -5.3199e-11 5e-05 1.46608e-10 
212 1 0.129693 0.0173582 0.00722987 0.00627084 0.000524187 0.000328513 -8.04518e-11 1.47442e-11 -1.12208e-11 5e-05 1.46608e-10 
213 1 0.135634 0.0171098 0.00746437 0.00628666 0.00080639 -0.000803238 1.95e-10 -1.27145e-10 2.95826e-11 5e-05 1.46608e-10 
214 1 0.135915 0.0183108 0.00704096 0.00583165 0.00102536 -0.00083734 -6.11121e-11 1.21888e-10 -3.33171e-11 5e-05 1.46608e-10 
215 1 0.123535 0.0175222 0.00711858 0.00572268 3.87158e-05 -0.000254316 -1.27419e-10 -3.91823e-11 2.56741e-11 5e-05 1.46608e-10 
216 1 0.129416 0.017261 0.00728448 0.00627097 0.000439105 0.000341558 2.50291e-11 -4.00818e-11 -5.20052e-11 5e-05 1.46608e-10 
217 1 0.135388 0.0164437 0.0077204 0.00618445 0.000937158 -0.000732847 -5.04606e-10 1.17632e-09 4.98409e-10 5e-05 1.46608e-10 
218 1 0.129549 0.0174884 0.00721525 0.00623229 0.000499196 0.000252415 -1.52109e-12 -6.21487e-11 -5.66167e-11 5e-05 1.46608e-10 
219 1 0.135703 0.0181383 0.00711637 0.00586766 0.000910993 -0.000800676 4.35221e-11 6.90291e-11 -6.30888e-11 5e-05 1.46608e-10 
220 1 0.129578 0.0174377 0.00729648 0.00622549 0.000494974 0.000342501 1.64098e-11 4.37919e-11 2.52733e-11 5e-05 1.46608e-10 
221 1 0.123462 0.0170583 0.00731514 0.00640238 4.05231e-06 0.000180797 3.49613e-10 -1.29208e-10 2.16073e-10 5e-05 1.46608e-10 
222 1 0.13541 0.0165323 0.00767964 0.00619862 0.000831375 -0.000878682 -3.30462e-10 1.22537e-09 5.93877e-10 5e-05 1.46608e-10 
223 1 0.129546 0.0170402 0.00732063 0.00635787 0.000479652 0.000355413 4.85159e-12 -5.81412e-12 -1.12943e-10 5e-05 1.46608e-10 
224 1 0.129293 0.0167828 0.00756464 0.006142 -0.000182615 -0.000340619 4.5539e-11 6.39874e-11 -1.25011e-10 5e-05 1.46608e-10 
225 1 0.135697 0.0178248 0.00722121 0.00622793 0.000861028 -0.000817328 1.81087e-10 1.36471e-10 -3.20682e-11 5e-05 1.46608e-10 
226 1 0.129777 0.0172953 0.00725686 0.00629918 0.000529652 0.000332344 -2.58891e-11 1.28048e-10 -4.34503e-11 5e-05 1.46608e-10 
227 1 0.123522 0.0173136 0.00716634 0.005562 2.62368e-05 -0.000246054 -4.38251e-10 -2.11485e-10 1.15951e-10 5e-05 1.46608e-10 
228 1 0.123428 0.0172918 0.00719568 0.00569756 9.29659e-05 -9.45542e-05 -1.85564e-10 1.73058e-10 -1.25337e-11 5e-05 1.46608e-10 
229 1 0.129515 0.0173663 0.00732649 0.00625238 0.00046605 0.000349132 -9.1743e-11 3.31385e-11 -1.29697e-10 5e-05 1.46608e-10 
230 1 0.129737 0.0178553 0.00714357 0.00647379 0.000317806 -0.00124389 4.89541e-11 -3.9562e-11 -1.85251e-11 5e-05 1.46608e-10 
231 1 0.123388 0.0171155 0.00727929 0.00639284 0.000103075 0.000145462 -1.681e-10 7.20636e-10 -6.10565e-10 5e-05 1.46608e-10 
232 1 0.129301 0.0162019 0.00814222 0.0057542 -7.15087e-05 -0.000458341 -1.77073e-10 9.81963e-11 1.3148e-10 5e-05 1.46608e-10 
233 1 0.129443 0.0166812 0.00765266 0.00598423 -0.000122916 -0.00040135 -1.36928e-10 7.85212e-11 -1.17945e-10 5e-05 1.46608e-10 
234 1 0.135632 0.0180604 0.00723708 0.00620251 0.000838811 -0.0007965 5.71339e-11 1.47568e-10 -7.70403e-11 5e-05 1.46608e-10 
235 1 0.129568 0.0179883 0.00723505 0.00580515 -0.00085792 -0.00111962 2.99445e-11 -8.72217e-11 1.04306e-11 5e-05 1.46608e-10 
236 1 0.129779 0.0180459 0.00715988 0.00604232 0.000281782 -0.00115839 -1.69476e-10 -1.22341e-10 1.80885e-11 5e-05 1.46608e-10 
237 1 0.12959 0.0180801 0.0072017 0.00580424 -0.000871933 -0.00126201 -5.46874e-11 4.96312e-11 4.04561e-11 5e-05 1.46608e-10 
239 1 0.123195 0.0163585 0.00772133 0.00566065 0.000203232 3.7813e-05 -2.99238e-11 -3.0023e-11 1.85347e-11 5e-05 1.46608e-10 
240 1 0.123259 0.0166116 0.00757352 0.00623917 9.81277e-05 0.000115887 -1.11445e-11 -1.86959e-10 1.07663e-10 5e-05 1.46608e-10 
241 1 0.123175 0.0162738 0.00777086 0.00568491 0.000199244 4.09018e-05 -1.13386e-11 -4.32691e-11 2.66055e-11 5e-05 1.46608e-10 
242 1 0.129564 0.0167716 0.00755212 0.00616893 -0.00016747 -0.00036721 1.56097e-10 2.63553e-11 -6.6122e-12 5e-05 1.46608e-10 
243 1 0.129308 0.0165274 0.00781761 0.0059682 -0.000189612 -0.000336602 4.84144e-11 3.71947e-11 -6.73674e-11 5e-05 1.46608e-10 
244 1 0.123215 0.016443 0.00767198 0.00621971 0.000108551 0.00010944 -6.11371e-11 -3.03204e-11 1.64305e-11 5e-05 1.46608e-10 
246 1 0.123345 0.0169488 0.0073766 0.00626884 1.04605e-05 0.000162203 -4.2017e-11 5.89613e-10 -2.75218e-10 5e-05 1.46608e-10 
247 1 0.129568 0.017547 0.00729399 0.00623941 0.000706027 0.000100774 2.14062e-11 3.31221e-11 -2.14416e-10 5e-05 1.46608e-10 
248 1 0.129739 0.0179545 0.00715607 0.00600035 0.000308273 -0.0011509 -5.88005e-11 -1.71431e-10 -4.79728e-11 5e-05 1.46608e-10 