ITEM: TIMESTEP
6600000
ITEM: NUMBER OF ATOMS
287
ITEM: BOX BOUNDS ff ff ff
-0.02 0.43
-0.02 0.06
-0.02 0.07
ITEM: ATOMS id type x y z vx vy vz fx fy fz radius mass 
1 1 0.0513524 0.0164577 0.00768226 0.00536162 -0.000623207 0.000687419 -4.70986e-11 -4.02337e-12 -1.33683e-11 5e-05 1.46608e-10 
2 1 0.051748 0.01744 0.00732467 0.00544066 -0.00024715 0.000542264 2.09727e-10 1.4382e-11 1.16133e-12 5e-05 1.46608e-10 
3 1 0.045068 0.015886 0.00841317 0.00590803 0.000790507 0.00109528 -1.22975e-10 -4.04695e-11 -6.10878e-11 5e-05 1.46608e-10 
4 1 0.0516758 0.017925 0.00712626 0.00545761 -0.000230585 0.000540796 -8.51427e-11 -2.32913e-10 4.48748e-11 5e-05 1.46608e-10 
5 1 0.0512389 0.0163703 0.00778475 0.00609175 -0.000829269 -0.000100597 1.53895e-10 -1.22126e-11 -4.43499e-11 5e-05 1.46608e-10 
6 1 0.0572836 0.0166384 0.00779769 0.00600739 0.000120738 -2.49958e-05 -1.02254e-11 1.99945e-11 -4.62842e-11 5e-05 1.46608e-10 
7 1 0.0514235 0.0171593 0.00740958 0.00562346 -0.000381505 0.000610927 5.09389e-12 1.17639e-11 -6.98264e-12 5e-05 1.46608e-10 
8 1 0.0511318 0.0160439 0.00814799 0.00598396 -0.000779987 -0.000140182 -1.40811e-10 2.09018e-10 -1.59633e-10 5e-05 1.46608e-10 
9 1 0.0575367 0.0176771 0.00720075 0.00548156 0.000212785 -6.41593e-05 -9.27422e-11 2.637e-11 3.18114e-12 5e-05 1.46608e-10 
10 1 0.0513619 0.0168848 0.00751352 0.00560607 -0.000363078 0.000602798 -3.44586e-11 -1.54101e-10 4.93001e-11 5e-05 1.46608e-10 
11 1 0.0517866 0.0176237 0.00725493 0.00535824 -0.000225124 0.000526611 3.09174e-10 8.05473e-11 -3.17125e-11 5e-05 1.46608e-10 
12 1 0.0452676 0.0165175 0.00776823 0.00596963 -0.000334581 0.000510601 -1.80854e-10 -4.53497e-10 1.29517e-10 5e-05 1.46608e-10 
13 1 0.0512175 0.0163051 0.0078574 0.00608752 -0.000827543 -0.000105097 -2.57554e-10 -1.07624e-10 2.43298e-10 5e-05 1.46608e-10 
14 1 0.0449928 0.0157398 0.00877426 0.00574656 0.000775529 0.00105893 2.53871e-10 -8.54713e-11 2.75489e-10 5e-05 1.46608e-10 
15 1 0.051559 0.0173745 0.00733524 0.00548745 -0.000327846 0.000579348 -1.67038e-10 8.16777e-12 -1.2173e-11 5e-05 1.46608e-10 
16 1 0.0449729 0.0157028 0.00886502 0.00565523 0.000789115 0.00101155 -3.38158e-10 -1.67219e-10 9.5649e-11 5e-05 1.46608e-10 
17 1 0.0513413 0.0167932 0.00754817 0.00559034 -0.000369222 0.00060265 1.97606e-11 -1.39812e-10 4.78789e-11 5e-05 1.46608e-10 
18 1 0.057422 0.0171229 0.007312 0.00576965 0.000154358 -6.243e-05 3.46343e-11 2.31847e-11 -2.67715e-11 5e-05 1.46608e-10 
19 1 0.051196 0.0162398 0.00793005 0.00604834 -0.000821237 -0.00010539 9.89008e-12 -1.73147e-10 2.25995e-10 5e-05 1.46608e-10 
21 1 0.0513358 0.0163862 0.00775231 0.0054577 -0.000694282 -0.000120187 5.72452e-12 -1.38847e-10 1.95851e-10 5e-05 1.46608e-10 
22 1 0.0514641 0.0173424 0.00734021 0.00555142 -0.000384297 0.00060645 -1.13413e-10 8.52054e-11 -5.17677e-11 5e-05 1.46608e-10 
23 1 0.0454457 0.0169278 0.00765171 0.00575213 -0.000297352 0.000482354 2.86084e-10 -2.80874e-10 4.57791e-11 5e-05 1.46608e-10 
24 1 0.0574782 0.017383 0.00720719 0.00569872 0.000167666 -6.5523e-05 1.54665e-11 1.26868e-11 -8.17697e-13 5e-05 1.46608e-10 
25 1 0.0514029 0.0170678 0.00744423 0.00561581 -0.000375779 0.000607742 2.68992e-11 -1.90635e-11 -6.12926e-13 5e-05 1.46608e-10 
26 1 0.0573692 0.0169146 0.00752126 0.00598648 0.000118049 -4.09638e-05 -3.45012e-11 3.67594e-11 -3.3325e-11 5e-05 1.46608e-10 
27 1 0.0453482 0.0168929 0.00765607 0.00577079 -0.000341514 0.00050074 1.46272e-10 -7.84322e-12 -5.98908e-11 5e-05 1.46608e-10 
28 1 0.0516556 0.0178334 0.00716099 0.00543267 -0.000293945 0.000560352 -3.79138e-11 -5.67775e-11 1.9095e-11 5e-05 1.46608e-10 
29 1 0.0511746 0.0161745 0.0080027 0.00602828 -0.000813921 -0.000109833 2.3679e-10 5.49457e-11 -9.35434e-11 5e-05 1.46608e-10 
30 1 0.0516921 0.0175909 0.0072602 0.00542196 -0.000260553 0.000546372 1.1218e-10 2.71549e-11 -3.48201e-12 5e-05 1.46608e-10 
31 1 0.051444 0.0172508 0.00737493 0.00562636 -0.000387021 0.000613009 -4.0431e-11 3.04002e-11 -2.12962e-11 5e-05 1.46608e-10 
32 1 0.0515387 0.0172828 0.00736997 0.00562147 -0.000316263 0.00058659 -1.16718e-10 1.44577e-10 -6.19245e-11 5e-05 1.46608e-10 
33 1 0.0573051 0.0167074 0.00772857 0.00603178 0.000119983 -2.23578e-05 -1.88102e-11 6.54464e-11 -8.26096e-11 5e-05 1.46608e-10 
34 1 0.0513211 0.0167071 0.0075947 0.00556108 -0.000369865 0.000594143 -5.08891e-11 -2.02503e-11 2.03106e-10 5e-05 1.46608e-10 
35 1 0.0515185 0.0171911 0.00740473 0.00563889 -0.000367478 0.000606302 -1.68642e-11 1.19548e-10 -4.41167e-11 5e-05 1.46608e-10 
36 1 0.0575754 0.0178733 0.00719645 0.00547425 0.000212491 -6.41629e-05 8.60462e-12 -7.05448e-12 4.36841e-12 5e-05 1.46608e-10 
37 1 0.0514773 0.0170079 0.00747407 0.00561456 -0.000370173 0.000605103 9.28219e-11 -2.20633e-12 8.20656e-12 5e-05 1.46608e-10 
38 1 0.0516333 0.017315 0.00736592 0.00551947 -0.000315301 0.000566868 -1.37582e-10 1.33708e-10 -8.85786e-11 5e-05 1.46608e-10 
39 1 0.0574978 0.017481 0.00720504 0.00567145 0.000173441 -6.51752e-05 9.58557e-12 9.60341e-12 -2.83581e-12 5e-05 1.46608e-10 
41 1 0.05128 0.0165247 0.00766585 0.00554685 -0.000542873 0.000167317 1.8858e-11 5.72727e-11 1.37727e-10 5e-05 1.46608e-10 
42 1 0.051484 0.0174361 0.00731135 0.00544204 -0.000364406 0.000591463 2.0923e-11 1.3015e-10 -4.5806e-11 5e-05 1.46608e-10 
44 1 0.0516536 0.0174073 0.00732996 0.00546194 -0.000283195 0.00055691 6.67438e-11 -4.78112e-11 -2.02806e-11 5e-05 1.46608e-10 
45 1 0.0573267 0.0167764 0.00765945 0.00604574 0.000117596 -2.03018e-05 5.5865e-11 6.05478e-11 -6.7407e-11 5e-05 1.46608e-10 
46 1 0.0574041 0.0170535 0.00738167 0.00583052 0.000146956 -5.41513e-05 -8.49034e-12 2.5384e-11 -2.87644e-11 5e-05 1.46608e-10 
47 1 0.0513005 0.0166158 0.00762996 0.00555921 -0.000409832 0.000521328 -2.92634e-11 -2.00683e-11 1.16067e-10 5e-05 1.46608e-10 
48 1 0.0515225 0.0176172 0.00723593 0.00533668 -0.000308641 0.000558323 3.10864e-12 -8.03668e-11 3.7818e-11 5e-05 1.46608e-10 
49 1 0.0573872 0.0169839 0.00745147 0.00587848 0.000141646 -4.70612e-05 -1.07208e-10 4.75043e-11 -3.67566e-11 5e-05 1.46608e-10 
50 1 0.0515805 0.0178924 0.00713143 0.0054339 -0.000292991 0.000560155 -7.95203e-12 -2.66243e-11 1.01055e-11 5e-05 1.46608e-10 
51 1 0.0515611 0.0178007 0.00716626 0.00542173 -0.000272373 0.000552086 3.4134e-11 1.69419e-10 -7.56797e-11 5e-05 1.46608e-10 
52 1 0.0452475 0.0164237 0.00779635 0.00601192 -0.000344852 0.00050951 -1.14387e-10 -4.64857e-10 2.3753e-10 5e-05 1.46608e-10 
53 1 0.0574415 0.0171922 0.00724256 0.00569936 0.000164489 -7.19743e-05 2.33413e-11 2.55497e-11 -2.37601e-11 5e-05 1.46608e-10 
54 1 0.0513157 0.0163206 0.00782506 0.00607365 -0.000835672 -9.62288e-05 2.41252e-10 -1.12769e-10 6.43916e-11 5e-05 1.46608e-10 
55 1 0.045032 0.0158291 0.00860064 0.00577218 0.000729703 0.00109602 6.39721e-10 -1.24804e-10 5.34393e-10 5e-05 1.46608e-10 
56 1 0.0514978 0.0170994 0.00743942 0.00563556 -0.000367459 0.000606529 2.01225e-11 4.47042e-11 -1.47117e-11 5e-05 1.46608e-10 
57 1 0.0573482 0.0168454 0.00759033 0.00606401 0.000114851 -1.81035e-05 -2.95164e-11 3.33099e-11 -4.11619e-11 5e-05 1.46608e-10 
59 1 0.0515533 0.0169499 0.00750331 0.00562705 -0.000353285 0.000601071 9.40305e-11 -7.33478e-11 1.00583e-11 5e-05 1.46608e-10 
60 1 0.0515726 0.0170443 0.00747645 0.00565411 -0.000344614 0.00059966 -2.52822e-11 5.77087e-11 -2.65853e-11 5e-05 1.46608e-10 
61 1 0.0512601 0.0164418 0.0077181 0.005461 -0.000789689 -0.000269983 -2.34666e-10 -2.48254e-10 -3.01349e-10 5e-05 1.46608e-10 
62 1 0.051673 0.0174992 0.00729506 0.00541204 -0.000268941 0.000548289 1.34318e-10 7.744e-12 4.71556e-12 5e-05 1.46608e-10 
63 1 0.0516169 0.01765 0.00723064 0.00537676 -0.000302349 0.000559093 -1.98434e-11 -4.71931e-11 1.67576e-11 5e-05 1.46608e-10 
64 1 0.0574582 0.017285 0.00720934 0.00571018 0.000164859 -6.65017e-05 5.17452e-12 2.5702e-11 -5.13167e-12 5e-05 1.46608e-10 
65 1 0.0453651 0.0165525 0.00776387 0.00594652 -0.00030281 0.000492756 -8.85904e-11 -2.54052e-10 -1.31476e-11 5e-05 1.46608e-10 
66 1 0.0453046 0.0162709 0.00784799 0.00609815 -0.000317449 0.000444491 3.29904e-10 -1.64114e-10 2.94757e-10 5e-05 1.46608e-10 
67 1 0.0517673 0.0175319 0.00728977 0.00539411 -0.00022789 0.000531362 1.21317e-10 7.90374e-11 -4.04981e-11 5e-05 1.46608e-10 
68 1 0.051731 0.0177744 0.00719058 0.00544957 -0.000250719 0.000545036 -6.60902e-11 -1.79085e-11 3.26934e-12 5e-05 1.46608e-10 
69 1 0.0514162 0.0167339 0.00757783 0.00558103 -0.00036664 0.000599693 1.43724e-10 -1.77946e-10 7.21899e-11 5e-05 1.46608e-10 
70 1 0.0575174 0.017579 0.00720289 0.00556157 0.000196738 -6.46635e-05 -1.00824e-10 3.00866e-11 1.26263e-12 5e-05 1.46608e-10 
71 1 0.0450112 0.0157766 0.00868312 0.00573237 0.000750097 0.00108228 1.4763e-10 -2.10494e-10 3.04548e-10 5e-05 1.46608e-10 
72 1 0.0517114 0.0176827 0.00722537 0.00545192 -0.000258535 0.000548043 -4.9147e-13 3.78702e-11 -1.78817e-11 5e-05 1.46608e-10 
73 1 0.0513824 0.0169763 0.00747887 0.00561299 -0.000368255 0.000605117 -1.76041e-11 -6.09788e-11 1.66895e-11 5e-05 1.46608e-10 
74 1 0.0515786 0.0174666 0.00730075 0.00542565 -0.000313637 0.000570155 1.04345e-10 1.63891e-11 -1.29539e-11 5e-05 1.46608e-10 
76 1 0.045603 0.0175816 0.00745753 0.00617401 -0.00033131 0.000521918 1.60438e-10 -1.54745e-10 8.19973e-11 5e-05 1.46608e-10 
77 1 0.0518151 0.0185269 0.00689876 0.00562825 -3.44109e-05 0.000472743 -2.00317e-10 1.28224e-10 -8.36066e-11 5e-05 1.46608e-10 
78 1 0.0450872 0.0159229 0.00832222 0.00605862 0.000845468 0.0010983 -2.52166e-10 1.44731e-10 -2.59533e-10 5e-05 1.46608e-10 
79 1 0.0452878 0.0166113 0.00774019 0.00592935 -0.000323494 0.000507269 -1.22896e-10 -3.8679e-10 1.81807e-10 5e-05 1.46608e-10 
80 1 0.0516384 0.0181667 0.00702729 0.00550467 -0.000250058 0.00054794 -1.27228e-10 -3.00679e-10 9.82626e-11 5e-05 1.46608e-10 
81 1 0.0452273 0.0163301 0.00782517 0.00606155 -0.00034563 0.000530973 6.19146e-11 -9.06041e-11 5.08816e-10 5e-05 1.46608e-10 
82 1 0.0453684 0.0169867 0.00762803 0.00574402 -0.000318165 0.000486979 1.52023e-10 -3.59041e-11 -4.20849e-11 5e-05 1.46608e-10 
83 1 0.0453579 0.0161126 0.00789717 0.00619508 -0.000136386 0.000845146 -3.67593e-11 -1.78431e-10 1.06605e-10 5e-05 1.46608e-10 
84 1 0.057556 0.0177752 0.0071986 0.00549023 0.00021017 -6.41367e-05 -8.14482e-12 1.34462e-13 2.8723e-12 5e-05 1.46608e-10 
85 1 0.0451816 0.0159494 0.00830259 0.00615824 0.000782549 0.00120739 2.18576e-11 -8.00018e-11 2.80247e-11 5e-05 1.46608e-10 
86 1 0.0516363 0.0177417 0.00719581 0.00543564 -0.00026925 0.000551117 4.80361e-12 1.24714e-10 -5.70212e-11 5e-05 1.46608e-10 
87 1 0.0515296 0.0168589 0.00753747 0.00563132 -0.000351599 0.000599672 -4.88964e-11 -6.63778e-11 -1.4405e-12 5e-05 1.46608e-10 
88 1 0.0516961 0.0184403 0.00692339 0.00556983 -0.000277311 0.000565822 3.47262e-10 5.00852e-10 -1.44552e-10 5e-05 1.46608e-10 
89 1 0.0516581 0.0182621 0.00700483 0.00551452 -0.000301307 0.000526743 1.89003e-10 2.75905e-10 -4.70796e-11 5e-05 1.46608e-10 
90 1 0.0517102 0.0172576 0.007394 0.00556543 -0.00027368 0.00056576 -1.03712e-10 1.75981e-10 -1.04842e-10 5e-05 1.46608e-10 
91 1 0.0453079 0.0167052 0.00771215 0.00587135 -0.000353939 0.000506758 8.2876e-11 3.35955e-11 -2.65915e-12 5e-05 1.46608e-10 
92 1 0.0517701 0.0179579 0.00712092 0.00545373 -0.000248673 0.000544207 -3.60012e-11 -2.16869e-11 2.60422e-11 5e-05 1.46608e-10 
93 1 0.0517538 0.0182918 0.00698705 0.00555776 -0.00038372 0.000606052 8.81966e-11 -1.28238e-11 2.53399e-11 5e-05 1.46608e-10 
94 1 0.0518294 0.0182333 0.00701646 0.00554503 -0.000470428 0.000639643 -2.96968e-11 -3.14172e-10 1.10557e-10 5e-05 1.46608e-10 
95 1 0.051619 0.018075 0.00706211 0.00548092 -0.000245096 0.000542343 -5.80355e-11 -2.12173e-10 -8.62705e-12 5e-05 1.46608e-10 
96 1 0.0517895 0.0180496 0.0070861 0.00546476 -0.000259737 0.000548747 -1.02244e-10 -1.21235e-10 3.70888e-11 5e-05 1.46608e-10 
97 1 0.045187 0.0161422 0.00788064 0.00616438 -0.000472122 0.000239768 3.8696e-10 -5.12875e-10 -9.31671e-10 5e-05 1.46608e-10 
98 1 0.0517156 0.0185334 0.00689243 0.00559405 -0.000248351 0.000550323 8.925e-11 3.10355e-10 -2.22885e-10 5e-05 1.46608e-10 
99 1 0.0453449 0.0164586 0.00779191 0.00597293 -0.000301199 0.000494542 -3.58691e-10 -2.61123e-10 -8.86045e-11 5e-05 1.46608e-10 
100 1 0.0516696 0.017074 0.00746354 0.00565463 -0.000338717 0.000595947 4.51324e-13 1.05057e-10 -3.56758e-11 5e-05 1.46608e-10 
101 1 0.0452845 0.0161771 0.00787624 0.0061602 -0.000287016 0.000531428 2.4139e-10 -3.07717e-10 -4.96764e-10 5e-05 1.46608e-10 
102 1 0.0643568 0.0187248 0.00531097 4.29542e-15 1.04574e-14 8.29637e-14 1.00691e-21 -3.95005e-22 -1.05466e-23 5e-05 1.46608e-10 
103 1 0.24257 0.0191927 0.00520306 -1.23235e-22 -1.27651e-22 1.23839e-22 0 0 0 5e-05 1.46608e-10 
104 1 0.0456074 0.0172399 0.00756487 0.00627039 -0.000334577 0.000528855 2.38248e-10 1.17148e-10 -6.74982e-11 5e-05 1.46608e-10 
105 1 0.0451467 0.0160575 0.00806381 0.00619437 0.000913668 0.00112216 -2.5217e-10 4.09017e-11 -3.64066e-10 5e-05 1.46608e-10 
106 1 0.0456818 0.0171778 0.00758939 0.00625029 -0.000351754 0.000529844 3.61741e-10 1.00477e-10 1.23749e-10 5e-05 1.46608e-10 
107 1 0.0451063 0.0159598 0.00823126 0.00613732 0.000875254 0.00107527 7.7168e-11 3.49475e-10 -2.97507e-10 5e-05 1.46608e-10 
108 1 0.0514549 0.016924 0.00752372 0.00562595 -0.000364674 0.00060574 -8.19731e-13 -9.26682e-11 -4.93834e-11 5e-05 1.46608e-10 
109 1 0.0515418 0.0177089 0.00720108 0.00538884 -0.000294568 0.000556706 -5.88902e-12 -3.69836e-11 1.44018e-11 5e-05 1.46608e-10 
110 1 0.0518646 0.0179906 0.00711565 0.00547867 -0.000226904 0.000537913 5.47509e-11 -1.10103e-11 -1.23638e-12 5e-05 1.46608e-10 
111 1 0.0517553 0.0187206 0.00684076 0.00584878 -0.000258874 0.000397583 2.9626e-10 -6.32538e-11 -4.35521e-10 5e-05 1.46608e-10 
112 1 0.0452072 0.016236 0.00785235 0.00612108 -0.000353505 0.000545588 2.43293e-10 1.33679e-10 2.6641e-10 5e-05 1.46608e-10 
113 1 0.0458979 0.0173276 0.00754864 0.00626532 -0.000636161 -0.000521461 9.4963e-11 4.8735e-11 -5.46709e-11 5e-05 1.46608e-10 
114 1 0.0455405 0.0169597 0.00764815 0.00582977 -0.000241671 0.000469748 5.4084e-10 1.43234e-10 4.04954e-11 5e-05 1.46608e-10 
115 1 0.0515977 0.0175582 0.00726548 0.00534192 -0.000304587 0.000557449 9.70587e-11 -3.35485e-11 1.89328e-11 5e-05 1.46608e-10 
116 1 0.0514354 0.0168284 0.0075512 0.00561698 -0.000349383 0.000599057 -2.44603e-11 -1.52541e-10 6.10299e-11 5e-05 1.46608e-10 
117 1 0.0512943 0.0162553 0.00789771 0.0060759 -0.000837094 -9.37131e-05 -2.96911e-11 5.04082e-11 -1.34714e-10 5e-05 1.46608e-10 
118 1 0.0450488 0.0158492 0.00850412 0.00583818 0.00074032 0.0011111 3.76198e-10 1.31494e-10 3.15736e-10 5e-05 1.46608e-10 
119 1 0.0515939 0.0171324 0.00743417 0.00565115 -0.000345649 0.000599 1.89061e-11 8.28762e-11 -2.67869e-11 5e-05 1.46608e-10 
120 1 0.0511532 0.0161092 0.00807534 0.00602308 -0.000799524 -0.000125677 -6.09318e-11 1.15688e-10 -1.58241e-10 5e-05 1.46608e-10 
121 1 0.0511103 0.0159786 0.00822064 0.00596018 -0.000773214 -0.000141134 1.69773e-10 2.84087e-10 -3.24087e-10 5e-05 1.46608e-10 
122 1 0.0518852 0.0180824 0.00708091 0.00548071 -0.000312732 0.00057193 5.11323e-10 -1.43896e-10 1.0578e-10 5e-05 1.46608e-10 
123 1 0.0452212 0.0160231 0.00812094 0.00617813 0.000841771 0.00117321 -6.16432e-10 -3.42568e-11 -1.08293e-10 5e-05 1.46608e-10 
124 1 0.0517142 0.0181085 0.00705658 0.00548774 -0.000261447 0.000552095 -1.42375e-10 -1.82309e-10 5.01491e-11 5e-05 1.46608e-10 
125 1 0.0512728 0.01619 0.00797036 0.00604182 -0.000826063 -9.85479e-05 -5.07911e-11 1.13821e-10 -7.10383e-11 5e-05 1.46608e-10 
126 1 0.0515033 0.0175254 0.00727077 0.00531741 -0.000305389 0.000555589 -1.87259e-11 -2.69457e-11 4.02289e-12 5e-05 1.46608e-10 
127 1 0.0451654 0.0160737 0.00795028 0.00632012 0.0007318 0.00150766 0 0 -1.43822e-09 5e-05 1.46608e-10 
128 1 0.0516001 0.0179874 0.00710658 0.00546299 -0.000232744 0.000471939 -3.143e-11 -1.48151e-10 1.75971e-10 5e-05 1.46608e-10 
129 1 0.0516767 0.0183486 0.00695822 0.0055596 -0.000292146 0.00057397 2.77558e-10 4.73975e-10 -1.0787e-10 5e-05 1.46608e-10 
130 1 0.0454659 0.0170217 0.00762368 0.00600352 -0.00035005 0.000516493 2.68767e-10 -3.0326e-10 1.28424e-10 5e-05 1.46608e-10 
131 1 0.0453248 0.0163648 0.00781995 0.00603418 -0.000310334 0.000484544 -7.62779e-11 -1.23741e-10 2.32156e-11 5e-05 1.46608e-10 
132 1 0.0516949 0.0180168 0.0070914 0.00547149 -0.000243758 0.000544565 -1.35251e-10 -1.9698e-10 2.29147e-11 5e-05 1.46608e-10 
133 1 0.0514497 0.0164917 0.0076767 0.00549584 -0.000327618 0.000576168 -9.07568e-11 8.14066e-11 1.25626e-11 5e-05 1.46608e-10 
134 1 0.0516117 0.0172283 0.00741106 0.00574418 -0.000211479 0.000560146 -1.76434e-10 1.36165e-10 -9.80382e-11 5e-05 1.46608e-10 
135 1 0.0512514 0.0161247 0.00804301 0.00600423 -0.000815721 -0.000104074 2.90961e-10 -7.61516e-11 4.37838e-12 5e-05 1.46608e-10 
136 1 0.0451628 0.0159124 0.00839355 0.00600058 0.000765136 0.00119986 -1.18468e-10 -6.29491e-11 2.88864e-11 5e-05 1.46608e-10 
137 1 0.0517726 0.0188162 0.00686455 0.00615477 -0.000288857 0.000307583 -6.54714e-11 -2.49084e-10 -1.27917e-11 5e-05 1.46608e-10 
138 1 0.0513953 0.0166424 0.00761243 0.00555116 -0.000356697 0.000592179 -4.1468e-11 -6.46697e-11 7.84006e-11 5e-05 1.46608e-10 
140 1 0.0519045 0.0181743 0.00704602 0.00557946 -0.000479919 0.000646443 3.78226e-10 4.3333e-11 2.06666e-11 5e-05 1.46608e-10 
141 1 0.0452016 0.0159872 0.00821219 0.00624285 0.000824882 0.00121319 -6.32911e-10 -3.73533e-11 -1.96547e-10 5e-05 1.46608e-10 
142 1 0.0455612 0.0170534 0.00762018 0.00597076 -0.000268871 0.000487975 1.29353e-10 2.923e-10 -1.03568e-10 5e-05 1.46608e-10 
143 1 0.0451255 0.0159967 0.00814031 0.00617996 0.000860017 0.00107065 3.0006e-11 2.50821e-12 -3.92775e-10 5e-05 1.46608e-10 
144 1 0.0455202 0.0168659 0.00767618 0.00580376 -0.000243719 0.000469554 5.55e-10 -1.07024e-10 5.37164e-11 5e-05 1.46608e-10 
146 1 0.0453794 0.0162061 0.00786253 0.00609604 -0.000545611 -0.000531868 4.29842e-10 -3.07612e-10 -2.36111e-10 5e-05 1.46608e-10 
147 1 0.0451503 0.0158812 0.00848773 0.00586382 0.000763206 0.00120962 -1.22971e-10 1.7598e-11 -1.69469e-10 5e-05 1.46608e-10 
148 1 0.0454302 0.017268 0.00754408 0.00722672 -0.000602748 0.000676565 1.26773e-10 -2.88731e-10 1.22336e-10 5e-05 1.46608e-10 
149 1 0.0518866 0.018311 0.00699027 0.00100257 0.0024248 -0.000880544 -3.4263e-10 -9.34641e-11 9.12055e-12 5e-05 1.46608e-10 
150 1 0.0454196 0.016396 0.00781446 0.00614581 -0.000538329 -0.000631418 0 0 -1.43822e-09 5e-05 1.46608e-10 
151 1 0.0457551 0.017114 0.00761312 0.00631134 -0.000657402 -0.000509643 5.21004e-10 -3.95868e-10 -1.56456e-10 5e-05 1.46608e-10 
153 1 0.0452648 0.0161071 0.00794482 0.00622997 -8.10515e-05 0.00073981 1.46908e-10 -3.77775e-10 -4.12171e-10 5e-05 1.46608e-10 
154 1 0.0455329 0.0173019 0.0075404 0.00628063 -0.000348712 0.000534396 1.59569e-10 8.83717e-12 4.77343e-11 5e-05 1.46608e-10 
155 1 0.0456262 0.0176749 0.00742988 0.00625854 -0.000355128 0.000535377 -5.37234e-11 -1.01908e-10 5.22759e-11 5e-05 1.46608e-10 
156 1 0.0455075 0.0172091 0.00756776 0.00722979 -0.000589509 0.000672422 1.81065e-10 -1.45595e-10 6.55253e-11 5e-05 1.46608e-10 
157 1 0.0219312 0.0187687 0.00551176 -3.82567e-14 8.16913e-14 2.9589e-13 -6.4701e-23 1.30281e-22 -4.17726e-23 5e-05 1.46608e-10 
158 1 0.0456312 0.0173331 0.00753731 0.00628309 -0.000321125 0.0005289 1.54293e-10 2.56005e-10 -5.72702e-11 5e-05 1.46608e-10 
159 1 0.0517509 0.017866 0.00715583 0.0054498 -0.0002413 0.000543949 1.93276e-11 -2.75418e-11 2.48147e-11 5e-05 1.46608e-10 
160 1 0.0455257 0.0176405 0.00743384 0.00610875 -0.000349447 0.000523005 -3.45455e-11 -1.5077e-10 4.55251e-11 5e-05 1.46608e-10 
162 1 0.0455567 0.0173951 0.00751284 0.00628423 -0.000342678 0.00053247 2.84744e-10 -4.57059e-11 2.91867e-11 5e-05 1.46608e-10 
164 1 0.0457791 0.0179892 0.00734174 0.00554802 -0.000169762 0.000427233 -3.01798e-10 1.23742e-10 -7.7355e-11 5e-05 1.46608e-10 
165 1 0.0458252 0.017394 0.00753135 0.00623165 -0.000344755 0.000529372 3.84287e-10 -5.03116e-11 6.82838e-11 5e-05 1.46608e-10 
166 1 0.0514107 0.0163351 0.00779441 0.00537374 -0.000762298 -6.95417e-05 -2.35169e-10 5.19057e-11 1.02797e-10 5e-05 1.46608e-10 
167 1 0.0453996 0.016301 0.00783848 0.00612813 -0.000565406 -0.000558561 -6.20321e-11 -2.12581e-11 -3.68496e-10 5e-05 1.46608e-10 
168 1 0.0457056 0.0172709 0.00756183 0.00626994 -0.000344581 0.000529608 -1.66482e-11 1.9237e-10 2.58963e-11 5e-05 1.46608e-10 
169 1 0.045921 0.0174218 0.00752444 0.00634258 -0.000649256 -0.000534513 -7.32689e-11 1.59475e-10 2.98832e-11 5e-05 1.46608e-10 
170 1 0.045752 0.0174574 0.00750652 0.00625118 -0.000330905 0.000527176 3.18391e-10 1.62664e-10 -6.55435e-11 5e-05 1.46608e-10 
171 1 0.0514306 0.0164104 0.00773175 0.00547886 -0.000516747 0.000263727 -1.84735e-10 2.30356e-10 1.12267e-11 5e-05 1.46608e-10 
172 1 0.0458021 0.0173007 0.00755902 0.00629078 -0.000349337 0.00053844 1.3727e-10 -9.09768e-12 1.01951e-10 5e-05 1.46608e-10 
173 1 0.0517832 0.0171962 0.0074243 0.00566191 -0.000182411 0.000535322 -1.79105e-10 6.11557e-11 -4.61301e-11 5e-05 1.46608e-10 
174 1 0.0456776 0.0175196 0.007482 0.00622512 -0.000279727 0.000508722 1.74217e-10 4.46921e-11 1.62188e-11 5e-05 1.46608e-10 
175 1 0.0394931 0.017466 0.00719144 0.00545203 -0.000315623 0.000333477 -2.58948e-11 -7.8126e-11 2.34073e-11 5e-05 1.46608e-10 
176 1 0.0454864 0.0171154 0.00759569 0.00677804 -0.000502226 0.000616287 5.58689e-11 -1.55864e-10 4.4302e-11 5e-05 1.46608e-10 
177 1 0.0455668 0.017828 0.00737789 0.00541618 -0.000250686 0.000448708 -2.9452e-10 1.68589e-10 -1.6701e-10 5e-05 1.46608e-10 
178 1 0.0458746 0.0172332 0.00757288 0.00618355 -0.000699136 -0.000494944 1.98126e-10 -9.34795e-11 -9.36925e-11 5e-05 1.46608e-10 
179 1 0.0458699 0.0175834 0.00747503 0.00634334 -0.000206072 0.000493946 7.62097e-11 -3.57961e-11 1.62526e-11 5e-05 1.46608e-10 
181 1 0.0454794 0.0174539 0.00748916 0.00609519 -0.000350021 0.000522562 6.89818e-11 2.62123e-10 -7.3681e-11 5e-05 1.46608e-10 
182 1 0.0513747 0.0165509 0.00764709 0.00558443 -0.000373487 0.00060751 9.80968e-11 4.66882e-12 1.62886e-11 5e-05 1.46608e-10 
183 1 0.0457289 0.0173641 0.00753419 0.0062869 -0.000334767 0.000528716 1.53015e-10 1.01705e-10 -1.18528e-10 5e-05 1.46608e-10 
184 1 0.0516881 0.0179046 0.00722338 0.00546325 -0.000206623 0.000546413 1.50106e-10 2.93378e-11 5.82185e-11 5e-05 1.46608e-10 
185 1 0.0454091 0.0171744 0.007572 0.00630873 -0.00041252 0.000556979 6.27498e-10 -7.40562e-10 3.01975e-10 5e-05 1.46608e-10 
186 1 0.0454556 0.0173608 0.00751673 0.00627839 -0.00037616 0.000542463 -2.72664e-11 -1.25554e-11 -2.53591e-11 5e-05 1.46608e-10 
187 1 0.0516482 0.0169826 0.00749807 0.00565253 -0.000341867 0.000597582 2.1667e-11 2.78905e-11 -2.17614e-12 5e-05 1.46608e-10 
188 1 0.051811 0.0183696 0.00696085 0.0010191 0.00249351 -0.000906469 -3.40204e-10 -9.42743e-11 9.63998e-12 5e-05 1.46608e-10 
189 1 0.051688 0.017166 0.00742854 0.00569452 -0.000289128 0.00058086 -2.65245e-10 5.77572e-11 -4.29752e-11 5e-05 1.46608e-10 
190 1 0.0395926 0.0175035 0.00718269 0.00546109 -0.000317908 0.00033463 1.07334e-11 -3.50015e-12 3.059e-12 5e-05 1.46608e-10 
191 1 0.0517939 0.0189083 0.00689711 0.00612011 -0.000278583 0.000305417 -6.01631e-11 -4.82508e-10 -1.63695e-10 5e-05 1.46608e-10 
192 1 0.0456365 0.016991 0.00764483 0.00607975 -0.00032164 0.000512564 4.38783e-10 -1.432e-10 -2.55969e-11 5e-05 1.46608e-10 
193 1 0.0515108 0.0167664 0.00757268 0.00561652 -0.000343062 0.000597843 1.2578e-10 -1.05866e-10 7.78713e-11 5e-05 1.46608e-10 
194 1 0.0454598 0.0165843 0.0077603 0.00595656 -0.000268419 0.000506135 2.32827e-10 -3.96118e-10 4.32893e-10 5e-05 1.46608e-10 
195 1 0.0458484 0.0174873 0.00750369 0.0063069 -0.000333392 0.000534075 -1.70871e-10 -1.29238e-10 6.6074e-12 5e-05 1.46608e-10 
196 1 0.0449537 0.015666 0.00895598 0.00555748 0.000770081 0.000979577 -1.05162e-11 -1.83219e-10 7.13912e-11 5e-05 1.46608e-10 
197 1 0.0395514 0.0177451 0.00709808 0.00548914 -0.000313526 0.000334328 1.53327e-11 8.80148e-12 -1.99467e-12 5e-05 1.46608e-10 
198 1 0.0453281 0.016799 0.00768411 0.00582665 -0.000351737 0.000505044 1.30989e-10 1.9182e-10 -1.46617e-10 5e-05 1.46608e-10 
199 1 0.04558 0.0174883 0.0074852 0.00624249 -0.000338702 0.000529377 1.20532e-10 -5.65383e-12 1.40016e-11 5e-05 1.46608e-10 
200 1 0.0454255 0.016834 0.00767975 0.00581629 -0.000297709 0.000486163 3.6206e-10 -9.07564e-11 3.81034e-11 5e-05 1.46608e-10 
201 1 0.0458894 0.0180437 0.00733213 0.00554692 -0.000321661 0.000477093 -3.51273e-10 3.81543e-10 -1.46386e-10 5e-05 1.46608e-10 
202 1 0.0456584 0.0170846 0.00761701 0.00619135 -0.000345399 0.000526967 3.48779e-10 -5.80461e-11 9.71645e-11 5e-05 1.46608e-10 
203 1 0.0518617 0.0175646 0.00728451 0.00537974 -0.000201527 0.000519417 1.14428e-10 -5.58458e-12 2.97086e-11 5e-05 1.46608e-10 
204 1 0.0454054 0.0167401 0.00770779 0.00586823 -0.000304555 0.00049351 2.52161e-10 -9.33721e-11 1.28722e-10 5e-05 1.46608e-10 
205 1 0.0457398 0.0178014 0.00739793 0.00543563 -0.000160031 0.000418432 -6.47248e-11 3.15303e-10 -1.0105e-10 5e-05 1.46608e-10 
206 1 0.0457008 0.0176129 0.00745433 0.00628847 -0.000333556 0.000529749 2.71514e-10 2.03667e-11 1.17948e-11 5e-05 1.46608e-10 
207 1 0.0452412 0.016064 0.00803194 0.00619442 0.000459438 0.000996418 9.49573e-11 -1.81819e-10 9.5017e-12 5e-05 1.46608e-10 
208 1 0.0456545 0.0174263 0.00750968 0.00628343 -0.000308357 0.000521088 1.09661e-10 1.80644e-10 -6.71778e-11 5e-05 1.46608e-10 
209 1 0.0454396 0.0164905 0.00778834 0.00595362 -0.00027481 0.000499223 -3.30214e-10 -6.54708e-10 1.73894e-10 5e-05 1.46608e-10 
210 1 0.0515135 0.017279 0.00746668 0.00562396 -0.000366041 0.00058823 4.39593e-11 -1.85731e-10 5.44246e-12 5e-05 1.46608e-10 
211 1 0.0518099 0.0181413 0.00705138 0.00550571 -0.000287077 0.000563568 1.80918e-10 -3.69839e-10 1.64584e-10 5e-05 1.46608e-10 
212 1 0.0457751 0.0175507 0.00747887 0.00629212 -0.000338691 0.000531547 3.13624e-10 1.55656e-10 -2.26758e-11 5e-05 1.46608e-10 
213 1 0.0516286 0.0168909 0.00753286 0.00564299 -0.00034652 0.000598155 -4.40173e-11 -3.59683e-12 7.64185e-12 5e-05 1.46608e-10 
214 1 0.0517346 0.0182001 0.0070219 0.00550823 -0.000284219 0.000562264 2.33037e-10 -8.03381e-11 4.78475e-11 5e-05 1.46608e-10 
215 1 0.0395683 0.0174046 0.0072156 0.00545181 -0.000311332 0.000332012 4.85081e-11 4.49167e-11 -1.29294e-11 5e-05 1.46608e-10 
216 1 0.0455489 0.0177337 0.0074062 0.00619293 -0.000392 0.000544383 7.69363e-11 4.96181e-10 -1.58075e-10 5e-05 1.46608e-10 
217 1 0.0514702 0.0165832 0.00764212 0.00553688 -0.00033652 0.000600153 -1.58475e-10 -7.27512e-12 1.39297e-10 5e-05 1.46608e-10 
218 1 0.0456644 0.0178629 0.00737355 0.00545375 -0.000176279 0.000424678 -4.03457e-10 2.23347e-10 -8.91191e-11 5e-05 1.46608e-10 
219 1 0.0517348 0.0186236 0.0068538 0.00563061 -0.000210827 0.00055389 -9.32172e-11 9.28348e-11 -5.72363e-11 5e-05 1.46608e-10 
220 1 0.0455025 0.0175472 0.0074615 0.00609514 -0.000363442 0.000526469 -3.47363e-11 -1.44012e-10 4.28853e-11 5e-05 1.46608e-10 
221 1 0.0394695 0.0169432 0.00737954 0.00551031 -0.000463355 8.23842e-05 -6.72523e-11 -8.09698e-12 2.81502e-11 5e-05 1.46608e-10 
222 1 0.0514912 0.0166747 0.00760748 0.0055841 -0.000340327 0.000598485 1.49223e-10 -1.0301e-10 1.65609e-10 5e-05 1.46608e-10 
223 1 0.0455823 0.0171471 0.00759226 0.00616141 -0.000308264 0.000514748 8.80316e-11 2.88264e-10 -1.2757e-10 5e-05 1.46608e-10 
224 1 0.0453885 0.0170806 0.00759999 0.00572181 -0.000306585 0.000487661 -5.84153e-11 -4.7199e-10 1.18026e-10 5e-05 1.46608e-10 
225 1 0.0518062 0.0177153 0.00722015 0.00538055 -0.00023436 0.000532672 3.7503e-10 3.68168e-11 3.38206e-11 5e-05 1.46608e-10 
226 1 0.0457788 0.0172075 0.00758666 0.00628345 -0.000352588 0.000535229 -2.0306e-10 5.37988e-11 -1.13342e-11 5e-05 1.46608e-10 
227 1 0.0395891 0.0170697 0.00733138 0.00557435 -0.000349694 0.000350194 1.52397e-11 7.69374e-12 -6.13376e-12 5e-05 1.46608e-10 
228 1 0.0395126 0.017559 0.00716032 0.00546692 -0.000312799 0.000333198 -2.3029e-11 -5.82274e-11 2.08107e-11 5e-05 1.46608e-10 
229 1 0.0453974 0.0169782 0.00772335 0.00576521 -0.000308641 0.000488907 -6.76716e-11 -4.42809e-10 9.0592e-11 5e-05 1.46608e-10 
230 1 0.0458205 0.0181784 0.00728528 0.00572346 -0.000279048 0.000476575 9.16514e-11 -2.62346e-10 2.11929e-10 5e-05 1.46608e-10 
231 1 0.0394737 0.017373 0.00722256 0.00544328 -0.000317304 0.0003337 -4.04513e-11 -9.49502e-11 3.09976e-11 5e-05 1.46608e-10 
232 1 0.0453515 0.0160693 0.00798709 0.00620845 -0.000196763 0.000819532 -6.81853e-11 -1.30804e-10 1.1285e-10 5e-05 1.46608e-10 
233 1 0.0454799 0.0166782 0.00773226 0.00590474 -0.000266174 0.000486206 2.62442e-10 -2.56972e-10 1.97746e-10 5e-05 1.46608e-10 
234 1 0.0518663 0.0184485 0.00693404 0.00554495 -0.000105032 0.000494553 -3.9421e-10 2.08333e-10 -1.04919e-10 5e-05 1.46608e-10 
235 1 0.0458626 0.0183683 0.00722862 0.00563573 -0.000251863 0.000462058 3.97732e-10 -9.21718e-10 3.44943e-10 5e-05 1.46608e-10 
236 1 0.0458408 0.0182724 0.00725718 0.00574158 -0.0003622 0.000502326 4.19668e-10 -4.89783e-10 2.33032e-10 5e-05 1.46608e-10 
237 1 0.0459304 0.0182321 0.00727588 0.00578508 -0.000360661 0.000503713 8.57458e-10 -4.12652e-10 1.74384e-10 5e-05 1.46608e-10 
239 1 0.039294 0.016566 0.00757319 0.00571577 -0.000475462 8.13338e-05 1.93219e-11 -1.81813e-11 9.49798e-12 5e-05 1.46608e-10 
240 1 0.0393552 0.0168279 0.00744038 0.00548663 -0.000428729 6.42168e-05 1.41104e-10 -4.84615e-11 2.74822e-11 5e-05 1.46608e-10 
241 1 0.0392736 0.0164787 0.00761745 0.0056949 -0.000480993 8.48559e-05 -5.45074e-11 1.88908e-11 -7.80328e-12 5e-05 1.46608e-10 
242 1 0.0455949 0.0168036 0.00770074 0.00583682 -0.000245829 0.000460729 2.32517e-10 -3.32122e-11 8.07074e-11 5e-05 1.46608e-10 
243 1 0.0453852 0.0166463 0.00773583 0.00591736 -0.000307153 0.000497017 2.26799e-10 -1.30158e-10 1.21247e-10 5e-05 1.46608e-10 
244 1 0.0393144 0.0166533 0.00752892 0.00573017 -0.000475529 8.09754e-05 3.72289e-11 -1.58556e-11 6.79341e-12 5e-05 1.46608e-10 
246 1 0.0394341 0.017187 0.00728472 0.00557666 -0.000341181 0.000347543 7.23613e-12 7.43287e-12 1.20893e-11 5e-05 1.46608e-10 