ITEM: TIMESTEP
14800000
ITEM: NUMBER OF ATOMS
287
ITEM: BOX BOUNDS ff ff ff
-0.02 0.43
-0.02 0.06
-0.02 0.07
ITEM: ATOMS id type x y z vx vy vz fx fy fz radius mass 
1 1 0.099138 0.0164406 0.00780095 0.00579281 7.40479e-05 -4.20137e-05 9.33535e-11 1.43018e-10 -1.27665e-10 5e-05 1.46608e-10 
2 1 0.0995843 0.0174751 0.0071667 0.00629203 0.000109528 -3.67164e-05 -7.32352e-11 3.26063e-11 -8.68252e-12 5e-05 1.46608e-10 
3 1 0.0928983 0.0158178 0.00822256 0.00560321 0.000316062 2.11903e-05 -3.24176e-11 -9.43973e-12 8.0985e-12 5e-05 1.46608e-10 
4 1 0.0994755 0.017792 0.00708864 0.00537513 6.4552e-05 -2.44278e-05 -2.55355e-12 -1.26554e-10 8.20489e-12 5e-05 1.46608e-10 
5 1 0.0990231 0.0163414 0.00788502 0.00557565 0.000209795 -0.000159024 -6.82362e-11 -1.08581e-10 8.76362e-11 5e-05 1.46608e-10 
6 1 0.105154 0.0168548 0.00754767 0.00594416 -0.000446851 -9.0231e-06 -9.16118e-11 -1.23441e-10 8.10016e-11 5e-05 1.46608e-10 
7 1 0.0992066 0.0170146 0.0073167 0.00633141 8.08667e-05 -4.37899e-05 -1.58079e-10 -6.30096e-11 6.5269e-11 5e-05 1.46608e-10 
8 1 0.098925 0.015968 0.00820277 0.00554162 0.000213431 -0.000162134 2.19177e-10 1.27024e-10 -1.14258e-10 5e-05 1.46608e-10 
9 1 0.105424 0.0179736 0.00700755 0.00567011 -0.000142386 -0.000313878 2.66491e-11 -2.57816e-11 4.02949e-11 5e-05 1.46608e-10 
10 1 0.0991439 0.016789 0.00750413 0.00615725 9.80519e-05 -6.27671e-05 4.53881e-12 -6.86746e-11 4.89726e-11 5e-05 1.46608e-10 
11 1 0.0996274 0.0176658 0.00711956 0.00601877 0.000667661 -0.000174045 -1.25896e-10 6.29902e-11 -1.62051e-11 5e-05 1.46608e-10 
12 1 0.0930996 0.0166463 0.00770238 0.00599342 -3.44757e-05 -0.000339574 -1.44752e-10 -1.18593e-11 -1.4409e-10 5e-05 1.46608e-10 
13 1 0.0990035 0.0162667 0.00794857 0.00554701 0.000212974 -0.000162765 -6.67454e-11 -2.8361e-10 2.32885e-10 5e-05 1.46608e-10 
14 1 0.0928216 0.0155528 0.00850183 0.00567886 -7.66411e-05 -0.000254469 -3.60998e-13 3.70113e-11 -2.63395e-11 5e-05 1.46608e-10 
15 1 0.0993462 0.0172225 0.00722942 0.00632596 7.57361e-05 -2.81917e-05 5.43154e-11 5.74921e-11 -2.36468e-11 5e-05 1.46608e-10 
16 1 0.0928028 0.0155037 0.0085869 0.00564386 -7.17289e-05 -0.000255701 -8.05689e-11 2.53565e-11 -4.23456e-11 5e-05 1.46608e-10 
17 1 0.0991236 0.0167144 0.00756759 0.0061 0.000105569 -6.93373e-05 7.37831e-11 -4.99913e-11 5.29523e-11 5e-05 1.46608e-10 
18 1 0.105301 0.0174249 0.0071691 0.00617752 -0.000413662 8.21532e-05 -6.93399e-11 1.8446e-10 1.71882e-10 5e-05 1.46608e-10 
19 1 0.0989839 0.016192 0.00801212 0.00555247 0.000226315 -0.000173472 -1.13652e-10 -8.78215e-11 6.53446e-11 5e-05 1.46608e-10 
21 1 0.099118 0.0163659 0.00786444 0.005626 0.000109614 -7.30572e-05 7.26371e-11 2.37764e-10 -2.03189e-10 5e-05 1.46608e-10 
22 1 0.0992479 0.0171901 0.00723762 0.00633459 7.21604e-05 -2.84587e-05 4.02985e-11 -2.11344e-11 -1.37962e-11 5e-05 1.46608e-10 
23 1 0.0932949 0.017003 0.00743369 0.0061607 7.51525e-05 -0.000318795 -2.90403e-10 1.72188e-10 -1.14666e-10 5e-05 1.46608e-10 
24 1 0.105362 0.0176813 0.00702773 0.00567365 -3.17097e-06 0.000538946 -7.70803e-11 8.11247e-11 -7.052e-11 5e-05 1.46608e-10 
25 1 0.0991853 0.0169385 0.00737795 0.00629314 8.4108e-05 -5.41532e-05 -1.006e-10 -5.55908e-11 8.34102e-11 5e-05 1.46608e-10 
26 1 0.105238 0.0171805 0.00733115 0.00605739 -0.000469436 -3.71964e-06 1.56834e-12 -4.73974e-10 2.79222e-10 5e-05 1.46608e-10 
27 1 0.0931832 0.0169602 0.00746902 0.00614585 7.99387e-06 -0.000269478 -6.02096e-11 7.79887e-11 -6.09861e-11 5e-05 1.46608e-10 
28 1 0.0994545 0.0176966 0.00711223 0.0062452 9.98256e-05 -3.5302e-05 -6.08455e-11 6.96315e-11 -1.85238e-11 5e-05 1.46608e-10 
29 1 0.0989643 0.0161174 0.00807567 0.00556699 0.000235598 -0.000180824 -3.13681e-11 2.95435e-10 -2.54054e-10 5e-05 1.46608e-10 
30 1 0.099485 0.0174414 0.00717517 0.00629786 9.33545e-05 -3.26841e-05 1.18937e-11 -5.68867e-12 4.34549e-12 5e-05 1.46608e-10 
31 1 0.0992262 0.0170953 0.007261 0.00633625 8.00711e-05 -3.31553e-05 -4.02464e-11 -7.36731e-11 4.40165e-11 5e-05 1.46608e-10 
32 1 0.0993245 0.0171295 0.00725924 0.00633705 7.10509e-05 -2.75657e-05 8.78336e-11 2.07393e-11 2.38269e-11 5e-05 1.46608e-10 
33 1 0.105175 0.0169362 0.00749354 0.00597698 -0.000459319 -2.32339e-06 -5.69797e-11 2.88727e-11 -8.44818e-12 5e-05 1.46608e-10 
34 1 0.0991032 0.0166398 0.00763103 0.00607114 0.000110319 -7.30883e-05 9.86601e-12 -5.415e-11 6.08663e-11 5e-05 1.46608e-10 
35 1 0.0993019 0.017038 0.00729254 0.00633878 7.14488e-05 -3.53233e-05 -6.27109e-11 -4.60102e-12 4.11359e-12 5e-05 1.46608e-10 
36 1 0.105465 0.0181693 0.00700291 0.00570148 -0.000150426 -0.000316335 1.66445e-10 2.13167e-10 -6.82392e-11 5e-05 1.46608e-10 
37 1 0.0992611 0.0168885 0.00741973 0.00625428 5.6774e-05 -2.62442e-05 6.09866e-11 8.43322e-12 -4.24806e-12 5e-05 1.46608e-10 
38 1 0.0994201 0.0171571 0.00724545 0.00633183 8.4665e-05 -3.04855e-05 5.88222e-11 1.55895e-11 -9.03716e-12 5e-05 1.46608e-10 
39 1 0.105382 0.017778 0.00701241 0.00566774 -0.00013338 -0.00026173 3.39513e-11 9.4677e-11 1.24104e-10 5e-05 1.46608e-10 
41 1 0.0990629 0.0164907 0.00775799 0.00587189 0.000150648 -0.000107259 -2.83639e-11 -4.076e-11 4.01621e-11 5e-05 1.46608e-10 
42 1 0.0992695 0.0172848 0.00721415 0.00631832 6.77887e-05 -2.58291e-05 2.53317e-11 3.50427e-11 -5.09329e-11 5e-05 1.46608e-10 
44 1 0.0994417 0.0172519 0.00722202 0.00632061 8.85327e-05 -3.16616e-05 1.26105e-10 4.27071e-11 -1.02036e-11 5e-05 1.46608e-10 
45 1 0.105196 0.0170177 0.00743941 0.00602699 -0.000468205 1.25957e-06 5.32248e-11 1.71331e-10 -8.87105e-11 5e-05 1.46608e-10 
46 1 0.10528 0.0173433 0.00722289 0.00615302 -0.000467747 -7.03912e-06 2.25889e-10 -3.75406e-11 7.76969e-11 5e-05 1.46608e-10 
47 1 0.0990828 0.0165653 0.00769448 0.00601096 0.000122882 -8.30916e-05 3.51008e-11 -3.95738e-11 2.97717e-11 5e-05 1.46608e-10 
48 1 0.0993127 0.0174744 0.00716729 0.0062805 6.89285e-05 -2.67022e-05 5.8469e-11 1.32184e-10 -3.69174e-11 5e-05 1.46608e-10 
49 1 0.105259 0.0172619 0.00727702 0.00614218 -0.000468984 -3.86105e-06 -1.56639e-10 -2.92713e-10 1.78584e-10 5e-05 1.46608e-10 
50 1 0.0993776 0.0177587 0.007097 0.00624477 8.99176e-05 -3.18435e-05 -1.895e-11 2.2065e-11 -1.8343e-11 5e-05 1.46608e-10 
51 1 0.099356 0.0176639 0.00712043 0.00625727 8.24399e-05 -2.91649e-05 5.57528e-11 7.92974e-11 -2.07711e-11 5e-05 1.46608e-10 
52 1 0.0930786 0.0165672 0.00775976 0.00596396 1.40019e-05 -0.000281474 1.76433e-11 5.63656e-12 1.15363e-11 5e-05 1.46608e-10 
53 1 0.105323 0.0175076 0.00711707 0.00623128 -0.000240483 0.00037554 -8.23765e-11 1.58588e-10 5.21903e-11 5e-05 1.46608e-10 
54 1 0.0990983 0.0162913 0.00792797 0.00550013 0.000142121 -0.00010114 2.68061e-10 1.87022e-10 -1.62447e-10 5e-05 1.46608e-10 
55 1 0.0928594 0.0156593 0.00833717 0.0056168 0.000232294 -7.24689e-05 1.20077e-11 6.32623e-11 -1.52084e-11 5e-05 1.46608e-10 
56 1 0.0992826 0.016963 0.00735632 0.00633461 8.50885e-05 -4.91167e-05 -1.38074e-10 -5.54088e-11 4.07666e-11 5e-05 1.46608e-10 
57 1 0.105217 0.0170991 0.00738528 0.0060366 -0.000475316 1.03748e-06 4.26798e-10 -1.82325e-10 1.0845e-10 5e-05 1.46608e-10 
59 1 0.0993371 0.0168392 0.00746205 0.00621416 2.23296e-05 3.20129e-06 1.72591e-10 3.21283e-11 -3.0983e-11 5e-05 1.46608e-10 
60 1 0.0993587 0.0169137 0.00739859 0.00632891 8.55877e-05 -5.0297e-05 6.70101e-11 1.33055e-10 -1.07945e-10 5e-05 1.46608e-10 
61 1 0.0990428 0.0164161 0.00782148 0.00568652 0.000187698 -0.00013932 1.26181e-11 1.43858e-11 -1.63336e-11 5e-05 1.46608e-10 
62 1 0.0994633 0.0173466 0.0071986 0.00630703 9.04898e-05 -3.19013e-05 1.12023e-10 2.33419e-11 -1.14523e-11 5e-05 1.46608e-10 
63 1 0.0994112 0.017507 0.0071591 0.00628273 8.24364e-05 -3.01014e-05 2.85894e-11 5.3053e-11 -1.03965e-11 5e-05 1.46608e-10 
64 1 0.105343 0.0175904 0.00706507 0.00612976 -6.73284e-05 0.000609789 -1.73524e-10 1.32819e-10 -7.56501e-11 5e-05 1.46608e-10 
65 1 0.0932087 0.0166829 0.00766559 0.00602962 -1.48125e-05 -0.000252198 -1.66395e-12 -7.00543e-11 1.01538e-10 5e-05 1.46608e-10 
66 1 0.0931436 0.0164423 0.00783995 0.00597326 6.11733e-05 -0.000308885 2.22211e-11 -1.27735e-10 1.29498e-11 5e-05 1.46608e-10 
67 1 0.0996061 0.01757 0.00714324 0.00627785 0.000140003 -4.42611e-05 -1.26225e-10 6.25575e-11 -1.44143e-11 5e-05 1.46608e-10 
68 1 0.0995282 0.017631 0.00712831 0.00625809 0.000114284 -3.84707e-05 -1.44503e-10 4.06259e-12 -4.62606e-12 5e-05 1.46608e-10 
69 1 0.0991992 0.0166647 0.00761023 0.00604744 7.26704e-05 -4.05089e-05 -5.99759e-11 -9.67161e-11 8.9984e-11 5e-05 1.46608e-10 
70 1 0.105403 0.0178758 0.00700987 0.00566687 -0.000141093 -0.000313584 1.73883e-10 4.34685e-11 3.0136e-11 5e-05 1.46608e-10 
71 1 0.0928412 0.0156019 0.00841698 0.00563868 2.59736e-05 -0.000210818 1.43149e-11 7.76007e-11 -1.002e-11 5e-05 1.46608e-10 
72 1 0.0995066 0.0175362 0.00715174 0.00628233 0.00010255 -3.51431e-05 -1.09858e-10 1.86406e-12 1.65521e-13 5e-05 1.46608e-10 
73 1 0.0991642 0.0168635 0.00744068 0.00621774 9.44643e-05 -5.91606e-05 -4.04315e-11 -6.96597e-11 7.2216e-11 5e-05 1.46608e-10 
74 1 0.0993678 0.0173173 0.00720599 0.00630985 7.85435e-05 -2.88396e-05 7.17603e-11 7.04625e-11 -1.89637e-11 5e-05 1.46608e-10 
76 1 0.0934277 0.0175108 0.00709653 0.00568176 0.000344537 8.52242e-05 3.06564e-10 -5.61989e-12 -1.14848e-10 5e-05 1.46608e-10 
77 1 0.099513 0.0184017 0.00693941 0.00586279 0.000163759 -3.61332e-05 3.41897e-11 -3.69853e-11 2.7804e-11 5e-05 1.46608e-10 
78 1 0.0929176 0.0159016 0.00817158 0.00560425 0.000314036 2.2829e-05 -4.05862e-11 -2.59483e-11 2.41202e-11 5e-05 1.46608e-10 
79 1 0.0931204 0.0167242 0.00764316 0.00604714 2.08849e-06 -0.000293598 -3.75435e-11 -2.45162e-11 -1.4882e-10 5e-05 1.46608e-10 
80 1 0.0994187 0.0179487 0.00705004 0.00552654 0.000249705 -5.76987e-05 6.03706e-11 -8.72869e-11 6.65844e-11 5e-05 1.46608e-10 
81 1 0.0930574 0.0164858 0.00781393 0.00595221 0.000168073 -5.89831e-05 7.87984e-12 -2.18266e-11 2.99705e-11 5e-05 1.46608e-10 
82 1 0.0932044 0.0170396 0.00741202 0.00612716 1.7624e-05 -0.000274786 -1.92146e-10 1.20818e-10 -1.179e-10 5e-05 1.46608e-10 
83 1 0.093242 0.0164544 0.00782706 0.0059514 0.000176778 -0.000381991 1.24478e-10 -8.45875e-11 9.92866e-11 5e-05 1.46608e-10 
84 1 0.105444 0.0180715 0.00700523 0.00568382 -0.000140751 -0.000316423 -2.31636e-10 4.3254e-12 5.32882e-11 5e-05 1.46608e-10 
85 1 0.0930178 0.0159367 0.00815373 0.00560156 0.000311513 2.37142e-05 6.51121e-11 4.83071e-12 -1.17447e-12 5e-05 1.46608e-10 
86 1 0.0994328 0.0176018 0.00713566 0.00626821 9.27529e-05 -3.23767e-05 2.00373e-11 6.67257e-11 -1.62864e-11 5e-05 1.46608e-10 
87 1 0.0993161 0.0167647 0.00752541 0.00614288 3.28373e-05 -5.46221e-06 1.15991e-10 -2.11515e-11 2.04729e-11 5e-05 1.46608e-10 
88 1 0.0994544 0.018122 0.00700727 0.00578868 0.000187853 -3.74957e-05 1.02371e-10 8.24887e-11 5.83739e-11 5e-05 1.46608e-10 
89 1 0.0994384 0.0180449 0.00706893 0.00570808 0.000209456 -2.98826e-05 -1.58423e-11 -1.43218e-10 1.0189e-10 5e-05 1.46608e-10 
90 1 0.0995627 0.0173803 0.00719013 0.00630824 9.61336e-05 -3.35053e-05 2.99132e-11 -7.62031e-11 1.93339e-11 5e-05 1.46608e-10 
91 1 0.0931413 0.0168027 0.00758491 0.00608739 1.57021e-05 -0.000270528 1.59759e-10 2.91231e-11 -7.66295e-11 5e-05 1.46608e-10 
92 1 0.0995905 0.0179183 0.00705729 0.00538756 0.000129374 -4.08342e-05 3.21187e-11 -1.24449e-11 4.21049e-11 5e-05 1.46608e-10 
93 1 0.0995499 0.0180932 0.00701435 0.00578874 0.000160212 -3.04512e-05 2.28121e-10 -1.0583e-10 3.12312e-11 5e-05 1.46608e-10 
94 1 0.0996378 0.01826 0.00697393 0.00582483 0.000160813 -3.46996e-05 1.77526e-10 -1.90999e-10 4.25504e-11 5e-05 1.46608e-10 
95 1 0.0995692 0.0179912 0.00712312 0.00568309 3.35236e-05 -5.12198e-05 1.78327e-10 -1.37789e-10 -1.37207e-11 5e-05 1.46608e-10 
96 1 0.0996077 0.0180139 0.00703366 0.00570153 9.27847e-05 -1.78932e-05 1.73637e-10 -2.47326e-10 1.09471e-11 5e-05 1.46608e-10 
97 1 0.0930158 0.0163197 0.00791717 0.0058357 0.00027819 6.00631e-05 1.33779e-10 -1.55246e-11 2.209e-11 5e-05 1.46608e-10 
98 1 0.099475 0.0182198 0.00700903 0.00581273 0.00017398 -3.17636e-05 7.16411e-11 1.67014e-11 -8.54796e-12 5e-05 1.46608e-10 
99 1 0.0931868 0.0166024 0.00772392 0.0060255 1.43043e-05 -0.000262898 -8.70382e-11 1.12498e-10 -5.08693e-11 5e-05 1.46608e-10 
100 1 0.0995194 0.0171907 0.00723699 0.00633673 0.000109926 -3.68794e-05 4.61834e-11 -9.20894e-11 2.39421e-11 5e-05 1.46608e-10 
101 1 0.0931211 0.01636 0.00789625 0.00594002 0.000258188 7.20716e-05 -3.07409e-11 1.46322e-11 -1.23357e-11 5e-05 1.46608e-10 
102 1 0.0643568 0.0187248 0.00531097 4.44104e-15 1.04548e-14 8.29567e-14 -1.30477e-21 3.30226e-22 2.99853e-23 5e-05 1.46608e-10 
103 1 0.24257 0.0191927 0.00520306 -1.01195e-22 -3.03968e-22 8.29106e-22 0 0 0 5e-05 1.46608e-10 
104 1 0.0935031 0.0174099 0.00715122 0.00639403 6.53432e-05 -0.000353109 2.13479e-10 4.12995e-10 4.80056e-10 5e-05 1.46608e-10 
105 1 0.0929759 0.0161523 0.00801894 0.00557908 0.000309731 2.53442e-05 4.02763e-11 2.81103e-11 -5.34758e-12 5e-05 1.46608e-10 
106 1 0.0935775 0.0173478 0.0071758 0.00639596 5.46626e-05 -0.000316532 1.5449e-10 9.8844e-12 -1.8412e-10 5e-05 1.46608e-10 
107 1 0.092937 0.0159854 0.00812054 0.00560638 0.000308963 2.58788e-05 -2.64437e-12 -4.62162e-11 2.36659e-11 5e-05 1.46608e-10 
108 1 0.0992401 0.0168141 0.00748309 0.00619012 7.13258e-05 -3.84723e-05 1.43776e-10 -1.43596e-11 -3.12415e-13 5e-05 1.46608e-10 
109 1 0.0993344 0.0175692 0.00714386 0.00626998 7.43008e-05 -2.79747e-05 7.24119e-11 1.33634e-10 -3.13535e-11 5e-05 1.46608e-10 
110 1 0.0996963 0.0183397 0.00695465 0.00584582 0.000184041 -3.88636e-05 1.26668e-10 -2.00812e-10 5.6962e-11 5e-05 1.46608e-10 
111 1 0.0995192 0.0184165 0.00703811 0.0058766 0.000244258 -4.69317e-05 -1.50857e-10 -2.32113e-11 4.74202e-11 5e-05 1.46608e-10 
112 1 0.0930361 0.0164033 0.00786623 0.00593065 0.000259043 7.19621e-05 -4.30553e-12 -3.50598e-11 -2.74292e-11 5e-05 1.46608e-10 
113 1 0.093861 0.0180612 0.00698726 0.00567396 0.00076868 -1.13835e-05 -3.82131e-10 -1.77063e-09 3.8319e-10 5e-05 1.46608e-10 
114 1 0.0934373 0.0171658 0.00731157 0.00629282 8.59079e-05 -0.000325377 -2.71978e-10 1.43542e-10 -1.22843e-10 5e-05 1.46608e-10 
115 1 0.0993895 0.0174121 0.00718254 0.00629177 7.71897e-05 -2.8743e-05 7.7883e-11 7.88523e-11 -1.95519e-11 5e-05 1.46608e-10 
116 1 0.0992197 0.0167395 0.00754654 0.00612217 7.98743e-05 -4.61038e-05 5.0872e-11 -5.41354e-12 1.48585e-11 5e-05 1.46608e-10 
117 1 0.0990787 0.0162166 0.00799152 0.00543391 0.000153494 -0.000111287 4.11319e-10 1.29622e-11 -1.10768e-11 5e-05 1.46608e-10 
118 1 0.0928803 0.0157338 0.00827375 0.00559883 0.000319075 2.00385e-05 -2.13712e-11 4.0876e-11 -1.37275e-11 5e-05 1.46608e-10 
119 1 0.0993777 0.0169885 0.00733497 0.00636238 8.33796e-05 -4.80932e-05 -2.73147e-12 1.19109e-10 -9.58311e-11 5e-05 1.46608e-10 
120 1 0.0989447 0.0160427 0.00813922 0.0055538 0.000224455 -0.00017077 1.46834e-10 3.92001e-10 -3.32213e-10 5e-05 1.46608e-10 
121 1 0.0989055 0.0158933 0.00826633 0.00551386 0.000211955 -0.000160944 -1.41611e-10 -2.39496e-11 2.29108e-11 5e-05 1.46608e-10 
122 1 0.0996355 0.0185398 0.00690601 0.00570724 0.000260295 -5.88832e-05 2.67022e-11 5.58366e-12 -7.41066e-12 5e-05 1.46608e-10 
123 1 0.0930586 0.016106 0.00805074 0.00559127 0.000323268 1.61336e-05 2.60154e-11 3.05473e-11 -1.09153e-11 5e-05 1.46608e-10 
124 1 0.0995121 0.0179832 0.00704138 0.00562195 8.14951e-05 -2.82364e-05 -9.13207e-12 -2.00818e-10 6.96909e-11 5e-05 1.46608e-10 
125 1 0.099059 0.0161419 0.00805507 0.00543079 0.000139891 -9.97409e-05 -4.73808e-10 1.75128e-11 -1.55158e-11 5e-05 1.46608e-10 
126 1 0.0992911 0.0173796 0.00719072 0.00629551 6.79815e-05 -2.64887e-05 2.93856e-11 9.00355e-11 -2.78987e-11 5e-05 1.46608e-10 
127 1 0.0929964 0.0162371 0.00797013 0.00565481 0.000303488 3.65893e-05 9.80284e-11 1.97971e-11 -2.56955e-11 5e-05 1.46608e-10 
128 1 0.0993983 0.0178537 0.00707352 0.00553697 0.000239299 -7.07262e-05 -1.98909e-10 3.12005e-11 5.55474e-11 5e-05 1.46608e-10 
129 1 0.0995245 0.0181664 0.00707756 0.00579933 0.000154109 -3.13462e-05 2.65161e-10 8.56114e-11 -5.72432e-11 5e-05 1.46608e-10 
130 1 0.0933159 0.0170824 0.0073762 0.00620022 5.50817e-05 -0.000306903 -1.54935e-10 3.24121e-11 -1.68593e-11 5e-05 1.46608e-10 
131 1 0.0931655 0.0165227 0.00778165 0.00600326 8.13918e-05 -0.000319151 1.66401e-10 -4.23515e-11 1.98295e-11 5e-05 1.46608e-10 
132 1 0.0994959 0.017887 0.00706515 0.00538955 6.71795e-05 -2.09608e-05 3.42772e-11 -6.5819e-11 -6.74756e-11 5e-05 1.46608e-10 
133 1 0.0992346 0.0164664 0.00777924 0.00588506 1.90453e-05 4.92319e-06 1.38881e-10 -2.17907e-10 1.82465e-10 5e-05 1.46608e-10 
134 1 0.0993982 0.0170631 0.00727153 0.00634314 7.11153e-05 -3.53823e-05 6.83038e-11 -1.68015e-11 2.62589e-11 5e-05 1.46608e-10 
135 1 0.0990394 0.0160673 0.00811862 0.00547273 0.000115493 -7.87374e-05 -8.43248e-10 9.40962e-12 -1.08198e-11 5e-05 1.46608e-10 
136 1 0.0929984 0.0158529 0.00820474 0.00559317 0.00030681 2.63936e-05 -1.45581e-11 4.30014e-11 -2.7539e-11 5e-05 1.46608e-10 
137 1 0.0995328 0.0184991 0.00692838 0.00555845 0.000205536 -0.000176901 -2.51985e-10 -1.07338e-10 -2.42898e-10 5e-05 1.46608e-10 
138 1 0.0991787 0.0165901 0.00767369 0.00603306 9.36705e-05 -5.85207e-05 1.16131e-10 -1.80053e-10 1.75793e-10 5e-05 1.46608e-10 
140 1 0.0996162 0.0184439 0.00692927 0.005573 0.000226642 -4.73068e-05 -1.77356e-10 -1.13623e-10 8.33488e-11 5e-05 1.46608e-10 
141 1 0.0930402 0.016022 0.00810191 0.00559862 0.000325742 1.50305e-05 8.7511e-11 -8.63469e-11 4.65752e-11 5e-05 1.46608e-10 
142 1 0.0934599 0.017245 0.0072549 0.00633778 7.47925e-05 -0.00031056 -1.7052e-10 2.03797e-10 -2.58841e-10 5e-05 1.46608e-10 
143 1 0.0929579 0.0160731 0.00807721 0.00559251 0.000309081 2.48495e-05 5.18119e-11 -2.97447e-11 2.02646e-11 5e-05 1.46608e-10 
144 1 0.0934155 0.0170868 0.00736887 0.00621701 0.000102797 -0.000339763 -1.67439e-10 4.28568e-11 -3.74819e-11 5e-05 1.46608e-10 
146 1 0.0932642 0.0165334 0.00776983 0.00598972 0.000178447 -0.000375479 2.49672e-10 -6.61389e-11 9.33515e-11 5e-05 1.46608e-10 
147 1 0.0929783 0.0157682 0.00825628 0.00558556 0.000300229 3.01017e-05 -3.25728e-11 2.67269e-11 -1.64904e-11 5e-05 1.46608e-10 
148 1 0.0932674 0.0172778 0.00724088 0.00634679 -3.20043e-05 -0.000293986 3.43644e-11 1.02096e-11 1.61985e-10 5e-05 1.46608e-10 
149 1 0.0995967 0.0183486 0.00695239 0.00585587 0.000171028 -3.42904e-05 6.68198e-11 -1.66137e-10 2.68628e-11 5e-05 1.46608e-10 
150 1 0.0933081 0.0166921 0.00765644 0.00603087 0.000186408 -0.000354059 -4.97725e-10 -5.88653e-13 -2.85386e-12 5e-05 1.46608e-10 
151 1 0.0936923 0.01746 0.00711509 0.00597736 0.000401713 8.49922e-05 -1.16924e-10 -2.96748e-10 -1.69114e-10 5e-05 1.46608e-10 
153 1 0.0931008 0.0162764 0.00794713 0.00583924 0.000276553 5.34294e-05 9.80306e-11 -1.16789e-10 5.54357e-11 5e-05 1.46608e-10 
154 1 0.0933821 0.0173265 0.00719935 0.00643357 5.4469e-07 -0.000274338 9.92712e-12 1.9023e-10 -5.53066e-11 5e-05 1.46608e-10 
155 1 0.0934456 0.0176106 0.00709368 0.00576108 0.000241952 -2.6141e-05 -2.88608e-10 -1.07183e-10 -1.94015e-10 5e-05 1.46608e-10 
156 1 0.09336 0.0172445 0.00725874 0.00636922 5.50617e-05 -0.000313423 2.14233e-10 -3.41541e-11 1.34717e-10 5e-05 1.46608e-10 
157 1 0.0219312 0.0187687 0.00551176 -3.83362e-14 8.16871e-14 2.95882e-13 9.5255e-23 -7.7057e-22 2.31817e-22 5e-05 1.46608e-10 
158 1 0.0934634 0.0174969 0.00719651 0.00580874 0.000111226 -0.000195878 -2.03859e-10 3.27194e-10 -3.05087e-10 5e-05 1.46608e-10 
159 1 0.0995495 0.0177267 0.00710465 0.00604034 0.000686556 -0.000178722 -8.84769e-11 1.47335e-10 -3.42839e-11 5e-05 1.46608e-10 
160 1 0.0933295 0.0175287 0.00708986 0.00566629 0.000327904 8.67004e-05 6.64565e-10 8.23308e-11 -7.04114e-11 5e-05 1.46608e-10 
162 1 0.0932883 0.0173577 0.00718459 0.00638981 -4.51698e-05 -0.000292961 -7.07327e-11 1.82218e-10 2.06347e-10 5e-05 1.46608e-10 
164 1 0.0935761 0.0179683 0.00699982 0.00591258 0.000268553 0.000101379 -1.62049e-10 -9.03582e-11 3.90123e-11 5e-05 1.46608e-10 
165 1 0.0937606 0.0177465 0.00705382 0.00608298 0.000360081 8.95716e-05 2.89905e-10 -1.35775e-10 3.03768e-11 5e-05 1.46608e-10 
166 1 0.0991946 0.0163172 0.00790627 0.00550238 -5.52332e-07 2.03467e-05 -3.17749e-10 -7.51144e-12 7.60188e-12 5e-05 1.46608e-10 
167 1 0.0932857 0.0166135 0.00771401 0.00599438 0.000196325 -0.000354381 3.16739e-11 -3.73077e-11 1.78585e-10 5e-05 1.46608e-10 
168 1 0.0935955 0.0174302 0.00711895 0.00639316 0.000707962 2.22167e-05 8.67192e-12 1.25553e-11 -1.15857e-10 5e-05 1.46608e-10 
169 1 0.0937665 0.0180289 0.00699175 0.0058332 0.000435205 6.54081e-05 -4.0215e-11 -8.52575e-10 1.74103e-10 5e-05 1.46608e-10 
170 1 0.09362 0.017527 0.00709829 0.00589913 0.000351074 8.04519e-05 -1.20775e-10 -1.81108e-10 7.61789e-11 5e-05 1.46608e-10 
171 1 0.0992147 0.0163918 0.00784277 0.00569239 -2.77134e-05 4.42293e-05 2.18961e-11 -7.05957e-11 6.31697e-11 5e-05 1.46608e-10 
172 1 0.0937382 0.0176512 0.0070742 0.00598782 0.000383553 8.17911e-05 -1.77297e-11 3.55849e-11 -8.79895e-12 5e-05 1.46608e-10 
173 1 0.0996762 0.0178681 0.00706954 0.0053003 -4.28052e-05 8.62419e-07 1.51953e-11 7.80753e-11 -8.58218e-12 5e-05 1.46608e-10 
174 1 0.0935433 0.0175929 0.00708165 0.00577491 0.000364517 6.05895e-05 -2.65229e-10 1.77674e-11 -6.8968e-11 5e-05 1.46608e-10 
175 1 0.087309 0.0174887 0.0072788 0.00600547 -0.000362112 0.000413441 1.32854e-12 3.10703e-12 -1.27849e-12 5e-05 1.46608e-10 
176 1 0.0933375 0.0171629 0.00731788 0.0062871 2.46085e-05 -0.000288862 -1.54736e-10 2.41718e-11 -9.90088e-12 5e-05 1.46608e-10 
177 1 0.0933698 0.0177203 0.00704877 0.0057636 0.000270376 9.96133e-05 -1.38155e-10 1.14424e-10 -2.70255e-11 5e-05 1.46608e-10 
178 1 0.0938412 0.0179645 0.00700803 0.00585919 0.000506695 5.13307e-05 -1.9829e-10 -3.08053e-10 6.03717e-11 5e-05 1.46608e-10 
179 1 0.0937464 0.0179329 0.00701237 0.00594277 0.00032037 9.41918e-05 -9.45962e-11 -1.49446e-10 2.15268e-11 5e-05 1.46608e-10 
181 1 0.0933127 0.0174417 0.00723318 0.0063442 -2.63738e-05 -0.000221116 -4.26828e-11 9.60305e-11 1.1296e-10 5e-05 1.46608e-10 
182 1 0.0991579 0.0165152 0.00773744 0.00592881 5.16863e-05 -2.28181e-05 1.51492e-10 -2.24773e-11 3.16116e-11 5e-05 1.46608e-10 
183 1 0.0935254 0.0175015 0.00711815 0.00586508 0.000296483 -9.8403e-05 -3.54271e-11 2.29383e-10 6.55088e-11 5e-05 1.46608e-10 
184 1 0.0995402 0.0178827 0.00715468 0.0054939 0.000557314 -5.4687e-05 -1.18036e-10 4.93656e-12 2.1782e-10 5e-05 1.46608e-10 
185 1 0.0932461 0.0171978 0.00729698 0.00625642 -1.67166e-06 -0.00027433 -7.79769e-11 -3.71702e-11 -1.82905e-11 5e-05 1.46608e-10 
186 1 0.0933253 0.0173529 0.00727734 0.00633583 -4.04144e-05 -0.000290253 4.1216e-11 -4.66481e-10 3.91358e-10 5e-05 1.46608e-10 
187 1 0.0994978 0.017096 0.00726042 0.00633712 9.68641e-05 -3.67877e-05 4.35384e-11 -5.98876e-11 1.27511e-11 5e-05 1.46608e-10 
188 1 0.0995687 0.0181897 0.00699093 0.0058078 0.000142885 -2.87301e-05 2.29169e-10 1.11686e-10 -7.4455e-11 5e-05 1.46608e-10 
189 1 0.0995411 0.0172855 0.00721356 0.00631729 0.000104296 -3.55072e-05 7.28936e-11 -1.11577e-10 2.80528e-11 5e-05 1.46608e-10 
190 1 0.0874303 0.0176133 0.00723348 0.00600551 -0.000363053 0.000413812 -2.23864e-12 -2.82211e-12 1.04448e-12 5e-05 1.46608e-10 
191 1 0.0995506 0.0185911 0.00689347 0.00568698 0.000232905 -5.27126e-05 -3.2607e-11 -2.24653e-11 3.21131e-11 5e-05 1.46608e-10 
192 1 0.0935342 0.0171887 0.00729107 0.0063506 4.71321e-05 -0.000313318 -7.8477e-11 2.80649e-10 -3.31633e-10 5e-05 1.46608e-10 
193 1 0.0992957 0.0166902 0.00758886 0.0060694 4.44465e-05 -1.61734e-05 -1.0278e-10 -2.39118e-11 2.76766e-11 5e-05 1.46608e-10 
194 1 0.0933518 0.0168497 0.00754134 0.00614129 0.000129685 -0.000355724 4.62805e-10 -2.64181e-11 2.83989e-11 5e-05 1.46608e-10 
195 1 0.093783 0.0178422 0.00703337 0.00608288 0.000376762 8.58478e-05 5.85168e-11 -4.05076e-11 3.82314e-12 5e-05 1.46608e-10 
196 1 0.0927841 0.0154546 0.00867197 0.00559345 -6.67442e-05 -0.000261187 -1.26783e-12 1.05776e-11 -2.12757e-11 5e-05 1.46608e-10 
197 1 0.0873742 0.0177609 0.00717099 0.00600692 -0.000362406 0.000413613 -2.13794e-13 -1.21061e-13 6.49921e-14 5e-05 1.46608e-10 
198 1 0.0931624 0.016881 0.00752639 0.00612509 4.50976e-06 -0.000265369 1.71788e-10 7.53075e-11 -4.1499e-11 5e-05 1.46608e-10 
199 1 0.0933096 0.0174409 0.00713323 0.0063508 -6.48496e-06 -0.000264567 1.65874e-10 2.25381e-10 -7.25395e-11 5e-05 1.46608e-10 
200 1 0.0932734 0.0169233 0.00749146 0.00616283 4.62751e-05 -0.000298398 -1.02114e-10 1.41101e-10 -9.54985e-11 5e-05 1.46608e-10 
201 1 0.0937184 0.0181143 0.00697161 0.00548791 0.000242337 9.91902e-05 -1.0032e-10 8.18423e-10 -1.89415e-10 5e-05 1.46608e-10 
202 1 0.093557 0.0172681 0.00723344 0.00631501 4.86466e-05 -0.000315112 4.40609e-11 1.35083e-10 -6.19219e-11 5e-05 1.46608e-10 
203 1 0.0997784 0.0182843 0.00696817 0.00584497 0.000192602 -4.12231e-05 2.95573e-10 -3.2203e-11 7.763e-12 5e-05 1.46608e-10 
204 1 0.0932523 0.0168435 0.00754928 0.00613909 -1.05881e-05 -0.00025701 2.17725e-10 -1.27534e-12 6.30146e-12 5e-05 1.46608e-10 
205 1 0.0935521 0.017857 0.00709686 0.00586346 0.000430753 8.76614e-05 1.4938e-10 -2.14026e-10 -1.21061e-10 5e-05 1.46608e-10 
206 1 0.0935679 0.0176877 0.00706144 0.005756 0.000377221 7.82379e-05 -8.32879e-12 -1.44919e-10 1.20892e-10 5e-05 1.46608e-10 
207 1 0.0930802 0.0161908 0.00799917 0.00555653 0.000183942 0.000102504 3.40729e-11 2.38353e-11 -2.55144e-12 5e-05 1.46608e-10 
208 1 0.0934037 0.0174079 0.0071404 0.00637253 5.29132e-05 -0.000310543 2.78371e-10 -4.06792e-11 1.68196e-10 5e-05 1.46608e-10 
209 1 0.0933303 0.0167703 0.00759811 0.00609723 0.00015273 -0.000365614 1.14354e-10 -6.36146e-11 1.44896e-11 5e-05 1.46608e-10 
210 1 0.099397 0.0177248 0.00718905 0.0062712 0.00011299 -2.85828e-05 -8.64854e-11 3.22215e-11 -2.28174e-11 5e-05 1.46608e-10 
211 1 0.0996503 0.0181337 0.00700462 0.00579674 0.000123767 -2.41998e-05 2.13788e-10 -1.40105e-10 3.98433e-12 5e-05 1.46608e-10 
212 1 0.0936425 0.0176223 0.00707792 0.00601199 0.000347271 8.95947e-05 1.87157e-10 -2.68031e-10 5.23858e-11 5e-05 1.46608e-10 
213 1 0.0994748 0.0170143 0.00731335 0.00636523 8.98052e-05 -5.0297e-05 4.72499e-11 -4.36393e-11 3.55917e-11 5e-05 1.46608e-10 
214 1 0.0996149 0.0180961 0.00709026 0.00577789 0.000162828 -1.83028e-05 1.13442e-10 4.47153e-11 5.62316e-11 5e-05 1.46608e-10 
215 1 0.0874077 0.0175216 0.00726978 0.00600686 -0.000360947 0.000413019 -8.00107e-12 -8.44764e-12 3.08276e-12 5e-05 1.46608e-10 
216 1 0.0933496 0.0176245 0.00706931 0.00573554 0.000290217 9.63897e-05 -7.82758e-12 2.70875e-10 -5.14176e-11 5e-05 1.46608e-10 
217 1 0.099255 0.016541 0.00771576 0.00597624 5.82149e-05 -2.81721e-05 4.01469e-10 -6.0158e-11 4.65118e-11 5e-05 1.46608e-10 
218 1 0.0934877 0.0177965 0.00703523 0.00581097 0.000322401 9.04954e-05 5.88853e-11 -1.99639e-10 1.90018e-11 5e-05 1.46608e-10 
219 1 0.0994937 0.0183037 0.00706247 0.00580306 0.0002461 -2.32652e-05 -6.12872e-11 -1.31657e-10 1.3378e-11 5e-05 1.46608e-10 
220 1 0.0933772 0.0176241 0.00716542 0.00572422 0.000249495 0.000103506 -1.28489e-10 1.66566e-10 -6.88654e-11 5e-05 1.46608e-10 
221 1 0.0872972 0.0170658 0.00745024 0.00600535 -0.00035823 0.000411848 -3.39358e-12 -2.93578e-12 1.04097e-12 5e-05 1.46608e-10 
222 1 0.0992755 0.0166156 0.00765232 0.0060165 5.13021e-05 -2.19362e-05 -6.15203e-11 -3.66366e-11 2.39003e-11 5e-05 1.46608e-10 
223 1 0.0934821 0.0173236 0.00719716 0.00637226 6.76459e-05 -0.000334501 3.33243e-10 2.55173e-10 -6.84593e-11 5e-05 1.46608e-10 
224 1 0.0932253 0.0171192 0.00735514 0.00615429 1.5039e-05 -0.000272985 -1.36876e-10 4.78979e-11 -8.05036e-11 5e-05 1.46608e-10 
225 1 0.0995705 0.0178223 0.00708102 0.00527199 0.000552184 -0.000138034 -2.94831e-10 -1.617e-10 1.49932e-10 5e-05 1.46608e-10 
226 1 0.0937157 0.017556 0.00709458 0.00589998 0.00040064 7.47321e-05 -4.78065e-10 1.70489e-10 -7.47785e-11 5e-05 1.46608e-10 
227 1 0.0873625 0.0173381 0.0073424 0.00600257 -0.000364593 0.00041431 8.42351e-12 1.15446e-11 -4.2908e-12 5e-05 1.46608e-10 
228 1 0.0873307 0.0175794 0.00724286 0.00600594 -0.000361974 0.0004134 -8.66424e-13 -1.07097e-13 4.87215e-14 5e-05 1.46608e-10 
229 1 0.093366 0.017514 0.00718179 0.00582316 0.000208005 -2.73864e-05 -1.9804e-10 -8.6417e-11 2.20585e-10 5e-05 1.46608e-10 
230 1 0.0936434 0.0181784 0.00695539 0.00556657 0.000271206 9.64846e-05 -3.89249e-10 -1.63623e-11 -6.13288e-12 5e-05 1.46608e-10 
231 1 0.0872873 0.0173979 0.00731474 0.0060043 -0.000362702 0.000413616 7.40364e-13 2.94518e-12 -1.12919e-12 5e-05 1.46608e-10 
232 1 0.0932196 0.0163755 0.00788426 0.00584151 0.000192559 -0.000393111 2.38306e-10 -1.4815e-10 8.00032e-11 5e-05 1.46608e-10 
233 1 0.0933729 0.0169285 0.00748348 0.0061472 0.000113367 -0.000346793 -4.56199e-11 2.49238e-11 -4.62448e-11 5e-05 1.46608e-10 
234 1 0.099493 0.0183065 0.00696251 0.00584313 0.000173372 -2.97889e-05 3.76857e-11 1.14672e-12 1.9027e-11 5e-05 1.46608e-10 
235 1 0.0936091 0.0184374 0.00689736 0.00572004 0.000285214 9.59432e-05 -1.30129e-10 1.42087e-10 -4.17578e-11 5e-05 1.46608e-10 
236 1 0.0936628 0.0182746 0.00693473 0.0055432 0.000665292 7.55094e-06 -1.96172e-10 1.2276e-10 -3.8962e-11 5e-05 1.46608e-10 
237 1 0.0937573 0.0183072 0.00693016 0.005687 0.000228096 0.000107875 -4.95609e-10 3.88753e-10 -1.00711e-10 5e-05 1.46608e-10 
239 1 0.0870917 0.0165811 0.00763819 0.00599921 -0.000363447 0.000413705 1.15785e-12 3.46514e-13 -8.17965e-14 5e-05 1.46608e-10 
240 1 0.0871569 0.0168534 0.00753038 0.00600148 -0.000361403 0.000412989 2.55755e-12 5.82873e-12 -2.66083e-12 5e-05 1.46608e-10 
241 1 0.0870712 0.0164901 0.00767428 0.00552181 -0.000278395 0.000357954 -2.46891e-13 4.57076e-13 -1.91339e-13 5e-05 1.46608e-10 
242 1 0.0934898 0.0170308 0.00740552 0.0061776 6.40254e-05 -0.000311849 -7.96234e-11 9.34888e-11 -4.63138e-11 5e-05 1.46608e-10 
243 1 0.0932309 0.016764 0.00760688 0.00609357 -1.48276e-05 -0.000250924 1.80197e-10 -3.18624e-10 2.27829e-10 5e-05 1.46608e-10 
244 1 0.0871134 0.0166719 0.00760226 0.00599993 -0.000362942 0.00041353 1.19013e-12 2.15208e-12 -1.0104e-12 5e-05 1.46608e-10 
246 1 0.0872438 0.0172164 0.00738662 0.00600356 -0.000361334 0.00041302 -3.33084e-13 -9.45437e-13 4.26984e-13 5e-05 1.46608e-10 