ITEM: TIMESTEP
9200000
ITEM: NUMBER OF ATOMS
287
ITEM: BOX BOUNDS ff ff ff
-0.02 0.43
-0.02 0.06
-0.02 0.07
ITEM: ATOMS id type x y z vx vy vz fx fy fz radius mass 
1 1 0.0664934 0.0164371 0.00786175 0.00557248 -0.000500276 0.000232096 1.74278e-11 1.07458e-10 -8.0818e-11 5e-05 1.46608e-10 
2 1 0.0668981 0.0173704 0.00719692 0.00554377 -0.000554935 0.000232291 2.87748e-10 -1.762e-10 1.04431e-10 5e-05 1.46608e-10 
3 1 0.0602564 0.0160325 0.0083994 0.00585578 -0.000436828 -0.000291362 3.30543e-11 2.50313e-10 -1.96929e-10 5e-05 1.46608e-10 
4 1 0.0668015 0.0177599 0.00706843 0.00555641 -0.000567626 0.000224095 -1.66313e-11 5.37306e-11 1.33021e-11 5e-05 1.46608e-10 
5 1 0.0663764 0.016332 0.00793708 0.00589038 -0.000588427 0.000287202 6.73364e-11 4.43698e-11 -3.61706e-11 5e-05 1.46608e-10 
6 1 0.0724089 0.016447 0.00784071 0.0056423 -4.01052e-05 2.171e-05 -1.95225e-12 1.56876e-11 -1.22508e-11 5e-05 1.46608e-10 
7 1 0.0665563 0.0170532 0.00742976 0.00532886 -0.000493361 0.000189713 1.96964e-10 -1.40208e-10 8.16065e-11 5e-05 1.46608e-10 
8 1 0.0662695 0.0159318 0.00821708 0.00600892 -0.000602308 0.000294306 -1.33229e-11 -4.39915e-11 3.09816e-11 5e-05 1.46608e-10 
9 1 0.0726546 0.0175014 0.00722906 0.00554877 -5.72629e-06 9.70176e-06 -1.51187e-11 4.78336e-12 1.5009e-12 5e-05 1.46608e-10 
10 1 0.0664993 0.0168127 0.00759971 0.00547329 -0.000515165 0.000201687 -8.98286e-11 -8.80894e-11 7.68315e-11 5e-05 1.46608e-10 
11 1 0.0669342 0.0175319 0.00708254 0.00558633 -0.000552278 0.00022719 3.12698e-11 2.08436e-11 -1.53648e-12 5e-05 1.46608e-10 
12 1 0.060473 0.0167396 0.00772942 0.00574116 -0.000783624 -0.000415921 -2.80242e-11 2.23391e-10 5.32658e-10 5e-05 1.46608e-10 
13 1 0.066355 0.016252 0.00799308 0.00591452 -0.000594908 0.000290988 7.5132e-12 1.64646e-11 -1.25083e-11 5e-05 1.46608e-10 
14 1 0.0601696 0.0157497 0.0086686 0.00588584 -0.000418538 -0.000308011 2.61511e-11 1.54185e-10 -1.48236e-10 5e-05 1.46608e-10 
15 1 0.0666894 0.0172393 0.00729481 0.00540378 -0.000525622 0.000215732 5.134e-13 5.64282e-12 -1.97593e-11 5e-05 1.46608e-10 
16 1 0.0601479 0.015679 0.0087359 0.00589399 -0.000417246 -0.000310021 2.25831e-11 5.98769e-11 -4.5895e-11 5e-05 1.46608e-10 
17 1 0.0664793 0.0167328 0.00765638 0.00560069 -0.000534423 0.000227124 -5.5696e-11 -1.1269e-10 8.69722e-11 5e-05 1.46608e-10 
18 1 0.0725441 0.0169753 0.00740214 0.00566327 -2.76952e-05 1.26549e-05 -3.36561e-11 4.50355e-11 -4.19466e-11 5e-05 1.46608e-10 
19 1 0.0663337 0.016172 0.00804908 0.00593892 -0.000598221 0.000292787 -7.155e-12 -1.74668e-11 1.14069e-11 5e-05 1.46608e-10 
21 1 0.0664726 0.0163569 0.00791788 0.00587583 -0.000577947 0.000280056 1.51497e-10 9.36074e-11 -7.10062e-11 5e-05 1.46608e-10 
22 1 0.0665937 0.0172133 0.00731579 0.00540609 -0.000515312 0.000206169 1.37162e-11 -4.67787e-11 2.11698e-11 5e-05 1.46608e-10 
23 1 0.0606439 0.0170436 0.00743026 0.00529628 -0.00046628 -0.000190881 3.36373e-11 1.15378e-10 6.00877e-11 5e-05 1.46608e-10 
24 1 0.072599 0.0172067 0.00722106 0.00562423 -2.47398e-05 9.6539e-06 -1.77624e-11 3.99632e-11 -1.27232e-12 5e-05 1.46608e-10 
25 1 0.0665375 0.0169728 0.00748615 0.00531717 -0.000493032 0.000186531 2.16874e-11 -7.13212e-11 7.33292e-11 5e-05 1.46608e-10 
26 1 0.0724881 0.0167486 0.00759028 0.00554537 -3.92974e-06 -5.18577e-06 7.28777e-12 7.09715e-11 -5.94001e-11 5e-05 1.46608e-10 
27 1 0.0605502 0.0170246 0.00745961 0.00531931 -0.000406524 -0.000111361 -1.69308e-10 -1.27875e-10 7.93619e-11 5e-05 1.46608e-10 
28 1 0.0667828 0.0176617 0.00706901 0.00558948 -0.000547686 0.000226539 -1.47671e-11 4.40272e-11 -3.58493e-11 5e-05 1.46608e-10 
29 1 0.0663123 0.0160919 0.00810508 0.00596161 -0.000599695 0.000293385 -1.25606e-11 -3.81365e-11 2.74238e-11 5e-05 1.46608e-10 
30 1 0.0668196 0.0174246 0.00716109 0.00559423 -0.000560491 0.000216172 -6.79811e-11 9.97365e-11 3.75249e-11 5e-05 1.46608e-10 
31 1 0.0665749 0.0171331 0.00737257 0.00536982 -0.000501134 0.000199046 1.17484e-10 -1.24925e-10 8.21837e-11 5e-05 1.46608e-10 
32 1 0.0666696 0.017159 0.00735173 0.00539926 -0.000517784 0.000210213 -2.30268e-12 -4.13139e-11 2.65306e-11 5e-05 1.46608e-10 
33 1 0.0724288 0.0165224 0.00777811 0.00568789 -4.17052e-05 2.41329e-05 -2.14904e-10 8.52339e-11 -8.3467e-11 5e-05 1.46608e-10 
34 1 0.0664595 0.0166527 0.00771281 0.00559235 -0.000521883 0.000245079 -1.36914e-10 -6.98065e-11 5.38889e-11 5e-05 1.46608e-10 
35 1 0.0666507 0.0170787 0.00740861 0.00534551 -0.000506107 0.000203098 5.97242e-11 -1.70128e-10 1.2289e-10 5e-05 1.46608e-10 
36 1 0.0726926 0.0176976 0.00723438 0.00576726 -4.11559e-05 9.05619e-06 -1.06552e-12 -1.02558e-11 -6.06414e-14 5e-05 1.46608e-10 
37 1 0.066613 0.0169182 0.00752232 0.00529828 -0.000500668 0.000202268 2.76403e-11 -1.64309e-11 -2.05959e-11 5e-05 1.46608e-10 
38 1 0.0667648 0.017184 0.0073315 0.00537256 -0.000509305 0.000205087 -4.99791e-11 6.55222e-11 -1.89115e-11 5e-05 1.46608e-10 
39 1 0.0726177 0.0173049 0.00722373 0.00558929 -1.78254e-05 9.5777e-06 -6.63914e-11 4.40436e-11 1.58168e-12 5e-05 1.46608e-10 
41 1 0.0664185 0.0164922 0.00782501 0.00555546 -0.000517341 0.000244242 8.12749e-11 6.04094e-11 -2.05493e-11 5e-05 1.46608e-10 
42 1 0.0666132 0.017294 0.00726006 0.00542261 -0.000516548 0.000207297 -2.46286e-11 -1.90986e-12 1.12691e-11 5e-05 1.46608e-10 
44 1 0.0667848 0.0172639 0.00727485 0.00542959 -0.000524331 0.000213487 -4.13437e-11 4.66236e-11 -4.5374e-11 5e-05 1.46608e-10 
45 1 0.0724486 0.0165978 0.0077155 0.00570525 -3.88107e-05 2.19811e-05 -7.187e-11 -1.17484e-11 -3.34529e-11 5e-05 1.46608e-10 
46 1 0.0725299 0.0168991 0.00746536 0.00564009 -2.48921e-05 1.0147e-05 -2.6809e-11 5.90139e-11 -5.00691e-11 5e-05 1.46608e-10 
47 1 0.0664391 0.0165725 0.00776894 0.00556442 -0.000517523 0.000243777 3.0967e-11 -3.29804e-11 4.25792e-11 5e-05 1.46608e-10 
48 1 0.0666499 0.0174537 0.00714548 0.00557447 -0.00054015 0.000227402 6.54507e-11 -2.2485e-11 -8.43045e-11 5e-05 1.46608e-10 
49 1 0.0725073 0.0168242 0.00752759 0.00558033 -1.31387e-05 3.42318e-07 -5.84181e-11 6.69127e-11 -5.97365e-11 5e-05 1.46608e-10 
50 1 0.066707 0.0177275 0.00706516 0.00554974 -0.000542582 0.000223957 -4.50915e-11 5.97588e-11 -9.65753e-12 5e-05 1.46608e-10 
51 1 0.0666882 0.0176292 0.00706573 0.00558265 -0.000540976 0.000225262 -2.69368e-11 1.13823e-11 -2.23326e-11 5e-05 1.46608e-10 
52 1 0.0604513 0.0166692 0.00779701 0.00575083 -0.000787264 -0.000444337 -1.96146e-10 -3.30381e-11 2.85069e-10 5e-05 1.46608e-10 
53 1 0.0725632 0.0170508 0.00733946 0.00565707 -2.82916e-05 1.2252e-05 -1.31621e-10 6.56908e-11 -6.14779e-11 5e-05 1.46608e-10 
54 1 0.0664507 0.0162763 0.00797425 0.00590615 -0.000575884 0.000278073 4.29502e-11 -4.97567e-11 3.33347e-11 5e-05 1.46608e-10 
55 1 0.060213 0.0158911 0.00853401 0.00586865 -0.00042442 -0.000299071 7.44718e-11 2.68102e-10 -2.44812e-10 5e-05 1.46608e-10 
56 1 0.0666319 0.0169984 0.00746549 0.00531638 -0.000493373 0.000193464 1.63101e-10 -9.72446e-11 5.83641e-11 5e-05 1.46608e-10 
57 1 0.072469 0.0166731 0.00765297 0.00561012 -1.88238e-05 6.02289e-06 -1.22568e-10 8.82533e-11 -8.80126e-11 5e-05 1.46608e-10 
59 1 0.0666887 0.0168636 0.0075585 0.00531539 -0.000492034 0.000194889 -9.65951e-11 9.37045e-11 -7.48586e-11 5e-05 1.46608e-10 
60 1 0.0667075 0.0169437 0.00750173 0.00529826 -0.000493707 0.000197205 1.96305e-11 1.12437e-11 -1.12801e-11 5e-05 1.46608e-10 
61 1 0.0663978 0.0164121 0.00788108 0.00587187 -0.000580516 0.000281509 2.19379e-11 4.95296e-11 -3.92175e-11 5e-05 1.46608e-10 
62 1 0.066804 0.017344 0.00721811 0.00553789 -0.00054549 0.000222655 -9.73359e-12 4.92303e-11 -5.4994e-11 5e-05 1.46608e-10 
63 1 0.0667454 0.0174805 0.00712404 0.00559213 -0.000552971 0.00021969 -6.87082e-11 3.56347e-12 -1.29198e-10 5e-05 1.46608e-10 
64 1 0.0725901 0.0171249 0.00727793 0.00564621 -2.63777e-05 1.08732e-05 -5.36872e-11 4.81307e-11 -3.50086e-11 5e-05 1.46608e-10 
65 1 0.0605699 0.0167569 0.00769917 0.00563087 -0.000533358 -0.000168157 1.91366e-10 6.26716e-11 -4.40909e-11 5e-05 1.46608e-10 
66 1 0.0605053 0.0165446 0.00790115 0.00580996 -0.000509208 -0.000207871 7.54428e-11 -2.34724e-10 1.41315e-10 5e-05 1.46608e-10 
67 1 0.066917 0.0174505 0.00714016 0.00558303 -0.000558847 0.000232457 -3.06569e-11 -7.90664e-11 6.94873e-11 5e-05 1.46608e-10 
68 1 0.0668594 0.0175976 0.00707286 0.00558189 -0.000558167 0.000225507 4.92311e-11 7.69232e-11 6.54087e-12 5e-05 1.46608e-10 
69 1 0.0665544 0.0166777 0.00769276 0.00558484 -0.000537106 0.000226676 2.83876e-12 -7.13995e-11 5.78514e-11 5e-05 1.46608e-10 
70 1 0.0726361 0.0174031 0.00722639 0.00556068 -1.10123e-05 9.76642e-06 -2.13366e-11 2.17804e-11 2.06097e-12 5e-05 1.46608e-10 
71 1 0.0601929 0.01582 0.00860145 0.00587532 -0.000420238 -0.000304509 3.13508e-12 2.52078e-10 -2.15568e-10 5e-05 1.46608e-10 
72 1 0.0668407 0.0175048 0.00710508 0.00558741 -0.000563024 0.000217389 -3.76984e-12 9.72435e-11 6.92504e-11 5e-05 1.46608e-10 
73 1 0.0665185 0.0168927 0.00754288 0.00533241 -0.000489587 0.000190814 -1.2448e-10 -8.03388e-11 5.87862e-11 5e-05 1.46608e-10 
74 1 0.0667074 0.0173197 0.00723793 0.00543624 -0.00056933 0.000253747 -1.62074e-11 -1.32403e-10 -8.17658e-11 5e-05 1.46608e-10 
76 1 0.0607739 0.0176359 0.00717566 0.0055454 -0.00010914 0.000191293 -1.9905e-10 5.41723e-10 2.33427e-10 5e-05 1.46608e-10 
77 1 0.0669489 0.0184444 0.00706508 0.00590703 -0.000561339 0.000239062 3.55103e-11 3.39009e-11 1.11193e-12 5e-05 1.46608e-10 
78 1 0.0602781 0.0161032 0.0083321 0.00583644 -0.000441892 -0.000291013 -1.51842e-11 2.1607e-10 -1.46656e-10 5e-05 1.46608e-10 
79 1 0.0604941 0.0168103 0.00766186 0.00559723 -0.000743168 -0.000406378 -6.26244e-11 2.35059e-10 4.64594e-10 5e-05 1.46608e-10 
80 1 0.0667649 0.0180218 0.0070635 0.00589581 -0.000644436 0.000239756 -3.45126e-12 -4.3088e-10 5.22803e-12 5e-05 1.46608e-10 
81 1 0.0604296 0.0165985 0.00786428 0.00575505 -0.000787086 -0.000473422 -3.99328e-11 -3.41916e-10 -4.17621e-11 5e-05 1.46608e-10 
82 1 0.0605672 0.0170949 0.00739061 0.00543393 -0.000235259 0.000106126 -1.97848e-10 -5.53699e-11 1.05473e-10 5e-05 1.46608e-10 
83 1 0.0605606 0.0164217 0.00800725 0.00581044 -0.000503379 -0.000225313 -3.04687e-10 -9.96643e-11 1.57162e-10 5e-05 1.46608e-10 
84 1 0.0726733 0.0175995 0.00723172 0.00555496 -3.2164e-06 9.92403e-06 -5.91977e-11 2.57746e-12 1.76393e-12 5e-05 1.46608e-10 
85 1 0.0603739 0.0161202 0.00830524 0.00582159 -0.000444811 -0.000273992 1.03911e-10 1.94629e-10 -1.54403e-10 5e-05 1.46608e-10 
86 1 0.0667626 0.0175625 0.00706954 0.00558614 -0.000547521 0.000227351 -5.51145e-11 9.00256e-11 2.2762e-11 5e-05 1.46608e-10 
87 1 0.0666698 0.0167835 0.00761527 0.0054027 -0.000503668 0.000199963 2.45758e-11 1.04625e-10 -6.88639e-11 5e-05 1.46608e-10 
88 1 0.0668301 0.0183148 0.00706215 0.00590736 -0.000562643 0.00023922 -9.39102e-12 -3.7722e-12 3.30621e-13 5e-05 1.46608e-10 
89 1 0.0667866 0.0181196 0.00706305 0.00590781 -0.000571879 0.000239236 3.30099e-12 3.25463e-11 -2.20508e-13 5e-05 1.46608e-10 
90 1 0.0668801 0.0172899 0.0072539 0.00553715 -0.000546891 0.00022645 -6.55443e-11 1.42248e-10 -5.9713e-11 5e-05 1.46608e-10 
91 1 0.0605135 0.0168817 0.00759462 0.00535701 -0.000672564 -0.000395712 1.10667e-10 -1.40514e-11 3.15968e-10 5e-05 1.46608e-10 
92 1 0.0668976 0.0177939 0.00707174 0.00564293 -0.000566958 0.00022806 7.17319e-11 9.38429e-11 -9.65863e-12 5e-05 1.46608e-10 
93 1 0.0668837 0.0181516 0.00706643 0.00590088 -0.000562697 0.000238872 -4.87867e-11 -2.0314e-11 -1.82687e-12 5e-05 1.46608e-10 
94 1 0.0669602 0.0180873 0.00707028 0.00586551 -0.000602632 0.000237999 4.11528e-11 6.02484e-11 3.3667e-13 5e-05 1.46608e-10 
95 1 0.0667446 0.0179239 0.00706401 0.00542033 -0.000579683 0.000229441 1.72387e-09 -1.05596e-09 1.74582e-10 5e-05 1.46608e-10 
96 1 0.0669176 0.0178918 0.00707122 0.00569691 -0.000573213 0.000230914 1.35587e-10 6.1901e-11 4.27408e-12 5e-05 1.46608e-10 
97 1 0.0603862 0.0164563 0.00799807 0.00579495 -0.000617422 -0.000365107 -9.52467e-11 -7.31497e-11 1.7657e-10 5e-05 1.46608e-10 
98 1 0.0668518 0.0184124 0.0070617 0.00590822 -0.000563055 0.000239169 7.36396e-12 2.12036e-11 2.6862e-13 5e-05 1.46608e-10 
99 1 0.0605488 0.016686 0.00776653 0.00577719 -0.000547245 -0.000183172 -1.86508e-10 -2.60663e-10 2.80943e-10 5e-05 1.46608e-10 
100 1 0.0668409 0.0171299 0.00736729 0.00535847 -0.000517925 0.000211288 -1.41898e-10 1.03016e-10 -8.93457e-11 5e-05 1.46608e-10 
101 1 0.0604848 0.0164753 0.00797027 0.00578665 -0.000676177 -0.000398008 -3.36471e-10 -4.91436e-11 2.69085e-10 5e-05 1.46608e-10 
102 1 0.0643568 0.0187248 0.00531097 4.16048e-15 1.05407e-14 8.29602e-14 -3.31821e-21 4.21578e-22 1.06086e-22 5e-05 1.46608e-10 
103 1 0.24257 0.0191927 0.00520306 5.30818e-23 -3.03968e-22 -5.81428e-22 0 0 0 5e-05 1.46608e-10 
104 1 0.0607882 0.0173028 0.00723503 0.00557719 -0.000125429 0.000284593 -2.59833e-10 5.19688e-10 -8.23889e-11 5e-05 1.46608e-10 
105 1 0.0603443 0.0163244 0.00814178 0.00583294 -0.000477707 -0.000277974 -1.85944e-10 -7.09112e-11 -1.10417e-10 5e-05 1.46608e-10 
106 1 0.0608615 0.017233 0.00723351 0.00557367 -0.00014771 0.000256756 2.72507e-10 4.30632e-10 1.31519e-10 5e-05 1.46608e-10 
107 1 0.0602999 0.0161739 0.00826481 0.00582496 -0.000446274 -0.000282695 1.02836e-11 1.08455e-10 -1.2538e-10 5e-05 1.46608e-10 
108 1 0.066594 0.0168381 0.00757907 0.00531733 -0.000508469 0.000206135 -5.80296e-11 -5.76339e-11 4.05374e-11 5e-05 1.46608e-10 
109 1 0.0666686 0.0175339 0.00708878 0.00559145 -0.000541732 0.00022715 -2.82822e-11 -4.43594e-11 -1.7783e-10 5e-05 1.46608e-10 
110 1 0.067014 0.0179237 0.00707458 0.0057711 -0.00058666 0.000234079 8.29951e-11 -4.20624e-11 1.6257e-12 5e-05 1.46608e-10 
111 1 0.0668953 0.0186076 0.0070608 0.00590581 -0.000571126 0.000239149 9.50989e-12 2.72354e-11 -9.42125e-14 5e-05 1.46608e-10 
112 1 0.0604088 0.0165273 0.00793137 0.0057707 -0.000722971 -0.000440035 -8.8113e-11 -2.75703e-10 -9.85001e-11 5e-05 1.46608e-10 
113 1 0.061168 0.0177762 0.00718202 0.00576755 -0.000298843 -0.00022781 -3.31089e-10 -7.43024e-11 -9.64895e-11 5e-05 1.46608e-10 
114 1 0.0607378 0.0170648 0.00740344 0.00533892 -0.000410115 -1.20891e-05 1.23658e-10 -1.48528e-10 -9.36722e-11 5e-05 1.46608e-10 
115 1 0.0667256 0.0174048 0.00718879 0.0055825 -0.000697307 6.51545e-05 5.23613e-11 3.02461e-11 1.69739e-10 5e-05 1.46608e-10 
116 1 0.0665748 0.016758 0.00763582 0.00564207 -0.00035094 8.52466e-05 1.171e-11 2.135e-11 5.44351e-12 5e-05 1.46608e-10 
117 1 0.0664293 0.0161963 0.00803025 0.00593322 -0.000580648 0.000280804 -2.84443e-11 -3.83229e-11 2.66522e-11 5e-05 1.46608e-10 
118 1 0.0602347 0.0159618 0.00846671 0.00586204 -0.00042991 -0.000294933 2.95159e-11 2.7363e-10 -2.59347e-10 5e-05 1.46608e-10 
119 1 0.0667264 0.0170238 0.00744497 0.0053156 -0.000496721 0.000198112 8.87187e-11 -6.21326e-12 3.64721e-12 5e-05 1.46608e-10 
120 1 0.0662909 0.0160119 0.00816108 0.00598474 -0.000600746 0.000293729 -1.10754e-11 -4.53441e-11 3.17257e-11 5e-05 1.46608e-10 
121 1 0.0662481 0.0158518 0.00827308 0.00603253 -0.000604829 0.000295555 -9.94887e-12 -4.09169e-11 2.82599e-11 5e-05 1.46608e-10 
122 1 0.0670359 0.0180213 0.00707413 0.00581356 -0.000587295 0.000235711 -8.3835e-11 -4.09146e-11 -2.67242e-12 5e-05 1.46608e-10 
123 1 0.0604168 0.0162618 0.00817059 0.00585646 -0.000453089 -0.000272593 -8.17582e-11 8.29944e-11 1.93337e-11 5e-05 1.46608e-10 
124 1 0.0668407 0.0179561 0.00706735 0.00571855 -0.000604304 0.000232341 -2.17599e-10 9.22029e-11 -9.10621e-12 5e-05 1.46608e-10 
125 1 0.0664079 0.0161162 0.00808625 0.00595661 -0.000585688 0.00028381 -2.00614e-11 -3.82166e-11 2.71775e-11 5e-05 1.46608e-10 
126 1 0.0666311 0.0173736 0.00720225 0.0054924 -0.000524769 0.000215382 8.2257e-11 2.79317e-11 3.58668e-13 5e-05 1.46608e-10 
127 1 0.0603645 0.0163854 0.00806513 0.00582832 -0.000534495 -0.000302076 -9.76774e-11 -1.00056e-10 3.92678e-11 5e-05 1.46608e-10 
128 1 0.0667258 0.0178257 0.00706458 0.00550713 -0.000550207 0.000223096 6.93751e-11 -2.1546e-10 4.68856e-11 5e-05 1.46608e-10 
129 1 0.0668084 0.0182172 0.0070626 0.00590642 -0.000565133 0.000239222 -1.39976e-11 -3.03838e-12 5.9296e-14 5e-05 1.46608e-10 
130 1 0.0606613 0.0171187 0.00736658 0.00543893 -0.000382784 -3.96512e-05 1.66086e-10 2.16481e-11 1.09382e-10 5e-05 1.46608e-10 
131 1 0.0605274 0.0166175 0.00783616 0.00574496 -0.000736358 -0.000386546 -1.89116e-10 -5.62908e-11 4.782e-10 5e-05 1.46608e-10 
132 1 0.0668209 0.017858 0.00706788 0.00561648 -0.000582561 0.000227798 -1.81988e-11 9.46182e-11 2.4359e-12 5e-05 1.46608e-10 
133 1 0.0665901 0.0164634 0.00784152 0.00557011 -0.00051816 0.000244836 5.95274e-11 -9.66494e-14 3.35685e-11 5e-05 1.46608e-10 
134 1 0.0667454 0.017104 0.00738822 0.00534574 -0.000501975 0.000201033 7.49064e-11 -1.22505e-11 -9.70788e-12 5e-05 1.46608e-10 
135 1 0.0663865 0.0160362 0.00814225 0.00597284 -0.00058937 0.000286048 9.13315e-12 -3.53737e-11 2.42174e-11 5e-05 1.46608e-10 
136 1 0.0603517 0.0160491 0.00837297 0.00602699 -0.000290336 -0.000442731 -1.01725e-10 2.13945e-10 -2.02193e-10 5e-05 1.46608e-10 
137 1 0.066917 0.0187052 0.00706035 0.00590546 -0.000574599 0.000239183 3.10128e-12 1.37852e-11 -1.63e-13 5e-05 1.46608e-10 
138 1 0.0665344 0.0165976 0.00774952 0.00557885 -0.00053679 0.000257637 -4.60218e-11 -5.19745e-14 9.90043e-13 5e-05 1.46608e-10 
140 1 0.067057 0.018119 0.00707366 0.00586601 -0.000592531 0.000237907 -1.49523e-10 -5.51494e-11 -5.52125e-12 5e-05 1.46608e-10 
141 1 0.0603956 0.0161909 0.00823794 0.00582868 -0.000451914 -0.000274718 -1.07474e-10 1.43254e-10 -1.81251e-10 5e-05 1.46608e-10 
142 1 0.0607554 0.0171382 0.00733779 0.00547336 -0.000304732 0.000117241 4.16482e-10 1.55879e-10 -1.70333e-10 5e-05 1.46608e-10 
143 1 0.0603215 0.0162446 0.0081975 0.00582929 -0.000454145 -0.000272161 -5.88073e-11 6.66934e-11 -3.2777e-11 5e-05 1.46608e-10 
144 1 0.0607199 0.0169915 0.00746905 0.00523632 -0.000475007 -0.000106067 1.0218e-10 -3.45921e-10 2.29426e-10 5e-05 1.46608e-10 
146 1 0.0605814 0.0164926 0.00793987 0.00579313 -0.000516168 -0.000209342 6.07537e-11 -1.55336e-10 1.54497e-10 5e-05 1.46608e-10 
147 1 0.0603299 0.0159784 0.00844035 0.00586099 -0.000438468 -0.000287385 5.9462e-11 2.72624e-10 -2.77093e-10 5e-05 1.46608e-10 
148 1 0.0606188 0.0173038 0.00718156 0.00560212 -0.00017154 0.000254346 1.88101e-10 1.88398e-10 1.16701e-10 5e-05 1.46608e-10 
149 1 0.066982 0.018185 0.00706984 0.00589615 -0.000562069 0.000238641 -6.67454e-11 5.11611e-12 -2.61627e-12 5e-05 1.46608e-10 
150 1 0.0606249 0.016634 0.00780527 0.00576447 -0.00055034 -0.000175349 -1.16655e-10 -1.58505e-10 2.20233e-10 5e-05 1.46608e-10 
151 1 0.0609537 0.0172651 0.00721213 0.0054128 0.000116001 4.47264e-05 6.48123e-10 -3.32058e-11 6.72895e-11 5e-05 1.46608e-10 
153 1 0.0604616 0.0164028 0.00803612 0.005837 -0.00047021 -0.000262503 -1.71593e-10 -2.22079e-10 2.56576e-10 5e-05 1.46608e-10 
154 1 0.060717 0.0173406 0.00717355 0.00561444 -0.000190006 0.0002249 -3.67102e-11 -1.49317e-10 -8.37633e-12 5e-05 1.46608e-10 
155 1 0.060794 0.0177339 0.00717586 0.00565077 -0.000161716 0.000211356 2.01963e-10 4.13054e-10 9.09165e-11 5e-05 1.46608e-10 
156 1 0.0606957 0.0172589 0.0072271 0.00559813 -0.000173498 0.000244751 -9.43147e-11 2.92892e-10 3.7028e-10 5e-05 1.46608e-10 
157 1 0.0219312 0.0187687 0.00551176 -3.82854e-14 8.16818e-14 2.9589e-13 1.62722e-22 1.77999e-22 -1.613e-23 5e-05 1.46608e-10 
158 1 0.0608187 0.0173942 0.0072081 0.00559717 -9.62649e-05 0.00023872 -4.34809e-10 3.46254e-10 -5.51907e-10 5e-05 1.46608e-10 
159 1 0.0668787 0.0176957 0.00707231 0.00560429 -0.000562047 0.00022507 7.0175e-11 7.93163e-11 -3.10529e-11 5e-05 1.46608e-10 
160 1 0.060694 0.0176963 0.00717205 0.00572068 -0.000195706 0.000218 -1.49919e-10 2.3554e-11 -3.78283e-10 5e-05 1.46608e-10 
162 1 0.0607357 0.0174389 0.00717411 0.00558964 -0.000141509 0.000214432 -2.92223e-10 -9.28976e-12 9.25082e-11 5e-05 1.46608e-10 
164 1 0.0609679 0.0180756 0.00718203 0.00583011 -0.000245169 0.000229562 2.71745e-10 8.40277e-11 1.46588e-11 5e-05 1.46608e-10 
165 1 0.0610313 0.0175502 0.0071753 0.00580094 -0.000291984 -0.000207045 -1.48809e-10 2.72163e-10 1.2105e-10 5e-05 1.46608e-10 
166 1 0.0665489 0.016303 0.00795368 0.0058682 -0.0005851 0.000285343 1.39937e-10 5.96305e-13 -2.07893e-12 5e-05 1.46608e-10 
167 1 0.0606032 0.0165633 0.00787257 0.00578397 -0.00053457 -0.000191319 8.14498e-11 -1.62472e-10 1.99952e-10 5e-05 1.46608e-10 
168 1 0.0608669 0.0173133 0.00717422 0.00557006 -0.000135652 0.00025695 1.24079e-10 4.14084e-10 -1.28955e-10 5e-05 1.46608e-10 
169 1 0.0610941 0.0178433 0.00718733 0.00578326 -0.000302349 0.000227732 4.55948e-11 -8.55565e-11 9.4893e-11 5e-05 1.46608e-10 
170 1 0.0609361 0.0175199 0.00717971 0.00570254 -0.000108122 1.00759e-05 -2.92407e-11 -4.93172e-10 -1.19422e-09 5e-05 1.46608e-10 
171 1 0.0665696 0.0163832 0.00789761 0.00554746 -0.00051998 0.000246814 -1.35444e-10 4.26524e-11 -2.79056e-11 5e-05 1.46608e-10 
172 1 0.0610061 0.017449 0.00717095 0.0055569 -0.000219091 -0.000222125 1.17036e-10 -3.86223e-10 -3.00814e-11 5e-05 1.46608e-10 
173 1 0.0670119 0.0174751 0.00712024 0.00558089 -0.000551646 0.000228573 -2.36879e-11 -1.29808e-10 7.54317e-11 5e-05 1.46608e-10 
174 1 0.0608612 0.0175872 0.00717873 0.00576158 -0.000108595 0.000204868 4.87611e-10 -2.59342e-11 -1.62477e-10 5e-05 1.46608e-10 
175 1 0.0546192 0.0173381 0.00726338 0.00554042 -0.000319628 -0.000162196 1.45769e-11 -1.45807e-10 9.16252e-11 5e-05 1.46608e-10 
176 1 0.0606775 0.0171888 0.00729721 0.00553702 -0.000171016 0.000212805 2.21856e-10 -6.80771e-12 1.06204e-11 5e-05 1.46608e-10 
177 1 0.0607359 0.0178918 0.00717334 0.00583163 -0.000254168 0.000230047 -4.60667e-11 -4.02472e-10 3.05037e-11 5e-05 1.46608e-10 
178 1 0.0611469 0.0176785 0.0071777 0.00574891 -0.000269137 -0.000239303 1.00974e-09 -2.08699e-10 -3.89888e-10 5e-05 1.46608e-10 
179 1 0.0610727 0.0177457 0.00718398 0.00580435 -0.000280602 -0.000226597 2.28625e-10 -1.49422e-10 -4.88563e-12 5e-05 1.46608e-10 
181 1 0.0606565 0.0174998 0.00717218 0.00558228 -0.00015101 0.000197435 -2.40134e-11 1.48407e-10 1.96219e-10 5e-05 1.46608e-10 
182 1 0.066514 0.0165173 0.00780563 0.00555187 -0.000533616 0.000256249 1.19122e-10 1.26375e-11 -2.26453e-11 5e-05 1.46608e-10 
183 1 0.0609108 0.0174191 0.00717572 0.00549959 -9.04405e-05 -0.000179343 4.58982e-10 -7.45114e-11 7.1569e-10 5e-05 1.46608e-10 
184 1 0.0668182 0.0177063 0.0071512 0.0056141 -0.000546943 0.000226525 1.45974e-10 -3.41399e-11 -4.36397e-11 5e-05 1.46608e-10 
185 1 0.0606011 0.0172343 0.00725126 0.00557364 -0.00016112 0.000251617 4.33017e-10 -4.01556e-11 7.3413e-11 5e-05 1.46608e-10 
186 1 0.0606377 0.0174016 0.00717338 0.00561306 -0.000170159 0.000247532 7.35512e-11 1.57859e-10 3.27994e-10 5e-05 1.46608e-10 
187 1 0.0668215 0.0170499 0.00742401 0.0053295 -0.000513036 0.00020931 2.70807e-11 6.21538e-11 -4.2147e-11 5e-05 1.46608e-10 
188 1 0.0669054 0.0182492 0.00706598 0.00590406 -0.000561185 0.000238953 -2.66941e-11 2.54763e-12 -5.8386e-13 5e-05 1.46608e-10 
189 1 0.0668609 0.0172099 0.00731063 0.00543147 -0.000527417 0.00021645 3.38331e-11 1.41268e-10 -7.85505e-11 5e-05 1.46608e-10 
190 1 0.0547057 0.0174953 0.00719266 0.00554468 -0.000322759 -0.000161414 -1.2009e-11 -1.10786e-10 5.99213e-11 5e-05 1.46608e-10 
191 1 0.0669387 0.0188028 0.0070599 0.00590499 -0.000576612 0.00023919 6.38278e-13 5.64622e-12 -7.13815e-14 5e-05 1.46608e-10 
192 1 0.0608358 0.017086 0.00736648 0.00547896 -0.000411332 -1.87196e-05 -3.33472e-10 -5.36745e-11 -1.3581e-10 5e-05 1.46608e-10 
193 1 0.0666505 0.0167034 0.00767199 0.00552559 -0.000523029 0.000210809 1.01857e-10 5.17025e-11 -2.93232e-11 5e-05 1.46608e-10 
194 1 0.0606655 0.016776 0.00767044 0.00542914 -0.000519651 -0.000167469 -2.56728e-10 -2.5517e-10 2.97193e-10 5e-05 1.46608e-10 
195 1 0.0610516 0.017648 0.00717965 0.00577949 -0.000268322 -0.00021922 9.7892e-10 1.81154e-11 1.0283e-11 5e-05 1.46608e-10 
196 1 0.0601262 0.0156083 0.0088032 0.00590001 -0.000417539 -0.000310331 -4.45007e-12 -9.08047e-13 5.36759e-12 5e-05 1.46608e-10 
197 1 0.0546923 0.0176754 0.00712508 0.00557277 -0.000275416 -3.14001e-06 -6.7519e-12 -9.50727e-11 3.54522e-11 5e-05 1.46608e-10 
198 1 0.0605319 0.0169535 0.00752748 0.00526127 -0.000560278 -0.000297324 2.75375e-10 -3.05286e-10 1.31185e-10 5e-05 1.46608e-10 
199 1 0.0607548 0.0175378 0.00717468 0.00560407 -0.000103934 0.000197489 -2.16477e-10 5.20061e-10 9.8521e-11 5e-05 1.46608e-10 
200 1 0.060626 0.0169709 0.00749657 0.00528687 -0.000479635 -0.00018687 5.54435e-11 1.24243e-10 1.21236e-11 5e-05 1.46608e-10 
201 1 0.0610637 0.0181062 0.0071857 0.00577731 -0.000290939 0.000224739 6.02619e-11 2.69023e-10 -2.59227e-11 5e-05 1.46608e-10 
202 1 0.0608521 0.01716 0.0073012 0.00558259 -0.000255819 0.000155725 -6.02631e-10 6.48551e-10 5.74665e-10 5e-05 1.46608e-10 
203 1 0.0670299 0.0175648 0.00707999 0.00557567 -0.000550895 0.000225725 -1.31878e-11 -1.54175e-10 8.97194e-12 5e-05 1.46608e-10 
204 1 0.0606076 0.0168995 0.00756412 0.00527228 -0.000478151 -0.000183757 4.9182e-10 -3.75058e-11 -9.64947e-11 5e-05 1.46608e-10 
205 1 0.0609245 0.0178804 0.00718068 0.00577409 -0.000202249 0.000225615 1.26667e-10 2.9676e-10 -6.66284e-11 5e-05 1.46608e-10 
206 1 0.0608816 0.017685 0.00717952 0.00591099 -0.000162282 0.000212093 4.13355e-10 -1.00018e-10 3.95826e-10 5e-05 1.46608e-10 
207 1 0.06044 0.0163324 0.00810375 0.00585185 -0.000517656 -0.000320894 -2.47354e-10 -2.51779e-10 2.48583e-10 5e-05 1.46608e-10 
208 1 0.0608413 0.0174897 0.00718916 0.0056394 -8.0027e-05 0.00018739 -2.70461e-10 -1.24359e-11 -1.03626e-09 5e-05 1.46608e-10 
209 1 0.060646 0.0167048 0.00773792 0.00563699 -0.000539471 -0.000167019 -1.93473e-10 -1.793e-10 1.85199e-10 5e-05 1.46608e-10 
210 1 0.0666527 0.0174614 0.00724515 0.00573355 -0.000592852 0.000238836 1.68274e-10 7.03024e-11 -5.13791e-11 5e-05 1.46608e-10 
211 1 0.0669389 0.0179896 0.00707075 0.00577398 -0.000584703 0.000234102 1.21273e-10 4.27153e-11 6.49258e-12 5e-05 1.46608e-10 
212 1 0.0609563 0.0176178 0.00718164 0.00580368 -0.000219942 -6.2372e-05 8.50822e-10 -2.08094e-11 -7.00983e-11 5e-05 1.46608e-10 
213 1 0.0668026 0.0169698 0.00748076 0.00530693 -0.000506515 0.000205178 2.95789e-11 -1.39575e-11 1.45523e-11 5e-05 1.46608e-10 
214 1 0.0668618 0.0180538 0.00706688 0.00585909 -0.000632837 0.000238159 -7.82915e-11 -5.99207e-12 -3.71654e-12 5e-05 1.46608e-10 
215 1 0.0547221 0.0173756 0.00724213 0.00556349 -0.000295363 -0.000173354 1.18635e-10 2.22371e-11 -9.93999e-12 5e-05 1.46608e-10 
216 1 0.0607142 0.0177942 0.00717266 0.00585364 -0.000253279 0.00023677 1.57507e-10 -1.23261e-10 -1.11851e-10 5e-05 1.46608e-10 
217 1 0.0666106 0.0165435 0.00778533 0.00559074 -0.000529527 0.000227673 6.71592e-12 -2.07042e-11 1.93806e-11 5e-05 1.46608e-10 
218 1 0.0608373 0.0179291 0.00717721 0.00577936 -0.00022305 0.000227524 -1.84613e-10 1.88849e-10 -4.49147e-12 5e-05 1.46608e-10 
219 1 0.0668735 0.01851 0.00706125 0.00590665 -0.000566455 0.000239132 1.76832e-11 3.45799e-11 1.95082e-13 5e-05 1.46608e-10 
220 1 0.060675 0.0175981 0.00717302 0.00556536 -0.000134151 0.000173077 -1.23999e-10 1.35813e-10 -3.22921e-10 5e-05 1.46608e-10 
221 1 0.0546161 0.0169158 0.00744109 0.00545207 -0.000308809 -0.000159021 1.52864e-11 -1.89967e-12 1.9284e-11 5e-05 1.46608e-10 
222 1 0.0666304 0.0166235 0.00772864 0.00558609 -0.000534578 0.000218115 2.93206e-11 -1.25218e-11 3.07345e-11 5e-05 1.46608e-10 
223 1 0.0607715 0.0172112 0.00727144 0.00556718 -0.000188272 0.000239199 2.5178e-11 3.8539e-10 -1.34311e-10 5e-05 1.46608e-10 
224 1 0.0605834 0.0171648 0.00732094 0.00551884 -0.000138695 0.000232308 1.66922e-10 -7.34377e-11 4.7346e-11 5e-05 1.46608e-10 
225 1 0.066954 0.0176298 0.00707614 0.00557804 -0.00055295 0.000225896 1.21298e-10 -2.46218e-11 9.28051e-13 5e-05 1.46608e-10 
226 1 0.0609821 0.0173496 0.00716665 0.00548316 -6.16316e-05 -0.00020777 6.92155e-10 -7.53604e-12 -1.93597e-10 5e-05 1.46608e-10 
227 1 0.0546747 0.0171859 0.0073244 0.0055355 -0.000328249 -0.000159697 7.06335e-12 -1.57106e-10 3.01634e-12 5e-05 1.46608e-10 
228 1 0.0546388 0.0174281 0.00722449 0.00554234 -0.000319956 -0.000162143 -4.13263e-11 -1.64445e-10 3.92596e-11 5e-05 1.46608e-10 
229 1 0.0606971 0.017397 0.00725631 0.00559746 -0.000150021 0.000200615 -3.14785e-10 -3.45295e-10 5.57314e-11 5e-05 1.46608e-10 
230 1 0.0610113 0.0182708 0.00718338 0.00581131 -0.00027128 0.000225719 -7.94439e-11 -1.2816e-11 -6.73266e-11 5e-05 1.46608e-10 
231 1 0.0545996 0.0172481 0.00730227 0.00553089 -0.000320048 -0.00016081 -4.22802e-11 -1.5554e-10 7.19172e-11 5e-05 1.46608e-10 
232 1 0.0605381 0.0163511 0.00807448 0.00583277 -0.000480799 -0.000243377 -1.49388e-10 -2.41678e-10 2.1145e-10 5e-05 1.46608e-10 
233 1 0.0606837 0.0168474 0.00760288 0.00529083 -0.000508275 -0.000161696 -5.95024e-12 -1.36713e-10 2.22212e-10 5e-05 1.46608e-10 
234 1 0.0669272 0.0183468 0.00706553 0.00590768 -0.000561222 0.0002391 3.82982e-12 1.89585e-11 -3.47712e-14 5e-05 1.46608e-10 
235 1 0.0610548 0.018466 0.00718473 0.00581012 -0.000273994 0.000225153 1.10539e-10 -3.02753e-10 -1.42541e-12 5e-05 1.46608e-10 
236 1 0.061033 0.0183684 0.00718406 0.00581445 -0.000278718 0.000227085 2.21372e-10 -2.13931e-10 2.4682e-11 5e-05 1.46608e-10 
237 1 0.0611072 0.0183014 0.00718705 0.0058074 -0.00028627 0.000226207 1.95131e-10 -7.6522e-11 2.38036e-11 5e-05 1.46608e-10 
239 1 0.0544281 0.0165095 0.00774904 0.00575744 0.000303192 0.000808809 -3.10441e-11 2.5279e-10 -4.5777e-10 5e-05 1.46608e-10 
240 1 0.0544822 0.0167085 0.00753683 0.00547974 -0.000405627 -0.000377095 -1.04283e-11 -4.10973e-10 -9.51899e-10 5e-05 1.46608e-10 
241 1 0.0544096 0.016451 0.00782805 0.00566832 0.000281916 0.000802885 9.38822e-11 2.63023e-10 -5.47239e-10 5e-05 1.46608e-10 
242 1 0.060801 0.0169428 0.00750169 0.00524554 -0.000530879 -0.000124159 5.49523e-10 -2.7488e-10 -5.67329e-11 5e-05 1.46608e-10 
243 1 0.0605894 0.0168281 0.00763175 0.00517192 -0.00178848 -0.00161341 5.48882e-11 3.58327e-10 5.02653e-10 5e-05 1.46608e-10 
244 1 0.054446 0.016568 0.0076699 0.00563485 0.000304094 0.000774018 -1.9573e-10 2.55227e-10 -5.08256e-10 5e-05 1.46608e-10 