ITEM: TIMESTEP
29200000
ITEM: NUMBER OF ATOMS
271
ITEM: BOX BOUNDS ff ff ff
-0.02 0.43
-0.02 0.06
-0.02 0.07
ITEM: ATOMS id type x y z vx vy vz fx fy fz radius mass 
1 1 0.182738 0.0153914 0.00865893 0.006346 4.84296e-06 -0.000319937 1.01613e-11 5.25762e-11 -5.44365e-11 5e-05 1.46608e-10 
2 1 0.183623 0.0178799 0.0069712 0.00625567 0.000128561 0.000201144 -7.21174e-11 -1.23621e-10 -3.03144e-11 5e-05 1.46608e-10 
3 1 0.177738 0.0179753 0.0070518 0.00601134 -0.000619315 5.14801e-05 -2.2152e-10 2.53072e-10 -6.40323e-11 5e-05 1.46608e-10 
4 1 0.183659 0.0176466 0.00709129 0.00576493 0.000250826 9.90145e-05 -7.63761e-11 -2.28903e-10 1.04116e-10 5e-05 1.46608e-10 
5 1 0.182716 0.015335 0.00873861 0.00633906 0.000217668 -0.000158051 4.64148e-11 -9.80353e-12 -3.23411e-11 5e-05 1.46608e-10 
6 1 0.189166 0.01703 0.00744207 0.00562965 0.000371982 -0.00055728 3.26856e-11 1.07023e-10 -6.75861e-11 5e-05 1.46608e-10 
7 1 0.182824 0.0156769 0.00839264 0.00627473 2.12308e-05 -0.00035151 -1.07246e-10 4.91095e-11 -3.22311e-11 5e-05 1.46608e-10 
8 1 0.182695 0.0152802 0.00881946 0.00632893 0.000414413 -1.71121e-05 6.96949e-11 -9.42686e-12 2.5099e-11 5e-05 1.46608e-10 
9 1 0.18928 0.0175013 0.00708858 0.0058266 0.00034848 -0.000592587 -4.99926e-10 -2.97412e-11 1.04819e-10 5e-05 1.46608e-10 
10 1 0.18328 0.0175259 0.00713783 0.00571551 0.000410969 1.47e-05 -4.16925e-11 -1.93977e-11 2.37428e-11 5e-05 1.46608e-10 
11 1 0.183414 0.0177315 0.00703848 0.00572231 0.000405222 2.2586e-05 2.51258e-10 -3.46603e-11 5.39038e-11 5e-05 1.46608e-10 
12 1 0.176878 0.0158689 0.00823942 0.00577207 -0.000228628 0.00042892 -1.35816e-10 1.26893e-12 -3.87252e-12 5e-05 1.46608e-10 
13 1 0.182631 0.0151376 0.00907353 0.00624737 0.00040535 -2.22953e-05 -5.78732e-11 -9.51009e-11 1.96799e-10 5e-05 1.46608e-10 
14 1 0.177541 0.018703 0.00689455 0.00613483 -0.000467122 0.000264371 4.01644e-11 -3.03067e-10 7.73386e-11 5e-05 1.46608e-10 
15 1 0.183639 0.0175588 0.00713524 0.00572308 0.000341433 5.13241e-05 -1.42438e-11 6.64011e-11 -3.20937e-11 5e-05 1.46608e-10 
16 1 0.177652 0.0187558 0.00688951 0.00568288 -0.000330615 0.000229564 -1.80884e-10 1.50776e-10 -1.61529e-11 5e-05 1.46608e-10 
17 1 0.183679 0.0177343 0.00704749 0.00586428 0.000230049 0.000113971 3.60078e-10 -3.31833e-10 1.84701e-10 5e-05 1.46608e-10 
19 1 0.182677 0.0152438 0.00891081 0.00631572 0.000400464 -1.51454e-05 -7.418e-11 -1.83773e-10 5.54562e-11 5e-05 1.46608e-10 
21 1 0.183241 0.0173505 0.00722553 0.00569537 0.000422852 8.13905e-06 -1.31726e-11 2.77892e-11 -1.92932e-11 5e-05 1.46608e-10 
22 1 0.18345 0.0174984 0.00715848 0.00569219 0.000418668 1.06339e-05 -9.01385e-11 -9.18149e-11 4.20902e-11 5e-05 1.46608e-10 
23 1 0.177113 0.0164045 0.00775867 0.00548851 -0.000244868 0.000435058 -3.08206e-10 8.34176e-12 -3.55112e-11 5e-05 1.46608e-10 
24 1 0.189358 0.0178811 0.00699069 0.00576954 0.000549257 -1.16643e-05 3.343e-11 -4.56094e-11 2.16027e-12 5e-05 1.46608e-10 
25 1 0.182888 0.0158942 0.00819591 0.00609482 4.97415e-05 -0.00036781 -1.21358e-10 -1.73883e-11 1.95513e-11 5e-05 1.46608e-10 
26 1 0.189242 0.0173442 0.00720641 0.0057744 0.00035833 -0.000548599 3.32424e-10 3.195e-10 -2.37982e-10 5e-05 1.46608e-10 
27 1 0.177867 0.0181138 0.00700997 0.00598251 -0.000572752 3.349e-05 -2.77619e-10 1.66008e-10 2.6927e-12 5e-05 1.46608e-10 
28 1 0.183584 0.0177045 0.00705887 0.00584499 0.000105705 0.000175298 6.49508e-10 -1.28516e-10 9.28375e-11 5e-05 1.46608e-10 
29 1 0.182846 0.0157492 0.0083271 0.00627266 2.05452e-05 -0.000350646 -3.08238e-11 -9.88458e-12 1.50081e-11 5e-05 1.46608e-10 
30 1 0.183339 0.0177961 0.00702237 0.0057251 0.000392716 -9.98951e-06 -3.44586e-11 -4.98985e-11 2.17542e-11 5e-05 1.46608e-10 
31 1 0.182909 0.0159668 0.00813028 0.00597183 6.94498e-05 -0.00038061 3.915e-11 -2.85443e-11 2.91845e-11 5e-05 1.46608e-10 
32 1 0.183333 0.0169721 0.00742163 0.00565507 0.000471205 -1.74151e-05 2.09758e-11 -7.79297e-11 3.84571e-11 5e-05 1.46608e-10 
33 1 0.189185 0.0171086 0.00738315 0.00565966 0.000368439 -0.000558721 2.66874e-10 -3.4163e-11 3.33433e-11 5e-05 1.46608e-10 
34 1 0.182803 0.0156045 0.00845817 0.00628219 1.87093e-05 -0.000349746 -1.19493e-11 6.9304e-11 -5.93811e-11 5e-05 1.46608e-10 
35 1 0.183486 0.0172654 0.00727846 0.00567053 0.000443266 -2.48173e-06 5.62518e-11 -8.84192e-11 4.98955e-11 5e-05 1.46608e-10 
36 1 0.189338 0.0177859 0.0070141 0.0057814 0.000536218 -9.31004e-06 1.78093e-12 2.09731e-11 -1.07895e-11 5e-05 1.46608e-10 
37 1 0.18354 0.0183005 0.00690363 0.00632993 0.000154064 -0.000375062 1.97963e-11 -2.93808e-12 4.13703e-11 5e-05 1.46608e-10 
38 1 0.183605 0.0185926 0.00688207 0.006311 0.000156855 -8.4635e-05 -6.0239e-11 3.71787e-13 -7.59985e-12 5e-05 1.46608e-10 
39 1 0.189377 0.0179764 0.00696729 0.00573139 0.00056702 -1.70328e-05 -1.39547e-10 -3.78932e-11 6.73665e-12 5e-05 1.46608e-10 
41 1 0.183699 0.0178219 0.00700372 0.00598536 0.000203643 0.000131517 3.48304e-10 -3.24228e-10 1.92874e-10 5e-05 1.46608e-10 
42 1 0.321436 0.0173475 0.00552525 4.56237e-16 2.25519e-15 8.46361e-14 -2.87817e-23 4.69813e-24 0 5e-05 1.46608e-10 
44 1 0.183603 0.0177923 0.00701501 0.00602734 0.000106755 0.000183231 -5.80722e-11 8.79427e-11 -6.34009e-11 5e-05 1.46608e-10 
45 1 0.189204 0.0171871 0.00732424 0.0056748 0.000372105 -0.00056246 -1.79641e-10 -1.58704e-10 7.36744e-11 5e-05 1.46608e-10 
47 1 0.18276 0.0154597 0.00858923 0.00633621 3.73178e-06 -0.000334694 7.98913e-11 9.19263e-11 -5.22942e-11 5e-05 1.46608e-10 
48 1 0.183583 0.0184952 0.00688821 0.00632314 0.000172758 -8.72599e-05 1.03061e-10 -4.62314e-12 3.67716e-11 5e-05 1.46608e-10 
50 1 0.18295 0.016112 0.00799896 0.00583282 9.35687e-05 -0.000391037 3.13083e-11 -4.23089e-12 -3.55965e-12 5e-05 1.46608e-10 
51 1 0.182929 0.0160397 0.00806486 0.0058622 8.51492e-05 -0.000393391 8.44819e-11 -1.86279e-11 2.24598e-11 5e-05 1.46608e-10 
52 1 0.176793 0.0155869 0.00850986 0.00610195 -0.000465483 0.000346998 8.06709e-11 1.57984e-10 -1.94696e-10 5e-05 1.46608e-10 
53 1 0.189319 0.0176907 0.0070375 0.0057927 0.000529773 -7.9649e-06 4.62524e-12 1.05153e-10 3.79559e-12 5e-05 1.46608e-10 
54 1 0.183422 0.0181741 0.00692802 0.00632118 0.000169993 -0.00037276 -7.45938e-11 -7.98129e-11 -1.88303e-11 5e-05 1.46608e-10 
55 1 0.176728 0.0153781 0.00871526 0.00612975 -0.000473364 0.00035437 -4.57295e-12 -1.04057e-10 9.96604e-11 5e-05 1.46608e-10 
56 1 0.183561 0.0183977 0.00689436 0.00632414 0.000180244 -8.18585e-05 3.31278e-11 -3.15466e-11 4.27965e-11 5e-05 1.46608e-10 
57 1 0.189223 0.0172657 0.00726532 0.00574144 0.000373044 -0.000557287 -3.97847e-10 1.57564e-10 -1.13155e-10 5e-05 1.46608e-10 
59 1 0.18343 0.0174107 0.00720233 0.00569262 0.000422545 8.88832e-06 -6.74277e-11 -2.0502e-10 1.04701e-10 5e-05 1.46608e-10 
61 1 0.183219 0.0168542 0.00747712 0.00563675 0.000450952 -8.83354e-06 5.07754e-11 3.10231e-12 5.74749e-14 5e-05 1.46608e-10 
62 1 0.183826 0.0183905 0.00689163 0.00631125 0.000141412 -8.33794e-05 -8.22356e-11 9.90851e-11 4.34053e-13 5e-05 1.46608e-10 
63 1 0.18362 0.0174708 0.0071792 0.00574039 0.000489246 -2.31852e-05 1.64977e-11 -9.3394e-11 4.94015e-11 5e-05 1.46608e-10 
64 1 0.189398 0.0180715 0.00694394 0.00635526 0.000449116 2.56804e-05 -1.83436e-11 1.25712e-11 -1.21769e-11 5e-05 1.46608e-10 
65 1 0.177057 0.0165239 0.00764872 0.00549523 -0.000221299 0.000410052 9.55279e-11 5.49602e-11 -3.51489e-11 5e-05 1.46608e-10 
66 1 0.176706 0.0153085 0.00878373 0.00614388 -0.000469255 0.000349916 -7.73752e-11 -2.03963e-10 2.02175e-10 5e-05 1.46608e-10 
67 1 0.18357 0.0180408 0.00693866 0.00630361 0.000185862 -0.000345532 3.32749e-10 2.1339e-10 4.82273e-10 5e-05 1.46608e-10 
68 1 0.183372 0.0171476 0.0073339 0.00565077 0.000451429 -7.34984e-06 1.60826e-10 -1.55621e-10 8.36549e-11 5e-05 1.46608e-10 
69 1 0.183443 0.0182706 0.0069132 0.00633484 0.000173779 -0.000339865 -3.62584e-11 6.50789e-12 -2.35707e-10 5e-05 1.46608e-10 
70 1 0.189261 0.0174228 0.00714749 0.00577487 0.000345904 -0.000564335 1.08581e-10 -7.21738e-11 -1.11886e-10 5e-05 1.46608e-10 
71 1 0.176771 0.0155173 0.00857832 0.00610204 -0.00047328 0.000354758 5.65547e-11 1.11619e-10 -9.65856e-11 5e-05 1.46608e-10 
72 1 0.183474 0.0180109 0.00694816 0.00632857 0.000164426 -0.000437339 1.55973e-10 2.17652e-10 -5.85386e-10 5e-05 1.46608e-10 
73 1 0.183509 0.0185619 0.00688507 0.0063361 0.000177537 -8.70042e-05 -3.23062e-11 -1.76124e-10 1.12787e-10 5e-05 1.46608e-10 
74 1 0.183635 0.0183308 0.00689752 0.0063029 0.000169162 -8.96089e-05 9.04525e-12 5.71335e-11 2.19145e-11 5e-05 1.46608e-10 
76 1 0.177773 0.0185134 0.00693216 0.00590479 -0.00016508 0.000209103 6.56888e-10 3.41783e-11 5.1859e-12 5e-05 1.46608e-10 
77 1 0.183505 0.0173531 0.00723461 0.00570063 0.000438866 1.07218e-06 1.12956e-10 -1.22544e-10 6.3229e-11 5e-05 1.46608e-10 
78 1 0.177519 0.0186065 0.00690936 0.00613147 -0.000471474 0.000262025 5.21803e-10 1.33198e-10 -1.43284e-11 5e-05 1.46608e-10 
79 1 0.176836 0.0157261 0.00837293 0.00606008 -0.00042007 0.000336619 3.49402e-11 -6.02643e-11 -3.56503e-10 5e-05 1.46608e-10 
80 1 0.183667 0.0180708 0.00692904 0.00629508 0.000143851 -0.000362613 1.77167e-10 -2.40957e-11 8.46387e-11 5e-05 1.46608e-10 
81 1 0.177709 0.018837 0.00687828 0.00561336 -0.000370746 0.000233426 -7.5134e-10 2.71712e-10 -6.61263e-11 5e-05 1.46608e-10 
82 1 0.176898 0.0159416 0.00817376 0.00574793 -0.000229727 0.000427711 -2.06304e-10 -3.2137e-11 5.73438e-11 5e-05 1.46608e-10 
83 1 0.177581 0.0184559 0.00693542 0.00613313 -0.000378802 0.000249234 -3.93631e-10 -6.50974e-10 1.20634e-10 5e-05 1.46608e-10 
84 1 0.189299 0.0175954 0.0070609 0.00580473 0.000529694 -7.44093e-06 -1.08287e-10 5.75428e-11 7.75829e-11 5e-05 1.46608e-10 
85 1 0.17776 0.0180692 0.00702481 0.00602447 -0.000635907 5.64601e-05 -2.52923e-10 1.38196e-10 -6.15316e-12 5e-05 1.46608e-10 
86 1 0.18372 0.0179094 0.00695996 0.00616654 0.000164411 0.000151615 2.28151e-10 -2.4686e-10 1.18296e-10 5e-05 1.46608e-10 
87 1 0.183679 0.0185256 0.00688523 0.00630628 0.000164267 -8.55173e-05 -3.00739e-11 1.3881e-10 -6.15871e-12 5e-05 1.46608e-10 
88 1 0.183104 0.0167364 0.00753256 0.00561439 0.000455912 -1.40587e-05 3.12479e-11 9.42237e-11 7.15925e-12 5e-05 1.46608e-10 
89 1 0.183657 0.0184282 0.00689137 0.00631588 0.000161882 -8.42873e-05 9.67978e-11 1.24842e-10 -3.243e-11 5e-05 1.46608e-10 
90 1 0.183508 0.0177626 0.00702636 0.00581142 0.000178056 0.000138883 3.22029e-12 2.7294e-10 -1.58129e-10 5e-05 1.46608e-10 
91 1 0.177803 0.0182578 0.00697408 0.00594759 -0.000510687 0.000263842 -3.55131e-10 2.63611e-10 -8.88116e-11 5e-05 1.46608e-10 
92 1 0.183614 0.018234 0.00691006 0.00630467 0.000155234 -0.000256906 -7.29943e-11 1.02816e-10 5.07925e-10 5e-05 1.46608e-10 
93 1 0.182989 0.0162575 0.00786747 0.00584742 8.73222e-05 -0.000390029 9.63468e-11 -2.39495e-11 -3.9511e-12 5e-05 1.46608e-10 
94 1 0.183395 0.0176437 0.00708241 0.00571204 0.000403716 2.35274e-05 2.24677e-10 -2.52762e-10 1.50787e-10 5e-05 1.46608e-10 
95 1 0.183355 0.0174683 0.00717009 0.00570081 0.000416585 1.20705e-05 2.4265e-12 -8.41507e-11 4.29923e-11 5e-05 1.46608e-10 
96 1 0.183007 0.0163304 0.00780168 0.00584764 8.11918e-05 -0.000396286 9.19239e-11 4.95527e-12 3.01681e-11 5e-05 1.46608e-10 
97 1 0.177169 0.016623 0.00756098 0.00547291 -0.000252009 0.000438921 -8.40174e-11 3.78507e-12 -4.95712e-12 5e-05 1.46608e-10 
98 1 0.183489 0.0176742 0.00707057 0.005762 0.000256341 9.65227e-05 5.19652e-10 -6.59615e-11 6.75785e-11 5e-05 1.46608e-10 
99 1 0.177265 0.0170429 0.0073253 0.00557324 -0.000469252 1.74851e-05 5.71118e-11 -9.20245e-11 2.93214e-11 5e-05 1.46608e-10 
100 1 0.183731 0.0183606 0.00689458 0.00630683 0.000156971 -8.53188e-05 -8.89572e-11 1.13193e-10 -1.00036e-11 5e-05 1.46608e-10 
101 1 0.176857 0.0157967 0.00830546 0.00603531 -0.000410648 0.000319991 -1.85942e-10 4.35616e-11 -9.99478e-11 5e-05 1.46608e-10 
102 1 0.0643568 0.0187248 0.00531097 4.43579e-15 1.04541e-14 8.2957e-14 -2.12685e-21 6.29459e-22 3.20532e-23 5e-05 1.46608e-10 
103 1 0.24257 0.0191927 0.00520306 3.17557e-22 4.01299e-22 8.29106e-22 0 0 0 5e-05 1.46608e-10 
104 1 0.177471 0.0179831 0.0070551 0.00604711 -0.000472819 1.045e-05 -2.08894e-10 1.27446e-10 -1.75921e-11 5e-05 1.46608e-10 
105 1 0.177812 0.01791 0.00706877 0.00602881 -0.000610814 4.83997e-05 -3.67598e-10 1.32127e-10 -3.06424e-11 5e-05 1.46608e-10 
106 1 0.177694 0.0177877 0.00710578 0.00597997 -0.000615982 5.08878e-05 -2.27051e-10 2.83058e-10 -7.26624e-11 5e-05 1.46608e-10 
107 1 0.177672 0.0176938 0.00713278 0.00597631 -0.000627012 5.40069e-05 -2.21954e-10 2.56269e-10 -6.69044e-11 5e-05 1.46608e-10 
108 1 0.183465 0.0183672 0.00689882 0.00634606 0.000173218 -0.000290948 -4.71912e-12 -4.68481e-11 -3.10088e-10 5e-05 1.46608e-10 
109 1 0.1836 0.0173832 0.00722303 0.00571078 0.000480351 -1.97854e-05 3.57402e-11 -3.13941e-10 1.5639e-10 5e-05 1.46608e-10 
110 1 0.183026 0.0164034 0.00773612 0.00582522 0.000178204 -0.000295065 1.98008e-11 7.71168e-11 7.71153e-11 5e-05 1.46608e-10 
111 1 0.183336 0.0173806 0.00721394 0.00568986 0.000425713 7.21363e-06 3.12962e-11 -6.21419e-11 3.79657e-11 5e-05 1.46608e-10 
112 1 0.177538 0.0182648 0.00697504 0.00614555 -0.000486116 9.43328e-05 9.61916e-11 2.80805e-10 -4.83935e-11 5e-05 1.46608e-10 
113 1 0.177131 0.0168284 0.00740241 0.00553272 -0.000376954 0.000201458 7.38218e-12 -1.45918e-10 -2.58383e-12 5e-05 1.46608e-10 
114 1 0.177498 0.01851 0.00692417 0.00614904 -0.000415795 0.000250949 -5.02518e-10 -8.31924e-10 2.21714e-10 5e-05 1.46608e-10 
115 1 0.183564 0.0176164 0.00710295 0.00572509 0.000351777 4.6345e-05 -2.08953e-10 -3.95333e-11 -6.00065e-12 5e-05 1.46608e-10 
116 1 0.1834 0.0180777 0.00694286 0.00631387 0.000157149 -0.000381718 8.13242e-11 9.74742e-11 -3.4035e-11 5e-05 1.46608e-10 
117 1 0.183552 0.0187567 0.00687278 0.00634955 0.000188519 -8.70858e-05 -2.28976e-11 -4.92789e-11 1.01166e-11 5e-05 1.46608e-10 
118 1 0.177328 0.0177612 0.00712084 0.00597147 -0.000483387 1.20013e-05 1.7249e-10 4.13128e-10 -1.17181e-10 5e-05 1.46608e-10 
119 1 0.183525 0.0174408 0.00719075 0.00569086 0.000433835 3.42519e-06 -4.88913e-11 -2.40184e-10 1.2576e-10 5e-05 1.46608e-10 
120 1 0.182868 0.0158216 0.00826158 0.00620768 3.15543e-05 -0.000357128 -3.58576e-11 -2.9641e-11 3.21025e-11 5e-05 1.46608e-10 
121 1 0.182781 0.0155321 0.0085237 0.00631541 8.90595e-06 -0.000342086 3.42832e-11 9.60566e-11 -6.33207e-11 5e-05 1.46608e-10 
122 1 0.183297 0.0172052 0.00730165 0.00565997 0.000444598 -2.92803e-06 2.16675e-10 -2.36045e-10 1.33484e-10 5e-05 1.46608e-10 
123 1 0.177287 0.0175784 0.00717337 0.00550445 -0.000396882 -1.23993e-06 2.94036e-11 9.12227e-11 -2.31055e-11 5e-05 1.46608e-10 
124 1 0.183316 0.0172929 0.00725779 0.00567852 0.00043535 1.82837e-06 -7.4526e-11 -1.31177e-10 6.54137e-11 5e-05 1.46608e-10 
125 1 0.183626 0.01869 0.00687592 0.00634235 0.000160202 -8.52875e-05 -6.52736e-11 -9.14779e-11 5.48783e-12 5e-05 1.46608e-10 
126 1 0.183238 0.016942 0.00743324 0.00566054 0.000452525 -7.72854e-06 4.37487e-11 -2.06993e-11 1.09665e-11 5e-05 1.46608e-10 
127 1 0.177833 0.0180039 0.00704174 0.0060137 -0.00065399 5.98031e-05 -3.77096e-10 9.02773e-11 -1.33166e-11 5e-05 1.46608e-10 
128 1 0.183277 0.0171174 0.0073455 0.00570547 0.000442116 -5.22705e-07 2.77374e-11 -1.23116e-10 6.14314e-11 5e-05 1.46608e-10 
129 1 0.183432 0.0178199 0.00699418 0.00581029 0.0002314 0.000116094 2.12573e-11 4.20574e-11 -6.95104e-12 5e-05 1.46608e-10 
131 1 0.177717 0.0178813 0.00707884 0.00598279 -0.000614294 5.02917e-05 -2.26994e-10 2.53098e-10 -6.54936e-11 5e-05 1.46608e-10 
132 1 0.183528 0.0178501 0.00698262 0.00610041 0.000159474 0.000159674 -2.32622e-10 5.14982e-11 4.22445e-11 5e-05 1.46608e-10 
133 1 0.1833 0.0176136 0.00709397 0.00572116 0.000402341 2.22541e-05 -6.49312e-14 -3.51483e-11 1.407e-11 5e-05 1.46608e-10 
134 1 0.183257 0.0170297 0.00738936 0.005695 0.000447649 -3.60152e-06 1.15717e-10 -8.66466e-11 4.75702e-11 5e-05 1.46608e-10 
135 1 0.182653 0.0151854 0.00898833 0.00626617 0.000405038 -1.85239e-05 -2.12736e-11 -1.70822e-10 1.73865e-10 5e-05 1.46608e-10 
136 1 0.177562 0.0187995 0.00687973 0.00561813 -0.000310221 0.000225188 -4.13928e-10 3.45341e-10 -8.77395e-11 5e-05 1.46608e-10 
137 1 0.182967 0.0161852 0.00793327 0.00583969 9.07641e-05 -0.000390467 3.75673e-11 -1.01326e-11 -2.91202e-11 5e-05 1.46608e-10 
138 1 0.183379 0.017981 0.00695776 0.00619567 0.000189885 -0.000304064 1.12913e-10 1.85319e-10 -3.82042e-11 5e-05 1.46608e-10 
140 1 0.18347 0.0175861 0.00711464 0.00569231 0.000407703 1.59083e-05 -1.07792e-10 -3.52129e-10 2.17981e-10 5e-05 1.46608e-10 
141 1 0.177559 0.0183594 0.00695023 0.0061355 -0.000409129 0.000250098 1.28533e-10 -1.18256e-11 -3.12303e-11 5e-05 1.46608e-10 
142 1 0.177267 0.0174842 0.00720044 0.00551285 -0.00042612 6.78816e-06 1.6423e-11 9.40838e-11 -3.16117e-11 5e-05 1.46608e-10 
143 1 0.176749 0.0154477 0.00864679 0.00611423 -0.000475712 0.000356642 -2.8318e-11 -1.40196e-14 2.78685e-12 5e-05 1.46608e-10 
144 1 0.177392 0.0180434 0.00705957 0.00606964 -0.000436348 3.17786e-06 -7.38382e-11 2.94338e-10 -7.35884e-11 5e-05 1.46608e-10 
147 1 0.177625 0.0186494 0.00690575 0.0060615 -0.00045634 0.00025903 1.09523e-09 4.08302e-10 3.04596e-11 5e-05 1.46608e-10 
148 1 0.17736 0.0170721 0.00731507 0.00558228 -0.000495882 2.51027e-05 8.03253e-11 -5.0546e-11 1.89038e-11 5e-05 1.46608e-10 
149 1 0.183124 0.0168245 0.00748941 0.00562543 0.000457319 -1.00891e-05 1.03986e-11 1.14701e-10 3.16955e-11 5e-05 1.46608e-10 
150 1 0.0100679 0.0201683 0.00551526 8.38463e-15 1.24683e-15 -8.48743e-14 -1.89993e-23 7.18419e-23 -8.27181e-25 5e-05 1.46608e-10 
151 1 0.177228 0.0172956 0.00725457 0.00553987 -0.000429919 6.95987e-06 -2.55106e-11 -5.50846e-11 1.99208e-11 5e-05 1.46608e-10 
153 1 0.1776 0.0189937 0.00684976 0.00570746 -0.00018837 0.000208036 -2.16833e-10 1.67414e-10 3.65419e-12 5e-05 1.46608e-10 
154 1 0.177349 0.0178582 0.00711066 0.0060023 -0.000475141 8.76663e-06 4.73163e-11 3.10251e-10 -7.70332e-11 5e-05 1.46608e-10 
155 1 0.177555 0.0175704 0.00717011 0.0059217 -0.000586718 4.37144e-05 -2.9586e-10 9.17212e-11 -2.17031e-11 5e-05 1.46608e-10 
156 1 0.177516 0.0181708 0.0070013 0.00606124 -0.000514566 5.82003e-05 -5.99627e-11 3.53581e-10 -9.54762e-11 5e-05 1.46608e-10 
157 1 0.0219312 0.0187687 0.00551176 -3.83566e-14 8.16496e-14 2.95889e-13 1.19577e-21 6.41013e-22 -2.25407e-23 5e-05 1.46608e-10 
158 1 0.177769 0.0184147 0.00694786 0.00504366 -0.000101207 0.000172537 -5.86107e-10 -3.9058e-11 -1.20302e-11 5e-05 1.46608e-10 
159 1 0.183753 0.0184581 0.00688843 0.00631447 0.000151823 -8.45389e-05 -3.32138e-11 1.14282e-10 -3.88516e-12 5e-05 1.46608e-10 
160 1 0.17737 0.0179462 0.00706764 0.00603996 -0.000458591 6.51049e-06 -7.84417e-13 2.76328e-10 -5.66763e-11 5e-05 1.46608e-10 
162 1 0.177676 0.01893 0.00686233 0.00557159 -0.000340534 0.000227095 -7.00822e-10 2.59193e-10 -8.81572e-11 5e-05 1.46608e-10 
164 1 0.177225 0.0168544 0.00737945 0.00554435 -0.000447152 1.4857e-05 2.00487e-11 -9.67446e-11 2.56612e-11 5e-05 1.46608e-10 
165 1 0.177569 0.0180119 0.00704494 0.00599729 -0.000580318 4.15077e-05 -2.39875e-10 2.49313e-10 -7.0916e-11 5e-05 1.46608e-10 
166 1 0.183487 0.0184646 0.00689258 0.00633775 0.00018262 -7.46347e-05 -3.86696e-11 -1.19534e-10 5.32941e-11 5e-05 1.46608e-10 
168 1 0.177284 0.0171372 0.00729822 0.00558619 -0.000468457 1.72368e-05 1.94684e-11 -9.3259e-11 3.22163e-11 5e-05 1.46608e-10 
169 1 0.177776 0.018764 0.00689206 0.00574103 -0.000311853 0.00022808 -7.51402e-10 2.63284e-10 -6.57127e-11 5e-05 1.46608e-10 
170 1 0.177643 0.0179467 0.00706187 0.00599447 -0.000597501 4.59015e-05 -1.96835e-10 2.17264e-10 -5.78694e-11 5e-05 1.46608e-10 
171 1 0.183359 0.017888 0.00698841 0.0058902 0.000301592 -0.000154918 6.17252e-11 1.44596e-10 1.116e-10 5e-05 1.46608e-10 
172 1 0.177546 0.0179185 0.00707185 0.00596436 -0.000567378 3.67351e-05 -1.95472e-10 1.31927e-10 -3.35507e-11 5e-05 1.46608e-10 
173 1 0.183645 0.0179748 0.00694738 0.0062617 0.000196111 -0.000128374 1.75446e-10 4.21156e-11 1.00123e-09 5e-05 1.46608e-10 
174 1 0.177577 0.0176653 0.00714283 0.00596153 -0.000606923 4.8546e-05 -1.36991e-10 2.05734e-10 -5.41126e-11 5e-05 1.46608e-10 
175 1 0.17109 0.0167933 0.00788523 0.00591389 -0.000455187 0.00135342 -3.2752e-13 -2.22699e-12 7.25703e-13 5e-05 1.46608e-10 
177 1 0.177398 0.0172607 0.00726093 0.00562009 -0.000507055 2.73438e-05 9.47812e-11 -1.61382e-11 1.24275e-11 5e-05 1.46608e-10 
178 1 0.177323 0.0173258 0.00724409 0.00565347 -0.000474493 1.7813e-05 -5.68511e-11 1.19234e-11 -2.48042e-12 5e-05 1.46608e-10 
179 1 0.177407 0.0177015 0.00713608 0.00594613 -0.000527063 2.74862e-05 -3.11656e-10 1.32382e-10 -2.2509e-11 5e-05 1.46608e-10 
181 1 0.177698 0.0185832 0.00691864 0.00586881 -0.000449587 0.000253547 5.3545e-10 -1.16029e-09 1.87842e-10 5e-05 1.46608e-10 
182 1 0.183319 0.0177057 0.0070604 0.00572219 0.000418064 5.20696e-05 1.87647e-10 4.35187e-11 2.30571e-10 5e-05 1.46608e-10 
183 1 0.17762 0.0178531 0.00708881 0.00600417 -0.00059923 4.58594e-05 -6.47673e-11 1.48111e-10 -3.87953e-11 5e-05 1.46608e-10 
184 1 0.183375 0.017556 0.00712623 0.00570321 0.000411852 1.50623e-05 -8.98617e-11 -1.46352e-10 8.24479e-11 5e-05 1.46608e-10 
186 1 0.177209 0.0172014 0.00728163 0.00555191 -0.000436975 8.90492e-06 -1.84522e-11 6.58102e-11 -7.23088e-12 5e-05 1.46608e-10 
187 1 0.183221 0.0172627 0.00726939 0.00569245 0.00042917 4.94182e-06 -1.21823e-11 4.19191e-11 -3.51132e-11 5e-05 1.46608e-10 
188 1 0.183352 0.0170599 0.00737776 0.00563781 0.000466904 -1.57287e-05 1.5359e-10 -1.42904e-10 7.86787e-11 5e-05 1.46608e-10 
189 1 0.183548 0.0179439 0.00695355 0.00634674 0.000170555 -0.000230412 5.889e-11 5.01249e-11 -8.08138e-10 5e-05 1.46608e-10 
190 1 0.171371 0.0179788 0.00733126 0.00557873 -0.000781959 0.00145729 2.36917e-13 1.15822e-13 -1.44526e-14 5e-05 1.46608e-10 
191 1 0.183391 0.0172353 0.00729004 0.00566567 0.000438302 2.49308e-07 5.66884e-11 -1.67527e-10 8.74464e-11 5e-05 1.46608e-10 
192 1 0.177525 0.0178244 0.00709888 0.00599941 -0.00057078 3.73864e-05 -1.16884e-10 1.81678e-10 -5.99654e-11 5e-05 1.46608e-10 
193 1 0.183545 0.0175285 0.00714693 0.00568597 0.000430559 4.94978e-06 -5.60624e-12 -1.25983e-10 4.74255e-11 5e-05 1.46608e-10 
194 1 0.161461 0.0182058 0.00533758 1.3823e-15 -1.10318e-14 8.66684e-14 1.17579e-22 4.87003e-23 3.72231e-24 5e-05 1.46608e-10 
195 1 0.177729 0.018324 0.00696117 0.00597236 -0.000492346 0.000264866 -3.69616e-10 1.34172e-10 -1.69442e-11 5e-05 1.46608e-10 
196 1 0.177133 0.0164771 0.00769303 0.00546676 -0.000246298 0.000433767 -5.22241e-11 4.20869e-12 -8.36806e-12 5e-05 1.46608e-10 
197 1 0.17116 0.0170581 0.00776278 0.0059507 -0.000461106 0.00136338 6.24852e-13 4.22265e-12 -1.88544e-12 5e-05 1.46608e-10 
198 1 0.177581 0.0188966 0.00686475 0.0056625 -0.000245629 0.000215225 1.80561e-10 3.05356e-10 -6.72033e-11 5e-05 1.46608e-10 
199 1 0.177476 0.0184135 0.00693896 0.00617976 -0.000358905 0.000251998 -1.19638e-10 -4.95216e-10 4.2417e-11 5e-05 1.46608e-10 
201 1 0.177111 0.0167441 0.00745258 0.00546835 -0.000281445 0.000349847 -8.83109e-11 -1.64843e-10 -1.68895e-11 5e-05 1.46608e-10 
202 1 0.177612 0.0181997 0.00699094 0.00609085 -0.000573318 3.58581e-05 -1.48254e-10 1.93161e-10 -4.82492e-11 5e-05 1.46608e-10 
203 1 0.183045 0.0164789 0.00767323 0.00572874 0.000364674 -0.000100912 3.3132e-11 8.19106e-11 6.25437e-11 5e-05 1.46608e-10 
204 1 0.176814 0.0156565 0.00844139 0.00609927 -0.000450517 0.000341642 -3.87694e-11 1.53833e-10 -2.66452e-10 5e-05 1.46608e-10 
205 1 0.177686 0.0181344 0.00700787 0.00604021 -0.000617008 4.68043e-05 -3.75588e-10 1.28225e-10 -6.02669e-11 5e-05 1.46608e-10 
206 1 0.177189 0.0166957 0.0074953 0.00549722 -0.000258562 0.000446896 9.4477e-11 -2.75724e-11 5.37102e-11 5e-05 1.46608e-10 
207 1 0.177303 0.0172315 0.00727116 0.00560493 -0.000468309 1.70957e-05 -6.1887e-12 -5.06221e-12 -5.92089e-12 5e-05 1.46608e-10 
208 1 0.177495 0.0180768 0.00702811 0.0060152 -0.000537646 2.93804e-05 -1.28708e-10 3.6204e-10 -1.19005e-10 5e-05 1.46608e-10 
209 1 0.174412 0.0184374 0.00695761 0.00539587 -0.00114236 0.000331908 -9.56161e-13 5.98024e-13 -1.68465e-13 5e-05 1.46608e-10 
210 1 0.183261 0.0174382 0.00718168 0.00570454 0.000416797 1.17772e-05 1.28256e-11 -3.29846e-11 9.07769e-12 5e-05 1.46608e-10 
211 1 0.183202 0.017175 0.00731324 0.00569442 0.000434048 3.31234e-06 5.24463e-11 2.76418e-11 1.60446e-12 5e-05 1.46608e-10 
212 1 0.177633 0.0182938 0.00696387 0.00604115 -0.000556346 3.34478e-05 1.65096e-10 -2.42339e-11 3.32025e-11 5e-05 1.46608e-10 
213 1 0.183518 0.018204 0.00691846 0.00631851 0.000161811 -0.00034417 1.75753e-11 -3.60002e-12 -5.2826e-11 5e-05 1.46608e-10 
214 1 0.183143 0.0169119 0.00744482 0.00563067 0.000453751 -7.76011e-06 5.32201e-11 7.91453e-11 -7.4105e-12 5e-05 1.46608e-10 
215 1 0.17135 0.0178868 0.00737434 0.00553989 -0.00075699 0.00143715 3.54816e-13 9.27582e-14 1.97127e-14 5e-05 1.46608e-10 
216 1 0.17759 0.0181058 0.00701794 0.00601717 -0.000578926 2.42161e-05 -2.89685e-10 2.27409e-10 1.12104e-10 5e-05 1.46608e-10 
217 1 0.18353 0.0186593 0.00687893 0.00634071 0.000182792 -8.76868e-05 -6.81059e-11 -1.71695e-10 -2.56e-11 5e-05 1.46608e-10 
218 1 0.176918 0.0160147 0.00810847 0.0056834 -0.000229239 0.000425164 8.82145e-11 -9.59057e-11 1.00575e-10 5e-05 1.46608e-10 
219 1 0.183088 0.01665 0.0075801 0.0056234 0.000453955 -9.02596e-06 1.45921e-10 3.50443e-11 -1.25864e-11 5e-05 1.46608e-10 
220 1 0.177707 0.0182284 0.00698085 0.00611173 -0.000578423 3.25764e-05 -9.22408e-11 9.2436e-11 -1.13586e-11 5e-05 1.46608e-10 
221 1 0.237278 0.0174776 0.00708437 0.0057194 0.000262879 -8.66372e-05 4.93871e-13 2.69887e-14 -8.35888e-15 5e-05 1.46608e-10 
222 1 0.183592 0.0181373 0.00692377 0.00630767 0.000149832 -0.000360677 6.66765e-11 -1.72319e-12 5.25719e-11 5e-05 1.46608e-10 
223 1 0.17745 0.0178891 0.00708212 0.00602695 -0.00051638 2.11053e-05 6.33277e-11 2.82267e-10 -7.67737e-11 5e-05 1.46608e-10 
224 1 0.111873 0.0169815 0.00818485 -0.0129935 0.0155396 -0.00654767 -5.59799e-10 3.68951e-10 -2.5573e-10 5e-05 1.46608e-10 
225 1 0.183411 0.017323 0.00724619 0.00567343 0.000432017 3.31768e-06 3.87894e-11 -1.13186e-10 5.95358e-11 5e-05 1.46608e-10 
226 1 0.177248 0.0173899 0.0072275 0.00552446 -0.000430171 7.6811e-06 -5.56469e-11 -2.01852e-10 6.08141e-11 5e-05 1.46608e-10 
227 1 0.171358 0.0175549 0.00754577 0.00542633 -0.000668383 0.00137025 7.13487e-13 2.90308e-14 1.20286e-13 5e-05 1.46608e-10 
228 1 0.171113 0.0168815 0.0078444 0.0059146 -0.000455582 0.00135379 1.55235e-12 7.69236e-13 -7.9287e-13 5e-05 1.46608e-10 
229 1 0.177677 0.0184867 0.00693345 0.00603415 -0.00045076 0.000258093 7.31957e-10 2.61505e-10 -4.18308e-12 5e-05 1.46608e-10 
230 1 0.177075 0.0165963 0.00758208 0.00548208 -0.000227054 0.000413612 3.08999e-11 -3.89102e-11 2.70594e-11 5e-05 1.46608e-10 
231 1 0.171067 0.016705 0.00792606 0.0059132 -0.000454966 0.00135313 -1.07993e-12 -2.15656e-12 1.68401e-12 5e-05 1.46608e-10 
232 1 0.177454 0.0183191 0.00696397 0.00618084 -0.000370361 0.000207866 2.10115e-11 -1.11829e-10 -9.10876e-11 5e-05 1.46608e-10 
234 1 0.183454 0.0179155 0.00697062 0.00610439 0.000144088 2.47931e-05 -1.60308e-10 1.81245e-10 2.71273e-11 5e-05 1.46608e-10 
235 1 0.177664 0.0180406 0.00703487 0.00600862 -0.000608551 5.00691e-05 -2.74095e-10 1.59896e-10 -4.47484e-11 5e-05 1.46608e-10 
236 1 0.177037 0.0164506 0.00771362 0.00551505 -0.000212975 0.000405589 -5.93064e-11 1.473e-10 -1.31989e-10 5e-05 1.46608e-10 
237 1 0.176999 0.0163055 0.00784619 0.00557152 -0.000212228 0.000415486 2.28135e-11 1.36896e-10 -1.23467e-10 5e-05 1.46608e-10 
239 1 0.170885 0.0159517 0.00827739 0.00601926 0.000840289 0.000709797 -7.84969e-13 1.41638e-12 -8.74191e-13 5e-05 1.46608e-10 
240 1 0.170905 0.0160427 0.00823461 0.00594538 0.000769099 0.000732268 -8.79573e-13 1.3976e-12 -8.8249e-13 5e-05 1.46608e-10 
241 1 0.170965 0.016313 0.00810744 0.00572948 0.00057414 0.000791233 -1.16135e-12 1.35166e-12 -9.12329e-13 5e-05 1.46608e-10 
242 1 0.17731 0.0176756 0.00716954 0.00591481 -0.00047736 2.07249e-06 3.92073e-10 4.97218e-10 -1.60084e-10 5e-05 1.46608e-10 
244 1 0.170925 0.0161334 0.00819192 0.00586451 0.000665636 0.000769944 -9.69774e-13 1.36957e-12 -8.85208e-13 5e-05 1.46608e-10 
246 1 0.171043 0.0166137 0.00796819 0.00613064 -0.000414933 0.00137384 7.91231e-13 8.70191e-13 -3.2147e-13 5e-05 1.46608e-10 
247 1 0.177866 0.0185508 0.00692903 0.00595502 -0.000332014 0.000237799 -7.50844e-10 2.64007e-10 -6.67741e-11 5e-05 1.46608e-10 
248 1 0.177093 0.0166691 0.00751593 0.00550665 -0.000232202 0.000423877 -8.82918e-11 -9.46817e-11 6.99444e-11 5e-05 1.46608e-10 
249 1 0.171329 0.0177954 0.00741711 0.00550185 -0.000729948 0.00141609 4.72484e-13 7.06038e-14 5.33032e-14 5e-05 1.46608e-10 
250 1 0.177379 0.0171664 0.00728801 0.00559551 -0.000501457 2.65167e-05 1.03978e-10 -3.08112e-11 -1.15089e-13 5e-05 1.46608e-10 
251 1 0.183067 0.0165609 0.00762044 0.00566231 0.000446189 -3.45947e-06 1.57426e-10 1.63899e-11 1.12765e-12 5e-05 1.46608e-10 
252 1 0.171201 0.0172452 0.0076747 0.00525821 -0.000629593 0.00131853 4.73466e-12 1.52342e-11 -6.92715e-12 5e-05 1.46608e-10 
253 1 0.171393 0.0180712 0.00728801 0.00561826 -0.000804735 0.00147645 1.18948e-13 1.39696e-13 -4.90014e-14 5e-05 1.46608e-10 
254 1 0.171017 0.0165187 0.008012 0.00612569 -0.000430749 0.00138101 3.046e-12 8.6428e-12 -3.81307e-12 5e-05 1.46608e-10 
255 1 0.177412 0.0181305 0.00701465 0.00609429 -0.000421158 -9.68008e-06 -7.11224e-11 2.03999e-10 -1.22708e-10 5e-05 1.46608e-10 
256 1 0.177502 0.0177308 0.00712583 0.00596215 -0.000566123 3.74548e-05 -3.27681e-10 1.97395e-10 -4.51959e-11 5e-05 1.46608e-10 
257 1 0.177459 0.0175432 0.0071798 0.00588264 -0.000545267 3.27509e-05 -1.71704e-10 1.92539e-10 -4.84055e-11 5e-05 1.46608e-10 
258 1 0.177363 0.017514 0.00719001 0.00579563 -0.000499043 2.12591e-05 -4.76188e-11 -4.08022e-11 1.27751e-11 5e-05 1.46608e-10 
259 1 0.171222 0.017335 0.00763268 0.00531822 -0.000558837 0.00129366 9.88546e-13 -3.65408e-13 3.69361e-13 5e-05 1.46608e-10 
261 1 0.17717 0.0170129 0.00733588 0.00554729 -0.00044785 5.05782e-06 3.54714e-12 -6.97419e-11 6.81731e-11 5e-05 1.46608e-10 