ITEM: TIMESTEP
22400000
ITEM: NUMBER OF ATOMS
284
ITEM: BOX BOUNDS ff ff ff
-0.02 0.43
-0.02 0.06
-0.02 0.07
ITEM: ATOMS id type x y z vx vy vz fx fy fz radius mass 
1 1 0.143324 0.0163265 0.00803348 0.00553575 0.000309681 0.00163753 -1.35154e-11 -6.41684e-11 2.475e-11 5e-05 1.46608e-10 
2 1 0.143878 0.0174905 0.00731032 0.00505582 0.000718418 0.00119448 2.55942e-08 -1.66613e-08 2.77283e-08 5e-05 1.46608e-10 
3 1 0.137251 0.0160608 0.00826741 0.00541615 0.000159329 0.000360172 1.21325e-10 -1.23315e-10 -2.43718e-10 5e-05 1.46608e-10 
4 1 0.143736 0.0175831 0.00720542 0.00618632 -0.000709098 0.00117991 -7.45386e-09 1.5491e-09 -7.68966e-10 5e-05 1.46608e-10 
5 1 0.143303 0.0162461 0.00808934 0.0055009 0.000323802 0.00161794 -2.4375e-11 -1.57528e-10 1.29246e-10 5e-05 1.46608e-10 
6 1 0.14963 0.0175422 0.00729188 0.00587319 -0.00081678 0.000145693 5.33369e-13 4.65152e-13 -1.53234e-13 5e-05 1.46608e-10 
7 1 0.143469 0.0168879 0.00764305 0.00581378 0.000328036 0.0017105 -2.14416e-10 -2.40571e-10 -6.0884e-12 5e-05 1.46608e-10 
8 1 0.143203 0.0158618 0.0083939 0.00551589 -0.000568202 0.000751313 3.7599e-10 7.91872e-11 -3.01845e-10 5e-05 1.46608e-10 
9 1 0.14976 0.0180963 0.00710195 0.00591804 -0.000826533 0.000147998 -2.33712e-14 1.34668e-12 -6.51104e-13 5e-05 1.46608e-10 
10 1 0.143408 0.0166634 0.00784269 0.00568677 0.000314616 0.00169886 6.85434e-10 2.36064e-09 -1.13383e-09 5e-05 1.46608e-10 
11 1 0.143921 0.0176758 0.00717968 0.00551386 0.000179786 0.00170375 -7.63935e-10 -4.29528e-10 4.40405e-11 5e-05 1.46608e-10 
12 1 0.137444 0.0167511 0.00757143 0.00604214 7.73601e-05 0.000542997 2.00373e-10 3.43941e-10 -1.442e-10 5e-05 1.46608e-10 
13 1 0.143283 0.0161658 0.00814521 0.00545301 0.000339289 0.00158435 3.50752e-11 6.95375e-11 -3.26126e-11 5e-05 1.46608e-10 
14 1 0.13718 0.0158118 0.00849185 0.00603398 0.00120084 -0.000594471 -8.02016e-12 2.43729e-10 -2.44593e-10 5e-05 1.46608e-10 
15 1 0.143603 0.0171056 0.00755284 0.00588507 0.000438792 0.00160858 -3.45376e-10 4.01825e-10 5.03038e-11 5e-05 1.46608e-10 
16 1 0.13716 0.0157419 0.00856027 0.00606817 0.00118815 -0.00057812 4.88195e-11 1.98168e-10 -1.90812e-10 5e-05 1.46608e-10 
17 1 0.143386 0.016568 0.00786553 0.00563259 0.000227505 0.00173965 -1.46696e-10 -3.0015e-10 2.09143e-10 5e-05 1.46608e-10 
19 1 0.143262 0.0160905 0.00821329 0.00537691 0.000331453 0.00155 -1.67447e-10 1.80434e-10 9.21369e-11 5e-05 1.46608e-10 
21 1 0.143396 0.0162855 0.00808989 0.00552239 0.000265369 0.00166604 -2.07944e-10 -9.7972e-11 -5.17236e-11 5e-05 1.46608e-10 
22 1 0.143513 0.0170802 0.00758768 0.00581341 0.000351958 0.00165667 2.94722e-10 -2.02876e-10 -1.58089e-10 5e-05 1.46608e-10 
23 1 0.137645 0.0171763 0.00727473 0.00620062 -0.00035026 -0.000150834 1.28866e-10 -3.36082e-11 -1.67568e-10 5e-05 1.46608e-10 
24 1 0.149847 0.0183658 0.00700901 0.000471366 0.00172774 -0.000593725 -1.88484e-11 -4.77109e-11 1.65113e-11 5e-05 1.46608e-10 
25 1 0.143446 0.0167987 0.00770503 0.00572323 0.000173915 0.00181203 -1.72775e-10 -4.27951e-10 1.84584e-10 5e-05 1.46608e-10 
26 1 0.149717 0.0179116 0.00716526 0.0059031 -0.000823285 0.000147237 -9.79263e-14 9.19563e-13 -3.29461e-13 5e-05 1.46608e-10 
27 1 0.137526 0.0170548 0.00732174 0.00619926 -0.000351301 -0.000405133 -4.86657e-10 -4.11757e-10 -2.65997e-10 5e-05 1.46608e-10 
28 1 0.143715 0.0174954 0.00725092 0.00593702 0.000186882 0.00177362 -7.19801e-10 -2.86907e-10 -3.60537e-10 5e-05 1.46608e-10 
29 1 0.143243 0.0160036 0.00825858 0.005248 0.00034821 0.00152207 -2.36023e-10 9.04649e-11 -3.29826e-10 5e-05 1.46608e-10 
30 1 0.143762 0.01737 0.00736515 0.00600286 0.000256156 0.00183636 4.55558e-10 -2.39502e-10 4.79047e-10 5e-05 1.46608e-10 
31 1 0.143491 0.016985 0.007614 0.00581717 0.000328143 0.00166643 2.80165e-10 -4.6498e-10 -2.44471e-10 5e-05 1.46608e-10 
32 1 0.143584 0.0170098 0.00758683 0.00583626 0.000395934 0.00167941 5.23652e-10 1.39019e-10 4.02813e-11 5e-05 1.46608e-10 
33 1 0.149652 0.0176345 0.00726023 0.00588067 -0.000818404 0.000146079 4.53132e-13 4.81131e-13 -1.82166e-13 5e-05 1.46608e-10 
34 1 0.143366 0.0164872 0.0079217 0.00562438 0.000364707 0.00162329 3.10217e-12 5.66482e-11 -5.37905e-11 5e-05 1.46608e-10 
35 1 0.143566 0.0169262 0.0076459 0.00580057 0.000343687 0.00168951 -1.05496e-10 3.68434e-11 -4.19919e-12 5e-05 1.46608e-10 
36 1 0.149803 0.0182809 0.00703864 0.00593302 -0.000829769 0.000148753 -1.26108e-13 4.42273e-13 -1.67892e-13 5e-05 1.46608e-10 
37 1 0.14352 0.0167752 0.00776762 0.00574723 0.000267395 0.00179002 2.19763e-10 -1.5575e-10 2.64073e-10 5e-05 1.46608e-10 
38 1 0.1437 0.0171285 0.00753304 0.00595178 0.000411518 0.00168749 -4.46085e-10 3.14121e-10 -3.19709e-10 5e-05 1.46608e-10 
39 1 0.149849 0.0180532 0.0071145 0.00591807 -0.00082652 0.000147988 -3.37287e-13 2.3818e-13 -5.20417e-14 5e-05 1.46608e-10 
41 1 0.143513 0.0170815 0.00768767 0.00585205 0.000453594 0.00165814 2.14819e-11 4.10351e-11 3.87852e-11 5e-05 1.46608e-10 
42 1 0.143528 0.017119 0.00748228 0.005958 0.000408083 0.00170259 3.03414e-13 5.22843e-13 -3.05606e-13 5e-05 1.46608e-10 
44 1 0.14372 0.0172088 0.00747706 0.00592062 0.000398158 0.0016942 -1.88979e-11 3.55532e-12 2.84698e-11 5e-05 1.46608e-10 
45 1 0.149673 0.0177269 0.00722857 0.00588815 -0.00082003 0.000146455 2.95558e-13 5.02179e-13 -2.0769e-13 5e-05 1.46608e-10 
47 1 0.143345 0.0164068 0.00797762 0.00557358 0.00030729 0.00165684 -1.79647e-10 -1.49278e-10 6.51946e-11 5e-05 1.46608e-10 
48 1 0.143575 0.0173156 0.00740224 0.00596974 0.000392705 0.00163354 -6.56815e-11 3.62022e-10 4.44955e-10 5e-05 1.46608e-10 
50 1 0.143637 0.0175567 0.00723504 0.00601457 7.14091e-05 0.00161449 5.36077e-10 1.67633e-09 3.15436e-09 5e-05 1.46608e-10 
51 1 0.143616 0.0174756 0.00728977 0.00603649 0.000268067 0.00184133 -5.67277e-11 -9.12516e-10 4.42003e-10 5e-05 1.46608e-10 
52 1 0.137425 0.0166811 0.00764009 0.00597264 8.55234e-05 0.000522387 1.95756e-11 1.95858e-11 2.32673e-11 5e-05 1.46608e-10 
53 1 0.149824 0.017955 0.00714821 0.00591055 -0.000824941 0.000147622 -5.90092e-13 -4.47658e-13 1.30712e-13 5e-05 1.46608e-10 
54 1 0.143376 0.0162056 0.00814656 0.00549017 0.000263432 0.00165106 -2.9929e-10 5.22209e-11 -2.25527e-10 5e-05 1.46608e-10 
55 1 0.137222 0.0159516 0.00835513 0.00477785 0.00132577 -0.00085302 -4.19336e-10 1.51792e-10 -2.37099e-10 5e-05 1.46608e-10 
56 1 0.14354 0.0168461 0.00769982 0.00578944 0.000304369 0.00171845 -2.25736e-10 3.55559e-10 -1.53898e-10 5e-05 1.46608e-10 
57 1 0.149695 0.0178192 0.00719692 0.00589563 -0.000821657 0.000146841 2.06417e-13 4.834e-13 -1.02029e-13 5e-05 1.46608e-10 
59 1 0.143617 0.0168072 0.00775648 0.00577785 0.000331154 0.00170296 -2.4629e-10 1.32264e-10 -8.09401e-11 5e-05 1.46608e-10 
60 1 0.143639 0.0168875 0.00770124 0.00581152 0.000349298 0.00169931 -1.72547e-10 2.03095e-10 -2.35203e-10 5e-05 1.46608e-10 
61 1 0.143487 0.0169795 0.00771377 0.00582353 0.000364786 0.00164813 1.10997e-10 -1.38937e-10 1.90023e-10 5e-05 1.46608e-10 
62 1 0.143742 0.0172897 0.00742113 0.00589611 0.0003502 0.00172127 1.35652e-09 -1.04264e-09 1.20125e-09 5e-05 1.46608e-10 
63 1 0.14367 0.0173305 0.00736481 0.00591508 0.000349857 0.00171617 7.52542e-10 -8.1452e-10 8.03547e-10 5e-05 1.46608e-10 
64 1 0.149877 0.0181595 0.00707801 0.00602169 -0.000539659 4.88483e-05 7.05874e-13 3.73554e-12 -1.27911e-12 5e-05 1.46608e-10 
65 1 0.137558 0.0168488 0.00748458 0.00610544 5.26489e-05 0.000580764 2.01689e-10 3.76319e-10 -2.67293e-10 5e-05 1.46608e-10 
66 1 0.137501 0.0166388 0.00769056 0.00606071 5.18207e-05 0.000571559 1.06691e-10 1.60834e-10 -5.34958e-10 5e-05 1.46608e-10 
67 1 0.143901 0.0175842 0.00724463 0.00493658 0.000783887 0.00106063 -4.18494e-10 2.95544e-10 -1.01068e-09 5e-05 1.46608e-10 
68 1 0.143813 0.0175374 0.00725132 0.00554825 0.00027668 0.00189017 -1.05207e-08 7.80974e-09 -1.53091e-08 5e-05 1.46608e-10 
69 1 0.143457 0.0165265 0.00792218 0.005623 0.000224342 0.00173672 -9.02011e-11 1.595e-10 -1.64661e-10 5e-05 1.46608e-10 
70 1 0.149738 0.0180039 0.0071336 0.00591063 -0.000824864 0.000147581 6.68482e-13 1.17131e-12 -2.71e-13 5e-05 1.46608e-10 
71 1 0.137201 0.0158817 0.00842346 0.00481344 0.00132736 -0.000843536 -3.86949e-10 2.73903e-10 -3.19294e-10 5e-05 1.46608e-10 
72 1 0.143785 0.0174533 0.00730784 0.00594841 0.000263447 0.00181259 9.72308e-10 1.25978e-09 -6.78944e-10 5e-05 1.46608e-10 
73 1 0.143425 0.0167184 0.00776089 0.0057119 0.00016643 0.00182403 1.03542e-10 -1.08797e-10 1.16105e-10 5e-05 1.46608e-10 
74 1 0.143626 0.0171674 0.0074776 0.00594035 0.000447935 0.00165783 -8.90609e-11 2.54405e-10 2.24238e-10 5e-05 1.46608e-10 
76 1 0.137766 0.0177374 0.00710791 0.00616538 -0.000265158 8.40781e-05 -2.85691e-11 1.31035e-10 -2.25064e-10 5e-05 1.46608e-10 
77 1 0.143728 0.0179456 0.00710428 0.00619402 0.000141763 -0.000345711 -8.01913e-11 -1.21571e-10 1.20872e-10 5e-05 1.46608e-10 
78 1 0.13727 0.0161213 0.00818882 0.00546609 7.57719e-05 0.00048171 -6.65452e-11 -7.49495e-10 7.09006e-10 5e-05 1.46608e-10 
79 1 0.137464 0.0168212 0.00750277 0.00608713 6.88448e-05 0.000557821 1.60353e-10 3.11475e-10 -3.17972e-10 5e-05 1.46608e-10 
80 1 0.143691 0.0176247 0.00728456 0.00769999 0.000460421 -0.000673995 0 0 -1.43822e-09 5e-05 1.46608e-10 
81 1 0.137407 0.0166201 0.00771724 0.00587719 9.24898e-05 0.000539758 -5.16897e-10 -1.84311e-11 4.10656e-10 5e-05 1.46608e-10 
82 1 0.137547 0.0171469 0.00728927 0.00620232 -0.000436613 -0.000402576 8.28569e-11 2.83304e-10 -2.20253e-10 5e-05 1.46608e-10 
83 1 0.137596 0.0166654 0.00767339 0.00601059 0.000195346 0.000412795 -1.18042e-10 2.66878e-10 -3.03308e-10 5e-05 1.46608e-10 
84 1 0.149782 0.0181886 0.00707029 0.00592553 -0.000828162 0.000148377 -4.71696e-13 5.31281e-13 -5.00434e-14 5e-05 1.46608e-10 
85 1 0.137384 0.0162186 0.00810229 0.00553875 9.00148e-05 0.00047551 -3.00341e-10 -3.13058e-10 2.69492e-10 5e-05 1.46608e-10 
86 1 0.143693 0.0174135 0.00730762 0.00603805 0.00025021 0.00187362 2.84765e-10 -1.02673e-09 8.8113e-10 5e-05 1.46608e-10 
87 1 0.143595 0.0167269 0.00781209 0.00578635 0.000301813 0.00174107 6.33166e-11 2.51653e-11 1.86141e-10 5e-05 1.46608e-10 
88 1 0.143672 0.0177198 0.00726041 0.00628837 0.000512749 -0.000439534 6.73387e-11 -3.27226e-11 2.32746e-10 5e-05 1.46608e-10 
89 1 0.143864 0.0178014 0.00721358 0.00614023 0.000362774 -0.000292527 -6.04825e-10 5.61963e-10 5.80627e-10 5e-05 1.46608e-10 
90 1 0.143855 0.0174101 0.00736523 0.00598006 0.000369984 0.00174442 1.00977e-09 -9.04267e-10 9.83021e-10 5e-05 1.46608e-10 
91 1 0.137484 0.016895 0.00743037 0.00612425 -4.99591e-06 0.000646595 -1.82503e-11 -5.69388e-12 -5.75496e-11 5e-05 1.46608e-10 
92 1 0.143894 0.0178389 0.0071258 0.00617486 0.000172002 -0.000366433 -5.92041e-10 3.20801e-10 2.07601e-10 5e-05 1.46608e-10 
93 1 0.143798 0.01781 0.00713923 0.00614218 0.000159047 -0.000367202 8.58935e-11 1.24021e-10 2.02385e-10 5e-05 1.46608e-10 
94 1 0.143959 0.018124 0.00704267 0.00587952 0.000442202 -0.000421333 -3.76994e-10 2.96192e-10 -6.18036e-11 5e-05 1.46608e-10 
95 1 0.14388 0.0179142 0.00719014 0.00618792 0.000160394 -0.000373195 -3.5112e-11 1.21984e-10 -8.25347e-11 5e-05 1.46608e-10 
96 1 0.143819 0.0179037 0.00711145 0.00617862 0.000175073 -0.000365999 -9.39378e-11 2.46733e-10 3.34759e-11 5e-05 1.46608e-10 
97 1 0.137367 0.016472 0.00784501 0.00576997 9.43432e-05 0.000487152 6.22582e-12 3.40263e-10 -4.23002e-10 5e-05 1.46608e-10 
98 1 0.143737 0.0178097 0.00721849 0.0062041 0.000142063 -0.000355171 -7.58438e-10 3.84551e-10 4.8629e-10 5e-05 1.46608e-10 
99 1 0.137539 0.0167788 0.00755335 0.00611987 5.05918e-05 0.000577351 1.79844e-10 3.04181e-10 -1.94917e-10 5e-05 1.46608e-10 
100 1 0.143814 0.0172495 0.00747717 0.00585013 0.000352059 0.00171176 7.87299e-10 -6.52081e-10 8.06792e-10 5e-05 1.46608e-10 
101 1 0.137482 0.0165687 0.00775918 0.00592309 6.6626e-05 0.00053359 -1.02861e-11 2.09516e-10 -4.69788e-10 5e-05 1.46608e-10 
102 1 0.0643568 0.0187248 0.00531097 4.17708e-15 1.05823e-14 8.29541e-14 3.38049e-21 -2.78837e-22 -1.3359e-22 5e-05 1.46608e-10 
103 1 0.24257 0.0191927 0.00520306 -2.11393e-22 7.53933e-22 -5.81428e-22 0 0 0 5e-05 1.46608e-10 
104 1 0.137843 0.0176749 0.00711198 0.00621659 -0.000233068 0.000209411 -1.00522e-11 1.59154e-10 -1.17961e-11 5e-05 1.46608e-10 
105 1 0.137328 0.0163315 0.00798274 0.00564009 -7.23054e-05 0.000670218 -6.57374e-11 4.92827e-10 -6.27492e-10 5e-05 1.46608e-10 
106 1 0.137919 0.0176113 0.00712563 0.00623223 -0.000236049 0.000201836 -8.65266e-11 8.17609e-11 -2.10577e-11 5e-05 1.46608e-10 
107 1 0.137289 0.0161913 0.00812016 0.00553943 6.53394e-05 0.000500854 -1.5173e-10 -4.33192e-10 4.19196e-10 5e-05 1.46608e-10 
108 1 0.143502 0.0166904 0.00781765 0.0058527 7.15268e-05 0.00158806 5.35203e-10 -1.98416e-10 -2.79548e-10 5e-05 1.46608e-10 
109 1 0.143596 0.0173944 0.00734419 0.00596594 0.000293625 0.00175 -1.01146e-10 -8.09453e-10 1.99085e-09 5e-05 1.46608e-10 
110 1 0.143813 0.0183279 0.00699294 0.00567519 -8.05925e-05 -0.000265373 -5.57812e-11 -2.25173e-10 6.08909e-11 5e-05 1.46608e-10 
111 1 0.143881 0.0181854 0.0070294 0.00583554 0.000365386 -0.000397505 -4.52144e-10 -4.47312e-10 1.50886e-10 5e-05 1.46608e-10 
112 1 0.137386 0.0165421 0.00777635 0.00584128 0.000116611 0.000482617 -2.80534e-10 3.75801e-10 -3.47525e-10 5e-05 1.46608e-10 
113 1 0.137925 0.0188772 0.00689227 0.00559449 -0.000275003 0.000192011 -2.21555e-11 -1.08384e-10 6.04619e-12 5e-05 1.46608e-10 
114 1 0.137784 0.017386 0.00718957 0.0061745 -0.000403457 -0.000391402 -1.82e-10 -8.75385e-11 2.62295e-11 5e-05 1.46608e-10 
115 1 0.143649 0.0172501 0.00742049 0.00591222 0.000376276 0.00169719 5.12332e-10 6.34955e-10 -2.09945e-11 5e-05 1.46608e-10 
116 1 0.143486 0.0166064 0.00786923 0.00572045 0.000251782 0.00176522 3.17659e-10 1.04693e-09 -6.69535e-10 5e-05 1.46608e-10 
117 1 0.143356 0.0161248 0.00820203 0.00538531 0.000269016 0.00160713 -3.43171e-10 1.7565e-10 -2.48235e-10 5e-05 1.46608e-10 
118 1 0.137241 0.0160493 0.00836615 0.00634064 0.000875842 0.000548879 3.34963e-11 -2.67818e-11 -5.38997e-11 5e-05 1.46608e-10 
119 1 0.143656 0.0169678 0.0076442 0.00578925 0.000361884 0.00168273 -4.46373e-10 2.88301e-10 -4.45982e-10 5e-05 1.46608e-10 
120 1 0.143223 0.0159323 0.00832596 0.00536817 -0.000107367 0.00111992 -1.32222e-10 1.33058e-11 -5.81343e-10 5e-05 1.46608e-10 
121 1 0.143183 0.0158008 0.00847048 0.00546684 -0.000580507 0.000762766 -8.50177e-11 1.30684e-10 1.32636e-10 5e-05 1.46608e-10 
122 1 0.143794 0.0182337 0.0070203 0.00563217 -5.61604e-05 -0.000270306 8.98731e-11 7.51426e-11 -1.72151e-11 5e-05 1.46608e-10 
123 1 0.137422 0.0163587 0.00796498 0.00563034 6.34014e-05 0.000508816 5.48522e-10 -3.74528e-10 5.42409e-10 5e-05 1.46608e-10 
124 1 0.143681 0.0177426 0.0071635 0.00628827 0.000474698 -0.000449884 -1.05629e-10 -2.81408e-10 1.42899e-10 5e-05 1.46608e-10 
125 1 0.143338 0.0160435 0.00825956 0.00539244 0.00038884 0.00151974 -2.34619e-10 2.64689e-11 -1.52475e-10 5e-05 1.46608e-10 
126 1 0.143554 0.0172334 0.00745531 0.00595219 0.00045098 0.00168833 1.22916e-10 3.93077e-10 6.70823e-10 5e-05 1.46608e-10 
127 1 0.137347 0.0164018 0.00791383 0.00568773 2.53241e-05 0.000549392 1.50719e-10 2.99641e-10 -2.31112e-10 5e-05 1.46608e-10 
128 1 0.143659 0.0176445 0.00719217 0.00610276 -0.00105305 -0.000610341 6.20558e-10 -1.4192e-10 7.14062e-10 5e-05 1.46608e-10 
129 1 0.143901 0.0180089 0.00716279 0.00624717 0.000168163 -0.000384508 1.86742e-11 2.40692e-10 -1.84601e-10 5e-05 1.46608e-10 
130 1 0.137666 0.0172672 0.00723911 0.00616942 -0.0004311 -0.000393439 5.82309e-12 -4.1457e-11 1.44445e-10 5e-05 1.46608e-10 
131 1 0.137521 0.0167131 0.00762653 0.00613685 4.60188e-05 0.000587659 -1.19068e-10 3.93161e-10 -1.93006e-10 5e-05 1.46608e-10 
132 1 0.143749 0.0176835 0.00720795 0.00549159 8.87156e-05 -0.000728081 2.26027e-10 -5.23935e-10 -4.11886e-11 5e-05 1.46608e-10 
133 1 0.143509 0.0164056 0.00803434 0.00555886 0.000249363 0.00169121 -1.953e-10 -2.01338e-10 8.17862e-11 5e-05 1.46608e-10 
134 1 0.143677 0.0170481 0.00758835 0.00580302 0.000374223 0.00166244 -6.06704e-10 1.28342e-10 -3.74801e-10 5e-05 1.46608e-10 
135 1 0.143318 0.0159632 0.00831573 0.00526984 0.000409644 0.00148116 3.43121e-10 -2.42099e-10 1.02928e-10 5e-05 1.46608e-10 
136 1 0.137365 0.0161485 0.00817105 0.00552694 0.00010102 0.000462395 -3.22202e-10 -1.39898e-10 1.29644e-10 5e-05 1.46608e-10 
137 1 0.143751 0.0180422 0.00707609 0.00622234 0.000235181 -0.000380162 -1.20344e-10 -7.6872e-12 6.80955e-12 5e-05 1.46608e-10 
138 1 0.143437 0.0164461 0.00797815 0.0055767 0.000237215 0.00170725 -3.32092e-10 -1.9861e-10 3.96591e-11 5e-05 1.46608e-10 
140 1 0.143906 0.0182901 0.00699883 0.00576588 0.000136204 -0.000329996 6.12842e-11 2.92412e-11 -9.95534e-12 5e-05 1.46608e-10 
141 1 0.137403 0.0162887 0.00803362 0.00555653 7.51478e-05 0.000492385 4.29811e-10 -5.35668e-10 4.65573e-10 5e-05 1.46608e-10 
142 1 0.137806 0.0174781 0.0071571 0.00617002 -0.000383004 -0.000397672 -5.09158e-11 -5.63244e-11 -5.33061e-11 5e-05 1.46608e-10 
143 1 0.137308 0.0162613 0.0080515 0.00557282 6.11945e-05 0.000506232 1.87116e-11 -1.19665e-10 2.16303e-10 5e-05 1.46608e-10 
144 1 0.137762 0.0172939 0.00722204 0.00616313 -0.00040243 -0.000391159 -5.79139e-11 -9.17462e-11 3.12024e-11 5e-05 1.46608e-10 
146 1 0.137616 0.0167355 0.0076047 0.00608007 0.000178856 0.000434824 7.97675e-11 2.2292e-10 -1.44002e-10 5e-05 1.46608e-10 
147 1 0.137346 0.0160784 0.00823986 0.00545813 0.000118812 0.000440882 4.60356e-10 -5.1769e-11 2.578e-10 5e-05 1.46608e-10 
148 1 0.137612 0.017423 0.00719186 0.0061681 -0.000422451 -0.000386453 -2.22951e-10 -7.85067e-11 4.80517e-11 5e-05 1.46608e-10 
149 1 0.143861 0.0180913 0.00705676 0.00628048 0.000260082 -0.000390632 -3.95297e-10 1.97112e-11 -3.15092e-12 5e-05 1.46608e-10 
150 1 0.137658 0.0168753 0.00746798 0.00608836 0.000155661 0.000465273 -8.55714e-11 -1.01455e-10 4.52351e-11 5e-05 1.46608e-10 
151 1 0.138029 0.0177485 0.0071031 0.00615205 -5.40583e-05 0.000166206 1.51023e-10 -4.36368e-11 1.39817e-11 5e-05 1.46608e-10 
153 1 0.137462 0.0164987 0.00782776 0.00586701 5.8843e-05 0.000545916 -3.25031e-10 2.26951e-10 -3.41921e-10 5e-05 1.46608e-10 
154 1 0.137732 0.0175436 0.00714199 0.0061982 -0.000374403 -0.000391357 6.7927e-11 4.4149e-11 1.59853e-11 5e-05 1.46608e-10 
155 1 0.137773 0.0178334 0.00708094 0.00599795 -0.000204729 0.000196424 5.97537e-11 1.35652e-10 -7.73129e-11 5e-05 1.46608e-10 
156 1 0.13771 0.0174513 0.00717415 0.00616983 -0.000420295 -0.000388974 -2.775e-10 -1.19961e-10 5.21725e-11 5e-05 1.46608e-10 
157 1 0.0219312 0.0187687 0.00551176 -3.82996e-14 8.16559e-14 2.95895e-13 9.54541e-22 2.7876e-22 3.99115e-23 5e-05 1.46608e-10 
158 1 0.137985 0.0182377 0.00701175 0.0057486 -0.000208724 0.000183824 -2.47425e-10 -2.83783e-10 8.92067e-11 5e-05 1.46608e-10 
159 1 0.143827 0.017623 0.00718965 0.00567808 0.000221762 -0.000337373 2.88623e-11 4.08648e-10 -1.83091e-11 5e-05 1.46608e-10 
160 1 0.137676 0.017705 0.0071381 0.00612765 -0.000378553 -9.38087e-05 5.82565e-11 1.29027e-10 -1.67084e-10 5e-05 1.46608e-10 
162 1 0.137634 0.017515 0.0071594 0.00618312 -0.000421934 -0.000422672 -1.83249e-10 2.43316e-12 1.01196e-10 5e-05 1.46608e-10 
164 1 0.137872 0.0181608 0.00702307 0.00569372 -0.000183072 0.000177331 -6.21854e-11 1.19524e-10 -2.40585e-11 5e-05 1.46608e-10 
165 1 0.13813 0.0180232 0.00705498 0.00597968 3.25998e-05 0.000144901 -6.38192e-11 6.10066e-12 -2.4715e-12 5e-05 1.46608e-10 
166 1 0.143468 0.0162448 0.00814616 0.00550249 0.000230001 0.00168798 -3.21266e-10 -1.22549e-10 -3.54006e-11 5e-05 1.46608e-10 
167 1 0.137637 0.0168054 0.00753639 0.00604392 0.000172715 0.000440804 6.91441e-10 2.09736e-11 9.47937e-11 5e-05 1.46608e-10 
168 1 0.137936 0.0177117 0.00710753 0.00618441 -0.000150226 0.00018389 -4.38765e-11 2.57336e-11 -3.34603e-11 5e-05 1.46608e-10 
169 1 0.137943 0.0189739 0.00687492 0.005649 -0.000265006 0.00019243 2.96414e-11 -3.8101e-11 3.48301e-11 5e-05 1.46608e-10 
170 1 0.137951 0.0178094 0.0070899 0.00611967 -9.97081e-05 0.00017341 1.04844e-10 1.12372e-10 -2.10686e-11 5e-05 1.46608e-10 
171 1 0.143489 0.0163252 0.00809027 0.00555565 0.000247961 0.00169165 -3.52556e-10 1.42526e-11 -1.3229e-10 5e-05 1.46608e-10 
172 1 0.13811 0.0179267 0.00707228 0.00603167 2.43245e-05 0.0001477 8.75941e-11 6.22372e-11 3.97372e-12 5e-05 1.46608e-10 
173 1 0.143915 0.0179329 0.00709841 0.00619204 0.000197011 -0.000368887 -1.77511e-10 2.70962e-10 -5.00745e-11 5e-05 1.46608e-10 
174 1 0.137873 0.01787 0.00707672 0.00577391 -0.00012787 0.000170113 -2.65832e-10 -2.62733e-12 -3.31796e-11 5e-05 1.46608e-10 
175 1 0.131514 0.0170472 0.00747569 0.00595062 -0.000278167 0.000564996 -3.71774e-11 4.12068e-11 -2.4107e-11 5e-05 1.46608e-10 
176 1 0.137688 0.0173593 0.00720662 0.00616374 -0.000421313 -0.000384741 -1.91856e-10 -1.0581e-10 2.33234e-11 5e-05 1.46608e-10 
177 1 0.137717 0.017901 0.00714255 0.00601842 -0.000356815 0.000329432 4.03504e-11 2.66617e-10 -8.09468e-11 5e-05 1.46608e-10 
178 1 0.138043 0.0185094 0.0069631 0.00579697 -0.000255312 0.000193367 1.5712e-10 -5.41917e-11 2.23043e-11 5e-05 1.46608e-10 
179 1 0.138145 0.0183537 0.00699441 0.00580972 -0.000198329 0.000183416 -2.64503e-10 -2.65922e-10 5.15346e-11 5e-05 1.46608e-10 
181 1 0.1377 0.0177508 0.00722362 0.00606431 -0.000578439 3.73251e-05 1.551e-11 -9.98907e-11 -2.90239e-10 5e-05 1.46608e-10 
182 1 0.143416 0.0163658 0.00803403 0.00554996 0.000254158 0.0016851 -3.49119e-10 -1.39025e-10 -2.66632e-11 5e-05 1.46608e-10 
183 1 0.137858 0.0177726 0.00709432 0.00615085 -0.000180791 0.000185235 6.77286e-12 4.97911e-11 -6.39687e-11 5e-05 1.46608e-10 
184 1 0.143989 0.0178675 0.00711296 0.00617306 0.000155288 -0.000355612 -2.4126e-10 1.19295e-10 -3.18296e-11 5e-05 1.46608e-10 
185 1 0.137591 0.0173309 0.00722433 0.00617174 -0.000434469 -0.000383238 -2.57735e-12 -3.37821e-11 6.62954e-11 5e-05 1.46608e-10 
186 1 0.137705 0.0176405 0.00720882 0.00611347 -0.000552374 -0.000219949 -2.54804e-10 2.27344e-10 -1.2987e-10 5e-05 1.46608e-10 
187 1 0.143793 0.0171692 0.00753285 0.0058614 0.00034514 0.00172079 4.0158e-11 1.48458e-10 -1.21588e-10 5e-05 1.46608e-10 
188 1 0.143706 0.01785 0.00713216 0.00618476 0.000150227 -0.000346896 1.99831e-10 2.44479e-10 5.92628e-11 5e-05 1.46608e-10 
189 1 0.143834 0.0173298 0.0074212 0.00576016 0.000458996 0.00159565 2.48802e-11 -1.03891e-09 8.18099e-10 5e-05 1.46608e-10 
190 1 0.131692 0.0174647 0.00735526 0.00584918 -0.000278029 0.00057241 2.0475e-10 -2.05968e-10 1.39984e-10 5e-05 1.46608e-10 
191 1 0.143773 0.0181375 0.0070483 0.00627154 0.000339325 -0.000411931 1.10321e-10 6.1949e-10 -1.81303e-10 5e-05 1.46608e-10 
192 1 0.137879 0.0174124 0.00717268 0.006151 -0.000387539 -0.000394171 -1.01327e-10 4.70608e-11 6.73401e-12 5e-05 1.46608e-10 
193 1 0.143577 0.0166466 0.00786885 0.00578817 0.000251789 0.00177648 4.87524e-10 6.11947e-11 1.76529e-10 5e-05 1.46608e-10 
194 1 0.137693 0.0170175 0.00732813 0.0062394 -7.21212e-05 0.000720937 -1.68519e-11 1.1984e-11 -7.66673e-11 5e-05 1.46608e-10 
195 1 0.138066 0.0181812 0.00702423 0.00582105 -0.000128372 0.000171013 -2.93387e-10 -1.64291e-10 9.16034e-12 5e-05 1.46608e-10 
196 1 0.137139 0.0156719 0.00862868 0.00610535 0.00117721 -0.000563123 4.09577e-11 1.06508e-10 -1.04376e-10 5e-05 1.46608e-10 
197 1 0.131577 0.0173312 0.00743198 0.00587072 -0.000293348 0.000584719 2.06321e-10 -2.07962e-10 -4.94592e-11 5e-05 1.46608e-10 
198 1 0.137504 0.0169655 0.00736126 0.00608567 3.8786e-05 0.000569981 1.63917e-09 -1.0005e-09 1.59186e-09 5e-05 1.46608e-10 
199 1 0.137656 0.0176075 0.00712817 0.00619899 -0.000378408 -0.000335119 -1.23161e-12 2.58365e-11 8.69797e-13 5e-05 1.46608e-10 
200 1 0.137623 0.0170887 0.00731792 0.00619957 -0.000137482 0.000287916 5.80754e-11 -7.38823e-11 -5.23511e-10 5e-05 1.46608e-10 
201 1 0.138064 0.018759 0.0069176 0.00554369 -0.000387331 0.000211589 7.3675e-11 8.74266e-11 -1.2678e-11 5e-05 1.46608e-10 
202 1 0.1379 0.0175088 0.00714404 0.00620674 -0.000249921 0.000200993 -2.46623e-11 5.61409e-11 -3.9669e-11 5e-05 1.46608e-10 
203 1 0.143833 0.0184221 0.00696558 0.00573002 -5.52764e-05 -0.000274394 -7.17126e-11 -5.74781e-11 2.83644e-12 5e-05 1.46608e-10 
204 1 0.137602 0.017004 0.00736645 0.00613494 4.29258e-05 0.000553355 -7.60387e-11 1.56211e-10 -3.03741e-10 5e-05 1.46608e-10 
205 1 0.137993 0.0183392 0.00703887 0.00568374 -0.000214183 0.000193333 2.77723e-11 -8.38342e-11 2.1386e-10 5e-05 1.46608e-10 
206 1 0.137873 0.0179684 0.00705859 0.00577374 -0.000194682 0.00018348 -1.21727e-10 1.0472e-10 -8.69739e-12 5e-05 1.46608e-10 
207 1 0.137442 0.0164287 0.00789636 0.00580157 5.33399e-05 0.000542172 -1.83821e-10 -3.65827e-11 2.66428e-11 5e-05 1.46608e-10 
208 1 0.13775 0.0176393 0.00711971 0.0062086 -0.000308532 -0.000171557 4.53521e-12 -6.78346e-11 -1.78211e-10 5e-05 1.46608e-10 
209 1 0.137676 0.0169454 0.00739908 0.00620572 0.000129633 0.00049877 -5.38564e-10 -7.33665e-11 2.02843e-10 5e-05 1.46608e-10 
210 1 0.143864 0.0177004 0.00725811 0.0044213 0.000545362 0.000816141 -3.16913e-10 -3.2442e-11 3.49423e-10 5e-05 1.46608e-10 
211 1 0.143936 0.0180267 0.00707106 0.00623893 0.000228744 -0.00037983 -9.79214e-10 1.04323e-09 -2.55375e-10 5e-05 1.46608e-10 
212 1 0.137959 0.0179192 0.00706985 0.00578639 -0.000152851 0.00017338 -2.87683e-10 -1.74721e-11 2.55152e-11 5e-05 1.46608e-10 
213 1 0.143772 0.0170881 0.00758919 0.00592217 0.00031254 0.00176168 -5.86755e-10 5.85911e-10 -7.13777e-10 5e-05 1.46608e-10 
214 1 0.144052 0.0181576 0.00702855 0.00596622 0.000326241 -0.000393366 -1.07621e-10 -2.90274e-10 8.06545e-11 5e-05 1.46608e-10 
215 1 0.131661 0.0173619 0.00738593 0.00586549 -0.000293701 0.000568665 4.90962e-10 -3.6749e-10 1.39184e-10 5e-05 1.46608e-10 
216 1 0.137697 0.0178032 0.00713855 0.00608141 -0.000363193 0.000163909 5.01821e-11 2.55375e-10 -5.24968e-11 5e-05 1.46608e-10 
217 1 0.14353 0.016486 0.00797834 0.00562736 0.000238236 0.00172611 2.52009e-10 -4.86827e-10 5.22989e-10 5e-05 1.46608e-10 
218 1 0.13775 0.0180241 0.00704519 0.00562585 -0.000239979 0.000178991 -2.17812e-10 5.42001e-12 -1.90624e-11 5e-05 1.46608e-10 
219 1 0.14384 0.0179975 0.0070841 0.00620208 0.000225876 -0.000377906 -3.24953e-10 1.10606e-10 3.09963e-11 5e-05 1.46608e-10 
220 1 0.137854 0.018013 0.00714598 0.00575222 -0.000180522 0.000165589 -8.49425e-11 5.83833e-11 -8.18128e-11 5e-05 1.46608e-10 
221 1 0.131566 0.0168911 0.00753018 0.00592154 -0.000337335 0.000578698 -7.57472e-11 7.15515e-11 2.52233e-11 5e-05 1.46608e-10 
222 1 0.143558 0.016566 0.00792536 0.00572698 0.000176023 0.00181354 -4.09178e-10 4.5337e-10 -4.25354e-10 5e-05 1.46608e-10 
223 1 0.137826 0.0175746 0.00713003 0.00622437 -0.000226081 0.000198046 5.12335e-11 4.92748e-12 -3.81687e-11 5e-05 1.46608e-10 
224 1 0.137569 0.0172389 0.0072568 0.00618163 -0.000434583 -0.000383255 1.34951e-10 1.4028e-10 -5.33856e-11 5e-05 1.46608e-10 
225 1 0.143832 0.0177198 0.00716527 0.00585969 0.000243829 0.000165903 -5.50327e-10 2.06527e-10 7.3987e-10 5e-05 1.46608e-10 
226 1 0.138038 0.0178585 0.00708304 0.00608038 -2.66413e-05 0.00015908 5.97813e-11 1.82229e-10 -5.37165e-11 5e-05 1.46608e-10 
227 1 0.131633 0.017173 0.00744459 0.00592258 -0.0002854 0.000565478 -7.84035e-11 8.79375e-11 -3.29248e-11 5e-05 1.46608e-10 
228 1 0.131536 0.0171406 0.00744732 0.00594426 -0.000275886 0.000562826 -1.22692e-10 3.09619e-11 -4.31569e-11 5e-05 1.46608e-10 
229 1 0.137828 0.0179098 0.00715685 0.00575876 -0.000134911 0.000169083 -1.74248e-10 1.89424e-10 -1.37134e-10 5e-05 1.46608e-10 
230 1 0.138038 0.0186076 0.00694487 0.00566279 -0.000255955 0.000190657 -2.30018e-11 -6.07913e-11 8.2743e-12 5e-05 1.46608e-10 
231 1 0.131493 0.0169538 0.0075041 0.00594793 -0.000287997 0.000569358 -1.62363e-11 8.74684e-11 -9.17731e-12 5e-05 1.46608e-10 
232 1 0.137577 0.0165954 0.00774201 0.00585694 0.000218664 0.000376211 -6.77701e-10 4.58097e-10 -3.17405e-10 5e-05 1.46608e-10 
233 1 0.137719 0.0171111 0.00729185 0.00622479 -0.000173021 0.000390433 3.45828e-11 -6.2922e-11 -5.7602e-11 5e-05 1.46608e-10 
234 1 0.143762 0.0179131 0.00719283 0.00624967 0.000152954 -0.000348911 7.63164e-11 -1.41193e-10 2.03196e-10 5e-05 1.46608e-10 
235 1 0.137917 0.018485 0.0070297 0.0057269 -0.000241963 0.000200592 9.34984e-11 -2.60887e-11 -5.81017e-11 5e-05 1.46608e-10 
236 1 0.13789 0.0186989 0.00692427 0.00553023 -0.000254275 0.000187375 6.37623e-11 2.70424e-10 -4.65175e-11 5e-05 1.46608e-10 
237 1 0.13785 0.018506 0.00695886 0.00572407 -0.000267796 0.000195027 4.12255e-12 1.50033e-10 -2.70799e-11 5e-05 1.46608e-10 
239 1 0.131312 0.016221 0.00794767 0.00547935 -0.00046765 -1.22642e-05 8.57426e-11 3.37503e-11 -4.50957e-11 5e-05 1.46608e-10 
240 1 0.13137 0.016427 0.00773752 0.00554388 -0.00047913 -3.22362e-06 9.13964e-11 -2.14562e-11 1.04997e-10 5e-05 1.46608e-10 
241 1 0.131293 0.0161523 0.00801772 0.00546228 -0.000463795 -1.49708e-05 -3.26129e-11 9.84372e-11 -8.46075e-11 5e-05 1.46608e-10 
242 1 0.137836 0.0172278 0.0072378 0.00614578 -0.000395021 -0.000391447 5.38185e-11 -3.40558e-11 1.22201e-12 5e-05 1.46608e-10 
243 1 0.13758 0.0169242 0.0074226 0.00610509 8.51433e-05 0.000615193 -9.76526e-11 4.33774e-10 -1.08515e-10 5e-05 1.46608e-10 
244 1 0.131331 0.0162897 0.00787762 0.00549068 -0.000471318 -1.06887e-05 1.51296e-10 -1.46211e-10 9.74226e-11 5e-05 1.46608e-10 
246 1 0.131451 0.0167716 0.00755949 0.00572457 -0.000255463 0.000541662 -3.9337e-11 8.55733e-11 -2.00841e-11 5e-05 1.46608e-10 
247 1 0.137905 0.0180955 0.00711926 0.00573467 -0.000163099 0.00017704 -3.16696e-11 -1.10506e-11 -1.2338e-10 5e-05 1.46608e-10 
248 1 0.137969 0.0187893 0.0069096 0.00558328 -0.000289203 0.000195084 1.89088e-11 -5.60204e-11 1.26216e-11 5e-05 1.46608e-10 
249 1 0.131756 0.0173932 0.00738343 0.00585202 -0.000240999 0.000543594 7.11535e-10 -2.32731e-10 1.61241e-10 5e-05 1.46608e-10 
250 1 0.13778 0.0179327 0.00707183 0.00575495 -0.000180642 0.000173544 5.03025e-12 7.73094e-11 -9.3932e-11 5e-05 1.46608e-10 
251 1 0.143975 0.0182195 0.00701513 0.0058929 0.000247638 -0.000367432 1.34144e-10 1.14994e-10 -3.22776e-11 5e-05 1.46608e-10 
252 1 0.131626 0.0175386 0.00736883 0.00586644 -0.000266636 0.000614413 -7.62371e-12 -1.2991e-10 1.64664e-11 5e-05 1.46608e-10 