ITEM: TIMESTEP
800000
ITEM: NUMBER OF ATOMS
145
ITEM: BOX BOUNDS ff ff ff
-0.02 0.43
-0.02 0.06
-0.02 0.07
ITEM: ATOMS id type x y z vx vy vz fx fy fz radius mass 
1 1 0.0180729 0.0184659 0.00689316 0.00568638 -0.00176175 0.00048648 1.60477e-10 1.18026e-10 -5.0339e-11 5e-05 1.46608e-10 
2 1 0.0192878 0.0190371 0.00684203 -7.45657e-15 3.50333e-14 2.14188e-13 5.5447e-24 -3.17948e-24 8.27181e-25 5e-05 1.46608e-10 
3 1 0.0152286 0.0208406 0.00743894 -0.00204579 -0.0467796 -0.0152567 0 0 -1.43822e-09 5e-05 1.46608e-10 
4 1 0.0200819 0.0191542 0.00684938 -3.97578e-15 2.47093e-14 1.44604e-13 -1.47988e-24 -6.20385e-25 2.06795e-25 5e-05 1.46608e-10 
5 1 0.01792 0.0186553 0.00688431 0.00505694 -0.00321873 -0.000554777 3.40169e-09 -2.61962e-09 -1.07222e-09 5e-05 1.46608e-10 
6 1 0.0235749 0.0169952 0.00734187 0.00550176 -0.000464789 0.000295496 6.57833e-12 -1.79188e-11 -3.47658e-11 5e-05 1.46608e-10 
7 1 0.0182349 0.0196234 0.00695365 0.005595 -0.00418534 -0.000808552 3.88159e-12 8.49966e-12 5.29361e-13 5e-05 1.46608e-10 
8 1 0.0178122 0.018118 0.00694098 0.00544968 -0.00115238 0.000378277 -2.17376e-12 -1.36083e-11 1.89442e-12 5e-05 1.46608e-10 
9 1 0.0240256 0.0191324 0.00694528 0.00557978 -0.00266746 0.000442665 2.15987e-13 -2.5509e-13 3.00966e-14 5e-05 1.46608e-10 
10 1 0.0181 0.019464 0.0069483 0.00514035 -0.00473544 -0.000827754 -2.00878e-11 1.62814e-11 5.1705e-12 5e-05 1.46608e-10 
11 1 0.0193887 0.0189821 0.00685455 2.96081e-15 -1.39093e-14 -8.50386e-14 3.87741e-26 -2.58494e-25 0 5e-05 1.46608e-10 
12 1 0.0175549 0.0238453 0.0115502 -7.64676e-05 -0.000465593 -0.000834999 3.95296e-11 9.59705e-12 -9.07676e-12 5e-05 1.46608e-10 
13 1 0.0179005 0.0185574 0.00689081 0.00499787 -0.00312575 0.000602868 -7.91315e-11 -3.33489e-11 2.07136e-10 5e-05 1.46608e-10 
14 1 0.0140801 0.0205958 0.00727456 -1.29115e-14 4.29331e-14 -2.30778e-13 -2.40399e-24 -1.55096e-24 0 5e-05 1.46608e-10 
15 1 0.0186098 0.0196398 0.00692779 -1.91913e-15 2.50507e-15 -2.62517e-14 -2.01108e-23 -1.61042e-23 2.06795e-25 5e-05 1.46608e-10 
16 1 0.0137219 0.020607 0.00729668 3.603e-15 -1.19889e-14 6.44398e-14 -2.81112e-23 -8.582e-24 0 5e-05 1.46608e-10 
17 1 0.0180782 0.0193667 0.00694061 0.0051386 -0.00473472 -0.000827596 -2.70013e-12 -7.64701e-13 7.4567e-13 5e-05 1.46608e-10 
18 1 0.0237172 0.0176765 0.00717012 0.00505744 -0.00211568 0.000354256 5.28069e-13 7.97845e-15 8.74989e-15 5e-05 1.46608e-10 
19 1 0.0178814 0.0184593 0.00688757 0.00502709 -0.00312978 0.000685577 -4.71712e-11 1.22126e-12 -1.38163e-12 5e-05 1.46608e-10 
21 1 0.0179955 0.0185279 0.00688032 0.00521993 -0.00234303 0.000561258 -9.77634e-11 -4.60359e-11 1.282e-10 5e-05 1.46608e-10 
22 1 0.0182031 0.0199429 0.00698645 0.00455585 -0.00562784 -0.000870175 -3.23493e-14 -3.92116e-12 -3.62278e-13 5e-05 1.46608e-10 
23 1 0.017857 0.0238557 0.011569 -3.47038e-05 -0.000358666 -0.000646572 3.86079e-12 2.39492e-11 4.27517e-11 5e-05 1.46608e-10 
24 1 0.0238378 0.0182674 0.00707885 0.00530122 -0.00248287 0.000412569 1.03346e-12 -1.02359e-12 1.58869e-13 5e-05 1.46608e-10 
25 1 0.0181451 0.0196661 0.00696429 0.00499013 -0.00544028 -0.000884044 -2.64356e-12 -1.1602e-11 -8.98272e-13 5e-05 1.46608e-10 
26 1 0.0236531 0.0173602 0.00721899 0.0055283 -0.000554125 0.000118391 3.09741e-10 -3.70082e-10 9.84941e-11 5e-05 1.46608e-10 
27 1 0.0177565 0.0238523 0.0115627 -3.80117e-05 -0.000394388 -0.000710967 2.99257e-12 2.38771e-11 4.29064e-11 5e-05 1.46608e-10 
28 1 0.0199608 0.0191674 0.00684379 -3.97529e-15 2.47093e-14 1.44604e-13 -2.58494e-26 -5.16988e-26 0 5e-05 1.46608e-10 
29 1 0.0178617 0.0183624 0.00690273 0.00503677 -0.00312808 0.000686969 -3.00107e-13 3.51805e-11 -3.4088e-11 5e-05 1.46608e-10 
30 1 0.0198223 0.0142442 0.0116929 -0.000140857 -0.00158509 0.00263177 -1.54858e-12 -1.86998e-11 3.10479e-11 5e-05 1.46608e-10 
31 1 0.0181839 0.019845 0.00697852 0.0045112 -0.00561941 -0.000866106 7.68418e-14 -3.91511e-12 -3.68863e-13 5e-05 1.46608e-10 
32 1 0.0189016 0.0193211 0.00687604 -1.92017e-15 2.50467e-15 -2.62516e-14 3.21825e-24 5.68687e-25 -2.06795e-25 5e-05 1.46608e-10 
33 1 0.0235933 0.0170754 0.00728506 0.0055429 -0.000474332 0.000298323 -9.65259e-11 1.84389e-11 1.24687e-10 5e-05 1.46608e-10 
34 1 0.0180565 0.0192694 0.00693291 0.00513568 -0.00473397 -0.000827313 3.8691e-13 -8.42304e-13 -1.94032e-13 5e-05 1.46608e-10 
35 1 0.0184363 0.0195027 0.00692739 -1.92009e-15 2.50467e-15 -2.62516e-14 -3.10193e-25 2.58494e-26 0 5e-05 1.46608e-10 
36 1 0.0245478 0.0194656 0.00687151 5.81844e-15 3.50519e-14 1.88379e-13 -4.98247e-24 1.13737e-24 0 5e-05 1.46608e-10 
37 1 0.0182059 0.0195085 0.0069448 0.00520033 -0.0046487 -0.000823935 1.8291e-11 3.78575e-11 2.22884e-12 5e-05 1.46608e-10 
38 1 0.0190371 0.0192617 0.00686047 2.03104e-14 -2.64942e-14 2.77687e-13 1.21492e-24 2.0421e-24 0 5e-05 1.46608e-10 
39 1 0.0238955 0.018533 0.00703784 0.0053836 -0.00255407 0.000424053 8.25923e-13 -5.91281e-13 1.04291e-13 5e-05 1.46608e-10 
40 1 0.0174544 0.0238419 0.011544 -2.6706e-06 -0.000506129 -0.000924987 1.02088e-09 1.41252e-11 -1.49164e-10 5e-05 1.46608e-10 
41 1 0.0180993 0.0185725 0.00687665 0.00562952 -0.00171186 0.000477891 -5.05677e-10 2.78703e-10 -1.89897e-10 5e-05 1.46608e-10 
42 1 0.0183006 0.0199645 0.00698138 0.00359774 -0.00119084 -0.000376763 -3.73098e-11 2.40642e-11 5.01915e-12 5e-05 1.46608e-10 
44 1 0.0195314 0.0191111 0.0068384 -7.45732e-15 3.50334e-14 2.14188e-13 -1.43787e-23 -2.37814e-24 0 5e-05 1.46608e-10 
45 1 0.0236131 0.0171665 0.0072489 0.00556677 -0.000548404 0.000118218 1.22205e-10 8.36417e-11 -1.23847e-10 5e-05 1.46608e-10 
46 1 0.0236977 0.0175795 0.00718511 0.00506645 -0.00210018 0.000351891 6.34117e-13 -6.73574e-14 1.21418e-14 5e-05 1.46608e-10 
47 1 0.018183 0.019034 0.00690121 -1.92502e-15 2.50261e-15 -2.62515e-14 2.54487e-23 1.78102e-23 4.1359e-25 5e-05 1.46608e-10 
48 1 0.0191635 0.0195215 0.006876 -1.9201e-15 2.50468e-15 -2.62516e-14 -9.04729e-26 -7.75482e-26 0 5e-05 1.46608e-10 
49 1 0.0236731 0.017457 0.00720403 0.00540558 -0.00051548 0.000105025 -1.39905e-10 2.11679e-10 -5.148e-11 5e-05 1.46608e-10 
50 1 0.0200288 0.0192419 0.00683293 4.2417e-15 -2.63638e-14 -1.54285e-13 0 -8.27181e-25 0 5e-05 1.46608e-10 
51 1 0.0198137 0.0192371 0.00682762 2.96076e-15 -1.39092e-14 -8.50386e-14 1.89993e-24 1.08567e-24 0 5e-05 1.46608e-10 
52 1 0.0175997 0.0238887 0.0116284 -9.18893e-05 -0.000459832 -0.000825215 -1.52609e-10 -2.49633e-12 2.03668e-11 5e-05 1.46608e-10 
53 1 0.0237893 0.0180328 0.00711509 0.00505675 -0.00218854 0.000365582 2.41859e-13 1.0093e-13 -1.61845e-14 5e-05 1.46608e-10 
54 1 0.0179595 0.0183982 0.00690029 0.00502391 -0.00312782 0.000687548 1.26004e-10 1.56003e-10 -3.7926e-11 5e-05 1.46608e-10 
55 1 0.0145775 0.020404 0.00721103 -1.29117e-14 4.2933e-14 -2.30778e-13 5.16988e-26 0 0 5e-05 1.46608e-10 
56 1 0.0182824 0.0194452 0.00693317 0.0052647 -0.00457068 -0.000821163 -3.86078e-11 -8.85672e-11 -5.80303e-12 5e-05 1.46608e-10 
57 1 0.0236331 0.0172634 0.00723394 0.00556111 -0.000546271 0.000115504 5.97214e-11 -6.53633e-11 5.94592e-11 5e-05 1.46608e-10 
59 1 0.0190625 0.0179799 0.00711598 -0.00097513 0.0588643 0.000233463 0 0 -1.43822e-09 5e-05 1.46608e-10 
60 1 0.0191088 0.0160301 0.00823598 -0.00204538 0.111181 -0.141676 0 0 -1.43822e-09 5e-05 1.46608e-10 
61 1 0.0180154 0.0186269 0.00687467 0.00522591 -0.00236841 -0.000797403 -2.84686e-10 1.96022e-10 -1.22343e-09 5e-05 1.46608e-10 
62 1 0.0196461 0.0191072 0.00684305 -7.45666e-15 3.50335e-14 2.14188e-13 4.31039e-24 2.32645e-25 0 5e-05 1.46608e-10 
63 1 0.0196978 0.019239 0.00682329 -1.09802e-15 5.15993e-15 3.15416e-14 2.58494e-26 0 -2.06795e-25 5e-05 1.46608e-10 
64 1 0.0238111 0.0181401 0.00709851 0.00504999 -0.00219993 0.000367319 1.35429e-13 1.441e-13 -2.45467e-14 5e-05 1.46608e-10 
65 1 0.0176566 0.0238488 0.0115565 -2.22348e-05 -0.000430078 -0.000779851 1.10077e-10 3.73606e-11 1.42197e-10 5e-05 1.46608e-10 
66 1 0.0173546 0.0238385 0.0115379 6.77501e-05 -0.00053916 -0.000998686 -1.08149e-09 -3.79124e-11 1.0033e-10 5e-05 1.46608e-10 
67 1 0.0194352 0.0190715 0.00684154 -7.45692e-15 3.50334e-14 2.14188e-13 -2.85636e-24 -1.08567e-24 0 5e-05 1.46608e-10 
68 1 0.0198719 0.019122 0.00684848 2.96069e-15 -1.39093e-14 -8.50386e-14 -2.08088e-24 -7.75482e-26 0 5e-05 1.46608e-10 
69 1 0.0181665 0.019293 0.00692713 -1.92072e-15 2.50423e-15 -2.62516e-14 3.76109e-24 1.62851e-24 -2.06795e-25 5e-05 1.46608e-10 
70 1 0.0239431 0.0187522 0.00700399 0.00545383 -0.00260253 0.000431939 5.9901e-13 -4.48032e-13 7.74878e-14 5e-05 1.46608e-10 
71 1 0.0143505 0.0204792 0.00723773 -1.29117e-14 4.2933e-14 -2.30778e-13 5.55762e-25 0 0 5e-05 1.46608e-10 
72 1 0.01977 0.0191319 0.00684331 -7.45701e-15 3.50334e-14 2.14188e-13 2.64956e-25 2.58494e-25 0 5e-05 1.46608e-10 
73 1 0.0181217 0.0195613 0.006956 0.00514597 -0.00473319 -0.000828033 1.44234e-11 5.79049e-11 3.8064e-12 5e-05 1.46608e-10 
74 1 0.0194594 0.0191975 0.00682344 -1.92009e-15 2.50468e-15 -2.62516e-14 0 0 0 5e-05 1.46608e-10 
76 1 0.0216583 0.0175982 0.0200327 0 -0 -0.03 0 0 0 5e-05 1.46608e-10 
77 1 0.0234002 0.018439 0.0209892 0 -0 -0.03 0 0 0 5e-05 1.46608e-10 
78 1 0.0155235 0.0206483 0.015427 9.58771e-06 0.0353604 -0.105262 0 0 -1.43822e-09 5e-05 1.46608e-10 
79 1 0.016662 0.0226949 0.0242531 0 -0 -0.03 0 0 0 5e-05 1.46608e-10 
80 1 0.0206783 0.0182734 0.0167927 -0.000497671 0.0268219 -0.0137547 0 0 -1.43822e-09 5e-05 1.46608e-10 
81 1 0.0165068 0.0179677 0.0236715 0 -0 -0.03 0 0 0 5e-05 1.46608e-10 
82 1 0.0179122 0.0216798 0.0228295 0 -0 -0.03 0 0 0 5e-05 1.46608e-10 
83 1 0.0160118 0.0191303 0.0155702 1.7973e-05 0.0252173 0.0422888 0 0 -1.43822e-09 5e-05 1.46608e-10 
84 1 0.0233448 0.0169138 0.0225569 0 -0 -0.03 0 0 0 5e-05 1.46608e-10 
85 1 0.0151737 0.0211623 0.0148936 -6.61852e-06 0.0239107 -0.0147168 -1.69297e-13 7.98379e-11 -7.87242e-11 5e-05 1.46608e-10 
86 1 0.0215346 0.021448 0.0200704 0 -0 -0.03 0 0 0 5e-05 1.46608e-10 
87 1 0.0219079 0.01537 0.0237258 0 -0 -0.03 0 0 0 5e-05 1.46608e-10 
88 1 0.0223376 0.0228668 0.0211123 0 -0 -0.03 0 0 0 5e-05 1.46608e-10 
89 1 0.0220664 0.0231476 0.0124393 9.02536e-05 0.0820765 -0.207649 0 0 -1.43822e-09 5e-05 1.46608e-10 
90 1 0.0203067 0.0156342 0.019644 0 -0 -0.03 0 0 0 5e-05 1.46608e-10 
91 1 0.0184506 0.0238582 0.0115728 0.00232884 0.000283248 -0.000374607 -1.07023e-07 1.89799e-09 1.03633e-08 5e-05 1.46608e-10 
92 1 0.0205328 0.015653 0.0186164 0 -0 -0.03 0 0 0 5e-05 1.46608e-10 
93 1 0.022049 0.0186735 0.0218144 0 -0 -0.03 0 0 0 5e-05 1.46608e-10 
94 1 0.0206448 0.0191119 0.00687207 4.24227e-15 -2.63636e-14 -1.54285e-13 -3.89033e-24 -1.18907e-24 2.06795e-25 5e-05 1.46608e-10 
95 1 0.0222009 0.0210111 0.0239514 0 -0 -0.03 0 0 0 5e-05 1.46608e-10 
96 1 0.0207206 0.0139862 0.0128383 -0.0239588 0.0918063 -0.0106811 0 0 -1.43822e-09 5e-05 1.46608e-10 
97 1 0.0174452 0.0238902 0.0116311 -2.92851e-05 -0.000504153 -0.00090949 -1.3063e-10 -1.15181e-10 -2.17524e-10 5e-05 1.46608e-10 
98 1 0.0233506 0.0205377 0.021885 0 -0 -0.03 0 0 0 5e-05 1.46608e-10 
99 1 0.0172547 0.0238349 0.0115357 5.90624e-05 -0.000381915 -0.000603869 0 0 -1.43822e-09 5e-05 1.46608e-10 
100 1 0.0197235 0.0152615 0.0227665 0 -0 -0.03 0 0 0 5e-05 1.46608e-10 
101 1 0.015107 0.01696 0.0236281 0 -0 -0.03 0 0 0 5e-05 1.46608e-10 
102 1 0.0313332 0.0163393 0.00696735 0.567478 0.0867186 -0.00657605 0 0 -1.43822e-09 5e-05 1.46608e-10 
103 1 0.0181824 0.0238589 0.0115741 0.00330693 0.000294128 -0.000314646 -6.71341e-08 4.41164e-10 1.72499e-09 5e-05 1.46608e-10 
104 1 0.0180391 0.0196979 0.0188071 0 -0 -0.03 0 0 0 5e-05 1.46608e-10 
105 1 0.0156243 0.0226152 0.0143821 8.86907e-05 0.0714316 -0.137217 0 0 -1.43822e-09 5e-05 1.46608e-10 
106 1 0.0195756 0.0220838 0.0206367 0 -0 -0.03 0 0 0 5e-05 1.46608e-10 
107 1 0.0143936 0.0194202 0.0168213 3.79634e-05 0.0436085 -0.0209785 0 0 -1.43822e-09 5e-05 1.46608e-10 
108 1 0.0187827 0.0189566 0.00684996 -1.92028e-15 2.50478e-15 -2.62516e-14 -3.47674e-23 -1.85082e-23 1.03398e-24 5e-05 1.46608e-10 
109 1 0.0197082 0.0193384 0.00682269 -2.1457e-15 -1.27134e-14 3.16788e-14 -2.58494e-26 -1.03398e-25 0 5e-05 1.46608e-10 
110 1 0.0212653 0.0209509 0.018751 0 -0 -0.03 0 0 0 5e-05 1.46608e-10 
111 1 0.0239415 0.0185294 0.0201449 0 -0 -0.03 0 0 0 5e-05 1.46608e-10 
112 1 0.0168761 0.0220405 0.0150078 0.000103272 0.0837239 -0.0200837 0 0 -1.43822e-09 5e-05 1.46608e-10 
113 1 0.0204416 0.0185814 0.0234445 0 -0 -0.03 0 0 0 5e-05 1.46608e-10 
114 1 0.0181484 0.0223897 0.0179468 0 0 -0.102069 0 0 -1.43822e-09 5e-05 1.46608e-10 
115 1 0.0195759 0.0192357 0.00681957 -7.45679e-15 3.50335e-14 2.14188e-13 -1.4411e-23 -3.10193e-24 -2.06795e-25 5e-05 1.46608e-10 
116 1 0.0189359 0.0154522 0.018294 0 0 -0.0600529 0 0 -1.43822e-09 5e-05 1.46608e-10 
117 1 0.0179274 0.0182884 0.00691713 0.00502534 -0.0031396 0.000688727 -6.30669e-11 5.95458e-11 6.71925e-12 5e-05 1.46608e-10 
118 1 0.014949 0.0206161 0.00722971 3.60454e-15 -1.19882e-14 6.44399e-14 -2.88221e-24 -1.65436e-24 -2.06795e-25 5e-05 1.46608e-10 
119 1 0.0193082 0.0143129 0.0115787 -0.000656292 0.0169514 -0.0281448 7.4106e-12 4.44261e-10 -7.37618e-10 5e-05 1.46608e-10 
120 1 0.0178378 0.0182441 0.00692125 0.00503516 -0.00315585 0.000691454 -1.76416e-11 9.93093e-11 -1.90435e-11 5e-05 1.46608e-10 
121 1 0.0177926 0.0180212 0.00695615 0.00545693 -0.00115459 0.000379031 5.46504e-12 1.28748e-11 -4.73534e-12 5e-05 1.46608e-10 
122 1 0.0207577 0.0190406 0.00688736 4.20298e-05 0.000326981 0.00174444 3.20732e-09 -1.90716e-09 -1.31696e-08 5e-05 1.46608e-10 
123 1 0.0159565 0.0221743 0.0139872 2.51493e-05 0.0619951 -0.0780501 5.95392e-13 3.4846e-10 -6.91248e-10 5e-05 1.46608e-10 
124 1 0.021096 0.0209748 0.0202307 0 -0 -0.03 0 0 0 5e-05 1.46608e-10 
125 1 0.0185116 0.0168101 0.018871 0 -0 -0.03 0 0 0 5e-05 1.46608e-10 
126 1 0.0190485 0.019506 0.00688294 -1.9199e-15 2.50469e-15 -2.62517e-14 1.00813e-23 8.91804e-24 0 5e-05 1.46608e-10 
127 1 0.016117 0.018576 0.0154663 7.1254e-11 0.0239325 0.00287489 3.56249e-21 2.55063e-12 -2.11521e-11 5e-05 1.46608e-10 
128 1 0.0201221 0.0192866 0.00682786 4.24208e-15 -2.63635e-14 -1.54285e-13 -6.11338e-24 -1.60266e-24 0 5e-05 1.46608e-10 
129 1 0.0168422 0.023808 0.0121706 0.018087 0.0169513 -0.0671285 0 0 -1.43822e-09 5e-05 1.46608e-10 
130 1 0.018341 0.0238586 0.0115739 0.000402788 -0.000288419 -0.00365395 9.44307e-08 -1.7449e-08 -1.17775e-07 5e-05 1.46608e-10 
131 1 0.0174464 0.0217979 0.0154479 0.000172006 0.0371028 -0.0250598 4.05509e-12 1.35143e-10 -1.50205e-10 5e-05 1.46608e-10 
132 1 0.0203193 0.019253 0.00683916 -2.99304e-05 0.00035984 -0.00125056 0 0 -1.43822e-09 5e-05 1.46608e-10 
133 1 0.0178878 0.0163826 0.0223713 0 -0 -0.03 0 0 0 5e-05 1.46608e-10 
134 1 0.0191382 0.0189251 0.00685515 2.96139e-15 -1.39091e-14 -8.50386e-14 -1.06047e-23 1.47342e-24 -4.1359e-25 5e-05 1.46608e-10 
135 1 0.0171369 0.0152849 0.00940659 0.00926755 0.0657752 -0.112477 0 0 -1.43822e-09 5e-05 1.46608e-10 
136 1 0.0151212 0.0204423 0.00719668 0.000263638 -0.00575446 0.00947129 0 0 -1.43822e-09 5e-05 1.46608e-10 
137 1 0.023604 0.0178789 0.0200731 0 -0 -0.03 0 0 0 5e-05 1.46608e-10 
138 1 0.0185825 0.0185247 0.00690128 -7.45733e-15 3.50339e-14 2.14188e-13 -2.4977e-23 -4.67874e-24 -2.06795e-25 5e-05 1.46608e-10 
140 1 0.0211871 0.0217488 0.0216252 0 -0 -0.03 0 0 0 5e-05 1.46608e-10 
141 1 0.0158064 0.0231604 0.0105031 -0.00447355 -0.03507 -0.0108248 0 0 -1.43822e-09 5e-05 1.46608e-10 
142 1 0.0187994 0.0238709 0.0115957 -0.0387005 0.0333729 0.130618 -1.07166e-06 5.81004e-06 1.40054e-06 5e-05 1.46608e-10 
143 1 0.0174435 0.0236757 0.0129361 0.00153422 0.0895548 -0.195641 0 0 -1.43822e-09 5e-05 1.46608e-10 
144 1 0.0187115 0.0237894 0.0128995 0.000372778 0.135492 -0.173738 0 0 -1.43822e-09 5e-05 1.46608e-10 
145 1 0.0191084 0.0240354 0.0202872 0 -0 -0.03 0 0 0 5e-05 1.46608e-10 
146 1 0.0161581 0.0156658 0.0239986 0 -0 -0.03 0 0 0 5e-05 1.46608e-10 
147 1 0.0150107 0.0221068 0.0140988 8.95613e-05 0.08325 -0.0946899 0 0 -1.43822e-09 5e-05 1.46608e-10 
148 1 0.0188004 0.0239085 0.0121017 0.000396903 -0.0403487 -0.0545079 0 0 -1.43822e-09 5e-05 1.46608e-10 
149 1 0.0216359 0.0191018 0.0157243 -1.37932e-05 0.0244528 0.0260142 0 0 -1.43822e-09 5e-05 1.46608e-10 
150 1 0.0152636 0.0146671 0.0135229 0.0128697 -0.00520329 -0.00777901 -7.69689e-11 1.99036e-12 9.68648e-11 5e-05 1.46608e-10 
