ITEM: TIMESTEP
10600000
ITEM: NUMBER OF ATOMS
287
ITEM: BOX BOUNDS ff ff ff
-0.02 0.43
-0.02 0.06
-0.02 0.07
ITEM: ATOMS id type x y z vx vy vz fx fy fz radius mass 
1 1 0.0745741 0.0161174 0.00803157 0.00615554 -0.000228463 -0.000253368 1.58034e-11 -7.09682e-11 4.72255e-11 5e-05 1.46608e-10 
2 1 0.0749913 0.0170277 0.00733343 0.0057456 -8.54388e-05 -0.000232576 -1.87607e-10 6.23509e-12 3.98001e-11 5e-05 1.46608e-10 
3 1 0.0683801 0.0157416 0.00832278 0.00607262 -0.000402292 0.000524963 -6.58708e-11 2.89599e-11 -2.09118e-11 5e-05 1.46608e-10 
4 1 0.0748995 0.0174209 0.00722411 0.00560692 0.000121791 -0.000193861 -6.7017e-11 7.30714e-12 1.3097e-10 5e-05 1.46608e-10 
5 1 0.0744564 0.0160177 0.00811293 0.00616029 -0.00024387 -0.000241634 7.03549e-11 5.26011e-11 3.60648e-11 5e-05 1.46608e-10 
6 1 0.080644 0.0167045 0.00759886 0.00570927 0.000232737 0.000256349 2.20496e-12 2.0492e-12 2.80805e-14 5e-05 1.46608e-10 
7 1 0.0746488 0.0167222 0.00758707 0.00598615 -0.000253949 -0.000371117 -4.25594e-11 5.65412e-11 -2.06966e-11 5e-05 1.46608e-10 
8 1 0.0743478 0.0156282 0.00840694 0.00618338 -0.000361723 -0.000259347 -1.86241e-10 -2.30882e-10 -1.16137e-09 5e-05 1.46608e-10 
9 1 0.0809004 0.0178595 0.00706018 0.00560571 0.00024319 0.000244629 8.42551e-13 1.21186e-12 2.09864e-13 5e-05 1.46608e-10 
10 1 0.0745867 0.0164852 0.00776014 0.00615049 -0.000215402 -0.000263684 9.27408e-11 6.30159e-12 -3.29553e-11 5e-05 1.46608e-10 
11 1 0.0750284 0.0171891 0.00722153 0.00569905 0.000127415 7.00873e-05 1.24947e-10 -7.21825e-11 2.70928e-11 5e-05 1.46608e-10 
12 1 0.068597 0.0165255 0.00774169 0.00598054 -0.000612607 0.000260752 4.81709e-11 -2.46185e-12 -2.42616e-12 5e-05 1.46608e-10 
13 1 0.0744346 0.0159398 0.00817173 0.0061672 -0.000249186 -0.000238779 1.36571e-11 -1.15405e-11 -1.08177e-10 5e-05 1.46608e-10 
14 1 0.0682945 0.0154559 0.00858729 0.00551627 -0.000344992 0.000414374 -4.24266e-12 1.19209e-11 -9.00872e-11 5e-05 1.46608e-10 
15 1 0.0747821 0.0168999 0.0074417 0.00586016 -0.000130688 -0.000303386 4.52918e-11 -3.46345e-11 -3.8507e-11 5e-05 1.46608e-10 
16 1 0.068279 0.0154315 0.00868302 0.00565778 -0.000365239 0.000437765 7.84763e-12 9.70465e-11 -7.13348e-11 5e-05 1.46608e-10 
17 1 0.074565 0.0164073 0.00781894 0.00614675 -0.00022184 -0.000259714 2.60964e-10 -3.81943e-11 2.79003e-11 5e-05 1.46608e-10 
18 1 0.0807857 0.0173259 0.00730931 0.00559736 0.000246694 0.000242486 2.84193e-12 -5.13656e-12 -1.04584e-12 5e-05 1.46608e-10 
19 1 0.0744129 0.0158619 0.00823053 0.00616612 -0.000261931 -0.000235415 -1.15055e-10 -3.60927e-11 6.6998e-11 5e-05 1.46608e-10 
21 1 0.0745524 0.0160395 0.00809037 0.00615904 -0.000233856 -0.000251356 2.02904e-11 -5.26015e-11 -1.12433e-11 5e-05 1.46608e-10 
22 1 0.074688 0.0168775 0.00746737 0.00586845 -0.000227459 -0.000373784 -6.97034e-11 -1.30051e-10 -1.0459e-10 5e-05 1.46608e-10 
23 1 0.0687791 0.0168771 0.00748983 0.00563859 -0.000542852 0.000221026 -8.61478e-12 -9.25009e-11 6.95452e-11 5e-05 1.46608e-10 
24 1 0.0808435 0.0175926 0.00718481 0.00552375 0.00025672 0.00023277 -1.63055e-12 -4.14483e-12 4.29608e-12 5e-05 1.46608e-10 
25 1 0.0746291 0.0166439 0.00764613 0.00607836 -0.000243559 -0.000330223 -3.77604e-11 2.96929e-12 -1.48786e-10 5e-05 1.46608e-10 
26 1 0.0807256 0.0170595 0.0074335 0.00577167 0.000220212 0.000266205 -1.20286e-12 1.73819e-12 1.36499e-12 5e-05 1.46608e-10 
27 1 0.0686771 0.0168454 0.00751534 0.00563441 -0.000559493 0.000232296 1.06471e-11 -7.60792e-11 2.59188e-11 5e-05 1.46608e-10 
28 1 0.0748799 0.0173229 0.00722647 0.00568161 0.000112922 7.32803e-06 6.18436e-11 1.76511e-11 1.44848e-10 5e-05 1.46608e-10 
29 1 0.0743912 0.015784 0.00828934 0.00616281 -0.000279407 -0.000214529 3.01975e-12 -6.24947e-11 1.92784e-10 5e-05 1.46608e-10 
30 1 0.0749141 0.0170813 0.00729915 0.0058187 -5.03383e-06 -0.000393013 -2.64702e-11 8.5298e-11 -1.0864e-10 5e-05 1.46608e-10 
31 1 0.0746683 0.0167998 0.00752717 0.00592267 -0.00026821 -0.000409677 -1.10281e-10 -4.11568e-11 -3.56697e-11 5e-05 1.46608e-10 
32 1 0.0747638 0.0168226 0.00750248 0.00590718 -0.000161316 -0.000335167 -2.37886e-11 -3.72238e-11 -6.13246e-11 5e-05 1.46608e-10 
33 1 0.0806644 0.0167932 0.00755752 0.00572502 0.000229709 0.00025852 -8.1662e-13 2.9389e-12 -1.07845e-12 5e-05 1.46608e-10 
34 1 0.0745432 0.0163294 0.00787774 0.00614662 -0.000227637 -0.000255839 8.19366e-11 -7.41237e-11 3.17152e-11 5e-05 1.46608e-10 
35 1 0.0747439 0.016743 0.0075597 0.00596748 -0.000150515 -0.000302669 -5.70816e-11 -1.23983e-11 -6.169e-11 5e-05 1.46608e-10 
36 1 0.0809384 0.0180374 0.0069771 0.00570064 0.000227989 0.000257967 2.20119e-12 7.84588e-12 -3.72295e-12 5e-05 1.46608e-10 
37 1 0.0747042 0.0165861 0.00767786 0.00613225 -0.000168993 -0.000296335 -2.38986e-10 4.49836e-11 -1.26287e-11 5e-05 1.46608e-10 
38 1 0.074858 0.016845 0.00747684 0.00589536 -0.000109355 -0.000324023 1.21068e-10 3.10602e-11 -5.59588e-11 5e-05 1.46608e-10 
39 1 0.0808625 0.0176816 0.00714326 0.00555112 0.000252237 0.000236734 1.87111e-13 -4.56698e-12 6.08676e-13 5e-05 1.46608e-10 
41 1 0.0744998 0.0161736 0.00799533 0.00615459 -0.000234759 -0.000249597 6.98482e-12 -5.49776e-11 -6.39224e-13 5e-05 1.46608e-10 
42 1 0.0747064 0.0169559 0.00740808 0.00582851 -0.000127436 -0.000254061 1.98005e-12 -7.14773e-11 -2.75177e-11 5e-05 1.46608e-10 
44 1 0.0748767 0.0169235 0.0074178 0.00584533 -0.000102667 -0.000331287 1.37912e-10 2.74251e-11 -3.64809e-11 5e-05 1.46608e-10 
45 1 0.0806848 0.016882 0.00751618 0.00574058 0.000226728 0.000261371 5.16248e-12 -1.58282e-12 -5.63971e-12 5e-05 1.46608e-10 
46 1 0.0807662 0.017237 0.00735078 0.00556965 0.000251549 0.000238172 -1.19123e-13 -1.23652e-12 2.05605e-12 5e-05 1.46608e-10 
47 1 0.0745215 0.0162515 0.00793653 0.00615094 -0.000231857 -0.000251106 -2.44516e-11 -4.38544e-11 2.62607e-11 5e-05 1.46608e-10 
48 1 0.0747433 0.0171102 0.00728636 0.00577279 5.40813e-05 -3.8382e-05 5.10542e-11 9.29267e-11 1.1404e-10 5e-05 1.46608e-10 
49 1 0.080746 0.0171482 0.00739216 0.00578704 0.000216983 0.000268852 6.15796e-13 -1.5762e-12 -8.36962e-13 5e-05 1.46608e-10 
50 1 0.0747999 0.0173829 0.00722813 0.00567925 0.000104778 -3.35461e-06 7.02557e-12 -4.82722e-12 6.13185e-11 5e-05 1.46608e-10 
51 1 0.0747803 0.0172848 0.00722711 0.00570636 0.000104855 1.90049e-05 1.0056e-10 4.87915e-11 -5.44731e-11 5e-05 1.46608e-10 
52 1 0.0685756 0.0164459 0.00779828 0.0060018 -0.000614429 0.000260593 -8.75623e-13 -5.8588e-11 3.3565e-13 5e-05 1.46608e-10 
53 1 0.0808052 0.0174147 0.00726784 0.0056252 0.000241779 0.00024642 -1.78437e-12 -4.16934e-12 3.39472e-12 5e-05 1.46608e-10 
54 1 0.0745307 0.0159615 0.00814917 0.00616431 -0.000237646 -0.000249758 1.07105e-10 4.88667e-11 -2.4037e-11 5e-05 1.46608e-10 
55 1 0.0683374 0.015588 0.00844352 0.00605572 -0.0004095 0.000510478 2.32196e-11 -3.61409e-11 -7.49383e-11 5e-05 1.46608e-10 
56 1 0.0747241 0.0166645 0.00761879 0.00601934 -0.000159823 -0.000298678 7.38153e-11 1.11377e-10 -1.35605e-10 5e-05 1.46608e-10 
57 1 0.0807052 0.0169707 0.00747484 0.00575606 0.000223525 0.00026374 2.64549e-13 1.89196e-12 3.24988e-12 5e-05 1.46608e-10 
59 1 0.0747804 0.0165315 0.00771278 0.00611968 -0.000190991 -0.000279582 -2.97501e-10 8.4039e-11 -3.99508e-11 5e-05 1.46608e-10 
60 1 0.0748001 0.0166098 0.00765382 0.00600648 -0.000162333 -0.000291631 3.74643e-11 4.35556e-11 -6.45178e-11 5e-05 1.46608e-10 
61 1 0.0744781 0.0160957 0.00805413 0.00615599 -0.000239982 -0.000248145 -7.25335e-12 -2.64987e-11 4.03677e-11 5e-05 1.46608e-10 
62 1 0.0748954 0.0170034 0.00736046 0.0057896 -0.000657464 -0.00124867 7.49796e-12 -6.72481e-11 -2.78522e-10 5e-05 1.46608e-10 
63 1 0.0748375 0.0171356 0.00726459 0.00574121 -2.66271e-05 -0.000269056 -1.72156e-11 -2.55547e-11 -1.48101e-10 5e-05 1.46608e-10 
64 1 0.0808245 0.0175036 0.00722635 0.00549662 0.000261198 0.000228861 -6.80593e-13 -4.58781e-12 2.40193e-12 5e-05 1.46608e-10 
65 1 0.0687 0.0165571 0.00771659 0.00591831 -0.000586603 0.000242961 1.2969e-10 -9.76799e-11 4.17529e-11 5e-05 1.46608e-10 
66 1 0.0686353 0.0163179 0.00788631 0.00603408 -0.000593907 0.00024669 5.83523e-11 -1.2169e-10 1.07324e-10 5e-05 1.46608e-10 
67 1 0.0750127 0.0171069 0.00727629 0.00568909 3.52404e-05 -7.81455e-05 -4.59807e-11 -4.53401e-11 2.41508e-11 5e-05 1.46608e-10 
68 1 0.074955 0.0172569 0.00722435 0.00568798 0.000119612 4.7934e-05 9.85029e-11 -1.59958e-11 1.76438e-10 5e-05 1.46608e-10 
69 1 0.0746402 0.0163518 0.00785458 0.00614563 -0.000218497 -0.000262988 3.11981e-10 5.73882e-11 -8.10442e-11 5e-05 1.46608e-10 
70 1 0.0808814 0.0177705 0.00710172 0.00557845 0.0002477 0.0002406 -8.93467e-13 -1.47342e-12 1.27646e-12 5e-05 1.46608e-10 
71 1 0.0683155 0.0155201 0.00851358 0.00547111 -0.000321806 0.00041483 4.95548e-11 -5.35124e-11 -1.16164e-10 5e-05 1.46608e-10 
72 1 0.0749347 0.0171596 0.0072402 0.00564214 -3.09046e-05 -0.000375216 2.02665e-10 2.01021e-10 1.31462e-11 5e-05 1.46608e-10 
73 1 0.0746084 0.0165641 0.00770261 0.00614085 -0.00022496 -0.000288915 3.12822e-12 -5.11307e-11 -1.23909e-10 5e-05 1.46608e-10 
74 1 0.0748009 0.0169795 0.00738421 0.00583268 -8.96219e-05 -0.000282105 1.0359e-10 -1.47689e-11 4.27176e-11 5e-05 1.46608e-10 
76 1 0.0688954 0.0174293 0.00715493 0.00547164 -0.000522354 0.000221514 9.16701e-11 1.12128e-11 -1.38075e-11 5e-05 1.46608e-10 
77 1 0.0750411 0.0181059 0.00720077 0.00569592 0.00011169 -0.000305749 3.21861e-11 -1.79419e-11 -4.81682e-12 5e-05 1.46608e-10 
78 1 0.0684023 0.015817 0.00826099 0.00606937 -0.000400509 0.000524112 -5.57691e-11 1.03363e-11 5.16419e-12 5e-05 1.46608e-10 
79 1 0.0686182 0.0166055 0.00768544 0.00590156 -0.00060058 0.000254173 1.75448e-10 -2.80861e-11 2.52187e-11 5e-05 1.46608e-10 
80 1 0.0748576 0.0176771 0.00721959 0.00550006 0.000114302 -0.00050798 -5.9645e-12 -6.41046e-12 -3.59927e-10 5e-05 1.46608e-10 
81 1 0.0685537 0.0163663 0.00785465 0.00601622 -0.000613147 0.000258813 4.62894e-11 -1.06336e-10 7.13342e-11 5e-05 1.46608e-10 
82 1 0.0686972 0.0169254 0.00745883 0.005624 -0.000558681 0.000231943 -5.43225e-11 -9.2286e-11 2.30712e-11 5e-05 1.46608e-10 
83 1 0.0687034 0.0162012 0.00796628 0.00608445 -0.000559957 0.000223903 1.39185e-12 -1.12036e-10 8.39837e-11 5e-05 1.46608e-10 
84 1 0.0809194 0.0179485 0.00701864 0.00563306 0.000238554 0.000248551 1.87551e-12 4.49584e-12 -3.2162e-12 5e-05 1.46608e-10 
85 1 0.068503 0.0158474 0.0082399 0.00606269 -0.000384081 0.000504612 -1.42768e-11 -1.75783e-11 8.94333e-12 5e-05 1.46608e-10 
86 1 0.0748603 0.0172248 0.00722564 0.00570438 0.000110668 1.68729e-05 7.5153e-11 2.4469e-11 -2.43515e-11 5e-05 1.46608e-10 
87 1 0.0747599 0.0164533 0.00777169 0.00614843 -0.000212807 -0.000265594 3.48911e-10 -5.22141e-11 1.26957e-11 5e-05 1.46608e-10 
88 1 0.0749182 0.0179708 0.00720976 0.00565864 0.000121021 -0.000305465 -6.40908e-11 -2.95856e-11 -5.29141e-13 5e-05 1.46608e-10 
89 1 0.0748771 0.0177751 0.0072155 0.00548135 0.000126388 -0.000295482 -4.34524e-11 -1.71755e-11 1.25393e-11 5e-05 1.46608e-10 
90 1 0.074973 0.016949 0.00739243 0.00577102 -0.00013229 -0.000295278 -1.20057e-10 -3.08937e-11 1.68212e-11 5e-05 1.46608e-10 
91 1 0.0686381 0.0166852 0.00762848 0.00576785 -0.000579439 0.000242962 3.78511e-11 -3.23702e-11 2.53582e-11 5e-05 1.46608e-10 
92 1 0.074994 0.0174528 0.0072151 0.00556701 0.000127204 -0.000293408 3.94626e-11 4.64456e-12 4.34897e-11 5e-05 1.46608e-10 
93 1 0.0749765 0.0178131 0.00720951 0.00564942 0.000121823 -0.000303274 4.2266e-11 2.57201e-11 -6.23289e-12 5e-05 1.46608e-10 
94 1 0.0750533 0.0177468 0.00720662 0.00563307 0.000113531 -0.000300801 -7.02506e-11 1.32146e-10 -1.00709e-11 5e-05 1.46608e-10 
95 1 0.0748384 0.017579 0.00722111 0.00549025 0.000124323 -0.000297591 -2.78603e-11 -1.56412e-11 3.48848e-12 5e-05 1.46608e-10 
96 1 0.0750133 0.0175509 0.0072123 0.00551079 0.000136932 -0.000294204 -4.53843e-11 6.69165e-11 1.0162e-11 5e-05 1.46608e-10 
97 1 0.0685104 0.0162071 0.00796772 0.00601973 -0.000565269 0.000302932 -5.31425e-11 -1.44274e-10 5.44822e-11 5e-05 1.46608e-10 
98 1 0.0749398 0.0180684 0.00720685 0.00567655 0.000123088 -0.00030495 -1.09442e-11 -2.61558e-11 3.26487e-12 5e-05 1.46608e-10 
99 1 0.0686787 0.0164773 0.00777322 0.00599642 -0.000600853 0.00025226 9.35373e-11 -4.65716e-11 7.59233e-11 5e-05 1.46608e-10 
100 1 0.0749358 0.016792 0.00751052 0.00586415 -0.000145705 -0.00029501 -3.32976e-12 -7.35496e-11 2.93635e-11 5e-05 1.46608e-10 
101 1 0.0686134 0.016238 0.00794299 0.00605277 -0.00058777 0.000246858 1.26679e-12 -1.10207e-10 9.29693e-11 5e-05 1.46608e-10 
102 1 0.0643568 0.0187248 0.00531097 4.36733e-15 1.04967e-14 8.29552e-14 -6.73286e-22 8.41656e-23 1.69572e-23 5e-05 1.46608e-10 
103 1 0.24257 0.0191927 0.00520306 -6.8136e-23 -3.03968e-22 1.23839e-22 3.23117e-27 0 0 5e-05 1.46608e-10 
104 1 0.0689228 0.0171762 0.00731612 0.00553216 -0.000526653 0.000216493 -3.24059e-11 2.83321e-11 -3.61336e-11 5e-05 1.46608e-10 
105 1 0.0684673 0.0160488 0.00808205 0.00604726 -0.000485403 0.000408899 2.87045e-11 -3.45161e-11 1.40575e-10 5e-05 1.46608e-10 
106 1 0.0690107 0.0171296 0.00730609 0.00553199 -0.000520855 0.000211714 -1.01857e-11 2.52624e-11 -1.69528e-11 5e-05 1.46608e-10 
107 1 0.0684236 0.0158936 0.00820037 0.00605119 -0.000400178 0.000515158 -1.72773e-11 -3.5008e-11 7.11692e-12 5e-05 1.46608e-10 
108 1 0.0746835 0.0165077 0.00773691 0.00615412 -0.00020064 -0.000278792 -3.25443e-11 -2.1362e-10 1.26296e-10 5e-05 1.46608e-10 
109 1 0.0747608 0.0171868 0.00722444 0.00573568 0.00010388 1.3627e-05 2.63899e-11 2.23948e-11 -1.63431e-11 5e-05 1.46608e-10 
110 1 0.0751083 0.0175826 0.00720669 0.00570856 0.000114089 -0.000305439 -4.1555e-11 2.83312e-11 1.06891e-11 5e-05 1.46608e-10 
111 1 0.0749829 0.0182638 0.00720101 0.00571406 0.000118029 -0.000306594 1.34524e-11 -1.77127e-11 9.09401e-13 5e-05 1.46608e-10 
112 1 0.068532 0.0162867 0.00791115 0.00601667 -0.000598709 0.000266323 -5.12626e-11 -1.53318e-10 7.64663e-11 5e-05 1.46608e-10 
113 1 0.0693137 0.0176191 0.0071688 0.00552321 -0.000481723 0.000223129 -6.2839e-11 4.35274e-12 -5.32198e-12 5e-05 1.46608e-10 
114 1 0.0688893 0.0169195 0.00745698 0.0056 -0.000536385 0.000217748 -1.10271e-10 -2.13897e-11 3.76036e-11 5e-05 1.46608e-10 
115 1 0.0748195 0.0170581 0.00732518 0.00573637 -0.00042217 -0.000768656 -4.71951e-11 -9.66795e-11 -1.4699e-10 5e-05 1.46608e-10 
116 1 0.0746619 0.0164297 0.00779577 0.00613975 -0.000222164 -0.000260067 1.30456e-10 1.88543e-11 -5.11629e-11 5e-05 1.46608e-10 
117 1 0.074509 0.0158836 0.00820797 0.00617394 -0.000241438 -0.000245415 1.33204e-10 4.87613e-11 -2.50947e-11 5e-05 1.46608e-10 
118 1 0.0683584 0.0156639 0.00838196 0.00605992 -0.000403269 0.000520761 -1.00353e-11 1.98986e-11 -1.65726e-11 5e-05 1.46608e-10 
119 1 0.07482 0.0166881 0.00759487 0.0059536 -0.000138976 -0.000306994 -3.20804e-10 1.28686e-10 -7.6781e-11 5e-05 1.46608e-10 
120 1 0.0743695 0.0157061 0.00834814 0.00616789 -0.000314465 -0.000218084 -1.38716e-10 -1.87349e-10 -3.98902e-10 5e-05 1.46608e-10 
121 1 0.0743261 0.0155544 0.00847081 0.00619844 6.61369e-05 0.000220885 -3.27075e-10 6.02612e-11 -1.14948e-09 5e-05 1.46608e-10 
122 1 0.0751282 0.0176805 0.00720386 0.00571023 0.000118073 -0.000304681 -1.25291e-10 1.90224e-11 -1.2806e-11 5e-05 1.46608e-10 
123 1 0.0685484 0.0160023 0.00811753 0.00607326 -0.000375979 0.000499751 7.34482e-11 -6.87568e-11 4.53242e-11 5e-05 1.46608e-10 
124 1 0.0749374 0.017617 0.00721514 0.00551459 0.000135827 -0.000297849 -6.6207e-11 -9.98855e-12 3.01789e-12 5e-05 1.46608e-10 
125 1 0.0744873 0.0158057 0.00826677 0.00618043 -0.000246571 -0.000242665 -5.4702e-11 1.03951e-11 -2.48174e-11 5e-05 1.46608e-10 
126 1 0.074725 0.0170333 0.00734755 0.00580807 -2.84191e-05 -0.000132389 9.00343e-11 3.98363e-11 9.83966e-11 5e-05 1.46608e-10 
127 1 0.0684887 0.0161277 0.00802448 0.00603201 -0.000525041 0.000353317 1.71971e-11 -9.60554e-11 7.08828e-11 5e-05 1.46608e-10 
128 1 0.0748193 0.0174809 0.00722391 0.00551306 0.00012322 -0.000294901 -1.52936e-11 -2.27871e-11 -1.13658e-11 5e-05 1.46608e-10 
129 1 0.0748967 0.0178732 0.00721268 0.00563894 0.000119531 -0.000303384 1.53242e-11 -1.07224e-11 3.82999e-13 5e-05 1.46608e-10 
130 1 0.0687996 0.0169569 0.00743322 0.00560158 -0.00053941 0.000219984 -5.53526e-11 -9.45093e-11 6.69526e-11 5e-05 1.46608e-10 
131 1 0.0686573 0.0163976 0.00782975 0.00602417 -0.0005932 0.000244176 -4.49693e-11 -6.34792e-11 8.00158e-11 5e-05 1.46608e-10 
132 1 0.0749188 0.0175188 0.00721791 0.00551648 0.000133824 -0.000294904 -1.17731e-11 -2.3859e-11 1.96702e-11 5e-05 1.46608e-10 
133 1 0.0746724 0.016141 0.00800743 0.00687813 0.000423375 -0.000783551 1.26119e-10 1.58104e-12 -1.62984e-11 5e-05 1.46608e-10 
134 1 0.0748395 0.0167665 0.00753589 0.0059395 -0.000122789 -0.000314889 7.85733e-11 6.56257e-11 -3.74418e-11 5e-05 1.46608e-10 
135 1 0.0744656 0.0157278 0.00832558 0.00620615 -0.000255425 -0.000238899 9.53915e-11 1.74036e-11 -1.87456e-11 5e-05 1.46608e-10 
136 1 0.0684801 0.0157691 0.00830177 0.00608146 -0.000399169 0.000517672 1.07423e-11 5.07544e-12 -7.16782e-12 5e-05 1.46608e-10 
137 1 0.0750044 0.0183614 0.0071981 0.00572759 0.000118718 -0.000307064 3.88668e-11 2.06457e-12 -4.01501e-12 5e-05 1.46608e-10 
138 1 0.0746183 0.0162738 0.00791343 0.00641711 1.6007e-05 -0.000452309 2.25821e-10 -1.95296e-10 1.18733e-10 5e-05 1.46608e-10 
140 1 0.075148 0.0177785 0.00720103 0.00567604 0.000126776 -0.000302573 -2.03012e-10 2.99289e-11 2.05087e-11 5e-05 1.46608e-10 
141 1 0.0685255 0.0159248 0.00817876 0.00606731 -0.000377371 0.00050176 5.48156e-11 -3.17426e-11 4.5413e-11 5e-05 1.46608e-10 
142 1 0.06891 0.0169993 0.00740039 0.00558079 -0.000532025 0.000216441 -1.79429e-10 -2.2878e-11 8.34531e-12 5e-05 1.46608e-10 
143 1 0.0684453 0.0159709 0.00814079 0.00604884 -0.000434863 0.000473038 2.34762e-11 -3.4676e-11 8.179e-11 5e-05 1.46608e-10 
144 1 0.0688688 0.0168396 0.00751358 0.00562256 -0.000539011 0.000219326 -5.23146e-11 -4.48263e-11 3.89561e-11 5e-05 1.46608e-10 
146 1 0.0687251 0.0162808 0.0079098 0.0060551 -0.000567707 0.00022562 7.42293e-11 -1.27134e-10 9.48062e-11 5e-05 1.46608e-10 
147 1 0.0684579 0.0156926 0.00836224 0.00607471 -0.000405037 0.000522643 -7.15306e-11 6.38923e-11 -4.53736e-11 5e-05 1.46608e-10 
148 1 0.0687533 0.0171657 0.00728847 0.0055403 -0.000551248 0.000223411 -2.11946e-11 -3.62547e-11 1.86624e-11 5e-05 1.46608e-10 
149 1 0.0750732 0.0178448 0.00720379 0.00566051 0.000110868 -0.000301354 -7.86489e-11 1.2696e-10 2.42237e-12 5e-05 1.46608e-10 
150 1 0.0687685 0.01644 0.00779683 0.0060147 -0.000579727 0.000236605 1.10631e-10 -1.11222e-10 7.57564e-11 5e-05 1.46608e-10 
151 1 0.0690965 0.0171705 0.00727497 0.0055257 -0.000507793 0.000206639 1.06862e-10 -8.8673e-11 8.30447e-11 5e-05 1.46608e-10 
153 1 0.0685915 0.0161582 0.00799968 0.00605637 -0.000522077 0.000277568 6.1573e-11 -1.75538e-10 6.67421e-12 5e-05 1.46608e-10 
154 1 0.068843 0.0172005 0.00726105 0.0055309 -0.000533545 0.000220178 -2.50837e-11 2.09024e-11 -3.93753e-11 5e-05 1.46608e-10 
155 1 0.0689199 0.017533 0.00715451 0.00546763 -0.000518908 0.000221675 6.84221e-11 -4.95332e-11 1.22088e-12 5e-05 1.46608e-10 
156 1 0.0688353 0.0171175 0.00731951 0.00556927 -0.000515854 0.000204506 -6.91446e-11 -9.86204e-11 6.77574e-11 5e-05 1.46608e-10 
157 1 0.0219312 0.0187687 0.00551176 -3.82831e-14 8.16971e-14 2.95886e-13 3.75411e-22 1.9811e-22 -3.10193e-24 5e-05 1.46608e-10 
158 1 0.068906 0.0172777 0.00725267 0.00551469 -0.000518541 0.000224253 3.28143e-11 4.85982e-12 -1.35433e-12 5e-05 1.46608e-10 
159 1 0.0749747 0.0173549 0.00722135 0.00566285 0.000117374 -0.00017217 8.70601e-11 -4.12313e-11 1.98991e-10 5e-05 1.46608e-10 
160 1 0.0688254 0.0175006 0.00715123 0.00546243 -0.000520412 0.000222296 5.19556e-11 4.75457e-12 -1.02956e-11 5e-05 1.46608e-10 
162 1 0.0688129 0.0172823 0.00720451 0.00550723 -0.000539104 0.00022051 6.45532e-11 1.08919e-11 1.37369e-11 5e-05 1.46608e-10 
164 1 0.069089 0.0178867 0.00715642 0.00553175 -0.000529629 0.000223945 2.09245e-10 -1.30823e-10 8.43252e-12 5e-05 1.46608e-10 
165 1 0.0691811 0.0173902 0.00716665 0.00551317 -0.0004875 0.000223836 1.15119e-10 7.84623e-11 -4.32298e-11 5e-05 1.46608e-10 
166 1 0.0746264 0.0159829 0.00812686 0.00616345 -0.000230369 -0.000253537 7.33096e-11 -7.3117e-11 5.86172e-11 5e-05 1.46608e-10 
167 1 0.068747 0.0163604 0.00785334 0.00603776 -0.000573482 0.000231719 -1.01542e-11 -1.35394e-10 6.30642e-11 5e-05 1.46608e-10 
168 1 0.0689871 0.0172124 0.00724863 0.00552619 -0.000517465 0.000210408 8.36198e-12 -2.22431e-11 -2.12413e-11 5e-05 1.46608e-10 
169 1 0.0692384 0.0176847 0.00716497 0.0055179 -0.000482321 0.000221985 -5.90432e-11 3.30191e-11 6.08171e-12 5e-05 1.46608e-10 
170 1 0.0690709 0.0173336 0.00716308 0.00551545 -0.000493072 0.000224337 1.48288e-10 -1.94783e-11 1.18404e-11 5e-05 1.46608e-10 
171 1 0.0746485 0.0160611 0.00806783 0.00615032 -0.000226178 -0.000256189 -4.65869e-13 -2.86517e-11 2.54102e-11 5e-05 1.46608e-10 
172 1 0.06916 0.0172944 0.00718619 0.00552158 -0.000495296 0.000209932 1.92737e-10 9.27218e-11 -2.78859e-11 5e-05 1.46608e-10 
173 1 0.0751068 0.0171368 0.00725505 0.00572726 0.000152497 4.77162e-05 8.52903e-11 -1.2066e-10 2.67436e-12 5e-05 1.46608e-10 
174 1 0.0689879 0.0173916 0.00715906 0.00547155 -0.000522393 0.000220804 6.00718e-11 -8.51618e-11 9.76868e-12 5e-05 1.46608e-10 
175 1 0.0628127 0.0174412 0.00716306 0.00565461 0.000349883 -0.000112502 8.4821e-12 8.94973e-11 -7.23819e-11 5e-05 1.46608e-10 
176 1 0.0688204 0.0170367 0.00737664 0.00557513 -0.000538268 0.000219768 -1.24864e-10 -6.00106e-11 5.51819e-11 5e-05 1.46608e-10 
177 1 0.0688635 0.0176969 0.00715011 0.00544895 -0.000508695 0.000219102 -9.40345e-12 5.41987e-12 -4.06666e-12 5e-05 1.46608e-10 
178 1 0.0692947 0.0175209 0.00716936 0.0055129 -0.0004858 0.000222458 -2.34916e-11 3.86915e-11 2.58857e-11 5e-05 1.46608e-10 
179 1 0.0692191 0.0175865 0.00716552 0.00550719 -0.000482102 0.000222624 -1.78838e-11 4.76116e-11 -6.71798e-12 5e-05 1.46608e-10 
181 1 0.068793 0.0173613 0.00728706 0.00548312 -0.000537282 0.000219893 6.63855e-11 -4.07121e-11 -4.78161e-11 5e-05 1.46608e-10 
182 1 0.0745966 0.0161959 0.00797227 0.00639853 -1.30617e-05 -0.000430089 6.34424e-11 -1.52048e-11 2.10937e-11 5e-05 1.46608e-10 
183 1 0.0689834 0.0172945 0.00719166 0.00551563 -0.000501319 0.000227369 9.87692e-11 5.69749e-12 2.25691e-11 5e-05 1.46608e-10 
184 1 0.0749221 0.0173673 0.00730546 0.00576355 0.000279325 -0.000133228 -1.75601e-10 -5.98846e-11 1.09846e-10 5e-05 1.46608e-10 
185 1 0.0687385 0.0170848 0.00734525 0.00556401 -0.000550382 0.000228006 -7.49844e-11 -4.5618e-11 3.8461e-11 5e-05 1.46608e-10 
186 1 0.0687728 0.0172636 0.00729422 0.00551412 -0.000545275 0.000218798 5.90352e-12 -2.24973e-11 7.89515e-12 5e-05 1.46608e-10 
187 1 0.0749173 0.0167134 0.00756957 0.00591354 -0.00015237 -0.000294545 -9.96434e-11 -2.4933e-11 3.17225e-11 5e-05 1.46608e-10 
188 1 0.0749981 0.0179107 0.0072066 0.00565696 0.000111286 -0.000303903 -5.35197e-11 1.09414e-10 3.83578e-12 5e-05 1.46608e-10 
189 1 0.0749544 0.0168705 0.00745148 0.00581127 -0.000139175 -0.000296765 1.52113e-11 -6.78703e-11 2.75252e-11 5e-05 1.46608e-10 
190 1 0.0629241 0.017563 0.00710555 0.00564441 0.000315818 -0.000194775 -5.06702e-12 1.66872e-11 -5.19076e-12 5e-05 1.46608e-10 
191 1 0.0750259 0.018459 0.00719518 0.00574736 0.00012165 -0.00030971 -6.03303e-11 8.20427e-11 1.17047e-11 5e-05 1.46608e-10 
192 1 0.0690025 0.0169671 0.00742035 0.00558608 -0.000522798 0.000209474 -1.84439e-10 2.45913e-11 -9.453e-12 5e-05 1.46608e-10 
193 1 0.0747383 0.0163754 0.0078305 0.00611259 -0.000227086 -0.000251813 3.87335e-10 -1.012e-10 2.58545e-11 5e-05 1.46608e-10 
194 1 0.0688096 0.0165997 0.00768363 0.00576743 -0.000549264 0.000222223 9.90106e-11 -4.72962e-11 3.02952e-11 5e-05 1.46608e-10 
195 1 0.0692002 0.0174884 0.00716609 0.00550933 -0.000484635 0.000222799 6.58853e-11 2.60196e-11 -4.29121e-11 5e-05 1.46608e-10 
196 1 0.068258 0.0154071 0.00877773 0.00587702 -0.00038201 0.000489072 3.74878e-11 3.74245e-11 -7.04685e-11 5e-05 1.46608e-10 
197 1 0.0628707 0.0177294 0.00711622 0.00565393 0.00033694 -0.000196954 -1.19441e-11 -3.01176e-11 -3.36716e-11 5e-05 1.46608e-10 
198 1 0.0686573 0.0167653 0.00757175 0.00567477 -0.00056478 0.000235724 -3.04987e-11 -4.93611e-11 2.51243e-11 5e-05 1.46608e-10 
199 1 0.0687994 0.0173664 0.007152 0.0054915 -0.000538275 0.000222786 -1.52141e-11 6.77018e-12 1.01221e-11 5e-05 1.46608e-10 
200 1 0.0687589 0.0167972 0.00754647 0.00563619 -0.000554485 0.00022922 4.07426e-11 -5.08491e-11 2.52271e-11 5e-05 1.46608e-10 
201 1 0.0691879 0.017922 0.00715982 0.00570847 -0.000524864 0.000230949 8.21029e-11 1.83992e-10 -3.47776e-12 5e-05 1.46608e-10 
202 1 0.0690175 0.0170478 0.00736327 0.0055555 -0.000522584 0.000209944 -1.73702e-10 1.98621e-11 -3.1564e-12 5e-05 1.46608e-10 
203 1 0.0751266 0.017225 0.00721222 0.00556546 1.30375e-05 -0.000292007 -1.3844e-10 -6.14687e-11 3.41503e-11 5e-05 1.46608e-10 
204 1 0.0687392 0.0167172 0.00760316 0.00568333 -0.000565634 0.000235972 -9.96557e-12 -3.68879e-11 2.62527e-11 5e-05 1.46608e-10 
205 1 0.06905 0.0176903 0.00715751 0.00547907 -0.000526575 0.000221913 -7.03537e-11 -2.90159e-11 -4.79227e-12 5e-05 1.46608e-10 
206 1 0.0690117 0.0174935 0.00715863 0.00548411 -0.000502018 0.000221363 5.91269e-11 -5.96025e-11 3.45356e-13 5e-05 1.46608e-10 
207 1 0.0685697 0.0160789 0.00805692 0.0060635 -0.000375537 0.000498147 1.21791e-10 -5.67496e-11 8.01885e-11 5e-05 1.46608e-10 
208 1 0.0688929 0.0173303 0.0071686 0.00550042 -0.00052805 0.000217651 7.29406e-11 2.19771e-13 -1.02714e-11 5e-05 1.46608e-10 
209 1 0.0687897 0.0165197 0.00774029 0.00592736 -0.000570773 0.000232916 1.28925e-10 -6.83343e-11 4.72247e-11 5e-05 1.46608e-10 
210 1 0.0748014 0.0172273 0.00730638 0.00571856 7.73749e-05 3.68525e-05 1.08639e-10 -2.16456e-11 1.07207e-11 5e-05 1.46608e-10 
211 1 0.0750334 0.0176488 0.00720945 0.00556362 0.00012588 -0.000297402 -1.00661e-10 1.15679e-10 9.89971e-12 5e-05 1.46608e-10 
212 1 0.0690902 0.0174317 0.00716253 0.00550567 -0.000490826 0.000222889 1.19168e-10 -7.33781e-12 1.35314e-11 5e-05 1.46608e-10 
213 1 0.0748978 0.0166351 0.00762855 0.0059498 -0.000157741 -0.000292942 -2.27605e-10 2.56663e-11 4.48366e-12 5e-05 1.46608e-10 
214 1 0.074957 0.017715 0.00721232 0.0055969 0.000125324 -0.000302058 -8.79607e-11 2.77086e-11 -2.90917e-12 5e-05 1.46608e-10 
215 1 0.0628988 0.017462 0.00711663 0.00565919 0.000343185 -0.000108904 -3.83062e-12 1.1283e-10 -1.27014e-10 5e-05 1.46608e-10 
216 1 0.0688444 0.0175988 0.00715067 0.00545959 -0.00051748 0.000220912 6.69406e-11 -2.95263e-11 -1.84487e-12 5e-05 1.46608e-10 
217 1 0.0746942 0.016219 0.00794855 0.00694954 0.000498215 -0.000844216 3.25876e-10 -2.24347e-10 1.47959e-10 5e-05 1.46608e-10 
218 1 0.068958 0.0177293 0.00715338 0.00546424 -0.000520272 0.000221088 -4.04077e-11 -5.59798e-11 -6.29108e-12 5e-05 1.46608e-10 
219 1 0.0749613 0.0181662 0.00720393 0.0056927 0.000116945 -0.000305808 4.87415e-11 5.88352e-14 -6.91636e-12 5e-05 1.46608e-10 
220 1 0.0688222 0.0174363 0.00722776 0.0054532 -0.000510344 0.000234092 1.25977e-10 -9.66223e-11 -8.61825e-11 5e-05 1.46608e-10 
221 1 0.0628141 0.0170609 0.00741118 0.00564324 0.000327757 -9.71312e-05 8.004e-11 -1.50868e-10 1.07309e-10 5e-05 1.46608e-10 
222 1 0.0747164 0.0162973 0.00788947 0.00685226 0.000437166 -0.000791257 1.85244e-10 -1.02266e-10 4.18113e-11 5e-05 1.46608e-10 
223 1 0.068925 0.01708 0.00734332 0.00555413 -0.000526125 0.000218305 -1.51099e-10 -3.14127e-12 -2.10916e-11 5e-05 1.46608e-10 
224 1 0.0687177 0.017005 0.00740183 0.00559629 -0.000554155 0.000230597 -8.91626e-11 -6.60675e-11 3.99428e-11 5e-05 1.46608e-10 
225 1 0.0750495 0.0172885 0.00721515 0.00564952 0.000108341 -0.000362637 -1.19739e-10 4.70983e-12 -2.75161e-10 5e-05 1.46608e-10 
226 1 0.0690762 0.017251 0.00721923 0.00552177 -0.000496871 0.000219716 2.36705e-10 -1.20708e-11 6.58901e-11 5e-05 1.46608e-10 
227 1 0.0628699 0.0172986 0.00723676 0.00563198 0.000333288 -0.000101194 -2.11335e-11 2.73527e-11 -2.29608e-11 5e-05 1.46608e-10 
228 1 0.0628323 0.0175347 0.00713339 0.00565691 0.000343885 -0.000124418 -9.84908e-12 5.29396e-11 6.07247e-11 5e-05 1.46608e-10 
229 1 0.0688558 0.0173008 0.00733598 0.00550293 -0.000521809 0.000219277 7.07686e-13 -7.15285e-11 9.66511e-12 5e-05 1.46608e-10 
230 1 0.0691315 0.0180823 0.00715548 0.00567916 -0.000527129 0.000229787 1.43565e-10 3.0135e-11 -2.45321e-12 5e-05 1.46608e-10 
231 1 0.0627933 0.0173493 0.00719727 0.00564947 0.00035015 -0.000112363 2.34745e-11 5.54428e-11 -4.96498e-11 5e-05 1.46608e-10 
232 1 0.0686817 0.0161233 0.00802509 0.00606497 -0.000350738 0.000481015 1.60943e-10 -9.61831e-11 1.35012e-10 5e-05 1.46608e-10 
233 1 0.0688288 0.0166798 0.0076269 0.00566779 -0.000538923 0.000217407 1.12676e-10 -5.15734e-11 4.44488e-11 5e-05 1.46608e-10 
234 1 0.0750202 0.0180082 0.00720365 0.00567695 0.00010989 -0.000304758 -6.67781e-11 6.19369e-11 1.02826e-11 5e-05 1.46608e-10 
235 1 0.0691757 0.0182795 0.00715458 0.00566316 -0.000575945 0.000229586 -1.53832e-10 -7.51553e-12 -1.04009e-11 5e-05 1.46608e-10 
236 1 0.0691534 0.0181802 0.00715503 0.00565546 -0.000608205 0.000229909 9.36138e-11 6.76095e-11 6.50707e-12 5e-05 1.46608e-10 
237 1 0.069231 0.0181173 0.00715891 0.00568485 -0.000530606 0.000229698 -4.6447e-11 5.2449e-11 -3.77631e-12 5e-05 1.46608e-10 
239 1 0.0626201 0.0166382 0.00771886 0.00608395 0.000286212 -5.50809e-05 -3.64267e-11 -2.08562e-11 1.39983e-11 5e-05 1.46608e-10 
240 1 0.0626806 0.0168752 0.00754511 0.00581353 0.000313428 -8.25293e-05 1.20488e-12 -2.70921e-11 3.1516e-11 5e-05 1.46608e-10 
241 1 0.0625984 0.0165595 0.00777656 0.0060989 0.000291933 -5.87859e-05 3.11344e-11 7.01163e-11 -5.09539e-11 5e-05 1.46608e-10 
242 1 0.0689613 0.0168075 0.00753354 0.00563172 -0.000523951 0.00020833 -2.4714e-11 4.08142e-12 1.80237e-11 5e-05 1.46608e-10 
243 1 0.0687199 0.0166371 0.00765989 0.00576275 -0.000580475 0.00024411 3.31988e-11 -5.19726e-11 3.55635e-11 5e-05 1.46608e-10 
244 1 0.062641 0.0167171 0.00766104 0.00564479 0.000347088 -0.000111723 -1.71334e-10 -5.29235e-11 3.6132e-11 5e-05 1.46608e-10 
246 1 0.0627569 0.0171918 0.00731286 0.00571217 0.00033685 -0.000101726 2.28154e-12 5.91108e-11 -6.65685e-11 5e-05 1.46608e-10 