ITEM: TIMESTEP
37800000
ITEM: NUMBER OF ATOMS
271
ITEM: BOX BOUNDS ff ff ff
-0.02 0.43
-0.02 0.06
-0.02 0.07
ITEM: ATOMS id type x y z vx vy vz fx fy fz radius mass 
1 1 0.232971 0.0158304 0.00850187 0.00591819 -0.000369227 -0.000518327 -1.08215e-10 -3.07821e-11 9.69472e-11 5e-05 1.46608e-10 
2 1 0.233816 0.0184291 0.00694288 0.00571784 0.000401497 -0.000569058 -1.30992e-11 2.97623e-11 -2.90347e-11 5e-05 1.46608e-10 
3 1 0.227886 0.0180199 0.00708242 0.00541141 0.000315242 0.000220988 -1.56255e-10 1.84372e-10 -1.16319e-10 5e-05 1.46608e-10 
4 1 0.233891 0.0183654 0.00695993 0.0057009 0.000378816 -0.000558414 -1.77694e-12 8.06939e-12 -5.27666e-12 5e-05 1.46608e-10 
5 1 0.232957 0.0157798 0.00858699 0.00580066 -0.00032015 -0.000486158 -7.66712e-11 -1.10063e-10 9.30907e-11 5e-05 1.46608e-10 
6 1 0.239308 0.016958 0.00740787 0.00575761 0.000106623 2.76677e-06 1.35609e-10 1.06518e-10 -5.66005e-11 5e-05 1.46608e-10 
7 1 0.23305 0.0160374 0.00816922 0.00613185 -0.00031686 -0.000496359 3.36259e-10 -1.47173e-10 -2.79433e-10 5e-05 1.46608e-10 
8 1 0.232929 0.0157274 0.00866764 0.00574551 -0.000350959 -0.000513608 2.07863e-10 -6.53111e-11 5.79849e-11 5e-05 1.46608e-10 
9 1 0.239424 0.0174682 0.00711428 0.00572434 0.000155475 -2.67619e-05 -1.00769e-10 -4.60184e-11 6.44686e-11 5e-05 1.46608e-10 
10 1 0.233509 0.0179015 0.00715347 0.0055571 0.000508719 -0.000595217 -1.79865e-10 9.70182e-12 -1.22328e-11 5e-05 1.46608e-10 
11 1 0.233643 0.0181147 0.00706767 0.00563028 0.000463302 -0.000584878 -2.26833e-11 -3.57771e-11 3.96873e-11 5e-05 1.46608e-10 
12 1 0.226983 0.015795 0.00835394 0.00609964 -0.000183803 -0.000511446 2.32177e-10 -2.0815e-10 1.57336e-10 5e-05 1.46608e-10 
13 1 0.232869 0.0155722 0.00891719 0.00560016 -0.000314743 -0.000565174 -1.25019e-10 -3.53709e-10 4.98133e-10 5e-05 1.46608e-10 
14 1 0.227659 0.0186258 0.00688201 0.00570428 0.000225289 -0.000209481 -1.59744e-13 -4.7439e-10 -9.76277e-11 5e-05 1.46608e-10 
15 1 0.233841 0.0182825 0.00699315 0.0056852 0.000401455 -0.000565389 3.10242e-11 4.93085e-11 -3.6418e-11 5e-05 1.46608e-10 
16 1 0.227755 0.0186598 0.00687824 0.00578743 0.000228166 -0.000219256 6.77698e-11 -1.29995e-09 -2.10462e-11 5e-05 1.46608e-10 
17 1 0.233975 0.0184151 0.00693606 0.00571311 0.000352799 -0.000549635 3.73879e-12 1.15931e-10 -5.29039e-12 5e-05 1.46608e-10 
19 1 0.232909 0.0156757 0.00875082 0.00571721 -0.000348199 -0.00053476 -8.22668e-12 -2.26698e-11 -1.25623e-11 5e-05 1.46608e-10 
21 1 0.23347 0.0177175 0.0072218 0.00555726 0.000490229 -0.000585719 -2.04233e-10 1.39419e-10 -2.5276e-12 5e-05 1.46608e-10 
22 1 0.233623 0.0180227 0.00710183 0.00560673 0.000468557 -0.00058619 -5.02217e-11 -3.29116e-12 -4.31356e-11 5e-05 1.46608e-10 
23 1 0.22723 0.0163566 0.00791711 0.00610261 0.000328162 0.000264471 1.8897e-10 2.15678e-10 -1.26597e-10 5e-05 1.46608e-10 
24 1 0.239502 0.0178403 0.00700182 0.0056448 0.000145591 -6.57493e-05 -7.69783e-11 1.63825e-10 1.87297e-11 5e-05 1.46608e-10 
25 1 0.233109 0.0161758 0.00791025 0.00638723 0.000359041 -0.000132588 4.41065e-11 -1.85579e-10 -2.76431e-10 5e-05 1.46608e-10 
26 1 0.239387 0.0172979 0.00721228 0.00559369 0.000174633 -3.63298e-05 -6.11035e-10 1.59203e-11 -1.98484e-12 5e-05 1.46608e-10 
27 1 0.227964 0.0183688 0.00690307 0.0056949 0.000345745 0.000226595 2.99281e-10 -1.50198e-10 7.64825e-11 5e-05 1.46608e-10 
28 1 0.233755 0.0182376 0.00701556 0.00567164 0.000426884 -0.000575214 -8.7571e-11 4.65838e-11 -3.47311e-11 5e-05 1.46608e-10 
29 1 0.233076 0.0160858 0.00808554 0.00621532 -0.000127717 -0.000375983 1.45585e-10 7.06006e-11 -2.33361e-10 5e-05 1.46608e-10 
30 1 0.233624 0.018208 0.00712643 0.00566031 0.000445646 -0.000588409 -1.18402e-10 1.81456e-10 6.92205e-11 5e-05 1.46608e-10 
31 1 0.233128 0.0162211 0.00782303 0.00639954 0.000514331 -6.03384e-05 -4.95291e-11 1.46563e-11 -7.99254e-11 5e-05 1.46608e-10 
32 1 0.233598 0.0174953 0.00729143 0.00572505 0.000301693 -0.00053348 -3.30126e-10 -1.18691e-10 6.87248e-11 5e-05 1.46608e-10 
33 1 0.239328 0.0170429 0.00735899 0.00579798 0.00011662 -4.85233e-07 -5.53472e-11 7.861e-11 -7.12153e-11 5e-05 1.46608e-10 
34 1 0.23303 0.0159903 0.00825521 0.00600286 -0.000514996 -0.000628612 1.53125e-12 1.08631e-10 -1.50777e-10 5e-05 1.46608e-10 
35 1 0.233755 0.01788 0.0071428 0.00558413 0.00043311 -0.000569438 -2.77244e-11 -4.55275e-11 -8.00401e-11 5e-05 1.46608e-10 
36 1 0.239482 0.0177439 0.00702003 0.00567858 0.000142957 -6.35452e-05 1.20128e-10 1.83341e-10 -9.47753e-11 5e-05 1.46608e-10 
37 1 0.233648 0.018569 0.00690558 0.00574162 0.000416464 -0.000575633 8.74372e-11 -4.01897e-11 -4.64417e-12 5e-05 1.46608e-10 
38 1 0.233811 0.0188977 0.00681984 0.00579763 0.000482129 -1.10695e-05 -5.90536e-11 -8.95616e-11 -9.02589e-12 5e-05 1.46608e-10 
39 1 0.239521 0.0179366 0.00698361 0.00565148 0.000146746 -6.46992e-05 -3.79986e-11 1.63113e-10 -5.78e-11 5e-05 1.46608e-10 
41 1 0.233993 0.0185076 0.00690173 0.0057668 0.000255703 -0.000523624 -7.19452e-11 2.14943e-10 5.11976e-11 5e-05 1.46608e-10 
42 1 0.321436 0.0173475 0.00552525 4.56179e-16 2.25544e-15 8.4636e-14 -1.88377e-24 6.07461e-25 0 5e-05 1.46608e-10 
44 1 0.233767 0.0183478 0.00697539 0.00570081 0.000410436 -0.000569058 -4.78189e-12 7.18732e-11 -6.2205e-11 5e-05 1.46608e-10 
45 1 0.239348 0.0171279 0.00731011 0.00583646 0.000116746 -6.27606e-07 8.37628e-11 9.34414e-11 -2.67194e-11 5e-05 1.46608e-10 
47 1 0.23299 0.0158845 0.00841998 0.00591402 -0.000443968 -0.000592473 1.46312e-10 -2.88967e-10 -2.16354e-10 5e-05 1.46608e-10 
48 1 0.233792 0.0187999 0.00682865 0.00579932 0.000473778 -9.02789e-05 9.33957e-11 1.39108e-11 -3.34255e-11 5e-05 1.46608e-10 
50 1 0.233171 0.0163831 0.00771441 0.00641169 0.000501275 -6.62075e-05 2.95336e-11 2.28918e-11 7.76045e-11 5e-05 1.46608e-10 
51 1 0.233151 0.0162999 0.00776596 0.00639753 0.000506058 -7.42562e-05 -1.63607e-10 -1.60502e-11 -8.34641e-11 5e-05 1.46608e-10 
52 1 0.226899 0.0154978 0.00860814 0.0056759 -5.86334e-05 -0.000561302 -1.10777e-10 -2.25151e-10 -3.18708e-11 5e-05 1.46608e-10 
53 1 0.239462 0.0176476 0.00703822 0.00578097 0.000133998 -5.95497e-05 -2.14265e-10 -1.96641e-12 -1.05798e-10 5e-05 1.46608e-10 
54 1 0.23374 0.0185677 0.00697178 0.00572275 0.000407 -0.000648274 3.79295e-11 -8.80934e-11 1.14015e-10 5e-05 1.46608e-10 
55 1 0.226841 0.015298 0.00881982 0.00573727 0.000524954 -0.000244942 4.27242e-11 6.24876e-11 -3.87705e-10 5e-05 1.46608e-10 
56 1 0.233667 0.018661 0.00687142 0.00576753 0.000413298 -0.000585495 1.03235e-11 2.63811e-11 5.52875e-11 5e-05 1.46608e-10 
57 1 0.239367 0.0172129 0.00726123 0.00587675 0.000124335 -2.19151e-06 -7.93537e-11 -2.67756e-12 1.66848e-11 5e-05 1.46608e-10 
59 1 0.233604 0.0179308 0.00713611 0.00558957 0.00045595 -0.000614623 -1.26039e-10 2.70154e-11 -1.15384e-10 5e-05 1.46608e-10 
61 1 0.233458 0.0172388 0.00739305 0.00576899 0.000224587 -0.000507057 -5.92961e-11 3.15843e-11 1.48802e-11 5e-05 1.46608e-10 
62 1 0.233943 0.0186715 0.00685376 0.00579482 0.000438501 -7.56847e-05 -2.3671e-11 -1.25075e-11 1.73586e-12 5e-05 1.46608e-10 
63 1 0.233941 0.0182826 0.0069857 0.00568219 0.000366926 -0.000552483 9.74632e-11 -1.56021e-11 9.17465e-13 5e-05 1.46608e-10 
64 1 0.239541 0.018033 0.0069654 0.00564544 0.000142497 -6.33384e-05 1.07466e-10 1.57515e-11 -3.40651e-12 5e-05 1.46608e-10 
65 1 0.227177 0.0165032 0.00784205 0.00607433 0.000313412 0.000263513 -1.90486e-10 -1.0694e-10 -1.50554e-11 5e-05 1.46608e-10 
66 1 0.226822 0.0152634 0.0089117 0.00568862 0.000530471 -0.000261578 -6.57153e-11 1.9827e-10 -5.22563e-10 5e-05 1.46608e-10 
67 1 0.233728 0.0184765 0.00693255 0.00572206 0.000410894 -0.000585897 -9.67745e-11 -4.59652e-11 -8.12618e-11 5e-05 1.46608e-10 
68 1 0.233665 0.0176689 0.00722462 0.00555902 0.000400098 -0.000556793 -3.39061e-10 4.99148e-11 -1.28594e-11 5e-05 1.46608e-10 
69 1 0.233728 0.0186926 0.00694389 0.00570018 0.000111751 -0.00039628 1.19544e-10 8.54793e-11 -1.51475e-10 5e-05 1.46608e-10 
70 1 0.239405 0.0173831 0.00716326 0.0056833 0.000163854 -3.03081e-05 -6.64999e-11 -1.2334e-10 4.54545e-11 5e-05 1.46608e-10 
71 1 0.226879 0.0154232 0.00867181 0.00570918 -8.38427e-05 -0.000588417 -3.69479e-11 -2.90815e-10 -2.04439e-10 5e-05 1.46608e-10 
72 1 0.233606 0.0183671 0.00702707 0.00569606 0.000465464 -0.000575462 3.22045e-11 -1.24899e-10 -8.95873e-11 5e-05 1.46608e-10 
73 1 0.233706 0.0188495 0.00681891 0.00579734 0.000453743 -8.64996e-05 3.39213e-11 -1.65472e-11 4.53602e-13 5e-05 1.46608e-10 
74 1 0.233773 0.0187055 0.00685522 0.00576992 0.000445355 -0.000303256 9.19643e-11 -5.08813e-13 -3.27215e-11 5e-05 1.46608e-10 
76 1 0.227891 0.0184365 0.00689262 0.00571143 0.000337963 0.000100839 3.65271e-10 -2.29522e-10 -2.23081e-10 5e-05 1.46608e-10 
77 1 0.233698 0.0179588 0.00711896 0.0055983 0.000446283 -0.000574394 -2.75698e-11 -8.61347e-12 -1.89544e-12 5e-05 1.46608e-10 
78 1 0.22764 0.0185275 0.00688342 0.00572907 0.00023374 -0.000208671 1.39407e-10 2.84131e-10 2.19449e-10 5e-05 1.46608e-10 
79 1 0.226939 0.0156467 0.00848095 0.00599605 -0.000146247 -0.000537087 -1.78553e-10 -1.28495e-10 1.25373e-10 5e-05 1.46608e-10 
80 1 0.233917 0.018571 0.00688484 0.0057335 0.000381746 -0.000560969 1.36216e-10 -1.76623e-10 7.90422e-11 5e-05 1.46608e-10 
81 1 0.227775 0.0187579 0.00687683 0.0057554 0.000115327 -0.000217533 3.42021e-11 8.65284e-10 -4.45649e-11 5e-05 1.46608e-10 
82 1 0.227004 0.0158692 0.00829044 0.00609825 -0.000198415 -0.000503772 7.5414e-11 -2.34215e-10 2.30181e-10 5e-05 1.46608e-10 
83 1 0.227698 0.0183677 0.00690291 0.00578721 0.00039083 9.18815e-05 -1.60211e-10 2.31308e-10 -1.30073e-10 5e-05 1.46608e-10 
84 1 0.239442 0.0175534 0.00706525 0.00577314 0.000151607 -1.58629e-05 -4.83588e-11 8.60464e-11 5.51782e-11 5e-05 1.46608e-10 
85 1 0.227905 0.0181072 0.00703755 0.00564814 0.000300142 0.000245917 3.16303e-10 2.24789e-10 -9.47434e-11 5e-05 1.46608e-10 
86 1 0.234012 0.0185999 0.00686775 0.0057885 0.000417522 -7.05824e-05 -5.33748e-11 1.06123e-10 -6.55345e-11 5e-05 1.46608e-10 
87 1 0.233887 0.0188321 0.00682258 0.00579669 0.000465923 -7.46315e-05 9.90007e-11 7.20338e-11 -1.14249e-10 5e-05 1.46608e-10 
88 1 0.233346 0.0171145 0.00744568 0.00591001 0.00042586 -0.000598779 -5.70237e-10 2.24052e-10 -1.44931e-10 5e-05 1.46608e-10 
89 1 0.233868 0.0187356 0.00684122 0.00579815 0.000457716 -8.12991e-05 6.79573e-11 4.42886e-11 -2.41418e-11 5e-05 1.46608e-10 
90 1 0.233661 0.0182068 0.0070335 0.00566101 0.000458168 -0.000585432 -5.25886e-11 -3.73133e-11 2.93598e-11 5e-05 1.46608e-10 
91 1 0.227944 0.0182815 0.00694794 0.00573549 0.000328644 0.000235785 1.79235e-11 1.48809e-10 -9.35939e-11 5e-05 1.46608e-10 
92 1 0.233753 0.0186114 0.00688275 0.00573719 0.0003625 -0.000650359 -2.49061e-10 6.64388e-11 -2.50393e-11 5e-05 1.46608e-10 
93 1 0.233215 0.016563 0.0076396 0.00634039 0.000515574 -4.92192e-05 1.1525e-10 -1.78443e-11 -3.36945e-11 5e-05 1.46608e-10 
94 1 0.23372 0.0182363 0.0071092 0.00565143 0.000422396 -0.000586747 -9.94982e-11 -3.01714e-11 -1.4125e-10 5e-05 1.46608e-10 
95 1 0.233581 0.0178834 0.00722122 0.005492 0.000548025 -0.000580613 1.75936e-10 -6.83602e-11 -2.29703e-10 5e-05 1.46608e-10 
96 1 0.233234 0.0166556 0.00760724 0.00630242 0.000519683 -6.84804e-05 8.94971e-11 8.10553e-12 -6.08318e-11 5e-05 1.46608e-10 
97 1 0.227295 0.0166175 0.00778346 0.00607292 0.000352142 0.000249209 1.92334e-10 -1.20366e-10 7.77744e-11 5e-05 1.46608e-10 
98 1 0.233737 0.0181434 0.00705042 0.00563944 0.000438514 -0.000576159 9.16588e-11 1.62271e-11 2.8886e-12 5e-05 1.46608e-10 
99 1 0.227402 0.0170521 0.00756076 0.00598069 0.000406141 0.00021394 -7.11281e-11 1.49519e-11 -1.19104e-11 5e-05 1.46608e-10 
100 1 0.233848 0.0186404 0.00686531 0.00569234 0.000341099 -0.000520612 1.3104e-10 -9.19596e-11 1.29444e-10 5e-05 1.46608e-10 
101 1 0.226961 0.0157209 0.00841744 0.006104 -0.000171494 -0.000524663 -2.52298e-10 -2.16135e-10 5.00277e-11 5e-05 1.46608e-10 
102 1 0.0643568 0.0187248 0.00531097 4.3663e-15 1.0484e-14 8.29568e-14 -9.80002e-22 -3.04092e-22 8.64404e-23 5e-05 1.46608e-10 
103 1 0.24257 0.0191927 0.00520306 3.61636e-22 4.86658e-23 1.23839e-22 0 0 0 5e-05 1.46608e-10 
104 1 0.227601 0.0179253 0.00711217 0.00559017 0.000405223 0.000188023 1.89137e-10 3.27911e-10 -1.89343e-10 5e-05 1.46608e-10 
105 1 0.228019 0.0182255 0.00698301 0.00580606 0.000389288 0.000209767 -1.43876e-10 7.88343e-11 -1.58599e-11 5e-05 1.46608e-10 
106 1 0.227847 0.0178453 0.00717221 0.00545593 0.000291813 0.000236984 2.29603e-10 -8.86792e-11 6.78473e-11 5e-05 1.46608e-10 
107 1 0.227828 0.017758 0.00721712 0.00548829 0.000291305 0.000238937 5.09299e-11 -9.53619e-11 4.78693e-11 5e-05 1.46608e-10 
108 1 0.233737 0.0188214 0.00690955 0.00579278 0.000465064 -8.63602e-05 2.97289e-10 1.26562e-10 -2.18089e-11 5e-05 1.46608e-10 
109 1 0.233929 0.0181893 0.00701976 0.00564659 0.000368127 -0.000551323 -2.09932e-10 9.58717e-12 1.23441e-11 5e-05 1.46608e-10 
110 1 0.233258 0.0167475 0.00757559 0.00624427 0.000527324 -0.000102087 1.5885e-10 2.50233e-11 -4.10728e-11 5e-05 1.46608e-10 
111 1 0.233588 0.0177895 0.00718749 0.00548609 0.000550784 -0.000618528 4.75803e-10 -1.35855e-10 4.7735e-10 5e-05 1.46608e-10 
112 1 0.227658 0.0181872 0.00697738 0.00570741 0.000394893 0.00019887 -6.79798e-12 1.80034e-10 -1.35277e-10 5e-05 1.46608e-10 
113 1 0.227263 0.0168482 0.00765892 0.00601381 0.000348009 0.000247356 9.27081e-12 -5.60682e-11 3.03762e-11 5e-05 1.46608e-10 
114 1 0.22762 0.0184278 0.00688486 0.00579596 0.00038581 -0.000210857 -8.40577e-11 1.25053e-10 -4.7982e-11 5e-05 1.46608e-10 
115 1 0.233831 0.0181754 0.00703203 0.00564544 0.000400131 -0.000562723 -9.39971e-11 4.09325e-11 -1.94911e-11 5e-05 1.46608e-10 
116 1 0.233647 0.018555 0.00700459 0.00574506 0.000433274 -0.00057921 9.69747e-11 5.315e-11 2.26926e-10 5e-05 1.46608e-10 
117 1 0.233745 0.0190455 0.00681676 0.00576818 0.000472714 6.82294e-05 -5.5915e-11 -8.4241e-12 1.76565e-11 5e-05 1.46608e-10 
118 1 0.22747 0.0177186 0.0072123 0.00548676 0.000449695 0.000153397 2.06941e-10 1.89082e-10 -3.91928e-12 5e-05 1.46608e-10 
119 1 0.233796 0.0179907 0.00710035 0.00559419 0.0004158 -0.000563464 1.17488e-10 -2.11992e-12 -8.70205e-12 5e-05 1.46608e-10 
120 1 0.233093 0.0161324 0.0079989 0.00629244 9.28043e-05 -0.000261459 1.6363e-10 -2.096e-10 -3.5192e-10 5e-05 1.46608e-10 
121 1 0.233012 0.0159355 0.00833674 0.00585493 -0.000592038 -0.000705478 -1.8771e-10 1.01124e-11 -1.92092e-10 5e-05 1.46608e-10 
122 1 0.233549 0.0176056 0.00725598 0.0056047 0.000544229 -0.000622398 -2.58967e-10 -8.93492e-11 9.64859e-11 5e-05 1.46608e-10 
123 1 0.227432 0.017544 0.00730218 0.0055667 0.000452875 0.000157411 2.79937e-11 -2.1598e-10 1.45758e-10 5e-05 1.46608e-10 
124 1 0.233569 0.0176974 0.00722165 0.00547711 0.000567009 -0.000615104 1.74417e-11 -2.13122e-10 1.43167e-10 5e-05 1.46608e-10 
125 1 0.23383 0.0189947 0.00680537 0.00578103 0.000499589 7.25137e-05 -1.84859e-10 -8.79243e-11 2.85448e-11 5e-05 1.46608e-10 
126 1 0.233476 0.0173378 0.0073565 0.00592785 0.000353408 -0.000561462 6.59982e-12 5.1912e-11 7.5764e-11 5e-05 1.46608e-10 
127 1 0.228039 0.0183129 0.00693811 0.00568992 0.00034787 0.000224106 3.39041e-10 -1.73486e-10 1.30656e-10 5e-05 1.46608e-10 
128 1 0.233502 0.0175236 0.00728846 0.00576816 0.000462766 -0.000591852 -1.24648e-10 -6.54113e-11 8.38403e-11 5e-05 1.46608e-10 
129 1 0.233566 0.0181775 0.00705097 0.00564933 0.000478817 -0.000592181 -2.87216e-11 -3.51033e-11 2.83912e-11 5e-05 1.46608e-10 
131 1 0.227866 0.0179327 0.00712728 0.00535138 0.000311291 0.000219179 1.36444e-11 4.36775e-11 -1.66643e-11 5e-05 1.46608e-10 
132 1 0.233679 0.0183008 0.0069987 0.00567967 0.000425944 -0.000576941 -4.11756e-11 4.57846e-11 -3.39029e-11 5e-05 1.46608e-10 
133 1 0.233528 0.0179935 0.0071193 0.00561082 0.00049566 -0.000593759 3.16632e-11 1.71718e-10 -7.53303e-11 5e-05 1.46608e-10 
134 1 0.233473 0.0174339 0.00732248 0.00589028 0.000421999 -0.000588835 -8.49053e-11 1.3072e-10 3.51292e-10 5e-05 1.46608e-10 
135 1 0.23289 0.0156239 0.00883405 0.0056234 -0.000321359 -0.000549363 7.04225e-10 -3.45079e-10 2.83373e-10 5e-05 1.46608e-10 
136 1 0.227679 0.018724 0.00688059 0.00572652 0.000243918 -0.00020971 4.58585e-10 1.11053e-10 -4.13571e-11 5e-05 1.46608e-10 
137 1 0.233193 0.0164709 0.00767144 0.00636857 0.000506174 -6.18487e-05 1.57474e-10 3.92598e-11 5.82814e-11 5e-05 1.46608e-10 
138 1 0.233717 0.0183758 0.00705715 0.00567518 0.000403811 -0.000574053 -1.20836e-10 -6.58118e-12 -4.94615e-11 5e-05 1.46608e-10 
140 1 0.233718 0.0180508 0.0070848 0.00561927 0.000444399 -0.00057636 1.71904e-11 8.55427e-12 -3.69486e-11 5e-05 1.46608e-10 
141 1 0.227676 0.0182746 0.00693232 0.00574399 0.000417073 0.000193703 -1.7995e-10 3.22825e-10 -1.56891e-10 5e-05 1.46608e-10 
142 1 0.227413 0.0174567 0.00734702 0.00571693 0.000435046 0.000179112 -1.92034e-10 -3.38793e-10 1.78412e-10 5e-05 1.46608e-10 
143 1 0.22686 0.0153489 0.00873601 0.00573633 -0.000124968 -0.00063418 2.71631e-11 -5.2047e-10 -6.08933e-10 5e-05 1.46608e-10 
144 1 0.227526 0.0179811 0.00707715 0.00562621 0.000438929 0.000171041 6.4991e-13 2.51574e-13 -2.76649e-13 5e-05 1.46608e-10 
147 1 0.227736 0.0185617 0.00687964 0.0057213 0.000288371 -0.000209663 6.05892e-10 -1.09253e-10 1.92596e-11 5e-05 1.46608e-10 
148 1 0.227497 0.0170816 0.00755195 0.00598492 0.000421036 0.000206282 -2.60211e-11 -4.29761e-11 1.99276e-11 5e-05 1.46608e-10 
149 1 0.233358 0.0172087 0.00741475 0.0057994 0.000350341 -0.000847105 -1.14685e-10 1.41203e-10 -1.81346e-10 5e-05 1.46608e-10 
150 1 0.0100679 0.0201683 0.00551526 8.38277e-15 1.2506e-15 -8.48745e-14 3.64476e-24 3.06832e-23 1.03398e-24 5e-05 1.46608e-10 
151 1 0.227371 0.0172827 0.00743624 0.00591702 0.000397031 0.000213953 -3.06398e-11 -3.2672e-10 1.79559e-10 5e-05 1.46608e-10 
153 1 0.227718 0.0189203 0.00687776 0.00621475 0.000279995 -0.000229987 -1.04557e-10 -4.19784e-10 6.58927e-12 5e-05 1.46608e-10 
154 1 0.227488 0.017806 0.00716733 0.00551665 0.000440353 0.000160225 1.84862e-10 2.68994e-10 -1.33511e-10 5e-05 1.46608e-10 
155 1 0.227696 0.0175519 0.00731695 0.00529174 0.00038421 0.000175994 -3.51766e-11 -1.4633e-10 7.74746e-11 5e-05 1.46608e-10 
156 1 0.227639 0.0180998 0.00702236 0.00566414 0.000398007 0.000195784 -4.12592e-12 2.12519e-10 -8.46607e-11 5e-05 1.46608e-10 
157 1 0.0219312 0.0187687 0.00551176 -3.82455e-14 8.17047e-14 2.95888e-13 -5.66748e-22 -1.18907e-23 -7.98229e-23 5e-05 1.46608e-10 
158 1 0.227867 0.0183407 0.00691103 0.00574546 0.000461259 0.000178418 -4.27795e-10 5.19145e-11 -2.98372e-11 5e-05 1.46608e-10 
159 1 0.233962 0.0187679 0.00683513 0.00578467 0.000447043 -7.48841e-05 7.65582e-11 -5.88945e-12 1.6203e-11 5e-05 1.46608e-10 
160 1 0.227507 0.0178933 0.00712236 0.00556304 0.000453394 0.000161335 -5.35723e-11 3.2978e-10 -2.0527e-10 5e-05 1.46608e-10 
162 1 0.227795 0.0188559 0.00687541 0.00625737 0.000385921 -0.000232822 -5.88463e-10 -1.48806e-10 2.45734e-11 5e-05 1.46608e-10 
164 1 0.227359 0.0168782 0.00764984 0.00602184 0.0003693 0.000236432 -1.59351e-10 7.35349e-11 -5.12321e-11 5e-05 1.46608e-10 
165 1 0.227696 0.0179569 0.00710223 0.00563214 0.000423233 0.000179483 -8.15017e-11 1.18613e-10 -9.64585e-11 5e-05 1.46608e-10 
166 1 0.233686 0.0187531 0.00683752 0.00582736 0.000595295 -0.0001002 -1.13329e-11 7.58241e-11 -2.00065e-11 5e-05 1.46608e-10 
168 1 0.227423 0.017139 0.00751623 0.0059602 0.00040014 0.000215478 1.36501e-10 3.22453e-11 -5.05626e-12 5e-05 1.46608e-10 
169 1 0.227852 0.0186941 0.00687445 0.00594197 0.000213694 -0.000220316 -1.35305e-10 -6.13488e-10 -2.33235e-12 5e-05 1.46608e-10 
170 1 0.227772 0.0179014 0.00713707 0.00560101 0.000394114 0.000193641 8.5971e-11 2.76246e-10 -1.2387e-10 5e-05 1.46608e-10 
171 1 0.233644 0.0182999 0.00709246 0.00566916 0.000442082 -0.000583583 1.92838e-11 1.46807e-10 -3.34519e-11 5e-05 1.46608e-10 
172 1 0.227677 0.0178695 0.00714718 0.0055754 0.000437887 0.000167758 1.29341e-11 1.2034e-10 -4.64325e-11 5e-05 1.46608e-10 
173 1 0.233899 0.0184787 0.00691901 0.00573493 0.000376922 -0.000557538 -7.37793e-11 -1.20769e-11 -1.46635e-11 5e-05 1.46608e-10 
174 1 0.227715 0.0176392 0.00727198 0.00538504 0.000389162 0.000179994 1.6917e-10 -1.67683e-11 2.53158e-11 5e-05 1.46608e-10 
175 1 0.221334 0.0170604 0.00732889 0.00598117 0.000959484 -0.0003564 1.45212e-11 -2.57943e-12 3.04049e-12 5e-05 1.46608e-10 
177 1 0.22754 0.0172557 0.00746276 0.00601014 0.000563711 0.000132522 4.07222e-10 -4.82839e-10 2.85135e-10 5e-05 1.46608e-10 
178 1 0.227466 0.017313 0.00742708 0.00593288 0.000492528 0.000164561 5.73012e-10 -1.6685e-10 1.28077e-10 5e-05 1.46608e-10 
179 1 0.227545 0.0176631 0.00724716 0.0054181 0.000508234 0.00011878 -6.54868e-11 -1.54393e-11 -7.32326e-12 5e-05 1.46608e-10 
181 1 0.227813 0.018498 0.00688005 0.00573966 0.000331682 -0.000102538 9.61323e-10 1.13929e-10 -3.95263e-10 5e-05 1.46608e-10 
182 1 0.233547 0.0180855 0.00708513 0.0056164 0.000480392 -0.000591704 8.11361e-11 3.37601e-11 7.8672e-12 5e-05 1.46608e-10 
183 1 0.227753 0.017814 0.00718204 0.00552559 0.000401099 0.000183791 -2.1209e-10 -5.48128e-12 -1.77231e-11 5e-05 1.46608e-10 
184 1 0.233573 0.0180621 0.00717885 0.00560518 0.000495142 -0.000592874 2.90553e-11 -8.47743e-12 -2.34303e-12 5e-05 1.46608e-10 
186 1 0.227349 0.0171958 0.00748078 0.00594267 0.000389195 0.000220038 -5.87074e-11 -1.98251e-10 9.70664e-11 5e-05 1.46608e-10 
187 1 0.233451 0.0176256 0.00725597 0.00563267 0.00047908 -0.000568522 5.67411e-11 1.58885e-10 2.56135e-11 5e-05 1.46608e-10 
188 1 0.233645 0.0175771 0.00725878 0.00560839 0.000375421 -0.0005503 -4.39489e-10 -4.19404e-11 3.61238e-11 5e-05 1.46608e-10 
189 1 0.23368 0.0183955 0.0069664 0.00570682 0.00041652 -0.000579774 -4.56677e-11 -1.04744e-11 -4.57855e-11 5e-05 1.46608e-10 
190 1 0.221604 0.0183729 0.00702406 0.00574755 0.00100559 -0.000366743 -1.43435e-12 -4.1667e-12 -2.00501e-12 5e-05 1.46608e-10 
191 1 0.233687 0.0177603 0.00719046 0.00554188 0.000421029 -0.000565639 1.42679e-10 2.3517e-11 -3.45897e-11 5e-05 1.46608e-10 
192 1 0.227659 0.0177822 0.00719212 0.00550889 0.000449012 0.000157311 -4.55821e-11 7.7097e-11 -4.89733e-11 5e-05 1.46608e-10 
193 1 0.233815 0.0180828 0.00706618 0.00560761 0.000407488 -0.000562628 1.43904e-11 -2.83911e-12 -5.63183e-12 5e-05 1.46608e-10 
194 1 0.161461 0.0182058 0.00533758 1.57384e-15 -1.10111e-14 8.66678e-14 -8.41734e-22 -1.63756e-22 -4.54949e-24 5e-05 1.46608e-10 
195 1 0.22785 0.0182505 0.00695759 0.00575337 0.000325672 0.000239875 -2.2554e-10 1.12584e-10 -5.0682e-11 5e-05 1.46608e-10 
196 1 0.227251 0.0164435 0.00787258 0.00608559 0.000330882 0.000261289 -1.01501e-10 2.43242e-10 -1.09836e-10 5e-05 1.46608e-10 
197 1 0.221388 0.0173077 0.00718604 0.00586323 0.000975925 -0.000370223 -1.60988e-11 2.50935e-12 -1.27763e-12 5e-05 1.46608e-10 
198 1 0.227698 0.0188221 0.00687918 0.00570327 0.000146942 -0.000219262 -2.70503e-11 3.90598e-10 1.60849e-11 5e-05 1.46608e-10 
199 1 0.2276 0.01833 0.00689755 0.00577901 0.000457234 0.000170782 -9.80288e-11 3.88994e-10 -2.40132e-10 5e-05 1.46608e-10 
201 1 0.227242 0.0167612 0.00770346 0.0060271 0.000336093 0.000254569 9.50517e-11 -1.16858e-10 6.64465e-11 5e-05 1.46608e-10 
202 1 0.227734 0.0181319 0.00701215 0.00565666 0.000340518 0.000225844 1.84199e-10 9.74485e-11 -4.50654e-11 5e-05 1.46608e-10 
203 1 0.233276 0.0168402 0.00754306 0.00616883 0.000553154 -8.68133e-05 4.41266e-11 8.2392e-11 -3.09827e-11 5e-05 1.46608e-10 
204 1 0.226919 0.0155724 0.00854451 0.005772 -8.76697e-05 -0.000552143 8.03004e-11 -1.30348e-10 1.93558e-10 5e-05 1.46608e-10 
205 1 0.227809 0.0180762 0.00704709 0.00565603 0.000323628 0.000234655 -1.20709e-10 5.65481e-11 -5.37527e-11 5e-05 1.46608e-10 
206 1 0.227316 0.0167044 0.00773892 0.00603543 0.000353873 0.000245597 1.41013e-10 -1.84523e-10 1.12797e-10 5e-05 1.46608e-10 
207 1 0.227445 0.0172259 0.00747169 0.0059266 0.000413466 0.000206058 7.92317e-11 -1.28968e-10 7.76124e-11 5e-05 1.46608e-10 
208 1 0.227621 0.0180125 0.00706733 0.00562908 0.000405348 0.000190256 4.12733e-11 2.87221e-10 -1.53975e-10 5e-05 1.46608e-10 
209 1 0.224417 0.0177107 0.00701088 0.00592958 0.00096871 -0.000368424 7.51024e-13 1.19488e-13 -2.92141e-14 5e-05 1.46608e-10 
210 1 0.23349 0.0178095 0.00718763 0.0055102 0.000517853 -0.000597626 -2.89108e-10 -1.55379e-10 1.00723e-10 5e-05 1.46608e-10 
211 1 0.233442 0.017583 0.00734598 0.00563925 0.000452928 -0.000555207 1.06935e-10 -1.71558e-10 8.67183e-11 5e-05 1.46608e-10 
212 1 0.227752 0.0182194 0.00696706 0.00571762 0.000369655 0.000216178 1.89411e-10 2.70773e-10 -1.2421e-10 5e-05 1.46608e-10 
213 1 0.233629 0.018477 0.00693975 0.00571742 0.000413644 -0.000576444 -1.8879e-11 -1.20788e-11 1.53505e-11 5e-05 1.46608e-10 
214 1 0.23338 0.0172993 0.00737824 0.00590159 0.000336516 -0.000789268 1.47137e-11 1.52424e-10 -3.29435e-11 5e-05 1.46608e-10 
215 1 0.221585 0.018276 0.00703878 0.00574919 0.00100541 -0.000366766 -5.20321e-13 -2.80918e-12 4.90642e-12 5e-05 1.46608e-10 
216 1 0.227715 0.0180444 0.00705716 0.00563171 0.000361799 0.000212157 -3.43581e-10 3.09859e-10 -1.81621e-10 5e-05 1.46608e-10 
217 1 0.233725 0.0189457 0.0068003 0.00580891 0.000450838 -7.63878e-05 -1.00422e-10 -2.09513e-10 2.52994e-11 5e-05 1.46608e-10 
218 1 0.227027 0.0159431 0.00822703 0.00612729 -0.000215745 -0.000500534 -2.0829e-10 -2.02756e-10 6.57196e-11 5e-05 1.46608e-10 
219 1 0.233318 0.0170271 0.00748545 0.00603111 0.000533466 -0.00029249 -2.20333e-10 8.19949e-11 -1.37624e-10 5e-05 1.46608e-10 
220 1 0.227829 0.0181633 0.00700233 0.00569453 0.000329324 0.000236001 -1.12877e-10 1.67996e-10 -8.60156e-11 5e-05 1.46608e-10 
221 1 0.287494 0.0177876 0.00698768 0.00570103 0.000290998 -9.09764e-05 1.38816e-12 -1.32767e-13 6.04671e-14 5e-05 1.46608e-10 
222 1 0.233808 0.0185314 0.00690706 0.00576877 0.000390251 -0.000573247 -2.22107e-10 9.17572e-11 4.91844e-11 5e-05 1.46608e-10 
223 1 0.227583 0.0178379 0.00715716 0.00558671 0.000449419 0.00016385 -3.26413e-10 2.87689e-10 -1.94591e-10 5e-05 1.46608e-10 
224 1 0.027327 0.0174839 0.00793185 -0.0186499 0.0272672 -0.0117004 3.02075e-10 -4.18346e-12 -7.96252e-11 5e-05 1.46608e-10 
225 1 0.233661 0.0178519 0.00715983 0.00556368 0.000444947 -0.00058487 5.63918e-11 1.11586e-10 2.33934e-11 5e-05 1.46608e-10 
226 1 0.227392 0.0173697 0.00739168 0.00584565 0.000410853 0.000201744 -5.71166e-11 -4.34767e-10 2.24176e-10 5e-05 1.46608e-10 
227 1 0.221526 0.0179852 0.00708295 0.00575432 0.00100502 -0.000366822 1.79892e-12 1.07259e-12 9.40631e-12 5e-05 1.46608e-10 
228 1 0.221352 0.0171357 0.00726539 0.00594326 0.000963335 -0.000362748 1.67253e-11 -3.20861e-12 3.8572e-12 5e-05 1.46608e-10 
229 1 0.227791 0.0183968 0.0068788 0.00575288 0.000271223 -0.000231852 -5.29815e-10 -8.20966e-11 2.72231e-10 5e-05 1.46608e-10 
230 1 0.227199 0.0165874 0.00779253 0.00605743 0.000317924 0.000265473 -1.14529e-10 -1.88091e-10 7.98351e-11 5e-05 1.46608e-10 
231 1 0.221314 0.0169855 0.00739189 0.00602216 0.000954381 -0.000348716 4.07159e-12 -1.19923e-13 1.47967e-12 5e-05 1.46608e-10 
232 1 0.227581 0.0182417 0.00694301 0.00573187 0.00040784 0.000195142 2.20972e-11 2.21802e-10 -1.54787e-10 5e-05 1.46608e-10 
234 1 0.233585 0.0182698 0.00701671 0.00567237 0.000472843 -0.000589402 -2.69231e-11 -6.19355e-11 -2.47975e-11 5e-05 1.46608e-10 
235 1 0.22779 0.0179888 0.00709207 0.00562197 0.000332134 0.000227367 -6.28128e-10 3.71899e-10 -2.42591e-10 5e-05 1.46608e-10 
236 1 0.227156 0.0164142 0.00788217 0.00610048 0.00030927 0.000268816 -3.5898e-11 -7.32021e-11 -1.09958e-11 5e-05 1.46608e-10 
237 1 0.227113 0.0162457 0.00798014 0.00612731 0.000198592 0.00010986 1.15344e-10 1.46715e-10 4.11815e-11 5e-05 1.46608e-10 
239 1 0.221151 0.0164173 0.00792736 0.00621704 0.000134658 -0.00113708 -2.76026e-13 -9.78229e-15 -4.71397e-14 5e-05 1.46608e-10 
240 1 0.221172 0.0164764 0.00784946 0.00624121 0.0001296 -0.00113442 -2.33056e-14 -4.20814e-13 7.6863e-13 5e-05 1.46608e-10 
241 1 0.221237 0.0166853 0.00764461 0.00631912 0.000918916 -0.000294707 -1.55537e-12 -1.72212e-12 1.74155e-12 5e-05 1.46608e-10 
242 1 0.227451 0.0176312 0.00725728 0.00543884 0.000463646 0.000142668 -9.5434e-11 -9.73586e-11 5.32072e-11 5e-05 1.46608e-10 
244 1 0.221193 0.0165412 0.00777631 0.00627814 0.000340275 -0.000937537 -6.7236e-15 -3.1468e-13 1.92612e-12 5e-05 1.46608e-10 
246 1 0.221296 0.0169103 0.00745535 0.00606682 0.00094962 -0.000341138 1.05547e-12 -1.31547e-12 1.88834e-12 5e-05 1.46608e-10 
247 1 0.227984 0.0184658 0.00687122 0.00569116 0.000226807 -0.000218679 5.38361e-10 -1.0433e-10 -1.0929e-10 5e-05 1.46608e-10 
248 1 0.22722 0.0166743 0.007748 0.00604322 0.000324765 0.000261846 1.44018e-11 -1.69337e-10 8.44439e-11 5e-05 1.46608e-10 
249 1 0.221565 0.018179 0.0070535 0.00575111 0.00100539 -0.00036668 1.17554e-12 -2.0667e-12 -2.92288e-12 5e-05 1.46608e-10 
250 1 0.227519 0.0171685 0.00750741 0.00595435 0.000442524 0.000192638 4.13958e-11 -6.07956e-11 3.35071e-11 5e-05 1.46608e-10 
251 1 0.233298 0.0169325 0.00751099 0.00610456 0.000569404 -9.62346e-05 -3.81329e-11 9.73856e-11 -6.60208e-11 5e-05 1.46608e-10 
252 1 0.221428 0.0175014 0.00715639 0.00577348 0.000995766 -0.000366195 -1.81777e-11 2.38825e-12 -2.36785e-12 5e-05 1.46608e-10 
253 1 0.221624 0.0184699 0.00700933 0.00574578 0.00100578 -0.000366655 -6.66597e-13 -4.22888e-12 1.29378e-12 5e-05 1.46608e-10 
254 1 0.221277 0.0168352 0.00751856 0.00611046 0.000944455 -0.000333314 3.18766e-12 -2.35554e-12 2.08481e-12 5e-05 1.46608e-10 
255 1 0.227545 0.0180743 0.00704566 0.00565164 0.000421257 0.000190474 -7.66963e-11 1.95097e-11 -5.2789e-11 5e-05 1.46608e-10 
256 1 0.22764 0.0176949 0.00723706 0.00543524 0.000459338 0.000146058 5.83619e-12 2.17293e-11 -3.59051e-12 5e-05 1.46608e-10 
257 1 0.227602 0.0175196 0.00732724 0.00562606 0.00069215 3.68546e-05 6.44635e-11 -2.83136e-10 1.42105e-10 5e-05 1.46608e-10 
258 1 0.227507 0.0174881 0.00733718 0.00566863 0.000586239 9.4987e-05 3.43801e-11 -2.46569e-10 1.28588e-10 5e-05 1.46608e-10 
259 1 0.221448 0.0175984 0.00714167 0.00573061 0.00100441 -0.000365987 1.12356e-12 -2.60688e-13 1.11985e-12 5e-05 1.46608e-10 
261 1 0.227306 0.017022 0.00756985 0.0059808 0.000370667 0.000232844 5.93955e-11 2.51417e-12 5.42985e-12 5e-05 1.46608e-10 