ITEM: TIMESTEP
35000000
ITEM: NUMBER OF ATOMS
271
ITEM: BOX BOUNDS ff ff ff
-0.02 0.43
-0.02 0.06
-0.02 0.07
ITEM: ATOMS id type x y z vx vy vz fx fy fz radius mass 
1 1 0.21651 0.0153567 0.00890699 0.00600381 -0.000471116 4.48946e-05 -9.5392e-11 -1.00327e-10 1.17548e-10 5e-05 1.46608e-10 
2 1 0.217349 0.0178513 0.00703978 0.00573637 9.86052e-05 0.000211397 -3.01319e-10 3.26991e-10 -2.34256e-11 5e-05 1.46608e-10 
3 1 0.211495 0.0177342 0.0071331 0.0061315 0.000272546 -0.000282943 3.91024e-11 -2.98788e-11 9.25548e-12 5e-05 1.46608e-10 
4 1 0.217438 0.0177358 0.00705945 0.00570257 2.7726e-05 0.000210737 -1.5743e-10 1.87006e-10 3.35147e-11 5e-05 1.46608e-10 
5 1 0.216488 0.0152815 0.00896929 0.00600971 -0.000479179 5.51781e-05 -2.09552e-10 -9.82572e-11 1.36118e-10 5e-05 1.46608e-10 
6 1 0.222975 0.0169966 0.00751306 0.00558539 0.00078459 -0.000240113 2.30451e-10 -7.40922e-11 9.1187e-11 5e-05 1.46608e-10 
7 1 0.216596 0.0156575 0.00865781 0.00595461 -0.000411799 1.05607e-08 -1.79783e-11 2.78014e-11 -2.69392e-11 5e-05 1.46608e-10 
8 1 0.216466 0.0152063 0.00903159 0.00605103 -0.000492708 6.73697e-05 -5.48651e-11 -1.68481e-10 4.49334e-11 5e-05 1.46608e-10 
9 1 0.223086 0.0174475 0.00713304 0.00585028 0.000773892 -0.000197776 2.43507e-10 8.42157e-11 -1.85271e-10 5e-05 1.46608e-10 
10 1 0.217068 0.0173916 0.00722827 0.00469094 -0.000349732 -0.000159547 -2.27968e-10 -1.63747e-10 -4.47786e-10 5e-05 1.46608e-10 
11 1 0.217198 0.0175625 0.00707494 0.00563645 -0.000169007 0.000234563 5.02367e-11 3.02343e-11 5.90654e-11 5e-05 1.46608e-10 
12 1 0.210619 0.0157383 0.00859342 0.00608456 0.000571788 -8.01693e-05 -2.05377e-10 -5.83044e-11 8.79339e-11 5e-05 1.46608e-10 
13 1 0.216407 0.0149846 0.00922438 0.00558481 8.33558e-05 0.000579099 -1.06399e-11 -2.44137e-11 -4.53873e-10 5e-05 1.46608e-10 
14 1 0.21128 0.0183538 0.00695049 0.00630113 0.000247031 -0.000274464 -7.18382e-11 -3.65029e-10 1.45889e-10 5e-05 1.46608e-10 
15 1 0.21746 0.0176394 0.00707393 0.00561702 3.61806e-06 0.00021366 1.83548e-10 -1.1186e-10 -4.13135e-11 5e-05 1.46608e-10 
16 1 0.211382 0.0183959 0.00695077 0.00630198 9.37818e-05 -0.000228451 -6.77067e-10 2.62021e-10 -3.09563e-11 5e-05 1.46608e-10 
17 1 0.217448 0.0178344 0.00704587 0.00575774 2.63107e-05 0.000216425 -3.31579e-10 5.22039e-11 2.22566e-11 5e-05 1.46608e-10 
19 1 0.216445 0.0151311 0.00909389 0.0059894 -0.00050111 5.21475e-05 9.89665e-12 -2.58948e-10 -2.31944e-10 5e-05 1.46608e-10 
21 1 0.21703 0.0172318 0.00734117 0.00549256 -0.000339144 -0.000104313 2.47751e-11 -3.09694e-11 -1.44944e-10 5e-05 1.46608e-10 
22 1 0.217266 0.017405 0.00718124 0.00554454 -0.000128723 -0.000295066 -6.10281e-12 -1.4645e-10 2.86194e-10 5e-05 1.46608e-10 
23 1 0.210867 0.0161869 0.00804374 0.00605843 0.000177206 -0.000380962 8.04588e-11 6.15465e-11 8.98004e-11 5e-05 1.46608e-10 
24 1 0.223163 0.0178251 0.00704278 0.00580046 0.000717099 -0.000326816 9.69494e-11 3.50268e-12 4.03739e-11 5e-05 1.46608e-10 
25 1 0.216661 0.0158829 0.00847104 0.00590755 -0.000386679 -1.7556e-05 -1.29973e-10 -3.36138e-11 3.90945e-11 5e-05 1.46608e-10 
26 1 0.223049 0.0172972 0.00725971 0.00575641 0.000779435 -0.000227674 -2.41474e-10 -3.35764e-10 7.90681e-11 5e-05 1.46608e-10 
27 1 0.211582 0.0181076 0.00701602 0.00626386 0.000226718 -0.000273227 1.26106e-10 5.07422e-11 -3.5128e-12 5e-05 1.46608e-10 
28 1 0.217353 0.0176546 0.00706773 0.00563418 7.30781e-05 0.000218798 1.59096e-10 5.068e-11 -4.37399e-11 5e-05 1.46608e-10 
29 1 0.216617 0.0157328 0.00859549 0.0059338 -0.000399844 -8.26208e-06 2.11814e-12 3.10744e-12 -9.79326e-12 5e-05 1.46608e-10 
30 1 0.217161 0.017596 0.00716156 0.00560936 -0.000183332 0.000227923 -9.71365e-11 -4.80672e-11 1.76718e-10 5e-05 1.46608e-10 
31 1 0.216683 0.0159581 0.00840877 0.00589261 -0.000382694 -2.02471e-05 -1.40746e-10 -5.95401e-11 4.41066e-11 5e-05 1.46608e-10 
32 1 0.217152 0.016955 0.00756116 0.00595872 -0.000215992 -0.000246579 2.96999e-10 3.74266e-10 -3.19945e-10 5e-05 1.46608e-10 
33 1 0.222994 0.0170718 0.00744972 0.00563839 0.000785443 -0.000233371 -5.47747e-11 -6.78698e-11 -9.83575e-12 5e-05 1.46608e-10 
34 1 0.216574 0.0155824 0.00872009 0.00596906 -0.000425334 1.00832e-05 4.32414e-12 2.04973e-11 -1.61592e-11 5e-05 1.46608e-10 
35 1 0.217324 0.0172439 0.00731018 0.00543867 -7.14064e-05 -0.000326058 2.43051e-10 1.5643e-10 -2.02087e-10 5e-05 1.46608e-10 
36 1 0.223144 0.0177281 0.0070575 0.00582285 0.00071618 -0.000322463 1.8318e-10 7.29168e-11 -8.45695e-11 5e-05 1.46608e-10 
37 1 0.217224 0.0181068 0.00701137 0.00608791 -0.000288315 0.000275587 -1.67953e-10 -9.14775e-11 1.34585e-10 5e-05 1.46608e-10 
38 1 0.217385 0.0184313 0.00695907 0.00616107 1.45344e-05 0.00022865 4.7898e-11 -4.57557e-11 1.26506e-10 5e-05 1.46608e-10 
39 1 0.223183 0.0179221 0.00702806 0.00575706 0.000732018 -0.000328014 -7.14663e-11 -1.13882e-10 2.52146e-11 5e-05 1.46608e-10 
41 1 0.217478 0.0179291 0.0070336 0.00579746 2.44047e-05 0.000213897 2.4145e-10 -1.29401e-10 1.91608e-11 5e-05 1.46608e-10 
42 1 0.321436 0.0173475 0.00552525 4.56777e-16 2.25545e-15 8.4636e-14 -1.51704e-23 -7.16674e-24 2.06795e-25 5e-05 1.46608e-10 
44 1 0.21734 0.0177527 0.00705341 0.0056939 8.79246e-05 0.000213023 -4.04563e-10 9.45729e-11 6.19095e-11 5e-05 1.46608e-10 
45 1 0.223012 0.0171469 0.00738639 0.00570351 0.000785606 -0.000225597 1.04936e-10 1.86791e-10 -7.6176e-11 5e-05 1.46608e-10 
47 1 0.216531 0.015432 0.00884469 0.00599541 -0.00045786 3.5417e-05 2.84158e-11 -8.92102e-11 4.14865e-11 5e-05 1.46608e-10 
48 1 0.217352 0.0183256 0.00697276 0.00618903 7.92352e-05 0.0002447 8.16467e-11 -6.49453e-11 -1.85146e-10 5e-05 1.46608e-10 
50 1 0.216729 0.0161078 0.00828456 0.00582583 -0.000364153 -3.13299e-05 1.89699e-10 -6.49804e-11 3.37813e-11 5e-05 1.46608e-10 
51 1 0.216703 0.016034 0.00834676 0.00586008 -0.000375492 -2.40749e-05 1.05754e-11 -7.17497e-11 4.55469e-11 5e-05 1.46608e-10 
52 1 0.210532 0.0154937 0.00889727 0.00605551 0.000551924 -7.00294e-05 -1.99037e-10 2.63357e-11 1.72814e-10 5e-05 1.46608e-10 
53 1 0.223125 0.0176311 0.00707222 0.00584963 0.000714005 -0.000325002 6.89254e-11 -1.46176e-10 -1.78798e-10 5e-05 1.46608e-10 
54 1 0.217269 0.0180294 0.00708291 0.00599095 -5.91098e-05 0.000326481 1.59622e-10 -1.43467e-10 -3.09815e-11 5e-05 1.46608e-10 
55 1 0.210467 0.0153094 0.00912436 0.00594909 8.24384e-05 -0.000427723 6.52573e-10 -1.1336e-09 -1.1245e-09 5e-05 1.46608e-10 
56 1 0.217245 0.0182012 0.00698633 0.00612621 -0.000281168 0.000275721 2.10923e-10 -1.84762e-11 7.26323e-11 5e-05 1.46608e-10 
57 1 0.223031 0.0172221 0.00732305 0.00571873 0.000777684 -0.000226181 1.14804e-10 4.09031e-11 8.69765e-11 5e-05 1.46608e-10 
59 1 0.217244 0.0173307 0.00724424 0.00545174 -0.000109755 -0.000305737 -8.42257e-11 -2.23474e-10 1.21079e-10 5e-05 1.46608e-10 
61 1 0.217014 0.0168022 0.00769726 0.00616933 -0.000459827 -6.0916e-05 -2.87678e-10 -1.69651e-10 1.5816e-10 5e-05 1.46608e-10 
62 1 0.217497 0.0181037 0.00700965 0.00596452 -5.84845e-05 0.000230856 4.09293e-12 -2.66761e-11 1.69544e-11 5e-05 1.46608e-10 
63 1 0.217491 0.0175454 0.00708839 0.00552513 -2.85738e-05 0.000219885 4.07411e-10 -3.02893e-10 2.07271e-11 5e-05 1.46608e-10 
64 1 0.223203 0.0180189 0.00701333 0.00628804 0.000625237 -0.000332651 3.59306e-11 -6.00917e-11 3.7346e-12 5e-05 1.46608e-10 
65 1 0.210809 0.0162895 0.00790785 0.00589121 0.000541373 -6.14954e-05 1.33534e-10 -4.11595e-11 9.44938e-11 5e-05 1.46608e-10 
66 1 0.210445 0.0152477 0.0092 0.00604758 3.56803e-05 -0.000418051 2.13874e-11 -1.46686e-10 -5.44683e-10 5e-05 1.46608e-10 
67 1 0.217275 0.0179423 0.0070241 0.00588541 -0.000519315 0.000301074 3.88442e-10 -2.12722e-10 1.22094e-10 5e-05 1.46608e-10 
68 1 0.217189 0.0171053 0.00743439 0.00551631 -0.000134269 -0.000282848 -9.42301e-11 1.51135e-10 -9.50927e-11 5e-05 1.46608e-10 
69 1 0.217285 0.0181277 0.00709286 0.00603736 -4.05195e-05 0.000215442 -2.50753e-10 4.21731e-12 -7.17138e-11 5e-05 1.46608e-10 
70 1 0.223069 0.0173723 0.00719654 0.00582899 0.000774772 -0.000209057 3.68901e-10 -8.42458e-11 1.18211e-10 5e-05 1.46608e-10 
71 1 0.210513 0.0154362 0.00897696 0.00603252 0.000344278 -0.000199854 1.90382e-10 -3.20538e-11 -1.5134e-10 5e-05 1.46608e-10 
72 1 0.217163 0.0178215 0.00703695 0.00559937 -0.00019638 0.00024281 1.62512e-10 1.36252e-10 4.77698e-11 5e-05 1.46608e-10 
73 1 0.21729 0.0184043 0.00697751 0.00622485 0.000128902 0.000231438 2.82867e-10 2.67638e-10 -8.91576e-10 5e-05 1.46608e-10 
74 1 0.217342 0.0182275 0.00698965 0.00607672 8.5732e-05 0.000226332 -1.22142e-10 -6.33378e-11 5.49222e-11 5e-05 1.46608e-10 
76 1 0.211508 0.0181722 0.00699866 0.00628112 0.000243274 -0.000279008 -3.04515e-11 -3.18206e-10 1.02051e-10 5e-05 1.46608e-10 
77 1 0.217343 0.017319 0.00724684 0.00546709 -8.77396e-05 -0.000319124 -7.38957e-11 4.86186e-11 -2.20349e-11 5e-05 1.46608e-10 
78 1 0.211259 0.0182605 0.00697972 0.00627951 0.000320941 -0.000302406 -1.35313e-10 -2.95179e-10 1.2889e-10 5e-05 1.46608e-10 
79 1 0.210575 0.015616 0.00874532 0.00608472 0.00056911 -7.28414e-05 2.86745e-10 4.74309e-11 5.65656e-12 5e-05 1.46608e-10 
80 1 0.21744 0.018022 0.00701905 0.00589366 -9.08734e-06 0.000225485 1.02438e-10 4.99667e-11 2.61122e-11 5e-05 1.46608e-10 
81 1 0.211396 0.0184845 0.00690673 0.00633249 4.64916e-05 -0.000218594 -2.30446e-10 1.74117e-09 5.64371e-10 5e-05 1.46608e-10 
82 1 0.21064 0.0158002 0.00851768 0.00609319 0.000577252 -8.37362e-05 -1.09587e-10 -6.93106e-11 1.06608e-10 5e-05 1.46608e-10 
83 1 0.211318 0.0181175 0.00704215 0.00623886 0.000298614 -0.000295007 -1.1244e-10 -3.36315e-10 7.44294e-11 5e-05 1.46608e-10 
84 1 0.223105 0.0175341 0.00708694 0.00586945 0.000701736 -0.000340774 -7.3173e-11 -1.45993e-10 -2.6645e-10 5e-05 1.46608e-10 
85 1 0.211518 0.0178271 0.00710393 0.00614848 0.000259665 -0.000279792 -1.49742e-10 4.97547e-11 -1.57414e-11 5e-05 1.46608e-10 
86 1 0.217539 0.0180087 0.00702467 0.00589745 -7.45681e-05 0.000232378 2.74868e-11 3.92564e-11 -4.89024e-13 5e-05 1.46608e-10 
87 1 0.217459 0.0183649 0.00697125 0.00612616 -2.14865e-05 0.000234977 2.29103e-10 -8.49092e-11 2.91835e-11 5e-05 1.46608e-10 
88 1 0.216897 0.0167079 0.00778377 0.00645293 -0.000477505 -8.22202e-05 -8.20159e-11 -2.39511e-10 1.73939e-10 5e-05 1.46608e-10 
89 1 0.217433 0.0182691 0.00698383 0.00612231 -1.1386e-05 0.000238107 3.2938e-10 -1.84795e-10 1.95468e-11 5e-05 1.46608e-10 
90 1 0.217219 0.0176604 0.00706187 0.00569306 -0.000277276 0.000257552 1.01043e-10 -1.23224e-10 -5.89577e-11 5e-05 1.46608e-10 
91 1 0.211561 0.0180143 0.00704526 0.00620902 0.000239503 -0.000275029 8.83817e-13 -9.84934e-11 3.07983e-11 5e-05 1.46608e-10 
92 1 0.21732 0.0181304 0.00699917 0.00598454 0.000104024 0.00020852 -1.07374e-10 -4.59687e-11 2.92139e-11 5e-05 1.46608e-10 
93 1 0.216767 0.0162599 0.00816063 0.00580822 -0.000339765 -4.60417e-05 1.81928e-10 9.41999e-11 -1.23036e-10 5e-05 1.46608e-10 
94 1 0.217182 0.0174849 0.00713599 0.00566343 -0.000201702 0.000182899 -1.16724e-10 2.69218e-10 3.43501e-10 5e-05 1.46608e-10 
95 1 0.217144 0.017329 0.00725518 0.0055662 -0.000315795 -1.53724e-05 3.38623e-10 -2.25684e-10 -8.40689e-11 5e-05 1.46608e-10 
96 1 0.216791 0.0163338 0.00809751 0.00584728 -0.000334903 -5.73209e-05 4.9438e-10 3.34116e-11 -8.20896e-11 5e-05 1.46608e-10 
97 1 0.210924 0.0163719 0.00781465 0.00584968 0.000561363 -8.99596e-05 -4.50053e-12 -7.89551e-11 1.25476e-10 5e-05 1.46608e-10 
98 1 0.21729 0.0175879 0.00710677 0.00561457 2.72246e-05 0.000145511 2.07889e-10 -1.07448e-10 4.79199e-11 5e-05 1.46608e-10 
99 1 0.211012 0.0167092 0.00746007 0.00571152 0.000618446 -9.9881e-06 2.09936e-13 2.14256e-10 5.89516e-12 5e-05 1.46608e-10 
100 1 0.217416 0.01816 0.0069986 0.00600958 1.59182e-05 0.00022347 -8.54525e-11 -5.27972e-11 6.93387e-11 5e-05 1.46608e-10 
101 1 0.210597 0.0156772 0.00866928 0.00607652 0.000566323 -7.54009e-05 1.65252e-10 -7.28739e-13 8.55368e-11 5e-05 1.46608e-10 
102 1 0.0643568 0.0187248 0.00531097 4.22676e-15 1.0526e-14 8.29585e-14 1.88387e-21 -1.03938e-21 3.59824e-23 5e-05 1.46608e-10 
103 1 0.24257 0.0191927 0.00520306 -1.01195e-22 2.24983e-22 -5.81428e-22 0 0 0 5e-05 1.46608e-10 
104 1 0.211209 0.0176458 0.00716946 0.00611047 0.00037485 -0.000315887 -2.89954e-10 -3.58121e-11 4.66644e-11 5e-05 1.46608e-10 
105 1 0.211635 0.0179493 0.00706272 0.00621031 0.000242341 -0.000276131 -1.01442e-10 -1.46751e-10 4.82468e-11 5e-05 1.46608e-10 
106 1 0.211454 0.0175472 0.00719164 0.00603985 0.000308229 -0.000291196 1.54955e-11 6.58296e-11 -2.31696e-11 5e-05 1.46608e-10 
107 1 0.211434 0.0174535 0.00722098 0.0059482 0.000237334 -0.000266078 -1.07502e-10 -5.96124e-11 2.42462e-11 5e-05 1.46608e-10 
108 1 0.217248 0.0182201 0.00708449 0.00604927 -2.71925e-05 0.000233534 -7.98687e-11 8.02915e-11 1.43697e-10 5e-05 1.46608e-10 
109 1 0.217478 0.0174537 0.0071259 0.00555849 -0.000209286 -0.000216483 2.49482e-11 -4.72288e-10 2.79426e-10 5e-05 1.46608e-10 
110 1 0.216813 0.0164089 0.00803527 0.00590721 -0.000347081 -8.45771e-05 1.4616e-10 6.8105e-11 -1.01316e-10 5e-05 1.46608e-10 
111 1 0.217125 0.0172529 0.00731719 0.0055018 -0.000346908 -8.22597e-05 2.13027e-10 -2.62962e-10 -1.75604e-10 5e-05 1.46608e-10 
112 1 0.211274 0.017925 0.00708192 0.00615333 0.000340482 -0.000304657 7.35037e-11 3.45231e-11 3.97353e-12 5e-05 1.46608e-10 
113 1 0.210881 0.0165354 0.00760071 0.00588875 0.000528096 -4.30132e-05 -1.30806e-11 -1.29034e-10 1.75511e-10 5e-05 1.46608e-10 
114 1 0.211238 0.0181673 0.00700895 0.00625674 0.000337326 -0.000306264 -1.88595e-12 -3.44472e-11 1.17254e-11 5e-05 1.46608e-10 
115 1 0.217394 0.0175678 0.00709577 0.00551968 -1.81085e-05 8.83989e-05 2.14581e-10 -9.56881e-11 -3.50791e-10 5e-05 1.46608e-10 
116 1 0.217248 0.0179397 0.00712154 0.0058776 -0.000131211 0.000129497 2.97829e-10 -1.32555e-10 -3.65756e-10 5e-05 1.46608e-10 
117 1 0.217333 0.0185955 0.00695486 0.00621558 2.36038e-05 -0.000668236 -4.47369e-11 -8.74018e-12 -2.15489e-11 5e-05 1.46608e-10 
118 1 0.211074 0.0174288 0.00724026 0.00571047 0.000544261 -0.000353142 -1.01551e-10 1.37773e-10 -4.82084e-11 5e-05 1.46608e-10 
119 1 0.217365 0.0173933 0.00718383 0.00554346 -0.00011871 -0.00030204 5.41177e-11 -2.86742e-11 9.31675e-11 5e-05 1.46608e-10 
120 1 0.216639 0.0158079 0.00853324 0.00591517 -0.000390931 -1.45232e-05 1.65482e-11 -2.86735e-11 2.57309e-11 5e-05 1.46608e-10 
121 1 0.216553 0.0155071 0.0087824 0.00598095 -0.000440638 2.28136e-05 2.34162e-11 -2.41452e-11 8.68451e-12 5e-05 1.46608e-10 
122 1 0.217089 0.0171024 0.00744387 0.00554958 -0.000368858 -9.1733e-05 1.38922e-10 2.1412e-11 -1.98683e-11 5e-05 1.46608e-10 
123 1 0.211035 0.0172416 0.00729881 0.00573257 0.000568669 -0.000360653 8.67604e-11 1.56619e-10 -7.19914e-11 5e-05 1.46608e-10 
124 1 0.217107 0.0171776 0.00738048 0.00553148 -0.000365198 -9.29064e-05 1.7248e-10 -8.75768e-11 -5.19655e-11 5e-05 1.46608e-10 
125 1 0.217406 0.0185282 0.00694615 0.00626578 -5.39003e-05 0.000248456 -2.4071e-10 -2.4098e-10 2.84583e-12 5e-05 1.46608e-10 
126 1 0.217036 0.0168767 0.00763414 0.00619324 -0.000464283 -5.90422e-05 -1.74474e-10 -3.82631e-12 3.63327e-11 5e-05 1.46608e-10 
127 1 0.211656 0.0180428 0.00703344 0.00622391 0.000177554 -0.000257 -8.84504e-11 3.57552e-11 -1.44603e-11 5e-05 1.46608e-10 
128 1 0.217071 0.0170272 0.0075073 0.00568661 -0.000391595 -8.35971e-05 1.47836e-10 3.69084e-11 -3.79581e-11 5e-05 1.46608e-10 
129 1 0.217124 0.0176292 0.00706961 0.00563488 -0.000182279 0.000249436 1.85512e-10 3.06564e-10 -7.63626e-11 5e-05 1.46608e-10 
131 1 0.211474 0.0176409 0.00716233 0.00609498 0.000293731 -0.000287993 -5.1624e-11 -4.47729e-11 1.2469e-11 5e-05 1.46608e-10 
132 1 0.217239 0.0177576 0.00704886 0.00570397 -0.00026953 0.000249878 -7.38403e-10 -3.16475e-10 9.24208e-11 5e-05 1.46608e-10 
133 1 0.217087 0.0174547 0.00715295 0.00532525 -0.000388821 -6.71949e-05 1.07622e-11 1.56521e-10 5.46809e-13 5e-05 1.46608e-10 
134 1 0.217052 0.0169521 0.00757064 0.00598354 -0.000439393 -6.4466e-05 2.87109e-10 -2.39751e-11 -2.82454e-11 5e-05 1.46608e-10 
135 1 0.216425 0.015056 0.00915686 0.00578999 -0.000475048 3.41944e-05 5.51343e-11 -3.24206e-10 -5.42655e-10 5e-05 1.46608e-10 
136 1 0.211302 0.0184482 0.00692092 0.00634411 0.00021482 -0.000259176 -4.38547e-10 -5.71428e-10 2.04874e-10 5e-05 1.46608e-10 
137 1 0.216751 0.016183 0.00822228 0.00580409 -0.000352038 -3.87388e-05 1.79842e-10 1.83163e-11 -3.33865e-11 5e-05 1.46608e-10 
138 1 0.217182 0.0178274 0.00713481 0.00612859 -0.000341972 0.000137423 1.37616e-10 -1.22571e-10 1.19639e-10 5e-05 1.46608e-10 
140 1 0.217282 0.0174923 0.00713514 0.00562312 -6.0522e-05 -0.000130324 7.10618e-11 -1.10282e-10 1.69325e-10 5e-05 1.46608e-10 
141 1 0.211297 0.0180211 0.00706617 0.0061999 0.000310211 -0.000301254 -3.17907e-11 -3.90409e-11 -1.35027e-10 5e-05 1.46608e-10 
142 1 0.211015 0.017148 0.00732809 0.00569711 0.000392921 -0.000305566 -1.70222e-11 -8.30643e-11 2.59729e-11 5e-05 1.46608e-10 
143 1 0.210488 0.0153711 0.00904873 0.00606851 8.19472e-05 -0.000404255 5.59067e-11 2.83283e-10 -5.51372e-10 5e-05 1.46608e-10 
144 1 0.211134 0.0177093 0.00715246 0.00610954 0.0003797 -0.000317792 -4.30599e-11 -2.46309e-11 2.86397e-11 5e-05 1.46608e-10 
147 1 0.21136 0.0183047 0.00698564 0.00627266 0.000191649 -0.000244367 -2.66017e-10 -5.32475e-10 2.18571e-10 5e-05 1.46608e-10 
148 1 0.211107 0.0167396 0.00745006 0.00571866 0.000487375 -0.000329632 8.16307e-11 1.08981e-10 -3.37239e-11 5e-05 1.46608e-10 
149 1 0.216919 0.0167823 0.00772053 0.00643444 -0.000481307 -6.45799e-05 -7.14612e-11 -2.56565e-10 1.73328e-10 5e-05 1.46608e-10 
150 1 0.0100679 0.0201683 0.00551526 8.38545e-15 1.24106e-15 -8.48744e-14 5.89366e-24 -1.46243e-23 2.06795e-25 5e-05 1.46608e-10 
151 1 0.210976 0.0169602 0.00738495 0.00569439 0.000599501 -4.11649e-06 -1.29112e-10 -9.65127e-11 4.73759e-11 5e-05 1.46608e-10 
153 1 0.211346 0.0186416 0.00686031 0.00644542 -1.72967e-05 -5.65952e-05 5.81033e-11 1.61567e-09 -1.2401e-09 5e-05 1.46608e-10 
154 1 0.211093 0.0175224 0.00721098 0.00568104 0.000482859 -0.000332611 -2.28825e-11 -1.03116e-10 3.2548e-11 5e-05 1.46608e-10 
155 1 0.211299 0.0172372 0.00729154 0.00577338 0.00037334 -0.000301953 5.62448e-11 2.75134e-10 -9.68522e-11 5e-05 1.46608e-10 
156 1 0.211245 0.0178336 0.00711084 0.00611644 0.000369067 -0.000312456 -2.0515e-11 5.40887e-11 -3.21737e-11 5e-05 1.46608e-10 
157 1 0.0219312 0.0187687 0.00551176 -3.83075e-14 8.169e-14 2.95884e-13 -1.32633e-21 -1.71898e-22 -1.20975e-22 5e-05 1.46608e-10 
158 1 0.211486 0.0180787 0.00702797 0.00622683 0.000248506 -0.000278905 4.66472e-11 -1.46222e-10 5.2584e-11 5e-05 1.46608e-10 
159 1 0.217507 0.0182023 0.00699605 0.00605308 -6.91884e-05 0.000237925 3.34753e-10 -1.84572e-10 5.62342e-11 5e-05 1.46608e-10 
160 1 0.211113 0.0176161 0.00718201 0.00461987 0.000320038 -0.00159846 -3.02018e-10 -1.6207e-10 -3.27237e-10 5e-05 1.46608e-10 
162 1 0.211421 0.0185779 0.00687735 0.00657698 -5.38237e-05 -0.000229113 -3.69433e-10 2.60119e-10 -5.27187e-10 5e-05 1.46608e-10 
164 1 0.210981 0.0165563 0.00758492 0.00569249 0.000580617 -8.15674e-05 1.32102e-11 2.45927e-11 1.56873e-10 5e-05 1.46608e-10 
165 1 0.211304 0.0176754 0.00715729 0.0061034 0.000357612 -0.000307044 7.52728e-12 -4.63116e-11 1.56791e-11 5e-05 1.46608e-10 
166 1 0.217265 0.0182952 0.00701352 0.0061177 -0.000174201 -3.31348e-05 9.36138e-11 2.24913e-10 5.96603e-11 5e-05 1.46608e-10 
168 1 0.211032 0.0168034 0.00743289 0.00571139 0.000609541 -3.98585e-05 -4.27246e-11 2.07165e-10 -1.25937e-10 5e-05 1.46608e-10 
169 1 0.211475 0.0184258 0.00692213 0.00651825 9.78871e-05 -0.000254978 2.23522e-10 1.58301e-10 -8.40356e-11 5e-05 1.46608e-10 
170 1 0.211379 0.0176112 0.00717449 0.00608614 0.0003355 -0.00030018 -7.04928e-11 -8.22886e-11 2.97967e-11 5e-05 1.46608e-10 
171 1 0.21713 0.0176907 0.00715615 0.00550723 -0.000218824 0.000235788 4.75334e-11 5.89232e-11 -5.78852e-11 5e-05 1.46608e-10 
172 1 0.211284 0.0175817 0.00718662 0.00613275 0.000397283 -0.00032158 -4.67057e-11 3.62745e-10 -9.82679e-11 5e-05 1.46608e-10 
173 1 0.21738 0.0179465 0.00704382 0.00580944 6.38097e-05 0.000216745 2.87478e-10 2.52738e-10 6.17024e-11 5e-05 1.46608e-10 
174 1 0.211319 0.0173308 0.00726227 0.00586233 0.000356089 -0.000299702 8.43218e-11 1.87406e-10 -5.931e-11 5e-05 1.46608e-10 
175 1 0.205008 0.0171272 0.00735691 0.00548396 -0.000525949 -3.01938e-05 2.57304e-10 1.30851e-10 -8.91888e-11 5e-05 1.46608e-10 
177 1 0.211146 0.0169268 0.00739151 0.00573116 0.000490492 -0.000334518 5.88343e-11 -2.21999e-12 -2.64527e-11 5e-05 1.46608e-10 
178 1 0.211071 0.016991 0.00737542 0.00573585 0.000567514 -0.000191674 -1.31428e-10 3.4112e-11 -1.36731e-10 5e-05 1.46608e-10 
179 1 0.211149 0.0173651 0.00725731 0.00570902 0.000539073 -0.000350469 -5.27624e-11 5.72008e-11 -2.15894e-11 5e-05 1.46608e-10 
181 1 0.211431 0.0182346 0.00698207 0.00627557 0.000216186 -0.000265412 -1.50462e-10 -1.25384e-09 4.07468e-10 5e-05 1.46608e-10 
182 1 0.217105 0.0175347 0.00709552 0.00563263 -0.000285841 0.000138554 1.06546e-10 -1.57888e-10 -2.87596e-10 5e-05 1.46608e-10 
183 1 0.211359 0.0175177 0.00720375 0.00603021 0.000335889 -0.000298625 -2.26108e-10 -9.11165e-11 3.22106e-11 5e-05 1.46608e-10 
184 1 0.217164 0.0174059 0.00719446 0.0056415 -0.000262936 8.44482e-05 -1.12833e-11 1.83343e-10 2.80034e-10 5e-05 1.46608e-10 
186 1 0.210957 0.016866 0.00741216 0.00571633 0.000625428 -1.27052e-05 -2.90452e-11 1.50529e-10 -5.02596e-11 5e-05 1.46608e-10 
187 1 0.217012 0.0171567 0.00740454 0.00548995 -0.000336677 -0.000111532 -1.3524e-10 3.95204e-11 -4.49769e-11 5e-05 1.46608e-10 
188 1 0.217171 0.0170301 0.00749782 0.00564964 -0.000158112 -0.000272177 4.54777e-11 2.75878e-10 -2.26589e-10 5e-05 1.46608e-10 
189 1 0.217254 0.0178539 0.00707073 0.005691 -0.000289581 0.00028785 -1.48417e-10 -6.01429e-10 3.7631e-10 5e-05 1.46608e-10 
190 1 0.205295 0.0184173 0.00699383 0.00606584 -0.00045364 0.000308715 -1.41638e-11 -5.70518e-11 8.40661e-12 5e-05 1.46608e-10 
191 1 0.217207 0.0171804 0.00737101 0.00552655 -0.000131779 -0.00028722 4.50366e-11 -7.77776e-11 -2.59781e-11 5e-05 1.46608e-10 
192 1 0.211264 0.0174883 0.00721587 0.00603649 0.000422306 -0.000325269 -1.75588e-10 3.46269e-10 -9.0279e-11 5e-05 1.46608e-10 
193 1 0.21738 0.0174735 0.007126 0.00557509 -0.000136873 -0.000290642 9.31583e-11 -6.98082e-11 1.26722e-10 5e-05 1.46608e-10 
194 1 0.161461 0.0182058 0.00533758 1.44398e-15 -1.10155e-14 8.66695e-14 1.08363e-21 1.25395e-22 -3.51552e-24 5e-05 1.46608e-10 
195 1 0.211466 0.0179852 0.00705723 0.00620012 0.000257758 -0.000279734 1.13533e-11 -3.06932e-11 3.66567e-12 5e-05 1.46608e-10 
196 1 0.210887 0.0162489 0.00796777 0.00595707 0.000445077 -0.000178974 5.81928e-11 6.5656e-11 7.89567e-11 5e-05 1.46608e-10 
197 1 0.205067 0.0173822 0.00721012 0.00552288 -0.000518676 -3.55575e-05 7.75432e-11 -5.55232e-11 3.38687e-11 5e-05 1.46608e-10 
198 1 0.211326 0.0185559 0.0069078 0.00612778 -7.79527e-05 -9.60947e-05 7.07274e-10 1.90996e-09 -3.88449e-10 5e-05 1.46608e-10 
199 1 0.211217 0.018074 0.00703817 0.00622291 0.000342415 -0.000307517 -3.24599e-11 1.92881e-11 -1.79303e-11 5e-05 1.46608e-10 
201 1 0.210863 0.0164739 0.00767758 0.00587357 0.000531782 -5.04539e-05 -2.57299e-11 -1.01907e-10 1.4207e-10 5e-05 1.46608e-10 
202 1 0.21135 0.0178697 0.00711591 0.00615171 0.000335145 -0.000305787 5.8441e-11 8.88285e-11 2.93895e-11 5e-05 1.46608e-10 
203 1 0.216832 0.0164845 0.00797271 0.006035 -0.000379671 -0.000112572 -2.05709e-10 8.50564e-11 -5.78072e-11 5e-05 1.46608e-10 
204 1 0.210558 0.0155545 0.00882219 0.00608611 0.000562888 -7.22918e-05 -7.69417e-11 -1.33581e-10 -8.8263e-12 5e-05 1.46608e-10 
205 1 0.21142 0.0177984 0.00711588 0.00613273 0.000317725 -0.000297899 6.70971e-12 -1.66855e-11 5.69551e-11 5e-05 1.46608e-10 
206 1 0.210942 0.0164334 0.00773787 0.00583033 0.000555827 -8.58583e-05 -4.61484e-11 -1.24189e-10 1.57064e-10 5e-05 1.46608e-10 
207 1 0.211051 0.0168975 0.00740509 0.00573123 0.000588092 -0.000107479 -3.09197e-11 1.64236e-10 -9.9839e-11 5e-05 1.46608e-10 
208 1 0.21123 0.0177398 0.00714198 0.00611506 0.000369672 -0.000317818 1.43738e-11 -3.51164e-11 2.30562e-11 5e-05 1.46608e-10 
209 1 0.207964 0.0171427 0.0072393 0.00554528 -0.000902247 0.000435123 1.27102e-13 -2.4541e-14 8.21444e-15 5e-05 1.46608e-10 
210 1 0.217049 0.0173069 0.00727778 0.005504 -0.000476511 1.0637e-05 3.4352e-10 2.22157e-10 2.5038e-10 5e-05 1.46608e-10 
211 1 0.216993 0.0170816 0.00746791 0.00549189 -0.000327741 -0.000112205 -3.65026e-10 7.07726e-11 -1.29436e-11 5e-05 1.46608e-10 
212 1 0.211375 0.017964 0.00709294 0.00617988 0.000284701 -0.000293388 1.31853e-12 6.05426e-12 -9.93239e-11 5e-05 1.46608e-10 
213 1 0.217202 0.0180092 0.00701188 0.0061043 -0.000299981 0.000289315 1.41847e-10 -1.217e-10 -2.20608e-11 5e-05 1.46608e-10 
214 1 0.216941 0.0168574 0.00765834 0.00619954 -0.000445759 -8.45206e-05 -3.4914e-11 -2.96173e-10 1.78023e-10 5e-05 1.46608e-10 
215 1 0.205273 0.0183199 0.00700041 0.00606314 -0.000485479 0.000310894 4.33037e-11 -1.72992e-11 -3.79443e-12 5e-05 1.46608e-10 
216 1 0.211323 0.0177731 0.0071268 0.0061358 0.000381093 -0.000316054 -7.45066e-12 1.02954e-10 -3.54896e-11 5e-05 1.46608e-10 
217 1 0.217311 0.0184976 0.00694811 0.00622397 4.97006e-05 2.81313e-05 -9.87735e-11 1.53741e-10 2.04167e-10 5e-05 1.46608e-10 
218 1 0.210664 0.0158606 0.00844164 0.00609122 0.000575381 -8.32888e-05 6.9431e-11 -2.88038e-11 7.66987e-11 5e-05 1.46608e-10 
219 1 0.21688 0.0166323 0.00784713 0.00629666 -0.000435967 -9.22972e-05 1.97181e-10 -2.01493e-10 1.62251e-10 5e-05 1.46608e-10 
220 1 0.211443 0.0178916 0.00708663 0.00616641 0.000274733 -0.000285933 -6.20442e-11 7.8453e-11 -2.89173e-11 5e-05 1.46608e-10 
221 1 0.271074 0.0173668 0.00713233 0.00547101 -0.000742348 0.00026155 1.02806e-12 1.63292e-12 -5.27012e-13 5e-05 1.46608e-10 
222 1 0.217341 0.0180338 0.00701365 0.00589115 9.01805e-05 0.000212097 1.42607e-10 3.47149e-11 2.98972e-11 5e-05 1.46608e-10 
223 1 0.211188 0.0175522 0.00719877 0.00468146 0.00074169 -0.000386543 -3.31176e-10 -1.30914e-10 4.55279e-11 5e-05 1.46608e-10 
224 1 0.0543953 0.0180401 0.00772907 -0.0226258 0.0234505 -0.00867844 3.39854e-10 -1.3276e-10 -2.6584e-11 5e-05 1.46608e-10 
225 1 0.217225 0.0172557 0.00730758 0.00546136 -0.000116513 -0.000297243 1.48167e-10 -2.56943e-10 4.50596e-11 5e-05 1.46608e-10 
226 1 0.210995 0.0170544 0.00735737 0.00569916 0.000510371 -0.000338743 1.44902e-10 -1.95477e-10 -4.85623e-11 5e-05 1.46608e-10 
227 1 0.205208 0.0180277 0.00702016 0.00606053 -0.000541438 0.000314319 1.31049e-11 -1.72307e-10 7.71654e-11 5e-05 1.46608e-10 
228 1 0.205028 0.0172122 0.00730798 0.00549803 -0.000516529 -3.93131e-05 -1.57792e-10 1.17818e-10 -6.60201e-11 5e-05 1.46608e-10 
229 1 0.21141 0.0181413 0.0070113 0.00625253 0.000256056 -0.000282725 -1.6333e-10 -4.92293e-10 1.48534e-10 5e-05 1.46608e-10 
230 1 0.210828 0.0163509 0.00783122 0.00589132 0.000536503 -5.54496e-05 -8.01391e-11 -6.8441e-11 5.64614e-11 5e-05 1.46608e-10 
231 1 0.204989 0.0170422 0.00740586 0.00548425 -0.000529447 -2.8962e-05 7.41844e-12 2.60659e-11 -9.94642e-12 5e-05 1.46608e-10 
232 1 0.211197 0.0179888 0.00708654 0.00616267 0.000351762 -0.000307296 7.17915e-11 5.29243e-11 -2.37518e-11 5e-05 1.46608e-10 
234 1 0.217144 0.0177271 0.00706415 0.00562903 -0.000196862 0.000254416 3.79582e-10 1.43889e-10 -1.17926e-10 5e-05 1.46608e-10 
235 1 0.211399 0.0177051 0.00714512 0.00611541 0.000324889 -0.000298404 4.71678e-11 -6.26287e-11 6.57121e-12 5e-05 1.46608e-10 
236 1 0.21079 0.0162281 0.0079845 0.00595139 0.000543057 -5.55349e-05 1.49881e-10 -5.61985e-11 1.06804e-10 5e-05 1.46608e-10 
237 1 0.210749 0.0161061 0.00813751 0.00609925 0.000547986 -4.29743e-05 2.47618e-11 -6.04313e-11 5.1718e-11 5e-05 1.46608e-10 
239 1 0.204834 0.0163959 0.00784788 0.00565885 -0.000301071 0.000442381 8.57537e-12 6.99395e-11 -4.21509e-11 5e-05 1.46608e-10 
240 1 0.204854 0.0164729 0.00778712 0.00545574 -0.000267047 0.000407589 3.46904e-12 7.90525e-11 -5.83998e-11 5e-05 1.46608e-10 
241 1 0.204911 0.016704 0.00760467 0.00540396 -0.000230222 0.000378126 -2.13294e-11 -4.50654e-11 -3.64781e-11 5e-05 1.46608e-10 
242 1 0.211054 0.0173352 0.00726953 0.00570134 0.000508106 -0.000341932 3.69312e-11 2.57625e-10 -8.07934e-11 5e-05 1.46608e-10 
244 1 0.204873 0.0165499 0.00772636 0.00532474 -0.000240121 0.00038049 -1.21627e-10 8.84521e-11 -6.45722e-11 5e-05 1.46608e-10 
246 1 0.204969 0.0169572 0.00745478 0.0054563 -0.000520404 -3.66733e-05 -1.83255e-10 -8.19022e-11 3.25937e-11 5e-05 1.46608e-10 
247 1 0.211605 0.0182004 0.00698686 0.00629333 0.000227775 -0.000274146 5.67029e-10 -2.97178e-10 3.69343e-11 5e-05 1.46608e-10 
248 1 0.210846 0.0164124 0.00775445 0.00584396 0.000538491 -6.17776e-05 -1.1762e-10 -5.06625e-11 7.37705e-11 5e-05 1.46608e-10 
249 1 0.205251 0.0182226 0.00700699 0.00606531 -0.000509776 0.000312651 1.30461e-11 2.31672e-11 -1.43143e-11 5e-05 1.46608e-10 
250 1 0.211127 0.0168332 0.00742079 0.00572199 0.000487934 -0.000334591 1.07466e-10 4.83117e-11 -6.80759e-11 5e-05 1.46608e-10 
251 1 0.216854 0.0165599 0.00791092 0.0061689 -0.000418371 -0.000126909 -5.9197e-11 -2.77585e-11 5.36483e-11 5e-05 1.46608e-10 
252 1 0.205106 0.0175547 0.00711718 0.00567381 -0.000497055 8.73235e-05 4.02435e-10 -1.13143e-10 -1.91133e-10 5e-05 1.46608e-10 
253 1 0.205316 0.0185147 0.00698726 0.00607062 -0.000427005 0.000306513 1.52769e-12 -1.30498e-12 -3.03893e-13 5e-05 1.46608e-10 
254 1 0.20495 0.0168722 0.00750372 0.00541452 -0.000513268 -6.13595e-05 -5.48031e-11 -1.76206e-10 3.36879e-11 5e-05 1.46608e-10 
255 1 0.211156 0.0178069 0.00714891 0.00610455 0.00036446 -0.000344556 1.40995e-11 -1.55272e-11 2.95205e-11 5e-05 1.46608e-10 
256 1 0.211244 0.0173948 0.00724513 0.00588885 0.000458478 -0.000331749 2.0436e-11 1.51907e-10 -6.85056e-11 5e-05 1.46608e-10 
257 1 0.211204 0.0172076 0.00730368 0.00573767 0.000489341 -0.00033574 1.02396e-10 2.8334e-11 -8.52034e-12 5e-05 1.46608e-10 
258 1 0.21111 0.0171779 0.00731586 0.00572133 0.000536279 -0.000346451 5.8876e-11 -5.134e-12 -1.53193e-11 5e-05 1.46608e-10 
259 1 0.205127 0.0176454 0.00708029 0.0056472 -0.000447376 0.000216925 -7.3952e-11 1.55836e-10 -8.01097e-11 5e-05 1.46608e-10 