ITEM: TIMESTEP
30400000
ITEM: NUMBER OF ATOMS
271
ITEM: BOX BOUNDS ff ff ff
-0.02 0.43
-0.02 0.06
-0.02 0.07
ITEM: ATOMS id type x y z vx vy vz fx fy fz radius mass 
1 1 0.189743 0.0154129 0.00865548 0.0057856 -0.000302925 0.000157965 1.62833e-10 -8.48871e-11 -2.24134e-11 5e-05 1.46608e-10 
2 1 0.190636 0.0179035 0.00701289 0.00583155 -0.000182684 0.000172626 4.41028e-10 1.75092e-10 -4.58553e-11 5e-05 1.46608e-10 
3 1 0.1847 0.0177859 0.0070359 0.00571391 -0.000181597 -2.98283e-05 -1.65477e-10 1.60599e-10 -1.21712e-10 5e-05 1.46608e-10 
4 1 0.19067 0.0176471 0.00707779 0.00585181 0.000293367 5.38507e-05 -7.25521e-10 3.03506e-10 -9.26279e-11 5e-05 1.46608e-10 
5 1 0.189724 0.0153681 0.00874277 0.00573738 -0.000284254 0.000135051 -2.94702e-10 -4.09872e-11 1.14252e-10 5e-05 1.46608e-10 
6 1 0.196129 0.0168997 0.00748794 0.00610991 0.000245971 0.000174937 2.52415e-12 4.72032e-12 -2.12284e-12 5e-05 1.46608e-10 
7 1 0.189823 0.0156798 0.00837597 0.00558849 -0.00010134 0.000310358 -7.93352e-11 1.16983e-10 -2.34365e-10 5e-05 1.46608e-10 
8 1 0.189705 0.0153233 0.00883013 0.00562372 -0.000265853 9.83875e-05 -4.40643e-10 2.37191e-11 9.22042e-11 5e-05 1.46608e-10 
9 1 0.196272 0.0174845 0.00719622 0.00633412 0.000442934 -0.000397064 -9.69446e-12 -3.10331e-11 1.72838e-11 5e-05 1.46608e-10 
10 1 0.190288 0.0175244 0.00710018 0.00624817 -0.000303236 0.000215622 -7.16942e-11 -1.10271e-10 -8.56754e-12 5e-05 1.46608e-10 
11 1 0.190427 0.017745 0.00704799 0.00591372 5.73045e-05 0.000114251 -1.28176e-11 -3.80498e-10 8.36965e-11 5e-05 1.46608e-10 
12 1 0.183829 0.015691 0.00832673 0.0056759 -0.000239834 -9.8771e-05 -1.94527e-10 -2.22808e-11 -4.93456e-10 5e-05 1.46608e-10 
13 1 0.189646 0.0151893 0.00909127 0.00609386 -0.000307694 0.000146324 -2.49403e-10 1.3862e-10 -2.26305e-10 5e-05 1.46608e-10 
14 1 0.184496 0.01851 0.00687642 0.00561038 -0.000145662 -6.04378e-05 -6.83427e-11 -1.25961e-11 -1.00545e-10 5e-05 1.46608e-10 
15 1 0.190648 0.0175504 0.00710151 0.00613979 0.000387345 3.66109e-05 -7.25368e-10 2.94855e-10 -8.98167e-11 5e-05 1.46608e-10 
16 1 0.184593 0.0185448 0.00687328 0.00564768 -0.00011044 1.28297e-05 5.53484e-11 -1.46921e-10 -2.17827e-10 5e-05 1.46608e-10 
17 1 0.19069 0.0177438 0.00705404 0.00612142 3.03727e-05 0.000125492 -3.51291e-10 -1.13909e-10 1.84759e-11 5e-05 1.46608e-10 
19 1 0.189693 0.0152777 0.00891839 0.00560345 -0.00025575 7.84217e-05 1.16256e-10 3.34557e-11 -6.41784e-11 5e-05 1.46608e-10 
21 1 0.190245 0.0173418 0.00716779 0.00625818 -0.000314822 0.000163731 -1.66274e-10 -4.88012e-10 -8.53623e-10 5e-05 1.46608e-10 
22 1 0.190458 0.0174898 0.00711254 0.00617426 -0.000273535 0.000203118 -9.80261e-11 1.06767e-10 -2.92289e-11 5e-05 1.46608e-10 
23 1 0.184059 0.0162227 0.00784156 0.00557751 -0.000275074 -2.29368e-05 -1.21194e-10 -1.99285e-10 3.81108e-10 5e-05 1.46608e-10 
24 1 0.196355 0.017826 0.0070053 0.00586441 0.000538867 -0.000438705 5.47637e-11 -8.04598e-12 3.98802e-12 5e-05 1.46608e-10 
25 1 0.189881 0.0159282 0.00821814 0.00541488 -4.49164e-05 0.000265267 3.13282e-11 5.78974e-11 3.78586e-11 5e-05 1.46608e-10 
26 1 0.196215 0.0172546 0.00732472 0.00621949 0.000333514 -0.000139983 1.84899e-11 5.38166e-11 -9.8513e-11 5e-05 1.46608e-10 
27 1 0.184817 0.0179007 0.00696963 0.00583151 -0.000419548 9.50978e-05 -6.3452e-11 9.83046e-12 9.85593e-11 5e-05 1.46608e-10 
28 1 0.190596 0.0177121 0.00705992 0.00591085 0.000290284 5.58655e-05 -4.30817e-10 -2.64133e-11 -4.33699e-13 5e-05 1.46608e-10 
29 1 0.189841 0.0157627 0.00832318 0.00558772 -8.98266e-05 0.000301957 -8.4314e-11 1.75687e-10 -5.25775e-11 5e-05 1.46608e-10 
30 1 0.190352 0.0178092 0.00703031 0.00580738 -0.000220616 0.000182254 -3.93338e-10 1.8164e-10 -8.67337e-11 5e-05 1.46608e-10 
31 1 0.1899 0.0160098 0.00816352 0.00540776 -0.000139492 9.04512e-05 -5.76637e-11 -7.34967e-11 -7.35105e-11 5e-05 1.46608e-10 
32 1 0.190332 0.0169924 0.00741118 0.00607799 -0.000490331 5.5531e-05 -1.66494e-10 -1.63601e-10 1.44702e-10 5e-05 1.46608e-10 
33 1 0.19615 0.0169884 0.00744716 0.00612683 0.000243371 0.000176931 1.73753e-12 4.12342e-12 -1.81012e-12 5e-05 1.46608e-10 
34 1 0.189801 0.0155973 0.00842814 0.00559182 -0.000116819 0.000309622 1.05568e-10 1.74224e-10 -3.36057e-11 5e-05 1.46608e-10 
35 1 0.19049 0.0172502 0.00721303 0.00625199 -0.000448574 1.90233e-05 2.04882e-10 -4.4557e-11 8.57142e-11 5e-05 1.46608e-10 
36 1 0.196336 0.0177403 0.00705315 0.00641856 0.000435763 -0.000394852 5.34412e-13 -8.53116e-12 6.71617e-12 5e-05 1.46608e-10 
37 1 0.190545 0.0183166 0.00690756 0.00581871 -0.000246353 0.000188482 -3.15209e-11 1.21576e-10 -7.8081e-12 5e-05 1.46608e-10 
38 1 0.190604 0.0186035 0.00684072 0.00562854 -0.000308235 7.72838e-05 7.53662e-11 4.40768e-11 -2.609e-11 5e-05 1.46608e-10 
39 1 0.196373 0.017912 0.00695731 0.00584135 0.000544314 -0.000441002 1.95615e-11 1.94026e-11 -4.2402e-12 5e-05 1.46608e-10 
41 1 0.190711 0.0178396 0.00703051 0.00592099 -9.57891e-05 0.000152929 -2.13696e-10 -7.68759e-10 1.91585e-10 5e-05 1.46608e-10 
42 1 0.321436 0.0173475 0.00552525 4.56116e-16 2.25538e-15 8.46361e-14 -5.15615e-23 -2.42338e-24 2.06795e-25 5e-05 1.46608e-10 
44 1 0.190616 0.0178082 0.00703631 0.00597571 -0.000102853 0.000155666 -4.76891e-11 3.52276e-11 -4.36616e-12 5e-05 1.46608e-10 
45 1 0.196172 0.0170771 0.00740637 0.0061436 0.000240613 0.000179053 -1.6146e-13 2.94439e-13 -5.34038e-13 5e-05 1.46608e-10 
47 1 0.189763 0.0154652 0.00857254 0.00581455 -0.000319957 0.000174465 1.31608e-10 -7.42315e-11 -2.7518e-11 5e-05 1.46608e-10 
48 1 0.190584 0.0185071 0.00685848 0.00560971 -0.000298635 6.90508e-05 1.20784e-10 1.06845e-12 -1.55918e-10 5e-05 1.46608e-10 
50 1 0.189947 0.0161661 0.00804828 0.00538531 -0.000216447 -0.000107008 -2.7695e-10 -1.29924e-10 -2.31968e-10 5e-05 1.46608e-10 
51 1 0.18992 0.0160884 0.00810519 0.0054166 -0.000361674 -0.000250658 -3.54951e-10 -1.3823e-10 -2.65038e-10 5e-05 1.46608e-10 
52 1 0.183751 0.0154493 0.00863142 0.0056443 0.000206793 0.000160505 -1.43836e-10 5.15757e-11 -2.79376e-10 5e-05 1.46608e-10 
53 1 0.196315 0.017655 0.00710084 0.00638875 0.000437488 -0.000395354 4.71556e-12 -1.5245e-11 9.10117e-12 5e-05 1.46608e-10 
54 1 0.190431 0.01819 0.00693676 0.00575891 -0.000205387 0.000176025 -3.92466e-11 -6.97525e-11 -9.2167e-12 5e-05 1.46608e-10 
55 1 0.183693 0.0153055 0.00888806 0.00575027 0.0002345 0.000234599 3.03411e-10 3.42334e-10 -4.28732e-10 5e-05 1.46608e-10 
56 1 0.190565 0.0184123 0.00688407 0.00574338 -5.92717e-05 0.000137353 1.04355e-10 -5.45089e-11 1.18064e-10 5e-05 1.46608e-10 
57 1 0.196193 0.0171659 0.00736559 0.00616062 0.000238571 0.000180801 5.39015e-13 -3.54528e-12 2.09716e-12 5e-05 1.46608e-10 
59 1 0.190436 0.017395 0.00713579 0.00622696 -0.000325174 0.000213555 6.65597e-11 2.47295e-10 -1.90738e-11 5e-05 1.46608e-10 
61 1 0.190217 0.0168912 0.00749162 0.00599143 -0.000430241 1.75232e-05 -1.23938e-10 -2.24085e-10 1.60252e-10 5e-05 1.46608e-10 
62 1 0.190829 0.0184106 0.00688087 0.00564272 -0.000314939 -1.61305e-05 6.99447e-11 -6.7336e-11 -2.29618e-11 5e-05 1.46608e-10 
63 1 0.190627 0.0174542 0.00712512 0.00615193 -0.000186493 0.00018042 -1.79412e-10 2.42099e-10 -7.02686e-11 5e-05 1.46608e-10 
64 1 0.196392 0.0180055 0.00692745 0.00591415 0.000661603 -2.65611e-05 1.4351e-12 1.75421e-11 -2.20537e-12 5e-05 1.46608e-10 
65 1 0.184005 0.0163643 0.00775735 0.00562184 5.79108e-05 0.000191779 2.54069e-11 1.18162e-10 -5.83592e-11 5e-05 1.46608e-10 
66 1 0.183673 0.0152576 0.00897361 0.00571359 0.000232415 0.000234643 4.75148e-11 2.32238e-10 -2.86672e-10 5e-05 1.46608e-10 
67 1 0.190581 0.0180625 0.00697192 0.00574821 -0.000233156 0.000183198 -5.1413e-11 1.44373e-10 -5.19492e-11 5e-05 1.46608e-10 
68 1 0.190374 0.0171489 0.00729365 0.00621525 -0.000464079 3.08108e-05 2.25655e-10 -2.17609e-10 1.67964e-10 5e-05 1.46608e-10 
69 1 0.19045 0.0182852 0.00691338 0.00580212 -0.00021042 0.000181066 -2.2654e-10 -1.59143e-10 2.99207e-11 5e-05 1.46608e-10 
70 1 0.196244 0.0173712 0.00725956 0.00668377 0.0019915 -0.00126207 9.13743e-13 9.38154e-13 -5.43794e-13 5e-05 1.46608e-10 
71 1 0.183734 0.0154015 0.00871751 0.00556637 0.000163285 0.000117225 -9.66245e-11 3.74424e-10 -3.77846e-10 5e-05 1.46608e-10 
72 1 0.190486 0.018031 0.00697773 0.00573715 -0.000215595 0.000178354 5.81298e-11 2.15914e-10 -3.85516e-11 5e-05 1.46608e-10 
73 1 0.190508 0.0185703 0.0068401 0.00561936 -0.000250867 7.69755e-05 1.04104e-10 4.69301e-10 -6.11915e-11 5e-05 1.46608e-10 
74 1 0.19064 0.0183484 0.00690168 0.00578719 -0.000165167 0.000167863 -1.69953e-11 -5.29547e-11 3.35206e-11 5e-05 1.46608e-10 
76 1 0.184724 0.0183157 0.00689434 0.00571549 -9.10139e-05 0.000113183 -3.25767e-10 -1.74697e-10 5.20303e-11 5e-05 1.46608e-10 
77 1 0.19051 0.0173295 0.00715377 0.0062331 -0.00032803 0.000214365 -1.78513e-11 1.16545e-10 -2.55446e-11 5e-05 1.46608e-10 
78 1 0.184476 0.0184121 0.00688257 0.00564929 -0.000210158 -2.60427e-05 1.31252e-09 2.53611e-09 -3.02225e-10 5e-05 1.46608e-10 
79 1 0.183789 0.0155504 0.0084631 0.00567091 -0.000262022 -0.000114336 5.8948e-11 -6.65944e-11 -4.25639e-10 5e-05 1.46608e-10 
80 1 0.190675 0.0180939 0.00696611 0.00573966 -0.000274714 0.000193349 3.86057e-10 1.33646e-10 -1.61675e-11 5e-05 1.46608e-10 
81 1 0.184612 0.0186427 0.00686702 0.00567744 -0.000111278 -5.72309e-05 2.45935e-10 -1.51004e-10 -4.96567e-11 5e-05 1.46608e-10 
82 1 0.183848 0.0157638 0.00826099 0.0055414 -0.000206726 -9.94148e-05 8.1591e-11 7.09603e-11 -2.80563e-10 5e-05 1.46608e-10 
83 1 0.184534 0.0182516 0.00689688 0.00590523 -0.000198709 0.000119409 -2.84635e-10 -2.48775e-10 -1.18446e-10 5e-05 1.46608e-10 
84 1 0.196293 0.0175698 0.00714853 0.0063606 0.000439478 -0.000395806 -7.4963e-12 -2.52777e-11 1.38291e-11 5e-05 1.46608e-10 
85 1 0.184721 0.0178714 0.00698828 0.00580268 -0.000217861 -7.44693e-05 -2.82953e-11 -5.21797e-12 -1.76852e-10 5e-05 1.46608e-10 
86 1 0.190731 0.017935 0.00700709 0.0058295 -0.00018214 0.000172304 8.1881e-10 7.90067e-10 -1.78114e-10 5e-05 1.46608e-10 
87 1 0.190679 0.0185376 0.00684391 0.00562753 -0.000327175 -2.00322e-05 1.31362e-10 5.61114e-11 -3.34237e-10 5e-05 1.46608e-10 
88 1 0.1901 0.01679 0.00757267 0.00595589 -0.00034786 -3.83452e-05 -1.75458e-10 -2.46216e-10 1.90239e-10 5e-05 1.46608e-10 
89 1 0.190659 0.0184433 0.00687393 0.00562472 -0.000300455 -1.60461e-05 9.60909e-11 -8.12113e-11 -5.44519e-11 5e-05 1.46608e-10 
90 1 0.190521 0.0177765 0.00704218 0.00585523 0.00022113 7.20046e-05 -3.12505e-10 2.20384e-10 -6.35246e-11 5e-05 1.46608e-10 
91 1 0.184759 0.0180549 0.00691955 0.00610529 -0.000161439 0.00012863 1.38658e-10 2.36185e-12 5.64562e-11 5e-05 1.46608e-10 
92 1 0.19062 0.0182529 0.00692515 0.00582472 -0.000251251 0.000189397 -1.53357e-10 1.35717e-10 -4.70555e-11 5e-05 1.46608e-10 
93 1 0.189978 0.0163202 0.00792492 0.00549416 -0.00021808 -0.000117185 2.00701e-11 -3.18284e-11 2.20143e-11 5e-05 1.46608e-10 
94 1 0.190406 0.0176496 0.00707142 0.00606932 -0.000204615 0.000184393 2.47911e-10 3.10462e-10 -1.24572e-10 5e-05 1.46608e-10 
95 1 0.190362 0.0174597 0.00711799 0.00624065 -0.000311739 0.000215534 -1.12413e-10 -3.44265e-11 -4.36794e-11 5e-05 1.46608e-10 
96 1 0.189998 0.0164009 0.00786923 0.00558139 -0.000246325 -0.000113613 -1.8183e-10 -2.45379e-11 6.25315e-11 5e-05 1.46608e-10 
97 1 0.18412 0.0164812 0.00770239 0.00573835 -0.000134151 0.000292862 -4.82445e-11 -2.39233e-10 1.57944e-10 5e-05 1.46608e-10 
98 1 0.190501 0.0176806 0.00706572 0.00597348 0.000143637 9.38904e-05 7.95288e-11 1.24258e-10 -2.88049e-11 5e-05 1.46608e-10 
99 1 0.184223 0.0169188 0.00748383 0.00605096 -0.000164762 0.000321465 -1.44552e-10 -2.43561e-10 1.25589e-10 5e-05 1.46608e-10 
100 1 0.190734 0.0183797 0.00689244 0.00575985 -0.000151997 -6.88238e-05 -5.83255e-12 -2.49173e-10 1.10567e-10 5e-05 1.46608e-10 
101 1 0.183809 0.0156184 0.00839255 0.0057322 -0.00028843 -0.000126938 2.39167e-10 6.65354e-11 -4.47722e-10 5e-05 1.46608e-10 
102 1 0.0643568 0.0187248 0.00531097 4.03707e-15 1.05482e-14 8.29653e-14 4.31685e-23 -4.45437e-22 5.08716e-23 5e-05 1.46608e-10 
103 1 0.24257 0.0191927 0.00520306 3.17557e-22 4.01299e-22 -5.81428e-22 0 0 0 5e-05 1.46608e-10 
104 1 0.184436 0.0177907 0.00704128 0.00577324 -0.000198592 2.74238e-05 -2.18305e-11 1.05467e-10 -1.0322e-10 5e-05 1.46608e-10 
105 1 0.184777 0.0177289 0.00706557 0.00559021 -0.00030528 3.68881e-05 -5.37674e-10 1.24973e-10 -2.28097e-11 5e-05 1.46608e-10 
106 1 0.184662 0.0176146 0.00713151 0.00577167 -0.000273273 1.26655e-05 -3.0246e-10 1.4241e-10 -1.85362e-11 5e-05 1.46608e-10 
107 1 0.184642 0.0175287 0.00717946 0.00585929 4.73741e-05 -0.000164964 -3.80495e-10 3.69569e-10 -2.19382e-10 5e-05 1.46608e-10 
108 1 0.19047 0.0183804 0.00688999 0.00582332 -0.000230024 0.000185348 4.83608e-12 9.61207e-11 -4.3087e-11 5e-05 1.46608e-10 
109 1 0.190605 0.0173591 0.00714843 0.00617817 -0.000278429 0.000203922 2.3444e-11 7.98972e-11 -2.50771e-11 5e-05 1.46608e-10 
110 1 0.19002 0.0164765 0.00780751 0.00575422 -0.000284878 -8.32723e-05 -3.57691e-10 -5.88161e-12 4.10644e-11 5e-05 1.46608e-10 
111 1 0.190339 0.0173634 0.00714157 0.00627483 -0.000284434 0.000215105 4.72362e-11 1.35385e-10 -2.10445e-11 5e-05 1.46608e-10 
112 1 0.184493 0.0180568 0.00691623 0.00582592 -0.000200322 7.24779e-05 2.27448e-10 -2.88e-10 3.34765e-11 5e-05 1.46608e-10 
113 1 0.184084 0.0167149 0.0075821 0.00600351 -0.000175247 0.000325521 -4.87165e-11 -1.88022e-10 9.97477e-11 5e-05 1.46608e-10 
114 1 0.184456 0.0183143 0.00688955 0.0058426 -0.000222034 0.000103075 7.76928e-10 -2.72144e-10 4.68849e-10 5e-05 1.46608e-10 
115 1 0.190575 0.0176156 0.0070836 0.0059435 0.000124258 9.82296e-05 -4.05005e-10 9.74643e-11 -3.2167e-11 5e-05 1.46608e-10 
116 1 0.190411 0.0180948 0.00696015 0.00573667 -0.000194967 0.00017373 1.71414e-10 3.25363e-10 -6.51506e-11 5e-05 1.46608e-10 
117 1 0.190548 0.0187665 0.0068472 0.00562792 -0.000296216 -0.000146206 -1.99826e-11 -2.13645e-11 5.72738e-11 5e-05 1.46608e-10 
118 1 0.1843 0.0175886 0.00714608 0.0061947 -0.000109873 0.000287079 -9.78159e-11 2.20724e-10 -1.00021e-10 5e-05 1.46608e-10 
119 1 0.190532 0.0174246 0.00713046 0.00618615 -0.000278607 0.000203642 -2.70016e-11 7.66281e-11 2.82829e-15 5e-05 1.46608e-10 
120 1 0.189863 0.0158453 0.008271 0.00550887 -7.08981e-05 0.000280634 -3.02407e-11 1.75321e-10 5.8896e-11 5e-05 1.46608e-10 
121 1 0.189785 0.0155261 0.00849646 0.00559855 -0.000214713 0.000206914 -1.2922e-11 1.64509e-10 7.49016e-11 5e-05 1.46608e-10 
122 1 0.190299 0.0172044 0.00725638 0.00620497 -0.000439563 3.25437e-05 -4.57715e-11 -3.49765e-10 7.51783e-11 5e-05 1.46608e-10 
123 1 0.184257 0.0174138 0.00723327 0.0061593 -0.000123054 0.000300951 -1.554e-10 5.28319e-11 -3.15235e-11 5e-05 1.46608e-10 
124 1 0.19032 0.017283 0.00719786 0.00624978 -0.000374695 9.667e-05 -2.54415e-10 3.22596e-12 -4.21798e-11 5e-05 1.46608e-10 
125 1 0.190623 0.0187015 0.0068409 0.00561543 -0.000311714 -0.00014742 -1.20889e-10 -2.15266e-11 4.57036e-11 5e-05 1.46608e-10 
126 1 0.190237 0.0169695 0.00743283 0.00605949 -0.000445073 2.50775e-05 -2.77071e-10 -2.0498e-10 1.54586e-10 5e-05 1.46608e-10 
127 1 0.184797 0.0178144 0.00701782 0.00570086 -0.000320699 3.55459e-05 -2.80927e-10 -9.94359e-11 2.04193e-11 5e-05 1.46608e-10 
128 1 0.190278 0.017126 0.00731529 0.00619994 -0.000442043 1.51607e-05 4.9937e-10 -1.38819e-10 4.19443e-11 5e-05 1.46608e-10 
129 1 0.190446 0.0178405 0.00702455 0.00580063 -0.000199344 0.000176848 -4.37885e-11 -1.6254e-10 1.95306e-11 5e-05 1.46608e-10 
131 1 0.184681 0.0177002 0.00708372 0.00581639 -0.000184782 -3.85936e-05 -3.30606e-10 9.01288e-11 -3.46728e-11 5e-05 1.46608e-10 
132 1 0.190541 0.0178721 0.00701869 0.00581216 -0.000246827 0.000188766 1.44897e-10 1.1727e-10 -2.04273e-11 5e-05 1.46608e-10 
133 1 0.19031 0.0176192 0.00707695 0.00619889 -0.000306133 0.000219868 3.36156e-10 1.72553e-11 8.94825e-11 5e-05 1.46608e-10 
134 1 0.190258 0.0170478 0.00737406 0.00612295 -0.000455081 2.92963e-05 5.62151e-11 -1.62795e-10 1.13e-10 5e-05 1.46608e-10 
135 1 0.189666 0.0152341 0.00900402 0.00563878 -0.000248322 7.06695e-05 4.67389e-11 1.37446e-10 -2.44519e-10 5e-05 1.46608e-10 
136 1 0.184516 0.0186084 0.00687024 0.00563514 -0.000117162 -6.29387e-05 8.10676e-11 1.32502e-10 -4.56837e-11 5e-05 1.46608e-10 
137 1 0.189962 0.0162412 0.00798403 0.00544962 -0.000216891 -0.000115979 -1.68313e-10 5.7512e-12 -3.4906e-11 5e-05 1.46608e-10 
138 1 0.190391 0.0179996 0.00698353 0.00570559 -0.00018992 0.000172613 1.43116e-10 2.54227e-10 -3.45248e-11 5e-05 1.46608e-10 
140 1 0.19048 0.0175846 0.00708929 0.00602837 -0.000222657 0.000188097 -1.18625e-10 -1.26763e-10 7.03742e-11 5e-05 1.46608e-10 
141 1 0.184513 0.0181541 0.00690569 0.00583451 -0.000202116 0.00011847 5.40821e-11 -1.77979e-10 9.19392e-11 5e-05 1.46608e-10 
142 1 0.184235 0.0173265 0.00727687 0.00612632 -0.000132334 0.00030839 -5.26155e-11 6.24191e-12 -9.39697e-11 5e-05 1.46608e-10 
143 1 0.183713 0.0153533 0.0088027 0.00544307 0.000254293 0.000153732 -4.45128e-10 3.08102e-10 -6.20596e-10 5e-05 1.46608e-10 
144 1 0.184361 0.0178491 0.00701065 0.00579454 -0.000105788 0.000136151 1.06727e-11 8.02352e-11 1.14176e-10 5e-05 1.46608e-10 
147 1 0.184574 0.018447 0.00688066 0.00564987 -0.000126573 1.33705e-05 -2.36053e-10 -1.10057e-10 -4.01474e-11 5e-05 1.46608e-10 
148 1 0.184319 0.0169472 0.00747311 0.0060608 -0.000154107 0.000316961 -1.53156e-10 -2.18688e-10 1.01856e-10 5e-05 1.46608e-10 
149 1 0.190122 0.0168697 0.00751648 0.00599357 -0.000369035 -2.84753e-05 3.19261e-12 -1.85987e-10 1.76296e-10 5e-05 1.46608e-10 
150 1 0.0100679 0.0201683 0.00551526 8.38464e-15 1.24717e-15 -8.48743e-14 9.30578e-25 -2.74294e-23 -2.06795e-25 5e-05 1.46608e-10 
151 1 0.184192 0.0171517 0.00736408 0.00609918 -0.000146978 0.000314578 -8.14306e-11 9.09293e-11 -2.5014e-11 5e-05 1.46608e-10 
153 1 0.184555 0.0188052 0.00685788 0.00567426 -0.000176839 -5.64447e-05 -1.51175e-10 1.23919e-11 -1.71797e-11 5e-05 1.46608e-10 
154 1 0.184321 0.0176759 0.00710246 0.00620728 -0.0001014 0.000299558 -2.56739e-10 1.10101e-10 -1.29526e-10 5e-05 1.46608e-10 
155 1 0.184522 0.0174127 0.00724427 0.00614337 -0.000123123 0.000306451 -4.97785e-10 3.4409e-10 -2.18194e-10 5e-05 1.46608e-10 
156 1 0.184473 0.0179627 0.00694351 0.0058032 -0.00023558 -3.51618e-06 3.34508e-10 3.97979e-11 -5.05152e-10 5e-05 1.46608e-10 
157 1 0.0219312 0.0187687 0.00551176 -3.82214e-14 8.17126e-14 2.95889e-13 -3.39945e-22 2.40141e-22 -1.0774e-22 5e-05 1.46608e-10 
158 1 0.184704 0.018218 0.00690318 0.00582478 -0.000123734 0.00011865 -6.10679e-10 2.46917e-11 6.07754e-12 5e-05 1.46608e-10 
159 1 0.190754 0.0184742 0.00686236 0.00563022 -0.000325021 -8.60148e-06 1.4056e-10 5.17451e-11 4.69989e-11 5e-05 1.46608e-10 
160 1 0.184341 0.0177629 0.00705734 0.00577353 -0.000105744 0.000109434 2.19036e-11 2.20338e-10 2.9124e-10 5e-05 1.46608e-10 
162 1 0.184632 0.0187406 0.00686087 0.00571046 -0.000132739 -6.42986e-05 -3.69944e-10 3.92786e-11 5.60548e-11 5e-05 1.46608e-10 
164 1 0.184181 0.0167439 0.0075711 0.00599539 -0.000166403 0.000320602 -1.92255e-11 -2.4635e-10 1.2743e-10 5e-05 1.46608e-10 
165 1 0.184531 0.0178178 0.00702227 0.00575529 -0.000257055 6.18578e-06 1.23271e-10 3.37149e-10 -1.08147e-10 5e-05 1.46608e-10 
166 1 0.190489 0.0184757 0.00686657 0.00559548 -0.000204134 0.000173441 1.2026e-10 1.95436e-10 -4.54786e-11 5e-05 1.46608e-10 
168 1 0.184245 0.0170061 0.00744023 0.006069 -0.000157228 0.000318393 -1.55294e-10 -1.31163e-10 5.62529e-11 5e-05 1.46608e-10 
169 1 0.184688 0.0185769 0.00687009 0.00567172 -0.000116281 -6.75329e-05 4.31361e-11 -9.30921e-11 -1.09895e-10 5e-05 1.46608e-10 
170 1 0.184606 0.0177585 0.00705326 0.00572397 -0.000253703 4.87699e-06 -2.52412e-11 2.89722e-10 -1.42122e-10 5e-05 1.46608e-10 
171 1 0.190371 0.0179044 0.00700692 0.00573388 -0.000200702 0.000175595 4.12628e-11 2.27168e-10 -4.7742e-11 5e-05 1.46608e-10 
172 1 0.184511 0.0177314 0.00707048 0.0057335 -0.000287382 1.23172e-05 2.11566e-10 4.67098e-10 -1.79751e-10 5e-05 1.46608e-10 
173 1 0.190656 0.0179987 0.0069895 0.00574069 -0.000259972 0.000190143 3.87282e-11 1.58403e-10 -4.26937e-11 5e-05 1.46608e-10 
174 1 0.184546 0.0175011 0.00719693 0.00664506 0.000147359 -0.000244043 -4.8645e-10 5.15013e-10 -2.3832e-10 5e-05 1.46608e-10 
175 1 0.178224 0.0172589 0.00724441 0.00616222 -0.00046769 2.07368e-06 1.68919e-11 1.35382e-10 3.20172e-11 5e-05 1.46608e-10 
177 1 0.184362 0.0171221 0.00738582 0.00609075 -0.000195697 0.000339552 -2.2392e-10 2.76147e-10 -1.49944e-10 5e-05 1.46608e-10 
178 1 0.184288 0.0171809 0.00735302 0.00613581 -0.000147122 0.000315918 -3.96906e-10 1.16594e-10 -7.07379e-11 5e-05 1.46608e-10 
179 1 0.184374 0.0175304 0.00717861 0.00617536 -0.000116344 0.000298474 -2.7e-10 2.80971e-10 3.15925e-11 5e-05 1.46608e-10 
181 1 0.184649 0.0183813 0.00688678 0.00566972 -0.000126183 0.000127908 -1.99399e-10 -3.04033e-11 7.1373e-11 5e-05 1.46608e-10 
182 1 0.190332 0.0177141 0.00705368 0.00603829 -0.000272097 0.000199479 -8.37077e-11 1.36377e-10 -1.30462e-11 5e-05 1.46608e-10 
183 1 0.184586 0.0176729 0.00710105 0.00572831 -0.00030131 2.81351e-05 1.0857e-10 3.8307e-10 -1.24085e-10 5e-05 1.46608e-10 
184 1 0.190384 0.0175548 0.00709467 0.00619168 -0.00026806 0.000202241 1.22365e-10 -1.36115e-10 1.43619e-11 5e-05 1.46608e-10 
186 1 0.18417 0.0170643 0.00740768 0.00607017 -0.00016101 0.000320518 -6.84292e-11 -4.02182e-12 -2.52126e-11 5e-05 1.46608e-10 
187 1 0.190224 0.0172591 0.00721985 0.0062176 -0.000368429 6.46595e-05 2.77064e-11 -3.23153e-10 -2.9536e-10 5e-05 1.46608e-10 
188 1 0.190353 0.0170706 0.00735242 0.00616214 -0.000484338 4.7423e-05 1.2733e-10 -1.76942e-10 1.14621e-10 5e-05 1.46608e-10 
189 1 0.190561 0.0179673 0.0069953 0.00578704 -0.00023006 0.000182956 2.28676e-10 2.61441e-10 -5.03205e-11 5e-05 1.46608e-10 
190 1 0.178514 0.0185922 0.00694247 0.00553737 -0.000221582 0.000207937 -1.58044e-10 -4.5327e-11 1.32823e-11 5e-05 1.46608e-10 
191 1 0.190394 0.017227 0.00723491 0.00623484 -0.000452984 1.60616e-05 -2.46733e-10 1.5313e-10 2.27256e-10 5e-05 1.46608e-10 
192 1 0.184492 0.0176456 0.00711834 0.00564111 -0.000239902 -2.69839e-06 1.00105e-10 4.41743e-10 -1.0955e-10 5e-05 1.46608e-10 
193 1 0.190554 0.0175194 0.00710721 0.00614709 -0.000187617 0.000180489 -2.57933e-10 2.08362e-10 -5.30679e-11 5e-05 1.46608e-10 
194 1 0.161461 0.0182058 0.00533758 1.61483e-15 -1.10042e-14 8.66679e-14 2.30544e-23 4.24447e-23 3.92911e-24 5e-05 1.46608e-10 
195 1 0.184684 0.0181204 0.006912 0.00604294 -0.000182416 0.000131804 -1.98828e-10 -5.18283e-11 1.9032e-11 5e-05 1.46608e-10 
196 1 0.18408 0.016306 0.00778996 0.00560715 -0.000103102 0.000270842 -6.36689e-11 -3.37283e-10 9.5344e-11 5e-05 1.46608e-10 
197 1 0.178289 0.0175403 0.00716346 0.00614004 -0.000457976 3.49492e-06 2.05281e-11 4.23051e-11 -1.42344e-11 5e-05 1.46608e-10 
198 1 0.184536 0.0187066 0.00686407 0.00566874 -9.44144e-05 -5.83229e-05 1.30559e-10 -1.54315e-10 5.14364e-12 5e-05 1.46608e-10 
199 1 0.184436 0.0182168 0.00689836 0.00586362 -0.000156264 0.000124567 -3.85318e-10 -7.78031e-10 -2.42817e-10 5e-05 1.46608e-10 
201 1 0.184063 0.0166275 0.00762571 0.00597619 -2.59299e-05 0.000241888 4.91932e-10 -2.5667e-10 1.49063e-10 5e-05 1.46608e-10 
202 1 0.184568 0.0179909 0.00692568 0.00587194 -0.000224098 -2.64014e-06 7.63371e-10 -2.3221e-10 -1.03843e-10 5e-05 1.46608e-10 
203 1 0.190038 0.0165558 0.00774939 0.00584421 -0.000304028 -6.67324e-05 1.84373e-10 -9.32687e-11 -1.09446e-12 5e-05 1.46608e-10 
204 1 0.18377 0.0154971 0.00854557 0.00563827 0.000243891 0.000200462 1.81326e-10 1.17396e-10 -1.13076e-10 5e-05 1.46608e-10 
205 1 0.184645 0.0179307 0.00695765 0.00579334 -0.000286367 5.2829e-05 8.68265e-11 -2.28635e-10 -9.20816e-11 5e-05 1.46608e-10 
206 1 0.18414 0.0165688 0.00765859 0.00585724 -0.000150478 0.000306471 -3.25136e-11 -2.80318e-10 1.17359e-10 5e-05 1.46608e-10 
207 1 0.184267 0.0170935 0.00739663 0.00608038 -0.000152633 0.000316755 -2.0684e-10 -6.81252e-12 1.05894e-12 5e-05 1.46608e-10 
208 1 0.184455 0.0178768 0.00699143 0.00579652 -0.00021575 -1.471e-05 7.00547e-10 2.09007e-10 -3.01702e-10 5e-05 1.46608e-10 
209 1 0.181151 0.0172011 0.00721925 0.00597896 0.000991083 -0.000268955 -8.82719e-13 7.87135e-13 -4.34207e-13 5e-05 1.46608e-10 
210 1 0.190267 0.0174307 0.00712742 0.00625834 -0.000295514 0.00021357 -1.0294e-10 -2.82892e-10 -4.34655e-10 5e-05 1.46608e-10 
211 1 0.190203 0.0171808 0.0072786 0.00619908 -0.000416191 2.52179e-06 4.09755e-10 -1.2762e-10 7.70901e-11 5e-05 1.46608e-10 
212 1 0.184588 0.0180882 0.00691328 0.00579595 -0.000254234 0.000125046 4.72348e-10 -1.88642e-11 4.00154e-11 5e-05 1.46608e-10 
213 1 0.190525 0.0182214 0.00693096 0.0057935 -0.00023128 0.000184679 -1.70929e-10 -4.92657e-11 -4.43271e-12 5e-05 1.46608e-10 
214 1 0.190141 0.0169461 0.00745489 0.00602887 -0.000382271 -2.26397e-05 -5.15784e-11 -6.58972e-11 8.75519e-11 5e-05 1.46608e-10 
215 1 0.178495 0.0184953 0.00695743 0.00545125 -0.00020402 0.000201756 -1.13709e-10 1.58538e-11 -2.09056e-11 5e-05 1.46608e-10 
216 1 0.184549 0.0179051 0.00697357 0.0058124 -0.000206971 -2.5403e-05 1.09951e-09 -2.67488e-11 1.60928e-10 5e-05 1.46608e-10 
217 1 0.190528 0.0186685 0.00684532 0.00562689 -0.000294092 9.11065e-05 1.74815e-11 3.91468e-11 -1.29455e-10 5e-05 1.46608e-10 
218 1 0.183868 0.0158365 0.00819527 0.00538676 -0.00018486 -0.000117959 9.00801e-11 6.48428e-11 -7.01877e-11 5e-05 1.46608e-10 
219 1 0.190083 0.0167109 0.0076314 0.0059381 -0.000338133 -4.79537e-05 -9.14714e-11 -1.93126e-10 1.5042e-10 5e-05 1.46608e-10 
220 1 0.184663 0.018022 0.00692088 0.00577713 -0.000268572 0.000123468 3.12876e-10 -5.13509e-10 -1.48279e-10 5e-05 1.46608e-10 
221 1 0.244309 0.0176586 0.00702752 0.00629862 -3.3599e-05 1.08886e-05 9.80118e-13 9.54351e-13 -4.03751e-13 5e-05 1.46608e-10 
222 1 0.1906 0.0181577 0.00694853 0.00577396 -0.000247607 0.000188464 4.53987e-11 2.80967e-11 -1.62769e-12 5e-05 1.46608e-10 
223 1 0.184416 0.0177045 0.00708841 0.00570746 -0.000193091 2.81187e-05 3.11736e-10 5.31028e-10 -1.28321e-10 5e-05 1.46608e-10 
224 1 0.0995564 0.0181961 0.00769477 -0.0295275 0.0104898 -0.00128572 4.86237e-10 -2.15206e-10 3.24821e-13 5e-05 1.46608e-10 
225 1 0.190415 0.0173069 0.00717821 0.00625351 -0.000362522 0.000129378 -1.0706e-11 2.03483e-10 1.24697e-10 5e-05 1.46608e-10 
226 1 0.184214 0.0172391 0.00732047 0.00611691 -0.000142101 0.000312866 1.34794e-10 1.01751e-10 -2.13396e-11 5e-05 1.46608e-10 
227 1 0.178434 0.0182049 0.00700212 0.00568212 -0.000279203 0.000220459 -4.91108e-11 4.59258e-11 9.17436e-12 5e-05 1.46608e-10 
228 1 0.178246 0.0173527 0.00721743 0.00615711 -0.000467138 3.64787e-06 -6.50106e-11 -4.39018e-12 -1.63836e-11 5e-05 1.46608e-10 
229 1 0.184629 0.0182833 0.00689564 0.00568456 -0.000167296 0.000124352 -2.972e-10 2.00466e-11 1.80442e-10 5e-05 1.46608e-10 
230 1 0.184024 0.016452 0.00771347 0.00556824 -3.2552e-05 0.000237676 5.81819e-10 -9.71979e-10 5.46023e-10 5e-05 1.46608e-10 
231 1 0.178203 0.0171651 0.00727139 0.00618062 -0.000457028 8.46798e-06 6.90759e-11 1.94467e-10 3.27435e-11 5e-05 1.46608e-10 
232 1 0.184416 0.0181194 0.00690717 0.00583358 -0.000139241 0.000118976 -9.94317e-11 -2.15445e-10 8.29608e-11 5e-05 1.46608e-10 
234 1 0.190466 0.0179359 0.00700111 0.00573102 -0.00017792 0.00016876 1.38766e-10 -6.00922e-10 1.62446e-10 5e-05 1.46608e-10 
235 1 0.184625 0.0178449 0.00700504 0.00573827 -0.00028248 1.60849e-05 -8.53847e-11 1.16112e-10 -8.45387e-11 5e-05 1.46608e-10 
236 1 0.183985 0.0162824 0.00781169 0.00560208 -0.000122375 0.000170876 -6.67322e-11 -3.21165e-10 6.34661e-12 5e-05 1.46608e-10 
237 1 0.183946 0.0161279 0.00793244 0.00558988 -0.000295256 -0.000139492 -2.8244e-10 -1.27644e-10 3.08545e-10 5e-05 1.46608e-10 
239 1 0.178038 0.016522 0.00768661 0.0055338 -0.000147224 0.000343369 7.57488e-11 -5.21278e-10 5.53408e-10 5e-05 1.46608e-10 
240 1 0.178057 0.0165947 0.00762085 0.00579917 -0.000196266 0.000403332 5.45195e-10 4.15254e-10 -3.38129e-10 5e-05 1.46608e-10 
241 1 0.178118 0.0168127 0.00742378 0.00606959 -0.000292917 0.000490506 5.8594e-10 -4.23502e-10 5.96932e-10 5e-05 1.46608e-10 
242 1 0.184278 0.0175012 0.00718967 0.00617853 -0.000116504 0.000286704 -1.46872e-10 1.8206e-10 -2.53068e-11 5e-05 1.46608e-10 
244 1 0.178077 0.0166674 0.0075551 0.00604423 -0.00024881 0.000468785 -3.39244e-10 5.86408e-10 -6.08161e-10 5e-05 1.46608e-10 
246 1 0.178181 0.0170713 0.00729865 0.00619349 -0.000434554 6.81697e-05 -1.89874e-10 4.48686e-11 8.96653e-11 5e-05 1.46608e-10 
247 1 0.184818 0.0183479 0.00689304 0.00577993 -1.80144e-05 0.000104432 -2.91888e-10 -5.72569e-10 7.65315e-11 5e-05 1.46608e-10 
248 1 0.184043 0.0165398 0.00766959 0.00559129 2.47374e-05 0.000208221 -4.18409e-10 1.14262e-09 -6.16682e-10 5e-05 1.46608e-10 
249 1 0.178474 0.0183984 0.00697233 0.00572359 -0.000265235 0.000220715 -1.62983e-10 -3.43484e-10 -5.34201e-11 5e-05 1.46608e-10 
250 1 0.184341 0.0170348 0.00742943 0.00600085 -0.000193973 0.000334889 -1.8074e-10 2.69056e-10 -1.47952e-10 5e-05 1.46608e-10 
251 1 0.19006 0.0166332 0.00768988 0.00590114 -0.000323501 -5.61182e-05 1.59161e-10 -1.21065e-10 1.40135e-10 5e-05 1.46608e-10 
252 1 0.178333 0.017728 0.00710949 0.00612598 -0.000454029 8.23666e-07 5.21615e-12 6.32863e-11 -1.3613e-11 5e-05 1.46608e-10 
253 1 0.178533 0.0186892 0.00692752 0.00558416 -0.000220913 0.000209033 -4.98124e-11 -1.448e-10 1.41498e-11 5e-05 1.46608e-10 
254 1 0.178159 0.0169783 0.00732808 0.00617447 -0.000414242 0.000152186 -1.17576e-10 -1.71623e-10 2.3432e-10 5e-05 1.46608e-10 
255 1 0.184379 0.0179344 0.00696167 0.00579689 -0.000120381 0.000137607 2.32235e-10 -9.50033e-11 1.68279e-10 5e-05 1.46608e-10 
256 1 0.18447 0.0175592 0.00716671 0.00640048 -0.000166365 -0.000198006 -1.941e-10 1.56897e-10 -1.36945e-09 5e-05 1.46608e-10 
257 1 0.184427 0.0173843 0.007255 0.00608042 -0.000177027 0.000329266 1.44697e-10 1.9196e-10 -9.19607e-11 5e-05 1.46608e-10 
258 1 0.184331 0.0173556 0.00726581 0.00617162 -0.00013216 0.000309121 -1.6272e-11 1.26298e-10 -8.18863e-11 5e-05 1.46608e-10 
259 1 0.178354 0.0178218 0.00708256 0.0060224 -0.0004269 8.17418e-06 3.83695e-11 3.93488e-12 -1.36401e-10 5e-05 1.46608e-10 