ITEM: TIMESTEP
11800000
ITEM: NUMBER OF ATOMS
287
ITEM: BOX BOUNDS ff ff ff
-0.02 0.43
-0.02 0.06
-0.02 0.07
ITEM: ATOMS id type x y z vx vy vz fx fy fz radius mass 
1 1 0.0816333 0.0163359 0.00783985 0.00562687 0.000167083 0.000283512 -9.04017e-11 7.49828e-11 -2.96941e-11 5e-05 1.46608e-10 
2 1 0.0820491 0.0173792 0.00736514 0.00597566 0.000176132 0.000300323 6.31762e-10 -3.5871e-10 2.2236e-10 5e-05 1.46608e-10 
3 1 0.0753818 0.0157033 0.00831032 0.00590993 0.000500407 -0.000684647 3.07497e-10 -3.59264e-11 5.10164e-10 5e-05 1.46608e-10 
4 1 0.0819431 0.0177601 0.00717517 0.00603276 0.000134741 0.000325695 1.25611e-10 1.10741e-10 -4.47757e-11 5e-05 1.46608e-10 
5 1 0.0815181 0.0162164 0.00789112 0.0056173 0.00017458 0.000304355 -7.4355e-11 -1.99987e-10 1.22825e-10 5e-05 1.46608e-10 
6 1 0.0876375 0.0167293 0.00760213 0.00542641 -0.00015358 0.000302971 6.12035e-12 2.65414e-11 -1.0533e-11 5e-05 1.46608e-10 
7 1 0.0816957 0.0170156 0.00751712 0.00549271 0.00024575 0.000236021 -3.39376e-12 -2.58474e-11 1.69476e-11 5e-05 1.46608e-10 
8 1 0.0814182 0.0158146 0.00816038 0.00586655 1.66261e-05 -9.31834e-05 -5.73163e-10 1.05229e-10 -9.64416e-10 5e-05 1.46608e-10 
9 1 0.0879215 0.017984 0.00707014 0.00644151 0.00122563 -0.00095726 1.0503e-12 3.57792e-13 -2.4548e-13 5e-05 1.46608e-10 
10 1 0.0816367 0.0167489 0.00764153 0.0054926 0.000206923 0.000254401 -7.6657e-11 -1.0692e-10 4.52321e-11 5e-05 1.46608e-10 
11 1 0.0820946 0.0175671 0.00727775 0.00602356 0.000275608 0.000255402 -2.11899e-10 -4.06849e-11 2.8782e-12 5e-05 1.46608e-10 
12 1 0.0755805 0.01647 0.00770304 0.00565915 0.000394608 -0.000672821 -3.4453e-10 4.98232e-10 1.49956e-10 5e-05 1.46608e-10 
13 1 0.0814981 0.0161271 0.0079315 0.00563603 0.000319008 0.000212337 4.7615e-11 1.57948e-10 -3.8853e-11 5e-05 1.46608e-10 
14 1 0.0753026 0.0154848 0.00863564 0.00644626 0.000610564 -0.000559363 -2.92134e-11 -9.07624e-11 1.64021e-10 5e-05 1.46608e-10 
15 1 0.0818329 0.0172241 0.00742573 0.00589112 0.00018921 0.00028957 -1.03355e-10 8.03597e-11 -6.42433e-11 5e-05 1.46608e-10 
16 1 0.0752808 0.015431 0.00871712 0.00639526 0.000613207 -0.000567563 -1.06727e-10 -1.9993e-10 3.01426e-10 5e-05 1.46608e-10 
17 1 0.0816171 0.0166601 0.00768298 0.00545522 0.000200713 0.000255364 3.0929e-10 1.36006e-10 -4.08285e-11 5e-05 1.46608e-10 
18 1 0.0877778 0.0173667 0.00734917 0.00579481 -0.000283017 0.000372087 1.07221e-12 -6.56175e-12 -4.45852e-12 5e-05 1.46608e-10 
19 1 0.0814781 0.0160391 0.00797463 0.00549943 -0.000268095 -0.00105519 -2.15639e-11 -1.07885e-10 -1.25828e-09 5e-05 1.46608e-10 
21 1 0.0816132 0.0162471 0.00788124 0.00562023 0.000173982 0.000280073 -1.18026e-10 1.0139e-10 -3.67516e-11 5e-05 1.46608e-10 
22 1 0.0817371 0.017193 0.0074345 0.00585136 0.000221864 0.000271476 -3.19192e-11 -1.33405e-10 7.56292e-11 5e-05 1.46608e-10 
23 1 0.0757526 0.0168196 0.00746276 0.00577314 0.000561699 -0.000212382 -1.36514e-10 -6.8388e-11 -7.16358e-11 5e-05 1.46608e-10 
24 1 0.0878409 0.0176394 0.0072411 0.00589336 -0.000298043 0.000382373 -5.05912e-12 -2.78117e-11 1.18547e-11 5e-05 1.46608e-10 
25 1 0.0816761 0.0169267 0.0075586 0.00551529 0.000350221 0.000187248 7.1668e-13 -4.70903e-12 2.42541e-12 5e-05 1.46608e-10 
26 1 0.0877159 0.0170939 0.00745738 0.00542196 -0.000227427 0.000332896 2.35037e-12 4.18456e-12 -1.31145e-12 5e-05 1.46608e-10 
27 1 0.0756578 0.0167918 0.00747879 0.00581437 -0.000715227 -0.0023065 -2.91258e-10 -6.20197e-11 -1.38722e-09 5e-05 1.46608e-10 
28 1 0.0819336 0.0176693 0.00721823 0.00601247 0.000233126 0.000266457 -5.43874e-11 -5.51917e-11 5.84595e-11 5e-05 1.46608e-10 
29 1 0.081458 0.0159541 0.00802346 0.00573395 4.90143e-05 -4.33046e-06 -1.47022e-09 -8.00302e-10 -8.26813e-10 5e-05 1.46608e-10 
30 1 0.0819706 0.017433 0.00733423 0.0059833 0.000180176 0.000300728 4.09817e-10 -3.29506e-10 1.83995e-10 5e-05 1.46608e-10 
31 1 0.0817163 0.0171043 0.00747581 0.00580703 0.000213284 0.000271816 -4.41917e-12 -5.47189e-11 2.39815e-11 5e-05 1.46608e-10 
32 1 0.0818121 0.0171355 0.00746702 0.00583834 0.000203224 0.000277594 -2.65217e-11 -4.20202e-11 2.33175e-11 5e-05 1.46608e-10 
33 1 0.087657 0.0168205 0.00756594 0.00543714 -0.000230504 0.000334729 -1.37707e-12 2.1773e-12 -8.75505e-13 5e-05 1.46608e-10 
34 1 0.0815976 0.0165712 0.00772444 0.00546289 0.000204847 0.000253862 -1.04307e-10 -2.38649e-11 5.92692e-12 5e-05 1.46608e-10 
35 1 0.0817913 0.0170468 0.00750831 0.00579587 0.000203342 0.000275908 5.71251e-11 -2.47739e-12 6.02161e-12 5e-05 1.46608e-10 
36 1 0.0879768 0.0182199 0.00695167 0.00655719 0.00119512 -0.000948747 7.48107e-13 3.14542e-13 -2.1169e-13 5e-05 1.46608e-10 
37 1 0.0817511 0.0168692 0.0075911 0.00551113 0.000346546 0.0001888 2.90983e-11 2.20098e-11 -8.73637e-12 5e-05 1.46608e-10 
38 1 0.0819077 0.0171664 0.00745833 0.00586364 0.000151632 0.000305277 -1.39107e-10 7.67687e-11 -4.56412e-11 5e-05 1.46608e-10 
39 1 0.0878661 0.0177471 0.00718917 0.00632758 0.00126611 -0.000970745 1.42712e-12 6.63083e-13 -4.21008e-13 5e-05 1.46608e-10 
41 1 0.0815582 0.0163935 0.00780733 0.0056145 0.000169624 0.000280037 -4.89729e-11 -1.25593e-10 5.29446e-11 5e-05 1.46608e-10 
42 1 0.0817579 0.0172817 0.00739321 0.00591001 0.00023869 0.000269191 5.59526e-11 2.73404e-10 -1.38341e-10 5e-05 1.46608e-10 
44 1 0.0819285 0.0172551 0.00741704 0.00594044 0.000141928 0.000314168 1.02546e-10 8.01964e-11 -5.09813e-12 5e-05 1.46608e-10 
45 1 0.0876766 0.0169116 0.00752975 0.00543289 -0.000230916 0.000334713 1.23887e-11 3.51022e-12 -1.50291e-12 5e-05 1.46608e-10 
46 1 0.0877568 0.0172758 0.00738519 0.00576062 -0.000280425 0.000369459 6.60669e-13 -3.16839e-12 2.14104e-12 5e-05 1.46608e-10 
47 1 0.0815781 0.0164823 0.00776591 0.00545512 0.000206227 0.000252546 -2.01223e-10 -1.52087e-10 5.88214e-11 5e-05 1.46608e-10 
48 1 0.0817995 0.0174591 0.00731064 0.00597695 0.000194325 0.0002963 2.92724e-10 3.35735e-10 -1.30079e-10 5e-05 1.46608e-10 
49 1 0.0877358 0.0171849 0.00742122 0.00572698 -0.000277704 0.000366589 6.30834e-13 2.27546e-12 1.40598e-12 5e-05 1.46608e-10 
50 1 0.0818636 0.0177394 0.00723225 0.00600965 0.000194255 0.000269368 -4.74695e-11 -3.3874e-10 1.47226e-10 5e-05 1.46608e-10 
51 1 0.081842 0.017644 0.00725332 0.00599617 0.000196849 0.000284273 -3.59033e-11 -2.40543e-10 -1.23895e-11 5e-05 1.46608e-10 
52 1 0.0755615 0.0163916 0.00776205 0.0056482 0.000418584 -0.0006997 3.16237e-10 -1.35348e-12 -3.06937e-10 5e-05 1.46608e-10 
53 1 0.0877988 0.0174576 0.00731314 0.00582813 -0.000287113 0.00037495 3.62381e-13 8.34965e-13 1.4591e-12 5e-05 1.46608e-10 
54 1 0.0815929 0.0161581 0.00792274 0.00560943 0.000154365 0.0002886 -1.16598e-10 -2.26148e-10 4.92664e-10 5e-05 1.46608e-10 
55 1 0.0753433 0.0155925 0.00847214 0.00591108 0.000663461 -0.000646338 2.15324e-10 -2.24523e-10 2.00107e-10 5e-05 1.46608e-10 
56 1 0.0817708 0.0169581 0.00754963 0.00549533 0.000247775 0.000235307 6.42565e-11 3.71693e-11 -1.73871e-11 5e-05 1.46608e-10 
57 1 0.0876963 0.0170027 0.00749356 0.00542751 -0.000229043 0.000333615 -1.01932e-11 4.86665e-12 -2.51837e-12 5e-05 1.46608e-10 
59 1 0.081826 0.0168114 0.00762368 0.00550039 0.000246697 0.000235944 6.07818e-11 -2.56967e-10 1.36466e-10 5e-05 1.46608e-10 
60 1 0.0818459 0.0169003 0.00758227 0.00555463 0.000232254 0.00024638 -2.0012e-11 -1.67547e-10 8.06801e-11 5e-05 1.46608e-10 
61 1 0.0815382 0.0163047 0.00784872 0.00561411 0.000164434 0.000285175 6.15944e-11 -5.13504e-11 4.9219e-11 5e-05 1.46608e-10 
62 1 0.0819496 0.017344 0.00737564 0.00598976 0.000119171 0.00032925 4.2176e-10 -1.11506e-10 7.73887e-11 5e-05 1.46608e-10 
63 1 0.0818952 0.0174902 0.00730187 0.00600317 0.000198741 0.000291849 2.42256e-10 -2.50315e-10 1.09258e-10 5e-05 1.46608e-10 
64 1 0.0878199 0.0175485 0.00727712 0.00586078 -0.000292702 0.000378888 -1.22931e-12 -5.64402e-12 3.37943e-12 5e-05 1.46608e-10 
65 1 0.0756751 0.0164932 0.00767977 0.00567448 0.000358398 -0.000401355 3.20378e-10 -4.22349e-10 -2.69155e-11 5e-05 1.46608e-10 
66 1 0.0756168 0.0162577 0.00785673 0.00573692 0.000347786 -0.000648855 6.74031e-11 2.91214e-10 -2.59489e-10 5e-05 1.46608e-10 
67 1 0.082075 0.0174721 0.00732212 0.00594075 0.000202567 0.000285813 5.89498e-10 -3.33601e-10 2.04586e-10 5e-05 1.46608e-10 
68 1 0.0820115 0.0176149 0.0072494 0.00598286 0.000211158 0.000281378 -6.25156e-11 1.6575e-10 -1.29512e-10 5e-05 1.46608e-10 
69 1 0.0816921 0.0166025 0.00771548 0.00544833 0.000185503 0.0002621 2.4081e-10 -7.65521e-11 5.45595e-11 5e-05 1.46608e-10 
70 1 0.0878936 0.0178649 0.00713001 0.0063843 0.00124641 -0.000964254 1.22927e-12 3.28122e-13 -2.2255e-13 5e-05 1.46608e-10 
71 1 0.0753242 0.0155385 0.00855414 0.0063707 0.000618526 -0.000578813 -1.84604e-10 -4.37977e-11 2.97089e-11 5e-05 1.46608e-10 
72 1 0.081995 0.017524 0.00729202 0.00594277 0.000184188 0.000294771 4.84731e-10 -3.36176e-10 2.22063e-10 5e-05 1.46608e-10 
73 1 0.0816564 0.0168378 0.00760008 0.00548937 0.000213759 0.00025145 3.92898e-11 -1.30518e-10 7.29629e-11 5e-05 1.46608e-10 
74 1 0.0818536 0.0173135 0.00738583 0.00593473 0.000168546 0.000304184 5.45567e-11 1.39345e-10 -3.8714e-11 5e-05 1.46608e-10 
76 1 0.0758701 0.017331 0.00717339 0.00574845 0.000522808 -0.000311017 -1.50755e-10 -4.20287e-11 -1.70977e-10 5e-05 1.46608e-10 
77 1 0.0821054 0.0183854 0.00692016 0.00644348 0.000110548 1.87003e-05 2.15905e-10 -3.48941e-11 -2.08816e-10 5e-05 1.46608e-10 
78 1 0.0754012 0.0157679 0.00823656 0.00595149 0.000427242 -0.000692059 1.26078e-10 -1.14771e-10 4.03883e-10 5e-05 1.46608e-10 
79 1 0.0755998 0.0165485 0.00764404 0.00571575 0.000386045 -0.000659739 5.65126e-10 1.61549e-10 -7.66301e-10 5e-05 1.46608e-10 
80 1 0.0819106 0.0179332 0.0070899 0.00616903 0.000169394 0.000317149 6.01504e-11 8.89562e-11 -4.066e-12 5e-05 1.46608e-10 
81 1 0.0755417 0.0163133 0.00782101 0.00578472 0.000389988 -0.000682239 1.17927e-10 3.91423e-10 -3.16161e-10 5e-05 1.46608e-10 
82 1 0.0756774 0.0168767 0.00742968 0.00576582 0.000482908 -0.00031605 1.24571e-10 2.57902e-10 1.1135e-10 5e-05 1.46608e-10 
83 1 0.0756924 0.0161525 0.0079289 0.00567955 0.000295393 -0.00060815 6.53331e-11 -5.2193e-10 4.11121e-10 5e-05 1.46608e-10 
84 1 0.0879492 0.0181021 0.00701086 0.00649899 0.00120861 -0.000952119 9.15546e-13 2.98534e-13 -1.82364e-13 5e-05 1.46608e-10 
85 1 0.0754965 0.0157877 0.00821069 0.00601976 0.000374002 -0.000688043 -4.27289e-10 2.00334e-10 4.2779e-11 5e-05 1.46608e-10 
86 1 0.0819172 0.0175786 0.00726076 0.00598543 0.000202774 0.000289953 1.93802e-10 -1.99585e-10 4.76083e-11 5e-05 1.46608e-10 
87 1 0.0818064 0.0167226 0.00766513 0.00552891 0.000241288 0.000240873 -2.31646e-11 -3.24952e-10 1.42356e-10 5e-05 1.46608e-10 
88 1 0.0819652 0.0181661 0.00698145 0.00626979 0.000129095 0.000350006 5.26059e-11 2.09555e-10 -7.10177e-11 5e-05 1.46608e-10 
89 1 0.0819314 0.0180218 0.00704861 0.00621489 0.000182113 0.00031016 2.62648e-10 -2.05509e-11 1.31202e-10 5e-05 1.46608e-10 
90 1 0.0820278 0.01729 0.00740665 0.00599508 9.58227e-05 0.00034024 4.13024e-10 -3.17541e-10 1.8371e-10 5e-05 1.46608e-10 
91 1 0.0756191 0.0166275 0.00758591 0.005538 -0.000283039 -0.00164763 -5.24005e-10 -3.3056e-10 -5.56829e-10 5e-05 1.46608e-10 
92 1 0.0820352 0.0178098 0.00715726 0.00608384 0.000101517 0.000342683 -5.68743e-10 -1.25162e-10 -6.15878e-12 5e-05 1.46608e-10 
93 1 0.0820394 0.0181077 0.00701432 0.00626706 0.000107795 0.000348943 -1.23455e-11 2.06372e-10 -1.45174e-11 5e-05 1.46608e-10 
94 1 0.082135 0.0181372 0.00700631 0.0062694 8.82938e-05 0.000362847 -2.01968e-11 1.173e-10 -5.4087e-11 5e-05 1.46608e-10 
95 1 0.0819093 0.0179293 0.00718982 0.00620643 0.000148268 0.000321609 2.27488e-10 -1.21669e-10 1.72947e-11 5e-05 1.46608e-10 
96 1 0.0820939 0.0178992 0.00711807 0.00617508 0.000105448 0.000347568 -2.78502e-11 -3.31265e-10 2.01376e-10 5e-05 1.46608e-10 
97 1 0.0755022 0.0161567 0.00793893 0.00555554 0.000434705 -0.000702917 2.14328e-10 1.71655e-10 -1.07636e-10 5e-05 1.46608e-10 
98 1 0.0819869 0.0182627 0.00696718 0.00627636 0.000136513 0.000357345 1.14377e-10 3.28577e-10 -3.17544e-10 5e-05 1.46608e-10 
99 1 0.0756559 0.0164147 0.00773858 0.00572318 0.000207045 -0.000574694 2.22978e-10 6.53359e-11 2.24477e-10 5e-05 1.46608e-10 
100 1 0.0819838 0.01711 0.00749036 0.00584962 0.000118214 0.000320658 -1.62092e-10 6.86614e-11 -4.0715e-11 5e-05 1.46608e-10 
101 1 0.075597 0.0161793 0.00791576 0.00564955 0.000342941 -0.000640705 -1.47366e-11 1.52436e-10 -6.17845e-11 5e-05 1.46608e-10 
102 1 0.0643568 0.0187248 0.00531097 4.34518e-15 1.04972e-14 8.29562e-14 -3.54757e-22 1.67427e-22 -7.23783e-24 5e-05 1.46608e-10 
103 1 0.24257 0.0191927 0.00520306 9.7161e-23 4.86658e-23 1.23839e-22 0 0 0 5e-05 1.46608e-10 
104 1 0.075924 0.0171458 0.00732131 0.00582839 0.000563249 -0.000223208 1.12112e-10 3.42363e-10 -1.79173e-10 5e-05 1.46608e-10 
105 1 0.0754627 0.016 0.00805684 0.00580026 0.000405308 -0.000701161 4.61626e-11 1.77482e-11 -6.5879e-11 5e-05 1.46608e-10 
106 1 0.0760086 0.0170959 0.00730242 0.00584213 0.000551162 -0.000188367 6.74396e-11 3.35504e-10 -1.51217e-10 5e-05 1.46608e-10 
107 1 0.0754219 0.0158437 0.00817466 0.00602187 0.000388097 -0.000697478 -5.76e-11 -1.45143e-10 2.21023e-10 5e-05 1.46608e-10 
108 1 0.0817314 0.0167802 0.00763258 0.00550813 0.000225868 0.000246461 4.59701e-11 -2.04543e-10 9.21926e-11 5e-05 1.46608e-10 
109 1 0.0818202 0.0175478 0.00726935 0.00600218 0.000192001 0.000296584 6.88726e-11 1.00611e-10 -8.22786e-11 5e-05 1.46608e-10 
110 1 0.0821994 0.0180699 0.00704278 0.00625078 6.31711e-05 0.00037084 -6.98495e-11 6.68794e-11 -8.22277e-11 5e-05 1.46608e-10 
111 1 0.08203 0.0184507 0.00691378 0.0062894 -9.63039e-05 -0.000584141 4.60294e-11 -1.2391e-10 -1.61514e-10 5e-05 1.46608e-10 
112 1 0.075522 0.016235 0.00787997 0.00570559 0.000403237 -0.000685986 4.30707e-10 2.9303e-10 -2.90285e-10 5e-05 1.46608e-10 
113 1 0.076303 0.0176009 0.00714308 0.00620535 0.000449461 -0.000338935 -1.47421e-10 7.65109e-11 -1.31344e-11 5e-05 1.46608e-10 
114 1 0.0758677 0.0168792 0.00742971 0.00581156 0.000572026 -0.000198321 -7.4891e-11 7.9853e-11 -5.93089e-11 5e-05 1.46608e-10 
115 1 0.0818744 0.0174015 0.00734317 0.00597023 0.000143965 0.00031727 2.08922e-10 1.13376e-11 3.62591e-11 5e-05 1.46608e-10 
116 1 0.0817118 0.0166914 0.00767403 0.00552224 0.000224108 0.000248616 2.13694e-10 -7.66198e-11 4.56841e-11 5e-05 1.46608e-10 
117 1 0.0815729 0.0160693 0.00796413 0.00553706 0.000178911 0.000275528 1.44519e-10 -1.52136e-10 -2.69181e-10 5e-05 1.46608e-10 
118 1 0.0753628 0.0156509 0.00839336 0.00578775 0.000605763 -0.000679466 3.4494e-10 -1.02595e-10 4.03748e-10 5e-05 1.46608e-10 
119 1 0.0818662 0.016989 0.00754091 0.00570371 0.000198655 0.000273065 1.17013e-10 -6.98879e-11 3.31982e-11 5e-05 1.46608e-10 
120 1 0.0814385 0.0158795 0.00808712 0.00560988 -0.000102521 -0.000197305 6.66718e-10 -2.84325e-10 -6.34684e-10 5e-05 1.46608e-10 
121 1 0.0813995 0.0157619 0.00824335 0.00588538 0.000262799 -0.000478821 1.28649e-10 3.94391e-10 -6.32819e-10 5e-05 1.46608e-10 
122 1 0.0822284 0.0181713 0.00699593 0.00628146 5.8516e-05 0.000376282 -1.30231e-10 -9.15694e-11 4.19496e-11 5e-05 1.46608e-10 
123 1 0.0755375 0.0159443 0.00809272 0.00581528 0.00041398 -0.000705182 -3.905e-11 2.85885e-10 -1.87876e-10 5e-05 1.46608e-10 
124 1 0.0820098 0.0179456 0.00709033 0.00618514 0.00013723 0.000333153 1.81264e-11 -9.34866e-11 -3.00962e-11 5e-05 1.46608e-10 
125 1 0.0815529 0.0159816 0.00800791 0.00560309 6.20995e-05 -1.42764e-05 2.54261e-09 5.88619e-11 1.15759e-10 5e-05 1.46608e-10 
126 1 0.0817787 0.0173704 0.00735192 0.0059407 0.000207787 0.00028615 9.86214e-11 3.99163e-10 -1.60371e-10 5e-05 1.46608e-10 
127 1 0.0754825 0.0160783 0.00799789 0.00559683 0.000434101 -0.000703582 7.62401e-10 1.12297e-10 -1.43907e-10 5e-05 1.46608e-10 
128 1 0.0818852 0.0178343 0.00720927 0.00606417 0.000178256 0.000291144 -1.21849e-10 -2.83113e-10 9.19637e-11 5e-05 1.46608e-10 
129 1 0.081954 0.0181175 0.00706814 0.00621481 0.000139575 0.000359992 2.51525e-10 9.82537e-11 -2.41916e-11 5e-05 1.46608e-10 
130 1 0.0757721 0.0169038 0.00741244 0.00577807 0.000567331 -0.000207703 -1.68279e-11 -6.92629e-11 -7.04992e-11 5e-05 1.46608e-10 
131 1 0.0756366 0.0163361 0.0077977 0.0056915 0.000474817 -0.000735639 -2.15866e-10 -8.0914e-11 -3.87773e-11 5e-05 1.46608e-10 
132 1 0.0819473 0.0178503 0.00713211 0.00611648 0.00014473 0.000326193 -3.01607e-10 9.55196e-11 -1.60167e-11 5e-05 1.46608e-10 
133 1 0.0817279 0.0163669 0.00783104 0.0056026 0.000313333 0.000210225 -3.22049e-10 4.44369e-10 -2.21972e-10 5e-05 1.46608e-10 
134 1 0.0818869 0.0170777 0.00749962 0.00580618 0.000173205 0.000291307 1.18341e-10 2.42843e-11 -4.94139e-12 5e-05 1.46608e-10 
135 1 0.0815323 0.0158963 0.008057 0.00605175 -4.2067e-05 5.06915e-05 5.0288e-10 -8.19916e-10 -2.05728e-10 5e-05 1.46608e-10 
136 1 0.0754766 0.0157208 0.00828231 0.00592342 0.000548237 -0.000490605 3.79304e-10 -1.06522e-10 5.99316e-10 5e-05 1.46608e-10 
137 1 0.0820509 0.0185474 0.0069281 0.0062432 -9.18498e-05 -0.0005892 -1.55956e-10 -2.63265e-10 -9.84691e-11 5e-05 1.46608e-10 
138 1 0.0816726 0.0165136 0.00775695 0.00548843 0.000198048 0.00025856 -8.37067e-11 1.60374e-10 -8.39897e-11 5e-05 1.46608e-10 
140 1 0.0821795 0.0183182 0.00692214 0.00642004 7.60751e-05 0.000381209 2.27973e-10 -2.83036e-11 -3.08654e-13 5e-05 1.46608e-10 
141 1 0.0755169 0.0158659 0.00815176 0.00615062 0.000469461 -0.000771589 -1.40967e-10 1.06949e-10 -7.35117e-11 5e-05 1.46608e-10 
142 1 0.0758871 0.0169634 0.00737936 0.00581842 0.000571309 -0.000205395 -9.88638e-11 1.38763e-10 -6.6155e-11 5e-05 1.46608e-10 
143 1 0.0754422 0.0159219 0.00811575 0.00599112 0.000378396 -0.000701697 -3.85775e-10 -1.67848e-10 2.06228e-10 5e-05 1.46608e-10 
144 1 0.075848 0.0167951 0.00748 0.00577209 0.000571123 -0.000199971 -9.14142e-11 2.06964e-12 -1.03209e-10 5e-05 1.46608e-10 
146 1 0.0757122 0.0162308 0.00786995 0.00570999 0.000276398 -0.000593475 3.04206e-11 -1.71536e-10 1.37834e-10 5e-05 1.46608e-10 
147 1 0.0754583 0.0156668 0.00836443 0.00585402 0.000549282 -0.000483536 -2.63297e-11 -9.50023e-11 3.97026e-10 5e-05 1.46608e-10 
148 1 0.0757361 0.0171277 0.00727637 0.00579653 0.000591984 -0.000202703 -3.10744e-11 1.37889e-11 -4.58702e-11 5e-05 1.46608e-10 
149 1 0.0821548 0.0182303 0.00696282 0.00630024 9.20501e-05 0.000364116 1.00633e-10 5.8734e-11 -1.5045e-11 5e-05 1.46608e-10 
150 1 0.0757512 0.0163876 0.00775199 0.00575245 0.000256344 -0.000581558 2.1232e-10 -4.70179e-11 -1.13051e-10 5e-05 1.46608e-10 
151 1 0.0760899 0.0171466 0.00727386 0.00585351 0.000542462 -0.000181548 1.26124e-10 2.87033e-10 -2.00234e-10 5e-05 1.46608e-10 
153 1 0.0755772 0.016101 0.00797472 0.00546569 0.000352504 -0.000634406 2.826e-10 -3.01302e-10 1.97501e-10 5e-05 1.46608e-10 
154 1 0.0758312 0.0171563 0.00726162 0.00583318 0.000578718 -0.00019402 -2.25426e-10 1.53144e-10 -6.83664e-11 5e-05 1.46608e-10 
155 1 0.0758896 0.0174289 0.0071681 0.00575362 0.00053818 -0.000307303 -6.78751e-10 -1.26073e-10 -4.74051e-11 5e-05 1.46608e-10 
156 1 0.0758114 0.0170723 0.00731205 0.00582897 0.00058107 -0.000195501 -7.67012e-11 1.39908e-10 -3.14813e-11 5e-05 1.46608e-10 
157 1 0.0219312 0.0187687 0.00551176 -3.82577e-14 8.17213e-14 2.95882e-13 -1.06011e-21 -4.91914e-22 -2.06795e-25 5e-05 1.46608e-10 
158 1 0.0759156 0.0172394 0.00728711 0.00582909 0.000585861 -0.000244069 1.31675e-10 1.9735e-10 -2.00257e-10 5e-05 1.46608e-10 
159 1 0.0820241 0.0177095 0.00720472 0.00605809 0.000165142 0.000313626 -2.75242e-10 -2.85523e-10 1.19225e-10 5e-05 1.46608e-10 
160 1 0.0757934 0.0173955 0.0071738 0.00579434 0.000559649 -0.000302778 5.10665e-10 -1.25237e-10 -2.01127e-10 5e-05 1.46608e-10 
162 1 0.0757557 0.0172119 0.00722606 0.00579093 0.000582268 -0.000208451 8.2753e-11 3.62376e-11 -4.61832e-11 5e-05 1.46608e-10 
164 1 0.0760704 0.0178509 0.00715086 0.00618626 0.000459962 -0.00033579 1.54198e-10 -9.90175e-11 1.32676e-12 5e-05 1.46608e-10 
165 1 0.0761654 0.0173753 0.00715447 0.00599447 0.00042266 -0.000327584 -2.11452e-10 4.91216e-10 5.12942e-11 5e-05 1.46608e-10 
166 1 0.0816877 0.016189 0.007914 0.00564441 0.000209631 0.000263026 -5.16358e-10 2.41689e-10 -1.45214e-10 5e-05 1.46608e-10 
167 1 0.0757321 0.0163091 0.00781099 0.00576707 0.000256887 -0.000581153 -5.86694e-11 -5.90373e-11 1.22378e-11 5e-05 1.46608e-10 
168 1 0.0759873 0.0171793 0.00725157 0.00584423 0.000561354 -0.000208418 2.01713e-10 2.78007e-10 -2.1858e-10 5e-05 1.46608e-10 
169 1 0.0762293 0.0176684 0.00714576 0.00620253 0.000489437 -0.000340087 9.8231e-11 -2.39349e-10 3.11931e-12 5e-05 1.46608e-10 
170 1 0.0760523 0.0173143 0.00717169 0.00586359 0.000583444 -0.000186499 -5.28006e-10 1.19604e-10 -1.29863e-10 5e-05 1.46608e-10 
171 1 0.0817079 0.016278 0.00787252 0.00566866 0.000199596 0.000269591 -5.44045e-10 2.75779e-10 -1.60928e-10 5e-05 1.46608e-10 
172 1 0.0761465 0.0172846 0.00719201 0.00590845 0.000513829 -0.000161411 -8.72592e-11 4.03865e-10 -3.95849e-10 5e-05 1.46608e-10 
173 1 0.0821872 0.0175358 0.00729876 0.00614404 0.000571486 0.000121944 -6.81779e-11 8.55249e-11 -4.66867e-11 5e-05 1.46608e-10 
174 1 0.0759648 0.0173624 0.00716615 0.00576617 0.00040867 -0.000363697 -3.55825e-10 8.27332e-11 -1.65687e-10 5e-05 1.46608e-10 
175 1 0.069744 0.0171755 0.00727907 0.00558971 -0.00039491 4.76332e-05 -1.63423e-10 -5.21232e-11 -1.20952e-10 5e-05 1.46608e-10 
176 1 0.0757917 0.016988 0.00736213 0.00580195 0.000575423 -0.000200991 -6.64912e-11 3.57255e-11 -2.49397e-12 5e-05 1.46608e-10 
177 1 0.0758336 0.0175913 0.00716812 0.0062261 0.000457465 -0.000338357 5.96261e-12 -1.79715e-11 -5.61856e-12 5e-05 1.46608e-10 
178 1 0.076282 0.0175025 0.00714598 0.00612235 0.000360108 -0.00032895 -2.35739e-10 1.03864e-10 2.41999e-11 5e-05 1.46608e-10 
179 1 0.0762078 0.0175708 0.00714867 0.00622285 0.00046429 -0.000338321 2.85618e-11 -1.48433e-10 8.07355e-11 5e-05 1.46608e-10 
181 1 0.0757599 0.01729 0.00738941 0.00599003 0.00051678 -0.000113566 9.47225e-11 5.24191e-10 -3.17893e-10 5e-05 1.46608e-10 
182 1 0.0816531 0.0164247 0.00779843 0.00544558 0.000192877 0.000258832 -1.87808e-10 2.69878e-10 -1.42635e-10 5e-05 1.46608e-10 
183 1 0.0759452 0.0172691 0.00719631 0.00579244 0.000559803 -0.000178162 2.18156e-10 2.20094e-10 -2.81353e-11 5e-05 1.46608e-10 
184 1 0.0819674 0.017757 0.00727211 0.00599828 0.000104017 0.000332848 9.66556e-13 -1.27864e-10 6.83284e-11 5e-05 1.46608e-10 
185 1 0.0757165 0.0170436 0.00732668 0.00579108 0.000582587 -0.00020452 -1.89473e-10 -1.87051e-10 1.47179e-11 5e-05 1.46608e-10 
186 1 0.0757519 0.0172131 0.00732597 0.00582319 0.000609652 -0.000216904 5.29129e-11 1.79888e-10 4.01839e-12 5e-05 1.46608e-10 
187 1 0.081963 0.0170212 0.00753166 0.00579761 0.000172195 0.000291057 -5.19706e-11 -7.07457e-11 3.13664e-11 5e-05 1.46608e-10 
188 1 0.0820614 0.0181962 0.0069732 0.00628062 0.000110557 0.000355786 8.53752e-11 2.25177e-10 -1.05273e-10 5e-05 1.46608e-10 
189 1 0.082006 0.0172002 0.00744838 0.00593669 0.00011985 0.000325167 1.3955e-10 -4.4005e-11 2.03489e-11 5e-05 1.46608e-10 
190 1 0.0698496 0.0172802 0.00719432 0.00579795 -0.000519618 0.000233943 -9.13716e-11 1.34257e-10 -1.77003e-11 5e-05 1.46608e-10 
191 1 0.0820714 0.0186429 0.00694956 0.00619928 -9.09138e-05 -0.000580644 2.29414e-11 -2.81707e-10 -1.00023e-10 5e-05 1.46608e-10 
192 1 0.0759769 0.0169268 0.00740372 0.0058061 0.000529038 -0.000174013 -5.86581e-11 2.91301e-10 -1.38561e-10 5e-05 1.46608e-10 
193 1 0.0817868 0.0166337 0.00770658 0.00552272 0.000233073 0.000243636 -2.45449e-11 -2.53331e-10 1.3157e-10 5e-05 1.46608e-10 
194 1 0.0757897 0.0165448 0.00763454 0.00566215 0.000521818 -0.000287002 3.94828e-11 1.80149e-10 7.66514e-11 5e-05 1.46608e-10 
195 1 0.0761866 0.017473 0.00715157 0.00611545 0.000392831 -0.000324716 -2.46456e-10 3.42929e-10 7.45155e-11 5e-05 1.46608e-10 
196 1 0.0752591 0.0153773 0.00879861 0.00637236 0.000611804 -0.000566536 -5.31279e-11 -2.36434e-10 3.60788e-10 5e-05 1.46608e-10 
197 1 0.0698031 0.0174527 0.0071902 0.00602114 -0.0004341 0.000242516 -4.69865e-11 -9.76705e-11 3.49059e-11 5e-05 1.46608e-10 
198 1 0.0756384 0.0167081 0.00752995 0.00569883 -3.64629e-05 -0.00128169 9.21252e-11 -5.73202e-10 1.11761e-10 5e-05 1.46608e-10 
199 1 0.0757753 0.0172972 0.00717779 0.00580256 0.000556519 -0.000219404 2.17191e-11 -1.44736e-11 -2.5438e-10 5e-05 1.46608e-10 
200 1 0.075733 0.0167355 0.00751308 0.00572685 0.00056361 -0.000214597 1.03791e-10 -7.65963e-11 1.88491e-10 5e-05 1.46608e-10 
201 1 0.076179 0.0178998 0.00714422 0.00617084 0.000476096 -0.000335305 -8.34206e-11 -9.37161e-11 6.2279e-13 5e-05 1.46608e-10 
202 1 0.0759985 0.0170106 0.00735366 0.0058135 0.000537151 -0.000181022 -8.85257e-11 3.08256e-10 -1.72512e-10 5e-05 1.46608e-10 
203 1 0.0822038 0.0177174 0.00721253 0.00609627 0.000183669 0.000304046 -3.99798e-10 -3.41299e-11 -1.59001e-13 5e-05 1.46608e-10 
204 1 0.0757136 0.0166513 0.00756341 0.0056734 0.000572263 -0.000189145 -8.34814e-11 -1.86574e-10 1.85475e-10 5e-05 1.46608e-10 
205 1 0.0760274 0.0176557 0.00715668 0.00624091 0.000462735 -0.000339248 -2.35738e-10 -9.63973e-11 2.28359e-10 5e-05 1.46608e-10 
206 1 0.0759848 0.0174603 0.00716249 0.00585121 0.000391236 -0.000318636 -5.31396e-10 3.50251e-10 7.29084e-12 5e-05 1.46608e-10 
207 1 0.0755574 0.0160226 0.00803376 0.00566366 0.000485279 -0.000746151 5.39021e-10 -2.49839e-10 1.25657e-10 5e-05 1.46608e-10 
208 1 0.0758506 0.0172405 0.00721119 0.00580072 0.000570728 -0.00020916 -6.03265e-11 1.02199e-10 -7.18539e-11 5e-05 1.46608e-10 
209 1 0.0757706 0.016466 0.00769311 0.00569699 0.000353719 -0.000482512 2.99234e-10 1.77987e-10 4.07611e-11 5e-05 1.46608e-10 
210 1 0.0818639 0.0176029 0.00734178 0.00599845 0.000234705 0.00029656 1.83138e-10 -1.84748e-10 -4.15327e-12 5e-05 1.46608e-10 
211 1 0.0821123 0.0180237 0.00705941 0.00622629 9.3396e-05 0.000361312 1.73218e-11 4.63272e-11 -2.12456e-11 5e-05 1.46608e-10 
212 1 0.0760722 0.0174116 0.00716013 0.00602016 0.000555624 -0.000242477 -6.18745e-10 1.26755e-11 -1.8851e-10 5e-05 1.46608e-10 
213 1 0.0819421 0.0169323 0.00757307 0.00560451 8.74552e-05 0.000319079 3.63101e-11 -1.07527e-10 5.91124e-11 5e-05 1.46608e-10 
214 1 0.0820195 0.0180451 0.00708975 0.00621805 0.000127828 0.000358684 1.27605e-10 -2.87425e-11 -1.35318e-10 5e-05 1.46608e-10 
215 1 0.0698341 0.0171921 0.00723894 0.00568504 -0.000515304 0.000211072 1.5688e-11 1.29088e-10 -3.23193e-11 5e-05 1.46608e-10 
216 1 0.075812 0.0174937 0.00717103 0.00623631 0.000463006 -0.000337127 8.89931e-13 2.37318e-11 2.83872e-11 5e-05 1.46608e-10 
217 1 0.0817477 0.016456 0.0077895 0.00543558 0.00022843 0.000240267 -1.49887e-10 -5.03626e-12 -3.6234e-12 5e-05 1.46608e-10 
218 1 0.0759312 0.0176244 0.00716234 0.0061196 0.000469637 -0.000319784 5.85067e-10 -6.30323e-10 1.4172e-10 5e-05 1.46608e-10 
219 1 0.0820085 0.0183571 0.00694157 0.00629666 0.000141052 0.000203614 1.05115e-11 -3.6787e-11 -1.31992e-11 5e-05 1.46608e-10 
220 1 0.0758165 0.0173446 0.00725669 0.0057644 0.000510629 -0.000299847 -2.55584e-10 3.51112e-10 1.62455e-10 5e-05 1.46608e-10 
221 1 0.0697414 0.0167914 0.00752523 0.00551171 -0.000202964 0.000343848 -1.52236e-11 2.64062e-11 -1.41593e-11 5e-05 1.46608e-10 
222 1 0.0817672 0.0165449 0.00774804 0.00549064 0.000227315 0.000245048 9.97643e-11 -1.39993e-10 6.92967e-11 5e-05 1.46608e-10 
223 1 0.0759068 0.0170475 0.00732907 0.00582 0.000561171 -0.00022498 3.80102e-11 2.44307e-10 1.84339e-11 5e-05 1.46608e-10 
224 1 0.0756969 0.0169594 0.007377 0.0057689 0.000557959 -0.000208116 5.95081e-11 2.14164e-11 2.51751e-10 5e-05 1.46608e-10 
225 1 0.0821041 0.0176576 0.00723485 0.00605086 0.000159709 0.000297 -1.63261e-10 1.12739e-10 2.78521e-10 5e-05 1.46608e-10 
226 1 0.0760686 0.01723 0.00722297 0.00586555 0.000556893 -0.000193405 7.71149e-11 3.05507e-10 -2.61352e-10 5e-05 1.46608e-10 
227 1 0.0698002 0.0170307 0.00735313 0.00557852 -0.000366422 9.97035e-05 5.49542e-11 6.00614e-11 -8.74119e-11 5e-05 1.46608e-10 
228 1 0.0697637 0.017267 0.00724394 0.00560979 -0.000410645 2.47323e-05 -5.00062e-11 -9.57824e-11 5.53056e-12 5e-05 1.46608e-10 
229 1 0.0758442 0.0172899 0.00733567 0.00573516 0.000648968 -0.000476282 2.35694e-10 2.9252e-10 -1.48507e-10 5e-05 1.46608e-10 
230 1 0.0761131 0.0180462 0.00714505 0.00615968 0.000469181 -0.0003348 -9.85291e-12 -9.08122e-11 1.9488e-11 5e-05 1.46608e-10 
231 1 0.0697244 0.0170851 0.00731711 0.00557451 -0.000367734 9.6796e-05 -7.63212e-11 -6.88831e-11 -2.51736e-11 5e-05 1.46608e-10 
232 1 0.0756727 0.0160742 0.00798786 0.00562576 0.000316386 -0.000619318 -2.19061e-10 -6.04464e-10 4.50294e-10 5e-05 1.46608e-10 
233 1 0.075809 0.0166268 0.00758062 0.00565081 0.000585744 -0.000204971 3.42098e-11 4.44727e-11 -7.00744e-12 5e-05 1.46608e-10 
234 1 0.0820776 0.0182855 0.0069313 0.00629315 0.00010096 0.000361907 1.39031e-10 8.98053e-11 1.11083e-11 5e-05 1.46608e-10 
235 1 0.0761554 0.0182419 0.00713925 0.00609531 0.000504757 -0.000331973 -1.11364e-10 6.68002e-11 1.11944e-12 5e-05 1.46608e-10 
236 1 0.0761346 0.0181438 0.00714213 0.00614125 0.000472501 -0.000333724 1.22967e-10 -1.27492e-10 -7.7545e-12 5e-05 1.46608e-10 
237 1 0.0762219 0.0180951 0.0071384 0.00615501 0.000508091 -0.000335264 3.65843e-11 -1.99465e-10 -6.74283e-12 5e-05 1.46608e-10 
239 1 0.0695504 0.01638 0.00784811 0.0054101 -0.000165191 0.00030865 -2.19839e-12 -2.81336e-11 2.31357e-11 5e-05 1.46608e-10 
240 1 0.0696082 0.0166108 0.00766538 0.00547645 -0.000173649 0.000317329 1.85793e-11 1.40342e-11 -3.32285e-12 5e-05 1.46608e-10 
241 1 0.069531 0.016303 0.007909 0.00550949 -0.000179677 0.000323489 -2.07391e-12 -4.27193e-11 3.46682e-11 5e-05 1.46608e-10 
242 1 0.0759378 0.0167585 0.00750435 0.00574251 0.000537021 -0.00017667 2.73072e-11 1.40532e-10 -1.23668e-10 5e-05 1.46608e-10 
243 1 0.0756945 0.0165722 0.00762158 0.00566161 0.000510799 -0.000231116 -3.3722e-10 -2.97316e-10 -5.47833e-11 5e-05 1.46608e-10 
244 1 0.0695696 0.0164569 0.00778719 0.00539923 -0.000162933 0.000306487 -5.05168e-12 -1.38817e-11 1.05956e-11 5e-05 1.46608e-10 
246 1 0.0696855 0.016925 0.00743052 0.0055434 -0.000359018 9.48046e-05 2.45566e-11 3.70704e-11 -2.84099e-11 5e-05 1.46608e-10 
247 1 0.0760489 0.0177533 0.00715377 0.00621843 0.000461598 -0.000338298 -3.24826e-11 -4.23417e-11 5.03847e-11 5e-05 1.46608e-10 