ITEM: TIMESTEP
7400000
ITEM: NUMBER OF ATOMS
287
ITEM: BOX BOUNDS ff ff ff
-0.02 0.43
-0.02 0.06
-0.02 0.07
ITEM: ATOMS id type x y z vx vy vz fx fy fz radius mass 
1 1 0.0559746 0.0165126 0.00807439 0.0057952 0.000364249 0.000385484 -2.40427e-10 -3.82718e-11 3.62488e-10 5e-05 1.46608e-10 
2 1 0.0563603 0.0171752 0.00727499 0.00558963 0.000489325 0.000552003 -2.20932e-10 -4.9864e-11 -3.01175e-10 5e-05 1.46608e-10 
3 1 0.0498187 0.0161962 0.00819842 0.00593533 -0.000334404 -0.000604323 -1.46572e-10 -2.63785e-10 2.99057e-10 5e-05 1.46608e-10 
4 1 0.0562827 0.0176786 0.00720797 0.0058965 0.00029375 0.000567606 3.35309e-10 2.08589e-10 1.04643e-10 5e-05 1.46608e-10 
5 1 0.0558588 0.0164423 0.00818026 0.00568283 0.000501555 0.000487155 2.44705e-11 -5.60989e-10 3.33611e-10 5e-05 1.46608e-10 
6 1 0.061978 0.016704 0.00765368 0.00562673 0.000480979 -0.000209789 -4.62392e-11 -2.98008e-10 2.27752e-10 5e-05 1.46608e-10 
7 1 0.0560405 0.0169774 0.00748759 0.00540928 0.000127235 0.000485181 1.55932e-09 1.13017e-09 2.13554e-09 5e-05 1.46608e-10 
8 1 0.0557502 0.0161212 0.00854674 0.00561379 -0.000443732 -0.000117592 -1.25076e-10 -6.08769e-11 -9.0369e-11 5e-05 1.46608e-10 
9 1 0.0622233 0.0178091 0.00714447 0.00583761 0.00040142 -0.00019611 6.70227e-11 -6.9056e-11 -2.76643e-12 5e-05 1.46608e-10 
10 1 0.0559873 0.0167776 0.00770115 0.00572974 0.000498597 0.000540159 9.42565e-11 3.32109e-10 -5.1373e-10 5e-05 1.46608e-10 
11 1 0.0563996 0.0173579 0.00720956 0.00573896 0.000446003 0.000546017 -8.80335e-12 1.50382e-10 -6.72845e-11 5e-05 1.46608e-10 
12 1 0.0500182 0.0168569 0.00747536 0.00555115 -6.21383e-05 -0.000414579 9.63754e-11 5.20667e-10 3.96852e-12 5e-05 1.46608e-10 
13 1 0.055837 0.0163707 0.00824652 0.00567783 0.000498221 0.00050775 7.88384e-11 -2.1375e-10 1.45875e-10 5e-05 1.46608e-10 
14 1 0.0497318 0.0159356 0.00848867 0.00593659 -0.000325717 -0.000612977 -5.95694e-11 -1.86015e-10 2.01578e-10 5e-05 1.46608e-10 
15 1 0.0561656 0.0170965 0.0072867 0.00561205 0.000507682 0.000489592 5.5627e-10 -1.60394e-10 5.82187e-10 5e-05 1.46608e-10 
16 1 0.0497101 0.0158703 0.00856129 0.00593688 -0.000325089 -0.000613339 -2.45179e-11 -8.40302e-11 9.24489e-11 5e-05 1.46608e-10 
17 1 0.055966 0.0167192 0.00777955 0.00571934 0.000466606 0.000549781 1.23709e-11 -4.68197e-11 1.87523e-11 5e-05 1.46608e-10 
18 1 0.0621111 0.0172581 0.00724718 0.0056984 0.000413134 -0.000158955 -9.73835e-11 9.59062e-12 -1.36952e-12 5e-05 1.46608e-10 
19 1 0.0558153 0.0163114 0.00832406 0.00564187 -0.00015859 1.97824e-05 6.21605e-11 -5.65333e-10 -2.53667e-10 5e-05 1.46608e-10 
21 1 0.0559563 0.016461 0.00815803 0.00581291 0.000121794 0.000238264 4.52209e-12 4.30277e-10 5.31649e-10 5e-05 1.46608e-10 
22 1 0.0560726 0.017094 0.00733884 0.00561819 0.00053461 0.000453281 -3.65826e-10 -2.37298e-10 8.37949e-10 5e-05 1.46608e-10 
23 1 0.0501895 0.0172285 0.00728132 0.00563988 0.000369688 0.000307324 9.60071e-11 -2.66761e-10 2.69724e-10 5e-05 1.46608e-10 
24 1 0.0621667 0.0175147 0.00713275 0.00576834 0.000423345 -0.000180085 -1.20402e-10 -1.27284e-11 1.92596e-11 5e-05 1.46608e-10 
25 1 0.056024 0.016919 0.00756736 0.00531126 -0.000440735 0.000193939 3.98979e-10 -2.9315e-10 -3.23276e-10 5e-05 1.46608e-10 
26 1 0.0620541 0.0170206 0.00742139 0.0055869 0.000416571 -0.00015914 6.58167e-11 3.48057e-10 -1.29008e-10 5e-05 1.46608e-10 
27 1 0.0500947 0.0171999 0.00729622 0.00564245 0.000368 0.000332669 2.1037e-11 -2.3793e-10 -1.51404e-11 5e-05 1.46608e-10 
28 1 0.0562623 0.0175808 0.00720327 0.00568625 0.000340026 0.000537026 1.17395e-10 1.55898e-10 5.55054e-11 5e-05 1.46608e-10 
29 1 0.0557936 0.0162491 0.0083992 0.00560579 -0.00142485 -0.0010072 5.90145e-11 -5.29848e-10 -5.0899e-10 5e-05 1.46608e-10 
30 1 0.0562986 0.0173107 0.00719886 0.00570739 0.00051335 0.000549899 2.01884e-10 -3.62724e-11 -2.14119e-11 5e-05 1.46608e-10 
31 1 0.0560533 0.0170087 0.00738734 0.00560176 0.000537433 0.000399175 -2.8165e-10 -5.0692e-10 5.73917e-10 5e-05 1.46608e-10 
32 1 0.0561507 0.0170381 0.00736648 0.00555909 0.000497434 0.000477283 -2.64972e-10 -4.4255e-10 4.29013e-10 5e-05 1.46608e-10 
33 1 0.0619973 0.0167831 0.00759564 0.00564783 0.000433164 -0.000176296 -4.54648e-12 -1.1394e-10 1.29316e-10 5e-05 1.46608e-10 
34 1 0.0559445 0.0166608 0.00785781 0.00573143 0.000473167 0.00054639 2.90158e-10 -4.28603e-11 -2.07962e-11 5e-05 1.46608e-10 
35 1 0.056131 0.0169796 0.00744519 0.00549142 0.000491828 0.000497854 4.9134e-10 -2.13026e-10 3.06731e-10 5e-05 1.46608e-10 
36 1 0.0622655 0.0180044 0.00715311 0.00601733 0.000352604 -0.000205391 2.52702e-11 4.63763e-11 2.75977e-12 5e-05 1.46608e-10 
37 1 0.0560981 0.0168627 0.00760407 0.00553625 0.000513935 0.000480506 1.06715e-09 -1.97394e-10 6.09953e-10 5e-05 1.46608e-10 
38 1 0.0562439 0.0170673 0.00734502 0.00556247 0.000480908 0.000503237 -2.89453e-10 -6.00408e-10 5.51533e-11 5e-05 1.46608e-10 
39 1 0.0621849 0.017613 0.00713566 0.00572591 0.000432468 -0.000189604 -2.05472e-11 -5.63414e-11 1.78297e-11 5e-05 1.46608e-10 
41 1 0.0559011 0.016544 0.00801428 0.0056998 0.000481273 0.000534304 1.28311e-10 -4.61767e-11 8.54963e-11 5e-05 1.46608e-10 
42 1 0.0560897 0.0171569 0.00726259 0.00571221 0.000511366 0.000130683 1.8145e-10 -8.95916e-12 3.02711e-10 5e-05 1.46608e-10 
44 1 0.0562629 0.017126 0.00726561 0.00556986 0.000409353 0.000609847 1.9765e-10 9.82134e-11 -2.50927e-11 5e-05 1.46608e-10 
45 1 0.0620165 0.0168622 0.0075376 0.00566222 0.000417699 -0.000160065 -2.45398e-10 1.93613e-10 -1.97766e-10 5e-05 1.46608e-10 
46 1 0.0620915 0.017179 0.00730518 0.00565906 0.000413729 -0.000157414 -3.72764e-11 -1.27446e-12 2.16296e-11 5e-05 1.46608e-10 
47 1 0.0559228 0.0166024 0.00793604 0.0057165 0.000477012 0.000539807 3.21101e-10 5.38565e-11 4.79829e-11 5e-05 1.46608e-10 
48 1 0.0561285 0.0173425 0.00720261 0.00570248 0.000375003 0.000179066 1.48258e-10 7.60375e-11 8.3786e-11 5e-05 1.46608e-10 
49 1 0.0620731 0.0170998 0.00736332 0.00562183 0.000404405 -0.000155028 -1.80569e-10 7.27687e-11 -6.33882e-11 5e-05 1.46608e-10 
50 1 0.056186 0.0176452 0.00719807 0.00538489 0.000109026 0.000485026 1.14464e-09 -1.22125e-09 -3.14342e-10 5e-05 1.46608e-10 
51 1 0.0561675 0.0175468 0.00719555 0.00560646 0.000287291 0.000350488 1.26301e-10 4.21178e-10 -7.71444e-10 5e-05 1.46608e-10 
52 1 0.05 0.0167864 0.00754385 0.0054738 -0.000273486 -0.000659446 1.46385e-10 2.41195e-10 -3.64553e-10 5e-05 1.46608e-10 
53 1 0.0621299 0.0173373 0.00718908 0.00577781 0.000409274 -0.000153731 -7.08933e-11 6.68388e-12 -9.08998e-12 5e-05 1.46608e-10 
54 1 0.0559326 0.0163903 0.00822462 0.005696 -7.42444e-05 3.39506e-06 1.65004e-10 1.39126e-11 4.84562e-11 5e-05 1.46608e-10 
55 1 0.0497774 0.0160694 0.00834733 0.00593176 -0.000330485 -0.000605101 -6.01538e-11 -2.47367e-10 2.69107e-10 5e-05 1.46608e-10 
56 1 0.0561144 0.0169212 0.0075246 0.00552822 0.000489693 0.000516659 1.584e-09 -2.60302e-10 1.59128e-09 5e-05 1.46608e-10 
57 1 0.0620353 0.0169414 0.0074795 0.00562814 0.000431654 -0.000161888 4.42207e-10 1.11004e-10 -1.41021e-10 5e-05 1.46608e-10 
59 1 0.0561756 0.0168361 0.00766548 0.00554789 0.000520154 0.000433698 2.51325e-11 1.94174e-11 7.92247e-11 5e-05 1.46608e-10 
60 1 0.0561907 0.0168963 0.0075871 0.00550325 0.000515203 0.000446609 1.55884e-10 -1.19549e-10 -5.70128e-11 5e-05 1.46608e-10 
61 1 0.0558795 0.0164856 0.00809253 0.00569259 0.000489275 0.000505522 -1.53987e-10 -6.02527e-10 2.63326e-10 5e-05 1.46608e-10 
62 1 0.0562807 0.0172161 0.00722581 0.00575611 0.000244063 -0.000409069 -2.35099e-10 1.34622e-10 9.14031e-11 5e-05 1.46608e-10 
63 1 0.0562225 0.0173754 0.00719369 0.00568709 0.000481045 0.000538954 2.57906e-10 2.7962e-11 -9.4496e-11 5e-05 1.46608e-10 
64 1 0.0621477 0.0174166 0.00713086 0.00579898 0.000414905 -0.000155063 -1.67559e-11 -1.22186e-11 -5.12637e-12 5e-05 1.46608e-10 
65 1 0.0501101 0.0168703 0.00743713 0.00548713 -0.000174688 -0.000720661 -1.66235e-11 4.88118e-11 -4.02886e-10 5e-05 1.46608e-10 
66 1 0.0500599 0.0166802 0.00766819 0.00550694 -0.000299601 -0.00072781 3.74945e-10 3.69964e-10 2.35198e-10 5e-05 1.46608e-10 
67 1 0.0563828 0.0172613 0.0072295 0.00568626 0.000466606 0.000570577 2.95522e-10 5.47672e-11 -1.31577e-10 5e-05 1.46608e-10 
68 1 0.0563392 0.0175195 0.00722163 0.00579101 0.000428648 0.000465825 2.28408e-10 -9.19601e-12 1.17798e-11 5e-05 1.46608e-10 
69 1 0.0560395 0.0166878 0.00783969 0.00573212 0.000495279 0.00052564 5.50998e-11 -5.34086e-11 4.80036e-11 5e-05 1.46608e-10 
70 1 0.062203 0.0177113 0.00714012 0.00567719 0.000440542 -0.000188579 -2.02208e-11 -7.33786e-11 -1.58598e-12 5e-05 1.46608e-10 
71 1 0.0497536 0.0160008 0.00841605 0.00593524 -0.000328964 -0.000609207 -9.88733e-11 -2.40822e-10 2.74975e-10 5e-05 1.46608e-10 
72 1 0.0563225 0.0174216 0.00721035 0.00571943 0.000432633 0.0005514 -1.28347e-10 1.06178e-10 1.05425e-10 5e-05 1.46608e-10 
73 1 0.0560073 0.0168584 0.0076457 0.00538063 0.000383378 0.000106856 1.81316e-11 -9.29288e-11 -1.16741e-09 5e-05 1.46608e-10 
74 1 0.0561867 0.017187 0.00724365 0.00576601 0.00047019 8.19174e-05 -1.04619e-10 -1.06782e-10 1.57077e-10 5e-05 1.46608e-10 
76 1 0.050329 0.0178754 0.00705184 0.00615959 0.000163014 0.000115421 -2.40042e-10 2.58264e-10 2.93764e-10 5e-05 1.46608e-10 
77 1 0.0564338 0.018362 0.00721302 0.00593236 0.000324711 -0.000146635 1.41977e-10 9.4937e-11 -5.07067e-11 5e-05 1.46608e-10 
78 1 0.0498404 0.0162615 0.0081258 0.00596089 -0.000342065 -0.000598885 -6.57115e-11 -1.9912e-10 2.36501e-10 5e-05 1.46608e-10 
79 1 0.0500368 0.0169348 0.00741553 0.00561138 0.000313042 0.000109834 5.87062e-11 2.52286e-10 -3.19068e-11 5e-05 1.46608e-10 
80 1 0.0562508 0.0179393 0.00721408 0.0058995 0.000179912 0.000926882 -9.71704e-12 -3.79883e-10 4.79654e-11 5e-05 1.46608e-10 
81 1 0.049983 0.0167201 0.00761677 0.0055063 -0.000250656 -0.000624536 9.03177e-11 1.41954e-10 -4.94226e-10 5e-05 1.46608e-10 
82 1 0.0501142 0.0172873 0.00725182 0.00565589 0.000352029 0.000332069 1.36242e-10 -1.46808e-10 6.7517e-11 5e-05 1.46608e-10 
83 1 0.0501178 0.0165502 0.00777505 0.0057136 -0.000226656 -0.000685796 2.38868e-11 -1.66355e-10 1.63418e-10 5e-05 1.46608e-10 
84 1 0.0622438 0.0179069 0.00714882 0.00602083 0.000355472 -0.000204495 3.00949e-11 -2.43955e-12 -8.75905e-12 5e-05 1.46608e-10 
85 1 0.0499375 0.0162758 0.00809494 0.00597056 -0.000340714 -0.000602263 -4.3387e-11 -8.47518e-12 1.9576e-11 5e-05 1.46608e-10 
86 1 0.0562441 0.0174826 0.00719877 0.00566057 0.000357472 0.000515476 -9.71473e-11 2.17433e-10 -3.30496e-10 5e-05 1.46608e-10 
87 1 0.0561584 0.0167744 0.00774225 0.00565406 0.000521004 0.000462642 -3.92555e-10 1.49606e-11 1.34623e-10 5e-05 1.46608e-10 
88 1 0.0563159 0.0182322 0.00721704 0.00591641 0.00032449 -0.000138274 -1.04957e-10 -3.06785e-11 8.93785e-11 5e-05 1.46608e-10 
89 1 0.0562725 0.0180369 0.00721733 0.00595681 0.000192424 0.000558553 6.64982e-11 1.03565e-09 -8.32646e-10 5e-05 1.46608e-10 
90 1 0.056339 0.0170933 0.00732825 0.00556193 0.000481061 0.000511767 -2.99747e-10 -4.43975e-11 -1.71541e-10 5e-05 1.46608e-10 
91 1 0.0500556 0.0170129 0.00735596 0.00564965 0.00043095 0.00028797 1.45635e-12 2.23088e-11 -3.75764e-11 5e-05 1.46608e-10 
92 1 0.0563797 0.0177148 0.00723684 0.00602033 0.000343312 0.00024546 -4.76898e-10 -1.20798e-11 -4.21417e-10 5e-05 1.46608e-10 
93 1 0.0563698 0.018069 0.00721736 0.00591256 0.000281734 -0.000141751 -1.55921e-10 -2.08114e-10 1.60402e-10 5e-05 1.46608e-10 
94 1 0.0564473 0.0180055 0.00721938 0.00593896 0.000287532 -0.000180748 -9.77763e-11 3.84216e-10 1.16593e-10 5e-05 1.46608e-10 
95 1 0.0562292 0.0178418 0.00720771 0.00596752 0.000391267 0.000559097 1.28451e-10 5.539e-10 1.31398e-10 5e-05 1.46608e-10 
96 1 0.0564036 0.0178104 0.00722001 0.00598597 0.00030213 6.80341e-05 4.00877e-10 -1.30083e-10 2.02394e-10 5e-05 1.46608e-10 
97 1 0.049947 0.0165889 0.00776334 0.00568049 -0.000271744 -0.000580309 2.1328e-10 -3.56744e-11 -2.08286e-10 5e-05 1.46608e-10 
98 1 0.0563378 0.0183304 0.00721558 0.00593028 0.000338073 -0.000142291 9.74454e-12 2.05457e-10 7.9165e-13 5e-05 1.46608e-10 
99 1 0.0500947 0.016803 0.00751626 0.00546776 -0.000134343 -0.00059457 2.70841e-10 -4.42949e-11 -7.03193e-11 5e-05 1.46608e-10 
100 1 0.0563047 0.0169767 0.00748704 0.00552888 0.000476179 0.000467856 3.50623e-11 1.36634e-10 -6.79429e-11 5e-05 1.46608e-10 
101 1 0.0500421 0.0166039 0.00773035 0.00556969 -0.000241244 -0.000633602 3.18978e-10 3.46443e-11 -1.37592e-10 5e-05 1.46608e-10 
102 1 0.0643568 0.0187248 0.00531097 4.45806e-15 1.04657e-14 8.29545e-14 2.16898e-21 -2.22822e-23 -1.00502e-22 5e-05 1.46608e-10 
103 1 0.24257 0.0191927 0.00520306 9.7161e-23 4.86658e-23 8.29106e-22 0 0 0 5e-05 1.46608e-10 
104 1 0.0503433 0.0175365 0.00717164 0.00565388 0.000343867 0.000324963 -4.82832e-10 3.65691e-10 -3.96433e-10 5e-05 1.46608e-10 
105 1 0.0499056 0.0164571 0.00790794 0.00592801 -0.000343382 -0.000590385 4.40402e-12 6.27545e-11 5.73631e-11 5e-05 1.46608e-10 
106 1 0.0504193 0.0174779 0.0072011 0.00565802 0.000421074 0.000295506 -1.77544e-10 1.2583e-10 -4.66939e-11 5e-05 1.46608e-10 
107 1 0.0498622 0.0163267 0.00805324 0.00597016 -0.000343392 -0.000593483 -1.20317e-11 -1.42996e-10 1.33493e-10 5e-05 1.46608e-10 
108 1 0.0560826 0.0168042 0.00768372 0.00557727 0.000510099 0.000485375 1.42574e-10 -4.36504e-10 9.2798e-11 5e-05 1.46608e-10 
109 1 0.0561483 0.0174423 0.00718875 0.00567527 0.000461349 0.000536167 1.5004e-11 -1.63913e-10 2.78279e-11 5e-05 1.46608e-10 
110 1 0.0564826 0.0177485 0.00721783 0.00608401 0.000344185 -6.51001e-05 2.68468e-11 3.0106e-10 1.17236e-09 5e-05 1.46608e-10 
111 1 0.056381 0.0185243 0.00721268 0.00592072 0.000302651 -0.000141734 -1.08331e-10 -2.40539e-10 2.71194e-11 5e-05 1.46608e-10 
112 1 0.0499658 0.0166549 0.00769061 0.00555223 -0.000249667 -0.000599393 4.33996e-10 -7.55631e-11 -4.47333e-10 5e-05 1.46608e-10 
113 1 0.0506301 0.0176322 0.00715709 0.00589467 0.000251492 0.000381202 -4.82849e-10 3.26076e-10 -1.56685e-10 5e-05 1.46608e-10 
114 1 0.0502829 0.0172682 0.00728958 0.00563649 0.000401658 0.000293988 6.44734e-10 -2.94553e-10 -5.48721e-11 5e-05 1.46608e-10 
115 1 0.0562044 0.0172774 0.00720412 0.00568776 0.000348486 -0.000459571 1.76896e-10 -6.60442e-11 -1.41029e-10 5e-05 1.46608e-10 
116 1 0.0560593 0.0167526 0.00776609 0.00567518 0.000506133 0.000501206 -3.1325e-11 -3.15246e-10 4.58762e-11 5e-05 1.46608e-10 
117 1 0.0559121 0.0163259 0.00829839 0.0056871 -0.000352881 -0.000202857 3.89158e-10 -1.51024e-11 -5.23706e-11 5e-05 1.46608e-10 
118 1 0.049797 0.016131 0.00827104 0.00593301 -0.000332403 -0.000604561 -4.69436e-11 -2.59957e-10 2.84743e-10 5e-05 1.46608e-10 
119 1 0.0562081 0.0169496 0.00750428 0.0055082 0.0005016 0.000459645 2.90802e-10 -1.59641e-10 2.77748e-10 5e-05 1.46608e-10 
120 1 0.0557719 0.016185 0.00847282 0.00563416 -0.000315717 -4.19335e-05 3.02117e-10 -2.07649e-10 -4.97376e-10 5e-05 1.46608e-10 
121 1 0.0557285 0.016058 0.00862113 0.00558644 -0.000486226 -0.000120261 -1.16929e-10 -1.04591e-10 1.72091e-10 5e-05 1.46608e-10 
122 1 0.0565039 0.0178462 0.00721639 0.00601355 0.000338881 -0.000153393 1.3051e-10 5.07569e-10 1.25097e-10 5e-05 1.46608e-10 
123 1 0.0499809 0.0164063 0.00794968 0.00594115 -0.000345676 -0.000593173 7.29946e-11 7.86728e-11 -7.74835e-11 5e-05 1.46608e-10 
124 1 0.0563263 0.0178739 0.00721762 0.00595628 0.000255289 0.000562105 6.11891e-10 -2.20739e-10 5.25514e-11 5e-05 1.46608e-10 
125 1 0.05589 0.0162611 0.00837129 0.00562241 -0.000394638 -0.0002086 2.97278e-10 1.57382e-10 9.68178e-11 5e-05 1.46608e-10 
126 1 0.0561091 0.0172464 0.00722246 0.00573616 0.000267602 -0.000437016 -3.81543e-12 -2.43017e-11 2.45071e-10 5e-05 1.46608e-10 
127 1 0.0499268 0.0165224 0.00783528 0.00584322 -0.000312362 -0.000579551 1.78784e-11 1.49233e-10 8.57563e-12 5e-05 1.46608e-10 
128 1 0.0562075 0.0177443 0.00720291 0.00597843 0.000384591 0.000564788 1.60876e-10 2.41538e-10 5.11027e-11 5e-05 1.46608e-10 
129 1 0.0562942 0.0181345 0.0072185 0.00589989 0.000220484 -0.000137562 -1.50215e-10 4.97568e-11 1.25165e-11 5e-05 1.46608e-10 
130 1 0.0502092 0.0173202 0.00724654 0.0056341 0.00037226 0.000308355 3.16604e-10 -2.96295e-10 -9.04256e-12 5e-05 1.46608e-10 
131 1 0.0500765 0.0167513 0.00759994 0.0054935 -0.000229531 -0.000650838 8.95195e-11 3.25074e-11 -1.35143e-10 5e-05 1.46608e-10 
132 1 0.0563044 0.0177761 0.00721278 0.00579085 0.000185858 0.000542363 -6.60722e-10 1.82383e-10 -1.81567e-11 5e-05 1.46608e-10 
133 1 0.0560722 0.0165301 0.00804683 0.00587993 -0.000928587 -0.00068553 2.44106e-10 -3.08794e-10 -2.14021e-10 5e-05 1.46608e-10 
134 1 0.0562259 0.0170082 0.00742525 0.00552885 0.000486316 0.000476812 -6.2395e-11 -4.44962e-11 4.63481e-10 5e-05 1.46608e-10 
135 1 0.0558672 0.0161982 0.00844554 0.0056648 -0.000392593 -0.000145723 8.0781e-10 5.6212e-11 2.12273e-10 5e-05 1.46608e-10 
136 1 0.0499157 0.0162106 0.00816759 0.00598926 -0.000325668 -0.000620863 7.63512e-11 -1.92208e-10 1.81449e-10 5e-05 1.46608e-10 
137 1 0.0564027 0.0186219 0.00721123 0.00591491 0.000308699 -0.000142349 -8.03895e-11 -2.29202e-10 2.02702e-11 5e-05 1.46608e-10 
138 1 0.0560179 0.0166295 0.00791796 0.00574866 0.000506065 0.000542846 2.86779e-10 -5.24443e-12 1.16853e-10 5e-05 1.46608e-10 
140 1 0.0565424 0.0180357 0.00721365 0.00591479 0.000258524 -0.00014732 -1.8139e-10 -1.01694e-11 -2.64249e-11 5e-05 1.46608e-10 
141 1 0.0499592 0.016341 0.00802233 0.00595915 -0.000338565 -0.000603501 -4.7212e-11 7.15058e-11 -6.36858e-11 5e-05 1.46608e-10 
142 1 0.0503042 0.0173531 0.00724123 0.00566646 0.000379767 0.000295959 2.55646e-10 1.64655e-10 -1.01109e-12 5e-05 1.46608e-10 
143 1 0.049884 0.0163922 0.00798085 0.00594742 -0.000344028 -0.000592782 -1.21325e-10 -5.42183e-11 5.11849e-11 5e-05 1.46608e-10 
144 1 0.0502602 0.0171817 0.00733431 0.00566978 0.000344904 0.000197036 4.4268e-10 1.83209e-10 6.14529e-10 5e-05 1.46608e-10 
146 1 0.0501383 0.0166157 0.00770232 0.00560843 -0.000182807 -0.000710278 1.37755e-10 -1.23427e-10 1.05254e-10 5e-05 1.46608e-10 
147 1 0.0498939 0.0161453 0.00824021 0.00596171 -0.000321543 -0.000621392 -1.19462e-10 -1.87673e-10 2.22247e-10 5e-05 1.46608e-10 
148 1 0.0501732 0.0175624 0.00714748 0.00563964 0.000304178 0.000338244 -2.4006e-11 -1.06683e-10 2.58903e-11 5e-05 1.46608e-10 
149 1 0.0564686 0.0181031 0.00721472 0.00589892 0.00029521 -0.000149349 1.60969e-10 3.44165e-10 -5.92758e-11 5e-05 1.46608e-10 
150 1 0.0501698 0.0167487 0.00755634 0.00549855 -0.000133814 -0.000740363 3.56719e-10 -7.27993e-12 -1.55001e-11 5e-05 1.46608e-10 
151 1 0.0504944 0.0174176 0.00723119 0.00573743 0.000346266 0.000332311 -8.33352e-10 4.19117e-10 -2.19889e-10 5e-05 1.46608e-10 
153 1 0.0500228 0.0165377 0.00780364 0.00573284 -0.00026436 -0.000639284 -7.37498e-11 -2.46261e-10 2.15171e-10 5e-05 1.46608e-10 
154 1 0.0502681 0.0175954 0.00714211 0.00565474 0.000394801 0.00028287 -3.15236e-10 3.10313e-10 1.28831e-10 5e-05 1.46608e-10 
155 1 0.0503504 0.0179711 0.00703246 0.00617794 7.42611e-05 -0.000301855 4.63813e-10 -6.24847e-11 -9.12782e-11 5e-05 1.46608e-10 
156 1 0.0502486 0.0175037 0.00717692 0.00566337 0.000372027 0.000315028 4.84009e-10 3.65337e-10 -1.52636e-10 5e-05 1.46608e-10 
157 1 0.0219312 0.0187687 0.00551176 -3.82912e-14 8.16883e-14 2.95887e-13 7.55009e-22 4.22741e-22 -2.10931e-23 5e-05 1.46608e-10 
158 1 0.050363 0.0176282 0.00713687 0.00551527 0.000391974 0.000311397 -7.72483e-10 4.4483e-10 -2.2484e-10 5e-05 1.46608e-10 
159 1 0.05636 0.0176171 0.00722898 0.00595023 0.000378199 0.000393924 -2.32255e-10 -9.74342e-11 -3.1398e-10 5e-05 1.46608e-10 
160 1 0.0502532 0.0179399 0.00704245 0.00615081 8.78609e-05 -0.000302917 -6.85703e-11 2.10176e-10 2.93319e-11 5e-05 1.46608e-10 
162 1 0.0502882 0.0176876 0.00710718 0.00538332 0.000289677 0.000581792 4.95913e-09 -2.37563e-09 -2.7339e-09 5e-05 1.46608e-10 
164 1 0.050512 0.0182905 0.00696843 0.00623352 8.03991e-05 -0.000302308 -2.41342e-10 1.57207e-12 1.09041e-10 5e-05 1.46608e-10 
165 1 0.0505558 0.0176922 0.00712721 0.00597037 0.000288468 0.000362291 -7.17819e-10 8.68611e-11 -9.61257e-11 5e-05 1.46608e-10 
166 1 0.0560287 0.0164024 0.00819444 0.00564695 -0.000373252 -0.000232504 -1.96495e-10 1.4827e-10 -2.37733e-11 5e-05 1.46608e-10 
167 1 0.050152 0.0166826 0.00762925 0.00551016 -0.000149045 -0.000727551 3.88091e-10 -1.02633e-10 -6.27722e-11 5e-05 1.46608e-10 
168 1 0.0504397 0.0175694 0.00716643 0.00582331 0.00040986 0.000312052 2.55946e-11 -3.2634e-10 1.46615e-10 5e-05 1.46608e-10 
169 1 0.0506515 0.0177235 0.00712258 0.00610733 0.000225642 0.00041245 -3.30307e-10 2.80402e-10 -1.15443e-10 5e-05 1.46608e-10 
170 1 0.0504796 0.0177527 0.00709697 0.00625814 0.000337835 0.000368697 -5.38407e-10 -4.82017e-11 3.78238e-10 5e-05 1.46608e-10 
171 1 0.0560502 0.0164657 0.00812003 0.00570916 -0.000375124 -0.0002244 1.88371e-10 -1.40144e-10 -1.79434e-10 5e-05 1.46608e-10 
172 1 0.0505346 0.0176008 0.00716176 0.00579874 0.000333495 0.000339844 1.4168e-10 -5.10645e-11 -4.22453e-11 5e-05 1.46608e-10 
173 1 0.0564343 0.017119 0.00731205 0.0056128 0.000485201 0.000498719 -4.75983e-10 -9.14161e-11 2.23273e-11 5e-05 1.46608e-10 
174 1 0.0504044 0.0178116 0.00706745 0.00618483 0.000280154 0.000401962 -3.74522e-10 2.52197e-11 1.77504e-10 5e-05 1.46608e-10 
175 1 0.0440557 0.0170783 0.00751279 0.00527507 -0.000535085 0.000384454 1.08529e-10 1.26814e-11 2.97216e-11 5e-05 1.46608e-10 
176 1 0.0502289 0.017412 0.00721173 0.00566667 0.000350631 0.000323806 -5.22717e-11 -1.66808e-10 9.43695e-11 5e-05 1.46608e-10 
177 1 0.0502964 0.018132 0.00700642 0.00615503 1.76601e-05 -0.000289137 -2.39015e-11 -4.31309e-10 1.18809e-10 5e-05 1.46608e-10 
178 1 0.0506089 0.0175407 0.00719165 0.0056889 0.000284984 0.000352771 2.22196e-10 1.27546e-10 -7.13588e-12 5e-05 1.46608e-10 
179 1 0.0505979 0.017875 0.00705805 0.00616036 0.000258518 0.000394977 -2.27276e-10 -4.72329e-11 -1.74091e-10 5e-05 1.46608e-10 
181 1 0.0502126 0.0177464 0.00707864 0.00562658 0.000249271 -2.57724e-05 5.78114e-10 -4.3491e-09 5.73506e-09 5e-05 1.46608e-10 
182 1 0.0559963 0.0165711 0.00799618 0.00578342 0.000491986 0.00051723 -1.20242e-10 -3.4633e-10 -5.54549e-12 5e-05 1.46608e-10 
183 1 0.0504602 0.017661 0.00713178 0.00620894 0.000350245 0.000366218 1.00635e-11 -5.89198e-10 1.72494e-10 5e-05 1.46608e-10 
184 1 0.0562984 0.0176498 0.00730243 0.00597021 1.14355e-05 0.000493606 4.31871e-12 8.36889e-11 1.28728e-11 5e-05 1.46608e-10 
185 1 0.0501535 0.0174707 0.00718226 0.00565439 0.000318838 0.000332066 1.56827e-11 -1.31919e-10 9.56999e-11 5e-05 1.46608e-10 
186 1 0.0501929 0.0176544 0.00711257 0.00566898 0.000430401 0.00029844 1.36408e-11 -8.5554e-10 7.37578e-10 5e-05 1.46608e-10 
187 1 0.056286 0.0169179 0.00756577 0.00552173 0.000503696 0.00047875 3.26744e-10 -1.18407e-10 -6.26651e-11 5e-05 1.46608e-10 
188 1 0.0563914 0.0181666 0.00721881 0.00589035 0.000309995 -0.000139735 -3.8287e-10 -1.74164e-10 8.24191e-11 5e-05 1.46608e-10 
189 1 0.0563205 0.0170354 0.00740765 0.00553284 0.000468851 0.00047836 -2.21291e-10 3.15489e-10 6.42476e-11 5e-05 1.46608e-10 
190 1 0.0441577 0.0171177 0.00750504 0.0054853 -0.000554242 0.000544047 -5.26005e-11 3.29542e-11 -2.80829e-11 5e-05 1.46608e-10 
191 1 0.0564244 0.0187195 0.00720977 0.00591049 0.000302088 -0.00014196 -6.62068e-11 -5.26821e-11 -4.11642e-12 5e-05 1.46608e-10 
192 1 0.0503798 0.0172946 0.00727064 0.00566707 0.000420553 0.000293248 6.94552e-10 -1.95976e-10 -2.65155e-11 5e-05 1.46608e-10 
193 1 0.0561351 0.016716 0.00782008 0.00571597 0.000522594 0.000471154 -3.12769e-10 -9.93137e-11 8.9728e-11 5e-05 1.46608e-10 
194 1 0.0502168 0.0169142 0.00745972 0.00542162 0.000335644 5.97853e-05 1.74922e-10 2.62106e-11 3.13383e-12 5e-05 1.46608e-10 
195 1 0.0505773 0.0177835 0.00709271 0.00611145 0.00025417 0.000386615 -5.55181e-10 2.47793e-11 -1.7376e-10 5e-05 1.46608e-10 
196 1 0.0496884 0.0158051 0.00863391 0.005937 -0.000326825 -0.000611653 -8.07026e-12 -1.89111e-11 2.21994e-11 5e-05 1.46608e-10 
197 1 0.0441188 0.0173587 0.00742691 0.00555055 -0.000559618 0.000550969 -4.11192e-12 7.86892e-12 1.52147e-11 5e-05 1.46608e-10 
198 1 0.0500752 0.0171046 0.00732115 0.00563985 0.000410347 0.000297801 -1.95061e-11 -9.23044e-11 3.5038e-11 5e-05 1.46608e-10 
199 1 0.0503085 0.0177796 0.00707233 0.00641895 -0.000789455 0.00148459 9.48655e-09 -7.70999e-09 2.55704e-10 5e-05 1.46608e-10 
200 1 0.0501697 0.0171369 0.00731608 0.0056083 0.000376821 0.000304594 2.06323e-10 -1.35592e-10 2.65398e-10 5e-05 1.46608e-10 
201 1 0.0506088 0.0183212 0.00695854 0.00623622 5.29718e-05 -0.000297019 -1.87827e-10 -7.61097e-12 3.99479e-11 5e-05 1.46608e-10 
202 1 0.0503994 0.0173863 0.00723585 0.00570836 0.000406629 0.000307468 3.97614e-10 1.35998e-10 -5.59072e-11 5e-05 1.46608e-10 
203 1 0.0564936 0.0173907 0.0072192 0.00577572 0.000316663 0.000548676 3.22541e-10 -2.14089e-10 7.76532e-11 5e-05 1.46608e-10 
204 1 0.0501502 0.0170452 0.00735087 0.0056201 0.000385929 0.000304323 -4.84628e-11 -2.1815e-10 1.3392e-10 5e-05 1.46608e-10 
205 1 0.0504692 0.0180985 0.0070045 0.00616057 0.000104959 -0.000281901 -2.08362e-10 -7.79713e-11 1.33812e-10 5e-05 1.46608e-10 
206 1 0.0504255 0.0179056 0.00704064 0.00624695 0.000134889 -0.000324377 8.27689e-10 -3.96698e-10 -7.26396e-10 5e-05 1.46608e-10 
207 1 0.0500025 0.0164719 0.00787667 0.00584359 -0.000320083 -0.000599928 3.12169e-11 -7.5988e-12 1.83292e-11 5e-05 1.46608e-10 
208 1 0.050383 0.0177198 0.00710211 0.00475888 -0.000173685 0.000457836 -5.34445e-10 3.60263e-10 -6.18585e-10 5e-05 1.46608e-10 
209 1 0.0501898 0.0168243 0.00749403 0.00544432 0.000102861 -0.000498095 2.13342e-10 1.22333e-10 1.11816e-10 5e-05 1.46608e-10 
210 1 0.0561465 0.0171348 0.00739255 0.00610079 0.00082751 -0.000437271 -1.60744e-10 -1.46802e-10 1.50015e-10 5e-05 1.46608e-10 
211 1 0.0564254 0.017908 0.00722202 0.00598706 0.000295197 -0.000101882 -9.65903e-11 1.91755e-10 2.19996e-10 5e-05 1.46608e-10 
212 1 0.0505011 0.0178458 0.00706735 0.00623199 -0.000438211 -0.00202324 -1.27546e-10 2.59767e-10 3.44321e-10 5e-05 1.46608e-10 
213 1 0.0562708 0.0168594 0.00764543 0.00551651 0.000268804 0.0003233 2.12476e-10 -3.57564e-11 -3.60593e-10 5e-05 1.46608e-10 
214 1 0.056348 0.0179714 0.00721966 0.00595044 0.000259191 0.000116141 4.6364e-10 -4.23292e-10 3.20058e-10 5e-05 1.46608e-10 
215 1 0.0441329 0.0170192 0.00753622 0.00528819 -0.00051614 0.000395086 -2.77305e-11 -4.34705e-11 5.20587e-11 5e-05 1.46608e-10 
216 1 0.0502748 0.0180361 0.00702442 0.00614706 1.64543e-05 -0.00028455 1.78974e-11 -2.61636e-10 5.68768e-11 5e-05 1.46608e-10 
217 1 0.0560935 0.0165945 0.00797333 0.00596185 -0.000695254 -0.000471561 1.97163e-11 -3.50013e-12 2.39727e-10 5e-05 1.46608e-10 
218 1 0.0503936 0.0181636 0.00699637 0.00619093 0.000132423 -0.000303887 2.19848e-11 3.48461e-11 7.33138e-11 5e-05 1.46608e-10 
219 1 0.0563593 0.0184275 0.00722527 0.00590048 0.000296574 -0.000148006 1.78847e-10 -4.06845e-11 2.0354e-10 5e-05 1.46608e-10 
220 1 0.0502319 0.0178428 0.00706067 0.00605077 -0.000373319 0.000287217 -7.98091e-10 5.91753e-09 -5.30583e-09 5e-05 1.46608e-10 
221 1 0.0440363 0.0165564 0.00769104 0.00546474 -0.000550315 0.000414231 8.92415e-12 3.09698e-11 -9.67908e-12 5e-05 1.46608e-10 
222 1 0.0561146 0.0166565 0.00789776 0.00583015 7.55572e-05 0.000148083 8.24541e-11 1.85458e-10 4.35386e-10 5e-05 1.46608e-10 
223 1 0.0503238 0.0174448 0.00720645 0.00569104 0.000394447 0.000307161 4.84095e-10 3.63955e-10 -1.65353e-10 5e-05 1.46608e-10 
224 1 0.0501339 0.017379 0.00721704 0.00564764 0.000334201 0.000326872 1.12192e-10 -1.17859e-10 1.36398e-10 5e-05 1.46608e-10 
225 1 0.0564181 0.017456 0.00721414 0.00585248 0.00042126 0.000552106 -2.86972e-11 5.33802e-11 1.88484e-10 5e-05 1.46608e-10 
226 1 0.0505141 0.0175092 0.00719642 0.00567662 0.000362626 0.000320052 6.45383e-11 6.26203e-11 -5.95755e-11 5e-05 1.46608e-10 
227 1 0.0441579 0.0166896 0.00765033 0.00528241 -0.000537232 0.000402258 -3.87546e-11 -4.64066e-12 4.27716e-13 5e-05 1.46608e-10 
228 1 0.0440763 0.0171714 0.00748271 0.00549846 -0.000536848 0.000538998 -8.68553e-11 -6.49262e-11 -7.38094e-12 5e-05 1.46608e-10 
229 1 0.0501601 0.017376 0.00731348 0.00563082 0.000391432 0.000322588 1.56072e-10 -3.78531e-10 3.7402e-10 5e-05 1.46608e-10 
230 1 0.0505552 0.0184826 0.00693239 0.00628896 7.96523e-05 -0.000304024 -1.60614e-10 -3.25699e-12 3.81113e-12 5e-05 1.46608e-10 
231 1 0.0440359 0.0169854 0.00754384 0.00529721 -0.000536354 0.00040198 -6.64988e-12 2.82678e-11 3.36838e-11 5e-05 1.46608e-10 
232 1 0.0500974 0.0164847 0.00784777 0.00582177 -0.00026394 -0.000660095 4.95764e-11 -9.40291e-12 -3.60679e-11 5e-05 1.46608e-10 
233 1 0.0502237 0.0169893 0.00739054 0.00563229 0.000385789 0.000301772 -4.0909e-10 2.1689e-10 -3.04493e-11 5e-05 1.46608e-10 
234 1 0.0564128 0.0182642 0.00721446 0.00592102 0.000321505 -0.000140424 -1.9024e-10 5.98538e-12 1.91206e-10 5e-05 1.46608e-10 
235 1 0.0505983 0.0186746 0.00689639 0.00631778 7.93227e-05 -0.000304009 2.17789e-11 -5.8451e-12 1.57011e-11 5e-05 1.46608e-10 
236 1 0.0505768 0.0185786 0.00691439 0.00630703 8.04696e-05 -0.000302833 -1.1081e-10 -2.19258e-11 -1.68695e-11 5e-05 1.46608e-10 
237 1 0.050652 0.0185132 0.00692254 0.00629448 6.37897e-05 -0.000301608 -1.27738e-10 -2.78515e-11 6.97434e-11 5e-05 1.46608e-10 
239 1 0.0438595 0.0161817 0.00787048 0.00569773 -0.000585684 0.000465491 -2.10801e-11 -2.78934e-11 2.396e-11 5e-05 1.46608e-10 
240 1 0.0439173 0.0164275 0.00773034 0.00546583 -0.000572481 0.000421875 -9.43143e-12 -1.77571e-11 4.72692e-12 5e-05 1.46608e-10 
241 1 0.0438407 0.0161232 0.00794934 0.00564752 -0.000578533 0.00045913 -8.26881e-12 -1.87538e-11 2.04592e-11 5e-05 1.46608e-10 
242 1 0.0503424 0.0171111 0.00734041 0.00559368 0.000429995 0.000284166 9.20649e-10 -1.86778e-10 5.92132e-11 5e-05 1.46608e-10 
243 1 0.0501304 0.0169535 0.00738564 0.00563638 0.000395882 0.000293664 -1.7452e-10 -6.90126e-11 -1.40041e-10 5e-05 1.46608e-10 
244 1 0.0438773 0.0162417 0.00779246 0.00548187 -0.000576291 0.0004238 -1.59088e-12 -2.59559e-11 8.80977e-12 5e-05 1.46608e-10 
246 1 0.0439967 0.0167993 0.00760605 0.00528395 -0.000535927 0.00040228 4.96696e-12 6.26369e-11 -1.72039e-11 5e-05 1.46608e-10 