ITEM: TIMESTEP
15800000
ITEM: NUMBER OF ATOMS
287
ITEM: BOX BOUNDS ff ff ff
-0.02 0.43
-0.02 0.06
-0.02 0.07
ITEM: ATOMS id type x y z vx vy vz fx fy fz radius mass 
1 1 0.104982 0.016463 0.00781177 0.0054827 8.7972e-05 -0.000334653 2.32399e-11 4.64142e-11 -2.74583e-11 5e-05 1.46608e-10 
2 1 0.105407 0.0174995 0.00712298 0.00581049 1.13216e-05 0.000356829 -5.68272e-12 -1.17996e-12 6.82949e-12 5e-05 1.46608e-10 
3 1 0.0987428 0.0158917 0.0082671 0.00574046 0.000151056 -0.000107796 -1.23247e-10 -7.03192e-11 1.14868e-10 5e-05 1.46608e-10 
4 1 0.105299 0.0178039 0.00702518 0.00631481 -5.3434e-06 -0.000272982 -5.4437e-11 5.32585e-11 -6.2168e-11 5e-05 1.46608e-10 
5 1 0.104867 0.0163564 0.00788705 0.00559753 0.00010918 -0.000354084 3.08551e-11 3.04696e-11 -2.2705e-11 5e-05 1.46608e-10 
6 1 0.11099 0.0168986 0.00763058 0.00584003 0.00109054 -0.000265152 2.02633e-12 -7.89175e-14 1.34849e-13 5e-05 1.46608e-10 
7 1 0.105043 0.0170918 0.00739882 0.00560433 8.25138e-05 -0.000337645 -8.7136e-11 -8.07354e-11 4.8635e-11 5e-05 1.46608e-10 
8 1 0.104766 0.0159486 0.00815798 0.00581306 6.84964e-05 -0.000337798 -2.63402e-11 -1.762e-10 9.77089e-11 5e-05 1.46608e-10 
9 1 0.111253 0.0180077 0.00701586 0.00641248 0.000755613 -0.000741987 7.66075e-13 4.54802e-13 6.79671e-13 5e-05 1.46608e-10 
10 1 0.104984 0.016847 0.00756213 0.00555404 8.50381e-05 -0.000336891 4.18847e-11 5.36414e-11 -2.90291e-11 5e-05 1.46608e-10 
11 1 0.105447 0.0176759 0.00703809 0.0062364 3.39419e-05 0.000580763 -7.47023e-11 -1.28318e-11 2.85039e-11 5e-05 1.46608e-10 
12 1 0.0989407 0.0166382 0.00763184 0.0056302 0.000139777 -9.81313e-05 -1.87288e-10 1.16424e-10 -8.33643e-11 5e-05 1.46608e-10 
13 1 0.104847 0.0162748 0.00794127 0.00560675 0.000104804 -0.000352134 5.31317e-11 -1.35637e-11 2.28587e-11 5e-05 1.46608e-10 
14 1 0.0986611 0.0155934 0.00852072 0.00570005 0.000102893 -0.000133642 1.13364e-11 -9.31944e-11 -4.05425e-10 5e-05 1.46608e-10 
15 1 0.105177 0.0172824 0.00727274 0.00562644 5.95424e-05 -0.00031998 -4.07447e-11 -5.94733e-11 -3.41736e-11 5e-05 1.46608e-10 
16 1 0.0986405 0.0155179 0.00858288 0.00566801 6.14767e-05 -0.000149018 -3.77785e-10 1.16205e-10 -1.22499e-10 5e-05 1.46608e-10 
17 1 0.104965 0.016765 0.00761581 0.00554093 8.42167e-05 -0.000334871 6.12606e-11 8.60896e-11 -5.54435e-11 5e-05 1.46608e-10 
18 1 0.111129 0.0174782 0.00726336 0.00621944 0.0010392 -0.000202711 1.54036e-12 3.1419e-13 -3.14721e-13 5e-05 1.46608e-10 
19 1 0.104827 0.0161931 0.00799548 0.00566547 9.01043e-05 -0.000344354 -1.33575e-10 2.41464e-11 -1.60439e-11 5e-05 1.46608e-10 
21 1 0.104962 0.0163813 0.00786602 0.00546335 9.62647e-05 -0.000339047 -9.99292e-11 4.63889e-11 -2.13666e-11 5e-05 1.46608e-10 
22 1 0.105082 0.0172553 0.00729067 0.005621 6.83016e-05 -0.000342556 4.82411e-11 -1.79198e-10 3.96114e-11 5e-05 1.46608e-10 
23 1 0.0991302 0.0170393 0.00729084 0.0057478 0.00018123 -0.000173023 -1.65065e-10 3.31225e-10 1.74153e-10 5e-05 1.46608e-10 
24 1 0.111189 0.0177331 0.00711851 0.00632703 0.000775203 -0.000742672 1.08175e-12 1.68688e-13 -4.59202e-13 5e-05 1.46608e-10 
25 1 0.105023 0.0170101 0.00745309 0.00558765 8.72819e-05 -0.000338273 4.92581e-11 -2.1793e-11 2.9098e-11 5e-05 1.46608e-10 
26 1 0.111069 0.0172298 0.00742074 0.00605685 0.00106121 -0.000229485 1.75434e-12 9.49003e-15 -2.80404e-13 5e-05 1.46608e-10 
27 1 0.0990165 0.0169373 0.00737733 0.00569399 0.000134114 -9.40787e-05 1.38449e-10 1.35695e-10 -1.49453e-10 5e-05 1.46608e-10 
28 1 0.105276 0.0177041 0.00701903 0.0062544 -8.91012e-05 -0.000345059 1.95914e-11 5.23156e-11 1.48672e-11 5e-05 1.46608e-10 
29 1 0.104807 0.0161116 0.00804965 0.00581801 6.15911e-05 -0.000333148 5.7533e-11 2.90177e-11 -5.75217e-11 5e-05 1.46608e-10 
30 1 0.105312 0.0174701 0.00713863 0.00574243 2.36718e-05 -0.000306938 -3.79474e-11 1.11688e-10 -7.42843e-11 5e-05 1.46608e-10 
31 1 0.105062 0.0171737 0.00734489 0.00561634 7.22868e-05 -0.000340641 -3.27949e-11 -1.19342e-10 8.94401e-12 5e-05 1.46608e-10 
32 1 0.105157 0.0172008 0.00732729 0.00561626 5.19511e-05 -0.000330766 -7.93535e-11 -2.16532e-11 4.81804e-11 5e-05 1.46608e-10 
33 1 0.11101 0.0169814 0.00757812 0.00589424 0.00108321 -0.000256248 1.76481e-12 6.61039e-14 1.76845e-13 5e-05 1.46608e-10 
34 1 0.104945 0.0166832 0.00767008 0.00552202 8.85446e-05 -0.00033693 7.6835e-11 1.01163e-10 -6.64962e-11 5e-05 1.46608e-10 
35 1 0.105137 0.0171176 0.00737901 0.00560456 5.85538e-05 -0.000327546 2.9581e-12 -9.09397e-11 -1.78673e-11 5e-05 1.46608e-10 
36 1 0.111295 0.0181908 0.00694742 0.00646949 0.000742557 -0.000741553 4.8142e-13 4.52946e-13 2.23135e-15 5e-05 1.46608e-10 
37 1 0.105099 0.0169533 0.00748627 0.00556265 7.60641e-05 -0.00033006 7.09848e-11 -2.93306e-11 1.26647e-11 5e-05 1.46608e-10 
38 1 0.105253 0.0172246 0.00730164 0.00562265 4.96626e-05 -0.000314829 -8.42388e-11 8.85746e-12 -1.18374e-12 5e-05 1.46608e-10 
39 1 0.11121 0.0178246 0.00708429 0.0063555 0.000768661 -0.000742476 8.55583e-13 1.76199e-13 -2.39662e-13 5e-05 1.46608e-10 
41 1 0.104906 0.0165198 0.00777857 0.00548759 0.000114906 -0.00035259 -8.35632e-11 2.33345e-10 -1.50341e-10 5e-05 1.46608e-10 
42 1 0.105101 0.0173377 0.00723736 0.00564539 6.91515e-05 -0.000332552 -1.4094e-10 -2.1206e-10 3.80506e-11 5e-05 1.46608e-10 
44 1 0.105273 0.0173067 0.00724711 0.00560405 1.60447e-05 -0.000295378 -3.33353e-11 3.92896e-11 -2.40655e-11 5e-05 1.46608e-10 
45 1 0.11103 0.0170642 0.00752566 0.00594843 0.00107589 -0.000247313 1.92096e-12 4.4933e-14 1.88878e-13 5e-05 1.46608e-10 
46 1 0.111109 0.0173954 0.00731582 0.00616524 0.00104653 -0.000211648 1.32234e-12 4.55664e-13 1.39455e-13 5e-05 1.46608e-10 
47 1 0.104926 0.0166015 0.00772432 0.00550475 9.80487e-05 -0.000342184 4.25051e-11 1.9809e-10 -1.31998e-10 5e-05 1.46608e-10 
48 1 0.105141 0.0175061 0.00713765 0.00558099 5.84378e-05 -0.000388168 1.13665e-10 -1.95047e-10 4.71572e-11 5e-05 1.46608e-10 
49 1 0.111089 0.0173126 0.00736828 0.00611104 0.00105387 -0.000220569 1.49325e-12 2.67026e-13 -1.70709e-14 5e-05 1.46608e-10 
50 1 0.105201 0.0177709 0.00702238 0.00626121 -8.75544e-05 -0.000348301 2.4648e-11 9.08085e-11 1.89754e-11 5e-05 1.46608e-10 
51 1 0.105182 0.0176741 0.00703824 0.00609169 -5.63403e-05 -0.00037677 -1.23832e-10 1.30925e-10 1.60884e-10 5e-05 1.46608e-10 
52 1 0.098921 0.0165635 0.00769539 0.00559742 0.000149781 -0.000107214 -1.09067e-10 -3.50925e-13 -2.09308e-12 5e-05 1.46608e-10 
53 1 0.111148 0.017561 0.0072109 0.00627365 0.00103185 -0.000193813 1.34669e-12 2.95306e-13 -5.00852e-13 5e-05 1.46608e-10 
54 1 0.104943 0.0162996 0.00792025 0.0055651 8.73381e-05 -0.000338347 -1.18639e-10 -7.74709e-11 5.49055e-11 5e-05 1.46608e-10 
55 1 0.0987019 0.0157427 0.00839397 0.00572566 0.000152997 -0.000110966 1.03147e-10 3.13522e-10 -3.40016e-10 5e-05 1.46608e-10 
56 1 0.105118 0.017035 0.00743202 0.00559305 6.9225e-05 -0.000327799 -2.72883e-11 1.56666e-11 -8.42879e-13 5e-05 1.46608e-10 
57 1 0.111049 0.017147 0.0074732 0.00600264 0.00106855 -0.000238407 1.67201e-12 1.68878e-13 1.90678e-13 5e-05 1.46608e-10 
59 1 0.105175 0.0168977 0.00751864 0.00554358 5.83827e-05 -0.000318054 1.0784e-10 3.71452e-11 -2.52146e-11 5e-05 1.46608e-10 
60 1 0.105195 0.0169794 0.00746439 0.00557831 5.17032e-05 -0.000315619 1.84418e-11 3.36028e-11 -2.11791e-11 5e-05 1.46608e-10 
61 1 0.104887 0.0164381 0.00783282 0.00547927 0.000133242 -0.000364409 2.97362e-11 9.88736e-11 -6.06353e-11 5e-05 1.46608e-10 
62 1 0.105293 0.0173883 0.00719289 0.00567004 5.59127e-06 -0.000288991 6.16756e-11 4.10868e-11 -4.45816e-11 5e-05 1.46608e-10 
63 1 0.105235 0.0175251 0.00710666 0.00576333 3.80239e-05 -0.000317321 -1.61109e-10 -6.7923e-11 4.20832e-11 5e-05 1.46608e-10 
64 1 0.111168 0.0176438 0.00715844 0.00632782 0.00102451 -0.000184901 1.42247e-12 3.09172e-13 3.93177e-14 5e-05 1.46608e-10 
65 1 0.0990548 0.0167392 0.00754621 0.0056303 0.000121274 -8.28772e-05 1.85481e-10 1.12262e-10 -9.54655e-11 5e-05 1.46608e-10 
66 1 0.0989978 0.0165149 0.00773709 0.00555433 0.000122538 -8.43634e-05 -1.8459e-10 1.93731e-11 -1.40576e-11 5e-05 1.46608e-10 
67 1 0.105426 0.0175853 0.00707511 0.00602729 6.62622e-05 0.000544237 -2.29065e-11 -1.69829e-11 6.9586e-12 5e-05 1.46608e-10 
68 1 0.105352 0.017649 0.00705389 0.0061542 4.96782e-05 7.52439e-05 -1.13456e-11 4.81157e-12 2.0272e-11 5e-05 1.46608e-10 
69 1 0.10504 0.0167082 0.00764901 0.00554286 7.50818e-05 -0.000329302 5.72976e-11 6.68949e-11 -4.5477e-11 5e-05 1.46608e-10 
70 1 0.111231 0.0179162 0.00705007 0.00638399 0.000762143 -0.000742214 1.01524e-12 2.19812e-13 4.05703e-14 5e-05 1.46608e-10 
71 1 0.0986815 0.0156681 0.00845741 0.00571217 0.000152251 -0.000111037 -2.70024e-10 2.18194e-10 -2.96111e-10 5e-05 1.46608e-10 
72 1 0.105332 0.017552 0.00708427 0.00572176 -0.000395741 -3.17764e-05 1.58469e-11 2.40086e-11 -3.61761e-11 5e-05 1.46608e-10 
73 1 0.105004 0.0169283 0.00750734 0.00557303 8.73078e-05 -0.000338221 5.50806e-11 1.57551e-11 -3.90841e-12 5e-05 1.46608e-10 
74 1 0.105196 0.017362 0.0072154 0.00565279 5.92644e-05 -0.000317526 -2.55492e-11 -3.88507e-11 -4.89116e-11 5e-05 1.46608e-10 
76 1 0.0992517 0.0176052 0.0071351 0.0061951 5.55446e-05 -2.50056e-05 -2.1486e-10 -1.14611e-10 -5.40364e-11 5e-05 1.46608e-10 
77 1 0.10534 0.0184003 0.00700707 0.00616356 -6.32854e-05 -0.000343314 2.75072e-12 -6.72565e-12 1.60776e-12 5e-05 1.46608e-10 
78 1 0.0987633 0.0159663 0.00820366 0.00577176 0.000131293 -9.29411e-05 -3.74486e-11 -1.30037e-10 1.00086e-10 5e-05 1.46608e-10 
79 1 0.0989588 0.0167131 0.00756811 0.0056272 0.000139968 -9.6884e-05 1.01589e-10 1.9317e-10 -1.46734e-10 5e-05 1.46608e-10 
80 1 0.105244 0.0179656 0.00703443 0.00622246 -7.90139e-05 -0.000350925 1.39497e-12 4.95535e-11 -6.83121e-11 5e-05 1.46608e-10 
81 1 0.0989016 0.0164888 0.00775896 0.00552168 0.000166108 -0.000119885 -3.50212e-11 -5.92021e-11 4.55524e-11 5e-05 1.46608e-10 
82 1 0.0990356 0.0170176 0.00732091 0.00571732 0.000136876 -9.47362e-05 5.3714e-11 7.35982e-11 -2.87729e-10 5e-05 1.46608e-10 
83 1 0.0990941 0.0165408 0.00771536 0.00561136 9.75671e-05 -6.3052e-05 1.35047e-10 1.03599e-10 -9.17645e-11 5e-05 1.46608e-10 
84 1 0.111274 0.0180993 0.00698164 0.00644099 0.000749088 -0.000741747 1.10332e-12 4.80921e-14 -9.72129e-13 5e-05 1.46608e-10 
85 1 0.0988811 0.0160667 0.00811851 0.00558878 0.000130484 -9.12946e-05 -4.54267e-10 -1.40544e-10 1.2151e-10 5e-05 1.46608e-10 
86 1 0.105255 0.0176072 0.00705214 0.00586903 -0.000248613 -0.000140031 -5.14926e-11 9.14798e-11 -4.76401e-11 5e-05 1.46608e-10 
87 1 0.105156 0.016816 0.00757291 0.00552221 6.60788e-05 -0.000322436 1.48358e-10 4.22069e-11 -3.58065e-11 5e-05 1.46608e-10 
88 1 0.105278 0.018119 0.00701391 0.00620812 -7.68105e-05 -0.000345149 -1.24998e-12 -2.22093e-12 -6.61904e-12 5e-05 1.46608e-10 
89 1 0.105266 0.0180493 0.00708452 0.00621447 -8.02906e-05 -0.000345931 1.87612e-11 1.46073e-11 -2.67388e-11 5e-05 1.46608e-10 
90 1 0.105389 0.0174148 0.00717282 0.0055548 -0.000131648 1.12501e-05 1.81759e-11 1.40969e-11 1.80971e-11 5e-05 1.46608e-10 
91 1 0.098978 0.0167878 0.0075045 0.00563215 0.000136886 -9.60902e-05 2.36898e-10 1.52216e-10 -1.27523e-10 5e-05 1.46608e-10 
92 1 0.105412 0.0179411 0.00700857 0.00622567 -6.64343e-05 -0.000347896 -4.75251e-11 -2.07875e-11 -1.40594e-11 5e-05 1.46608e-10 
93 1 0.105376 0.0180976 0.00700892 0.00621162 -5.94784e-05 -0.000345671 1.68969e-11 -6.98491e-12 -5.44628e-12 5e-05 1.46608e-10 
94 1 0.105471 0.0182539 0.00700152 0.00618573 -3.91583e-05 -0.000344866 -2.08485e-12 -2.11683e-11 1.08842e-12 5e-05 1.46608e-10 
95 1 0.105399 0.018003 0.00708602 0.00622625 -6.14707e-05 -0.000349932 -1.26284e-12 -4.18475e-11 -6.01849e-12 5e-05 1.46608e-10 
96 1 0.105452 0.0180331 0.00700524 0.00622166 -4.53949e-05 -0.000346838 3.47751e-11 -1.98829e-11 1.78227e-12 5e-05 1.46608e-10 
97 1 0.0988638 0.0163393 0.00788624 0.0054461 0.000170532 -0.000125742 2.71585e-10 -3.80956e-11 3.31483e-11 5e-05 1.46608e-10 
98 1 0.105299 0.0182117 0.00704564 0.00619257 -7.21897e-05 -0.000344389 -6.33764e-12 -1.81226e-11 -1.05417e-11 5e-05 1.46608e-10 
99 1 0.0990356 0.0166645 0.00760981 0.00562751 0.000122132 -8.36184e-05 4.17326e-12 7.12648e-11 -4.91614e-11 5e-05 1.46608e-10 
100 1 0.105349 0.0172506 0.00727984 0.00541498 -0.000192749 -0.000148284 6.58554e-11 1.56895e-11 -1.30224e-11 5e-05 1.46608e-10 
101 1 0.0989784 0.0164402 0.00780067 0.00549261 0.000130652 -9.12157e-05 -8.93178e-11 -7.62857e-11 6.9035e-11 5e-05 1.46608e-10 
102 1 0.0643568 0.0187248 0.00531097 4.10616e-15 1.05398e-14 8.2963e-14 1.65631e-21 -5.62586e-22 -1.90252e-23 5e-05 1.46608e-10 
103 1 0.24257 0.0191927 0.00520306 4.16735e-22 6.65775e-22 8.29106e-22 3.23117e-27 2.58494e-26 0 5e-05 1.46608e-10 
104 1 0.0993265 0.0175407 0.0071509 0.00615591 4.52722e-05 -2.60149e-05 -7.59838e-11 3.66294e-11 -4.62647e-11 5e-05 1.46608e-10 
105 1 0.0988243 0.01619 0.0080133 0.00556235 0.000156643 -0.000113304 -6.69169e-11 6.55209e-11 -7.42635e-11 5e-05 1.46608e-10 
106 1 0.0994012 0.0174762 0.00716672 0.00612891 1.84039e-05 -1.51113e-05 -4.52218e-10 -1.15968e-10 8.40297e-12 5e-05 1.46608e-10 
107 1 0.0987837 0.0160408 0.00814022 0.00574556 0.00012274 -8.35461e-05 -9.87155e-12 -1.25048e-10 8.6006e-11 5e-05 1.46608e-10 
108 1 0.105079 0.0168716 0.00754064 0.0055418 7.86693e-05 -0.000332423 -1.02113e-11 -1.07598e-11 -2.21513e-11 5e-05 1.46608e-10 
109 1 0.105161 0.0175867 0.00708202 0.00576989 6.3578e-07 -0.000415606 1.82303e-15 5.40315e-11 1.31145e-10 5e-05 1.46608e-10 
110 1 0.105519 0.018351 0.00699768 0.00616898 -2.97014e-05 -0.000344055 1.42974e-11 -3.56245e-11 1.15007e-12 5e-05 1.46608e-10 
111 1 0.10535 0.0184225 0.00710408 0.00615791 -5.00195e-05 -0.000345578 6.6794e-12 -1.71946e-11 2.93285e-12 5e-05 1.46608e-10 
112 1 0.0988834 0.0164141 0.00782291 0.00546247 0.00016764 -0.000122964 -2.40388e-10 -5.87e-11 3.55514e-11 5e-05 1.46608e-10 
113 1 0.0997301 0.0181713 0.00699557 0.00604494 0.000337275 -7.60429e-05 -1.69251e-10 2.04926e-10 -5.01005e-11 5e-05 1.46608e-10 
114 1 0.0992646 0.0172557 0.00722135 0.00577484 7.4674e-05 -2.81816e-05 -7.43213e-11 2.10451e-11 -2.77075e-11 5e-05 1.46608e-10 
115 1 0.105216 0.0174449 0.00716323 0.00570996 4.65918e-05 -0.000321406 -3.0592e-12 -2.88529e-11 3.67036e-11 5e-05 1.46608e-10 
116 1 0.105059 0.0167899 0.00759476 0.00554296 7.62996e-05 -0.000330098 6.99987e-11 4.68084e-11 -8.18053e-12 5e-05 1.46608e-10 
117 1 0.104922 0.0162178 0.0079746 0.00562292 0.000117219 -0.000360664 -1.0061e-10 -6.01716e-11 4.87427e-11 5e-05 1.46608e-10 
118 1 0.0987225 0.0158172 0.00833055 0.00571117 0.000156304 -0.000110353 1.72373e-10 9.24198e-11 -1.12577e-10 5e-05 1.46608e-10 
119 1 0.105214 0.0170612 0.00741014 0.00560013 4.90185e-05 -0.000315315 2.4539e-11 1.31466e-11 -2.51817e-11 5e-05 1.46608e-10 
120 1 0.104786 0.0160301 0.00810382 0.00581965 6.39189e-05 -0.000334708 -3.42329e-11 -1.46422e-10 8.85103e-11 5e-05 1.46608e-10 
121 1 0.104745 0.0158671 0.00821215 0.00581262 6.50491e-05 -0.000335987 -2.56366e-11 -6.84134e-11 5.38808e-11 5e-05 1.46608e-10 
122 1 0.105463 0.0185349 0.00699861 0.00614284 -4.46089e-05 -0.000342433 5.26682e-12 2.20255e-11 -7.52007e-13 5e-05 1.46608e-10 
123 1 0.0989208 0.016216 0.00799148 0.00545361 0.000132318 -9.26014e-05 2.10721e-10 -2.47502e-10 2.13536e-10 5e-05 1.46608e-10 
124 1 0.105332 0.018008 0.00701226 0.00622055 -6.84063e-05 -0.000346046 1.73617e-11 -1.08291e-13 -7.68134e-12 5e-05 1.46608e-10 
125 1 0.104902 0.016136 0.00802896 0.00567513 8.37723e-05 -0.000341032 6.24551e-12 1.81321e-10 -1.14949e-10 5e-05 1.46608e-10 
126 1 0.105121 0.0174186 0.00718184 0.00565515 6.34616e-05 -0.000331325 -9.64496e-11 -2.51307e-10 8.6164e-11 5e-05 1.46608e-10 
127 1 0.0988441 0.0162646 0.00794977 0.0055016 0.000164797 -0.000119684 1.20161e-10 4.46204e-11 -4.84457e-11 5e-05 1.46608e-10 
128 1 0.105223 0.0178685 0.00702311 0.00624584 -8.40013e-05 -0.000352067 8.04359e-12 8.24632e-11 -4.10208e-11 5e-05 1.46608e-10 
129 1 0.105356 0.0181457 0.0070943 0.00620525 -6.10716e-05 -0.000345306 -3.71881e-12 -3.07489e-11 -2.27331e-12 5e-05 1.46608e-10 
130 1 0.0991496 0.0171298 0.00725261 0.00572956 0.000192468 -5.7777e-05 -1.36898e-10 3.33639e-11 -9.90954e-11 5e-05 1.46608e-10 
131 1 0.0990175 0.0165896 0.00767355 0.00561456 0.000117968 -8.03794e-05 -1.92711e-10 2.27721e-11 -1.32241e-11 5e-05 1.46608e-10 
132 1 0.10532 0.0179036 0.00701419 0.00622787 -7.31701e-05 -0.000348011 2.64868e-11 3.40508e-12 2.92832e-11 5e-05 1.46608e-10 
133 1 0.105078 0.0164891 0.0077899 0.00549245 7.58847e-05 -0.000327203 4.43202e-11 -3.36873e-11 2.18933e-11 5e-05 1.46608e-10 
134 1 0.105234 0.0171428 0.00735591 0.00560917 5.01181e-05 -0.000314864 -2.55817e-11 4.95462e-12 -3.56315e-11 5e-05 1.46608e-10 
135 1 0.104882 0.0160544 0.00808317 0.00583398 8.69086e-05 -0.000350755 1.78034e-11 -8.81094e-11 6.5777e-11 5e-05 1.46608e-10 
136 1 0.0988605 0.0159922 0.00818196 0.00576568 0.000150532 -0.000107675 9.10912e-11 -4.19437e-11 4.00323e-11 5e-05 1.46608e-10 
137 1 0.105362 0.0184979 0.00700469 0.00614852 -5.99566e-05 -0.000342679 3.11866e-12 5.7748e-12 -5.08544e-13 5e-05 1.46608e-10 
138 1 0.105021 0.0166264 0.00770328 0.00550882 7.79382e-05 -0.000329508 1.24866e-10 2.17979e-11 -2.17869e-11 5e-05 1.46608e-10 
140 1 0.105442 0.0184373 0.00700098 0.00615732 -4.70933e-05 -0.000343194 5.44571e-12 7.12376e-12 1.21029e-12 5e-05 1.46608e-10 
141 1 0.0989011 0.0161413 0.00805501 0.00553714 0.000127649 -8.84752e-05 -1.83315e-10 -2.28748e-10 1.89618e-10 5e-05 1.46608e-10 
142 1 0.0992847 0.0173508 0.00719784 0.00579586 7.06702e-05 -2.50475e-05 -1.57436e-10 4.97013e-11 -1.49954e-11 5e-05 1.46608e-10 
143 1 0.0988043 0.0161156 0.00807705 0.00563732 0.000142265 -0.000100323 1.02596e-10 -8.92177e-13 1.75632e-11 5e-05 1.46608e-10 
144 1 0.0992444 0.0171606 0.00724485 0.0057562 0.000111253 -3.33881e-05 -9.0702e-12 -1.04043e-10 3.85548e-11 5e-05 1.46608e-10 
146 1 0.0991123 0.0166157 0.00765163 0.00561757 0.000108497 -7.22476e-05 -4.17265e-11 8.20422e-11 -7.11355e-11 5e-05 1.46608e-10 
147 1 0.0988393 0.015917 0.00824595 0.00576637 0.000125835 -8.60079e-05 1.14408e-10 -9.74282e-11 7.77956e-11 5e-05 1.46608e-10 
148 1 0.0990942 0.0172896 0.00721326 0.00575607 0.000175865 -5.26471e-05 1.66053e-10 4.12882e-11 -3.58498e-11 5e-05 1.46608e-10 
149 1 0.10542 0.0183397 0.00700336 0.00617198 -4.918e-05 -0.000343942 7.06356e-12 -1.34399e-11 3.33339e-12 5e-05 1.46608e-10 
150 1 0.0991519 0.016765 0.00752459 0.00563238 0.000103989 -6.84107e-05 2.20756e-10 1.26659e-10 -1.1221e-10 5e-05 1.46608e-10 
151 1 0.0995183 0.0176001 0.00713593 0.00609394 -4.58881e-05 1.82602e-06 1.0616e-10 -1.02413e-10 3.50875e-11 5e-05 1.46608e-10 
153 1 0.0989602 0.0163653 0.0078644 0.00545449 0.000135375 -9.56654e-05 -2.06133e-10 -9.54233e-11 7.53481e-11 5e-05 1.46608e-10 
154 1 0.0992097 0.0174154 0.00718202 0.00593772 7.46904e-05 -2.5432e-05 1.8325e-10 2.18035e-11 1.33616e-11 5e-05 1.46608e-10 
155 1 0.0992734 0.0177 0.00711166 0.00618275 2.92892e-05 -1.47561e-05 -7.74077e-11 -3.05264e-10 7.79259e-11 5e-05 1.46608e-10 
156 1 0.0991894 0.0173203 0.00720551 0.00585264 9.61298e-05 -3.0962e-05 1.50922e-10 5.03561e-11 -1.70387e-11 5e-05 1.46608e-10 
157 1 0.0219312 0.0187687 0.00551176 -3.82893e-14 8.16612e-14 2.95895e-13 -1.78878e-22 3.03885e-22 -9.47122e-23 5e-05 1.46608e-10 
158 1 0.0993088 0.0176139 0.00721673 0.00617303 2.24854e-05 -5.3499e-06 -2.12102e-10 -1.43459e-10 6.57786e-11 5e-05 1.46608e-10 
159 1 0.105381 0.0177506 0.00704754 0.0062829 0.000128037 0.000161022 -1.41143e-10 -4.07216e-11 -5.73335e-11 5e-05 1.46608e-10 
160 1 0.0991551 0.0175747 0.00714277 0.00617289 6.72302e-05 -2.64864e-05 -2.09061e-10 -1.70281e-10 -1.46623e-11 5e-05 1.46608e-10 
162 1 0.0991142 0.0173847 0.00718974 0.00586588 0.000152431 -4.68072e-05 2.2656e-10 -5.68069e-11 4.95294e-12 5e-05 1.46608e-10 
164 1 0.0994437 0.01808 0.00701759 0.00619173 1.89614e-05 -1.98678e-05 -1.71036e-10 -2.4977e-10 8.02151e-11 5e-05 1.46608e-10 
165 1 0.0996316 0.017859 0.00707187 0.00616896 -8.50208e-05 1.17125e-05 2.29891e-10 -3.88526e-11 6.21897e-12 5e-05 1.46608e-10 
166 1 0.105039 0.0163257 0.0078984 0.0054555 8.2803e-05 -0.000329744 -1.09807e-10 3.07119e-12 2.11084e-12 5e-05 1.46608e-10 
167 1 0.0991314 0.0166904 0.00758802 0.00562193 0.000109929 -7.34626e-05 1.03168e-10 8.14861e-11 -7.25535e-11 5e-05 1.46608e-10 
168 1 0.0994229 0.0175709 0.00714329 0.00614895 9.6001e-06 -1.17923e-05 5.7502e-11 -1.37306e-10 5.32825e-11 5e-05 1.46608e-10 
169 1 0.0996355 0.0181398 0.00700312 0.0061922 -0.000117796 3.41412e-05 -1.99383e-10 1.6287e-11 -2.71983e-12 5e-05 1.46608e-10 
170 1 0.0994446 0.0176657 0.00711986 0.00613491 -2.87463e-06 -8.31583e-06 3.66419e-10 -1.25246e-10 2.92742e-11 5e-05 1.46608e-10 
171 1 0.105058 0.0164074 0.00784415 0.00547956 7.69664e-05 -0.000327124 -3.72247e-11 -1.50029e-12 2.10397e-12 5e-05 1.46608e-10 
172 1 0.0995616 0.0177897 0.00708907 0.00615081 -6.61811e-05 6.70921e-06 4.09091e-10 -9.43359e-11 2.33998e-11 5e-05 1.46608e-10 
173 1 0.105493 0.0178718 0.00700487 0.00622872 -4.29602e-05 -0.000345531 1.29506e-11 -1.32086e-11 1.0298e-12 5e-05 1.46608e-10 
174 1 0.0993699 0.0177304 0.00710402 0.00614654 -5.91422e-08 -9.51945e-06 8.24973e-11 -2.24745e-10 3.09311e-11 5e-05 1.46608e-10 
175 1 0.0931328 0.0174599 0.00712413 0.0058271 0.000126911 -0.000184651 4.43013e-11 -2.01866e-11 -1.35304e-10 5e-05 1.46608e-10 
176 1 0.0991697 0.0172251 0.00722906 0.00575143 0.000117518 -3.96612e-05 -4.42281e-11 4.87511e-11 -6.7676e-12 5e-05 1.46608e-10 
177 1 0.0991985 0.0177642 0.00709591 0.0061973 4.26102e-05 -1.84619e-05 1.57518e-11 -1.43243e-10 4.34087e-11 5e-05 1.46608e-10 
178 1 0.0997097 0.0180748 0.00701898 0.00610571 -0.000207965 5.64468e-05 -1.75324e-10 1.12959e-10 -3.04768e-11 5e-05 1.46608e-10 
179 1 0.099615 0.0180432 0.00702655 0.00616526 -7.53723e-05 2.46514e-05 1.7552e-10 4.4043e-11 -1.29597e-11 5e-05 1.46608e-10 
181 1 0.0991331 0.0174855 0.00726607 0.00597477 0.000141865 -4.53499e-05 2.89479e-11 2.09339e-11 -1.2697e-10 5e-05 1.46608e-10 
182 1 0.105001 0.0165447 0.00775752 0.00549878 8.18255e-05 -0.000331027 1.32038e-10 2.43455e-11 -2.84193e-11 5e-05 1.46608e-10 
183 1 0.0993483 0.0176356 0.00712744 0.006162 1.15368e-05 -1.10281e-05 3.61644e-11 -9.93286e-11 5.24189e-11 5e-05 1.46608e-10 
184 1 0.105382 0.0178963 0.00709283 0.00622191 -6.18213e-05 -0.000346246 2.24184e-11 1.00016e-10 6.77504e-11 5e-05 1.46608e-10 
185 1 0.0990749 0.0171943 0.00723679 0.00572108 0.000180652 -5.29263e-05 -6.34932e-11 1.34869e-10 -3.51028e-11 5e-05 1.46608e-10 
186 1 0.0991711 0.0173932 0.00727153 0.00590982 0.000114318 -2.78275e-05 -3.60127e-11 4.65269e-11 -3.20114e-11 5e-05 1.46608e-10 
187 1 0.105329 0.0171689 0.00733407 0.00538885 -0.000185961 -0.000151261 -7.99292e-11 4.56273e-11 -3.41453e-11 5e-05 1.46608e-10 
188 1 0.10539 0.0181967 0.00700677 0.00619497 -5.52922e-05 -0.000344931 -9.40742e-12 -1.13328e-11 3.33874e-12 5e-05 1.46608e-10 
189 1 0.105369 0.0173322 0.00722561 0.00545404 -0.000202202 -0.000143227 8.29873e-11 2.65638e-12 -7.64331e-13 5e-05 1.46608e-10 
190 1 0.0932712 0.0176747 0.00705606 0.0062998 0.000117253 0.000148769 5.77043e-11 2.32412e-12 4.72078e-12 5e-05 1.46608e-10 
191 1 0.105384 0.0185955 0.00700232 0.00613357 -5.68385e-05 -0.000341763 4.61631e-12 2.2268e-11 -2.87514e-13 5e-05 1.46608e-10 
192 1 0.0993595 0.0172863 0.00721366 0.00588727 7.48329e-05 -2.73007e-05 6.57326e-11 -2.23256e-10 7.36386e-11 5e-05 1.46608e-10 
193 1 0.105136 0.0167343 0.00762713 0.00553898 7.13818e-05 -0.000326821 2.90533e-11 8.7352e-11 -5.67504e-11 5e-05 1.46608e-10 
194 1 0.0991889 0.0169147 0.00739721 0.00565672 9.22016e-05 -5.92107e-05 1.53297e-10 1.85402e-10 -1.58131e-10 5e-05 1.46608e-10 
195 1 0.0996537 0.0179537 0.00704846 0.00618678 -8.23352e-05 1.15703e-05 2.03725e-10 -4.88381e-11 1.04232e-11 5e-05 1.46608e-10 
196 1 0.0986198 0.0154423 0.00864503 0.00627035 -4.9019e-05 -7.68656e-05 -3.22987e-10 3.13089e-10 -2.97661e-10 5e-05 1.46608e-10 
197 1 0.0931971 0.0177408 0.00704431 0.00630392 0.000125465 0.000145734 1.6789e-11 -1.93684e-11 1.40851e-11 5e-05 1.46608e-10 
198 1 0.0989985 0.0168624 0.00744107 0.00565571 0.000135031 -9.43829e-05 2.11056e-10 1.51523e-10 -1.08104e-10 5e-05 1.46608e-10 
199 1 0.0991348 0.0174797 0.00716626 0.0059924 0.00012182 -4.12621e-05 1.93859e-10 -9.42953e-11 9.41503e-12 5e-05 1.46608e-10 
200 1 0.0991125 0.0169636 0.00735521 0.00567982 0.000108712 -7.20509e-05 1.48307e-10 2.05098e-10 -2.09318e-10 5e-05 1.46608e-10 
201 1 0.0995809 0.0182212 0.0069833 0.00632072 -3.45696e-05 1.47082e-05 -1.63599e-10 -1.41738e-11 -5.9925e-12 5e-05 1.46608e-10 
202 1 0.0993801 0.0173813 0.00719018 0.00606322 3.73652e-05 -1.87552e-05 -5.76531e-10 -1.40749e-10 3.6111e-11 5e-05 1.46608e-10 
203 1 0.105597 0.0182888 0.00699407 0.00618053 -1.37935e-05 -0.000344916 1.07833e-11 -4.84657e-11 -6.61574e-13 5e-05 1.46608e-10 
204 1 0.0990933 0.0168886 0.00741903 0.00567523 0.000115126 -7.76948e-05 1.90654e-10 1.68761e-10 -1.41388e-10 5e-05 1.46608e-10 
205 1 0.0994109 0.0180193 0.00710365 0.0061908 3.04451e-05 -2.57335e-05 4.93271e-11 1.36091e-10 3.47034e-10 5e-05 1.46608e-10 
206 1 0.0993916 0.0178251 0.00708059 0.00616285 -4.54653e-06 -8.10741e-06 3.15334e-10 -2.86723e-10 6.60347e-11 5e-05 1.46608e-10 
207 1 0.0989406 0.0162907 0.00792795 0.00542609 0.000135405 -9.57434e-05 -2.97683e-10 -1.32081e-10 1.17615e-10 5e-05 1.46608e-10 
208 1 0.0992305 0.0175103 0.00715855 0.00589298 0.000110253 -3.3443e-05 -6.57309e-11 1.74364e-10 4.07691e-11 5e-05 1.46608e-10 
209 1 0.09917 0.0168399 0.00746084 0.00565353 9.73054e-05 -6.25187e-05 1.8584e-10 1.85521e-10 -1.5251e-10 5e-05 1.46608e-10 
210 1 0.105233 0.0177267 0.00710644 0.00624415 -9.29502e-05 -0.000348389 -1.55143e-11 1.36749e-11 1.0803e-11 5e-05 1.46608e-10 
211 1 0.105473 0.0181412 0.00700279 0.00620511 -3.93982e-05 -0.000346216 -3.45763e-11 -2.69764e-11 3.66656e-12 5e-05 1.46608e-10 
212 1 0.0994662 0.0177605 0.00709644 0.00614227 -2.54801e-05 -3.07325e-06 4.22738e-10 -2.3074e-10 7.36561e-11 5e-05 1.46608e-10 
213 1 0.10531 0.0170871 0.00738834 0.00537125 -0.000181111 -0.000153283 -2.43901e-11 4.02028e-11 -2.63006e-11 5e-05 1.46608e-10 
214 1 0.105441 0.0180938 0.00708493 0.00621243 -5.12862e-05 -0.000349578 -6.96543e-12 -4.83384e-11 5.79015e-12 5e-05 1.46608e-10 
215 1 0.0932492 0.0175794 0.00707647 0.00612272 0.000155058 0.000135591 -1.57666e-10 7.4111e-11 -2.75342e-11 5e-05 1.46608e-10 
216 1 0.0991768 0.0176695 0.00711934 0.00619556 5.37008e-05 -2.24633e-05 -5.07985e-11 -1.03805e-11 -1.88313e-11 5e-05 1.46608e-10 
217 1 0.105097 0.0165708 0.00773565 0.00549889 7.14199e-05 -0.00032433 7.47846e-11 -6.66805e-11 3.85948e-11 5e-05 1.46608e-10 
218 1 0.0993168 0.0178895 0.0070648 0.00618629 1.71356e-05 -1.43166e-05 2.25413e-10 -1.90656e-10 2.42274e-11 5e-05 1.46608e-10 
219 1 0.105391 0.0182727 0.00707176 0.00618379 -5.50522e-05 -0.000344432 -4.80559e-12 -2.51774e-11 6.1475e-12 5e-05 1.46608e-10 
220 1 0.0992339 0.0176784 0.00720094 0.00617025 6.5236e-05 -1.355e-05 -2.13827e-10 -5.50404e-11 1.14843e-10 5e-05 1.46608e-10 
221 1 0.093149 0.0171625 0.00732629 0.00562132 8.5596e-05 -0.000302639 -9.442e-11 3.43768e-11 -2.03168e-11 5e-05 1.46608e-10 
222 1 0.105117 0.0166526 0.00768138 0.0055548 7.62392e-05 -0.000330425 1.64498e-10 1.50387e-10 -1.08932e-10 5e-05 1.46608e-10 
223 1 0.0993052 0.0174458 0.00717436 0.00585446 5.89317e-05 -2.67865e-05 -3.14936e-10 3.90891e-11 -7.90151e-12 5e-05 1.46608e-10 
224 1 0.0990555 0.0171033 0.00727346 0.00572424 0.000162891 -7.5983e-05 -7.45713e-11 1.28967e-10 -2.4736e-10 5e-05 1.46608e-10 
225 1 0.105398 0.0178418 0.00701054 0.00623936 -6.29014e-05 -0.000341095 -2.98082e-11 3.06918e-11 6.64084e-11 5e-05 1.46608e-10 
226 1 0.09954 0.0176949 0.0071125 0.00611156 -5.67658e-05 4.67096e-06 7.64576e-10 -1.10092e-10 2.93106e-11 5e-05 1.46608e-10 
227 1 0.0932088 0.0174018 0.00715316 0.00558823 -0.000169398 -0.000127951 -2.74629e-10 8.58633e-11 -1.3028e-10 5e-05 1.46608e-10 
228 1 0.0931541 0.0175516 0.00709037 0.00611924 0.000134779 3.30958e-05 6.33998e-11 -1.87352e-11 1.19658e-10 5e-05 1.46608e-10 
229 1 0.0992123 0.0175834 0.00722436 0.0061705 0.000142657 -1.29512e-05 -4.50033e-10 1.52701e-10 -7.55064e-11 5e-05 1.46608e-10 
230 1 0.0995075 0.0182872 0.0069672 0.00647993 0.000128817 -2.52833e-05 6.05319e-11 1.88106e-10 -4.05503e-11 5e-05 1.46608e-10 
231 1 0.0931125 0.0173765 0.00717537 0.00568766 9.875e-05 -0.000301355 -1.11033e-10 -2.66944e-11 -7.12607e-12 5e-05 1.46608e-10 
232 1 0.0990745 0.0164662 0.00777891 0.00551415 8.93958e-05 -5.60587e-05 -2.83226e-10 4.86088e-11 -4.43368e-11 5e-05 1.46608e-10 
233 1 0.099207 0.0169906 0.00733257 0.00572762 0.000183826 -0.00014338 3.04741e-11 3.0181e-10 -2.14683e-10 5e-05 1.46608e-10 
234 1 0.105319 0.0183027 0.00700944 0.0061791 -6.77091e-05 -0.000343629 -1.95251e-12 -1.44683e-11 1.14287e-12 5e-05 1.46608e-10 
235 1 0.0994695 0.0185414 0.00690547 0.00574186 0.000191 -4.13975e-05 1.20445e-10 1.75752e-11 -9.23286e-12 5e-05 1.46608e-10 
236 1 0.0995271 0.0183826 0.00694406 0.00566751 0.000135841 -2.71775e-05 -2.01154e-10 -4.34507e-11 6.354e-11 5e-05 1.46608e-10 
237 1 0.0996214 0.018415 0.00693629 0.00580401 0.000270777 -6.01258e-05 -5.25904e-11 -3.67808e-10 8.92033e-11 5e-05 1.46608e-10 
239 1 0.0929373 0.0166612 0.00769276 0.00553004 0.000112184 -0.000318363 1.46188e-10 -3.40115e-11 1.90592e-11 5e-05 1.46608e-10 
240 1 0.0929957 0.0168996 0.0075203 0.00558975 0.00010126 -0.000312056 1.90525e-10 1.67845e-10 -1.11157e-10 5e-05 1.46608e-10 
241 1 0.0929179 0.0165817 0.00775025 0.00552 0.000116813 -0.000320916 1.66232e-11 6.67247e-12 -4.48121e-12 5e-05 1.46608e-10 
242 1 0.0993194 0.0170961 0.00726067 0.0057526 9.95065e-05 -3.3361e-05 -4.81871e-11 -3.89032e-11 -9.13932e-12 5e-05 1.46608e-10 
243 1 0.0990753 0.0168137 0.00748278 0.00564707 0.000119475 -8.16213e-05 1.97116e-10 1.47504e-10 -1.1833e-10 5e-05 1.46608e-10 
244 1 0.0929568 0.0167407 0.00763527 0.00553668 0.000114967 -0.000320304 -2.56835e-10 -2.83646e-11 2.11586e-11 5e-05 1.46608e-10 
246 1 0.0930736 0.0172175 0.00729034 0.00564181 0.0001013 -0.000316164 -2.05993e-11 -5.2572e-11 1.85244e-11 5e-05 1.46608e-10 