ITEM: TIMESTEP
11200000
ITEM: NUMBER OF ATOMS
287
ITEM: BOX BOUNDS ff ff ff
-0.02 0.43
-0.02 0.06
-0.02 0.07
ITEM: ATOMS id type x y z vx vy vz fx fy fz radius mass 
1 1 0.0781188 0.0162958 0.00781688 0.00552751 -0.000320655 0.000200475 -2.30435e-10 2.33726e-10 -1.21686e-10 5e-05 1.46608e-10 
2 1 0.0785484 0.0172847 0.00724827 0.00619535 -0.000409445 0.000252414 -3.0655e-10 1.73701e-11 8.37963e-11 5e-05 1.46608e-10 
3 1 0.0718549 0.0157005 0.00846156 0.00550815 0.000120246 -7.54941e-05 -2.73584e-11 -2.14776e-11 7.21627e-11 5e-05 1.46608e-10 
4 1 0.0784452 0.0176531 0.00702867 0.00541636 -0.000622396 -0.000284347 -6.02427e-10 1.02069e-10 -4.6836e-11 5e-05 1.46608e-10 
5 1 0.0780048 0.0161825 0.00788181 0.00555572 -0.000372391 0.000232098 6.5272e-11 8.3063e-11 -8.93709e-11 5e-05 1.46608e-10 
6 1 0.0841764 0.0168933 0.00750875 0.00614941 -4.05192e-05 -0.000328007 1.65048e-11 -9.68572e-13 -2.02446e-13 5e-05 1.46608e-10 
7 1 0.0781938 0.0169459 0.00744248 0.00606199 -0.000432632 0.000212148 -4.74958e-11 2.95674e-10 2.66101e-10 5e-05 1.46608e-10 
8 1 0.077909 0.0158191 0.00819272 0.00555239 -0.00016972 0.000183033 -1.35644e-10 -1.92611e-10 3.09448e-10 5e-05 1.46608e-10 
9 1 0.0844516 0.0180703 0.00703187 0.00579775 0.00013218 -8.10768e-05 1.18204e-11 1.57961e-11 -1.39024e-11 5e-05 1.46608e-10 
10 1 0.0781291 0.016692 0.00758858 0.0060515 -0.000385823 0.000239886 5.94767e-11 2.2589e-10 -1.45941e-10 5e-05 1.46608e-10 
11 1 0.0785846 0.0174559 0.0071499 0.00623378 -0.000387675 0.000342936 -8.4997e-11 1.883e-10 -1.08476e-10 5e-05 1.46608e-10 
12 1 0.0720589 0.0164535 0.00783599 0.00600052 3.01303e-05 -3.48788e-05 -3.68059e-10 3.16846e-11 -3.50637e-11 5e-05 1.46608e-10 
13 1 0.0779854 0.0160973 0.00793087 0.00561358 -0.000181738 0.000122541 -6.85499e-11 -3.25334e-10 1.5373e-10 5e-05 1.46608e-10 
14 1 0.0717765 0.0153955 0.00870814 0.0056764 0.000166268 4.43851e-05 -1.20498e-10 -2.3725e-10 1.72353e-10 5e-05 1.46608e-10 
15 1 0.0783335 0.0171425 0.00732968 0.00613234 -0.000421491 0.000244921 4.98416e-10 2.08772e-10 -7.29222e-10 5e-05 1.46608e-10 
16 1 0.0717564 0.0153265 0.00877762 0.00571211 -1.71827e-05 -0.000147991 -1.84165e-10 -1.68702e-10 2.62607e-10 5e-05 1.46608e-10 
17 1 0.0781075 0.0166074 0.00763728 0.00603806 -0.000375203 0.000233864 5.58095e-11 1.7765e-10 -1.04385e-10 5e-05 1.46608e-10 
18 1 0.0843285 0.0175193 0.00723508 0.00616787 6.15779e-05 -5.77602e-05 -9.53094e-12 -2.19627e-11 9.59821e-12 5e-05 1.46608e-10 
19 1 0.0779661 0.0160123 0.00797982 0.00563475 -0.000195154 0.000131745 -9.92762e-11 -4.19468e-10 2.85849e-10 5e-05 1.46608e-10 
21 1 0.0780994 0.0162108 0.00786581 0.0055338 -0.000331409 0.000208693 3.78406e-11 2.33319e-10 -1.25585e-10 5e-05 1.46608e-10 
22 1 0.0782371 0.0171156 0.0073459 0.00611836 -0.000416154 0.000196511 5.35384e-11 3.62385e-10 -3.40281e-10 5e-05 1.46608e-10 
23 1 0.0722428 0.0167824 0.00756275 0.00614437 2.45711e-05 -3.34136e-05 -6.0997e-11 -1.39476e-10 3.94602e-12 5e-05 1.46608e-10 
24 1 0.0843929 0.0177942 0.00713367 0.00568652 0.000156509 -8.91751e-05 -8.34418e-12 -2.04139e-11 1.11045e-11 5e-05 1.46608e-10 
25 1 0.0781723 0.0168612 0.00749117 0.00605981 -0.000413386 0.000251543 2.89659e-11 9.96758e-11 6.22327e-11 5e-05 1.46608e-10 
26 1 0.0842633 0.017251 0.0073523 0.00615976 -4.87225e-05 -0.000325233 -1.05223e-11 -1.5881e-11 9.00066e-13 5e-05 1.46608e-10 
27 1 0.0721429 0.0167544 0.00758619 0.00613057 3.23173e-05 -3.97036e-05 -1.70629e-10 -1.06433e-11 4.75597e-11 5e-05 1.46608e-10 
28 1 0.0784314 0.0175652 0.0070801 0.00566575 -0.000312185 0.000331548 1.66333e-10 -1.69587e-10 2.02484e-10 5e-05 1.46608e-10 
29 1 0.0779468 0.0159272 0.00802876 0.00566159 -0.00021114 0.000137305 -1.53425e-10 -4.99325e-10 2.27136e-10 5e-05 1.46608e-10 
30 1 0.0784718 0.0173402 0.0072161 0.00618503 -0.000407326 0.000254696 -1.18305e-10 2.07816e-10 -1.04901e-10 5e-05 1.46608e-10 
31 1 0.0782154 0.0170306 0.00739391 0.00608064 -0.000442469 0.000163833 -1.59413e-10 5.03129e-10 5.54978e-11 5e-05 1.46608e-10 
32 1 0.0783118 0.0170579 0.00737874 0.0060891 -0.000434707 0.000214274 -1.88601e-10 1.03581e-10 -1.70636e-10 5e-05 1.46608e-10 
33 1 0.0841982 0.0169827 0.00746964 0.00615157 -4.19029e-05 -0.000327129 -2.49234e-11 2.35441e-13 1.45466e-12 5e-05 1.46608e-10 
34 1 0.0780859 0.0165227 0.00768599 0.00602775 -0.000374116 0.000233368 1.02791e-10 3.19997e-10 -1.79656e-10 5e-05 1.46608e-10 
35 1 0.0782902 0.016973 0.00742709 0.00603291 -0.000402692 0.000237035 -2.61693e-10 1.60774e-10 -8.43753e-11 5e-05 1.46608e-10 
36 1 0.0844904 0.0182544 0.00696398 0.00560862 0.000166775 -9.27336e-05 1.00962e-11 5.60734e-11 -1.81748e-11 5e-05 1.46608e-10 
37 1 0.078247 0.0168038 0.0075245 0.00604264 -0.000404861 0.000250583 -3.6724e-12 3.77401e-11 -3.00046e-11 5e-05 1.46608e-10 
38 1 0.0784084 0.0170851 0.00736285 0.00612444 -0.000453364 0.000266112 4.4335e-10 6.01278e-11 -2.58884e-10 5e-05 1.46608e-10 
39 1 0.0844125 0.0178862 0.00709974 0.0057215 0.000148112 -8.68886e-05 -5.2965e-13 -1.5236e-11 1.89429e-12 5e-05 1.46608e-10 
41 1 0.0780436 0.0163533 0.0077835 0.00536082 -0.000300751 0.000188589 -5.31514e-10 4.47152e-10 -2.54919e-10 5e-05 1.46608e-10 
42 1 0.0782586 0.0171997 0.00729636 0.00614117 -0.000376394 0.000261107 1.62391e-10 2.82253e-10 -5.21038e-10 5e-05 1.46608e-10 
44 1 0.0784305 0.0171703 0.00731384 0.00608922 -0.000439512 0.000268953 8.50126e-11 -2.41834e-11 1.48325e-10 5e-05 1.46608e-10 
45 1 0.0842199 0.0170721 0.00743052 0.00615438 -4.478e-05 -0.000326787 1.08945e-11 -1.51559e-11 -1.73122e-12 5e-05 1.46608e-10 
46 1 0.0843068 0.0174299 0.00727408 0.00616327 -5.14853e-05 -0.000323481 -2.36225e-11 -1.68461e-11 1.37123e-11 5e-05 1.46608e-10 
47 1 0.0780643 0.0164381 0.00773469 0.00599205 -0.000424324 0.000261941 9.33636e-11 3.13619e-10 -1.84929e-10 5e-05 1.46608e-10 
48 1 0.0783017 0.0173674 0.00719624 0.00618761 -0.000304407 0.000340648 -4.83552e-11 1.96417e-10 -1.29014e-10 5e-05 1.46608e-10 
49 1 0.0842851 0.0173404 0.00731319 0.00616117 -5.04527e-05 -0.000324483 9.00735e-12 -2.31755e-11 1.47818e-11 5e-05 1.46608e-10 
50 1 0.0783605 0.0176357 0.00707897 0.00567861 -0.000293352 0.000174083 -1.00955e-10 -5.24942e-11 8.02716e-11 5e-05 1.46608e-10 
51 1 0.0783403 0.0175451 0.007116 0.00562919 -0.000237151 0.000280725 2.01912e-10 -5.53494e-11 2.92351e-10 5e-05 1.46608e-10 
52 1 0.0720379 0.0163783 0.00789844 0.00597013 3.72685e-05 -4.22925e-05 -1.03673e-10 9.66257e-11 -5.92689e-11 5e-05 1.46608e-10 
53 1 0.0843502 0.0176109 0.0072013 0.00616256 6.11443e-05 -5.68094e-05 -5.49208e-12 -2.62824e-11 3.05332e-12 5e-05 1.46608e-10 
54 1 0.0780801 0.0161254 0.00791494 0.00561067 -0.000171408 0.000115667 5.96788e-11 -2.99511e-10 1.26288e-10 5e-05 1.46608e-10 
55 1 0.0718159 0.0155493 0.00858645 0.00550397 0.00018717 3.21737e-05 3.28303e-11 -8.22411e-11 1.1881e-10 5e-05 1.46608e-10 
56 1 0.0782686 0.0168884 0.0074758 0.00603103 -0.00040347 0.000242304 3.44231e-11 9.64131e-11 -5.51958e-11 5e-05 1.46608e-10 
57 1 0.0842416 0.0171616 0.00739141 0.00615633 -4.64289e-05 -0.000325402 -9.57785e-12 -1.65611e-11 1.86909e-11 5e-05 1.46608e-10 
59 1 0.0783216 0.0167461 0.00755794 0.00602771 -0.000394576 0.000245578 2.59979e-10 2.85127e-11 -3.78414e-11 5e-05 1.46608e-10 
60 1 0.0783432 0.0168308 0.00750923 0.00602057 -0.000394024 0.000244832 1.25694e-10 7.2196e-11 -1.17042e-10 5e-05 1.46608e-10 
61 1 0.0780242 0.0162678 0.00783275 0.00553603 -0.000342252 0.000213462 -1.03876e-10 4.72169e-11 -5.77726e-12 5e-05 1.46608e-10 
62 1 0.0784523 0.0172554 0.00726532 0.00612287 -0.000533039 2.49181e-05 2.84673e-11 3.63361e-10 1.63353e-10 5e-05 1.46608e-10 
63 1 0.0783964 0.017396 0.00718137 0.00619937 -0.00031177 0.000353574 -4.10671e-11 3.63617e-10 -2.01499e-10 5e-05 1.46608e-10 
64 1 0.084372 0.0177025 0.00716751 0.00615879 6.14061e-05 -5.72949e-05 -6.31395e-12 -1.05785e-11 3.61198e-12 5e-05 1.46608e-10 
65 1 0.0721589 0.0164815 0.00781255 0.00601092 1.93578e-05 -3.06008e-05 1.4415e-10 -5.97525e-11 6.3808e-11 5e-05 1.46608e-10 
66 1 0.072096 0.0162563 0.00800053 0.00590586 2.65227e-05 -3.35363e-05 -1.20486e-10 9.88146e-12 -7.47929e-12 5e-05 1.46608e-10 
67 1 0.0785682 0.0173703 0.00719897 0.00618528 -0.000428522 0.00025571 -1.00672e-10 2.65204e-11 -1.14871e-10 5e-05 1.46608e-10 
68 1 0.0785089 0.017512 0.00711419 0.00571057 -0.000238852 0.00028811 -9.6194e-11 -8.93524e-11 7.85805e-11 5e-05 1.46608e-10 
69 1 0.0781822 0.0165499 0.00767061 0.00603292 -0.00038889 0.00024126 8.15684e-11 1.48765e-10 -8.79523e-11 5e-05 1.46608e-10 
70 1 0.084432 0.0179783 0.0070658 0.00575945 0.000139956 -8.38635e-05 -3.59254e-12 -1.67437e-12 3.33704e-12 5e-05 1.46608e-10 
71 1 0.0717964 0.0154724 0.00864734 0.00556276 0.000189711 5.03705e-05 -2.15511e-11 -1.70559e-10 1.25989e-10 5e-05 1.46608e-10 
72 1 0.0784909 0.0174248 0.00716635 0.00620598 -0.000328278 0.000358002 1.46545e-10 1.35579e-10 -1.29381e-11 5e-05 1.46608e-10 
73 1 0.0781507 0.0167766 0.00753987 0.0060538 -0.000403872 0.000250352 4.55437e-11 6.47297e-11 -1.04045e-11 5e-05 1.46608e-10 
74 1 0.0783551 0.0172271 0.00728097 0.00614227 -0.000406782 0.000269997 3.75989e-10 3.09938e-10 -4.34303e-10 5e-05 1.46608e-10 
76 1 0.0723713 0.0172686 0.00722233 0.00622825 -0.000227008 -4.85167e-05 -2.19206e-10 -5.57798e-11 1.87644e-10 5e-05 1.46608e-10 
77 1 0.078596 0.0183397 0.00708176 0.00558363 -0.000491941 0.000672208 2.34364e-10 -2.29295e-10 -6.39346e-11 5e-05 1.46608e-10 
78 1 0.0718745 0.0157757 0.00839864 0.00553005 0.000109825 -0.000106056 -5.33081e-12 -4.49667e-11 3.34314e-11 5e-05 1.46608e-10 
79 1 0.0720799 0.0165287 0.00777354 0.00603934 1.82759e-05 -2.73875e-05 2.4983e-10 1.24205e-10 -5.38514e-11 5e-05 1.46608e-10 
80 1 0.0784203 0.0179216 0.00702564 0.00571488 -0.000453208 -0.000150129 -1.08468e-10 -2.48969e-10 3.28324e-10 5e-05 1.46608e-10 
81 1 0.072017 0.016303 0.00796089 0.00593776 5.12781e-05 -5.35104e-05 -1.84608e-10 3.90485e-11 -3.36987e-11 5e-05 1.46608e-10 
82 1 0.0721638 0.0168296 0.00752372 0.00616489 2.672e-05 -3.59365e-05 -9.11162e-11 -1.12345e-10 6.15099e-11 5e-05 1.46608e-10 
83 1 0.0721599 0.0161398 0.00809607 0.00584333 3.75553e-06 -1.4576e-05 -1.32662e-11 6.54778e-11 -6.12864e-11 5e-05 1.46608e-10 
84 1 0.0844712 0.0181623 0.00699794 0.00583615 0.000124893 -7.86943e-05 1.42371e-11 3.43695e-11 -8.655e-12 5e-05 1.46608e-10 
85 1 0.0719732 0.015804 0.00837502 0.0055069 4.21087e-05 -4.56343e-05 -1.70895e-10 -9.56782e-11 6.65939e-11 5e-05 1.46608e-10 
86 1 0.0784154 0.0174805 0.00713081 0.0057077 -0.000342955 0.000344572 -3.39311e-10 -1.76506e-10 5.06712e-11 5e-05 1.46608e-10 
87 1 0.0783 0.0166615 0.00760664 0.00604003 -0.000397513 0.000246611 5.31864e-11 7.93633e-11 -2.58099e-11 5e-05 1.46608e-10 
88 1 0.0784815 0.0182141 0.00704737 0.00563893 -0.000511185 0.000648487 1.34999e-11 8.89758e-11 -1.58215e-10 5e-05 1.46608e-10 
89 1 0.0784408 0.0180194 0.00702755 0.00570315 -0.000447791 6.53324e-05 -6.03232e-11 -6.37028e-11 5.90585e-10 5e-05 1.46608e-10 
90 1 0.0785284 0.017199 0.00729754 0.00614751 -0.000367009 0.000221407 -1.21277e-10 -1.78515e-10 1.86817e-10 5e-05 1.46608e-10 
91 1 0.0721009 0.0166039 0.00771108 0.00604662 1.10777e-05 -2.40427e-05 9.17959e-11 -1.83006e-11 2.70378e-11 5e-05 1.46608e-10 
92 1 0.0785494 0.0176927 0.00703936 0.0058011 -0.000434442 1.33869e-05 9.74506e-11 1.20274e-11 -7.15395e-11 5e-05 1.46608e-10 
93 1 0.0785354 0.0180511 0.00702007 0.00574244 -0.00047252 0.000688856 1.44313e-10 8.17444e-11 1.21366e-10 5e-05 1.46608e-10 
94 1 0.07861 0.0179845 0.00701795 0.00567126 -0.00053772 0.000661285 -2.76951e-10 -1.37681e-10 -1.24005e-10 5e-05 1.46608e-10 
95 1 0.0783997 0.0178238 0.00702797 0.00572641 -0.000452733 -0.000291866 3.242e-10 -6.52849e-11 -8.68847e-11 5e-05 1.46608e-10 
96 1 0.0785695 0.0177886 0.00701966 0.00569386 -0.000528647 -0.00061271 -2.25986e-10 4.24157e-11 -2.06646e-10 5e-05 1.46608e-10 
97 1 0.071975 0.0161526 0.00808579 0.00586046 5.89198e-05 -6.10426e-05 2.32748e-10 -5.16887e-11 3.67946e-11 5e-05 1.46608e-10 
98 1 0.0785014 0.0183096 0.00706909 0.00559847 -0.000521793 0.000690091 1.03098e-10 -1.10434e-10 1.73837e-10 5e-05 1.46608e-10 
99 1 0.072138 0.0164063 0.00787501 0.00597208 2.76223e-05 -3.34113e-05 2.3319e-10 5.61091e-12 5.08012e-11 5e-05 1.46608e-10 
100 1 0.078483 0.0170275 0.00739628 0.00609417 -0.000503453 0.000311229 4.23424e-10 -4.87896e-10 1.13123e-10 5e-05 1.46608e-10 
101 1 0.072075 0.0161806 0.00806235 0.00586733 3.11935e-05 -3.63056e-05 -5.17897e-11 5.8269e-11 -5.64624e-11 5e-05 1.46608e-10 
102 1 0.0643568 0.0187248 0.00531097 4.16012e-15 1.05537e-14 8.29586e-14 -1.06306e-22 4.26231e-22 -4.42542e-23 5e-05 1.46608e-10 
103 1 0.24257 0.0191927 0.00520306 3.10422e-23 4.86658e-23 1.23839e-22 0 0 0 5e-05 1.46608e-10 
104 1 0.072409 0.0170613 0.00738217 0.00627077 -8.07907e-06 -4.33683e-05 -2.77862e-11 8.87783e-11 2.06469e-11 5e-05 1.46608e-10 
105 1 0.0719339 0.016002 0.00821081 0.00567428 0.000108834 -0.000101291 -4.25726e-11 -8.4319e-11 6.73246e-11 5e-05 1.46608e-10 
106 1 0.0724905 0.0170028 0.00737944 0.00624137 -2.98116e-05 1.29756e-05 -9.9627e-11 8.33225e-11 -8.56576e-11 5e-05 1.46608e-10 
107 1 0.0718941 0.0158512 0.00833601 0.00554098 0.000122034 -0.000111632 -1.11029e-10 -6.65508e-11 2.01345e-11 5e-05 1.46608e-10 
108 1 0.0782254 0.0167192 0.0075732 0.00604582 -0.0004025 0.000250199 3.92934e-11 7.57346e-11 -4.58206e-11 5e-05 1.46608e-10 
109 1 0.0783208 0.0174516 0.00714587 0.00565667 -0.000228832 0.000269505 9.05639e-11 -1.52667e-10 1.43803e-12 5e-05 1.46608e-10 
110 1 0.0786644 0.0178196 0.00701403 0.00570546 -0.000464079 -0.000288976 -5.11991e-11 3.85527e-11 5.21561e-11 5e-05 1.46608e-10 
111 1 0.0785422 0.0185018 0.00710587 0.00596561 -0.000594875 0.000702199 7.81864e-11 -2.61195e-10 -6.43023e-11 5e-05 1.46608e-10 
112 1 0.071996 0.0162278 0.00802334 0.00588609 5.45014e-05 -5.65846e-05 -1.27574e-10 -2.02381e-10 1.25454e-10 5e-05 1.46608e-10 
113 1 0.0728016 0.0174884 0.00722898 0.00608013 4.44528e-05 1.23963e-05 -4.17312e-11 1.16535e-10 -9.17434e-13 5e-05 1.46608e-10 
114 1 0.072349 0.0168168 0.00753404 0.00614495 6.32447e-06 -1.62748e-05 -1.20747e-11 4.89789e-11 -2.49465e-11 5e-05 1.46608e-10 
115 1 0.0783766 0.0173116 0.00723184 0.00615368 -0.000324624 0.000350673 1.51845e-10 3.12168e-10 -2.20461e-10 5e-05 1.46608e-10 
116 1 0.0782038 0.0166345 0.00762191 0.0060394 -0.000397059 0.000246246 7.46299e-11 1.35292e-10 -7.72603e-11 5e-05 1.46608e-10 
117 1 0.0780607 0.0160404 0.00796388 0.00561527 -0.000171483 0.000107065 -1.4497e-10 -4.04031e-10 2.32145e-10 5e-05 1.46608e-10 
118 1 0.0718354 0.015625 0.00852412 0.00549702 0.000157792 -1.31372e-05 5.79167e-11 -1.63442e-11 1.08707e-10 5e-05 1.46608e-10 
119 1 0.0783648 0.0169154 0.00746053 0.00601863 -0.00039505 0.000241568 -1.26446e-10 2.43305e-10 -1.51828e-10 5e-05 1.46608e-10 
120 1 0.0779284 0.0158724 0.00811034 0.00562246 -0.000216626 0.000147497 -4.48101e-10 -3.87926e-10 2.32601e-10 5e-05 1.46608e-10 
121 1 0.0778902 0.0157665 0.00827562 0.00552647 -0.00016472 0.000191449 3.49309e-12 -6.17134e-11 2.24782e-10 5e-05 1.46608e-10 
122 1 0.0786849 0.0179174 0.00701577 0.00566491 -0.000466331 0.000692815 -1.58279e-10 4.30015e-11 1.41187e-10 5e-05 1.46608e-10 
123 1 0.0720131 0.0159548 0.00824984 0.00567503 2.9516e-05 -3.51895e-05 -1.04318e-10 -3.86628e-12 9.93163e-12 5e-05 1.46608e-10 
124 1 0.0784948 0.017855 0.00702237 0.00571297 -0.000483655 -0.000349674 -2.17094e-10 5.53783e-11 -8.64856e-10 5e-05 1.46608e-10 
125 1 0.0780414 0.0159554 0.00801283 0.00564607 -0.000171505 0.000118073 -6.50677e-13 -3.93394e-10 2.41068e-10 5e-05 1.46608e-10 
126 1 0.0782802 0.0172836 0.00724634 0.00617425 -0.000331524 0.000318327 1.71462e-10 2.55298e-10 -3.3419e-10 5e-05 1.46608e-10 
127 1 0.0719543 0.0160773 0.00814828 0.00578272 8.26517e-05 -8.08034e-05 -2.17482e-12 -1.20063e-10 1.07241e-10 5e-05 1.46608e-10 
128 1 0.0783793 0.017727 0.00704271 0.00572517 -0.000421277 -0.000147427 6.83934e-11 -3.13238e-11 -3.30709e-10 5e-05 1.46608e-10 
129 1 0.0784615 0.0181171 0.00703323 0.00568735 -0.000471004 0.000387051 4.00775e-11 5.47304e-11 -1.93349e-10 5e-05 1.46608e-10 
130 1 0.0722641 0.0168576 0.00750034 0.00616291 2.81757e-05 -3.6523e-05 -1.45029e-10 -4.18496e-11 8.4609e-11 5e-05 1.46608e-10 
131 1 0.072117 0.016331 0.00793745 0.00593745 2.88321e-05 -3.4383e-05 5.17318e-11 5.41709e-11 -2.79806e-12 5e-05 1.46608e-10 
132 1 0.0784737 0.0177565 0.00702528 0.00532948 -0.000903564 -0.0002665 -3.01322e-10 6.15758e-11 -1.14367e-10 5e-05 1.46608e-10 
133 1 0.0782146 0.0163229 0.00780156 0.00602027 -0.000369849 0.000230083 1.04456e-09 -1.55521e-10 8.81409e-11 5e-05 1.46608e-10 
134 1 0.0783864 0.0170001 0.0074118 0.00609091 -0.000456196 0.000203504 -1.61826e-10 1.04166e-10 1.26019e-10 5e-05 1.46608e-10 
135 1 0.0780237 0.0158875 0.00808412 0.00564176 -0.00012457 0.000152516 -2.91762e-10 -1.98564e-10 4.41306e-10 5e-05 1.46608e-10 
136 1 0.0719536 0.0157285 0.00843764 0.0054654 4.54187e-05 -4.94893e-05 -1.03021e-10 -8.23241e-11 4.26736e-11 5e-05 1.46608e-10 
137 1 0.0785619 0.018598 0.00712491 0.0063887 -0.000674818 0.000748053 -1.94907e-10 -3.21871e-10 -6.60814e-11 5e-05 1.46608e-10 
138 1 0.0781606 0.0164653 0.00771932 0.00604663 -0.000384567 0.000239097 -7.5626e-11 1.85319e-10 -9.93271e-11 5e-05 1.46608e-10 
140 1 0.0787042 0.0180134 0.00703617 0.00567144 -0.000467849 0.000687578 -1.04376e-10 2.82618e-11 -2.15479e-11 5e-05 1.46608e-10 
141 1 0.071993 0.0158794 0.00831241 0.0055871 3.44466e-05 -3.90444e-05 -2.05421e-10 -5.9334e-11 5.09583e-11 5e-05 1.46608e-10 
142 1 0.0723738 0.0168913 0.00747218 0.00614849 7.78836e-06 -1.63715e-05 -7.73263e-11 3.76432e-11 -7.94124e-11 5e-05 1.46608e-10 
143 1 0.0719138 0.0159266 0.00827338 0.005595 0.000121539 -0.000110495 -2.64136e-10 1.0277e-11 1.24409e-12 5e-05 1.46608e-10 
144 1 0.0723277 0.0167416 0.00759645 0.00611003 7.76887e-06 -1.68684e-05 1.27335e-10 4.17988e-11 -1.34899e-11 5e-05 1.46608e-10 
146 1 0.0721808 0.016215 0.00803361 0.00588497 5.64063e-06 -1.60198e-05 -9.477e-11 1.01263e-10 -6.19883e-11 5e-05 1.46608e-10 
147 1 0.071934 0.0156531 0.00850028 0.00544797 4.65376e-05 -5.05454e-05 -9.77238e-12 -5.34591e-11 2.25913e-11 5e-05 1.46608e-10 
148 1 0.0722267 0.0170553 0.00733636 0.00628034 1.45748e-05 -1.56725e-05 -6.90476e-11 1.0405e-10 -1.57091e-10 5e-05 1.46608e-10 
149 1 0.0786301 0.0180806 0.00703848 0.00566946 -0.000471001 0.000686043 -1.98923e-10 -3.27719e-11 -1.4081e-11 5e-05 1.46608e-10 
150 1 0.0722229 0.0163654 0.00790872 0.00595277 7.06336e-06 -1.89037e-05 1.98113e-10 -1.88414e-11 -4.43158e-11 5e-05 1.46608e-10 
151 1 0.0725757 0.017043 0.00734591 0.00624926 -3.23953e-05 1.68306e-05 -9.1006e-11 5.27255e-11 -9.43675e-11 5e-05 1.46608e-10 
153 1 0.0720541 0.0161054 0.0081248 0.00581999 3.25198e-05 -3.81115e-05 1.13801e-10 -3.85177e-11 3.20669e-11 5e-05 1.46608e-10 
154 1 0.0723209 0.017084 0.00731242 0.00629597 2.62717e-05 -5.94568e-05 -1.06719e-10 -7.71713e-12 3.95077e-11 5e-05 1.46608e-10 
155 1 0.0723909 0.0173666 0.00722497 0.00615555 -0.000213394 4.31682e-06 -4.81919e-11 -2.84849e-11 -7.09533e-12 5e-05 1.46608e-10 
156 1 0.0723082 0.0170076 0.00737575 0.00622764 3.30489e-05 -4.5422e-05 -3.17015e-10 -3.65402e-12 5.68038e-12 5e-05 1.46608e-10 
157 1 0.0219312 0.0187687 0.00551176 -3.84077e-14 8.16427e-14 2.95885e-13 -9.54592e-22 8.57166e-23 -1.64816e-22 5e-05 1.46608e-10 
158 1 0.0724028 0.0171406 0.00732157 0.00632073 -7.08125e-06 -5.6683e-05 -8.06547e-11 5.14618e-11 1.36655e-11 5e-05 1.46608e-10 
159 1 0.078524 0.0175987 0.00706223 0.00573044 -0.000368289 0.00037118 -5.63976e-12 -2.5615e-10 -1.28189e-10 5e-05 1.46608e-10 
160 1 0.0722929 0.0173308 0.00722383 0.00620321 -0.000260479 9.82601e-06 -1.12652e-10 -1.30936e-10 1.88309e-11 5e-05 1.46608e-10 
162 1 0.0722498 0.0171382 0.00726755 0.00632676 6.04383e-05 -6.6358e-05 -7.17093e-11 -9.84061e-11 -1.72173e-11 5e-05 1.46608e-10 
164 1 0.0725681 0.0177415 0.00723533 0.00595359 -6.66988e-05 9.20864e-06 -1.33078e-10 -1.05926e-11 -3.68489e-12 5e-05 1.46608e-10 
165 1 0.0726676 0.0172605 0.00722263 0.00630267 -3.96667e-05 1.12677e-05 -3.00232e-11 7.85406e-11 -4.31505e-12 5e-05 1.46608e-10 
166 1 0.0781749 0.016153 0.00789934 0.00565154 -0.000285594 0.00018203 4.56435e-10 -4.66093e-10 2.57066e-10 5e-05 1.46608e-10 
167 1 0.0722018 0.0162902 0.00797117 0.00591668 7.50907e-06 -1.77722e-05 -1.72844e-11 4.27412e-11 -5.3518e-11 5e-05 1.46608e-10 
168 1 0.0724821 0.0170799 0.00731634 0.00631394 -2.2758e-05 7.0745e-06 -1.03522e-10 6.71572e-11 -5.38611e-11 5e-05 1.46608e-10 
169 1 0.0727266 0.0175545 0.00723061 0.00605439 2.36723e-05 1.20174e-05 1.01353e-11 9.07797e-11 1.64488e-12 5e-05 1.46608e-10 
170 1 0.0725583 0.017198 0.00722076 0.00637235 -3.57334e-05 8.39616e-06 -6.98649e-11 -1.11347e-12 -2.36295e-11 5e-05 1.46608e-10 
171 1 0.0781946 0.0162379 0.00785044 0.00586919 -0.000332431 0.000208892 8.00091e-10 -2.60764e-10 1.68789e-10 5e-05 1.46608e-10 
172 1 0.0726495 0.0171647 0.00724482 0.00636002 -4.60441e-05 2.25954e-05 -5.64675e-12 -3.23576e-13 -9.08702e-12 5e-05 1.46608e-10 
173 1 0.0786638 0.017403 0.00718038 0.00629379 -0.000368112 0.000229212 -1.22741e-10 1.08103e-10 -2.86468e-11 5e-05 1.46608e-10 
174 1 0.0724698 0.0172514 0.00722203 0.00625383 -9.37996e-06 1.67262e-05 -2.48234e-10 2.34846e-10 1.01309e-10 5e-05 1.46608e-10 
175 1 0.0663287 0.0174954 0.00715479 0.00559971 -0.000573795 0.000234083 8.55583e-11 8.01192e-11 5.51788e-11 5e-05 1.46608e-10 
176 1 0.0722874 0.0169324 0.00743827 0.00618317 3.58986e-05 -3.77718e-05 -3.76438e-10 5.47594e-11 8.41737e-11 5e-05 1.46608e-10 
177 1 0.0723323 0.0175268 0.00722915 0.00608977 -0.000242021 6.08624e-06 -3.14603e-11 -1.04271e-10 -2.7267e-11 5e-05 1.46608e-10 
178 1 0.0727821 0.0173901 0.00722631 0.00614262 7.12606e-05 1.24712e-05 -5.63069e-11 2.39433e-10 2.09174e-12 5e-05 1.46608e-10 
179 1 0.0727069 0.0174565 0.00722795 0.00610533 7.20841e-06 1.05206e-05 -5.8484e-11 1.14186e-10 1.26504e-11 5e-05 1.46608e-10 
181 1 0.0722609 0.0172453 0.00738497 0.0060884 5.49987e-05 -5.61073e-06 1.31319e-10 4.98052e-11 1.01491e-11 5e-05 1.46608e-10 
182 1 0.0781394 0.0163806 0.00776806 0.00579663 -0.000354753 0.000221246 -3.101e-10 2.502e-10 -1.56657e-10 5e-05 1.46608e-10 
183 1 0.0724732 0.0171561 0.00725227 0.00636748 -3.34426e-05 -2.04161e-05 -1.18943e-10 3.67276e-11 -1.01636e-10 5e-05 1.46608e-10 
184 1 0.0784648 0.0176473 0.00712655 0.00538846 6.5939e-05 -0.000242413 -3.03793e-10 3.81436e-11 -6.76536e-10 5e-05 1.46608e-10 
185 1 0.0722058 0.0169801 0.00739883 0.00623364 1.60314e-05 -2.24784e-05 6.1454e-11 1.09512e-10 -9.20919e-11 5e-05 1.46608e-10 
186 1 0.0722434 0.0171481 0.00736981 0.00620817 3.35963e-05 9.11576e-06 5.26852e-11 8.28619e-11 -2.21998e-10 5e-05 1.46608e-10 
187 1 0.0784608 0.0169423 0.0074453 0.00612276 -0.000397358 0.000247205 -4.3238e-11 -1.7449e-11 8.11723e-11 5e-05 1.46608e-10 
188 1 0.0785563 0.018148 0.00704086 0.00565947 -0.000484574 0.000677528 -1.21924e-10 6.14821e-11 -5.41502e-11 5e-05 1.46608e-10 
189 1 0.0785059 0.0171134 0.00734685 0.0060968 -0.0004043 0.000246418 -3.462e-11 -8.01561e-11 1.05023e-10 5e-05 1.46608e-10 
190 1 0.066429 0.0175934 0.00705604 0.0056306 -0.0006106 0.00022972 1.16391e-10 4.56863e-11 5.77069e-11 5e-05 1.46608e-10 
191 1 0.0785848 0.0186931 0.00714565 0.006192 -0.000621653 0.000731112 1.81961e-10 -3.43478e-10 -4.21563e-11 5e-05 1.46608e-10 
192 1 0.0724594 0.0168514 0.0075051 0.00615775 -2.56352e-05 9.65519e-06 -1.09708e-10 1.52179e-10 -1.10685e-10 5e-05 1.46608e-10 
193 1 0.0782784 0.0165769 0.00765534 0.00603809 -0.000393872 0.000244375 5.64398e-11 1.25477e-10 -7.83496e-11 5e-05 1.46608e-10 
194 1 0.0722647 0.0165159 0.0077838 0.00601506 8.49537e-06 -1.87182e-05 1.72044e-10 2.67987e-11 2.12568e-11 5e-05 1.46608e-10 
195 1 0.0726872 0.0173585 0.00722529 0.00618124 -1.35267e-05 1.14141e-05 -6.02085e-11 1.16383e-10 1.15729e-11 5e-05 1.46608e-10 
196 1 0.0717366 0.0152444 0.00883121 0.00570814 -0.000148367 -0.000374346 -1.11838e-10 -1.50651e-10 3.18866e-10 5e-05 1.46608e-10 
197 1 0.0663875 0.0177676 0.0070521 0.00569123 -0.000605847 0.000231957 2.86776e-11 8.78669e-12 6.43576e-12 5e-05 1.46608e-10 
198 1 0.0721218 0.0166792 0.00764863 0.00611225 2.35112e-05 -2.86931e-05 -1.07156e-10 7.34141e-11 -2.99316e-11 5e-05 1.46608e-10 
199 1 0.0722713 0.017224 0.00722093 0.00572704 0.000258078 1.5785e-05 -1.50055e-10 -5.33888e-11 1.67005e-11 5e-05 1.46608e-10 
200 1 0.072222 0.0167072 0.00762521 0.0061068 2.32372e-05 -3.12258e-05 -1.48495e-10 -4.73427e-11 6.63993e-11 5e-05 1.46608e-10 
201 1 0.0726725 0.0177867 0.00723673 0.00595916 1.57663e-05 1.12322e-05 -1.24072e-10 6.14778e-11 1.37644e-12 5e-05 1.46608e-10 
202 1 0.0724838 0.016926 0.00744315 0.00618782 -2.96393e-05 1.27762e-05 -8.15709e-11 1.17565e-10 -9.0642e-11 5e-05 1.46608e-10 
203 1 0.0786834 0.0174883 0.00713132 0.00634284 -0.000129455 0.000103073 -1.54666e-10 1.98433e-10 -1.40259e-10 5e-05 1.46608e-10 
204 1 0.072201 0.0166319 0.00768766 0.00606658 2.5093e-05 -3.09264e-05 5.62322e-11 -5.78849e-11 5.35589e-11 5e-05 1.46608e-10 
205 1 0.0725288 0.0175455 0.00723001 0.00606839 -9.32329e-05 8.64301e-06 -7.4912e-11 4.13517e-11 1.61795e-11 5e-05 1.46608e-10 
206 1 0.0724894 0.0173494 0.00722469 0.00619154 1.73493e-05 1.2102e-05 -1.01365e-10 1.9704e-10 3.49707e-12 5e-05 1.46608e-10 
207 1 0.0720333 0.0160301 0.00818729 0.00575026 3.08467e-05 -3.7151e-05 1.48764e-10 -9.4954e-13 -1.01831e-12 5e-05 1.46608e-10 
208 1 0.0723545 0.0171716 0.00723965 0.00591855 -0.000151053 0.000116617 -2.04662e-10 -9.11822e-11 8.42577e-11 5e-05 1.46608e-10 
209 1 0.0722438 0.0164407 0.00784626 0.00598701 8.70085e-06 -1.73009e-05 2.83407e-10 -5.34371e-12 -3.31764e-11 5e-05 1.46608e-10 
210 1 0.078364 0.0175163 0.0072088 0.00566725 -0.000259937 0.000266957 -2.08307e-10 5.14758e-11 1.34761e-10 5e-05 1.46608e-10 
211 1 0.0785898 0.0178865 0.00701779 0.00565875 -0.000517476 -0.00013774 -2.23955e-10 -7.85103e-11 -3.93496e-10 5e-05 1.46608e-10 
212 1 0.0725744 0.0172966 0.00722343 0.00630463 -3.35339e-05 9.42593e-06 6.888e-12 -7.75885e-11 -5.51264e-12 5e-05 1.46608e-10 
213 1 0.0784391 0.0168575 0.00749409 0.00602866 -0.000369769 0.000230967 -1.97394e-10 1.28488e-10 -8.74465e-11 5e-05 1.46608e-10 
214 1 0.0785152 0.0179529 0.00702037 0.00565428 -0.000498156 -0.000167524 -3.0393e-10 -2.42051e-10 -3.26226e-10 5e-05 1.46608e-10 
215 1 0.0664176 0.0175112 0.00711175 0.00560213 -0.000585313 0.000239643 2.47134e-11 8.96806e-12 -9.44072e-12 5e-05 1.46608e-10 
216 1 0.0723125 0.0174288 0.00722728 0.00613779 -0.000247616 5.52834e-06 -1.38036e-11 -1.30409e-10 -1.36918e-10 5e-05 1.46608e-10 
217 1 0.0782353 0.0164076 0.00775276 0.00606216 -0.000385619 0.000240239 6.11779e-10 1.6494e-11 9.98573e-14 5e-05 1.46608e-10 
218 1 0.0724302 0.0175627 0.00723029 0.00606203 -0.000189148 6.04804e-06 -5.69227e-11 -9.93468e-11 3.05651e-12 5e-05 1.46608e-10 
219 1 0.0785215 0.0184064 0.00708395 0.0055698 -0.000518004 0.00066981 2.234e-10 -1.31872e-10 2.92737e-11 5e-05 1.46608e-10 
220 1 0.0723097 0.0172696 0.00730117 0.00628901 -0.000241168 1.71039e-05 1.454e-11 -1.77174e-10 -1.17864e-10 5e-05 1.46608e-10 
221 1 0.0663218 0.0171085 0.00739705 0.00601165 -0.000662835 0.000295114 4.05164e-11 -3.95394e-11 4.96197e-11 5e-05 1.46608e-10 
222 1 0.0782568 0.0164923 0.00770405 0.00604385 -0.0003878 0.000241275 1.87926e-10 1.37699e-10 -8.83302e-11 5e-05 1.46608e-10 
223 1 0.0723979 0.0169659 0.00741016 0.0061588 7.59503e-06 -1.78215e-05 -5.89792e-11 7.99951e-11 -2.41439e-11 5e-05 1.46608e-10 
224 1 0.0721848 0.0169048 0.00746127 0.00620303 1.98453e-05 -2.8979e-05 1.40248e-10 4.74825e-11 -4.19065e-11 5e-05 1.46608e-10 
225 1 0.0786039 0.0175401 0.0070996 0.00610945 -0.000328126 0.000350753 -3.5231e-10 5.91066e-11 -1.00286e-10 5e-05 1.46608e-10 
226 1 0.0725672 0.0171197 0.00728232 0.00632751 -2.961e-05 1.48821e-05 -2.10963e-11 4.46395e-11 -3.11047e-11 5e-05 1.46608e-10 
227 1 0.0663849 0.0173494 0.00722619 0.00594192 -0.000348301 7.40777e-05 8.64509e-12 -2.74794e-11 3.78052e-11 5e-05 1.46608e-10 
228 1 0.0663498 0.0175854 0.00711671 0.005613 -0.000582081 0.00023825 2.48775e-10 3.42772e-11 1.25309e-10 5e-05 1.46608e-10 
229 1 0.0723368 0.0171802 0.00738539 0.0062022 0.000221838 -0.000321759 4.56654e-11 7.94675e-11 3.14774e-11 5e-05 1.46608e-10 
230 1 0.0726072 0.0179375 0.00724065 0.00586696 -5.6291e-05 9.08134e-06 -1.03542e-10 2.57183e-11 4.0569e-12 5e-05 1.46608e-10 
231 1 0.0663092 0.0174039 0.00719009 0.00568818 -0.000585592 0.000249465 -8.5559e-12 6.80266e-12 1.49725e-11 5e-05 1.46608e-10 
232 1 0.0721389 0.0160645 0.00815852 0.00579389 5.55967e-06 -1.58787e-05 -1.38774e-10 3.18327e-11 -2.2627e-11 5e-05 1.46608e-10 
233 1 0.0722858 0.0165911 0.00772136 0.00604275 8.39839e-06 -2.02871e-05 1.7525e-10 2.13864e-11 -7.22008e-12 5e-05 1.46608e-10 
234 1 0.0785763 0.0182438 0.00706133 0.00561671 -0.000489612 0.00067638 6.60208e-11 -1.09551e-10 -6.33454e-11 5e-05 1.46608e-10 
235 1 0.0726465 0.0181336 0.00724597 0.00574982 -3.52479e-05 9.32984e-06 -4.96674e-11 4.52285e-11 8.89935e-12 5e-05 1.46608e-10 
236 1 0.0726269 0.0180355 0.00724331 0.00581982 -4.13487e-05 9.58076e-06 6.71336e-11 6.85688e-11 3.8634e-12 5e-05 1.46608e-10 
237 1 0.0727118 0.0179827 0.00724205 0.005868 2.79867e-05 1.13979e-05 7.64852e-11 2.90022e-11 5.47388e-12 5e-05 1.46608e-10 
239 1 0.0661192 0.0166852 0.00769723 0.00589759 -0.000609085 0.00030107 5.74771e-11 -5.15864e-11 2.80203e-11 5e-05 1.46608e-10 
240 1 0.0661835 0.0169253 0.00752925 0.0059609 -0.000627381 0.000309759 -1.44856e-10 1.09553e-11 -6.13657e-12 5e-05 1.46608e-10 
241 1 0.0660978 0.0166052 0.00775323 0.0058735 -0.000596757 0.000293577 -6.61844e-11 4.94912e-12 4.36414e-12 5e-05 1.46608e-10 
242 1 0.0724133 0.0167017 0.00762939 0.00609563 -1.7841e-05 3.00708e-06 1.80024e-10 1.31854e-10 -1.07596e-10 5e-05 1.46608e-10 
243 1 0.0721799 0.0165567 0.0077501 0.00603787 2.11441e-05 -2.9673e-05 1.37232e-10 -3.20665e-11 -4.26616e-11 5e-05 1.46608e-10 
244 1 0.0661406 0.0167652 0.00764124 0.0059132 -0.000621404 0.000309014 1.02996e-10 -6.77831e-11 7.21975e-11 5e-05 1.46608e-10 
246 1 0.0662691 0.0172441 0.00730336 0.0060557 -0.0006507 0.000285243 7.17857e-11 -2.91038e-11 1.9135e-11 5e-05 1.46608e-10 