ITEM: TIMESTEP
9800000
ITEM: NUMBER OF ATOMS
287
ITEM: BOX BOUNDS ff ff ff
-0.02 0.43
-0.02 0.06
-0.02 0.07
ITEM: ATOMS id type x y z vx vy vz fx fy fz radius mass 
1 1 0.0699089 0.0161596 0.00803608 0.00593697 -0.000329952 0.000457771 3.65078e-11 5.98297e-11 -4.16952e-11 5e-05 1.46608e-10 
2 1 0.0703338 0.0170568 0.00733231 0.00561505 -0.000287886 0.000414316 2.32943e-10 1.37458e-10 -6.01128e-11 5e-05 1.46608e-10 
3 1 0.0637623 0.0159756 0.00823845 0.00601733 0.000298409 -0.00014468 -3.81464e-11 -3.67729e-11 7.5754e-11 5e-05 1.46608e-10 
4 1 0.0702418 0.0174452 0.00720886 0.00568243 -0.000256219 0.000387577 -2.76138e-11 -7.49101e-11 4.07185e-11 5e-05 1.46608e-10 
5 1 0.0697917 0.0160575 0.0081139 0.00590565 -0.000297854 0.000430947 -5.4455e-11 5.46322e-11 -5.05502e-11 5e-05 1.46608e-10 
6 1 0.0759207 0.0164789 0.00767317 0.00632125 0.000124977 -0.000525853 2.85726e-11 1.22071e-10 -9.27088e-11 5e-05 1.46608e-10 
7 1 0.0699852 0.0167469 0.00756876 0.00609253 -0.000269851 0.000411641 5.97487e-11 9.19773e-11 -7.83199e-11 5e-05 1.46608e-10 
8 1 0.0696893 0.0156729 0.0084182 0.00552296 -0.000183333 0.000326602 -5.72845e-11 -9.79997e-13 2.68955e-12 5e-05 1.46608e-10 
9 1 0.0761886 0.0176088 0.007149 0.00583062 0.000146102 -0.00031341 -5.36657e-11 6.94769e-11 -5.08583e-11 5e-05 1.46608e-10 
10 1 0.0699207 0.0165171 0.00775047 0.0060221 -0.00030777 0.000442011 2.46018e-10 3.28471e-10 -2.74269e-10 5e-05 1.46608e-10 
11 1 0.0703716 0.0172148 0.00721597 0.00566258 -0.000300272 0.000382678 4.18273e-10 8.00393e-11 2.98737e-11 5e-05 1.46608e-10 
12 1 0.0639788 0.0167628 0.0076617 0.00614119 0.000315532 -7.53e-05 4.69355e-11 4.2037e-11 7.94314e-12 5e-05 1.46608e-10 
13 1 0.0697702 0.0159809 0.00817448 0.00588833 -0.000296737 0.000429324 2.59718e-11 8.03743e-12 -5.79944e-12 5e-05 1.46608e-10 
14 1 0.0636796 0.0156549 0.00846268 0.00566469 0.000289029 -0.00032326 -8.51505e-11 8.3475e-11 -2.53495e-11 5e-05 1.46608e-10 
15 1 0.0701242 0.0169261 0.00743002 0.00556234 -0.000171938 0.000316478 -1.82592e-10 -2.17374e-10 1.62274e-10 5e-05 1.46608e-10 
16 1 0.0636605 0.0155744 0.00851892 0.00568736 0.000290617 -0.000322119 -3.64571e-11 2.05806e-10 -1.1111e-10 5e-05 1.46608e-10 
17 1 0.0698992 0.0164405 0.00781104 0.00600935 -0.000313041 0.000446195 1.44152e-10 3.55145e-10 -2.65355e-10 5e-05 1.46608e-10 
18 1 0.0760703 0.0170657 0.00732222 0.00572805 0.000322905 -5.80035e-05 5.98794e-10 -2.54457e-10 1.5712e-10 5e-05 1.46608e-10 
19 1 0.0697487 0.0159043 0.00823505 0.00587513 -0.0002929 0.000425969 5.07841e-11 4.51079e-11 -3.20586e-11 5e-05 1.46608e-10 
21 1 0.0698874 0.016083 0.00809665 0.0059138 -0.000324216 0.000452407 5.31301e-11 2.4234e-11 -1.95385e-11 5e-05 1.46608e-10 
22 1 0.0700282 0.0169001 0.00744762 0.00611808 -0.000286647 0.000425776 -1.14494e-11 1.50238e-11 3.48697e-11 5e-05 1.46608e-10 
23 1 0.0641621 0.017105 0.00741331 0.00593086 0.000460064 -0.000187119 -5.45335e-11 -2.92006e-10 1.90867e-10 5e-05 1.46608e-10 
24 1 0.0761271 0.0173167 0.0071721 0.005846 0.000287086 -3.5426e-05 -3.12533e-10 -3.34343e-10 3.51881e-10 5e-05 1.46608e-10 
25 1 0.0699637 0.0166703 0.00762933 0.00608618 -0.000267117 0.000415774 -8.9023e-11 3.00638e-10 -2.23966e-10 5e-05 1.46608e-10 
26 1 0.0760076 0.0168139 0.00747264 0.00631273 0.00025679 3.62427e-06 -2.80156e-10 -2.96386e-10 1.94466e-10 5e-05 1.46608e-10 
27 1 0.0640653 0.0170778 0.00743088 0.00593945 0.000316656 -8.44201e-05 -3.13346e-10 -1.29558e-10 1.23291e-10 5e-05 1.46608e-10 
28 1 0.0702211 0.0173463 0.00720801 0.00569218 -0.000478896 0.000229156 6.07314e-11 -4.38232e-10 -1.24492e-11 5e-05 1.46608e-10 
29 1 0.0697284 0.0158275 0.00829581 0.00546775 -0.000236805 0.000367877 -1.04309e-11 4.31348e-11 -3.35487e-11 5e-05 1.46608e-10 
30 1 0.0702581 0.0171065 0.00729001 0.00564985 -0.000277964 0.00040385 -1.90216e-10 1.04939e-10 -1.5775e-10 5e-05 1.46608e-10 
31 1 0.0700067 0.0168235 0.0075082 0.00610696 -0.000280281 0.000419907 -1.53155e-10 -3.30789e-11 -4.77167e-11 5e-05 1.46608e-10 
32 1 0.0701028 0.0168493 0.00749068 0.0061202 -0.000259186 0.000404915 -5.51686e-10 -1.74271e-10 1.18515e-10 5e-05 1.46608e-10 
33 1 0.0759424 0.0165625 0.00762277 0.00632968 0.000391272 -7.67583e-05 5.53754e-11 9.49378e-11 -4.0481e-11 5e-05 1.46608e-10 
34 1 0.0698777 0.0163639 0.00787161 0.00598657 -0.000315293 0.00044847 -2.01748e-11 2.05197e-10 -1.65686e-10 5e-05 1.46608e-10 
35 1 0.0700812 0.0167727 0.0075513 0.00608591 -0.000295435 0.000434702 -2.69041e-10 -9.66799e-11 6.15567e-11 5e-05 1.46608e-10 
36 1 0.0762294 0.0178044 0.00714328 0.00580123 0.000145913 -0.000310361 1.65834e-11 5.07186e-11 -9.05195e-12 5e-05 1.46608e-10 
37 1 0.0700381 0.0166194 0.00767249 0.00607013 -0.000286812 0.000427877 -1.20959e-10 1.74095e-10 -1.21616e-10 5e-05 1.46608e-10 
38 1 0.0701995 0.0168759 0.00747262 0.00541362 -0.000249751 0.000375404 -2.35227e-10 1.06004e-10 -7.52821e-11 5e-05 1.46608e-10 
39 1 0.0761477 0.0174131 0.00715483 0.00587914 0.000139965 -0.000840294 -3.41559e-11 2.18658e-11 1.0404e-09 5e-05 1.46608e-10 
41 1 0.0698347 0.0162107 0.00799276 0.0059503 -0.000312618 0.000444395 9.70876e-11 1.99171e-10 -1.4631e-10 5e-05 1.46608e-10 
42 1 0.0700494 0.0169778 0.00738836 0.00557027 -0.000204776 0.000339787 -4.3705e-11 -3.22635e-11 6.02214e-11 5e-05 1.46608e-10 
44 1 0.0702196 0.0169527 0.00741184 0.00551314 -0.000258328 0.000392219 -1.16681e-10 8.96402e-11 -4.81851e-11 5e-05 1.46608e-10 
45 1 0.0759642 0.0166463 0.00757273 0.00633204 0.000381886 -7.18421e-05 -8.97547e-11 -1.90076e-10 9.72056e-11 5e-05 1.46608e-10 
46 1 0.0760523 0.0169813 0.00737272 0.00560328 0.000353897 -7.44683e-05 1.72405e-09 -3.75732e-10 2.49509e-10 5e-05 1.46608e-10 
47 1 0.0698562 0.0162873 0.00793219 0.00596333 -0.000318583 0.00044934 1.31931e-10 1.57593e-10 -1.28564e-10 5e-05 1.46608e-10 
48 1 0.0700863 0.0171364 0.00727086 0.00567775 -0.000457799 0.000159753 -2.72712e-10 -3.90094e-10 3.59061e-11 5e-05 1.46608e-10 
49 1 0.0760293 0.0168977 0.00742259 0.00633114 0.000247052 1.03749e-05 6.98281e-11 4.75656e-10 -2.2364e-10 5e-05 1.46608e-10 
50 1 0.0701458 0.0174119 0.00720418 0.00566186 -0.000526373 0.000229624 2.84551e-11 -3.56419e-10 3.99707e-11 5e-05 1.46608e-10 
51 1 0.0701254 0.017314 0.00720469 0.00570003 -0.000443655 0.0002307 7.70359e-12 4.8043e-10 1.11867e-10 5e-05 1.46608e-10 
52 1 0.0639574 0.016684 0.00771943 0.00612465 0.000320044 -7.87866e-05 -6.89179e-11 7.85279e-11 -7.47861e-11 5e-05 1.46608e-10 
53 1 0.0760894 0.0171499 0.00727184 0.00577615 0.000325877 -5.00472e-05 -5.49377e-10 2.25565e-12 -2.3054e-10 5e-05 1.46608e-10 
54 1 0.0698659 0.0160064 0.00815722 0.00589495 -0.000318457 0.000447071 -2.19687e-11 -4.25536e-11 3.30499e-11 5e-05 1.46608e-10 
55 1 0.0637198 0.0158154 0.00835041 0.00575193 0.000260598 -0.000299859 -4.08462e-11 -9.80733e-11 -2.89329e-11 5e-05 1.46608e-10 
56 1 0.0700596 0.016696 0.00761192 0.00606214 -0.00027694 0.00041923 -2.44323e-10 -1.31405e-10 7.95282e-11 5e-05 1.46608e-10 
57 1 0.0759859 0.0167301 0.00752268 0.00632627 0.000335024 -4.25112e-05 -1.57279e-10 -9.24223e-10 5.44593e-10 5e-05 1.46608e-10 
59 1 0.0701135 0.0165693 0.00771505 0.00602551 -0.000309979 0.000444455 2.19265e-11 -4.72283e-11 3.9459e-11 5e-05 1.46608e-10 
60 1 0.070135 0.0166459 0.00765448 0.00603702 -0.000298388 0.000436357 -2.19868e-10 5.91509e-11 -5.51918e-11 5e-05 1.46608e-10 
61 1 0.0698132 0.0161341 0.00805333 0.00592775 -0.000303804 0.000436789 -3.96432e-11 1.17087e-10 -9.41743e-11 5e-05 1.46608e-10 
62 1 0.0702389 0.0170296 0.00735094 0.00558905 -0.000260952 0.000398458 -2.88765e-10 1.68083e-10 -2.66091e-10 5e-05 1.46608e-10 
63 1 0.0701815 0.0171602 0.00725147 0.00567788 -0.000477213 0.000170165 -2.08658e-10 2.48838e-10 -9.171e-11 5e-05 1.46608e-10 
64 1 0.0761222 0.0172312 0.00722363 0.00584143 0.00030535 -3.34295e-05 4.2193e-10 4.35345e-11 1.78301e-12 5e-05 1.46608e-10 
65 1 0.0640757 0.0167898 0.00764422 0.00616826 0.000345234 -9.59241e-05 3.84732e-10 5.9303e-11 -1.77706e-11 5e-05 1.46608e-10 
66 1 0.0640108 0.0165536 0.00781734 0.00610154 0.000317212 -7.73064e-05 2.46109e-11 9.64975e-11 -6.75974e-11 5e-05 1.46608e-10 
67 1 0.070353 0.0171337 0.00727139 0.00566147 -0.000285783 0.000414581 4.38249e-10 2.03274e-11 -7.75288e-11 5e-05 1.46608e-10 
68 1 0.0702978 0.0172823 0.0072131 0.00564757 -0.000303112 0.000373459 2.70134e-10 -4.49245e-11 6.76044e-11 5e-05 1.46608e-10 
69 1 0.0699735 0.0163894 0.00785438 0.00600344 -0.000337285 0.000465646 1.14713e-10 1.76225e-10 -1.36429e-10 5e-05 1.46608e-10 
70 1 0.0761682 0.0175109 0.00715185 0.00573316 0.000174251 -0.00031342 3.18066e-10 8.81413e-11 -4.36884e-11 5e-05 1.46608e-10 
71 1 0.0636988 0.0157353 0.00840645 0.00563949 0.000281001 -0.000312062 5.20162e-11 1.27361e-10 -1.7517e-10 5e-05 1.46608e-10 
72 1 0.0702772 0.0171866 0.00723317 0.00566669 -0.000300875 0.000392335 3.67176e-10 4.12565e-11 4.49739e-11 5e-05 1.46608e-10 
73 1 0.0699422 0.0165937 0.0076899 0.00604995 -0.000287008 0.000429721 -3.04197e-11 2.94931e-10 -2.72653e-10 5e-05 1.46608e-10 
74 1 0.0701443 0.0170029 0.00736923 0.00556974 -0.000216092 0.000355326 -2.2952e-10 -8.88421e-11 -1.79039e-10 5e-05 1.46608e-10 
76 1 0.0642893 0.0176889 0.00706133 0.00564539 0.000224888 -0.000199886 1.53184e-10 -1.16763e-10 -3.8176e-11 5e-05 1.46608e-10 
77 1 0.0703869 0.01813 0.0072237 0.00618236 -0.000387774 0.000416508 -1.65189e-11 -7.27354e-11 -3.46889e-12 5e-05 1.46608e-10 
78 1 0.063784 0.0160544 0.00818079 0.00603131 0.000326225 -8.73965e-05 -2.01615e-11 -9.80883e-11 6.43705e-11 5e-05 1.46608e-10 
79 1 0.0640002 0.0168416 0.00760397 0.00614776 0.000314642 -7.30921e-05 9.33723e-11 1.24622e-11 -2.71203e-11 5e-05 1.46608e-10 
80 1 0.0702068 0.0177066 0.0072084 0.00564579 -0.000256721 0.000381212 -2.78123e-11 -8.76607e-11 9.58796e-13 5e-05 1.46608e-10 
81 1 0.0639353 0.0166054 0.00777707 0.00611381 0.000320711 -7.93714e-05 -2.93048e-12 1.13263e-10 -8.49779e-11 5e-05 1.46608e-10 
82 1 0.0640865 0.0171566 0.00737313 0.00579368 0.000339821 -0.000103037 1.12786e-10 -1.60567e-10 9.29129e-11 5e-05 1.46608e-10 
83 1 0.064069 0.0164273 0.00791226 0.00608813 0.000314595 -7.5498e-05 -3.04964e-11 4.38432e-11 -2.73047e-11 5e-05 1.46608e-10 
84 1 0.076209 0.0177066 0.00714614 0.00581922 0.000145284 -0.000309629 -5.65823e-12 2.0759e-11 1.39742e-11 5e-05 1.46608e-10 
85 1 0.0638806 0.0160805 0.00816311 0.00605013 0.000210487 -0.000267922 6.90536e-11 -1.52159e-10 9.1752e-11 5e-05 1.46608e-10 
86 1 0.0702008 0.0172484 0.00720851 0.00570474 -0.000465199 0.00021802 -1.01992e-09 2.36704e-10 -1.03731e-10 5e-05 1.46608e-10 
87 1 0.0700911 0.0164919 0.00777623 0.00602367 -0.000348571 0.000475002 -1.03517e-10 5.63233e-11 -5.36811e-11 5e-05 1.46608e-10 
88 1 0.0702665 0.0180005 0.0072146 0.00566656 -0.000278713 0.000381611 -2.75808e-11 -4.48562e-11 -7.54753e-12 5e-05 1.46608e-10 
89 1 0.070227 0.0178045 0.00721048 0.0056272 -0.000225542 0.000379964 1.4224e-11 -3.72223e-11 1.56533e-12 5e-05 1.46608e-10 
90 1 0.0703147 0.0169798 0.00739323 0.00554317 -0.000281486 0.000407682 -7.45491e-12 2.69028e-10 -1.69641e-10 5e-05 1.46608e-10 
91 1 0.064022 0.0169203 0.00754629 0.0061476 0.000309535 -7.36692e-05 4.6409e-11 -1.59556e-10 6.16487e-11 5e-05 1.46608e-10 
92 1 0.070338 0.0174782 0.00721563 0.00559338 -0.0002836 0.0003738 -1.40653e-10 2.15489e-11 -1.7541e-11 5e-05 1.46608e-10 
93 1 0.0703227 0.0178369 0.00721721 0.0056174 -0.000208143 0.000379561 2.0567e-11 1.08319e-11 6.06438e-12 5e-05 1.46608e-10 
94 1 0.0703986 0.0177719 0.00722188 0.00556147 -0.000270415 0.000374966 -9.90095e-11 -6.62471e-11 -5.85602e-12 5e-05 1.46608e-10 
95 1 0.0701865 0.0176086 0.0072063 0.00566886 -0.000256122 0.000379279 -5.43863e-11 -1.31147e-10 3.52317e-11 5e-05 1.46608e-10 
96 1 0.0703587 0.017576 0.00721774 0.00540065 -0.000242433 0.000362932 -1.24644e-10 4.84224e-12 -4.61753e-12 5e-05 1.46608e-10 
97 1 0.0638921 0.0164479 0.00789248 0.00608785 0.000325448 -8.38227e-05 -2.47034e-11 6.35051e-11 -6.16761e-11 5e-05 1.46608e-10 
98 1 0.0702882 0.0180981 0.00721678 0.00640398 -0.00044369 0.000430918 2.95328e-12 -1.82866e-11 1.03808e-12 5e-05 1.46608e-10 
99 1 0.0640543 0.016711 0.00770196 0.00617621 0.000346076 -9.70995e-05 2.32858e-10 6.77866e-11 -3.93356e-11 5e-05 1.46608e-10 
100 1 0.0702752 0.0168261 0.00751491 0.00550801 -0.000265513 0.000392 1.3492e-10 2.9247e-10 -2.35822e-10 5e-05 1.46608e-10 
101 1 0.0639892 0.0164747 0.00787509 0.00608004 0.00031097 -7.35247e-05 -1.811e-10 -7.18495e-12 -7.70974e-12 5e-05 1.46608e-10 
102 1 0.0643568 0.0187248 0.00531097 4.26061e-15 1.05082e-14 8.29593e-14 -4.62921e-21 1.2463e-21 8.29249e-23 5e-05 1.46608e-10 
103 1 0.24257 0.0191927 0.00520306 -3.8771e-22 2.24983e-22 -5.81428e-22 0 0 0 5e-05 1.46608e-10 
104 1 0.0643072 0.0173888 0.00724278 0.00582196 0.000316777 -9.92338e-05 7.25302e-11 -2.06151e-10 2.43705e-10 5e-05 1.46608e-10 
105 1 0.0638491 0.0162939 0.00801255 0.00606222 0.000319392 -8.06641e-05 3.0435e-12 3.44428e-11 -4.32354e-11 5e-05 1.46608e-10 
106 1 0.0643912 0.017335 0.00724908 0.00585205 0.000352957 -0.000130699 8.78045e-11 2.53287e-11 -8.28347e-12 5e-05 1.46608e-10 
107 1 0.0638056 0.0161331 0.00812309 0.00603957 0.000321946 -8.26667e-05 3.48679e-11 -7.05146e-11 7.54078e-11 5e-05 1.46608e-10 
108 1 0.0700164 0.0165426 0.00773322 0.0060362 -0.000326346 0.000458874 8.39415e-11 3.72704e-10 -2.48758e-10 5e-05 1.46608e-10 
109 1 0.0701049 0.0172166 0.00721406 0.00569658 -0.00044484 0.000150983 -4.90129e-11 4.55596e-11 1.49652e-10 5e-05 1.46608e-10 
110 1 0.0704535 0.0176075 0.0072244 0.00536164 -0.000252624 0.000361586 -1.90974e-10 -3.1225e-11 -2.37268e-11 5e-05 1.46608e-10 
111 1 0.0703346 0.0182926 0.00722135 0.00623145 -0.000379431 0.000419112 -1.45289e-11 1.7972e-11 4.72316e-12 5e-05 1.46608e-10 
112 1 0.0639138 0.0165266 0.00783478 0.00609433 0.000323636 -8.25671e-05 -3.18883e-11 1.16452e-10 -7.03079e-11 5e-05 1.46608e-10 
113 1 0.0646884 0.017843 0.00705453 0.00558236 0.000645968 -0.000174441 1.23307e-11 4.89334e-11 -9.69299e-12 5e-05 1.46608e-10 
114 1 0.0642616 0.0171365 0.00739255 0.00565521 0.000336442 -0.000104286 2.63148e-10 -3.0251e-11 4.39823e-11 5e-05 1.46608e-10 
115 1 0.0701635 0.0170821 0.00731128 0.005628 -0.000241031 0.000329167 -5.6749e-10 1.01549e-10 -2.92598e-10 5e-05 1.46608e-10 
116 1 0.0699949 0.016466 0.00779379 0.00601727 -0.000328102 0.000459687 8.72558e-11 2.84178e-10 -2.34821e-10 5e-05 1.46608e-10 
117 1 0.0698444 0.0159298 0.0082178 0.00587533 -0.000312053 0.000441186 -2.23842e-10 -5.25468e-11 3.25999e-11 5e-05 1.46608e-10 
118 1 0.0637407 0.0158961 0.00829515 0.00601033 0.000231037 -0.000256182 2.04824e-11 -1.04186e-10 -5.19444e-12 5e-05 1.46608e-10 
119 1 0.0701566 0.0167226 0.00759379 0.00606057 -0.000316569 0.000450744 -2.18098e-10 2.91064e-12 -1.22227e-11 5e-05 1.46608e-10 
120 1 0.0697088 0.0157498 0.00835731 0.00550386 -0.000179757 0.000323367 8.88246e-12 -5.95133e-11 4.5969e-11 5e-05 1.46608e-10 
121 1 0.0696699 0.015596 0.00847908 0.00553625 -0.000189916 0.000332611 1.34303e-11 4.66612e-11 -3.51136e-11 5e-05 1.46608e-10 
122 1 0.0704735 0.0177058 0.00722647 0.00543605 -0.000405827 0.000365697 -1.76488e-10 -2.54602e-10 -1.61775e-11 5e-05 1.46608e-10 
123 1 0.0639242 0.0162384 0.00804829 0.00604212 0.000293096 -6.09377e-05 1.68347e-11 4.50879e-11 -3.99797e-11 5e-05 1.46608e-10 
124 1 0.0702822 0.0176411 0.00721303 0.00566843 -0.000230133 0.0003811 -5.95903e-11 -7.2402e-12 -2.29261e-11 5e-05 1.46608e-10 
125 1 0.0698236 0.0158531 0.00827848 0.00576408 -0.000296048 0.000424874 -3.11458e-10 -4.11242e-11 1.98159e-11 5e-05 1.46608e-10 
126 1 0.0700678 0.0170562 0.00732765 0.00561815 -0.000405194 0.000125985 2.87167e-10 1.55172e-10 -4.14178e-11 5e-05 1.46608e-10 
127 1 0.0638704 0.0163691 0.00795018 0.00608255 0.000326049 -8.3826e-05 6.18018e-12 6.1285e-11 -5.10022e-11 5e-05 1.46608e-10 
128 1 0.0701662 0.0175106 0.00720489 0.00569348 -0.000241532 0.000398829 -9.01349e-12 -7.85604e-11 -1.07347e-11 5e-05 1.46608e-10 
129 1 0.0702473 0.0179024 0.00721257 0.00561033 -0.000214692 0.000378618 -2.9652e-11 -6.02694e-11 -1.12042e-12 5e-05 1.46608e-10 
130 1 0.0641824 0.0171845 0.00735495 0.00568936 0.000336115 -0.000102121 3.80098e-10 -2.48891e-11 1.88051e-11 5e-05 1.46608e-10 
131 1 0.0640328 0.0166322 0.00775969 0.00611187 0.000312871 -7.37606e-05 4.10423e-12 7.82898e-11 -5.48564e-11 5e-05 1.46608e-10 
132 1 0.070262 0.0175431 0.00721095 0.0056929 -0.000243075 0.00038026 1.38759e-11 -1.86423e-11 -1.94579e-11 5e-05 1.46608e-10 
133 1 0.0700049 0.0161853 0.00801861 0.00596482 -0.000346961 0.000472056 -1.33125e-10 4.18388e-11 -3.7559e-11 5e-05 1.46608e-10 
134 1 0.0701781 0.0167992 0.00753322 0.0060605 -0.00029569 0.000433732 -7.51256e-10 -1.90996e-11 -1.06331e-11 5e-05 1.46608e-10 
135 1 0.0698035 0.0157762 0.00833927 0.00554153 -0.000264866 0.000392647 -6.88261e-11 -5.33626e-11 4.07358e-11 5e-05 1.46608e-10 
136 1 0.063859 0.0160005 0.00821908 0.00605961 0.000213902 -0.000277919 3.9914e-11 -1.77693e-10 7.11046e-11 5e-05 1.46608e-10 
137 1 0.0703563 0.0183902 0.00722353 0.00542525 -0.000188415 0.000366563 -2.3465e-10 5.70017e-11 -1.07527e-11 5e-05 1.46608e-10 
138 1 0.0699519 0.0163128 0.00791494 0.00597835 -0.000337436 0.000465042 7.14431e-11 1.57786e-10 -1.1901e-10 5e-05 1.46608e-10 
140 1 0.070493 0.0178042 0.00722851 0.00558051 -0.000323026 0.00037597 -9.73063e-11 -2.8197e-11 -7.10306e-12 5e-05 1.46608e-10 
141 1 0.0639023 0.0161597 0.00810595 0.0060176 0.000296519 -6.44351e-05 1.34434e-10 2.89619e-11 -2.11631e-11 5e-05 1.46608e-10 
142 1 0.0642807 0.0172156 0.00733448 0.00521258 0.000412119 -0.000172586 -6.79414e-10 -7.97841e-11 2.56447e-11 5e-05 1.46608e-10 
143 1 0.0638272 0.0162119 0.00806539 0.00604482 0.000316255 -7.89314e-05 2.03376e-11 -2.19322e-11 2.36031e-11 5e-05 1.46608e-10 
144 1 0.0642419 0.0170574 0.00745052 0.00568468 0.000331918 -9.92072e-05 -7.20703e-11 2.0686e-11 -9.56683e-12 5e-05 1.46608e-10 
146 1 0.0640905 0.016506 0.00785455 0.00609033 0.000314871 -7.5811e-05 -2.65228e-11 8.60892e-12 -2.12308e-14 5e-05 1.46608e-10 
147 1 0.0638373 0.0159205 0.00827505 0.00602779 0.000222591 -0.00027791 3.00447e-11 1.04675e-10 -5.18654e-11 5e-05 1.46608e-10 
148 1 0.0641422 0.0173942 0.00719879 0.00587663 0.00032227 -8.72561e-05 -9.55219e-11 -4.08494e-12 -1.08502e-10 5e-05 1.46608e-10 
149 1 0.0704179 0.01787 0.0072239 0.00566478 -0.000287763 0.000382071 -2.57378e-11 -8.79475e-11 4.46994e-13 5e-05 1.46608e-10 
150 1 0.0641341 0.0166635 0.00773915 0.00627121 0.000443026 -0.000166217 2.34996e-10 -1.44711e-10 1.13267e-10 5e-05 1.46608e-10 
151 1 0.0644738 0.0173814 0.00721687 0.00580383 0.00042197 -0.000161061 -5.25842e-11 -5.09627e-11 3.92429e-12 5e-05 1.46608e-10 
153 1 0.0639675 0.016396 0.00793279 0.00607303 0.000318139 -7.95769e-05 -6.37829e-11 8.62331e-11 -5.33843e-11 5e-05 1.46608e-10 
154 1 0.0642363 0.0174237 0.00717944 0.00592516 0.000322927 -8.9792e-05 -4.79273e-12 5.51939e-11 -1.28327e-10 5e-05 1.46608e-10 
155 1 0.0643158 0.0177936 0.00706591 0.00567839 0.000299677 -0.000153004 5.1688e-11 2.11312e-11 2.17126e-10 5e-05 1.46608e-10 
156 1 0.0642184 0.0173431 0.00723855 0.00583401 0.000292043 -5.85283e-05 -1.14382e-10 -1.12234e-10 3.13455e-11 5e-05 1.46608e-10 
157 1 0.0219312 0.0187687 0.00551176 -3.83675e-14 8.16493e-14 2.95888e-13 -7.5687e-23 2.07777e-22 -7.8789e-23 5e-05 1.46608e-10 
158 1 0.0643214 0.0175044 0.00720688 0.00582795 0.000287843 -4.20378e-05 -1.12453e-10 -5.05287e-11 3.10515e-11 5e-05 1.46608e-10 
159 1 0.0703177 0.0173803 0.00721353 0.00565759 -0.000296663 0.000378562 -2.8201e-11 -1.89594e-11 3.67901e-12 5e-05 1.46608e-10 
160 1 0.0642209 0.0177616 0.0070677 0.00569099 0.000267112 -0.000114787 2.53625e-11 -9.43286e-11 2.80228e-11 5e-05 1.46608e-10 
162 1 0.064237 0.0175057 0.0071188 0.00588138 0.000325524 -8.70183e-05 -5.60412e-11 -2.0005e-10 1.12684e-10 5e-05 1.46608e-10 
164 1 0.0644832 0.0181393 0.00707764 0.005302 0.00044087 -0.000173868 2.387e-10 -2.68792e-11 -3.60749e-11 5e-05 1.46608e-10 
165 1 0.0645502 0.0176118 0.00704833 0.00573531 0.000406825 -0.00015445 8.49791e-11 -7.88488e-11 6.00738e-11 5e-05 1.46608e-10 
166 1 0.0699618 0.016032 0.00813984 0.00589436 -0.00034323 0.000466829 4.77541e-11 -7.70441e-11 6.35001e-11 5e-05 1.46608e-10 
167 1 0.0641125 0.0165847 0.0077969 0.00610019 0.000313995 -7.56311e-05 4.08556e-12 2.15914e-11 -1.93634e-11 5e-05 1.46608e-10 
168 1 0.0643793 0.0174241 0.00718315 0.00575541 0.000293876 -0.00018656 1.82229e-10 1.11924e-10 2.65873e-10 5e-05 1.46608e-10 
169 1 0.0646138 0.0179093 0.00706077 0.00553643 0.000592688 -0.00017469 2.77707e-10 -2.21133e-10 -2.44553e-11 5e-05 1.46608e-10 
170 1 0.0644394 0.0175675 0.00707827 0.00575023 0.000361981 -0.000116687 8.63329e-11 2.05918e-10 -9.37763e-11 5e-05 1.46608e-10 
171 1 0.0699833 0.0161086 0.00807925 0.00591904 -0.000350057 0.00047308 4.80256e-12 1.75494e-11 -1.29716e-11 5e-05 1.46608e-10 
172 1 0.064529 0.017533 0.0071061 0.00575925 0.000404525 -0.000151628 -1.56294e-10 -4.53665e-11 -1.7746e-12 5e-05 1.46608e-10 
173 1 0.0704474 0.0171608 0.00725231 0.00570198 -0.000330727 0.000262537 3.26893e-10 1.06982e-11 -3.16583e-11 5e-05 1.46608e-10 
174 1 0.0643839 0.0176506 0.00708073 0.00573791 0.000348439 -0.000142873 -1.17927e-10 -3.87471e-11 9.50403e-11 5e-05 1.46608e-10 
175 1 0.0581251 0.0173121 0.00720151 0.00587519 0.000152097 -6.7989e-05 1.5275e-11 3.60736e-12 2.10307e-11 5e-05 1.46608e-10 
176 1 0.0642004 0.0172638 0.00729675 0.00573455 0.000316704 -8.4983e-05 -4.71408e-10 7.83743e-11 -2.12787e-11 5e-05 1.46608e-10 
177 1 0.0642607 0.0179574 0.00707642 0.00566254 0.000268124 -0.000185563 1.00813e-11 -1.73654e-10 -1.84659e-11 5e-05 1.46608e-10 
178 1 0.0646659 0.0177421 0.0070501 0.00566173 0.000583828 -0.000181326 -7.27119e-11 2.22417e-12 2.16527e-11 5e-05 1.46608e-10 
179 1 0.0645937 0.017811 0.00705639 0.00562634 0.000517679 -0.000182918 7.84853e-11 -9.54328e-11 4.75508e-11 5e-05 1.46608e-10 
181 1 0.064183 0.0175831 0.00715177 0.00589251 0.000311782 -3.81734e-05 4.65384e-11 -5.06403e-11 9.30756e-11 5e-05 1.46608e-10 
182 1 0.0699304 0.0162362 0.00797551 0.00596063 -0.000333648 0.000461561 3.15048e-11 1.20872e-10 -9.75204e-11 5e-05 1.46608e-10 
183 1 0.0643764 0.0175043 0.00712342 0.00575277 0.000352298 -0.000107804 1.82096e-10 5.11963e-11 2.33235e-11 5e-05 1.46608e-10 
184 1 0.0702562 0.017391 0.00729166 0.00567761 -0.000265847 0.000383867 -7.70106e-11 -1.80957e-10 -6.60734e-12 5e-05 1.46608e-10 
185 1 0.0641242 0.0173167 0.00725937 0.00579876 0.000337929 -0.000109296 -6.75105e-11 1.51785e-12 -1.22061e-10 5e-05 1.46608e-10 
186 1 0.0641627 0.0174912 0.00718539 0.00589889 0.000308008 -5.45937e-05 -6.36164e-11 -9.47137e-12 1.47212e-12 5e-05 1.46608e-10 
187 1 0.0702538 0.0167495 0.00757551 0.00600925 -0.000335157 0.00046456 -5.54873e-10 3.40166e-10 -3.02613e-10 5e-05 1.46608e-10 
188 1 0.0703421 0.0179351 0.00721924 0.00566656 -0.000279814 0.000381833 -7.77449e-12 -5.3164e-11 -3.8552e-12 5e-05 1.46608e-10 
189 1 0.0702953 0.0169029 0.00745413 0.00549226 -0.000269024 0.000393973 -2.20714e-10 3.68551e-10 -2.8378e-10 5e-05 1.46608e-10 
190 1 0.0582403 0.0174414 0.00719769 0.00585253 0.000175089 -6.75366e-05 6.62525e-12 -4.75096e-11 9.10337e-13 5e-05 1.46608e-10 
191 1 0.0703756 0.0184883 0.00722556 0.00537752 -0.000172686 0.000363009 -6.43242e-11 -6.14539e-11 -1.93981e-11 5e-05 1.46608e-10 
192 1 0.0643666 0.0171754 0.00736648 0.00570095 0.000367625 -0.000124546 -1.27087e-10 1.25936e-10 -8.68051e-11 5e-05 1.46608e-10 
193 1 0.0700695 0.0164152 0.00783684 0.00602106 -0.000336911 0.000465568 -9.77057e-11 5.97795e-11 -4.33829e-11 5e-05 1.46608e-10 
194 1 0.0641773 0.0168211 0.00762369 0.00618686 0.000485355 -0.000201564 -2.93731e-10 9.34153e-12 -1.86177e-11 5e-05 1.46608e-10 
195 1 0.0645711 0.0177102 0.00705196 0.00570055 0.000443836 -0.000192201 3.90204e-11 -9.24705e-11 -7.08208e-11 5e-05 1.46608e-10 
196 1 0.0636413 0.015494 0.00857515 0.00571347 0.000291766 -0.000319267 2.20281e-11 1.85109e-10 -1.15684e-10 5e-05 1.46608e-10 
197 1 0.0581859 0.0176058 0.00719505 0.00581378 0.000162513 -6.6906e-05 -1.8538e-12 -2.65188e-11 -7.56511e-12 5e-05 1.46608e-10 
198 1 0.0640435 0.0169991 0.00748861 0.00615452 0.000280146 -6.98598e-05 9.00853e-11 -4.68914e-11 3.8304e-11 5e-05 1.46608e-10 
199 1 0.0642208 0.0175856 0.00705922 0.00576324 0.000305418 -8.32321e-05 8.80205e-11 -1.90468e-10 1.31979e-10 5e-05 1.46608e-10 
200 1 0.0641408 0.0170261 0.00747111 0.00595483 0.000331538 -9.3617e-05 -2.23364e-10 -2.42548e-10 1.32921e-10 5e-05 1.46608e-10 
201 1 0.0645783 0.0181711 0.00707577 0.00533948 0.000467955 -0.000174096 -1.87114e-11 1.15548e-11 6.5949e-12 5e-05 1.46608e-10 
202 1 0.0643847 0.0172547 0.0073083 0.005794 0.000362237 -0.000114382 -2.16392e-11 4.39464e-11 -7.60435e-11 5e-05 1.46608e-10 
203 1 0.0704711 0.0172518 0.00721842 0.00554019 -0.00039051 -1.31405e-06 5.83072e-12 -6.35947e-11 3.29805e-11 5e-05 1.46608e-10 
204 1 0.064119 0.0169473 0.00752881 0.00617802 0.000327148 -8.55354e-05 3.38858e-11 3.07957e-10 -2.42792e-10 5e-05 1.46608e-10 
205 1 0.0644441 0.0179433 0.00706886 0.00555154 0.000378573 -0.000189318 1.13773e-10 5.32178e-11 2.01303e-11 5e-05 1.46608e-10 
206 1 0.0644045 0.0177474 0.0070665 0.00569369 0.000353872 -0.000166486 5.74803e-12 2.10203e-11 1.66111e-10 5e-05 1.46608e-10 
207 1 0.0639457 0.0163171 0.00799057 0.00606938 0.000321669 -8.17519e-05 -5.6111e-11 -8.0481e-12 6.4086e-12 5e-05 1.46608e-10 
208 1 0.0643197 0.0175748 0.0070698 0.00576594 0.000338845 -0.000114024 -1.11774e-10 -2.40016e-10 1.92019e-10 5e-05 1.46608e-10 
209 1 0.0641555 0.0167424 0.00768137 0.00622976 0.000415196 -0.000147188 2.01477e-10 -2.051e-10 1.53601e-10 5e-05 1.46608e-10 
210 1 0.0701094 0.0171443 0.00736784 0.00558718 -0.00013301 0.000179688 -5.2269e-10 6.98445e-11 1.30843e-10 5e-05 1.46608e-10 
211 1 0.0703789 0.0176739 0.00721983 0.00537978 -0.00023598 0.000362804 -1.53841e-10 -2.6485e-11 -1.44455e-11 5e-05 1.46608e-10 
212 1 0.0644762 0.0176788 0.0070545 0.00571963 0.000384234 -0.000149356 1.19313e-10 3.09675e-11 1.72773e-11 5e-05 1.46608e-10 
213 1 0.0702324 0.0166728 0.00763608 0.00603657 -0.000333676 0.0004641 -6.54476e-11 2.25464e-10 -1.77478e-10 5e-05 1.46608e-10 
214 1 0.0703024 0.017739 0.00721512 0.00563759 -0.000216092 0.000380741 4.30098e-11 -8.62983e-12 -1.94019e-11 5e-05 1.46608e-10 
215 1 0.05822 0.0173434 0.00719985 0.00587065 0.0001549 -6.76498e-05 -3.38752e-11 -2.02278e-11 -6.7738e-12 5e-05 1.46608e-10 
216 1 0.0642408 0.0178595 0.00707205 0.00567508 0.000269102 -0.000153574 -1.01063e-11 -1.3558e-10 -1.02722e-11 5e-05 1.46608e-10 
217 1 0.0700264 0.0162619 0.00795804 0.00597134 -0.000350996 0.000475648 -9.5504e-12 3.54913e-11 -3.19358e-11 5e-05 1.46608e-10 
218 1 0.0643555 0.0179894 0.00707457 0.0055537 0.000379226 -0.000190041 8.58384e-11 7.5686e-11 -1.81617e-11 5e-05 1.46608e-10 
219 1 0.0703114 0.0181954 0.00721906 0.00617991 -0.000384311 0.000416245 6.11756e-12 -6.55629e-12 -3.59377e-12 5e-05 1.46608e-10 
220 1 0.0642019 0.0176715 0.00710681 0.0057083 0.00028389 -8.55094e-05 2.96508e-10 -1.19191e-10 1.15485e-10 5e-05 1.46608e-10 
221 1 0.0581285 0.0169667 0.00748072 0.00616579 0.000112091 -1.3869e-05 2.36709e-11 5.36417e-12 -3.12411e-11 5e-05 1.46608e-10 
222 1 0.070048 0.0163385 0.00789749 0.00599092 -0.000355704 0.000480041 1.53943e-10 4.67799e-11 -3.10772e-11 5e-05 1.46608e-10 
223 1 0.0642978 0.0172951 0.00727617 0.00563151 0.000353039 -0.000108853 -1.03992e-10 -2.22238e-10 1.63371e-10 5e-05 1.46608e-10 
224 1 0.0641062 0.0172362 0.00731584 0.00572892 0.000352005 -0.000115372 2.86703e-10 -1.24256e-10 -2.50049e-11 5e-05 1.46608e-10 
225 1 0.0703926 0.0173138 0.00721812 0.00562954 -0.000286252 0.000379601 2.30004e-10 3.44774e-11 -7.11353e-12 5e-05 1.46608e-10 
226 1 0.0644818 0.0174616 0.00715772 0.00575443 0.000417639 -0.000158283 -3.61122e-11 -6.29091e-11 4.95502e-11 5e-05 1.46608e-10 
227 1 0.0581839 0.0171749 0.00727198 0.0058693 0.000156036 -6.27193e-05 -6.66241e-11 1.23694e-12 -6.25427e-12 5e-05 1.46608e-10 
228 1 0.0581454 0.01741 0.00720037 0.00586086 0.000152639 -6.93255e-05 4.30513e-12 -1.30886e-11 3.3684e-11 5e-05 1.46608e-10 
229 1 0.064233 0.0175137 0.00725286 0.00584054 0.000374421 -9.89752e-06 -2.384e-10 -3.03674e-10 2.92314e-10 5e-05 1.46608e-10 
230 1 0.0645233 0.018335 0.00708637 0.00528704 0.000456481 -0.00017237 -2.10687e-10 -6.27304e-11 1.15634e-11 5e-05 1.46608e-10 
231 1 0.0581046 0.0172178 0.00722753 0.00587325 0.000160312 -6.8415e-05 -6.2295e-11 -3.62745e-12 -5.40035e-12 5e-05 1.46608e-10 
232 1 0.0640473 0.0163485 0.00796996 0.00605857 0.000311535 -7.42046e-05 -8.79144e-11 3.93999e-11 -3.94891e-11 5e-05 1.46608e-10 
233 1 0.0641988 0.0168999 0.00756596 0.00616239 0.000323113 -8.24862e-05 -1.06459e-09 3.19879e-10 -2.55829e-10 5e-05 1.46608e-10 
234 1 0.070364 0.0180327 0.00722144 0.00592304 -0.000332342 0.000399153 -3.04173e-12 -8.69114e-11 -3.78735e-12 5e-05 1.46608e-10 
235 1 0.0645649 0.0185306 0.00709504 0.00572094 0.000380588 -0.000191717 -1.87847e-10 3.34948e-12 -1.96043e-11 5e-05 1.46608e-10 
236 1 0.0645435 0.0184329 0.00709073 0.00576206 0.00037107 -0.00019395 2.07167e-10 -8.68355e-11 -1.88831e-12 5e-05 1.46608e-10 
237 1 0.0646188 0.0183668 0.00708448 0.00544246 0.000417317 -0.000180557 3.54961e-12 6.53635e-11 7.83199e-12 5e-05 1.46608e-10 
239 1 0.0579263 0.0165983 0.00784846 0.00600772 0.000151911 -5.70035e-05 2.41981e-10 5.97186e-12 3.49157e-11 5e-05 1.46608e-10 
240 1 0.0579897 0.0168054 0.00764092 0.00610302 0.000146116 -4.66299e-05 8.42726e-12 1.11074e-10 2.31496e-12 5e-05 1.46608e-10 
241 1 0.0579051 0.0165293 0.00791764 0.00598319 0.000162856 -6.55916e-05 -1.37501e-10 3.73176e-11 -4.49343e-11 5e-05 1.46608e-10 
242 1 0.0643276 0.0170172 0.0074825 0.00574559 0.00036156 -0.000118837 4.27249e-10 7.79395e-11 -4.77638e-11 5e-05 1.46608e-10 
243 1 0.0640975 0.0168686 0.00758654 0.00613209 0.000354625 -0.000102674 1.72862e-10 9.28421e-11 -1.37461e-12 5e-05 1.46608e-10 
244 1 0.0579474 0.0166674 0.00777928 0.00603582 0.000147864 -5.29167e-05 4.14878e-11 -5.01179e-11 2.9177e-11 5e-05 1.46608e-10 
246 1 0.0580739 0.0170961 0.00738249 0.005848 0.000171076 -7.40292e-05 -3.98756e-11 2.91843e-11 -1.31231e-11 5e-05 1.46608e-10 