ITEM: TIMESTEP
30200000
ITEM: NUMBER OF ATOMS
271
ITEM: BOX BOUNDS ff ff ff
-0.02 0.43
-0.02 0.06
-0.02 0.07
ITEM: ATOMS id type x y z vx vy vz fx fy fz radius mass 
1 1 0.188571 0.0154577 0.00865523 0.00566687 -2.42073e-06 -0.000410002 1.86495e-10 -9.22784e-12 -7.14463e-12 5e-05 1.46608e-10 
2 1 0.189466 0.0179209 0.0069831 0.00572753 0.000259952 5.83391e-05 -7.30772e-11 4.97616e-12 1.47637e-11 5e-05 1.46608e-10 
3 1 0.183521 0.017765 0.00702564 0.00568672 0.000318525 6.42581e-05 2.51207e-10 -1.1598e-10 5.36731e-11 5e-05 1.46608e-10 
4 1 0.189503 0.0176671 0.0070474 0.00569231 0.000252265 6.03489e-05 8.14348e-11 -9.22709e-12 -3.73904e-11 5e-05 1.46608e-10 
5 1 0.188551 0.015413 0.00874226 0.00563853 -5.97618e-06 -0.000399797 3.01294e-10 -1.09262e-10 1.62809e-10 5e-05 1.46608e-10 
6 1 0.194965 0.0168368 0.00746216 0.00582765 0.000275491 0.000147572 4.50162e-12 1.49407e-11 -6.82502e-12 5e-05 1.46608e-10 
7 1 0.188657 0.0156762 0.00833702 0.00624942 0.000331043 3.9486e-05 1.1951e-10 2.92429e-10 -2.04328e-10 5e-05 1.46608e-10 
8 1 0.188531 0.0153683 0.00882951 0.00562322 -1.02034e-05 -0.000390102 -1.00786e-11 -1.06984e-10 2.41793e-10 5e-05 1.46608e-10 
9 1 0.195085 0.0173709 0.00721621 0.00569859 0.0002756 0.000141476 -2.50245e-12 8.43464e-12 -3.63801e-12 5e-05 1.46608e-10 
10 1 0.189124 0.017544 0.00708532 0.00568901 0.00022499 -0.000277379 -4.37625e-11 -6.81351e-11 3.6154e-10 5e-05 1.46608e-10 
11 1 0.189257 0.0177621 0.00701828 0.00572109 0.000338831 3.69707e-05 2.51693e-11 1.2071e-10 -3.37299e-11 5e-05 1.46608e-10 
12 1 0.182653 0.0157104 0.00837188 0.00624961 9.8747e-05 -0.000419495 -5.0237e-11 -9.3869e-11 6.36166e-11 5e-05 1.46608e-10 
13 1 0.188473 0.0152343 0.0090907 0.00558536 -5.09259e-06 -0.000397261 -1.17923e-10 -1.7941e-10 3.61466e-10 5e-05 1.46608e-10 
14 1 0.183318 0.0185025 0.00689298 0.00571341 0.000507027 -0.000369546 -7.93359e-10 -3.77783e-10 -4.53204e-10 5e-05 1.46608e-10 
15 1 0.189483 0.0175718 0.00707083 0.00568045 0.000243544 6.55798e-05 6.62968e-11 1.98292e-11 5.09148e-11 5e-05 1.46608e-10 
16 1 0.183413 0.0185343 0.00688788 0.00569606 0.000507902 -0.00010435 -1.12334e-09 -4.97824e-11 1.46915e-10 5e-05 1.46608e-10 
17 1 0.189522 0.0177624 0.00702398 0.00571562 0.000257056 6.01221e-05 -5.0072e-11 1.08775e-11 2.81405e-11 5e-05 1.46608e-10 
19 1 0.188519 0.0153268 0.00891965 0.0056159 -1.50556e-05 -0.000388621 -9.85078e-11 -1.32759e-10 2.95362e-10 5e-05 1.46608e-10 
21 1 0.189087 0.0173783 0.00718962 0.0055077 0.000164028 -0.000440326 -6.34326e-11 -3.54125e-11 3.44527e-10 5e-05 1.46608e-10 
22 1 0.189293 0.0175079 0.00708307 0.00577611 0.000281791 -0.00050235 1.86893e-10 -2.5693e-10 1.23328e-10 5e-05 1.46608e-10 
23 1 0.182902 0.0162381 0.00788933 0.00632295 5.98617e-05 -0.00038895 -2.04863e-11 1.36654e-11 -2.18661e-11 5e-05 1.46608e-10 
24 1 0.195161 0.0177274 0.00705187 0.005657 0.000301896 0.000127085 -2.88464e-12 -9.01274e-12 4.3683e-12 5e-05 1.46608e-10 
25 1 0.188717 0.0159198 0.00817318 0.0062273 0.000366929 3.25064e-05 -1.04558e-11 2.53036e-10 -1.69537e-10 5e-05 1.46608e-10 
26 1 0.195046 0.0171927 0.00729831 0.00564483 0.000290361 0.000132149 1.86785e-11 -9.82156e-12 4.993e-12 5e-05 1.46608e-10 
27 1 0.183635 0.0178836 0.00696978 0.00570586 0.000306731 7.03009e-05 -2.41541e-10 -1.31317e-10 5.15168e-12 5e-05 1.46608e-10 
28 1 0.189427 0.0177304 0.00702992 0.00571485 0.000255283 5.94392e-05 2.4223e-11 8.87437e-11 5.94962e-12 5e-05 1.46608e-10 
29 1 0.188673 0.015755 0.00827757 0.00626456 0.000346391 4.99118e-05 1.85065e-10 3.25659e-10 -1.95865e-10 5e-05 1.46608e-10 
30 1 0.189182 0.0178257 0.00700074 0.00571717 0.00035324 3.09789e-05 -8.96221e-11 -7.87596e-11 -1.1014e-11 5e-05 1.46608e-10 
31 1 0.188738 0.0160025 0.00812097 0.00622652 0.000369955 3.14587e-05 6.55786e-11 2.19969e-10 -1.50353e-10 5e-05 1.46608e-10 
32 1 0.189184 0.0170339 0.00743832 0.00581873 0.000362454 -0.000553653 3.88911e-10 -2.61973e-10 1.88626e-10 5e-05 1.46608e-10 
33 1 0.194985 0.0169258 0.00742123 0.00584526 0.000264542 0.000153441 -2.27029e-11 -4.73521e-11 2.19596e-11 5e-05 1.46608e-10 
34 1 0.188632 0.0156034 0.00840081 0.00582341 0.000133314 -0.00033766 7.23733e-11 1.80219e-10 -3.20472e-10 5e-05 1.46608e-10 
35 1 0.189334 0.017293 0.00723959 0.00542519 8.96722e-05 -0.000336847 -1.21924e-10 3.68249e-10 -2.67584e-10 5e-05 1.46608e-10 
36 1 0.195142 0.0176383 0.00709298 0.00562713 0.000299386 0.000126809 2.97018e-12 -1.04492e-11 4.38321e-12 5e-05 1.46608e-10 
37 1 0.189374 0.0183367 0.00689288 0.00570897 0.00022944 -0.000201623 1.07068e-11 9.07954e-11 1.56944e-10 5e-05 1.46608e-10 
38 1 0.189433 0.0186274 0.00684774 0.00572074 0.000248579 -0.000172359 -9.81583e-11 7.98194e-11 -3.83992e-12 5e-05 1.46608e-10 
39 1 0.19518 0.0178166 0.00701075 0.00568663 0.00030511 0.000126901 -5.1332e-12 -1.01378e-11 4.24628e-12 5e-05 1.46608e-10 
41 1 0.189541 0.0178576 0.00700058 0.00576227 0.000265513 5.79218e-05 -1.97983e-10 -9.60879e-11 2.04023e-11 5e-05 1.46608e-10 
42 1 0.321436 0.0173475 0.00552525 4.56698e-16 2.25558e-15 8.4636e-14 8.35259e-25 -7.88407e-25 0 5e-05 1.46608e-10 
44 1 0.189446 0.0178257 0.0070065 0.00571067 0.000260934 6.00615e-05 -9.09469e-11 5.16249e-12 1.09633e-11 5e-05 1.46608e-10 
45 1 0.195006 0.0170147 0.0073803 0.00585401 0.000256852 0.0001579 -1.98836e-11 6.55643e-11 -4.11189e-11 5e-05 1.46608e-10 
47 1 0.18859 0.0155026 0.00856777 0.00569702 5.17428e-06 -0.000421374 4.50617e-11 9.44758e-11 -1.72504e-10 5e-05 1.46608e-10 
48 1 0.189414 0.0185305 0.00686275 0.0057222 0.000248821 -0.000150658 -2.39265e-11 1.7603e-12 -1.318e-11 5e-05 1.46608e-10 
50 1 0.188787 0.0161666 0.00801805 0.00620698 0.000371939 3.50556e-05 1.02e-10 1.35938e-10 -6.64838e-11 5e-05 1.46608e-10 
51 1 0.188759 0.0160848 0.00806857 0.00621885 0.000370831 3.02402e-05 8.16127e-11 1.90684e-10 -1.23848e-10 5e-05 1.46608e-10 
52 1 0.182569 0.0154204 0.0086343 0.00597294 0.00019674 -0.000483911 3.15435e-10 -2.58166e-10 8.47339e-11 5e-05 1.46608e-10 
53 1 0.195123 0.0175491 0.00713409 0.00559832 0.000297333 0.000126429 1.35509e-12 -7.67235e-12 6.61262e-12 5e-05 1.46608e-10 
54 1 0.18926 0.0182084 0.00691524 0.00576079 0.000287584 -1.19974e-05 -5.47323e-11 -4.20744e-11 -3.74028e-10 5e-05 1.46608e-10 
55 1 0.182511 0.0152431 0.00886634 0.00577314 0.00051142 -0.000269556 1.13063e-10 -7.67475e-11 -2.78987e-11 5e-05 1.46608e-10 
56 1 0.189394 0.0184336 0.00687776 0.00572307 0.000241077 -0.000150577 2.18414e-11 4.59655e-11 1.52557e-11 5e-05 1.46608e-10 
57 1 0.195026 0.0171036 0.00733936 0.00561134 0.000290931 0.000129445 2.19337e-11 -2.03509e-11 2.12262e-11 5e-05 1.46608e-10 
59 1 0.189275 0.0174276 0.00714343 0.0055826 8.23933e-05 -0.000325535 -8.38931e-11 -1.71093e-10 8.37605e-11 5e-05 1.46608e-10 
61 1 0.18907 0.0169309 0.00752003 0.0059005 0.000315865 -0.0005285 2.26617e-10 -4.04753e-10 3.15656e-10 5e-05 1.46608e-10 
62 1 0.189659 0.0184309 0.00687295 0.00568747 0.000207549 -0.000142853 -6.70903e-11 6.50708e-11 -2.04299e-11 5e-05 1.46608e-10 
63 1 0.189464 0.0174772 0.00709709 0.00564368 0.000121483 -0.000374282 4.46225e-11 6.72555e-11 -1.02335e-10 5e-05 1.46608e-10 
64 1 0.195199 0.0179058 0.00696964 0.0057156 0.000307278 0.000127138 -4.40347e-12 -1.29854e-11 2.94294e-12 5e-05 1.46608e-10 
65 1 0.182848 0.0163617 0.00778224 0.00628433 3.5159e-05 -0.000365628 -5.61329e-12 1.43472e-12 4.30856e-11 5e-05 1.46608e-10 
66 1 0.182491 0.0151952 0.00895184 0.00575654 0.00051213 -0.000271221 -1.11196e-10 -4.17068e-11 9.65506e-11 5e-05 1.46608e-10 
67 1 0.18941 0.0180795 0.0069422 0.00575827 0.000287406 5.34008e-05 -4.51447e-11 1.52977e-10 -3.12005e-11 5e-05 1.46608e-10 
68 1 0.18922 0.0171912 0.00732038 0.00546701 0.000403688 -0.000567657 4.03273e-10 6.6377e-11 -5.40218e-11 5e-05 1.46608e-10 
69 1 0.18928 0.0183051 0.00689942 0.00574923 0.000265394 -0.000132233 9.69044e-12 -1.73358e-11 -2.3473e-10 5e-05 1.46608e-10 
70 1 0.195065 0.0172818 0.00725726 0.00566988 0.000283271 0.000136582 2.0951e-11 2.46086e-11 -9.71798e-12 5e-05 1.46608e-10 
71 1 0.18255 0.0153495 0.00870207 0.00578979 0.000340105 -0.000405494 -7.79387e-11 -2.97138e-10 -2.24187e-10 5e-05 1.46608e-10 
72 1 0.189315 0.0180478 0.00694807 0.00576041 0.000315056 4.59775e-05 9.19919e-11 1.18489e-10 -4.39775e-12 5e-05 1.46608e-10 
73 1 0.189339 0.0185958 0.00685437 0.00574477 0.00027087 -0.000159248 4.88872e-12 6.64385e-11 -6.80694e-11 5e-05 1.46608e-10 
74 1 0.189469 0.0183682 0.00688615 0.00568912 0.00022228 -0.000145389 -4.07412e-11 1.16373e-13 -8.12272e-12 5e-05 1.46608e-10 
76 1 0.183544 0.0183047 0.00690282 0.00571643 0.000459395 -0.000344637 -5.09848e-11 -9.6418e-11 -2.32213e-10 5e-05 1.46608e-10 
77 1 0.189352 0.0173717 0.00718063 0.0055107 7.22451e-05 -0.000336973 -4.13743e-10 3.15183e-10 -2.37267e-10 5e-05 1.46608e-10 
78 1 0.183299 0.018405 0.00690294 0.00575709 0.000427876 -0.000559508 1.81702e-10 -1.35367e-10 -2.94063e-10 5e-05 1.46608e-10 
79 1 0.182609 0.0155657 0.00850291 0.0062259 0.000119455 -0.00043297 4.72124e-10 -1.00797e-10 5.16436e-11 5e-05 1.46608e-10 
80 1 0.189505 0.0181113 0.00693632 0.0056986 0.000270984 5.69112e-05 -7.46735e-11 3.64002e-11 3.6875e-11 5e-05 1.46608e-10 
81 1 0.183433 0.0186322 0.00688173 0.00559461 0.000494049 -9.64014e-05 1.06332e-09 1.07336e-12 -7.05327e-11 5e-05 1.46608e-10 
82 1 0.182675 0.0157828 0.00830636 0.00624826 9.45876e-05 -0.000415493 6.42888e-11 -5.78665e-11 4.93399e-11 5e-05 1.46608e-10 
83 1 0.183354 0.0182421 0.00692219 0.00575997 0.00036494 -0.000440691 -4.26127e-11 2.12915e-10 -7.84226e-11 5e-05 1.46608e-10 
84 1 0.195104 0.01746 0.00717517 0.00572789 0.000274264 0.000143307 2.37885e-12 -5.66208e-12 3.69333e-12 5e-05 1.46608e-10 
85 1 0.18354 0.0178528 0.00698173 0.00572826 0.000318102 6.91949e-05 3.65369e-10 -1.71044e-10 1.31306e-10 5e-05 1.46608e-10 
86 1 0.189561 0.0179528 0.00697719 0.00577029 0.000276307 5.758e-05 -5.79986e-11 -1.68916e-10 2.40924e-11 5e-05 1.46608e-10 
87 1 0.189509 0.0185619 0.00685613 0.00569622 0.000218766 -0.000146277 -9.43297e-11 -6.63333e-13 1.17648e-11 5e-05 1.46608e-10 
88 1 0.188954 0.0168265 0.00759865 0.0060917 0.000367554 3.17153e-05 5.58846e-12 -1.6754e-10 9.89051e-12 5e-05 1.46608e-10 
89 1 0.189489 0.0184651 0.00687114 0.00569494 0.000220232 -0.0001449 -7.69065e-11 -3.42403e-11 -4.59065e-12 5e-05 1.46608e-10 
90 1 0.189352 0.0177938 0.00701241 0.00572276 0.00029205 5.24455e-05 2.17784e-12 1.88408e-10 -5.88381e-11 5e-05 1.46608e-10 
91 1 0.18358 0.0180448 0.00693754 0.00576283 0.000319931 -0.000361797 3.63286e-10 3.25157e-11 -1.05175e-10 5e-05 1.46608e-10 
92 1 0.18945 0.0182714 0.0069019 0.00568836 0.000195295 -0.000289983 -7.87918e-11 -1.16825e-11 -3.86935e-11 5e-05 1.46608e-10 
93 1 0.188824 0.0163319 0.00791203 0.00617241 0.000362365 3.37793e-05 2.51802e-11 5.01992e-11 -3.40735e-11 5e-05 1.46608e-10 
94 1 0.189237 0.0176669 0.00704169 0.00569013 0.000346402 3.55298e-05 -4.25141e-11 -1.23861e-10 6.55497e-11 5e-05 1.46608e-10 
95 1 0.189199 0.017482 0.00710687 0.00575858 0.000240377 -0.000463516 2.35005e-10 -5.50005e-11 -4.71626e-11 5e-05 1.46608e-10 
96 1 0.188846 0.0164144 0.00785978 0.00616083 0.000359644 3.5331e-05 1.08907e-11 3.34711e-11 -3.05817e-11 5e-05 1.46608e-10 
97 1 0.182964 0.0164564 0.00769243 0.0059404 0.000213591 -0.000161153 2.55437e-11 -1.3025e-10 6.8161e-11 5e-05 1.46608e-10 
98 1 0.189332 0.0176986 0.00703581 0.00570709 0.000290327 4.98117e-05 -1.15955e-10 -1.31933e-12 -1.09222e-10 5e-05 1.46608e-10 
99 1 0.183064 0.0168838 0.007456 0.00591379 0.000360936 4.91097e-05 -5.73928e-11 -6.61617e-11 3.52987e-11 5e-05 1.46608e-10 
100 1 0.189564 0.0183995 0.00687955 0.00568731 0.000212606 -0.000144409 -4.0282e-11 -7.55683e-12 1.17456e-11 5e-05 1.46608e-10 
101 1 0.182631 0.0156381 0.00843739 0.00622784 0.000108013 -0.000425868 3.19649e-11 -7.97669e-11 1.19073e-10 5e-05 1.46608e-10 
102 1 0.0643568 0.0187248 0.00531097 4.25066e-15 1.05058e-14 8.29602e-14 -3.38201e-22 -3.03808e-22 5.33531e-23 5e-05 1.46608e-10 
103 1 0.24257 0.0191927 0.00520306 4.2062e-23 -3.94926e-23 -1.99196e-21 -3.23117e-27 -2.58494e-26 0 5e-05 1.46608e-10 
104 1 0.183256 0.0177613 0.0070171 0.00571645 0.000426234 7.78903e-06 2.74385e-10 -1.01508e-10 2.50682e-11 5e-05 1.46608e-10 
105 1 0.183597 0.0177077 0.00705774 0.00568516 0.0003085 6.45826e-05 3.33407e-10 8.79198e-11 -2.35729e-11 5e-05 1.46608e-10 
106 1 0.183483 0.0175894 0.00711346 0.00566732 0.000339615 4.94102e-05 -2.53509e-11 -8.52165e-11 5.1461e-11 5e-05 1.46608e-10 
107 1 0.183464 0.0175017 0.00715738 0.00566107 0.000338728 5.05907e-05 -6.59973e-11 -3.13467e-11 2.52254e-12 5e-05 1.46608e-10 
108 1 0.189299 0.018402 0.00688439 0.005743 0.000257943 -0.000157128 -2.737e-11 -2.84909e-11 -3.72086e-11 5e-05 1.46608e-10 
109 1 0.189448 0.0173982 0.0071562 0.0057056 0.00016073 -0.000405086 -8.1788e-11 1.52098e-10 -6.01291e-12 5e-05 1.46608e-10 
110 1 0.188869 0.0164965 0.00780782 0.00613099 0.000360667 3.31857e-05 8.13992e-11 1.66481e-11 5.78974e-12 5e-05 1.46608e-10 
111 1 0.189181 0.0174028 0.00716628 0.00555532 0.000113182 -0.000366753 -5.08831e-11 -2.14279e-10 2.74452e-10 5e-05 1.46608e-10 
112 1 0.183315 0.0180481 0.00695176 0.00578669 0.000349928 -0.000351941 1.36181e-10 2.34747e-10 -7.81878e-12 5e-05 1.46608e-10 
113 1 0.182927 0.0166815 0.00756105 0.00582796 0.000320302 -3.73191e-05 1.42379e-11 -3.77472e-11 -6.09374e-11 5e-05 1.46608e-10 
114 1 0.183279 0.0183079 0.00691707 0.00577865 0.000405382 -0.000533142 -3.62634e-11 2.1376e-10 -8.81538e-11 5e-05 1.46608e-10 
115 1 0.189407 0.0176352 0.00705331 0.00569925 0.000258164 6.76634e-05 5.43282e-11 1.75054e-10 -9.68579e-11 5e-05 1.46608e-10 
116 1 0.18924 0.0181114 0.00693054 0.0057646 0.000322435 4.46431e-05 5.8769e-11 -5.96934e-11 1.25671e-11 5e-05 1.46608e-10 
117 1 0.189377 0.0187908 0.00684021 0.00571282 0.000284543 0.000183622 6.99003e-12 6.63259e-11 -4.49843e-12 5e-05 1.46608e-10 
118 1 0.183124 0.0175552 0.00711672 0.00567576 0.000455554 -8.41824e-06 5.12956e-12 2.07456e-11 -1.02508e-11 5e-05 1.46608e-10 
119 1 0.18937 0.0174525 0.00712459 0.00560969 0.000100706 -0.000266999 -4.63884e-11 7.6482e-11 -2.59673e-10 5e-05 1.46608e-10 
120 1 0.188696 0.0158376 0.00822625 0.00624728 0.000358748 4.13193e-05 6.46076e-11 2.85737e-10 -1.69187e-10 5e-05 1.46608e-10 
121 1 0.188609 0.0155473 0.00848049 0.00570598 1.38996e-05 -0.000438134 5.03094e-11 1.01417e-10 -3.07367e-10 5e-05 1.46608e-10 
122 1 0.189144 0.0172453 0.00728427 0.00534994 0.000245316 -0.000459873 1.78562e-10 1.41425e-10 -1.52958e-10 5e-05 1.46608e-10 
123 1 0.183086 0.0173796 0.00720459 0.00560766 0.000415334 9.0974e-06 3.39872e-12 -2.25213e-11 1.03707e-11 5e-05 1.46608e-10 
124 1 0.189163 0.017324 0.00722528 0.00548105 0.000161997 -0.000392888 -1.64106e-10 -2.72764e-10 2.62109e-10 5e-05 1.46608e-10 
125 1 0.189453 0.0187251 0.00683423 0.00577857 0.000277649 0.000185574 3.5329e-11 7.72043e-11 1.68949e-11 5e-05 1.46608e-10 
126 1 0.189089 0.0170095 0.00746112 0.0056672 0.000202921 -0.000430783 1.19472e-10 -1.03021e-10 2.14226e-11 5e-05 1.46608e-10 
127 1 0.183616 0.0177955 0.00701382 0.00566719 0.000257742 9.15884e-05 9.10996e-11 -4.3433e-10 2.33027e-10 5e-05 1.46608e-10 
128 1 0.189126 0.0171666 0.00734326 0.00554262 0.000264383 -0.00046202 1.42384e-10 -1.95623e-10 2.0847e-10 5e-05 1.46608e-10 
129 1 0.189276 0.0178573 0.00699488 0.00573388 0.000328451 4.27005e-05 -4.06115e-11 1.58301e-10 -7.20458e-11 5e-05 1.46608e-10 
131 1 0.183502 0.0176772 0.00706956 0.00568403 0.000324825 5.96403e-05 3.62627e-10 -8.9211e-11 5.26448e-11 5e-05 1.46608e-10 
132 1 0.189371 0.0178891 0.006989 0.00572776 0.000296145 5.05634e-05 1.35321e-10 1.90934e-10 -3.26878e-11 5e-05 1.46608e-10 
133 1 0.189143 0.0176365 0.00705251 0.00569376 0.000324178 -3.13488e-05 -8.34229e-11 -4.0991e-11 4.21314e-10 5e-05 1.46608e-10 
134 1 0.189108 0.017088 0.00740223 0.00569056 0.000225376 -0.000458708 1.86848e-10 -2.38442e-10 -8.26633e-11 5e-05 1.46608e-10 
135 1 0.188492 0.015279 0.00900344 0.00560075 -8.76173e-06 -0.000391562 -7.32462e-11 -1.68823e-10 3.3752e-10 5e-05 1.46608e-10 
136 1 0.183338 0.0186002 0.00688479 0.00571627 0.000604107 -8.06001e-05 -5.53927e-10 -1.03124e-10 -2.49637e-10 5e-05 1.46608e-10 
137 1 0.188802 0.0162494 0.00796428 0.00618711 0.000365509 3.25445e-05 3.72061e-11 8.28789e-11 -5.37915e-11 5e-05 1.46608e-10 
138 1 0.189221 0.0180162 0.00695393 0.00574461 0.000336893 4.06491e-05 2.5801e-10 -1.10117e-11 2.0209e-12 5e-05 1.46608e-10 
140 1 0.189312 0.017603 0.00705929 0.00571417 0.000392929 2.07857e-05 -1.90934e-11 -2.11939e-10 -3.59578e-11 5e-05 1.46608e-10 
141 1 0.183334 0.0181451 0.00693697 0.00578484 0.0003597 -0.00037408 7.34397e-11 2.72977e-10 -6.69582e-11 5e-05 1.46608e-10 
142 1 0.183067 0.0172918 0.0072485 0.00560417 0.00041236 1.04087e-05 3.2433e-12 -1.99674e-11 7.20271e-12 5e-05 1.46608e-10 
143 1 0.18253 0.015291 0.00878072 0.00577186 0.000519023 -0.00027451 -1.02723e-10 -3.98386e-11 -8.29898e-11 5e-05 1.46608e-10 
144 1 0.183181 0.0178259 0.00700469 0.00573631 0.000449391 9.45969e-06 8.61962e-11 -2.49295e-10 -1.83048e-10 5e-05 1.46608e-10 
147 1 0.183393 0.0184363 0.00689403 0.00575156 0.000518507 -0.000103039 -9.14486e-12 3.18976e-10 5.72543e-11 5e-05 1.46608e-10 
148 1 0.183158 0.0169133 0.00744468 0.00589375 0.000430099 1.31109e-05 3.5049e-11 -1.37643e-10 7.31506e-11 5e-05 1.46608e-10 
149 1 0.188975 0.0169084 0.00754539 0.00597068 0.000297256 -0.000116247 2.9093e-10 -2.57131e-10 2.47842e-10 5e-05 1.46608e-10 
150 1 0.0100679 0.0201683 0.00551526 8.38446e-15 1.24731e-15 -8.48744e-14 1.07792e-23 -5.35082e-23 2.06795e-25 5e-05 1.46608e-10 
151 1 0.183028 0.0171163 0.00733627 0.00567174 0.000393326 2.32922e-05 1.30438e-10 2.74002e-11 -5.16518e-12 5e-05 1.46608e-10 
153 1 0.183379 0.0187958 0.00687249 0.00625796 0.000195424 -8.67554e-05 -8.29619e-11 1.96218e-10 -6.44106e-12 5e-05 1.46608e-10 
154 1 0.183143 0.0176431 0.00707279 0.00570384 0.000451395 -5.19575e-06 4.96219e-12 1.89854e-11 -9.29443e-12 5e-05 1.46608e-10 
155 1 0.18335 0.0173833 0.0072131 0.00560185 0.000363632 3.55382e-05 2.44521e-11 -5.99766e-11 3.34852e-11 5e-05 1.46608e-10 
156 1 0.183295 0.017951 0.00696659 0.00573307 0.000332345 -0.000383753 -2.35303e-10 1.31258e-10 2.71374e-10 5e-05 1.46608e-10 
157 1 0.0219312 0.0187687 0.00551176 -3.82782e-14 8.16979e-14 2.95886e-13 -3.13889e-22 -3.728e-22 4.96308e-23 5e-05 1.46608e-10 
158 1 0.183524 0.0182077 0.00691759 0.0057348 0.000406781 -0.000377622 -1.36666e-10 1.69479e-10 4.07336e-10 5e-05 1.46608e-10 
159 1 0.189584 0.0184964 0.00686454 0.00569164 0.000213049 -0.000145915 -1.48777e-10 -1.27921e-11 2.6048e-11 5e-05 1.46608e-10 
160 1 0.183162 0.0177309 0.00702886 0.00573258 0.000450354 -3.54164e-06 3.59836e-12 1.77803e-11 -9.24844e-12 5e-05 1.46608e-10 
162 1 0.183454 0.0187297 0.00687559 0.00627418 0.000268544 -9.11094e-05 -4.33731e-10 4.02139e-10 -2.32641e-11 5e-05 1.46608e-10 
164 1 0.183024 0.0167084 0.00754363 0.00588413 0.000360421 4.86663e-05 -1.19616e-10 -2.69354e-11 7.5777e-12 5e-05 1.46608e-10 
165 1 0.183351 0.0177918 0.00700532 0.00572178 0.000408342 1.97719e-05 6.63841e-11 -9.38982e-11 5.11435e-11 5e-05 1.46608e-10 
166 1 0.189319 0.0184989 0.00686938 0.0057439 0.000261358 -0.00015086 -1.26872e-11 2.06653e-11 -8.68816e-12 5e-05 1.46608e-10 
168 1 0.183084 0.0169714 0.00741223 0.0058319 0.000371793 4.04714e-05 1.08982e-10 -6.9835e-11 3.75476e-11 5e-05 1.46608e-10 
169 1 0.183508 0.0185661 0.00688483 0.00560154 0.000582547 -0.000100432 -1.07472e-10 -1.15287e-10 -4.78785e-11 5e-05 1.46608e-10 
170 1 0.183427 0.0177345 0.00703744 0.00572218 0.000394547 2.43701e-05 6.08872e-11 -1.12137e-10 5.66288e-11 5e-05 1.46608e-10 
171 1 0.189201 0.0179209 0.00697734 0.00572184 0.000352041 3.6172e-05 6.24916e-14 6.75088e-11 -3.26876e-11 5e-05 1.46608e-10 
172 1 0.183332 0.017704 0.00704924 0.00562533 0.000421416 7.03268e-06 -1.92724e-10 -1.19242e-10 6.77184e-11 5e-05 1.46608e-10 
173 1 0.189486 0.0180161 0.00695972 0.00573918 0.000258793 5.96856e-05 5.71175e-11 -3.26072e-11 -3.69426e-11 5e-05 1.46608e-10 
174 1 0.183369 0.0174711 0.00716918 0.00565018 0.000357993 4.00418e-05 3.61627e-11 -1.67e-10 8.72704e-11 5e-05 1.46608e-10 
175 1 0.177079 0.0173558 0.00724064 0.00539278 -0.000629927 6.73771e-05 -2.91819e-11 8.93886e-12 -6.67477e-12 5e-05 1.46608e-10 
177 1 0.183198 0.0170893 0.00735671 0.00555958 0.000375656 2.76829e-05 1.77063e-10 1.82172e-10 -8.56487e-11 5e-05 1.46608e-10 
178 1 0.183123 0.0171468 0.00732452 0.00560405 0.000417075 8.37692e-06 8.24251e-11 4.68803e-11 -2.76841e-11 5e-05 1.46608e-10 
179 1 0.183199 0.0174979 0.00714888 0.00563759 0.000419583 8.46435e-06 7.15503e-12 -3.58366e-11 2.38995e-11 5e-05 1.46608e-10 
181 1 0.183468 0.0183703 0.00689771 0.00569679 0.000431838 -0.000391084 1.05143e-10 2.98386e-10 5.68112e-11 5e-05 1.46608e-10 
182 1 0.189162 0.0177304 0.00702415 0.00570685 0.000356062 4.59524e-05 2.26002e-11 -7.46063e-11 5.55882e-11 5e-05 1.46608e-10 
183 1 0.183407 0.0176467 0.00708135 0.00569964 0.000383575 2.9089e-05 -1.29076e-10 -4.9336e-11 3.44006e-11 5e-05 1.46608e-10 
184 1 0.189218 0.0175715 0.00706512 0.00571586 0.000375963 2.85941e-05 4.52346e-11 -3.3056e-10 2.35913e-10 5e-05 1.46608e-10 
186 1 0.183008 0.0170286 0.00738011 0.00582646 0.000365405 4.34677e-05 2.20535e-10 3.60029e-11 -9.78278e-12 5e-05 1.46608e-10 
187 1 0.189069 0.0173019 0.00725164 0.00534335 0.000106398 -0.000549393 4.96307e-11 5.18394e-11 4.16204e-10 5e-05 1.46608e-10 
188 1 0.189202 0.0171125 0.00737935 0.00568519 0.000359081 -0.000550884 1.24456e-10 -6.29134e-10 4.60697e-10 5e-05 1.46608e-10 
189 1 0.189391 0.0179843 0.0069656 0.00574508 0.00029022 5.23243e-05 8.88424e-11 1.82806e-10 -3.38182e-11 5e-05 1.46608e-10 
190 1 0.177355 0.0186818 0.00689219 0.00603989 -0.000715095 0.000301643 -1.46652e-11 -2.13698e-11 -2.86055e-12 5e-05 1.46608e-10 
191 1 0.189239 0.0172699 0.00726141 0.00528083 0.000434739 -0.000585992 -3.01483e-10 6.18597e-10 -4.75744e-10 5e-05 1.46608e-10 
192 1 0.183313 0.0176162 0.00709316 0.00567778 0.000407589 1.62799e-05 3.66794e-11 -1.55486e-10 7.63612e-11 5e-05 1.46608e-10 
193 1 0.189389 0.0175417 0.00708355 0.00566273 0.000214453 -4.50346e-05 -3.56827e-11 -6.07735e-13 -5.79446e-10 5e-05 1.46608e-10 
194 1 0.161461 0.0182058 0.00533758 1.4537e-15 -1.10195e-14 8.66688e-14 -1.23427e-21 -1.57268e-22 3.10193e-24 5e-05 1.46608e-10 
195 1 0.183505 0.0181108 0.00693238 0.00578429 0.000352068 -0.000374575 3.94645e-12 8.43416e-11 -6.82536e-11 5e-05 1.46608e-10 
196 1 0.182923 0.0163104 0.0078238 0.0063288 7.07887e-05 -0.000399088 -6.40612e-12 -1.91541e-11 2.83814e-11 5e-05 1.46608e-10 
197 1 0.177137 0.0176386 0.00715944 0.00540702 -0.000635324 6.81961e-05 1.20332e-10 -7.1935e-12 -3.58861e-12 5e-05 1.46608e-10 
198 1 0.183357 0.0186981 0.00687865 0.00620793 0.00053529 -0.000109839 8.29142e-10 -1.27008e-09 3.75359e-11 5e-05 1.46608e-10 
199 1 0.183259 0.018211 0.00693182 0.00578676 0.000397535 -0.000392702 1.32457e-10 4.29511e-10 -7.19577e-11 5e-05 1.46608e-10 
201 1 0.182908 0.0165917 0.0076008 0.00583425 0.0002578 -0.000188444 5.23487e-11 -1.0919e-10 -5.43639e-11 5e-05 1.46608e-10 
202 1 0.18339 0.0179822 0.00695738 0.00578964 0.00035008 -0.000217005 3.26164e-10 1.23406e-10 1.11226e-11 5e-05 1.46608e-10 
203 1 0.188889 0.0165793 0.0077553 0.00607217 0.000369541 2.89196e-05 1.03996e-10 -2.72004e-11 -1.83131e-11 5e-05 1.46608e-10 
204 1 0.182589 0.0154931 0.00856855 0.00616445 0.000142583 -0.000459434 4.9725e-10 -2.63928e-10 1.54755e-10 5e-05 1.46608e-10 
205 1 0.183466 0.0179177 0.00696689 0.00577407 0.000356904 -3.17024e-05 5.80622e-10 8.51186e-11 4.44716e-11 5e-05 1.46608e-10 
206 1 0.182983 0.0165331 0.00763128 0.00584628 0.000390337 3.09423e-05 8.46646e-11 -1.08158e-10 7.51197e-11 5e-05 1.46608e-10 
207 1 0.183103 0.0170591 0.00736838 0.00568681 0.000397855 2.11259e-05 8.16154e-11 -1.20499e-11 8.09842e-12 5e-05 1.46608e-10 
208 1 0.183276 0.0178556 0.00698998 0.00573111 0.000403043 -7.42497e-05 -2.80431e-11 -1.65323e-10 -7.93939e-12 5e-05 1.46608e-10 
209 1 0.180011 0.0172981 0.00719644 0.00534331 -0.00225243 0.000526875 5.54554e-13 -2.3324e-13 5.66703e-14 5e-05 1.46608e-10 
210 1 0.189105 0.0174567 0.00713028 0.0056193 0.000161067 -0.000401339 9.70792e-12 -9.45245e-11 3.05832e-10 5e-05 1.46608e-10 
211 1 0.189051 0.0172241 0.00731183 0.00540565 7.24211e-05 -0.00055304 1.50861e-10 -3.33199e-10 6.38674e-12 5e-05 1.46608e-10 
212 1 0.183409 0.0180791 0.00694214 0.00578452 0.000327327 -0.000364504 5.22385e-11 1.7708e-11 3.8503e-11 5e-05 1.46608e-10 
213 1 0.189355 0.0182399 0.00690834 0.0056969 0.000220191 -0.00021302 -5.16516e-11 2.11765e-11 2.58838e-11 5e-05 1.46608e-10 
214 1 0.188994 0.0169866 0.00748605 0.00573268 0.000185458 -0.000330817 1.4553e-10 -2.78838e-10 3.5664e-10 5e-05 1.46608e-10 
215 1 0.177334 0.0185852 0.00690703 0.00601251 -0.000707588 0.000300409 -3.38611e-11 -4.94114e-11 1.18015e-11 5e-05 1.46608e-10 
216 1 0.18337 0.0178847 0.00697182 0.00569224 0.000288102 -0.000356758 -2.28263e-10 6.46625e-11 1.20454e-10 5e-05 1.46608e-10 
217 1 0.189358 0.0186927 0.00683939 0.00574904 0.000273409 -0.000224967 1.68983e-11 5.3787e-11 -3.5225e-10 5e-05 1.46608e-10 
218 1 0.182697 0.0158551 0.00824088 0.00625007 8.7937e-05 -0.00040978 2.73209e-12 -5.12358e-11 3.97395e-11 5e-05 1.46608e-10 
219 1 0.188936 0.0167452 0.0076541 0.00606205 0.000374841 3.13477e-05 -1.76267e-10 -1.33206e-10 -1.45771e-10 5e-05 1.46608e-10 
220 1 0.183485 0.0180138 0.00694726 0.00578239 0.00032475 -0.000333646 2.08854e-10 1.6564e-10 -3.07821e-10 5e-05 1.46608e-10 
221 1 0.243153 0.0176648 0.00702551 0.00567115 -3.04175e-05 9.86693e-06 1.28129e-12 -1.62692e-14 7.56839e-15 5e-05 1.46608e-10 
222 1 0.18943 0.0181749 0.00691921 0.00568485 0.00023656 -4.20025e-05 -1.04234e-10 -8.76038e-12 -1.98523e-11 5e-05 1.46608e-10 
223 1 0.183238 0.0176735 0.00706105 0.00568847 0.000425619 7.05112e-06 2.13125e-10 -7.8637e-11 4.79463e-11 5e-05 1.46608e-10 
224 1 0.102018 0.0172541 0.00803745 5.4223e-06 -0.018635 0.00951721 1.55572e-13 9.15741e-11 -3.48373e-11 5e-05 1.46608e-10 
225 1 0.189257 0.0173488 0.00720228 0.00550477 7.44697e-05 -0.000332857 3.84948e-11 -3.0297e-10 1.77827e-10 5e-05 1.46608e-10 
226 1 0.183048 0.0172041 0.00729241 0.00559292 0.000409063 1.20126e-05 -2.22931e-11 1.30689e-11 -1.7187e-12 5e-05 1.46608e-10 
227 1 0.177274 0.0182983 0.00697 0.00548073 -0.00065556 7.31587e-05 6.7457e-11 1.82618e-11 -9.23473e-11 5e-05 1.46608e-10 
228 1 0.177098 0.01745 0.00721358 0.00537393 -0.000626619 6.64859e-05 -1.76072e-11 3.05886e-11 -8.61133e-12 5e-05 1.46608e-10 
229 1 0.183449 0.0182731 0.00691253 0.00569723 0.000386732 -0.000369484 -1.84637e-10 1.41179e-10 1.27101e-10 5e-05 1.46608e-10 
230 1 0.182869 0.0164342 0.00771661 0.00612283 6.90756e-05 -0.000370336 5.84386e-11 -2.22456e-11 5.81411e-11 5e-05 1.46608e-10 
231 1 0.177059 0.0172616 0.0072677 0.00553111 -0.000658703 7.28647e-05 9.29445e-11 3.57602e-11 -1.47775e-11 5e-05 1.46608e-10 
232 1 0.18324 0.0181141 0.00694661 0.00578361 0.000372909 -0.000376845 1.70591e-10 4.7731e-10 -7.91596e-11 5e-05 1.46608e-10 
234 1 0.189296 0.0179526 0.00697148 0.00573802 0.000318444 4.55239e-05 1.52987e-10 1.41265e-10 -3.49043e-11 5e-05 1.46608e-10 
235 1 0.183445 0.0178229 0.00699318 0.00570441 0.000426375 7.98244e-06 -1.48959e-10 1.20238e-10 -9.20929e-11 5e-05 1.46608e-10 
236 1 0.182827 0.0162893 0.00784776 0.00629105 3.81103e-05 -0.000367555 -1.09372e-11 5.17073e-12 1.05761e-11 5e-05 1.46608e-10 
237 1 0.182784 0.0161445 0.00797886 0.0062867 5.20639e-05 -0.000379685 9.69304e-12 -6.89082e-12 1.15005e-12 5e-05 1.46608e-10 
239 1 0.176902 0.0165706 0.00759872 0.00568451 -0.000335365 0.000525266 -6.5981e-12 -4.95414e-12 1.7038e-11 5e-05 1.46608e-10 
240 1 0.176922 0.0166433 0.00753299 0.00573108 -0.000341301 0.000531408 -1.49028e-11 -3.59206e-11 2.83274e-11 5e-05 1.46608e-10 
241 1 0.176979 0.0168849 0.00737589 0.00550443 -0.000671169 7.63365e-05 -5.66244e-11 8.04088e-11 -1.46871e-11 5e-05 1.46608e-10 
242 1 0.183105 0.0174674 0.00716066 0.00564708 0.000456838 -1.01938e-05 5.54472e-12 2.26218e-11 -1.12684e-11 5e-05 1.46608e-10 
244 1 0.176941 0.0167162 0.00746703 0.0057718 -0.000345054 0.000536546 -6.11894e-11 -5.0123e-11 5.50632e-11 5e-05 1.46608e-10 
246 1 0.177039 0.0171674 0.00729474 0.00552392 -0.000659408 7.28411e-05 -3.90033e-11 6.04897e-11 -1.03597e-11 5e-05 1.46608e-10 
247 1 0.183638 0.0183364 0.00689715 0.00575228 0.000461968 -9.23478e-05 -1.49594e-10 2.44018e-10 -8.7285e-11 5e-05 1.46608e-10 
248 1 0.182888 0.0165086 0.00765263 0.00576399 0.000191794 -0.000328335 1.05123e-10 -1.20865e-10 -3.96327e-11 5e-05 1.46608e-10 
249 1 0.177314 0.0184884 0.00692194 0.00548887 -0.000605368 0.00026687 2.28695e-11 -5.87343e-11 2.55916e-11 5e-05 1.46608e-10 
250 1 0.183179 0.0170016 0.00740059 0.00579665 0.00050606 -2.92958e-05 1.36099e-10 -3.59392e-12 8.03579e-12 5e-05 1.46608e-10 
251 1 0.188912 0.0166614 0.00770335 0.00602218 0.000381684 2.55394e-05 -5.37938e-11 -1.61039e-10 -2.47173e-10 5e-05 1.46608e-10 
252 1 0.177176 0.0178271 0.00710531 0.0054351 -0.000638424 6.84615e-05 -3.78972e-11 -4.33846e-12 2.77723e-12 5e-05 1.46608e-10 
253 1 0.177376 0.0187784 0.00687735 0.006071 -0.000722127 0.000303952 3.81361e-11 2.77307e-11 -3.49265e-12 5e-05 1.46608e-10 
254 1 0.177019 0.0170732 0.00732179 0.00551634 -0.000664074 7.40602e-05 4.05139e-11 1.11169e-10 -2.88108e-11 5e-05 1.46608e-10 
255 1 0.183201 0.0179209 0.00698009 0.00573563 0.000390316 -0.000216974 -5.05179e-12 -5.3673e-11 -3.57975e-11 5e-05 1.46608e-10 
256 1 0.183294 0.0175284 0.00713707 0.00565408 0.000400282 1.90174e-05 -6.80432e-11 -5.39091e-11 2.08302e-11 5e-05 1.46608e-10 
257 1 0.183256 0.0173528 0.0072249 0.00559434 0.000396906 1.8153e-05 2.23073e-11 -5.24755e-11 2.45097e-11 5e-05 1.46608e-10 
258 1 0.183161 0.0173223 0.00723671 0.00560212 0.000416484 8.24025e-06 -8.8547e-12 -9.83899e-12 1.38091e-11 5e-05 1.46608e-10 
259 1 0.177196 0.0179214 0.00707825 0.00545065 -0.000639271 6.83094e-05 -1.47648e-11 2.30885e-11 -6.66243e-12 5e-05 1.46608e-10 
261 1 0.182968 0.0168535 0.0074677 0.00587581 0.000355224 5.16192e-05 9.90601e-12 5.39568e-11 -2.62995e-11 5e-05 1.46608e-10 