ITEM: TIMESTEP
27800000
ITEM: NUMBER OF ATOMS
271
ITEM: BOX BOUNDS ff ff ff
-0.02 0.43
-0.02 0.06
-0.02 0.07
ITEM: ATOMS id type x y z vx vy vz fx fy fz radius mass 
1 1 0.174643 0.0156411 0.00849507 0.00560306 -0.000282064 0.000179897 2.09864e-10 1.89764e-11 -2.01022e-11 5e-05 1.46608e-10 
2 1 0.175541 0.0182203 0.00702084 0.00604939 -0.00063835 0.000189771 -2.77884e-10 1.9589e-10 -4.30967e-11 5e-05 1.46608e-10 
3 1 0.169166 0.016268 0.00797509 0.00549359 -0.000576708 0.000925852 6.21543e-10 -3.77231e-10 1.66296e-10 5e-05 1.46608e-10 
4 1 0.175571 0.0179675 0.00709254 0.00600788 -0.000585645 0.000175031 -3.91526e-10 1.80999e-10 -5.14036e-11 5e-05 1.46608e-10 
5 1 0.174622 0.0155712 0.00856375 0.00554596 -0.000274377 0.000168871 1.88325e-10 -4.24664e-11 2.92935e-11 5e-05 1.46608e-10 
6 1 0.180943 0.016765 0.00752457 0.00564069 3.64434e-05 -0.000331694 2.1768e-12 6.49893e-12 -5.86556e-12 5e-05 1.46608e-10 
7 1 0.174724 0.0159203 0.00822047 0.00569013 -0.000269283 0.000165427 9.53041e-11 6.84312e-11 2.6104e-11 5e-05 1.46608e-10 
8 1 0.174602 0.0155015 0.00863236 0.00565231 -0.000283774 0.00017723 -3.07156e-10 -4.91685e-12 7.76712e-11 5e-05 1.46608e-10 
9 1 0.181059 0.0172466 0.0071925 0.0057415 0.000298787 7.40041e-05 -3.4838e-13 2.54892e-12 -1.92665e-12 5e-05 1.46608e-10 
10 1 0.175188 0.0178504 0.00712514 0.00599624 -0.000623302 0.000185357 -6.61804e-11 -8.03765e-11 2.36979e-11 5e-05 1.46608e-10 
11 1 0.175328 0.0180682 0.00706363 0.00601746 -0.000609213 0.000181581 -2.37395e-10 -1.0403e-10 2.40458e-11 5e-05 1.46608e-10 
12 1 0.168696 0.0158366 0.00834497 0.00538311 -0.00104523 0.000434309 6.0246e-12 -2.76502e-11 6.02943e-11 5e-05 1.46608e-10 
13 1 0.174538 0.0152925 0.00883792 0.00616813 -0.000378242 0.000258742 3.94378e-11 2.24447e-10 -2.38727e-10 5e-05 1.46608e-10 
14 1 0.169312 0.0181245 0.00725085 0.00613157 0.000830336 -0.00060954 2.69724e-11 -5.83091e-11 2.03671e-11 5e-05 1.46608e-10 
15 1 0.175549 0.0178735 0.00711912 0.00601789 -0.000599695 0.000179149 -3.01198e-10 1.31046e-10 -3.78026e-11 5e-05 1.46608e-10 
16 1 0.169362 0.0179477 0.00732397 0.00607916 0.000821894 -0.000603388 -1.09394e-11 -3.70811e-11 1.73242e-11 5e-05 1.46608e-10 
17 1 0.175593 0.0180614 0.00706595 0.00603319 -0.000594139 0.000177966 -4.83455e-10 1.58037e-10 -4.40584e-11 5e-05 1.46608e-10 
19 1 0.174581 0.0154318 0.00870089 0.00609902 -0.000356162 0.000243293 1.23381e-11 -7.01576e-11 2.06313e-10 5e-05 1.46608e-10 
21 1 0.175145 0.0176625 0.0071783 0.00597665 -0.000637866 0.000190694 1.85195e-11 -9.50614e-11 3.68048e-11 5e-05 1.46608e-10 
22 1 0.175359 0.0178156 0.00713525 0.00598601 -0.000612961 0.00018276 -1.57769e-10 5.95621e-11 -1.72947e-11 5e-05 1.46608e-10 
23 1 0.168827 0.0159362 0.00813054 0.00538248 -0.000963057 0.000500008 6.03901e-11 -8.66289e-11 -9.10257e-11 5e-05 1.46608e-10 
24 1 0.18114 0.0176335 0.00713109 0.00621826 0.000125562 -0.000362889 1.05995e-12 -7.82106e-13 4.14868e-13 5e-05 1.46608e-10 
25 1 0.174784 0.0161372 0.00802246 0.00538239 -0.000810982 -0.000489118 1.00289e-10 4.11896e-10 1.04129e-10 5e-05 1.46608e-10 
26 1 0.18102 0.0170712 0.00728019 0.00574404 0.000297789 7.46129e-05 9.30608e-13 4.91854e-12 -2.70813e-12 5e-05 1.46608e-10 
27 1 0.169146 0.016173 0.00799878 0.00534724 -0.000560171 0.000900702 2.79918e-10 -5.25204e-10 2.00697e-10 5e-05 1.46608e-10 
28 1 0.175497 0.0180325 0.00707402 0.00599682 -0.000605604 0.000180856 -2.66171e-10 1.65538e-10 -4.72758e-11 5e-05 1.46608e-10 
29 1 0.174744 0.0159901 0.00815181 0.00569015 -0.000286278 0.000164871 -1.82327e-11 9.49069e-11 -4.76551e-12 5e-05 1.46608e-10 
30 1 0.175253 0.0181322 0.00704539 0.00603478 -0.000612038 0.000182178 -5.4265e-11 5.59408e-11 -1.76283e-11 5e-05 1.46608e-10 
31 1 0.174804 0.0162168 0.0079654 0.00534309 -0.000838834 -0.000505939 4.84546e-11 2.82128e-10 -2.52022e-11 5e-05 1.46608e-10 
32 1 0.175205 0.0172328 0.00730015 0.00577789 -0.000747246 0.000220144 -4.51369e-11 -3.31717e-11 -4.21066e-11 5e-05 1.46608e-10 
33 1 0.180962 0.0168378 0.00745876 0.00567029 3.14638e-05 -0.000328816 1.92397e-12 6.00783e-12 -5.53073e-12 5e-05 1.46608e-10 
34 1 0.174704 0.0158514 0.00829017 0.00565081 -0.000269265 0.000153635 -2.49044e-11 1.21053e-10 7.70608e-11 5e-05 1.46608e-10 
35 1 0.175421 0.0175607 0.00720757 0.00297156 -0.000914813 0.000263729 -1.66761e-10 8.77718e-11 -2.45552e-11 5e-05 1.46608e-10 
36 1 0.181118 0.017537 0.00714593 0.00622073 0.000124863 -0.000362933 6.70597e-13 -5.04842e-13 -5.39655e-13 5e-05 1.46608e-10 
37 1 0.175452 0.0186347 0.00690331 0.00542633 -0.000484985 0.000147241 6.00136e-10 3.50468e-10 -3.10855e-11 5e-05 1.46608e-10 
38 1 0.175509 0.018919 0.00682284 0.00556056 -0.000294514 9.12012e-05 -6.96755e-10 4.1602e-10 -1.10825e-10 5e-05 1.46608e-10 
39 1 0.181161 0.0177299 0.00711625 0.00621596 0.000126229 -0.000362846 6.61941e-13 -1.39802e-12 1.56824e-13 5e-05 1.46608e-10 
41 1 0.175614 0.0181554 0.00703937 0.00606412 -0.000598905 0.000178567 -1.89106e-10 6.36726e-11 -2.75394e-11 5e-05 1.46608e-10 
42 1 0.321436 0.0173475 0.00552525 4.59384e-16 2.25563e-15 8.4636e-14 -1.05094e-23 -6.08753e-24 4.1359e-25 5e-05 1.46608e-10 
44 1 0.175519 0.0181264 0.00704743 0.00602568 -0.000610452 0.00018186 -1.70677e-10 8.49605e-11 -3.07875e-11 5e-05 1.46608e-10 
45 1 0.180981 0.0169107 0.00739295 0.00569988 2.64693e-05 -0.000326025 1.29262e-12 5.72061e-12 -4.96237e-12 5e-05 1.46608e-10 
47 1 0.174663 0.0157109 0.0084264 0.00563617 -0.000280373 0.000173076 1.68335e-10 6.4829e-11 -9.47353e-11 5e-05 1.46608e-10 
48 1 0.17549 0.0188242 0.00684965 0.00578248 -0.000602121 0.000180142 -5.77501e-10 3.76624e-10 -3.41636e-10 5e-05 1.46608e-10 
50 1 0.174843 0.0163766 0.00785143 0.00530388 -0.00084585 -0.000480921 -1.50463e-10 1.30014e-10 -6.46878e-11 5e-05 1.46608e-10 
51 1 0.174823 0.0162967 0.00790842 0.00533069 -0.000847183 -0.000490541 -7.18214e-11 1.45032e-10 -7.79833e-11 5e-05 1.46608e-10 
52 1 0.168611 0.0156571 0.00869207 0.0056462 -0.00110607 0.000472182 -1.31518e-10 6.64828e-11 -8.12493e-11 5e-05 1.46608e-10 
53 1 0.181098 0.0174401 0.00716073 0.00607034 0.000156377 -0.00035918 -2.52992e-11 5.92343e-12 1.21227e-12 5e-05 1.46608e-10 
54 1 0.175339 0.0185081 0.00693899 0.005636 -0.000447309 0.000145248 1.55983e-11 -5.52431e-10 -3.46604e-10 5e-05 1.46608e-10 
55 1 0.168546 0.0155226 0.00895228 0.00568587 -0.0011174 0.000481612 3.12979e-11 3.10125e-11 -7.6959e-11 5e-05 1.46608e-10 
56 1 0.175471 0.0187296 0.00687644 0.00557817 -0.000542415 0.000164168 -6.64655e-10 4.27469e-10 -1.75727e-10 5e-05 1.46608e-10 
57 1 0.181 0.0169905 0.00733595 0.00568848 0.000165969 -0.000135092 1.52746e-12 5.49755e-12 -3.4958e-12 5e-05 1.46608e-10 
59 1 0.175337 0.0177217 0.00716183 0.00596444 -0.00060923 0.000181747 -8.51338e-11 8.69899e-12 -2.20789e-14 5e-05 1.46608e-10 
61 1 0.175113 0.0170708 0.00734591 0.00563996 -0.000657135 0.000196853 4.64113e-11 -3.89255e-10 4.69416e-11 5e-05 1.46608e-10 
62 1 0.175736 0.0187304 0.00687661 0.0068809 9.49345e-05 -1.64645e-05 -6.94929e-10 3.68987e-10 -1.0336e-10 5e-05 1.46608e-10 
63 1 0.175528 0.0177796 0.00714571 0.00597906 -0.000646547 0.000192342 -3.38648e-10 4.8698e-11 -1.39265e-11 5e-05 1.46608e-10 
64 1 0.181183 0.0178264 0.00710141 0.00621357 0.000126883 -0.00036281 -3.58143e-14 -2.23967e-12 3.19934e-13 5e-05 1.46608e-10 
65 1 0.168862 0.0163588 0.00799741 0.00523881 -0.000561481 0.000887411 -1.28016e-10 -7.47176e-11 1.39355e-11 5e-05 1.46608e-10 
66 1 0.168524 0.0154778 0.00903901 0.00566635 -0.00111481 0.000482442 -6.05047e-11 1.74313e-11 -9.51365e-12 5e-05 1.46608e-10 
67 1 0.175488 0.0183799 0.00697556 0.00593256 -0.000118839 4.38156e-05 1.033e-10 3.37376e-11 1.6647e-11 5e-05 1.46608e-10 
68 1 0.175283 0.0174446 0.00724025 0.000321894 0.000297718 -8.37993e-05 -1.96295e-10 1.40117e-10 -4.06119e-11 5e-05 1.46608e-10 
69 1 0.175358 0.0186026 0.00691224 0.00550433 -0.000464501 0.000147554 -1.13188e-10 8.83139e-10 -5.13371e-10 5e-05 1.46608e-10 
70 1 0.181039 0.0171589 0.00723635 0.00574271 0.000298267 7.42321e-05 5.13601e-13 4.04629e-12 -1.85966e-12 5e-05 1.46608e-10 
71 1 0.168589 0.0156122 0.00877881 0.00570945 -0.00112001 0.000480411 -9.59186e-11 5.006e-11 -5.31791e-11 5e-05 1.46608e-10 
72 1 0.175393 0.01835 0.00698387 0.00609988 -0.00056244 0.000169878 -1.16537e-10 7.61772e-10 -2.09478e-10 5e-05 1.46608e-10 
73 1 0.175413 0.0188863 0.00683196 0.0057947 -0.000434279 0.000114206 -7.03585e-10 2.23162e-10 -4.42554e-10 5e-05 1.46608e-10 
74 1 0.175547 0.0186659 0.00689459 0.00467642 0.0016272 -0.000453914 -6.53407e-10 1.50669e-10 -4.19605e-11 5e-05 1.46608e-10 
76 1 0.169237 0.0173385 0.00758831 0.00564543 -0.000163237 -0.000166313 1.98763e-10 -1.58923e-10 5.85513e-11 5e-05 1.46608e-10 
77 1 0.17541 0.0176564 0.00718044 0.00594375 -0.000618116 0.000184258 -1.08989e-10 5.53626e-11 -1.59059e-11 5e-05 1.46608e-10 
78 1 0.169322 0.0180327 0.00728948 0.00609774 0.000831488 -0.000608198 9.55651e-11 -2.50757e-11 6.75049e-12 5e-05 1.46608e-10 
79 1 0.168654 0.0157467 0.00851861 0.00547729 -0.00106772 0.00044901 -1.76453e-10 4.42126e-11 -3.51899e-11 5e-05 1.46608e-10 
80 1 0.175583 0.0184107 0.00696698 0.00504677 0.00246512 -0.000691359 -4.95307e-10 4.30311e-11 -4.99636e-12 5e-05 1.46608e-10 
81 1 0.169291 0.0175262 0.00750623 0.00598991 0.000856267 -0.000614318 -6.23829e-11 -5.13762e-11 2.69158e-11 5e-05 1.46608e-10 
82 1 0.168715 0.0158819 0.00825797 0.00534603 -0.00103757 0.000429847 -6.2501e-11 -3.2779e-11 6.558e-11 5e-05 1.46608e-10 
83 1 0.169212 0.0176813 0.00744356 0.00598107 0.000849081 -0.00061097 1.41427e-10 1.44721e-10 -6.9003e-11 5e-05 1.46608e-10 
84 1 0.181078 0.0173433 0.00717553 0.00584561 0.000202519 -0.000357236 -5.12142e-12 4.15586e-12 1.11807e-11 5e-05 1.46608e-10 
85 1 0.169203 0.0164677 0.00792457 0.00552111 -0.000712709 0.000967125 4.26999e-10 -1.41655e-10 9.33941e-11 5e-05 1.46608e-10 
86 1 0.175636 0.0182506 0.00701241 0.00594366 -4.90197e-05 2.26275e-05 -1.84071e-10 -7.15877e-11 6.20207e-12 5e-05 1.46608e-10 
87 1 0.175584 0.0188562 0.00684074 0.00576091 -0.000263636 8.33292e-05 -6.87603e-10 4.05642e-10 -1.27399e-10 5e-05 1.46608e-10 
88 1 0.174999 0.0170184 0.00740056 0.00547954 -0.000846502 -0.000406223 -8.45916e-11 2.28194e-10 1.63505e-12 5e-05 1.46608e-10 
89 1 0.175566 0.0187604 0.00686786 0.00488161 0.00162602 -0.000453177 -6.5672e-10 1.60151e-10 -4.50593e-11 5e-05 1.46608e-10 
90 1 0.175424 0.0180974 0.00705549 0.00600921 -0.00060601 0.000180731 -2.78106e-10 2.56289e-11 -5.19638e-12 5e-05 1.46608e-10 
91 1 0.169187 0.0163629 0.00795149 0.00554878 -0.00057359 0.000931074 8.35797e-10 -1.64228e-10 1.75793e-10 5e-05 1.46608e-10 
92 1 0.175528 0.0185715 0.00692134 0.00468125 0.00162669 -0.000453709 2.42942e-10 -5.88744e-11 2.80717e-11 5e-05 1.46608e-10 
93 1 0.174884 0.0165356 0.00773741 0.00531082 -0.000850488 -0.000479879 1.29089e-10 8.86845e-11 -8.80643e-11 5e-05 1.46608e-10 
94 1 0.175306 0.0179743 0.00709021 0.00601434 -0.000613223 0.000182832 -1.42046e-10 -7.03414e-11 2.13285e-11 5e-05 1.46608e-10 
95 1 0.175263 0.0177864 0.00714338 0.00598629 -0.00060948 0.000181696 -1.16307e-11 -4.43878e-11 7.55259e-12 5e-05 1.46608e-10 
96 1 0.174904 0.0166153 0.00768042 0.005357 -0.000861171 -0.000482481 -1.7706e-11 1.90747e-10 -1.02656e-10 5e-05 1.46608e-10 
97 1 0.16892 0.0159494 0.00809488 0.00544885 -0.000818569 0.000733089 2.9924e-11 -8.64993e-11 -1.06212e-10 5e-05 1.46608e-10 
98 1 0.175402 0.0180035 0.00708208 0.00600374 -0.000608303 0.000181698 -1.23549e-10 7.72735e-13 -5.58082e-12 5e-05 1.46608e-10 
99 1 0.168855 0.0164834 0.00796203 0.00533528 -0.000593569 0.000920037 -6.46954e-11 -9.88869e-11 -7.93563e-11 5e-05 1.46608e-10 
100 1 0.175641 0.0186973 0.00688586 0.00475118 0.00142037 -0.000395258 -6.63337e-10 1.79866e-10 -5.08776e-11 5e-05 1.46608e-10 
101 1 0.168675 0.0157915 0.00843185 0.00542602 -0.00105562 0.00044111 -7.98865e-11 -8.76336e-12 1.66268e-11 5e-05 1.46608e-10 
102 1 0.0643568 0.0187248 0.00531097 4.14395e-15 1.05732e-14 8.29568e-14 5.55943e-22 -2.6506e-22 8.06501e-24 5e-05 1.46608e-10 
103 1 0.24257 0.0191927 0.00520306 7.51214e-23 -1.27651e-22 1.23839e-22 0 0 0 5e-05 1.46608e-10 
104 1 0.169121 0.0172189 0.00764403 0.00561503 -0.000174394 -0.000160103 1.96639e-10 -1.1688e-10 2.1887e-11 5e-05 1.46608e-10 
105 1 0.169029 0.0160394 0.00801976 0.00543664 -0.00046914 0.000889266 -1.37481e-10 2.03808e-10 -6.1038e-11 5e-05 1.46608e-10 
106 1 0.168977 0.0161996 0.00796785 0.00531034 -0.000560343 0.000896107 6.17058e-11 -1.6279e-10 5.93694e-11 5e-05 1.46608e-10 
107 1 0.168934 0.0160082 0.00801526 0.00546982 -0.000569002 0.000919954 -8.45359e-11 4.45603e-11 -1.64799e-11 5e-05 1.46608e-10 
108 1 0.175376 0.0186972 0.00688548 0.00563182 -0.000494068 0.000150232 -8.69868e-10 8.01787e-10 -4.10688e-10 5e-05 1.46608e-10 
109 1 0.175506 0.0176854 0.00717235 0.00597895 -0.000617139 0.000183975 -1.76021e-10 -2.64562e-11 7.41853e-12 5e-05 1.46608e-10 
110 1 0.174922 0.0166954 0.00762346 0.00540662 -0.000871133 -0.00048254 -1.46888e-11 2.26236e-10 -1.3023e-10 5e-05 1.46608e-10 
111 1 0.175241 0.0176925 0.00716996 0.00597159 -0.000624417 0.000185798 3.62901e-11 -8.39711e-11 2.36746e-11 5e-05 1.46608e-10 
112 1 0.169251 0.0174424 0.00754356 0.00478868 0.00137398 -0.000784338 1.94967e-10 -2.06449e-10 8.03306e-11 5e-05 1.46608e-10 
113 1 0.168973 0.0166413 0.00784403 0.00539136 -0.00070669 0.000950384 5.25163e-10 2.07919e-10 -1.01394e-10 5e-05 1.46608e-10 
114 1 0.169222 0.0180355 0.00729246 0.0060956 0.000856683 -0.000618588 5.05457e-11 1.12585e-10 -4.52409e-11 5e-05 1.46608e-10 
115 1 0.175476 0.0179385 0.0071006 0.00600189 -0.000613358 0.000182813 -1.02482e-10 1.9802e-10 -5.59336e-11 5e-05 1.46608e-10 
116 1 0.175318 0.018414 0.00696564 0.00608788 -0.00053134 0.000164667 -3.08299e-10 -2.23318e-10 -5.89112e-12 5e-05 1.46608e-10 
117 1 0.175452 0.0190792 0.00681069 0.00551019 -0.000494743 -0.00026176 2.64719e-10 9.36433e-11 6.40266e-10 5e-05 1.46608e-10 
118 1 0.169064 0.0173715 0.00758152 0.00564323 -0.000179681 -0.000159212 2.39062e-11 -7.53737e-11 3.12455e-11 5e-05 1.46608e-10 
119 1 0.175432 0.0177506 0.00715377 0.00597283 -0.000623797 0.000185852 -1.20645e-10 5.58588e-11 -1.67339e-11 5e-05 1.46608e-10 
120 1 0.174764 0.0160613 0.00808448 0.00556801 -0.000557971 -0.000147634 -5.0899e-12 2.65388e-10 -1.81707e-11 5e-05 1.46608e-10 
121 1 0.174684 0.0157807 0.00835785 0.00562184 -0.00027979 0.000148904 1.82122e-11 6.73105e-11 -1.98732e-11 5e-05 1.46608e-10 
122 1 0.175198 0.0175045 0.00722316 0.00594926 -0.000659456 0.000194821 -4.397e-11 -1.53134e-10 7.76911e-11 5e-05 1.46608e-10 
123 1 0.16902 0.017186 0.00766224 0.0056073 -0.000104786 -0.00018944 -1.79542e-11 -3.80681e-10 1.68806e-10 5e-05 1.46608e-10 
124 1 0.17522 0.0175985 0.00719656 0.0059974 -0.00062463 0.000185953 -1.08346e-11 -2.13959e-10 6.4332e-11 5e-05 1.46608e-10 
125 1 0.175526 0.0190139 0.00679598 0.00544341 -0.000579731 0.000143886 -1.3146e-10 -4.29197e-10 6.65923e-11 5e-05 1.46608e-10 
126 1 0.175134 0.0171649 0.00731929 0.00572497 -0.000696032 0.000210678 4.51653e-10 -1.81131e-10 -3.06171e-12 5e-05 1.46608e-10 
127 1 0.169052 0.0161388 0.00799524 0.00532506 -0.000492791 0.000879426 -8.56671e-12 -2.43442e-10 6.99361e-11 5e-05 1.46608e-10 
128 1 0.175176 0.0174095 0.00725003 0.00593491 -0.000667383 0.000197778 6.79833e-11 9.04559e-11 -5.81923e-11 5e-05 1.46608e-10 
129 1 0.17535 0.0181621 0.00703704 0.00602524 -0.000601603 0.000179285 -8.12794e-11 3.1478e-10 -8.60544e-11 5e-05 1.46608e-10 
131 1 0.169071 0.0162344 0.00797119 0.00532966 -0.000605753 0.000911524 3.176e-11 -1.41136e-10 4.385e-11 5e-05 1.46608e-10 
132 1 0.175445 0.0181914 0.00702891 0.00602652 -0.000623716 0.000186012 -2.05114e-10 1.96946e-10 -4.69733e-11 5e-05 1.46608e-10 
133 1 0.17521 0.0179443 0.00709855 0.00600343 -0.000623285 0.000185542 9.17494e-11 -1.0161e-10 2.70277e-11 5e-05 1.46608e-10 
134 1 0.175154 0.0173157 0.00727658 0.00592396 -0.000661359 0.000195028 1.78056e-10 1.29192e-10 -8.51462e-11 5e-05 1.46608e-10 
135 1 0.174559 0.0153621 0.0087694 0.00615411 -0.000365467 0.000246564 -5.43652e-12 8.24827e-11 -6.85877e-11 5e-05 1.46608e-10 
136 1 0.169262 0.0182048 0.00721877 0.0061337 0.000828686 -0.000609521 8.54156e-11 4.61673e-11 -7.05732e-12 5e-05 1.46608e-10 
137 1 0.174862 0.0164563 0.00779444 0.00528048 -0.000842474 -0.000478528 1.62824e-10 3.93157e-11 -7.44507e-11 5e-05 1.46608e-10 
138 1 0.175297 0.0183201 0.00699222 0.00608263 -0.000548771 0.000165279 1.5012e-10 4.07932e-10 -1.3674e-10 5e-05 1.46608e-10 
140 1 0.17538 0.0179096 0.00710866 0.00600547 -0.000612405 0.000182548 -5.7713e-11 1.03273e-10 -2.78301e-11 5e-05 1.46608e-10 
141 1 0.169217 0.0175893 0.00748247 0.00598097 0.000847581 -0.000610066 -1.19259e-10 1.26826e-10 -4.90538e-11 5e-05 1.46608e-10 
142 1 0.168997 0.0170884 0.00770472 0.00582717 0.00074029 -0.000559773 -6.67998e-11 3.74116e-11 -5.96055e-11 5e-05 1.46608e-10 
143 1 0.168567 0.0155674 0.00886554 0.00570057 -0.00111918 0.000481274 4.31504e-11 3.52049e-11 -7.40373e-11 5e-05 1.46608e-10 
144 1 0.169125 0.0176271 0.00747024 0.00597251 0.000846608 -0.000608926 -7.78159e-11 7.31009e-11 -2.97124e-11 5e-05 1.46608e-10 
147 1 0.169374 0.0175751 0.00748196 0.00598522 0.000853649 -0.000613042 4.08503e-10 -1.2175e-10 3.43742e-11 5e-05 1.46608e-10 
148 1 0.168762 0.0160733 0.00812236 0.00538219 -0.00102073 0.000795857 -1.37314e-10 7.17485e-12 3.41449e-11 5e-05 1.46608e-10 
149 1 0.175018 0.0171029 0.0073507 0.00562011 -0.000656438 -2.4161e-05 2.51087e-10 4.58596e-11 -1.25071e-11 5e-05 1.46608e-10 
150 1 0.0100679 0.0201683 0.00551526 8.38524e-15 1.24025e-15 -8.48744e-14 6.79839e-24 -2.45408e-23 2.06795e-25 5e-05 1.46608e-10 
151 1 0.169051 0.0168826 0.00778755 0.0054283 -0.000425986 0.00087003 -5.19152e-10 2.5468e-10 -1.80929e-10 5e-05 1.46608e-10 
153 1 0.169361 0.0182354 0.00720163 0.00616939 0.000841922 -0.000615771 -9.71794e-11 -4.15067e-11 2.53389e-11 5e-05 1.46608e-10 
154 1 0.169086 0.017461 0.00754252 0.00566515 -0.000180695 -0.000159806 3.75063e-12 -8.51337e-11 3.65055e-11 5e-05 1.46608e-10 
155 1 0.168783 0.0161542 0.00805784 0.00542263 -0.000686426 0.000953987 2.69104e-11 1.45663e-11 4.64714e-11 5e-05 1.46608e-10 
156 1 0.169162 0.017401 0.00756483 0.00566152 -0.000160337 -0.000168205 1.10688e-10 -1.38839e-10 5.50072e-11 5e-05 1.46608e-10 
157 1 0.0219312 0.0187687 0.00551176 -3.82611e-14 8.16954e-14 2.95889e-13 -5.67472e-22 3.45865e-23 -8.16841e-23 5e-05 1.46608e-10 
158 1 0.169298 0.0168631 0.00778796 0.0056506 0.000191402 -0.0003179 -5.02303e-08 2.36385e-08 -8.02932e-09 5e-05 1.46608e-10 
159 1 0.175662 0.0187953 0.00685812 0.0063019 -5.24222e-05 2.46626e-05 -6.93407e-10 3.83077e-10 -1.10557e-10 5e-05 1.46608e-10 
160 1 0.16917 0.0175086 0.00751874 0.00447275 0.00160175 -0.000868072 -2.49811e-10 1.36261e-10 -4.75007e-11 5e-05 1.46608e-10 
162 1 0.169301 0.0176384 0.0074581 0.00597068 0.000840803 -0.000606896 1.92806e-10 -9.23121e-11 3.19622e-11 5e-05 1.46608e-10 
164 1 0.168921 0.0163554 0.00791658 0.00523766 -0.000569603 0.000888054 1.78093e-11 1.10594e-11 2.19119e-11 5e-05 1.46608e-10 
165 1 0.169123 0.0169464 0.00775986 0.00478326 0.000227426 -0.000296538 -6.06839e-10 4.8328e-10 -1.83807e-10 5e-05 1.46608e-10 
166 1 0.175395 0.0187917 0.00685872 0.00572525 -0.0004756 0.00014095 -5.998e-11 3.28024e-10 -2.39207e-10 5e-05 1.46608e-10 
168 1 0.168996 0.0162948 0.00794391 0.00532526 -0.000590861 0.000905936 1.04228e-10 -1.68248e-10 5.74291e-11 5e-05 1.46608e-10 
169 1 0.168916 0.0166931 0.00791307 0.00533833 -0.00057791 0.000824277 5.21653e-10 1.36152e-10 7.16377e-10 5e-05 1.46608e-10 
170 1 0.169113 0.0164245 0.00792403 0.00552996 -0.000572577 0.000930797 7.39125e-10 -1.46034e-10 1.8469e-10 5e-05 1.46608e-10 
171 1 0.175275 0.0182261 0.0070188 0.00603927 -0.000593755 0.000176542 6.53174e-11 3.10536e-10 -8.33012e-11 5e-05 1.46608e-10 
172 1 0.169093 0.0168675 0.00787675 0.00557587 -0.00012932 0.000857779 -2.54673e-10 3.01635e-11 -3.36265e-10 5e-05 1.46608e-10 
173 1 0.175562 0.0183153 0.00699398 0.00605641 4.74106e-05 -4.23018e-06 6.49119e-11 6.32469e-10 -1.52332e-10 5e-05 1.46608e-10 
174 1 0.168958 0.0161043 0.0079918 0.00535637 -0.000550656 0.000899988 -1.69542e-10 -4.02832e-11 -5.88883e-11 5e-05 1.46608e-10 
175 1 0.162996 0.0170184 0.00742047 0.0057261 0.000193045 -0.000126818 4.6343e-11 -1.45891e-11 2.90173e-12 5e-05 1.46608e-10 
177 1 0.168963 0.0165451 0.00786952 0.00538144 -0.000674206 0.000950935 2.84205e-10 1.84421e-10 -4.11558e-11 5e-05 1.46608e-10 
178 1 0.169053 0.0165884 0.00787003 0.00543851 -0.000729317 0.000965322 2.11534e-10 -5.79284e-10 1.91346e-10 5e-05 1.46608e-10 
179 1 0.169126 0.0167891 0.00782416 0.00542308 -0.000193528 0.000812292 1.38457e-10 -3.07472e-11 -1.55815e-11 5e-05 1.46608e-10 
181 1 0.169325 0.0173799 0.00756702 0.00476399 0.00137125 -0.000782233 1.59766e-10 -1.8812e-10 7.28841e-11 5e-05 1.46608e-10 
182 1 0.175232 0.0180382 0.00707197 0.00601593 -0.000619688 0.000184524 -1.92476e-10 -2.83645e-10 7.20693e-11 5e-05 1.46608e-10 
183 1 0.16909 0.0163296 0.00794726 0.00535638 -0.000609838 0.000914767 -1.87623e-10 -1.66877e-10 1.92368e-11 5e-05 1.46608e-10 
184 1 0.175285 0.0178803 0.00711679 0.00599825 -0.000609193 0.000181745 -3.69534e-11 -8.20104e-11 2.56244e-11 5e-05 1.46608e-10 
186 1 0.168975 0.0169978 0.00774412 0.0055334 -5.61533e-05 -2.58143e-05 -2.52246e-11 -1.0476e-10 -1.95196e-10 5e-05 1.46608e-10 
187 1 0.175123 0.0175686 0.00720489 0.00596298 -0.000643644 0.000190658 -1.45352e-11 -8.34219e-11 2.66961e-11 5e-05 1.46608e-10 
188 1 0.175256 0.0173519 0.00726648 0.00559272 -0.00110745 0.000322527 9.80237e-11 1.56892e-10 -5.35557e-11 5e-05 1.46608e-10 
189 1 0.175467 0.0182853 0.00700232 0.00605974 -0.000630465 0.000188438 -3.67725e-10 2.92814e-10 -8.20429e-11 5e-05 1.46608e-10 
190 1 0.163309 0.0179978 0.00718297 0.00606959 0.000124525 -0.000115381 -1.07792e-11 -1.89423e-11 4.82343e-12 5e-05 1.46608e-10 
191 1 0.175325 0.0175317 0.00721563 0.00298059 -0.000899738 0.000259411 -2.91335e-10 2.59922e-11 -6.72327e-12 5e-05 1.46608e-10 
192 1 0.169313 0.0165816 0.00790708 0.00543527 -0.000307688 3.45429e-05 5.98119e-10 -3.63515e-12 -2.98309e-10 5e-05 1.46608e-10 
193 1 0.175454 0.0178446 0.00712719 0.00599276 -0.000627566 0.000186964 -1.84006e-10 1.13325e-10 -3.37623e-11 5e-05 1.46608e-10 
194 1 0.161461 0.0182058 0.00533758 1.44539e-15 -1.1016e-14 8.66694e-14 -1.75382e-21 -2.34299e-22 -4.1359e-25 5e-05 1.46608e-10 
195 1 0.169219 0.0169208 0.00776675 0.00527998 0.00172875 -0.000960704 -7.26781e-10 5.53e-10 -2.08857e-10 5e-05 1.46608e-10 
196 1 0.16884 0.0159849 0.00803865 0.00537157 -0.000913613 0.000196974 -7.25562e-11 -2.50221e-11 -1.23122e-11 5e-05 1.46608e-10 
197 1 0.16306 0.0173032 0.00735177 0.00605057 0.000125518 -0.000115403 -3.26132e-11 -5.57826e-13 7.33556e-12 5e-05 1.46608e-10 
198 1 0.169284 0.0182944 0.00717977 0.00616912 0.000836732 -0.000613004 -5.58931e-12 6.15992e-11 -2.43456e-11 5e-05 1.46608e-10 
199 1 0.169262 0.0179505 0.00732696 0.00607501 0.00084718 -0.000613956 -1.7081e-10 -1.57869e-11 1.41893e-11 5e-05 1.46608e-10 
201 1 0.16891 0.0167139 0.0078151 0.00536165 -0.000706552 0.000941688 2.09033e-10 4.09691e-10 -1.6116e-10 5e-05 1.46608e-10 
202 1 0.169186 0.0171482 0.00767138 0.00561248 -0.000174988 -0.000160227 4.37849e-10 -9.66211e-11 3.98533e-11 5e-05 1.46608e-10 
203 1 0.17494 0.0167757 0.00756652 0.00544664 -0.000878918 -0.000480256 -2.70494e-11 2.14687e-10 -1.53858e-10 5e-05 1.46608e-10 
204 1 0.168632 0.0157019 0.00860534 0.00554766 -0.00108377 0.000459223 -1.15661e-10 5.62161e-11 -6.54675e-11 5e-05 1.46608e-10 
205 1 0.169271 0.0166658 0.00787306 0.00563801 -0.00023602 -0.000166465 3.56621e-10 -1.46962e-10 4.67787e-10 5e-05 1.46608e-10 
206 1 0.168883 0.0161649 0.00796448 0.00527251 -0.000556104 0.000888094 -2.3173e-11 -4.5485e-11 1.59343e-11 5e-05 1.46608e-10 
207 1 0.16897 0.0165134 0.00796428 0.00535038 -0.000487443 0.000811379 1.21954e-10 2.67074e-10 -3.19786e-10 5e-05 1.46608e-10 
208 1 0.169139 0.0173092 0.00760489 0.00565426 -0.000171797 -0.000162934 1.09426e-10 -8.96207e-11 3.69479e-11 5e-05 1.46608e-10 
209 1 0.165876 0.0166788 0.00746058 0.00581727 0.000199546 -0.000129668 3.89089e-14 4.14108e-15 -4.99177e-15 5e-05 1.46608e-10 
210 1 0.175167 0.0177564 0.00715172 0.00598134 -0.000630353 0.000187548 3.60332e-11 -7.95099e-11 2.9201e-11 5e-05 1.46608e-10 
211 1 0.175102 0.0174745 0.0072315 0.0059506 -0.000657005 0.000165678 -3.73449e-11 1.04955e-12 1.9978e-10 5e-05 1.46608e-10 
212 1 0.169261 0.0170863 0.00769456 0.00556329 -0.000224767 -0.00013657 2.7635e-10 -3.56619e-10 1.34488e-10 5e-05 1.46608e-10 
213 1 0.175433 0.0185397 0.00693018 0.00549822 -0.000478105 0.000149781 -4.08317e-12 3.37554e-10 -6.36859e-11 5e-05 1.46608e-10 
214 1 0.175038 0.0171926 0.00731128 0.00576633 -0.000600585 0.00018113 3.04026e-11 8.21796e-11 3.24833e-11 5e-05 1.46608e-10 
215 1 0.163234 0.0180623 0.00716868 0.00606836 0.000123215 -0.000115056 -1.02633e-11 -2.21352e-11 5.38849e-12 5e-05 1.46608e-10 
216 1 0.169188 0.0168654 0.00784397 0.00557751 0.000376104 -0.00182186 -1.36843e-10 6.50648e-11 -3.42331e-10 5e-05 1.46608e-10 
217 1 0.175432 0.0189808 0.00680519 0.00554178 -0.00050179 0.000123316 -4.68426e-10 2.9876e-10 -5.48252e-10 5e-05 1.46608e-10 
218 1 0.168731 0.0159279 0.00817062 0.00533801 -0.00103703 0.000430749 -3.43431e-11 -3.18844e-11 7.99626e-11 5e-05 1.46608e-10 
219 1 0.174979 0.0169356 0.00745306 0.00545231 -0.000929466 -0.000546573 -1.26288e-10 2.14857e-10 -1.61569e-10 5e-05 1.46608e-10 
220 1 0.169166 0.0170581 0.00771053 0.00559528 -0.000101591 -0.000190423 3.37349e-12 4.38865e-11 -1.82635e-11 5e-05 1.46608e-10 
221 1 0.229234 0.0180818 0.00711091 0.00631378 0.00131899 -0.00104718 1.41809e-12 2.62162e-13 -2.20651e-13 5e-05 1.46608e-10 
222 1 0.175508 0.0184751 0.00694861 0.00481347 0.0020495 -0.000570892 -4.5427e-10 6.66578e-11 4.46985e-12 5e-05 1.46608e-10 
223 1 0.169091 0.0171199 0.00768741 0.00560454 -9.48543e-05 -0.000193665 -7.7163e-12 -4.46954e-11 1.80277e-11 5e-05 1.46608e-10 
224 1 0.12411 0.017164 0.00809563 -0.0134418 0.0278955 -0.0184134 1.47626e-10 1.30604e-10 -1.70358e-10 5e-05 1.46608e-10 
225 1 0.175315 0.0176274 0.0071885 0.00596449 -0.000612618 0.000182631 -2.98414e-11 -1.00762e-10 2.33055e-11 5e-05 1.46608e-10 
226 1 0.169016 0.0169663 0.00782993 0.00554015 4.16675e-05 -1.21188e-05 -2.10943e-10 5.04212e-10 -2.85621e-10 5e-05 1.46608e-10 
227 1 0.163243 0.0177121 0.0072519 0.00606013 0.000121926 -0.000114629 1.86721e-11 -1.83811e-11 4.4764e-12 5e-05 1.46608e-10 
228 1 0.163017 0.0171135 0.00739755 0.00594022 0.000148549 -0.000119269 3.76866e-11 -1.49005e-11 5.0057e-12 5e-05 1.46608e-10 
229 1 0.169373 0.0172135 0.00763579 0.00246105 0.00623156 -0.00275338 -1.73742e-10 -5.16431e-11 2.92212e-11 5e-05 1.46608e-10 
230 1 0.168863 0.0165089 0.00786573 0.00537346 -0.000587353 0.000918606 -9.88511e-11 -6.94476e-12 -3.48181e-11 5e-05 1.46608e-10 
231 1 0.162977 0.0169229 0.00744346 0.00564238 0.000208077 -0.000129311 3.73752e-11 -1.23099e-11 8.72832e-13 5e-05 1.46608e-10 
232 1 0.169277 0.0178593 0.00736515 0.00602218 0.000840793 -0.000609143 -1.21831e-10 -1.56563e-11 1.15858e-11 5e-05 1.46608e-10 
234 1 0.175371 0.0182561 0.00701046 0.00604257 -0.000592945 0.000177743 -2.19441e-10 4.60799e-10 -1.36897e-10 5e-05 1.46608e-10 
235 1 0.169129 0.0165286 0.0078972 0.00548761 -0.00071408 0.000964697 2.37106e-10 -5.95032e-10 2.34379e-10 5e-05 1.46608e-10 
236 1 0.168844 0.0164137 0.00788963 0.0052472 -0.000562781 0.00088813 3.4791e-11 -6.41849e-12 -1.65759e-11 5e-05 1.46608e-10 
237 1 0.168807 0.0162232 0.00793753 0.005272 -0.000567506 0.000892558 -7.66332e-11 -8.64358e-11 -9.90354e-13 5e-05 1.46608e-10 
239 1 0.162827 0.0163119 0.00787262 0.00553006 0.000215441 -0.000157213 2.48903e-11 7.81723e-12 -5.04357e-12 5e-05 1.46608e-10 
240 1 0.162846 0.0163717 0.00779457 0.00558219 0.000209511 -0.000148012 2.25093e-11 1.51995e-11 -9.29753e-12 5e-05 1.46608e-10 
241 1 0.1629 0.0165512 0.00756049 0.0057099 0.000195514 -0.000126587 8.74343e-12 8.93592e-12 -3.48268e-12 5e-05 1.46608e-10 
242 1 0.169041 0.0172756 0.00762325 0.0056068 -0.000187538 -0.00015444 1.12156e-10 2.88696e-10 -1.29274e-10 5e-05 1.46608e-10 
244 1 0.162865 0.0164314 0.00771667 0.00562823 0.000203783 -0.000139491 1.19804e-11 6.41456e-12 -5.64254e-12 5e-05 1.46608e-10 
246 1 0.162957 0.0168276 0.00746642 0.00567934 0.000199667 -0.000127755 -4.35575e-12 -4.23285e-12 1.536e-12 5e-05 1.46608e-10 
247 1 0.169281 0.0171784 0.00765459 0.00568871 -0.000125908 -0.000183974 8.48388e-11 -2.14146e-10 8.66943e-11 5e-05 1.46608e-10 
248 1 0.168884 0.0166063 0.00787502 0.00533155 -0.000654611 0.000965841 2.53658e-10 6.32831e-10 -4.11319e-10 5e-05 1.46608e-10 
249 1 0.163212 0.0179675 0.00719156 0.00606471 0.000122461 -0.000114799 -2.36522e-11 -3.21432e-11 7.85897e-12 5e-05 1.46608e-10 
250 1 0.168817 0.0162462 0.00803426 0.00528931 -0.000532168 0.000885215 -4.50949e-11 8.26553e-11 -4.59756e-11 5e-05 1.46608e-10 
251 1 0.174959 0.0168555 0.00750953 0.0054574 -0.000891019 -0.000488961 7.1917e-11 2.11454e-10 -1.62359e-10 5e-05 1.46608e-10 
252 1 0.163104 0.017493 0.007306 0.00605597 0.000123163 -0.000114844 3.31897e-11 -7.39e-12 -5.35721e-12 5e-05 1.46608e-10 
253 1 0.163256 0.0181572 0.00714579 0.00606954 0.000122624 -0.000114932 1.01931e-12 -7.18633e-12 1.7359e-12 5e-05 1.46608e-10 
254 1 0.16294 0.0167319 0.00748944 0.00570029 0.000195868 -0.00012708 2.82705e-11 -2.45525e-12 3.65552e-12 5e-05 1.46608e-10 
255 1 0.169156 0.0177587 0.00741294 0.00599505 0.000854054 -0.000614505 4.7538e-11 4.67721e-11 -2.57628e-11 5e-05 1.46608e-10 
256 1 0.169214 0.0165817 0.00789417 0.00532516 -0.000470913 0.000875099 1.8827e-10 -9.52937e-10 3.74847e-10 5e-05 1.46608e-10 
257 1 0.16902 0.0166652 0.00792891 0.00538361 -0.000594159 0.0009161 3.24305e-10 -1.21601e-10 2.21105e-12 5e-05 1.46608e-10 
258 1 0.169027 0.0167851 0.00781149 0.00541973 -0.000490265 0.000894062 4.41731e-10 4.41699e-10 -2.09175e-10 5e-05 1.46608e-10 
259 1 0.163125 0.0175879 0.00728311 0.00605638 0.000122424 -0.000114495 1.69493e-11 -3.05651e-11 4.40775e-12 5e-05 1.46608e-10 