ITEM: TIMESTEP
28200000
ITEM: NUMBER OF ATOMS
271
ITEM: BOX BOUNDS ff ff ff
-0.02 0.43
-0.02 0.06
-0.02 0.07
ITEM: ATOMS id type x y z vx vy vz fx fy fz radius mass 
1 1 0.17695 0.015541 0.00855196 0.00567897 -0.000447295 0.000326824 -3.4501e-10 4.55563e-11 -1.75261e-10 5e-05 1.46608e-10 
2 1 0.177844 0.0180731 0.00702197 0.00557007 -0.000396952 -3.04001e-06 -5.90315e-11 6.83705e-11 9.23446e-12 5e-05 1.46608e-10 
3 1 0.171497 0.0163862 0.00817076 0.00534331 -0.000142171 0.00108504 -4.29865e-11 -1.33885e-10 5.77481e-11 5e-05 1.46608e-10 
4 1 0.177876 0.017818 0.00709345 0.0060344 -0.000636341 5.54478e-05 -4.02991e-10 2.31063e-11 7.84588e-12 5e-05 1.46608e-10 
5 1 0.176929 0.0154712 0.00862061 0.00566046 -0.000446639 0.000339691 -2.25365e-10 1.09743e-10 -1.60917e-10 5e-05 1.46608e-10 
6 1 0.183286 0.0168255 0.00749437 0.00576377 0.000843352 -0.000202259 5.22824e-12 2.47808e-11 -1.23991e-11 5e-05 1.46608e-10 
7 1 0.17703 0.0158267 0.00828392 0.00546319 -0.000295522 0.000487224 2.21203e-10 -1.57302e-10 7.24618e-11 5e-05 1.46608e-10 
8 1 0.176909 0.0154015 0.00868922 0.00564807 -0.000450639 0.000341584 2.77375e-11 -4.71933e-11 9.53431e-11 5e-05 1.46608e-10 
9 1 0.18341 0.0173505 0.00723216 0.00632226 0.000596285 -5.44714e-05 1.77283e-12 -5.64326e-13 4.91587e-14 5e-05 1.46608e-10 
10 1 0.177493 0.0177028 0.00713395 0.00606879 -0.000612074 4.71445e-05 -6.85144e-11 1.24237e-11 6.0626e-12 5e-05 1.46608e-10 
11 1 0.177633 0.0179198 0.00706968 0.00610313 -0.000643768 5.53364e-05 -1.62828e-12 2.30147e-10 -3.98656e-11 5e-05 1.46608e-10 
12 1 0.171015 0.0158054 0.00837708 0.00537759 -0.000150519 0.00109497 3.68426e-11 -3.57248e-11 2.66345e-11 5e-05 1.46608e-10 
13 1 0.176847 0.0151921 0.0088951 0.00563039 -0.000435529 0.000326752 3.63794e-11 -1.88157e-10 1.76393e-10 5e-05 1.46608e-10 
14 1 0.171674 0.01852 0.00704822 0.00975776 0.0147601 -0.0117495 -8.03429e-11 2.3568e-10 -1.4105e-10 5e-05 1.46608e-10 
15 1 0.177854 0.0177242 0.00712044 0.00611751 -0.000673505 6.42241e-05 -4.0012e-10 2.74141e-10 -7.1419e-11 5e-05 1.46608e-10 
16 1 0.171722 0.0183654 0.00714163 0.00634524 0.0166613 -0.0123434 1.82735e-11 1.92261e-10 -1.31614e-10 5e-05 1.46608e-10 
17 1 0.177898 0.0179128 0.0070662 0.005997 -4.82368e-05 -0.000110162 3.97646e-10 -4.10396e-10 1.10523e-10 5e-05 1.46608e-10 
19 1 0.176888 0.0153317 0.00875784 0.00564263 -0.00044542 0.000335504 2.11167e-10 -2.34164e-10 2.28358e-10 5e-05 1.46608e-10 
21 1 0.177449 0.0175152 0.00718791 0.00606954 -0.000609854 4.76574e-05 -3.60612e-11 8.33199e-11 -7.80465e-11 5e-05 1.46608e-10 
22 1 0.177663 0.0176673 0.00714047 0.00603012 -0.000648881 5.88464e-05 -3.09728e-11 2.16251e-10 -6.19149e-11 5e-05 1.46608e-10 
23 1 0.171149 0.0160174 0.00829385 0.00531283 -0.000115863 0.00106594 1.10768e-10 -2.22753e-11 3.89726e-11 5e-05 1.46608e-10 
24 1 0.183496 0.0177002 0.00705759 0.00642918 0.000577792 -4.10087e-05 -1.82247e-12 -6.13015e-12 2.58103e-12 5e-05 1.46608e-10 
25 1 0.177089 0.0160448 0.00808667 0.00536934 -0.000261499 0.000446925 -5.73232e-11 -1.33425e-10 9.05533e-11 5e-05 1.46608e-10 
26 1 0.183368 0.0171757 0.00731945 0.00626917 0.000606306 -6.18582e-05 7.16457e-13 4.12848e-12 -1.37224e-12 5e-05 1.46608e-10 
27 1 0.171475 0.0162976 0.00821206 0.00533969 -0.000160874 0.00109394 1.94815e-10 -1.49569e-10 1.12778e-10 5e-05 1.46608e-10 
28 1 0.177802 0.0178835 0.00707646 0.00601275 -0.000690408 7.1479e-05 -3.37417e-10 4.04098e-10 -1.21323e-10 5e-05 1.46608e-10 
29 1 0.17705 0.0158994 0.00821825 0.00545692 -0.000290646 0.000468556 -1.39179e-10 -1.64087e-10 1.97425e-10 5e-05 1.46608e-10 
30 1 0.177558 0.0179842 0.00705301 0.00609723 -0.00062556 5.06708e-05 -2.10595e-10 7.45987e-11 1.74835e-11 5e-05 1.46608e-10 
31 1 0.177109 0.0161176 0.00802088 0.00535833 -0.000255577 0.000439674 3.37118e-11 -7.45119e-11 5.49588e-11 5e-05 1.46608e-10 
32 1 0.177502 0.0170817 0.00730944 0.0058109 -0.000754021 9.33371e-05 -1.27774e-10 -1.15791e-11 2.32003e-12 5e-05 1.46608e-10 
33 1 0.183305 0.0169132 0.00745051 0.00572072 0.000699913 -0.000130963 -6.19474e-14 1.74421e-12 -9.36421e-13 5e-05 1.46608e-10 
34 1 0.177011 0.0157544 0.00835014 0.0055312 -0.000333876 0.000453608 1.51962e-09 -3.34163e-10 -1.27524e-10 5e-05 1.46608e-10 
35 1 0.177693 0.0174139 0.00721151 0.00604897 -0.000652543 5.98486e-05 -3.36369e-10 1.82217e-10 -4.29465e-11 5e-05 1.46608e-10 
36 1 0.183474 0.0176128 0.00710124 0.00640244 0.000582355 -4.42985e-05 -4.41678e-13 -6.88825e-12 1.84238e-12 5e-05 1.46608e-10 
37 1 0.177754 0.0184913 0.00693513 0.00570725 -0.000488138 0.000257461 2.15403e-10 5.57865e-11 -3.32665e-11 5e-05 1.46608e-10 
38 1 0.177814 0.0187827 0.00689023 0.00545926 -0.000365076 0.000228046 1.09128e-10 -1.36858e-09 2.6883e-10 5e-05 1.46608e-10 
39 1 0.183517 0.0177876 0.00701395 0.00645586 0.000573194 -3.76237e-05 -2.45382e-12 -4.61522e-12 4.06283e-12 5e-05 1.46608e-10 
41 1 0.177918 0.0180081 0.00703879 0.00584915 -9.50942e-05 -9.35666e-05 1.18899e-10 2.47251e-10 -8.63818e-11 5e-05 1.46608e-10 
42 1 0.321436 0.0173475 0.00552525 4.54696e-16 2.2557e-15 8.4636e-14 1.62867e-23 8.85342e-25 0 5e-05 1.46608e-10 
44 1 0.177824 0.0179778 0.00704932 0.00586393 -0.000230461 -5.6105e-05 2.47722e-10 -1.45069e-10 4.01806e-11 5e-05 1.46608e-10 
45 1 0.183325 0.0170008 0.00740674 0.00621594 0.000616351 -6.88801e-05 3.10417e-12 1.39601e-12 -1.3916e-12 5e-05 1.46608e-10 
47 1 0.17697 0.0156108 0.00848334 0.00567586 -0.00045091 0.000324127 -3.6857e-10 1.58607e-10 8.47256e-11 5e-05 1.46608e-10 
48 1 0.177795 0.0186851 0.00690529 0.00550128 -0.000429137 0.000237284 -1.34892e-10 1.87691e-10 -4.39472e-11 5e-05 1.46608e-10 
50 1 0.177149 0.0162629 0.00788953 0.00545717 -0.000266526 0.000450825 -5.06318e-11 -3.25787e-13 3.11519e-12 5e-05 1.46608e-10 
51 1 0.177128 0.0161904 0.00795522 0.00540967 -0.000266793 0.000437321 -9.45992e-11 -5.80696e-12 1.62266e-11 5e-05 1.46608e-10 
52 1 0.170936 0.0154671 0.00856838 0.00566336 -0.000671108 0.000595215 -6.60365e-11 7.01736e-11 -3.14209e-11 5e-05 1.46608e-10 
53 1 0.183453 0.0175254 0.00714488 0.00637571 0.000586876 -4.76898e-05 -3.58367e-13 -5.49852e-12 1.17335e-12 5e-05 1.46608e-10 
54 1 0.17764 0.0183625 0.00695222 0.00564508 -0.000466708 0.000255364 6.46758e-11 2.30852e-10 -1.07515e-10 5e-05 1.46608e-10 
55 1 0.170878 0.0153281 0.00882759 0.00552459 -0.000688598 0.000550628 1.8982e-11 -4.97066e-11 8.78356e-11 5e-05 1.46608e-10 
56 1 0.177774 0.0185881 0.00692022 0.00572842 -0.000490501 0.00025827 -1.52514e-13 -4.66334e-11 1.42937e-11 5e-05 1.46608e-10 
57 1 0.183347 0.0170883 0.00736309 0.00624259 0.000611397 -6.54036e-05 2.16806e-12 3.08283e-12 -2.69793e-12 5e-05 1.46608e-10 
59 1 0.177642 0.0175734 0.00716747 0.00602408 -0.000661666 6.30872e-05 -2.45363e-10 1.9444e-10 -5.15894e-11 5e-05 1.46608e-10 
61 1 0.177416 0.0169158 0.00735815 0.0056377 -0.000769999 0.000100108 -5.72579e-11 -1.39368e-10 1.18758e-11 5e-05 1.46608e-10 
62 1 0.178039 0.0185878 0.00692846 0.0054265 -0.000289129 0.000214296 -6.40984e-10 1.43201e-10 -4.48105e-11 5e-05 1.46608e-10 
63 1 0.177833 0.0176303 0.00714742 0.00608583 -0.000668872 6.36806e-05 -3.51572e-10 2.71898e-10 -7.18566e-11 5e-05 1.46608e-10 
64 1 0.183538 0.0178751 0.00697031 0.00648251 0.000568542 -3.40927e-05 -6.10304e-13 -4.51935e-12 3.08191e-12 5e-05 1.46608e-10 
65 1 0.171198 0.0165185 0.00814454 0.00547518 -0.000210899 0.00106461 1.9118e-11 -1.3533e-11 9.41134e-12 5e-05 1.46608e-10 
66 1 0.170859 0.0152843 0.00891542 0.00549681 -0.000682163 0.00054141 3.47562e-10 -6.97281e-11 1.30664e-10 5e-05 1.46608e-10 
67 1 0.17779 0.0182327 0.00697811 0.00553782 -0.000516945 0.0001042 7.67672e-11 1.26223e-10 -2.10631e-10 5e-05 1.46608e-10 
68 1 0.177575 0.0172906 0.00724883 0.00606108 -0.000631208 5.44764e-05 -1.49932e-10 1.40955e-10 -2.6096e-11 5e-05 1.46608e-10 
69 1 0.17766 0.0184594 0.0069373 0.00567137 -0.000466179 0.000250234 -5.70575e-12 5.90258e-11 4.57757e-12 5e-05 1.46608e-10 
70 1 0.183389 0.0172631 0.00727581 0.00629568 0.0006012 -5.81895e-05 -2.44956e-14 3.6431e-12 9.5853e-13 5e-05 1.46608e-10 
71 1 0.170916 0.0154158 0.00865194 0.00562274 -0.000708427 0.000562366 -1.33555e-10 7.00773e-11 -7.72081e-11 5e-05 1.46608e-10 
72 1 0.177695 0.0182022 0.0069885 0.0055143 -0.000494979 1.63086e-05 1.48172e-11 2.1815e-10 -1.29183e-10 5e-05 1.46608e-10 
73 1 0.177719 0.0187499 0.00689256 0.00548794 -0.00043844 0.000241734 -8.41722e-10 4.32818e-10 -2.89498e-11 5e-05 1.46608e-10 
74 1 0.177849 0.0185232 0.00693295 0.00571606 -0.00051128 0.000255329 2.98018e-10 1.67632e-10 4.18124e-11 5e-05 1.46608e-10 
76 1 0.171599 0.0174971 0.00762116 0.00558151 -0.000112722 0.00111469 -6.64597e-11 3.05581e-10 -2.14477e-10 5e-05 1.46608e-10 
77 1 0.177715 0.0175079 0.00718448 0.00602672 -0.000673206 6.60256e-05 -3.78251e-10 1.97916e-10 -4.64615e-11 5e-05 1.46608e-10 
78 1 0.171625 0.0183323 0.00718274 0.007409 0.00554005 -0.00514781 3.66377e-11 1.37833e-10 -9.90168e-11 5e-05 1.46608e-10 
79 1 0.170976 0.0156279 0.00846044 0.00540374 -0.00014636 0.00109634 -6.92623e-11 -8.36467e-12 2.88759e-11 5e-05 1.46608e-10 
80 1 0.177885 0.0182647 0.00697551 0.00557239 -0.000581922 0.000268504 1.06461e-10 -1.68162e-10 -4.49261e-11 5e-05 1.46608e-10 
81 1 0.171642 0.0176742 0.0075386 0.00548223 -1.60957e-05 0.00104838 -5.72083e-10 -7.01832e-10 2.58955e-10 5e-05 1.46608e-10 
82 1 0.171035 0.0158964 0.00834053 0.00534158 -0.00014547 0.00108879 4.48054e-11 9.36459e-12 6.16061e-12 5e-05 1.46608e-10 
83 1 0.171583 0.0178161 0.00745458 0.00568709 -0.000155043 0.00115716 2.57808e-10 7.11869e-10 -2.77546e-10 5e-05 1.46608e-10 
84 1 0.183432 0.017438 0.00718852 0.00634898 0.000591471 -5.11038e-05 -3.20051e-13 -2.56207e-12 1.35603e-12 5e-05 1.46608e-10 
85 1 0.17154 0.0165784 0.00808049 0.00534015 -0.000146468 0.00108638 1.08836e-10 8.05451e-12 1.36323e-11 5e-05 1.46608e-10 
86 1 0.177939 0.0181035 0.0070114 0.00551065 -0.000592345 5.67564e-05 -3.14748e-10 1.29315e-10 -1.93877e-11 5e-05 1.46608e-10 
87 1 0.177889 0.0187179 0.00690295 0.00543902 -0.000261024 0.000210155 6.6291e-11 7.47783e-12 -8.95174e-12 5e-05 1.46608e-10 
88 1 0.177303 0.0168589 0.0073815 0.00559047 -0.000529979 0.000114422 -2.897e-12 -1.3222e-10 -1.84655e-10 5e-05 1.46608e-10 
89 1 0.177869 0.0186201 0.00691803 0.00548041 -0.000442038 0.000241464 -4.18481e-10 -4.17963e-11 -2.23689e-11 5e-05 1.46608e-10 
90 1 0.177729 0.0179487 0.00705952 0.006018 -0.000682672 6.81574e-05 -3.25472e-10 5.70372e-10 -1.35044e-10 5e-05 1.46608e-10 
91 1 0.171526 0.0164765 0.00813004 0.00530159 -0.000134558 0.00107301 -2.47603e-11 1.33883e-10 -7.43323e-11 5e-05 1.46608e-10 
92 1 0.177829 0.0184264 0.00694786 0.00570883 -0.0005074 0.000256723 7.4548e-11 9.36172e-11 9.36579e-11 5e-05 1.46608e-10 
93 1 0.177187 0.0164086 0.00775776 0.00550555 -0.000271543 0.000460282 -2.11696e-11 -5.56719e-12 -1.14985e-11 5e-05 1.46608e-10 
94 1 0.177611 0.017826 0.00709667 0.00607521 -0.00064186 5.60059e-05 -8.92345e-11 7.58998e-11 -2.46684e-11 5e-05 1.46608e-10 
95 1 0.177567 0.0176384 0.00715063 0.00605714 -0.000625933 5.20454e-05 -1.94998e-10 5.37782e-11 -1.80044e-11 5e-05 1.46608e-10 
96 1 0.177206 0.0164818 0.00769248 0.00551441 -0.000277811 0.000457525 7.77546e-12 -5.92881e-12 1.43522e-12 5e-05 1.46608e-10 
97 1 0.171243 0.0160518 0.00829399 0.00531656 -0.000111014 0.00106405 -1.51061e-11 3.32521e-11 -1.83586e-11 5e-05 1.46608e-10 
98 1 0.177707 0.0178549 0.00708651 0.00609421 -0.000671123 6.3487e-05 -2.17402e-10 7.15238e-11 -2.96726e-11 5e-05 1.46608e-10 
99 1 0.171204 0.0166099 0.00810427 0.00592122 -0.000229554 0.00108881 -1.23989e-11 -7.72923e-12 5.53156e-11 5e-05 1.46608e-10 
100 1 0.177944 0.018555 0.0069308 0.00568963 -0.000428038 0.000244255 2.39637e-10 1.1814e-10 -4.15382e-11 5e-05 1.46608e-10 
101 1 0.170996 0.0157167 0.00841891 0.0053993 -0.000150256 0.00109674 -1.13598e-10 -3.29421e-11 -5.04487e-12 5e-05 1.46608e-10 
102 1 0.0643568 0.0187248 0.00531097 4.43706e-15 1.04738e-14 8.29544e-14 -3.34834e-21 8.40105e-22 6.90696e-23 5e-05 1.46608e-10 
103 1 0.24257 0.0191927 0.00520306 -9.01756e-23 4.86658e-23 8.29106e-22 -3.23117e-27 0 0 5e-05 1.46608e-10 
104 1 0.171481 0.0173718 0.00766299 0.00560199 -0.000110408 0.00111856 -5.37815e-11 2.53835e-10 -1.18229e-10 5e-05 1.46608e-10 
105 1 0.171359 0.0161744 0.00825312 0.00532587 -0.000112167 0.00106634 1.5105e-10 -2.8531e-11 4.29873e-11 5e-05 1.46608e-10 
106 1 0.171308 0.0163178 0.00817004 0.00534726 -0.000127196 0.00107794 -1.15766e-10 -3.25042e-11 -1.6142e-11 5e-05 1.46608e-10 
107 1 0.171265 0.0161403 0.00825272 0.0053223 -0.000111524 0.00106537 -1.9232e-12 -1.24291e-11 5.32699e-12 5e-05 1.46608e-10 
108 1 0.177679 0.0185562 0.00692239 0.0057056 -0.000470757 0.000252954 -2.67018e-11 -3.59926e-11 3.98837e-11 5e-05 1.46608e-10 
109 1 0.177811 0.0175362 0.0071745 0.00605902 -0.000620358 5.04189e-05 -4.42304e-10 2.61289e-10 -6.29031e-11 5e-05 1.46608e-10 
110 1 0.177227 0.0165538 0.00762649 0.00554752 -0.000278721 0.000469088 -5.29405e-11 -2.10772e-12 8.67766e-12 5e-05 1.46608e-10 
111 1 0.177546 0.0175445 0.00717762 0.00605618 -0.000625366 5.17142e-05 -1.03673e-10 6.54314e-11 -1.21248e-11 5e-05 1.46608e-10 
112 1 0.171546 0.0176374 0.00753915 0.00560176 -7.59729e-05 0.00109638 -1.64689e-11 6.83303e-11 -1.58776e-11 5e-05 1.46608e-10 
113 1 0.171308 0.0167255 0.00796129 0.00541242 -0.000117777 0.00108643 5.09334e-11 -2.00285e-11 4.41153e-11 5e-05 1.46608e-10 
114 1 0.171599 0.018228 0.00724674 0.00575035 -0.0001626 0.00117149 -1.75397e-11 -8.85203e-11 5.44708e-11 5e-05 1.46608e-10 
115 1 0.177781 0.0177896 0.00710344 0.00609975 -0.000680936 6.70572e-05 -1.21374e-10 3.26457e-10 -8.47236e-11 5e-05 1.46608e-10 
116 1 0.17762 0.0182674 0.00697612 0.00558691 -0.000497631 0.000115717 -4.37945e-11 3.08968e-10 -1.17125e-10 5e-05 1.46608e-10 
117 1 0.177757 0.018944 0.0068626 0.00557264 -0.000485659 0.000252028 -2.84708e-10 3.49234e-10 -8.17492e-11 5e-05 1.46608e-10 
118 1 0.171424 0.0175083 0.00758226 0.00559742 -0.000114978 0.00111801 2.43745e-11 6.86415e-11 1.38622e-12 5e-05 1.46608e-10 
119 1 0.177737 0.0176018 0.00715748 0.0060225 -0.000661266 6.29979e-05 -2.43428e-10 1.75973e-10 -4.33582e-11 5e-05 1.46608e-10 
120 1 0.17707 0.015972 0.00815251 0.00542537 -0.000275923 0.000456893 -5.61775e-11 -1.97584e-10 1.34691e-10 5e-05 1.46608e-10 
121 1 0.176991 0.0156814 0.00841549 0.00564707 -0.000415314 0.000371229 6.82616e-10 1.23179e-10 -3.16451e-11 5e-05 1.46608e-10 
122 1 0.177502 0.0173562 0.00723179 0.00606482 -0.000623434 5.26071e-05 -4.1998e-11 1.85442e-10 -6.7946e-11 5e-05 1.46608e-10 
123 1 0.17138 0.0173269 0.00766684 0.00558235 -6.07604e-05 0.00109112 -2.56759e-11 2.41786e-10 -1.53877e-10 5e-05 1.46608e-10 
124 1 0.177524 0.0174507 0.0072046 0.00604615 -0.00062816 5.29199e-05 4.01654e-11 2.71453e-10 -8.13788e-11 5e-05 1.46608e-10 
125 1 0.177833 0.0188797 0.00687525 0.00559411 -0.000505427 0.000255478 -1.71915e-10 -1.69446e-10 3.24836e-11 5e-05 1.46608e-10 
126 1 0.177435 0.01701 0.00733109 0.00586255 -0.000805316 0.00010683 -3.66535e-11 -1.3098e-10 5.33504e-12 5e-05 1.46608e-10 
127 1 0.171381 0.0162636 0.00821162 0.00533269 -0.000146442 0.00108534 -1.577e-11 1.52357e-10 -7.86956e-11 5e-05 1.46608e-10 
128 1 0.17748 0.0172624 0.00725876 0.00603671 -0.000653499 6.03414e-05 -1.90454e-10 4.35481e-11 -1.61954e-11 5e-05 1.46608e-10 
129 1 0.177654 0.0180136 0.0070427 0.00603083 -0.0006468 5.89594e-05 -8.7908e-10 2.48877e-11 4.45786e-11 5e-05 1.46608e-10 
131 1 0.171403 0.0163523 0.00817029 0.00535673 -0.000139279 0.00108588 1.06314e-10 -1.65056e-10 1.03439e-10 5e-05 1.46608e-10 
132 1 0.17775 0.0180428 0.00703249 0.00583757 -0.000283065 -3.97667e-05 5.52946e-11 2.18215e-10 -6.56694e-11 5e-05 1.46608e-10 
133 1 0.177515 0.0177966 0.00710697 0.00606498 -0.000612729 4.87159e-05 -5.49058e-11 1.85193e-11 -3.44704e-11 5e-05 1.46608e-10 
134 1 0.177458 0.0171686 0.00728575 0.0060679 -0.000633686 5.43303e-05 1.67266e-11 9.71461e-11 -2.3919e-11 5e-05 1.46608e-10 
135 1 0.176868 0.0152619 0.00882647 0.00562887 -0.000438974 0.00033048 -2.12042e-12 -2.2392e-10 2.18417e-10 5e-05 1.46608e-10 
136 1 0.171726 0.01879 0.00685825 0.00738829 0.00672857 -0.00606861 -4.29775e-10 7.18565e-10 1.60794e-09 5e-05 1.46608e-10 
137 1 0.177167 0.016336 0.00782355 0.00548623 -0.000265988 0.00045898 9.1821e-12 -7.93311e-12 -5.0517e-12 5e-05 1.46608e-10 
138 1 0.177601 0.0181723 0.007 0.00552934 -0.000527911 -4.81296e-05 -8.20864e-11 1.55228e-10 1.81034e-11 5e-05 1.46608e-10 
140 1 0.177685 0.0177611 0.00711349 0.00607784 -0.000656838 6.06581e-05 -1.81626e-10 1.23129e-10 -3.01128e-11 5e-05 1.46608e-10 
141 1 0.171568 0.017727 0.00749748 0.00561277 -8.98087e-05 0.00110915 -2.69611e-10 -8.11952e-10 3.19664e-10 5e-05 1.46608e-10 
142 1 0.171357 0.0172325 0.00771083 0.00553505 -0.00011417 0.0011051 -4.6053e-11 7.08378e-12 -2.56896e-11 5e-05 1.46608e-10 
143 1 0.170897 0.015372 0.00873979 0.00556004 -0.000693003 0.000555889 -9.06143e-11 1.51259e-11 -3.52231e-11 5e-05 1.46608e-10 
144 1 0.171489 0.0177739 0.00745845 0.00567835 -1.40595e-05 0.00107516 1.57915e-10 -6.88286e-10 4.17791e-10 5e-05 1.46608e-10 
147 1 0.171634 0.0180018 0.0073691 0.00576213 -0.00013908 0.00116175 -6.53737e-11 -5.70597e-11 -2.9882e-12 5e-05 1.46608e-10 
148 1 0.171091 0.0161664 0.00831048 0.00527516 -0.000113888 0.00105796 -2.22867e-11 1.31385e-10 2.83692e-11 5e-05 1.46608e-10 
149 1 0.177323 0.0169517 0.00735028 0.00571538 -0.000592047 9.00476e-06 9.14145e-12 -7.75534e-11 -1.52686e-10 5e-05 1.46608e-10 
150 1 0.0100679 0.0201683 0.00551526 8.38512e-15 1.24457e-15 -8.48743e-14 -2.76589e-24 -5.33208e-23 -1.03398e-24 5e-05 1.46608e-10 
151 1 0.171392 0.0170083 0.00783225 0.0055108 -0.000127648 0.00110965 -7.50434e-11 -1.06355e-10 4.90974e-11 5e-05 1.46608e-10 
153 1 0.171762 0.0189828 0.00679905 0.00715526 0.00730026 -0.00205762 -8.58297e-11 -4.42841e-10 1.24311e-10 5e-05 1.46608e-10 
154 1 0.171446 0.0175968 0.00754099 0.00561167 -0.000114305 0.00112187 -1.83134e-10 -2.00797e-10 4.07495e-12 5e-05 1.46608e-10 
155 1 0.171133 0.0163303 0.0082279 0.00529483 -0.000100434 0.00105909 2.2793e-10 -4.72611e-11 8.06258e-11 5e-05 1.46608e-10 
156 1 0.171524 0.0175488 0.00758042 0.00560232 -0.000102287 0.00111262 -3.46075e-11 2.02765e-10 -6.59358e-11 5e-05 1.46608e-10 
157 1 0.0219312 0.0187687 0.00551176 -3.82902e-14 8.16868e-14 2.95888e-13 -1.69055e-22 4.80282e-23 -4.3427e-23 5e-05 1.46608e-10 
158 1 0.171688 0.0171994 0.00779049 0.00554673 -0.000216261 0.00116146 -3.78985e-10 9.45881e-11 -1.26495e-10 5e-05 1.46608e-10 
159 1 0.177964 0.0186529 0.0069157 0.00542859 -0.000266339 0.00021122 -5.78893e-10 1.30355e-10 -3.18186e-11 5e-05 1.46608e-10 
160 1 0.171467 0.0176853 0.00749972 0.00562346 -0.000105729 0.00111276 -9.85286e-11 -5.34381e-10 2.07415e-10 5e-05 1.46608e-10 
162 1 0.171677 0.0178514 0.00745444 0.00575202 -0.000154319 0.00116765 -1.20137e-10 1.55113e-10 -8.83226e-11 5e-05 1.46608e-10 
164 1 0.171256 0.01646 0.00808733 0.00537693 -0.000109404 0.0010744 5.55397e-11 -4.45234e-11 3.25373e-11 5e-05 1.46608e-10 
165 1 0.171502 0.0171276 0.00779191 0.00551615 -0.000145402 0.00111942 -2.11462e-10 1.35333e-10 -1.17233e-10 5e-05 1.46608e-10 
166 1 0.177699 0.018653 0.00690748 0.00572797 -0.000482461 0.000256878 1.17783e-10 -7.60809e-11 -2.52272e-11 5e-05 1.46608e-10 
168 1 0.17133 0.0164063 0.00812876 0.00536505 -0.000125772 0.00108076 3.33794e-11 -1.55586e-10 8.9271e-11 5e-05 1.46608e-10 
169 1 0.171252 0.0167966 0.00801562 0.00542902 -6.77505e-05 0.00109245 -3.72059e-11 1.87959e-10 8.28919e-11 5e-05 1.46608e-10 
170 1 0.171451 0.0165289 0.00808908 0.0053343 -0.000114429 0.00106912 -1.24657e-10 -6.58206e-11 6.47265e-12 5e-05 1.46608e-10 
171 1 0.17758 0.018078 0.00702603 0.0060721 -0.000623302 5.21199e-05 -2.54389e-10 -6.68928e-11 5.29293e-11 5e-05 1.46608e-10 
172 1 0.171461 0.017073 0.00786509 0.00551652 -0.000143701 0.00111425 6.59191e-11 -1.18003e-10 -1.62828e-10 5e-05 1.46608e-10 
173 1 0.177865 0.0181683 0.0069946 0.00549349 -0.000592772 4.20553e-05 -2.95241e-11 2.68115e-10 -1.9741e-10 5e-05 1.46608e-10 
174 1 0.171286 0.0162289 0.00821143 0.0053275 -0.000111927 0.00106653 4.87383e-11 -9.43248e-11 5.83726e-11 5e-05 1.46608e-10 
175 1 0.16535 0.0170911 0.00736991 0.00618295 0.000113797 -0.000115341 1.29948e-11 3.41571e-11 -1.07052e-12 5e-05 1.46608e-10 
177 1 0.171304 0.0166363 0.00800623 0.0053892 -0.000108716 0.00107599 4.66674e-11 -1.13292e-11 3.1117e-11 5e-05 1.46608e-10 
178 1 0.171392 0.0166848 0.00799799 0.00540095 -0.000115158 0.00108159 5.48031e-12 -9.90357e-11 6.01211e-11 5e-05 1.46608e-10 
179 1 0.171478 0.0169714 0.00786746 0.00552721 -0.00010281 0.00109926 -4.74813e-11 1.20511e-11 -7.48091e-12 5e-05 1.46608e-10 
181 1 0.171621 0.0175856 0.00757989 0.00555578 -8.28668e-05 0.00109415 -3.85988e-11 3.01341e-10 -1.57157e-10 5e-05 1.46608e-10 
182 1 0.177536 0.0178904 0.00707999 0.0060818 -0.000618324 4.88522e-05 5.15548e-11 4.78461e-11 2.91443e-12 5e-05 1.46608e-10 
183 1 0.171424 0.0164411 0.00812895 0.00535735 -0.000130872 0.00108175 1.89405e-10 1.05031e-10 -1.71406e-11 5e-05 1.46608e-10 
184 1 0.177589 0.0177322 0.00712365 0.00605746 -0.000616975 4.98557e-05 -7.92964e-11 6.00846e-11 -1.16206e-11 5e-05 1.46608e-10 
186 1 0.171315 0.0170578 0.00779231 0.00549367 -0.000142579 0.00111181 -7.13541e-11 -1.78308e-10 7.74679e-11 5e-05 1.46608e-10 
187 1 0.177428 0.0174213 0.0072149 0.00606903 -0.000614958 4.72204e-05 -3.95199e-11 1.67596e-10 1.73381e-12 5e-05 1.46608e-10 
188 1 0.177554 0.0171968 0.00727581 0.00607052 -0.000635814 5.3681e-05 -4.12831e-11 1.27974e-10 -4.42437e-11 5e-05 1.46608e-10 
189 1 0.17777 0.0181379 0.00700515 0.0054773 -0.000512615 3.1767e-05 1.20747e-12 2.17466e-10 -3.88184e-11 5e-05 1.46608e-10 
190 1 0.165663 0.0180712 0.00713452 0.00609472 0.000137412 -0.000102541 -3.77642e-12 -2.89874e-11 6.91607e-12 5e-05 1.46608e-10 
191 1 0.177598 0.0173856 0.00722149 0.00603438 -0.000636925 5.56624e-05 -2.06937e-10 1.35142e-10 -3.30156e-11 5e-05 1.46608e-10 
192 1 0.171531 0.0168033 0.00796352 0.00543866 -0.000162411 0.00111328 4.91715e-10 -1.60527e-10 1.75719e-10 5e-05 1.46608e-10 
193 1 0.177759 0.0176958 0.00713042 0.00607143 -0.0006778 6.63031e-05 -2.79096e-10 2.14375e-10 -5.19066e-11 5e-05 1.46608e-10 
194 1 0.161461 0.0182058 0.00533758 1.56455e-15 -1.10038e-14 8.66689e-14 -1.17733e-21 -8.03916e-23 9.51258e-24 5e-05 1.46608e-10 
195 1 0.171595 0.0171638 0.00779107 0.00553828 -0.000179407 0.00114104 -4.08747e-10 6.09046e-11 -1.02505e-10 5e-05 1.46608e-10 
196 1 0.17117 0.016106 0.00825241 0.00530244 -0.000111356 0.00106176 1.23469e-11 -1.30723e-11 1.64096e-11 5e-05 1.46608e-10 
197 1 0.165414 0.0173759 0.00730122 0.00615464 0.000114929 -0.000113322 3.11578e-11 1.25161e-11 -7.93413e-12 5e-05 1.46608e-10 
198 1 0.171744 0.0188857 0.00682654 0.00648968 0.00139511 -0.000350573 0 0 -1.43822e-09 5e-05 1.46608e-10 
199 1 0.171578 0.0181394 0.00728801 0.00572288 -0.000196166 0.00118364 -5.2977e-11 -4.74107e-11 -1.31448e-11 5e-05 1.46608e-10 
201 1 0.171251 0.0167931 0.00791569 0.0054327 -0.000125641 0.00109407 4.94815e-11 -1.38746e-11 3.64737e-11 5e-05 1.46608e-10 
202 1 0.171557 0.0173201 0.00770374 0.00560143 -0.000137354 0.0011315 -8.93145e-11 2.50231e-10 -1.57827e-10 5e-05 1.46608e-10 
203 1 0.177246 0.0166275 0.00756145 0.00558548 -0.000285687 0.00047422 -5.1426e-11 -1.91476e-11 2.43715e-11 5e-05 1.46608e-10 
204 1 0.170956 0.0155392 0.00850217 0.0052621 -0.000127701 0.00106258 2.19363e-11 2.55702e-11 -2.44995e-11 5e-05 1.46608e-10 
205 1 0.171557 0.0168911 0.00792357 0.0054976 -0.000170419 0.00112857 3.51573e-10 -5.29366e-11 8.19537e-11 5e-05 1.46608e-10 
206 1 0.171213 0.016283 0.00816987 0.00533115 -0.000109572 0.00106625 7.61148e-11 -1.97992e-11 2.49416e-11 5e-05 1.46608e-10 
207 1 0.171309 0.0166253 0.00810552 0.00540846 -0.000136944 0.00106973 1.56099e-10 6.23156e-11 5.27632e-11 5e-05 1.46608e-10 
208 1 0.171503 0.0174603 0.00762168 0.00559215 -0.000100364 0.00110999 7.13923e-11 2.37426e-10 -9.97495e-11 5e-05 1.46608e-10 
209 1 0.168087 0.0162154 0.00783958 0.0053515 -0.00129981 0.00110764 3.63622e-13 7.39453e-13 -1.48163e-13 5e-05 1.46608e-10 
210 1 0.177471 0.017609 0.00716093 0.00607179 -0.000609814 4.79691e-05 3.70478e-11 5.80341e-11 2.04835e-11 5e-05 1.46608e-10 
211 1 0.177406 0.0173276 0.00724187 0.00606458 -0.000621132 4.88465e-05 1.17845e-11 1.76648e-10 -5.89652e-11 5e-05 1.46608e-10 
212 1 0.171631 0.0172675 0.00774478 0.00559936 -0.000163658 0.00114439 -1.8613e-10 2.6864e-10 -1.67156e-10 5e-05 1.46608e-10 
213 1 0.177734 0.0183944 0.00695004 0.00563595 -0.000514814 0.000255622 -5.76363e-11 1.52897e-10 -6.3969e-11 5e-05 1.46608e-10 
214 1 0.177342 0.0170459 0.00732286 0.00592649 -0.000621776 5.15889e-05 1.9024e-11 3.24482e-11 -2.6832e-11 5e-05 1.46608e-10 
215 1 0.165588 0.0181356 0.00712023 0.00608503 0.000126798 -9.99048e-05 -2.58819e-12 -3.89235e-11 9.4739e-12 5e-05 1.46608e-10 
216 1 0.171559 0.0170597 0.00783758 0.00552558 -0.000158506 0.00112813 -2.50458e-10 1.08123e-10 -1.07288e-10 5e-05 1.46608e-10 
217 1 0.177738 0.0188469 0.00687758 0.00551571 -0.000421376 0.000241477 -1.22386e-10 3.84714e-10 -7.57359e-11 5e-05 1.46608e-10 
218 1 0.171055 0.0159828 0.00829364 0.00518645 -9.58692e-05 0.00103161 6.52954e-12 -7.19832e-12 6.15899e-12 5e-05 1.46608e-10 
219 1 0.177284 0.0167739 0.00743063 0.0055833 -0.000385358 0.00036226 -1.51316e-11 -7.07741e-11 -2.28751e-11 5e-05 1.46608e-10 
220 1 0.171537 0.0172313 0.00774549 0.00554097 -0.000166154 0.0011346 -2.61103e-10 1.71248e-10 -1.4016e-10 5e-05 1.46608e-10 
221 1 0.231553 0.0180095 0.0071013 0.00589294 -0.000897247 0.000420262 5.07122e-13 6.91946e-14 -1.64175e-14 5e-05 1.46608e-10 
222 1 0.17781 0.0183295 0.00696278 0.00564711 -0.000503831 0.000256618 4.51029e-11 5.90212e-11 -5.30415e-11 5e-05 1.46608e-10 
223 1 0.171462 0.0172831 0.00770473 0.00556783 -0.000113415 0.00111307 -2.19286e-10 1.56773e-10 -1.37485e-10 5e-05 1.46608e-10 
224 1 0.12075 0.0175932 0.00787957 -0.0143483 0.0314014 -0.0162747 1.99469e-10 -1.97969e-12 -9.27534e-11 5e-05 1.46608e-10 
225 1 0.17762 0.0174796 0.00719447 0.00603422 -0.000656777 6.13167e-05 -2.58683e-10 8.74691e-11 -2.23287e-11 5e-05 1.46608e-10 
226 1 0.171399 0.0171112 0.0077808 0.00549107 -0.000126917 0.00110441 -6.28402e-11 -6.67143e-11 2.52376e-11 5e-05 1.46608e-10 
227 1 0.165597 0.0177851 0.00720259 0.00608401 9.48114e-05 -9.24019e-05 -3.26883e-13 -4.29522e-12 1.18425e-12 5e-05 1.46608e-10 
228 1 0.165371 0.0171861 0.007347 0.00617015 0.000113514 -0.000114392 1.98554e-11 2.48483e-11 -1.03696e-11 5e-05 1.46608e-10 
229 1 0.171674 0.0174446 0.00766219 0.00555422 -0.000116318 0.00111179 -1.70138e-10 2.01641e-10 -1.23843e-10 5e-05 1.46608e-10 
230 1 0.171204 0.0166026 0.00800454 0.00539746 -0.000106539 0.00107952 7.04962e-11 5.68456e-12 3.57962e-11 5e-05 1.46608e-10 
231 1 0.165328 0.0169963 0.00739278 0.00619151 0.000114307 -0.000116388 -1.13888e-10 4.93311e-11 1.6506e-11 5e-05 1.46608e-10 
232 1 0.171556 0.0180509 0.00732928 0.00569806 -0.000216667 0.0011896 -2.74154e-11 -4.92797e-11 4.87836e-11 5e-05 1.46608e-10 
234 1 0.177675 0.0181077 0.00701584 0.00547909 -0.000649207 -0.000313107 -1.08117e-11 -1.85844e-10 -4.79047e-10 5e-05 1.46608e-10 
235 1 0.171466 0.0166316 0.00803925 0.00538135 -0.000115487 0.00107841 2.85453e-11 -8.85735e-11 5.42842e-11 5e-05 1.46608e-10 
236 1 0.171183 0.016514 0.00804581 0.00538175 -0.000103592 0.00107196 -5.81396e-12 -3.22112e-11 1.79022e-11 5e-05 1.46608e-10 
237 1 0.17114 0.016337 0.00812834 0.00534002 -0.000100501 0.00106281 -2.97211e-12 -6.01102e-11 3.71275e-11 5e-05 1.46608e-10 
239 1 0.165174 0.0163885 0.0078253 0.00559122 0.000206138 -0.000148938 2.60989e-10 -1.27215e-11 7.15545e-11 5e-05 1.46608e-10 
240 1 0.165193 0.0164483 0.00774735 0.00562735 0.000204988 -0.000147408 -6.3605e-11 -9.61242e-11 5.33553e-11 5e-05 1.46608e-10 
241 1 0.165249 0.0166273 0.00751391 0.00573688 0.000201855 -0.000136956 -1.89233e-10 -4.00504e-11 -3.22338e-11 5e-05 1.46608e-10 
242 1 0.171403 0.0174195 0.00762366 0.00559653 -9.32966e-05 0.00110906 1.91088e-10 6.30259e-10 -2.75763e-10 5e-05 1.46608e-10 
244 1 0.165212 0.016508 0.00766957 0.00568407 0.000209533 -0.000146718 -2.94638e-11 -3.69419e-12 -7.88192e-11 5e-05 1.46608e-10 
246 1 0.165307 0.0169013 0.00741569 0.00611392 0.00012851 -0.000117754 -2.42755e-10 1.4877e-10 -8.90218e-12 5e-05 1.46608e-10 
247 1 0.171652 0.0173561 0.00770346 0.00547461 -0.000126888 0.00110173 -1.15835e-10 3.22558e-10 -1.72832e-10 5e-05 1.46608e-10 
248 1 0.171225 0.0167003 0.00801006 0.00536861 -9.05121e-05 0.00102875 5.26061e-13 5.07542e-11 -1.84862e-11 5e-05 1.46608e-10 
249 1 0.165566 0.0180406 0.00714282 0.006094 0.000125658 -9.97886e-05 -3.54501e-12 -2.26667e-11 4.59849e-12 5e-05 1.46608e-10 
250 1 0.171167 0.0164171 0.00818656 0.00536696 -6.69676e-05 0.00106835 -2.67023e-11 -6.43438e-11 4.64079e-11 5e-05 1.46608e-10 
251 1 0.177264 0.0166996 0.00749454 0.00557774 -0.000286456 0.000473529 -4.43456e-12 -2.83061e-11 4.34531e-11 5e-05 1.46608e-10 
252 1 0.165458 0.0175658 0.00725577 0.00613711 0.000120604 -9.94358e-05 5.69871e-12 2.03866e-11 9.05922e-13 5e-05 1.46608e-10 
253 1 0.165609 0.0182306 0.00709764 0.00607675 0.000129108 -0.000100402 -1.86967e-11 -2.64682e-11 6.19472e-12 5e-05 1.46608e-10 
254 1 0.16529 0.0168053 0.00743875 0.00595053 0.000155987 -0.000118253 -8.7575e-11 1.24228e-10 -1.926e-11 5e-05 1.46608e-10 
255 1 0.171513 0.0178739 0.00741182 0.00566865 -0.000209862 0.00118268 -2.94156e-11 6.56483e-10 -2.61138e-10 5e-05 1.46608e-10 
256 1 0.171486 0.0167204 0.00799745 0.00541373 -0.000130127 0.00109194 1.34281e-10 -3.65572e-10 2.11174e-10 5e-05 1.46608e-10 
257 1 0.171352 0.0168014 0.00801107 0.00544541 -0.000128712 0.00108964 -1.83201e-10 -1.09381e-10 2.12142e-10 5e-05 1.46608e-10 
258 1 0.17137 0.016918 0.00787442 0.00545095 -0.000123967 0.00109427 1.05947e-10 -1.84277e-10 1.14719e-10 5e-05 1.46608e-10 
259 1 0.165479 0.0176608 0.00723318 0.00612807 0.000121518 -9.9201e-05 -5.55034e-13 1.30613e-11 -3.63458e-12 5e-05 1.46608e-10 
261 1 0.171347 0.0168297 0.00791526 0.00544173 -0.000129952 0.00109442 2.05648e-10 -1.53815e-10 1.26085e-10 5e-05 1.46608e-10 