ITEM: TIMESTEP
18400000
ITEM: NUMBER OF ATOMS
287
ITEM: BOX BOUNDS ff ff ff
-0.02 0.43
-0.02 0.06
-0.02 0.07
ITEM: ATOMS id type x y z vx vy vz fx fy fz radius mass 
1 1 0.120093 0.0162813 0.00791922 0.00549005 -0.000148461 0.000170759 1.41308e-10 2.28814e-10 -1.87907e-10 5e-05 1.46608e-10 
2 1 0.120565 0.0174894 0.00725396 0.00602901 -0.000417369 -0.000165702 -1.04413e-11 6.26831e-12 1.20416e-12 5e-05 1.46608e-10 
3 1 0.113869 0.0158178 0.00842106 0.00548301 -0.000445724 0.000856423 2.03618e-11 1.24502e-11 -7.35094e-12 5e-05 1.46608e-10 
4 1 0.120413 0.0176147 0.00721956 0.00605046 -0.000270355 0.000287103 1.24226e-11 1.30797e-11 -1.59111e-12 5e-05 1.46608e-10 
5 1 0.119978 0.0161934 0.00801801 0.00543475 -0.000110225 0.00013617 -2.83971e-10 1.61917e-10 -2.59213e-10 5e-05 1.46608e-10 
6 1 0.126097 0.0166184 0.00759434 0.00564639 4.47849e-05 -9.57593e-05 -1.07733e-11 3.82524e-11 -2.26163e-11 5e-05 1.46608e-10 
7 1 0.120151 0.0168221 0.00740781 0.00562135 -0.000224251 0.00017515 -3.3076e-11 -3.49366e-11 -1.17149e-10 5e-05 1.46608e-10 
8 1 0.119882 0.0158659 0.00838327 0.00563839 -0.000139106 0.000165055 -1.54265e-10 -5.38934e-12 3.56311e-11 5e-05 1.46608e-10 
9 1 0.126365 0.0177576 0.00706041 0.00626628 -4.44693e-05 7.48403e-05 3.62303e-12 7.84134e-12 -2.17036e-12 5e-05 1.46608e-10 
10 1 0.120092 0.0165876 0.00758036 0.00560449 -0.000310885 1.5369e-05 4.99807e-11 -2.93551e-10 8.76434e-11 5e-05 1.46608e-10 
11 1 0.120632 0.0176728 0.00720958 0.00604793 -0.000358882 -0.000179529 6.03486e-12 -1.05475e-11 1.67379e-11 5e-05 1.46608e-10 
12 1 0.114069 0.0165775 0.00780389 0.00556792 -0.000906613 0.00025094 -8.50016e-12 1.28323e-10 -8.07694e-11 5e-05 1.46608e-10 
13 1 0.119959 0.0161276 0.00809083 0.00537396 -0.00011949 0.000140711 1.94869e-11 -1.02894e-11 8.98173e-13 5e-05 1.46608e-10 
14 1 0.113787 0.0155292 0.00868181 0.00553263 -0.000360206 0.000794278 1.25199e-10 3.66819e-10 -3.39707e-10 5e-05 1.46608e-10 
15 1 0.120286 0.0170436 0.00735247 0.00595393 -0.000248691 0.000278913 -5.69755e-11 1.12743e-10 -2.99037e-11 5e-05 1.46608e-10 
16 1 0.113766 0.0154565 0.00874742 0.00550755 -0.000435524 0.000861498 1.11128e-10 3.90014e-10 -3.48058e-10 5e-05 1.46608e-10 
17 1 0.120073 0.0165203 0.00765186 0.0055162 -0.000136514 0.000172264 2.82959e-10 -1.09354e-10 -2.82177e-11 5e-05 1.46608e-10 
18 1 0.126236 0.0172004 0.0072313 0.00616773 -7.01874e-05 -3.01691e-05 6.89696e-11 -4.07926e-11 2.54207e-11 5e-05 1.46608e-10 
19 1 0.11994 0.0160621 0.008164 0.00532559 -0.000119535 0.000139933 3.98401e-10 -9.71898e-11 8.24082e-11 5e-05 1.46608e-10 
21 1 0.120074 0.0162158 0.00799238 0.00545206 -0.000142923 0.000171878 -1.04864e-10 1.56266e-10 -1.88959e-10 5e-05 1.46608e-10 
22 1 0.120189 0.0170115 0.00735662 0.00608288 -0.0003079 0.000297699 -5.52532e-11 1.06224e-10 -1.97654e-11 5e-05 1.46608e-10 
23 1 0.114268 0.0170086 0.00751289 0.00575422 -0.000976667 0.000284758 9.44425e-12 2.28042e-11 2.61282e-12 5e-05 1.46608e-10 
24 1 0.1263 0.0174723 0.00712644 0.00627791 -4.88972e-05 7.5974e-05 -2.59192e-12 -7.60724e-12 2.1835e-12 5e-05 1.46608e-10 
25 1 0.120131 0.016733 0.00744897 0.0056513 -0.000314159 -1.66431e-06 -1.52323e-10 -2.43817e-10 8.36206e-11 5e-05 1.46608e-10 
26 1 0.126175 0.0169512 0.00738678 0.00564209 3.06289e-05 -8.68958e-05 -2.90403e-11 -1.0763e-11 7.24297e-12 5e-05 1.46608e-10 
27 1 0.114152 0.0169036 0.00758781 0.0057182 -0.000938773 0.000262488 5.83847e-12 4.67786e-12 -8.84389e-12 5e-05 1.46608e-10 
28 1 0.120395 0.0175188 0.00724202 0.00606305 -0.000272318 0.000288365 8.37744e-13 2.16312e-11 -4.26536e-12 5e-05 1.46608e-10 
29 1 0.119921 0.0159968 0.00823731 0.00530922 -0.000117642 0.000134398 -2.62399e-11 -2.58819e-11 6.62706e-11 5e-05 1.46608e-10 
30 1 0.120449 0.0173604 0.00728213 0.00607505 -0.000270154 0.000289089 -3.347e-12 2.54909e-11 -9.03191e-12 5e-05 1.46608e-10 
31 1 0.12017 0.0169159 0.00737894 0.00559268 -0.000207138 0.000260108 1.81959e-10 1.97569e-10 -1.14897e-10 5e-05 1.46608e-10 
32 1 0.120265 0.0169483 0.00737464 0.00571707 -0.000196928 0.000260212 9.49253e-11 9.80141e-11 -3.68754e-11 5e-05 1.46608e-10 
33 1 0.126116 0.0167016 0.00754245 0.00564503 4.19964e-05 -9.39918e-05 4.55215e-11 1.13704e-11 -9.70826e-12 5e-05 1.46608e-10 
34 1 0.120054 0.0164549 0.00772502 0.00554714 -0.000146635 0.000167192 1.03672e-10 1.15019e-10 3.48444e-10 5e-05 1.46608e-10 
35 1 0.120245 0.0168529 0.0073969 0.00560408 -0.000176659 0.00024026 3.96315e-11 -3.77382e-11 -8.6515e-11 5e-05 1.46608e-10 
36 1 0.126409 0.0179478 0.00701639 0.00625887 -4.13402e-05 7.40451e-05 7.89936e-12 3.27319e-11 -8.18905e-12 5e-05 1.46608e-10 
37 1 0.120209 0.0166797 0.00748281 0.00556597 -0.000487816 -2.40286e-05 -1.78546e-10 -6.85877e-11 6.84374e-11 5e-05 1.46608e-10 
38 1 0.120383 0.0170754 0.00734835 0.00608107 -0.000277 0.000290108 -3.4725e-11 -1.13302e-11 2.53413e-11 5e-05 1.46608e-10 
39 1 0.126322 0.0175674 0.00710443 0.00627324 -4.77438e-05 7.56746e-05 -4.78088e-12 -1.16721e-11 1.04639e-12 5e-05 1.46608e-10 
41 1 0.120016 0.016324 0.00787133 0.00551762 -0.000104324 0.000123942 -2.3517e-11 9.17476e-11 5.68483e-11 5e-05 1.46608e-10 
42 1 0.12021 0.0171066 0.00733451 0.00607748 -0.000308556 0.000297507 7.80638e-12 -1.68447e-11 4.31706e-12 5e-05 1.46608e-10 
44 1 0.120405 0.0171705 0.00732625 0.00607762 -0.000272322 0.000287317 -1.74689e-11 -1.82617e-11 3.01489e-11 5e-05 1.46608e-10 
45 1 0.126136 0.0167848 0.00749056 0.00564363 3.93027e-05 -9.22653e-05 -2.64689e-11 1.3383e-11 -6.81755e-12 5e-05 1.46608e-10 
46 1 0.126215 0.0171175 0.00728302 0.0061928 -7.38532e-05 -2.90152e-05 2.18664e-11 -4.76782e-11 1.8523e-11 5e-05 1.46608e-10 
47 1 0.120035 0.0163907 0.00779936 0.00553106 -0.000111981 0.0001509 -3.32913e-11 -9.52502e-11 2.03401e-10 5e-05 1.46608e-10 
48 1 0.120254 0.0172971 0.00729023 0.00607226 -0.000279552 0.000290435 8.06437e-12 -1.83902e-11 8.18324e-12 5e-05 1.46608e-10 
49 1 0.126195 0.0170343 0.00733492 0.00601468 -3.92234e-05 -4.79466e-05 -2.01309e-11 -2.26943e-11 1.66039e-11 5e-05 1.46608e-10 
50 1 0.120319 0.0175803 0.00722438 0.00605665 -0.000276377 0.000288413 -5.68197e-12 9.85643e-12 6.58388e-13 5e-05 1.46608e-10 
51 1 0.120298 0.0174892 0.00726035 0.00606541 -0.000277262 0.000289617 3.35626e-12 1.14186e-11 -2.09949e-12 5e-05 1.46608e-10 
52 1 0.114048 0.0164959 0.00785794 0.00554471 -0.000844069 0.000214708 -6.87109e-11 8.93355e-11 -2.72494e-10 5e-05 1.46608e-10 
53 1 0.126258 0.0172868 0.00718601 0.00629015 -6.54027e-05 4.18057e-05 9.21506e-11 -3.44073e-11 1.59466e-11 5e-05 1.46608e-10 
54 1 0.120055 0.0161503 0.00806558 0.00543212 -0.000142467 0.000171843 -2.89938e-10 1.74743e-10 -1.90718e-10 5e-05 1.46608e-10 
55 1 0.113828 0.0156744 0.00855061 0.00518814 -0.000469102 0.000870132 -8.22256e-10 8.8427e-11 5.06052e-11 5e-05 1.46608e-10 
56 1 0.120224 0.0167556 0.00741958 0.00559473 -0.000244695 0.000269524 1.49858e-11 1.21542e-11 6.46137e-11 5e-05 1.46608e-10 
57 1 0.126156 0.016868 0.00743867 0.00564109 3.46362e-05 -8.94825e-05 -1.56079e-12 -4.31401e-12 1.73553e-12 5e-05 1.46608e-10 
59 1 0.120305 0.0167145 0.00747899 0.00559488 -0.00017981 0.000264485 2.048e-10 -8.07609e-11 5.40078e-11 5e-05 1.46608e-10 
60 1 0.120321 0.0167896 0.0074149 0.00559403 -0.000182948 0.000253048 2.07809e-10 -1.68057e-11 -3.82285e-13 5e-05 1.46608e-10 
61 1 0.119997 0.0162585 0.0079445 0.00548805 -0.000101452 0.000126271 -8.72665e-11 1.3661e-10 -2.00793e-10 5e-05 1.46608e-10 
62 1 0.120427 0.0172655 0.00730419 0.00607753 -0.000270883 0.00028835 -3.66631e-11 2.24619e-11 -1.52493e-11 5e-05 1.46608e-10 
63 1 0.120351 0.0173288 0.00728614 0.00607107 -0.000275051 0.000289303 2.4061e-11 4.08056e-12 3.36431e-12 5e-05 1.46608e-10 
64 1 0.126278 0.0173772 0.00714845 0.00628073 -4.98123e-05 7.60104e-05 5.59805e-12 -1.31551e-11 3.21185e-12 5e-05 1.46608e-10 
65 1 0.114185 0.0166825 0.00772896 0.00561103 -0.000928045 0.000256308 3.23342e-12 -4.40092e-11 -1.25514e-10 5e-05 1.46608e-10 
66 1 0.114122 0.0164397 0.00789371 0.00550811 -0.000748987 0.000433273 -3.28653e-10 7.82627e-11 1.16432e-10 5e-05 1.46608e-10 
67 1 0.120583 0.0175883 0.00723081 0.0060639 -0.000366522 -0.000178104 -2.3089e-12 -1.78528e-11 -4.40742e-12 5e-05 1.46608e-10 
68 1 0.120489 0.0175529 0.00723725 0.00605836 -0.000263889 0.000286112 8.31438e-13 2.33292e-11 -1.41723e-11 5e-05 1.46608e-10 
69 1 0.12015 0.0164779 0.00769944 0.00555866 -0.000113646 0.000120073 3.87096e-10 -1.2613e-10 -2.60947e-10 5e-05 1.46608e-10 
70 1 0.126344 0.0176625 0.00708242 0.00626957 -4.62642e-05 7.53442e-05 -1.01452e-12 -6.71091e-12 1.9733e-12 5e-05 1.46608e-10 
71 1 0.113807 0.0156018 0.00861621 0.0055373 -0.000542012 0.000961523 -1.31553e-10 4.78214e-10 -4.88663e-10 5e-05 1.46608e-10 
72 1 0.120471 0.0174555 0.00726003 0.00606876 -0.00026851 0.000287779 2.12436e-11 2.93424e-11 -1.10487e-11 5e-05 1.46608e-10 
73 1 0.120112 0.0166575 0.00751169 0.00563028 -0.000426225 -0.000117748 -1.45452e-10 -1.29479e-10 1.30982e-10 5e-05 1.46608e-10 
74 1 0.120307 0.0171387 0.00733035 0.00607956 -0.000277619 0.000290155 -5.75518e-11 8.28456e-12 -2.23999e-11 5e-05 1.46608e-10 
76 1 0.114393 0.0174977 0.00718879 0.00594991 -0.00101339 0.000297727 -1.65283e-10 -7.61132e-11 9.16981e-11 5e-05 1.46608e-10 
77 1 0.120439 0.0181093 0.00710139 0.00602578 -0.000260083 0.000284022 -5.26399e-13 1.10493e-11 -3.06133e-12 5e-05 1.46608e-10 
78 1 0.113889 0.0158904 0.00835542 0.0053081 -0.000420912 0.000824984 -7.20279e-11 -4.16992e-10 1.98618e-10 5e-05 1.46608e-10 
79 1 0.114089 0.016659 0.00774987 0.00559967 -0.000917504 0.000256036 1.05405e-10 7.77855e-11 -4.9678e-11 5e-05 1.46608e-10 
80 1 0.120361 0.0177723 0.00725496 0.00603675 -0.000272626 0.000286098 1.03838e-12 -6.85747e-12 7.78085e-12 5e-05 1.46608e-10 
81 1 0.114027 0.0164144 0.00791196 0.00550832 -0.000837464 0.000211797 -1.51805e-11 1.18691e-10 -8.13441e-11 5e-05 1.46608e-10 
82 1 0.114173 0.0169852 0.00753379 0.00574707 -0.000947346 0.000266556 1.9437e-11 7.63974e-11 -5.92994e-11 5e-05 1.46608e-10 
83 1 0.114218 0.0164615 0.00787002 0.00547425 -0.00095387 0.000285726 -7.64292e-11 3.67057e-11 -1.0199e-11 5e-05 1.46608e-10 
84 1 0.126387 0.0178527 0.0070384 0.00626263 -4.26913e-05 7.43574e-05 2.76361e-12 2.26391e-11 -4.24449e-12 5e-05 1.46608e-10 
85 1 0.114003 0.0159906 0.0082721 0.00506194 -0.000419542 0.000809128 3.00723e-10 5.20701e-10 -2.59307e-10 5e-05 1.46608e-10 
86 1 0.120374 0.0174237 0.00726413 0.00606924 -0.000274106 0.000288803 9.38302e-12 2.15403e-11 -7.33894e-12 5e-05 1.46608e-10 
87 1 0.120286 0.0166375 0.00753976 0.00561214 -0.000198588 0.000254548 1.09832e-10 -1.5389e-10 8.2405e-11 5e-05 1.46608e-10 
88 1 0.120374 0.0178209 0.00716843 0.00603902 -0.000273105 0.000287133 -6.04236e-12 -2.91561e-11 6.32821e-12 5e-05 1.46608e-10 
89 1 0.120427 0.0178767 0.00723244 0.00603662 -0.000268523 0.000286499 9.25211e-12 -8.65206e-11 -7.81871e-12 5e-05 1.46608e-10 
90 1 0.120546 0.0173913 0.00727697 0.00600595 -0.000458563 -0.000155111 1.9422e-11 7.02974e-12 2.72887e-12 5e-05 1.46608e-10 
91 1 0.11411 0.0167406 0.00769585 0.00564117 -0.000924596 0.000258131 2.50334e-11 -1.83277e-11 1.33984e-11 5e-05 1.46608e-10 
92 1 0.120569 0.0178293 0.0071736 0.00603719 -0.000258071 0.000284033 3.40283e-11 -3.90616e-12 1.64018e-13 5e-05 1.46608e-10 
93 1 0.120491 0.0178892 0.0071563 0.00603481 -0.000264406 0.000285455 1.29465e-11 -2.30495e-11 6.13556e-12 5e-05 1.46608e-10 
94 1 0.120635 0.0181162 0.00710692 0.00602425 -0.000254563 0.000282402 -5.04042e-12 -8.95108e-12 4.75758e-12 5e-05 1.46608e-10 
95 1 0.120575 0.0178975 0.00724652 0.00603159 -0.000256902 0.000283677 3.2893e-12 3.67358e-12 9.08151e-13 5e-05 1.46608e-10 
96 1 0.120591 0.0179245 0.00715147 0.00603172 -0.000256676 0.000283579 2.61356e-11 -4.28682e-12 3.87386e-12 5e-05 1.46608e-10 
97 1 0.113987 0.0162581 0.00803118 0.00527256 -0.000410416 0.000796413 2.09683e-10 2.06595e-11 8.48375e-11 5e-05 1.46608e-10 
98 1 0.120395 0.017916 0.00714633 0.00603464 -0.000271736 0.000286958 -3.1547e-12 -4.13523e-11 7.69989e-12 5e-05 1.46608e-10 
99 1 0.114164 0.016601 0.00778298 0.00557054 -0.000938914 0.000206485 8.6975e-11 8.7592e-11 5.6105e-11 5e-05 1.46608e-10 
100 1 0.120501 0.0172013 0.00732186 0.00609367 -0.000381808 -0.000176078 -5.38041e-11 5.4769e-11 -1.20379e-11 5e-05 1.46608e-10 
101 1 0.114102 0.0163615 0.00795242 0.00536628 -0.000534683 0.000680162 -9.21498e-11 -1.95971e-10 -3.12563e-11 5e-05 1.46608e-10 
102 1 0.0643568 0.0187248 0.00531097 4.24783e-15 1.05247e-14 8.29575e-14 -1.16066e-21 7.86003e-22 -2.79173e-23 5e-05 1.46608e-10 
103 1 0.24257 0.0191927 0.00520306 9.00258e-24 4.86658e-23 1.23839e-22 0 0 0 5e-05 1.46608e-10 
104 1 0.114469 0.0174408 0.00722107 0.00597912 -0.000993488 0.000282826 -5.85939e-12 6.48268e-12 9.0722e-12 5e-05 1.46608e-10 
105 1 0.113948 0.0161095 0.00815902 0.00526849 -0.000405734 0.000810015 -1.64406e-10 -1.02575e-10 2.99576e-11 5e-05 1.46608e-10 
106 1 0.114545 0.0173845 0.00725288 0.00606726 -0.000915175 0.000225983 -1.61394e-11 -4.36578e-11 3.44983e-11 5e-05 1.46608e-10 
107 1 0.113909 0.0159632 0.00828972 0.00512567 -0.000465683 0.000834893 7.50587e-10 -3.66596e-10 4.86118e-10 5e-05 1.46608e-10 
108 1 0.12019 0.0166096 0.00755222 0.00559717 -0.000193822 0.000224842 -2.10942e-10 -1.2649e-10 2.81886e-10 5e-05 1.46608e-10 
109 1 0.120276 0.0173921 0.00726812 0.0060683 -0.000277241 0.000289678 4.59417e-12 -2.4896e-12 3.51945e-12 5e-05 1.46608e-10 
110 1 0.120523 0.0184819 0.0070147 0.00563331 -0.000205097 0.000256526 -4.62212e-13 3.35859e-11 -6.76103e-12 5e-05 1.46608e-10 
111 1 0.120577 0.0182693 0.00706792 0.00601582 -0.000260404 0.000283659 1.45519e-11 2.20352e-12 3.47609e-13 5e-05 1.46608e-10 
112 1 0.114006 0.0163328 0.007966 0.00529233 -0.000793018 0.000195599 6.94729e-11 4.40984e-11 -3.35802e-11 5e-05 1.46608e-10 
113 1 0.114759 0.0181947 0.00708306 0.00588822 -0.000766318 0.000322866 1.79448e-11 -1.09531e-11 -3.34955e-14 5e-05 1.46608e-10 
114 1 0.114406 0.0171962 0.00738313 0.00590531 -0.000964772 0.000268432 1.03965e-10 5.6449e-11 -4.38375e-11 5e-05 1.46608e-10 
115 1 0.120329 0.0172338 0.00730824 0.00607515 -0.00027611 0.000290246 1.77268e-11 -9.87357e-12 -2.19703e-12 5e-05 1.46608e-10 
116 1 0.12017 0.0165437 0.00762595 0.00557931 -0.000166804 0.000176593 2.3304e-10 -1.51186e-10 3.83094e-10 5e-05 1.46608e-10 
117 1 0.120036 0.0160849 0.00813872 0.00538326 -0.000143772 0.000169473 -1.97826e-10 1.4649e-10 -1.25718e-10 5e-05 1.46608e-10 
118 1 0.113849 0.0157566 0.00849762 0.00557497 -0.000493509 0.00086913 3.80518e-10 -2.59052e-10 1.73028e-10 5e-05 1.46608e-10 
119 1 0.120341 0.016885 0.00739268 0.00572325 -0.00020773 0.000261057 -5.33311e-11 -2.38897e-12 5.00465e-12 5e-05 1.46608e-10 
120 1 0.119902 0.0159312 0.00831028 0.00525622 -0.000101056 0.000120839 2.19205e-10 -2.95477e-10 2.79493e-10 5e-05 1.46608e-10 
121 1 0.119861 0.0158007 0.00845623 0.00564119 -0.000128162 0.00015296 2.25412e-10 1.70152e-10 -1.79282e-10 5e-05 1.46608e-10 
122 1 0.120503 0.0183978 0.0070652 0.00596567 -0.000266912 0.000283345 9.40607e-13 1.76455e-11 -7.38413e-12 5e-05 1.46608e-10 
123 1 0.114043 0.016136 0.00814056 0.00518615 -0.000446226 0.000842175 3.97455e-10 -5.28097e-10 1.11427e-10 5e-05 1.46608e-10 
124 1 0.120469 0.0177942 0.0071784 0.00603838 -0.00026452 0.000285196 -4.13964e-12 -7.19423e-12 -5.32034e-13 5e-05 1.46608e-10 
125 1 0.120017 0.0160194 0.00821189 0.00532656 -0.000137935 0.000161418 -2.07982e-11 -1.13489e-10 8.98832e-11 5e-05 1.46608e-10 
126 1 0.120232 0.017202 0.00731233 0.00607849 -0.00028075 0.000291183 -2.21863e-11 -2.80897e-11 9.88657e-12 5e-05 1.46608e-10 
127 1 0.113967 0.0161814 0.00809227 0.00525606 -0.000399167 0.00080034 -5.48711e-10 -7.44187e-11 1.12343e-11 5e-05 1.46608e-10 
128 1 0.120339 0.0176751 0.00724908 0.0060455 -0.000274402 0.000286701 1.05008e-11 -1.18861e-12 -1.05205e-12 5e-05 1.46608e-10 
129 1 0.120593 0.0179936 0.00722369 0.00602011 -0.00025427 0.000282126 1.72566e-12 -7.30976e-12 6.60602e-12 5e-05 1.46608e-10 
130 1 0.114289 0.0170901 0.00745887 0.00577877 -0.000982952 0.000287475 1.08761e-12 4.18898e-11 -2.98103e-11 5e-05 1.46608e-10 
131 1 0.114143 0.0165195 0.00783717 0.00555528 -0.000894273 0.000252622 1.38219e-11 1.56571e-10 1.83103e-10 5e-05 1.46608e-10 
132 1 0.120415 0.017712 0.00719621 0.00604243 -0.00026691 0.000286652 1.27645e-11 -4.85994e-12 8.94025e-12 5e-05 1.46608e-10 
133 1 0.120207 0.0163673 0.00782374 0.00550556 -0.000201477 0.000233095 -1.27081e-10 9.19344e-11 -9.14684e-11 5e-05 1.46608e-10 
134 1 0.120362 0.0169802 0.0073705 0.00596299 -0.000255341 0.000279804 -3.26525e-11 -1.89582e-11 1.18861e-11 5e-05 1.46608e-10 
135 1 0.119998 0.0159539 0.00828507 0.0052729 -0.000132792 0.000156655 -2.16969e-10 -2.61237e-10 2.84127e-10 5e-05 1.46608e-10 
136 1 0.113984 0.0159179 0.00833789 0.00507168 -0.000424672 0.000804087 -3.2253e-12 1.50737e-10 -1.36959e-10 5e-05 1.46608e-10 
137 1 0.120461 0.0182052 0.00707911 0.00601569 -0.000277952 0.000287928 1.36892e-11 2.59977e-11 -5.85115e-12 5e-05 1.46608e-10 
138 1 0.120131 0.0164122 0.00777289 0.00551134 -0.000153813 0.00018007 9.24662e-11 -2.14807e-10 1.29481e-10 5e-05 1.46608e-10 
140 1 0.120596 0.0183652 0.00704549 0.00598541 -0.000199343 0.000267575 -1.83712e-11 -1.21609e-11 1.317e-12 5e-05 1.46608e-10 
141 1 0.114023 0.0160633 0.00820637 0.00510051 -0.000443478 0.000829954 -1.67325e-10 -4.17266e-11 -5.31876e-11 5e-05 1.46608e-10 
142 1 0.114427 0.0172778 0.0073291 0.00594363 -0.000969979 0.000269893 9.23735e-11 -1.11203e-11 -4.7114e-12 5e-05 1.46608e-10 
143 1 0.113928 0.0160359 0.00822386 0.00525194 -0.000417233 0.000836439 3.29444e-10 -2.41096e-10 -2.68079e-11 5e-05 1.46608e-10 
144 1 0.114384 0.0171137 0.00743787 0.00578256 -0.00101711 0.000309268 -1.06769e-10 -5.95016e-11 4.4657e-11 5e-05 1.46608e-10 
146 1 0.114238 0.016543 0.007816 0.0055238 -0.000961084 0.000287851 -1.11687e-10 9.5266e-12 -4.27215e-12 5e-05 1.46608e-10 
147 1 0.113964 0.0158451 0.0084037 0.00549167 -0.000229739 0.000670439 9.34802e-10 -3.05901e-10 3.09786e-10 5e-05 1.46608e-10 
148 1 0.114235 0.0172295 0.00737188 0.00585233 -0.000970091 0.000274825 1.17205e-10 7.81168e-11 -4.99284e-11 5e-05 1.46608e-10 
149 1 0.120556 0.0181742 0.00709003 0.00602162 -0.00025998 0.000283808 2.49604e-12 -6.13966e-12 1.09753e-12 5e-05 1.46608e-10 
150 1 0.11428 0.016706 0.00770796 0.00562555 -0.00096921 0.000291435 1.17521e-10 -7.44204e-11 3.89383e-11 5e-05 1.46608e-10 
151 1 0.114665 0.0174736 0.00718802 0.00609448 -0.000833401 0.000171462 2.25556e-11 3.05838e-11 -2.336e-11 5e-05 1.46608e-10 
153 1 0.114081 0.0162815 0.00800892 0.00528676 -0.000424557 0.000828242 6.40322e-10 -3.82611e-10 8.85273e-11 5e-05 1.46608e-10 
154 1 0.114351 0.0173347 0.00729681 0.00591046 -0.00100157 0.000292323 4.33863e-11 -1.73926e-11 9.4e-13 5e-05 1.46608e-10 
155 1 0.114415 0.0175798 0.0071344 0.00603048 -0.000996067 0.000271185 7.47114e-12 1.62702e-11 8.69159e-12 5e-05 1.46608e-10 
156 1 0.114331 0.0172532 0.00735083 0.00587028 -0.000998266 0.000292342 9.54595e-11 4.33624e-11 -3.45672e-11 5e-05 1.46608e-10 
157 1 0.0219312 0.0187687 0.00551176 -3.83643e-14 8.16527e-14 2.95887e-13 -4.51873e-22 -4.49883e-22 6.14182e-23 5e-05 1.46608e-10 
158 1 0.114528 0.0178294 0.00711446 0.00604086 -0.000928339 0.000320879 7.73603e-13 3.29322e-11 -3.10898e-11 5e-05 1.46608e-10 
159 1 0.120506 0.0176504 0.00721438 0.00604761 -0.000261878 0.000285898 1.47109e-11 2.72895e-12 5.26082e-12 5e-05 1.46608e-10 
160 1 0.114298 0.0174741 0.00720984 0.00595047 -0.000984018 0.000280594 -4.01133e-12 4.62461e-11 -5.40932e-12 5e-05 1.46608e-10 
162 1 0.114256 0.0173111 0.00731786 0.00589623 -0.00097676 0.000276366 4.90917e-11 4.55404e-11 -3.9468e-11 5e-05 1.46608e-10 
164 1 0.114593 0.0179791 0.00705125 0.005997 -0.000854107 0.000321693 2.83361e-11 -3.89565e-11 -1.39576e-12 5e-05 1.46608e-10 
165 1 0.114716 0.0177419 0.00707356 0.00592913 -0.000869948 -1.75276e-05 6.25653e-12 -1.44021e-11 3.63655e-11 5e-05 1.46608e-10 
166 1 0.120169 0.0162361 0.00796982 0.00546191 -0.000179945 0.000214191 3.96402e-11 -3.74292e-11 4.88154e-11 5e-05 1.46608e-10 
167 1 0.114259 0.0166245 0.00776198 0.00556503 -0.000963821 0.000287612 4.07322e-11 -9.17851e-11 -2.0906e-11 5e-05 1.46608e-10 
168 1 0.114566 0.0174661 0.00719885 0.00610524 -0.000929785 0.000233341 3.38192e-11 -4.38758e-11 3.66282e-11 5e-05 1.46608e-10 
169 1 0.114782 0.0180432 0.00707008 0.00596053 -0.000760029 0.000328334 -4.67172e-12 4.17695e-11 3.48544e-12 5e-05 1.46608e-10 
170 1 0.114586 0.0175478 0.00714477 0.00611091 -0.000935624 0.000237151 -9.6602e-12 -7.44771e-11 4.85264e-11 5e-05 1.46608e-10 
171 1 0.120189 0.0163015 0.00789679 0.00549029 -0.00019353 0.000225964 1.89058e-10 -6.97027e-11 3.78014e-11 5e-05 1.46608e-10 
172 1 0.114703 0.0176445 0.00709265 0.00606207 -0.000862705 9.61567e-05 1.98694e-11 -8.35062e-12 2.81811e-11 5e-05 1.46608e-10 
173 1 0.120669 0.0178641 0.0071647 0.00602991 -0.000359635 -0.000178364 3.17092e-11 -6.21793e-12 1.88747e-12 5e-05 1.46608e-10 
174 1 0.11451 0.0176047 0.0071125 0.00608559 -0.000960556 0.000256063 1.77457e-11 -6.62693e-11 4.22927e-12 5e-05 1.46608e-10 
175 1 0.108258 0.0173582 0.00744292 0.00580314 -0.000448699 0.000746289 5.79086e-12 1.2638e-11 -8.54695e-12 5e-05 1.46608e-10 
176 1 0.11431 0.0171716 0.00740486 0.00581895 -0.000991 0.000290468 3.0625e-11 3.78983e-11 -3.08375e-11 5e-05 1.46608e-10 
177 1 0.11434 0.0176373 0.00710199 0.00602838 -0.000993194 0.000273891 -1.61531e-11 -2.23282e-11 1.90087e-11 5e-05 1.46608e-10 
178 1 0.114833 0.0179551 0.00706509 0.00599488 -0.000799147 0.000327977 2.53507e-11 4.29458e-11 -6.09878e-11 5e-05 1.46608e-10 
179 1 0.114738 0.0179251 0.00705583 0.00599203 -0.000794479 0.000325666 8.48178e-12 -6.60143e-12 3.07062e-11 5e-05 1.46608e-10 
181 1 0.114297 0.0174888 0.00730875 0.00576741 -0.000971067 0.000280327 -1.80855e-11 -3.15968e-11 -1.52108e-11 5e-05 1.46608e-10 
182 1 0.120112 0.0163467 0.00784607 0.00548767 -0.000146107 0.000172304 -1.15528e-10 2.29828e-10 -3.87698e-11 5e-05 1.46608e-10 
183 1 0.11449 0.0175229 0.00716663 0.00607448 -0.000954042 0.000251083 2.98813e-11 -5.45233e-13 1.94413e-11 5e-05 1.46608e-10 
184 1 0.120648 0.0177689 0.00718715 0.00603838 -0.000358285 -0.000178218 2.45632e-11 -1.10079e-11 -6.5977e-12 5e-05 1.46608e-10 
185 1 0.114214 0.017148 0.00742589 0.00581625 -0.000966295 0.000274381 4.71615e-11 1.07855e-10 -7.31429e-11 5e-05 1.46608e-10 
186 1 0.11431 0.0174024 0.00735765 0.00590589 -0.000991472 0.00028636 8.69059e-12 -5.54685e-11 -3.60012e-12 5e-05 1.46608e-10 
187 1 0.120479 0.0171063 0.00734429 0.00608514 -0.000384679 -0.000158611 1.95443e-10 4.55547e-11 -2.4676e-10 5e-05 1.46608e-10 
188 1 0.120512 0.0179856 0.00714005 0.00602896 -0.000261645 0.00028429 6.12421e-12 -2.63082e-11 7.69388e-12 5e-05 1.46608e-10 
189 1 0.120524 0.0172962 0.00729941 0.00601593 -0.000460644 -0.000156064 -2.31077e-11 1.40267e-11 5.60243e-12 5e-05 1.46608e-10 
190 1 0.108399 0.0175718 0.00736424 0.00583302 -0.000454923 0.000751875 -2.87216e-12 -4.35876e-12 1.81826e-12 5e-05 1.46608e-10 
191 1 0.120483 0.0183002 0.007057 0.00601058 -0.000276367 0.000287375 5.34145e-12 1.72619e-11 -1.35325e-12 5e-05 1.46608e-10 
192 1 0.114503 0.0172215 0.0073609 0.00600578 -0.000908834 0.00022621 1.25549e-10 2.58477e-11 -2.30194e-11 5e-05 1.46608e-10 
193 1 0.120265 0.0165656 0.00760632 0.00559682 -0.000210911 0.000245343 5.5685e-11 4.65851e-11 4.59262e-11 5e-05 1.46608e-10 
194 1 0.114322 0.0168691 0.00759991 0.00569891 -0.000987772 0.000294924 -1.93598e-11 -6.00522e-11 2.68961e-11 5e-05 1.46608e-10 
195 1 0.11476 0.0178279 0.00704798 0.00597901 -0.000795767 0.000326013 6.15462e-12 -3.46683e-12 1.58849e-11 5e-05 1.46608e-10 
196 1 0.113746 0.0153839 0.00881302 0.00549148 -0.000488619 0.000909272 1.13316e-10 3.96009e-10 -3.5961e-10 5e-05 1.46608e-10 
197 1 0.108323 0.0176294 0.00733226 0.00583367 -0.000454262 0.000751665 -1.03605e-12 -1.76318e-12 1.2544e-12 5e-05 1.46608e-10 
198 1 0.114131 0.0168221 0.00764183 0.00567538 -0.000929804 0.000259235 -1.81677e-10 -2.05721e-11 2.54784e-11 5e-05 1.46608e-10 
199 1 0.114277 0.0173926 0.00726383 0.00593029 -0.000983694 0.00027864 3.02291e-11 4.3487e-11 -3.9052e-11 5e-05 1.46608e-10 
200 1 0.114247 0.0169271 0.00756689 0.00572535 -0.000967008 0.000279974 -6.26623e-12 -7.25376e-12 1.84587e-11 5e-05 1.46608e-10 
201 1 0.114707 0.01811 0.00707146 0.00593013 -0.000792218 0.000323285 2.03751e-11 -2.36596e-11 -1.14054e-12 5e-05 1.46608e-10 
202 1 0.114524 0.017303 0.0073069 0.00603139 -0.000907874 0.000224139 1.42181e-10 3.19053e-11 -3.48446e-11 5e-05 1.46608e-10 
203 1 0.120677 0.0183097 0.00706186 0.00603047 -0.000136642 0.000254367 -1.41054e-11 1.38765e-11 -4.053e-12 5e-05 1.46608e-10 
204 1 0.114226 0.0168455 0.00762092 0.0056935 -0.000955433 0.000276097 7.29046e-11 -1.31382e-11 3.89486e-11 5e-05 1.46608e-10 
205 1 0.114562 0.0180182 0.00713798 0.00597743 -0.000867539 0.000320349 -1.07335e-11 -4.68929e-11 -1.31872e-11 5e-05 1.46608e-10 
206 1 0.114529 0.0176877 0.00705783 0.00605158 -0.000938343 0.00026284 -1.0588e-11 -6.0011e-11 3.54161e-11 5e-05 1.46608e-10 
207 1 0.114062 0.0162088 0.00807476 0.00526029 -0.00044029 0.000839071 8.62273e-10 -5.24777e-10 2.25918e-10 5e-05 1.46608e-10 
208 1 0.114373 0.0174162 0.00724281 0.00592719 -0.00100495 0.000293098 -8.87245e-11 -5.12316e-11 4.28468e-11 5e-05 1.46608e-10 
209 1 0.114301 0.0167876 0.00765393 0.00566497 -0.000977839 0.000291481 -1.38273e-12 -2.52615e-11 6.50408e-11 5e-05 1.46608e-10 
210 1 0.120474 0.0177494 0.00726768 0.0060394 -0.000258245 0.000285775 9.55889e-12 3.05571e-11 7.7945e-12 5e-05 1.46608e-10 
211 1 0.120613 0.01802 0.00712927 0.00602565 -0.000256198 0.000283156 -7.26376e-12 -1.55556e-11 3.79206e-12 5e-05 1.46608e-10 
212 1 0.114604 0.0176306 0.00709005 0.0060706 -0.000925683 0.000234119 3.94308e-11 -1.69054e-11 3.62268e-11 5e-05 1.46608e-10 
213 1 0.120457 0.0170113 0.00736654 0.00607537 -0.000285572 0.00029085 -1.04346e-10 -5.53137e-11 9.55391e-11 5e-05 1.46608e-10 
214 1 0.120713 0.0180541 0.00711985 0.00601666 -0.000359075 -0.000177964 -3.55736e-12 9.7705e-12 -7.07336e-12 5e-05 1.46608e-10 
215 1 0.108377 0.0174814 0.00740113 0.00582254 -0.000453538 0.000750274 -3.68783e-12 -2.30212e-12 2.4022e-13 5e-05 1.46608e-10 
216 1 0.114319 0.0175556 0.00715583 0.00597668 -0.000986502 0.000275619 -6.00788e-11 3.35439e-11 4.93956e-11 5e-05 1.46608e-10 
217 1 0.120226 0.0164325 0.00775034 0.00552119 -0.000200472 0.000235564 -1.34245e-10 1.92786e-10 -1.81505e-10 5e-05 1.46608e-10 
218 1 0.114446 0.0177562 0.00702 0.00607181 -0.000955671 0.000320737 4.97797e-12 -5.18294e-11 8.62068e-12 5e-05 1.46608e-10 
219 1 0.120534 0.0180791 0.00711214 0.00602509 -0.000259924 0.000283838 -1.01085e-11 -1.60317e-11 3.72786e-12 5e-05 1.46608e-10 
220 1 0.114388 0.017705 0.00715754 0.00606089 -0.00103191 0.000288512 3.7739e-13 -1.5517e-10 6.03168e-11 5e-05 1.46608e-10 
221 1 0.108269 0.0170291 0.00758479 0.00585308 -0.000812709 -0.00013965 -7.49793e-12 -1.46103e-11 -6.87481e-12 5e-05 1.46608e-10 
222 1 0.120246 0.0164979 0.00767724 0.00554115 -0.000204566 0.000241442 -1.13886e-10 2.16621e-10 -6.78319e-11 5e-05 1.46608e-10 
223 1 0.114448 0.0173592 0.00727509 0.00596319 -0.000970516 0.000268116 8.99157e-11 7.41698e-11 -5.85893e-11 5e-05 1.46608e-10 
224 1 0.114194 0.0170693 0.00748411 0.00578047 -0.000958189 0.000270974 1.51602e-11 1.00036e-10 -7.62863e-11 5e-05 1.46608e-10 
225 1 0.120555 0.0177373 0.00721009 0.00604024 -0.000257985 0.000285348 2.76537e-11 -1.08105e-12 1.01049e-11 5e-05 1.46608e-10 
226 1 0.114685 0.0175553 0.00713394 0.00608805 -0.000832284 0.000171133 2.7701e-11 -6.94076e-12 -1.40401e-11 5e-05 1.46608e-10 
227 1 0.108334 0.0173006 0.00747491 0.00580211 -0.000449779 0.000746701 -1.00536e-11 7.98026e-13 -1.96155e-13 5e-05 1.46608e-10 
228 1 0.10828 0.0174486 0.00740604 0.00581314 -0.000450878 0.000748284 7.51942e-13 7.08586e-12 -1.89112e-12 5e-05 1.46608e-10 
229 1 0.114322 0.0175694 0.00725482 0.00593062 -0.000947579 0.000268511 -1.22374e-10 -4.91684e-11 1.31793e-10 5e-05 1.46608e-10 
230 1 0.114633 0.0181767 0.00707283 0.00589692 -0.000829105 0.000317592 -1.32588e-11 -2.82872e-11 -3.99528e-12 5e-05 1.46608e-10 
231 1 0.108237 0.0172678 0.00747981 0.00579284 -0.000446529 0.000744363 3.04436e-12 1.26569e-11 -1.4595e-12 5e-05 1.46608e-10 
232 1 0.114196 0.016381 0.00792626 0.00546352 -0.000525696 0.000940655 -2.21503e-10 3.43274e-11 1.34899e-10 5e-05 1.46608e-10 
233 1 0.114343 0.0169506 0.0075459 0.0057299 -0.000998562 0.000300742 8.07686e-11 -9.531e-11 3.87421e-11 5e-05 1.46608e-10 
234 1 0.120417 0.0180111 0.00712422 0.00602857 -0.000270226 0.00028644 -6.33767e-12 -4.62375e-11 1.07669e-11 5e-05 1.46608e-10 
235 1 0.114522 0.0184922 0.00709559 0.00574242 -0.000884833 0.000301863 1.45947e-13 -2.63227e-11 -3.48287e-12 5e-05 1.46608e-10 
236 1 0.114694 0.0184471 0.00710283 0.00576251 -0.000792813 0.000311932 1.02674e-11 -3.29976e-11 -2.07545e-12 5e-05 1.46608e-10 
237 1 0.114542 0.0185896 0.00710626 0.00569259 -0.000874381 0.000299486 -3.74899e-12 -2.90765e-11 -3.25047e-12 5e-05 1.46608e-10 
239 1 0.108043 0.0164522 0.00780721 0.00542362 -0.000711103 -0.000145868 -4.88586e-12 -1.0221e-11 4.501e-12 5e-05 1.46608e-10 
240 1 0.108107 0.0167255 0.00770114 0.0057305 -0.000439624 0.000735403 1.79012e-12 8.68947e-12 -5.93663e-12 5e-05 1.46608e-10 
241 1 0.108024 0.0163602 0.00784143 0.00545318 -0.000717354 -0.00014593 -3.15965e-12 -1.24819e-11 5.05256e-12 5e-05 1.46608e-10 
242 1 0.114459 0.0170556 0.00747096 0.00575404 -0.00103526 0.000323058 -1.55596e-10 8.23334e-11 -4.494e-11 5e-05 1.46608e-10 
243 1 0.114206 0.016764 0.00767494 0.00565792 -0.000940442 0.000272457 1.0222e-10 -4.39817e-11 -3.88412e-12 5e-05 1.46608e-10 
244 1 0.108063 0.016544 0.00777299 0.00570067 -0.000771464 -0.000144963 1.52755e-12 -6.38122e-12 -9.32263e-14 5e-05 1.46608e-10 
246 1 0.108193 0.0170871 0.00755359 0.00577128 -0.000444495 0.000740754 1.20931e-11 1.29907e-11 6.95698e-12 5e-05 1.46608e-10 
247 1 0.114477 0.0178505 0.00703115 0.00604102 -0.000945504 0.000316965 -3.71537e-11 -6.20491e-11 -2.13325e-11 5e-05 1.46608e-10 