ITEM: TIMESTEP
39400000
ITEM: NUMBER OF ATOMS
271
ITEM: BOX BOUNDS ff ff ff
-0.02 0.43
-0.02 0.06
-0.02 0.07
ITEM: ATOMS id type x y z vx vy vz fx fy fz radius mass 
1 1 0.242204 0.0155459 0.00885929 0.00598338 -4.38343e-05 -0.000150944 -4.13685e-11 -5.63125e-11 5.0497e-11 5e-05 1.46608e-10 
2 1 0.242994 0.0177749 0.00702876 0.00622432 -4.1106e-05 8.95148e-06 -1.29146e-12 -9.49702e-12 -1.92363e-11 5e-05 1.46608e-10 
3 1 0.237275 0.0182458 0.00694026 0.00590569 -0.000263979 8.85512e-06 -4.75929e-10 1.63886e-10 3.59734e-11 5e-05 1.46608e-10 
4 1 0.24307 0.0177108 0.00703855 0.0062313 -3.54668e-05 6.38467e-06 -1.2661e-11 -3.51464e-11 -4.3118e-11 5e-05 1.46608e-10 
5 1 0.242182 0.0154728 0.00892378 0.00601164 -4.61271e-05 -0.00014985 -2.25502e-11 -5.87906e-11 5.41708e-11 5e-05 1.46608e-10 
6 1 0.248632 0.0169987 0.00743704 0.00558327 -9.53426e-05 -0.000414988 9.1152e-12 -3.70401e-12 1.7446e-12 5e-05 1.46608e-10 
7 1 0.242288 0.0158392 0.00860067 0.00587355 -3.65734e-05 -0.000153955 7.64559e-12 -9.29132e-12 6.27105e-12 5e-05 1.46608e-10 
8 1 0.242161 0.0153995 0.00898841 0.0060394 -4.90655e-05 -0.000148218 -1.32816e-11 -4.99269e-11 4.38798e-11 5e-05 1.46608e-10 
9 1 0.24875 0.0175163 0.00716152 0.00562033 0.000202889 0.000214188 4.61774e-13 -1.23379e-11 7.84509e-12 5e-05 1.46608e-10 
10 1 0.242701 0.0173133 0.00731598 0.00596327 1.78759e-05 -2.55593e-05 -3.39759e-11 -2.70075e-11 2.69857e-11 5e-05 1.46608e-10 
11 1 0.242834 0.0174905 0.00716983 0.0061611 -5.89115e-05 3.18372e-05 9.89338e-11 2.69678e-11 -3.57885e-11 5e-05 1.46608e-10 
12 1 0.236338 0.0158132 0.00827423 0.00568342 -0.000263901 0.000210079 -6.33921e-12 -1.42834e-11 5.82866e-11 5e-05 1.46608e-10 
13 1 0.242097 0.0151796 0.00918229 0.00612039 -6.22418e-05 -0.00013923 -3.68439e-12 -1.78338e-11 1.5153e-11 5e-05 1.46608e-10 
14 1 0.236995 0.018604 0.00687211 0.0057293 -0.000366864 8.14278e-05 -3.27382e-11 -4.83966e-10 4.88859e-11 5e-05 1.46608e-10 
15 1 0.243043 0.0176181 0.00706422 0.00625273 -3.80387e-05 1.3209e-05 9.02233e-12 -4.29487e-11 3.02525e-11 5e-05 1.46608e-10 
16 1 0.23709 0.018636 0.00686606 0.00567172 -0.000343316 7.65812e-05 -3.48402e-10 1.1867e-10 3.19194e-12 5e-05 1.46608e-10 
17 1 0.243165 0.0177401 0.00702796 0.00622458 -1.2272e-05 1.02439e-05 1.5526e-11 -5.50035e-11 -1.55052e-11 5e-05 1.46608e-10 
19 1 0.24214 0.0153262 0.00905304 0.00606649 -5.2898e-05 -0.000145688 -1.03591e-11 -3.77454e-11 3.34114e-11 5e-05 1.46608e-10 
21 1 0.242663 0.0171617 0.00744084 0.00583322 2.75016e-05 -4.47272e-05 -7.62958e-11 -8.9124e-11 1.42017e-11 5e-05 1.46608e-10 
22 1 0.242815 0.0174147 0.00723222 0.00607366 -4.8719e-05 2.42291e-05 -1.86442e-11 1.52853e-11 -3.36524e-11 5e-05 1.46608e-10 
23 1 0.236563 0.0162876 0.00776606 0.00552907 -0.000227709 0.000187591 7.7566e-12 1.64908e-11 -7.66074e-12 5e-05 1.46608e-10 
24 1 0.248832 0.0178686 0.00699087 0.00629331 9.1198e-05 0.000307675 4.60618e-12 -2.9009e-11 3.83602e-11 5e-05 1.46608e-10 
25 1 0.242352 0.0160605 0.00840841 0.00579152 -2.23625e-05 -0.000165003 -1.23134e-11 2.12764e-11 -3.40287e-11 5e-05 1.46608e-10 
26 1 0.248711 0.0173399 0.00724711 0.00561862 0.000203209 0.000214064 1.41113e-11 7.96905e-12 -7.83849e-13 5e-05 1.46608e-10 
27 1 0.237354 0.0186354 0.00686663 0.00566431 -0.000506537 8.02943e-05 -8.08869e-10 4.37616e-10 1.35681e-10 5e-05 1.46608e-10 
28 1 0.242949 0.0175916 0.00708628 0.00625282 -3.92074e-05 1.37926e-05 -2.74383e-11 2.21121e-12 1.14867e-11 5e-05 1.46608e-10 
29 1 0.24231 0.0159124 0.00853612 0.00584535 -3.24633e-05 -0.000156574 -4.97967e-11 1.97367e-11 -1.80355e-11 5e-05 1.46608e-10 
30 1 0.2428 0.0176296 0.00717172 0.00618914 -5.15898e-05 -3.37515e-05 5.66479e-11 -2.24263e-11 6.63302e-11 5e-05 1.46608e-10 
31 1 0.242374 0.0161322 0.00834225 0.00586307 -3.45319e-05 -0.000155836 -1.77045e-11 2.51118e-11 -2.81646e-11 5e-05 1.46608e-10 
32 1 0.242797 0.0169855 0.00758551 0.00568226 -4.33268e-05 2.92505e-05 -6.48639e-11 1.37594e-11 -3.43064e-11 5e-05 1.46608e-10 
33 1 0.248652 0.0170752 0.00737554 0.00561047 -0.000100855 -0.000413106 -4.93667e-12 -5.1378e-12 -1.69274e-12 5e-05 1.46608e-10 
34 1 0.242267 0.0157659 0.00866529 0.00590337 -3.99036e-05 -0.000151965 9.92908e-11 -4.69417e-11 3.70044e-11 5e-05 1.46608e-10 
35 1 0.242967 0.0173147 0.00731411 0.00600621 -0.000105017 7.03621e-05 4.18974e-12 2.82453e-11 -2.44023e-11 5e-05 1.46608e-10 
36 1 0.248811 0.0177805 0.00703352 0.00625486 9.83363e-05 0.00030166 2.4775e-11 -1.74021e-11 1.63025e-11 5e-05 1.46608e-10 
37 1 0.242839 0.0179011 0.00703254 0.00622609 -3.51535e-05 1.01295e-05 1.66347e-11 5.53174e-11 -1.04928e-14 5e-05 1.46608e-10 
38 1 0.243006 0.0182328 0.00704356 0.00613032 -2.4236e-05 1.09668e-05 -2.4156e-11 1.77272e-11 2.59057e-12 5e-05 1.46608e-10 
39 1 0.248854 0.0179651 0.00697644 0.0062953 1.53302e-06 -0.000298573 1.09931e-11 -1.38658e-11 -1.91562e-11 5e-05 1.46608e-10 
41 1 0.243187 0.0178384 0.00703118 0.00618712 1.23214e-06 1.12536e-05 2.8435e-11 -1.03416e-11 -3.97981e-12 5e-05 1.46608e-10 
42 1 0.321436 0.0173475 0.00552525 4.5699e-16 2.25532e-15 8.4636e-14 -7.96646e-24 1.26016e-24 0 5e-05 1.46608e-10 
44 1 0.242966 0.0176691 0.00702529 0.00625411 -4.12074e-05 1.25137e-05 4.32976e-11 5.81396e-11 -4.71521e-12 5e-05 1.46608e-10 
45 1 0.248671 0.0171634 0.00733269 0.00561377 0.000203061 0.000213958 7.35866e-12 2.26249e-12 1.68639e-12 5e-05 1.46608e-10 
47 1 0.242225 0.0156194 0.00879454 0.00595658 -4.27838e-05 -0.000151062 1.25489e-11 -5.5072e-11 4.27999e-11 5e-05 1.46608e-10 
48 1 0.242984 0.0181352 0.00704037 0.00614261 -3.15085e-05 1.0788e-05 -2.07449e-11 2.7876e-11 3.13494e-12 5e-05 1.46608e-10 
50 1 0.24242 0.0162781 0.0082135 0.00622403 -0.000103483 -0.000106458 5.97748e-12 1.03559e-11 -7.39802e-12 5e-05 1.46608e-10 
51 1 0.242398 0.0162049 0.00827804 0.00603819 -6.93682e-05 -0.000130426 3.39815e-11 1.24545e-11 -1.28825e-11 5e-05 1.46608e-10 
52 1 0.236258 0.0155625 0.00857286 0.00607511 -0.000324928 0.000281271 2.36542e-11 4.21761e-12 -4.89792e-12 5e-05 1.46608e-10 
53 1 0.248791 0.0176925 0.00707617 0.00621559 0.00010538 0.000296324 1.60849e-11 8.03332e-12 2.04424e-12 5e-05 1.46608e-10 
54 1 0.242959 0.0178819 0.00711376 0.00622106 -3.11089e-05 1.50109e-05 7.00035e-11 1.41728e-10 4.32686e-11 5e-05 1.46608e-10 
55 1 0.236193 0.0153801 0.0088018 0.00609502 -0.000328281 0.00028268 -5.56138e-14 2.32631e-11 -3.58373e-12 5e-05 1.46608e-10 
56 1 0.242861 0.0179987 0.00703573 0.00620131 -3.22918e-05 1.00216e-05 1.68157e-11 4.87608e-11 4.40285e-12 5e-05 1.46608e-10 
57 1 0.248691 0.0172516 0.0072899 0.00561577 0.000203375 0.000213927 -1.28209e-11 6.86673e-12 -2.19027e-12 5e-05 1.46608e-10 
59 1 0.242795 0.017339 0.00729459 0.00598956 -3.78742e-05 1.5269e-05 5.49476e-11 1.08729e-11 -1.09227e-11 5e-05 1.46608e-10 
61 1 0.242666 0.0168133 0.00773867 0.00548254 -5.29483e-05 -0.000127821 -8.01677e-11 8.5879e-13 -4.79703e-11 5e-05 1.46608e-10 
62 1 0.243135 0.0180033 0.0070364 0.0061346 -2.68829e-05 1.04036e-05 1.81345e-11 3.07417e-11 1.62559e-11 5e-05 1.46608e-10 
63 1 0.243143 0.0176428 0.0070436 0.00624199 -2.54357e-05 4.46973e-06 -3.95984e-11 -2.317e-11 -7.05008e-12 5e-05 1.46608e-10 
64 1 0.248875 0.0180628 0.00697757 0.00627786 5.51092e-06 -0.000298124 -2.32293e-11 3.91555e-11 3.43521e-12 5e-05 1.46608e-10 
65 1 0.236507 0.0164293 0.00768333 0.00552681 -0.000229797 0.000188865 -1.77776e-11 5.72915e-12 -8.22322e-12 5e-05 1.46608e-10 
66 1 0.236171 0.0153192 0.00887813 0.00610323 -0.000328226 0.00028453 -1.05725e-12 2.33583e-11 -2.74311e-11 5e-05 1.46608e-10 
67 1 0.24292 0.0178419 0.00703078 0.00622858 -3.25243e-05 1.13801e-05 5.36511e-11 3.49559e-11 4.21113e-12 5e-05 1.46608e-10 
68 1 0.242834 0.0171376 0.00746024 0.00580247 -5.78272e-05 3.23434e-05 6.27156e-12 7.99333e-11 -4.58249e-11 5e-05 1.46608e-10 
69 1 0.242916 0.0180038 0.00711883 0.00618609 -9.67446e-06 1.85162e-05 -2.62521e-11 1.89806e-11 4.76776e-11 5e-05 1.46608e-10 
70 1 0.24873 0.0174281 0.00720432 0.00561903 0.000202822 0.000214198 1.27414e-11 -9.96037e-12 6.65603e-12 5e-05 1.46608e-10 
71 1 0.236239 0.0155027 0.00865068 0.00608458 -0.000330024 0.000278831 8.0313e-11 -3.03551e-11 -1.34806e-11 5e-05 1.46608e-10 
72 1 0.242796 0.0177058 0.00702615 0.00626896 -4.33093e-05 9.21213e-06 1.08888e-12 5.23782e-12 1.49322e-11 5e-05 1.46608e-10 
73 1 0.242903 0.018194 0.00704211 0.00615501 -2.39323e-05 1.06991e-05 9.37988e-12 5.81692e-11 4.11801e-12 5e-05 1.46608e-10 
74 1 0.242963 0.0180375 0.00703717 0.00617991 -2.42943e-05 1.04319e-05 -6.87489e-11 -1.83163e-11 -3.18956e-12 5e-05 1.46608e-10 
76 1 0.237241 0.0185069 0.00689131 0.00563039 -0.000391724 8.65451e-05 -6.07789e-10 1.95777e-10 3.7901e-12 5e-05 1.46608e-10 
77 1 0.242891 0.017365 0.00727296 0.0060202 -9.52813e-05 6.26174e-05 -7.49332e-12 3.09858e-11 -2.00658e-11 5e-05 1.46608e-10 
78 1 0.236976 0.0185076 0.00689073 0.00577908 -0.000434057 9.36337e-05 1.64753e-10 -4.8152e-10 1.09444e-10 5e-05 1.46608e-10 
79 1 0.2363 0.0156863 0.00842152 0.00571264 -0.000341593 0.000166831 4.67862e-11 -1.27909e-11 3.90577e-11 5e-05 1.46608e-10 
80 1 0.243113 0.0179057 0.00703321 0.0061671 -2.95447e-05 1.02759e-05 -2.35531e-11 4.29872e-12 -9.54387e-13 5e-05 1.46608e-10 
81 1 0.237109 0.0187326 0.0068474 0.0056957 -0.00034723 7.63704e-05 -1.23276e-10 2.38239e-10 -1.77147e-11 5e-05 1.46608e-10 
82 1 0.236363 0.0158762 0.00820102 0.00568725 -0.000264496 0.000211829 -8.22996e-11 -3.75963e-12 3.69177e-11 5e-05 1.46608e-10 
83 1 0.237032 0.0183467 0.00692198 0.00615449 -0.000458497 0.000103765 5.11207e-10 -8.80669e-10 -5.54192e-11 5e-05 1.46608e-10 
84 1 0.24877 0.0176044 0.00711884 0.00591728 0.000154698 0.000254938 -4.62362e-12 1.44947e-12 -1.82566e-12 5e-05 1.46608e-10 
85 1 0.237296 0.0183446 0.00692159 0.00593737 0.000209955 -7.72422e-05 -1.72253e-10 1.24827e-10 9.68714e-12 5e-05 1.46608e-10 
86 1 0.243208 0.017936 0.00703437 0.00615392 4.15645e-06 1.23847e-05 9.88989e-12 6.36363e-12 -1.08722e-11 5e-05 1.46608e-10 
87 1 0.24308 0.0181661 0.00704155 0.00612454 -3.0214e-05 1.06221e-05 1.02607e-11 5.63577e-12 -1.26259e-12 5e-05 1.46608e-10 
88 1 0.24259 0.0168636 0.00769721 0.00553616 -6.53551e-06 -0.000163333 6.62041e-11 8.2552e-11 4.40995e-11 5e-05 1.46608e-10 
89 1 0.243058 0.0180682 0.00703835 0.0061245 -4.63806e-05 1.0566e-05 4.8952e-12 2.8138e-11 -3.93054e-12 5e-05 1.46608e-10 
90 1 0.242853 0.0175662 0.00710746 0.0062195 -6.1106e-05 3.30074e-05 1.6197e-10 4.32153e-11 -2.40768e-11 5e-05 1.46608e-10 
91 1 0.237335 0.0185388 0.00688489 0.00567597 -0.000423391 4.01451e-05 -6.42282e-10 2.62295e-10 -1.48042e-11 5e-05 1.46608e-10 
92 1 0.242941 0.0179396 0.00703397 0.0061955 -4.33137e-05 1.00204e-05 -5.35085e-11 -1.34887e-11 -7.946e-12 5e-05 1.46608e-10 
93 1 0.242468 0.0164237 0.00808493 0.00634868 -0.0001308 -8.66839e-05 6.69701e-11 -2.40755e-12 4.69286e-13 5e-05 1.46608e-10 
94 1 0.242903 0.0176494 0.00715404 0.0062542 -4.06893e-05 1.27754e-05 -3.39157e-11 -4.98844e-11 3.02649e-11 5e-05 1.46608e-10 
95 1 0.242753 0.0174757 0.00729012 0.00604144 7.34639e-06 -3.77879e-05 -2.13376e-11 -6.29512e-11 -3.19786e-11 5e-05 1.46608e-10 
96 1 0.242491 0.0164967 0.00802052 0.00637855 -0.000139108 -8.07798e-05 1.01032e-11 2.14241e-11 -1.17485e-11 5e-05 1.46608e-10 
97 1 0.236622 0.0165424 0.00761893 0.00551458 -0.000225788 0.000186466 -2.43163e-11 -3.1476e-12 -9.82001e-12 5e-05 1.46608e-10 
98 1 0.242929 0.0175159 0.00714865 0.00620521 -5.7022e-05 3.02001e-05 3.79643e-11 -1.43487e-11 3.02244e-11 5e-05 1.46608e-10 
99 1 0.236719 0.016967 0.00737369 0.0055985 -0.000237375 0.000193309 1.1167e-11 5.59261e-11 -2.96328e-11 5e-05 1.46608e-10 
100 1 0.243037 0.0179703 0.00703515 0.00616721 -3.42842e-05 1.07844e-05 -9.36666e-11 -5.95165e-11 3.24986e-12 5e-05 1.46608e-10 
101 1 0.236331 0.0157435 0.00834565 0.00566447 -0.000260909 0.000208915 4.68223e-11 -3.22757e-11 4.20712e-11 5e-05 1.46608e-10 
102 1 0.0643568 0.0187248 0.00531097 4.33297e-15 1.04911e-14 8.29577e-14 -3.98985e-23 -7.44101e-22 9.67801e-23 5e-05 1.46608e-10 
103 1 0.24257 0.0191927 0.00520306 1.19201e-22 -3.94926e-23 1.23839e-22 0 -2.58494e-26 0 5e-05 1.46608e-10 
104 1 0.236924 0.0178672 0.00701405 0.00618489 -0.000440199 6.10521e-05 2.33713e-10 -1.43611e-10 -7.39713e-11 5e-05 1.46608e-10 
105 1 0.237148 0.0189255 0.00681013 0.00571353 -0.000378773 8.33184e-05 3.41275e-10 5.16172e-10 -1.08157e-10 5e-05 1.46608e-10 
106 1 0.237232 0.0180523 0.00697684 0.00622008 -0.000527025 5.90904e-05 2.70337e-11 7.36694e-11 5.67029e-12 5e-05 1.46608e-10 
107 1 0.237211 0.0179563 0.00699499 0.00622479 -0.000536909 5.888e-05 6.26409e-11 2.00014e-10 -2.17693e-11 5e-05 1.46608e-10 
108 1 0.242924 0.0181357 0.00712057 0.00614876 -1.97543e-05 1.72631e-05 -2.86222e-11 4.10761e-11 9.94765e-12 5e-05 1.46608e-10 
109 1 0.24312 0.0175678 0.00710543 0.00624841 -2.72382e-05 6.30634e-06 -6.30847e-11 -4.80001e-12 -2.49885e-12 5e-05 1.46608e-10 
110 1 0.242514 0.0165695 0.00795624 0.00638184 -0.000141157 -7.82747e-05 -3.30124e-11 4.13378e-11 -3.47897e-11 5e-05 1.46608e-10 
111 1 0.242777 0.0172632 0.00735706 0.00591219 -2.70098e-05 6.34542e-06 1.4872e-12 2.25194e-11 -1.1533e-11 5e-05 1.46608e-10 
112 1 0.236989 0.018155 0.006959 0.00619871 -0.000466182 9.93178e-05 9.36102e-11 -1.51071e-10 1.9762e-11 5e-05 1.46608e-10 
113 1 0.236585 0.016769 0.00748713 0.0055815 -0.000234377 0.000191843 -2.3689e-11 2.86531e-11 -5.10217e-12 5e-05 1.46608e-10 
114 1 0.236957 0.0184113 0.00690934 0.00614797 -0.000555725 0.000115091 6.07685e-10 3.25267e-10 -5.07196e-12 5e-05 1.46608e-10 
115 1 0.243026 0.017542 0.00712691 0.00625176 -3.45527e-05 1.12588e-05 -3.28511e-11 -4.02776e-11 3.88118e-11 5e-05 1.46608e-10 
116 1 0.242836 0.0178872 0.00713151 0.00623085 -1.95899e-05 1.20159e-05 -8.80969e-11 -1.05004e-10 -2.79612e-11 5e-05 1.46608e-10 
117 1 0.242946 0.0183892 0.00704849 0.00610975 -1.19714e-05 1.14179e-05 2.54708e-11 1.14192e-10 3.33627e-12 5e-05 1.46608e-10 
118 1 0.236783 0.0176427 0.00705663 0.00617752 -0.000402862 3.51778e-05 -1.62778e-11 3.50539e-11 -2.55161e-12 5e-05 1.46608e-10 
119 1 0.242986 0.0173907 0.00725153 0.00634101 8.47833e-05 -8.6118e-05 -1.21901e-10 -7.00268e-11 8.82902e-11 5e-05 1.46608e-10 
120 1 0.242332 0.0159856 0.00847156 0.00581482 -2.6956e-05 -0.000160901 -4.24263e-11 2.83672e-11 -3.09733e-11 5e-05 1.46608e-10 
121 1 0.242247 0.0156925 0.00873004 0.00593212 -4.1809e-05 -0.000151075 1.07039e-10 -6.36994e-11 5.13589e-11 5e-05 1.46608e-10 
122 1 0.242739 0.0171116 0.00748193 0.00578812 -4.56361e-06 -1.06739e-05 -6.05311e-11 -5.52245e-11 -1.33848e-12 5e-05 1.46608e-10 
123 1 0.236743 0.0174503 0.00709404 0.00562653 -0.000250415 0.000212234 8.50202e-11 9.87186e-12 3.57498e-11 5e-05 1.46608e-10 
124 1 0.242758 0.0171874 0.00741949 0.00584834 -1.55891e-05 -3.29564e-06 -6.48946e-11 2.50598e-12 -2.97297e-12 5e-05 1.46608e-10 
125 1 0.243027 0.0183304 0.00704675 0.00610378 -1.80952e-05 1.11379e-05 -1.41368e-10 -2.38598e-11 -9.0884e-13 5e-05 1.46608e-10 
126 1 0.242684 0.0168874 0.00767348 0.00555099 -4.68573e-05 -0.000134711 -1.89649e-11 5.96261e-11 5.95972e-11 5e-05 1.46608e-10 
127 1 0.237204 0.0187647 0.00684136 0.00573771 -0.000367008 8.21834e-05 -6.09359e-10 2.95087e-10 -6.55574e-11 5e-05 1.46608e-10 
128 1 0.24272 0.017036 0.00754468 0.00572014 -2.78196e-05 -5.48223e-05 -6.74741e-11 -1.62388e-10 -1.22784e-10 5e-05 1.46608e-10 
129 1 0.242757 0.0175415 0.00712976 0.00619089 -2.33818e-05 1.24904e-06 8.66658e-11 -1.56049e-11 4.06346e-11 5e-05 1.46608e-10 
131 1 0.237254 0.0181482 0.0069587 0.00618569 -0.00044646 4.47224e-05 -4.15695e-10 2.13158e-10 -4.91544e-12 5e-05 1.46608e-10 
132 1 0.242874 0.0176512 0.00705862 0.00625896 -4.1454e-05 1.11578e-05 -1.08072e-11 3.92846e-11 1.53667e-11 5e-05 1.46608e-10 
133 1 0.242719 0.0173892 0.00725351 0.00604163 5.07157e-06 -2.03258e-05 -5.80173e-12 -2.56803e-11 2.01102e-11 5e-05 1.46608e-10 
134 1 0.242702 0.0169612 0.00760849 0.00564472 -5.93375e-05 -0.000120561 -3.96645e-11 -3.07923e-12 4.85323e-11 5e-05 1.46608e-10 
135 1 0.242118 0.0152529 0.00911766 0.00609353 -5.74008e-05 -0.000142622 -8.22149e-12 -2.67091e-11 2.38984e-11 5e-05 1.46608e-10 
136 1 0.237014 0.0187003 0.00685348 0.00571353 -0.00030056 7.1616e-05 -2.82759e-10 -1.93603e-10 1.72956e-11 5e-05 1.46608e-10 
137 1 0.242444 0.016351 0.00814918 0.0063246 -0.000123884 -9.16477e-05 -3.0373e-11 2.31077e-12 -6.89778e-12 5e-05 1.46608e-10 
138 1 0.242956 0.0177258 0.00710699 0.006248 -3.83824e-05 1.56113e-05 -1.84222e-10 1.18137e-10 -8.80659e-12 5e-05 1.46608e-10 
140 1 0.24291 0.0174464 0.00721784 0.00619591 -4.27553e-05 2.14381e-05 1.24923e-10 6.70358e-11 -2.2401e-11 5e-05 1.46608e-10 
141 1 0.23701 0.0182508 0.00694049 0.00621266 -0.000461868 9.773e-05 1.95439e-10 -3.6299e-10 6.21115e-11 5e-05 1.46608e-10 
142 1 0.236723 0.0173653 0.00714294 0.0056224 -0.000246338 0.000205885 3.14608e-11 -3.29475e-11 4.74853e-11 5e-05 1.46608e-10 
143 1 0.236214 0.0154409 0.00872546 0.00608333 -0.000324428 0.000282141 8.12489e-11 -2.07144e-11 -5.20331e-12 5e-05 1.46608e-10 
144 1 0.236848 0.0179304 0.00700222 0.00618099 -0.000428141 4.01508e-05 -1.66746e-11 -2.25428e-10 4.13643e-11 5e-05 1.46608e-10 
147 1 0.237071 0.0185395 0.00688471 0.00578909 -0.000337664 7.54063e-05 4.28349e-10 2.77875e-10 -3.81987e-11 5e-05 1.46608e-10 
148 1 0.236815 0.0169951 0.00735834 0.00558132 -0.000268955 0.000211008 2.22142e-11 8.09157e-11 -3.7648e-11 5e-05 1.46608e-10 
149 1 0.242608 0.0169375 0.00763235 0.00562025 1.9233e-05 -0.000111404 1.31201e-10 4.24152e-11 7.68764e-11 5e-05 1.46608e-10 
150 1 0.0100679 0.0201683 0.00551526 8.38378e-15 1.24865e-15 -8.48744e-14 -3.74816e-24 -8.27181e-25 -6.20385e-25 5e-05 1.46608e-10 
151 1 0.236684 0.0171936 0.00724193 0.00561637 -0.000231686 0.000191292 -1.56978e-11 -1.72426e-11 1.5811e-13 5e-05 1.46608e-10 
153 1 0.237053 0.0188931 0.00681624 0.00579999 -0.00026346 5.66185e-05 1.64233e-10 2.22726e-10 -6.03602e-11 5e-05 1.46608e-10 
154 1 0.236804 0.0177386 0.0070385 0.00616774 -0.000447689 4.46452e-05 -7.80535e-11 -2.07487e-10 4.22543e-11 5e-05 1.46608e-10 
155 1 0.237028 0.0175421 0.00707389 0.00592576 -0.000520525 5.86303e-05 -2.44348e-10 1.5149e-10 -1.92601e-11 5e-05 1.46608e-10 
156 1 0.236967 0.0180591 0.00697748 0.00618463 -0.000457831 9.7228e-05 4.29198e-11 -8.77202e-12 -1.61931e-12 5e-05 1.46608e-10 
157 1 0.0219312 0.0187687 0.00551176 -3.83269e-14 8.16663e-14 2.95889e-13 -7.72173e-22 2.16463e-22 -1.7164e-22 5e-05 1.46608e-10 
158 1 0.237221 0.0184102 0.00690977 0.00590531 0.000163624 -7.05223e-05 -4.8108e-10 1.35396e-10 -6.11834e-11 5e-05 1.46608e-10 
159 1 0.243156 0.018101 0.00703959 0.00612522 -2.6338e-05 1.10374e-05 8.48369e-11 4.74464e-11 5.95151e-13 5e-05 1.46608e-10 
160 1 0.236826 0.0178345 0.00702036 0.00617818 -0.000436871 4.16055e-05 -4.40173e-11 -1.98809e-10 3.41732e-11 5e-05 1.46608e-10 
162 1 0.237129 0.0188291 0.00682875 0.00574797 -0.000322633 7.25698e-05 -8.15349e-10 2.09111e-11 -3.24114e-11 5e-05 1.46608e-10 
164 1 0.23668 0.0167972 0.00747178 0.005559 -0.000231854 0.000190351 -6.99502e-11 3.92864e-11 -3.23776e-11 5e-05 1.46608e-10 
165 1 0.23702 0.0178972 0.00700732 0.00619643 -0.000442276 4.71739e-05 2.78614e-10 -1.2744e-11 2.83304e-11 5e-05 1.46608e-10 
166 1 0.242882 0.0180963 0.00703908 0.00617736 -2.88278e-05 9.46154e-06 1.38943e-12 5.21926e-11 -5.64201e-12 5e-05 1.46608e-10 
168 1 0.236739 0.0170518 0.0073247 0.0056096 -0.000237723 0.000193563 1.79174e-11 5.44545e-11 -2.16239e-11 5e-05 1.46608e-10 
169 1 0.237185 0.0186681 0.00686002 0.00564846 -0.000411843 9.01808e-05 -4.12834e-10 2.76676e-10 -6.48544e-11 5e-05 1.46608e-10 
170 1 0.237115 0.0179268 0.00700115 0.0062102 -0.000470473 4.79507e-05 2.20326e-10 2.11076e-10 -9.48999e-11 5e-05 1.46608e-10 
171 1 0.242824 0.017713 0.00712193 0.00629292 -7.03421e-05 -2.29007e-06 -8.51314e-11 4.1401e-11 4.86671e-11 5e-05 1.46608e-10 
172 1 0.236998 0.0178009 0.00702553 0.00615399 -0.00045873 4.65057e-05 5.39188e-11 -2.86271e-10 2.79435e-12 5e-05 1.46608e-10 
173 1 0.243092 0.0178081 0.00703004 0.00620098 -3.31789e-05 8.33164e-06 2.98399e-11 -2.64521e-11 -3.30961e-11 5e-05 1.46608e-10 
174 1 0.23705 0.0176383 0.00705571 0.00605963 -0.000512382 5.59289e-05 -2.75278e-11 -5.76631e-11 2.29121e-11 5e-05 1.46608e-10 
175 1 0.23073 0.0174453 0.00733054 0.0059236 -0.00017722 -0.000285603 -2.47627e-10 -1.31532e-10 6.52667e-11 5e-05 1.46608e-10 
177 1 0.236854 0.0171651 0.00726017 0.00563047 -0.000258319 0.000208951 2.56377e-11 -6.84109e-11 1.32253e-11 5e-05 1.46608e-10 
178 1 0.236778 0.0172217 0.00722658 0.00561931 -0.000236767 0.000191213 -6.05288e-11 -1.15836e-11 -2.40801e-11 5e-05 1.46608e-10 
179 1 0.236859 0.0175794 0.00706855 0.00602734 -0.00039961 3.76573e-05 2.07115e-10 3.77832e-11 1.15945e-11 5e-05 1.46608e-10 
181 1 0.237146 0.0184749 0.00689735 0.00590937 -0.000256816 6.02751e-05 3.0282e-09 1.95093e-09 -3.71014e-10 5e-05 1.46608e-10 
182 1 0.242739 0.0174649 0.00719114 0.00612063 -9.24228e-06 -9.80025e-06 -1.99273e-11 -1.23951e-11 1.21994e-11 5e-05 1.46608e-10 
183 1 0.237094 0.0178306 0.00701934 0.00617045 -0.000483527 5.08995e-05 6.12323e-11 -4.90807e-10 1.52275e-10 5e-05 1.46608e-10 
184 1 0.242778 0.0175497 0.00722738 0.00610124 -3.36638e-05 -5.57149e-05 1.07389e-10 -7.88801e-11 2.80431e-11 5e-05 1.46608e-10 
186 1 0.236664 0.0171086 0.007291 0.00560608 -0.000232933 0.000191749 3.67053e-12 3.12381e-11 -1.65916e-11 5e-05 1.46608e-10 
187 1 0.242644 0.0170862 0.00750367 0.00576977 2.3148e-05 -7.10024e-05 -7.37394e-11 -9.50477e-11 -5.70431e-11 5e-05 1.46608e-10 
188 1 0.242816 0.0170618 0.00752268 0.0057342 -4.82895e-05 2.63871e-05 2.01613e-10 9.64547e-11 -5.7122e-11 5e-05 1.46608e-10 
189 1 0.242898 0.0177431 0.00702755 0.00625196 -3.84663e-05 1.03742e-05 -6.80969e-11 6.50484e-11 1.58759e-12 5e-05 1.46608e-10 
190 1 0.231018 0.0187225 0.00684109 0.00581527 -5.67367e-06 0.00010578 -8.0078e-11 3.31012e-11 -1.89278e-11 5e-05 1.46608e-10 
191 1 0.242853 0.0172134 0.00739781 0.00586465 -7.1496e-05 4.25537e-05 -8.92726e-11 2.74362e-11 -1.57538e-11 5e-05 1.46608e-10 
192 1 0.236976 0.0177048 0.00704372 0.00613012 -0.00045811 4.8142e-05 8.37548e-11 -1.20382e-10 3.15908e-12 5e-05 1.46608e-10 
193 1 0.243006 0.0174663 0.00718926 0.00622139 -3.27074e-05 9.13457e-06 2.00424e-11 -9.466e-11 7.22103e-11 5e-05 1.46608e-10 
194 1 0.161461 0.0182058 0.00533758 1.51468e-15 -1.10063e-14 8.66694e-14 7.53642e-22 7.51442e-23 -4.75629e-24 5e-05 1.46608e-10 
195 1 0.237201 0.0183122 0.00692828 0.00608811 -7.55178e-05 -2.06633e-05 -8.03271e-10 2.52883e-10 1.06385e-10 5e-05 1.46608e-10 
196 1 0.236583 0.0163725 0.00771702 0.00551925 -0.000226742 0.000186893 -3.25402e-11 1.88314e-11 -1.35499e-11 5e-05 1.46608e-10 
197 1 0.230793 0.0177076 0.00719954 0.00602772 -0.000130534 -6.00465e-05 4.16636e-10 -4.52778e-11 1.94234e-10 5e-05 1.46608e-10 
198 1 0.237034 0.0187967 0.00683486 0.0057739 -0.000270244 6.28332e-05 1.34025e-10 3.91207e-10 -3.42921e-11 5e-05 1.46608e-10 
199 1 0.236935 0.0183155 0.00692785 0.00616717 -0.000531907 0.000113099 -1.78676e-10 -8.51992e-10 1.86702e-10 5e-05 1.46608e-10 
201 1 0.236566 0.0166841 0.00753618 0.00553477 -0.000228782 0.000188002 4.98046e-11 2.27628e-11 -2.325e-11 5e-05 1.46608e-10 
202 1 0.237063 0.0180893 0.00697101 0.00618252 -0.000496023 4.41587e-05 -9.05128e-11 2.60973e-11 3.15336e-10 5e-05 1.46608e-10 
203 1 0.242535 0.0166429 0.00789156 0.00630085 -0.000119179 -7.79958e-05 8.00265e-11 5.29483e-11 -3.50335e-11 5e-05 1.46608e-10 
204 1 0.236279 0.0156239 0.00849689 0.00594838 -0.000330775 0.000240677 2.63937e-11 1.77186e-11 3.46169e-11 5e-05 1.46608e-10 
205 1 0.237159 0.0181188 0.00696484 0.00620974 -0.000508785 5.32472e-05 -1.66215e-10 1.82175e-11 -1.06205e-10 5e-05 1.46608e-10 
206 1 0.236641 0.0166273 0.00756987 0.00552424 -0.000227249 0.000186932 -1.25924e-11 9.95055e-12 -3.56732e-12 5e-05 1.46608e-10 
207 1 0.236759 0.0171368 0.00727577 0.00561998 -0.000235973 0.000193806 2.54085e-12 2.46348e-11 -8.64501e-14 5e-05 1.46608e-10 
208 1 0.236946 0.0179631 0.00699586 0.00617965 -0.000446403 7.82189e-05 2.07703e-10 -4.00165e-11 -3.10086e-11 5e-05 1.46608e-10 
209 1 0.233749 0.0178171 0.00716559 0.00569263 0.000184774 -0.000489287 -5.2318e-13 5.00352e-13 -1.38572e-13 5e-05 1.46608e-10 
210 1 0.242682 0.0172376 0.00737841 0.0058906 2.48666e-05 -3.52213e-05 -1.07714e-10 -6.11987e-11 2.33314e-11 5e-05 1.46608e-10 
211 1 0.242719 0.0174046 0.00735231 0.00601421 3.73056e-05 -2.6269e-05 7.93554e-11 2.00478e-10 -7.28108e-12 5e-05 1.46608e-10 
212 1 0.237085 0.0181852 0.00695288 0.00622149 -0.000476368 5.00117e-05 5.63433e-12 8.48191e-11 -1.84524e-10 5e-05 1.46608e-10 
213 1 0.242818 0.0178035 0.00702935 0.0062534 -3.94714e-05 1.01453e-05 -3.18522e-11 3.34331e-11 3.05538e-12 5e-05 1.46608e-10 
214 1 0.242626 0.0170116 0.00756755 0.00569952 2.24872e-05 -8.77651e-05 -5.67654e-12 -7.76955e-11 -4.92948e-11 5e-05 1.46608e-10 
215 1 0.231001 0.0186296 0.00687346 0.00575093 9.37485e-07 0.00010216 -8.1932e-11 4.3665e-11 -3.39405e-11 5e-05 1.46608e-10 
216 1 0.237042 0.0179932 0.00698917 0.00617722 -0.000507685 5.13023e-05 -7.50534e-12 -1.61364e-10 -1.00131e-10 5e-05 1.46608e-10 
217 1 0.242925 0.0182916 0.0070453 0.00613417 -1.80446e-05 1.11143e-05 -6.82063e-12 6.56535e-11 6.13142e-12 5e-05 1.46608e-10 
218 1 0.236418 0.0159169 0.00812759 0.00569051 -0.000265411 0.00021434 -7.23602e-11 -1.58463e-11 2.10072e-11 5e-05 1.46608e-10 
219 1 0.242571 0.0167952 0.00776775 0.00547338 -5.85744e-05 -0.000229759 4.95606e-12 4.50219e-11 -1.74889e-11 5e-05 1.46608e-10 
220 1 0.23718 0.0182148 0.0069467 0.00614769 -0.000449792 4.51365e-05 -5.18393e-10 3.8119e-11 5.65498e-11 5e-05 1.46608e-10 
221 1 0.296707 0.0172761 0.00719467 0.0054335 -0.000952813 0.000412416 3.04491e-13 -5.09951e-14 2.77106e-14 5e-05 1.46608e-10 
222 1 0.243015 0.0178726 0.00703195 0.00621241 -2.98596e-05 1.04311e-05 4.35747e-11 1.71265e-11 1.60137e-12 5e-05 1.46608e-10 
223 1 0.236903 0.0177712 0.00703194 0.00617184 -0.000434767 5.01326e-05 1.004e-10 -1.01738e-10 -6.76539e-11 5e-05 1.46608e-10 
224 1 0.0109314 0.0176676 0.00785538 1.9786e-10 -0.0225171 0.00856664 1.53928e-18 7.77575e-12 2.04089e-11 5e-05 1.46608e-10 
225 1 0.242872 0.0172893 0.00733533 0.00594135 -8.52866e-05 5.40243e-05 -1.13761e-10 3.36248e-11 -2.68841e-11 5e-05 1.46608e-10 
226 1 0.236703 0.0172785 0.00719289 0.00561795 -0.000234817 0.000188769 -2.38707e-11 -4.59692e-11 4.34428e-11 5e-05 1.46608e-10 
227 1 0.230943 0.0183517 0.00697014 0.00619676 -6.08487e-05 0.000131002 1.56185e-10 -2.06693e-11 -3.02119e-11 5e-05 1.46608e-10 
228 1 0.230751 0.0175324 0.00728627 0.00602206 -0.000200584 -0.000280342 -2.40122e-10 -1.46888e-11 -1.06555e-11 5e-05 1.46608e-10 
229 1 0.237127 0.0183777 0.00691612 0.00603534 -0.000162362 3.42149e-05 -6.21119e-10 1.62189e-10 9.26824e-12 5e-05 1.46608e-10 
230 1 0.236527 0.0165143 0.00763428 0.00552889 -0.000230671 0.000188836 -1.76817e-12 1.27979e-11 -4.81304e-12 5e-05 1.46608e-10 
231 1 0.230709 0.0173581 0.00737482 0.005842 -0.000159225 -0.000288951 -3.51551e-11 -6.45142e-12 -4.34266e-12 5e-05 1.46608e-10 
232 1 0.236913 0.0182196 0.00694637 0.00618921 -0.000481747 0.000105207 3.79197e-11 -5.04811e-10 1.25467e-10 5e-05 1.46608e-10 
234 1 0.242777 0.0176163 0.00706641 0.00624934 -3.722e-05 9.12177e-06 9.05495e-11 -1.68851e-11 3.86242e-11 5e-05 1.46608e-10 
235 1 0.237137 0.0180229 0.00698298 0.00618096 -0.000505814 5.30723e-05 -1.69348e-10 -2.17701e-11 -5.50851e-11 5e-05 1.46608e-10 
236 1 0.236488 0.0163444 0.00773239 0.00551975 -0.000228619 0.000188731 -5.79508e-12 5.39432e-13 7.0978e-12 5e-05 1.46608e-10 
237 1 0.236448 0.0161746 0.00783042 0.00566781 -0.000256985 0.000206382 5.56102e-12 1.03163e-11 -2.02197e-12 5e-05 1.46608e-10 
239 1 0.230543 0.0166603 0.00772916 0.00545791 -8.80715e-05 -0.000299841 3.47478e-11 -8.55617e-13 -1.11169e-11 5e-05 1.46608e-10 
240 1 0.230563 0.0167477 0.00768482 0.00546444 -9.03959e-05 -0.000299049 -1.65944e-11 -4.13925e-11 1.52796e-11 5e-05 1.46608e-10 
241 1 0.230625 0.0170093 0.00755196 0.00574408 -0.000155309 -0.000284517 -4.54866e-10 5.1119e-11 6.5883e-12 5e-05 1.46608e-10 
242 1 0.236762 0.0175465 0.0070748 0.00561268 -0.000282323 1.21778e-05 -6.02765e-11 3.48278e-11 -5.24803e-11 5e-05 1.46608e-10 
244 1 0.230584 0.0168349 0.00764053 0.00568926 -0.000139942 -0.000288979 -9.75452e-12 -4.99014e-11 1.8879e-11 5e-05 1.46608e-10 
246 1 0.230688 0.0172709 0.00741911 0.00585012 -0.000172737 -0.000282381 -1.23898e-10 6.46041e-11 -4.23188e-11 5e-05 1.46608e-10 
247 1 0.237279 0.0187001 0.00685399 0.00569133 -0.000444219 9.0966e-05 -6.87139e-10 2.78615e-10 1.45606e-11 5e-05 1.46608e-10 
248 1 0.236546 0.0165992 0.00758523 0.00553012 -0.00022958 0.000189373 8.35602e-12 3.62206e-11 -1.2734e-11 5e-05 1.46608e-10 
249 1 0.230982 0.0185368 0.00690577 0.00569089 8.40072e-06 9.8313e-05 -4.62688e-11 -2.32129e-13 -8.11671e-12 5e-05 1.46608e-10 
250 1 0.236834 0.0170801 0.00730924 0.00559594 -0.000252672 0.000203215 4.29547e-11 4.94993e-11 -8.11743e-12 5e-05 1.46608e-10 
251 1 0.242558 0.0167158 0.00782715 0.00599051 -7.00353e-05 -0.000130324 8.79002e-11 4.917e-11 -1.47891e-11 5e-05 1.46608e-10 
252 1 0.230835 0.0178904 0.00713041 0.00608774 -6.7613e-05 0.000130446 -4.40163e-11 -1.38386e-10 1.27301e-11 5e-05 1.46608e-10 
253 1 0.231038 0.0188186 0.0068207 0.00583918 -6.59738e-05 -0.000147686 1.12494e-11 6.23892e-11 8.3732e-12 5e-05 1.46608e-10 
254 1 0.230667 0.0171837 0.00746339 0.00583481 -0.000171046 -0.000282346 9.67475e-11 2.31003e-10 -1.17028e-10 5e-05 1.46608e-10 
255 1 0.23687 0.0180268 0.00698362 0.00618028 -0.000439652 9.63819e-05 5.24422e-11 1.89808e-11 -1.50399e-11 5e-05 1.46608e-10 
256 1 0.236955 0.0176088 0.00706185 0.00602449 -0.00041368 3.83186e-05 6.27655e-11 1.37992e-10 1.34387e-11 5e-05 1.46608e-10 
257 1 0.236912 0.0174205 0.00711316 0.00571408 -0.00037763 0.000286769 -7.54126e-11 -2.81571e-11 1.18259e-10 5e-05 1.46608e-10 
258 1 0.236818 0.0173969 0.00713899 0.00564915 -0.000294086 0.000101458 -1.86363e-10 -9.62667e-13 1.83725e-11 5e-05 1.46608e-10 
259 1 0.230857 0.0179827 0.00709836 0.00612903 -5.3859e-05 0.000128616 -2.26566e-10 -6.04268e-11 -1.97114e-11 5e-05 1.46608e-10 