ITEM: TIMESTEP
33800000
ITEM: NUMBER OF ATOMS
271
ITEM: BOX BOUNDS ff ff ff
-0.02 0.43
-0.02 0.06
-0.02 0.07
ITEM: ATOMS id type x y z vx vy vz fx fy fz radius mass 
1 1 0.209511 0.0153819 0.00893114 0.00548616 0.000348972 0.000142413 -1.85506e-10 -1.40891e-10 1.39699e-10 5e-05 1.46608e-10 
2 1 0.210401 0.0177251 0.00714188 0.00551376 0.000337471 6.97947e-05 -1.51667e-10 2.94836e-11 -7.46319e-12 5e-05 1.46608e-10 
3 1 0.204534 0.017857 0.00700305 0.00554328 -0.000367155 0.000278773 -5.97642e-11 1.47006e-11 -9.97421e-12 5e-05 1.46608e-10 
4 1 0.210462 0.0175625 0.00719169 0.00551676 0.000337069 6.79477e-05 -5.99835e-11 -1.0161e-10 4.31392e-11 5e-05 1.46608e-10 
5 1 0.209494 0.0153202 0.00900802 0.00547098 0.000337161 0.000156132 2.16755e-10 -1.18681e-10 1.70005e-10 5e-05 1.46608e-10 
6 1 0.215995 0.0170764 0.0075389 0.00600913 4.47552e-06 -0.000341161 -4.83051e-11 -4.15392e-11 2.51828e-11 5e-05 1.46608e-10 
7 1 0.209593 0.0156279 0.00862767 0.00586574 0.000288314 0.000265031 -6.61524e-12 -2.00491e-10 2.80145e-10 5e-05 1.46608e-10 
8 1 0.209472 0.0152591 0.00908386 0.00548334 0.000319492 0.000179964 1.63636e-11 -6.58549e-11 8.24829e-11 5e-05 1.46608e-10 
9 1 0.216111 0.0175283 0.00716181 0.00563631 5.43807e-05 -0.000445054 2.9558e-11 1.08754e-10 -8.45256e-11 5e-05 1.46608e-10 
10 1 0.210068 0.0173294 0.00724841 0.00556952 9.53576e-05 0.000141148 1.92339e-10 -1.30324e-10 3.88279e-11 5e-05 1.46608e-10 
11 1 0.210203 0.0175493 0.00718768 0.00537455 9.19938e-05 0.000132637 -2.63477e-10 -1.56124e-10 1.39255e-11 5e-05 1.46608e-10 
12 1 0.203638 0.015684 0.00837387 0.00567201 -0.000235361 0.000396266 1.51967e-10 -2.04884e-12 -6.73115e-11 5e-05 1.46608e-10 
13 1 0.209413 0.015075 0.00931334 0.00545447 0.000297771 0.000204559 3.56925e-11 1.05344e-10 -1.33393e-10 5e-05 1.46608e-10 
14 1 0.204311 0.0185097 0.00694237 0.00553433 -0.000365185 0.000277703 -1.10018e-11 -8.74591e-12 -5.47792e-13 5e-05 1.46608e-10 
15 1 0.210444 0.0174627 0.00722058 0.00562097 7.83826e-05 0.000148696 -2.15923e-10 -2.44119e-10 8.67928e-11 5e-05 1.46608e-10 
16 1 0.204407 0.0185432 0.00694408 0.00552373 -0.000365639 0.000277212 -1.55975e-11 -4.99129e-12 -5.21227e-13 5e-05 1.46608e-10 
17 1 0.210477 0.0176634 0.00716237 0.00553745 0.000377059 5.77884e-05 -1.42061e-10 1.29126e-11 -2.80732e-12 5e-05 1.46608e-10 
19 1 0.209452 0.0151977 0.00916035 0.00547351 0.000309463 0.000191853 4.32122e-11 -2.63587e-11 4.53203e-11 5e-05 1.46608e-10 
21 1 0.210027 0.0171414 0.00730262 0.00582044 5.5451e-05 0.000165916 1.72132e-10 2.86973e-10 -5.32835e-11 5e-05 1.46608e-10 
22 1 0.210238 0.0172972 0.00726308 0.00559361 0.000345064 6.91012e-05 -2.62699e-11 3.20817e-10 -9.75188e-11 5e-05 1.46608e-10 
23 1 0.203883 0.0162456 0.00793416 0.00612338 -0.00031348 0.000463902 1.25532e-11 5.55719e-11 -3.2807e-10 5e-05 1.46608e-10 
24 1 0.216186 0.0178748 0.00699261 0.00576263 0.00036898 0.000165099 -4.11302e-11 -1.65916e-12 8.20495e-12 5e-05 1.46608e-10 
25 1 0.209656 0.0158101 0.00839798 0.00603468 0.000242299 0.000331474 5.38967e-13 2.89539e-10 -5.53766e-10 5e-05 1.46608e-10 
26 1 0.216076 0.0173778 0.00728871 0.00577915 4.78291e-05 -0.000403106 -2.12163e-11 -1.30139e-10 -1.82945e-10 5e-05 1.46608e-10 
27 1 0.204613 0.0182487 0.00697619 0.00554713 -0.000374067 0.000278975 1.38946e-11 3.68067e-12 3.90994e-14 5e-05 1.46608e-10 
28 1 0.210369 0.0175257 0.0071997 0.00563528 0.000128738 0.000135963 -2.53963e-10 -9.78339e-11 2.81272e-11 5e-05 1.46608e-10 
29 1 0.209616 0.0156875 0.00855071 0.00588464 0.000263556 0.000290942 -2.2643e-10 -1.22442e-12 4.19794e-11 5e-05 1.46608e-10 
30 1 0.210128 0.0176156 0.00718861 0.00547548 0.000185479 0.00011034 -2.19892e-10 -1.04905e-10 -1.381e-10 5e-05 1.46608e-10 
31 1 0.20968 0.0158711 0.00832242 0.00604104 0.000255807 0.000316338 -8.72197e-10 4.23293e-10 -8.92325e-10 5e-05 1.46608e-10 
32 1 0.210118 0.0167409 0.00744973 0.00606114 -6.63766e-05 -0.000266072 3.98798e-10 -9.5181e-11 -8.64178e-12 5e-05 1.46608e-10 
33 1 0.216017 0.0171516 0.00747661 0.00602638 4.16771e-06 -0.000341863 -1.72739e-11 -6.43501e-12 1.68435e-11 5e-05 1.46608e-10 
34 1 0.209574 0.015565 0.0087031 0.00580151 0.000313891 0.000221596 -1.61518e-10 -2.48931e-10 2.93326e-10 5e-05 1.46608e-10 
35 1 0.210271 0.0170453 0.00733838 0.00587539 9.29223e-05 0.000151967 2.02679e-10 1.0948e-11 8.86383e-12 5e-05 1.46608e-10 
36 1 0.216166 0.0177777 0.0070056 0.00583188 0.000356307 0.000168007 2.12388e-11 4.32616e-11 -2.98945e-12 5e-05 1.46608e-10 
37 1 0.210315 0.0181222 0.00705346 0.00550082 0.000223209 0.000104973 -1.36772e-11 -1.12038e-10 2.63271e-10 5e-05 1.46608e-10 
38 1 0.210381 0.0184014 0.00694183 0.00565678 0.000152306 0.000131303 1.5813e-10 4.0537e-11 -4.48274e-11 5e-05 1.46608e-10 
39 1 0.216205 0.0179721 0.00697958 0.00567484 0.000384126 0.000158609 -2.61142e-11 -5.35377e-11 2.10577e-12 5e-05 1.46608e-10 
41 1 0.210491 0.0177669 0.00713229 0.00553597 0.000293585 8.2049e-05 -2.0348e-10 -1.26319e-11 2.04941e-12 5e-05 1.46608e-10 
42 1 0.321436 0.0173475 0.00552525 4.62337e-16 2.25455e-15 8.4636e-14 9.79692e-24 4.62704e-24 -2.06795e-25 5e-05 1.46608e-10 
44 1 0.210385 0.0176232 0.00717145 0.00552025 0.000315543 7.46131e-05 3.8284e-11 -2.47396e-11 4.39373e-11 5e-05 1.46608e-10 
45 1 0.216039 0.0172268 0.00741433 0.00604683 8.0633e-06 -0.000344043 5.33391e-12 4.02747e-11 -1.58752e-11 5e-05 1.46608e-10 
47 1 0.20954 0.0154422 0.00885668 0.00555577 0.000346314 0.000152017 -1.58726e-10 -1.58507e-10 1.56792e-10 5e-05 1.46608e-10 
48 1 0.210361 0.0183101 0.00697741 0.0056202 0.000168483 0.000117098 1.13122e-10 2.58712e-11 -6.53217e-11 5e-05 1.46608e-10 
50 1 0.209718 0.0159938 0.00816937 0.00619405 0.000271869 0.000309348 -5.31372e-10 5.49124e-10 -7.31818e-10 5e-05 1.46608e-10 
51 1 0.209697 0.0159359 0.00824819 0.00610732 0.000263723 0.000291228 -5.70892e-11 3.91954e-10 -6.77804e-10 5e-05 1.46608e-10 
52 1 0.203559 0.0154246 0.00866003 0.00558288 -0.000322885 0.000298719 -5.98939e-11 5.70336e-11 -4.35461e-11 5e-05 1.46608e-10 
53 1 0.216147 0.017691 0.00705178 0.00577764 0.00024099 -8.2426e-05 1.21261e-11 4.92938e-11 -6.66247e-11 5e-05 1.46608e-10 
54 1 0.210207 0.0180069 0.00713129 0.0054676 0.000186307 0.000142272 -1.72536e-10 -2.72313e-10 2.81562e-10 5e-05 1.46608e-10 
55 1 0.203503 0.0153342 0.00893931 0.00544885 -0.000333045 0.000268684 -1.2412e-10 1.28356e-10 -9.8466e-11 5e-05 1.46608e-10 
56 1 0.210314 0.0182051 0.00699768 0.00557112 0.000216149 0.000112454 7.52357e-11 -2.78625e-10 8.09532e-11 5e-05 1.46608e-10 
57 1 0.216058 0.0173024 0.00735182 0.00583818 5.29318e-05 -0.000367632 8.32224e-11 -6.48977e-11 -4.27648e-11 5e-05 1.46608e-10 
59 1 0.210217 0.0172028 0.0072903 0.00567225 0.000142522 0.000130958 8.76675e-10 -2.5149e-10 1.05012e-10 5e-05 1.46608e-10 
61 1 0.210003 0.0166438 0.007534 0.00620618 1.47239e-05 -0.000341206 4.53554e-10 1.51804e-10 -1.81259e-10 5e-05 1.46608e-10 
62 1 0.210597 0.0182037 0.00700671 0.00552473 5.11247e-05 0.000153672 8.41193e-11 6.31638e-11 -9.84707e-13 5e-05 1.46608e-10 
63 1 0.210427 0.0173601 0.0072503 0.00552672 0.000285438 8.44035e-05 -3.56737e-10 -1.42607e-10 3.005e-11 5e-05 1.46608e-10 
64 1 0.216224 0.0180702 0.00698033 0.00567724 0.000387434 -0.000535424 -1.32862e-12 -8.24233e-11 -9.10151e-13 5e-05 1.46608e-10 
65 1 0.203831 0.0163851 0.00784622 0.00605683 -0.000504455 6.91359e-05 5.51564e-11 -4.48135e-10 -5.78081e-10 5e-05 1.46608e-10 
66 1 0.203485 0.0153098 0.00903456 0.0053819 -0.000329959 0.000268852 -2.31977e-10 4.0694e-11 -1.14894e-10 5e-05 1.46608e-10 
67 1 0.21033 0.0178793 0.00709424 0.00546176 0.000185641 0.000114473 -1.49725e-10 8.53565e-11 -1.47329e-10 5e-05 1.46608e-10 
68 1 0.210155 0.0169206 0.00737162 0.00590955 0.000126987 0.000137152 6.93314e-11 -3.39686e-11 -2.46101e-11 5e-05 1.46608e-10 
69 1 0.210226 0.0180972 0.00709261 0.00550836 0.000213064 0.000148243 1.62448e-10 -3.85114e-10 4.27774e-10 5e-05 1.46608e-10 
70 1 0.216095 0.0174529 0.00722531 0.0057141 4.20907e-05 -0.000435773 -4.20154e-12 2.62639e-11 -1.03187e-10 5e-05 1.46608e-10 
71 1 0.203539 0.015383 0.00874881 0.00551593 -0.00034142 0.000284671 -7.99562e-11 9.83096e-12 7.05111e-11 5e-05 1.46608e-10 
72 1 0.21024 0.0178374 0.00710385 0.00543503 0.000220549 9.57916e-05 -2.34317e-12 6.20401e-11 8.62748e-11 5e-05 1.46608e-10 
73 1 0.210283 0.0183666 0.00694912 0.0056448 0.000169627 0.000117046 -4.69589e-12 -4.0961e-11 -3.02143e-11 5e-05 1.46608e-10 
74 1 0.210405 0.0181464 0.00701779 0.00551436 0.000182767 0.000112744 -4.1798e-10 -6.54675e-12 7.90956e-12 5e-05 1.46608e-10 
76 1 0.204538 0.0183142 0.00696773 0.00554888 -0.000371552 0.000278846 2.53362e-12 -1.65448e-11 6.70327e-13 5e-05 1.46608e-10 
77 1 0.210292 0.0171393 0.00731127 0.00582414 0.000353233 7.36728e-05 -1.22627e-11 1.83626e-10 -5.46233e-11 5e-05 1.46608e-10 
78 1 0.204292 0.0184116 0.00694909 0.00554007 -0.000369933 0.000278269 -2.27997e-11 -5.36335e-11 3.71916e-12 5e-05 1.46608e-10 
79 1 0.203597 0.0155303 0.00849521 0.0055723 -0.000204169 0.000359627 -3.75499e-10 -2.26769e-11 -3.59103e-11 5e-05 1.46608e-10 
80 1 0.21046 0.0179094 0.00708932 0.00554645 0.000231345 0.000101875 3.35727e-10 1.92377e-10 -6.46056e-11 5e-05 1.46608e-10 
81 1 0.204427 0.018641 0.00693738 0.00551466 -0.000365982 0.000276818 1.7397e-11 1.20242e-12 4.22688e-13 5e-05 1.46608e-10 
82 1 0.203659 0.0157608 0.00831328 0.00581289 -0.000262473 0.000414133 -1.31599e-10 1.02975e-10 -6.16979e-12 5e-05 1.46608e-10 
83 1 0.204348 0.0182489 0.00696425 0.00555144 -0.000351647 0.000277487 4.30759e-12 5.80485e-11 -1.49364e-11 5e-05 1.46608e-10 
84 1 0.216129 0.0176061 0.00710142 0.00560019 0.000102932 -0.000389077 -4.61685e-11 6.99186e-11 -1.4249e-10 5e-05 1.46608e-10 
85 1 0.204554 0.0179549 0.00699634 0.00555673 -0.000371936 0.000279189 -4.04192e-11 -8.00431e-11 4.66391e-12 5e-05 1.46608e-10 
86 1 0.210539 0.0178516 0.00710879 0.00560689 0.000270338 9.32327e-05 3.52465e-11 -2.03088e-10 5.93138e-11 5e-05 1.46608e-10 
87 1 0.210456 0.0183385 0.00696266 0.00560517 0.000116218 0.000139283 3.38388e-10 5.1255e-11 -1.88859e-11 5e-05 1.46608e-10 
88 1 0.209888 0.0165452 0.00761957 0.00626764 -0.00019961 -0.000156676 2.21053e-10 -1.03384e-10 9.64638e-11 5e-05 1.46608e-10 
89 1 0.21043 0.0182395 0.0069911 0.00557894 0.000162468 0.000119925 -1.64435e-10 2.17026e-12 8.0199e-12 5e-05 1.46608e-10 
90 1 0.210294 0.0175915 0.00719765 0.00561843 0.000156018 0.000112825 -1.70987e-10 1.1931e-10 -1.11887e-10 5e-05 1.46608e-10 
91 1 0.204593 0.0181508 0.0069829 0.00554479 -0.000371385 0.000278617 4.48432e-11 6.7838e-12 9.1405e-13 5e-05 1.46608e-10 
92 1 0.210385 0.0180516 0.00704513 0.00546357 0.000198503 0.000106999 -2.78612e-11 -4.21292e-11 8.32006e-11 5e-05 1.46608e-10 
93 1 0.209759 0.0161163 0.00801691 0.00617229 0.000272538 0.000313103 -2.97627e-10 3.0952e-10 -3.6029e-10 5e-05 1.46608e-10 
94 1 0.210183 0.0174548 0.00721493 0.00531535 0.000249121 8.84274e-05 -1.98749e-10 3.22571e-10 -7.29826e-11 5e-05 1.46608e-10 
95 1 0.210143 0.0172661 0.00726935 0.00565023 0.000143323 0.000129899 4.36e-10 -2.04856e-10 5.70391e-11 5e-05 1.46608e-10 
96 1 0.209783 0.0161815 0.00794486 0.00624572 0.000211314 0.000285059 -5.87417e-10 1.50602e-10 -7.30354e-10 5e-05 1.46608e-10 
97 1 0.203948 0.0164927 0.00777669 0.0060242 -0.000558828 -4.55391e-05 8.19565e-11 3.51028e-11 1.37621e-10 5e-05 1.46608e-10 
98 1 0.210278 0.0174864 0.0072085 0.0053802 0.000112232 0.000130523 -3.2907e-10 -1.30403e-10 1.3516e-11 5e-05 1.46608e-10 
99 1 0.204057 0.0169157 0.0075325 0.00589927 -0.000500027 -7.07836e-05 -1.29558e-10 7.10536e-11 -3.36119e-11 5e-05 1.46608e-10 
100 1 0.210502 0.0181729 0.00701291 0.00551952 0.000118677 0.000133019 -3.4023e-11 7.23184e-11 -5.33686e-11 5e-05 1.46608e-10 
101 1 0.203617 0.0156077 0.00843496 0.005573 -0.000231706 0.000346685 -2.33373e-10 9.24554e-11 -5.95701e-11 5e-05 1.46608e-10 
102 1 0.0643568 0.0187248 0.00531097 4.21264e-15 1.05171e-14 8.29604e-14 -3.43753e-21 7.63307e-22 8.49928e-23 5e-05 1.46608e-10 
103 1 0.24257 0.0191927 0.00520306 7.51214e-23 4.86658e-23 1.23839e-22 0 0 0 5e-05 1.46608e-10 
104 1 0.204251 0.0177704 0.0070491 0.0054847 -0.000420366 3.42101e-05 -1.51075e-11 8.84118e-12 1.1514e-10 5e-05 1.46608e-10 
105 1 0.204668 0.0180853 0.00699137 0.00554054 -0.000376196 0.000278792 4.55655e-11 -2.28548e-11 3.59812e-12 5e-05 1.46608e-10 
106 1 0.204498 0.0176763 0.00707877 0.0054707 -0.000468904 -6.47346e-05 -7.27737e-11 1.39773e-11 -3.73867e-11 5e-05 1.46608e-10 
107 1 0.204479 0.0175911 0.00712774 0.00545812 -0.000468994 -6.21517e-05 -2.18044e-12 2.65223e-11 2.44304e-12 5e-05 1.46608e-10 
108 1 0.210246 0.0181925 0.00706938 0.00553402 0.000226877 8.7115e-05 -4.91695e-11 -4.53503e-10 1.88798e-10 5e-05 1.46608e-10 
109 1 0.210407 0.0172652 0.00727768 0.00529283 0.000293927 7.46459e-05 -1.07346e-10 -7.03137e-11 1.84905e-11 5e-05 1.46608e-10 
110 1 0.209802 0.0162469 0.00787172 0.00633936 -0.000117858 1.49912e-05 1.63604e-10 4.12633e-10 -4.61906e-10 5e-05 1.46608e-10 
111 1 0.210122 0.0171721 0.00729645 0.00586225 7.06665e-05 0.000156946 1.51852e-11 -1.29263e-10 3.94587e-11 5e-05 1.46608e-10 
112 1 0.204309 0.0180532 0.00697776 0.00554687 -0.000348177 0.000276805 1.44212e-11 -1.97234e-11 6.29024e-11 5e-05 1.46608e-10 
113 1 0.203918 0.0167223 0.00764944 0.0059862 -0.000567163 -3.92055e-05 -1.05358e-10 -3.3139e-11 -2.91238e-11 5e-05 1.46608e-10 
114 1 0.204272 0.0183135 0.00695582 0.00555136 -0.000353117 0.000277558 3.09465e-11 1.15439e-10 -8.44903e-12 5e-05 1.46608e-10 
115 1 0.210352 0.0174234 0.00722938 0.00543677 0.00018213 0.000112119 -2.72088e-10 -2.2479e-11 -4.36313e-12 5e-05 1.46608e-10 
116 1 0.210187 0.0179073 0.00715246 0.00543967 0.000188362 0.000116412 -5.46917e-11 1.77778e-10 3.7833e-10 5e-05 1.46608e-10 
117 1 0.210323 0.018559 0.00689361 0.00568022 0.000118249 0.000137546 8.62701e-11 4.19268e-10 -1.18265e-10 5e-05 1.46608e-10 
118 1 0.20412 0.0175709 0.00716054 0.00545697 -0.000466134 -6.36849e-05 -6.549e-12 -2.92234e-12 -2.87736e-11 5e-05 1.46608e-10 
119 1 0.210312 0.0172339 0.00728402 0.00551616 0.000249867 9.44845e-05 -1.8563e-10 8.44774e-11 -2.7307e-11 5e-05 1.46608e-10 
120 1 0.209634 0.0157494 0.00847446 0.00595586 0.000246568 0.000309248 1.08246e-10 1.85432e-10 -2.3033e-10 5e-05 1.46608e-10 
121 1 0.209551 0.015505 0.00877972 0.00568466 0.000341075 0.000175181 1.16096e-10 -1.79891e-10 3.01339e-10 5e-05 1.46608e-10 
122 1 0.210081 0.016984 0.00735066 0.00585535 8.08329e-05 0.00015601 -8.17461e-11 -7.05981e-12 3.73974e-11 5e-05 1.46608e-10 
123 1 0.204082 0.0174007 0.00725845 0.00545866 -0.000469299 -6.03892e-05 2.95219e-11 6.49978e-12 2.32296e-11 5e-05 1.46608e-10 
124 1 0.210102 0.017078 0.00732356 0.00583541 7.87758e-05 0.000155975 7.79936e-11 7.16929e-11 -1.21754e-11 5e-05 1.46608e-10 
125 1 0.210398 0.018496 0.00691445 0.00567522 0.000136003 0.00013273 -7.85952e-11 1.23247e-10 -1.91302e-11 5e-05 1.46608e-10 
126 1 0.210022 0.0167199 0.00747166 0.00604019 -5.94439e-05 -0.000272954 2.85916e-10 -2.03349e-10 2.06644e-10 5e-05 1.46608e-10 
127 1 0.204688 0.0181832 0.00698465 0.00554503 -0.000378367 0.000279153 5.51456e-11 4.08925e-11 -2.85474e-13 5e-05 1.46608e-10 
128 1 0.21006 0.01689 0.00737776 0.00583446 9.98678e-05 0.000138972 -1.02832e-10 -1.29222e-10 5.61702e-11 5e-05 1.46608e-10 
129 1 0.210219 0.0176456 0.00715977 0.00560621 0.000164545 0.000116589 -2.50562e-10 -9.95579e-11 -4.98191e-11 5e-05 1.46608e-10 
131 1 0.204516 0.0177637 0.00703382 0.0054676 -0.000472753 -8.07834e-05 -8.01027e-11 -1.34414e-11 -1.13658e-10 5e-05 1.46608e-10 
132 1 0.21031 0.0176884 0.00716195 0.00552017 0.000322361 7.40692e-05 -6.84895e-11 -6.41833e-11 8.02421e-12 5e-05 1.46608e-10 
133 1 0.210088 0.0174235 0.00722127 0.00537197 0.000155522 0.000120907 -1.56423e-10 -1.81406e-10 6.29592e-12 5e-05 1.46608e-10 
134 1 0.21004 0.0167971 0.00740857 0.00586631 -3.47854e-05 -0.000275054 1.34647e-10 -2.88142e-10 8.64313e-12 5e-05 1.46608e-10 
135 1 0.209432 0.0151364 0.00923684 0.00545474 0.000302817 0.000197738 4.65323e-11 3.73202e-11 -3.97806e-11 5e-05 1.46608e-10 
136 1 0.204331 0.0186075 0.00693567 0.00552513 -0.00036431 0.000277156 -1.0246e-11 -8.09707e-12 6.30477e-13 5e-05 1.46608e-10 
137 1 0.209739 0.016056 0.00809407 0.00616798 0.000289929 0.00031819 -8.53622e-10 6.03667e-10 -5.45836e-10 5e-05 1.46608e-10 
138 1 0.210168 0.0178104 0.00716769 0.00545338 0.000193875 0.000104053 -1.29085e-10 -9.85193e-11 -6.399e-11 5e-05 1.46608e-10 
140 1 0.210258 0.0173918 0.00723581 0.00541986 0.000382478 5.25714e-05 1.47382e-10 3.83245e-10 -1.02115e-10 5e-05 1.46608e-10 
141 1 0.204328 0.0181511 0.00697097 0.00554909 -0.000349132 0.000274858 -2.78675e-11 2.89726e-11 -9.19877e-12 5e-05 1.46608e-10 
142 1 0.204063 0.0173156 0.00730741 0.00546229 -0.000471107 -6.18059e-05 5.25629e-11 -2.16446e-11 -1.22178e-12 5e-05 1.46608e-10 
143 1 0.203522 0.0153585 0.00884415 0.00545466 -0.000337189 0.000272984 1.15592e-10 9.17743e-11 5.01176e-11 5e-05 1.46608e-10 
144 1 0.204174 0.0178266 0.00701356 0.00551421 -0.000475121 -6.26962e-05 4.0104e-12 2.23516e-11 -6.86362e-12 5e-05 1.46608e-10 
147 1 0.204387 0.0184446 0.00695082 0.00554713 -0.000353773 0.000277328 -1.74609e-11 9.60729e-12 -2.20267e-12 5e-05 1.46608e-10 
148 1 0.204155 0.0169428 0.0075114 0.00575142 -0.000517032 -5.23257e-05 -4.94797e-11 -6.26325e-11 2.56712e-11 5e-05 1.46608e-10 
149 1 0.209908 0.016621 0.0075574 0.00618083 -0.000172551 -0.000190137 -8.53546e-11 -2.19599e-10 1.63468e-10 5e-05 1.46608e-10 
150 1 0.0100679 0.0201683 0.00551526 8.38403e-15 1.25068e-15 -8.48743e-14 -1.58974e-23 9.14972e-23 0 5e-05 1.46608e-10 
151 1 0.204024 0.0171456 0.00740527 0.00556556 -0.000484958 -5.74493e-05 2.1071e-10 -9.00789e-12 -4.94322e-12 5e-05 1.46608e-10 
153 1 0.20437 0.0188031 0.00692225 0.00550834 -0.000365149 0.000276468 3.84417e-12 -4.57451e-11 3.75954e-12 5e-05 1.46608e-10 
154 1 0.204138 0.0176561 0.00711155 0.00545282 -0.000462162 -6.48154e-05 1.9134e-11 -1.08509e-11 -1.52744e-11 5e-05 1.46608e-10 
155 1 0.204347 0.0173944 0.00724615 0.00544754 -0.000468326 -6.17423e-05 4.08529e-11 5.40165e-11 -5.35539e-11 5e-05 1.46608e-10 
156 1 0.204289 0.0179554 0.00698439 0.00554896 -0.00034997 0.000279347 7.89958e-11 -1.03976e-10 2.45702e-11 5e-05 1.46608e-10 
157 1 0.0219312 0.0187687 0.00551176 -3.82644e-14 8.16816e-14 2.95892e-13 4.80437e-22 2.84292e-22 9.92617e-24 5e-05 1.46608e-10 
158 1 0.204518 0.0182163 0.00697444 0.00554759 -0.000366829 0.000278328 1.56169e-11 8.73492e-12 -1.10242e-12 5e-05 1.46608e-10 
159 1 0.210525 0.0182703 0.00698489 0.00554387 7.22849e-05 0.000149007 1.44377e-10 -5.58875e-11 8.12121e-12 5e-05 1.46608e-10 
160 1 0.204156 0.0177414 0.00706263 0.00547891 -0.000466017 -6.65106e-05 -1.52252e-11 1.82009e-12 -1.69602e-12 5e-05 1.46608e-10 
162 1 0.204446 0.0187388 0.00693067 0.00550769 -0.000366694 0.000276551 8.02492e-11 2.3478e-11 2.03149e-12 5e-05 1.46608e-10 
164 1 0.204013 0.0167463 0.00763027 0.00598268 -0.000526583 -5.9805e-05 -7.71569e-11 -3.87837e-11 5.71105e-11 5e-05 1.46608e-10 
165 1 0.204344 0.0177952 0.00702105 0.00550589 -0.000429264 1.57281e-05 -3.95147e-11 8.91326e-11 1.65723e-10 5e-05 1.46608e-10 
166 1 0.210267 0.0182918 0.00701335 0.0055988 0.00021105 0.000114444 1.47572e-10 -1.73599e-10 1.15291e-11 5e-05 1.46608e-10 
168 1 0.204079 0.0170013 0.00748307 0.00575911 -0.000508218 -5.66604e-05 -8.03418e-11 -8.00862e-11 7.68577e-11 5e-05 1.46608e-10 
169 1 0.204502 0.0185754 0.00694584 0.00552194 -0.000355891 0.000276385 -6.35282e-12 2.02359e-12 -5.07605e-13 5e-05 1.46608e-10 
170 1 0.204421 0.0177369 0.0070493 0.00546913 -0.000506987 -5.1623e-05 -2.07991e-10 1.50271e-10 5.18618e-11 5e-05 1.46608e-10 
171 1 0.210148 0.0177132 0.00717989 0.00560548 0.000166009 0.000137958 -9.40445e-11 -1.46664e-10 -1.19252e-10 5e-05 1.46608e-10 
172 1 0.204327 0.0177092 0.00707054 0.00547041 -0.000463754 -2.7304e-05 -3.41964e-11 1.24489e-11 -7.53993e-11 5e-05 1.46608e-10 
173 1 0.210412 0.0178248 0.0071128 0.00552692 0.000256 9.34173e-05 -8.90859e-11 2.23004e-10 -6.0654e-11 5e-05 1.46608e-10 
174 1 0.204366 0.0174795 0.00719719 0.00545141 -0.000464901 -6.32411e-05 -2.12059e-11 3.63593e-11 -3.2379e-11 5e-05 1.46608e-10 
175 1 0.198016 0.0171045 0.0073646 0.00576413 -0.000153536 -5.29976e-05 -1.32567e-10 9.12823e-11 -4.12492e-11 5e-05 1.46608e-10 
177 1 0.204194 0.0171127 0.00741358 0.00549927 -0.000467102 -6.57252e-05 4.24586e-11 -7.12801e-11 9.65126e-12 5e-05 1.46608e-10 
178 1 0.204118 0.0171711 0.00738525 0.00551753 -0.000470922 -6.33801e-05 -1.42227e-10 -4.12811e-11 2.67543e-11 5e-05 1.46608e-10 
179 1 0.204195 0.0175114 0.00718946 0.00545512 -0.000464327 -6.26282e-05 -3.45582e-12 -2.89935e-11 -1.60145e-11 5e-05 1.46608e-10 
181 1 0.204462 0.0183796 0.00695926 0.0055397 -0.000366763 0.000278019 8.37281e-13 2.26055e-11 -1.48425e-12 5e-05 1.46608e-10 
182 1 0.210108 0.0175177 0.00719411 0.00528759 0.000205518 0.000101146 -2.53342e-10 -8.8538e-11 -4.41263e-11 5e-05 1.46608e-10 
183 1 0.204403 0.0176507 0.00709877 0.00545787 -0.000493441 -5.06339e-05 -1.12419e-10 6.95741e-11 -3.25753e-12 5e-05 1.46608e-10 
184 1 0.210163 0.0173605 0.00724215 0.00549638 0.000243826 9.58717e-05 2.70787e-10 -9.52462e-12 1.82889e-11 5e-05 1.46608e-10 
186 1 0.204004 0.0170607 0.00745417 0.00574823 -0.000519601 -5.2181e-05 5.0896e-12 2.18224e-11 -6.36621e-11 5e-05 1.46608e-10 
187 1 0.210007 0.0170473 0.00732972 0.00582141 6.92683e-05 0.000163338 -5.07307e-11 1.11323e-10 3.37261e-11 5e-05 1.46608e-10 
188 1 0.210137 0.0168282 0.00740487 0.00602741 2.6582e-05 -9.75923e-05 2.61217e-10 5.92956e-11 2.48009e-10 5e-05 1.46608e-10 
189 1 0.210321 0.0177829 0.00712242 0.00550663 0.000323492 7.33608e-05 -1.50107e-10 7.4649e-12 -6.10416e-12 5e-05 1.46608e-10 
190 1 0.198285 0.018373 0.00689468 0.00567767 -6.75796e-05 8.39033e-05 6.74202e-12 4.50411e-11 -6.98286e-12 5e-05 1.46608e-10 
191 1 0.210176 0.0170147 0.00734452 0.00586519 0.000123031 0.00014381 5.13696e-11 -7.24558e-11 -9.26673e-12 5e-05 1.46608e-10 
192 1 0.204308 0.0176233 0.00711984 0.0054532 -0.000462229 -6.36594e-05 -6.31708e-12 2.18928e-11 2.3067e-11 5e-05 1.46608e-10 
193 1 0.210332 0.0173285 0.00725674 0.00538714 0.000371514 5.49365e-05 1.08968e-10 3.21527e-10 -9.20831e-11 5e-05 1.46608e-10 
194 1 0.161461 0.0182058 0.00533758 1.51589e-15 -1.10133e-14 8.66685e-14 1.50707e-21 2.08837e-22 6.20385e-25 5e-05 1.46608e-10 
195 1 0.204499 0.0181184 0.00698116 0.00554546 -0.000360007 0.000277716 1.94054e-11 3.93688e-11 -1.81983e-12 5e-05 1.46608e-10 
196 1 0.203905 0.0163236 0.0078743 0.00604219 -0.000556824 -4.10726e-05 1.61665e-10 -9.03636e-11 5.33453e-11 5e-05 1.46608e-10 
197 1 0.198075 0.0173613 0.00722111 0.00575571 -0.000149163 -5.56482e-05 -2.37901e-11 -1.45737e-11 8.93235e-12 5e-05 1.46608e-10 
198 1 0.204351 0.0187053 0.00692896 0.0055167 -0.000365212 0.00027683 -7.99494e-12 -3.09762e-11 2.46816e-12 5e-05 1.46608e-10 
199 1 0.204252 0.0182155 0.00696254 0.00555778 -0.000372264 0.000279187 7.12016e-12 -1.99509e-10 1.00804e-11 5e-05 1.46608e-10 
201 1 0.203896 0.0166378 0.00769824 0.00600406 -0.000572749 -4.10141e-05 -3.48705e-11 -1.11626e-11 5.68997e-11 5e-05 1.46608e-10 
202 1 0.204384 0.0179885 0.00698891 0.00554958 -0.000351887 0.000277107 2.85032e-11 5.98222e-11 2.81344e-11 5e-05 1.46608e-10 
203 1 0.209824 0.0163211 0.00780809 0.00619013 -0.000240036 -0.000179334 6.28251e-10 2.79532e-10 -3.82283e-10 5e-05 1.46608e-10 
204 1 0.203581 0.0154822 0.0085813 0.00555519 -0.0002434 0.000337648 -1.88995e-11 -5.65557e-11 -1.65665e-10 5e-05 1.46608e-10 
205 1 0.204459 0.0179226 0.00699458 0.00554867 -0.000358233 0.000277517 -3.89904e-11 4.05073e-11 -2.55615e-13 5e-05 1.46608e-10 
206 1 0.20397 0.0165772 0.00772788 0.00600733 -0.00056093 -4.82726e-05 -1.20327e-10 -1.2135e-11 1.19169e-10 5e-05 1.46608e-10 
207 1 0.204099 0.0170862 0.00743417 0.00557941 -0.000477682 -6.50077e-05 4.10157e-12 -1.06573e-10 6.08972e-11 5e-05 1.46608e-10 
208 1 0.20427 0.0178612 0.00701164 0.00553339 -0.000364794 0.000201586 6.7422e-11 -3.96434e-11 8.85949e-11 5e-05 1.46608e-10 
209 1 0.201152 0.0179913 0.00694288 0.0059658 0.00106911 -0.000253365 5.009e-13 2.72889e-13 -1.2501e-13 5e-05 1.46608e-10 
210 1 0.210048 0.0172354 0.00727551 0.005828 5.02992e-05 0.000161704 -5.10531e-11 1.57455e-10 -1.27566e-11 5e-05 1.46608e-10 
211 1 0.209986 0.0169533 0.00735681 0.00581474 8.66826e-05 0.000145953 -5.13665e-11 -6.51011e-11 3.53861e-11 5e-05 1.46608e-10 
212 1 0.204404 0.0180861 0.00697941 0.00554608 -0.000352554 0.000277005 -2.71291e-12 5.91858e-11 -6.13154e-13 5e-05 1.46608e-10 
213 1 0.210279 0.0180239 0.00705008 0.00543967 0.000201391 0.000114298 7.38516e-10 -2.67004e-10 2.84256e-10 5e-05 1.46608e-10 
214 1 0.209928 0.0166968 0.00749528 0.00603923 -0.000137745 -0.000233079 -2.48214e-11 -1.04788e-10 2.01249e-10 5e-05 1.46608e-10 
215 1 0.198265 0.0182761 0.00690952 0.00567934 -6.52358e-05 8.35447e-05 5.12301e-11 4.77982e-11 -6.46267e-12 5e-05 1.46608e-10 
216 1 0.204365 0.01789 0.00699285 0.00554501 -0.000352441 0.00028022 5.09879e-11 -2.70542e-11 1.20857e-12 5e-05 1.46608e-10 
217 1 0.210303 0.0184609 0.00692192 0.00566528 0.000147083 0.000126673 1.20561e-10 -9.13054e-13 5.10045e-11 5e-05 1.46608e-10 
218 1 0.203688 0.0158361 0.00825422 0.00594618 -0.000287489 0.000436178 1.4976e-10 -7.97749e-11 -6.50962e-11 5e-05 1.46608e-10 
219 1 0.209869 0.0164693 0.00768166 0.00630623 -0.000235164 -0.000155021 -1.3202e-10 -1.6646e-10 -2.35908e-10 5e-05 1.46608e-10 
220 1 0.204479 0.0180205 0.00698787 0.00556012 -0.000362302 0.000278659 2.82226e-11 7.47535e-11 -2.89977e-12 5e-05 1.46608e-10 
221 1 0.264089 0.0174045 0.00711023 0.00591167 0.000475832 -0.000155281 1.46434e-12 1.25052e-13 -4.21374e-14 5e-05 1.46608e-10 
222 1 0.210378 0.0179669 0.00709775 0.00549029 0.000182665 0.000107437 6.80719e-11 -1.39434e-10 2.09264e-11 5e-05 1.46608e-10 
223 1 0.204233 0.0176821 0.00709218 0.00545331 -0.000461083 -6.30331e-05 -3.86816e-11 -1.64987e-11 2.00709e-11 5e-05 1.46608e-10 
224 1 0.0665672 0.0169812 0.00819107 -2.64316e-05 -0.00534154 0.00226079 -2.97296e-13 1.90515e-10 -1.46774e-10 5e-05 1.46608e-10 
225 1 0.210197 0.0171087 0.00731741 0.00590299 0.000113916 0.000146327 5.97914e-11 -2.92676e-10 8.18322e-11 5e-05 1.46608e-10 
226 1 0.204043 0.0172305 0.00735635 0.00546655 -0.000469591 -6.18415e-05 1.63841e-10 -1.87729e-11 1.83327e-11 5e-05 1.46608e-10 
227 1 0.198207 0.0179853 0.00695405 0.00564614 -4.51338e-05 8.00131e-05 9.51743e-12 1.94126e-12 1.83665e-12 5e-05 1.46608e-10 
228 1 0.198036 0.01719 0.0073168 0.00579535 -0.000155259 -5.22141e-05 -4.19278e-12 9.45106e-11 -4.49059e-11 5e-05 1.46608e-10 
229 1 0.204443 0.0182818 0.00696598 0.00554732 -0.000363174 0.000277961 -5.51516e-13 2.53586e-11 -7.35832e-13 5e-05 1.46608e-10 
230 1 0.203853 0.0164687 0.00779587 0.00603993 -0.000562945 -2.79342e-05 4.69391e-11 3.65238e-10 7.31798e-10 5e-05 1.46608e-10 
231 1 0.197996 0.0170189 0.00741242 0.00572075 -0.000145303 -5.66586e-05 1.19665e-10 -1.97097e-11 1.46803e-11 5e-05 1.46608e-10 
232 1 0.204233 0.0181176 0.00696925 0.00551919 -0.000375693 0.000281769 4.69913e-10 -2.35842e-10 3.17593e-11 5e-05 1.46608e-10 
234 1 0.210231 0.0177417 0.00713179 0.00551382 0.000312899 7.23642e-05 -1.30889e-10 -1.86826e-10 7.45163e-12 5e-05 1.46608e-10 
235 1 0.204438 0.0178231 0.00700137 0.00554777 -0.000355893 0.000281829 -3.08229e-11 1.73939e-10 1.58432e-11 5e-05 1.46608e-10 
236 1 0.203809 0.0163026 0.00789837 0.00607938 -0.000363445 0.000322501 5.01025e-11 -6.50974e-10 -1.0669e-09 5e-05 1.46608e-10 
237 1 0.203766 0.0161437 0.00801138 0.00606062 -0.000290442 0.000442225 1.84082e-10 -3.37199e-11 -1.05563e-10 5e-05 1.46608e-10 
239 1 0.19783 0.0163359 0.00779424 0.0062014 -0.000236954 -1.76609e-05 -3.21863e-11 -8.14135e-11 4.62347e-11 5e-05 1.46608e-10 
240 1 0.197852 0.0164211 0.00774657 0.00618664 -0.000233859 -1.91549e-05 2.22283e-11 1.29217e-11 -8.30652e-12 5e-05 1.46608e-10 
241 1 0.197916 0.0166769 0.00760355 0.00569811 -0.000132475 -6.33861e-05 -1.11452e-10 5.22874e-11 -2.42943e-11 5e-05 1.46608e-10 
242 1 0.204101 0.0174857 0.0072095 0.00545845 -0.000468599 -6.24875e-05 -4.85579e-12 -8.50286e-12 -1.05355e-11 5e-05 1.46608e-10 
244 1 0.197873 0.0165064 0.00769891 0.00617206 -0.00022698 -2.26081e-05 -2.08856e-11 3.78912e-11 -1.79809e-11 5e-05 1.46608e-10 
246 1 0.197976 0.0169334 0.00746018 0.00569552 -0.000139366 -5.9529e-05 -1.00705e-10 -6.48208e-11 3.10537e-11 5e-05 1.46608e-10 
247 1 0.204632 0.0183465 0.00696948 0.00551796 -0.000370918 0.000277361 -2.34143e-12 -6.81533e-12 1.15814e-12 5e-05 1.46608e-10 
248 1 0.203874 0.0165533 0.00774705 0.0060187 -0.000572133 -3.94548e-05 8.88053e-11 1.89138e-10 3.64429e-10 5e-05 1.46608e-10 
249 1 0.198246 0.0181791 0.00692436 0.00567175 -5.89971e-05 8.24512e-05 4.82455e-11 3.17836e-11 -4.60496e-12 5e-05 1.46608e-10 
250 1 0.204175 0.0170277 0.0074625 0.00557014 -0.000480602 -6.16911e-05 -5.32654e-12 -3.76798e-11 4.83205e-11 5e-05 1.46608e-10 
251 1 0.209845 0.0163946 0.00774378 0.00627064 -0.00026862 -0.000192268 -2.51079e-10 -2.28617e-10 -8.38674e-10 5e-05 1.46608e-10 
252 1 0.198112 0.0175328 0.00712532 0.0056841 -0.00012975 -6.40857e-05 -6.83367e-12 -5.49508e-11 3.28559e-11 5e-05 1.46608e-10 
253 1 0.198305 0.0184699 0.00687984 0.00567733 -6.86209e-05 8.40395e-05 8.26655e-12 5.1131e-11 -8.3617e-12 5e-05 1.46608e-10 
254 1 0.197956 0.0168479 0.00750798 0.00566781 -0.000131333 -6.33895e-05 1.67397e-10 -2.62338e-11 9.40057e-12 5e-05 1.46608e-10 
255 1 0.204194 0.0179198 0.00698283 0.00554655 -0.000370196 0.000278543 1.14443e-11 2.46577e-11 -8.51485e-12 5e-05 1.46608e-10 
256 1 0.20429 0.017538 0.00716883 0.00545192 -0.000464146 -6.55054e-05 -3.71996e-11 2.88694e-11 1.98028e-11 5e-05 1.46608e-10 
257 1 0.204252 0.0173678 0.00726675 0.00545609 -0.000462696 -6.30944e-05 9.07946e-11 -1.93559e-11 -1.97736e-11 5e-05 1.46608e-10 
258 1 0.204157 0.0173412 0.00728737 0.00546111 -0.000467986 -6.3432e-05 7.53877e-11 -4.66509e-11 -2.62252e-11 5e-05 1.46608e-10 
259 1 0.198131 0.0176186 0.00707763 0.00565303 -0.000108942 -4.42137e-05 -3.02064e-11 -5.91704e-11 1.78704e-11 5e-05 1.46608e-10 