ITEM: TIMESTEP
37000000
ITEM: NUMBER OF ATOMS
271
ITEM: BOX BOUNDS ff ff ff
-0.02 0.43
-0.02 0.06
-0.02 0.07
ITEM: ATOMS id type x y z vx vy vz fx fy fz radius mass 
1 1 0.228252 0.0155052 0.00854012 0.00560173 -0.000141559 -0.000269579 3.83645e-11 3.4387e-11 -2.07308e-10 5e-05 1.46608e-10 
2 1 0.229128 0.0182862 0.00701689 0.00596661 0.000508258 -0.000904856 1.63882e-10 -6.33023e-11 -7.35937e-10 5e-05 1.46608e-10 
3 1 0.223186 0.0177982 0.00704581 0.00586638 0.000748062 -0.000333986 -4.59932e-10 4.93583e-11 -1.69434e-11 5e-05 1.46608e-10 
4 1 0.229206 0.0182285 0.00704041 0.00607724 0.000743062 -0.000750191 -3.15115e-10 1.55215e-10 -1.49943e-10 5e-05 1.46608e-10 
5 1 0.228236 0.0154705 0.00863259 0.00562122 -0.000176965 -0.000256013 1.39821e-10 6.74132e-11 -1.05439e-10 5e-05 1.46608e-10 
6 1 0.234689 0.0171671 0.00732702 0.00621052 -0.000224708 -0.000382054 4.71932e-12 2.36272e-12 -2.97088e-13 5e-05 1.46608e-10 
7 1 0.228329 0.0158017 0.00829041 0.00561054 0.000419288 0.000215441 2.25651e-11 -1.71366e-11 7.97686e-11 5e-05 1.46608e-10 
8 1 0.228216 0.0154355 0.00872411 0.00560458 -0.000158475 -0.000236742 3.34017e-10 3.11737e-11 3.82283e-11 5e-05 1.46608e-10 
9 1 0.234813 0.0177171 0.00712205 0.00572017 -0.000109682 -0.000386558 -1.69897e-12 6.59336e-12 -1.84477e-12 5e-05 1.46608e-10 
10 1 0.228816 0.017776 0.00727847 0.00595739 0.000254523 0.000296939 -4.00377e-10 2.64331e-11 -1.12789e-10 5e-05 1.46608e-10 
11 1 0.228954 0.0179802 0.0071787 0.00612006 0.000261137 -0.000161083 3.69357e-10 1.51284e-10 -1.46139e-09 5e-05 1.46608e-10 
12 1 0.222289 0.0157712 0.00856642 0.00538545 -0.000190945 -0.000703164 -9.21348e-10 2.60386e-10 8.99614e-11 5e-05 1.46608e-10 
13 1 0.228161 0.015331 0.00899995 0.00573791 -0.000174329 -0.000209733 -6.94591e-11 -4.3765e-11 1.55093e-10 5e-05 1.46608e-10 
14 1 0.222964 0.0184493 0.00696056 0.0054671 0.000311175 -0.000249495 2.27164e-10 1.24174e-10 1.716e-11 5e-05 1.46608e-10 
15 1 0.229173 0.0181445 0.00708383 0.00608888 0.000738672 -0.000746917 1.73465e-10 4.48198e-10 -3.36433e-11 5e-05 1.46608e-10 
16 1 0.223059 0.0184816 0.00695384 0.00552153 0.000465647 -5.36892e-05 1.09866e-10 -6.52685e-11 4.18546e-10 5e-05 1.46608e-10 
17 1 0.229274 0.0182921 0.00700475 0.00631859 0.000531248 -0.000652995 -7.63318e-12 -3.36726e-11 5.25847e-10 5e-05 1.46608e-10 
19 1 0.228198 0.0154006 0.00881611 0.00560436 -0.00015221 -0.000227546 2.43017e-11 7.86669e-11 1.01109e-10 5e-05 1.46608e-10 
21 1 0.228773 0.0176023 0.00736746 0.00590981 0.00024572 0.000285518 -8.53012e-11 -3.33475e-10 5.11861e-11 5e-05 1.46608e-10 
22 1 0.228934 0.0178925 0.00722414 0.00611255 0.000270661 2.98788e-05 1.0614e-10 2.14538e-10 -8.13467e-11 5e-05 1.46608e-10 
23 1 0.222531 0.0162946 0.00808336 0.0059412 0.000456247 7.43536e-05 -2.16558e-10 -7.16827e-11 3.0237e-11 5e-05 1.46608e-10 
24 1 0.234891 0.0180848 0.00698538 0.00558668 -8.13518e-05 -0.000386716 3.85736e-12 2.89054e-12 -1.1648e-12 5e-05 1.46608e-10 
25 1 0.228391 0.0160626 0.00815627 0.00572833 0.000443516 0.000179641 -1.20422e-10 1.32456e-10 -6.0767e-11 5e-05 1.46608e-10 
26 1 0.234773 0.0175334 0.00719038 0.00565499 -9.60254e-05 -0.000386533 -1.16505e-11 3.09483e-12 -9.08894e-13 5e-05 1.46608e-10 
27 1 0.223265 0.0181871 0.0069867 0.00564846 0.000549821 -0.000297363 1.85874e-10 -1.10594e-10 1.21962e-11 5e-05 1.46608e-10 
28 1 0.229074 0.0181003 0.00711195 0.00585106 0.000288261 -0.000913521 1.86562e-11 -1.09916e-11 -1.41852e-09 5e-05 1.46608e-10 
29 1 0.22835 0.0158886 0.00824555 0.00557927 0.000427528 0.000170006 -4.34936e-11 3.14415e-11 3.25498e-11 5e-05 1.46608e-10 
30 1 0.228925 0.0180875 0.00721809 0.00628135 0.000250402 9.72132e-05 4.61152e-10 7.41692e-11 -6.95473e-10 5e-05 1.46608e-10 
31 1 0.228411 0.0161498 0.00811148 0.00588269 0.00043454 0.00019035 -4.44776e-11 7.66225e-11 -7.15518e-11 5e-05 1.46608e-10 
32 1 0.228909 0.0173785 0.00747797 0.00578481 0.000117142 -0.000421126 -7.48393e-10 -1.34964e-09 4.84895e-10 5e-05 1.46608e-10 
33 1 0.23471 0.0172586 0.00729286 0.00620001 -0.000221789 -0.000382438 -8.24937e-12 1.52614e-11 -3.17204e-12 5e-05 1.46608e-10 
34 1 0.22831 0.0157143 0.00833514 0.00562473 0.000391859 0.000200965 9.46325e-12 -5.11942e-11 -1.4988e-11 5e-05 1.46608e-10 
35 1 0.229045 0.0177462 0.00728819 0.00619346 0.000176777 -0.000484427 -1.51459e-10 -8.24637e-11 1.03593e-10 5e-05 1.46608e-10 
36 1 0.234873 0.0179927 0.00701955 0.00581909 -0.000129202 -0.00038697 1.76895e-12 3.22627e-12 -8.64422e-13 5e-05 1.46608e-10 
37 1 0.228965 0.0184497 0.00693202 0.00563809 0.00028277 0.000254614 6.34315e-10 6.29109e-11 4.73501e-11 5e-05 1.46608e-10 
38 1 0.229115 0.0187554 0.00684607 0.00554865 0.000307696 0.00032849 -1.44953e-09 1.05707e-09 7.0406e-10 5e-05 1.46608e-10 
39 1 0.23491 0.0181769 0.00695122 0.00563162 -8.97899e-05 -0.000387104 6.80261e-13 1.76648e-12 -3.13306e-13 5e-05 1.46608e-10 
41 1 0.229295 0.0183794 0.00696043 0.00591375 0.000757731 -0.00074841 -2.72355e-10 3.2148e-10 -6.05743e-10 5e-05 1.46608e-10 
42 1 0.321436 0.0173475 0.00552525 4.57319e-16 2.25538e-15 8.4636e-14 -1.18762e-23 1.90639e-24 0 5e-05 1.46608e-10 
44 1 0.22909 0.0181966 0.00706592 0.00585283 0.000429549 -0.0003388 -7.04966e-10 -2.94615e-10 -1.96083e-10 5e-05 1.46608e-10 
45 1 0.234732 0.01735 0.0072587 0.00619114 -0.000218451 -0.000383307 -2.8214e-11 1.89093e-11 -2.30256e-12 5e-05 1.46608e-10 
47 1 0.228272 0.0155685 0.00846546 0.00559015 -4.71685e-05 -0.000224271 8.41176e-11 1.60942e-11 -1.74928e-10 5e-05 1.46608e-10 
48 1 0.229096 0.0186585 0.00683073 0.00563226 0.00026991 0.00026428 2.06896e-10 2.56627e-10 -5.83103e-11 5e-05 1.46608e-10 
50 1 0.228453 0.0163234 0.00802254 0.00593172 0.000431876 0.00019568 1.01694e-11 -1.37098e-10 6.34546e-11 5e-05 1.46608e-10 
51 1 0.228431 0.0162391 0.00807157 0.00593642 0.00043565 0.000193877 -3.22979e-11 -9.68997e-12 -1.35641e-11 5e-05 1.46608e-10 
52 1 0.222211 0.0155337 0.00887856 0.00582592 -0.000239793 -0.000603889 2.61447e-10 -1.33362e-10 1.00913e-10 5e-05 1.46608e-10 
53 1 0.234853 0.0179008 0.00705372 0.0057859 -0.000122766 -0.000386779 2.52225e-12 2.82508e-12 -2.08079e-12 5e-05 1.46608e-10 
54 1 0.229038 0.0184293 0.00700222 0.00580328 0.000319506 0.000260739 -1.62086e-10 -5.1244e-10 1.22676e-10 5e-05 1.46608e-10 
55 1 0.222144 0.0153573 0.00911177 0.00601851 -0.000287171 -0.000572927 5.75684e-11 3.29095e-11 -1.96879e-11 5e-05 1.46608e-10 
56 1 0.228982 0.0185372 0.00688686 0.00564729 0.000280355 0.000264859 3.32746e-10 8.2794e-11 -6.44523e-11 5e-05 1.46608e-10 
57 1 0.234754 0.0174415 0.00722455 0.00583047 -0.000136545 -0.000384896 -1.00207e-10 1.44229e-11 -2.10998e-13 5e-05 1.46608e-10 
59 1 0.228912 0.017805 0.00726757 0.00615958 -1.91379e-05 -0.000396839 -1.28032e-10 5.2184e-10 -4.52748e-10 5e-05 1.46608e-10 
61 1 0.228746 0.0171338 0.00760879 0.00622313 0.000196887 -0.000536451 -7.8055e-10 7.37617e-10 3.59475e-10 5e-05 1.46608e-10 
62 1 0.229251 0.0185386 0.00688472 0.00506962 0.000296701 -0.000465459 -5.70313e-10 5.34957e-10 -2.21497e-10 5e-05 1.46608e-10 
63 1 0.229268 0.0181146 0.00709258 0.0063022 0.00139166 -0.00109309 3.5086e-10 -1.71214e-10 4.90877e-11 5e-05 1.46608e-10 
64 1 0.23493 0.0182732 0.00693257 0.00567462 -2.05163e-05 1.38507e-05 9.94612e-13 -2.4294e-13 -4.60453e-13 5e-05 1.46608e-10 
65 1 0.222477 0.016419 0.00797431 0.00598202 0.000471025 6.83325e-05 -5.97377e-11 -2.04014e-10 8.49079e-11 5e-05 1.46608e-10 
66 1 0.222123 0.0152981 0.0091897 0.00591887 -0.000267357 -0.000579695 3.86319e-11 -2.5141e-12 4.06421e-12 5e-05 1.46608e-10 
67 1 0.229039 0.0183294 0.00700108 0.0056992 0.000291023 0.000205593 1.12423e-10 -5.55252e-10 -6.32838e-10 5e-05 1.46608e-10 
68 1 0.228963 0.0175497 0.00739022 0.00615187 2.62457e-05 -0.000391085 -4.08155e-10 3.82162e-10 2.29703e-10 5e-05 1.46608e-10 
69 1 0.228998 0.0185288 0.0069853 0.00571163 0.000297521 0.000272079 7.62462e-11 -2.69322e-10 3.58874e-11 5e-05 1.46608e-10 
70 1 0.234793 0.0176252 0.00715622 0.00568695 -0.000102817 -0.000386513 8.33707e-13 8.4859e-12 -2.97497e-12 5e-05 1.46608e-10 
71 1 0.222188 0.015475 0.00895625 0.00634536 -0.000352202 -0.000543534 -5.1418e-11 3.93438e-11 -9.43008e-11 5e-05 1.46608e-10 
72 1 0.228919 0.0182214 0.00708774 0.00560167 0.000408348 0.000293619 9.6197e-11 6.34213e-11 9.19118e-11 5e-05 1.46608e-10 
73 1 0.229019 0.0187226 0.0068349 0.00569072 0.000285051 0.000342722 -1.50833e-11 -2.90779e-10 4.18914e-12 5e-05 1.46608e-10 
74 1 0.229077 0.0185709 0.00687577 0.00573477 0.000324624 0.000240308 -1.58332e-10 -3.68832e-10 2.52066e-10 5e-05 1.46608e-10 
76 1 0.22319 0.018253 0.00698011 0.00550629 0.000468717 -0.000279886 -2.75421e-10 1.81243e-10 -1.95483e-11 5e-05 1.46608e-10 
77 1 0.229008 0.0178306 0.0072489 0.00624887 0.00020633 -0.000481313 2.84912e-11 -5.44504e-12 -7.05938e-11 5e-05 1.46608e-10 
78 1 0.222945 0.0183523 0.00697528 0.00555389 0.000305974 -0.000259175 7.789e-13 -1.48766e-11 -1.26991e-11 5e-05 1.46608e-10 
79 1 0.222252 0.0156522 0.00872262 0.00440295 5.71131e-05 -0.000748322 3.43482e-11 -8.94829e-11 4.96994e-11 5e-05 1.46608e-10 
80 1 0.229225 0.0184455 0.00693224 0.00567217 0.000620642 -0.000664868 -4.1596e-10 3.35803e-10 -3.01254e-10 5e-05 1.46608e-10 
81 1 0.223079 0.0185796 0.00694918 0.00560161 0.000441761 9.24894e-05 1.55019e-10 3.41842e-11 -3.48541e-11 5e-05 1.46608e-10 
82 1 0.222308 0.0158319 0.00848931 0.00569949 -2.79835e-05 -0.000491896 -1.54305e-10 -2.10555e-10 6.8663e-11 5e-05 1.46608e-10 
83 1 0.223001 0.0181905 0.00699643 0.00571341 0.000438878 -0.000283722 -2.31204e-10 -6.79769e-11 -4.21374e-13 5e-05 1.46608e-10 
84 1 0.234833 0.017809 0.00708788 0.00575307 -0.000116297 -0.000386651 6.70894e-13 4.04716e-12 -9.1996e-13 5e-05 1.46608e-10 
85 1 0.223206 0.0178956 0.00703098 0.0057443 0.000590436 -0.000305256 2.16287e-10 1.01379e-10 1.69381e-11 5e-05 1.46608e-10 
86 1 0.229322 0.0184731 0.00691256 0.00491833 0.000146495 -0.000383756 -5.63739e-10 5.44361e-10 -2.46766e-10 5e-05 1.46608e-10 
87 1 0.229192 0.018693 0.00683526 0.00539359 0.000314302 5.38915e-05 1.99663e-10 1.27912e-09 -1.73949e-09 5e-05 1.46608e-10 
88 1 0.228632 0.0170165 0.00766792 0.00590914 0.000273274 0.000293687 3.45839e-10 2.01341e-10 -8.61299e-11 5e-05 1.46608e-10 
89 1 0.229174 0.0185979 0.00686033 0.00533096 0.000409632 -0.000478068 8.21326e-10 -3.59035e-09 2.26321e-09 5e-05 1.46608e-10 
90 1 0.228975 0.0180688 0.00713366 0.00571041 0.000340522 -0.000415962 7.28541e-10 -7.03622e-11 -8.88966e-10 5e-05 1.46608e-10 
91 1 0.223246 0.01809 0.00700146 0.00569899 0.000505816 -0.000293267 -2.49831e-10 2.66105e-10 -3.1085e-11 5e-05 1.46608e-10 
92 1 0.229059 0.0184834 0.00692093 0.00568406 0.000318954 0.000227974 -3.77589e-10 -3.76171e-10 2.98989e-10 5e-05 1.46608e-10 
93 1 0.228496 0.0164971 0.00793352 0.00593292 0.000387453 0.00022203 -3.01776e-11 -3.02251e-10 1.65683e-10 5e-05 1.46608e-10 
94 1 0.22896 0.0179864 0.00727835 0.00705687 0.000797241 -0.000199046 8.15068e-11 4.66559e-12 -1.51027e-09 5e-05 1.46608e-10 
95 1 0.228878 0.0177781 0.00735742 0.00673253 -0.000106948 -0.000172013 -1.36157e-10 2.38856e-10 -5.1148e-10 5e-05 1.46608e-10 
96 1 0.228519 0.0165839 0.00788915 0.00593149 0.000359553 0.000252699 -2.08878e-11 -3.0045e-10 1.43582e-10 5e-05 1.46608e-10 
97 1 0.222593 0.0165195 0.00789434 0.00602106 0.000438667 9.5789e-05 -5.1344e-11 9.13129e-11 -1.34177e-10 5e-05 1.46608e-10 
98 1 0.229055 0.0180126 0.0071563 0.00587134 0.000485107 -0.000593998 3.91468e-10 -1.98897e-10 -6.25023e-10 5e-05 1.46608e-10 
99 1 0.2227 0.016894 0.00757987 0.00618826 0.000480854 7.35804e-05 2.53998e-11 -8.572e-11 5.21015e-11 5e-05 1.46608e-10 
100 1 0.229154 0.0185106 0.00690471 0.00554462 0.000417754 -0.000766489 -1.16308e-09 -8.34468e-10 1.24491e-10 5e-05 1.46608e-10 
101 1 0.22227 0.0157118 0.00864447 0.0049008 -5.03435e-05 -0.000714397 2.75239e-11 -7.82618e-11 -7.33962e-12 5e-05 1.46608e-10 
102 1 0.0643568 0.0187248 0.00531097 4.32983e-15 1.04586e-14 8.29616e-14 -2.65624e-21 4.37268e-22 7.63074e-23 5e-05 1.46608e-10 
103 1 0.24257 0.0191927 0.00520306 -1.01195e-22 -1.27651e-22 1.23839e-22 0 0 0 5e-05 1.46608e-10 
104 1 0.222901 0.0177061 0.00707005 0.00596481 0.00034841 -0.000275249 -3.4284e-10 -1.17782e-11 -4.06785e-12 5e-05 1.46608e-10 
105 1 0.223321 0.0180241 0.00700806 0.00572845 0.000480268 -0.000290235 -2.34251e-10 -3.37114e-11 1.05322e-11 5e-05 1.46608e-10 
106 1 0.223145 0.0176035 0.00707541 0.00589977 0.000437613 -0.000294329 2.69051e-11 2.43245e-11 7.36457e-12 5e-05 1.46608e-10 
107 1 0.223124 0.0175065 0.00709019 0.00589424 0.000391425 -0.000284038 2.78641e-10 4.22467e-11 -9.00557e-11 5e-05 1.46608e-10 
108 1 0.229051 0.0186605 0.00691995 0.00569206 0.000283735 0.000287408 2.28679e-10 -1.38069e-10 8.28899e-11 5e-05 1.46608e-10 
109 1 0.229257 0.0180257 0.00713709 0.0063522 0.00134747 -0.00106484 -5.39076e-10 4.66362e-10 -1.78299e-10 5e-05 1.46608e-10 
110 1 0.228542 0.0166729 0.00785024 0.00593084 0.000326946 0.000267843 6.41518e-11 -2.56408e-10 9.12584e-11 5e-05 1.46608e-10 
111 1 0.228886 0.0176542 0.00734357 0.00606556 0.000139974 -0.000448625 -7.15993e-11 1.83523e-10 -1.95154e-10 5e-05 1.46608e-10 
112 1 0.222962 0.0179966 0.00702587 0.00563141 0.000443069 -0.000280962 -1.1924e-10 -2.51335e-11 -6.69934e-12 5e-05 1.46608e-10 
113 1 0.222562 0.0167171 0.00772149 0.00609258 0.000468501 7.62206e-05 2.12289e-10 3.81302e-11 3.29794e-11 5e-05 1.46608e-10 
114 1 0.222925 0.0182554 0.00699 0.0057361 0.000465695 -0.000288073 -1.44305e-10 -2.89853e-10 4.47845e-11 5e-05 1.46608e-10 
115 1 0.229162 0.0180556 0.00712833 0.00608327 0.000688517 -0.000700199 -5.07116e-10 4.0528e-10 -4.18123e-10 5e-05 1.46608e-10 
116 1 0.228958 0.0184149 0.00706142 0.00559514 0.000602498 5.3322e-05 1.36446e-10 -3.70955e-12 -2.1749e-11 5e-05 1.46608e-10 
117 1 0.229057 0.018915 0.00687365 0.00566995 0.000342511 0.00035502 3.48461e-11 3.91495e-10 2.12654e-10 5e-05 1.46608e-10 
118 1 0.222763 0.0174797 0.00710799 0.0059374 0.000425406 -0.000292886 1.14429e-11 1.38158e-10 -2.13832e-10 5e-05 1.46608e-10 
119 1 0.229121 0.0178779 0.00721853 0.006519 0.000413572 -0.000599743 -6.25837e-11 4.43621e-10 5.99894e-10 5e-05 1.46608e-10 
120 1 0.228367 0.015977 0.00820199 0.00559211 0.00042835 0.000126166 -1.57089e-10 1.07597e-10 -3.27402e-11 5e-05 1.46608e-10 
121 1 0.228291 0.0156355 0.00839352 0.00563037 0.000219508 2.15027e-06 -3.40833e-11 -5.34252e-12 -7.70359e-11 5e-05 1.46608e-10 
122 1 0.228842 0.0174796 0.00743243 0.00602676 0.000217473 -0.00039987 -2.16549e-10 2.0228e-09 -1.04804e-09 5e-05 1.46608e-10 
123 1 0.222727 0.0173174 0.00721696 0.00583029 0.000551601 -2.09089e-05 2.05899e-10 1.61775e-10 1.10998e-10 5e-05 1.46608e-10 
124 1 0.228864 0.0175672 0.00738782 0.00605709 0.000231488 -0.000483535 -1.21986e-09 1.17967e-09 1.13876e-09 5e-05 1.46608e-10 
125 1 0.229134 0.0188516 0.00686545 0.00560639 0.000257598 0.000341332 -4.4704e-10 6.643e-10 8.34806e-12 5e-05 1.46608e-10 
126 1 0.228768 0.017221 0.00756451 0.00604302 0.000308593 -0.000504091 2.71387e-10 -3.18454e-11 7.54448e-11 5e-05 1.46608e-10 
127 1 0.22334 0.0181213 0.00699329 0.00567685 0.000520557 -0.000293843 7.56023e-10 -1.5485e-10 -7.88362e-12 5e-05 1.46608e-10 
128 1 0.22881 0.0173953 0.0074759 0.00583504 0.000119816 -0.000711296 -1.86807e-10 -1.69624e-09 -1.22678e-09 5e-05 1.46608e-10 
129 1 0.228879 0.018037 0.00714467 0.00582969 0.000332507 0.000270896 2.60804e-10 3.29185e-10 -4.25042e-10 5e-05 1.46608e-10 
131 1 0.223165 0.0177007 0.00706063 0.00589584 0.000662151 -0.000323075 -6.53668e-10 1.23696e-10 1.23469e-11 5e-05 1.46608e-10 
132 1 0.228995 0.0181562 0.00708934 0.00567234 0.000400172 -0.00040745 -2.04497e-10 4.712e-10 -1.68117e-09 5e-05 1.46608e-10 
133 1 0.228838 0.0178629 0.00723398 0.00596071 0.000237494 0.000302189 -3.47784e-10 2.03176e-10 -2.37764e-10 5e-05 1.46608e-10 
134 1 0.228783 0.0173099 0.00751976 0.00558286 0.000353184 -0.000537877 -5.66863e-10 5.2627e-10 -2.24546e-10 5e-05 1.46608e-10 
135 1 0.22818 0.0153658 0.00890805 0.00567844 -0.000167356 -0.000216709 -2.65742e-10 1.99133e-11 9.26473e-11 5e-05 1.46608e-10 
136 1 0.222983 0.0185466 0.00694818 0.00559212 0.000319219 9.23248e-05 1.66987e-11 2.34657e-10 -1.54647e-11 5e-05 1.46608e-10 
137 1 0.228477 0.0164113 0.00798101 0.00593464 0.00041355 0.000205126 -1.56556e-11 -2.5052e-10 1.40146e-10 5e-05 1.46608e-10 
138 1 0.229005 0.0182413 0.00714327 0.00559284 0.000288684 0.0002056 8.06641e-11 -5.22906e-12 9.69432e-10 5e-05 1.46608e-10 
140 1 0.229033 0.0179232 0.00720171 0.00635844 0.000295341 -0.000449879 -2.49177e-10 -2.82926e-12 -2.57581e-10 5e-05 1.46608e-10 
141 1 0.222981 0.0180935 0.00701115 0.00568215 0.000454129 -0.000285205 -7.91185e-11 1.92695e-10 -4.1767e-11 5e-05 1.46608e-10 
142 1 0.222709 0.017241 0.00728147 0.00576803 0.000557199 -1.38704e-05 1.77906e-10 -1.23189e-10 -2.44621e-10 5e-05 1.46608e-10 
143 1 0.222165 0.0154163 0.00903393 0.00623308 -0.000330923 -0.000552322 1.66857e-11 5.42048e-11 -7.51534e-11 5e-05 1.46608e-10 
144 1 0.222825 0.017771 0.00706364 0.00592362 0.000322946 -0.00025932 -1.29976e-12 4.00884e-10 -1.96035e-10 5e-05 1.46608e-10 
147 1 0.22304 0.0183844 0.00696704 0.00552286 0.000458144 -0.000235225 -2.5164e-12 -1.00287e-10 5.18281e-10 5e-05 1.46608e-10 
148 1 0.222797 0.0169225 0.00756293 0.00662936 0.000836636 -0.000198819 1.35603e-10 6.73723e-11 -6.68303e-11 5e-05 1.46608e-10 
149 1 0.22865 0.0171077 0.00763122 0.00591712 0.000298853 0.000303467 -2.33188e-10 3.25119e-10 -3.126e-10 5e-05 1.46608e-10 
150 1 0.0100679 0.0201683 0.00551526 8.38373e-15 1.24947e-15 -8.48744e-14 -3.77401e-24 -4.37178e-23 -1.03398e-24 5e-05 1.46608e-10 
151 1 0.222668 0.0170913 0.00740726 0.00626815 0.000480671 7.20915e-05 3.95239e-11 8.48282e-11 -2.07724e-11 5e-05 1.46608e-10 
153 1 0.223023 0.0187428 0.00694428 0.00565118 0.000431966 9.48194e-05 -2.81332e-11 3.26589e-11 3.72527e-12 5e-05 1.46608e-10 
154 1 0.222784 0.0175764 0.00709325 0.00592202 0.000426016 -0.000311938 -3.27407e-10 -1.2809e-10 6.38233e-11 5e-05 1.46608e-10 
155 1 0.222993 0.0173268 0.00722982 0.00561608 0.000484626 2.22236e-05 -2.07917e-10 3.83595e-11 5.80285e-11 5e-05 1.46608e-10 
156 1 0.222942 0.0178997 0.00704059 0.0057107 0.000413455 -0.000280413 2.47431e-10 -1.28297e-10 -9.51285e-12 5e-05 1.46608e-10 
157 1 0.0219312 0.0187687 0.00551176 -3.84119e-14 8.16587e-14 2.9588e-13 -2.01263e-22 -5.1797e-22 1.04845e-22 5e-05 1.46608e-10 
158 1 0.223171 0.0181558 0.00699487 0.00567912 0.000493443 -0.000290268 -2.63679e-10 3.40884e-10 -3.87736e-11 5e-05 1.46608e-10 
159 1 0.22927 0.0186298 0.00684259 0.0052793 0.000113385 6.52225e-05 -7.26863e-10 2.46172e-10 3.05936e-10 5e-05 1.46608e-10 
160 1 0.222805 0.0176742 0.00707837 0.00587105 0.000213604 -0.00026785 1.48249e-10 5.02055e-10 -1.04679e-10 5e-05 1.46608e-10 
162 1 0.223098 0.0186776 0.00694723 0.00563711 0.000425079 9.59048e-05 4.67721e-12 7.76769e-11 4.04983e-12 5e-05 1.46608e-10 
164 1 0.222657 0.0167441 0.00770569 0.00611836 0.000466342 7.84235e-05 2.36585e-10 1.43573e-10 -1.05158e-10 5e-05 1.46608e-10 
165 1 0.222996 0.0177365 0.00706201 0.00591516 0.000556843 -0.000308139 1.4217e-10 -1.63391e-10 -2.5996e-13 5e-05 1.46608e-10 
166 1 0.229 0.0186248 0.00684171 0.00569398 0.000284312 0.000288832 -1.95423e-11 -2.78859e-10 2.76495e-11 5e-05 1.46608e-10 
168 1 0.222721 0.0169691 0.00751678 0.00636529 0.000596139 -1.51094e-05 -4.01701e-10 -8.98211e-11 2.61179e-11 5e-05 1.46608e-10 
169 1 0.223154 0.0185138 0.00695214 0.00554044 0.000359073 9.11353e-05 2.13796e-10 1.44188e-10 2.71057e-11 5e-05 1.46608e-10 
170 1 0.223071 0.0176701 0.0070687 0.00589476 0.000494748 -0.000299473 1.12381e-10 1.96676e-11 1.60041e-11 5e-05 1.46608e-10 
171 1 0.228935 0.0181778 0.00717635 0.0055922 0.00042309 0.000316441 1.49448e-10 -9.69964e-11 -1.98955e-10 5e-05 1.46608e-10 
172 1 0.222976 0.0176397 0.00707675 0.00593733 0.000337945 -0.000274875 2.71817e-10 -6.64637e-11 2.28896e-11 5e-05 1.46608e-10 
173 1 0.2292 0.0183536 0.00697913 0.00606105 0.000311265 -0.000490832 -6.94314e-12 -1.91951e-10 -4.77015e-10 5e-05 1.46608e-10 
174 1 0.223011 0.017402 0.00716641 0.0057952 0.000460413 5.78642e-05 -4.89088e-10 2.44614e-10 -3.73775e-10 5e-05 1.46608e-10 
175 1 0.216689 0.0171897 0.00740039 0.00607316 -0.000350214 -0.000143686 -2.79858e-10 1.13763e-10 -3.61978e-11 5e-05 1.46608e-10 
177 1 0.222839 0.0170723 0.00743711 0.00675896 0.00088984 -0.000235771 1.41244e-10 -8.6337e-11 1.02624e-10 5e-05 1.46608e-10 
178 1 0.222764 0.0171188 0.00739105 0.00644429 0.000614516 -2.12141e-05 8.07607e-11 3.32837e-11 4.4624e-11 5e-05 1.46608e-10 
179 1 0.222841 0.0174213 0.00714047 0.00574142 0.000439726 -0.000178874 -6.475e-10 2.18822e-10 3.15506e-10 5e-05 1.46608e-10 
181 1 0.223115 0.0183187 0.00697354 0.00561009 0.000597221 -0.000302204 -2.40363e-10 2.88852e-10 5.02566e-12 5e-05 1.46608e-10 
182 1 0.22886 0.0179498 0.00718948 0.0059722 0.000275281 0.00029594 9.93585e-11 2.76636e-10 -1.86552e-10 5e-05 1.46608e-10 
183 1 0.22305 0.0175732 0.00708346 0.00593596 0.000387951 -0.000274561 2.88103e-10 -3.54735e-10 6.20736e-11 5e-05 1.46608e-10 
184 1 0.228867 0.0179412 0.00728882 0.00596014 0.000176112 0.000305075 2.89486e-10 1.78791e-10 -1.49129e-10 5e-05 1.46608e-10 
186 1 0.222646 0.0170164 0.00747011 0.00622857 0.000480349 7.36682e-05 -3.64548e-10 -2.91955e-11 -2.73093e-11 5e-05 1.46608e-10 
187 1 0.228751 0.0175154 0.00741196 0.00596553 0.000249382 0.000309255 -5.20661e-10 -6.2749e-11 -1.43205e-10 5e-05 1.46608e-10 
188 1 0.228941 0.0174628 0.00743445 0.00603071 7.83727e-05 -0.00040279 -6.31654e-10 -7.9618e-10 3.97277e-10 5e-05 1.46608e-10 
189 1 0.229005 0.0182452 0.00704335 0.00561992 0.000292274 0.000237584 -6.71041e-10 -7.27114e-11 1.50032e-10 5e-05 1.46608e-10 
190 1 0.21696 0.0184315 0.00696571 0.00552469 9.45277e-05 -0.000577439 -1.64228e-10 -1.27943e-10 3.57086e-11 5e-05 1.46608e-10 
191 1 0.228985 0.0176365 0.00734603 0.00625088 -2.37267e-05 -0.000360973 7.02392e-10 5.94097e-10 -1.59126e-10 5e-05 1.46608e-10 
192 1 0.222955 0.0175433 0.00709407 0.00594317 0.000412014 -8.47791e-05 -9.24537e-11 3.29343e-10 -6.8474e-11 5e-05 1.46608e-10 
193 1 0.229141 0.0179653 0.0071742 0.00606123 0.000764959 -0.000755875 4.73737e-10 -3.91751e-10 1.31148e-10 5e-05 1.46608e-10 
194 1 0.161461 0.0182058 0.00533758 1.49568e-15 -1.10218e-14 8.66678e-14 1.70851e-21 1.8185e-22 -6.20385e-24 5e-05 1.46608e-10 
195 1 0.223151 0.0180588 0.0070096 0.00574458 0.000468172 -0.000288621 2.53862e-10 -3.40191e-11 -1.24737e-11 5e-05 1.46608e-10 
196 1 0.222552 0.0163697 0.00802027 0.00597007 0.000442365 8.86081e-05 -1.53526e-10 -1.19092e-10 8.82002e-11 5e-05 1.46608e-10 
197 1 0.216752 0.0174134 0.00721102 0.00576282 -0.000307868 -0.000160344 1.69419e-10 9.73081e-11 -1.10605e-10 5e-05 1.46608e-10 
198 1 0.223003 0.0186447 0.00694623 0.00561833 0.000448747 9.52331e-05 7.59997e-11 7.98355e-11 1.29712e-11 5e-05 1.46608e-10 
199 1 0.222905 0.0181584 0.00700473 0.00568793 0.000342577 -0.00026887 3.75098e-11 -1.75723e-12 1.09376e-11 5e-05 1.46608e-10 
201 1 0.22254 0.0166423 0.00778433 0.00606889 0.000467642 7.53569e-05 1.66997e-10 7.27994e-11 -3.82073e-11 5e-05 1.46608e-10 
202 1 0.223036 0.0179307 0.00703247 0.00567027 0.00054063 -0.000297421 2.64822e-10 1.45901e-10 -4.41471e-11 5e-05 1.46608e-10 
203 1 0.228561 0.0167574 0.00780021 0.0059257 0.000296781 0.000270278 -6.3116e-11 -1.45467e-10 5.63042e-11 5e-05 1.46608e-10 
204 1 0.222232 0.0155928 0.00880067 0.00473156 -1.12694e-05 -0.000720181 -3.9072e-10 -9.36294e-12 9.4754e-11 5e-05 1.46608e-10 
205 1 0.223111 0.0178645 0.00703912 0.005777 0.000627116 -0.000314248 1.81016e-10 -6.01742e-10 -6.69281e-12 5e-05 1.46608e-10 
206 1 0.222614 0.0165945 0.00783141 0.00604326 0.000451153 8.6229e-05 2.99913e-10 9.46591e-11 -4.61115e-11 5e-05 1.46608e-10 
207 1 0.222742 0.017044 0.00745392 0.00641624 0.000615282 -2.70718e-05 1.16125e-10 1.9887e-10 -1.18983e-10 5e-05 1.46608e-10 
208 1 0.222922 0.0178029 0.00705532 0.00591202 0.000362094 -0.000277741 -2.85738e-10 2.45583e-11 1.96421e-11 5e-05 1.46608e-10 
209 1 0.219626 0.017148 0.00722504 0.00617784 -0.000984303 0.000372018 1.27853e-13 -1.91951e-14 2.41354e-14 5e-05 1.46608e-10 
210 1 0.228794 0.0176892 0.00732297 0.00593662 0.00025601 0.000290622 -3.24451e-10 -1.8019e-10 3.03806e-11 5e-05 1.46608e-10 
211 1 0.228739 0.0174626 0.00749603 0.00608518 0.000308994 0.000374902 1.55557e-11 2.83722e-11 -1.62013e-10 5e-05 1.46608e-10 
212 1 0.223056 0.0180277 0.00701773 0.00569243 0.000513857 -0.000292626 -1.5472e-10 -4.63546e-11 4.97572e-11 5e-05 1.46608e-10 
213 1 0.228948 0.0183622 0.00697715 0.00569453 0.000291354 0.000254348 2.36928e-10 6.48867e-11 1.95314e-10 5e-05 1.46608e-10 
214 1 0.22867 0.0171903 0.00757845 0.00595486 0.000306792 0.000272814 7.68849e-11 2.12632e-10 -4.74979e-10 5e-05 1.46608e-10 
215 1 0.21694 0.0183339 0.00695609 0.00553029 1.01338e-05 0.000207087 -1.04729e-10 -8.75137e-11 3.72022e-11 5e-05 1.46608e-10 
216 1 0.223016 0.0178335 0.00704725 0.00583375 0.000532523 -0.000302498 -1.14645e-10 -1.75265e-10 7.74508e-11 5e-05 1.46608e-10 
217 1 0.229038 0.0188188 0.00685432 0.00567889 0.000319469 0.00036385 -7.40071e-10 -2.19576e-11 6.50758e-10 5e-05 1.46608e-10 
218 1 0.222331 0.0158968 0.00841683 0.00586194 0.00033793 -8.38152e-05 2.84579e-10 -4.86351e-10 -1.04835e-10 5e-05 1.46608e-10 
219 1 0.228605 0.0169326 0.00771511 0.00590988 0.000260645 0.000286678 2.78833e-10 1.01745e-10 -1.20794e-10 5e-05 1.46608e-10 
220 1 0.223131 0.0179618 0.00702433 0.00570564 0.000530771 -0.000297454 4.79507e-11 2.31786e-10 -5.01511e-11 5e-05 1.46608e-10 
221 1 0.282627 0.0169301 0.00737036 0.00620871 -8.82255e-05 -0.000110015 1.6941e-12 2.9608e-12 -1.13546e-12 5e-05 1.46608e-10 
222 1 0.229128 0.0184189 0.00695351 0.00570427 8.65962e-05 -0.00019241 -2.80046e-10 -1.29199e-10 -2.15144e-11 5e-05 1.46608e-10 
223 1 0.222881 0.0176097 0.00708707 0.00594862 0.000360284 -0.000274621 -1.2292e-10 2.12102e-10 5.46199e-10 5e-05 1.46608e-10 
224 1 0.0350795 0.0171092 0.00810984 -0.00809872 -0.00742419 0.00490835 -1.6689e-10 1.02478e-10 -5.44421e-11 5e-05 1.46608e-10 
225 1 0.22895 0.017723 0.0073102 0.00629248 -2.50657e-05 -0.000429905 -2.12786e-10 5.16185e-10 -1.34372e-10 5e-05 1.46608e-10 
226 1 0.222689 0.0171661 0.00734441 0.006289 0.000492805 8.08131e-05 1.1917e-10 1.84203e-10 3.58769e-11 5e-05 1.46608e-10 
227 1 0.216882 0.0180423 0.00699512 0.00561247 -1.33877e-05 0.000214172 -7.20122e-11 -7.36349e-11 1.56757e-11 5e-05 1.46608e-10 
228 1 0.21671 0.0172642 0.00733726 0.00608295 -0.00035568 -0.000139867 5.33777e-11 1.23514e-10 -3.29958e-11 5e-05 1.46608e-10 
229 1 0.223096 0.0182216 0.00698828 0.00556729 0.000346388 -0.000265014 -2.46071e-10 -6.23397e-11 2.25693e-11 5e-05 1.46608e-10 
230 1 0.222498 0.0164926 0.00791003 0.00601019 0.000469778 6.87696e-05 -2.83564e-11 -7.54721e-11 7.35851e-11 5e-05 1.46608e-10 
231 1 0.216667 0.0171151 0.00746353 0.0060152 -0.000334543 -0.000153098 1.41946e-10 -8.5099e-11 1.67046e-11 5e-05 1.46608e-10 
232 1 0.222885 0.0180615 0.00701946 0.00566753 0.000329927 -0.00026453 5.14177e-11 -8.1815e-11 -2.98297e-12 5e-05 1.46608e-10 
234 1 0.228899 0.0181242 0.00709984 0.00552138 0.000414581 0.000232411 1.09474e-09 1.7649e-10 -2.93739e-10 5e-05 1.46608e-10 
235 1 0.223091 0.0177671 0.00705393 0.00589955 0.000616655 -0.000317604 4.33018e-10 -1.56884e-10 2.83278e-11 5e-05 1.46608e-10 
236 1 0.222457 0.0163446 0.00803811 0.00595262 0.000468957 6.81341e-05 -2.88175e-10 -1.98344e-10 8.27683e-11 5e-05 1.46608e-10 
237 1 0.222413 0.0161941 0.00816221 0.00589411 0.000452453 6.33173e-05 -1.49405e-10 -2.1832e-10 2.00374e-10 5e-05 1.46608e-10 
239 1 0.216497 0.0165162 0.00796583 0.00581826 -0.000257026 -0.000117758 -2.75734e-10 3.78455e-11 6.8632e-12 5e-05 1.46608e-10 
240 1 0.216518 0.0165914 0.00790351 0.00585084 -0.00027168 -0.000107279 2.63626e-10 5.66278e-11 -4.57112e-11 5e-05 1.46608e-10 
241 1 0.216582 0.0168168 0.00771608 0.00588755 -0.000279476 -0.000114242 5.79828e-11 -1.64496e-10 5.7847e-11 5e-05 1.46608e-10 
242 1 0.222744 0.0173927 0.00715342 0.0058709 0.000557106 -2.79423e-05 1.56861e-11 -5.74277e-11 2.8087e-10 5e-05 1.46608e-10 
244 1 0.21654 0.0166667 0.00784119 0.00586632 -0.000278011 -0.000102701 2.65914e-10 -1.60992e-10 1.41041e-10 5e-05 1.46608e-10 
246 1 0.216646 0.0170405 0.00752666 0.00598898 -0.000326636 -0.000157981 6.79869e-11 -1.05543e-10 7.87367e-11 5e-05 1.46608e-10 
247 1 0.223285 0.0182845 0.00697192 0.00545343 0.000620201 -0.000299797 -3.92722e-10 9.91071e-11 2.95607e-12 5e-05 1.46608e-10 
248 1 0.222519 0.0165674 0.00784722 0.00604952 0.000467829 7.31108e-05 -5.78176e-11 7.16137e-11 -2.63062e-11 5e-05 1.46608e-10 
249 1 0.216921 0.0182367 0.00696911 0.00569983 -2.07581e-05 0.000218265 -1.3208e-10 2.5034e-10 -9.69929e-12 5e-05 1.46608e-10 
250 1 0.222818 0.0169974 0.00750005 0.00672928 0.000895074 -0.000243221 -3.94094e-11 5.82946e-11 -5.70978e-11 5e-05 1.46608e-10 
251 1 0.228589 0.016843 0.0077568 0.00592654 0.000268791 0.000280633 -8.77789e-11 -2.08754e-11 -3.22549e-11 5e-05 1.46608e-10 
252 1 0.216785 0.0175672 0.00708741 0.00558582 -6.62174e-05 0.000115046 9.46995e-11 1.87586e-10 -7.35071e-11 5e-05 1.46608e-10 
253 1 0.216979 0.0185285 0.00698076 0.00552033 9.83441e-05 -0.000570194 -2.5116e-11 -1.43844e-10 -4.62757e-11 5e-05 1.46608e-10 
254 1 0.216625 0.0169659 0.00758979 0.00597752 -0.000321735 -0.000159411 -1.54379e-10 -1.12429e-10 4.34656e-11 5e-05 1.46608e-10 
255 1 0.222846 0.0178677 0.0070489 0.00574537 0.000331006 -0.000262538 3.53559e-10 2.32002e-10 -5.01811e-11 5e-05 1.46608e-10 
256 1 0.222935 0.0174484 0.00712041 0.00580998 0.000400312 9.09616e-05 -5.81685e-10 -5.15953e-11 3.4576e-10 5e-05 1.46608e-10 
257 1 0.222898 0.0172978 0.0072474 0.00576164 0.00054152 -1.63678e-05 1.52802e-10 -9.26264e-11 -6.32731e-11 5e-05 1.46608e-10 
258 1 0.222804 0.0172691 0.00726483 0.00575484 0.000682172 0.000114423 2.22324e-10 -7.38886e-11 -1.5742e-11 5e-05 1.46608e-10 
259 1 0.216802 0.0176569 0.00704664 0.00559863 -2.31508e-05 0.000213323 -3.67996e-11 1.53245e-10 -6.61185e-11 5e-05 1.46608e-10 
261 1 0.222604 0.0168668 0.0075958 0.00612874 0.00047377 7.33788e-05 3.92162e-11 -1.32867e-10 2.72371e-11 5e-05 1.46608e-10 