ITEM: TIMESTEP
18600000
ITEM: NUMBER OF ATOMS
287
ITEM: BOX BOUNDS ff ff ff
-0.02 0.43
-0.02 0.06
-0.02 0.07
ITEM: ATOMS id type x y z vx vy vz fx fy fz radius mass 
1 1 0.121283 0.0163097 0.00783903 0.00597008 5.32725e-05 -0.000453923 2.2125e-10 -2.03884e-10 2.2433e-10 5e-05 1.46608e-10 
2 1 0.121743 0.0175538 0.00718866 0.00560698 0.000294623 -0.000308042 -1.70408e-11 1.23152e-11 -1.65114e-12 5e-05 1.46608e-10 
3 1 0.114993 0.0157511 0.00857637 0.00578567 -0.000295397 0.000754908 -8.61512e-12 -1.65998e-11 1.46504e-11 5e-05 1.46608e-10 
4 1 0.121591 0.017682 0.0071675 0.00562152 0.000316581 -0.000314426 -3.66347e-11 6.27792e-11 -9.44497e-12 5e-05 1.46608e-10 
5 1 0.121166 0.0162284 0.0079395 0.00618995 -8.59147e-05 -0.000312154 -1.08678e-10 1.38015e-10 -1.55824e-10 5e-05 1.46608e-10 
6 1 0.127266 0.0165846 0.00760575 0.00561149 -0.000385733 0.000883299 -9.71859e-11 1.37623e-10 -2.77913e-10 5e-05 1.46608e-10 
7 1 0.121341 0.0168859 0.00736791 0.00571724 0.000308403 -0.000129805 -2.44743e-10 -3.16929e-11 -2.5157e-10 5e-05 1.46608e-10 
8 1 0.121058 0.01591 0.00830973 0.00609126 -0.000100476 -0.00028924 2.99274e-10 -1.79151e-10 1.8768e-10 5e-05 1.46608e-10 
9 1 0.12752 0.0177281 0.00708167 0.00538727 -0.000830019 0.00055998 -4.44203e-10 -1.21137e-11 5.55781e-10 5e-05 1.46608e-10 
10 1 0.121282 0.0166279 0.00750867 0.00594641 0.00031243 -1.90317e-05 6.37577e-11 1.80438e-10 -1.05879e-10 5e-05 1.46608e-10 
11 1 0.121812 0.0177373 0.00714414 0.00562757 0.000290277 -0.000307852 -6.715e-11 1.74469e-10 -4.39164e-11 5e-05 1.46608e-10 
12 1 0.11521 0.0164757 0.00792277 0.00578907 -0.000324912 0.000783338 -2.0965e-11 -5.61405e-11 2.26711e-11 5e-05 1.46608e-10 
13 1 0.121144 0.0161647 0.00801354 0.0061448 -8.67763e-05 -0.000307582 -8.48202e-11 1.69875e-10 -1.85315e-10 5e-05 1.46608e-10 
14 1 0.114907 0.0154629 0.00883633 0.00578628 -0.000272938 0.000733945 2.90076e-12 3.12181e-11 -2.9227e-11 5e-05 1.46608e-10 
15 1 0.121476 0.0171038 0.00730193 0.00576264 0.000276012 -0.000311784 -1.64021e-12 -5.24554e-11 -1.92231e-11 5e-05 1.46608e-10 
16 1 0.114885 0.0153904 0.0089017 0.00578635 -0.000268677 0.000730102 1.87239e-11 5.14696e-11 -4.67676e-11 5e-05 1.46608e-10 
17 1 0.121263 0.0165523 0.00757149 0.00588638 0.000234318 -0.000129313 3.33717e-10 2.78324e-11 -1.25673e-10 5e-05 1.46608e-10 
18 1 0.127403 0.017165 0.00723922 0.00554918 -0.000816822 0.000446027 -2.05341e-10 1.37879e-10 -4.7033e-11 5e-05 1.46608e-10 
19 1 0.121123 0.016101 0.00808758 0.00616169 -9.37379e-05 -0.000300715 -8.30234e-11 5.11813e-11 -5.62042e-11 5e-05 1.46608e-10 
21 1 0.121262 0.0162458 0.00791321 0.00631764 -1.63393e-05 -0.000402261 -2.09166e-10 -1.39924e-10 1.40337e-10 5e-05 1.46608e-10 
22 1 0.121381 0.0170739 0.00731301 0.00576869 0.000263579 -0.000284847 8.94496e-11 -1.21676e-10 -1.06871e-10 5e-05 1.46608e-10 
23 1 0.115414 0.0168684 0.0075797 0.00533686 -0.000401522 0.000679218 2.79532e-11 2.33192e-10 1.05342e-10 5e-05 1.46608e-10 
24 1 0.127462 0.0174409 0.00714573 0.00541679 -0.000874569 0.00026146 -2.21065e-10 6.70327e-11 -1.34216e-10 5e-05 1.46608e-10 
25 1 0.121321 0.0167972 0.00740973 0.00566393 0.000355735 -5.26372e-05 -9.86576e-11 3.28688e-11 -1.1864e-10 5e-05 1.46608e-10 
26 1 0.127346 0.0169151 0.00739508 0.00537619 -0.000754364 0.000400887 3.44618e-10 -4.18394e-10 2.67608e-10 5e-05 1.46608e-10 
27 1 0.115297 0.0167656 0.00766127 0.00564889 -0.000339501 0.000778452 -1.59266e-12 -2.65394e-11 -3.81097e-11 5e-05 1.46608e-10 
28 1 0.121576 0.0175814 0.0071896 0.00561104 0.000316163 -0.000312944 -9.54783e-12 1.00964e-11 4.69477e-13 5e-05 1.46608e-10 
29 1 0.121101 0.0160374 0.00816163 0.0061372 -9.30291e-05 -0.000299635 -3.22211e-10 -7.14363e-11 8.08656e-11 5e-05 1.46608e-10 
30 1 0.121631 0.0174207 0.00722355 0.00560049 0.000308721 -0.000311077 -1.07726e-10 -1.59326e-12 9.31694e-12 5e-05 1.46608e-10 
31 1 0.121361 0.0169793 0.00733843 0.00575179 0.000281005 -0.000236421 -6.48479e-11 -9.01817e-11 -2.19213e-10 5e-05 1.46608e-10 
32 1 0.121456 0.0170085 0.00732436 0.00578547 0.000266577 -0.000319196 9.2522e-11 -3.40065e-11 -7.0277e-11 5e-05 1.46608e-10 
33 1 0.127286 0.0166657 0.00755068 0.00561943 -0.000747166 0.000402003 1.97641e-10 3.49869e-10 -1.74141e-10 5e-05 1.46608e-10 
34 1 0.121245 0.0164854 0.00764353 0.00574227 0.000100798 -0.000285883 -3.35639e-11 1.99394e-11 6.84469e-11 5e-05 1.46608e-10 
35 1 0.121435 0.0169128 0.00734689 0.00571312 0.000210995 -0.000297449 -4.34778e-11 -5.61571e-11 1.1689e-11 5e-05 1.46608e-10 
36 1 0.127558 0.0179216 0.00707515 0.00540151 -0.000740554 0.000902081 -1.88338e-10 -8.41014e-11 -1.13516e-10 5e-05 1.46608e-10 
37 1 0.121396 0.0167414 0.00744484 0.00570913 0.000304478 -1.92252e-05 1.80796e-11 7.59405e-12 4.34831e-11 5e-05 1.46608e-10 
38 1 0.121571 0.0171341 0.00729098 0.00575969 0.000302911 -0.000316464 1.83929e-10 -9.66607e-11 3.97328e-11 5e-05 1.46608e-10 
39 1 0.127481 0.0175365 0.00712359 0.00540804 -0.000872752 0.000271627 3.06149e-11 -1.0634e-10 3.86858e-10 5e-05 1.46608e-10 
41 1 0.121208 0.0163559 0.00779125 0.00585565 -2.12365e-05 -0.000365995 1.32372e-10 -1.56832e-10 2.09149e-10 5e-05 1.46608e-10 
42 1 0.121401 0.0171692 0.00729035 0.00575141 0.000266244 -0.000307172 -2.9174e-11 -9.92089e-11 4.64851e-11 5e-05 1.46608e-10 
44 1 0.121591 0.0172295 0.00726855 0.00574949 0.000315428 -0.000319835 6.82303e-11 -1.38637e-10 3.9294e-11 5e-05 1.46608e-10 
45 1 0.127306 0.0167488 0.00749883 0.00564169 -0.000761293 0.000406293 1.18516e-10 8.37342e-11 -1.55608e-10 5e-05 1.46608e-10 
46 1 0.127384 0.0170817 0.0072912 0.00552171 -0.000820052 0.000443764 -6.38724e-10 -3.13647e-11 3.04415e-12 5e-05 1.46608e-10 
47 1 0.121227 0.01642 0.00771691 0.00572746 6.56301e-06 -0.000371515 -2.00688e-10 -1.74647e-11 2.18647e-10 5e-05 1.46608e-10 
48 1 0.121441 0.01736 0.00724549 0.0057047 0.000288599 -0.000312081 1.24609e-10 -1.21451e-10 4.54517e-11 5e-05 1.46608e-10 
49 1 0.127365 0.0169984 0.00734312 0.00544646 -0.00080207 0.000428916 2.36188e-10 -3.24682e-10 2.51416e-10 5e-05 1.46608e-10 
50 1 0.121499 0.0176445 0.00717864 0.00561596 0.000323507 -0.000314513 -5.28779e-12 7.19492e-13 2.17491e-12 5e-05 1.46608e-10 
51 1 0.121482 0.0175528 0.00721478 0.00560898 0.000320127 -0.000312765 -4.22547e-11 -2.21905e-11 1.62045e-11 5e-05 1.46608e-10 
52 1 0.115189 0.0164033 0.00798814 0.00578762 -0.000317884 0.000775663 -4.17192e-11 -5.30822e-11 4.22832e-11 5e-05 1.46608e-10 
53 1 0.127422 0.0172499 0.00718999 0.00546341 -0.000856805 0.000374956 4.98851e-10 2.21612e-10 2.26649e-10 5e-05 1.46608e-10 
54 1 0.121241 0.0161821 0.00798731 0.00617955 -9.35039e-05 -0.000302176 -1.87737e-10 6.90158e-11 -7.44297e-11 5e-05 1.46608e-10 
55 1 0.11495 0.0156079 0.00870557 0.00578472 -0.000284704 0.000745248 3.04901e-12 -8.34782e-12 6.92621e-12 5e-05 1.46608e-10 
56 1 0.121416 0.016826 0.00739537 0.00571716 0.000313087 -2.14949e-05 -2.47195e-10 8.11799e-11 -1.98729e-11 5e-05 1.46608e-10 
57 1 0.127326 0.0168319 0.00744698 0.00565325 -0.000770201 0.000410449 -3.06218e-10 7.98546e-11 -2.58265e-11 5e-05 1.46608e-10 
59 1 0.121492 0.016771 0.0074301 0.00572376 0.000426471 -0.000100955 -1.63066e-10 4.1963e-11 -8.79278e-11 5e-05 1.46608e-10 
60 1 0.12151 0.0168558 0.00738036 0.00568124 0.000437821 -9.91463e-05 -2.03138e-10 7.977e-11 -2.63472e-11 5e-05 1.46608e-10 
61 1 0.121187 0.0162921 0.00786544 0.0062295 -8.08681e-05 -0.00032121 -8.52777e-11 9.52276e-11 4.24861e-12 5e-05 1.46608e-10 
62 1 0.12161 0.0173251 0.00724607 0.00571518 0.000378894 -0.000332341 7.54986e-11 8.27507e-12 -3.93454e-12 5e-05 1.46608e-10 
63 1 0.121535 0.0173904 0.00723454 0.00568329 0.000347903 -0.000324091 1.41842e-10 5.84647e-11 -1.10391e-11 5e-05 1.46608e-10 
64 1 0.127442 0.0173454 0.00716786 0.00541912 -0.000873546 0.000269153 -5.71683e-11 1.59448e-10 -2.53141e-11 5e-05 1.46608e-10 
65 1 0.115328 0.0165743 0.00784121 0.00550231 -0.000262058 0.000691696 -1.1833e-10 -2.54315e-11 3.05272e-11 5e-05 1.46608e-10 
66 1 0.115262 0.0163568 0.00803729 0.00577925 -0.000315855 0.000773248 -5.54422e-11 -2.01057e-11 1.59807e-11 5e-05 1.46608e-10 
67 1 0.121761 0.017654 0.00716518 0.0056175 0.00029447 -0.000308326 -2.8033e-12 1.58418e-10 -3.6427e-11 5e-05 1.46608e-10 
68 1 0.121668 0.0176193 0.00717704 0.00561454 0.000304775 -0.00031043 8.07269e-12 8.83045e-11 -2.34165e-11 5e-05 1.46608e-10 
69 1 0.121339 0.0165034 0.00761438 0.00516457 0.000301778 -0.000300936 5.80148e-11 -8.58739e-11 -1.2284e-09 5e-05 1.46608e-10 
70 1 0.127501 0.017632 0.00710145 0.00538585 -0.000885765 0.000304625 7.06209e-10 -1.95985e-10 3.83326e-10 5e-05 1.46608e-10 
71 1 0.114929 0.0155354 0.00877095 0.00578673 -0.000278726 0.000739229 7.59042e-12 1.29466e-11 -8.27877e-12 5e-05 1.46608e-10 
72 1 0.121651 0.0175165 0.00720104 0.00560483 0.000306938 -0.000311044 -4.93545e-11 7.21602e-12 6.66256e-12 5e-05 1.46608e-10 
73 1 0.121302 0.0167126 0.00745931 0.00568255 0.000358435 -4.50602e-05 -8.01264e-11 1.68006e-10 6.31949e-11 5e-05 1.46608e-10 
74 1 0.121496 0.0171993 0.00727947 0.0057496 0.00028935 -0.000315889 6.89976e-11 -1.66083e-10 3.32188e-11 5e-05 1.46608e-10 
76 1 0.115525 0.0173372 0.00722441 0.00534595 -0.000759192 0.000171449 3.87278e-11 1.08205e-10 -4.73998e-11 5e-05 1.46608e-10 
77 1 0.121605 0.0181602 0.00705741 0.0056049 0.000307191 -0.000310472 1.86551e-11 -5.9281e-11 1.2321e-11 5e-05 1.46608e-10 
78 1 0.115015 0.0158236 0.00851099 0.00578536 -0.000299274 0.000758201 5.34849e-12 -1.85715e-11 1.76201e-11 5e-05 1.46608e-10 
79 1 0.115232 0.0165482 0.0078574 0.00578513 -0.000325433 0.000795659 -3.39484e-12 -3.10635e-11 2.73531e-11 5e-05 1.46608e-10 
80 1 0.121536 0.0178359 0.00721671 0.00561846 0.000327274 -0.000315961 -3.56172e-11 3.94438e-11 -1.08296e-11 5e-05 1.46608e-10 
81 1 0.115167 0.0163308 0.00805352 0.00578936 -0.000313608 0.000771809 -3.71958e-11 -6.96697e-11 6.24322e-11 5e-05 1.46608e-10 
82 1 0.115318 0.0168424 0.00760079 0.00553664 -0.000398017 0.000676157 7.21748e-13 -2.15186e-10 -2.19102e-10 5e-05 1.46608e-10 
83 1 0.115359 0.0163834 0.00802063 0.00578288 -0.000326954 0.000783931 -7.1829e-11 1.07406e-11 -1.51837e-11 5e-05 1.46608e-10 
84 1 0.12754 0.0178242 0.00706217 0.00544268 -0.000758916 0.00092077 1.13636e-11 -8.06398e-11 8.33982e-11 5e-05 1.46608e-10 
85 1 0.115132 0.015922 0.00842952 0.00578787 -0.000303867 0.000762909 -1.3649e-11 -1.0504e-11 9.6103e-12 5e-05 1.46608e-10 
86 1 0.121556 0.0174859 0.00721203 0.00560357 0.000314593 -0.000312695 -7.08742e-11 -2.963e-12 5.35361e-12 5e-05 1.46608e-10 
87 1 0.121473 0.0166862 0.00747955 0.00575101 0.000424016 -9.07361e-05 -2.58266e-10 1.16132e-10 -6.51059e-11 5e-05 1.46608e-10 
88 1 0.121546 0.0178739 0.00712472 0.00561935 0.000327922 -0.000315829 3.00292e-12 7.10344e-11 -1.05228e-11 5e-05 1.46608e-10 
89 1 0.121609 0.0179284 0.0071827 0.00565859 0.000339624 -0.000322417 -4.87254e-11 4.55643e-12 2.4264e-12 5e-05 1.46608e-10 
90 1 0.121726 0.0174513 0.00721256 0.00560289 0.000303897 -0.000310261 -1.08562e-10 -6.04876e-11 1.63816e-11 5e-05 1.46608e-10 
91 1 0.115254 0.0166207 0.00779206 0.00576237 -0.000321395 0.000806801 -3.7517e-11 3.30181e-11 8.9976e-11 5e-05 1.46608e-10 
92 1 0.121746 0.0178946 0.00711141 0.00563411 0.000309089 -0.000312467 -2.42783e-11 8.33582e-11 -1.94854e-12 5e-05 1.46608e-10 
93 1 0.121664 0.0179508 0.00710224 0.00562769 0.000313721 -0.00031401 3.28154e-12 8.27483e-11 -1.55411e-11 5e-05 1.46608e-10 
94 1 0.121807 0.0181831 0.00704355 0.00599104 0.000197037 -0.00030267 -6.40084e-11 -5.49862e-13 2.44308e-13 5e-05 1.46608e-10 
95 1 0.121754 0.0179625 0.00718439 0.00561823 0.000304769 -0.000310214 -2.83811e-10 1.15787e-10 9.46846e-12 5e-05 1.46608e-10 
96 1 0.121765 0.0179901 0.00708897 0.00561459 0.000296914 -0.000309366 -7.73559e-11 -4.77688e-12 1.43098e-12 5e-05 1.46608e-10 
97 1 0.115124 0.0161891 0.00818785 0.00578592 -0.000306336 0.000764808 -5.68427e-11 -3.93669e-11 2.76884e-11 5e-05 1.46608e-10 
98 1 0.121566 0.0179693 0.00710228 0.00562168 0.000323665 -0.000315529 2.46531e-12 6.3704e-11 -8.01717e-12 5e-05 1.46608e-10 
99 1 0.115306 0.0165018 0.00790653 0.00578959 -0.000319799 0.000781306 -1.58831e-12 -1.76737e-11 1.31262e-11 5e-05 1.46608e-10 
100 1 0.121685 0.0172597 0.00725764 0.00574677 0.000338498 -0.000324412 1.00634e-10 5.97514e-11 -2.5461e-11 5e-05 1.46608e-10 
101 1 0.115241 0.0162846 0.00810295 0.00576292 -0.000308683 0.000765415 -6.02635e-11 -1.4461e-11 1.10207e-11 5e-05 1.46608e-10 
102 1 0.0643568 0.0187248 0.00531097 4.3281e-15 1.04856e-14 8.29586e-14 1.08689e-21 -1.21751e-22 -4.57017e-23 5e-05 1.46608e-10 
103 1 0.24257 0.0191927 0.00520306 1.6328e-22 -1.27651e-22 1.23839e-22 0 0 0 5e-05 1.46608e-10 
104 1 0.115601 0.0172807 0.00725639 0.0053368 -0.000763356 0.000166383 -8.25928e-11 -3.09683e-11 -3.45846e-11 5e-05 1.46608e-10 
105 1 0.11508 0.016041 0.00831486 0.00578938 -0.000302322 0.000761525 -5.09485e-12 -2.24986e-11 2.21399e-11 5e-05 1.46608e-10 
106 1 0.115677 0.0172245 0.00728816 0.0053033 -0.000796596 0.00019757 -1.45583e-11 -3.07919e-11 2.85995e-12 5e-05 1.46608e-10 
107 1 0.115037 0.0158961 0.00844562 0.00578638 -0.000300814 0.000759902 -2.22589e-12 -2.58794e-11 2.26575e-11 5e-05 1.46608e-10 
108 1 0.121377 0.0166566 0.00749439 0.00572371 0.000388276 -7.00715e-05 -1.71966e-10 1.65331e-10 2.54477e-11 5e-05 1.46608e-10 
109 1 0.12146 0.0174555 0.00722305 0.00563827 0.000307183 -0.0003124 1.11303e-11 -7.9139e-11 2.94278e-11 5e-05 1.46608e-10 
110 1 0.121686 0.0185362 0.00696886 0.00611923 0.000193179 -0.000306798 -2.31252e-11 -1.17622e-10 2.7401e-11 5e-05 1.46608e-10 
111 1 0.121744 0.0183325 0.00701246 0.00604386 0.000237417 -0.000314093 -2.84228e-11 6.86328e-11 -1.83122e-11 5e-05 1.46608e-10 
112 1 0.115145 0.0162583 0.00811889 0.0057893 -0.000309635 0.000768095 -3.20847e-11 -6.49692e-11 5.50264e-11 5e-05 1.46608e-10 
113 1 0.115883 0.0180415 0.00715685 0.00562642 -0.000810719 0.000582709 7.02926e-11 -1.40233e-11 2.82521e-12 5e-05 1.46608e-10 
114 1 0.115545 0.0170405 0.00742712 0.00539594 -0.000340613 0.000768142 1.16566e-10 5.02966e-11 5.12412e-11 5e-05 1.46608e-10 
115 1 0.121516 0.0172947 0.00725702 0.00573458 0.000306578 -0.00031705 5.63794e-11 -6.61819e-11 4.07096e-11 5e-05 1.46608e-10 
116 1 0.121358 0.0165719 0.0075439 0.00591609 0.00035174 -4.433e-05 3.24461e-10 -2.55802e-11 -4.16128e-10 5e-05 1.46608e-10 
117 1 0.121219 0.0161184 0.00806135 0.00615003 -8.8419e-05 -0.00030613 -5.38802e-11 1.57603e-10 -1.68857e-10 5e-05 1.46608e-10 
118 1 0.114972 0.0156897 0.00865245 0.00578419 -0.000290617 0.000751892 -1.86945e-11 -1.78464e-11 1.24703e-11 5e-05 1.46608e-10 
119 1 0.121531 0.0169437 0.00733709 0.00581095 0.000281222 -0.000356046 6.88268e-11 -1.68015e-11 -4.94307e-11 5e-05 1.46608e-10 
120 1 0.12108 0.0159737 0.00823568 0.00609807 -9.61332e-05 -0.000295283 -8.12594e-12 -1.98569e-10 2.13073e-10 5e-05 1.46608e-10 
121 1 0.121037 0.0158463 0.00838378 0.00608058 -9.60974e-05 -0.000293101 -1.35673e-10 -1.89724e-10 2.26211e-10 5e-05 1.46608e-10 
122 1 0.121667 0.0184484 0.0070129 0.00604683 0.00020306 -0.000305294 -1.56359e-11 -9.45887e-11 2.50567e-11 5e-05 1.46608e-10 
123 1 0.115176 0.0160669 0.00829884 0.00579239 -0.000305168 0.000764415 -8.91844e-11 -6.12556e-13 -7.14198e-12 5e-05 1.46608e-10 
124 1 0.121644 0.0178551 0.00712472 0.00564029 0.000322593 -0.000316365 -1.39231e-11 7.03122e-11 -2.33092e-11 5e-05 1.46608e-10 
125 1 0.121197 0.0160546 0.00813567 0.00615395 -0.000108254 -0.000283731 -5.35916e-11 -5.84094e-11 7.78299e-11 5e-05 1.46608e-10 
126 1 0.121421 0.0172646 0.00726793 0.00574043 0.000275108 -0.000312909 2.64752e-11 -1.13996e-10 3.95247e-11 5e-05 1.46608e-10 
127 1 0.115102 0.0161135 0.00824949 0.00578754 -0.000304188 0.000762963 -2.42814e-11 -3.33771e-11 2.56495e-11 5e-05 1.46608e-10 
128 1 0.121516 0.0177382 0.00720866 0.00562047 0.000326037 -0.000315899 -2.8973e-11 3.67968e-11 -2.40177e-11 5e-05 1.46608e-10 
129 1 0.121763 0.0180605 0.00716 0.00557856 0.000296955 -0.000311259 -1.08017e-10 6.32333e-11 -1.35307e-10 5e-05 1.46608e-10 
130 1 0.115432 0.0169393 0.00751154 0.0053481 -0.000354577 0.000765384 3.7478e-10 2.69409e-11 2.04203e-10 5e-05 1.46608e-10 
131 1 0.115284 0.0164293 0.00797193 0.00579088 -0.000319466 0.000777807 -4.50818e-11 6.7338e-13 -4.26646e-12 5e-05 1.46608e-10 
132 1 0.121579 0.0177816 0.00714414 0.00562253 0.000327908 -0.000316963 -2.10863e-11 7.704e-11 -2.218e-11 5e-05 1.46608e-10 
133 1 0.121397 0.0163929 0.00773654 0.00573099 0.000109489 -0.000496201 4.03186e-10 -6.55386e-11 1.9598e-11 5e-05 1.46608e-10 
134 1 0.121551 0.0170388 0.00731344 0.00578084 0.000296406 -0.000320476 1.58291e-10 -5.21414e-11 -1.91209e-11 5e-05 1.46608e-10 
135 1 0.121176 0.0159909 0.00820972 0.00612905 -0.000107501 -0.000283101 -1.8166e-10 -5.8886e-11 7.73252e-11 5e-05 1.46608e-10 
136 1 0.11511 0.0158495 0.00849489 0.00578555 -0.000302854 0.000761704 6.25412e-12 -2.36027e-11 2.15754e-11 5e-05 1.46608e-10 
137 1 0.121625 0.0182556 0.00703497 0.00599858 0.000217142 -0.000307712 -3.78573e-12 -3.58007e-11 8.38142e-12 5e-05 1.46608e-10 
138 1 0.121321 0.0164388 0.0076892 0.00571535 -6.7549e-06 -0.000363561 -7.3534e-11 -1.00471e-10 1.11024e-10 5e-05 1.46608e-10 
140 1 0.121762 0.0184281 0.00699002 0.00604729 0.000232196 -0.000313039 2.35537e-11 -8.1994e-11 1.58853e-11 5e-05 1.46608e-10 
141 1 0.115154 0.0159945 0.00836416 0.00579268 -0.000304963 0.000764235 -7.17947e-11 2.70078e-13 -6.23562e-12 5e-05 1.46608e-10 
142 1 0.115564 0.0171197 0.00736898 0.00533875 -0.000565693 0.000442445 -3.40033e-11 5.63023e-11 1.52293e-10 5e-05 1.46608e-10 
143 1 0.115058 0.0159686 0.00838024 0.00578837 -0.000301262 0.000760527 -1.28819e-11 -2.48403e-11 2.12113e-11 5e-05 1.46608e-10 
144 1 0.115528 0.0169676 0.00749321 0.005324 -0.000339263 0.000754541 1.37625e-10 2.71266e-11 -3.55516e-11 5e-05 1.46608e-10 
146 1 0.11538 0.0164562 0.00795505 0.005785 -0.000318753 0.000776114 -2.65431e-13 -3.69202e-12 -3.68739e-12 5e-05 1.46608e-10 
147 1 0.115089 0.015777 0.00856033 0.00578882 -0.000303561 0.000762527 6.79544e-12 -3.33333e-11 3.18051e-11 5e-05 1.46608e-10 
148 1 0.115374 0.0170664 0.00740962 0.00540665 -0.000633757 0.000371924 5.54274e-11 3.78563e-10 5.4623e-10 5e-05 1.46608e-10 
149 1 0.121723 0.0182372 0.00703489 0.00599456 0.000205755 -0.000304794 -3.06247e-11 -1.34347e-12 4.49734e-12 5e-05 1.46608e-10 
150 1 0.115424 0.0166011 0.00782429 0.00578643 -0.000258794 0.000719356 3.62506e-10 -1.21858e-14 5.93078e-11 5e-05 1.46608e-10 
151 1 0.115792 0.0173259 0.00721558 0.00535086 -0.000823337 0.000210555 3.69e-11 -4.2104e-11 1.3229e-11 5e-05 1.46608e-10 
153 1 0.115219 0.0162118 0.00816814 0.00576706 -0.000305345 0.000762413 -1.09421e-10 -8.6289e-12 -2.19942e-12 5e-05 1.46608e-10 
154 1 0.115488 0.0171732 0.00733281 0.00532626 -0.000771369 0.00016997 5.95291e-12 4.15166e-11 9.86767e-11 5e-05 1.46608e-10 
155 1 0.115543 0.0174193 0.00717034 0.0053739 -0.000775215 0.000172429 -6.82132e-11 5.5825e-11 -3.38917e-11 5e-05 1.46608e-10 
156 1 0.115469 0.0170935 0.00739033 0.0053975 -0.000454393 0.000596095 -1.98016e-11 1.96917e-10 1.55701e-10 5e-05 1.46608e-10 
157 1 0.0219312 0.0187687 0.00551176 -3.83322e-14 8.16639e-14 2.95889e-13 -1.29035e-21 -7.56405e-22 4.63221e-23 5e-05 1.46608e-10 
158 1 0.115654 0.0176798 0.00717546 0.00552182 -0.000767384 0.000298855 -2.38216e-11 5.08018e-11 7.73124e-12 5e-05 1.46608e-10 
159 1 0.121684 0.0177164 0.0071544 0.00562594 0.000310721 -0.000313839 -7.5081e-11 1.33477e-10 -2.52657e-11 5e-05 1.46608e-10 
160 1 0.11543 0.0173118 0.00724658 0.00534955 -0.000750754 0.000162641 -4.64538e-13 9.73718e-11 -5.76117e-11 5e-05 1.46608e-10 
162 1 0.115393 0.0171479 0.0073549 0.00537397 -0.000701255 0.000253722 -4.6474e-11 3.29615e-10 4.05941e-10 5e-05 1.46608e-10 
164 1 0.115715 0.0178301 0.00711251 0.00560445 -0.000787878 0.000299998 -9.64938e-11 -9.8494e-12 -2.74369e-11 5e-05 1.46608e-10 
165 1 0.115844 0.0175888 0.00711046 0.00545845 -0.000833994 0.000252279 8.89379e-12 -4.799e-11 -3.65727e-11 5e-05 1.46608e-10 
166 1 0.121359 0.0162647 0.00788529 0.00603736 8.97077e-05 -0.000501931 1.58888e-10 -1.92369e-10 1.99313e-10 5e-05 1.46608e-10 
167 1 0.115403 0.0165286 0.00788971 0.00554128 -0.00023103 0.000682107 -3.10933e-10 5.7611e-11 -7.85267e-11 5e-05 1.46608e-10 
168 1 0.115696 0.0173065 0.00723397 0.00535043 -0.000802232 0.00019678 -1.62735e-10 -1.74396e-11 1.10305e-12 5e-05 1.46608e-10 
169 1 0.115904 0.017894 0.00713695 0.00561082 -0.000849601 0.000576735 -4.09814e-11 1.53954e-11 -3.93605e-12 5e-05 1.46608e-10 
170 1 0.115714 0.0173886 0.00717976 0.00538682 -0.000810079 0.000195986 -1.12949e-10 8.05502e-12 -3.83822e-12 5e-05 1.46608e-10 
171 1 0.121378 0.0163288 0.00781093 0.00586046 9.9297e-05 -0.000505524 -1.40898e-10 -1.07898e-10 1.69252e-10 5e-05 1.46608e-10 
172 1 0.11583 0.0174898 0.00710727 0.00541773 -0.0008299 0.000210932 3.36072e-11 -5.90556e-11 9.39379e-12 5e-05 1.46608e-10 
173 1 0.121845 0.0179306 0.00709901 0.00562468 0.000301299 -0.000310217 -1.83977e-10 -1.1934e-11 1.5455e-11 5e-05 1.46608e-10 
174 1 0.115638 0.0174455 0.00714891 0.00539045 -0.000799021 0.000192169 -4.80129e-11 3.18833e-11 -4.12363e-11 5e-05 1.46608e-10 
175 1 0.109439 0.0173932 0.00736872 0.00551065 0.000421702 -0.000556441 2.33456e-12 7.25012e-12 -4.11799e-12 5e-05 1.46608e-10 
176 1 0.11545 0.0170122 0.0074454 0.00538352 -0.00035823 0.000793016 3.68215e-10 -3.38591e-11 1.18552e-10 5e-05 1.46608e-10 
177 1 0.115468 0.0174787 0.00714321 0.00539919 -0.000723603 0.000197136 -5.45272e-13 5.725e-11 -3.78322e-11 5e-05 1.46608e-10 
178 1 0.115956 0.0178089 0.00713044 0.00555825 -0.000886483 0.000562808 -2.28153e-11 2.28333e-11 -4.77383e-12 5e-05 1.46608e-10 
179 1 0.115862 0.0177769 0.00711803 0.00557554 -0.00083656 0.00031037 -2.40436e-11 -3.37776e-11 -3.83787e-12 5e-05 1.46608e-10 
181 1 0.11543 0.0173281 0.00734522 0.00538634 -0.000765345 0.000172263 -5.87805e-11 8.06205e-11 -1.00498e-11 5e-05 1.46608e-10 
182 1 0.121302 0.0163743 0.00776397 0.00577411 4.05726e-05 -0.000424262 5.07466e-11 1.25974e-10 -1.10598e-10 5e-05 1.46608e-10 
183 1 0.115619 0.0173627 0.0072022 0.00538504 -0.000767274 0.000165934 -1.95973e-10 -7.2497e-11 -1.48688e-11 5e-05 1.46608e-10 
184 1 0.121826 0.0178349 0.00712145 0.00564443 0.000302334 -0.000311468 -1.06511e-10 5.93562e-11 -1.30426e-11 5e-05 1.46608e-10 
185 1 0.115355 0.0169886 0.00746969 0.00529165 -0.000536119 0.000460212 -1.81198e-10 4.02843e-10 5.0229e-10 5e-05 1.46608e-10 
186 1 0.115448 0.0172423 0.00739315 0.00537876 -0.000762905 0.000167101 -1.78499e-10 1.4852e-10 1.19592e-10 5e-05 1.46608e-10 
187 1 0.121665 0.0171643 0.00728008 0.00575753 0.000306885 -0.00031746 2.30489e-10 1.31857e-10 -5.871e-11 5e-05 1.46608e-10 
188 1 0.121684 0.0180472 0.00708317 0.00561892 0.000306398 -0.000315143 -2.06053e-11 6.49297e-11 -1.01094e-11 5e-05 1.46608e-10 
189 1 0.121706 0.017355 0.0072352 0.00565057 0.00036076 -0.000325003 -4.99911e-11 7.80082e-11 -1.91606e-11 5e-05 1.46608e-10 
190 1 0.109577 0.0176105 0.00728097 0.00573626 0.000377818 -0.000557393 -3.81415e-12 3.84067e-12 -1.04384e-12 5e-05 1.46608e-10 
191 1 0.121646 0.0183508 0.00701254 0.00603977 0.000206411 -0.000307119 -8.63563e-12 -4.29064e-11 8.59875e-12 5e-05 1.46608e-10 
192 1 0.115641 0.0170695 0.00740824 0.00536721 -0.000295286 0.000708286 7.92129e-11 5.66443e-11 -2.00662e-11 5e-05 1.46608e-10 
193 1 0.121453 0.0166017 0.00752898 0.00576201 0.000421985 -8.80442e-05 -1.15992e-10 1.72455e-10 -1.10525e-10 5e-05 1.46608e-10 
194 1 0.115471 0.0167492 0.00769087 0.00544686 -0.000369023 0.000792897 -2.67528e-11 5.4153e-11 -1.07191e-10 5e-05 1.46608e-10 
195 1 0.115885 0.01768 0.00710954 0.00550413 -0.000852307 0.000289783 -9.21881e-12 -3.63264e-11 1.16477e-11 5e-05 1.46608e-10 
196 1 0.114863 0.015318 0.00896708 0.00578613 -0.000265958 0.00072755 1.95051e-11 6.3196e-11 -5.65818e-11 5e-05 1.46608e-10 
197 1 0.109498 0.0176689 0.00726604 0.00573442 0.000375797 -0.000556561 8.19631e-12 1.33788e-11 -5.61092e-12 5e-05 1.46608e-10 
198 1 0.115276 0.0166932 0.00772672 0.00570874 -0.000324237 0.000797611 -4.78605e-11 4.77545e-11 9.52445e-11 5e-05 1.46608e-10 
199 1 0.115412 0.0172298 0.00730074 0.00534712 -0.000745367 0.000170822 5.08049e-11 1.21325e-10 4.23065e-11 5e-05 1.46608e-10 
200 1 0.115395 0.0167943 0.00764396 0.00549981 -0.000522254 0.000571422 -9.95781e-11 -5.50336e-11 1.32529e-10 5e-05 1.46608e-10 
201 1 0.115828 0.0179597 0.00713752 0.00563508 -0.000813342 0.00058442 4.63198e-11 1.00269e-10 3.82742e-11 5e-05 1.46608e-10 
202 1 0.115659 0.0171425 0.00734233 0.00525907 -0.000789404 0.000199235 7.69294e-12 -1.78385e-11 9.87607e-12 5e-05 1.46608e-10 
203 1 0.12185 0.0183805 0.00699701 0.00606573 0.000273395 -0.000323304 1.07651e-10 -2.47366e-12 -1.63462e-12 5e-05 1.46608e-10 
204 1 0.115372 0.0167243 0.00771276 0.00569808 -0.000289549 0.000756273 1.17805e-10 1.24272e-10 -1.24271e-10 5e-05 1.46608e-10 
205 1 0.115686 0.01787 0.00719923 0.00567162 -0.000759546 0.000310202 -8.11776e-11 1.55742e-11 -8.18109e-11 5e-05 1.46608e-10 
206 1 0.115655 0.0175334 0.00710473 0.00541773 -0.000770347 0.000260649 -5.54096e-11 3.25279e-11 -5.45033e-11 5e-05 1.46608e-10 
207 1 0.115198 0.0161394 0.0082335 0.0057853 -0.000304903 0.000763715 -9.05229e-11 -1.13605e-11 4.79674e-12 5e-05 1.46608e-10 
208 1 0.115506 0.0172552 0.00727859 0.00533829 -0.000749478 0.00016808 4.40849e-11 1.08337e-10 -4.2602e-11 5e-05 1.46608e-10 
209 1 0.115449 0.0166768 0.00775625 0.00559549 -0.000394 0.000833777 1.69553e-10 1.42783e-10 -4.48128e-11 5e-05 1.46608e-10 
210 1 0.121656 0.0177986 0.00720644 0.00562955 0.000313683 -0.000318957 -2.68458e-11 1.19649e-10 -1.71324e-11 5e-05 1.46608e-10 
211 1 0.121786 0.0180866 0.00706625 0.00558027 0.000316216 -0.000310713 2.50985e-10 -1.02651e-10 -3.93958e-11 5e-05 1.46608e-10 
212 1 0.115732 0.0174727 0.00712419 0.00539313 -0.000828207 0.000211041 -3.88635e-11 5.08603e-11 -4.00283e-11 5e-05 1.46608e-10 
213 1 0.121646 0.0170688 0.00730255 0.00574024 0.000286699 -0.000312226 2.65991e-10 -9.18902e-11 -3.31239e-12 5e-05 1.46608e-10 
214 1 0.121885 0.0181214 0.00705413 0.00601342 0.00021997 -0.00030882 -1.33584e-10 -5.41229e-11 1.87974e-11 5e-05 1.46608e-10 
215 1 0.109557 0.0175175 0.00731567 0.0055355 0.000417403 -0.00055672 -1.92657e-11 -1.05298e-11 5.52728e-12 5e-05 1.46608e-10 
216 1 0.115449 0.0173937 0.00719241 0.0053624 -0.000747858 0.00016229 -7.39326e-11 8.98639e-11 -4.97133e-11 5e-05 1.46608e-10 
217 1 0.121416 0.0164582 0.00766327 0.00566285 0.000217564 -0.000378345 1.83763e-10 1.86016e-10 -1.1326e-11 5e-05 1.46608e-10 
218 1 0.115575 0.0176052 0.0070815 0.00547708 -0.000723833 0.000302184 -5.7588e-11 4.16462e-11 1.03301e-12 5e-05 1.46608e-10 
219 1 0.121703 0.0181418 0.00705733 0.00558649 0.000315521 -0.000312146 1.20828e-10 -7.46001e-12 -4.30703e-11 5e-05 1.46608e-10 
220 1 0.115525 0.0175351 0.00720254 0.00549908 -0.000833658 0.000204481 4.97049e-11 -4.35893e-12 7.51612e-12 5e-05 1.46608e-10 
221 1 0.109456 0.0170548 0.00748816 0.00561088 0.000413436 -0.000560876 -1.02217e-11 -1.56898e-11 8.05888e-12 5e-05 1.46608e-10 
222 1 0.121435 0.0165293 0.00759568 0.00574646 0.000374949 -0.000159542 -5.50454e-12 2.60431e-10 -1.85518e-12 5e-05 1.46608e-10 
223 1 0.115583 0.0171987 0.00731057 0.00530885 -0.000746613 0.000188685 9.45625e-12 1.45212e-10 1.69759e-10 5e-05 1.46608e-10 
224 1 0.115338 0.0169179 0.0075382 0.0054005 -0.000480031 0.000543537 -2.94452e-10 9.87431e-11 1.43308e-10 5e-05 1.46608e-10 
225 1 0.121736 0.0178015 0.00714643 0.00563617 0.000305838 -0.000314885 -7.70825e-11 1.15593e-10 -2.65545e-11 5e-05 1.46608e-10 
226 1 0.11581 0.0174081 0.00716136 0.00539904 -0.000828821 0.000210879 -6.77581e-11 -4.23434e-11 3.08348e-11 5e-05 1.46608e-10 
227 1 0.109516 0.0173316 0.00738504 0.00548226 0.000390094 -0.000543002 3.81515e-11 3.19471e-11 -1.51562e-11 5e-05 1.46608e-10 
228 1 0.109458 0.0174851 0.00733449 0.00552558 0.000420268 -0.00055706 4.43424e-12 1.53967e-11 -6.58186e-12 5e-05 1.46608e-10 
229 1 0.115454 0.0174086 0.00729115 0.00535482 -0.000757653 0.000171719 -1.66961e-10 5.76525e-11 -4.4903e-12 5e-05 1.46608e-10 
230 1 0.115753 0.0180254 0.0071381 0.00564898 -0.00075758 0.000594267 -6.17927e-11 1.22077e-11 -1.42306e-11 5e-05 1.46608e-10 
231 1 0.109419 0.0173013 0.00740294 0.00549993 0.000428927 -0.000558192 -2.517e-11 -1.18726e-11 7.52578e-12 5e-05 1.46608e-10 
232 1 0.115337 0.016311 0.00808599 0.00576395 -0.000324344 0.000779743 -6.89338e-11 4.69207e-12 -8.66135e-12 5e-05 1.46608e-10 
233 1 0.11549 0.016822 0.00762511 0.0052869 -0.000341609 0.000746724 7.24302e-11 -1.03907e-11 1.40805e-10 5e-05 1.46608e-10 
234 1 0.121585 0.0180648 0.00707984 0.00561686 0.000316694 -0.000314346 -1.64703e-11 1.26682e-11 6.24436e-12 5e-05 1.46608e-10 
235 1 0.115645 0.018337 0.00717227 0.00563891 -0.000782851 0.00058849 -2.89192e-12 1.44899e-11 3.27266e-12 5e-05 1.46608e-10 
236 1 0.115815 0.018296 0.00718736 0.00564417 -0.000727641 0.000597599 6.91012e-12 -9.72991e-11 -1.38879e-11 5e-05 1.46608e-10 
237 1 0.115667 0.0184331 0.00718968 0.00562549 -0.000777941 0.000587708 6.16896e-12 2.8367e-11 5.84717e-12 5e-05 1.46608e-10 
239 1 0.109237 0.0164982 0.00775783 0.00579836 0.00064086 2.46709e-05 -4.22519e-13 4.30372e-13 -4.13016e-13 5e-05 1.46608e-10 
240 1 0.109298 0.0167507 0.00760828 0.00584489 0.000348635 -0.000555324 1.15384e-11 1.4069e-11 -1.21751e-11 5e-05 1.46608e-10 
241 1 0.109217 0.0164154 0.00781022 0.00577539 0.00064085 2.3034e-05 5.74456e-13 -3.32338e-12 1.51799e-12 5e-05 1.46608e-10 
242 1 0.115604 0.0169238 0.00754022 0.00535986 -0.000306121 0.000729957 3.73871e-11 3.54027e-11 1.52388e-11 5e-05 1.46608e-10 
243 1 0.115349 0.0166468 0.0077758 0.00575981 -0.000285353 0.000747356 -1.76663e-10 -1.54589e-10 2.14966e-10 5e-05 1.46608e-10 
244 1 0.109257 0.0165809 0.00770544 0.00582152 0.000642251 2.56609e-05 4.27692e-12 6.49357e-13 -1.12954e-12 5e-05 1.46608e-10 
246 1 0.10938 0.0171175 0.00747139 0.00561227 0.000413656 -0.000560898 -9.07871e-12 2.46538e-11 -8.57753e-12 5e-05 1.46608e-10 
247 1 0.115602 0.0177007 0.0070925 0.00552775 -0.000730958 0.00030287 -3.40072e-11 8.42551e-12 -5.39532e-12 5e-05 1.46608e-10 