ITEM: TIMESTEP
23800000
ITEM: NUMBER OF ATOMS
273
ITEM: BOX BOUNDS ff ff ff
-0.02 0.43
-0.02 0.06
-0.02 0.07
ITEM: ATOMS id type x y z vx vy vz fx fy fz radius mass 
1 1 0.151316 0.0158017 0.00863204 0.00551441 -0.000710052 0.00134349 -2.24385e-10 -5.98194e-10 9.24674e-10 5e-05 1.46608e-10 
2 1 0.151985 0.0176022 0.00722627 0.00608911 -0.00380306 -0.00896358 0 0 -1.43822e-09 5e-05 1.46608e-10 
3 1 0.145995 0.0172707 0.0076986 0.022749 0.0649245 -0.0545394 6.33259e-11 2.51579e-10 -2.05451e-10 5e-05 1.46608e-10 
4 1 0.151744 0.0169279 0.00745246 0.00548289 -0.00216379 0.000610336 -1.79399e-10 -1.07643e-09 2.99246e-10 5e-05 1.46608e-10 
5 1 0.151294 0.0157489 0.00871413 0.00551371 -0.000701981 0.00132971 -3.52958e-10 -7.85513e-10 1.21484e-09 5e-05 1.46608e-10 
6 1 0.157597 0.0166865 0.00762061 0.00566872 0.000676208 -0.000113045 -2.07438e-11 -6.45052e-11 2.93928e-11 5e-05 1.46608e-10 
7 1 0.151403 0.0160129 0.00830371 0.00554023 -0.000717552 0.00135441 -2.41855e-10 2.93465e-11 3.72213e-12 5e-05 1.46608e-10 
8 1 0.151272 0.0156961 0.00879621 0.00551657 -0.00068144 0.00129632 -3.54002e-10 -8.79129e-10 1.36848e-09 5e-05 1.46608e-10 
9 1 0.157715 0.017215 0.00736251 0.00607869 0.000612327 -6.53295e-05 3.20737e-11 7.33554e-11 -3.21542e-11 5e-05 1.46608e-10 
10 1 0.151942 0.018221 0.00724238 0.00542124 -0.00235907 0.00107263 5.31352e-10 1.32802e-09 -3.79451e-10 5e-05 1.46608e-10 
11 1 0.152006 0.0176995 0.00721541 0.00508368 -0.00226077 0.000935678 2.45348e-09 -3.66767e-11 -1.66434e-10 5e-05 1.46608e-10 
12 1 0.145336 0.0160178 0.00880328 0.0117113 0.0186288 -0.0168782 -2.86482e-11 2.89792e-10 -2.12569e-10 5e-05 1.46608e-10 
13 1 0.151207 0.0155376 0.00904248 0.0055419 -0.000589466 0.00115398 -1.38932e-10 -3.37509e-10 5.30113e-10 5e-05 1.46608e-10 
14 1 0.148 0.0188641 0.00681119 1.64449e-15 -3.117e-14 -8.90447e-14 -6.43004e-25 -1.55096e-25 0 5e-05 1.46608e-10 
15 1 0.151805 0.0167784 0.00750158 0.00547002 -0.00202365 0.000565657 8.57477e-11 -7.61501e-10 2.19186e-10 5e-05 1.46608e-10 
16 1 0.146265 0.0162146 0.00843399 0.0195146 0.0565181 -0.0474131 6.96489e-11 2.67868e-10 -1.22243e-10 5e-05 1.46608e-10 
17 1 0.151901 0.0172263 0.00734825 0.00543727 -0.0019987 0.000554249 -7.01503e-10 3.23033e-10 -6.93538e-11 5e-05 1.46608e-10 
19 1 0.151251 0.0156432 0.0088783 0.00552532 -0.000648661 0.00124609 -3.49e-10 -8.35068e-10 1.30971e-09 5e-05 1.46608e-10 
21 1 0.151922 0.018129 0.00720878 0.00541456 -0.0023376 0.00105178 5.15491e-11 5.88562e-10 -2.87693e-10 5e-05 1.46608e-10 
22 1 0.15173 0.0164666 0.00760849 0.00559147 -0.00207033 0.000576362 -5.23929e-11 -8.1381e-11 8.99572e-11 5e-05 1.46608e-10 
23 1 0.145406 0.0162423 0.00861678 0.0116608 0.0187116 -0.0169288 -2.70189e-11 2.88982e-10 -2.12326e-10 5e-05 1.46608e-10 
24 1 0.157778 0.0174788 0.00723387 0.00619473 0.000594407 -5.33135e-05 2.28994e-10 1.5026e-11 1.51765e-11 5e-05 1.46608e-10 
25 1 0.151538 0.0163339 0.00782176 0.00637765 -0.0011442 0.00171493 2.48095e-10 -4.74259e-10 1.46231e-10 5e-05 1.46608e-10 
26 1 0.157675 0.0170389 0.0074485 0.00567072 0.000708101 -0.000128761 -1.40484e-11 -2.97219e-11 1.43378e-11 5e-05 1.46608e-10 
27 1 0.145551 0.0163987 0.00846399 0.0215138 -8.37687e-05 -0.00503845 -3.55513e-10 7.02877e-10 -3.79066e-10 5e-05 1.46608e-10 
28 1 0.151943 0.0174112 0.00728489 0.00562245 -0.00199162 0.000548825 -7.09864e-10 6.10021e-10 -2.42226e-10 5e-05 1.46608e-10 
29 1 0.151424 0.0160657 0.00822162 0.00552861 -0.000721177 0.00138257 -3.82375e-10 -1.83181e-10 3.34401e-10 5e-05 1.46608e-10 
30 1 0.152041 0.0181146 0.00729204 0.00554887 -0.00254694 0.0011359 2.78059e-10 1.58987e-09 -4.24363e-10 5e-05 1.46608e-10 
31 1 0.151642 0.0164382 0.00764534 0.00541244 -0.000633131 0.00126214 -2.65175e-10 2.58031e-10 -3.15014e-10 5e-05 1.46608e-10 
32 1 0.151684 0.0166498 0.00754767 0.00529646 -0.00213526 0.000606604 2.18187e-10 -5.75069e-10 -6.70454e-11 5e-05 1.46608e-10 
33 1 0.157616 0.0167746 0.00757758 0.00566927 0.000679949 -0.000114734 -4.35208e-12 -6.06729e-11 3.2438e-11 5e-05 1.46608e-10 
34 1 0.151381 0.0159601 0.00838579 0.00553226 -0.000711841 0.00134259 -8.8709e-12 5.44016e-11 -9.47394e-11 5e-05 1.46608e-10 
35 1 0.151469 0.0161713 0.00805764 0.00567061 -0.000747969 0.00154755 5.30285e-10 -7.29423e-10 7.03931e-10 5e-05 1.46608e-10 
36 1 0.157757 0.0173908 0.00727675 0.00614344 0.000583169 -4.80885e-05 -3.77596e-11 1.28353e-11 -1.33062e-11 5e-05 1.46608e-10 
37 1 0.152135 0.0181756 0.00725333 0.00524063 -0.00301968 0.000991 -8.58442e-10 -1.14621e-10 -1.51561e-10 5e-05 1.46608e-10 
38 1 0.152216 0.01786 0.0072623 0.00579828 -0.00215951 0.00113585 -8.67298e-10 4.9406e-10 -1.75655e-10 5e-05 1.46608e-10 
39 1 0.157811 0.0172452 0.00735131 0.00610951 0.00058624 -5.09582e-05 4.235e-11 -2.71451e-11 1.51543e-11 5e-05 1.46608e-10 
41 1 0.152021 0.0173507 0.00730359 0.00556274 -0.00216288 0.00060714 -1.01078e-09 6.52848e-10 -2.50596e-10 5e-05 1.46608e-10 
42 1 0.321436 0.0173475 0.00552525 4.53311e-16 2.25589e-15 8.46361e-14 5.95037e-23 -8.80818e-24 -2.06795e-25 5e-05 1.46608e-10 
44 1 0.151965 0.0175035 0.00725324 0.00531897 -0.00188884 0.000520526 -6.73201e-10 7.30513e-10 -8.43691e-11 5e-05 1.46608e-10 
45 1 0.157636 0.0168627 0.00753455 0.00566931 0.000689664 -0.000119817 -2.20695e-11 -1.24218e-10 6.11877e-11 5e-05 1.46608e-10 
47 1 0.151338 0.0158545 0.00854996 0.0055205 -0.000710564 0.00134423 -2.34327e-10 -3.57755e-10 5.00905e-10 5e-05 1.46608e-10 
48 1 0.152122 0.0180762 0.00724841 0.00541288 -0.00258017 0.00102928 -5.54845e-11 2.15983e-09 -8.42073e-11 5e-05 1.46608e-10 
50 1 0.15159 0.0166278 0.00757509 0.00530315 -0.00172346 0.000860744 -2.99362e-10 7.67288e-10 -8.472e-10 5e-05 1.46608e-10 
51 1 0.15157 0.016545 0.00762767 0.0052634 -0.00159972 0.00105886 -1.24581e-10 7.669e-10 -4.72986e-10 5e-05 1.46608e-10 
52 1 0.145218 0.0156845 0.00908348 0.00733001 0.00522809 -0.00569528 6.52072e-11 2.34278e-10 -1.89968e-10 5e-05 1.46608e-10 
53 1 0.157791 0.0171573 0.00739419 0.00607055 0.000602444 -6.06578e-05 -4.91117e-12 2.53455e-11 -1.32213e-11 5e-05 1.46608e-10 
54 1 0.152154 0.0182734 0.00725972 0.00531626 -0.00299612 0.0010057 -1.04024e-09 2.04478e-10 -1.36855e-10 5e-05 1.46608e-10 
55 1 0.145155 0.0154579 0.00926985 0.00744066 0.00519433 -0.00569626 6.37773e-11 2.33994e-10 -1.92327e-10 5e-05 1.46608e-10 
56 1 0.152213 0.0181147 0.00726778 0.00548429 -0.00275771 0.00104389 8.38645e-10 1.08653e-09 1.2096e-10 5e-05 1.46608e-10 
57 1 0.157656 0.0169508 0.00749153 0.00567199 0.000702849 -0.000126088 -4.45977e-11 -1.41137e-10 6.62476e-11 5e-05 1.46608e-10 
59 1 0.151999 0.0172583 0.00733526 0.00548402 -0.00216356 0.000607988 -6.38002e-10 5.66281e-10 -1.03656e-10 5e-05 1.46608e-10 
61 1 0.151446 0.0161186 0.00813953 0.00554604 -0.000727713 0.00144134 -5.16383e-10 -3.31836e-10 5.13927e-10 5e-05 1.46608e-10 
62 1 0.152174 0.0176642 0.00724893 0.00565221 -0.00207277 0.00112541 1.22694e-09 -2.01037e-10 -1.42601e-09 5e-05 1.46608e-10 
63 1 0.151724 0.0168351 0.00748422 0.00540628 -0.0021491 0.000608561 2.83939e-11 -1.0578e-09 3.34667e-10 5e-05 1.46608e-10 
64 1 0.157832 0.0173331 0.0073084 0.00614182 0.000566795 -4.01594e-05 6.35478e-11 4.83606e-11 -2.02416e-11 5e-05 1.46608e-10 
65 1 0.145429 0.0163173 0.00855447 0.0116205 0.0191695 -0.0172659 -2.21358e-11 2.86576e-10 -2.11673e-10 5e-05 1.46608e-10 
66 1 0.145134 0.0153812 0.00933294 0.00750734 0.00529008 -0.00578447 6.96042e-11 2.52137e-10 -2.07316e-10 5e-05 1.46608e-10 
67 1 0.152081 0.0176331 0.00722919 0.00554101 -0.00206147 0.00106816 -4.37179e-10 -8.94777e-10 -6.32991e-10 5e-05 1.46608e-10 
68 1 0.151763 0.0170207 0.0074207 0.00554987 -0.00218025 0.00061159 6.2977e-10 -1.14649e-09 4.2392e-10 5e-05 1.46608e-10 
69 1 0.152081 0.0183999 0.00724782 0.00524379 -0.00272161 0.00100295 1.87425e-10 8.06637e-10 4.51772e-11 5e-05 1.46608e-10 
70 1 0.157695 0.017127 0.00740547 0.00567651 0.00069811 -0.000123483 9.53995e-11 1.00833e-10 -4.39943e-11 5e-05 1.46608e-10 
71 1 0.145197 0.015609 0.0091456 0.00736734 0.00521655 -0.00569574 6.87219e-11 2.31232e-10 -1.94969e-10 5e-05 1.46608e-10 
72 1 0.152069 0.0179927 0.00723547 0.00538324 -0.00253304 0.00104085 -2.44775e-10 5.94133e-10 -2.27663e-10 5e-05 1.46608e-10 
73 1 0.152175 0.0183711 0.0072663 0.00531126 -0.00296132 0.00100887 -1.93748e-10 -1.44794e-10 -1.09615e-10 5e-05 1.46608e-10 
74 1 0.152154 0.0175662 0.00724251 0.00544884 -0.00208829 0.0010482 -8.17876e-11 -1.48292e-10 -1.93176e-10 5e-05 1.46608e-10 
76 1 0.14652 0.0186792 0.00684977 0.00367556 3.85485e-05 0.00015589 -5.26508e-10 -2.29906e-12 3.82163e-11 5e-05 1.46608e-10 
77 1 0.151668 0.0169924 0.00743235 0.00539296 -0.00207063 0.000580025 3.39422e-10 1.79478e-10 -1.33067e-10 5e-05 1.46608e-10 
78 1 0.147804 0.0187864 0.00683475 1.64472e-15 -3.117e-14 -8.90447e-14 -5.60286e-24 -6.20385e-25 0 5e-05 1.46608e-10 
79 1 0.145269 0.0158328 0.00895926 0.00827989 0.00494458 -0.00570611 8.9359e-11 2.25109e-10 -1.91087e-10 5e-05 1.46608e-10 
80 1 0.152008 0.0175691 0.0073233 0.00536956 -0.0017419 0.00035649 -2.24889e-10 9.78887e-11 -1.13474e-09 5e-05 1.46608e-10 
81 1 0.146727 0.0186735 0.00685439 1.64499e-15 -3.117e-14 -8.90447e-14 5.42191e-24 4.1359e-25 -2.06795e-25 5e-05 1.46608e-10 
82 1 0.145358 0.0160929 0.00874108 0.0114423 0.018745 -0.0169025 -2.32433e-11 2.87222e-10 -2.11353e-10 5e-05 1.46608e-10 
83 1 0.147253 0.0188298 0.00682633 9.40534e-15 -9.73166e-14 2.32273e-13 1.59562e-22 1.51994e-23 -2.06795e-25 5e-05 1.46608e-10 
84 1 0.157736 0.0173029 0.00731963 0.00611178 0.000592389 -5.37572e-05 -7.04703e-11 -2.58452e-11 1.71693e-12 5e-05 1.46608e-10 
85 1 0.146324 0.0181527 0.00702927 0.00272517 -0.00161749 0.000616143 -6.47604e-11 2.58185e-10 -8.96018e-11 5e-05 1.46608e-10 
86 1 0.152049 0.0174414 0.00727233 0.00537393 -0.00209326 0.000568339 -5.81502e-10 2.99487e-10 -3.36721e-10 5e-05 1.46608e-10 
87 1 0.15234 0.0176296 0.00728195 0.00565425 -0.00229306 0.00109946 -9.18057e-10 2.2517e-10 -1.91653e-10 5e-05 1.46608e-10 
88 1 0.151794 0.0175272 0.00734009 0.00560054 -0.00216176 0.00052972 -7.02809e-11 -4.47524e-10 7.54344e-10 5e-05 1.46608e-10 
89 1 0.152101 0.0177309 0.00723561 0.00585817 -0.00214725 0.001037 -2.13057e-09 -8.48544e-11 1.24929e-10 5e-05 1.46608e-10 
90 1 0.152059 0.0175366 0.00724326 0.00545437 -0.00210276 0.000578307 -6.60348e-10 -9.02265e-11 -4.89086e-10 5e-05 1.46608e-10 
91 1 0.146333 0.0180587 0.00706232 0.00230145 -0.00163558 0.000618629 -4.50302e-10 8.86825e-11 -5.14085e-11 5e-05 1.46608e-10 
92 1 0.152046 0.0178954 0.00722835 0.00515226 -0.0028207 0.000983976 -8.37157e-10 2.82264e-10 -2.50874e-10 5e-05 1.46608e-10 
93 1 0.151803 0.0172061 0.00735723 0.00545476 -0.00216896 0.000612357 5.26527e-10 -7.44623e-10 3.07033e-10 5e-05 1.46608e-10 
94 1 0.151953 0.0178631 0.00720865 0.00570529 -0.00212207 0.00110281 3.24842e-10 1.49846e-09 -4.79647e-10 5e-05 1.46608e-10 
95 1 0.151865 0.0176477 0.00729725 0.00530396 -0.00229903 0.000816099 9.62865e-10 3.08684e-12 1.07375e-09 5e-05 1.46608e-10 
96 1 0.151824 0.0172986 0.00732554 0.00547759 -0.00217092 0.000612093 -1.36268e-09 -2.59722e-11 -1.31692e-10 5e-05 1.46608e-10 
97 1 0.145518 0.0162573 0.00857886 0.0141681 0.00812608 -0.00951058 -2.13108e-10 4.25964e-10 -2.72881e-10 5e-05 1.46608e-10 
98 1 0.151911 0.0175487 0.00732431 0.00553319 -0.00235488 0.000538531 7.01764e-10 3.3931e-10 -2.59107e-10 5e-05 1.46608e-10 
99 1 0.145452 0.0163921 0.0084923 0.011883 0.0185397 -0.01682 -2.17428e-11 1.96862e-10 -6.11074e-10 5e-05 1.46608e-10 
100 1 0.152119 0.0178293 0.00724181 0.00570101 -0.00248209 0.00110475 -8.12466e-11 -1.42194e-09 -3.23579e-10 5e-05 1.46608e-10 
101 1 0.145305 0.015926 0.00896195 0.00896548 0.00601302 -0.0268695 0 0 -1.43822e-09 5e-05 1.46608e-10 
102 1 0.0643568 0.0187248 0.00531097 4.39234e-15 1.04474e-14 8.296e-14 1.43539e-21 -6.45201e-22 1.07533e-23 5e-05 1.46608e-10 
103 1 0.24257 0.0191927 0.00520306 3.39597e-22 4.86658e-23 1.23839e-22 0 0 0 5e-05 1.46608e-10 
104 1 0.146669 0.0187669 0.00682362 0.0025502 0.000831869 0.000234619 1.0727e-10 1.11245e-10 3.43114e-11 5e-05 1.46608e-10 
105 1 0.145487 0.0161851 0.00864083 0.00677382 0.0105373 -0.00958248 -3.27119e-11 2.92058e-10 -2.12193e-10 5e-05 1.46608e-10 
106 1 0.146098 0.0180535 0.00708173 0.00526152 -0.00182423 -0.000212899 9.40248e-10 -3.04357e-10 -4.04872e-10 5e-05 1.46608e-10 
107 1 0.146074 0.0178984 0.00720475 0.0031296 -0.0013286 0.000266516 -2.40277e-11 3.86126e-10 -1.81593e-10 5e-05 1.46608e-10 
108 1 0.152026 0.0186092 0.00724174 0.00507081 -0.00315604 0.000957646 1.93948e-10 -2.41756e-11 6.79677e-11 5e-05 1.46608e-10 
109 1 0.151551 0.0164619 0.0076798 0.00521001 -0.00138325 0.00138814 -1.2057e-10 3.24656e-10 -1.5124e-10 5e-05 1.46608e-10 
110 1 0.15175 0.0173627 0.00730552 0.00554342 -0.00209887 0.00057728 -8.20485e-10 -6.66161e-11 5.16234e-11 5e-05 1.46608e-10 
111 1 0.151889 0.0175757 0.00723055 0.00563264 -0.00216131 0.000608425 8.11738e-10 -1.58211e-10 -2.46289e-10 5e-05 1.46608e-10 
112 1 0.146542 0.0185152 0.0069064 0.00556984 -0.000291204 0.000201884 -2.95948e-10 1.99728e-10 -2.20373e-10 5e-05 1.46608e-10 
113 1 0.146088 0.0184856 0.00690836 0.00535321 -0.00147709 0.000615967 1.19648e-10 -3.84244e-11 2.01038e-10 5e-05 1.46608e-10 
114 1 0.147871 0.0189096 0.00683473 9.40115e-15 -9.73165e-14 2.32273e-13 -1.62011e-23 -7.23783e-25 4.1359e-25 5e-05 1.46608e-10 
115 1 0.151922 0.0173188 0.00731656 0.0055558 -0.00200096 0.000553111 -4.90353e-10 7.08593e-10 -2.95884e-10 5e-05 1.46608e-10 
116 1 0.152005 0.0185116 0.00723504 0.00529047 -0.00231652 0.0010227 6.18435e-10 2.04839e-09 2.07357e-10 5e-05 1.46608e-10 
117 1 0.152247 0.0175974 0.00726225 0.00562001 -0.00223659 0.00109303 -9.57184e-10 2.30725e-10 -1.4082e-10 5e-05 1.46608e-10 
118 1 0.147775 0.0190391 0.00689289 -9.88989e-16 1.02479e-14 -2.44582e-14 5.81611e-23 7.85822e-24 1.44757e-24 5e-05 1.46608e-10 
119 1 0.151719 0.0165608 0.00757693 0.00530272 -0.00211454 0.000601575 -4.05008e-10 -4.74129e-10 1.04358e-10 5e-05 1.46608e-10 
120 1 0.151493 0.0162241 0.00797616 0.00591564 -0.00075438 0.00171033 1.31686e-09 -6.52909e-10 9.3283e-10 5e-05 1.46608e-10 
121 1 0.151359 0.0159073 0.00846787 0.00552612 -0.000709883 0.00134143 -8.93006e-11 -6.10432e-11 1.26297e-10 5e-05 1.46608e-10 
122 1 0.151729 0.0172703 0.00733719 0.00550898 -0.00212097 0.00059778 -4.27184e-10 1.46366e-10 -1.04022e-10 5e-05 1.46608e-10 
123 1 0.146691 0.0188572 0.00686056 0.00227682 0.000907104 0.000287912 5.83119e-10 -1.97637e-11 -3.18392e-11 5e-05 1.46608e-10 
124 1 0.151629 0.0168069 0.00749587 0.00522639 -0.00189983 0.000531541 2.2347e-10 4.79355e-10 5.06623e-11 5e-05 1.46608e-10 
125 1 0.152269 0.0176993 0.00726924 0.00577506 -0.00240311 0.00112218 -8.73473e-10 4.91151e-11 -5.7174e-11 5e-05 1.46608e-10 
126 1 0.151532 0.0163795 0.00773301 0.00520776 -0.0010651 0.00185315 -2.98212e-10 -4.22705e-11 1.54995e-11 5e-05 1.46608e-10 
127 1 0.145571 0.0163184 0.00852002 0.0280824 -3.58142e-05 -0.00663174 -3.39407e-10 6.69823e-10 -4.2487e-10 5e-05 1.46608e-10 
128 1 0.151609 0.016715 0.00753014 0.00526041 -0.00181537 0.000651478 2.39464e-10 7.62507e-10 -2.02572e-10 5e-05 1.46608e-10 
129 1 0.151863 0.0177464 0.00727716 0.00589244 -0.0016098 0.00102162 1.21871e-10 -3.65735e-10 1.50338e-10 5e-05 1.46608e-10 
131 1 0.14625 0.0180064 0.00708125 0.0023539 -0.00168339 0.000698805 -1.79926e-10 3.31719e-10 -5.19929e-11 5e-05 1.46608e-10 
132 1 0.151959 0.0176803 0.00730191 0.00536921 -0.002671 0.000986386 1.10702e-09 1.0389e-09 3.66103e-11 5e-05 1.46608e-10 
133 1 0.15189 0.0179683 0.00728585 0.00545401 -0.00248415 0.0011113 -9.89776e-11 2.63496e-10 2.19347e-10 5e-05 1.46608e-10 
134 1 0.151705 0.0167424 0.00751596 0.00537311 -0.00215792 0.000609561 4.83453e-10 -7.86993e-10 -1.21175e-10 5e-05 1.46608e-10 
135 1 0.151229 0.0155904 0.00896039 0.00553517 -0.000614107 0.00119191 -2.45843e-10 -6.31118e-10 9.6656e-10 5e-05 1.46608e-10 
136 1 0.148657 0.0188641 0.00682414 -0.0164322 -0.0156489 0.0092033 0 0 -1.43822e-09 5e-05 1.46608e-10 
137 1 0.151687 0.0170852 0.00740059 0.00545577 -0.00213147 0.000597361 -4.38523e-10 3.01585e-10 -4.30595e-11 5e-05 1.46608e-10 
138 1 0.152058 0.018294 0.00724062 0.00539404 -0.00255283 0.00105012 -3.93498e-10 2.79106e-10 -3.9884e-10 5e-05 1.46608e-10 
140 1 0.15191 0.0176681 0.00719889 0.00561238 -0.00209246 0.000711473 8.16574e-10 5.51188e-10 9.57399e-10 5e-05 1.46608e-10 
141 1 0.147552 0.0189223 0.00685301 2.01976e-15 -2.09033e-14 4.98774e-14 2.58494e-26 1.03398e-25 -2.06795e-25 5e-05 1.46608e-10 
142 1 0.146591 0.0188536 0.00686312 0.00224043 0.000762159 0.000233243 4.68316e-10 2.14901e-10 1.2983e-10 5e-05 1.46608e-10 
143 1 0.145176 0.0155335 0.00920773 0.00740412 0.00520544 -0.00569593 5.81741e-11 2.37148e-10 -1.92378e-10 5e-05 1.46608e-10 
144 1 0.148597 0.0200944 0.00730178 -9.65895e-16 1.02492e-14 -2.44585e-14 5.91848e-22 2.63664e-23 -1.57164e-23 5e-05 1.46608e-10 
147 1 0.146582 0.0186051 0.00687568 0.00496902 0.000981457 -0.000248855 -2.21521e-10 1.1846e-11 -2.88341e-11 5e-05 1.46608e-10 
148 1 0.145784 0.0175595 0.00752995 0.00519757 -0.00213823 0.000385325 7.771e-11 -1.18584e-10 1.10699e-10 5e-05 1.46608e-10 
149 1 0.151867 0.0174833 0.00726222 0.00566646 -0.00218826 0.000602225 1.18063e-09 -6.30995e-11 -1.56329e-10 5e-05 1.46608e-10 
150 1 0.00942232 0.0235708 0.00846773 0.0154098 -0.103052 -0.059614 0 0 -1.43822e-09 5e-05 1.46608e-10 
151 1 0.146344 0.0187381 0.00682471 0.00245264 0.000126185 -4.62332e-06 -5.34798e-10 3.50492e-10 1.95786e-10 5e-05 1.46608e-10 
153 1 0.146478 0.01805 0.00706844 0.0270705 0.0214817 -0.00567291 0 0 -1.43822e-09 5e-05 1.46608e-10 
154 1 0.148095 0.0193634 0.00701581 9.40472e-15 -9.73162e-14 2.32273e-13 -8.71771e-24 -4.3427e-24 -2.06795e-24 5e-05 1.46608e-10 
155 1 0.145803 0.0176355 0.00746787 0.0052374 -0.0021659 0.000397805 -3.70997e-11 -2.34199e-10 1.10488e-10 5e-05 1.46608e-10 
156 1 0.146769 0.0187718 0.00682163 0.0025562 0.000386542 5.93152e-05 1.29886e-10 3.15435e-10 1.99823e-10 5e-05 1.46608e-10 
157 1 0.0219312 0.0187687 0.00551176 -3.82384e-14 8.17024e-14 2.9589e-13 -1.01692e-21 -6.78288e-22 5.48007e-23 5e-05 1.46608e-10 
158 1 0.146365 0.0184282 0.00693358 0.0054692 -0.00128708 0.000553462 3.22131e-10 1.01959e-12 -2.01973e-11 5e-05 1.46608e-10 
159 1 0.152193 0.0177629 0.00725529 0.00587519 -0.00223362 0.00114643 -1.03715e-09 1.30071e-10 -1.9358e-10 5e-05 1.46608e-10 
160 1 0.146868 0.0187783 0.00682032 0.00256572 0.000197691 -3.26823e-05 -1.05066e-11 -8.97437e-11 -3.73839e-11 5e-05 1.46608e-10 
162 1 0.146968 0.0187859 0.00681949 0.00258281 0.000158809 -2.41448e-05 1.39642e-10 4.83943e-11 -9.92872e-11 5e-05 1.46608e-10 
164 1 0.146034 0.0181863 0.00701212 0.00551848 -0.00136206 0.000576465 1.2598e-10 -1.25033e-10 1.6175e-11 5e-05 1.46608e-10 
165 1 0.146296 0.0186546 0.00685305 0.00545603 -0.00142588 0.00060116 8.68058e-10 -6.73415e-10 4.42877e-10 5e-05 1.46608e-10 
166 1 0.152102 0.0185456 0.00725568 0.00523304 -0.00295196 0.000995292 1.94057e-10 -4.14967e-10 3.36141e-11 5e-05 1.46608e-10 
168 1 0.146127 0.0181351 0.00703178 0.00533295 -0.00133154 0.000577753 -6.67435e-10 4.62456e-10 -1.82939e-11 5e-05 1.46608e-10 
169 1 0.146026 0.0185592 0.00693396 0.00540622 -0.00140053 0.00054928 -6.26502e-11 -1.59873e-11 5.50109e-10 5e-05 1.46608e-10 
170 1 0.14623 0.0181903 0.00701434 0.00550587 -0.00127799 0.000547305 -3.31886e-10 9.54463e-11 -4.25495e-11 5e-05 1.46608e-10 
171 1 0.151984 0.0184141 0.00722835 0.00530247 -0.00234414 0.00102314 2.20538e-10 2.3755e-09 -2.27626e-11 5e-05 1.46608e-10 
172 1 0.146138 0.0186819 0.00688699 0.00546156 -0.00150229 0.000598089 5.46234e-11 -1.69631e-10 2.12185e-10 5e-05 1.46608e-10 
173 1 0.152027 0.017797 0.00722212 0.005677 -0.00229798 0.00107616 -1.42168e-09 -4.50274e-10 -3.22751e-10 5e-05 1.46608e-10 
174 1 0.146079 0.0179774 0.00714371 0.00538891 -0.00167594 1.20974e-05 1.39549e-10 5.84e-11 -4.32882e-10 5e-05 1.46608e-10 
175 1 0.13971 0.0171623 0.0072946 0.00548784 -0.000460029 0.000391027 -9.30479e-12 -2.50588e-10 8.29007e-11 5e-05 1.46608e-10 
177 1 0.146078 0.0184134 0.00698083 0.00547954 -0.00136443 0.000564872 -3.68458e-10 -1.7073e-11 7.41222e-10 5e-05 1.46608e-10 
178 1 0.146164 0.0184236 0.00693148 0.00549103 -0.00136013 0.000576046 -3.67132e-10 -9.13879e-11 9.82745e-11 5e-05 1.46608e-10 
179 1 0.146207 0.0186126 0.00686611 0.00544523 -0.00143597 0.00058397 2.42816e-10 -3.48616e-10 1.72051e-10 5e-05 1.46608e-10 
181 1 0.146483 0.018591 0.00687878 0.00518401 -0.000566876 0.000270114 -3.63447e-10 1.32371e-10 1.38866e-10 5e-05 1.46608e-10 
182 1 0.151963 0.0183166 0.00722166 0.00536849 -0.00234307 0.00103687 2.11671e-10 2.42214e-09 2.30535e-10 5e-05 1.46608e-10 
183 1 0.146222 0.0180962 0.00704715 0.00429881 -0.0011879 0.000478266 -3.92003e-11 2.06451e-10 -2.59349e-11 5e-05 1.46608e-10 
184 1 0.151931 0.0177656 0.00720618 0.0056025 -0.00209331 0.000911011 -1.4548e-09 1.43988e-09 7.15829e-10 5e-05 1.46608e-10 
186 1 0.146495 0.0188254 0.00685514 0.00227367 0.00050137 0.000121299 2.57022e-10 1.24178e-11 5.03938e-11 5e-05 1.46608e-10 
187 1 0.151901 0.0180313 0.00720883 0.0054376 -0.00236182 0.0010961 1.71188e-10 4.35361e-11 -8.01019e-10 5e-05 1.46608e-10 
188 1 0.151648 0.0168997 0.00746411 0.00529029 -0.00197787 0.000544896 2.0239e-10 2.81726e-10 -7.55641e-11 5e-05 1.46608e-10 
189 1 0.151996 0.0180593 0.00722212 0.0054917 -0.0023726 0.0010138 -2.66279e-10 1.53668e-09 3.25848e-10 5e-05 1.46608e-10 
190 1 0.139892 0.0175779 0.0072176 0.00598622 -0.00055962 0.000438985 2.2253e-11 9.65787e-13 -1.43035e-12 5e-05 1.46608e-10 
191 1 0.151707 0.017178 0.00736885 0.00548629 -0.00214187 0.000600841 1.03479e-10 1.64679e-10 -2.19489e-11 5e-05 1.46608e-10 
192 1 0.146405 0.0182091 0.00701101 0.00205986 -0.000789896 0.000314518 -4.12837e-10 3.79182e-10 -1.43676e-10 5e-05 1.46608e-10 
193 1 0.151537 0.0162728 0.00790093 0.00616408 -0.000966484 0.00180347 7.78501e-10 -3.88713e-10 5.46926e-10 5e-05 1.46608e-10 
194 1 0.158102 0.0186631 0.00537984 0.0884774 -0.0753265 -0.0100702 -5.30714e-10 2.75479e-10 3.21e-11 5e-05 1.46608e-10 
195 1 0.146289 0.01856 0.00688602 0.00545155 -0.00135958 0.000568634 1.74756e-10 -3.57229e-10 1.24084e-10 5e-05 1.46608e-10 
196 1 0.145651 0.017022 0.00796839 0.0151163 0.048016 -0.0399305 7.67719e-11 2.47209e-10 -2.05331e-10 5e-05 1.46608e-10 
197 1 0.139773 0.0174501 0.00723793 0.00596357 -0.000593178 0.000444764 -2.94814e-11 -1.74081e-10 3.60609e-11 5e-05 1.46608e-10 
198 1 0.148137 0.0188802 0.00681168 9.40021e-15 -9.73166e-14 2.32273e-13 6.00934e-23 1.09601e-23 2.06795e-24 5e-05 1.46608e-10 
199 1 0.147664 0.0188393 0.00681367 5.08431e-22 1.41976e-22 4.83488e-21 3.23117e-27 0 0 5e-05 1.46608e-10 
201 1 0.146114 0.0185795 0.00688327 0.00545371 -0.00145811 0.000596749 7.37828e-11 -5.53135e-10 -5.51342e-11 5e-05 1.46608e-10 
202 1 0.146402 0.0186596 0.00685326 0.00352065 -5.90242e-05 8.8427e-05 5.63078e-10 -3.50891e-10 4.36794e-11 5e-05 1.46608e-10 
203 1 0.151772 0.0174551 0.00727386 0.00557949 -0.00210131 0.000578112 1.90787e-10 8.72899e-11 2.40344e-11 5e-05 1.46608e-10 
204 1 0.145241 0.0157595 0.00902134 0.00840137 0.00490102 -0.00570196 9.50731e-11 2.21444e-10 -1.90455e-10 5e-05 1.46608e-10 
205 1 0.14634 0.0183366 0.00696518 0.0055109 -0.00129165 0.00055414 -5.08289e-10 -5.11262e-10 1.18007e-10 5e-05 1.46608e-10 
206 1 0.145994 0.0180272 0.00712623 0.00534924 -0.001689 3.69915e-05 -3.55594e-10 -2.09729e-10 -3.17721e-10 5e-05 1.46608e-10 
207 1 0.145487 0.0164671 0.0084272 0.00214759 -0.00958327 0.00673317 8.46429e-11 8.81393e-10 -9.95054e-10 5e-05 1.46608e-10 
208 1 0.146683 0.0192704 0.00703403 -9.57501e-16 1.02487e-14 -2.44591e-14 1.8008e-22 -1.65436e-24 -7.65142e-24 5e-05 1.46608e-10 
209 1 0.145706 0.0202178 0.00740811 -5.22924e-16 -2.42232e-15 7.07652e-15 5.55374e-23 5.27328e-24 5.37667e-24 5e-05 1.46608e-10 
210 1 0.151972 0.0179612 0.00721482 0.00583724 -0.00205603 0.00122963 2.59756e-09 1.57387e-09 1.42751e-09 5e-05 1.46608e-10 
211 1 0.151878 0.0179283 0.007195 0.00542889 -0.00261016 0.00111343 1.06249e-09 -3.17441e-10 3.46234e-10 5e-05 1.46608e-10 
212 1 0.146465 0.0183891 0.00694911 0.00455548 -0.00147304 0.000599709 -2.06503e-10 1.79011e-10 -8.08466e-11 5e-05 1.46608e-10 
213 1 0.152039 0.0181962 0.00723423 0.00529146 -0.00257997 0.00100111 -1.04165e-10 1.34569e-09 4.24134e-10 5e-05 1.46608e-10 
214 1 0.151815 0.0176401 0.00721114 0.00558693 -0.00214251 0.000666407 2.74029e-10 8.29527e-10 5.85463e-10 5e-05 1.46608e-10 
215 1 0.13987 0.0174821 0.00723645 0.00600332 -0.000565271 0.00044077 2.2578e-11 -4.83663e-11 9.79043e-12 5e-05 1.46608e-10 
216 1 0.146208 0.0185267 0.00699731 0.00594289 -0.00126617 0.000468684 -9.35813e-11 -1.85775e-10 2.64484e-10 5e-05 1.46608e-10 
217 1 0.152167 0.0184708 0.0072672 0.00528221 -0.00292745 0.00100991 -1.79805e-11 -5.36646e-10 -2.25691e-11 5e-05 1.46608e-10 
218 1 0.145842 0.0177875 0.0073437 0.00539763 -0.00225228 0.000426334 4.85112e-10 4.55931e-10 -3.0853e-10 5e-05 1.46608e-10 
219 1 0.151846 0.0173909 0.00729388 0.0055807 -0.00218384 0.000604166 -9.72708e-11 1.72592e-10 5.92679e-11 5e-05 1.46608e-10 
220 1 0.146237 0.0186861 0.0069268 0.00539172 -0.00138889 0.000574144 4.67872e-10 -5.69313e-10 2.79639e-10 5e-05 1.46608e-10 
221 1 0.139766 0.0170023 0.00733105 0.00551939 -0.000431665 0.000388662 1.58385e-10 -7.93048e-11 2.47378e-11 5e-05 1.46608e-10 
222 1 0.152144 0.0174685 0.00726109 0.00543187 -0.00216972 0.000613286 -3.05059e-10 2.58156e-10 -4.09622e-11 5e-05 1.46608e-10 
223 1 0.146569 0.0187634 0.00682618 0.00257048 0.000679806 0.00018085 1.37582e-11 -1.08154e-10 1.1649e-11 5e-05 1.46608e-10 
224 1 0.147443 0.0198762 0.0076896 2.28706e-10 -0.023548 -0.0050978 5.1415e-19 -4.61629e-12 2.13484e-11 5e-05 1.46608e-10 
225 1 0.151783 0.0171135 0.00738895 0.00553545 -0.0021816 0.000615101 1.23885e-09 -1.19354e-09 4.08718e-10 5e-05 1.46608e-10 
226 1 0.146151 0.0187789 0.0068645 0.00546193 -0.00145127 0.000529889 1.11628e-10 -4.53381e-10 7.10586e-10 5e-05 1.46608e-10 
227 1 0.139827 0.0172906 0.00727412 0.00596917 -0.000550724 0.0004364 9.1264e-11 2.65243e-11 -4.11911e-12 5e-05 1.46608e-10 
228 1 0.13973 0.0172584 0.00727563 0.00597734 -0.000549358 0.000435661 -1.02003e-11 -1.74729e-10 4.05946e-11 5e-05 1.46608e-10 
229 1 0.146337 0.0185272 0.00696771 0.00545723 -0.00130951 0.000563826 1.79252e-10 -3.49835e-10 1.3665e-10 5e-05 1.46608e-10 
230 1 0.145981 0.0183474 0.00695478 0.0058587 -0.00164667 0.00068583 -1.61865e-11 1.08523e-10 -6.35882e-11 5e-05 1.46608e-10 
231 1 0.139691 0.0170659 0.00731372 0.00552802 -0.000471638 0.000394528 1.96406e-10 -1.88385e-10 1.45321e-10 5e-05 1.46608e-10 
232 1 0.147365 0.0188422 0.00682699 9.40153e-15 -9.73165e-14 2.32273e-13 -4.61864e-23 -2.06795e-24 8.27181e-25 5e-05 1.46608e-10 
234 1 0.151963 0.0178164 0.00729654 0.00518159 -0.00275714 0.000759163 -7.47036e-11 -5.68932e-11 -1.22329e-09 5e-05 1.46608e-10 
235 1 0.14622 0.0182847 0.00698112 0.00547304 -0.00131369 0.000561817 -5.77617e-10 3.60623e-10 7.63445e-11 5e-05 1.46608e-10 
236 1 0.145959 0.0182546 0.00698684 0.00570542 -0.00216472 0.000837348 -4.23145e-11 3.9706e-10 -1.41156e-10 5e-05 1.46608e-10 
237 1 0.145919 0.0180922 0.00709639 0.00559306 -0.0022536 0.000549143 -2.753e-10 -8.16035e-11 -3.6143e-10 5e-05 1.46608e-10 
239 1 0.139525 0.0164598 0.00794657 0.00526227 -0.000583888 0.000116945 -2.59831e-10 5.20349e-10 -6.96639e-10 5e-05 1.46608e-10 
240 1 0.139581 0.0166498 0.00772134 0.00539726 -0.000590524 0.00010029 -2.93549e-10 3.03465e-10 -1.58386e-10 5e-05 1.46608e-10 
241 1 0.139508 0.0163972 0.00802256 0.00523343 -0.00059868 0.000140846 -4.83506e-11 5.4543e-10 -6.81573e-10 5e-05 1.46608e-10 
242 1 0.147078 0.0190545 0.00692756 9.40033e-15 -9.73165e-14 2.32273e-13 5.80965e-24 1.13737e-24 4.1359e-25 5e-05 1.46608e-10 
244 1 0.139542 0.0165226 0.00787055 0.00539228 -0.000598365 0.000121596 -5.04076e-10 1.47653e-10 -3.0589e-10 5e-05 1.46608e-10 
246 1 0.139652 0.0169005 0.00741801 0.00552188 -0.000586541 0.000138053 -3.26225e-10 1.82741e-11 6.28481e-10 5e-05 1.46608e-10 
247 1 0.14635 0.0186377 0.00693574 0.00520656 -0.00171162 0.000703653 1.94139e-09 -2.78815e-11 7.27137e-10 5e-05 1.46608e-10 
248 1 0.146001 0.01844 0.00692272 0.0053711 -0.00151858 0.000630799 -4.78489e-12 1.3344e-10 6.37666e-11 5e-05 1.46608e-10 
249 1 0.139966 0.0175131 0.00723513 0.00598863 -0.000557918 0.000438804 -3.18766e-12 5.5105e-11 -1.19219e-11 5e-05 1.46608e-10 
250 1 0.145823 0.0177115 0.00740578 0.00530491 -0.00220505 0.000410093 -4.69397e-10 9.51878e-11 2.66034e-11 5e-05 1.46608e-10 
251 1 0.151793 0.0175475 0.00724219 0.00555348 -0.00212634 0.000578773 2.71035e-10 -1.31356e-10 1.16396e-10 5e-05 1.46608e-10 
252 1 0.139817 0.017642 0.0072002 0.00596444 -0.000584001 0.000442942 2.98757e-11 4.05618e-11 -6.68264e-12 5e-05 1.46608e-10 
253 1 0.139806 0.0171947 0.007293 0.00585119 -0.000514921 0.000422173 -2.4027e-12 6.16122e-11 -8.04616e-12 5e-05 1.46608e-10 
254 1 0.139636 0.0168345 0.00749143 0.00548801 -0.000594702 0.000102417 -3.46477e-12 -1.00993e-10 2.42304e-10 5e-05 1.46608e-10 
255 1 0.147564 0.0188308 0.00681481 -1.26449e-15 2.39485e-14 6.83977e-14 -2.58494e-26 0 0 5e-05 1.46608e-10 
256 1 0.146311 0.0182462 0.0069963 0.00546832 -0.00128226 0.000548706 -7.88087e-10 2.35064e-10 -1.11111e-10 5e-05 1.46608e-10 
257 1 0.14611 0.0185454 0.00698548 0.00625213 -0.000304986 -0.000555813 2.26739e-11 -1.55723e-10 3.2114e-10 5e-05 1.46608e-10 
258 1 0.146216 0.0187105 0.006832 0.00547969 -0.00139263 0.000580265 3.73749e-10 -5.81507e-10 2.92858e-10 5e-05 1.46608e-10 
259 1 0.139839 0.0177378 0.00718137 0.00595866 -0.00058636 0.000443062 3.53225e-11 9.59445e-11 -1.67728e-11 5e-05 1.46608e-10 
261 1 0.146189 0.0185152 0.00689986 0.00548602 -0.00137845 0.000585821 -7.71228e-11 -5.13543e-10 2.44357e-10 5e-05 1.46608e-10 
262 1 0.1459 0.0180154 0.00715744 0.00554059 -0.00230848 0.000455747 -6.35149e-11 -1.86841e-10 -3.75049e-11 5e-05 1.46608e-10 
263 1 0.139615 0.0167725 0.00756705 0.00546395 -0.000580164 9.18016e-05 -2.06294e-10 -7.22136e-11 7.21483e-11 5e-05 1.46608e-10 
264 1 0.146448 0.018482 0.00691628 0.00546211 -0.00130719 0.000557256 6.47758e-11 2.74737e-10 -6.93045e-11 5e-05 1.46608e-10 