ITEM: TIMESTEP
8600000
ITEM: NUMBER OF ATOMS
287
ITEM: BOX BOUNDS ff ff ff
-0.02 0.43
-0.02 0.06
-0.02 0.07
ITEM: ATOMS id type x y z vx vy vz fx fy fz radius mass 
1 1 0.0629938 0.0164897 0.00783838 0.00570432 0.000119184 5.88156e-05 -6.37601e-11 3.94227e-11 -2.98393e-11 5e-05 1.46608e-10 
2 1 0.0634184 0.0174123 0.00716674 0.00621232 7.35752e-05 0.00010581 -7.5364e-11 -4.25398e-11 4.77366e-11 5e-05 1.46608e-10 
3 1 0.0567506 0.0160413 0.00852007 0.00628477 -0.00033319 -0.000358824 1.15561e-10 3.52642e-10 -4.08386e-10 5e-05 1.46608e-10 
4 1 0.0633306 0.0178337 0.00710456 0.00620517 6.31432e-05 -0.000225167 -4.67229e-11 -6.03082e-11 -1.68256e-11 5e-05 1.46608e-10 
5 1 0.0628785 0.0163838 0.00791374 0.00550899 0.000242095 -3.72758e-05 -5.41151e-11 -1.69534e-10 1.34578e-10 5e-05 1.46608e-10 
6 1 0.0689237 0.0165285 0.00773035 0.00544623 -0.000474458 0.00017872 1.52675e-11 -1.49116e-11 1.05848e-11 5e-05 1.46608e-10 
7 1 0.0630617 0.017094 0.00739303 0.00611715 0.000120797 6.82757e-05 -8.00384e-14 1.3352e-10 -1.16371e-10 5e-05 1.46608e-10 
8 1 0.0627805 0.0159884 0.00820371 0.00544142 0.000236022 -3.46191e-05 -1.54439e-10 -3.23435e-11 2.57741e-11 5e-05 1.46608e-10 
9 1 0.0691876 0.0176215 0.00716382 0.00605502 -0.00058312 0.000244916 4.18948e-12 -2.02627e-12 -2.90379e-12 5e-05 1.46608e-10 
10 1 0.0630003 0.0168572 0.00756665 0.00599414 0.000153755 4.15592e-05 -3.33355e-11 5.77291e-11 -5.10216e-11 5e-05 1.46608e-10 
11 1 0.0634545 0.0175895 0.00709257 0.00628747 0.000113358 -4.76744e-05 2.49905e-11 -1.40655e-11 2.39563e-12 5e-05 1.46608e-10 
12 1 0.056948 0.0166746 0.00777977 0.00577156 -0.000122525 -0.00046751 9.94376e-11 -1.27323e-10 -2.24256e-10 5e-05 1.46608e-10 
13 1 0.0628589 0.0163047 0.00797173 0.00549201 0.000232475 -3.05267e-05 9.37117e-11 -1.95354e-10 1.47527e-10 5e-05 1.46608e-10 
14 1 0.0566559 0.0157902 0.00881661 0.00696319 -0.000550187 -0.000196516 1.35947e-09 -5.40537e-10 6.80515e-10 5e-05 1.46608e-10 
15 1 0.0632024 0.0172796 0.00725936 0.00625784 5.55571e-05 0.000120465 6.5361e-11 1.97235e-10 -1.50979e-10 5e-05 1.46608e-10 
16 1 0.0566302 0.0157279 0.00889046 0.00652745 -0.000474796 -0.000225178 1.14428e-10 -6.68417e-10 7.13502e-10 5e-05 1.46608e-10 
17 1 0.0629808 0.0167823 0.00763001 0.00594888 0.000158913 3.55502e-05 -6.75031e-11 6.34232e-11 -8.99002e-11 5e-05 1.46608e-10 
18 1 0.0690631 0.0170881 0.00733368 0.00602532 -0.00057966 0.000237652 -1.54039e-11 4.41655e-12 4.44866e-12 5e-05 1.46608e-10 
19 1 0.0628392 0.0162257 0.00802972 0.00548713 0.000222214 -2.26231e-05 -1.18298e-10 -2.0956e-10 1.49503e-10 5e-05 1.46608e-10 
21 1 0.0629737 0.0164107 0.0078963 0.00563063 0.000118694 5.73088e-05 -2.19081e-10 3.85519e-11 -3.10421e-11 5e-05 1.46608e-10 
22 1 0.0631042 0.0172516 0.00727753 0.00621297 0.00010535 8.26546e-05 1.21318e-10 1.22322e-10 -1.05681e-10 5e-05 1.46608e-10 
23 1 0.0571212 0.0169653 0.00746584 0.00616453 0.000274713 -0.000180696 2.598e-10 -2.29349e-10 1.8709e-10 5e-05 1.46608e-10 
24 1 0.0691245 0.0173282 0.00716526 0.00615888 -0.000610195 0.000249638 5.49273e-11 7.04097e-11 -2.54057e-12 5e-05 1.46608e-10 
25 1 0.0630418 0.017015 0.00745099 0.00608205 0.000129191 6.12415e-05 2.41429e-11 9.94238e-11 -8.26187e-11 5e-05 1.46608e-10 
26 1 0.0690023 0.0168485 0.00750357 0.00546987 -0.000479322 0.00018174 -1.20131e-10 -8.77921e-12 3.39744e-12 5e-05 1.46608e-10 
27 1 0.0570232 0.0169397 0.00749004 0.00610545 0.000236323 -0.000133197 2.24318e-11 2.48963e-11 -1.09808e-10 5e-05 1.46608e-10 
28 1 0.06331 0.017736 0.00710023 0.00624742 6.32613e-05 -0.00022762 6.89376e-12 -1.13854e-10 4.59834e-11 5e-05 1.46608e-10 
29 1 0.0628196 0.0161466 0.00808771 0.00545395 0.000207057 -1.23534e-05 1.43698e-10 -1.79823e-10 1.41939e-10 5e-05 1.46608e-10 
30 1 0.0633249 0.0174719 0.00712027 0.00628659 0.000118519 7.22996e-05 -2.43501e-11 -1.18091e-10 8.68401e-11 5e-05 1.46608e-10 
31 1 0.0630821 0.017173 0.00733516 0.00616207 0.000113219 7.53826e-05 1.43589e-11 1.53097e-10 -1.15827e-10 5e-05 1.46608e-10 
32 1 0.0631803 0.0172005 0.00731734 0.00617572 7.13302e-05 0.000106289 8.46643e-11 1.48013e-10 -8.76863e-11 5e-05 1.46608e-10 
33 1 0.0689434 0.0166085 0.00767365 0.00545173 -0.00047554 0.000179424 -5.34191e-11 2.02064e-11 -1.31435e-11 5e-05 1.46608e-10 
34 1 0.0629599 0.0166998 0.00768234 0.00591805 0.00016494 2.95386e-05 -9.52528e-11 5.3355e-11 -8.3339e-11 5e-05 1.46608e-10 
35 1 0.0631582 0.0171218 0.00737498 0.00613986 8.33332e-05 9.69092e-05 -3.60048e-11 1.54937e-10 -1.16448e-10 5e-05 1.46608e-10 
36 1 0.0692297 0.017817 0.00716286 0.00598942 -0.000573106 0.00024231 1.25143e-11 3.44669e-11 -1.56629e-12 5e-05 1.46608e-10 
37 1 0.0631176 0.0169635 0.00749103 0.00606186 0.000108586 7.65172e-05 6.20295e-12 1.10227e-10 -7.18003e-11 5e-05 1.46608e-10 
38 1 0.0632795 0.0172294 0.00729853 0.00625721 3.43587e-05 0.00013606 -1.22499e-11 1.29797e-10 -8.29497e-11 5e-05 1.46608e-10 
39 1 0.0691456 0.0174259 0.00716478 0.00612604 -0.000604289 0.000247884 5.07796e-11 -8.00258e-13 2.12907e-12 5e-05 1.46608e-10 
41 1 0.0629186 0.0165418 0.00779789 0.00576449 0.000193547 5.76264e-06 -4.00412e-11 -3.81433e-11 2.69031e-11 5e-05 1.46608e-10 
42 1 0.0631259 0.0173306 0.00722007 0.00627528 9.36725e-05 9.25506e-05 1.2417e-11 9.00653e-11 -8.56467e-11 5e-05 1.46608e-10 
44 1 0.063298 0.0173096 0.00723963 0.00634592 0.000111049 8.20248e-05 -2.5012e-10 7.46353e-11 -4.36546e-11 5e-05 1.46608e-10 
45 1 0.068963 0.0166885 0.00761696 0.00546022 -0.000476756 0.000180149 -5.28163e-11 5.05249e-11 -3.41697e-11 5e-05 1.46608e-10 
46 1 0.0690435 0.0170081 0.00739038 0.00586862 -0.000553452 0.000223046 8.66744e-11 4.61367e-12 -1.45841e-12 5e-05 1.46608e-10 
47 1 0.0629391 0.0166208 0.00774001 0.00586006 0.000178243 1.90275e-05 -2.55335e-11 1.64342e-11 -2.56599e-11 5e-05 1.46608e-10 
48 1 0.0631651 0.0175064 0.0071483 0.0063054 8.61756e-05 6.56854e-05 1.55309e-10 3.08529e-11 1.88046e-10 5e-05 1.46608e-10 
49 1 0.0690224 0.0169284 0.00744692 0.0055921 -0.000501819 0.00019394 -4.38612e-11 1.69978e-11 -5.34327e-12 5e-05 1.46608e-10 
50 1 0.0632292 0.0177947 0.0071063 0.00625081 6.77729e-05 -0.00022618 9.9281e-11 1.40714e-10 -1.69194e-10 5e-05 1.46608e-10 
51 1 0.0632082 0.0176969 0.00710716 0.00626702 6.16038e-05 -0.000132706 7.95627e-11 1.01011e-10 1.87449e-10 5e-05 1.46608e-10 
52 1 0.0569293 0.0166095 0.00785335 0.0056754 -0.000165038 -0.000492918 2.11031e-10 -3.06768e-11 -1.50104e-10 5e-05 1.46608e-10 
53 1 0.0690859 0.0171675 0.00727732 0.00606273 -0.000591701 0.000243788 -3.90211e-11 -1.86757e-11 1.60769e-11 5e-05 1.46608e-10 
54 1 0.0629537 0.0163317 0.00795424 0.00547969 0.000135013 4.13466e-05 -1.94048e-10 3.3099e-11 -3.17469e-11 5e-05 1.46608e-10 
55 1 0.0567046 0.0159155 0.00866853 0.00648148 -0.000382858 -0.000324448 1.05035e-09 -1.92203e-10 7.43933e-11 5e-05 1.46608e-10 
56 1 0.0631378 0.0170428 0.00743287 0.00610401 0.00010535 7.97835e-05 -9.34237e-11 1.11661e-10 -8.73697e-11 5e-05 1.46608e-10 
57 1 0.0689827 0.0167685 0.00756026 0.00546327 -0.000478866 0.000181609 9.1012e-11 2.20565e-11 -2.14421e-11 5e-05 1.46608e-10 
59 1 0.0631952 0.0169138 0.00752985 0.00601886 6.10736e-05 0.000109536 3.95015e-11 1.25746e-10 -8.36278e-11 5e-05 1.46608e-10 
60 1 0.0632152 0.016993 0.00747176 0.00607333 7.55407e-05 0.00010058 -2.23541e-10 5.06643e-11 -4.01467e-11 5e-05 1.46608e-10 
61 1 0.0628985 0.0164628 0.0078558 0.00561897 0.000224981 -2.17244e-05 4.33665e-11 -1.8796e-10 1.32501e-10 5e-05 1.46608e-10 
62 1 0.0633191 0.0173885 0.00718185 0.00634481 0.000109583 8.59181e-05 3.27788e-10 2.12562e-10 -1.31412e-10 5e-05 1.46608e-10 
63 1 0.0632679 0.017548 0.00715122 0.00628483 0.000113101 6.07289e-05 6.98318e-11 -5.00298e-11 1.59747e-10 5e-05 1.46608e-10 
64 1 0.0691111 0.0172464 0.00722125 0.00613311 -0.000609737 0.000252645 -2.23427e-10 4.80103e-11 -8.81496e-12 5e-05 1.46608e-10 
65 1 0.0570442 0.0166925 0.00774864 0.00582877 -7.49771e-05 -0.000380957 -3.7192e-10 -3.64286e-10 -1.45991e-10 5e-05 1.46608e-10 
66 1 0.0569896 0.0164993 0.00797154 0.00546575 -0.000135907 -0.000491217 4.57192e-10 -7.92795e-11 -1.28726e-11 5e-05 1.46608e-10 
67 1 0.0634252 0.0174926 0.00710751 0.00629101 6.79875e-05 0.000118566 7.15965e-11 -2.98001e-11 5.55016e-11 5e-05 1.46608e-10 
68 1 0.0633838 0.0176688 0.00709397 0.00626318 5.79635e-05 -0.00023148 -4.15955e-11 -7.2137e-12 5.99297e-11 5e-05 1.46608e-10 
69 1 0.0630562 0.0167266 0.00766474 0.00592649 0.000136859 5.15321e-05 -8.89904e-11 8.79433e-11 -7.32019e-11 5e-05 1.46608e-10 
70 1 0.0691666 0.0175237 0.0071643 0.00608737 -0.000592351 0.000246239 -4.01482e-11 -2.11857e-11 4.73623e-13 5e-05 1.46608e-10 
71 1 0.0566816 0.0158526 0.00874275 0.00660677 -0.000430113 -0.000291518 -1.23803e-10 -6.44505e-10 7.24269e-10 5e-05 1.46608e-10 
72 1 0.0633575 0.0175656 0.00709756 0.00629982 7.32706e-05 6.97493e-05 6.24621e-11 2.67123e-11 1.13098e-10 5e-05 1.46608e-10 
73 1 0.0630212 0.0169361 0.00750884 0.0060468 0.000139709 5.31403e-05 -4.61662e-11 8.60437e-11 -6.68853e-11 5e-05 1.46608e-10 
74 1 0.0632209 0.0173599 0.00720048 0.00632985 0.000105525 8.53217e-05 -2.3206e-10 -5.58478e-11 7.68727e-12 5e-05 1.46608e-10 
76 1 0.0572608 0.0175484 0.00720631 0.00614227 0.000202094 -7.16098e-05 3.73029e-11 3.63616e-10 -5.52853e-12 5e-05 1.46608e-10 
77 1 0.0634751 0.0185179 0.00713492 0.00593256 0.000131205 -0.000213721 1.25238e-10 3.93803e-11 -2.37277e-12 5e-05 1.46608e-10 
78 1 0.0567736 0.0161043 0.00844583 0.0062113 -0.000323777 -0.000360474 2.99404e-10 -4.34257e-11 1.28313e-11 5e-05 1.46608e-10 
79 1 0.0569666 0.0167389 0.00770549 0.00583429 -1.07272e-05 -0.000368499 2.4011e-10 -1.10946e-10 -2.55345e-10 5e-05 1.46608e-10 
80 1 0.0632912 0.0180879 0.00711931 0.00612346 8.67452e-05 -0.000227135 -2.03032e-10 -3.23948e-11 -1.90011e-11 5e-05 1.46608e-10 
81 1 0.0569118 0.0165455 0.00792816 0.00558427 -0.000159521 -0.000478901 2.01193e-10 3.60666e-11 -7.95909e-11 5e-05 1.46608e-10 
82 1 0.0570433 0.0170089 0.00742069 0.00615419 0.00023647 -0.000137617 2.51305e-10 -2.48351e-11 -4.5227e-11 5e-05 1.46608e-10 
83 1 0.0570483 0.0163819 0.0080981 0.00550018 -0.000118807 -0.000512471 3.11546e-10 5.80319e-11 -1.28288e-10 5e-05 1.46608e-10 
84 1 0.0692087 0.0177192 0.00716334 0.00601891 -0.000577707 0.000243851 -1.13416e-11 1.06972e-11 1.49088e-13 5e-05 1.46608e-10 
85 1 0.0568689 0.0161182 0.0084188 0.00619138 -0.000252128 -0.000440362 -8.40531e-11 -2.81063e-10 3.3679e-10 5e-05 1.46608e-10 
86 1 0.0632891 0.0176382 0.00710416 0.0062838 7.26603e-05 -5.24745e-05 1.04926e-11 -2.79726e-11 2.06304e-10 5e-05 1.46608e-10 
87 1 0.0631746 0.0168348 0.00758771 0.00599503 9.05377e-05 8.83528e-05 -1.14494e-10 -8.61768e-11 5.75254e-11 5e-05 1.46608e-10 
88 1 0.0633531 0.0183811 0.00713232 0.00598348 7.79256e-05 -0.000217902 1.28521e-10 -2.3128e-11 -2.95234e-11 5e-05 1.46608e-10 
89 1 0.0633118 0.0181856 0.00712365 0.00606943 8.53775e-05 -0.000220131 -1.35768e-10 -1.17533e-10 5.6701e-11 5e-05 1.46608e-10 
90 1 0.0633978 0.0173334 0.0072246 0.00617115 8.43516e-05 9.59745e-05 -1.5388e-10 2.6485e-12 -1.25413e-11 5e-05 1.46608e-10 
91 1 0.0569855 0.0168044 0.00763231 0.00596593 8.29032e-05 -0.000270487 -2.04993e-10 2.48884e-10 -4.68426e-11 5e-05 1.46608e-10 
92 1 0.0634256 0.0178649 0.00710266 0.00619222 0.000104793 -0.000224961 -6.12237e-11 -2.62993e-11 4.22117e-11 5e-05 1.46608e-10 
93 1 0.0634132 0.0182247 0.00712191 0.00602491 0.000100437 -0.000218953 7.08811e-11 9.01271e-11 1.02054e-11 5e-05 1.46608e-10 
94 1 0.0634875 0.0181581 0.00711567 0.00605183 0.000132982 -0.000218242 -1.69056e-10 -3.74375e-11 1.04619e-11 5e-05 1.46608e-10 
95 1 0.0632705 0.0179901 0.00711498 0.00616188 8.7458e-05 -0.000235354 -1.51945e-11 4.84539e-12 8.46629e-11 5e-05 1.46608e-10 
96 1 0.0634462 0.0179626 0.00710699 0.00614984 0.000114341 -0.00022281 -1.99916e-10 2.12472e-12 8.69631e-12 5e-05 1.46608e-10 
97 1 0.056874 0.016418 0.00807751 0.00548682 -0.000164654 -0.000453275 1.78357e-10 -7.8449e-11 1.16531e-11 5e-05 1.46608e-10 
98 1 0.0633737 0.0184789 0.00713666 0.00594409 7.64534e-05 -0.000216921 6.51795e-11 -5.44749e-12 -2.22111e-11 5e-05 1.46608e-10 
99 1 0.0570252 0.0166273 0.00782209 0.00570944 -0.000180908 -0.000478546 2.06039e-10 -2.61242e-10 -2.92013e-10 5e-05 1.46608e-10 
100 1 0.0633533 0.017176 0.00733989 0.00627043 3.1523e-05 0.000138246 -9.22287e-11 6.62785e-11 -5.66948e-11 5e-05 1.46608e-10 
101 1 0.0569707 0.0164355 0.00804622 0.00544022 -0.000124951 -0.000496578 3.58782e-10 1.54584e-10 -1.88107e-10 5e-05 1.46608e-10 
102 1 0.0643568 0.0187248 0.00531097 4.46068e-15 1.04619e-14 8.29546e-14 -1.16387e-21 4.48254e-22 8.27181e-25 5e-05 1.46608e-10 
103 1 0.24257 0.0191927 0.00520306 2.62458e-22 4.86658e-23 1.23839e-22 -3.23117e-27 0 0 5e-05 1.46608e-10 
104 1 0.0572765 0.017219 0.00728214 0.00624447 0.000149769 -4.18843e-05 -5.4387e-11 2.19116e-10 1.65338e-10 5e-05 1.46608e-10 
105 1 0.0568437 0.0163104 0.00824136 0.00537563 -0.000160319 -0.000435989 -2.43091e-10 -3.52021e-10 -3.19725e-10 5e-05 1.46608e-10 
106 1 0.0573486 0.0171498 0.00728372 0.00623061 0.000131597 -3.3002e-05 -2.61028e-10 1.07407e-10 -8.43481e-11 5e-05 1.46608e-10 
107 1 0.0567958 0.0161674 0.00837151 0.00611813 -0.000304655 -0.000372511 -9.04255e-11 -2.38731e-10 2.64442e-10 5e-05 1.46608e-10 
108 1 0.063097 0.0168846 0.00754888 0.00602251 0.000115702 6.83064e-05 1.23018e-11 5.72821e-11 -3.78025e-11 5e-05 1.46608e-10 
109 1 0.0631878 0.0176001 0.00712155 0.0062869 7.21113e-05 -5.31857e-06 9.98417e-11 7.39968e-11 3.6811e-10 5e-05 1.46608e-10 
110 1 0.0635449 0.0179787 0.00710416 0.0061437 0.000163524 -0.000220048 -2.01205e-10 2.449e-11 9.19107e-12 5e-05 1.46608e-10 
111 1 0.063415 0.0186744 0.00714533 0.0058556 7.73471e-05 -0.000213725 -4.65758e-11 -2.43509e-11 -2.08947e-12 5e-05 1.46608e-10 
112 1 0.0568924 0.0164818 0.00800279 0.00554586 -0.000164286 -0.0004626 -3.8279e-10 -1.45992e-11 -5.12584e-12 5e-05 1.46608e-10 
113 1 0.0576532 0.0176874 0.00719927 0.00615388 0.000243178 -7.23098e-05 -1.18689e-10 -6.53618e-11 4.44652e-12 5e-05 1.46608e-10 
114 1 0.0572187 0.0169827 0.00745224 0.00618163 0.000166364 -9.87085e-05 -1.27172e-10 2.28252e-10 -3.01431e-10 5e-05 1.46608e-10 
115 1 0.0632447 0.0174552 0.00718062 0.0063177 9.71172e-05 6.61599e-05 1.6884e-10 -2.93012e-11 -2.24811e-11 5e-05 1.46608e-10 
116 1 0.0630761 0.0168057 0.00760669 0.00597188 0.000123664 6.39876e-05 -1.51642e-10 -1.11512e-11 -3.55525e-11 5e-05 1.46608e-10 
117 1 0.062934 0.0162526 0.00801222 0.00538577 0.000142169 3.36918e-05 2.21263e-10 -2.43898e-11 2.39831e-11 5e-05 1.46608e-10 
118 1 0.0567276 0.0159784 0.00859429 0.006368 -0.000349942 -0.000350219 -1.71635e-10 3.72297e-10 -3.76547e-10 5e-05 1.46608e-10 
119 1 0.0632357 0.0170719 0.00741389 0.00612204 6.45657e-05 0.000109925 -9.1851e-11 5.80723e-11 -4.44152e-11 5e-05 1.46608e-10 
120 1 0.0628001 0.0160675 0.00814571 0.00540545 0.00022867 -3.00778e-05 1.64895e-10 -9.74525e-11 7.93269e-11 5e-05 1.46608e-10 
121 1 0.0627608 0.0159094 0.00826168 0.00559809 0.000211002 -1.19319e-05 1.03496e-10 3.09475e-11 -3.43632e-11 5e-05 1.46608e-10 
122 1 0.0635656 0.0180764 0.0071085 0.00608251 0.00018917 -0.000216378 -3.03425e-10 -1.43836e-11 1.36388e-11 5e-05 1.46608e-10 
123 1 0.0569145 0.0162442 0.0082703 0.00596132 -0.000206808 -0.000465353 9.51511e-11 -2.96676e-10 3.15968e-10 5e-05 1.46608e-10 
124 1 0.0633719 0.0180292 0.00711324 0.0061149 7.41005e-05 -0.000225319 -2.1241e-10 5.32798e-11 -1.59947e-11 5e-05 1.46608e-10 
125 1 0.0629144 0.0161736 0.00807021 0.00540858 0.000132376 4.13613e-05 1.7675e-11 9.39098e-13 -1.71349e-12 5e-05 1.46608e-10 
126 1 0.0631434 0.0174097 0.00716158 0.00630442 9.55418e-05 9.46087e-05 -3.37804e-12 5.97043e-11 -1.78178e-11 5e-05 1.46608e-10 
127 1 0.0568555 0.0163541 0.00815224 0.00542787 -0.00016735 -0.000442431 2.564e-10 -1.70242e-10 7.22348e-12 5e-05 1.46608e-10 
128 1 0.0632499 0.0178924 0.00711063 0.00621195 7.76677e-05 -0.00022783 1.19034e-10 5.53656e-11 -3.12012e-11 5e-05 1.46608e-10 
129 1 0.0633324 0.0182834 0.00712798 0.00602081 7.91877e-05 -0.000218828 5.54137e-11 -8.27781e-11 2.50195e-11 5e-05 1.46608e-10 
130 1 0.0571349 0.017052 0.00741602 0.00622004 0.000102236 -0.000174542 -1.00599e-09 1.43057e-10 8.3204e-10 5e-05 1.46608e-10 
131 1 0.0570068 0.0165633 0.00789671 0.00559744 -0.0001483 -0.000477376 1.16016e-09 -3.52501e-10 3.4935e-11 5e-05 1.46608e-10 
132 1 0.0633512 0.0179315 0.0071089 0.00615639 6.28995e-05 -0.000224958 -2.24473e-10 -4.5827e-11 1.69806e-11 5e-05 1.46608e-10 
133 1 0.0630918 0.0165189 0.00781927 0.0057968 0.000114765 6.44977e-05 -3.07888e-10 2.56593e-11 -2.69733e-11 5e-05 1.46608e-10 
134 1 0.0632578 0.0171506 0.00735623 0.00615829 4.74243e-05 0.000122566 3.68474e-12 1.10099e-10 -8.27579e-11 5e-05 1.46608e-10 
135 1 0.0628947 0.0160945 0.0081282 0.00535055 0.000137626 3.57247e-05 5.01005e-10 -7.85077e-11 6.98469e-11 5e-05 1.46608e-10 
136 1 0.0568467 0.0160551 0.00849313 0.00625233 -0.000269845 -0.000427182 1.70769e-10 -1.83143e-10 1.89598e-10 5e-05 1.46608e-10 
137 1 0.0634357 0.0187721 0.00714967 0.00581591 7.9693e-05 -0.000212147 2.12122e-11 4.19502e-11 2.38504e-12 5e-05 1.46608e-10 
138 1 0.0630352 0.0166477 0.00772253 0.00589682 0.00013778 4.95468e-05 -1.23694e-10 6.52337e-11 -5.49605e-11 5e-05 1.46608e-10 
140 1 0.0635825 0.0181893 0.00711376 0.00603672 0.000188768 -0.000214683 -2.42925e-10 4.05497e-11 9.31895e-12 5e-05 1.46608e-10 
141 1 0.056891 0.0161813 0.00834447 0.00609423 -0.000234154 -0.000448679 6.73216e-11 -5.707e-10 6.38917e-10 5e-05 1.46608e-10 
142 1 0.0572284 0.0170517 0.00738057 0.00620457 0.000168111 -9.54582e-05 -1.38433e-10 2.31164e-10 -6.61607e-11 5e-05 1.46608e-10 
143 1 0.0568185 0.0162309 0.00829662 0.0061557 -0.000344696 -0.000325689 1.64987e-10 1.33421e-10 -1.05992e-10 5e-05 1.46608e-10 
144 1 0.0572038 0.016912 0.00752141 0.00611101 0.000172474 -0.000104833 -5.38201e-11 1.4319e-10 -3.6196e-10 5e-05 1.46608e-10 
146 1 0.0570675 0.0164456 0.00802346 0.00548484 -0.00012367 -0.000506503 7.44563e-11 -4.99695e-11 9.72389e-12 5e-05 1.46608e-10 
147 1 0.0568237 0.0159922 0.0085674 0.0063344 -0.000302208 -0.000400493 -5.89443e-11 -4.56096e-10 5.21668e-10 5e-05 1.46608e-10 
148 1 0.0571006 0.0172191 0.00721456 0.00634329 0.000246514 -7.58367e-05 -3.66076e-10 1.14947e-10 1.72515e-10 5e-05 1.46608e-10 
149 1 0.0635082 0.0182559 0.00712001 0.00600979 0.000139633 -0.000216159 6.6956e-11 -1.67116e-10 -1.39218e-11 5e-05 1.46608e-10 
150 1 0.0571067 0.0165743 0.00787558 0.00559989 -5.27238e-05 -0.000420252 1.97192e-10 2.88976e-10 -7.45355e-11 5e-05 1.46608e-10 
151 1 0.057443 0.017174 0.00726095 0.00611367 0.000165665 -6.72844e-05 9.43093e-11 1.29562e-10 -2.09988e-10 5e-05 1.46608e-10 
153 1 0.0569514 0.0163719 0.00812086 0.00551941 -0.000143861 -0.000484255 2.88574e-10 6.35907e-11 -5.76685e-11 5e-05 1.46608e-10 
154 1 0.0571979 0.0172552 0.00721278 0.00629315 0.00019585 -7.9025e-05 -3.01737e-10 2.50934e-10 1.92862e-11 5e-05 1.46608e-10 
155 1 0.0572818 0.0176462 0.00720415 0.0061123 0.00020275 -7.08161e-05 2.01916e-10 1.66485e-10 4.62482e-12 5e-05 1.46608e-10 
156 1 0.057178 0.01717 0.00726114 0.00631971 0.000194893 -7.99085e-05 -4.55982e-10 3.94821e-10 9.69345e-11 5e-05 1.46608e-10 
157 1 0.0219312 0.0187687 0.00551176 -3.83984e-14 8.16201e-14 2.95892e-13 2.25148e-22 -2.04055e-22 8.18909e-23 5e-05 1.46608e-10 
158 1 0.0573022 0.0173053 0.00723855 0.00625031 0.000143683 -4.51659e-05 1.42342e-11 1.10238e-10 -4.50167e-11 5e-05 1.46608e-10 
159 1 0.063405 0.0177671 0.00709832 0.0062348 9.40618e-05 -0.000225761 2.57774e-11 5.2568e-13 5.75206e-11 5e-05 1.46608e-10 
160 1 0.0571853 0.0176139 0.00720584 0.00618869 0.00021248 -7.07729e-05 -8.82586e-11 -1.12092e-10 1.94232e-11 5e-05 1.46608e-10 
162 1 0.0572189 0.0173529 0.00721065 0.00628242 0.000199247 -7.26252e-05 -3.07854e-11 1.93598e-10 1.14548e-10 5e-05 1.46608e-10 
164 1 0.0574513 0.0179862 0.00719559 0.00605257 0.000197807 -7.06576e-05 -9.89148e-11 -1.29397e-11 1.06883e-12 5e-05 1.46608e-10 
165 1 0.0575161 0.0174598 0.00720526 0.00622249 0.000217556 -7.28065e-05 -1.89568e-10 1.69965e-10 -1.2195e-11 5e-05 1.46608e-10 
166 1 0.0630509 0.0163606 0.00793535 0.0055687 3.56211e-05 0.000117125 -1.3662e-10 5.23113e-11 -4.24752e-11 5e-05 1.46608e-10 
167 1 0.0570894 0.0165087 0.00794909 0.00548625 -0.00011482 -0.000506768 1.01389e-10 2.31836e-10 -7.9321e-11 5e-05 1.46608e-10 
168 1 0.0573484 0.0172204 0.00721265 0.00619221 0.000119871 -2.53005e-05 -1.56835e-11 2.89394e-11 -1.63046e-11 5e-05 1.46608e-10 
169 1 0.0575794 0.0177548 0.00719875 0.0061328 0.000221625 -7.1372e-05 -1.21775e-10 -1.20866e-10 8.35089e-12 5e-05 1.46608e-10 
170 1 0.0574208 0.0174296 0.0072069 0.006248 0.00015492 -6.93462e-05 -9.53897e-11 6.36452e-11 1.05724e-11 5e-05 1.46608e-10 
171 1 0.063071 0.0164396 0.00787742 0.00562227 4.1628e-05 0.00011409 -7.31185e-11 1.73692e-10 -1.30794e-10 5e-05 1.46608e-10 
172 1 0.0574914 0.0173586 0.00720753 0.00630639 0.000197474 -7.4199e-05 -2.80488e-10 -1.10771e-11 -6.50147e-12 5e-05 1.46608e-10 
173 1 0.0635215 0.0175153 0.00709321 0.00628147 9.83463e-05 9.48287e-05 3.28708e-12 -5.59166e-11 3.49567e-11 5e-05 1.46608e-10 
174 1 0.0573472 0.0174973 0.00720637 0.0062156 0.00014366 -7.36842e-05 -5.55065e-11 5.59055e-11 -6.94909e-11 5e-05 1.46608e-10 
175 1 0.0511442 0.0174393 0.00727794 0.00600116 -0.000403222 0.000649244 4.61335e-12 -1.70548e-12 4.07087e-12 5e-05 1.46608e-10 
176 1 0.0571572 0.0171006 0.00733016 0.00622533 0.000201663 -9.99314e-05 -2.88129e-10 2.82531e-10 -2.19401e-10 5e-05 1.46608e-10 
177 1 0.0572272 0.0178095 0.00720153 0.00613938 0.000245798 -7.25991e-05 -6.6961e-11 -1.39835e-10 -1.94828e-12 5e-05 1.46608e-10 
178 1 0.0576327 0.0175895 0.00720143 0.00618636 0.000230018 -7.1815e-05 -1.69548e-10 -5.9758e-11 -5.38996e-13 5e-05 1.46608e-10 
179 1 0.0575582 0.0176562 0.00720093 0.00616674 0.000211824 -7.16706e-05 -1.24827e-10 -7.68213e-11 8.8344e-13 5e-05 1.46608e-10 
181 1 0.0571433 0.0174184 0.00721016 0.00626551 0.000180235 -7.29645e-05 7.20631e-11 1.37919e-10 4.20476e-11 5e-05 1.46608e-10 
182 1 0.0630144 0.0165688 0.00778036 0.00582259 0.00014559 4.24865e-05 -8.3883e-11 6.27908e-11 -5.16003e-11 5e-05 1.46608e-10 
183 1 0.0573957 0.0173297 0.00720917 0.00630921 0.000152159 -7.08405e-05 -1.76546e-10 4.49701e-11 3.05551e-11 5e-05 1.46608e-10 
184 1 0.0633516 0.0177746 0.00718255 0.00622521 6.54203e-05 -0.00022774 -1.75979e-10 1.40975e-11 3.13551e-11 5e-05 1.46608e-10 
185 1 0.0570817 0.0171485 0.00728279 0.00629836 0.000243024 -9.53201e-05 -2.31028e-10 2.64334e-11 -1.79957e-10 5e-05 1.46608e-10 
186 1 0.0571224 0.0173207 0.00721232 0.00629146 0.000172547 -7.08352e-05 -8.42313e-11 1.672e-10 1.1107e-10 5e-05 1.46608e-10 
187 1 0.0633315 0.0170972 0.00739764 0.00617636 5.4942e-05 0.000118862 -2.86605e-11 4.33907e-11 -3.87777e-11 5e-05 1.46608e-10 
188 1 0.0634338 0.0183224 0.00712625 0.00600152 0.000110903 -0.000217622 2.78123e-10 -2.50959e-11 -2.2169e-11 5e-05 1.46608e-10 
189 1 0.0633747 0.0172549 0.00728208 0.00624093 7.42496e-05 0.00010575 -4.82236e-11 6.40817e-11 -4.84111e-11 5e-05 1.46608e-10 
190 1 0.0512448 0.0174753 0.00726958 0.00600567 -0.000409301 0.000653015 -7.91111e-12 -1.95987e-11 6.55472e-12 5e-05 1.46608e-10 
191 1 0.0634563 0.0188699 0.00715401 0.00577319 8.32743e-05 -0.000210469 2.48313e-11 1.46162e-10 7.40343e-12 5e-05 1.46608e-10 
192 1 0.0573099 0.0170113 0.0074226 0.00622358 0.000138257 -3.88464e-05 -2.09654e-10 1.69718e-10 -1.85565e-10 5e-05 1.46608e-10 
193 1 0.0631537 0.0167559 0.00764552 0.00594982 9.87141e-05 8.02015e-05 -2.15375e-10 -4.9084e-11 5.16466e-11 5e-05 1.46608e-10 
194 1 0.0571413 0.0167055 0.00772872 0.00585433 0.000134807 -0.000201269 -4.62697e-10 2.22595e-10 -2.70121e-10 5e-05 1.46608e-10 
195 1 0.0575377 0.0175583 0.00720308 0.00619333 0.00020569 -7.26216e-05 -1.68288e-10 -5.53583e-12 2.68263e-12 5e-05 1.46608e-10 
196 1 0.0566058 0.0156653 0.00896451 0.00571223 -0.000288955 -0.000355318 -5.54429e-10 -2.89567e-10 5.34441e-10 5e-05 1.46608e-10 
197 1 0.0512093 0.0177125 0.00717251 0.00602209 -0.000408305 0.000654044 1.19546e-11 4.62097e-12 -2.78384e-12 5e-05 1.46608e-10 
198 1 0.0570041 0.0168711 0.00756018 0.00605099 0.000187441 -0.000175727 -6.31118e-11 7.31851e-11 -1.45788e-10 5e-05 1.46608e-10 
199 1 0.0572398 0.0174507 0.00720847 0.00620714 0.000202565 -7.0563e-05 -4.10036e-11 4.03265e-10 6.85994e-11 5e-05 1.46608e-10 
200 1 0.0571011 0.0168961 0.00753519 0.00615429 0.00028256 -0.000184271 -1.04278e-10 1.70864e-10 -1.12448e-10 5e-05 1.46608e-10 
201 1 0.0575468 0.0180174 0.00719393 0.00605087 0.000230648 -7.09976e-05 -6.33081e-11 -3.62436e-11 2.16589e-12 5e-05 1.46608e-10 
202 1 0.0573314 0.0170803 0.00735348 0.00622262 0.000136099 -3.57015e-05 1.83244e-10 2.45407e-10 -3.16621e-10 5e-05 1.46608e-10 
203 1 0.0635513 0.0176134 0.00708485 0.00627154 0.000129442 -0.000228448 -6.30336e-12 -7.00083e-11 7.01596e-12 5e-05 1.46608e-10 
204 1 0.0570815 0.0168265 0.00760501 0.00601567 0.000206729 -0.000106999 -1.99668e-10 1.7971e-10 4.19532e-11 5e-05 1.46608e-10 
205 1 0.0574101 0.0177906 0.0071999 0.00612722 0.000173661 -7.00139e-05 -7.46082e-11 -2.56994e-11 1.34649e-11 5e-05 1.46608e-10 
206 1 0.0573678 0.0175952 0.00720552 0.00616999 0.00015558 -8.53211e-05 -2.96521e-12 1.47005e-11 5.68593e-11 5e-05 1.46608e-10 
207 1 0.0569336 0.0163079 0.00819564 0.00571319 -0.000170915 -0.000478279 -2.77316e-10 -5.87194e-12 5.608e-11 5e-05 1.46608e-10 
208 1 0.057326 0.0174005 0.00721962 0.00626209 0.000133407 -5.28341e-05 -9.63169e-11 9.30743e-11 -1.38815e-10 5e-05 1.46608e-10 
209 1 0.0571236 0.0166394 0.00780162 0.0057799 -5.20554e-06 -0.000337347 4.28459e-11 8.19965e-11 -1.70733e-10 5e-05 1.46608e-10 
210 1 0.0631649 0.0174674 0.00724038 0.006329 0.000137888 9.62881e-05 -4.96202e-11 -1.4288e-10 3.26201e-10 5e-05 1.46608e-10 
211 1 0.0634669 0.0180604 0.00711133 0.00609755 0.000126671 -0.000219904 -2.44785e-10 7.67438e-12 -4.57253e-12 5e-05 1.46608e-10 
212 1 0.0574426 0.0175275 0.00720473 0.00619917 0.000193395 -7.1221e-05 -1.13349e-10 5.15971e-11 8.52017e-12 5e-05 1.46608e-10 
213 1 0.0633106 0.0170183 0.00745546 0.00609695 6.63866e-05 0.000108254 -7.66624e-12 2.28385e-11 -1.64115e-11 5e-05 1.46608e-10 
214 1 0.0633925 0.018127 0.00711758 0.00606697 8.6087e-05 -0.000220719 -1.38748e-10 6.41471e-11 -1.32996e-12 5e-05 1.46608e-10 
215 1 0.051219 0.0173791 0.00730566 0.00599972 -0.000403738 0.000649958 4.2184e-12 2.15763e-13 8.05511e-12 5e-05 1.46608e-10 
216 1 0.0572062 0.0177117 0.00720369 0.00615668 0.000224912 -6.9426e-05 1.55862e-11 -1.41205e-10 -2.18179e-11 5e-05 1.46608e-10 
217 1 0.0631126 0.0165978 0.00776145 0.00587038 0.000104554 7.41064e-05 -9.3557e-11 2.50629e-11 -2.33343e-11 5e-05 1.46608e-10 
218 1 0.0573236 0.0178417 0.00719984 0.00607739 0.000209658 -7.04659e-05 1.89165e-11 -2.02184e-11 -1.1018e-11 5e-05 1.46608e-10 
219 1 0.0633944 0.0185766 0.00714099 0.00589926 7.82168e-05 -0.000215233 2.9449e-11 -1.09197e-11 -6.11911e-12 5e-05 1.46608e-10 
220 1 0.0571643 0.0175162 0.007208 0.00624227 0.000194734 -7.24816e-05 -6.40914e-11 -2.38595e-11 6.69562e-12 5e-05 1.46608e-10 
221 1 0.0511099 0.0169223 0.00747803 0.00596435 -0.000407358 0.000648913 -1.85082e-11 1.29675e-11 -2.16186e-11 5e-05 1.46608e-10 
222 1 0.0631336 0.0166767 0.00770364 0.00590548 0.000124008 6.05582e-05 -1.56586e-11 1.64245e-10 -1.27587e-10 5e-05 1.46608e-10 
223 1 0.0572512 0.0171361 0.00733195 0.00622621 0.00014741 -5.68981e-05 1.32477e-10 1.6734e-10 -5.19848e-11 5e-05 1.46608e-10 
224 1 0.0570621 0.0170808 0.00735382 0.00621486 0.00022948 -0.000124622 -1.08794e-10 -1.64683e-10 -1.58704e-10 5e-05 1.46608e-10 
225 1 0.0634823 0.0176855 0.00709118 0.0062636 0.000124748 -0.000229256 -5.85247e-11 -1.16393e-12 -5.48323e-11 5e-05 1.46608e-10 
226 1 0.0574646 0.0172571 0.00720982 0.00628207 0.000114448 -7.28499e-05 -2.18569e-10 9.98046e-11 1.11045e-11 5e-05 1.46608e-10 
227 1 0.0511754 0.0171964 0.00737458 0.00599325 -0.000399879 0.000648321 -8.45396e-12 -2.27337e-12 3.81457e-13 5e-05 1.46608e-10 
228 1 0.0511659 0.0175299 0.00724146 0.00600958 -0.000405102 0.000651726 -1.79541e-11 -2.22223e-11 4.8882e-12 5e-05 1.46608e-10 
229 1 0.0571751 0.0172789 0.00730719 0.00629712 0.000202786 -9.51204e-05 -2.05883e-10 9.32625e-11 -1.82503e-10 5e-05 1.46608e-10 
230 1 0.0574932 0.0181817 0.00719127 0.00598884 0.000214848 -6.96545e-05 -2.13739e-11 -2.13662e-11 -6.6732e-12 5e-05 1.46608e-10 
231 1 0.0511225 0.0173473 0.0073104 0.00599845 -0.000401499 0.000649585 1.42984e-11 1.16692e-11 -9.16369e-12 5e-05 1.46608e-10 
232 1 0.0570338 0.0163174 0.00817313 0.00565439 -0.000137145 -0.00050742 4.28373e-10 2.7729e-10 -3.73533e-10 5e-05 1.46608e-10 
233 1 0.0571607 0.0167743 0.00765881 0.00595274 0.000204136 -0.000112654 -3.73824e-10 6.67018e-11 -1.08148e-10 5e-05 1.46608e-10 
234 1 0.0634545 0.0184202 0.00713059 0.00597685 0.00012048 -0.000215834 2.1008e-10 2.43637e-11 -1.27225e-11 5e-05 1.46608e-10 
235 1 0.0575356 0.0183771 0.0071871 0.00591378 0.000235516 -0.000140856 -6.79153e-12 -4.86161e-11 -4.31596e-11 5e-05 1.46608e-10 
236 1 0.0575141 0.0182795 0.00718911 0.00595468 0.00022557 -6.91136e-05 -1.68638e-11 -2.85959e-11 6.08832e-12 5e-05 1.46608e-10 
237 1 0.0575887 0.0182129 0.00718961 0.00597742 0.000256825 -7.05834e-05 -5.37328e-11 -6.91495e-11 4.16231e-12 5e-05 1.46608e-10 
239 1 0.0509328 0.0165423 0.0076519 0.00552377 -0.00069588 -0.000149749 -6.07495e-11 6.47403e-11 -1.37412e-11 5e-05 1.46608e-10 
240 1 0.0509928 0.0168017 0.00751636 0.00596378 -0.000391334 0.000642892 -1.26274e-11 -1.84525e-12 -8.17452e-12 5e-05 1.46608e-10 
241 1 0.0509136 0.0164765 0.00772472 0.00548687 -0.000691598 -0.000154398 -1.44383e-10 8.96829e-12 2.29092e-11 5e-05 1.46608e-10 
242 1 0.057285 0.0168713 0.00756318 0.00605275 0.000152342 -4.39529e-05 8.45512e-11 -4.91256e-11 -4.30979e-11 5e-05 1.46608e-10 
243 1 0.057063 0.0167586 0.00767599 0.00591898 0.000142401 -0.000178538 -9.44714e-11 -2.25442e-10 -2.32601e-10 5e-05 1.46608e-10 
244 1 0.0509525 0.0166236 0.00759708 0.00551535 -0.000679154 -0.000113576 5.7231e-11 6.79499e-11 -5.19772e-11 5e-05 1.46608e-10 
246 1 0.051079 0.0171646 0.00737935 0.00598844 -0.000398477 0.000647442 7.5714e-12 1.42895e-11 -1.01333e-11 5e-05 1.46608e-10 