ITEM: TIMESTEP
20800000
ITEM: NUMBER OF ATOMS
287
ITEM: BOX BOUNDS ff ff ff
-0.02 0.43
-0.02 0.06
-0.02 0.07
ITEM: ATOMS id type x y z vx vy vz fx fy fz radius mass 
1 1 0.134041 0.0160627 0.00794831 0.00600028 0.00102444 -0.000863399 3.6877e-10 -1.13682e-09 -2.62651e-10 5e-05 1.46608e-10 
2 1 0.134535 0.017406 0.00745357 0.00478849 0.000635039 -0.000366851 -2.24256e-10 -5.76044e-11 2.97561e-11 5e-05 1.46608e-10 
3 1 0.127807 0.0156219 0.00854155 0.0057808 -0.000836898 0.00131743 -1.91573e-10 -3.8194e-10 2.6167e-10 5e-05 1.46608e-10 
4 1 0.134385 0.0175322 0.00741157 0.00566716 0.00088498 -0.000484381 -3.35395e-10 2.21198e-10 -8.70072e-11 5e-05 1.46608e-10 
5 1 0.133937 0.0159741 0.00806282 0.00655354 0.000698358 -0.000780159 2.08319e-10 -1.1855e-09 2.01775e-10 5e-05 1.46608e-10 
6 1 0.140072 0.0165484 0.00778206 0.00588637 -0.000688581 0.000170481 -6.28899e-13 6.91021e-12 -8.4336e-12 5e-05 1.46608e-10 
7 1 0.134121 0.0167698 0.0076982 0.00615995 0.000913207 -0.000524547 7.18477e-11 9.95828e-10 -2.08913e-10 5e-05 1.46608e-10 
8 1 0.133836 0.015766 0.00849922 0.00619931 -0.000382772 -0.00164656 2.76571e-10 3.33578e-10 -7.40762e-10 5e-05 1.46608e-10 
9 1 0.14032 0.017632 0.00722937 0.00539818 -0.000390621 0.00037205 1.51786e-12 -1.6087e-12 2.34825e-13 5e-05 1.46608e-10 
10 1 0.134061 0.0164944 0.00780077 0.00594573 0.000919774 -0.000495048 -3.87817e-10 7.43177e-10 -1.81211e-10 5e-05 1.46608e-10 
11 1 0.134576 0.0176098 0.00737776 0.00557223 0.000751697 -0.000432052 1.88379e-10 -7.95003e-11 8.60223e-11 5e-05 1.46608e-10 
12 1 0.128024 0.0163513 0.00789286 0.00573716 -0.000834935 0.00131504 5.0167e-10 2.68196e-10 3.50213e-11 5e-05 1.46608e-10 
13 1 0.133915 0.0159157 0.00814099 0.0064579 -4.46006e-05 -0.00140514 5.64483e-11 -3.74358e-10 5.02149e-10 5e-05 1.46608e-10 
14 1 0.127722 0.0153447 0.00880489 0.00578045 -0.000953283 0.0013011 -7.23672e-11 -1.84952e-10 -3.08662e-10 5e-05 1.46608e-10 
15 1 0.134258 0.0169825 0.00761645 0.00640593 0.000805207 -0.000472991 -2.7482e-10 -1.05417e-09 4.67641e-10 5e-05 1.46608e-10 
16 1 0.127701 0.0152921 0.00888739 0.00575728 -0.00106622 0.00121754 9.33469e-11 -1.06545e-10 -4.94229e-10 5e-05 1.46608e-10 
17 1 0.134041 0.0164025 0.00783497 0.00578853 0.000951082 -0.000517764 -3.92161e-10 4.42811e-10 -7.8031e-11 5e-05 1.46608e-10 
18 1 0.140203 0.0170548 0.00734358 0.00556843 -0.000420941 0.000387888 7.7883e-12 9.0151e-13 -1.19559e-12 5e-05 1.46608e-10 
19 1 0.133894 0.0158574 0.00821931 0.00640357 -0.000406085 -0.00170833 -1.10591e-10 -1.9935e-10 1.99921e-11 5e-05 1.46608e-10 
21 1 0.134026 0.0159789 0.00800078 0.00654692 0.00110571 -0.000474098 -8.17278e-10 -5.68816e-10 1.98773e-10 5e-05 1.46608e-10 
22 1 0.134162 0.0169533 0.00762986 0.00614324 0.000896434 -0.000505354 3.75299e-10 -5.05075e-10 1.79557e-10 5e-05 1.46608e-10 
23 1 0.128218 0.0167468 0.00754846 0.00535069 -0.000818342 0.00126144 3.10813e-10 -1.20329e-10 2.33843e-10 5e-05 1.46608e-10 
24 1 0.140262 0.0173434 0.00728649 0.00538863 -0.000387442 0.000370885 -2.4561e-12 -6.35572e-12 9.87761e-13 5e-05 1.46608e-10 
25 1 0.134101 0.016678 0.00773239 0.00618903 0.000881855 -0.000497097 9.31344e-10 8.83867e-10 -2.55547e-10 5e-05 1.46608e-10 
26 1 0.140146 0.0168037 0.00748346 0.00564865 -0.000587829 0.000200252 4.42117e-12 8.82328e-12 7.56586e-12 5e-05 1.46608e-10 
27 1 0.128104 0.016644 0.00763286 0.00534486 -0.000788199 0.00131838 2.67485e-10 -5.5463e-11 3.17283e-11 5e-05 1.46608e-10 
28 1 0.134365 0.0174403 0.00744577 0.00470342 0.00108694 -0.00053117 -2.27686e-10 -8.47765e-11 5.07121e-11 5e-05 1.46608e-10 
29 1 0.133874 0.0158274 0.00831279 0.00631085 -0.000378445 -0.00171127 1.88057e-10 -1.31624e-10 -5.33214e-10 5e-05 1.46608e-10 
30 1 0.13442 0.0172854 0.00750096 0.0042747 0.000954689 -0.000469639 -4.23364e-10 2.70776e-10 -9.08963e-11 5e-05 1.46608e-10 
31 1 0.134141 0.0168616 0.00766402 0.00600294 0.000941021 -0.000519943 -3.89293e-10 5.51785e-10 -1.38433e-10 5e-05 1.46608e-10 
32 1 0.134237 0.0168909 0.00765061 0.00610895 0.000840328 -0.000480098 1.43101e-10 5.48827e-12 -1.32681e-10 5e-05 1.46608e-10 
33 1 0.140091 0.0166107 0.0077063 0.00567079 -0.00064898 0.000147236 -7.65714e-12 7.98636e-12 -8.49814e-12 5e-05 1.46608e-10 
34 1 0.134019 0.0163112 0.00786938 0.00589402 0.000934678 -0.000544767 -6.70286e-11 7.03569e-10 9.32913e-10 5e-05 1.46608e-10 
35 1 0.134216 0.0167991 0.00768477 0.00623109 0.000775864 -0.000467754 -2.51596e-10 2.88444e-10 9.69295e-11 5e-05 1.46608e-10 
36 1 0.140359 0.0178243 0.00719131 0.00538406 -0.000388593 0.00037086 -8.54166e-13 -4.38921e-12 8.13609e-13 5e-05 1.46608e-10 
37 1 0.134176 0.0166155 0.00775292 0.00603249 0.000625341 -0.000741075 -1.57866e-09 6.21594e-10 2.05724e-11 5e-05 1.46608e-10 
38 1 0.134355 0.0170107 0.00760339 0.00666478 0.000584289 -0.000404287 -5.28468e-10 3.38115e-10 -3.51522e-10 5e-05 1.46608e-10 
39 1 0.140281 0.0174396 0.00726744 0.00539336 -0.00038859 0.000371368 1.22862e-11 -6.0559e-12 3.2337e-12 5e-05 1.46608e-10 
41 1 0.133979 0.01614 0.00796111 0.00618997 0.00099628 -0.000411954 -4.52535e-10 -6.89808e-10 -3.55911e-10 5e-05 1.46608e-10 
42 1 0.134183 0.0170449 0.00759573 0.00647805 0.000805848 -0.000472946 1.35195e-11 -7.89288e-10 3.08038e-10 5e-05 1.46608e-10 
44 1 0.134379 0.0171019 0.00756934 0.00621451 -0.000110333 -0.000133549 3.35216e-09 -1.79026e-09 6.13284e-10 5e-05 1.46608e-10 
45 1 0.14011 0.0166731 0.00763041 0.00566831 -0.000648512 0.000146957 -2.00928e-11 7.98333e-12 -8.42672e-12 5e-05 1.46608e-10 
46 1 0.140183 0.0169587 0.00736257 0.00557707 -0.000422771 0.000388198 7.02336e-13 9.63833e-13 8.49544e-13 5e-05 1.46608e-10 
47 1 0.133999 0.0162195 0.00790381 0.00593821 0.000959714 -0.000501273 -2.88142e-11 2.04023e-10 3.33576e-10 5e-05 1.46608e-10 
48 1 0.134228 0.0172273 0.00752763 0.006772 0.000859695 -0.000521366 7.2271e-10 2.16523e-09 -1.32951e-09 5e-05 1.46608e-10 
49 1 0.140165 0.0168798 0.00742139 0.00559215 -0.000477126 0.000319215 -2.90667e-12 8.10507e-12 8.02825e-12 5e-05 1.46608e-10 
50 1 0.13429 0.0175025 0.00742512 0.0048486 0.00119703 -0.000574651 3.3719e-10 -1.05358e-10 3.708e-11 5e-05 1.46608e-10 
51 1 0.13427 0.0174107 0.0074593 0.00447457 0.00124963 -0.000583866 -3.71549e-10 -3.79481e-10 1.30098e-10 5e-05 1.46608e-10 
52 1 0.128002 0.0162783 0.00795773 0.00573154 -0.000837501 0.00132591 5.95519e-10 -7.35013e-10 7.57686e-10 5e-05 1.46608e-10 
53 1 0.140223 0.0171509 0.00732458 0.00555962 -0.000419017 0.000386734 -2.43161e-13 3.02521e-12 -1.55192e-12 5e-05 1.46608e-10 
54 1 0.134028 0.015933 0.00808959 0.00665282 0.000533262 -0.00079226 3.44567e-11 6.92876e-11 -1.14933e-10 5e-05 1.46608e-10 
55 1 0.127765 0.0154817 0.00866643 0.00579203 -0.00089278 0.001336 1.17679e-10 -3.88691e-10 -1.0868e-10 5e-05 1.46608e-10 
56 1 0.134196 0.0167074 0.00771895 0.00613687 0.00075947 -0.000426221 -4.72592e-10 2.08463e-10 2.37385e-10 5e-05 1.46608e-10 
57 1 0.140127 0.0167357 0.00755445 0.00566533 -0.000647952 0.000146532 -6.50747e-12 4.75288e-12 -4.45014e-12 5e-05 1.46608e-10 
59 1 0.134271 0.0166428 0.00773577 0.00597999 0.000715007 -0.000766897 7.2592e-10 -8.59939e-10 -5.82679e-10 5e-05 1.46608e-10 
60 1 0.134291 0.0167352 0.00770331 0.00602509 0.000726988 -0.000723368 4.21261e-10 2.13868e-10 -6.1834e-11 5e-05 1.46608e-10 
61 1 0.133958 0.0160523 0.00800416 0.00642825 0.00095448 -0.000399841 -2.87527e-10 -1.14041e-09 7.26866e-11 5e-05 1.46608e-10 
62 1 0.134399 0.0171936 0.00753515 0.00403147 0.00105835 -0.00050197 1.09656e-11 -4.13623e-10 1.78702e-10 5e-05 1.46608e-10 
63 1 0.134325 0.0172567 0.00751413 0.00418518 0.00117153 -0.000547781 -6.02245e-10 -3.53228e-10 1.25446e-10 5e-05 1.46608e-10 
64 1 0.140242 0.0172471 0.00730553 0.00539542 -0.000388654 0.000371505 -1.23033e-11 1.22873e-12 -3.76369e-13 5e-05 1.46608e-10 
65 1 0.128142 0.0164535 0.00781034 0.0053963 -0.00083889 0.00128321 -2.49503e-10 -1.52996e-10 1.40526e-11 5e-05 1.46608e-10 
66 1 0.128078 0.0162348 0.00800652 0.0057254 -0.000898905 0.00137611 2.11454e-10 -8.54119e-10 6.0542e-10 5e-05 1.46608e-10 
67 1 0.134556 0.0174975 0.00741945 0.00537628 0.000528957 -0.000339349 5.02604e-10 -3.26079e-10 9.77753e-11 5e-05 1.46608e-10 
68 1 0.13446 0.0174695 0.00743241 0.00549023 0.000659032 -0.000396119 -4.32533e-10 2.74996e-10 -9.71551e-11 5e-05 1.46608e-10 
69 1 0.134116 0.0163376 0.00785084 0.0058906 0.00100892 -0.000686364 3.36026e-10 6.26779e-10 4.87066e-10 5e-05 1.46608e-10 
70 1 0.140301 0.0175358 0.00724841 0.00540456 -0.000391369 0.00037256 1.02496e-13 -2.69599e-12 1.92427e-13 5e-05 1.46608e-10 
71 1 0.127744 0.0154086 0.00873129 0.00578927 -0.000881101 0.00136349 3.10273e-10 -1.53888e-10 3.30868e-11 5e-05 1.46608e-10 
72 1 0.13444 0.0173773 0.00746674 0.00450635 0.000919652 -0.000463916 -5.09646e-10 1.4541e-10 -3.55722e-11 5e-05 1.46608e-10 
73 1 0.134081 0.0165862 0.00776657 0.00617737 0.000856273 -0.000482842 -3.26285e-11 6.2088e-10 -2.81297e-10 5e-05 1.46608e-10 
74 1 0.134281 0.017074 0.00758231 0.006567 0.000600983 -0.000414305 -4.99926e-10 4.62437e-10 1.98284e-10 5e-05 1.46608e-10 
76 1 0.12833 0.0172258 0.00720878 0.0053193 -0.00120058 0.000660099 7.84783e-11 -1.57135e-10 -8.74695e-11 5e-05 1.46608e-10 
77 1 0.134386 0.0179421 0.00728905 0.00585484 0.000846861 -0.000481183 -9.09504e-11 -1.15123e-11 -4.7515e-11 5e-05 1.46608e-10 
78 1 0.127829 0.0156948 0.0084767 0.00579788 -0.000822982 0.00131559 -3.33559e-10 -3.40322e-10 2.25265e-10 5e-05 1.46608e-10 
79 1 0.128045 0.0164243 0.00782789 0.00563069 -0.00084669 0.00129171 8.88003e-10 5.69595e-10 -6.589e-11 5e-05 1.46608e-10 
80 1 0.134333 0.0176085 0.00748709 0.00580691 0.00110843 -0.000548973 5.88777e-12 -1.25718e-10 -1.3251e-10 5e-05 1.46608e-10 
81 1 0.127981 0.0162054 0.00802261 0.00567311 -0.000835083 0.00131421 6.82189e-10 -8.08186e-10 9.47244e-10 5e-05 1.46608e-10 
82 1 0.128123 0.0167167 0.00756685 0.00535651 -0.000817437 0.00127605 1.54163e-10 -1.09414e-10 1.04323e-10 5e-05 1.46608e-10 
83 1 0.128176 0.016263 0.00798847 0.00563238 -0.000867482 0.00133944 -3.52092e-11 -9.04432e-11 6.34356e-11 5e-05 1.46608e-10 
84 1 0.14034 0.0177282 0.00721034 0.00539099 -0.000389691 0.00037147 -7.43321e-13 -3.28222e-12 7.68829e-13 5e-05 1.46608e-10 
85 1 0.127947 0.0157952 0.00839587 0.00578724 -0.000822831 0.00131202 -3.33131e-11 -2.04208e-11 1.71107e-11 5e-05 1.46608e-10 
86 1 0.134345 0.0173485 0.00747996 0.00442939 0.00114231 -0.000542653 -5.99364e-10 1.79046e-11 1.57769e-11 5e-05 1.46608e-10 
87 1 0.134251 0.0165504 0.00776822 0.00588606 0.000703615 -0.000757141 1.17424e-09 -8.89445e-10 -2.17957e-10 5e-05 1.46608e-10 
88 1 0.134331 0.0176878 0.00741973 0.00569252 0.000962365 -0.000488279 8.24914e-11 -3.35287e-10 3.80842e-10 5e-05 1.46608e-10 
89 1 0.134506 0.0177488 0.00739904 0.0057987 0.000848757 -0.000455644 -3.67231e-10 -1.78021e-10 1.22285e-10 5e-05 1.46608e-10 
90 1 0.134515 0.0173142 0.00748775 0.00434305 0.000721198 -0.000386753 -3.46948e-10 3.05585e-10 -1.06229e-10 5e-05 1.46608e-10 
91 1 0.128066 0.0165012 0.00776738 0.00540822 -0.00083657 0.00126725 6.12498e-10 4.84309e-10 -1.80498e-10 5e-05 1.46608e-10 
92 1 0.134541 0.0177876 0.00731365 0.00578602 0.000847876 -0.000472667 -2.11293e-10 -1.43438e-10 8.09231e-11 5e-05 1.46608e-10 
93 1 0.134443 0.01779 0.00733356 0.0057941 0.00082248 -0.000469056 -1.4709e-10 -4.33922e-11 4.31206e-11 5e-05 1.46608e-10 
94 1 0.134595 0.0181068 0.00719522 0.006018 0.000730553 -0.000437019 2.85254e-11 8.70745e-11 -3.18882e-11 5e-05 1.46608e-10 
95 1 0.134539 0.017877 0.00735832 0.00586446 0.000856395 -0.000471811 -4.29333e-11 -4.87986e-11 2.71562e-11 5e-05 1.46608e-10 
96 1 0.13446 0.0178751 0.00728388 0.00583064 0.000819691 -0.00046393 -1.00117e-10 -3.1825e-11 2.8036e-11 5e-05 1.46608e-10 
97 1 0.127937 0.0160595 0.00815233 0.00576391 -0.00082945 0.00131513 1.87962e-10 2.01821e-10 -1.84845e-10 5e-05 1.46608e-10 
98 1 0.134351 0.0177826 0.00737994 0.00579168 0.000854951 -0.000466573 -9.59221e-11 3.44049e-11 1.13267e-10 5e-05 1.46608e-10 
99 1 0.128121 0.0163801 0.00787575 0.00565781 -0.000817215 0.00129475 5.29167e-10 -4.81078e-11 1.8959e-11 5e-05 1.46608e-10 
100 1 0.134474 0.0171299 0.00755639 0.00589041 0.00109325 -0.000611592 -6.81182e-10 3.73295e-10 4.67177e-11 5e-05 1.46608e-10 
101 1 0.128056 0.0161611 0.00807055 0.0055857 -0.000967162 0.00142911 9.19278e-10 -5.22172e-10 8.52349e-10 5e-05 1.46608e-10 
102 1 0.0643568 0.0187248 0.00531097 4.35698e-15 1.0453e-14 8.29614e-14 6.13484e-22 -1.15627e-21 1.19321e-22 5e-05 1.46608e-10 
103 1 0.24257 0.0191927 0.00520306 1.19201e-22 -3.03968e-22 -5.81428e-22 0 0 0 5e-05 1.46608e-10 
104 1 0.128406 0.0171634 0.00722818 0.00533989 -0.00117024 0.000658345 8.71887e-11 -7.49485e-11 -5.42609e-11 5e-05 1.46608e-10 
105 1 0.127894 0.0159136 0.00828207 0.00577056 -0.000831213 0.00131836 3.85265e-12 1.35454e-10 -1.35028e-10 5e-05 1.46608e-10 
106 1 0.128483 0.0171079 0.00726593 0.00536121 -0.00118447 0.00074632 2.03417e-10 -2.39351e-10 1.19251e-10 5e-05 1.46608e-10 
107 1 0.12785 0.0157678 0.00841181 0.00578809 -0.00081882 0.00130991 -1.11527e-10 -1.83113e-10 1.70369e-10 5e-05 1.46608e-10 
108 1 0.134156 0.0165232 0.00778574 0.00602974 0.000659752 -0.000713384 -5.658e-10 7.64869e-10 1.76611e-09 5e-05 1.46608e-10 
109 1 0.134249 0.017319 0.00749348 0.00429548 0.00128372 -0.000591365 1.45967e-10 5.62041e-10 -2.07433e-10 5e-05 1.46608e-10 
110 1 0.13447 0.0183245 0.00711902 0.00606964 0.00072265 -0.00043582 -7.32985e-11 -1.1068e-10 3.12584e-11 5e-05 1.46608e-10 
111 1 0.134511 0.0181577 0.00717896 0.00601836 0.000729401 -0.000436648 4.78943e-11 1.11604e-10 -4.51349e-11 5e-05 1.46608e-10 
112 1 0.127959 0.0161325 0.00808747 0.00571489 -0.000829709 0.00130717 -6.52216e-11 -2.96539e-10 2.7989e-10 5e-05 1.46608e-10 
113 1 0.128674 0.0179431 0.00728015 0.00551147 -0.00120707 0.00088326 -5.59112e-12 2.00446e-10 1.24751e-11 5e-05 1.46608e-10 
114 1 0.128352 0.0169218 0.00740062 0.00534021 -0.000802509 0.00126338 -9.62547e-11 2.80735e-10 6.68693e-11 5e-05 1.46608e-10 
115 1 0.134304 0.0171651 0.00754828 0.00676989 0.000570012 -0.000395967 -5.98907e-10 -1.49727e-09 5.41753e-10 5e-05 1.46608e-10 
116 1 0.134136 0.0164307 0.00781784 0.00589497 0.000644436 -0.000684491 -1.61166e-10 -1.56236e-10 1.60147e-10 5e-05 1.46608e-10 
117 1 0.134009 0.0158716 0.00816617 0.0062007 -0.000107924 -0.00141912 4.36886e-11 1.55583e-10 -5.70631e-10 5e-05 1.46608e-10 
118 1 0.127787 0.0155699 0.00862459 0.00580707 -0.000880688 0.00131853 -1.11088e-10 -4.92376e-10 7.44206e-11 5e-05 1.46608e-10 
119 1 0.134312 0.0168275 0.00767086 0.00618094 0.000755476 -0.000564801 -3.16267e-10 6.72705e-10 -7.39864e-11 5e-05 1.46608e-10 
120 1 0.133855 0.0157966 0.00840595 0.00620509 -0.000383343 -0.00169516 2.81995e-11 -2.95143e-11 -9.88585e-10 5e-05 1.46608e-10 
121 1 0.133817 0.0157356 0.00859253 0.00614534 -0.000398707 -0.00163734 2.47338e-10 1.27044e-10 -8.52039e-10 5e-05 1.46608e-10 
122 1 0.13445 0.0182327 0.0071532 0.00602346 0.000730705 -0.000437493 1.69633e-11 3.36397e-11 -9.74632e-12 5e-05 1.46608e-10 
123 1 0.12799 0.0159411 0.00826612 0.00575501 -0.00084315 0.00132802 -9.32489e-12 1.72151e-10 -1.57009e-10 5e-05 1.46608e-10 
124 1 0.1344 0.0177009 0.00734934 0.00574466 0.000836605 -0.000460761 -1.43051e-11 -8.68608e-11 1.89397e-10 5e-05 1.46608e-10 
125 1 0.133985 0.0158304 0.00825396 0.00624806 -0.000435104 -0.00154743 -3.96841e-10 3.85473e-10 -8.25064e-10 5e-05 1.46608e-10 
126 1 0.134205 0.0171362 0.00756166 0.0067232 0.000732087 -0.000451942 1.50717e-09 7.00535e-10 -4.68889e-10 5e-05 1.46608e-10 
127 1 0.127916 0.0159866 0.0082172 0.00576115 -0.000833313 0.00131939 1.13533e-10 3.23265e-10 -2.73757e-10 5e-05 1.46608e-10 
128 1 0.13431 0.0175944 0.00739092 0.00572465 0.000995212 -0.000522438 -2.41673e-10 -8.48547e-11 -1.87661e-11 5e-05 1.46608e-10 
129 1 0.134548 0.0179905 0.00732547 0.00592439 0.000821397 -0.000472001 1.68012e-12 4.942e-11 -8.64174e-12 5e-05 1.46608e-10 
130 1 0.128238 0.0168199 0.00748314 0.00535983 -0.000814117 0.00126454 4.20659e-11 -2.25815e-11 9.35129e-11 5e-05 1.46608e-10 
131 1 0.1281 0.016307 0.00794074 0.0059401 -0.000635161 0.00115265 -6.13553e-10 2.29819e-10 -2.61237e-10 5e-05 1.46608e-10 
132 1 0.134411 0.0176286 0.00741814 0.00566325 0.000916223 -0.000489158 3.5385e-10 -3.31163e-10 1.35014e-11 5e-05 1.46608e-10 
133 1 0.134168 0.0161803 0.00789838 0.00616066 0.00111337 -0.000905367 1.27566e-10 -4.36763e-10 1.63441e-10 5e-05 1.46608e-10 
134 1 0.134333 0.0169194 0.00763746 0.00635004 0.000773442 -0.000459351 3.39823e-10 5.95413e-10 -1.18509e-10 5e-05 1.46608e-10 
135 1 0.133964 0.0158002 0.00834712 0.00624139 -0.000441788 -0.00153266 -8.74823e-11 2.88585e-10 -9.28226e-10 5e-05 1.46608e-10 
136 1 0.127925 0.0157223 0.00846074 0.00579101 -0.000808524 0.00130013 -1.97468e-10 -6.16816e-12 -3.38669e-12 5e-05 1.46608e-10 
137 1 0.134404 0.0180221 0.00723164 0.00593428 0.000835467 -0.000473861 5.15772e-11 8.50676e-11 -3.53736e-11 5e-05 1.46608e-10 
138 1 0.134094 0.0162454 0.00788307 0.00592636 0.000834837 -0.000789512 -1.57549e-10 1.37495e-10 -3.07061e-10 5e-05 1.46608e-10 
140 1 0.134551 0.0182682 0.00713738 0.00606163 0.000722936 -0.000435426 -2.93589e-11 -2.24177e-11 8.76216e-12 5e-05 1.46608e-10 
141 1 0.127968 0.0158682 0.008331 0.00577664 -0.000832683 0.00132018 2.23919e-11 9.22579e-11 -7.27771e-11 5e-05 1.46608e-10 
142 1 0.128369 0.016996 0.00733422 0.00535134 -0.000846059 0.0012884 -1.36199e-10 -1.21579e-10 7.95082e-11 5e-05 1.46608e-10 
143 1 0.127872 0.0158407 0.00834694 0.00577741 -0.000824356 0.00131279 -2.26861e-11 -5.766e-11 5.70049e-11 5e-05 1.46608e-10 
144 1 0.128333 0.0168483 0.00746629 0.00532307 -0.000799857 0.0012468 -7.06224e-12 7.79287e-11 6.26432e-11 5e-05 1.46608e-10 
146 1 0.128197 0.016336 0.0079235 0.00562883 -0.000856811 0.0013271 -5.94667e-11 -2.96279e-10 2.43543e-10 5e-05 1.46608e-10 
147 1 0.127903 0.0156493 0.00852563 0.00585481 -0.000784399 0.00128567 -1.76558e-10 -2.99279e-10 2.70962e-10 5e-05 1.46608e-10 
148 1 0.12818 0.0169462 0.00738241 0.00532058 -0.00120237 0.000754689 -6.38343e-11 8.36064e-11 1.75793e-10 5e-05 1.46608e-10 
149 1 0.134508 0.0180621 0.00721405 0.00596736 0.000820912 -0.000468388 3.30727e-11 6.8053e-11 -1.62318e-11 5e-05 1.46608e-10 
150 1 0.128237 0.0164822 0.00779314 0.00538744 -0.000819793 0.00127229 2.16695e-10 -1.47615e-10 1.27194e-10 5e-05 1.46608e-10 
151 1 0.128598 0.0172268 0.00722601 0.00531293 -0.00124344 0.000751993 -7.78852e-11 -6.68528e-11 -3.68258e-11 5e-05 1.46608e-10 
153 1 0.128034 0.0160873 0.00813609 0.00581512 -0.000746979 0.00124378 -2.56061e-10 5.32404e-10 -5.39809e-10 5e-05 1.46608e-10 
154 1 0.128294 0.0170516 0.0072989 0.00534523 -0.00121345 0.000691704 -1.88208e-11 -9.7141e-11 8.15109e-11 5e-05 1.46608e-10 
155 1 0.128348 0.0173208 0.00718292 0.0052269 -0.00127461 0.000349648 1.11738e-10 -1.1476e-10 6.09478e-11 5e-05 1.46608e-10 
156 1 0.128276 0.0169719 0.00735921 0.00533467 -0.000920992 0.00114366 -1.28758e-10 2.46127e-10 2.51464e-10 5e-05 1.46608e-10 
157 1 0.0219312 0.0187687 0.00551176 -3.83289e-14 8.16538e-14 2.95892e-13 -6.18318e-22 -1.90872e-22 -2.70902e-23 5e-05 1.46608e-10 
158 1 0.128539 0.0177122 0.00723294 0.00531461 -0.00126192 0.000832529 -2.06786e-10 4.7358e-11 -9.89222e-11 5e-05 1.46608e-10 
159 1 0.134482 0.017561 0.00739827 0.00559199 0.00078935 -0.000450108 5.20995e-10 -2.43178e-10 -2.48273e-11 5e-05 1.46608e-10 
160 1 0.128236 0.0171976 0.00723384 0.00532845 -0.00122899 0.000690717 1.9945e-10 -7.63194e-11 3.58239e-11 5e-05 1.46608e-10 
162 1 0.128199 0.0170248 0.0073235 0.0053287 -0.00124692 0.000688995 -3.17367e-11 4.40469e-11 4.33784e-11 5e-05 1.46608e-10 
164 1 0.128442 0.0177268 0.00721664 0.00531691 -0.00121778 0.000844544 -1.50244e-10 -6.9898e-11 -8.88289e-11 5e-05 1.46608e-10 
165 1 0.12867 0.0175128 0.00723703 0.00513479 -0.00121203 0.000810286 1.09147e-10 -5.88174e-11 9.25186e-11 5e-05 1.46608e-10 
166 1 0.13412 0.0160068 0.00798234 0.00640635 0.00128807 -0.000681147 -1.02741e-09 -5.50333e-10 2.87098e-10 5e-05 1.46608e-10 
167 1 0.128218 0.0164091 0.00785843 0.00554637 -0.000840038 0.00130445 -1.43132e-10 -2.44512e-10 1.6696e-10 5e-05 1.46608e-10 
168 1 0.128501 0.0171944 0.00721404 0.00527702 -0.00120162 0.000334472 -3.14227e-11 6.99583e-11 2.07895e-11 5e-05 1.46608e-10 
169 1 0.128726 0.0177841 0.00727399 0.00554667 -0.00127658 0.000884253 2.38002e-10 -4.43384e-11 1.55917e-11 5e-05 1.46608e-10 
170 1 0.128519 0.0172903 0.00719182 0.00527045 -0.00114489 0.000322805 -8.71775e-11 -2.57443e-11 4.16867e-11 5e-05 1.46608e-10 
171 1 0.134147 0.016088 0.00793084 0.00609294 0.00118777 -0.000900687 2.16132e-10 -3.44745e-10 1.11004e-09 5e-05 1.46608e-10 
172 1 0.128651 0.0174154 0.00722406 0.0051257 -0.0012033 0.000810209 -7.92128e-11 2.83006e-11 -8.14971e-11 5e-05 1.46608e-10 
173 1 0.134565 0.0179106 0.00726791 0.00592103 0.000816268 -0.00046705 -4.04646e-11 1.38872e-11 -1.01817e-11 5e-05 1.46608e-10 
174 1 0.128443 0.0173541 0.00718008 0.00536419 -0.0011129 0.000868568 -4.01681e-11 -6.27917e-13 4.1034e-12 5e-05 1.46608e-10 
175 1 0.122223 0.0171456 0.0072603 0.00565064 0.000118103 -0.000271094 2.58864e-12 -9.79568e-12 -3.06282e-12 5e-05 1.46608e-10 
176 1 0.128257 0.0168992 0.0074254 0.00531391 -0.000781664 0.00129186 4.84611e-11 1.3803e-10 8.71629e-11 5e-05 1.46608e-10 
177 1 0.128274 0.0173879 0.00718769 0.0053246 -0.00120183 0.000765389 -3.77727e-11 -1.89431e-10 -1.4479e-10 5e-05 1.46608e-10 
178 1 0.128803 0.0177201 0.00728158 0.00546107 -0.00138812 0.000855765 1.84428e-10 -1.28189e-10 3.23484e-11 5e-05 1.46608e-10 
179 1 0.128711 0.0176861 0.00726153 0.00541423 -0.00126179 0.000860024 1.20921e-10 -7.78049e-11 1.90905e-11 5e-05 1.46608e-10 
181 1 0.128261 0.0172682 0.00730174 0.00533403 -0.00121125 0.000698392 -8.89248e-11 3.35898e-10 -1.27795e-10 5e-05 1.46608e-10 
182 1 0.134073 0.016153 0.00791557 0.00562438 0.000566507 -0.000659049 2.20788e-10 -1.79568e-10 2.35341e-10 5e-05 1.46608e-10 
183 1 0.128425 0.0172576 0.0071988 0.00528774 -0.00118783 0.000428443 -6.0239e-11 -1.99627e-11 -1.10353e-10 5e-05 1.46608e-10 
184 1 0.134626 0.0178359 0.00729355 0.00589457 0.000790145 -0.000455984 -2.80587e-11 4.14737e-11 -2.05448e-11 5e-05 1.46608e-10 
185 1 0.12816 0.0168699 0.00744392 0.00535611 -0.00107082 0.000934528 -5.97828e-12 -1.08926e-10 -1.5511e-12 5e-05 1.46608e-10 
186 1 0.128249 0.0171735 0.00733161 0.00534822 -0.00120567 0.000721424 9.62061e-11 2.7531e-10 2.34535e-10 5e-05 1.46608e-10 
187 1 0.134452 0.0170375 0.00758901 0.00633155 0.000470989 -0.000696899 -4.65154e-10 3.08626e-10 -3.15912e-10 5e-05 1.46608e-10 
188 1 0.134364 0.0178405 0.00729927 0.00582669 0.000839155 -0.000469647 -2.33715e-11 -1.00881e-10 3.65836e-11 5e-05 1.46608e-10 
189 1 0.134494 0.0172224 0.00752193 0.00417024 0.000793268 -0.000408033 -4.08315e-10 -2.1066e-10 9.60984e-11 5e-05 1.46608e-10 
190 1 0.122408 0.017553 0.00716015 0.0056423 0.000112041 -0.000268659 7.63526e-12 3.5837e-11 -8.65494e-12 5e-05 1.46608e-10 
191 1 0.134425 0.0181174 0.00720995 0.00596413 0.000825153 -0.00047107 3.28959e-11 1.00888e-10 -2.9737e-12 5e-05 1.46608e-10 
192 1 0.128446 0.0169504 0.00738343 0.00534057 -0.000800048 0.00125621 -1.30523e-10 8.74636e-11 3.36026e-11 5e-05 1.46608e-10 
193 1 0.13423 0.016458 0.00780068 0.00591806 0.000649965 -0.00075335 2.52293e-10 -7.9844e-10 2.99091e-10 5e-05 1.46608e-10 
194 1 0.128275 0.0166287 0.00766226 0.00535494 -0.000811507 0.00125831 7.26764e-11 5.07439e-11 6.36048e-12 5e-05 1.46608e-10 
195 1 0.128732 0.0175886 0.00725585 0.00524226 -0.00130394 0.000828515 2.05999e-10 -9.0063e-11 -3.91228e-11 5e-05 1.46608e-10 
196 1 0.12768 0.0152464 0.00897379 0.0057228 -0.00101631 0.0012171 -1.55367e-10 1.03482e-10 -6.7949e-10 5e-05 1.46608e-10 
197 1 0.122279 0.0174306 0.00723774 0.00563797 0.000125081 -0.000270682 5.70134e-11 -5.73465e-12 -3.42216e-11 5e-05 1.46608e-10 
198 1 0.128085 0.0165705 0.00769798 0.00533723 -0.000810885 0.00129093 1.69563e-10 1.16662e-10 -2.08758e-10 5e-05 1.46608e-10 
199 1 0.128216 0.0171052 0.00726655 0.00533584 -0.00122773 0.000706771 8.82821e-11 1.69313e-11 5.9469e-11 5e-05 1.46608e-10 
200 1 0.128199 0.0166732 0.00761417 0.00535125 -0.000833031 0.00127557 1.47735e-10 -1.31806e-10 8.92138e-11 5e-05 1.46608e-10 
201 1 0.128649 0.0178472 0.00726618 0.00555846 -0.00122971 0.000889525 1.64301e-10 4.78706e-11 3.82237e-11 5e-05 1.46608e-10 
202 1 0.128464 0.0170283 0.00732338 0.0053699 -0.000937755 0.00108893 -1.17848e-10 -5.08424e-11 1.62202e-10 5e-05 1.46608e-10 
203 1 0.13449 0.0184163 0.00708484 0.00612192 0.000720589 -0.00043655 -4.53242e-11 -1.11687e-10 3.28597e-11 5e-05 1.46608e-10 
204 1 0.128181 0.0165999 0.00767964 0.00535634 -0.000830969 0.00128061 2.59639e-10 -2.13585e-10 2.1836e-10 5e-05 1.46608e-10 
205 1 0.12847 0.0177682 0.00730733 0.00541761 -0.00128442 0.00083213 1.07944e-10 1.67896e-10 -2.39822e-10 5e-05 1.46608e-10 
206 1 0.12846 0.0174538 0.007193 0.00531011 -0.00111139 0.000853456 -1.04186e-10 -1.77585e-10 -2.51814e-11 5e-05 1.46608e-10 
207 1 0.128012 0.016014 0.00820125 0.005747 -0.000849955 0.00133361 1.83376e-10 1.99906e-10 -1.65992e-10 5e-05 1.46608e-10 
208 1 0.128314 0.0171425 0.00726225 0.0053516 -0.00117285 0.000736669 1.40002e-10 -6.25517e-11 2.22579e-10 5e-05 1.46608e-10 
209 1 0.128256 0.0165555 0.00772773 0.00531395 -0.000811363 0.00125455 1.6403e-10 -4.30842e-11 2.9119e-11 5e-05 1.46608e-10 
210 1 0.134521 0.0176379 0.00745595 0.00558475 0.000856299 -0.000459956 1.96083e-10 1.93784e-10 1.26494e-10 5e-05 1.46608e-10 
211 1 0.134586 0.0180024 0.00723371 0.00595844 0.000804338 -0.000461678 2.81294e-11 6.89037e-11 -2.81852e-11 5e-05 1.46608e-10 
212 1 0.128535 0.0173886 0.0072003 0.00524586 -0.00118747 0.000836787 6.06158e-11 -4.59919e-11 1.5451e-11 5e-05 1.46608e-10 
213 1 0.134429 0.0169458 0.0076215 0.00660713 0.000421713 -0.000657785 -7.71533e-10 5.21767e-10 4.17073e-10 5e-05 1.46608e-10 
214 1 0.134702 0.0181464 0.00717771 0.00603741 0.000712768 -0.000431091 5.68876e-11 5.08582e-12 -1.94569e-12 5e-05 1.46608e-10 
215 1 0.122346 0.0174771 0.00718 0.00564614 0.000119376 -0.000268704 8.52262e-11 1.60899e-11 -7.89557e-12 5e-05 1.46608e-10 
216 1 0.128255 0.0172913 0.00720465 0.00532098 -0.00121612 0.00069806 5.9991e-11 -1.75908e-10 -1.94291e-10 5e-05 1.46608e-10 
217 1 0.13419 0.0162723 0.0078659 0.00603272 0.00111807 -0.000880687 5.10747e-10 -2.12761e-10 -8.56768e-11 5e-05 1.46608e-10 
218 1 0.128387 0.0175219 0.00718644 0.00527591 -0.00116034 0.00084086 -1.35918e-10 -1.35843e-10 -2.45514e-11 5e-05 1.46608e-10 
219 1 0.134487 0.0179703 0.00724826 0.00593337 0.000830964 -0.000474223 5.02648e-11 7.27861e-11 -5.38746e-11 5e-05 1.46608e-10 
220 1 0.128405 0.017477 0.00727381 0.00532421 -0.0011008 0.000856625 -6.00351e-11 -1.66381e-10 -1.62626e-11 5e-05 1.46608e-10 
221 1 0.122279 0.0169945 0.00731983 0.0057018 0.00031576 -2.44205e-05 2.72691e-11 -5.79605e-11 5.4994e-11 5e-05 1.46608e-10 
222 1 0.13421 0.0163656 0.00783314 0.00598011 0.000676443 -0.000736165 3.54396e-10 -6.47664e-10 5.34659e-11 5e-05 1.46608e-10 
223 1 0.128389 0.0170787 0.00728143 0.00536945 -0.00108654 0.00091688 6.2732e-11 -3.03745e-10 -3.83275e-11 5e-05 1.46608e-10 
224 1 0.128141 0.0167943 0.00750646 0.00536626 -0.000921095 0.00112243 7.51415e-11 -3.05543e-10 -1.77646e-10 5e-05 1.46608e-10 
225 1 0.134489 0.017657 0.0073629 0.00566279 0.000864745 -0.000477631 1.82206e-11 -1.71363e-10 5.83359e-11 5e-05 1.46608e-10 
226 1 0.128614 0.0173239 0.00720831 0.00516307 -0.00121397 0.000819137 -5.6388e-11 -7.81027e-12 4.65734e-12 5e-05 1.46608e-10 
227 1 0.122338 0.0172711 0.00722694 0.00564024 0.000130345 -0.000272334 -2.57573e-11 -7.12263e-11 1.50356e-11 5e-05 1.46608e-10 
228 1 0.122244 0.017243 0.00725195 0.00564121 0.000123095 -0.000270063 -9.8772e-12 -3.40556e-11 -1.01531e-11 5e-05 1.46608e-10 
229 1 0.128338 0.0173913 0.00726417 0.00527642 -0.00120705 0.000819486 -1.42031e-10 -7.53792e-11 -2.36018e-11 5e-05 1.46608e-10 
230 1 0.128568 0.0179053 0.00725718 0.00552913 -0.00124187 0.000881439 5.84483e-13 -6.37099e-12 -3.90732e-11 5e-05 1.46608e-10 
231 1 0.122204 0.0170511 0.00728658 0.00565897 0.000112282 -0.000286362 1.5466e-11 2.7495e-11 5.01389e-11 5e-05 1.46608e-10 
232 1 0.128154 0.0161901 0.00805334 0.00574897 -0.000897405 0.00138127 2.0606e-10 -2.03717e-10 1.90956e-11 5e-05 1.46608e-10 
233 1 0.128294 0.016702 0.00759686 0.00534209 -0.000804224 0.00125381 1.60449e-10 2.4686e-11 -5.61565e-11 5e-05 1.46608e-10 
234 1 0.134413 0.0178906 0.00737053 0.00582736 0.000844811 -0.000470229 -1.3359e-10 -4.32464e-11 -1.81683e-11 5e-05 1.46608e-10 
235 1 0.128417 0.0180696 0.0072889 0.00548955 -0.00125331 0.000883293 7.0829e-11 5.61552e-11 -3.30963e-11 5e-05 1.46608e-10 
236 1 0.128618 0.0180976 0.00728524 0.00547763 -0.00126736 0.00087169 1.34845e-10 4.03178e-11 3.67376e-11 5e-05 1.46608e-10 
237 1 0.128435 0.0181631 0.00725835 0.00546876 -0.0012521 0.000873026 2.39806e-11 -9.02461e-13 -1.32941e-12 5e-05 1.46608e-10 
239 1 0.12203 0.016324 0.00777326 0.00582263 -3.43896e-05 -0.000346635 -7.10554e-11 6.97032e-11 -8.18344e-11 5e-05 1.46608e-10 
240 1 0.122087 0.0165444 0.00758052 0.00567908 0.000264576 6.80127e-07 -4.16975e-11 -4.92657e-12 -5.58438e-12 5e-05 1.46608e-10 
241 1 0.122011 0.0162598 0.00784765 0.00577366 -2.95086e-05 -0.000349043 -1.68984e-11 7.58383e-11 -9.16599e-11 5e-05 1.46608e-10 
242 1 0.128409 0.0168039 0.00751436 0.00538909 -0.000735601 0.00119274 3.84733e-11 -3.22628e-11 -1.62796e-11 5e-05 1.46608e-10 
243 1 0.128162 0.0165267 0.00774505 0.00536279 -0.000833083 0.0012784 -4.59737e-11 -2.16842e-10 1.44709e-10 5e-05 1.46608e-10 
244 1 0.122048 0.0163881 0.00769887 0.00588047 -4.02802e-05 -0.000341047 -2.37388e-11 3.56423e-11 -2.96361e-11 5e-05 1.46608e-10 
246 1 0.122166 0.016883 0.0073826 0.00578691 0.000256384 7.96678e-06 3.76584e-11 3.27027e-11 -3.21549e-12 5e-05 1.46608e-10 
247 1 0.128407 0.0175787 0.00726617 0.00530479 -0.00115613 0.000823089 -1.11933e-10 -1.03503e-10 -2.48441e-11 5e-05 1.46608e-10 
248 1 0.128593 0.0180011 0.00727116 0.00549898 -0.00121833 0.000878834 -6.5955e-11 1.54859e-10 -1.19957e-11 5e-05 1.46608e-10 