ITEM: TIMESTEP
6000000
ITEM: NUMBER OF ATOMS
287
ITEM: BOX BOUNDS ff ff ff
-0.02 0.43
-0.02 0.06
-0.02 0.07
ITEM: ATOMS id type x y z vx vy vz fx fy fz radius mass 
1 1 0.0478318 0.0164419 0.00783951 0.0056642 0.00109569 -0.000481087 9.33395e-11 5.81886e-11 -8.54713e-11 5e-05 1.46608e-10 
2 1 0.0482151 0.0173092 0.00730572 0.00608294 0.000571841 -0.000780058 7.18146e-11 -3.02709e-10 5.31198e-11 5e-05 1.46608e-10 
3 1 0.041639 0.0160496 0.00816789 0.00567335 -0.00012707 -0.000149868 2.21422e-10 -4.54453e-11 5.79537e-11 5e-05 1.46608e-10 
4 1 0.0481536 0.0178218 0.00719407 0.00620084 0.000608915 -0.000800007 6.48981e-11 3.34859e-10 -1.05672e-10 5e-05 1.46608e-10 
5 1 0.0477183 0.0163447 0.00792665 0.00574386 0.00101217 -0.000384793 -7.98106e-11 -2.49655e-11 4.30884e-11 5e-05 1.46608e-10 
6 1 0.0538123 0.0166909 0.0075786 0.00557297 5.12785e-05 -0.000319664 1.89835e-11 8.66514e-11 -3.97535e-11 5e-05 1.46608e-10 
7 1 0.0478884 0.017033 0.00740425 0.00570605 0.000330861 -0.000685406 -6.34572e-12 -4.31651e-11 8.53603e-12 5e-05 1.46608e-10 
8 1 0.0476162 0.0159979 0.008272 0.00615533 0.00108504 -0.000416957 1.58266e-10 3.63437e-11 -9.93225e-13 5e-05 1.46608e-10 
9 1 0.0540757 0.0178594 0.00707331 0.00614478 -0.000185576 -0.00025132 2.91411e-11 2.05094e-11 7.38995e-11 5e-05 1.46608e-10 
10 1 0.0478301 0.0167611 0.00751083 0.00584704 0.00107757 -0.000457041 -2.40449e-10 -4.70753e-11 5.47052e-11 5e-05 1.46608e-10 
11 1 0.0482582 0.0174985 0.00725746 0.00610996 0.00056224 -0.000780878 6.30008e-11 2.63869e-11 -4.71147e-12 5e-05 1.46608e-10 
12 1 0.0418268 0.0167566 0.00753119 0.00559313 9.53903e-05 0.000197429 -7.15046e-11 1.17462e-10 -4.20747e-11 5e-05 1.46608e-10 
13 1 0.0476989 0.0162752 0.00799593 0.00592001 0.000987144 -0.000344969 2.27286e-11 -1.43737e-10 1.36688e-10 5e-05 1.46608e-10 
14 1 0.041555 0.0158167 0.00848199 0.00599316 -0.000127954 -0.000158207 3.85704e-11 -4.99982e-11 6.82961e-11 5e-05 1.46608e-10 
15 1 0.0480236 0.0172525 0.0073392 0.00609093 0.000747886 -0.000821583 -6.35679e-11 -3.41728e-10 8.16545e-11 5e-05 1.46608e-10 
16 1 0.0415333 0.0157586 0.00856041 0.00598184 -0.000116524 -0.000173557 -4.6699e-11 -6.61854e-11 9.04141e-11 5e-05 1.46608e-10 
17 1 0.0478116 0.0166915 0.00758028 0.00580787 0.00109195 -0.00046001 -1.14979e-10 -1.72624e-11 1.34126e-10 5e-05 1.46608e-10 
18 1 0.0539499 0.017321 0.00730637 0.00595193 -0.00010732 -0.000272863 -1.3417e-10 1.05273e-10 -1.63531e-11 5e-05 1.46608e-10 
19 1 0.0476789 0.0162058 0.0080651 0.00589211 0.000981546 -0.000341605 2.16945e-10 -2.04079e-10 2.25367e-10 5e-05 1.46608e-10 
21 1 0.0478127 0.0163723 0.00790901 0.00570576 0.0010966 -0.000477644 5.7904e-12 -1.08121e-10 1.34165e-10 5e-05 1.46608e-10 
22 1 0.0479271 0.0172234 0.0073562 0.00611262 0.000580241 -0.000777411 2.93925e-10 1.31806e-10 -3.58288e-10 5e-05 1.46608e-10 
23 1 0.0420014 0.01716 0.0074 0.00595231 7.22002e-05 0.000222133 -1.75257e-10 5.41649e-11 4.92544e-12 5e-05 1.46608e-10 
24 1 0.0540128 0.0175902 0.00718984 0.00605513 -0.000129376 -0.000268251 -1.45771e-10 1.65612e-10 -4.47463e-11 5e-05 1.46608e-10 
25 1 0.047869 0.0169369 0.00742847 0.00584976 0.000916717 -0.000835019 -3.1633e-12 1.05425e-11 -1.14218e-11 5e-05 1.46608e-10 
26 1 0.0538907 0.017051 0.00742303 0.00556227 -4.69112e-05 -0.000277376 1.10855e-10 2.49984e-10 -9.70953e-11 5e-05 1.46608e-10 
27 1 0.0419048 0.0171287 0.00740673 0.00595977 0.000154636 0.000201878 1.1782e-10 3.18369e-10 -1.58091e-10 5e-05 1.46608e-10 
28 1 0.048132 0.0177272 0.00721819 0.00617767 0.000603887 -0.000797834 -9.41961e-11 2.33529e-10 -4.84181e-11 5e-05 1.46608e-10 
29 1 0.0476585 0.0161365 0.00813417 0.00582451 0.000964579 -0.000335681 2.08464e-11 -2.43906e-10 1.63039e-10 5e-05 1.46608e-10 
30 1 0.0481634 0.0174713 0.00727384 0.00611235 0.000597563 -0.000789952 8.48093e-11 -7.13518e-11 -2.07419e-11 5e-05 1.46608e-10 
31 1 0.0479077 0.0171282 0.00738023 0.00569774 0.000438319 -0.000730152 -1.24198e-11 2.79109e-10 2.50868e-10 5e-05 1.46608e-10 
32 1 0.0480021 0.0171577 0.00736337 0.00612634 0.00058524 -0.000754927 5.31378e-10 -4.54161e-10 -1.156e-10 5e-05 1.46608e-10 
33 1 0.0538318 0.016781 0.0075397 0.00559833 3.60862e-05 -0.000314719 -1.66221e-10 -7.65717e-10 3.28131e-10 5e-05 1.46608e-10 
34 1 0.0477929 0.016622 0.0076497 0.00574412 0.00108955 -0.000466663 1.51498e-10 -2.16435e-11 3.84191e-11 5e-05 1.46608e-10 
35 1 0.0479827 0.0170625 0.00738739 0.00584929 0.000609777 -0.000773855 2.77014e-10 8.46415e-10 -2.96901e-10 5e-05 1.46608e-10 
36 1 0.0541184 0.0180454 0.00701839 0.0061758 -7.23196e-05 0.000564499 -2.82363e-10 -1.07846e-10 3.72825e-11 5e-05 1.46608e-10 
37 1 0.0479436 0.0168707 0.00743577 0.00584503 0.000912364 -0.0008421 3.69443e-11 4.22746e-11 -8.13516e-11 5e-05 1.46608e-10 
38 1 0.0480992 0.0171874 0.00734617 0.00598593 0.000664361 -0.000795454 1.7523e-10 6.13884e-11 9.37792e-11 5e-05 1.46608e-10 
39 1 0.0540338 0.0176799 0.007151 0.00608543 -0.000146785 -0.000263887 1.59798e-10 1.25036e-10 -9.88028e-11 5e-05 1.46608e-10 
41 1 0.0477564 0.0164913 0.00779618 0.00565726 0.00109752 -0.000482458 9.83152e-11 6.98078e-11 -5.51124e-11 5e-05 1.46608e-10 
42 1 0.0479489 0.0173186 0.00733195 0.00613906 0.000760323 -0.000824237 7.32117e-11 -6.87709e-11 -2.40409e-12 5e-05 1.46608e-10 
44 1 0.0481202 0.0172821 0.00732208 0.00607985 0.000619993 -0.000794397 8.46239e-11 3.92541e-11 1.30728e-11 5e-05 1.46608e-10 
45 1 0.0538515 0.016871 0.00750081 0.00557575 -5.91899e-05 -0.000273079 4.70342e-11 1.27039e-10 -5.92479e-11 5e-05 1.46608e-10 
46 1 0.05393 0.017231 0.00734525 0.00573138 -7.25075e-05 -0.000275771 2.64613e-12 5.12539e-11 -1.76421e-11 5e-05 1.46608e-10 
47 1 0.0477743 0.0165525 0.00771913 0.00570426 0.00108438 -0.000467476 -4.40065e-11 -3.75334e-11 7.60038e-11 5e-05 1.46608e-10 
48 1 0.0479925 0.017509 0.00728338 0.00613985 0.000620185 -0.000796745 7.34351e-11 -7.37775e-11 7.20548e-12 5e-05 1.46608e-10 
49 1 0.0539104 0.017141 0.00738414 0.00556338 -5.15687e-05 -0.000275413 -5.39582e-11 1.30999e-10 -2.2885e-11 5e-05 1.46608e-10 
50 1 0.0480575 0.0177935 0.00721086 0.0061834 0.000612811 -0.000801416 1.72092e-11 2.33692e-10 -6.43933e-11 5e-05 1.46608e-10 
51 1 0.0480358 0.0176986 0.00723504 0.00618563 0.000683361 -0.000817778 -3.70815e-11 -8.58019e-12 1.59243e-11 5e-05 1.46608e-10 
52 1 0.0418075 0.0166636 0.00756231 0.00558034 0.000105604 0.000191227 -6.61734e-11 3.76752e-11 -1.35049e-12 5e-05 1.46608e-10 
53 1 0.0539709 0.0174107 0.00726753 0.00598398 -0.000118552 -0.000271122 1.6437e-10 1.64197e-10 -7.5847e-11 5e-05 1.46608e-10 
54 1 0.0477934 0.0163028 0.0079783 0.00586966 0.00107865 -0.000442164 -7.66515e-11 -3.5096e-11 6.60889e-11 5e-05 1.46608e-10 
55 1 0.0415992 0.0159335 0.00832581 0.00584283 -0.000133937 -0.00014964 1.28425e-10 -1.12944e-10 1.45265e-10 5e-05 1.46608e-10 
56 1 0.0479632 0.016967 0.00741148 0.00571832 0.000341007 -0.000688614 -5.4739e-11 -1.11034e-10 3.45453e-11 5e-05 1.46608e-10 
57 1 0.0538711 0.016961 0.00746192 0.00557656 -3.69302e-05 -0.000282921 -5.59187e-11 -6.80437e-11 3.83571e-11 5e-05 1.46608e-10 
59 1 0.0480199 0.0168245 0.00748282 0.00589001 0.000746405 -0.00088988 1.01028e-10 -3.57798e-10 5.12105e-11 5e-05 1.46608e-10 
60 1 0.04804 0.0169046 0.0074264 0.00601274 0.000680179 -0.000882563 -1.84883e-09 -5.65391e-10 2.77558e-10 5e-05 1.46608e-10 
61 1 0.0477373 0.0164144 0.00785712 0.00563698 0.00109922 -0.000490975 -3.01035e-11 1.08051e-11 -3.67143e-11 5e-05 1.46608e-10 
62 1 0.0481417 0.0173767 0.00729796 0.00610946 0.000605499 -0.000792673 1.38363e-10 -9.67829e-11 -2.63636e-11 5e-05 1.46608e-10 
63 1 0.0480887 0.0175374 0.00726657 0.00613678 0.000617601 -0.000796677 6.39953e-11 -9.7747e-11 2.46503e-11 5e-05 1.46608e-10 
64 1 0.0539918 0.0175004 0.00722868 0.00600523 -0.000125964 -0.000268354 1.20182e-10 -6.72949e-12 -1.88811e-11 5e-05 1.46608e-10 
65 1 0.0419215 0.0167883 0.00752424 0.005603 7.78289e-05 0.000204686 -4.9715e-11 1.26895e-10 -5.08574e-11 5e-05 1.46608e-10 
66 1 0.0418625 0.0165092 0.00761756 0.00564725 0.000154173 0.000182816 -8.45967e-11 -9.60329e-11 -3.79073e-11 5e-05 1.46608e-10 
67 1 0.0482367 0.0174038 0.00728158 0.00607752 0.00056507 -0.000778391 4.4714e-11 5.1854e-11 -1.76193e-11 5e-05 1.46608e-10 
68 1 0.0482063 0.0176606 0.00722562 0.00615714 0.000577776 -0.000790254 -1.37072e-10 7.94899e-11 1.19315e-11 5e-05 1.46608e-10 
69 1 0.0478873 0.0166506 0.00763108 0.00577164 0.00106006 -0.00043479 -1.02278e-10 -6.67647e-11 1.2849e-11 5e-05 1.46608e-10 
70 1 0.0540547 0.0177696 0.00711215 0.00611509 -0.000164769 -0.000260535 3.54187e-11 1.06809e-10 -1.69716e-11 5e-05 1.46608e-10 
71 1 0.0415767 0.0158748 0.00840357 0.0059633 -0.000134781 -0.000148158 -5.2645e-12 -3.97111e-11 5.37428e-11 5e-05 1.46608e-10 
72 1 0.0481848 0.017566 0.00724973 0.00612838 0.000590044 -0.000788981 -7.05537e-11 6.56038e-12 -2.88392e-12 5e-05 1.46608e-10 
73 1 0.0478494 0.0168402 0.00745289 0.0058473 0.000648759 -0.00102173 2.31694e-10 1.72696e-10 -1.47411e-10 5e-05 1.46608e-10 
74 1 0.0480453 0.017348 0.00731488 0.00610868 0.000620287 -0.000793669 2.16872e-10 3.17655e-12 -7.69579e-11 5e-05 1.46608e-10 
76 1 0.0421519 0.0178089 0.00718356 0.00609484 0.000140552 0.000203539 7.71215e-11 1.00625e-10 -3.23274e-11 5e-05 1.46608e-10 
77 1 0.0482969 0.0184094 0.00704904 0.00626305 0.000644208 -0.000401358 -2.36817e-11 -1.75267e-11 3.03561e-11 5e-05 1.46608e-10 
78 1 0.041659 0.0161083 0.00808942 0.00562949 -0.000110859 -0.000169009 2.2751e-10 -7.65712e-11 2.24899e-11 5e-05 1.46608e-10 
79 1 0.0418463 0.0168496 0.00750008 0.00557921 9.07788e-05 0.000200015 1.15228e-10 2.82263e-10 -1.07178e-10 5e-05 1.46608e-10 
80 1 0.0481225 0.0180778 0.00713836 0.00621296 0.00059154 -0.000798383 7.15623e-11 3.09277e-11 -2.1418e-11 5e-05 1.46608e-10 
81 1 0.041788 0.0165741 0.00760252 0.00559212 6.23254e-05 8.34203e-05 6.04759e-12 -4.22621e-11 2.77021e-10 5e-05 1.46608e-10 
82 1 0.0419263 0.0172215 0.0073758 0.00595032 7.58633e-05 0.000217391 -1.05833e-10 -8.09752e-11 -1.83141e-11 5e-05 1.46608e-10 
83 1 0.0419262 0.0163845 0.00773034 0.00565879 -8.28894e-05 -5.02774e-05 9.54135e-11 -6.48326e-11 2.21331e-10 5e-05 1.46608e-10 
84 1 0.0540967 0.0179491 0.00703447 0.00616533 -0.000200547 -0.000239834 9.47233e-12 -7.21708e-11 -1.53632e-11 5e-05 1.46608e-10 
85 1 0.0417546 0.0161261 0.00805994 0.00554299 -6.83507e-05 -0.000213906 8.7508e-11 3.02749e-11 -5.71711e-11 5e-05 1.46608e-10 
86 1 0.0481103 0.0176324 0.00724237 0.00615634 0.000639245 -0.000804074 -9.13495e-11 1.14638e-11 9.94794e-12 5e-05 1.46608e-10 
87 1 0.0480006 0.0167477 0.00754397 0.00579083 0.00111937 -0.000493149 3.7783e-10 -9.99439e-11 -1.79556e-10 5e-05 1.46608e-10 
88 1 0.0481874 0.0183618 0.00706674 0.00624793 0.000573147 -0.000843864 -3.60321e-11 -2.92211e-11 -1.61013e-10 5e-05 1.46608e-10 
89 1 0.0481442 0.0181724 0.00711424 0.00623449 0.000595294 -0.000803449 -1.17468e-11 3.26187e-12 -9.12142e-12 5e-05 1.46608e-10 
90 1 0.0481738 0.0171212 0.00735346 0.00594691 0.000608672 -0.000770307 -6.75663e-11 -3.40921e-10 2.68011e-10 5e-05 1.46608e-10 
91 1 0.0418657 0.0169427 0.00746896 0.0055587 7.31083e-05 0.00020418 -1.78982e-11 -6.06998e-11 2.18099e-11 5e-05 1.46608e-10 
92 1 0.0482493 0.0178499 0.00717739 0.00619472 0.000570079 -0.000792736 -1.31205e-11 -2.94844e-11 5.7566e-12 5e-05 1.46608e-10 
93 1 0.0482401 0.0182005 0.00709753 0.00623946 0.000584184 -0.000801878 -3.81701e-11 4.05311e-11 6.24641e-12 5e-05 1.46608e-10 
94 1 0.0483141 0.0181337 0.00710503 0.00622995 0.000569633 -0.000796359 -5.08081e-11 8.24338e-12 -6.83589e-12 5e-05 1.46608e-10 
95 1 0.0481009 0.0179832 0.0071625 0.00620343 0.000594286 -0.000798735 3.30841e-13 -3.84881e-11 1.31835e-11 5e-05 1.46608e-10 
96 1 0.0482709 0.0179445 0.00715327 0.00620826 0.00057109 -0.000793635 1.10048e-11 -5.25969e-11 5.16759e-12 5e-05 1.46608e-10 
97 1 0.0417491 0.0164013 0.00769449 0.00558894 -7.90989e-05 -0.000225166 -4.53241e-11 1.11735e-13 8.59725e-11 5e-05 1.46608e-10 
98 1 0.0482091 0.0184572 0.00704595 0.0062584 0.000627207 -0.000542734 -2.92648e-11 -9.04419e-11 -3.43935e-10 5e-05 1.46608e-10 
99 1 0.0419021 0.0166952 0.00755536 0.00555155 0.000135544 0.000179789 -1.08831e-11 -5.81296e-11 -1.82845e-11 5e-05 1.46608e-10 
100 1 0.0481341 0.0169332 0.0074086 0.00574766 0.000505046 -0.00134903 1.77101e-09 1.8303e-09 3.166e-09 5e-05 1.46608e-10 
101 1 0.0418442 0.0164216 0.00766227 0.00558704 -4.81644e-05 -0.000250123 8.44141e-11 6.19932e-11 1.28216e-10 5e-05 1.46608e-10 
102 1 0.0643568 0.0187248 0.00531097 4.10596e-15 1.05788e-14 8.29581e-14 -1.99661e-22 6.931e-22 -7.5687e-23 5e-05 1.46608e-10 
103 1 0.24257 0.0191927 0.00520306 -5.71162e-23 2.24983e-22 1.53437e-21 0 0 0 5e-05 1.46608e-10 
104 1 0.0421622 0.0174691 0.00730056 0.00591321 3.59927e-05 0.000231573 -4.80833e-11 -6.98323e-11 3.01101e-11 5e-05 1.46608e-10 
105 1 0.0417141 0.0162839 0.00785253 0.00560334 -6.99636e-05 -0.000211735 1.26731e-11 1.14787e-10 -1.26714e-10 5e-05 1.46608e-10 
106 1 0.0422366 0.0174069 0.00732497 0.00588744 2.17431e-05 0.000235644 8.45603e-11 -1.66804e-10 5.47353e-11 5e-05 1.46608e-10 
107 1 0.0416774 0.0161666 0.00801032 0.0056168 -9.59085e-05 -0.000181674 1.86403e-10 1.13633e-11 -3.07616e-11 5e-05 1.46608e-10 
108 1 0.0479253 0.0168003 0.00750432 0.00586141 0.0010351 -0.000729136 3.15417e-10 -3.1224e-10 -9.47421e-11 5e-05 1.46608e-10 
109 1 0.0480141 0.0176036 0.00725926 0.00615144 0.00061826 -0.000797271 2.49668e-12 -1.21481e-10 1.74009e-11 5e-05 1.46608e-10 
110 1 0.0483444 0.0178771 0.00716098 0.00620226 0.000562304 -0.000791226 4.31093e-11 -3.54404e-11 3.1036e-12 5e-05 1.46608e-10 
111 1 0.0482526 0.0186488 0.00700864 0.00626716 0.000639096 -0.000399602 2.14186e-11 -1.60015e-10 4.58095e-11 5e-05 1.46608e-10 
112 1 0.041769 0.0164846 0.00764285 0.00559087 -3.66545e-05 -0.000154764 -7.70782e-11 -1.37057e-10 -1.39539e-11 5e-05 1.46608e-10 
113 1 0.0424489 0.0175595 0.00728139 0.00594978 9.84523e-06 0.000242115 -3.57115e-10 2.0052e-10 -8.33518e-11 5e-05 1.46608e-10 
114 1 0.0420978 0.0171912 0.00739327 0.00605419 -6.16369e-06 0.00025181 5.39767e-10 -2.89306e-11 4.14447e-11 5e-05 1.46608e-10 
115 1 0.0480671 0.0174428 0.00729069 0.00612946 0.000620502 -0.000796534 1.21627e-10 -1.64592e-10 1.90144e-11 5e-05 1.46608e-10 
116 1 0.0479058 0.0167201 0.00756163 0.00587858 0.00110194 -0.000469335 -2.27128e-10 2.16185e-11 -6.64536e-11 5e-05 1.46608e-10 
117 1 0.0477735 0.0162333 0.00804757 0.00593433 0.0010174 -0.000372751 -7.59628e-11 -8.43124e-11 7.33812e-11 5e-05 1.46608e-10 
118 1 0.0416197 0.0159911 0.00824667 0.00571068 -0.000122241 -0.000152339 2.64067e-10 -1.06874e-10 1.42758e-10 5e-05 1.46608e-10 
119 1 0.0480585 0.0169978 0.00739519 0.0059527 0.000709733 -0.000868034 -6.83747e-10 -9.04715e-11 1.62384e-10 5e-05 1.46608e-10 
120 1 0.0476377 0.0160671 0.00820315 0.00610872 0.000950945 -0.000279714 -4.16319e-10 2.28305e-10 -2.57502e-10 5e-05 1.46608e-10 
121 1 0.0475947 0.0159286 0.00834086 0.00617106 0.00107007 -0.000399681 8.49062e-11 2.80009e-10 -2.79305e-10 5e-05 1.46608e-10 
122 1 0.048366 0.0179717 0.00713685 0.00620689 0.00055675 -0.000790581 2.54417e-11 6.87799e-14 2.56638e-12 5e-05 1.46608e-10 
123 1 0.0417909 0.0162434 0.00790208 0.00557343 -7.97256e-05 -0.000199187 -1.6072e-10 7.10637e-11 -7.09999e-11 5e-05 1.46608e-10 
124 1 0.0481968 0.0180113 0.00714578 0.00621617 0.000586837 -0.000798739 4.69368e-11 -1.65994e-11 -2.15573e-13 5e-05 1.46608e-10 
125 1 0.0477535 0.0161638 0.00811684 0.00584213 0.000955997 -0.000319508 -7.53193e-11 -2.84508e-10 2.71767e-10 5e-05 1.46608e-10 
126 1 0.0479708 0.0174143 0.00730754 0.00611393 0.000594495 -0.000785963 1.81225e-10 1.48695e-10 -5.91431e-11 5e-05 1.46608e-10 
127 1 0.0417327 0.0163424 0.00777363 0.00560245 -7.01787e-05 -0.000214639 9.07226e-11 3.04111e-11 -4.8539e-11 5e-05 1.46608e-10 
128 1 0.0480792 0.0178882 0.00718671 0.00620278 0.000629405 -0.000807056 1.64816e-10 5.8622e-10 -1.46261e-10 5e-05 1.46608e-10 
129 1 0.0481658 0.018267 0.00709012 0.00624237 0.000592905 -0.000805927 -1.25668e-12 2.31912e-11 1.51679e-11 5e-05 1.46608e-10 
130 1 0.0420229 0.0172528 0.00736904 0.00603544 -6.61839e-06 0.000253028 3.37446e-11 -2.79902e-10 1.13185e-10 5e-05 1.46608e-10 
131 1 0.0418826 0.0166022 0.00758647 0.00559007 0.000123499 0.000179485 -7.64799e-11 1.08766e-10 1.02927e-10 5e-05 1.46608e-10 
132 1 0.0481752 0.0179167 0.0071699 0.00620098 0.0005865 -0.000796582 2.47037e-11 -1.39786e-11 4.24526e-12 5e-05 1.46608e-10 
133 1 0.0479263 0.0164696 0.00782171 0.00555459 0.00115381 -0.000555926 2.13233e-10 -1.13235e-10 1.39709e-10 5e-05 1.46608e-10 
134 1 0.0480787 0.0170925 0.00737023 0.00591107 0.000709888 -0.000806387 2.27047e-10 9.99919e-11 1.0923e-10 5e-05 1.46608e-10 
135 1 0.0477331 0.0160944 0.00818592 0.00568048 0.000961282 -0.000344765 5.47265e-10 -1.95152e-10 2.42282e-10 5e-05 1.46608e-10 
136 1 0.0417359 0.0160675 0.00813879 0.00564864 -8.35024e-05 -0.000200445 2.43804e-10 -4.41899e-11 4.56794e-11 5e-05 1.46608e-10 
137 1 0.0482743 0.0187447 0.00699064 0.00627301 0.000634372 -0.000400917 -4.85698e-11 -1.52776e-10 2.33902e-11 5e-05 1.46608e-10 
138 1 0.0478688 0.016581 0.00770053 0.00570743 0.001069 -0.000451907 6.02661e-11 -8.25452e-11 7.66333e-11 5e-05 1.46608e-10 
140 1 0.0483876 0.0180663 0.00711273 0.00620546 0.000542083 -0.000786718 1.3425e-11 1.07183e-11 -6.43645e-13 5e-05 1.46608e-10 
141 1 0.0417727 0.0161848 0.00798099 0.00549439 -6.4711e-05 -0.000215716 -7.65427e-11 8.21568e-11 -9.71162e-11 5e-05 1.46608e-10 
142 1 0.0421194 0.0172838 0.00736237 0.00585552 3.85331e-05 0.000228376 4.49589e-11 -2.55515e-11 1.10871e-11 5e-05 1.46608e-10 
143 1 0.0416954 0.0162253 0.00793136 0.00560338 -8.12439e-05 -0.000197976 7.60206e-11 1.03796e-10 -1.01987e-10 5e-05 1.46608e-10 
144 1 0.0420765 0.0170985 0.00742418 0.00588086 1.74894e-05 0.000236346 9.38035e-10 -8.97724e-11 6.73252e-11 5e-05 1.46608e-10 
146 1 0.0419438 0.0164673 0.00767704 0.00559905 2.03646e-05 0.000116254 -3.23959e-10 -1.28038e-10 4.45015e-11 5e-05 1.46608e-10 
147 1 0.0417158 0.0160091 0.00821747 0.00568137 -8.90989e-05 -0.000194935 3.87479e-10 -1.2356e-10 1.29777e-10 5e-05 1.46608e-10 
148 1 0.0419909 0.0174997 0.00728299 0.00595916 -3.85304e-05 0.000256382 5.10509e-10 -3.81754e-10 1.54308e-10 5e-05 1.46608e-10 
149 1 0.0484087 0.0181618 0.00708847 0.00623859 0.000545732 -0.000790898 -9.54362e-12 -5.16074e-11 -2.18176e-12 5e-05 1.46608e-10 
150 1 0.0419774 0.0166337 0.00757956 0.00554933 7.49852e-05 0.000201166 -2.29273e-10 -7.26121e-11 1.125e-11 5e-05 1.46608e-10 
151 1 0.0423105 0.0173442 0.00734953 0.00581597 -3.54746e-05 0.000252034 4.35083e-10 -8.41778e-11 4.86172e-11 5e-05 1.46608e-10 
153 1 0.0418284 0.0163627 0.00774149 0.00559812 -4.83586e-05 -0.000244058 1.7842e-10 -3.62613e-11 -1.44333e-10 5e-05 1.46608e-10 
154 1 0.0420874 0.0175309 0.00727628 0.00595767 7.27508e-05 0.00022059 1.60313e-10 -3.97031e-10 1.35967e-10 5e-05 1.46608e-10 
155 1 0.0421734 0.0179016 0.00715264 0.00608354 3.81738e-05 0.000238568 -7.79796e-10 4.20321e-10 -1.71663e-10 5e-05 1.46608e-10 
156 1 0.0420659 0.0174382 0.00730718 0.00594987 1.55891e-05 0.000238834 -4.20745e-11 -2.71352e-10 1.03877e-10 5e-05 1.46608e-10 
157 1 0.0219312 0.0187687 0.00551176 -3.82924e-14 8.16713e-14 2.95892e-13 -4.5314e-23 2.52032e-22 -4.90105e-23 5e-05 1.46608e-10 
158 1 0.0421837 0.0175618 0.00726966 0.00591058 4.30317e-05 0.000228932 -2.78159e-10 -1.28821e-10 3.34129e-11 5e-05 1.46608e-10 
159 1 0.0482279 0.0177552 0.0072015 0.00618049 0.000570188 -0.00079161 -7.44556e-11 2.60416e-11 -3.25644e-11 5e-05 1.46608e-10 
160 1 0.0420768 0.0178703 0.00715938 0.00608726 0.000130361 0.000205794 2.73638e-11 2.02059e-10 -8.52897e-11 5e-05 1.46608e-10 
162 1 0.0421089 0.0176235 0.00724538 0.00606457 4.97765e-05 0.000233412 -1.28233e-10 -1.14491e-10 4.75477e-11 5e-05 1.46608e-10 
164 1 0.042334 0.0182103 0.00705334 0.00627767 -5.96632e-05 0.000280361 4.8558e-10 8.30737e-10 -2.56713e-10 5e-05 1.46608e-10 
165 1 0.0423752 0.0176224 0.00725675 0.00595033 -3.57331e-06 0.000246665 -4.22425e-10 5.84615e-12 -1.71336e-11 5e-05 1.46608e-10 
166 1 0.0478878 0.0163307 0.00796034 0.00577106 0.00115157 -0.00053007 8.22416e-11 -2.82857e-10 3.16216e-10 5e-05 1.46608e-10 
167 1 0.0419577 0.0165408 0.00761065 0.00555906 8.06173e-05 0.000194626 -5.00197e-10 -1.15947e-10 1.97467e-11 5e-05 1.46608e-10 
168 1 0.0422581 0.0174996 0.00729407 0.00588824 2.73143e-05 0.000233575 -1.95299e-11 -7.02447e-11 2.88678e-11 5e-05 1.46608e-10 
169 1 0.0424705 0.0176522 0.00725045 0.00605871 -1.16026e-05 0.000253989 -1.57923e-10 1.86968e-11 -1.23072e-11 5e-05 1.46608e-10 
170 1 0.042301 0.0176848 0.00723227 0.00597486 4.59574e-06 0.000245125 -4.20202e-10 -4.97247e-11 -4.90028e-12 5e-05 1.46608e-10 
171 1 0.0479071 0.0164002 0.00789103 0.00566345 0.00115543 -0.000546098 6.115e-11 -1.9651e-10 2.32964e-10 5e-05 1.46608e-10 
172 1 0.0423537 0.0175297 0.00728767 0.00586712 -1.69464e-05 0.00024805 -2.39697e-10 1.66655e-10 -7.04059e-11 5e-05 1.46608e-10 
173 1 0.0482084 0.0168733 0.00743836 0.00588502 0.00120199 -0.000624247 -7.30133e-11 -6.14056e-10 1.95787e-10 5e-05 1.46608e-10 
174 1 0.0422267 0.0177471 0.00720786 0.00603175 3.85647e-05 0.000235465 -8.30331e-10 -5.62657e-11 -1.90397e-11 5e-05 1.46608e-10 
175 1 0.0359797 0.0174348 0.00722002 0.00606854 -0.000224327 1.72288e-05 2.91954e-10 1.56002e-10 -1.90275e-11 5e-05 1.46608e-10 
176 1 0.0420444 0.0173454 0.00733814 0.00602961 1.36155e-05 0.000244458 -1.93921e-10 -9.5626e-11 2.64256e-11 5e-05 1.46608e-10 
177 1 0.0421198 0.0180558 0.00709752 0.00612202 5.56235e-06 0.000248276 2.53203e-10 2.40915e-10 -3.43335e-11 5e-05 1.46608e-10 
178 1 0.0424273 0.0174667 0.00731233 0.00586042 -6.39113e-06 0.000243941 -3.95349e-10 8.3996e-11 -4.33761e-11 5e-05 1.46608e-10 
179 1 0.0424182 0.0178078 0.00719492 0.00602354 -8.64216e-05 0.000278142 -4.76636e-11 -4.13432e-11 7.64958e-12 5e-05 1.46608e-10 
181 1 0.0420338 0.017685 0.00722119 0.00605619 5.77504e-05 0.000231206 -4.21167e-11 -1.95855e-11 -5.99235e-12 5e-05 1.46608e-10 
182 1 0.0478508 0.0165115 0.00777009 0.00566465 0.0010767 -0.00046422 1.30721e-10 8.81689e-12 4.92905e-11 5e-05 1.46608e-10 
183 1 0.0422796 0.0175922 0.00726317 0.00591282 1.48687e-05 0.000238372 -4.29244e-10 1.80048e-11 -3.1415e-11 5e-05 1.46608e-10 
184 1 0.0481803 0.0177865 0.00728373 0.00618305 0.000585376 -0.000796643 -1.53246e-10 1.42451e-10 -1.18107e-10 5e-05 1.46608e-10 
185 1 0.0419693 0.0174069 0.00731395 0.00597059 -3.86567e-05 0.000259569 -8.31344e-11 5.89873e-11 -4.56088e-11 5e-05 1.46608e-10 
186 1 0.0420123 0.0175924 0.00725209 0.00599737 2.33069e-05 0.000238052 -4.6665e-10 -2.87907e-10 3.64363e-11 5e-05 1.46608e-10 
187 1 0.0481143 0.016845 0.00745677 0.00601654 0.00095195 -0.000294436 -1.18206e-10 2.42777e-10 9.49398e-11 5e-05 1.46608e-10 
188 1 0.0483346 0.0182286 0.00708097 0.00625091 0.000561497 -0.000797559 1.98373e-11 -1.66325e-12 -2.65117e-12 5e-05 1.46608e-10 
189 1 0.0481535 0.0170263 0.00737751 0.00577537 0.000644339 -0.000762083 -7.52984e-10 1.3938e-11 -2.72597e-11 5e-05 1.46608e-10 
190 1 0.0360785 0.0174655 0.00720274 0.00609461 -0.000247559 2.90186e-05 -3.32667e-11 -3.87868e-11 -1.85608e-11 5e-05 1.46608e-10 
191 1 0.048296 0.0188407 0.00697264 0.00627492 0.000634345 -0.000400422 -4.50582e-11 -1.79158e-10 3.8224e-11 5e-05 1.46608e-10 
192 1 0.0421937 0.0172216 0.00738679 0.00582106 2.00788e-05 0.000233224 8.17065e-11 -1.05737e-10 3.89992e-11 5e-05 1.46608e-10 
193 1 0.047982 0.0166782 0.00761345 0.0056144 0.00113286 -0.000527491 2.20186e-10 1.08686e-10 -1.43928e-11 5e-05 1.46608e-10 
194 1 0.0420161 0.0168198 0.00751732 0.00560987 5.97695e-05 0.000210824 9.80993e-12 6.38532e-11 -1.8449e-11 5e-05 1.46608e-10 
195 1 0.0423967 0.0177151 0.00722584 0.00607486 -8.91755e-06 0.000253557 -1.79813e-10 7.81017e-11 -3.93663e-11 5e-05 1.46608e-10 
196 1 0.0415115 0.0157005 0.00863884 0.00597966 -0.000110351 -0.000181416 -3.00797e-11 -7.18444e-11 9.68944e-11 5e-05 1.46608e-10 
197 1 0.0360423 0.0176956 0.00708562 0.00617984 -0.000247254 2.88537e-05 4.15979e-11 -1.90178e-10 9.32671e-11 5e-05 1.46608e-10 
198 1 0.0418852 0.0170357 0.00743784 0.00554514 9.36087e-05 0.000196617 -1.51275e-11 -6.88167e-11 2.30532e-11 5e-05 1.46608e-10 
199 1 0.0421304 0.0177162 0.00721446 0.00601947 0.000129742 0.00020281 -1.14192e-10 -1.46831e-10 4.16208e-11 5e-05 1.46608e-10 
200 1 0.0419799 0.0170673 0.0074309 0.00590657 6.92385e-05 0.000212897 -5.79323e-11 -1.56451e-11 -8.34771e-11 5e-05 1.46608e-10 
201 1 0.0425106 0.018268 0.00704083 0.00608857 -0.00017503 0.000309137 -4.74074e-10 3.25256e-10 -1.41382e-10 5e-05 1.46608e-10 
202 1 0.0422151 0.0173143 0.00735587 0.00586399 1.25891e-05 0.000237791 2.29472e-11 -2.44934e-10 7.9945e-11 5e-05 1.46608e-10 
203 1 0.0483316 0.0174311 0.00726519 0.00608524 0.000525011 -0.000770159 -9.14842e-12 -4.66411e-11 1.13443e-11 5e-05 1.46608e-10 
204 1 0.0419604 0.0169743 0.00746201 0.00568442 0.000102195 0.000199059 1.38297e-10 -4.67161e-11 1.155e-11 5e-05 1.46608e-10 
205 1 0.042291 0.018025 0.00711514 0.00623207 5.96128e-07 0.000256737 1.46938e-10 5.76744e-11 1.46442e-11 5e-05 1.46608e-10 
206 1 0.0422481 0.0178397 0.00717695 0.00609132 2.44687e-05 0.000243112 -7.54453e-10 7.41478e-11 -5.57793e-11 5e-05 1.46608e-10 
207 1 0.0418114 0.0163033 0.0078213 0.00561684 -6.53112e-05 -0.000221455 1.68188e-10 1.09854e-10 -1.81337e-10 5e-05 1.46608e-10 
208 1 0.0422052 0.0176544 0.00723875 0.00594715 4.80348e-05 0.000228679 -3.23482e-10 -1.65079e-10 4.55971e-11 5e-05 1.46608e-10 
209 1 0.0419967 0.0167268 0.00754844 0.0055787 6.55326e-05 0.000207394 -6.31103e-11 2.74348e-11 -7.91225e-12 5e-05 1.46608e-10 
210 1 0.0479726 0.0171345 0.00745605 0.0059721 0.000593228 -0.000719201 1.68454e-10 -7.52528e-10 -4.65301e-10 5e-05 1.46608e-10 
211 1 0.0482925 0.0180391 0.00712915 0.00622041 0.000571464 -0.000794619 2.46998e-11 -2.77023e-11 5.48798e-12 5e-05 1.46608e-10 
212 1 0.0423225 0.0177775 0.00720136 0.00609263 -2.65832e-06 0.000252131 -6.54341e-10 -1.36509e-10 3.20263e-11 5e-05 1.46608e-10 
213 1 0.0480968 0.0167754 0.00752642 0.00579401 0.000985703 -0.00035555 9.79578e-11 -2.45883e-10 1.9087e-10 5e-05 1.46608e-10 
214 1 0.0482185 0.0181059 0.00712165 0.00623133 0.000588203 -0.000799993 2.5822e-11 -1.46193e-11 -1.60795e-11 5e-05 1.46608e-10 
215 1 0.036038 0.0172929 0.00729167 0.0060729 -0.000169204 -9.14675e-06 -1.56571e-12 -1.58605e-10 1.00336e-10 5e-05 1.46608e-10 
216 1 0.0420983 0.017963 0.00712846 0.00611002 6.85881e-05 0.000231491 -1.84943e-10 8.12822e-10 -3.42081e-10 5e-05 1.46608e-10 
217 1 0.0479453 0.0165391 0.00775238 0.00549401 0.00114956 -0.000560625 8.0573e-11 -2.86382e-12 -1.08644e-11 5e-05 1.46608e-10 
218 1 0.0422163 0.0180869 0.00709083 0.00623446 4.26965e-05 0.000245008 3.76406e-10 2.50103e-10 -6.28685e-11 5e-05 1.46608e-10 
219 1 0.0482308 0.0185529 0.00702665 0.00627087 0.000648123 -0.000396822 2.8859e-11 -2.72852e-11 -2.78901e-11 5e-05 1.46608e-10 
220 1 0.0420553 0.0177777 0.00719028 0.00608673 0.000173797 0.000189348 -7.02087e-11 -3.27819e-10 1.02529e-10 5e-05 1.46608e-10 
221 1 0.0359527 0.0169406 0.00747323 0.00555736 -9.59992e-05 -3.90241e-05 -1.98362e-10 -5.59438e-11 3.08844e-11 5e-05 1.46608e-10 
222 1 0.0479641 0.0166086 0.00768298 0.00550497 0.00114284 -0.000554354 -7.6277e-11 1.42834e-10 -5.82277e-11 5e-05 1.46608e-10 
223 1 0.0421407 0.0173765 0.00733146 0.00590804 2.51397e-05 0.000234747 7.81201e-11 4.49552e-11 -2.03593e-11 5e-05 1.46608e-10 
224 1 0.0419478 0.0173143 0.00734485 0.00596742 -3.60781e-05 0.000258935 2.60946e-10 4.74507e-10 -1.34185e-10 5e-05 1.46608e-10 
225 1 0.0482797 0.0175932 0.00723334 0.00614561 0.000554204 -0.000783567 -2.10701e-10 3.5439e-11 1.5122e-11 5e-05 1.46608e-10 
226 1 0.042332 0.0174369 0.00731863 0.00581667 -1.44227e-06 0.000240513 2.07024e-11 -5.01115e-11 1.78314e-11 5e-05 1.46608e-10 
227 1 0.0360678 0.017056 0.00741241 0.00594091 -0.000255404 3.65383e-05 4.19534e-11 9.59649e-12 -7.10178e-12 5e-05 1.46608e-10 
228 1 0.0360006 0.0175217 0.00717522 0.00610188 -0.000238245 2.26987e-05 8.76145e-11 -2.77e-10 1.52328e-10 5e-05 1.46608e-10 
229 1 0.0419519 0.0172091 0.00747168 0.00592464 6.53656e-05 0.000219046 -2.80403e-10 3.42946e-10 -6.40628e-11 5e-05 1.46608e-10 
230 1 0.0423781 0.0183969 0.00699114 0.00632426 -3.14478e-05 0.000275991 2.17223e-10 -5.32949e-11 -1.82187e-11 5e-05 1.46608e-10 
231 1 0.0359588 0.0173478 0.00726483 0.00605378 -0.00019668 6.2573e-06 -4.99086e-11 2.24848e-10 -6.92645e-11 5e-05 1.46608e-10 
232 1 0.0419085 0.0163152 0.00780019 0.00564263 -0.000139847 -0.000127707 8.5829e-11 -4.70307e-11 1.51195e-10 5e-05 1.46608e-10 
233 1 0.0420357 0.0169128 0.00748622 0.00562484 5.59663e-05 0.000212814 -9.89973e-11 8.9086e-11 -3.3779e-11 5e-05 1.46608e-10 
234 1 0.0483499 0.0183255 0.00706148 0.00625887 0.000640374 -0.000400703 2.53399e-11 8.80207e-12 -2.33551e-11 5e-05 1.46608e-10 
235 1 0.042424 0.0185919 0.00692615 0.00578527 0.000154075 -6.05453e-06 -1.82765e-10 -1.15202e-10 -7.47085e-10 5e-05 1.46608e-10 
236 1 0.0423998 0.0184912 0.00695966 0.00535776 5.42187e-05 0.000201812 -7.40736e-10 4.37508e-10 -1.63814e-10 5e-05 1.46608e-10 
237 1 0.042486 0.0184445 0.00697925 0.00556825 0.000130034 0.000192552 -7.1909e-10 4.12359e-10 -1.90494e-10 5e-05 1.46608e-10 
239 1 0.0357792 0.0165639 0.0076687 0.00552274 -0.000108541 -3.23e-05 5.21131e-12 -5.07389e-11 2.76871e-11 5e-05 1.46608e-10 
240 1 0.0358381 0.0168254 0.007534 0.00554528 -0.000111226 -3.11007e-05 2.30161e-12 4.55221e-11 -2.25097e-11 5e-05 1.46608e-10 
241 1 0.0357597 0.0164767 0.00771362 0.00551833 -0.000104056 -3.42442e-05 -4.13001e-11 -1.20265e-10 6.15102e-11 5e-05 1.46608e-10 
242 1 0.0421514 0.0170362 0.00744865 0.00567829 6.04389e-05 0.000213541 7.9083e-11 1.71351e-10 -5.95441e-11 5e-05 1.46608e-10 
243 1 0.0419409 0.0168813 0.00749312 0.00556701 0.000117236 0.000189113 3.60568e-10 -1.41586e-10 7.25555e-11 5e-05 1.46608e-10 
244 1 0.0357988 0.0166511 0.0076238 0.00554529 -0.000116934 -2.813e-05 2.34852e-11 4.02541e-12 -4.51329e-12 5e-05 1.46608e-10 
246 1 0.0359171 0.017174 0.00735443 0.00596486 -0.000187873 2.0951e-06 5.93634e-11 7.73482e-11 -4.49509e-11 5e-05 1.46608e-10 