ITEM: TIMESTEP
9600000
ITEM: NUMBER OF ATOMS
287
ITEM: BOX BOUNDS ff ff ff
-0.02 0.43
-0.02 0.06
-0.02 0.07
ITEM: ATOMS id type x y z vx vy vz fx fy fz radius mass 
1 1 0.0687771 0.0162268 0.00794624 0.00562818 -0.000574472 0.000161144 3.81937e-11 -2.99591e-10 1.7333e-10 5e-05 1.46608e-10 
2 1 0.0691813 0.0171586 0.00728087 0.00546429 -0.000546903 0.000227279 -9.19909e-11 2.06755e-11 -3.24038e-11 5e-05 1.46608e-10 
3 1 0.0626063 0.0159465 0.00823109 0.00608731 0.000159589 3.18605e-05 -1.36957e-12 8.08575e-11 -3.17913e-11 5e-05 1.46608e-10 
4 1 0.0690864 0.0175501 0.0071608 0.00563043 -0.0005408 0.000227122 2.9417e-11 -6.23009e-11 -1.19905e-12 5e-05 1.46608e-10 
5 1 0.0686609 0.0161234 0.00802509 0.00561692 -0.000403327 0.000389571 -4.47414e-11 -1.26227e-10 1.25796e-10 5e-05 1.46608e-10 
6 1 0.0747356 0.0164076 0.00780702 0.00579095 -0.000128793 -0.000302985 4.44292e-12 4.99728e-11 -3.60362e-11 5e-05 1.46608e-10 
7 1 0.0688388 0.0168417 0.00751299 0.00540134 -0.000494906 0.000194038 2.15087e-10 7.89301e-11 -6.38041e-11 5e-05 1.46608e-10 
8 1 0.0685591 0.0157391 0.00832837 0.00552298 -0.000340449 0.000452534 2.72327e-11 1.59123e-10 -1.23181e-10 5e-05 1.46608e-10 
9 1 0.074982 0.0174881 0.0072151 0.0056719 -9.19905e-05 -0.000300677 6.46877e-12 -4.45213e-11 1.08353e-11 5e-05 1.46608e-10 
10 1 0.0687814 0.0166014 0.00768321 0.0054701 -0.00053561 0.000219401 1.44743e-10 -9.33294e-11 7.53893e-11 5e-05 1.46608e-10 
11 1 0.069218 0.0173204 0.00716902 0.00551637 -0.00053041 0.000225809 1.34157e-10 -1.35335e-11 6.16113e-11 5e-05 1.46608e-10 
12 1 0.0628073 0.0167354 0.00765179 0.00548055 0.000218084 -2.0034e-05 1.52607e-10 -5.05099e-11 4.70255e-11 5e-05 1.46608e-10 
13 1 0.0686405 0.0160462 0.00808538 0.0056059 -0.000340412 0.000454838 1.80511e-11 -3.14712e-11 5.90726e-11 5e-05 1.46608e-10 
14 1 0.0625208 0.0156495 0.00848423 0.00621304 -0.000292398 -0.000455747 -2.2683e-11 1.93392e-10 4.00394e-11 5e-05 1.46608e-10 
15 1 0.0689716 0.0170272 0.00737904 0.00550243 -0.000515111 0.000206021 -7.09506e-11 2.35968e-11 -2.58441e-11 5e-05 1.46608e-10 
16 1 0.0624993 0.0155788 0.00855154 0.00621916 -0.000303194 -0.000454588 2.70589e-12 1.37197e-11 1.8492e-11 5e-05 1.46608e-10 
17 1 0.0687619 0.0165214 0.00773992 0.00547312 -0.000529263 0.000215326 -1.01581e-11 -2.2663e-10 1.65447e-10 5e-05 1.46608e-10 
18 1 0.0748698 0.0169575 0.00739626 0.00558311 -8.27949e-05 -0.000322279 -1.44578e-11 5.00543e-15 5.55407e-14 5e-05 1.46608e-10 
19 1 0.0686204 0.0159703 0.00814734 0.00558857 -0.000338512 0.000451814 4.06548e-11 3.19512e-11 2.18667e-11 5e-05 1.46608e-10 
21 1 0.0687565 0.0161495 0.00800658 0.00560839 -0.00036165 0.000465971 2.04508e-11 -2.89982e-10 2.91233e-10 5e-05 1.46608e-10 
22 1 0.068877 0.0170019 0.0073995 0.0054587 -0.000483342 0.000184901 -2.40109e-10 2.02145e-10 -1.31751e-10 5e-05 1.46608e-10 
23 1 0.06298 0.0170798 0.00740143 0.00563077 0.000168703 2.03204e-05 1.71446e-10 8.06969e-11 -5.27414e-11 5e-05 1.46608e-10 
24 1 0.0749263 0.0171934 0.0072234 0.00566651 -8.92967e-05 -0.000300623 3.13641e-11 1.26886e-11 -6.599e-12 5e-05 1.46608e-10 
25 1 0.0688197 0.0167616 0.00756974 0.00536933 -0.000505096 0.000202383 1.19537e-12 2.37216e-11 -1.61061e-11 5e-05 1.46608e-10 
26 1 0.0748131 0.0167211 0.00757107 0.00549957 -6.67615e-05 -0.000328292 -1.01839e-11 6.47324e-13 -2.44198e-12 5e-05 1.46608e-10 
27 1 0.0628841 0.0170519 0.00741961 0.00558132 0.000194214 -4.78283e-09 1.05748e-10 -1.17467e-11 9.28212e-12 5e-05 1.46608e-10 
28 1 0.0690674 0.017452 0.00716137 0.00554656 -0.000520194 0.000223305 9.87502e-12 -1.22229e-11 9.17003e-12 5e-05 1.46608e-10 
29 1 0.0685998 0.0158927 0.00820686 0.00556592 -0.00033845 0.000451123 5.83872e-12 1.04462e-10 -7.38587e-11 5e-05 1.46608e-10 
30 1 0.0691051 0.0172126 0.00724513 0.00548535 -0.000516631 0.000225919 -5.83735e-12 1.00328e-10 1.1132e-10 5e-05 1.46608e-10 
31 1 0.0688579 0.0169218 0.00745625 0.00542576 -0.000488136 0.000188848 8.82522e-11 1.64399e-10 -1.25764e-10 5e-05 1.46608e-10 
32 1 0.0689525 0.0169471 0.00743578 0.00544972 -0.000509709 0.000204182 5.27937e-11 3.50188e-11 -4.4711e-11 5e-05 1.46608e-10 
33 1 0.0747552 0.0164859 0.00774805 0.00559766 -8.90404e-05 -0.000318887 -4.05216e-11 3.95441e-11 -2.66518e-11 5e-05 1.46608e-10 
34 1 0.0687421 0.0164414 0.0077966 0.00550425 -0.000523696 0.000224152 1.35443e-10 -1.83345e-10 1.77789e-10 5e-05 1.46608e-10 
35 1 0.0689334 0.016867 0.00749252 0.00536717 -0.000498491 0.000197509 -8.58913e-11 9.37085e-11 -4.12373e-11 5e-05 1.46608e-10 
36 1 0.0750225 0.0176838 0.0072094 0.00592856 -0.000147134 -0.000305912 1.9276e-10 1.27742e-11 -3.08833e-10 5e-05 1.46608e-10 
37 1 0.0688952 0.0167069 0.00760601 0.00536045 -0.000495568 0.000195724 -1.05852e-10 1.61974e-10 -1.15778e-10 5e-05 1.46608e-10 
38 1 0.0690472 0.0169725 0.0074153 0.00540558 -0.000514935 0.000208099 -1.00325e-10 7.27291e-11 -4.59035e-11 5e-05 1.46608e-10 
39 1 0.0749449 0.0172916 0.00722065 0.00566005 -8.79656e-05 -0.000299893 1.50553e-12 -6.91326e-13 -2.16817e-13 5e-05 1.46608e-10 
41 1 0.0687018 0.0162817 0.00791 0.00562992 -0.0005491 0.000221809 1.91388e-10 1.05823e-10 3.60871e-10 5e-05 1.46608e-10 
42 1 0.0688962 0.0170819 0.00734276 0.00552025 -0.000491915 0.000189361 -2.36812e-11 1.24761e-10 -9.87033e-11 5e-05 1.46608e-10 
44 1 0.0690665 0.0170525 0.00735858 0.00543126 -0.000516982 0.000209255 6.67286e-11 5.6567e-11 -4.42095e-11 5e-05 1.46608e-10 
45 1 0.0747745 0.0165643 0.00768905 0.00559553 -8.71965e-05 -0.000320163 8.52941e-12 1.92888e-12 -4.05017e-12 5e-05 1.46608e-10 
46 1 0.0748584 0.0168764 0.00745371 0.00555053 -7.94999e-05 -0.000322726 -3.28631e-11 3.55529e-12 -5.61345e-12 5e-05 1.46608e-10 
47 1 0.0687222 0.0163615 0.00785327 0.00564541 -0.000534971 0.000249684 -1.0853e-11 -3.53958e-11 1.86878e-10 5e-05 1.46608e-10 
48 1 0.0689345 0.0172421 0.00722929 0.00555082 -0.000513675 0.000198695 1.36715e-10 3.77719e-11 -7.61091e-11 5e-05 1.46608e-10 
49 1 0.0748322 0.0167996 0.00751205 0.00551761 -7.12247e-05 -0.000326675 -9.74716e-12 7.0384e-13 1.06177e-12 5e-05 1.46608e-10 
50 1 0.0689914 0.0175179 0.00715751 0.00563985 -0.000551649 0.000228067 -5.27609e-11 1.24189e-10 -8.45635e-12 5e-05 1.46608e-10 
51 1 0.0689729 0.0174196 0.00715817 0.00555434 -0.000532167 0.000220635 -4.51985e-12 1.37709e-10 -6.60746e-11 5e-05 1.46608e-10 
52 1 0.0627883 0.0166563 0.00770986 0.00548078 0.000226087 -2.53584e-05 5.61654e-11 -5.03917e-11 3.07538e-11 5e-05 1.46608e-10 
53 1 0.0748893 0.0170344 0.0073354 0.00561291 -8.8227e-05 -0.000320007 3.20154e-13 -7.60337e-12 -4.5232e-12 5e-05 1.46608e-10 
54 1 0.068736 0.0160727 0.00806732 0.00562131 -0.000344137 0.000456997 1.21286e-10 2.39726e-11 7.56609e-11 5e-05 1.46608e-10 
55 1 0.062564 0.0157918 0.00835047 0.00616834 -8.01207e-05 -0.000244918 4.19106e-10 -1.21645e-10 -3.172e-10 5e-05 1.46608e-10 
56 1 0.0689143 0.0167869 0.00754927 0.005325 -0.000491569 0.000194292 -6.02523e-11 1.22397e-10 -8.82815e-11 5e-05 1.46608e-10 
57 1 0.0747943 0.0166426 0.00763009 0.00549448 -6.61332e-05 -0.000328678 -9.93135e-12 5.1545e-12 -1.01289e-12 5e-05 1.46608e-10 
59 1 0.0689706 0.0166521 0.00764227 0.0053271 -0.000497972 0.000198106 1.38894e-10 -2.58344e-11 3.94536e-12 5e-05 1.46608e-10 
60 1 0.0689897 0.0167322 0.00758552 0.00530465 -0.000497539 0.000199307 4.23545e-11 1.95925e-11 -2.04752e-11 5e-05 1.46608e-10 
61 1 0.0686813 0.0162023 0.00796725 0.00562247 -0.000524469 0.000241893 -5.34687e-11 6.0071e-11 5.00835e-10 5e-05 1.46608e-10 
62 1 0.0690858 0.0171326 0.00730185 0.00546142 -0.00051718 0.000215583 5.4738e-11 5.05449e-11 2.40381e-11 5e-05 1.46608e-10 
63 1 0.0690293 0.0172675 0.00720897 0.00550325 -0.00050186 0.000211734 7.98841e-11 -5.40289e-11 3.62494e-11 5e-05 1.46608e-10 
64 1 0.0749212 0.0171097 0.00727784 0.00564563 -9.67128e-05 -0.000312936 -3.97864e-12 7.93932e-12 6.88877e-12 5e-05 1.46608e-10 
65 1 0.0629033 0.0167633 0.00763361 0.0055395 0.000209027 -1.19484e-05 -1.19386e-10 1.26232e-11 -5.26734e-12 5e-05 1.46608e-10 
66 1 0.0628452 0.016526 0.00780769 0.00555851 0.000181515 8.69648e-06 -3.8596e-11 5.68459e-11 -5.09089e-11 5e-05 1.46608e-10 
67 1 0.0692 0.0172388 0.0072241 0.00549127 -0.000550891 0.000234013 -3.88836e-11 -3.61748e-11 1.00467e-10 5e-05 1.46608e-10 
68 1 0.0691443 0.0173882 0.00716523 0.00554094 -0.000523031 0.00022526 -4.33192e-12 -2.64732e-12 -4.90039e-12 5e-05 1.46608e-10 
69 1 0.0688373 0.0164667 0.00777619 0.0054544 -0.000537067 0.000222263 2.45335e-10 -2.97826e-11 5.95386e-12 5e-05 1.46608e-10 
70 1 0.0749634 0.0173899 0.00721787 0.00562339 -8.13607e-05 -0.000298532 -1.54409e-11 -2.05943e-11 7.8279e-12 5e-05 1.46608e-10 
71 1 0.0625424 0.0157203 0.00841698 0.00620616 -0.000313365 -0.000493214 1.54949e-11 2.60528e-10 -6.27387e-12 5e-05 1.46608e-10 
72 1 0.0691239 0.0172932 0.00718896 0.00551253 -0.000518995 0.000228551 7.90142e-11 2.74162e-11 5.9359e-11 5e-05 1.46608e-10 
73 1 0.0688006 0.0166815 0.00762648 0.00537735 -0.000520452 0.000213004 -7.15331e-11 -2.31259e-11 4.90537e-12 5e-05 1.46608e-10 
74 1 0.0689909 0.0171073 0.00732231 0.00549312 -0.000510642 0.000202587 -2.02808e-10 3.77883e-11 1.28363e-11 5e-05 1.46608e-10 
76 1 0.0631138 0.0176835 0.00710478 0.00594691 -0.000235224 -0.000238587 -3.13498e-10 -8.60904e-11 1.64596e-10 5e-05 1.46608e-10 
77 1 0.0692356 0.018234 0.00715753 0.00581855 -0.000622611 0.000236493 -4.25437e-11 -9.70244e-11 -1.44411e-12 5e-05 1.46608e-10 
78 1 0.0626271 0.016025 0.00817274 0.00572959 0.000217028 -1.21721e-05 -2.32536e-10 1.09015e-10 -7.50994e-11 5e-05 1.46608e-10 
79 1 0.0628271 0.0168145 0.00759385 0.00554182 0.000204291 -7.79124e-06 3.84999e-11 -5.90725e-11 5.88746e-11 5e-05 1.46608e-10 
80 1 0.0690522 0.0178116 0.00715597 0.00588232 -0.000600749 0.000239049 -1.05355e-10 -2.46384e-10 2.33172e-11 5e-05 1.46608e-10 
81 1 0.0627691 0.0165771 0.00776789 0.00557093 0.000217681 -1.6104e-05 -1.1653e-10 -3.97007e-11 1.34367e-11 5e-05 1.46608e-10 
82 1 0.0629032 0.0171311 0.00736155 0.00561696 0.000189596 5.60508e-06 -1.24611e-10 -1.49964e-12 4.93695e-12 5e-05 1.46608e-10 
83 1 0.0629038 0.0163978 0.00790406 0.00563449 0.000183382 9.51091e-06 1.30756e-10 -3.74413e-11 2.91768e-11 5e-05 1.46608e-10 
84 1 0.0750007 0.0175863 0.00721232 0.00592259 -0.000142856 -0.00031099 -3.4015e-11 -4.53985e-11 -4.79351e-12 5e-05 1.46608e-10 
85 1 0.0627234 0.016052 0.00815524 0.00562666 0.000186057 6.93971e-06 -3.31522e-10 4.18066e-11 -3.58769e-11 5e-05 1.46608e-10 
86 1 0.069048 0.0173537 0.00716191 0.00556979 -0.000510858 0.000224158 -1.07846e-10 -4.6391e-11 -2.3312e-11 5e-05 1.46608e-10 
87 1 0.0689515 0.016572 0.00769901 0.00540967 -0.000507349 0.000202577 1.24712e-10 -1.54688e-11 2.40191e-11 5e-05 1.46608e-10 
88 1 0.0691172 0.0181047 0.00715462 0.00584539 -0.000633164 0.000237769 8.02782e-11 3.91234e-11 1.41021e-12 5e-05 1.46608e-10 
89 1 0.0690739 0.0179095 0.00715552 0.00587013 -0.000632053 0.000238238 1.48507e-12 1.64354e-11 -5.37091e-12 5e-05 1.46608e-10 
90 1 0.069162 0.0170786 0.0073376 0.0054381 -0.000542554 0.000227365 7.97221e-11 4.52811e-11 -4.30387e-11 5e-05 1.46608e-10 
91 1 0.0628468 0.0168935 0.00753584 0.00557243 0.000199275 -3.08749e-06 -1.55153e-10 -1.34163e-11 6.86388e-12 5e-05 1.46608e-10 
92 1 0.0691838 0.0175842 0.00716417 0.00577882 -0.000586 0.000233869 -4.37149e-11 -1.02791e-10 -4.22802e-13 5e-05 1.46608e-10 
93 1 0.0691706 0.0179412 0.00715889 0.00587332 -0.000621767 0.000238562 8.90557e-11 -1.3468e-10 5.5396e-12 5e-05 1.46608e-10 
94 1 0.0692476 0.0178774 0.00716276 0.00586472 -0.000639687 0.000238413 3.34795e-10 -1.59214e-10 1.44105e-11 5e-05 1.46608e-10 
95 1 0.0690305 0.017714 0.00715643 0.00589727 -0.00060371 0.000239544 -5.87824e-11 -1.72615e-10 1.72982e-11 5e-05 1.46608e-10 
96 1 0.0692043 0.0176821 0.00716367 0.0058583 -0.000609848 0.000237405 -2.44222e-10 -8.55379e-11 -9.64461e-12 5e-05 1.46608e-10 
97 1 0.0627293 0.0164191 0.00788379 0.00573334 0.000176846 1.5239e-05 1.66161e-10 -5.06366e-11 4.04095e-11 5e-05 1.46608e-10 
98 1 0.0691389 0.0182023 0.00715416 0.00583582 -0.000627675 0.000237366 4.64581e-11 4.12259e-11 -9.14349e-13 5e-05 1.46608e-10 
99 1 0.0628835 0.0166843 0.00769158 0.00550466 0.000210981 -1.39269e-05 -3.07284e-10 8.31294e-11 -7.12746e-11 5e-05 1.46608e-10 
100 1 0.0691234 0.0169185 0.00745105 0.00539066 -0.000544848 0.000229427 -1.22669e-10 1.13537e-10 -7.23644e-11 5e-05 1.46608e-10 
101 1 0.0628256 0.0164469 0.00786569 0.00558987 0.000171951 1.68995e-05 4.54225e-11 2.19264e-11 -8.41832e-12 5e-05 1.46608e-10 
102 1 0.0643568 0.0187248 0.00531097 4.19058e-15 1.05128e-14 8.29622e-14 -1.02475e-21 5.35212e-22 -8.89219e-24 5e-05 1.46608e-10 
103 1 0.24257 0.0191927 0.00520306 2.73478e-22 2.24983e-22 1.23839e-22 0 0 0 5e-05 1.46608e-10 
104 1 0.0631253 0.0173654 0.00723005 0.00564672 0.000174863 6.19287e-06 3.73649e-11 7.53641e-12 8.44102e-13 5e-05 1.46608e-10 
105 1 0.0626892 0.0162666 0.00800668 0.00571715 0.000195321 5.89389e-06 -1.88078e-10 -1.17407e-10 1.09315e-10 5e-05 1.46608e-10 
106 1 0.0632051 0.0173047 0.00724088 0.00569253 9.47735e-05 7.82954e-05 3.61939e-13 -1.2911e-10 1.1008e-10 5e-05 1.46608e-10 
107 1 0.062648 0.0161042 0.00811545 0.00566667 0.00022039 -1.72562e-05 -1.58409e-10 6.60696e-11 -4.29881e-11 5e-05 1.46608e-10 
108 1 0.0688761 0.0166268 0.00766275 0.00540058 -0.000507331 0.000203168 2.21583e-11 1.26439e-10 -8.9096e-11 5e-05 1.46608e-10 
109 1 0.0689537 0.0173222 0.00717255 0.00557845 -0.000523992 0.000212644 -6.51952e-11 3.07357e-11 -2.82814e-11 5e-05 1.46608e-10 
110 1 0.0693008 0.0177137 0.00716703 0.00580907 -0.000657595 0.000236604 2.5763e-10 -1.09319e-10 1.56922e-11 5e-05 1.46608e-10 
111 1 0.0691822 0.0183976 0.00715326 0.00582334 -0.000597157 0.000236374 5.44728e-11 5.84174e-11 -4.61167e-12 5e-05 1.46608e-10 
112 1 0.0627495 0.0164981 0.00782589 0.005612 0.000204446 -6.30677e-06 -1.80016e-10 4.88314e-12 -1.87551e-11 5e-05 1.46608e-10 
113 1 0.0635099 0.0178252 0.00709745 0.00606029 0.000112237 -0.000219651 2.07388e-10 4.21349e-11 9.54378e-14 5e-05 1.46608e-10 
114 1 0.0630788 0.0171096 0.00738195 0.00560212 0.000127518 5.00465e-05 1.81095e-10 6.98291e-11 -4.76512e-11 5e-05 1.46608e-10 
115 1 0.0690103 0.0171873 0.00726563 0.00547644 -0.000500085 0.000206357 2.55742e-11 -5.79946e-11 -3.59762e-11 5e-05 1.46608e-10 
116 1 0.0688568 0.0165467 0.00771948 0.00546825 -0.000531262 0.000218047 2.16536e-10 -6.66964e-11 1.83075e-11 5e-05 1.46608e-10 
117 1 0.0687156 0.0159958 0.00812812 0.00562323 -0.00032359 0.00044178 6.80189e-11 -3.52016e-12 -3.56826e-12 5e-05 1.46608e-10 
118 1 0.0625852 0.0158672 0.00828835 0.00611828 0.000159958 3.87245e-05 7.50102e-11 6.14144e-11 -8.84371e-11 5e-05 1.46608e-10 
119 1 0.0690088 0.0168123 0.00752878 0.00534926 -0.000509917 0.000205773 -3.09077e-11 5.47555e-11 -4.19483e-11 5e-05 1.46608e-10 
120 1 0.0685795 0.0158159 0.00826762 0.00553816 -0.000338241 0.000451641 2.24776e-11 1.42407e-10 -1.12812e-10 5e-05 1.46608e-10 
121 1 0.068538 0.0156624 0.008389 0.00609015 -0.000428035 0.000540605 1.92538e-11 1.76793e-10 -1.31154e-10 5e-05 1.46608e-10 
122 1 0.0693225 0.0178113 0.00716658 0.00585143 -0.000662619 0.000238191 5.24605e-10 -4.01775e-11 1.92088e-11 5e-05 1.46608e-10 
123 1 0.0627649 0.01621 0.00803941 0.00571554 0.000189385 7.67265e-06 -4.11548e-12 -7.95059e-11 1.02687e-10 5e-05 1.46608e-10 
124 1 0.0691274 0.0177459 0.0071598 0.00586956 -0.000605623 0.000238049 -2.50195e-10 -1.68456e-10 5.00712e-12 5e-05 1.46608e-10 
125 1 0.0686955 0.015919 0.00818896 0.00557088 -0.000355919 0.00046646 1.34247e-10 1.94875e-11 -6.44277e-11 5e-05 1.46608e-10 
126 1 0.0689154 0.017162 0.00728603 0.00553824 -0.000501246 0.000193273 9.54522e-11 1.21745e-10 -8.13318e-11 5e-05 1.46608e-10 
127 1 0.062709 0.0163409 0.00794275 0.00571788 0.000182669 1.26459e-05 -8.7996e-11 -8.60578e-11 1.16639e-10 5e-05 1.46608e-10 
128 1 0.0690105 0.017616 0.00715695 0.00581374 -0.000586867 0.000235381 -2.15125e-10 2.07408e-11 5.22524e-12 5e-05 1.46608e-10 
129 1 0.0690955 0.0180071 0.00715507 0.00585781 -0.000632622 0.000238167 6.02387e-11 -3.1703e-12 -2.54812e-13 5e-05 1.46608e-10 
130 1 0.0630006 0.0171588 0.00734358 0.00562453 0.000159403 2.7082e-05 3.19898e-10 7.15572e-11 -4.63495e-11 5e-05 1.46608e-10 
131 1 0.0628645 0.0166051 0.00774966 0.00552122 0.000197678 -3.77235e-06 8.05322e-11 5.97411e-11 -5.27867e-11 5e-05 1.46608e-10 
132 1 0.0691066 0.0176481 0.00716029 0.00579281 -0.000580865 0.000234375 -1.75398e-10 -7.69626e-11 -2.25219e-12 5e-05 1.46608e-10 
133 1 0.0688731 0.0162532 0.00792741 0.00560999 -0.000365192 0.000473141 5.72957e-11 -3.08996e-10 1.13155e-10 5e-05 1.46608e-10 
134 1 0.0690279 0.0168924 0.00747203 0.00538363 -0.000515139 0.000208799 -1.39355e-10 6.11802e-11 -3.8517e-11 5e-05 1.46608e-10 
135 1 0.0686748 0.0158422 0.00824966 0.00558218 -0.000325412 0.000442761 2.65199e-11 1.82383e-10 -1.37591e-10 5e-05 1.46608e-10 
136 1 0.0627023 0.015973 0.00821313 0.0058221 0.000303143 -7.47286e-05 -2.31387e-10 1.31125e-10 -1.01329e-10 5e-05 1.46608e-10 
137 1 0.0692038 0.0184952 0.00715281 0.00581495 -0.000577112 0.000235794 2.73447e-11 2.25423e-11 -1.55724e-12 5e-05 1.46608e-10 
138 1 0.0688175 0.0163866 0.00783292 0.00558416 -0.00045601 0.000168433 2.13931e-10 5.55046e-11 -2.04315e-12 5e-05 1.46608e-10 
140 1 0.0693441 0.0179089 0.00716612 0.00583587 -0.000659523 0.000237555 2.71173e-10 5.90873e-11 1.33451e-11 5e-05 1.46608e-10 
141 1 0.0627434 0.016131 0.00809729 0.00568005 0.000179304 1.46089e-05 -6.34168e-11 5.69309e-12 -9.16206e-12 5e-05 1.46608e-10 
142 1 0.0630983 0.0171892 0.00732356 0.00561998 0.000113346 6.0803e-05 1.65186e-10 1.15091e-10 -6.97566e-11 5e-05 1.46608e-10 
143 1 0.062668 0.0161828 0.00805699 0.00570877 0.000205132 -4.62305e-06 -1.01149e-10 -8.85784e-11 3.81151e-11 5e-05 1.46608e-10 
144 1 0.0630582 0.0170307 0.0074398 0.00562761 0.000160797 2.58776e-05 1.0536e-10 1.65551e-11 -9.93245e-12 5e-05 1.46608e-10 
146 1 0.0629234 0.0164769 0.00784606 0.00557299 0.000190128 3.24521e-06 4.07615e-10 2.01074e-10 -1.3193e-10 5e-05 1.46608e-10 
147 1 0.0626813 0.0158939 0.00827111 0.00609525 0.000177217 2.46882e-05 -1.53592e-10 4.69116e-11 -3.4231e-11 5e-05 1.46608e-10 
148 1 0.0629607 0.0173683 0.00718749 0.00568218 0.000162703 1.94325e-05 1.52041e-11 -7.23388e-11 1.47107e-10 5e-05 1.46608e-10 
149 1 0.0692692 0.017975 0.00716231 0.00586225 -0.000622484 0.000238187 1.46987e-10 -5.60641e-11 4.71582e-12 5e-05 1.46608e-10 
150 1 0.0629617 0.0166351 0.00772996 0.00549419 0.000194839 -2.63426e-06 -2.85978e-10 1.50985e-10 -1.1957e-10 5e-05 1.46608e-10 
151 1 0.063295 0.0173413 0.00721698 0.00571262 9.57424e-05 0.000136907 1.31018e-10 -2.55191e-10 2.54039e-10 5e-05 1.46608e-10 
153 1 0.0628054 0.0163679 0.00792359 0.00568305 0.000161094 2.6841e-05 2.86792e-10 -8.01421e-11 7.40575e-11 5e-05 1.46608e-10 
154 1 0.0630541 0.0173985 0.00716756 0.00570061 0.000219593 -1.52987e-05 -9.73485e-11 2.77758e-11 -1.08879e-11 5e-05 1.46608e-10 
155 1 0.0631362 0.0177822 0.00710911 0.00610836 5.22654e-05 -0.000226041 2.25567e-11 -1.64185e-10 1.3975e-10 5e-05 1.46608e-10 
156 1 0.0630374 0.0173177 0.00722691 0.00567397 0.000158537 2.05095e-05 -2.22637e-11 -1.55903e-11 1.3505e-12 5e-05 1.46608e-10 
157 1 0.0219312 0.0187687 0.00551176 -3.83545e-14 8.16607e-14 2.95886e-13 -1.32039e-22 -1.22268e-22 1.8198e-23 5e-05 1.46608e-10 
158 1 0.0631472 0.0174668 0.00719572 0.00565002 0.000322518 -8.04236e-07 -1.60372e-10 2.10961e-10 7.24536e-11 5e-05 1.46608e-10 
159 1 0.0691641 0.0174862 0.00716472 0.0056264 -0.000547779 0.000226316 -5.48654e-11 -7.49382e-11 -1.25543e-11 5e-05 1.46608e-10 
160 1 0.0630403 0.0177512 0.00711162 0.00611813 2.83464e-05 -0.000213138 -4.58917e-11 -2.33392e-10 1.08626e-11 5e-05 1.46608e-10 
162 1 0.0630521 0.0174827 0.00710523 0.00565734 0.000146962 2.97714e-05 -8.21267e-10 -1.28142e-13 5.7041e-12 5e-05 1.46608e-10 
164 1 0.0633097 0.018124 0.00712051 0.00603863 4.18009e-05 -0.000223405 -6.60849e-11 6.97687e-11 1.26478e-10 5e-05 1.46608e-10 
165 1 0.0633652 0.0175935 0.00709131 0.00603249 -2.74584e-05 -0.000198315 3.40923e-10 -1.25874e-10 -2.55725e-10 5e-05 1.46608e-10 
166 1 0.0688322 0.0160997 0.00804888 0.00559647 -0.000362094 0.000473897 2.19526e-10 -2.41392e-10 1.69395e-10 5e-05 1.46608e-10 
167 1 0.0629427 0.016556 0.00778803 0.00552198 0.000191792 6.58326e-07 1.46577e-10 2.24302e-10 -1.5962e-10 5e-05 1.46608e-10 
168 1 0.0632081 0.0173884 0.00717902 0.00560409 0.00024423 -3.27357e-05 2.35523e-11 -4.45942e-11 -1.1958e-11 5e-05 1.46608e-10 
169 1 0.0634362 0.0178925 0.00710371 0.00607678 4.56261e-05 -0.000223566 1.1336e-10 2.0906e-10 5.1815e-12 5e-05 1.46608e-10 
170 1 0.063258 0.0175534 0.00709262 0.00592736 1.95176e-06 -0.000225225 1.04751e-10 -1.69449e-10 -3.10275e-11 5e-05 1.46608e-10 
171 1 0.0688526 0.0161764 0.00798814 0.00559446 -0.000362792 0.000471038 6.32947e-11 -2.40795e-10 1.8815e-10 5e-05 1.46608e-10 
172 1 0.0633425 0.0174968 0.00710232 0.00564519 9.12569e-05 7.88391e-05 -1.96609e-10 -6.30313e-11 1.08929e-10 5e-05 1.46608e-10 
173 1 0.0692943 0.0172648 0.00720315 0.00550489 -0.000592572 0.000258296 -1.10248e-10 -1.81665e-10 6.12679e-11 5e-05 1.46608e-10 
174 1 0.0632029 0.0176359 0.00710487 0.00601902 5.77109e-05 -0.000265544 -1.82234e-11 -9.36115e-11 -2.9257e-10 5e-05 1.46608e-10 
175 1 0.0569419 0.0172802 0.0072152 0.00570625 0.000147627 -8.96292e-05 -1.53379e-10 1.86834e-11 -6.11442e-11 5e-05 1.46608e-10 
176 1 0.0630197 0.0172379 0.00728551 0.0056508 0.00015083 3.41918e-05 7.91999e-11 4.5667e-11 -4.19577e-11 5e-05 1.46608e-10 
177 1 0.0630834 0.0179464 0.00711966 0.00609039 5.48036e-05 -0.000220769 2.8144e-11 -3.13112e-11 -7.88574e-11 5e-05 1.46608e-10 
178 1 0.0634884 0.0177274 0.00709314 0.00609491 5.52931e-05 -0.000224021 1.04325e-10 9.6984e-15 -9.9948e-12 5e-05 1.46608e-10 
179 1 0.0634147 0.0177947 0.0070994 0.00607816 6.02005e-05 -0.000222509 2.34489e-10 -7.89959e-11 -3.2757e-11 5e-05 1.46608e-10 
181 1 0.063 0.017559 0.0071436 0.00565531 0.000151217 -1.19629e-07 3.0758e-10 3.7714e-10 -7.50977e-11 5e-05 1.46608e-10 
182 1 0.0687976 0.016307 0.00789008 0.00563762 -0.000506945 0.000257382 1.35009e-10 -7.31589e-11 4.86052e-10 5e-05 1.46608e-10 
183 1 0.0632121 0.0174688 0.00711966 0.00558682 0.000253365 -4.04692e-05 -3.36637e-10 6.65255e-11 -4.47419e-11 5e-05 1.46608e-10 
184 1 0.0691032 0.0174964 0.00724347 0.0055609 -0.000550343 0.000232557 1.477e-11 -1.13487e-11 4.02932e-11 5e-05 1.46608e-10 
185 1 0.0629435 0.0172913 0.00724887 0.00567521 0.000170991 1.6809e-05 -4.53307e-11 -9.67919e-11 2.6514e-11 5e-05 1.46608e-10 
186 1 0.0629797 0.0174653 0.00717198 0.00565536 0.000168212 3.74617e-05 -2.03375e-10 -5.39255e-11 1.93522e-10 5e-05 1.46608e-10 
187 1 0.0691041 0.0168384 0.00750778 0.00536308 -0.000545445 0.00023094 -4.28714e-11 1.13872e-10 -8.22413e-11 5e-05 1.46608e-10 
188 1 0.0691923 0.0180388 0.00715844 0.00585513 -0.000621232 0.000237659 1.12082e-10 -1.13069e-10 7.41576e-12 5e-05 1.46608e-10 
189 1 0.0691427 0.0169985 0.00739433 0.0054072 -0.000540939 0.000227236 5.04503e-11 5.4165e-11 -3.15343e-11 5e-05 1.46608e-10 
190 1 0.0570558 0.0174108 0.00721127 0.0058796 5.73162e-05 -6.52129e-05 -1.68599e-10 -5.28259e-11 -4.9737e-12 5e-05 1.46608e-10 
191 1 0.0692255 0.0185928 0.00715235 0.00581086 -0.00055459 0.000235236 1.00254e-12 4.11584e-11 7.73236e-13 5e-05 1.46608e-10 
192 1 0.0631809 0.017145 0.00735841 0.00560637 8.99262e-05 7.75507e-05 1.01078e-10 -2.03806e-11 7.6917e-12 5e-05 1.46608e-10 
193 1 0.0689322 0.016492 0.00775574 0.00548599 -0.000517086 0.000207902 1.31556e-10 -2.97259e-11 5.22381e-11 5e-05 1.46608e-10 
194 1 0.0630012 0.0167932 0.00761401 0.00556711 0.000189906 3.14178e-06 -6.81924e-11 1.57112e-11 -1.78188e-11 5e-05 1.46608e-10 
195 1 0.0633931 0.0176972 0.00709511 0.00609406 4.33055e-05 -0.00022381 9.91615e-11 1.11169e-10 -2.18309e-12 5e-05 1.46608e-10 
196 1 0.0624777 0.015508 0.00861886 0.00624202 -0.000307376 -0.000451144 2.87581e-11 6.47244e-11 -7.99263e-11 5e-05 1.46608e-10 
197 1 0.0569995 0.0175745 0.00720868 0.00605187 0.000104248 -5.96993e-05 1.74469e-11 7.11057e-11 1.60847e-11 5e-05 1.46608e-10 
198 1 0.0628648 0.0169729 0.00747777 0.00556878 0.000199621 -3.11002e-06 4.44132e-11 1.82945e-11 -2.2732e-11 5e-05 1.46608e-10 
199 1 0.0630872 0.0175823 0.00710049 0.0056383 -0.00012725 -0.000217914 6.91925e-10 3.67265e-10 -3.29144e-10 5e-05 1.46608e-10 
200 1 0.0629607 0.0170007 0.00745947 0.00561077 0.000181836 1.01049e-05 4.52656e-11 3.88563e-11 -3.33947e-11 5e-05 1.46608e-10 
201 1 0.0634054 0.0181549 0.00711856 0.00600568 4.35422e-05 -0.000219842 -1.50148e-10 1.3453e-10 -3.12074e-11 5e-05 1.46608e-10 
202 1 0.0631979 0.0172244 0.00730008 0.00564166 8.88816e-05 7.84919e-05 1.22381e-10 -9.04932e-11 7.87876e-11 5e-05 1.46608e-10 
203 1 0.0693167 0.0173573 0.0071724 0.00555765 -0.000620627 0.000224696 -1.21403e-10 -2.40216e-10 4.16879e-12 5e-05 1.46608e-10 
204 1 0.062941 0.0169217 0.00751744 0.00557864 0.000192887 9.89836e-07 -7.0783e-11 -2.04549e-11 8.90446e-12 5e-05 1.46608e-10 
205 1 0.0632667 0.0179289 0.00711191 0.00606273 3.77396e-05 -0.000223645 1.40144e-10 9.74218e-12 -8.967e-12 5e-05 1.46608e-10 
206 1 0.0632235 0.0177338 0.00710333 0.00610163 4.55287e-05 -0.000228376 4.43207e-11 -1.50697e-10 -4.24024e-11 5e-05 1.46608e-10 
207 1 0.0627852 0.016289 0.00798151 0.00568524 0.000150875 3.37568e-05 -2.47333e-10 -2.54132e-10 1.67284e-10 5e-05 1.46608e-10 
208 1 0.063169 0.0175536 0.00715039 0.00561397 0.000308314 -8.56765e-05 -2.44049e-10 2.2275e-10 -2.0959e-10 5e-05 1.46608e-10 
209 1 0.0629814 0.0167142 0.00767198 0.00553553 0.000191554 8.89823e-07 -9.013e-11 3.73588e-11 -2.7676e-11 5e-05 1.46608e-10 
210 1 0.068957 0.0172458 0.00732667 0.0054653 -0.00049319 0.00020773 7.93068e-11 1.4996e-10 -2.32045e-11 5e-05 1.46608e-10 
211 1 0.0692259 0.0177797 0.00716321 0.00585306 -0.000631117 0.000237843 2.75004e-11 -1.0023e-10 -1.5534e-12 5e-05 1.46608e-10 
212 1 0.0632977 0.0176671 0.00709708 0.0060901 3.09888e-05 -0.000224434 1.68609e-10 -1.07354e-10 -5.73739e-11 5e-05 1.46608e-10 
213 1 0.069085 0.0167583 0.00756452 0.00531133 -0.000544959 0.000232275 1.08329e-10 5.35872e-11 -4.20628e-11 5e-05 1.46608e-10 
214 1 0.0691489 0.0178435 0.00715934 0.00587811 -0.000616883 0.000238511 -1.11063e-10 -1.77526e-10 -2.33277e-12 5e-05 1.46608e-10 
215 1 0.0570364 0.0173127 0.00721342 0.00573344 8.21462e-05 -6.32715e-05 -1.16461e-10 -7.34174e-11 -3.22513e-11 5e-05 1.46608e-10 
216 1 0.0630619 0.0178488 0.00711536 0.00610356 4.49011e-05 -0.000227179 -3.34536e-11 -1.28435e-10 2.33725e-10 5e-05 1.46608e-10 
217 1 0.068893 0.016332 0.00786913 0.00552816 -0.000530983 0.000212246 -1.18575e-10 -2.41849e-10 -1.72969e-11 5e-05 1.46608e-10 
218 1 0.0631795 0.0179777 0.0071177 0.00606921 5.32628e-05 -0.00022335 1.13957e-10 -1.17746e-11 -1.00901e-12 5e-05 1.46608e-10 
219 1 0.0691605 0.0183 0.00715371 0.00583069 -0.000608368 0.00023659 1.59122e-11 9.73676e-11 -3.23555e-12 5e-05 1.46608e-10 
220 1 0.0630193 0.0176537 0.00711785 0.00587998 7.79639e-05 -0.000125352 -1.35291e-10 -1.06615e-10 -1.78857e-10 5e-05 1.46608e-10 
221 1 0.056945 0.0169343 0.00749423 0.0055482 0.000138858 -3.445e-05 -2.75032e-11 1.21394e-10 -3.61212e-10 5e-05 1.46608e-10 
222 1 0.0689127 0.016412 0.00781244 0.00552063 -0.00052257 0.000214609 6.45978e-11 -8.86827e-11 9.08667e-11 5e-05 1.46608e-10 
223 1 0.0631152 0.0172718 0.0072697 0.00566027 0.000118768 2.09896e-05 -8.23665e-11 -9.36803e-12 7.20665e-11 5e-05 1.46608e-10 
224 1 0.0629242 0.0172108 0.007305 0.00565673 0.000182667 1.44428e-05 -2.16218e-10 -1.41716e-11 2.61124e-11 5e-05 1.46608e-10 
225 1 0.069239 0.0174201 0.00716852 0.00557223 -0.000608037 0.00022674 3.25606e-11 -3.09607e-11 2.06054e-11 5e-05 1.46608e-10 
226 1 0.0633098 0.0174235 0.00716197 0.00573371 0.000145216 0.000202595 2.81569e-10 -2.51483e-10 2.29973e-10 5e-05 1.46608e-10 
227 1 0.057003 0.0171422 0.0072858 0.00566671 0.000165321 -7.33512e-05 -2.14739e-10 1.00752e-10 -1.15857e-10 5e-05 1.46608e-10 
228 1 0.0569607 0.0173784 0.00721499 0.00566643 0.000161903 -0.000111488 -1.57057e-10 4.01274e-11 3.17445e-11 5e-05 1.46608e-10 
229 1 0.0630561 0.0174772 0.00723549 0.00566347 0.000178375 3.94611e-05 -7.16574e-11 1.34453e-10 -1.62049e-10 5e-05 1.46608e-10 
230 1 0.0633527 0.0183191 0.0071291 0.00598337 5.57082e-05 -0.000219817 -5.0914e-11 1.00371e-10 -2.74241e-11 5e-05 1.46608e-10 
231 1 0.0569224 0.0171856 0.00724085 0.00571542 0.000146782 -6.0483e-05 -6.73861e-11 3.76982e-11 -2.80287e-11 5e-05 1.46608e-10 
232 1 0.0628836 0.0163188 0.00796196 0.00567202 0.000162993 2.52448e-05 4.03919e-11 -3.0098e-10 2.17072e-10 5e-05 1.46608e-10 
233 1 0.0630192 0.0168725 0.00755581 0.00557941 0.000187163 5.54369e-06 -7.75655e-11 2.49925e-13 -3.35096e-12 5e-05 1.46608e-10 
234 1 0.0692139 0.0181364 0.00715799 0.0058204 -0.000620151 0.000236541 3.11231e-11 -1.08927e-10 3.05092e-12 5e-05 1.46608e-10 
235 1 0.0633958 0.0185143 0.00713768 0.00592582 4.54584e-05 -0.000216049 1.63177e-10 -5.43953e-11 -1.2137e-11 5e-05 1.46608e-10 
236 1 0.0633742 0.0184167 0.00713339 0.00594602 4.57643e-05 -0.000218283 1.44389e-10 9.3671e-11 -6.0454e-11 5e-05 1.46608e-10 
237 1 0.0634484 0.01835 0.00712715 0.00594449 4.89833e-05 -0.000218896 1.01199e-10 4.14921e-11 4.18365e-12 5e-05 1.46608e-10 
239 1 0.0567613 0.0165934 0.00789138 0.00621928 -0.000367073 -0.000337003 1.1204e-09 -1.99301e-10 4.4234e-10 5e-05 1.46608e-10 
240 1 0.0568155 0.0167851 0.00766713 0.00516452 -0.00012701 -0.000448596 1.86373e-09 5.65523e-10 -2.68053e-11 5e-05 1.46608e-10 
241 1 0.0567396 0.0165302 0.00796576 0.00643035 -0.000340315 -0.000367211 -7.31404e-10 -8.49736e-10 1.11616e-09 5e-05 1.46608e-10 
242 1 0.0631412 0.0169869 0.00747432 0.00557998 0.00010472 6.63273e-05 3.96062e-11 -7.77724e-11 5.87292e-11 5e-05 1.46608e-10 
243 1 0.062923 0.0168424 0.00757564 0.00556956 0.000199519 -4.08376e-06 -1.77123e-10 -3.33611e-11 2.6636e-11 5e-05 1.46608e-10 
244 1 0.0567807 0.0166571 0.00781675 0.00584145 -0.00025071 -0.000402754 1.14584e-09 1.70397e-10 -1.35076e-11 5e-05 1.46608e-10 
246 1 0.0568911 0.0170643 0.00739588 0.00561088 0.000171034 -7.85749e-05 -1.47961e-10 -6.39669e-11 -1.46951e-10 5e-05 1.46608e-10 