ITEM: TIMESTEP
28800000
ITEM: NUMBER OF ATOMS
271
ITEM: BOX BOUNDS ff ff ff
-0.02 0.43
-0.02 0.06
-0.02 0.07
ITEM: ATOMS id type x y z vx vy vz fx fy fz radius mass 
1 1 0.180379 0.0153474 0.00874661 0.00617624 9.26355e-06 -1.25512e-05 1.09517e-10 1.93812e-10 -7.53788e-12 5e-05 1.46608e-10 
2 1 0.181274 0.017814 0.00709813 0.00572397 -4.62276e-05 -0.000311113 3.89209e-10 -1.86636e-10 -3.01982e-11 5e-05 1.46608e-10 
3 1 0.175433 0.0181049 0.0070534 0.00601984 -0.000385132 0.000117915 1.62214e-10 -1.89894e-10 5.70707e-11 5e-05 1.46608e-10 
4 1 0.181308 0.0175545 0.0071329 0.00558829 1.67055e-06 -0.00031266 3.48053e-10 -2.93717e-11 -1.06475e-10 5e-05 1.46608e-10 
5 1 0.180358 0.015273 0.00881012 0.00598883 5.52663e-05 -5.2832e-05 5.2189e-10 3.32177e-10 -1.31772e-10 5e-05 1.46608e-10 
6 1 0.186833 0.0169948 0.00742287 0.005661 0.000121401 -0.000200811 8.98635e-12 -2.94229e-11 1.57973e-11 5e-05 1.46608e-10 
7 1 0.180466 0.0156443 0.00849297 0.00615434 -3.36381e-05 1.65164e-05 7.35903e-11 2.39107e-10 -1.9247e-10 5e-05 1.46608e-10 
8 1 0.180339 0.0151985 0.00887382 0.00569336 0.000102887 -9.10369e-05 -2.43636e-10 5.0517e-10 -2.80527e-10 5e-05 1.46608e-10 
9 1 0.186948 0.017509 0.00713589 0.00567491 0.000127302 -0.00020432 1.8779e-10 -1.72359e-11 -2.19704e-11 5e-05 1.46608e-10 
10 1 0.18093 0.0174309 0.00717284 0.00559121 -5.74634e-05 -0.000109474 1.65717e-10 7.77274e-11 3.53457e-10 5e-05 1.46608e-10 
11 1 0.181063 0.0176558 0.00713218 0.0056178 -1.34265e-05 -0.000308572 7.52091e-11 -4.47226e-10 4.64675e-11 5e-05 1.46608e-10 
12 1 0.17456 0.0159476 0.00820286 0.00613808 -0.000236103 -0.000187974 -2.9395e-11 -1.04707e-10 -2.51275e-10 5e-05 1.46608e-10 
13 1 0.180282 0.0151478 0.00916411 0.00558357 3.722e-05 -8.9857e-05 3.62131e-12 -8.55514e-12 2.58722e-10 5e-05 1.46608e-10 
14 1 0.175228 0.0188162 0.00685153 0.00624129 -0.000289 8.86339e-05 2.7418e-10 -5.41519e-12 7.53181e-11 5e-05 1.46608e-10 
15 1 0.181289 0.0174575 0.00714768 0.00557716 -1.30075e-05 -0.00030741 4.1645e-10 -2.47481e-10 7.42476e-11 5e-05 1.46608e-10 
16 1 0.175341 0.0188727 0.00683568 0.00627837 -0.000288777 9.26227e-05 -2.78531e-10 -2.63809e-10 4.61418e-11 5e-05 1.46608e-10 
17 1 0.181328 0.0176513 0.0071181 0.00564159 2.08181e-05 -0.000314002 3.94944e-10 2.31335e-10 -1.33347e-11 5e-05 1.46608e-10 
19 1 0.18032 0.0151816 0.00897061 0.00561697 9.34763e-05 -8.99432e-05 -4.02188e-10 4.85169e-10 -3.76652e-10 5e-05 1.46608e-10 
21 1 0.180891 0.0172396 0.00721594 0.00561425 1.10803e-05 0.000206339 -1.00084e-10 -1.34482e-10 3.19668e-10 5e-05 1.46608e-10 
22 1 0.181099 0.0173957 0.00716705 0.00556562 -1.98804e-05 -0.000221941 3.43949e-10 -3.07784e-10 3.07771e-10 5e-05 1.46608e-10 
23 1 0.17481 0.0165239 0.00775968 0.00559844 -0.000579582 -0.000716318 1.61157e-10 -1.76842e-10 8.65705e-11 5e-05 1.46608e-10 
24 1 0.187024 0.0178633 0.00697919 0.00573847 0.000141238 9.38268e-05 8.00583e-11 -3.81884e-11 9.14131e-12 5e-05 1.46608e-10 
25 1 0.180531 0.015867 0.00830274 0.00612253 -3.21434e-05 1.50722e-05 3.34365e-11 7.29384e-11 -6.07947e-11 5e-05 1.46608e-10 
26 1 0.186909 0.0173376 0.00723156 0.00558227 0.000129584 -0.000205533 1.3074e-10 -1.7417e-10 8.64056e-11 5e-05 1.46608e-10 
27 1 0.175562 0.018246 0.0070136 0.00607077 -0.000422421 0.000129218 1.64861e-10 -8.34127e-11 3.55494e-11 5e-05 1.46608e-10 
28 1 0.181233 0.0176204 0.00712774 0.00549737 6.58336e-06 -0.000305923 6.12975e-10 -3.67634e-10 5.1817e-12 5e-05 1.46608e-10 
29 1 0.180488 0.0157185 0.00842957 0.00614509 -3.55683e-05 1.77217e-05 2.43272e-11 1.13429e-10 -9.9765e-11 5e-05 1.46608e-10 
30 1 0.180988 0.0177216 0.00712704 0.00560181 -3.86769e-05 -0.000304568 3.29692e-12 -1.51217e-10 3.39334e-12 5e-05 1.46608e-10 
31 1 0.180553 0.0159411 0.00823938 0.00611206 -3.10398e-05 1.42271e-05 5.49925e-11 7.31621e-11 -6.69285e-11 5e-05 1.46608e-10 
32 1 0.180987 0.0168758 0.00742364 0.00573598 -0.000127649 -0.000183463 -1.49773e-10 1.17832e-10 8.85722e-11 5e-05 1.46608e-10 
33 1 0.186852 0.0170805 0.00737506 0.00552628 0.000146495 -0.000211122 -1.3295e-10 -7.12365e-12 -4.15094e-13 5e-05 1.46608e-10 
34 1 0.180444 0.0155701 0.00855638 0.00616239 -2.23561e-05 6.50129e-06 8.49246e-11 3.47957e-10 -3.28969e-10 5e-05 1.46608e-10 
35 1 0.181136 0.0171482 0.00724564 0.00561189 6.64615e-05 0.00019106 -1.52705e-10 -3.06763e-10 1.67203e-10 5e-05 1.46608e-10 
36 1 0.187005 0.0177662 0.0069924 0.00576296 9.49857e-05 -0.000191398 1.07256e-10 -3.51714e-11 -1.27348e-11 5e-05 1.46608e-10 
37 1 0.181188 0.0182363 0.00704325 0.00604444 -6.52688e-05 -0.000326182 -1.00379e-10 7.16793e-11 -3.21626e-12 5e-05 1.46608e-10 
38 1 0.181252 0.018526 0.00699873 0.00611948 -6.83859e-05 -0.000330055 -3.74284e-11 1.61651e-11 -6.09116e-13 5e-05 1.46608e-10 
39 1 0.187044 0.0179611 0.00697034 0.0057167 0.000150272 9.07766e-05 -3.2e-11 3.09343e-12 -1.2772e-11 5e-05 1.46608e-10 
41 1 0.181349 0.017748 0.00710328 0.00576065 2.4438e-05 -0.000325973 3.71138e-10 2.42644e-10 -1.21126e-10 5e-05 1.46608e-10 
42 1 0.321436 0.0173475 0.00552525 4.61362e-16 2.25449e-15 8.4636e-14 9.25731e-24 4.04543e-24 -2.06795e-25 5e-05 1.46608e-10 
44 1 0.181253 0.0177173 0.00711294 0.00555807 -9.67979e-06 -0.000307068 7.00146e-10 -3.38426e-10 3.33221e-11 5e-05 1.46608e-10 
45 1 0.186871 0.0171662 0.00732722 0.00555907 0.000140138 -0.000207964 -9.64298e-11 4.46801e-11 -1.37296e-11 5e-05 1.46608e-10 
47 1 0.180401 0.0154216 0.0086832 0.00616673 4.93082e-06 -1.26582e-05 -2.18728e-10 6.20321e-11 1.54809e-10 5e-05 1.46608e-10 
48 1 0.181231 0.0184293 0.00701359 0.00609076 -7.22926e-05 -0.00032785 1.06191e-10 1.1384e-10 -2.18019e-11 5e-05 1.46608e-10 
50 1 0.180597 0.0160895 0.00811264 0.00609297 -2.83806e-05 1.1832e-05 1.75151e-11 1.02522e-10 -8.86537e-11 5e-05 1.46608e-10 
51 1 0.180574 0.0160154 0.00817595 0.00610332 -3.01139e-05 1.38223e-05 -8.79519e-12 9.45769e-11 -7.16951e-11 5e-05 1.46608e-10 
52 1 0.174474 0.0156662 0.00847348 0.00614489 -0.000112438 1.94347e-07 -1.56472e-11 3.42944e-11 -4.47734e-11 5e-05 1.46608e-10 
53 1 0.186986 0.0176804 0.00704023 0.00575196 9.93387e-05 -0.000190136 5.95042e-11 -2.08979e-11 1.5309e-11 5e-05 1.46608e-10 
54 1 0.18107 0.018109 0.00706779 0.00600315 -5.3596e-05 -0.000326062 8.85791e-11 2.52992e-10 -4.59386e-11 5e-05 1.46608e-10 
55 1 0.174408 0.0154575 0.00867878 0.00615309 -0.000118392 6.52974e-06 -5.33315e-11 -1.7573e-10 1.71297e-10 5e-05 1.46608e-10 
56 1 0.181209 0.0183328 0.00702842 0.00606911 -6.8787e-05 -0.000327176 1.29518e-10 5.94997e-11 -1.4752e-11 5e-05 1.46608e-10 
57 1 0.18689 0.0172519 0.00727939 0.00558579 0.000130112 -0.000203841 2.67026e-10 5.61612e-11 -1.08884e-11 5e-05 1.46608e-10 
59 1 0.18108 0.0172988 0.00718347 0.00558194 7.8483e-06 0.00011661 4.32982e-10 1.02593e-11 6.49562e-10 5e-05 1.46608e-10 
61 1 0.180874 0.0167799 0.00751496 0.00550255 -0.000107638 -0.000195038 -3.12772e-10 -3.93972e-11 5.92415e-11 5e-05 1.46608e-10 
62 1 0.181474 0.0183249 0.00701482 0.00610279 -9.07097e-05 -0.000325834 1.19791e-10 3.96213e-10 -6.28355e-11 5e-05 1.46608e-10 
63 1 0.181269 0.0173606 0.00716251 0.0055863 -5.17198e-06 -0.000169074 4.77419e-10 -5.23816e-10 -4.43595e-10 5e-05 1.46608e-10 
64 1 0.187063 0.0180588 0.00696149 0.00569492 0.000156334 8.96858e-05 -3.58554e-13 5.12683e-11 -1.52579e-12 5e-05 1.46608e-10 
65 1 0.174749 0.0166573 0.00768293 0.00553266 -0.000499774 -0.00075734 4.52764e-11 2.81963e-10 -2.00968e-10 5e-05 1.46608e-10 
66 1 0.174386 0.0153879 0.00874724 0.00615606 -0.000116931 5.14826e-06 -6.65507e-11 -2.15583e-10 2.1233e-10 5e-05 1.46608e-10 
67 1 0.181219 0.0179769 0.00707813 0.00601578 -4.79184e-05 -0.000326871 2.34062e-10 1.56914e-11 -1.42834e-11 5e-05 1.46608e-10 
68 1 0.181024 0.0170294 0.00730163 0.00568267 5.60971e-05 0.000187363 -2.11005e-10 -3.41052e-10 9.19773e-11 5e-05 1.46608e-10 
69 1 0.181091 0.0182055 0.00705295 0.00603576 -2.11072e-05 -0.000332115 9.74258e-11 2.52357e-10 -3.79771e-11 5e-05 1.46608e-10 
70 1 0.186928 0.0174233 0.00718372 0.00562119 0.00013717 -0.000209195 -2.25452e-10 -1.48108e-10 5.17364e-11 5e-05 1.46608e-10 
71 1 0.174452 0.0155967 0.00854188 0.00614745 -0.00011666 5.47499e-06 -1.3553e-11 -3.09814e-11 2.66145e-11 5e-05 1.46608e-10 
72 1 0.181123 0.0179464 0.00708779 0.00594743 -7.98525e-05 -0.000318786 -1.26706e-10 -1.56879e-10 2.93844e-11 5e-05 1.46608e-10 
73 1 0.181156 0.0184953 0.00700843 0.00607789 -7.97472e-05 -0.000326119 2.75371e-11 3.20923e-11 -5.55246e-12 5e-05 1.46608e-10 
74 1 0.181284 0.0182666 0.00703363 0.00607089 -7.2325e-05 -0.00032669 1.02032e-10 2.36855e-11 -2.47822e-12 5e-05 1.46608e-10 
76 1 0.175469 0.0186002 0.00691311 0.00618332 -0.000329085 0.000102828 -3.89071e-11 -7.82675e-11 2.52199e-11 5e-05 1.46608e-10 
77 1 0.181155 0.017236 0.00720171 0.00558149 6.17945e-05 0.00018701 4.07765e-10 -4.20536e-10 2.5143e-10 5e-05 1.46608e-10 
78 1 0.175207 0.0187221 0.00687815 0.00622853 -0.000274884 8.86025e-05 -4.7176e-11 1.28215e-10 -3.43678e-11 5e-05 1.46608e-10 
79 1 0.174517 0.0158054 0.00833652 0.00614703 -0.000101766 -1.40207e-05 -5.15971e-12 1.21582e-10 -7.24401e-11 5e-05 1.46608e-10 
80 1 0.181316 0.0180073 0.00706849 0.00603733 -9.21437e-05 -0.000322022 -8.08544e-11 1.21434e-10 -3.22107e-11 5e-05 1.46608e-10 
81 1 0.175404 0.0189479 0.00681447 0.00587417 2.10466e-05 2.36525e-06 -2.73784e-10 1.12681e-11 1.5503e-10 5e-05 1.46608e-10 
82 1 0.174582 0.0160231 0.00814086 0.00613039 -0.000527517 -0.000550752 -3.28287e-11 -9.87111e-11 -2.08061e-10 5e-05 1.46608e-10 
83 1 0.175273 0.0185801 0.0069185 0.00615729 -0.000330831 0.00010402 8.10942e-11 1.70406e-10 -3.52183e-11 5e-05 1.46608e-10 
84 1 0.186967 0.0175948 0.00708806 0.00570401 0.000110708 -0.000196684 3.30231e-11 2.58824e-11 -2.02721e-11 5e-05 1.46608e-10 
85 1 0.175454 0.0181995 0.00702661 0.00603041 -0.000406401 0.000124249 1.2208e-10 -1.6624e-10 4.76031e-11 5e-05 1.46608e-10 
86 1 0.18137 0.0178447 0.00708846 0.00601293 -7.69482e-06 -0.00033133 3.47673e-10 1.58792e-10 5.80678e-12 5e-05 1.46608e-10 
87 1 0.181327 0.0184596 0.00700396 0.00611781 -7.51179e-05 -0.000328937 7.27233e-11 9.33404e-11 -1.69435e-11 5e-05 1.46608e-10 
88 1 0.18076 0.0166848 0.0076041 0.00555299 7.98496e-05 -7.73489e-05 -1.06135e-10 4.49546e-11 -5.68057e-12 5e-05 1.46608e-10 
89 1 0.181305 0.0183631 0.0070188 0.00609405 -7.40401e-05 -0.000327872 1.04781e-10 1.04453e-10 -2.38336e-11 5e-05 1.46608e-10 
90 1 0.181158 0.0176867 0.00712255 0.00554776 4.10534e-05 -0.000314089 -3.9325e-10 -3.5772e-11 4.47159e-11 5e-05 1.46608e-10 
91 1 0.175496 0.0183879 0.00697331 0.00611682 -0.000393241 0.000120716 4.84008e-11 -1.04171e-10 3.4776e-11 5e-05 1.46608e-10 
92 1 0.181262 0.01817 0.00704846 0.00604645 -7.58325e-05 -0.000324865 -1.24899e-10 -1.06137e-10 1.65466e-11 5e-05 1.46608e-10 
93 1 0.180641 0.0162377 0.00798597 0.0060702 -2.24503e-05 6.95017e-06 -8.50507e-11 1.57624e-10 -1.23486e-10 5e-05 1.46608e-10 
94 1 0.181044 0.0175587 0.00714697 0.00561961 -4.87834e-05 -0.000305658 -2.55905e-10 -1.88173e-10 4.42366e-11 5e-05 1.46608e-10 
95 1 0.181005 0.0173648 0.0071771 0.00558448 -2.86964e-05 -1.68867e-05 2.78101e-10 -2.1498e-11 9.2002e-10 5e-05 1.46608e-10 
96 1 0.180661 0.0163125 0.00792255 0.00607318 -1.82928e-05 4.94962e-06 1.56843e-10 1.70909e-10 -1.46461e-10 5e-05 1.46608e-10 
97 1 0.174869 0.0167632 0.0075887 0.00544735 -0.000547007 -0.000707461 -2.16628e-10 2.5658e-10 -1.16213e-10 5e-05 1.46608e-10 
98 1 0.181139 0.0175897 0.00713733 0.00560424 2.29609e-05 -0.000314022 -2.92824e-10 -9.663e-11 5.08252e-11 5e-05 1.46608e-10 
99 1 0.174965 0.0171787 0.00733103 0.00543807 -0.000256647 -0.000146486 -6.98146e-11 6.04093e-11 -9.02313e-11 5e-05 1.46608e-10 
100 1 0.181379 0.0182957 0.00702422 0.00608825 -8.23089e-05 -0.000326334 1.36474e-10 2.29095e-10 -4.26386e-11 5e-05 1.46608e-10 
101 1 0.174538 0.015875 0.00826806 0.00614598 -9.2628e-05 -1.73395e-05 -4.22264e-12 5.50745e-11 -1.12147e-10 5e-05 1.46608e-10 
102 1 0.0643568 0.0187248 0.00531097 4.2311e-15 1.05346e-14 8.29574e-14 -1.75545e-21 3.99502e-22 4.28066e-23 5e-05 1.46608e-10 
103 1 0.24257 0.0191927 0.00520306 1.6328e-22 4.01299e-22 -5.81428e-22 0 0 0 5e-05 1.46608e-10 
104 1 0.175166 0.0181098 0.0070516 0.00602672 -0.000289832 8.89381e-05 -1.60534e-10 -1.20315e-10 4.37339e-11 5e-05 1.46608e-10 
105 1 0.175507 0.0179805 0.00708876 0.00601053 -0.000444513 0.000135195 3.26722e-10 -2.84064e-10 9.07029e-11 5e-05 1.46608e-10 
106 1 0.17539 0.0179165 0.00710671 0.00597966 -0.000365874 0.000112686 -3.07787e-11 -2.78865e-12 -2.65988e-12 5e-05 1.46608e-10 
107 1 0.175368 0.0178225 0.00713332 0.00594221 -0.00036091 0.000111407 1.45415e-11 -1.99701e-11 3.09509e-12 5e-05 1.46608e-10 
108 1 0.181113 0.0183022 0.00703809 0.00604309 -6.02794e-05 -0.000327028 -1.66125e-11 1.45153e-10 -1.75781e-11 5e-05 1.46608e-10 
109 1 0.18125 0.0172664 0.00718994 0.00556724 8.53289e-05 0.00017926 6.5219e-10 -4.12258e-10 5.13953e-10 5e-05 1.46608e-10 
110 1 0.180682 0.0163865 0.00785888 0.00598149 1.25915e-06 -1.22348e-05 7.21297e-11 1.88443e-10 -1.42093e-10 5e-05 1.46608e-10 
111 1 0.180984 0.017267 0.00719152 0.00554632 -7.71147e-05 -0.000295149 -2.16324e-10 -4.91969e-11 1.68517e-11 5e-05 1.46608e-10 
112 1 0.175231 0.0183919 0.00697175 0.00610317 -0.000308508 9.67351e-05 3.542e-11 -5.85831e-11 1.61024e-11 5e-05 1.46608e-10 
113 1 0.174826 0.0169767 0.007455 0.00556257 -0.000454976 -0.000800717 8.48657e-12 2.78314e-10 -1.74004e-10 5e-05 1.46608e-10 
114 1 0.175186 0.0186281 0.00690478 0.0061833 -0.000276685 8.85196e-05 -5.999e-11 -5.71871e-11 -1.27996e-11 5e-05 1.46608e-10 
115 1 0.181214 0.0175235 0.00714252 0.00556086 -6.11025e-06 -0.000310448 4.16813e-10 -3.43921e-10 -1.01473e-10 5e-05 1.46608e-10 
116 1 0.181048 0.0180123 0.00708263 0.00598161 -4.34077e-05 -0.00032579 1.76285e-12 4.83848e-11 -7.09852e-12 5e-05 1.46608e-10 
117 1 0.181198 0.0186884 0.00697876 0.00612599 -7.08399e-05 -0.000329957 1.8135e-11 2.52506e-11 -5.44362e-12 5e-05 1.46608e-10 
118 1 0.17502 0.0178827 0.00711571 0.00587846 -0.000233141 7.00932e-05 2.27114e-10 5.00667e-11 -1.2563e-11 5e-05 1.46608e-10 
119 1 0.181174 0.0173296 0.00717212 0.00556659 1.4358e-05 -0.000306281 4.67863e-10 -4.61504e-10 6.49843e-11 5e-05 1.46608e-10 
120 1 0.180509 0.0157927 0.00836615 0.00613387 -3.36188e-05 1.58256e-05 6.77128e-12 7.36624e-11 -6.0175e-11 5e-05 1.46608e-10 
121 1 0.180423 0.0154958 0.0086198 0.00616394 -3.54107e-06 -1.17739e-05 8.13222e-11 2.46507e-10 -1.54401e-10 5e-05 1.46608e-10 
122 1 0.180947 0.0170866 0.00726952 0.00564695 2.08405e-05 0.000202952 -1.06554e-10 -2.08578e-10 9.36691e-11 5e-05 1.46608e-10 
123 1 0.174981 0.0177003 0.00716735 0.00572705 -0.000182757 5.7574e-05 1.1103e-10 1.17504e-10 3.2902e-11 5e-05 1.46608e-10 
124 1 0.180966 0.0171744 0.00722561 0.00561649 2.25309e-05 0.000213027 -1.47965e-10 -1.8109e-10 8.84239e-11 5e-05 1.46608e-10 
125 1 0.181274 0.0186225 0.0069839 0.00613209 -6.57687e-05 -0.000331053 3.66454e-11 -9.64804e-11 1.17569e-11 5e-05 1.46608e-10 
126 1 0.180892 0.016853 0.00744902 0.00557136 -0.000146459 -0.000179926 -1.94225e-10 -7.25667e-11 6.17274e-11 5e-05 1.46608e-10 
127 1 0.175529 0.0180796 0.00706071 0.00602013 -0.000398609 0.000122239 2.12488e-10 -1.14607e-10 3.1299e-11 5e-05 1.46608e-10 
128 1 0.18093 0.0170061 0.00732631 0.00569107 -6.23742e-05 6.94696e-05 -2.37554e-10 -6.27204e-11 1.85102e-10 5e-05 1.46608e-10 
129 1 0.181083 0.0177527 0.00711739 0.005595 -8.22524e-06 -0.00031067 -4.9481e-11 -4.16809e-10 8.27364e-11 5e-05 1.46608e-10 
131 1 0.175412 0.0180108 0.00708003 0.00601632 -0.000400275 0.000121684 3.08775e-10 -9.08531e-11 -1.34315e-13 5e-05 1.46608e-10 
132 1 0.181178 0.0177836 0.00710776 0.00563139 2.90823e-05 -0.000317005 -1.67753e-10 -1.95172e-11 6.51888e-12 5e-05 1.46608e-10 
133 1 0.180949 0.0175277 0.00715661 0.00562653 -9.24862e-05 -0.000282433 -1.87594e-10 -6.88554e-11 1.81099e-10 5e-05 1.46608e-10 
134 1 0.18091 0.0169276 0.00738513 0.00568201 -0.000194325 -0.000160118 -3.00173e-10 1.1875e-10 3.37915e-10 5e-05 1.46608e-10 
135 1 0.180301 0.0151647 0.00906739 0.00561467 5.60375e-05 -8.1389e-05 -1.55938e-10 3.18939e-10 -1.04286e-10 5e-05 1.46608e-10 
136 1 0.175249 0.0189103 0.00682491 0.00629056 -0.000284669 8.99155e-05 -1.97597e-10 -2.50038e-10 -1.76043e-11 5e-05 1.46608e-10 
137 1 0.180618 0.016164 0.00804935 0.00608701 -2.66433e-05 1.03589e-05 9.63128e-12 1.12163e-10 -9.50065e-11 5e-05 1.46608e-10 
138 1 0.181027 0.0179155 0.00709747 0.00557705 1.79632e-05 -0.000312907 -6.34409e-11 -2.16296e-10 4.86512e-11 5e-05 1.46608e-10 
140 1 0.181119 0.0174927 0.00715213 0.00556627 -4.63848e-05 -0.000297578 4.7714e-10 -3.28459e-10 1.27393e-10 5e-05 1.46608e-10 
141 1 0.175252 0.018486 0.00694513 0.00613628 -0.000312923 9.80469e-05 1.48181e-10 9.76461e-11 -4.17756e-11 5e-05 1.46608e-10 
142 1 0.174962 0.0176059 0.00719406 0.00564195 -0.000163413 5.2251e-05 1.60345e-10 9.58916e-11 3.43776e-11 5e-05 1.46608e-10 
143 1 0.17443 0.0155271 0.00861033 0.00615012 -0.000118834 7.15566e-06 -3.01993e-11 -1.04147e-10 1.07377e-10 5e-05 1.46608e-10 
144 1 0.175083 0.0181649 0.00705682 0.0060393 -0.000259068 8.53643e-05 -1.94572e-10 -1.51449e-10 1.94821e-11 5e-05 1.46608e-10 
147 1 0.175315 0.0187683 0.00686524 0.00622541 -0.000313346 9.71367e-05 8.95717e-11 1.231e-10 -4.34178e-11 5e-05 1.46608e-10 
148 1 0.175079 0.0171939 0.00731099 0.00542667 -0.000164297 5.54031e-05 -2.77274e-10 1.64349e-10 -3.30314e-11 5e-05 1.46608e-10 
149 1 0.18078 0.0167589 0.0075399 0.00549835 5.18603e-05 -0.000120464 -2.28807e-10 -1.76623e-11 9.61917e-11 5e-05 1.46608e-10 
150 1 0.0100679 0.0201683 0.00551526 8.38338e-15 1.2532e-15 -8.48744e-14 -7.78067e-24 4.54982e-23 -2.06795e-25 5e-05 1.46608e-10 
151 1 0.174922 0.0174174 0.00724745 0.00552694 -0.000122969 2.67312e-05 -1.12895e-10 -6.74992e-11 2.20039e-10 5e-05 1.46608e-10 
153 1 0.175289 0.0191004 0.00681869 0.00563824 -0.000126558 -6.93517e-05 7.29364e-11 1.79767e-10 5.17012e-11 5e-05 1.46608e-10 
154 1 0.175041 0.0179801 0.00710777 0.00592768 -0.000254678 7.67473e-05 2.10942e-10 -2.1284e-11 -8.36006e-11 5e-05 1.46608e-10 
155 1 0.17525 0.0176972 0.00716864 0.00583488 -0.000384162 0.000117754 -8.04233e-11 -7.31031e-11 1.58676e-11 5e-05 1.46608e-10 
156 1 0.17521 0.0182978 0.00699838 0.00607224 -0.000304144 9.55743e-05 1.22066e-10 -2.9927e-11 1.63608e-11 5e-05 1.46608e-10 
157 1 0.0219312 0.0187687 0.00551176 -3.83357e-14 8.16657e-14 2.95888e-13 6.02575e-22 -1.46308e-23 7.83754e-23 5e-05 1.46608e-10 
158 1 0.175502 0.0185095 0.00693884 0.0061696 -0.000342648 0.000106438 -5.51838e-12 -3.08936e-11 9.46684e-12 5e-05 1.46608e-10 
159 1 0.181401 0.0183924 0.00700937 0.00609264 -0.00010325 -0.00032364 5.02726e-11 1.61738e-10 -2.34269e-11 5e-05 1.46608e-10 
160 1 0.175061 0.0180676 0.0070634 0.00598849 -0.000257283 8.48795e-05 1.92795e-11 -6.38825e-11 1.91769e-11 5e-05 1.46608e-10 
162 1 0.175364 0.0190378 0.0067966 0.00571963 -5.00502e-05 -3.38647e-05 -1.08839e-10 1.31216e-10 -8.15248e-11 5e-05 1.46608e-10 
164 1 0.174927 0.0170028 0.00741775 0.00546168 -0.000542731 -0.000712361 -2.48248e-10 2.31749e-10 -2.78059e-11 5e-05 1.46608e-10 
165 1 0.175264 0.0181401 0.00704317 0.00603626 -0.000337985 0.00010468 2.59316e-10 -6.17982e-11 1.21707e-12 5e-05 1.46608e-10 
166 1 0.181134 0.0183988 0.00702326 0.00605827 -7.84175e-05 -0.000325141 2.38971e-11 -2.74262e-12 -8.41659e-13 5e-05 1.46608e-10 
168 1 0.175007 0.0172605 0.00729199 0.00544039 -0.000151864 5.56531e-05 -3.01649e-10 4.4614e-11 -6.54386e-12 5e-05 1.46608e-10 
169 1 0.175472 0.0188778 0.00683444 0.00598261 0.000129048 -2.75949e-05 -1.76639e-10 -7.95431e-11 4.24837e-13 5e-05 1.46608e-10 
170 1 0.175337 0.018075 0.00706171 0.00602927 -0.000363402 0.00011328 2.86683e-10 -3.50883e-11 3.99007e-11 5e-05 1.46608e-10 
171 1 0.181008 0.0178186 0.00711226 0.00558973 -1.54602e-05 -0.000308296 -3.62762e-11 -1.16079e-10 1.16445e-11 5e-05 1.46608e-10 
172 1 0.175241 0.0180463 0.0070697 0.00600192 -0.000326067 0.000100933 3.9734e-11 2.03658e-11 -1.00123e-11 5e-05 1.46608e-10 
173 1 0.181295 0.0179106 0.00708331 0.00593438 -8.56301e-05 -0.000316529 3.51971e-10 1.18553e-11 8.80338e-12 5e-05 1.46608e-10 
174 1 0.175273 0.017793 0.00714153 0.00592991 -0.000359323 0.000110637 -1.16915e-11 -2.85617e-13 2.49636e-12 5e-05 1.46608e-10 
175 1 0.168736 0.0166715 0.00780271 0.00551014 -0.000839901 0.00100135 -5.12104e-11 -6.50569e-11 1.27857e-11 5e-05 1.46608e-10 
177 1 0.175095 0.0173878 0.00725605 0.00552304 -0.00029026 9.00593e-05 -3.84723e-10 -2.94126e-10 5.17977e-11 5e-05 1.46608e-10 
178 1 0.175019 0.0174508 0.0072381 0.00553069 -0.000168873 5.6829e-05 -2.69023e-11 -1.08681e-10 3.56681e-11 5e-05 1.46608e-10 
179 1 0.175101 0.0178264 0.0071318 0.00583456 -0.000283419 8.85774e-05 4.49491e-10 -6.67287e-11 -2.8769e-12 5e-05 1.46608e-10 
181 1 0.175391 0.0187056 0.00688311 0.00620602 -0.000350957 0.000109297 -1.77456e-10 -4.86969e-13 -4.80349e-12 5e-05 1.46608e-10 
182 1 0.180969 0.0176246 0.00714182 0.0056218 -8.01431e-05 -0.000302775 -8.55039e-11 -1.76204e-10 -1.31365e-12 5e-05 1.46608e-10 
183 1 0.175316 0.0179811 0.0070883 0.00598227 -0.000355923 0.000110131 7.85889e-11 1.5705e-11 7.67181e-12 5e-05 1.46608e-10 
184 1 0.181024 0.0174617 0.0071619 0.00557714 -6.87443e-05 -0.000234422 3.41032e-10 -2.08115e-10 1.95398e-10 5e-05 1.46608e-10 
186 1 0.174903 0.017323 0.00727412 0.00552178 -9.48654e-05 3.10356e-05 4.48302e-11 -1.23208e-10 4.828e-11 5e-05 1.46608e-10 
187 1 0.180872 0.0171439 0.00723739 0.00562605 9.25335e-06 0.000223599 -5.22394e-11 -2.91326e-10 1.74254e-10 5e-05 1.46608e-10 
188 1 0.181005 0.0169487 0.0073578 0.00573755 -0.000172793 -0.000153671 -3.84127e-10 -1.82934e-10 1.47395e-10 5e-05 1.46608e-10 
189 1 0.181198 0.0178804 0.00709296 0.00583537 -1.06357e-05 -0.000322411 3.3806e-11 6.89749e-12 -5.98715e-12 5e-05 1.46608e-10 
190 1 0.169024 0.0179049 0.00735633 0.00517145 0.000875084 -0.000587245 7.61443e-10 -2.80438e-09 1.13963e-09 5e-05 1.46608e-10 
191 1 0.181042 0.0171173 0.00725761 0.0056333 4.90658e-05 0.000200253 -1.03215e-10 -2.44132e-10 1.55031e-10 5e-05 1.46608e-10 
192 1 0.17522 0.0179522 0.00709633 0.00595546 -0.000320757 0.000100364 1.03405e-10 5.6374e-11 -1.05073e-11 5e-05 1.46608e-10 
193 1 0.181194 0.0174266 0.00715731 0.00557287 -1.81036e-05 -0.00030871 4.53352e-10 -3.88117e-10 1.84048e-10 5e-05 1.46608e-10 
194 1 0.161461 0.0182058 0.00533758 1.41082e-15 -1.10272e-14 8.66685e-14 -1.05632e-21 -1.79343e-22 -3.72231e-24 5e-05 1.46608e-10 
195 1 0.175422 0.0184522 0.00695496 0.00614516 -0.000355132 0.000110018 -1.57026e-11 -1.74863e-10 4.03256e-11 5e-05 1.46608e-10 
196 1 0.174831 0.0166034 0.00770267 0.00549962 -0.000558332 -0.000711274 -9.5974e-11 2.53923e-11 -5.84532e-12 5e-05 1.46608e-10 
197 1 0.168803 0.0169554 0.00773274 0.00589617 -0.000913299 0.00107665 -5.4142e-11 1.07821e-10 -4.36586e-11 5e-05 1.46608e-10 
198 1 0.175268 0.0190047 0.00679819 0.00561121 -0.00015144 5.06517e-05 -1.05856e-11 -1.25893e-10 2.12354e-10 5e-05 1.46608e-10 
199 1 0.175165 0.018534 0.0069314 0.00615465 -0.000273349 8.65015e-05 1.47936e-10 8.52639e-11 -9.22091e-12 5e-05 1.46608e-10 
201 1 0.174807 0.0168968 0.00751198 0.00554052 -0.00045547 -0.000777694 5.85025e-11 3.54781e-10 -1.56234e-10 5e-05 1.46608e-10 
202 1 0.175306 0.0183282 0.00698992 0.00607401 -0.000347479 0.000107638 6.11274e-11 -8.50298e-11 2.90679e-11 5e-05 1.46608e-10 
203 1 0.180705 0.0164606 0.00779558 0.00575707 4.23985e-05 -5.51449e-05 -1.61923e-10 2.66312e-10 -1.86473e-10 5e-05 1.46608e-10 
204 1 0.174495 0.0157358 0.00840497 0.00614488 -0.000107735 -6.70682e-06 3.90714e-12 9.55772e-11 -5.51797e-11 5e-05 1.46608e-10 
205 1 0.17538 0.018264 0.00700822 0.00605285 -0.000377259 0.000116237 3.09107e-11 -1.97478e-10 6.08112e-11 5e-05 1.46608e-10 
206 1 0.174889 0.016843 0.00753171 0.00546488 -0.000549395 -0.000708631 -1.29864e-10 2.12024e-10 -1.54668e-10 5e-05 1.46608e-10 
207 1 0.175 0.0173564 0.00726483 0.00546689 -0.000152836 5.02888e-05 -1.5337e-10 3.1657e-11 3.11462e-11 5e-05 1.46608e-10 
208 1 0.175189 0.0182036 0.00702505 0.00605264 -0.000298468 9.40999e-05 4.98636e-11 -1.72511e-10 3.33017e-11 5e-05 1.46608e-10 
209 1 0.171489 0.0160535 0.0083396 0.00593199 0.00053397 0.000850169 7.79768e-14 1.20421e-12 -6.0202e-13 5e-05 1.46608e-10 
210 1 0.180911 0.0173347 0.00719183 0.00560627 -1.63366e-05 9.9772e-05 -3.81772e-11 6.85029e-11 5.69452e-10 5e-05 1.46608e-10 
211 1 0.180852 0.0170565 0.007282 0.00545202 -0.00229682 -0.00434754 -4.77244e-11 -3.46322e-10 3.58268e-11 5e-05 1.46608e-10 
212 1 0.175327 0.0184223 0.0069633 0.00610771 -0.000356132 0.000110471 4.65321e-11 -2.18555e-11 1.80832e-12 5e-05 1.46608e-10 
213 1 0.181166 0.0181395 0.00705812 0.00603194 -4.59662e-05 -0.000328113 -5.0225e-11 9.7445e-11 -1.41866e-11 5e-05 1.46608e-10 
214 1 0.180797 0.0168314 0.00747323 0.005539 -7.92968e-05 -0.000245123 -4.32735e-11 -1.98837e-10 1.27506e-10 5e-05 1.46608e-10 
215 1 0.169003 0.0178138 0.00739592 0.00561824 -8.1315e-06 -0.000231131 9.12454e-12 3.42126e-11 -1.49271e-11 5e-05 1.46608e-10 
216 1 0.175285 0.0182341 0.00701655 0.00604185 -0.000343338 0.000106635 6.52337e-11 -7.60038e-11 1.8867e-11 5e-05 1.46608e-10 
217 1 0.181177 0.0185918 0.00699359 0.00610849 -7.31287e-05 -0.000328661 -1.00181e-11 3.06033e-11 -3.02128e-12 5e-05 1.46608e-10 
218 1 0.174603 0.016101 0.00808202 0.00612809 -0.00067571 -0.000748916 5.04022e-11 -1.69903e-11 -3.2009e-11 5e-05 1.46608e-10 
219 1 0.180743 0.0166098 0.00766811 0.00562236 7.01398e-05 -7.67235e-05 1.18142e-10 1.5805e-10 -9.62647e-11 5e-05 1.46608e-10 
220 1 0.175401 0.0183581 0.0069816 0.00608656 -0.000384656 0.000118387 2.93714e-11 -1.59685e-10 5.73268e-11 5e-05 1.46608e-10 
221 1 0.23501 0.0177927 0.00708047 0.00558832 0.000146679 -0.00046797 7.40695e-13 6.79508e-14 -7.97918e-14 5e-05 1.46608e-10 
222 1 0.181241 0.0180735 0.00706329 0.00601841 -8.44086e-05 -0.000322538 -3.73151e-10 -1.63595e-10 5.15727e-11 5e-05 1.46608e-10 
223 1 0.175145 0.0180157 0.00707823 0.00596908 -0.000297473 9.42762e-05 1.32226e-10 8.79009e-11 -1.47541e-11 5e-05 1.46608e-10 
224 1 0.115457 0.016969 0.00820419 -1.62849e-05 -0.0114836 0.00709861 -2.48051e-13 1.52988e-10 -9.61857e-11 5e-05 1.46608e-10 
225 1 0.181061 0.0172054 0.00721355 0.00560227 2.73428e-05 0.000198978 -1.68847e-10 -3.0398e-10 3.22229e-11 5e-05 1.46608e-10 
226 1 0.174942 0.0175127 0.00722439 0.00555701 -0.000143654 3.15589e-05 -7.35528e-11 7.65301e-11 1.19164e-10 5e-05 1.46608e-10 
227 1 0.169015 0.0174446 0.00755243 0.00568586 0.000462443 -0.000434114 5.31024e-12 1.09377e-11 -4.83324e-12 5e-05 1.46608e-10 
228 1 0.168755 0.0167668 0.00777869 0.00548826 -0.000837536 0.000997566 -6.74483e-12 -5.28386e-11 1.49442e-11 5e-05 1.46608e-10 
229 1 0.17537 0.0186116 0.00690973 0.00618286 -0.000336162 0.000104665 2.13817e-11 8.22308e-11 -3.30764e-11 5e-05 1.46608e-10 
230 1 0.174768 0.0167371 0.00762595 0.00550583 -0.000482244 -0.000764028 -4.45227e-11 3.58774e-10 -2.05029e-10 5e-05 1.46608e-10 
231 1 0.168718 0.0165762 0.00782673 0.00558051 -0.000851414 0.00101385 3.02926e-11 -1.9756e-11 5.2946e-12 5e-05 1.46608e-10 
232 1 0.175144 0.0184399 0.00695802 0.00612502 -0.000263955 8.49452e-05 -4.03631e-12 3.11843e-11 4.57125e-13 5e-05 1.46608e-10 
234 1 0.181102 0.0178497 0.00710261 0.00524135 7.15565e-05 -0.000301069 -3.46466e-10 -2.53994e-10 5.66966e-11 5e-05 1.46608e-10 
235 1 0.175359 0.0181699 0.00703487 0.00602804 -0.000367524 0.000113779 1.2658e-10 -1.49016e-10 4.29833e-11 5e-05 1.46608e-10 
236 1 0.174728 0.0165777 0.00773994 0.00557359 -0.000519015 -0.0007524 -1.09572e-11 2.46073e-10 -1.65872e-10 5e-05 1.46608e-10 
237 1 0.174688 0.0164185 0.00785395 0.00579753 -0.000589945 -0.00074902 -5.50679e-12 9.62448e-11 -6.91371e-11 5e-05 1.46608e-10 
239 1 0.168562 0.0159411 0.0081927 0.00583853 -0.00128641 0.000752143 -6.02355e-11 1.24473e-11 -4.43597e-11 5e-05 1.46608e-10 
240 1 0.168583 0.0159904 0.00810832 0.0057673 -0.00115407 0.000821741 -8.34054e-11 6.4831e-11 -6.67398e-11 5e-05 1.46608e-10 
241 1 0.168639 0.0161958 0.00792181 0.00547968 -0.000838567 0.000995882 -8.82467e-11 -3.83946e-13 3.69658e-11 5e-05 1.46608e-10 
242 1 0.175001 0.0177983 0.00716572 0.00586413 -0.000216689 7.2392e-05 2.40685e-11 2.24052e-10 -5.96821e-11 5e-05 1.46608e-10 
244 1 0.168603 0.0160463 0.00802789 0.00560398 -0.000912172 0.000958956 -3.70021e-11 9.05751e-11 -4.67508e-11 5e-05 1.46608e-10 
246 1 0.168699 0.0164809 0.00785068 0.00542411 -0.000830729 0.000987298 -1.64526e-10 -6.18144e-13 -2.75373e-11 5e-05 1.46608e-10 
247 1 0.175545 0.0186628 0.00689547 0.00620963 -0.000347847 0.000107971 9.07614e-11 -2.13944e-10 6.06198e-11 5e-05 1.46608e-10 
248 1 0.174787 0.0168171 0.00756897 0.00551674 -0.000468262 -0.000770392 9.92758e-11 3.71896e-10 -1.93217e-10 5e-05 1.46608e-10 
249 1 0.168983 0.0177238 0.00743506 0.00556018 -4.62932e-05 -0.000212044 -1.89422e-11 7.96052e-11 -3.22412e-11 5e-05 1.46608e-10 
250 1 0.175102 0.0172919 0.00728326 0.00550159 -0.00030506 9.48493e-05 -3.36782e-10 -2.27772e-10 8.21535e-11 5e-05 1.46608e-10 
251 1 0.180724 0.0165353 0.00773193 0.00564573 6.06498e-05 -7.70996e-05 1.56789e-10 2.20977e-10 -1.51176e-10 5e-05 1.46608e-10 
252 1 0.168849 0.0171444 0.00768636 0.00587248 -0.000946706 0.000855518 3.35104e-11 9.77535e-11 -5.41811e-12 5e-05 1.46608e-10 
253 1 0.169044 0.0179947 0.00731728 0.00578894 0.000457727 -0.000437636 -1.07026e-09 2.9655e-09 -1.23433e-09 5e-05 1.46608e-10 
254 1 0.168679 0.0163859 0.00787441 0.00526056 -0.000805842 0.000956921 -2.68342e-10 2.59154e-11 -5.85591e-11 5e-05 1.46608e-10 
255 1 0.175102 0.0182518 0.00701126 0.00606238 -0.000255297 8.38806e-05 -3.28935e-11 -1.79846e-10 3.03986e-11 5e-05 1.46608e-10 
256 1 0.175198 0.0178584 0.00712287 0.0059238 -0.000314523 9.88162e-05 5.40321e-11 -5.72023e-11 3.04196e-11 5e-05 1.46608e-10 
257 1 0.175153 0.0176708 0.00717595 0.00580283 -0.000298733 9.33461e-05 1.51228e-11 -1.21583e-10 3.2025e-11 5e-05 1.46608e-10 
258 1 0.175057 0.0176373 0.0071853 0.00568069 -0.000222164 6.9596e-05 1.1631e-10 -7.03452e-11 4.5865e-11 5e-05 1.46608e-10 
259 1 0.168879 0.0172609 0.00763625 0.00635952 0.00047049 -0.000465667 8.78307e-13 1.33717e-12 -5.99527e-13 5e-05 1.46608e-10 