ITEM: TIMESTEP
23400000
ITEM: NUMBER OF ATOMS
283
ITEM: BOX BOUNDS ff ff ff
-0.02 0.43
-0.02 0.06
-0.02 0.07
ITEM: ATOMS id type x y z vx vy vz fx fy fz radius mass 
1 1 0.149018 0.0158419 0.00846489 0.00598074 0.000202241 0.000245101 1.63634e-10 3.36349e-10 -2.10281e-10 5e-05 1.46608e-10 
2 1 0.149772 0.0181408 0.00708666 0.00602477 -0.000204038 -6.16941e-05 6.15914e-11 -4.65296e-11 9.32189e-12 5e-05 1.46608e-10 
3 1 0.143023 0.0158345 0.00842707 0.00587629 -0.000375266 0.000511502 -1.23928e-10 -3.87414e-11 -3.85534e-11 5e-05 1.46608e-10 
4 1 0.149527 0.0174642 0.0073205 0.00583424 -0.000207802 -5.89841e-05 2.7966e-10 -9.03679e-11 2.94171e-11 5e-05 1.46608e-10 
5 1 0.148996 0.015788 0.00854611 0.00595109 0.000181687 0.000260544 2.071e-10 1.53709e-10 -3.30016e-10 5e-05 1.46608e-10 
6 1 0.155209 0.0163907 0.00767366 0.00582687 0.000649114 -9.33247e-05 -7.46276e-12 -2.33292e-11 1.07022e-11 5e-05 1.46608e-10 
7 1 0.149103 0.0160576 0.0081395 0.00598808 0.000140191 0.000207032 -9.94183e-11 7.95784e-11 -4.3912e-11 5e-05 1.46608e-10 
8 1 0.148974 0.015734 0.00862747 0.00594022 0.000180441 0.00026954 -9.21483e-11 3.27411e-12 -3.47504e-11 5e-05 1.46608e-10 
9 1 0.155327 0.0169193 0.00741555 0.00570512 0.000671346 -0.000109154 6.60919e-13 9.05441e-12 -4.97113e-12 5e-05 1.46608e-10 
10 1 0.149751 0.0188401 0.00685109 0.00604859 -0.000172332 -0.000100749 2.21124e-10 -1.18663e-10 -9.29759e-11 5e-05 1.46608e-10 
11 1 0.149793 0.0182332 0.00705498 0.00606239 -0.000209355 -6.217e-05 8.78048e-11 6.19696e-13 -1.60176e-11 5e-05 1.46608e-10 
12 1 0.143233 0.0165802 0.00780381 0.00551399 0.000753078 0.00128295 -3.49571e-10 6.60432e-11 -2.28415e-10 5e-05 1.46608e-10 
13 1 0.148909 0.0155721 0.00887156 0.00590869 0.000201654 0.000232493 1.9613e-14 -2.41934e-11 4.69811e-11 5e-05 1.46608e-10 
14 1 0.142958 0.015652 0.00865606 0.00586925 -0.000405585 0.000544759 -4.70592e-11 -1.85118e-10 2.41771e-10 5e-05 1.46608e-10 
15 1 0.149233 0.0165086 0.00764962 0.00567123 -0.000122281 -8.25722e-05 2.19914e-11 -1.2084e-10 6.05754e-11 5e-05 1.46608e-10 
16 1 0.142936 0.0155912 0.00873239 0.00586329 -0.000424933 0.000570097 -6.99033e-11 -2.13559e-10 2.3197e-10 5e-05 1.46608e-10 
17 1 0.14969 0.0177265 0.00722832 0.00593833 -0.000189956 -6.73646e-05 -3.85841e-11 -2.25186e-10 7.97894e-11 5e-05 1.46608e-10 
19 1 0.148953 0.0156801 0.00870884 0.00593067 0.000187259 0.000256923 -1.20567e-10 -1.48711e-10 2.26596e-10 5e-05 1.46608e-10 
21 1 0.149732 0.0187484 0.00688615 0.00623653 -0.000209178 -0.000110197 -6.50371e-11 4.20281e-11 1.81464e-10 5e-05 1.46608e-10 
22 1 0.149215 0.0164156 0.00768143 0.00566817 -0.000131969 -7.85183e-05 -7.69656e-11 -2.11773e-10 3.32889e-11 5e-05 1.46608e-10 
23 1 0.143398 0.0169656 0.00755821 0.0057402 0.000675303 0.00141585 2.42125e-10 -1.84569e-10 2.91901e-10 5e-05 1.46608e-10 
24 1 0.155386 0.0171941 0.00731193 0.00574521 0.000485267 -0.000718186 -3.64002e-12 -1.19796e-12 -1.34319e-11 5e-05 1.46608e-10 
25 1 0.149292 0.0167869 0.00755471 0.00530196 -4.66741e-05 -9.90184e-05 -9.14833e-11 -9.06163e-11 3.1135e-11 5e-05 1.46608e-10 
26 1 0.155288 0.016743 0.00750164 0.0056918 0.00067231 -0.000110094 4.74588e-12 1.24701e-11 -5.54899e-12 5e-05 1.46608e-10 
27 1 0.143308 0.0169089 0.00767934 0.00546576 0.000699757 0.00119842 -1.9493e-10 3.84022e-10 1.82267e-10 5e-05 1.46608e-10 
28 1 0.149733 0.0179196 0.0071622 0.00597956 -0.000219586 -5.82594e-05 3.46693e-11 -1.62468e-10 5.32096e-11 5e-05 1.46608e-10 
29 1 0.149125 0.016111 0.00805775 0.00593214 1.24475e-05 0.000124283 8.60238e-10 1.69006e-10 2.06677e-10 5e-05 1.46608e-10 
30 1 0.149812 0.0186915 0.00691937 0.00565866 -0.000128595 -0.000535149 -2.60466e-10 -1.92552e-11 -4.78092e-11 5e-05 1.46608e-10 
31 1 0.149193 0.0163323 0.00773238 0.0056659 -8.99548e-05 1.48833e-05 7.04254e-11 -2.43532e-10 5.60764e-11 5e-05 1.46608e-10 
32 1 0.149465 0.0171866 0.0074156 0.00569527 -0.000196993 -5.90639e-05 2.16479e-10 1.05976e-10 -3.88353e-11 5e-05 1.46608e-10 
33 1 0.155229 0.0164788 0.00763068 0.00583336 0.000647921 -9.24397e-05 -1.95391e-12 -9.93358e-12 6.11812e-12 5e-05 1.46608e-10 
34 1 0.149082 0.0160036 0.00822102 0.00600724 0.000196482 0.00023632 -3.07075e-10 3.67553e-11 -8.65045e-11 5e-05 1.46608e-10 
35 1 0.149159 0.0162201 0.00789357 0.00579284 6.2151e-05 0.000182815 -1.94711e-10 -3.54323e-10 -3.01442e-10 5e-05 1.46608e-10 
36 1 0.155367 0.0170974 0.00732855 0.00574205 0.000596446 -7.02602e-05 -3.6068e-12 -8.73877e-12 1.37005e-11 5e-05 1.46608e-10 
37 1 0.149908 0.0187275 0.00689844 0.00532402 -0.00128263 6.5124e-05 -3.35772e-10 -2.29271e-10 -2.7415e-10 5e-05 1.46608e-10 
38 1 0.150012 0.0184055 0.00699197 0.00614093 -0.000318087 -2.83917e-05 -1.99918e-10 2.43461e-10 -7.63422e-11 5e-05 1.46608e-10 
39 1 0.155423 0.0169504 0.00740384 0.0056504 0.000607567 -7.96414e-05 3.53778e-14 9.9353e-13 -7.38388e-13 5e-05 1.46608e-10 
41 1 0.149842 0.017878 0.0071738 0.005964 -0.00019989 -6.45942e-05 3.75347e-10 -2.14489e-10 6.15782e-11 5e-05 1.46608e-10 
42 1 0.321436 0.0173475 0.00552525 4.57641e-16 2.2555e-15 8.4636e-14 7.27822e-24 -2.50739e-24 0 5e-05 1.46608e-10 
44 1 0.149754 0.018012 0.00713052 0.00598978 -0.000216169 -5.86728e-05 8.67137e-11 -1.57277e-10 4.38959e-11 5e-05 1.46608e-10 
45 1 0.155249 0.0165668 0.0075877 0.00584015 0.000646896 -9.17012e-05 5.72421e-12 2.24633e-12 -1.19775e-12 5e-05 1.46608e-10 
47 1 0.149039 0.0158959 0.0083834 0.00598641 0.000240213 0.000246836 -3.61493e-10 2.67113e-10 4.79934e-11 5e-05 1.46608e-10 
48 1 0.149886 0.0186239 0.00692102 0.00566956 -0.000123954 -7.79938e-05 -1.49459e-10 4.43565e-11 7.19031e-11 5e-05 1.46608e-10 
50 1 0.14937 0.0171579 0.0074274 0.005663 -0.000131755 -7.96744e-05 3.8304e-10 -1.84854e-10 4.86398e-11 5e-05 1.46608e-10 
51 1 0.14935 0.0170651 0.00745914 0.00549308 -9.58186e-05 -8.86539e-05 2.25206e-10 -1.47407e-10 1.3756e-11 5e-05 1.46608e-10 
52 1 0.143213 0.0164998 0.00785995 0.00570036 0.000739166 0.00137004 1.21454e-10 3.43653e-10 -1.99152e-10 5e-05 1.46608e-10 
53 1 0.155403 0.0168615 0.00744721 0.005706 0.000672345 -0.000109615 -3.09363e-12 4.08592e-12 -2.12136e-12 5e-05 1.46608e-10 
54 1 0.149922 0.0188167 0.00685537 0.00469491 -0.00092363 0.000592723 1.3155e-11 -2.12313e-10 -5.68826e-11 5e-05 1.46608e-10 
55 1 0.143002 0.0157737 0.0085034 0.00587606 -0.000382091 0.00051296 -3.57179e-11 -3.01079e-11 8.2348e-11 5e-05 1.46608e-10 
56 1 0.149979 0.0186572 0.00690773 0.0058887 -0.000715743 0.000114807 -1.38593e-10 6.33093e-11 -4.26285e-12 5e-05 1.46608e-10 
57 1 0.155269 0.0166549 0.00754469 0.00568506 0.000672796 -0.000110718 -3.12936e-14 8.78806e-12 -5.00032e-12 5e-05 1.46608e-10 
59 1 0.149806 0.0177898 0.0072044 0.00594043 -0.000181422 -7.02655e-05 1.9057e-10 -2.31472e-10 7.40869e-11 5e-05 1.46608e-10 
61 1 0.149142 0.016165 0.0079754 0.00582833 3.39029e-05 0.000141824 1.62918e-09 -1.69197e-10 6.1605e-11 5e-05 1.46608e-10 
62 1 0.149964 0.018199 0.00706274 0.00603891 -0.000266715 -4.35177e-05 -1.4936e-12 1.35281e-10 -4.77941e-11 5e-05 1.46608e-10 
63 1 0.149506 0.0173717 0.00735219 0.00584882 -0.000190085 -6.49062e-05 2.89093e-10 -1.35062e-11 -2.64651e-12 5e-05 1.46608e-10 
64 1 0.155441 0.0170387 0.00736066 0.00574125 0.000594852 -6.98341e-05 -5.67807e-12 -2.04376e-13 2.13492e-12 5e-05 1.46608e-10 
65 1 0.143345 0.0167024 0.00774629 0.00540316 0.000785417 0.00122594 2.72151e-10 -2.65286e-10 2.85204e-10 5e-05 1.46608e-10 
66 1 0.143287 0.0164612 0.00791525 0.00569997 0.000694302 0.00139226 -1.05595e-10 8.15346e-11 -5.56071e-11 5e-05 1.46608e-10 
67 1 0.149867 0.0181695 0.00707485 0.00602753 -0.00023225 -5.43381e-05 -3.5191e-11 2.67918e-11 -1.84779e-11 5e-05 1.46608e-10 
68 1 0.149548 0.0175566 0.00728882 0.00586889 -0.000189213 -6.59889e-05 -1.08513e-11 -1.17708e-10 3.72356e-11 5e-05 1.46608e-10 
69 1 0.149891 0.0189917 0.00681513 0.00540306 -0.00131756 0.00106281 2.69604e-10 7.96965e-11 -2.00433e-10 5e-05 1.46608e-10 
70 1 0.155308 0.0168311 0.0074586 0.00569841 0.000671864 -0.000109701 3.59922e-12 1.25413e-11 -5.91836e-12 5e-05 1.46608e-10 
71 1 0.14298 0.0157129 0.00857973 0.00587353 -0.000390587 0.000524363 -8.49053e-11 -1.31196e-10 1.74373e-10 5e-05 1.46608e-10 
72 1 0.149864 0.0185317 0.00695266 0.00619308 -0.000227926 -5.96239e-05 -1.29012e-10 -1.47164e-11 7.61478e-11 5e-05 1.46608e-10 
73 1 0.150002 0.0188732 0.00683484 0.00458759 -0.000613025 0.000938686 -3.70037e-10 2.43355e-10 -1.30256e-10 5e-05 1.46608e-10 
74 1 0.14993 0.0180954 0.00709846 0.00599634 -0.00024432 -5.00488e-05 9.36949e-11 4.57248e-11 -1.49148e-11 5e-05 1.46608e-10 
76 1 0.143532 0.0174831 0.00725211 0.00586371 0.000242759 0.00142327 -9.84119e-10 -7.99611e-10 1.06186e-09 5e-05 1.46608e-10 
77 1 0.149453 0.017528 0.00730061 0.00585146 -0.000177403 -6.96332e-05 1.90262e-10 -8.40568e-11 2.08357e-11 5e-05 1.46608e-10 
78 1 0.143045 0.0158961 0.00835131 0.00588784 -0.000202016 0.000657248 -1.66896e-11 1.81165e-11 -1.11003e-10 5e-05 1.46608e-10 
79 1 0.143252 0.0166605 0.00774744 0.00543867 0.000741422 0.00126928 2.66968e-10 2.62562e-10 1.32734e-10 5e-05 1.46608e-10 
80 1 0.149792 0.0181208 0.00718256 0.00600551 -0.000212685 -5.51276e-05 5.96244e-11 -1.57351e-10 4.62745e-11 5e-05 1.46608e-10 
81 1 0.143192 0.0164195 0.00791587 0.00567918 0.000710915 0.00137299 -1.36123e-10 2.68722e-10 -2.83446e-10 5e-05 1.46608e-10 
82 1 0.143326 0.0169897 0.00762328 0.00565996 0.000711155 0.00130425 8.49481e-11 -4.42758e-13 -8.50122e-11 5e-05 1.46608e-10 
83 1 0.143378 0.0165005 0.00791565 0.00568303 0.0006954 0.0013839 -5.08597e-10 6.20596e-10 -6.73565e-10 5e-05 1.46608e-10 
84 1 0.155347 0.0170074 0.0073725 0.00571086 0.000670274 -0.000108419 3.06602e-12 8.52066e-12 -3.56261e-12 5e-05 1.46608e-10 
85 1 0.143164 0.0159792 0.00825083 0.00585327 0.000661166 0.0014761 -2.76811e-11 1.64032e-10 -1.86893e-10 5e-05 1.46608e-10 
86 1 0.149845 0.0179727 0.00714177 0.0059805 -0.000215706 -5.95691e-05 2.23977e-10 -1.24951e-10 3.87008e-11 5e-05 1.46608e-10 
87 1 0.150102 0.018184 0.00706476 0.0060373 -0.000380348 -5.36975e-06 3.60021e-11 2.43487e-10 -8.42435e-11 5e-05 1.46608e-10 
88 1 0.149578 0.0180624 0.00720854 0.00598852 -0.000196706 -6.67175e-05 -1.07258e-10 -9.20031e-11 -1.32388e-11 5e-05 1.46608e-10 
89 1 0.149889 0.018262 0.00704316 0.0060634 -0.000241441 -5.22576e-05 4.4627e-11 1.30913e-10 -5.23177e-11 5e-05 1.46608e-10 
90 1 0.149835 0.018067 0.00711015 0.00599556 -0.000220286 -5.70202e-05 8.8013e-11 -1.20946e-10 4.33066e-11 5e-05 1.46608e-10 
91 1 0.143271 0.0167408 0.0076911 0.00542206 0.000712768 0.00127767 -5.77532e-13 2.39635e-10 -3.94866e-10 5e-05 1.46608e-10 
92 1 0.149816 0.0184484 0.00698181 0.00615837 -0.000209626 -6.76735e-05 -6.8751e-11 2.01117e-10 -6.26021e-11 5e-05 1.46608e-10 
93 1 0.149591 0.0177415 0.00722546 0.00592681 -0.000193493 -6.51028e-05 -4.33055e-12 -9.09696e-11 3.60698e-11 5e-05 1.46608e-10 
94 1 0.149739 0.018389 0.00700424 0.00612621 -0.00018557 -8.19633e-05 5.15157e-11 4.40714e-11 -1.16402e-11 5e-05 1.46608e-10 
95 1 0.149659 0.0181904 0.00715872 0.0060369 -0.000155819 -7.14716e-05 1.27331e-10 -2.41625e-10 -7.74959e-11 5e-05 1.46608e-10 
96 1 0.149612 0.017834 0.00719394 0.00594372 -0.000193737 -6.58362e-05 -2.52025e-11 -1.70774e-10 5.66731e-11 5e-05 1.46608e-10 
97 1 0.143151 0.0162589 0.0080277 0.00563678 0.000682288 0.00138089 -1.94201e-10 3.37353e-10 -3.01134e-10 5e-05 1.46608e-10 
98 1 0.149699 0.0180842 0.007192 0.00600456 -0.000211266 -5.623e-05 4.23182e-11 -9.69241e-11 -1.21924e-11 5e-05 1.46608e-10 
99 1 0.143326 0.0166221 0.00780263 0.00533373 0.000723998 0.00125738 -9.10829e-10 6.52881e-10 -6.42348e-10 5e-05 1.46608e-10 
100 1 0.149891 0.0183853 0.00700144 0.00613142 -0.000246942 -5.25447e-05 -2.47266e-10 1.67315e-10 -1.11093e-10 5e-05 1.46608e-10 
101 1 0.143266 0.0163809 0.00797118 0.00568437 0.000688932 0.00138763 -2.32241e-10 2.19706e-10 -2.30771e-10 5e-05 1.46608e-10 
102 1 0.0643568 0.0187248 0.00531097 4.11278e-15 1.05701e-14 8.29589e-14 -4.24266e-22 1.72157e-22 1.13737e-23 5e-05 1.46608e-10 
103 1 0.24257 0.0191927 0.00520306 -1.45275e-22 -1.00924e-21 8.29106e-22 0 0 0 5e-05 1.46608e-10 
104 1 0.143612 0.0174256 0.00727073 0.00595309 0.000558432 0.00150465 5.44089e-10 -2.39158e-10 5.29597e-11 5e-05 1.46608e-10 
105 1 0.14311 0.0160982 0.00813949 0.00576465 0.000655732 0.00145015 1.35252e-10 3.08388e-10 -2.47245e-10 5e-05 1.46608e-10 
106 1 0.143684 0.0173847 0.00732713 0.00607084 0.000817772 0.00141377 5.51943e-10 -2.35457e-10 1.59063e-10 5e-05 1.46608e-10 
107 1 0.143067 0.0159616 0.00827899 0.00586444 0.000137796 0.00096869 7.3543e-11 -1.33715e-10 -4.16949e-10 5e-05 1.46608e-10 
108 1 0.149906 0.0191304 0.00682477 0.0057175 0.000102567 -0.000791905 2.37603e-10 -1.96379e-10 -1.64732e-10 5e-05 1.46608e-10 
109 1 0.149334 0.0169717 0.00749103 0.00538643 -7.47305e-05 -9.43266e-05 2.87373e-10 -2.2569e-10 7.09522e-11 5e-05 1.46608e-10 
110 1 0.149538 0.0178975 0.00717396 0.00596182 -0.000179404 -7.14776e-05 2.65529e-12 1.20477e-11 8.91815e-12 5e-05 1.46608e-10 
111 1 0.149676 0.0181113 0.00709873 0.00603393 -0.000205922 -6.18718e-05 5.93464e-11 -2.93014e-11 -8.08305e-12 5e-05 1.46608e-10 
112 1 0.143172 0.0163392 0.00797177 0.00566063 0.000700295 0.00137571 -1.26057e-10 2.08298e-10 -2.8846e-10 5e-05 1.46608e-10 
113 1 0.143706 0.0186272 0.00691455 0.00620451 -0.000267671 -0.00023839 3.19461e-13 1.48182e-10 -4.13334e-11 5e-05 1.46608e-10 
114 1 0.143548 0.0171847 0.00743767 0.00593521 0.000636335 0.00151587 -3.67457e-11 5.84284e-11 1.5961e-10 5e-05 1.46608e-10 
115 1 0.149711 0.017819 0.00719664 0.00593734 -0.000191281 -6.69958e-05 8.85065e-11 -1.57564e-10 5.90299e-11 5e-05 1.46608e-10 
116 1 0.149807 0.0191268 0.0068379 0.00571903 -0.000107937 -0.000878643 9.40786e-11 -1.28574e-10 8.35549e-11 5e-05 1.46608e-10 
117 1 0.150025 0.018124 0.0070867 0.00599887 -0.000298662 -3.19359e-05 5.4468e-11 1.61433e-10 -5.24896e-11 5e-05 1.46608e-10 
118 1 0.143475 0.017312 0.00742478 0.00602407 0.000863656 0.00118584 -6.46769e-13 4.831e-10 -4.59579e-10 5e-05 1.46608e-10 
119 1 0.149255 0.0166008 0.007618 0.00558572 -9.89004e-05 -9.1282e-05 1.44838e-10 -1.011e-10 4.47596e-11 5e-05 1.46608e-10 
120 1 0.149176 0.0162698 0.00780862 0.00571553 5.7734e-05 0.000161176 2.25585e-11 -2.40081e-10 -2.10181e-11 5e-05 1.46608e-10 
121 1 0.149062 0.0159548 0.00830597 0.00596414 0.000245045 0.000240149 -1.08368e-09 2.13704e-10 -1.49722e-10 5e-05 1.46608e-10 
122 1 0.149516 0.0178051 0.0072057 0.00593105 -0.000177225 -6.98925e-05 -9.27784e-11 -7.66789e-11 3.98271e-11 5e-05 1.46608e-10 
123 1 0.143204 0.0161399 0.00813892 0.00566846 0.000661555 0.00140581 -1.20219e-10 2.09726e-10 -2.33315e-10 5e-05 1.46608e-10 
124 1 0.149411 0.0173431 0.00736396 0.0057938 -0.000154938 -7.63975e-05 2.44404e-12 -2.9485e-11 1.41694e-11 5e-05 1.46608e-10 
125 1 0.150043 0.0182603 0.00704033 0.00605768 -0.000354396 -1.47181e-05 -2.42747e-10 1.38674e-10 -4.01661e-11 5e-05 1.46608e-10 
126 1 0.149311 0.0168796 0.00752265 0.0053418 -5.98187e-05 -0.000100162 7.57222e-11 -1.6269e-10 7.79094e-11 5e-05 1.46608e-10 
127 1 0.143131 0.0161785 0.00808362 0.00566116 0.000666473 0.00140101 3.9424e-11 3.46157e-10 -2.65865e-10 5e-05 1.46608e-10 
128 1 0.14939 0.0172505 0.00739566 0.00576582 -0.000151975 -7.6027e-05 7.83549e-11 -7.95246e-11 2.69089e-11 5e-05 1.46608e-10 
129 1 0.14968 0.0182833 0.00712712 0.00607487 -0.000169062 -7.2554e-05 1.24198e-10 -1.83599e-10 -4.38145e-11 5e-05 1.46608e-10 
130 1 0.143432 0.0170603 0.0074956 0.00582735 0.000745322 0.00139021 2.09933e-10 -8.48602e-11 1.20457e-10 5e-05 1.46608e-10 
131 1 0.143307 0.0165417 0.00785902 0.00559389 0.000851835 0.00123371 -5.49934e-10 -1.78331e-12 -1.46771e-10 5e-05 1.46608e-10 
132 1 0.149755 0.0182196 0.00714659 0.00603832 -0.000157548 -6.40774e-05 1.4171e-10 -2.50599e-10 -4.27216e-11 5e-05 1.46608e-10 
133 1 0.149698 0.0185959 0.0069941 0.00620061 -0.000178642 -7.65248e-05 7.88013e-11 5.3541e-11 -6.75674e-12 5e-05 1.46608e-10 
134 1 0.149485 0.0172792 0.00738388 0.00568151 -0.000176651 -6.61959e-05 -1.91351e-10 1.51535e-10 -4.57191e-11 5e-05 1.46608e-10 
135 1 0.148931 0.0156261 0.0087902 0.00591347 0.000196153 0.000241086 -1.13262e-10 -1.32163e-10 1.76484e-10 5e-05 1.46608e-10 
136 1 0.143143 0.0159172 0.00832645 0.00585092 0.000338321 0.00123738 -1.31311e-10 9.51603e-11 -3.09711e-10 5e-05 1.46608e-10 
137 1 0.149474 0.0176204 0.00726893 0.00587608 -0.000173549 -7.12126e-05 -3.08621e-11 -6.68855e-11 2.78992e-11 5e-05 1.46608e-10 
138 1 0.149854 0.0188863 0.00683317 0.00584433 8.46482e-06 -0.000135126 2.52636e-10 1.86834e-10 -8.20411e-11 5e-05 1.46608e-10 
140 1 0.149697 0.0182039 0.00706702 0.00605808 -0.000180847 -7.20481e-05 6.9223e-11 4.89531e-11 -1.52677e-11 5e-05 1.46608e-10 
141 1 0.143184 0.0160596 0.0081948 0.00580763 0.00066419 0.00144918 7.49417e-11 2.50204e-10 -2.0863e-10 5e-05 1.46608e-10 
142 1 0.143568 0.0172651 0.00738141 0.00597167 0.000599169 0.00155021 -1.21188e-09 -6.58124e-10 1.83532e-10 5e-05 1.46608e-10 
143 1 0.143088 0.0160314 0.00821072 0.0058065 0.000474961 0.00130606 -5.75143e-11 -3.70631e-11 -5.5715e-10 5e-05 1.46608e-10 
144 1 0.143528 0.0171044 0.00749356 0.0058038 0.000653963 0.00147417 5.36804e-10 1.99238e-10 1.2584e-10 5e-05 1.46608e-10 
146 1 0.143399 0.0165809 0.0078596 0.00559751 0.000681778 0.00136607 -4.26299e-10 3.59929e-10 -4.34448e-10 5e-05 1.46608e-10 
147 1 0.143121 0.0158551 0.0084018 0.00584966 -0.000247938 0.000776426 -1.51022e-10 6.89128e-11 -4.07188e-10 5e-05 1.46608e-10 
148 1 0.143379 0.0172087 0.0074286 0.00589003 0.000722022 0.00141909 5.41409e-10 1.56782e-10 -2.88495e-10 5e-05 1.46608e-10 
149 1 0.149654 0.0180191 0.00713094 0.00599706 -0.000203573 -6.32603e-05 2.1671e-11 -7.80033e-11 -7.9159e-12 5e-05 1.46608e-10 
150 1 0.143439 0.0167415 0.0077474 0.00563698 0.000654981 0.00139703 -1.03772e-09 -1.93747e-10 -2.56781e-10 5e-05 1.46608e-10 
151 1 0.14379 0.0175174 0.00725931 0.0055791 0.000686649 0.00138671 -6.48652e-10 4.20502e-10 -5.74129e-10 5e-05 1.46608e-10 
153 1 0.143245 0.0163005 0.00802708 0.00564568 0.000677909 0.00138684 -2.78511e-10 1.69438e-10 -2.3849e-10 5e-05 1.46608e-10 
154 1 0.143493 0.0173024 0.00732675 0.0059328 0.000517915 0.00160557 -5.60751e-10 2.91469e-10 -1.27466e-10 5e-05 1.46608e-10 
155 1 0.143538 0.0175768 0.00721721 0.00521203 -0.000104435 -0.000205822 -3.72228e-10 -3.02962e-10 -6.05679e-10 5e-05 1.46608e-10 
156 1 0.143472 0.017221 0.00738354 0.00599552 0.000746501 0.00146106 8.07957e-11 5.04721e-11 4.10136e-11 5e-05 1.46608e-10 
157 1 0.0219312 0.0187687 0.00551176 -3.83888e-14 8.16348e-14 2.95889e-13 3.07298e-22 -1.61404e-22 9.32646e-23 5e-05 1.46608e-10 
158 1 0.14375 0.017985 0.00709218 0.00604699 -0.000282532 -0.000224094 1.2265e-10 9.57819e-12 -1.22818e-11 5e-05 1.46608e-10 
159 1 0.149966 0.0183216 0.00702132 0.00607561 -0.000310162 -2.87975e-05 -1.22263e-10 3.33907e-11 2.7579e-12 5e-05 1.46608e-10 
160 1 0.143437 0.0174485 0.00725825 0.0057972 -0.0002425 -0.00028057 -3.50002e-11 -9.95246e-10 1.2244e-09 5e-05 1.46608e-10 
162 1 0.143398 0.0172856 0.00736751 0.00598249 0.000759017 0.00148498 -7.95616e-11 2.72156e-11 -1.86193e-10 5e-05 1.46608e-10 
164 1 0.143639 0.0179043 0.00712036 0.00600897 -0.000266227 -0.000230782 -2.07812e-11 8.06096e-11 -5.85676e-11 5e-05 1.46608e-10 
165 1 0.143894 0.0177669 0.00714595 0.00597806 -0.000252277 -0.000230804 -4.82651e-11 -1.2674e-10 3.27444e-11 5e-05 1.46608e-10 
166 1 0.14997 0.0190535 0.00683262 0.00468256 -0.000579636 0.000945663 7.69207e-11 -2.50158e-10 -2.35692e-11 5e-05 1.46608e-10 
167 1 0.143418 0.0166612 0.00780341 0.00554331 0.000668312 0.00135814 -6.73942e-10 8.78062e-11 -2.74069e-10 5e-05 1.46608e-10 
168 1 0.143701 0.017472 0.00726466 0.00551276 0.00110376 0.000876268 8.37297e-10 -1.59669e-09 2.43521e-09 5e-05 1.46608e-10 
169 1 0.143727 0.0187211 0.0068872 0.00558104 -0.000196805 -0.000227213 -1.4332e-11 -8.66732e-11 2.51026e-11 5e-05 1.46608e-10 
170 1 0.143712 0.0175706 0.00722727 0.00570832 6.82875e-06 -0.000126582 -5.77686e-10 4.36999e-10 -1.21257e-09 5e-05 1.46608e-10 
171 1 0.149799 0.0190283 0.00682316 0.00574717 -0.000164538 -0.000282413 2.97959e-10 -3.38404e-10 5.61357e-10 5e-05 1.46608e-10 
172 1 0.143876 0.0176725 0.00717331 0.00591186 -0.00025253 -0.000229479 3.2523e-10 -2.48548e-10 3.82378e-11 5e-05 1.46608e-10 
173 1 0.149814 0.0183257 0.00702329 0.00608983 -0.000215606 -6.39955e-05 5.36846e-11 1.01355e-10 -2.70666e-11 5e-05 1.46608e-10 
174 1 0.143628 0.0176189 0.00720086 0.00545579 -0.000339589 -0.000217402 -1.88543e-10 1.23854e-10 -1.02806e-09 5e-05 1.46608e-10 
175 1 0.137414 0.0173257 0.00724109 0.00566227 2.92119e-05 -0.000491794 -7.1568e-12 2.27894e-11 -5.98598e-12 5e-05 1.46608e-10 
176 1 0.143452 0.0171407 0.00743943 0.00587489 0.000723153 0.00142345 -1.64476e-11 -2.99777e-10 -2.79637e-14 5e-05 1.46608e-10 
177 1 0.14348 0.017645 0.00726231 0.00595468 0.000187045 0.000229696 -2.71681e-11 -2.75791e-10 -1.27094e-09 5e-05 1.46608e-10 
178 1 0.143825 0.0182966 0.00700111 0.00610014 -0.000154381 -0.000264718 8.45837e-11 2.36204e-10 -7.04334e-11 5e-05 1.46608e-10 
179 1 0.14385 0.0181337 0.00704543 0.00596687 -0.000405731 -0.000187926 1.70776e-10 4.27541e-11 -2.22181e-11 5e-05 1.46608e-10 
181 1 0.143497 0.017494 0.007345 0.00611806 0.000846062 0.00144365 2.1119e-10 -5.73007e-10 -1.55499e-10 5e-05 1.46608e-10 
182 1 0.149767 0.0189335 0.00681913 0.00572475 -0.00013205 -9.69337e-05 -1.31473e-11 -1.63281e-10 -2.25508e-10 5e-05 1.46608e-10 
183 1 0.143622 0.0175248 0.00723466 0.0054087 0.0003923 0.000299011 -9.61844e-10 -3.31588e-10 4.1483e-09 5e-05 1.46608e-10 
184 1 0.149718 0.0182964 0.00703548 0.00608739 -0.000189416 -7.55438e-05 -7.21696e-12 -8.19137e-11 -2.18003e-10 5e-05 1.46608e-10 
185 1 0.14336 0.0171296 0.00748689 0.00583154 0.000727433 0.00140285 1.12181e-12 -1.83774e-10 -5.17229e-11 5e-05 1.46608e-10 
186 1 0.143487 0.0174017 0.00738195 0.00625637 0.000788349 0.00115055 -1.21511e-10 -4.8821e-10 -4.96129e-10 5e-05 1.46608e-10 
187 1 0.149711 0.0186549 0.00691444 0.00622054 -0.000184022 -7.57709e-05 -2.10064e-12 -1.10624e-11 -6.06684e-11 5e-05 1.46608e-10 
188 1 0.149432 0.0174361 0.00733418 0.00583257 -0.000173951 -7.09772e-05 2.40046e-10 -7.62987e-11 2.80573e-11 5e-05 1.46608e-10 
189 1 0.149789 0.0185951 0.00693289 0.00621085 -0.000200565 -6.43027e-05 -8.23008e-11 -9.42298e-11 7.63033e-11 5e-05 1.46608e-10 
190 1 0.137592 0.0177236 0.00709662 0.00623348 0.000221868 0.000128231 1.48848e-10 -5.33866e-10 1.77321e-10 5e-05 1.46608e-10 
191 1 0.149496 0.0177143 0.00724199 0.00590648 -0.000176082 -6.96797e-05 4.07601e-11 -6.28096e-11 2.77339e-11 5e-05 1.46608e-10 
192 1 0.14364 0.0172241 0.00743806 0.00583814 0.000854798 0.00131172 7.1305e-10 4.76755e-10 -1.59936e-10 5e-05 1.46608e-10 
193 1 0.149272 0.016694 0.00758614 0.00539335 -6.35302e-05 -9.63685e-05 1.12458e-10 -9.83797e-11 1.83001e-11 5e-05 1.46608e-10 
194 1 0.143422 0.0168935 0.00762299 0.00572434 0.000642469 0.00143669 1.24232e-10 1.07767e-11 1.8732e-10 5e-05 1.46608e-10 
195 1 0.143834 0.0179314 0.00710293 0.00606576 -0.000265343 -0.000231511 2.23477e-13 -9.92689e-11 8.1944e-12 5e-05 1.46608e-10 
196 1 0.142915 0.0155304 0.00880872 0.00585535 -0.000442806 0.00059157 -7.48151e-11 -1.90487e-10 2.59435e-10 5e-05 1.46608e-10 
197 1 0.137474 0.017603 0.00714372 0.00614021 -6.27688e-05 -0.000438391 6.99566e-10 9.78829e-11 -1.28285e-09 5e-05 1.46608e-10 
198 1 0.143279 0.0167917 0.0077768 0.00520293 0.00250123 0.00020729 -8.50558e-10 -4.47784e-11 -2.90577e-10 5e-05 1.46608e-10 
199 1 0.143417 0.0173652 0.00730998 0.00596843 0.000526234 0.00162786 -6.951e-11 7.83696e-10 7.95816e-10 5e-05 1.46608e-10 
200 1 0.14331 0.0169017 0.0075783 0.00550676 0.000842482 0.00120938 -3.82469e-13 -1.58331e-12 1.14664e-12 5e-05 1.46608e-10 
201 1 0.143781 0.0185631 0.0069287 0.00621807 -0.000244417 -0.000246191 -2.21765e-10 -5.83743e-11 3.31868e-11 5e-05 1.46608e-10 
202 1 0.143664 0.0173043 0.00738323 0.00591235 0.00087964 0.00131774 -8.14612e-10 5.75697e-10 -7.20492e-10 5e-05 1.46608e-10 
203 1 0.149559 0.01799 0.00714228 0.00598674 -0.000181482 -7.18774e-05 5.48301e-11 -2.65619e-11 -6.57458e-12 5e-05 1.46608e-10 
204 1 0.14329 0.0168212 0.00763476 0.00543407 0.00069737 0.0012746 6.08468e-11 7.29475e-10 -8.21879e-10 5e-05 1.46608e-10 
205 1 0.14376 0.0180912 0.0071075 0.00612206 -0.000164941 -0.000254838 2.65729e-11 -4.37593e-11 4.76908e-11 5e-05 1.46608e-10 
206 1 0.143634 0.0177151 0.00717362 0.0055122 -0.000348521 -0.000174236 -4.55163e-10 1.53539e-10 -3.95772e-11 5e-05 1.46608e-10 
207 1 0.143225 0.0162202 0.008083 0.00564042 0.000667537 0.00139129 -4.50053e-10 1.59612e-10 -2.87587e-10 5e-05 1.46608e-10 
208 1 0.143514 0.0173884 0.00727826 0.00587807 -0.000428054 -0.00124647 2.27915e-09 -9.69469e-10 7.86153e-10 5e-05 1.46608e-10 
209 1 0.143447 0.0168213 0.00768777 0.00574582 0.000655627 0.00142531 -4.72522e-10 -2.61263e-10 1.90562e-11 5e-05 1.46608e-10 
210 1 0.149742 0.0185119 0.00696203 0.00617498 -0.000188095 -7.262e-05 -2.13709e-12 3.41892e-12 4.65584e-11 5e-05 1.46608e-10 
211 1 0.149664 0.0184523 0.00698387 0.00614761 -0.000170328 -8.2081e-05 3.50955e-11 4.69388e-11 4.96283e-12 5e-05 1.46608e-10 
212 1 0.143717 0.0176614 0.00718444 0.00551152 -0.000303999 -0.000196908 -4.51643e-10 3.09871e-11 -6.99158e-11 5e-05 1.46608e-10 
213 1 0.149827 0.0187775 0.00687049 0.00618443 2.10081e-05 -0.000130297 -1.18651e-10 -8.29248e-11 -4.74947e-11 5e-05 1.46608e-10 
214 1 0.149601 0.0181749 0.00707896 0.00605809 -0.000176014 -7.66706e-05 1.00903e-10 4.96603e-11 -3.50282e-11 5e-05 1.46608e-10 
215 1 0.13757 0.0176306 0.00712642 0.00620082 7.75641e-05 -0.000289521 -1.64487e-10 -7.32275e-10 1.12388e-10 5e-05 1.46608e-10 
216 1 0.143458 0.0175477 0.00727007 0.00591967 0.000269751 0.0012177 7.78586e-10 1.77667e-09 9.65955e-10 5e-05 1.46608e-10 
217 1 0.150024 0.0189704 0.0068418 0.00463009 -0.000622921 0.0009323 6.45013e-11 -6.91141e-11 3.38897e-11 5e-05 1.46608e-10 
218 1 0.143508 0.017763 0.00716655 0.00590974 -0.000171075 -0.000244985 1.49904e-10 -2.89076e-10 2.20058e-10 5e-05 1.46608e-10 
219 1 0.149633 0.0179264 0.00716209 0.00597306 -0.00019986 -6.5278e-05 4.92417e-11 -6.37262e-11 8.34193e-12 5e-05 1.46608e-10 
220 1 0.143637 0.0177734 0.00725482 0.00596093 -0.000258211 -0.000249845 6.73571e-12 6.20529e-11 1.29007e-10 5e-05 1.46608e-10 
221 1 0.137469 0.0171685 0.00728868 0.00575389 -9.35066e-06 -0.000489664 -3.75329e-10 3.28603e-10 2.77634e-10 5e-05 1.46608e-10 
222 1 0.149941 0.0180011 0.00713008 0.00597875 -0.000234348 -5.32491e-05 1.697e-10 -7.02649e-11 1.85599e-11 5e-05 1.46608e-10 
223 1 0.143591 0.0173453 0.00732627 0.00599748 0.000612195 0.00154819 3.38487e-10 -4.12742e-10 7.24626e-10 5e-05 1.46608e-10 
224 1 0.14334 0.0170427 0.00753191 0.00578231 0.000718435 0.00139831 -2.43999e-10 -4.66509e-10 4.03126e-10 5e-05 1.46608e-10 
225 1 0.14957 0.017649 0.00725714 0.00589708 -0.000191888 -6.57202e-05 -2.60993e-11 -1.02002e-10 3.61761e-11 5e-05 1.46608e-10 
226 1 0.1438 0.0176059 0.00719581 0.005756 -0.000165714 -0.000244547 -5.27584e-10 3.63827e-10 -2.81383e-10 5e-05 1.46608e-10 
227 1 0.137529 0.017446 0.00719132 0.00607743 -1.80379e-05 -0.000510711 6.39146e-12 -4.5158e-10 1.78736e-10 5e-05 1.46608e-10 
228 1 0.137434 0.0174183 0.00720864 0.00565391 4.61695e-05 -0.000497151 -6.51674e-12 1.8139e-11 -7.07918e-13 5e-05 1.46608e-10 
229 1 0.1436 0.0176823 0.00727287 0.00560889 -0.000124972 -0.000229081 -2.32671e-11 -1.24228e-10 -1.32509e-09 5e-05 1.46608e-10 
230 1 0.143762 0.0183718 0.00698324 0.00599698 -0.000235883 -0.000237376 -1.73043e-10 -1.96354e-10 5.73267e-11 5e-05 1.46608e-10 
231 1 0.137395 0.0172332 0.00727355 0.00567737 3.71462e-05 -0.000494257 -1.22499e-10 5.14217e-10 -1.2333e-10 5e-05 1.46608e-10 
232 1 0.143358 0.0164202 0.00797167 0.00574849 0.000712763 0.00139325 9.30876e-11 2.82641e-10 -2.267e-10 5e-05 1.46608e-10 
233 1 0.143459 0.0169859 0.00763529 0.00559673 0.000681948 0.0014318 7.98577e-10 1.77907e-10 2.1651e-10 5e-05 1.46608e-10 
234 1 0.149759 0.0183622 0.00709846 0.00603686 -0.000241004 -8.15435e-05 1.74701e-10 1.78268e-10 1.7764e-10 5e-05 1.46608e-10 
235 1 0.143695 0.0182326 0.00709091 0.00603954 -0.000236663 -0.0002337 2.40502e-10 3.70384e-11 7.70221e-12 5e-05 1.46608e-10 
236 1 0.143658 0.0184197 0.00697508 0.00615016 -0.000284722 -0.00023109 4.98706e-11 -5.61861e-11 2.23167e-11 5e-05 1.46608e-10 
237 1 0.143616 0.0182319 0.00702984 0.00608093 -0.000236069 -0.0002602 -3.019e-10 -6.01601e-11 2.36034e-10 5e-05 1.46608e-10 
239 1 0.137224 0.0165271 0.00777488 0.0054939 0.000461914 0.000118078 -1.36396e-10 5.03411e-10 -3.27451e-10 5e-05 1.46608e-10 
240 1 0.13728 0.0167375 0.00756836 0.00558614 0.000456606 0.000108991 -1.74889e-10 2.8793e-11 6.27825e-11 5e-05 1.46608e-10 
241 1 0.137205 0.016457 0.00784368 0.00559407 0.000411063 0.000166452 -3.24686e-12 3.2794e-10 -3.79087e-10 5e-05 1.46608e-10 
242 1 0.143599 0.0170629 0.0075502 0.00575153 0.000607406 0.00147797 -2.96231e-11 -3.80242e-11 1.52569e-10 5e-05 1.46608e-10 
243 1 0.143353 0.0167955 0.00770928 0.00547394 0.00096462 0.000443438 -3.93765e-10 -1.37393e-10 3.60346e-10 5e-05 1.46608e-10 
244 1 0.137243 0.0165972 0.00770604 0.00552025 0.000466854 9.98657e-05 -3.55707e-11 2.78749e-10 -2.58106e-10 5e-05 1.46608e-10 
246 1 0.137355 0.0170481 0.00733846 0.00568843 -4.35832e-05 -0.000606771 3.52746e-10 -4.15143e-10 -4.47178e-10 5e-05 1.46608e-10 
247 1 0.143685 0.0178692 0.00720193 0.00598162 -0.000278465 -0.000229745 -1.18661e-10 -6.34437e-11 -7.17189e-11 5e-05 1.46608e-10 
248 1 0.143684 0.0185335 0.0069419 0.0061726 -0.000271575 -0.000237149 2.68638e-11 9.89791e-11 -1.83954e-11 5e-05 1.46608e-10 
249 1 0.137665 0.0176574 0.00711068 0.00626952 0.000276153 0.000105434 3.66776e-10 -7.9293e-10 1.38247e-10 5e-05 1.46608e-10 
250 1 0.143545 0.0176728 0.00718999 0.00559228 -0.00015597 -0.000230526 1.90077e-09 -2.39138e-10 6.60325e-10 5e-05 1.46608e-10 
251 1 0.14958 0.0180825 0.0071106 0.00602199 -0.000180034 -7.13095e-05 -3.16146e-11 3.82925e-13 -1.51264e-11 5e-05 1.46608e-10 
252 1 0.137517 0.0177886 0.00708273 0.00619893 0.000169777 0.000141668 -1.8039e-10 -4.5666e-10 -2.18069e-11 5e-05 1.46608e-10 