LIGGGHTS (Version LIGGGHTS-PUBLIC 3.8.0, compiled 2026-05-30-04:17:57 by root, git commit 3d5c00f20519e6bb6eb6756f51f1ad36564e649d)
##################################Header for General commands#######################################################

atom_style	granular		#Simulation of particles

boundary	f f f			#fixed boundaries -> particles will be deleted if leaving the simulation box

units		si

communicate	multi vel yes		#default

newton		off			#default


###################################System variables##################################################################

#Definition of boundaries

variable xmin equal -0.02
variable xmax equal 0.43

variable ymin equal -0.02
variable ymax equal 0.06

variable zmin equal -0.02
variable zmax equal 0.07

#Definition of the timestep

variable dt equal 1e-6


###################################Specific variables for current simulation#########################################

variable natoms equal 2 				#1 -> particle #2 ->pipe and screw


####variable for material properties####

####Young Modulus####
variable	youngmodulus1	equal 	7e6
variable	youngmodulus2	equal 	2e8

####Poission ratio####
variable 	poission1	equal	0.30
variable 	poission2	equal	0.29


####variable for contact properties####

####coefficient of restitution####
variable	CoR11	equal	0.6
variable	CoR12	equal	0.3
variable	CoR21	equal	0.3
variable	CoR22	equal	0.45

####sliding friction coefficient####
variable	sf11	equal	0.65	#Particle-particle sliding friction coefficient
variable	sf12	equal	0.6
variable	sf21	equal	0.6
variable	sf22	equal	0.0

####rolling friction coefficient####
variable	rf11	equal	0.75	#Particle-particle rolling friction coefficient
variable	rf12	equal	0.5
variable	rf21	equal	0.5
variable	rf22	equal	0.0


####variable for particle####

#Number of particle radius
variable	nradii	equal	3

variable	radius1	equal	0.0005	#m
variable	radius2	equal	0.0005	#m
variable	radius3	equal	0.0005	#m

variable	frac1	equal	0.3945
variable	frac2	equal	0.4059
variable	frac3	equal	0.1996

variable	density	equal	280		#kg/m³


####filling parameters####

variable	filltime	equal	2.0		#s, prueba rápida: alimentar 2 s

variable	dischargetime	equal	90		#s, tiempo para que puedan salir partículas

variable	fillmass	equal	4.4e-5 		#kg, 2 g de material

variable	fillmassrate	equal	${fillmass}/${filltime}	#kg/s
variable	fillmassrate	equal	4.4e-05/${filltime}	
variable	fillmassrate	equal	4.4e-05/2	

variable	fillsteps	equal	${filltime}/${dt}
variable	fillsteps	equal	2/${dt}
variable	fillsteps	equal	2/1e-06

variable	dischargesteps	equal	${dischargetime}/${dt}
variable	dischargesteps	equal	90/${dt}
variable	dischargesteps	equal	90/1e-06


####screw velocities####

variable	screwPeriod	equal	1.209		#s, prueba rápida: 2 vueltas/s


###################################Definition of simulationbox#######################################################

region		reg block ${xmin} ${xmax} ${ymin} ${ymax} ${zmin} ${zmax} units box
region		reg block -0.02 ${xmax} ${ymin} ${ymax} ${zmin} ${zmax} units box
region		reg block -0.02 0.43 ${ymin} ${ymax} ${zmin} ${zmax} units box
region		reg block -0.02 0.43 -0.02 ${ymax} ${zmin} ${zmax} units box
region		reg block -0.02 0.43 -0.02 0.06 ${zmin} ${zmax} units box
region		reg block -0.02 0.43 -0.02 0.06 -0.02 ${zmax} units box
region		reg block -0.02 0.43 -0.02 0.06 -0.02 0.07 units box

processors 6 1 1

create_box	2 reg
Created orthogonal box = (-0.02 -0.02 -0.02) to (0.43 0.06 0.07)
  6 by 1 by 1 MPI processor grid

neighbor	0.001 bin

neigh_modify	delay 0


#################################Definition of the contact models####################################################

pair_style gran model hertz tangential history rolling_friction epsd2

pair_coeff	* *

timestep ${dt}
timestep 1e-06

thermo 10000

fix		integrator all nve/sphere

fix		gravi all gravity 9.81 vector 0.0 0.0 -1.0


###################################Definition of Material properties#################################################

fix 		m1 all property/global youngsModulus peratomtype ${youngmodulus1} ${youngmodulus2}
fix 		m1 all property/global youngsModulus peratomtype 7000000 ${youngmodulus2}
fix 		m1 all property/global youngsModulus peratomtype 7000000 200000000

fix 		m2 all property/global poissonsRatio peratomtype ${poission1} ${poission2}
fix 		m2 all property/global poissonsRatio peratomtype 0.3 ${poission2}
fix 		m2 all property/global poissonsRatio peratomtype 0.3 0.29

fix 		m3 all property/global coefficientRestitution peratomtypepair ${natoms} ${CoR11} ${CoR12} ${CoR21} ${CoR22}
fix 		m3 all property/global coefficientRestitution peratomtypepair 2 ${CoR11} ${CoR12} ${CoR21} ${CoR22}
fix 		m3 all property/global coefficientRestitution peratomtypepair 2 0.6 ${CoR12} ${CoR21} ${CoR22}
fix 		m3 all property/global coefficientRestitution peratomtypepair 2 0.6 0.3 ${CoR21} ${CoR22}
fix 		m3 all property/global coefficientRestitution peratomtypepair 2 0.6 0.3 0.3 ${CoR22}
fix 		m3 all property/global coefficientRestitution peratomtypepair 2 0.6 0.3 0.3 0.45

fix 		m4 all property/global coefficientFriction peratomtypepair ${natoms} ${sf11} ${sf12} ${sf21} ${sf22}
fix 		m4 all property/global coefficientFriction peratomtypepair 2 ${sf11} ${sf12} ${sf21} ${sf22}
fix 		m4 all property/global coefficientFriction peratomtypepair 2 0.65 ${sf12} ${sf21} ${sf22}
fix 		m4 all property/global coefficientFriction peratomtypepair 2 0.65 0.6 ${sf21} ${sf22}
fix 		m4 all property/global coefficientFriction peratomtypepair 2 0.65 0.6 0.6 ${sf22}
fix 		m4 all property/global coefficientFriction peratomtypepair 2 0.65 0.6 0.6 0

fix 		m5 all property/global coefficientRollingFriction peratomtypepair ${natoms} ${rf11} ${rf12} ${rf21} ${rf22}
fix 		m5 all property/global coefficientRollingFriction peratomtypepair 2 ${rf11} ${rf12} ${rf21} ${rf22}
fix 		m5 all property/global coefficientRollingFriction peratomtypepair 2 0.75 ${rf12} ${rf21} ${rf22}
fix 		m5 all property/global coefficientRollingFriction peratomtypepair 2 0.75 0.5 ${rf21} ${rf22}
fix 		m5 all property/global coefficientRollingFriction peratomtypepair 2 0.75 0.5 0.5 ${rf22}
fix 		m5 all property/global coefficientRollingFriction peratomtypepair 2 0.75 0.5 0.5 0


###################################Generation and Loading of the Geometry .stl#######################################

fix case all mesh/surface file case_remesh_fixed.stl type 2 heal auto_remove_duplicates scale 1.0 curvature 1e-5 curvature_tolerant yes

fix screw all mesh/surface file screw_simplified_fixed.stl type 2 scale 1.0 curvature 1e-5 curvature_tolerant yes

fix 		walls 		all wall/gran model hertz tangential history rolling_friction epsd2 mesh n_meshes 2 meshes case screw

fix		Movescrew	all move/mesh mesh screw rotate origin 0.2024435 0.019051 0.011497 axis -1. 0. 0. period ${screwPeriod}
fix		Movescrew	all move/mesh mesh screw rotate origin 0.2024435 0.019051 0.011497 axis -1. 0. 0. period 1.209

fix feed all mesh/surface file feed.stl type 2 scale 1.0 curvature 1e-5 curvature_tolerant yes

fix outlet all mesh/surface file outlet_1.stl type 2 scale 1.0 curvature 1e-5 curvature_tolerant yes


###################################Generation and Insertion of the particles#########################################

fix pts1 all particletemplate/sphere 10487 atom_type 1 density constant ${density} radius constant ${radius1} volume_limit 1e-18
fix pts1 all particletemplate/sphere 10487 atom_type 1 density constant 280 radius constant ${radius1} volume_limit 1e-18
fix pts1 all particletemplate/sphere 10487 atom_type 1 density constant 280 radius constant 0.0005 volume_limit 1e-18

fix pts2 all particletemplate/sphere 11887 atom_type 1 density constant ${density} radius constant ${radius2} volume_limit 1e-18
fix pts2 all particletemplate/sphere 11887 atom_type 1 density constant 280 radius constant ${radius2} volume_limit 1e-18
fix pts2 all particletemplate/sphere 11887 atom_type 1 density constant 280 radius constant 0.0005 volume_limit 1e-18

fix pts3 all particletemplate/sphere 16561 atom_type 1 density constant ${density} radius constant ${radius3} volume_limit 1e-18
fix pts3 all particletemplate/sphere 16561 atom_type 1 density constant 280 radius constant ${radius3} volume_limit 1e-18
fix pts3 all particletemplate/sphere 16561 atom_type 1 density constant 280 radius constant 0.0005 volume_limit 1e-18

fix 		pdd1 all particledistribution/discrete 32452867 ${nradii} pts1 ${frac1} pts2 ${frac2} pts3 ${frac3}
fix 		pdd1 all particledistribution/discrete 32452867 3 pts1 ${frac1} pts2 ${frac2} pts3 ${frac3}
fix 		pdd1 all particledistribution/discrete 32452867 3 pts1 0.3945 pts2 ${frac2} pts3 ${frac3}
fix 		pdd1 all particledistribution/discrete 32452867 3 pts1 0.3945 pts2 0.4059 pts3 ${frac3}
fix 		pdd1 all particledistribution/discrete 32452867 3 pts1 0.3945 pts2 0.4059 pts3 0.1996

fix		ins_mesh all mesh/surface/planar file feed.stl type 1 scale 1.0

fix 		ins all insert/stream seed 15485863 distributiontemplate pdd1         	mass ${fillmass} massrate ${fillmassrate} overlapcheck yes all_in yes vel constant 0 0 -0.03         	insertion_face ins_mesh extrude_length 0.015
fix 		ins all insert/stream seed 15485863 distributiontemplate pdd1         	mass 4.4e-05 massrate ${fillmassrate} overlapcheck yes all_in yes vel constant 0 0 -0.03         	insertion_face ins_mesh extrude_length 0.015
fix 		ins all insert/stream seed 15485863 distributiontemplate pdd1         	mass 4.4e-05 massrate 2.2e-05 overlapcheck yes all_in yes vel constant 0 0 -0.03         	insertion_face ins_mesh extrude_length 0.015


################################### Particle Residence Time Track#########################################

fix 	rt_outlet	all massflow/mesh mesh outlet vec_side 0 0 -1 file rt_outlet.txt writeTime

fix 	rt_inlet	all massflow/mesh mesh feed vec_side 0 0 -1 file rt_inlet.txt writeTime


###################################Outlet mass flow track#########################################

fix	mfout	all massflow/mesh mesh outlet vec_side 0 0 -1

fix	mfin	all massflow/mesh mesh feed vec_side 0 0 -1

variable 	time equal step*dt

variable 	in_mass_flow equal	f_mfin[3]

variable 	out_mass_flow equal	f_mfout[3]

fix mass_flow_rate all print 5000 "${time},${in_mass_flow},${out_mass_flow}" screen no title "t,in_mass_flow,out_mass_flow" file massflow.csv


###################################Dumping of the data for post-processing to visualize############################

#fix ts_check all check/timestep/gran 1000 0.1 0.1

shell 	mkdir -p post

variable dumptime equal 0.2		#guarda cada 0.05 s

variable dumpstep equal ${dumptime}/${dt}
variable dumpstep equal 0.2/${dt}
variable dumpstep equal 0.2/1e-06

dump	dmpparticle all custom ${dumpstep} post/particles_*.liggghts id type x y z vx vy vz fx fy fz radius mass
dump	dmpparticle all custom 200000 post/particles_*.liggghts id type x y z vx vy vz fx fy fz radius mass

dump_modify	dmpparticle sort id

dump	dmpscrew	all	mesh/stl ${dumpstep} post/screw_*.stl screw
dump	dmpscrew	all	mesh/stl 200000 post/screw_*.stl screw


####################################RUN the simulation filling and discharge###########################################################

run	${fillsteps}
run	2000000
Setting up run at Tue Jun  2 05:16:34 2026

INFO: Particle insertion ins: 75.030187 particles every 500000 steps - particle rate 150.060375, (mass rate 2.200000e-05)
      300 particles (mass 4.398230e-05) within 1500000 steps
Memory usage per processor = 14.7696 Mbytes
    Step    Atoms         KinEng            CPU 
       0        0              0              0 
INFO: Particle insertion ins: inserted 75 particle templates (mass 1.099557e-05) at step 1
 - a total of 75 particle templates (mass 1.099557e-05) inserted so far.
   10000       75  4.9480084e-09       29.51176 
   20000       75   5.082716e-09      58.241286 
   30000       75  6.5406789e-09      87.143778 
   40000       75  5.9400433e-09      115.66837 
   50000       75   7.754619e-09      143.76463 
   60000       75   9.786682e-09      172.25305 
   70000       75  1.3263023e-08      200.40601 
   80000       75  1.3890094e-08      228.56677 
   90000       75  9.0476157e-09      256.76412 
  100000       75  9.0028799e-09      284.36785 
  110000       75  1.2379581e-08      311.51824 
  120000       75  1.5663125e-08      338.60555 
  130000       75  1.2307379e-08       365.5248 
  140000       75  1.3316259e-08      392.69885 
  150000       75  1.9417817e-08      420.14903 
  160000       75  1.3241382e-08      447.12219 
  170000       75  1.4705022e-08      474.14002 
  180000       75  9.6756217e-09      501.23327 
  190000       75  1.1320866e-08      528.29189 
  200000       75  7.4987932e-09      557.96461 
  210000       75  1.3092089e-08       585.0463 
  220000       75  1.0399502e-08      612.37441 
  230000       75  6.1750325e-09      639.91665 
  240000       75  5.0803107e-09      667.02315 
  250000       75  6.7935793e-09      695.06042 
  260000       75  8.6067273e-09      722.87876 
  270000       75  9.2068826e-09      750.10889 
  280000       75  1.1956853e-08      777.27934 
  290000       75  1.1902523e-08      804.49006 
  300000       75   1.495884e-08      831.85942 
  310000       75  3.0890379e-08      859.35456 
  320000       75  1.5315312e-08      886.84609 
  330000       75  8.7770758e-09      914.28501 
  340000       75   9.120562e-09       941.7692 
  350000       75  1.0695622e-08      969.50218 
  360000       75  8.7047486e-09      997.07023 
  370000       75  1.0656655e-08      1024.6134 
  380000       75  9.9399532e-09      1052.4033 
  390000       75  1.3058704e-08      1080.1996 
  400000       75  1.4575753e-08      1110.3662 
  410000       75  1.1400191e-08      1138.0536 
  420000       75   6.409801e-09      1165.9083 
  430000       75  6.4748492e-09      1193.6719 
  440000       75  7.2208705e-09      1221.9586 
  450000       75  8.7919488e-09      1250.1228 
  460000       75  9.2554452e-09      1278.2307 
  470000       75  5.9959383e-09      1306.2461 
  480000       75  1.2646104e-08      1334.3253 
  490000       75  8.7924337e-09      1362.5305 
  500000       75  5.0935631e-09      1390.8184 
INFO: Particle insertion ins: inserted 75 particle templates (mass 1.099557e-05) at step 500001
 - a total of 150 particle templates (mass 2.199115e-05) inserted so far.
  510000      150  1.3086424e-08      1419.1993 
  520000      150  1.2279705e-08      1448.1312 
  530000      150  7.9083723e-09      1476.5493 
  540000      150  1.1491752e-08      1505.5185 
  550000      150  1.1455845e-08      1537.1665 
  560000      150  1.4561938e-08      1567.7682 
  570000      150  2.0294228e-08       1600.978 
  580000      150   4.291686e-08      1630.7758 
  590000      150  2.7327969e-08      1660.2519 
  600000      150   1.490383e-08      1692.5317 
  610000      150  1.5434937e-08      1721.6652 
  620000      150  1.9741978e-08       1750.648 
  630000      150  1.3086036e-08      1779.9665 
  640000      150  9.6593113e-09      1810.0372 
  650000      150  1.5923465e-08      1839.8208 
  660000      150  1.1018845e-08      1869.4965 
  670000      150  2.4377076e-08      1899.2172 
  680000      150   1.455134e-08      1928.5912 
  690000      150  2.3060491e-08      1958.1316 
  700000      150    1.75606e-08      1987.6477 
  710000      150  1.2920805e-07      2017.1372 
  720000      150  4.8921721e-08      2047.3188 
  730000      150   1.289998e-08      2077.0273 
  740000      150  9.3389261e-09      2106.9354 
  750000      150  9.0582792e-09      2137.0472 
  760000      150  1.6198845e-08      2166.8859 
  770000      150  9.9059299e-09      2195.6732 
  780000      150  1.1819795e-08      2224.4027 
  790000      150  7.9210467e-09      2253.0524 
  800000      150  6.4820778e-09      2284.5214 
  810000      150  6.9693165e-09      2313.1604 
  820000      150  1.9693771e-07      2342.0696 
  830000      150  4.8423546e-08      2371.4011 
  840000      150  3.4743127e-08       2400.777 
  850000      150  2.3083552e-08      2430.8667 
  860000      150  1.7979866e-08      2460.5848 
  870000      150  1.3258137e-08      2491.4329 
  880000      150  1.2074179e-08      2521.2912 
  890000      150  1.1067925e-08      2550.8084 
  900000      150  5.9620455e-09      2580.4892 
  910000      150  6.3578602e-09      2610.1888 
  920000      150  7.8473631e-09      2639.9532 
  930000      150  1.4704786e-08      2669.8676 
  940000      150  4.6013504e-08      2699.4209 
  950000      150  6.7787225e-08       2729.264 
  960000      150  6.4379962e-08      2759.0775 
  970000      150  6.1137952e-08      2788.7888 
  980000      150  5.7128164e-08      2818.9663 
  990000      150  9.3524365e-08      2849.0587 
 1000000      150  1.3789265e-07      2881.7258 
INFO: Particle insertion ins: inserted 76 particle templates (mass 1.114218e-05) at step 1000001
 - a total of 226 particle templates (mass 3.313333e-05) inserted so far.
 1010000      225  2.2355492e-08      2911.8295 
 1020000      225  1.8609521e-08      2941.9089 
 1030000      225   2.019908e-08      2972.0732 
 1040000      225  2.0861186e-08      3002.3118 
 1050000      225  3.0710468e-08      3032.7132 
 1060000      225  1.9965618e-08      3063.4197 
 1070000      225  2.6851459e-08      3094.0732 
 1080000      225   4.941114e-08      3124.7613 
 1090000      225  2.2318592e-08      3155.1603 
 1100000      225  1.2726117e-07      3186.1603 
 1110000      225  5.8155108e-08       3217.093 
 1120000      225  2.6079022e-08      3248.1501 
 1130000      225    1.87908e-08      3279.0313 
 1140000      225    1.79844e-08      3310.1153 
 1150000      225  1.8151538e-08      3341.2796 
 1160000      225  2.0734175e-08      3372.9277 
 1170000      225  1.4882637e-07      3404.2663 
 1180000      225   3.235618e-08      3435.6457 
 1190000      225  3.6722685e-08      3467.5082 
 1200000      225  3.4006573e-08      3501.6771 
 1210000      225  2.1226806e-08      3533.4505 
 1220000      225  2.1775937e-08       3565.396 
 1230000      225  1.7350672e-08      3597.0969 
 1240000      225  9.9977542e-09      3630.0274 
 1250000      225  7.9616175e-09      3662.1119 
 1260000      225  1.0832561e-08      3694.5572 
 1270000      225    7.08124e-09      3726.9674 
 1280000      225   8.505322e-09      3759.3818 
 1290000      225  7.1579612e-09      3792.0139 
 1300000      225   2.195448e-08      3824.4895 
 1310000      225  2.1426541e-08      3856.9892 
 1320000      225  1.6169804e-08      3889.5694 
 1330000      225  2.4397257e-07      3922.3904 
 1340000      225  9.5957153e-08      3955.1967 
 1350000      225  6.8774488e-08      3987.6329 
 1360000      225  4.4306829e-08      4019.9357 
 1370000      225  2.3667717e-08      4052.1586 
 1380000      225  2.5537237e-08      4085.1032 
 1390000      225  2.5115354e-08      4117.7488 
 1400000      225  4.8710346e-08      4152.6715 
 1410000      225  2.5839009e-08      4185.0648 
 1420000      225  3.0753198e-08      4217.8924 
 1430000      225  3.1736804e-08        4251.45 
 1440000      225  1.8624918e-08      4285.6312 
 1450000      225   3.843159e-09      4319.8707 
 1460000      225  6.0017043e-08      4353.9135 
 1470000      225  1.8979953e-08      4388.1515 
 1480000      225   5.069601e-08      4422.3042 
 1490000      225  2.1464043e-08      4456.4725 
 1500000      225  2.0437736e-07      4490.0887 
INFO: Particle insertion ins: inserted 74 particle templates (mass 1.084897e-05) at step 1500001
 - a total of 300 particle templates (mass 4.398230e-05) inserted so far.
 1510000      299  3.8865642e-08      4524.3382 
 1520000      299  4.3513637e-07      4558.2252 
 1530000      299  2.1644461e-08      4592.3673 
 1540000      299  2.0937206e-08      4626.7322 
 1550000      299  2.3919211e-06      4661.7652 
 1560000      299  8.7552547e-07      4696.5287 
 1570000      299  7.3361754e-07      4730.9985 
 1580000      297  1.0222451e-07      4765.3629 
 1590000      297  9.5611836e-07      4799.7369 
 1600000      297  2.4675953e-06      4837.3408 
 1610000      297  5.1031393e-07      4872.3124 
 1620000      297  2.8235201e-07      4906.7082 
 1630000      297  2.2846815e-07      4941.5473 
 1640000      296  5.7431726e-08      4976.6872 
 1650000      295   5.293735e-08      5012.5224 
 1660000      295  4.5359297e-08      5050.0883 
 1670000      295  6.8305529e-07      5086.6051 
 1680000      295   9.416642e-08      5121.5722 
 1690000      295  1.1536903e-06      5157.3813 
 1700000      295   4.824697e-07      5192.7275 
 1710000      295  3.5912711e-07      5227.9703 
 1720000      295  3.1074063e-07      5263.5996 
 1730000      294  2.0375748e-07      5299.4891 
 1740000      293   1.925704e-07      5334.9554 
 1750000      292  8.3923782e-08      5371.2307 
 1760000      292   8.216205e-08      5407.8432 
 1770000      292   1.021959e-07      5444.1492 
 1780000      292  4.1308373e-07      5479.4739 
 1790000      292  3.0818442e-07      5514.8367 
 1800000      292  2.0387673e-06      5553.0296 
 1810000      291   1.087448e-06      5589.8209 
 1820000      290  1.1689496e-07      5626.0232 
 1830000      289  8.8721038e-08      5661.8787 
 1840000      288  4.7254213e-08      5699.5549 
 1850000      288  4.8920275e-08      5735.3913 
 1860000      288  3.3366216e-08      5771.5562 
 1870000      288  2.1135014e-08       5807.925 
 1880000      288  9.6438076e-09      5844.5986 
 1890000      288  9.4987078e-09      5881.1512 
 1900000      288  3.4185825e-08      5917.2408 
 1910000      288   2.505415e-08      5953.7789 
 1920000      288  2.0410404e-08      5990.2884 
 1930000      288  3.2410587e-07      6027.9304 
 1940000      288  2.3202224e-07      6065.0375 
 1950000      288  1.9168129e-07       6101.273 
 1960000      288  2.2984237e-07      6139.2495 
 1970000      288  1.3077757e-07      6175.9446 
 1980000      287  2.9192323e-08      6212.6724 
 1990000      287  2.0701699e-08       6249.378 
 2000000      287  1.6125511e-08       6289.137 
Loop time of 6289.14 on 6 procs for 2000000 steps with 287 atoms, finish time Tue Jun  2 07:01:37 2026


Pair  time (%) = 30.6596 (0.4875)
Neigh time (%) = 2.83042 (0.045005)
Comm  time (%) = 8.07914 (0.128462)
Outpt time (%) = 25.3237 (0.402658)
Other time (%) = 6222.24 (98.9364)

Nlocal:    47.8333 ave 287 max 0 min
Histogram: 5 0 0 0 0 0 0 0 0 1
Nghost:    0 ave 0 max 0 min
Histogram: 6 0 0 0 0 0 0 0 0 0
Neighs:    346.333 ave 2078 max 0 min
Histogram: 5 0 0 0 0 0 0 0 0 1

Total # of neighbors = 2078
Ave neighs/atom = 7.24042
Neighbor list builds = 1881
Dangerous builds = 0

unfix	ins

run	${dischargesteps}
run	90000000
Setting up run at Tue Jun  2 07:01:37 2026

Memory usage per processor = 20.0794 Mbytes
    Step    Atoms         KinEng            CPU 
 2000000      287  1.6125511e-08              0 
 2010000      287  1.8527752e-08      37.288495 
 2020000      287  2.2910498e-08      74.466259 
 2030000      287  4.8025835e-08      111.40465 
 2040000      287  3.0996078e-08      148.35553 
 2050000      287  3.0342625e-07      186.12967 
 2060000      287  2.3731704e-07      223.32822 
 2070000      287  2.0901618e-07      260.80221 
 2080000      286  1.4647653e-07      298.63779 
 2090000      285  3.5578458e-07      336.19458 
 2100000      285  2.8524187e-07      373.21873 
 2110000      285  3.6940317e-07      410.32344 
 2120000      285  2.0581593e-07      447.56381 
 2130000      284  3.1191276e-08      484.37002 
 2140000      284  4.7282638e-08      520.92565 
 2150000      284  8.6881863e-08      557.85347 
 2160000      284  4.9284488e-08      594.34072 
 2170000      284  5.0259536e-08      630.65242 
 2180000      284  1.4932969e-07      667.68137 
 2190000      284  8.5123564e-08      704.36117 
 2200000      284  1.3679608e-07      743.84613 
 2210000      284  1.0164779e-07      780.45136 
 2220000      284  6.1091672e-08      817.54625 
 2230000      284  3.2217141e-08      854.45616 
 2240000      284  4.5207918e-08      890.89154 
 2250000      284  2.1109908e-08      928.17185 
 2260000      284  1.1250594e-07      965.40927 
 2270000      284  9.2775595e-09      1002.1179 
 2280000      284  8.6080392e-09      1039.0562 
 2290000      284  1.5916915e-08      1076.2859 
 2300000      284  1.2481638e-08       1112.977 
 2310000      284  5.6289482e-07      1149.8567 
 2320000      284  4.3600413e-07      1186.2558 
 2330000      284  3.2508526e-07      1222.4434 
 2340000      284  2.6641863e-07      1258.4255 
 2350000      284  2.2001836e-07      1294.9915 
 2360000      283   1.620382e-07      1331.4227 
 2370000      283  1.3753106e-07      1367.7126 
 2380000      283  8.0640537e-08      1404.4579 
 2390000      283  1.7777443e-07      1441.0933 
 2400000      283  1.0657065e-07      1479.6067 
 2410000      283  1.0038634e-07      1515.9942 
 2420000      283  8.8888825e-08      1552.5218 
 2430000      283  1.0559157e-07      1589.5944 
 2440000      283  1.2970632e-07        1626.56 
 2450000      283  1.6846188e-07      1663.5245 
 2460000      282  1.6729668e-07      1700.8417 
 2470000      282  1.9973435e-07      1737.9845 
 2480000      282  2.2104859e-07      1775.0927 
 2490000      282  2.6959975e-07      1812.1299 
 2500000      281  5.1876517e-07      1849.1407 
 2510000      280  7.2723896e-07      1886.0316 
 2520000      280  6.4582065e-07      1922.5567 
 2530000      280  5.0708268e-07      1958.5762 
 2540000      278  2.2362758e-07      1994.9394 
 2550000      277  7.1141012e-08       2031.259 
 2560000      277  5.3566473e-08      2067.5062 
 2570000      277  1.3155563e-07      2103.8462 
 2580000      277  8.8269799e-08       2140.204 
 2590000      277  6.6189601e-08      2176.4348 
 2600000      277  1.4490124e-06      2215.3485 
 2610000      277   6.652037e-07      2251.9101 
 2620000      277    1.36207e-06      2288.4292 
 2630000      277  2.7577085e-07      2325.8945 
 2640000      277  2.0398877e-07      2363.2228 
 2650000      277  2.0037721e-07      2404.0547 
 2660000      277  1.8075199e-07       2441.298 
 2670000      277  1.0412766e-06      2478.9078 
 2680000      277  9.0872944e-07        2516.51 
 2690000      276  1.3069335e-06      2553.4562 
 2700000      275  1.7265008e-05      2589.8122 
 2710000      274  2.5173935e-05      2626.4822 
 2720000      273  3.0722532e-08      2662.8546 
 2730000      273  2.6398619e-08      2699.5808 
 2740000      273  4.7410895e-06       2738.004 
 2750000      272  7.9656973e-07      2775.2523 
 2760000      271  2.0401664e-07      2812.1131 
 2770000      271  1.7757527e-07      2849.3962 
 2780000      271  1.1881086e-07       2885.711 
 2790000      270  4.2085828e-07      2921.5425 
 2800000      270   1.437695e-06      2960.2189 
 2810000      270  6.3681198e-07      2996.4514 
 2820000      270  4.8891027e-07      3032.5559 
 2830000      269  2.1231716e-07      3068.0479 
 2840000      269  1.6988014e-07      3103.7543 
 2850000      269  1.7055333e-07      3139.5887 
 2860000      269  1.5255416e-07      3175.6077 
 2870000      269  1.4486203e-07       3211.772 
 2880000      269  1.3904049e-06      3247.7026 
 2890000      268   1.427018e-05      3284.7202 
 2900000      268  1.1938054e-06      3322.4724 
 2910000      268  1.1608226e-06      3359.1681 
 2920000      266   4.494504e-07      3395.9999 
 2930000      265  3.6794433e-07      3432.2718 
 2940000      264  3.0483108e-07      3468.5343 
 2950000      262  8.4890615e-08      3504.5901 
 2960000      262  1.0946416e-07      3540.3517 
 2970000      262  1.3071717e-07      3576.3338 
 2980000      262  1.6574762e-07      3612.5348 
 2990000      262  1.7933167e-07      3648.4882 
 3000000      262  1.4763414e-06      3687.1954 
 3010000      262  1.2246036e-06      3723.3842 
 3020000      261   1.236832e-06      3759.0156 
 3030000      257  1.9169095e-06      3795.4788 
 3040000      257  8.2671523e-07      3831.6869 
 3050000      256  2.0023842e-07      3867.2704 
 3060000      256  1.6493518e-07      3902.9482 
 3070000      255  1.0486383e-07      3938.9505 
 3080000      255  1.3696287e-07       3975.132 
 3090000      255  9.1393327e-08      4011.4311 
 3100000      255  1.2477197e-07      4047.1803 
 3110000      254  3.3440249e-06      4083.5502 
 3120000      253  9.8815486e-08      4120.7925 
 3130000      253  2.0443981e-07      4156.5534 
 3140000      253  1.2748324e-07      4192.7269 
 3150000      253  1.4655402e-07      4229.1144 
 3160000      253  2.0529862e-07      4265.2799 
 3170000      253  2.2659677e-07      4301.8615 
 3180000      253  2.7097806e-07      4338.3909 
 3190000      251  1.7049412e-07      4374.8162 
 3200000      250  8.0559798e-08      4415.3189 
 3210000      250    1.08927e-07      4451.7798 
 3220000      250  1.0383996e-07      4488.1147 
 3230000      250  1.1758698e-07       4525.178 
 3240000      249  5.7619811e-08      4561.8531 
 3250000      249  4.5932298e-08      4598.2545 
 3260000      249  3.1635907e-08      4634.6428 
 3270000      249  2.6401999e-08      4671.1744 
 3280000      249  1.3396355e-08      4707.5741 
 3290000      249  8.3277619e-09      4744.3021 
 3300000      249  3.9285496e-09      4780.8639 
 3310000      249  4.6398908e-09      4817.2555 
 3320000      249  8.6279706e-09      4853.3273 
 3330000      249  5.3501892e-09      4889.3457 
 3340000      249  8.5339614e-09      4925.4004 
 3350000      249  9.9603858e-09      4961.7802 
 3360000      249  1.3549786e-08      4998.1252 
 3370000      249  1.8988958e-08      5034.4812 
 3380000      249  9.0572098e-07      5071.4123 
 3390000      249  7.3907517e-09      5107.7286 
 3400000      249  7.3208354e-09      5146.5913 
 3410000      249  7.8440683e-09      5182.9594 
 3420000      249  3.5177913e-08      5219.1041 
 3430000      249  4.0333225e-09      5255.1195 
 3440000      249  2.2630853e-09      5291.6396 
 3450000      249  4.9953119e-08      5327.7932 
 3460000      249  9.3773719e-09      5364.0766 
 3470000      249  6.5930804e-09      5400.1095 
 3480000      249  9.3331326e-09      5435.9979 
 3490000      249  5.2752281e-09      5472.5414 
 3500000      249  4.2759178e-09      5509.4106 
 3510000      249  2.6364666e-09      5545.7441 
 3520000      249  1.2988663e-08      5581.8959 
 3530000      249  1.2999991e-08      5618.2143 
 3540000      249  2.4293219e-09      5654.3402 
 3550000      249  3.5290404e-08      5690.6387 
 3560000      249  1.1350788e-07      5727.2463 
 3570000      249  8.5102414e-07      5763.0043 
 3580000      249  1.7209515e-06      5798.7647 
 3590000      249    4.59528e-08      5834.6273 
 3600000      249  2.9782422e-08      5874.7317 
 3610000      249  3.9248595e-07      5915.1717 
 3620000      249  2.5613176e-08      5951.3693 
 3630000      249  2.7489783e-08      5987.4062 
 3640000      249  9.3135061e-09      6023.9687 
 3650000      249  1.3193316e-08      6061.0758 
 3660000      249  1.0106082e-08      6097.7689 
 3670000      249  2.7106446e-08      6134.4457 
 3680000      249  1.7616753e-08      6170.9872 
 3690000      249  2.3642541e-08      6208.0117 
 3700000      249  4.7720986e-08      6244.5038 
 3710000      249  1.7920665e-06      6283.8469 
 3720000      249  1.3249011e-06       6322.868 
 3730000      247  2.6815403e-08       6360.023 
 3740000      247  2.0340383e-08      6396.7585 
 3750000      247  1.3842115e-08      6433.5079 
 3760000      247  2.2525831e-08      6470.6278 
 3770000      247  1.8979391e-07      6506.9318 
 3780000      247  8.2424683e-08      6543.2534 
 3790000      247  4.2045479e-08       6580.048 
 3800000      247  2.9084458e-08      6619.0781 
 3810000      247  2.0413306e-08       6654.799 
 3820000      247  3.0910626e-08      6690.8738 
 3830000      247   4.716112e-08      6726.9282 
 3840000      247  3.0468987e-08      6762.9393 
 3850000      247  4.0025825e-08      6799.6737 
 3860000      247  3.9482275e-08      6836.2973 
 3870000      247  3.1055225e-08      6872.6609 
 3880000      247   2.071246e-08      6909.4428 
 3890000      247  2.1465158e-06      6945.7567 
 3900000      247  2.9244364e-05       6981.965 
 3910000      247  7.3475178e-06      7018.3353 
 3920000      247  2.1358336e-05       7054.471 
 3930000      247  6.1702463e-07      7091.1602 
 3940000      247  4.0349961e-06      7128.5529 
 3950000      246  5.4104773e-07      7166.0174 
 3960000      246  4.3327993e-07        7202.32 
 3970000      246  3.9966271e-07      7238.8533 
 3980000      244  5.0885888e-07      7275.1333 
 3990000      244  4.5914131e-07      7311.4373 
 4000000      242  2.2369759e-07        7349.99 
 4010000      242  1.4589074e-06       7386.831 
 4020000      241  1.8706266e-07      7423.8107 
 4030000      241  1.5118141e-07      7459.7739 
 4040000      240    1.20357e-07      7495.6178 
 4050000      240  9.6573801e-08      7531.9226 
 4060000      240   1.872978e-07      7568.1851 
 4070000      240  1.8186985e-07      7604.7513 
 4080000      240  1.7790308e-07      7640.8981 
 4090000      239  1.6314373e-07      7677.3714 
 4100000      239  1.6831495e-07      7713.6759 
 4110000      239   7.830758e-06      7749.9678 
 4120000      238  3.3670345e-07      7786.3337 
 4130000      238   3.426561e-07      7822.4488 
 4140000      238  3.5597976e-07      7858.5724 
 4150000      235  1.4966548e-07       7895.446 
 4160000      235  8.7094403e-08       7931.829 
 4170000      235  6.7314652e-08      7968.1504 
 4180000      235  1.7521957e-07      8004.2279 
 4190000      235  3.9107401e-07      8040.0545 
 4200000      235  1.9440984e-07      8078.4163 
 4210000      235  4.4778025e-07      8114.7695 
 4220000      235  3.2223724e-07      8150.7128 
 4230000      235   2.524517e-07      8186.5957 
 4240000      235  1.9534652e-07      8222.4549 
 4250000      234  7.5555733e-08      8258.1226 
 4260000      234  4.5442718e-07      8293.6163 
 4270000      234  1.0139338e-07       8329.481 
 4280000      234  4.1347323e-07      8365.7375 
 4290000      234  1.0531259e-07      8401.9685 
 4300000      234  5.5036461e-08      8438.4718 
 4310000      234  5.3607944e-08      8474.7179 
 4320000      234   9.970463e-08      8511.0544 
 4330000      234  1.2356062e-07      8547.4499 
 4340000      234  1.1272717e-07      8583.5688 
 4350000      234  1.2426772e-07      8619.6623 
 4360000      234  1.1221465e-07       8656.199 
 4370000      234  1.4430551e-07      8692.7635 
 4380000      233  5.3835801e-08      8729.5091 
 4390000      233  6.4071026e-08      8766.0462 
 4400000      232   2.220723e-06      8805.4933 
 4410000      232  1.4089159e-05      8842.0551 
 4420000      232  2.9271992e-07      8878.5052 
 4430000      232  2.4533781e-07      8915.6355 
 4440000      232  2.2918076e-07      8952.1137 
 4450000      232  1.9674364e-07      8988.6721 
 4460000      231  3.2395577e-07       9024.906 
 4470000      231  3.4361023e-06      9060.7613 
 4480000      231  1.4228341e-05       9097.067 
 4490000      231  1.9462825e-06      9133.8024 
 4500000      231  3.0304492e-06      9169.9927 
 4510000      230  4.1234417e-08      9207.4756 
 4520000      230  2.5051228e-07      9245.8734 
 4530000      230  7.6238695e-08      9288.2285 
 4540000      230    1.27546e-06      9325.0353 
 4550000      230  5.8995766e-07      9361.7371 
 4560000      230   2.041988e-06      9398.3916 
 4570000      230  1.9430082e-08      9434.9722 
 4580000      230   2.419158e-08      9471.6127 
 4590000      230  2.8870339e-08      9507.7767 
 4600000      230  1.2472009e-08       9546.612 
 4610000      230  1.9455755e-08      9582.7842 
 4620000      230  6.6960731e-08      9618.7162 
 4630000      230  2.3468225e-08      9655.4796 
 4640000      230  2.9991265e-08      9691.9365 
 4650000      230  3.2118942e-08      9728.8239 
 4660000      230  1.9968882e-08      9765.2364 
 4670000      230  4.0043873e-08      9801.8137 
 4680000      230   5.416891e-08      9838.2459 
 4690000      230  5.4641898e-08      9875.6871 
 4700000      230  1.2541596e-06      9916.9153 
 4710000      230  5.2287722e-07      9956.0671 
 4720000      230  1.7452696e-07      9992.1922 
 4730000      230  1.3983384e-07      10027.855 
 4740000      230  3.6969391e-08      10064.168 
 4750000      230  1.4224298e-08      10099.804 
 4760000      230  1.4064127e-08      10136.242 
 4770000      230  1.6131606e-08      10172.336 
 4780000      230   1.150102e-06      10209.023 
 4790000      230  1.3951431e-06       10246.57 
 4800000      229   2.791029e-07      10286.281 
 4810000      229  2.5776962e-07      10323.304 
 4820000      228   8.523484e-07      10359.324 
 4830000      228  3.8019891e-07      10395.923 
 4840000      228  1.9218363e-07      10432.073 
 4850000      228  1.8484275e-07       10467.83 
 4860000      228  1.1699225e-07      10504.623 
 4870000      228  9.0140029e-08      10540.704 
 4880000      228  1.1977821e-07      10576.861 
 4890000      228  1.0553515e-07      10612.966 
 4900000      228  1.8847572e-05      10648.609 
 4910000      228   6.466295e-08      10684.646 
 4920000      228  7.9451407e-08      10721.053 
 4930000      228  6.7410007e-07      10757.367 
 4940000      227  6.1296661e-07      10794.188 
 4950000      227  5.0315929e-07      10830.436 
 4960000      226  2.5343719e-07      10866.309 
 4970000      225  9.0243493e-08      10902.125 
 4980000      225  1.0390013e-06      10938.826 
 4990000      225  9.0490229e-07      10975.498 
 5000000      224  1.0315777e-07      11013.682 
 5010000      224  8.8818008e-08      11049.302 
 5020000      224  1.1098626e-07      11084.823 
 5030000      224  1.1410403e-07      11121.233 
 5040000      223   1.259384e-07      11157.074 
 5050000      222  3.9703361e-08      11193.003 
 5060000      222  5.5357877e-08       11229.13 
 5070000      222  7.1165344e-08      11265.077 
 5080000      222  4.6845184e-07       11300.87 
 5090000      222  1.5194956e-07      11336.796 
 5100000      222  1.2263597e-06       11373.08 
 5110000      222  1.9298526e-07      11409.131 
 5120000      222  2.1324035e-07      11444.628 
 5130000      221  1.2924483e-07      11480.786 
 5140000      220  4.1256374e-07      11517.263 
 5150000      220  3.1448515e-07      11553.464 
 5160000      220  1.8535379e-07      11589.586 
 5170000      220  1.8240155e-07       11625.42 
 5180000      219  3.2058422e-08       11661.24 
 5190000      219  3.0706914e-08      11696.868 
 5200000      219  1.6453506e-08      11735.437 
 5210000      219  3.3555451e-07      11771.291 
 5220000      219  3.0059378e-07      11807.384 
 5230000      219  2.8171889e-07      11843.633 
 5240000      218  3.5983307e-07      11879.765 
 5250000      218  1.9722272e-07      11915.388 
 5260000      218  2.2590021e-07      11951.316 
 5270000      218  3.4115556e-07      11987.088 
 5280000      217  9.5479671e-08      12022.772 
 5290000      217  2.8016702e-07      12058.206 
 5300000      217  6.1997003e-07      12093.906 
 5310000      217  2.9067236e-07      12129.149 
 5320000      217  2.1375627e-07      12164.207 
 5330000      216  7.4073137e-07      12200.212 
 5340000      215   5.999628e-08      12236.562 
 5350000      215  1.2940761e-05      12272.393 
 5360000      215  4.6118072e-07      12307.844 
 5370000      215  1.2271674e-05      12343.032 
 5380000      215  6.9215606e-08      12378.431 
 5390000      215  5.4764189e-08      12414.992 
 5400000      215  7.5238427e-08      12453.146 
 5410000      215  1.3197441e-07      12488.708 
 5420000      214  2.7546441e-08      12523.859 
 5430000      214  7.7818211e-08      12559.324 
 5440000      214  8.1503636e-08      12594.604 
 5450000      214  6.6641927e-08      12629.758 
 5460000      214  2.8584891e-08      12665.176 
 5470000      214  4.9851116e-08      12700.715 
 5480000      214   1.745619e-06      12738.053 
 5490000      213  2.1201901e-06      12773.924 
 5500000      212  5.3952265e-08       12812.31 
 5510000      212  2.7252826e-08      12849.324 
 5520000      212  2.4246267e-08      12888.989 
 5530000      212  1.0534959e-08      12924.178 
 5540000      212  1.2022545e-08      12959.188 
 5550000      212  1.4077432e-08      12994.337 
 5560000      212   3.224521e-08      13029.619 
 5570000      212     5.4266e-07      13064.642 
 5580000      212   1.995599e-08      13100.156 
 5590000      212  2.5843375e-08      13135.438 
 5600000      212   2.697248e-08      13173.122 
 5610000      212  1.7236258e-07      13208.463 
 5620000      212  1.5330875e-08      13244.044 
 5630000      212  1.7540763e-08      13279.771 
 5640000      212  5.7222021e-09        13315.3 
 5650000      212  1.0467006e-08      13350.612 
 5660000      212  4.0426953e-09      13386.092 
 5670000      212  1.6434911e-09      13421.487 
 5680000      212  7.1584364e-07      13456.927 
 5690000      212  4.6807592e-09      13492.494 
 5700000      212  1.8991655e-08      13528.331 
 5710000      212  1.7608398e-08      13563.745 
 5720000      212  4.7345915e-08      13599.261 
 5730000      212  4.4891054e-07      13634.588 
 5740000      212  2.2889927e-08      13669.675 
 5750000      212  5.1159952e-06      13706.044 
 5760000      211  2.9657796e-08      13742.734 
 5770000      211  2.9437969e-08      13777.904 
 5780000      211  2.7114651e-08      13813.344 
 5790000      211  2.0481711e-08      13849.071 
 5800000      211  2.3732521e-08      13886.705 
 5810000      211  1.3640941e-08      13922.419 
 5820000      211  1.4764108e-07      13957.983 
 5830000      211  1.6454981e-07      13992.836 
 5840000      211  1.0061526e-07      14027.857 
 5850000      211  5.3067865e-08      14062.937 
 5860000      211  2.9494581e-08      14099.623 
 5870000      211   2.323819e-08      14134.835 
 5880000      211   2.026065e-08       14170.47 
 5890000      211  4.7548922e-08       14205.83 
 5900000      211  2.5902189e-08      14241.332 
 5910000      211  2.8264076e-08      14276.602 
 5920000      211  4.0949357e-08      14312.286 
 5930000      211  5.5936063e-08      14347.916 
 5940000      211  3.3195355e-08      14383.564 
 5950000      211  3.3640094e-08      14418.942 
 5960000      211  4.6751615e-08      14454.207 
 5970000      211  4.4495763e-08      14491.204 
 5980000      211  8.3474583e-08       14526.73 
 5990000      211  7.7276143e-08      14562.342 
 6000000      211  7.4998498e-08      14600.369 
 6010000      211  9.0471223e-08      14636.048 
 6020000      211  1.0372381e-07      14671.986 
 6030000      210  5.6775568e-09      14707.656 
 6040000      210  1.9048293e-09      14743.056 
 6050000      210  2.1822306e-09      14778.559 
 6060000      210   9.442504e-09      14813.635 
 6070000      210     6.6397e-09      14849.416 
 6080000      210  1.3144432e-08      14884.674 
 6090000      210  5.3476329e-09      14919.772 
 6100000      210  5.1356944e-09      14955.108 
 6110000      210  5.4556807e-07      14990.561 
 6120000      210  4.7997182e-07      15026.145 
 6130000      210  4.5188445e-07      15061.842 
 6140000      209   2.059585e-07      15098.752 
 6150000      209  1.7157521e-07      15133.963 
 6160000      208  8.1421586e-08      15168.816 
 6170000      208  7.0684996e-08      15203.777 
 6180000      207  3.3293183e-08      15239.056 
 6190000      207  1.4619785e-07      15274.265 
 6200000      206  1.3188187e-07      15312.276 
 6210000      206  6.8619294e-08      15347.692 
 6220000      206  6.1433463e-08      15383.328 
 6230000      206  4.0561908e-08       15419.12 
 6240000      206  4.7821066e-08      15454.543 
 6250000      206  2.4398458e-08      15489.312 
 6260000      206  6.3694167e-07      15525.508 
 6270000      206  1.4656437e-08      15560.725 
 6280000      206  1.7093167e-08       15596.01 
 6290000      206  1.4032996e-08      15631.167 
 6300000      206  3.8050182e-08      15665.685 
 6310000      206  5.2264324e-06      15700.729 
 6320000      206  3.5448396e-06       15734.62 
 6330000      204  1.9863836e-06       15769.38 
 6340000      201  9.4062425e-07      15803.388 
 6350000      200  5.8717605e-07      15837.014 
 6360000      198  4.0296669e-07       15870.76 
 6370000      196   1.098557e-06      15906.386 
 6380000      193  4.1475526e-07      15942.333 
 6390000      193  4.2942263e-06      15976.883 
 6400000      193  3.8430826e-06      16017.562 
 6410000      190  5.5107798e-06      16061.022 
 6420000      188  8.7331306e-07      16101.332 
 6430000      187  5.0220577e-07      16139.686 
 6440000      186  3.9229951e-07      16175.385 
 6450000      183  2.6966958e-07      16210.452 
 6460000      183  3.3944122e-07      16244.314 
 6470000      183  3.7327343e-07      16278.128 
 6480000      183  3.8530574e-07       16313.02 
 6490000      183  4.4766259e-07      16347.213 
 6500000      181  3.5300248e-07      16381.573 
 6510000      179  1.8772484e-07      16416.021 
 6520000      178  7.8027886e-08      16450.323 
 6530000      178  8.6205079e-08      16486.258 
 6540000      178  8.6310479e-08      16523.497 
 6550000      178  8.5852897e-08      16560.711 
 6560000      178   1.836463e-07      16595.193 
 6570000      178  1.6600005e-07      16629.811 
 6580000      177  4.8980921e-07       16665.06 
 6590000      177  4.6689735e-07      16699.962 
 6600000      176   1.076911e-07      16737.979 
 6610000      175  4.6066682e-06      16775.683 
 6620000      174  1.6722988e-06      16810.315 
 6630000      173  7.8851208e-07      16845.335 
 6640000      170  2.4028636e-07        16882.7 
 6650000      170  2.3066446e-07      16917.548 
 6660000      168  8.5490834e-08      16951.921 
 6670000      167  5.1202593e-08      16986.382 
 6680000      167  1.9552368e-07      17020.211 
 6690000      167  7.8308607e-08      17056.242 
 6700000      167  8.8947098e-08      17091.051 
 6710000      167  8.4104261e-08      17125.362 
 6720000      167  1.1339046e-07      17161.199 
 6730000      167  1.6834693e-07      17195.062 
 6740000      166  2.7623268e-06      17229.544 
 6750000      166  1.8981058e-06      17264.694 
 6760000      164  7.3149055e-07      17299.138 
 6770000      164  8.4038149e-08       17332.53 
 6780000      164  9.6343413e-08      17366.066 
 6790000      163  1.0423688e-07      17399.766 
 6800000      163  7.0491154e-08      17435.864 
 6810000      163  5.9659015e-08      17469.521 
 6820000      163  4.0101705e-08      17502.964 
 6830000      163  3.0527338e-08       17537.45 
 6840000      163  1.8543999e-08      17571.213 
 6850000      163  6.8570068e-08      17604.894 
 6860000      163  3.1080396e-08      17638.447 
 6870000      163  8.1126048e-09      17672.017 
 6880000      163  9.1650324e-09      17706.422 
 6890000      163  1.6156974e-08       17739.79 
 6900000      163  1.7015862e-08      17773.362 
 6910000      163  2.6410056e-08      17807.555 
 6920000      163  1.8804276e-08      17841.096 
 6930000      163  2.7724003e-08      17874.814 
 6940000      163   1.373989e-06      17909.976 
 6950000      162  3.1697608e-07      17944.738 
 6960000      162  2.4550002e-07       17978.49 
 6970000      161  7.1504402e-08      18012.755 
 6980000      161  1.4708007e-07      18048.147 
 6990000      160  1.5579506e-08      18082.126 
 7000000      160  1.6033464e-08       18118.16 
 7010000      160  1.6120375e-08      18155.526 
 7020000      160  1.6089886e-08      18196.825 
 7030000      160  1.0318171e-08      18230.716 
 7040000      160  6.0525447e-09       18266.02 
 7050000      160  6.9220002e-09      18302.037 
 7060000      160   1.697583e-07      18336.049 
 7070000      160  3.2197932e-08       18370.95 
 7080000      160  1.4265752e-08      18404.909 
 7090000      160  1.2259072e-07       18439.95 
 7100000      160  7.7098064e-08      18474.155 
 7110000      160  2.8287756e-08      18508.808 
 7120000      160  2.6103232e-08      18543.519 
 7130000      160  1.3852654e-08      18578.083 
 7140000      160  1.5310346e-08      18612.726 
 7150000      160  3.2159996e-06      18648.486 
 7160000      159  6.9471372e-07      18683.904 
 7170000      159  1.1563749e-05      18720.222 
 7180000      158   4.030111e-07      18755.268 
 7190000      157  3.0202372e-08      18789.612 
 7200000      157  3.1318529e-08       18825.48 
 7210000      157  3.4673189e-08        18859.1 
 7220000      157  8.8496546e-09      18893.042 
 7230000      157  8.1342303e-09       18927.17 
 7240000      157  3.2963274e-08      18960.364 
 7250000      157  1.1779691e-08      18993.876 
 7260000      157  1.0349147e-08      19027.751 
 7270000      157  1.1553929e-08      19061.669 
 7280000      157  1.4975103e-08      19095.799 
 7290000      157  4.9393659e-07      19129.367 
 7300000      157   8.688872e-09      19162.825 
 7310000      157  1.7148828e-06      19196.987 
 7320000      157  1.6052191e-06      19231.816 
 7330000      154  2.0149762e-08      19267.081 
 7340000      154   2.745156e-08      19300.678 
 7350000      154  4.5622601e-08       19334.82 
 7360000      154  2.8003103e-08          19368 
 7370000      154  3.0329333e-08      19401.913 
 7380000      154   2.114685e-08      19435.428 
 7390000      154  5.5171239e-08      19468.735 
 7400000      154  3.9967433e-07      19504.725 
 7410000      154  5.6309375e-08      19538.015 
 7420000      154  3.6166849e-08      19571.506 
 7430000      154  2.7312228e-08      19605.428 
 7440000      154  2.4195054e-08       19639.03 
 7450000      154  1.4382616e-08      19672.305 
 7460000      154  2.5995613e-08      19705.662 
 7470000      154  2.6933681e-08      19738.824 
 7480000      154  1.7749164e-08      19772.318 
 7490000      154   1.150139e-08      19806.403 
 7500000      154  2.1778058e-08      19839.762 
 7510000      154  4.8287498e-09      19873.212 
 7520000      154   7.186668e-09      19906.662 
 7530000      154  1.9356003e-08      19940.059 
 7540000      154  4.0004264e-09       19973.27 
 7550000      154  5.9467415e-08      20006.754 
 7560000      154  1.8598363e-07      20040.205 
 7570000      154  3.9619359e-08      20073.661 
 7580000      154  4.8629266e-08        20107.5 
 7590000      154  3.4003307e-08      20141.107 
 7600000      154  8.9385066e-07      20177.276 
 7610000      154  9.7851272e-07      20211.719 
 7620000      154  5.5704781e-07      20245.598 
 7630000      153  3.8378313e-07       20279.79 
 7640000      153  2.0788048e-07      20315.129 
 7650000      153  1.7311473e-07      20351.568 
 7660000      151  4.0830825e-08      20388.136 
 7670000      151  4.6527982e-08      20421.162 
 7680000      151  3.5549384e-08      20455.538 
 7690000      151  3.3700519e-08      20489.826 
 7700000      151  3.9398399e-08      20524.584 
 7710000      151  4.4583337e-07      20558.711 
 7720000      151  5.2864297e-08      20592.198 
 7730000      151  4.5346269e-08      20626.179 
 7740000      151  3.3640473e-06      20662.309 
 7750000      151  5.3413732e-07      20700.166 
 7760000      151  8.3633459e-07      20740.125 
 7770000      151  2.9436256e-07      20774.044 
 7780000      151  3.0554477e-07      20808.243 
 7790000      151  2.5501452e-07      20842.147 
 7800000      151  2.0604172e-07      20878.063 
 7810000      150   9.630822e-08      20911.459 
 7820000      150  1.7136846e-07      20945.447 
 7830000      150  8.2868796e-08      20979.289 
 7840000      150  1.0915275e-07      21012.625 
 7850000      149   2.137153e-07      21047.598 
 7860000      149  1.3483976e-07      21081.295 
 7870000      149  9.5897264e-08      21114.908 
 7880000      149  7.1496022e-08      21148.759 
 7890000      149  1.0715319e-07      21181.992 
 7900000      149  7.3878874e-08      21215.465 
 7910000      149  1.0340615e-07      21249.092 
 7920000      148  5.2070794e-08      21283.789 
 7930000      148  1.9715701e-08      21317.885 
 7940000      148     1.3158e-08      21351.001 
 7950000      148  2.0385513e-08      21384.443 
 7960000      148  1.3689544e-08      21418.564 
 7970000      148  4.2546774e-08      21452.074 
 7980000      148  6.5150048e-08      21485.625 
 7990000      148  4.1630723e-08      21518.648 
 8000000      148  2.8413266e-08      21554.846 
 8010000      148   2.005159e-08      21588.208 
 8020000      148  1.5095482e-08      21621.694 
 8030000      148  1.1711514e-08      21655.197 
 8040000      148  1.7857931e-08      21689.016 
 8050000      148  1.1604923e-08      21722.366 
 8060000      148  1.1822462e-08      21755.718 
 8070000      148   3.128418e-08      21789.094 
 8080000      148  4.5263762e-08      21822.287 
 8090000      148  3.0975365e-08      21855.527 
 8100000      148  8.2390245e-08      21889.906 
 8110000      148  6.0884341e-08      21925.517 
 8120000      148  1.3697925e-07        21961.2 
 8130000      148  9.0372654e-08       21994.81 
 8140000      148  4.9188201e-08      22027.653 
 8150000      148  1.9343353e-08      22060.511 
 8160000      148  1.3170663e-08      22093.573 
 8170000      148  1.8757365e-08      22126.423 
 8180000      148   1.897829e-08      22159.414 
 8190000      148  5.4092596e-06      22193.324 
 8200000      148  2.4573224e-08      22229.366 
 8210000      148  1.9349542e-08      22262.602 
 8220000      148  2.9044085e-08      22296.609 
 8230000      148  5.1367578e-08        22330.2 
 8240000      148   2.460679e-08      22364.672 
 8250000      148  2.0826097e-08      22398.446 
 8260000      148  4.6377475e-07      22432.525 
 8270000      148  4.2578795e-07       22466.57 
 8280000      147    1.62876e-08      22500.264 
 8290000      147  1.2041181e-08      22533.586 
 8300000      147  9.2356711e-09      22566.668 
 8310000      147  1.0490719e-08      22599.543 
 8320000      147  1.4595507e-08      22633.099 
 8330000      147  4.7718579e-08        22666.4 
 8340000      147  7.2692008e-06      22699.681 
 8350000      147  1.0929868e-05      22733.017 
 8360000      147  2.7376543e-07      22765.956 
 8370000      147  8.9969758e-09      22798.809 
 8380000      147  2.6901225e-09      22831.907 
 8390000      147  2.7903982e-09      22865.167 
 8400000      147  3.4856687e-09      22902.377 
 8410000      147  4.2727895e-09      22936.503 
 8420000      147  1.3963446e-08      22970.418 
 8430000      147  5.4575811e-07      23004.687 
 8440000      147  5.0250431e-07      23039.212 
 8450000      146  7.9581007e-09      23073.259 
 8460000      146  8.2895088e-08       23106.92 
 8470000      146  6.2341054e-08      23141.166 
 8480000      146  5.3156033e-07      23174.954 
 8490000      146  7.5249015e-08      23209.282 
 8500000      146   1.333484e-08      23242.892 
 8510000      146  2.9036282e-06      23278.811 
 8520000      146  4.9447603e-07      23313.083 
 8530000      145  8.3614087e-09      23346.418 
 8540000      145    2.15624e-08      23380.313 
 8550000      145  4.3089888e-07      23414.485 
 8560000      145  2.3619863e-07      23448.051 
 8570000      145   3.366024e-07       23481.37 
 8580000      145  1.9174284e-07      23515.767 
 8590000      144  2.0538771e-08      23549.427 
 8600000      144  1.7987688e-08      23586.928 
 8610000      144  2.4863997e-08      23621.473 
 8620000      144  2.8947999e-08      23655.488 
 8630000      144  1.2755145e-08      23689.429 
 8640000      144  3.0690395e-06      23723.245 
 8650000      144  1.5494403e-06       23758.42 
 8660000      143  5.8126303e-07      23792.956 
 8670000      141  2.0764839e-08      23826.318 
 8680000      141  2.0578765e-08      23859.145 
 8690000      141  1.4223687e-08       23893.39 
 8700000      141  2.3790897e-08      23928.127 
 8710000      141  8.1870427e-09      23965.128 
 8720000      141  1.9524336e-08      23998.238 
 8730000      141  1.0505048e-08      24032.734 
 8740000      141  2.3487775e-06      24065.511 
 8750000      141  1.2495699e-05      24098.746 
 8760000      141  3.5734962e-07      24133.554 
 8770000      141  1.9921013e-08      24166.652 
 8780000      141  1.4339047e-05      24200.992 
 8790000      139  5.0232229e-06      24236.185 
 8800000      137  8.4599642e-07      24275.314 
 8810000      136   3.219552e-08      24309.652 
 8820000      136  1.5514765e-08      24342.209 
 8830000      136   1.853397e-07      24374.617 
 8840000      136  5.6062651e-09      24406.725 
 8850000      136  4.8402846e-09      24438.849 
 8860000      136  9.6732564e-09      24471.087 
 8870000      136  1.8186906e-08      24504.374 
 8880000      136  7.9409813e-08      24537.685 
 8890000      136  5.0468587e-07      24570.821 
 8900000      136  3.4354012e-07      24604.052 
 8910000      136  2.7721526e-07      24637.064 
 8920000      136  2.6348839e-07      24670.157 
 8930000      135  6.5766963e-08      24702.662 
 8940000      135   7.589362e-08      24735.335 
 8950000      135   5.817309e-07      24767.897 
 8960000      135  7.5271599e-07      24800.531 
 8970000      134  5.0258087e-06        24833.3 
 8980000      134  6.5179107e-08      24865.664 
 8990000      134  4.5519278e-07      24902.208 
 9000000      134  1.3008901e-08      24937.267 
 9010000      134  1.2411217e-08      24969.711 
 9020000      134  1.6986827e-08      25002.529 
 9030000      134  2.3750956e-08      25035.133 
 9040000      134  1.8932414e-08      25067.897 
 9050000      134  2.5324847e-08      25100.636 
 9060000      134  4.6685109e-08       25135.29 
 9070000      134  3.4078175e-08      25168.862 
 9080000      134  1.2083459e-08      25201.434 
 9090000      134  1.2759717e-08      25234.032 
 9100000      134   9.758616e-09      25266.638 
 9110000      134  2.0757116e-08       25299.68 
 9120000      134  8.0049742e-09      25332.544 
 9130000      134  8.7773446e-09       25365.38 
 9140000      134  7.8848352e-09      25398.004 
 9150000      134  8.8830171e-09       25430.56 
 9160000      134  2.9886055e-06      25463.562 
 9170000      134  2.3414052e-08      25496.345 
 9180000      134  5.2384468e-09      25528.743 
 9190000      134  1.2250846e-08      25562.614 
 9200000      134  8.7525993e-09      25597.831 
 9210000      134  1.3364035e-08      25630.251 
 9220000      134  3.5694806e-07      25662.691 
 9230000      134  7.1393055e-09      25694.769 
 9240000      134  7.3633901e-09      25727.016 
 9250000      134  2.7187563e-08      25759.368 
 9260000      134  8.7016495e-09      25791.236 
 9270000      134  1.0277202e-08      25823.196 
 9280000      134  1.5730995e-08      25855.177 
 9290000      134  1.2249333e-08      25887.602 
 9300000      134  6.3505535e-08      25920.093 
 9310000      134  1.0183988e-08      25952.382 
 9320000      134  8.5265984e-09       25984.57 
 9330000      134  7.4726528e-09      26016.936 
 9340000      134   2.241411e-08      26049.341 
 9350000      134  3.4442736e-08      26081.953 
 9360000      134  2.7575885e-08        26115.7 
 9370000      134  6.3756214e-06      26148.647 
 9380000      134  3.5256318e-07      26181.131 
 9390000      134  1.7032241e-08       26214.83 
 9400000      134  4.5164675e-09      26250.502 
 9410000      134  6.1785397e-07      26282.656 
 9420000      134  9.5515176e-09      26316.826 
 9430000      134  7.2023337e-09      26350.146 
 9440000      134  1.1435693e-08      26382.704 
 9450000      134  4.4885907e-09      26416.208 
 9460000      134  5.2387722e-09      26449.046 
 9470000      134  8.4907376e-09      26482.428 
 9480000      134  4.1731438e-08      26515.127 
 9490000      134  4.1248282e-08      26548.163 
 9500000      134  4.9753447e-08      26581.401 
 9510000      134  1.1615713e-08      26614.282 
 9520000      134  7.3281274e-08      26647.143 
 9530000      134  4.2362577e-08      26681.661 
 9540000      134  3.1175912e-08      26714.372 
 9550000      134  1.8771538e-08      26747.869 
 9560000      134  8.7313337e-09      26781.312 
 9570000      134  1.1901013e-07      26814.053 
 9580000      134    1.46678e-07      26847.081 
 9590000      134  9.8982001e-08      26881.614 
 9600000      134  8.4089859e-08       26917.23 
 9610000      134  5.6321197e-08      26949.689 
 9620000      134  4.7121983e-08      26982.236 
 9630000      134  3.5785932e-08      27014.715 
 9640000      134   3.716401e-08      27047.505 
 9650000      134  3.3981369e-08      27079.967 
 9660000      134  2.4430672e-08      27112.678 
 9670000      134  7.8021619e-07      27147.167 
 9680000      134  4.5244057e-07      27180.821 
 9690000      134  3.1986111e-07      27214.277 
 9700000      134  2.5214095e-07      27247.782 
 9710000      133  2.1364456e-06      27280.915 
 9720000      132   6.961835e-08      27315.172 
 9730000      132  5.3449603e-08      27351.906 
 9740000      132  5.0750273e-08      27384.706 
 9750000      132   3.932536e-08      27417.871 
 9760000      131  3.0811581e-08      27450.815 
 9770000      131  3.9882536e-08      27483.946 
 9780000      131  4.9425105e-08      27517.351 
 9790000      130  2.6874016e-07      27549.909 
 9800000      130  6.7791853e-08      27584.772 
 9810000      130  7.6810392e-08      27618.489 
 9820000      130    1.03473e-07      27651.963 
 9830000      129   6.240127e-08      27686.457 
 9840000      129  1.5099435e-07      27720.759 
 9850000      129  1.2532365e-07        27755.2 
 9860000      129   1.365665e-07      27788.594 
 9870000      128  2.7274956e-08      27821.327 
 9880000      128  1.0593123e-08      27854.312 
 9890000      128  1.2707876e-08      27887.392 
 9900000      128  6.3208993e-09      27919.652 
 9910000      128  2.4081238e-07      27952.858 
 9920000      128  3.2296793e-08      27986.173 
 9930000      128  4.7186124e-07      28021.094 
 9940000      128  2.0084368e-07      28054.771 
 9950000      128  1.8265379e-07      28087.804 
 9960000      127   6.616813e-05      28121.901 
 9970000      127  7.6921955e-07       28155.55 
 9980000      127  2.1940962e-08      28189.382 
 9990000      127  2.6644274e-07      28222.451 
10000000      127  3.0313397e-08      28259.546 
10010000      127  2.8036331e-08      28292.849 
10020000      127  9.9983409e-09      28326.052 
10030000      127  6.9288032e-09      28359.017 
10040000      127   1.059512e-07      28391.942 
10050000      127  2.6467828e-08       28426.02 
10060000      127  1.8894797e-08      28459.637 
10070000      127  4.8024378e-08      28494.195 
10080000      127  3.9524394e-08      28527.876 
10090000      127  1.4710678e-08      28561.296 
10100000      127  2.7604201e-07       28595.21 
10110000      127  1.9190571e-07      28628.297 
10120000      127   2.205681e-07      28661.605 
10130000      127  2.3426043e-07      28694.696 
10140000      127   1.631936e-07      28727.454 
10150000      126  7.6294161e-08      28760.635 
10160000      126  7.1893386e-08      28793.703 
10170000      126  6.0098751e-08      28826.159 
10180000      126  4.9572656e-08      28858.887 
10190000      126  4.3621798e-08      28891.607 
10200000      126  3.7578447e-06      28928.303 
10210000      125  2.3138614e-08      28961.132 
10220000      124  1.3306077e-06      28995.821 
10230000      124  7.1464078e-09      29029.136 
10240000      124  2.0907508e-08      29062.432 
10250000      124  1.8252685e-08      29095.712 
10260000      124  5.1595912e-06      29128.068 
10270000      124   1.352032e-07       29161.49 
10280000      124  7.6748293e-08      29194.295 
10290000      124  4.7374345e-08      29227.628 
10300000      124  2.6213585e-08      29259.994 
10310000      124   1.592115e-08      29292.536 
10320000      124  7.0793986e-09      29324.332 
10330000      124  8.4914012e-09      29356.722 
10340000      124  1.3712826e-08      29390.679 
10350000      124   2.197139e-08      29423.157 
10360000      124  2.3506945e-08      29455.242 
10370000      124   2.977968e-08      29487.563 
10380000      124  7.3459283e-07      29521.887 
10390000      124  3.7215444e-08      29555.323 
10400000      124  8.0186811e-09       29590.65 
10410000      124  8.4360222e-09       29623.86 
10420000      124  9.9064639e-09      29656.221 
10430000      124  2.3456689e-08      29689.234 
10440000      124  2.2553687e-09       29722.78 
10450000      124  4.7255201e-08      29755.367 
10460000      124  5.3098808e-09      29787.576 
10470000      124  3.1129787e-09      29819.653 
10480000      124  2.7441915e-09      29853.726 
10490000      124   9.440633e-09      29887.128 
10500000      124  7.3774615e-09      29919.385 
10510000      124  9.0445862e-09      29951.666 
10520000      124  6.4860674e-09       29984.72 
10530000      124  2.1368441e-09      30017.378 
10540000      124  4.8109582e-09      30050.829 
10550000      124  1.3383805e-05      30083.549 
10560000      124   6.657213e-07      30115.627 
10570000      124  4.9745934e-09      30148.045 
10580000      124  2.2496519e-09      30181.568 
10590000      124  1.1662044e-06      30214.267 
10600000      124  1.6083425e-06      30249.658 
10610000      124  1.3168384e-06      30283.461 
10620000      122   5.583024e-07      30316.125 
10630000      121   3.380082e-07      30350.445 
10640000      120  1.8335328e-07      30388.461 
10650000      118  1.0900658e-07      30435.261 
10660000      118  1.3702562e-07      30468.269 
10670000      117  1.0251798e-07      30502.092 
10680000      117  2.9776023e-08      30531.887 
10690000      117  2.3403914e-08       30561.42 
10700000      117  2.4615256e-08      30590.247 
10710000      117  2.7818203e-08       30618.81 
10720000      117  3.4576621e-08      30648.536 
10730000      117  5.2165034e-08      30677.665 
10740000      117  2.1773086e-07      30707.115 
10750000      117  1.7547171e-07      30736.661 
10760000      117  1.5408574e-07       30765.16 
10770000      117  2.1836494e-07      30794.281 
10780000      117  1.4068898e-07      30823.126 
10790000      117  1.3600788e-07      30852.495 
10800000      116  3.2137619e-07       30884.74 
10810000      116  3.4230687e-08      30913.576 
10820000      116  2.7216902e-08      30943.362 
10830000      115  1.7208511e-08      30973.354 
10840000      115  5.8323006e-09      31005.512 
10850000      115   7.443729e-09      31034.113 
10860000      115  2.1354578e-08      31062.347 
10870000      115  1.3550882e-08      31091.421 
10880000      115  1.8534989e-08      31120.713 
10890000      115  1.7240037e-08      31149.351 
10900000      115  1.0928695e-07      31177.838 
10910000      115  3.4236978e-09      31206.161 
10920000      115  2.3023141e-09      31236.361 
10930000      115  2.8298164e-09      31265.574 
10940000      115  2.8344897e-08       31295.05 
10950000      115  5.6329833e-09      31324.153 
10960000      115  3.7419868e-09      31354.933 
10970000      115  6.5009043e-09       31384.73 
10980000      115  1.0703271e-08      31413.686 
10990000      115  6.6651253e-09       31442.94 
11000000      115  9.2674285e-09      31478.891 
11010000      115  4.5209498e-09      31511.817 
11020000      115  5.4538523e-09      31540.518 
11030000      115  2.4365846e-09      31570.022 
11040000      115  2.3227152e-09      31598.506 
11050000      115  2.4499202e-09      31626.974 
11060000      115  1.4893883e-07       31655.41 
11070000      115  1.9277652e-08      31683.488 
11080000      115  8.0233646e-09      31711.906 
11090000      115  7.4226494e-09      31740.743 
11100000      115  1.0400785e-08      31769.148 
11110000      115  1.1946109e-08      31797.503 
11120000      115  7.8163883e-07      31826.379 
11130000      115  7.2686223e-07      31855.662 
11140000      114  1.1594529e-08      31884.112 
11150000      114  7.9756604e-09      31912.258 
11160000      114  1.9795555e-06      31940.685 
11170000      114  1.6451897e-06      31968.923 
11180000      114  6.1625305e-06      31997.289 
11190000      114  5.6092303e-09      32025.606 
11200000      114  5.0567834e-09      32057.434 
11210000      114  1.8948383e-08      32086.772 
11220000      114  4.6758065e-08      32114.736 
11230000      114  1.2531705e-08      32143.107 
11240000      114  7.6195211e-09      32171.242 
11250000      114  1.5873065e-07      32199.305 
11260000      114  4.5613216e-08      32227.442 
11270000      114  1.1708163e-07      32255.879 
11280000      114  1.2481272e-07      32284.458 
11290000      114  9.3136327e-08      32313.983 
11300000      114  5.8845767e-08      32342.594 
11310000      114  4.5462914e-08      32370.683 
11320000      114  4.6998088e-08      32398.721 
11330000      114  3.0159699e-08      32426.616 
11340000      114   2.290246e-08      32455.433 
11350000      113  9.9903047e-09      32483.655 
11360000      113   1.039926e-08      32511.564 
11370000      113  7.4154818e-09      32539.482 
11380000      113  3.3010184e-08      32567.705 
11390000      113  3.2106029e-09       32595.73 
11400000      113  2.4694268e-09      32626.484 
11410000      113  7.4665733e-06      32655.357 
11420000      113  8.5017577e-08      32684.286 
11430000      113  7.9559372e-08      32712.708 
11440000      113  3.2275276e-06      32741.287 
11450000      113  2.3664766e-07       32770.24 
11460000      113  2.0713562e-07      32799.391 
11470000      113  2.2197401e-07      32828.451 
11480000      112  1.2277237e-08      32856.712 
11490000      112  1.1404864e-07      32885.517 
11500000      112  8.5532002e-08      32913.582 
11510000      112  5.7420775e-08      32941.475 
11520000      112  1.1605741e-07      32969.958 
11530000      112  2.2526928e-07      33000.168 
11540000      112  1.0097945e-07      33028.848 
11550000      112  9.7755914e-08      33056.863 
11560000      112  9.6004097e-08      33086.036 
11570000      112  1.1236261e-07       33115.82 
11580000      111  6.4352734e-08      33144.692 
11590000      111  1.2253776e-07      33173.343 
11600000      111  1.4077452e-07      33204.544 
11610000      111  7.2354767e-07      33232.821 
11620000      111  1.7552829e-07      33261.444 
11630000      111   1.538759e-07      33290.558 
11640000      110   5.675104e-08       33318.82 
11650000      110  6.2429851e-08      33347.375 
11660000      110  8.1621318e-08      33375.365 
11670000      110  1.0553025e-07      33403.385 
11680000      110  1.2878243e-07      33431.714 
11690000      110  1.5669528e-07      33460.333 
11700000      110  2.1819769e-07      33488.717 
11710000      109  9.1971773e-08      33517.062 
11720000      109  1.2805118e-07      33545.334 
11730000      108  7.3681159e-09      33573.393 
11740000      108  5.2133686e-09      33601.417 
11750000      108  4.6774943e-09      33629.344 
11760000      108  3.6217297e-09      33657.274 
11770000      108  6.4592411e-09       33685.03 
11780000      108  4.5087786e-09      33712.965 
11790000      108  3.6169415e-09      33741.155 
11800000      108  1.8674546e-09      33771.632 
11810000      108  2.2401289e-09      33799.812 
11820000      108  8.0972543e-08      33827.722 
11830000      108  2.8035845e-07      33855.667 
11840000      108  6.6994207e-07       33885.14 
11850000      108  2.3894419e-07      33913.591 
11860000      108  1.9840327e-07      33942.288 
11870000      108  1.6859181e-07      33970.791 
11880000      107  1.2612811e-08      33999.182 
11890000      107  1.0468156e-08      34027.716 
11900000      107  5.9344519e-09      34055.638 
11910000      107  8.0662031e-09      34083.702 
11920000      107  6.6613885e-09      34112.053 
11930000      107  2.7563931e-08      34139.811 
11940000      107  1.6286428e-08      34167.792 
11950000      107  2.6335433e-08      34195.877 
11960000      107  2.7188265e-08      34224.248 
11970000      107  4.2504082e-06      34252.965 
11980000      107  4.8114943e-07      34281.379 
11990000      107  5.4908822e-08      34309.828 
12000000      107  7.0761293e-08      34340.952 
12010000      107  8.1824426e-08      34369.419 
12020000      107  1.0309472e-07      34398.036 
12030000      106     1.8977e-08      34426.149 
12040000      106  4.8035557e-08      34455.557 
12050000      106  8.4383387e-09      34484.412 
12060000      106  6.4309635e-09      34512.473 
12070000      106  2.5847838e-09      34541.425 
12080000      106   1.749679e-09      34570.395 
12090000      106   1.407699e-07       34598.74 
12100000      106  9.7486693e-09          34627 
12110000      106  3.6712958e-07      34656.103 
12120000      106  6.3579106e-08      34686.493 
12130000      106  3.8901891e-08      34718.095 
12140000      106   3.068974e-08      34747.328 
12150000      106  4.1886703e-07      34776.371 
12160000      106    3.46007e-07       34805.25 
12170000      106  3.1362701e-07      34834.374 
12180000      105  2.0520219e-08      34863.313 
12190000      105   9.930844e-09       34891.68 
12200000      105   1.948405e-08      34922.658 
12210000      105   8.937365e-09      34950.761 
12220000      105  1.4377035e-08      34979.164 
12230000      105  1.3067141e-08      35006.852 
12240000      105  1.9207592e-07      35037.536 
12250000      105  1.7074031e-08      35066.368 
12260000      105  1.4901385e-07      35096.028 
12270000      105  2.0854313e-07      35124.626 
12280000      105  4.7811006e-08      35153.188 
12290000      105  6.2825382e-08      35181.769 
12300000      105  6.8535238e-08      35209.954 
12310000      105  8.0418696e-08      35238.352 
12320000      105  9.2743593e-08      35266.275 
12330000      105  1.0850537e-07      35294.241 
12340000      104  2.0849813e-09      35322.037 
12350000      104     3.1221e-09      35351.046 
12360000      104  2.0703325e-09      35379.626 
12370000      104  1.3622283e-06        35408.3 
12380000      104   1.243443e-06      35437.844 
12390000      103  7.9874054e-09      35465.792 
12400000      103  9.9663728e-08      35497.106 
12410000      103  5.8095381e-09      35525.395 
12420000      103  3.6594995e-09      35553.462 
12430000      103  4.3187068e-09      35581.267 
12440000      103  2.6209196e-09      35608.848 
12450000      103  4.6813544e-09      35636.597 
12460000      103  3.2504069e-09      35665.328 
12470000      103  2.1050584e-09      35693.024 
12480000      103  1.4592418e-08       35720.71 
12490000      103  4.1779075e-09      35748.317 
12500000      103  2.2669399e-09      35776.308 
12510000      103  2.7163062e-09      35803.632 
12520000      103    2.34405e-09       35831.91 
12530000      103  3.9891406e-09      35860.504 
12540000      103  1.1543027e-07       35889.47 
12550000      103  9.3245563e-09      35923.852 
12560000      103  4.4870346e-07      35957.781 
12570000      103  1.2587371e-07      35990.837 
12580000      103  3.4577498e-06      36026.182 
12590000      102  9.4437267e-08      36060.627 
12600000      102    3.83299e-08      36095.853 
12610000      102  3.7983493e-07      36124.795 
12620000      102  3.0430194e-07      36153.028 
12630000      102  2.5404057e-07      36182.713 
12640000      101  2.3441547e-08      36211.304 
12650000      101  5.2650654e-08      36239.041 
12660000      101  7.3550587e-09      36267.172 
12670000      101  1.1215653e-08      36294.491 
12680000      101    1.73033e-08       36322.22 
12690000      101  2.0858771e-08      36349.509 
12700000      101  1.8396873e-07      36376.901 
12710000      101   4.828558e-08      36404.386 
12720000      101  3.7969148e-08       36433.02 
12730000      101  5.2536357e-08      36461.081 
12740000      101   6.230429e-08      36489.364 
12750000      101  1.0683342e-07       36517.48 
12760000      101  1.3186294e-07      36545.348 
12770000      101  1.1502233e-07      36573.232 
12780000      101   1.236863e-07      36602.102 
12790000      101  1.2910809e-07      36630.425 
12800000      100  7.0848558e-09       36661.15 
12810000      100  2.2771158e-06      36688.911 
12820000      100  7.4195888e-08      36716.473 
12830000      100  3.1812226e-09      36744.216 
12840000      100  3.9342886e-09       36772.25 
12850000      100  6.6751235e-09      36799.757 
12860000      100  7.3089451e-09      36827.771 
12870000      100  1.0651392e-08      36855.384 
12880000      100  1.1460072e-08       36883.18 
12890000      100  2.9411267e-08       36910.84 
12900000      100  3.6564466e-09      36938.132 
12910000      100  2.8749264e-09      36965.839 
12920000      100  2.9686431e-09      36993.299 
12930000      100  1.8250341e-09      37020.706 
12940000      100  2.5372315e-06      37047.862 
12950000      100    2.48856e-06      37075.532 
12960000      100  1.1905496e-06      37103.178 
12970000      100  2.0164204e-09      37130.845 
12980000      100  3.3160421e-09      37158.476 
12990000      100  1.1379987e-06      37185.951 
13000000      100  4.9079395e-09      37216.138 
13010000      100  9.2057102e-07       37243.66 
13020000      100  5.8989898e-06      37271.456 
13030000      100  5.0505401e-08        37298.9 
13040000      100  8.8731481e-09      37326.372 
13050000      100  2.0379145e-09      37353.909 
13060000      100  3.2971527e-09      37381.167 
13070000      100  1.9153264e-09      37409.977 
13080000      100  2.1789387e-09      37437.954 
13090000      100  1.6407707e-09      37465.926 
13100000      100  1.4750024e-09      37493.576 
13110000      100  1.7121668e-09      37521.199 
13120000      100   4.526687e-09      37548.726 
13130000      100  2.5761175e-09      37576.971 
13140000      100  7.5044864e-08      37604.628 
13150000      100  3.0451345e-08      37633.215 
13160000      100  1.2391094e-08      37660.395 
13170000      100  6.8715841e-09      37687.728 
13180000      100  5.3025282e-09      37714.996 
13190000      100  4.9798317e-09      37742.854 
13200000      100  9.2986536e-09      37773.088 
13210000      100   7.287402e-06      37800.714 
13220000      100  2.0190345e-05      37829.405 
13230000      100  6.0608568e-09      37857.211 
13240000      100  1.6221128e-08      37885.055 
13250000      100  1.4440431e-08      37913.566 
13260000      100  2.8060753e-09      37941.466 
13270000      100  1.9963224e-09      37969.194 
13280000      100  2.4925909e-09      37996.862 
13290000      100  2.1636205e-09        38024.3 
13300000      100  9.1395625e-09      38051.814 
13310000      100  1.9902651e-07      38079.681 
13320000      100  5.6235701e-09      38107.445 
13330000      100  4.1113627e-07      38135.124 
13340000      100   2.267191e-09       38162.29 
13350000      100  1.8119833e-07      38191.449 
13360000      100   2.058752e-09       38219.43 
13370000      100  3.1388734e-09       38247.17 
13380000      100  2.4615887e-09      38274.834 
13390000      100  5.0313798e-09      38303.728 
13400000      100  3.4135112e-09      38336.105 
13410000      100  6.0845794e-09      38367.317 
13420000      100  9.9905683e-09       38395.49 
13430000      100  3.9528497e-09      38423.355 
13440000      100  3.4070632e-09      38452.153 
13450000      100  3.4471386e-06      38480.474 
13460000      100  3.3745533e-08       38507.97 
13470000      100  3.2748881e-09      38536.059 
13480000      100  2.1236654e-09      38563.716 
13490000      100  2.7325391e-09      38591.485 
13500000      100  5.6100707e-09      38618.942 
13510000      100  3.4391112e-07      38648.818 
13520000      100  2.7698487e-07      38677.248 
13530000      100  2.3768911e-07      38706.608 
13540000      100  2.0409652e-07      38735.118 
13550000       99  8.4742253e-08      38762.862 
13560000       99  5.8892261e-08      38790.881 
13570000       98  2.5224259e-06       38818.24 
13580000       98  1.1445894e-06        38845.7 
13590000       98  4.8844522e-05      38873.056 
13600000       98  2.5990124e-05      38903.078 
13610000       98  2.0872416e-05      38930.765 
13620000       98  2.1513433e-09      38958.635 
13630000       98  2.6942242e-09      38986.515 
13640000       98   2.607682e-09      39014.296 
13650000       98  5.2218296e-09      39041.787 
[...]
88050000       88   5.426743e-11      239974.71 
88060000       88  1.4678327e-10      240006.03 
88070000       88  9.3066906e-11      240036.94 
88080000       88  9.9363025e-11       240069.4 
88090000       88   2.176808e-09      240102.18 
88100000       88  6.0560858e-11      240133.45 
88110000       88  5.5039348e-11      240164.52 
88120000       88  6.2734832e-11       240197.4 
88130000       88  6.2048627e-11      240226.37 
88140000       88  6.6285956e-11      240253.85 
88150000       88  5.9162691e-11      240281.25 
88160000       88  6.8363089e-11      240310.02 
88170000       88  6.6785647e-11      240338.03 
88180000       88  6.8497217e-11      240366.66 
88190000       88  7.6827316e-11      240394.42 
88200000       88  9.0292352e-11      240425.62 
88210000       88  1.1059115e-10      240453.03 
88220000       88  8.3323769e-11      240479.58 
88230000       88  1.0689781e-10      240510.11 
88240000       88  9.4099754e-11      240537.23 
88250000       88  8.7895189e-11      240563.65 
88260000       88  9.4261604e-11      240591.41 
88270000       88    9.50441e-11      240617.98 
88280000       88  1.0399665e-10      240644.01 
88290000       88  6.9008995e-11      240671.56 
88300000       88  1.1111532e-10      240701.16 
88310000       88  7.9099628e-11      240738.02 
88320000       88  5.9249961e-11      240770.72 
88330000       88  4.9733608e-11      240809.83 
88340000       88  7.7468235e-11      240836.95 
88350000       88  6.6153567e-11      240868.04 
88360000       88  5.3488834e-11      240895.61 
88370000       88  6.6693584e-11      240921.89 
88380000       88  8.7995109e-11      240948.07 
88390000       88  9.6127131e-11      240975.84 
88400000       88  1.0159153e-10      241005.93 
88410000       88  1.0617636e-10       241032.2 
88420000       88  1.0794387e-10      241058.08 
88430000       88  9.7234754e-11      241084.33 
88440000       88  8.4095509e-11      241114.97 
88450000       88  8.9721877e-11      241143.83 
88460000       88  6.3283565e-11      241170.62 
88470000       88  7.5377113e-11      241198.07 
88480000       88  9.2115581e-11      241224.17 
88490000       88  1.2757778e-10      241250.14 
88500000       88  3.1836353e-10       241277.9 
88510000       88  5.4801856e-11      241305.69 
88520000       88  7.0104925e-11      241331.72 
88530000       88  7.2724897e-11      241358.04 
88540000       88  7.8113735e-11      241384.88 
88550000       88  8.7718395e-11      241415.43 
88560000       88  9.3287298e-11      241442.85 
88570000       88  6.4076208e-11      241468.87 
88580000       88  7.3543415e-11       241496.4 
88590000       88  1.9204257e-09      241523.56 
88600000       88  5.3947437e-11      241554.94 
88610000       88  6.7101377e-11      241583.11 
88620000       88  8.2675366e-11      241610.48 
88630000       88  7.1190236e-11      241637.49 
88640000       88   8.663404e-11      241663.94 
88650000       88  9.1723514e-11      241691.67 
88660000       88  9.5163559e-11      241718.01 
88670000       88  1.0325627e-10       241744.3 
88680000       88  1.1242003e-10      241770.79 
88690000       88  1.1112563e-10       241798.6 
88700000       88  1.0365708e-10      241825.95 
88710000       88  7.4425829e-11       241854.4 
88720000       88  1.0876803e-10      241883.43 
88730000       88  9.4712754e-11      241912.31 
88740000       88  1.1193585e-10      241941.35 
88750000       88  9.1795216e-11      241971.55 
88760000       88  6.8869204e-11      242000.95 
88770000       88  6.8117804e-11      242028.08 
88780000       88  6.0796596e-11      242055.07 
88790000       88  6.7875258e-11      242082.54 
88800000       88  4.7964698e-11      242112.39 
88810000       88  3.8594493e-11      242143.99 
88820000       88  6.4590213e-11      242174.57 
88830000       88  5.1513288e-11      242203.54 
88840000       88   7.218974e-11      242232.39 
88850000       88  6.8707636e-11      242259.58 
88860000       88  5.9913946e-11      242287.83 
88870000       88  5.8383972e-11      242315.53 
88880000       88   8.711105e-11      242342.93 
88890000       88  8.7810099e-11      242370.63 
88900000       88  6.3378529e-11      242399.28 
88910000       88  5.1941926e-11      242428.14 
88920000       88  5.6001944e-11       242456.8 
88930000       88  5.9711065e-11      242486.19 
88940000       88  6.8241408e-11      242516.29 
88950000       88  7.3060532e-11      242544.28 
88960000       88  8.3061276e-11      242571.71 
88970000       88  7.4909126e-11      242600.61 
88980000       88  1.0316924e-10      242628.19 
88990000       88  1.0047644e-10      242656.53 
89000000       88  1.4344927e-09      242686.87 
89010000       88  9.6356099e-10      242714.14 
89020000       88  1.3946174e-09      242744.61 
89030000       88  2.7047688e-09      242773.34 
89040000       88  4.1991108e-09      242801.85 
89050000       88  6.2782089e-09      242830.55 
89060000       88   4.408514e-09      242858.86 
89070000       88   3.472636e-09       242887.1 
89080000       88  2.1255706e-09      242914.77 
89090000       88  9.6614813e-10       242943.5 
89100000       88  2.8936608e-10      242972.12 
89110000       88  8.1975625e-11       243003.1 
89120000       88  6.4100841e-11      243032.56 
89130000       88  6.6812391e-11      243062.52 
89140000       88  6.7095651e-11      243090.16 
89150000       88  6.5791294e-11      243120.31 
89160000       88  5.8641887e-11      243147.12 
89170000       88  6.0865831e-11      243174.07 
89180000       88  8.2784082e-11      243202.79 
89190000       88  7.5319232e-11      243229.67 
89200000       88  9.0117713e-11       243259.2 
89210000       88  5.2950649e-11      243286.27 
89220000       88  5.6213557e-11      243313.24 
89230000       88  3.0756891e-11      243343.63 
89240000       88  5.0262524e-11      243372.25 
89250000       88  4.2416345e-11      243400.98 
89260000       88  3.7497088e-11      243429.72 
89270000       88  4.0946855e-11      243456.79 
89280000       88  4.7858975e-11      243484.35 
89290000       88  3.9746462e-11      243512.81 
89300000       88  4.1455187e-11      243540.02 
89310000       88  5.2342163e-11      243566.91 
89320000       88  6.6174516e-11      243594.02 
89330000       88   6.556933e-11      243626.25 
89340000       88  6.5649182e-11      243656.49 
89350000       88  6.1901055e-11       243685.7 
89360000       88  5.6651011e-11      243715.62 
89370000       88  6.9295462e-11      243743.37 
89380000       88  4.9445445e-11      243770.83 
89390000       88   4.894235e-11      243799.66 
89400000       88  5.2263787e-11      243829.73 
89410000       88   3.778867e-11      243856.99 
89420000       88  4.6329169e-11      243885.07 
89430000       88   5.254299e-11      243912.65 
89440000       88  4.2442139e-11       243943.6 
89450000       88  3.5854435e-11      243972.33 
89460000       88  3.3040431e-11      244001.17 
89470000       88  4.4149639e-11      244030.04 
89480000       88  4.5677787e-11      244057.35 
89490000       88  1.4070461e-08      244085.35 
89500000       88  3.3352236e-09      244113.37 
89510000       88   1.815602e-11      244142.13 
89520000       88  2.6426468e-11      244169.18 
89530000       88  3.8069133e-11      244196.65 
89540000       88  3.1679072e-11      244226.27 
89550000       88  4.9076952e-11      244255.49 
89560000       88  3.8547659e-11      244283.49 
89570000       88  4.2920479e-11       244311.3 
89580000       88  5.3516064e-11      244339.43 
89590000       88  5.6440839e-11      244366.65 
89600000       88  6.0048466e-11      244398.06 
89610000       88  6.5013608e-11      244426.59 
89620000       88  6.9100116e-11       244453.6 
89630000       88  7.4978428e-11      244480.67 
89640000       88   5.179497e-11      244507.46 
89650000       88  5.2299935e-11      244537.08 
89660000       88  5.1143027e-11      244566.97 
89670000       88  6.2281006e-11      244594.16 
89680000       88   6.369444e-11      244622.53 
89690000       88  6.7032671e-11      244650.37 
89700000       88  3.2499058e-09      244677.61 
89710000       88  4.4158801e-11      244706.21 
89720000       88  4.8983604e-11      244735.91 
89730000       88  6.5395056e-11      244763.21 
89740000       88  7.1584854e-11      244789.91 
89750000       88  1.3712549e-09         244816 
89760000       88  5.4973591e-11      244844.71 
89770000       88  5.0944394e-11      244872.24 
89780000       88   6.308851e-11      244898.38 
89790000       88   5.907418e-11      244926.01 
89800000       88  6.6397156e-11      244954.46 
89810000       88  7.6675759e-11      244980.54 
89820000       88  7.2018349e-11      245008.16 
89830000       88  7.1728146e-11      245037.97 
89840000       88  6.4642167e-11      245064.34 
89850000       88  6.1986003e-11      245091.09 
89860000       88  6.1968551e-11       245118.2 
89870000       88  4.1601796e-11       245146.6 
89880000       88  5.3870461e-11       245174.5 
89890000       88  4.7141715e-11      245200.85 
89900000       88  5.9476443e-11      245229.75 
89910000       88   6.589305e-11      245262.61 
89920000       88  6.8227341e-11      245291.54 
89930000       88  6.0891336e-11      245319.12 
89940000       88  6.3791831e-11      245346.45 
89950000       88  3.6483755e-10       245374.8 
89960000       88  6.0005761e-11      245404.37 
89970000       88  6.1172968e-11      245432.51 
89980000       88  1.3939031e-08      245460.21 
89990000       88  4.5161081e-11      245488.12 
90000000       88  2.7780551e-11       245518.4 
90010000       88  4.7081539e-11      245545.78 
90020000       88  5.8324866e-11       245576.5 
90030000       88  5.4229269e-11         245608 
90040000       88  6.1814502e-11       245636.5 
90050000       88  6.4851321e-11      245666.61 
90060000       88  5.9223959e-11      245694.86 
90070000       88  5.8927604e-11      245722.42 
90080000       88  5.5872945e-11      245751.46 
90090000       88  5.3916423e-11      245780.04 
90100000       88  5.5587313e-11      245807.77 
90110000       88  5.8557457e-11      245835.13 
90120000       88  5.1879847e-11      245862.51 
90130000       88  5.8409293e-11      245891.62 
90140000       88   5.565766e-11      245925.03 
90150000       88  2.7239309e-11      245954.15 
90160000       88   2.233506e-11      245982.37 
90170000       88  7.2608969e-11      246010.21 
90180000       88  5.4041972e-11      246037.87 
90190000       88  6.8956975e-11      246065.12 
90200000       88  6.7415913e-11      246095.78 
90210000       88  6.8789311e-11      246123.56 
90220000       88  4.7689858e-11      246151.78 
90230000       88  7.0553592e-11      246181.11 
90240000       88  5.2155168e-11      246208.19 
90250000       88  6.6968453e-11      246239.98 
90260000       88  6.1179274e-11       246269.5 
90270000       88   5.640168e-11      246296.21 
90280000       88  7.2723822e-11      246322.52 
90290000       88  6.5575951e-11      246348.29 
90300000       88  6.0907985e-11      246374.31 
90310000       88  5.0073375e-11      246400.07 
90320000       88  4.5690265e-11       246426.2 
90330000       88   4.075799e-11      246452.14 
90340000       88  5.0935592e-11      246480.13 
90350000       88  3.7768661e-11      246507.68 
90360000       88  7.0100264e-11      246538.78 
90370000       88   7.194806e-11      246574.99 
90380000       88  7.4439057e-11      246601.51 
90390000       88  5.0875987e-11      246627.72 
90400000       88  6.6295038e-11      246658.22 
90410000       88  3.2595448e-11      246685.56 
90420000       88  5.7555518e-11      246713.73 
90430000       88  6.0743888e-11      246742.12 
90440000       88  4.6587831e-11      246768.15 
90450000       88  5.6419021e-11       246795.8 
90460000       88  5.9933672e-11      246822.58 
90470000       88  4.8205958e-11      246850.89 
90480000       88  6.2205403e-11      246881.65 
90490000       88  6.7913245e-11      246907.86 
90500000       88  5.9043254e-11      246934.42 
90510000       88  5.3617088e-11      246961.81 
90520000       88  4.9588769e-11      246987.68 
90530000       88  1.6248475e-07      247014.48 
90540000       88  3.8280918e-11      247040.53 
90550000       88  5.4006228e-11      247066.67 
90560000       88  4.1572139e-11      247094.58 
90570000       88  9.1165993e-11      247121.46 
90580000       88   5.318904e-08       247150.4 
90590000       88  8.3985652e-12      247180.82 
90600000       88  2.5784191e-11      247211.23 
90610000       88  3.2952199e-11      247237.58 
90620000       88  5.1258111e-11      247263.75 
90630000       88   7.436728e-11      247290.47 
90640000       88  6.5746972e-11      247316.52 
90650000       88  6.7914783e-11      247343.01 
90660000       88  6.9455112e-11      247369.55 
90670000       88  7.1863259e-11      247396.83 
90680000       88  7.4648009e-11      247424.22 
90690000       88  7.3223578e-11      247452.18 
90700000       88  4.8025841e-11      247482.03 
90710000       88  6.6950332e-11       247509.6 
90720000       88  6.4862323e-11      247537.55 
90730000       88  5.5518852e-11      247563.55 
90740000       88  5.3618291e-11      247589.53 
90750000       88  4.1581571e-11       247616.3 
90760000       88  5.2649509e-11      247642.38 
90770000       88  3.9185592e-11      247668.94 
90780000       88  4.4373404e-11      247696.53 
90790000       88   4.657094e-11      247723.95 
90800000       88  4.6715618e-11      247754.24 
90810000       88  5.1867076e-11      247784.29 
90820000       88  5.9244527e-11      247811.91 
90830000       88  6.2307664e-11      247838.41 
90840000       88  6.4793972e-11      247865.25 
90850000       88  6.6601459e-11      247892.13 
90860000       88  6.9495841e-11      247918.21 
90870000       88  7.5928455e-11      247945.19 
90880000       88  4.2895001e-11      247972.01 
90890000       88  6.3765785e-11       247999.5 
90900000       88  6.8099482e-11      248026.94 
90910000       88  8.3585129e-11      248055.02 
90920000       88  5.2562903e-11      248085.91 
90930000       88  4.8179825e-11      248113.96 
90940000       88  4.7831922e-11      248142.46 
90950000       88  4.1578547e-11      248169.24 
90960000       88  4.9836717e-11       248196.3 
90970000       88  6.1947967e-11      248222.22 
90980000       88  6.4557331e-11      248249.01 
90990000       88  2.4638135e-11      248276.71 
91000000       88   2.754643e-11      248305.84 
91010000       88  3.4640372e-09       248335.4 
91020000       88  2.5205705e-11      248364.61 
91030000       88  5.0084489e-11      248394.39 
91040000       88  6.1866749e-11      248422.42 
91050000       88  6.4204808e-11      248448.71 
91060000       88  6.0813437e-11      248476.49 
91070000       88  6.2683821e-11      248503.97 
91080000       88  6.8891913e-11      248531.17 
91090000       88  7.6159956e-11      248557.68 
91100000       88  8.0598385e-11      248583.94 
91110000       88  7.6637657e-11      248609.76 
91120000       88  8.1839994e-11      248638.46 
91130000       88  7.3901189e-11      248666.47 
91140000       88  8.1315072e-11       248695.1 
91150000       88   9.663908e-11      248722.67 
91160000       88  7.9230232e-11      248749.92 
91170000       88   5.592851e-11      248778.48 
91180000       88  3.6415738e-11      248806.07 
91190000       88  2.9836268e-11      248832.09 
91200000       88  9.8463959e-12      248860.57 
91210000       88  2.6239114e-11      248886.45 
91220000       88  1.6045707e-11      248912.92 
91230000       88  2.8329691e-11      248938.86 
91240000       88  3.3731713e-11      248966.65 
91250000       88  3.3312292e-11      248994.38 
91260000       88  3.6203403e-11      249021.64 
91270000       88  2.1939799e-11       249048.6 
91280000       88  4.6700779e-11      249076.67 
91290000       88  4.1130346e-11      249104.69 
91300000       88  5.4681474e-11      249130.48 
91310000       88  6.1307622e-11      249157.49 
91320000       88   4.204262e-11      249184.27 
91330000       88  3.3328536e-11      249210.29 
91340000       88  2.5677589e-11      249236.45 
91350000       88  2.4832101e-11      249263.87 
91360000       88  5.5553969e-11      249291.73 
91370000       88  5.2279084e-11      249319.72 
91380000       88  5.6993185e-11       249346.5 
91390000       88  5.9327952e-11      249374.85 
91400000       88   6.501666e-11       249405.1 
91410000       88  7.3456298e-11      249433.93 
91420000       88  3.5348658e-09      249461.21 
91430000       88  1.2755246e-09      249489.33 
91440000       88  1.5664335e-09      249515.44 
91450000       88  2.2759556e-09      249541.59 
91460000       88  3.7662643e-09      249569.21 
91470000       88  3.6905122e-09      249599.13 
91480000       88  3.4720646e-09         249626 
91490000       88  3.0712186e-09      249653.06 
91500000       88  2.5276567e-09       249680.4 
91510000       88  1.5857385e-09      249708.22 
91520000       88  1.7228694e-10      249734.25 
91530000       88  4.7365201e-11      249760.24 
91540000       88  4.1796874e-11      249787.72 
91550000       88  3.5946632e-11      249813.96 
91560000       88  2.1832348e-11      249839.73 
91570000       88     2.4721e-11      249867.45 
91580000       88  1.1115434e-11      249895.68 
91590000       88  2.0103232e-11      249922.76 
91600000       88  2.4476432e-11       249951.3 
91610000       88  2.8647195e-11      249978.78 
91620000       88  3.3838937e-11      250006.22 
91630000       88   3.207536e-11      250032.04 
91640000       88  3.2709429e-11      250057.76 
91650000       88  3.5317494e-11      250085.72 
91660000       88  2.3443975e-11      250112.77 
91670000       88  4.4592321e-11      250140.76 
91680000       88  4.4764067e-11      250170.37 
91690000       88  4.8106942e-11      250202.59 
91700000       88  3.8340845e-11      250228.52 
91710000       88  3.2930696e-11       250254.3 
91720000       88  2.6235062e-11      250282.38 
91730000       88  2.2429972e-11      250310.52 
91740000       88  3.5814535e-11      250336.89 
91750000       88   3.431916e-11      250363.19 
91760000       88  1.3683962e-11      250390.42 
91770000       88  4.0466354e-11      250416.36 
91780000       88  3.8055006e-11      250443.82 
91790000       88  4.2235628e-11      250469.75 
91800000       88  3.8306092e-11      250501.15 
91810000       88    1.34813e-11      250527.19 
91820000       88   2.691537e-11      250553.39 
91830000       88  3.0029271e-11      250581.22 
91840000       88  1.7643328e-11      250608.61 
91850000       88  4.0340549e-11      250636.07 
91860000       88  3.0582585e-11      250662.37 
91870000       88   3.420678e-11      250689.88 
91880000       88  2.4845106e-11      250715.94 
91890000       88  2.5385848e-11      250743.61 
91900000       88  2.6018399e-11      250769.71 
91910000       88  2.8360245e-11      250798.93 
91920000       88  1.7221789e-11      250825.71 
91930000       88  1.9255917e-11      250851.66 
91940000       88  3.0548181e-11      250879.27 
91950000       88  3.2113895e-11      250913.53 
91960000       88  3.0605294e-11      250943.27 
91970000       88  3.3400711e-11       250969.8 
91980000       88   3.543783e-11      250996.97 
91990000       88  3.7382772e-11      251023.23 
92000000       88  4.2720329e-11       251052.6 
Loop time of 251053 on 6 procs for 90000000 steps with 88 atoms, finish time Fri Jun  5 04:49:56 2026


Pair  time (%) = 758.499 (0.302128)
Neigh time (%) = 49.4116 (0.0196818)
Comm  time (%) = 386.253 (0.153853)
Outpt time (%) = 1160.33 (0.462185)
Other time (%) = 248698 (99.0622)

Nlocal:    14.6667 ave 61 max 0 min
Histogram: 4 0 0 1 0 0 0 0 0 1
Nghost:    0.5 ave 3 max 0 min
Histogram: 5 0 0 0 0 0 0 0 0 1
Neighs:    19.6667 ave 102 max 0 min
Histogram: 4 1 0 0 0 0 0 0 0 1

Total # of neighbors = 118
Ave neighs/atom = 1.34091
Neighbor list builds = 28027
Dangerous builds = 0
