LIGGGHTS (Version LIGGGHTS-PUBLIC 3.8.0, compiled 2026-05-30-04:17:57 by root, git commit 3d5c00f20519e6bb6eb6756f51f1ad36564e649d)
##################################Header for General commands#######################################################

atom_style	granular		#Simulation of particles

boundary	f f f			#fixed boundaries -> particles will be deleted if leaving the simulation box

units		si

communicate	multi vel yes		#default

newton		off			#default


###################################System variables##################################################################

#Definition of boundaries

variable xmin equal -0.02
variable xmax equal 0.43

variable ymin equal -0.02
variable ymax equal 0.06

variable zmin equal -0.02
variable zmax equal 0.07

#Definition of the timestep

variable dt equal 1e-6


###################################Specific variables for current simulation#########################################

variable natoms equal 2 				#1 -> particle #2 ->pipe and screw


####variable for material properties####

####Young Modulus####
variable	youngmodulus1	equal 	7e6
variable	youngmodulus2	equal 	2e8

####Poission ratio####
variable 	poission1	equal	0.30
variable 	poission2	equal	0.29


####variable for contact properties####

####coefficient of restitution####
variable	CoR11	equal	0.6
variable	CoR12	equal	0.3
variable	CoR21	equal	0.3
variable	CoR22	equal	0.45

####sliding friction coefficient####
variable	sf11	equal	0.65	#Particle-particle sliding friction coefficient
variable	sf12	equal	0.5
variable	sf21	equal	0.5
variable	sf22	equal	0.0

####rolling friction coefficient####
variable	rf11	equal	0.75	#Particle-particle rolling friction coefficient
variable	rf12	equal	0.4
variable	rf21	equal	0.4
variable	rf22	equal	0.0


####variable for particle####

#Number of particle radius
variable	nradii	equal	3

variable	radius1	equal	0.0005	#m
variable	radius2	equal	0.0005	#m
variable	radius3	equal	0.0005	#m

variable	frac1	equal	0.3945
variable	frac2	equal	0.4059
variable	frac3	equal	0.1996

variable	density	equal	280		#kg/m³


####filling parameters####

variable	filltime	equal	2.0		#s, prueba rápida: alimentar 2 s

variable	dischargetime	equal	90		#s, tiempo para que puedan salir partículas

variable	fillmass	equal	0.00005 		#kg, 2 g de material

variable	fillmassrate	equal	${fillmass}/${filltime}	#kg/s
variable	fillmassrate	equal	5e-05/${filltime}	
variable	fillmassrate	equal	5e-05/2	

variable	fillsteps	equal	${filltime}/${dt}
variable	fillsteps	equal	2/${dt}
variable	fillsteps	equal	2/1e-06

variable	dischargesteps	equal	${dischargetime}/${dt}
variable	dischargesteps	equal	90/${dt}
variable	dischargesteps	equal	90/1e-06


####screw velocities####

variable	screwPeriod	equal	1.029		#s, prueba rápida: 2 vueltas/s


###################################Definition of simulationbox#######################################################

region		reg block ${xmin} ${xmax} ${ymin} ${ymax} ${zmin} ${zmax} units box
region		reg block -0.02 ${xmax} ${ymin} ${ymax} ${zmin} ${zmax} units box
region		reg block -0.02 0.43 ${ymin} ${ymax} ${zmin} ${zmax} units box
region		reg block -0.02 0.43 -0.02 ${ymax} ${zmin} ${zmax} units box
region		reg block -0.02 0.43 -0.02 0.06 ${zmin} ${zmax} units box
region		reg block -0.02 0.43 -0.02 0.06 -0.02 ${zmax} units box
region		reg block -0.02 0.43 -0.02 0.06 -0.02 0.07 units box

processors 6 1 1

create_box	2 reg
Created orthogonal box = (-0.02 -0.02 -0.02) to (0.43 0.06 0.07)
  6 by 1 by 1 MPI processor grid

neighbor	0.001 bin

neigh_modify	delay 0


#################################Definition of the contact models####################################################

pair_style gran model hertz tangential history rolling_friction epsd2

pair_coeff	* *

timestep ${dt}
timestep 1e-06

thermo 10000

fix		integrator all nve/sphere

fix		gravi all gravity 9.81 vector 0.0 0.0 -1.0


###################################Definition of Material properties#################################################

fix 		m1 all property/global youngsModulus peratomtype ${youngmodulus1} ${youngmodulus2}
fix 		m1 all property/global youngsModulus peratomtype 7000000 ${youngmodulus2}
fix 		m1 all property/global youngsModulus peratomtype 7000000 200000000

fix 		m2 all property/global poissonsRatio peratomtype ${poission1} ${poission2}
fix 		m2 all property/global poissonsRatio peratomtype 0.3 ${poission2}
fix 		m2 all property/global poissonsRatio peratomtype 0.3 0.29

fix 		m3 all property/global coefficientRestitution peratomtypepair ${natoms} ${CoR11} ${CoR12} ${CoR21} ${CoR22}
fix 		m3 all property/global coefficientRestitution peratomtypepair 2 ${CoR11} ${CoR12} ${CoR21} ${CoR22}
fix 		m3 all property/global coefficientRestitution peratomtypepair 2 0.6 ${CoR12} ${CoR21} ${CoR22}
fix 		m3 all property/global coefficientRestitution peratomtypepair 2 0.6 0.3 ${CoR21} ${CoR22}
fix 		m3 all property/global coefficientRestitution peratomtypepair 2 0.6 0.3 0.3 ${CoR22}
fix 		m3 all property/global coefficientRestitution peratomtypepair 2 0.6 0.3 0.3 0.45

fix 		m4 all property/global coefficientFriction peratomtypepair ${natoms} ${sf11} ${sf12} ${sf21} ${sf22}
fix 		m4 all property/global coefficientFriction peratomtypepair 2 ${sf11} ${sf12} ${sf21} ${sf22}
fix 		m4 all property/global coefficientFriction peratomtypepair 2 0.65 ${sf12} ${sf21} ${sf22}
fix 		m4 all property/global coefficientFriction peratomtypepair 2 0.65 0.5 ${sf21} ${sf22}
fix 		m4 all property/global coefficientFriction peratomtypepair 2 0.65 0.5 0.5 ${sf22}
fix 		m4 all property/global coefficientFriction peratomtypepair 2 0.65 0.5 0.5 0

fix 		m5 all property/global coefficientRollingFriction peratomtypepair ${natoms} ${rf11} ${rf12} ${rf21} ${rf22}
fix 		m5 all property/global coefficientRollingFriction peratomtypepair 2 ${rf11} ${rf12} ${rf21} ${rf22}
fix 		m5 all property/global coefficientRollingFriction peratomtypepair 2 0.75 ${rf12} ${rf21} ${rf22}
fix 		m5 all property/global coefficientRollingFriction peratomtypepair 2 0.75 0.4 ${rf21} ${rf22}
fix 		m5 all property/global coefficientRollingFriction peratomtypepair 2 0.75 0.4 0.4 ${rf22}
fix 		m5 all property/global coefficientRollingFriction peratomtypepair 2 0.75 0.4 0.4 0


###################################Generation and Loading of the Geometry .stl#######################################

fix case all mesh/surface file case_remesh.stl type 2 heal auto_remove_duplicates scale 1.0 curvature 1e-5 curvature_tolerant yes

fix screw all mesh/surface file screw_simplified.stl type 2 scale 1.0 curvature 1e-5 curvature_tolerant yes

fix 		walls 		all wall/gran model hertz tangential history rolling_friction epsd2 mesh n_meshes 2 meshes case screw

fix		Movescrew	all move/mesh mesh screw rotate origin 0.2024435 0.019051 0.011497 axis -1. 0. 0. period ${screwPeriod}
fix		Movescrew	all move/mesh mesh screw rotate origin 0.2024435 0.019051 0.011497 axis -1. 0. 0. period 1.029

fix feed all mesh/surface file feed.stl type 2 scale 1.0 curvature 1e-5 curvature_tolerant yes

fix outlet all mesh/surface file outlet_1.stl type 2 scale 1.0 curvature 1e-5 curvature_tolerant yes


###################################Generation and Insertion of the particles#########################################

fix pts1 all particletemplate/sphere 10487 atom_type 1 density constant ${density} radius constant ${radius1} volume_limit 1e-18
fix pts1 all particletemplate/sphere 10487 atom_type 1 density constant 280 radius constant ${radius1} volume_limit 1e-18
fix pts1 all particletemplate/sphere 10487 atom_type 1 density constant 280 radius constant 0.0005 volume_limit 1e-18

fix pts2 all particletemplate/sphere 11887 atom_type 1 density constant ${density} radius constant ${radius2} volume_limit 1e-18
fix pts2 all particletemplate/sphere 11887 atom_type 1 density constant 280 radius constant ${radius2} volume_limit 1e-18
fix pts2 all particletemplate/sphere 11887 atom_type 1 density constant 280 radius constant 0.0005 volume_limit 1e-18

fix pts3 all particletemplate/sphere 16561 atom_type 1 density constant ${density} radius constant ${radius3} volume_limit 1e-18
fix pts3 all particletemplate/sphere 16561 atom_type 1 density constant 280 radius constant ${radius3} volume_limit 1e-18
fix pts3 all particletemplate/sphere 16561 atom_type 1 density constant 280 radius constant 0.0005 volume_limit 1e-18

fix 		pdd1 all particledistribution/discrete 32452867 ${nradii} pts1 ${frac1} pts2 ${frac2} pts3 ${frac3}
fix 		pdd1 all particledistribution/discrete 32452867 3 pts1 ${frac1} pts2 ${frac2} pts3 ${frac3}
fix 		pdd1 all particledistribution/discrete 32452867 3 pts1 0.3945 pts2 ${frac2} pts3 ${frac3}
fix 		pdd1 all particledistribution/discrete 32452867 3 pts1 0.3945 pts2 0.4059 pts3 ${frac3}
fix 		pdd1 all particledistribution/discrete 32452867 3 pts1 0.3945 pts2 0.4059 pts3 0.1996

fix		ins_mesh all mesh/surface/planar file feed.stl type 1 scale 1.0

fix 		ins all insert/stream seed 15485863 distributiontemplate pdd1         	mass ${fillmass} massrate ${fillmassrate} overlapcheck yes all_in yes vel constant 0 0 -0.03         	insertion_face ins_mesh extrude_length 0.015
fix 		ins all insert/stream seed 15485863 distributiontemplate pdd1         	mass 5e-05 massrate ${fillmassrate} overlapcheck yes all_in yes vel constant 0 0 -0.03         	insertion_face ins_mesh extrude_length 0.015
fix 		ins all insert/stream seed 15485863 distributiontemplate pdd1         	mass 5e-05 massrate 2.5e-05 overlapcheck yes all_in yes vel constant 0 0 -0.03         	insertion_face ins_mesh extrude_length 0.015


################################### Particle Residence Time Track#########################################

fix 	rt_outlet	all massflow/mesh mesh outlet vec_side 0 0 -1 file rt_outlet.txt writeTime

fix 	rt_inlet	all massflow/mesh mesh feed vec_side 0 0 -1 file rt_inlet.txt writeTime


###################################Outlet mass flow track#########################################

fix	mfout	all massflow/mesh mesh outlet vec_side 0 0 -1

fix	mfin	all massflow/mesh mesh feed vec_side 0 0 -1

variable 	time equal step*dt

variable 	in_mass_flow equal	f_mfin[3]

variable 	out_mass_flow equal	f_mfout[3]

fix mass_flow_rate all print 5000 "${time},${in_mass_flow},${out_mass_flow}" screen no title "t,in_mass_flow,out_mass_flow" file massflow.csv


###################################Dumping of the data for post-processing to visualize############################

#fix ts_check all check/timestep/gran 1000 0.1 0.1

shell 	mkdir -p post

variable dumptime equal 1		#guarda cada 0.05 s

variable dumpstep equal ${dumptime}/${dt}
variable dumpstep equal 1/${dt}
variable dumpstep equal 1/1e-06

dump	dmpparticle all custom ${dumpstep} post/particles_*.liggghts id type x y z vx vy vz fx fy fz radius mass
dump	dmpparticle all custom 1000000 post/particles_*.liggghts id type x y z vx vy vz fx fy fz radius mass

dump_modify	dmpparticle sort id

dump	dmpscrew	all	mesh/stl ${dumpstep} post/screw_*.stl screw
dump	dmpscrew	all	mesh/stl 1000000 post/screw_*.stl screw


####################################RUN the simulation filling and discharge###########################################################

run	${fillsteps}
run	2000000
Setting up run at Sun May 31 02:59:03 2026

WARNING: Fix mesh: Mesh contains highly skewed element, moving mesh (if used) will not parallelize well (../surface_mesh_I.h:657)
WARNING: Fix mesh: Mesh contains highly skewed element, moving mesh (if used) will not parallelize well (../surface_mesh_I.h:657)
INFO: Particle insertion ins: 85.261577 particles every 500000 steps - particle rate 170.523153, (mass rate 2.500000e-05)
      341 particles (mass 4.999321e-05) within 1500000 steps
Memory usage per processor = 14.7696 Mbytes
    Step    Atoms         KinEng            CPU 
       0        0              0              0 
INFO: Particle insertion ins: inserted 85 particle templates (mass 1.246165e-05) at step 1
 - a total of 85 particle templates (mass 1.246165e-05) inserted so far.
   10000       85  5.6077429e-09      26.230414 
   20000       85  5.7424504e-09      53.762466 
   30000       85  7.2004133e-09      79.405211 
   40000       85  6.6236397e-09      103.64426 
   50000       85  8.5013881e-09      128.14983 
   60000       85  1.1727963e-08      152.32549 
   70000       85  1.2621472e-08      176.69635 
   80000       85  1.4977331e-08      201.70689 
   90000       85  8.4830235e-09      226.26213 
  100000       85  1.2575659e-08      250.68947 
  110000       85  1.1822492e-08      275.59874 
  120000       85  1.3673345e-08      299.96021 
  130000       85  1.1587852e-08       325.7439 
  140000       85  1.0413118e-08      350.99869 
  150000       85  1.8950542e-08      375.60748 
  160000       85  1.4316296e-08      399.84523 
  170000       85  1.4282734e-08      424.33937 
  180000       85  1.3990087e-08      449.01616 
  190000       85  1.3226102e-08      474.22324 
  200000       85  9.2811841e-09      498.66114 
  210000       85  1.1808631e-08      523.26896 
  220000       85  9.9999945e-09      547.86395 
  230000       85  8.2338496e-09      572.35034 
  240000       85  1.0218169e-08      596.91859 
  250000       85  8.4250293e-09      621.87326 
  260000       85  1.0069088e-08      646.94361 
  270000       85  1.0190681e-08      672.55411 
  280000       85  1.3036931e-08       697.5872 
  290000       85  1.4367028e-08      722.94058 
  300000       85  4.6710015e-08      747.92326 
  310000       85  2.0521718e-08      772.98625 
  320000       85  4.6917018e-08      797.95137 
  330000       85  1.1971293e-08      823.15721 
  340000       85  1.0222044e-08      848.79252 
  350000       85  1.0509601e-08      873.87069 
  360000       85  1.0688834e-08       899.0233 
  370000       85  4.2694231e-08      924.79595 
  380000       85  2.0639341e-08      949.88004 
  390000       85   1.390314e-08      975.41451 
  400000       85  1.2542587e-08      1000.4242 
  410000       85  1.8878896e-08      1026.0144 
  420000       85   1.097153e-08      1051.8949 
  430000       85  1.0851199e-08      1077.6282 
  440000       85  7.2152835e-08      1103.7672 
  450000       85  3.0212537e-08      1129.5745 
  460000       85  2.1950814e-08      1155.6415 
  470000       85  1.7319498e-08      1181.3376 
  480000       85  9.3560943e-09      1208.0276 
  490000       85  1.3712677e-08      1234.7701 
  500000       85   1.730576e-08      1261.7564 
INFO: Particle insertion ins: inserted 85 particle templates (mass 1.246165e-05) at step 500001
 - a total of 170 particle templates (mass 2.492330e-05) inserted so far.
  510000      170  1.7298713e-08      1288.3354 
  520000      170  1.7372484e-08      1315.2642 
  530000      170   1.293934e-08      1342.1217 
  540000      170  2.5809715e-08      1368.8041 
  550000      170  2.2233783e-08      1396.0102 
  560000      170  2.4454081e-08      1423.2646 
  570000      170  3.6045045e-08      1450.6092 
  580000      170  1.0076893e-07      1478.0052 
  590000      170  2.4690147e-08      1505.6034 
  600000      170  1.7325317e-08      1533.2772 
  610000      170  3.4624978e-08      1560.5846 
  620000      170  1.9232962e-08      1588.1906 
  630000      170   5.634753e-08      1615.8249 
  640000      170  3.8349588e-08      1643.4085 
  650000      170  2.8757073e-08      1671.2771 
  660000      170   2.158021e-08      1699.0968 
  670000      170  1.0542635e-08      1726.8659 
  680000      170    2.07311e-08      1755.0038 
  690000      170  1.6134209e-08      1782.9824 
  700000      170   8.541526e-09      1811.3724 
  710000      170  6.9960374e-09      1839.4111 
  720000      170  6.6110496e-09      1867.9532 
  730000      170  9.5528549e-09       1895.911 
  740000      170  1.0351103e-08      1924.1239 
  750000      170  6.7625008e-09      1952.6551 
  760000      170  1.2817721e-08      1981.1598 
  770000      170  1.0481287e-08      2010.0348 
  780000      170  1.1001633e-08      2038.5994 
  790000      170  1.2322461e-08      2067.5228 
  800000      170   1.229168e-08      2096.2307 
  810000      170  9.4641428e-09      2125.8534 
  820000      170  7.0566554e-09      2155.7915 
  830000      170  8.3407334e-09      2185.7837 
  840000      170  6.1633863e-09      2215.0324 
  850000      170  5.7748293e-09      2244.4412 
  860000      170  5.0742606e-09      2273.6167 
  870000      170  1.1377372e-08      2303.0387 
  880000      170    7.37088e-09      2332.0728 
  890000      170  6.4959728e-08      2362.9069 
  900000      170  1.0478638e-07      2393.5083 
  910000      170  2.3851548e-07      2426.6222 
  920000      170  1.7814662e-07      2457.0023 
  930000      170   1.465427e-07      2486.9492 
  940000      170  1.2963716e-07      2516.6198 
  950000      169    1.96944e-08      2546.3903 
  960000      169  1.4512459e-08      2576.0774 
  970000      169  1.0789542e-08      2605.9196 
  980000      169  8.9487511e-09      2635.8826 
  990000      169  8.4750896e-09      2666.0387 
 1000000      169  1.5903486e-08       2698.618 
INFO: Particle insertion ins: inserted 85 particle templates (mass 1.246165e-05) at step 1000001
 - a total of 255 particle templates (mass 3.738495e-05) inserted so far.
 1010000      254  5.8288629e-07      2728.8012 
 1020000      254  3.0722136e-08      2758.8617 
 1030000      254  1.7668116e-07      2789.0002 
 1040000      254   6.197321e-08      2819.1023 
 1050000      254  9.7661592e-08      2849.4073 
 1060000      254  2.0277573e-08      2879.4834 
 1070000      254  2.6934127e-08      2910.0308 
 1080000      254  3.2694707e-07       2941.096 
 1090000      254  2.1056568e-07      2972.1725 
 1100000      254  2.0644939e-07      3002.9973 
 1110000      254   1.624336e-07      3034.1616 
 1120000      254  1.0372621e-07      3065.9718 
 1130000      254  7.5654076e-08      3097.1922 
 1140000      253  2.5530067e-08      3128.4859 
 1150000      253  2.2713269e-08      3160.2161 
 1160000      253  2.3347408e-08      3191.9023 
 1170000      253  2.1435086e-08       3223.276 
 1180000      253  3.4991486e-08      3254.9097 
 1190000      253  4.7255301e-08      3286.3926 
 1200000      253   4.994066e-08      3318.1372 
 1210000      253   6.596324e-08      3350.0537 
 1220000      253   8.714264e-08      3382.0593 
 1230000      253  1.1026119e-07      3413.8612 
 1240000      253  1.1501244e-07      3445.9929 
 1250000      253  2.3922501e-07      3477.6221 
 1260000      253  2.1331229e-07      3509.3078 
 1270000      253  1.8937058e-07      3540.7016 
 1280000      252  1.6314199e-07      3572.8523 
 1290000      252  1.8186386e-07      3604.2795 
 1300000      252  7.9930402e-08      3635.6958 
 1310000      252   5.257337e-08      3667.7027 
 1320000      252  6.6999356e-08      3699.2153 
 1330000      252  6.4178188e-08      3731.2527 
 1340000      252  5.0197871e-07      3763.3658 
 1350000      251  2.0782665e-08      3795.6409 
 1360000      251  3.0175021e-08      3827.6343 
 1370000      251  8.0708797e-08      3859.7622 
 1380000      251  4.7315084e-08      3891.4548 
 1390000      251  3.5250414e-07       3924.002 
 1400000      251  9.6316119e-08       3956.631 
 1410000      251  7.3903402e-08      3989.1012 
 1420000      251  5.7580412e-08      4021.4613 
 1430000      251  1.6951213e-06      4054.4212 
 1440000      251  1.2118409e-06      4088.4084 
 1450000      250  6.9231166e-07      4121.6263 
 1460000      250  5.6333969e-07      4154.1272 
 1470000      250  4.5317589e-07      4186.2746 
 1480000      248   2.893802e-07      4218.9222 
 1490000      248  2.9179308e-07      4252.1442 
 1500000      247  1.5409604e-07      4285.2043 
INFO: Particle insertion ins: inserted 85 particle templates (mass 1.246165e-05) at step 1500001
 - a total of 340 particle templates (mass 4.984660e-05) inserted so far.
 1510000      332  3.3480241e-07      4317.9146 
 1520000      332  2.9456903e-07      4350.8597 
 1530000      331  2.2906584e-07      4383.5541 
 1540000      331  2.0737726e-07      4416.4543 
 1550000      329    7.30185e-08      4449.3153 
 1560000      329  6.1217547e-08      4482.0061 
 1570000      329  9.6848913e-08      4515.9972 
 1580000      329  2.0925911e-07      4549.0772 
 1590000      329   3.404958e-07      4582.2849 
 1600000      328  2.3365943e-07      4615.9692 
 1610000      328  1.8493593e-07      4649.5955 
 1620000      328  1.3131427e-07      4683.7361 
 1630000      328   1.294047e-07      4717.6318 
 1640000      328  1.4058848e-07      4751.6692 
 1650000      327  4.7858447e-08      4786.8119 
 1660000      327  8.8140229e-08      4821.0662 
 1670000      327   6.775641e-08      4855.7351 
 1680000      326  4.9346721e-08      4890.0201 
 1690000      326  3.4754675e-08      4924.2132 
 1700000      326  5.5631993e-07      4957.9862 
 1710000      326  2.7001361e-07      4991.2898 
 1720000      326  1.6447303e-07      5024.8029 
 1730000      326  1.0402217e-07       5058.587 
 1740000      326  1.5144667e-07      5092.8216 
 1750000      326  4.5611603e-08      5127.2456 
 1760000      326   4.458456e-08      5161.3853 
 1770000      326  4.7844769e-08      5195.7985 
 1780000      326  5.3039453e-08      5230.3414 
 1790000      326  7.2245405e-08      5264.9588 
 1800000      326  4.3111544e-07      5299.8461 
 1810000      326  1.5948152e-07      5333.8663 
 1820000      326  9.8616717e-08      5368.2644 
 1830000      326  1.3736323e-07      5402.5407 
 1840000      326  7.6992055e-08      5437.3325 
 1850000      326  9.5710966e-08      5473.2043 
 1860000      326  8.1306289e-08      5508.4749 
 1870000      326  3.8395243e-08      5543.6912 
 1880000      326  7.5129269e-07      5579.1782 
 1890000      326  9.3052322e-08      5614.5346 
 1900000      326  1.4713064e-07      5649.8305 
 1910000      326  9.8555253e-08       5685.367 
 1920000      326  4.9842171e-07      5721.1113 
 1930000      326  4.0604485e-07      5757.7139 
 1940000      326  3.0936954e-07      5794.2829 
 1950000      326  4.0679479e-07      5830.5194 
 1960000      325  8.5276439e-08      5866.4707 
 1970000      325  6.9266242e-08      5902.3337 
 1980000      325  4.7385915e-08       5938.238 
 1990000      325    4.37841e-08      5974.0092 
 2000000      324  3.7004127e-08       6012.684 
Loop time of 6012.68 on 6 procs for 2000000 steps with 324 atoms, finish time Sun May 31 04:39:22 2026


Pair  time (%) = 31.9598 (0.53154)
Neigh time (%) = 3.42611 (0.0569813)
Comm  time (%) = 9.13653 (0.151954)
Outpt time (%) = 5.39955 (0.0898026)
Other time (%) = 5962.76 (99.1697)

Nlocal:    54 ave 323 max 0 min
Histogram: 5 0 0 0 0 0 0 0 0 1
Nghost:    0 ave 0 max 0 min
Histogram: 6 0 0 0 0 0 0 0 0 0
Neighs:    425.667 ave 2554 max 0 min
Histogram: 5 0 0 0 0 0 0 0 0 1

Total # of neighbors = 2554
Ave neighs/atom = 7.88272
Neighbor list builds = 2090
Dangerous builds = 0

unfix	ins

run	${dischargesteps}
run	90000000
Setting up run at Sun May 31 04:39:22 2026

Memory usage per processor = 20.0828 Mbytes
    Step    Atoms         KinEng            CPU 
 2000000      324  3.7004127e-08              0 
 2010000      324  9.3645023e-08      36.159425 
 2020000      324   5.538705e-08      72.182496 
 2030000      324  3.2892797e-08       108.5587 
 2040000      324  2.7372352e-08      146.24421 
 2050000      324   4.293386e-08       184.4923 
 2060000      324  3.5055536e-08      220.33764 
 2070000      324  6.8268948e-08       256.2371 
 2080000      324  2.9436592e-08      291.93467 
 2090000      324  3.8708645e-08      327.56211 
 2100000      324  8.1334351e-08      362.97131 
 2110000      324   1.386149e-07      398.24732 
 2120000      324  2.1332177e-07      433.66351 
 2130000      324  1.5320241e-07      469.19355 
 2140000      324  1.0380272e-07      505.16235 
 2150000      324  6.7138778e-08      540.87012 
 2160000      324  1.3599031e-07      576.51377 
 2170000      324  7.2279589e-08       612.1953 
 2180000      324  5.2809524e-08      648.63039 
 2190000      324  2.5361519e-08      684.75374 
 2200000      324  2.0689878e-08      720.79567 
 2210000      324  3.4969164e-08       756.4908 
 2220000      324  3.9264472e-08      792.63379 
 2230000      324  6.2871449e-08      829.07521 
 2240000      324  3.5868724e-06      865.23883 
 2250000      324  3.0412193e-06      901.38097 
 2260000      324  2.6958272e-06      936.79092 
 2270000      319  9.1831969e-07      971.93544 
 2280000      314  2.1209379e-07      1006.8418 
 2290000      314  2.4562437e-07      1042.2308 
 2300000      314  2.5493902e-07      1077.3137 
 2310000      314  2.0617843e-07      1112.6882 
 2320000      313  2.3287342e-07       1147.949 
 2330000      313  4.9591393e-08      1183.0242 
 2340000      313  8.0273662e-08      1218.2598 
 2350000      313  7.8315046e-08      1253.6842 
 2360000      313  2.3442413e-07      1288.6301 
 2370000      313  2.3705336e-07      1325.3226 
 2380000      313  1.1639812e-07      1361.9984 
 2390000      313  1.4113463e-07      1399.0582 
 2400000      313  1.6624225e-07       1435.791 
 2410000      312  1.4554728e-07      1472.7944 
 2420000      312  1.5248513e-07      1510.0753 
 2430000      312  1.9167919e-07      1547.1224 
 2440000      311  1.3329877e-07      1583.9499 
 2450000      311  6.5615248e-06      1620.6629 
 2460000      310  1.5939874e-07      1656.4891 
 2470000      310  1.4862139e-07      1692.8718 
 2480000      310  3.0670364e-07       1729.297 
 2490000      309  2.2781741e-07      1766.1849 
 2500000      309  1.6839161e-07      1803.1561 
 2510000      309  5.3505005e-06      1840.8185 
 2520000      307  2.3786325e-06      1877.0579 
 2530000      304  7.4208021e-07      1912.8821 
 2540000      303  3.5671395e-07      1947.6959 
 2550000      302   2.165056e-07      1983.0382 
 2560000      302  1.7229884e-07      2018.0846 
 2570000      301  2.6150056e-06      2054.9253 
 2580000      300  8.5976132e-07      2090.6774 
 2590000      298   4.232432e-07      2127.7816 
 2600000      298  8.4982058e-07      2163.3131 
 2610000      298  7.4712947e-07      2198.3897 
 2620000      296  2.1946635e-07      2233.6501 
 2630000      296  1.7728093e-07      2268.2905 
 2640000      295  1.1476422e-07      2303.3064 
 2650000      294   1.191361e-07      2337.8236 
 2660000      294  9.9399358e-08      2372.4366 
 2670000      294  9.8442089e-08      2407.1994 
 2680000      294  4.4552189e-08      2442.9424 
 2690000      294  3.5021242e-08       2478.116 
 2700000      294   4.700914e-08      2513.3189 
 2710000      294  4.7239688e-08      2548.2365 
 2720000      294  5.4873762e-07      2583.9754 
 2730000      294  4.7796448e-08      2619.2303 
 2740000      293  1.1928844e-08      2654.6574 
 2750000      293  9.9018331e-09      2689.6434 
 2760000      293  5.7681411e-07      2724.7957 
 2770000      293  9.6813747e-09      2759.8469 
 2780000      293  3.3963837e-07      2794.9393 
 2790000      293   3.455267e-07      2830.0877 
 2800000      293  2.2149628e-07      2865.1783 
 2810000      293  1.4279479e-07      2900.1304 
 2820000      293  9.2854206e-08       2935.275 
 2830000      293  1.1428498e-05      2970.1903 
 2840000      293  1.2602942e-06      3005.3881 
 2850000      293  1.6212133e-07      3040.8239 
 2860000      293  1.7970659e-07      3075.3881 
 2870000      293  1.3734201e-07      3109.9286 
 2880000      293  1.0610637e-07      3144.7267 
 2890000      293  1.0440214e-07      3179.8306 
 2900000      293  1.2007058e-07       3214.578 
 2910000      293  1.0843487e-07      3249.4666 
 2920000      293  1.1727789e-07       3284.393 
 2930000      293  8.1918665e-08       3319.325 
 2940000      293  8.7006229e-08      3355.0309 
 2950000      292  4.1139861e-07      3392.6453 
 2960000      292  4.1427565e-07      3428.9469 
 2970000      292  4.1560269e-07      3465.1396 
 2980000      290  3.7547999e-07      3500.6468 
 2990000      290  9.5077079e-08      3536.1465 
 3000000      290  1.5509743e-07      3574.3022 
 3010000      290  1.5200741e-07      3609.8313 
 3020000      289  2.1584589e-08      3645.5918 
 3030000      289  1.4509971e-08      3681.2522 
 3040000      289  1.3990103e-08      3716.6947 
 3050000      289  1.0809221e-08       3752.889 
 3060000      289  3.8318487e-09      3789.6749 
 3070000      289  3.9363199e-09      3829.0421 
 3080000      289  1.3952805e-08      3864.9398 
 3090000      289  1.8724754e-07      3901.0387 
 3100000      289  1.1127759e-07      3936.9261 
 3110000      289  7.0602773e-08      3973.0594 
 3120000      289  5.5943126e-08      4008.7225 
 3130000      289  3.6385621e-08      4044.3309 
 3140000      289  2.3537526e-08      4080.0834 
 3150000      289  1.2408125e-07      4115.8369 
 3160000      289  1.1055667e-08      4151.5889 
 3170000      289  1.1612881e-08      4187.5046 
 3180000      289  2.0804013e-08      4223.2802 
 3190000      289  4.8821689e-07      4260.3133 
 3200000      289  3.5308534e-07      4296.5913 
 3210000      289  4.5521722e-07        4332.95 
 3220000      288  1.6971669e-07      4368.0382 
 3230000      288  6.2799323e-07      4403.1123 
 3240000      288  5.5147164e-07      4438.1172 
 3250000      288  6.9354218e-07      4473.0371 
 3260000      287  2.8955667e-07      4507.3989 
 3270000      286  1.5871775e-07      4541.8077 
 3280000      285   9.324121e-08      4576.0573 
 3290000      285  7.9577293e-08      4610.3949 
 3300000      285  1.8772977e-07      4645.7886 
 3310000      285   4.377203e-07      4680.5019 
 3320000      285  4.0180474e-07      4716.1609 
 3330000      285    3.65719e-07      4751.9773 
 3340000      284    1.11366e-07      4787.1671 
 3350000      284  1.0070096e-07      4822.2006 
 3360000      284  6.2373151e-08      4857.5126 
 3370000      284  5.1320149e-08      4892.2223 
 3380000      284  9.5033675e-07      4927.1731 
 3390000      284  9.0084059e-07      4963.9929 
 3400000      283  4.1272657e-08      4999.4735 
 3410000      283  6.4260819e-08       5034.624 
 3420000      283  3.0917621e-08      5069.1774 
 3430000      283  1.1650425e-07      5104.1274 
 3440000      283   4.615245e-08      5138.4838 
 3450000      282   2.260513e-08      5173.3402 
 3460000      282  3.1429444e-06      5209.0146 
 3470000      282  5.0079656e-06       5244.502 
 3480000      278  1.5736708e-06       5279.487 
 3490000      275  5.7382782e-07      5313.9229 
 3500000      275  4.0043448e-07      5347.9433 
 3510000      272  1.7296542e-07      5382.1343 
 3520000      272  1.4797535e-07      5416.3522 
 3530000      272  1.1634628e-07      5451.3607 
 3540000      271  7.5134588e-08      5485.7202 
 3550000      271  7.4214912e-08      5519.9573 
 3560000      270  1.3552491e-07      5554.0011 
 3570000      270  1.3376296e-07        5588.38 
 3580000      270  1.3463151e-07      5623.3373 
 3590000      270  1.4069589e-07      5657.8331 
 3600000      270   1.568455e-07      5692.7882 
 3610000      270  1.7581131e-07      5727.9762 
 3620000      269  9.3883423e-07      5763.3971 
 3630000      269  2.5953025e-07      5798.5282 
 3640000      269  4.0165564e-07      5834.0775 
 3650000      267  2.1725002e-07      5868.9774 
 3660000      267  4.0142155e-07      5903.4469 
 3670000      267  3.1313325e-07      5937.4217 
 3680000      266  7.9328527e-08      5971.2746 
 3690000      266  7.1686528e-08      6004.9215 
 3700000      266   1.225611e-07      6039.2732 
 3710000      266  1.1149887e-07      6074.1916 
 3720000      266  7.8951804e-08      6108.6166 
 3730000      266  1.0199179e-07       6143.261 
 3740000      266  1.1209061e-07      6177.9498 
 3750000      265  2.6011755e-08      6212.8397 
 3760000      265  1.2924374e-08      6247.7587 
 3770000      265  1.1194475e-08      6282.6828 
 3780000      265  8.0102045e-08      6317.2881 
 3790000      265  2.5202653e-07      6352.4253 
 3800000      265  7.7207984e-07        6387.57 
 3810000      265  7.1299125e-07      6423.3817 
 3820000      264  8.6954705e-07      6459.1087 
 3830000      263  3.2815665e-07       6494.485 
 3840000      263  2.9770996e-07      6530.1052 
 3850000      262  4.3919914e-07      6565.9627 
 3860000      262  4.0952792e-07      6602.0304 
 3870000      261  5.3370968e-09        6637.85 
 3880000      261  5.7461621e-09      6672.7197 
 3890000      261  4.5422769e-08      6707.2819 
 3900000      261  2.9558529e-08      6741.9962 
 3910000      261  5.4490116e-08      6776.5287 
 3920000      261  1.4818075e-07       6811.238 
 3930000      261  1.1991037e-08      6845.8729 
 3940000      261  8.5255677e-09      6880.5574 
 3950000      261  2.2084609e-08      6915.3046 
 3960000      261  3.2879036e-08      6950.6989 
 3970000      261  5.7740714e-08      6986.2438 
 3980000      261  1.3183497e-07      7021.9102 
 3990000      261  1.8907046e-07      7057.3117 
 4000000      261  4.1093919e-08        7097.63 
 4010000      261  3.9455085e-08      7132.4073 
 4020000      261  2.9006487e-08      7167.1476 
 4030000      261  1.6111681e-08       7202.054 
 4040000      261  1.0316479e-08      7237.4758 
 4050000      261  2.2136776e-07      7272.8592 
 4060000      261  1.9391891e-07      7308.6531 
 4070000      261  1.7627982e-07      7344.0219 
 4080000      261   1.629871e-07      7379.5155 
 4090000      260  2.6960349e-08      7414.7506 
 4100000      260  1.4859618e-08      7449.6526 
 4110000      260  4.7973232e-09      7484.4379 
 4120000      260  2.2719739e-08      7519.5597 
 4130000      260  1.3867352e-08      7554.5026 
 4140000      260  1.0704506e-08      7589.1444 
 4150000      260  1.5675845e-08       7624.177 
 4160000      260  4.7040865e-08      7658.9485 
 4170000      260  5.1577019e-08      7693.9843 
 4180000      260  2.2460406e-08      7728.5882 
 4190000      260  8.2765917e-07      7763.3638 
 4200000      260  2.0244324e-07      7798.7585 
 4210000      260  1.7860379e-07      7834.2027 
 4220000      260   1.570462e-07      7869.8988 
 4230000      259  1.0816049e-06      7905.0221 
 4240000      259  5.6446207e-07       7939.528 
 4250000      259  4.6214912e-07      7974.1478 
 4260000      257   1.729721e-07      8008.6275 
 4270000      257  4.5013306e-07      8043.5257 
 4280000      256   3.568812e-07      8077.3293 
 4290000      256  6.8510191e-07      8111.4841 
 4300000      255  4.3141295e-07      8145.1749 
 4310000      255   3.779489e-07      8179.2902 
 4320000      255  3.7481437e-07      8213.5232 
 4330000      253  2.9808095e-07      8247.3358 
 4340000      252  1.9447199e-07      8281.2101 
 4350000      252  8.0654927e-07      8315.1304 
 4360000      252  1.1669871e-07      8349.6479 
 4370000      252  1.2332967e-07      8383.7321 
 4380000      252  1.1054942e-07      8418.3366 
 4390000      252  1.1614057e-07      8453.4375 
 4400000      252  1.2936022e-07      8487.9972 
 4410000      252  1.6863197e-07      8523.3013 
 4420000      252  1.9742725e-07      8558.2015 
 4430000      251  1.1149563e-07      8593.0384 
 4440000      251  8.5009309e-08      8628.1042 
 4450000      251  1.0589143e-07      8662.5842 
 4460000      251  1.9700759e-07      8699.0936 
 4470000      251  1.5210397e-07      8733.9361 
 4480000      251  5.2243114e-07      8769.0802 
 4490000      250  9.6659146e-08      8803.8476 
 4500000      250   1.521486e-06      8838.5225 
 4510000      250  1.3320933e-07      8873.7862 
 4520000      250  1.6188256e-07      8908.5792 
 4530000      249  7.2139274e-08      8943.0481 
 4540000      248  1.1293563e-08      8977.3175 
 4550000      248  7.6173113e-09      9011.6891 
 4560000      248  3.7891072e-08      9046.9735 
 4570000      248  1.2271536e-06      9082.7107 
 4580000      247  3.8029677e-07      9117.9204 
 4590000      246  6.4210484e-08       9152.611 
 4600000      246   8.667571e-08      9186.6771 
 4610000      246  1.0077537e-07      9221.0959 
 4620000      246  6.2194155e-06       9255.979 
 4630000      246  5.2955073e-08      9290.4978 
 4640000      246  2.2450607e-08      9324.4445 
 4650000      246  6.8832251e-08      9358.9187 
 4660000      246  6.1097511e-08      9393.3019 
 4670000      246  6.5066928e-08      9427.5578 
 4680000      246  6.2806137e-08      9461.8674 
 4690000      246  6.6635608e-08      9496.1839 
 4700000      246  5.9291038e-08      9530.6377 
 4710000      246  4.8707773e-08      9564.8938 
 4720000      245   9.623386e-09      9599.3821 
 4730000      245  1.6823656e-08      9634.1867 
 4740000      245  1.9582288e-08      9669.0961 
 4750000      245  1.4456308e-08      9703.1924 
 4760000      245  3.2251852e-07      9737.7568 
 4770000      245  3.0198288e-07      9772.8431 
 4780000      245  3.1501182e-07       9807.547 
 4790000      244  1.4568987e-07      9842.0189 
 4800000      244  1.4188785e-07      9876.1966 
 4810000      244   1.849058e-07      9910.9502 
 4820000      243  8.9846972e-08      9945.5002 
 4830000      243  6.6347293e-08      9979.9274 
 4840000      243  9.5423033e-07       10015.22 
 4850000      243  8.9097259e-07      10050.732 
 4860000      242  3.6796221e-06      10085.096 
 4870000      241   3.480205e-08      10119.616 
 4880000      241  8.0275618e-08      10153.908 
 4890000      241  1.1499486e-08      10188.135 
 4900000      241  3.6258322e-09      10222.043 
 4910000      241   4.397349e-09      10256.693 
 4920000      241  4.6244256e-08      10290.816 
 4930000      241  4.9300319e-07      10324.804 
 4940000      241  3.2563822e-08      10359.009 
 4950000      241  1.8790973e-08      10393.188 
 4960000      241   1.576236e-08       10427.26 
 4970000      241  2.1651649e-08      10461.409 
 4980000      241  1.0685278e-07      10496.875 
 4990000      241  6.0353218e-08      10533.202 
 5000000      241  2.4616381e-07      10573.147 
 5010000      241  3.3499332e-08      10607.591 
 5020000      241  8.3266646e-08       10641.52 
 5030000      241  1.5100533e-07      10675.109 
 5040000      241  4.8755346e-08      10708.823 
 5050000      241  3.2761468e-08       10742.79 
 5060000      241  2.9434838e-08      10776.703 
 5070000      241  1.9843711e-07      10810.963 
 5080000      241  3.1389839e-08      10845.744 
 5090000      241  4.3926744e-08      10879.876 
 5100000      241  1.4681084e-07      10914.012 
 5110000      241  5.0009316e-08      10947.809 
 5120000      241  3.3373378e-08      10981.818 
 5130000      241  1.3466914e-07      11016.316 
 5140000      241  1.7969338e-08      11050.835 
 5150000      241  2.7751901e-08      11085.256 
 5160000      241  4.8341075e-08      11119.702 
 5170000      241  1.1432642e-07      11154.364 
 5180000      241  8.9641371e-07      11188.837 
 5190000      241  7.4021071e-08      11223.219 
 5200000      241   1.904269e-07      11257.292 
 5210000      241   2.653731e-07      11291.779 
 5220000      241  3.7562432e-07       11326.08 
 5230000      241  2.0953981e-07       11360.35 
 5240000      241  1.7057042e-07      11394.676 
 5250000      240   6.627726e-08      11429.247 
 5260000      240  5.7046642e-08      11463.955 
 5270000      240  3.5471444e-08      11498.412 
 5280000      240   4.294413e-08      11532.516 
 5290000      239  4.1208351e-08      11566.495 
 5300000      239  5.6315421e-08      11600.612 
 5310000      239  4.5187149e-08      11634.731 
 5320000      239     3.8869e-08      11668.725 
 5330000      239  4.6966398e-08      11703.239 
 5340000      239  5.8799184e-08      11737.405 
 5350000      239    2.99058e-07      11771.906 
 5360000      239  1.1086666e-07      11806.382 
 5370000      239  2.6198616e-06      11841.763 
 5380000      238  1.0489548e-06      11876.694 
 5390000      238  1.2870333e-06      11910.712 
 5400000      236  6.5223894e-07      11944.705 
 5410000      235  3.8529664e-07      11978.549 
 5420000      235  3.4659049e-07        12012.7 
 5430000      234  2.2535067e-07      12047.112 
 5440000      233  1.3045472e-07      12080.881 
 5450000      232  2.6316615e-07      12114.753 
 5460000      232  1.4312266e-07      12148.314 
 5470000      232  1.4099871e-07      12182.047 
 5480000      232  1.5225553e-07      12215.788 
 5490000      232  2.0136577e-07      12249.933 
 5500000      232  1.3656086e-07      12284.118 
 5510000      231  9.8285495e-08      12318.112 
 5520000      231  1.1549747e-07      12352.159 
 5530000      230  9.4439255e-08      12386.437 
 5540000      230  1.2300493e-07      12420.566 
 5550000      230  1.3059025e-07      12454.822 
 5560000      230  1.3841073e-07      12489.212 
 5570000      229  1.1959285e-07      12523.468 
 5580000      229  9.4864318e-07      12558.596 
 5590000      229  2.1410826e-06      12594.588 
 5600000      228  6.6095992e-08      12629.452 
 5610000      228  3.7166042e-08      12663.492 
 5620000      228  3.5136557e-08      12697.545 
 5630000      228  5.7233105e-08      12731.784 
 5640000      228  3.7503001e-08       12765.64 
 5650000      228  3.3230904e-08      12799.328 
 5660000      228  5.0526165e-08      12833.281 
 5670000      228  5.3128235e-08      12867.103 
 5680000      228  5.4137115e-08      12901.602 
 5690000      228   4.669067e-08      12935.728 
 5700000      228  4.7269188e-08      12970.033 
 5710000      228  3.1053053e-08      13003.984 
 5720000      228   1.181792e-07      13037.849 
 5730000      228  1.0894348e-07      13072.375 
 5740000      228  4.1520871e-08      13106.309 
 5750000      228  1.6490075e-06      13141.174 
 5760000      228  1.0146398e-06      13176.022 
 5770000      227  3.6995427e-07      13210.996 
 5780000      226  1.6406816e-08      13245.804 
 5790000      226  6.5431969e-09       13279.92 
 5800000      226  5.9794181e-08      13313.587 
 5810000      226   1.123721e-08      13347.099 
 5820000      226  9.3898906e-09      13380.959 
 5830000      226  1.3763975e-08      13414.859 
 5840000      226  3.2775884e-08      13448.682 
 5850000      226  2.3370921e-08      13482.864 
 5860000      226  2.5538829e-08      13516.911 
 5870000      226  1.3223565e-08      13551.085 
 5880000      226  6.3316735e-09      13584.727 
 5890000      226  6.8306787e-09      13618.699 
 5900000      226  1.4064172e-06      13652.737 
 5910000      226  2.3207383e-06      13686.852 
 5920000      226  4.9204971e-09      13720.882 
 5930000      226  1.5615638e-08      13754.942 
 5940000      226  5.2523707e-09      13789.328 
 5950000      226  1.6722112e-07      13823.523 
 5960000      226  1.4383182e-08      13857.612 
 5970000      226  4.8351572e-09      13891.658 
 5980000      226  4.7139718e-09      13925.558 
 5990000      226  3.7425741e-06      13959.574 
 6000000      226  2.4945008e-06      13995.397 
 6010000      225  1.9309501e-06      14028.268 
 6020000      222  5.2631959e-07      14061.259 
 6030000      222  4.1396398e-07       14095.33 
 6040000      220  2.2244567e-07      14129.408 
 6050000      220  1.7329084e-07      14166.048 
 6060000      220  1.6023096e-07      14200.307 
 6070000      218  3.9249521e-07      14233.542 
 6080000      218  1.0065992e-07      14266.929 
 6090000      218  1.1107578e-07      14300.316 
 6100000      217  1.3574609e-07      14333.889 
 6110000      215  1.1962757e-07      14367.188 
 6120000      215  1.2838245e-07      14400.891 
 6130000      214  2.4604225e-07      14434.958 
 6140000      214  1.1818008e-07      14468.612 
 6150000      214  1.1448885e-07      14502.476 
 6160000      214  1.3295851e-07      14536.325 
 6170000      214  5.1023811e-07      14570.811 
 6180000      213   8.515188e-07      14605.081 
 6190000      213  3.8598958e-07      14639.387 
 6200000      212  2.1131668e-07      14672.992 
 6210000      211  1.1244289e-07      14706.784 
 6220000      211  1.1203199e-07      14740.497 
 6230000      211  3.9089402e-07       14774.23 
 6240000      210  2.3389034e-07      14809.484 
 6250000      210  1.7751561e-07      14849.609 
 6260000      210  1.6004235e-07      14884.383 
 6270000      210  1.3288362e-07        14918.1 
 6280000      209  5.7030426e-08      14951.638 
 6290000      209  2.2863686e-08      14985.064 
 6300000      209  1.9748104e-08      15018.407 
 6310000      209  5.4653516e-08      15052.735 
 6320000      209  4.6857174e-08      15086.708 
 6330000      209  2.9720088e-08      15120.588 
 6340000      209  4.7783686e-08      15154.187 
 6350000      209  1.9180273e-08      15187.805 
 6360000      209  1.5850836e-08      15221.678 
 6370000      209  6.7332976e-09      15255.052 
 6380000      209  1.2833081e-08        15288.6 
 6390000      209  4.7913211e-09      15322.141 
 6400000      209  1.1551036e-07      15355.777 
 6410000      209  5.4821446e-08      15390.108 
 6420000      209  3.8910602e-08      15423.708 
 6430000      209  2.5258528e-08       15457.01 
 6440000      209  2.7857699e-07      15491.004 
 6450000      209   2.928437e-07      15525.213 
 6460000      209  7.0401489e-07      15559.003 
 6470000      209  4.9227039e-07      15592.815 
 6480000      208  9.0712251e-07      15626.837 
 6490000      208  9.1286271e-07      15661.454 
 6500000      207  7.3677292e-07      15695.786 
 6510000      206  5.1120849e-08      15729.218 
 6520000      206     3.5093e-08      15762.772 
 6530000      206  2.8576317e-08      15796.037 
 6540000      206  1.6835561e-08      15829.454 
 6550000      206  1.8896481e-08      15862.649 
 6560000      206   3.003402e-08      15896.244 
 6570000      206  2.3891222e-08      15929.531 
 6580000      206  2.6081211e-08      15962.828 
 6590000      205  2.4398866e-08       15998.72 
 6600000      205  1.5801896e-08       16032.21 
 6610000      205  1.8208141e-06      16065.829 
 6620000      205  9.3964179e-06      16099.464 
 6630000      205  3.0574042e-08       16133.18 
 6640000      205  2.0485881e-07      16166.678 
 6650000      205  8.7015334e-08      16200.461 
 6660000      205  6.8046625e-08       16234.56 
 6670000      205  5.9897207e-08       16268.43 
 6680000      205  2.4578189e-06      16303.009 
 6690000      205  5.0689485e-08      16337.284 
 6700000      205  3.9564311e-08      16371.381 
 6710000      205  3.0136211e-08      16405.008 
 6720000      205  3.6094904e-08      16438.899 
 6730000      204  4.2359543e-08      16472.609 
 6740000      204  2.3359624e-08      16506.736 
 6750000      204  3.2342838e-08      16540.634 
 6760000      204  1.0102822e-08      16573.987 
 6770000      204  1.0269034e-08        16607.5 
 6780000      204  1.2645166e-08      16641.004 
 6790000      204  2.2665648e-08      16674.597 
 6800000      204  4.6478812e-08      16708.123 
 6810000      204  2.8664733e-08      16741.775 
 6820000      204  1.9810411e-08      16775.234 
 6830000      204  1.6594194e-08      16808.899 
 6840000      204  7.5719513e-09      16842.929 
 6850000      204  1.2052692e-08       16876.42 
 6860000      204  7.7669789e-09      16910.066 
 6870000      204  5.4571221e-07      16943.061 
 6880000      204  2.8848261e-08      16976.273 
 6890000      204  9.9195948e-07      17009.328 
 6900000      204  1.3465793e-07      17042.373 
 6910000      204  5.8488453e-07      17075.534 
 6920000      204   5.777938e-07      17109.473 
 6930000      203  5.0512132e-08      17143.182 
 6940000      203  4.7945488e-08      17176.102 
 6950000      203  3.0865669e-08      17209.344 
 6960000      203  2.1385041e-08      17242.401 
 6970000      203  7.8602712e-08       17275.62 
 6980000      203  3.0271714e-08       17308.72 
 6990000      203  2.9310502e-08      17342.145 
 7000000      203  3.9263738e-08        17377.9 
 7010000      203  2.6848658e-08      17411.477 
 7020000      203  1.7111785e-07      17445.365 
 7030000      203  1.0226502e-07      17478.172 
 7040000      203  8.9266411e-08      17511.562 
 7050000      203  9.8672978e-07      17544.329 
 7060000      203  3.7972519e-08      17577.407 
 7070000      203  3.0567983e-08      17610.385 
 7080000      203  5.8447002e-07      17643.564 
 7090000      203  8.0386775e-07      17676.743 
 7100000      203  6.2207299e-07      17709.981 
 7110000      203  6.4724403e-07      17743.259 
 7120000      203   2.711674e-06      17776.743 
 7130000      200  2.4294259e-07      17811.783 
 7140000      200  2.0655295e-07      17844.817 
 7150000      198  9.6819443e-08      17879.962 
 7160000      198  1.2744059e-07      17915.661 
 7170000      197   4.262254e-08      17951.084 
 7180000      196  6.2555085e-08      17984.367 
 7190000      196  4.8794348e-08      18017.504 
 7200000      196  1.2184631e-06       18051.39 
 7210000      196  1.9436577e-07      18084.518 
 7220000      196  6.8791403e-08      18117.802 
 7230000      196  1.1990647e-07      18150.862 
 7240000      196  6.2818611e-08      18184.037 
 7250000      196  4.4594401e-08      18217.551 
 7260000      196  2.1318932e-07      18250.888 
 7270000      196  1.3001154e-07      18284.137 
 7280000      196  9.7456789e-08      18317.493 
 7290000      196  1.3307875e-07      18351.038 
 7300000      196  5.5473073e-08      18384.329 
 7310000      196  1.7319418e-07      18417.852 
 7320000      196  5.7084862e-08      18451.137 
 7330000      196  4.8579741e-08      18484.596 
 7340000      196  4.4713189e-08      18517.896 
 7350000      196  4.0167823e-08      18551.468 
 7360000      195  2.9509048e-08      18585.019 
 7370000      195  3.4815675e-08      18618.557 
 7380000      195  3.9639057e-08      18652.673 
 7390000      195  2.9081192e-08      18686.608 
 7400000      195  3.0164071e-08      18720.535 
 7410000      195  2.2738173e-07       18753.98 
 7420000      195  1.1549627e-07      18787.564 
 7430000      195  1.2967334e-06      18821.781 
 7440000      195   8.627138e-07      18855.291 
 7450000      195  7.0080669e-07      18888.471 
 7460000      194  2.0868774e-07      18921.204 
 7470000      193  9.6449145e-08      18953.812 
 7480000      193  8.9745978e-08      18986.611 
 7490000      193  8.2207694e-08       19019.48 
 7500000      193  1.8111552e-07      19052.511 
 7510000      193  7.7492581e-08      19085.629 
 7520000      192  3.8550784e-07      19118.757 
 7530000      192  7.8634939e-07      19151.971 
 7540000      192  9.1028001e-06      19185.099 
 7550000      192  3.3049639e-08      19218.166 
 7560000      192  3.8660476e-08      19251.897 
 7570000      192  3.9963558e-08      19285.303 
 7580000      192  3.1823926e-08      19318.819 
 7590000      192   1.497803e-08      19352.091 
 7600000      192  7.3571508e-09      19385.192 
 7610000      192  7.0845139e-08      19418.378 
 7620000      192  4.3473567e-08       19451.65 
 7630000      192  2.6494147e-08      19485.352 
 7640000      192  1.6900054e-08      19518.551 
 7650000      192  2.3073111e-08      19551.961 
 7660000      192  5.4701514e-08       19585.48 
 7670000      192  2.2895925e-07      19618.897 
 7680000      192  2.7425219e-07      19651.935 
 7690000      192  1.5870777e-07      19684.898 
 7700000      192  8.3244335e-07      19718.172 
 7710000      192  8.9934575e-08      19751.288 
 7720000      192  6.5671023e-08      19784.481 
 7730000      192  4.6606891e-08      19817.889 
 7740000      192  3.6960238e-08      19851.918 
 7750000      192  3.5737579e-08       19885.34 
 7760000      192  3.7477955e-08       19918.68 
 7770000      192  4.3981658e-08      19952.057 
 7780000      192  3.3850989e-08      19985.348 
 7790000      191  3.2927329e-07      20019.042 
 7800000      191  1.6671003e-07      20052.265 
 7810000      191  1.4031314e-07      20085.602 
 7820000      191  1.1881456e-07      20118.566 
 7830000      191  1.1665189e-07      20151.919 
 7840000      191  1.3614364e-07       20185.47 
 7850000      190  3.9453862e-07      20219.028 
 7860000      190  3.0634237e-07      20252.442 
 7870000      189  2.0554896e-07      20285.821 
 7880000      189  2.3397555e-07       20319.34 
 7890000      188  3.9263138e-08      20352.471 
 7900000      188  2.4569579e-08      20385.671 
 7910000      188  8.0842335e-08       20418.63 
 7920000      188  4.9121662e-08      20452.188 
 7930000      188  2.9924137e-06      20485.129 
 7940000      188  2.1681397e-07      20518.392 
 7950000      188  3.1307506e-07      20551.063 
 7960000      188  2.0703688e-07       20583.56 
 7970000      188  9.4664149e-08      20616.048 
 7980000      188  7.3545464e-08       20648.46 
 7990000      188  4.9039884e-08      20681.152 
 8000000      188  8.4413265e-08      20715.987 
 8010000      188  7.8741962e-08      20748.789 
 8020000      188  8.6207922e-08      20781.268 
 8030000      188   5.639567e-08      20813.827 
 8040000      188  6.2052116e-08      20846.596 
 8050000      188  5.5303569e-08      20879.584 
 8060000      188  6.1970386e-08      20912.272 
 8070000      188  8.6550786e-08      20945.131 
 8080000      188  5.9518796e-08       20978.51 
 8090000      188  8.1229831e-08      21011.684 
 8100000      188  7.1985645e-08      21045.328 
 8110000      188  2.7410992e-08      21078.657 
 8120000      188  1.3204981e-08      21111.701 
 8130000      188  1.3740659e-08      21144.809 
 8140000      188  2.5757866e-08      21178.106 
 8150000      188  5.3604195e-07      21211.188 
 8160000      188  7.9595505e-09      21244.524 
 8170000      188  1.0808537e-08       21277.52 
 8180000      188  1.1300517e-08      21310.464 
 8190000      188  7.0321478e-07      21343.953 
 8200000      188  7.6538046e-08      21377.242 
 8210000      188  3.3498553e-07      21411.883 
 8220000      188  2.9980402e-07        21445.6 
 8230000      188  2.7156428e-07       21479.32 
 8240000      188  2.5657649e-07       21512.87 
 8250000      187  5.1163294e-08      21547.522 
 8260000      186    1.24922e-08      21582.276 
 8270000      186   1.702348e-08      21618.497 
 8280000      186  5.0581673e-08      21651.881 
 8290000      186  1.5539325e-07      21684.748 
 8300000      186  2.1148876e-08       21717.78 
 8310000      186  1.5126807e-08      21750.715 
 8320000      186  8.2942568e-09      21783.693 
 8330000      186  5.6984149e-09      21816.859 
 8340000      186   7.351495e-09      21849.597 
 8350000      186  9.0382804e-09      21882.705 
 8360000      186  9.1257536e-09      21915.523 
 8370000      186  1.3262191e-08      21948.317 
 8380000      186  1.5032569e-08      21981.295 
 8390000      186  2.0856801e-08      22014.251 
 8400000      186  3.9144861e-09      22047.688 
 8410000      186  3.7186784e-09      22080.685 
 8420000      186  7.6737347e-09      22113.377 
 8430000      186  3.8488538e-09      22146.216 
 8440000      186   1.107687e-08      22179.412 
 8450000      186  4.1948666e-08      22212.291 
 8460000      186  1.0718109e-06      22246.356 
 8470000      186  8.2854056e-07       22280.16 
 8480000      185  1.5196383e-07       22314.05 
 8490000      185  2.4806888e-07      22347.472 
 8500000      185  8.7496394e-07        22380.9 
 8510000      185  3.5263642e-06        22414.4 
 8520000      183  4.1464924e-07      22448.616 
 8530000      181      2.704e-07      22481.373 
 8540000      181  2.9053539e-08      22513.747 
 8550000      181  2.5062036e-08       22546.17 
 8560000      181  7.5425478e-08      22579.036 
 8570000      181  3.9813502e-08      22611.771 
 8580000      181  7.7605776e-08      22644.262 
 8590000      181  3.6086309e-08      22676.744 
 8600000      181  2.0264478e-08      22709.927 
 8610000      181  5.1661321e-08      22742.786 
 8620000      181  4.5707763e-08      22775.362 
 8630000      181  3.5583325e-08      22807.719 
 8640000      181  1.7861958e-08      22841.033 
 8650000      181  2.9981834e-08      22873.659 
 8660000      181  1.0745814e-07      22906.111 
 8670000      181  5.0314786e-08       22938.66 
 8680000      181  3.9008232e-08      22971.005 
 8690000      181  3.6490514e-08      23003.138 
 8700000      181  3.4078332e-08      23035.653 
 8710000      181  9.2533485e-08      23068.052 
 8720000      181  2.2691682e-07      23101.365 
 8730000      181  2.6732251e-07      23134.221 
 8740000      181  2.1555833e-07      23167.326 
 8750000      181  2.2110772e-07      23201.033 
 8760000      181  1.9484288e-07      23234.025 
 8770000      180  8.9651617e-08      23266.956 
 8780000      180  5.6022183e-07      23300.498 
 8790000      180  9.1297262e-08      23334.584 
 8800000      180  1.0132771e-06      23367.927 
 8810000      180   8.228518e-07      23401.572 
 8820000      179   2.827528e-07      23435.623 
 8830000      179   2.283564e-07      23468.719 
 8840000      178  1.0027684e-07      23501.604 
 8850000      177   2.342675e-08      23534.275 
 8860000      177  3.2823465e-08      23566.803 
 8870000      177  2.3114278e-08      23599.117 
 8880000      177  2.8302599e-08      23631.732 
 8890000      177  2.9245269e-08      23664.243 
 8900000      177  2.5641207e-08      23696.847 
 8910000      177  2.9825366e-08      23729.269 
 8920000      177  4.5419565e-08      23761.839 
 8930000      177  6.9153028e-08      23794.397 
 8940000      177  5.6287796e-08       23826.95 
 8950000      177  1.6994108e-08      23859.367 
 8960000      177  1.3017827e-08        23891.7 
 8970000      177  8.1430534e-09      23924.122 
 8980000      177   1.411772e-06      23956.419 
 8990000      177  9.0722038e-07      23989.303 
 9000000      177  5.4838944e-09      24025.271 
 9010000      177  1.1345382e-08      24057.863 
 9020000      177  4.1337582e-08      24090.453 
 9030000      177  1.9602144e-08      24124.944 
 9040000      177  4.3899011e-09      24157.604 
 9050000      177   8.212237e-08      24190.424 
 9060000      177  5.6072639e-08      24223.029 
 9070000      177  3.0088532e-08      24257.651 
 9080000      177  3.9547764e-07      24290.787 
 9090000      177  3.2774345e-07      24323.344 
 9100000      177  3.0781396e-07      24355.886 
 9110000      176   1.053673e-07      24388.322 
 9120000      176  6.3167967e-08      24420.509 
 9130000      176  6.0990488e-08      24452.879 
 9140000      176  1.6201321e-07      24485.916 
 9150000      176  1.2755679e-07      24519.132 
 9160000      176   1.189583e-07      24551.883 
 9170000      176  1.0622842e-07      24587.433 
 9180000      176  4.7836188e-07      24627.201 
 9190000      176  1.1043489e-07      24665.136 
 9200000      175  2.8865076e-07      24700.576 
 9210000      174  4.5850986e-08       24733.28 
 9220000      174  1.7478054e-07      24766.396 
 9230000      174  5.9027151e-07      24799.157 
 9240000      174  4.4469748e-07      24831.907 
 9250000      174  3.9253792e-07       24864.54 
 9260000      174  2.8046501e-07      24897.237 
 9270000      173  1.0736257e-06      24930.706 
 9280000      172  1.1189136e-06      24964.597 
 9290000      171  4.5771393e-08      24997.225 
 9300000      171  2.0690284e-08      25030.489 
 9310000      171  1.7380355e-06      25062.983 
 9320000      171   3.009754e-08      25095.521 
 9330000      171  8.7064579e-08      25128.009 
 9340000      171  5.2599689e-08      25160.475 
 9350000      171  9.8363109e-08      25192.924 
 9360000      171  5.3896434e-08      25225.876 
 9370000      171  1.4683192e-07      25258.618 
 9380000      170  4.8585659e-08      25291.372 
 9390000      170  4.1512259e-08      25324.709 
 9400000      170  1.7431584e-08       25358.06 
 9410000      170  1.2430274e-08      25393.244 
 9420000      170  6.4701148e-08      25427.388 
 9430000      170  6.0194502e-09      25459.944 
 9440000      170  5.7144189e-09      25492.398 
 9450000      170  6.2405939e-08      25524.863 
 9460000      170  3.8755882e-07      25557.391 
 9470000      170   1.675458e-07      25590.276 
 9480000      170  7.8762873e-08       25628.21 
 9490000      170  1.5917945e-05      25662.524 
 9500000      170  6.4244837e-06      25695.013 
 9510000      170  2.2688695e-06      25729.938 
 9520000      170   3.166039e-07      25763.021 
 9530000      169  5.5166347e-08      25795.486 
 9540000      169  5.1163829e-08      25828.329 
 9550000      169  4.6976668e-08       25860.91 
 9560000      169  2.5062757e-08      25899.099 
 9570000      169  2.2264702e-08      25937.187 
 9580000      169  3.2823008e-08      25970.951 
 9590000      169  5.4251031e-08      26004.661 
 9600000      169  3.0607239e-08      26037.947 
 9610000      169  3.1543576e-08      26070.301 
 9620000      169  3.9980524e-08      26102.706 
 9630000      169   4.980744e-08      26134.932 
 9640000      169  1.7517746e-07      26167.092 
 9650000      169  7.6928718e-08      26199.557 
 9660000      169  1.8969506e-07       26231.82 
 9670000      169    1.40591e-06       26264.24 
 9680000      169   1.173197e-07      26296.439 
 9690000      168  4.7980602e-09      26329.318 
 9700000      168  6.1679688e-09      26361.164 
 9710000      168  2.0324881e-08      26392.922 
 9720000      168  1.0640319e-08      26425.193 
 9730000      168  1.0585039e-08      26456.974 
 9740000      168  3.4066591e-08      26488.538 
 9750000      168  1.2251086e-08      26520.507 
 9760000      168  7.4388692e-09       26552.36 
 9770000      168  4.6060846e-09      26584.096 
 9780000      168  3.9086129e-09      26615.901 
 9790000      168  3.8146738e-07      26648.348 
 9800000      168  2.0104531e-07      26681.197 
 9810000      168  1.1478919e-07      26712.991 
 9820000      168  8.0605753e-08      26744.939 
 9830000      168  1.7330098e-07      26776.903 
 9840000      168  1.3576524e-07      26809.436 
 9850000      168  6.7298716e-07      26841.402 
 9860000      168  2.4059706e-06      26873.508 
 9870000      168  1.8211567e-06       26905.36 
 9880000      168  7.8887541e-06      26937.338 
 9890000      168  7.7945906e-08      26969.059 
 9900000      168  5.6138746e-08      27001.009 
 9910000      168  4.8906325e-08      27033.492 
 9920000      168   2.505939e-07      27066.128 
 9930000      167  2.0418571e-07      27098.568 
 9940000      167  1.6657428e-07      27130.846 
 9950000      167  1.6920443e-07      27162.978 
 9960000      167  1.5267896e-07      27194.926 
 9970000      167  1.4341768e-07      27227.371 
 9980000      166  8.9865024e-08      27259.358 
 9990000      166  1.0021074e-07      27291.539 
10000000      165  1.3936672e-08       27326.09 
10010000      165  3.0569148e-08      27358.175 
10020000      165  1.7850239e-08      27390.389 
10030000      165   1.308027e-08      27422.578 
10040000      165   1.704071e-08       27454.75 
10050000      165  2.1108236e-08      27487.068 
10060000      165  2.7751752e-08      27519.397 
10070000      165  4.7023251e-08      27551.567 
10080000      165  4.5455792e-08      27584.073 
10090000      164  2.7598768e-07      27616.825 
10100000      164  3.0013465e-08      27648.928 
10110000      164  1.7869944e-07      27681.044 
10120000      164  2.0980151e-07      27713.601 
10130000      164  1.7820265e-07      27746.064 
10140000      164  1.3465304e-07      27778.478 
10150000      163  1.3110154e-08       27810.64 
10160000      163  1.0536591e-08      27842.836 
10170000      163   2.491144e-07      27874.822 
10180000      163  9.7790821e-09       27907.18 
10190000      163  1.4644724e-08       27939.32 
10200000      163  8.5260328e-09      27971.108 
10210000      163  1.4950373e-07       28003.07 
10220000      163  1.0809014e-07      28034.711 
10230000      163  5.0117132e-08      28066.889 
10240000      163  2.5559192e-07      28098.986 
10250000      163  5.4416354e-07      28131.858 
10260000      163  3.7974492e-07      28164.046 
10270000      163  1.9617692e-06      28196.454 
10280000      162  1.7421689e-07      28229.063 
10290000      162  4.1272725e-07      28261.792 
10300000      161  1.0960956e-06       28294.17 
10310000      161  1.2521263e-06      28326.395 
10320000      161  4.5862714e-07      28359.525 
10330000      160     2.1718e-07      28391.264 
10340000      160  2.8572431e-07      28422.872 
10350000      160  1.0195778e-07      28454.271 
10360000      159      5.747e-08      28485.955 
10370000      159  1.1404431e-07      28517.646 
10380000      159  1.2534071e-07      28549.692 
10390000      158  2.4427351e-07      28581.234 
10400000      158  8.2993933e-08      28613.449 
10410000      158  6.7322238e-08      28645.324 
10420000      158  5.3539717e-08      28678.136 
10430000      158  5.2850199e-08      28711.786 
10440000      158   4.615905e-08      28745.869 
10450000      158   5.314424e-08      28777.582 
10460000      158  4.8294261e-08      28809.204 
10470000      158  6.2949978e-08      28841.857 
10480000      158  1.5335255e-07      28873.549 
10490000      158  9.8242233e-08      28905.586 
10500000      158  1.2328134e-07        28937.7 
10510000      158  3.2148021e-07      28969.772 
10520000      157  1.2396246e-07      29001.771 
10530000      157   2.879219e-06      29033.636 
10540000      157  5.1599746e-07      29065.489 
10550000      157  1.1865322e-07      29097.793 
10560000      156  2.3432319e-08      29129.662 
10570000      156  2.9149387e-08      29161.565 
10580000      156  4.3557878e-08      29193.321 
10590000      156  8.2343868e-07      29224.949 
10600000      156  3.0753105e-08      29256.652 
10610000      156  2.5002814e-08      29288.465 
10620000      156  7.1563812e-08      29320.274 
10630000      156  2.4092666e-08      29352.126 
10640000      156  3.0746185e-08      29383.882 
10650000      156  3.7030118e-08      29416.249 
10660000      156  4.8538396e-08      29448.697 
10670000      155  3.1734963e-08      29480.302 
10680000      155  1.6071052e-07      29512.174 
10690000      155  2.4048211e-08      29543.893 
10700000      155  3.4771141e-08      29575.594 
10710000      155  1.7404627e-08       29607.15 
10720000      155  3.2612323e-07      29638.889 
10730000      155  7.2701975e-08      29671.071 
10740000      155  5.5654636e-07      29702.952 
10750000      155  2.1375469e-07      29734.719 
10760000      155  4.8848335e-08       29766.52 
10770000      155  1.3563227e-07      29798.487 
10780000      155   1.519482e-08       29829.86 
10790000      155  5.3024144e-08      29861.703 
10800000      155  9.9715382e-07      29893.929 
10810000      155  6.9230496e-08      29926.332 
10820000      155  3.1657195e-08      29958.152 
10830000      155  2.6915486e-08      29989.711 
10840000      155  8.8270821e-06       30022.88 
10850000      154   3.089468e-07      30055.964 
10860000      154  2.2397906e-07      30087.888 
10870000      154   1.936191e-07      30119.842 
10880000      153  1.6577313e-08      30151.254 
10890000      153  7.4064016e-09      30182.526 
10900000      153  7.4723118e-09      30213.878 
10910000      153  8.7974749e-09      30245.313 
10920000      153  7.1617441e-09      30277.509 
10930000      153  4.5174069e-09      30308.902 
10940000      153  6.8135917e-09      30340.535 
10950000      153  6.9300939e-09      30372.291 
10960000      153  1.1467004e-08      30403.981 
10970000      153  1.3467242e-08      30436.173 
10980000      153  1.5857445e-08      30470.115 
10990000      153  2.1662184e-08      30503.622 
11000000      153  1.1664248e-07       30538.44 
11010000      153  2.9926799e-07      30570.328 
11020000      153  1.5735312e-08      30602.539 
11030000      153  2.7531973e-09      30634.568 
11040000      153  7.2809166e-08        30666.2 
11050000      153  3.4514687e-09       30697.96 
11060000      153  2.8538329e-09      30729.265 
11070000      153  3.2434385e-09      30760.743 
11080000      153  2.3346484e-08      30792.179 
11090000      153  4.3303696e-09      30823.796 
11100000      153  3.9365613e-09      30855.202 
11110000      153  5.0080221e-09      30886.969 
11120000      153  3.4665109e-09      30918.304 
11130000      153  2.8663045e-09      30949.729 
11140000      153  2.5417679e-08       30981.29 
11150000      153  8.1618202e-09      31012.672 
11160000      153  5.0142601e-09      31044.011 
11170000      153  1.3376559e-08      31075.344 
11180000      153  1.9872842e-08      31106.777 
11190000      153  4.6767851e-09      31138.368 
11200000      153  6.3747514e-09       31169.85 
11210000      153  6.6141099e-09       31201.09 
11220000      153  4.1188934e-09      31232.962 
11230000      153  2.8993678e-09      31264.432 
11240000      153   1.204386e-08      31296.056 
11250000      153  5.1240647e-09      31327.961 
11260000      153  5.6862427e-09      31359.398 
11270000      153  6.3683122e-09      31391.037 
11280000      153   5.594593e-09      31422.702 
11290000      153  9.2152076e-09      31454.182 
11300000      153  4.4920156e-09      31485.572 
11310000      153  5.0081418e-09      31517.296 
11320000      153  1.8865029e-07      31548.754 
11330000      153  9.7177914e-08      31579.885 
11340000      153  6.8954011e-08      31610.866 
11350000      153  3.4240598e-08      31642.116 
11360000      153  2.7203033e-08      31673.332 
11370000      153  1.8506834e-08      31704.522 
11380000      153  2.1899361e-08      31735.685 
11390000      153  2.3179006e-08      31767.011 
11400000      153  3.9523978e-08      31798.605 
11410000      153  3.2685417e-08      31830.522 
11420000      153  3.4513152e-08      31861.898 
11430000      153  4.4104539e-08      31893.398 
11440000      153  2.0500365e-07      31925.176 
11450000      153  1.7739857e-07      31957.387 
11460000      153  1.7612284e-07      31989.525 
11470000      153  1.6051745e-07      32021.516 
11480000      153   3.415085e-07      32053.304 
11490000      152   2.160737e-08      32085.053 
11500000      152  6.1695918e-08      32118.332 
11510000      152  4.1615823e-08       32152.28 
11520000      152  1.2075233e-07      32186.683 
11530000      152  1.1922199e-07      32218.966 
11540000      152  8.8827681e-09      32251.505 
11550000      152  6.2323588e-09      32282.967 
11560000      152  1.7622433e-07      32314.466 
11570000      152  1.7167666e-08      32345.724 
11580000      152  1.5576367e-08      32377.196 
11590000      152  1.5674532e-08      32409.305 
11600000      152  2.9951985e-08      32440.958 
11610000      152  6.2781514e-08      32472.075 
11620000      152  2.0328462e-08      32503.358 
11630000      152  1.1628197e-08      32534.537 
11640000      152  1.3569961e-07      32565.982 
11650000      152  8.3928504e-08      32597.848 
11660000      152  1.8393808e-06       32632.25 
11670000      151  3.6956911e-08       32664.75 
11680000      151  2.0809021e-08      32696.577 
11690000      151   2.144073e-07      32728.416 
11700000      151  1.6890375e-07      32760.159 
11710000      151  7.7020217e-08      32791.889 
11720000      151  8.7593524e-08      32822.969 
11730000      151  4.9610573e-08       32854.25 
11740000      151  3.8175633e-08      32885.698 
11750000      151  3.5561715e-07      32916.973 
11760000      151  3.5140465e-08      32948.521 
11770000      151  1.2943271e-07      32979.955 
11780000      151  5.2911644e-08      33011.687 
11790000      151  7.0516953e-08      33043.247 
11800000      151  1.0327185e-07      33074.813 
11810000      151  1.3981023e-07      33106.825 
11820000      151  1.4327663e-07      33138.801 
11830000      150  7.3450007e-08      33170.408 
11840000      150  9.8340933e-08      33201.727 
11850000      150  1.0288663e-06      33233.326 
11860000      150  3.9232291e-06      33264.796 
11870000      150  2.1038452e-07      33296.712 
11880000      150  2.2459913e-07      33328.514 
11890000      148  1.6147424e-08      33360.243 
11900000      148  7.1970154e-09      33391.638 
11910000      148  6.0533047e-09      33422.929 
11920000      148  6.9593191e-09      33454.384 
11930000      148  1.0570956e-08      33485.721 
11940000      148   1.519328e-08      33517.532 
11950000      148  3.8935558e-09      33548.997 
11960000      148  5.5056925e-09      33580.619 
11970000      148  5.8074064e-09      33612.882 
11980000      148  3.1589702e-09      33644.624 
11990000      148  1.6988881e-08      33676.114 
12000000      148  8.2750772e-09      33710.167 
12010000      148  5.2648838e-08      33741.403 
12020000      148  3.6065056e-09      33772.966 
12030000      148  5.8974478e-09      33804.325 
12040000      148  3.1818928e-08      33835.884 
12050000      148  4.0385895e-09      33867.732 
12060000      148  1.3206368e-08      33899.257 
12070000      148  3.7259746e-09       33930.77 
12080000      148  6.5344058e-07      33962.164 
12090000      148  3.7071082e-07      33993.441 
12100000      148  6.6305679e-07       34024.48 
12110000      148  1.4826002e-07      34055.556 
12120000      148  9.6693988e-08      34086.541 
12130000      148  6.3237858e-08      34117.404 
12140000      148  4.5388906e-07      34148.474 
12150000      148  4.1258264e-07      34180.527 
12160000      147  3.8766564e-08      34212.521 
12170000      147  4.3688678e-08      34243.476 
12180000      147  5.1196449e-08      34274.692 
12190000      147  7.4350765e-08      34305.744 
12200000      147  8.6231451e-08      34336.595 
12210000      147  1.0517888e-07      34367.691 
12220000      146  6.9822202e-08      34399.088 
12230000      146  8.6349002e-08      34430.258 
12240000      146  4.7734021e-07      34461.618 
12250000      145  8.5339922e-08      34493.065 
12260000      145  5.9763769e-09      34523.875 
12270000      145  3.5560519e-09      34554.923 
12280000      145  2.0743797e-08      34585.921 
12290000      145  4.7829246e-08       34617.05 
12300000      145  8.8438452e-07      34648.363 
12310000      145  4.2538438e-09      34679.482 
12320000      145  4.1585265e-06      34710.606 
12330000      145  3.7037752e-06      34741.473 
12340000      145  1.7645358e-06      34772.707 
12350000      145  1.0884165e-08      34803.757 
12360000      145  5.5532385e-09      34835.333 
12370000      145  9.4503926e-09      34866.442 
12380000      145  5.6706362e-09      34897.976 
12390000      145  3.5704864e-09      34929.928 
12400000      145   2.985964e-09      34961.204 
12410000      145  1.3983437e-08      34993.056 
12420000      145  4.5661339e-09      35024.339 
12430000      145  8.1555878e-09      35056.217 
12440000      145  3.7855465e-09      35087.848 
12450000      145  3.7077168e-09      35118.824 
12460000      145  3.1130816e-09      35150.389 
12470000      145  9.8640207e-09       35181.58 
12480000      145  6.3396935e-09      35212.693 
12490000      145  4.9502042e-09      35243.665 
12500000      145  6.8730281e-09      35274.813 
12510000      145  2.0017749e-08        35306.4 
12520000      145  3.2600891e-08      35337.522 
12530000      145  4.5199419e-07      35369.253 
12540000      145  8.2591171e-08       35400.68 
12550000      145  1.8930781e-07      35432.547 
12560000      145  2.0863574e-07      35463.845 
12570000      145  4.9672821e-08      35495.202 
12580000      145  3.6882648e-08      35526.287 
12590000      144  7.5541612e-09      35557.521 
12600000      144  4.9922328e-06      35588.373 
12610000      144  3.1764079e-08      35619.394 
12620000      144  1.1896683e-08      35650.084 
12630000      144  5.8275771e-09      35680.807 
12640000      144  3.1452463e-07      35712.053 
12650000      144  1.9818379e-08      35743.157 
12660000      144  1.5251231e-06      35774.354 
12670000      144  1.4357241e-06      35807.493 
12680000      143  7.2091677e-07      35839.465 
12690000      143  1.2691608e-06      35870.652 
12700000      143    1.35118e-08      35901.963 
12710000      143  2.0915477e-08      35933.338 
12720000      143  3.5092155e-09      35964.533 
12730000      143  1.4101492e-07      35996.949 
12740000      143  2.7251323e-08      36030.268 
12750000      143  6.3913011e-09      36064.757 
12760000      143  1.5871666e-07      36097.053 
12770000      143  4.2001084e-07      36128.559 
12780000      143   1.221359e-05      36159.984 
12790000      143  3.7520298e-07      36191.394 
12800000      143  1.6033744e-08      36222.692 
12810000      143  1.8257726e-07      36253.782 
12820000      143   4.056765e-07      36285.991 
12830000      143  2.1247267e-07      36318.127 
12840000      143  1.0338593e-07      36349.684 
12850000      143  1.0782506e-07      36381.238 
12860000      143  9.2541456e-08       36412.55 
12870000      143  9.2245262e-08      36443.833 
12880000      142  1.2731211e-08      36475.056 
12890000      142  1.4946149e-08       36506.17 
12900000      142  7.2508843e-07       36537.35 
12910000      142  9.7836023e-07       36569.56 
12920000      142  3.2211423e-07      36601.314 
12930000      142  2.5503014e-07      36633.342 
12940000      141  2.6273874e-08      36664.666 
12950000      141  2.2798403e-08      36695.839 
12960000      141  2.4975752e-08      36726.869 
12970000      141  2.8229899e-08       36758.64 
12980000      141  4.8440461e-08      36789.988 
12990000      141   3.969787e-08      36821.043 
13000000      141  3.0927741e-08      36854.701 
13010000      141   2.965561e-08      36885.853 
13020000      141  4.3209343e-08      36917.026 
13030000      141  4.1980504e-08      36948.227 
13040000      141  4.1098101e-08       36979.44 
13050000      141  9.1217958e-09      37010.564 
13060000      141   1.627772e-07      37041.537 
13070000      141  2.3512564e-08      37072.929 
13080000      141  6.2366976e-07      37104.335 
13090000      141  1.0356913e-08      37136.037 
13100000      141  5.6736333e-09       37167.45 
13110000      141  3.8642962e-07      37198.689 
13120000      141  2.9117627e-07      37230.919 
13130000      141  2.4765131e-07      37262.639 
13140000      141  2.0275767e-07      37294.195 
13150000      140  2.7803053e-08      37325.339 
13160000      140  1.4408827e-08      37356.694 
13170000      140   1.020009e-08      37387.813 
13180000      140  1.4205864e-08      37418.784 
13190000      140  1.4565483e-08      37449.743 
13200000      140  1.2962322e-08      37481.546 
13210000      140  1.6073946e-08      37512.461 
13220000      140  1.5720264e-08      37543.612 
13230000      140   3.233791e-08      37574.604 
13240000      140  1.2832227e-08      37605.649 
13250000      140    1.78194e-08      37637.302 
13260000      140  1.7420362e-08      37668.535 
13270000      140  8.0735552e-08      37699.615 
13280000      140  2.0840645e-08      37730.618 
13290000      140  5.5593906e-09      37761.832 
13300000      140  7.8717786e-09      37792.908 
13310000      140  6.1028608e-09      37824.401 
13320000      140  6.6829072e-09      37855.346 
13330000      140  2.7779322e-08      37886.947 
13340000      140  3.0116231e-09      37917.642 
13350000      140  2.1575091e-06       37948.62 
13360000      140    5.38341e-06      37979.519 
13370000      140  4.8352939e-08      38011.259 
13380000      140  4.8531402e-08      38042.665 
13390000      140  1.0328602e-06      38074.429 
13400000      140  9.3600414e-07      38106.468 
13410000      139   1.100909e-06      38138.393 
13420000      138  9.0304612e-09      38169.676 
13430000      138  3.1031739e-08      38200.803 
13440000      138  2.5844366e-08      38231.901 
13450000      138  6.9772377e-09      38262.801 
13460000      138  3.0236377e-09      38294.268 
13470000      138   3.160265e-09      38325.127 
13480000      138  2.8990971e-09      38356.125 
13490000      138  3.0286914e-09      38387.122 
13500000      138  3.0891573e-09      38418.331 
13510000      138  3.9923108e-08      38449.172 
13520000      138  9.4222431e-09      38479.706 
13530000      138  6.8211767e-09      38510.561 
13540000      138  3.0485992e-07       38541.86 
13550000      138  4.9318041e-09       38572.78 
13560000      138  5.3230877e-09      38603.703 
13570000      138  3.4164544e-09      38634.451 
13580000      138  4.2025108e-09      38665.452 
13590000      138   4.705828e-08      38696.132 
13600000      138  5.2053456e-09      38726.813 
[...]
16070000      126  5.1999576e-09      46709.016 
16080000      126  2.9955071e-09      46742.036 
16090000      126  3.1781629e-09      46775.505 
16100000      126   2.242684e-07      46811.243 
16110000      126  1.2539733e-08      46844.362 
16120000      126  9.5966112e-09      46876.436 
16130000      126  3.7990834e-09      46908.021 
16140000      126  6.0559152e-09      46939.577 
16150000      126  2.5561618e-08      46970.928 
16160000      126  8.9865728e-09       47002.85 
16170000      126  1.1547611e-08      47034.235 
16180000      126   3.722566e-09      47066.318 
16190000      126    3.26984e-09       47097.76 
16200000      126  5.3583402e-09      47129.584 
16210000      126  3.4455542e-09      47161.623 
16220000      126  3.2900987e-09      47193.439 
16230000      126  2.9453672e-09      47225.104 
16240000      126    1.14838e-08       47257.71 
16250000      126  5.6736224e-07      47289.756 
16260000      126   5.008249e-09      47321.321 
16270000      126  5.4845067e-09      47353.119 
16280000      126  5.9783421e-09      47385.022 
16290000      126  8.2465551e-09      47417.833 
16300000      126  6.0670931e-09      47449.896 
16310000      126  7.3412334e-09      47481.656 
16320000      126  2.8232335e-09      47513.332 
16330000      126  5.6270702e-09      47544.862 
16340000      126  3.6579424e-09      47576.438 
16350000      126  6.6953609e-08      47608.397 
16360000      126  1.8781583e-07      47640.113 
16370000      126  3.5154945e-07       47672.05 
16380000      126   1.223025e-07      47703.798 
16390000      126  5.5665935e-08      47735.748 
16400000      126  4.8274146e-08      47768.137 
16410000      126  3.5157216e-07      47799.997 
16420000      126  3.8040502e-08      47832.224 
16430000      126  3.0220909e-08      47864.123 
16440000      125  2.4230049e-07       47897.02 
16450000      125   2.464975e-06      47928.418 
16460000      125  5.2286683e-09      47960.506 
16470000      125  3.4444877e-09      47991.904 
16480000      125  5.9528099e-09      48023.875 
16490000      125  4.6844185e-09      48055.152 
16500000      125  5.8587474e-09      48086.581 
16510000      125  1.7143597e-07      48119.095 
16520000      125  3.7074488e-09       48152.19 
16530000      125  3.1922555e-09      48184.996 
16540000      125  1.2185552e-08      48218.195 
16550000      125  1.0778154e-08      48249.457 
16560000      125  4.3933622e-09      48281.247 
16570000      125  5.1811386e-07      48312.849 
16580000      125  1.2671873e-05      48346.921 
16590000      125  4.1569163e-07      48381.982 
16600000      124  1.6006269e-08      48418.323 
16610000      124  2.5217148e-07      48452.753 
16620000      124  1.3148315e-08      48493.008 
16630000      124  7.3572928e-08      48532.979 
16640000      124  1.0986014e-08       48565.12 
16650000      124   1.483778e-06      48597.754 
16660000      124  1.4711566e-08      48632.836 
16670000      124  1.2128521e-08      48670.425 
16680000      124  5.2449158e-08      48705.484 
16690000      124    1.71014e-08      48740.376 
16700000      124  1.1482485e-08      48773.956 
16710000      124  1.2921443e-08      48809.028 
16720000      124  3.2774372e-09      48842.716 
16730000      124  9.9095414e-09      48876.623 
16740000      124  1.7589531e-08      48916.563 
16750000      124  4.4254206e-09      48961.429 
16760000      124  4.4191123e-09      48992.698 
16770000      124  3.6096114e-09      49021.803 
16780000      124  1.5316719e-06      49050.874 
16790000      124  3.5628884e-09      49079.952 
16800000      124  4.4533489e-09      49108.977 
16810000      124  3.5506224e-08      49138.074 
16820000      124  2.3460666e-07      49167.423 
16830000      124  2.2419052e-08      49200.367 
16840000      124  2.5313128e-07      49232.383 
16850000      124  2.6109428e-07      49262.328 
16860000      124  1.4861471e-07      49292.046 
16870000      124  1.3220007e-07      49323.726 
16880000      124  7.1505024e-07      49359.273 
16890000      123  5.8014303e-08      49394.048 
16900000      123  2.7125722e-08      49423.424 
16910000      123  1.4480943e-06      49457.274 
16920000      123  1.3169491e-05      49486.953 
16930000      123  1.1541455e-08      49516.041 
16940000      123  1.4971695e-08      49545.201 
16950000      123  1.3367142e-07      49574.825 
16960000      123  3.7439235e-08      49604.169 
16970000      123  3.4060502e-08      49633.549 
16980000      123  1.3989955e-08      49662.799 
16990000      123  1.1903494e-08      49691.925 
17000000      123   3.777939e-08      49723.942 
17010000      123  1.2026287e-08      49753.434 
17020000      123  1.2151245e-08      49782.791 
17030000      123  1.2278196e-08       49812.42 
17040000      123  1.1563477e-08      49841.451 
17050000      123  1.5571539e-08      49872.343 
17060000      123  1.7677697e-08      49911.257 
17070000      123  7.2744452e-09      49944.004 
17080000      123    5.32572e-09      49973.231 
17090000      123  3.8237768e-07      50002.319 
17100000      123  2.4596831e-08       50031.94 
17110000      123  6.3269551e-07      50061.351 
17120000      123  4.4381527e-06      50091.115 
17130000      123  3.9215165e-09      50121.176 
17140000      123  5.0202852e-09      50150.426 
17150000      123  8.3670576e-09      50179.817 
17160000      123  7.1524711e-07      50210.933 
17170000      123  3.2671644e-09      50240.347 
17180000      123  3.9013371e-09      50269.889 
17190000      123  5.8764149e-09      50299.393 
17200000      123  1.1327789e-06      50328.426 
17210000      123  7.9152125e-07      50357.888 
17220000      123  1.4554803e-08      50387.957 
17230000      123  1.1149075e-08      50418.686 
17240000      123  1.1107074e-08      50449.797 
17250000      123  9.0203981e-09       50481.92 
17260000      123  7.0586677e-09      50511.044 
17270000      123  6.2199106e-09      50549.452 
17280000      123  9.1378068e-09      50580.823 
17290000      123  4.6556268e-09      50610.206 
17300000      123  3.2669826e-09      50639.659 
17310000      123  3.4326838e-09      50669.242 
17320000      123   2.923122e-09      50698.821 
17330000      123   2.971143e-09      50727.938 
17340000      123  3.1201835e-09      50757.267 
17350000      123  4.1196055e-07      50786.471 
17360000      123  3.7635078e-09      50815.511 
17370000      123  2.7123879e-09      50844.653 
17380000      123  4.2117286e-09      50874.129 
17390000      123  7.4459302e-06      50903.435 
17400000      123  4.8420104e-09      50932.815 
17410000      123  5.5497161e-09      50961.979 
17420000      123  4.4041078e-07        50991.4 
17430000      123  3.0823493e-09       51021.24 
17440000      123  3.3216561e-09      51050.482 
17450000      123  7.9713583e-08      51081.236 
17460000      123  1.8897386e-07      51110.713 
17470000      123  5.8457887e-08      51140.446 
17480000      123  2.0454638e-06      51171.411 
17490000      122  3.2856577e-07      51201.993 
17500000      122  2.7595834e-08       51231.12 
17510000      122  1.9187012e-08      51259.974 
17520000      122  1.0465954e-08      51288.739 
17530000      122   1.177363e-08      51317.556 
17540000      122  1.8193846e-08      51346.491 
17550000      122  1.9089646e-08      51375.524 
17560000      122  2.7108417e-08      51404.834 
17570000      122     2.2651e-08       51434.36 
17580000      122  2.0197306e-08      51463.704 
17590000      122  2.9027502e-08      51492.944 
17600000      122  5.9962923e-08      51522.303 
17610000      122  2.0804031e-08      51551.613 
17620000      122  7.9389976e-09      51580.745 
17630000      122  7.4489599e-09      51610.332 
17640000      122  5.2721365e-09      51639.335 
17650000      122  7.3625614e-09      51668.241 
17660000      122  5.5311045e-09       51697.29 
17670000      122  3.1922085e-09      51726.279 
17680000      122   1.568717e-08      51755.507 
17690000      122  3.0779587e-09      51785.445 
17700000      122  3.1919281e-09      51814.621 
17710000      122  3.3062295e-09      51843.605 
17720000      122  3.2633162e-09      51872.884 
17730000      122  3.0695058e-09      51902.021 
17740000      122  3.1140894e-09      51931.191 
17750000      122  3.1206048e-09       51960.29 
17760000      122  4.3590657e-08      51989.387 
17770000      122  4.5911487e-09      52018.504 
17780000      122  3.5577151e-09      52047.523 
17790000      122  1.5607248e-07      52076.831 
17800000      122  1.3960736e-07      52106.352 
17810000      122  1.1766039e-07      52136.073 
17820000      122   1.064348e-07      52165.742 
17830000      122  8.7224678e-08      52195.696 
17840000      121  4.9868525e-09      52224.972 
17850000      121  1.8320889e-08      52253.915 
17860000      121  2.4776657e-07      52283.437 
17870000      121  3.2073755e-08      52312.458 
17880000      121  2.0444498e-08       52341.67 
17890000      121  2.6195599e-08      52371.007 
17900000      121  2.3195689e-08      52400.243 
17910000      121   2.463961e-08      52429.295 
17920000      121  2.6390082e-08      52458.411 
17930000      121  2.7566646e-08      52487.393 
17940000      121  3.1600467e-07        52516.5 
17950000      121  3.1064062e-08      52545.414 
17960000      121  1.7945241e-08      52574.187 
17970000      121  2.8254838e-06      52603.456 
17980000      121  4.0641778e-07      52633.468 
17990000      121  4.3469171e-07      52663.154 
18000000      120  8.8638289e-09      52695.061 
18010000      120  6.2946177e-09       52724.11 
18020000      120  5.4922639e-09      52753.113 
18030000      120  4.8117474e-09      52782.082 
18040000      120  1.4933012e-08      52811.589 
18050000      120  1.9272401e-06      52840.809 
18060000      120  3.0406917e-06      52870.186 
18070000      120  4.7778449e-07      52899.289 
18080000      120  5.6710042e-08       52928.56 
18090000      120  7.4092889e-08      52957.501 
18100000      120  3.9155846e-08      52986.496 
18110000      120  9.7380694e-08      53015.283 
18120000      120  2.5568672e-08      53044.229 
18130000      119  3.2358185e-08      53073.038 
18140000      119  4.7138645e-09      53101.836 
18150000      119  2.7768546e-09      53130.515 
18160000      119  4.4771696e-09      53159.311 
18170000      119  2.5595533e-09      53187.926 
18180000      119  2.9348051e-09      53216.605 
18190000      119  2.5158209e-09      53245.305 
18200000      119  1.0987306e-08      53274.145 
18210000      119  2.8685876e-06      53304.021 
18220000      119  6.6418366e-08       53333.08 
18230000      119  6.0300514e-09      53361.885 
18240000      119  1.6344743e-08       53391.17 
18250000      119  1.7848935e-08      53420.041 
18260000      119  1.2373571e-08      53448.908 
18270000      119  6.3202531e-06      53478.634 
18280000      119  2.8943505e-09      53507.642 
18290000      119  2.7822696e-09      53536.897 
18300000      119   3.825508e-09      53569.436 
18310000      119   4.150542e-09      53602.991 
18320000      119  3.5089287e-09      53633.559 
18330000      119  2.7403073e-09       53663.91 
18340000      119    5.50747e-08      53695.904 
18350000      119   2.720621e-09      53727.088 
18360000      119  2.5768434e-09      53759.249 
18370000      119  3.3020799e-09      53798.539 
18380000      119  2.6003087e-09      53833.477 
18390000      119  3.7833071e-09       53868.74 
18400000      119  2.7420316e-09      53903.252 
18410000      119  2.7032881e-09      53938.654 
18420000      119  2.7201158e-09      53971.971 
18430000      119  2.6354961e-09      54003.734 
18440000      119  2.6621787e-09      54041.324 
18450000      119  2.8480278e-09      54070.327 
18460000      119  3.3639487e-09      54099.018 
18470000      119  4.0310545e-09      54127.798 
18480000      119  6.7043106e-09      54156.474 
18490000      119  3.0321227e-09      54187.423 
18500000      119  3.2124635e-09      54216.296 
18510000      119  3.3101574e-09      54245.366 
18520000      119  1.9538108e-08      54274.465 
18530000      119   3.156534e-09      54303.183 
18540000      119  3.0104144e-09      54331.701 
18550000      119  3.3232904e-09      54362.287 
18560000      119  4.3758092e-09      54392.877 
18570000      119  5.9581166e-09      54424.047 
18580000      119  3.0035449e-09      54452.618 
18590000      119  3.1780967e-09      54481.183 
18600000      119  1.1956872e-07      54512.758 
18610000      119  3.4239237e-09      54545.031 
18620000      119  4.4737118e-09      54574.595 
18630000      119  3.0309099e-09      54605.112 
18640000      119  3.1822573e-09      54637.404 
18650000      119  3.1581628e-09       54667.25 
18660000      119  4.6909313e-07       54696.09 
18670000      119  3.3823991e-09      54727.097 
18680000      119  5.2382848e-09      54759.198 
18690000      119  1.5302638e-08      54796.083 
18700000      119  6.4244146e-09      54825.488 
18710000      119   6.153315e-09      54854.398 
18720000      119  7.4505109e-09      54883.217 
18730000      119  3.3434577e-09       54912.46 
18740000      119  3.1715086e-09      54941.272 
18750000      119  2.2651972e-08      54970.029 
18760000      119  3.1045494e-09      54999.672 
18770000      119  6.3435724e-09      55028.715 
18780000      119   7.159517e-09      55065.387 
18790000      119  3.0489349e-09      55095.423 
18800000      119  3.2432615e-09      55127.874 
18810000      119  3.0370576e-09      55163.656 
18820000      119  3.0163957e-09      55202.411 
18830000      119  1.9813702e-07      55241.269 
18840000      119  2.7846574e-09      55276.419 
18850000      119   5.191673e-09      55312.127 
18860000      119  3.5088775e-07      55348.049 
18870000      119  8.3131004e-09      55381.714 
18880000      119  9.3897643e-07      55413.933 
18890000      119  5.2423545e-06      55446.405 
18900000      118  6.1135251e-09      55477.467 
18910000      118  6.5314964e-08      55507.336 
18920000      118  5.3671929e-09      55539.469 
18930000      118  5.8815742e-09      55571.394 
18940000      118  5.7347825e-09      55603.569 
18950000      118  5.4214705e-09      55634.956 
18960000      118  1.1868712e-06      55666.684 
18970000      118  5.7817328e-07      55697.224 
18980000      118   4.192852e-09       55728.63 
18990000      118  5.6603326e-06      55768.395 
19000000      118  1.0160107e-07      55801.267 
19010000      118  9.0210767e-08      55832.092 
19020000      118  5.3482018e-08      55861.084 
19030000      118   2.154496e-08      55890.022 
19040000      118  1.4479258e-08       55925.04 
19050000      118  9.8494169e-09          55958 
19060000      118  6.5915565e-09      55990.675 
19070000      118  8.7734514e-08      56021.277 
19080000      118  2.6757336e-08      56050.982 
19090000      118  1.1513565e-06      56085.783 
19100000      118  1.5210191e-07      56116.289 
19110000      118  9.4188873e-08      56149.416 
19120000      118  6.8352037e-08      56183.548 
19130000      118   2.917375e-08      56213.433 
19140000      118  5.6984365e-07      56244.661 
19150000      118  4.5123183e-08      56276.259 
19160000      118   5.199167e-08      56311.797 
19170000      118  6.4598966e-08       56347.86 
19180000      118   7.380699e-07       56381.96 
19190000      118  1.2667188e-07      56416.021 
19200000      118   2.072218e-07      56446.943 
19210000      117  2.8998106e-09      56477.576 
19220000      117   2.859343e-09       56507.85 
19230000      117  3.1585245e-09      56537.738 
19240000      117  2.4860339e-09      56567.968 
19250000      117  2.9431947e-08      56597.973 
19260000      117  3.2029153e-09      56627.208 
19270000      117  3.0457925e-09      56656.323 
19280000      117  3.9194019e-09      56687.416 
19290000      117  3.6894261e-09       56718.65 
19300000      117  9.1670089e-06      56751.127 
19310000      117  2.9534784e-09      56794.661 
19320000      117  2.6366728e-09      56831.041 
19330000      117  2.6781138e-09      56859.943 
19340000      117  2.6188066e-09      56889.479 
19350000      117  2.6975883e-09      56919.909 
19360000      117   1.156422e-08      56949.138 
19370000      117  2.7379028e-09      56978.111 
19380000      117   2.775098e-09      57013.147 
19390000      117  2.6235279e-09      57050.241 
19400000      117  3.1643058e-09      57083.708 
19410000      117  4.4418388e-08      57120.603 
19420000      117  1.5154604e-07      57152.161 
19430000      117  3.1185526e-09        57183.1 
19440000      117  1.2546878e-08      57213.613 
19450000      117   2.809181e-09      57242.756 
19460000      117  3.2051432e-09      57272.732 
19470000      117  2.8171832e-09      57303.013 
19480000      117  5.5302141e-07      57332.378 
19490000      117  2.8698686e-09      57361.347 
19500000      117  1.6944685e-08      57391.522 
19510000      117  4.0160362e-09      57425.478 
19520000      117  2.8985332e-09      57459.561 
19530000      117  2.9314917e-09      57489.015 
19540000      117  2.9850899e-09      57520.477 
19550000      117   1.722077e-07      57559.254 
19560000      117  4.6819194e-09      57596.023 
19570000      117  3.0767109e-09      57626.867 
19580000      117  3.9448406e-09      57656.209 
19590000      117  3.4368644e-09      57687.322 
19600000      117  2.9987535e-09      57718.428 
19610000      117  3.2316698e-09      57750.035 
19620000      117  3.1921133e-09      57779.409 
19630000      117  3.5288185e-09      57808.924 
19640000      117  3.0468118e-09      57837.873 
19650000      117  2.9729102e-09      57867.955 
19660000      117  7.1921429e-09      57897.953 
19670000      117   3.110365e-09       57927.72 
19680000      117  4.1642558e-09      57956.645 
19690000      117  4.9470115e-09      57985.844 
19700000      117  3.3455035e-09      58014.836 
19710000      117  6.3854412e-09      58043.905 
19720000      117  5.1801369e-09      58073.094 
19730000      117  1.9902548e-08      58102.191 
19740000      117  5.5865699e-09      58131.731 
19750000      117  1.5593737e-06      58160.555 
19760000      117  3.6875672e-09      58189.826 
19770000      117  5.1095708e-09      58218.954 
19780000      117  3.6722562e-09      58248.053 
19790000      117   4.140486e-09      58277.201 
19800000      117  3.9172584e-08      58306.174 
19810000      117  1.6302275e-08      58335.181 
19820000      117  3.1484689e-09      58364.073 
19830000      117  3.1492499e-09       58393.18 
19840000      117  3.1716268e-09      58422.006 
19850000      117  2.2620977e-07      58450.917 
19860000      117  9.5379157e-09      58479.854 
19870000      117  3.0767587e-09      58508.707 
19880000      117  1.0371986e-07        58537.8 
19890000      117  3.2697578e-09      58566.826 
19900000      117  2.8012758e-07      58596.022 
19910000      117   3.065302e-09      58624.872 
19920000      117   3.103956e-09       58654.05 
19930000      117  2.3711667e-08      58682.864 
19940000      117  2.7719883e-08      58712.171 
19950000      117  4.5455196e-09       58741.11 
19960000      117  6.6293976e-09      58770.126 
19970000      117  7.8229672e-09      58799.431 
19980000      117  1.1141812e-08      58828.147 
19990000      117  6.0815455e-09      58856.978 
20000000      117  2.6680874e-08      58888.366 
20010000      117  4.5846186e-09       58917.29 
20020000      117    5.46005e-09      58946.236 
20030000      117  2.0248214e-08      58975.058 
20040000      117  3.3822095e-09      59003.998 
20050000      117   5.361905e-09      59032.941 
20060000      117  1.9406614e-05      59062.543 
20070000      117  2.2725221e-08      59091.538 
20080000      117  9.2049445e-09      59120.786 
20090000      117  6.3105434e-09      59149.922 
20100000      117  3.0303219e-08      59180.125 
20110000      117  9.7624475e-08      59209.437 
20120000      117  9.6311186e-08      59238.689 
20130000      117  7.4412977e-08      59268.028 
20140000      117 