LIGGGHTS (Version LIGGGHTS-PUBLIC 3.8.0, compiled 2026-05-19-03:04:00 by root, git commit 3d5c00f20519e6bb6eb6756f51f1ad36564e649d)
##################################Header for General commands#######################################################

atom_style	granular		#Simulation of particles

boundary	f f f			#fixed boundaries -> particles will be deleted if leaving the simulation box

units		si

communicate	multi vel yes		#default

newton		off			#default


###################################System variables##################################################################

#Definition of boundaries

variable xmin equal -0.02
variable xmax equal 0.43

variable ymin equal -0.02
variable ymax equal 0.06

variable zmin equal -0.02
variable zmax equal 0.07

#Definition of the timestep

variable dt equal 1e-6


###################################Specific variables for current simulation#########################################

variable natoms equal 2 				#1 -> particle #2 ->pipe and screw


####variable for material properties####

####Young Modulus####
variable	youngmodulus1	equal 	7e6
variable	youngmodulus2	equal 	2e8

####Poission ratio####
variable 	poission1	equal	0.30
variable 	poission2	equal	0.29


####variable for contact properties####

####coefficient of restitution####
variable	CoR11	equal	0.6
variable	CoR12	equal	0.8
variable	CoR21	equal	0.8
variable	CoR22	equal	0.45

####sliding friction coefficient####
variable	sf11	equal	0.65	#Particle-particle sliding friction coefficient
variable	sf12	equal	0.5
variable	sf21	equal	0.5
variable	sf22	equal	0.0

####rolling friction coefficient####
variable	rf11	equal	0.75	#Particle-particle rolling friction coefficient
variable	rf12	equal	0.4
variable	rf21	equal	0.4
variable	rf22	equal	0.0


####variable for particle####

#Number of particle radius
variable	nradii	equal	3

variable	radius1	equal	0.0005	#m
variable	radius2	equal	0.0005	#m
variable	radius3	equal	0.0005	#m

variable	frac1	equal	0.3945
variable	frac2	equal	0.4059
variable	frac3	equal	0.1996

variable	density	equal	1000		#kg/m³


####filling parameters####

variable	filltime	equal	0.2		#s, prueba rápida: alimentar 2 s

variable	dischargetime	equal	5		#s, tiempo para que puedan salir partículas

variable	fillmass	equal	0.0001 		#kg, 2 g de material

variable	fillmassrate	equal	${fillmass}/${filltime}	#kg/s
variable	fillmassrate	equal	0.0001/${filltime}	
variable	fillmassrate	equal	0.0001/0.2	

variable	fillsteps	equal	${filltime}/${dt}
variable	fillsteps	equal	0.2/${dt}
variable	fillsteps	equal	0.2/1e-06

variable	dischargesteps	equal	${dischargetime}/${dt}
variable	dischargesteps	equal	5/${dt}
variable	dischargesteps	equal	5/1e-06


####screw velocities####

variable	screwPeriod	equal	0.5		#s, prueba rápida: 2 vueltas/s


###################################Definition of simulationbox#######################################################

region		reg block ${xmin} ${xmax} ${ymin} ${ymax} ${zmin} ${zmax} units box
region		reg block -0.02 ${xmax} ${ymin} ${ymax} ${zmin} ${zmax} units box
region		reg block -0.02 0.43 ${ymin} ${ymax} ${zmin} ${zmax} units box
region		reg block -0.02 0.43 -0.02 ${ymax} ${zmin} ${zmax} units box
region		reg block -0.02 0.43 -0.02 0.06 ${zmin} ${zmax} units box
region		reg block -0.02 0.43 -0.02 0.06 -0.02 ${zmax} units box
region		reg block -0.02 0.43 -0.02 0.06 -0.02 0.07 units box

create_box	2 reg
Created orthogonal box = (-0.02 -0.02 -0.02) to (0.43 0.06 0.07)
  6 by 2 by 2 MPI processor grid

neighbor	0.005 bin

neigh_modify	delay 0


#################################Definition of the contact models####################################################

pair_style gran model hertz tangential history rolling_friction epsd2
WARNING: 
	The contact model you specified is not located in any whitelist.
	Because of this the model will be run in an unoptimized version (increasing runtime by up to 20%).
	In order to optimize this model you have the following options:
		(i)  Run the genAutoExamplesWhitelist.sh script in your LIGGGHTS(R) source folder to automatically parse the input script
		(ii) Add the model combination by hand to your style_contact_model_user.whitelist that can be found in your LIGGGHTS(R) source folder
		(iii) Use the ENABLE_MODEL_* flag when building with cmake.
	If you perform one of the steps above LIGGGHTS(R) needs to be recompiled to generate the optimized code.

 (../contact_models.h:365)

pair_coeff	* *

timestep ${dt}
timestep 1e-06

thermo 1000

fix		integrator all nve/sphere

fix		gravi all gravity 9.81 vector 0.0 0.0 -1.0


###################################Definition of Material properties#################################################

fix 		m1 all property/global youngsModulus peratomtype ${youngmodulus1} ${youngmodulus2}
fix 		m1 all property/global youngsModulus peratomtype 7000000 ${youngmodulus2}
fix 		m1 all property/global youngsModulus peratomtype 7000000 200000000

fix 		m2 all property/global poissonsRatio peratomtype ${poission1} ${poission2}
fix 		m2 all property/global poissonsRatio peratomtype 0.3 ${poission2}
fix 		m2 all property/global poissonsRatio peratomtype 0.3 0.29

fix 		m3 all property/global coefficientRestitution peratomtypepair ${natoms} ${CoR11} ${CoR12} ${CoR21} ${CoR22}
fix 		m3 all property/global coefficientRestitution peratomtypepair 2 ${CoR11} ${CoR12} ${CoR21} ${CoR22}
fix 		m3 all property/global coefficientRestitution peratomtypepair 2 0.6 ${CoR12} ${CoR21} ${CoR22}
fix 		m3 all property/global coefficientRestitution peratomtypepair 2 0.6 0.8 ${CoR21} ${CoR22}
fix 		m3 all property/global coefficientRestitution peratomtypepair 2 0.6 0.8 0.8 ${CoR22}
fix 		m3 all property/global coefficientRestitution peratomtypepair 2 0.6 0.8 0.8 0.45

fix 		m4 all property/global coefficientFriction peratomtypepair ${natoms} ${sf11} ${sf12} ${sf21} ${sf22}
fix 		m4 all property/global coefficientFriction peratomtypepair 2 ${sf11} ${sf12} ${sf21} ${sf22}
fix 		m4 all property/global coefficientFriction peratomtypepair 2 0.65 ${sf12} ${sf21} ${sf22}
fix 		m4 all property/global coefficientFriction peratomtypepair 2 0.65 0.5 ${sf21} ${sf22}
fix 		m4 all property/global coefficientFriction peratomtypepair 2 0.65 0.5 0.5 ${sf22}
fix 		m4 all property/global coefficientFriction peratomtypepair 2 0.65 0.5 0.5 0

fix 		m5 all property/global coefficientRollingFriction peratomtypepair ${natoms} ${rf11} ${rf12} ${rf21} ${rf22}
fix 		m5 all property/global coefficientRollingFriction peratomtypepair 2 ${rf11} ${rf12} ${rf21} ${rf22}
fix 		m5 all property/global coefficientRollingFriction peratomtypepair 2 0.75 ${rf12} ${rf21} ${rf22}
fix 		m5 all property/global coefficientRollingFriction peratomtypepair 2 0.75 0.4 ${rf21} ${rf22}
fix 		m5 all property/global coefficientRollingFriction peratomtypepair 2 0.75 0.4 0.4 ${rf22}
fix 		m5 all property/global coefficientRollingFriction peratomtypepair 2 0.75 0.4 0.4 0


###################################Generation and Loading of the Geometry .stl#######################################

fix case all mesh/surface file case_remesh.stl type 2 heal auto_remove_duplicates scale 1.0 curvature 1e-5 curvature_tolerant yes

fix screw all mesh/surface file screw_simplified.stl type 2 scale 1.0 curvature 1e-5 curvature_tolerant yes

fix 		walls 		all wall/gran model hertz tangential history rolling_friction epsd2 mesh n_meshes 2 meshes case screw
WARNING: 
	The contact model you specified is not located in any whitelist.
	Because of this the model will be run in an unoptimized version (increasing runtime by up to 20%).
	In order to optimize this model you have the following options:
		(i)  Run the genAutoExamplesWhitelist.sh script in your LIGGGHTS(R) source folder to automatically parse the input script
		(ii) Add the model combination by hand to your style_contact_model_user.whitelist that can be found in your LIGGGHTS(R) source folder
		(iii) Use the ENABLE_MODEL_* flag when building with cmake.
	If you perform one of the steps above LIGGGHTS(R) needs to be recompiled to generate the optimized code.

 (../contact_models.h:365)

fix		Movescrew	all move/mesh mesh screw rotate origin 0.2024435 0.019051 0.011497 axis -1. 0. 0. period ${screwPeriod}
fix		Movescrew	all move/mesh mesh screw rotate origin 0.2024435 0.019051 0.011497 axis -1. 0. 0. period 0.5

fix feed all mesh/surface file feed.stl type 2 scale 1.0 curvature 1e-5 curvature_tolerant yes

fix outlet all mesh/surface file outlet_1.stl type 2 scale 1.0 curvature 1e-5 curvature_tolerant yes


###################################Generation and Insertion of the particles#########################################

fix pts1 all particletemplate/sphere 10487 atom_type 1 density constant ${density} radius constant ${radius1} volume_limit 1e-18
fix pts1 all particletemplate/sphere 10487 atom_type 1 density constant 1000 radius constant ${radius1} volume_limit 1e-18
fix pts1 all particletemplate/sphere 10487 atom_type 1 density constant 1000 radius constant 0.0005 volume_limit 1e-18

fix pts2 all particletemplate/sphere 11887 atom_type 1 density constant ${density} radius constant ${radius2} volume_limit 1e-18
fix pts2 all particletemplate/sphere 11887 atom_type 1 density constant 1000 radius constant ${radius2} volume_limit 1e-18
fix pts2 all particletemplate/sphere 11887 atom_type 1 density constant 1000 radius constant 0.0005 volume_limit 1e-18

fix pts3 all particletemplate/sphere 16561 atom_type 1 density constant ${density} radius constant ${radius3} volume_limit 1e-18
fix pts3 all particletemplate/sphere 16561 atom_type 1 density constant 1000 radius constant ${radius3} volume_limit 1e-18
fix pts3 all particletemplate/sphere 16561 atom_type 1 density constant 1000 radius constant 0.0005 volume_limit 1e-18

fix 		pdd1 all particledistribution/discrete 32452867 ${nradii} pts1 ${frac1} pts2 ${frac2} pts3 ${frac3}
fix 		pdd1 all particledistribution/discrete 32452867 3 pts1 ${frac1} pts2 ${frac2} pts3 ${frac3}
fix 		pdd1 all particledistribution/discrete 32452867 3 pts1 0.3945 pts2 ${frac2} pts3 ${frac3}
fix 		pdd1 all particledistribution/discrete 32452867 3 pts1 0.3945 pts2 0.4059 pts3 ${frac3}
fix 		pdd1 all particledistribution/discrete 32452867 3 pts1 0.3945 pts2 0.4059 pts3 0.1996

fix		ins_mesh all mesh/surface/planar file feed.stl type 1 scale 1.0

fix 		ins all insert/stream seed 15485863 distributiontemplate pdd1         	mass ${fillmass} massrate ${fillmassrate} overlapcheck yes all_in yes vel constant 0 0 -0.15         	insertion_face ins_mesh extrude_length 0.03
fix 		ins all insert/stream seed 15485863 distributiontemplate pdd1         	mass 0.0001 massrate ${fillmassrate} overlapcheck yes all_in yes vel constant 0 0 -0.15         	insertion_face ins_mesh extrude_length 0.03
fix 		ins all insert/stream seed 15485863 distributiontemplate pdd1         	mass 0.0001 massrate 0.0005 overlapcheck yes all_in yes vel constant 0 0 -0.15         	insertion_face ins_mesh extrude_length 0.03


################################### Particle Residence Time Track#########################################

fix 	rt_outlet	all massflow/mesh mesh outlet vec_side 0 0 -1 file rt_outlet.txt writeTime

fix 	rt_inlet	all massflow/mesh mesh feed vec_side 0 0 -1 file rt_inlet.txt writeTime


###################################Outlet mass flow track#########################################

fix	mfout	all massflow/mesh mesh outlet vec_side 0 0 -1

fix	mfin	all massflow/mesh mesh feed vec_side 0 0 -1

variable 	time equal step*dt

variable 	in_mass_flow equal	f_mfin[3]

variable 	out_mass_flow equal	f_mfout[3]

fix mass_flow_rate all print 5000 "${time},${in_mass_flow},${out_mass_flow}" screen no title "t,in_mass_flow,out_mass_flow" file massflow.csv


###################################Dumping of the data for post-processing to visualize############################

#fix ts_check all check/timestep/gran 1000 0.1 0.1

shell 	mkdir -p post

variable dumptime equal 0.2		#guarda cada 0.05 s

variable dumpstep equal ${dumptime}/${dt}
variable dumpstep equal 0.2/${dt}
variable dumpstep equal 0.2/1e-06

dump	dmpparticle all custom ${dumpstep} post/particles_*.liggghts id type x y z vx vy vz fx fy fz radius mass
dump	dmpparticle all custom 200000 post/particles_*.liggghts id type x y z vx vy vz fx fy fz radius mass

dump_modify	dmpparticle sort id

dump	dmpscrew	all	mesh/stl ${dumpstep} post/screw_*.stl screw
dump	dmpscrew	all	mesh/stl 200000 post/screw_*.stl screw


####################################RUN the simulation filling and discharge###########################################################

run	${fillsteps}
run	200000
Setting up run at Fri May 29 00:53:56 2026

WARNING: Fix mesh: Mesh contains highly skewed element, moving mesh (if used) will not parallelize well (../surface_mesh_I.h:657)
WARNING: Fix mesh: Mesh contains highly skewed element, moving mesh (if used) will not parallelize well (../surface_mesh_I.h:657)
INFO: Particle insertion ins: 190.985932 particles every 200000 steps - particle rate 954.929659, (mass rate 5.000000e-04)
      190 particles (mass 9.948377e-05) within 0 steps
Memory usage per processor = 11.8767 Mbytes
    Step    Atoms         KinEng            CPU 
       0        0              0              0 
INFO: Particle insertion ins: inserted 190 particle templates (mass 9.948377e-05) at step 1
 - a total of 190 particle templates (mass 9.948377e-05) inserted so far.
    1000      190  1.1191924e-06       21.10951 
    2000      190  1.1191924e-06      39.371775 
    3000      190  1.1191924e-06      61.345865 
    4000      190  1.1195939e-06      81.199306 
    5000      190  1.1204154e-06      105.83194 
    6000      190  1.1214256e-06      125.21919 
    7000      190  1.1231525e-06      146.05238 
    8000      190  1.1250688e-06      164.87063 
    9000      190   1.128767e-06      185.85318 
   10000      190  1.1336979e-06      205.08065 
   11000      190  1.1402805e-06      224.73992 
   12000      190  1.1493412e-06      244.22941 
   13000      190  1.1605859e-06      262.94446 
   14000      190  1.1650889e-06      282.76079 
   15000      190  1.1754395e-06      302.11801 
   16000      190   1.187161e-06      323.48965 
   17000      190  1.1906351e-06      342.70807 
   18000      190  1.1839495e-06      363.17501 
   19000      190   1.197557e-06      384.11887 
   20000      190  1.2131362e-06      405.86747 
   21000      190  1.2255463e-06      425.61328 
   22000      190  1.2241011e-06      445.20785 
   23000      190  1.2346318e-06      464.08858 
   24000      190  1.2189894e-06      484.07544 
   25000      190  1.2306158e-06      508.53591 
   26000      190  1.2142754e-06      539.34659 
   27000      190  1.2132274e-06      570.79858 
   28000      190  1.2065539e-06      605.24653 
   29000      190  1.1950901e-06      639.69217 
   30000      190  1.2070977e-06       668.2481 
   31000      190  1.1955426e-06      690.43784 
   32000      190   1.190186e-06      709.46745 
   33000      190  1.1952949e-06      733.83909 
   34000      190  1.1881145e-06        756.283 
   35000      190  1.2009266e-06       778.6396 
   36000      190  1.1410994e-06      799.50106 
   37000      190   1.149771e-06      822.08733 
   38000      190  1.1341438e-06      844.16814 
   39000      190  1.1342492e-06      866.27183 
   40000      190  1.1382603e-06      886.65169 
   41000      190  1.1306043e-06      907.24971 
   42000      190  1.1322403e-06      928.58671 
   43000      190   1.125144e-06      949.76899 
   44000      190  1.1213083e-06      972.60958 
   45000      190  1.1138488e-06      994.59633 
   46000      190  1.0844268e-06      1017.6841 
   47000      190   1.090407e-06      1037.3753 
   48000      190  1.0856108e-06      1061.4226 
   49000      190  1.0833487e-06      1085.3046 
   50000      190  1.0858408e-06      1105.9026 
   51000      190  1.0728708e-06      1128.6047 
   52000      190  1.0816967e-06      1150.0343 
   53000      190  1.0817619e-06      1175.3205 
   54000      190  1.0982151e-06      1198.2747 
   55000      190  1.0901663e-06      1218.5942 
   56000      190  1.0802747e-06      1240.9999 
   57000      190  1.0822123e-06      1263.4482 
   58000      190  1.0614834e-06      1287.5542 
   59000      190   1.054494e-06      1309.7349 
   60000      190  1.0613424e-06      1329.3002 
   61000      190  2.1339982e-06       1350.643 
   62000      190  1.4002467e-06      1373.4726 
   63000      190  1.3396364e-06      1395.3571 
   64000      190  1.3418682e-06      1420.0242 
   65000      190  1.2583425e-06      1440.0971 
   66000      190  1.1869542e-06      1459.8032 
   67000      190  1.1658307e-06      1485.7459 
   68000      190  1.1569485e-06      1508.8195 
   69000      190  1.1306405e-06      1529.0857 
   70000      190  1.0844668e-06      1553.7077 
   71000      190  1.0782857e-06      1574.9483 
   72000      190  1.0451476e-06      1598.1265 
   73000      190  1.0254681e-06      1621.9433 
   74000      190  1.0145925e-06      1647.8798 
   75000      190  9.9091333e-07      1671.6182 
   76000      190  9.9018199e-07      1693.4184 
   77000      190  9.8785716e-07      1718.8347 
   78000      190  9.9183423e-07      1740.4667 
   79000      190  9.8999238e-07      1763.9609 
   80000      190  9.7743395e-07      1788.3251 
   81000      190  9.7431655e-07      1814.5436 
   82000      190  9.5904476e-07       1838.135 
   83000      190  9.7179569e-07      1860.4052 
   84000      190  9.5924731e-07      1883.5052 
   85000      190  9.7554545e-07      1907.3006 
   86000      190  9.7216541e-07      1931.6914 
   87000      190  9.9000246e-07      1956.3485 
   88000      190  9.7732286e-07      1980.0295 
   89000      190  9.6657086e-07      2003.1477 
   90000      190  9.8327421e-07      2032.4332 
   91000      190  9.6107969e-07      2057.6992 
   92000      190  9.5781643e-07      2081.0334 
   93000      190  9.3434656e-07      2103.1524 
   94000      190  9.3093571e-07      2129.2651 
   95000      190  9.3384271e-07      2156.1438 
   96000      190  9.0087291e-07      2179.8558 
   97000      190  8.6360941e-07      2205.6558 
   98000      190  8.5422112e-07      2233.1421 
   99000      190  8.6793783e-07      2259.3161 
  100000      190  8.8731258e-07      2282.8676 
  101000      190  8.6272821e-07      2308.3029 
  102000      190  8.5281364e-07      2336.8377 
  103000      190  8.3819126e-07      2366.5268 
  104000      190  8.4325188e-07      2401.1325 
  105000      190  8.3718913e-07      2435.1271 
  106000      190   8.096085e-07      2470.5345 
  107000      190  8.0336891e-07      2503.2086 
  108000      190  8.1096247e-07      2535.1333 
  109000      190   8.032647e-07      2572.3689 
  110000      190  8.0724721e-07      2606.1205 
  111000      190  8.0594977e-07      2642.2207 
  112000      190  7.7905128e-07      2676.7656 
  113000      190  7.9412592e-07      2713.3277 
  114000      190  7.8125298e-07      2747.9278 
  115000      190  7.5864538e-07       2783.508 
  116000      190  7.6177143e-07      2817.4988 
  117000      190  7.4252923e-07      2852.7169 
  118000      190  7.2513661e-07        2890.23 
  119000      190  7.2100518e-07      2924.7531 
  120000      190  7.0573259e-07      2960.1845 
  121000      190  7.0300745e-07      2995.9646 
  122000      190  6.9024128e-07      3034.4987 
  123000      190  6.8702405e-07      3068.8409 
  124000      190  6.6424938e-07       3096.476 
  125000      190  6.6113867e-07      3121.7209 
  126000      190  6.4619514e-07      3148.2707 
  127000      190  6.3100695e-07      3173.4005 
  128000      190  6.4052378e-07       3197.403 
  129000      190  6.3153438e-07       3225.456 
  130000      190  6.2713865e-07      3254.2395 
  131000      190  6.2909836e-07      3278.8308 
  132000      190  6.1875458e-07       3304.927 
  133000      190  6.0731186e-07       3332.159 
  134000      190  5.9738755e-07      3360.2827 
  135000      190  5.8206519e-07      3385.2302 
  136000      190  7.2233249e-07      3411.2293 
  137000      190  6.2609838e-07      3438.9391 
  138000      190  6.1938805e-07      3466.6854 
  139000      190  5.7695093e-07       3495.051 
  140000      190  5.6556173e-07      3523.5336 
  141000      190  5.5163876e-07      3550.7722 
  142000      190  5.3213558e-07      3576.5213 
  143000      190  5.2372494e-07      3603.0065 
  144000      190   5.002984e-07      3628.5468 
  145000      190  5.0451578e-07       3654.536 
  146000      190  4.9595072e-07      3682.0647 
  147000      190  4.7913137e-07      3714.3638 
  148000      190  4.7415291e-07      3740.6566 
  149000      190  4.7676117e-07      3768.2371 
  150000      190  4.7637461e-07      3795.4402 
  151000      190  4.6719054e-07      3821.7866 
  152000      190  4.6595225e-07      3847.6112 
  153000      190  4.7145081e-07      3875.6214 
  154000      190  4.6349691e-07      3904.0055 
  155000      190   4.650033e-07       3932.387 
  156000      190  4.5595982e-07      3960.4856 
  157000      190  4.2059319e-07      3988.5445 
  158000      190  4.1020518e-07      4016.9917 
  159000      190  3.9634437e-07      4043.9671 
  160000      190  3.9491803e-07      4072.3222 
  161000      190  4.8685614e-07      4105.7858 
  162000      190  4.7882141e-07      4134.2784 
  163000      190  4.7580625e-07      4161.1383 
  164000      190  4.6052559e-07      4182.9471 
  165000      190  5.0762543e-07      4204.9366 
  166000      190  4.7248254e-07      4226.4129 
  167000      190  4.7157938e-07      4250.6887 
  168000      190  4.6151253e-07       4283.434 
  169000      190  4.5188553e-07      4317.0265 
  170000      190  4.0447912e-07      4345.2778 
  171000      190  3.9672691e-07      4380.3924 
  172000      190  3.9091916e-07      4405.5079 
  173000      190  3.8828504e-07      4427.1795 
  174000      190  3.7963423e-07      4449.3722 
  175000      190  3.7280802e-07      4471.6828 
  176000      190  3.6217861e-07      4494.9531 
  177000      190  3.5196008e-07      4518.9325 
  178000      190  3.3452241e-07      4540.7121 
  179000      190  3.2570214e-07      4563.9698 
  180000      190  3.1633747e-07      4585.9862 
  181000      190  9.6526822e-07      4609.2194 
  182000      190  7.7983906e-07      4632.8061 
  183000      190  7.2579974e-07      4655.5514 
  184000      190  7.1631773e-07      4678.1963 
  185000      190  6.5348629e-07      4701.7345 
  186000      190   6.178837e-07      4724.3173 
  187000      190  5.6151936e-07      4746.8271 
  188000      190  4.7548127e-07      4770.6683 
  189000      190   4.711946e-07      4792.3844 
  190000      190   4.635639e-07      4815.4064 
  191000      190  4.2957994e-07      4835.1101 
  192000      190  4.2154136e-07      4853.4158 
  193000      190  3.9290113e-07      4871.8931 
  194000      190   3.793687e-07      4889.0492 
  195000      190  3.8198534e-07      4906.9366 
  196000      190  3.7936757e-07      4924.7003 
  197000      190  3.5518136e-07      4943.4864 
  198000      190  3.4114085e-07      4961.8476 
  199000      190  0.00048067935      4980.2596 
  200000      190  1.1066812e-06      5002.5022 
Loop time of 5002.51 on 24 procs for 200000 steps with 190 atoms, finish time Fri May 29 02:17:25 2026


Pair  time (%) = 4.319 (0.0863366)
Neigh time (%) = 0.00111693 (2.23273e-05)
Comm  time (%) = 7.73277 (0.154578)
Outpt time (%) = 6.2891 (0.125719)
Other time (%) = 4984.17 (99.6333)

Nlocal:    7.91667 ave 102 max 0 min
Histogram: 22 0 0 0 0 0 0 0 1 1
Nghost:    8.16667 ave 103 max 0 min
Histogram: 22 0 0 0 0 0 0 0 1 1
Neighs:    462.208 ave 6314 max 0 min
Histogram: 22 0 0 0 0 0 0 1 0 1

Total # of neighbors = 11093
Ave neighs/atom = 58.3842
Neighbor list builds = 23
Dangerous builds = 0

unfix	ins

run	${dischargesteps}
run	5000000
Setting up run at Fri May 29 02:17:25 2026

Memory usage per processor = 20.2221 Mbytes
    Step    Atoms         KinEng            CPU 
  200000      190  1.1066812e-06              0 
  201000      190  5.6398298e-07      17.932773 
  202000      190   3.693825e-07      36.133699 
  203000      190  3.2651185e-07      54.595176 
  204000      190  2.9705839e-07      73.472375 
  205000      190  3.0031476e-07      92.346482 
  206000      190  2.6665034e-07       109.5938 
  207000      190  3.2468877e-07      127.50738 
  208000      190  2.1228663e-07      145.21931 
  209000      190  1.9939272e-07       164.6184 
  210000      190  2.0826478e-07      183.71335 
  211000      190  2.0214197e-07      200.82198 
  212000      190  1.9105184e-07      219.07952 
  213000      190  2.4631777e-07       237.7484 
  214000      190  1.6194658e-07      255.63543 
  215000      190  1.4662582e-07      273.82812 
  216000      190  1.3561966e-07      292.78998 
  217000      190  1.2630444e-07      310.82743 
  218000      190  1.2035929e-07       329.0538 
  219000      190  1.0435486e-07      347.06132 
  220000      190  1.0369999e-07      364.60368 
  221000      190  1.0654279e-07      382.89548 
  222000      190  1.0561219e-07      401.42226 
  223000      190  1.2208356e-07      419.49068 
  224000      190   1.201302e-07      437.40043 
  225000      190   1.171227e-07      455.18921 
  226000      190  1.1064749e-07      473.24363 
  227000      190  1.0916762e-07      492.40197 
  228000      190  1.0163977e-07      511.30895 
  229000      190  1.0006398e-07      528.90437 
  230000      190  9.0987942e-08      546.49933 
  231000      190  9.3078193e-08      563.66463 
  232000      190  9.0803637e-08      579.91697 
  233000      190  9.4105439e-08      596.42926 
  234000      190  4.9021343e-07      613.47016 
  235000      190  2.0998442e-07      630.30089 
  236000      190  1.9093318e-07      646.74174 
  237000      190  1.7217016e-07      663.01988 
  238000      190  1.6483088e-07      679.23205 
  239000      190  1.4955087e-07      696.08387 
  240000      190   1.554003e-07      712.67077 
  241000      190  1.6766109e-07      729.55683 
  242000      190  1.9982411e-07      746.45718 
  243000      190  1.4800814e-07      764.10434 
  244000      190  1.4730449e-07      780.79563 
  245000      190  1.5671049e-07       797.4805 
  246000      190   1.533108e-07      814.41813 
  247000      190  1.6007542e-07      831.99841 
  248000      190  1.6462878e-07      849.47537 
  249000      190  1.6874524e-07      865.91701 
  250000      190  1.7378925e-07      882.37364 
  251000      190  4.9862772e-07      899.22136 
  252000      190  3.0380439e-07      916.29935 
  253000      190  2.6814206e-07      933.65597 
  254000      190  2.3348741e-07      951.47704 
  255000      190  2.0651411e-07        969.535 
  256000      190  1.7933747e-07      987.14547 
  257000      190  1.8212219e-07      1004.8394 
  258000      190  1.8234405e-07      1022.1074 
  259000      190   2.018112e-07      1039.8586 
  260000      190  1.7956067e-07        1057.99 
  261000      190  1.6885075e-07       1076.088 
  262000      190  1.7028708e-07      1093.4405 
  263000      190  8.0397188e-06      1111.7417 
  264000      190  4.6208299e-07      1128.9872 
  265000      190  5.7048388e-07      1147.1567 
  266000      190  3.1798511e-07      1165.4168 
  267000      190  1.4114255e-06      1182.7895 
  268000      190  9.6345827e-06      1200.6382 
  269000      190  1.8834846e-07      1217.4859 
  270000      190  1.8798882e-07      1235.2316 
  271000      190   1.491857e-07      1253.4494 
  272000      190  1.3889501e-07      1270.6066 
  273000      190  1.3617717e-07      1288.4201 
  274000      190  1.0619675e-07      1306.0613 
  275000      190  9.7688374e-08      1324.4812 
  276000      190  9.9979696e-08       1342.266 
  277000      190    7.53771e-08      1360.8647 
  278000      190  7.7500128e-08      1378.6665 
  279000      190  7.8334277e-08      1396.1928 
  280000      190   1.555971e-07        1414.76 
  281000      190  6.9334399e-08      1432.6547 
  282000      190  8.2945948e-08      1450.2706 
  283000      190  8.4629085e-08      1467.8206 
  284000      190  1.0660094e-07      1486.0798 
  285000      190  8.2652899e-08      1507.5342 
  286000      190  7.7176469e-08       1525.358 
  287000      190  7.2881442e-08      1542.8805 
  288000      190  9.5312902e-08       1559.746 
  289000      190  7.2860442e-08      1576.4417 
  290000      190    7.16801e-08      1593.3113 
  291000      190  7.1422287e-08      1610.1783 
  292000      190  6.6499287e-08      1628.1322 
  293000      190  6.0677038e-08       1644.851 
  294000      190  6.2984232e-08      1661.9143 
  295000      190  6.5019122e-08      1679.6061 
  296000      190  6.8682352e-08       1696.967 
  297000      190  6.7899257e-08      1715.0509 
  298000      190  5.5478644e-08      1732.7092 
  299000      190  4.2384316e-08      1750.5829 
  300000      190  4.2092352e-08       1768.092 
  301000      190  6.0690293e-08       1785.222 
  302000      190  4.7942353e-08      1802.3099 
  303000      190  5.5196138e-08      1819.6563 
  304000      190  4.9527587e-08       1837.432 
  305000      190  4.9184555e-08      1854.1921 
  306000      190  3.9658827e-08      1872.0961 
  307000      190  4.2884808e-08      1889.0325 
  308000      190  7.1649877e-08      1906.8894 
  309000      190  1.6495746e-07      1923.6948 
  310000      190  1.1745864e-07       1942.203 
  311000      190  1.0863494e-07      1959.7626 
  312000      190  9.3880365e-08      1977.0607 
  313000      190  8.1990095e-08      1994.1759 
  314000      190   7.771004e-08      2011.6226 
  315000      190  7.0601489e-08      2029.7929 
  316000      190  6.7978133e-08      2048.4222 
  317000      190  6.6160441e-08      2065.5112 
  318000      190  6.4851716e-08       2082.801 
  319000      190   7.104133e-08      2100.5763 
  320000      190  5.5393592e-08      2118.8276 
  321000      190  5.1396966e-08      2136.7019 
  322000      190  1.1415131e-07      2154.2518 
  323000      190  8.1722725e-08      2172.0334 
  324000      190  7.6270409e-08      2189.7329 
  325000      190  7.0641267e-08      2208.1867 
  326000      190  6.6361115e-08      2225.9151 
  327000      190  6.1849648e-08      2243.8851 
  328000      190  6.0510622e-08      2261.5289 
  329000      190  7.3857683e-08      2279.6173 
  330000      190   6.216246e-08      2297.6356 
  331000      190  6.0133759e-08      2315.4261 
  332000      190  6.3422095e-08      2335.6343 
  333000      190  6.5211631e-08      2353.6365 
  334000      190  6.8836493e-08      2373.7434 
  335000      190  6.9517174e-08      2392.0382 
  336000      190  6.0638567e-08      2409.9346 
  337000      190  1.2772117e-06      2428.4894 
  338000      190  1.1313046e-07      2446.9614 
  339000      190  7.2900652e-07      2464.3039 
  340000      190  1.1786533e-06      2481.9453 
  341000      190   5.814085e-07      2499.3369 
  342000      190  5.1540121e-07       2518.384 
  343000      190  4.5175265e-07      2536.8802 
  344000      190  4.0202899e-07      2555.4437 
  345000      190  3.6348468e-07      2572.9017 
  346000      190   3.364887e-07      2589.8108 
  347000      190  3.0460909e-07      2607.5542 
  348000      190  3.0044645e-07      2625.0282 
  349000      190  2.7413646e-07      2642.8775 
  350000      190  3.0952848e-07      2661.1099 
  351000      190  2.6852637e-07      2678.5206 
  352000      190  1.2238619e-05      2696.0907 
  353000      190  3.0313408e-07      2713.0099 
  354000      190  2.8243804e-07      2729.7299 
  355000      190  2.4282821e-07      2747.6316 
  356000      190   2.382445e-07       2764.259 
  357000      190  2.0471476e-07      2781.5454 
  358000      190  1.9957698e-07      2799.0563 
  359000      190  1.9890261e-07      2816.4082 
  360000      190  1.9160618e-07       2833.236 
  361000      190  1.7490702e-07      2849.6975 
  362000      190  1.6964567e-07      2867.4699 
  363000      190  1.7243033e-07      2886.0856 
  364000      190  1.7355362e-07      2902.6486 
  365000      190  1.6848596e-07      2919.9278 
  366000      190  1.7226495e-07      2937.2924 
  367000      190   1.669611e-07      2954.2602 
  368000      190   1.515457e-07      2972.5914 
  369000      190   1.348104e-07      2990.3181 
  370000      190  1.2660935e-07      3007.7406 
  371000      190  1.2738469e-07      3026.3302 
  372000      190  1.2972757e-07      3043.0861 
  373000      190  1.4360101e-07      3058.2046 
  374000      190  1.3501062e-07      3075.6484 
  375000      190  1.2968391e-07      3092.4466 
  376000      190    1.18585e-07       3109.682 
  377000      190  1.1782927e-07      3125.9474 
  378000      190  1.2043834e-07      3141.5243 
  379000      190  1.0021206e-07      3157.8245 
  380000      190  9.9561285e-08      3174.2271 
  381000      190  9.7556394e-08       3191.087 
  382000      190  9.1115929e-08       3207.786 
  383000      190  8.5086806e-08       3224.967 
  384000      190  8.4525185e-08      3241.3317 
  385000      190  8.4674322e-08      3257.5116 
  386000      190  8.0567971e-08      3273.7336 
  387000      190  1.9022479e-07      3289.9042 
  388000      190  8.4137231e-08      3307.3413 
  389000      190  1.1081694e-07      3324.3707 
  390000      190  9.1713854e-08      3341.3489 
  391000      190   9.757254e-08       3356.917 
  392000      190  1.0078954e-07      3373.6341 
  393000      190  1.0711952e-07      3390.1818 
  394000      190  5.3837881e-06      3406.0079 
  395000      190  1.1105344e-07      3422.4935 
  396000      190  1.0075521e-07      3439.0494 
  397000      190  9.9861485e-08      3456.0422 
  398000      190  1.0637546e-07      3473.9322 
  399000      190  1.0497039e-07      3490.0646 
  400000      190  1.1419643e-07      3512.7306 
  401000      190  1.0064558e-07      3530.2739 
  402000      190  9.9615656e-08      3547.4053 
  403000      190  9.8383487e-08      3564.8479 
  404000      190  9.9678451e-08      3580.9693 
  405000      190  2.2227063e-07       3597.611 
  406000      190  1.0320832e-07      3614.6755 
  407000      190  1.0619613e-07      3631.3816 
  408000      190  1.0544165e-07      3648.6343 
  409000      190  1.0952113e-07      3666.4731 
  410000      190  8.3034457e-08      3682.7867 
  411000      190  8.4967701e-08      3699.6702 
  412000      190  8.8160933e-08      3716.2372 
  413000      190  8.0541078e-08      3733.0855 
  414000      190  8.0728542e-08      3750.3667 
  415000      190  8.4794063e-08      3768.0001 
  416000      190  1.0308926e-07      3785.3251 
  417000      190  5.1910129e-06      3801.6771 
  418000      190  1.0295403e-07      3818.9132 
  419000      190  1.2476449e-07      3834.9312 
  420000      190  1.0942568e-07      3851.7909 
  421000      190  1.5497101e-07      3869.1803 
  422000      190  9.0775363e-08      3886.4171 
  423000      190  8.7523643e-08      3902.7392 
  424000      190  8.7018264e-08      3919.9005 
  425000      190  7.8873226e-08      3936.2881 
  426000      190  6.8183415e-08      3953.4533 
  427000      190   6.956431e-08      3971.5815 
  428000      190  6.8454542e-08      3987.7793 
  429000      190  6.7506436e-08        4004.62 
  430000      190  6.8587085e-08      4020.6687 
  431000      190  7.0283979e-08      4036.9557 
  432000      190  7.3001096e-08      4053.4814 
  433000      190  9.0540457e-08      4070.6284 
  434000      190  8.2252011e-08      4088.0173 
  435000      190  9.0809194e-08      4104.8662 
  436000      190  8.6459215e-08      4121.2473 
  437000      190  7.3874227e-08      4137.8449 
  438000      190  7.3437394e-08      4154.4748 
  439000      190  7.2324859e-08      4170.9991 
  440000      190  6.3620486e-08      4188.5166 
  441000      190  5.7153973e-08      4205.9745 
  442000      190  5.7230174e-08      4224.1056 
  443000      190  6.5360354e-08      4242.0448 
  444000      190  7.2744512e-08      4261.0693 
  445000      190  6.0467018e-08      4279.2818 
  446000      190  5.8645952e-08      4298.6976 
  447000      190  5.7964314e-08      4317.3317 
  448000      190   6.154375e-08      4335.5867 
  449000      190  5.4097485e-08       4353.584 
  450000      190  4.9036748e-08      4371.8549 
  451000      190  4.5022354e-08      4390.5597 
  452000      190  6.1568664e-07      4409.7031 
  453000      190  6.4685924e-06      4428.4011 
  454000      190  1.1105982e-05      4446.9267 
  455000      190  1.3814586e-07      4464.8534 
  456000      190  1.3857352e-07        4482.92 
  457000      190  1.1431747e-07       4501.315 
  458000      190  1.0543176e-07      4520.2314 
  459000      190  9.9951296e-08      4539.7922 
  460000      190  9.9594341e-08      4557.9363 
  461000      190  9.0865476e-08      4575.5164 
  462000      190  7.3496194e-06      4593.3525 
  463000      190  8.0771257e-08      4610.8408 
  464000      190  7.9119244e-08      4629.4311 
  465000      190  7.8754709e-08      4647.9921 
  466000      190  2.6507611e-06       4666.189 
  467000      190  7.5208769e-06      4684.2173 
  468000      190  1.0689762e-07       4702.216 
  469000      190  6.9908126e-08      4719.2219 
  470000      190  1.1242638e-07      4736.9689 
  471000      190  4.7028022e-07      4754.9843 
  472000      190  2.0736842e-07      4772.1209 
  473000      190  1.7794849e-07      4788.5413 
  474000      190  1.6724909e-07      4805.3752 
  475000      190  1.4226545e-07       4822.567 
  476000      190  1.2157648e-07      4839.9178 
  477000      190  1.1387714e-07      4857.1228 
  478000      190  1.1516612e-07      4873.9964 
  479000      190  1.0534091e-07      4891.3598 
  480000      190  2.5342778e-07      4908.5643 
  481000      190  9.8153525e-08      4925.5687 
  482000      190  9.3080265e-08       4942.065 
  483000      190   2.762279e-07      4958.5295 
  484000      190  2.7081567e-07      4975.6339 
  485000      190  2.6449185e-07      4992.7209 
  486000      190  2.6179214e-07      5009.6086 
  487000      190  2.5696878e-07      5026.9758 
  488000      190  2.5511786e-07      5044.0559 
  489000      190  2.4951955e-07      5060.7392 
  490000      190  2.4554597e-07      5078.1512 
  491000      190  2.4303519e-07      5094.8669 
  492000      190  7.5997801e-07      5112.0095 
  493000      190  1.5666764e-07      5128.7836 
  494000      190  1.5615776e-07       5145.801 
  495000      190  1.4359063e-07      5162.9412 
  496000      190  1.3507643e-07      5182.6607 
  497000      190  1.3302859e-07       5202.213 
  498000      190  2.2767859e-07      5220.4633 
  499000      190  1.2610367e-07      5238.8724 
  500000      190  1.0944091e-07      5257.6692 
  501000      190  9.8506309e-08      5277.1238 
  502000      190   1.676716e-06      5295.6337 
  503000      190  8.6257946e-08       5314.221 
  504000      190  8.8221638e-08      5332.7493 
  505000      190  8.7321616e-08      5352.3653 
  506000      190  5.2060902e-06      5370.2331 
  507000      190  6.9772829e-08      5388.3483 
  508000      190   6.803329e-08      5407.9521 
  509000      190  6.3074405e-08      5426.6412 
  510000      190  9.1553203e-08      5445.6491 
  511000      190  6.7660069e-08      5464.0133 
  512000      190  6.5075914e-08      5482.9622 
  513000      190  5.8817879e-08      5503.2731 
  514000      190  5.6037079e-08      5523.9931 
  515000      190  5.6004607e-08      5543.9854 
  516000      190  7.8539483e-08       5562.529 
  517000      190  5.8799416e-08      5581.1876 
  518000      190  5.6555847e-08      5599.5358 
  519000      190  5.3790825e-08      5618.6383 
  520000      190  4.6761565e-07      5638.4229 
  521000      190  8.8043026e-08      5657.1323 
  522000      190  8.0364489e-08      5675.0297 
  523000      190  9.2048698e-07      5694.5667 
  524000      190  4.3620259e-07      5713.0682 
  525000      190  3.4139653e-07      5732.1169 
  526000      190  3.0030849e-07      5751.3796 
  527000      190  1.5712597e-06      5769.2292 
  528000      190  3.0063978e-07      5787.9008 
  529000      190  2.5688231e-07      5805.9461 
  530000      190  2.3734003e-07      5824.6382 
  531000      190  2.3339388e-07      5842.7227 
  532000      190  2.2788673e-07      5861.9432 
  533000      190  2.2520816e-07       5880.964 
  534000      190  2.2332766e-07      5899.4436 
  535000      190  2.2339396e-07      5918.7002 
  536000      190  6.8916687e-06      5938.2607 
  537000      190  1.2257152e-05      5960.0979 
  538000      190  5.9252731e-07      5980.5535 
  539000      190  5.2257368e-07      6000.7022 
  540000      190  2.4166404e-07      6020.8164 
  541000      190  2.2668983e-07      6041.4192 
  542000      190  1.9668433e-07      6061.6546 
  543000      190  1.7586695e-07      6083.1299 
  544000      190  1.7095885e-07      6103.8084 
  545000      190  1.5691597e-07      6124.7547 
  546000      190  1.4421458e-06      6144.7542 
  547000      190  1.4322337e-07      6165.3784 
  548000      190  1.4126446e-07      6186.4253 
  549000      190  1.8761883e-07      6207.6226 
  550000      190  2.1997758e-07      6228.2296 
  551000      190  1.4292667e-06      6247.5767 
  552000      190  2.2134197e-06      6268.1368 
  553000      190  1.5694224e-07      6289.1383 
  554000      190  1.4499685e-07      6315.4214 
  555000      190  1.4699901e-07      6337.1448 
  556000      190  1.3055428e-05      6356.7829 
  557000      190  2.2714272e-05      6378.2533 
  558000      190  1.9380285e-06      6401.6615 
  559000      190  2.4371375e-05      6426.6448 
  560000      190  1.7436125e-06      6453.7659 
  561000      190  8.5817039e-06      6483.8057 
  562000      190   5.504719e-06      6522.5295 
  563000      190  7.5950212e-06      6554.4842 
  564000      190  5.9254474e-06      6580.2702 
  565000      190  2.1554129e-05      6605.4189 
  566000      190  1.8383336e-05      6630.4558 
  567000      190  1.8666852e-06      6656.3439 
  568000      190  5.1489747e-06      6680.6477 
  569000      190  9.0068455e-06      6706.1885 
  570000      190   8.996066e-06      6731.8221 
  571000      190   4.907534e-07      6757.8882 
  572000      190   6.134067e-06      6782.1073 
  573000      190  1.3105607e-06      6807.7564 
  574000      190  5.4568859e-07      6832.7771 
  575000      190  2.1000483e-07      6859.8227 
  576000      190  1.1899727e-05      6885.1917 
  577000      190  2.1042021e-07      6909.8868 
  578000      190  3.2674869e-07      6936.0761 
  579000      190  2.1237007e-07      6962.0449 
  580000      190  1.8317209e-07       6990.353 
  581000      190  7.2202329e-07      7016.5956 
  582000      190   1.809263e-07      7042.4181 
  583000      190  1.8215179e-07      7068.8113 
  584000      190  2.0118463e-07      7095.3403 
  585000      190  2.0177297e-07      7122.0746 
  586000      190   1.982893e-07      7147.7982 
  587000      190  1.0593644e-06      7173.2006 
  588000      190  1.5877333e-07      7199.4041 
  589000      190  1.4514611e-07      7226.3461 
  590000      190  1.5507239e-07       7251.759 
  591000      190  2.6369904e-07      7276.3273 
  592000      190  1.2481532e-07      7302.3929 
  593000      190  1.3483751e-07      7328.2478 
  594000      190  1.3920982e-06      7353.3738 
  595000      190  1.5172601e-07      7379.1764 
  596000      190   1.795625e-07      7402.1285 
  597000      190   1.579108e-07      7425.0444 
  598000      190  1.6218759e-07      7447.0029 
  599000      190   1.672384e-07      7469.2537 
  600000      190  2.0473374e-07      7496.9307 
  601000      190  2.0531876e-07      7519.1477 
  602000      190  1.5701408e-07      7541.3078 
  603000      190  1.5625342e-07      7564.1413 
  604000      190  1.5808889e-07      7586.9441 
  605000      190  1.5707805e-07      7608.4378 
  606000      190  4.7152519e-07      7630.9725 
  607000      190  4.8388503e-07       7654.732 
  608000      190  4.4714121e-07      7678.5347 
  609000      190  4.2702753e-07      7700.2877 
  610000      190  4.1721671e-07      7724.2735 
  611000      190  5.1499573e-07      7746.7997 
  612000      190  9.7825369e-07      7766.3115 
  613000      190  1.8367161e-06      7786.7921 
  614000      190  3.6989996e-07      7807.1937 
  615000      190  5.1295319e-07      7827.5491 
  616000      190  2.7220356e-07      7847.9706 
  617000      190    2.35979e-06      7867.7143 
  618000      190  1.4331286e-06      7887.7869 
  619000      190  1.3296693e-06      7910.1994 
  620000      190   4.841961e-06      7929.3415 
  621000      190  1.2894649e-06      7949.5829 
  622000      190  1.2600529e-06      7970.2731 
  623000      190  1.2270122e-06      7990.1185 
  624000      190   1.324931e-06      8012.0368 
  625000      190  1.4635245e-06      8032.0146 
  626000      190  1.1746506e-06      8050.9637 
  627000      190  1.1408789e-06      8071.8828 
  628000      190  1.1338548e-06      8092.4179 
  629000      190  2.9666524e-06      8112.5128 
  630000      190  5.7084261e-06      8133.3802 
  631000      190  1.7130172e-06      8155.5992 
  632000      190  1.0729178e-06      8175.0225 
  633000      190  1.1056369e-06      8195.0001 
  634000      190  1.0428096e-06      8216.8395 
  635000      190   1.009677e-06      8239.2328 
  636000      190  1.0827192e-06      8257.2316 
  637000      190  9.9308415e-07      8276.7849 
  638000      190  9.9334863e-07      8297.0408 
  639000      190  7.8515622e-06      8319.2697 
  640000      190  5.5467873e-06      8341.0043 
  641000      190  5.2471623e-06      8360.8819 
  642000      190  4.8679308e-06       8380.422 
  643000      190  4.7518831e-06       8400.306 
  644000      190  4.6687683e-06       8420.737 
  645000      190  4.5890573e-06      8439.1703 
  646000      190  4.4792278e-06      8458.1818 
  647000      190  4.6043611e-06      8476.9847 
  648000      190  4.3232532e-06       8495.011 
  649000      190  4.0931442e-06       8515.585 
  650000      190  4.0456415e-06      8534.0407 
  651000      190  3.9805428e-06       8552.587 
  652000      190  3.8994267e-06      8572.0116 
  653000      190  5.2297343e-06      8590.5357 
  654000      190  4.0367985e-06      8608.4621 
  655000      190  3.6187353e-06       8627.732 
  656000      190   3.360768e-06      8646.7952 
  657000      190  3.3263912e-06      8665.1057 
  658000      190  3.2477296e-06      8683.0323 
  659000      190  3.1956882e-06       8701.553 
  660000      190   3.166095e-06      8720.1345 
  661000      190   3.073514e-06      8737.4783 
  662000      190  3.0202593e-06      8755.6931 
  663000      189  1.6849599e-06      8773.7929 
  664000      189  1.6584133e-06      8790.5781 
  665000      189  1.6257602e-06      8808.3626 
  666000      189  1.6061695e-06      8825.7465 
  667000      189  2.2826343e-06      8844.5936 
  668000      189  1.7755914e-05       8864.253 
  669000      189  1.4321754e-05      8882.1467 
  670000      189  5.7298876e-06      8901.1757 
  671000      189  1.9024614e-05      8921.1027 
  672000      189  2.0726622e-05      8938.3144 
  673000      189  1.9518751e-05      8956.3709 
  674000      188   1.288696e-05      8974.7117 
  675000      188    6.05002e-06      8994.0248 
  676000      188  4.4800409e-06      9013.1391 
  677000      188  2.2234287e-05      9032.4073 
  678000      188  1.0561679e-05      9050.7397 
  679000      188  2.9061585e-05      9069.7305 
  680000      188  4.3478403e-06      9089.6314 
  681000      187     1.2976e-05      9108.6325 
  682000      187   8.492028e-06      9126.9558 
  683000      187  3.2349653e-05      9146.2122 
  684000      187  3.4123063e-06      9165.0502 
  685000      187  1.7806351e-05      9182.9869 
  686000      187  4.9331549e-06      9201.8726 
  687000      187  7.1676537e-06      9220.5785 
  688000      187   1.629294e-05      9238.1266 
  689000      187  2.2162519e-05      9257.6754 
  690000      187   2.968112e-06      9276.8072 
  691000      187  4.7174471e-06      9295.2402 
  692000      187  1.9386506e-06      9314.3261 
  693000      187  4.3592996e-06      9333.4814 
  694000      187  7.1984647e-07      9351.5805 
  695000      187  2.3008567e-05       9369.633 
  696000      187  6.3923411e-07      9386.7849 
  697000      187  8.6949831e-07      9405.5968 
  698000      187  3.6828508e-05      9424.1669 
  699000      187  2.5711364e-06      9442.7449 
  700000      187  6.0822493e-06      9461.6496 
  701000      187  4.0493432e-06       9480.981 
  702000      187  1.0621416e-06      9500.4071 
  703000      187  4.7843089e-06      9519.6035 
  704000      187  2.4470555e-06      9537.8727 
  705000      187  6.0032686e-07      9559.7375 
  706000      187  1.3090292e-06      9579.9113 
  707000      187  5.9905963e-07      9599.6645 
  708000      187   6.704208e-07      9619.1646 
  709000      187  8.0348252e-06      9638.7829 
  710000      186  3.0935128e-06      9658.7004 
  711000      186  5.0872759e-07      9678.9968 
  712000      186  5.0621447e-07      9702.6341 
  713000      186  2.6467479e-06      9726.8689 
  714000      186  1.5117196e-06      9751.6694 
  715000      186  1.4407485e-06      9777.7494 
  716000      186  2.8422021e-06      9803.0749 
  717000      186  5.6017322e-06      9827.2511 
  718000      186  2.5783828e-05      9847.8316 
  719000      186  1.4133413e-05      9868.5921 
  720000      186  4.1065849e-05      9889.0746 
  721000      186  2.8921378e-05      9912.3714 
  722000      186  1.2732915e-06       9936.529 
  723000      186  1.1022071e-06      9958.7473 
  724000      186   5.722151e-07      9978.8174 
  725000      186  1.1148294e-05      9998.8748 
  726000      186  5.6206562e-07      10019.632 
  727000      186  5.6238436e-07      10040.881 
  728000      186  2.0879247e-05      10062.604 
  729000      186  1.2218962e-06      10084.351 
  730000      186  6.4445088e-07      10104.994 
  731000      186   4.172891e-06       10126.39 
  732000      186  5.1798012e-07      10147.721 
  733000      186  4.9421297e-07      10169.229 
  734000      186  4.8313676e-07      10190.224 
  735000      186  1.5122281e-06      10209.611 
  736000      186  4.7595999e-07      10230.095 
  737000      186  5.0219515e-07      10249.217 
  738000      186  4.7203292e-07      10271.026 
  739000      186  5.0508439e-07      10291.943 
  740000      185  4.5234643e-07      10311.965 
  741000      185  4.2397619e-07      10332.602 
  742000      185  3.9763119e-05      10351.967 
  743000      185   4.228045e-07      10371.805 
  744000      185  4.1911421e-07      10391.122 
  745000      185  4.1828399e-07      10411.246 
  746000      185  4.6261247e-05      10431.279 
  747000      185  1.0925098e-06      10452.446 
  748000      185  6.3947814e-07      10473.924 
  749000      185  5.8779577e-07      10493.507 
  750000      185   7.148092e-07      10513.857 
  751000      185  5.1295919e-07      10534.482 
  752000      185  4.8036044e-07      10553.939 
  753000      185  4.8207455e-07      10573.488 
  754000      185  5.1298061e-07      10593.647 
  755000      185  5.1486817e-07      10614.652 
  756000      185  5.7183361e-07      10634.954 
  757000      185  5.7693451e-07      10655.498 
  758000      185   4.838783e-07      10676.603 
  759000      185  4.4900554e-07      10697.418 
  760000      185  1.2939389e-06       10718.86 
  761000      185  1.0992262e-06      10738.862 
  762000      185  8.9121948e-07      10759.325 
  763000      185  8.1803453e-07      10779.173 
  764000      185  8.0429752e-07      10799.667 
  765000      185   8.152218e-07      10818.039 
  766000      185  7.9650651e-07      10837.253 
  767000      184  6.9946507e-07      10856.895 
  768000      184  8.8228338e-07      10877.744 
  769000      184  7.0763576e-07      10898.684 
  770000      184  6.9841708e-07      10919.731 
  771000      184  6.5412062e-07      10938.703 
  772000      184  6.5276858e-07      10958.491 
  773000      184  6.5694407e-07      10979.038 
  774000      184  6.6752014e-07      10999.314 
  775000      184  6.6865246e-07      11020.208 
  776000      184  6.7027211e-07      11040.277 
  777000      184  6.6993208e-07      11059.553 
  778000      184  6.8306733e-07      11079.234 
  779000      184  5.7671137e-07      11099.027 
  780000      184  1.5639697e-06      11119.433 
  781000      184  5.6610542e-07      11140.054 
  782000      184  5.5726105e-07      11160.012 
  783000      184  1.0733874e-06      11180.187 
  784000      184  1.3416472e-06       11199.84 
  785000      184  5.7037788e-07      11220.512 
  786000      184  5.5937497e-07      11240.379 
  787000      184  5.4548165e-07      11260.617 
  788000      184  8.9237552e-07      11281.154 
  789000      184  5.7076536e-07      11300.542 
  790000      184  1.4452189e-05      11320.413 
  791000      184  4.6783607e-07      11339.731 
  792000      184  4.5196082e-07       11359.56 
  793000      184  4.3820671e-07      11378.055 
  794000      184  4.3485816e-07      11398.403 
  795000      184  4.7783552e-07      11418.587 
  796000      184  7.1383598e-07      11439.815 
  797000      184  4.3156445e-07      11462.092 
  798000      184  1.3588062e-05       11484.03 
  799000      184   3.560459e-06      11508.125 
  800000      184  1.6304127e-05       11535.13 
  801000      184  2.3311527e-05      11557.769 
  802000      184  4.7688231e-06       11579.83 
  803000      184  1.5604607e-05      11600.651 
  804000      184  2.7376294e-06      11623.504 
  805000      184  1.7963837e-05      11643.769 
  806000      184   2.006892e-05      11667.646 
  807000      184   1.569506e-05      11690.341 
  808000      184  1.8880575e-05      11712.472 
  809000      184  3.3527368e-05      11734.148 
  810000      184  6.8558941e-06      11756.925 
  811000      184  4.1949426e-06      11778.648 
  812000      184  2.7970568e-05      11801.033 
  813000      184  1.7516733e-05      11823.325 
  814000      184  5.1185722e-06      11846.767 
  815000      184  2.6387586e-06      11869.609 
  816000      184  3.0918534e-05      11891.875 
  817000      184  3.1115078e-07      11913.123 
  818000      184  1.8173397e-06      11936.423 
  819000      184  1.0292456e-05      11958.173 
  820000      184  3.1117671e-07      11979.771 
  821000      184  2.9870523e-07      12002.587 
  822000      184  2.8242584e-07      12025.199 
  823000      184  8.1940479e-07      12047.285 
  824000      184   5.081109e-06       12070.63 
  825000      184  2.0856543e-06       12094.24 
  826000      184   1.818432e-06      12116.931 
  827000      184  5.7751708e-06      12139.988 
  828000      184  4.4103013e-06      12162.152 
  829000      184  1.7658537e-05      12184.287 
  830000      184  5.6576864e-06      12207.443 
  831000      184  1.0574745e-06      12229.114 
  832000      184  1.0030033e-06      12249.432 
  833000      183  8.0423275e-07      12270.909 
  834000      183   7.350268e-07      12292.906 
  835000      183  7.0924494e-07      12315.173 
  836000      183  6.8311248e-07      12338.196 
  837000      183  6.6356551e-07      12358.632 
  838000      183  7.0652272e-07      12380.356 
  839000      183  6.3955701e-07      12400.819 
  840000      183  7.2457535e-07      12421.743 
  841000      183  5.9007921e-07      12441.968 
  842000      183  5.4374633e-07      12464.292 
  843000      183  5.2572288e-07      12485.901 
  844000      183  5.1234674e-07      12508.225 
  845000      183  1.5485364e-06          12529 
  846000      183  2.3204687e-06      12551.708 
  847000      183  5.7584771e-07      12573.311 
  848000      183  4.9661048e-07      12594.045 
  849000      183  4.7108941e-07      12614.687 
  850000      183  4.4825434e-07       12634.68 
  851000      183  4.2362419e-07      12655.883 
  852000      183  4.1118686e-07       12678.55 
  853000      183  3.9522051e-07      12700.422 
  854000      183  4.3997102e-07      12722.975 
  855000      183  5.5301435e-07      12743.906 
  856000      183  3.8276311e-07      12764.974 
  857000      183  4.4554508e-07      12785.305 
  858000      183  4.2295303e-07      12806.231 
  859000      183  3.6023115e-07      12827.011 
  860000      183  3.2377698e-07       12850.18 
  861000      183  3.0785252e-07      12871.416 
  862000      183  2.8573821e-07      12892.228 
  863000      183  2.8725627e-07       12913.48 
  864000      183  2.5749692e-07      12934.711 
  865000      183  4.7366253e-07      12955.951 
  866000      183  8.2068702e-07      12976.664 
  867000      183  8.5927209e-07      12997.333 
  868000      183  3.7565254e-07      13018.961 
  869000      183  2.1159476e-07      13040.549 
  870000      183  2.0880043e-07      13062.389 
  871000      183  2.1490435e-07      13084.997 
  872000      183  2.1845473e-07      13106.257 
  873000      183  2.3575938e-07      13127.185 
  874000      183  2.2214327e-07      13148.559 
  875000      183   2.065496e-07      13173.876 
  876000      183  2.1370175e-07      13196.223 
  877000      183   2.161696e-07      13216.989 
  878000      183  1.9392402e-07      13237.638 
  879000      183  1.9489323e-07      13259.757 
  880000      183  2.1056605e-07      13281.199 
  881000      183  1.9740943e-07      13301.541 
  882000      183  1.0757572e-05      13323.114 
  883000      183  1.0624469e-05      13344.842 
  884000      183  2.3251362e-06      13368.915 
  885000      183  1.9143927e-06      13393.341 
  886000      183  1.7155081e-05      13420.154 
  887000      183  5.0863242e-06      13449.573 
  888000      183  8.8339459e-06      13478.736 
  889000      183  6.5465539e-06      13505.305 
  890000      183  2.7010628e-07      13528.016 
  891000      183  2.3701675e-07      13549.833 
  892000      183   2.330575e-07      13571.591 
  893000      183  2.3349649e-07      13593.449 
  894000      183  2.0804728e-07      13615.258 
  895000      183  3.8292126e-06      13642.145 
  896000      183  1.0631728e-05      13664.143 
  897000      183  3.9324088e-05       13686.06 
  898000      183  4.0432664e-05      13707.058 
  899000      183  6.6838087e-06      13728.106 
  900000      183  2.5977463e-05      13748.944 
  901000      183  4.1840409e-05       13770.63 
  902000      183  2.2679221e-05      13792.675 
  903000      183  2.9593769e-06      13813.248 
  904000      183  5.1535794e-07       13834.09 
  905000      183  1.7449659e-05      13856.018 
  906000      183  3.1551583e-06      13876.212 
  907000      183  1.9491229e-07      13896.468 
  908000      183  1.9799915e-07      13918.297 
  909000      183  2.0423557e-07      13938.429 
  910000      183  6.8283522e-07       13959.28 
  911000      183   3.713637e-07      13979.694 
  912000      183    2.25745e-07      14000.584 
  913000      183  2.4035484e-07      14022.074 
  914000      183  2.4707842e-07      14043.685 
  915000      183  2.5546007e-07      14064.517 
  916000      183  2.7206786e-07      14085.684 
  917000      183  2.7928285e-07      14106.058 
  918000      183  2.9284625e-07      14126.314 
  919000      183  2.9108142e-07      14147.725 
  920000      183  2.7563876e-07      14168.847 
  921000      183  3.2217361e-07      14189.586 
  922000      183  3.3126896e-07      14212.244 
  923000      183  3.0793305e-07      14233.161 
  924000      183  3.2314803e-07      14252.198 
  925000      183  3.1733558e-07      14274.695 
  926000      183  3.2333784e-07      14294.941 
  927000      183  3.3318017e-07      14314.197 
  928000      183  3.1769076e-07       14336.14 
  929000      183  3.8974293e-07       14358.63 
  930000      183  3.1957389e-07      14378.973 
  931000      183   1.809833e-05      14400.043 
  932000      183  3.4577976e-07      14422.649 
  933000      183  3.4466919e-07       14443.15 
  934000      183  1.6546211e-05      14464.305 
  935000      182  2.6516288e-07      14486.214 
  936000      182  2.2383364e-07       14508.16 
  937000      182  2.2962143e-07      14529.116 
  938000      182  2.3743739e-07      14553.082 
  939000      182  2.3884353e-07      14577.042 
  940000      182  2.4658487e-07      14598.702 
  941000      182  2.5477906e-07      14622.827 
  942000      182  2.5067399e-06      14647.712 
  943000      182  1.4344866e-05      14671.806 
  944000      182    2.19372e-07      14695.348 
  945000      182  8.8105434e-06      14719.751 
  946000      182  4.2224362e-07      14743.913 
  947000      182  2.4347497e-07      14770.305 
  948000      182  2.5021106e-07      14794.174 
  949000      182  2.5743725e-07       14816.81 
  950000      182  2.6686703e-07      14841.068 
  951000      182  2.6345943e-06      14866.612 
  952000      182  3.7116903e-07      14889.479 
  953000      182  7.9373933e-07      14912.339 
  954000      182  3.3181817e-07      14935.735 
  955000      182  3.1335177e-07      14959.827 
  956000      182  2.9599959e-07      14981.203 
  957000      182  1.7014826e-07      15002.313 
  958000      182  5.0515655e-06      15023.436 
  959000      182  3.1393987e-06      15046.378 
  960000      182  3.0560723e-06      15068.752 
  961000      182  1.7313185e-06      15089.962 
  962000      182  1.6644266e-06      15112.225 
  963000      182  2.4979357e-06      15134.989 
  964000      182  3.4181635e-06      15156.611 
  965000      182  1.3703382e-05      15177.345 
  966000      182  6.0847793e-06      15200.232 
  967000      182  9.7432594e-06      15223.181 
  968000      182  1.8240476e-05      15244.861 
  969000      182  1.7185862e-06       15268.01 
  970000      182  6.0549623e-06      15289.312 
  971000      182  1.3438234e-05      15311.215 
  972000      182  1.6995454e-05      15333.399 
  973000      182  1.4646629e-06      15355.404 
  974000      182  3.4363018e-05      15377.477 
  975000      182  3.5232455e-05      15398.502 
  976000      182  8.2162347e-06      15419.885 
  977000      182  2.0057563e-05      15441.149 
  978000      182   1.783071e-05      15464.275 
  979000      182  2.9584708e-06      15485.595 
  980000      182  6.4632356e-06      15507.788 
  981000      182  6.0965106e-06      15530.517 
  982000      182  3.2475387e-05      15552.343 
  983000      182  2.7239599e-05      15574.542 
  984000      182  1.7955811e-05       15595.65 
  985000      182  1.7137839e-05      15617.391 
  986000      182  1.2929669e-05      15640.672 
  987000      182  3.6787806e-05      15661.217 
  988000      182  3.2802302e-05      15682.523 
  989000      182  6.2208254e-05      15703.468 
  990000      182  5.2325394e-05      15726.338 
  991000      182  4.3229161e-05      15748.687 
  992000      182  0.00012446624       15770.39 
  993000      182  4.5823074e-05      15792.328 
  994000      182  6.3213742e-05      15813.426 
  995000      182  4.4856047e-05      15835.063 
  996000      182   5.750443e-05      15856.205 
  997000      182  1.3387936e-05      15877.785 
  998000      182  5.7673209e-05      15900.204 
  999000      182  6.7031576e-06      15921.963 
 1000000      182  6.0756539e-05      15950.687 
 1001000      182  4.1941174e-05      15973.199 
 1002000      182  4.1602519e-05      15993.861 
 1003000      182  5.1196888e-05      16014.176 
 1004000      182   4.543687e-05      16035.815 
 1005000      182  4.9471103e-05      16057.753 
 1006000      182  3.5118326e-05      16080.553 
 1007000      182  1.9985437e-05      16102.277 
 1008000      182  1.8007713e-06       16123.58 
 1009000      182  9.0198455e-05      16145.489 
 1010000      182  8.9001865e-05      16167.471 
 1011000      182  9.3525869e-05      16190.292 
 1012000      182  2.2102693e-05      16211.424 
 1013000      182  7.3503479e-05      16232.017 
 1014000      182   8.791427e-05      16253.619 
 1015000      182  9.2802484e-05      16274.684 
 1016000      182  7.7763718e-05      16296.924 
 1017000      182  8.6258177e-06      16318.072 
 1018000      182  1.0390003e-05       16340.33 
 1019000      182  2.1257392e-05      16361.334 
 1020000      182  5.0676045e-06      16383.043 
 1021000      182  9.5596735e-06      16405.357 
 1022000      182  3.4901914e-05      16427.807 
 1023000      182  1.7450022e-05      16448.027 
 1024000      182  7.8594364e-06      16468.838 
 1025000      182  1.2647778e-05      16491.623 
 1026000      182  7.2686221e-06      16514.122 
 1027000      182    2.06277e-05      16536.317 
 1028000      182  1.6942184e-05      16556.386 
 1029000      182  1.4947792e-05      16579.024 
 1030000      182  6.7677201e-06      16600.338 
 1031000      182  1.6261598e-07      16621.528 
 1032000      182  1.3018362e-07      16642.187 
 1033000      182  1.0114937e-05      16664.355 
 1034000      182  1.0821352e-07      16690.076 
 1035000      182  1.1161411e-07      16719.893 
 1036000      182  1.2365931e-07      16747.551 
 1037000      182  1.0427782e-07      16783.133 
 1038000      182   1.018257e-07      16811.826 
 1039000      182  9.8398326e-08      16831.073 
 1040000      182  9.5590099e-08      16849.081 
 1041000      182  7.4353977e-08      16869.628 
 1042000      182  1.1214845e-07      16888.723 
 1043000      182  8.0342852e-08      16907.913 
 1044000      182  1.8918013e-06      16927.634 
 1045000      182  6.6800029e-07       16946.58 
 1046000      182   6.343598e-07      16965.465 
 1047000      182  5.8220586e-07      16985.047 
 1048000      182  5.4481255e-07      17002.871 
 1049000      182  5.0968643e-07      17022.701 
 1050000      182  5.2419126e-07      17040.906 
 1051000      182  5.5471597e-06      17060.089 
 1052000      182  4.9282083e-06      17078.506 
 1053000      182  9.2106257e-06      17098.454 
 1054000      182  1.1427849e-05      17117.839 
 1055000      182  5.3821383e-07      17136.263 
 1056000      182  2.0774127e-05      17154.947 
 1057000      182  1.7401713e-05      17174.232 
 1058000      182  2.0809062e-05      17193.079 
 1059000      182  2.1820892e-06      17214.459 
 1060000      182  3.1204056e-06      17234.425 
 1061000      182  1.9209618e-06      17252.623 
 1062000      182  8.9154815e-07      17271.697 
 1063000      182  1.3594153e-06      17290.427 
 1064000      182   1.100052e-05      17309.181 
 1065000      182  1.0813659e-05          17328 
 1066000      182  1.4197079e-05      17346.164 
 1067000      182   8.307724e-06      17365.003 
 1068000      182  1.0002265e-05      17384.054 
 1069000      182  1.1237376e-05      17402.943 
 1070000      182  2.2899501e-05      17420.852 
 1071000      182  9.5261565e-06      17439.743 
 1072000      182    1.40713e-05      17458.604 
 1073000      182  1.8370341e-05      17476.214 
 1074000      182  1.0329879e-05      17493.388 
 1075000      182  1.6830982e-05       17510.88 
 1076000      182   2.049348e-05      17529.121 
 1077000      182  3.2928708e-05      17546.541 
 1078000      182  2.2510933e-05      17564.669 
 1079000      182  4.2130472e-06      17582.421 
 1080000      182  3.3708333e-05      17600.435 
 1081000      182  2.0969166e-05      17619.197 
 1082000      182  3.0988744e-06      17637.086 
 1083000      182  4.3331077e-06          17655 
 1084000      182  2.5153516e-05      17672.191 
 1085000      182  1.9067459e-05      17689.231 
 1086000      182  9.1663231e-06      17707.528 
 1087000      182  2.5632932e-06      17725.056 
 1088000      182  8.8056427e-06      17741.795 
 1089000      182  7.2298753e-06      17760.452 
 1090000      182  4.1514019e-06      17777.873 
 1091000      182  8.6860893e-06      17796.236 
 1092000      182  3.0771628e-05       17813.01 
 1093000      182  3.2410053e-05      17830.944 
 1094000      182  1.0153388e-05      17850.097 
 1095000      182  1.4248205e-05      17868.767 
 1096000      182  3.4690775e-05      17886.985 
 1097000      182  2.1152332e-05      17905.075 
 1098000      182  1.9539499e-05      17924.746 
 1099000      182   9.507223e-06      17945.076 
 1100000      182  6.2964175e-05        17964.6 
 1101000      182  2.3526677e-05       17983.53 
 1102000      182  4.1613765e-06      18001.571 
 1103000      182  5.2927269e-05      18019.878 
 1104000      182  2.1087176e-06      18037.714 
 1105000      182  3.3517072e-05      18057.159 
 1106000      182  4.9737273e-06      18077.324 
 1107000      182  6.0824772e-06       18096.81 
 1108000      182  2.1753618e-06      18115.596 
 1109000      182  7.4407346e-06      18134.102 
 1110000      182   2.433215e-05      18152.276 
 1111000      182  1.1478327e-07      18169.603 
 1112000      182    1.26307e-07      18187.706 
 1113000      182  1.1862554e-07      18204.775 
 1114000      182  1.0398535e-05      18223.648 
 1115000      182  2.9642485e-05      18240.598 
 1116000      182  1.5530345e-06      18257.981 
 1117000      182  1.1445874e-07      18276.685 
 1118000      182  1.4686452e-07      18295.455 
 1119000      182  1.1659368e-05      18312.456 
 1120000      182  2.5097332e-05      18331.118 
 1121000      182  1.1866045e-06       18349.02 
 1122000      182  1.1676871e-07      18367.379 
 1123000      182   1.155384e-07      18385.279 
 1124000      182  8.5609457e-07      18402.794 
 1125000      182  1.6055977e-05      18422.248 
 1126000      182  1.3626388e-05       18441.17 
 1127000      182  4.2645111e-06      18459.542 
 1128000      182  3.6610779e-06       18477.86 
 1129000      182  7.5656456e-06      18496.433 
 1130000      182  8.9533136e-06      18513.798 
 1131000      182  3.0939248e-06       18531.08 
 1132000      182  9.2996054e-06      18547.738 
 1133000      182  1.1295378e-05      18565.328 
 1134000      182  2.4248195e-06      18582.629 
 1135000      182  6.6834016e-06      18599.954 
 1136000      182  2.9881974e-06      18617.629 
 1137000      182  1.3731636e-05      18635.097 
 1138000      182  1.5478971e-05      18651.228 
 1139000      182  3.7602765e-06      18668.928 
 1140000      182  1.6230291e-05      18686.123 
 1141000      182  1.0394287e-05      18703.087 
 1142000      182  1.2769138e-06      18720.067 
 1143000      182  1.9233736e-05      18736.752 
 1144000      182  1.5287201e-05      18753.849 
 1145000      182   1.203595e-06      18771.713 
 1146000      182  4.5994672e-07      18789.047 
 1147000      182  4.4586199e-07      18806.299 
 1148000      182  4.3660994e-07      18823.206 
 1149000      182  4.3370381e-07      18839.697 
 1150000      182  6.3754547e-07      18856.548 
 1151000      182  4.2634992e-07      18873.581 
 1152000      182  4.1523854e-07      18891.393 
 1153000      182   4.539925e-07      18909.085 
 1154000      182  1.3461614e-06       18926.49 
 1155000      182   1.556055e-06       18943.91 
 1156000      182  3.9633702e-07      18962.138 
 1157000      182  3.9481078e-07      18978.838 
 1158000      182   3.263983e-07       18996.01 
 1159000      182   3.209241e-07        19013.2 
 1160000      182  3.5973415e-07      19030.924 
 1161000      182  7.9037294e-07      19048.334 
 1162000      182  7.0609851e-07      19065.501 
 1163000      182  6.0885653e-07      19082.952 
 1164000      182  5.1593863e-07      19100.473 
 1165000      182  1.1314141e-06      19117.126 
 1166000      182  5.7667749e-06      19134.589 
 1167000      182  4.9027429e-07      19152.026 
 1168000      182  4.9412843e-07      19169.462 
 1169000      182  6.7205165e-07       19186.69 
 1170000      182  6.4066131e-07      19203.055 
 1171000      182  5.6482155e-07      19220.454 
 1172000      182  5.5089507e-07      19238.105 
 1173000      182  5.4707719e-07      19254.981 
 1174000      182  6.0276866e-06      19272.278 
 1175000      182  1.1439499e-06      19288.617 
 1176000      182  2.6790158e-06      19306.029 
 1177000      182   3.858765e-07      19322.454 
 1178000      182  4.2205614e-07      19339.352 
 1179000      182  3.7805361e-07      19355.907 
 1180000      182  3.7647433e-07      19372.466 
 1181000      182  3.5275362e-07      19389.538 
 1182000      182  3.5362945e-07      19406.915 
 1183000      182  3.5372935e-07      19424.267 
 1184000      182   3.480951e-07      19440.918 
 1185000      182  3.4337272e-07      19457.876 
 1186000      182  3.2735755e-07      19475.332 
 1187000      182  3.0592426e-07      19492.806 
 1188000      182   2.991895e-07      19509.701 
 1189000      182   2.769401e-07      19527.325 
 1190000      182   5.011187e-06      19544.208 
 1191000      182  3.3016952e-06      19558.679 
 1192000      182  9.6234811e-06      19573.848 
 1193000      182  1.6131399e-05      19589.405 
 1194000      182  1.2950778e-05      19604.565 
 1195000      182  2.2263608e-05       19619.98 
 1196000      182   5.570661e-06      19635.351 
 1197000      182  1.0239588e-05      19650.997 
 1198000      182  3.8926478e-06      19665.743 
 1199000      182  4.2998348e-06      19680.881 
 1200000      182  1.1160596e-05      19700.479 
 1201000      182  2.6192472e-06      19715.815 
 1202000      182  2.6138551e-06      19731.252 
 1203000      182  3.2634357e-05      19746.307 
 1204000      182  2.8269859e-05      19761.765 
 1205000      182  2.7140916e-05       19776.89 
 1206000      182  1.6148742e-05      19791.941 
 1207000      182  1.6301348e-05       19807.14 
 1208000      182  5.7484334e-05      19822.057 
 1209000      182  4.1656353e-06      19837.629 
 1210000      182  7.1205943e-05      19852.924 
 1211000      182  8.5910167e-05      19867.896 
 1212000      182  0.00011095179      19883.247 
 1213000      182  0.00011332769      19898.089 
 1214000      182  4.9606928e-05      19913.527 
 1215000      182  2.4598336e-05      19928.631 
 1216000      182  2.5614628e-05      19944.159 
 1217000      182  0.00011441098      19959.455 
 1218000      182  2.8078596e-05      19974.254 
 1219000      182  2.1146167e-05      19989.256 
 1220000      182  1.6595688e-05      20003.795 
 1221000      182  8.6088199e-06      20018.413 
 1222000      182  1.2213094e-05      20033.896 
 1223000      182  7.0822869e-07      20048.793 
 1224000      182   5.366844e-07      20063.988 
 1225000      182  1.2234624e-06      20078.952 
 1226000      182  6.3109462e-06      20095.337 
 1227000      182   7.498129e-07      20112.341 
 1228000      182  3.0181677e-06      20129.108 
 1229000      182  8.3738938e-07      20146.265 
 1230000      182  1.0452234e-06      20163.721 
 1231000      182  6.6020445e-07      20180.625 
 1232000      182  4.1762175e-06      20198.625 
 1233000      182  1.4149377e-05      20215.701 
 1234000      182  4.4004317e-06      20232.381 
 1235000      182   1.238618e-06       20248.72 
 1236000      182  1.4671578e-06      20265.214 
 1237000      182   1.115441e-05       20281.82 
 1238000      182  7.4250426e-06      20299.575 
 1239000      182  9.3396289e-06      20316.973 
 1240000      182  3.0639724e-05      20335.837 
 1241000      182  4.1804194e-05      20355.121 
 1242000      182  7.7982363e-05      20374.488 
 1243000      182  2.5038649e-05      20395.722 
 1244000      182  5.6358451e-05      20416.495 
 1245000      182  2.4591349e-05      20438.141 
 1246000      182  5.3829043e-05       20457.06 
 1247000      182   8.202002e-06      20476.899 
 1248000      182  7.9602414e-06      20493.157 
 1249000      182  7.9258827e-06      20509.201 
 1250000      181  8.0957059e-07      20526.125 
 1251000      181  1.4772881e-06      20542.531 
 1252000      181  8.0896489e-07      20558.954 
 1253000      181  1.2468334e-06      20575.444 
 1254000      181  8.1829915e-07      20591.612 
 1255000      181  8.2402619e-07      20608.046 
 1256000      181  8.2809424e-07      20624.723 
 1257000      181  8.4719561e-07      20641.305 
 1258000      181  2.1929913e-06      20657.964 
 1259000      181  1.5148806e-06      20674.402 
 1260000      181  9.3707607e-07      20690.871 
 1261000      181  2.1823897e-06      20707.005 
 1262000      181  8.7134813e-07      20723.169 
 1263000      180  3.6277627e-06      20739.613 
 1264000      180  4.1860086e-07       20755.98 
 1265000      180  4.1259549e-07      20772.569 
 1266000      180  9.1099756e-07       20788.92 
 1267000      180  1.0432865e-06      20805.745 
 1268000      180  6.0081716e-07      20822.984 
 1269000      180  5.4522919e-07      20840.092 
 1270000      180  4.5967529e-07       20857.65 
 1271000      180  5.4709528e-07      20874.726 
 1272000      180  4.2682928e-07      20891.304 
 1273000      180  4.1031397e-07      20908.319 
 1274000      180  4.1037987e-07      20924.854 
 1275000      180  4.0197885e-07      20941.697 
 1276000      180  3.0622372e-07      20958.796 
 1277000      180  2.3864241e-06      20976.284 
 1278000      180  2.9473909e-07      20993.452 
 1279000      180  2.9043544e-07      21011.015 
 1280000      180  2.7479147e-06       21028.24 
 1281000      180  2.2345316e-05      21045.028 
 1282000      180  7.9692313e-06      21062.175 
 1283000      180  2.9649136e-07       21079.35 
 1284000      180   4.803876e-07      21095.807 
 1285000      180  1.1230589e-06      21112.528 
 1286000      180  1.4269895e-06       21129.28 
 1287000      180  2.9545278e-07      21146.774 
 1288000      180  9.6317567e-07      21164.413 
 1289000      180  3.1188354e-07      21181.073 
 1290000      180  2.9759647e-07      21198.878 
 1291000      180   2.797735e-07      21215.945 
 1292000      180  3.0243457e-07      21233.199 
 1293000      180  1.0397479e-06      21250.025 
 1294000      180  3.0299278e-07      21267.573 
 1295000      180  7.6425563e-07      21284.038 
 1296000      180  2.8951015e-07      21300.904 
 1297000      180  1.8870111e-06       21318.69 
 1298000      180  1.3703811e-06      21335.572 
 1299000      180  1.2789714e-06      21352.906 
 1300000      180  8.9214241e-07      21369.444 
 1301000      180  7.6896341e-07      21386.323 
 1302000      180  7.2465617e-07      21404.103 
 1303000      180  8.2242901e-07      21420.875 
 1304000      180  2.6278273e-06      21437.588 
 1305000      180  1.6893228e-06      21454.206 
 1306000      180  1.0725107e-06      21471.525 
 1307000      180  1.3520565e-06      21488.261 
 1308000      180  1.4466908e-06      21504.745 
 1309000      180  7.2593244e-07      21522.773 
 1310000      180  1.2217536e-06      21539.707 
 1311000      180  6.0994973e-07      21557.188 
 1312000      180  5.1762542e-07      21573.917 
 1313000      180  7.0309096e-07      21590.595 
 1314000      180  4.0510321e-07      21607.231 
 1315000      180  3.7210051e-07      21624.345 
 1316000      180  3.7969723e-07      21641.355 
 1317000      180   3.709194e-07      21658.721 
 1318000      180  3.6143454e-07      21677.041 
 1319000      180  3.8657335e-07      21694.165 
 1320000      180  3.5759855e-07      21710.888 
 1321000      180  3.9651093e-07      21727.943 
 1322000      180  3.4155233e-07      21745.162 
 1323000      180  3.4674448e-07      21762.156 
 1324000      180  3.3482288e-07      21779.156 
 1325000      180  3.2147951e-07       21796.01 
 1326000      180  5.2083066e-06      21812.918 
 1327000      180  2.7706343e-07      21832.939 
 1328000      180  2.6857682e-07       21852.01 
 1329000      180  2.6815156e-07      21869.794 
 1330000      180  2.6702779e-07      21887.016 
 1331000      180  2.6428252e-07      21904.403 
 1332000      180  2.9998128e-07      21921.695 
 1333000      180   3.719314e-07       21938.63 
 1334000      180  2.7723506e-07      21954.986 
 1335000      180  2.6562761e-07      21971.592 
 1336000      180   2.627575e-07      21988.672 
 1337000      180  2.6732319e-07      22006.563 
 1338000      180  2.6000143e-07      22023.534 
 1339000      180   2.672394e-07      22041.558 
 1340000      180  2.3071487e-07      22058.029 
 1341000      180  2.2489978e-07      22075.128 
 1342000      180  2.2694925e-07      22092.379 
[...]
 4806000      145  1.8991048e-05      102176.45 
 4807000      145  2.2463199e-05      102190.68 
 4808000      145  5.5405858e-06      102204.77 
 4809000      145  4.2797434e-06      102218.59 
 4810000      145   1.253313e-05      102232.57 
 4811000      145  1.7347373e-05      102246.37 
 4812000      145  9.8445885e-06      102260.33 
 4813000      145  1.9719584e-05      102273.42 
 4814000      145  5.5548051e-06      102285.95 
 4815000      145   1.560174e-07      102298.79 
 4816000      145   1.446702e-07      102311.29 
 4817000      145  3.9444725e-06      102324.77 
 4818000      145   6.720711e-06      102342.79 
 4819000      145  1.5921055e-07      102359.94 
 4820000      145   2.074325e-07      102377.17 
 4821000      145  1.5230798e-07      102394.36 
 4822000      145  1.2410788e-07      102411.78 
 4823000      145  2.1546652e-07      102428.17 
 4824000      145  1.3953918e-07      102441.66 
 4825000      145  2.8639343e-07      102454.72 
 4826000      145  1.3209262e-07      102468.06 
 4827000      145  1.2188235e-07      102481.62 
 4828000      145  6.0788158e-07      102495.05 
 4829000      145  4.7771744e-06      102507.76 
 4830000      145  1.1401466e-07      102520.54 
 4831000      145  1.1254079e-07      102533.71 
 4832000      145  1.9073937e-06      102546.47 
 4833000      145  2.7719942e-06      102561.03 
 4834000      145  5.3807843e-06      102576.78 
 4835000      145  2.4161983e-06      102592.14 
 4836000      145   2.431457e-06      102606.79 
 4837000      145  1.3758794e-06      102627.38 
 4838000      145  1.4868539e-06      102648.92 
 4839000      145  1.4215737e-06      102676.23 
 4840000      145  2.5317528e-07      102696.67 
 4841000      145  5.8770827e-07      102718.21 
 4842000      145  9.1023547e-08      102741.28 
 4843000      145  3.2675432e-07      102772.87 
 4844000      145  1.8729906e-05      102802.76 
 4845000      145   1.068449e-05      102821.73 
 4846000      145  6.0326373e-07      102836.35 
 4847000      145  1.9929209e-05       102849.7 
 4848000      145  2.3568508e-06      102865.07 
 4849000      145  1.8225392e-05       102879.9 
 4850000      145  2.0919064e-05      102894.83 
 4851000      145  6.5278696e-06      102910.71 
 4852000      145  6.5809781e-08      102925.14 
 4853000      145  1.0594144e-07      102939.61 
 4854000      145  1.3647284e-07      102953.82 
 4855000      145  1.1560232e-07      102973.26 
 4856000      145  8.0185682e-08      102988.99 
 4857000      145  6.7807043e-08      103003.86 
 4858000      145  1.3843257e-05      103018.95 
 4859000      145  9.6902498e-07      103033.89 
 4860000      145  1.5082236e-07      103048.44 
 4861000      145  4.1445206e-06      103061.83 
 4862000      145  6.6651862e-07      103076.17 
 4863000      145  5.1221011e-08      103090.11 
 4864000      145  5.1087458e-08       103104.1 
 4865000      145  8.0437019e-07      103117.96 
 4866000      145  2.0866583e-07      103132.35 
 4867000      145  1.1459366e-07      103145.87 
 4868000      145   7.559968e-08      103164.18 
 4869000      145   2.121868e-06      103180.81 
 4870000      145  1.1947927e-07       103198.2 
 4871000      145   2.059665e-06      103212.85 
 4872000      145  1.2970528e-07      103229.87 
 4873000      145  1.0590993e-07      103245.56 
 4874000      145  2.4456287e-06      103260.92 
 4875000      145  8.2105148e-06      103276.78 
 4876000      145  1.4430173e-06      103291.91 
 4877000      145  1.6298818e-07       103309.3 
 4878000      145  1.7399244e-07       103325.9 
 4879000      145  1.6715132e-07      103341.64 
 4880000      145  2.2369773e-07      103359.03 
 4881000      145  3.0180003e-07      103375.48 
 4882000      145  4.9199514e-07      103395.39 
 4883000      145  3.1502644e-07      103412.76 
 4884000      145   1.434076e-07      103427.92 
 4885000      145  8.6375227e-08      103444.67 
 4886000      145  8.6083335e-08      103460.85 
 4887000      145  8.3249525e-08      103476.54 
 4888000      145  8.5207368e-08      103492.15 
 4889000      145  8.3021879e-08      103511.07 
 4890000      145  8.1920309e-08      103529.84 
 4891000      145  1.0188816e-07      103549.94 
 4892000      145  9.9352436e-08      103568.73 
 4893000      145  6.4858019e-06      103585.81 
 4894000      145  7.8444435e-06      103602.03 
 4895000      145  1.4554661e-05      103619.43 
 4896000      145  8.4157423e-06      103639.97 
 4897000      145  1.6540531e-05      103659.95 
 4898000      145  2.8419205e-05      103681.33 
 4899000      145  1.8803224e-05      103703.84 
 4900000      145  4.3933214e-06      103722.88 
 4901000      145  5.2250479e-05      103744.51 
 4902000      145  1.0481346e-05      103764.28 
 4903000      145  2.2339226e-05      103780.95 
 4904000      145  1.3041319e-06      103796.71 
 4905000      145   1.508247e-05      103812.23 
 4906000      145  3.3061098e-06      103828.59 
 4907000      145  8.8919819e-06      103845.74 
 4908000      145   2.008167e-05      103861.51 
 4909000      145  1.9874979e-07      103877.95 
 4910000      145  6.9858877e-06      103893.19 
 4911000      145   1.523682e-05      103908.79 
 4912000      145  1.1241669e-05      103924.71 
 4913000      145   7.193082e-06      103940.72 
 4914000      145  1.2475091e-05      103955.21 
 4915000      145  1.7068418e-05      103970.39 
 4916000      145  1.8804952e-06      103986.79 
 4917000      145  8.6959252e-06      104003.76 
 4918000      145  9.3482775e-07      104021.19 
 4919000      145  4.1456784e-06      104038.44 
 4920000      145  1.3317696e-05      104056.18 
 4921000      145  9.4146162e-06      104073.77 
 4922000      145  4.8667336e-05      104092.83 
 4923000      145  4.8204279e-05      104112.58 
 4924000      145  1.9363877e-05      104132.83 
 4925000      145   1.314495e-05      104155.18 
 4926000      145  1.1388243e-05      104181.16 
 4927000      145  1.7124695e-06      104198.25 
 4928000      145  5.4736805e-07      104217.62 
 4929000      145  1.9787313e-06      104235.03 
 4930000      145  1.6613465e-05      104252.12 
 4931000      145  1.5950554e-06      104270.15 
 4932000      145  5.2813274e-07       104288.3 
 4933000      145  5.1301729e-07      104310.28 
 4934000      145  7.3048138e-07      104330.73 
 4935000      145  5.8855091e-07      104349.71 
 4936000      145  5.1629907e-06      104369.72 
 4937000      145  1.4935883e-06      104391.21 
 4938000      145  5.5463994e-07      104410.13 
 4939000      145   1.884743e-06      104429.51 
 4940000      145  3.2194865e-06      104447.17 
 4941000      145  5.8498545e-07      104466.12 
 4942000      145   4.928921e-07       104485.1 
 4943000      145  1.8882014e-06      104502.92 
 4944000      145  8.4981954e-07      104520.78 
 4945000      145  4.1604306e-07      104537.59 
 4946000      145   1.054004e-06      104555.16 
 4947000      145  4.7633726e-06      104573.86 
 4948000      145  2.5720264e-06      104598.11 
 4949000      145  5.7632233e-07      104619.35 
 4950000      145   5.542302e-07      104636.76 
 4951000      145  1.5146193e-06      104656.21 
 4952000      145  8.4007617e-06      104674.87 
 4953000      145  6.9859034e-07      104693.02 
 4954000      145  4.6917698e-07      104711.54 
 4955000      145  3.9852402e-07      104730.41 
 4956000      145  7.3027009e-07      104755.96 
 4957000      145  7.6806381e-07      104782.74 
 4958000      145  1.2170816e-06      104812.05 
 4959000      145  3.6460235e-06       104831.9 
 4960000      145  4.0459595e-07      104848.39 
 4961000      145  2.9420587e-07       104864.4 
 4962000      145  3.8356193e-07      104884.42 
 4963000      145  9.0172013e-07      104904.16 
 4964000      145  2.6474327e-07      104922.99 
 4965000      145  1.4807128e-06      104942.49 
 4966000      145   4.086215e-06      104963.65 
 4967000      145  3.9110641e-07      104984.16 
 4968000      145  6.3764943e-06      105002.95 
 4969000      145  3.2105994e-07      105023.45 
 4970000      145  8.3513914e-06      105041.75 
 4971000      145  8.2962275e-06      105056.81 
 4972000      145  3.0805003e-06      105077.29 
 4973000      145  5.5560592e-06      105096.36 
 4974000      145  7.4348895e-06      105130.33 
 4975000      145  6.3866679e-06       105163.1 
 4976000      145  1.4381802e-05      105192.97 
 4977000      145  5.3498482e-06      105218.38 
 4978000      145    6.51046e-06      105245.61 
 4979000      145  1.7762211e-05       105272.9 
 4980000      145  8.7816512e-06      105299.83 
 4981000      145   1.048697e-05      105326.43 
 4982000      145  3.6827568e-06      105354.39 
 4983000      145  1.3699287e-05      105383.41 
 4984000      145  8.9206661e-06      105416.08 
 4985000      145  3.7513357e-06      105446.08 
 4986000      145   8.739118e-06      105477.19 
 4987000      145  6.6404138e-06      105507.81 
 4988000      145  7.2527494e-06      105538.87 
 4989000      145  1.7880811e-05      105571.45 
 4990000      145  3.9453029e-06       105603.7 
 4991000      145  8.5450384e-06      105635.66 
 4992000      145  1.3911508e-06      105666.28 
 4993000      145  7.9696503e-07      105700.01 
 4994000      145  4.8731749e-06      105738.38 
 4995000      145  2.4519566e-05      105982.08 
 4996000      145  2.2008406e-05      106024.13 
 4997000      145  4.9731647e-06       106045.3 
 4998000      145  3.2197533e-05      106062.35 
 4999000      145  1.6360718e-05      106080.34 
 5000000      145  2.7939962e-05      106102.99 
 5001000      145  2.3602475e-05      106122.37 
 5002000      145  1.1475306e-05      106140.37 
 5003000      145  1.7442362e-06       106157.7 
 5004000      145  9.6730095e-06      106176.23 
 5005000      145  1.4924566e-05      106193.94 
 5006000      145  2.5296282e-05      106210.89 
 5007000      145   6.929926e-06      106228.28 
 5008000      145  2.5496822e-05      106248.09 
 5009000      145   1.058568e-05       106265.2 
 5010000      145  3.0006304e-05      106282.86 
 5011000      145  5.2689113e-05       106300.1 
 5012000      145  4.4216099e-06      106317.42 
 5013000      145  1.7492227e-05      106335.66 
 5014000      145  1.5585405e-05      106353.05 
 5015000      145  2.7313893e-05      106372.19 
 5016000      145  4.3613413e-05      106390.27 
 5017000      145  1.6423223e-05      106407.38 
 5018000      145  1.4950198e-06       106424.7 
 5019000      145  4.9461678e-05      106443.36 
 5020000      145  1.8501787e-06      106461.74 
 5021000      145  7.1141238e-07      106479.62 
 5022000      145  6.0844587e-06      106496.95 
 5023000      145  2.7589373e-07      106515.61 
 5024000      145   1.533054e-06      106532.65 
 5025000      145   1.958549e-06      106550.74 
 5026000      145  1.6390193e-06      106568.14 
 5027000      145  1.4698061e-05      106585.86 
 5028000      145    1.01418e-05      106605.74 
 5029000      145  4.8865855e-05      106623.55 
 5030000      145  4.0292923e-06      106640.51 
 5031000      145  3.3863887e-05      106657.12 
 5032000      145   1.616752e-05      106674.35 
 5033000      145  2.4809654e-05      106691.27 
 5034000      145  1.2206223e-05      106708.56 
 5035000      145  2.0595264e-06      106725.67 
 5036000      145  7.3656552e-06      106742.81 
 5037000      145   4.779404e-05      106761.46 
 5038000      145  2.2870356e-05      106778.84 
 5039000      145    7.11656e-06      106796.01 
 5040000      145  6.4383655e-05       106813.4 
 5041000      145  1.7261775e-05      106830.76 
 5042000      145  2.3037453e-05      106848.19 
 5043000      145  2.9940255e-05      106865.82 
 5044000      145  1.1945526e-06      106883.16 
 5045000      145  1.1670927e-06      106901.87 
 5046000      145  1.2263071e-06      106920.29 
 5047000      145  1.9669637e-05      106937.74 
 5048000      145  3.2693374e-05      106956.25 
 5049000      145  4.9614395e-06      106974.43 
 5050000      145  5.2736765e-06      106994.58 
 5051000      145  1.1187109e-06      107017.64 
 5052000      145  1.1010893e-06      107041.97 
 5053000      145  1.2116628e-06      107064.35 
 5054000      145  1.0658118e-06      107087.82 
 5055000      145  6.4297569e-06      107111.43 
 5056000      145  1.8370513e-06      107132.46 
 5057000      145  1.0270518e-06      107151.91 
 5058000      145  1.4536521e-06      107173.85 
 5059000      145  1.0081191e-06      107192.71 
 5060000      145   9.996021e-07      107209.73 
 5061000      145  9.7927848e-07      107227.84 
 5062000      145  8.6232965e-07      107245.17 
 5063000      145   8.556851e-07      107262.89 
 5064000      145  8.3274765e-07      107280.25 
 5065000      145  8.2374201e-07      107297.83 
 5066000      145  9.5297712e-07      107316.14 
 5067000      145  8.3080961e-07      107333.12 
 5068000      145  2.4558151e-06      107349.87 
 5069000      145  2.4621264e-06       107367.9 
 5070000      145  7.7940476e-07      107385.44 
 5071000      145   7.566784e-07      107403.22 
 5072000      145  1.0506375e-06      107421.29 
 5073000      145  1.3143599e-06      107438.55 
 5074000      145  7.8030691e-07      107456.71 
 5075000      145  3.2036106e-06      107474.37 
 5076000      145  7.1573817e-07      107491.82 
 5077000      145  6.6678976e-07      107509.36 
 5078000      145  1.3134383e-06       107526.7 
 5079000      144  5.0039598e-07      107544.07 
 5080000      144  5.3460056e-07      107561.76 
 5081000      144  3.1373328e-06      107579.21 
 5082000      143  5.9391952e-06       107595.9 
 5083000      143  3.7927755e-06      107611.68 
 5084000      143  6.5900276e-07      107627.48 
 5085000      143  3.9887535e-07      107642.85 
 5086000      143  1.5185509e-06       107658.5 
 5087000      143  3.1420744e-07      107675.54 
 5088000      143  8.6257741e-07      107696.64 
 5089000      143  2.1603026e-07      107715.85 
 5090000      143  2.0336802e-07      107736.05 
 5091000      143  2.4863296e-07      107754.77 
 5092000      143  9.1075052e-07      107772.92 
 5093000      143  1.9708102e-07      107791.05 
 5094000      143  1.8980609e-07      107810.21 
 5095000      143  2.1653081e-07      107827.59 
 5096000      143  2.2002288e-07      107844.28 
 5097000      143  2.1430019e-07      107862.71 
 5098000      142  1.3655639e-07      107881.84 
 5099000      142  1.8484737e-07      107901.39 
 5100000      142  7.9924409e-07      107920.34 
 5101000      142  9.2990286e-08      107945.39 
 5102000      142  8.2696909e-08      107969.02 
 5103000      142  8.1067967e-08      107987.52 
 5104000      142  8.0999613e-08      108004.28 
 5105000      142  8.0339794e-08      108020.15 
 5106000      142  7.9867137e-08      108035.87 
 5107000      142  8.4045009e-08      108051.88 
 5108000      142  7.5163501e-08      108067.68 
 5109000      142  1.2231624e-07       108083.9 
 5110000      142  1.1394064e-07      108099.21 
 5111000      142  1.0312822e-07      108114.94 
 5112000      142  8.4376353e-08      108131.16 
 5113000      142  3.9724725e-07      108147.77 
 5114000      142  3.3589594e-07      108165.67 
 5115000      142  7.0793007e-07         108184 
 5116000      142  7.8443657e-07      108201.85 
 5117000      142  2.5120781e-06      108219.83 
 5118000      142  8.7499485e-06      108238.26 
 5119000      142  7.8883549e-07      108255.99 
 5120000      142  1.3915226e-06      108274.18 
 5121000      142  4.7192739e-07      108293.06 
 5122000      142   1.339747e-06      108311.18 
 5123000      142  8.2900662e-07      108329.07 
 5124000      142  8.2274787e-07      108347.74 
 5125000      142  7.8849226e-07      108365.55 
 5126000      142  6.8530142e-07      108383.89 
 5127000      142  1.3312197e-06      108401.61 
 5128000      142  6.3977457e-07      108420.52 
 5129000      142  6.2368666e-07      108439.29 
 5130000      142  7.4211469e-07      108457.03 
 5131000      142  6.0338996e-07      108475.48 
 5132000      142  1.8946075e-06      108494.33 
 5133000      142  5.7577174e-07       108512.9 
 5134000      142  1.1342744e-06      108532.68 
 5135000      142  1.7520495e-06      108550.76 
 5136000      142  5.4082273e-07      108568.65 
 5137000      142  4.8672646e-07      108587.39 
 5138000      142  4.1168807e-07      108606.24 
 5139000      142   3.970672e-07      108624.74 
 5140000      142  2.6092941e-06      108643.54 
 5141000      142  3.8335747e-07      108661.53 
 5142000      142  3.7520309e-07      108680.57 
 5143000      142  4.9443873e-07      108699.88 
 5144000      142  3.7645158e-07       108720.9 
 5145000      142  3.4979945e-07      108739.45 
 5146000      142  2.8389433e-07      108758.29 
 5147000      142  2.9253297e-07      108777.96 
 5148000      142  5.3940855e-06      108796.76 
 5149000      142  1.4205534e-06      108814.78 
 5150000      142  4.1067241e-06      108834.66 
 5151000      142   6.417648e-06      108852.88 
 5152000      142  2.1004491e-05      108870.56 
 5153000      142  4.2720276e-06      108889.67 
 5154000      142  3.3439365e-07      108908.38 
 5155000      142  3.5474275e-07      108927.65 
 5156000      142  3.2005603e-07       108946.4 
 5157000      142  1.2104235e-06      108965.33 
 5158000      142  7.6478235e-06      108983.48 
 5159000      142    2.37896e-06      109001.37 
 5160000      142   2.872811e-06      109019.79 
 5161000      142  2.7637125e-06      109038.54 
 5162000      142  5.0770625e-06      109056.47 
 5163000      142  4.4305062e-06      109075.07 
 5164000      142  1.7048632e-06      109093.88 
 5165000      142  2.4184057e-06      109113.27 
 5166000      142  1.2955012e-06      109132.85 
 5167000      142  4.3518889e-06      109151.66 
 5168000      142  1.7703085e-06       109170.6 
 5169000      142  3.1544178e-06      109189.84 
 5170000      142  2.2367105e-06      109208.13 
 5171000      142  8.7072057e-07      109226.54 
 5172000      142  8.2935156e-07      109245.23 
 5173000      142  8.1116167e-07      109264.11 
 5174000      142  8.2303578e-07      109282.94 
 5175000      142   2.099223e-06      109301.16 
 5176000      142   8.048735e-07      109319.82 
 5177000      142  7.8529984e-07      109338.66 
 5178000      142  2.0173151e-06      109357.55 
 5179000      142  3.0373698e-05       109377.6 
 5180000      142  2.8696297e-05      109396.31 
 5181000      142  2.1288542e-05      109415.47 
 5182000      142  1.4877572e-05      109434.87 
 5183000      142  1.4713983e-05      109454.13 
 5184000      142  1.6974014e-05      109473.09 
 5185000      142  1.5156962e-05      109492.16 
 5186000      142   1.657417e-05      109511.65 
 5187000      142   1.436327e-05      109530.51 
 5188000      142  1.4273159e-05      109549.83 
 5189000      141  4.1142994e-06      109568.84 
 5190000      141  4.2526988e-06      109587.96 
 5191000      141  4.0502299e-06       109607.8 
 5192000      141  4.0566963e-06       109626.8 
 5193000      141  3.9929576e-06      109646.49 
 5194000      141  5.9915723e-06      109664.44 
 5195000      141  8.2222901e-06      109683.97 
 5196000      141  3.1259255e-05      109703.31 
 5197000      141  5.2780016e-06      109722.36 
 5198000      141  2.8979334e-05       109741.2 
 5199000      141  1.3727068e-05      109760.31 
 5200000      141  3.7433023e-05       109784.5 
Loop time of 109785 on 24 procs for 5000000 steps with 141 atoms, finish time Sat May 30 08:46:59 2026


Pair  time (%) = 105.267 (0.095885)
Neigh time (%) = 0.0591803 (5.39059e-05)
Comm  time (%) = 366.786 (0.334096)
Outpt time (%) = 179.366 (0.16338)
Other time (%) = 109133 (99.4066)

Nlocal:    5.875 ave 79 max 0 min
Histogram: 22 0 0 0 0 0 1 0 0 1
Nghost:    6.08333 ave 77 max 0 min
Histogram: 22 0 0 0 0 0 0 1 0 1
Neighs:    88.0833 ave 1226 max 0 min
Histogram: 22 0 0 0 0 0 0 1 0 1

Total # of neighbors = 2114
Ave neighs/atom = 14.9929
Neighbor list builds = 1395
Dangerous builds = 0
