# vtk DataFile Version 3.0
LIGGGHTS particles timestep 1000000
ASCII
DATASET POLYDATA
POINTS 255 float
0.0222596 0.0207829 0.0155986
0.0175405 0.0216463 0.0151607
0.0230384 0.0201199 0.020368
0.01626 0.0168583 0.0191503
0.0193915 0.0153846 0.0140226
0.0147843 0.0206771 0.0165099
0.0176895 0.0150734 0.0135092
0.023253 0.0189513 0.0201318
0.0227059 0.0230608 0.0134142
0.0184409 0.0236559 0.015459
0.015043 0.01872 0.0209771
0.0234152 0.0221967 0.0162868
0.016371 0.0232808 0.0129031
0.0170254 0.0230763 0.0207019
0.0205274 0.0170344 0.0216657
0.0163958 0.0165892 0.0201934
0.0228846 0.0146519 0.0144652
0.0216628 0.022587 0.0153499
0.0172499 0.0235725 0.0154897
0.020898 0.0141084 0.0132327
0.0187171 0.02376 0.0138106
0.0186229 0.015221 0.0235092
0.0166499 0.0192664 0.0159515
0.0192657 0.014332 0.0143523
0.023849 0.0187602 0.0159934
0.0170528 0.0209794 0.0231698
0.0219652 0.0233025 0.0127875
0.0188072 0.016716 0.0170471
0.0170201 0.0185949 0.0187801
0.0196816 0.0237521 0.0150149
0.0176572 0.0201024 0.0187676
0.0191748 0.0220291 0.0158239
0.0226934 0.0187945 0.0159356
0.0203335 0.0220614 0.00843265
0.0198882 0.0214312 0.016189
0.019858 0.0236694 0.0140322
0.0194373 0.0161727 0.0195451
0.0183241 0.0171787 0.0155278
0.0232161 0.0205055 0.015697
0.0224515 0.0153663 0.0152894
0.0135124 0.021711 0.0160245
0.0198676 0.0162857 0.0159687
0.0170932 0.0240091 0.0145467
0.0186277 0.0172272 0.0216134
0.0247825 0.0202981 0.0166128
0.0199787 0.0216175 0.0218397
0.0222889 0.0184249 0.0198978
0.0204544 0.0148469 0.022499
0.0156368 0.0145762 0.0142661
0.0213116 0.0210464 0.0182769
0.0157658 0.0180083 0.0212644
0.0194042 0.0244622 0.0136252
0.020571 0.022657 0.0153669
0.0185532 0.0222946 0.0165831
0.0221414 0.0221204 0.0228568
0.0234002 0.018439 0.0221411
0.016799 0.0218531 0.0157985
0.0168801 0.0230492 0.0147223
0.0206845 0.0179397 0.0199692
0.0202497 0.0214128 0.00791927
0.0170855 0.0170592 0.0154731
0.0246474 0.0181524 0.0158557
0.0220639 0.0204455 0.0238369
0.0203526 0.0147188 0.01564
0.0205328 0.015653 0.0189116
0.022049 0.0186735 0.0215383
0.0223433 0.0183719 0.0234113
0.0222009 0.0210111 0.0194827
0.0174018 0.0210962 0.0204392
0.0234374 0.0152179 0.0152006
0.0169242 0.0194627 0.023703
0.015107 0.01696 0.0231215
0.0183301 0.0220896 0.0222795
0.0176099 0.0239926 0.016438
0.0180391 0.0196979 0.0220069
0.0166572 0.0238602 0.0136623
0.0195756 0.0220838 0.0195203
0.0198023 0.0211495 0.0231758
0.0212653 0.0209509 0.0205623
0.0166719 0.0236462 0.0164176
0.0204416 0.0185814 0.019094
0.0206247 0.0207457 0.0165259
0.0189359 0.0154522 0.0212643
0.0198393 0.0155082 0.0234014
0.0175972 0.018946 0.0159414
0.0201319 0.014243 0.0138609
0.0161146 0.0176486 0.023078
0.0200882 0.0233434 0.0159104
0.0178878 0.0163826 0.0200867
0.0225591 0.0191948 0.0172592
0.0182239 0.0232236 0.0195949
0.0211715 0.0234544 0.0154194
0.0188937 0.0232528 0.0146545
0.018561 0.023717 0.0165805
0.0173799 0.0140852 0.0134805
0.0155948 0.0230085 0.0135288
0.0192847 0.0178246 0.00735966
0.0251496 0.0193772 0.0167439
0.0176447 0.0237156 0.0137013
0.0174724 0.0185867 0.0196807
0.0154545 0.0212038 0.0177172
0.0213803 0.0239609 0.0145441
0.0226717 0.0226665 0.0158111
0.0189539 0.01639 0.00805806
0.0185675 0.014598 0.0150171
0.0175842 0.0226499 0.0141039
0.0241918 0.0206948 0.0159101
0.0217006 0.0149418 0.0147835
0.0184704 0.0157995 0.0145275
0.0214079 0.0230921 0.0132686
0.024197 0.019695 0.0158942
0.0201391 0.0204827 0.0210752
0.0236713 0.0178028 0.0157647
0.0208525 0.0205134 0.0234486
0.0148521 0.0149322 0.0147736
0.0171379 0.0208396 0.0155855
0.0197404 0.015435 0.0153051
0.0219911 0.0169287 0.0235016
0.0189828 0.0202927 0.020892
0.0215656 0.0228534 0.0220222
0.0233245 0.0196277 0.0163788
0.018635 0.0173842 0.0239002
0.0163891 0.0202267 0.0158214
0.0195241 0.0205679 0.0165382
0.0231437 0.0176511 0.0193818
0.019886 0.0165115 0.0238828
0.0183725 0.0211044 0.0233661
0.0172123 0.015424 0.0152749
0.0248319 0.0218154 0.01605
0.0208805 0.0222565 0.0206547
0.01615 0.0212177 0.0153822
0.0211742 0.0239152 0.0128947
0.0178134 0.0218195 0.0161069
0.0226107 0.0236027 0.0142491
0.0171554 0.0214294 0.0187686
0.0236101 0.0222721 0.0150429
0.0186975 0.0212815 0.0162854
0.0180195 0.0146406 0.0120861
0.019862 0.0143538 0.0123829
0.0219374 0.0168761 0.0185239
0.0221146 0.0235921 0.0151171
0.0166839 0.0147423 0.014589
0.0167068 0.0220659 0.0147626
0.0184645 0.0194436 0.0159325
0.0159037 0.0236063 0.0142718
0.0212006 0.0153929 0.0235633
0.0230883 0.0170459 0.0154652
0.018515 0.0191524 0.0233761
0.0171465 0.0226965 0.0165608
0.0190631 0.0229898 0.0160766
0.0234014 0.020003 0.0219393
0.0210483 0.0145117 0.0141588
0.0206655 0.0185728 0.0222633
0.0253934 0.021048 0.0163593
0.0183933 0.020334 0.016382
0.0176172 0.0199999 0.0158473
0.016547 0.0228716 0.0137975
0.0176725 0.0154471 0.0161626
0.0236704 0.0213138 0.0153219
0.0172329 0.0236522 0.0123707
0.0212466 0.0191129 0.0203826
0.017481 0.0156061 0.0143292
0.0202235 0.0148435 0.0146555
0.0248371 0.0165962 0.0152136
0.0154267 0.0216624 0.020143
0.021032 0.0224914 0.0235638
0.0162987 0.0213981 0.0219243
0.0182439 0.0240798 0.0129899
0.0181725 0.0227722 0.0232441
0.0159405 0.0221951 0.0153923
0.020755 0.0218779 0.015966
0.0183647 0.0213616 0.0203271
0.0161867 0.0200783 0.0187067
0.0218289 0.0218086 0.0159553
0.0225139 0.0226026 0.0148259
0.0209009 0.0233175 0.0106805
0.0193669 0.0231578 0.0209709
0.0173825 0.0225861 0.0154514
0.0201646 0.0231648 0.0181277
0.0195875 0.0149253 0.0131562
0.0157086 0.0202448 0.0166687
0.0157582 0.0206978 0.0206796
0.0196655 0.0162549 0.0212528
0.0148574 0.0231563 0.0148239
0.0171947 0.0231327 0.0187115
0.0208702 0.0219483 0.0192301
0.0257718 0.0201552 0.0166578
0.0148427 0.0175164 0.0200467
0.0242826 0.0155498 0.0156192
0.0234951 0.0155643 0.0142644
0.0203379 0.0242426 0.0133362
0.0224805 0.0198188 0.0158779
0.0232199 0.0233809 0.0150103
0.0168016 0.0182774 0.0158816
0.019476 0.0214765 0.0185339
0.0164335 0.0142811 0.0137378
0.0184411 0.0214011 0.0192503
0.0185012 0.0149111 0.0140698
0.0209711 0.0154175 0.0152806
0.0177254 0.0176999 0.0233837
0.0240376 0.0214562 0.0165399
0.0151788 0.0208905 0.0237218
0.0145348 0.0220785 0.0158266
0.019547 0.0190568 0.0205443
0.0152128 0.0228117 0.0156927
0.0221531 0.0215879 0.0184376
0.0217511 0.0154179 0.0206195
0.022031 0.0144121 0.0140022
0.0177352 0.0223004 0.0193726
0.0217813 0.0209474 0.0164613
0.0168131 0.0186693 0.0212088
0.0158111 0.022475 0.0143464
0.0159917 0.0231676 0.0151659
0.0206056 0.0233316 0.014604
0.0186419 0.014814 0.0128498
0.019296 0.0239526 0.0159432
0.0173166 0.0173038 0.0205443
0.0195906 0.0227736 0.0151986
0.0162437 0.0227861 0.0161397
0.01813 0.0209354 0.0155383
0.0185841 0.0230946 0.022196
0.0218469 0.0202145 0.0225544
0.018755 0.0155295 0.0154472
0.0200892 0.0228233 0.0233133
0.0219134 0.0232676 0.0160629
0.0160061 0.0185342 0.0225191
0.023993 0.0161671 0.0148878
0.0199769 0.0152293 0.0206405
0.0183534 0.0139373 0.0142432
0.0185364 0.0175324 0.0227748
0.0179117 0.0234385 0.0146242
0.0183403 0.0139444 0.0132405
0.0153597 0.01815 0.018365
0.0183637 0.0226754 0.015281
0.0242083 0.0225536 0.0157933
0.0179565 0.023072 0.0161103
0.0157222 0.0184688 0.016749
0.0226895 0.0216615 0.0151146
0.0232993 0.0227615 0.0142284
0.0236721 0.0163164 0.015823
0.0163192 0.0214872 0.0238604
0.0145362 0.0197204 0.0218949
0.0214191 0.0227193 0.0168328
0.0174813 0.0222487 0.0216051
0.0218171 0.022944 0.0141689
0.0173999 0.0148831 0.0219941
0.0228591 0.0169326 0.0203231
0.0212898 0.0195973 0.0238571
0.0150619 0.0191096 0.0192361
0.0190082 0.0146227 0.011937
0.0208538 0.0167769 0.0184756
0.0177544 0.0163126 0.0150008
0.0218273 0.0238361 0.0136585
0.0189818 0.0164441 0.0150971
0.0217792 0.0202784 0.021379

VERTICES 255 510
1 0
1 1
1 2
1 3
1 4
1 5
1 6
1 7
1 8
1 9
1 10
1 11
1 12
1 13
1 14
1 15
1 16
1 17
1 18
1 19
1 20
1 21
1 22
1 23
1 24
1 25
1 26
1 27
1 28
1 29
1 30
1 31
1 32
1 33
1 34
1 35
1 36
1 37
1 38
1 39
1 40
1 41
1 42
1 43
1 44
1 45
1 46
1 47
1 48
1 49
1 50
1 51
1 52
1 53
1 54
1 55
1 56
1 57
1 58
1 59
1 60
1 61
1 62
1 63
1 64
1 65
1 66
1 67
1 68
1 69
1 70
1 71
1 72
1 73
1 74
1 75
1 76
1 77
1 78
1 79
1 80
1 81
1 82
1 83
1 84
1 85
1 86
1 87
1 88
1 89
1 90
1 91
1 92
1 93
1 94
1 95
1 96
1 97
1 98
1 99
1 100
1 101
1 102
1 103
1 104
1 105
1 106
1 107
1 108
1 109
1 110
1 111
1 112
1 113
1 114
1 115
1 116
1 117
1 118
1 119
1 120
1 121
1 122
1 123
1 124
1 125
1 126
1 127
1 128
1 129
1 130
1 131
1 132
1 133
1 134
1 135
1 136
1 137
1 138
1 139
1 140
1 141
1 142
1 143
1 144
1 145
1 146
1 147
1 148
1 149
1 150
1 151
1 152
1 153
1 154
1 155
1 156
1 157
1 158
1 159
1 160
1 161
1 162
1 163
1 164
1 165
1 166
1 167
1 168
1 169
1 170
1 171
1 172
1 173
1 174
1 175
1 176
1 177
1 178
1 179
1 180
1 181
1 182
1 183
1 184
1 185
1 186
1 187
1 188
1 189
1 190
1 191
1 192
1 193
1 194
1 195
1 196
1 197
1 198
1 199
1 200
1 201
1 202
1 203
1 204
1 205
1 206
1 207
1 208
1 209
1 210
1 211
1 212
1 213
1 214
1 215
1 216
1 217
1 218
1 219
1 220
1 221
1 222
1 223
1 224
1 225
1 226
1 227
1 228
1 229
1 230
1 231
1 232
1 233
1 234
1 235
1 236
1 237
1 238
1 239
1 240
1 241
1 242
1 243
1 244
1 245
1 246
1 247
1 248
1 249
1 250
1 251
1 252
1 253
1 254

POINT_DATA 255
SCALARS id int 1
LOOKUP_TABLE default
1
2
3
4
5
6
7
8
9
10
11
12
13
14
15
16
17
18
19
20
21
22
23
24
25
26
27
28
29
30
31
32
33
34
35
36
37
38
39
40
41
42
43
44
45
46
47
48
49
50
51
52
53
54
55
56
57
58
59
60
61
62
63
64
65
66
67
68
69
70
71
72
73
74
75
76
77
78
79
80
81
82
83
84
85
86
87
88
89
90
91
92
93
94
95
96
97
98
99
100
101
102
103
104
105
106
107
108
109
110
111
112
113
114
115
116
117
118
119
120
121
122
123
124
125
126
127
128
129
130
131
132
133
134
135
136
137
138
139
140
141
142
143
144
145
146
147
148
149
150
151
152
153
154
155
156
157
158
159
160
161
162
163
164
165
166
167
168
169
170
171
172
173
174
175
176
177
178
179
180
181
182
183
184
185
186
187
188
189
190
191
192
193
194
195
196
197
198
199
200
201
202
203
204
205
206
207
208
209
210
211
212
213
214
215
216
217
218
219
220
221
222
223
224
225
226
227
228
229
230
231
232
233
234
235
236
237
238
239
240
241
242
243
244
245
246
247
248
249
250
251
252
253
254
255

SCALARS type int 1
LOOKUP_TABLE default
1
1
1
1
1
1
1
1
1
1
1
1
1
1
1
1
1
1
1
1
1
1
1
1
1
1
1
1
1
1
1
1
1
1
1
1
1
1
1
1
1
1
1
1
1
1
1
1
1
1
1
1
1
1
1
1
1
1
1
1
1
1
1
1
1
1
1
1
1
1
1
1
1
1
1
1
1
1
1
1
1
1
1
1
1
1
1
1
1
1
1
1
1
1
1
1
1
1
1
1
1
1
1
1
1
1
1
1
1
1
1
1
1
1
1
1
1
1
1
1
1
1
1
1
1
1
1
1
1
1
1
1
1
1
1
1
1
1
1
1
1
1
1
1
1
1
1
1
1
1
1
1
1
1
1
1
1
1
1
1
1
1
1
1
1
1
1
1
1
1
1
1
1
1
1
1
1
1
1
1
1
1
1
1
1
1
1
1
1
1
1
1
1
1
1
1
1
1
1
1
1
1
1
1
1
1
1
1
1
1
1
1
1
1
1
1
1
1
1
1
1
1
1
1
1
1
1
1
1
1
1
1
1
1
1
1
1
1
1
1
1
1
1
1
1
1
1
1
1
1
1
1
1
1
1

SCALARS radius float 1
LOOKUP_TABLE default
0.0005
0.0005
0.0005
0.0005
0.0005
0.0005
0.0005
0.0005
0.0005
0.0005
0.0005
0.0005
0.0005
0.0005
0.0005
0.0005
0.0005
0.0005
0.0005
0.0005
0.0005
0.0005
0.0005
0.0005
0.0005
0.0005
0.0005
0.0005
0.0005
0.0005
0.0005
0.0005
0.0005
0.0005
0.0005
0.0005
0.0005
0.0005
0.0005
0.0005
0.0005
0.0005
0.0005
0.0005
0.0005
0.0005
0.0005
0.0005
0.0005
0.0005
0.0005
0.0005
0.0005
0.0005
0.0005
0.0005
0.0005
0.0005
0.0005
0.0005
0.0005
0.0005
0.0005
0.0005
0.0005
0.0005
0.0005
0.0005
0.0005
0.0005
0.0005
0.0005
0.0005
0.0005
0.0005
0.0005
0.0005
0.0005
0.0005
0.0005
0.0005
0.0005
0.0005
0.0005
0.0005
0.0005
0.0005
0.0005
0.0005
0.0005
0.0005
0.0005
0.0005
0.0005
0.0005
0.0005
0.0005
0.0005
0.0005
0.0005
0.0005
0.0005
0.0005
0.0005
0.0005
0.0005
0.0005
0.0005
0.0005
0.0005
0.0005
0.0005
0.0005
0.0005
0.0005
0.0005
0.0005
0.0005
0.0005
0.0005
0.0005
0.0005
0.0005
0.0005
0.0005
0.0005
0.0005
0.0005
0.0005
0.0005
0.0005
0.0005
0.0005
0.0005
0.0005
0.0005
0.0005
0.0005
0.0005
0.0005
0.0005
0.0005
0.0005
0.0005
0.0005
0.0005
0.0005
0.0005
0.0005
0.0005
0.0005
0.0005
0.0005
0.0005
0.0005
0.0005
0.0005
0.0005
0.0005
0.0005
0.0005
0.0005
0.0005
0.0005
0.0005
0.0005
0.0005
0.0005
0.0005
0.0005
0.0005
0.0005
0.0005
0.0005
0.0005
0.0005
0.0005
0.0005
0.0005
0.0005
0.0005
0.0005
0.0005
0.0005
0.0005
0.0005
0.0005
0.0005
0.0005
0.0005
0.0005
0.0005
0.0005
0.0005
0.0005
0.0005
0.0005
0.0005
0.0005
0.0005
0.0005
0.0005
0.0005
0.0005
0.0005
0.0005
0.0005
0.0005
0.0005
0.0005
0.0005
0.0005
0.0005
0.0005
0.0005
0.0005
0.0005
0.0005
0.0005
0.0005
0.0005
0.0005
0.0005
0.0005
0.0005
0.0005
0.0005
0.0005
0.0005
0.0005
0.0005
0.0005
0.0005
0.0005
0.0005
0.0005
0.0005
0.0005
0.0005
0.0005
0.0005
0.0005
0.0005
0.0005
0.0005
0.0005
0.0005
0.0005
0.0005
0.0005
0.0005
0.0005
0.0005
0.0005
0.0005

SCALARS mass float 1
LOOKUP_TABLE default
1.46608e-07
1.46608e-07
1.46608e-07
1.46608e-07
1.46608e-07
1.46608e-07
1.46608e-07
1.46608e-07
1.46608e-07
1.46608e-07
1.46608e-07
1.46608e-07
1.46608e-07
1.46608e-07
1.46608e-07
1.46608e-07
1.46608e-07
1.46608e-07
1.46608e-07
1.46608e-07
1.46608e-07
1.46608e-07
1.46608e-07
1.46608e-07
1.46608e-07
1.46608e-07
1.46608e-07
1.46608e-07
1.46608e-07
1.46608e-07
1.46608e-07
1.46608e-07
1.46608e-07
1.46608e-07
1.46608e-07
1.46608e-07
1.46608e-07
1.46608e-07
1.46608e-07
1.46608e-07
1.46608e-07
1.46608e-07
1.46608e-07
1.46608e-07
1.46608e-07
1.46608e-07
1.46608e-07
1.46608e-07
1.46608e-07
1.46608e-07
1.46608e-07
1.46608e-07
1.46608e-07
1.46608e-07
1.46608e-07
1.46608e-07
1.46608e-07
1.46608e-07
1.46608e-07
1.46608e-07
1.46608e-07
1.46608e-07
1.46608e-07
1.46608e-07
1.46608e-07
1.46608e-07
1.46608e-07
1.46608e-07
1.46608e-07
1.46608e-07
1.46608e-07
1.46608e-07
1.46608e-07
1.46608e-07
1.46608e-07
1.46608e-07
1.46608e-07
1.46608e-07
1.46608e-07
1.46608e-07
1.46608e-07
1.46608e-07
1.46608e-07
1.46608e-07
1.46608e-07
1.46608e-07
1.46608e-07
1.46608e-07
1.46608e-07
1.46608e-07
1.46608e-07
1.46608e-07
1.46608e-07
1.46608e-07
1.46608e-07
1.46608e-07
1.46608e-07
1.46608e-07
1.46608e-07
1.46608e-07
1.46608e-07
1.46608e-07
1.46608e-07
1.46608e-07
1.46608e-07
1.46608e-07
1.46608e-07
1.46608e-07
1.46608e-07
1.46608e-07
1.46608e-07
1.46608e-07
1.46608e-07
1.46608e-07
1.46608e-07
1.46608e-07
1.46608e-07
1.46608e-07
1.46608e-07
1.46608e-07
1.46608e-07
1.46608e-07
1.46608e-07
1.46608e-07
1.46608e-07
1.46608e-07
1.46608e-07
1.46608e-07
1.46608e-07
1.46608e-07
1.46608e-07
1.46608e-07
1.46608e-07
1.46608e-07
1.46608e-07
1.46608e-07
1.46608e-07
1.46608e-07
1.46608e-07
1.46608e-07
1.46608e-07
1.46608e-07
1.46608e-07
1.46608e-07
1.46608e-07
1.46608e-07
1.46608e-07
1.46608e-07
1.46608e-07
1.46608e-07
1.46608e-07
1.46608e-07
1.46608e-07
1.46608e-07
1.46608e-07
1.46608e-07
1.46608e-07
1.46608e-07
1.46608e-07
1.46608e-07
1.46608e-07
1.46608e-07
1.46608e-07
1.46608e-07
1.46608e-07
1.46608e-07
1.46608e-07
1.46608e-07
1.46608e-07
1.46608e-07
1.46608e-07
1.46608e-07
1.46608e-07
1.46608e-07
1.46608e-07
1.46608e-07
1.46608e-07
1.46608e-07
1.46608e-07
1.46608e-07
1.46608e-07
1.46608e-07
1.46608e-07
1.46608e-07
1.46608e-07
1.46608e-07
1.46608e-07
1.46608e-07
1.46608e-07
1.46608e-07
1.46608e-07
1.46608e-07
1.46608e-07
1.46608e-07
1.46608e-07
1.46608e-07
1.46608e-07
1.46608e-07
1.46608e-07
1.46608e-07
1.46608e-07
1.46608e-07
1.46608e-07
1.46608e-07
1.46608e-07
1.46608e-07
1.46608e-07
1.46608e-07
1.46608e-07
1.46608e-07
1.46608e-07
1.46608e-07
1.46608e-07
1.46608e-07
1.46608e-07
1.46608e-07
1.46608e-07
1.46608e-07
1.46608e-07
1.46608e-07
1.46608e-07
1.46608e-07
1.46608e-07
1.46608e-07
1.46608e-07
1.46608e-07
1.46608e-07
1.46608e-07
1.46608e-07
1.46608e-07
1.46608e-07
1.46608e-07
1.46608e-07
1.46608e-07
1.46608e-07
1.46608e-07
1.46608e-07
1.46608e-07
1.46608e-07
1.46608e-07
1.46608e-07
1.46608e-07
1.46608e-07
1.46608e-07
1.46608e-07
1.46608e-07
1.46608e-07
1.46608e-07
1.46608e-07
1.46608e-07
1.46608e-07
1.46608e-07
1.46608e-07
1.46608e-07
1.46608e-07

VECTORS velocity float
-0.000628122 0.0215131 -0.00926619
0.00577018 0.00119762 -0.00173227
0.0 -0.0 -0.01
0.0 -0.0 -0.01
0.00527503 0.000982117 -0.00168671
-1.08825e-08 0.0277277 -0.00892661
0.00186153 0.00668318 0.0148285
0.0 -0.0 -0.01
-0.000174748 5.83942e-05 -0.000460791
0.00178872 0.000184612 -0.000166847
0.0 -0.0 -0.01
-0.00322342 0.000550401 -0.00153071
0.00217745 -0.0288033 0.00304583
0.0 -0.0 -0.01
0.0 -0.0 -0.01
0.0 -0.0 -0.01
0.000275102 -0.000457595 0.000797391
0.000521111 0.00311736 -0.00102228
0.00176145 0.000228228 -0.000755753
0.001199 -0.000602197 0.00338203
-0.00189289 0.00206995 0.00142806
0.0 -0.0 -0.01
0.00538283 0.0020726 -0.00228278
8.19065e-05 -0.006651 0.00746335
-0.000562972 0.00204091 -0.00308564
0.0 -0.0 -0.01
0.000914285 0.000708041 -0.00106374
-0.0625236 0.0227889 -0.0321388
0.0 -0.0 -0.01
-0.000190164 -8.24661e-05 0.000122862
0.0 -0.0 -0.01
0.00179487 0.00106464 -0.000673008
0.000114049 0.0251798 0.00882225
0.000446739 -0.0165724 -0.016119
0.00364441 0.0014988 -0.00417488
0.00103723 -0.00245047 -0.00395915
0.0 -0.0 -0.01
-0.0013514 0.00171858 0.000716276
-0.003551 0.0106767 -0.00367688
0.00312486 -0.00295657 0.000843251
0.0145767 0.0215171 -0.0125553
0.00188673 0.00229573 0.00071641
0.0012347 -0.00046986 0.000827071
0.0 -0.0 -0.01
-0.00312032 0.000333006 -0.00492571
0.0 -0.0 -0.01
0.0 -0.0 -0.01
0.0 -0.0 -0.01
0.000565567 -0.000309452 -0.000202239
0.0 0.0 -0.056053
0.0 -0.0 -0.01
3.67323e-05 7.78336e-05 0.000202288
-0.00175286 0.000108049 -5.22514e-05
0.00657702 -0.00257827 -0.00124525
0.0 -0.0 -0.01
0.0 -0.0 -0.01
0.00716705 0.00269629 0.000904832
0.000467074 -0.00082215 0.00101095
0.0 -0.0 -0.01
0.000315569 -0.0189401 -0.0121362
0.00444086 0.0062154 0.00370147
0.0137551 0.00730917 0.000390635
0.0 -0.0 -0.01
0.000518578 0.000920654 -0.000566577
0.0 -0.0 -0.01
0.0 -0.0 -0.01
0.0 -0.0 -0.01
0.0 -0.0 -0.01
0.0 -0.0 -0.01
0.00390766 -0.00278608 0.00308204
0.0 -0.0 -0.01
0.0 -0.0 -0.01
0.0 -0.0 -0.01
-0.00142306 0.00147768 0.00370759
0.0 -0.0 -0.01
0.00112547 0.000783133 0.000770175
0.0 -0.0 -0.01
0.0 -0.0 -0.01
0.0 -0.0 -0.01
-0.00416578 0.0075663 0.0131341
0.0 -0.0 -0.01
-0.0153164 0.0329251 -0.00620093
0.0 -0.0 -0.01
0.0 -0.0 -0.01
0.0052618 0.000613321 -0.000527975
0.00154508 -0.00312548 0.00616552
0.0 -0.0 -0.01
0.000106578 0.000599058 0.00100942
0.0 -0.0 -0.01
-0.0105343 0.0539005 0.0327218
0.0 -0.0 -0.01
0.000138922 0.000597398 -0.000155036
0.00230089 0.00539639 -0.00795428
-0.00112528 -0.000124812 0.00137582
0.000603922 0.00274099 -0.00777084
0.00533131 0.00247855 -0.00303027
0.000620642 -0.0223385 0.00644494
-0.00130521 0.00209601 0.00193481
0.00156024 0.00143565 0.00124278
0.0 -0.0 -0.01
0.0 0.0 -0.118837
0.000307166 -0.00062637 0.000815687
-0.000292911 0.00196362 -0.0015501
0.000719286 -0.0163571 0.0135829
0.00231603 -0.00782699 0.00880631
-0.000270379 0.016467 -0.0231896
0.00167878 0.00273298 -0.00566712
0.0013737 0.00143479 -0.000650508
0.000308293 0.00340398 0.0044053
0.00240134 0.00235805 -0.00551843
0.00487734 0.00296169 -0.000758704
0.0 -0.0 -0.01
0.0101711 0.00185758 0.00124227
0.0 -0.0 -0.01
0.00120963 -0.00162915 0.00140667
0.00534049 0.00150705 -0.00188463
-0.000152597 0.00223434 -0.00187826
0.0 -0.0 -0.01
0.0 -0.0 -0.01
0.0 -0.0 -0.01
-0.000803199 0.00358886 -0.0110555
0.0 -0.0 -0.01
0.00531616 0.00242549 -0.00102045
-0.00505975 0.00645333 -0.000618172
0.0 -0.0 -0.01
0.0 -0.0 -0.01
0.0 -0.0 -0.01
-0.0144259 0.00715483 0.010069
-0.00225222 -0.000514801 -0.00342344
0.0 -0.0 -0.01
0.00183422 0.0150528 -0.00793714
0.000675551 0.00158422 -0.00141294
0.00531346 0.000926916 -0.00154087
-9.34939e-05 2.21354e-05 -0.000242714
0.0 -0.0 -0.01
-0.00163197 0.00181272 -0.000425822
0.00237803 0.00143009 -8.85982e-05
0.00399319 -0.000209525 0.00803161
0.00600928 0.00170498 -0.00266932
0.0 -0.0 -0.01
-0.000651414 0.0010725 -0.00040872
0.00359065 -0.00253455 0.000529283
-0.00281652 -0.000409365 0.000601428
0.00480514 0.000708748 0.00209727
0.000126317 0.000775765 0.000196759
0.0 -0.0 -0.01
0.00500303 0.00407163 0.0023954
0.0 -0.0 -0.01
0.00408267 -0.0158797 -0.0118964
0.00102435 0.000370376 0.000212103
0.0 -0.0 -0.01
-0.000501001 -0.000247527 -0.000388848
0.0 -0.0 -0.01
-0.00215723 -8.63641e-05 -0.00356301
0.00284179 0.00165968 0.00142662
0.00438863 0.00377653 -0.00191314
0.00438542 -0.00022337 -0.000734735
-0.0130873 -0.00182416 0.00745064
0.00143503 0.00205863 -0.00118028
-0.00168252 -0.0212188 -0.0402209
0.0 -0.0 -0.01
0.00429337 0.00762674 0.0150993
-0.0015758 0.00219263 -0.000283991
0.00366355 0.00442028 0.00109607
0.0 -0.0 -0.01
0.0 -0.0 -0.01
0.0 -0.0 -0.01
-5.07768e-05 0.000834586 -0.000207075
0.0 -0.0 -0.01
0.00517357 0.0163218 0.00393518
0.00237551 0.00150065 0.00124723
0.0 -0.0 -0.01
0.0 -0.0 -0.01
0.00263834 -0.00080993 -0.00671016
9.93684e-05 0.00258967 -0.00157663
0.000710219 -0.00472768 -0.0232451
0.0 -0.0 -0.01
0.0060141 0.00107537 -0.00123295
0.0 0.0 -0.0778999
0.00887171 0.000734834 -0.000791812
3.46097e-08 0.0286537 -0.0064132
0.0 -0.0 -0.01
0.0 -0.0 -0.01
0.000190988 0.00012562 0.000142993
0.0 -0.0 -0.01
0.0 -0.0 -0.01
-0.00179703 0.00188264 -0.0034381
0.0 -0.0 -0.01
0.00231282 0.000643847 0.00314341
0.00442684 0.00249488 0.00496296
-0.00907828 -0.00723831 -0.0228451
0.000504418 0.0239781 -0.0044734
0.000565097 3.22612e-05 -0.000918673
0.00646953 -0.00230777 -0.00192842
0.0 -0.0 -0.01
0.00177619 -0.00183142 0.000759078
0.0 -0.0 -0.01
0.00274281 0.00101644 0.0115647
0.00199514 0.000568364 -3.91222e-05
0.0 -0.0 -0.01
-0.00355766 0.000750527 -0.00365057
0.0 -0.0 -0.01
-0.000914587 0.0377662 -0.0251883
0.0 -0.0 -0.01
-0.00259799 0.00877986 0.0050204
0.0 -0.0 -0.01
0.0 -0.0 -0.01
4.74573e-06 0.00143926 -0.00244491
0.0 -0.0 -0.01
-0.000555112 -4.42197e-05 -0.00502091
0.0 -0.0 -0.01
0.00337228 0.0029601 -0.00130816
0.00443887 0.0170469 0.00689657
0.00109704 -0.002118 -0.00304213
0.00654314 0.000413321 0.00463529
-0.000362282 0.000312352 0.000395079
0.0 -0.0 -0.01
-0.00436901 9.40955e-05 1.01455e-05
-0.00472383 0.00882756 0.011788
0.00535149 0.000557683 -0.00211938
0.0 -0.0 -0.01
0.0 -0.0 -0.01
-0.00133701 -0.00129323 0.00368139
0.0 -0.0 -0.01
0.00323662 0.00162146 0.000727226
0.0 -0.0 -0.01
0.00376816 0.00319658 0.00457409
0.0 -0.0 -0.01
-0.00272398 -0.00105556 -0.00242247
0.0 -0.0 -0.01
0.00216991 0.000181597 1.50745e-06
0.00191919 -0.000350068 -0.000143578
0.0 0.0 -0.0375906
0.00574674 -9.21892e-05 -0.000704196
-0.0017386 0.000829119 -0.000903795
0.00511701 -0.00099175 0.000300831
-1.92039e-09 0.0290273 0.00330529
2.18674e-05 0.00159452 -0.00259364
-0.000202838 0.000506547 -0.00106676
0.000859208 0.00128669 0.00407946
0.0 -0.0 -0.01
0.0 -0.0 -0.01
0.0 0.0 -0.177413
0.0 -0.0 -0.01
0.0108565 -0.00402268 -0.0108132
0.0 -0.0 -0.01
0.0 -0.0 -0.01
0.0 -0.0 -0.01
0.0 -0.0 -0.01
0.00314005 -0.00123026 0.000447473
0.0 -0.0 -0.01
-0.0106383 -0.00438272 -0.00180345
1.758e-05 0.000273626 7.19106e-05
0.00527969 0.00607979 0.002176
0.0 -0.0 -0.01

VECTORS force float
-1.05917e-07 3.19381e-07 -2.19304e-08
1.17326e-06 6.72532e-07 2.29863e-07
0.0 0.0 0.0
0.0 0.0 0.0
-1.4267e-08 -4.18271e-07 -4.71247e-07
-1.71702e-14 -7.09375e-09 -2.22422e-08
-1.00769e-06 -2.70428e-06 1.00544e-06
0.0 0.0 0.0
-1.47136e-06 8.86067e-07 -3.82359e-07
1.20357e-06 4.48603e-07 -6.53237e-07
0.0 0.0 0.0
3.17169e-06 -8.7869e-07 7.93783e-07
-7.8832e-05 -0.000732916 -1.3124e-06
0.0 0.0 0.0
0.0 0.0 0.0
0.0 0.0 0.0
-3.57107e-07 -2.60655e-07 -4.77462e-07
8.00472e-07 -3.22231e-06 4.33941e-06
3.3466e-07 2.79721e-08 -6.36861e-07
-3.17906e-07 8.20099e-07 1.43632e-06
-5.01512e-07 2.4176e-07 -1.23431e-07
0.0 0.0 0.0
-3.07404e-07 1.15681e-06 1.12717e-06
1.38794e-06 -2.27562e-07 7.1654e-07
0.0 0.0 -1.43822e-06
0.0 0.0 0.0
-3.58231e-08 -2.41053e-08 -6.94715e-09
0.0 0.0 -1.43822e-06
0.0 0.0 0.0
2.91237e-06 2.69737e-07 6.24128e-08
0.0 0.0 0.0
-2.88761e-07 -1.18929e-06 6.56556e-07
0.0 0.0 -1.43822e-06
-1.90392e-09 -2.39896e-08 5.40834e-09
8.86931e-07 -9.39065e-07 5.12716e-07
0.0 0.0 -1.43822e-06
0.0 0.0 0.0
2.18909e-08 -6.15084e-08 -5.67103e-09
1.70224e-07 9.22019e-07 -5.06382e-07
-1.35117e-07 -2.90831e-07 -2.18071e-07
-2.12755e-08 4.90104e-09 -2.1482e-08
-2.57301e-08 -1.98018e-07 -3.41849e-08
-6.46864e-07 -2.2137e-07 -7.48246e-07
0.0 0.0 0.0
-1.55835e-07 -2.10439e-07 -9.49665e-07
0.0 0.0 0.0
0.0 0.0 0.0
0.0 0.0 0.0
7.68823e-08 -4.74839e-08 -1.69392e-08
0.0 0.0 -1.43822e-06
0.0 0.0 0.0
2.89014e-07 2.23258e-07 1.37163e-07
1.25494e-06 1.37053e-06 1.43166e-07
-4.96963e-07 -7.02868e-07 -1.07499e-06
0.0 0.0 0.0
0.0 0.0 0.0
5.45308e-07 1.12105e-06 -2.01881e-06
2.09834e-06 -1.87931e-06 -1.72693e-06
0.0 0.0 0.0
2.19529e-09 -1.48212e-08 5.9777e-09
-4.6052e-10 -2.38839e-09 1.14834e-08
-4.00573e-07 1.98535e-07 6.4293e-08
0.0 0.0 0.0
-7.44634e-07 -4.46734e-07 -8.07404e-07
0.0 0.0 0.0
0.0 0.0 0.0
0.0 0.0 0.0
0.0 0.0 0.0
0.0 0.0 0.0
2.40159e-07 -7.80395e-08 1.83376e-07
0.0 0.0 0.0
0.0 0.0 0.0
0.0 0.0 0.0
9.26282e-08 -3.77561e-07 -9.81362e-07
0.0 0.0 0.0
-2.17053e-05 -3.08257e-05 1.48734e-06
0.0 0.0 0.0
0.0 0.0 0.0
0.0 0.0 0.0
0.0 0.0 -1.43822e-06
0.0 0.0 0.0
0.0 0.0 -1.43822e-06
0.0 0.0 0.0
0.0 0.0 0.0
-3.25239e-07 5.3951e-07 3.56904e-07
1.07725e-07 -5.62321e-07 1.43486e-06
0.0 0.0 0.0
-7.47497e-07 -6.32978e-07 -5.48184e-07
0.0 0.0 0.0
0.0 0.0 -1.43822e-06
0.0 0.0 0.0
4.50687e-06 -3.74979e-06 2.1473e-06
-1.90113e-06 1.46873e-05 3.10654e-06
0.0 0.0 -1.43822e-06
-1.1124e-07 3.60349e-07 -8.62177e-07
2.06687e-07 9.38391e-08 -8.40042e-07
-3.71101e-09 -2.65729e-09 1.44243e-08
-2.55668e-07 2.27793e-07 -5.87827e-08
8.24845e-07 4.81164e-06 -2.29453e-07
0.0 0.0 0.0
0.0 0.0 -1.43822e-06
-4.3228e-08 5.1969e-07 -4.94281e-07
4.56274e-06 -4.01766e-06 3.73102e-06
-2.43689e-07 -5.40957e-07 -1.98497e-07
-7.66335e-08 2.13015e-07 -5.58867e-07
-5.50008e-07 -6.44581e-07 2.13131e-06
-3.13285e-08 2.80496e-07 -1.25185e-06
-2.34501e-08 -1.81831e-07 -1.09369e-06
1.78039e-07 5.02932e-07 2.74679e-06
6.89683e-08 -9.33303e-08 2.056e-07
-1.66207e-07 8.08927e-07 4.02513e-09
0.0 0.0 0.0
-2.84812e-07 2.64547e-07 9.11525e-08
0.0 0.0 0.0
1.09408e-07 -7.51915e-08 -3.2098e-08
1.27364e-07 8.66489e-07 -5.60797e-07
3.47064e-07 -4.00277e-07 -6.53903e-07
0.0 0.0 0.0
0.0 0.0 0.0
0.0 0.0 0.0
1.17225e-06 3.37027e-07 3.81119e-07
0.0 0.0 0.0
-4.21881e-07 1.57592e-06 -6.08823e-07
4.48231e-07 -5.26217e-07 2.02782e-07
0.0 0.0 0.0
0.0 0.0 0.0
0.0 0.0 0.0
-4.98896e-07 3.9055e-07 1.69169e-06
5.10443e-07 -1.26446e-07 2.51029e-07
0.0 0.0 0.0
-3.10229e-07 4.5798e-07 -1.65523e-07
-1.39479e-08 -6.51956e-10 3.63642e-08
-1.42013e-07 -5.98733e-07 1.45004e-06
3.05881e-07 -9.64018e-07 -1.67181e-06
0.0 0.0 0.0
4.11163e-07 -2.81224e-06 3.91937e-06
-1.03602e-06 -1.25332e-06 4.83333e-07
1.35841e-07 1.37079e-08 -1.33137e-06
-3.90303e-07 4.17877e-07 -6.4461e-07
0.0 0.0 0.0
-3.54692e-07 1.55101e-07 -2.55741e-07
1.45378e-07 1.66648e-07 -2.06618e-07
-2.02916e-08 -2.16788e-06 9.47627e-07
-4.72664e-07 -5.58701e-07 2.28119e-08
5.08589e-07 6.89232e-07 -5.92206e-07
0.0 0.0 0.0
-2.06412e-08 9.70152e-08 6.51246e-08
0.0 0.0 0.0
0.0 0.0 -1.43822e-06
1.49494e-06 -4.54856e-07 9.04529e-08
0.0 0.0 0.0
-3.14427e-09 -4.23412e-07 -7.77431e-07
0.0 0.0 0.0
6.07196e-07 -1.16027e-06 -9.62582e-07
-3.81254e-07 -1.02892e-06 -1.02609e-06
-1.52643e-07 8.85258e-07 -2.04295e-07
-1.50053e-06 -2.25158e-05 6.10705e-06
0.0 0.0 -1.43822e-06
3.45978e-07 -1.36776e-06 -3.24592e-08
-6.88376e-08 -2.12452e-07 -3.24697e-07
0.0 0.0 0.0
-1.11e-07 -3.90405e-07 7.93883e-07
0.0 0.0 -1.43822e-06
2.61479e-07 -2.0213e-06 3.00052e-07
0.0 0.0 0.0
0.0 0.0 0.0
0.0 0.0 0.0
4.7581e-08 2.9258e-07 1.96185e-06
0.0 0.0 0.0
1.18048e-06 5.90373e-07 -2.55585e-06
4.466e-07 6.12764e-07 7.03803e-07
0.0 0.0 0.0
0.0 0.0 0.0
-4.11727e-09 -8.74528e-08 -1.21941e-06
6.73955e-07 -1.27151e-07 2.73066e-06
-7.64826e-09 -1.67946e-08 -1.49406e-08
0.0 0.0 0.0
3.67877e-07 3.51322e-07 -4.12513e-07
0.0 0.0 -1.43822e-06
-5.07617e-07 -2.42206e-07 -4.84625e-07
7.51027e-11 -5.91606e-09 -2.55797e-08
0.0 0.0 0.0
0.0 0.0 0.0
5.84649e-08 -8.66443e-08 -1.23304e-06
0.0 0.0 0.0
0.0 0.0 0.0
-2.28588e-07 3.12827e-07 -3.94228e-07
0.0 0.0 0.0
1.62288e-07 6.85052e-08 -4.15798e-07
-1.69585e-07 -3.02575e-07 -1.03988e-08
-4.42485e-08 -4.07249e-07 -9.85445e-07
1.34879e-07 -7.88925e-07 5.78774e-08
-1.89222e-07 -1.69698e-06 2.52677e-06
-9.21495e-08 4.14985e-07 1.19183e-07
0.0 0.0 0.0
1.11147e-07 -3.82984e-08 -8.46375e-08
0.0 0.0 0.0
2.45462e-06 -1.74376e-06 -8.95872e-07
1.46021e-07 1.30137e-07 9.53612e-08
0.0 0.0 0.0
1.58385e-07 -1.22857e-06 -6.44108e-07
0.0 0.0 0.0
-8.69394e-09 1.3011e-07 -1.37658e-07
0.0 0.0 0.0
-5.07461e-08 1.33817e-07 -1.47778e-06
0.0 0.0 0.0
0.0 0.0 0.0
-1.14354e-07 1.61899e-07 -1.17284e-06
0.0 0.0 0.0
-1.42667e-07 9.23819e-07 -2.83058e-07
0.0 0.0 0.0
8.95575e-07 3.6446e-07 3.071e-07
1.22051e-06 2.95188e-06 1.38269e-07
-5.71865e-07 5.63127e-07 -6.8936e-07
-8.09244e-07 -4.05845e-07 -3.71427e-07
2.38791e-07 -4.47305e-07 -4.01179e-07
0.0 0.0 0.0
8.96696e-07 7.1093e-07 -9.0371e-07
2.03033e-06 3.869e-06 1.07928e-06
1.40473e-07 4.08622e-08 -1.8093e-08
0.0 0.0 0.0
0.0 0.0 0.0
6.26948e-07 -7.2831e-08 2.56215e-06
0.0 0.0 0.0
6.48011e-06 1.01331e-07 5.51159e-06
0.0 0.0 0.0
3.0973e-07 -4.79401e-08 -2.82617e-07
0.0 0.0 0.0
3.01737e-07 2.84127e-07 -1.22987e-06
0.0 0.0 0.0
-1.73351e-06 2.6601e-06 -9.37181e-07
2.02195e-07 -5.33167e-07 1.07124e-06
0.0 0.0 -1.43822e-06
7.44099e-07 1.01649e-06 -7.65898e-07
-1.86952e-06 -5.7964e-08 -2.09777e-06
6.2143e-07 1.11198e-06 5.25381e-07
-8.85981e-15 2.73515e-09 -2.32622e-08
3.21449e-08 -1.4798e-06 2.36646e-07
2.53942e-06 -8.74966e-08 5.09632e-06
9.62168e-08 1.25643e-07 -8.24709e-07
0.0 0.0 0.0
0.0 0.0 0.0
0.0 0.0 -1.43822e-06
0.0 0.0 0.0
8.55342e-08 -3.54655e-08 -1.34617e-07
0.0 0.0 0.0
0.0 0.0 0.0
0.0 0.0 0.0
0.0 0.0 0.0
-3.43066e-09 -5.93402e-08 -1.39675e-06
0.0 0.0 0.0
-1.2356e-07 9.93189e-08 -1.14976e-06
-2.66705e-07 1.86867e-07 -2.3286e-07
0.0 0.0 -1.43822e-06
0.0 0.0 0.0
