# vtk DataFile Version 3.0
LIGGGHTS particles timestep 4000000
ASCII
DATASET POLYDATA
POINTS 273 float
0.0259137 0.0222677 0.00873938
0.0244119 0.0181805 0.0164261
0.0207774 0.0165645 0.0161293
0.0180735 0.0237678 0.015817
0.0210565 0.0229 0.0135947
0.023747 0.015751 0.0144817
0.0205007 0.0243854 0.0133862
0.016079 0.021377 0.0167099
0.0252948 0.0200987 0.00733171
0.0209624 0.0229787 0.0169491
0.0226258 0.0166429 0.0156462
0.0223086 0.0183494 0.0158893
0.0277042 0.0207065 0.0154747
0.0228217 0.0235992 0.0152703
0.0154155 0.0160683 0.0158499
0.0271422 0.0226114 0.0137767
0.0190201 0.0215198 0.0161395
0.018111 0.0142135 0.0126606
0.019976 0.0225323 0.00898924
0.0224188 0.0229713 0.0159827
0.0237367 0.0160355 0.016077
0.0152617 0.0215666 0.0161516
0.0238646 0.0149855 0.0101783
0.0215574 0.0224907 0.0163031
0.0159426 0.0231605 0.0133138
0.0226413 0.0219302 0.0174214
0.0176225 0.0231131 0.0165284
0.0217525 0.0225623 0.0141845
0.0199883 0.0212674 0.0167591
0.0227013 0.0236334 0.0143421
0.0206596 0.0239373 0.0123995
0.0211096 0.0185103 0.0167386
0.0201752 0.0208269 0.00762218
0.0255563 0.0214356 0.0168717
0.0162694 0.0237652 0.0141122
0.0209325 0.0141019 0.01329
0.0189702 0.0207206 0.0175496
0.0218059 0.0149951 0.0148516
0.0154641 0.0205969 0.0165728
0.0267593 0.0232688 0.0123968
0.0146596 0.022919 0.0185595
0.0205744 0.0147334 0.0154827
0.0230129 0.0190876 0.0159418
0.0197313 0.0241437 0.0128874
0.0152972 0.0223309 0.0167955
0.0209074 0.0155859 0.0164451
0.0186493 0.0236974 0.0143583
0.0228342 0.0160518 0.0147833
0.0181916 0.0182023 0.0158592
0.0227508 0.0202241 0.015794
0.0187386 0.0244025 0.0170945
0.0197938 0.0245829 0.0172496
0.0218169 0.0212921 0.0164436
0.0245937 0.0220848 0.0156649
0.0136847 0.0203095 0.0165993
0.0217646 0.0207499 0.0156051
0.0262687 0.0231076 0.0100305
0.0208912 0.0147493 0.0145245
0.0182266 0.0210012 0.0164608
0.0274974 0.0213902 0.0150667
0.0156602 0.014611 0.0143431
0.0201209 0.0242173 0.0142687
0.0166994 0.0254493 0.0208094
0.0242064 0.016806 0.0165077
0.0199275 0.0237858 0.015425
0.0215641 0.0149274 0.017149
0.0170437 0.0199999 0.0177946
0.0182818 0.0140686 0.0145021
0.0173491 0.0233753 0.0145623
0.0177882 0.0237368 0.0137358
0.0227637 0.0185595 0.0167557
0.0192809 0.0180857 0.0166405
0.0183607 0.0150462 0.0146978
0.0250745 0.0214662 0.0160721
0.0198543 0.0213243 0.0182478
0.0175329 0.0212851 0.0154968
0.0249068 0.0163076 0.0159965
0.0176918 0.0188169 0.0167743
0.0245257 0.0198975 0.0166679
0.0186911 0.0241271 0.0127625
0.0219421 0.0233171 0.0107783
0.0193539 0.0245066 0.0137866
0.0140985 0.0154148 0.0152859
0.017741 0.0240795 0.0129353
0.0213327 0.0243246 0.0140076
0.0222218 0.0205305 0.0169571
0.0226552 0.0229484 0.013643
0.0210026 0.0239784 0.0169357
0.0239892 0.0226369 0.0152201
0.0197347 0.0191136 0.0167555
0.0188608 0.0152879 0.0138666
0.0219803 0.0176458 0.0165233
0.0281461 0.0185983 0.0158021
0.0226519 0.0211726 0.0154226
0.0230952 0.0152946 0.0138763
0.0160784 0.0190704 0.0167502
0.0181459 0.0154962 0.0157721
0.0174678 0.014425 0.0161705
0.0253631 0.0172975 0.0164505
0.0198366 0.0150273 0.0148751
0.0165502 0.0236998 0.0150681
0.0165357 0.0149102 0.0148179
0.0183251 0.0229634 0.0150057
0.0173764 0.0149944 0.0153537
0.0258621 0.019296 0.0167385
0.0137128 0.0218015 0.0184758
0.0165987 0.0169689 0.0154473
0.021319 0.0239139 0.013094
0.0181995 0.0142793 0.0155022
0.0220715 0.0237506 0.0136642
0.0133666 0.0215215 0.0161515
0.0240063 0.0189707 0.0159407
0.0166983 0.0213797 0.017497
0.0218757 0.0238471 0.0148143
0.0190362 0.0203239 0.0165707
0.0200346 0.0202771 0.0166204
0.0208619 0.023615 0.0157356
0.018235 0.0244589 0.0138315
0.0182365 0.0145446 0.0136239
0.0127909 0.0207426 0.0164827
0.0161862 0.0198903 0.0161565
0.0193627 0.0205323 0.00748645
0.0209695 0.0217164 0.0160678
0.017622 0.0240943 0.0167226
0.0286218 0.0168039 0.0151367
0.0233469 0.0230236 0.0156006
0.0172988 0.0148779 0.013045
0.0243819 0.0175222 0.0156741
0.0201973 0.0143717 0.0139115
0.0295293 0.0236121 0.0318183
0.0169314 0.0197428 0.0168333
0.0190313 0.0155216 0.0152936
0.0174123 0.0162201 0.0155102
0.0249005 0.0220877 0.0164964
0.0208389 0.0232257 0.0128018
0.0234251 0.022003 0.0159985
0.0185301 0.0227892 0.0162566
0.017027 0.0191001 0.0160734
0.0197882 0.0140774 0.0167278
0.0173895 0.0145193 0.014474
0.0236756 0.0182674 0.0170971
0.0242243 0.0226013 0.0160593
0.0178576 0.0159134 0.0146455
0.0514392 0.0202095 0.00593542
0.0190773 0.023861 0.0134133
0.0194227 0.023586 0.0166415
0.0249595 0.0184615 0.00725274
0.0171186 0.0242796 0.014119
0.0165679 0.0233182 0.0164246
0.021801 0.0150086 0.0158513
0.0292446 0.0150489 0.0128454
0.0140685 0.0208879 0.017389
0.0229262 0.0163677 0.0165594
0.0279227 0.0198224 0.0157379
0.0164145 0.0142695 0.0137826
0.0171761 0.0218322 0.0164056
0.0243265 0.0159262 0.0152772
0.0155959 0.0234503 0.0147709
0.021358 0.0226902 0.0152786
0.017534 0.014615 0.0119494
0.0151575 0.0228342 0.0138318
0.0191591 0.0225271 0.0154428
0.0168517 0.023825 0.0132792
0.0177009 0.0243946 0.0181426
0.0260958 0.0228389 0.00934242
0.0218557 0.0192271 0.0169072
0.0202169 0.0241081 0.0163308
0.0270116 0.0203671 0.02345
0.0234405 0.0211925 0.0175829
0.0247598 0.0178968 0.0178849
0.0161737 0.0168067 0.016373
0.0190671 0.0144057 0.0150213
0.0159766 0.0242186 0.0183021
0.0232172 0.0179387 0.0158071
0.0242049 0.0155954 0.00892924
0.0146784 0.0199899 0.0166895
0.02131 0.0234866 0.0141207
0.0146999 0.0232862 0.015183
0.0192083 0.0143561 0.0137655
0.0176338 0.0152973 0.0138886
0.015358 0.0224926 0.0148845
0.0216433 0.0234872 0.0163457
0.0204326 0.0237434 0.0136874
0.0182304 0.0172715 0.0163053
0.0222883 0.0144742 0.0141474
0.0234892 0.0147511 0.0118496
0.0155979 0.0215623 0.0151655
0.0140559 0.0166353 0.0161821
0.022232 0.0229672 0.0148763
0.0235249 0.0170463 0.0154767
0.0259145 0.0205256 0.017063
0.0168366 0.0229233 0.013683
0.0264684 0.0233439 0.0108679
0.016614 0.0211923 0.0158814
0.0215145 0.0217291 0.0150513
0.0187009 0.0173241 0.0075727
0.0162494 0.0184882 0.0159554
0.0220567 0.0193806 0.0159393
0.0143075 0.0218222 0.0159946
0.0223454 0.021976 0.0159318
0.0224535 0.0219944 0.0148389
0.0171976 0.0223936 0.0144494
0.0226087 0.0155979 0.0158705
0.0162255 0.0227815 0.015296
0.0256953 0.0213823 0.00805368
0.0156839 0.0152797 0.0151901
0.0179811 0.0163016 0.0163636
0.0213146 0.0234122 0.0121108
0.0163014 0.0223586 0.0169222
0.0191016 0.0192604 0.00715679
0.021088 0.0155915 0.0154616
0.0143573 0.0160253 0.0178172
0.0206979 0.0195173 0.0167522
0.0234102 0.0217736 0.0150254
0.0141065 0.0227858 0.0158151
0.0200465 0.0150829 0.0165209
0.0195306 0.0232862 0.0146257
0.0122615 0.0198332 0.0166687
0.0190263 0.0234794 0.0157297
0.0243151 0.00735665 0.0416228
0.0148335 0.022496 0.0176683
0.0201025 0.0157263 0.0155637
0.0131822 0.0194491 0.0167369
0.0233669 0.0173421 0.0165967
0.0173706 0.0140455 0.0135938
0.016857 0.0159778 0.01471
0.0230846 0.0147146 0.0147024
0.0161699 0.0225579 0.0143192
0.0236191 0.0209249 0.0155308
0.0152925 0.0226888 0.0158602
0.0201995 0.0229986 0.00983927
0.0157829 0.0206952 0.0156296
0.0220595 0.0233122 0.0127637
0.0143222 0.000903028 0.0435188
0.0245729 0.0169741 0.00767971
0.0178697 0.0204531 0.0172165
0.016902 0.0207363 0.0167233
0.0210441 0.0145988 0.0163603
0.0199419 0.0218646 0.0159582
0.0172541 0.0176701 0.0157299
0.0169508 0.0160569 0.0168347
0.0211096 0.0232697 0.0104379
0.0217747 0.0166366 0.0161931
0.0181069 0.0219129 0.0160264
0.0255422 0.0208547 0.0163588
0.0234449 0.015389 0.0153635
0.0190211 0.0146136 0.0119517
0.0161165 0.0220549 0.0159753
0.0217161 0.0230294 0.0133545
0.01797 0.0194186 0.0160242
0.0186978 0.0189371 0.0167414
0.0237996 0.0199663 0.0158458
0.0203576 0.0232514 0.010629
0.0209764 0.0228922 0.00949583
0.0181898 0.0168307 0.015354
0.0232045 0.0224891 0.0143408
0.0177573 0.0203739 0.0158336
0.0204856 0.0226825 0.0157692
0.0224176 0.0148889 0.0166294
0.0196621 0.0144805 0.0158214
0.0165758 0.0155726 0.015581
0.0157144 0.0231528 0.0171833
0.0144505 0.0209313 0.016427
0.0199313 0.0140144 0.0129885
0.0205836 0.0232187 0.0147609
0.0173811 0.0222678 0.0154235
0.0197194 0.0165147 0.0160786
0.0145089 0.0217247 0.0170331
0.021422 0.0139748 0.0141527
0.0172522 0.0232394 0.0156079
0.0188823 0.0181444 0.00729551
0.0140997 0.0192843 0.0170986
0.0148303 0.01494 0.0147935

VERTICES 273 546
1 0
1 1
1 2
1 3
1 4
1 5
1 6
1 7
1 8
1 9
1 10
1 11
1 12
1 13
1 14
1 15
1 16
1 17
1 18
1 19
1 20
1 21
1 22
1 23
1 24
1 25
1 26
1 27
1 28
1 29
1 30
1 31
1 32
1 33
1 34
1 35
1 36
1 37
1 38
1 39
1 40
1 41
1 42
1 43
1 44
1 45
1 46
1 47
1 48
1 49
1 50
1 51
1 52
1 53
1 54
1 55
1 56
1 57
1 58
1 59
1 60
1 61
1 62
1 63
1 64
1 65
1 66
1 67
1 68
1 69
1 70
1 71
1 72
1 73
1 74
1 75
1 76
1 77
1 78
1 79
1 80
1 81
1 82
1 83
1 84
1 85
1 86
1 87
1 88
1 89
1 90
1 91
1 92
1 93
1 94
1 95
1 96
1 97
1 98
1 99
1 100
1 101
1 102
1 103
1 104
1 105
1 106
1 107
1 108
1 109
1 110
1 111
1 112
1 113
1 114
1 115
1 116
1 117
1 118
1 119
1 120
1 121
1 122
1 123
1 124
1 125
1 126
1 127
1 128
1 129
1 130
1 131
1 132
1 133
1 134
1 135
1 136
1 137
1 138
1 139
1 140
1 141
1 142
1 143
1 144
1 145
1 146
1 147
1 148
1 149
1 150
1 151
1 152
1 153
1 154
1 155
1 156
1 157
1 158
1 159
1 160
1 161
1 162
1 163
1 164
1 165
1 166
1 167
1 168
1 169
1 170
1 171
1 172
1 173
1 174
1 175
1 176
1 177
1 178
1 179
1 180
1 181
1 182
1 183
1 184
1 185
1 186
1 187
1 188
1 189
1 190
1 191
1 192
1 193
1 194
1 195
1 196
1 197
1 198
1 199
1 200
1 201
1 202
1 203
1 204
1 205
1 206
1 207
1 208
1 209
1 210
1 211
1 212
1 213
1 214
1 215
1 216
1 217
1 218
1 219
1 220
1 221
1 222
1 223
1 224
1 225
1 226
1 227
1 228
1 229
1 230
1 231
1 232
1 233
1 234
1 235
1 236
1 237
1 238
1 239
1 240
1 241
1 242
1 243
1 244
1 245
1 246
1 247
1 248
1 249
1 250
1 251
1 252
1 253
1 254
1 255
1 256
1 257
1 258
1 259
1 260
1 261
1 262
1 263
1 264
1 265
1 266
1 267
1 268
1 269
1 270
1 271
1 272

POINT_DATA 273
SCALARS id int 1
LOOKUP_TABLE default
3
4
5
6
7
8
10
12
13
14
15
16
17
18
19
20
21
22
23
24
25
27
28
29
30
31
32
33
34
35
36
37
38
39
41
42
43
44
46
47
48
49
51
52
54
55
57
58
59
61
62
63
64
65
67
69
70
71
72
73
74
76
78
79
80
81
83
84
85
86
87
88
89
90
91
92
93
94
95
96
97
99
100
101
102
103
105
106
107
108
109
110
111
112
115
116
118
119
121
122
123
124
127
128
129
130
131
132
133
134
135
136
137
141
142
143
144
145
146
149
150
151
152
153
154
155
156
157
158
159
160
161
162
163
165
166
167
168
170
172
174
175
177
180
181
182
183
184
185
188
189
191
192
193
194
195
196
197
198
200
201
202
203
205
207
208
209
210
212
213
214
215
216
217
218
219
220
221
222
223
224
225
226
227
229
230
234
235
236
237
238
239
240
241
242
244
245
246
247
248
249
250
251
252
253
254
255
257
258
259
261
262
263
264
265
266
267
268
269
270
271
273
274
275
276
277
279
281
283
285
286
288
289
290
291
293
294
295
297
298
299
300
301
302
303
305
306
307
308
310
312
313
315
316
317
318
319
321
322
323
324
325
326
327
328
329
333
336
337
338
339
340
341

SCALARS type int 1
LOOKUP_TABLE default
1
1
1
1
1
1
1
1
1
1
1
1
1
1
1
1
1
1
1
1
1
1
1
1
1
1
1
1
1
1
1
1
1
1
1
1
1
1
1
1
1
1
1
1
1
1
1
1
1
1
1
1
1
1
1
1
1
1
1
1
1
1
1
1
1
1
1
1
1
1
1
1
1
1
1
1
1
1
1
1
1
1
1
1
1
1
1
1
1
1
1
1
1
1
1
1
1
1
1
1
1
1
1
1
1
1
1
1
1
1
1
1
1
1
1
1
1
1
1
1
1
1
1
1
1
1
1
1
1
1
1
1
1
1
1
1
1
1
1
1
1
1
1
1
1
1
1
1
1
1
1
1
1
1
1
1
1
1
1
1
1
1
1
1
1
1
1
1
1
1
1
1
1
1
1
1
1
1
1
1
1
1
1
1
1
1
1
1
1
1
1
1
1
1
1
1
1
1
1
1
1
1
1
1
1
1
1
1
1
1
1
1
1
1
1
1
1
1
1
1
1
1
1
1
1
1
1
1
1
1
1
1
1
1
1
1
1
1
1
1
1
1
1
1
1
1
1
1
1
1
1
1
1
1
1
1
1
1
1
1
1
1
1
1
1
1
1
1
1
1
1
1
1

SCALARS radius float 1
LOOKUP_TABLE default
0.0005
0.0005
0.0005
0.0005
0.0005
0.0005
0.0005
0.0005
0.0005
0.0005
0.0005
0.0005
0.0005
0.0005
0.0005
0.0005
0.0005
0.0005
0.0005
0.0005
0.0005
0.0005
0.0005
0.0005
0.0005
0.0005
0.0005
0.0005
0.0005
0.0005
0.0005
0.0005
0.0005
0.0005
0.0005
0.0005
0.0005
0.0005
0.0005
0.0005
0.0005
0.0005
0.0005
0.0005
0.0005
0.0005
0.0005
0.0005
0.0005
0.0005
0.0005
0.0005
0.0005
0.0005
0.0005
0.0005
0.0005
0.0005
0.0005
0.0005
0.0005
0.0005
0.0005
0.0005
0.0005
0.0005
0.0005
0.0005
0.0005
0.0005
0.0005
0.0005
0.0005
0.0005
0.0005
0.0005
0.0005
0.0005
0.0005
0.0005
0.0005
0.0005
0.0005
0.0005
0.0005
0.0005
0.0005
0.0005
0.0005
0.0005
0.0005
0.0005
0.0005
0.0005
0.0005
0.0005
0.0005
0.0005
0.0005
0.0005
0.0005
0.0005
0.0005
0.0005
0.0005
0.0005
0.0005
0.0005
0.0005
0.0005
0.0005
0.0005
0.0005
0.0005
0.0005
0.0005
0.0005
0.0005
0.0005
0.0005
0.0005
0.0005
0.0005
0.0005
0.0005
0.0005
0.0005
0.0005
0.0005
0.0005
0.0005
0.0005
0.0005
0.0005
0.0005
0.0005
0.0005
0.0005
0.0005
0.0005
0.0005
0.0005
0.0005
0.0005
0.0005
0.0005
0.0005
0.0005
0.0005
0.0005
0.0005
0.0005
0.0005
0.0005
0.0005
0.0005
0.0005
0.0005
0.0005
0.0005
0.0005
0.0005
0.0005
0.0005
0.0005
0.0005
0.0005
0.0005
0.0005
0.0005
0.0005
0.0005
0.0005
0.0005
0.0005
0.0005
0.0005
0.0005
0.0005
0.0005
0.0005
0.0005
0.0005
0.0005
0.0005
0.0005
0.0005
0.0005
0.0005
0.0005
0.0005
0.0005
0.0005
0.0005
0.0005
0.0005
0.0005
0.0005
0.0005
0.0005
0.0005
0.0005
0.0005
0.0005
0.0005
0.0005
0.0005
0.0005
0.0005
0.0005
0.0005
0.0005
0.0005
0.0005
0.0005
0.0005
0.0005
0.0005
0.0005
0.0005
0.0005
0.0005
0.0005
0.0005
0.0005
0.0005
0.0005
0.0005
0.0005
0.0005
0.0005
0.0005
0.0005
0.0005
0.0005
0.0005
0.0005
0.0005
0.0005
0.0005
0.0005
0.0005
0.0005
0.0005
0.0005
0.0005
0.0005
0.0005
0.0005
0.0005
0.0005
0.0005
0.0005
0.0005
0.0005
0.0005
0.0005
0.0005
0.0005
0.0005
0.0005
0.0005
0.0005
0.0005
0.0005
0.0005
0.0005
0.0005
0.0005
0.0005
0.0005
0.0005
0.0005

SCALARS mass float 1
LOOKUP_TABLE default
1.46608e-07
1.46608e-07
1.46608e-07
1.46608e-07
1.46608e-07
1.46608e-07
1.46608e-07
1.46608e-07
1.46608e-07
1.46608e-07
1.46608e-07
1.46608e-07
1.46608e-07
1.46608e-07
1.46608e-07
1.46608e-07
1.46608e-07
1.46608e-07
1.46608e-07
1.46608e-07
1.46608e-07
1.46608e-07
1.46608e-07
1.46608e-07
1.46608e-07
1.46608e-07
1.46608e-07
1.46608e-07
1.46608e-07
1.46608e-07
1.46608e-07
1.46608e-07
1.46608e-07
1.46608e-07
1.46608e-07
1.46608e-07
1.46608e-07
1.46608e-07
1.46608e-07
1.46608e-07
1.46608e-07
1.46608e-07
1.46608e-07
1.46608e-07
1.46608e-07
1.46608e-07
1.46608e-07
1.46608e-07
1.46608e-07
1.46608e-07
1.46608e-07
1.46608e-07
1.46608e-07
1.46608e-07
1.46608e-07
1.46608e-07
1.46608e-07
1.46608e-07
1.46608e-07
1.46608e-07
1.46608e-07
1.46608e-07
1.46608e-07
1.46608e-07
1.46608e-07
1.46608e-07
1.46608e-07
1.46608e-07
1.46608e-07
1.46608e-07
1.46608e-07
1.46608e-07
1.46608e-07
1.46608e-07
1.46608e-07
1.46608e-07
1.46608e-07
1.46608e-07
1.46608e-07
1.46608e-07
1.46608e-07
1.46608e-07
1.46608e-07
1.46608e-07
1.46608e-07
1.46608e-07
1.46608e-07
1.46608e-07
1.46608e-07
1.46608e-07
1.46608e-07
1.46608e-07
1.46608e-07
1.46608e-07
1.46608e-07
1.46608e-07
1.46608e-07
1.46608e-07
1.46608e-07
1.46608e-07
1.46608e-07
1.46608e-07
1.46608e-07
1.46608e-07
1.46608e-07
1.46608e-07
1.46608e-07
1.46608e-07
1.46608e-07
1.46608e-07
1.46608e-07
1.46608e-07
1.46608e-07
1.46608e-07
1.46608e-07
1.46608e-07
1.46608e-07
1.46608e-07
1.46608e-07
1.46608e-07
1.46608e-07
1.46608e-07
1.46608e-07
1.46608e-07
1.46608e-07
1.46608e-07
1.46608e-07
1.46608e-07
1.46608e-07
1.46608e-07
1.46608e-07
1.46608e-07
1.46608e-07
1.46608e-07
1.46608e-07
1.46608e-07
1.46608e-07
1.46608e-07
1.46608e-07
1.46608e-07
1.46608e-07
1.46608e-07
1.46608e-07
1.46608e-07
1.46608e-07
1.46608e-07
1.46608e-07
1.46608e-07
1.46608e-07
1.46608e-07
1.46608e-07
1.46608e-07
1.46608e-07
1.46608e-07
1.46608e-07
1.46608e-07
1.46608e-07
1.46608e-07
1.46608e-07
1.46608e-07
1.46608e-07
1.46608e-07
1.46608e-07
1.46608e-07
1.46608e-07
1.46608e-07
1.46608e-07
1.46608e-07
1.46608e-07
1.46608e-07
1.46608e-07
1.46608e-07
1.46608e-07
1.46608e-07
1.46608e-07
1.46608e-07
1.46608e-07
1.46608e-07
1.46608e-07
1.46608e-07
1.46608e-07
1.46608e-07
1.46608e-07
1.46608e-07
1.46608e-07
1.46608e-07
1.46608e-07
1.46608e-07
1.46608e-07
1.46608e-07
1.46608e-07
1.46608e-07
1.46608e-07
1.46608e-07
1.46608e-07
1.46608e-07
1.46608e-07
1.46608e-07
1.46608e-07
1.46608e-07
1.46608e-07
1.46608e-07
1.46608e-07
1.46608e-07
1.46608e-07
1.46608e-07
1.46608e-07
1.46608e-07
1.46608e-07
1.46608e-07
1.46608e-07
1.46608e-07
1.46608e-07
1.46608e-07
1.46608e-07
1.46608e-07
1.46608e-07
1.46608e-07
1.46608e-07
1.46608e-07
1.46608e-07
1.46608e-07
1.46608e-07
1.46608e-07
1.46608e-07
1.46608e-07
1.46608e-07
1.46608e-07
1.46608e-07
1.46608e-07
1.46608e-07
1.46608e-07
1.46608e-07
1.46608e-07
1.46608e-07
1.46608e-07
1.46608e-07
1.46608e-07
1.46608e-07
1.46608e-07
1.46608e-07
1.46608e-07
1.46608e-07
1.46608e-07
1.46608e-07
1.46608e-07
1.46608e-07
1.46608e-07
1.46608e-07
1.46608e-07
1.46608e-07
1.46608e-07
1.46608e-07
1.46608e-07
1.46608e-07
1.46608e-07
1.46608e-07
1.46608e-07
1.46608e-07
1.46608e-07
1.46608e-07
1.46608e-07
1.46608e-07
1.46608e-07
1.46608e-07
1.46608e-07
1.46608e-07
1.46608e-07
1.46608e-07
1.46608e-07
1.46608e-07
1.46608e-07
1.46608e-07

VECTORS velocity float
0.0013402 -0.0121733 -0.0160414
0.000933972 0.0262604 0.00216291
-0.00499516 -0.00895468 -0.00457377
0.00858255 0.00572199 0.0162841
0.00110685 0.00904332 -0.0191558
0.00441263 0.00267673 0.00465036
-0.000892234 -5.52155e-05 -0.000598342
-0.000300202 -0.00593412 -0.00168619
-0.000227667 -0.0243554 -0.00727409
-0.0106609 0.00137846 -0.0168752
0.00227475 0.0172822 0.00693702
-0.00127101 0.0239081 0.00412358
0.00092448 0.0149318 -0.00649641
0.000795821 0.000131308 0.000368725
0.00962298 -0.0381626 -0.0276231
-4.84402e-05 0.0151086 -0.0212206
-0.000853467 0.00438768 0.0046857
0.0152903 0.00198379 -0.0155736
9.40634e-05 -0.0140717 -0.0210959
0.000660165 -0.00118411 0.00128468
0.00493395 0.00102723 0.00523292
0.00207131 0.00234784 0.00671631
0.0013678 -0.00493664 0.0180072
0.00208811 -0.00261866 -0.0093584
0.00625186 0.00212332 -0.00346761
0.0043264 0.0175221 -0.0226775
0.00100931 -0.0016445 0.0107665
-0.00529621 0.00961023 -0.00594486
0.0154843 0.0115291 0.00413775
-0.000500137 -0.00130582 -0.000835604
0.000442009 0.00268724 -0.0103349
-9.09649e-09 0.0289612 0.00316002
9.86485e-05 -0.0225251 -0.00985934
-0.000655954 0.000823282 -0.000141598
0.000467286 -0.00237808 0.000342651
0.00143213 0.00211476 -0.00265876
0.0198136 -0.0129969 0.0242115
-0.00198787 -0.00165063 -3.16763e-05
-0.00198278 0.000408873 0.000866976
0.00242159 0.00390386 -0.0250918
-0.0232701 -0.0379507 -0.00361617
0.00535395 -0.00377221 -0.0128322
0.00230659 0.0245316 -0.000189568
-0.00135543 -0.00040356 0.00312884
0.014894 0.00855128 -0.0013396
-0.00212668 0.000902654 0.000520186
0.0211054 -0.0157652 -0.0182933
0.0035752 0.00888163 0.0064769
-2.59824e-06 0.0236646 0.00463635
4.44348e-10 0.0232535 -0.00652169
0.0158741 -0.0159442 -0.0398539
-0.00301776 -0.0245689 -0.0548301
-0.0115871 0.0121044 -0.00198637
0.000708292 0.00340817 -0.00191655
0.00120778 0.00376762 -0.00193711
0.00280117 0.0146219 -0.00590476
0.00102546 -0.00699563 -0.0199988
-0.000303653 -0.00471249 -0.00399891
-0.010807 0.0230697 0.0129705
0.00387654 0.0111368 -0.0094756
-0.00139437 -0.00333704 -0.00368487
-0.000479826 9.47333e-05 -0.000448514
-0.0105352 -0.110025 -0.284479
-0.00333523 0.0200102 -0.0161586
0.00753185 -0.0132634 -0.00995675
-0.00294458 0.00621399 -0.00765891
0.00989333 0.0191965 0.00889142
0.0010377 -0.00497454 -0.0198365
-0.00519179 0.00379489 0.00455066
-0.000173445 0.00110981 0.00565631
0.0256591 0.00402908 -0.00441576
0.00223755 0.016121 0.00398824
-0.0126198 -0.0133057 0.00107421
-0.000687776 0.00424474 -0.00218208
0.0306415 -0.0355554 -0.0554253
0.00161055 0.0234708 -0.00666973
0.0049538 0.00895895 0.00065838
0.0285551 -0.0191337 -0.0247619
3.699e-09 0.0285829 -0.00456243
-0.000155169 -0.000995423 0.00362215
0.00197019 -0.00379437 -0.0207063
-0.000760593 0.00056325 0.00313241
0.00184284 -0.00138569 -0.0021844
-4.50885e-05 -0.000723223 0.00191356
-0.00114485 -0.00101083 0.00050228
-0.0483305 -0.0170537 -0.0106266
-0.000702043 0.00237235 -0.00473661
0.000579429 0.00157755 0.00203521
-0.000944569 0.00192081 -0.001121
-0.00376992 0.0202144 0.000569514
0.00143662 -0.00395529 0.0040183
-0.0015346 0.0287608 -0.00292279
0.00102209 0.0138136 0.00140687
0.0114395 6.64698e-05 0.000362467
0.00472787 0.0027567 0.00494832
0.0015558 0.0158833 0.0132283
-0.00694296 0.00267706 -0.0143768
0.00642259 0.00793784 -0.0135638
7.33533e-05 0.0236426 0.00842136
0.00187063 -0.00167412 -0.0075203
-0.00156263 0.00184086 1.59967e-05
-0.0017751 -0.00599395 -0.00136974
-0.00355419 0.0159693 -0.0176332
-0.00141627 0.0156181 -0.00628892
-0.00223013 0.0277503 -0.00121783
0.0247929 0.020684 -0.0123716
0.00110903 0.0171334 0.00866044
-0.00189944 -5.31722e-05 -0.000513243
0.00306296 0.00605416 -0.0118836
-0.00163602 -8.76664e-05 -6.38817e-05
0.000396336 -0.00130617 -0.00160445
-1.349e-05 0.0240817 0.000486965
0.0409495 -0.100222 -0.0254369
-0.000676317 -0.00170188 0.000620199
0.00404726 0.0163074 -0.00169192
0.00093001 0.00567994 0.000405831
0.00699795 -0.00407706 -0.00134744
-3.00896e-05 0.000229996 0.00134995
3.73365e-05 0.00404736 -0.0143797
0.00249883 0.0062488 5.31057e-05
0.00897453 -0.0115259 -0.0289842
0.000253757 -0.0235643 -0.0093947
-0.0108781 0.011554 -0.00628815
0.00713925 0.00197002 0.0021426
0.000296089 0.0210617 0.0133633
0.00128325 0.00223168 -0.000311852
0.00254122 0.00438005 0.0126361
0.000778435 0.0216335 0.00732974
-0.000854574 0.00135715 -0.00613794
-0.0723349 -0.0367762 -0.197347
0.00637091 0.0217992 0.00819673
0.0018637 -0.00480565 -0.0134288
0.00166909 0.0128033 0.0134893
-5.24098e-05 0.00290694 -0.00193141
0.00203219 0.0035794 -0.0140247
0.00512255 0.00114737 0.0062653
0.00920063 0.0106385 0.0246686
0.00223616 0.0238312 0.00546867
-0.00301935 0.00703686 -0.0162793
0.00211729 0.00196941 0.00078205
-0.0119306 0.00959323 -0.010029
-0.000453585 0.00108854 -0.000303708
0.00594296 0.00529068 0.00557802
3.22368e-15 8.02808e-15 1.06043e-13
-0.00135101 0.00158694 0.0109347
0.00884677 -0.0083481 0.00684429
0.000212082 -0.0242643 0.00362024
-0.000199728 0.000458268 0.00152595
-0.0246109 0.0170913 -0.10529
-0.00155096 -0.00140815 -0.000379446
0.00012128 0.00759858 0.02435
0.00442323 -0.0154883 -0.0407659
-0.00453825 -0.0130905 0.000349905
0.000352772 0.0149339 -0.00236197
0.00182085 0.000367097 -0.00264257
-0.0202527 0.0241301 -0.0169232
0.00490345 0.00338352 0.00416917
0.000917686 -0.00295992 0.00233091
0.00377606 0.0107868 0.00109536
-5.87619e-05 0.00191938 -0.00320135
0.00495942 0.00174692 -0.00338242
-0.00015088 0.00505626 -0.00659578
-0.000565243 -0.00063864 0.00156977
0.00533346 -0.126475 -0.288325
0.00196885 -0.00604044 -0.0141895
0.00229202 0.00742431 -0.00266613
0.00198029 -0.000891521 -0.00156029
-0.102312 -0.031208 -0.302869
-0.0560582 0.0360035 -0.0341025
0.019261 -0.196292 -0.0574001
-0.0265736 0.0022392 0.0221246
-0.000127337 -0.00196059 -0.0190229
0.0411849 -0.0301355 -0.121989
-0.00282387 0.0189995 0.00552422
0.00140207 -0.0101557 0.0156635
-0.00543914 -0.0013701 0.000181887
-0.00538783 -0.00354854 0.00496144
-0.00567005 0.00205297 -0.00687871
0.00197332 -0.00177978 -0.0121469
0.00854146 0.00352889 0.00872554
0.00781604 -0.00536012 0.00528012
0.00167691 -0.0019764 0.00513729
-0.0031339 -0.000134913 -0.00215873
0.0337547 -0.0235138 -0.0636966
-0.00100747 -0.000718347 0.000102175
0.00162826 0.00034568 0.0176227
0.00492871 -0.00299213 0.00223065
0.00997286 -0.0485835 -0.0213214
0.000644901 -0.00332109 0.0014546
0.0021359 0.0184378 0.0097311
0.00248271 -0.0046311 0.000154581
0.00372548 -0.00235278 0.00257258
0.000759244 -0.00158769 -0.0204597
0.00329818 0.000676584 -0.00754911
0.00288801 0.0107716 -0.00841318
0.00329113 -0.0128455 0.00851172
0.000799314 0.0251968 0.00368899
0.00137703 0.022945 -0.00245107
0.00127314 -0.00137333 0.00196039
0.0063842 -0.00208771 0.0015018
0.00824383 -0.000664563 0.00292415
0.0133025 0.00192205 0.000662793
-0.0059675 0.00589101 -0.0144114
-0.00212241 -0.00140608 -0.00369931
-9.49555e-05 -0.0211019 -0.0151223
0.00139837 -0.00265892 -0.00341996
0.0403772 -0.0261476 -0.0257639
0.00117251 0.00152897 -0.00481633
0.0301082 0.0115406 6.39562e-05
0.000840637 -0.0242945 -0.00188283
-0.000480095 0.000323692 0.000881267
0.10397 0.0514862 -0.169661
0.00455173 0.00640882 -0.000228442
0.00684213 -0.000985977 0.00660029
0.000938162 -6.70288e-05 -0.00318766
-0.00754356 0.00855478 -0.0152454
-0.00033012 0.0262959 -0.0346098
0.000919662 0.00257098 0.000175378
0.00736573 -0.00413434 0.00466952
0.0870342 -0.115686 0.0512103
-0.0103402 -0.0237881 -0.0065763
0.000726119 -0.0013586 -0.00203362
0.00357605 0.00888425 -0.0017881
-0.0138531 -0.00876821 -0.011562
0.00258776 -0.00149573 0.00266489
0.00323629 0.00929456 0.00882203
0.00171833 0.00553869 -0.00640597
0.0109019 -0.00350171 0.00982178
1.76979e-05 0.0230469 -0.0107864
0.00129389 -0.00116369 0.0021047
0.000833683 -0.0107985 -0.0216062
0.00375285 -0.00531508 0.00316505
0.00220272 0.00126245 -0.00187188
-9.70174e-317 -9.69426e-317 2.45201e-12
0.00173517 -0.0153279 0.00661766
0.00537113 -0.00578262 -0.0801125
0.0227885 0.0178513 -0.00261694
-0.00482713 0.0011563 -0.00518028
0.00450683 -0.00413624 -0.000670484
0.00414763 0.0140337 0.00395521
-0.0837406 -0.150255 -0.116018
0.0026915 -0.0033496 -0.0165854
-0.00535485 0.00126742 0.00150078
0.00164108 0.0147106 0.0202091
-6.97999e-05 0.00525881 -0.0020677
0.00233764 -0.000674407 0.0020956
-1.35774e-06 0.00200645 -0.00334635
0.00463199 -0.00132818 0.0016737
0.000786035 0.00578069 -0.00891506
0.000766921 0.0247443 0.00221721
-0.0078359 0.0215449 0.000313733
-7.95165e-08 0.0235604 -0.00499517
0.000377278 -0.00489781 -0.0227693
0.00108186 -0.0111757 -0.0211413
0.0139325 0.00541932 0.00236219
0.00395419 0.00704682 -0.0114514
-0.00503205 0.022039 -0.00601213
-0.00462393 0.000746908 -0.000894788
0.000697979 0.00137094 -0.00186954
-0.00336604 0.0076407 -0.0169876
-0.00325429 -0.0060865 0.00365313
0.0209942 0.0121596 -0.0158465
0.00395956 0.0072216 -0.00194385
-0.0015004 0.00153553 -0.00421129
-0.0295618 0.0204295 -0.0267143
0.0032959 0.0236509 0.00240098
-0.00476554 0.00268275 -0.000634173
0.00781107 0.00636255 0.00296048
-0.00140884 6.57929e-05 -0.00167499
-0.00312071 0.020471 0.00851925
0.00314314 -0.0114494 0.00314594
0.00736014 -0.0191637 -0.0246778
0.000786083 0.000914317 -0.002199

VECTORS force float
-4.91907e-08 8.80997e-09 4.98634e-08
-2.82116e-07 3.51177e-07 6.81484e-07
5.77886e-08 -3.78811e-08 3.26357e-08
1.03088e-06 5.61909e-06 1.0786e-05
-1.30901e-06 4.22382e-06 -3.19167e-06
-6.60269e-07 -1.04592e-06 -4.54657e-07
5.93684e-07 -8.47828e-07 -8.3094e-07
0.0 0.0 -1.43822e-06
8.83022e-09 -4.89251e-09 1.36424e-08
0.0 0.0 -1.43822e-06
1.46535e-07 -1.19603e-07 -2.43265e-07
3.83164e-07 -2.71607e-07 1.28391e-07
-7.93166e-07 1.41114e-05 -8.88448e-06
1.35021e-06 2.28451e-06 1.47219e-05
-2.82289e-07 -5.46401e-07 2.10847e-06
-1.58177e-09 -1.0556e-08 -1.22784e-08
0.0 0.0 -1.43822e-06
2.86404e-07 2.18043e-08 -5.0036e-07
-2.28366e-09 -1.68268e-08 5.70745e-10
4.71324e-07 -1.29493e-06 1.04397e-06
-1.28297e-06 1.70758e-06 3.13934e-06
6.12116e-08 3.15133e-07 -1.31132e-06
6.62491e-09 -2.68667e-08 -2.71447e-08
0.0 0.0 -1.43822e-06
7.09496e-06 1.9348e-06 -2.05232e-06
0.0 0.0 -1.43822e-06
0.0 0.0 -1.43822e-06
-1.54942e-05 -8.72232e-07 -3.76668e-06
0.0 0.0 -1.43822e-06
1.49308e-05 2.33378e-06 -1.21043e-06
-9.88207e-08 -5.42022e-07 -6.59604e-07
-2.6774e-14 2.70209e-09 -2.32006e-08
-1.43617e-09 -1.16859e-08 9.71913e-09
2.99268e-05 -4.55225e-05 1.13208e-05
1.19248e-05 -9.027e-06 -1.61972e-06
1.45492e-06 -3.51706e-08 -4.04331e-07
0.0 0.0 -1.43822e-06
7.43012e-07 2.42511e-07 4.28873e-07
8.4137e-06 9.43365e-06 -4.11492e-06
-7.0864e-08 1.36063e-07 2.58929e-09
0.0 0.0 -1.43822e-06
5.68153e-07 8.84192e-08 -1.2724e-07
-5.71868e-07 -1.09102e-07 -2.71677e-07
4.46127e-07 -3.57497e-07 -6.09942e-07
0.0 0.0 -1.43822e-06
1.52903e-07 -1.85545e-07 -5.92767e-07
0.0 0.0 -1.43822e-06
2.42439e-07 1.24576e-07 -1.28641e-06
3.53335e-09 1.20678e-07 2.95543e-09
2.0482e-11 -6.23661e-09 -1.7936e-08
-2.66338e-08 -4.22172e-07 -9.482e-07
6.42652e-08 -4.09271e-07 -9.408e-07
8.70943e-08 5.97219e-08 -1.33374e-06
4.62056e-08 1.13926e-05 -1.32582e-05
6.97341e-07 5.89885e-07 -1.27672e-08
3.19444e-07 -1.56237e-06 4.03968e-07
-2.33679e-07 1.6187e-08 -2.71655e-08
2.21546e-07 2.9914e-07 4.75724e-07
3.98252e-05 -3.06305e-05 -0.000115535
-2.16013e-05 0.000100363 -6.77354e-05
1.9575e-07 1.8206e-07 9.71735e-07
-3.21991e-07 -2.69238e-07 3.08227e-07
0.0 0.0 -1.43822e-06
-1.04164e-07 2.42155e-06 9.0264e-07
1.64577e-06 -1.28839e-06 -4.45831e-06
-4.33477e-07 2.76146e-08 -5.34579e-07
0.0 0.0 -1.43822e-06
1.09939e-07 7.45303e-08 -8.18125e-07
2.1489e-05 1.80355e-05 -1.41969e-05
4.25521e-07 -1.49788e-07 2.78696e-07
0.0 0.0 -1.43822e-06
-1.10328e-07 2.66844e-07 2.96932e-08
-1.07861e-07 -5.40942e-06 7.21738e-06
1.95932e-05 -4.96039e-05 1.7293e-05
0.0 0.0 -1.43822e-06
-4.67284e-06 3.79546e-06 1.88397e-05
2.06618e-06 -9.7917e-07 3.44599e-06
0.0 0.0 -1.43822e-06
1.24244e-14 -3.54141e-09 -2.291e-08
1.70874e-07 -8.99677e-08 5.69789e-08
-2.63935e-08 -2.69429e-08 -6.54025e-08
-3.46262e-08 -1.53806e-07 2.49277e-07
2.011e-07 -1.32723e-07 -9.41694e-08
-2.87505e-07 -2.11021e-07 3.33598e-07
-1.43149e-06 2.72551e-07 -3.20992e-07
0.0 0.0 -1.43822e-06
-1.1467e-05 2.39959e-06 -4.99535e-06
-1.74226e-06 -3.85016e-08 -2.98431e-07
-1.366e-06 2.95829e-05 -3.33995e-05
1.81191e-07 4.52701e-07 -4.38926e-08
-1.06439e-05 7.18539e-06 9.64045e-06
0.0 0.0 -1.43822e-06
1.13647e-06 -1.25694e-05 6.49774e-06
6.22834e-07 -8.20409e-07 -3.626e-07
-5.77094e-07 -4.77929e-07 -7.54401e-07
5.8406e-09 -1.35592e-08 -1.44361e-06
0.0 0.0 -1.43822e-06
8.70881e-07 -1.56973e-07 1.83157e-06
-1.09822e-10 5.04258e-08 2.96695e-10
-4.17537e-07 -1.08091e-07 -1.46667e-07
-9.17071e-07 8.60879e-06 -3.25431e-07
-1.26067e-07 3.89747e-08 -8.73947e-07
1.4178e-07 6.1465e-07 -7.74942e-07
-2.94999e-07 1.21798e-06 -1.19205e-06
-1.00332e-08 -2.23128e-09 -2.08227e-08
2.06229e-07 -4.3593e-07 -1.02564e-06
0.0 0.0 -1.43822e-06
1.50166e-06 -1.63557e-07 -7.39753e-06
-1.86969e-07 5.65135e-08 -3.06708e-07
-3.44493e-06 -6.72356e-07 5.42636e-06
4.66693e-07 -7.32773e-08 -8.50464e-07
7.39833e-08 6.37241e-09 -1.88905e-08
0.0 0.0 -1.43822e-06
1.08951e-05 -4.39247e-06 1.50058e-05
0.0 0.0 -1.43822e-06
0.0 0.0 -1.43822e-06
3.14598e-06 -8.08169e-07 4.3793e-06
2.46887e-07 -1.01936e-08 -2.49643e-08
2.091e-06 4.15338e-07 -8.47018e-07