# vtk DataFile Version 3.0
LIGGGHTS particles timestep 3000000
ASCII
DATASET POLYDATA
POINTS 300 float
0.0231896 0.0154941 0.0141811
0.0229638 0.0161896 0.0149198
0.0249189 0.0192278 0.0174107
0.0176347 0.0226429 0.0149525
0.0243435 0.0217407 0.018146
0.0170333 0.023757 0.0149551
0.0182242 0.0148528 0.0129721
0.0224115 0.0145193 0.0141908
0.0199143 0.0243638 0.0138204
0.0175671 0.0179358 0.0158055
0.0220406 0.0202319 0.0157993
0.0162651 0.0231761 0.0168114
0.0213469 0.0234204 0.0122552
0.0211418 0.0228398 0.00940095
0.0264664 0.0231672 0.0101557
0.0231538 0.0234712 0.0153562
0.0168606 0.0231813 0.0176667
0.0260797 0.0222933 0.00873374
0.0233631 0.0150832 0.013213
0.0171132 0.014166 0.0134342
0.0183587 0.0237689 0.0135676
0.0205789 0.0247931 0.0185481
0.019725 0.0224752 0.0155286
0.0200206 0.0223623 0.0170786
0.0220574 0.0228753 0.0137084
0.0176642 0.0232946 0.01592
0.0122971 0.0198089 0.0166062
0.0205883 0.0229333 0.0164756
0.0163249 0.0239827 0.0173992
0.0191983 0.0149529 0.0132163
0.018636 0.0253439 0.0196664
0.022806 0.0234556 0.0141744
0.02043 0.0241111 0.0126045
0.0184453 0.0207894 0.0164694
0.0159678 0.023142 0.0131695
0.0246724 0.0220301 0.0163991
0.0157658 0.0235155 0.0142959
0.0259865 0.0134052 0.0260877
0.019997 0.02423 0.016403
0.0202663 0.0228059 0.00940778
0.0251851 0.019735 0.0187721
0.0244486 0.0157237 0.015708
0.0215467 0.0156232 0.0154821
0.0160713 0.0087845 0.0318845
0.0230125 0.0218743 0.0157734
0.0199607 0.0193312 0.0071704
0.0194747 0.0240978 0.0128591
0.02157 0.0227505 0.0155396
0.0148763 0.0225575 0.0176627
0.0195787 0.0145054 0.0140751
0.0191942 0.0237472 0.0155039
0.0210947 0.0232155 0.0129762
0.0173777 0.0147238 0.0159066
0.0251472 0.0186883 0.0184696
0.0204051 0.015571 0.015413
0.0239562 0.020257 0.0158241
0.0229498 0.0210127 0.0198502
0.0210121 0.0147763 0.0154184
0.0235155 0.0219847 0.0148446
0.0216993 0.0209589 0.0163957
0.0237362 0.0113715 0.0315861
0.0243986 0.0172545 0.0155616
0.020552 0.00643888 0.0366002
0.0176502 0.0146379 0.0121817
0.0262925 0.0228374 0.00938245
0.018295 0.0220398 0.0172513
0.0173142 0.0151755 0.0136947
0.0192982 0.0240288 0.014525
0.0185121 0.0244437 0.0172448
0.0256169 0.0176979 0.0165783
0.0190019 0.0241341 0.0164245
0.0206172 0.0137062 0.0140106
0.0213162 0.0200236 0.0166999
0.01677 0.012165 0.0214571
0.0159337 0.02242 0.015707
0.0155011 0.0223378 0.0144951
0.0208497 0.0214958 0.0165772
0.0173374 0.0152263 0.016942
0.0186231 0.0146133 0.0119522
0.0241567 0.0192874 0.0159656
0.0195074 0.0245382 0.0172188
0.0163272 0.021178 0.0287236
0.0226683 0.0173308 0.0156814
0.0201954 0.0237335 0.0155559
0.0230759 0.0142879 0.0212181
0.0183571 0.0240976 0.0127601
0.0178629 0.0206761 0.0156546
0.0169316 0.0108572 0.0319121
0.0189593 0.0244653 0.0136373
0.019655 0.0232108 0.0162193
0.0172957 0.0240106 0.0130885
0.0213724 0.0240127 0.0144861
0.0240142 0.0207567 0.017379
0.0203771 0.0140491 0.0131148
0.0215791 0.0218071 0.0158695
0.0222548 0.0211647 0.0155093
0.0235639 0.0209496 0.0164503
0.0130368 0.00814718 0.0343332
0.0248584 0.0200092 0.0167114
0.027229 0.0227845 0.0135435
0.0188455 0.0151858 0.0172732
0.0222452 0.0188505 0.0354807
0.0212505 0.0228516 0.0138252
0.0139653 0.0155499 0.0154135
0.019147 0.0144336 0.0156349
0.0247068 0.00975668 0.0305185
0.0237073 0.0199929 0.0168084
0.0183974 0.00769511 0.0317508
0.0161896 0.0234125 0.0153483
0.0232019 0.0195788 0.0159346
0.0329354 -0.0178249 0.0377333
0.0176741 0.0235119 0.0142379
0.0202753 0.019432 0.0169805
0.025897 0.0186908 0.0167536
0.0177899 0.0245308 0.0179317
0.0165771 0.0167152 0.0185918
0.0212253 0.0240508 0.0133908
0.0135603 0.0205427 0.0175436
0.0220304 0.0237999 0.0138301
0.0127663 0.0207008 0.0164916
0.0258316 0.0197344 0.0167289
0.0167676 0.0210595 0.0175657
0.0236971 0.0147203 0.0114913
0.0189657 0.0158399 0.0145695
0.0221454 0.0235473 0.0149199
0.0229997 0.020537 0.0157345
0.0206188 0.022147 0.0158396
0.0204304 0.0244639 0.0175998
0.0179585 0.0244584 0.0137918
0.0166353 0.0148149 0.0147608
0.0211292 0.0116739 0.0518182
0.00987041 0.0178472 0.0270817
0.0133881 0.016207 0.0158995
0.0157177 0.0216231 0.0151439
0.0235463 0.0177836 0.0157802
0.0234746 0.0270838 0.0260811
0.027659 0.0215167 0.0149991
0.0234352 0.0229649 0.0146641
0.0154321 0.0146581 0.0143914
0.0213605 0.0142207 0.0135833
0.0183779 0.0140662 0.0163708
0.0253964 0.0198612 0.0198368
0.0180964 0.0144239 0.020848
0.00906547 0.00798396 0.0419056
0.0175937 0.0150197 0.0149757
0.0243671 0.022277 0.0155666
0.0188992 0.0174511 0.00750734
0.0281421 0.0249073 0.0302608
0.0159933 0.0215737 0.0162357
0.0196164 0.0141275 0.0172891
0.0169284 0.0140168 0.0178574
0.0172726 0.0195189 0.0168028
0.0163408 0.0153062 0.0163909
0.0173557 0.00189919 0.0473616
0.019496 0.0137202 0.013456
0.0238154 0.0229418 0.0156737
0.0161008 0.0138923 0.0187462
0.0361504 0.0343083 0.0551091
0.0223653 0.0229947 0.016115
0.0514392 0.0202095 0.00593542
0.0188905 0.0231645 0.0147486
0.0168846 0.0237847 0.0163153
0.0227663 0.0225305 0.0141926
0.0170705 0.0243155 0.014013
0.0172796 0.0241548 0.0171566
0.0225593 0.0204321 0.0166312
0.0248909 0.0184888 0.0167352
0.0185211 0.0225326 0.0154364
0.0278721 0.0207794 0.0154625
0.0224833 0.0182936 0.0158809
0.0222669 0.01501 0.0151569
0.0268749 0.0233379 0.0121368
0.0170543 0.0170447 0.0165214
0.022502 0.0149266 0.0396721
0.0231648 0.0147259 0.0148208
0.0152938 0.0230035 0.0152077
0.0203257 0.00958795 0.0287363
0.0162431 0.0143312 0.0138994
0.0126667 0.0173226 0.0162575
0.0167852 0.0228318 0.0160299
0.0164848 0.0237311 0.0136353
0.0238399 0.0178214 0.0183459
0.0191385 0.022436 0.016584
0.0238856 0.0156006 0.0148909
0.0180263 0.0160877 0.0148207
0.0180056 0.0240517 0.0164766
0.0263735 0.0221754 0.0232584
0.0222535 0.0192664 0.0159491
0.0181483 0.0236859 0.0151377
0.0204003 0.0239754 0.0145776
0.0247031 0.0200807 0.0179234
0.0168294 0.0243773 0.018167
0.0186088 0.0233244 0.0168644
0.0215391 0.0222675 0.0145919
0.019539 0.0235404 0.0171621
0.0209451 0.0231728 0.0148191
0.0143064 0.022927 0.0151062
0.0177062 0.0140642 0.0143007
0.0149389 0.0157109 0.0155746
0.0132632 0.0195847 0.0167391
0.0189979 0.0248439 0.0180304
0.019889 0.0231445 0.0147973
0.0137469 0.0205176 0.0165614
0.0188706 0.0141135 0.0127821
0.0221437 0.0232543 0.0129584
0.0203768 0.0203962 0.0165847
0.0105727 -0.00405781 0.0515149
0.0216717 0.0213815 0.017304
0.0143418 0.0197295 0.01672
0.0213719 0.0241244 0.0176592
0.0204474 0.021262 0.00780521
0.025631 0.0206991 0.0165491
0.0143222 0.0212852 0.0162786
0.0250184 0.0169374 0.0162794
0.0112536 0.0201187 0.0229833
0.0194018 0.0198718 0.00731461
0.0169012 0.0234073 0.0123747
0.0245867 0.0210175 0.0164106
0.0196638 0.0209134 0.0076414
0.0133542 0.0215067 0.0161612
0.0211183 0.0235633 0.0159067
0.0190564 0.0183302 0.00725054
0.0151865 0.0178163 0.0166402
0.0233473 0.018639 0.0162601
0.0148548 0.0222645 0.0157187
0.0237921 0.0148339 0.0123192
0.0185127 0.0216948 0.0160385
0.0123419 0.0211558 0.0210869
0.0165401 0.0222107 0.0167792
0.0168845 0.02096 0.0158323
0.0155823 0.0232546 0.0175378
0.0164128 0.0227442 0.0139696
0.0178216 0.0184393 0.0169514
0.0147815 0.0219277 0.0168919
0.0173577 0.0219914 0.0162424
0.0205369 0.0146396 0.0143599
0.013855 0.0222513 0.0156893
0.0182866 0.0187071 0.01594
0.0161199 0.0198565 0.015933
0.0143484 0.0186808 0.0173359
0.0166329 0.0226221 0.0149359
0.0135104 0.0184896 0.0167329
0.023689 0.0211945 0.0154317
0.0181719 0.0143437 0.0154325
0.0162876 0.0206174 0.0165599
0.0185193 0.0176314 0.0157208
0.0157658 0.0152326 0.0151387
0.0146497 0.0150334 0.0148978
0.0165696 0.0178383 0.0157866
0.0140334 0.0171825 0.0168127
0.0215108 0.0147606 0.0145519
0.0188314 0.0198904 0.0166773
0.0181661 0.022566 0.0163861
0.0159192 0.0207812 0.0156309
0.0183172 0.0161455 0.0159868
0.0153192 0.0160107 0.0164493
0.0180665 0.0197278 0.0158923
0.0154676 0.00225925 0.0473858
0.0224308 0.0219816 0.0149577
0.0154433 0.0197084 0.0167456
0.0156058 0.0187187 0.0167818
0.0236618 0.0219471 0.0165329
0.0160268 0.0171506 0.016445
0.00973293 0.0160088 0.0278173
0.0173689 0.0229816 0.016828
0.0167076 0.0216489 0.0151286
0.0200513 0.0145718 0.0152313
0.0155228 0.022537 0.0166108
0.0243777 0.0183164 0.0158841
0.0173172 0.0161551 0.015973
0.016269 0.018965 0.0177685
0.0180886 0.0139516 0.0133838
0.017459 0.0206157 0.0165952
0.0173319 0.0190014 0.0159478
0.0171336 0.0157698 0.014501
0.0134813 0.019464 0.0177122
0.018439 0.0153425 0.0154015
0.017803 0.0161795 0.016851
0.0195141 0.0216569 0.0160739
0.0163399 0.0188819 0.0159516
0.017667 0.0216122 0.0153675
0.0182371 0.0153883 0.0140168
0.0194344 0.0153551 0.0153078
0.0167186 0.0155054 0.0154833
0.0168714 0.016537 0.0151635
0.0187405 0.0167119 0.0152798
0.0177268 0.0169724 0.0154446
0.0161732 0.0162053 0.0159663
0.0164912 0.0255419 0.0210553
0.0194448 0.0207487 0.0164958
0.0186044 0.0145038 0.0143061
0.020881 0.0239708 0.0167968
0.0148772 0.0169022 0.0162982
0.0239714 0.0189957 0.0169763
0.0215397 0.02256 0.0165872
0.0193551 0.0216056 0.0171231
0.0149373 0.0205532 0.0165715
0.0152637 0.0228818 0.0137077
0.0171054 0.0199743 0.015914
0.0195127 0.019076 0.0192851

VERTICES 300 600
1 0
1 1
1 2
1 3
1 4
1 5
1 6
1 7
1 8
1 9
1 10
1 11
1 12
1 13
1 14
1 15
1 16
1 17
1 18
1 19
1 20
1 21
1 22
1 23
1 24
1 25
1 26
1 27
1 28
1 29
1 30
1 31
1 32
1 33
1 34
1 35
1 36
1 37
1 38
1 39
1 40
1 41
1 42
1 43
1 44
1 45
1 46
1 47
1 48
1 49
1 50
1 51
1 52
1 53
1 54
1 55
1 56
1 57
1 58
1 59
1 60
1 61
1 62
1 63
1 64
1 65
1 66
1 67
1 68
1 69
1 70
1 71
1 72
1 73
1 74
1 75
1 76
1 77
1 78
1 79
1 80
1 81
1 82
1 83
1 84
1 85
1 86
1 87
1 88
1 89
1 90
1 91
1 92
1 93
1 94
1 95
1 96
1 97
1 98
1 99
1 100
1 101
1 102
1 103
1 104
1 105
1 106
1 107
1 108
1 109
1 110
1 111
1 112
1 113
1 114
1 115
1 116
1 117
1 118
1 119
1 120
1 121
1 122
1 123
1 124
1 125
1 126
1 127
1 128
1 129
1 130
1 131
1 132
1 133
1 134
1 135
1 136
1 137
1 138
1 139
1 140
1 141
1 142
1 143
1 144
1 145
1 146
1 147
1 148
1 149
1 150
1 151
1 152
1 153
1 154
1 155
1 156
1 157
1 158
1 159
1 160
1 161
1 162
1 163
1 164
1 165
1 166
1 167
1 168
1 169
1 170
1 171
1 172
1 173
1 174
1 175
1 176
1 177
1 178
1 179
1 180
1 181
1 182
1 183
1 184
1 185
1 186
1 187
1 188
1 189
1 190
1 191
1 192
1 193
1 194
1 195
1 196
1 197
1 198
1 199
1 200
1 201
1 202
1 203
1 204
1 205
1 206
1 207
1 208
1 209
1 210
1 211
1 212
1 213
1 214
1 215
1 216
1 217
1 218
1 219
1 220
1 221
1 222
1 223
1 224
1 225
1 226
1 227
1 228
1 229
1 230
1 231
1 232
1 233
1 234
1 235
1 236
1 237
1 238
1 239
1 240
1 241
1 242
1 243
1 244
1 245
1 246
1 247
1 248
1 249
1 250
1 251
1 252
1 253
1 254
1 255
1 256
1 257
1 258
1 259
1 260
1 261
1 262
1 263
1 264
1 265
1 266
1 267
1 268
1 269
1 270
1 271
1 272
1 273
1 274
1 275
1 276
1 277
1 278
1 279
1 280
1 281
1 282
1 283
1 284
1 285
1 286
1 287
1 288
1 289
1 290
1 291
1 292
1 293
1 294
1 295
1 296
1 297
1 298
1 299

POINT_DATA 300
SCALARS id int 1
LOOKUP_TABLE default
1
2
3
4
5
6
7
8
10
12
13
14
15
16
17
18
19
20
21
22
23
24
25
27
28
29
30
31
32
33
34
35
36
37
38
39
41
42
43
44
46
47
48
49
50
51
52
53
54
55
57
58
59
60
61
62
63
64
65
67
69
70
71
72
73
74
75
76
78
79
80
81
83
84
85
86
87
88
89
90
91
92
93
94
95
96
97
98
99
100
101
102
103
105
106
107
108
109
110
111
112
113
115
116
118
119
121
122
123
124
125
127
128
129
130
131
132
133
134
135
136
137
138
140
141
142
143
144
145
146
148
149
150
151
152
153
154
155
156
157
158
159
160
161
162
163
165
166
167
168
169
170
172
173
174
175
177
178
179
180
181
182
183
184
185
186
187
188
189
191
192
193
194
195
196
197
198
200
201
202
203
204
205
207
208
209
210
212
213
214
215
216
217
218
219
220
221
222
223
224
225
226
227
229
230
232
233
234
235
236
237
238
239
240
241
242
244
245
246
247
248
249
250
251
252
253
254
255
256
257
258
259
261
262
263
264
265
266
267
268
269
270
271
273
274
275
276
277
279
281
283
284
285
286
287
288
289
290
291
293
294
295
297
298
299
300
301
302
303
304
305
306
307
308
310
311
312
313
314
315
316
317
318
319
321
322
323
324
325
326
327
328
329
333
336
337
338
339
340
341

SCALARS type int 1
LOOKUP_TABLE default
1
1
1
1
1
1
1
1
1
1
1
1
1
1
1
1
1
1
1
1
1
1
1
1
1
1
1
1
1
1
1
1
1
1
1
1
1
1
1
1
1
1
1
1
1
1
1
1
1
1
1
1
1
1
1
1
1
1
1
1
1
1
1
1
1
1
1
1
1
1
1
1
1
1
1
1
1
1
1
1
1
1
1
1
1
1
1
1
1
1
1
1
1
1
1
1
1
1
1
1
1
1
1
1
1
1
1
1
1
1
1
1
1
1
1
1
1
1
1
1
1
1
1
1
1
1
1
1
1
1
1
1
1
1
1
1
1
1
1
1
1
1
1
1
1
1
1
1
1
1
1
1
1
1
1
1
1
1
1
1
1
1
1
1
1
1
1
1
1
1
1
1
1
1
1
1
1
1
1
1
1
1
1
1
1
1
1
1
1
1
1
1
1
1
1
1
1
1
1
1
1
1
1
1
1
1
1
1
1
1
1
1
1
1
1
1
1
1
1
1
1
1
1
1
1
1
1
1
1
1
1
1
1
1
1
1
1
1
1
1
1
1
1
1
1
1
1
1
1
1
1
1
1
1
1
1
1
1
1
1
1
1
1
1
1
1
1
1
1
1
1
1
1
1
1
1
1
1
1
1
1
1
1
1
1
1
1
1
1
1
1
1
1
1
1
1
1
1
1
1

SCALARS radius float 1
LOOKUP_TABLE default
0.0005
0.0005
0.0005
0.0005
0.0005
0.0005
0.0005
0.0005
0.0005
0.0005
0.0005
0.0005
0.0005
0.0005
0.0005
0.0005
0.0005
0.0005
0.0005
0.0005
0.0005
0.0005
0.0005
0.0005
0.0005
0.0005
0.0005
0.0005
0.0005
0.0005
0.0005
0.0005
0.0005
0.0005
0.0005
0.0005
0.0005
0.0005
0.0005
0.0005
0.0005
0.0005
0.0005
0.0005
0.0005
0.0005
0.0005
0.0005
0.0005
0.0005
0.0005
0.0005
0.0005
0.0005
0.0005
0.0005
0.0005
0.0005
0.0005
0.0005
0.0005
0.0005
0.0005
0.0005
0.0005
0.0005
0.0005
0.0005
0.0005
0.0005
0.0005
0.0005
0.0005
0.0005
0.0005
0.0005
0.0005
0.0005
0.0005
0.0005
0.0005
0.0005
0.0005
0.0005
0.0005
0.0005
0.0005
0.0005
0.0005
0.0005
0.0005
0.0005
0.0005
0.0005
0.0005
0.0005
0.0005
0.0005
0.0005
0.0005
0.0005
0.0005
0.0005
0.0005
0.0005
0.0005
0.0005
0.0005
0.0005
0.0005
0.0005
0.0005
0.0005
0.0005
0.0005
0.0005
0.0005
0.0005
0.0005
0.0005
0.0005
0.0005
0.0005
0.0005
0.0005
0.0005
0.0005
0.0005
0.0005
0.0005
0.0005
0.0005
0.0005
0.0005
0.0005
0.0005
0.0005
0.0005
0.0005
0.0005
0.0005
0.0005
0.0005
0.0005
0.0005
0.0005
0.0005
0.0005
0.0005
0.0005
0.0005
0.0005
0.0005
0.0005
0.0005
0.0005
0.0005
0.0005
0.0005
0.0005
0.0005
0.0005
0.0005
0.0005
0.0005
0.0005
0.0005
0.0005
0.0005
0.0005
0.0005
0.0005
0.0005
0.0005
0.0005
0.0005
0.0005
0.0005
0.0005
0.0005
0.0005
0.0005
0.0005
0.0005
0.0005
0.0005
0.0005
0.0005
0.0005
0.0005
0.0005
0.0005
0.0005
0.0005
0.0005
0.0005
0.0005
0.0005
0.0005
0.0005
0.0005
0.0005
0.0005
0.0005
0.0005
0.0005
0.0005
0.0005
0.0005
0.0005
0.0005
0.0005
0.0005
0.0005
0.0005
0.0005
0.0005
0.0005
0.0005
0.0005
0.0005
0.0005
0.0005
0.0005
0.0005
0.0005
0.0005
0.0005
0.0005
0.0005
0.0005
0.0005
0.0005
0.0005
0.0005
0.0005
0.0005
0.0005
0.0005
0.0005
0.0005
0.0005
0.0005
0.0005
0.0005
0.0005
0.0005
0.0005
0.0005
0.0005
0.0005
0.0005
0.0005
0.0005
0.0005
0.0005
0.0005
0.0005
0.0005
0.0005
0.0005
0.0005
0.0005
0.0005
0.0005
0.0005
0.0005
0.0005
0.0005
0.0005
0.0005
0.0005
0.0005
0.0005
0.0005
0.0005
0.0005
0.0005
0.0005
0.0005
0.0005
0.0005
0.0005
0.0005
0.0005
0.0005
0.0005
0.0005
0.0005
0.0005
0.0005
0.0005
0.0005
0.0005
0.0005
0.0005
0.0005
0.0005
0.0005
0.0005

SCALARS mass float 1
LOOKUP_TABLE default
1.46608e-07
1.46608e-07
1.46608e-07
1.46608e-07
1.46608e-07
1.46608e-07
1.46608e-07
1.46608e-07
1.46608e-07
1.46608e-07
1.46608e-07
1.46608e-07
1.46608e-07
1.46608e-07
1.46608e-07
1.46608e-07
1.46608e-07
1.46608e-07
1.46608e-07
1.46608e-07
1.46608e-07
1.46608e-07
1.46608e-07
1.46608e-07
1.46608e-07
1.46608e-07
1.46608e-07
1.46608e-07
1.46608e-07
1.46608e-07
1.46608e-07
1.46608e-07
1.46608e-07
1.46608e-07
1.46608e-07
1.46608e-07
1.46608e-07
1.46608e-07
1.46608e-07
1.46608e-07
1.46608e-07
1.46608e-07
1.46608e-07
1.46608e-07
1.46608e-07
1.46608e-07
1.46608e-07
1.46608e-07
1.46608e-07
1.46608e-07
1.46608e-07
1.46608e-07
1.46608e-07
1.46608e-07
1.46608e-07
1.46608e-07
1.46608e-07
1.46608e-07
1.46608e-07
1.46608e-07
1.46608e-07
1.46608e-07
1.46608e-07
1.46608e-07
1.46608e-07
1.46608e-07
1.46608e-07
1.46608e-07
1.46608e-07
1.46608e-07
1.46608e-07
1.46608e-07
1.46608e-07
1.46608e-07
1.46608e-07
1.46608e-07
1.46608e-07
1.46608e-07
1.46608e-07
1.46608e-07
1.46608e-07
1.46608e-07
1.46608e-07
1.46608e-07
1.46608e-07
1.46608e-07
1.46608e-07
1.46608e-07
1.46608e-07
1.46608e-07
1.46608e-07
1.46608e-07
1.46608e-07
1.46608e-07
1.46608e-07
1.46608e-07
1.46608e-07
1.46608e-07
1.46608e-07
1.46608e-07
1.46608e-07
1.46608e-07
1.46608e-07
1.46608e-07
1.46608e-07
1.46608e-07
1.46608e-07
1.46608e-07
1.46608e-07
1.46608e-07
1.46608e-07
1.46608e-07
1.46608e-07
1.46608e-07
1.46608e-07
1.46608e-07
1.46608e-07
1.46608e-07
1.46608e-07
1.46608e-07
1.46608e-07
1.46608e-07
1.46608e-07
1.46608e-07
1.46608e-07
1.46608e-07
1.46608e-07
1.46608e-07
1.46608e-07
1.46608e-07
1.46608e-07
1.46608e-07
1.46608e-07
1.46608e-07
1.46608e-07
1.46608e-07
1.46608e-07
1.46608e-07
1.46608e-07
1.46608e-07
1.46608e-07
1.46608e-07
1.46608e-07
1.46608e-07
1.46608e-07
1.46608e-07
1.46608e-07
1.46608e-07
1.46608e-07
1.46608e-07
1.46608e-07
1.46608e-07
1.46608e-07
1.46608e-07
1.46608e-07
1.46608e-07
1.46608e-07
1.46608e-07
1.46608e-07
1.46608e-07
1.46608e-07
1.46608e-07
1.46608e-07
1.46608e-07
1.46608e-07
1.46608e-07
1.46608e-07
1.46608e-07
1.46608e-07
1.46608e-07
1.46608e-07
1.46608e-07
1.46608e-07
1.46608e-07
1.46608e-07
1.46608e-07
1.46608e-07
1.46608e-07
1.46608e-07
1.46608e-07
1.46608e-07
1.46608e-07
1.46608e-07
1.46608e-07
1.46608e-07
1.46608e-07
1.46608e-07
1.46608e-07
1.46608e-07
1.46608e-07
1.46608e-07
1.46608e-07
1.46608e-07
1.46608e-07
1.46608e-07
1.46608e-07
1.46608e-07
1.46608e-07
1.46608e-07
1.46608e-07
1.46608e-07
1.46608e-07
1.46608e-07
1.46608e-07
1.46608e-07
1.46608e-07
1.46608e-07
1.46608e-07
1.46608e-07
1.46608e-07
1.46608e-07
1.46608e-07
1.46608e-07
1.46608e-07
1.46608e-07
1.46608e-07
1.46608e-07
1.46608e-07
1.46608e-07
1.46608e-07
1.46608e-07
1.46608e-07
1.46608e-07
1.46608e-07
1.46608e-07
1.46608e-07
1.46608e-07
1.46608e-07
1.46608e-07
1.46608e-07
1.46608e-07
1.46608e-07
1.46608e-07
1.46608e-07
1.46608e-07
1.46608e-07
1.46608e-07
1.46608e-07
1.46608e-07
1.46608e-07
1.46608e-07
1.46608e-07
1.46608e-07
1.46608e-07
1.46608e-07
1.46608e-07
1.46608e-07
1.46608e-07
1.46608e-07
1.46608e-07
1.46608e-07
1.46608e-07
1.46608e-07
1.46608e-07
1.46608e-07
1.46608e-07
1.46608e-07
1.46608e-07
1.46608e-07
1.46608e-07
1.46608e-07
1.46608e-07
1.46608e-07
1.46608e-07
1.46608e-07
1.46608e-07
1.46608e-07
1.46608e-07
1.46608e-07
1.46608e-07
1.46608e-07
1.46608e-07
1.46608e-07
1.46608e-07
1.46608e-07
1.46608e-07
1.46608e-07
1.46608e-07
1.46608e-07
1.46608e-07
1.46608e-07
1.46608e-07
1.46608e-07
1.46608e-07
1.46608e-07
1.46608e-07
1.46608e-07
1.46608e-07
1.46608e-07
1.46608e-07
1.46608e-07
1.46608e-07
1.46608e-07
1.46608e-07
1.46608e-07
1.46608e-07
1.46608e-07
1.46608e-07
1.46608e-07
1.46608e-07

VECTORS velocity float
0.00412208 0.00643058 0.0064027
0.0041976 0.00552501 0.00604203
0.035583 -0.0099753 0.0191906
0.00220842 0.0137913 -0.0220466
-0.0910921 0.0125114 -0.0837637
0.00219116 -0.000818459 0.000564471
0.0101775 0.00333636 0.0113993
-4.53318e-05 0.000248484 -0.000272648
-0.00019048 -0.000141074 -0.000231294
0.000246172 0.0194588 0.00541085
0.00112552 0.0302721 -0.00880042
0.00201828 0.000690378 0.000816886
-9.64676e-05 0.000368067 -0.000607331
0.000403606 -0.00572893 -0.0107058
0.000762382 -0.00685736 -0.0215939
8.04788e-05 0.000130452 -2.32951e-05
-0.00268047 -0.00336122 -0.000422969
-0.000210691 -0.01364 -0.016091
0.00188302 0.00337093 0.00898041
-2.93127e-05 -0.000879995 0.00289867
-0.0012794 0.00552926 -0.00428657
-0.00358939 -0.0315552 -0.048269
-0.0381151 0.00878837 -0.00182908
0.0147426 -0.00237658 0.0299857
0.00247729 0.00225675 -0.0028051
0.00212518 -0.000247746 0.000720974
0.000219624 -0.000840072 -0.00199773
-0.0156561 0.00294594 0.0237944
-0.00168851 0.00036012 0.00351482
0.0137478 -0.00336059 -0.00922835
-0.0108054 -0.0813598 -0.154221
0.000319602 0.00153018 -0.000585448
-0.00300231 -0.00202441 -0.00370007
0.00491249 -0.00489395 0.00229725
0.00359716 0.00108062 -0.00427241
-0.000185989 0.000480035 -0.000110856
0.00255722 0.000694742 -0.00240378
-0.0867347 -0.00629135 -0.133487
-0.00209849 0.00232378 0.00553934
0.0010401 -0.0105164 -0.0198201
-0.0570154 -0.0132864 -0.114875
0.00944797 0.0135564 0.00102289
-0.00590979 -0.00349628 -0.00270297
0.0105342 0.0578862 -0.135506
-0.0044364 -0.00923347 -0.00322167
0.00252168 -0.0208359 -0.00259702
-0.000374664 -0.000754512 -0.000299612
-0.00891183 0.0174146 -0.00101786
0.000237255 -0.000690323 -0.00171739
0.00927361 0.00356481 0.0175927
-0.0303742 0.00173755 0.00888845
0.00299018 -0.000538156 -0.00185344
-0.000544685 0.00647599 -0.00738922
-0.00907535 -0.0948116 0.0239599
0.00189168 -0.00105979 -0.00141639
-0.000950162 0.0283683 -0.00898528
-0.0537334 0.170497 0.0304124
-0.000461803 -0.00269853 0.000938647
0.0118624 0.00489669 -0.00558486
-0.00859556 0.011483 0.00673975
0.0306104 -0.141939 -0.177963
2.65007e-05 0.0216668 0.00948584
0.00436568 0.0285133 -0.128066
0.00401528 0.000171778 0.0126579
0.00232345 -0.00837702 -0.0163204
-0.0117644 -0.0379628 -0.00421052
0.00457766 0.00641729 0.013521
-0.0002332 -0.000328485 -0.000627533
-0.0156637 0.00306807 0.00768824
-0.0110339 0.0101627 -0.00466413
-0.00347411 0.00257244 0.00652966
-1.28031e-05 -0.000286977 0.000225516
-0.0248101 0.0116192 -0.0644718
0.0142881 0.0809731 -0.1669
0.00246165 0.00206728 0.00123006
0.00590016 0.00180083 -0.00228559
-0.0242032 0.000535632 -0.0156986
0.0565311 -0.0685938 -0.14102
0.00334223 -0.00206383 0.00362552
-0.000639137 0.0286357 -0.000658034
-0.0162808 -0.00349847 0.00277794
-0.062043 -0.0155933 -0.226586
-6.79755e-05 0.0254544 0.0115056
-0.0179857 0.00123275 -0.0144761
-0.0182034 0.00818463 0.0595336
-0.000139274 0.00179399 0.000651716
0.00566291 0.00641019 0.00585517
-0.249402 -0.195212 0.620286
-0.000708321 0.0015644 -0.000693919
-0.0178025 -0.000877023 0.00355325
0.000976189 -0.00255415 -0.002444
-3.07258e-05 9.74925e-05 -0.000307399
-0.0380623 -0.0245305 0.0407202
-0.000482715 -0.000825072 0.000846845
-0.00289899 0.0105401 -0.000706747
0.000820659 0.0211447 -0.012091
-0.00808985 0.00407074 0.0174828
-0.00754583 0.0258363 -0.0409935
-0.0036312 -0.015718 0.00420281
-0.000289165 0.0141846 -0.0218441
-0.0505084 0.0227584 -0.0478582
-0.0285482 0.150055 0.813129
0.00396033 0.000887283 -0.00252461
0.00291118 -0.00189625 -0.00394999
-0.000435002 0.00111576 -0.00206485
0.0588027 -0.166285 -0.174884
-0.0299696 -0.0260189 -0.00413966
-0.0216267 0.0460853 -0.100413
0.000719752 -0.000336392 -0.000526508
-0.00185263 0.0312238 -0.000560566
0.10201 -0.229351 -0.525583
-0.000239916 0.00119218 -0.00324041
-0.0879884 0.0442948 -0.0665184
0.0018947 -0.017563 -0.00235705
-0.0101647 0.0023472 0.0163974
-0.161337 -0.0176125 0.0693599
0.000686667 -0.000406559 -0.000922414
0.000606305 0.00498759 -0.00375741
0.000354973 0.000626368 -0.00064896
0.00157083 0.00441612 0.000354747
-0.00155675 -0.00881478 -0.00569653
-0.233832 0.212012 -0.122298
9.182e-05 -0.00163153 0.0255439
-0.000399149 0.00538943 0.0058302
-0.00217415 -0.0014075 0.000357186
0.00128319 0.0284095 -0.00675611
-0.028686 0.0228147 -0.00759311
0.0279903 -0.0470837 -0.0943163
-0.00011456 0.0010215 -0.000874979
-0.0108552 -0.0277235 0.00799906
-0.0112501 -0.142856 0.0813843
0.0923976 0.0842464 -0.284869
0.00290479 -0.00330546 -0.00244662
0.00512487 0.00333832 0.000495378
0.000306865 0.0266193 0.00307809
-0.042911 -0.0618156 -0.171461
0.00161463 0.0173415 -0.0134444
-0.000126118 0.0011752 -0.000973884
0.00348189 -0.0012113 -0.0024436
0.000419147 -0.000321164 0.00134662
0.0161484 -0.00903361 -0.0103542
-0.0793989 -0.00417709 -0.0413992
-0.140128 -0.0270081 0.106783
0.0385759 0.0458711 -0.0641159
-0.00384314 -0.00853643 -0.0132958
0.000125984 0.00185876 0.00024467
0.000269716 -0.0224418 0.00991811
-0.0380715 -0.0416115 -0.14039
0.00437077 0.00489404 0.00267961
-0.0262037 0.0570052 -0.214965
0.0258296 0.096988 -0.11822
-0.00381501 0.0114094 0.00223269
0.0131285 0.00218195 -0.0193711
-0.00967668 -0.0492379 -0.0221227
0.000658186 -0.00325646 0.00841687
0.000270145 0.000633515 2.96825e-05
0.0233029 0.11296 -0.233994
0.1637 0.128068 0.105868
0.0021827 -0.00381679 0.00852862
3.2215e-15 8.02854e-15 1.06043e-13
-0.000301004 -0.00149977 -0.00124972
0.00263246 0.000632186 0.00172931
0.00148414 0.00578993 -0.0044832
0.000613087 0.000419018 -0.00091571
-0.000446434 0.00114135 0.00491421
-0.00748567 0.0271736 -0.00577509
0.0156821 0.00465161 0.0130413
-0.00741423 0.00160641 0.00297223
0.000466396 0.0226781 -0.00898824
-0.000349484 0.0262541 0.00451337
0.00118218 0.00357119 -0.00187114
0.000887647 0.00326347 -0.0230769
-0.00218327 -0.0640342 -0.0502097
-0.0223419 -0.0378398 0.962668
0.000898658 0.00121012 -0.000564071
0.000305744 -0.00164563 -9.94029e-05
-0.0189693 0.0108659 -0.225724
0.00558444 -0.00356454 -0.00111842
5.14266e-06 0.00516327 -0.00620196
0.00169282 0.000430541 0.00108116
0.00203018 0.000629442 -0.00261263
-0.0531355 -0.0143499 -0.0309763
-0.000383088 -0.0158317 0.000250225
0.00675367 0.00767945 0.00381895
-0.000133604 0.000694689 -0.00164023
-0.000163062 0.00122107 0.00257945
-0.0723693 -0.0381916 -0.17483
-0.000898196 0.0303796 -0.000665348
-0.000253262 -0.000387555 -0.000307371
-0.000216956 -0.000146674 0.000192693
-0.0411136 0.0217478 -0.098271
-0.014562 0.00100146 0.0129536
-0.00341251 0.00475793 0.00382154
-0.00743637 0.0102366 -0.0129522
-0.006833 0.00115917 0.00552052
-0.000359791 0.000810251 7.23763e-05
-0.000543139 -0.00196479 0.000353717
-0.0173274 -0.00282755 -0.00575713
0.002465 -0.00415623 -0.000215874
0.00759323 0.0222528 0.000440875
-0.0146911 0.00416737 0.0123622
-0.000960669 0.00102212 -0.00252089
0.00150105 0.00426949 -0.00308486
0.00505749 -0.00253958 0.00466553
0.000364384 0.000351425 -0.000611426
0.0109607 0.018696 -0.00465498
-0.117264 -0.347653 0.078806
0.000157973 0.0201481 0.00651958
0.0070968 0.0082179 0.000331172
0.0213908 0.00539899 0.0192719
0.000470765 0.00473352 -0.000451432
0.00546607 -0.00688468 -0.000684436
0.00222912 0.0030859 -0.0051952
0.000549213 0.00901019 0.00324794
0.0890331 -0.0429412 -0.228666
0.00107135 -0.0243781 -0.00607805
0.00977636 0.00210506 -0.010482
-0.0248011 -0.00295374 0.00209832
0.00225108 -0.0178265 -0.00851342
0.00139814 0.00125266 -0.00145862
-0.0181394 0.00997493 0.0118532
0.000377232 -0.0243264 0.00385078
0.00971244 0.0188998 0.0212012
-0.018939 0.0268049 -0.00440091
-0.00182007 -0.00204281 -0.000183847
0.000225983 0.00541404 0.0247969
0.00103664 0.00190082 0.00099438
0.0757748 -0.0422885 -0.229352
0.000955475 0.0071603 0.00105672
-0.000724131 0.0129775 0.000216675
-5.0743e-05 0.000198238 0.000308432
0.00281168 0.0020279 -0.00355906
-0.0142909 -0.0108927 0.0138895
0.00144485 0.000754107 -0.00263297
-0.00560688 0.00746206 -0.0121702
-1.99904e-05 -0.000348845 -0.00064793
-0.0024735 -0.00569961 -0.00291669
0.0042452 0.00961724 0.00174062
0.00443669 0.00656129 0.00829128
0.0489074 0.00847359 -0.070896
0.0029091 0.00135724 -0.00338705
-2.39181e-06 0.0289727 0.00285679
0.0203769 0.0100581 -0.00491614
1.23752e-05 0.00157266 -0.00381528
-0.0015989 0.0179361 0.00490662
0.000248898 0.0141953 0.00383596
0.00910692 -0.00355685 -0.0031528
0.00470761 -0.00351149 -0.000460894
0.000636231 0.0231845 0.00678981
-0.0486985 -0.0201884 -0.056078
-8.46208e-06 -0.00102593 0.00114067
0.00114607 0.0263028 -0.00408749
0.00129953 0.00145094 0.00284363
0.004544 0.00509942 0.00385828
0.00593207 -0.0114473 -0.0089665
0.00854669 -0.00563465 -0.00114268
0.00448519 0.00480486 0.000798507
-0.0265769 -0.0349911 -0.00177813
0.000884378 0.0281441 -0.0241603
0.0148691 0.0141655 -0.000983784
0.0140937 0.0113697 -0.0164702
-4.87912e-05 -0.00757583 -0.00376839
-0.0260855 0.00542143 -0.000318632
0.0993735 -0.0270715 -0.230289
0.0041223 0.00126968 0.00353764
0.00496735 0.00227445 0.000515085
-6.435e-05 -0.000190151 -0.000961588
0.001284 0.0013773 0.000100981
-3.38332e-05 0.0267536 0.00400857
0.00800505 -0.00178435 0.000593048
0.0767886 0.0317292 0.00595602
4.3851e-05 -1.986e-05 0.000170155
0.00469749 0.0042186 0.00563563
0.00449906 0.0073245 0.0028578
-0.0037854 0.0026992 0.00416307
0.0261669 0.00882039 0.00556722
-0.000803444 -0.00387671 -0.0233298
0.0490238 -0.00391332 -0.0283206
0.000555903 -0.013863 -0.00938635
0.00471133 0.00611332 0.00480972
0.00491671 0.00474332 0.000269309
0.0197783 -0.00443597 -0.00648856
0.0010162 0.000235044 0.00139188
0.00516903 0.01124 -0.0205389
0.00219306 0.0146992 0.0103707
0.00135392 0.012174 0.00698679
0.00566302 0.0131482 0.00815578
0.0114156 0.001956 -0.000764643
-0.0544335 -0.0831088 -0.127413
-0.00257739 -0.00879803 0.00555868
-0.000780953 -0.0203772 -0.0194451
-0.00892837 0.0156734 0.0312002
0.00598617 0.00185832 0.000517268
-0.00611376 0.00530873 0.00573682
-0.0204726 0.0380428 0.0220784
-0.00655156 -0.00913536 0.0214838
0.00823685 0.00982938 -0.00122907
0.00415813 0.000984003 -0.00403445
0.0045814 0.00631869 0.00705441
-0.176089 0.0796864 0.0234294

VECTORS force float
1.2777e-07 -5.10984e-07 1.00851e-07
5.14978e-08 -1.11024e-07 -2.04168e-07
0.0 0.0 -1.43822e-06
-5.74196e-07 1.63899e-07 -3.28848e-07
0.0 0.0 -1.43822e-06
1.08273e-06 5.88856e-07 9.11917e-07
0.0 0.0 -1.43822e-06
-7.95517e-08 -1.37725e-07 -1.6408e-07
1.15295e-06 3.94349e-07 -5.30491e-07
-2.35705e-08 1.91774e-07 2.7158e-08
-4.25519e-08 -1.14994e-07 -1.39989e-06
6.57181e-07 -2.01358e-06 -1.85219e-06
2.65742e-08 -9.2339e-09 -1.05345e-07
-8.37398e-09 -3.45161e-09 2.78145e-08
-7.15192e-08 3.63559e-08 3.40969e-08
-4.2833e-07 -1.18251e-07 -4.60792e-07
0.0 0.0 -1.43822e-06
-1.28628e-07 -6.18403e-09 1.15411e-07
-1.14539e-08 1.71642e-09 -2.83709e-08
2.33846e-07 4.45611e-08 -5.04239e-07
-5.21094e-08 -6.80582e-08 9.92949e-07
0.0 0.0 -1.43822e-06
0.0 0.0 -1.43822e-06
0.0 0.0 -1.43822e-06
-1.99261e-07 3.48049e-06 -6.14102e-06
7.06881e-06 6.78325e-06 3.71189e-06
0.0 0.0 -1.43822e-06
0.0 0.0 -1.43822e-06
4.01624e-06 -4.18324e-07 2.3158e-06
-4.47164e-08 -4.26193e-07 -9.59195e-07
0.0 0.0 -1.43822e-06
4.92471e-07 1.37073e-06 -3.72605e-06
-4.64959e-08 1.27007e-07 3.33989e-07
0.0 0.0 -1.43822e-06
2.52733e-07 -4.75056e-08 9.86891e-07
1.17333e-06 4.68234e-07 -1.72906e-07
8.26413e-09 -7.42698e-08 2.71011e-08
0.0 0.0 -1.43822e-06
8.21145e-07 -2.21811e-06 -8.53576e-07
2.25217e-09 -9.43555e-09 6.68165e-09
0.0 0.0 -1.43822e-06
1.74134e-06 -9.44998e-08 2.69221e-06
4.49089e-08 -3.12007e-07 -1.74569e-07
0.0 0.0 -1.43822e-06
0.0 0.0 -1.43822e-06
1.11456e-09 -3.23183e-08 5.8082e-10
-3.31951e-07 3.4053e-08 -1.17551e-07
-2.84761e-06 2.59643e-05 6.84453e-06