# vtk DataFile Version 3.0
LIGGGHTS particles timestep 2000000
ASCII
DATASET POLYDATA
POINTS 334 float
0.0233884 0.0227946 0.00932566
0.0216644 0.0231236 0.013197
0.018564 0.0152138 0.0151436
0.0160787 0.020911 0.0160396
0.0220408 0.0221398 0.0160757
0.0158002 0.0232 0.0154912
0.0165871 0.0148245 0.014698
0.0214553 0.0148899 0.0159822
0.0242424 0.0150314 0.0100325
0.0194186 0.0243382 0.0138871
0.023958 0.0087489 0.0347917
0.0200789 0.0219078 0.00826674
0.0156052 0.0228813 0.0169688
0.018181 0.0199144 0.0159028
0.0179755 0.0208766 0.0155578
0.0245454 0.0168276 0.0153643
0.0231594 0.0233128 0.0155093
0.0188431 0.0237562 0.0156078
0.0243679 0.018951 0.015947
0.0213422 0.0230624 0.0137823
0.0165242 0.0156097 0.0155248
0.0156252 0.0224683 0.0144196
0.0204931 0.0140618 0.0131439
0.0172604 0.0195568 0.0161228
0.0203719 0.0209558 0.0164196
0.0234782 0.0151571 0.0133769
0.0174962 0.0186016 0.0159319
0.0167624 0.0233508 0.0158547
0.021476 0.0156673 0.0166108
0.0180949 0.0225483 0.0154646
0.0163551 0.0230403 0.0176109
0.0179484 0.0146554 0.0145833
0.0222772 0.0198561 0.0159525
0.0232951 0.0226411 0.0141021
0.0204211 0.0240981 0.0129614
0.0182404 0.0183799 0.0168494
0.0128431 0.0208004 0.0164458
0.0244041 0.0222507 0.0157157
0.023227 0.019934 0.0158563
0.0143712 0.0229575 0.0150735
0.0236302 0.0173193 0.0162495
0.0181791 0.0239072 0.0148003
0.0177026 0.0217193 0.0150663
0.0234625 0.0224571 0.0160117
0.0192535 0.0155135 0.014216
0.0196752 0.0143599 0.014783
0.0169163 0.0170352 0.015466
0.0219243 0.0170496 0.0164064
0.0172045 0.0230788 0.0133734
0.0194293 0.0241082 0.0129271
0.0227755 0.0226144 0.0151655
0.0165522 0.024107 0.0175415
0.0191855 0.0145668 0.0156301
0.0236512 0.0189325 0.0166533
0.0187595 0.0236256 0.0140609
0.019701 0.0234846 0.014321
0.0179979 0.0160074 0.0153949
0.0214154 0.0148425 0.0146488
0.0190997 0.0190331 0.0167422
0.0259105 0.0191621 0.0168086
0.0209821 0.0177549 0.0172749
0.0200024 0.0156025 0.015467
0.021222 0.0140194 0.0138269
0.0243064 0.0211599 0.0173309
0.022568 0.0215635 0.0181535
0.0207375 0.0172748 0.0164327
0.019109 0.0224266 0.0155542
0.0236877 0.0150845 0.0151261
0.0175795 0.0215614 0.0165997
0.0167338 0.0141907 0.0136127
0.0245876 0.0177638 0.0157575
0.0198988 0.0229356 0.0170964
0.015798 0.01451 0.0141704
0.0176031 0.0242993 0.0140296
0.0178934 0.0243364 0.0172628
0.0253336 0.0172679 0.0164456
0.0176922 0.0236456 0.0156336
0.020495 0.0147126 0.0152492
0.0179976 0.0157093 0.0144328
0.0204603 0.0190917 0.0167521
0.0133058 0.0198605 0.0166848
0.0224118 0.0205947 0.0166948
0.0171032 0.0205294 0.0159381
0.0191735 0.020553 0.0175163
0.0178753 0.0140046 0.0133782
0.022258 0.0151709 0.0150776
0.0182533 0.0240296 0.0163675
0.0216208 0.0221828 0.0169822
0.021565 0.023414 0.0124865
0.0198338 0.0238029 0.0154761
0.0185766 0.0143201 0.0127378
0.0175781 0.0240479 0.0130662
0.0220131 0.0211702 0.0158368
0.0193119 0.0149628 0.013248
0.0185239 0.0242393 0.013315
0.0170981 0.0223864 0.0155019
0.0154348 0.0229648 0.0136127
0.0215437 0.0239513 0.0145688
0.0210091 0.015632 0.0154821
0.0217931 0.021865 0.0149254
0.0197501 0.0141605 0.0138059
0.0200541 0.0210382 0.00770317
0.0205287 0.014598 0.0142564
0.0213189 0.0185729 0.0167361
0.0220846 0.0179335 0.0168458
0.0233406 0.0155896 0.014302
0.026166 0.0219947 0.00845152
0.0173874 0.0152479 0.0151611
0.0225213 0.018847 0.015938
0.0228942 0.0217289 0.0163975
0.0167062 0.0179518 0.0158064
0.0205342 0.0196632 0.0175695
0.0156809 0.0204197 0.0265228
0.0206182 0.0167006 0.0182194
0.0200009 0.0228952 0.0150922
0.0251677 0.0196669 0.0172222
0.0227183 0.0165459 0.0160631
0.0187706 0.0199775 0.0167379
0.01499 0.0227119 0.0158197
0.0202203 0.0181207 0.0166594
0.0182467 0.0142697 0.0154563
0.0216833 0.0197269 0.0167482
0.0157564 0.0222024 0.0154253
0.0174876 0.0149373 0.013742
0.0257379 0.0181834 0.0166662
0.0199159 0.024393 0.0167908
0.0183574 0.0217418 0.0159958
0.021493 0.0240043 0.0135811
0.022176 0.0232882 0.0164047
0.022844 0.0235096 0.0141918
0.0208321 0.0230944 0.0174208
0.0255817 0.0212056 0.0168068
0.017529 0.0205665 0.0169154
0.0215558 0.0226942 0.0145402
0.0228178 0.0142343 0.0204714
0.0213444 0.0117476 0.022653
0.0223672 0.0236826 0.0150469
0.0184543 0.0151913 0.0137087
0.020944 0.023308 0.0150443
0.0210758 0.0239708 0.0170043
0.0167651 0.0239286 0.0136066
0.0238054 0.0163388 0.0161192
0.0230915 0.0158654 0.0153169
0.0203494 0.0235568 0.0164552
0.0181924 0.023385 0.0171294
0.0174509 0.0146182 0.0159528
0.0244742 0.0200608 0.0166609
0.0221052 0.0144301 0.0140534
0.0212179 0.0215656 0.0162966
0.0264416 0.0228095 0.00931244
0.0235238 0.02188 0.0149199
0.0153338 0.0156213 0.0155064
0.0211716 0.022688 0.00924572
0.0184949 0.0168882 0.0153988
0.0247098 0.0209815 0.0163921
0.0189491 0.0169525 0.00775561
0.0201564 0.0164171 0.0160301
0.0205524 0.0219311 0.0169481
0.0241213 0.0202677 0.0157763
0.0234887 0.0182963 0.015886
0.0170478 0.0234414 0.0122235
0.0218758 0.0229429 0.0155049
0.016954 0.022428 0.0169952
0.0192613 0.0184677 0.00722039
0.0185339 0.0230445 0.0162383
0.0187266 0.0230692 0.0148907
0.0193476 0.0216203 0.0160949
0.0171344 0.0162107 0.0149334
0.0187827 0.0141365 0.0143911
0.0237975 0.0227627 0.0151103
0.0227823 0.0176074 0.0157197
0.0184287 0.0209167 0.0166497
0.0209354 0.0227359 0.016493
0.0198827 0.0227468 0.0161007
0.023911 0.0211448 0.0154209
0.0176829 0.0231302 0.0147447
0.0162111 0.0226022 0.0162234
0.0191775 0.0180408 0.0166379
0.0159997 0.0236507 0.0141605
0.0163421 0.0235421 0.0167436
0.0207425 0.0200604 0.0166748
0.0249598 0.016323 0.0161216
0.0162977 0.0199358 0.0160697
0.0268128 0.0233658 0.0110242
0.0208636 0.0233957 0.0113041
0.0235914 0.0206387 0.0166516
0.0248977 0.0167885 0.00784027
0.0194035 0.0207248 0.016536
0.0225629 0.0225191 0.0169132
0.0176898 0.0147805 0.0127755
0.0146656 0.0217853 0.0160106
0.0203135 0.0218521 0.0159804
0.0225255 0.0145807 0.0179315
0.0150055 0.0148536 0.0146835
0.0199976 0.0143956 0.0161877
0.0156076 0.0218125 0.0163471
0.0152133 0.0233401 0.014694
0.0197629 0.0198066 0.0167019
0.0165998 0.0230511 0.0149087
0.0231254 0.022925 0.0177625
0.0229374 0.0146473 0.0145635
0.0239461 0.01616 0.0148893
0.017266 0.0239342 0.0164937
0.0239951 0.0219942 0.0179778
0.0203496 0.0225772 0.00903474
0.0168484 0.023973 0.0145989
0.0205816 0.023928 0.0143489
0.0226737 0.0215845 0.0152559
0.0204349 0.0244772 0.0176413
0.0166183 0.0216984 0.0163586
0.0221224 0.0232204 0.0141662
0.0175459 0.022976 0.016391
0.0212262 0.0235402 0.015975
0.0134029 0.0215621 0.0161197
0.0193999 0.0194924 0.0175791
0.0207693 0.0186749 0.0176069
0.0234863 0.0221211 0.0171061
0.0189388 0.0243835 0.0170036
0.0167175 0.0212679 0.0153547
0.0233783 0.0168616 0.0153814
0.0230372 0.0208985 0.0158592
0.0188773 0.0137262 0.013484
0.0184356 0.018263 0.0158747
0.0507842 0.0311301 -0.0146687
0.0195439 0.0140844 0.0128303
0.0165037 0.0189288 0.0159409
0.0223997 0.0223532 0.0144195
0.0257393 0.0202357 0.0166033
0.0220134 0.0237394 0.0172888
0.017233 0.0225395 0.0141917
0.0249904 0.0219303 0.0164577
0.023916 0.021604 0.0163268
0.0243732 0.0156643 0.0156459
0.0181694 0.0223331 0.0168412
0.0163708 0.0227979 0.0139296
0.0246583 0.0184967 0.016853
0.0138874 0.0223016 0.0156527
0.0236666 0.0148611 0.0124873
0.0164941 0.0220666 0.0147634
0.0225747 0.0199226 0.017783
0.0209905 0.0224407 0.0155393
0.0163372 0.0232754 0.0129395
0.0211896 0.0164591 0.0160715
0.0189841 0.0160156 0.0155836
0.0214081 0.0207878 0.0168954
0.0224364 0.0231924 0.0129532
0.0169937 0.0186685 0.0167935
0.0176428 0.0221264 0.0176688
0.0170826 0.0212939 0.0176412
0.0206548 0.015739 0.0235465
0.0231263 0.0190181 0.025621
0.0139026 0.0178635 0.0166117
0.0198166 0.0217235 0.0268261
0.019422 0.0234435 0.0204502
0.0172018 0.0214809 0.0219372
0.0182333 0.0181926 0.0237348
0.0221752 0.016147 0.0250981
0.0170654 0.0208125 0.0186372
0.0187497 0.0171068 0.0163407
0.0213444 0.019401 0.0207905
0.0180981 0.0234307 0.0263957
0.0151734 0.0210431 0.016952
0.0168922 0.0224148 0.0222268
0.022325 0.0165453 0.0201042
0.0222789 0.0170488 0.0258909
0.0191856 0.0222351 0.0236081
0.0170837 0.0214901 0.0271165
0.0230624 0.0204971 0.0264981
0.0201308 0.020888 0.0287359
0.0222363 0.0218158 0.0192099
0.0225555 0.0184025 0.0262851
0.0163745 0.0173595 0.0193179
0.0153013 0.021121 0.0283342
0.0182268 0.0202284 0.0175481
0.0176245 0.0164399 0.0192387
0.0212188 0.0185762 0.0233413
0.022758 0.0173024 0.0272489
0.0150228 0.0185061 0.0167459
0.0181653 0.0185053 0.0265087
0.0196372 0.019876 0.0281384
0.0191389 0.0185709 0.0190564
0.0214063 0.0188194 0.026685
0.0184335 0.0214167 0.0216386
0.0177729 0.0175368 0.0156861
0.0211416 0.0217859 0.0177949
0.01818 0.0203917 0.0195603
0.0174398 0.0183973 0.0206346
0.0191575 0.0223977 0.0166943
0.0173836 0.0195785 0.0171482
0.0173715 0.0216869 0.0235629
0.0205178 0.0152461 0.0162628
0.017354 0.0230868 0.0176477
0.0167285 0.0194426 0.0264254
0.0233776 0.0176246 0.0216465
0.0157865 0.0218611 0.0270223
0.0219502 0.0158733 0.0157197
0.0207337 0.0165371 0.0172183
0.0184076 0.0204746 0.0257722
0.019091 0.01504 0.0226958
0.017502 0.0192537 0.0233138
0.0216562 0.0181773 0.021853
0.0187175 0.0193401 0.0238978
0.0177118 0.0149102 0.0209954
0.0176586 0.0231518 0.0191361
0.0193665 0.01535 0.016225
0.0177343 0.022623 0.0240664
0.0183176 0.0192549 0.0173279
0.0157025 0.0165301 0.0245209
0.016815 0.0208972 0.022778
0.0196651 0.0158 0.02559
0.0209355 0.0150893 0.0215274
0.0173827 0.0195927 0.0205516
0.0239702 0.0193883 0.017486
0.0165343 0.01861 0.0257744
0.0201524 0.0205559 0.0173121
0.0168273 0.0153527 0.0258131
0.0213437 0.0217327 0.021128
0.018283 0.0233852 0.028476
0.0180905 0.0203905 0.0240846
0.0203779 0.018928 0.0219331
0.0193455 0.023613 0.0164606
0.0198594 0.0215732 0.017574
0.0206018 0.021642 0.0229943
0.0246046 0.0203052 0.0177877
0.0218597 0.0191396 0.0196914
0.0196365 0.0163266 0.0173645
0.0178262 0.021063 0.0263703
0.0229625 0.0206436 0.0250408
0.0197382 0.0172377 0.0164287
0.0165363 0.0207108 0.0170242
0.0211044 0.0171193 0.0204326
0.0145607 0.0181581 0.0255422
0.0160845 0.016481 0.0284102
0.0227529 0.0185252 0.0200358

VERTICES 334 668
1 0
1 1
1 2
1 3
1 4
1 5
1 6
1 7
1 8
1 9
1 10
1 11
1 12
1 13
1 14
1 15
1 16
1 17
1 18
1 19
1 20
1 21
1 22
1 23
1 24
1 25
1 26
1 27
1 28
1 29
1 30
1 31
1 32
1 33
1 34
1 35
1 36
1 37
1 38
1 39
1 40
1 41
1 42
1 43
1 44
1 45
1 46
1 47
1 48
1 49
1 50
1 51
1 52
1 53
1 54
1 55
1 56
1 57
1 58
1 59
1 60
1 61
1 62
1 63
1 64
1 65
1 66
1 67
1 68
1 69
1 70
1 71
1 72
1 73
1 74
1 75
1 76
1 77
1 78
1 79
1 80
1 81
1 82
1 83
1 84
1 85
1 86
1 87
1 88
1 89
1 90
1 91
1 92
1 93
1 94
1 95
1 96
1 97
1 98
1 99
1 100
1 101
1 102
1 103
1 104
1 105
1 106
1 107
1 108
1 109
1 110
1 111
1 112
1 113
1 114
1 115
1 116
1 117
1 118
1 119
1 120
1 121
1 122
1 123
1 124
1 125
1 126
1 127
1 128
1 129
1 130
1 131
1 132
1 133
1 134
1 135
1 136
1 137
1 138
1 139
1 140
1 141
1 142
1 143
1 144
1 145
1 146
1 147
1 148
1 149
1 150
1 151
1 152
1 153
1 154
1 155
1 156
1 157
1 158
1 159
1 160
1 161
1 162
1 163
1 164
1 165
1 166
1 167
1 168
1 169
1 170
1 171
1 172
1 173
1 174
1 175
1 176
1 177
1 178
1 179
1 180
1 181
1 182
1 183
1 184
1 185
1 186
1 187
1 188
1 189
1 190
1 191
1 192
1 193
1 194
1 195
1 196
1 197
1 198
1 199
1 200
1 201
1 202
1 203
1 204
1 205
1 206
1 207
1 208
1 209
1 210
1 211
1 212
1 213
1 214
1 215
1 216
1 217
1 218
1 219
1 220
1 221
1 222
1 223
1 224
1 225
1 226
1 227
1 228
1 229
1 230
1 231
1 232
1 233
1 234
1 235
1 236
1 237
1 238
1 239
1 240
1 241
1 242
1 243
1 244
1 245
1 246
1 247
1 248
1 249
1 250
1 251
1 252
1 253
1 254
1 255
1 256
1 257
1 258
1 259
1 260
1 261
1 262
1 263
1 264
1 265
1 266
1 267
1 268
1 269
1 270
1 271
1 272
1 273
1 274
1 275
1 276
1 277
1 278
1 279
1 280
1 281
1 282
1 283
1 284
1 285
1 286
1 287
1 288
1 289
1 290
1 291
1 292
1 293
1 294
1 295
1 296
1 297
1 298
1 299
1 300
1 301
1 302
1 303
1 304
1 305
1 306
1 307
1 308
1 309
1 310
1 311
1 312
1 313
1 314
1 315
1 316
1 317
1 318
1 319
1 320
1 321
1 322
1 323
1 324
1 325
1 326
1 327
1 328
1 329
1 330
1 331
1 332
1 333

POINT_DATA 334
SCALARS id int 1
LOOKUP_TABLE default
1
2
3
4
5
6
7
8
9
10
12
13
14
15
16
17
18
19
20
21
22
23
24
25
26
27
28
29
30
31
32
33
34
35
36
37
38
39
40
41
42
43
44
46
47
48
49
50
51
52
53
54
55
56
57
58
59
60
61
62
63
64
65
66
67
68
69
70
71
72
73
74
75
76
78
79
80
81
83
84
85
86
87
88
89
90
91
92
93
94
95
96
97
98
99
100
101
102
103
104
105
106
107
108
109
110
111
112
113
114
115
116
117
118
119
120
121
122
123
124
125
126
127
128
129
130
131
132
133
134
135
136
137
138
139
140
141
142
143
144
145
146
147
148
149
150
151
152
153
154
155
156
157
158
159
160
161
162
163
164
165
166
167
168
169
170
172
173
174
175
176
177
178
179
180
181
182
183
184
185
186
187
188
189
191
192
193
194
195
196
197
198
199
200
201
202
203
204
205
206
207
208
209
210
212
213
214
215
216
217
218
219
220
221
222
223
224
225
226
227
228
229
230
231
232
233
234
235
236
237
238
239
240
241
242
243
244
245
246
247
248
249
250
251
252
253
254
255
256
257
258
259
260
261
262
263
264
265
266
267
268
269
270
271
272
273
274
275
276
277
278
279
280
281
282
283
284
285
286
287
288
289
290
291
292
293
294
295
296
297
298
299
300
301
302
303
304
305
306
307
308
309
310
311
312
313
314
315
316
317
318
319
320
321
322
323
324
325
326
327
328
329
330
331
332
333
334
335
336
337
338
339
340
341

SCALARS type int 1
LOOKUP_TABLE default
1
1
1
1
1
1
1
1
1
1
1
1
1
1
1
1
1
1
1
1
1
1
1
1
1
1
1
1
1
1
1
1
1
1
1
1
1
1
1
1
1
1
1
1
1
1
1
1
1
1
1
1
1
1
1
1
1
1
1
1
1
1
1
1
1
1
1
1
1
1
1
1
1
1
1
1
1
1
1
1
1
1
1
1
1
1
1
1
1
1
1
1
1
1
1
1
1
1
1
1
1
1
1
1
1
1
1
1
1
1
1
1
1
1
1
1
1
1
1
1
1
1
1
1
1
1
1
1
1
1
1
1
1
1
1
1
1
1
1
1
1
1
1
1
1
1
1
1
1
1
1
1
1
1
1
1
1
1
1
1
1
1
1
1
1
1
1
1
1
1
1
1
1
1
1
1
1
1
1
1
1
1
1
1
1
1
1
1
1
1
1
1
1
1
1
1
1
1
1
1
1
1
1
1
1
1
1
1
1
1
1
1
1
1
1
1
1
1
1
1
1
1
1
1
1
1
1
1
1
1
1
1
1
1
1
1
1
1
1
1
1
1
1
1
1
1
1
1
1
1
1
1
1
1
1
1
1
1
1
1
1
1
1
1
1
1
1
1
1
1
1
1
1
1
1
1
1
1
1
1
1
1
1
1
1
1
1
1
1
1
1
1
1
1
1
1
1
1
1
1
1
1
1
1
1
1
1
1
1
1
1
1
1
1
1
1
1
1
1
1
1
1
1
1
1
1
1
1
1
1
1
1
1
1

SCALARS radius float 1
LOOKUP_TABLE default
0.0005
0.0005
0.0005
0.0005
0.0005
0.0005
0.0005
0.0005
0.0005
0.0005
0.0005
0.0005
0.0005
0.0005
0.0005
0.0005
0.0005
0.0005
0.0005
0.0005
0.0005
0.0005
0.0005
0.0005
0.0005
0.0005
0.0005
0.0005
0.0005
0.0005
0.0005
0.0005
0.0005
0.0005
0.0005
0.0005
0.0005
0.0005
0.0005
0.0005
0.0005
0.0005
0.0005
0.0005
0.0005
0.0005
0.0005
0.0005
0.0005
0.0005
0.0005
0.0005
0.0005
0.0005
0.0005
0.0005
0.0005
0.0005
0.0005
0.0005
0.0005
0.0005
0.0005
0.0005
0.0005
0.0005
0.0005
0.0005
0.0005
0.0005
0.0005
0.0005
0.0005
0.0005
0.0005
0.0005
0.0005
0.0005
0.0005
0.0005
0.0005
0.0005
0.0005
0.0005
0.0005
0.0005
0.0005
0.0005
0.0005
0.0005
0.0005
0.0005
0.0005
0.0005
0.0005
0.0005
0.0005
0.0005
0.0005
0.0005
0.0005
0.0005
0.0005
0.0005
0.0005
0.0005
0.0005
0.0005
0.0005
0.0005
0.0005
0.0005
0.0005
0.0005
0.0005
0.0005
0.0005
0.0005
0.0005
0.0005
0.0005
0.0005
0.0005
0.0005
0.0005
0.0005
0.0005
0.0005
0.0005
0.0005
0.0005
0.0005
0.0005
0.0005
0.0005
0.0005
0.0005
0.0005
0.0005
0.0005
0.0005
0.0005
0.0005
0.0005
0.0005
0.0005
0.0005
0.0005
0.0005
0.0005
0.0005
0.0005
0.0005
0.0005
0.0005
0.0005
0.0005
0.0005
0.0005
0.0005
0.0005
0.0005
0.0005
0.0005
0.0005
0.0005
0.0005
0.0005
0.0005
0.0005
0.0005
0.0005
0.0005
0.0005
0.0005
0.0005
0.0005
0.0005
0.0005
0.0005
0.0005
0.0005
0.0005
0.0005
0.0005
0.0005
0.0005
0.0005
0.0005
0.0005
0.0005
0.0005
0.0005
0.0005
0.0005
0.0005
0.0005
0.0005
0.0005
0.0005
0.0005
0.0005
0.0005
0.0005
0.0005
0.0005
0.0005
0.0005
0.0005
0.0005
0.0005
0.0005
0.0005
0.0005
0.0005
0.0005
0.0005
0.0005
0.0005
0.0005
0.0005
0.0005
0.0005
0.0005
0.0005
0.0005
0.0005
0.0005
0.0005
0.0005
0.0005
0.0005
0.0005
0.0005
0.0005
0.0005
0.0005
0.0005
0.0005
0.0005
0.0005
0.0005
0.0005
0.0005
0.0005
0.0005
0.0005
0.0005
0.0005
0.0005
0.0005
0.0005
0.0005
0.0005
0.0005
0.0005
0.0005
0.0005
0.0005
0.0005
0.0005
0.0005
0.0005
0.0005
0.0005
0.0005
0.0005
0.0005
0.0005
0.0005
0.0005
0.0005
0.0005
0.0005
0.0005
0.0005
0.0005
0.0005
0.0005
0.0005
0.0005
0.0005
0.0005
0.0005
0.0005
0.0005
0.0005
0.0005
0.0005
0.0005
0.0005
0.0005
0.0005
0.0005
0.0005
0.0005
0.0005
0.0005
0.0005
0.0005
0.0005
0.0005
0.0005
0.0005
0.0005
0.0005
0.0005
0.0005
0.0005
0.0005
0.0005
0.0005
0.0005
0.0005
0.0005
0.0005
0.0005
0.0005
0.0005
0.0005
0.0005
0.0005
0.0005
0.0005
0.0005
0.0005
0.0005
0.0005
0.0005
0.0005
0.0005
0.0005
0.0005
0.0005

SCALARS mass float 1
LOOKUP_TABLE default
1.46608e-07
1.46608e-07
1.46608e-07
1.46608e-07
1.46608e-07
1.46608e-07
1.46608e-07
1.46608e-07
1.46608e-07
1.46608e-07
1.46608e-07
1.46608e-07
1.46608e-07
1.46608e-07
1.46608e-07
1.46608e-07
1.46608e-07
1.46608e-07
1.46608e-07
1.46608e-07
1.46608e-07
1.46608e-07
1.46608e-07
1.46608e-07
1.46608e-07
1.46608e-07
1.46608e-07
1.46608e-07
1.46608e-07
1.46608e-07
1.46608e-07
1.46608e-07
1.46608e-07
1.46608e-07
1.46608e-07
1.46608e-07
1.46608e-07
1.46608e-07
1.46608e-07
1.46608e-07
1.46608e-07
1.46608e-07
1.46608e-07
1.46608e-07
1.46608e-07
1.46608e-07
1.46608e-07
1.46608e-07
1.46608e-07
1.46608e-07
1.46608e-07
1.46608e-07
1.46608e-07
1.46608e-07
1.46608e-07
1.46608e-07
1.46608e-07
1.46608e-07
1.46608e-07
1.46608e-07
1.46608e-07
1.46608e-07
1.46608e-07
1.46608e-07
1.46608e-07
1.46608e-07
1.46608e-07
1.46608e-07
1.46608e-07
1.46608e-07
1.46608e-07
1.46608e-07
1.46608e-07
1.46608e-07
1.46608e-07
1.46608e-07
1.46608e-07
1.46608e-07
1.46608e-07
1.46608e-07
1.46608e-07
1.46608e-07
1.46608e-07
1.46608e-07
1.46608e-07
1.46608e-07
1.46608e-07
1.46608e-07
1.46608e-07
1.46608e-07
1.46608e-07
1.46608e-07
1.46608e-07
1.46608e-07
1.46608e-07
1.46608e-07
1.46608e-07
1.46608e-07
1.46608e-07
1.46608e-07
1.46608e-07
1.46608e-07
1.46608e-07
1.46608e-07
1.46608e-07
1.46608e-07
1.46608e-07
1.46608e-07
1.46608e-07
1.46608e-07
1.46608e-07
1.46608e-07
1.46608e-07
1.46608e-07
1.46608e-07
1.46608e-07
1.46608e-07
1.46608e-07
1.46608e-07
1.46608e-07
1.46608e-07
1.46608e-07
1.46608e-07
1.46608e-07
1.46608e-07
1.46608e-07
1.46608e-07
1.46608e-07
1.46608e-07
1.46608e-07
1.46608e-07
1.46608e-07
1.46608e-07
1.46608e-07
1.46608e-07
1.46608e-07
1.46608e-07
1.46608e-07
1.46608e-07
1.46608e-07
1.46608e-07
1.46608e-07
1.46608e-07
1.46608e-07
1.46608e-07
1.46608e-07
1.46608e-07
1.46608e-07
1.46608e-07
1.46608e-07
1.46608e-07
1.46608e-07
1.46608e-07
1.46608e-07
1.46608e-07
1.46608e-07
1.46608e-07
1.46608e-07
1.46608e-07
1.46608e-07
1.46608e-07
1.46608e-07
1.46608e-07
1.46608e-07
1.46608e-07
1.46608e-07
1.46608e-07
1.46608e-07
1.46608e-07
1.46608e-07
1.46608e-07
1.46608e-07
1.46608e-07
1.46608e-07
1.46608e-07
1.46608e-07
1.46608e-07
1.46608e-07
1.46608e-07
1.46608e-07
1.46608e-07
1.46608e-07
1.46608e-07
1.46608e-07
1.46608e-07
1.46608e-07
1.46608e-07
1.46608e-07
1.46608e-07
1.46608e-07
1.46608e-07
1.46608e-07
1.46608e-07
1.46608e-07
1.46608e-07
1.46608e-07
1.46608e-07
1.46608e-07
1.46608e-07
1.46608e-07
1.46608e-07
1.46608e-07
1.46608e-07
1.46608e-07
1.46608e-07
1.46608e-07
1.46608e-07
1.46608e-07
1.46608e-07
1.46608e-07
1.46608e-07
1.46608e-07
1.46608e-07
1.46608e-07
1.46608e-07
1.46608e-07
1.46608e-07
1.46608e-07
1.46608e-07
1.46608e-07
1.46608e-07
1.46608e-07
1.46608e-07
1.46608e-07
1.46608e-07
1.46608e-07
1.46608e-07
1.46608e-07
1.46608e-07
1.46608e-07
1.46608e-07
1.46608e-07
1.46608e-07
1.46608e-07
1.46608e-07
1.46608e-07
1.46608e-07
1.46608e-07
1.46608e-07
1.46608e-07
1.46608e-07
1.46608e-07
1.46608e-07
1.46608e-07
1.46608e-07
1.46608e-07
1.46608e-07
1.46608e-07
1.46608e-07
1.46608e-07
1.46608e-07
1.46608e-07
1.46608e-07
1.46608e-07
1.46608e-07
1.46608e-07
1.46608e-07
1.46608e-07
1.46608e-07
1.46608e-07
1.46608e-07
1.46608e-07
1.46608e-07
1.46608e-07
1.46608e-07
1.46608e-07
1.46608e-07
1.46608e-07
1.46608e-07
1.46608e-07
1.46608e-07
1.46608e-07
1.46608e-07
1.46608e-07
1.46608e-07
1.46608e-07
1.46608e-07
1.46608e-07
1.46608e-07
1.46608e-07
1.46608e-07
1.46608e-07
1.46608e-07
1.46608e-07
1.46608e-07
1.46608e-07
1.46608e-07
1.46608e-07
1.46608e-07
1.46608e-07
1.46608e-07
1.46608e-07
1.46608e-07
1.46608e-07
1.46608e-07
1.46608e-07
1.46608e-07
1.46608e-07
1.46608e-07
1.46608e-07
1.46608e-07
1.46608e-07
1.46608e-07
1.46608e-07
1.46608e-07
1.46608e-07
1.46608e-07
1.46608e-07
1.46608e-07
1.46608e-07
1.46608e-07
1.46608e-07
1.46608e-07
1.46608e-07
1.46608e-07
1.46608e-07
1.46608e-07
1.46608e-07
1.46608e-07
1.46608e-07
1.46608e-07
1.46608e-07
1.46608e-07
1.46608e-07
1.46608e-07
1.46608e-07
1.46608e-07
1.46608e-07
1.46608e-07
1.46608e-07
1.46608e-07
1.46608e-07
1.46608e-07
1.46608e-07

VECTORS velocity float
0.000477842 -0.00426882 -0.0100146
0.00214927 -0.00026144 -0.000216767
0.0175209 0.00329244 -0.0161803
-0.000858846 0.0296078 0.0127454
0.00221254 0.00977312 0.01061
0.00706946 0.00181474 -0.00222589
0.0167232 -0.0142857 -0.0122262
0.00309883 0.0019165 -0.00305987
0.00197273 -0.00449077 0.0143834
0.00040452 -0.000485901 0.000309923
-0.0236941 -0.302371 0.378197
0.000325094 -0.0185652 -0.0162899
-0.00026846 0.00207524 0.00332611
0.00298422 -0.0191881 -0.00806209
-0.000603165 0.0121517 -0.00609918
0.000215046 0.0150771 0.00945136
-0.000284852 0.000871724 0.000303366
-0.00016743 -0.0018998 -0.00615451
0.00495378 0.0166959 -0.00150777
0.00398474 -0.000469003 -0.000534668
-0.00637402 -0.000513529 0.0016709
0.00524785 0.00211921 -0.00280938
0.00125863 -0.000664463 0.00282357
0.0353099 -0.00902537 0.0112567
0.00244579 0.0031784 0.00061687
0.00346424 -0.00037669 0.000528536
-0.00456262 -0.0226702 -0.00167976
0.000933567 0.00593962 -0.00848031
0.0129201 0.00233586 -0.00357791
-0.00595418 0.00789573 -0.000564794
0.00464246 0.00464774 -0.00307166
0.0023245 -0.00655637 0.0128237
0.00151706 0.0202104 -0.00348296
0.00201247 0.000122251 0.000676987
6.41805e-05 0.000211927 -0.000305126
0.00384395 -0.000341538 0.00211582
-0.000557565 0.000742385 0.00115719
0.000132586 0.000343964 -0.000114495
0.00221863 0.00926493 -0.00337785
0.000263074 0.000921239 0.000893805
0.0179176 -0.00418293 -0.0224907
0.002278 0.00131432 -0.000658705
6.48785e-05 0.00944221 -0.00809928
-0.0263835 0.0094683 0.013557
0.0110842 -0.00941083 -0.0148421
-0.000359781 -0.000598439 -0.000909734
0.00216673 0.00911677 0.00552458
0.00451177 0.0033098 0.00184347
0.00368422 0.00618088 -0.0117244
6.64356e-05 -0.000929101 0.000165316
-0.00945847 0.00590563 0.00476636
0.00168238 -0.0011398 -0.00484902
0.00288009 -0.00280899 0.00238941
0.000230009 0.0108092 0.00371285
0.00140483 -0.00256984 -0.000626744
0.00102537 0.000372587 0.000875527
0.0139136 0.00138952 -0.0146364
-0.00138028 -0.00110953 -0.00109323
0.00968066 -0.000522966 -0.000598744
-0.000717044 -0.000448464 -0.00128467
0.0162633 0.00526386 -0.0108768
-0.000312986 -0.00557264 -0.00671584
0.0015407 -0.000698102 0.00363727
-0.0211441 -0.00027434 0.00753971
0.0325663 0.0289823 0.0424199
0.00148734 0.00484598 0.00101392
-0.000705293 -0.00348607 4.18723e-06
-0.00536998 0.00222039 -0.0114545
0.00655568 -0.00806677 0.000693232
0.000662586 0.000395289 -0.00149721
3.61662e-05 0.0220266 0.00689437
-0.00164949 -0.00257539 -0.00241916
0.00583026 -0.00284167 -0.00271755
0.000139029 0.000368218 -0.000241775
0.0127574 0.00180378 -0.00381833
-0.0115113 -0.0152524 -0.00676557
-0.000624626 -0.00315512 -0.00696714
-0.00196514 -0.00189397 0.0005354
-0.00497222 -0.00620279 -0.00502526
0.0132029 0.00560071 0.00169919
-0.00147401 0.02872 -0.00444736
0.0304811 0.00927233 0.0631487
0.0171773 -0.0386538 0.00657484
0.0178761 0.00283149 0.00653544
0.0036836 -0.00395509 0.010008
-0.000231561 0.00176509 -0.00281501
0.000490267 -0.00171042 -0.00606079
0.00271757 0.0116765 0.0132407
4.29157e-05 4.69764e-05 4.29733e-05
-0.000104246 0.000198654 0.000628374
0.000768066 0.00129297 0.000667323
-0.000467199 0.00133384 -0.000469633
0.00109243 0.0157527 -0.00138472
0.000995691 0.000397781 -0.00120464
-0.000593963 -0.000348377 0.000485981
-0.00413785 -0.0112407 0.0138371
0.00505922 0.00308039 -0.00185873
0.000133412 0.000111936 -5.60377e-05
0.0021639 0.00601025 0.00358345
0.00526974 0.00486995 -0.00076087
-0.00178132 -0.0025633 -0.00120598
8.54473e-05 -0.0216208 -0.0103818
-0.00136732 -0.00183587 0.000532127
0.0146603 0.0103793 -3.12036e-05
0.0287767 0.0150379 -0.0306451
0.0017748 0.00172779 0.00750247
0.000550237 -0.017907 -0.0164218
-0.00556457 0.0137925 -0.0207352
0.000577956 0.0244038 0.00113444
0.00498669 0.00590958 0.00283101
0.00312029 0.0114522 0.00345765
0.016664 0.00562562 0.00158497
-0.0286597 0.174632 1.4778
-0.0649681 -0.0840921 -0.117164
0.00515319 0.00118418 0.000215347
0.000267441 0.000840129 -0.000104573
0.00244759 -0.00133943 0.00330386
0.0056289 -0.00256126 -3.62012e-05
0.00280465 -0.00406168 -0.00268199
0.00156967 0.00758348 0.00165701
0.00324399 -0.0105015 0.0114792
0.0114559 0.00747 -0.00305045
0.0056548 -5.33192e-05 0.00466992
-0.000572363 0.000683472 0.018417
0.0020368 -0.0048679 -0.00812265
-0.0008503 0.000431778 0.00035448
0.0020059 0.00461375 -0.0113716
0.000629374 -0.000175254 -0.000153542
-0.00183205 -0.00186698 -0.00764135
0.000741203 0.000136448 -0.000229607
0.00126092 -0.00139738 -0.000724327
0.000489438 0.000979104 1.69818e-05
0.0152093 -0.00383829 0.0273597
0.00378433 0.00243718 0.000448342
-0.0569973 -0.0152778 -0.0574228
-0.109003 -0.0635821 0.0576618
0.000349776 0.000826234 -0.00011817
-0.00114936 -0.00330135 -0.0024591
0.000540377 -0.000145759 8.46165e-05
-0.000318345 -0.000739196 -0.00336447
-0.000110319 0.00046783 -0.000289256
-0.00161611 0.000703296 -0.000809606
0.00294707 0.00606024 0.00880024
-0.00113968 0.00180782 -0.000443762
0.0339385 0.00631769 -0.00192441
7.44285e-05 0.00657801 -0.0134984
0.00290656 0.00406036 0.000715616
0.00216651 -1.61694e-05 -0.001518
4.7899e-06 0.0110868 -0.000448763
0.00394559 -0.0018651 -0.00371105
0.00246436 0.00178025 0.000109228
-0.00644257 -0.0462508 -0.0332831
-0.000100872 -0.000728759 -0.000989546
-0.00459108 0.00772719 0.00562052
0.00304831 0.00218236 -0.000161797
5.09795e-05 -0.0226974 0.0137275
0.00445088 -0.0049288 -0.00686009
-0.00454759 0.00138644 -0.00102782
0.00442086 0.00458497 0.00109682
0.00420523 0.0126004 0.00133895
0.00443248 -1.06808e-05 -0.00667122
0.00402041 0.00203359 0.00582081
0.00820114 0.0235073 0.0406244
0.000458777 -0.0240221 0.00320777
-0.00510825 -0.0094136 -0.0166484
0.0011985 -0.00332478 -0.00101082
-8.51588e-06 -0.00287166 0.000791536
0.00357467 0.00764948 0.00783482
-0.00116673 0.00131839 -0.0020357
0.000138483 0.000283607 0.000139241
0.00372679 0.0126819 0.0040371
0.00371984 0.00103134 0.0060224
6.48088e-05 -0.000513422 -0.000475926
-0.00172969 0.00151476 -0.00492493
0.00361105 0.00338269 0.000212008
0.00102249 0.00452814 -0.0079524
0.000698388 0.00721229 0.00649584
0.00353042 -0.000923791 -0.00103454
-0.000520984 0.00111926 -0.00082996
0.00118055 -0.00199213 -0.00440444
0.0102562 0.0110571 0.000883246
-0.00218369 -0.00323079 -0.00141338
0.00624528 0.0270253 -0.017897
0.000716368 -0.00185657 -0.0223808
0.0016478 -0.00100211 -0.0195282
-0.0505376 0.011219 0.00298784
0.00111231 -0.0189873 0.0128871
0.00289333 -0.00107169 0.00199881
0.00355734 0.0117573 0.00167743
0.0026148 0.0039639 0.0180557
0.00487104 0.0099935 -0.00636039
-0.0013216 0.000737192 -0.00151742
-0.0417292 -4.75121e-05 -0.0655564
0.00841613 -0.0026961 -0.0083055
0.0057907 0.000570221 0.000861259
0.0137586 -0.0128767 -0.0327441
4.45661e-06 -0.000760259 -0.000212375
0.00851874 0.00119248 0.00268128
0.00684375 -0.00578593 -0.00658242
-0.0207977 -0.0336179 -0.107509
0.0017933 0.00281277 -0.00175973
0.00173377 0.0113106 0.0107965
-0.000631906 -0.00334514 -0.00609429
-0.0095114 -0.0134854 -0.033189
0.00113283 -0.0121535 -0.0194603
-0.000264578 -6.69114e-05 -5.09965e-05
0.000194718 0.0005523 0.000814667
0.00320369 0.00655743 0.000795057
0.000269327 -0.00265955 -0.00684982
0.0120577 0.0105269 0.0144137
0.00306727 4.31669e-05 -0.00107453
-0.00338801 -0.00247064 -0.00612597
-0.000780176 0.00101175 0.00035745
0.000107092 0.000992737 0.00175417
0.00984988 -0.00224474 0.00172827
0.0177146 0.00179119 -0.00190875
0.000351701 0.000521719 0.00170581
-0.00153773 -0.00211021 -0.00461955
0.0161909 -0.0101756 0.00905337
0.00094918 0.0119335 0.00792365
0.000382761 0.00999452 0.00932367
0.00172895 0.000155335 -0.00150595
0.0187695 0.00306011 -0.000550298
0.146418 0.0397938 -1.16086
0.00124231 -0.000528396 -0.000963158
0.00727693 0.0134304 0.00114755
0.0045455 0.00029683 0.00112214
-0.000916585 0.00313867 -0.00133433
0.00229324 -0.00432158 -0.00789698
0.00208381 0.0100956 -0.0122612
0.000746549 0.000596693 -0.000215585
0.00135865 -0.00201654 0.0064216
0.000998427 -0.00113902 0.00297185
0.00121517 0.00183621 -0.00339869
0.00124693 0.00612728 -0.00591034
0.0122635 -0.0524319 0.0247212
0.000536027 0.00125724 0.0019517
0.00114485 0.004623 0.0198133
0.00347958 -0.00534607 0.00577714
0.0274158 -0.142937 0.190514
0.000277651 -8.78818e-05 0.000410861
0.00152507 0.00180071 -0.00284669
0.00519928 0.00277113 0.00118409
0.00964692 0.00820829 -0.0196158
0.0256651 -0.000238869 -0.0146762
0.000473516 0.00141115 -0.00197042
-0.00603439 -0.0206516 -0.00200489
0.0187081 0.0144385 0.0123833
0.0359061 -0.0036528 0.0473362
0.0 -0.0 -0.01
0.0 -0.0 -0.01
-0.00195869 0.0187016 0.00431312
0.0 -0.0 -0.01
0.0 -0.0 -0.01
0.0 -0.0 -0.01
0.0 -0.0 -0.01
0.0 -0.0 -0.01
0.0 -0.0 -0.01
0.00148012 0.00507769 0.00464692
0.0 -0.0 -0.01
0.0 -0.0 -0.01
0.0 0.0 -0.170693
0.0 -0.0 -0.01
0.0 -0.0 -0.01
0.0 -0.0 -0.01
0.0 -0.0 -0.01
0.0 -0.0 -0.01
0.0 -0.0 -0.01
0.0 -0.0 -0.01
0.0 -0.0 -0.01
0.0 -0.0 -0.01
0.0 -0.0 -0.01
0.0 -0.0 -0.01
0.0220769 -0.00266787 0.0158674
0.0 -0.0 -0.01
0.0 -0.0 -0.01
0.0 -0.0 -0.01
-0.000813407 0.0266955 0.00297855
0.0 -0.0 -0.01
0.0 -0.0 -0.01
0.0 -0.0 -0.01
0.0 -0.0 -0.01
0.0 -0.0 -0.01
-0.000898698 0.016865 0.00554009
0.00252372 0.000497761 0.012501
0.0 -0.0 -0.01
0.0 -0.0 -0.01
-0.00302468 -0.000428413 -0.00283419
0.00357125 -0.0185502 0.0252766
0.0 -0.0 -0.01
0.00465544 0.00199643 0.00245777
0.00548315 0.0120049 -0.0246625
0.0 -0.0 -0.01
0.0 -0.0 -0.01
0.0 -0.0 -0.01
0.0034327 0.00171692 0.000410254
0.00121075 -0.0749281 -0.0200111
0.0 -0.0 -0.01
0.0 -0.0 -0.01
0.0 -0.0 -0.01
0.0 -0.0 -0.01
0.0 -0.0 -0.01
0.0 -0.0 -0.01
0.0 -0.0 -0.01
0.00155832 0.00896058 -0.0102509
0.0 -0.0 -0.01
0.015694 -0.00424175 0.00801895
0.0 -0.0 -0.01
0.0 -0.0 -0.01