ITEM: TIMESTEP
32200000
ITEM: NUMBER OF ATOMS
271
ITEM: BOX BOUNDS ff ff ff
-0.02 0.43
-0.02 0.06
-0.02 0.07
ITEM: ATOMS id type x y z vx vy vz fx fy fz radius mass 
1 1 0.200265 0.0155541 0.00864414 0.00570244 -0.000318537 -1.41927e-05 -1.78831e-10 -1.60718e-10 4.1267e-10 5e-05 1.46608e-10 
2 1 0.201151 0.0179893 0.00695903 0.00611912 8.54e-05 -0.000210316 -3.78583e-10 -1.63837e-10 -1.04908e-09 5e-05 1.46608e-10 
3 1 0.195173 0.017689 0.00707054 0.00591011 0.000352919 0.000115622 -1.92519e-10 6.63828e-11 -2.57229e-11 5e-05 1.46608e-10 
4 1 0.201185 0.0177575 0.00708217 0.00628107 0.000180715 0.000288037 -4.39752e-10 6.0082e-10 -3.90622e-10 5e-05 1.46608e-10 
5 1 0.200245 0.0155197 0.00873568 0.00578226 -0.000326852 -6.70834e-06 -5.37469e-11 -2.0594e-10 5.55424e-10 5e-05 1.46608e-10 
6 1 0.2066 0.0168165 0.00757396 0.00579713 -0.000629889 0.000201229 1.25111e-10 3.83478e-11 -2.49264e-11 5e-05 1.46608e-10 
7 1 0.200336 0.0157115 0.00828534 0.00561834 -0.000184004 6.04241e-05 1.01459e-10 2.99236e-10 2.13558e-11 5e-05 1.46608e-10 
8 1 0.200223 0.0154853 0.00882716 0.00584673 -0.000329632 -5.67919e-06 -5.92864e-11 -2.95311e-10 7.23259e-10 5e-05 1.46608e-10 
9 1 0.20672 0.0172721 0.00720254 0.00613784 -0.0006411 0.000340419 -2.04982e-11 -2.2219e-10 3.31861e-10 5e-05 1.46608e-10 
10 1 0.200804 0.0176387 0.00712798 0.00621258 -2.35645e-05 0.000403573 1.29221e-10 -5.95161e-11 2.33126e-11 5e-05 1.46608e-10 
11 1 0.200941 0.0178382 0.00701954 0.00626124 -1.74314e-05 0.000405661 2.48561e-10 1.0241e-11 -6.16677e-11 5e-05 1.46608e-10 
12 1 0.194314 0.0156732 0.00845513 0.00565478 -4.04483e-05 -0.000145834 -1.12543e-10 -1.10369e-10 1.23725e-10 5e-05 1.46608e-10 
13 1 0.200159 0.0153823 0.00910134 0.00593417 -0.000327889 -2.08989e-05 -1.05362e-10 -3.66172e-10 9.45491e-10 5e-05 1.46608e-10 
14 1 0.194972 0.0184103 0.00689362 0.00585415 -4.07348e-06 -0.000116637 -1.60067e-10 1.16317e-10 -7.74831e-11 5e-05 1.46608e-10 
15 1 0.201165 0.0176723 0.00713084 0.00632732 4.80011e-05 0.000368623 4.83475e-10 5.69559e-11 -1.49528e-11 5e-05 1.46608e-10 
16 1 0.195068 0.0184424 0.00688976 0.00591661 -1.28001e-05 -0.00012345 2.61504e-10 -5.28975e-10 1.78209e-10 5e-05 1.46608e-10 
17 1 0.201205 0.0178425 0.00703353 0.00624171 0.000374996 0.000168376 -5.45583e-10 5.68682e-10 -3.84548e-10 5e-05 1.46608e-10 
19 1 0.200202 0.015451 0.00891851 0.00589626 -0.000330883 -7.85194e-06 -9.87066e-11 -3.24206e-10 8.15555e-10 5e-05 1.46608e-10 
21 1 0.200762 0.0174689 0.00722491 0.00615827 -2.25074e-06 0.000389487 -4.08013e-12 8.65782e-11 -8.48505e-11 5e-05 1.46608e-10 
22 1 0.200974 0.0176126 0.00715395 0.00628243 4.05262e-05 0.000369912 3.39819e-11 -2.71497e-10 1.75749e-10 5e-05 1.46608e-10 
23 1 0.19454 0.0161903 0.00795237 0.00563451 -6.16638e-05 -0.000255649 -8.59182e-11 -1.35973e-10 1.27116e-10 5e-05 1.46608e-10 
24 1 0.206802 0.0176381 0.00714354 0.0060579 -0.000997092 -0.000998316 1.2927e-10 -5.44068e-11 6.76036e-11 5e-05 1.46608e-10 
25 1 0.200394 0.015951 0.00811646 0.00557128 -2.11714e-05 0.000235591 3.21232e-10 2.42965e-10 -3.15343e-10 5e-05 1.46608e-10 
26 1 0.20668 0.0171197 0.00732549 0.00601517 -0.000674766 0.000217519 1.13744e-10 4.34991e-10 -4.03023e-10 5e-05 1.46608e-10 
27 1 0.195288 0.0178097 0.00701914 0.00596911 0.000258602 0.000162223 -1.95544e-10 -7.54536e-11 2.37011e-12 5e-05 1.46608e-10 
28 1 0.20111 0.0178127 0.00704509 0.00628824 0.000192777 0.000280681 -4.17934e-10 4.87489e-10 -3.33837e-10 5e-05 1.46608e-10 
29 1 0.200362 0.0157848 0.00822253 0.00572911 -4.50063e-05 0.000265672 8.323e-12 4.2225e-10 -2.52591e-11 5e-05 1.46608e-10 
30 1 0.200865 0.0178936 0.00698228 0.00562504 4.05469e-05 0.000335725 3.13975e-10 -2.45201e-10 4.57951e-11 5e-05 1.46608e-10 
31 1 0.200416 0.0160342 0.00806573 0.0054754 -2.44729e-05 0.000175301 2.48918e-10 2.48553e-10 -3.29616e-10 5e-05 1.46608e-10 
32 1 0.200847 0.0171029 0.00744499 0.00600385 -7.2081e-05 0.000418265 -1.99327e-10 1.01851e-10 -7.28479e-11 5e-05 1.46608e-10 
33 1 0.20662 0.0168923 0.00751184 0.00584486 -0.000650622 0.000214998 1.0833e-10 1.94695e-12 5.02854e-11 5e-05 1.46608e-10 
34 1 0.200315 0.0156588 0.00836783 0.00558619 -0.000301481 -2.47675e-05 -1.08869e-12 6.21942e-11 1.08509e-11 5e-05 1.46608e-10 
35 1 0.201005 0.0173868 0.00728836 0.00620503 -2.80875e-05 0.000405227 -5.27923e-11 1.44026e-10 -8.81548e-11 5e-05 1.46608e-10 
36 1 0.206782 0.017541 0.00713094 0.0061015 -0.00100777 -0.000998628 1.22159e-11 -2.62707e-10 4.72784e-11 5e-05 1.46608e-10 
37 1 0.201059 0.0184029 0.00687001 0.00582596 -0.00013195 6.94473e-06 -7.73904e-10 -5.21293e-11 2.62063e-10 5e-05 1.46608e-10 
38 1 0.20112 0.0186965 0.00686664 0.00558418 -0.000164093 0.00020671 3.65156e-10 1.64242e-10 5.17077e-11 5e-05 1.46608e-10 
39 1 0.206822 0.0177352 0.00715614 0.00600376 -0.000991397 -0.000992109 -9.26373e-11 -9.36591e-11 4.49437e-11 5e-05 1.46608e-10 
41 1 0.201225 0.0179276 0.00698491 0.00617498 0.000380496 0.000158756 -6.31673e-10 5.42196e-10 -4.69268e-10 5e-05 1.46608e-10 
42 1 0.321436 0.0173475 0.00552525 4.55756e-16 2.25562e-15 8.4636e-14 -5.35276e-23 1.47665e-23 -2.06795e-25 5e-05 1.46608e-10 
44 1 0.20113 0.0178987 0.00699588 0.00619536 0.000242084 0.000238886 -5.54269e-10 4.61967e-10 -6.03119e-10 5e-05 1.46608e-10 
45 1 0.20664 0.0169681 0.00744972 0.00587682 -0.000660301 0.000222472 6.05703e-11 1.94064e-12 -7.94763e-11 5e-05 1.46608e-10 
47 1 0.200284 0.0155891 0.00855238 0.00564353 -0.000314536 -2.03832e-05 -5.44553e-11 -1.09847e-10 2.84994e-10 5e-05 1.46608e-10 
48 1 0.201099 0.0185972 0.00685775 0.00570615 -0.000101977 0.000229559 8.66392e-10 -7.07235e-10 -5.04269e-10 5e-05 1.46608e-10 
50 1 0.200453 0.016202 0.00796401 0.00548076 1.67275e-05 0.000212684 2.21885e-10 2.93667e-10 -1.72974e-10 5e-05 1.46608e-10 
51 1 0.200432 0.0161212 0.00801919 0.00547002 -5.14234e-06 0.000194536 1.45787e-10 3.02269e-10 -2.55275e-10 5e-05 1.46608e-10 
52 1 0.194226 0.0153759 0.00870747 0.00576337 0.000135748 3.64807e-05 1.11443e-10 1.93214e-10 -9.11774e-11 5e-05 1.46608e-10 
53 1 0.206763 0.0174435 0.00711921 0.00618197 -0.000996223 -0.00132523 -6.1774e-11 -2.91297e-10 -4.69528e-10 5e-05 1.46608e-10 
54 1 0.200944 0.0182752 0.0068933 0.00577804 -0.000113734 -6.04214e-05 6.67436e-12 -5.02255e-10 3.75845e-10 5e-05 1.46608e-10 
55 1 0.194165 0.0151902 0.00893215 0.00575592 -8.02551e-05 -0.000117674 1.3685e-09 2.64957e-11 -3.68629e-10 5e-05 1.46608e-10 
56 1 0.201079 0.0184994 0.00685279 0.00582525 -0.00012089 2.60067e-05 -4.82322e-10 -5.07449e-11 -6.37266e-10 5e-05 1.46608e-10 
57 1 0.20666 0.0170439 0.0073876 0.00598308 -0.000659811 0.000224665 -3.72249e-10 2.12648e-10 -4.48355e-10 5e-05 1.46608e-10 
59 1 0.200952 0.0175275 0.00720254 0.00621359 -3.27632e-05 0.000409294 4.19462e-10 -3.8597e-10 3.03122e-10 5e-05 1.46608e-10 
61 1 0.20073 0.0169886 0.00750474 0.00596228 -2.92065e-05 0.000388349 1.0255e-10 1.56067e-10 -8.3925e-11 5e-05 1.46608e-10 
62 1 0.201345 0.0184976 0.0068594 0.00562002 0.000466324 0.000245475 -5.60126e-10 -1.29262e-10 -3.31872e-11 5e-05 1.46608e-10 
63 1 0.201144 0.0175871 0.00717957 0.00653055 0.0001386 0.000327557 -8.97603e-11 1.64336e-11 -1.86929e-11 5e-05 1.46608e-10 
64 1 0.206842 0.0178324 0.00716874 0.00596043 -0.000982237 -0.000986013 2.11832e-11 -1.79107e-10 -4.90802e-11 5e-05 1.46608e-10 
65 1 0.194483 0.0163097 0.00784235 0.00555208 -0.000153435 -0.000164798 2.16246e-12 3.54614e-12 -3.02146e-11 5e-05 1.46608e-10 
66 1 0.194147 0.0151568 0.00902463 0.00571883 -9.51429e-05 -0.000174624 3.83972e-10 1.65195e-10 -4.16879e-10 5e-05 1.46608e-10 
67 1 0.201095 0.0181464 0.00691395 0.00579071 -4.91037e-05 -4.57896e-05 7.34463e-10 3.28239e-11 1.01097e-10 5e-05 1.46608e-10 
68 1 0.200889 0.0172726 0.00734804 0.00604523 -8.97134e-05 0.000431719 -8.19281e-12 1.30635e-11 -8.92768e-12 5e-05 1.46608e-10 
69 1 0.200964 0.0183717 0.00687624 0.00579734 -0.000117918 -2.43105e-05 -3.12155e-10 -4.8407e-10 4.90853e-10 5e-05 1.46608e-10 
70 1 0.2067 0.0171955 0.00726338 0.00604115 -0.00067842 0.000246378 2.35025e-10 -1.23649e-10 -1.15595e-11 5e-05 1.46608e-10 
71 1 0.194205 0.0153013 0.00877079 0.00581917 0.00013514 3.19339e-05 -2.1487e-11 1.88883e-10 -2.05923e-10 5e-05 1.46608e-10 
72 1 0.200999 0.0181133 0.0069209 0.00576452 -9.17113e-05 -4.97106e-05 4.15915e-10 -1.13538e-10 -5.80221e-12 5e-05 1.46608e-10 
73 1 0.201024 0.0186636 0.00686021 0.00569158 -0.000117855 0.000246565 1.01535e-09 -2.06731e-10 4.82546e-10 5e-05 1.46608e-10 
74 1 0.201155 0.0184367 0.0068677 0.00577696 -0.000159128 -0.000210296 -4.91124e-10 -5.18018e-11 -2.02857e-10 5e-05 1.46608e-10 
76 1 0.195197 0.0182124 0.00690014 0.00597191 3.3769e-05 -0.000121909 -1.29237e-10 -1.80037e-10 -3.15467e-10 5e-05 1.46608e-10 
77 1 0.201027 0.0174718 0.00723985 0.00621058 -2.91613e-05 0.000405813 8.71877e-10 -5.57871e-10 3.69074e-10 5e-05 1.46608e-10 
78 1 0.194952 0.0183126 0.00689918 0.0058466 1.6124e-05 6.50544e-05 -6.95976e-11 -6.32513e-11 7.40546e-11 5e-05 1.46608e-10 
79 1 0.194267 0.015525 0.0085809 0.0058199 0.000102955 6.41279e-05 2.49468e-10 -1.35331e-10 -3.64817e-11 5e-05 1.46608e-10 
80 1 0.201191 0.0181775 0.00690737 0.00588981 6.35337e-05 -9.71351e-05 -4.02743e-10 -7.86153e-10 1.05007e-10 5e-05 1.46608e-10 
81 1 0.195088 0.0185403 0.00688376 0.00582436 -2.16898e-05 -0.000122003 -2.37566e-10 6.03224e-11 -6.38599e-12 5e-05 1.46608e-10 
82 1 0.194327 0.0157468 0.00838866 0.00555377 -0.000235965 -0.000365387 6.63726e-11 -2.49731e-10 8.77925e-11 5e-05 1.46608e-10 
83 1 0.195006 0.0181479 0.00690266 0.00594458 0.000182896 8.4778e-05 -1.63691e-10 -1.12315e-10 9.81106e-11 5e-05 1.46608e-10 
84 1 0.20674 0.0173487 0.00714125 0.00617842 -0.000616447 0.000378297 5.30158e-10 -4.21772e-11 1.92219e-10 5e-05 1.46608e-10 
85 1 0.195193 0.0177789 0.00702914 0.00586517 0.00021904 0.000174338 -1.70509e-10 -1.08278e-10 7.52019e-11 5e-05 1.46608e-10 
86 1 0.201245 0.018015 0.00693509 0.00611597 0.000169506 -0.000110834 -4.73776e-10 2.86624e-10 -2.81421e-11 5e-05 1.46608e-10 
87 1 0.201197 0.0186322 0.00686446 0.00556326 -0.000168547 0.000194437 5.2791e-10 5.72721e-10 4.90822e-10 5e-05 1.46608e-10 
88 1 0.200614 0.0168748 0.00756416 0.00591597 1.23811e-05 0.000367009 1.79821e-10 1.40935e-10 -3.21384e-11 5e-05 1.46608e-10 
89 1 0.201176 0.0185343 0.00686593 0.00558845 -0.000158702 -0.000262928 7.87356e-10 6.13365e-11 1.95312e-09 5e-05 1.46608e-10 
90 1 0.201036 0.0178685 0.00700764 0.00626239 8.58564e-06 0.000409459 3.75789e-10 -3.92906e-10 3.22831e-11 5e-05 1.46608e-10 
91 1 0.195232 0.017958 0.00694657 0.00578064 0.000314073 0.000127866 -3.17958e-10 1.25064e-10 -6.67789e-11 5e-05 1.46608e-10 
92 1 0.201135 0.0183394 0.00687977 0.00582279 -0.00011133 -6.94186e-05 -4.05989e-10 1.18406e-11 2.37303e-10 5e-05 1.46608e-10 
93 1 0.200492 0.0163694 0.00786299 0.00549553 2.58412e-05 0.000207766 5.15996e-11 2.89154e-10 -1.74562e-10 5e-05 1.46608e-10 
94 1 0.200921 0.0177529 0.00706828 0.00630602 -2.52246e-05 0.000411959 -1.72279e-10 -7.79052e-11 1.95442e-11 5e-05 1.46608e-10 
95 1 0.200878 0.017583 0.00716531 0.00621173 -3.08453e-05 0.000408525 1.83163e-10 -2.40778e-10 9.81141e-11 5e-05 1.46608e-10 
96 1 0.200511 0.0164542 0.00781332 0.00556907 -1.58196e-05 0.000154892 3.15978e-10 2.67641e-10 -9.46284e-11 5e-05 1.46608e-10 
97 1 0.194599 0.0164028 0.00774772 0.00561458 -0.000203025 -0.000122797 -3.30329e-10 -1.85933e-10 -8.4998e-11 5e-05 1.46608e-10 
98 1 0.201016 0.0177829 0.00705664 0.00632422 4.54262e-05 0.000368155 -1.54016e-10 -9.95917e-11 1.17538e-10 5e-05 1.46608e-10 
99 1 0.194695 0.0167984 0.00746746 0.0058337 2.78638e-05 0.000266414 1.7331e-10 -7.68501e-11 2.77556e-12 5e-05 1.46608e-10 
100 1 0.20125 0.0184668 0.00685614 0.00577634 8.88062e-05 -7.31227e-05 -7.91399e-10 1.12997e-10 -1.98575e-10 5e-05 1.46608e-10 
101 1 0.194287 0.0155998 0.00851752 0.00580218 5.63679e-05 2.23746e-05 3.3813e-11 -7.06689e-11 1.28931e-10 5e-05 1.46608e-10 
102 1 0.0643568 0.0187248 0.00531097 4.07825e-15 1.05838e-14 8.2959e-14 -6.24366e-22 -4.39957e-22 8.16841e-23 5e-05 1.46608e-10 
103 1 0.24257 0.0191927 0.00520306 -7.91558e-23 -1.27651e-22 1.23839e-22 0 0 0 5e-05 1.46608e-10 
104 1 0.194909 0.0176862 0.00705929 0.00584443 0.00023429 0.000171233 -2.92784e-10 2.91843e-10 -1.03339e-10 5e-05 1.46608e-10 
105 1 0.195247 0.0176299 0.00710189 0.0060505 0.000489996 5.68731e-05 -3.56434e-10 4.89717e-11 -3.63444e-11 5e-05 1.46608e-10 
106 1 0.195131 0.0175078 0.00715389 0.00589174 0.000264347 0.000156254 -6.67772e-10 4.98262e-10 -2.5987e-10 5e-05 1.46608e-10 
107 1 0.195109 0.0174188 0.00719482 0.00627383 2.92951e-05 0.000286206 -3.8091e-10 5.35615e-10 -2.49356e-10 5e-05 1.46608e-10 
108 1 0.200984 0.0184687 0.00686287 0.00585326 -0.000105856 8.08992e-05 -5.09147e-10 3.24349e-12 -4.63071e-10 5e-05 1.46608e-10 
109 1 0.201123 0.0175017 0.00722832 0.00636386 0.000163805 0.000302736 2.7899e-10 -8.66643e-11 6.35121e-11 5e-05 1.46608e-10 
110 1 0.200536 0.0165365 0.00776227 0.00576435 -1.84115e-05 0.000242057 2.44256e-10 2.94617e-10 -1.14173e-10 5e-05 1.46608e-10 
111 1 0.200857 0.0174981 0.00721378 0.00618219 -3.29725e-05 0.000407542 -2.80724e-10 -1.11889e-10 3.75365e-11 5e-05 1.46608e-10 
112 1 0.194966 0.0179569 0.00694152 0.00580913 7.5866e-05 -0.000136165 1.997e-09 -1.86742e-09 -3.89077e-10 5e-05 1.46608e-10 
113 1 0.194561 0.016604 0.00758382 0.00562982 7.14152e-05 0.000154976 4.46443e-11 9.35347e-11 2.8334e-10 5e-05 1.46608e-10 
114 1 0.194931 0.0182135 0.00690061 0.00584185 7.23562e-05 6.85827e-05 6.60499e-11 1.71443e-10 3.35926e-12 5e-05 1.46608e-10 
115 1 0.20109 0.0177274 0.00709385 0.00637064 8.69731e-05 0.000346361 1.50199e-10 3.10466e-10 -1.74089e-10 5e-05 1.46608e-10 
116 1 0.200924 0.0181787 0.00691039 0.00577225 -9.38637e-05 -5.06738e-05 1.95411e-10 -3.7842e-10 9.13165e-11 5e-05 1.46608e-10 
117 1 0.201064 0.0188588 0.00687756 0.00562541 -0.000129126 0.000208294 -1.77479e-10 -8.26819e-11 -5.36996e-11 5e-05 1.46608e-10 
118 1 0.19477 0.0174787 0.00715043 0.00626745 5.71338e-05 0.0002727 7.59617e-12 2.69219e-10 -8.17783e-11 5e-05 1.46608e-10 
119 1 0.201048 0.0175571 0.00719117 0.00631185 9.1598e-05 0.000341355 1.03751e-10 -2.55737e-10 1.5971e-10 5e-05 1.46608e-10 
120 1 0.200374 0.0158667 0.00816642 0.00565523 -3.58441e-05 0.000254288 1.08665e-10 3.50947e-10 -2.04025e-10 5e-05 1.46608e-10 
121 1 0.200305 0.0156232 0.00846072 0.00560762 -0.000307485 -2.42892e-05 -4.01024e-11 -3.04137e-11 1.31094e-10 5e-05 1.46608e-10 
122 1 0.200815 0.0173283 0.00731073 0.00610567 -3.00364e-05 0.000400408 1.83955e-10 2.0074e-10 -1.08316e-10 5e-05 1.46608e-10 
123 1 0.194726 0.0173012 0.00723199 0.00622227 4.13567e-05 0.000275721 1.5931e-10 1.71299e-10 -9.61692e-11 5e-05 1.46608e-10 
124 1 0.200836 0.0174132 0.00726226 0.00614504 -2.1048e-05 0.000397873 7.01553e-11 2.92531e-10 -1.58431e-10 5e-05 1.46608e-10 
125 1 0.20114 0.0187941 0.00687533 0.00559624 -0.00017196 0.000206035 8.27882e-12 5.65104e-10 3.22478e-11 5e-05 1.46608e-10 
126 1 0.200751 0.0170734 0.00745626 0.0059814 -3.22329e-05 0.000394867 -7.82093e-11 1.18311e-10 -1.16974e-10 5e-05 1.46608e-10 
127 1 0.195267 0.01772 0.00706042 0.00600693 0.000364659 0.000114117 -1.95059e-10 -1.02238e-10 2.54105e-11 5e-05 1.46608e-10 
128 1 0.200793 0.0172434 0.0073592 0.00607341 -3.41984e-05 0.000400778 -5.13432e-11 8.89657e-11 -5.14056e-11 5e-05 1.46608e-10 
129 1 0.20096 0.0179239 0.00697043 0.00563685 -1.02812e-05 0.000349573 -1.0584e-10 -4.90618e-11 -8.23476e-11 5e-05 1.46608e-10 
131 1 0.195152 0.0175989 0.00711201 0.00585243 0.000329213 0.000123317 3.36842e-10 -2.37495e-10 1.33941e-10 5e-05 1.46608e-10 
132 1 0.201055 0.017959 0.00696971 0.00609033 2.60264e-05 0.000354831 1.01648e-10 7.86487e-11 5.99931e-10 5e-05 1.46608e-10 
133 1 0.200825 0.0177235 0.00707953 0.00624394 -3.13227e-05 0.00041242 2.06474e-10 -3.40453e-11 4.43423e-11 5e-05 1.46608e-10 
134 1 0.200772 0.0171585 0.00740767 0.0060383 -3.10049e-05 0.000396927 -1.29424e-10 1.02186e-10 -6.73003e-11 5e-05 1.46608e-10 
135 1 0.20018 0.0154166 0.00900992 0.00592494 -0.00033052 -1.37603e-05 -1.04139e-10 -3.04116e-10 8.44219e-10 5e-05 1.46608e-10 
136 1 0.194992 0.018508 0.00688762 0.00585648 -9.93628e-05 -0.000119739 5.09444e-10 5.9803e-10 -7.7089e-11 5e-05 1.46608e-10 
137 1 0.20048 0.016285 0.00791518 0.00549726 4.20516e-05 0.000246955 -5.28117e-11 3.08588e-10 -2.21836e-10 5e-05 1.46608e-10 
138 1 0.200904 0.0180826 0.0069296 0.00574166 -6.30683e-05 2.72044e-05 1.23114e-10 -1.55572e-10 1.71288e-10 5e-05 1.46608e-10 
140 1 0.200995 0.0176976 0.00710537 0.00636582 1.71466e-05 0.000389797 -1.51577e-10 -2.38417e-10 1.28337e-10 5e-05 1.46608e-10 
141 1 0.194986 0.0180504 0.00691175 0.00562717 -5.2313e-05 -8.09617e-05 9.86091e-10 2.596e-11 1.5646e-10 5e-05 1.46608e-10 
142 1 0.194705 0.0172125 0.00727277 0.0062108 5.02663e-05 0.000271867 1.1373e-10 2.00132e-10 -5.78367e-11 5e-05 1.46608e-10 
143 1 0.194185 0.0152435 0.00885001 0.00576781 -3.27472e-05 -0.000115529 -5.48389e-11 -6.36255e-11 -6.21438e-10 5e-05 1.46608e-10 
144 1 0.194834 0.0177449 0.00702808 0.00578558 0.00014925 0.000203218 5.68038e-11 -1.11297e-10 -1.86133e-10 5e-05 1.46608e-10 
147 1 0.195048 0.0183447 0.00689592 0.00590653 -1.76518e-05 -0.000167222 -3.10127e-11 -1.60585e-10 -6.35951e-10 5e-05 1.46608e-10 
148 1 0.19479 0.0168279 0.00745807 0.00589792 -0.000113478 0.000336103 1.99383e-10 1.42192e-10 -6.05514e-11 5e-05 1.46608e-10 
149 1 0.200635 0.0169599 0.0075161 0.00596471 -3.29451e-06 0.000372378 1.19251e-10 1.49234e-10 2.68572e-11 5e-05 1.46608e-10 
150 1 0.0100679 0.0201683 0.00551526 8.38395e-15 1.24623e-15 -8.48744e-14 7.90991e-24 -1.34452e-22 -1.24077e-24 5e-05 1.46608e-10 
151 1 0.194662 0.017035 0.00735441 0.00615482 6.20061e-05 0.00026126 1.39021e-10 -1.41009e-10 9.87121e-11 5e-05 1.46608e-10 
153 1 0.195032 0.0187037 0.00687563 0.0056013 -0.000110793 -0.000112294 -2.02138e-11 2.09702e-10 4.40203e-12 5e-05 1.46608e-10 
154 1 0.194791 0.0175674 0.00710965 0.00629637 6.57649e-05 0.000268754 2.31611e-10 2.44656e-10 -6.64553e-11 5e-05 1.46608e-10 
155 1 0.194992 0.017301 0.00724474 0.00623389 8.73305e-05 0.000255467 -3.28928e-10 2.00876e-11 -8.39303e-12 5e-05 1.46608e-10 
156 1 0.194947 0.0178653 0.00697671 0.00567669 -4.76675e-05 0.000317913 8.78441e-11 -8.28669e-10 2.18517e-09 5e-05 1.46608e-10 
157 1 0.0219312 0.0187687 0.00551176 -3.83878e-14 8.16552e-14 2.95884e-13 -4.78705e-22 -5.3043e-23 -6.34861e-23 5e-05 1.46608e-10 
158 1 0.195177 0.0181144 0.00690532 0.00592915 9.57586e-05 6.29231e-05 -3.91248e-11 1.04759e-10 1.28759e-10 5e-05 1.46608e-10 
159 1 0.201271 0.0185655 0.006862 0.00543598 0.000252702 0.00023582 1.96484e-10 -2.70662e-10 -9.8776e-11 5e-05 1.46608e-10 
160 1 0.194813 0.0176561 0.00706888 0.00629538 5.19932e-05 0.000243005 -2.69908e-10 1.85542e-10 2.55189e-10 5e-05 1.46608e-10 
162 1 0.195107 0.0186382 0.00687777 0.00565707 -3.42919e-05 -0.000117239 7.15652e-12 3.52614e-10 -1.77512e-11 5e-05 1.46608e-10 
164 1 0.194653 0.0166208 0.00754909 0.00560481 9.45504e-05 0.000204747 -3.46745e-11 -2.94502e-10 2.26661e-10 5e-05 1.46608e-10 
165 1 0.195004 0.0177169 0.00704933 0.00579358 0.0002354 0.000167311 -2.92353e-10 8.43626e-11 1.56469e-11 5e-05 1.46608e-10 
166 1 0.201004 0.018566 0.00685147 0.00584237 -9.84625e-05 0.000211435 -1.22252e-09 -5.73702e-12 -8.45962e-10 5e-05 1.46608e-10 
168 1 0.194716 0.0168873 0.00742656 0.00597925 -6.75576e-06 0.000288457 2.96085e-10 -2.06029e-11 2.01008e-11 5e-05 1.46608e-10 
169 1 0.195163 0.0184745 0.00688592 0.00596976 8.62095e-05 -0.000139172 3.1094e-10 4.13191e-10 -7.22092e-11 5e-05 1.46608e-10 
170 1 0.195078 0.017658 0.00708064 0.00583303 0.000287246 0.00014234 -8.79386e-11 -2.33122e-10 9.33333e-11 5e-05 1.46608e-10 
171 1 0.200885 0.017988 0.00695538 0.00567249 -9.39865e-06 0.000188013 9.70426e-12 -2.18561e-10 -8.49225e-11 5e-05 1.46608e-10 
172 1 0.194983 0.017627 0.00709071 0.00588241 0.000268154 0.000152823 -6.64858e-10 2.77828e-10 -1.27687e-10 5e-05 1.46608e-10 
173 1 0.20117 0.0180811 0.00692446 0.00610099 1.6561e-05 -0.000352446 -6.36674e-11 -6.66809e-10 -6.59885e-10 5e-05 1.46608e-10 
174 1 0.195014 0.0173897 0.00720396 0.00629587 3.36856e-05 0.000283851 -5.04089e-10 2.215e-11 -3.38159e-11 5e-05 1.46608e-10 
175 1 0.188677 0.017117 0.00739935 0.00617268 0.000375497 2.35618e-05 1.99643e-10 8.17408e-12 -9.68946e-11 5e-05 1.46608e-10 
177 1 0.194832 0.0170057 0.00737625 0.00606899 -8.74767e-06 0.000292903 -1.4153e-10 -8.21745e-11 3.68069e-11 5e-05 1.46608e-10 
178 1 0.194758 0.017065 0.0073448 0.00615126 3.9053e-05 0.000274361 6.41057e-11 1.93039e-11 -1.47591e-11 5e-05 1.46608e-10 
179 1 0.194844 0.0174199 0.00718167 0.00625209 5.85174e-05 0.00026951 7.58322e-11 3.35722e-10 -1.56703e-10 5e-05 1.46608e-10 
181 1 0.195123 0.018279 0.0068989 0.00597339 7.53272e-05 -4.13346e-05 7.03697e-12 3.10428e-10 1.38944e-10 5e-05 1.46608e-10 
182 1 0.200846 0.0178084 0.00703106 0.0062657 -4.60731e-05 0.000421769 2.5829e-11 -1.01441e-11 -1.49081e-10 5e-05 1.46608e-10 
183 1 0.195057 0.0175675 0.00712227 0.0058783 0.000256386 0.000158539 -5.63922e-10 5.08861e-10 -2.97825e-10 5e-05 1.46608e-10 
184 1 0.200899 0.0176679 0.00711681 0.00625581 -4.23334e-06 0.000395557 2.13738e-10 -5.55718e-11 5.80763e-11 5e-05 1.46608e-10 
186 1 0.194641 0.0169462 0.0073952 0.00604022 8.34957e-05 0.000243697 1.31214e-10 -2.78773e-10 2.19376e-10 5e-05 1.46608e-10 
187 1 0.20074 0.0173841 0.00727338 0.00613093 -3.45105e-06 0.000385875 1.22207e-10 1.50756e-10 -6.42121e-11 5e-05 1.46608e-10 
188 1 0.200868 0.0171877 0.00739651 0.00604112 -7.29147e-05 0.000421303 -1.16689e-10 3.95552e-11 -3.34789e-11 5e-05 1.46608e-10 
189 1 0.201075 0.018051 0.00693627 0.00573293 1.69896e-05 0.000125987 5.37225e-10 1.70683e-10 5.69794e-10 5e-05 1.46608e-10 
190 1 0.188961 0.018358 0.00689771 0.0059294 0.000327921 -0.000165413 2.73721e-10 -1.47295e-10 5.69823e-11 5e-05 1.46608e-10 
191 1 0.20091 0.0173575 0.00729956 0.00612069 -4.93049e-05 0.00041245 -2.07029e-10 1.12064e-10 -8.28516e-11 5e-05 1.46608e-10 
192 1 0.194961 0.0175381 0.00713155 0.0063004 6.34661e-05 0.000268422 -5.80516e-10 1.54631e-10 -7.17126e-11 5e-05 1.46608e-10 
193 1 0.20107 0.0176423 0.00714252 0.0064571 8.52072e-05 0.00035491 -2.57514e-10 -1.7667e-10 1.04667e-10 5e-05 1.46608e-10 
194 1 0.161461 0.0182058 0.00533758 1.3737e-15 -1.10321e-14 8.66686e-14 3.24387e-22 7.25334e-23 4.54949e-24 5e-05 1.46608e-10 
195 1 0.195156 0.0180174 0.00691876 0.00581661 4.19775e-05 -0.000542317 -3.72848e-10 -1.0843e-10 -5.08792e-10 5e-05 1.46608e-10 
196 1 0.194559 0.0162609 0.00788435 0.00565575 -6.45522e-05 -0.000252999 6.07074e-11 -9.15988e-11 1.02796e-10 5e-05 1.46608e-10 
197 1 0.188739 0.0173531 0.00722517 0.00623411 9.24803e-05 -0.000380479 -5.96696e-11 2.10415e-10 1.26902e-10 5e-05 1.46608e-10 
198 1 0.195012 0.0186058 0.00688162 0.00565675 -9.19356e-06 -0.000119013 -3.32181e-10 2.54408e-11 3.40287e-11 5e-05 1.46608e-10 
199 1 0.19491 0.0181155 0.00690202 0.00579001 5.0639e-05 9.08652e-05 3.4871e-11 -1.09321e-09 -2.29041e-10 5e-05 1.46608e-10 
201 1 0.194541 0.0165247 0.00764138 0.00564165 1.40328e-05 6.3804e-05 -3.34654e-11 -3.24876e-11 6.66956e-11 5e-05 1.46608e-10 
202 1 0.195043 0.0178954 0.00696708 0.00578789 0.000209587 0.000181092 -5.20731e-12 8.55117e-11 -1.0152e-10 5e-05 1.46608e-10 
203 1 0.20055 0.0166218 0.00771218 0.00584479 4.69174e-06 0.00030304 1.37961e-10 3.08087e-10 -1.60163e-10 5e-05 1.46608e-10 
204 1 0.194246 0.0154505 0.00864413 0.00580673 0.000111858 5.24791e-05 -8.95251e-11 1.4589e-10 1.6274e-11 5e-05 1.46608e-10 
205 1 0.195118 0.0178372 0.00699807 0.00579762 0.00014445 0.000208397 -1.54322e-10 -1.07289e-10 8.18456e-11 5e-05 1.46608e-10 
206 1 0.194618 0.0164735 0.00767965 0.00562078 -0.000178636 -0.00010527 -4.11824e-10 -3.65657e-10 9.1895e-11 5e-05 1.46608e-10 
207 1 0.194737 0.0169761 0.0073857 0.00608689 -2.92351e-05 0.000302604 4.30333e-10 4.08854e-11 2.16589e-11 5e-05 1.46608e-10 
208 1 0.194929 0.0177754 0.0070182 0.00576911 0.000208918 0.000178243 -1.0358e-10 4.66526e-10 -3.67515e-10 5e-05 1.46608e-10 
209 1 0.19164 0.017162 0.00722025 0.00565229 -0.000835038 0.000331854 -6.55452e-13 8.53927e-14 -5.85211e-14 5e-05 1.46608e-10 
210 1 0.200783 0.0175538 0.00717645 0.00618954 -1.03729e-05 0.000396258 -6.3041e-11 9.68599e-12 -1.76076e-11 5e-05 1.46608e-10 
211 1 0.200719 0.0172992 0.00732184 0.00609372 -4.50111e-06 0.000384797 -1.10031e-12 1.12618e-10 -5.76796e-11 5e-05 1.46608e-10 
212 1 0.195062 0.0179879 0.00693449 0.00586669 0.000184254 0.000191273 -3.50565e-10 1.65362e-11 1.89953e-10 5e-05 1.46608e-10 
213 1 0.201039 0.0183063 0.00688672 0.0057685 -0.000106242 -6.4364e-05 -4.72611e-10 2.39206e-10 1.10172e-10 5e-05 1.46608e-10 
214 1 0.200656 0.0170446 0.00746723 0.00598881 -8.74597e-06 0.000376911 4.37243e-11 7.05984e-11 -5.00151e-11 5e-05 1.46608e-10 
215 1 0.188941 0.0182612 0.00691271 0.00591206 0.000336117 -0.000166102 -3.56068e-11 -9.64705e-11 -7.70118e-11 5e-05 1.46608e-10 
216 1 0.195023 0.0178063 0.00700816 0.00577076 0.000223944 0.000177301 -1.03518e-10 2.01458e-10 -7.12249e-11 5e-05 1.46608e-10 
217 1 0.201044 0.0187612 0.00686886 0.0056045 -0.000132854 0.000218645 4.20085e-10 1.7979e-10 -4.04122e-11 5e-05 1.46608e-10 
218 1 0.194348 0.0158173 0.00832089 0.00544431 -0.000421872 -0.000577938 -9.69488e-11 -4.32059e-10 -7.70689e-12 5e-05 1.46608e-10 
219 1 0.200593 0.0167904 0.00761364 0.00586418 3.55898e-05 0.000374319 7.47007e-11 1.5679e-10 -1.57476e-10 5e-05 1.46608e-10 
220 1 0.195137 0.0179263 0.00695703 0.00583105 0.000133053 0.000218472 -3.01872e-10 -7.40352e-11 2.02879e-10 5e-05 1.46608e-10 
221 1 0.254883 0.0180086 0.0069249 0.00611755 -0.00102658 0.000166175 4.82492e-13 -6.84444e-14 3.52508e-14 5e-05 1.46608e-10 
222 1 0.201116 0.0182428 0.00689687 0.00582629 -6.5716e-05 -6.73509e-05 2.44527e-10 -9.93058e-11 9.97985e-11 5e-05 1.46608e-10 
223 1 0.194887 0.0175974 0.0071001 0.00629152 5.34556e-05 0.000270596 -2.54383e-10 7.0765e-10 -2.21298e-10 5e-05 1.46608e-10 
224 1 0.0810765 0.0181983 0.00769547 -0.00879292 -0.00499976 0.00104453 2.90752e-10 -3.0576e-10 5.75525e-11 5e-05 1.46608e-10 
225 1 0.200931 0.0174425 0.00725103 0.00619707 -3.08339e-05 0.000406751 -2.03716e-10 1.47403e-11 -1.26571e-11 5e-05 1.46608e-10 
226 1 0.194683 0.0171238 0.00731355 0.00620144 5.79912e-05 0.00026745 3.89066e-11 2.84292e-11 -3.16146e-11 5e-05 1.46608e-10 
227 1 0.18888 0.0179709 0.00695786 0.00585617 0.000384461 2.49287e-05 -1.1138e-10 1.80686e-10 -9.54962e-11 5e-05 1.46608e-10 
228 1 0.188698 0.0171967 0.00734273 0.0062271 0.000169515 -0.000256039 -9.91974e-11 -4.54647e-11 -1.0242e-10 5e-05 1.46608e-10 
229 1 0.195102 0.0181813 0.00690327 0.00594986 0.000111974 6.92566e-05 -2.86471e-10 -6.98452e-11 1.88516e-10 5e-05 1.46608e-10 
230 1 0.194502 0.0163804 0.00777427 0.00561284 -0.000141106 -0.000147666 -8.7759e-11 -1.23713e-10 -6.75338e-11 5e-05 1.46608e-10 
231 1 0.188656 0.0170344 0.00745169 0.00617001 0.000392273 1.66838e-05 3.44544e-10 4.91476e-11 -6.95954e-11 5e-05 1.46608e-10 
232 1 0.19489 0.0180198 0.00692324 0.00579971 1.07756e-07 -0.000125277 1.25822e-09 1.4157e-09 1.84714e-11 5e-05 1.46608e-10 
234 1 0.200979 0.0180168 0.00693799 0.005648 -8.68842e-05 -5.46756e-05 -9.11879e-11 1.14495e-10 -6.3695e-11 5e-05 1.46608e-10 
235 1 0.195098 0.0177479 0.00703925 0.00581781 0.000263009 0.000155074 -2.6318e-10 -4.43992e-11 -2.49481e-11 5e-05 1.46608e-10 
236 1 0.194463 0.0162409 0.00791218 0.0055094 -0.00015396 -0.000165298 4.36503e-11 -4.22276e-11 1.34432e-11 5e-05 1.46608e-10 
237 1 0.194424 0.0160983 0.00804687 0.00548007 -0.00013886 -0.000170459 -8.42467e-11 -1.83531e-10 2.10728e-10 5e-05 1.46608e-10 
239 1 0.188489 0.0163736 0.00787062 0.00562605 0.000511087 -8.62168e-05 -1.10957e-10 -1.33489e-10 9.45344e-11 5e-05 1.46608e-10 
240 1 0.188509 0.0164564 0.00781808 0.00573697 0.000489379 -6.648e-05 1.17848e-10 -1.64254e-10 8.46842e-11 5e-05 1.46608e-10 
241 1 0.188572 0.0167042 0.00766102 0.00601911 0.00042154 -1.30888e-05 -2.99852e-11 -2.57202e-10 1.25551e-10 5e-05 1.46608e-10 
242 1 0.194748 0.01739 0.00719121 0.00624536 4.38545e-05 0.000275434 -5.70932e-11 1.02823e-10 -9.38542e-11 5e-05 1.46608e-10 
244 1 0.188529 0.016539 0.00776569 0.0059806 0.000449039 -2.98705e-05 -2.73153e-10 -1.40122e-10 1.16662e-10 5e-05 1.46608e-10 
246 1 0.188635 0.0169518 0.00750402 0.00611272 0.000399016 4.2544e-06 -1.16837e-10 -4.59222e-11 -8.55259e-11 5e-05 1.46608e-10 
247 1 0.195292 0.0182435 0.00689636 0.00598054 4.23943e-05 -0.000123938 1.91597e-10 3.88113e-11 6.53127e-11 5e-05 1.46608e-10 
248 1 0.194522 0.0164511 0.00770623 0.00565237 -7.44629e-05 -4.55089e-05 4.44616e-11 -3.36604e-10 -2.82634e-10 5e-05 1.46608e-10 
249 1 0.188921 0.0181644 0.00692771 0.00588461 0.000335849 -0.000161038 4.34599e-11 -3.61669e-11 -3.74579e-11 5e-05 1.46608e-10 
250 1 0.194811 0.0169168 0.00741717 0.00600728 -0.000124732 0.000343962 5.75422e-10 1.45473e-10 -3.94139e-11 5e-05 1.46608e-10 
251 1 0.200573 0.0167049 0.00766133 0.00581622 3.44264e-05 0.000344015 5.63788e-11 2.35063e-10 -1.73807e-10 5e-05 1.46608e-10 
252 1 0.18878 0.0175096 0.00710759 0.00636693 7.64965e-05 -0.000378487 9.76459e-11 8.68584e-11 -7.5521e-11 5e-05 1.46608e-10 
253 1 0.188981 0.0184548 0.0068827 0.00563999 0.000391115 -0.000171563 1.3993e-10 -3.39795e-10 4.30196e-11 5e-05 1.46608e-10 
254 1 0.188614 0.0168693 0.00755635 0.00609232 0.000401668 2.39536e-06 3.21744e-10 2.6409e-11 -9.28903e-12 5e-05 1.46608e-10 
255 1 0.194852 0.0178341 0.00698688 0.00573436 0.000139908 0.000213621 4.38169e-11 2.39061e-10 7.15068e-10 5e-05 1.46608e-10 
256 1 0.19494 0.0174494 0.00717234 0.00630049 4.29318e-05 0.000277007 1.19973e-10 -6.92693e-11 2.11822e-12 5e-05 1.46608e-10 
257 1 0.194897 0.0172719 0.00725391 0.00619755 -2.38614e-05 0.000306546 4.40562e-11 -8.0722e-11 4.91188e-11 5e-05 1.46608e-10 
258 1 0.194801 0.0172425 0.00726323 0.00619286 1.52211e-05 0.000287623 8.88204e-11 2.02298e-10 -9.23353e-11 5e-05 1.46608e-10 
259 1 0.188802 0.0175903 0.00705264 0.00597745 0.000271376 -0.000251218 -1.10048e-11 7.35035e-11 -1.1557e-10 5e-05 1.46608e-10 
261 1 0.1946 0.0167684 0.00747702 0.00570059 0.000125733 0.000218518 3.49113e-11 -2.04131e-10 1.64972e-10 5e-05 1.46608e-10 