ITEM: TIMESTEP
31200000
ITEM: NUMBER OF ATOMS
271
ITEM: BOX BOUNDS ff ff ff
-0.02 0.43
-0.02 0.06
-0.02 0.07
ITEM: ATOMS id type x y z vx vy vz fx fy fz radius mass 
1 1 0.194385 0.0153509 0.00873297 0.0056107 0.000223773 -6.71572e-05 -2.49281e-10 1.78898e-10 -2.89065e-10 5e-05 1.46608e-10 
2 1 0.195278 0.0178065 0.00702015 0.00589362 0.000275926 0.000150087 4.03792e-11 2.07064e-10 -9.40389e-11 5e-05 1.46608e-10 
3 1 0.189353 0.0177296 0.0070285 0.00569724 6.81533e-05 0.000106022 1.81946e-10 -5.1977e-11 4.07366e-11 5e-05 1.46608e-10 
4 1 0.195315 0.01757 0.00713333 0.00587995 0.000355677 0.000112278 1.4009e-10 -1.53037e-10 7.83579e-11 5e-05 1.46608e-10 
5 1 0.194363 0.0152764 0.00879617 0.00574216 0.000209561 -3.94884e-05 -1.30196e-09 6.57714e-10 -6.40417e-10 5e-05 1.46608e-10 
6 1 0.200844 0.0170948 0.00744958 0.00620999 0.000531098 7.766e-05 -1.3608e-11 -5.74673e-11 3.41049e-11 5e-05 1.46608e-10 
7 1 0.194465 0.0156477 0.00847744 0.00563525 1.11699e-05 -0.000314611 6.24099e-11 9.90061e-11 -6.48322e-12 5e-05 1.46608e-10 
8 1 0.194347 0.0152214 0.00887808 0.00589478 0.000183024 -8.66894e-08 -1.99568e-10 6.23512e-10 1.05432e-10 5e-05 1.46608e-10 
9 1 0.200969 0.0176043 0.00715853 0.00584426 0.000587505 2.12573e-05 -9.67984e-11 -4.37158e-11 -1.42365e-11 5e-05 1.46608e-10 
10 1 0.194936 0.0174463 0.00717359 0.00578802 0.000232618 0.000164844 6.69776e-11 1.17744e-10 -1.99859e-11 5e-05 1.46608e-10 
11 1 0.19507 0.0176553 0.00708149 0.00590297 0.000223256 0.000175758 2.45954e-11 2.67383e-12 1.16488e-11 5e-05 1.46608e-10 
12 1 0.188481 0.0156529 0.00835966 0.00569668 0.000128811 6.54355e-05 -1.41238e-11 7.88484e-11 1.4347e-10 5e-05 1.46608e-10 
13 1 0.194288 0.0151071 0.00914845 0.00559407 -0.00011116 -0.000164758 1.1976e-10 -1.04205e-10 6.54895e-10 5e-05 1.46608e-10 
14 1 0.189147 0.0184645 0.00687796 0.00563427 4.32793e-05 -0.000118465 6.27882e-11 1.27567e-10 -1.64562e-11 5e-05 1.46608e-10 
15 1 0.195295 0.0174807 0.00717449 0.00592128 0.000219969 0.000178248 1.51232e-10 -1.25731e-10 6.679e-11 5e-05 1.46608e-10 
16 1 0.189246 0.0185009 0.00687053 0.00564456 6.33182e-05 -0.000120589 -9.14378e-11 -5.73175e-11 -4.09566e-13 5e-05 1.46608e-10 
17 1 0.195334 0.0176595 0.00709212 0.00587183 0.000288269 0.000143724 -1.72114e-10 -3.78554e-11 1.13587e-11 5e-05 1.46608e-10 
19 1 0.194325 0.015177 0.00896492 0.0056807 4.8482e-05 -0.000102434 -4.6175e-11 2.83809e-10 1.87358e-10 5e-05 1.46608e-10 
21 1 0.194897 0.0172682 0.00725568 0.00557417 0.000292388 0.0001274 1.09064e-10 -1.53312e-10 7.95666e-11 5e-05 1.46608e-10 
22 1 0.195106 0.0174189 0.00719461 0.00572721 0.000152654 0.000200675 1.14754e-10 -1.007e-10 5.78068e-11 5e-05 1.46608e-10 
23 1 0.188714 0.0162467 0.00796221 0.00605048 0.000143437 0.00016961 -2.20812e-10 1.5341e-11 -1.59389e-11 5e-05 1.46608e-10 
24 1 0.201043 0.0179454 0.00696303 0.00578667 0.000597537 1.47929e-05 2.49012e-11 5.42078e-11 -1.85818e-11 5e-05 1.46608e-10 
25 1 0.194521 0.0158567 0.00826973 0.00559528 1.07755e-05 -0.000325791 5.45941e-11 -2.71314e-12 -1.29204e-11 5e-05 1.46608e-10 
26 1 0.200931 0.0174339 0.00725606 0.00624136 0.000527904 8.16463e-05 1.67362e-12 1.2683e-12 4.79688e-12 5e-05 1.46608e-10 
27 1 0.189468 0.0178572 0.00699907 0.00571183 4.04174e-05 0.000113774 3.28699e-10 -2.96843e-10 6.95297e-11 5e-05 1.46608e-10 
28 1 0.195239 0.0176281 0.00710237 0.00587531 0.000326706 0.0001256 1.23348e-10 -1.98916e-10 9.80613e-11 5e-05 1.46608e-10 
29 1 0.194482 0.0157155 0.00840576 0.00560724 1.22164e-05 -0.000325593 -2.30963e-10 5.7389e-11 -1.56458e-10 5e-05 1.46608e-10 
30 1 0.194994 0.0177135 0.0070505 0.00590846 0.000212332 0.000181461 6.73777e-11 1.37259e-10 -6.71485e-11 5e-05 1.46608e-10 
31 1 0.194539 0.0159286 0.00820272 0.0055993 -4.11316e-06 -0.000330477 -1.00081e-10 -1.21581e-10 3.27371e-11 5e-05 1.46608e-10 
32 1 0.194982 0.0168829 0.00744125 0.00624675 0.000189286 0.000208253 -2.74449e-10 1.78169e-10 -9.90878e-11 5e-05 1.46608e-10 
33 1 0.200866 0.0171796 0.0074012 0.00621634 0.00052885 7.91985e-05 -1.71202e-11 -6.30187e-11 3.44885e-11 5e-05 1.46608e-10 
34 1 0.194441 0.0155751 0.00854175 0.00557051 0.000129441 -0.000197229 -9.72759e-11 1.4325e-10 4.32538e-11 5e-05 1.46608e-10 
35 1 0.195141 0.0171817 0.00730803 0.00571437 0.000375815 9.48888e-05 3.35258e-10 -3.53313e-10 1.79056e-10 5e-05 1.46608e-10 
36 1 0.201025 0.01786 0.00701204 0.00581616 0.0005906 1.90225e-05 2.17258e-10 3.88869e-11 -1.33246e-13 5e-05 1.46608e-10 
37 1 0.195185 0.0182087 0.00690066 0.0058089 0.000168308 -0.00013352 -5.2608e-11 3.11377e-11 -1.29531e-11 5e-05 1.46608e-10 
38 1 0.195245 0.0185037 0.00688254 0.00566949 0.000192954 -0.000130615 -1.12961e-11 -5.27657e-11 5.64588e-12 5e-05 1.46608e-10 
39 1 0.201062 0.0180389 0.00693314 0.00580616 0.000536468 -0.000164651 -4.63238e-13 2.26753e-11 -2.72154e-13 5e-05 1.46608e-10 
41 1 0.195353 0.0177486 0.00705105 0.00592637 0.000315119 0.000133652 -2.06034e-10 -4.11616e-11 9.74256e-12 5e-05 1.46608e-10 
42 1 0.321436 0.0173475 0.00552525 4.56923e-16 2.25622e-15 8.4636e-14 3.24781e-23 1.45403e-24 -2.06795e-25 5e-05 1.46608e-10 
44 1 0.195259 0.0177174 0.00706122 0.0058662 0.000283405 0.000145502 1.64563e-10 1.19456e-10 -5.39604e-11 5e-05 1.46608e-10 
45 1 0.200888 0.0172643 0.00735282 0.00622424 0.000527602 8.04412e-05 -1.34123e-11 -5.51904e-11 3.35183e-11 5e-05 1.46608e-10 
47 1 0.194402 0.015426 0.00866928 0.00544712 0.000283839 -4.5372e-05 3.16627e-11 1.67855e-10 -1.02377e-10 5e-05 1.46608e-10 
48 1 0.195225 0.0184045 0.00688861 0.00565076 0.000180726 -0.000130344 -1.69804e-10 -1.25982e-10 -3.25752e-12 5e-05 1.46608e-10 
50 1 0.194587 0.0160708 0.0080707 0.00574408 -4.46326e-05 -0.000295808 -7.08317e-11 -2.43119e-10 5.90311e-11 5e-05 1.46608e-10 
51 1 0.194561 0.0159978 0.00813385 0.00561803 1.99586e-06 -0.000306859 -1.5566e-10 -1.81308e-10 7.18718e-11 5e-05 1.46608e-10 
52 1 0.188401 0.0154463 0.00868995 0.00548116 -0.000104235 -0.000198104 -1.81059e-10 1.14464e-10 -7.82969e-11 5e-05 1.46608e-10 
53 1 0.201007 0.0177747 0.0070609 0.00594978 0.000575528 3.69567e-05 1.46027e-11 3.53269e-11 -7.40755e-11 5e-05 1.46608e-10 
54 1 0.19507 0.0180774 0.00690463 0.00580713 0.000229973 7.34859e-05 -8.6889e-11 -1.77103e-10 -1.1688e-10 5e-05 1.46608e-10 
55 1 0.188345 0.0153115 0.00895191 0.00559721 -0.000101914 -0.000214131 2.91024e-11 -2.51702e-11 8.5318e-11 5e-05 1.46608e-10 
56 1 0.195205 0.0183066 0.00689461 0.00568479 0.000178815 -0.000133335 -1.32152e-10 -5.18857e-11 8.42433e-12 5e-05 1.46608e-10 
57 1 0.200909 0.0173491 0.00730444 0.00623179 0.000527404 8.1054e-05 -2.1505e-11 -3.22214e-11 1.24775e-11 5e-05 1.46608e-10 
59 1 0.195086 0.0173298 0.00723567 0.00568998 0.000185833 0.000183174 7.66257e-11 3.4567e-10 -1.66841e-10 5e-05 1.46608e-10 
61 1 0.194864 0.0167645 0.00749144 0.0062534 0.000184295 0.000210495 -2.59321e-10 2.01839e-10 -1.34954e-10 5e-05 1.46608e-10 
62 1 0.195471 0.0183072 0.00688894 0.00570431 0.000190557 -0.000130475 1.36393e-10 -1.95844e-10 3.0949e-12 5e-05 1.46608e-10 
63 1 0.195275 0.0173912 0.0072157 0.00572912 6.93651e-05 0.000239859 2.11341e-10 3.70184e-10 -1.63046e-10 5e-05 1.46608e-10 
64 1 0.201082 0.0181354 0.00691604 0.00582826 0.00053336 -0.000163647 2.19684e-11 3.2389e-11 -8.45983e-12 5e-05 1.46608e-10 
65 1 0.188662 0.0163843 0.00787124 0.00606525 0.000137726 0.000174083 -8.57187e-11 -4.26109e-11 1.47328e-11 5e-05 1.46608e-10 
66 1 0.188326 0.0152667 0.00903921 0.0055875 -8.8995e-05 -0.000234665 -1.06053e-10 -6.59562e-11 1.04079e-10 5e-05 1.46608e-10 
67 1 0.195221 0.0179543 0.00694781 0.00579771 0.000216978 0.000174865 -1.54214e-10 -1.81845e-10 1.83251e-11 5e-05 1.46608e-10 
68 1 0.195025 0.0170609 0.00735946 0.00617543 0.00078926 -7.80608e-05 -3.95338e-11 1.97636e-10 -9.64764e-11 5e-05 1.46608e-10 
69 1 0.19509 0.018176 0.0069032 0.00580818 0.000224231 6.82514e-05 3.45072e-11 1.78403e-10 2.96585e-11 5e-05 1.46608e-10 
70 1 0.20095 0.017519 0.00720734 0.00581062 0.000591578 1.68274e-05 -1.02044e-11 -2.15682e-11 1.0702e-12 5e-05 1.46608e-10 
71 1 0.188383 0.0154012 0.00877724 0.00544869 -9.80657e-05 -0.000208524 -4.72771e-11 -2.08903e-11 5.36253e-11 5e-05 1.46608e-10 
72 1 0.195126 0.017923 0.00695805 0.00577635 0.000231688 0.000172184 1.34217e-10 8.94259e-11 -8.6756e-11 5e-05 1.46608e-10 
73 1 0.195149 0.0184699 0.00688649 0.00563647 0.000160062 -0.000128045 2.75287e-11 9.46483e-11 -7.71033e-12 5e-05 1.46608e-10 
74 1 0.195282 0.0182427 0.00689778 0.00570875 0.000197261 -0.000245375 1.74927e-10 -8.76398e-11 -9.27988e-11 5e-05 1.46608e-10 
76 1 0.189377 0.0182733 0.00690228 0.00562211 4.59076e-05 -0.000119802 2.62095e-10 6.38485e-11 -8.57288e-11 5e-05 1.46608e-10 
77 1 0.195161 0.0172712 0.00726682 0.00570684 0.000233651 0.000161635 1.23727e-10 1.92753e-10 -8.3338e-11 5e-05 1.46608e-10 
78 1 0.189128 0.0183675 0.00689298 0.00561786 4.67027e-05 -0.000119452 1.32456e-10 1.30897e-10 5.75892e-11 5e-05 1.46608e-10 
79 1 0.188439 0.0155358 0.00851503 0.00559564 -0.00014321 -0.000190352 9.09551e-11 1.18158e-10 -1.08911e-10 5e-05 1.46608e-10 
80 1 0.195317 0.0179847 0.00693808 0.00589546 0.000286787 0.000151273 -1.12922e-11 1.72008e-10 -4.97229e-11 5e-05 1.46608e-10 
81 1 0.189265 0.0185978 0.00685551 0.00566508 7.09219e-05 -0.000122493 -2.99311e-11 2.19368e-12 1.05342e-11 5e-05 1.46608e-10 
82 1 0.188497 0.0157233 0.0082904 0.00565122 0.00018502 0.000123096 -5.80068e-11 -7.21667e-11 8.2366e-11 5e-05 1.46608e-10 
83 1 0.189188 0.0182101 0.00691615 0.00564731 6.61423e-05 -6.44006e-05 -1.06768e-10 5.65069e-11 7.83813e-11 5e-05 1.46608e-10 
84 1 0.200988 0.0176895 0.00710972 0.0059102 0.000582926 2.92421e-05 -3.19061e-11 4.3918e-11 -8.52838e-12 5e-05 1.46608e-10 
85 1 0.189373 0.0178259 0.00700486 0.00570265 6.17779e-05 0.000108374 2.31185e-10 -5.90673e-11 4.53048e-11 5e-05 1.46608e-10 
86 1 0.195373 0.0178377 0.00701 0.0059214 0.000302435 0.000140757 -2.38057e-10 6.72603e-11 -6.8097e-11 5e-05 1.46608e-10 
87 1 0.19532 0.0184386 0.00688465 0.00568801 0.000209066 -0.000131902 -5.95666e-11 -1.22416e-10 1.21159e-11 5e-05 1.46608e-10 
88 1 0.194748 0.0166482 0.00754443 0.006299 0.000120956 9.67052e-05 1.06936e-10 4.31889e-11 -7.05843e-13 5e-05 1.46608e-10 
89 1 0.195302 0.0183405 0.00689063 0.00564623 0.00021906 -0.000133097 1.14433e-10 -1.123e-10 -2.15197e-11 5e-05 1.46608e-10 
90 1 0.195164 0.0176863 0.00707139 0.00586253 0.000279574 0.000147215 1.17277e-10 -4.97176e-11 3.77766e-11 5e-05 1.46608e-10 
91 1 0.189413 0.0180165 0.00695804 0.00573021 0.000172597 8.04283e-05 -3.39282e-11 1.05866e-11 -5.15667e-11 5e-05 1.46608e-10 
92 1 0.195262 0.0181448 0.00690311 0.0058361 0.000177457 -0.00021145 -7.07089e-11 -1.353e-11 -9.92446e-11 5e-05 1.46608e-10 
93 1 0.194622 0.0162087 0.00793042 0.00604991 -8.76376e-05 -0.000251324 2.83469e-11 -1.46463e-11 8.20347e-11 5e-05 1.46608e-10 
94 1 0.19505 0.0175661 0.00712258 0.00580379 0.000172965 0.000194387 -2.84827e-11 -2.26229e-11 4.20534e-12 5e-05 1.46608e-10 
95 1 0.195011 0.017388 0.00720465 0.00569362 0.000184664 0.000183736 -1.16646e-10 -1.71827e-10 7.0373e-11 5e-05 1.46608e-10 
96 1 0.194642 0.0162824 0.00786576 0.00612355 -9.81613e-05 -0.00024614 -1.10204e-10 2.13604e-11 6.26878e-11 5e-05 1.46608e-10 
97 1 0.188779 0.0164941 0.00780548 0.0060826 0.000125702 0.000182498 1.49206e-10 8.21749e-11 -5.48776e-11 5e-05 1.46608e-10 
98 1 0.195145 0.0175971 0.00711248 0.00594259 0.000259628 0.000160296 -1.95206e-11 -8.2355e-11 3.42285e-11 5e-05 1.46608e-10 
99 1 0.188888 0.0169065 0.00754421 0.00615615 0.000128136 0.000183287 7.5009e-11 6.21289e-11 -7.10856e-11 5e-05 1.46608e-10 
100 1 0.195377 0.0182746 0.0068928 0.00568172 0.000271656 -0.000137883 1.24067e-10 -3.94591e-11 -3.12824e-11 5e-05 1.46608e-10 
101 1 0.188459 0.0155873 0.00843166 0.00564029 -5.85464e-05 -0.00012847 -5.80372e-11 2.94094e-10 1.3636e-10 5e-05 1.46608e-10 
102 1 0.0643568 0.0187248 0.00531097 4.32896e-15 1.04758e-14 8.29598e-14 1.80824e-21 -7.46867e-22 -3.30872e-24 5e-05 1.46608e-10 
103 1 0.24257 0.0191927 0.00520306 -2.44453e-22 -1.27651e-22 1.23839e-22 -3.23117e-27 0 0 5e-05 1.46608e-10 
104 1 0.189089 0.0177344 0.00703097 0.00564925 8.45155e-05 0.000117019 4.34229e-11 -1.86809e-10 1.17274e-10 5e-05 1.46608e-10 
105 1 0.189427 0.0176657 0.00704611 0.00569275 7.69275e-05 0.000104367 2.51774e-11 -2.04538e-10 3.82069e-11 5e-05 1.46608e-10 
106 1 0.189312 0.0175393 0.00707522 0.005647 6.87074e-05 0.000104961 -1.6859e-10 1.05725e-10 1.76316e-11 5e-05 1.46608e-10 
107 1 0.189292 0.0174538 0.00712303 0.00563256 -9.22631e-05 -0.00018646 7.09597e-11 1.9407e-10 1.69404e-10 5e-05 1.46608e-10 
108 1 0.19511 0.018274 0.00689848 0.00580069 0.000174754 -0.000127875 7.09493e-11 1.22197e-10 3.93527e-12 5e-05 1.46608e-10 
109 1 0.195255 0.017302 0.00725682 0.00576496 0.00016918 0.000194921 1.85037e-10 3.20403e-10 -1.40768e-10 5e-05 1.46608e-10 
110 1 0.194663 0.0163494 0.00779474 0.00610234 -9.58872e-05 -0.000247787 -7.39187e-11 -9.01539e-12 3.36286e-11 5e-05 1.46608e-10 
111 1 0.194991 0.0172989 0.00724568 0.00561576 0.000197213 0.000173985 5.33517e-11 -3.31677e-10 1.74691e-10 5e-05 1.46608e-10 
112 1 0.189148 0.0180174 0.00695205 0.00572674 7.67164e-05 0.000106065 2.59751e-12 1.02788e-10 1.02859e-11 5e-05 1.46608e-10 
113 1 0.188749 0.0167141 0.00766226 0.00609314 0.000100055 0.000203222 1.01186e-10 3.78796e-11 -7.62474e-11 5e-05 1.46608e-10 
114 1 0.189109 0.0182706 0.00690799 0.00562975 5.7137e-05 -0.000100171 7.13265e-11 7.93626e-11 1.96004e-10 5e-05 1.46608e-10 
115 1 0.19522 0.0175389 0.00714348 0.00596817 0.00027775 0.00015317 7.44668e-11 -7.27466e-11 3.67843e-11 5e-05 1.46608e-10 
116 1 0.19505 0.0179831 0.00693161 0.00573054 0.00015778 -0.000170817 1.74402e-12 6.20122e-11 2.74834e-10 5e-05 1.46608e-10 
117 1 0.195188 0.0186669 0.00687443 0.00565158 0.000147779 -0.000128117 -1.21905e-12 -1.40148e-10 6.89928e-12 5e-05 1.46608e-10 
118 1 0.188952 0.0175126 0.00709687 0.00368776 0.000597693 0.000198871 2.99296e-10 -7.08541e-10 -1.16546e-09 5e-05 1.46608e-10 
119 1 0.195181 0.0173606 0.00722566 0.00567747 9.00161e-05 0.000227774 2.27182e-10 -1.80536e-10 9.42806e-11 5e-05 1.46608e-10 
120 1 0.1945 0.0157868 0.00833806 0.00561285 1.72108e-05 -0.00032207 -5.16524e-12 1.38407e-10 -6.39702e-12 5e-05 1.46608e-10 
121 1 0.194422 0.0155007 0.00860572 0.00545217 0.000255102 -8.08954e-05 -4.46039e-10 1.46386e-10 -1.60964e-10 5e-05 1.46608e-10 
122 1 0.194951 0.0171202 0.00732801 0.00594218 0.000552676 2.23599e-05 -1.93946e-10 -9.93887e-11 4.28838e-11 5e-05 1.46608e-10 
123 1 0.188915 0.0173552 0.00721476 0.00591176 0.000723086 -0.000830867 5.06589e-11 2.14508e-10 -1.60753e-10 5e-05 1.46608e-10 
124 1 0.194972 0.0172096 0.00728682 0.00561586 0.000424102 6.7368e-05 2.52447e-10 -3.38411e-10 1.73338e-10 5e-05 1.46608e-10 
125 1 0.195264 0.0186016 0.00687655 0.00568504 0.000182984 -0.00013066 -2.43578e-11 -1.93055e-10 1.28266e-11 5e-05 1.46608e-10 
126 1 0.194886 0.0168532 0.0074507 0.00626118 0.000198456 0.000204852 -2.94752e-10 2.63038e-10 -1.18998e-10 5e-05 1.46608e-10 
127 1 0.189447 0.0177611 0.00702268 0.00569918 6.5854e-05 0.000107628 3.26772e-10 -1.80572e-10 4.28307e-11 5e-05 1.46608e-10 
128 1 0.19493 0.0170312 0.0073689 0.00629253 0.000458816 8.37939e-05 -3.39607e-10 1.62625e-10 -9.95343e-11 5e-05 1.46608e-10 
129 1 0.195089 0.0177446 0.00704035 0.00591757 0.000190429 0.00019285 1.82757e-10 -6.42722e-11 5.24015e-11 5e-05 1.46608e-10 
131 1 0.189333 0.0176344 0.00705188 0.00568237 6.42508e-05 0.000107281 -1.02733e-10 2.01843e-11 3.16266e-12 5e-05 1.46608e-10 
132 1 0.195183 0.0177759 0.00703009 0.0059087 0.00022173 0.00017644 1.52829e-10 -2.44134e-11 2.62001e-11 5e-05 1.46608e-10 
133 1 0.194955 0.0175354 0.00713256 0.00579319 0.000220879 0.000170787 1.19016e-10 1.1134e-10 -2.18605e-11 5e-05 1.46608e-10 
134 1 0.194908 0.0169424 0.00740969 0.00627582 0.000217179 0.000194381 -1.16249e-10 2.07456e-10 -1.08595e-10 5e-05 1.46608e-10 
135 1 0.194306 0.0151405 0.00905599 0.00563675 -9.68534e-05 -0.00015338 2.32888e-10 -7.38014e-11 3.3018e-10 5e-05 1.46608e-10 
136 1 0.189167 0.0185616 0.00686292 0.00565318 6.6532e-05 -0.00012159 -3.54474e-11 -8.83492e-11 1.87838e-11 5e-05 1.46608e-10 
137 1 0.194601 0.0161384 0.00799825 0.00587226 -5.40448e-05 -0.000273299 3.11616e-10 -1.5782e-10 1.35142e-10 5e-05 1.46608e-10 
138 1 0.195031 0.017892 0.00696817 0.00574526 0.000281272 0.000141683 -2.18415e-11 1.97392e-10 -1.77892e-10 5e-05 1.46608e-10 
140 1 0.195125 0.0175079 0.00715358 0.00577838 0.000144226 0.000207003 -1.30936e-10 -1.67672e-10 6.8102e-11 5e-05 1.46608e-10 
141 1 0.189168 0.0181137 0.00693393 0.00575781 7.27582e-05 7.60739e-05 2.17582e-11 -3.24121e-11 4.02714e-11 5e-05 1.46608e-10 
142 1 0.188897 0.0172764 0.00727422 0.00566274 -9.1321e-05 -0.000240283 -4.29791e-11 6.2246e-12 9.69614e-11 5e-05 1.46608e-10 
143 1 0.188364 0.0153564 0.00886454 0.00544917 -9.30087e-05 -0.000219316 2.31645e-10 -9.79534e-11 1.74798e-10 5e-05 1.46608e-10 
144 1 0.18901 0.0177906 0.00700578 0.0056742 0.000193914 7.15713e-05 -1.5733e-10 -1.30956e-10 7.79455e-11 5e-05 1.46608e-10 
147 1 0.189227 0.0184039 0.00688554 0.00563562 5.4187e-05 -0.000120111 5.95375e-11 -5.3425e-11 -2.90934e-12 5e-05 1.46608e-10 
148 1 0.188986 0.0169329 0.00752272 0.00622599 -0.000101735 -0.000243778 5.22069e-10 -8.24698e-10 2.41536e-10 5e-05 1.46608e-10 
149 1 0.194769 0.0167356 0.00750051 0.00628443 0.000192204 0.000209816 -1.75377e-11 9.46014e-11 -3.09835e-11 5e-05 1.46608e-10 
150 1 0.0100679 0.0201683 0.00551526 8.38545e-15 1.23837e-15 -8.48744e-14 1.03398e-23 -4.30812e-23 4.1359e-25 5e-05 1.46608e-10 
151 1 0.188857 0.0171235 0.00739656 0.00615418 -9.10298e-05 -8.02958e-05 -1.11832e-12 -1.04849e-10 -5.20816e-10 5e-05 1.46608e-10 
153 1 0.189206 0.018756 0.00683282 0.00568798 7.16512e-05 -0.000125455 -4.95254e-11 -1.85193e-10 1.98063e-11 5e-05 1.46608e-10 
154 1 0.188971 0.0176002 0.00705258 0.00570683 3.52174e-05 0.000109437 -5.09592e-10 -2.556e-10 -5.37299e-10 5e-05 1.46608e-10 
155 1 0.189181 0.0173497 0.00720542 0.00555052 -4.15013e-05 -0.000256155 -1.54667e-10 2.23269e-11 -3.50194e-11 5e-05 1.46608e-10 
156 1 0.189128 0.0179222 0.00697544 0.00570918 8.30273e-05 0.000105672 3.48637e-11 -2.06628e-11 -4.23454e-12 5e-05 1.46608e-10 
157 1 0.0219312 0.0187687 0.00551176 -3.82476e-14 8.17002e-14 2.9589e-13 -5.3715e-22 -4.75629e-24 -8.00297e-23 5e-05 1.46608e-10 
158 1 0.189358 0.018176 0.00691736 0.005631 6.84139e-05 -0.000116627 3.83057e-11 -3.92836e-11 1.34142e-10 5e-05 1.46608e-10 
159 1 0.195396 0.0183732 0.00688677 0.0057178 0.000222858 -0.000133306 1.74176e-10 -8.42758e-12 -2.90338e-12 5e-05 1.46608e-10 
160 1 0.188991 0.0176954 0.00702918 0.00564027 4.45089e-05 0.000122429 1.86812e-10 4.93992e-10 -2.49752e-10 5e-05 1.46608e-10 
162 1 0.189284 0.0186948 0.0068405 0.0056882 6.69083e-05 -0.000122287 -6.7115e-11 -1.05862e-10 1.62362e-11 5e-05 1.46608e-10 
164 1 0.188844 0.0167415 0.00764873 0.00609599 8.68901e-05 0.000207383 3.07064e-11 3.76849e-12 -2.04162e-11 5e-05 1.46608e-10 
165 1 0.189184 0.017763 0.00701646 0.00568675 7.79923e-05 0.000107917 -1.69315e-10 -6.98851e-11 -2.06201e-11 5e-05 1.46608e-10 
166 1 0.195129 0.0183719 0.00689248 0.00564582 0.000211645 -0.000131438 -9.05206e-11 2.88597e-10 -2.5342e-11 5e-05 1.46608e-10 
168 1 0.18891 0.0169869 0.00748672 0.00618097 -0.00012918 -0.000197111 5.79752e-10 -4.5125e-11 5.38831e-11 5e-05 1.46608e-10 
169 1 0.18934 0.0185326 0.00686387 0.0056529 4.74996e-05 -0.000118304 -1.26637e-10 -2.74124e-11 -3.26953e-12 5e-05 1.46608e-10 
170 1 0.189258 0.0176982 0.00703429 0.00568812 7.64971e-05 0.000106976 -1.25323e-10 6.11748e-11 -2.62836e-11 5e-05 1.46608e-10 
171 1 0.195013 0.0178027 0.00700936 0.00568001 0.000270389 0.000143645 1.7335e-10 1.40031e-10 -9.76728e-11 5e-05 1.46608e-10 
172 1 0.189163 0.0176673 0.00703995 0.00565642 9.3613e-05 0.000104667 1.01964e-10 -5.53705e-11 -3.0409e-11 5e-05 1.46608e-10 
173 1 0.195298 0.0178956 0.00697911 0.00589625 0.000279687 0.000147226 -3.25796e-11 2.18891e-10 -7.7656e-11 5e-05 1.46608e-10 
174 1 0.189198 0.0174285 0.00714641 0.00559828 -4.35754e-05 -0.000245688 -1.25158e-10 -6.53162e-11 -1.86042e-10 5e-05 1.46608e-10 
175 1 0.182872 0.0171629 0.00730646 0.00569996 1.60116e-05 0.000216883 3.83889e-10 1.11998e-10 6.13592e-11 5e-05 1.46608e-10 
177 1 0.189029 0.0170891 0.00740532 0.00628942 -9.84553e-05 -0.00022218 4.41092e-10 -2.43222e-10 -1.89168e-10 5e-05 1.46608e-10 
178 1 0.188953 0.0171442 0.00737085 0.00620275 -0.000135685 -0.000165473 2.42527e-10 -2.10095e-10 -1.83617e-10 5e-05 1.46608e-10 
179 1 0.189029 0.0174631 0.0071419 0.00559821 1.28055e-05 -0.000144536 1.10042e-10 -2.09481e-10 1.28159e-10 5e-05 1.46608e-10 
181 1 0.189302 0.0183387 0.0068939 0.00563384 5.88331e-05 -0.000120865 1.67374e-10 -4.67408e-12 -9.77096e-12 5e-05 1.46608e-10 
182 1 0.194975 0.0176244 0.00709154 0.00584684 0.000216426 0.000175528 -1.33951e-12 9.984e-11 -4.73752e-11 5e-05 1.46608e-10 
183 1 0.189237 0.0176031 0.00705763 0.00564832 8.15314e-05 9.77018e-05 3.67368e-12 5.94169e-11 1.33398e-12 5e-05 1.46608e-10 
184 1 0.19503 0.0174771 0.00716361 0.00576138 0.000183175 0.00018763 -5.93153e-12 -7.88058e-12 7.34539e-12 5e-05 1.46608e-10 
186 1 0.188835 0.0170432 0.00745212 0.0061388 1.53374e-05 8.09205e-05 1.77743e-10 -4.92415e-11 -2.44135e-10 5e-05 1.46608e-10 
187 1 0.194877 0.0171791 0.00729668 0.00568489 0.000286745 0.000134926 -3.66565e-11 -8.59737e-11 2.50721e-11 5e-05 1.46608e-10 
188 1 0.195004 0.0169718 0.00740042 0.00646403 0.000627471 1.182e-05 -2.70242e-10 2.66271e-10 -1.36662e-10 5e-05 1.46608e-10 
189 1 0.195202 0.0178651 0.00698894 0.00576923 0.000208754 0.000173973 -4.37602e-11 -1.03075e-10 9.49629e-11 5e-05 1.46608e-10 
190 1 0.183145 0.0184588 0.00690313 0.00561306 -8.60559e-05 -0.000231289 1.1454e-09 -4.99483e-10 -8.72361e-10 5e-05 1.46608e-10 
191 1 0.195046 0.0171509 0.00731806 0.00576504 0.000586888 -2.23055e-06 1.08559e-10 -5.41927e-10 2.61862e-10 5e-05 1.46608e-10 
192 1 0.189141 0.017572 0.00706332 0.00567432 0.000101223 9.08473e-05 -4.51637e-11 -3.31911e-10 6.54883e-11 5e-05 1.46608e-10 
193 1 0.1952 0.0174497 0.0071846 0.00575491 0.000109414 0.000222381 -1.52444e-10 -1.94578e-10 8.36851e-11 5e-05 1.46608e-10 
194 1 0.161461 0.0182058 0.00533758 1.58934e-15 -1.10128e-14 8.66673e-14 3.60066e-22 8.55873e-23 3.92911e-24 5e-05 1.46608e-10 
195 1 0.189338 0.0180802 0.00694046 0.00573112 0.000193195 7.64636e-05 -9.94943e-11 3.40937e-11 4.31985e-11 5e-05 1.46608e-10 
196 1 0.188736 0.0163292 0.00790997 0.00606684 0.000137316 0.000174192 -1.87838e-10 -9.00919e-12 -1.36151e-12 5e-05 1.46608e-10 
197 1 0.182931 0.017426 0.00717491 0.00576517 6.05377e-07 0.000226728 3.51574e-10 9.77414e-11 9.61659e-12 5e-05 1.46608e-10 
198 1 0.189186 0.0186587 0.00684789 0.00567932 0.000103157 -0.000127323 -3.67616e-11 3.45843e-11 -1.16679e-11 5e-05 1.46608e-10 
199 1 0.189089 0.0181737 0.00692316 0.00575342 6.06977e-05 3.53559e-05 1.98869e-11 5.55706e-11 9.72741e-11 5e-05 1.46608e-10 
201 1 0.188727 0.0166317 0.00771451 0.00609014 0.000111792 0.00019309 1.18929e-12 5.20432e-11 -1.68246e-11 5e-05 1.46608e-10 
202 1 0.189223 0.0179535 0.00696966 0.00572714 7.95359e-05 0.000105706 -8.4321e-11 -1.56612e-10 2.42768e-11 5e-05 1.46608e-10 
203 1 0.194684 0.0164197 0.00772688 0.00614726 -0.000103865 -0.000243396 -2.04734e-10 5.77394e-12 6.55705e-11 5e-05 1.46608e-10 
204 1 0.18842 0.0154909 0.00860248 0.0055614 -0.00011482 -0.000183876 1.41092e-10 2.0374e-11 -1.58119e-10 5e-05 1.46608e-10 
205 1 0.189298 0.0178898 0.00698724 0.00571154 7.24604e-05 0.000106954 1.70879e-10 -1.11207e-10 3.79723e-11 5e-05 1.46608e-10 
206 1 0.188801 0.0165766 0.00775323 0.00608724 0.000103246 0.000197077 -7.545e-11 -5.87679e-11 5.0728e-11 5e-05 1.46608e-10 
207 1 0.188932 0.017065 0.00742803 0.00615752 -0.000167406 -0.000252568 -1.80965e-10 1.77629e-11 -3.90192e-10 5e-05 1.46608e-10 
208 1 0.189109 0.017827 0.00699884 0.00568885 8.46287e-05 0.000105101 -2.55485e-11 -1.96936e-10 2.08924e-11 5e-05 1.46608e-10 
209 1 0.185968 0.0178707 0.00695909 0.00571673 -0.000523107 0.000154255 8.30464e-13 -8.44824e-14 2.33942e-14 5e-05 1.46608e-10 
210 1 0.194916 0.0173572 0.00721464 0.00570612 0.000260726 0.000148154 1.58649e-11 -7.77022e-11 5.63362e-11 5e-05 1.46608e-10 
211 1 0.194856 0.0170904 0.0073375 0.00606674 0.000235614 0.000176709 -3.85796e-10 -1.41519e-11 -1.17908e-11 5e-05 1.46608e-10 
212 1 0.189243 0.0180487 0.00694628 0.00575985 7.81197e-05 0.000103573 -2.96812e-11 -1.71145e-10 9.44583e-11 5e-05 1.46608e-10 
213 1 0.195166 0.0181108 0.00690524 0.0058041 0.000191651 5.75376e-05 -6.68827e-11 4.28522e-11 -5.0719e-11 5e-05 1.46608e-10 
214 1 0.19479 0.0168246 0.00746032 0.00627616 0.00019901 0.000194007 -1.47675e-10 1.22392e-10 -8.3989e-11 5e-05 1.46608e-10 
215 1 0.183126 0.0183618 0.00691791 0.00557411 -7.59547e-05 -0.000276378 7.76411e-10 -6.19509e-10 1.83189e-10 5e-05 1.46608e-10 
216 1 0.189204 0.0178583 0.00699306 0.00570078 7.86383e-05 0.000106003 2.19867e-11 -7.54153e-11 -2.91509e-12 5e-05 1.46608e-10 
217 1 0.195169 0.0185686 0.00688044 0.00565324 0.000186782 -0.000130357 7.50329e-11 2.14195e-10 -2.14471e-11 5e-05 1.46608e-10 
218 1 0.188518 0.015806 0.00823814 0.00568293 0.000173301 0.000115251 -1.08242e-10 -9.30511e-12 3.69086e-11 5e-05 1.46608e-10 
219 1 0.194725 0.0165664 0.00759724 0.00627134 -4.08822e-05 -0.000148971 2.26439e-10 4.07794e-11 8.66886e-11 5e-05 1.46608e-10 
220 1 0.189318 0.017985 0.00696386 0.00574127 6.68086e-05 0.000109211 1.17828e-10 -1.37553e-10 -1.2574e-11 5e-05 1.46608e-10 
221 1 0.248996 0.0177164 0.0070758 0.00630268 0.000217579 0.000245357 -1.80918e-13 5.37076e-13 -2.77394e-13 5e-05 1.46608e-10 
222 1 0.195242 0.018049 0.00692342 0.0058512 0.000237063 9.80054e-05 -9.56644e-11 3.82096e-11 -1.37146e-10 5e-05 1.46608e-10 
223 1 0.189068 0.0176411 0.00706063 0.00565242 6.5172e-05 7.98404e-05 1.59139e-10 5.4404e-11 1.80167e-10 5e-05 1.46608e-10 
224 1 0.0914965 0.0178001 0.00780201 2.68775e-10 -0.0228468 0.00774827 1.7923e-18 7.03474e-12 2.07075e-11 5e-05 1.46608e-10 
225 1 0.195066 0.0172404 0.00727681 0.00566367 0.000267245 0.000143326 2.41119e-10 -2.09585e-10 1.08354e-10 5e-05 1.46608e-10 
226 1 0.188878 0.0172012 0.00733743 0.00616199 -0.00016609 -0.000181478 1.35312e-11 5.2358e-11 -7.98725e-11 5e-05 1.46608e-10 
227 1 0.183067 0.018071 0.00696227 0.00571273 -0.000127392 -0.000302794 -1.39027e-10 2.32582e-10 -6.89593e-11 5e-05 1.46608e-10 
228 1 0.182892 0.0172505 0.00726265 0.00572614 9.43932e-06 0.000221479 1.48844e-11 1.51419e-10 -2.13935e-11 5e-05 1.46608e-10 
229 1 0.189282 0.0182415 0.00690895 0.00563108 7.79854e-05 -0.000118444 4.4782e-11 -1.46645e-11 1.5156e-11 5e-05 1.46608e-10 
230 1 0.188684 0.0164667 0.007819 0.00607722 0.000134198 0.000177091 1.00103e-12 1.01154e-11 -6.09235e-12 5e-05 1.46608e-10 
231 1 0.182853 0.0170752 0.00735032 0.00581182 -7.72086e-07 0.000227303 5.2641e-10 -3.00989e-10 1.8402e-10 5e-05 1.46608e-10 
232 1 0.189069 0.0180769 0.00693844 0.00574031 7.73618e-05 7.62904e-05 -7.4135e-12 4.20636e-11 6.00258e-11 5e-05 1.46608e-10 
234 1 0.195108 0.0178338 0.0069992 0.00572671 0.000233348 0.000163314 8.00998e-11 1.49801e-10 -2.54646e-11 5e-05 1.46608e-10 
235 1 0.189279 0.0177944 0.00701068 0.00570063 7.38391e-05 0.000105776 1.80357e-10 -9.14696e-11 2.7179e-11 5e-05 1.46608e-10 
236 1 0.18864 0.0163018 0.00792348 0.00605249 0.000135656 0.000174412 -3.40593e-11 -9.4895e-12 1.43686e-11 5e-05 1.46608e-10 
237 1 0.188597 0.0161383 0.00803025 0.00611369 0.000111414 0.000177772 1.08923e-10 1.43846e-10 -5.26192e-11 5e-05 1.46608e-10 
239 1 0.18268 0.0164085 0.00774948 0.00615986 -0.000235324 -0.000134102 -1.56351e-10 -2.34182e-10 1.84197e-10 5e-05 1.46608e-10 
240 1 0.182702 0.0164809 0.00768391 0.00620315 -0.000206849 -0.000130667 -1.04979e-10 8.99234e-12 1.59698e-10 5e-05 1.46608e-10 
241 1 0.182766 0.0167257 0.00752473 0.00623653 2.66888e-05 0.00023198 -1.03076e-10 -5.18903e-11 -8.82057e-11 5e-05 1.46608e-10 
242 1 0.188933 0.0174339 0.00715577 0.00568335 -0.000148568 -0.000146792 -8.21961e-11 1.09531e-10 -1.29222e-09 5e-05 1.46608e-10 
244 1 0.182723 0.0165592 0.00762554 0.00623955 -7.18711e-05 4.29644e-05 -1.0882e-10 3.3062e-10 3.35503e-10 5e-05 1.46608e-10 
246 1 0.182832 0.0169877 0.00739398 0.00618902 -5.21407e-05 0.000269671 6.47854e-13 -3.01788e-10 1.69842e-10 5e-05 1.46608e-10 
247 1 0.189472 0.018305 0.00689563 0.00562218 -1.16219e-05 -0.000108363 5.32063e-10 4.9469e-10 -8.33614e-11 5e-05 1.46608e-10 
248 1 0.188705 0.0165492 0.00776675 0.00608174 0.000123694 0.000182878 6.90099e-13 3.75974e-11 -1.02996e-11 5e-05 1.46608e-10 
249 1 0.183107 0.0182649 0.00693269 0.00556592 -5.85631e-05 -0.000301151 -1.69611e-10 -3.89861e-10 8.61031e-11 5e-05 1.46608e-10 
250 1 0.189008 0.017011 0.00746403 0.00623352 -6.63443e-05 -0.000269286 -3.03062e-10 2.68153e-10 -1.60004e-10 5e-05 1.46608e-10 
251 1 0.194705 0.0164918 0.00766061 0.00622376 -0.000125294 -0.000250632 1.37854e-10 2.62271e-11 1.90126e-10 5e-05 1.46608e-10 
252 1 0.182972 0.0176012 0.00708739 0.00578727 1.52391e-06 0.000227849 -3.12637e-10 1.43459e-10 -1.1557e-10 5e-05 1.46608e-10 
253 1 0.183165 0.018556 0.00688953 0.00560688 -5.50205e-05 -5.90824e-05 2.27039e-10 -4.65397e-10 7.44372e-11 5e-05 1.46608e-10 
254 1 0.18281 0.0169004 0.00743756 0.00622425 -3.17693e-05 0.00026063 5.12503e-12 -2.9531e-10 1.56822e-10 5e-05 1.46608e-10 
255 1 0.18903 0.0178858 0.00698238 0.00570404 0.000107437 9.9734e-05 -3.81256e-12 -9.92062e-11 -5.94016e-12 5e-05 1.46608e-10 
256 1 0.189122 0.0174832 0.00710988 0.00564694 -1.45779e-05 -0.000287359 -1.83186e-10 -5.37503e-10 2.70061e-10 5e-05 1.46608e-10 
257 1 0.189087 0.0173248 0.00722855 0.00557999 -2.69171e-05 -0.000259473 1.90228e-10 -1.51289e-10 2.41672e-12 5e-05 1.46608e-10 
258 1 0.188992 0.0173001 0.00725155 0.00564693 -5.4528e-05 -0.00025323 -2.15684e-10 -2.45345e-12 -3.42981e-11 5e-05 1.46608e-10 
259 1 0.182989 0.0176893 0.00704322 0.00563424 2.66713e-05 0.000207218 -1.01482e-10 2.38579e-10 1.4635e-11 5e-05 1.46608e-10 
261 1 0.188792 0.016879 0.0075578 0.00611314 9.07321e-05 0.000205593 1.66534e-11 8.94143e-11 -5.44693e-11 5e-05 1.46608e-10 