ITEM: TIMESTEP
13400000
ITEM: NUMBER OF ATOMS
287
ITEM: BOX BOUNDS ff ff ff
-0.02 0.43
-0.02 0.06
-0.02 0.07
ITEM: ATOMS id type x y z vx vy vz fx fy fz radius mass 
1 1 0.090922 0.016208 0.00790526 0.0057701 -0.000311045 0.000414766 -5.92564e-11 1.37216e-10 -7.38652e-11 5e-05 1.46608e-10 
2 1 0.0913838 0.0172824 0.0072595 0.00573486 -0.000310789 0.000412952 -6.24179e-11 5.38527e-11 -1.04243e-11 5e-05 1.46608e-10 
3 1 0.0847772 0.016004 0.00808114 0.00560811 0.000204545 7.36998e-05 5.04163e-11 2.00887e-10 -1.52458e-10 5e-05 1.46608e-10 
4 1 0.0912582 0.0175497 0.00709754 0.00573588 -0.000537621 -5.80791e-05 5.77711e-12 1.38237e-10 1.50875e-10 5e-05 1.46608e-10 
5 1 0.0908065 0.0160959 0.00797007 0.00553765 -0.00021601 0.000346878 -2.53352e-10 -1.24328e-10 7.6074e-11 5e-05 1.46608e-10 
6 1 0.0969491 0.0166547 0.00761056 0.00616993 2.21919e-05 3.53925e-06 -1.00839e-10 -1.66965e-10 1.50038e-10 5e-05 1.46608e-10 
7 1 0.090998 0.0168473 0.00751335 0.00605861 -0.000373447 0.000462081 8.4846e-12 4.37636e-11 2.00784e-13 5e-05 1.46608e-10 
8 1 0.0907106 0.0157521 0.00830324 0.00550422 -0.000386625 0.000286864 8.82056e-12 4.06244e-11 2.20794e-11 5e-05 1.46608e-10 
9 1 0.0972186 0.0177856 0.0070937 0.0057807 7.57407e-05 -2.77604e-05 2.57477e-10 2.79979e-11 6.20347e-12 5e-05 1.46608e-10 
10 1 0.0909331 0.016597 0.00766544 0.00604004 -0.000351431 0.000450284 1.08493e-10 1.20799e-10 -5.61271e-11 5e-05 1.46608e-10 
11 1 0.0914217 0.0174501 0.00715737 0.00575398 -0.000319593 0.000420558 -7.0188e-11 -2.21636e-11 1.971e-11 5e-05 1.46608e-10 
12 1 0.0849856 0.0167793 0.00751219 0.00620174 -0.000209272 -0.000213009 -5.10491e-10 -2.86058e-10 -3.10002e-10 5e-05 1.46608e-10 
13 1 0.0907872 0.0160115 0.00802143 0.00554409 -0.000293916 0.000392937 -1.58859e-11 -8.55779e-11 1.48109e-10 5e-05 1.46608e-10 
14 1 0.0846987 0.0157384 0.00836977 0.00559144 0.000205558 7.38452e-05 4.92391e-11 1.05784e-10 -1.14201e-10 5e-05 1.46608e-10 
15 1 0.0911378 0.0170424 0.00739819 0.00609828 -0.000344541 0.000447839 1.39801e-10 -9.83045e-11 7.64697e-11 5e-05 1.46608e-10 
16 1 0.0846791 0.015672 0.00844193 0.00558206 0.000201628 7.7468e-05 -5.409e-12 2.13664e-11 -2.72215e-11 5e-05 1.46608e-10 
17 1 0.0909115 0.0165136 0.00771613 0.00602333 -0.000344201 0.000445425 -7.42381e-11 1.05923e-10 -6.17533e-11 5e-05 1.46608e-10 
18 1 0.0970969 0.0172152 0.00723468 0.00562464 9.24005e-05 -3.09964e-05 8.5924e-11 1.04464e-10 -2.71554e-11 5e-05 1.46608e-10 
19 1 0.0907679 0.0159283 0.00807345 0.00557418 -0.000321624 0.000360552 3.06228e-12 4.84117e-11 9.16879e-11 5e-05 1.46608e-10 
21 1 0.0909014 0.0161244 0.00795611 0.00560519 -0.00027991 0.000389493 1.14913e-10 8.75926e-11 -6.12387e-11 5e-05 1.46608e-10 
22 1 0.0910415 0.0170141 0.00741198 0.00603273 -0.000359335 0.000446073 1.88178e-10 1.44098e-11 1.36062e-10 5e-05 1.46608e-10 
23 1 0.0851683 0.0171717 0.00735817 0.00616295 -0.000102503 5.64607e-07 -1.67776e-11 -1.90992e-11 -2.10346e-11 5e-05 1.46608e-10 
24 1 0.0971577 0.0175004 0.00716419 0.00572494 6.5439e-05 -2.5388e-05 2.84081e-10 5.29004e-11 -1.76387e-11 5e-05 1.46608e-10 
25 1 0.0909764 0.0167639 0.00756404 0.0060624 -0.000364885 0.000459998 -4.7685e-11 -2.9434e-11 -5.49931e-13 5e-05 1.46608e-10 
26 1 0.0970331 0.0169526 0.00735711 0.00630253 -1.94898e-05 3.95603e-05 1.88935e-11 2.19886e-11 -1.55849e-10 5e-05 1.46608e-10 
27 1 0.0850722 0.0171428 0.00736937 0.00616685 -7.67279e-05 -4.94257e-06 -1.4466e-10 -1.97303e-10 9.54584e-11 5e-05 1.46608e-10 
28 1 0.0912402 0.0174622 0.00714289 0.00570302 -0.000327821 0.000441474 -1.14451e-10 -1.655e-11 -8.92832e-11 5e-05 1.46608e-10 
29 1 0.0907484 0.0158507 0.00813341 0.00557725 -0.000375525 0.00029541 -1.47218e-10 -1.72795e-10 -2.23968e-10 5e-05 1.46608e-10 
30 1 0.0912815 0.0172432 0.00727972 0.005984 -0.000358444 0.000454224 -7.38277e-11 3.43778e-11 2.28945e-11 5e-05 1.46608e-10 
31 1 0.0910198 0.0169307 0.00746267 0.00602435 -0.000366726 0.000448186 1.4734e-10 4.656e-11 1.10611e-10 5e-05 1.46608e-10 
32 1 0.0911163 0.016959 0.00744892 0.0059802 -0.000373129 0.000459961 1.25855e-10 -1.33322e-10 8.14551e-11 5e-05 1.46608e-10 
33 1 0.0969701 0.0167292 0.0075472 0.00620202 9.93693e-06 1.37691e-05 3.88452e-11 -1.24905e-10 1.02427e-10 5e-05 1.46608e-10 
34 1 0.0908898 0.0164301 0.00776683 0.00600351 -0.00034072 0.000442385 -6.80667e-11 8.39467e-12 -6.16524e-12 5e-05 1.46608e-10 
35 1 0.0910948 0.0168758 0.00750015 0.00599071 -0.000368245 0.000458285 1.25832e-10 5.23574e-11 -1.30845e-11 5e-05 1.46608e-10 
36 1 0.0972592 0.0179757 0.00704671 0.00581651 7.77959e-05 -2.80451e-05 -1.23935e-11 -1.06766e-10 7.35679e-12 5e-05 1.46608e-10 
37 1 0.0910512 0.0167087 0.00760099 0.00607434 -0.000373906 0.000465647 -8.36194e-12 3.97179e-11 -3.19957e-11 5e-05 1.46608e-10 
38 1 0.0912171 0.016992 0.00743238 0.00607284 -0.000348222 0.000449973 1.34191e-10 -2.09526e-10 1.34103e-10 5e-05 1.46608e-10 
39 1 0.097178 0.0175955 0.00714069 0.00572792 7.03051e-05 -2.60165e-05 1.06653e-10 -1.18754e-10 2.29912e-11 5e-05 1.46608e-10 
41 1 0.0908466 0.0162633 0.00786822 0.00598884 -0.000331263 0.0004356 2.0578e-10 -2.69062e-10 1.76332e-10 5e-05 1.46608e-10 
42 1 0.091063 0.0170976 0.00736126 0.00608916 -0.000362002 0.00046063 7.3319e-11 -8.02557e-11 -9.48908e-12 5e-05 1.46608e-10 
44 1 0.0912388 0.0170755 0.00738169 0.0060814 -0.000352569 0.000453234 3.29652e-10 -9.92435e-11 6.16405e-11 5e-05 1.46608e-10 
45 1 0.0969911 0.0168037 0.00748383 0.00623304 -2.9619e-06 2.4352e-05 2.62868e-11 -7.42074e-11 9.96505e-11 5e-05 1.46608e-10 
46 1 0.0970762 0.0171202 0.00725816 0.00631861 -4.57844e-05 7.50987e-06 7.53636e-11 9.90079e-12 -1.04905e-10 5e-05 1.46608e-10 
47 1 0.0908682 0.0163467 0.00781753 0.00599058 -0.000334949 0.000438159 5.54558e-12 -8.82126e-11 4.51421e-11 5e-05 1.46608e-10 
48 1 0.0911063 0.0172673 0.00726493 0.00611061 -0.000415861 0.000358699 -1.24895e-10 -2.57152e-10 -1.5413e-11 5e-05 1.46608e-10 
49 1 0.0970557 0.0170323 0.00730116 0.00632055 -3.48077e-05 2.74319e-05 2.30681e-10 -1.11352e-10 -3.24869e-10 5e-05 1.46608e-10 
50 1 0.0911641 0.0175215 0.00711656 0.00569164 -0.000543572 -3.54437e-05 -2.29192e-10 8.67021e-12 -2.13573e-11 5e-05 1.46608e-10 
51 1 0.0911449 0.0174355 0.00716391 0.00574164 -0.000490353 9.23333e-05 1.3889e-11 7.50795e-12 2.05308e-10 5e-05 1.46608e-10 
52 1 0.0849639 0.0166897 0.00755082 0.00621243 -0.000232028 -0.000230352 -2.32453e-10 -2.81912e-10 -2.66317e-10 5e-05 1.46608e-10 
53 1 0.0971171 0.0173103 0.00721118 0.00562591 8.72335e-05 -3.03765e-05 -7.21264e-12 1.669e-10 -4.09892e-11 5e-05 1.46608e-10 
54 1 0.0908817 0.0160407 0.00800708 0.00553039 -0.000262295 0.000373456 -1.12925e-10 7.9908e-11 -6.68515e-11 5e-05 1.46608e-10 
55 1 0.084738 0.0158712 0.00822546 0.00560804 0.000211587 6.83136e-05 9.39537e-11 1.80258e-10 -1.90949e-10 5e-05 1.46608e-10 
56 1 0.0910728 0.0167921 0.00755029 0.00607044 -0.000370224 0.000461485 4.65647e-13 4.73128e-11 -2.08406e-11 5e-05 1.46608e-10 
57 1 0.0970122 0.0168781 0.00742048 0.00628153 -1.42858e-05 3.70561e-05 -8.98065e-11 1.87752e-11 -2.02477e-11 5e-05 1.46608e-10 
59 1 0.0911282 0.0166558 0.00763662 0.0060985 -0.000367711 0.000462701 -5.91515e-11 2.71405e-11 -1.64698e-11 5e-05 1.46608e-10 
60 1 0.0911522 0.0167417 0.00758448 0.00613208 -0.00033013 0.000440507 4.9196e-11 1.79298e-10 -1.23276e-10 5e-05 1.46608e-10 
61 1 0.0908258 0.0161797 0.00791904 0.00546582 -0.000258685 0.000376393 2.09368e-09 -8.16057e-10 6.48635e-10 5e-05 1.46608e-10 
62 1 0.0912612 0.0171596 0.00733061 0.00609926 -0.000384312 0.000472177 -1.53298e-10 7.90976e-11 -2.2086e-11 5e-05 1.46608e-10 
63 1 0.0912015 0.017293 0.00724593 0.00600804 -0.000315335 0.00043861 -6.74897e-11 -1.04343e-10 -1.56296e-11 5e-05 1.46608e-10 
64 1 0.0971374 0.0174054 0.00718768 0.00569688 7.14185e-05 -2.61896e-05 -1.21393e-10 1.46377e-10 -3.58773e-11 5e-05 1.46608e-10 
65 1 0.0850817 0.0168059 0.00749497 0.00619594 -0.000211373 -0.000399039 -2.00939e-10 -6.13234e-11 -7.05239e-10 5e-05 1.46608e-10 
66 1 0.0850175 0.0165373 0.00761236 0.00621669 -0.000244106 -0.00026293 -1.12676e-10 1.15948e-10 1.75761e-11 5e-05 1.46608e-10 
67 1 0.0914028 0.0173662 0.00720844 0.00573226 -0.000315386 0.000415761 -1.54681e-10 -1.04022e-11 -1.89905e-11 5e-05 1.46608e-10 
68 1 0.0913188 0.017411 0.00717752 0.00569439 -0.000310828 0.000412871 1.20933e-10 5.87188e-11 6.24301e-11 5e-05 1.46608e-10 
69 1 0.0909863 0.0164584 0.00775308 0.00601798 -0.000362846 0.000456395 -5.38879e-11 7.6686e-11 -4.20717e-11 5e-05 1.46608e-10 
70 1 0.0971983 0.0176905 0.0071172 0.00575947 8.26644e-05 -2.88244e-05 -3.75005e-10 -7.70099e-11 1.69566e-11 5e-05 1.46608e-10 
71 1 0.0847183 0.0158048 0.00829761 0.00559965 0.000208766 7.07416e-05 7.62533e-11 1.69738e-10 -1.75299e-10 5e-05 1.46608e-10 
72 1 0.0912999 0.0173272 0.00722859 0.00572916 -0.000313362 0.000415832 -2.07429e-10 1.08694e-10 -6.55267e-11 5e-05 1.46608e-10 
73 1 0.0909548 0.0166804 0.00761474 0.00604806 -0.000358379 0.000455197 8.75877e-11 -1.42536e-12 -5.05294e-12 5e-05 1.46608e-10 
74 1 0.0911595 0.0171259 0.0073475 0.00608646 -0.0003551 0.000449686 1.52816e-10 -8.83401e-11 1.21343e-10 5e-05 1.46608e-10 
76 1 0.0853038 0.0177377 0.00714935 0.00566169 -7.59867e-05 -9.89766e-07 -4.20648e-11 1.52918e-10 -2.74678e-11 5e-05 1.46608e-10 
77 1 0.0913386 0.0181535 0.00705208 0.00545812 -0.000449509 0.000254479 5.19724e-11 3.28733e-11 2.37594e-12 5e-05 1.46608e-10 
78 1 0.0847968 0.0160704 0.00800898 0.00561199 0.000210155 7.95107e-05 2.66085e-11 1.68868e-10 -2.1263e-10 5e-05 1.46608e-10 
79 1 0.0850073 0.0168696 0.00747487 0.00618873 -0.000159552 -0.000124364 -2.87268e-10 -1.16831e-10 2.18078e-10 5e-05 1.46608e-10 
80 1 0.0912023 0.0177036 0.0070454 0.00574075 -0.000545143 -4.94576e-06 -9.36751e-11 1.14337e-10 -2.05984e-10 5e-05 1.46608e-10 
81 1 0.084943 0.0166001 0.00758995 0.00621264 -0.00024225 -0.000232673 1.71393e-10 -3.12923e-11 -6.03323e-11 5e-05 1.46608e-10 
82 1 0.0850938 0.0172343 0.00733555 0.00616918 -8.18716e-05 -5.18856e-07 -9.97724e-11 -8.22268e-11 -4.59228e-11 5e-05 1.46608e-10 
83 1 0.0850916 0.016474 0.00763503 0.00627677 -0.000179147 -0.000290289 -4.66728e-10 2.30711e-10 -1.03718e-11 5e-05 1.46608e-10 
84 1 0.0972389 0.0178806 0.0070702 0.00580689 7.96284e-05 -2.87758e-05 -8.12819e-11 -8.985e-11 2.80864e-11 5e-05 1.46608e-10 
85 1 0.0848915 0.0160944 0.00798756 0.00552759 0.000205181 7.59635e-05 3.22403e-11 -3.34571e-10 4.45104e-10 5e-05 1.46608e-10 
86 1 0.0912212 0.0173783 0.00719395 0.00569884 -0.000345686 0.000432547 1.80687e-10 -1.70958e-10 1.17996e-10 5e-05 1.46608e-10 
87 1 0.0911061 0.0165719 0.00768761 0.00607645 -0.000358576 0.000455928 -3.03294e-11 -8.71335e-11 5.34093e-11 5e-05 1.46608e-10 
88 1 0.0912429 0.017896 0.00701183 0.00549965 -0.00045979 0.000254858 4.73359e-11 4.17935e-11 -6.87402e-11 5e-05 1.46608e-10 
89 1 0.0912256 0.0178002 0.00703489 0.00563898 -0.000508426 0.000134498 -1.56159e-11 1.5999e-10 -4.55559e-11 5e-05 1.46608e-10 
90 1 0.0913654 0.0171984 0.00731063 0.00600488 -0.00034482 0.000443914 -5.31124e-11 2.17959e-10 -1.33303e-10 5e-05 1.46608e-10 
91 1 0.0850289 0.0169605 0.00743932 0.00617674 -9.89093e-05 -1.185e-05 9.03834e-11 -4.88584e-11 9.52181e-11 5e-05 1.46608e-10 
92 1 0.0913708 0.0176713 0.00703819 0.0056954 -0.000416854 0.000272234 -9.41572e-11 -3.89403e-11 -6.38605e-11 5e-05 1.46608e-10 
93 1 0.0913297 0.0178463 0.00701016 0.00551637 -0.000444707 0.000259051 6.15971e-11 4.03567e-11 -1.24126e-11 5e-05 1.46608e-10 
94 1 0.0914491 0.0179495 0.00703099 0.00549663 -0.000412838 0.000264813 2.49531e-11 6.04694e-12 1.89657e-11 5e-05 1.46608e-10 
95 1 0.091281 0.0177223 0.00710679 0.00553646 -0.000427735 -0.000119018 -1.6617e-10 -3.17507e-10 7.21847e-11 5e-05 1.46608e-10 
96 1 0.0913851 0.0177634 0.0070022 0.00558691 -0.000401406 0.000268744 -7.37037e-12 -2.20706e-11 -5.64253e-11 5e-05 1.46608e-10 
97 1 0.0848988 0.0164243 0.0076742 0.00623414 -0.000231614 -0.000192197 1.50402e-10 6.00464e-10 2.65446e-10 5e-05 1.46608e-10 
98 1 0.0912628 0.0179929 0.00702627 0.00548176 -0.000456502 0.000254479 -6.43445e-12 -3.06109e-12 -9.06157e-12 5e-05 1.46608e-10 
99 1 0.0850602 0.0167164 0.00753409 0.00622078 -0.000196109 -0.000280045 -4.68435e-10 3.65128e-11 2.26292e-10 5e-05 1.46608e-10 
100 1 0.0913111 0.0169647 0.0074529 0.00686928 0.00152885 -0.00067951 1.74567e-10 -9.63004e-11 8.01267e-11 5e-05 1.46608e-10 
101 1 0.0849956 0.0164487 0.00765321 0.00625597 -0.000148467 -7.57473e-06 2.76261e-11 9.99062e-11 -2.71573e-11 5e-05 1.46608e-10 
102 1 0.0643568 0.0187248 0.00531097 4.3158e-15 1.04639e-14 8.29619e-14 -6.94082e-22 6.75367e-22 -4.59085e-23 5e-05 1.46608e-10 
103 1 0.24257 0.0191927 0.00520306 2.73478e-22 -3.03968e-22 1.23839e-22 0 0 0 5e-05 1.46608e-10 
104 1 0.0853449 0.0175756 0.00723064 0.00561568 4.85676e-05 -3.66759e-05 3.68107e-11 2.19891e-10 4.24955e-11 5e-05 1.46608e-10 
105 1 0.0848564 0.0162695 0.00779264 0.00580985 0.000160814 0.00010867 -6.12801e-11 1.49981e-10 -8.7398e-11 5e-05 1.46608e-10 
106 1 0.0854202 0.0175098 0.00723246 0.00563002 8.24458e-05 -5.79913e-05 -5.13317e-11 8.93115e-11 -2.01578e-11 5e-05 1.46608e-10 
107 1 0.0848165 0.0161368 0.00793689 0.00560615 0.00023996 0.000108818 1.06453e-11 -7.22581e-11 -3.29202e-10 5e-05 1.46608e-10 
108 1 0.0910296 0.0166253 0.00765168 0.00605515 -0.000368591 0.000461753 9.06624e-11 3.02855e-12 1.16644e-12 5e-05 1.46608e-10 
109 1 0.0911266 0.017351 0.00721408 0.00596904 -0.000439991 0.000266968 -4.62847e-11 -1.05215e-10 2.20215e-10 5e-05 1.46608e-10 
110 1 0.0915301 0.018008 0.00703581 0.00544031 -0.000245863 -0.00071807 2.44978e-11 6.67213e-12 -3.60756e-11 5e-05 1.46608e-10 
111 1 0.0912911 0.0181366 0.00713844 0.00556852 -0.000502791 0.000301644 -6.68181e-12 -2.6173e-11 -5.60174e-11 5e-05 1.46608e-10 
112 1 0.084921 0.0165107 0.00762904 0.00622573 -0.000252003 -0.000231503 2.43487e-10 1.88387e-10 -1.26544e-10 5e-05 1.46608e-10 
113 1 0.0857449 0.0182949 0.00694205 0.00559212 3.15549e-05 -4.23876e-05 -2.05211e-10 9.21501e-11 -3.91665e-11 5e-05 1.46608e-10 
114 1 0.0852859 0.017292 0.00731327 0.00616587 -7.70809e-05 -5.91231e-06 8.18894e-11 6.33268e-11 -2.45481e-11 5e-05 1.46608e-10 
115 1 0.0911813 0.0172093 0.00729683 0.00610549 -0.000363955 0.000456905 -1.21437e-10 -1.02248e-10 1.51332e-11 5e-05 1.46608e-10 
116 1 0.0910079 0.0165419 0.00770238 0.00603678 -0.000365887 0.000458883 7.84051e-11 -2.23245e-11 1.74703e-11 5e-05 1.46608e-10 
117 1 0.0908625 0.0159568 0.00805811 0.00556699 -0.000272552 0.000379014 1.01479e-11 1.25844e-10 -3.27572e-11 5e-05 1.46608e-10 
118 1 0.0847576 0.0159376 0.0081533 0.00560824 0.000207769 7.11042e-05 8.70472e-11 1.55578e-10 -1.73595e-10 5e-05 1.46608e-10 
119 1 0.0911741 0.0168251 0.00753383 0.00603384 -0.000279821 0.000405562 3.94246e-10 1.72862e-10 -9.07494e-11 5e-05 1.46608e-10 
120 1 0.0907294 0.0158012 0.00821819 0.00554831 -0.000388287 0.000289954 -3.14971e-11 -1.23979e-10 -1.05884e-10 5e-05 1.46608e-10 
121 1 0.0906917 0.015703 0.0083883 0.00548121 -0.000385876 0.000289071 3.15187e-11 -1.42275e-11 1.42161e-11 5e-05 1.46608e-10 
122 1 0.0915253 0.0181075 0.00704481 0.00540307 -0.000246658 -0.000709788 1.12051e-10 2.099e-11 -7.54988e-12 5e-05 1.46608e-10 
123 1 0.0849339 0.0162269 0.00784383 0.0059181 0.000129494 0.000181138 -3.50296e-10 -2.80651e-10 3.5461e-10 5e-05 1.46608e-10 
124 1 0.0912911 0.0177297 0.00700758 0.00559087 -0.000445012 -0.000100492 2.16632e-11 8.19621e-11 3.90721e-11 5e-05 1.46608e-10 
125 1 0.0908429 0.0158728 0.00810928 0.00558874 -0.00028154 0.00039437 -5.46442e-11 -6.48363e-12 -1.93797e-11 5e-05 1.46608e-10 
126 1 0.0910846 0.0171813 0.00731113 0.0060998 -0.000377492 0.000425341 -1.65413e-11 -2.55607e-10 -1.12659e-10 5e-05 1.46608e-10 
127 1 0.0848781 0.0163426 0.00772796 0.00611314 -0.000100022 -4.90428e-05 4.74029e-10 1.38342e-10 -2.15796e-11 5e-05 1.46608e-10 
128 1 0.091182 0.0176095 0.0070725 0.00572267 -0.00055175 -4.78058e-05 -1.28835e-10 2.23007e-11 -2.60145e-10 5e-05 1.46608e-10 
129 1 0.0912627 0.0178782 0.00710823 0.00549091 -0.000467004 0.000261011 1.49267e-10 7.6703e-11 -3.81272e-12 5e-05 1.46608e-10 
130 1 0.0851899 0.0172633 0.00732436 0.00617018 -6.7726e-05 -7.9459e-06 3.37237e-10 1.6143e-10 -6.47128e-11 5e-05 1.46608e-10 
131 1 0.0850385 0.0166269 0.00757322 0.00622173 -0.000229441 -0.000243041 -2.17889e-10 5.27754e-11 -1.07392e-10 5e-05 1.46608e-10 
132 1 0.0912769 0.0176376 0.00705377 0.00574604 -0.000541237 5.78751e-05 -2.35141e-11 1.86223e-10 -1.64963e-10 5e-05 1.46608e-10 
133 1 0.0910181 0.0162366 0.00789131 0.00587063 -0.000355763 0.000446654 -6.47127e-11 -2.94878e-12 -2.03616e-12 5e-05 1.46608e-10 
134 1 0.0911956 0.0169086 0.0074831 0.00600591 -0.000315317 0.000427241 -1.08427e-11 -4.00822e-10 2.53941e-10 5e-05 1.46608e-10 
135 1 0.090824 0.0158148 0.00818855 0.00554547 -0.000397608 0.000305501 9.18942e-11 -9.32104e-11 -1.35931e-10 5e-05 1.46608e-10 
136 1 0.0848719 0.016028 0.00805972 0.00559169 0.000207771 7.04107e-05 -4.66624e-11 -1.02243e-10 1.36865e-10 5e-05 1.46608e-10 
137 1 0.0913155 0.0182501 0.00706377 0.00543871 -0.000453321 0.000253567 1.97766e-11 7.03008e-11 8.13438e-12 5e-05 1.46608e-10 
138 1 0.0909646 0.016375 0.00780378 0.00599448 -0.000352363 0.000449167 -3.02208e-11 1.2621e-10 -8.73193e-11 5e-05 1.46608e-10 
140 1 0.0914384 0.0181552 0.00705808 0.00545784 -0.000417609 0.000259459 9.99158e-11 2.36855e-11 4.94928e-12 5e-05 1.46608e-10 
141 1 0.0849115 0.0161608 0.00791546 0.00567415 0.000170061 0.00011795 -1.66733e-10 -3.65673e-10 4.44392e-10 5e-05 1.46608e-10 
142 1 0.0853065 0.017384 0.00727933 0.00611814 0.000118764 -7.7257e-05 -3.48878e-10 9.49119e-12 -1.65527e-11 5e-05 1.46608e-10 
143 1 0.0848361 0.0162035 0.00786497 0.00564033 0.000269718 0.000140106 -7.18996e-12 1.06111e-10 -4.38805e-11 5e-05 1.46608e-10 
144 1 0.0852643 0.0172004 0.00734707 0.00615189 -7.39943e-05 -7.13158e-06 5.73778e-11 -2.28802e-10 9.08936e-11 5e-05 1.46608e-10 
146 1 0.0851126 0.0165637 0.00759585 0.00623114 -0.000205925 -0.000254815 -2.22837e-10 2.61799e-10 -1.05485e-10 5e-05 1.46608e-10 
147 1 0.0848523 0.0159616 0.00813188 0.00560397 0.000215309 6.21331e-05 -8.4875e-11 7.0585e-11 -8.58188e-11 5e-05 1.46608e-10 
148 1 0.0851574 0.0175094 0.00723409 0.0056671 5.02308e-06 -3.47059e-05 3.97244e-11 6.27508e-11 -5.51425e-11 5e-05 1.46608e-10 
149 1 0.0914405 0.0180544 0.00704463 0.0054733 -0.000397673 0.000262847 -5.95066e-12 1.16404e-11 -1.14069e-11 5e-05 1.46608e-10 
150 1 0.0851558 0.0167426 0.00751762 0.00618485 -0.000159167 -0.000278506 -3.68738e-10 2.6174e-10 -1.23502e-10 5e-05 1.46608e-10 
151 1 0.0855144 0.0175411 0.00722042 0.00564798 2.69279e-05 -4.04064e-05 2.12496e-10 -6.14768e-11 6.79819e-11 5e-05 1.46608e-10 
153 1 0.0849741 0.0163676 0.00770759 0.00621904 -0.000231951 -0.000126091 -2.03082e-10 1.60169e-10 1.25837e-10 5e-05 1.46608e-10 
154 1 0.0852523 0.0175388 0.00722274 0.0056384 2.94855e-05 -4.60786e-05 -2.68723e-12 1.94887e-10 -4.13925e-11 5e-05 1.46608e-10 
155 1 0.0853238 0.0178297 0.00711539 0.00577394 -1.57207e-05 -2.66535e-05 -9.27294e-11 3.94372e-11 -1.41633e-11 5e-05 1.46608e-10 
156 1 0.085232 0.0174468 0.00725667 0.00567826 1.55819e-05 -3.54176e-05 4.62704e-13 2.41083e-10 -1.11332e-10 5e-05 1.46608e-10 
157 1 0.0219312 0.0187687 0.00551176 -3.83779e-14 8.16198e-14 2.95895e-13 -5.57416e-22 1.97231e-22 -1.31108e-22 5e-05 1.46608e-10 
158 1 0.0853215 0.0177006 0.00724095 0.00564873 -2.93355e-05 -1.47854e-05 5.42918e-13 3.16152e-10 -1.10385e-11 5e-05 1.46608e-10 
159 1 0.0913368 0.017495 0.00712633 0.00564688 -0.00031284 0.000402167 2.98413e-10 -1.83333e-11 1.44354e-10 5e-05 1.46608e-10 
160 1 0.0852175 0.0177851 0.00713239 0.00570687 -4.42474e-06 -2.69195e-05 5.53048e-11 1.11282e-10 -1.19078e-11 5e-05 1.46608e-10 
162 1 0.0851774 0.0176013 0.00720019 0.00564197 1.98509e-05 -4.02137e-05 -1.37729e-10 6.6627e-11 -7.64873e-11 5e-05 1.46608e-10 
164 1 0.0854637 0.0181972 0.00697953 0.00557905 8.41471e-06 -3.49015e-05 -2.92917e-11 -6.36054e-11 2.35637e-11 5e-05 1.46608e-10 
165 1 0.0855981 0.0178416 0.00710949 0.00556853 2.00826e-05 -3.86141e-05 1.68155e-11 -2.57664e-10 9.80354e-11 5e-05 1.46608e-10 
166 1 0.0909764 0.0160695 0.00799293 0.00555942 -0.000299052 0.00039975 -4.70962e-11 -3.25773e-10 1.96854e-10 5e-05 1.46608e-10 
167 1 0.0851343 0.0166531 0.00755674 0.00623352 -0.000187017 -0.000270224 -2.38303e-10 2.28383e-10 -8.79322e-11 5e-05 1.46608e-10 
168 1 0.085435 0.0176039 0.00719778 0.00565814 -7.95862e-05 3.64303e-07 -1.45596e-11 1.53137e-10 -2.50461e-11 5e-05 1.46608e-10 
169 1 0.08565 0.0182652 0.00695348 0.00562288 -6.60048e-05 -8.1147e-06 -9.83058e-12 -1.87258e-10 6.69382e-11 5e-05 1.46608e-10 
170 1 0.0854832 0.017717 0.00715595 0.00576377 3.77505e-06 -3.3433e-05 -1.18896e-10 1.14558e-10 -4.92332e-11 5e-05 1.46608e-10 
171 1 0.090997 0.0161531 0.00794208 0.00571829 -0.000323342 0.000420185 1.66107e-10 -2.51764e-10 1.67273e-10 5e-05 1.46608e-10 
172 1 0.0855782 0.0177469 0.00714442 0.005596 1.57709e-05 -3.71399e-05 2.62091e-10 -6.13551e-11 3.0511e-11 5e-05 1.46608e-10 
173 1 0.0914542 0.0176186 0.00705452 0.00577903 -0.000261419 0.000395341 -3.84e-11 8.14388e-11 -1.97461e-10 5e-05 1.46608e-10 
174 1 0.085408 0.0177789 0.0071336 0.00577285 -2.88141e-06 -3.11805e-05 -2.2918e-10 -6.77193e-11 2.47728e-11 5e-05 1.46608e-10 
175 1 0.0791313 0.0173813 0.00719425 0.00579411 0.000162067 -1.77217e-05 -2.24407e-10 -1.38408e-10 5.03691e-10 5e-05 1.46608e-10 
176 1 0.0852115 0.0173549 0.00729056 0.00617124 -5.18126e-05 -1.52905e-05 -3.7638e-11 -1.05035e-10 3.08865e-11 5e-05 1.46608e-10 
177 1 0.0852572 0.0179691 0.00706469 0.00559469 -6.76977e-06 -3.08992e-05 2.02255e-10 4.87408e-11 2.59387e-12 5e-05 1.46608e-10 
178 1 0.0856941 0.0181809 0.00698423 0.00563746 -6.09807e-05 -9.0387e-06 -6.90664e-11 -2.40776e-10 8.61181e-11 5e-05 1.46608e-10 
179 1 0.0856016 0.0181453 0.00699782 0.00558425 4.78203e-05 -4.84959e-05 9.38079e-12 -2.43079e-10 7.9334e-11 5e-05 1.46608e-10 
181 1 0.0851934 0.0176798 0.00726549 0.00552733 5.40398e-05 -3.32034e-05 1.00241e-10 -1.91949e-11 -1.43132e-10 5e-05 1.46608e-10 
182 1 0.0909431 0.0162915 0.00785449 0.00590773 -0.000333832 0.000433766 -1.66397e-10 1.15419e-10 -7.96993e-11 5e-05 1.46608e-10 
183 1 0.085388 0.0176869 0.00716755 0.00565181 -8.80328e-05 5.87388e-07 -1.25876e-10 1.17612e-10 1.26106e-11 5e-05 1.46608e-10 
184 1 0.0912807 0.0175417 0.00719466 0.0053308 -0.000109848 -1.37332e-05 -2.63387e-10 3.0701e-10 -1.24333e-10 5e-05 1.46608e-10 
185 1 0.0851369 0.0174175 0.00726796 0.00612415 -7.30756e-05 -7.54874e-06 -7.35051e-11 -4.06087e-11 1.74719e-12 5e-05 1.46608e-10 
186 1 0.0852017 0.0175847 0.00729578 0.00565828 4.66382e-05 -4.52421e-05 -1.67434e-10 3.99575e-11 -1.71978e-10 5e-05 1.46608e-10 
187 1 0.091289 0.01688 0.00750436 0.0067571 0.00145153 -0.000636226 1.05654e-10 -1.99822e-10 1.24833e-10 5e-05 1.46608e-10 
188 1 0.0913496 0.0179433 0.00702438 0.00549392 -0.000441859 0.000258742 1.71756e-11 1.86962e-11 -5.26977e-12 5e-05 1.46608e-10 
189 1 0.0913414 0.0171102 0.00736421 0.00611244 -0.000382329 0.00047228 -1.99105e-10 1.62519e-10 -1.22834e-10 5e-05 1.46608e-10 
190 1 0.0792452 0.0174949 0.0071291 0.00386104 -0.00105815 -0.00202355 -7.1727e-08 5.49975e-08 1.39511e-07 5e-05 1.46608e-10 
191 1 0.0913354 0.0183471 0.00707798 0.00542077 -0.000449705 0.00025324 1.28209e-11 8.32192e-11 1.2614e-11 5e-05 1.46608e-10 
192 1 0.0853809 0.0173212 0.00730202 0.0062851 0.000296459 -0.000144359 -6.21801e-10 4.3742e-10 -1.54889e-10 5e-05 1.46608e-10 
193 1 0.0910837 0.0164876 0.00773879 0.00603025 -0.000373702 0.000463386 1.81353e-11 -1.78619e-10 1.08435e-10 5e-05 1.46608e-10 
194 1 0.0851993 0.0169253 0.00744855 0.00611714 -7.00185e-05 -6.50417e-06 -4.37911e-10 2.60843e-10 -3.56701e-11 5e-05 1.46608e-10 
195 1 0.0856051 0.0179551 0.00706773 0.00557303 8.49664e-06 -3.39259e-05 2.23313e-10 -1.78066e-11 7.68494e-12 5e-05 1.46608e-10 
196 1 0.0846595 0.0156056 0.00851409 0.00557561 0.000198003 8.1142e-05 -8.57343e-12 -3.60186e-11 3.92298e-11 5e-05 1.46608e-10 
197 1 0.0791897 0.0176404 0.0070552 0.00581975 0.000269921 0.000236721 3.63625e-11 5.21624e-13 1.07213e-10 5e-05 1.46608e-10 
198 1 0.0850506 0.0170511 0.00740314 0.00616679 -7.48895e-05 6.05612e-06 2.04042e-10 -2.16549e-10 9.1503e-12 5e-05 1.46608e-10 
199 1 0.0851979 0.0176932 0.0071665 0.00563669 2.24757e-05 -3.8589e-05 2.29851e-10 1.23121e-11 -8.03861e-11 5e-05 1.46608e-10 
200 1 0.0851467 0.0170801 0.00739196 0.00616434 -8.98995e-05 3.84867e-07 -1.16911e-10 -7.77157e-12 8.91373e-12 5e-05 1.46608e-10 
201 1 0.0856024 0.0183478 0.00692337 0.00564195 -5.48445e-05 -1.26178e-05 -9.24714e-11 -2.05791e-10 9.62492e-11 5e-05 1.46608e-10 
202 1 0.0854015 0.0174132 0.00726809 0.00602371 0.000370629 -0.00017015 -2.65353e-10 4.45101e-10 -1.47168e-10 5e-05 1.46608e-10 
203 1 0.0916037 0.017942 0.00702086 0.0054526 -0.000236151 -0.000716445 -2.5622e-12 -5.24064e-11 -5.37503e-12 5e-05 1.46608e-10 
204 1 0.0851252 0.0169885 0.00742576 0.00614018 -6.83102e-05 -5.39522e-07 -1.76596e-11 -2.73079e-11 -2.01916e-11 5e-05 1.46608e-10 
205 1 0.0854509 0.0180642 0.00707656 0.00558373 1.70608e-05 -3.74949e-05 8.38883e-11 -1.01901e-10 5.43458e-11 5e-05 1.46608e-10 
206 1 0.085428 0.0178712 0.0071 0.00559007 7.03926e-06 -3.27112e-05 2.15865e-10 -1.04544e-10 3.53922e-11 5e-05 1.46608e-10 
207 1 0.0849533 0.0162932 0.00777163 0.00611038 0.000110002 0.000219451 3.37369e-10 -2.30443e-10 3.09038e-10 5e-05 1.46608e-10 
208 1 0.0852727 0.0176306 0.00718887 0.00562252 2.6895e-05 -3.49618e-05 2.15834e-10 6.76392e-11 5.06545e-11 5e-05 1.46608e-10 
209 1 0.0851774 0.0168337 0.00748237 0.00620031 -4.89573e-05 -2.14451e-05 -2.41887e-10 2.71975e-10 -1.20987e-10 5e-05 1.46608e-10 
210 1 0.0911678 0.0174298 0.00726106 0.0055529 -0.000140881 0.000174023 -7.87748e-11 1.1031e-10 9.72902e-11 5e-05 1.46608e-10 
211 1 0.0914293 0.0178521 0.00701671 0.00551457 -0.00042269 0.000264068 9.53281e-11 2.24994e-11 -1.85353e-12 5e-05 1.46608e-10 
212 1 0.085503 0.0178089 0.00712203 0.00559623 1.43427e-05 -3.62631e-05 3.90086e-10 5.79682e-11 -3.62434e-11 5e-05 1.46608e-10 
213 1 0.0912666 0.0167945 0.00755628 0.00670772 0.0011864 -0.000473825 5.53057e-10 -3.2059e-10 2.13965e-10 5e-05 1.46608e-10 
214 1 0.0913476 0.0178254 0.0071063 0.00549195 -0.000448291 0.000263856 -9.71444e-11 -1.08514e-10 3.48512e-11 5e-05 1.46608e-10 
215 1 0.0792259 0.0174097 0.00717819 0.00586752 9.66991e-05 -3.3755e-05 2.99708e-10 -3.49669e-10 2.26027e-10 5e-05 1.46608e-10 
216 1 0.0852374 0.0178771 0.00709848 0.00576828 -3.01524e-05 -2.14316e-05 1.97801e-12 1.44907e-10 -3.78849e-12 5e-05 1.46608e-10 
217 1 0.09104 0.0163204 0.0078404 0.00600502 -0.00034229 0.000443172 -1.01589e-10 1.63187e-11 -1.25292e-11 5e-05 1.46608e-10 
218 1 0.0853639 0.01802 0.00705506 0.0055854 3.73678e-06 -3.28842e-05 6.5451e-11 -3.67226e-11 1.55548e-11 5e-05 1.46608e-10 
219 1 0.0912747 0.0180414 0.00711293 0.00550232 -0.000484499 0.000269077 2.43052e-11 -4.54427e-12 -7.34132e-11 5e-05 1.46608e-10 
220 1 0.0852636 0.0178527 0.00719186 0.00577739 -2.54691e-05 -2.04536e-05 4.76375e-11 -7.31767e-11 4.08429e-12 5e-05 1.46608e-10 
221 1 0.0791257 0.0169841 0.00742313 0.00621476 5.46381e-05 -1.35082e-05 -1.83864e-10 1.18077e-10 -6.53145e-11 5e-05 1.46608e-10 
222 1 0.091062 0.0164042 0.00778949 0.00603158 -0.000371149 0.000462024 -3.4725e-10 -1.6181e-10 8.72937e-11 5e-05 1.46608e-10 
223 1 0.0853271 0.0174759 0.00724543 0.00564482 7.39838e-05 -5.81251e-05 -1.38966e-10 1.18079e-10 -3.09682e-11 5e-05 1.46608e-10 
224 1 0.0851153 0.0173259 0.00730176 0.00616269 -8.15593e-05 -1.72609e-06 -7.30215e-11 2.51162e-11 -6.55051e-11 5e-05 1.46608e-10 
225 1 0.0913556 0.0175822 0.00708104 0.00575737 -0.000417912 0.000283087 -7.514e-11 5.17939e-11 1.03992e-10 5e-05 1.46608e-10 
226 1 0.0855298 0.0176338 0.00718625 0.0057477 8.84805e-06 -3.66114e-05 -1.24813e-10 7.23848e-11 -1.4115e-11 5e-05 1.46608e-10 
227 1 0.0791877 0.0172395 0.00727613 0.00575649 0.0001292 -5.8807e-05 -1.33584e-10 -2.23962e-11 -6.30336e-11 5e-05 1.46608e-10 
228 1 0.0791504 0.0174665 0.00714542 0.00590713 0.000220626 0.000153501 2.52007e-11 1.5189e-10 -2.7427e-11 5e-05 1.46608e-10 
229 1 0.0852426 0.0177601 0.0072259 0.00566374 -1.47897e-05 -1.27946e-05 -2.14935e-10 9.67279e-11 1.51986e-10 5e-05 1.46608e-10 
230 1 0.0855213 0.0184028 0.00690361 0.00564097 -4.66857e-05 -1.68467e-05 4.56749e-11 -1.44561e-11 1.34595e-11 5e-05 1.46608e-10 
231 1 0.0791122 0.0172963 0.00724322 0.00572617 0.000143287 -7.04402e-05 1.49591e-11 -1.1133e-10 2.1431e-10 5e-05 1.46608e-10 
232 1 0.085068 0.0163842 0.00767751 0.00630737 4.9526e-06 0.000348683 -1.42949e-10 -1.08773e-10 1.39846e-10 5e-05 1.46608e-10 
233 1 0.085221 0.0170171 0.0074147 0.00616991 -0.000106899 5.13502e-06 -7.93153e-11 2.24059e-10 -7.48432e-11 5e-05 1.46608e-10 
234 1 0.0913406 0.0180544 0.00703884 0.00547403 -0.000446579 0.00025464 -8.43816e-12 2.06939e-11 1.78976e-12 5e-05 1.46608e-10 
235 1 0.0854812 0.0186507 0.00689575 0.00556128 -2.19622e-05 5.6888e-05 -4.1132e-11 -3.30363e-11 -4.8432e-12 5e-05 1.46608e-10 
236 1 0.0855423 0.0184986 0.00688385 0.00557279 -3.18468e-05 3.59238e-06 1.1467e-11 8.06632e-11 -3.77496e-11 5e-05 1.46608e-10 
237 1 0.0856397 0.0185364 0.00685386 0.00550906 -0.000113534 1.60378e-05 9.18453e-11 1.31809e-10 3.01224e-12 5e-05 1.46608e-10 
239 1 0.0789208 0.0165341 0.00768186 0.00620545 9.14221e-05 -3.46556e-05 -5.6489e-11 -2.28673e-10 1.30897e-10 5e-05 1.46608e-10 
240 1 0.0789859 0.0167879 0.00753579 0.00621489 6.38058e-05 -1.84204e-05 -1.49035e-12 7.79812e-11 -3.79866e-11 5e-05 1.46608e-10 
241 1 0.0788991 0.0164495 0.00773055 0.00620421 0.000101204 -4.03154e-05 -4.2208e-11 -1.7889e-10 1.02708e-10 5e-05 1.46608e-10 
242 1 0.0853384 0.0171372 0.00736988 0.00610359 -0.000122135 1.07258e-05 7.79202e-11 -2.56979e-11 6.9969e-12 5e-05 1.46608e-10 
243 1 0.0851034 0.0168969 0.00745955 0.00618368 -6.55656e-05 -1.38055e-05 -1.40893e-10 4.68215e-12 -6.58343e-11 5e-05 1.46608e-10 
244 1 0.0789425 0.0166187 0.00763317 0.00620586 7.80276e-05 -2.68581e-05 -4.00353e-11 -1.96698e-10 1.14545e-10 5e-05 1.46608e-10 