ITEM: TIMESTEP
37200000
ITEM: NUMBER OF ATOMS
271
ITEM: BOX BOUNDS ff ff ff
-0.02 0.43
-0.02 0.06
-0.02 0.07
ITEM: ATOMS id type x y z vx vy vz fx fy fz radius mass 
1 1 0.229451 0.0156101 0.00847577 0.00594906 0.000464336 -1.84901e-05 -4.02065e-11 1.65722e-11 6.73845e-11 5e-05 1.46608e-10 
2 1 0.230312 0.0183596 0.00695614 0.00630692 0.000247305 2.2159e-05 -1.52362e-11 6.96835e-11 -9.47771e-11 5e-05 1.46608e-10 
3 1 0.224355 0.0178419 0.00699438 0.00617339 -0.000260287 -0.000202343 3.68702e-10 -3.81209e-10 -1.03388e-10 5e-05 1.46608e-10 
4 1 0.230391 0.0183024 0.00697768 0.00629465 0.000234093 3.15077e-05 -6.39316e-11 -2.27686e-11 4.85817e-11 5e-05 1.46608e-10 
5 1 0.229431 0.0155698 0.0085651 0.00620708 0.000421654 2.38745e-05 -4.51934e-11 5.4516e-11 1.65849e-10 5e-05 1.46608e-10 
6 1 0.235827 0.0170574 0.0073123 0.00548049 -0.000618813 0.000413533 2.62616e-11 -6.88207e-12 8.10867e-12 5e-05 1.46608e-10 
7 1 0.22953 0.0158605 0.00818875 0.00590481 0.000203088 -0.000377326 1.4631e-10 -7.54765e-11 -1.13803e-10 5e-05 1.46608e-10 
8 1 0.229407 0.0155189 0.00864772 0.00621788 0.000442009 4.40048e-05 2.49453e-11 -2.74463e-11 1.60489e-10 5e-05 1.46608e-10 
9 1 0.235945 0.0175966 0.00708073 0.00551022 -0.000887048 -0.000104626 -1.48397e-10 1.83054e-10 4.58424e-10 5e-05 1.46608e-10 
10 1 0.229991 0.0178402 0.00718237 0.00606116 0.000159585 -0.000456116 -6.18977e-11 8.18054e-11 -1.15743e-10 5e-05 1.46608e-10 
11 1 0.230129 0.0180436 0.00707544 0.00617898 0.000149554 -0.000332526 -1.01661e-10 4.61964e-12 2.38068e-10 5e-05 1.46608e-10 
12 1 0.223463 0.0158184 0.00856729 0.00591644 0.000297299 0.000209672 2.93699e-12 2.28649e-11 -5.41605e-11 5e-05 1.46608e-10 
13 1 0.229343 0.0153818 0.00890672 0.00615005 0.000450981 2.48313e-05 8.18771e-11 8.8549e-11 -1.57176e-10 5e-05 1.46608e-10 
14 1 0.224143 0.0184977 0.00697095 0.00616781 -0.000122813 0.000117901 6.84288e-11 3.78359e-10 -1.08701e-11 5e-05 1.46608e-10 
15 1 0.230342 0.01822 0.00700576 0.00627654 0.000237058 2.88789e-05 1.60451e-10 5.44127e-11 -2.90603e-11 5e-05 1.46608e-10 
16 1 0.224242 0.0185331 0.00697197 0.0061642 -7.26988e-05 0.000116782 -4.30825e-11 -1.01054e-10 1.50504e-11 5e-05 1.46608e-10 
17 1 0.230467 0.0183649 0.00695702 0.00626205 0.000215919 3.6872e-05 -8.61125e-11 -1.51021e-10 7.43542e-11 5e-05 1.46608e-10 
19 1 0.229386 0.0154732 0.00873406 0.00620249 0.000447588 3.72682e-05 1.18406e-10 -6.56809e-11 1.18421e-10 5e-05 1.46608e-10 
21 1 0.229951 0.0176656 0.00727098 0.00595065 0.000162251 -0.000454129 4.13626e-12 9.39126e-11 -4.87557e-11 5e-05 1.46608e-10 
22 1 0.23011 0.0179555 0.00711838 0.006123 0.000126562 -0.000403928 -3.3225e-11 -3.46009e-11 -4.10548e-12 5e-05 1.46608e-10 
23 1 0.22371 0.0163682 0.0081127 0.00624575 -1.70469e-05 0.000507063 -2.5567e-10 -9.81218e-11 8.29711e-11 5e-05 1.46608e-10 
24 1 0.236025 0.0179773 0.00699174 0.006031 -0.000881357 0.000181021 -7.15609e-11 2.43532e-11 -7.33902e-12 5e-05 1.46608e-10 
25 1 0.229592 0.0161215 0.00805453 0.00584699 0.00018859 -0.000462264 2.08852e-10 7.849e-11 -2.64732e-10 5e-05 1.46608e-10 
26 1 0.235905 0.0174128 0.00714907 0.00552549 -0.000892847 -9.34987e-05 5.58425e-12 9.47801e-13 2.88205e-12 5e-05 1.46608e-10 
27 1 0.224442 0.018233 0.00698278 0.00620082 -0.000114688 0.000118407 -4.46715e-10 -2.37773e-10 -8.37003e-13 5e-05 1.46608e-10 
28 1 0.230248 0.0181709 0.00702136 0.00623836 0.000315303 4.38276e-07 -3.87562e-11 1.38182e-10 -1.27247e-10 5e-05 1.46608e-10 
29 1 0.229553 0.0159465 0.00814318 0.00585948 0.000170675 -0.000464518 -1.7385e-10 8.73997e-11 -1.73524e-10 5e-05 1.46608e-10 
30 1 0.230108 0.0181368 0.00712759 0.00622969 0.00030448 -0.000160139 1.06471e-10 4.00518e-10 3.65018e-10 5e-05 1.46608e-10 
31 1 0.229611 0.016209 0.0080102 0.00580037 0.000206488 -0.000462562 3.13819e-10 -8.58657e-11 -4.90207e-10 5e-05 1.46608e-10 
32 1 0.230089 0.0174462 0.00737039 0.005816 9.83537e-05 -0.000414513 9.19547e-11 -9.59434e-11 4.30704e-11 5e-05 1.46608e-10 
33 1 0.235846 0.0171423 0.00726324 0.00553101 -0.000627732 0.000421155 3.67375e-11 7.65188e-12 2.52006e-11 5e-05 1.46608e-10 
34 1 0.229508 0.0157772 0.00823934 0.00582494 0.000340451 -0.000195234 -1.00562e-11 -1.64952e-10 -1.38502e-10 5e-05 1.46608e-10 
35 1 0.230227 0.0178129 0.00718094 0.00603435 5.01332e-05 -0.000403617 -1.0983e-10 4.20575e-12 8.84367e-12 5e-05 1.46608e-10 
36 1 0.236003 0.0178814 0.00701026 0.0060092 -0.000883034 0.000181363 6.43227e-11 -4.35167e-11 7.77892e-12 5e-05 1.46608e-10 
37 1 0.230149 0.0185212 0.00689641 0.0063482 0.000306083 -9.68346e-09 -3.94149e-10 1.48367e-10 -9.03974e-11 5e-05 1.46608e-10 
38 1 0.230304 0.0188368 0.00684152 0.00578685 0.000385001 -4.93402e-05 4.39554e-11 6.65602e-11 -9.77485e-11 5e-05 1.46608e-10 
39 1 0.236047 0.0180732 0.00697322 0.00604133 -0.000884761 0.000181664 -1.86229e-12 3.11031e-11 -1.37512e-12 5e-05 1.46608e-10 
41 1 0.230488 0.0184572 0.00692495 0.0061659 0.000228149 2.82375e-05 -1.84848e-10 5.16407e-11 -1.75654e-11 5e-05 1.46608e-10 
42 1 0.321436 0.0173475 0.00552525 4.61078e-16 2.2548e-15 8.4636e-14 -1.63821e-24 5.16988e-25 0 5e-05 1.46608e-10 
44 1 0.230258 0.0182709 0.00698638 0.00628321 0.000278247 1.27308e-05 -5.3944e-11 -1.69471e-10 1.26183e-10 5e-05 1.46608e-10 
45 1 0.235866 0.017229 0.0072174 0.00553457 -0.000897113 -9.48787e-05 -2.72538e-11 7.08611e-12 -3.08291e-11 5e-05 1.46608e-10 
47 1 0.22947 0.0156567 0.00838938 0.00585121 0.000497816 -2.61502e-05 -6.7656e-12 6.6453e-12 2.48312e-11 5e-05 1.46608e-10 
48 1 0.230284 0.018741 0.00682155 0.00576862 0.00038051 -3.20536e-05 1.42162e-10 9.22321e-11 -2.33612e-11 5e-05 1.46608e-10 
50 1 0.229652 0.0163833 0.0079217 0.00581735 0.000207255 -0.000474629 -1.44008e-10 7.4174e-11 -9.8309e-11 5e-05 1.46608e-10 
51 1 0.229631 0.0162985 0.0079705 0.0057931 0.000212195 -0.000473991 -1.28552e-11 -2.78724e-11 -3.40034e-10 5e-05 1.46608e-10 
52 1 0.223378 0.0155191 0.00881862 0.00602521 0.000280222 0.000233632 2.56862e-10 4.8099e-10 -2.92701e-10 5e-05 1.46608e-10 
53 1 0.235984 0.0177852 0.00702885 0.00568293 -0.000818085 0.000167859 1.13245e-11 -2.96037e-11 1.36325e-11 5e-05 1.46608e-10 
54 1 0.230226 0.0184967 0.00696971 0.00633721 0.000294477 -5.42619e-05 -7.84002e-10 2.26567e-10 -9.9743e-11 5e-05 1.46608e-10 
55 1 0.223314 0.0152971 0.00900985 0.00611148 -0.000232465 -0.000320116 -2.31497e-10 -9.8372e-11 1.26974e-09 5e-05 1.46608e-10 
56 1 0.23017 0.0186135 0.00686432 0.00638436 0.000291471 8.29093e-06 -3.41223e-11 2.63223e-10 -1.15892e-10 5e-05 1.46608e-10 
57 1 0.235886 0.0173209 0.00718323 0.00553133 -0.000893878 -9.35633e-05 -1.51832e-11 2.60892e-11 -2.15995e-11 5e-05 1.46608e-10 
59 1 0.230088 0.0178682 0.00716242 0.00607076 0.000114952 -0.000440036 1.74919e-11 -6.99486e-11 -5.15382e-11 5e-05 1.46608e-10 
61 1 0.229934 0.0171958 0.00750353 0.00569392 0.000208602 -0.000461677 -2.46335e-10 1.62137e-10 -6.45832e-11 5e-05 1.46608e-10 
62 1 0.230436 0.0186182 0.00686741 0.00627011 0.000580502 -9.14657e-05 1.62837e-10 2.33879e-12 -3.95826e-11 5e-05 1.46608e-10 
63 1 0.230448 0.0182251 0.00700587 0.00625512 0.000208188 3.89526e-05 2.38591e-10 6.36647e-12 -1.63244e-11 5e-05 1.46608e-10 
64 1 0.236068 0.018169 0.0069547 0.0060554 -0.000887125 0.00018235 -9.96704e-12 2.808e-12 -1.01545e-12 5e-05 1.46608e-10 
65 1 0.22366 0.016491 0.00800289 0.0064361 6.53749e-05 0.000454559 8.00914e-10 9.74584e-11 1.55617e-10 5e-05 1.46608e-10 
66 1 0.223292 0.0152362 0.00908612 0.00611391 -0.000385196 -0.000376588 5.46691e-10 3.10375e-11 1.01588e-09 5e-05 1.46608e-10 
67 1 0.230223 0.0184013 0.00693991 0.00632806 0.000287343 -5.11707e-06 -2.01706e-11 1.71182e-10 -1.44514e-10 5e-05 1.46608e-10 
68 1 0.230145 0.0176161 0.00728309 0.00589173 8.04886e-05 -0.000410502 1.17509e-10 -2.87396e-11 2.26177e-12 5e-05 1.46608e-10 
69 1 0.230193 0.0186075 0.00696137 0.00643878 0.000292434 6.03473e-06 -1.11767e-10 -1.08498e-10 -1.72727e-10 5e-05 1.46608e-10 
70 1 0.235925 0.0175047 0.0071149 0.00551809 -0.000890881 -9.49232e-05 -2.90041e-11 -1.37363e-11 4.64977e-11 5e-05 1.46608e-10 
71 1 0.223357 0.0154443 0.00888145 0.00604528 0.000294763 0.000234601 2.28842e-11 3.73187e-10 -5.35032e-10 5e-05 1.46608e-10 
72 1 0.230095 0.0182905 0.00702319 0.00623397 0.000356534 -0.000110276 -7.89904e-11 -2.66218e-11 -3.63972e-10 5e-05 1.46608e-10 
73 1 0.230208 0.0188043 0.00683654 0.00576417 0.000357481 -6.081e-05 -7.37182e-11 -2.24988e-10 1.71484e-10 5e-05 1.46608e-10 
74 1 0.230267 0.0186498 0.00685886 0.00584869 0.000368842 -5.91985e-05 2.19942e-10 2.5858e-10 4.11706e-11 5e-05 1.46608e-10 
76 1 0.224368 0.0183005 0.00697982 0.00617638 -0.000113017 0.000117358 1.07481e-10 -4.4072e-11 -1.20955e-11 5e-05 1.46608e-10 
77 1 0.230186 0.0178954 0.00714291 0.0060761 6.46255e-05 -0.000415505 1.59386e-11 7.87277e-12 2.43903e-11 5e-05 1.46608e-10 
78 1 0.224121 0.0184001 0.00697285 0.00618668 -9.63427e-05 0.000116336 2.53473e-12 1.00678e-10 7.85889e-12 5e-05 1.46608e-10 
79 1 0.223421 0.0156688 0.00869295 0.00597354 0.000299968 0.000214007 6.43814e-11 8.85766e-11 -6.20095e-11 5e-05 1.46608e-10 
80 1 0.230414 0.0185199 0.00690158 0.00631452 0.000376234 -1.93005e-05 3.24596e-11 2.22716e-10 -7.30679e-11 5e-05 1.46608e-10 
81 1 0.224264 0.0186307 0.00697007 0.00614956 -4.18081e-05 0.000115364 -5.32012e-11 -1.5522e-10 -3.07118e-12 5e-05 1.46608e-10 
82 1 0.223485 0.0158931 0.0085046 0.00585794 0.000283082 0.000217636 -1.38633e-10 4.549e-13 1.2049e-11 5e-05 1.46608e-10 
83 1 0.224178 0.0182402 0.00697769 0.00617999 -0.000141741 0.000112218 1.5121e-10 -3.89972e-11 -5.44398e-11 5e-05 1.46608e-10 
84 1 0.235964 0.0176889 0.00704746 0.00551209 -0.000786209 0.000163705 -1.87506e-11 -6.80805e-12 4.97724e-12 5e-05 1.46608e-10 
85 1 0.224377 0.0179397 0.00698849 0.00622436 -0.000197761 0.000123656 3.60669e-10 -1.94801e-10 3.01343e-11 5e-05 1.46608e-10 
86 1 0.230508 0.0185531 0.00689158 0.00644482 0.000760967 -0.000153864 2.07162e-11 -9.50888e-12 2.77972e-11 5e-05 1.46608e-10 
87 1 0.230382 0.0187764 0.0068264 0.00581067 0.000412769 -4.21296e-05 -2.61975e-11 7.32589e-11 -2.48995e-11 5e-05 1.46608e-10 
88 1 0.229823 0.017079 0.00756811 0.0056391 0.000262614 -0.000483588 -1.74706e-10 5.43483e-11 -8.78394e-12 5e-05 1.46608e-10 
89 1 0.230361 0.0186803 0.00684424 0.00581765 0.000413382 -4.22169e-05 6.68641e-11 1.26222e-10 -5.77472e-11 5e-05 1.46608e-10 
90 1 0.23015 0.0181324 0.00703428 0.00622866 0.000272982 -2.15375e-05 -8.48453e-11 -1.28031e-10 -1.91742e-10 5e-05 1.46608e-10 
91 1 0.224421 0.0181354 0.00698469 0.00619109 -8.27289e-05 0.000118304 3.37045e-10 3.6995e-11 -3.3973e-11 5e-05 1.46608e-10 
92 1 0.230248 0.018558 0.00689367 0.00639391 0.000301523 -1.39815e-05 -5.40961e-11 3.0158e-10 -1.24199e-10 5e-05 1.46608e-10 
93 1 0.229693 0.0165578 0.0078332 0.00575911 0.000211671 -0.000490519 8.36791e-11 5.58132e-11 1.4554e-10 5e-05 1.46608e-10 
94 1 0.230205 0.0181181 0.00714144 0.00619627 0.000296795 -4.39055e-06 1.84302e-10 2.83775e-10 1.035e-10 5e-05 1.46608e-10 
95 1 0.230062 0.017834 0.00725263 0.00603748 0.000123188 -0.000437536 -1.54828e-11 3.54045e-11 -9.40331e-11 5e-05 1.46608e-10 
96 1 0.229714 0.0166449 0.00778888 0.00568358 0.000243833 -0.000479494 -2.49983e-10 3.56833e-11 6.56274e-11 5e-05 1.46608e-10 
97 1 0.223781 0.0165935 0.00792405 0.00591984 0.000737618 -0.000173425 7.2944e-10 -9.02109e-12 -6.26227e-11 5e-05 1.46608e-10 
98 1 0.230231 0.0180776 0.00705385 0.00619162 0.000220938 3.40114e-05 -1.5005e-10 1.25349e-10 -8.15162e-11 5e-05 1.46608e-10 
99 1 0.223876 0.0169692 0.00760762 0.00553336 0.000178707 0.000282697 5.8188e-10 1.16629e-10 9.77056e-11 5e-05 1.46608e-10 
100 1 0.230342 0.0185855 0.00687724 0.00634751 0.000398591 -2.93752e-05 1.09122e-10 3.06593e-10 -4.72308e-11 5e-05 1.46608e-10 
101 1 0.223442 0.0157436 0.00863012 0.0059507 0.000303272 0.000205964 4.16088e-11 5.57727e-11 -1.68411e-11 5e-05 1.46608e-10 
102 1 0.0643568 0.0187248 0.00531097 4.12589e-15 1.05501e-14 8.29607e-14 -1.65269e-21 9.89592e-22 -4.1359e-23 5e-05 1.46608e-10 
103 1 0.24257 0.0191927 0.00520306 3.10422e-23 2.24983e-22 1.23839e-22 0 0 0 5e-05 1.46608e-10 
104 1 0.224069 0.0177576 0.00703384 0.00620634 -0.000147811 -9.12681e-05 -7.17656e-11 4.49124e-10 -5.45125e-11 5e-05 1.46608e-10 
105 1 0.224494 0.0180678 0.00698766 0.00623158 -1.23138e-05 0.000118968 9.04133e-10 -7.79133e-10 9.36559e-12 5e-05 1.46608e-10 
106 1 0.224311 0.0176563 0.00704946 0.00618058 -5.90616e-05 0.000536716 6.75096e-10 -1.59737e-10 2.40081e-10 5e-05 1.46608e-10 
107 1 0.224292 0.0175799 0.00711381 0.00616769 1.73554e-05 0.00046198 4.97006e-10 -4.85938e-10 3.58409e-10 5e-05 1.46608e-10 
108 1 0.230238 0.0187436 0.00691024 0.00572424 0.000417448 -5.42631e-05 1.07057e-10 -1.12003e-10 1.30895e-10 5e-05 1.46608e-10 
109 1 0.230436 0.0181314 0.00703858 0.00620465 0.000228272 2.891e-05 -1.96669e-10 -1.50835e-10 6.64127e-11 5e-05 1.46608e-10 
110 1 0.229738 0.0167334 0.0077493 0.00560844 0.000272889 -0.00047822 -2.16696e-10 2.33485e-11 9.11499e-11 5e-05 1.46608e-10 
111 1 0.230066 0.017722 0.00723592 0.00598842 0.000110672 -0.000430397 4.18975e-11 -1.01718e-11 4.19002e-12 5e-05 1.46608e-10 
112 1 0.224134 0.0180449 0.00698149 0.00624327 -0.000203682 0.000132741 2.66616e-10 1.57072e-10 1.49813e-10 5e-05 1.46608e-10 
113 1 0.223747 0.0167899 0.00775205 0.00465531 0.000373644 3.75823e-05 5.36016e-10 -4.0995e-10 3.6294e-10 5e-05 1.46608e-10 
114 1 0.224099 0.0183025 0.00697476 0.00618567 -0.000146901 0.000116332 -3.98009e-12 -2.81946e-10 9.54396e-12 5e-05 1.46608e-10 
115 1 0.230336 0.0181258 0.00703878 0.00620918 0.000284001 1.39678e-05 -8.1894e-11 1.29503e-10 -2.6303e-11 5e-05 1.46608e-10 
116 1 0.230138 0.0184854 0.00701535 0.00615032 0.00033521 -0.000460469 -1.00243e-09 -1.94725e-10 3.36277e-10 5e-05 1.46608e-10 
117 1 0.230249 0.0189968 0.00687798 0.00579937 0.000412637 -4.23899e-05 3.41382e-12 1.66572e-10 3.27859e-11 5e-05 1.46608e-10 
118 1 0.223932 0.0175485 0.00711263 0.00564942 7.5927e-05 0.000384695 2.84808e-10 -1.15227e-09 1.04744e-09 5e-05 1.46608e-10 
119 1 0.230298 0.0179437 0.00711206 0.00610366 4.31321e-05 -0.00040529 -6.58355e-11 2.59446e-11 -2.26554e-12 5e-05 1.46608e-10 
120 1 0.22957 0.016035 0.0080996 0.00582701 0.000183254 -0.000476749 3.32571e-11 1.16302e-10 -2.17848e-10 5e-05 1.46608e-10 
121 1 0.229488 0.0157018 0.0083018 0.00579325 0.000461847 -5.70177e-05 -2.60549e-10 -1.15715e-10 -2.42098e-11 5e-05 1.46608e-10 
122 1 0.230026 0.0175471 0.00732458 0.00584905 0.000133851 -0.000433698 -1.43605e-10 3.80437e-11 -1.05821e-11 5e-05 1.46608e-10 
123 1 0.223893 0.0173915 0.00724483 0.0055912 0.0002668 0.000197429 4.32717e-10 -1.84961e-11 9.05987e-11 5e-05 1.46608e-10 
124 1 0.230045 0.0176347 0.00728023 0.0059389 0.000116869 -0.000431041 -1.15081e-10 1.22564e-11 1.08517e-11 5e-05 1.46608e-10 
125 1 0.230324 0.0189326 0.00686212 0.00579004 0.000395461 -4.40286e-05 -5.72217e-11 9.11863e-11 7.6897e-11 5e-05 1.46608e-10 
126 1 0.229956 0.0172885 0.00745644 0.00573724 0.000173527 -0.000445792 -1.04225e-10 5.13633e-11 -2.04681e-11 5e-05 1.46608e-10 
127 1 0.224516 0.0181655 0.00698575 0.00616314 4.955e-05 0.000114257 2.62633e-10 5.65807e-11 1.59526e-11 5e-05 1.46608e-10 
128 1 0.229991 0.0174642 0.00736769 0.00583252 0.000144994 -0.000437445 8.38405e-11 -2.78166e-11 3.54401e-12 5e-05 1.46608e-10 
129 1 0.230053 0.018103 0.00705136 0.00622083 0.0002822 -0.000144836 -8.33334e-11 -2.17189e-11 2.07833e-10 5e-05 1.46608e-10 
131 1 0.224333 0.0177451 0.00700915 0.00626992 -0.000382284 -0.00017789 -1.26919e-10 -1.77441e-10 3.42035e-10 5e-05 1.46608e-10 
132 1 0.230167 0.0182251 0.00700084 0.00625679 0.000326003 4.07249e-06 -3.16731e-11 3.92498e-11 -1.3676e-11 5e-05 1.46608e-10 
133 1 0.230012 0.0179275 0.00713806 0.00610112 0.000144963 -0.000493722 1.59455e-11 -7.36287e-11 -2.57675e-10 5e-05 1.46608e-10 
134 1 0.229962 0.0173791 0.00741145 0.00579228 0.00016565 -0.00044322 -4.2891e-11 2.95006e-11 -1.39738e-11 5e-05 1.46608e-10 
135 1 0.229364 0.0154275 0.00882039 0.00617496 0.000451696 2.9087e-05 -2.39576e-11 2.42878e-13 -3.8137e-11 5e-05 1.46608e-10 
136 1 0.224165 0.0185959 0.00696904 0.00616079 -8.47028e-05 0.000116839 -1.58984e-10 -4.00698e-10 1.12605e-11 5e-05 1.46608e-10 
137 1 0.229674 0.0164718 0.00788054 0.00583025 0.000192411 -0.00049976 2.59544e-10 -8.44196e-12 4.67273e-11 5e-05 1.46608e-10 
138 1 0.230184 0.0183087 0.00706657 0.00629699 0.000309724 -1.12077e-05 1.51904e-10 2.85561e-10 2.47671e-10 5e-05 1.46608e-10 
140 1 0.230208 0.0179858 0.00709696 0.0061143 4.86664e-05 -0.000408433 -1.94081e-11 6.10241e-11 3.93592e-11 5e-05 1.46608e-10 
141 1 0.224156 0.0181426 0.00697966 0.00619963 -0.000167612 0.000138115 1.71707e-10 -5.93596e-12 9.85353e-11 5e-05 1.46608e-10 
142 1 0.223874 0.0173164 0.00730809 0.00555515 0.000248807 0.000216129 2.28578e-10 -2.98038e-10 2.39463e-10 5e-05 1.46608e-10 
143 1 0.223336 0.0153695 0.00894428 0.00605974 0.00028908 0.00021057 -6.03246e-11 4.38451e-10 7.78548e-10 5e-05 1.46608e-10 
144 1 0.223991 0.0178159 0.00701218 0.00624306 -0.000131035 -0.000221632 -1.56486e-10 1.27533e-10 3.70896e-10 5e-05 1.46608e-10 
147 1 0.224221 0.0184354 0.00697388 0.00617866 -0.000101465 0.000117699 -6.4959e-11 4.84122e-11 -1.3813e-11 5e-05 1.46608e-10 
148 1 0.223971 0.0169964 0.00759164 0.00569852 -4.85964e-05 0.000487068 -2.08217e-11 4.44772e-11 -8.52825e-11 5e-05 1.46608e-10 
149 1 0.229835 0.0171709 0.00753081 0.00568956 0.000251183 -0.000481825 -4.87654e-11 4.1707e-11 -1.64847e-11 5e-05 1.46608e-10 
150 1 0.0100679 0.0201683 0.00551526 8.38431e-15 1.25122e-15 -8.48743e-14 -1.21234e-23 3.96336e-23 -6.20385e-25 5e-05 1.46608e-10 
151 1 0.223836 0.0171662 0.00743465 0.00584599 0.00016658 0.000336504 4.04889e-12 2.54374e-10 -3.87847e-11 5e-05 1.46608e-10 
153 1 0.224208 0.0187912 0.00696523 0.00615426 -1.38658e-05 0.000115036 -1.84276e-11 -1.34357e-10 2.77456e-12 5e-05 1.46608e-10 
154 1 0.223951 0.0176236 0.00704938 0.00567931 -4.99227e-05 0.000605498 1.40032e-09 1.09769e-09 3.82983e-10 5e-05 1.46608e-10 
155 1 0.224159 0.0174021 0.00725673 0.00569808 -8.03335e-06 0.000455282 -1.02859e-10 7.15323e-10 -6.31167e-10 5e-05 1.46608e-10 
156 1 0.224113 0.017948 0.0069931 0.00629669 -0.000222115 2.89337e-05 1.35694e-10 3.1869e-10 -1.09112e-11 5e-05 1.46608e-10 
157 1 0.0219312 0.0187687 0.00551176 -3.83774e-14 8.16392e-14 2.95889e-13 -9.86413e-23 -1.54011e-22 2.81241e-23 5e-05 1.46608e-10 
158 1 0.224347 0.0182029 0.00698172 0.00618686 -0.000121833 0.000118961 -8.45041e-11 -1.65569e-10 6.90135e-12 5e-05 1.46608e-10 
159 1 0.230457 0.0187107 0.00683529 0.00601226 0.000629559 -0.000116217 -2.14585e-10 -4.18813e-11 5.06903e-11 5e-05 1.46608e-10 
160 1 0.223971 0.017719 0.00702691 0.00587934 -0.00015613 -0.000158082 1.32264e-12 -1.96277e-10 -1.26959e-09 5e-05 1.46608e-10 
162 1 0.224285 0.0187283 0.00696817 0.00614998 -2.71919e-05 0.000115492 -5.34665e-11 -1.72835e-10 5.43756e-12 5e-05 1.46608e-10 
164 1 0.223842 0.0168187 0.00773471 0.00484931 0.000164623 0.000238899 2.52572e-10 -2.77743e-10 2.24134e-10 5e-05 1.46608e-10 
165 1 0.224164 0.0177826 0.0070103 0.00632964 -0.000233518 -0.000168655 3.61586e-11 2.65521e-10 -2.34811e-10 5e-05 1.46608e-10 
166 1 0.230188 0.0187064 0.00683198 0.00574646 0.000356627 -2.77425e-05 -6.76256e-12 -2.07665e-10 9.31817e-11 5e-05 1.46608e-10 
168 1 0.223894 0.0170444 0.00754417 0.0056809 0.000257061 0.000214692 1.51262e-10 -4.76619e-10 6.05668e-10 5e-05 1.46608e-10 
169 1 0.224338 0.0185634 0.00697303 0.006155 -2.25698e-05 0.000115275 1.66635e-11 -1.69678e-10 5.59232e-12 5e-05 1.46608e-10 
170 1 0.224235 0.0177133 0.00701751 0.00637357 -0.000197933 -0.000160313 -3.40432e-11 -3.27966e-10 2.94172e-10 5e-05 1.46608e-10 
171 1 0.230128 0.0182293 0.00709513 0.00690539 -4.53969e-05 -0.000757834 3.33043e-11 1.9261e-10 -1.70282e-10 5e-05 1.46608e-10 
172 1 0.224143 0.0176931 0.00705253 0.00611312 -0.000149665 0.000225821 -2.48168e-10 2.46115e-10 -1.11713e-10 5e-05 1.46608e-10 
173 1 0.230388 0.0184222 0.00693548 0.00628993 0.000220766 3.24839e-05 -7.15e-12 7.7372e-11 -8.32763e-11 5e-05 1.46608e-10 
174 1 0.224178 0.0174772 0.00719348 0.00601287 7.57638e-05 0.000409368 -6.15633e-10 7.04979e-10 -6.23823e-10 5e-05 1.46608e-10 
175 1 0.217845 0.0171713 0.00733299 0.00552448 -0.000421366 -4.25662e-05 -1.72492e-10 1.07239e-10 -6.07665e-11 5e-05 1.46608e-10 
177 1 0.224008 0.0171467 0.00746493 0.00557848 0.000115924 0.000339958 1.38494e-10 -3.35635e-10 3.06206e-10 5e-05 1.46608e-10 
178 1 0.223931 0.0171947 0.00741755 0.00551971 0.000251604 0.00021638 5.51865e-10 -4.41491e-10 3.29575e-10 5e-05 1.46608e-10 
179 1 0.224006 0.0174952 0.00716436 0.00576435 0.000116721 0.000342124 2.02235e-10 1.18015e-10 1.01838e-10 5e-05 1.46608e-10 
181 1 0.224295 0.018368 0.00697685 0.0061675 -0.000112913 0.000117856 1.0723e-11 -1.52029e-11 -7.37739e-12 5e-05 1.46608e-10 
182 1 0.230032 0.018015 0.0070943 0.00615717 0.000182348 -0.000391725 1.40594e-11 -5.76957e-11 -5.24969e-11 5e-05 1.46608e-10 
183 1 0.224217 0.0176272 0.00706718 0.00611949 -4.88282e-05 0.000477323 -2.87858e-10 -1.58167e-10 2.35308e-10 5e-05 1.46608e-10 
184 1 0.230056 0.0180002 0.0071902 0.00612564 9.18288e-05 -0.000401396 -2.04339e-10 -1.73846e-10 -1.09987e-10 5e-05 1.46608e-10 
186 1 0.223818 0.017091 0.00749802 0.0057106 7.08544e-05 0.000376149 9.53562e-11 -4.35686e-10 7.2071e-10 5e-05 1.46608e-10 
187 1 0.22993 0.0175782 0.00731529 0.00588669 0.000177665 -0.000446082 1.27259e-10 4.33479e-11 -4.59574e-11 5e-05 1.46608e-10 
188 1 0.230126 0.0175287 0.00732743 0.00584269 8.67447e-05 -0.000410478 1.56544e-10 -7.01456e-11 3.0534e-11 5e-05 1.46608e-10 
189 1 0.230173 0.0183193 0.00696782 0.00629511 0.00031562 1.33241e-06 -1.04622e-11 3.85105e-11 7.23133e-11 5e-05 1.46608e-10 
190 1 0.218135 0.0184586 0.00698345 0.00611147 -0.000318739 0.000275497 -7.89785e-12 -3.01067e-11 1.03846e-11 5e-05 1.46608e-10 
191 1 0.23017 0.0177025 0.00723899 0.00596783 6.66512e-05 -0.00040784 1.51115e-10 -3.0633e-11 2.6501e-11 5e-05 1.46608e-10 
192 1 0.224117 0.0175977 0.00708466 0.00609569 5.28134e-05 0.000416276 -2.28502e-10 -1.32335e-10 2.09662e-10 5e-05 1.46608e-10 
193 1 0.230319 0.0180325 0.00707126 0.00619744 0.000221736 3.18144e-05 -3.63208e-10 6.44372e-11 -1.14602e-11 5e-05 1.46608e-10 
194 1 0.161461 0.0182058 0.00533758 1.53724e-15 -1.10121e-14 8.66683e-14 1.22066e-21 1.67607e-22 1.44757e-24 5e-05 1.46608e-10 
195 1 0.224325 0.0181052 0.00698362 0.00621306 -0.000137223 0.000118142 1.91769e-10 -1.66978e-10 -4.95065e-11 5e-05 1.46608e-10 
196 1 0.223734 0.0164429 0.00805017 0.00645265 9.91595e-05 0.000423411 -1.37672e-10 -3.7497e-10 3.38487e-10 5e-05 1.46608e-10 
197 1 0.217904 0.017404 0.00715367 0.00557634 -0.000322614 9.78994e-05 8.2587e-11 -5.97117e-11 1.31543e-10 5e-05 1.46608e-10 
198 1 0.224186 0.0186935 0.00696713 0.00615632 -3.3422e-05 0.000115738 -4.15911e-11 -1.86703e-10 1.25625e-12 5e-05 1.46608e-10 
199 1 0.224078 0.0182048 0.00697666 0.00619296 -0.000171961 0.000122173 4.96188e-11 -2.18945e-10 3.5506e-11 5e-05 1.46608e-10 
201 1 0.223728 0.0167149 0.00781515 0.00473693 0.000344156 6.89007e-05 -3.93543e-10 -2.85087e-10 3.13373e-10 5e-05 1.46608e-10 
202 1 0.224208 0.0179774 0.00698446 0.00626787 -0.000180524 0.000107825 2.87214e-10 5.63715e-11 1.29258e-10 5e-05 1.46608e-10 
203 1 0.229754 0.0168193 0.00770042 0.00556224 0.000281216 -0.000488459 -3.5303e-12 -1.9646e-11 3.98812e-11 5e-05 1.46608e-10 
204 1 0.223399 0.0155939 0.00875579 0.00599851 0.000286926 0.000223681 4.11731e-11 1.74205e-10 -2.21239e-10 5e-05 1.46608e-10 
205 1 0.224281 0.0179095 0.00698748 0.00625256 -0.000209354 -0.000198139 5.61367e-10 6.16149e-11 6.85438e-10 5e-05 1.46608e-10 
206 1 0.223803 0.0166685 0.00786113 0.00451475 0.000188095 0.000193746 -6.20821e-10 7.09579e-10 -6.5242e-10 5e-05 1.46608e-10 
207 1 0.223912 0.0171196 0.00748082 0.00563762 0.000233811 0.000230558 -1.18381e-10 -5.02146e-10 4.22434e-10 5e-05 1.46608e-10 
208 1 0.224091 0.0178514 0.00700675 0.00630731 -0.000219621 -0.000164258 -1.75818e-10 3.07689e-10 -2.91581e-10 5e-05 1.46608e-10 
209 1 0.220787 0.0171177 0.00723641 0.00597514 0.000976152 -0.000371257 -1.52212e-13 4.07625e-14 3.60291e-15 5e-05 1.46608e-10 
210 1 0.229971 0.0177529 0.00722667 0.0060067 0.000160552 -0.000455428 3.05329e-11 1.17063e-10 -5.94244e-11 5e-05 1.46608e-10 
211 1 0.229921 0.0175279 0.00740122 0.00587365 0.000190109 -0.000441083 1.04518e-10 1.71935e-11 -5.33538e-11 5e-05 1.46608e-10 
212 1 0.22423 0.0180751 0.00698255 0.00623145 -0.000166717 0.000120222 1.28651e-10 -1.88705e-11 -3.0511e-12 5e-05 1.46608e-10 
213 1 0.230127 0.0184289 0.00692849 0.00632396 0.000307192 -4.85837e-06 -1.51407e-10 -1.09511e-10 1.53752e-10 5e-05 1.46608e-10 
214 1 0.229856 0.0172542 0.00747965 0.00571928 0.000238369 -0.000478186 -1.27797e-10 7.81493e-11 -2.94696e-11 5e-05 1.46608e-10 
215 1 0.218113 0.0183619 0.00699632 0.00610973 -0.000321464 0.000275685 -2.21616e-11 -5.7545e-11 6.59143e-12 5e-05 1.46608e-10 
216 1 0.224186 0.01788 0.00699541 0.00633581 -0.000239062 -0.000200462 -2.45349e-10 -1.71315e-10 -6.3768e-10 5e-05 1.46608e-10 
217 1 0.230229 0.0189007 0.00685729 0.00578567 0.000377443 -4.81797e-05 -6.31172e-11 -2.01627e-10 -5.89267e-11 5e-05 1.46608e-10 
218 1 0.22351 0.0159675 0.00844246 0.00582028 0.000257508 0.000235898 -2.59543e-11 -2.00486e-10 1.62744e-10 5e-05 1.46608e-10 
219 1 0.229796 0.0169944 0.00761426 0.00557515 0.000285164 -0.000485891 -1.65145e-10 3.12494e-11 -1.49669e-12 5e-05 1.46608e-10 
220 1 0.224303 0.0180076 0.00698552 0.00625148 -0.000160627 0.000114637 2.68607e-10 1.09693e-11 -1.46475e-11 5e-05 1.46608e-10 
221 1 0.283866 0.0172149 0.00723578 0.00593782 0.00162374 -0.000741801 7.86638e-12 2.62367e-11 -1.6138e-11 5e-05 1.46608e-10 
222 1 0.230313 0.0184847 0.00691217 0.00636361 0.00028272 5.28835e-06 -9.69646e-11 1.59433e-10 -5.94553e-11 5e-05 1.46608e-10 
223 1 0.224048 0.0176702 0.00707753 0.00617239 5.41991e-05 0.000272507 3.99517e-10 5.65709e-10 -1.44881e-10 5e-05 1.46608e-10 
224 1 0.0327482 0.0181217 0.00771344 -0.00175008 -0.01492 0.0035204 1.35332e-10 -3.07134e-10 8.72628e-11 5e-05 1.46608e-10 
225 1 0.230133 0.0177868 0.00719979 0.00602355 8.89963e-05 -0.00042189 7.4051e-11 -7.44092e-11 1.96757e-11 5e-05 1.46608e-10 
226 1 0.223855 0.0172413 0.00737134 0.00547713 0.000229795 0.00023386 -1.00634e-09 -7.65099e-11 -2.21885e-11 5e-05 1.46608e-10 
227 1 0.218048 0.0180715 0.00703495 0.00610628 -0.00033602 0.000277336 4.73657e-11 -2.18777e-11 -1.05181e-12 5e-05 1.46608e-10 
228 1 0.217864 0.0172463 0.00726966 0.00555534 -0.000427766 -4.19684e-05 1.92942e-10 5.22911e-11 -8.14032e-11 5e-05 1.46608e-10 
229 1 0.224273 0.0182704 0.00697875 0.00618506 -0.000126776 0.000117187 8.1208e-11 4.54145e-11 -3.18489e-11 5e-05 1.46608e-10 
230 1 0.223683 0.0165656 0.00794042 0.00631228 4.21444e-05 0.00042797 2.51722e-09 -2.25292e-10 3.59001e-10 5e-05 1.46608e-10 
231 1 0.217826 0.0170962 0.00739636 0.00547943 -0.000416028 -4.73433e-05 -2.5371e-10 1.27622e-10 -3.63317e-11 5e-05 1.46608e-10 
232 1 0.224056 0.018107 0.00697859 0.00619749 -0.000248415 0.000196179 1.40395e-10 2.29441e-10 -2.35371e-10 5e-05 1.46608e-10 
234 1 0.230073 0.018192 0.0070108 0.0062565 0.000329595 -4.50302e-06 1.82538e-11 -7.44522e-11 1.08147e-10 5e-05 1.46608e-10 
235 1 0.22426 0.0178124 0.0070023 0.00634716 -0.0002804 -0.000234609 -5.15972e-10 -4.44626e-10 -1.36763e-10 5e-05 1.46608e-10 
236 1 0.223636 0.0164165 0.00806521 0.00628545 6.74622e-05 0.000439835 -4.12014e-10 5.84387e-11 -2.59389e-11 5e-05 1.46608e-10 
237 1 0.223591 0.0162678 0.00819108 0.0059577 0.000119197 0.000367919 3.54535e-11 -1.30924e-10 6.59272e-11 5e-05 1.46608e-10 
239 1 0.217673 0.0164962 0.00790297 0.00639883 -0.000640694 7.16985e-05 8.63478e-12 5.22701e-11 -6.32907e-11 5e-05 1.46608e-10 
240 1 0.217693 0.0165711 0.00783968 0.00511473 -0.000398238 -3.61901e-05 -3.83356e-10 2.74403e-10 -1.97321e-10 5e-05 1.46608e-10 
241 1 0.21775 0.0167962 0.00764966 0.00536997 -0.000417187 -3.85164e-05 6.38122e-11 -2.49902e-11 8.79141e-12 5e-05 1.46608e-10 
242 1 0.223912 0.0174666 0.00718157 0.00564579 0.00029317 0.000184817 -1.92451e-10 -2.55556e-10 -2.59502e-10 5e-05 1.46608e-10 
244 1 0.217711 0.0166462 0.00777632 0.00524971 -0.000417949 -2.94405e-05 -2.62128e-10 2.02723e-10 -1.53029e-10 5e-05 1.46608e-10 
246 1 0.217807 0.0170212 0.00745969 0.0054715 -0.00041388 -4.95308e-05 2.71654e-11 -1.90341e-11 1.03243e-11 5e-05 1.46608e-10 
247 1 0.224464 0.0183308 0.00698088 0.00613079 -2.17692e-05 0.000115073 1.0085e-10 -2.56853e-11 4.68915e-12 5e-05 1.46608e-10 
248 1 0.223706 0.0166402 0.00787787 0.00544117 0.000221309 0.000223022 1.16959e-09 -9.40202e-10 7.59193e-10 5e-05 1.46608e-10 
249 1 0.218091 0.0182651 0.00700918 0.00610849 -0.000326145 0.000276457 -5.59837e-11 -8.11998e-11 8.46881e-12 5e-05 1.46608e-10 
250 1 0.223989 0.0170716 0.00752831 0.00566163 3.41185e-05 0.000417002 3.42454e-10 -2.43531e-10 2.23739e-10 5e-05 1.46608e-10 
251 1 0.22978 0.0169052 0.00765645 0.00554102 0.000289709 -0.000490394 1.91756e-10 -4.21641e-11 3.60963e-11 5e-05 1.46608e-10 
252 1 0.217943 0.01759 0.00709913 0.00586337 -0.000309459 0.000265835 -4.64471e-11 -2.76037e-11 -2.25772e-11 5e-05 1.46608e-10 
253 1 0.218156 0.0185554 0.00697058 0.00610993 -0.000315271 0.000274669 -1.34935e-11 -9.46363e-11 9.67383e-12 5e-05 1.46608e-10 
254 1 0.217788 0.0169463 0.00752299 0.00542109 -0.000408301 -5.05431e-05 -1.62022e-10 -1.01856e-10 3.66271e-11 5e-05 1.46608e-10 
255 1 0.224013 0.0179127 0.00699741 0.00624864 -0.000219117 -0.000183771 1.21137e-10 2.77254e-10 -1.75127e-10 5e-05 1.46608e-10 
256 1 0.224101 0.0175223 0.00714849 0.00594701 9.09107e-05 0.000388331 -1.36619e-09 -8.91229e-10 6.16985e-10 5e-05 1.46608e-10 
257 1 0.224063 0.0173722 0.00727495 0.00564203 0.000155583 0.000309676 2.72236e-10 -4.84138e-10 3.99753e-10 5e-05 1.46608e-10 
258 1 0.223968 0.017345 0.00729093 0.0055744 0.000269971 0.000200472 9.12673e-10 3.22949e-10 -3.13255e-10 5e-05 1.46608e-10 
259 1 0.217962 0.0176875 0.00708607 0.00611155 -0.000356181 0.000220052 4.27366e-11 1.98299e-11 2.98924e-11 5e-05 1.46608e-10 
261 1 0.223782 0.0169405 0.00762497 0.00544229 0.000289995 0.000181926 1.30364e-09 -7.14776e-10 7.52574e-10 5e-05 1.46608e-10 