ITEM: TIMESTEP
24200000
ITEM: NUMBER OF ATOMS
273
ITEM: BOX BOUNDS ff ff ff
-0.02 0.43
-0.02 0.06
-0.02 0.07
ITEM: ATOMS id type x y z vx vy vz fx fy fz radius mass 
1 1 0.153596 0.0157102 0.00885209 0.00576281 0.000130475 -3.67351e-05 5.83652e-11 1.48053e-10 -2.28914e-10 5e-05 1.46608e-10 
2 1 0.154178 0.0170132 0.00746602 0.00586145 -0.00048107 -0.000691312 -2.26513e-11 1.87942e-10 6.15532e-11 5e-05 1.46608e-10 
3 1 0.148523 0.0176462 0.00724718 0.00587079 -0.000935493 0.000435805 6.98403e-12 2.50699e-12 -1.56603e-12 5e-05 1.46608e-10 
4 1 0.15398 0.0164499 0.00779139 0.00570354 -0.000292351 0.000278414 2.11238e-10 1.34715e-10 7.96909e-11 5e-05 1.46608e-10 
5 1 0.153574 0.015657 0.00893392 0.00577054 0.000141974 -5.28385e-05 1.06369e-10 8.45826e-11 -1.02523e-10 5e-05 1.46608e-10 
6 1 0.159985 0.0169262 0.00744039 0.00541409 -0.000941173 0.000182804 -1.25609e-11 -3.00898e-12 2.69241e-12 5e-05 1.46608e-10 
7 1 0.153683 0.015923 0.008525 0.00656618 1.75944e-05 0.000163589 3.66705e-13 1.84801e-10 -2.64255e-10 5e-05 1.46608e-10 
8 1 0.153553 0.0156037 0.00901591 0.00577228 0.000135045 -4.12821e-05 1.96911e-10 -1.94907e-10 3.08439e-10 5e-05 1.46608e-10 
9 1 0.160111 0.0174616 0.00720434 0.00595736 -0.000879319 0.000626767 -1.74816e-11 2.06384e-11 -2.35386e-12 5e-05 1.46608e-10 
10 1 0.154138 0.017631 0.00746084 0.00569973 -0.00042565 -0.000271232 -1.27773e-10 -5.82994e-11 -4.69623e-11 5e-05 1.46608e-10 
11 1 0.1542 0.0171106 0.00745947 0.00583455 -0.000468466 -0.00069397 2.4004e-11 8.52391e-11 5.12273e-12 5e-05 1.46608e-10 
12 1 0.147869 0.0165 0.00783751 0.00547461 -0.00125017 -0.000352514 -1.14024e-11 5.7622e-11 -3.02789e-11 5e-05 1.46608e-10 
13 1 0.153487 0.0154441 0.00926122 0.00577137 8.89539e-05 2.94661e-05 3.77429e-11 1.02049e-10 -1.62792e-10 5e-05 1.46608e-10 
14 1 0.149051 0.0189456 0.00680208 0.00494597 0.000389486 -3.7534e-05 -1.10333e-10 -2.12185e-10 -1.05495e-10 5e-05 1.46608e-10 
15 1 0.154075 0.016483 0.00763882 0.00554231 -0.000302378 0.000242403 2.20894e-10 5.97779e-12 1.29097e-10 5e-05 1.46608e-10 
16 1 0.148669 0.0187306 0.00687027 0.00576736 -0.000564885 0.000307045 2.55909e-10 -2.48786e-10 6.29745e-11 5e-05 1.46608e-10 
17 1 0.15409 0.0166282 0.00751833 0.00553333 -0.000266897 0.000129375 -1.85465e-10 3.61247e-10 3.57212e-10 5e-05 1.46608e-10 
19 1 0.15353 0.0155506 0.00909756 0.0057669 0.000110875 -5.28033e-06 9.28419e-11 -1.83359e-10 2.81381e-10 5e-05 1.46608e-10 
21 1 0.154115 0.0175357 0.00744052 0.00577668 -0.000446501 -0.000271715 1.30532e-11 -1.13255e-10 7.56664e-11 5e-05 1.46608e-10 
22 1 0.154069 0.016538 0.00755556 0.00554425 -0.000197761 0.000311906 1.80419e-10 1.81836e-10 1.49204e-12 5e-05 1.46608e-10 
23 1 0.147971 0.0167118 0.00765303 0.00566697 -0.00131213 -0.000349791 9.69988e-11 -4.66313e-11 4.23397e-11 5e-05 1.46608e-10 
24 1 0.160177 0.0177443 0.00712809 0.005966 -0.000884424 0.000628809 2.89328e-12 1.43668e-11 -6.82217e-12 5e-05 1.46608e-10 
25 1 0.153892 0.0162092 0.00808781 0.00533686 -3.88549e-05 0.000271169 -2.57489e-10 -1.91265e-10 1.65583e-10 5e-05 1.46608e-10 
26 1 0.160068 0.0172779 0.00726903 0.0059151 -0.00105101 0.000211839 2.81835e-11 8.51941e-13 -2.73224e-11 5e-05 1.46608e-10 
27 1 0.148502 0.0175539 0.00727909 0.00587873 -0.000936274 0.000436368 -1.53366e-10 -2.97182e-12 4.92692e-13 5e-05 1.46608e-10 
28 1 0.154135 0.0168185 0.00748207 0.00564817 -0.000419995 -0.000575068 7.6789e-11 1.52024e-10 -2.8024e-10 5e-05 1.46608e-10 
29 1 0.153707 0.015976 0.00844364 0.00712079 -5.75507e-05 0.000294404 1.53346e-10 1.49667e-10 -2.72525e-10 5e-05 1.46608e-10 
30 1 0.154222 0.0175492 0.00749479 0.00577777 -0.000407728 -0.000313957 3.92427e-11 -1.05382e-11 -7.33277e-11 5e-05 1.46608e-10 
31 1 0.153909 0.0162628 0.00800516 0.00539584 -7.65315e-05 0.000274206 5.07225e-11 -1.58412e-11 7.02596e-11 5e-05 1.46608e-10 
32 1 0.153928 0.0163156 0.00792232 0.00547848 -0.00019295 0.000240014 -2.20158e-10 4.75583e-11 -8.32297e-11 5e-05 1.46608e-10 
33 1 0.160005 0.0170143 0.00739749 0.00540434 -0.000940451 0.000183091 -5.34955e-12 -3.35828e-12 5.03385e-13 5e-05 1.46608e-10 
34 1 0.153661 0.0158699 0.00860664 0.005998 8.80667e-05 3.64543e-05 1.39089e-10 4.75626e-11 -7.6799e-11 5e-05 1.46608e-10 
35 1 0.153751 0.0160824 0.00828 0.00740051 -9.19253e-05 0.000364563 -2.43258e-10 1.56274e-10 -1.8717e-10 5e-05 1.46608e-10 
36 1 0.160155 0.0176501 0.00715351 0.00596298 -0.00088299 0.000628186 -2.35426e-13 1.55559e-11 -1.01675e-12 5e-05 1.46608e-10 
37 1 0.154331 0.0176129 0.0074231 0.00571536 -0.000333212 -0.000276174 -1.37246e-10 -3.66815e-11 3.34709e-11 5e-05 1.46608e-10 
38 1 0.154411 0.0172669 0.00742755 0.00584486 -0.000396615 -0.000692335 8.27515e-11 -1.08489e-10 -1.00579e-10 5e-05 1.46608e-10 
39 1 0.160236 0.017595 0.00717426 0.00595939 -0.000887716 0.000629303 -1.61081e-11 -7.21579e-12 1.85997e-12 5e-05 1.46608e-10 
41 1 0.154206 0.016748 0.00747327 0.00544292 -0.000610416 -0.000634228 -3.63733e-11 -9.70372e-11 -8.33037e-11 5e-05 1.46608e-10 
42 1 0.321436 0.0173475 0.00552525 4.54581e-16 2.25542e-15 8.46361e-14 5.46068e-24 -2.55263e-24 0 5e-05 1.46608e-10 
44 1 0.154157 0.0169157 0.00747253 0.00579943 -0.000473062 -0.000678506 1.11439e-10 2.33816e-10 1.42809e-11 5e-05 1.46608e-10 
45 1 0.160026 0.0171022 0.00735466 0.00585972 -0.00103821 0.000206872 -1.4471e-11 9.56456e-12 -5.68087e-12 5e-05 1.46608e-10 
47 1 0.153617 0.0157635 0.00877026 0.00573183 0.000121512 -2.43275e-05 2.00857e-11 1.43612e-11 -3.10673e-11 5e-05 1.46608e-10 
48 1 0.154286 0.0175017 0.00743333 0.00572003 -0.000342392 -0.00068606 -8.46892e-11 -5.69391e-12 2.74595e-11 5e-05 1.46608e-10 
50 1 0.153838 0.0163394 0.00788457 0.00546824 -8.33351e-05 0.000194834 -1.12957e-10 5.86918e-10 3.05935e-10 5e-05 1.46608e-10 
51 1 0.15382 0.0162857 0.00796703 0.00542565 -3.0048e-05 0.000209883 2.55079e-10 3.88754e-10 6.96435e-11 5e-05 1.46608e-10 
52 1 0.147791 0.0161981 0.00808458 0.00524194 -0.00119187 -0.000340416 2.71164e-11 8.72037e-11 -7.43767e-11 5e-05 1.46608e-10 
53 1 0.160197 0.017414 0.0072233 0.0059536 -0.000885559 0.000628445 -2.65962e-11 -2.92334e-11 7.37448e-12 5e-05 1.46608e-10 
54 1 0.154357 0.0177091 0.00741421 0.00574575 -0.000341737 -0.000276414 -1.22034e-10 -7.31628e-11 1.81345e-11 5e-05 1.46608e-10 
55 1 0.147733 0.0159704 0.00827087 0.00533283 -0.00120567 -0.000352141 -1.9947e-11 2.74435e-12 1.15842e-11 5e-05 1.46608e-10 
56 1 0.154382 0.0175267 0.00742066 0.00572337 -0.00031538 -0.000679089 -7.01211e-11 -6.42671e-11 3.42372e-12 5e-05 1.46608e-10 
57 1 0.160047 0.0171901 0.00731185 0.00589224 -0.00104467 0.000207928 1.68132e-11 1.07113e-11 4.69523e-12 5e-05 1.46608e-10 
59 1 0.154186 0.0166535 0.00750275 0.00558545 -0.000255396 0.00036217 -2.55912e-10 -1.1564e-11 -1.36071e-10 5e-05 1.46608e-10 
61 1 0.153728 0.0160293 0.00836166 0.00743289 -9.62773e-05 0.000362831 -1.40032e-10 9.11044e-11 -2.19909e-10 5e-05 1.46608e-10 
62 1 0.154367 0.017072 0.00744063 0.00585492 -0.000425136 -0.000693367 3.08238e-11 -2.04634e-10 -6.67816e-11 5e-05 1.46608e-10 
63 1 0.154047 0.0163767 0.00780338 0.00557117 -0.000455493 6.04791e-05 1.34329e-10 -8.40076e-11 1.86684e-11 5e-05 1.46608e-10 
64 1 0.160258 0.0176894 0.00714883 0.0059631 -0.000888174 0.000629727 -1.53966e-11 -7.8131e-12 8.05222e-13 5e-05 1.46608e-10 
65 1 0.147946 0.0167917 0.00759847 0.00566183 -0.00131149 -0.000350042 -5.6774e-11 -1.12803e-10 1.54676e-10 5e-05 1.46608e-10 
66 1 0.147713 0.0158946 0.00833297 0.00556153 -0.00126609 -0.000360294 3.55144e-12 -3.18634e-11 1.92741e-11 5e-05 1.46608e-10 
67 1 0.154273 0.0170426 0.00745332 0.00584566 -0.000433389 -0.000694699 -4.84388e-11 3.79914e-13 -6.07196e-11 5e-05 1.46608e-10 
68 1 0.153987 0.0164638 0.0076926 0.00558241 -0.000260145 0.000281244 6.19983e-11 6.50666e-11 -9.81766e-12 5e-05 1.46608e-10 
69 1 0.154273 0.0178491 0.00740768 0.00573218 -0.000383921 -0.000273855 2.76333e-11 -5.03242e-11 1.59008e-10 5e-05 1.46608e-10 
70 1 0.16009 0.0173673 0.00722975 0.00595343 -0.000878438 0.000626683 1.47627e-11 -3.69313e-13 4.64709e-12 5e-05 1.46608e-10 
71 1 0.147772 0.0161221 0.00814667 0.00523278 -0.00118726 -0.000341945 1.79328e-11 6.55e-11 -4.713e-11 5e-05 1.46608e-10 
72 1 0.154265 0.0174028 0.00743989 0.00579922 -0.000431943 -0.000623854 4.50752e-11 -9.87194e-11 -3.74505e-10 5e-05 1.46608e-10 
73 1 0.154364 0.0178085 0.00740603 0.00575551 -0.000343813 -0.00027719 -2.80266e-11 -7.23866e-11 -7.8129e-11 5e-05 1.46608e-10 
74 1 0.154346 0.0169745 0.00744714 0.0057561 -0.000436639 -0.000683005 9.98147e-11 1.86422e-11 -1.98204e-11 5e-05 1.46608e-10 
76 1 0.148538 0.0185787 0.00692103 0.00553083 -0.000790119 0.000378961 -2.18311e-11 -4.80203e-10 1.60556e-10 5e-05 1.46608e-10 
77 1 0.153871 0.016436 0.00772782 0.00555708 -0.000424644 3.35114e-05 -2.90178e-10 1.94079e-10 -3.0739e-10 5e-05 1.46608e-10 
78 1 0.148761 0.0188059 0.00684561 0.005457 6.71099e-05 7.62648e-05 1.25705e-10 5.22925e-11 -3.65215e-11 5e-05 1.46608e-10 
79 1 0.147835 0.0163486 0.00796035 0.00529844 -0.00120947 -0.000341057 7.64661e-11 7.67831e-11 -6.39153e-11 5e-05 1.46608e-10 
80 1 0.154219 0.0169763 0.00754922 0.00580199 -0.000540472 -0.000678689 -5.28914e-11 -9.24941e-13 -5.61392e-11 5e-05 1.46608e-10 
81 1 0.148555 0.0186744 0.00688783 0.00547862 -0.000675566 0.000338125 -1.06659e-10 7.38606e-11 -5.44701e-11 5e-05 1.46608e-10 
82 1 0.147892 0.0165751 0.00777538 0.00555714 -0.00127158 -0.000354446 9.16104e-11 -3.19383e-12 -4.36045e-11 5e-05 1.46608e-10 
83 1 0.148592 0.0188704 0.00683117 0.00529067 -0.000635322 9.42949e-05 -1.06403e-10 -4.71025e-10 -1.84807e-10 5e-05 1.46608e-10 
84 1 0.160133 0.0175558 0.00717892 0.00596016 -0.000881163 0.000627576 5.27636e-12 1.92872e-11 -9.1297e-12 5e-05 1.46608e-10 
85 1 0.148561 0.0178323 0.00718273 0.00594045 -0.000814099 0.000394611 2.29636e-10 -2.76529e-10 1.04906e-10 5e-05 1.46608e-10 
86 1 0.15423 0.0168474 0.00746636 0.00560532 -0.000344994 -0.000669526 2.71612e-10 -1.07397e-11 -6.69594e-11 5e-05 1.46608e-10 
87 1 0.154535 0.0170336 0.00742175 0.0058414 -0.000408659 -0.000694106 -3.72541e-11 -1.26583e-10 -9.31942e-12 5e-05 1.46608e-10 
88 1 0.154016 0.0169014 0.00757302 0.00564017 -0.000484908 -0.000633625 3.28347e-10 -3.72221e-10 -1.78287e-10 5e-05 1.46608e-10 
89 1 0.154294 0.01714 0.00744678 0.00583296 -0.000438284 -0.000694263 -3.08443e-11 -1.07432e-10 -6.49209e-11 5e-05 1.46608e-10 
90 1 0.154251 0.0169449 0.00745983 0.0057999 -0.000527836 -0.000682746 1.43667e-10 9.04058e-11 -5.08033e-11 5e-05 1.46608e-10 
91 1 0.148544 0.0177388 0.00721515 0.00587372 -0.000965016 0.000446281 -2.41496e-13 1.06955e-11 -1.6278e-12 5e-05 1.46608e-10 
92 1 0.154243 0.0173054 0.00744659 0.00577081 -0.00043021 -0.000929164 9.96704e-11 -6.67003e-11 3.84478e-10 5e-05 1.46608e-10 
93 1 0.153971 0.0165952 0.00752324 0.00549952 -0.000244494 0.000344493 -2.35869e-10 -5.11061e-10 6.00077e-12 5e-05 1.46608e-10 
94 1 0.154147 0.0172751 0.00745918 0.00581054 -0.000473256 -0.00044014 -6.60001e-11 1.00203e-10 -2.39429e-11 5e-05 1.46608e-10 
95 1 0.154074 0.0170402 0.00756011 0.00589629 -0.000680787 -0.000590541 -7.82193e-11 -5.15222e-11 -1.86349e-10 5e-05 1.46608e-10 
96 1 0.154003 0.016687 0.00750032 0.00541238 -0.000440992 -0.000653423 2.66486e-11 -6.18486e-10 -8.45003e-11 5e-05 1.46608e-10 
97 1 0.148266 0.0173747 0.00733745 0.00584433 -0.000911185 0.000426929 2.12817e-10 -1.02133e-10 5.54387e-11 5e-05 1.46608e-10 
98 1 0.154111 0.0169317 0.0075601 0.00576646 -0.000383687 -0.000700761 2.49604e-10 2.47782e-11 1.86288e-10 5e-05 1.46608e-10 
99 1 0.147979 0.0168634 0.00753706 0.00565667 -0.0011293 -0.000148281 -2.16836e-10 -9.73821e-11 8.14172e-11 5e-05 1.46608e-10 
100 1 0.154316 0.0172374 0.00744024 0.00580571 -0.000427914 -0.000682485 4.845e-11 -1.41539e-10 -2.53375e-11 5e-05 1.46608e-10 
101 1 0.147866 0.0164208 0.0078984 0.00538363 -0.00123946 -0.000338221 -4.69275e-11 9.25442e-11 -6.56096e-11 5e-05 1.46608e-10 
102 1 0.0643568 0.0187248 0.00531097 4.06865e-15 1.05649e-14 8.29617e-14 1.59385e-21 -4.47841e-22 -3.39144e-23 5e-05 1.46608e-10 
103 1 0.24257 0.0191927 0.00520306 -1.23235e-22 4.86658e-23 -5.81428e-22 0 0 0 5e-05 1.46608e-10 
104 1 0.148462 0.018639 0.00689852 0.0055007 -0.000795327 0.000381154 -3.96526e-11 -4.95771e-10 1.57503e-10 5e-05 1.46608e-10 
105 1 0.148375 0.017421 0.00732328 0.00582414 -0.000910549 0.000426449 3.20597e-11 2.02952e-11 -1.07972e-11 5e-05 1.46608e-10 
106 1 0.148332 0.0176527 0.00724138 0.0058748 -0.000918335 0.000430207 -6.71585e-11 5.9654e-11 -2.703e-11 5e-05 1.46608e-10 
107 1 0.148288 0.0174677 0.00730531 0.00584427 -0.000893585 0.000420209 3.10346e-11 1.41289e-11 -5.16862e-12 5e-05 1.46608e-10 
108 1 0.154221 0.0180139 0.00739755 0.00567097 -0.000419093 -0.000266142 -3.43797e-11 -1.99756e-10 2.40387e-11 5e-05 1.46608e-10 
109 1 0.153803 0.0162323 0.00804981 0.00536828 6.2101e-06 0.000203826 5.23868e-11 6.8456e-11 -1.2904e-10 5e-05 1.46608e-10 
110 1 0.153947 0.0167625 0.00753374 0.00562183 -0.000276697 -0.000654827 1.43362e-10 -3.78713e-10 6.43131e-11 5e-05 1.46608e-10 
111 1 0.154082 0.0169825 0.0074789 0.00584527 -0.000444188 -0.000685449 -3.2439e-10 9.44534e-11 -7.88449e-10 5e-05 1.46608e-10 
112 1 0.1487 0.0185492 0.00693435 0.00547349 -0.000720757 0.000353107 1.62006e-10 4.86474e-11 -2.0822e-11 5e-05 1.46608e-10 
113 1 0.148342 0.0180806 0.00709178 0.00589993 -0.000907863 0.000426005 3.36919e-11 6.16498e-11 -2.06759e-11 5e-05 1.46608e-10 
114 1 0.149041 0.0190438 0.0068436 0.00485887 0.00063379 6.88893e-05 -8.89859e-11 -1.34059e-10 -6.16625e-11 5e-05 1.46608e-10 
115 1 0.154116 0.0167245 0.00751022 0.00547967 -0.000286809 -0.000267543 4.36481e-11 2.41764e-10 2.54825e-11 5e-05 1.46608e-10 
116 1 0.154199 0.0179166 0.0074063 0.00569474 -0.000423176 -0.000266387 -5.59403e-11 -1.62978e-10 -4.61182e-11 5e-05 1.46608e-10 
117 1 0.154441 0.017004 0.00743445 0.00570372 -0.000287775 -0.000682076 -7.15026e-11 1.72987e-10 1.03198e-11 5e-05 1.46608e-10 
118 1 0.14846 0.0189716 0.00683689 0.00478266 -0.00111311 -0.000652865 5.13521e-10 8.45969e-11 4.03518e-11 5e-05 1.46608e-10 
119 1 0.154075 0.0164251 0.00772041 0.00558636 -0.00047976 0.000101998 -8.08846e-11 -7.7579e-11 7.06139e-11 5e-05 1.46608e-10 
120 1 0.153815 0.0161246 0.00821644 0.00692569 0.000108284 3.28956e-05 2.63161e-10 -2.1399e-10 1.35383e-10 5e-05 1.46608e-10 
121 1 0.153639 0.0158167 0.00868844 0.00568706 0.000125162 -3.03848e-05 4.57896e-10 -8.24462e-11 1.31659e-10 5e-05 1.46608e-10 
122 1 0.153928 0.0166717 0.00757085 0.00561473 1.17133e-05 6.63531e-05 4.16268e-11 -3.14202e-10 -1.07308e-10 5e-05 1.46608e-10 
123 1 0.148385 0.018699 0.0068761 0.00545488 -0.000797467 0.000386097 -2.36186e-11 -2.54347e-10 9.07343e-11 5e-05 1.46608e-10 
124 1 0.153919 0.0166725 0.0076705 0.00571949 0.000706067 8.95321e-05 9.50591e-11 -4.19376e-12 -5.75688e-10 5e-05 1.46608e-10 
125 1 0.154462 0.0171014 0.00742794 0.00585431 -0.000383251 -0.000695899 2.06491e-11 -1.21084e-10 4.80202e-11 5e-05 1.46608e-10 
126 1 0.153798 0.016178 0.00813362 0.00585288 -2.20113e-05 0.000190564 2.73091e-10 -4.65697e-11 8.14943e-11 5e-05 1.46608e-10 
127 1 0.148397 0.0175144 0.00729098 0.0058431 -0.000917982 0.000429076 -4.90032e-11 8.99239e-12 3.59356e-12 5e-05 1.46608e-10 
128 1 0.153884 0.016533 0.00775759 0.0119837 0.00728791 -0.049171 0 0 -1.43822e-09 5e-05 1.46608e-10 
129 1 0.154075 0.0171947 0.00755049 0.00605655 -0.000485845 -0.000355907 1.49522e-10 2.06307e-10 -9.09984e-11 5e-05 1.46608e-10 
131 1 0.14842 0.017608 0.00725863 0.00587375 -0.000933281 0.000435208 -3.59719e-11 1.15708e-10 -3.95333e-11 5e-05 1.46608e-10 
132 1 0.154159 0.017112 0.00755104 0.00602915 -0.000493771 -0.00060961 1.44394e-11 -9.34037e-11 -1.90643e-10 5e-05 1.46608e-10 
133 1 0.154117 0.01739 0.00753365 0.00578208 -0.000453428 -0.000271 -1.72881e-10 -2.55396e-12 6.84821e-11 5e-05 1.46608e-10 
134 1 0.15395 0.0163682 0.00784003 0.00558075 -0.00024459 0.000254837 -1.91597e-10 1.41733e-10 -7.217e-11 5e-05 1.46608e-10 
135 1 0.153509 0.0154973 0.00917939 0.00576569 9.32262e-05 2.20012e-05 -2.58939e-12 1.38287e-11 -8.53271e-12 5e-05 1.46608e-10 
136 1 0.14925 0.0189608 0.00680041 0.00498294 0.000400422 -4.28821e-05 1.15847e-10 1.04053e-10 2.42412e-11 5e-05 1.46608e-10 
137 1 0.153889 0.0164898 0.00764549 0.00558222 -0.000381954 8.80653e-05 -1.62816e-10 4.24921e-10 -2.00417e-10 5e-05 1.46608e-10 
138 1 0.154256 0.0177212 0.00741857 0.00573707 -0.000345719 -0.000275765 5.84851e-11 -1.23761e-10 5.0621e-12 5e-05 1.46608e-10 
140 1 0.154104 0.0170804 0.00747388 0.00586366 -0.000478628 -0.000508342 -3.3965e-11 1.1382e-10 -1.49722e-10 5e-05 1.46608e-10 
141 1 0.14856 0.018965 0.0068301 0.00478964 -0.000849528 -0.000553841 5.25395e-10 1.75809e-10 1.37991e-11 5e-05 1.46608e-10 
142 1 0.148367 0.018606 0.00690829 0.00527292 -0.000766725 0.000365823 -3.91078e-11 -8.3213e-11 2.80536e-11 5e-05 1.46608e-10 
143 1 0.147752 0.0160462 0.00820877 0.00522526 -0.001181 -0.000345213 -1.53132e-11 3.64765e-11 -2.743e-11 5e-05 1.46608e-10 
144 1 0.148654 0.0199407 0.00723505 0.003047 -0.0107414 -0.00462368 -1.26831e-12 -9.94159e-12 -4.11746e-12 5e-05 1.46608e-10 
147 1 0.148637 0.0186221 0.00690767 0.0054735 -0.000714337 0.000352055 2.49163e-11 -1.01648e-11 1.0905e-11 5e-05 1.46608e-10 
148 1 0.148008 0.0170383 0.00745045 0.00582042 -0.000884706 0.000422821 5.0314e-11 -7.63181e-11 2.36279e-11 5e-05 1.46608e-10 
149 1 0.154061 0.016885 0.0074854 0.00565845 -0.000408337 -0.000677191 9.28948e-11 2.74951e-10 -3.31608e-10 5e-05 1.46608e-10 
150 1 0.0100679 0.0201683 0.00551526 8.38365e-15 1.25307e-15 -8.48744e-14 1.70606e-24 -1.71672e-23 0 5e-05 1.46608e-10 
151 1 0.148404 0.018359 0.00699545 0.00547415 -0.000765141 0.000365671 1.0417e-10 1.443e-11 -1.8132e-11 5e-05 1.46608e-10 
153 1 0.148737 0.0186615 0.00689572 0.00579813 -0.000561605 0.000304341 2.67894e-10 -2.0948e-10 8.07743e-11 5e-05 1.46608e-10 
154 1 0.148458 0.0190638 0.0068756 0.00543039 -0.00109239 -0.000678988 5.30217e-11 2.45749e-10 -2.10219e-11 5e-05 1.46608e-10 
155 1 0.14803 0.0171319 0.00742275 0.00580671 -0.000886313 0.000449133 6.72182e-11 -5.86344e-11 1.81805e-10 5e-05 1.46608e-10 
156 1 0.148478 0.0187352 0.00686514 0.00545613 -0.000774231 0.000366029 -7.14306e-11 2.63067e-11 -9.86111e-11 5e-05 1.46608e-10 
157 1 0.0219312 0.0187687 0.00551176 -3.83236e-14 8.16405e-14 2.95896e-13 1.12215e-21 2.42364e-22 8.76811e-23 5e-05 1.46608e-10 
158 1 0.148613 0.0181606 0.00706878 0.00550324 -0.000745905 0.000364566 9.68432e-11 2.29024e-10 -1.04705e-10 5e-05 1.46608e-10 
159 1 0.154389 0.0171694 0.00743409 0.00583238 -0.000406373 -0.000692753 6.57655e-11 -1.12546e-10 3.42283e-11 5e-05 1.46608e-10 
160 1 0.148502 0.0188328 0.00685337 0.00548489 -0.00087345 0.000368951 -3.06861e-11 -6.62407e-10 -4.69109e-10 5e-05 1.46608e-10 
162 1 0.148577 0.0187665 0.00685599 0.00567645 -0.000703934 0.000354522 3.60088e-10 -7.59793e-11 -1.70381e-11 5e-05 1.46608e-10 
164 1 0.148277 0.0178056 0.00718685 0.00589308 -0.00090046 0.000424443 -4.33817e-11 -8.14327e-12 1.29187e-12 5e-05 1.46608e-10 
165 1 0.148483 0.0183014 0.00701709 0.00545866 -0.000773263 0.000370805 2.46892e-10 2.13259e-10 -1.07238e-10 5e-05 1.46608e-10 
166 1 0.154311 0.0179709 0.00739614 0.00568848 -0.000378564 -0.000270631 1.32226e-11 -1.3603e-10 1.79086e-11 5e-05 1.46608e-10 
168 1 0.148354 0.0177451 0.00720944 0.0058835 -0.000914916 0.000428874 -1.46891e-11 4.80392e-11 -2.02672e-11 5e-05 1.46608e-10 
169 1 0.148269 0.0181485 0.00708219 0.00591097 -0.000903792 0.000423716 5.19888e-11 8.9479e-11 -2.67761e-11 5e-05 1.46608e-10 
170 1 0.148462 0.0177931 0.00719463 0.0058902 -0.000938832 0.000437503 4.30211e-11 3.53556e-11 -1.42807e-11 5e-05 1.46608e-10 
171 1 0.154178 0.0178193 0.00741504 0.00571962 -0.000428459 -0.000269579 -1.82469e-11 -1.74121e-10 -8.79778e-12 5e-05 1.46608e-10 
172 1 0.1484 0.0182411 0.00712356 0.0059237 -0.000798675 0.000320628 9.97303e-11 8.9286e-11 -5.58453e-11 5e-05 1.46608e-10 
173 1 0.154221 0.017208 0.00745294 0.00579948 -0.000471085 -0.000680988 -4.08716e-11 9.72416e-11 -1.28189e-11 5e-05 1.46608e-10 
174 1 0.14831 0.01756 0.00727342 0.00585693 -0.000898695 0.000422953 -4.97987e-11 1.12282e-11 -2.12843e-11 5e-05 1.46608e-10 
175 1 0.141989 0.0169484 0.00746191 0.00603965 -3.58886e-05 0.000332495 -1.8789e-11 2.10509e-11 1.24735e-11 5e-05 1.46608e-10 
177 1 0.148318 0.0179973 0.00714229 0.00588495 -0.00090919 0.000422917 1.29272e-10 6.0678e-11 -1.06814e-11 5e-05 1.46608e-10 
178 1 0.14842 0.0180219 0.00711375 0.00591439 -0.000889299 0.000419938 5.26981e-11 7.05641e-11 -2.63177e-11 5e-05 1.46608e-10 
179 1 0.148463 0.0182076 0.00704954 0.00550106 -0.000783685 0.000375542 -1.25979e-11 7.97434e-11 -5.49373e-11 5e-05 1.46608e-10 
181 1 0.148598 0.0185035 0.00694846 0.00555261 -0.000795186 0.000380523 2.06133e-10 -2.58518e-10 9.00681e-11 5e-05 1.46608e-10 
182 1 0.154156 0.017722 0.00742378 0.00573682 -0.000432974 -0.000267114 -4.38808e-11 -1.05888e-10 -1.52305e-11 5e-05 1.46608e-10 
183 1 0.148442 0.0177004 0.0072267 0.00587029 -0.00093858 0.000437126 3.95593e-12 6.39326e-11 -2.16849e-11 5e-05 1.46608e-10 
184 1 0.154126 0.0171777 0.00746621 0.00584028 -0.000469745 -0.000521532 -5.04824e-11 4.23154e-11 -1.75619e-10 5e-05 1.46608e-10 
186 1 0.148348 0.0185133 0.0069404 0.00505122 -0.000724644 0.00034664 -5.02183e-10 8.84664e-11 -3.59984e-11 5e-05 1.46608e-10 
187 1 0.154094 0.0174384 0.00744927 0.00579116 -0.000452258 -0.000272466 2.38964e-11 2.16814e-11 3.05074e-11 5e-05 1.46608e-10 
188 1 0.153863 0.016416 0.00782548 0.00555234 -0.000220087 6.84905e-05 -2.24634e-10 4.89722e-11 -4.05786e-10 5e-05 1.46608e-10 
189 1 0.154191 0.0174705 0.00744162 0.00578732 -0.000444501 -0.000266892 5.49714e-11 -1.43471e-10 2.88952e-11 5e-05 1.46608e-10 
190 1 0.142173 0.0173558 0.00734814 0.00602696 -0.000201309 -0.000248517 -1.20471e-12 -8.97552e-12 3.34298e-12 5e-05 1.46608e-10 
191 1 0.153908 0.0165761 0.00759876 0.00557064 -0.000195798 0.000448009 3.08534e-11 4.88924e-10 3.01445e-10 5e-05 1.46608e-10 
192 1 0.148681 0.0179535 0.00714252 0.00602815 -0.000816212 0.000397102 1.92179e-10 -8.45589e-11 2.2371e-11 5e-05 1.46608e-10 
193 1 0.153912 0.0161562 0.00817035 0.00521939 -7.34822e-05 0.000275553 2.98006e-10 -1.52985e-10 -1.93146e-11 5e-05 1.46608e-10 
194 1 0.161461 0.0182058 0.00533758 1.59426e-15 -1.09993e-14 8.66689e-14 -5.8048e-22 8.65955e-24 1.05466e-23 5e-05 1.46608e-10 
195 1 0.148557 0.018239 0.00704031 0.00542085 -0.000810934 0.000383579 8.10967e-11 1.09017e-10 1.04685e-12 5e-05 1.46608e-10 
196 1 0.14819 0.0174361 0.00731455 0.00584577 -0.000917857 0.000431088 1.30726e-10 -1.3811e-10 3.1606e-11 5e-05 1.46608e-10 
197 1 0.142054 0.0172317 0.00738892 0.00602934 -0.000200251 -0.000249054 1.4218e-12 1.03679e-11 -4.68381e-12 5e-05 1.46608e-10 
198 1 0.14915 0.0189532 0.00680124 0.00496824 0.000395489 -3.73903e-05 6.84475e-11 -4.45293e-11 1.66688e-11 5e-05 1.46608e-10 
199 1 0.148883 0.0189272 0.00680541 0.00507585 0.000374677 -3.44948e-05 -2.34501e-10 1.16694e-10 -1.58261e-11 5e-05 1.46608e-10 
201 1 0.148364 0.0181728 0.00705989 0.00592678 -0.000911034 0.000429763 7.22616e-11 7.72993e-11 -1.4671e-11 5e-05 1.46608e-10 
202 1 0.148522 0.0184415 0.00696877 0.00543571 -0.000684672 0.00033974 -2.16283e-10 1.75793e-10 -4.46332e-11 5e-05 1.46608e-10 
203 1 0.153967 0.0168542 0.00749905 0.00566384 -0.00048479 -0.00117067 -1.45782e-10 -8.64727e-11 9.41334e-10 5e-05 1.46608e-10 
204 1 0.147811 0.016274 0.00802249 0.00524226 -0.00119281 -0.000340016 -9.05465e-11 1.19121e-10 -8.29043e-11 5e-05 1.46608e-10 
205 1 0.148611 0.0180208 0.00711767 0.00599662 -0.000840793 0.000404319 7.58396e-11 -1.25962e-10 6.11215e-11 5e-05 1.46608e-10 
206 1 0.148234 0.017621 0.00725065 0.00586435 -0.000897543 0.000421956 -5.32547e-11 1.55996e-11 1.20219e-11 5e-05 1.46608e-10 
207 1 0.148009 0.016946 0.00748901 0.00583981 -0.000895195 0.000372216 -1.6127e-11 -1.32441e-10 4.43297e-11 5e-05 1.46608e-10 
208 1 0.148378 0.0185834 0.00700508 0.0053346 -0.000808425 0.000351765 -1.28379e-10 1.54749e-11 1.44056e-11 5e-05 1.46608e-10 
209 1 0.145706 0.0202178 0.00740811 -5.23904e-16 -2.42011e-15 7.07718e-15 6.19093e-23 3.61892e-24 5.99706e-24 5e-05 1.46608e-10 
210 1 0.15417 0.0173732 0.00745036 0.00578833 -0.000445815 -0.000270858 -2.40307e-11 -1.26587e-10 6.77004e-11 5e-05 1.46608e-10 
211 1 0.154072 0.0173412 0.00745852 0.00581408 -0.000459037 -0.000284946 -3.4938e-11 5.83989e-11 4.84648e-11 5e-05 1.46608e-10 
212 1 0.148657 0.018252 0.00703756 0.00542812 -0.000834123 0.000392491 1.00569e-10 -4.79765e-11 -3.28693e-12 5e-05 1.46608e-10 
213 1 0.154231 0.0176227 0.00742758 0.00570779 -0.000363813 -0.000273256 -1.15709e-10 1.28028e-12 1.35084e-11 5e-05 1.46608e-10 
214 1 0.154008 0.0170493 0.00748423 0.00587078 -0.000463297 -0.000285355 -1.68409e-10 1.23479e-11 6.99902e-11 5e-05 1.46608e-10 
215 1 0.142151 0.0172617 0.00737558 0.00602897 -0.000200539 -0.000248797 -3.5964e-12 6.66166e-12 -8.79165e-13 5e-05 1.46608e-10 
216 1 0.148529 0.0181798 0.00711954 0.00550123 -0.000777977 0.000366828 7.42267e-11 1.28462e-10 -1.13736e-10 5e-05 1.46608e-10 
217 1 0.154387 0.0179056 0.00739726 0.00572376 -0.000336076 -0.0002757 1.05276e-10 -1.04439e-10 4.03879e-12 5e-05 1.46608e-10 
218 1 0.148074 0.0173148 0.00735488 0.00579163 -0.000894266 0.000426869 3.45089e-10 -1.22475e-10 6.7623e-11 5e-05 1.46608e-10 
219 1 0.154036 0.0167823 0.00749255 0.005664 -0.000549851 -0.000667909 1.71487e-11 -1.2955e-10 1.32386e-11 5e-05 1.46608e-10 
220 1 0.148479 0.0183995 0.00704832 0.00545811 -0.000726182 0.000341527 -2.08193e-11 1.36606e-10 1.17611e-10 5e-05 1.46608e-10 
221 1 0.142043 0.016789 0.00749812 0.00565047 3.81672e-05 0.00029673 -4.24702e-12 -7.04371e-11 1.74307e-11 5e-05 1.46608e-10 
222 1 0.154325 0.016877 0.00745366 0.00576081 -0.000576299 -0.000677296 -3.27079e-11 -6.95866e-11 1.75725e-11 5e-05 1.46608e-10 
223 1 0.148442 0.0185445 0.00693122 0.0053275 -0.000720792 0.000351738 -2.89046e-10 -2.90593e-10 1.19369e-10 5e-05 1.46608e-10 
224 1 0.146393 0.0168793 0.00824377 -0.000167592 0.0149907 -0.0145468 9.32951e-13 2.48098e-10 -2.72802e-10 5e-05 1.46608e-10 
225 1 0.153986 0.0165131 0.00760562 0.00555806 -0.000217121 0.000307073 1.35348e-10 2.12607e-10 -1.65967e-11 5e-05 1.46608e-10 
226 1 0.148319 0.0183053 0.00710164 0.00586459 -0.000794994 0.000347419 9.86653e-12 8.08162e-11 8.13716e-11 5e-05 1.46608e-10 
227 1 0.142108 0.0170741 0.00743033 0.00602736 -0.000203528 -0.000248143 -7.8463e-12 9.82105e-12 -1.10509e-11 5e-05 1.46608e-10 
228 1 0.14201 0.0170442 0.00744306 0.00602934 -3.42977e-05 0.000331866 5.83849e-12 1.20267e-11 1.56152e-13 5e-05 1.46608e-10 
229 1 0.148687 0.0183422 0.00700657 0.00547455 -0.000842314 0.000395984 1.18926e-10 -1.3761e-10 5.21484e-11 5e-05 1.46608e-10 
230 1 0.148225 0.0179604 0.00713166 0.005902 -0.000899334 0.000422772 9.14986e-11 3.20381e-11 -5.05446e-12 5e-05 1.46608e-10 
231 1 0.141967 0.0168525 0.00748079 0.00584784 6.82876e-06 0.000313424 5.76266e-11 3.25999e-11 9.43644e-12 5e-05 1.46608e-10 
232 1 0.148691 0.0188732 0.00682078 0.00524531 -0.000152322 0.000132397 -1.36317e-10 -1.93033e-10 1.63071e-11 5e-05 1.46608e-10 
234 1 0.154175 0.0172235 0.00754025 0.00599897 -0.000556311 -0.000557013 -9.38739e-11 2.25812e-11 -2.92258e-11 5e-05 1.46608e-10 
235 1 0.148483 0.0178905 0.00716091 0.0059125 -0.00084988 0.000406201 3.06564e-10 -3.36074e-11 1.68722e-11 5e-05 1.46608e-10 
236 1 0.148203 0.0178682 0.00716356 0.00589404 -0.00089313 0.000422226 -7.55966e-14 3.22879e-11 -9.5693e-12 5e-05 1.46608e-10 
237 1 0.14816 0.0176839 0.00722726 0.00587069 -0.000896879 0.000422293 -2.95409e-11 -3.11961e-12 1.78191e-11 5e-05 1.46608e-10 
239 1 0.141797 0.0161903 0.00801688 0.00545386 -0.000337244 -0.000198299 2.00679e-10 -6.47624e-11 4.17908e-11 5e-05 1.46608e-10 
240 1 0.141857 0.0163767 0.00778983 0.00557321 -0.000355968 -0.000187306 1.50028e-10 -7.80661e-11 -5.80446e-11 5e-05 1.46608e-10 
241 1 0.141778 0.016128 0.00809271 0.00541793 -0.000332435 -0.000198946 -5.98172e-11 9.68178e-12 -1.92924e-11 5e-05 1.46608e-10 
242 1 0.148405 0.0187932 0.00690246 0.00545982 -0.000837949 0.000409074 -1.46144e-10 -2.45309e-10 -2.18424e-10 5e-05 1.46608e-10 
244 1 0.141815 0.0162527 0.00794103 0.00547909 -0.000343736 -0.000194825 1.98913e-10 -9.87705e-11 8.64754e-11 5e-05 1.46608e-10 
246 1 0.14193 0.0166597 0.00751903 0.00564002 3.31986e-05 0.000296406 1.29565e-10 -8.82617e-11 9.42528e-11 5e-05 1.46608e-10 
247 1 0.14859 0.0183723 0.00699424 0.00548202 -0.000661002 0.000331782 -3.21076e-10 1.31223e-10 -2.87578e-11 5e-05 1.46608e-10 
248 1 0.148246 0.0180527 0.00709977 0.00590008 -0.000903687 0.000422691 4.51627e-11 6.99891e-11 -1.09763e-11 5e-05 1.46608e-10 
249 1 0.142248 0.0172908 0.00736254 0.0060254 -0.000202696 -0.000248086 5.65847e-12 -6.24396e-12 1.28112e-12 5e-05 1.46608e-10 
250 1 0.148052 0.0172225 0.00738707 0.00577644 -0.000885581 0.000438482 4.44922e-10 -1.63417e-10 1.73301e-10 5e-05 1.46608e-10 
251 1 0.153987 0.0169519 0.00749174 0.00590403 -0.000495438 -0.00070807 -9.01953e-11 -2.9448e-11 4.1727e-10 5e-05 1.46608e-10 
252 1 0.142097 0.0174191 0.00733424 0.00602836 -0.000200169 -0.000248881 2.66929e-12 3.69724e-12 -5.64246e-13 5e-05 1.46608e-10 
253 1 0.142086 0.0169801 0.00745776 0.00602747 -0.000170134 -0.000257005 -2.27366e-11 -2.17534e-12 4.6285e-12 5e-05 1.46608e-10 
254 1 0.141916 0.0165845 0.00758346 0.00563459 -3.94673e-05 0.000205601 6.91863e-11 -7.5912e-11 1.83388e-10 5e-05 1.46608e-10 
255 1 0.148788 0.0188994 0.00681336 0.0051411 0.000165521 3.5462e-05 -2.08601e-10 5.37727e-11 -2.2652e-11 5e-05 1.46608e-10 
256 1 0.148585 0.0179243 0.00715098 0.00596197 -0.000816329 0.00039581 -6.29516e-11 -3.31682e-11 1.37066e-11 5e-05 1.46608e-10 
257 1 0.148382 0.0181471 0.00715481 0.00592985 -0.000897908 0.000435989 1.28766e-10 8.09801e-11 -2.6035e-11 5e-05 1.46608e-10 
258 1 0.148384 0.0182655 0.00702782 0.00549554 -0.000802131 0.000381718 -2.41981e-11 1.43969e-11 -2.55364e-12 5e-05 1.46608e-10 
259 1 0.142119 0.0175128 0.0073069 0.00602815 -0.000199663 -0.000249087 2.12335e-12 3.03698e-12 -5.59334e-13 5e-05 1.46608e-10 