ITEM: TIMESTEP
2800000
ITEM: NUMBER OF ATOMS
287
ITEM: BOX BOUNDS ff ff ff
-0.02 0.43
-0.02 0.06
-0.02 0.07
ITEM: ATOMS id type x y z vx vy vz fx fy fz radius mass 
1 1 0.0291667 0.0163901 0.00774487 0.00562123 -0.000178003 -1.09102e-05 2.87112e-10 9.8326e-11 -6.23692e-11 5e-05 1.46608e-10 
2 1 0.0295182 0.0170988 0.00731342 0.00605808 -0.000339468 0.000156111 6.11545e-11 1.40888e-11 -1.38652e-11 5e-05 1.46608e-10 
3 1 0.0230379 0.0162407 0.0078784 0.005425 -0.000742979 0.000493751 6.80065e-11 -3.79171e-11 2.40045e-11 5e-05 1.46608e-10 
4 1 0.0294989 0.0177988 0.00715075 0.00610818 -0.000156849 0.000112807 -2.40139e-12 4.51848e-11 -2.24112e-11 5e-05 1.46608e-10 
5 1 0.0290524 0.016291 0.00782956 0.00560613 -0.0001752 -1.23666e-05 1.20638e-10 -4.78283e-11 3.16856e-11 5e-05 1.46608e-10 
6 1 0.0351508 0.016723 0.00759731 0.00600307 0.00196852 -0.00110225 -1.05873e-13 8.52028e-13 -4.42995e-13 5e-05 1.46608e-10 
7 1 0.0292293 0.0170064 0.00733125 0.0056773 -8.20702e-05 9.58641e-05 1.93793e-10 -4.81448e-11 -6.04335e-11 5e-05 1.46608e-10 
8 1 0.0289549 0.0159137 0.00814275 0.00553623 -0.000167779 -5.43407e-05 1.09496e-11 -2.50148e-10 1.99006e-10 5e-05 1.46608e-10 
9 1 0.0354282 0.0178526 0.00701502 0.00624873 -0.000237626 2.03418e-05 -8.95817e-11 5.60339e-11 -6.40494e-12 5e-05 1.46608e-10 
10 1 0.0291698 0.0167444 0.00745455 0.00565961 -0.000140766 -3.68529e-06 1.05484e-11 -2.00438e-10 -2.7803e-10 5e-05 1.46608e-10 
11 1 0.0295616 0.0172891 0.00726981 0.00602285 -0.000320577 0.000150285 1.24416e-10 -1.26664e-10 2.7047e-11 5e-05 1.46608e-10 
12 1 0.0232387 0.0170418 0.00731093 0.00602009 -0.000946489 0.000637459 -2.96692e-11 5.94412e-11 -8.54506e-11 5e-05 1.46608e-10 
13 1 0.0290328 0.0162156 0.00789218 0.0055725 -0.000168471 -1.73568e-05 -2.70756e-11 -4.35803e-11 3.08072e-11 5e-05 1.46608e-10 
14 1 0.0229596 0.0159196 0.0081037 0.00539931 -0.000660624 0.0006081 8.63026e-12 5.84912e-11 -7.18794e-11 5e-05 1.46608e-10 
15 1 0.0293688 0.0172279 0.00728157 0.00615136 -0.00021502 0.000127794 -8.71786e-12 -1.32095e-10 6.90198e-12 5e-05 1.46608e-10 
16 1 0.0229402 0.0158381 0.00815821 0.00540315 -0.000658644 0.000607291 7.77384e-12 7.67232e-11 -5.35673e-11 5e-05 1.46608e-10 
17 1 0.0291502 0.0166683 0.0075164 0.00564628 -0.00015671 -2.13568e-05 -4.93933e-11 -7.92495e-11 -9.63005e-11 5e-05 1.46608e-10 
18 1 0.0353001 0.0173316 0.00728359 0.00609973 -0.000205131 9.20983e-06 -5.14897e-10 -8.26707e-11 8.01371e-12 5e-05 1.46608e-10 
19 1 0.0290133 0.0161401 0.00795482 0.00554792 -0.000156153 -2.64333e-05 2.42866e-11 -5.12786e-12 7.59745e-12 5e-05 1.46608e-10 
21 1 0.0291472 0.0163146 0.0078075 0.005626 -0.000189845 -1.07839e-06 2.21738e-10 -1.20032e-10 7.97953e-11 5e-05 1.46608e-10 
22 1 0.029272 0.0171968 0.00728756 0.00615666 -0.000194431 0.000121441 3.54375e-11 -2.0024e-12 -1.69612e-11 5e-05 1.46608e-10 
23 1 0.0234214 0.0174436 0.00720486 0.00600272 -0.000990723 0.000187595 -7.38416e-11 -9.54503e-11 2.98543e-11 5e-05 1.46608e-10 
24 1 0.0353641 0.0175921 0.0071493 0.00616455 -0.000222186 1.54623e-05 -2.87426e-10 -9.84012e-11 -5.88566e-12 5e-05 1.46608e-10 
25 1 0.0292091 0.0169109 0.0073531 0.00565865 -8.4333e-05 8.72955e-05 3.59494e-10 -1.34439e-10 -7.33916e-12 5e-05 1.46608e-10 
26 1 0.0352361 0.0170711 0.00741787 0.00603971 -0.000194514 4.40973e-06 -3.00005e-10 4.3403e-11 -1.80059e-11 5e-05 1.46608e-10 
27 1 0.0233238 0.0174111 0.00720947 0.00599748 -0.00100777 0.000229053 4.43969e-11 -2.11812e-10 -1.05153e-10 5e-05 1.46608e-10 
28 1 0.0294772 0.0177037 0.00717255 0.00609757 -0.000205507 0.000125735 5.733e-11 -2.67147e-11 4.42932e-11 5e-05 1.46608e-10 
29 1 0.0289938 0.0160646 0.00801746 0.00553141 -0.000143926 -3.86504e-05 -1.55366e-10 -1.08228e-10 1.0569e-10 5e-05 1.46608e-10 
30 1 0.0295086 0.0174489 0.00723206 0.00605651 -0.000265107 0.000137869 -7.20344e-11 -1.00167e-11 -1.41233e-13 5e-05 1.46608e-10 
31 1 0.0292504 0.0171017 0.00730936 0.0061717 -0.000193601 0.000124849 6.51755e-11 9.01878e-11 1.3149e-11 5e-05 1.46608e-10 
32 1 0.0293472 0.0171327 0.00730338 0.00610606 -0.000231399 0.000128301 8.55358e-11 -2.06925e-11 -1.73817e-12 5e-05 1.46608e-10 
33 1 0.035172 0.0168106 0.00755215 0.00595917 -0.000190178 2.67071e-06 6.63195e-12 -3.24068e-11 1.65493e-11 5e-05 1.46608e-10 
34 1 0.0291309 0.0165928 0.00757905 0.00563026 -0.000164371 -2.1199e-05 2.99429e-10 7.31835e-11 1.63675e-12 5e-05 1.46608e-10 
35 1 0.0293255 0.0170376 0.00732518 0.00612474 -0.000260163 0.000137826 2.98651e-11 1.16496e-10 -2.29614e-11 5e-05 1.46608e-10 
36 1 0.0354638 0.018028 0.00692581 0.00572484 -0.00011463 6.50901e-05 1.186e-10 -6.92702e-11 1.37849e-11 5e-05 1.46608e-10 
37 1 0.0292832 0.0168457 0.00736917 0.00565934 -7.84967e-05 8.61319e-05 4.33103e-11 -5.40227e-10 6.09912e-11 5e-05 1.46608e-10 
38 1 0.0294436 0.0171634 0.00729748 0.00611566 -0.000266501 0.000141764 -4.50698e-11 -1.00109e-10 -4.38231e-12 5e-05 1.46608e-10 
39 1 0.0353855 0.0176789 0.00710454 0.00621744 -0.000220834 1.70841e-05 -1.50449e-10 5.32348e-11 -7.87417e-11 5e-05 1.46608e-10 
41 1 0.0290915 0.016442 0.00770429 0.00561749 -0.000170777 -1.57012e-05 1.2202e-10 5.7538e-11 -1.26959e-10 5e-05 1.46608e-10 
42 1 0.0292937 0.017292 0.00726576 0.00615632 -0.00019701 0.000123744 -2.48826e-11 -1.02946e-10 2.04777e-11 5e-05 1.46608e-10 
44 1 0.0294653 0.0172586 0.00727567 0.00611013 -0.000274832 0.000141049 -3.54008e-11 -7.00695e-11 1.54963e-11 5e-05 1.46608e-10 
45 1 0.0351934 0.0168974 0.00750739 0.00598224 -0.000195007 4.76301e-06 4.71655e-11 -3.57095e-11 1.8533e-11 5e-05 1.46608e-10 
46 1 0.0352788 0.0172448 0.00732835 0.00606996 -0.00021923 1.39892e-05 2.89848e-10 -1.81395e-10 1.0378e-10 5e-05 1.46608e-10 
47 1 0.0291111 0.0165174 0.00764166 0.00562465 -0.000168667 -1.84048e-05 2.73715e-10 7.64834e-11 -3.97132e-11 5e-05 1.46608e-10 
48 1 0.0293371 0.0174823 0.00722215 0.00612883 -0.000199361 0.000124024 6.78566e-11 -1.62347e-10 2.0262e-11 5e-05 1.46608e-10 
49 1 0.0352574 0.0171579 0.00737311 0.00607089 -0.000210481 1.11986e-05 2.79578e-10 3.94264e-11 3.44482e-12 5e-05 1.46608e-10 
50 1 0.0294021 0.0177677 0.00715674 0.00611477 -0.000167827 0.000116404 5.3859e-11 9.08292e-11 -2.62708e-11 5e-05 1.46608e-10 
51 1 0.0293804 0.0176726 0.00717854 0.00612109 -0.000175578 0.000117789 4.55851e-11 3.9746e-11 -3.45888e-12 5e-05 1.46608e-10 
52 1 0.0232176 0.0169611 0.00736814 0.00600222 -0.000809649 0.000585434 -9.00291e-11 -1.13934e-10 8.85217e-11 5e-05 1.46608e-10 
53 1 0.0353215 0.0174184 0.00723882 0.00614544 -0.000204306 1.00126e-05 -3.69405e-11 1.83576e-10 -1.17913e-10 5e-05 1.46608e-10 
54 1 0.0291277 0.0162391 0.00787014 0.00558947 -0.000192491 2.16796e-06 4.9309e-11 -1.54705e-10 1.24286e-10 5e-05 1.46608e-10 
55 1 0.0229986 0.0160807 0.00799176 0.00538855 -0.000740709 0.000486861 -2.39235e-10 8.07225e-11 -3.34799e-11 5e-05 1.46608e-10 
56 1 0.0293042 0.016942 0.00734708 0.00566671 -6.27956e-05 8.88922e-05 2.2734e-10 4.26592e-11 4.05396e-11 5e-05 1.46608e-10 
57 1 0.0352147 0.0169842 0.00746263 0.00599992 -0.000194424 4.29087e-06 -3.75837e-11 -5.99018e-11 2.15476e-11 5e-05 1.46608e-10 
59 1 0.0293603 0.0167911 0.00740972 0.00566153 -5.31526e-05 -7.09247e-06 4.16998e-11 -1.37558e-10 -1.35366e-10 5e-05 1.46608e-10 
60 1 0.0293789 0.0168775 0.00736299 0.00566076 -3.76701e-05 7.27846e-05 -8.38186e-11 -1.65811e-10 -5.26162e-11 5e-05 1.46608e-10 
61 1 0.0290719 0.0163665 0.00776692 0.00562197 -0.000179154 -1.06006e-05 1.88746e-10 -8.60167e-12 3.303e-11 5e-05 1.46608e-10 
62 1 0.0294869 0.0173537 0.00725387 0.00605535 -0.00027873 0.000140812 4.35667e-10 7.31822e-11 -5.67343e-12 5e-05 1.46608e-10 
63 1 0.0294339 0.0175134 0.00721616 0.00609812 -0.000217608 0.000127381 -7.53403e-11 -7.30399e-11 1.98699e-11 5e-05 1.46608e-10 
64 1 0.0353428 0.0175053 0.00719406 0.00614046 -0.00021718 1.40662e-05 2.39779e-10 9.86706e-11 -4.83482e-11 5e-05 1.46608e-10 
65 1 0.0233354 0.0170655 0.00729361 0.00598885 -0.000856568 0.00056979 1.06383e-10 8.99585e-12 -1.39286e-11 5e-05 1.46608e-10 
66 1 0.0232719 0.0168264 0.00746303 0.00590178 -0.000827204 0.000546814 -7.05064e-11 -2.07462e-11 -2.68872e-12 5e-05 1.46608e-10 
67 1 0.0295399 0.0171939 0.00729161 0.00605696 -0.000343694 0.000156103 -3.4768e-11 -4.38664e-11 1.30963e-11 5e-05 1.46608e-10 
68 1 0.029552 0.0176392 0.00718845 0.00604155 -0.000279203 0.000140272 8.12819e-11 -1.06285e-10 3.33399e-11 5e-05 1.46608e-10 
69 1 0.0292258 0.0166167 0.00755672 0.00566509 -0.000154519 -3.13326e-05 9.32604e-11 1.13311e-10 -2.96614e-11 5e-05 1.46608e-10 
70 1 0.0354069 0.0177658 0.00705979 0.00622282 -0.000226993 1.86239e-05 2.32435e-10 1.29587e-10 -8.1449e-11 5e-05 1.46608e-10 
71 1 0.0229791 0.0160007 0.00804845 0.00538517 -0.000766146 0.00045277 -2.39816e-10 4.05367e-10 4.78012e-10 5e-05 1.46608e-10 
72 1 0.0295303 0.017544 0.00721026 0.00602845 -0.000280037 0.000140959 -5.31851e-11 -3.5405e-11 8.1363e-12 5e-05 1.46608e-10 
73 1 0.0291894 0.0168223 0.00739496 0.00566196 -0.000108267 4.28316e-05 1.54449e-10 -7.46096e-11 -8.19823e-11 5e-05 1.46608e-10 
74 1 0.0293905 0.017323 0.00725977 0.00613926 -0.000223902 0.000129292 -2.30076e-12 -1.13691e-10 2.38512e-11 5e-05 1.46608e-10 
76 1 0.0235715 0.0181193 0.00710055 0.00589805 -0.000965996 0.000179522 8.45329e-11 3.50227e-10 -5.54918e-11 5e-05 1.46608e-10 
77 1 0.0296605 0.0184855 0.0069527 0.005749 -0.000161197 -0.000202072 3.82085e-12 -8.03714e-11 1.86142e-11 5e-05 1.46608e-10 
78 1 0.0230575 0.0163207 0.00782172 0.00542332 -0.000742973 0.000492832 -1.35646e-11 -8.2755e-11 6.57416e-11 5e-05 1.46608e-10 
79 1 0.0232595 0.0171216 0.00725438 0.00606089 -0.000949633 0.000633568 -1.10851e-10 6.88797e-11 -1.87088e-10 5e-05 1.46608e-10 
80 1 0.0294672 0.0180514 0.0070844 0.00609604 -0.000219065 -0.000203672 -3.4449e-11 -8.2203e-11 -5.15238e-11 5e-05 1.46608e-10 
81 1 0.0231968 0.0168812 0.00742467 0.00596496 -0.000822974 0.000547603 1.03465e-10 -7.8043e-12 7.47625e-11 5e-05 1.46608e-10 
82 1 0.0233453 0.0175077 0.00719452 0.00598622 -0.00100644 0.000205038 -4.17032e-12 -1.95873e-10 -2.66599e-10 5e-05 1.46608e-10 
83 1 0.0233262 0.0166919 0.00755776 0.00566175 -0.000879678 0.000589045 1.87067e-10 -7.94734e-11 9.36491e-12 5e-05 1.46608e-10 
84 1 0.0354483 0.0179397 0.00697016 0.00608446 -0.000199401 1.70931e-05 -7.54547e-11 -2.88789e-11 7.80214e-11 5e-05 1.46608e-10 
85 1 0.0231523 0.0163466 0.00780288 0.00541771 -0.000743889 0.000494247 -7.73354e-11 2.55449e-11 -1.98745e-11 5e-05 1.46608e-10 
86 1 0.0294555 0.0176085 0.00719436 0.00609551 -0.000205123 0.00012439 -6.73423e-11 -6.23653e-11 1.21475e-11 5e-05 1.46608e-10 
87 1 0.0293403 0.0167156 0.00747218 0.00562487 -0.000101792 -6.59532e-05 -6.26251e-11 3.46331e-11 1.05921e-10 5e-05 1.46608e-10 
88 1 0.0295286 0.0183331 0.00700168 0.00567636 -0.000110167 -0.000213711 1.98514e-11 -7.7868e-11 1.28422e-11 5e-05 1.46608e-10 
89 1 0.0294889 0.018145 0.00705685 0.00609272 -0.000210051 -0.000201355 -2.20231e-11 -1.40601e-10 4.1721e-11 5e-05 1.46608e-10 
90 1 0.0294965 0.0170036 0.00733523 0.00593282 -0.00040783 0.00016888 4.47072e-11 -1.07221e-10 2.8053e-11 5e-05 1.46608e-10 
91 1 0.0232809 0.0172181 0.00723923 0.00604043 -0.00102587 0.000178806 1.79244e-10 -1.60868e-10 -2.97826e-10 5e-05 1.46608e-10 
92 1 0.0295954 0.0178289 0.00714211 0.00607814 -0.000251042 -0.000191499 1.16916e-11 -6.5162e-11 -1.73377e-11 5e-05 1.46608e-10 
93 1 0.0295845 0.018175 0.00704422 0.00564058 -0.000100815 -0.000214337 7.90759e-11 1.69696e-10 -5.07178e-11 5e-05 1.46608e-10 
94 1 0.0296593 0.0181103 0.00705938 0.00569169 -5.76036e-05 -0.000228853 -7.14019e-11 4.85133e-11 -9.34058e-12 5e-05 1.46608e-10 
95 1 0.0294455 0.0179578 0.00711196 0.0060964 -0.0002353 -0.000225006 1.54517e-11 1.06562e-11 -6.20553e-11 5e-05 1.46608e-10 
96 1 0.0296171 0.0179225 0.00711456 0.00605363 -0.000244493 -0.000191222 -6.54471e-12 -4.199e-11 8.44081e-12 5e-05 1.46608e-10 
97 1 0.023156 0.0167215 0.00753784 0.00540796 -0.000737002 0.000491871 -7.39237e-11 7.90914e-11 -6.26953e-11 5e-05 1.46608e-10 
98 1 0.029548 0.0184273 0.00697409 0.0057222 -0.00011814 -0.000212855 5.88141e-11 1.42573e-10 -3.61938e-11 5e-05 1.46608e-10 
99 1 0.0233127 0.0169879 0.00735249 0.0060067 -0.000820898 0.000607322 -1.08293e-10 5.56148e-11 2.58212e-11 5e-05 1.46608e-10 
100 1 0.0294748 0.0169084 0.00735703 0.00598801 -0.000444433 0.000183518 -1.81854e-10 4.10297e-11 2.93162e-12 5e-05 1.46608e-10 
101 1 0.0232514 0.0167465 0.00751961 0.00575831 -0.000804245 0.000531889 -1.10929e-10 -1.28642e-11 2.11074e-11 5e-05 1.46608e-10 
102 1 0.0643568 0.0187248 0.00531097 4.37018e-15 1.04685e-14 8.29584e-14 -3.89124e-22 -8.94906e-23 2.29543e-23 5e-05 1.46608e-10 
103 1 0.24257 0.0191927 0.00520306 9.7161e-23 -4.80285e-22 -5.81428e-22 0 0 0 5e-05 1.46608e-10 
104 1 0.0235819 0.017764 0.00715584 0.00593929 -0.000963389 0.000179444 7.54294e-11 6.86465e-11 -1.1146e-11 5e-05 1.46608e-10 
105 1 0.0231165 0.0165609 0.00765162 0.00543875 -0.000695694 0.000459759 2.6603e-11 1.92687e-10 -1.37931e-10 5e-05 1.46608e-10 
106 1 0.0236557 0.0176975 0.00716656 0.00596434 -0.000941533 0.000176143 -1.89243e-11 -4.61861e-11 1.80707e-12 5e-05 1.46608e-10 
107 1 0.0230772 0.0164007 0.00776505 0.00542223 -0.000741914 0.000492549 -5.50587e-11 -1.14514e-10 7.89609e-11 5e-05 1.46608e-10 
108 1 0.0292654 0.0167681 0.00743105 0.00571627 -0.000112933 -4.45289e-05 2.99921e-10 -4.74154e-10 1.18457e-10 5e-05 1.46608e-10 
109 1 0.0293587 0.0175774 0.00720035 0.00612459 -0.000187733 0.000121053 -2.11411e-11 -8.56184e-11 2.68144e-11 5e-05 1.46608e-10 
110 1 0.0296691 0.0177631 0.00715762 0.00604683 -0.000286889 -0.000178311 4.31938e-11 -1.0959e-10 2.43458e-11 5e-05 1.46608e-10 
111 1 0.0295868 0.0186156 0.00691891 0.00579287 -0.000150036 -0.000207744 -4.87382e-11 1.03855e-11 2.98533e-12 5e-05 1.46608e-10 
112 1 0.023176 0.0168014 0.00748121 0.00593222 -0.000817206 0.00054282 5.2778e-11 6.77963e-11 -2.66592e-12 5e-05 1.46608e-10 
113 1 0.0238212 0.0175915 0.00718387 0.00602282 -0.000846958 0.00016194 5.32943e-12 -2.74022e-10 3.87772e-11 5e-05 1.46608e-10 
114 1 0.0235175 0.0174744 0.00720055 0.0060083 -0.000977475 0.000182417 -1.81213e-11 -1.7686e-11 -1.30368e-11 5e-05 1.46608e-10 
115 1 0.0294122 0.0174182 0.00723796 0.00610182 -0.000226702 0.000129774 4.02033e-10 -2.62784e-11 1.18099e-11 5e-05 1.46608e-10 
116 1 0.0292455 0.0166923 0.00749401 0.00565504 -0.000156261 -2.54042e-05 -1.79386e-11 -2.72812e-11 4.48836e-11 5e-05 1.46608e-10 
117 1 0.029108 0.0161637 0.00793277 0.00554206 -0.000189332 7.9693e-07 -2.33134e-10 -1.42915e-10 1.29062e-10 5e-05 1.46608e-10 
118 1 0.0230182 0.0161607 0.00793508 0.00542748 -0.000742577 0.000493682 5.0413e-12 1.26394e-12 -1.80079e-11 5e-05 1.46608e-10 
119 1 0.0294 0.0169729 0.00734113 0.00604603 -0.000364226 0.000161681 -1.05755e-10 2.45883e-11 -1.82483e-11 5e-05 1.46608e-10 
120 1 0.0289743 0.0159892 0.00808011 0.00551992 -0.000137822 -4.05494e-05 -7.1355e-11 -3.06078e-10 3.03596e-10 5e-05 1.46608e-10 
121 1 0.0289355 0.015842 0.00820971 0.00553244 9.91642e-05 0.000238807 7.90389e-11 5.45619e-13 -2.54761e-10 5e-05 1.46608e-10 
122 1 0.0296909 0.0178568 0.00713005 0.00604938 -0.000246322 -0.000190467 -3.85154e-11 -6.1793e-11 1.9922e-11 5e-05 1.46608e-10 
123 1 0.0231915 0.0165066 0.00768953 0.0054197 -0.000749308 0.000497807 -4.08107e-11 -3.91716e-11 2.67907e-11 5e-05 1.46608e-10 
124 1 0.0295424 0.0179872 0.0070994 0.00607619 -0.000227944 -0.000198286 6.75047e-11 1.36795e-11 -5.77523e-11 5e-05 1.46608e-10 
125 1 0.0290885 0.0160882 0.00799542 0.00553479 -0.000164508 -1.82667e-05 -1.50307e-11 1.22796e-10 -1.39505e-10 5e-05 1.46608e-10 
126 1 0.0293154 0.0173871 0.00724395 0.00614222 -0.000201652 0.000124157 -1.73011e-11 -1.71622e-10 5.25269e-11 5e-05 1.46608e-10 
127 1 0.0231362 0.0166412 0.00759469 0.00548788 -0.000491808 0.00031562 -2.94691e-11 -1.0409e-10 7.47287e-11 5e-05 1.46608e-10 
128 1 0.0294238 0.0178629 0.00713493 0.00610289 -0.000159429 0.000114808 -2.15266e-11 7.31477e-11 -3.83626e-11 5e-05 1.46608e-10 
129 1 0.0295092 0.018239 0.00702927 0.00563454 -0.000108132 -0.000212157 -6.37963e-11 -1.03854e-10 2.42427e-11 5e-05 1.46608e-10 
130 1 0.0234428 0.0175401 0.00718996 0.00598722 -0.000990656 0.000185865 -1.55451e-11 -5.89959e-11 -5.38354e-12 5e-05 1.46608e-10 
131 1 0.023292 0.0169063 0.00740642 0.00598885 -0.000837401 0.000566322 -9.95779e-11 -1.60148e-12 -6.73864e-12 5e-05 1.46608e-10 
132 1 0.0295206 0.0178935 0.00712696 0.00608776 -0.000238616 -0.000206715 -7.27203e-12 -8.28458e-12 -3.35234e-11 5e-05 1.46608e-10 
133 1 0.0292618 0.0164138 0.00772268 0.00562907 -0.000171042 -1.79176e-05 4.7053e-10 1.11044e-10 -5.61249e-11 5e-05 1.46608e-10 
134 1 0.0294219 0.0170682 0.00731929 0.00602857 -0.000306928 0.000147508 1.30432e-10 -1.88525e-11 6.14529e-12 5e-05 1.46608e-10 
135 1 0.029069 0.0160127 0.00805806 0.0055149 -0.000161927 -2.13769e-05 3.94549e-11 1.12812e-10 -1.11769e-10 5e-05 1.46608e-10 
136 1 0.0231326 0.0162666 0.00785955 0.00542265 -0.000745649 0.000494879 6.09095e-11 2.3475e-11 -1.70413e-11 5e-05 1.46608e-10 
137 1 0.0296052 0.0187099 0.00689131 0.0055782 -0.00011347 -0.000207275 4.54478e-11 7.88256e-11 5.43482e-12 5e-05 1.46608e-10 
138 1 0.0292061 0.016541 0.00761963 0.00563998 -0.000165974 -2.28496e-05 4.57929e-10 1.44894e-10 -1.21685e-10 5e-05 1.46608e-10 
140 1 0.0297129 0.0179508 0.00710242 0.00606346 -0.000219776 -0.000198992 -2.12486e-11 6.34128e-11 -1.74795e-11 5e-05 1.46608e-10 
141 1 0.0231719 0.0164266 0.0077462 0.00541576 -0.000744374 0.000493864 -1.13838e-10 -7.26652e-12 9.57232e-12 5e-05 1.46608e-10 
142 1 0.0235389 0.0175709 0.00718565 0.00598881 -0.000974394 0.000181939 2.59688e-11 -1.02598e-11 9.02313e-12 5e-05 1.46608e-10 
143 1 0.0230968 0.0164808 0.00770837 0.00542003 -0.000743769 0.000493782 -7.25166e-11 -1.06742e-10 7.60503e-11 5e-05 1.46608e-10 
144 1 0.0234959 0.0173778 0.00721546 0.00602198 -0.00097841 0.000182875 -1.71698e-10 -4.83266e-12 1.64741e-11 5e-05 1.46608e-10 
146 1 0.0233465 0.0167718 0.00750116 0.00580873 -0.000905944 0.000604505 4.56347e-12 -9.7204e-12 1.15533e-11 5e-05 1.46608e-10 
147 1 0.023113 0.0161866 0.00791623 0.00542036 -0.000750944 0.000499542 7.96527e-11 5.21439e-11 -2.22371e-11 5e-05 1.46608e-10 
148 1 0.0234097 0.0177972 0.00714982 0.00592514 -0.000999406 0.000184475 3.85852e-11 5.23819e-11 -2.42418e-11 5e-05 1.46608e-10 
149 1 0.0297862 0.0178846 0.00711806 0.00605025 -0.000246391 -0.000190825 -8.8558e-11 3.55457e-11 -4.47772e-12 5e-05 1.46608e-10 
150 1 0.0233885 0.0169314 0.00738806 0.00593104 -0.00088943 0.000591854 1.77555e-10 -1.86708e-12 3.49636e-11 5e-05 1.46608e-10 
151 1 0.0237081 0.0175343 0.00719218 0.0060134 -0.000928572 0.000174134 4.88508e-11 -8.50105e-11 1.49179e-11 5e-05 1.46608e-10 
153 1 0.0232312 0.0166666 0.00757622 0.00561205 -0.000783182 0.000519499 -9.60692e-11 4.29344e-12 8.55844e-14 5e-05 1.46608e-10 
154 1 0.0235072 0.0178297 0.00714526 0.00592519 -0.000979181 0.000181639 1.37857e-10 1.32341e-10 -3.50669e-11 5e-05 1.46608e-10 
155 1 0.023593 0.0182158 0.00708565 0.0058337 -0.00102993 0.000189234 2.78526e-10 3.45048e-10 -4.49053e-11 5e-05 1.46608e-10 
156 1 0.0234858 0.0177332 0.00716016 0.00594277 -0.000984458 0.000182578 5.56352e-11 6.52846e-11 1.14082e-14 5e-05 1.46608e-10 
157 1 0.0219312 0.0187687 0.00551176 -3.83022e-14 8.16773e-14 2.95889e-13 -1.04207e-21 7.57904e-23 -1.4e-22 5e-05 1.46608e-10 
158 1 0.0236034 0.0178606 0.00714093 0.00593573 -0.000970548 0.00018061 2.33474e-10 1.30434e-10 -8.02618e-12 5e-05 1.46608e-10 
159 1 0.0295737 0.0177344 0.00716664 0.0060929 -0.000171248 0.000114373 -8.8135e-12 -7.43951e-11 -1.36076e-12 5e-05 1.46608e-10 
160 1 0.0234955 0.0181834 0.00709019 0.00584411 -0.000990592 0.000182301 8.99613e-11 2.94077e-10 -4.58347e-11 5e-05 1.46608e-10 
162 1 0.0235287 0.0179262 0.00713036 0.00592662 -0.000976494 0.000181481 1.99253e-10 2.13809e-10 -3.04936e-11 5e-05 1.46608e-10 
164 1 0.0237584 0.0185494 0.0070346 0.00557202 -0.000836355 0.000158091 3.07676e-10 -4.7118e-11 -1.3582e-11 5e-05 1.46608e-10 
165 1 0.0238235 0.0177956 0.00715214 0.00595438 -0.000892254 0.000168614 4.95103e-11 -8.50898e-11 1.44325e-11 5e-05 1.46608e-10 
166 1 0.0292226 0.0162629 0.00784794 0.0056445 -0.000184832 -5.88594e-06 4.09585e-10 -1.57717e-11 2.08469e-11 5e-05 1.46608e-10 
167 1 0.0233668 0.0168518 0.0074445 0.00591967 -0.000884385 0.000589328 3.6916e-11 -7.27608e-11 1.64248e-11 5e-05 1.46608e-10 
168 1 0.0236773 0.0177941 0.00715165 0.00595534 -0.000948763 0.000177289 8.14567e-11 -5.03869e-11 -5.0198e-13 5e-05 1.46608e-10 
169 1 0.0238431 0.0176888 0.00716885 0.00598038 -0.000897644 0.000169588 2.2366e-11 -1.70363e-10 2.95917e-11 5e-05 1.46608e-10 
170 1 0.0237249 0.017958 0.0071264 0.00593765 -0.000913793 0.000171937 7.50929e-11 3.35818e-11 -2.00557e-12 5e-05 1.46608e-10 
171 1 0.0292422 0.0163384 0.00778531 0.00562803 -0.000177461 -1.05827e-05 3.54739e-10 8.85988e-12 -6.66325e-11 5e-05 1.46608e-10 
172 1 0.0237511 0.0177274 0.00716238 0.00596878 -0.000921648 0.000173066 3.55947e-11 -9.30985e-11 1.26646e-11 5e-05 1.46608e-10 
173 1 0.0295496 0.016844 0.00737292 0.0058814 -0.000577933 0.000208873 -2.72181e-10 2.35682e-10 -3.27538e-11 5e-05 1.46608e-10 
174 1 0.0236463 0.0180537 0.00711111 0.00594795 -0.000960115 0.000179003 5.14458e-12 2.80748e-10 -4.25231e-11 5e-05 1.46608e-10 
175 1 0.0177049 0.0192057 0.00695256 0.00466854 -0.00409184 -0.000731859 5.18816e-13 -6.96894e-13 -5.29219e-14 5e-05 1.46608e-10 
176 1 0.0234643 0.0176366 0.00717506 0.00596613 -0.000988332 0.000184491 1.59975e-11 -4.40697e-12 1.5844e-11 5e-05 1.46608e-10 
177 1 0.0235379 0.0183766 0.00706037 0.00546493 -0.000911779 0.000167065 -4.75977e-11 8.92077e-11 2.80493e-11 5e-05 1.46608e-10 
178 1 0.0237994 0.0174942 0.00719888 0.0060599 -0.000830309 0.000159463 4.09954e-11 -2.66182e-10 3.70756e-11 5e-05 1.46608e-10 
179 1 0.0238239 0.0179719 0.00712473 0.0059239 -0.000786021 0.000151748 1.16372e-10 -4.44938e-11 7.80829e-12 5e-05 1.46608e-10 
181 1 0.0234526 0.0179903 0.00712001 0.00588026 -0.000987733 0.000183246 3.88905e-11 5.66268e-11 -1.28534e-11 5e-05 1.46608e-10 
182 1 0.0291864 0.0164655 0.00768224 0.00562402 -0.000172325 -1.60825e-05 2.71755e-10 9.91323e-11 -6.89951e-11 5e-05 1.46608e-10 
183 1 0.0237497 0.0178623 0.0071414 0.00593509 -0.000911864 0.000171508 -6.69953e-11 -7.01259e-11 8.98531e-12 5e-05 1.46608e-10 
184 1 0.0295246 0.017738 0.00725366 0.00608983 -0.000135375 0.00010672 2.09642e-10 -5.11687e-11 5.29537e-11 5e-05 1.46608e-10 
185 1 0.0233882 0.0177007 0.00716472 0.0059457 -0.00100308 0.000184884 5.38448e-12 -1.45699e-11 3.19668e-11 5e-05 1.46608e-10 
186 1 0.0234311 0.0178938 0.00713491 0.00590481 -0.000993267 0.000183755 1.38489e-11 7.36199e-11 -2.24443e-12 5e-05 1.46608e-10 
187 1 0.0294552 0.0168162 0.00739035 0.005678 -0.000835624 -0.00104987 -6.48055e-11 -4.2219e-10 -8.83809e-10 5e-05 1.46608e-10 
188 1 0.0297337 0.0180453 0.00707464 0.00592981 0.000173819 -0.000305021 -3.13394e-11 5.23579e-11 -1.06721e-11 5e-05 1.46608e-10 
189 1 0.0294171 0.0169378 0.0074332 0.00602955 -0.000345289 0.000178454 -2.57758e-10 -7.12135e-11 1.59678e-11 5e-05 1.46608e-10 
190 1 0.0177686 0.0191296 0.00694063 0.00466859 -0.0040918 -0.000731878 4.26793e-13 -3.77109e-13 -1.01303e-13 5e-05 1.46608e-10 
191 1 0.0296233 0.0188043 0.0068637 0.00563302 -0.000120894 -0.000208035 2.82335e-11 7.40593e-11 -1.52189e-11 5e-05 1.46608e-10 
192 1 0.0236128 0.0175044 0.00719637 0.00601163 -0.000961797 0.000179712 2.11263e-11 -3.01863e-11 1.23999e-11 5e-05 1.46608e-10 
193 1 0.0293205 0.0166402 0.00753478 0.00561462 -0.000109634 -6.4193e-05 -4.71025e-10 1.60067e-10 5.84619e-11 5e-05 1.46608e-10 
194 1 0.0234315 0.0170908 0.00727517 0.00601307 -0.000905297 0.000594419 -2.50179e-10 3.0332e-11 -1.8284e-10 5e-05 1.46608e-10 
195 1 0.023913 0.0178397 0.00714573 0.00459889 0.00182087 -0.000260195 3.49205e-11 -5.29058e-11 9.53857e-12 5e-05 1.46608e-10 
196 1 0.0229207 0.0157565 0.00821271 0.005409 -0.000654993 0.000604622 1.78576e-11 4.70894e-11 -2.86582e-11 5e-05 1.46608e-10 
197 1 0.0177665 0.0195136 0.00697743 0.0047132 -0.0041306 -0.000738831 1.69375e-13 -1.02687e-12 -1.46744e-13 5e-05 1.46608e-10 
198 1 0.0233024 0.0173147 0.00722457 0.00601636 -0.00100741 0.000257963 5.98222e-11 -1.02034e-10 2.06352e-10 5e-05 1.46608e-10 
199 1 0.0235501 0.0180227 0.00711545 0.00591576 -0.0009691 0.000179596 6.85099e-11 3.20758e-10 -5.13707e-11 5e-05 1.46608e-10 
200 1 0.0234003 0.017347 0.00721977 0.00601044 -0.000987926 0.000191201 1.74491e-11 -1.15901e-10 -1.39192e-10 5e-05 1.46608e-10 
201 1 0.023896 0.0184115 0.00705673 0.00555782 -0.000823086 0.000154952 1.06253e-10 -2.72425e-10 2.25596e-11 5e-05 1.46608e-10 
202 1 0.0236342 0.0176009 0.00718146 0.00598738 -0.000952199 0.00017787 3.46663e-11 -2.63513e-11 9.03465e-12 5e-05 1.46608e-10 
203 1 0.0295713 0.0169392 0.00735111 0.00582943 -0.000521189 0.000194172 -8.56935e-11 -2.61265e-10 6.19026e-11 5e-05 1.46608e-10 
204 1 0.0233785 0.0172506 0.00723502 0.0060219 -0.000976915 0.000274466 1.454e-10 -1.08891e-10 -1.85697e-10 5e-05 1.46608e-10 
205 1 0.0237847 0.0182565 0.00708028 0.00550611 -0.000755681 0.000144152 -4.08834e-10 1.61018e-10 -3.95149e-11 5e-05 1.46608e-10 
206 1 0.0236678 0.0181503 0.00709621 0.00591984 -0.000994131 0.000184068 3.91369e-10 3.74476e-10 -7.3671e-11 5e-05 1.46608e-10 
207 1 0.0232113 0.0165866 0.00763286 0.00548286 -0.000765101 0.000508885 1.49981e-11 1.50408e-12 -5.27129e-12 5e-05 1.46608e-10 
208 1 0.0236249 0.0179572 0.00712601 0.00593248 -0.000971008 0.000180765 -3.38803e-12 3.1019e-10 -4.96285e-11 5e-05 1.46608e-10 
209 1 0.023412 0.0170107 0.00733186 0.00597116 -0.00089499 0.000598563 3.02797e-11 2.79639e-11 -7.49288e-11 5e-05 1.46608e-10 
210 1 0.0292505 0.0170711 0.00740457 0.00619363 -0.000192315 0.000127013 -8.37951e-11 -4.18088e-11 -6.70988e-11 5e-05 1.46608e-10 
211 1 0.0296389 0.0180162 0.00708701 0.00606418 -0.000214589 -0.00020007 -1.82843e-11 -9.57061e-12 9.37716e-12 5e-05 1.46608e-10 
212 1 0.0237416 0.0180837 0.00710693 0.00598267 -0.000982891 0.00018312 -5.25004e-11 -5.31316e-11 1.27436e-11 5e-05 1.46608e-10 
213 1 0.0294352 0.0167388 0.00745045 0.00565072 -7.36905e-05 -8.20546e-05 -1.15608e-10 7.16807e-11 1.08689e-10 5e-05 1.46608e-10 
214 1 0.0295641 0.0180809 0.00707184 0.006075 -0.000210402 -0.000201365 -2.99391e-11 -4.52038e-11 8.79122e-12 5e-05 1.46608e-10 
215 1 0.0177351 0.0189169 0.00692279 0.00465418 -0.00409447 -0.000731174 -2.44023e-11 -1.51953e-12 -5.15775e-13 5e-05 1.46608e-10 
216 1 0.023517 0.01828 0.0070754 0.00582624 -0.000995371 0.000179487 2.37182e-11 1.82322e-10 -3.82088e-11 5e-05 1.46608e-10 
217 1 0.0292815 0.0164892 0.00766007 0.00565233 -0.00015961 -2.48173e-05 4.29193e-10 1.01911e-10 -1.13869e-10 5e-05 1.46608e-10 
218 1 0.0236378 0.0183718 0.00706241 0.00549275 -0.000740058 0.000130223 1.38968e-10 -2.56701e-10 1.81877e-10 5e-05 1.46608e-10 
219 1 0.0295674 0.0185214 0.0069465 0.00576373 -0.000129164 -0.000212002 4.71166e-11 1.21003e-10 -3.3837e-11 5e-05 1.46608e-10 
220 1 0.0234741 0.0180869 0.0071051 0.0058761 -0.00098672 0.000181233 5.57378e-11 2.93491e-10 -3.63671e-11 5e-05 1.46608e-10 
221 1 0.0176571 0.0185643 0.00689486 0.00475062 -0.00417338 -0.000745633 8.08295e-14 -1.04324e-12 -9.7499e-13 5e-05 1.46608e-10 
222 1 0.0293009 0.0165647 0.00759741 0.00568965 -0.000150559 -4.3623e-05 1.66001e-10 3.92421e-11 -1.33474e-10 5e-05 1.46608e-10 
223 1 0.0235604 0.0176675 0.00717074 0.00596671 -0.000968416 0.000180202 7.70119e-12 2.08677e-11 4.44772e-12 5e-05 1.46608e-10 
224 1 0.0233668 0.0176042 0.00717962 0.00596733 -0.00100452 0.000190804 -1.51814e-11 -1.02499e-10 2.62299e-11 5e-05 1.46608e-10 
225 1 0.0296136 0.0171283 0.00730777 0.00606546 -0.000352289 0.000158767 6.64226e-11 -3.86414e-11 -1.18748e-12 5e-05 1.46608e-10 
226 1 0.0237296 0.0176309 0.00717728 0.00598572 -0.000923804 0.000173307 6.90363e-11 -9.61281e-11 1.92046e-11 5e-05 1.46608e-10 
227 1 0.0177664 0.0186191 0.00689209 0.00479579 -0.00417583 -0.000748773 3.68376e-10 -3.95187e-10 -6.5325e-11 5e-05 1.46608e-10 
228 1 0.0177248 0.0193055 0.00696062 0.00467427 -0.00409616 -0.0007327 3.21867e-13 -4.8125e-13 -6.63174e-14 5e-05 1.46608e-10 
229 1 0.0232143 0.0168239 0.00757082 0.00737555 0.000585172 -0.00042638 -7.30612e-11 7.34553e-11 9.56479e-11 5e-05 1.46608e-10 
230 1 0.023791 0.0186777 0.00701482 0.00555056 -0.000903963 0.000168375 -2.04813e-10 -5.85135e-11 -1.36229e-11 5e-05 1.46608e-10 
231 1 0.0176803 0.0190824 0.00694259 0.00466169 -0.00408536 -0.000730749 6.29645e-13 -5.29278e-13 -1.03287e-13 5e-05 1.46608e-10 
232 1 0.023308 0.0165657 0.0076471 0.00544392 -0.000873461 0.000585308 9.37022e-11 -2.32741e-11 1.71157e-11 5e-05 1.46608e-10 
233 1 0.0234526 0.0171844 0.00724532 0.00601579 -0.000994599 0.000204133 3.73587e-11 -5.13761e-11 -9.26465e-11 5e-05 1.46608e-10 
234 1 0.029808 0.0179801 0.00708997 0.0060621 0.000302448 -0.000347214 1.70339e-11 6.4827e-12 -3.52046e-12 5e-05 1.46608e-10 
235 1 0.0238298 0.0189243 0.00697667 0.00538876 -0.000779252 0.000147933 -9.50509e-11 -3.86483e-11 2.94464e-12 5e-05 1.46608e-10 
236 1 0.0238161 0.0187914 0.00699727 0.00531896 -0.000748961 0.000143127 -1.40326e-10 7.77555e-11 -1.34266e-11 5e-05 1.46608e-10 
237 1 0.023886 0.0187208 0.0070086 0.00540263 -0.000699748 0.000135844 -2.92704e-10 -1.63762e-10 2.44068e-11 5e-05 1.46608e-10 
239 1 0.0174578 0.0179995 0.00697676 0.00552169 -0.00116968 0.000384209 2.46176e-12 -2.71663e-12 -4.77557e-12 5e-05 1.46608e-10 
240 1 0.0175166 0.0182816 0.00690394 0.00562086 -0.00118836 0.000390139 3.15883e-12 -1.19223e-12 -5.89819e-12 5e-05 1.46608e-10 
241 1 0.0174394 0.0179109 0.00701934 0.00546603 -0.00115957 0.000380952 4.95165e-13 1.17913e-12 3.27139e-12 5e-05 1.46608e-10 
242 1 0.0236152 0.0173119 0.00722631 0.00213065 -0.00189705 0.000305669 -1.55013e-10 1.37632e-11 -1.18652e-11 5e-05 1.46608e-10 
243 1 0.0233576 0.0171548 0.00725448 0.00603112 -0.00093646 0.000436776 1.16034e-10 -1.19506e-11 -2.59033e-12 5e-05 1.46608e-10 
244 1 0.0174761 0.0180881 0.00693418 0.00557739 -0.0011798 0.000386866 -7.68948e-13 1.40756e-12 -8.14157e-12 5e-05 1.46608e-10 