ITEM: TIMESTEP
16800000
ITEM: NUMBER OF ATOMS
287
ITEM: BOX BOUNDS ff ff ff
-0.02 0.43
-0.02 0.06
-0.02 0.07
ITEM: ATOMS id type x y z vx vy vz fx fy fz radius mass 
1 1 0.110835 0.0165777 0.00782793 0.00591598 8.24102e-05 0.000397814 -4.10168e-11 2.6454e-11 -2.40793e-11 5e-05 1.46608e-10 
2 1 0.111265 0.0176338 0.00717239 0.00553086 0.00015927 0.000315525 -6.67818e-11 -2.56597e-11 8.73974e-13 5e-05 1.46608e-10 
3 1 0.104572 0.0158682 0.00822021 0.00622505 -8.64529e-05 -0.000264504 -1.36255e-10 1.14283e-10 -6.31743e-11 5e-05 1.46608e-10 
4 1 0.111153 0.0179358 0.00704885 0.00558778 -0.000176128 -0.00034928 -4.08491e-13 7.95238e-11 -6.74387e-12 5e-05 1.46608e-10 
5 1 0.110718 0.0164663 0.00789163 0.00593294 6.03433e-05 0.00041613 2.81902e-11 -5.07517e-11 8.0314e-11 5e-05 1.46608e-10 
6 1 0.116781 0.0167139 0.00774662 0.0059272 -0.000228257 -0.000300596 2.3097e-10 5.83162e-11 -6.60164e-11 5e-05 1.46608e-10 
7 1 0.110905 0.0172103 0.00742093 0.00542198 0.000324353 0.000202425 2.61258e-11 1.3195e-10 -8.63762e-11 5e-05 1.46608e-10 
8 1 0.110611 0.016052 0.00815353 0.00604834 4.61265e-05 0.000431374 5.20767e-12 3.41119e-11 -1.87015e-11 5e-05 1.46608e-10 
9 1 0.117028 0.0177493 0.00706509 0.00568848 -3.198e-06 -0.000802718 -8.88206e-12 -7.35954e-11 -1.0969e-10 5e-05 1.46608e-10 
10 1 0.110846 0.0169618 0.00757839 0.00560592 0.000154903 0.000326613 8.58817e-14 7.63991e-11 -4.28127e-11 5e-05 1.46608e-10 
11 1 0.111303 0.0178083 0.00708329 0.00557928 -0.000188386 -0.00034396 3.07354e-12 1.58867e-10 -7.50771e-11 5e-05 1.46608e-10 
12 1 0.104784 0.0166831 0.00768073 0.00544254 2.50301e-05 -0.000304726 8.96678e-10 -6.24045e-10 3.554e-10 5e-05 1.46608e-10 
13 1 0.110697 0.0163937 0.00795683 0.00593896 6.8881e-05 0.000423044 -4.12646e-11 -1.11951e-10 1.39006e-10 5e-05 1.46608e-10 
14 1 0.104485 0.0155729 0.00847326 0.00625512 0.000391013 0.000267996 4.08867e-11 -4.45002e-11 1.16412e-09 5e-05 1.46608e-10 
15 1 0.111037 0.0174066 0.00730309 0.00552262 0.000168609 0.000313519 1.38929e-10 3.52653e-11 8.13705e-11 5e-05 1.46608e-10 
16 1 0.104467 0.0155428 0.00856681 0.00625201 0.000372701 0.000283386 4.64425e-11 -5.6047e-10 6.30782e-10 5e-05 1.46608e-10 
17 1 0.110825 0.0168792 0.00763069 0.0058396 0.000115084 0.000370722 1.19702e-11 9.99406e-11 -6.21459e-11 5e-05 1.46608e-10 
18 1 0.116914 0.0172134 0.00727504 0.00554442 -6.45986e-05 -0.000208313 -1.66135e-10 -1.18139e-10 6.90492e-11 5e-05 1.46608e-10 
19 1 0.110675 0.0163194 0.00802014 0.00594652 6.38906e-05 0.00041475 -5.09791e-11 -1.75953e-10 5.27397e-11 5e-05 1.46608e-10 
21 1 0.110814 0.0164951 0.00788012 0.0059421 7.14142e-05 0.000406365 -3.64541e-11 7.69202e-11 -5.0607e-11 5e-05 1.46608e-10 
22 1 0.110943 0.0173806 0.00732356 0.00546964 0.00017397 0.00031766 -5.40903e-11 -5.98657e-11 1.03734e-10 5e-05 1.46608e-10 
23 1 0.104976 0.0171167 0.0073882 0.00550397 0.000110119 -0.000339401 -3.80685e-10 -4.59655e-10 1.87966e-11 5e-05 1.46608e-10 
24 1 0.11697 0.0174623 0.00712979 0.00566351 0.0001886 0.0001598 1.11057e-10 -2.21487e-11 5.54283e-11 5e-05 1.46608e-10 
25 1 0.110886 0.0171274 0.00747354 0.00550897 0.000174877 0.000306485 -1.30455e-10 -1.00877e-10 2.98097e-11 5e-05 1.46608e-10 
26 1 0.116861 0.0169978 0.00747672 0.00551895 -0.00016605 -0.000314275 1.7163e-10 1.88749e-10 -1.42128e-10 5e-05 1.46608e-10 
27 1 0.104863 0.0170089 0.00746269 0.00565188 8.54403e-05 -0.000259013 5.91498e-10 1.16741e-09 6.83219e-10 5e-05 1.46608e-10 
28 1 0.111133 0.0178439 0.00708308 0.00558207 -0.0001735 -0.000352545 2.50451e-11 7.94231e-11 3.69349e-11 5e-05 1.46608e-10 
29 1 0.110652 0.0162281 0.00807199 0.00597723 5.24559e-05 0.000415003 4.96997e-12 -6.42456e-11 -6.9611e-12 5e-05 1.46608e-10 
30 1 0.11117 0.0176029 0.00718525 0.00559793 0.000139598 0.000333623 -2.54549e-11 -1.34019e-11 -4.12609e-11 5e-05 1.46608e-10 
31 1 0.110924 0.0172933 0.00736829 0.00543069 0.000210199 0.000277499 1.3355e-12 1.60415e-10 -1.21415e-10 5e-05 1.46608e-10 
32 1 0.111019 0.0173236 0.00735574 0.00545824 0.000168569 0.000308986 2.51995e-11 -3.21982e-11 -4.04443e-13 5e-05 1.46608e-10 
33 1 0.116802 0.0167846 0.0076793 0.00592266 -0.000237254 -0.00029178 -1.45113e-10 -1.25469e-10 1.17935e-10 5e-05 1.46608e-10 
34 1 0.110804 0.0167966 0.00768288 0.00585148 9.87144e-05 0.000382482 1.34755e-12 7.32816e-11 -4.51771e-11 5e-05 1.46608e-10 
35 1 0.111 0.0172407 0.00740833 0.00545627 0.00017196 0.000305103 2.66151e-10 -8.6458e-11 7.83764e-11 5e-05 1.46608e-10 
36 1 0.117064 0.0179436 0.00709546 0.00559339 2.15853e-06 -0.000792606 1.08433e-11 1.7293e-10 2.04719e-11 5e-05 1.46608e-10 
37 1 0.110961 0.0170747 0.0075136 0.0055009 0.000188727 0.000296645 -8.94194e-11 3.69074e-11 -3.65902e-11 5e-05 1.46608e-10 
38 1 0.111113 0.0173542 0.00734301 0.00544992 0.000169722 0.000306178 -2.90612e-12 3.86963e-11 -3.67082e-11 5e-05 1.46608e-10 
39 1 0.116989 0.0175578 0.00710749 0.00566115 0.000192436 0.000161863 -1.29811e-10 -1.18282e-10 -2.23391e-11 5e-05 1.46608e-10 
41 1 0.110761 0.0166315 0.00778725 0.00589559 7.26746e-05 0.000402212 -6.2257e-11 -1.13992e-11 -4.7567e-12 5e-05 1.46608e-10 
42 1 0.110962 0.0174646 0.00727265 0.00551548 0.000166746 0.000314857 3.57331e-11 6.04447e-13 1.57183e-10 5e-05 1.46608e-10 
44 1 0.111132 0.0174371 0.00729043 0.00546915 0.000168371 0.000307297 -1.12505e-10 5.42907e-11 -1.42375e-11 5e-05 1.46608e-10 
45 1 0.116823 0.0168554 0.00761189 0.00552179 -0.000167618 -0.00032095 -2.5169e-10 -9.67639e-11 1.10193e-10 5e-05 1.46608e-10 
46 1 0.116897 0.0171406 0.00734136 0.00543644 -0.000157481 -0.000326574 -3.88846e-10 2.20144e-11 2.18501e-11 5e-05 1.46608e-10 
47 1 0.110783 0.016714 0.00773507 0.00587292 8.42418e-05 0.000393467 1.51873e-11 4.91955e-11 -3.60383e-11 5e-05 1.46608e-10 
48 1 0.111 0.0176321 0.0071685 0.00555626 -0.000184269 -0.000343478 -3.93163e-11 2.73869e-10 -1.56442e-10 5e-05 1.46608e-10 
49 1 0.116879 0.0170692 0.00740903 0.00547986 -0.000165724 -0.000316161 2.88426e-10 3.46285e-11 -6.4517e-11 5e-05 1.46608e-10 
50 1 0.111058 0.0179078 0.00706583 0.00558555 -0.000166618 -0.000351931 2.22748e-12 4.1772e-13 1.18994e-11 5e-05 1.46608e-10 
51 1 0.111039 0.0178159 0.00710006 0.00557371 -0.000163369 -0.00035814 -1.22788e-11 6.16849e-13 4.69782e-11 5e-05 1.46608e-10 
52 1 0.104763 0.0166005 0.00773323 0.00547696 2.45977e-05 -0.000297591 4.72682e-12 -7.20603e-10 4.84336e-10 5e-05 1.46608e-10 
53 1 0.116932 0.0172875 0.00721028 0.00566309 0.000111798 3.28874e-05 1.82565e-10 2.31192e-11 1.28152e-10 5e-05 1.46608e-10 
54 1 0.110792 0.0164124 0.00793241 0.00594158 7.55835e-05 0.000404263 1.62196e-10 2.07402e-11 3.63572e-11 5e-05 1.46608e-10 
55 1 0.104529 0.0157097 0.00833423 0.00627175 -2.15391e-05 -0.000197347 3.03402e-10 -2.99434e-10 4.99926e-10 5e-05 1.46608e-10 
56 1 0.11098 0.0171578 0.00746092 0.00550532 0.000177732 0.000304619 -2.48971e-10 -4.35046e-12 -1.37618e-11 5e-05 1.46608e-10 
57 1 0.116843 0.0169264 0.00754438 0.00551801 -0.000171836 -0.000314575 -7.89179e-11 7.54248e-11 -2.35941e-11 5e-05 1.46608e-10 
59 1 0.111036 0.0170222 0.00755354 0.00547691 0.00018553 0.000297056 -1.46953e-10 9.19479e-11 -6.65776e-11 5e-05 1.46608e-10 
60 1 0.111056 0.0171055 0.00750076 0.00550015 0.000156392 0.000317894 -3.54659e-10 -1.57462e-10 7.79287e-11 5e-05 1.46608e-10 
61 1 0.11074 0.0165489 0.00783944 0.0059173 6.1682e-05 0.000410849 -4.02032e-11 -4.62052e-11 4.14659e-11 5e-05 1.46608e-10 
62 1 0.111152 0.0175199 0.00723794 0.00552329 0.000157645 0.000319094 -2.15348e-11 1.5193e-11 -2.79816e-11 5e-05 1.46608e-10 
63 1 0.111095 0.0176626 0.00715775 0.00560773 1.82494e-05 7.52838e-05 -2.54523e-11 -1.04133e-10 -5.66518e-11 5e-05 1.46608e-10 
64 1 0.11695 0.0173668 0.00715205 0.00566157 0.000197831 0.000155944 -8.60519e-12 1.15293e-10 2.95113e-11 5e-05 1.46608e-10 
65 1 0.1049 0.0167885 0.00760377 0.00552845 9.30109e-06 -0.000285316 3.77631e-10 -3.3528e-10 1.15711e-10 5e-05 1.46608e-10 
66 1 0.104839 0.0165438 0.00776632 0.00549392 4.33439e-05 -0.000309609 1.98403e-11 -9.28142e-10 6.0885e-10 5e-05 1.46608e-10 
67 1 0.111283 0.0177168 0.00711964 0.00563501 9.52725e-05 0.000368859 -1.15297e-10 7.31909e-11 -1.10816e-10 5e-05 1.46608e-10 
68 1 0.111208 0.0177802 0.00710059 0.00558512 -0.000163563 -0.00031562 -3.83643e-11 1.03669e-10 4.84414e-11 5e-05 1.46608e-10 
69 1 0.110899 0.0168255 0.00767134 0.0058492 0.00012841 0.000362703 -8.42319e-11 5.14499e-11 -4.16404e-11 5e-05 1.46608e-10 
70 1 0.117009 0.0176533 0.00708518 0.00564912 0.000202427 0.000159955 -2.17069e-11 -1.16589e-10 1.09496e-10 5e-05 1.46608e-10 
71 1 0.104507 0.0156423 0.00840469 0.00625111 0.000219289 4.84467e-05 -5.55245e-11 -1.40772e-10 9.9769e-10 5e-05 1.46608e-10 
72 1 0.111189 0.017691 0.00714158 0.00555327 -0.000129431 -0.000257766 -3.02169e-11 -1.14483e-11 -1.3367e-10 5e-05 1.46608e-10 
73 1 0.110866 0.0170446 0.00752602 0.00552073 0.000173255 0.000308474 -1.14956e-10 2.07963e-11 -3.56238e-11 5e-05 1.46608e-10 
74 1 0.111056 0.0174896 0.00725042 0.00552686 0.000151729 0.000319766 7.97036e-11 -1.19106e-10 8.50793e-11 5e-05 1.46608e-10 
76 1 0.105088 0.017605 0.00705806 0.00565125 0.000280302 9.05099e-05 1.03501e-09 -2.56387e-09 -2.00009e-09 5e-05 1.46608e-10 
77 1 0.111175 0.0184548 0.00686479 0.00565141 3.25513e-05 0.000389288 -2.49217e-11 2.29343e-11 -1.76614e-11 5e-05 1.46608e-10 
78 1 0.104593 0.0159496 0.0081661 0.00620297 -9.45471e-05 -0.000252737 -3.92962e-13 7.43002e-11 -1.24144e-10 5e-05 1.46608e-10 
79 1 0.104804 0.0167643 0.00762609 0.00550183 2.95485e-05 -0.00029441 3.2281e-10 -1.64097e-10 3.66475e-10 5e-05 1.46608e-10 
80 1 0.111098 0.0180971 0.00702052 0.00560755 -0.000177917 -0.000348541 -9.5386e-11 5.50297e-11 -2.75165e-11 5e-05 1.46608e-10 
81 1 0.104743 0.0165189 0.00778743 0.0057283 -9.58432e-06 -0.000285869 -8.2615e-10 -5.89047e-10 4.35195e-10 5e-05 1.46608e-10 
82 1 0.104882 0.0170907 0.00740851 0.00559427 0.000120575 -0.000289752 2.83795e-10 4.01158e-10 5.18529e-10 5e-05 1.46608e-10 
83 1 0.104935 0.0165689 0.00774516 0.00551127 8.54017e-05 -0.000334267 1.21829e-09 -5.60253e-10 2.57122e-10 5e-05 1.46608e-10 
84 1 0.117046 0.0178465 0.00708027 0.00563977 7.70671e-07 -0.000801796 -3.93532e-12 4.01703e-11 5.90993e-11 5e-05 1.46608e-10 
85 1 0.10471 0.0160545 0.00809178 0.00622169 -4.26532e-05 -0.000287781 -1.45583e-10 1.22172e-10 -5.96826e-11 5e-05 1.46608e-10 
86 1 0.111114 0.0177524 0.00711836 0.00556096 -0.00018591 -0.000407946 -7.08748e-11 1.78235e-11 1.49408e-10 5e-05 1.46608e-10 
87 1 0.111016 0.0169384 0.00760658 0.00554768 0.000200772 0.000292488 -2.93679e-10 2.37659e-10 -1.75012e-10 5e-05 1.46608e-10 
88 1 0.111116 0.0181783 0.0069651 0.00561838 -0.000184844 -0.000349555 -3.93908e-11 5.70627e-11 -1.13037e-11 5e-05 1.46608e-10 
89 1 0.111167 0.0182529 0.00702428 0.00561208 -0.000215016 -0.000340616 -5.2311e-12 2.3116e-11 -4.73222e-12 5e-05 1.46608e-10 
90 1 0.111246 0.017551 0.00722489 0.00550055 0.000166946 0.000311251 8.17106e-11 -6.07911e-11 4.58511e-11 5e-05 1.46608e-10 
91 1 0.104824 0.0168451 0.0075707 0.00551858 3.70231e-05 -0.000273544 -1.37011e-10 -9.21226e-11 8.07889e-11 5e-05 1.46608e-10 
92 1 0.111289 0.0180996 0.00698044 0.00560383 -0.000207302 -0.000338626 -4.53259e-12 -6.2351e-11 1.19188e-11 5e-05 1.46608e-10 
93 1 0.111211 0.0182047 0.00694869 0.00562172 -0.000196299 -0.000343217 -6.31063e-12 2.12435e-11 2.1613e-12 5e-05 1.46608e-10 
94 1 0.111344 0.0184228 0.00687342 0.00605539 -0.000304878 0.000388591 -2.44456e-11 -1.79063e-11 -8.03437e-12 5e-05 1.46608e-10 
95 1 0.111264 0.0181827 0.00703041 0.00561548 -0.000193273 -0.000333334 -1.23218e-11 -1.73355e-11 6.89711e-11 5e-05 1.46608e-10 
96 1 0.111311 0.018199 0.00694336 0.0056152 -0.000221647 -0.000336886 -2.69026e-11 -2.91648e-11 4.27734e-11 5e-05 1.46608e-10 
97 1 0.1047 0.0163562 0.00789563 0.00615398 -6.79664e-05 -0.000265053 -3.65213e-11 -3.8358e-10 1.91102e-10 5e-05 1.46608e-10 
98 1 0.111135 0.0182702 0.00693087 0.0056261 -0.00019796 -0.000341823 3.88257e-11 9.89567e-11 -2.48222e-11 5e-05 1.46608e-10 
99 1 0.104879 0.0167069 0.00765798 0.00547758 2.70207e-05 -0.000290423 -2.24689e-10 -5.21177e-10 4.24684e-10 5e-05 1.46608e-10 
100 1 0.111207 0.0173848 0.00733025 0.00545485 0.000163457 0.000309437 -6.92917e-11 8.24828e-11 -5.79591e-11 5e-05 1.46608e-10 
101 1 0.104818 0.0164622 0.00782055 0.0059012 0.000173862 -0.00040894 -4.50765e-10 -5.00439e-10 3.3189e-10 5e-05 1.46608e-10 
102 1 0.0643568 0.0187248 0.00531097 4.3843e-15 1.0458e-14 8.29592e-14 -5.70806e-22 1.60034e-22 9.92617e-24 5e-05 1.46608e-10 
103 1 0.24257 0.0191927 0.00520306 9.00258e-24 -1.27651e-22 8.29106e-22 0 0 0 5e-05 1.46608e-10 
104 1 0.105164 0.0175503 0.00709386 0.00568461 5.49121e-05 -0.000224316 4.44607e-10 4.11096e-10 -3.1739e-10 5e-05 1.46608e-10 
105 1 0.104657 0.0161935 0.00800382 0.00616505 -7.2543e-05 -0.000265002 -9.21545e-11 1.79571e-10 -4.79957e-11 5e-05 1.46608e-10 
106 1 0.10524 0.0174939 0.00712674 0.00568313 -0.000129214 -0.000252143 -5.35053e-10 3.36134e-10 -5.78361e-10 5e-05 1.46608e-10 
107 1 0.104615 0.0160309 0.00811201 0.0061863 -9.06042e-05 -0.000251615 1.09457e-10 1.1221e-10 -1.51467e-10 5e-05 1.46608e-10 
108 1 0.110941 0.0169914 0.00756634 0.00554777 0.000200676 0.000292874 -2.84963e-10 6.12012e-11 -5.98635e-11 5e-05 1.46608e-10 
109 1 0.111019 0.017724 0.00713428 0.00556257 -0.000177825 -0.000345558 8.21181e-12 3.47267e-11 -3.61243e-11 5e-05 1.46608e-10 
110 1 0.11126 0.0188443 0.0069078 0.00616401 -0.000264115 0.000401159 -1.88264e-11 -7.31299e-11 -2.13967e-11 5e-05 1.46608e-10 
111 1 0.111294 0.0185879 0.00688584 0.00626855 -0.000214502 0.000452221 -6.71545e-12 -4.5731e-11 2.47109e-11 5e-05 1.46608e-10 
112 1 0.104722 0.0164375 0.00784154 0.00605863 -6.27934e-05 -0.000259512 -2.56239e-10 -5.54547e-10 4.8274e-10 5e-05 1.46608e-10 
113 1 0.105555 0.0181992 0.00699748 0.0057076 -0.00111297 -0.000305219 -4.94512e-10 -6.86216e-11 8.19199e-12 5e-05 1.46608e-10 
114 1 0.105108 0.0173055 0.00725794 0.00572693 -8.95776e-06 -0.000283901 -4.36905e-10 1.5717e-09 5.87058e-10 5e-05 1.46608e-10 
115 1 0.111075 0.0175769 0.00720559 0.00557287 0.000145288 0.000309412 9.21339e-11 -2.11768e-10 -1.01642e-10 5e-05 1.46608e-10 
116 1 0.11092 0.0169084 0.00761887 0.00572078 0.000258441 0.000268087 3.23845e-11 2.1501e-10 -1.40666e-10 5e-05 1.46608e-10 
117 1 0.110769 0.0163299 0.00798437 0.00594732 7.40603e-05 0.000408093 3.09941e-11 -8.35021e-11 1.43868e-10 5e-05 1.46608e-10 
118 1 0.10455 0.0157869 0.00827429 0.00625723 -7.54841e-05 -0.000262339 1.49599e-10 5.06253e-11 2.05854e-10 5e-05 1.46608e-10 
119 1 0.111075 0.0171884 0.00744818 0.00544488 0.000168047 0.000305893 1.00245e-10 -8.69149e-11 7.46487e-11 5e-05 1.46608e-10 
120 1 0.110632 0.0161345 0.00810134 0.00602334 4.6888e-05 0.000428234 -1.51463e-11 -9.98013e-12 1.4364e-11 5e-05 1.46608e-10 
121 1 0.11059 0.0159694 0.00820572 0.00607163 4.64483e-05 0.000432996 1.45465e-11 7.32584e-11 -4.97091e-11 5e-05 1.46608e-10 
122 1 0.111238 0.0187473 0.00689705 0.00617225 -0.000265928 0.000401651 -1.40371e-11 -6.38004e-11 1.38158e-11 5e-05 1.46608e-10 
123 1 0.104753 0.0162172 0.00798355 0.0061933 2.39442e-06 -0.000314034 -6.44021e-11 -1.48479e-10 1.00168e-10 5e-05 1.46608e-10 
124 1 0.11119 0.0181131 0.0069829 0.00560889 -0.000189817 -0.000345963 -6.42762e-12 4.46664e-11 -1.84724e-11 5e-05 1.46608e-10 
125 1 0.110743 0.016248 0.00803582 0.00596967 7.24012e-05 0.00040859 -5.49662e-11 -1.11745e-10 4.19157e-11 5e-05 1.46608e-10 
126 1 0.11098 0.0175431 0.00720977 0.00554157 0.000131044 0.000329889 -1.56379e-12 -1.27111e-11 8.72161e-11 5e-05 1.46608e-10 
127 1 0.104679 0.0162749 0.00794973 0.0061408 -6.12151e-05 -0.000273913 7.85033e-11 -1.02796e-10 4.79178e-11 5e-05 1.46608e-10 
128 1 0.111078 0.0179997 0.00703161 0.00559684 -0.000171511 -0.000350348 -2.77563e-11 2.63183e-11 -2.57489e-11 5e-05 1.46608e-10 
129 1 0.111301 0.0182888 0.00698624 0.00583041 -0.000198714 -0.000331439 -8.81308e-11 -2.43399e-11 5.0726e-11 5e-05 1.46608e-10 
130 1 0.104995 0.0171976 0.00733231 0.00558192 0.000166325 -0.000385586 -5.03787e-10 5.86441e-10 -4.75875e-10 5e-05 1.46608e-10 
131 1 0.104859 0.0166254 0.00771215 0.00544808 4.05392e-05 -0.000303546 3.31349e-10 -8.19115e-10 6.1799e-10 5e-05 1.46608e-10 
132 1 0.111172 0.0180336 0.00704101 0.00559815 -0.000180007 -0.000346289 1.74543e-11 7.51279e-11 -4.69932e-11 5e-05 1.46608e-10 
133 1 0.11093 0.0166065 0.00781645 0.00590887 0.00010235 0.00038427 -7.31871e-11 8.55992e-11 -6.29721e-11 5e-05 1.46608e-10 
134 1 0.111094 0.0172713 0.00739559 0.00544834 0.000172615 0.000304479 1.66147e-10 2.29175e-11 7.92339e-12 5e-05 1.46608e-10 
135 1 0.110728 0.0161647 0.00808892 0.00600392 7.14478e-05 0.000411103 6.21817e-11 -2.52065e-12 1.39365e-12 5e-05 1.46608e-10 
136 1 0.104689 0.0159731 0.0081459 0.00621747 -5.7511e-05 -0.000275927 -4.65657e-11 -1.02793e-10 1.13234e-10 5e-05 1.46608e-10 
137 1 0.111194 0.0185526 0.00687548 0.00622988 -8.52968e-05 0.000422676 -9.53565e-13 5.88763e-13 -1.89453e-12 5e-05 1.46608e-10 
138 1 0.110878 0.0167429 0.00772355 0.00586071 0.000100716 0.000381697 -2.31144e-12 7.84666e-11 -5.02367e-11 5e-05 1.46608e-10 
140 1 0.111316 0.0186849 0.00689651 0.00622607 -0.000199576 0.000411013 -5.64363e-11 -6.54763e-11 -3.16492e-11 5e-05 1.46608e-10 
141 1 0.104732 0.0161359 0.00803765 0.00624572 -1.07452e-05 -0.000309699 -2.12257e-10 1.633e-10 -1.4198e-10 5e-05 1.46608e-10 
142 1 0.105127 0.017389 0.00720623 0.00582166 -0.00013144 -0.000360922 4.76853e-10 1.27173e-10 1.06233e-09 5e-05 1.46608e-10 
143 1 0.104636 0.0161122 0.00805791 0.00617274 -8.17482e-05 -0.000256723 4.84172e-11 2.08988e-10 -1.10645e-10 5e-05 1.46608e-10 
144 1 0.105089 0.0172229 0.00731101 0.00551732 7.63789e-05 -0.000355806 1.9966e-09 1.03135e-09 -4.76483e-10 5e-05 1.46608e-10 
146 1 0.104955 0.0166504 0.00769099 0.00553506 8.99464e-05 -0.000341658 1.0396e-09 -5.82646e-10 2.88509e-10 5e-05 1.46608e-10 
147 1 0.104667 0.0158918 0.0082 0.00624295 -5.58197e-05 -0.000275458 -1.14743e-10 -1.70129e-10 1.21128e-10 5e-05 1.46608e-10 
148 1 0.104938 0.0173371 0.00724695 0.0056148 0.000139987 -0.000254775 5.15425e-10 3.18089e-10 -3.59789e-10 5e-05 1.46608e-10 
149 1 0.111272 0.0184906 0.00688889 0.00615775 -0.000190906 0.000354062 -1.44119e-11 -3.56391e-12 1.21326e-11 5e-05 1.46608e-10 
150 1 0.104994 0.0168138 0.00758248 0.00597799 0.000127006 -0.000358307 4.51726e-10 -5.94164e-10 -1.02739e-09 5e-05 1.46608e-10 
151 1 0.105354 0.0176071 0.00705891 0.00554817 0.000150687 0.000409588 -1.34098e-09 -6.53327e-10 1.21899e-09 5e-05 1.46608e-10 
153 1 0.104796 0.0163801 0.0078752 0.00622293 0.000121097 -0.000391591 1.32364e-10 -3.21819e-10 1.94335e-10 5e-05 1.46608e-10 
154 1 0.105051 0.0174431 0.00716939 0.00572941 -4.11417e-05 -0.000502476 3.69997e-10 3.86145e-10 -3.1756e-10 5e-05 1.46608e-10 
155 1 0.105108 0.0176951 0.00701947 0.00551262 0.000310634 0.000184439 7.42614e-10 6.39292e-11 2.36164e-09 5e-05 1.46608e-10 
156 1 0.105033 0.0173613 0.0072237 0.00577638 0.000103264 -0.000199481 -4.89119e-10 9.00328e-10 1.40364e-10 5e-05 1.46608e-10 
157 1 0.0219312 0.0187687 0.00551176 -3.83642e-14 8.16469e-14 2.9589e-13 1.12548e-22 9.27993e-23 -1.30281e-23 5e-05 1.46608e-10 
158 1 0.105143 0.0176461 0.00713981 0.00553281 0.000518868 -0.000675882 -1.27871e-09 5.38299e-10 -7.20673e-10 5e-05 1.46608e-10 
159 1 0.111228 0.017872 0.00706611 0.00558675 -0.000177885 -0.000349975 -2.2125e-11 1.08465e-10 -5.37357e-11 5e-05 1.46608e-10 
160 1 0.104993 0.0175765 0.00707478 0.00567867 0.000287291 1.09269e-05 -3.23306e-10 4.01385e-10 9.3816e-10 5e-05 1.46608e-10 
162 1 0.104957 0.0174178 0.00719098 0.00570104 0.000181034 -7.10527e-05 -5.29275e-10 8.76989e-10 9.88257e-11 5e-05 1.46608e-10 
164 1 0.10527 0.0181083 0.00701533 0.00578541 -7.44006e-05 -0.00182243 2.48792e-10 3.19224e-09 4.63746e-09 5e-05 1.46608e-10 
165 1 0.105451 0.0178781 0.00700715 0.00579609 -6.84257e-05 -0.000298144 2.97634e-10 8.85812e-10 1.18509e-11 5e-05 1.46608e-10 
166 1 0.110887 0.0164413 0.00792084 0.00596515 8.3556e-05 0.0004008 -9.95402e-11 7.79514e-11 -6.08879e-11 5e-05 1.46608e-10 
167 1 0.104975 0.016732 0.00763679 0.00556835 2.66579e-05 -0.000295606 3.85204e-10 -5.96516e-10 3.07704e-10 5e-05 1.46608e-10 
168 1 0.10526 0.0175776 0.00707578 0.00548285 -2.35356e-05 -0.000170725 -2.58053e-10 8.16264e-10 1.204e-09 5e-05 1.46608e-10 
169 1 0.10546 0.0181693 0.00700315 0.00578707 -0.000754301 -0.000324261 4.87091e-09 3.81835e-10 -2.68793e-10 5e-05 1.46608e-10 
170 1 0.105278 0.0176654 0.00702652 0.00551999 4.08272e-05 0.000552643 1.08621e-09 -1.58586e-09 4.7098e-10 5e-05 1.46608e-10 
171 1 0.110909 0.0165239 0.00786865 0.00594014 9.00174e-05 0.000394652 4.62214e-11 1.18104e-10 -7.33574e-11 5e-05 1.46608e-10 
172 1 0.105396 0.0177946 0.00701128 0.00564798 9.47565e-05 -7.13085e-05 1.29477e-09 -1.52365e-10 3.00144e-10 5e-05 1.46608e-10 
173 1 0.111382 0.0181313 0.00696226 0.00543409 -0.000389841 -0.000261189 -1.97859e-11 -2.37565e-12 1.72749e-12 5e-05 1.46608e-10 
174 1 0.105206 0.0177346 0.00703458 0.00565162 0.000200195 0.000601974 1.65869e-10 -4.98507e-11 -1.33758e-10 5e-05 1.46608e-10 
175 1 0.0989423 0.0173488 0.00719886 0.00561875 7.69619e-05 -2.66172e-05 3.1343e-11 8.02124e-11 -1.8033e-11 5e-05 1.46608e-10 
176 1 0.105014 0.0172795 0.00727798 0.00554956 -1.20774e-05 -0.000294607 -3.36566e-10 5.3636e-10 -5.32814e-10 5e-05 1.46608e-10 
177 1 0.105032 0.0177594 0.00701071 0.00558166 0.000206121 0.000583666 2.18822e-09 -2.19705e-09 2.33881e-09 5e-05 1.46608e-10 
178 1 0.105525 0.0180928 0.00700048 0.00576163 -0.000830771 -0.000304744 1.514e-09 -7.28238e-10 -8.57012e-11 5e-05 1.46608e-10 
179 1 0.105429 0.0180628 0.00700615 0.00562838 -0.000364165 -0.000398418 2.01276e-09 9.43829e-10 -6.46303e-10 5e-05 1.46608e-10 
181 1 0.104984 0.0175666 0.00720453 0.00573386 0.000436125 -8.68655e-05 -7.13909e-10 3.86137e-11 4.85198e-12 5e-05 1.46608e-10 
182 1 0.110856 0.0166603 0.00777574 0.00588902 9.22488e-05 0.00038917 -5.98718e-11 4.77799e-11 -3.35462e-11 5e-05 1.46608e-10 
183 1 0.105185 0.017638 0.0070494 0.00570336 6.52299e-05 -0.000608981 -1.60435e-09 2.64953e-10 -1.53439e-09 5e-05 1.46608e-10 
184 1 0.111332 0.0180136 0.00700795 0.00560196 -0.000211121 -0.000335868 1.41583e-10 -1.53523e-11 3.85636e-12 5e-05 1.46608e-10 
185 1 0.104919 0.0172555 0.00730164 0.00554538 0.000112713 -0.000394348 1.32246e-09 -6.04163e-10 -5.48293e-10 5e-05 1.46608e-10 
186 1 0.105015 0.0174694 0.00725877 0.00320431 0.00144258 -0.00198857 -2.10709e-10 -7.65634e-11 -3.60136e-10 5e-05 1.46608e-10 
187 1 0.111188 0.0173019 0.00738283 0.00544762 0.000171006 0.000304455 3.35254e-11 5.06409e-11 -2.80962e-11 5e-05 1.46608e-10 
188 1 0.111231 0.0182968 0.00691528 0.00570487 -0.000167449 -0.000206522 5.60814e-13 4.71963e-11 4.30236e-11 5e-05 1.46608e-10 
189 1 0.111227 0.0174677 0.00727773 0.00551474 0.000150357 0.000322966 -1.39421e-10 -1.05424e-10 5.77762e-11 5e-05 1.46608e-10 
190 1 0.0990766 0.0175709 0.00714382 0.00563198 5.205e-05 -2.15603e-05 3.80295e-12 5.45702e-12 -3.91407e-12 5e-05 1.46608e-10 
191 1 0.111216 0.0186501 0.00688628 0.00616143 -0.00035007 0.000392577 -5.14435e-12 -4.16754e-11 -3.20151e-12 5e-05 1.46608e-10 
192 1 0.105202 0.0173302 0.00723535 0.00571627 -0.000177586 -0.000156418 2.20866e-09 -3.10628e-10 -4.47297e-10 5e-05 1.46608e-10 
193 1 0.110995 0.0168551 0.0076593 0.00581237 0.000338282 0.000223134 -1.87721e-10 9.8745e-11 -7.9232e-11 5e-05 1.46608e-10 
194 1 0.105033 0.0169773 0.00747394 0.00551316 0.000153326 -0.000378634 8.15245e-11 -3.14124e-10 3.00185e-10 5e-05 1.46608e-10 
195 1 0.105477 0.0179747 0.00700457 0.00587045 -0.000145309 -0.000326683 -6.23336e-11 4.87754e-10 6.75814e-11 5e-05 1.46608e-10 
196 1 0.104447 0.0155127 0.0086601 0.00614317 0.000389512 0.000284089 -4.13089e-11 -2.95959e-10 2.99479e-10 5e-05 1.46608e-10 
197 1 0.099001 0.0176344 0.00712826 0.00562928 4.78992e-05 -2.04563e-05 -2.09428e-11 -2.97193e-11 7.26165e-12 5e-05 1.46608e-10 
198 1 0.104843 0.0169268 0.00751644 0.00557464 3.09887e-05 -0.000275057 -4.81394e-11 1.07893e-10 -2.64443e-10 5e-05 1.46608e-10 
199 1 0.104975 0.0174973 0.00713305 0.00567167 0.000258884 7.52212e-05 -3.38969e-10 5.81696e-10 -2.00756e-10 5e-05 1.46608e-10 
200 1 0.104957 0.0170338 0.00744097 0.00568401 8.51365e-05 -0.000335389 -5.99849e-10 5.39465e-10 1.85293e-10 5e-05 1.46608e-10 
201 1 0.105396 0.0182459 0.00700582 0.00570012 -0.000791148 -0.000314908 2.54148e-09 2.50392e-09 -4.21868e-10 5e-05 1.46608e-10 
202 1 0.105221 0.017412 0.00718107 0.00549606 -9.38097e-05 -0.000162018 -5.42233e-10 1.52748e-10 1.68796e-10 5e-05 1.46608e-10 
203 1 0.11139 0.0186169 0.00689512 0.00626565 -0.000199448 0.000414263 -1.79493e-11 -2.41357e-11 4.63638e-12 5e-05 1.46608e-10 
204 1 0.104938 0.016952 0.00749523 0.00562929 -1.41485e-05 -0.000255654 4.18484e-10 -4.32213e-10 2.8727e-10 5e-05 1.46608e-10 
205 1 0.105235 0.0180163 0.00708903 0.00530463 -0.000254983 -0.000338 -1.23687e-09 7.71826e-10 -4.429e-10 5e-05 1.46608e-10 
206 1 0.105226 0.0178319 0.00702215 0.0051897 -0.00036644 -0.00496553 0 0 -1.43822e-09 5e-05 1.46608e-10 
207 1 0.104775 0.0162985 0.00792946 0.00620632 5.05389e-06 -0.000315788 2.21158e-11 -1.08297e-10 9.71089e-11 5e-05 1.46608e-10 
208 1 0.105069 0.0175255 0.00711568 0.00565239 0.000191911 -9.50322e-05 4.15964e-10 6.44609e-10 2.45061e-09 5e-05 1.46608e-10 
209 1 0.105014 0.0168956 0.0075282 0.00570382 6.7413e-05 -0.00033113 6.36544e-10 -3.26533e-10 1.97656e-10 5e-05 1.46608e-10 
210 1 0.11112 0.017924 0.00714264 0.00558687 -0.000178284 -0.000352656 2.38829e-11 8.62148e-11 -5.46319e-12 5e-05 1.46608e-10 
211 1 0.111326 0.0183262 0.00689689 0.00585294 -0.000246241 -0.000342993 7.83269e-12 1.69977e-11 2.90992e-11 5e-05 1.46608e-10 
212 1 0.105301 0.0177658 0.00702591 0.00562179 0.000218017 0.000288564 7.05548e-10 3.32755e-10 -1.33298e-10 5e-05 1.46608e-10 
213 1 0.111169 0.017219 0.00743542 0.00544017 0.000176976 0.000299608 -5.39367e-11 -6.59926e-12 6.27043e-12 5e-05 1.46608e-10 
214 1 0.111421 0.0183597 0.0068779 0.00608917 -0.000314922 -0.000336046 -4.20188e-12 -1.87335e-11 1.2344e-11 5e-05 1.46608e-10 
215 1 0.099057 0.0174758 0.00716735 0.00564194 5.54114e-05 -2.25869e-05 2.98251e-11 2.88405e-11 -2.36409e-12 5e-05 1.46608e-10 
216 1 0.105012 0.0176616 0.00702582 0.00565696 -0.00018885 -0.000115292 -2.81552e-11 -1.37733e-10 3.13665e-11 5e-05 1.46608e-10 
217 1 0.110952 0.0166891 0.00776426 0.00587378 0.000115766 0.00037281 -5.76597e-11 7.79073e-11 -5.50043e-11 5e-05 1.46608e-10 
218 1 0.105146 0.0178915 0.00702204 0.00578169 0.000252621 0.000529051 -1.41564e-10 -2.33946e-10 -2.30883e-10 5e-05 1.46608e-10 
219 1 0.111251 0.0183931 0.00689764 0.00593 -0.000166717 7.31531e-05 -1.08153e-11 1.8579e-11 4.08428e-11 5e-05 1.46608e-10 
220 1 0.105055 0.017721 0.00710015 0.00554158 -0.000387413 0.0003566 -4.02391e-10 1.74675e-10 5.58463e-10 5e-05 1.46608e-10 
221 1 0.0989611 0.0170116 0.0073138 0.00558808 7.03336e-05 -4.15959e-05 6.99344e-11 -4.15229e-11 4.48601e-11 5e-05 1.46608e-10 
222 1 0.110973 0.0167718 0.00771199 0.0058839 0.000162776 0.00034298 -1.46598e-10 5.18648e-11 -4.54704e-11 5e-05 1.46608e-10 
223 1 0.105146 0.0174698 0.0071503 0.00577241 -0.000190585 -0.000400244 4.41747e-11 7.14683e-10 3.30694e-10 5e-05 1.46608e-10 
224 1 0.104901 0.0171735 0.00735559 0.00550341 0.000120861 -0.000404406 7.25661e-10 -6.54307e-10 -7.22029e-10 5e-05 1.46608e-10 
225 1 0.111246 0.0179669 0.00703089 0.00558635 -0.000194665 -0.000342536 2.01735e-11 3.90188e-11 -1.1398e-11 5e-05 1.46608e-10 
226 1 0.105374 0.0176977 0.00702177 0.00554046 0.000185598 0.000429425 1.579e-09 -8.52486e-10 6.98498e-10 5e-05 1.46608e-10 
227 1 0.0990181 0.0172853 0.00721442 0.00562974 6.1496e-05 -2.36588e-05 -3.70064e-11 -4.27816e-11 -1.3205e-11 5e-05 1.46608e-10 
228 1 0.0989618 0.017444 0.00717533 0.00560959 8.2552e-05 -2.92503e-05 3.07253e-11 9.56494e-11 -1.87521e-11 5e-05 1.46608e-10 
229 1 0.105046 0.0176204 0.00714742 0.00567799 0.0003625 2.95486e-05 -4.07831e-10 5.59886e-10 2.31678e-09 5e-05 1.46608e-10 
230 1 0.105322 0.0183134 0.00700913 0.00573015 -0.00084899 -0.000316051 -1.33882e-09 4.58466e-10 -1.51809e-10 5e-05 1.46608e-10 
231 1 0.0989228 0.0172536 0.0072224 0.00561755 7.47142e-05 -2.77084e-05 -6.48821e-11 -3.95993e-11 -2.01928e-11 5e-05 1.46608e-10 
232 1 0.104914 0.0164873 0.00779934 0.00549876 7.37976e-05 -0.000324911 -1.39594e-10 4.94487e-11 -3.74999e-11 5e-05 1.46608e-10 
233 1 0.105052 0.0170592 0.00741963 0.00555195 0.000169683 -0.000366206 1.05153e-10 -8.43308e-10 8.34043e-10 5e-05 1.46608e-10 
234 1 0.111155 0.0183624 0.00689753 0.00564402 -0.000101384 -2.47249e-05 5.1398e-11 7.05009e-11 2.09566e-11 5e-05 1.46608e-10 
235 1 0.105216 0.0186412 0.00701112 0.00589546 -0.000799492 -0.00031794 -1.76876e-11 -1.74619e-10 8.66543e-12 5e-05 1.46608e-10 
236 1 0.105344 0.018411 0.00700674 0.00588586 -0.000821818 -0.000310246 -2.89421e-10 -9.25571e-11 -5.9336e-11 5e-05 1.46608e-10 
237 1 0.105366 0.0185085 0.00700436 0.00583271 -0.00086482 -0.00031164 -7.74584e-11 -2.35276e-11 -4.22177e-11 5e-05 1.46608e-10 
239 1 0.0987524 0.0165396 0.00771518 0.00578352 0.000113026 -7.32583e-05 1.61951e-10 -3.04314e-11 3.72836e-11 5e-05 1.46608e-10 
240 1 0.0988104 0.0167637 0.00752442 0.00564053 5.31521e-05 -2.34728e-05 -1.01599e-11 1.14742e-10 -6.33617e-11 5e-05 1.46608e-10 
241 1 0.0987327 0.0164649 0.00777871 0.005739 0.000115038 -7.75104e-05 1.23961e-10 2.78185e-10 -2.11472e-10 5e-05 1.46608e-10 
242 1 0.105165 0.0171665 0.00734395 0.00554532 3.1295e-05 -0.000325765 1.59687e-09 -1.18017e-09 4.50799e-10 5e-05 1.46608e-10 
243 1 0.104919 0.0168712 0.00755092 0.00565457 -2.15515e-05 -0.000209253 4.76378e-10 -8.59282e-10 -9.85843e-10 5e-05 1.46608e-10 
244 1 0.0987722 0.0166142 0.00765164 0.00576715 6.45891e-05 -3.76168e-05 -2.18214e-10 -4.93116e-10 4.13662e-10 5e-05 1.46608e-10 
246 1 0.0988839 0.0170632 0.00726958 0.0056351 5.45583e-05 -2.58863e-05 -7.53454e-11 1.77422e-11 -7.3482e-11 5e-05 1.46608e-10 
247 1 0.105166 0.0179908 0.00702175 0.00533876 -0.00011878 -0.000294525 6.95112e-11 2.55559e-10 -3.89227e-11 5e-05 1.46608e-10 
248 1 0.105491 0.0182759 0.00700014 0.00577212 -0.00100888 -0.000310086 -4.79237e-10 6.42146e-11 6.7749e-11 5e-05 1.46608e-10 