ITEM: TIMESTEP
200000
ITEM: NUMBER OF ATOMS
75
ITEM: BOX BOUNDS ff ff ff
-0.02 0.43
-0.02 0.06
-0.02 0.07
ITEM: ATOMS id type x y z vx vy vz fx fy fz radius mass 
1 1 0.0171029 0.0142645 0.0118433 0.00359298 0.000494885 -0.00366366 -1.1376e-10 -2.65423e-11 1.45458e-10 5e-05 1.46608e-10 
2 1 0.020791 0.0186332 0.0164073 0.000718118 0.0291126 0.0176322 0 0 -1.43822e-09 5e-05 1.46608e-10 
3 1 0.0162799 0.0175749 0.023918 0 -0 -0.03 0 0 0 5e-05 1.46608e-10 
4 1 0.0230384 0.0201199 0.0227003 0 -0 -0.03 0 0 0 5e-05 1.46608e-10 
5 1 0.0161459 0.0162444 0.0155112 -0.0047445 -0.0384021 0.00695158 0 0 -1.43822e-09 5e-05 1.46608e-10 
6 1 0.0199654 0.0156232 0.0206144 0 -0 -0.03 0 0 0 5e-05 1.46608e-10 
7 1 0.0148068 0.0209804 0.0158924 -1.0543e-09 0.026556 -0.0116667 2.84531e-20 -1.03417e-11 -2.35196e-11 5e-05 1.46608e-10 
8 1 0.0167297 0.0161526 0.0236818 0 -0 -0.03 0 0 0 5e-05 1.46608e-10 
9 1 0.0233097 0.0217287 0.0083763 0.00368628 -0.0579418 -0.119414 0 0 -1.43822e-09 5e-05 1.46608e-10 
10 1 0.0156328 0.0224028 0.0150102 0 0 -0.260834 0 0 -1.43822e-09 5e-05 1.46608e-10 
11 1 0.020595 0.0201703 0.0245272 0 -0 -0.03 0 0 0 5e-05 1.46608e-10 
12 1 0.0211681 0.0238216 0.0121956 -0.0141334 0.0274565 -0.0553564 0 0 -1.43822e-09 5e-05 1.46608e-10 
13 1 0.0171511 0.0191644 0.00698913 -1.92009e-15 2.5046e-15 -2.62516e-14 -4.1876e-24 -2.48154e-24 0 5e-05 1.46608e-10 
14 1 0.015043 0.01872 0.0242519 0 -0 -0.03 0 0 0 5e-05 1.46608e-10 
15 1 0.0182569 0.0231779 0.0252157 0 -0 -0.03 0 0 0 5e-05 1.46608e-10 
16 1 0.0146267 0.0194466 0.0237434 0 -0 -0.03 0 0 0 5e-05 1.46608e-10 
17 1 0.0170494 0.0203019 0.00710509 -1.91876e-15 2.50564e-15 -2.62516e-14 3.36042e-24 -6.46235e-25 -2.06795e-25 5e-05 1.46608e-10 
18 1 0.0204215 0.0179564 0.00711232 0.000595412 0.110417 -0.0141609 0 0 -1.43822e-09 5e-05 1.46608e-10 
19 1 0.016699 0.0143096 0.0122704 0.0203399 -0.00667077 -0.014976 -1.07834e-10 -1.31365e-11 1.63164e-10 5e-05 1.46608e-10 
20 1 0.0209147 0.0202667 0.0191526 0 -0 -0.03 0 0 0 5e-05 1.46608e-10 
21 1 0.0163269 0.0151893 0.0143834 -0.00217788 -0.062601 -0.0951434 0 0 -1.43822e-09 5e-05 1.46608e-10 
22 1 0.0194922 0.0238531 0.0115642 -1.78527e-05 -0.000295968 -0.000533565 2.36931e-12 2.42796e-11 4.36544e-11 5e-05 1.46608e-10 
23 1 0.0171238 0.0224213 0.0270593 0 -0 -0.03 0 0 0 5e-05 1.46608e-10 
24 1 0.0196152 0.0148628 0.0180238 0 0 -0.0943781 0 0 -1.43822e-09 5e-05 1.46608e-10 
25 1 0.0172034 0.0204083 0.0152566 4.97121e-05 0.0227624 -0.00821232 -3.80522e-14 -7.13282e-12 -2.02628e-11 5e-05 1.46608e-10 
26 1 0.0199691 0.0166361 0.00785772 0.0324148 0.0923127 -0.120705 0 0 -1.43822e-09 5e-05 1.46608e-10 
27 1 0.0172321 0.0195895 0.0267198 0 -0 -0.03 0 0 0 5e-05 1.46608e-10 
28 1 0.014237 0.0229689 0.0142714 0.00906004 0.00394811 -0.00563631 -1.12412e-11 2.14897e-12 2.08532e-11 5e-05 1.46608e-10 
29 1 0.0175364 0.0167446 0.0217037 0 -0 -0.03 0 0 0 5e-05 1.46608e-10 
30 1 0.0198546 0.016645 0.0223301 0 -0 -0.03 0 0 0 5e-05 1.46608e-10 
31 1 0.0170528 0.0209794 0.0202686 0 -0 -0.03 0 0 0 5e-05 1.46608e-10 
32 1 0.0191256 0.0201351 0.0223176 0 -0 -0.03 0 0 0 5e-05 1.46608e-10 
33 1 0.0194779 0.0164716 0.0198068 0 -0 -0.03 0 0 0 5e-05 1.46608e-10 
34 1 0.0169705 0.0204936 0.0161116 -3.93242e-09 0.0278881 -0.00871087 -1.91794e-18 -7.71027e-12 -2.4707e-11 5e-05 1.46608e-10 
35 1 0.019646 0.0238564 0.0115702 -1.55769e-05 -0.000261125 -0.000470334 5.80714e-12 -7.25593e-12 -9.54594e-11 5e-05 1.46608e-10 
36 1 0.0236863 0.0196643 0.0205895 0 -0 -0.03 0 0 0 5e-05 1.46608e-10 
37 1 0.0176571 0.0219418 0.0144216 -5.91221e-05 0.0600477 -0.103003 0 0 -1.43822e-09 5e-05 1.46608e-10 
38 1 0.0188849 0.0222907 0.0230951 0 -0 -0.03 0 0 0 5e-05 1.46608e-10 
39 1 0.0216864 0.0171255 0.0224274 0 -0 -0.03 0 0 0 5e-05 1.46608e-10 
40 1 0.0163876 0.0198651 0.0208138 0 -0 -0.03 0 0 0 5e-05 1.46608e-10 
41 1 0.0164414 0.0149756 0.0214384 0 -0 -0.03 0 0 0 5e-05 1.46608e-10 
42 1 0.0186023 0.019719 0.0182353 0 0 -0.06898 0 0 -1.43822e-09 5e-05 1.46608e-10 
43 1 0.0202238 0.0238546 0.0115663 -0.0357845 0.00897238 0.0276487 2.23842e-06 -3.66003e-07 -6.25695e-07 5e-05 1.46608e-10 
44 1 0.0210292 0.0211164 0.0204674 0 -0 -0.03 0 0 0 5e-05 1.46608e-10 
45 1 0.0194373 0.0161727 0.0185974 0 -0 -0.03 0 0 0 5e-05 1.46608e-10 
46 1 0.0205229 0.0190838 0.00687353 0.00538203 -0.00224952 0.000532352 -3.42864e-12 -1.79783e-11 3.96675e-12 5e-05 1.46608e-10 
47 1 0.0161735 0.0169527 0.0219886 0 -0 -0.03 0 0 0 5e-05 1.46608e-10 
48 1 0.0205117 0.0232201 0.0251635 0 -0 -0.03 0 0 0 5e-05 1.46608e-10 
49 1 0.0195148 0.0154367 0.00946776 0.0554028 0.0667627 -0.180105 0 0 -1.43822e-09 5e-05 1.46608e-10 
50 1 0.021847 0.0181461 0.0253897 0 -0 -0.03 0 0 0 5e-05 1.46608e-10 
51 1 0.0215986 0.0189505 0.0234478 0 -0 -0.03 0 0 0 5e-05 1.46608e-10 
52 1 0.0165344 0.0186388 0.026049 0 -0 -0.03 0 0 0 5e-05 1.46608e-10 
53 1 0.0203516 0.0173587 0.0186389 0 -0 -0.03 0 0 0 5e-05 1.46608e-10 
54 1 0.0164249 0.0149564 0.021935 0 -0 -0.03 0 0 0 5e-05 1.46608e-10 
55 1 0.0148175 0.0177697 0.0248145 0 -0 -0.03 0 0 0 5e-05 1.46608e-10 
56 1 0.0168665 0.0195995 0.0162862 -4.11883e-09 0.0289407 -0.00330946 -1.45655e-18 -2.92729e-12 -2.56371e-11 5e-05 1.46608e-10 
57 1 0.0186277 0.0172272 0.01622 0 0 -0.21047 0 0 -1.43822e-09 5e-05 1.46608e-10 
58 1 0.0221062 0.0204172 0.017804 0 0 -0.114979 0 0 -1.43822e-09 5e-05 1.46608e-10 
59 1 0.0191003 0.0144318 0.0209757 0 -0 -0.03 0 0 0 5e-05 1.46608e-10 
60 1 0.0191008 0.0141413 0.0264069 0 -0 -0.03 0 0 0 5e-05 1.46608e-10 
61 1 0.0173369 0.0145672 0.018315 0 0 -0.0565213 0 0 -1.43822e-09 5e-05 1.46608e-10 
62 1 0.0199787 0.0216175 0.0256911 0 -0 -0.03 0 0 0 5e-05 1.46608e-10 
63 1 0.0222889 0.0184249 0.0190794 0 -0 -0.03 0 0 0 5e-05 1.46608e-10 
64 1 0.0208992 0.0196418 0.00691842 0.0051169 0.00234117 0.00329747 0 0 -1.43822e-09 5e-05 1.46608e-10 
65 1 0.017687 0.0174519 0.0235192 0 -0 -0.03 0 0 0 5e-05 1.46608e-10 
66 1 0.0155669 0.0221018 0.0253927 0 -0 -0.03 0 0 0 5e-05 1.46608e-10 
67 1 0.0208055 0.0238799 0.011612 -0.00149763 -0.00396391 0.00352953 -3.04149e-07 4.9298e-06 1.81622e-06 5e-05 1.46608e-10 
68 1 0.0157018 0.0181539 0.0166449 -0.00382747 0.00870637 -0.0537292 0 0 -1.43822e-09 5e-05 1.46608e-10 
69 1 0.019389 0.0238509 0.0115602 -1.94324e-05 -0.000319158 -0.000575339 3.49441e-13 2.41966e-11 4.3655e-11 5e-05 1.46608e-10 
70 1 0.0228944 0.0203849 0.0175966 0 0 -0.131489 0 0 -1.43822e-09 5e-05 1.46608e-10 
71 1 0.0145778 0.0179052 0.0273869 0 -0 -0.03 0 0 0 5e-05 1.46608e-10 
72 1 0.0230906 0.0209042 0.0207518 0 -0 -0.03 0 0 0 5e-05 1.46608e-10 
73 1 0.01726 0.0205207 0.0071313 -9.19857e-15 -5.44991e-14 1.35808e-13 6.69499e-24 5.16988e-25 6.20385e-25 5e-05 1.46608e-10 
74 1 0.0221414 0.0221204 0.0224616 0 -0 -0.03 0 0 0 5e-05 1.46608e-10 
75 1 0.016666 0.0230287 0.0250883 0 -0 -0.03 0 0 0 5e-05 1.46608e-10 
