ITEM: TIMESTEP
20600000
ITEM: NUMBER OF ATOMS
287
ITEM: BOX BOUNDS ff ff ff
-0.02 0.43
-0.02 0.06
-0.02 0.07
ITEM: ATOMS id type x y z vx vy vz fx fy fz radius mass 
1 1 0.13286 0.0160011 0.0080315 0.00556384 -0.000335765 -0.000192087 -5.6996e-11 -6.69684e-11 -1.35719e-10 5e-05 1.46608e-10 
2 1 0.133342 0.01732 0.00751865 0.00571702 -0.000105336 -0.000115277 1.56307e-09 -1.12662e-09 -3.34876e-10 5e-05 1.46608e-10 
3 1 0.126699 0.0157618 0.00830655 0.00527032 -0.000631282 0.00108633 7.43333e-11 3.00814e-10 -2.89725e-10 5e-05 1.46608e-10 
4 1 0.133194 0.0174477 0.007478 0.00583987 1.15628e-06 0.000189891 7.26113e-10 -5.12963e-10 2.89251e-09 5e-05 1.46608e-10 
5 1 0.132746 0.015914 0.00812817 0.0055126 -0.000355491 -0.000125896 6.52884e-12 2.56965e-11 -2.54538e-11 5e-05 1.46608e-10 
6 1 0.138928 0.0167006 0.00772725 0.00567831 -0.000795543 0.00032765 2.56735e-12 5.2455e-11 -5.20135e-11 5e-05 1.46608e-10 
7 1 0.132922 0.0166673 0.00771071 0.00587835 4.37263e-05 0.000456226 -3.18958e-12 -2.18124e-10 6.15375e-11 5e-05 1.46608e-10 
8 1 0.132651 0.0156112 0.00851064 0.00568799 0.000519173 0.000665119 -1.37332e-11 -4.1912e-11 5.05486e-11 5e-05 1.46608e-10 
9 1 0.13919 0.0177502 0.00714384 0.00599597 -0.000697893 0.000468389 -3.80785e-12 3.19445e-12 -1.50143e-12 5e-05 1.46608e-10 
10 1 0.132861 0.0163863 0.00779643 0.00555408 0.000104642 0.000409465 -1.01548e-11 4.76816e-12 -5.33069e-13 5e-05 1.46608e-10 
11 1 0.133377 0.0175282 0.00744142 0.00568031 1.31682e-05 -0.000154865 3.00858e-10 4.52624e-10 4.71381e-11 5e-05 1.46608e-10 
12 1 0.126895 0.0164988 0.007659 0.00542034 -0.000930743 0.000514917 1.45513e-10 2.59747e-10 -1.96983e-10 5e-05 1.46608e-10 
13 1 0.132726 0.0158453 0.00819823 0.00550253 -0.000355571 -0.000126921 4.28292e-11 8.27642e-11 -8.9919e-11 5e-05 1.46608e-10 
14 1 0.126623 0.0155139 0.00859808 0.00551158 -0.00081358 0.000895109 -9.05563e-10 -1.19854e-10 2.59723e-10 5e-05 1.46608e-10 
15 1 0.133063 0.016888 0.00765086 0.00588094 7.44265e-05 0.000446012 1.73376e-11 -7.1066e-11 3.1192e-11 5e-05 1.46608e-10 
16 1 0.126604 0.0154679 0.00868485 0.00552965 -0.00083723 0.000932083 -3.02022e-10 -1.65328e-10 3.17893e-10 5e-05 1.46608e-10 
17 1 0.132842 0.0162924 0.00782523 0.00558954 9.4621e-05 0.000415851 -1.55833e-11 2.94657e-11 -2.21652e-11 5e-05 1.46608e-10 
18 1 0.13906 0.0171754 0.00725691 0.00607976 -0.00071154 0.000475997 1.00263e-11 -2.07457e-11 8.93445e-12 5e-05 1.46608e-10 
19 1 0.132707 0.0157766 0.00826829 0.0054778 -0.000355916 -0.000125367 -6.52372e-11 8.86512e-11 -1.07974e-10 5e-05 1.46608e-10 
21 1 0.13284 0.0159325 0.0081015 0.00546373 -0.000301615 -0.000176355 -7.0992e-11 6.37324e-11 -8.7487e-11 5e-05 1.46608e-10 
22 1 0.132965 0.0168541 0.00765396 0.00588425 7.96523e-05 0.000444872 3.31384e-13 -1.09533e-11 8.03252e-13 5e-05 1.46608e-10 
23 1 0.127093 0.0169402 0.00738252 0.00602025 -0.000921623 0.000498129 -4.24643e-10 1.0222e-09 -5.9142e-10 5e-05 1.46608e-10 
24 1 0.139125 0.0174628 0.00720038 0.00603797 -0.000707089 0.000472458 1.84093e-12 4.78852e-12 -9.2315e-13 5e-05 1.46608e-10 
25 1 0.1329 0.0165739 0.00773909 0.00588542 4.46129e-05 0.000456127 -3.14902e-11 -1.29824e-10 4.22034e-11 5e-05 1.46608e-10 
26 1 0.139001 0.0169518 0.00742481 0.00596147 -0.000832773 0.000330135 -8.5115e-11 6.02069e-12 5.42558e-11 5e-05 1.46608e-10 
27 1 0.126976 0.0168314 0.00745153 0.00595065 -0.000941911 0.000513091 3.82092e-11 -3.26742e-10 2.09677e-10 5e-05 1.46608e-10 
28 1 0.133172 0.017355 0.00750894 0.00585689 4.67791e-05 0.000443033 1.13229e-10 -1.963e-10 2.15521e-10 5e-05 1.46608e-10 
29 1 0.132687 0.015708 0.00833831 0.00561534 -0.000384214 -0.000107027 7.2777e-11 1.32519e-10 -1.40802e-10 5e-05 1.46608e-10 
30 1 0.133224 0.0171999 0.00756316 0.0058727 5.42589e-05 0.000455603 9.56688e-11 -1.376e-10 1.46805e-10 5e-05 1.46608e-10 
31 1 0.132944 0.0167607 0.00768233 0.00588601 7.46718e-05 0.000446501 -6.05574e-12 -2.59655e-11 1.05473e-11 5e-05 1.46608e-10 
32 1 0.133042 0.0167946 0.00767924 0.00588667 8.33558e-05 0.000443663 -2.20474e-11 -1.85817e-11 5.61586e-12 5e-05 1.46608e-10 
33 1 0.138946 0.0167631 0.00765136 0.00573482 -0.000803184 0.000327076 -8.7962e-12 8.10563e-11 -6.34598e-11 5e-05 1.46608e-10 
34 1 0.132823 0.0161957 0.00785487 0.00563209 0.000131478 0.000404565 6.50451e-12 -8.97188e-12 -3.74656e-12 5e-05 1.46608e-10 
35 1 0.13302 0.0167011 0.00770763 0.00587903 6.85687e-05 0.000447654 3.65877e-11 4.74199e-11 -1.18947e-11 5e-05 1.46608e-10 
36 1 0.139233 0.0179418 0.00710616 0.00596834 -0.000692515 0.00046577 -3.44069e-12 -1.06034e-11 2.05348e-12 5e-05 1.46608e-10 
37 1 0.132976 0.0165143 0.00776439 0.00588543 5.57373e-05 0.000452491 1.38241e-10 -8.13899e-11 3.84763e-11 5e-05 1.46608e-10 
38 1 0.133159 0.0169197 0.00764831 0.00586376 6.86482e-05 0.00044818 1.43888e-11 -3.28163e-11 2.59743e-11 5e-05 1.46608e-10 
39 1 0.139146 0.0175586 0.00718153 0.00602341 -0.000703627 0.000471124 -2.14815e-12 -1.09427e-11 1.31862e-12 5e-05 1.46608e-10 
41 1 0.132784 0.0160516 0.0079883 0.00556031 -0.000329913 -0.000107385 -4.90186e-12 -5.29197e-11 -8.2237e-11 5e-05 1.46608e-10 
42 1 0.132987 0.0169475 0.00762558 0.00588353 8.1126e-05 0.000443908 1.66834e-11 -2.67923e-12 1.36914e-12 5e-05 1.46608e-10 
44 1 0.133181 0.0170131 0.00761996 0.00585436 6.81341e-05 0.000448839 1.89283e-10 -1.13418e-10 1.01883e-10 5e-05 1.46608e-10 
45 1 0.138964 0.0168255 0.00757547 0.00577452 -0.000807873 0.000324155 -6.10358e-11 -1.43817e-11 -2.24522e-11 5e-05 1.46608e-10 
46 1 0.139038 0.0170796 0.00727575 0.00608477 -0.000715425 0.000475299 3.48766e-11 -6.18721e-11 -4.7463e-12 5e-05 1.46608e-10 
47 1 0.132804 0.0161204 0.00791767 0.005579 -0.000316268 -0.00016718 -2.49776e-11 -7.58997e-11 5.83514e-11 5e-05 1.46608e-10 
48 1 0.133031 0.0171343 0.00756881 0.00587175 6.365e-05 0.000448902 7.04171e-11 8.11889e-11 -1.13171e-11 5e-05 1.46608e-10 
49 1 0.139024 0.0170147 0.0073505 0.006042 -0.000719298 0.000453855 2.15547e-10 -9.32162e-11 5.22806e-11 5e-05 1.46608e-10 
50 1 0.133096 0.0174148 0.00748359 0.00585384 3.60236e-05 0.000458981 1.1306e-10 4.43287e-11 5.97505e-12 5e-05 1.46608e-10 
51 1 0.133074 0.0173214 0.00751197 0.00586014 3.60201e-05 0.000457391 3.40353e-11 6.93724e-11 -4.4462e-12 5e-05 1.46608e-10 
52 1 0.126875 0.0164203 0.00771891 0.00542949 -0.000511775 0.000990699 1.06601e-10 3.72023e-10 -3.05977e-10 5e-05 1.46608e-10 
53 1 0.139082 0.0172712 0.00723806 0.00606473 -0.000709989 0.000474747 7.19298e-12 3.19578e-11 -8.15594e-12 5e-05 1.46608e-10 
54 1 0.132821 0.0158638 0.00817155 0.00541673 -0.000293965 -0.00017175 8.60327e-12 9.69482e-11 -4.73543e-11 5e-05 1.46608e-10 
55 1 0.126661 0.0156225 0.00843569 0.00541841 -0.000697517 0.000897687 -3.16641e-10 -3.58492e-10 5.9066e-10 5e-05 1.46608e-10 
56 1 0.132998 0.0166077 0.00773601 0.00588056 6.06557e-05 0.00045051 1.40093e-10 -6.00105e-11 3.20113e-11 5e-05 1.46608e-10 
57 1 0.138983 0.016888 0.00749958 0.0058687 -0.000820079 0.000325065 -8.46457e-11 -4.56789e-11 1.60389e-11 5e-05 1.46608e-10 
59 1 0.133073 0.016546 0.0077619 0.00583906 6.9096e-05 0.000444326 7.01532e-11 6.24267e-11 -1.36738e-11 5e-05 1.46608e-10 
60 1 0.133094 0.0166395 0.00773344 0.00587159 6.3997e-05 0.000448499 2.05493e-11 5.78804e-11 -1.69354e-11 5e-05 1.46608e-10 
61 1 0.132765 0.0159826 0.00805812 0.00554266 -0.000357703 -0.000127322 5.08326e-11 -3.54994e-11 -1.85557e-11 5e-05 1.46608e-10 
62 1 0.133203 0.0171065 0.00759154 0.00586752 5.74839e-05 0.000446343 1.23488e-10 -2.03033e-10 1.76671e-12 5e-05 1.46608e-10 
63 1 0.133128 0.0171682 0.00756571 0.00586612 4.82057e-05 0.000452037 7.08199e-11 -3.94564e-11 9.24227e-11 5e-05 1.46608e-10 
64 1 0.139103 0.017367 0.00721922 0.00605188 -0.000709267 0.000473826 3.58502e-12 3.5032e-11 -4.39673e-12 5e-05 1.46608e-10 
65 1 0.12701 0.0166087 0.00759038 0.00561804 -0.000743703 0.000715273 1.51469e-10 2.77422e-10 -9.29325e-12 5e-05 1.46608e-10 
66 1 0.126949 0.0163793 0.007772 0.00542303 -0.00050713 0.00100104 4.35009e-11 1.10578e-10 -8.86422e-11 5e-05 1.46608e-10 
67 1 0.133362 0.0174232 0.00748029 0.0056737 2.16668e-05 -0.000159998 -1.68287e-10 -6.85205e-10 9.58582e-11 5e-05 1.46608e-10 
68 1 0.133271 0.0173866 0.00749628 0.00581892 -0.000103077 -9.72721e-05 6.32686e-10 -4.37372e-10 -1.14253e-09 5e-05 1.46608e-10 
69 1 0.132918 0.0162355 0.00785765 0.00559693 9.63125e-05 0.000417055 -1.01048e-10 -1.23403e-11 -2.86669e-11 5e-05 1.46608e-10 
70 1 0.139168 0.0176544 0.00716269 0.00601066 -0.000700249 0.00046963 3.01169e-12 2.34395e-12 5.72089e-13 5e-05 1.46608e-10 
71 1 0.126642 0.0155599 0.00851133 0.00546696 -0.000790409 0.000860827 -9.86913e-10 -1.21165e-10 3.9715e-10 5e-05 1.46608e-10 
72 1 0.133247 0.0172925 0.00753141 0.00589482 -8.39891e-05 -8.8206e-05 -5.52337e-12 -2.7589e-10 1.98051e-09 5e-05 1.46608e-10 
73 1 0.13288 0.0164803 0.00776763 0.00547316 0.000116094 0.000399889 -1.71428e-10 -2.94213e-12 -1.30061e-11 5e-05 1.46608e-10 
74 1 0.133085 0.0169814 0.00762247 0.00586494 6.20481e-05 0.000448508 1.2408e-11 2.31848e-11 -1.60181e-11 5e-05 1.46608e-10 
76 1 0.127223 0.017467 0.0071373 0.00595508 -0.001082 -0.000269751 -6.03371e-10 -2.18842e-10 -1.42451e-10 5e-05 1.46608e-10 
77 1 0.133219 0.017864 0.00736963 0.0059116 0.000107625 -0.000347412 2.07398e-10 7.62223e-11 1.32926e-10 5e-05 1.46608e-10 
78 1 0.126719 0.015835 0.00824124 0.00529428 -0.000621286 0.0010804 8.42887e-11 3.34535e-10 -2.91482e-10 5e-05 1.46608e-10 
79 1 0.126915 0.0165822 0.00760698 0.00544275 -0.000810527 0.00043718 5.12978e-11 3.12097e-10 -1.96904e-10 5e-05 1.46608e-10 
80 1 0.133129 0.0175203 0.00755378 0.0058511 0.000102614 0.000426252 4.54413e-11 -2.2731e-10 -3.68367e-10 5e-05 1.46608e-10 
81 1 0.126856 0.0163471 0.00778425 0.00541768 -0.000535233 0.00100606 7.04018e-11 2.70237e-10 -1.31085e-10 5e-05 1.46608e-10 
82 1 0.126997 0.0169143 0.00739979 0.00597903 -0.000969611 0.000529689 5.82586e-11 -2.44075e-11 2.26646e-12 5e-05 1.46608e-10 
83 1 0.127045 0.0164019 0.00775212 0.00544969 -0.000492866 0.000982222 -3.4902e-10 2.71907e-10 -3.49502e-10 5e-05 1.46608e-10 
84 1 0.139211 0.017846 0.007125 0.0059822 -0.000695589 0.000467163 1.5804e-12 -3.24077e-12 9.58105e-13 5e-05 1.46608e-10 
85 1 0.126833 0.0159363 0.00815919 0.0053765 -0.000585243 0.00105422 3.22525e-10 -2.04689e-10 2.20842e-10 5e-05 1.46608e-10 
86 1 0.13315 0.0172616 0.00753732 0.00586688 4.45994e-05 0.00045314 -6.5606e-12 -1.38529e-10 5.98365e-11 5e-05 1.46608e-10 
87 1 0.133053 0.0164524 0.00779048 0.00578347 7.6807e-05 0.000437731 9.95602e-11 5.65257e-11 -7.84104e-12 5e-05 1.46608e-10 
88 1 0.133136 0.0176034 0.0074794 0.00582976 0.000170878 -0.000139585 1.22929e-10 -2.49774e-10 -2.7e-10 5e-05 1.46608e-10 
89 1 0.133279 0.0176633 0.00748104 0.00589143 5.89493e-05 -0.00018752 1.15933e-10 1.78882e-10 -7.03549e-11 5e-05 1.46608e-10 
90 1 0.13332 0.0172285 0.00755276 0.0057985 -0.000182397 -9.58984e-05 7.38642e-10 -3.38458e-10 1.72682e-10 5e-05 1.46608e-10 
91 1 0.126934 0.0166654 0.00755508 0.00526994 -0.000794865 0.000430302 -3.03017e-10 1.11762e-10 -7.14254e-11 5e-05 1.46608e-10 
92 1 0.133346 0.0176955 0.00738106 0.00589652 0.000156916 -0.000222453 -2.29238e-10 -6.50721e-11 2.54038e-11 5e-05 1.46608e-10 
93 1 0.133249 0.0177147 0.00740062 0.00588641 6.14965e-05 -0.000190376 -1.38967e-10 3.87097e-11 -1.26557e-11 5e-05 1.46608e-10 
94 1 0.133408 0.0180192 0.00726071 0.00596587 0.000227541 -0.000251605 -1.7335e-11 9.64605e-11 -2.59866e-11 5e-05 1.46608e-10 
95 1 0.133373 0.0177798 0.00742712 0.00575766 0.000179176 -0.000182493 -1.90559e-11 -7.28029e-11 4.7096e-11 5e-05 1.46608e-10 
96 1 0.133297 0.0177861 0.00734923 0.00551344 0.000240654 -0.000245214 3.09647e-10 -1.00098e-10 2.34496e-11 5e-05 1.46608e-10 
97 1 0.126816 0.0162009 0.00791474 0.00538723 -0.000548639 0.00102428 -1.04697e-10 9.54265e-11 -3.75166e-11 5e-05 1.46608e-10 
98 1 0.133158 0.0176988 0.00745851 0.00583547 0.000195492 -0.000242958 -1.71691e-10 -1.75378e-10 -1.29722e-10 5e-05 1.46608e-10 
99 1 0.12699 0.0165263 0.00764333 0.00544041 -0.000578079 0.000903916 -1.99335e-10 2.09634e-10 -5.97799e-11 5e-05 1.46608e-10 
100 1 0.133277 0.0170443 0.0076175 0.00586651 6.0867e-05 0.000449009 2.37656e-10 -1.62011e-10 7.60852e-11 5e-05 1.46608e-10 
101 1 0.126931 0.0163021 0.00783277 0.00542154 -0.00052851 0.00100799 9.74306e-11 5.23428e-11 -5.73176e-11 5e-05 1.46608e-10 
102 1 0.0643568 0.0187248 0.00531097 4.16673e-15 1.05438e-14 8.29595e-14 1.75163e-21 -5.99603e-22 -1.65436e-23 5e-05 1.46608e-10 
103 1 0.24257 0.0191927 0.00520306 1.19201e-22 4.86658e-23 1.23839e-22 0 0 0 5e-05 1.46608e-10 
104 1 0.127297 0.0174014 0.00715328 0.00590138 -0.00100517 0.000300673 -4.84584e-10 1.4065e-10 -1.02936e-10 5e-05 1.46608e-10 
105 1 0.126777 0.0160545 0.00804531 0.00537095 -0.00058368 0.00105086 2.54856e-10 1.62327e-10 -1.15061e-10 5e-05 1.46608e-10 
106 1 0.127371 0.0173367 0.0071724 0.00588789 -0.00106243 7.2942e-05 4.82106e-11 1.58583e-10 -2.01791e-10 5e-05 1.46608e-10 
107 1 0.126738 0.0159082 0.00817592 0.00529947 -0.000609547 0.0010693 -5.44303e-11 2.6617e-10 -2.44317e-10 5e-05 1.46608e-10 
108 1 0.132956 0.0164207 0.00779293 0.00548699 0.000127734 0.000397517 -3.07053e-10 3.03845e-12 -2.80743e-11 5e-05 1.46608e-10 
109 1 0.133052 0.0172279 0.00754039 0.00585735 2.60667e-05 0.000460037 5.4815e-11 1.28389e-10 -7.33115e-11 5e-05 1.46608e-10 
110 1 0.133291 0.0182402 0.00718311 0.00598206 0.000241701 -0.000257058 -2.21418e-12 1.5111e-11 -5.90401e-12 5e-05 1.46608e-10 
111 1 0.133323 0.0180689 0.00724491 0.00596752 0.000232462 -0.00025355 -8.63539e-12 5.2292e-12 1.7831e-11 5e-05 1.46608e-10 
112 1 0.126836 0.0162764 0.00785225 0.0054142 -0.000543488 0.00101761 1.1152e-10 1.86952e-10 -1.25863e-10 5e-05 1.46608e-10 
113 1 0.127566 0.0181737 0.00710146 0.00501148 -0.000654588 0.000841381 1.6472e-10 7.50671e-10 1.17674e-10 5e-05 1.46608e-10 
114 1 0.127231 0.017132 0.00726187 0.00565275 -0.00120747 -0.000198894 1.95631e-12 -9.94359e-11 -1.24628e-09 5e-05 1.46608e-10 
115 1 0.133107 0.0170748 0.00759409 0.00587247 5.97998e-05 0.000450093 2.35544e-11 -7.13061e-12 1.73177e-11 5e-05 1.46608e-10 
116 1 0.132937 0.0163268 0.00782173 0.00556781 0.000108917 0.000409808 -6.84794e-13 -3.307e-11 8.75865e-12 5e-05 1.46608e-10 
117 1 0.132802 0.0157966 0.00824311 0.00545822 -0.000317057 -0.000171646 -2.29516e-11 -1.33608e-11 -1.35436e-10 5e-05 1.46608e-10 
118 1 0.126681 0.0157089 0.00838933 0.0054235 -0.000607047 0.00102561 1.82923e-10 -2.48607e-10 3.41177e-10 5e-05 1.46608e-10 
119 1 0.133116 0.0167329 0.00770507 0.00587713 6.5349e-05 0.000448991 1.16529e-10 1.25897e-11 3.69355e-12 5e-05 1.46608e-10 
120 1 0.132668 0.0156522 0.0084211 0.00562126 0.000493931 0.000653359 7.82867e-11 -6.17985e-11 -3.07477e-11 5e-05 1.46608e-10 
121 1 0.132633 0.0155742 0.00860179 0.00574473 0.000528385 0.000668951 -4.86445e-11 -6.9821e-11 9.74803e-11 5e-05 1.46608e-10 
122 1 0.13327 0.0181487 0.00721721 0.00597662 0.000239449 -0.000256223 -1.85316e-11 -3.01265e-11 1.78197e-11 5e-05 1.46608e-10 
123 1 0.126872 0.0160826 0.00802859 0.00530696 -0.00055625 0.0010218 3.85542e-11 -9.5853e-11 7.5875e-11 5e-05 1.46608e-10 
124 1 0.133205 0.0176251 0.00741077 0.00572862 0.000141797 -0.000226042 2.18727e-11 -1.60883e-10 2.81618e-11 5e-05 1.46608e-10 
125 1 0.132782 0.0157326 0.00831743 0.00552588 9.90725e-05 0.000214228 -1.23259e-11 4.81486e-11 -1.25779e-10 5e-05 1.46608e-10 
126 1 0.133009 0.0170409 0.00759718 0.00587065 6.00272e-05 0.0004504 3.2646e-11 1.24888e-10 -3.78092e-11 5e-05 1.46608e-10 
127 1 0.126797 0.0161277 0.00798002 0.00536711 -0.000568823 0.00103586 -2.49409e-11 -4.45859e-11 -1.83508e-11 5e-05 1.46608e-10 
128 1 0.133118 0.0175082 0.00745521 0.00581865 2.53196e-05 0.000440589 4.90226e-10 -3.47955e-10 3.62279e-10 5e-05 1.46608e-10 
129 1 0.133342 0.0178724 0.00740572 0.00597012 0.000225049 -0.00026166 7.68641e-11 -1.95987e-12 8.06803e-11 5e-05 1.46608e-10 
130 1 0.127114 0.0170231 0.00733079 0.00592694 -0.000865117 0.000462735 -2.75416e-10 2.313e-10 -3.07924e-10 5e-05 1.46608e-10 
131 1 0.12697 0.0164482 0.00770243 0.00538987 -0.000504044 0.000988126 2.3402e-10 6.78066e-11 -4.50158e-11 5e-05 1.46608e-10 
132 1 0.133217 0.0175468 0.00749526 0.00584712 0.000238195 -0.000165729 2.58034e-10 -1.93073e-10 -4.3261e-10 5e-05 1.46608e-10 
133 1 0.132975 0.0160949 0.00793833 0.00549245 -0.000222213 2.46473e-06 -1.37911e-10 1.1002e-10 1.04974e-10 5e-05 1.46608e-10 
134 1 0.133138 0.0168263 0.00767669 0.00587651 6.65365e-05 0.000447783 5.83209e-11 -2.59082e-11 5.73877e-12 5e-05 1.46608e-10 
135 1 0.132762 0.0156707 0.00839336 0.00559059 0.000537241 0.000597358 1.40382e-10 5.04972e-11 -5.67144e-11 5e-05 1.46608e-10 
136 1 0.126813 0.0158631 0.00822449 0.00540064 -0.000599635 0.00107142 -2.51604e-10 -4.38046e-11 -6.40707e-12 5e-05 1.46608e-10 
137 1 0.133218 0.0179333 0.00729754 0.00596385 0.000224903 -0.000247699 -6.48399e-12 -9.28512e-11 -2.08178e-11 5e-05 1.46608e-10 
138 1 0.132898 0.0161474 0.00790083 0.0055462 -5.48836e-05 0.000104177 -8.97748e-11 -2.28286e-11 -6.94464e-11 5e-05 1.46608e-10 
140 1 0.13337 0.0181815 0.00720239 0.00598264 0.000244907 -0.000258221 3.79692e-11 3.26213e-11 -1.3924e-11 5e-05 1.46608e-10 
141 1 0.126852 0.0160095 0.00809388 0.0053097 -0.000566494 0.00103021 1.3567e-10 -1.40248e-10 2.03423e-10 5e-05 1.46608e-10 
142 1 0.127253 0.0172148 0.00721011 0.00623001 -0.000876793 0.000476444 8.86436e-11 2.37006e-10 -1.54972e-10 5e-05 1.46608e-10 
143 1 0.126758 0.0159813 0.00811061 0.00531411 -0.000593453 0.00105738 -2.62287e-10 2.2389e-10 -2.64693e-10 5e-05 1.46608e-10 
144 1 0.12721 0.0170491 0.0073135 0.00561305 -0.00146568 0.000857065 7.16202e-09 -3.57734e-09 2.10079e-09 5e-05 1.46608e-10 
146 1 0.127066 0.0164783 0.00769106 0.0055407 -0.000573318 0.000884199 -4.91824e-10 3.46606e-11 -8.54035e-10 5e-05 1.46608e-10 
147 1 0.126794 0.0157899 0.00828981 0.00540022 -0.000611213 0.00108029 -3.60589e-10 1.31101e-10 -2.31086e-10 5e-05 1.46608e-10 
148 1 0.127061 0.017163 0.00724461 0.00577955 -0.000742437 0.000398727 -1.88467e-09 1.83267e-10 -1.75843e-10 5e-05 1.46608e-10 
149 1 0.133322 0.017973 0.00728008 0.00594542 0.000239975 -0.000255729 -5.71208e-11 -4.5207e-11 1.71837e-11 5e-05 1.46608e-10 
150 1 0.127105 0.0166349 0.00757319 0.00585218 -0.000878898 0.000559696 4.4917e-10 -1.05211e-10 -6.39434e-10 5e-05 1.46608e-10 
151 1 0.127488 0.0174594 0.00714168 0.00584448 -0.000811712 0.000252847 -5.60818e-10 -2.15562e-10 7.64985e-11 5e-05 1.46608e-10 
153 1 0.126911 0.016229 0.00789807 0.00541672 -0.000544384 0.00102023 -6.49796e-12 1.02441e-10 -1.36199e-10 5e-05 1.46608e-10 
154 1 0.127179 0.0172798 0.00719218 0.00615577 -0.000924957 0.000469171 1.28585e-10 6.37943e-10 -6.81584e-10 5e-05 1.46608e-10 
155 1 0.127245 0.0175621 0.00711516 0.00599712 -0.000972151 0.000287475 -5.31814e-10 -1.64749e-10 8.28526e-11 5e-05 1.46608e-10 
156 1 0.127156 0.0171889 0.00722733 0.00590702 -0.000861445 0.000480114 -1.39699e-09 -8.32328e-10 4.5242e-10 5e-05 1.46608e-10 
157 1 0.0219312 0.0187687 0.00551176 -3.83153e-14 8.16569e-14 2.95893e-13 6.09374e-22 3.18826e-22 -2.5229e-23 5e-05 1.46608e-10 
158 1 0.127443 0.0179426 0.00705631 0.0050746 -0.000651504 0.000847246 -3.11629e-10 3.63724e-11 -1.52941e-10 5e-05 1.46608e-10 
159 1 0.133288 0.0174864 0.00745925 0.00566136 2.97621e-05 -0.000163518 2.23033e-10 -1.96238e-10 -2.36183e-10 5e-05 1.46608e-10 
160 1 0.127125 0.0174348 0.0071439 0.00600333 -0.000909164 0.000479847 9.19043e-10 1.15613e-10 -2.85566e-11 5e-05 1.46608e-10 
162 1 0.127082 0.0172459 0.00719288 0.00602739 -0.000847006 0.000445217 -2.13376e-10 1.16213e-09 -1.23379e-09 5e-05 1.46608e-10 
164 1 0.127341 0.0179608 0.00704603 0.00542985 -0.000826574 0.000811422 -4.25438e-10 1.67763e-10 5.48906e-10 5e-05 1.46608e-10 
165 1 0.127569 0.0177419 0.00707645 0.00530794 -0.000724937 0.000241846 -2.5253e-11 1.52158e-10 2.14813e-11 5e-05 1.46608e-10 
166 1 0.132937 0.0159525 0.0080732 0.00552824 -0.000357009 -0.00011934 2.05545e-10 -3.97229e-12 2.70911e-12 5e-05 1.46608e-10 
167 1 0.127085 0.0165554 0.00763033 0.00569068 -0.000752526 0.000686981 3.34781e-10 -1.73186e-10 -9.05277e-10 5e-05 1.46608e-10 
168 1 0.127392 0.0174311 0.0071473 0.00594339 -0.0010287 0.000299747 -5.47986e-10 3.03941e-10 -2.14335e-10 5e-05 1.46608e-10 
169 1 0.127625 0.0180155 0.00709655 0.00500635 -0.000531423 0.000857544 1.89324e-10 -1.57472e-09 -8.61763e-11 5e-05 1.46608e-10 
170 1 0.127414 0.0175263 0.00712528 0.00565385 -0.00100097 0.000292593 2.92932e-10 2.43758e-10 3.48825e-11 5e-05 1.46608e-10 
171 1 0.132956 0.0160212 0.0080031 0.00549021 -0.000350358 -0.000136036 -2.36253e-10 7.03876e-11 4.47382e-11 5e-05 1.46608e-10 
172 1 0.127546 0.0176457 0.00709872 0.0054892 -0.000800788 0.000245169 -1.98678e-10 5.45555e-11 -2.60633e-10 5e-05 1.46608e-10 
173 1 0.133392 0.0178156 0.00733573 0.00537407 0.000252114 -0.000240584 1.12883e-10 -3.77282e-11 1.74652e-11 5e-05 1.46608e-10 
174 1 0.12734 0.0175918 0.00710919 0.005895 -0.000821539 0.000235051 -3.82289e-10 4.95855e-10 -3.11945e-10 5e-05 1.46608e-10 
175 1 0.121048 0.0171212 0.00731643 0.00623716 -0.000102131 -0.000245832 9.26508e-12 2.03437e-11 -3.76088e-12 5e-05 1.46608e-10 
176 1 0.127135 0.017106 0.00727906 0.00558364 -0.000932627 0.000513364 4.77117e-09 -6.63365e-09 3.7293e-09 5e-05 1.46608e-10 
177 1 0.127168 0.017625 0.00709968 0.00602059 -0.000992012 0.000299328 -5.03427e-10 -9.17416e-10 3.60301e-10 5e-05 1.46608e-10 
178 1 0.127704 0.0179539 0.00710479 0.00495991 -0.000470065 0.000856085 5.10309e-11 -1.52052e-11 -9.03059e-12 5e-05 1.46608e-10 
179 1 0.127613 0.0179161 0.00708464 0.00494099 -0.000442981 0.000853394 1.8463e-11 -7.26244e-12 -3.98052e-12 5e-05 1.46608e-10 
181 1 0.12714 0.0175012 0.00721726 0.00637596 -0.000907015 0.000412355 5.0517e-10 9.50494e-10 8.35823e-11 5e-05 1.46608e-10 
182 1 0.132879 0.0160719 0.00796341 0.00555412 -0.000255475 -0.000121805 -4.17144e-11 -4.63891e-11 -9.76934e-11 5e-05 1.46608e-10 
183 1 0.127318 0.0174966 0.00713123 0.00599622 -0.000978928 0.000279128 -7.43339e-10 -9.61385e-11 1.25642e-10 5e-05 1.46608e-10 
184 1 0.133444 0.0176779 0.0073847 0.00598403 0.000615057 -0.00039286 -3.09641e-10 1.08403e-10 1.09284e-13 5e-05 1.46608e-10 
185 1 0.127039 0.0170801 0.00729634 0.00583717 -0.000844809 0.000458476 -3.35526e-09 1.7498e-09 -9.31318e-10 5e-05 1.46608e-10 
186 1 0.127142 0.0174029 0.00723718 0.00643984 -0.00106332 0.000321579 2.58831e-10 -5.36449e-11 3.63137e-11 5e-05 1.46608e-10 
187 1 0.133255 0.0169509 0.00764592 0.00584707 6.57212e-05 0.000443713 1.8173e-10 -8.26567e-11 -2.32537e-12 5e-05 1.46608e-10 
188 1 0.13318 0.0177726 0.00735744 0.00591693 8.14261e-05 -0.000194658 -1.15159e-10 -1.00601e-12 1.86235e-11 5e-05 1.46608e-10 
189 1 0.133299 0.0171371 0.00758686 0.00585651 -0.000179061 -9.77202e-05 2.24668e-10 -7.59046e-11 -9.4657e-12 5e-05 1.46608e-10 
190 1 0.121243 0.0175281 0.00721601 0.00616377 -0.000104015 -0.000241918 -7.55674e-13 -1.7007e-11 3.42977e-12 5e-05 1.46608e-10 
191 1 0.13324 0.0180305 0.00728469 0.00594836 0.0002587 -0.000264969 -4.03258e-11 -7.43259e-11 4.74788e-11 5e-05 1.46608e-10 
192 1 0.127327 0.0171563 0.00724552 0.00557901 -0.000746428 0.000385788 -4.40245e-10 -1.55117e-11 -3.97094e-10 5e-05 1.46608e-10 
193 1 0.133033 0.0163586 0.00781917 0.00572756 8.25341e-05 0.000431144 -1.12037e-10 8.20219e-11 -3.71372e-11 5e-05 1.46608e-10 
194 1 0.127146 0.0168004 0.00746872 0.00599257 -0.000928252 0.000510753 -6.17907e-11 3.58402e-10 -9.58272e-11 5e-05 1.46608e-10 
195 1 0.127633 0.0178183 0.00707862 0.00495964 -0.000454086 0.000852094 -3.20651e-10 -4.88602e-13 -1.81802e-10 5e-05 1.46608e-10 
196 1 0.126585 0.0154221 0.00877152 0.0055201 -0.000853676 0.000960902 -1.43358e-10 -1.46141e-10 2.83412e-10 5e-05 1.46608e-10 
197 1 0.121109 0.0174051 0.00729338 0.00613669 -8.29794e-05 -0.00024496 -5.63507e-12 -2.18992e-12 -4.05279e-12 5e-05 1.46608e-10 
198 1 0.126954 0.0167485 0.00750326 0.00593658 -0.000916123 0.000497371 -1.89026e-10 -1.77815e-10 1.24896e-10 5e-05 1.46608e-10 
199 1 0.127104 0.0173398 0.00716618 0.0060809 -0.000901636 0.000502312 3.88948e-10 1.13824e-09 -1.32818e-09 5e-05 1.46608e-10 
200 1 0.127072 0.0168573 0.00743425 0.00604363 -0.000943305 0.00052267 7.09892e-10 4.76223e-10 -4.50783e-10 5e-05 1.46608e-10 
201 1 0.127546 0.0180767 0.00708825 0.00483628 -0.000602373 0.000813204 2.70746e-10 -9.33997e-10 -7.58923e-11 5e-05 1.46608e-10 
202 1 0.127348 0.017244 0.00720246 0.0058159 -0.00108746 -0.000130151 -8.16606e-10 3.22288e-10 5.85132e-11 5e-05 1.46608e-10 
203 1 0.133313 0.0183316 0.007149 0.00598433 0.00023661 -0.000255258 2.81525e-11 9.64801e-11 -3.63658e-11 5e-05 1.46608e-10 
204 1 0.127051 0.0167743 0.00748607 0.00598803 -0.000933229 0.000555574 2.46132e-10 4.79468e-11 -8.01197e-10 5e-05 1.46608e-10 
205 1 0.127369 0.0180205 0.00713944 0.00502472 -0.00101775 0.000895066 -3.54407e-10 2.69e-10 9.04775e-11 5e-05 1.46608e-10 
206 1 0.127361 0.0176887 0.00708677 0.00520844 -0.000944906 0.000246334 -5.75673e-10 4.8058e-11 -2.75859e-10 5e-05 1.46608e-10 
207 1 0.126891 0.0161558 0.0079633 0.00537152 -0.000554353 0.00102677 -6.25727e-12 3.5621e-11 -2.49128e-11 5e-05 1.46608e-10 
208 1 0.127201 0.0173727 0.00716259 0.00584467 -0.00111353 -0.0004584 -5.27815e-10 -1.02238e-10 -8.67443e-10 5e-05 1.46608e-10 
209 1 0.127126 0.0167174 0.0075205 0.00593942 -0.000922334 0.000505129 1.97386e-10 2.06735e-10 -2.88589e-10 5e-05 1.46608e-10 
210 1 0.133318 0.0175611 0.00751856 0.00585901 1.87183e-05 -0.000213119 -1.02466e-10 -1.53949e-11 -6.06783e-11 5e-05 1.46608e-10 
211 1 0.133396 0.0179094 0.00730128 0.00595057 0.000231577 -0.000252333 -4.48814e-12 3.2429e-11 -7.91151e-12 5e-05 1.46608e-10 
212 1 0.127441 0.0176201 0.00710361 0.0054998 -0.000966658 0.000271507 2.3272e-10 2.85327e-10 -1.4834e-10 5e-05 1.46608e-10 
213 1 0.133233 0.0168575 0.00767427 0.00585939 6.92777e-05 0.000445863 9.92739e-12 5.89348e-11 -1.43331e-11 5e-05 1.46608e-10 
214 1 0.133518 0.0180565 0.00724397 0.00596482 0.000228527 -0.000251735 -1.81365e-12 -2.98861e-11 1.08074e-11 5e-05 1.46608e-10 
215 1 0.12118 0.0174467 0.0072371 0.00613527 -8.0538e-05 -0.000245947 -1.24425e-12 -4.72486e-12 -4.68332e-13 5e-05 1.46608e-10 
216 1 0.127147 0.0175299 0.00712173 0.00598528 -0.00094168 0.000383162 1.36668e-10 -5.76687e-10 3.00511e-10 5e-05 1.46608e-10 
217 1 0.132992 0.0161714 0.00787625 0.00559488 9.75836e-05 0.000418716 -9.37924e-11 6.5493e-11 -1.96171e-11 5e-05 1.46608e-10 
218 1 0.127286 0.0177527 0.00707102 0.00532785 -0.000857603 0.000287136 9.103e-10 -3.9119e-11 1.05553e-10 5e-05 1.46608e-10 
219 1 0.133301 0.0178799 0.00731477 0.00595586 0.000218656 -0.000250889 7.92554e-11 -1.16967e-10 2.3411e-11 5e-05 1.46608e-10 
220 1 0.127303 0.017718 0.00716313 0.00541396 -0.000791871 0.000306576 5.42056e-10 5.07905e-10 2.65226e-10 5e-05 1.46608e-10 
221 1 0.121099 0.0169589 0.00735093 0.00626584 -9.10645e-05 -0.000249888 -2.30708e-12 -8.77934e-12 7.99098e-12 5e-05 1.46608e-10 
222 1 0.133013 0.0162649 0.00784776 0.00566597 8.873e-05 0.000424311 -2.00189e-10 9.37407e-11 -5.50983e-11 5e-05 1.46608e-10 
223 1 0.127275 0.017306 0.00717534 0.00581447 -0.00102091 0.000311246 -5.25079e-10 9.50671e-11 1.33686e-10 5e-05 1.46608e-10 
224 1 0.127018 0.0169972 0.00734806 0.00599323 -0.000946893 0.00051524 -1.86859e-10 5.05206e-10 -3.36397e-10 5e-05 1.46608e-10 
225 1 0.133295 0.017583 0.00742367 0.00564877 -8.44283e-06 -0.000160374 -6.74276e-11 -5.07194e-11 3.55154e-11 5e-05 1.46608e-10 
226 1 0.127514 0.0175535 0.00711993 0.00537802 -0.000727849 0.000227013 8.8653e-10 -4.2546e-10 1.19954e-10 5e-05 1.46608e-10 
227 1 0.121167 0.0172463 0.00728299 0.00621794 -8.50464e-05 -0.000248587 -1.58636e-12 -9.80317e-12 2.62793e-12 5e-05 1.46608e-10 
228 1 0.121071 0.0172181 0.00730876 0.00622104 -9.93413e-05 -0.000245912 1.6947e-11 1.01871e-11 -4.56941e-12 5e-05 1.46608e-10 
229 1 0.127225 0.0176344 0.0071815 0.00597423 -0.00112111 0.000350122 -3.81216e-10 -4.64159e-10 6.90437e-11 5e-05 1.46608e-10 
230 1 0.127465 0.018135 0.00707929 0.00390672 -0.000550506 0.000654467 -7.84e-10 1.68748e-10 -1.57593e-10 5e-05 1.46608e-10 
231 1 0.121026 0.0170262 0.00733885 0.00625397 -0.000104633 -0.000245515 1.19097e-11 1.13912e-11 5.58587e-12 5e-05 1.46608e-10 
232 1 0.127026 0.016329 0.00781791 0.00538362 -0.00047531 0.000974951 -7.14337e-11 2.09477e-10 -2.40692e-10 5e-05 1.46608e-10 
233 1 0.127167 0.0168833 0.00741696 0.00603459 -0.000936473 0.00051238 2.57026e-10 3.97299e-10 -5.6021e-10 5e-05 1.46608e-10 
234 1 0.133191 0.0177929 0.00745476 0.00595557 0.000173267 -0.000211407 -6.74066e-11 -7.92662e-11 -3.96064e-11 5e-05 1.46608e-10 
235 1 0.127312 0.0183114 0.0071091 0.00580865 -0.00068913 0.000505358 -1.18078e-10 -9.56952e-11 -1.44212e-09 5e-05 1.46608e-10 
236 1 0.127507 0.0183287 0.00710601 0.00649712 -0.000885225 0.00111141 8.8489e-10 2.65143e-10 -3.73614e-11 5e-05 1.46608e-10 
237 1 0.127336 0.0184158 0.00708339 0.00502295 -0.00395835 0.000541114 9.91135e-11 -9.07089e-10 -8.12151e-11 5e-05 1.46608e-10 
239 1 0.120846 0.0163349 0.00783919 0.00559182 -0.000107639 -0.000246719 -4.35763e-11 -5.83343e-12 4.84426e-12 5e-05 1.46608e-10 
240 1 0.120904 0.0165287 0.00761767 0.00565741 -4.02885e-05 -0.000166441 -2.0584e-11 5.75967e-11 -2.76282e-11 5e-05 1.46608e-10 
241 1 0.120827 0.0162708 0.00791352 0.00556233 -0.000106075 -0.000247432 -1.69953e-11 -4.72724e-11 5.19171e-11 5e-05 1.46608e-10 
242 1 0.127284 0.0169906 0.00734894 0.00597727 -0.000786667 0.000412992 -3.82447e-10 4.05012e-10 -5.87909e-10 5e-05 1.46608e-10 
243 1 0.12703 0.0166914 0.00753795 0.00584471 -0.000879681 0.000588713 6.67221e-10 1.99778e-12 -5.15905e-10 5e-05 1.46608e-10 
244 1 0.120866 0.0163989 0.00776486 0.00562687 -0.000113782 -0.00024234 9.51576e-11 1.45923e-11 -2.06463e-11 5e-05 1.46608e-10 
246 1 0.120983 0.0168375 0.0073834 0.00628337 -0.000110779 -0.000245838 -4.66327e-13 1.4809e-11 2.70807e-12 5e-05 1.46608e-10 
247 1 0.127314 0.0178287 0.00712954 0.00528521 -0.000954899 0.000455159 6.45669e-11 -2.08452e-12 4.27644e-10 5e-05 1.46608e-10 
248 1 0.127486 0.018232 0.00709252 0.00519134 -0.000513461 0.000898822 -6.47416e-10 8.21854e-10 4.12005e-11 5e-05 1.46608e-10 