ITEM: TIMESTEP
17400000
ITEM: NUMBER OF ATOMS
287
ITEM: BOX BOUNDS ff ff ff
-0.02 0.43
-0.02 0.06
-0.02 0.07
ITEM: ATOMS id type x y z vx vy vz fx fy fz radius mass 
1 1 0.114248 0.0162874 0.00802178 0.0058194 -0.000305498 0.000769995 -7.69121e-11 -1.46354e-10 3.25077e-11 5e-05 1.46608e-10 
2 1 0.114743 0.0174621 0.00719072 0.00505591 -0.000706536 0.000145697 1.28477e-10 1.05229e-10 -1.4428e-10 5e-05 1.46608e-10 
3 1 0.108064 0.0158743 0.00820848 0.00566102 -0.000349114 -0.00080186 5.95678e-11 7.99409e-11 1.63707e-11 5e-05 1.46608e-10 
4 1 0.114589 0.0175725 0.00712862 0.00513388 -0.000631406 0.000104135 -1.12382e-10 1.7665e-10 -9.8619e-11 5e-05 1.46608e-10 
5 1 0.114132 0.0161863 0.00810143 0.00573908 -0.00027833 0.000732742 -8.62815e-11 -1.49951e-10 1.93595e-10 5e-05 1.46608e-10 
6 1 0.120235 0.0164961 0.00767923 0.00612312 -0.000195431 0.000229469 2.17342e-13 1.17516e-12 -5.23752e-13 5e-05 1.46608e-10 
7 1 0.114325 0.0168949 0.00758304 0.00590464 -0.000785736 0.000152599 -1.30987e-10 5.07502e-11 -2.74036e-11 5e-05 1.46608e-10 
8 1 0.114027 0.0158234 0.00842904 0.00545649 -0.000235814 0.000673783 -1.66534e-10 -5.51048e-11 2.69313e-11 5e-05 1.46608e-10 
9 1 0.120509 0.0176385 0.00721735 0.00596033 -0.000328634 0.000297996 -1.09475e-10 1.0342e-11 -2.05059e-12 5e-05 1.46608e-10 
10 1 0.11426 0.0166508 0.00774493 0.00585387 -0.000764225 0.000145605 3.98203e-11 -8.47517e-11 1.70683e-10 5e-05 1.46608e-10 
11 1 0.11478 0.0176288 0.00708657 0.00533038 -0.000688388 0.000287075 -1.46252e-10 1.81678e-10 -7.0202e-11 5e-05 1.46608e-10 
12 1 0.108272 0.016686 0.00770729 0.00614861 0.000212787 -0.000518595 1.13371e-11 -3.78229e-12 -2.85666e-11 5e-05 1.46608e-10 
13 1 0.114111 0.0161137 0.00816695 0.00569581 -0.000272164 0.000732613 2.7576e-11 -2.05888e-10 8.18993e-11 5e-05 1.46608e-10 
14 1 0.108 0.0157665 0.00858434 0.00571553 0.00032765 -0.000596388 -2.62176e-12 3.30642e-11 3.6256e-11 5e-05 1.46608e-10 
15 1 0.114464 0.0170805 0.00745454 0.00592824 -0.000811906 0.000166855 -1.00632e-10 -4.96189e-12 1.51828e-11 5e-05 1.46608e-10 
16 1 0.107985 0.0157339 0.00867771 0.00566205 0.000330214 -0.000600652 -1.78212e-10 1.1823e-10 -5.61043e-11 5e-05 1.46608e-10 
17 1 0.114239 0.0165694 0.00779889 0.00584417 -0.000760387 0.000140641 8.80763e-11 4.98156e-11 9.30829e-11 5e-05 1.46608e-10 
18 1 0.120381 0.0170674 0.00735023 0.00614414 -0.000369118 0.000314692 3.27528e-13 -4.96321e-13 -7.14375e-13 5e-05 1.46608e-10 
19 1 0.11409 0.0160411 0.00823247 0.00567643 -0.000275579 0.000726233 1.86964e-10 1.47221e-11 7.62446e-13 5e-05 1.46608e-10 
21 1 0.114227 0.0162127 0.00808479 0.00575488 -0.000298003 0.000758976 -1.76296e-11 -1.47942e-10 1.11122e-10 5e-05 1.46608e-10 
22 1 0.114368 0.0170576 0.00747512 0.00592128 -0.000802865 0.000162244 1.20249e-10 1.36453e-10 -9.47326e-11 5e-05 1.46608e-10 
23 1 0.108475 0.0171712 0.00752208 0.0060739 0.000204174 -0.000617834 2.6715e-11 1.74703e-11 -3.69393e-11 5e-05 1.46608e-10 
24 1 0.120445 0.017353 0.00728379 0.00606059 -0.000351629 0.000307316 1.35762e-13 5.52261e-12 -1.72313e-12 5e-05 1.46608e-10 
25 1 0.114303 0.0168135 0.007637 0.00588088 -0.000777392 0.000148988 -9.71756e-11 -9.59368e-11 5.91541e-11 5e-05 1.46608e-10 
26 1 0.120318 0.0167843 0.00742565 0.00618981 -0.000445358 0.000120018 -1.48875e-12 1.65997e-12 -5.82287e-12 5e-05 1.46608e-10 
27 1 0.108358 0.0170517 0.00757016 0.00609002 0.00023065 -0.000529869 2.27189e-12 1.91661e-11 -1.81678e-11 5e-05 1.46608e-10 
28 1 0.11457 0.0174898 0.00718325 0.00497854 -0.000650384 0.000129361 3.92692e-10 2.45851e-10 -1.07716e-10 5e-05 1.46608e-10 
29 1 0.114069 0.0159686 0.00829799 0.00565804 -0.000263108 0.000716451 2.2232e-11 3.63673e-11 3.55258e-11 5e-05 1.46608e-10 
30 1 0.114624 0.0173498 0.00727058 0.00574292 -0.000112264 -0.000274328 6.5339e-11 -2.50336e-10 1.68963e-10 5e-05 1.46608e-10 
31 1 0.114347 0.0169762 0.00752908 0.0059169 -0.000796864 0.000159172 2.57376e-10 8.88757e-11 -7.14917e-11 5e-05 1.46608e-10 
32 1 0.114442 0.0169992 0.0075085 0.00591961 -0.000808566 0.000166722 -4.30972e-13 -1.97971e-11 1.39601e-11 5e-05 1.46608e-10 
33 1 0.120255 0.0165614 0.00760623 0.00617175 -0.000201827 0.00023695 3.00913e-12 3.25373e-12 -1.2346e-12 5e-05 1.46608e-10 
34 1 0.114217 0.016488 0.00785286 0.00583177 -0.000755254 0.00013491 -9.42367e-13 5.53602e-11 -5.18436e-11 5e-05 1.46608e-10 
35 1 0.11442 0.0169178 0.00756247 0.00590489 -0.000801817 0.000162843 9.6906e-11 -2.72331e-11 1.5621e-11 5e-05 1.46608e-10 
36 1 0.12055 0.0178292 0.00717292 0.00561211 -0.000262294 0.000269317 1.36239e-12 1.33731e-11 -1.06405e-11 5e-05 1.46608e-10 
37 1 0.114377 0.016755 0.00767039 0.00587762 -0.000778982 0.000149106 8.17225e-12 -1.34801e-11 1.0029e-11 5e-05 1.46608e-10 
38 1 0.11456 0.0171043 0.00743336 0.00584556 -0.000926077 0.000246745 2.92255e-10 1.44967e-12 9.73079e-12 5e-05 1.46608e-10 
39 1 0.120466 0.0174481 0.00726164 0.00603341 -0.000345447 0.000304892 8.47923e-12 1.04291e-11 -1.39378e-12 5e-05 1.46608e-10 
41 1 0.114174 0.0163318 0.00797005 0.00580875 -0.000309738 0.000773312 -1.50895e-10 4.92086e-11 -4.27097e-11 5e-05 1.46608e-10 
42 1 0.11439 0.017139 0.00742116 0.00593632 -0.000801966 0.000160764 -4.12862e-11 1.07898e-10 -5.73322e-11 5e-05 1.46608e-10 
44 1 0.114582 0.0171856 0.00737938 0.00579551 -0.000804867 0.000171748 2.97323e-11 -4.23339e-10 2.56947e-10 5e-05 1.46608e-10 
45 1 0.120275 0.0166267 0.00753324 0.00622049 -0.000208512 0.000244272 -7.25417e-13 -6.36519e-12 -4.72688e-12 5e-05 1.46608e-10 
46 1 0.12036 0.0169722 0.00737237 0.00617217 -0.000374831 0.000316992 1.88433e-12 1.83315e-12 6.9471e-13 5e-05 1.46608e-10 
47 1 0.114196 0.0164149 0.00791883 0.00582574 -0.000315552 0.000766936 7.43107e-11 1.65481e-10 -1.40531e-10 5e-05 1.46608e-10 
48 1 0.114433 0.0173017 0.00731326 0.00582096 -0.000765254 0.000145287 1.34983e-10 -5.24035e-11 -7.49158e-12 5e-05 1.46608e-10 
49 1 0.120339 0.0168771 0.00739452 0.00620028 -0.000380532 0.000319101 -6.75866e-12 1.36212e-12 -6.3676e-12 5e-05 1.46608e-10 
50 1 0.114494 0.0175467 0.0071512 0.00505252 -0.000578827 9.98671e-05 -5.53902e-12 6.98825e-11 7.3295e-11 5e-05 1.46608e-10 
51 1 0.114474 0.0174648 0.00720518 0.00516515 -0.000622306 8.60255e-05 1.96387e-10 -2.82332e-11 1.3571e-10 5e-05 1.46608e-10 
52 1 0.10825 0.0165948 0.00774195 0.00616134 0.000214762 -0.000514881 -7.63896e-12 2.94717e-11 -3.87527e-11 5e-05 1.46608e-10 
53 1 0.120403 0.0171626 0.00732808 0.00611638 -0.000363336 0.000312231 2.36839e-13 1.615e-13 1.32753e-12 5e-05 1.46608e-10 
54 1 0.114206 0.0161402 0.00815032 0.00568524 -0.000291504 0.000738617 2.17384e-11 -1.18368e-10 1.1212e-10 5e-05 1.46608e-10 
55 1 0.108031 0.0158248 0.00839597 0.00570722 -0.000107756 -0.00071988 -1.51069e-10 -6.71244e-12 6.14999e-12 5e-05 1.46608e-10 
56 1 0.114399 0.0168364 0.00761644 0.0058892 -0.000789822 0.000155789 5.28186e-11 -2.40896e-11 5.14378e-12 5e-05 1.46608e-10 
57 1 0.120296 0.016694 0.00746208 0.00623254 -0.000524829 -5.06155e-05 3.04746e-12 5.54551e-12 1.24904e-11 5e-05 1.46608e-10 
59 1 0.114473 0.0167781 0.00764968 0.00588194 -0.000788751 0.000156463 9.49939e-11 -6.57278e-11 1.70621e-11 5e-05 1.46608e-10 
60 1 0.114495 0.0168595 0.00759569 0.00589396 -0.000815832 0.00017249 4.57165e-11 -9.40982e-11 5.9105e-11 5e-05 1.46608e-10 
61 1 0.114153 0.0162592 0.00803557 0.00577131 -0.000308091 0.000766094 -1.05476e-10 9.17e-13 -5.05039e-11 5e-05 1.46608e-10 
62 1 0.114603 0.0172676 0.00732506 0.00588487 -0.000388817 -0.000102557 1.65287e-11 -5.02272e-11 3.96292e-11 5e-05 1.46608e-10 
63 1 0.114529 0.0173253 0.00729223 0.00570557 -0.000527219 -2.60204e-06 3.09277e-11 5.21226e-12 -2.79734e-11 5e-05 1.46608e-10 
64 1 0.120424 0.0172578 0.00730593 0.00608849 -0.000357528 0.000309802 -3.49267e-13 1.82608e-12 -6.86853e-13 5e-05 1.46608e-10 
65 1 0.108389 0.0168039 0.00765629 0.00613037 0.000228072 -0.000532787 -1.93488e-11 -6.04646e-12 6.73911e-12 5e-05 1.46608e-10 
66 1 0.108324 0.0165296 0.00775894 0.00617049 0.000224637 -0.000533996 -4.1905e-11 4.30856e-11 3.20715e-12 5e-05 1.46608e-10 
67 1 0.114763 0.0175439 0.00713661 0.00507029 -0.000721356 0.000139011 -2.31373e-10 1.6332e-10 -2.37297e-10 5e-05 1.46608e-10 
68 1 0.114664 0.0175152 0.00716116 0.00510144 -0.000649812 0.000111395 -7.24684e-11 1.02588e-10 7.44096e-11 5e-05 1.46608e-10 
69 1 0.114313 0.0165138 0.0078365 0.00585575 -0.000551659 0.000439017 -1.11103e-10 -1.1864e-10 -1.42531e-10 5e-05 1.46608e-10 
70 1 0.120488 0.0175433 0.00723949 0.00600383 -0.000338777 0.000302221 -3.28064e-12 5.66564e-12 -2.93052e-12 5e-05 1.46608e-10 
71 1 0.108021 0.0157969 0.00849151 0.00574909 7.61039e-05 -0.000664365 -1.05223e-11 -5.15537e-11 3.93533e-11 5e-05 1.46608e-10 
72 1 0.114646 0.0174332 0.00721535 0.00491635 -0.000702525 0.000156941 1.30757e-10 -1.06886e-10 -3.61156e-12 5e-05 1.46608e-10 
73 1 0.114282 0.0167321 0.00769096 0.0058665 -0.000771344 0.000145324 1.98174e-11 -1.5233e-10 5.70117e-11 5e-05 1.46608e-10 
74 1 0.114485 0.0171621 0.00740042 0.00589301 -0.000872678 0.000209322 1.09921e-10 -4.41279e-11 -4.64469e-12 5e-05 1.46608e-10 
76 1 0.108605 0.017719 0.00731433 0.00601218 0.00026527 -0.000523758 -6.1358e-11 5.50009e-11 3.61148e-11 5e-05 1.46608e-10 
77 1 0.114609 0.0181078 0.00706466 0.00542711 -0.000575181 0.000310309 -3.4035e-11 -4.83416e-11 6.36704e-12 5e-05 1.46608e-10 
78 1 0.108082 0.0159101 0.00811689 0.00573095 -7.76622e-05 -0.000688869 -5.44777e-13 2.08543e-10 1.09195e-10 5e-05 1.46608e-10 
79 1 0.108293 0.0167774 0.0076728 0.00613479 0.000212816 -0.00052574 1.35467e-11 -1.64086e-11 -2.678e-12 5e-05 1.46608e-10 
80 1 0.114534 0.0177235 0.00706825 0.00537226 -0.000568493 0.000264942 1.61952e-11 9.12142e-11 -3.80125e-10 5e-05 1.46608e-10 
81 1 0.108228 0.0165033 0.0077762 0.00618548 0.000210788 -0.000523096 4.71033e-11 5.69175e-11 -1.72453e-11 5e-05 1.46608e-10 
82 1 0.108379 0.0171433 0.00753633 0.00607632 0.000203941 -0.000615178 -8.70375e-13 7.87817e-12 -4.8925e-11 5e-05 1.46608e-10 
83 1 0.108419 0.0165557 0.00774262 0.00616095 0.000229341 -0.00053547 5.17022e-12 -5.78883e-11 2.07887e-11 5e-05 1.46608e-10 
84 1 0.120529 0.0177338 0.00719514 0.00559715 -0.000257859 0.000267848 6.86454e-12 1.98199e-11 3.94196e-12 5e-05 1.46608e-10 
85 1 0.108184 0.0159984 0.00800318 0.00577721 0.000548589 8.27984e-05 -1.49495e-10 7.06186e-11 -9.66752e-11 5e-05 1.46608e-10 
86 1 0.114549 0.0174074 0.00723786 0.00543253 -0.000382692 -8.15006e-05 1.23342e-10 -1.79994e-10 1.13043e-10 5e-05 1.46608e-10 
87 1 0.114451 0.0166968 0.00770363 0.0058725 -0.000784183 0.000151057 1.62363e-11 -4.52041e-11 2.2612e-11 5e-05 1.46608e-10 
88 1 0.11455 0.0178156 0.00703266 0.00546851 -0.000567737 0.000315144 8.19481e-11 2.24523e-10 -4.53829e-12 5e-05 1.46608e-10 
89 1 0.114599 0.0178689 0.00712814 0.00541128 -0.000648448 0.000282898 -1.60577e-10 -1.73523e-10 6.94216e-12 5e-05 1.46608e-10 
90 1 0.114738 0.0173784 0.0072452 0.00506271 -0.000709886 0.000154531 4.00637e-10 3.20136e-11 -1.10219e-10 5e-05 1.46608e-10 
91 1 0.108315 0.0168688 0.00763859 0.00612064 0.000217571 -0.000527844 -1.20135e-11 -1.22088e-11 1.88518e-11 5e-05 1.46608e-10 
92 1 0.11472 0.0177825 0.00705565 0.00542571 -0.000640368 0.000305042 5.7298e-11 6.06568e-11 9.3789e-11 5e-05 1.46608e-10 
93 1 0.114644 0.0178462 0.00704196 0.0054739 -0.000589513 0.00031283 2.24419e-10 1.79552e-10 4.78783e-11 5e-05 1.46608e-10 
94 1 0.114781 0.018075 0.00707307 0.005307 -0.000602658 0.000298495 1.09025e-10 -1.08488e-10 -3.3294e-11 5e-05 1.46608e-10 
95 1 0.114695 0.0178422 0.00713191 0.00541255 -0.000648461 0.000308844 -1.6405e-10 2.18662e-12 -4.08223e-11 5e-05 1.46608e-10 
96 1 0.114741 0.0178802 0.00705174 0.00539149 -0.000624937 0.000304495 -2.79808e-10 5.04407e-11 -3.99502e-11 5e-05 1.46608e-10 
97 1 0.108185 0.0163212 0.00784664 0.00621306 0.000263656 -0.000382792 -7.13125e-11 1.13575e-11 1.18418e-10 5e-05 1.46608e-10 
98 1 0.114569 0.017913 0.00704336 0.00545798 -0.000568567 0.00031138 9.68123e-12 -1.11452e-11 -2.55215e-11 5e-05 1.46608e-10 
99 1 0.108367 0.0167125 0.00769051 0.00613593 0.000220905 -0.000530293 5.51598e-11 -1.51185e-11 -1.40195e-12 5e-05 1.46608e-10 
100 1 0.114686 0.017218 0.00735215 0.00553769 -0.00083248 0.000204586 2.3219e-11 -4.23895e-11 3.65491e-11 5e-05 1.46608e-10 
101 1 0.108302 0.0164381 0.00779316 0.00620335 0.000226139 -0.000536379 7.14079e-11 2.57241e-11 1.70617e-12 5e-05 1.46608e-10 
102 1 0.0643568 0.0187248 0.00531097 3.9912e-15 1.05791e-14 8.2964e-14 -1.005e-21 7.07756e-23 3.68095e-23 5e-05 1.46608e-10 
103 1 0.24257 0.0191927 0.00520306 3.39597e-22 3.13141e-22 -5.81428e-22 0 2.58494e-26 0 5e-05 1.46608e-10 
104 1 0.108679 0.0176539 0.00733169 0.00600665 0.000260647 -0.000532022 -1.26788e-10 -7.23916e-11 1.94536e-10 5e-05 1.46608e-10 
105 1 0.108142 0.0161603 0.00795722 0.0061906 0.000602842 0.000117966 -1.08654e-10 -8.44425e-11 2.36791e-10 5e-05 1.46608e-10 
106 1 0.108753 0.0175885 0.00734961 0.0060169 0.000278666 -0.000544849 -5.21013e-11 -1.89086e-11 7.78821e-11 5e-05 1.46608e-10 
107 1 0.108101 0.0159893 0.00805904 0.00568597 0.000391376 -7.08021e-05 -6.14894e-11 6.71695e-11 -5.52457e-11 5e-05 1.46608e-10 
108 1 0.114356 0.0166737 0.00772435 0.00586301 -0.000770223 0.000143331 3.1169e-11 -3.41418e-11 6.4575e-11 5e-05 1.46608e-10 
109 1 0.114454 0.0173832 0.00725925 0.00549834 -0.000693117 0.000115163 1.78416e-11 -4.29215e-11 3.25727e-12 5e-05 1.46608e-10 
110 1 0.114688 0.0184976 0.00710729 0.00531942 -0.000564789 0.000304083 2.5349e-11 -1.60638e-10 -3.38709e-11 5e-05 1.46608e-10 
111 1 0.114724 0.0182362 0.00708466 0.00537286 -0.000590901 0.000304407 2.35931e-10 4.25038e-10 3.37628e-11 5e-05 1.46608e-10 
112 1 0.108207 0.0164116 0.00780965 0.00621072 0.000206327 -0.00052919 8.16354e-12 4.09167e-11 4.13161e-11 5e-05 1.46608e-10 
113 1 0.109095 0.0182983 0.00707119 0.00565765 0.000299467 -0.00052065 7.40125e-11 2.86651e-11 -3.0924e-11 5e-05 1.46608e-10 
114 1 0.108614 0.0173794 0.00743444 0.00598538 0.000230956 -0.000523075 7.365e-13 2.3723e-11 -2.26601e-11 5e-05 1.46608e-10 
115 1 0.114507 0.0172436 0.00734639 0.00587204 -0.000725748 0.000115768 2.33151e-10 -1.24791e-10 8.68554e-11 5e-05 1.46608e-10 
116 1 0.114334 0.016593 0.00777934 0.00585928 -0.000699086 0.000235309 1.19048e-11 -1.16809e-10 -5.24268e-11 5e-05 1.46608e-10 
117 1 0.114185 0.0160676 0.00821584 0.005663 -0.00028862 0.000732922 7.07761e-11 -2.15161e-11 1.51597e-10 5e-05 1.46608e-10 
118 1 0.10805 0.0158666 0.00830716 0.00559076 -0.000211083 -0.000796215 -2.86839e-11 7.45404e-11 2.81642e-11 5e-05 1.46608e-10 
119 1 0.114516 0.0169409 0.00754172 0.00590985 -0.000820626 0.000174604 2.16712e-11 -5.08689e-11 3.39993e-11 5e-05 1.46608e-10 
120 1 0.114048 0.015896 0.0083635 0.00560917 -0.000254785 0.000704352 -2.55678e-10 -7.5968e-11 1.2831e-11 5e-05 1.46608e-10 
121 1 0.114007 0.0157508 0.00849466 0.00532912 -0.000221987 0.000648489 1.79537e-11 -9.19863e-11 9.42167e-11 5e-05 1.46608e-10 
122 1 0.114669 0.0184001 0.00709664 0.00523838 -0.000547391 0.000300009 -1.25512e-10 -3.33927e-10 9.79643e-12 5e-05 1.46608e-10 
123 1 0.108227 0.0161635 0.00789893 0.00628429 0.000484359 0.000159955 -7.8938e-11 3.99896e-11 2.54517e-11 5e-05 1.46608e-10 
124 1 0.114623 0.0177481 0.00703116 0.00540302 -0.000644445 0.000287484 -1.68988e-10 9.04724e-11 -4.10524e-10 5e-05 1.46608e-10 
125 1 0.114164 0.015995 0.00828136 0.00565598 -0.000280046 0.000728477 1.79035e-10 -1.15723e-10 1.39508e-10 5e-05 1.46608e-10 
126 1 0.114411 0.0172204 0.00736719 0.00596084 -0.000802285 0.000160774 6.40377e-11 5.04165e-11 -2.82517e-11 5e-05 1.46608e-10 
127 1 0.108164 0.0162408 0.00790194 0.0062053 0.000427533 -0.000140891 -1.55527e-10 -6.64455e-11 8.21036e-11 5e-05 1.46608e-10 
128 1 0.114513 0.017632 0.00710262 0.00518186 -0.000563346 0.000169546 -2.48282e-10 -1.69852e-11 -4.47582e-10 5e-05 1.46608e-10 
129 1 0.11471 0.0179434 0.00714135 0.00540176 -0.00060526 0.000353171 -3.93406e-11 1.9642e-10 -3.77277e-11 5e-05 1.46608e-10 
130 1 0.108497 0.017263 0.00748861 0.00605514 0.000151248 -0.000852654 6.32172e-12 -2.09447e-12 -2.01453e-11 5e-05 1.46608e-10 
131 1 0.108345 0.016621 0.00772472 0.00616125 0.000225781 -0.000531641 2.14846e-11 -3.19749e-11 7.46193e-12 5e-05 1.46608e-10 
132 1 0.114606 0.0176551 0.00707411 0.00531488 -0.000609022 8.81265e-05 3.01936e-11 -3.52881e-10 1.79467e-10 5e-05 1.46608e-10 
133 1 0.114366 0.0163842 0.00793738 0.00578442 -0.0003307 0.000783924 6.70851e-11 4.7254e-11 -3.854e-11 5e-05 1.46608e-10 
134 1 0.114538 0.0170225 0.00748757 0.0058998 -0.000838965 0.000188294 4.33011e-12 2.19905e-11 -3.91197e-11 5e-05 1.46608e-10 
135 1 0.114143 0.0159225 0.00834688 0.00565708 -0.000272651 0.00072299 4.04185e-10 -4.72454e-11 1.03685e-10 5e-05 1.46608e-10 
136 1 0.108193 0.0159467 0.0080883 0.00554035 0.000469896 6.05105e-05 2.06767e-10 -2.25355e-12 -1.09322e-10 5e-05 1.46608e-10 
137 1 0.114629 0.0182053 0.00707533 0.00541092 -0.000574965 0.000308766 1.52545e-10 5.0723e-11 -1.63352e-11 5e-05 1.46608e-10 
138 1 0.114291 0.0164354 0.00789487 0.00583602 -0.000388536 0.000654878 1.6852e-11 3.71929e-11 1.41397e-10 5e-05 1.46608e-10 
140 1 0.114746 0.0183363 0.00709571 0.00522154 -0.000587179 0.000294045 5.18076e-10 3.36169e-10 3.69511e-11 5e-05 1.46608e-10 
141 1 0.108203 0.0160813 0.00795063 0.00608552 0.000515564 0.000126999 -1.36495e-10 3.0904e-11 -7.82179e-11 5e-05 1.46608e-10 
142 1 0.108635 0.0174709 0.00740019 0.00603002 0.000282832 -0.000545415 -6.68736e-11 -1.06118e-10 -2.50677e-11 5e-05 1.46608e-10 
143 1 0.108121 0.0160761 0.00800753 0.00571905 0.000502702 -0.00040836 -3.63664e-11 -4.44079e-11 -4.38034e-11 5e-05 1.46608e-10 
144 1 0.108592 0.0172879 0.00746867 0.0060808 0.000285741 -0.000551527 1.63392e-11 8.27558e-12 -1.8924e-11 5e-05 1.46608e-10 
146 1 0.108441 0.0166471 0.0077084 0.00614484 0.000240431 -0.000538186 -1.03072e-11 -4.80105e-11 1.69412e-11 5e-05 1.46608e-10 
147 1 0.108172 0.0158944 0.00817094 0.00538197 -0.0001378 -0.000366712 -1.55224e-11 -1.04776e-10 -1.13345e-10 5e-05 1.46608e-10 
148 1 0.108444 0.0174178 0.00743407 0.00601834 0.000453706 1.79379e-05 6.57326e-12 -1.418e-11 -8.13102e-11 5e-05 1.46608e-10 
149 1 0.114704 0.0181388 0.00707399 0.00542642 -0.000560785 0.000310986 -2.04906e-11 -2.85462e-11 -6.26329e-12 5e-05 1.46608e-10 
150 1 0.108484 0.0168301 0.00763996 0.00612322 0.000241713 -0.000537273 2.84784e-14 6.4161e-11 -2.15929e-11 5e-05 1.46608e-10 
151 1 0.108869 0.0177066 0.00729886 0.00598664 0.000300353 -0.000548023 1.45922e-11 -5.67021e-11 7.28713e-11 5e-05 1.46608e-10 
153 1 0.10828 0.0163461 0.0078276 0.00621331 0.000214509 -0.000533713 -1.17478e-11 6.46492e-12 4.22994e-11 5e-05 1.46608e-10 
154 1 0.108562 0.0175372 0.00738559 0.00601778 0.000268352 -0.0005635 -1.11821e-10 -1.48669e-10 -1.64549e-10 5e-05 1.46608e-10 
155 1 0.108627 0.0178107 0.00728076 0.00600891 0.000338324 -0.0003259 8.65166e-11 1.42209e-10 5.37762e-11 5e-05 1.46608e-10 
156 1 0.10854 0.0174462 0.00742102 0.00601869 0.000251457 -0.000630256 -2.7619e-11 -3.21233e-11 -3.9468e-11 5e-05 1.46608e-10 
157 1 0.0219312 0.0187687 0.00551176 -3.82557e-14 8.16906e-14 2.95891e-13 4.00381e-22 -2.64181e-23 6.01774e-23 5e-05 1.46608e-10 
158 1 0.108639 0.0177903 0.00737782 0.00648637 -0.000131578 -0.000488954 4.68248e-11 -1.50585e-11 4.41293e-11 5e-05 1.46608e-10 
159 1 0.114683 0.0175995 0.00710541 0.00531944 -0.000577493 4.49284e-05 1.97854e-10 -2.13646e-10 -1.74974e-11 5e-05 1.46608e-10 
160 1 0.108509 0.0176893 0.00732411 0.00596969 0.00058419 0.000319353 1.0686e-11 6.95504e-11 -3.38632e-11 5e-05 1.46608e-10 
162 1 0.108466 0.0175085 0.0073979 0.00599049 0.000579378 0.000321078 -1.60174e-11 1.53043e-12 -3.57425e-11 5e-05 1.46608e-10 
164 1 0.108805 0.0182062 0.00712541 0.00566986 0.000503909 -0.000579425 3.31543e-10 -1.49004e-11 3.49971e-11 5e-05 1.46608e-10 
165 1 0.108934 0.0179833 0.00719541 0.00574234 0.000394674 -0.000558055 1.48192e-11 -9.36932e-11 -5.54885e-12 5e-05 1.46608e-10 
166 1 0.114322 0.016239 0.00806839 0.00580765 -0.000330693 0.000789282 -2.89491e-11 -5.36573e-11 1.5029e-11 5e-05 1.46608e-10 
167 1 0.108462 0.0167386 0.00767418 0.00613773 0.000236514 -0.000536537 5.08139e-11 1.33694e-10 -5.01494e-11 5e-05 1.46608e-10 
168 1 0.108774 0.0176805 0.00731519 0.00600169 0.000234769 -0.00052054 1.20177e-11 -6.63225e-12 7.30784e-12 5e-05 1.46608e-10 
169 1 0.108998 0.0182683 0.00708897 0.00562986 0.00045449 -0.000569884 8.19734e-11 -2.12369e-11 -1.70966e-11 5e-05 1.46608e-10 
170 1 0.108796 0.0177722 0.00728087 0.00592764 0.000243025 -0.000522948 5.57036e-11 3.80805e-11 -6.63756e-12 5e-05 1.46608e-10 
171 1 0.114344 0.0163116 0.0080029 0.00582403 -0.000320095 0.000781516 1.68734e-10 -2.71669e-11 1.60326e-11 5e-05 1.46608e-10 
172 1 0.108913 0.0178899 0.00723027 0.00583452 0.000344372 -0.000557241 4.05539e-11 -1.41863e-10 4.90923e-11 5e-05 1.46608e-10 
173 1 0.114815 0.0178129 0.00705029 0.005355 -0.000673386 0.000294325 -1.85169e-10 2.11007e-10 -2.51005e-11 5e-05 1.46608e-10 
174 1 0.108722 0.0178383 0.00726714 0.00596098 0.000312341 -0.000391095 -6.91553e-11 4.71124e-11 4.98714e-11 5e-05 1.46608e-10 
175 1 0.102462 0.0174095 0.00715247 0.00589899 0.000340086 -0.000234376 -1.0913e-10 -2.96903e-10 1.06908e-10 5e-05 1.46608e-10 
176 1 0.108519 0.0173548 0.00745535 0.00602787 0.00016791 -0.000852007 3.3299e-12 -3.11213e-11 -1.08291e-10 5e-05 1.46608e-10 
177 1 0.108552 0.0178701 0.00725033 0.00594564 0.000591855 0.00031274 1.18856e-11 6.12792e-11 -3.98222e-11 5e-05 1.46608e-10 
178 1 0.109049 0.018186 0.00711462 0.00554005 0.000409844 -0.000553182 8.73304e-11 1.03802e-12 -6.80907e-12 5e-05 1.46608e-10 
179 1 0.108955 0.018156 0.00713224 0.00551621 0.000459176 -0.000567283 -2.68731e-11 6.70866e-11 -8.19965e-12 5e-05 1.46608e-10 
181 1 0.108509 0.0176744 0.007423 0.00598564 0.000577402 0.000319935 2.07138e-11 1.81285e-12 -1.65636e-11 5e-05 1.46608e-10 
182 1 0.11427 0.0163577 0.00795399 0.00583411 -0.000308835 0.000770035 3.88866e-11 -2.11907e-11 6.18998e-11 5e-05 1.46608e-10 
183 1 0.108701 0.017747 0.00730178 0.00599702 0.000226933 -0.000595189 -2.07997e-11 -2.59292e-11 -7.86156e-11 5e-05 1.46608e-10 
184 1 0.114793 0.017716 0.00703952 0.00537416 -0.000686703 0.000295164 -8.47738e-11 7.93506e-11 6.02374e-11 5e-05 1.46608e-10 
185 1 0.108422 0.0173266 0.00746881 0.00604265 0.000223776 -0.000577217 8.93771e-12 -1.39981e-12 -4.58763e-11 5e-05 1.46608e-10 
186 1 0.108498 0.0175812 0.00745879 0.00596382 0.000579199 0.000320164 2.72017e-11 -9.82856e-11 -6.20268e-11 5e-05 1.46608e-10 
187 1 0.114665 0.0171365 0.00740615 0.00574986 -0.000874925 0.000219739 2.85562e-10 -1.40712e-10 8.77214e-11 5e-05 1.46608e-10 
188 1 0.114664 0.0179438 0.00705264 0.00545869 -0.000522338 0.000316928 -1.00852e-10 4.39829e-11 3.12956e-11 5e-05 1.46608e-10 
189 1 0.114706 0.0172997 0.00729809 0.00524694 -0.000770903 0.000183678 -2.31427e-11 7.66061e-11 -5.29272e-11 5e-05 1.46608e-10 
190 1 0.102598 0.0176306 0.00709973 0.00596714 0.000385374 -0.000253316 -1.35907e-10 -2.40343e-11 -3.74586e-12 5e-05 1.46608e-10 
191 1 0.114649 0.0183027 0.00708599 0.00539388 -0.000573831 0.000306639 -1.69493e-10 -7.66313e-11 1.74767e-11 5e-05 1.46608e-10 
192 1 0.108709 0.0174054 0.00741814 0.00602921 0.000284335 -0.000545828 7.53751e-11 -1.03901e-11 1.0633e-12 5e-05 1.46608e-10 
193 1 0.11443 0.0166154 0.0077576 0.00585993 -0.000776315 0.000147647 -3.82785e-11 6.26727e-11 3.65779e-11 5e-05 1.46608e-10 
194 1 0.108527 0.0170132 0.00757142 0.00609233 0.000243591 -0.000534772 2.99481e-12 7.28652e-11 -2.69752e-11 5e-05 1.46608e-10 
195 1 0.108982 0.0180646 0.00716286 0.00559866 0.000472491 -0.00058043 1.43184e-10 3.19243e-12 -1.78726e-11 5e-05 1.46608e-10 
196 1 0.107967 0.0157013 0.00877067 0.00552536 0.000328944 -0.000620054 1.66847e-10 1.60165e-10 -1.22279e-10 5e-05 1.46608e-10 
197 1 0.102523 0.0176958 0.00708739 0.005943 0.00036649 -0.000245604 -1.72328e-11 -2.73067e-11 -1.25355e-11 5e-05 1.46608e-10 
198 1 0.108336 0.0169603 0.00760438 0.00610469 0.00022382 -0.000529478 -3.88533e-12 3.95597e-12 2.34488e-11 5e-05 1.46608e-10 
199 1 0.108487 0.0175989 0.00736101 0.00597815 0.000581055 0.000320304 -2.27733e-11 3.51757e-11 -2.35037e-11 5e-05 1.46608e-10 
200 1 0.108454 0.0170789 0.00755437 0.00607995 0.0002271 -0.000553011 -2.24776e-12 2.70889e-11 -6.05056e-11 5e-05 1.46608e-10 
201 1 0.108921 0.0183303 0.007074 0.00570206 0.000556499 -0.000530103 -6.37075e-11 -1.77449e-10 9.13264e-11 5e-05 1.46608e-10 
202 1 0.108731 0.0174968 0.00738393 0.00602452 0.000283594 -0.000544375 -6.32121e-12 1.12296e-11 5.82942e-11 5e-05 1.46608e-10 
203 1 0.114821 0.0182699 0.00709439 0.00522305 -0.000601152 0.000293747 4.48127e-10 -1.48764e-10 1.68718e-11 5e-05 1.46608e-10 
204 1 0.108432 0.0169871 0.00758776 0.00609704 0.00023755 -0.000533501 -2.01338e-11 2.94937e-11 -1.05922e-12 5e-05 1.46608e-10 
205 1 0.108761 0.0182033 0.00721535 0.00626471 0.00108919 -0.000249931 -3.7018e-10 -1.93483e-10 -8.81764e-11 5e-05 1.46608e-10 
206 1 0.108744 0.0179296 0.00723287 0.00589312 0.00031392 -0.00037838 1.14909e-10 4.58213e-11 1.37711e-11 5e-05 1.46608e-10 
207 1 0.108258 0.016254 0.00786213 0.00621492 0.000212142 -0.000542773 -2.48908e-10 1.84413e-10 6.24776e-11 5e-05 1.46608e-10 
208 1 0.108584 0.0176279 0.00734945 0.0060072 0.000251963 -0.000579643 -1.61392e-10 -1.01962e-10 -1.1881e-10 5e-05 1.46608e-10 
209 1 0.108505 0.0169215 0.00760575 0.00610841 0.000246606 -0.000537988 -2.30686e-11 2.00375e-11 -5.45128e-12 5e-05 1.46608e-10 
210 1 0.114578 0.0176684 0.00716908 0.00534254 -0.000592055 9.38253e-05 1.8003e-10 -1.98398e-11 -8.64903e-12 5e-05 1.46608e-10 
211 1 0.114761 0.0179776 0.00706242 0.00532285 -0.000602023 0.000295635 -2.53494e-10 -3.32258e-11 -6.95792e-11 5e-05 1.46608e-10 
212 1 0.108818 0.0178636 0.00724666 0.00587453 0.000254622 -0.000519777 1.25511e-10 2.37788e-11 -1.12664e-10 5e-05 1.46608e-10 
213 1 0.114643 0.0170552 0.00746009 0.00587733 -0.000901217 0.000228465 3.38196e-10 -1.0207e-10 2.81423e-11 5e-05 1.46608e-10 
214 1 0.114856 0.0180087 0.00707176 0.00533659 -0.000579184 0.000311649 -1.96994e-10 -6.32984e-10 -5.96058e-11 5e-05 1.46608e-10 
215 1 0.102578 0.0175352 0.00712143 0.00595733 0.000388494 -0.000243667 -1.0083e-10 -5.82924e-11 1.35398e-10 5e-05 1.46608e-10 
216 1 0.108531 0.0177797 0.00728722 0.00595596 0.000588191 0.000317567 4.62631e-11 8.65792e-11 -5.08056e-11 5e-05 1.46608e-10 
217 1 0.114387 0.0164568 0.00787184 0.00585929 -0.000331081 0.000797395 2.73698e-11 8.30151e-11 -6.06382e-11 5e-05 1.46608e-10 
218 1 0.10867 0.0179923 0.00720891 0.00590284 0.00059775 0.000307541 1.45611e-10 1.67653e-10 -1.10385e-11 5e-05 1.46608e-10 
219 1 0.114684 0.0180414 0.00706332 0.00544218 -0.000568151 0.000311586 2.47776e-11 -1.07429e-10 2.53157e-12 5e-05 1.46608e-10 
220 1 0.108569 0.0178603 0.00734846 0.00643766 0.000433673 0.000213712 2.08753e-10 -1.69895e-10 -2.08137e-10 5e-05 1.46608e-10 
221 1 0.102479 0.0170941 0.00731537 0.00575273 0.000479794 -8.20443e-05 -9.29963e-11 2.33041e-10 -1.11843e-10 5e-05 1.46608e-10 
222 1 0.114408 0.016534 0.00781156 0.00584162 -0.000769564 0.00015017 4.60179e-11 6.76021e-11 -5.9336e-11 5e-05 1.46608e-10 
223 1 0.108657 0.0175625 0.0073659 0.00601345 0.000270751 -0.000540937 -3.05037e-12 4.97474e-11 1.28111e-10 5e-05 1.46608e-10 
224 1 0.108401 0.017235 0.00750265 0.00606391 0.000143451 -0.000785991 1.57181e-11 1.2037e-11 -1.65432e-11 5e-05 1.46608e-10 
225 1 0.114699 0.0176848 0.00704928 0.00535246 -0.000704045 8.29058e-05 -7.30288e-10 7.64996e-10 2.26461e-10 5e-05 1.46608e-10 
226 1 0.108891 0.017798 0.00726464 0.00591129 0.000278937 -0.000536039 1.70923e-10 -4.70129e-11 -2.86445e-11 5e-05 1.46608e-10 
227 1 0.102537 0.0173444 0.00716511 0.00596043 0.00040131 -0.000222675 -2.15981e-10 -1.862e-10 -3.05395e-10 5e-05 1.46608e-10 
228 1 0.102482 0.0175049 0.00713078 0.00590904 0.000349163 -0.000243063 -1.76592e-10 -2.10493e-10 9.58206e-11 5e-05 1.46608e-10 
229 1 0.108542 0.0177624 0.00738509 0.00595664 0.000584215 0.000315992 -5.51928e-11 -1.31895e-10 -6.91897e-11 5e-05 1.46608e-10 
230 1 0.108844 0.0183901 0.00705402 0.00557253 0.000643178 0.000251728 4.484e-11 -7.998e-11 2.13651e-11 5e-05 1.46608e-10 
231 1 0.102441 0.0173139 0.00717419 0.0059049 0.000397453 -0.000258845 -7.77737e-11 1.84322e-11 -3.07179e-10 5e-05 1.46608e-10 
232 1 0.108397 0.0164642 0.00777683 0.00617113 0.000229186 -0.000536587 -9.33639e-11 3.26905e-11 4.98477e-12 5e-05 1.46608e-10 
233 1 0.108549 0.0171049 0.00753715 0.00608063 0.000230316 -0.000530095 1.53509e-11 3.47255e-11 -1.74544e-11 5e-05 1.46608e-10 
234 1 0.114589 0.0180104 0.00705399 0.00544126 -0.00057379 0.000310878 4.25618e-11 -1.11437e-10 -1.13979e-11 5e-05 1.46608e-10 
235 1 0.108723 0.0186747 0.00691983 0.00568376 0.000600844 0.000282493 7.67593e-12 -4.72698e-11 3.15876e-11 5e-05 1.46608e-10 
236 1 0.108871 0.0184892 0.00701395 0.00574432 0.000520996 -0.000210617 2.23588e-11 9.02707e-12 9.87796e-11 5e-05 1.46608e-10 
237 1 0.108889 0.0185801 0.00697647 0.00575499 0.00070859 0.000243647 1.32115e-10 -1.7549e-12 2.14236e-11 5e-05 1.46608e-10 
239 1 0.102257 0.0165931 0.00767872 0.00624007 0.000417446 -1.47021e-05 -1.34616e-10 -2.3411e-10 1.38865e-10 5e-05 1.46608e-10 
240 1 0.102322 0.0168293 0.00750549 0.00627908 0.000382343 1.39796e-05 -3.64916e-11 2.20812e-10 -1.83566e-10 5e-05 1.46608e-10 
241 1 0.102235 0.0165143 0.00773647 0.00623405 0.000450241 -4.00295e-05 -8.59001e-11 -3.31467e-10 2.47081e-10 5e-05 1.46608e-10 
242 1 0.108665 0.0172226 0.00748657 0.00606607 0.000279552 -0.000546935 1.73096e-11 3.92523e-11 -2.26992e-11 5e-05 1.46608e-10 
243 1 0.10841 0.0168954 0.00762208 0.00611293 0.000233829 -0.000533824 -3.11206e-11 9.18676e-12 7.91913e-12 5e-05 1.46608e-10 
244 1 0.102279 0.0166718 0.00762098 0.0062495 0.000389034 5.88715e-06 5.92955e-11 -2.48633e-11 5.02466e-11 5e-05 1.46608e-10 
246 1 0.102403 0.0171456 0.00727336 0.00581482 0.000489105 -9.19572e-05 2.05814e-10 1.12779e-10 4.24657e-12 5e-05 1.46608e-10 
247 1 0.108691 0.0180827 0.00717194 0.00583915 0.000631877 0.000285521 -2.51631e-11 5.83275e-11 -3.31041e-11 5e-05 1.46608e-10 
248 1 0.109018 0.0183602 0.00705475 0.00576386 0.000417114 -0.000575462 -3.17033e-11 -1.67297e-11 -3.72641e-11 5e-05 1.46608e-10 