ITEM: TIMESTEP
3600000
ITEM: NUMBER OF ATOMS
287
ITEM: BOX BOUNDS ff ff ff
-0.02 0.43
-0.02 0.06
-0.02 0.07
ITEM: ATOMS id type x y z vx vy vz fx fy fz radius mass 
1 1 0.0338177 0.0163219 0.00774377 0.00616569 -0.000187572 0.000365242 -1.92813e-11 -2.32496e-10 9.40593e-11 5e-05 1.46608e-10 
2 1 0.0341841 0.0170996 0.00741754 0.0061055 -0.000180019 0.000356038 -2.6634e-10 -5.67923e-11 1.71999e-11 5e-05 1.46608e-10 
3 1 0.02762 0.0159626 0.00813988 0.00551872 -0.000309805 9.89799e-05 -2.53043e-11 -1.96258e-10 1.76014e-10 5e-05 1.46608e-10 
4 1 0.0341566 0.0177444 0.00709058 0.00578499 -0.000280293 5.2496e-05 -1.21494e-10 4.08267e-11 -1.79971e-11 5e-05 1.46608e-10 
5 1 0.033702 0.0162282 0.00783069 0.00559639 -0.000236906 -2.43205e-05 -9.35028e-11 -2.30767e-10 3.56465e-10 5e-05 1.46608e-10 
6 1 0.0398115 0.0166376 0.00752316 0.006121 -0.000731233 0.000198412 7.35442e-13 1.26148e-12 -6.81001e-13 5e-05 1.46608e-10 
7 1 0.0338946 0.0170088 0.00744441 0.00609997 -0.000168434 0.000351342 -1.13229e-11 1.49036e-11 1.1217e-11 5e-05 1.46608e-10 
8 1 0.0336037 0.0159015 0.00819841 0.0055435 -0.000280691 2.47211e-05 -9.21359e-11 1.08858e-10 -1.14509e-10 5e-05 1.46608e-10 
9 1 0.0400852 0.0178307 0.00709074 0.00564978 -0.000533285 0.000416557 4.17915e-12 -5.77947e-12 -8.31231e-13 5e-05 1.46608e-10 
10 1 0.0338295 0.0167398 0.00756007 0.0061157 -0.000178431 0.00035733 -1.25459e-11 -1.34629e-10 5.89263e-11 5e-05 1.46608e-10 
11 1 0.0342296 0.0172764 0.00732878 0.0062304 0.000365109 -0.000284606 -7.2326e-11 1.77409e-10 -5.5141e-12 5e-05 1.46608e-10 
12 1 0.0278303 0.0167154 0.00751459 0.00616757 -0.00049886 0.000231745 1.52476e-10 -6.33294e-11 -7.07642e-11 5e-05 1.46608e-10 
13 1 0.0336823 0.0161628 0.00790437 0.00570104 0.000131872 -0.000441507 1.74864e-11 1.79245e-10 -1.99965e-10 5e-05 1.46608e-10 
14 1 0.0275419 0.0156515 0.00837926 0.00555258 -0.000225875 0.000280845 1.94915e-11 1.23879e-11 -9.88513e-12 5e-05 1.46608e-10 
15 1 0.0340347 0.0172187 0.00735825 0.00609612 -0.000183506 0.00036366 2.53652e-11 2.17123e-10 -4.62316e-11 5e-05 1.46608e-10 
16 1 0.0275225 0.015573 0.00843813 0.00554353 -0.000227067 0.000280324 1.61248e-11 1.08201e-11 -9.84375e-12 5e-05 1.46608e-10 
17 1 0.0338078 0.0166501 0.00759862 0.00612412 -0.000181362 0.000358572 -1.9138e-11 -1.58376e-10 6.64589e-11 5e-05 1.46608e-10 
18 1 0.0399629 0.0172736 0.00727687 0.00605184 -0.000612577 0.000460176 1.96532e-12 1.03339e-11 -3.30683e-12 5e-05 1.46608e-10 
19 1 0.0336626 0.0160973 0.00797805 0.00565529 1.61828e-05 -0.000311564 -6.49636e-11 -1.64325e-10 1.87744e-10 5e-05 1.46608e-10 
21 1 0.0337976 0.0162493 0.00780955 0.00607846 -0.000209522 0.000301466 2.55001e-10 -2.06215e-10 2.19912e-10 5e-05 1.46608e-10 
22 1 0.033938 0.0171882 0.00736731 0.00609365 -0.000179965 0.000354542 4.60159e-12 5.089e-11 -4.17436e-11 5e-05 1.46608e-10 
23 1 0.0280107 0.0170704 0.00730101 0.00561196 -0.000336768 0.000149664 4.55263e-11 1.50927e-10 1.7677e-12 5e-05 1.46608e-10 
24 1 0.0400252 0.0175519 0.00718392 0.00556445 -0.000518404 0.000407735 9.1719e-13 1.26866e-12 -1.83373e-12 5e-05 1.46608e-10 
25 1 0.0338729 0.0169191 0.00748296 0.00610778 -0.00016895 0.00035128 -5.98785e-11 -4.3585e-11 2.43636e-11 5e-05 1.46608e-10 
26 1 0.0398982 0.0169957 0.00736955 0.00609708 -0.000623839 0.000465916 1.23664e-12 6.67508e-12 -2.25723e-12 5e-05 1.46608e-10 
27 1 0.0279141 0.0170379 0.00730732 0.00559154 -0.000345782 0.00014316 1.247e-10 1.40164e-10 -1.97983e-10 5e-05 1.46608e-10 
28 1 0.034139 0.0176561 0.00713598 0.00546191 -0.00026638 4.87046e-05 -3.44314e-10 6.19268e-10 -3.20573e-10 5e-05 1.46608e-10 
29 1 0.0336429 0.0160319 0.00805159 0.00560133 -0.000128855 -0.000147169 -1.14503e-11 -3.17627e-11 3.53944e-11 5e-05 1.46608e-10 
30 1 0.0341752 0.017423 0.00725467 0.00560837 0.000232333 -0.000207778 1.16012e-10 -5.96373e-11 7.46151e-11 5e-05 1.46608e-10 
31 1 0.0339163 0.0170985 0.00740586 0.00609334 -0.000175103 0.000351991 1.25469e-12 6.51262e-11 -4.137e-11 5e-05 1.46608e-10 
32 1 0.034013 0.017129 0.0073968 0.00609475 -0.000182047 0.000356401 1.93552e-12 1.67393e-10 -8.37064e-11 5e-05 1.46608e-10 
33 1 0.0398332 0.0167247 0.00747899 0.00612437 -0.000731856 0.000198637 7.16009e-13 2.08663e-12 -9.93981e-13 5e-05 1.46608e-10 
34 1 0.0337861 0.0165604 0.00763717 0.00613479 -0.000181145 0.000358079 -7.32371e-12 -1.60971e-10 4.50516e-11 5e-05 1.46608e-10 
35 1 0.0339913 0.0170393 0.00743535 0.00609608 -0.000176408 0.000355271 -7.36285e-11 1.59052e-10 -7.25812e-11 5e-05 1.46608e-10 
36 1 0.0401252 0.0180166 0.00702862 0.00547414 -0.000433865 0.00037397 1.36238e-10 -1.82801e-10 9.87811e-11 5e-05 1.46608e-10 
37 1 0.0339479 0.01686 0.00751246 0.00610603 -0.000172803 0.000353535 7.96652e-12 6.25059e-11 -4.05321e-11 5e-05 1.46608e-10 
38 1 0.0341094 0.0171592 0.00738789 0.00610055 -0.0001878 0.000359593 -1.17628e-10 1.84799e-10 -6.57087e-11 5e-05 1.46608e-10 
39 1 0.0400452 0.0176449 0.00715286 0.00559302 -0.000523096 0.000410474 -1.7973e-12 -2.50347e-12 -3.66972e-13 5e-05 1.46608e-10 
41 1 0.0337427 0.0163811 0.00771427 0.00615819 -0.000183004 0.00033729 -6.58482e-11 -1.24977e-10 2.17608e-10 5e-05 1.46608e-10 
42 1 0.0339597 0.0172779 0.00732875 0.0060908 -0.000174258 0.000376929 -1.04817e-10 8.59426e-11 -2.5115e-11 5e-05 1.46608e-10 
44 1 0.0341313 0.0172472 0.0073453 0.00644212 -0.000177798 -4.63811e-05 -1.87592e-10 3.30696e-10 -8.84526e-10 5e-05 1.46608e-10 
45 1 0.039855 0.0168117 0.00743482 0.00612784 -0.000732446 0.000198735 1.577e-12 3.07993e-12 -2.15206e-12 5e-05 1.46608e-10 
46 1 0.0399414 0.017181 0.00730776 0.00606694 -0.000616486 0.00046215 2.09021e-12 9.97193e-12 -3.42399e-12 5e-05 1.46608e-10 
47 1 0.0337644 0.0164708 0.00767572 0.00614625 -0.000182409 0.000353198 -1.80575e-11 -1.54354e-10 3.96064e-11 5e-05 1.46608e-10 
48 1 0.0340029 0.0174531 0.0072429 0.00561063 -0.000212162 0.000117919 2.6365e-11 3.61164e-10 3.45041e-10 5e-05 1.46608e-10 
49 1 0.0399198 0.0170883 0.00733866 0.00608202 -0.000620261 0.000464065 2.07917e-12 8.54674e-12 -2.82619e-12 5e-05 1.46608e-10 
50 1 0.0340626 0.0177151 0.00710958 0.00554486 -0.000242199 3.39166e-05 -1.75739e-10 3.50996e-10 -2.53347e-10 5e-05 1.46608e-10 
51 1 0.0340432 0.0176273 0.00715334 0.00519165 -0.000191401 -2.76241e-06 5.77902e-11 8.07862e-11 -1.8903e-10 5e-05 1.46608e-10 
52 1 0.027809 0.0166402 0.00757702 0.00612324 -0.000488308 0.000235389 9.24906e-12 1.35243e-10 -6.98333e-11 5e-05 1.46608e-10 
53 1 0.0399845 0.0173662 0.00724597 0.00603704 -0.000608627 0.000458224 9.87142e-13 9.40801e-12 -3.0816e-12 5e-05 1.46608e-10 
54 1 0.0337775 0.016181 0.00787974 0.00594011 -0.000301622 0.000156397 1.20185e-10 -1.99941e-10 1.99111e-10 5e-05 1.46608e-10 
55 1 0.0275808 0.0158084 0.00826153 0.00553399 -0.000226481 0.000279153 5.29914e-11 -4.6003e-12 -4.44608e-12 5e-05 1.46608e-10 
56 1 0.0339696 0.0169497 0.00747391 0.00610128 -0.000176147 0.000355462 -1.04611e-10 1.48725e-10 -4.97505e-11 5e-05 1.46608e-10 
57 1 0.0398766 0.0169031 0.00740044 0.00611237 -0.000627231 0.000467796 1.57415e-12 5.17371e-12 -1.16294e-12 5e-05 1.46608e-10 
59 1 0.0340226 0.0168004 0.0075421 0.00610294 -0.000169408 0.000350213 2.61238e-11 8.33521e-11 2.41761e-12 5e-05 1.46608e-10 
60 1 0.0340447 0.0168901 0.0075036 0.0060278 -0.000156697 0.000338807 5.79719e-10 9.02964e-11 1.58435e-11 5e-05 1.46608e-10 
61 1 0.0337217 0.0162933 0.00775741 0.00578506 -0.000263023 -2.73154e-06 2.70971e-10 -3.24446e-10 2.11519e-10 5e-05 1.46608e-10 
62 1 0.0341539 0.0173352 0.00729994 0.00610519 0.00023114 -0.000223026 -2.50684e-10 -9.25726e-12 -6.93479e-11 5e-05 1.46608e-10 
63 1 0.0340995 0.0174818 0.00722633 0.00544241 1.57415e-05 -0.000207256 -7.04753e-11 1.65713e-11 3.29093e-10 5e-05 1.46608e-10 
64 1 0.0400051 0.017459 0.00721498 0.00553492 -0.000514006 0.000404985 6.30394e-12 5.84206e-12 -9.98764e-13 5e-05 1.46608e-10 
65 1 0.0279256 0.0167377 0.00749357 0.00620961 -0.000480254 0.000235139 -2.77166e-10 -4.11868e-11 8.30727e-11 5e-05 1.46608e-10 
66 1 0.0278621 0.0165122 0.00768091 0.00609738 -0.000486561 0.000229206 -1.32886e-10 -1.55904e-10 1.19911e-10 5e-05 1.46608e-10 
67 1 0.0342062 0.0171877 0.00737454 0.00654402 -0.000123063 -4.83677e-05 -5.26698e-10 3.5918e-10 -5.23653e-11 5e-05 1.46608e-10 
68 1 0.0342154 0.0175983 0.00716437 0.0054942 -0.000197956 1.43091e-05 1.10921e-10 2.94022e-12 5.17286e-12 5e-05 1.46608e-10 
69 1 0.0338828 0.0165909 0.00762811 0.00612414 -0.000178938 0.00035707 1.88545e-11 -1.86955e-10 5.07556e-11 5e-05 1.46608e-10 
70 1 0.0400652 0.0177378 0.0071218 0.0056213 -0.000528103 0.00041345 -2.08082e-12 -3.66708e-12 6.03519e-12 5e-05 1.46608e-10 
71 1 0.0275614 0.0157299 0.00832039 0.00555161 -0.000225266 0.00028115 1.37799e-11 1.13548e-11 -2.14499e-11 5e-05 1.46608e-10 
72 1 0.034196 0.0175111 0.00720929 0.00532576 -0.000204904 2.10011e-05 -1.71374e-10 -3.96649e-10 1.90956e-10 5e-05 1.46608e-10 
73 1 0.0338512 0.0168295 0.00752151 0.0061114 -0.000172916 0.000354183 -2.20997e-11 -9.26724e-11 3.61921e-11 5e-05 1.46608e-10 
74 1 0.0340565 0.0173071 0.00731675 0.00625517 -0.000205 0.000155482 -9.55422e-11 -6.76874e-11 -1.21737e-09 5e-05 1.46608e-10 
76 1 0.0281539 0.0177382 0.00714785 0.00567297 -0.000347339 0.000152164 -2.40135e-12 1.01272e-10 -2.01416e-11 5e-05 1.46608e-10 
77 1 0.0342913 0.0183882 0.00700161 0.00546678 -9.52191e-05 6.46116e-05 -5.56062e-11 -6.27591e-11 -2.1249e-11 5e-05 1.46608e-10 
78 1 0.0276398 0.0160388 0.00807661 0.00554671 -0.000177359 -9.71075e-06 -2.92056e-11 2.95535e-11 -2.07063e-11 5e-05 1.46608e-10 
79 1 0.0278515 0.0167906 0.00745216 0.00617258 -0.000516726 0.000208786 -1.40096e-10 -2.34612e-10 7.77695e-11 5e-05 1.46608e-10 
80 1 0.0341175 0.0179795 0.00697914 0.00555316 -0.000249804 -6.93592e-06 -5.44362e-12 -3.05394e-11 -1.70246e-10 5e-05 1.46608e-10 
81 1 0.0277878 0.0165651 0.00763946 0.00608151 -0.00047678 0.000225204 -3.59147e-11 2.35219e-10 -1.48441e-10 5e-05 1.46608e-10 
82 1 0.0279346 0.0171333 0.00728543 0.0056025 -0.000346558 0.00014989 1.15727e-10 4.00937e-11 2.5106e-11 5e-05 1.46608e-10 
83 1 0.0279153 0.0163847 0.00778428 0.00603211 -0.000477889 0.000225344 1.19132e-10 -2.64006e-10 2.27725e-10 5e-05 1.46608e-10 
84 1 0.0401052 0.0179236 0.00705968 0.00567847 -0.000538423 0.000419055 -1.49589e-12 -2.38133e-12 1.27863e-12 5e-05 1.46608e-10 
85 1 0.0277349 0.0160612 0.00805554 0.00562743 -0.000365025 0.000141239 1.84258e-12 -1.2154e-10 8.93926e-11 5e-05 1.46608e-10 
86 1 0.0341195 0.0175689 0.0071809 0.00515841 -0.000252299 4.38808e-05 -3.33605e-10 1.76962e-11 3.84974e-11 5e-05 1.46608e-10 
87 1 0.0340009 0.0167108 0.00758065 0.00610678 -0.000170131 0.000353065 -6.80872e-11 2.72173e-11 -2.7707e-11 5e-05 1.46608e-10 
88 1 0.034176 0.0182659 0.00696852 0.0056333 -0.000248285 2.13648e-05 -5.33692e-11 -2.07897e-11 -2.86083e-11 5e-05 1.46608e-10 
89 1 0.0341362 0.0180741 0.0069529 0.00562008 -0.000251548 1.04567e-05 -4.72493e-12 -4.0265e-11 -1.27864e-10 5e-05 1.46608e-10 
90 1 0.0341624 0.0170099 0.0074561 0.0061 -0.000181366 0.000355476 -1.53848e-10 2.18345e-10 -8.06243e-11 5e-05 1.46608e-10 
91 1 0.0278729 0.0168657 0.0073898 0.00581313 -0.00043241 0.000187158 -3.38972e-10 1.75311e-10 4.50376e-11 5e-05 1.46608e-10 
92 1 0.0342592 0.0177821 0.00706964 0.00611206 0.000297084 -0.000249541 -3.42345e-11 8.28196e-11 -1.98857e-11 5e-05 1.46608e-10 
93 1 0.0342277 0.0181038 0.00692558 0.0056433 -0.000248798 3.07366e-05 5.14463e-12 -5.97535e-12 2.5347e-11 5e-05 1.46608e-10 
94 1 0.0343179 0.0180605 0.00692628 0.00565871 -0.000229547 2.68538e-05 -3.53449e-11 -1.89406e-11 1.77843e-11 5e-05 1.46608e-10 
95 1 0.0340987 0.0178901 0.00701987 0.0056447 -0.000264063 2.38711e-05 3.33892e-11 3.65373e-11 -1.03379e-10 5e-05 1.46608e-10 
96 1 0.0342789 0.0178709 0.00702393 0.00577325 8.11926e-05 -0.000132632 -4.66232e-11 -1.17886e-10 7.21175e-11 5e-05 1.46608e-10 
97 1 0.0277453 0.0164147 0.00776433 0.00604106 -0.000454996 0.000205957 -2.46831e-10 -1.64315e-10 1.1137e-10 5e-05 1.46608e-10 
98 1 0.0341967 0.0183563 0.00700612 0.00550862 -0.000221711 2.94644e-05 -6.81954e-11 -3.04711e-11 -3.72078e-11 5e-05 1.46608e-10 
99 1 0.0279044 0.0166625 0.00755601 0.00616042 -0.000499167 0.000238608 3.46673e-10 -1.40991e-12 3.14829e-11 5e-05 1.46608e-10 
100 1 0.0341406 0.0169202 0.00749467 0.00610414 -0.000179159 0.000356344 -1.6954e-10 2.24673e-10 -9.39046e-11 5e-05 1.46608e-10 
101 1 0.0278407 0.0164383 0.00774479 0.00605421 -0.000470561 0.000217495 5.84886e-12 -1.93994e-10 1.40574e-10 5e-05 1.46608e-10 
102 1 0.0643568 0.0187248 0.00531097 4.37982e-15 1.04364e-14 8.29622e-14 1.41833e-21 -3.59281e-22 -3.4328e-23 5e-05 1.46608e-10 
103 1 0.24257 0.0191927 0.00520306 2.84498e-22 4.01299e-22 8.29106e-22 -3.23117e-27 0 0 5e-05 1.46608e-10 
104 1 0.0281671 0.0173873 0.00722944 0.00560232 -0.000371312 0.000156789 7.93766e-11 -1.75125e-11 5.63871e-12 5e-05 1.46608e-10 
105 1 0.0277028 0.0162644 0.0078892 0.00597362 -0.000453158 0.000203334 3.85906e-10 -4.82462e-10 3.91875e-10 5e-05 1.46608e-10 
106 1 0.0282416 0.0173226 0.0072454 0.00565321 -0.000351857 0.000152658 1.60128e-11 1.69427e-11 -5.87368e-12 5e-05 1.46608e-10 
107 1 0.0276603 0.0161141 0.00801408 0.0059411 -0.000415122 0.000175637 -2.44834e-10 -1.26386e-10 1.11381e-10 5e-05 1.46608e-10 
108 1 0.0339262 0.0167703 0.00755101 0.00610689 -0.000172512 0.000353883 -2.01209e-13 -4.57513e-11 1.37048e-11 5e-05 1.46608e-10 
109 1 0.0340233 0.0175398 0.00719735 0.00520998 -0.000179994 1.99916e-05 -9.66763e-13 1.65713e-10 9.9005e-11 5e-05 1.46608e-10 
110 1 0.0343459 0.0177372 0.00709122 0.00633035 0.000629369 -0.000422298 -5.64832e-11 3.31605e-11 -2.80186e-11 5e-05 1.46608e-10 
111 1 0.0342329 0.0185489 0.00704303 0.00527691 -0.000175372 4.01197e-05 1.89259e-11 -6.21408e-11 -1.75481e-11 5e-05 1.46608e-10 
112 1 0.0277665 0.0164899 0.00770189 0.00606967 -0.000464411 0.00021197 -7.15866e-11 8.35659e-11 -7.94485e-11 5e-05 1.46608e-10 
113 1 0.0284028 0.0172094 0.00727368 0.00564436 -0.000375656 0.000158306 3.05496e-11 1.90623e-11 -3.22783e-12 5e-05 1.46608e-10 
114 1 0.0281058 0.0171008 0.00729513 0.00559365 -0.000240613 0.000127142 -1.43401e-10 3.38616e-10 -4.48684e-11 5e-05 1.46608e-10 
115 1 0.0340784 0.0173948 0.00727278 0.00590827 4.27029e-05 -9.75908e-05 2.06858e-10 3.69931e-10 -2.47568e-10 5e-05 1.46608e-10 
116 1 0.0339045 0.0166806 0.00758956 0.00611208 -0.000174638 0.000355578 -3.77701e-11 -1.2049e-10 6.26727e-11 5e-05 1.46608e-10 
117 1 0.0337576 0.0161156 0.00795275 0.00581788 -0.000344258 6.96479e-05 -1.20697e-10 -1.9852e-10 5.76586e-11 5e-05 1.46608e-10 
118 1 0.0276004 0.0158869 0.0082026 0.00552018 -0.000244278 0.000250181 -2.74447e-11 -7.16036e-11 6.89219e-12 5e-05 1.46608e-10 
119 1 0.034066 0.0169798 0.007465 0.00610141 -0.000175596 0.000355745 -2.30449e-10 1.51525e-10 -1.65794e-10 5e-05 1.46608e-10 
120 1 0.0336233 0.0159666 0.00812511 0.00555301 -0.000279328 2.30605e-05 3.04845e-11 7.45052e-11 -8.77386e-11 5e-05 1.46608e-10 
121 1 0.0335841 0.0158363 0.00827171 0.00552455 -0.000281669 2.65376e-05 6.2086e-12 1.10291e-10 -1.2303e-10 5e-05 1.46608e-10 
122 1 0.0343653 0.0178255 0.00704576 0.00624927 0.000812629 -0.000515039 2.25768e-11 1.54118e-11 -5.45464e-12 5e-05 1.46608e-10 
123 1 0.027777 0.0162116 0.00793062 0.00591815 -0.000423776 0.000183969 -4.27852e-11 -4.04021e-11 3.82118e-11 5e-05 1.46608e-10 
124 1 0.0341953 0.0179202 0.007 0.00552354 -0.000264922 4.91568e-05 -2.56216e-11 -5.68007e-11 -1.60947e-13 5e-05 1.46608e-10 
125 1 0.0337378 0.0160505 0.00802603 0.00568584 -0.000317136 5.6065e-05 -5.84341e-11 -7.32925e-11 6.14117e-11 5e-05 1.46608e-10 
126 1 0.0339814 0.017367 0.00728888 0.00608572 -0.000199351 0.000356916 6.41255e-11 2.61584e-10 2.3065e-10 5e-05 1.46608e-10 
127 1 0.0277241 0.0163396 0.00782677 0.00599183 -0.000458069 0.000207708 -7.39871e-11 -3.879e-10 2.9771e-10 5e-05 1.46608e-10 
128 1 0.0340796 0.0178017 0.00706248 0.00576391 -0.000281058 5.44409e-05 -1.5957e-10 1.46334e-10 -9.35184e-11 5e-05 1.46608e-10 
129 1 0.0341561 0.0181715 0.00694227 0.00563736 -0.000251301 2.63418e-05 -4.04681e-12 -1.6611e-11 -2.13758e-11 5e-05 1.46608e-10 
130 1 0.0280312 0.0171658 0.00727912 0.00560795 -0.000338709 0.000150103 6.72899e-12 1.06912e-10 5.69279e-13 5e-05 1.46608e-10 
131 1 0.0278831 0.016588 0.00761915 0.00613979 -0.000492768 0.000232841 -1.88382e-11 -4.01819e-11 3.88176e-11 5e-05 1.46608e-10 
132 1 0.034176 0.017832 0.00704544 0.00587275 -1.56336e-05 -8.47761e-05 3.63269e-12 6.21285e-11 -6.7547e-11 5e-05 1.46608e-10 
133 1 0.0339145 0.0163527 0.00773654 0.00591434 -0.00131764 -0.00222183 -1.15045e-10 -4.22465e-10 -7.71191e-10 5e-05 1.46608e-10 
134 1 0.0340877 0.0170695 0.00742645 0.00609551 -0.00018162 0.000357186 -1.07296e-10 1.39446e-10 -1.77009e-11 5e-05 1.46608e-10 
135 1 0.033718 0.0159854 0.00809931 0.00556533 -0.000302364 4.62158e-05 2.42875e-11 3.6187e-12 2.4484e-11 5e-05 1.46608e-10 
136 1 0.0277148 0.0159861 0.0081185 0.00552956 -0.00034793 0.000117227 1.41048e-11 -1.05308e-10 1.61087e-10 5e-05 1.46608e-10 
137 1 0.0342518 0.0186438 0.00706835 0.00521585 -0.000161 4.28981e-05 1.67739e-10 -8.42011e-11 -1.79328e-11 5e-05 1.46608e-10 
138 1 0.0338611 0.0165013 0.00766667 0.00613742 -0.000180713 0.000356838 6.92756e-11 -2.12905e-10 1.12906e-10 5e-05 1.46608e-10 
140 1 0.0343953 0.0179521 0.00698054 0.00560126 -0.0002337 3.06435e-05 6.2789e-11 1.67534e-11 -1.15082e-11 5e-05 1.46608e-10 
141 1 0.0277558 0.0161364 0.00799306 0.00577109 -0.000393861 0.000164456 3.68614e-11 -7.39355e-11 5.80742e-11 5e-05 1.46608e-10 
142 1 0.0281261 0.0171965 0.0072732 0.00561628 -0.000350791 0.000152129 2.31949e-11 -8.87838e-11 3.71842e-11 5e-05 1.46608e-10 
143 1 0.0276816 0.0161893 0.00795164 0.005977 -0.000434048 0.000189258 1.65256e-10 -2.15923e-10 1.97965e-10 5e-05 1.46608e-10 
144 1 0.0280853 0.0170054 0.007317 0.00562999 -0.000249337 0.000130106 1.87005e-10 2.03152e-10 -4.75442e-11 5e-05 1.46608e-10 
146 1 0.0279369 0.0164599 0.00772184 0.00608653 -0.000511104 0.000250431 -1.2763e-11 -1.6833e-10 1.30298e-10 5e-05 1.46608e-10 
147 1 0.0276951 0.0159108 0.00818128 0.0055095 -0.000324614 0.000129503 -6.47856e-11 -6.26883e-11 7.1966e-11 5e-05 1.46608e-10 
148 1 0.0279959 0.0174195 0.0072198 0.00562779 -0.000340225 0.000149779 -3.04928e-11 -4.517e-11 3.17729e-12 5e-05 1.46608e-10 
149 1 0.0344883 0.0179842 0.00696263 0.00559208 -0.000217434 2.24237e-05 1.39922e-10 -2.41234e-11 1.44535e-11 5e-05 1.46608e-10 
150 1 0.0279795 0.0166106 0.00759666 0.00618958 -0.000469188 0.000211855 2.93508e-10 -3.07658e-10 2.44068e-10 5e-05 1.46608e-10 
151 1 0.0282957 0.0171624 0.00728323 0.00564169 -0.00035873 0.000153977 -6.63934e-11 3.50116e-11 -7.93089e-12 5e-05 1.46608e-10 
153 1 0.0278194 0.0163619 0.00780574 0.00603539 -0.000461203 0.000210115 -6.018e-11 -1.17275e-10 7.69716e-11 5e-05 1.46608e-10 
154 1 0.0280925 0.017452 0.00721348 0.00562894 -0.000347715 0.000151662 6.22295e-11 -4.15192e-11 8.22371e-12 5e-05 1.46608e-10 
155 1 0.0281746 0.0178336 0.00712631 0.0057033 -0.00035192 0.000153846 2.52318e-11 9.5772e-11 -2.86307e-11 5e-05 1.46608e-10 
156 1 0.0280721 0.0173566 0.00723536 0.00562086 -0.000350962 0.000152081 -2.56484e-11 -1.23799e-10 2.5902e-11 5e-05 1.46608e-10 
157 1 0.0219312 0.0187687 0.00551176 -3.82914e-14 8.16621e-14 2.95895e-13 5.42837e-22 2.4164e-22 -3.10193e-24 5e-05 1.46608e-10 
158 1 0.0281875 0.0174827 0.00720756 0.00563947 -0.000357329 0.000153882 3.9123e-11 6.14871e-11 -9.43797e-12 5e-05 1.46608e-10 
159 1 0.0342354 0.0176891 0.0071176 0.00582943 -0.000240087 2.90417e-05 -3.3978e-11 6.65755e-11 -2.7325e-11 5e-05 1.46608e-10 
160 1 0.0280778 0.0178012 0.00713229 0.005679 -0.0003382 0.00014998 -1.78206e-11 6.50485e-11 -1.2518e-11 5e-05 1.46608e-10 
162 1 0.028113 0.0175474 0.00719161 0.00564267 -0.000349056 0.000152407 1.87945e-11 1.96678e-11 -7.09808e-12 5e-05 1.46608e-10 
164 1 0.0283373 0.0181628 0.00705166 0.0055898 -0.00028839 0.000137089 -2.95113e-11 7.85069e-11 -1.36367e-11 5e-05 1.46608e-10 
165 1 0.0283571 0.0174487 0.0072176 0.00563466 -0.000367933 0.000156164 -6.08794e-12 4.12375e-11 -2.35438e-11 5e-05 1.46608e-10 
166 1 0.033873 0.0162001 0.00785306 0.00624915 -0.000333118 4.31979e-05 -2.84063e-10 3.33324e-10 4.98338e-11 5e-05 1.46608e-10 
167 1 0.0279579 0.0165351 0.00765936 0.006104 -0.000524691 0.000261294 -4.88681e-11 -1.27366e-10 1.20685e-10 5e-05 1.46608e-10 
168 1 0.0282621 0.017418 0.00722352 0.00564827 -0.000354361 0.000153626 2.83329e-11 3.00125e-11 -1.52433e-11 5e-05 1.46608e-10 
169 1 0.0284241 0.0173063 0.00725146 0.00564298 -0.000356622 0.000153847 -1.2541e-11 1.77804e-11 -3.07948e-12 5e-05 1.46608e-10 
170 1 0.0283031 0.0176088 0.00717977 0.00565547 -0.000371349 0.000157095 -2.63155e-12 1.1899e-10 -3.49634e-11 5e-05 1.46608e-10 
171 1 0.0338919 0.0162653 0.00777967 0.00627606 -0.000318982 2.16804e-05 3.37549e-10 -1.96205e-10 -1.59741e-10 5e-05 1.46608e-10 
172 1 0.0283366 0.0173532 0.00723947 0.00564122 -0.000363929 0.000155729 -1.66011e-11 -1.38753e-11 2.27938e-11 5e-05 1.46608e-10 
173 1 0.034215 0.0168603 0.00752444 0.00611073 -0.000172575 0.000353996 -1.41011e-10 1.43128e-10 -6.52915e-11 5e-05 1.46608e-10 
174 1 0.0282285 0.0176735 0.00716381 0.00565534 -0.000362003 0.000155319 -4.13867e-11 9.16903e-11 -2.14739e-11 5e-05 1.46608e-10 
175 1 0.0220293 0.0175748 0.0071728 0.00553385 -0.00100867 0.000324088 -1.16061e-11 -6.78541e-11 4.43977e-12 5e-05 1.46608e-10 
176 1 0.0280516 0.0172612 0.00725724 0.00560952 -0.000348866 0.000151631 6.99577e-11 3.4242e-11 6.09622e-13 5e-05 1.46608e-10 
177 1 0.0281187 0.0179921 0.0070885 0.00570368 -0.000356876 0.000155106 -9.98307e-13 2.26409e-11 -4.1066e-12 5e-05 1.46608e-10 
178 1 0.0283823 0.017114 0.00729556 0.00564501 -0.000370724 0.000157319 -1.18481e-10 1.46898e-11 -8.31614e-12 5e-05 1.46608e-10 
179 1 0.0283982 0.0176394 0.00717385 0.00566168 -0.000391113 0.000162106 1.24622e-11 1.29429e-10 -2.85936e-11 5e-05 1.46608e-10 
181 1 0.0280369 0.0176104 0.00717604 0.00565204 -0.000340818 0.000150433 -9.39304e-11 -1.17514e-10 2.5067e-11 5e-05 1.46608e-10 
182 1 0.0338394 0.0164116 0.00770522 0.00616322 -0.000181859 0.000357274 2.15656e-11 -1.94622e-10 8.1544e-11 5e-05 1.46608e-10 
183 1 0.0282825 0.0175134 0.00720164 0.00564012 -0.000361858 0.000155123 2.58587e-11 8.82819e-11 -8.15891e-12 5e-05 1.46608e-10 
184 1 0.0341785 0.0177325 0.00718742 0.00582767 -0.000283706 4.78901e-05 -1.83622e-11 5.16046e-11 -2.11231e-11 5e-05 1.46608e-10 
185 1 0.0279755 0.0173241 0.00724167 0.00561199 -0.000341996 0.000149732 -6.2464e-11 -1.28722e-10 2.85104e-11 5e-05 1.46608e-10 
186 1 0.0280164 0.0175149 0.00719792 0.00563286 -0.000343238 0.000150587 -9.60428e-13 -1.23474e-10 3.13445e-11 5e-05 1.46608e-10 
187 1 0.0341187 0.0168299 0.00753349 0.00602354 -0.000148817 0.00034299 4.43641e-10 -5.37419e-11 3.84659e-11 5e-05 1.46608e-10 
188 1 0.0344177 0.018054 0.00692802 0.00566642 -0.000224109 2.54831e-05 -5.95153e-11 -2.313e-11 8.13407e-12 5e-05 1.46608e-10 
189 1 0.0340808 0.0169629 0.00756245 0.00608944 -0.000202915 0.000356768 -4.2537e-10 -7.93758e-12 -1.12086e-10 5e-05 1.46608e-10 
190 1 0.0221048 0.0175105 0.00718585 0.00553984 -0.00100353 0.000323669 2.64265e-12 -1.53882e-11 -2.86026e-12 5e-05 1.46608e-10 
191 1 0.0342722 0.0187384 0.00709362 0.00548727 -0.000215176 3.30626e-05 2.26125e-12 -3.49912e-11 -1.0876e-11 5e-05 1.46608e-10 
192 1 0.0282007 0.0171317 0.00728915 0.0056326 -0.000338107 0.000149105 5.31631e-11 -5.44772e-11 2.81859e-11 5e-05 1.46608e-10 
193 1 0.0339792 0.0166211 0.00761921 0.00611006 -0.000173098 0.000354467 -1.1976e-11 -8.60805e-11 2.47371e-11 5e-05 1.46608e-10 
194 1 0.0280223 0.016761 0.00747168 0.00616166 -0.000166726 -2.52205e-05 -4.51982e-10 3.99673e-10 -2.91113e-10 5e-05 1.46608e-10 
195 1 0.0283776 0.017544 0.00719572 0.00564444 -0.000380291 0.000159698 4.57716e-11 1.04954e-10 -1.8398e-11 5e-05 1.46608e-10 
196 1 0.0275031 0.0154988 0.00850227 0.00555744 -0.000219978 0.000293446 2.17278e-12 1.8528e-11 -2.28557e-11 5e-05 1.46608e-10 
197 1 0.022091 0.0178644 0.00712499 0.00555001 -0.00100243 0.000323721 4.85474e-12 -2.65056e-11 3.38027e-12 5e-05 1.46608e-10 
198 1 0.0278936 0.0169425 0.00732918 0.00556523 -0.000354273 0.000163541 2.58523e-10 5.01276e-11 5.93727e-11 5e-05 1.46608e-10 
199 1 0.0281335 0.0176428 0.00716973 0.00565187 -0.000347956 0.000151882 -4.67646e-11 8.42418e-11 -1.76758e-11 5e-05 1.46608e-10 
200 1 0.0279902 0.016975 0.00732287 0.00565563 -0.000326779 0.000147454 5.04789e-11 1.22926e-10 -9.60994e-11 5e-05 1.46608e-10 
201 1 0.028493 0.018047 0.00708049 0.00566405 -0.000220408 0.00012259 -6.4292e-11 1.19989e-10 -2.91766e-11 5e-05 1.46608e-10 
202 1 0.0282211 0.0172272 0.00726727 0.00564003 -0.000343959 0.000150567 -5.76606e-11 -1.28225e-11 -1.87269e-12 5e-05 1.46608e-10 
203 1 0.0342367 0.0169501 0.00748587 0.00610992 -0.000176027 0.000355544 -1.51149e-10 1.95207e-10 -1.11017e-10 5e-05 1.46608e-10 
204 1 0.0279681 0.016891 0.00737245 0.00576225 -0.000356648 0.000137142 -6.80404e-12 4.40443e-11 -1.60508e-11 5e-05 1.46608e-10 
205 1 0.0282915 0.0179048 0.00711095 0.00572097 -0.000355248 0.000154492 9.05281e-12 1.55215e-11 2.63862e-11 5e-05 1.46608e-10 
206 1 0.0282492 0.0177689 0.00714193 0.00568781 -0.000369505 0.00015756 4.09536e-11 1.31832e-10 -2.357e-11 5e-05 1.46608e-10 
207 1 0.0277982 0.0162867 0.00786817 0.00601099 -0.000444691 0.000197472 -1.19033e-10 -1.20934e-10 8.67699e-11 5e-05 1.46608e-10 
208 1 0.028208 0.0175781 0.00718568 0.00564434 -0.00035768 0.000154161 -3.17599e-11 8.27293e-11 -2.16723e-11 5e-05 1.46608e-10 
209 1 0.0280008 0.0166858 0.0075342 0.00635367 -0.000381245 0.00013298 -2.36689e-10 4.01304e-10 -2.48461e-10 5e-05 1.46608e-10 
210 1 0.0339345 0.0170857 0.00750335 0.00609723 -0.00016521 0.000350392 -8.96585e-11 1.24582e-10 -2.30007e-11 5e-05 1.46608e-10 
211 1 0.0342956 0.0179591 0.00697851 0.00560102 -0.000262763 4.45877e-05 1.48126e-11 -4.33556e-11 2.78381e-11 5e-05 1.46608e-10 
212 1 0.0283236 0.0177041 0.0071579 0.00567502 -0.000380657 0.000159916 2.31359e-11 1.1337e-10 -2.47293e-11 5e-05 1.46608e-10 
213 1 0.0340967 0.0167403 0.00757199 0.00610282 -0.000165433 0.000350934 -3.69229e-11 9.29658e-11 -6.55441e-11 5e-05 1.46608e-10 
214 1 0.0342124 0.0180093 0.00695475 0.00560138 -0.000269492 4.06121e-05 -2.65959e-11 -6.26908e-11 6.84304e-11 5e-05 1.46608e-10 
215 1 0.0220683 0.0173232 0.00721681 0.00554122 -0.000992418 0.000180837 3.18874e-11 7.33029e-11 -2.28364e-10 5e-05 1.46608e-10 
216 1 0.0280982 0.0178966 0.00711041 0.00569249 -0.000336579 0.000149935 5.99675e-11 1.1444e-10 -2.87484e-11 5e-05 1.46608e-10 
217 1 0.0339358 0.0164417 0.00769631 0.00612904 -0.000189296 0.000365301 2.59731e-10 -2.00978e-10 1.38596e-11 5e-05 1.46608e-10 
218 1 0.0282147 0.0180245 0.00708219 0.0056755 -0.000338242 0.000150138 1.69295e-11 5.33319e-11 -1.15139e-11 5e-05 1.46608e-10 
219 1 0.0342136 0.0184541 0.00701772 0.00539391 -0.000201222 3.55516e-05 -4.12686e-12 -5.20013e-11 -1.88741e-11 5e-05 1.46608e-10 
220 1 0.0280573 0.0177058 0.00715416 0.00566103 -0.000339735 0.000150212 1.75925e-11 1.50648e-12 -1.37796e-12 5e-05 1.46608e-10 
221 1 0.0220032 0.0170454 0.00731443 0.00546579 -0.000805151 0.000707905 9.04025e-12 -1.72769e-11 -1.07601e-11 5e-05 1.46608e-10 
222 1 0.0339575 0.0165314 0.00765776 0.00612523 -0.000179904 0.000356532 5.77223e-11 -1.42553e-10 6.43563e-11 5e-05 1.46608e-10 
223 1 0.0281466 0.0172919 0.00725132 0.00563177 -0.00034896 0.000151902 3.07159e-11 -7.96701e-11 2.03734e-11 5e-05 1.46608e-10 
224 1 0.027955 0.0172287 0.00726355 0.00559056 -0.000344539 0.000149939 -2.51857e-11 -3.94037e-11 1.83449e-11 5e-05 1.46608e-10 
225 1 0.0342803 0.0171274 0.0074042 0.00659273 -0.000117789 -4.33302e-05 -3.23103e-10 3.80736e-10 -2.9481e-10 5e-05 1.46608e-10 
226 1 0.0283162 0.0172578 0.00726135 0.00565099 -0.000363312 0.000156015 -3.3263e-12 -5.97708e-11 -1.0884e-12 5e-05 1.46608e-10 
227 1 0.0221168 0.0171541 0.00724335 0.00547126 -0.00106347 0.000192406 -8.46229e-11 5.11033e-11 1.40391e-11 5e-05 1.46608e-10 
228 1 0.0220499 0.0176713 0.00715686 0.00553852 -0.00100748 0.000324637 -3.52255e-11 -8.4957e-11 1.17427e-11 5e-05 1.46608e-10 
229 1 0.0279641 0.0170658 0.00738933 0.00560366 -0.000357854 0.000150085 7.99429e-11 -2.34921e-11 -5.59926e-11 5e-05 1.46608e-10 
230 1 0.0283697 0.018335 0.0070121 0.00544926 -6.48253e-05 8.37375e-05 -1.0314e-10 2.27545e-10 -5.43916e-11 5e-05 1.46608e-10 
231 1 0.0220089 0.0174782 0.00718874 0.00551347 -0.00100331 0.000320063 8.73742e-12 -4.28539e-11 4.49613e-11 5e-05 1.46608e-10 
232 1 0.0278941 0.0163096 0.00784672 0.0060269 -0.000472265 0.000220094 9.69826e-11 -1.95659e-10 1.56345e-10 5e-05 1.46608e-10 
233 1 0.0280435 0.0168364 0.00740906 0.005855 -0.000324092 0.000102854 -1.30297e-10 -2.32563e-11 -1.03576e-10 5e-05 1.46608e-10 
234 1 0.034516 0.0180711 0.00692168 0.00567261 -0.000242814 2.75837e-05 -8.16491e-11 4.13139e-11 8.42647e-12 5e-05 1.46608e-10 
235 1 0.0284097 0.0185401 0.00696503 0.00552529 -0.000280775 0.000134796 -4.99734e-11 -1.11711e-11 2.55859e-12 5e-05 1.46608e-10 
236 1 0.0283906 0.0184444 0.00698699 0.00549392 -0.000278615 0.000133905 -6.06571e-11 5.04579e-11 -1.31182e-11 5e-05 1.46608e-10 
237 1 0.0284609 0.0183753 0.00700391 0.00553461 -0.000244929 0.000126659 -7.90325e-11 8.39995e-11 -2.05022e-11 5e-05 1.46608e-10 
239 1 0.0218234 0.0166921 0.00754772 0.00599632 -0.000868494 0.000766618 6.15809e-12 5.69553e-11 -4.20175e-11 5e-05 1.46608e-10 
240 1 0.0218883 0.0169357 0.0073851 0.00603784 -0.000884973 0.000777949 1.16082e-10 5.5919e-11 -1.88961e-12 5e-05 1.46608e-10 
241 1 0.0218018 0.0166109 0.00760193 0.00598423 -0.000866254 0.000764968 2.70141e-11 7.20545e-11 -4.4301e-11 5e-05 1.46608e-10 
242 1 0.0281593 0.0169402 0.00733307 0.00571458 -0.00014863 0.000111888 1.39924e-10 2.13212e-10 1.26506e-10 5e-05 1.46608e-10 
243 1 0.027947 0.0168128 0.00743115 0.00586052 -0.000412602 0.000169008 -4.46381e-10 1.33167e-10 -1.07695e-10 5e-05 1.46608e-10 
244 1 0.021845 0.0167733 0.00749351 0.00600793 -0.000871217 0.000769394 7.74245e-12 1.19219e-11 -5.14644e-12 5e-05 1.46608e-10 
246 1 0.0219676 0.0172853 0.00722056 0.00553028 -0.000994336 0.000323766 1.40857e-11 8.78481e-11 2.90137e-11 5e-05 1.46608e-10 