ITEM: TIMESTEP
4000000
ITEM: NUMBER OF ATOMS
287
ITEM: BOX BOUNDS ff ff ff
-0.02 0.43
-0.02 0.06
-0.02 0.07
ITEM: ATOMS id type x y z vx vy vz fx fy fz radius mass 
1 1 0.0361406 0.0162776 0.00780395 0.00620764 -0.000168369 -9.14999e-05 -1.01113e-10 5.57553e-11 -9.13737e-12 5e-05 1.46608e-10 
2 1 0.0365237 0.0170492 0.00740717 0.00606829 0.000732901 -0.000531859 9.20771e-10 7.14046e-09 -3.72199e-09 5e-05 1.46608e-10 
3 1 0.0299456 0.0159432 0.00816806 0.00611445 0.000289399 6.44225e-05 4.97937e-11 5.42971e-11 -4.88484e-11 5e-05 1.46608e-10 
4 1 0.0364725 0.0176736 0.00709002 0.00568819 5.87416e-05 -0.000120045 2.08389e-11 6.51028e-13 -1.1009e-11 5e-05 1.46608e-10 
5 1 0.0360218 0.0161659 0.00786879 0.00624144 -7.85018e-05 6.31097e-05 4.16428e-11 -4.04403e-10 -1.2528e-09 5e-05 1.46608e-10 
6 1 0.0420916 0.0164132 0.00765995 0.00614326 -0.000599836 0.000459653 1.43337e-12 8.20854e-13 -4.1071e-13 5e-05 1.46608e-10 
7 1 0.0362169 0.0169466 0.007466 0.00615669 -0.000103078 -4.50693e-05 -5.70412e-11 -2.06273e-11 5.47702e-12 5e-05 1.46608e-10 
8 1 0.0359199 0.0158435 0.00823245 0.00552622 0.000117805 0.000142001 -5.66522e-10 9.52089e-11 -7.33893e-11 5e-05 1.46608e-10 
9 1 0.0423674 0.0176183 0.00725785 0.00555496 -0.000489922 0.00039729 3.46383e-12 4.77985e-12 -4.73081e-12 5e-05 1.46608e-10 
10 1 0.0361519 0.0166861 0.00759976 0.00617443 -0.000159862 -8.67809e-05 1.48473e-11 -1.46893e-10 1.72466e-11 5e-05 1.46608e-10 
11 1 0.0365865 0.0173187 0.00726976 0.00603981 0.000301675 -0.000249703 -3.6287e-10 3.94524e-11 -7.1888e-11 5e-05 1.46608e-10 
12 1 0.0301582 0.0166557 0.00749983 0.00560145 -9.67505e-05 -0.000353386 1.15511e-09 3.47109e-11 2.51264e-09 5e-05 1.46608e-10 
13 1 0.0360008 0.0160855 0.0079244 0.00621644 -6.72034e-06 0.000194047 -2.93755e-10 -6.92374e-10 -7.09974e-10 5e-05 1.46608e-10 
14 1 0.0298639 0.0156612 0.00843977 0.00562934 0.000333011 -5.80545e-06 2.96537e-12 6.23677e-11 -6.05971e-11 5e-05 1.46608e-10 
15 1 0.0363574 0.0171495 0.00735995 0.00572925 -1.86881e-05 -8.18531e-05 -3.68584e-10 -9.8019e-11 5.91046e-11 5e-05 1.46608e-10 
16 1 0.0298443 0.0155906 0.00850785 0.00564434 0.000338084 -9.94934e-06 -1.78571e-11 4.39903e-11 -4.29636e-11 5e-05 1.46608e-10 
17 1 0.0361302 0.0165991 0.00764401 0.00618351 -0.000180202 -0.000102259 1.30219e-11 -1.61871e-10 -5.13172e-11 5e-05 1.46608e-10 
18 1 0.0422408 0.0170619 0.00744351 0.00596617 -0.000566684 0.000440573 -1.63451e-12 3.31992e-12 -6.66041e-13 5e-05 1.46608e-10 
19 1 0.0359797 0.016025 0.00800122 0.00617042 4.684e-05 0.000254766 -2.96975e-11 -1.4154e-10 -1.21887e-12 5e-05 1.46608e-10 
21 1 0.0361184 0.0161909 0.00784857 0.00624655 -3.39153e-05 0.000162618 -2.06323e-11 -1.99539e-10 -4.55502e-10 5e-05 1.46608e-10 
22 1 0.03626 0.0171202 0.00737651 0.0059496 -4.99081e-05 -7.20262e-05 1.02509e-10 8.66013e-12 -4.50989e-11 5e-05 1.46608e-10 
23 1 0.0303341 0.0170394 0.00733473 0.0057874 7.0903e-05 -7.3196e-05 -1.156e-10 -1.28637e-10 -4.86902e-12 5e-05 1.46608e-10 
24 1 0.0423047 0.01734 0.00735075 0.00589011 -0.000553145 0.00043279 2.15908e-12 8.35249e-12 -3.47477e-12 5e-05 1.46608e-10 
25 1 0.0361953 0.0168598 0.00751072 0.00616107 -0.000111491 -3.90339e-05 -6.65525e-11 -4.44096e-11 7.65951e-11 5e-05 1.46608e-10 
26 1 0.0421768 0.0167839 0.00753627 0.0060422 -0.000580906 0.00044856 -1.12089e-12 1.71488e-12 -6.58727e-13 5e-05 1.46608e-10 
27 1 0.0302371 0.0170073 0.00734371 0.00576566 0.000114351 3.98192e-05 -1.63048e-10 2.3888e-11 -3.8519e-10 5e-05 1.46608e-10 
28 1 0.0364553 0.0175854 0.0071354 0.00577184 2.69847e-05 -0.000105593 -8.60416e-11 3.42646e-11 -1.57233e-11 5e-05 1.46608e-10 
29 1 0.0359593 0.0159646 0.00807822 0.00613949 4.95308e-05 0.000269213 3.87649e-10 5.0798e-11 4.2743e-11 5e-05 1.46608e-10 
30 1 0.0364984 0.0173614 0.00724935 0.00586499 2.88331e-05 -0.000108262 -2.73816e-10 6.87747e-11 8.90829e-12 5e-05 1.46608e-10 
31 1 0.0362386 0.0170333 0.00742127 0.00616341 -9.83672e-05 -5.17155e-05 2.59611e-11 -1.4016e-12 -3.85195e-11 5e-05 1.46608e-10 
32 1 0.0363358 0.0170616 0.00740524 0.00622308 0.000233054 -0.000219039 2.99125e-10 -5.45203e-11 2.29729e-11 5e-05 1.46608e-10 
33 1 0.0421129 0.0165059 0.00762903 0.0061181 -0.000595168 0.000456534 8.47046e-13 1.66508e-12 -5.24592e-13 5e-05 1.46608e-10 
34 1 0.0361085 0.0165118 0.0076878 0.00618818 -0.000184974 -8.96288e-05 1.99259e-12 -1.14321e-10 -1.1503e-10 5e-05 1.46608e-10 
35 1 0.0363141 0.0169744 0.0074502 0.0061965 -0.000108912 -2.48672e-05 -5.08627e-11 -1.1415e-10 -6.89612e-11 5e-05 1.46608e-10 
36 1 0.0424081 0.017804 0.0071958 0.00559288 -0.000497192 0.000401429 2.73856e-12 2.81339e-12 -2.44424e-12 5e-05 1.46608e-10 
37 1 0.0362706 0.0168008 0.00753964 0.00616595 -0.000123195 -7.38816e-05 -1.61214e-11 -1.39371e-12 4.89546e-11 5e-05 1.46608e-10 
38 1 0.0364386 0.017097 0.00738553 0.00574975 3.98874e-05 -0.00011201 -3.74348e-10 1.69889e-09 -8.79774e-10 5e-05 1.46608e-10 
39 1 0.042326 0.0174327 0.00731983 0.00586473 -0.000548486 0.000430119 -1.83161e-12 8.55355e-12 -2.81638e-12 5e-05 1.46608e-10 
41 1 0.0360656 0.0163376 0.00777602 0.00619176 -0.000170267 -8.04009e-05 -1.22559e-11 3.26167e-10 4.8913e-10 5e-05 1.46608e-10 
42 1 0.0362807 0.0172071 0.0073317 0.00574593 -5.35415e-06 -8.8076e-05 1.21926e-11 6.83645e-11 -2.85693e-11 5e-05 1.46608e-10 
44 1 0.0364588 0.0171852 0.00734007 0.00572071 -5.64014e-05 -6.17637e-05 -5.50342e-11 6.60535e-12 -6.15949e-12 5e-05 1.46608e-10 
45 1 0.0421342 0.0165985 0.00759811 0.00609264 -0.000590392 0.000453903 -1.04257e-12 9.40872e-13 -1.94567e-13 5e-05 1.46608e-10 
46 1 0.0422195 0.0169693 0.00747443 0.00599157 -0.000571492 0.000443243 2.38031e-12 4.75876e-12 -1.9442e-12 5e-05 1.46608e-10 
47 1 0.0360876 0.0164245 0.00773184 0.00617535 -0.000179076 -8.8e-05 5.69671e-12 1.03012e-10 9.28178e-11 5e-05 1.46608e-10 
48 1 0.0363188 0.0173816 0.00724182 0.00578323 -1.27833e-05 -8.59395e-05 -1.96406e-11 3.75273e-11 -8.31279e-12 5e-05 1.46608e-10 
49 1 0.0421981 0.0168766 0.00750535 0.00601663 -0.000576277 0.000445954 2.36459e-13 2.2018e-12 -5.23207e-13 5e-05 1.46608e-10 
50 1 0.0363786 0.017644 0.00710917 0.00572766 -5.84688e-06 -8.25996e-05 -1.30806e-10 1.16926e-11 -6.08872e-11 5e-05 1.46608e-10 
51 1 0.0363589 0.0175561 0.00715257 0.00578637 -1.63151e-05 -8.00212e-05 -1.31058e-10 1.69528e-11 -6.31913e-11 5e-05 1.46608e-10 
52 1 0.0301373 0.0165805 0.00756242 0.00632383 -2.08476e-05 -0.000110337 -5.30028e-10 -7.01388e-10 4.79609e-10 5e-05 1.46608e-10 
53 1 0.0422621 0.0171546 0.00741259 0.00594077 -0.000562155 0.000437953 1.30043e-12 2.91785e-12 -1.60371e-12 5e-05 1.46608e-10 
54 1 0.036096 0.0161073 0.00790118 0.0062622 5.98248e-05 0.00026414 -3.60523e-10 1.89532e-10 -9.35997e-10 5e-05 1.46608e-10 
55 1 0.0299036 0.0158023 0.00830372 0.00593708 0.00029802 4.65585e-05 8.45346e-11 8.27679e-11 -8.8577e-11 5e-05 1.46608e-10 
56 1 0.0362923 0.0168874 0.00749466 0.0061596 -0.000116638 -7.07496e-05 -4.05461e-11 1.90236e-12 -2.52673e-12 5e-05 1.46608e-10 
57 1 0.0421555 0.0166912 0.00756719 0.00606739 -0.000585672 0.000451264 2.56303e-12 1.87168e-12 -6.60548e-13 5e-05 1.46608e-10 
59 1 0.0363456 0.0167404 0.00756666 0.00617183 -0.000130668 -0.000103544 -5.53898e-11 -4.97677e-11 1.71047e-11 5e-05 1.46608e-10 
60 1 0.0363673 0.0168274 0.00752248 0.00615919 -0.000132661 -9.81417e-05 3.76292e-11 8.79564e-12 3.71104e-12 5e-05 1.46608e-10 
61 1 0.0360435 0.016251 0.00782088 0.00621926 -0.000137054 -2.26736e-05 7.00848e-13 -1.88536e-10 -4.55018e-10 5e-05 1.46608e-10 
62 1 0.0364787 0.0172741 0.00729429 0.00582312 4.17348e-05 -0.000116296 -5.59825e-11 2.08524e-10 -1.04854e-10 5e-05 1.46608e-10 
63 1 0.0364151 0.0174113 0.00722514 0.00580735 -2.74721e-05 -7.69719e-05 -1.05171e-10 7.29869e-11 -6.2536e-11 5e-05 1.46608e-10 
64 1 0.0422834 0.0172473 0.00738167 0.00591547 -0.000557657 0.000435376 2.16971e-13 5.35075e-12 -1.01586e-12 5e-05 1.46608e-10 
65 1 0.0302528 0.0166787 0.00747698 0.00559981 -3.77054e-05 -0.000142701 3.10739e-10 3.36161e-10 -2.77817e-10 5e-05 1.46608e-10 
66 1 0.0301911 0.0164612 0.00767418 0.00631249 0.000198717 0.000181926 4.89729e-10 3.79226e-10 3.91663e-10 5e-05 1.46608e-10 
67 1 0.0365595 0.0172211 0.00732012 0.00590313 0.000127779 -0.000175113 -1.47547e-10 1.24219e-10 -9.74065e-11 5e-05 1.46608e-10 
68 1 0.036541 0.0175389 0.00715784 0.00579685 5.6497e-05 -0.000121056 1.26759e-12 2.01405e-11 -1.26195e-11 5e-05 1.46608e-10 
69 1 0.0362055 0.0165392 0.00767121 0.00620131 -0.000150786 -9.60334e-05 6.2316e-11 -1.16487e-10 5.63164e-11 5e-05 1.46608e-10 
70 1 0.0423471 0.0175254 0.00728888 0.00553635 -0.000485992 0.000395228 4.28424e-12 6.33949e-12 -1.47554e-12 5e-05 1.46608e-10 
71 1 0.0298835 0.0157318 0.0083717 0.00570332 0.000321439 9.77112e-06 9.69696e-11 8.05915e-11 -6.92932e-11 5e-05 1.46608e-10 
72 1 0.0365188 0.0174484 0.00720451 0.00584782 3.46155e-05 -0.000110028 -1.43976e-11 8.30699e-11 -2.25816e-11 5e-05 1.46608e-10 
73 1 0.0361736 0.016773 0.00755534 0.00616869 -0.000128657 -4.90238e-05 -3.52466e-11 -8.40276e-11 1.13029e-10 5e-05 1.46608e-10 
74 1 0.0363768 0.0172367 0.00731503 0.00575699 -1.74359e-05 -8.25777e-05 9.32958e-12 3.5865e-11 -2.38916e-11 5e-05 1.46608e-10 
76 1 0.0304765 0.017697 0.00714163 0.00542193 2.20521e-05 -0.000239417 3.9072e-10 -7.40441e-11 -9.00823e-12 5e-05 1.46608e-10 
77 1 0.0366101 0.0183161 0.00702051 0.00549746 -5.77955e-05 7.43195e-05 -1.49024e-10 1.31447e-11 3.80584e-11 5e-05 1.46608e-10 
78 1 0.0299669 0.0160135 0.00810028 0.00614927 0.000287947 6.83378e-05 -7.06258e-11 -5.09784e-11 5.08175e-11 5e-05 1.46608e-10 
79 1 0.0301771 0.0167318 0.00743751 0.00513288 -0.0030332 -0.00510923 -8.20012e-11 -3.57263e-10 -7.1757e-10 5e-05 1.46608e-10 
80 1 0.0364333 0.017908 0.00697819 0.00571423 1.5762e-05 -5.12372e-06 -5.83387e-11 -2.33271e-11 3.07415e-10 5e-05 1.46608e-10 
81 1 0.0301159 0.0165077 0.00762749 0.00633446 0.000166016 8.61139e-05 2.2441e-10 -1.30505e-10 1.40678e-10 5e-05 1.46608e-10 
82 1 0.0302577 0.0171022 0.0073201 0.00577021 3.53544e-05 -0.000228479 9.93754e-11 2.64047e-10 1.55957e-10 5e-05 1.46608e-10 
83 1 0.0302456 0.0163467 0.00778958 0.00635362 0.00018951 0.000157883 2.85477e-10 1.61414e-10 -2.09005e-10 5e-05 1.46608e-10 
84 1 0.0423877 0.0177111 0.00722683 0.00557397 -0.000493661 0.000399089 -2.63884e-12 7.39233e-12 1.94609e-12 5e-05 1.46608e-10 
85 1 0.0300629 0.0160386 0.00808115 0.0061723 0.00027084 8.58863e-05 -1.03056e-10 -3.85323e-11 3.33554e-11 5e-05 1.46608e-10 
86 1 0.0364356 0.0174983 0.00718029 0.00581926 8.78344e-06 -9.62167e-05 -1.08307e-10 1.64564e-11 -4.95834e-11 5e-05 1.46608e-10 
87 1 0.0363238 0.0166532 0.00761086 0.00618255 -0.000137377 -0.000101887 -4.69187e-13 -9.20316e-11 3.51809e-11 5e-05 1.46608e-10 
88 1 0.0364946 0.0181973 0.00698732 0.00549303 6.20629e-05 0.000108918 1.46594e-10 2.48302e-10 3.46982e-11 5e-05 1.46608e-10 
89 1 0.0364528 0.0180051 0.00696466 0.00574183 2.16504e-05 0.000113789 -8.42179e-11 9.41225e-11 4.85427e-10 5e-05 1.46608e-10 
90 1 0.0365028 0.016962 0.0074514 0.00686701 0.000844332 -0.000609747 -1.49565e-09 -6.12711e-09 3.24976e-09 5e-05 1.46608e-10 
91 1 0.030196 0.0168164 0.00738748 0.005715 -8.42461e-05 9.1643e-05 -1.38456e-12 -1.17353e-11 2.55149e-12 5e-05 1.46608e-10 
92 1 0.0365775 0.0177149 0.00706725 0.00562005 1.19267e-05 -9.70276e-05 1.25314e-10 -1.31645e-10 1.01929e-10 5e-05 1.46608e-10 
93 1 0.0365458 0.0180367 0.0069458 0.00573117 4.50056e-05 0.00011014 -3.7345e-11 -7.79643e-12 2.19191e-10 5e-05 1.46608e-10 
94 1 0.0366371 0.017997 0.00693684 0.00574185 0.000101788 0.000122931 -7.25787e-11 -2.79721e-10 -5.18708e-11 5e-05 1.46608e-10 
95 1 0.0364142 0.0178179 0.00701715 0.00564054 3.24783e-06 -9.37167e-05 1.06105e-10 -5.31192e-11 3.03048e-10 5e-05 1.46608e-10 
96 1 0.0365968 0.0178027 0.00702202 0.00562326 -0.000133126 -3.01643e-05 8.23117e-11 -1.96931e-10 6.55814e-11 5e-05 1.46608e-10 
97 1 0.0300736 0.0163654 0.00776147 0.0062999 0.000231447 0.000140701 3.47303e-11 -5.13079e-11 -5.35995e-10 5e-05 1.46608e-10 
98 1 0.0365143 0.0182878 0.00702499 0.00545626 5.89559e-05 0.000106088 -8.40404e-11 2.08068e-10 -2.56076e-11 5e-05 1.46608e-10 
99 1 0.0302335 0.0166032 0.00753965 0.00551691 -8.49126e-06 -0.000174154 6.11094e-10 2.03262e-10 -5.89414e-10 5e-05 1.46608e-10 
100 1 0.0364664 0.016857 0.00750497 0.00644546 4.0263e-05 -0.000204851 -2.74186e-11 7.48479e-11 -1.30322e-10 5e-05 1.46608e-10 
101 1 0.0301696 0.0163919 0.00774299 0.00631074 0.000184571 0.000169054 -8.72892e-11 -1.09129e-10 -1.66046e-10 5e-05 1.46608e-10 
102 1 0.0643568 0.0187248 0.00531097 4.11885e-15 1.05484e-14 8.29612e-14 1.21294e-21 1.09498e-22 -8.10637e-23 5e-05 1.46608e-10 
103 1 0.24257 0.0191927 0.00520306 5.30818e-23 -1.27651e-22 1.23839e-22 0 0 0 5e-05 1.46608e-10 
104 1 0.0304905 0.01735 0.00723962 0.00578662 -5.10853e-05 -0.000236657 2.12723e-10 4.16798e-11 -3.19311e-11 5e-05 1.46608e-10 
105 1 0.0300307 0.0162247 0.00789695 0.00620808 0.000248741 0.000105977 -3.46251e-11 -7.31171e-11 -5.58148e-11 5e-05 1.46608e-10 
106 1 0.030565 0.0172851 0.00725488 0.0057804 -5.52397e-05 -0.000232853 9.90907e-11 -4.39095e-11 4.21543e-12 5e-05 1.46608e-10 
107 1 0.0299881 0.0160839 0.00803251 0.0061768 0.000276224 7.99902e-05 -1.12443e-10 -8.81162e-11 9.97575e-11 5e-05 1.46608e-10 
108 1 0.0362489 0.0167133 0.00758294 0.00617493 -0.00013405 -8.21544e-05 -9.48157e-13 -6.56543e-11 4.45481e-11 5e-05 1.46608e-10 
109 1 0.0363384 0.0174688 0.00719692 0.00579905 -1.74572e-05 -8.16818e-05 -4.44169e-11 8.75241e-12 -1.57426e-11 5e-05 1.46608e-10 
110 1 0.036672 0.0177433 0.00705123 0.00559522 6.9405e-05 -0.000124361 1.18718e-10 9.14487e-11 -5.76477e-11 5e-05 1.46608e-10 
111 1 0.0365469 0.0184809 0.00706294 0.00560026 3.87808e-05 0.000100152 3.43215e-11 -5.86026e-11 -3.24452e-11 5e-05 1.46608e-10 
112 1 0.0300945 0.0164358 0.00769362 0.00630659 0.000226941 0.000143634 1.41561e-10 1.82311e-10 -3.32461e-10 5e-05 1.46608e-10 
113 1 0.0307149 0.0171562 0.00728506 0.00578751 -6.46854e-05 -0.000230967 -2.68012e-10 -1.03706e-10 4.57381e-11 5e-05 1.46608e-10 
114 1 0.030429 0.0170683 0.00732244 0.00578885 -1.37406e-05 -0.000190881 1.03223e-10 4.50806e-11 -1.19664e-10 5e-05 1.46608e-10 
115 1 0.0363956 0.0173241 0.00727006 0.00577753 -1.56267e-05 -8.28888e-05 -4.67639e-11 9.16021e-11 -5.75968e-11 5e-05 1.46608e-10 
116 1 0.0362272 0.0166262 0.00762703 0.00618601 -0.000147095 -9.78257e-05 1.88064e-11 -1.44983e-10 -8.73698e-12 5e-05 1.46608e-10 
117 1 0.036076 0.0160468 0.00797825 0.00595893 9.32483e-05 0.000203832 -2.22319e-11 4.83998e-10 -6.74138e-10 5e-05 1.46608e-10 
118 1 0.0299243 0.0158728 0.00823584 0.00609348 0.000285941 6.61525e-05 3.92144e-11 8.0592e-11 -6.41425e-11 5e-05 1.46608e-10 
119 1 0.0363896 0.0169151 0.00747799 0.0063237 -5.76947e-05 -0.000142053 2.83909e-11 -1.78642e-10 -4.38095e-10 5e-05 1.46608e-10 
120 1 0.0359395 0.0159041 0.00815531 0.00596656 6.46847e-05 0.000242542 -6.05773e-11 2.34721e-11 2.9356e-11 5e-05 1.46608e-10 
121 1 0.0359002 0.015783 0.00830958 0.00558184 0.000117469 0.000153618 -1.26512e-10 5.15637e-10 -6.94551e-10 5e-05 1.46608e-10 
122 1 0.0366916 0.0178304 0.00700632 0.00553077 8.33906e-05 -0.000130114 -7.72445e-12 6.09571e-11 -1.18793e-10 5e-05 1.46608e-10 
123 1 0.0301054 0.0161794 0.00794559 0.00620401 0.000258479 9.65842e-05 1.44852e-10 -2.66149e-10 2.11546e-10 5e-05 1.46608e-10 
124 1 0.0365106 0.0178484 0.00700001 0.00565649 -8.30107e-05 -3.21504e-05 5.99582e-11 -8.32613e-11 3.66906e-10 5e-05 1.46608e-10 
125 1 0.0360548 0.0159864 0.00805508 0.0058046 9.42811e-05 0.000185189 1.29854e-10 1.72956e-10 -2.50063e-10 5e-05 1.46608e-10 
126 1 0.0363002 0.0172951 0.00728823 0.0057685 -8.60538e-06 -8.7252e-05 -3.04456e-11 4.52135e-11 -1.85875e-11 5e-05 1.46608e-10 
127 1 0.0300521 0.016295 0.00782921 0.00624871 0.000237989 0.000134228 2.42501e-10 -5.1815e-13 -2.66104e-10 5e-05 1.46608e-10 
128 1 0.0363953 0.0177306 0.0070621 0.00565155 4.80118e-06 -9.37165e-05 -4.43287e-12 -6.60563e-11 -3.67795e-11 5e-05 1.46608e-10 
129 1 0.0364727 0.0181031 0.00696214 0.00569095 2.48145e-05 0.00012246 -4.12603e-11 1.48854e-10 5.72945e-10 5e-05 1.46608e-10 
130 1 0.0303546 0.0171333 0.00730707 0.00578857 2.18811e-05 -0.00023957 2.95307e-10 7.12082e-11 5.9329e-11 5e-05 1.46608e-10 
131 1 0.0302126 0.0165316 0.00760642 0.00634575 0.000200953 0.000198673 7.4707e-10 3.42388e-10 -3.94035e-10 5e-05 1.46608e-10 
132 1 0.0364915 0.0177609 0.00704504 0.00560768 -1.88678e-05 -8.06683e-05 2.50464e-11 -2.97774e-10 1.35678e-10 5e-05 1.46608e-10 
133 1 0.0362372 0.0163042 0.00778798 0.00622965 -0.000131018 -0.000105152 3.68068e-12 -6.84884e-11 8.07e-13 5e-05 1.46608e-10 
134 1 0.036417 0.0170089 0.00743026 0.00652763 0.000550867 -0.000457461 7.53609e-10 -1.17825e-09 5.33197e-10 5e-05 1.46608e-10 
135 1 0.0360343 0.015926 0.00813206 0.00595578 5.99612e-05 0.000243408 -1.14539e-09 3.66586e-10 -3.64907e-10 5e-05 1.46608e-10 
136 1 0.0300416 0.0159683 0.00814893 0.00612658 0.000274382 7.93767e-05 5.04459e-11 -2.31197e-12 3.27726e-11 5e-05 1.46608e-10 
137 1 0.0365664 0.0185757 0.00708824 0.00567306 3.66778e-05 0.000100045 -2.21933e-10 -1.72394e-10 -4.21407e-11 5e-05 1.46608e-10 
138 1 0.0361838 0.0164521 0.00771539 0.00619787 -0.00017543 -8.35942e-05 -4.12366e-11 -1.59511e-10 2.67527e-11 5e-05 1.46608e-10 
140 1 0.0367145 0.0179205 0.0069694 0.00549031 0.000116662 -8.35011e-05 -5.28508e-11 6.10487e-12 -1.09399e-10 5e-05 1.46608e-10 
141 1 0.0300841 0.016109 0.00801337 0.00612159 0.00026845 8.85345e-05 3.47941e-10 -3.23313e-10 3.15257e-10 5e-05 1.46608e-10 
142 1 0.0304495 0.0171622 0.00729477 0.00579245 -2.70505e-05 -0.000241213 3.0379e-10 1.1531e-10 7.78747e-12 5e-05 1.46608e-10 
143 1 0.0300094 0.0161543 0.00796473 0.00618758 0.00026853 9.09865e-05 -1.70265e-10 -1.79195e-10 1.03266e-10 5e-05 1.46608e-10 
144 1 0.0304086 0.0169747 0.00735098 0.00576518 2.49378e-05 -3.94081e-05 -1.05625e-10 1.33996e-10 1.37819e-11 5e-05 1.46608e-10 
146 1 0.0302671 0.016417 0.00772183 0.00630981 0.00017584 0.000184091 3.83012e-10 -3.09304e-10 3.25122e-10 5e-05 1.46608e-10 
147 1 0.0300203 0.0158979 0.00821671 0.00607839 0.000282933 6.83447e-05 -1.66779e-10 3.93767e-11 -4.6565e-11 5e-05 1.46608e-10 
148 1 0.0303192 0.0173839 0.00723737 0.00579651 -2.9273e-06 -0.000247899 3.53045e-11 1.03825e-10 -3.70817e-11 5e-05 1.46608e-10 
149 1 0.0368242 0.0179701 0.00693279 0.00550465 -0.000247949 3.00146e-05 5.75722e-11 6.95969e-12 -1.21326e-12 5e-05 1.46608e-10 
150 1 0.0303096 0.0165578 0.00758627 0.00588814 0.000214203 8.17172e-05 -5.20569e-10 1.26155e-10 4.67077e-10 5e-05 1.46608e-10 
151 1 0.0306189 0.0171262 0.00729772 0.0057969 -4.59414e-05 -0.000235192 7.26432e-11 -1.74031e-11 2.97931e-11 5e-05 1.46608e-10 
153 1 0.0301483 0.0163201 0.00781009 0.00631587 0.000245241 0.000125757 9.25566e-11 -6.22594e-11 1.52849e-10 5e-05 1.46608e-10 
154 1 0.0304161 0.0174152 0.00722507 0.00580195 -3.81249e-05 -0.000245306 1.08184e-10 5.22365e-11 1.30831e-11 5e-05 1.46608e-10 
155 1 0.0304963 0.017791 0.00711405 0.00538882 3.85756e-05 -0.000244698 4.03643e-10 9.74068e-11 -4.12179e-11 5e-05 1.46608e-10 
156 1 0.0303956 0.0173216 0.00725357 0.00579335 -2.51928e-05 -0.00025011 1.87449e-10 9.42067e-11 1.60553e-10 5e-05 1.46608e-10 
157 1 0.0219312 0.0187687 0.00551176 -3.84091e-14 8.16206e-14 2.95891e-13 6.61408e-22 5.04115e-22 -4.98376e-23 5e-05 1.46608e-10 
158 1 0.030511 0.017444 0.00721205 0.0058397 -5.0525e-05 -0.000236915 -6.25196e-11 5.66819e-11 -4.7414e-11 5e-05 1.46608e-10 
159 1 0.0365583 0.0176273 0.00711233 0.00571296 0.000100966 -0.000138615 1.60164e-11 -2.29403e-11 1.32459e-11 5e-05 1.46608e-10 
160 1 0.0304 0.0177598 0.00712707 0.00560826 1.85797e-05 -0.000246899 -6.83647e-11 -2.01181e-10 5.76475e-11 5e-05 1.46608e-10 
162 1 0.0304366 0.0175089 0.00719679 0.00581322 -5.56598e-05 -0.000235059 -8.08514e-11 2.95983e-12 -3.32928e-11 5e-05 1.46608e-10 
164 1 0.0306543 0.018112 0.00701603 0.00558321 -8.80994e-08 -0.000240092 2.62488e-10 2.14307e-11 -1.90993e-11 5e-05 1.46608e-10 
165 1 0.0306803 0.0174082 0.00721491 0.00576856 0.000216103 -0.000309724 4.45795e-11 2.00629e-10 -5.94825e-11 5e-05 1.46608e-10 
166 1 0.0361921 0.0161297 0.00787747 0.00625582 2.69371e-05 0.000312698 1.07342e-10 5.6747e-11 6.78104e-11 5e-05 1.46608e-10 
167 1 0.0302886 0.0164874 0.00765409 0.00637181 0.000178575 0.000194143 3.34e-10 2.56956e-11 2.60136e-10 5e-05 1.46608e-10 
168 1 0.0305855 0.017379 0.00722731 0.00585325 -4.8581e-05 -0.000238248 -7.26582e-11 8.73109e-11 -1.45754e-11 5e-05 1.46608e-10 
169 1 0.0307363 0.0172511 0.00725715 0.0058233 -6.13405e-05 -0.00023355 -9.16921e-11 -3.88255e-11 1.61795e-11 5e-05 1.46608e-10 
170 1 0.0306261 0.0175677 0.00717192 0.00568232 0.000323476 -0.00033676 -9.60769e-11 -2.50944e-10 7.99791e-11 5e-05 1.46608e-10 
171 1 0.0362142 0.0162163 0.00783258 0.0062387 -0.00014214 -0.00010064 -1.15507e-10 -7.4544e-11 6.68267e-11 5e-05 1.46608e-10 
172 1 0.0306599 0.017314 0.00724257 0.00583212 -6.5339e-05 -0.000232561 -8.55585e-11 7.80574e-12 1.22674e-12 5e-05 1.46608e-10 
173 1 0.0365442 0.0168 0.00753134 0.00653269 0.00011972 -0.000241501 -1.16741e-10 1.03319e-10 -2.76194e-12 5e-05 1.46608e-10 
174 1 0.0305514 0.0176325 0.00715674 0.00557203 0.000181275 -0.000291293 -3.55134e-11 -3.03459e-10 8.4214e-11 5e-05 1.46608e-10 
175 1 0.0243369 0.0174642 0.00720624 0.00579082 -0.000113699 4.70287e-05 8.54416e-12 -1.83835e-11 6.31604e-12 5e-05 1.46608e-10 
176 1 0.0303751 0.0172276 0.007281 0.00577934 -4.36952e-06 -0.000251419 2.69514e-10 8.23604e-11 -1.26937e-10 5e-05 1.46608e-10 
177 1 0.030439 0.0179481 0.00707189 0.0054907 4.38756e-05 -0.00024947 -9.13678e-11 3.44515e-11 -1.882e-11 5e-05 1.46608e-10 
178 1 0.0306941 0.017062 0.00731272 0.00579014 -6.54868e-05 -0.000230517 -1.43242e-10 -1.46534e-10 4.5752e-11 5e-05 1.46608e-10 
179 1 0.0307208 0.0175973 0.00715943 0.00568049 0.000335823 -0.000340133 -2.14144e-10 4.81537e-10 -1.30913e-10 5e-05 1.46608e-10 
181 1 0.0303602 0.0175718 0.00718223 0.00581408 -3.18397e-05 -0.000242956 1.05276e-11 6.83702e-11 -4.19872e-11 5e-05 1.46608e-10 
182 1 0.0361626 0.0163646 0.0077598 0.0061819 -0.00017083 -8.73005e-05 -2.13221e-11 4.06675e-11 3.46931e-11 5e-05 1.46608e-10 
183 1 0.0306059 0.0174733 0.00719963 0.00577284 0.000237902 -0.000316274 -3.36026e-10 -5.54469e-11 3.15245e-11 5e-05 1.46608e-10 
184 1 0.0364992 0.0176611 0.00718558 0.00571278 0.000106581 -0.000128289 5.48336e-11 1.12393e-10 -3.60387e-12 5e-05 1.46608e-10 
185 1 0.0302987 0.01729 0.00726495 0.00578456 1.29588e-05 -0.000249498 4.11625e-12 5.5558e-11 -7.52279e-11 5e-05 1.46608e-10 
186 1 0.0303397 0.0174779 0.0072098 0.00580569 -2.311e-05 -0.000246132 4.7832e-11 8.6914e-11 -9.6346e-12 5e-05 1.46608e-10 
187 1 0.0364428 0.016768 0.00755016 0.00615966 -0.000131021 -0.000103259 5.38829e-11 -4.96956e-11 3.25623e-11 5e-05 1.46608e-10 
188 1 0.0367353 0.0180147 0.00694311 0.00572479 0.000125274 0.000126214 1.46709e-11 -4.75329e-12 -1.55446e-11 5e-05 1.46608e-10 
189 1 0.0364133 0.0169052 0.00757464 0.00646522 -7.548e-05 -0.000144097 -2.14724e-10 2.44864e-10 -3.08514e-10 5e-05 1.46608e-10 
190 1 0.0244115 0.0173984 0.00721684 0.00579066 -0.000110925 4.65426e-05 3.32534e-12 -2.10632e-12 1.37917e-11 5e-05 1.46608e-10 
191 1 0.0365881 0.01867 0.00711346 0.00566365 3.67955e-05 0.000101343 -7.53628e-11 -2.77643e-10 -7.08487e-11 5e-05 1.46608e-10 
192 1 0.030524 0.0170972 0.00731003 0.00579196 -4.55201e-05 -0.00023666 2.52318e-10 8.79203e-11 -1.84031e-10 5e-05 1.46608e-10 
193 1 0.0363021 0.0165661 0.00765507 0.00621042 -0.000123008 -0.000107627 3.00782e-11 -1.10813e-10 6.25454e-11 5e-05 1.46608e-10 
194 1 0.0303479 0.0167031 0.00745438 0.00569094 1.94259e-05 -0.000205555 -1.68925e-10 -5.59417e-10 -7.04604e-12 5e-05 1.46608e-10 
195 1 0.0307007 0.0175029 0.00718713 0.00579578 0.00044906 -0.000377464 -1.5024e-11 -5.96704e-11 1.91292e-11 5e-05 1.46608e-10 
196 1 0.0298247 0.0155201 0.00857593 0.00565331 0.000341461 -1.2657e-05 2.34025e-11 5.59548e-11 -5.41498e-11 5e-05 1.46608e-10 
197 1 0.0243972 0.0177546 0.00716138 0.00554616 -5.7016e-05 3.67714e-05 -1.4416e-12 -1.16471e-11 1.23962e-12 5e-05 1.46608e-10 
198 1 0.0302165 0.0169117 0.00736561 0.00571836 -8.49116e-05 9.18094e-05 -1.01332e-12 -1.15733e-11 2.92313e-12 5e-05 1.46608e-10 
199 1 0.0304567 0.0176029 0.00716921 0.00565582 -3.05426e-05 -0.00023487 -1.41095e-10 -5.09364e-11 2.41016e-11 5e-05 1.46608e-10 
200 1 0.0303135 0.0169447 0.00735919 0.00575026 8.91595e-05 5.94957e-05 -1.11595e-10 -2.53204e-11 2.01493e-10 5e-05 1.46608e-10 
201 1 0.0308202 0.0180638 0.00702257 0.00558644 -2.07519e-05 -0.000234858 2.16604e-10 -2.0847e-10 5.16213e-11 5e-05 1.46608e-10 
202 1 0.0305445 0.0171912 0.00728246 0.00579437 -3.47432e-05 -0.00023846 2.29216e-10 7.76647e-11 -7.85152e-11 5e-05 1.46608e-10 
203 1 0.0365929 0.0169223 0.00746882 0.00718443 0.00164997 -0.00102278 6.88012e-10 -1.5054e-09 7.29043e-10 5e-05 1.46608e-10 
204 1 0.0302932 0.0168518 0.00739017 0.00570173 4.3489e-05 -6.86905e-06 -2.17148e-10 -7.70902e-11 4.91691e-10 5e-05 1.46608e-10 
205 1 0.0306141 0.0178693 0.00708672 0.00548711 2.65759e-05 -0.000244167 -3.57062e-10 2.21067e-10 -7.89053e-11 5e-05 1.46608e-10 
206 1 0.0305712 0.0177266 0.00712914 0.00539906 5.29022e-05 -0.000247835 2.0955e-10 2.6175e-10 -9.35349e-11 5e-05 1.46608e-10 
207 1 0.0301272 0.0162499 0.00787814 0.00627701 0.000260251 0.000104696 -9.14613e-12 -6.99051e-11 1.87345e-10 5e-05 1.46608e-10 
208 1 0.0305314 0.0175382 0.00718439 0.00573533 0.000184799 -0.000299459 -2.65094e-10 -9.85328e-12 6.57731e-12 5e-05 1.46608e-10 
209 1 0.0303288 0.0166284 0.00751812 0.00571698 0.000273199 8.04893e-05 -1.67303e-10 -2.5943e-10 -8.30265e-13 5e-05 1.46608e-10 
210 1 0.0362591 0.0170225 0.00751854 0.00618976 -5.85624e-05 -5.2957e-05 8.10079e-11 -1.10974e-10 -1.22601e-10 5e-05 1.46608e-10 
211 1 0.0366167 0.0178993 0.00697229 0.00591022 9.93277e-05 -0.000125373 -5.80782e-10 5.26497e-10 -3.17631e-10 5e-05 1.46608e-10 
212 1 0.0306461 0.017662 0.00714425 0.00555182 0.000204046 -0.000297311 -1.24317e-10 3.14252e-10 -7.8394e-11 5e-05 1.46608e-10 
213 1 0.0364207 0.0166805 0.00759454 0.00618237 -0.000120595 -0.000107605 1.52411e-11 -1.48759e-12 -9.79159e-12 5e-05 1.46608e-10 
214 1 0.0365268 0.0179388 0.0069535 0.00581346 -8.40029e-06 -0.000131835 -5.88335e-10 -8.28721e-11 -1.80772e-10 5e-05 1.46608e-10 
215 1 0.0243792 0.0172164 0.00724498 0.00580103 -0.000117294 4.78443e-05 9.61793e-12 -2.66529e-12 -3.43666e-12 5e-05 1.46608e-10 
216 1 0.0304194 0.017854 0.00709948 0.00552621 3.21684e-05 -0.000247423 -2.06681e-10 -2.17419e-10 7.01085e-11 5e-05 1.46608e-10 
217 1 0.0362587 0.016392 0.00774343 0.00621896 -0.000155466 -9.22362e-05 1.33754e-10 -3.43623e-11 9.54002e-12 5e-05 1.46608e-10 
218 1 0.0305349 0.0179794 0.00705886 0.00554187 4.30465e-06 -0.000239646 -1.74749e-10 2.55607e-10 -6.8381e-11 5e-05 1.46608e-10 
219 1 0.0365275 0.0183862 0.00703764 0.00550741 5.06649e-05 0.000103648 6.402e-11 6.92459e-11 -5.0722e-11 5e-05 1.46608e-10 
220 1 0.0303803 0.0176658 0.00715465 0.00567491 1.47209e-06 -0.000244461 -3.2195e-11 2.38833e-11 -1.05348e-11 5e-05 1.46608e-10 
221 1 0.0243115 0.0169458 0.00737245 0.00572521 -0.000159263 7.65441e-05 9.04344e-11 -1.06587e-10 -6.04891e-11 5e-05 1.46608e-10 
222 1 0.0362804 0.0164791 0.00769924 0.00622207 -0.000122062 -0.000109384 1.18456e-10 -5.10805e-11 2.84209e-11 5e-05 1.46608e-10 
223 1 0.03047 0.0172561 0.0072672 0.00579026 -2.96254e-05 -0.000242634 2.60385e-10 8.71042e-11 -7.95785e-11 5e-05 1.46608e-10 
224 1 0.0302782 0.0171965 0.00729369 0.00577361 2.09939e-05 -0.00024596 1.62494e-10 1.18997e-10 -8.11904e-11 5e-05 1.46608e-10 
225 1 0.0366654 0.0172632 0.00729615 0.00639533 0.000675631 -0.000514707 -2.63179e-10 2.73564e-10 -9.02849e-11 5e-05 1.46608e-10 
226 1 0.0306394 0.0172201 0.00727015 0.00579096 -5.23389e-05 -0.0002348 -1.39242e-10 -5.84082e-11 2.13131e-11 5e-05 1.46608e-10 
227 1 0.0244276 0.0170545 0.0072949 0.00580515 -0.000121605 5.01988e-05 4.08387e-11 -3.6172e-11 2.15129e-11 5e-05 1.46608e-10 
228 1 0.0243573 0.0175609 0.0071913 0.00564204 -7.93192e-05 4.03057e-05 -3.62051e-11 -1.87096e-11 4.81788e-12 5e-05 1.46608e-10 
229 1 0.0302853 0.0170473 0.00742166 0.00578691 0.000365748 -9.55121e-05 -6.58579e-10 -2.64079e-10 -1.46048e-10 5e-05 1.46608e-10 
230 1 0.0306862 0.0182925 0.00696335 0.0055816 -7.51744e-05 -0.000219757 1.62366e-10 -1.06395e-10 4.15118e-11 5e-05 1.46608e-10 
231 1 0.0243165 0.0173674 0.00722118 0.00579301 -0.00011794 4.8389e-05 7.67558e-12 -2.90909e-11 -3.86028e-11 5e-05 1.46608e-10 
232 1 0.0302231 0.0162749 0.00785868 0.00629059 0.000221103 0.000143663 3.12326e-10 -1.84961e-10 2.41861e-10 5e-05 1.46608e-10 
233 1 0.0303662 0.0167838 0.00739719 0.00569468 3.74481e-05 7.24052e-05 -4.04312e-10 -4.26313e-10 3.96871e-11 5e-05 1.46608e-10 
234 1 0.0368181 0.0180686 0.00695868 0.00573846 0.000112285 0.000124012 2.52186e-10 9.05342e-11 2.94117e-11 5e-05 1.46608e-10 
235 1 0.0307289 0.0184858 0.00690657 0.00565874 6.724e-06 -0.000243811 4.61091e-12 -2.58452e-10 4.12904e-11 5e-05 1.46608e-10 
236 1 0.0307097 0.0183916 0.00693416 0.00564015 -1.32007e-05 -0.000238992 1.11833e-11 -2.34746e-10 1.00277e-10 5e-05 1.46608e-10 
237 1 0.0307815 0.0183239 0.00695033 0.00561754 -2.91414e-05 -0.000234027 2.92589e-10 -5.31801e-11 1.57195e-11 5e-05 1.46608e-10 
239 1 0.0241356 0.0166002 0.00761781 0.00618518 -0.000204036 0.000107574 3.24485e-12 -4.26451e-11 2.59585e-11 5e-05 1.46608e-10 
240 1 0.0241979 0.0168396 0.00744818 0.00565883 -0.000100261 3.67606e-05 -1.22617e-10 1.87754e-12 -1.78573e-11 5e-05 1.46608e-10 
241 1 0.0241139 0.0165205 0.00767424 0.00618077 -0.000204989 0.000108423 -2.85337e-12 -3.62298e-11 2.60853e-11 5e-05 1.46608e-10 
242 1 0.030483 0.0169094 0.00736518 0.00575557 -6.95798e-05 -0.000244579 -3.27976e-10 -5.04794e-11 -8.32888e-11 5e-05 1.46608e-10 
243 1 0.0302721 0.0167588 0.00742034 0.00562991 -5.66134e-06 -0.000101526 -2.05607e-10 -2.64852e-10 -2.43312e-10 5e-05 1.46608e-10 
244 1 0.0241573 0.0166798 0.00756138 0.00619425 -0.000201841 0.000106259 -3.76738e-11 -4.92148e-12 1.29814e-11 5e-05 1.46608e-10 