ITEM: TIMESTEP
7200000
ITEM: NUMBER OF ATOMS
287
ITEM: BOX BOUNDS ff ff ff
-0.02 0.43
-0.02 0.06
-0.02 0.07
ITEM: ATOMS id type x y z vx vy vz fx fy fz radius mass 
1 1 0.0548183 0.0164648 0.00789568 0.00585031 0.000242363 0.000893759 4.22815e-11 2.31013e-10 -4.44449e-11 5e-05 1.46608e-10 
2 1 0.0552189 0.0172604 0.00726397 0.00609432 -0.000364802 -0.000172744 -5.92063e-10 5.4965e-10 -2.07525e-10 5e-05 1.46608e-10 
3 1 0.0486402 0.0161579 0.00822371 0.00579025 0.000703224 -6.67144e-05 -8.38917e-11 1.57198e-11 -1.01773e-10 5e-05 1.46608e-10 
4 1 0.0551509 0.0177561 0.00710555 0.00560474 -0.000392501 0.000514153 9.08158e-11 -5.70309e-10 -1.2513e-10 5e-05 1.46608e-10 
5 1 0.0547087 0.0163983 0.00800714 0.00568709 0.000282045 0.000836579 -8.98218e-11 3.13973e-10 1.92377e-11 5e-05 1.46608e-10 
6 1 0.0607948 0.0167012 0.00772369 0.00601919 0.000114717 -0.000811867 -1.91759e-10 -2.22856e-11 3.74637e-12 5e-05 1.46608e-10 
7 1 0.0548847 0.0169989 0.00739178 0.00602664 -0.000764764 -3.47852e-05 -3.64098e-10 -9.05016e-11 3.36126e-10 5e-05 1.46608e-10 
8 1 0.0546144 0.0160877 0.00838731 0.00463299 0.000223311 0.000672157 -2.46437e-10 3.7706e-10 -4.96388e-10 5e-05 1.46608e-10 
9 1 0.0610594 0.0177663 0.00718555 0.00623098 0.000527644 -0.000153904 1.17233e-10 -2.35436e-12 -3.74323e-10 5e-05 1.46608e-10 
10 1 0.0548194 0.016733 0.00751533 0.00609633 -1.89607e-05 0.00132933 1.33191e-10 -3.16443e-10 9.35869e-10 5e-05 1.46608e-10 
11 1 0.0552627 0.017442 0.00718531 0.00590136 -0.000203395 -0.000232586 -4.22499e-10 3.79681e-10 -5.55706e-10 5e-05 1.46608e-10 
12 1 0.0488432 0.0168517 0.00753273 0.00620436 0.000636637 5.28339e-05 3.85427e-11 1.68258e-10 -1.05087e-11 5e-05 1.46608e-10 
13 1 0.0546879 0.0163228 0.00806932 0.00568101 0.000278484 0.000794932 -4.15105e-10 -9.48042e-11 -1.40507e-10 5e-05 1.46608e-10 
14 1 0.0485595 0.015882 0.00849852 0.00559672 0.000690672 -8.23735e-05 1.65588e-10 2.06326e-10 -2.46128e-10 5e-05 1.46608e-10 
15 1 0.0550238 0.0172042 0.00729804 0.00600296 -0.000681027 -4.25967e-05 -6.36409e-10 2.57178e-10 1.93903e-10 5e-05 1.46608e-10 
16 1 0.0485396 0.0158126 0.00856768 0.00403584 0.000832643 -0.000397215 -4.11227e-10 3.68374e-10 -4.23972e-10 5e-05 1.46608e-10 
17 1 0.0547993 0.0166702 0.00760019 0.00609179 0.000205331 0.000979785 3.20104e-10 2.38665e-10 -4.39538e-10 5e-05 1.46608e-10 
18 1 0.0609396 0.017206 0.00726152 0.00643289 0.000369465 -0.000403308 -3.48556e-10 1.66646e-10 -1.71638e-10 5e-05 1.46608e-10 
19 1 0.0546691 0.0162644 0.00814826 0.00566188 0.000304659 0.000779932 2.49168e-11 2.41532e-11 -3.59819e-10 5e-05 1.46608e-10 
21 1 0.0548037 0.016418 0.0079828 0.00573802 0.000231048 0.000882182 -6.23732e-10 1.32552e-09 3.59185e-10 5e-05 1.46608e-10 
22 1 0.0549281 0.017178 0.00731415 0.0060951 -0.00072663 -1.40843e-05 2.38483e-11 1.24856e-10 -9.68933e-11 5e-05 1.46608e-10 
23 1 0.0490189 0.0171695 0.00725218 0.00615676 -2.21513e-05 -0.000655646 -3.33222e-10 1.83376e-10 1.97749e-10 5e-05 1.46608e-10 
24 1 0.0610008 0.0174724 0.00717237 0.00638062 0.000486314 -0.000216201 2.25459e-11 9.96431e-11 -2.13477e-11 5e-05 1.46608e-10 
25 1 0.0548629 0.0169093 0.00743059 0.00606356 -0.000829706 -0.000109216 -2.32868e-10 1.46239e-10 -7.57773e-10 5e-05 1.46608e-10 
26 1 0.0608757 0.0169853 0.00745399 0.00620186 8.27023e-05 -0.000808413 -3.93161e-10 -1.44801e-10 1.61276e-10 5e-05 1.46608e-10 
27 1 0.0489258 0.0171515 0.00729103 0.00641677 0.000484102 0.000307042 -1.30318e-11 6.05235e-10 4.516e-10 5e-05 1.46608e-10 
28 1 0.0551307 0.0176598 0.00712325 0.00551951 -0.000462215 0.000251716 -5.54526e-10 -6.4859e-10 -9.76809e-10 5e-05 1.46608e-10 
29 1 0.0546503 0.0162057 0.00822748 0.00558943 0.000210643 0.000862688 3.53941e-10 5.22654e-10 2.40004e-10 5e-05 1.46608e-10 
30 1 0.0551638 0.0174106 0.00720377 0.00592502 -0.000453812 -9.44192e-05 -3.0594e-10 1.73675e-10 2.33923e-10 5e-05 1.46608e-10 
31 1 0.0549064 0.0170885 0.00735297 0.00604691 -0.000755454 3.65907e-06 6.01993e-10 -7.10506e-10 3.00114e-10 5e-05 1.46608e-10 
32 1 0.055002 0.0171146 0.00733686 0.0059851 -0.000706561 -4.24679e-06 1.35139e-10 5.37133e-10 -1.77283e-10 5e-05 1.46608e-10 
33 1 0.060815 0.0167723 0.00765626 0.00610349 9.92069e-05 -0.000803406 -3.62588e-10 1.6275e-10 -1.19968e-10 5e-05 1.46608e-10 
34 1 0.0547805 0.0166117 0.00767917 0.00607134 0.000296834 0.0008793 3.48437e-10 3.24047e-10 3.9906e-10 5e-05 1.46608e-10 
35 1 0.0549804 0.017025 0.00737568 0.00584222 -0.000722904 -2.49393e-05 1.75145e-09 8.56238e-10 -3.27824e-09 5e-05 1.46608e-10 
36 1 0.0610998 0.0179622 0.00718735 0.00608974 0.000572742 0.000234625 -7.42323e-11 -9.80174e-12 -8.23698e-12 5e-05 1.46608e-10 
37 1 0.0549368 0.0168459 0.0074533 0.00609694 -0.000778527 1.14702e-05 -1.27125e-10 1.64215e-10 -4.98857e-10 5e-05 1.46608e-10 
38 1 0.0550988 0.0171419 0.00732021 0.0062444 -0.000493068 -0.000128635 -5.7219e-10 -1.45457e-10 -3.24792e-10 5e-05 1.46608e-10 
39 1 0.0610195 0.0175705 0.0071779 0.00632843 0.000496014 -0.000218877 1.5828e-11 -1.41343e-11 2.17801e-11 5e-05 1.46608e-10 
41 1 0.054743 0.0164948 0.00783705 0.00591752 0.000282931 0.000862778 6.41973e-11 2.96807e-10 2.81656e-11 5e-05 1.46608e-10 
42 1 0.0549498 0.0172676 0.00727534 0.00603917 -0.000581012 -8.72339e-05 -7.444e-11 2.61839e-10 -1.35213e-10 5e-05 1.46608e-10 
44 1 0.0551205 0.0172315 0.0072814 0.00621256 -0.000509408 -0.000109696 -3.58608e-11 -6.94875e-13 -1.86146e-10 5e-05 1.46608e-10 
45 1 0.0608353 0.0168433 0.00758884 0.00612521 7.97986e-05 -0.000789574 3.60047e-10 1.93964e-10 -1.46822e-10 5e-05 1.46608e-10 
46 1 0.0609164 0.0171298 0.00732199 0.00632351 0.000183066 -0.000688403 -2.12812e-10 1.48817e-10 2.88328e-11 5e-05 1.46608e-10 
47 1 0.0547619 0.0165533 0.00775813 0.00602567 0.000282767 0.000882983 4.21361e-10 1.73044e-10 2.75256e-10 5e-05 1.46608e-10 
48 1 0.0549933 0.0174467 0.00719771 0.00613705 -0.000532808 -0.000101506 -5.27596e-10 -3.58532e-10 -1.64282e-10 5e-05 1.46608e-10 
49 1 0.0608981 0.0170559 0.00738675 0.00621382 9.62248e-05 -0.000817718 -1.31349e-10 -5.38123e-12 1.02236e-10 5e-05 1.46608e-10 
50 1 0.0550542 0.0177213 0.0070956 0.00563823 -0.00025892 0.000502348 8.28426e-11 1.25179e-11 4.41325e-12 5e-05 1.46608e-10 
51 1 0.0550347 0.0176263 0.00712001 0.00543635 -0.000341244 -0.000102428 -1.263e-10 -3.02024e-10 -1.40908e-09 5e-05 1.46608e-10 
52 1 0.0488229 0.0167823 0.00760183 0.00619903 0.000642791 4.32182e-05 -1.52458e-10 -4.48371e-11 1.23722e-10 5e-05 1.46608e-10 
53 1 0.060958 0.0172823 0.00719952 0.00644809 0.000511889 -0.000211901 5.05005e-12 1.37082e-10 -1.10579e-10 5e-05 1.46608e-10 
54 1 0.0547829 0.016349 0.00805246 0.00562873 0.000233958 0.000876095 -1.03244e-10 6.93814e-10 -1.76864e-10 5e-05 1.46608e-10 
55 1 0.0486011 0.0160306 0.00837215 0.00567498 0.000684749 -8.1292e-05 2.26888e-11 2.56965e-11 -5.77268e-11 5e-05 1.46608e-10 
56 1 0.0549586 0.0169356 0.00741467 0.00607195 -0.000870439 -0.000681882 -8.02737e-10 -1.43032e-10 2.19978e-09 5e-05 1.46608e-10 
57 1 0.0608555 0.0169143 0.00752142 0.00613752 8.5276e-05 -0.000799911 3.22246e-10 -1.05067e-10 3.66158e-11 5e-05 1.46608e-10 
59 1 0.0550116 0.0167962 0.00749932 0.00598075 6.41202e-05 0.000668766 -4.45709e-11 2.62589e-10 4.0894e-11 5e-05 1.46608e-10 
60 1 0.0550339 0.0168773 0.0074452 0.00614409 -0.000289014 0.000175605 -2.78913e-10 -2.85334e-10 -6.46405e-11 5e-05 1.46608e-10 
61 1 0.0547243 0.0164364 0.00791598 0.00582044 0.000269748 0.000858071 1.73763e-10 2.06802e-10 8.82827e-11 5e-05 1.46608e-10 
62 1 0.0551422 0.017321 0.00724259 0.00611462 -0.000515329 -0.000119296 4.01649e-11 4.17189e-12 -1.17062e-10 5e-05 1.46608e-10 
63 1 0.0550889 0.0174739 0.00718404 0.00591237 -0.000698274 -0.000272681 1.95644e-09 -5.60358e-10 3.61914e-11 5e-05 1.46608e-10 
64 1 0.0609797 0.0173748 0.00716819 0.0064255 0.000490039 -0.000222941 7.45158e-11 1.79724e-10 2.37951e-12 5e-05 1.46608e-10 
65 1 0.0489377 0.0168823 0.00752164 0.00622216 0.000589176 0.000120071 -4.74892e-10 3.24608e-11 -1.07654e-10 5e-05 1.46608e-10 
66 1 0.0488696 0.0166926 0.0077423 0.00616191 0.000588551 2.99774e-05 -1.21548e-10 -1.13557e-10 1.99445e-10 5e-05 1.46608e-10 
67 1 0.0552408 0.0173505 0.00722492 0.00604249 -0.000282875 -0.000207482 4.29236e-11 1.07417e-10 -1.40659e-11 5e-05 1.46608e-10 
68 1 0.0552052 0.0175962 0.00714511 0.00547054 -0.000204328 0.000331648 -1.06755e-09 5.74929e-10 -6.10854e-10 5e-05 1.46608e-10 
69 1 0.0548722 0.0166491 0.00766522 0.00615989 0.000179196 0.000916681 1.25511e-10 2.69816e-10 2.43795e-11 5e-05 1.46608e-10 
70 1 0.0610395 0.0176684 0.00718117 0.00627443 0.00051258 -0.000204116 -2.0513e-11 -4.56955e-11 6.78948e-11 5e-05 1.46608e-10 
71 1 0.0485803 0.0159513 0.00842952 0.00555115 0.000707853 -9.40469e-05 -3.23744e-10 1.84588e-10 -1.84279e-10 5e-05 1.46608e-10 
72 1 0.0551842 0.0175005 0.00716503 0.00563039 -0.00030146 8.25507e-05 -5.49303e-10 5.15504e-10 -1.34685e-10 5e-05 1.46608e-10 
73 1 0.0548412 0.016821 0.00747206 0.00624832 -0.00046781 0.000807999 -1.09483e-10 -1.92161e-10 -1.45637e-09 5e-05 1.46608e-10 
74 1 0.0550455 0.0172937 0.00725923 0.00610797 -0.000654874 -7.64168e-05 -3.84558e-10 9.04251e-11 -2.52555e-10 5e-05 1.46608e-10 
76 1 0.0491678 0.0178418 0.00710967 0.00578049 0.00028404 -0.000316156 2.93051e-11 5.33349e-11 -3.96738e-11 5e-05 1.46608e-10 
77 1 0.055292 0.0184409 0.00713829 0.00572696 -0.000415083 0.000518913 -5.93757e-11 1.98608e-10 8.84854e-11 5e-05 1.46608e-10 
78 1 0.0486605 0.0162273 0.00815461 0.00584449 0.000697191 -5.01289e-05 -9.5382e-11 1.53747e-11 -5.07153e-11 5e-05 1.46608e-10 
79 1 0.0488645 0.0169264 0.00746975 0.00627893 0.000625214 7.99784e-05 -7.85491e-11 1.91597e-10 -1.79294e-10 5e-05 1.46608e-10 
80 1 0.0551163 0.0180172 0.00710985 0.00561889 -0.0003249 0.000503492 4.27876e-11 1.23254e-10 1.33424e-11 5e-05 1.46608e-10 
81 1 0.0488026 0.0167129 0.00767093 0.00616952 0.000650061 3.03864e-05 -2.05477e-10 -1.50012e-10 7.08883e-11 5e-05 1.46608e-10 
82 1 0.0489475 0.0172395 0.00724876 0.00636351 0.000213946 -0.000305121 -1.05325e-10 6.53039e-11 -1.23085e-11 5e-05 1.46608e-10 
83 1 0.048932 0.0165588 0.00784433 0.00607327 0.000610529 6.08003e-05 1.77493e-10 2.85403e-11 2.03957e-11 5e-05 1.46608e-10 
84 1 0.0610796 0.0178643 0.00718673 0.00614459 0.000553183 0.000240752 -5.22085e-12 2.98653e-11 3.14371e-11 5e-05 1.46608e-10 
85 1 0.0487557 0.0162547 0.00813719 0.00584444 0.000655067 -9.78328e-06 -1.45824e-10 9.56961e-11 -8.92431e-11 5e-05 1.46608e-10 
86 1 0.05511 0.0175664 0.00715247 0.00557722 -0.000641586 -0.000171842 1.3314e-10 -4.06085e-10 -6.77987e-10 5e-05 1.46608e-10 
87 1 0.0549872 0.0167239 0.00756403 0.00616962 0.000230849 0.00100656 2.0486e-10 7.91972e-11 -2.04932e-10 5e-05 1.46608e-10 
88 1 0.0551773 0.0183107 0.00712393 0.00575057 -0.000413574 0.000520463 7.64595e-11 2.12467e-10 2.24414e-12 5e-05 1.46608e-10 
89 1 0.0551367 0.0181151 0.00712372 0.00559191 -0.000354634 0.00048744 3.84236e-12 1.24964e-11 -2.69055e-10 5e-05 1.46608e-10 
90 1 0.0551979 0.0171286 0.00732049 0.00655022 0.00182047 -0.00111114 -1.85142e-10 6.31955e-11 -8.90342e-11 5e-05 1.46608e-10 
91 1 0.0488836 0.01699 0.007395 0.00634435 0.000612379 9.33671e-05 -9.38368e-11 2.24079e-11 -1.11229e-10 5e-05 1.46608e-10 
92 1 0.0552446 0.0177922 0.0071394 0.00558984 -0.000365536 0.000454614 -2.91415e-10 -1.68902e-10 -2.83509e-10 5e-05 1.46608e-10 
93 1 0.0552326 0.0181472 0.00712434 0.00559964 -0.000330626 0.000509369 7.7936e-11 1.00899e-10 -1.03386e-10 5e-05 1.46608e-10 
94 1 0.0553091 0.018083 0.00712958 0.00565645 -0.000355611 0.000515108 -1.75993e-11 -2.89276e-10 -3.36128e-11 5e-05 1.46608e-10 
95 1 0.0550957 0.0179194 0.00710514 0.00562274 -0.000330853 0.000514095 6.33047e-11 2.10724e-10 5.26127e-11 5e-05 1.46608e-10 
96 1 0.0552681 0.0178875 0.00712016 0.0056717 -0.000366143 0.000493001 -6.55075e-10 -1.99691e-10 -1.32257e-11 5e-05 1.46608e-10 
97 1 0.048762 0.0165742 0.00780912 0.00608462 0.000673093 6.03558e-06 -7.80401e-12 1.26171e-10 -1.31869e-10 5e-05 1.46608e-10 
98 1 0.055197 0.0184086 0.00712857 0.00569062 -0.00040715 0.000514424 1.96181e-11 -4.24805e-11 -2.50819e-12 5e-05 1.46608e-10 
99 1 0.0489111 0.0168308 0.0076031 0.00620026 0.000605721 0.000125744 -4.01307e-10 -1.57183e-10 -1.50808e-11 5e-05 1.46608e-10 
100 1 0.0551312 0.0169013 0.00741963 0.00606139 -0.000427701 -0.000149457 -6.20095e-10 5.82714e-10 -1.51329e-10 5e-05 1.46608e-10 
101 1 0.0488571 0.0166018 0.00779152 0.00609953 0.000628854 4.52008e-05 -4.98163e-10 8.76506e-11 -8.84745e-11 5e-05 1.46608e-10 
102 1 0.0643568 0.0187248 0.00531097 4.3646e-15 1.04445e-14 8.29616e-14 1.22905e-21 -8.14876e-22 2.91581e-23 5e-05 1.46608e-10 
103 1 0.24257 0.0191927 0.00520306 1.6328e-22 8.42091e-22 -1.2867e-21 0 -2.58494e-26 0 5e-05 1.46608e-10 
104 1 0.0491812 0.0174869 0.00717197 0.0058906 0.000437828 -0.000344673 4.07476e-10 -2.1737e-10 -2.1491e-11 5e-05 1.46608e-10 
105 1 0.0487214 0.0164354 0.00794731 0.00596585 0.000666599 -9.45073e-06 -1.64178e-10 -9.55003e-11 -2.24608e-11 5e-05 1.46608e-10 
106 1 0.0492556 0.01742 0.00718041 0.00591345 0.000567777 -0.000373434 -1.17018e-10 1.77092e-10 2.70734e-11 5e-05 1.46608e-10 
107 1 0.0486808 0.0162967 0.00808551 0.00589834 0.000685592 -3.34803e-05 3.35442e-11 2.92087e-11 2.03171e-11 5e-05 1.46608e-10 
108 1 0.0549154 0.0167593 0.00749854 0.00645715 -0.000149131 0.00159284 -6.14414e-10 8.31356e-10 -9.80115e-10 5e-05 1.46608e-10 
109 1 0.0550149 0.0175363 0.00715889 0.00527672 -0.000421476 -0.000479006 -4.67696e-09 5.40977e-09 1.24363e-08 5e-05 1.46608e-10 
110 1 0.0553444 0.0178218 0.00712533 0.0056759 -0.000280923 0.000516814 -5.46386e-12 -1.1137e-10 4.10878e-11 5e-05 1.46608e-10 
111 1 0.0552377 0.0186013 0.00713787 0.00639832 -0.000495293 0.000577948 -3.06036e-11 -1.80171e-10 3.48448e-12 5e-05 1.46608e-10 
112 1 0.0487823 0.0166436 0.00774002 0.00611475 0.000657651 1.80302e-05 -2.0041e-10 9.77375e-11 -1.04014e-10 5e-05 1.46608e-10 
113 1 0.0494658 0.0175771 0.00714291 0.00591415 0.000378007 -0.000338528 1.92306e-10 4.13481e-10 -7.68195e-11 5e-05 1.46608e-10 
114 1 0.0491187 0.0172097 0.00726113 0.00630899 0.000287104 -0.000241639 -7.62408e-11 3.1183e-10 3.32926e-10 5e-05 1.46608e-10 
115 1 0.0550672 0.0173833 0.00722042 0.00608076 -0.000585212 -9.92913e-05 4.62054e-11 -1.1269e-10 -2.95158e-10 5e-05 1.46608e-10 
116 1 0.0548901 0.0167075 0.00758126 0.00622664 4.34295e-05 0.00123852 8.12534e-10 -3.3338e-10 4.4723e-10 5e-05 1.46608e-10 
117 1 0.0547648 0.0162906 0.00813154 0.0055802 0.0002275 0.000868241 -9.75101e-10 3.30176e-10 -6.54946e-10 5e-05 1.46608e-10 
118 1 0.04862 0.0160885 0.0082928 0.00575626 0.000715345 -8.1218e-05 8.3548e-11 -9.73237e-11 1.25703e-10 5e-05 1.46608e-10 
119 1 0.0550555 0.0169633 0.00739908 0.00618387 -0.000454726 -0.000132954 2.55506e-10 -3.66813e-10 -1.44903e-10 5e-05 1.46608e-10 
120 1 0.0546312 0.0161462 0.00830794 0.0054979 0.000225077 0.000847754 1.34966e-12 3.16611e-10 -4.87793e-10 5e-05 1.46608e-10 
121 1 0.0545946 0.0160293 0.008466 0.00372632 0.000223243 0.000494495 1.39782e-10 3.64332e-10 -4.34122e-10 5e-05 1.46608e-10 
122 1 0.0553639 0.0179197 0.00712995 0.00567347 -0.000280864 0.000511731 2.2124e-10 -2.19333e-10 -7.16702e-12 5e-05 1.46608e-10 
123 1 0.0487961 0.0163935 0.00799896 0.00596263 0.000640293 1.86915e-05 6.78525e-11 -1.83388e-11 1.69094e-11 5e-05 1.46608e-10 
124 1 0.0551916 0.0179517 0.00711496 0.00565868 -0.000340876 0.000501685 -1.09726e-10 -2.36533e-11 -1.638e-10 5e-05 1.46608e-10 
125 1 0.0547452 0.0162321 0.00821028 0.00547403 0.000242236 0.000832627 -5.64552e-10 2.15644e-10 -3.93503e-10 5e-05 1.46608e-10 
126 1 0.0549716 0.0173572 0.00723653 0.00613061 -0.000582715 -0.000120278 -1.28085e-10 2.23007e-11 -2.62365e-11 5e-05 1.46608e-10 
127 1 0.0487417 0.0165048 0.00787822 0.00603978 0.000676096 -6.16817e-07 -6.16219e-11 1.13835e-10 -1.92613e-10 5e-05 1.46608e-10 
128 1 0.0550751 0.0178211 0.00710041 0.00560914 -0.000390217 0.000513254 -3.02823e-10 -1.04175e-09 -1.63686e-10 5e-05 1.46608e-10 
129 1 0.0551573 0.0182128 0.00711927 0.00557935 -0.000361681 0.000503597 -9.07916e-11 1.67673e-10 -1.26478e-10 5e-05 1.46608e-10 
130 1 0.0490439 0.0172667 0.00722711 0.00632185 3.30595e-05 -0.000689472 -5.70316e-10 -2.6045e-10 2.63487e-10 5e-05 1.46608e-10 
131 1 0.0488894 0.0167627 0.00767383 0.00618683 0.00054718 2.6591e-05 -5.87309e-10 2.49704e-11 4.88558e-10 5e-05 1.46608e-10 
132 1 0.0551711 0.0178539 0.00711044 0.00564194 -0.000353532 0.000494041 -3.38773e-10 -2.12155e-10 -1.60673e-10 5e-05 1.46608e-10 
133 1 0.0549185 0.0164902 0.0078811 0.00580523 0.00018503 0.000963017 4.72394e-10 2.01707e-10 -4.24712e-10 5e-05 1.46608e-10 
134 1 0.0550771 0.0170525 0.00735934 0.006213 -0.000505204 -0.000199545 -1.61904e-10 -2.52674e-10 -2.60953e-10 5e-05 1.46608e-10 
135 1 0.0547254 0.0161737 0.00828898 0.00551347 0.000255502 0.000825967 1.04505e-10 -1.25157e-10 -2.85989e-10 5e-05 1.46608e-10 
136 1 0.0487352 0.0161854 0.00820625 0.00581875 0.000661567 -1.66875e-05 1.20747e-11 9.0451e-11 -9.09437e-11 5e-05 1.46608e-10 
137 1 0.0552616 0.0186983 0.00714287 0.00622345 -0.000441823 0.000562166 -7.58111e-11 -1.67111e-10 -3.45538e-12 5e-05 1.46608e-10 
138 1 0.0548541 0.0165888 0.00774296 0.00605197 0.000233026 0.000951593 3.91915e-10 9.84363e-11 7.76262e-10 5e-05 1.46608e-10 
140 1 0.0554036 0.0181144 0.00713921 0.00569683 -0.000476667 0.000512533 1.2658e-11 -1.50872e-10 -3.85939e-12 5e-05 1.46608e-10 
141 1 0.0487758 0.0163241 0.00806805 0.00589063 0.00064843 4.39102e-07 6.48359e-11 -4.73005e-11 1.43026e-11 5e-05 1.46608e-10 
142 1 0.0491399 0.0172959 0.00721504 0.00635229 -6.70499e-05 -0.000923922 1.50169e-10 -3.7558e-11 -8.16085e-10 5e-05 1.46608e-10 
143 1 0.0487011 0.0163661 0.00801641 0.00592896 0.000668517 -1.80506e-05 1.51709e-10 -6.17817e-12 2.67123e-11 5e-05 1.46608e-10 
144 1 0.0490941 0.0171311 0.00731785 0.00620607 0.000544032 8.21875e-05 5.41176e-10 1.8667e-10 7.04974e-10 5e-05 1.46608e-10 
146 1 0.0489522 0.0166281 0.00777522 0.00611947 0.000606557 6.92892e-05 1.84849e-11 -1.58595e-11 4.41297e-11 5e-05 1.46608e-10 
147 1 0.0487153 0.016116 0.00827542 0.00576222 0.000667059 -3.13583e-05 6.30524e-11 -1.0898e-12 2.22718e-12 5e-05 1.46608e-10 
148 1 0.0490116 0.0175231 0.00717567 0.00598422 0.000192841 -0.000672373 2.6006e-10 -4.484e-12 9.61855e-11 5e-05 1.46608e-10 
149 1 0.055329 0.0181809 0.00713423 0.00577963 -0.000388256 0.000524083 1.00732e-10 -2.05327e-10 2.32023e-11 5e-05 1.46608e-10 
150 1 0.0489815 0.0167675 0.00763514 0.00618383 0.000583063 9.16726e-05 -4.13279e-10 -1.23e-10 6.8256e-11 5e-05 1.46608e-10 
151 1 0.0493296 0.0173533 0.00718884 0.00615552 0.000859189 -0.000436557 -3.45461e-10 -1.15233e-10 3.6019e-11 5e-05 1.46608e-10 
153 1 0.0488368 0.0165324 0.00786062 0.00600923 0.00062457 4.03115e-05 -1.98227e-10 1.09501e-11 4.66166e-11 5e-05 1.46608e-10 
154 1 0.0491069 0.0175535 0.00716564 0.00572679 0.00027592 -0.00032773 -8.25591e-12 -3.73994e-11 -6.61309e-11 5e-05 1.46608e-10 
155 1 0.0491882 0.0179381 0.00709167 0.00578732 0.000291016 -0.000316496 -6.39098e-12 8.54089e-11 -2.08578e-11 5e-05 1.46608e-10 
156 1 0.0490865 0.0174574 0.00718451 0.00595482 0.000177251 -0.000536185 2.72049e-10 -1.55095e-10 -8.53758e-11 5e-05 1.46608e-10 
157 1 0.0219312 0.0187687 0.00551176 -3.82768e-14 8.169e-14 2.95888e-13 4.5389e-22 3.89602e-22 -3.26736e-23 5e-05 1.46608e-10 
158 1 0.0492016 0.0175832 0.00715395 0.00574484 0.000269342 -0.00030666 -7.02725e-11 3.7235e-11 -1.42756e-11 5e-05 1.46608e-10 
159 1 0.0552234 0.0176945 0.0071374 0.00550128 -0.000355057 0.000480507 -6.18792e-10 1.19637e-10 -2.42232e-12 5e-05 1.46608e-10 
160 1 0.0490929 0.0179076 0.00710145 0.00578041 0.000297831 -0.000318416 1.3291e-12 1.32788e-10 -2.55327e-11 5e-05 1.46608e-10 
162 1 0.049127 0.0176494 0.00714565 0.0057518 0.000281362 -0.000309202 -1.27841e-10 1.59929e-11 3.78543e-11 5e-05 1.46608e-10 
164 1 0.0493441 0.0182574 0.00702792 0.00579218 0.000288763 -0.000317151 2.33057e-10 -1.06028e-10 6.61675e-12 5e-05 1.46608e-10 
165 1 0.0493914 0.0176434 0.00713458 0.00576334 0.000240828 -0.000307692 6.69792e-11 8.3635e-11 -1.35953e-11 5e-05 1.46608e-10 
166 1 0.0548789 0.0163733 0.00803848 0.00563044 0.000189045 0.000916389 -6.845e-10 4.08702e-10 -8.91323e-10 5e-05 1.46608e-10 
167 1 0.048962 0.016698 0.00770438 0.00617066 0.000600175 7.78203e-05 -3.24478e-10 -9.98244e-11 4.57341e-11 5e-05 1.46608e-10 
168 1 0.0492761 0.017517 0.00716228 0.00588685 0.00043481 -0.000344793 2.92661e-10 -7.09599e-11 7.71362e-13 5e-05 1.46608e-10 
169 1 0.0494863 0.0176734 0.0071249 0.00577175 0.000245364 -0.000308708 3.6692e-11 -9.96189e-11 2.25828e-11 5e-05 1.46608e-10 
170 1 0.0493169 0.0177095 0.00712628 0.00577002 0.000259125 -0.000310614 9.52575e-11 2.19376e-11 -3.63251e-12 5e-05 1.46608e-10 
171 1 0.0549001 0.0164317 0.00796012 0.00573653 0.000181777 0.000933059 7.20334e-11 2.84644e-10 -3.60491e-10 5e-05 1.46608e-10 
172 1 0.049371 0.0175469 0.00715261 0.00589497 0.000419096 -0.000344885 2.20966e-10 6.78401e-11 -7.0793e-12 5e-05 1.46608e-10 
173 1 0.0552905 0.0171614 0.00730178 0.00471357 0.00614793 -0.00283629 -3.04523e-10 1.85105e-11 -2.99047e-11 5e-05 1.46608e-10 
174 1 0.0492424 0.0177757 0.00711797 0.00577669 0.000272583 -0.000313352 5.07287e-11 1.49662e-11 -6.83825e-12 5e-05 1.46608e-10 
175 1 0.0429216 0.0171872 0.0074286 0.00592224 -0.000591763 0.000447357 -8.05325e-13 -3.69526e-12 1.21148e-12 5e-05 1.46608e-10 
176 1 0.0490654 0.0173616 0.00720357 0.00636873 -1.27195e-06 -0.000960764 -3.17835e-12 -2.27883e-10 -4.7881e-10 5e-05 1.46608e-10 
177 1 0.0491338 0.0181001 0.00706545 0.00581756 0.000321535 -0.000323904 3.52841e-11 1.35979e-10 -2.13228e-11 5e-05 1.46608e-10 
178 1 0.0494452 0.0174805 0.00716099 0.00596318 0.000481185 -0.0003586 -2.31416e-10 -3.34461e-10 7.10061e-11 5e-05 1.46608e-10 
179 1 0.0494322 0.0178358 0.0070986 0.00577256 0.000245532 -0.000308915 1.08826e-10 2.19069e-10 -2.9562e-11 5e-05 1.46608e-10 
181 1 0.0490521 0.0177151 0.00713743 0.00575601 0.000314597 -0.000321606 4.48112e-11 2.27339e-10 -6.99271e-11 5e-05 1.46608e-10 
182 1 0.0548372 0.0165234 0.00781665 0.00573929 0.000267908 0.000914794 -9.65021e-10 -2.54886e-10 2.77975e-10 5e-05 1.46608e-10 
183 1 0.0492966 0.0176132 0.00714428 0.00575384 0.000261243 -0.000309764 2.6486e-11 -8.66404e-11 3.4862e-11 5e-05 1.46608e-10 
184 1 0.0551532 0.0177386 0.00720399 0.00562626 -0.000364965 0.000526599 1.98177e-10 2.80941e-11 1.47155e-10 5e-05 1.46608e-10 
185 1 0.0489906 0.0174274 0.00719591 0.00635507 3.84747e-05 -0.000935654 4.28105e-11 -3.48883e-11 1.20379e-10 5e-05 1.46608e-10 
186 1 0.0490318 0.0176189 0.00715543 0.00567626 0.00034097 -0.000315576 3.50571e-11 2.42368e-10 1.64441e-10 5e-05 1.46608e-10 
187 1 0.0551085 0.0168132 0.00746327 0.00601427 -0.000130642 0.00148696 -3.88598e-10 -1.2318e-10 -4.24683e-10 5e-05 1.46608e-10 
188 1 0.0552526 0.0182451 0.00712901 0.00577784 -0.000396304 0.000524104 1.64567e-10 8.75873e-11 -4.57977e-12 5e-05 1.46608e-10 
189 1 0.0551535 0.0169916 0.00738049 0.00620127 -0.000491709 -0.000128293 -2.03339e-10 -1.55074e-11 5.4564e-11 5e-05 1.46608e-10 
190 1 0.0430241 0.0172253 0.00741976 0.00591551 -0.000580542 0.000443227 -2.27027e-12 -1.77202e-12 5.32547e-13 5e-05 1.46608e-10 
191 1 0.0552846 0.0187955 0.00714779 0.00623577 -0.00043668 0.000564676 -7.27469e-11 -1.97413e-10 -2.56547e-11 5e-05 1.46608e-10 
192 1 0.0492086 0.0172233 0.00721954 0.0063359 -0.000138463 -0.000645829 -1.11154e-11 -1.00302e-10 -4.96123e-10 5e-05 1.46608e-10 
193 1 0.0549683 0.0166674 0.0076443 0.0062161 0.000178349 0.00103203 2.32292e-10 -1.29066e-10 -1.93502e-10 5e-05 1.46608e-10 
194 1 0.0490326 0.0169048 0.00749958 0.00623454 0.000553285 0.000144087 -3.27996e-10 -3.67133e-11 1.85102e-11 5e-05 1.46608e-10 
195 1 0.0494118 0.0177396 0.00711659 0.00576999 0.000244181 -0.000307754 1.13586e-10 1.26797e-10 -3.91476e-11 5e-05 1.46608e-10 
196 1 0.048519 0.0157431 0.00863687 0.00504821 0.00071313 -0.00016137 -5.66088e-10 6.36606e-10 -7.37773e-10 5e-05 1.46608e-10 
197 1 0.0429865 0.0174651 0.00733594 0.00588325 -0.0005831 0.000442769 -1.68479e-12 -1.00891e-11 3.20468e-12 5e-05 1.46608e-10 
198 1 0.0489041 0.0170601 0.00732519 0.0063449 0.000441519 0.000264832 8.06049e-11 3.85335e-10 -2.63416e-10 5e-05 1.46608e-10 
199 1 0.0491475 0.0177456 0.00712769 0.00577672 0.000277608 -0.000318709 2.41695e-11 -8.64553e-11 -9.80968e-12 5e-05 1.46608e-10 
200 1 0.049 0.0170868 0.0073086 0.00643753 0.000480649 0.000239459 6.7032e-11 3.19036e-10 -1.60531e-10 5e-05 1.46608e-10 
201 1 0.0494387 0.0182883 0.0070181 0.00576588 0.000369019 -0.000330015 -5.92702e-11 1.74307e-11 8.99964e-13 5e-05 1.46608e-10 
202 1 0.0492346 0.0173237 0.00719845 0.00625103 0.000566448 -0.000386127 -6.55234e-11 -9.05629e-11 -1.02598e-10 5e-05 1.46608e-10 
203 1 0.0553571 0.0174703 0.00716835 0.00559625 -0.000599837 -4.37635e-05 -5.49314e-10 5.3668e-10 -3.46725e-10 5e-05 1.46608e-10 
204 1 0.0489781 0.0170176 0.00737735 0.00640785 0.000485309 0.000232893 -2.05692e-10 2.21998e-10 -2.20838e-10 5e-05 1.46608e-10 
205 1 0.0493035 0.0180644 0.00706399 0.00581389 0.000284101 -0.000316706 6.35498e-11 2.14747e-10 -5.16094e-11 5e-05 1.46608e-10 
206 1 0.0492628 0.0178719 0.00709997 0.00578325 0.000277448 -0.000314394 1.70809e-11 1.06954e-10 -3.84482e-11 5e-05 1.46608e-10 
207 1 0.0488164 0.0164629 0.00792986 0.00601404 0.000635755 3.28593e-05 -1.22403e-10 3.83804e-11 -3.54978e-11 5e-05 1.46608e-10 
208 1 0.049222 0.0176795 0.00713596 0.00576331 0.000269342 -0.000311685 1.09626e-10 -8.47245e-12 5.88759e-12 5e-05 1.46608e-10 
209 1 0.0490129 0.0168354 0.0075688 0.00613415 0.000578032 0.000102806 1.20321e-09 -1.2907e-10 2.88233e-10 5e-05 1.46608e-10 
210 1 0.0549658 0.0171116 0.00743001 0.00603592 -0.000737644 9.98829e-06 -9.80136e-11 -2.34853e-10 6.40319e-10 5e-05 1.46608e-10 
211 1 0.0552886 0.0179852 0.00712487 0.00561389 -0.000344948 0.000500296 4.96938e-10 -4.46424e-10 -3.6179e-11 5e-05 1.46608e-10 
212 1 0.0493373 0.0178058 0.00710828 0.00577553 0.000260288 -0.000310704 9.9282e-11 1.31562e-10 -1.60107e-11 5e-05 1.46608e-10 
213 1 0.0550851 0.0167495 0.00754858 0.00598603 0.00031049 0.000777559 1.01448e-10 3.10044e-10 3.51668e-10 5e-05 1.46608e-10 
214 1 0.0552121 0.0180494 0.00711964 0.0056302 -0.000334521 0.000508952 1.57671e-10 1.28857e-10 5.52239e-11 5e-05 1.46608e-10 
215 1 0.0429976 0.0171267 0.00745249 0.00593063 -0.000582315 0.000444462 3.21234e-12 1.15389e-12 -2.84226e-13 5e-05 1.46608e-10 
216 1 0.0491133 0.0180038 0.00708345 0.00579461 0.000291337 -0.000317752 -6.58619e-11 7.08084e-11 -1.61119e-11 5e-05 1.46608e-10 
217 1 0.0549331 0.0165486 0.00780129 0.00589603 0.000187128 0.000988412 -4.62139e-10 2.74527e-10 -3.66093e-10 5e-05 1.46608e-10 
218 1 0.049229 0.0181305 0.00705569 0.00582614 0.000298665 -0.000320604 1.04511e-10 1.94372e-10 -3.21498e-11 5e-05 1.46608e-10 
219 1 0.0552158 0.0185045 0.00715013 0.00576068 -0.000372052 0.000489318 -2.94435e-10 -1.08063e-10 -8.80389e-11 5e-05 1.46608e-10 
220 1 0.0490725 0.0178114 0.00711944 0.00577298 0.000302596 -0.000317956 1.11066e-10 2.22479e-10 -4.96457e-11 5e-05 1.46608e-10 
221 1 0.0428907 0.0166651 0.00760648 0.0059972 -0.000595385 0.000451677 8.23949e-12 9.22398e-12 -3.33463e-12 5e-05 1.46608e-10 
222 1 0.0549502 0.016608 0.00772266 0.00604679 0.000178274 0.00101007 -4.7878e-10 9.92733e-12 -3.83692e-10 5e-05 1.46608e-10 
223 1 0.0491605 0.0173905 0.00719001 0.00601092 0.00025778 -0.000320533 2.15481e-10 -1.67955e-10 4.41507e-11 5e-05 1.46608e-10 
224 1 0.0489691 0.0173327 0.00721985 0.00635885 8.36368e-05 -0.000723555 -6.2695e-10 1.45097e-12 4.36718e-11 5e-05 1.46608e-10 
225 1 0.0552833 0.0175338 0.00714562 0.00568232 -0.000433692 8.46753e-05 -1.43086e-10 -3.97293e-10 -9.49552e-10 5e-05 1.46608e-10 
226 1 0.0493504 0.0174501 0.00717072 0.00588365 0.000689134 -0.000393132 -3.57209e-10 2.82324e-10 -5.16858e-11 5e-05 1.46608e-10 
227 1 0.043015 0.016796 0.00756671 0.00597042 -0.000588974 0.000448386 1.32766e-11 1.13448e-11 -3.24398e-12 5e-05 1.46608e-10 
228 1 0.0429432 0.0172799 0.00739772 0.00590934 -0.000588725 0.000445774 -2.42688e-12 -5.249e-12 1.69173e-12 5e-05 1.46608e-10 
229 1 0.0490118 0.0172627 0.00732174 0.00657136 0.000488136 -0.000577026 -1.76756e-10 -6.69732e-11 2.12644e-10 5e-05 1.46608e-10 
230 1 0.0493835 0.0184509 0.0069918 0.00571206 0.000372426 -0.000328073 -2.42399e-10 -1.61212e-10 3.61459e-11 5e-05 1.46608e-10 
231 1 0.0429 0.0170946 0.00745949 0.00593526 -0.000594744 0.000448915 -5.07766e-13 -2.72883e-12 9.87461e-13 5e-05 1.46608e-10 
232 1 0.0489114 0.0164894 0.00791336 0.00602613 0.000610714 5.75493e-05 1.23154e-10 2.2461e-11 7.63568e-12 5e-05 1.46608e-10 
233 1 0.0490546 0.0169741 0.00743084 0.00632364 0.000539486 0.000164761 -3.90537e-11 -1.11641e-10 1.24911e-10 5e-05 1.46608e-10 
234 1 0.0552725 0.018343 0.00713366 0.00572098 -0.000401506 0.000516843 1.58291e-10 1.38048e-10 9.84547e-12 5e-05 1.46608e-10 
235 1 0.049422 0.0186445 0.00695572 0.00566078 0.000424284 -0.000335097 -7.44052e-11 -4.87884e-11 1.48266e-11 5e-05 1.46608e-10 
236 1 0.0494028 0.0185476 0.00697377 0.00568532 0.000402277 -0.000332157 -1.20396e-10 -3.52175e-11 1.30841e-11 5e-05 1.46608e-10 
237 1 0.049478 0.0184821 0.00698194 0.00570579 0.000430864 -0.00033834 -2.68342e-10 -1.66852e-10 4.2087e-11 5e-05 1.46608e-10 
239 1 0.0427115 0.0162935 0.007785 0.00550607 -0.000535558 0.000408405 -6.00165e-11 -2.32519e-12 -1.53081e-11 5e-05 1.46608e-10 
240 1 0.0427703 0.0165389 0.00764481 0.00601195 -0.000614434 0.000458884 -1.12029e-11 -1.12158e-11 1.79303e-12 5e-05 1.46608e-10 
241 1 0.0426909 0.0162352 0.00786359 0.00548045 -0.000530736 0.000403629 7.1546e-13 -1.62869e-12 2.21899e-11 5e-05 1.46608e-10 
242 1 0.0491729 0.0170684 0.00734717 0.00635879 0.00044274 0.000267251 -1.24491e-10 -3.39599e-10 3.30997e-10 5e-05 1.46608e-10 
243 1 0.048959 0.0169538 0.00745201 0.00634686 0.000489813 0.000223818 1.95685e-10 6.50797e-12 8.25437e-11 5e-05 1.46608e-10 
244 1 0.0427295 0.0163532 0.00770684 0.0055296 -0.000534286 0.000411381 1.95739e-11 3.0624e-11 -3.13588e-11 5e-05 1.46608e-10 
246 1 0.0428567 0.0169094 0.00752126 0.0059611 -0.000600606 0.00045201 1.01551e-12 -3.30316e-13 3.54366e-13 5e-05 1.46608e-10 