ITEM: TIMESTEP
10000000
ITEM: NUMBER OF ATOMS
287
ITEM: BOX BOUNDS ff ff ff
-0.02 0.43
-0.02 0.06
-0.02 0.07
ITEM: ATOMS id type x y z vx vy vz fx fy fz radius mass 
1 1 0.0710823 0.0161616 0.00807277 0.00573075 0.000146376 6.95534e-05 -3.10858e-10 1.70264e-10 -1.52412e-10 5e-05 1.46608e-10 
2 1 0.0714858 0.0170471 0.00734462 0.00560753 -3.13685e-05 1.67675e-05 -1.37696e-10 -2.054e-11 -3.28611e-11 5e-05 1.46608e-10 
3 1 0.064952 0.0160065 0.00819241 0.00574678 1.7747e-05 -0.000131971 -6.52305e-11 -2.74915e-10 2.07621e-10 5e-05 1.46608e-10 
4 1 0.0713935 0.0174309 0.00722489 0.00604591 -5.68513e-05 2.0413e-05 1.04347e-10 -5.55608e-11 1.11253e-10 5e-05 1.46608e-10 
5 1 0.0709663 0.0160584 0.00815153 0.00573792 0.000144223 7.25231e-05 -3.54795e-11 2.18177e-11 3.23655e-11 5e-05 1.46608e-10 
6 1 0.0771037 0.0165531 0.00765766 0.00565578 0.000602758 -0.000221576 -3.0685e-12 7.10076e-13 -1.54322e-12 5e-05 1.46608e-10 
7 1 0.0711425 0.0167444 0.00759641 0.00555125 6.66891e-05 -6.73692e-05 -8.07934e-12 -8.68828e-11 9.78999e-11 5e-05 1.46608e-10 
8 1 0.0708635 0.0156746 0.00845512 0.00567458 0.000130148 8.12647e-05 -4.36445e-11 -6.98463e-11 5.58468e-11 5e-05 1.46608e-10 
9 1 0.0773586 0.0176726 0.00708587 0.00632219 0.000465312 -0.000342272 1.06275e-11 5.93793e-11 2.27148e-12 5e-05 1.46608e-10 
10 1 0.071085 0.0165184 0.00778508 0.00546561 9.77065e-05 -8.96757e-05 -8.4045e-11 -3.72339e-11 -1.65539e-10 5e-05 1.46608e-10 
11 1 0.0715219 0.0171985 0.0072189 0.00568252 -0.000170087 0.000116752 1.02138e-10 -5.73886e-10 6.69031e-10 5e-05 1.46608e-10 
12 1 0.06515 0.0168098 0.00763074 0.00549762 7.42144e-05 -0.000177524 -1.16372e-10 3.79996e-10 -2.06242e-10 5e-05 1.46608e-10 
13 1 0.0709456 0.0159816 0.00821223 0.00572386 0.000151677 6.50725e-05 3.12961e-11 3.69503e-11 -2.58585e-11 5e-05 1.46608e-10 
14 1 0.0648697 0.0156857 0.00841676 0.00575438 8.75222e-05 -0.000179382 5.94803e-11 2.84854e-10 -1.8866e-10 5e-05 1.46608e-10 
15 1 0.0712754 0.0169203 0.00745021 0.00565277 2.9509e-05 -3.52795e-05 -2.01876e-11 8.32503e-12 4.39494e-11 5e-05 1.46608e-10 
16 1 0.0648491 0.0156055 0.00847285 0.00575182 7.20732e-05 -0.000168546 7.47763e-11 2.77531e-10 -1.97417e-10 5e-05 1.46608e-10 
17 1 0.0710658 0.0164424 0.00784721 0.00543704 0.000137836 -5.9124e-05 1.25135e-11 7.58011e-11 -2.06657e-10 5e-05 1.46608e-10 
18 1 0.0772407 0.0171423 0.00730544 0.00577202 0.0006259 -0.0002326 -4.55137e-11 -6.76886e-11 4.0606e-11 5e-05 1.46608e-10 
19 1 0.0709251 0.0159049 0.00827296 0.0057218 0.000148277 6.74817e-05 -1.01757e-10 6.35407e-11 -4.75545e-11 5e-05 1.46608e-10 
21 1 0.0710617 0.0160848 0.00813352 0.00576393 0.000137014 7.8755e-05 -6.21276e-11 -5.88071e-11 6.80899e-11 5e-05 1.46608e-10 
22 1 0.0711808 0.0168954 0.00747104 0.00565726 4.97724e-05 -5.18396e-05 1.69658e-10 2.29928e-12 1.93033e-12 5e-05 1.46608e-10 
23 1 0.0653245 0.0171566 0.00738638 0.00602949 -8.01924e-05 -6.57308e-05 -6.67332e-10 3.50283e-10 -2.15899e-10 5e-05 1.46608e-10 
24 1 0.0772994 0.0173937 0.00715512 0.00577995 0.000617241 -0.000225981 -1.82458e-10 5.51357e-11 -3.09883e-11 5e-05 1.46608e-10 
25 1 0.0711233 0.0166689 0.00765909 0.00553274 7.53737e-05 -6.87339e-05 -5.66834e-12 -9.34387e-11 4.14764e-11 5e-05 1.46608e-10 
26 1 0.0771818 0.0168898 0.00745637 0.00574051 0.000619517 -0.000228729 -1.07819e-10 3.55255e-11 -2.53081e-11 5e-05 1.46608e-10 
27 1 0.0652292 0.0171314 0.00740658 0.00594215 4.48397e-07 -0.000139272 -1.4571e-10 1.51593e-10 -1.62777e-10 5e-05 1.46608e-10 
28 1 0.0713737 0.0173329 0.00722223 0.00587613 -3.87241e-05 2.04915e-05 -1.32562e-10 1.20076e-10 1.21212e-11 5e-05 1.46608e-10 
29 1 0.0709046 0.0158281 0.00833368 0.00570181 0.000146585 6.91338e-05 -4.86351e-11 1.22093e-11 -4.42764e-12 5e-05 1.46608e-10 
30 1 0.0714088 0.0170962 0.00730398 0.00561762 -2.6134e-05 -5.93617e-06 4.28988e-11 2.37869e-11 -9.56119e-11 5e-05 1.46608e-10 
31 1 0.0711617 0.0168199 0.00753373 0.00560211 6.26478e-05 -6.38418e-05 -2.59658e-11 -7.61173e-11 5.86989e-11 5e-05 1.46608e-10 
32 1 0.0712562 0.0168455 0.00751373 0.00562129 3.47892e-05 -3.93534e-05 -1.06759e-10 -7.05544e-11 5.0148e-11 5e-05 1.46608e-10 
33 1 0.0771232 0.0166373 0.00760733 0.0056708 0.000608376 -0.000224341 -1.53854e-11 4.54802e-11 -2.69085e-11 5e-05 1.46608e-10 
34 1 0.0710466 0.0163656 0.00790837 0.00540606 0.000204214 1.73919e-05 -1.08435e-10 2.34061e-10 -2.16317e-10 5e-05 1.46608e-10 
35 1 0.0712371 0.0167693 0.00757558 0.00556659 5.0386e-05 -5.09521e-05 -1.07122e-10 -8.2239e-11 9.70913e-11 5e-05 1.46608e-10 
36 1 0.0774017 0.0178678 0.00708003 0.00629098 0.000461595 -0.000342405 -5.918e-12 1.03069e-10 1.27511e-12 5e-05 1.46608e-10 
37 1 0.0711988 0.0166182 0.00770095 0.00550632 6.15612e-05 -6.63881e-05 -4.5701e-11 -7.17705e-11 -1.24646e-10 5e-05 1.46608e-10 
38 1 0.0713509 0.0168698 0.00749199 0.00562562 -1.21075e-06 -1.22261e-05 -4.90205e-11 -5.14796e-11 4.48744e-11 5e-05 1.46608e-10 
39 1 0.0773186 0.017478 0.00710476 0.00580605 0.000605034 -0.000222326 2.5063e-11 2.51476e-11 -3.95642e-11 5e-05 1.46608e-10 
41 1 0.0710072 0.0162119 0.00803006 0.00574676 0.000136726 7.32917e-05 6.79546e-11 2.09115e-10 -2.12954e-10 5e-05 1.46608e-10 
42 1 0.0712 0.0169709 0.00740836 0.00565909 3.99547e-05 -4.33528e-05 8.27739e-11 4.67963e-11 -2.92667e-11 5e-05 1.46608e-10 
44 1 0.0713701 0.0169453 0.0074293 0.00562332 -8.38864e-06 -4.38618e-06 7.62703e-12 -1.92686e-12 1.44168e-11 5e-05 1.46608e-10 
45 1 0.0771426 0.0167215 0.007557 0.00568358 0.000614745 -0.000228003 -1.67558e-10 7.09646e-11 -4.46433e-11 5e-05 1.46608e-10 
46 1 0.0772209 0.0170581 0.00735573 0.00575763 0.000620848 -0.000230124 4.17116e-11 -3.36838e-11 2.66751e-11 5e-05 1.46608e-10 
47 1 0.071027 0.0162888 0.00796923 0.00554826 0.00018002 4.42838e-05 1.71233e-10 3.00998e-10 -7.84943e-11 5e-05 1.46608e-10 
48 1 0.0712385 0.0171224 0.0072826 0.0056633 1.428e-05 -3.01151e-05 -1.15284e-10 -1.47426e-10 8.98344e-11 5e-05 1.46608e-10 
49 1 0.0772014 0.016974 0.00740605 0.00575103 0.000618634 -0.000228245 7.701e-11 4.30795e-11 -1.16858e-11 5e-05 1.46608e-10 
50 1 0.0712936 0.017395 0.00722375 0.00610627 -5.36189e-05 9.58707e-06 -5.30344e-12 4.69744e-10 9.10566e-11 5e-05 1.46608e-10 
51 1 0.0712752 0.0172968 0.00722141 0.00565986 1.54133e-05 -6.6296e-06 -8.19375e-11 3.41877e-10 9.46395e-11 5e-05 1.46608e-10 
52 1 0.0651308 0.0167293 0.00768697 0.00543882 7.82528e-05 -0.000167187 -3.51393e-10 2.61459e-10 -1.49961e-10 5e-05 1.46608e-10 
53 1 0.0772601 0.0172265 0.0072551 0.00577857 0.000627806 -0.0002333 -3.48653e-11 -6.30791e-11 3.28729e-11 5e-05 1.46608e-10 
54 1 0.0710411 0.0160078 0.00819443 0.00571888 0.000140465 7.43194e-05 4.20469e-13 -8.90406e-11 4.24865e-11 5e-05 1.46608e-10 
55 1 0.0649108 0.0158461 0.00830458 0.00575858 9.34398e-05 -0.000183792 -1.0104e-10 -2.59491e-10 1.81645e-10 5e-05 1.46608e-10 
56 1 0.0712179 0.0166938 0.00763826 0.0055182 5.9986e-05 -5.83855e-05 -1.14882e-10 -6.96934e-11 1.92682e-11 5e-05 1.46608e-10 
57 1 0.0771622 0.0168056 0.00750668 0.00572574 0.000615873 -0.000227489 -4.86204e-11 -1.13686e-11 -1.23198e-11 5e-05 1.46608e-10 
59 1 0.0712743 0.0165677 0.00774274 0.00548733 2.21083e-05 -2.80751e-05 -1.10379e-10 3.92509e-12 -6.81197e-11 5e-05 1.46608e-10 
60 1 0.0712934 0.0166432 0.00768004 0.00551261 1.77169e-05 -2.44736e-05 4.89912e-11 -2.30509e-11 1.81163e-11 5e-05 1.46608e-10 
61 1 0.0709867 0.0161351 0.00809078 0.00574735 0.000134632 7.88264e-05 -1.19764e-10 4.17208e-11 -8.18696e-11 5e-05 1.46608e-10 
62 1 0.0713892 0.0170208 0.00736661 0.00561293 -1.98382e-05 -2.60838e-06 -7.02388e-11 6.94282e-11 4.33738e-11 5e-05 1.46608e-10 
63 1 0.0713333 0.0171469 0.00726232 0.00565014 -3.93338e-06 -1.2606e-05 -1.71441e-12 4.76097e-11 6.06021e-11 5e-05 1.46608e-10 
64 1 0.0772905 0.0173084 0.00720643 0.00577764 0.000623711 -0.000231388 -9.77851e-11 1.08662e-11 -7.2303e-12 5e-05 1.46608e-10 
65 1 0.0652453 0.0168353 0.00761104 0.00569638 -7.96622e-05 -6.1615e-05 -3.02947e-10 -8.35915e-11 7.30691e-11 5e-05 1.46608e-10 
66 1 0.0651863 0.0165942 0.00777959 0.0053916 -4.3392e-05 -8.15355e-05 -3.94792e-10 -4.63001e-11 5.0109e-11 5e-05 1.46608e-10 
67 1 0.0715052 0.0171226 0.00728196 0.00561415 -4.606e-05 2.27096e-05 6.60665e-11 -1.28158e-10 -4.77071e-11 5e-05 1.46608e-10 
68 1 0.0714493 0.0172673 0.00722061 0.00578114 -6.50837e-05 1.89635e-05 2.66917e-10 1.92888e-12 1.06215e-10 5e-05 1.46608e-10 
69 1 0.0711412 0.0163917 0.00788902 0.00543303 0.000112079 -1.0579e-05 2.41502e-10 -1.69519e-10 -9.87868e-11 5e-05 1.46608e-10 
70 1 0.0773388 0.0175746 0.00708872 0.0061022 0.000517207 -0.00032491 -7.21963e-11 6.73148e-11 2.15791e-10 5e-05 1.46608e-10 
71 1 0.0648902 0.0157659 0.00836067 0.00575719 0.000104984 -0.000191106 6.86484e-11 2.75636e-10 -1.76022e-10 5e-05 1.46608e-10 
72 1 0.0714282 0.0171717 0.00724131 0.00566154 -2.80201e-05 9.74746e-06 3.05929e-10 -3.74522e-11 -2.61364e-11 5e-05 1.46608e-10 
73 1 0.0711042 0.0165941 0.00772265 0.00550847 8.65775e-05 -6.72841e-05 -2.60845e-11 -1.76052e-10 -1.92941e-10 5e-05 1.46608e-10 
74 1 0.0712946 0.0169962 0.00738797 0.00563361 8.85079e-06 -1.90734e-05 4.86749e-11 8.69057e-11 -3.90288e-11 5e-05 1.46608e-10 
76 1 0.0654578 0.0177243 0.00702312 0.00619049 -0.000121373 -0.000155829 -1.52788e-10 6.88982e-10 1.64169e-10 5e-05 1.46608e-10 
77 1 0.0715424 0.0181146 0.00724347 0.00588266 -5.55576e-05 9.52064e-06 -4.0632e-11 7.08656e-11 4.47441e-12 5e-05 1.46608e-10 
78 1 0.0649726 0.0160867 0.00813632 0.00575998 -1.50144e-05 -0.000108403 2.16687e-10 -8.05343e-11 6.68134e-11 5e-05 1.46608e-10 
79 1 0.0651699 0.0168905 0.00757524 0.00566231 2.18009e-05 -0.000212118 7.11354e-11 3.1808e-10 -2.39207e-10 5e-05 1.46608e-10 
80 1 0.0713577 0.0176883 0.00723172 0.00602711 -6.3758e-05 1.19111e-05 1.61533e-10 1.33072e-10 -3.41316e-11 5e-05 1.46608e-10 
81 1 0.065111 0.016649 0.00774314 0.0054646 4.58901e-05 -0.000144127 -5.64672e-11 3.22514e-10 -2.26795e-10 5e-05 1.46608e-10 
82 1 0.0652492 0.0172116 0.00735024 0.00606201 5.86863e-07 -0.000129766 8.36677e-11 1.30499e-10 -3.07557e-11 5e-05 1.46608e-10 
83 1 0.065245 0.0164619 0.00787028 0.00542143 -0.000115915 -3.119e-05 -1.79977e-10 -1.70267e-10 1.30723e-10 5e-05 1.46608e-10 
84 1 0.0773802 0.0177702 0.00708295 0.0063071 0.000461959 -0.000342552 4.55869e-11 5.58092e-11 5.58321e-12 5e-05 1.46608e-10 
85 1 0.0650684 0.0161121 0.00811671 0.00583512 5.20575e-05 -0.00015655 -7.52177e-11 -4.27291e-11 2.95496e-11 5e-05 1.46608e-10 
86 1 0.0713538 0.0172349 0.00721956 0.00567024 -1.28127e-05 6.10516e-06 -1.2399e-10 2.98208e-10 8.59544e-11 5e-05 1.46608e-10 
87 1 0.0712551 0.0164922 0.00780541 0.00546458 2.18294e-05 -3.00681e-05 7.31103e-11 4.27043e-11 -5.26518e-11 5e-05 1.46608e-10 
88 1 0.0714218 0.0179816 0.00723969 0.00592671 -0.000102581 7.48095e-06 -2.2461e-11 -1.28248e-11 7.71154e-12 5e-05 1.46608e-10 
89 1 0.071379 0.0177859 0.00723437 0.0059942 -5.5907e-05 8.56877e-06 -5.62227e-11 -5.04675e-11 8.61262e-12 5e-05 1.46608e-10 
90 1 0.0714662 0.0169716 0.00740725 0.00561135 -2.29143e-05 7.63402e-06 4.48793e-11 3.93675e-12 -8.03287e-11 5e-05 1.46608e-10 
91 1 0.0651897 0.0169705 0.00751856 0.00573586 1.14963e-05 -0.000203058 -1.12551e-10 2.15911e-10 -2.58261e-10 5e-05 1.46608e-10 
92 1 0.0714902 0.0174629 0.00722592 0.0060792 -0.000129911 7.98911e-06 2.87026e-10 1.28204e-10 1.25285e-10 5e-05 1.46608e-10 
93 1 0.0714788 0.0178215 0.0072355 0.00600762 -5.47843e-05 1.02431e-05 3.34321e-11 5.50063e-11 1.38505e-11 5e-05 1.46608e-10 
94 1 0.0715543 0.017756 0.00723388 0.00603518 -2.46726e-05 1.17054e-05 -6.29934e-11 -5.80815e-11 7.65704e-12 5e-05 1.46608e-10 
95 1 0.0713363 0.0175906 0.0072291 0.00605587 -6.24257e-05 6.67976e-06 3.32013e-11 5.19471e-10 -5.00509e-11 5e-05 1.46608e-10 
96 1 0.0715116 0.0175607 0.00722858 0.00609155 -4.04661e-05 1.1688e-05 5.4394e-11 2.05841e-10 -6.74638e-12 5e-05 1.46608e-10 
97 1 0.0650721 0.0164882 0.00785554 0.00545669 -1.32989e-05 -0.000102915 1.3161e-10 2.9125e-10 -2.11429e-10 5e-05 1.46608e-10 
98 1 0.0714431 0.0180792 0.00724234 0.00590125 -0.000109514 6.48864e-06 -2.51269e-11 3.50731e-11 -4.59581e-12 5e-05 1.46608e-10 
99 1 0.0652254 0.016755 0.0076672 0.00555204 -6.83115e-05 -6.54066e-05 -2.68202e-10 -5.97247e-11 4.83389e-11 5e-05 1.46608e-10 
100 1 0.0714279 0.0168206 0.00753264 0.00561549 -1.51253e-05 2.44093e-06 1.10325e-10 -5.75019e-11 4.55068e-11 5e-05 1.46608e-10 
101 1 0.0651668 0.0165139 0.00783579 0.00542574 -6.18231e-05 -6.87997e-05 -1.88431e-10 -2.25515e-11 3.84881e-12 5e-05 1.46608e-10 
102 1 0.0643568 0.0187248 0.00531097 4.23942e-15 1.05313e-14 8.29575e-14 3.94281e-22 -5.8934e-22 4.19794e-23 5e-05 1.46608e-10 
103 1 0.24257 0.0191927 0.00520306 -7.91558e-23 2.24983e-22 -5.81428e-22 0 0 0 5e-05 1.46608e-10 
104 1 0.065474 0.0174421 0.00722437 0.00616356 -6.3582e-05 -9.75536e-05 -3.75739e-10 1.45017e-10 -4.72761e-10 5e-05 1.46608e-10 
105 1 0.0650331 0.0163275 0.00796793 0.00537741 1.16482e-06 -0.000111882 -1.48714e-10 1.80698e-10 -1.17843e-10 5e-05 1.46608e-10 
106 1 0.0655572 0.0173867 0.00722187 0.00612029 -0.000173971 4.55346e-06 -6.67818e-10 3.16029e-10 -1.53426e-10 5e-05 1.46608e-10 
107 1 0.0649931 0.0161669 0.00808023 0.00572273 -3.10577e-05 -9.59252e-05 9.39972e-11 1.46596e-10 -1.04235e-10 5e-05 1.46608e-10 
108 1 0.0711796 0.0165427 0.00776364 0.0055059 5.86501e-05 -7.66834e-05 3.51688e-11 -3.80823e-11 -1.13119e-10 5e-05 1.46608e-10 
109 1 0.0712578 0.0171983 0.00721959 0.00568811 -1.72152e-05 1.82708e-06 1.81995e-10 -1.5139e-10 2.761e-10 5e-05 1.46608e-10 
110 1 0.0716074 0.0175916 0.00722958 0.00598467 -0.000119557 8.34307e-06 -1.60064e-10 3.45772e-11 -1.80637e-11 5e-05 1.46608e-10 
111 1 0.0714859 0.018275 0.00724766 0.00585321 -7.42991e-05 8.84097e-06 -2.76125e-11 2.74243e-11 1.00208e-11 5e-05 1.46608e-10 
112 1 0.0650915 0.0165686 0.00779933 0.0054636 2.02299e-05 -0.000126489 1.82914e-10 3.502e-10 -2.43029e-10 5e-05 1.46608e-10 
113 1 0.0658657 0.017884 0.00703009 0.00594124 7.44623e-05 0.000236904 5.22281e-10 -2.26521e-10 -4.82126e-11 5e-05 1.46608e-10 
114 1 0.0654227 0.0171849 0.00736472 0.00616781 -6.92756e-05 -8.10789e-05 -3.8414e-10 4.76559e-10 -3.58439e-10 5e-05 1.46608e-10 
115 1 0.0713138 0.0170725 0.0073262 0.00564689 4.92035e-06 -3.36688e-05 -5.35333e-11 4.74644e-11 -2.83456e-11 5e-05 1.46608e-10 
116 1 0.0711604 0.0164672 0.00782632 0.00546791 7.44035e-05 -6.49032e-05 9.33014e-11 2.99524e-11 -6.16501e-11 5e-05 1.46608e-10 
117 1 0.0710203 0.015931 0.00825521 0.00570316 0.00014318 7.16387e-05 -2.8927e-12 5.71574e-12 -1.67521e-12 5e-05 1.46608e-10 
118 1 0.0649314 0.0159263 0.00824849 0.00575445 5.40731e-05 -0.000157316 -1.85386e-10 -2.59491e-10 1.84419e-10 5e-05 1.46608e-10 
119 1 0.0713126 0.0167187 0.00761736 0.00554717 1.1181e-05 -2.00225e-05 1.30811e-10 -3.37864e-11 3.96126e-11 5e-05 1.46608e-10 
120 1 0.0708841 0.0157514 0.0083944 0.00568805 0.000139078 7.43311e-05 -2.83912e-11 -3.45429e-11 2.11969e-11 5e-05 1.46608e-10 
121 1 0.070843 0.0155979 0.00851585 0.00566611 0.000122163 8.71583e-05 3.7351e-11 -5.99439e-11 4.83909e-11 5e-05 1.46608e-10 
122 1 0.0716288 0.0176892 0.00723223 0.00595795 -0.000113113 8.89146e-06 -2.38463e-11 -1.6822e-11 2.27446e-11 5e-05 1.46608e-10 
123 1 0.0651084 0.0162727 0.00800439 0.0053376 -8.2432e-05 -5.27792e-05 -5.67539e-10 8.18926e-11 -4.40471e-11 5e-05 1.46608e-10 
124 1 0.0714361 0.0176262 0.00723019 0.00605364 -6.64033e-05 1.10592e-05 1.36539e-10 3.36985e-11 -2.21184e-11 5e-05 1.46608e-10 
125 1 0.0709998 0.0158542 0.00831595 0.00571486 0.000132202 8.06455e-05 -1.4607e-10 -2.16935e-11 4.07982e-12 5e-05 1.46608e-10 
126 1 0.0712192 0.0170464 0.00734567 0.00565183 3.21997e-05 -3.7345e-05 2.5782e-11 8.87854e-11 -1.57139e-11 5e-05 1.46608e-10 
127 1 0.0650526 0.0164078 0.00791174 0.00541283 -1.56615e-05 -0.000100687 -1.37004e-10 3.43942e-10 -2.2836e-10 5e-05 1.46608e-10 
128 1 0.0713149 0.0174927 0.0072264 0.00606062 -6.19464e-05 1.44024e-05 3.62599e-10 -1.01357e-10 8.90076e-11 5e-05 1.46608e-10 
129 1 0.0714004 0.0178836 0.00723702 0.00596416 -4.4809e-05 9.17835e-06 -2.07689e-12 -6.75552e-11 -7.8656e-12 5e-05 1.46608e-10 
130 1 0.0653445 0.0172369 0.00733023 0.00612508 -8.3807e-05 -7.66146e-05 -7.14703e-10 1.27668e-10 -1.20396e-10 5e-05 1.46608e-10 
131 1 0.0652061 0.0166746 0.00772342 0.00543755 -4.4802e-05 -8.01316e-05 -3.98787e-10 -1.35686e-10 1.04264e-10 5e-05 1.46608e-10 
132 1 0.0714147 0.0175286 0.00722755 0.00607442 -6.85796e-05 7.85089e-06 -2.58648e-10 4.65679e-11 -1.68897e-10 5e-05 1.46608e-10 
133 1 0.0711779 0.0161887 0.0080542 0.00541164 0.000134865 7.38938e-05 2.23501e-10 -1.98911e-11 3.17127e-11 5e-05 1.46608e-10 
134 1 0.0713317 0.0167943 0.00755467 0.00558907 5.49118e-06 -1.57883e-05 -7.18974e-11 -4.96582e-11 6.18368e-11 5e-05 1.46608e-10 
135 1 0.0709793 0.0157774 0.00837667 0.00567887 0.000131914 7.96827e-05 -2.41046e-10 1.82636e-11 -1.8015e-11 5e-05 1.46608e-10 
136 1 0.0650478 0.0160319 0.00817282 0.00578756 1.14679e-05 -0.000127807 -1.91055e-10 -1.62028e-10 1.20047e-10 5e-05 1.46608e-10 
137 1 0.0715073 0.0183726 0.00725031 0.00583115 -6.72673e-05 8.82165e-06 1.45831e-11 -6.13751e-11 -1.42743e-12 5e-05 1.46608e-10 
138 1 0.071122 0.0163155 0.0079509 0.0053541 0.000163443 5.07034e-05 -2.18097e-10 2.10864e-11 4.94534e-11 5e-05 1.46608e-10 
140 1 0.0716499 0.0177869 0.00723489 0.00594474 -0.000109481 7.46532e-06 -1.2805e-10 -2.77563e-12 -1.3402e-11 5e-05 1.46608e-10 
141 1 0.0650886 0.0161924 0.00806056 0.00539273 -0.000111384 -3.39e-05 1.16155e-10 -1.90494e-10 1.30307e-10 5e-05 1.46608e-10 
142 1 0.0654427 0.0172652 0.00730858 0.00620606 -0.00011589 -4.39709e-05 -2.34661e-10 8.09563e-10 -2.34565e-10 5e-05 1.46608e-10 
143 1 0.0650133 0.0162471 0.0080241 0.00551497 -7.75135e-06 -0.000108482 6.7997e-10 6.27908e-11 -5.75313e-11 5e-05 1.46608e-10 
144 1 0.0654027 0.0171046 0.00742087 0.00605868 -6.54827e-05 -8.02082e-05 -3.1493e-10 6.37695e-10 -5.00514e-10 5e-05 1.46608e-10 
146 1 0.0652645 0.0165422 0.00781408 0.00536507 -0.000101543 -4.00233e-05 -4.71297e-10 -2.38749e-11 1.01052e-11 5e-05 1.46608e-10 
147 1 0.0650272 0.0159517 0.00822891 0.00577135 2.76756e-05 -0.000138525 4.95514e-11 -2.67564e-10 1.78499e-10 5e-05 1.46608e-10 
148 1 0.0653086 0.0174523 0.00718147 0.00619108 1.67118e-05 -0.000133182 -2.03317e-10 4.26112e-11 1.14999e-10 5e-05 1.46608e-10 
149 1 0.0715755 0.0178538 0.00723654 0.00596146 -7.62821e-05 8.61611e-06 -5.02227e-11 9.48576e-11 2.28246e-11 5e-05 1.46608e-10 
150 1 0.0653035 0.016703 0.00770169 0.00553676 -8.81956e-05 -5.31029e-05 -2.06104e-10 4.26087e-10 -2.98306e-10 5e-05 1.46608e-10 
151 1 0.065635 0.0174376 0.00718497 0.0061699 -0.000201899 1.58955e-05 -5.80099e-10 3.08866e-11 -5.28408e-11 5e-05 1.46608e-10 
153 1 0.0651474 0.0164335 0.00789199 0.00544088 -6.69353e-05 -6.52575e-05 -1.07858e-10 5.53938e-11 -3.54342e-11 5e-05 1.46608e-10 
154 1 0.0654025 0.017482 0.00715893 0.00600655 -5.73575e-05 -8.48693e-05 3.16088e-10 5.48264e-10 -6.20893e-10 5e-05 1.46608e-10 
155 1 0.0654861 0.0178297 0.00702388 0.00624079 -0.000178504 -0.000231728 1.31708e-10 4.07727e-10 -7.50134e-11 5e-05 1.46608e-10 
156 1 0.065384 0.0173989 0.00721975 0.00615713 -8.42896e-05 -0.000119452 -4.12932e-10 5.19102e-10 -4.68556e-10 5e-05 1.46608e-10 
157 1 0.0219312 0.0187687 0.00551176 -3.83424e-14 8.16947e-14 2.95879e-13 5.6132e-22 1.95938e-22 7.03104e-24 5e-05 1.46608e-10 
158 1 0.0654685 0.017555 0.00717615 0.00618879 -0.000208182 -0.000152202 -4.6273e-10 9.5621e-11 -2.70485e-10 5e-05 1.46608e-10 
159 1 0.071469 0.0173653 0.00722326 0.0059508 -0.000110639 1.13134e-05 1.34466e-10 4.38628e-11 7.8058e-11 5e-05 1.46608e-10 
160 1 0.0653911 0.0177988 0.00702695 0.00619745 -0.000128275 -0.00028008 -1.10703e-10 2.38194e-10 2.93281e-10 5e-05 1.46608e-10 
162 1 0.0653992 0.0175646 0.00710264 0.00617475 -2.42063e-05 -8.33086e-05 -1.98318e-10 4.53158e-10 -6.73922e-11 5e-05 1.46608e-10 
164 1 0.0656639 0.0181821 0.00703482 0.00592015 -0.000245736 -0.000233942 2.76833e-09 -3.98096e-10 -8.79141e-11 5e-05 1.46608e-10 
165 1 0.0657318 0.0176578 0.00703637 0.00630994 -0.000127139 0.000191923 1.43027e-11 6.76981e-11 -1.797e-10 5e-05 1.46608e-10 
166 1 0.0711375 0.0160351 0.00817575 0.0057742 0.00012992 8.37996e-05 -3.15945e-11 1.59216e-11 -3.3366e-11 5e-05 1.46608e-10 
167 1 0.0652842 0.0166226 0.00775791 0.00540424 -9.29896e-05 -4.68861e-05 -4.77131e-10 1.90316e-10 -1.21054e-10 5e-05 1.46608e-10 
168 1 0.0655417 0.0174771 0.00715964 0.0061854 -2.8205e-05 -4.82073e-05 -3.46588e-10 2.30874e-10 -5.96309e-10 5e-05 1.46608e-10 
169 1 0.0657918 0.0179513 0.00702629 0.00588734 -7.98968e-05 0.000215655 2.68453e-10 -1.07331e-10 3.03992e-11 5e-05 1.46608e-10 
170 1 0.0656049 0.0176191 0.007059 0.00609757 -0.000180401 -7.60522e-05 2.71174e-10 3.32755e-10 -3.56314e-10 5e-05 1.46608e-10 
171 1 0.0711581 0.0161118 0.00811503 0.00566318 0.00011328 9.38488e-05 -7.53115e-10 1.50415e-10 -1.39874e-10 5e-05 1.46608e-10 
172 1 0.0656946 0.0175786 0.00708487 0.00630845 -0.000243127 -5.04892e-06 1.54028e-10 5.27229e-11 -7.61248e-11 5e-05 1.46608e-10 
173 1 0.0715992 0.0171487 0.00726008 0.00562294 -5.73939e-05 4.90707e-05 1.93828e-10 2.39516e-11 1.26179e-10 5e-05 1.46608e-10 
174 1 0.0655468 0.0177005 0.00706187 0.00609983 -0.000193994 2.74495e-05 5.01922e-10 9.9434e-11 6.02543e-11 5e-05 1.46608e-10 
175 1 0.0592858 0.0173436 0.00718817 0.00563733 0.000209151 -5.49266e-05 -6.97255e-11 5.66622e-11 1.44864e-10 5e-05 1.46608e-10 
176 1 0.0653646 0.0173175 0.00727457 0.00619709 -9.29019e-05 -0.000103892 -5.25138e-10 2.24443e-10 -3.33453e-10 5e-05 1.46608e-10 
177 1 0.0654332 0.0179941 0.0070345 0.00622392 -0.000158 -0.000259247 -2.00976e-10 -6.82973e-10 -3.99741e-11 5e-05 1.46608e-10 
178 1 0.0658444 0.0177863 0.00703055 0.00609505 5.78976e-05 0.000231918 1.2978e-10 -2.54809e-10 2.76704e-11 5e-05 1.46608e-10 
179 1 0.0657704 0.0178536 0.00702678 0.00605902 -0.000123859 0.00027016 6.74611e-10 -1.87031e-10 1.84158e-10 5e-05 1.46608e-10 
181 1 0.0653519 0.0176441 0.00714905 0.00632651 -7.63786e-05 0.000164764 -7.80443e-10 3.40469e-10 6.57748e-10 5e-05 1.46608e-10 
182 1 0.0711024 0.0162387 0.00801175 0.00551653 0.000122196 7.32198e-05 -1.47944e-10 -8.93163e-11 1.00041e-10 5e-05 1.46608e-10 
183 1 0.0655268 0.0175689 0.00709604 0.00617616 -0.000107864 -6.47387e-05 -8.1691e-10 9.18544e-11 -2.44065e-10 5e-05 1.46608e-10 
184 1 0.071412 0.0173739 0.007305 0.00596295 -0.000134792 3.2671e-05 2.77026e-10 -9.16269e-11 -4.2651e-10 5e-05 1.46608e-10 
185 1 0.0652893 0.0173732 0.00723958 0.0062148 -9.10951e-06 -0.000124362 -6.05522e-10 4.28455e-10 -1.81705e-11 5e-05 1.46608e-10 
186 1 0.0653302 0.0175496 0.00717341 0.00614416 1.08309e-05 -0.000130855 1.28828e-10 1.05667e-10 2.80778e-10 5e-05 1.46608e-10 
187 1 0.0714087 0.0167451 0.00759533 0.00556669 -1.71834e-05 3.7362e-06 -1.10385e-10 1.02906e-11 -2.25814e-11 5e-05 1.46608e-10 
188 1 0.0714999 0.0179192 0.00723816 0.00596111 -5.86482e-05 8.97897e-06 8.59863e-11 1.24864e-10 -1.13593e-11 5e-05 1.46608e-10 
189 1 0.0714471 0.0168961 0.00746995 0.00561054 -1.31225e-05 1.35373e-06 -6.21392e-11 -7.02876e-11 5.86572e-11 5e-05 1.46608e-10 
190 1 0.0594029 0.0174718 0.00718436 0.00604848 6.19714e-05 -7.11384e-05 -2.19412e-10 4.51662e-11 1.15658e-12 5e-05 1.46608e-10 
191 1 0.0715286 0.0184703 0.00725297 0.00580745 -5.75249e-05 8.94063e-06 -4.11428e-11 -1.40995e-10 -2.33054e-12 5e-05 1.46608e-10 
192 1 0.0655302 0.0172245 0.00733504 0.00620666 -0.000174454 -8.52431e-06 -3.60946e-10 4.16239e-10 -2.81819e-10 5e-05 1.46608e-10 
193 1 0.0712359 0.0164167 0.0078681 0.00540506 2.36255e-05 -4.32616e-05 -9.59126e-11 1.2468e-10 1.67016e-11 5e-05 1.46608e-10 
194 1 0.0653432 0.0168636 0.00758936 0.00570513 -6.98977e-05 -6.87971e-05 -2.43914e-10 5.82995e-10 -3.97601e-10 5e-05 1.46608e-10 
195 1 0.0657492 0.0177558 0.00702723 0.00614267 -0.000103721 0.0002467 1.32924e-10 -1.03773e-10 1.02074e-10 5e-05 1.46608e-10 
196 1 0.0648285 0.0155253 0.00852894 0.00574923 6.26749e-05 -0.000162012 7.17252e-11 2.84605e-10 -1.984e-10 5e-05 1.46608e-10 
197 1 0.0593497 0.0176366 0.0071817 0.00615157 0.000126066 -6.27861e-05 -4.1282e-11 -2.71626e-11 3.19982e-11 5e-05 1.46608e-10 
198 1 0.0652097 0.0170507 0.00746228 0.00579769 2.1028e-05 -0.000150424 -3.18854e-10 2.32427e-10 -2.92194e-10 5e-05 1.46608e-10 
199 1 0.0653547 0.0176386 0.00704924 0.00622283 -0.000129048 0.000223163 3.80685e-10 -6.18754e-10 9.51819e-10 5e-05 1.46608e-10 
200 1 0.0653046 0.0170763 0.00744253 0.00588155 -6.09454e-05 -7.31256e-05 -2.53492e-10 3.42826e-10 -3.50731e-10 5e-05 1.46608e-10 
201 1 0.0657598 0.0182135 0.00703264 0.00565816 -3.18349e-05 -0.00023018 -6.06886e-10 1.6087e-10 8.83293e-11 5e-05 1.46608e-10 
202 1 0.0655496 0.0173049 0.00727884 0.00611641 -0.000177146 -1.95264e-06 -6.7592e-10 1.93605e-10 2.16764e-11 5e-05 1.46608e-10 
203 1 0.0716233 0.0172371 0.00722011 0.00576754 -0.000111185 3.59037e-06 6.05416e-10 -2.98523e-10 -1.44244e-10 5e-05 1.46608e-10 
204 1 0.0652851 0.0169959 0.00749873 0.00574372 -5.54515e-05 -8.18572e-05 -3.11845e-10 3.72538e-10 -2.73748e-10 5e-05 1.46608e-10 
205 1 0.0656215 0.0179868 0.0070278 0.00606623 -0.000222684 7.90159e-05 8.78353e-10 -2.92705e-12 -2.80167e-10 5e-05 1.46608e-10 
206 1 0.0655784 0.017792 0.00703136 0.00623511 -0.000184772 -0.000227561 3.00091e-10 1.0389e-10 9.00931e-10 5e-05 1.46608e-10 
207 1 0.0651279 0.0163531 0.00794819 0.00538239 -6.97096e-05 -6.23804e-05 -2.92604e-10 1.87767e-11 -5.64473e-12 5e-05 1.46608e-10 
208 1 0.0654586 0.0176296 0.00705527 0.00617147 -6.95767e-05 -8.80282e-05 -4.31694e-10 5.78443e-10 -3.83479e-10 5e-05 1.46608e-10 
209 1 0.0653234 0.0167833 0.00764554 0.00565132 -8.34701e-05 -5.85275e-05 6.2164e-11 5.908e-10 -4.12999e-10 5e-05 1.46608e-10 
210 1 0.0712966 0.0172407 0.00730141 0.00565038 -9.46895e-06 -6.59735e-06 -5.19089e-12 -3.63684e-11 -1.18655e-10 5e-05 1.46608e-10 
211 1 0.0715329 0.0176584 0.00723123 0.00605356 -3.25189e-05 9.19294e-06 -2.42126e-11 9.16455e-11 -7.1814e-13 5e-05 1.46608e-10 
212 1 0.0656384 0.0177124 0.00702346 0.00616772 -0.000252787 0.000231366 4.98167e-10 5.01288e-11 -3.38622e-10 5e-05 1.46608e-10 
213 1 0.0713896 0.0166695 0.00765803 0.00551495 -2.49205e-05 9.55305e-06 1.91036e-10 5.8639e-11 -4.80592e-11 5e-05 1.46608e-10 
214 1 0.0714574 0.0177239 0.00723285 0.00602384 -5.33174e-05 1.07452e-05 -5.98402e-11 3.65572e-11 -1.29507e-11 5e-05 1.46608e-10 
215 1 0.0593812 0.0173742 0.00718652 0.0058725 9.71649e-05 -7.29333e-05 -3.38841e-10 -1.77312e-11 2.8024e-11 5e-05 1.46608e-10 
216 1 0.065412 0.0178965 0.00703021 0.00625703 -0.000130217 -0.000253484 -3.06463e-10 -6.84512e-11 -1.53812e-10 5e-05 1.46608e-10 
217 1 0.0711975 0.0162656 0.00799334 0.00532583 0.000135103 6.33184e-05 -2.86258e-10 8.2294e-12 -1.93011e-11 5e-05 1.46608e-10 
218 1 0.0655298 0.0180264 0.00703218 0.00612032 -0.000149236 -0.000198687 6.37983e-10 -6.85858e-10 -3.04171e-10 5e-05 1.46608e-10 
219 1 0.0714646 0.0181773 0.007245 0.00587515 -7.84237e-05 8.84945e-06 -6.72793e-11 3.69374e-11 -9.21704e-14 5e-05 1.46608e-10 
220 1 0.0653734 0.0177263 0.00709355 0.00618407 2.01053e-05 -6.98545e-05 2.08504e-10 4.16249e-10 9.93193e-10 5e-05 1.46608e-10 
221 1 0.0592865 0.0169984 0.0074676 0.00600164 0.000116497 -7.35634e-06 -5.54663e-10 -4.59193e-10 2.65106e-10 5e-05 1.46608e-10 
222 1 0.0712167 0.0163413 0.00793095 0.00533282 7.12872e-05 -8.45661e-06 -2.13312e-10 3.34233e-10 2.54325e-10 5e-05 1.46608e-10 
223 1 0.0654625 0.017346 0.00725206 0.00616486 -8.42999e-05 -7.10862e-05 -5.74491e-10 3.84242e-10 -2.87635e-10 5e-05 1.46608e-10 
224 1 0.0652692 0.0172916 0.00729379 0.00614264 -5.91174e-06 -0.000123548 -1.83724e-10 3.34855e-10 -1.66827e-10 5e-05 1.46608e-10 
225 1 0.0715443 0.0172984 0.00722161 0.00578226 -9.89989e-05 1.96448e-05 6.10064e-10 -1.63279e-10 7.70126e-11 5e-05 1.46608e-10 
226 1 0.0656267 0.0175195 0.00712826 0.00627836 -0.000192282 5.79673e-06 -2.13857e-10 1.98362e-10 -1.82536e-10 5e-05 1.46608e-10 
227 1 0.0593455 0.0172066 0.00725879 0.00570038 0.000161167 -5.87763e-05 1.79594e-10 -1.91133e-11 -4.35867e-11 5e-05 1.46608e-10 
228 1 0.0593069 0.0174413 0.00718633 0.0062134 0.000101813 -0.000120841 -3.18044e-11 2.21546e-12 -2.43667e-10 5e-05 1.46608e-10 
229 1 0.0653964 0.0176013 0.00722772 0.00620813 -0.000279261 -9.92828e-05 2.99599e-10 -1.75737e-10 1.02548e-09 5e-05 1.46608e-10 
230 1 0.0657063 0.0183774 0.00704309 0.00558988 -0.000150066 -0.000227504 -6.42366e-10 -2.5186e-10 -3.51678e-11 5e-05 1.46608e-10 
231 1 0.0592664 0.0172492 0.0072147 0.00569284 0.000159766 -6.14868e-05 2.3832e-10 -1.18867e-10 1.203e-10 5e-05 1.46608e-10 
232 1 0.0652255 0.0163815 0.00792648 0.0054187 -0.000118426 -2.92858e-05 -3.51e-10 -1.89091e-10 1.43051e-10 5e-05 1.46608e-10 
233 1 0.0653632 0.0169439 0.00753322 0.00576195 -6.00449e-05 -7.70507e-05 -3.85165e-10 5.73239e-10 -3.84338e-10 5e-05 1.46608e-10 
234 1 0.0715221 0.0180167 0.00724081 0.00591869 -5.72258e-05 9.24832e-06 1.86074e-10 -3.53939e-12 3.59127e-12 5e-05 1.46608e-10 
235 1 0.0657491 0.0185726 0.00705134 0.00570804 -0.000159629 -0.000233091 -6.76799e-10 9.81333e-11 4.14179e-11 5e-05 1.46608e-10 
236 1 0.0657275 0.018475 0.00704723 0.00564993 -0.000144222 -0.000229843 -6.19315e-10 -1.04077e-10 4.20517e-11 5e-05 1.46608e-10 
237 1 0.0658022 0.0184088 0.00704091 0.00575686 -5.33139e-05 -0.000228792 -6.55872e-10 -6.62047e-11 1.23107e-11 5e-05 1.46608e-10 
239 1 0.0591007 0.0166278 0.00783771 0.00556809 0.00016861 -7.57554e-05 -2.54664e-10 -6.39707e-10 6.58127e-10 5e-05 1.46608e-10 
240 1 0.0591556 0.0168361 0.00762888 0.00578141 0.000129018 -2.86172e-05 -1.23288e-10 4.70343e-10 -3.53803e-10 5e-05 1.46608e-10 
241 1 0.0590825 0.0165584 0.00790734 0.00549918 0.00019612 -0.000108042 -1.60614e-10 -5.24686e-10 4.4909e-10 5e-05 1.46608e-10 
242 1 0.0654901 0.0170639 0.00744733 0.00601102 -0.000154376 -1.46958e-05 -3.18309e-10 5.28575e-10 -3.73162e-10 5e-05 1.46608e-10 
243 1 0.065265 0.0169156 0.00755487 0.00574239 -7.16075e-05 -6.96167e-05 -2.02652e-10 2.13087e-10 -1.70202e-10 5e-05 1.46608e-10 
244 1 0.0591189 0.0166973 0.00776809 0.00561877 0.000128913 -4.18929e-05 -3.05173e-10 -4.49446e-10 4.81752e-10 5e-05 1.46608e-10 