ITEM: TIMESTEP
4600000
ITEM: NUMBER OF ATOMS
287
ITEM: BOX BOUNDS ff ff ff
-0.02 0.43
-0.02 0.06
-0.02 0.07
ITEM: ATOMS id type x y z vx vy vz fx fy fz radius mass 
1 1 0.0396834 0.0164503 0.00765009 0.00570168 0.000152608 0.000130285 4.31696e-10 -5.28015e-11 5.05759e-11 5e-05 1.46608e-10 
2 1 0.0400868 0.0174075 0.00723604 0.00608841 6.38093e-05 0.000229668 5.72946e-10 -2.55997e-10 1.15001e-10 5e-05 1.46608e-10 
3 1 0.0334314 0.0158658 0.00824691 0.0055867 -0.000228446 -3.46966e-05 1.40104e-10 1.95772e-10 -2.18526e-10 5e-05 1.46608e-10 
4 1 0.0400179 0.0178941 0.00706622 0.00630209 4.09395e-05 0.000249674 1.25048e-10 4.94948e-10 -1.76575e-10 5e-05 1.46608e-10 
5 1 0.0395712 0.0163691 0.00775335 0.00565127 0.000154837 9.64636e-05 6.7264e-11 5.5694e-12 -8.24628e-11 5e-05 1.46608e-10 
6 1 0.0455054 0.0160923 0.00793483 0.00553631 7.96673e-05 0.000547388 1.8824e-12 5.06009e-12 -4.33493e-12 5e-05 1.46608e-10 
7 1 0.0397477 0.0171219 0.00732004 0.00616434 5.26052e-05 0.000236506 2.68258e-11 6.27012e-12 -1.87645e-12 5e-05 1.46608e-10 
8 1 0.0394777 0.0160638 0.00813821 0.00548118 0.000213793 1.48595e-05 3.09e-10 -1.9942e-10 2.73897e-10 5e-05 1.46608e-10 
9 1 0.045771 0.0172949 0.00755873 0.00574208 -6.08424e-05 0.000407728 3.11055e-12 -3.10788e-12 8.25329e-13 5e-05 1.46608e-10 
10 1 0.039687 0.0168467 0.00742211 0.00566326 -2.61272e-05 -0.000128535 5.33274e-11 -3.85556e-11 -9.35921e-11 5e-05 1.46608e-10 
11 1 0.0401307 0.0175936 0.00717398 0.00618934 8.44029e-05 0.000226396 -2.49788e-10 -7.55736e-12 1.29837e-11 5e-05 1.46608e-10 
12 1 0.0336237 0.0165975 0.00761343 0.00559213 -3.68956e-05 0.000269457 5.93897e-11 1.51079e-10 -7.74727e-11 5e-05 1.46608e-10 
13 1 0.0395519 0.0163064 0.00782885 0.00559771 0.000155185 9.81139e-05 -1.54187e-10 -9.97902e-11 1.25368e-10 5e-05 1.46608e-10 
14 1 0.0333523 0.0156054 0.00854002 0.00570469 -0.000291763 2.84833e-05 2.22137e-11 -3.13455e-11 3.78687e-11 5e-05 1.46608e-10 
15 1 0.039888 0.0173384 0.00725152 0.00617114 7.36103e-05 0.00022693 1.02979e-10 -3.20228e-10 1.30064e-10 5e-05 1.46608e-10 
16 1 0.0333317 0.0155404 0.00861319 0.00569287 -0.000293674 3.11898e-05 -4.55427e-11 7.30306e-12 -5.55098e-12 5e-05 1.46608e-10 
17 1 0.0396675 0.0167591 0.00746626 0.00568132 -3.2094e-05 -0.000143081 5.2038e-11 2.35574e-10 -1.10317e-10 5e-05 1.46608e-10 
18 1 0.0456407 0.0167302 0.0077138 0.00572127 -0.000328192 -0.000534528 2.69242e-12 -7.98274e-13 6.96172e-13 5e-05 1.46608e-10 
19 1 0.0395333 0.0162458 0.00790615 0.00552445 0.000152362 9.57875e-05 -1.42044e-10 -2.81793e-10 3.20439e-10 5e-05 1.46608e-10 
21 1 0.0396656 0.0163897 0.00772762 0.00566745 0.000132042 0.00011631 1.65486e-10 3.22819e-11 3.79678e-11 5e-05 1.46608e-10 
22 1 0.0397911 0.0173071 0.00725828 0.00618183 9.49579e-05 0.00022055 -1.26453e-10 -3.91282e-10 7.51889e-11 5e-05 1.46608e-10 
23 1 0.0338015 0.0169881 0.0074493 0.00602543 -0.000183402 0.000356526 -9.85429e-11 3.66844e-11 -3.71778e-11 5e-05 1.46608e-10 
24 1 0.0457059 0.017014 0.00764143 0.00572952 -0.000328806 -0.000530775 1.85321e-10 -5.15633e-11 -3.80149e-10 5e-05 1.46608e-10 
25 1 0.039726 0.0170293 0.00735092 0.00615845 4.71872e-05 0.000238789 6.19793e-12 -7.99798e-11 3.99711e-11 5e-05 1.46608e-10 
26 1 0.0455807 0.0164453 0.0077859 0.00554688 -0.000287454 -0.000525287 2.79542e-12 4.85531e-12 -2.50735e-12 5e-05 1.46608e-10 
27 1 0.0337049 0.0169576 0.00745837 0.0060371 -0.000117895 0.00033483 4.63049e-11 6.61122e-10 -2.94667e-10 5e-05 1.46608e-10 
28 1 0.0399963 0.0178015 0.00709711 0.00624303 4.25662e-05 0.000241794 -1.98288e-11 1.74515e-10 -5.0689e-11 5e-05 1.46608e-10 
29 1 0.0395147 0.0161852 0.00798347 0.00549451 0.000151917 9.47736e-05 3.31154e-11 -3.6845e-10 4.2709e-10 5e-05 1.46608e-10 
30 1 0.0400352 0.0175635 0.00718036 0.0061588 7.83688e-05 0.000227741 -3.20223e-10 -6.65151e-11 1.52892e-11 5e-05 1.46608e-10 
31 1 0.0397694 0.0172145 0.00728916 0.00617185 5.37364e-05 0.000237321 -6.4339e-12 8.90095e-11 -5.11447e-11 5e-05 1.46608e-10 
32 1 0.0398663 0.0172466 0.0072846 0.00615739 8.09999e-05 0.000221235 -1.53124e-10 -2.43728e-10 1.31854e-10 5e-05 1.46608e-10 
33 1 0.0455244 0.0161618 0.00786549 0.0055609 7.77591e-05 0.000552237 3.15339e-12 5.34347e-12 -5.64416e-12 5e-05 1.46608e-10 
34 1 0.0396479 0.0166717 0.00751059 0.00569797 -1.97289e-05 -0.000158544 -1.77908e-12 2.19327e-10 -1.17234e-10 5e-05 1.46608e-10 
35 1 0.0398449 0.0171537 0.00731467 0.00613407 8.42302e-05 0.00022111 -3.51396e-10 -1.79477e-10 7.9607e-11 5e-05 1.46608e-10 
36 1 0.0458145 0.017482 0.00750305 0.00575207 -6.26326e-05 0.000408922 8.88085e-13 3.64425e-12 -8.35311e-13 5e-05 1.46608e-10 
37 1 0.0398013 0.016968 0.00737504 0.00614096 3.52476e-05 0.000241714 1.38984e-11 -9.69309e-11 3.74391e-11 5e-05 1.46608e-10 
38 1 0.0399673 0.0172818 0.00727423 0.0061526 6.37524e-05 0.00023321 3.51891e-10 5.83172e-11 7.83294e-12 5e-05 1.46608e-10 
39 1 0.0457276 0.0171078 0.00761442 0.00573157 -6.07629e-05 0.000408047 1.74675e-11 -3.53434e-12 -2.1674e-11 5e-05 1.46608e-10 
41 1 0.0396088 0.0164967 0.00759926 0.00570465 1.09812e-05 -0.000173481 -2.2272e-10 2.69892e-10 4.38865e-10 5e-05 1.46608e-10 
42 1 0.0398128 0.0173997 0.00722738 0.00618195 6.65103e-05 0.000231162 7.14802e-11 -9.13037e-11 5.15114e-11 5e-05 1.46608e-10 
44 1 0.0399914 0.0173776 0.00724234 0.00614758 7.9166e-05 0.000226695 6.47385e-10 -2.85991e-10 1.05481e-10 5e-05 1.46608e-10 
45 1 0.0455434 0.0162547 0.00783382 0.00558596 -0.000295401 -0.000527876 5.87179e-13 4.07477e-12 -1.47435e-12 5e-05 1.46608e-10 
46 1 0.0456195 0.0166355 0.0077379 0.00561104 -0.000302012 -0.000528864 5.30646e-12 1.92053e-12 -2.14773e-12 5e-05 1.46608e-10 
47 1 0.0396284 0.0165842 0.00755493 0.00571353 1.13494e-05 -0.000122347 -1.79828e-10 -6.77902e-10 -3.31954e-10 5e-05 1.46608e-10 
48 1 0.0398562 0.017585 0.00716559 0.00616146 -3.79954e-05 0.000266441 -7.39784e-11 -5.59236e-10 1.95076e-10 5e-05 1.46608e-10 
49 1 0.0455996 0.0165405 0.00776193 0.00551694 -0.000281035 -0.000523638 7.01219e-12 3.15613e-12 -1.23914e-12 5e-05 1.46608e-10 
50 1 0.0399214 0.0178632 0.00707284 0.00624158 9.46792e-05 0.0002252 -3.732e-11 -1.31703e-10 4.67848e-11 5e-05 1.46608e-10 
51 1 0.0398997 0.0177705 0.00710373 0.00620998 6.02203e-05 0.000233822 -1.09895e-10 -3.8651e-10 1.10627e-10 5e-05 1.46608e-10 
52 1 0.0336044 0.0165074 0.00765228 0.00564398 0.000106467 0.000223123 6.03062e-10 7.50863e-10 -5.92292e-10 5e-05 1.46608e-10 
53 1 0.0456624 0.0168248 0.00768968 0.0057214 -0.000328685 -0.000534634 -1.03597e-11 -2.91056e-12 1.52309e-11 5e-05 1.46608e-10 
54 1 0.0396469 0.016329 0.00780484 0.0056084 0.000129907 0.000127479 1.1179e-10 1.32646e-11 -1.14916e-10 5e-05 1.46608e-10 
55 1 0.0333927 0.0157355 0.00839357 0.00566146 -0.000270809 7.43389e-06 -2.84809e-10 7.88627e-11 -7.00895e-11 5e-05 1.46608e-10 
56 1 0.039823 0.0170607 0.00734415 0.00617156 6.34404e-05 0.000233073 2.745e-13 1.30207e-10 -3.4021e-11 5e-05 1.46608e-10 
57 1 0.045562 0.01635 0.00780986 0.00556925 -0.000292017 -0.000526706 -1.48347e-12 4.80365e-12 -1.8714e-12 5e-05 1.46608e-10 
59 1 0.0398777 0.016906 0.00739949 0.00578509 0.00013114 0.000206505 -1.16961e-10 1.91134e-10 -7.5775e-11 5e-05 1.46608e-10 
60 1 0.0398991 0.0169987 0.00736859 0.00603663 8.58901e-05 0.000215408 2.76563e-11 2.01956e-10 -1.04985e-10 5e-05 1.46608e-10 
61 1 0.039589 0.0164277 0.00767427 0.00568679 0.000152667 0.000100757 1.94167e-10 1.5429e-10 -1.4971e-10 5e-05 1.46608e-10 
62 1 0.0400134 0.0174706 0.00721133 0.0061336 6.7595e-05 0.000230156 4.85281e-10 -5.77417e-10 2.03259e-10 5e-05 1.46608e-10 
63 1 0.039953 0.0176163 0.00715887 0.00617392 5.08623e-05 0.000238408 -6.69279e-11 -2.07231e-10 6.34293e-11 5e-05 1.46608e-10 
64 1 0.0456842 0.0169194 0.00766555 0.00572164 -0.000331339 -0.000540276 2.14345e-11 -5.24713e-11 -1.92023e-10 5e-05 1.46608e-10 
65 1 0.0337183 0.0166287 0.00760401 0.00558686 -3.34541e-07 0.000254823 -3.84508e-12 -6.37172e-11 1.18648e-11 5e-05 1.46608e-10 
66 1 0.03366 0.0163581 0.00772066 0.00555294 -2.67042e-05 0.000269537 -6.67298e-10 6.12783e-10 6.25278e-10 5e-05 1.46608e-10 
67 1 0.0401087 0.0175003 0.00720508 0.00613113 0.000105962 0.000216691 4.93621e-10 -2.40198e-10 1.07848e-10 5e-05 1.46608e-10 
68 1 0.0400792 0.0177498 0.00711827 0.00623441 -1.92434e-05 0.00026347 -1.26637e-10 3.65385e-10 -1.67082e-10 5e-05 1.46608e-10 
69 1 0.0397426 0.0166993 0.00749414 0.00569883 -3.67738e-05 -0.000139149 8.42144e-11 -6.85989e-11 2.03858e-11 5e-05 1.46608e-10 
70 1 0.0457493 0.0172013 0.00758657 0.00573711 -6.07409e-05 0.000407018 -1.38611e-12 -1.1648e-11 6.77412e-12 5e-05 1.46608e-10 
71 1 0.0333725 0.0156704 0.0084668 0.00572605 -0.000290889 2.6298e-05 -1.0418e-10 -3.86343e-11 4.67093e-11 5e-05 1.46608e-10 
72 1 0.0400572 0.0176568 0.00714928 0.00617626 5.7713e-05 0.000235751 -1.89002e-10 -2.9041e-11 2.99727e-12 5e-05 1.46608e-10 
73 1 0.0397065 0.0169362 0.00738203 0.00563616 0.000129552 0.000190454 -6.23848e-11 -1.57391e-10 -1.59621e-11 5e-05 1.46608e-10 
74 1 0.0399097 0.017431 0.00722064 0.00616107 5.01857e-05 0.000234238 3.94148e-10 -3.88388e-10 1.4994e-10 5e-05 1.46608e-10 
76 1 0.0339519 0.0176086 0.00716327 0.00616403 -0.000391536 0.000128442 -9.62463e-11 1.06451e-10 1.06436e-10 5e-05 1.46608e-10 
77 1 0.0401352 0.0184452 0.00688196 0.00580573 8.90427e-05 0.000193464 -1.57348e-12 7.73432e-11 -1.03213e-10 5e-05 1.46608e-10 
78 1 0.0334508 0.015931 0.00817358 0.00557658 -0.000214196 -5.08136e-05 -6.32247e-11 1.72218e-10 -1.7716e-10 5e-05 1.46608e-10 
79 1 0.0336431 0.0166876 0.00757459 0.00556472 -2.93343e-05 0.000266145 1.66801e-11 -3.92125e-11 1.10114e-11 5e-05 1.46608e-10 
80 1 0.0399845 0.0181414 0.00697997 0.005755 0.000102661 0.000204235 -2.33772e-10 -1.32049e-10 1.40376e-10 5e-05 1.46608e-10 
81 1 0.033585 0.0164173 0.00769113 0.00564559 5.79283e-05 0.000224939 -6.88418e-10 1.06641e-10 -2.05712e-11 5e-05 1.46608e-10 
82 1 0.0337265 0.0170473 0.0074198 0.0060253 -0.000176626 0.000349968 -4.96569e-12 1.04331e-10 -9.01751e-11 5e-05 1.46608e-10 
83 1 0.0337177 0.0162335 0.00783112 0.00560153 -0.000249081 0.000138226 5.42802e-10 -2.98299e-10 3.37853e-10 5e-05 1.46608e-10 
84 1 0.0457927 0.0173885 0.00753089 0.00574706 -6.16572e-05 0.000408328 2.03289e-12 2.02403e-12 -7.95398e-13 5e-05 1.46608e-10 
85 1 0.0335461 0.0159507 0.00814681 0.00536656 -0.0001983 -5.82142e-05 2.97337e-10 1.16723e-10 -1.69819e-10 5e-05 1.46608e-10 
86 1 0.0399745 0.0177094 0.00712957 0.00619049 5.47709e-05 0.000235099 3.4357e-12 -8.00584e-11 2.09402e-11 5e-05 1.46608e-10 
87 1 0.0398572 0.0168156 0.00743705 0.00560093 0.000140081 0.000158094 1.15811e-11 1.07051e-10 -1.11765e-10 5e-05 1.46608e-10 
88 1 0.0400396 0.0184131 0.00688901 0.00583843 0.000109082 0.000208042 3.71703e-11 -8.2619e-11 2.11872e-10 5e-05 1.46608e-10 
89 1 0.0400039 0.0182365 0.00695588 0.00571548 0.000101427 0.000192286 -1.15951e-10 1.078e-11 3.56465e-10 5e-05 1.46608e-10 
90 1 0.0400406 0.0172185 0.00729897 0.00612278 3.74688e-05 0.00024019 2.39732e-10 8.69825e-11 -2.99363e-12 5e-05 1.46608e-10 
91 1 0.0336625 0.0167781 0.0075356 0.00555726 -1.40086e-05 0.000258259 -1.57734e-10 -1.64816e-10 6.23447e-11 5e-05 1.46608e-10 
92 1 0.0401228 0.0179354 0.00705638 0.00630577 -2.58305e-06 0.000262793 -2.44543e-11 6.23335e-10 -1.75158e-10 5e-05 1.46608e-10 
93 1 0.0400984 0.0182661 0.00694189 0.00570706 9.0403e-05 0.000194844 -6.25498e-11 5.6864e-10 -1.8409e-10 5e-05 1.46608e-10 
94 1 0.0401814 0.0182144 0.00696305 0.005673 7.3627e-05 0.000206847 9.76911e-11 6.41491e-10 -2.77523e-10 5e-05 1.46608e-10 
95 1 0.0399648 0.0180484 0.00701106 0.00618767 1.53594e-05 0.000246761 -3.52235e-10 -4.85794e-10 6.10397e-11 5e-05 1.46608e-10 
96 1 0.0401427 0.0180283 0.0070253 0.00598548 7.25265e-05 0.000221999 1.5809e-09 -5.01534e-10 2.75505e-10 5e-05 1.46608e-10 
97 1 0.0335459 0.016264 0.00781333 0.00556973 -0.000138145 -4.78382e-05 -6.47634e-11 -3.15681e-10 4.12164e-10 5e-05 1.46608e-10 
98 1 0.0400594 0.0185095 0.00687124 0.0058581 7.11517e-05 -3.02847e-05 1.73902e-12 2.99581e-12 1.80691e-10 5e-05 1.46608e-10 
99 1 0.0336989 0.0165386 0.00764285 0.00563283 -1.26661e-06 0.000251982 5.98756e-11 -2.66404e-10 -3.50682e-11 5e-05 1.46608e-10 
100 1 0.0399992 0.017035 0.00736024 0.00607188 -4.74339e-06 0.000253721 1.56692e-11 4.37715e-10 -1.75196e-10 5e-05 1.46608e-10 
101 1 0.0336411 0.0162784 0.00777812 0.00549801 -0.000235073 6.78381e-07 -2.15745e-10 -3.97964e-10 3.30802e-10 5e-05 1.46608e-10 
102 1 0.0643568 0.0187248 0.00531097 4.22903e-15 1.05412e-14 8.29566e-14 1.8919e-21 -5.44388e-22 -3.45348e-23 5e-05 1.46608e-10 
103 1 0.24257 0.0191927 0.00520306 3.50616e-22 2.24983e-22 -1.2867e-21 3.23117e-27 0 0 5e-05 1.46608e-10 
104 1 0.0339624 0.0172873 0.00732471 0.00612351 -0.000231292 0.000378951 4.35557e-11 1.62841e-10 -1.78905e-10 5e-05 1.46608e-10 
105 1 0.0335077 0.0161267 0.00795345 0.00552623 -0.000158362 -0.000110875 -1.9816e-11 -2.51355e-11 -2.07724e-10 5e-05 1.46608e-10 
106 1 0.0340369 0.0172277 0.00735439 0.0061376 -0.000237511 0.000382955 -2.94448e-11 1.91448e-10 -1.60778e-10 5e-05 1.46608e-10 
107 1 0.0334702 0.0159961 0.00810026 0.0054386 -0.000178577 -8.37793e-05 -4.52227e-10 1.85607e-10 -1.89902e-10 5e-05 1.46608e-10 
108 1 0.0397817 0.0168749 0.00740618 0.00564444 0.000134539 0.000189334 1.4008e-10 -3.95695e-11 -1.11605e-11 5e-05 1.46608e-10 
109 1 0.039878 0.0176778 0.00713466 0.00618843 1.62943e-05 0.00024872 -1.99181e-10 -6.70652e-10 2.1031e-10 5e-05 1.46608e-10 
110 1 0.0402176 0.0179667 0.00704954 0.00615709 0.000168115 0.000196012 4.8822e-10 -1.43303e-09 5.14081e-10 5e-05 1.46608e-10 
111 1 0.0401005 0.0187049 0.00687853 0.0058509 3.98598e-05 -0.000260404 6.09267e-11 -5.05729e-10 -2.36603e-11 5e-05 1.46608e-10 
112 1 0.0335664 0.016339 0.00775044 0.00555245 -1.8486e-05 0.000143129 -8.10393e-10 -1.74118e-10 5.36591e-10 5e-05 1.46608e-10 
113 1 0.0341845 0.0171068 0.0074144 0.00607752 -0.000306492 0.00041014 -2.79199e-10 1.20569e-10 -4.41683e-11 5e-05 1.46608e-10 
114 1 0.0338977 0.0170182 0.00744042 0.00603352 -0.000185147 0.000357814 -9.54025e-11 7.25614e-12 -4.65185e-11 5e-05 1.46608e-10 
115 1 0.0399314 0.0175236 0.00718976 0.00615986 4.14402e-05 0.000239396 2.86567e-10 -4.27369e-10 1.38057e-10 5e-05 1.46608e-10 
116 1 0.0397622 0.0167869 0.00744979 0.00568679 -7.69596e-06 -0.000153623 1.54523e-11 -6.47084e-11 8.09584e-11 5e-05 1.46608e-10 
117 1 0.039628 0.0162684 0.00788209 0.00555295 0.000129465 0.000132066 1.19432e-10 -1.49511e-11 1.28518e-11 5e-05 1.46608e-10 
118 1 0.0334122 0.0158006 0.00832026 0.00558602 -0.000244769 -1.75626e-05 -6.23308e-11 2.05747e-10 -2.22394e-10 5e-05 1.46608e-10 
119 1 0.0399198 0.0170914 0.00733759 0.00614311 8.1567e-05 0.000221849 -1.0233e-10 1.79734e-10 -9.44721e-11 5e-05 1.46608e-10 
120 1 0.0394962 0.0161245 0.00806087 0.0054663 0.000197852 3.45343e-05 8.09486e-11 -1.53766e-10 2.36352e-10 5e-05 1.46608e-10 
121 1 0.039459 0.0160032 0.00821551 0.00555674 0.000218964 1.21296e-05 5.2175e-11 -1.99925e-10 2.59759e-10 5e-05 1.46608e-10 
122 1 0.0402373 0.0180599 0.00701839 0.00567661 0.000524795 5.42523e-05 -7.26672e-10 3.77138e-10 -1.65705e-10 5e-05 1.46608e-10 
123 1 0.0335836 0.0160812 0.008 0.00546561 -0.000205117 -5.21996e-05 -2.31016e-10 6.38857e-11 -9.89953e-11 5e-05 1.46608e-10 
124 1 0.0400595 0.0180798 0.00700422 0.00605498 0.000138079 0.000204221 6.9353e-11 -4.43653e-10 1.18456e-10 5e-05 1.46608e-10 
125 1 0.0396092 0.0162078 0.00795937 0.0055362 0.000127633 0.000130437 9.54347e-11 -1.63088e-10 2.42925e-10 5e-05 1.46608e-10 
126 1 0.0398345 0.0174924 0.00719647 0.00616297 -7.04625e-06 0.00025577 -2.11949e-11 -5.08829e-10 1.73483e-10 5e-05 1.46608e-10 
127 1 0.0335266 0.016193 0.00788111 0.0055766 -0.000177448 -0.000125486 -1.28834e-10 -2.27604e-10 6.50972e-11 5e-05 1.46608e-10 
128 1 0.0399431 0.0179558 0.00704194 0.00626454 4.52338e-05 0.00024716 4.61653e-12 -1.46137e-11 -6.52647e-11 5e-05 1.46608e-10 
129 1 0.0400253 0.018334 0.00694849 0.00573192 9.22912e-05 0.000156654 -1.77359e-10 -1.99681e-10 -2.87603e-11 5e-05 1.46608e-10 
130 1 0.0338231 0.0170778 0.00741074 0.00604215 -0.000201176 0.000364068 2.54846e-11 9.21468e-11 -5.15073e-11 5e-05 1.46608e-10 
131 1 0.0336796 0.0164485 0.0076817 0.00546137 -1.18228e-05 0.00025507 -2.83545e-10 4.83947e-10 -2.24669e-10 5e-05 1.46608e-10 
132 1 0.0400396 0.0179867 0.00703534 0.00629593 6.77706e-05 0.000239428 -1.61276e-10 7.47499e-10 -3.20157e-10 5e-05 1.46608e-10 
133 1 0.0397787 0.0164732 0.00762558 0.00572106 0.000140679 0.000153994 3.50753e-10 4.46169e-10 1.1806e-10 5e-05 1.46608e-10 
134 1 0.0399453 0.0171889 0.00730519 0.00611756 6.21901e-05 0.000228878 1.49821e-10 2.01673e-10 -7.26075e-11 5e-05 1.46608e-10 
135 1 0.0395905 0.0161471 0.00803667 0.00548362 0.000141367 0.000109979 1.79243e-10 -2.69862e-10 3.78365e-10 5e-05 1.46608e-10 
136 1 0.0335267 0.0158855 0.00822013 0.00540167 -0.000205453 -5.13717e-05 -3.42964e-11 1.30612e-10 -1.33029e-10 5e-05 1.46608e-10 
137 1 0.0401208 0.0188024 0.0068869 0.00559924 8.55424e-05 -0.000236911 6.69243e-11 -3.82516e-10 -1.08345e-11 5e-05 1.46608e-10 
138 1 0.0397231 0.0166135 0.00754165 0.00572663 2.82433e-05 -7.34742e-05 -5.47291e-11 4.15571e-10 9.35288e-11 5e-05 1.46608e-10 
140 1 0.0402568 0.0181533 0.00698712 0.00561923 -2.25934e-05 0.000239975 9.81786e-11 1.88746e-10 -5.18665e-11 5e-05 1.46608e-10 
141 1 0.0335651 0.0160159 0.00807343 0.00541957 -0.000200458 -5.93963e-05 1.40402e-10 2.0623e-10 -1.8471e-10 5e-05 1.46608e-10 
142 1 0.0339192 0.0171079 0.00740185 0.00606726 -0.000210312 0.000368648 9.20138e-11 1.87965e-10 -5.16108e-11 5e-05 1.46608e-10 
143 1 0.0334892 0.0160614 0.00802688 0.00541164 -0.000157698 -0.000100861 -7.83996e-11 1.64471e-10 -1.55428e-10 5e-05 1.46608e-10 
144 1 0.0338761 0.0169285 0.00747898 0.0060176 -0.000178765 0.000355596 -2.7989e-10 -2.85896e-10 9.37176e-11 5e-05 1.46608e-10 
146 1 0.0337367 0.0163077 0.00776684 0.00557612 -0.000174514 0.000239064 -6.97952e-10 -1.04717e-10 -1.01566e-10 5e-05 1.46608e-10 
147 1 0.0335073 0.0158203 0.00829346 0.005598 -0.00023657 -2.74916e-05 9.83841e-11 1.20636e-10 -1.40415e-10 5e-05 1.46608e-10 
148 1 0.0337912 0.0173164 0.00730408 0.00607872 -0.000179706 0.000355579 -4.63414e-12 1.63697e-10 -7.22396e-11 5e-05 1.46608e-10 
149 1 0.0403182 0.0182295 0.00696352 0.0056428 -2.27502e-05 0.000239325 -3.24815e-10 2.77812e-11 1.37436e-11 5e-05 1.46608e-10 
150 1 0.0337744 0.0164789 0.00767264 0.00565461 -0.000149566 0.000321964 -2.47109e-12 -9.634e-11 -1.47057e-10 5e-05 1.46608e-10 
151 1 0.0340892 0.0170775 0.00742297 0.00609225 -0.000282286 0.000400938 -9.41671e-11 1.84349e-10 -4.5383e-11 5e-05 1.46608e-10 
153 1 0.0336222 0.0162125 0.00785233 0.00551606 -0.000188576 -6.26784e-05 5.2152e-11 4.59232e-11 -7.90594e-11 5e-05 1.46608e-10 
154 1 0.0338878 0.0173469 0.00729503 0.00611233 -0.00021276 0.000371783 3.40095e-11 1.2504e-10 -1.32425e-10 5e-05 1.46608e-10 
155 1 0.0339733 0.0176963 0.00712015 0.0062677 -0.000372393 7.59884e-05 2.28314e-10 1.45425e-10 2.39812e-10 5e-05 1.46608e-10 
156 1 0.0338662 0.0172572 0.00733363 0.00610145 -0.000212421 0.00036519 2.55856e-11 1.26633e-10 -1.36358e-10 5e-05 1.46608e-10 
157 1 0.0219312 0.0187687 0.00551176 -3.83743e-14 8.16534e-14 2.95886e-13 -4.19303e-22 -1.56285e-22 1.65436e-24 5e-05 1.46608e-10 
158 1 0.0339838 0.0173757 0.00728323 0.00614559 -0.000334481 0.000187334 1.63775e-10 1.48639e-10 -8.92273e-11 5e-05 1.46608e-10 
159 1 0.0401009 0.0178425 0.00708735 0.00627788 -3.48524e-05 0.000267556 -1.34541e-10 5.44604e-10 -9.09906e-11 5e-05 1.46608e-10 
160 1 0.0338769 0.017668 0.00713408 0.0061839 -0.000337671 7.90376e-05 -4.9163e-11 -1.83401e-11 -3.29847e-10 5e-05 1.46608e-10 
162 1 0.0339092 0.0174356 0.00725405 0.00613066 -0.000265092 0.000291505 1.90673e-11 3.82805e-11 9.65322e-11 5e-05 1.46608e-10 
164 1 0.0341284 0.0179852 0.00696782 0.00561097 -0.000226566 2.65359e-05 1.89926e-11 1.35893e-10 -1.18978e-10 5e-05 1.46608e-10 
165 1 0.0341544 0.0173424 0.00729623 0.0061924 -0.000357249 8.82217e-05 -8.24394e-11 -1.15793e-10 1.00607e-10 5e-05 1.46608e-10 
166 1 0.0397418 0.0163519 0.00778026 0.00562232 9.40021e-05 0.000167028 -2.71147e-10 8.3693e-11 -1.73596e-10 5e-05 1.46608e-10 
167 1 0.0337546 0.0163889 0.00771137 0.00556235 -0.000127687 0.000302202 -7.79291e-10 2.01879e-10 2.54429e-10 5e-05 1.46608e-10 
168 1 0.0340584 0.0173159 0.0073124 0.00617079 -0.000365514 9.57475e-05 9.96348e-11 6.3097e-12 -4.10427e-10 5e-05 1.46608e-10 
169 1 0.0342073 0.0171957 0.00737046 0.00611315 -0.000436082 0.000130275 -1.51416e-10 2.03616e-10 -1.71774e-10 5e-05 1.46608e-10 
170 1 0.0341011 0.0174891 0.00722202 0.00626934 -0.000377457 9.77756e-05 2.1846e-11 2.63182e-10 -1.56103e-10 5e-05 1.46608e-10 
171 1 0.0397597 0.0164126 0.00770283 0.00569312 0.000100536 0.000153864 2.68557e-10 3.17165e-11 -1.36234e-10 5e-05 1.46608e-10 
172 1 0.0341329 0.0172555 0.00734102 0.0061663 -0.000380435 8.75281e-05 2.58063e-11 3.14725e-10 -1.94718e-10 5e-05 1.46608e-10 
173 1 0.0400822 0.0169834 0.00738138 0.0059756 -0.000142173 0.00029604 -3.01271e-10 1.01578e-10 -5.24294e-11 5e-05 1.46608e-10 
174 1 0.0340265 0.017549 0.00719284 0.00620804 -0.000405614 0.000105254 -3.79113e-11 2.23275e-10 -3.69975e-10 5e-05 1.46608e-10 
175 1 0.0277994 0.0173305 0.00723798 0.00612213 -0.000413697 0.000173216 9.05917e-12 -1.89563e-11 5.13565e-12 5e-05 1.46608e-10 
176 1 0.0338446 0.0171675 0.00737217 0.00606986 -0.00020086 0.000360919 7.43563e-11 1.20943e-10 -9.0605e-11 5e-05 1.46608e-10 
177 1 0.0339196 0.0178417 0.00704455 0.0062049 -0.000352349 8.74836e-05 1.74178e-10 1.31157e-10 -8.52806e-11 5e-05 1.46608e-10 
178 1 0.034163 0.0170171 0.00745297 0.0061342 -0.000256931 0.000391452 -2.246e-10 1.1444e-10 -7.66746e-11 5e-05 1.46608e-10 
179 1 0.034199 0.0175181 0.00720564 0.00651221 -0.000211481 3.87696e-06 -1.86935e-10 1.04092e-10 -2.46156e-11 5e-05 1.46608e-10 
181 1 0.0338343 0.0174944 0.00722379 0.00612037 -0.000191106 0.000355952 1.37285e-10 2.29522e-10 1.28971e-10 5e-05 1.46608e-10 
182 1 0.0397033 0.016531 0.00759455 0.00571331 0.000145943 0.000110746 -4.24482e-11 -3.77364e-11 -4.95739e-11 5e-05 1.46608e-10 
183 1 0.0340798 0.0174023 0.0072668 0.00617256 -0.000379582 0.000100517 -1.26247e-10 -1.34695e-10 -5.32117e-11 5e-05 1.46608e-10 
184 1 0.0400416 0.0178742 0.00716132 0.00627076 -6.36784e-05 0.000263361 -4.23278e-10 4.91617e-10 -2.17867e-10 5e-05 1.46608e-10 
185 1 0.0337696 0.0172267 0.00734265 0.0060627 -0.000178833 0.000353509 -4.98516e-11 1.81498e-11 -2.98125e-11 5e-05 1.46608e-10 
186 1 0.0338128 0.0174061 0.00726551 0.00610594 -0.00017777 0.000369955 5.79038e-11 1.98223e-10 -1.68892e-10 5e-05 1.46608e-10 
187 1 0.039974 0.016937 0.00739284 0.00597013 -9.75187e-07 0.000247515 -2.49701e-10 4.63577e-11 -3.83953e-13 5e-05 1.46608e-10 
188 1 0.0402423 0.0182901 0.00693958 0.00568956 3.02318e-05 0.000227663 -3.30426e-11 2.3932e-10 -1.20075e-10 5e-05 1.46608e-10 
189 1 0.0399496 0.017083 0.00743266 0.00610719 7.87598e-05 0.00022659 2.79531e-11 3.27051e-10 -1.67966e-10 5e-05 1.46608e-10 
190 1 0.0278747 0.0172667 0.00725373 0.00612974 -0.000403562 0.00017084 3.61507e-11 -1.86747e-11 5.25709e-12 5e-05 1.46608e-10 
191 1 0.0401405 0.0189001 0.00689531 0.00559826 6.78118e-05 -0.000243369 3.5124e-11 -6.53129e-11 1.50414e-12 5e-05 1.46608e-10 
192 1 0.0339938 0.0170483 0.00743153 0.00605266 -0.00023877 0.00037991 2.31234e-10 2.95624e-10 -1.35252e-10 5e-05 1.46608e-10 
193 1 0.0398376 0.0167269 0.00747885 0.00568881 3.50612e-05 3.59243e-06 9.64308e-11 1.02789e-10 4.80991e-11 5e-05 1.46608e-10 
194 1 0.0338134 0.016659 0.00759494 0.00588213 -0.000194867 0.0003549 -2.94801e-10 1.9368e-10 -1.35545e-11 5e-05 1.46608e-10 
195 1 0.0341757 0.0174293 0.00725143 0.00634354 -0.000333803 6.95473e-05 -1.79148e-10 -8.55772e-11 -7.95707e-11 5e-05 1.46608e-10 
196 1 0.0333113 0.0154754 0.00868639 0.00567834 -0.000293572 3.19186e-05 4.00414e-11 3.03855e-11 -3.32568e-11 5e-05 1.46608e-10 
197 1 0.0278644 0.017616 0.00717257 0.00609535 -0.000403745 0.000170558 -5.06559e-12 6.55158e-12 -7.1197e-13 5e-05 1.46608e-10 
198 1 0.0336833 0.0168679 0.00749694 0.00600898 -9.8688e-05 0.000315971 3.02002e-10 3.80384e-10 -1.64725e-10 5e-05 1.46608e-10 
199 1 0.0339307 0.017522 0.00720857 0.00614653 -0.000353431 0.000170381 8.07789e-11 9.23241e-12 6.51837e-11 5e-05 1.46608e-10 
200 1 0.0337799 0.0168984 0.00748787 0.00603318 -0.000152371 0.000330638 -4.04941e-10 3.0047e-10 -1.92755e-10 5e-05 1.46608e-10 
201 1 0.0342986 0.0179625 0.00697673 0.00559439 -0.000202715 7.471e-06 8.75437e-12 6.70035e-11 -8.7603e-11 5e-05 1.46608e-10 
202 1 0.0340154 0.017138 0.00739296 0.00610025 -0.00025159 0.000389098 -7.31617e-13 1.3302e-10 1.08771e-11 5e-05 1.46608e-10 
203 1 0.0402039 0.0175302 0.00719878 0.00615084 6.26339e-05 0.0002324 1.20441e-10 6.97421e-12 -8.82042e-12 5e-05 1.46608e-10 
204 1 0.0337584 0.0168087 0.00752644 0.00597855 -0.000120303 0.000322879 -3.22089e-10 -8.73815e-11 -1.46324e-11 5e-05 1.46608e-10 
205 1 0.0340899 0.0178101 0.00705801 0.00566293 -0.000205271 1.49569e-05 -1.2202e-11 -2.35084e-10 1.17366e-10 5e-05 1.46608e-10 
206 1 0.0340479 0.0176357 0.00714789 0.00626662 -0.000406193 0.000107218 6.98822e-13 -5.25655e-11 1.13496e-10 5e-05 1.46608e-10 
207 1 0.0336031 0.0161469 0.00792607 0.00551665 -0.000194635 -7.20184e-05 -2.52461e-10 -1.10801e-10 5.89767e-11 5e-05 1.46608e-10 
208 1 0.0340053 0.0174628 0.00723902 0.00615019 -0.000378975 0.000126702 2.74852e-11 -4.06261e-11 -5.7807e-12 5e-05 1.46608e-10 
209 1 0.033794 0.016569 0.00763377 0.00576602 -0.000166901 0.000345141 -6.32715e-10 9.75703e-11 -7.73234e-11 5e-05 1.46608e-10 
210 1 0.0397891 0.0172034 0.00738657 0.00617757 3.96056e-05 0.000234985 1.06276e-10 1.31811e-10 -1.045e-10 5e-05 1.46608e-10 
211 1 0.0401622 0.0181213 0.0069942 0.00581259 9.83134e-05 0.000206141 1.03141e-09 6.57352e-10 -1.94879e-10 5e-05 1.46608e-10 
212 1 0.0341227 0.0175761 0.00717717 0.00636181 -0.000345566 7.6271e-05 -1.16822e-10 -2.73993e-12 1.0875e-11 5e-05 1.46608e-10 
213 1 0.0399527 0.0168443 0.00742376 0.00575087 3.93172e-05 0.000222415 -2.06708e-10 1.29987e-10 -2.51603e-10 5e-05 1.46608e-10 
214 1 0.0400792 0.018173 0.00697305 0.00567518 9.73647e-05 0.000198938 2.76056e-11 2.39339e-11 -9.42e-11 5e-05 1.46608e-10 
215 1 0.0278395 0.0170869 0.00729499 0.00613759 -0.000415469 0.000173848 -1.5365e-11 -1.98772e-11 1.46693e-12 5e-05 1.46608e-10 
216 1 0.0338984 0.0177548 0.00708932 0.00623599 -0.000352425 0.000101713 3.46477e-10 1.52098e-12 -1.88918e-10 5e-05 1.46608e-10 
217 1 0.0397977 0.0165517 0.00756655 0.00568212 -4.8952e-05 -0.000134598 5.6953e-11 3.60115e-10 -4.00978e-11 5e-05 1.46608e-10 
218 1 0.0340148 0.0178694 0.00702889 0.00562835 -0.000238941 3.37534e-05 1.22245e-10 -4.74269e-12 1.72139e-11 5e-05 1.46608e-10 
219 1 0.0400799 0.0186073 0.00687051 0.00586321 6.14931e-05 -0.0003303 -1.76843e-11 -3.32505e-10 -1.14148e-10 5e-05 1.46608e-10 
220 1 0.0338556 0.0175812 0.00717891 0.00612488 -0.000271066 0.000188833 -1.21744e-10 1.53246e-10 7.42849e-11 5e-05 1.46608e-10 
221 1 0.0277698 0.0168217 0.00742884 0.00557638 -0.00032067 0.000105687 -4.5277e-12 -1.0144e-11 -1.61916e-11 5e-05 1.46608e-10 
222 1 0.0398179 0.016639 0.00752227 0.00573971 -4.0904e-05 -0.000125272 1.99815e-10 3.15142e-11 4.65398e-11 5e-05 1.46608e-10 
223 1 0.0339408 0.0171976 0.00736328 0.00610187 -0.000225187 0.000378319 1.17528e-10 2.23298e-10 -7.91076e-11 5e-05 1.46608e-10 
224 1 0.0337481 0.017137 0.00738123 0.00602707 -0.00023213 0.000376561 1.25289e-10 3.70008e-10 -1.50589e-10 5e-05 1.46608e-10 
225 1 0.0401531 0.0176871 0.00714284 0.0062635 -3.21074e-05 0.000270689 -5.51889e-10 2.12291e-10 -9.20675e-11 5e-05 1.46608e-10 
226 1 0.0341108 0.0171674 0.00738435 0.00611557 -0.000266275 0.000400615 2.38953e-11 1.91009e-10 -1.21247e-10 5e-05 1.46608e-10 
227 1 0.0278867 0.0169221 0.00734293 0.00614999 -0.000422059 0.000175365 3.7686e-11 -2.08385e-12 1.34483e-12 5e-05 1.46608e-10 
228 1 0.027821 0.0174257 0.00721617 0.00611328 -0.000410104 0.000172176 -2.50689e-12 -1.6118e-11 4.62585e-12 5e-05 1.46608e-10 
229 1 0.0337428 0.0170321 0.00751728 0.00600597 -0.000179249 0.000347746 -3.86483e-10 -1.06925e-10 -1.35982e-10 5e-05 1.46608e-10 
230 1 0.0341758 0.0181817 0.00694528 0.00564752 -0.000257078 2.50292e-05 -4.5045e-11 -4.65135e-11 -5.71335e-11 5e-05 1.46608e-10 
231 1 0.0277777 0.0172353 0.00725978 0.00613136 -0.000416829 0.000174353 1.21676e-11 -5.44098e-12 4.35901e-12 5e-05 1.46608e-10 
232 1 0.0336983 0.0161648 0.00790123 0.00552388 -0.000272727 2.97697e-05 -4.81466e-11 -3.56474e-11 5.17858e-10 5e-05 1.46608e-10 
233 1 0.0338339 0.0167489 0.00755623 0.00589005 -0.000203677 0.000356017 6.21958e-10 -2.59922e-10 1.08782e-10 5e-05 1.46608e-10 
234 1 0.0402031 0.0183766 0.00690828 0.00572685 3.94729e-05 0.000225345 -9.83294e-12 9.30599e-11 -1.8769e-11 5e-05 1.46608e-10 
235 1 0.034217 0.0183709 0.00699584 0.00574243 -0.000299099 1.4233e-05 -5.19605e-10 -1.75763e-10 -2.3618e-11 5e-05 1.46608e-10 
236 1 0.0341965 0.0182764 0.00697058 0.00570035 -0.000304618 1.19616e-05 1.25888e-10 -2.02689e-10 -5.44851e-11 5e-05 1.46608e-10 
237 1 0.0342722 0.018207 0.00695353 0.00566796 -0.000285275 1.78977e-05 -9.68209e-11 -6.33655e-11 -1.78321e-11 5e-05 1.46608e-10 
239 1 0.0275966 0.0164969 0.00770092 0.00553281 -0.000320348 0.00010893 -2.30847e-11 1.35715e-11 -1.77369e-11 5e-05 1.46608e-10 
240 1 0.0276553 0.0167232 0.00751303 0.00556675 -0.000322403 0.000109636 -1.70661e-10 3.31593e-12 -1.02957e-11 5e-05 1.46608e-10 
241 1 0.027577 0.0164214 0.00776356 0.0055222 -0.000320831 0.000109671 -1.4904e-11 1.62082e-12 -1.34184e-12 5e-05 1.46608e-10 
242 1 0.0339504 0.0168686 0.00750878 0.0059838 -0.000151025 0.00033883 -5.10016e-10 -2.73822e-10 1.17256e-10 5e-05 1.46608e-10 
243 1 0.0337376 0.0167189 0.00756512 0.00556637 -2.20585e-05 0.000263052 1.33273e-10 -3.21748e-10 1.47473e-10 5e-05 1.46608e-10 
244 1 0.0276162 0.0165723 0.00763829 0.0055337 -0.00031915 0.000107181 1.55589e-10 -3.00682e-11 2.02263e-11 5e-05 1.46608e-10 
246 1 0.0277344 0.0170451 0.00730337 0.00615003 -0.000421579 0.000174353 1.3337e-12 8.75395e-12 2.215e-12 5e-05 1.46608e-10 