ITEM: TIMESTEP
4200000
ITEM: NUMBER OF ATOMS
287
ITEM: BOX BOUNDS ff ff ff
-0.02 0.43
-0.02 0.06
-0.02 0.07
ITEM: ATOMS id type x y z vx vy vz fx fy fz radius mass 
1 1 0.0373261 0.0163399 0.00774025 0.00572133 0.000581247 -0.000447863 -3.51849e-11 2.70482e-11 -1.60462e-11 5e-05 1.46608e-10 
2 1 0.0377209 0.0172174 0.00729018 0.00654784 0.00126999 -0.000815476 -1.64037e-10 1.67498e-10 -7.92193e-11 5e-05 1.46608e-10 
3 1 0.0311286 0.0159855 0.00819396 0.00570715 2.05855e-05 0.000304892 -6.2269e-11 -1.65474e-10 1.60833e-10 5e-05 1.46608e-10 
4 1 0.0376493 0.0177394 0.00703098 0.00650869 0.0004622 -0.000289692 -6.20508e-11 5.91017e-11 -7.2578e-11 5e-05 1.46608e-10 
5 1 0.0372119 0.0162371 0.0078219 0.00570932 0.000592279 -0.000451181 8.25389e-12 1.45866e-11 -2.08051e-11 5e-05 1.46608e-10 
6 1 0.0432313 0.016302 0.0077451 0.00546073 -0.000531498 0.00040735 4.26329e-13 -2.10507e-13 1.59474e-13 5e-05 1.46608e-10 
7 1 0.037388 0.0170117 0.00740228 0.00574103 0.000577001 -0.000444518 3.82343e-11 6.42197e-11 -4.43374e-11 5e-05 1.46608e-10 
8 1 0.0371176 0.0159213 0.00819613 0.00592848 0.000564474 -0.000410362 2.64103e-12 -1.74457e-11 -2.39931e-11 5e-05 1.46608e-10 
9 1 0.0434952 0.0175093 0.00734176 0.00577568 -0.000588475 0.000440075 1.92346e-13 -3.67103e-12 -1.73485e-12 5e-05 1.46608e-10 
10 1 0.037329 0.0167494 0.00753521 0.00574749 0.000570977 -0.000443301 -2.68893e-12 1.4832e-11 -7.79609e-12 5e-05 1.46608e-10 
11 1 0.0377746 0.0174666 0.00716396 0.00629962 0.00033268 -0.000335851 -1.04146e-10 7.86774e-11 -8.86046e-11 5e-05 1.46608e-10 
12 1 0.0313189 0.0166641 0.00747926 0.00563883 -6.16648e-05 0.000284289 3.42081e-12 1.8289e-11 1.49993e-11 5e-05 1.46608e-10 
13 1 0.0371926 0.0161637 0.00788699 0.005704 0.000587995 -0.000453983 -3.00228e-11 2.24863e-11 -3.2223e-11 5e-05 1.46608e-10 
14 1 0.0310471 0.0157035 0.0084657 0.00564988 3.9212e-06 0.000318037 5.50717e-11 -3.56339e-13 1.48594e-11 5e-05 1.46608e-10 
15 1 0.0375229 0.0172151 0.00729674 0.00575492 0.000371833 -0.000343794 -5.94215e-12 8.79241e-12 -1.45123e-11 5e-05 1.46608e-10 
16 1 0.0310267 0.015633 0.00853364 0.00561343 -1.08996e-06 0.000320863 -1.39177e-10 -4.11339e-11 1.66652e-11 5e-05 1.46608e-10 
17 1 0.0373093 0.0166619 0.0075796 0.00574858 0.000571954 -0.000443599 -2.20702e-11 -1.69162e-11 9.37617e-12 5e-05 1.46608e-10 
18 1 0.0433667 0.0169533 0.00752722 0.005367 -0.000512251 0.000397154 -1.59274e-13 -2.72492e-12 7.58934e-13 5e-05 1.46608e-10 
19 1 0.0371743 0.0161031 0.00796434 0.00570843 0.00058135 -0.000454352 9.19257e-11 6.0995e-12 -1.71341e-11 5e-05 1.46608e-10 
21 1 0.0373057 0.0162517 0.00778496 0.0057084 0.000580026 -0.000447344 3.83033e-11 4.67331e-11 -2.55871e-11 5e-05 1.46608e-10 
22 1 0.0374273 0.0171866 0.00731362 0.00577762 0.000571338 -0.000443823 -4.48907e-12 5.96969e-11 -1.84321e-11 5e-05 1.46608e-10 
23 1 0.0314933 0.0170571 0.00731396 0.00563285 -4.94749e-05 0.000277419 1.13944e-10 1.32808e-11 1.3915e-11 5e-05 1.46608e-10 
24 1 0.0434307 0.0172314 0.00743447 0.0057175 -0.000578094 0.000434346 1.59476e-12 -4.17775e-12 3.81563e-13 5e-05 1.46608e-10 
25 1 0.0373682 0.0169243 0.00744657 0.00574181 0.000573622 -0.000444085 4.00626e-11 7.68722e-11 -4.24403e-11 5e-05 1.46608e-10 
26 1 0.0433083 0.0166743 0.00762057 0.00541943 -0.000522463 0.000402829 2.0255e-13 -1.38488e-12 3.82769e-13 5e-05 1.46608e-10 
27 1 0.0313971 0.0170244 0.00732399 0.00562624 -7.40251e-05 0.000288576 1.50113e-11 -6.82207e-12 -2.00611e-12 5e-05 1.46608e-10 
28 1 0.0376299 0.0176517 0.00707531 0.00638567 0.000378583 -0.000435255 -3.2564e-10 -2.94485e-12 3.18592e-10 5e-05 1.46608e-10 
29 1 0.0371555 0.0160425 0.00804162 0.0057553 0.000582874 -0.000444436 -9.18033e-11 -5.73735e-12 -6.44362e-11 5e-05 1.46608e-10 
30 1 0.0376755 0.017436 0.00718199 0.00627984 0.000409701 -0.000375783 2.74941e-10 -7.63953e-11 5.77409e-12 5e-05 1.46608e-10 
31 1 0.0374075 0.0170992 0.00735793 0.0057445 0.000579678 -0.00044607 9.54867e-12 5.69286e-11 -1.78541e-11 5e-05 1.46608e-10 
32 1 0.0375033 0.0171276 0.00734107 0.00561019 0.000388047 -0.000347763 -1.28828e-11 8.653e-12 2.18582e-12 5e-05 1.46608e-10 
33 1 0.0432505 0.0163951 0.00771396 0.00544165 -0.000527687 0.000405452 6.93711e-13 5.70866e-14 -7.49492e-14 5e-05 1.46608e-10 
34 1 0.0372897 0.0165744 0.00762386 0.00574007 0.000575032 -0.000445056 -4.75944e-11 -2.61594e-11 1.18782e-11 5e-05 1.46608e-10 
35 1 0.0374832 0.0170399 0.00738555 0.00574139 0.000574018 -0.000445908 -6.63231e-11 -6.09767e-12 1.45041e-12 5e-05 1.46608e-10 
36 1 0.0435382 0.0176953 0.00728216 0.00581485 -0.000557648 0.000568305 -8.85822e-13 -1.89404e-12 9.43205e-13 5e-05 1.46608e-10 
37 1 0.0374437 0.0168649 0.00747425 0.00574244 0.000577116 -0.000446164 9.21982e-11 1.07137e-10 -5.65603e-11 5e-05 1.46608e-10 
38 1 0.0376088 0.0171684 0.00731777 0.00565219 0.000202786 -0.000256193 -7.83808e-11 -4.47186e-11 1.00338e-11 5e-05 1.46608e-10 
39 1 0.0434522 0.017324 0.00740356 0.0057369 -0.000581541 0.000436098 -1.41587e-12 -2.22209e-12 3.70405e-12 5e-05 1.46608e-10 
41 1 0.0372507 0.0163995 0.00771252 0.00572509 0.000583878 -0.000448871 -2.27481e-11 -1.61612e-11 9.34986e-12 5e-05 1.46608e-10 
42 1 0.037447 0.0172741 0.0072693 0.00591618 0.000543159 -0.000434715 -1.20381e-11 2.22052e-11 -2.11061e-11 5e-05 1.46608e-10 
44 1 0.0376333 0.0172613 0.0072706 0.00612653 0.000582251 -0.000458941 -9.53015e-11 3.57552e-11 -1.86342e-11 5e-05 1.46608e-10 
45 1 0.0432698 0.0164882 0.00768283 0.00542282 -0.000523927 0.000403445 1.56304e-13 8.08053e-14 -3.87143e-13 5e-05 1.46608e-10 
46 1 0.0433472 0.0168603 0.00755833 0.00538476 -0.000515643 0.000399065 -3.13967e-13 -2.14999e-12 1.67584e-13 5e-05 1.46608e-10 
47 1 0.0372702 0.0164869 0.00766819 0.00572842 0.000579631 -0.000447199 -5.49607e-11 -2.20098e-11 1.14082e-11 5e-05 1.46608e-10 
48 1 0.0374887 0.0174486 0.00718102 0.00628841 0.000470737 -0.000398372 -6.12279e-12 -9.11727e-11 7.6863e-11 5e-05 1.46608e-10 
49 1 0.0433278 0.0167673 0.00758945 0.00540181 -0.000519041 0.000400951 1.91701e-13 -1.68452e-12 6.78958e-13 5e-05 1.46608e-10 
50 1 0.0375532 0.017711 0.00705072 0.00640925 0.000406779 -0.000426961 -6.19033e-11 1.29857e-10 4.03639e-10 5e-05 1.46608e-10 
51 1 0.0375306 0.0176229 0.0070924 0.00637082 0.000369891 -0.000537985 -4.34528e-11 -3.00378e-10 -2.53968e-10 5e-05 1.46608e-10 
52 1 0.0313 0.0165945 0.00754853 0.00558907 -0.000295742 3.71336e-05 -1.82425e-11 -2.28242e-11 -8.25309e-13 5e-05 1.46608e-10 
53 1 0.0433877 0.0170461 0.00749627 0.00567889 -0.000571448 0.000430261 1.08821e-12 -3.90537e-12 -3.30911e-12 5e-05 1.46608e-10 
54 1 0.0372878 0.0161864 0.00786276 0.00570557 0.00058693 -0.000451863 2.345e-11 5.82537e-11 -6.93013e-11 5e-05 1.46608e-10 
55 1 0.0310878 0.0158445 0.00832983 0.00567638 1.64815e-05 0.000306873 -1.74438e-10 -1.46695e-10 1.09602e-10 5e-05 1.46608e-10 
56 1 0.0374635 0.0169523 0.00742991 0.00574788 0.000582332 -0.000448772 7.55282e-11 8.87857e-11 -4.7526e-11 5e-05 1.46608e-10 
57 1 0.043289 0.0165812 0.00765169 0.00540336 -0.000520169 0.000401402 3.61483e-13 -6.05079e-13 6.20483e-13 5e-05 1.46608e-10 
59 1 0.0375191 0.0168053 0.00750202 0.00574942 0.000587779 -0.000451721 6.53843e-11 5.58561e-11 -2.99452e-11 5e-05 1.46608e-10 
60 1 0.0375388 0.0168927 0.0074577 0.00575242 0.000586272 -0.000451069 6.13745e-12 9.49103e-12 -4.68576e-12 5e-05 1.46608e-10 
61 1 0.0372315 0.0163146 0.00776169 0.00571853 0.000590123 -0.000448077 -1.94163e-12 5.93895e-12 -4.28635e-12 5e-05 1.46608e-10 
62 1 0.0376543 0.0173488 0.0072262 0.00627012 0.00041556 -0.000379297 1.06642e-10 2.89503e-11 -1.71826e-11 5e-05 1.46608e-10 
63 1 0.0375864 0.0174776 0.00716359 0.00629156 0.000430532 -0.000387302 1.63327e-10 -9.61022e-11 1.63834e-11 5e-05 1.46608e-10 
64 1 0.0434092 0.0171387 0.00746537 0.00569812 -0.000574751 0.000432267 -7.94992e-13 -2.18098e-12 5.77191e-12 5e-05 1.46608e-10 
65 1 0.0314137 0.0167074 0.00748733 0.0056455 -0.000107174 0.000235438 -9.4657e-12 -1.03225e-10 -1.76727e-10 5e-05 1.46608e-10 
66 1 0.0313575 0.0164794 0.00767334 0.00553466 -0.000266276 4.99528e-06 5.24281e-11 -1.46438e-11 -5.61369e-11 5e-05 1.46608e-10 
67 1 0.037754 0.0173412 0.00722729 0.00645894 0.00257495 -0.00146625 1.24571e-10 5.10449e-11 -1.23197e-11 5e-05 1.46608e-10 
68 1 0.037719 0.0176101 0.00709361 0.00638015 0.000394424 -0.000390111 -3.6195e-10 1.87159e-10 3.32756e-10 5e-05 1.46608e-10 
69 1 0.0373847 0.0166024 0.00760726 0.00574684 0.000572164 -0.000443831 -5.8363e-11 -1.94812e-11 1.25463e-11 5e-05 1.46608e-10 
70 1 0.0434737 0.0174166 0.00737266 0.00575622 -0.000584919 0.000438297 1.08585e-12 -3.23696e-12 2.29142e-12 5e-05 1.46608e-10 
71 1 0.0310674 0.015774 0.00839777 0.00566125 8.46989e-06 0.000313904 9.30639e-11 -2.67586e-11 6.32319e-11 5e-05 1.46608e-10 
72 1 0.0376965 0.0175232 0.00713776 0.00634684 0.000391317 -0.000367509 -1.79756e-10 -8.30252e-11 3.45823e-11 5e-05 1.46608e-10 
73 1 0.0373486 0.0168368 0.00749089 0.005744 0.000572354 -0.000443782 2.33822e-11 5.51634e-11 -3.15961e-11 5e-05 1.46608e-10 
74 1 0.0375439 0.0173023 0.00725251 0.00599265 0.000329458 -0.000329398 -5.93763e-12 -1.88993e-11 2.15662e-11 5e-05 1.46608e-10 
76 1 0.0316413 0.0177026 0.00708985 0.00616649 -0.000365584 -0.000162137 -4.43342e-11 -5.86241e-11 2.41906e-11 5e-05 1.46608e-10 
77 1 0.0377792 0.0182806 0.00694135 0.00644666 0.000687178 -0.000220982 1.73293e-11 -8.50446e-11 -1.08319e-11 5e-05 1.46608e-10 
78 1 0.0311487 0.016056 0.00812597 0.00568551 2.27208e-05 0.000301414 -2.32116e-10 -7.44238e-11 5.39358e-11 5e-05 1.46608e-10 
79 1 0.0313384 0.0167542 0.00744044 0.00566497 -6.8855e-05 0.000288124 8.18773e-12 4.41636e-12 -2.60182e-11 5e-05 1.46608e-10 
80 1 0.0376154 0.0179831 0.00694423 0.00648764 0.000621361 7.0388e-05 3.38926e-11 5.89395e-11 -4.94796e-11 5e-05 1.46608e-10 
81 1 0.0312807 0.0165268 0.00762467 0.00556656 -0.000252985 -4.2624e-06 -3.00715e-12 1.5953e-10 -1.42551e-10 5e-05 1.46608e-10 
82 1 0.0314166 0.0171144 0.00728518 0.00561587 -7.71536e-05 0.000290029 -3.09536e-11 -3.44674e-11 1.24456e-11 5e-05 1.46608e-10 
83 1 0.0314176 0.0163712 0.00779025 0.00545832 -0.000318937 7.0543e-05 -1.92831e-10 -7.06779e-11 1.10231e-11 5e-05 1.46608e-10 
84 1 0.0435166 0.0176019 0.00731086 0.00579492 -0.000591986 0.000442222 1.33763e-12 -3.63904e-12 1.10339e-12 5e-05 1.46608e-10 
85 1 0.0312436 0.0160812 0.00810671 0.00566625 2.56421e-05 0.000292563 -1.75922e-10 8.38358e-11 -1.19616e-10 5e-05 1.46608e-10 
86 1 0.0376074 0.0175648 0.00711937 0.00635711 0.000408184 -0.000398419 -1.66988e-10 -2.31324e-10 -1.65236e-11 5e-05 1.46608e-10 
87 1 0.0374992 0.0167176 0.00754645 0.00575948 0.000599708 -0.000457949 -3.50496e-11 -2.29039e-12 2.25576e-12 5e-05 1.46608e-10 
88 1 0.0376794 0.0182758 0.00694578 0.00643717 0.000654868 -0.00048431 1.3005e-11 -6.32045e-11 2.27197e-10 5e-05 1.46608e-10 
89 1 0.0376365 0.0180806 0.00695123 0.00646625 0.00064622 -0.000113617 -7.51931e-12 -3.65382e-11 -1.45949e-10 5e-05 1.46608e-10 
90 1 0.0376872 0.017112 0.00734385 0.00550972 3.24856e-05 -0.000166566 -8.09469e-11 -4.82573e-11 2.17883e-11 5e-05 1.46608e-10 
91 1 0.031358 0.0168443 0.00740165 0.00565849 -7.01552e-05 0.000288237 2.40115e-12 -2.86691e-11 1.97095e-11 5e-05 1.46608e-10 
92 1 0.0377597 0.0177872 0.00700963 0.00645333 0.000598147 5.26451e-05 -2.77391e-11 -2.92917e-10 1.65805e-11 5e-05 1.46608e-10 
93 1 0.037731 0.0181127 0.00692774 0.00646486 0.00061193 -0.000190552 4.87605e-11 -7.65593e-11 2.26689e-10 5e-05 1.46608e-10 
94 1 0.0378247 0.0180778 0.00692801 0.00648846 0.000646429 -0.000230431 1.38028e-10 5.76196e-11 -2.91864e-10 5e-05 1.46608e-10 
95 1 0.0375938 0.0178884 0.00696804 0.00648719 0.000620715 5.85009e-05 -2.12888e-11 1.39935e-10 1.79472e-11 5e-05 1.46608e-10 
96 1 0.0377817 0.0178799 0.00697872 0.00646393 0.000593005 6.34611e-05 2.66399e-11 -9.44869e-11 -2.57153e-11 5e-05 1.46608e-10 
97 1 0.0312437 0.0163962 0.00777153 0.00549195 -0.000246741 -7.23099e-06 -4.47095e-11 1.08775e-10 -1.07633e-10 5e-05 1.46608e-10 
98 1 0.0377087 0.018371 0.00695424 0.00641508 0.000676211 -0.00064371 2.19729e-11 -4.01551e-11 5.6156e-11 5e-05 1.46608e-10 
99 1 0.0313945 0.0166279 0.00754487 0.00559305 -0.000162954 0.000142683 3.04459e-11 -9.66989e-11 -1.97779e-10 5e-05 1.46608e-10 
100 1 0.037638 0.0169251 0.00743875 0.00572628 0.000556827 -0.000435272 -6.17701e-11 8.81648e-11 -4.5046e-11 5e-05 1.46608e-10 
101 1 0.0313389 0.016418 0.00775004 0.00550647 -0.000311985 -3.99951e-05 -9.60818e-11 -2.24961e-10 -1.98734e-10 5e-05 1.46608e-10 
102 1 0.0643568 0.0187248 0.00531097 4.28233e-15 1.05212e-14 8.29562e-14 1.2941e-21 -1.2007e-22 -5.21124e-23 5e-05 1.46608e-10 
103 1 0.24257 0.0191927 0.00520306 3.61636e-22 -1.27651e-22 -5.81428e-22 0 0 0 5e-05 1.46608e-10 
104 1 0.0316508 0.0173581 0.00719071 0.0060229 -0.000188545 0.000158637 -1.4745e-10 -3.9063e-11 7.85478e-11 5e-05 1.46608e-10 
105 1 0.0312065 0.0162653 0.00791879 0.00546282 -8.17255e-05 -0.000193807 2.76187e-11 8.94026e-11 -1.20832e-10 5e-05 1.46608e-10 
106 1 0.0317257 0.017298 0.00721829 0.00602117 -0.000114104 0.000321299 4.90948e-11 1.03242e-11 7.48965e-11 5e-05 1.46608e-10 
107 1 0.0311682 0.0161266 0.00805787 0.00562346 2.63832e-05 0.000294215 5.461e-11 -1.42695e-11 2.6547e-11 5e-05 1.46608e-10 
108 1 0.037424 0.0167773 0.00751862 0.00575111 0.000585223 -0.000450482 2.24293e-11 5.57909e-11 -2.8787e-11 5e-05 1.46608e-10 
109 1 0.0375096 0.0175357 0.00713661 0.00632324 0.000454835 -0.000408845 -8.21463e-11 -2.22233e-10 -1.95607e-11 5e-05 1.46608e-10 
110 1 0.0378601 0.0178223 0.00700172 0.00647879 0.000618211 5.53122e-05 -4.07388e-13 4.25046e-11 -1.32874e-12 5e-05 1.46608e-10 
111 1 0.0377421 0.0185671 0.00697368 0.0063728 0.000747014 -0.00106987 -5.50027e-11 -1.14793e-10 2.85628e-10 5e-05 1.46608e-10 
112 1 0.0312622 0.0164615 0.0076981 0.00552644 -0.000252403 -6.23658e-06 1.19381e-11 5.94697e-11 -9.41819e-11 5e-05 1.46608e-10 
113 1 0.0318746 0.017178 0.00727795 0.00586352 -0.000294023 0.000396396 2.42585e-11 -8.5022e-11 2.42256e-11 5e-05 1.46608e-10 
114 1 0.0315882 0.0170878 0.0073047 0.00558103 -4.12807e-05 0.000270331 -7.80147e-11 6.23997e-11 -5.83551e-12 5e-05 1.46608e-10 
115 1 0.0375648 0.0173896 0.00720822 0.0062771 0.000444616 -0.000392387 3.43459e-11 -3.28974e-11 2.38681e-11 5e-05 1.46608e-10 
116 1 0.0374044 0.0166898 0.00756295 0.00574938 0.000571772 -0.00044374 -2.90049e-11 -3.03808e-11 1.2802e-11 5e-05 1.46608e-10 
117 1 0.0372685 0.0161259 0.00793995 0.00570225 0.000588324 -0.000454971 5.42453e-11 6.5829e-11 -6.4272e-11 5e-05 1.46608e-10 
118 1 0.0311082 0.015915 0.0082619 0.00570382 2.21147e-05 0.000303644 2.91687e-11 -1.77558e-10 1.71983e-10 5e-05 1.46608e-10 
119 1 0.0375595 0.0169813 0.00741278 0.0057339 0.000566975 -0.000442738 -1.04358e-10 6.22741e-12 -6.46624e-12 5e-05 1.46608e-10 
120 1 0.037137 0.0159818 0.00811897 0.00580338 0.000576965 -0.000433895 -3.02304e-10 4.94169e-11 -8.22536e-11 5e-05 1.46608e-10 
121 1 0.0370978 0.0158607 0.00827325 0.00588853 0.000564873 -0.000414381 -6.04342e-11 2.10857e-11 -3.32584e-11 5e-05 1.46608e-10 
122 1 0.0378748 0.0179161 0.00697015 0.00648173 0.000575576 7.00758e-05 1.18007e-10 -3.97436e-11 1.20082e-11 5e-05 1.46608e-10 
123 1 0.0312825 0.016221 0.00796904 0.00555565 -4.84814e-06 0.000240214 9.86285e-11 1.92754e-11 -1.36564e-12 5e-05 1.46608e-10 
124 1 0.0376926 0.0179217 0.00696069 0.00647424 0.000603586 6.06979e-05 7.90319e-11 -1.95807e-12 8.5471e-11 5e-05 1.46608e-10 
125 1 0.0372502 0.0160652 0.00801731 0.00572106 0.000588592 -0.000452686 9.03074e-11 3.17875e-11 -5.00341e-12 5e-05 1.46608e-10 
126 1 0.037468 0.017362 0.00722659 0.00615448 0.000495314 -0.000415396 7.33062e-11 -4.17013e-11 4.1893e-11 5e-05 1.46608e-10 
127 1 0.0312251 0.0163309 0.00784495 0.00546418 -0.000240196 -1.40796e-05 6.59333e-11 8.99787e-11 -6.68418e-11 5e-05 1.46608e-10 
128 1 0.0375725 0.0177989 0.0070073 0.00646042 0.000572948 -7.13564e-05 1.87163e-12 2.48005e-10 4.15567e-10 5e-05 1.46608e-10 
129 1 0.037658 0.0181782 0.00694727 0.00645682 0.000650347 -0.000306773 -2.18343e-11 -8.50469e-11 1.75964e-10 5e-05 1.46608e-10 
130 1 0.0315129 0.0171471 0.00727514 0.0056412 -4.14226e-05 0.00027458 1.41977e-10 2.78924e-11 8.81482e-12 5e-05 1.46608e-10 
131 1 0.031376 0.0165511 0.00760618 0.00557457 -0.000219414 6.65468e-05 1.47764e-10 1.90744e-11 -6.24424e-11 5e-05 1.46608e-10 
132 1 0.0376706 0.0178288 0.00699165 0.00647192 0.00061616 6.12448e-05 2.00082e-10 1.1565e-10 2.42333e-10 5e-05 1.46608e-10 
133 1 0.0374208 0.0163676 0.00772379 0.00572324 0.000572341 -0.000443157 -4.80771e-11 6.27879e-11 -3.03056e-11 5e-05 1.46608e-10 
134 1 0.0375886 0.0170801 0.00736253 0.00559234 0.000350126 -0.00032853 7.33656e-12 -2.07275e-11 1.12245e-11 5e-05 1.46608e-10 
135 1 0.0372314 0.0160046 0.00809458 0.0057621 0.000584913 -0.000446984 -4.33216e-11 -3.61193e-12 3.02992e-13 5e-05 1.46608e-10 
136 1 0.0312235 0.0160107 0.00817466 0.00570489 2.49284e-05 0.00029828 -2.11752e-10 1.37557e-10 -1.32236e-10 5e-05 1.46608e-10 
137 1 0.0377625 0.0186636 0.00698967 0.00632423 0.000748512 -0.0010132 4.79027e-12 -4.86232e-11 -1.59074e-11 5e-05 1.46608e-10 
138 1 0.0373652 0.0165149 0.00765159 0.00574091 0.000576111 -0.000445475 -5.5602e-11 -1.68081e-11 1.11667e-11 5e-05 1.46608e-10 
140 1 0.0378962 0.0180087 0.00693924 0.00640686 0.000591648 6.67378e-05 8.17133e-11 -1.68758e-11 2.215e-11 5e-05 1.46608e-10 
141 1 0.0312633 0.0161518 0.00803863 0.00559378 3.56053e-05 0.000286724 6.55225e-11 -1.54922e-11 -4.00727e-11 5e-05 1.46608e-10 
142 1 0.031608 0.0171785 0.00726738 0.00557002 -5.8661e-05 0.000222962 -5.17331e-11 1.56808e-11 -1.70703e-11 5e-05 1.46608e-10 
143 1 0.0311876 0.0161972 0.00798978 0.00555835 2.74389e-05 0.000285163 8.62976e-11 5.63283e-11 6.45992e-11 5e-05 1.46608e-10 
144 1 0.0315684 0.0169978 0.00734349 0.00561267 -4.24936e-05 0.000273915 2.00076e-11 3.75502e-11 -2.03055e-11 5e-05 1.46608e-10 
146 1 0.0314366 0.0164365 0.00771689 0.00546624 -0.000323751 6.30589e-05 -2.04398e-10 -1.55082e-10 -6.61551e-11 5e-05 1.46608e-10 
147 1 0.0312033 0.0159401 0.00824268 0.00571792 3.52759e-05 0.000290606 -5.74045e-12 -6.36948e-11 5.59561e-11 5e-05 1.46608e-10 
148 1 0.0314771 0.0173905 0.00718562 0.00591957 -0.000330158 -0.00018384 2.63606e-13 1.6981e-10 2.02644e-10 5e-05 1.46608e-10 
149 1 0.037985 0.0180659 0.0069233 0.00636372 0.000583898 6.21838e-05 1.20621e-10 -3.93189e-11 3.74817e-11 5e-05 1.46608e-10 
150 1 0.0314718 0.0165701 0.00757234 0.00558609 -0.000142156 0.000250096 3.11687e-12 -7.15806e-11 3.89628e-11 5e-05 1.46608e-10 
151 1 0.0317793 0.0171484 0.00728668 0.0058138 -0.00017584 0.000341819 1.73562e-10 2.76056e-11 -9.45685e-13 5e-05 1.46608e-10 
153 1 0.031321 0.0163538 0.00782461 0.00552923 -0.000275237 -5.07282e-06 5.62553e-12 -1.79544e-10 -1.30565e-10 5e-05 1.46608e-10 
154 1 0.0315758 0.0174217 0.00717248 0.00597873 -0.000335114 -0.00016523 -1.58487e-10 -2.59506e-11 6.32092e-12 5e-05 1.46608e-10 
155 1 0.031663 0.0177962 0.0070623 0.0061815 -0.000364566 -0.000162819 -5.38809e-11 -6.36414e-11 2.0671e-11 5e-05 1.46608e-10 
156 1 0.0315537 0.0173279 0.0072001 0.00597313 -0.000277758 -0.000181979 -3.04681e-10 -2.91001e-11 6.81773e-11 5e-05 1.46608e-10 
157 1 0.0219312 0.0187687 0.00551176 -3.82777e-14 8.16863e-14 2.95889e-13 6.75651e-22 4.25067e-22 -3.84639e-23 5e-05 1.46608e-10 
158 1 0.0316719 0.0174516 0.00716213 0.00613445 -0.000340402 -2.29176e-05 1.46162e-10 5.82938e-11 -8.13687e-11 5e-05 1.46608e-10 
159 1 0.0377384 0.0176978 0.00704919 0.00652115 0.000384057 -0.000364165 1.4703e-11 -2.95272e-10 -1.37173e-10 5e-05 1.46608e-10 
160 1 0.0315635 0.0177653 0.00707538 0.0061744 -0.00034227 -0.000168016 -2.01611e-12 -4.69808e-11 1.96854e-11 5e-05 1.46608e-10 
162 1 0.0315969 0.0175155 0.00714492 0.00613556 -0.000370363 -0.000158079 4.66655e-12 -6.93337e-11 7.16031e-12 5e-05 1.46608e-10 
164 1 0.0318283 0.0181129 0.00696516 0.00624469 -0.000371472 -0.000163523 5.03168e-11 5.50456e-11 -1.5067e-11 5e-05 1.46608e-10 
165 1 0.031843 0.0174177 0.00717085 0.00609329 -0.000241694 0.000382823 1.27285e-10 -3.69146e-12 -7.08265e-12 5e-05 1.46608e-10 
166 1 0.0373814 0.0162103 0.0078369 0.00570988 0.000580074 -0.000444384 3.34171e-12 5.44337e-11 -6.44424e-11 5e-05 1.46608e-10 
167 1 0.0314548 0.0165026 0.0076441 0.00546315 -0.000284575 9.29061e-05 -2.136e-10 -1.28499e-10 -4.10342e-11 5e-05 1.46608e-10 
168 1 0.0317471 0.0173902 0.00718597 0.006143 -0.000240806 0.000231259 1.74609e-10 1.55729e-10 1.50731e-11 5e-05 1.46608e-10 
169 1 0.0318959 0.0172678 0.00723935 0.00603321 -0.000321579 0.000414623 1.50619e-10 -4.4083e-11 1.08124e-11 5e-05 1.46608e-10 
170 1 0.0317911 0.0175736 0.00712003 0.00614676 -0.000386469 -0.000152661 2.7133e-11 -1.63762e-11 -4.11606e-11 5e-05 1.46608e-10 
171 1 0.0374013 0.0162801 0.00776813 0.00571733 0.000577383 -0.000445054 -1.77433e-11 8.29615e-11 -3.48802e-11 5e-05 1.46608e-10 
172 1 0.0318218 0.0173279 0.00720946 0.00610029 -0.000239593 0.000381724 8.21317e-11 -4.51527e-12 4.94777e-11 5e-05 1.46608e-10 
173 1 0.0377182 0.0168708 0.00746374 0.00572078 0.000545897 -0.000429511 -7.89431e-11 8.90474e-11 -4.53512e-11 5e-05 1.46608e-10 
174 1 0.0317162 0.0176381 0.00710495 0.00615684 -0.00037701 -0.000155978 -3.09549e-11 -3.78257e-11 1.82362e-12 5e-05 1.46608e-10 
175 1 0.0254863 0.0174364 0.00721631 0.00612648 -0.000123821 5.44561e-05 -1.30687e-11 -1.07517e-10 -2.44774e-11 5e-05 1.46608e-10 
176 1 0.0315325 0.0172372 0.00723633 0.00558871 -2.57951e-05 0.000269556 -1.95626e-10 6.41092e-11 -4.63096e-11 5e-05 1.46608e-10 
177 1 0.0316069 0.0179529 0.00702018 0.00619623 -0.000353676 -0.000166516 3.8406e-12 -3.73167e-13 -1.71482e-12 5e-05 1.46608e-10 
178 1 0.0318534 0.0170883 0.00731657 0.00572466 -0.000267816 0.000378377 1.40494e-10 -1.58965e-10 7.80475e-11 5e-05 1.46608e-10 
179 1 0.0318875 0.0176025 0.00710768 0.00616993 -0.000388549 -0.000155472 -1.13443e-10 8.16121e-11 -1.36509e-11 5e-05 1.46608e-10 
181 1 0.0315201 0.0175779 0.0071305 0.00613889 -0.00037659 -0.000156181 3.874e-11 -2.31408e-11 3.18524e-11 5e-05 1.46608e-10 
182 1 0.0373456 0.0164274 0.00769592 0.00573116 0.000580149 -0.000447242 -5.53136e-11 -4.74007e-12 -3.81597e-12 5e-05 1.46608e-10 
183 1 0.0317684 0.0174805 0.00714857 0.0061277 -0.000383935 -0.000130384 6.54784e-11 5.01736e-11 1.17369e-10 5e-05 1.46608e-10 
184 1 0.0376787 0.0177234 0.00712522 0.00640527 6.0296e-05 -0.000327087 2.38519e-10 -3.26729e-10 -8.93839e-10 5e-05 1.46608e-10 
185 1 0.0314556 0.017297 0.00721361 0.00556465 -0.000255191 -0.000230241 -3.09679e-10 1.00896e-10 5.64301e-11 5e-05 1.46608e-10 
186 1 0.0314985 0.0174842 0.00715805 0.00613269 -0.000373587 -0.000158722 3.24003e-11 6.69896e-11 1.8738e-11 5e-05 1.46608e-10 
187 1 0.0376152 0.0168342 0.00748491 0.00575166 0.000585231 -0.0004505 -1.58782e-11 -1.45103e-11 8.02474e-12 5e-05 1.46608e-10 
188 1 0.0379091 0.018131 0.00692134 0.00646066 0.000688653 -0.000215538 1.56093e-10 4.64537e-11 -1.59859e-11 5e-05 1.46608e-10 
189 1 0.0375848 0.0169722 0.00750909 0.00571752 0.000562848 -0.00044171 -5.25562e-11 7.32577e-11 -3.38579e-11 5e-05 1.46608e-10 
190 1 0.02556 0.0173697 0.00722705 0.0061255 -0.000112798 4.78368e-05 6.33794e-11 -9.19652e-12 7.72303e-13 5e-05 1.46608e-10 
191 1 0.0377829 0.0187602 0.00700564 0.00627906 0.000756971 -0.000996528 -2.0504e-11 -5.53172e-11 -1.82855e-11 5e-05 1.46608e-10 
192 1 0.0316838 0.0171184 0.00729557 0.00571409 -5.14242e-05 0.000282573 2.04932e-11 -2.45385e-11 1.24833e-11 5e-05 1.46608e-10 
193 1 0.0374796 0.0166301 0.00759081 0.00575888 0.000580017 -0.000448077 -2.0272e-12 -2.96634e-11 1.48151e-11 5e-05 1.46608e-10 
194 1 0.0315091 0.0167272 0.00746012 0.00565996 -8.65632e-05 0.000295512 1.74466e-10 1.20427e-10 -6.28198e-11 5e-05 1.46608e-10 
195 1 0.0318657 0.0175088 0.00713524 0.00614256 -0.000384131 -0.000153425 4.68785e-13 -1.4901e-11 5.41844e-12 5e-05 1.46608e-10 
196 1 0.0310063 0.0155626 0.00860158 0.00559968 -8.19353e-06 0.000326879 1.2115e-10 4.00157e-11 -3.31274e-11 5e-05 1.46608e-10 
197 1 0.0255514 0.0177246 0.00716447 0.00610946 -0.000159344 -0.000158692 7.07026e-12 -2.2993e-13 1.65337e-11 5e-05 1.46608e-10 
198 1 0.0313775 0.0169343 0.00736281 0.00564248 -7.2694e-05 0.00028825 -6.72196e-12 1.44026e-11 -1.83783e-11 5e-05 1.46608e-10 
199 1 0.0316185 0.0176092 0.00711737 0.00614889 -0.000365945 -0.000161973 -5.33996e-11 -6.50892e-11 1.92082e-11 5e-05 1.46608e-10 
200 1 0.0314738 0.016967 0.00735278 0.00563135 -5.86773e-05 0.000281827 3.09016e-11 -1.83806e-11 9.05886e-12 5e-05 1.46608e-10 
201 1 0.0319939 0.0180657 0.00697145 0.00635376 -9.8609e-05 -0.000245821 -1.35019e-11 4.51425e-11 -1.44361e-11 5e-05 1.46608e-10 
202 1 0.0317048 0.0172082 0.00725694 0.00588247 -8.98194e-05 0.000306908 -2.47841e-12 -3.25547e-11 2.5107e-11 5e-05 1.46608e-10 
203 1 0.0378524 0.0173246 0.00723291 0.00730893 0.00683059 -0.00361979 1.17039e-10 3.13809e-11 -2.60253e-11 5e-05 1.46608e-10 
204 1 0.0314544 0.0168774 0.00739274 0.00565787 -6.2356e-05 0.000284566 4.08612e-11 -2.75049e-11 2.63673e-11 5e-05 1.46608e-10 
205 1 0.0317825 0.017877 0.00703418 0.00620559 -0.000377304 -0.000160199 -2.26893e-11 -1.82241e-11 5.26242e-12 5e-05 1.46608e-10 
206 1 0.0317379 0.0177317 0.0070774 0.0061718 -0.000377764 -0.000158396 -4.27944e-11 -5.14768e-12 -8.04072e-12 5e-05 1.46608e-10 
207 1 0.0313014 0.0162882 0.00789747 0.00555388 -0.000130524 0.00012952 1.21315e-10 9.98575e-11 1.34461e-10 5e-05 1.46608e-10 
208 1 0.0316935 0.0175447 0.00713263 0.0061376 -0.000380583 -0.000158555 -2.72472e-11 -3.12996e-11 -6.38526e-11 5e-05 1.46608e-10 
209 1 0.0314837 0.0166368 0.0074988 0.0056618 -9.00366e-05 0.000300921 1.07644e-10 -1.36615e-11 4.61496e-11 5e-05 1.46608e-10 
210 1 0.0374287 0.0170871 0.0074549 0.00577422 0.000595447 -0.000444833 -9.47984e-11 -9.14288e-11 6.32122e-12 5e-05 1.46608e-10 
211 1 0.0378003 0.0179782 0.00694576 0.0064808 0.000582422 6.891e-05 1.13414e-10 -5.77422e-11 4.03726e-11 5e-05 1.46608e-10 
212 1 0.0318129 0.0176673 0.00709249 0.00616294 -0.000391374 -0.000154023 -4.69195e-11 5.48695e-11 -1.86851e-11 5e-05 1.46608e-10 
213 1 0.0375943 0.0167455 0.00752987 0.00576041 0.000601878 -0.000459093 -2.97536e-11 -5.53116e-11 2.85861e-11 5e-05 1.46608e-10 
214 1 0.0377089 0.0180152 0.00692927 0.00649035 0.000610068 6.27715e-05 1.143e-10 -9.04374e-11 1.06821e-10 5e-05 1.46608e-10 
215 1 0.0255275 0.0171909 0.00725468 0.00614708 -0.000125077 5.06528e-05 5.71364e-12 -4.87344e-11 1.12922e-10 5e-05 1.46608e-10 
216 1 0.0315851 0.0178589 0.00704783 0.00618569 -0.000338005 -0.000170536 1.88992e-11 -1.86808e-11 2.34613e-12 5e-05 1.46608e-10 
217 1 0.0374403 0.0164551 0.00767946 0.00573064 0.000569156 -0.000441871 1.47815e-12 4.64429e-11 -2.14966e-11 5e-05 1.46608e-10 
218 1 0.031705 0.0179838 0.00700718 0.00621515 -0.000365758 -0.000163921 1.53666e-11 -1.49266e-11 -9.2582e-13 5e-05 1.46608e-10 
219 1 0.0377212 0.01847 0.00696193 0.00635251 0.000648167 -0.000221163 1.06115e-11 -3.27819e-11 1.26667e-11 5e-05 1.46608e-10 
220 1 0.0315418 0.0176716 0.00710293 0.00615713 -0.000352787 -0.000165037 -4.83122e-11 -9.16614e-11 2.12881e-11 5e-05 1.46608e-10 
221 1 0.0254606 0.0169184 0.00738505 0.00566814 -5.74102e-05 8.41578e-06 2.50575e-11 5.23465e-11 -8.77455e-11 5e-05 1.46608e-10 
222 1 0.0374599 0.0165426 0.00763513 0.0057405 0.000566371 -0.00044082 -4.09039e-11 3.10457e-11 -1.61344e-11 5e-05 1.46608e-10 
223 1 0.0316299 0.0172675 0.00722739 0.00590358 -9.74154e-05 0.000316604 -4.33162e-11 -4.68396e-11 -1.21189e-11 5e-05 1.46608e-10 
224 1 0.0314362 0.0172045 0.00724636 0.00560383 -7.85282e-05 0.000290394 3.10243e-11 -2.29432e-11 4.14018e-11 5e-05 1.46608e-10 
225 1 0.0377976 0.017554 0.00711954 0.00639758 0.000398115 -0.000378755 -2.48672e-10 2.3336e-10 -2.09035e-10 5e-05 1.46608e-10 
226 1 0.0318005 0.0172382 0.00724807 0.00595852 -0.000207241 0.000361838 8.98916e-12 -3.04033e-11 -9.81458e-12 5e-05 1.46608e-10 
227 1 0.0255758 0.0170273 0.00730734 0.00551996 -0.000442761 0.000285964 -1.60664e-10 2.60418e-10 -2.75059e-10 5e-05 1.46608e-10 
228 1 0.025508 0.0175329 0.00720141 0.00612096 -0.000119387 5.55264e-05 -5.57722e-11 -8.23236e-11 -1.02919e-11 5e-05 1.46608e-10 
229 1 0.0314319 0.0170977 0.00738258 0.00562311 -0.000101262 0.000288692 -6.95247e-11 -4.99054e-11 1.91061e-11 5e-05 1.46608e-10 
230 1 0.0318639 0.0182943 0.00691209 0.00603876 -0.000202689 -0.000203294 -6.49409e-11 8.77164e-11 -1.76125e-11 5e-05 1.46608e-10 
231 1 0.0254646 0.0173399 0.0072312 0.00613311 -0.000129856 5.30477e-05 5.77607e-11 -8.39882e-11 7.46885e-11 5e-05 1.46608e-10 
232 1 0.0313996 0.0163059 0.00786375 0.00547046 -0.00032325 7.48844e-05 4.03964e-11 -4.90283e-11 1.17413e-10 5e-05 1.46608e-10 
233 1 0.0315294 0.0168176 0.00742116 0.00568153 -5.9286e-05 0.000283821 5.81849e-11 5.75005e-11 -2.87006e-11 5e-05 1.46608e-10 
234 1 0.0378508 0.0182116 0.0069316 0.00643571 0.000673549 -0.000222183 7.35917e-11 -1.75941e-11 1.60956e-11 5e-05 1.46608e-10 
235 1 0.0319047 0.0184921 0.00690797 0.00569878 -0.000188807 0.000359195 -8.88188e-11 -1.11261e-10 -4.0317e-11 5e-05 1.46608e-10 
236 1 0.0318814 0.0183939 0.00688624 0.00589557 -6.79296e-05 0.0004012 2.48699e-11 6.86475e-11 4.93477e-11 5e-05 1.46608e-10 
237 1 0.031958 0.0183255 0.00689918 0.00604199 -0.000203137 -0.000202967 -2.32322e-11 -1.94406e-11 1.24163e-11 5e-05 1.46608e-10 
239 1 0.0252876 0.0165765 0.00763588 0.0056054 4.00431e-05 8.12763e-05 3.03166e-12 -6.54531e-11 7.58273e-12 5e-05 1.46608e-10 
240 1 0.0253462 0.0168127 0.00746044 0.00563978 8.11199e-06 6.00703e-05 1.10684e-10 -1.1941e-10 -2.26365e-10 5e-05 1.46608e-10 
241 1 0.0252681 0.0164981 0.00769474 0.00559186 4.31286e-05 7.81962e-05 -2.84221e-11 -2.21836e-11 2.92187e-11 5e-05 1.46608e-10 
242 1 0.0316438 0.0169384 0.00737311 0.00565647 -3.31192e-05 0.000271797 1.28623e-11 4.85015e-11 -1.38369e-11 5e-05 1.46608e-10 
243 1 0.0314346 0.0167869 0.0074304 0.0056734 -6.86365e-05 0.000288361 4.01318e-11 1.79084e-11 -1.94289e-11 5e-05 1.46608e-10 
244 1 0.0253072 0.016655 0.00757703 0.00562204 3.616e-05 8.60988e-05 -1.95665e-11 -1.09612e-11 5.75995e-11 5e-05 1.46608e-10 
246 1 0.0254244 0.0171464 0.00726124 0.00590901 -8.51107e-05 4.75953e-05 3.90146e-11 9.06365e-11 5.06969e-10 5e-05 1.46608e-10 