ITEM: TIMESTEP
38400000
ITEM: NUMBER OF ATOMS
271
ITEM: BOX BOUNDS ff ff ff
-0.02 0.43
-0.02 0.06
-0.02 0.07
ITEM: ATOMS id type x y z vx vy vz fx fy fz radius mass 
1 1 0.236459 0.0156715 0.00843279 0.0058223 0.000460488 -0.000690641 3.09982e-12 4.17874e-10 -4.15403e-10 5e-05 1.46608e-10 
2 1 0.237252 0.0181659 0.0069554 0.00565552 -0.000611754 7.83971e-05 3.44831e-11 8.53323e-12 7.93315e-13 5e-05 1.46608e-10 
3 1 0.231456 0.0182581 0.00701217 0.00593762 0.000421965 -4.29658e-05 -2.77996e-12 1.50109e-10 -4.7723e-11 5e-05 1.46608e-10 
4 1 0.237327 0.0181003 0.00696722 0.00566357 -0.000584322 7.27904e-05 -1.32196e-10 3.91665e-10 -5.12353e-11 5e-05 1.46608e-10 
5 1 0.23644 0.0156104 0.00850948 0.00593318 0.000430598 -0.000657881 -6.94723e-10 -6.0329e-11 1.79095e-10 5e-05 1.46608e-10 
6 1 0.242798 0.0170204 0.00755685 0.00596303 7.68527e-06 -2.22494e-05 1.72527e-11 2.71453e-11 -3.45453e-11 5e-05 1.46608e-10 
7 1 0.236536 0.0159176 0.00812703 0.00567278 0.000397194 -0.000610214 5.54145e-10 2.57474e-10 -3.99549e-10 5e-05 1.46608e-10 
8 1 0.23642 0.0155492 0.00858618 0.00595321 0.000377127 -0.000592814 -1.04938e-09 -5.23761e-10 6.62979e-10 5e-05 1.46608e-10 
9 1 0.24292 0.0174737 0.0071834 0.00624323 -4.64091e-05 2.26181e-05 -4.987e-11 6.69546e-11 -4.65664e-11 5e-05 1.46608e-10 
10 1 0.236958 0.0176193 0.00705987 0.00555515 -0.000632463 0.000185531 7.92385e-12 1.9826e-10 2.9367e-10 5e-05 1.46608e-10 
11 1 0.237093 0.0178427 0.00701708 0.00557871 -0.00065935 8.74214e-05 -6.02984e-11 3.68136e-10 -7.38149e-11 5e-05 1.46608e-10 
12 1 0.230516 0.0158416 0.00818015 0.00564846 0.000422403 -1.44089e-05 -4.07228e-11 4.73899e-13 8.31338e-11 5e-05 1.46608e-10 
13 1 0.23636 0.015366 0.00881591 0.00584623 0.000203599 -0.000372347 2.98345e-10 4.90656e-10 -6.18569e-10 5e-05 1.46608e-10 
14 1 0.231192 0.0187586 0.00683151 0.00581312 0.000285751 2.31753e-06 -6.34904e-11 -1.13447e-10 9.86505e-11 5e-05 1.46608e-10 
15 1 0.237304 0.0180015 0.00698592 0.00567833 -0.000712858 9.70712e-05 -1.1548e-10 -5.67188e-11 3.52262e-11 5e-05 1.46608e-10 
16 1 0.231286 0.018791 0.0068218 0.00563766 0.000326997 -1.67956e-05 -2.04131e-11 -3.16491e-11 3.33371e-11 5e-05 1.46608e-10 
17 1 0.23742 0.0181362 0.00695988 0.00564967 -0.0004764 5.24084e-05 -7.86308e-12 2.78759e-11 9.3396e-12 5e-05 1.46608e-10 
19 1 0.236401 0.0154881 0.00866282 0.00593709 0.000308893 -0.000506684 5.8888e-11 -2.71515e-10 2.95266e-10 5e-05 1.46608e-10 
21 1 0.236917 0.0174296 0.00710797 0.00617908 -0.000745765 0.000497189 5.53604e-11 2.63719e-12 -7.03325e-11 5e-05 1.46608e-10 
22 1 0.237073 0.0177464 0.00703526 0.00556524 -0.000637515 8.05488e-05 1.46331e-10 2.25127e-11 -8.17608e-11 5e-05 1.46608e-10 
23 1 0.230748 0.0164531 0.00781832 0.00593337 -9.73382e-05 -0.000326116 -2.69449e-10 4.12356e-10 -1.309e-10 5e-05 1.46608e-10 
24 1 0.243 0.0178153 0.00703008 0.00569403 5.88855e-05 1.26838e-05 1.25609e-11 1.79798e-11 -1.32797e-11 5e-05 1.46608e-10 
25 1 0.236596 0.0161057 0.00790161 0.00581431 0.000554126 -0.000446036 -2.48956e-10 -1.92479e-10 3.39229e-10 5e-05 1.46608e-10 
26 1 0.242879 0.0173226 0.00730786 0.00614098 -2.88758e-05 7.57496e-06 1.48304e-11 2.65336e-11 -1.14927e-11 5e-05 1.46608e-10 
27 1 0.231535 0.018646 0.00687717 0.0055794 0.0002871 -1.77596e-06 -1.78831e-10 4.56575e-11 -3.71673e-11 5e-05 1.46608e-10 
28 1 0.237209 0.0179697 0.00699249 0.00572701 -0.000576372 7.16641e-05 -1.33011e-10 2.26923e-10 -7.04134e-11 5e-05 1.46608e-10 
29 1 0.236555 0.0159774 0.00804922 0.00562501 0.000391268 -0.000614329 3.29718e-10 1.04065e-10 -1.0438e-10 5e-05 1.46608e-10 
30 1 0.237071 0.0179282 0.00708844 0.00562318 -0.000681967 8.5846e-05 -2.5945e-11 2.47768e-10 3.26602e-12 5e-05 1.46608e-10 
31 1 0.236612 0.0161753 0.0078317 0.0058466 0.000662672 -0.000328663 -5.14395e-11 -3.65003e-10 2.44253e-10 5e-05 1.46608e-10 
32 1 0.23705 0.017234 0.00722258 0.00618311 -0.00068928 0.000464205 -1.09114e-10 4.6042e-10 -4.81068e-11 5e-05 1.46608e-10 
33 1 0.242818 0.0170959 0.0074946 0.0060065 -1.53858e-06 -1.44089e-05 1.38256e-11 3.4697e-11 -1.14929e-11 5e-05 1.46608e-10 
34 1 0.236517 0.015855 0.00820272 0.00574192 0.000421434 -0.000642281 8.57321e-10 1.45961e-10 -2.46077e-10 5e-05 1.46608e-10 
35 1 0.237223 0.0176156 0.00705884 0.0055386 -0.000639288 8.63592e-05 3.6566e-10 2.94136e-10 -6.08016e-11 5e-05 1.46608e-10 
36 1 0.242979 0.0177175 0.00702688 0.00569657 5.96214e-05 1.16155e-05 -3.31248e-11 2.79498e-11 -9.07518e-12 5e-05 1.46608e-10 
37 1 0.237099 0.0182934 0.00693241 0.00568377 -0.000770774 0.000159395 -6.58091e-11 1.78076e-10 -6.91789e-11 5e-05 1.46608e-10 
38 1 0.237263 0.0186301 0.00686751 0.00558066 -0.000677434 0.000141692 -1.28804e-10 2.17282e-11 -5.38817e-11 5e-05 1.46608e-10 
39 1 0.24302 0.0179131 0.00703327 0.00569288 5.74036e-05 1.28447e-05 2.37238e-11 1.40364e-11 -4.87485e-12 5e-05 1.46608e-10 
41 1 0.237444 0.018235 0.00694119 0.00567585 -0.000451025 4.67094e-05 -2.44263e-10 2.20518e-10 -3.89374e-11 5e-05 1.46608e-10 
42 1 0.321436 0.0173475 0.00552525 4.55636e-16 2.25496e-15 8.46361e-14 -2.28444e-24 -2.37168e-24 0 5e-05 1.46608e-10 
44 1 0.237232 0.0180696 0.00697359 0.00568134 -0.000705376 9.20407e-05 -1.84453e-11 -4.75816e-11 5.67508e-11 5e-05 1.46608e-10 
45 1 0.242838 0.0171715 0.00743235 0.00605082 -1.11422e-05 -7.36992e-06 -3.78594e-12 3.01842e-11 -2.12174e-11 5e-05 1.46608e-10 
47 1 0.236482 0.0157322 0.00835659 0.00571592 0.000458345 -0.000689724 -4.21549e-10 4.50536e-10 -4.46574e-10 5e-05 1.46608e-10 
48 1 0.237244 0.0185337 0.00688613 0.0055632 -0.000658674 0.000145818 8.8495e-11 9.52783e-11 -3.2429e-12 5e-05 1.46608e-10 
50 1 0.236651 0.0163451 0.00773373 0.00582984 0.000647881 -0.000311876 -4.36211e-11 -1.91124e-10 7.83169e-11 5e-05 1.46608e-10 
51 1 0.236634 0.0162598 0.00778289 0.00583022 0.000659385 -0.000319763 -1.467e-10 -2.97318e-10 1.56794e-10 5e-05 1.46608e-10 
52 1 0.230449 0.0156588 0.00852799 0.00551193 0.000423562 -7.47833e-06 -2.6873e-10 -1.37218e-10 2.00046e-10 5e-05 1.46608e-10 
53 1 0.242965 0.0176241 0.00705948 0.00594733 1.08304e-05 -2.2471e-05 9.99341e-11 1.79403e-11 -4.33465e-11 5e-05 1.46608e-10 
54 1 0.237202 0.0182958 0.0070121 0.00563057 -0.000636635 9.18625e-05 7.80674e-11 -1.80861e-10 5.69597e-11 5e-05 1.46608e-10 
55 1 0.230387 0.0155216 0.00878735 0.00569677 0.000397415 6.33102e-05 9.61498e-12 -2.20071e-10 5.17675e-10 5e-05 1.46608e-10 
56 1 0.237119 0.0183896 0.00691382 0.00543621 -0.000723163 0.000144854 -2.8568e-11 2.59032e-12 -1.86907e-11 5e-05 1.46608e-10 
57 1 0.242859 0.017247 0.00737012 0.00609867 -2.0308e-05 7.83596e-07 -1.45041e-11 9.59267e-12 -2.19836e-11 5e-05 1.46608e-10 
59 1 0.237053 0.0176502 0.00705345 0.005551 -0.000621625 8.89507e-05 3.32262e-11 -1.26437e-10 8.83128e-11 5e-05 1.46608e-10 
61 1 0.236917 0.0170333 0.00733722 0.00647896 -0.000447313 0.000321236 2.67559e-10 -1.20578e-09 6.79586e-10 5e-05 1.46608e-10 
62 1 0.237395 0.0184047 0.00690965 0.00557284 -0.000698196 9.57396e-05 -1.48869e-10 -8.07654e-12 -4.82355e-11 5e-05 1.46608e-10 
63 1 0.237399 0.0180322 0.00697953 0.00558006 -0.000693099 9.32533e-05 -9.99172e-11 -8.35779e-12 5.75103e-12 5e-05 1.46608e-10 
64 1 0.243041 0.0180109 0.00703647 0.00569137 5.65267e-05 1.30148e-05 1.31533e-11 3.92874e-12 1.57528e-12 5e-05 1.46608e-10 
65 1 0.230696 0.0166024 0.00774806 0.00595971 -7.09276e-05 -0.000342289 6.85902e-11 3.5092e-10 -1.84678e-10 5e-05 1.46608e-10 
66 1 0.230366 0.0154758 0.00887375 0.00592301 0.000385708 0.000123638 -8.67911e-11 -1.18185e-10 3.60377e-10 5e-05 1.46608e-10 
67 1 0.237174 0.0182277 0.00694431 0.00564887 -0.000630556 8.17392e-05 -5.90846e-11 -5.76185e-11 6.58079e-12 5e-05 1.46608e-10 
68 1 0.23709 0.0174037 0.0071249 0.00552026 -0.000521861 0.000362536 7.51959e-10 -5.47515e-11 -1.6477e-10 5e-05 1.46608e-10 
69 1 0.237177 0.0184196 0.00699012 0.00546599 -0.0006743 9.42593e-05 -1.15099e-10 -6.08851e-11 5.57232e-11 5e-05 1.46608e-10 
70 1 0.242901 0.0173978 0.0072459 0.00617194 -3.61799e-05 1.37765e-05 5.64653e-11 3.25038e-11 -2.76464e-11 5e-05 1.46608e-10 
71 1 0.230426 0.0156131 0.0086139 0.00557205 0.000426363 2.26853e-05 -7.7421e-11 -2.42563e-10 4.3481e-10 5e-05 1.46608e-10 
72 1 0.237059 0.0181013 0.00697411 0.00565967 -0.000651115 0.000113424 9.46325e-11 9.30105e-11 7.16014e-10 5e-05 1.46608e-10 
73 1 0.237158 0.0185829 0.00687647 0.00554143 -0.000652833 0.000134185 5.86427e-11 1.85883e-10 -1.19736e-10 5e-05 1.46608e-10 
74 1 0.237226 0.0184373 0.00690466 0.00547211 -0.000658815 8.86783e-05 -2.07988e-10 1.74529e-10 -1.2935e-11 5e-05 1.46608e-10 
76 1 0.231441 0.0186123 0.00688735 0.00579307 0.000242614 1.73405e-05 9.16862e-11 -1.4709e-10 5.26348e-11 5e-05 1.46608e-10 
77 1 0.237148 0.0176811 0.00704704 0.00556873 -0.000594331 7.13561e-05 6.87766e-11 -1.23549e-10 -2.42657e-11 5e-05 1.46608e-10 
78 1 0.231174 0.0186657 0.00686384 0.00578003 0.000299774 -3.789e-06 -1.31127e-10 -7.84934e-11 -1.31405e-11 5e-05 1.46608e-10 
79 1 0.230481 0.0157505 0.00835319 0.00556519 0.000435183 -1.42785e-05 -6.67356e-11 -1.24078e-10 1.3037e-10 5e-05 1.46608e-10 
80 1 0.23737 0.0183015 0.0069292 0.00542092 -0.000687566 9.40139e-05 -9.67246e-11 6.98241e-11 -2.74196e-12 5e-05 1.46608e-10 
81 1 0.231306 0.0188895 0.00683018 0.00565218 0.00031764 -4.49076e-05 1.88573e-10 -1.90759e-11 5.05024e-11 5e-05 1.46608e-10 
82 1 0.230536 0.0159049 0.00810513 0.00568554 0.000305053 -0.000117957 -1.81502e-10 -9.17674e-11 -5.28069e-11 5e-05 1.46608e-10 
83 1 0.231232 0.018512 0.00691893 0.00580183 0.000341346 -1.66758e-05 4.63618e-13 -4.12618e-11 2.5971e-11 5e-05 1.46608e-10 
84 1 0.24294 0.0175493 0.00712115 0.00627665 -5.18289e-05 2.66824e-05 -2.99299e-11 3.68006e-11 -4.05336e-11 5e-05 1.46608e-10 
85 1 0.231475 0.0183518 0.00697954 0.00580866 0.000331088 -1.32171e-05 -2.3796e-10 6.52097e-11 -2.52888e-11 5e-05 1.46608e-10 
86 1 0.237464 0.0183336 0.00692255 0.00546836 -0.000809283 0.000118002 -1.48855e-10 -3.29488e-11 9.589e-12 5e-05 1.46608e-10 
87 1 0.237339 0.0185663 0.0068797 0.00560147 -0.000668297 8.32578e-05 -1.30427e-10 2.17006e-11 2.26732e-11 5e-05 1.46608e-10 
88 1 0.236818 0.0170217 0.00734295 0.00635574 0.000508211 -0.000235738 2.88767e-10 -3.37893e-10 1.22433e-10 5e-05 1.46608e-10 
89 1 0.23732 0.0184698 0.00689793 0.00559017 -0.000658213 8.45865e-05 -3.76846e-12 1.56451e-11 -3.91546e-10 5e-05 1.46608e-10 
90 1 0.237114 0.0179389 0.00699888 0.00561839 -0.000679302 8.57247e-05 6.90905e-12 -7.38315e-11 -2.30488e-11 5e-05 1.46608e-10 
91 1 0.23151 0.0185442 0.00691254 0.00573363 0.000194505 3.37126e-05 1.45732e-10 -1.27173e-10 4.48512e-11 5e-05 1.46608e-10 
92 1 0.237206 0.0183409 0.00692296 0.00547146 -0.000664843 7.10852e-05 8.86799e-12 1.56602e-10 7.02959e-11 5e-05 1.46608e-10 
93 1 0.23669 0.0165149 0.00763553 0.00578465 0.000630044 -0.000306512 8.60185e-11 -2.74567e-10 1.37749e-10 5e-05 1.46608e-10 
94 1 0.237164 0.0179641 0.00708154 0.00566789 -0.000656944 4.0114e-05 6.01217e-11 2.81606e-10 -4.67115e-11 5e-05 1.46608e-10 
95 1 0.237016 0.0176226 0.00714209 0.00548219 -0.000343986 0.000132527 -2.58694e-10 1.07029e-10 -1.3258e-10 5e-05 1.46608e-10 
96 1 0.23671 0.0166002 0.00758718 0.00572709 0.000640339 -0.000320914 -1.82791e-10 -3.63584e-10 1.98316e-10 5e-05 1.46608e-10 
97 1 0.230813 0.0167142 0.00768556 0.0059705 -0.00010913 -0.000320324 -1.50637e-11 2.80364e-10 -1.19681e-10 5e-05 1.46608e-10 
98 1 0.237189 0.0178735 0.00701068 0.00564034 -0.000569103 6.94299e-05 4.40825e-11 1.70404e-10 -3.2112e-11 5e-05 1.46608e-10 
99 1 0.230921 0.0171494 0.0074643 0.00603632 -8.95172e-05 -0.000335541 5.01105e-11 1.48189e-10 -6.16104e-11 5e-05 1.46608e-10 
100 1 0.237301 0.0183726 0.0069163 0.00547106 -0.000656517 8.93228e-05 -1.72396e-11 2.31602e-10 -3.79143e-11 5e-05 1.46608e-10 
101 1 0.230501 0.0158052 0.008272 0.0056591 0.000441781 4.47448e-06 -3.6664e-10 -1.65699e-10 3.54231e-11 5e-05 1.46608e-10 
102 1 0.0643568 0.0187248 0.00531097 4.49015e-15 1.04563e-14 8.29539e-14 1.53283e-21 -1.47755e-22 -5.02512e-23 5e-05 1.46608e-10 
103 1 0.24257 0.0191927 0.00520306 1.19201e-22 4.86658e-23 1.23839e-22 0 0 0 5e-05 1.46608e-10 
104 1 0.231136 0.0180473 0.0070806 0.00582431 0.000298876 8.22839e-07 -5.74633e-10 -1.6201e-10 1.98833e-11 5e-05 1.46608e-10 
105 1 0.231555 0.0187389 0.00684487 0.00559497 0.000248092 1.45396e-05 1.80745e-10 -9.15272e-11 1.18417e-11 5e-05 1.46608e-10 
106 1 0.231416 0.0180704 0.00707747 0.00584918 0.000313625 -6.12775e-06 8.75054e-11 1.14331e-10 -3.73275e-11 5e-05 1.46608e-10 
107 1 0.231396 0.0179765 0.00711011 0.00571461 0.000195361 3.28707e-05 1.24149e-10 1.27565e-10 -4.29781e-11 5e-05 1.46608e-10 
108 1 0.237189 0.0185547 0.00696705 0.00550469 -0.000719909 0.000129044 -4.44763e-10 2.07211e-10 -1.68895e-10 5e-05 1.46608e-10 
109 1 0.237378 0.017936 0.00699772 0.00566394 -0.000745446 0.0001023 -4.37249e-11 2.62307e-10 -5.57904e-11 5e-05 1.46608e-10 
110 1 0.23673 0.0166847 0.00753749 0.00581975 0.000637484 -0.000310849 -4.63811e-10 -3.44424e-10 2.23807e-10 5e-05 1.46608e-10 
111 1 0.237033 0.0175536 0.00707177 0.00548195 -0.000427563 0.000206578 -3.14608e-11 6.49882e-10 1.50942e-10 5e-05 1.46608e-10 
112 1 0.231195 0.0183257 0.00698375 0.00585201 0.000262579 1.15674e-05 1.61272e-10 1.18038e-10 -4.33432e-11 5e-05 1.46608e-10 
113 1 0.230783 0.0169505 0.00757106 0.00600886 -9.3937e-05 -0.000331794 1.78513e-10 2.93549e-10 -1.49113e-10 5e-05 1.46608e-10 
114 1 0.231156 0.0185728 0.00689617 0.00577482 0.000307873 -4.92653e-06 7.39292e-11 -8.19776e-11 1.77321e-11 5e-05 1.46608e-10 
115 1 0.237284 0.0179042 0.00700429 0.00565306 -0.000650749 8.49006e-05 6.93162e-12 4.26933e-10 -5.16069e-11 5e-05 1.46608e-10 
116 1 0.237097 0.0182759 0.00703084 0.00571596 -0.000739231 0.000166042 -7.13111e-11 1.94085e-10 -1.94749e-10 5e-05 1.46608e-10 
117 1 0.237196 0.0187758 0.00683918 0.00559823 -0.000716038 0.000148611 -6.06973e-11 -1.43943e-10 2.26592e-11 5e-05 1.46608e-10 
118 1 0.230999 0.017832 0.00715386 0.00613004 0.000154698 6.05065e-05 -6.03797e-11 -1.63887e-10 -1.09486e-11 5e-05 1.46608e-10 
119 1 0.237243 0.0177118 0.00704066 0.00557946 -0.000605478 7.67928e-05 1.82059e-10 2.71985e-10 -7.23064e-11 5e-05 1.46608e-10 
120 1 0.236579 0.0160399 0.00797503 0.00564435 0.000365286 -0.000641492 1.85808e-10 -3.74783e-11 2.47857e-10 5e-05 1.46608e-10 
121 1 0.236498 0.0157938 0.00827944 0.00572449 0.000444776 -0.000674632 -1.06739e-09 2.97443e-10 -3.51397e-10 5e-05 1.46608e-10 
122 1 0.236993 0.0173731 0.00714152 0.00598163 -0.000472399 0.000350954 -6.37601e-10 -1.62419e-10 4.87791e-11 5e-05 1.46608e-10 
123 1 0.230956 0.0176496 0.00722331 0.00611571 -2.68071e-05 -0.000314559 1.29845e-11 1.27849e-10 1.75465e-10 5e-05 1.46608e-10 
124 1 0.237013 0.017458 0.00709265 0.00567841 -0.000436546 0.000333447 1.15027e-10 -1.99485e-10 -2.96205e-11 5e-05 1.46608e-10 
125 1 0.237282 0.0187265 0.00684889 0.00564356 -0.000642889 0.000134418 -2.77055e-11 -1.80566e-10 3.80542e-11 5e-05 1.46608e-10 
126 1 0.236944 0.0171167 0.00728914 0.00655348 -0.000503192 0.000365936 -5.477e-11 -1.0038e-09 5.12255e-10 5e-05 1.46608e-10 
127 1 0.231575 0.018834 0.00681181 0.00561801 0.000386921 -3.84395e-05 1.13468e-10 2.52546e-10 -7.49416e-12 5e-05 1.46608e-10 
128 1 0.236972 0.0172882 0.00719032 0.00632475 -0.000521198 0.000374067 1.60396e-11 -3.74624e-10 2.31393e-10 5e-05 1.46608e-10 
129 1 0.237019 0.017908 0.0070053 0.00560226 -0.000645545 8.47703e-05 -1.43665e-11 1.29874e-10 -1.88136e-11 5e-05 1.46608e-10 
131 1 0.231436 0.018164 0.00704491 0.00575487 0.00016277 4.51183e-05 4.56471e-10 -1.65286e-10 6.73084e-11 5e-05 1.46608e-10 
132 1 0.237134 0.0180351 0.00698071 0.00563399 -0.000676956 9.24867e-05 7.43039e-12 2.23009e-10 -2.30368e-11 5e-05 1.46608e-10 
133 1 0.236978 0.0177156 0.00704168 0.0055628 -0.000637051 9.18842e-05 3.31206e-10 1.31794e-10 9.31354e-11 5e-05 1.46608e-10 
134 1 0.236956 0.0172027 0.00723959 0.00655873 -0.000538714 0.000386573 -1.91779e-10 -4.17536e-10 3.57718e-10 5e-05 1.46608e-10 
135 1 0.23638 0.0154271 0.00873936 0.00586984 0.00025182 -0.000433911 -1.89401e-10 3.65729e-10 -4.50072e-10 5e-05 1.46608e-10 
136 1 0.231212 0.0188565 0.00683583 0.00565508 0.000318617 -1.57067e-05 6.42734e-11 -9.92524e-11 2.11431e-10 5e-05 1.46608e-10 
137 1 0.236672 0.0164299 0.00768466 0.00580744 0.000630857 -0.000306987 2.91143e-11 -2.12728e-10 1.11663e-10 5e-05 1.46608e-10 
138 1 0.23719 0.0181129 0.00705376 0.00566618 -0.0006808 7.64464e-05 -4.33615e-11 1.89652e-10 4.87563e-11 5e-05 1.46608e-10 
140 1 0.237168 0.0177773 0.00702886 0.00559718 -0.000576108 7.25421e-05 -5.38917e-11 4.15098e-11 3.909e-12 5e-05 1.46608e-10 
141 1 0.231214 0.018419 0.00695128 0.00583926 0.000315583 -6.61729e-06 5.64617e-11 -2.17441e-10 8.74874e-11 5e-05 1.46608e-10 
142 1 0.230934 0.0175598 0.00726156 0.0061145 -7.14181e-05 -0.000391774 7.29183e-11 1.65355e-10 3.17349e-10 5e-05 1.46608e-10 
143 1 0.230407 0.0155673 0.0087007 0.00566429 0.000409918 4.63102e-05 4.1767e-11 -2.74474e-10 5.5854e-10 5e-05 1.46608e-10 
144 1 0.231061 0.0181092 0.0070575 0.00580443 0.000288855 1.7922e-06 -4.38151e-10 -6.98138e-12 1.00367e-11 5e-05 1.46608e-10 
147 1 0.231268 0.018698 0.00685417 0.00580558 0.00028004 3.98004e-06 2.53675e-11 -3.39497e-11 1.46405e-11 5e-05 1.46608e-10 
148 1 0.231017 0.017174 0.00744618 0.0059885 -0.000136163 -0.000309529 -1.18633e-11 1.33885e-10 -6.6752e-11 5e-05 1.46608e-10 
149 1 0.236836 0.0171069 0.00729372 0.0063874 0.000492485 -0.000221444 3.05525e-10 -9.81467e-11 1.00274e-10 5e-05 1.46608e-10 
150 1 0.0100679 0.0201683 0.00551526 8.38559e-15 1.2382e-15 -8.48744e-14 -6.3848e-24 6.38706e-23 2.06795e-25 5e-05 1.46608e-10 
151 1 0.230891 0.0173856 0.00734981 0.0060813 -6.76704e-05 -0.00034577 -1.30368e-10 3.96378e-11 -3.11864e-11 5e-05 1.46608e-10 
153 1 0.231251 0.0190499 0.00686676 0.005641 0.000327017 -5.81365e-05 -8.57314e-11 -2.08835e-10 -2.27422e-11 5e-05 1.46608e-10 
154 1 0.231021 0.0179242 0.00712183 0.00612344 0.000165668 4.26848e-05 1.68056e-10 -2.00725e-10 3.38835e-11 5e-05 1.46608e-10 
155 1 0.231237 0.017665 0.00721679 0.00608207 0.000163035 5.11008e-05 2.36182e-10 -1.85491e-10 8.91601e-11 5e-05 1.46608e-10 
156 1 0.231175 0.0182328 0.00701606 0.00583344 0.000280743 5.36716e-06 -5.48652e-11 6.91238e-11 -3.049e-11 5e-05 1.46608e-10 
157 1 0.0219312 0.0187687 0.00551176 -3.83416e-14 8.16511e-14 2.95891e-13 -3.01223e-22 -2.98819e-22 4.98376e-23 5e-05 1.46608e-10 
158 1 0.231418 0.0185062 0.00692423 0.00580903 0.000318832 -9.20864e-06 -3.52149e-10 4.09579e-12 8.76091e-11 5e-05 1.46608e-10 
159 1 0.237415 0.0185018 0.00689132 0.00559943 -0.000671182 9.03057e-05 -9.00383e-11 -2.42198e-11 5.67096e-11 5e-05 1.46608e-10 
160 1 0.231041 0.0180166 0.00708971 0.00580059 0.00026202 9.92406e-06 -1.89246e-10 -1.40468e-10 3.24095e-11 5e-05 1.46608e-10 
162 1 0.231326 0.0189852 0.0068508 0.00565147 0.000350433 -5.24593e-05 -7.14842e-11 1.48733e-10 1.05538e-11 5e-05 1.46608e-10 
164 1 0.230878 0.0169753 0.00755281 0.00600995 -0.000102457 -0.00032735 1.22993e-10 2.44012e-10 -1.47782e-10 5e-05 1.46608e-10 
165 1 0.231231 0.0180783 0.00707139 0.00584314 0.000292362 1.14744e-06 -4.83784e-10 -1.35895e-11 -1.87869e-12 5e-05 1.46608e-10 
166 1 0.237139 0.018486 0.0068952 0.00547266 -0.000738261 0.000151205 -1.79515e-11 2.95579e-11 -1.93061e-12 5e-05 1.46608e-10 
168 1 0.230943 0.0172364 0.00742005 0.00604194 -8.87773e-05 -0.000336722 -3.83198e-11 1.45769e-10 -6.30361e-11 5e-05 1.46608e-10 
169 1 0.231385 0.0188296 0.00681518 0.00564633 0.000321003 -4.60982e-05 3.04035e-10 -3.7625e-11 5.84901e-11 5e-05 1.46608e-10 
170 1 0.231322 0.0180392 0.00708673 0.0058421 0.000315327 -6.85903e-06 -1.27486e-10 1.01719e-10 -3.45607e-11 5e-05 1.46608e-10 
171 1 0.237087 0.0180354 0.00706888 0.00562881 -0.000652877 9.10018e-05 4.98952e-11 1.32572e-10 5.55215e-11 5e-05 1.46608e-10 
172 1 0.231211 0.0179847 0.00710392 0.00580424 0.000242716 1.5284e-05 -3.98818e-10 1.76802e-10 -4.59973e-11 5e-05 1.46608e-10 
173 1 0.237348 0.0182052 0.00694739 0.0056646 -0.000485824 5.50296e-05 -9.02919e-11 2.98171e-10 -5.15305e-11 5e-05 1.46608e-10 
174 1 0.231258 0.0177572 0.00718476 0.00609564 0.000141497 5.87066e-05 2.89067e-10 -2.20923e-10 7.05114e-11 5e-05 1.46608e-10 
175 1 0.22488 0.0173176 0.00732759 0.00630447 0.000325172 -0.000955503 1.42269e-11 -3.90071e-11 5.34436e-12 5e-05 1.46608e-10 
177 1 0.23106 0.0173481 0.00735765 0.00599934 -0.000140074 -0.000308665 1.62663e-11 1.0204e-10 -4.62387e-11 5e-05 1.46608e-10 
178 1 0.230986 0.0174105 0.00733155 0.006066 -8.76047e-05 -0.000336238 8.21649e-11 4.49756e-11 -2.12049e-11 5e-05 1.46608e-10 
179 1 0.231073 0.0177688 0.00717738 0.0061048 0.000148158 5.91937e-05 -2.4259e-11 -2.51681e-10 8.75521e-11 5e-05 1.46608e-10 
181 1 0.231345 0.0186374 0.00687683 0.00580857 0.000285943 2.9075e-06 2.21051e-10 2.3104e-10 -7.685e-11 5e-05 1.46608e-10 
182 1 0.236999 0.0178118 0.00702349 0.00557139 -0.000644322 8.40419e-05 1.86202e-10 1.46859e-10 1.04458e-11 5e-05 1.46608e-10 
183 1 0.231301 0.0179454 0.00711935 0.00581117 0.000211802 3.01295e-05 -2.24351e-10 2.36438e-10 -9.79093e-11 5e-05 1.46608e-10 
184 1 0.237022 0.0177788 0.00711488 0.0055459 -0.000670856 8.07615e-05 2.53048e-10 1.46979e-10 -4.9185e-11 5e-05 1.46608e-10 
186 1 0.230869 0.0172986 0.00739406 0.0060626 -7.64535e-05 -0.000342672 -1.60617e-11 3.22423e-11 1.22317e-12 5e-05 1.46608e-10 
187 1 0.236896 0.0173449 0.00715667 0.00615519 -0.000745531 0.000501586 -1.83253e-11 -4.41061e-11 5.40896e-11 5e-05 1.46608e-10 
188 1 0.23707 0.0173188 0.00717378 0.0058958 -0.000645257 0.000362001 -6.00521e-11 -4.09723e-11 -7.56288e-10 5e-05 1.46608e-10 
189 1 0.237154 0.0181315 0.00696256 0.00568284 -0.00068808 8.15288e-05 -8.75596e-12 1.89151e-10 1.49483e-10 5e-05 1.46608e-10 
190 1 0.225159 0.0185814 0.00697414 0.00577811 0.00100067 -0.000219318 -9.34812e-12 -1.33205e-13 2.13267e-12 5e-05 1.46608e-10 
191 1 0.237128 0.0174866 0.00708366 0.00545457 -0.0006224 8.38731e-05 9.12211e-10 -2.03511e-10 3.68911e-10 5e-05 1.46608e-10 
192 1 0.23119 0.017891 0.00713651 0.00612912 0.00064674 -0.000118718 4.65676e-10 -5.1597e-10 1.90138e-10 5e-05 1.46608e-10 
193 1 0.237263 0.017808 0.00702248 0.00559817 -0.000611168 7.86246e-05 7.69519e-11 3.4094e-10 -8.35734e-11 5e-05 1.46608e-10 
194 1 0.161461 0.0182058 0.00533758 1.58604e-15 -1.10048e-14 8.66684e-14 -6.5407e-22 -4.5831e-23 4.75629e-24 5e-05 1.46608e-10 
195 1 0.231399 0.0184134 0.00695657 0.00579971 0.000325113 -1.07297e-05 8.49083e-11 2.36592e-10 -8.02899e-11 5e-05 1.46608e-10 
196 1 0.23077 0.0165402 0.00777407 0.00595693 -9.39428e-05 -0.000329384 9.11901e-11 3.57816e-10 -2.36177e-10 5e-05 1.46608e-10 
197 1 0.224942 0.0175437 0.00714065 0.00628239 0.000522002 -0.000717908 6.02655e-11 8.06408e-11 -4.95714e-11 5e-05 1.46608e-10 
198 1 0.231232 0.018954 0.00684628 0.00565898 0.000322008 -5.51173e-05 -8.86488e-12 -1.75553e-10 1.31897e-10 5e-05 1.46608e-10 
199 1 0.231138 0.01848 0.0069285 0.00580723 0.000298205 -2.16489e-06 -8.08768e-12 -4.50642e-11 2.3785e-11 5e-05 1.46608e-10 
201 1 0.230761 0.0168634 0.00761531 0.0059924 -9.3005e-05 -0.000330642 -2.81198e-11 2.76827e-10 -1.24228e-10 5e-05 1.46608e-10 
202 1 0.23127 0.0182643 0.00700668 0.00581767 0.000232603 2.1545e-05 1.48898e-10 -9.0876e-11 4.11787e-11 5e-05 1.46608e-10 
203 1 0.236756 0.0167683 0.00748924 0.00605727 0.000591946 -0.000282684 2.10194e-10 -4.60963e-10 2.82875e-10 5e-05 1.46608e-10 
204 1 0.230464 0.0157071 0.00844168 0.00545566 0.000407682 -3.82091e-05 -8.18691e-11 -8.24979e-11 1.23961e-10 5e-05 1.46608e-10 
205 1 0.231361 0.0182261 0.00702173 0.00579023 0.00019048 3.59646e-05 1.60344e-10 -3.44881e-10 1.1902e-10 5e-05 1.46608e-10 
206 1 0.230835 0.0168013 0.00764131 0.00598344 -0.000108553 -0.000323445 9.29491e-11 2.83674e-10 -1.09448e-10 5e-05 1.46608e-10 
207 1 0.230965 0.0173235 0.0073758 0.00604794 -8.78136e-05 -0.000336687 -5.207e-11 7.7509e-11 -5.6558e-11 5e-05 1.46608e-10 
208 1 0.231156 0.0181402 0.00704829 0.0058346 0.000270151 7.93879e-06 -4.17152e-10 4.67553e-11 -2.37108e-11 5e-05 1.46608e-10 
209 1 0.227968 0.0179892 0.00710459 0.00623172 0.000273507 0.000302189 -2.91515e-13 4.85549e-13 -2.78545e-13 5e-05 1.46608e-10 
210 1 0.236938 0.0175238 0.00708182 0.0055199 -0.00059725 0.000417886 2.36974e-10 2.55138e-11 1.29355e-10 5e-05 1.46608e-10 
211 1 0.236973 0.0174615 0.00718446 0.00598491 -0.00041379 0.000510808 -4.71169e-10 -2.61624e-10 2.08186e-10 5e-05 1.46608e-10 
212 1 0.231289 0.0183577 0.00697417 0.00588304 0.000352859 -2.04616e-05 -1.36135e-10 -3.13798e-10 8.40459e-11 5e-05 1.46608e-10 
213 1 0.237079 0.018197 0.00695069 0.00567053 -0.000701829 9.27603e-05 -2.09307e-11 -2.5097e-11 1.19836e-11 5e-05 1.46608e-10 
214 1 0.236857 0.0171929 0.00724742 0.00640804 0.000497814 -0.00019412 -2.52052e-11 -5.02416e-11 1.23638e-12 5e-05 1.46608e-10 
215 1 0.225139 0.0184834 0.00697557 0.0058375 0.000989812 -0.000221295 6.90548e-12 1.40694e-11 1.23103e-12 5e-05 1.46608e-10 
216 1 0.23125 0.0181712 0.00703908 0.00586072 0.000323669 -9.57388e-06 -1.46854e-10 8.17051e-11 -1.05924e-11 5e-05 1.46608e-10 
217 1 0.237177 0.0186795 0.00685781 0.00555737 -0.000717825 0.000148231 2.43643e-11 5.46698e-11 1.60183e-11 5e-05 1.46608e-10 
218 1 0.230555 0.0159914 0.00805892 0.00572986 0.000207016 -0.000262461 -2.10588e-10 -2.20982e-10 -2.96071e-10 5e-05 1.46608e-10 
219 1 0.236793 0.0169423 0.00739847 0.00634335 0.000537899 -0.000243144 -7.11648e-11 -2.9937e-10 1.30212e-10 5e-05 1.46608e-10 
220 1 0.23138 0.0183197 0.00698916 0.00591881 0.000410621 -3.83454e-05 -1.01565e-10 -6.22962e-11 2.23086e-11 5e-05 1.46608e-10 
221 1 0.291018 0.0179146 0.00695076 0.00625617 -0.000457311 0.000143838 2.56616e-13 -2.08813e-14 1.4204e-14 5e-05 1.46608e-10 
222 1 0.237268 0.018263 0.00693707 0.00562354 -0.000541533 6.70822e-05 -2.47907e-10 1.13881e-10 -4.21284e-11 5e-05 1.46608e-10 
223 1 0.231116 0.017954 0.00711305 0.00598015 0.000407565 -3.85399e-05 -1.77434e-11 7.2857e-11 -3.2342e-11 5e-05 1.46608e-10 
224 1 0.0214721 0.0171025 0.00812274 -8.8049e-06 -0.0162718 0.00926234 -1.92236e-13 1.14944e-10 -5.56374e-11 5e-05 1.46608e-10 
225 1 0.237128 0.0175848 0.00706523 0.00553742 -0.000618226 8.27949e-05 4.59662e-10 -2.91793e-10 5.98457e-12 5e-05 1.46608e-10 
226 1 0.230912 0.0174727 0.00730556 0.00609387 -6.2726e-05 -0.000353152 1.30003e-10 5.2644e-11 -2.13364e-11 5e-05 1.46608e-10 
227 1 0.225078 0.0181897 0.00697989 0.00601201 0.000952981 -0.000229005 5.05795e-11 -2.4961e-11 -1.51783e-12 5e-05 1.46608e-10 
228 1 0.2249 0.017392 0.007264 0.00632264 0.00032781 -0.000957527 3.75933e-11 5.09249e-11 -5.80481e-11 5e-05 1.46608e-10 
229 1 0.231326 0.0185441 0.0069093 0.00580431 0.000320254 -7.69685e-06 -3.68603e-10 -5.72265e-11 -1.29965e-10 5e-05 1.46608e-10 
230 1 0.230718 0.0166894 0.00770381 0.00597057 -8.22472e-05 -0.000335774 1.25579e-10 3.41651e-10 -2.03569e-10 5e-05 1.46608e-10 
231 1 0.224858 0.0172433 0.00739113 0.00622724 0.000336882 -0.000957315 -1.67332e-10 -4.16552e-11 1.88516e-11 5e-05 1.46608e-10 
232 1 0.231119 0.0183871 0.00696081 0.00587165 0.000277861 4.69479e-06 -3.6892e-12 8.86608e-11 -4.83166e-11 5e-05 1.46608e-10 
234 1 0.237039 0.0180043 0.00698711 0.00563508 -0.000649466 9.28318e-05 -6.67621e-12 1.05764e-10 -3.91807e-11 5e-05 1.46608e-10 
235 1 0.231341 0.0181327 0.00705422 0.00587261 0.000349882 -1.89465e-05 -1.63066e-11 2.2026e-10 -8.97584e-11 5e-05 1.46608e-10 
236 1 0.230675 0.0165153 0.00779231 0.00594464 -4.51915e-05 -0.000353899 -5.56755e-11 3.19447e-10 -1.36794e-10 5e-05 1.46608e-10 
237 1 0.230633 0.0163418 0.00788237 0.00575264 4.77631e-05 -0.000378616 -2.71013e-10 1.68147e-10 -8.34428e-11 5e-05 1.46608e-10 
239 1 0.224694 0.0166483 0.00789977 0.00591174 0.000410893 -0.000982899 1.06212e-12 3.85046e-11 -3.0886e-11 5e-05 1.46608e-10 
240 1 0.224715 0.0167225 0.00783625 0.00593928 0.000408583 -0.000983648 -6.64363e-11 9.59841e-11 -7.61685e-11 5e-05 1.46608e-10 
241 1 0.224776 0.0169458 0.00764546 0.00606651 0.000373788 -0.000967858 1.83343e-10 9.03042e-11 -8.48587e-11 5e-05 1.46608e-10 
242 1 0.230977 0.0177417 0.00719103 0.00609199 8.94187e-05 -6.51377e-05 8.74949e-11 -5.64215e-11 -1.84317e-10 5e-05 1.46608e-10 
244 1 0.224735 0.016797 0.00777262 0.00598816 0.000400727 -0.000981855 -3.20914e-10 3.00256e-11 -2.01385e-11 5e-05 1.46608e-10 
246 1 0.224838 0.0171689 0.00745472 0.0061865 0.000354515 -0.000962701 2.17243e-10 7.56057e-11 -6.19346e-11 5e-05 1.46608e-10 
247 1 0.231481 0.0188013 0.0068216 0.00563503 0.000288636 -9.83194e-06 1.78221e-10 -1.69387e-10 1.20423e-10 5e-05 1.46608e-10 
248 1 0.230739 0.0167764 0.00765956 0.00597926 -8.98956e-05 -0.000331442 1.41316e-10 3.30878e-10 -1.90906e-10 5e-05 1.46608e-10 
249 1 0.225119 0.0183854 0.00697698 0.00595976 0.000966899 -0.000225448 2.89966e-13 -1.37539e-11 -2.91295e-12 5e-05 1.46608e-10 
250 1 0.231038 0.017261 0.00740193 0.00600774 -0.000121356 -0.000317906 2.69539e-11 1.64509e-10 -7.57094e-11 5e-05 1.46608e-10 
251 1 0.236777 0.0168529 0.00744042 0.00626125 0.000556438 -0.000258011 1.81042e-10 -3.58477e-10 2.51873e-10 5e-05 1.46608e-10 
252 1 0.224977 0.0177112 0.00703737 0.0059065 0.000971713 -9.10401e-05 -9.82851e-11 -3.63871e-11 4.15931e-11 5e-05 1.46608e-10 
253 1 0.225178 0.0186794 0.00697272 0.00579142 0.00099841 -0.000219808 -2.32785e-12 -1.54569e-11 -3.24628e-12 5e-05 1.46608e-10 
254 1 0.224817 0.0170946 0.00751829 0.00617956 0.000366189 -0.000968836 -2.69285e-10 2.00289e-10 -1.32435e-10 5e-05 1.46608e-10 
255 1 0.23108 0.0182019 0.00702526 0.00584868 0.000290062 1.5095e-06 -1.20998e-10 1.26776e-10 -4.88697e-11 5e-05 1.46608e-10 
256 1 0.231168 0.0177977 0.00716891 0.00611508 0.000173812 4.77708e-05 1.70747e-10 -6.69526e-11 7.40562e-11 5e-05 1.46608e-10 
257 1 0.231125 0.0176132 0.00723304 0.00610667 0.000168565 4.75695e-05 2.07672e-10 -7.71966e-11 2.28676e-11 5e-05 1.46608e-10 
258 1 0.231029 0.0175849 0.00724291 0.00616399 2.70889e-06 -0.000393828 7.24454e-11 -4.62534e-12 8.68011e-11 5e-05 1.46608e-10 
259 1 0.224995 0.0177985 0.00699237 0.0060135 0.000958693 -7.30692e-05 1.05149e-10 -1.81839e-11 1.07854e-10 5e-05 1.46608e-10 
261 1 0.230826 0.0171245 0.00748256 0.00603631 -8.53587e-05 -0.000338165 -9.9644e-11 1.97363e-10 -9.45068e-11 5e-05 1.46608e-10 