ITEM: TIMESTEP
14000000
ITEM: NUMBER OF ATOMS
287
ITEM: BOX BOUNDS ff ff ff
-0.02 0.43
-0.02 0.06
-0.02 0.07
ITEM: ATOMS id type x y z vx vy vz fx fy fz radius mass 
1 1 0.0944648 0.0163677 0.00783625 0.00547785 8.01986e-05 -0.000293045 -2.91983e-11 7.15876e-11 -4.82517e-11 5e-05 1.46608e-10 
2 1 0.0949027 0.0174175 0.00715803 0.00574034 -5.74787e-05 0.000171755 -1.28519e-10 1.48704e-11 1.40677e-12 5e-05 1.46608e-10 
3 1 0.0882588 0.0158846 0.00815056 0.0056834 -0.000448187 0.000256638 1.14625e-10 -2.10416e-10 1.46739e-10 5e-05 1.46608e-10 
4 1 0.0947838 0.0177192 0.00708824 0.00621382 0.000118189 0.000143158 -9.92709e-11 -3.45424e-11 -4.80238e-11 5e-05 1.46608e-10 
5 1 0.0943507 0.0162638 0.00791521 0.0056439 7.41328e-05 -0.000295951 6.90877e-12 -1.86782e-11 1.80475e-11 5e-05 1.46608e-10 
6 1 0.100454 0.0166793 0.00760228 0.00557486 7.37277e-05 -3.66598e-05 5.01805e-11 -6.51136e-11 1.89671e-11 5e-05 1.46608e-10 
7 1 0.0945256 0.0169791 0.0073978 0.00566538 7.89105e-05 -0.000298224 4.90655e-11 1.15982e-10 -8.21414e-11 5e-05 1.46608e-10 
8 1 0.0942504 0.015867 0.00820238 0.0058458 2.26877e-05 -0.000267967 1.057e-11 -4.24702e-11 2.14467e-11 5e-05 1.46608e-10 
9 1 0.100713 0.0178092 0.00708443 0.00618286 -4.61778e-05 1.7151e-05 2.00396e-11 7.70807e-12 -3.93191e-13 5e-05 1.46608e-10 
10 1 0.0944673 0.0167406 0.00757027 0.00560376 8.97e-05 -0.000305329 5.0731e-11 3.00129e-11 -1.87242e-11 5e-05 1.46608e-10 
11 1 0.0949458 0.0176085 0.00711714 0.00604132 -0.000111129 0.000190759 -1.04018e-10 3.02536e-11 2.52704e-12 5e-05 1.46608e-10 
12 1 0.0884522 0.0167022 0.00764926 0.00543073 -8.66526e-05 0.000290798 -4.00323e-10 -7.7381e-10 2.03007e-10 5e-05 1.46608e-10 
13 1 0.0943309 0.0161844 0.00797266 0.00563134 7.44924e-05 -0.000295334 -3.98064e-11 -3.53185e-11 2.4441e-11 5e-05 1.46608e-10 
14 1 0.0881799 0.0156298 0.00844855 0.0056715 -0.00036741 0.00038901 -7.09553e-11 -7.11317e-10 -3.32163e-10 5e-05 1.46608e-10 
15 1 0.0946597 0.0171633 0.00726147 0.00570114 5.24657e-05 -0.000335764 -1.78138e-11 -2.84491e-12 8.56379e-11 5e-05 1.46608e-10 
16 1 0.0881601 0.0155728 0.00852827 0.00562624 -5.67189e-05 0.0006139 -1.11495e-10 -2.41734e-11 -1.64348e-10 5e-05 1.46608e-10 
17 1 0.0944477 0.0166612 0.00762774 0.00559782 8.90542e-05 -0.000304445 -1.26011e-11 1.44016e-11 -8.71786e-12 5e-05 1.46608e-10 
18 1 0.100588 0.017239 0.00722342 0.00568469 5.42408e-05 -2.31405e-05 -1.46753e-11 4.14979e-11 -6.78128e-12 5e-05 1.46608e-10 
19 1 0.0943109 0.016105 0.0080301 0.00561164 7.42975e-05 -0.000294408 2.93867e-11 -2.14634e-11 7.68318e-12 5e-05 1.46608e-10 
21 1 0.0944454 0.0162881 0.00789379 0.00547861 0.000109623 -0.000313997 -2.92521e-10 3.37723e-11 -1.00729e-11 5e-05 1.46608e-10 
22 1 0.0945647 0.017138 0.0072829 0.00569046 3.50799e-05 -0.000360887 4.31198e-11 7.67406e-11 -2.0665e-11 5e-05 1.46608e-10 
23 1 0.0886309 0.0170863 0.00747011 0.00585732 -0.000372274 -0.000164255 -2.18629e-10 3.05555e-10 -7.32551e-11 5e-05 1.46608e-10 
24 1 0.100648 0.0175246 0.00715346 0.00615606 -3.94166e-05 1.56276e-05 -5.75994e-12 -6.13261e-12 4.74527e-13 5e-05 1.46608e-10 
25 1 0.0945061 0.0168996 0.00745528 0.00564609 8.24591e-05 -0.00030168 3.81416e-11 1.01301e-10 -8.56613e-11 5e-05 1.46608e-10 
26 1 0.100531 0.0169783 0.00734783 0.00569506 4.74177e-05 -1.99012e-05 -1.955e-10 -4.24961e-11 7.75056e-11 5e-05 1.46608e-10 
27 1 0.0885338 0.017059 0.00748883 0.00580187 -0.000467422 -9.34542e-05 4.83581e-10 -2.09198e-10 9.12527e-11 5e-05 1.46608e-10 
28 1 0.0947623 0.0176237 0.00710869 0.0060913 0.000146904 0.000135624 -1.32626e-10 -5.63178e-11 8.8904e-12 5e-05 1.46608e-10 
29 1 0.094291 0.0160256 0.00808755 0.00559844 7.59373e-05 -0.000295179 1.0867e-11 1.09381e-12 -9.98203e-13 5e-05 1.46608e-10 
30 1 0.0947919 0.0173728 0.0071829 0.00566435 9.83437e-05 0.00013147 -1.23256e-10 -1.17118e-11 1.56585e-11 5e-05 1.46608e-10 
31 1 0.0945451 0.0170585 0.00734031 0.00567724 7.40733e-05 -0.000301629 5.01855e-11 1.06622e-10 -6.708e-11 5e-05 1.46608e-10 
32 1 0.09464 0.0170829 0.00731884 0.00567907 4.82044e-05 -0.000318339 1.02091e-10 1.68464e-10 -4.73013e-12 5e-05 1.46608e-10 
33 1 0.100473 0.0167541 0.00753867 0.00561036 7.03423e-05 -3.58134e-05 -1.9266e-10 2.79848e-11 -5.88103e-11 5e-05 1.46608e-10 
34 1 0.0944283 0.0165817 0.00768523 0.00556904 9.02247e-05 -0.000304107 1.66852e-11 2.86068e-11 -2.46223e-11 5e-05 1.46608e-10 
35 1 0.0946204 0.0170035 0.00737631 0.00566971 6.82459e-05 -0.000294185 9.03801e-11 1.29007e-10 -7.48527e-11 5e-05 1.46608e-10 
36 1 0.100756 0.0179989 0.0070384 0.00620146 -5.05756e-05 1.82547e-05 -2.65581e-12 -3.93899e-12 9.31785e-13 5e-05 1.46608e-10 
37 1 0.0945814 0.0168445 0.00749129 0.0056364 7.44716e-05 -0.000295529 4.09353e-11 1.22791e-10 -9.2823e-11 5e-05 1.46608e-10 
38 1 0.0947345 0.0171075 0.00729727 0.00567901 6.24847e-05 -0.000288358 -1.19462e-10 -1.58438e-10 1.54158e-10 5e-05 1.46608e-10 
39 1 0.10067 0.0176194 0.00713045 0.00616217 -4.19104e-05 1.61727e-05 3.76725e-11 -9.07515e-12 3.43472e-12 5e-05 1.46608e-10 
41 1 0.0943895 0.0164227 0.00780022 0.00550096 0.000100834 -0.000308561 -1.29731e-10 -1.53053e-11 1.77132e-11 5e-05 1.46608e-10 
42 1 0.0945841 0.0172215 0.00723133 0.00570535 6.28438e-05 -0.000322414 5.4642e-12 1.50045e-11 -2.39577e-11 5e-05 1.46608e-10 
44 1 0.0947534 0.0171892 0.00723818 0.00560955 0.000302853 -0.000458137 -1.33773e-10 1.70688e-10 -2.36239e-10 5e-05 1.46608e-10 
45 1 0.100492 0.0168288 0.00747505 0.00564573 6.24018e-05 -2.93606e-05 8.63721e-11 1.278e-10 -7.44091e-11 5e-05 1.46608e-10 
46 1 0.100569 0.0171438 0.00724697 0.00570989 5.07576e-05 -2.20114e-05 6.87522e-11 5.00078e-11 6.42804e-12 5e-05 1.46608e-10 
47 1 0.094409 0.0165022 0.00774273 0.0055347 9.66666e-05 -0.000307328 -4.23587e-11 3.02137e-11 -1.711e-11 5e-05 1.46608e-10 
48 1 0.0946233 0.0174016 0.0071538 0.00567313 0.000261483 9.9937e-05 -4.80031e-11 -4.43133e-11 1.90143e-11 5e-05 1.46608e-10 
49 1 0.10055 0.017053 0.00728421 0.00572057 4.88577e-05 -2.03149e-05 -7.00372e-12 -3.87868e-11 8.85446e-11 5e-05 1.46608e-10 
50 1 0.0946873 0.0176882 0.00709241 0.00625118 0.000142612 0.000142845 -4.5718e-11 5.67048e-11 -1.84169e-11 5e-05 1.46608e-10 
51 1 0.0946656 0.0175927 0.00711284 0.00624559 0.000143539 0.000141434 -5.97777e-11 -3.01999e-11 1.19775e-11 5e-05 1.46608e-10 
52 1 0.0884326 0.0166111 0.00768546 0.00543409 -0.000106445 0.000284382 -3.06407e-10 -8.98574e-10 2.41366e-10 5e-05 1.46608e-10 
53 1 0.100608 0.0173343 0.00719989 0.00565246 6.1666e-05 -1.58635e-05 -1.86281e-11 -7.40494e-12 -1.67945e-11 5e-05 1.46608e-10 
54 1 0.0944259 0.0162086 0.00795128 0.0056507 8.5396e-05 -0.000304164 -9.13292e-11 -1.13136e-10 8.50234e-11 5e-05 1.46608e-10 
55 1 0.0882198 0.015757 0.00829948 0.00573975 -0.000482037 0.000287933 -8.78571e-12 -5.39412e-10 3.07105e-10 5e-05 1.46608e-10 
56 1 0.0946009 0.016924 0.0074338 0.00565852 7.04754e-05 -0.000293835 3.61804e-11 1.34159e-10 -1.17672e-10 5e-05 1.46608e-10 
57 1 0.100511 0.0169036 0.00741144 0.00566321 5.06049e-05 -2.26365e-05 6.53808e-11 7.66658e-11 1.84913e-11 5e-05 1.46608e-10 
59 1 0.0946567 0.0167895 0.00752731 0.00562361 6.58776e-05 -0.000288924 -4.61691e-11 1.08158e-10 -7.11769e-11 5e-05 1.46608e-10 
60 1 0.0946762 0.0168689 0.00746983 0.00564939 6.19732e-05 -0.000286711 2.04822e-11 1.37955e-10 -1.07239e-10 5e-05 1.46608e-10 
61 1 0.0943702 0.0163432 0.00785772 0.00547876 0.000106011 -0.00031151 -3.08732e-10 3.40726e-11 -1.6576e-11 5e-05 1.46608e-10 
62 1 0.0947728 0.0172727 0.00718634 0.00552189 0.000133359 0.000123438 -4.90866e-11 -3.67174e-11 -1.07362e-11 5e-05 1.46608e-10 
63 1 0.0947191 0.0174328 0.00714957 0.00575912 0.000205573 0.000114123 -1.13462e-10 1.05488e-11 -1.46004e-11 5e-05 1.46608e-10 
64 1 0.100627 0.0174296 0.00717649 0.00564098 6.77381e-05 -1.00067e-05 1.58747e-11 -2.26222e-11 -1.91972e-12 5e-05 1.46608e-10 
65 1 0.0885478 0.0167345 0.00764037 0.00533165 -7.68594e-05 0.000266197 -2.67281e-10 4.26469e-10 -1.66883e-10 5e-05 1.46608e-10 
66 1 0.0884892 0.0164611 0.00774897 0.00534824 -0.000100615 0.000285415 1.91919e-10 -5.0792e-11 8.77978e-11 5e-05 1.46608e-10 
67 1 0.0949243 0.017513 0.0071376 0.005893 -9.50558e-05 0.000185767 -3.51152e-11 2.29601e-11 8.64863e-12 5e-05 1.46608e-10 
68 1 0.0948361 0.0175583 0.00712516 0.00597032 3.19466e-05 0.000158379 -7.18184e-11 1.23057e-11 -2.48265e-11 5e-05 1.46608e-10 
69 1 0.094523 0.0166061 0.00766376 0.00559772 8.39185e-05 -0.000300834 5.0391e-11 9.78783e-12 -9.29499e-12 5e-05 1.46608e-10 
70 1 0.100691 0.0177143 0.00710744 0.00617213 -4.33621e-05 1.65566e-05 -4.06369e-11 -1.49654e-11 2.68676e-12 5e-05 1.46608e-10 
71 1 0.0881996 0.0156933 0.00837386 0.00573525 -0.000443286 0.000327784 3.53516e-11 -6.83388e-10 2.43047e-11 5e-05 1.46608e-10 
72 1 0.0948144 0.0174628 0.0071456 0.00581025 6.65231e-05 0.000145782 -9.46575e-11 -2.27847e-12 -1.47409e-12 5e-05 1.46608e-10 
73 1 0.0944867 0.0168201 0.00751278 0.0056197 8.75785e-05 -0.000304316 3.32864e-11 6.17311e-11 -4.82352e-11 5e-05 1.46608e-10 
74 1 0.0946782 0.0172449 0.00720287 0.00544364 3.81629e-05 -0.000495053 -5.35428e-11 -3.10905e-11 -2.76242e-10 5e-05 1.46608e-10 
76 1 0.0887667 0.0176231 0.00719989 0.00608247 -0.0002516 -0.000225939 -2.72839e-10 -7.26099e-11 7.48017e-11 5e-05 1.46608e-10 
77 1 0.094831 0.0183191 0.00695376 0.006278 0.000106998 -6.97902e-06 1.89411e-11 3.11907e-12 -1.95308e-11 5e-05 1.46608e-10 
78 1 0.0882785 0.0159488 0.0080764 0.00571013 -0.000429293 0.000236565 2.95886e-10 -2.20746e-10 -1.23649e-10 5e-05 1.46608e-10 
79 1 0.0884717 0.0167934 0.00761306 0.00551827 -0.000101221 0.000300096 -1.15126e-10 -6.82206e-10 2.47162e-10 5e-05 1.46608e-10 
80 1 0.0947305 0.0178812 0.00706812 0.00623589 0.000148909 0.00013402 6.882e-11 -5.61697e-11 -8.33159e-12 5e-05 1.46608e-10 
81 1 0.0884131 0.0165199 0.00772166 0.00537871 -7.78876e-05 0.000271442 -5.60981e-10 -3.75823e-10 2.2258e-11 5e-05 1.46608e-10 
82 1 0.0885548 0.0171464 0.00744491 0.00584001 -0.000417424 -0.000117629 -1.5314e-10 1.01729e-10 -3.61685e-11 5e-05 1.46608e-10 
83 1 0.0885649 0.0164018 0.00777642 0.00529021 -0.000141715 0.000290656 1.9572e-10 2.66084e-10 -1.00678e-10 5e-05 1.46608e-10 
84 1 0.100735 0.0179041 0.00706141 0.00619142 -4.87602e-05 1.78996e-05 -5.98948e-12 5.12189e-12 -1.83627e-12 5e-05 1.46608e-10 
85 1 0.088377 0.01597 0.00804666 0.00578107 -0.000410931 0.000206251 4.59702e-10 2.64857e-11 -7.61598e-11 5e-05 1.46608e-10 
86 1 0.0947406 0.0175283 0.00712912 0.00592286 0.000177675 0.000124939 -8.47636e-11 -2.60863e-11 1.26773e-11 5e-05 1.46608e-10 
87 1 0.0946373 0.01671 0.00758481 0.00560323 7.08452e-05 -0.000291834 -8.34246e-11 6.31831e-11 -3.97761e-11 5e-05 1.46608e-10 
88 1 0.0947717 0.018059 0.00701303 0.00626706 0.000152774 0.000141316 2.45477e-12 -1.16135e-11 3.00974e-11 5e-05 1.46608e-10 
89 1 0.0947528 0.0179787 0.00706952 0.0062572 0.00014595 0.000136524 -7.88188e-11 1.15518e-11 8.16384e-11 5e-05 1.46608e-10 
90 1 0.0948782 0.0173227 0.00717826 0.00559977 -1.25624e-05 0.000154124 -8.00205e-11 -6.92729e-12 -1.90559e-12 5e-05 1.46608e-10 
91 1 0.0884918 0.0168843 0.0075767 0.00574344 -0.000205457 0.000185353 2.84463e-10 -4.32587e-10 2.74189e-10 5e-05 1.46608e-10 
92 1 0.0949005 0.017846 0.00706355 0.00621856 0.000128918 0.000144817 6.33354e-11 -2.36205e-11 1.51853e-12 5e-05 1.46608e-10 
93 1 0.094862 0.0180224 0.00703539 0.00626422 0.000161462 0.000139071 -2.30676e-11 -3.06054e-11 2.73031e-11 5e-05 1.46608e-10 
94 1 0.0949691 0.018164 0.00699325 0.00625743 9.27932e-05 -2.10279e-05 2.31173e-12 2.80155e-11 -2.90555e-11 5e-05 1.46608e-10 
95 1 0.0948406 0.0179042 0.00714519 0.00621833 0.000178698 0.000150424 3.32409e-11 -7.9914e-11 -4.21653e-11 5e-05 1.46608e-10 
96 1 0.0949206 0.0179417 0.007043 0.00624359 0.000151805 0.000140093 2.91216e-11 2.4164e-11 -6.35343e-12 5e-05 1.46608e-10 
97 1 0.0883746 0.0163375 0.00779412 0.00547724 -9.96572e-05 0.000290318 1.38674e-10 -1.61108e-11 -6.56573e-12 5e-05 1.46608e-10 
98 1 0.0947928 0.0181566 0.00701863 0.00623974 0.000164861 0.00013852 -2.57283e-11 -1.00458e-11 4.30178e-11 5e-05 1.46608e-10 
99 1 0.0885283 0.0166434 0.00767658 0.00530339 -8.09481e-05 0.000239485 4.54138e-10 3.2893e-10 -8.03859e-11 5e-05 1.46608e-10 
100 1 0.0948416 0.0171465 0.00726542 0.00555109 -0.00013083 -0.000146831 2.1315e-11 4.42722e-11 1.61234e-10 5e-05 1.46608e-10 
101 1 0.0884699 0.0163699 0.00778518 0.00540567 -0.000108753 0.000291964 2.54877e-10 -6.86758e-12 -1.31104e-10 5e-05 1.46608e-10 
102 1 0.0643568 0.0187248 0.00531097 4.45111e-15 1.04799e-14 8.29529e-14 -2.37539e-21 6.21911e-22 4.28066e-23 5e-05 1.46608e-10 
103 1 0.24257 0.0191927 0.00520306 2.95517e-22 4.86658e-23 1.23839e-22 0 0 0 5e-05 1.46608e-10 
104 1 0.0888141 0.0174722 0.00728574 0.00595232 -0.000299293 -0.000187793 -1.68412e-10 4.15845e-10 -1.30667e-10 5e-05 1.46608e-10 
105 1 0.0883357 0.0161552 0.00786653 0.00571053 -0.000170753 0.000341231 3.51748e-10 3.44994e-10 6.64051e-11 5e-05 1.46608e-10 
106 1 0.0888944 0.0174134 0.0072954 0.00596882 -0.000276596 -0.000199864 -1.97197e-10 2.1366e-10 -4.18461e-11 5e-05 1.46608e-10 
107 1 0.0882985 0.016015 0.00800415 0.00574087 -0.000404497 0.000225522 9.14051e-11 -1.50809e-10 -3.52607e-10 5e-05 1.46608e-10 
108 1 0.094562 0.016765 0.00754879 0.00560798 7.91558e-05 -0.000297739 -2.80045e-11 2.4792e-11 -1.49607e-11 5e-05 1.46608e-10 
109 1 0.0946443 0.0174972 0.00713331 0.00595853 0.000202494 0.000120872 -6.87521e-11 -2.29397e-11 1.75725e-12 5e-05 1.46608e-10 
110 1 0.0950442 0.0182326 0.00697612 0.00626 0.000105887 -7.25287e-06 7.59245e-11 9.66995e-11 -2.42376e-11 5e-05 1.46608e-10 
111 1 0.0948362 0.0183317 0.00705283 0.00629405 0.000168321 -1.41067e-05 5.81402e-12 -5.85766e-11 -1.48099e-11 5e-05 1.46608e-10 
112 1 0.0883938 0.0164287 0.00775788 0.00546333 -0.00010496 0.000279255 1.35023e-10 -2.49469e-10 4.2644e-11 5e-05 1.46608e-10 
113 1 0.0892188 0.0181407 0.00692766 0.00594006 -0.000102217 0.000296996 4.75013e-10 5.98678e-10 7.47583e-11 5e-05 1.46608e-10 
114 1 0.0887493 0.0172019 0.00740696 0.0059008 -0.000423284 -0.000121546 1.43968e-10 2.2623e-10 -1.40811e-10 5e-05 1.46608e-10 
115 1 0.0946981 0.0173372 0.00717006 0.00560645 0.000222316 0.00010633 -1.05438e-11 1.32466e-11 -2.4108e-11 5e-05 1.46608e-10 
116 1 0.0945426 0.0166856 0.00760628 0.00560328 8.34798e-05 -0.000300745 -6.73306e-11 9.84894e-13 8.33782e-13 5e-05 1.46608e-10 
117 1 0.094406 0.0161291 0.00800882 0.00561261 5.98783e-05 -0.000284418 -9.15158e-12 -5.42529e-11 4.02903e-11 5e-05 1.46608e-10 
118 1 0.0882397 0.0158208 0.00822507 0.00570523 -0.000471962 0.000279275 -1.64075e-10 -3.84892e-10 3.06617e-10 5e-05 1.46608e-10 
119 1 0.0946958 0.0169484 0.00741235 0.0056583 5.93123e-05 -0.00028609 1.68474e-10 1.61873e-10 -1.21263e-10 5e-05 1.46608e-10 
120 1 0.094271 0.0159462 0.00814499 0.00584486 2.439e-05 -0.000268459 6.56238e-11 -5.91527e-11 4.68671e-11 5e-05 1.46608e-10 
121 1 0.0942298 0.0157877 0.00825977 0.00584176 2.1059e-05 -0.000266617 -1.38847e-11 -2.07472e-11 1.45249e-11 5e-05 1.46608e-10 
122 1 0.0950269 0.0183308 0.00695143 0.00625604 0.000110987 -8.60646e-06 2.59077e-11 3.55698e-11 -6.82185e-12 5e-05 1.46608e-10 
123 1 0.0884119 0.0160982 0.00789725 0.00570044 -0.000353038 0.000134883 -4.59829e-11 -1.268e-10 -5.73491e-10 5e-05 1.46608e-10 
124 1 0.0948234 0.0179116 0.00704695 0.00625207 0.000143439 0.000140704 -8.49294e-11 -5.81439e-11 1.54316e-11 5e-05 1.46608e-10 
125 1 0.0943858 0.0160496 0.00806638 0.00558799 5.53006e-05 -0.000279966 9.53767e-12 1.11329e-11 -9.09583e-12 5e-05 1.46608e-10 
126 1 0.094604 0.0173109 0.00719117 0.00555907 0.000224929 -4.66227e-05 1.5138e-11 -2.63572e-11 -7.29872e-12 5e-05 1.46608e-10 
127 1 0.0883551 0.0162464 0.00783033 0.00549424 -0.000123361 0.000281864 7.62537e-11 1.72299e-11 -3.71906e-10 5e-05 1.46608e-10 
128 1 0.094709 0.0177836 0.00707198 0.00625155 0.000147816 0.000139147 -1.12193e-10 2.62169e-11 -2.21538e-11 5e-05 1.46608e-10 
129 1 0.0948348 0.0181012 0.00709056 0.00624279 0.000149614 0.000132125 -3.03274e-11 -5.6739e-12 2.49334e-11 5e-05 1.46608e-10 
130 1 0.0886519 0.0171737 0.00742618 0.00590364 -0.000352924 -0.00016038 8.87234e-11 3.89044e-10 -3.94306e-11 5e-05 1.46608e-10 
131 1 0.0885087 0.0165522 0.00771277 0.00535653 -9.93038e-05 0.000233727 3.6997e-10 3.71791e-10 4.54512e-11 5e-05 1.46608e-10 
132 1 0.0948055 0.017815 0.00706774 0.00622103 0.00013215 0.000143058 5.7676e-11 2.27799e-11 2.42533e-12 5e-05 1.46608e-10 
133 1 0.0945595 0.0163921 0.00781477 0.00552482 8.28871e-05 -0.000297019 -6.66218e-11 1.14533e-11 -4.56064e-12 5e-05 1.46608e-10 
134 1 0.0947153 0.0170278 0.00735486 0.00566517 5.41575e-05 -0.000288217 1.88177e-10 1.90168e-10 -1.27206e-10 5e-05 1.46608e-10 
135 1 0.0943659 0.0159701 0.00812386 0.00557842 6.05683e-05 -0.000283228 9.90271e-11 -2.26539e-11 1.53094e-11 5e-05 1.46608e-10 
136 1 0.0883572 0.0159062 0.00812108 0.00571076 -0.000435069 0.000226079 2.77789e-10 -1.59365e-11 8.36386e-11 5e-05 1.46608e-10 
137 1 0.0948524 0.0184168 0.00695385 0.00625615 0.00011005 -1.72029e-05 4.32638e-12 -3.64958e-12 1.82698e-11 5e-05 1.46608e-10 
138 1 0.0945036 0.0165266 0.00772125 0.00556286 7.91188e-05 -0.000295941 2.57704e-11 9.18482e-11 -6.60155e-11 5e-05 1.46608e-10 
140 1 0.0949299 0.0183542 0.00694528 0.00625532 0.00010521 -7.69471e-06 -3.39703e-12 -9.89374e-12 1.33534e-11 5e-05 1.46608e-10 
141 1 0.0883955 0.0160339 0.00797207 0.00577785 -0.000383234 0.000169589 4.59e-10 1.24562e-11 -3.22064e-10 5e-05 1.46608e-10 
142 1 0.0887703 0.0172892 0.00736305 0.00588477 -0.000402814 -0.00012892 1.91927e-10 2.12292e-10 -1.49451e-10 5e-05 1.46608e-10 
143 1 0.0883177 0.0160845 0.00793494 0.00575006 -0.000283883 0.000298921 6.73107e-11 3.13044e-10 1.89127e-10 5e-05 1.46608e-10 
144 1 0.0887287 0.0171145 0.00745089 0.00587852 -0.000438423 -0.000116643 -1.74318e-10 2.63516e-10 -5.58677e-11 5e-05 1.46608e-10 
146 1 0.0885844 0.0164929 0.00774022 0.0052693 -0.000116644 0.000283688 -1.27083e-12 1.91953e-10 -1.63024e-10 5e-05 1.46608e-10 
147 1 0.0883375 0.0158424 0.00819552 0.00568175 -0.000444525 0.00023933 -8.5313e-11 -9.27409e-11 1.30503e-10 5e-05 1.46608e-10 
148 1 0.0886177 0.0174086 0.00731355 0.00594737 -0.000329892 -0.000168465 -6.3503e-12 2.22065e-10 -1.78679e-10 5e-05 1.46608e-10 
149 1 0.094948 0.0182588 0.00696926 0.00625635 0.000100854 -4.54264e-06 2.31989e-11 3.67422e-11 1.75677e-11 5e-05 1.46608e-10 
150 1 0.0886235 0.0166752 0.00766783 0.00531023 -8.77625e-05 0.000274363 -4.5881e-10 5.77656e-10 1.11287e-10 5e-05 1.46608e-10 
151 1 0.0889898 0.0174481 0.00727311 0.00617495 -0.000135959 -0.000276054 -2.02884e-11 -1.06917e-10 5.07454e-11 5e-05 1.46608e-10 
153 1 0.0884504 0.0162813 0.00782737 0.00543838 -0.000140589 0.000315215 -1.94902e-10 1.07783e-10 -1.09814e-10 5e-05 1.46608e-10 
154 1 0.0887151 0.0174363 0.00729562 0.00595597 -0.000319471 -0.000178237 1.5227e-11 1.82928e-10 -1.82809e-10 5e-05 1.46608e-10 
155 1 0.0887884 0.0177103 0.00715601 0.00610159 -0.000257424 -0.000211357 -3.55379e-11 7.3882e-11 -2.15069e-11 5e-05 1.46608e-10 
156 1 0.0886936 0.0173484 0.00733834 0.00593732 -0.000334515 -0.000167634 -6.89265e-12 2.79163e-10 -2.01626e-10 5e-05 1.46608e-10 
157 1 0.0219312 0.0187687 0.00551176 -3.84054e-14 8.16355e-14 2.95887e-13 -1.71201e-22 8.42173e-23 -3.55688e-23 5e-05 1.46608e-10 
158 1 0.0887934 0.0175981 0.00729297 0.00609207 -0.000220936 -0.000241891 -1.30422e-10 2.6487e-10 3.12178e-11 5e-05 1.46608e-10 
159 1 0.0948575 0.0176543 0.007107 0.00613639 3.43158e-05 6.75132e-05 -9.86876e-11 -1.39709e-11 -1.7516e-11 5e-05 1.46608e-10 
160 1 0.0886807 0.0176707 0.00718192 0.00606456 -0.000308085 -0.000210187 -2.24651e-10 -1.84067e-10 1.49054e-10 5e-05 1.46608e-10 
162 1 0.0886391 0.0174957 0.00726929 0.00594411 -0.000309931 -0.000177545 -3.25305e-10 1.74612e-10 -8.27931e-11 5e-05 1.46608e-10 
164 1 0.088935 0.0180579 0.00697777 0.00616052 -0.000303064 -0.000210682 -8.36638e-10 -2.10353e-09 6.23846e-10 5e-05 1.46608e-10 
165 1 0.08909 0.0177472 0.00712121 0.00652633 9.85046e-05 -0.000414722 1.82835e-09 -3.89573e-09 1.71739e-09 5e-05 1.46608e-10 
166 1 0.0945208 0.0162331 0.00792976 0.0054605 9.63806e-05 -0.000303858 -1.45297e-10 4.28041e-11 -2.46084e-11 5e-05 1.46608e-10 
167 1 0.088604 0.0165841 0.00770403 0.00525249 -9.74605e-05 0.000263666 -1.1902e-10 3.35192e-10 -1.00997e-10 5e-05 1.46608e-10 
168 1 0.0889084 0.0175021 0.00725123 0.00612586 -0.000196481 -0.000244492 3.49879e-11 1.54947e-10 -6.08808e-11 5e-05 1.46608e-10 
169 1 0.089124 0.0181121 0.00694203 0.00595783 -0.000127745 7.9634e-07 1.2389e-11 1.9066e-10 2.16977e-09 5e-05 1.46608e-10 
170 1 0.0889587 0.0176133 0.00719402 0.00624846 -1.54905e-05 -0.000340176 -2.87223e-11 1.30443e-10 -6.74246e-11 5e-05 1.46608e-10 
171 1 0.0945401 0.0163126 0.00787226 0.00549478 8.99708e-05 -0.000300658 -1.16695e-10 1.18386e-11 -2.90606e-12 5e-05 1.46608e-10 
172 1 0.0890715 0.0176593 0.00716524 0.00642296 0.000177412 -0.000444965 1.55205e-10 -1.56198e-10 4.87006e-11 5e-05 1.46608e-10 
173 1 0.0949893 0.0178017 0.00707577 0.00620277 0.000108896 0.0001481 1.20596e-10 -6.13214e-12 1.30598e-11 5e-05 1.46608e-10 
174 1 0.088877 0.0176667 0.00717239 0.00617391 -0.000122788 -0.00028258 -6.65714e-11 1.15264e-10 8.66547e-12 5e-05 1.46608e-10 
175 1 0.082629 0.0174666 0.00735265 0.00607056 0.000391528 -0.000506463 -1.34955e-12 7.96888e-12 -3.61879e-12 5e-05 1.46608e-10 
176 1 0.0886726 0.0172611 0.00738225 0.00593815 -0.000352277 -0.000158571 3.76017e-10 3.51699e-10 -1.83995e-10 5e-05 1.46608e-10 
177 1 0.0887249 0.0178463 0.00709708 0.00610735 -0.000330777 -0.00018329 -6.305e-11 -3.73125e-10 2.09446e-10 5e-05 1.46608e-10 
178 1 0.0891706 0.0180311 0.00697778 0.00604995 -0.000185927 -0.000235625 5.95172e-10 4.47009e-10 -1.81345e-10 5e-05 1.46608e-10 
179 1 0.089075 0.0180073 0.00699474 0.0061374 -0.000312627 -0.000182805 1.86352e-09 -3.48381e-10 3.31773e-10 5e-05 1.46608e-10 
181 1 0.0886607 0.0175777 0.0073252 0.00596689 -0.000290598 -0.000198453 -4.01201e-10 -2.14681e-11 -1.57371e-10 5e-05 1.46608e-10 
182 1 0.0944842 0.0164471 0.00777875 0.00551231 7.87291e-05 -0.000293414 -1.75235e-10 6.49005e-11 -3.86966e-11 5e-05 1.46608e-10 
183 1 0.088855 0.0175791 0.0072165 0.00610817 -0.000205317 -0.000241675 -4.28868e-11 2.79699e-10 -3.44134e-11 5e-05 1.46608e-10 
184 1 0.0948297 0.0178064 0.00716439 0.00618168 0.00013896 0.000153562 1.21892e-11 3.04026e-11 -6.58103e-13 5e-05 1.46608e-10 
185 1 0.0885967 0.0173211 0.00735709 0.00593102 -0.000347362 -0.000156031 1.61243e-10 2.95613e-10 -1.85872e-10 5e-05 1.46608e-10 
186 1 0.0886615 0.017483 0.00736591 0.0059547 -0.000346816 -0.000175666 -2.86706e-10 7.46909e-11 -1.43245e-10 5e-05 1.46608e-10 
187 1 0.0948223 0.0170667 0.00732253 0.00554794 -0.000126421 -0.000150111 -5.10623e-12 -8.80013e-12 3.99376e-11 5e-05 1.46608e-10 
188 1 0.0948825 0.018115 0.00700376 0.00623874 0.000165499 0.000135303 -4.79371e-11 4.85408e-12 3.01763e-12 5e-05 1.46608e-10 
189 1 0.09486 0.0172335 0.00721978 0.00544767 -4.91012e-05 -1.55159e-05 4.52462e-11 3.63136e-11 1.64798e-10 5e-05 1.46608e-10 
190 1 0.0827508 0.0175879 0.00729441 0.00612151 0.000380914 -0.000504783 -9.54113e-13 1.84612e-11 -7.66571e-12 5e-05 1.46608e-10 
191 1 0.0948706 0.0185036 0.0069076 0.00571721 0.000213901 -3.5883e-05 3.99507e-13 8.234e-12 4.7239e-12 5e-05 1.46608e-10 
192 1 0.0888478 0.0172309 0.00738731 0.00581038 -0.000483932 -8.52963e-05 3.08819e-10 5.86182e-11 -3.85543e-11 5e-05 1.46608e-10 
193 1 0.0946179 0.0166305 0.0076423 0.00560037 6.98936e-05 -0.000291047 5.01926e-11 5.05125e-11 -3.86277e-11 5e-05 1.46608e-10 
194 1 0.0886644 0.0168517 0.00758306 0.00575467 -0.000362054 -0.000147889 4.43335e-10 2.6831e-10 -5.37579e-10 5e-05 1.46608e-10 
195 1 0.0890872 0.017837 0.0070774 0.00627665 -0.000182517 -0.000263367 -1.71463e-09 1.592e-09 -5.99851e-10 5e-05 1.46608e-10 
196 1 0.0881407 0.015518 0.00860969 0.00559511 -6.72335e-05 0.000611637 -2.21136e-10 1.97754e-10 -3.71203e-10 5e-05 1.46608e-10 
197 1 0.082693 0.0177352 0.00723526 0.00615006 0.000419166 -0.00039617 1.26213e-12 -1.52498e-11 -8.72247e-11 5e-05 1.46608e-10 
198 1 0.0885128 0.0169717 0.00753274 0.00576329 -0.000527088 -6.0449e-05 1.97563e-09 -1.03519e-09 3.92266e-10 5e-05 1.46608e-10 
199 1 0.0886597 0.0175832 0.00722536 0.00593062 -0.000286627 -0.000188067 -2.43141e-10 -2.25027e-11 -2.80308e-11 5e-05 1.46608e-10 
200 1 0.0886098 0.0169994 0.00751483 0.00575849 -0.000354516 -0.000153282 1.48809e-10 6.18783e-11 -2.95698e-10 5e-05 1.46608e-10 
201 1 0.0890691 0.0181941 0.0069262 0.00591821 -0.000127213 0.000304356 -7.01358e-10 -5.65899e-11 2.05342e-09 5e-05 1.46608e-10 
202 1 0.0888695 0.0173184 0.00734328 0.00586693 -0.000466223 -9.75895e-05 -1.4641e-10 4.08522e-10 -1.89196e-10 5e-05 1.46608e-10 
203 1 0.0951163 0.0181655 0.00699319 0.00626777 0.000110619 -7.5824e-06 1.01608e-10 1.05151e-10 -8.76146e-12 5e-05 1.46608e-10 
204 1 0.0885889 0.0169139 0.00756224 0.0057533 -0.000308827 -5.36608e-05 6.98018e-10 -7.15635e-11 -2.72839e-10 5e-05 1.46608e-10 
205 1 0.088919 0.0179417 0.00708385 0.00607043 -0.000203993 -0.000104304 7.55312e-10 -3.98061e-10 -5.52557e-11 5e-05 1.46608e-10 
206 1 0.0888993 0.0177538 0.00712854 0.00623269 -0.00012255 -0.000280934 2.34212e-10 9.49724e-11 -1.28971e-10 5e-05 1.46608e-10 
207 1 0.0884315 0.0161879 0.00785749 0.00541015 -0.000189648 0.000320919 -3.67326e-10 -1.16699e-10 -3.98852e-10 5e-05 1.46608e-10 
208 1 0.0887356 0.0175231 0.00725052 0.00594893 -0.000291938 -0.000185525 -2.60329e-10 1.86333e-10 -1.02329e-10 5e-05 1.46608e-10 
209 1 0.0886436 0.0167643 0.00762699 0.00561363 -0.000280854 -4.69161e-05 3.94238e-10 3.22123e-10 -4.02826e-10 5e-05 1.46608e-10 
210 1 0.0947335 0.0176288 0.00720434 0.00607653 0.000196469 0.000125365 9.14115e-13 -9.10416e-11 3.41521e-11 5e-05 1.46608e-10 
211 1 0.0949569 0.01805 0.00702014 0.0062566 0.000170759 0.000134167 -1.0006e-10 -5.57508e-11 1.82748e-11 5e-05 1.46608e-10 
212 1 0.0889833 0.0177035 0.00714851 0.00632031 8.11731e-06 -0.000353189 5.02866e-10 2.35061e-10 -4.84161e-11 5e-05 1.46608e-10 
213 1 0.0948031 0.0169872 0.00738005 0.00554176 -0.000123454 -0.000150653 4.14883e-11 -7.08843e-12 1.29818e-11 5e-05 1.46608e-10 
214 1 0.0949322 0.0180147 0.00711038 0.00626518 0.000157208 0.000128527 -9.00436e-11 -2.06759e-11 8.21034e-11 5e-05 1.46608e-10 
215 1 0.0827285 0.0174972 0.00733409 0.00609152 0.00038214 -0.000503727 -1.98989e-11 -4.883e-12 3.16935e-12 5e-05 1.46608e-10 
216 1 0.0887024 0.0177577 0.00713757 0.00607088 -0.000308507 -0.000189898 -2.22461e-10 -1.65311e-10 1.76719e-10 5e-05 1.46608e-10 
217 1 0.0945789 0.0164716 0.00775727 0.00555583 7.64681e-05 -0.000293727 -1.10936e-10 3.95916e-11 -2.4531e-11 5e-05 1.46608e-10 
218 1 0.0888327 0.0178928 0.00707153 0.00612881 -0.000328934 -0.000213806 1.88469e-10 2.41779e-10 4.98318e-10 5e-05 1.46608e-10 
219 1 0.094824 0.0182345 0.00707296 0.00628588 0.000187485 8.19986e-05 -1.05346e-11 -7.04677e-12 -2.41212e-11 5e-05 1.46608e-10 
220 1 0.0887311 0.0177411 0.00723191 0.006128 -0.000366931 -0.000211313 -4.72831e-11 7.62244e-11 1.45881e-10 5e-05 1.46608e-10 
221 1 0.0826191 0.0170466 0.00753114 0.00594369 0.000376795 -0.000493149 1.67423e-11 1.76814e-11 -8.39347e-12 5e-05 1.46608e-10 
222 1 0.0945983 0.016551 0.00769978 0.00559003 7.17088e-05 -0.000291761 8.03108e-11 3.19363e-11 -2.61927e-11 5e-05 1.46608e-10 
223 1 0.0887917 0.0173765 0.00731916 0.0059066 -0.000391716 -0.000136001 -9.29754e-11 2.91447e-10 -1.50244e-10 5e-05 1.46608e-10 
224 1 0.0885761 0.0172343 0.00740221 0.00583167 -0.000368133 -0.000155239 1.42274e-10 3.9844e-10 -2.48039e-10 5e-05 1.46608e-10 
225 1 0.0948791 0.0177494 0.00708424 0.00613612 3.26611e-05 0.000163983 4.95612e-11 -2.97091e-11 9.98896e-12 5e-05 1.46608e-10 
226 1 0.0890139 0.0175373 0.00722815 0.00635033 5.64254e-05 -0.000379878 -2.40626e-11 7.02051e-11 -4.22514e-11 5e-05 1.46608e-10 
227 1 0.082684 0.0173162 0.00741331 0.00604372 0.000394466 -0.000506238 -7.11932e-11 -6.44668e-11 3.15158e-11 5e-05 1.46608e-10 
228 1 0.0826503 0.0175561 0.00731352 0.00609543 0.000386037 -0.000505682 5.28721e-12 2.10411e-11 -8.66948e-12 5e-05 1.46608e-10 
229 1 0.0887096 0.0176536 0.00727609 0.00612545 -0.000341789 -0.000251108 -2.02424e-11 6.7768e-11 6.42506e-11 5e-05 1.46608e-10 
230 1 0.0889981 0.0182643 0.00693154 0.00605254 2.27275e-05 0.000374196 -5.46577e-10 -1.49226e-10 4.54119e-10 5e-05 1.46608e-10 
231 1 0.0826077 0.0173771 0.00739178 0.00604491 0.000395931 -0.000506919 -1.36214e-11 1.10906e-12 -3.53191e-13 5e-05 1.46608e-10 
232 1 0.0885457 0.0163106 0.00781265 0.00526711 -0.000173073 0.000299811 6.11664e-10 -8.97325e-11 1.00176e-10 5e-05 1.46608e-10 
233 1 0.088686 0.0169394 0.00753894 0.00568896 -0.000383084 -0.000148654 -1.58271e-10 3.46722e-10 1.21926e-10 5e-05 1.46608e-10 
234 1 0.0948535 0.0182246 0.00697754 0.00622458 9.74576e-05 -7.42285e-06 1.89551e-11 -5.14187e-11 1.86982e-11 5e-05 1.46608e-10 
235 1 0.0889671 0.0185257 0.00696499 0.00554469 -0.000224813 0.000296572 1.89594e-09 1.21776e-09 3.25163e-10 5e-05 1.46608e-10 
236 1 0.0890193 0.0183619 0.00694593 0.00581023 -0.000165581 0.000317936 -1.18777e-10 -1.03272e-09 -2.54407e-10 5e-05 1.46608e-10 
237 1 0.0891145 0.0183908 0.00695535 0.0057718 -1.37703e-05 0.000332051 -3.7431e-11 -4.13638e-11 4.95829e-11 5e-05 1.46608e-10 
239 1 0.082419 0.0165707 0.00774403 0.00563141 0.000491904 -0.000524583 -6.56501e-12 2.07845e-11 -1.0057e-11 5e-05 1.46608e-10 
240 1 0.0824798 0.01684 0.00762654 0.00589136 0.000418252 -0.000507702 -2.2028e-12 -5.47816e-12 3.08922e-12 5e-05 1.46608e-10 
241 1 0.0823994 0.0164808 0.00778321 0.00564369 0.000492639 -0.000525196 7.73929e-12 2.6526e-11 -9.61664e-12 5e-05 1.46608e-10 
242 1 0.0888062 0.0170561 0.00747515 0.00584807 -0.000526753 -6.70124e-05 -4.98526e-11 3.64819e-10 -1.84633e-10 5e-05 1.46608e-10 
243 1 0.0885679 0.0168252 0.00760347 0.00574028 -0.000246468 8.7571e-05 8.15825e-10 -2.434e-10 -5.27574e-10 5e-05 1.46608e-10 
244 1 0.0824385 0.0166606 0.00770484 0.0056205 0.00048907 -0.000522954 1.14207e-11 -7.07565e-12 2.12325e-12 5e-05 1.46608e-10 
246 1 0.082565 0.017198 0.00747003 0.0059943 0.000398436 -0.000505183 1.59188e-11 2.28044e-11 -1.10519e-11 5e-05 1.46608e-10 