ITEM: TIMESTEP
15400000
ITEM: NUMBER OF ATOMS
287
ITEM: BOX BOUNDS ff ff ff
-0.02 0.43
-0.02 0.06
-0.02 0.07
ITEM: ATOMS id type x y z vx vy vz fx fy fz radius mass 
1 1 0.102674 0.0165399 0.00773817 0.00566991 0.000417689 -4.23215e-05 9.17272e-11 -5.4013e-11 4.5799e-11 5e-05 1.46608e-10 
2 1 0.103096 0.0175884 0.00709525 0.00588535 0.000184545 -0.000203939 -2.33061e-10 1.49462e-10 -2.51375e-11 5e-05 1.46608e-10 
3 1 0.0964017 0.0158362 0.00827286 0.0061532 8.9421e-05 0.00013633 -1.8422e-11 -6.79894e-11 5.2578e-11 5e-05 1.46608e-10 
4 1 0.102987 0.0179098 0.00702715 0.00611836 0.000269657 -0.000229593 -1.887e-11 1.70517e-12 2.92557e-12 5e-05 1.46608e-10 
5 1 0.102559 0.016433 0.0078125 0.00583542 0.000393237 -1.65279e-05 2.06904e-12 6.24096e-11 -4.62698e-11 5e-05 1.46608e-10 
6 1 0.108601 0.0166087 0.00771026 0.00558974 0.000176281 -0.000475247 -7.1618e-11 2.54701e-11 4.35627e-12 5e-05 1.46608e-10 
7 1 0.102732 0.0171449 0.00728948 0.00570809 0.000419577 -4.18537e-05 -1.74961e-10 1.1727e-11 5.57949e-12 5e-05 1.46608e-10 
8 1 0.102457 0.0160384 0.00810214 0.00575074 0.000404254 -2.85421e-05 7.37032e-11 7.80087e-11 -3.11674e-11 5e-05 1.46608e-10 
9 1 0.108867 0.017801 0.00726539 0.00586457 0.000130734 -0.000478726 4.89879e-12 1.4459e-11 -5.52123e-12 5e-05 1.46608e-10 
10 1 0.102675 0.0169075 0.00746391 0.00557405 0.000387362 -2.54778e-05 -1.53426e-10 -2.87588e-10 1.91155e-10 5e-05 1.46608e-10 
11 1 0.103136 0.0177795 0.00705185 0.00601193 0.000163523 -0.000203636 -1.34342e-10 1.16751e-11 1.38203e-11 5e-05 1.46608e-10 
12 1 0.096602 0.0165966 0.00765515 0.00565253 0.00015456 8.95254e-05 7.25219e-11 1.54267e-10 2.11181e-11 5e-05 1.46608e-10 
13 1 0.102539 0.0163541 0.00787043 0.00580556 0.000394264 -1.82797e-05 -2.44146e-11 9.02086e-11 -6.86269e-11 5e-05 1.46608e-10 
14 1 0.0963163 0.0155328 0.00851919 0.0062587 0.000117892 0.000113809 1.62739e-11 -4.60221e-11 3.29685e-11 5e-05 1.46608e-10 
15 1 0.102866 0.0173434 0.00717877 0.00580088 0.000372804 -0.000108671 9.64784e-11 1.43478e-10 -2.80624e-11 5e-05 1.46608e-10 
16 1 0.0962949 0.0154591 0.00858329 0.0062778 -5.85517e-05 -0.000101998 -6.44436e-11 -3.0652e-11 -7.47475e-12 5e-05 1.46608e-10 
17 1 0.102656 0.0168284 0.00752206 0.00556772 0.000382435 -2.08946e-05 2.81049e-11 -2.39709e-10 1.80513e-10 5e-05 1.46608e-10 
18 1 0.108742 0.0172512 0.00747071 0.00563183 0.00017373 -0.000476843 -2.92757e-12 -1.86592e-11 6.90859e-12 5e-05 1.46608e-10 
19 1 0.102518 0.0162752 0.00792836 0.00579949 0.000394448 -1.86871e-05 -1.73093e-11 1.06007e-10 -7.66202e-11 5e-05 1.46608e-10 
21 1 0.102654 0.0164608 0.00779632 0.00566788 0.000425872 -4.85723e-05 3.03342e-11 3.78376e-12 -8.75132e-14 5e-05 1.46608e-10 
22 1 0.10277 0.0173047 0.00717204 0.00578581 0.000364134 6.36524e-06 -1.59168e-11 2.34425e-10 -2.42565e-10 5e-05 1.46608e-10 
23 1 0.0967904 0.0169987 0.00731693 0.00566929 5.16571e-05 -2.72075e-05 -6.70311e-11 -7.58533e-12 4.1548e-11 5e-05 1.46608e-10 
24 1 0.108805 0.0175261 0.00736805 0.00575211 0.00016132 -0.000481354 -1.39269e-12 -1.34e-11 4.75571e-12 5e-05 1.46608e-10 
25 1 0.102713 0.0170658 0.00734762 0.00565777 0.000415774 -4.18355e-05 -1.09559e-10 -7.72e-11 4.60399e-11 5e-05 1.46608e-10 
26 1 0.108681 0.0169761 0.00757337 0.00545561 0.000218121 -0.000478214 -3.41305e-11 -4.74739e-11 3.32581e-11 5e-05 1.46608e-10 
27 1 0.0966772 0.0168995 0.007405 0.00559237 1.44495e-05 -6.55308e-05 1.37658e-10 2.49963e-11 -1.30557e-10 5e-05 1.46608e-10 
28 1 0.102966 0.0178144 0.00704884 0.00594269 0.000306982 -0.000232999 -8.87537e-11 -1.1122e-11 9.92384e-12 5e-05 1.46608e-10 
29 1 0.102498 0.0161963 0.00798628 0.00578656 0.000397138 -2.13606e-05 9.02308e-12 9.00625e-11 -8.15842e-11 5e-05 1.46608e-10 
30 1 0.103001 0.0175582 0.00710459 0.00578573 0.000243837 -0.000214888 1.44397e-11 -8.44385e-11 2.84597e-12 5e-05 1.46608e-10 
31 1 0.102751 0.017224 0.00723134 0.00576034 0.000420534 -3.66699e-05 2.98753e-11 -3.05789e-11 -3.23697e-11 5e-05 1.46608e-10 
32 1 0.102845 0.0172524 0.00721464 0.00575671 0.000409847 -3.219e-05 5.79349e-11 1.09008e-10 -1.1154e-11 5e-05 1.46608e-10 
33 1 0.108622 0.0167005 0.00767604 0.00559385 0.00017559 -0.000476205 9.34916e-12 8.57049e-11 -7.14612e-11 5e-05 1.46608e-10 
34 1 0.102637 0.0167492 0.00758026 0.00554983 0.000434269 -5.93295e-05 1.26027e-11 5.31421e-11 -2.92055e-11 5e-05 1.46608e-10 
35 1 0.102826 0.0171733 0.00727279 0.00575496 0.000398466 -4.65556e-05 4.32289e-11 1.48577e-11 -1.5043e-10 5e-05 1.46608e-10 
36 1 0.108908 0.0179843 0.00719695 0.0059408 0.00011119 -0.000477366 1.06552e-13 -1.02463e-12 2.40908e-13 5e-05 1.46608e-10 
37 1 0.102788 0.017015 0.00738907 0.00564068 0.000408741 -3.68269e-05 -3.09104e-11 1.64929e-10 -1.35227e-10 5e-05 1.46608e-10 
38 1 0.102941 0.0172802 0.00719846 0.00581468 0.000394411 -1.99087e-05 3.42168e-11 6.34523e-11 -5.14959e-11 5e-05 1.46608e-10 
39 1 0.108825 0.0176177 0.00733383 0.00578984 0.000152565 -0.000480997 8.99022e-12 8.45971e-12 -3.67992e-12 5e-05 1.46608e-10 
41 1 0.102598 0.0165911 0.00769645 0.00567134 0.000419872 -4.38068e-05 6.68155e-11 2.08526e-11 -1.09866e-11 5e-05 1.46608e-10 
42 1 0.10279 0.0173992 0.00714565 0.00578708 0.000325832 -0.000225028 1.15677e-10 3.24367e-10 -1.66694e-10 5e-05 1.46608e-10 
44 1 0.102961 0.0173686 0.00715526 0.00577031 0.000323825 -0.000185247 5.3173e-11 5.70409e-11 -3.04738e-10 5e-05 1.46608e-10 
45 1 0.108642 0.0167923 0.00764182 0.00542147 0.000220788 -0.000473411 4.94053e-11 -1.16105e-10 6.84045e-11 5e-05 1.46608e-10 
46 1 0.108721 0.0171595 0.00750492 0.00559321 0.000181277 -0.00047677 1.59476e-11 3.22285e-11 -1.42368e-11 5e-05 1.46608e-10 
47 1 0.102618 0.0166701 0.00763838 0.00567375 0.000420421 -4.44493e-05 3.68205e-11 1.47533e-11 -7.10477e-12 5e-05 1.46608e-10 
48 1 0.102829 0.0175906 0.0071022 0.00573528 0.000327354 -0.000230937 -6.40231e-11 -5.38839e-11 4.61471e-11 5e-05 1.46608e-10 
49 1 0.108701 0.0170679 0.00753914 0.00555794 0.000194809 -0.000478897 4.46821e-11 3.10979e-11 -4.24404e-12 5e-05 1.46608e-10 
50 1 0.102887 0.0178775 0.00703706 0.00621262 0.000234909 -0.000225176 -2.91051e-11 -3.17009e-11 6.10277e-13 5e-05 1.46608e-10 
51 1 0.102868 0.0177819 0.00705877 0.00574021 0.000328057 -0.00023205 -1.04973e-10 -1.02425e-11 4.93721e-12 5e-05 1.46608e-10 
52 1 0.0965831 0.0165203 0.00771699 0.00568921 0.000144747 8.6449e-05 2.6687e-10 8.00169e-11 -5.85711e-11 5e-05 1.46608e-10 
53 1 0.108763 0.0173428 0.00743649 0.00567222 0.00017041 -0.000478685 -1.59841e-11 -4.02736e-11 1.61824e-11 5e-05 1.46608e-10 
54 1 0.102634 0.0163814 0.00785456 0.00583195 0.000392523 -1.58525e-05 -5.39883e-12 4.30779e-11 -3.33406e-11 5e-05 1.46608e-10 
55 1 0.0963591 0.0156845 0.00839603 0.00625115 9.75348e-05 0.000131978 -1.65999e-10 -5.54848e-11 5.12739e-11 5e-05 1.46608e-10 
56 1 0.102807 0.0170942 0.00733093 0.0056985 0.000411626 -3.68291e-05 -1.7896e-11 1.26444e-10 -1.24367e-10 5e-05 1.46608e-10 
57 1 0.108661 0.0168842 0.00760759 0.00545911 0.000214905 -0.000476652 1.44077e-10 -5.19359e-11 -8.70018e-12 5e-05 1.46608e-10 
59 1 0.102864 0.0169638 0.00743091 0.00555996 0.000410128 -4.2169e-05 -2.34162e-10 -2.29093e-11 3.02417e-12 5e-05 1.46608e-10 
60 1 0.102883 0.0170429 0.00737276 0.005644 0.000402929 -3.24042e-05 1.04184e-11 3.81047e-11 -1.73446e-11 5e-05 1.46608e-10 
61 1 0.102579 0.016512 0.00775451 0.00566508 0.000419908 -4.43976e-05 1.04308e-10 4.99211e-11 -3.39788e-11 5e-05 1.46608e-10 
62 1 0.102981 0.0174625 0.00712633 0.00579075 0.000283099 -0.00022543 -7.85486e-11 1.04416e-10 -1.23127e-10 5e-05 1.46608e-10 
63 1 0.102925 0.0176235 0.00709223 0.00571598 0.000352899 -0.000236544 1.37701e-10 -1.03767e-10 1.57204e-11 5e-05 1.46608e-10 
64 1 0.108784 0.0174344 0.00740227 0.00571283 0.000167068 -0.000480513 -1.43762e-11 -3.4622e-11 1.33364e-11 5e-05 1.46608e-10 
65 1 0.0967162 0.0166988 0.00757231 0.00555496 0.000130036 3.05492e-06 2.32881e-10 -6.40701e-12 6.05294e-11 5e-05 1.46608e-10 
66 1 0.0966593 0.0164715 0.0077596 0.00571356 0.000153847 6.49447e-05 1.40619e-10 4.84561e-11 -5.06175e-11 5e-05 1.46608e-10 
67 1 0.103116 0.0176839 0.00707355 0.00594681 0.000174523 -0.000203651 -2.37236e-10 9.9608e-11 -1.48239e-11 5e-05 1.46608e-10 
68 1 0.103041 0.0177491 0.0070612 0.00602195 0.000200668 -0.000211677 -4.55259e-11 -4.20991e-11 6.6583e-12 5e-05 1.46608e-10 
69 1 0.102732 0.0167774 0.00756373 0.00554306 0.000444585 -6.8649e-05 -3.81869e-11 1.03559e-11 5.77865e-12 5e-05 1.46608e-10 
70 1 0.108846 0.0177094 0.00729961 0.00582703 0.000141799 -0.000479895 9.40635e-12 1.83193e-11 -7.17018e-12 5e-05 1.46608e-10 
71 1 0.0963376 0.0156087 0.00845761 0.00624214 0.000112433 0.000121156 1.76045e-11 -6.1204e-11 7.4515e-11 5e-05 1.46608e-10 
72 1 0.103021 0.0176537 0.00708289 0.00591926 0.000220566 -0.000213067 -1.25947e-10 -2.23832e-11 4.93276e-12 5e-05 1.46608e-10 
73 1 0.102694 0.0169867 0.00740577 0.005622 0.000400844 -3.3919e-05 -5.58846e-11 -1.87968e-10 1.54551e-10 5e-05 1.46608e-10 
74 1 0.102886 0.0174332 0.0071398 0.0057766 0.000342493 -0.000199319 2.30425e-11 6.41436e-11 1.52418e-11 5e-05 1.46608e-10 
76 1 0.0969075 0.0175616 0.00714947 0.00582672 -6.10571e-05 -9.61854e-07 -1.78064e-11 -1.91311e-10 1.12843e-10 5e-05 1.46608e-10 
77 1 0.103032 0.0185199 0.00689085 0.00634938 0.000229632 -0.000225905 1.69133e-11 2.44417e-11 1.15398e-11 5e-05 1.46608e-10 
78 1 0.0964225 0.0159121 0.0082112 0.0058764 0.000121658 9.9987e-05 1.44859e-10 -1.20924e-10 1.01236e-10 5e-05 1.46608e-10 
79 1 0.096621 0.0166726 0.00759306 0.00560378 0.000143102 7.28387e-05 5.40803e-11 8.44829e-11 -2.07643e-11 5e-05 1.46608e-10 
80 1 0.10293 0.018069 0.00699349 0.00625175 0.000258772 -0.000234419 -3.74147e-11 -1.22227e-10 1.12661e-11 5e-05 1.46608e-10 
81 1 0.0965637 0.0164442 0.00777882 0.00574239 0.000135455 8.66762e-05 1.09425e-10 7.89644e-11 -7.02619e-11 5e-05 1.46608e-10 
82 1 0.0966962 0.0169789 0.00734727 0.00562854 4.11183e-05 -3.53461e-05 -1.86148e-11 -5.55807e-12 -2.17132e-10 5e-05 1.46608e-10 
83 1 0.0967547 0.0164992 0.0077401 0.00571993 0.000156254 6.19178e-05 8.49204e-11 7.99857e-11 -1.15877e-10 5e-05 1.46608e-10 
84 1 0.108888 0.0178926 0.00723117 0.00590257 0.000120494 -0.000477879 1.45857e-12 5.39312e-12 -2.0962e-12 5e-05 1.46608e-10 
85 1 0.0965382 0.0160146 0.0081309 0.00570966 0.00013341 8.46652e-05 3.00983e-11 -1.62884e-11 1.6451e-11 5e-05 1.46608e-10 
86 1 0.102945 0.0177191 0.00707053 0.00578228 0.000340833 -0.000236048 2.29948e-10 -9.16864e-11 1.69168e-11 5e-05 1.46608e-10 
87 1 0.102845 0.0168847 0.00748905 0.00552327 0.000413297 -4.60697e-05 -1.42755e-10 -1.09545e-10 6.98786e-11 5e-05 1.46608e-10 
88 1 0.102969 0.0182402 0.00695451 0.00629202 0.000257222 -0.000230608 3.10394e-11 -8.52755e-11 2.41075e-12 5e-05 1.46608e-10 
89 1 0.102952 0.0181638 0.00701674 0.00626547 0.000260475 -0.000235649 -1.94535e-11 -7.53934e-11 4.05583e-11 5e-05 1.46608e-10 
90 1 0.103076 0.0174929 0.00711695 0.00582113 0.000195601 -0.000204538 -1.36509e-10 1.61884e-10 -4.4332e-11 5e-05 1.46608e-10 
91 1 0.09664 0.0167483 0.00753047 0.00556177 0.000100053 1.74218e-05 -1.97674e-11 6.23372e-11 -5.10953e-11 5e-05 1.46608e-10 
92 1 0.103101 0.0180372 0.00699577 0.00621116 0.000256013 -0.00022672 1.92151e-10 -4.27366e-11 4.04769e-11 5e-05 1.46608e-10 
93 1 0.103065 0.0182127 0.00695793 0.00628522 0.000249238 -0.000229734 3.12202e-11 -1.00805e-11 -1.71934e-11 5e-05 1.46608e-10 
94 1 0.103156 0.0183763 0.00691917 0.00630111 0.000221916 -0.000227568 -2.52166e-11 1.00694e-10 4.53263e-11 5e-05 1.46608e-10 
95 1 0.103084 0.018109 0.00706327 0.00623827 0.000262111 -0.000227367 -9.89731e-11 9.96517e-11 -2.89422e-11 5e-05 1.46608e-10 
96 1 0.103122 0.0181324 0.0069741 0.00625535 0.000238042 -0.000226042 -1.14432e-11 -7.1611e-11 1.72726e-12 5e-05 1.46608e-10 
97 1 0.0965237 0.0162921 0.00790241 0.00578689 0.000119462 9.99438e-05 2.652e-11 6.94925e-11 -7.50485e-11 5e-05 1.46608e-10 
98 1 0.102991 0.0183377 0.00695782 0.00630654 0.000251151 -0.00022767 1.19883e-11 1.40417e-11 1.10156e-12 5e-05 1.46608e-10 
99 1 0.0966972 0.0166239 0.0076357 0.00562581 0.000163216 5.72692e-05 1.37142e-10 -1.43907e-11 4.07349e-11 5e-05 1.46608e-10 
100 1 0.103036 0.0173083 0.00718199 0.0057463 0.000363299 7.74382e-06 -5.5891e-11 7.20214e-11 -1.03292e-10 5e-05 1.46608e-10 
101 1 0.0966395 0.0163951 0.00782169 0.00574306 0.000159371 6.39695e-05 1.16836e-10 -2.19594e-11 2.4987e-11 5e-05 1.46608e-10 
102 1 0.0643568 0.0187248 0.00531097 4.07235e-15 1.0533e-14 8.29658e-14 1.65953e-23 5.63775e-23 -3.51552e-24 5e-05 1.46608e-10 
103 1 0.24257 0.0191927 0.00520306 -3.21591e-22 4.86658e-23 1.23839e-22 0 0 0 5e-05 1.46608e-10 
104 1 0.0969828 0.0174975 0.00716517 0.00575658 3.305e-05 -1.54327e-05 1.52869e-11 -8.93977e-11 -1.48352e-11 5e-05 1.46608e-10 
105 1 0.0964831 0.0161401 0.00802591 0.00572778 0.000130447 8.67148e-05 1.40514e-10 -8.13267e-11 5.56628e-11 5e-05 1.46608e-10 
106 1 0.0970582 0.0174332 0.00718094 0.00576265 1.96104e-05 -1.34889e-05 1.83428e-10 -1.48773e-12 7.00757e-12 5e-05 1.46608e-10 
107 1 0.0964427 0.0159881 0.00814943 0.00571542 0.000138717 8.04393e-05 8.25979e-11 -9.65737e-11 9.10774e-11 5e-05 1.46608e-10 
108 1 0.102769 0.0169359 0.00744722 0.00560599 0.000399274 -3.18217e-05 2.5103e-10 1.9713e-10 -1.42416e-10 5e-05 1.46608e-10 
109 1 0.102848 0.0176862 0.00708048 0.00571417 0.000329255 -0.000231162 7.35714e-11 -5.70535e-12 2.88703e-12 5e-05 1.46608e-10 
110 1 0.103215 0.0184658 0.00689772 0.00635164 0.000245 -0.000229803 -3.83688e-11 2.26539e-11 -1.05465e-11 5e-05 1.46608e-10 
111 1 0.103039 0.0185365 0.00698922 0.00636991 0.000198879 -0.000222222 5.09361e-11 7.93666e-11 -1.64419e-11 5e-05 1.46608e-10 
112 1 0.096544 0.0163681 0.00784066 0.00579261 0.000122311 9.77327e-05 6.80053e-11 1.41881e-10 -9.80942e-11 5e-05 1.46608e-10 
113 1 0.0973811 0.0181313 0.0070081 0.00612358 -7.80446e-05 1.01542e-05 3.1026e-11 -5.81421e-11 1.64092e-11 5e-05 1.46608e-10 
114 1 0.0969243 0.0172117 0.00723581 0.00567879 5.29794e-05 -2.14994e-05 -2.06719e-11 -9.81019e-11 5.93215e-11 5e-05 1.46608e-10 
115 1 0.102906 0.0175278 0.00711395 0.00574248 0.000345851 -0.000238795 -7.09055e-11 3.53228e-11 -6.86107e-12 5e-05 1.46608e-10 
116 1 0.10275 0.0168568 0.00750536 0.00556985 0.000393672 -2.93766e-05 3.68522e-10 1.70386e-10 -1.07596e-10 5e-05 1.46608e-10 
117 1 0.102613 0.0163025 0.00791252 0.00580322 0.000387244 -1.34269e-05 -1.07259e-10 4.25606e-11 -3.47937e-11 5e-05 1.46608e-10 
118 1 0.0963807 0.0157603 0.0083345 0.00626757 8.26121e-05 0.000145108 -1.58567e-10 -6.13838e-11 3.49559e-11 5e-05 1.46608e-10 
119 1 0.102902 0.017122 0.00731465 0.00573731 0.000395742 -2.17106e-05 5.54837e-11 7.48294e-11 -6.44017e-11 5e-05 1.46608e-10 
120 1 0.102477 0.0161174 0.00804421 0.00576338 0.000399767 -2.51331e-05 -3.69453e-11 6.49281e-11 -6.14869e-11 5e-05 1.46608e-10 
121 1 0.102437 0.0159595 0.00816007 0.00573774 0.000414123 -3.63808e-05 -2.53263e-11 1.1588e-11 -2.49851e-11 5e-05 1.46608e-10 
122 1 0.103158 0.0186561 0.00685718 0.00639153 0.000224278 -0.000227198 5.15357e-11 -3.47112e-11 -6.81505e-13 5e-05 1.46608e-10 
123 1 0.0965788 0.0161666 0.00800742 0.00575978 0.00012609 9.27436e-05 7.55394e-11 -2.50933e-11 3.92607e-11 5e-05 1.46608e-10 
124 1 0.103024 0.0181028 0.00698339 0.00625308 0.000259257 -0.000233058 -1.0568e-10 -1.22561e-10 -3.2117e-11 5e-05 1.46608e-10 
125 1 0.102593 0.0162235 0.00797045 0.00578864 0.000386793 -1.37697e-05 -1.43537e-10 7.05533e-11 -5.85428e-11 5e-05 1.46608e-10 
126 1 0.102809 0.0174949 0.00712398 0.00575851 0.000327173 -0.00021381 -2.8502e-11 -5.54236e-11 1.26048e-10 5e-05 1.46608e-10 
127 1 0.0965035 0.0162161 0.00796417 0.00576002 0.00012375 9.30563e-05 3.30642e-11 -1.12599e-11 6.78794e-12 5e-05 1.46608e-10 
128 1 0.102909 0.0179727 0.00701539 0.00622957 0.000228531 -0.000223725 -7.89764e-12 -3.60322e-11 6.74444e-12 5e-05 1.46608e-10 
129 1 0.103043 0.018284 0.00702438 0.00631438 0.000259005 -0.000233787 -3.04696e-11 -4.71044e-11 2.87698e-11 5e-05 1.46608e-10 
130 1 0.0968092 0.0170845 0.00726739 0.00570679 4.57673e-05 -2.03408e-05 -4.33577e-11 1.09692e-10 2.69409e-11 5e-05 1.46608e-10 
131 1 0.0966782 0.0165477 0.00769765 0.00568589 0.000153788 7.09536e-05 -5.3112e-11 2.20842e-11 1.81958e-11 5e-05 1.46608e-10 
132 1 0.103007 0.0180054 0.00700544 0.00622835 0.000245965 -0.000227083 6.10724e-11 -1.09294e-11 -1.53357e-11 5e-05 1.46608e-10 
133 1 0.102769 0.0165683 0.00772152 0.00566526 0.000414491 -4.02878e-05 1.06292e-10 -1.93249e-10 1.4947e-10 5e-05 1.46608e-10 
134 1 0.102922 0.0172011 0.00725661 0.00579664 0.000390952 -1.60275e-05 -7.39401e-11 1.02979e-10 -1.0999e-10 5e-05 1.46608e-10 
135 1 0.102572 0.0161446 0.00802838 0.00578149 0.000387597 -1.43742e-05 -6.32009e-11 4.11651e-11 -3.21028e-11 5e-05 1.46608e-10 
136 1 0.096518 0.0159386 0.00819268 0.00569923 0.000132797 8.46829e-05 1.49809e-10 1.04812e-11 -6.48552e-12 5e-05 1.46608e-10 
137 1 0.103054 0.0186151 0.00686918 0.00637197 0.000223981 -0.000226056 -1.64845e-11 -5.17073e-11 1.14348e-11 5e-05 1.46608e-10 
138 1 0.102712 0.0166983 0.00762185 0.0056756 0.000419102 -4.32647e-05 7.61214e-11 -5.87443e-11 5.02904e-11 5e-05 1.46608e-10 
140 1 0.103137 0.0185609 0.00687886 0.00637713 0.00022835 -0.000228064 2.58155e-11 -6.81585e-12 1.08855e-11 5e-05 1.46608e-10 
141 1 0.0965585 0.0160906 0.00806916 0.00573291 0.000131443 8.76379e-05 1.03604e-10 -3.9571e-11 3.42762e-11 5e-05 1.46608e-10 
142 1 0.0969438 0.0173071 0.00721223 0.00572865 3.0554e-05 -1.60487e-05 -1.76427e-10 5.39162e-11 4.41171e-12 5e-05 1.46608e-10 
143 1 0.0964628 0.0160641 0.00808765 0.0057098 0.000136233 8.27438e-05 1.89166e-11 -7.06956e-11 5.15392e-11 5e-05 1.46608e-10 
144 1 0.0969045 0.0171164 0.00725936 0.00571277 6.12204e-05 -2.37827e-05 -6.35599e-11 -2.766e-11 -7.51966e-12 5e-05 1.46608e-10 
146 1 0.0967737 0.0165751 0.0076778 0.00557573 -4.14387e-05 -0.000216287 2.71977e-10 -2.50036e-10 -3.65168e-10 5e-05 1.46608e-10 
147 1 0.0964974 0.0158622 0.00825477 0.00606709 0.000287974 -3.00352e-05 2.57092e-10 -9.06736e-11 8.40993e-11 5e-05 1.46608e-10 
148 1 0.0967544 0.0172449 0.00722863 0.00569188 7.64349e-05 -2.43153e-05 5.69841e-11 1.70206e-10 -1.21907e-10 5e-05 1.46608e-10 
149 1 0.103116 0.0184657 0.00690054 0.00635099 0.00023709 -0.000227016 -2.25955e-11 8.94892e-12 -8.95044e-11 5e-05 1.46608e-10 
150 1 0.0968111 0.0167247 0.00755046 0.00553841 0.000106999 -6.29331e-05 5.7845e-10 -4.97715e-11 2.44385e-10 5e-05 1.46608e-10 
151 1 0.0971741 0.0175584 0.00714984 0.00588897 -8.79492e-05 1.32317e-05 -7.52426e-11 7.78938e-11 -1.09343e-11 5e-05 1.46608e-10 
153 1 0.0966196 0.0163188 0.0078837 0.00580124 0.000130647 8.98375e-05 4.56313e-11 -1.36854e-11 3.68664e-11 5e-05 1.46608e-10 
154 1 0.0968686 0.0173712 0.00719654 0.00569673 -3.90606e-07 1.88345e-06 -6.7991e-11 -1.44482e-10 -5.13759e-11 5e-05 1.46608e-10 
155 1 0.0969272 0.0176568 0.00712594 0.0060565 -2.50078e-06 -7.24741e-06 -9.39304e-11 1.13617e-10 8.68096e-11 5e-05 1.46608e-10 
156 1 0.0968491 0.0172759 0.00722008 0.00570825 6.72957e-05 -2.49686e-05 -6.81209e-11 4.78903e-11 -4.72351e-11 5e-05 1.46608e-10 
157 1 0.0219312 0.0187687 0.00551176 -3.8244e-14 8.16907e-14 2.95893e-13 -3.4054e-22 2.44018e-23 -4.88037e-23 5e-05 1.46608e-10 
158 1 0.0969644 0.0175703 0.00723126 0.00588263 -9.48566e-06 -4.36258e-05 -4.26774e-10 -1.71731e-11 -3.55318e-11 5e-05 1.46608e-10 
159 1 0.103061 0.0178446 0.0070395 0.00604953 0.000195273 -0.000210689 -5.891e-11 -3.54949e-11 2.26659e-12 5e-05 1.46608e-10 
160 1 0.0968128 0.0175304 0.00715738 0.00576448 9.9702e-05 -4.27645e-05 -1.20557e-10 8.4158e-11 1.66018e-10 5e-05 1.46608e-10 
162 1 0.0967739 0.01734 0.00720439 0.00566315 9.50743e-05 -4.19037e-05 -3.0863e-10 1.05361e-10 -1.50328e-10 5e-05 1.46608e-10 
164 1 0.0970943 0.0180371 0.00703149 0.00616353 1.08383e-05 2.1457e-05 -7.10984e-11 -6.2793e-11 -1.85349e-11 5e-05 1.46608e-10 
165 1 0.0972844 0.0178193 0.00708528 0.00604869 -8.63519e-05 1.19346e-05 8.75863e-11 1.56803e-11 -4.58714e-11 5e-05 1.46608e-10 
166 1 0.10273 0.0164102 0.00783765 0.00566511 0.000424432 -4.77419e-05 -2.25436e-10 -1.56291e-10 1.05695e-10 5e-05 1.46608e-10 
167 1 0.0967927 0.01665 0.00761429 0.00559138 5.04342e-05 -0.000108264 1.00149e-10 -4.62989e-11 -9.01378e-11 5e-05 1.46608e-10 
168 1 0.0970779 0.0175283 0.00715742 0.00588877 -1.67601e-05 -5.13014e-06 -3.71987e-11 9.41081e-11 -2.7405e-11 5e-05 1.46608e-10 
169 1 0.097285 0.0180996 0.00701608 0.00612695 -8.63772e-05 1.36399e-05 4.78509e-12 1.16751e-10 -2.50035e-11 5e-05 1.46608e-10 
170 1 0.0970988 0.0176233 0.00713395 0.00600668 -4.8181e-05 3.27583e-06 -5.46693e-11 1.16757e-10 -7.31793e-12 5e-05 1.46608e-10 
171 1 0.102749 0.0164893 0.00777959 0.00567032 0.000419685 -4.39548e-05 -4.88118e-12 -1.84267e-10 1.38771e-10 5e-05 1.46608e-10 
172 1 0.0972162 0.0177482 0.00710292 0.00605526 -0.000110022 1.82428e-05 -4.01575e-11 5.74762e-11 -1.1066e-11 5e-05 1.46608e-10 
173 1 0.103176 0.0179719 0.00700816 0.00617496 0.000209697 -0.000217449 2.60972e-11 1.56844e-13 -2.20412e-12 5e-05 1.46608e-10 
174 1 0.0970238 0.0176876 0.0071182 0.00605503 -7.0541e-06 -1.64475e-06 5.72104e-11 5.50069e-11 -1.08636e-10 5e-05 1.46608e-10 
175 1 0.0907828 0.0173899 0.00720208 0.00559732 -0.000268285 -0.000179334 -2.97737e-11 -9.94826e-12 5.50301e-12 5e-05 1.46608e-10 
176 1 0.0968296 0.0171816 0.00724707 0.0056931 4.22396e-05 -1.58622e-05 3.71658e-11 1.0829e-10 7.62781e-12 5e-05 1.46608e-10 
177 1 0.096852 0.0177208 0.00711012 0.0061012 4.77592e-05 2.3851e-06 -6.50577e-11 5.82735e-12 -3.81924e-11 5e-05 1.46608e-10 
178 1 0.0973608 0.0180362 0.0070316 0.00613134 -7.99037e-05 1.17378e-05 1.04839e-11 2.13915e-11 1.08009e-10 5e-05 1.46608e-10 
179 1 0.0972665 0.0180041 0.0070397 0.00613398 -8.76874e-05 5.35764e-06 -1.28235e-10 -4.56365e-11 -1.5296e-10 5e-05 1.46608e-10 
181 1 0.0967902 0.0174406 0.00728065 0.00570113 0.000108163 -4.42694e-05 -6.78751e-11 -1.10637e-10 -1.05619e-10 5e-05 1.46608e-10 
182 1 0.102693 0.016619 0.00768008 0.00567185 0.000419601 -4.35889e-05 8.58807e-11 -8.92694e-11 7.34208e-11 5e-05 1.46608e-10 
183 1 0.0970027 0.0175927 0.00714165 0.00595028 9.96061e-06 -8.55237e-06 5.82255e-11 -2.66073e-10 -3.29359e-11 5e-05 1.46608e-10 
184 1 0.103066 0.0180118 0.00708586 0.00622653 0.000236348 -0.000222491 -6.57586e-11 8.3895e-11 2.19097e-11 5e-05 1.46608e-10 
185 1 0.096735 0.0171495 0.00725145 0.00570228 5.25261e-05 -1.71077e-05 4.77797e-11 2.20729e-10 -3.52816e-11 5e-05 1.46608e-10 
186 1 0.0968306 0.0173486 0.00728627 0.0056074 6.9679e-05 -6.94311e-06 -1.03109e-10 -3.24665e-10 -1.76989e-10 5e-05 1.46608e-10 
187 1 0.103016 0.0172293 0.00723998 0.00577032 0.0003539 1.04524e-05 8.61841e-11 -5.12407e-12 -1.85369e-11 5e-05 1.46608e-10 
188 1 0.103084 0.0183091 0.00693605 0.00629564 0.000237358 -0.000226864 -9.01436e-12 -2.97295e-11 1.74471e-11 5e-05 1.46608e-10 
189 1 0.103055 0.017397 0.00713875 0.00578196 0.000267971 -0.000219547 -2.23792e-11 2.29822e-10 -5.54953e-11 5e-05 1.46608e-10 
190 1 0.0909178 0.0175931 0.00709518 0.0054944 -0.000410366 -0.000104159 6.58276e-11 5.43565e-11 -2.96707e-11 5e-05 1.46608e-10 
191 1 0.103075 0.0187103 0.0068475 0.0063879 0.000218044 -0.000225726 -2.15743e-11 -9.97815e-11 2.49867e-11 5e-05 1.46608e-10 
192 1 0.097019 0.0172428 0.007228 0.00567137 5.74688e-05 -2.31885e-05 -1.46714e-10 -4.56496e-11 1.1835e-11 5e-05 1.46608e-10 
193 1 0.102826 0.0168056 0.00754717 0.00556245 0.00040793 -4.01865e-05 1.47905e-11 -1.62591e-10 1.24891e-10 5e-05 1.46608e-10 
194 1 0.0968486 0.0168743 0.00742313 0.00574772 0.000101606 -6.3688e-05 -6.93176e-11 -1.3031e-10 1.49895e-10 5e-05 1.46608e-10 
195 1 0.0973047 0.0179143 0.00706179 0.0061489 -9.51988e-05 6.32564e-06 -1.97127e-10 2.23979e-11 -9.07972e-11 5e-05 1.46608e-10 
196 1 0.0962732 0.015387 0.00864911 0.00631909 -0.000240278 -0.000298611 -9.12752e-12 -1.68989e-11 -3.71916e-11 5e-05 1.46608e-10 
197 1 0.0908416 0.0176528 0.00707016 0.00562145 -0.000270967 -0.000178605 1.37926e-11 3.01089e-11 -7.95904e-12 5e-05 1.46608e-10 
198 1 0.0966584 0.0168233 0.00746695 0.00556289 3.79822e-05 -5.27347e-05 9.51571e-11 6.49522e-11 -5.56894e-11 5e-05 1.46608e-10 
199 1 0.0967933 0.0174352 0.00718085 0.00567063 0.000120134 -4.40468e-05 -9.51178e-11 -2.77318e-11 1.93317e-11 5e-05 1.46608e-10 
200 1 0.0967721 0.0169232 0.00738118 0.0056323 6.26354e-05 -2.74788e-05 5.67568e-11 6.35946e-11 -1.10923e-10 5e-05 1.46608e-10 
201 1 0.097231 0.0181813 0.00699575 0.00616043 -6.20292e-05 3.41152e-05 -7.83033e-11 1.39968e-10 -2.10251e-11 5e-05 1.46608e-10 
202 1 0.0970386 0.017338 0.00720447 0.00569249 4.49777e-05 -1.99116e-05 -1.07006e-10 -1.85567e-11 4.08951e-12 5e-05 1.46608e-10 
203 1 0.103303 0.0184175 0.00690599 0.00634962 0.000238882 -0.000229587 -9.38047e-11 3.59822e-11 1.28208e-11 5e-05 1.46608e-10 
204 1 0.0967536 0.0168484 0.00744488 0.00558204 6.99328e-05 -4.06381e-05 -1.1003e-10 9.01855e-12 -1.40142e-10 5e-05 1.46608e-10 
205 1 0.0970632 0.0179746 0.00711845 0.00615703 -2.54713e-06 -7.64354e-06 1.03098e-10 2.77018e-10 -2.67359e-10 5e-05 1.46608e-10 
206 1 0.0970453 0.0177824 0.00709476 0.00609833 -2.4992e-05 -8.63516e-06 -6.05894e-11 1.20532e-10 -7.19488e-12 5e-05 1.46608e-10 
207 1 0.0965992 0.0162427 0.00794557 0.00576774 8.64187e-05 0.000124852 -2.41446e-11 -6.0737e-13 1.32586e-11 5e-05 1.46608e-10 
208 1 0.096888 0.0174664 0.007173 0.00574685 -3.60276e-05 1.18524e-06 -5.17818e-11 -1.856e-10 8.14699e-11 5e-05 1.46608e-10 
209 1 0.0968302 0.0167995 0.00748685 0.00555276 0.000114967 -8.62462e-05 -1.05802e-10 -2.07039e-10 -1.05098e-10 5e-05 1.46608e-10 
210 1 0.102909 0.0178412 0.00712758 0.0063696 -2.4157e-05 -0.000368592 3.74227e-11 -8.10391e-11 -5.71412e-11 5e-05 1.46608e-10 
211 1 0.103173 0.0182633 0.00694374 0.00628748 0.000230241 -0.000226265 -1.98511e-11 -3.87622e-11 5.29618e-12 5e-05 1.46608e-10 
212 1 0.0971205 0.017718 0.00711052 0.00601987 -4.68418e-05 3.65884e-06 -8.30839e-11 9.23861e-11 -3.76921e-11 5e-05 1.46608e-10 
213 1 0.102997 0.0171501 0.00729816 0.00575663 0.000327094 3.00503e-05 -1.97106e-10 1.22224e-10 -1.05067e-10 5e-05 1.46608e-10 
214 1 0.103139 0.0182168 0.00702545 0.00628748 0.000219998 -0.000234697 -4.41906e-11 1.47877e-11 3.96277e-11 5e-05 1.46608e-10 
215 1 0.0908982 0.0175041 0.00713981 0.00560925 -0.000278115 -0.000175295 3.60293e-11 -7.71872e-12 -5.92587e-13 5e-05 1.46608e-10 
216 1 0.0968323 0.0176256 0.00713378 0.00594374 6.91097e-05 -2.54671e-05 2.22652e-10 -7.03926e-12 2.32175e-11 5e-05 1.46608e-10 
217 1 0.102788 0.0166474 0.0076634 0.00565834 0.000407865 -3.5733e-05 -1.25382e-10 -1.99157e-10 1.47388e-10 5e-05 1.46608e-10 
218 1 0.0969701 0.0178464 0.00707895 0.00611129 -8.08495e-06 2.12963e-05 4.96453e-11 8.44686e-11 -1.32707e-10 5e-05 1.46608e-10 
219 1 0.103016 0.0184196 0.00701225 0.00634853 0.000218916 -0.000229561 3.50712e-11 2.41004e-10 1.90169e-12 5e-05 1.46608e-10 
220 1 0.0968887 0.0176357 0.00721577 0.00597758 -5.39508e-05 -4.82129e-05 -3.9776e-11 4.67647e-11 1.4784e-10 5e-05 1.46608e-10 
221 1 0.0907991 0.0170703 0.00736792 0.00557625 -4.42457e-05 0.000242478 -1.0391e-11 3.837e-12 -1.26469e-11 5e-05 1.46608e-10 
222 1 0.102807 0.0167265 0.00760529 0.00562683 0.000403777 -3.41837e-05 2.59335e-10 -2.25618e-10 1.73805e-10 5e-05 1.46608e-10 
223 1 0.0969633 0.0174023 0.0071887 0.00569189 3.92825e-05 -1.84812e-05 -2.34177e-10 -4.11669e-11 1.12279e-11 5e-05 1.46608e-10 
224 1 0.0967156 0.0170608 0.00729334 0.00566819 5.15727e-05 -1.84921e-05 -3.30119e-11 1.67256e-10 -3.99022e-11 5e-05 1.46608e-10 
225 1 0.103082 0.0179403 0.00701777 0.0061828 0.000194671 -0.000214567 3.71026e-11 -3.95089e-11 8.75573e-12 5e-05 1.46608e-10 
226 1 0.0971951 0.0176533 0.00712638 0.00598169 -0.000101687 1.64299e-05 -1.61924e-10 5.33786e-11 -3.27102e-11 5e-05 1.46608e-10 
227 1 0.0908579 0.017329 0.00722772 0.00559602 -0.00027224 -0.000177379 9.19609e-12 -2.16286e-11 1.20516e-11 5e-05 1.46608e-10 
228 1 0.0908024 0.0174776 0.00715811 0.00560613 -0.000270059 -0.000178875 3.07509e-11 2.59651e-11 -1.40141e-11 5e-05 1.46608e-10 
229 1 0.0968693 0.0175402 0.00723935 0.00576326 9.98161e-06 -2.07161e-05 -3.10277e-11 -8.40456e-11 1.46344e-10 5e-05 1.46608e-10 
230 1 0.0971549 0.0182441 0.00697974 0.00620514 -1.38702e-05 2.29312e-05 -1.77654e-10 3.59269e-11 -2.09954e-11 5e-05 1.46608e-10 
231 1 0.0907632 0.0173023 0.00724606 0.00558885 -0.00026621 -0.000179602 -3.16112e-11 -2.93666e-11 1.5981e-11 5e-05 1.46608e-10 
232 1 0.0967358 0.016423 0.00780205 0.005708 0.000152885 6.73961e-05 1.5879e-10 5.0951e-12 -5.55013e-11 5e-05 1.46608e-10 
233 1 0.0968662 0.0169493 0.00735934 0.0057329 0.00010702 -7.20936e-05 -8.87425e-11 -1.54676e-10 1.57363e-10 5e-05 1.46608e-10 
234 1 0.103011 0.0184246 0.00691253 0.0063287 0.000237081 -0.00022831 2.55356e-11 3.39144e-11 4.18782e-13 5e-05 1.46608e-10 
235 1 0.0971217 0.0184977 0.00691601 0.00626818 -1.41053e-05 2.26565e-05 -8.5612e-12 -2.15302e-10 5.13922e-11 5e-05 1.46608e-10 
236 1 0.0971757 0.0183392 0.00695595 0.00621246 -1.24933e-05 2.35135e-05 3.07713e-11 2.18924e-12 7.326e-12 5e-05 1.46608e-10 
237 1 0.0972732 0.0183712 0.00694823 0.00621457 -5.15084e-05 3.20757e-05 2.05785e-10 -9.54508e-11 2.43382e-11 5e-05 1.46608e-10 
239 1 0.0905879 0.0165387 0.00768811 0.0056015 -4.46064e-05 0.000243706 9.35625e-12 2.27358e-11 -1.35544e-11 5e-05 1.46608e-10 
240 1 0.0906462 0.0167901 0.00753509 0.00549089 -2.95506e-05 0.000229916 -3.57405e-12 4.59355e-12 -2.38042e-12 5e-05 1.46608e-10 
241 1 0.090568 0.016455 0.00773905 0.00558669 -4.22037e-05 0.000241653 4.93535e-12 1.9758e-11 -1.1374e-11 5e-05 1.46608e-10 
242 1 0.096979 0.0170517 0.00727523 0.00572641 7.64963e-05 -3.09886e-05 2.25111e-11 8.6711e-11 -6.38335e-12 5e-05 1.46608e-10 
243 1 0.0967346 0.0167736 0.00750851 0.00554043 8.24946e-05 -4.29376e-05 2.75989e-10 4.87306e-11 1.43852e-11 5e-05 1.46608e-10 
244 1 0.0906075 0.0166225 0.00763712 0.00546022 -2.30561e-05 0.00022497 6.61782e-12 4.43537e-12 -4.84432e-12 5e-05 1.46608e-10 
246 1 0.090724 0.0171278 0.00733546 0.00558143 -9.84128e-05 0.000136602 5.74261e-12 1.1167e-12 -3.6212e-11 5e-05 1.46608e-10 
247 1 0.0969929 0.0179427 0.00705487 0.00614721 1.53476e-05 1.25275e-05 6.04583e-11 -3.24837e-11 3.35535e-11 5e-05 1.46608e-10 