ITEM: TIMESTEP
36200000
ITEM: NUMBER OF ATOMS
271
ITEM: BOX BOUNDS ff ff ff
-0.02 0.43
-0.02 0.06
-0.02 0.07
ITEM: ATOMS id type x y z vx vy vz fx fy fz radius mass 
1 1 0.223537 0.0154723 0.00887148 0.00594752 0.000251772 0.000251091 1.84238e-11 3.9982e-11 -4.93052e-11 5e-05 1.46608e-10 
2 1 0.22439 0.0179961 0.00698741 0.00591031 0.000265205 0.000104354 4.1072e-10 1.57252e-10 -1.317e-10 5e-05 1.46608e-10 
3 1 0.218497 0.017678 0.00710754 0.0061537 -0.000545838 0.000308469 1.88243e-10 6.88534e-11 -6.08242e-11 5e-05 1.46608e-10 
4 1 0.224469 0.0178968 0.00699123 0.00643151 0.000309993 0.000116018 -3.6677e-11 1.59804e-10 -7.07283e-11 5e-05 1.46608e-10 
5 1 0.223517 0.0153973 0.00893451 0.00599608 0.000249589 0.000256082 1.31433e-11 5.69101e-11 -4.17e-11 5e-05 1.46608e-10 
6 1 0.230079 0.017478 0.00735536 0.00600916 -5.78325e-05 -0.000349492 2.91751e-12 6.50172e-13 -3.97342e-13 5e-05 1.46608e-10 
7 1 0.223619 0.0157721 0.00861956 0.00604466 0.000220701 0.000284893 -9.23714e-11 1.12171e-11 -1.80815e-11 5e-05 1.46608e-10 
8 1 0.223497 0.0153224 0.00899754 0.00604554 0.000248946 0.000262166 3.98346e-13 6.27147e-11 -4.37561e-11 5e-05 1.46608e-10 
9 1 0.230207 0.0180005 0.00708978 0.00616028 -7.07835e-05 -0.000354582 4.66632e-11 1.26184e-10 6.82038e-11 5e-05 1.46608e-10 
10 1 0.224096 0.0174886 0.00717751 0.00626018 0.000254375 0.000265557 -2.06696e-10 3.09361e-11 -4.92519e-12 5e-05 1.46608e-10 
11 1 0.22423 0.0176773 0.00705523 0.00643245 0.000241588 0.000209103 1.6864e-10 2.36352e-11 -5.43878e-11 5e-05 1.46608e-10 
12 1 0.217603 0.0156413 0.00861431 0.00560279 -0.000472427 5.35027e-05 -5.02406e-11 2.03595e-10 -1.82216e-10 5e-05 1.46608e-10 
13 1 0.223434 0.0151211 0.00920946 0.00618726 -0.000500751 -0.000331964 1.5033e-13 3.84287e-11 -7.40854e-11 5e-05 1.46608e-10 
14 1 0.218279 0.0183238 0.00700794 0.00566653 -0.000282127 0.000253331 6.09773e-12 -1.9791e-11 -1.88916e-11 5e-05 1.46608e-10 
15 1 0.224466 0.0177975 0.0070025 0.00643682 0.000316707 0.000186201 1.35207e-10 1.01829e-10 -3.92441e-11 5e-05 1.46608e-10 
16 1 0.218378 0.0183612 0.0070064 0.00567658 -0.000291476 0.000256112 -2.1308e-11 -2.78451e-10 5.88483e-11 5e-05 1.46608e-10 
17 1 0.224499 0.0179923 0.00698952 0.00625024 0.000364912 0.000106708 2.59819e-10 1.14206e-10 -1.04938e-11 5e-05 1.46608e-10 
19 1 0.223476 0.0152474 0.00906056 0.00609451 0.000246216 0.000268218 2.35487e-11 1.90297e-11 -8.51796e-11 5e-05 1.46608e-10 
21 1 0.224053 0.0173387 0.00730297 0.00616468 0.00027013 0.000253075 -7.92573e-11 -1.30389e-10 1.09578e-10 5e-05 1.46608e-10 
22 1 0.224209 0.0175898 0.00709877 0.00631058 0.000284275 0.000256398 -1.01684e-10 3.72296e-11 -1.17572e-10 5e-05 1.46608e-10 
23 1 0.217844 0.0161848 0.00814811 0.00542766 -0.000465593 -3.54693e-06 2.03716e-10 5.39276e-11 -7.13754e-11 5e-05 1.46608e-10 
24 1 0.230288 0.0183673 0.00695299 0.00578731 0.000194287 3.48485e-05 -4.00076e-12 -6.899e-12 4.34551e-12 5e-05 1.46608e-10 
25 1 0.223691 0.0159978 0.0084362 0.00640423 0.00015422 0.00033581 -5.81753e-11 -3.94409e-11 1.23408e-11 5e-05 1.46608e-10 
26 1 0.230164 0.0178263 0.0071783 0.00610536 -7.22339e-05 -0.000348484 1.83183e-10 -9.44318e-11 2.96607e-13 5e-05 1.46608e-10 
27 1 0.218581 0.0180673 0.00705563 0.00595098 -0.000119032 0.000240782 4.34198e-10 -3.90359e-11 2.60655e-11 5e-05 1.46608e-10 
28 1 0.224345 0.0177952 0.00700147 0.00620594 0.00038737 -0.000295912 5.27184e-11 1.98658e-10 -4.0043e-11 5e-05 1.46608e-10 
29 1 0.22364 0.0158468 0.00855668 0.00628906 0.00018772 0.000334366 -1.01438e-10 1.99096e-13 1.55877e-12 5e-05 1.46608e-10 
30 1 0.224175 0.0177686 0.00713049 0.00639125 0.000467909 -9.81905e-05 -3.30393e-11 2.77627e-10 -1.40442e-10 5e-05 1.46608e-10 
31 1 0.223711 0.0160701 0.00836978 0.00631436 0.000184802 0.000338746 -5.75487e-11 -2.85584e-11 1.5581e-11 5e-05 1.46608e-10 
32 1 0.224199 0.0171488 0.0074782 0.00593148 0.000270979 0.000231095 2.27986e-11 -2.71448e-10 2.52795e-10 5e-05 1.46608e-10 
33 1 0.2301 0.0175651 0.00731109 0.00603409 -5.92121e-05 -0.000350232 -2.42257e-11 3.3649e-13 -2.15229e-12 5e-05 1.46608e-10 
34 1 0.223598 0.0156971 0.00868242 0.00588909 0.000245274 0.000251655 -2.08835e-11 1.01026e-11 -1.1722e-11 5e-05 1.46608e-10 
35 1 0.224324 0.0174407 0.00723642 0.00630865 0.000945332 -0.000318636 -2.64449e-10 9.75846e-11 -1.09663e-10 5e-05 1.46608e-10 
36 1 0.230269 0.0182746 0.00698526 0.00574001 0.000200519 3.22452e-05 -4.32411e-12 1.97817e-11 1.52616e-11 5e-05 1.46608e-10 
37 1 0.224257 0.0182223 0.00697959 0.00576546 0.000159299 0.000113904 5.9945e-11 1.24696e-10 -1.44905e-11 5e-05 1.46608e-10 
38 1 0.224414 0.0185478 0.00697483 0.00580733 0.000106428 0.000105891 1.92845e-10 -5.86155e-11 7.1329e-12 5e-05 1.46608e-10 
39 1 0.230306 0.0184601 0.00692071 0.00583677 0.000187521 3.8117e-05 9.53827e-12 1.07355e-11 2.40373e-12 5e-05 1.46608e-10 
41 1 0.22455 0.0180798 0.00698841 0.00597599 0.0004477 0.000104085 -6.52144e-12 -4.14637e-11 7.33654e-12 5e-05 1.46608e-10 
42 1 0.321436 0.0173475 0.00552525 4.61071e-16 2.25467e-15 8.4636e-14 -2.91791e-23 -4.1359e-24 2.06795e-25 5e-05 1.46608e-10 
44 1 0.224368 0.0178918 0.00698946 0.00606169 0.000459258 0.000112001 -1.38224e-10 -2.86538e-11 3.97861e-12 5e-05 1.46608e-10 
45 1 0.230122 0.0176521 0.00726683 0.00606088 -6.05758e-05 -0.000351502 -1.51177e-10 2.71831e-11 -9.40228e-12 5e-05 1.46608e-10 
47 1 0.223557 0.0155473 0.00880845 0.0058947 0.000254094 0.000245168 -1.33879e-11 3.42275e-11 -1.12957e-11 5e-05 1.46608e-10 
48 1 0.224394 0.01845 0.00697676 0.00580535 0.000117635 0.000104838 3.21019e-11 -4.33264e-11 -2.3242e-12 5e-05 1.46608e-10 
50 1 0.223757 0.0162192 0.00824484 0.00603365 0.000235565 0.000270878 1.65335e-10 -6.93314e-12 2.72705e-11 5e-05 1.46608e-10 
51 1 0.223733 0.0161455 0.0083081 0.00622555 0.000199746 0.000316098 1.48283e-12 -5.02384e-12 3.09067e-11 5e-05 1.46608e-10 
52 1 0.217521 0.0153398 0.00886394 0.00560996 -0.00047009 7.26514e-05 1.12113e-10 -5.58237e-11 2.7943e-10 5e-05 1.46608e-10 
53 1 0.23025 0.0181818 0.00701753 0.00571206 0.000203544 3.03856e-05 -9.30061e-11 3.48566e-11 -2.73418e-11 5e-05 1.46608e-10 
54 1 0.224315 0.0181613 0.00703359 0.0058059 0.000151248 8.72449e-05 -8.19705e-11 1.15651e-10 -4.87093e-11 5e-05 1.46608e-10 
55 1 0.21746 0.0151138 0.00905134 0.0056364 -0.000423481 0.00012907 -8.76665e-11 -4.82686e-10 8.27473e-11 5e-05 1.46608e-10 
56 1 0.224278 0.0183202 0.00697766 0.00577511 0.000153097 9.88869e-05 1.06754e-10 1.32924e-10 6.3763e-11 5e-05 1.46608e-10 
57 1 0.230143 0.0177392 0.00722257 0.00609393 -6.71626e-05 -0.000349352 1.52732e-10 5.74942e-11 1.83099e-13 5e-05 1.46608e-10 
59 1 0.224191 0.0175146 0.00716225 0.00626221 0.000276878 0.000250337 -1.80018e-10 -2.81205e-11 -2.94559e-10 5e-05 1.46608e-10 
61 1 0.22403 0.0169215 0.00766088 0.00590721 0.000290943 0.000213423 3.12835e-10 -1.17304e-11 2.91015e-11 5e-05 1.46608e-10 
62 1 0.224547 0.0182584 0.00698414 0.00579888 0.000204599 0.000102314 -1.71511e-10 -5.11913e-11 3.69803e-12 5e-05 1.46608e-10 
63 1 0.224522 0.0177158 0.00701477 0.00636004 0.000271145 0.000278126 5.83927e-10 3.98125e-10 -2.71019e-10 5e-05 1.46608e-10 
64 1 0.230325 0.0185528 0.00688844 0.00588518 0.000178883 4.1418e-05 1.10607e-11 3.57233e-11 -1.10937e-11 5e-05 1.46608e-10 
65 1 0.217786 0.0163136 0.00804577 0.00550185 -0.00045023 -2.19699e-05 5.48385e-10 -7.24716e-13 -7.25625e-11 5e-05 1.46608e-10 
66 1 0.217439 0.0150397 0.00911525 0.00564302 6.0457e-05 0.000684827 7.82011e-11 -5.12287e-11 4.94218e-10 5e-05 1.46608e-10 
67 1 0.224315 0.0180617 0.00698445 0.00578641 0.000137608 0.000114098 3.96198e-10 1.89713e-10 -4.96598e-11 5e-05 1.46608e-10 
68 1 0.224239 0.0172987 0.00735214 0.00614115 0.000252156 0.000267649 -1.29378e-10 1.43241e-11 -3.19412e-11 5e-05 1.46608e-10 
69 1 0.224295 0.0182672 0.0070608 0.0057845 0.000168621 0.000102746 -1.38258e-10 -1.1007e-10 1.03646e-10 5e-05 1.46608e-10 
70 1 0.230186 0.0179134 0.00713404 0.00613092 -6.79155e-05 -0.000355649 -2.37774e-10 -6.35353e-11 2.12255e-11 5e-05 1.46608e-10 
71 1 0.217501 0.0152644 0.00892633 0.00562376 -0.000473496 7.97743e-05 2.95948e-10 -2.04724e-10 1.83084e-10 5e-05 1.46608e-10 
72 1 0.224196 0.0179311 0.00698764 0.00591622 0.000106572 -0.000234261 4.54773e-10 1.27932e-10 -1.07673e-10 5e-05 1.46608e-10 
73 1 0.224319 0.0185159 0.0069738 0.00579312 0.000134531 0.000104478 6.23919e-11 1.44618e-10 -1.6411e-12 5e-05 1.46608e-10 
74 1 0.224373 0.0183521 0.00697869 0.0057865 0.000125935 0.000102731 1.28295e-11 4.3541e-12 1.90203e-11 5e-05 1.46608e-10 
76 1 0.218507 0.0181332 0.00704351 0.00583243 -0.000224502 0.000250651 3.34564e-10 -1.67893e-10 3.702e-11 5e-05 1.46608e-10 
77 1 0.22429 0.0175107 0.00717343 0.00635446 0.000958589 -0.000327058 -3.09653e-10 -9.40833e-12 -1.46574e-11 5e-05 1.46608e-10 
78 1 0.218259 0.0182303 0.00703773 0.00560634 -0.000264084 0.000246672 -1.21741e-10 9.44329e-11 -4.30064e-11 5e-05 1.46608e-10 
79 1 0.217562 0.0154906 0.00873915 0.00562092 -0.000462492 6.12188e-05 -1.66431e-10 7.68144e-11 -2.45414e-10 5e-05 1.46608e-10 
80 1 0.224502 0.018169 0.00698542 0.00583042 0.000186851 0.000101299 -1.97172e-10 6.64609e-11 5.13524e-11 5e-05 1.46608e-10 
81 1 0.218398 0.0184589 0.00699837 0.00568034 -0.000282325 0.000251741 -1.08254e-11 -2.9178e-10 -3.34712e-12 5e-05 1.46608e-10 
82 1 0.217624 0.0157161 0.00855126 0.00561754 -0.000481094 3.71542e-05 -1.24424e-10 2.40512e-11 -1.60339e-10 5e-05 1.46608e-10 
83 1 0.218316 0.0180715 0.00705187 0.00560646 -0.000410525 -0.000654681 -1.19704e-10 4.56601e-11 -7.10154e-11 5e-05 1.46608e-10 
84 1 0.230229 0.0180895 0.00704962 0.00619259 0.00011265 7.03365e-05 -1.25798e-10 4.52643e-11 -7.46769e-11 5e-05 1.46608e-10 
85 1 0.218519 0.017775 0.00709462 0.00616071 -0.00019196 0.000260253 5.48745e-10 -1.25312e-10 3.51097e-11 5e-05 1.46608e-10 
86 1 0.224602 0.018169 0.00698728 0.00584055 0.000254855 0.000101362 -1.67314e-10 3.10678e-11 -3.80179e-11 5e-05 1.46608e-10 
87 1 0.224489 0.0184812 0.0069778 0.00582006 0.000103661 0.000106329 1.54068e-10 -3.53486e-10 1.79043e-11 5e-05 1.46608e-10 
88 1 0.223924 0.0168212 0.00774711 0.00582607 0.000285803 0.000181325 -1.08816e-10 -1.84757e-11 7.11673e-11 5e-05 1.46608e-10 
89 1 0.224468 0.0183833 0.00697972 0.00580477 9.88806e-05 0.000105647 -2.33852e-11 -2.49427e-10 -1.61464e-11 5e-05 1.46608e-10 
90 1 0.22425 0.017766 0.00700936 0.00625726 0.000149857 -0.000279837 -1.17137e-10 9.19481e-11 -2.57193e-12 5e-05 1.46608e-10 
91 1 0.21856 0.0179704 0.00706856 0.00611396 -0.000160636 0.000252308 4.938e-10 -7.47404e-14 4.10726e-12 5e-05 1.46608e-10 
92 1 0.224353 0.0182543 0.00698062 0.00577714 0.000131605 0.000105792 -8.81427e-11 2.76262e-11 2.3876e-11 5e-05 1.46608e-10 
93 1 0.223794 0.0163706 0.00811967 0.00549294 0.000306792 0.000159978 -5.93001e-12 -1.75475e-11 -6.14025e-11 5e-05 1.46608e-10 
94 1 0.224203 0.0176746 0.00715151 0.00641725 0.000286212 0.000200853 8.58649e-11 -8.23196e-11 -2.1724e-10 5e-05 1.46608e-10 
95 1 0.224147 0.0174954 0.00726293 0.00626823 0.0002932 0.000253296 -1.19258e-10 -7.37059e-11 -2.16887e-11 5e-05 1.46608e-10 
96 1 0.223815 0.0164443 0.00805529 0.00542297 0.000329355 0.000141246 -1.48309e-10 9.02104e-12 -7.78621e-11 5e-05 1.46608e-10 
97 1 0.217901 0.0164097 0.00795817 0.00558835 -0.000490346 5.60834e-06 -5.81557e-11 3.09103e-11 -1.04637e-11 5e-05 1.46608e-10 
98 1 0.224322 0.017692 0.00701958 0.00645353 0.000293765 0.000262725 3.1416e-10 1.12958e-10 1.59816e-11 5e-05 1.46608e-10 
99 1 0.218002 0.0167837 0.007642 0.00582063 -0.00053674 2.66056e-05 2.26352e-10 -2.82385e-10 1.79689e-10 5e-05 1.46608e-10 
100 1 0.224448 0.0182855 0.00698165 0.00578058 0.000107657 0.000105061 -9.12638e-11 -2.40229e-10 -1.71996e-11 5e-05 1.46608e-10 
101 1 0.217583 0.0155659 0.00867675 0.00561646 -0.000464219 6.40173e-05 1.12454e-10 2.52681e-10 -2.75211e-10 5e-05 1.46608e-10 
102 1 0.0643568 0.0187248 0.00531097 4.08505e-15 1.05793e-14 8.29592e-14 5.05188e-22 -6.55541e-23 -1.69572e-23 5e-05 1.46608e-10 
103 1 0.24257 0.0191927 0.00520306 3.10422e-23 4.86658e-23 1.23839e-22 0 0 0 5e-05 1.46608e-10 
104 1 0.21821 0.0175908 0.00712808 0.00616515 -0.000425938 0.000295631 9.40118e-10 -1.00478e-10 -2.29726e-10 5e-05 1.46608e-10 
105 1 0.218635 0.0179043 0.00708069 0.0061672 -0.000129369 0.000250926 3.12508e-10 -9.3591e-11 2.44953e-11 5e-05 1.46608e-10 
106 1 0.218452 0.0174821 0.00713355 0.0062393 -0.000453377 0.00027166 -2.56196e-10 -1.00125e-09 -5.77893e-11 5e-05 1.46608e-10 
107 1 0.218432 0.017385 0.00714652 0.00617167 -0.00043129 0.000300379 4.66713e-10 -9.75925e-10 2.90196e-11 5e-05 1.46608e-10 
108 1 0.224318 0.0183687 0.00706038 0.00576506 0.000123214 9.1656e-05 1.02076e-10 -7.80884e-11 1.03678e-11 5e-05 1.46608e-10 
109 1 0.224503 0.0176408 0.00707798 0.00606941 0.000323149 0.000198309 3.46892e-10 5.8003e-10 -4.60829e-10 5e-05 1.46608e-10 
110 1 0.223836 0.0165192 0.00799244 0.00554158 0.000322236 0.000156984 5.8701e-11 -3.26278e-13 -3.92851e-11 5e-05 1.46608e-10 
111 1 0.224157 0.0173852 0.0072891 0.0062032 0.000149664 0.000211394 -2.01543e-10 7.00564e-11 -1.54542e-10 5e-05 1.46608e-10 
112 1 0.218275 0.0178767 0.00707108 0.00615329 -0.00041777 0.000290473 4.14901e-11 6.79081e-11 2.2895e-11 5e-05 1.46608e-10 
113 1 0.217867 0.0166128 0.00779284 0.0057064 -0.000483141 -9.67015e-06 3.6112e-11 -1.4681e-10 3.49828e-11 5e-05 1.46608e-10 
114 1 0.218239 0.0181326 0.00703349 0.00551999 -0.000257447 0.000243752 -8.64917e-11 8.09752e-13 -1.83066e-11 5e-05 1.46608e-10 
115 1 0.224421 0.0177087 0.00701291 0.00644989 0.000314535 0.000233594 3.7667e-10 -1.58927e-11 1.20057e-10 5e-05 1.46608e-10 
116 1 0.224285 0.0180646 0.00707998 0.00572519 0.000178347 0.000100235 6.3591e-11 -1.46997e-10 -2.07734e-10 5e-05 1.46608e-10 
117 1 0.22436 0.0187116 0.00696995 0.00579572 0.000103893 0.000105637 4.93776e-11 2.52142e-11 -3.99865e-12 5e-05 1.46608e-10 
118 1 0.21807 0.0173706 0.00717433 0.00615266 -0.000527123 0.00021468 6.77172e-11 -5.68455e-11 1.60697e-10 5e-05 1.46608e-10 
119 1 0.224368 0.017561 0.00713617 0.00676745 0.000575233 3.7382e-05 -9.41259e-11 -1.76366e-10 1.08263e-10 5e-05 1.46608e-10 
120 1 0.223663 0.0159216 0.00849437 0.00640555 0.000166806 0.000353 -3.50985e-11 -2.19588e-11 4.15392e-11 5e-05 1.46608e-10 
121 1 0.223577 0.0156222 0.00874542 0.00585755 0.000255463 0.000240036 -8.30137e-12 1.17022e-11 -4.58e-12 5e-05 1.46608e-10 
122 1 0.224121 0.0172267 0.00740491 0.00601523 0.00022268 0.000280342 1.45535e-11 -8.22952e-11 8.53236e-11 5e-05 1.46608e-10 
123 1 0.218028 0.0172112 0.00728735 0.00600053 -0.00058172 8.34746e-05 -2.67439e-10 -7.90083e-11 2.16999e-10 5e-05 1.46608e-10 
124 1 0.224138 0.0173021 0.00734128 0.00611819 0.00021449 0.00029555 2.70211e-11 -5.35813e-11 9.71263e-11 5e-05 1.46608e-10 
125 1 0.224435 0.0186457 0.0069729 0.00579491 0.000101295 0.000105506 8.99685e-11 -2.7459e-11 2.50949e-12 5e-05 1.46608e-10 
126 1 0.224054 0.0169958 0.00759868 0.00591604 0.000284717 0.00021681 -5.91104e-11 -2.69332e-11 -5.77321e-11 5e-05 1.46608e-10 
127 1 0.218655 0.0180015 0.00706774 0.00607095 -1.8388e-05 0.00023153 6.28516e-10 1.04033e-10 7.75767e-12 5e-05 1.46608e-10 
128 1 0.2241 0.017152 0.00746763 0.00593672 0.000239515 0.000257714 1.0352e-10 -4.0483e-11 1.30657e-10 5e-05 1.46608e-10 
129 1 0.224156 0.0177422 0.00703578 0.00635267 0.000114539 6.02501e-06 2.94258e-11 9.80663e-11 -1.13106e-10 5e-05 1.46608e-10 
131 1 0.218476 0.0175808 0.00712047 0.0061999 -0.000548147 0.000320358 4.48458e-10 2.78757e-10 -2.65512e-10 5e-05 1.46608e-10 
132 1 0.224272 0.0178647 0.0069943 0.00611421 0.000165029 -0.000239867 7.12103e-11 -3.50195e-10 -9.84281e-11 5e-05 1.46608e-10 
133 1 0.224113 0.0175636 0.00711384 0.00631933 0.000248735 0.000275746 -1.16077e-10 5.14608e-11 -1.57936e-11 5e-05 1.46608e-10 
134 1 0.224076 0.0170773 0.00753012 0.00612429 0.00045316 8.84304e-05 -3.54886e-10 -2.39815e-10 1.35146e-10 5e-05 1.46608e-10 
135 1 0.223455 0.0151813 0.00913254 0.0061509 -0.000118735 -4.85401e-05 1.41194e-11 -2.57317e-11 -1.29114e-10 5e-05 1.46608e-10 
136 1 0.218299 0.0184209 0.00699497 0.00567502 -0.00029478 0.000255691 5.74289e-11 -8.8145e-11 2.50625e-11 5e-05 1.46608e-10 
137 1 0.223776 0.0162943 0.00818166 0.0057546 0.000274576 0.000213836 6.24897e-11 7.62533e-12 -2.06247e-11 5e-05 1.46608e-10 
138 1 0.224253 0.0179273 0.00706997 0.00586355 -0.000305648 -0.000180042 7.42449e-11 -4.22984e-11 -1.81509e-10 5e-05 1.46608e-10 
140 1 0.224305 0.0176168 0.00708305 0.00634469 0.000297777 0.000228907 -4.86074e-10 -3.86293e-11 -1.35861e-10 5e-05 1.46608e-10 
141 1 0.218296 0.0179736 0.00705814 0.00549007 -0.000293624 0.000239093 -2.98934e-10 -4.50457e-11 1.0934e-11 5e-05 1.46608e-10 
142 1 0.21801 0.0171379 0.00735268 0.00599362 -0.000584995 6.19807e-05 -4.25045e-10 -3.05925e-10 -2.62218e-11 5e-05 1.46608e-10 
143 1 0.21748 0.015189 0.00898873 0.00562737 -0.000460932 9.33572e-05 8.25858e-11 -8.90884e-11 4.83421e-10 5e-05 1.46608e-10 
144 1 0.218134 0.0176481 0.00709807 0.00615313 -0.000460556 0.000302574 8.53001e-10 -2.6239e-11 -9.80527e-11 5e-05 1.46608e-10 
147 1 0.218358 0.0182641 0.00701937 0.00568682 -0.000309059 0.000258039 5.23226e-11 -1.77803e-10 3.59865e-12 5e-05 1.46608e-10 
148 1 0.2181 0.016807 0.00761577 0.00591274 -0.000519345 6.55373e-06 1.71382e-10 7.77059e-11 -6.21776e-11 5e-05 1.46608e-10 
149 1 0.223935 0.0168928 0.00767811 0.00587787 0.000297818 0.000203427 1.59216e-10 -1.27628e-10 1.28611e-10 5e-05 1.46608e-10 
150 1 0.0100679 0.0201683 0.00551526 8.38479e-15 1.24592e-15 -8.48743e-14 -1.29247e-25 -9.46411e-24 0 5e-05 1.46608e-10 
151 1 0.217968 0.0169866 0.00747676 0.00593496 -0.000555478 3.65115e-05 3.8e-10 -2.73876e-10 1.21492e-10 5e-05 1.46608e-10 
153 1 0.218341 0.0186198 0.00697907 0.0057304 -0.00022503 0.000219249 -2.01395e-11 -1.02619e-10 -8.58144e-11 5e-05 1.46608e-10 
154 1 0.218091 0.0174544 0.00712385 0.00619307 -0.000497059 0.000301692 2.00339e-10 6.91907e-11 6.94264e-11 5e-05 1.46608e-10 
155 1 0.218296 0.0172014 0.00727592 0.00604349 -0.000463159 -5.96969e-05 -6.36746e-11 -4.16199e-10 4.44215e-10 5e-05 1.46608e-10 
156 1 0.218254 0.0177798 0.00708397 0.00616969 -0.000421411 0.000294237 1.07493e-10 4.5884e-11 2.41032e-11 5e-05 1.46608e-10 
157 1 0.0219312 0.0187687 0.00551176 -3.83079e-14 8.16832e-14 2.95886e-13 -8.50238e-22 -3.60547e-22 -8.6854e-24 5e-05 1.46608e-10 
158 1 0.218486 0.0180362 0.00705645 0.00554736 -0.000367485 0.000261142 -6.37956e-10 2.01131e-10 -4.79305e-11 5e-05 1.46608e-10 
159 1 0.224565 0.0183568 0.00698215 0.00584731 0.000204435 0.000104855 6.14975e-11 -1.28541e-10 4.86643e-12 5e-05 1.46608e-10 
160 1 0.218113 0.0175512 0.00711105 0.00618206 -0.000480007 0.000333446 7.8968e-10 5.77189e-12 2.62857e-11 5e-05 1.46608e-10 
162 1 0.218417 0.0185554 0.00698038 0.00570966 -0.000271013 0.00025488 -3.12551e-11 -1.84825e-10 3.54193e-11 5e-05 1.46608e-10 
164 1 0.217962 0.016634 0.00776848 0.00574875 -0.000516012 1.62565e-05 2.84162e-10 -2.53323e-10 2.05215e-10 5e-05 1.46608e-10 
165 1 0.218307 0.017617 0.007109 0.00620597 -0.000423289 0.000285188 3.47689e-10 2.9738e-11 2.33211e-11 5e-05 1.46608e-10 
166 1 0.224298 0.0184181 0.00697573 0.00578199 0.000144462 0.000100323 3.77771e-12 8.5768e-11 6.44347e-11 5e-05 1.46608e-10 
168 1 0.218022 0.0168585 0.00757877 0.00588021 -0.000548288 3.38671e-05 7.26826e-11 -2.61798e-10 1.87638e-10 5e-05 1.46608e-10 
169 1 0.218473 0.0183931 0.00700547 0.00566742 -0.000287914 0.000253787 -1.95339e-10 -3.19e-10 3.09976e-11 5e-05 1.46608e-10 
170 1 0.21838 0.017551 0.00712522 0.0062166 -0.000466922 0.000254304 1.54726e-10 -4.20988e-10 -1.95645e-10 5e-05 1.46608e-10 
171 1 0.224178 0.0178632 0.00709804 0.00629483 0.000365988 -0.000396503 -9.36837e-11 -3.01561e-12 -2.23952e-10 5e-05 1.46608e-10 
172 1 0.218281 0.0175211 0.0071216 0.00617792 -0.000412197 0.000295637 3.97582e-10 -1.89737e-10 1.90614e-11 5e-05 1.46608e-10 
173 1 0.22445 0.0180793 0.00698655 0.00597729 0.000211853 0.000111253 5.72802e-12 3.36742e-12 -5.22641e-11 5e-05 1.46608e-10 
174 1 0.218317 0.017276 0.00721274 0.00607056 -0.000464984 -3.85193e-05 2.26026e-10 -2.96028e-10 3.02219e-10 5e-05 1.46608e-10 
175 1 0.212009 0.0171178 0.007305 0.00637568 0.000499602 -0.000361836 -6.82726e-11 5.3327e-11 2.65694e-11 5e-05 1.46608e-10 
177 1 0.21814 0.0169565 0.00748932 0.00583054 -0.000523246 1.64699e-05 -2.3099e-10 -4.47047e-10 3.79614e-10 5e-05 1.46608e-10 
178 1 0.218063 0.017008 0.00745231 0.00590475 -0.000550833 3.39959e-05 -2.15073e-10 -3.6515e-10 3.18015e-10 5e-05 1.46608e-10 
179 1 0.218145 0.0173108 0.00720417 0.00611272 -0.000570124 0.000135691 2.72461e-10 -1.47959e-10 2.85689e-10 5e-05 1.46608e-10 
181 1 0.218433 0.0181996 0.00703623 0.00574557 -0.000296073 0.000254277 1.52885e-10 -2.30735e-10 7.94244e-12 5e-05 1.46608e-10 
182 1 0.224135 0.0176554 0.00708066 0.00638364 0.000215737 0.000222391 -1.64731e-10 1.02757e-10 -8.01107e-11 5e-05 1.46608e-10 
183 1 0.218355 0.0174546 0.00713378 0.00614963 -0.000400016 0.000269648 2.76224e-10 -1.44819e-10 1.95307e-10 5e-05 1.46608e-10 
184 1 0.224154 0.0176005 0.00719741 0.00639302 0.000306818 0.000198854 -6.86741e-11 3.29186e-10 -1.49743e-10 5e-05 1.46608e-10 
186 1 0.217947 0.016912 0.00753992 0.00589365 -0.00054102 2.57102e-05 2.40073e-10 -1.64816e-10 1.21141e-10 5e-05 1.46608e-10 
187 1 0.224038 0.0172738 0.00737739 0.00607963 0.000283161 0.000243862 -6.52299e-11 -1.0473e-10 1.46904e-10 5e-05 1.46608e-10 
188 1 0.224221 0.0172235 0.00741548 0.00601007 0.000259746 0.000248986 7.67479e-11 -1.19076e-10 1.3062e-10 5e-05 1.46608e-10 
189 1 0.224296 0.0179614 0.00698648 0.00594206 0.000238147 0.000102464 1.91279e-10 -3.40912e-10 -2.06969e-10 5e-05 1.46608e-10 
190 1 0.212298 0.0184237 0.00689598 0.0057234 0.000666226 -0.00038837 -9.74989e-11 4.32905e-11 -6.92106e-12 5e-05 1.46608e-10 
191 1 0.224256 0.017374 0.0072886 0.00622567 0.000253021 0.000273039 -1.53674e-10 7.02543e-11 -1.51626e-10 5e-05 1.46608e-10 
192 1 0.218258 0.0174246 0.00713438 0.00618308 -0.000421906 0.000299871 2.45971e-10 -2.33297e-10 2.1076e-10 5e-05 1.46608e-10 
193 1 0.224403 0.0176334 0.00707644 0.00605007 0.0013169 -0.000658777 -5.19047e-10 -4.25874e-10 3.13763e-10 5e-05 1.46608e-10 
194 1 0.161461 0.0182058 0.00533758 1.5087e-15 -1.10156e-14 8.66683e-14 -1.58901e-21 -2.73461e-22 -9.09899e-24 5e-05 1.46608e-10 
195 1 0.218465 0.0179392 0.00706939 0.00612466 -0.00028184 0.000270618 4.22358e-10 -1.68193e-11 4.74319e-11 5e-05 1.46608e-10 
196 1 0.217862 0.01626 0.0080847 0.00547957 -0.00047708 2.91959e-06 1.36246e-10 1.39547e-10 -1.25669e-10 5e-05 1.46608e-10 
197 1 0.212073 0.0173963 0.00721768 0.00636196 0.000500704 -0.000359868 6.24018e-12 -4.23635e-11 8.97474e-12 5e-05 1.46608e-10 
198 1 0.218319 0.0185179 0.006982 0.00568925 -0.000297412 0.000254676 -7.02362e-11 -3.01445e-10 3.79473e-11 5e-05 1.46608e-10 
199 1 0.218219 0.0180355 0.00704646 0.00548952 -0.00026726 0.000243705 -1.9816e-10 -1.95825e-11 2.92249e-11 5e-05 1.46608e-10 
201 1 0.217847 0.016538 0.00785607 0.00566738 -0.000465332 -2.15408e-05 5.34252e-10 1.06553e-10 -1.15667e-10 5e-05 1.46608e-10 
202 1 0.21835 0.0178106 0.00708321 0.0062055 -0.000411748 0.000290864 3.67222e-10 2.46278e-10 -4.46304e-11 5e-05 1.46608e-10 
203 1 0.223862 0.0165942 0.00793164 0.00565192 0.00030561 0.000172718 2.07411e-10 -3.35903e-12 -4.67426e-11 5e-05 1.46608e-10 
204 1 0.217542 0.0154152 0.00880154 0.00560945 -0.000467784 6.15702e-05 -1.76733e-10 5.59577e-11 1.65861e-10 5e-05 1.46608e-10 
205 1 0.218423 0.0177443 0.00709538 0.00621444 -0.000461559 0.000298179 2.74827e-10 -9.04341e-11 -2.54635e-11 5e-05 1.46608e-10 
206 1 0.217922 0.0164845 0.00789495 0.00564315 -0.000498935 8.91234e-06 1.77687e-10 -6.36668e-11 4.4505e-11 5e-05 1.46608e-10 
207 1 0.218043 0.0169331 0.0075156 0.0059052 -0.000556102 4.01838e-05 3.03947e-10 -2.86448e-10 2.31273e-10 5e-05 1.46608e-10 
208 1 0.218233 0.017683 0.00709686 0.00618885 -0.000421745 0.000296161 2.80392e-10 7.11529e-11 -9.49241e-11 5e-05 1.46608e-10 
209 1 0.215067 0.0176447 0.00704425 0.00601706 0.00150927 -0.000657597 -1.56512e-12 -3.86455e-13 1.72695e-13 5e-05 1.46608e-10 
210 1 0.224075 0.0174136 0.00724017 0.00620937 0.000263371 0.000257878 -2.7817e-10 1.00488e-11 -1.00564e-12 5e-05 1.46608e-10 
211 1 0.224017 0.0172044 0.00744642 0.00599664 0.000293904 0.000238202 1.12898e-11 6.89851e-11 2.76057e-10 5e-05 1.46608e-10 
212 1 0.218371 0.0179076 0.00707028 0.00613811 -0.000356837 0.00028195 2.72467e-10 7.68564e-11 -1.29427e-11 5e-05 1.46608e-10 
213 1 0.224237 0.0181246 0.00698357 0.00576026 0.000152827 0.000123597 9.79657e-11 3.45124e-11 -3.80605e-10 5e-05 1.46608e-10 
214 1 0.223954 0.0169678 0.00761494 0.00591405 0.000291585 0.000213494 1.89897e-11 -9.70565e-11 1.66158e-10 5e-05 1.46608e-10 
215 1 0.212279 0.0183301 0.00692526 0.00595963 0.000599533 -0.000379177 2.60488e-10 -2.9274e-10 8.53736e-11 5e-05 1.46608e-10 
216 1 0.218328 0.0177138 0.0070961 0.00621146 -0.00042156 0.000290489 9.06626e-11 1.93338e-10 1.58697e-11 5e-05 1.46608e-10 
217 1 0.224339 0.0186138 0.00697188 0.00579602 0.000117595 0.000105203 9.83492e-11 1.05276e-10 8.18797e-12 5e-05 1.46608e-10 
218 1 0.217645 0.0157907 0.00848789 0.00563525 -0.000488034 2.1858e-05 -4.66347e-12 8.79774e-11 -1.56039e-11 5e-05 1.46608e-10 
219 1 0.223895 0.0167449 0.00780462 0.00576056 0.000299948 0.00017298 -4.2192e-11 5.12869e-11 7.18413e-12 5e-05 1.46608e-10 
220 1 0.218445 0.0178414 0.00708245 0.00610354 -0.000110598 0.000246057 3.14785e-10 1.99958e-10 -1.73122e-12 5e-05 1.46608e-10 
221 1 0.277921 0.0167209 0.0074571 0.00579632 0.000655295 -0.000266993 3.86106e-13 5.81538e-13 -2.66402e-13 5e-05 1.46608e-10 
222 1 0.224402 0.0181674 0.00698465 0.00582044 0.00013837 0.000115854 -1.86671e-10 -4.7928e-11 -6.63294e-11 5e-05 1.46608e-10 
223 1 0.218188 0.0174947 0.00714494 0.00619904 -0.00041851 0.00037203 4.78228e-10 7.25893e-11 2.51863e-10 5e-05 1.46608e-10 
224 1 0.042662 0.0177052 0.0078341 3.53084e-10 -0.0226471 0.00833683 1.87431e-18 7.56996e-12 2.05253e-11 5e-05 1.46608e-10 
225 1 0.224225 0.0174446 0.00722523 0.00626106 0.000270475 0.000257634 -3.17023e-10 4.3199e-12 -1.49975e-10 5e-05 1.46608e-10 
226 1 0.217988 0.0170615 0.00741346 0.00598036 -0.000576468 5.23136e-05 -6.91141e-11 -3.16203e-10 1.65861e-11 5e-05 1.46608e-10 
227 1 0.212221 0.0180492 0.0070131 0.00584897 0.000630555 -0.000380795 -3.53027e-10 1.1193e-10 -3.98739e-11 5e-05 1.46608e-10 
228 1 0.21203 0.017211 0.00727578 0.00637178 0.000501656 -0.000362097 -4.03187e-11 2.645e-12 -8.75915e-12 5e-05 1.46608e-10 
229 1 0.218412 0.0181021 0.00704433 0.00558292 -0.000290305 0.00025373 -7.18709e-10 1.54941e-10 -3.64642e-11 5e-05 1.46608e-10 
230 1 0.217806 0.0163884 0.00798254 0.00554656 -0.000448127 -2.48035e-05 -2.30761e-10 -1.24573e-11 -1.87557e-11 5e-05 1.46608e-10 
231 1 0.211986 0.0170248 0.00733419 0.0063751 0.000499475 -0.000357789 5.91841e-11 3.80865e-11 7.96174e-11 5e-05 1.46608e-10 
232 1 0.218198 0.0179385 0.0070594 0.00612648 -0.000402535 0.00028645 -8.9576e-11 1.57667e-11 -1.67075e-11 5e-05 1.46608e-10 
234 1 0.224177 0.0178341 0.00700236 0.0061493 5.90161e-05 -0.000267907 1.11477e-10 1.95677e-10 2.94502e-11 5e-05 1.46608e-10 
235 1 0.218402 0.0176475 0.00710827 0.00621637 -0.000467338 0.000294824 -8.70853e-12 3.24361e-10 -1.10131e-10 5e-05 1.46608e-10 
236 1 0.217766 0.0162388 0.008109 0.00547543 -0.000447453 -2.16874e-05 2.15014e-10 1.66322e-10 -1.47133e-10 5e-05 1.46608e-10 
237 1 0.217734 0.0160887 0.0082369 0.00538708 -0.000439929 -2.13478e-05 2.16021e-10 9.35754e-11 -9.4305e-11 5e-05 1.46608e-10 
239 1 0.211826 0.0164031 0.00779477 0.00570172 0.000798118 -3.85101e-05 3.30814e-12 4.48418e-11 -3.62253e-11 5e-05 1.46608e-10 
240 1 0.211845 0.0164763 0.0077295 0.00571772 0.000800301 -3.79593e-05 -5.2621e-11 6.08553e-11 -8.27721e-11 5e-05 1.46608e-10 
241 1 0.211904 0.0166959 0.00753369 0.00574544 0.000796611 -3.21163e-05 -1.14203e-10 -5.38484e-13 -7.90658e-11 5e-05 1.46608e-10 
242 1 0.218049 0.0172887 0.00722761 0.00606624 -0.000562075 0.000142951 -1.47863e-10 5.76559e-12 3.80295e-10 5e-05 1.46608e-10 
244 1 0.211865 0.0165495 0.00766423 0.00573017 0.000798092 -3.56106e-05 1.45891e-10 9.82437e-11 -2.16696e-11 5e-05 1.46608e-10 
246 1 0.211965 0.0169321 0.00736498 0.00637622 0.000501211 -0.000351153 2.53709e-11 2.14207e-11 1.24841e-10 5e-05 1.46608e-10 
247 1 0.218602 0.0181645 0.00704265 0.00580863 -0.000169005 0.000242458 2.23472e-10 -1.56228e-10 3.72851e-11 5e-05 1.46608e-10 
248 1 0.217826 0.0164632 0.00791931 0.00562948 -0.000448297 -2.93015e-05 -2.30034e-10 2.04227e-10 -1.34363e-10 5e-05 1.46608e-10 
249 1 0.21226 0.0182364 0.00695454 0.00591786 0.000598269 -0.000376437 2.42682e-11 -2.01531e-10 1.03908e-10 5e-05 1.46608e-10 
250 1 0.218121 0.0168816 0.0075526 0.00590776 -0.00054339 2.66501e-05 2.76724e-10 -2.7496e-10 2.27604e-10 5e-05 1.46608e-10 
251 1 0.223874 0.0166689 0.00786635 0.00571869 0.000309595 0.000181189 9.69917e-11 7.09198e-11 -5.27831e-11 5e-05 1.46608e-10 
252 1 0.212117 0.0175826 0.00715927 0.0063571 0.000505506 -0.000361461 -5.12797e-12 -4.8794e-11 2.05249e-11 5e-05 1.46608e-10 
253 1 0.212317 0.0185176 0.00686667 0.00575807 0.000648995 -0.000385993 -4.39367e-11 9.284e-11 -4.74835e-11 5e-05 1.46608e-10 
254 1 0.211943 0.0168423 0.00740315 0.00576801 0.000787779 -2.09757e-05 -1.04992e-10 -3.98373e-11 -3.0036e-11 5e-05 1.46608e-10 
255 1 0.218155 0.0177449 0.00708518 0.00614241 -0.000444527 0.000293488 1.92575e-10 3.78247e-11 4.05582e-12 5e-05 1.46608e-10 
256 1 0.218241 0.0173333 0.00717092 0.006145 -0.000539113 6.41583e-06 3.34428e-10 -1.81076e-10 2.33136e-10 5e-05 1.46608e-10 
257 1 0.218201 0.0171808 0.00729966 0.00611383 -0.000597196 5.80803e-05 -8.91314e-11 -2.20044e-10 1.38785e-11 5e-05 1.46608e-10 
258 1 0.218104 0.0171574 0.00732595 0.00553694 -0.000499984 1.64367e-05 -3.8316e-10 -1.22731e-10 1.68663e-10 5e-05 1.46608e-10 
259 1 0.212138 0.0176757 0.00713007 0.00635612 0.000507857 -0.000362281 -2.22678e-11 -2.89279e-11 3.9412e-12 5e-05 1.46608e-10 
261 1 0.217907 0.0167624 0.00766638 0.00581123 -0.000513646 9.58451e-06 3.41936e-10 7.04566e-11 3.55596e-12 5e-05 1.46608e-10 