ITEM: TIMESTEP
11400000
ITEM: NUMBER OF ATOMS
287
ITEM: BOX BOUNDS ff ff ff
-0.02 0.43
-0.02 0.06
-0.02 0.07
ITEM: ATOMS id type x y z vx vy vz fx fy fz radius mass 
1 1 0.0792915 0.0162696 0.00783536 0.00590011 0.00029911 -0.000155199 -9.31526e-11 8.34061e-11 -4.71821e-11 5e-05 1.46608e-10 
2 1 0.0797065 0.0172738 0.00726473 0.00567717 0.000367567 0.000192459 -1.8834e-11 4.12933e-11 -3.34601e-11 5e-05 1.46608e-10 
3 1 0.0730258 0.0156926 0.00845506 0.00614528 -0.000316338 -0.000189957 5.57749e-11 -4.68399e-11 -1.24569e-10 5e-05 1.46608e-10 
4 1 0.0795918 0.0176473 0.00707782 0.00571706 0.000425793 0.000159822 -1.56297e-10 8.4175e-11 -8.81844e-11 5e-05 1.46608e-10 
5 1 0.0791757 0.0161575 0.00789965 0.0058774 0.000268627 -0.000138324 3.40454e-12 1.02829e-10 -5.19996e-11 5e-05 1.46608e-10 
6 1 0.0853407 0.0168469 0.00747658 0.00546246 -0.000238753 5.71307e-05 1.38575e-11 -2.79125e-12 6.99088e-13 5e-05 1.46608e-10 
7 1 0.0793551 0.0169218 0.00745971 0.00542184 0.000313051 -0.000164673 7.62134e-11 -1.5572e-10 8.62194e-11 5e-05 1.46608e-10 
8 1 0.0790781 0.0157971 0.00821417 0.00581041 0.000185745 -0.000357367 1.88975e-10 -1.22695e-10 2.00756e-10 5e-05 1.46608e-10 
9 1 0.0855988 0.0180423 0.00703569 0.00603109 -0.000353958 9.63175e-05 1.46385e-12 7.29809e-13 1.22362e-12 5e-05 1.46608e-10 
10 1 0.0792966 0.0166668 0.00760649 0.00567949 0.000291366 -0.000151538 -1.80685e-11 -6.35914e-11 3.71479e-11 5e-05 1.46608e-10 
11 1 0.0797389 0.0174528 0.00718078 0.00567918 0.000342158 0.000202957 -3.28975e-10 5.02729e-12 -1.27785e-11 5e-05 1.46608e-10 
12 1 0.0732368 0.0164496 0.00783691 0.00548706 3.01746e-05 -3.56058e-05 -8.55563e-11 4.03884e-11 -1.53918e-11 5e-05 1.46608e-10 
13 1 0.0791551 0.0160727 0.00794847 0.00587472 0.000261459 -0.000133582 7.04123e-11 1.28477e-10 -6.21456e-11 5e-05 1.46608e-10 
14 1 0.0729409 0.0153793 0.00868869 0.00624581 -0.000334431 -0.000178088 -5.71921e-11 6.69058e-10 8.86893e-10 5e-05 1.46608e-10 
15 1 0.0794886 0.0171203 0.00734571 0.00565145 0.000263763 -0.000135886 -4.61321e-11 7.91673e-12 1.1572e-12 5e-05 1.46608e-10 
16 1 0.0729191 0.0153127 0.00876002 0.00626046 9.48548e-05 0.000227674 3.38395e-10 -1.00893e-10 1.95159e-10 5e-05 1.46608e-10 
17 1 0.0792767 0.0165819 0.00765538 0.0056886 0.000302992 -0.00015799 -1.37965e-10 -2.65763e-11 1.52585e-11 5e-05 1.46608e-10 
18 1 0.0854778 0.017491 0.00723906 0.0054981 -0.000247355 6.00687e-05 -1.71127e-11 -4.48975e-12 2.53218e-12 5e-05 1.46608e-10 
19 1 0.0791346 0.0159878 0.00799729 0.00586176 0.000250347 -0.000122881 -3.16174e-11 1.70644e-10 -1.15552e-10 5e-05 1.46608e-10 
21 1 0.079271 0.0161848 0.00788419 0.00588041 0.000272851 -0.000139916 -1.10404e-10 3.4205e-11 -2.02062e-11 5e-05 1.46608e-10 
22 1 0.0793936 0.0170919 0.0073618 0.00560209 0.000282123 -0.00014557 -2.77379e-11 -6.62956e-11 7.92397e-11 5e-05 1.46608e-10 
23 1 0.0734083 0.0167773 0.00756472 0.00552244 1.2584e-05 -2.08356e-05 3.51023e-11 5.12209e-11 -3.2811e-11 5e-05 1.46608e-10 
24 1 0.0855368 0.017767 0.00713727 0.00550318 -0.000248866 6.06105e-05 -5.04757e-12 1.09387e-12 -1.46978e-12 5e-05 1.46608e-10 
25 1 0.0793357 0.0168368 0.00750865 0.00544154 0.000314836 -0.000165516 -7.93598e-12 -1.27978e-10 7.94093e-11 5e-05 1.46608e-10 
26 1 0.0854189 0.017215 0.00734084 0.00549471 -0.000245826 5.94797e-05 1.72075e-12 -2.86796e-12 2.08486e-12 5e-05 1.46608e-10 
27 1 0.073314 0.0167516 0.00758624 0.00552297 1.70398e-05 -2.48997e-05 3.0967e-11 6.25725e-11 -4.57469e-11 5e-05 1.46608e-10 
28 1 0.0795796 0.0175575 0.00712018 0.00571447 0.000419311 0.000165063 -1.21436e-10 1.36647e-10 -7.22917e-11 5e-05 1.46608e-10 
29 1 0.079114 0.0159034 0.00804684 0.00585139 0.00014051 -0.000288369 5.7929e-11 1.49386e-10 -2.21992e-10 5e-05 1.46608e-10 
30 1 0.0796259 0.017325 0.00723494 0.00570207 0.000407602 0.000172749 -2.91184e-11 7.39813e-11 -4.0763e-11 5e-05 1.46608e-10 
31 1 0.0793745 0.0170068 0.00741077 0.00551175 0.0002992 -0.000156619 8.76555e-11 -1.48641e-10 8.11658e-11 5e-05 1.46608e-10 
32 1 0.0794691 0.0170352 0.00739468 0.00557553 0.00025756 -0.000132984 8.33862e-11 1.41029e-10 -9.93528e-11 5e-05 1.46608e-10 
33 1 0.0853602 0.016939 0.00744264 0.00546157 -0.00023832 5.68839e-05 -2.21461e-11 6.79722e-12 -1.41303e-12 5e-05 1.46608e-10 
34 1 0.0792569 0.0164969 0.00770428 0.00565625 0.000318218 -0.000167026 -1.44682e-10 8.12876e-12 -7.85931e-12 5e-05 1.46608e-10 
35 1 0.0794498 0.0169499 0.0074438 0.00548111 0.000283415 -0.000147494 1.05707e-10 -1.65676e-11 6.71805e-12 5e-05 1.46608e-10 
36 1 0.0856402 0.0182259 0.00696798 0.00611048 -0.000369513 0.000101598 1.73237e-12 1.46821e-12 5.24275e-13 5e-05 1.46608e-10 
37 1 0.079411 0.0167798 0.00754169 0.00552124 0.000363847 -0.000193536 4.19673e-11 -6.26417e-11 3.8197e-11 5e-05 1.46608e-10 
38 1 0.0795671 0.0170668 0.00737679 0.0056377 0.000251454 -0.000129132 8.57383e-11 8.39774e-11 -2.75097e-11 5e-05 1.46608e-10 
39 1 0.0855574 0.0178588 0.00710341 0.00595172 -0.000338442 9.0991e-05 2.62683e-13 1.11951e-12 1.81278e-13 5e-05 1.46608e-10 
41 1 0.0792168 0.0163271 0.00780202 0.00588853 0.000278561 -0.000143174 -3.36244e-11 3.89678e-11 -2.01693e-11 5e-05 1.46608e-10 
42 1 0.079413 0.0171769 0.00731287 0.00565807 0.000275099 -0.000146281 -1.19559e-10 -3.47116e-11 -6.34663e-11 5e-05 1.46608e-10 
44 1 0.0795868 0.0171522 0.00732763 0.00565212 0.000253125 -0.0001289 -7.6027e-11 -2.28135e-11 3.50631e-11 5e-05 1.46608e-10 
45 1 0.0853797 0.017031 0.0074087 0.00546163 -0.000239039 5.72175e-05 1.50756e-11 -2.08461e-12 -2.72709e-14 5e-05 1.46608e-10 
46 1 0.0854582 0.017399 0.00727298 0.00549766 -0.00024761 6.0175e-05 2.06628e-11 -7.38803e-12 2.75138e-12 5e-05 1.46608e-10 
47 1 0.0792371 0.016412 0.00775317 0.00563623 0.000324166 -0.000170313 -1.03316e-10 1.47425e-11 -3.76949e-12 5e-05 1.46608e-10 
48 1 0.0794518 0.0173484 0.00721756 0.00570565 0.000337626 -5.4363e-05 5.27389e-11 6.85604e-11 -1.6259e-10 5e-05 1.46608e-10 
49 1 0.0854385 0.017307 0.00730691 0.00549718 -0.000246718 5.98149e-05 -1.31523e-11 9.08359e-12 -4.50699e-12 5e-05 1.46608e-10 
50 1 0.0795104 0.0176284 0.00713405 0.00568259 0.000432398 0.000144524 -1.187e-10 8.1333e-12 1.84701e-11 5e-05 1.46608e-10 
51 1 0.0794907 0.0175336 0.00715911 0.0056968 0.000432682 0.000152358 7.57273e-12 7.08665e-11 4.62353e-11 5e-05 1.46608e-10 
52 1 0.0732166 0.0163743 0.00789946 0.00547137 3.4105e-05 -3.84775e-05 -8.25697e-11 3.42302e-11 -2.27205e-11 5e-05 1.46608e-10 
53 1 0.0854975 0.017583 0.00720513 0.00550162 -0.000248745 6.05029e-05 6.89487e-12 9.38494e-12 -4.87797e-12 5e-05 1.46608e-10 
54 1 0.0792505 0.0161 0.00793301 0.00587623 0.000272528 -0.000140149 -1.02651e-10 6.80094e-11 -4.4702e-11 5e-05 1.46608e-10 
55 1 0.0729834 0.0155343 0.00856968 0.00620051 -0.000326591 -0.000186208 -1.68805e-11 4.7228e-11 -5.24301e-12 5e-05 1.46608e-10 
56 1 0.0794304 0.0168649 0.00749275 0.00548308 0.000366816 -0.000195358 5.88011e-11 -1.12323e-10 7.05313e-11 5e-05 1.46608e-10 
57 1 0.0853992 0.017123 0.00737477 0.00546108 -0.000238898 5.71804e-05 -3.465e-12 1.05982e-12 -4.36154e-13 5e-05 1.46608e-10 
59 1 0.0794883 0.016725 0.00757351 0.00554835 0.000389369 -0.000208322 -6.73144e-11 -1.6559e-10 9.55651e-11 5e-05 1.46608e-10 
60 1 0.0795086 0.016811 0.00752402 0.0054623 0.000331513 -0.000175148 4.69395e-11 -7.52985e-11 3.76871e-11 5e-05 1.46608e-10 
61 1 0.0791963 0.0162423 0.00785083 0.00588562 0.000275 -0.00014155 -9.17407e-12 7.28411e-11 -4.87466e-11 5e-05 1.46608e-10 
62 1 0.0796063 0.0172372 0.00727869 0.00565906 0.000238124 -0.000117202 2.14969e-11 1.46774e-10 -6.00537e-11 5e-05 1.46608e-10 
63 1 0.079547 0.0173782 0.00720425 0.00570706 0.0004239 0.000166455 6.23413e-11 1.92849e-10 -1.14075e-10 5e-05 1.46608e-10 
64 1 0.0855171 0.017675 0.0071712 0.0055014 -0.000248857 6.06259e-05 6.4018e-12 -9.22101e-12 5.11536e-12 5e-05 1.46608e-10 
65 1 0.0733323 0.0164752 0.00781554 0.00550307 1.82712e-05 -2.60769e-05 -6.13986e-11 -7.22414e-11 5.42281e-11 5e-05 1.46608e-10 
66 1 0.073272 0.0162488 0.00800344 0.00556212 7.53429e-05 -7.33717e-05 -2.16586e-10 -1.94769e-10 1.77451e-10 5e-05 1.46608e-10 
67 1 0.0797252 0.0173632 0.00722298 0.00564552 0.000346702 0.000197151 -2.50379e-11 1.22874e-10 -6.05459e-11 5e-05 1.46608e-10 
68 1 0.0796589 0.0175048 0.00715065 0.00569644 0.000377668 0.000186585 -2.82635e-10 4.98721e-11 -4.7712e-11 5e-05 1.46608e-10 
69 1 0.0793517 0.0165246 0.00768857 0.00568758 0.000309417 -0.00016175 -2.89009e-10 3.60146e-11 -2.09438e-11 5e-05 1.46608e-10 
70 1 0.0855781 0.0179505 0.00706955 0.00599144 -0.000346272 9.35611e-05 5.05274e-13 2.23867e-13 -1.34102e-12 5e-05 1.46608e-10 
71 1 0.0729621 0.0154563 0.00862852 0.00622256 -0.00033247 -0.000184913 -2.44091e-11 1.97999e-10 2.40703e-10 5e-05 1.46608e-10 
72 1 0.0796447 0.0174145 0.00719311 0.00569037 0.00041464 0.000167557 -9.94941e-11 2.32437e-11 -3.48714e-14 5e-05 1.46608e-10 
73 1 0.0793164 0.0167518 0.00755759 0.0055483 0.000304696 -0.000159353 1.23105e-10 -1.22974e-10 7.40723e-11 5e-05 1.46608e-10 
74 1 0.0795079 0.0172053 0.00729679 0.00567391 0.000268416 -0.00014706 1.25488e-10 1.68762e-10 -1.78439e-10 5e-05 1.46608e-10 
76 1 0.0735226 0.0172493 0.00722388 0.00568856 -2.51944e-05 6.87601e-06 3.66515e-11 -2.33049e-11 1.23035e-11 5e-05 1.46608e-10 
77 1 0.0797482 0.0183179 0.00708017 0.00612863 0.000384338 -0.000461277 -2.0782e-10 -1.0223e-10 2.01211e-11 5e-05 1.46608e-10 
78 1 0.0730471 0.0157707 0.00839626 0.00611125 -0.000249785 -0.000124726 4.07383e-11 -1.02382e-10 -1.28823e-10 5e-05 1.46608e-10 
79 1 0.0732561 0.0165251 0.00777424 0.00551979 2.43048e-05 -3.09188e-05 9.42252e-12 4.0597e-11 -2.68237e-11 5e-05 1.46608e-10 
80 1 0.07957 0.0179009 0.00702909 0.00586772 0.000341308 0.000133191 -1.83835e-12 1.62304e-11 -2.70446e-10 5e-05 1.46608e-10 
81 1 0.073196 0.016299 0.00796197 0.00551066 3.03984e-05 -3.54479e-05 -1.8379e-10 1.02943e-11 -3.82981e-11 5e-05 1.46608e-10 
82 1 0.0733321 0.0168273 0.00752343 0.00552311 1.57039e-05 -2.3963e-05 2.0118e-11 6.10464e-11 -6.08012e-11 5e-05 1.46608e-10 
83 1 0.0733357 0.0161323 0.00809998 0.0056312 -3.74452e-05 2.98991e-05 8.62742e-11 -1.71838e-11 -4.40168e-11 5e-05 1.46608e-10 
84 1 0.0856195 0.0181341 0.00700184 0.00607086 -0.00036178 9.8815e-05 7.332e-13 1.47662e-12 -2.19981e-12 5e-05 1.46608e-10 
85 1 0.0731438 0.0157911 0.00836977 0.00610922 -0.000228856 -0.000245123 4.65553e-11 4.58269e-11 -3.46564e-11 5e-05 1.46608e-10 
86 1 0.0795657 0.0174676 0.00716252 0.00571666 0.000454899 0.000150045 2.06796e-11 1.29758e-10 -3.38361e-11 5e-05 1.46608e-10 
87 1 0.0794686 0.0166396 0.00762267 0.00574105 0.000508853 -0.000276597 3.93112e-10 -3.37328e-10 1.96228e-10 5e-05 1.46608e-10 
88 1 0.0796323 0.018191 0.00705966 0.00615663 0.000348024 -0.000466567 7.39971e-11 -1.03225e-10 2.06409e-12 5e-05 1.46608e-10 
89 1 0.07959 0.0179988 0.00702449 0.0062047 0.000255774 1.87566e-06 2.77272e-11 4.46715e-11 7.99633e-11 5e-05 1.46608e-10 
90 1 0.0796869 0.017186 0.0073084 0.00563824 0.000215971 -0.000111872 -1.53408e-10 8.45198e-11 2.03803e-11 5e-05 1.46608e-10 
91 1 0.0732753 0.0166006 0.00771156 0.00554415 1.4702e-05 -2.33403e-05 9.11962e-11 2.70395e-11 -4.34375e-11 5e-05 1.46608e-10 
92 1 0.0796814 0.0176893 0.00706341 0.00574243 0.000366803 0.000185785 -5.41417e-12 -9.48664e-11 3.52733e-11 5e-05 1.46608e-10 
93 1 0.0796843 0.0180309 0.0070159 0.00603252 0.000649189 -0.000410318 8.53039e-11 -1.58037e-10 1.20697e-10 5e-05 1.46608e-10 
94 1 0.079756 0.0179649 0.00699351 0.00601546 0.000481469 -1.25884e-05 2.5773e-10 9.91163e-11 -1.77957e-10 5e-05 1.46608e-10 
95 1 0.0795525 0.0178157 0.00707834 0.00571759 0.000404366 0.000173193 2.66301e-10 8.11461e-11 -7.71793e-11 5e-05 1.46608e-10 
96 1 0.079725 0.0177792 0.00705992 0.00583008 0.000307832 0.000193223 1.17182e-10 -4.06571e-12 6.12561e-11 5e-05 1.46608e-10 
97 1 0.0731542 0.0161485 0.00808689 0.00585189 -3.14006e-05 1.41336e-05 -3.48583e-11 4.77256e-11 -4.0524e-11 5e-05 1.46608e-10 
98 1 0.0796533 0.0182864 0.00708106 0.00613213 0.000356175 -0.00046584 -8.69714e-11 -1.32511e-10 -2.18545e-11 5e-05 1.46608e-10 
99 1 0.073313 0.0163997 0.00787821 0.00548209 2.50189e-05 -3.12562e-05 -1.13998e-10 -7.20827e-11 5.93637e-11 5e-05 1.46608e-10 
100 1 0.0796481 0.017016 0.00740628 0.00561066 0.000229649 -0.000115841 9.8135e-11 1.19508e-11 -2.06918e-11 5e-05 1.46608e-10 
101 1 0.0732511 0.0161734 0.00806606 0.00579183 0.000141636 -0.000128526 -1.99096e-10 -8.5553e-11 6.30123e-11 5e-05 1.46608e-10 
102 1 0.0643568 0.0187248 0.00531097 4.18702e-15 1.05823e-14 8.29537e-14 -6.34202e-22 5.15799e-22 -2.87445e-23 5e-05 1.46608e-10 
103 1 0.24257 0.0191927 0.00520306 1.6328e-22 2.24983e-22 8.29106e-22 0 0 0 5e-05 1.46608e-10 
104 1 0.0735699 0.0170569 0.00738496 0.0056853 -2.28972e-05 1.59523e-05 -4.5314e-11 -5.59551e-11 5.09986e-11 5e-05 1.46608e-10 
105 1 0.0731113 0.0159982 0.00821167 0.00609645 -8.70557e-05 5.54607e-05 -2.721e-11 3.91024e-11 4.50333e-11 5e-05 1.46608e-10 
106 1 0.0736512 0.0169988 0.00738051 0.00568701 -3.2833e-05 1.75699e-05 -1.6762e-11 -3.7368e-11 3.05032e-11 5e-05 1.46608e-10 
107 1 0.0730684 0.0158475 0.00833588 0.00607993 -0.000132617 7.32671e-06 -1.39839e-11 -5.84088e-11 -4.15659e-11 5e-05 1.46608e-10 
108 1 0.0793915 0.0166947 0.0075907 0.00563017 0.000386857 -0.000206565 4.33795e-10 -1.17018e-10 6.98767e-11 5e-05 1.46608e-10 
109 1 0.0794714 0.0174368 0.00717526 0.00572172 0.000407134 7.33325e-05 2.12194e-11 1.08681e-10 -6.93388e-11 5e-05 1.46608e-10 
110 1 0.0798075 0.0178108 0.00701312 0.00606902 -8.67838e-06 0.000396628 1.78145e-10 -1.6279e-10 3.52686e-11 5e-05 1.46608e-10 
111 1 0.0796952 0.0184772 0.00712384 0.00606357 0.000368584 -0.000458024 -2.42016e-11 -6.83519e-11 -2.85916e-11 5e-05 1.46608e-10 
112 1 0.0731754 0.0162237 0.00802446 0.00565679 8.52915e-06 -1.80118e-05 -5.07043e-11 4.84637e-11 -4.36895e-11 5e-05 1.46608e-10 
113 1 0.0739545 0.0174878 0.00723105 0.0057939 -0.000112266 7.6298e-06 1.99479e-10 -2.1522e-10 -5.0907e-12 5e-05 1.46608e-10 
114 1 0.073511 0.0168115 0.00753617 0.00554175 4.07773e-06 -1.41992e-05 8.4492e-11 -5.42688e-11 5.36997e-11 5e-05 1.46608e-10 
115 1 0.0795274 0.0172905 0.00724809 0.00568763 0.000284294 -0.000111049 8.6626e-11 1.25568e-10 -2.22508e-10 5e-05 1.46608e-10 
116 1 0.0793716 0.0166096 0.00763967 0.00573129 0.000336002 -0.000177044 -4.17095e-11 -6.67818e-11 3.66806e-11 5e-05 1.46608e-10 
117 1 0.0792298 0.0160152 0.00798182 0.00588083 0.000268138 -0.000137641 -9.21649e-12 9.0633e-11 -4.54551e-11 5e-05 1.46608e-10 
118 1 0.0730046 0.0156136 0.0085125 0.00617791 -0.000322041 -0.00018072 2.60472e-11 3.28397e-11 -7.94378e-11 5e-05 1.46608e-10 
119 1 0.0795282 0.0168962 0.00747497 0.00548394 0.000293093 -0.000152817 1.70891e-10 8.50854e-11 -4.76189e-11 5e-05 1.46608e-10 
120 1 0.0790958 0.0158499 0.00813111 0.00580572 0.000186578 -0.000358184 4.73512e-11 -3.44708e-11 9.1805e-11 5e-05 1.46608e-10 
121 1 0.0790588 0.0157445 0.00829698 0.0063151 0.000129226 -0.000274657 -1.23038e-11 -1.2997e-10 2.19385e-10 5e-05 1.46608e-10 
122 1 0.0798285 0.0178996 0.00697177 0.00583472 0.000173388 0.00029369 -2.18782e-11 8.30421e-12 -1.25535e-10 5e-05 1.46608e-10 
123 1 0.0731871 0.015947 0.00825219 0.00621163 -0.00110764 -0.00143549 6.81301e-11 -2.03424e-10 -4.00542e-10 5e-05 1.46608e-10 
124 1 0.0796461 0.01784 0.00705165 0.00581567 0.000281526 0.000136303 3.87322e-11 -9.56397e-12 -8.53224e-11 5e-05 1.46608e-10 
125 1 0.0792093 0.0159303 0.00803064 0.00587638 0.00026755 -0.000135626 -4.05798e-12 6.85443e-11 -2.37832e-11 5e-05 1.46608e-10 
126 1 0.0794323 0.0172621 0.00726424 0.00568283 0.000289344 -0.000128058 2.741e-11 8.47069e-12 -2.1502e-10 5e-05 1.46608e-10 
127 1 0.0731327 0.0160734 0.00814928 0.00602503 -6.85192e-05 4.09701e-05 -1.11041e-11 4.17134e-11 4.6714e-12 5e-05 1.46608e-10 
128 1 0.0795299 0.0177215 0.00710327 0.005685 0.000424805 0.000145791 1.29978e-11 4.14395e-11 1.05415e-11 5e-05 1.46608e-10 
129 1 0.0796113 0.0180954 0.00703911 0.00619895 0.000306207 -0.000311929 5.04988e-11 -5.53471e-11 2.21247e-10 5e-05 1.46608e-10 
130 1 0.0734267 0.0168529 0.00750194 0.00553238 7.79987e-06 -1.77013e-05 4.04677e-11 6.22434e-11 -3.27206e-11 5e-05 1.46608e-10 
131 1 0.0732927 0.0163243 0.00794076 0.00547495 2.96169e-05 -3.53505e-05 -1.81698e-10 8.01037e-12 -4.04955e-12 5e-05 1.46608e-10 
132 1 0.0795997 0.0177395 0.00703401 0.00571965 0.000410677 0.000169281 -8.09324e-11 -5.78903e-11 -4.5613e-11 5e-05 1.46608e-10 
133 1 0.079388 0.0162984 0.00781904 0.00574991 0.000448212 -0.000241537 -1.15118e-10 1.416e-11 -8.86277e-12 5e-05 1.46608e-10 
134 1 0.0795477 0.0169817 0.00742573 0.00557491 0.000257566 -0.000131653 1.92483e-11 2.62206e-10 -1.46274e-10 5e-05 1.46608e-10 
135 1 0.079191 0.015866 0.00810501 0.00584204 0.000123015 -0.000266533 1.02075e-10 3.69716e-11 3.69496e-11 5e-05 1.46608e-10 
136 1 0.0731222 0.0157132 0.00842859 0.00615022 -0.000251681 -0.000237183 3.80263e-11 -4.27236e-11 5.04131e-11 5e-05 1.46608e-10 
137 1 0.0797161 0.0185726 0.00714523 0.00602999 0.000375491 -0.000452861 4.322e-11 6.64638e-11 1.85565e-11 5e-05 1.46608e-10 
138 1 0.0793319 0.0164397 0.00773747 0.00564252 0.000318003 -0.00016684 -1.48592e-10 4.37563e-11 -2.65899e-11 5e-05 1.46608e-10 
140 1 0.079852 0.0179947 0.00699192 0.00583842 0.000333037 -0.000448743 -1.11391e-10 1.19159e-11 -5.8427e-11 5e-05 1.46608e-10 
141 1 0.0731655 0.0158692 0.00831117 0.00617015 -0.00299079 -0.00392178 3.1289e-11 -5.04774e-10 -8.04376e-10 5e-05 1.46608e-10 
142 1 0.0735303 0.016887 0.0074735 0.00557749 -4.72371e-06 -7.0989e-06 7.56071e-11 -9.3758e-11 9.10791e-11 5e-05 1.46608e-10 
143 1 0.0730898 0.0159231 0.00827405 0.00607084 -8.12826e-05 6.06048e-05 -9.13871e-11 3.60163e-12 4.0128e-12 5e-05 1.46608e-10 
144 1 0.0734928 0.0167358 0.00759898 0.0055678 -2.51158e-06 -8.9069e-06 2.49868e-11 -5.45811e-11 4.37797e-11 5e-05 1.46608e-10 
146 1 0.0733564 0.0162076 0.00803749 0.00548905 -1.35381e-05 1.91222e-07 1.33658e-10 1.89865e-11 1.11319e-11 5e-05 1.46608e-10 
147 1 0.0731009 0.0156352 0.00848744 0.00621092 -0.000256414 -0.000236135 -1.57799e-11 -1.06589e-10 5.46526e-11 5e-05 1.46608e-10 
148 1 0.0733883 0.017054 0.00733525 0.00558174 -6.015e-06 -1.00584e-05 -9.71057e-11 3.84733e-11 -9.15254e-11 5e-05 1.46608e-10 
149 1 0.0797799 0.0180603 0.00701443 0.00606475 0.000588125 -0.000407226 -1.12804e-10 -7.83586e-11 1.74847e-11 5e-05 1.46608e-10 
150 1 0.0733974 0.0163582 0.00791246 0.00551807 -5.5293e-06 -5.98369e-06 -1.85306e-10 5.76463e-11 -4.63704e-11 5e-05 1.46608e-10 
151 1 0.0737344 0.0170413 0.00734504 0.00569148 -2.26473e-05 9.57136e-06 -1.31007e-11 -1.42496e-11 3.17519e-12 5e-05 1.46608e-10 
153 1 0.07323 0.0160982 0.00812849 0.00596651 6.39752e-05 -6.8002e-05 -1.20534e-11 2.49824e-11 -3.90085e-11 5e-05 1.46608e-10 
154 1 0.073483 0.0170797 0.00731372 0.00565848 3.81394e-06 -1.47451e-05 -1.33244e-10 5.87633e-11 -6.38779e-11 5e-05 1.46608e-10 
155 1 0.0735405 0.0173476 0.00722654 0.00568899 -2.33252e-05 8.83889e-06 2.96586e-11 -3.58851e-11 7.2492e-12 5e-05 1.46608e-10 
156 1 0.0734645 0.017004 0.0073765 0.00559842 8.67689e-06 -1.94419e-05 5.73334e-11 1.28473e-10 -1.17599e-10 5e-05 1.46608e-10 
157 1 0.0219312 0.0187687 0.00551176 -3.83554e-14 8.16576e-14 2.95887e-13 -6.68982e-23 1.25525e-22 -3.90843e-23 5e-05 1.46608e-10 
158 1 0.0735648 0.0171377 0.00732632 0.00569673 -2.65982e-05 8.69635e-06 -3.58104e-11 -5.99026e-11 -4.5191e-12 5e-05 1.46608e-10 
159 1 0.0796743 0.0175985 0.00710657 0.00574144 0.000432746 0.000165669 -5.14977e-11 2.15253e-10 -8.15502e-11 5e-05 1.46608e-10 
160 1 0.0734443 0.0173125 0.00722543 0.00566507 -2.95275e-05 8.57058e-06 6.93563e-11 6.91188e-11 3.44463e-12 5e-05 1.46608e-10 
162 1 0.0734068 0.0171296 0.00727244 0.00564345 -1.46173e-05 1.69678e-06 3.67734e-11 8.73516e-11 -6.45024e-11 5e-05 1.46608e-10 
164 1 0.0737214 0.0177391 0.00723735 0.00587474 -5.31699e-05 9.36067e-06 1.07673e-10 1.32331e-11 5.24726e-13 5e-05 1.46608e-10 
165 1 0.0738204 0.0172606 0.00722472 0.00564868 -8.27886e-06 1.10142e-05 1.32302e-10 -8.95638e-11 -3.02665e-11 5e-05 1.46608e-10 
166 1 0.0793456 0.0161272 0.0079176 0.00590079 0.000295461 -0.000153192 -2.33006e-10 -2.9495e-11 1.75836e-11 5e-05 1.46608e-10 
167 1 0.073377 0.0162829 0.00797499 0.0054544 -1.52517e-06 -9.50615e-06 -4.60269e-11 4.12316e-11 -4.09292e-11 5e-05 1.46608e-10 
168 1 0.0736425 0.0170754 0.00731692 0.00569594 -3.28179e-05 1.65648e-05 6.90537e-11 -9.0545e-12 3.85723e-11 5e-05 1.46608e-10 
169 1 0.0738799 0.0175545 0.0072327 0.00583803 -5.56157e-05 9.24576e-06 1.50242e-10 -1.65281e-10 -5.64012e-12 5e-05 1.46608e-10 
170 1 0.0737152 0.0171985 0.00722287 0.00567563 -1.84692e-05 7.42581e-06 9.31187e-13 1.57222e-11 1.75623e-11 5e-05 1.46608e-10 
171 1 0.0793666 0.0162125 0.00786851 0.00591002 0.000315641 -0.000164704 -1.1646e-10 1.79262e-10 -1.03763e-10 5e-05 1.46608e-10 
172 1 0.0738064 0.0171634 0.00724364 0.00567629 -1.25567e-05 1.06548e-06 -1.0049e-11 -3.6155e-12 8.98238e-12 5e-05 1.46608e-10 
173 1 0.0798246 0.0174088 0.00720748 0.00569305 0.000352067 0.000197719 -3.12407e-10 1.78938e-11 -3.06202e-11 5e-05 1.46608e-10 
174 1 0.0736226 0.017249 0.00722405 0.00569654 -1.89966e-05 1.28977e-05 5.43051e-12 -8.10216e-11 -2.42284e-11 5e-05 1.46608e-10 
175 1 0.0674596 0.0173875 0.00719745 0.00553471 -0.000532604 0.000225148 -4.2489e-11 -1.78525e-11 2.2836e-11 5e-05 1.46608e-10 
176 1 0.0734458 0.0169285 0.00743924 0.00555416 1.11344e-05 -1.82725e-05 -6.19967e-11 1.22587e-10 -1.13036e-10 5e-05 1.46608e-10 
177 1 0.0734807 0.0175091 0.00723076 0.00555056 -2.29152e-05 9.36028e-06 -8.51898e-11 5.2599e-11 -5.47624e-12 5e-05 1.46608e-10 
178 1 0.0739341 0.01739 0.00722839 0.00571267 -0.000100901 7.60456e-06 1.54009e-10 -1.91964e-10 -1.24832e-11 5e-05 1.46608e-10 
179 1 0.0738591 0.0174567 0.00723004 0.00577109 -3.75747e-05 9.12115e-06 9.2836e-11 -1.56822e-10 -1.08279e-11 5e-05 1.46608e-10 
181 1 0.0734202 0.0172511 0.00739466 0.00553472 0.000281598 -6.34175e-05 2.21942e-11 3.96525e-11 -1.02057e-10 5e-05 1.46608e-10 
182 1 0.0793121 0.0163548 0.00778636 0.00563278 0.000322228 -0.000169316 1.45293e-11 1.15237e-10 -6.81912e-11 5e-05 1.46608e-10 
183 1 0.0736319 0.0171524 0.00725364 0.00571728 -7.23451e-05 2.40651e-05 -3.36501e-11 -3.43301e-12 -1.31714e-11 5e-05 1.46608e-10 
184 1 0.0796169 0.0176452 0.00717461 0.00572053 0.000418249 0.000164425 -1.9795e-10 1.362e-10 -1.17987e-10 5e-05 1.46608e-10 
185 1 0.0733696 0.0169784 0.00739796 0.00554817 3.3252e-06 -1.76603e-05 -1.62223e-10 5.30284e-11 -9.16727e-11 5e-05 1.46608e-10 
186 1 0.0734059 0.0171468 0.00737095 0.0056354 -3.0888e-05 5.3264e-06 1.77708e-10 -9.25394e-11 3.27171e-12 5e-05 1.46608e-10 
187 1 0.0796286 0.016931 0.00745521 0.0055631 0.000245818 -0.000125421 -4.46094e-10 -4.74567e-11 3.04873e-11 5e-05 1.46608e-10 
188 1 0.0797063 0.0181267 0.00703729 0.00620877 0.000313799 -0.000478259 2.34297e-11 -2.59047e-11 7.99452e-11 5e-05 1.46608e-10 
189 1 0.0796674 0.017101 0.00735734 0.00562483 0.00022343 -0.000112913 1.61753e-11 5.31467e-11 -4.64402e-11 5e-05 1.46608e-10 
190 1 0.0675614 0.0174867 0.00710186 0.0055352 -0.000541301 0.000223749 -1.04288e-10 -2.802e-11 5.40985e-12 5e-05 1.46608e-10 
191 1 0.0797371 0.018668 0.00716662 0.00599701 0.000382883 -0.000448509 4.36318e-11 2.26802e-10 5.1565e-11 5e-05 1.46608e-10 
192 1 0.0736165 0.0168479 0.00750578 0.00557711 -1.50051e-05 1.77672e-06 2.32192e-10 -1.69713e-11 1.0661e-11 5e-05 1.46608e-10 
193 1 0.0794478 0.0165537 0.00767213 0.00574554 0.000343499 -0.000181224 -1.63674e-11 -2.72477e-11 1.6115e-11 5e-05 1.46608e-10 
194 1 0.0734358 0.0165092 0.00778709 0.00553715 1.16841e-06 -1.12026e-05 -8.00156e-11 -3.57849e-11 1.56737e-11 5e-05 1.46608e-10 
195 1 0.0738391 0.0173588 0.00722739 0.00568757 -1.7621e-05 9.50787e-06 1.27767e-10 -1.49144e-10 -7.40891e-12 5e-05 1.46608e-10 
196 1 0.0728975 0.015259 0.00884154 0.00625443 9.97499e-05 0.000219805 -1.39497e-10 -1.77258e-10 4.25648e-10 5e-05 1.46608e-10 
197 1 0.0675181 0.0176609 0.00709784 0.00554297 -0.000535149 0.000225544 2.10973e-10 -1.17749e-10 2.30271e-11 5e-05 1.46608e-10 
198 1 0.0732946 0.0166761 0.00764889 0.00553555 1.62346e-05 -2.37345e-05 8.48619e-12 2.57225e-11 -4.75147e-11 5e-05 1.46608e-10 
199 1 0.0734259 0.0172143 0.00722276 0.00568778 -2.40052e-05 8.23869e-06 -3.76092e-11 7.62773e-11 -1.40061e-11 5e-05 1.46608e-10 
200 1 0.0733902 0.0167016 0.00762753 0.0055293 1.45651e-05 -2.2664e-05 -5.18894e-11 3.35039e-11 -3.05982e-11 5e-05 1.46608e-10 
201 1 0.0738298 0.0177869 0.00723883 0.00588167 -4.29136e-05 9.60535e-06 9.55946e-11 8.09557e-12 2.00509e-12 5e-05 1.46608e-10 
202 1 0.0736428 0.0169221 0.00744415 0.0056401 -3.05393e-05 1.47315e-05 7.95114e-11 -1.64818e-11 2.40131e-11 5e-05 1.46608e-10 
203 1 0.0798365 0.0174985 0.00716509 0.00567995 0.00032809 0.000208517 -5.93646e-11 3.87679e-10 -1.63739e-10 5e-05 1.46608e-10 
204 1 0.0733707 0.0166262 0.00769018 0.00554114 1.31303e-05 -2.25384e-05 -7.26611e-11 1.83102e-11 1.62586e-11 5e-05 1.46608e-10 
205 1 0.0736791 0.0175435 0.00723204 0.00575623 -2.98461e-05 9.5767e-06 -8.89821e-11 -3.2894e-11 -1.09727e-12 5e-05 1.46608e-10 
206 1 0.0736405 0.0173474 0.00722672 0.00569111 -1.8293e-05 1.02643e-05 2.30308e-11 -4.2211e-11 -3.32931e-12 5e-05 1.46608e-10 
207 1 0.0732085 0.016023 0.00819088 0.00614237 3.61609e-05 -4.32079e-05 -3.67498e-11 3.74542e-11 -6.60589e-11 5e-05 1.46608e-10 
208 1 0.0735016 0.0171553 0.00725093 0.00568982 -2.75351e-05 8.81143e-06 -3.51974e-11 1.51191e-11 -2.73063e-11 5e-05 1.46608e-10 
209 1 0.0734168 0.0164337 0.0078498 0.00553646 -2.80033e-06 -8.48434e-06 -2.40438e-10 4.02754e-11 -2.31525e-11 5e-05 1.46608e-10 
210 1 0.0795186 0.0174941 0.00724664 0.00568925 0.000407094 0.000144807 -1.22175e-10 4.22979e-11 -2.03009e-11 5e-05 1.46608e-10 
211 1 0.0797211 0.0178537 0.00698693 0.00608016 3.16808e-05 0.000376772 7.48238e-11 -1.53421e-10 1.22194e-10 5e-05 1.46608e-10 
212 1 0.0737275 0.0172977 0.00722555 0.00565322 -1.40124e-05 9.52117e-06 6.84421e-11 5.81612e-11 -1.12268e-12 5e-05 1.46608e-10 
213 1 0.0796095 0.0168459 0.00750418 0.005471 0.000275453 -0.000143002 1.45016e-10 -1.41593e-10 8.16495e-11 5e-05 1.46608e-10 
214 1 0.0796619 0.0179325 0.0070037 0.00616328 0.000140684 0.000197696 2.41035e-10 1.02045e-10 6.92876e-11 5e-05 1.46608e-10 
215 1 0.067549 0.0174032 0.00715545 0.00552561 -0.000541923 0.000221894 -1.08576e-10 1.2482e-11 6.84598e-12 5e-05 1.46608e-10 
216 1 0.0734622 0.0174109 0.0072281 0.00559638 -2.41113e-05 8.65869e-06 4.18509e-11 6.08534e-11 7.09403e-13 5e-05 1.46608e-10 
217 1 0.079408 0.0163835 0.00777005 0.00569748 0.000376542 -0.000200455 -2.15072e-10 -2.45157e-11 1.438e-11 5e-05 1.46608e-10 
218 1 0.0735791 0.0175437 0.00723187 0.00574816 -3.67861e-05 9.65348e-06 -1.31159e-10 2.79641e-12 2.34558e-12 5e-05 1.46608e-10 
219 1 0.0796742 0.0183818 0.00710245 0.00609936 0.000361792 -0.000462917 -4.27958e-11 -1.37752e-10 3.8827e-11 5e-05 1.46608e-10 
220 1 0.0734647 0.0172553 0.00730524 0.00564697 7.00015e-05 -1.81855e-05 2.0816e-11 6.3122e-11 -6.25919e-11 5e-05 1.46608e-10 
221 1 0.0674578 0.0170014 0.00744002 0.00544562 -0.000530538 0.000218384 9.68437e-12 -3.77902e-11 3.61921e-11 5e-05 1.46608e-10 
222 1 0.0794279 0.0164686 0.00772109 0.00568534 0.000309393 -0.00016174 -3.11899e-10 1.95871e-10 -1.14055e-10 5e-05 1.46608e-10 
223 1 0.07355 0.0169624 0.00741089 0.00566353 -1.79561e-05 6.63363e-06 -4.53415e-11 -5.74702e-11 1.00441e-10 5e-05 1.46608e-10 
224 1 0.0733506 0.0169029 0.00746065 0.00553361 1.26759e-05 -2.09888e-05 -9.73998e-12 4.39673e-11 -6.52603e-11 5e-05 1.46608e-10 
225 1 0.0797508 0.0175426 0.00713839 0.00568273 0.0003378 0.000203768 -1.28806e-10 1.48525e-10 -4.21413e-11 5e-05 1.46608e-10 
226 1 0.0737257 0.0171183 0.00728177 0.0056856 -2.14614e-05 8.93066e-06 7.86996e-11 2.93015e-12 6.71583e-11 5e-05 1.46608e-10 
227 1 0.0675159 0.0172422 0.00726938 0.00552907 -0.000536798 0.000220431 3.61953e-11 1.51573e-11 -8.55516e-12 5e-05 1.46608e-10 
228 1 0.0674807 0.0174779 0.00716026 0.00553691 -0.000532366 0.000225662 -7.00274e-11 -4.20868e-11 6.10237e-11 5e-05 1.46608e-10 
229 1 0.0734992 0.0171919 0.00737874 0.00541148 0.000290355 -0.000686026 -4.54505e-11 4.6932e-11 -1.54257e-10 5e-05 1.46608e-10 
230 1 0.0737647 0.0179343 0.00724266 0.00586434 -5.33727e-05 9.13658e-06 4.51069e-11 -3.44888e-11 -3.22471e-12 5e-05 1.46608e-10 
231 1 0.0674399 0.0172963 0.00723355 0.00552887 -0.000534014 0.000219344 -3.20938e-11 -1.44319e-11 5.66079e-12 5e-05 1.46608e-10 
232 1 0.0733146 0.0160571 0.00816238 0.00584386 -0.000181935 -5.52353e-05 1.03471e-10 -1.20065e-10 -1.91396e-10 5e-05 1.46608e-10 
233 1 0.0734551 0.0165847 0.00772442 0.00554927 -7.11417e-07 -9.84134e-06 -1.63286e-11 -3.01166e-11 1.65062e-11 5e-05 1.46608e-10 
234 1 0.0797272 0.0182224 0.00705875 0.0061387 0.000395012 -0.000457558 3.13722e-11 -1.13764e-11 5.10321e-11 5e-05 1.46608e-10 
235 1 0.073808 0.0181295 0.00724797 0.00583962 -5.13471e-05 9.16169e-06 -1.25555e-11 -3.37557e-11 -7.51782e-13 5e-05 1.46608e-10 
236 1 0.0737868 0.0180318 0.00724531 0.00584801 -5.07895e-05 9.16784e-06 2.46349e-11 -4.03074e-11 -1.98479e-12 5e-05 1.46608e-10 
237 1 0.0738735 0.017982 0.00724414 0.00585139 -4.54537e-05 9.49784e-06 9.235e-11 2.62363e-11 4.20927e-12 5e-05 1.46608e-10 
239 1 0.0672672 0.0165757 0.00774416 0.00541821 -0.000534522 0.000221899 1.74784e-11 6.6193e-11 -4.43453e-11 5e-05 1.46608e-10 
240 1 0.0673256 0.0168158 0.00757403 0.00533777 -0.000511071 0.00020767 3.80319e-11 7.16746e-11 -5.13522e-11 5e-05 1.46608e-10 
241 1 0.0672476 0.0164957 0.00780085 0.0053882 -0.000533527 0.000221793 -4.93042e-13 5.73148e-11 -4.35441e-11 5e-05 1.46608e-10 
242 1 0.073579 0.0166967 0.00763126 0.00557104 -1.05284e-05 -2.11172e-06 4.69533e-11 -3.41725e-12 7.73243e-12 5e-05 1.46608e-10 
243 1 0.0733514 0.0165507 0.00775285 0.00553827 1.17364e-05 -2.1184e-05 9.85797e-12 8.44767e-12 5.25289e-12 5e-05 1.46608e-10 
244 1 0.0672868 0.0166557 0.00768745 0.00535494 -0.000520647 0.000213631 3.85582e-12 5.61864e-11 -3.95498e-11 5e-05 1.46608e-10 
246 1 0.0674016 0.0171362 0.007347 0.00547917 -0.000526086 0.000214032 8.72811e-11 1.24937e-10 -8.04958e-11 5e-05 1.46608e-10 