ITEM: TIMESTEP
9400000
ITEM: NUMBER OF ATOMS
287
ITEM: BOX BOUNDS ff ff ff
-0.02 0.43
-0.02 0.06
-0.02 0.07
ITEM: ATOMS id type x y z vx vy vz fx fy fz radius mass 
1 1 0.0676229 0.0163361 0.00790218 0.00587307 -0.000497377 0.000182782 6.60486e-11 -2.2752e-11 8.91423e-12 5e-05 1.46608e-10 
2 1 0.0680494 0.0172635 0.00723934 0.00575881 -0.000472066 0.000166597 -8.25022e-11 -1.75197e-11 5.53478e-12 5e-05 1.46608e-10 
3 1 0.0614283 0.0159978 0.00829358 0.00570262 -0.000334027 -0.000363474 2.61453e-11 -1.47128e-10 1.29496e-10 5e-05 1.46608e-10 
4 1 0.0679558 0.0176547 0.00711508 0.00568353 -0.00043788 0.000228548 1.95206e-11 -1.25583e-13 2.04986e-11 5e-05 1.46608e-10 
5 1 0.0675058 0.0162325 0.00797824 0.00584898 -0.000468878 0.000163153 -2.02983e-10 8.76095e-11 -4.77932e-11 5e-05 1.46608e-10 
6 1 0.0735615 0.0164459 0.00783937 0.00595702 -0.000120206 8.8101e-05 2.52801e-11 1.7863e-11 -7.22292e-12 5e-05 1.46608e-10 
7 1 0.0676984 0.0169495 0.00746962 0.00605331 -0.000559498 0.000221668 6.00485e-11 1.03559e-11 6.20847e-12 5e-05 1.46608e-10 
8 1 0.0674048 0.0158321 0.00826204 0.00550719 -0.000403941 0.000127191 5.8226e-12 1.95046e-10 -1.354e-10 5e-05 1.46608e-10 
9 1 0.0738303 0.0174964 0.00723105 0.00612312 -0.000132204 6.41e-06 -4.6013e-11 -1.01331e-10 1.05979e-10 5e-05 1.46608e-10 
10 1 0.0676342 0.0167105 0.00763916 0.00597669 -0.000529622 0.000201548 2.2745e-10 6.61227e-11 -3.36925e-11 5e-05 1.46608e-10 
11 1 0.0680861 0.0174257 0.0071245 0.00575468 -0.000435957 0.000150232 4.4594e-12 4.23558e-11 6.0013e-11 5e-05 1.46608e-10 
12 1 0.0616369 0.0167182 0.00763507 0.00609233 -4.20284e-06 0.000157107 -6.49291e-11 -1.94069e-10 2.89822e-11 5e-05 1.46608e-10 
13 1 0.0674844 0.0161528 0.00803475 0.00582112 -0.000464972 0.000161582 6.14708e-11 1.10377e-10 -7.04019e-11 5e-05 1.46608e-10 
14 1 0.0613456 0.0157141 0.00856313 0.00544461 -0.000321301 -0.000345303 -2.09531e-10 5.70589e-11 -3.05796e-11 5e-05 1.46608e-10 
15 1 0.0678374 0.0171331 0.00733683 0.00598348 -0.000478053 0.000164299 2.52313e-11 -2.10935e-12 -8.28361e-12 5e-05 1.46608e-10 
16 1 0.0613258 0.0156429 0.00863059 0.00541457 -0.000326376 -0.000337152 -5.04875e-11 -4.64323e-11 6.1518e-11 5e-05 1.46608e-10 
17 1 0.0676128 0.0166308 0.00769567 0.00596357 -0.000511567 0.000190055 -7.99835e-11 7.70038e-12 9.18631e-12 5e-05 1.46608e-10 
18 1 0.0737083 0.0169723 0.0074024 0.00619479 -0.000126825 9.01917e-05 -5.23069e-11 -6.76375e-11 -5.37861e-12 5e-05 1.46608e-10 
19 1 0.0674635 0.016073 0.00809133 0.00545885 -0.000397397 0.000124367 4.19705e-11 1.49479e-10 -1.0641e-10 5e-05 1.46608e-10 
21 1 0.0676015 0.0162565 0.0079587 0.00585757 -0.00049071 0.000178402 6.82696e-11 2.05943e-11 -2.19111e-11 5e-05 1.46608e-10 
22 1 0.0677412 0.0171088 0.0073566 0.00606222 -0.000569317 0.000226226 6.42e-11 1.66402e-11 -5.16019e-11 5e-05 1.46608e-10 
23 1 0.061819 0.0170596 0.00738647 0.00623669 -1.44886e-05 0.000170753 -1.36169e-10 -2.92632e-10 2.38189e-10 5e-05 1.46608e-10 
24 1 0.0737711 0.0172024 0.00722307 0.00562346 -2.44596e-05 1.06364e-05 -5.22598e-11 6.73702e-11 -6.55493e-12 5e-05 1.46608e-10 
25 1 0.067677 0.0168698 0.00752613 0.00601678 -0.00054541 0.000212708 -7.61917e-11 -6.34439e-11 4.10191e-11 5e-05 1.46608e-10 
26 1 0.0736454 0.0167468 0.00758956 0.00607891 -0.000148987 0.000109555 5.19448e-11 4.48753e-11 -4.44616e-11 5e-05 1.46608e-10 
27 1 0.0617234 0.0170328 0.00740384 0.00617123 -6.61409e-05 0.000198056 -1.07847e-10 -2.86258e-10 1.78465e-10 5e-05 1.46608e-10 
28 1 0.0679352 0.0175566 0.00711559 0.00570998 -0.00047852 0.000233828 -2.98377e-11 -1.45793e-11 1.70804e-11 5e-05 1.46608e-10 
29 1 0.0674439 0.0159924 0.00814846 0.00552357 -0.000199785 -1.65302e-05 -7.50378e-11 -2.84988e-10 1.97802e-10 5e-05 1.46608e-10 
30 1 0.0679735 0.0173178 0.00720339 0.00577712 -0.000465577 0.000164724 -1.30125e-10 -3.47009e-11 -2.34552e-11 5e-05 1.46608e-10 
31 1 0.0677198 0.0170292 0.00741311 0.00607833 -0.000562989 0.000224473 4.43404e-11 2.3562e-11 -1.5948e-11 5e-05 1.46608e-10 
32 1 0.0678159 0.0170535 0.00739334 0.00612414 -0.000523072 0.00019424 1.64242e-10 -4.02199e-11 4.47837e-11 5e-05 1.46608e-10 
33 1 0.0735824 0.0165211 0.00777692 0.00597922 -0.000125254 9.12773e-05 4.82461e-11 -1.29817e-11 -4.53826e-11 5e-05 1.46608e-10 
34 1 0.0675914 0.0165512 0.00775218 0.005929 -0.000499467 0.000182992 -2.4976e-10 -2.19123e-10 1.57315e-10 5e-05 1.46608e-10 
35 1 0.0677945 0.0169738 0.00744986 0.00612593 -0.000533237 0.000200881 1.06211e-10 -3.82559e-11 3.06495e-11 5e-05 1.46608e-10 
36 1 0.0738696 0.0176924 0.00723637 0.00602089 -0.000113331 6.85988e-06 5.57226e-12 6.78893e-11 -3.73113e-11 5e-05 1.46608e-10 
37 1 0.0677516 0.0168144 0.00756293 0.00603058 -0.000526969 0.000199278 -1.90652e-11 -4.30728e-11 3.47934e-11 5e-05 1.46608e-10 
38 1 0.0679125 0.0170781 0.00737332 0.00602796 -0.000458326 0.00015125 8.32534e-11 -1.10266e-11 -8.23475e-12 5e-05 1.46608e-10 
39 1 0.0737911 0.0173003 0.00722573 0.00589816 -8.28085e-05 3.72495e-06 6.59704e-11 -7.31276e-11 4.9279e-11 5e-05 1.46608e-10 
41 1 0.0675486 0.0163918 0.00786521 0.00589285 -0.000491186 0.000177536 1.68217e-10 6.22717e-11 -5.28711e-11 5e-05 1.46608e-10 
42 1 0.0677627 0.0171891 0.00730104 0.00591304 -0.00053397 0.000205408 -1.53713e-11 6.33926e-11 -7.68908e-11 5e-05 1.46608e-10 
44 1 0.0679338 0.0171578 0.0073168 0.00594092 -0.000453542 0.000150278 4.80061e-11 2.52717e-12 4.09821e-12 5e-05 1.46608e-10 
45 1 0.0736034 0.0165964 0.00771447 0.00601696 -0.000129977 9.72337e-05 -1.89265e-10 1.48505e-11 -1.3882e-10 5e-05 1.46608e-10 
46 1 0.0736928 0.0168962 0.0074655 0.00615729 -0.000127143 9.27513e-05 1.62942e-10 -7.26379e-11 3.38681e-12 5e-05 1.46608e-10 
47 1 0.06757 0.0164715 0.00780869 0.00590474 -0.000497488 0.000181949 7.33925e-11 -1.85151e-10 1.17279e-10 5e-05 1.46608e-10 
48 1 0.0678018 0.0173485 0.00718672 0.00559228 -0.000448973 0.000153846 -3.497e-11 -1.57502e-10 6.96897e-11 5e-05 1.46608e-10 
49 1 0.0736664 0.016822 0.00752711 0.0061221 -0.000136509 0.000100629 -1.37621e-10 1.62026e-11 -6.46299e-11 5e-05 1.46608e-10 
50 1 0.0678606 0.0176231 0.00711178 0.00564319 -0.000548616 0.000227516 -3.22118e-12 1.04922e-12 1.22375e-11 5e-05 1.46608e-10 
51 1 0.0678401 0.0175252 0.00711228 0.00564745 -0.000546811 0.000228339 2.19835e-11 1.1899e-10 3.751e-12 5e-05 1.46608e-10 
52 1 0.0616159 0.0166418 0.00769617 0.00606953 2.49421e-08 0.000133055 1.88885e-10 -1.20294e-11 1.19287e-10 5e-05 1.46608e-10 
53 1 0.0737301 0.0170473 0.00734006 0.00611043 -0.000104646 7.42237e-05 -3.19229e-10 9.04885e-11 -1.1566e-10 5e-05 1.46608e-10 
54 1 0.0675801 0.0161768 0.00801521 0.00584481 -0.000482146 0.00017288 -7.09739e-11 1.05227e-10 -7.3799e-11 5e-05 1.46608e-10 
55 1 0.0613867 0.015856 0.00842834 0.00563042 -0.000331064 -0.000358115 -3.62871e-11 -1.30912e-12 8.79439e-12 5e-05 1.46608e-10 
56 1 0.0677731 0.016894 0.00750642 0.00609843 -0.000545598 0.000210384 -1.00735e-10 -6.25019e-11 5.03609e-11 5e-05 1.46608e-10 
57 1 0.0736245 0.0166716 0.00765203 0.0060506 -0.000140713 0.000106986 2.95013e-10 5.98599e-11 -8.49228e-11 5e-05 1.46608e-10 
59 1 0.0678268 0.0167594 0.00759938 0.00609707 -0.00045909 0.00014933 7.8551e-11 6.89334e-11 -4.93102e-11 5e-05 1.46608e-10 
60 1 0.0678482 0.0168391 0.00754286 0.00618071 -0.00049637 0.000173286 -1.0388e-10 -4.28993e-11 3.53749e-11 5e-05 1.46608e-10 
61 1 0.0675272 0.0163121 0.00792172 0.00587685 -0.000478098 0.000168739 5.42162e-12 1.85185e-10 -1.26835e-10 5e-05 1.46608e-10 
62 1 0.0679539 0.0172377 0.00726015 0.00582762 -0.000435571 0.000141632 -8.77164e-11 7.50971e-11 -5.48529e-11 5e-05 1.46608e-10 
63 1 0.0678962 0.0173741 0.00716607 0.00563103 -0.000522704 0.000210398 -2.85381e-11 1.46354e-10 -9.83914e-11 5e-05 1.46608e-10 
64 1 0.0737617 0.0171203 0.00727945 0.00587424 -4.34316e-05 2.25028e-05 3.20513e-11 9.68684e-11 -5.94369e-11 5e-05 1.46608e-10 
65 1 0.0617334 0.0167449 0.00761913 0.00610833 -8.05202e-06 0.000164119 -2.39134e-11 -1.62777e-10 1.39272e-10 5e-05 1.46608e-10 
66 1 0.0616696 0.0165142 0.00779912 0.00601699 -6.14855e-05 7.44184e-05 -3.45729e-11 -3.1149e-11 1.7516e-11 5e-05 1.46608e-10 
67 1 0.0680684 0.0173436 0.00718258 0.00576898 -0.000472681 0.000169464 -1.08441e-10 -5.36532e-11 -4.2028e-12 5e-05 1.46608e-10 
68 1 0.0680116 0.0174922 0.00711944 0.00574295 -0.000434911 0.000224993 -8.84762e-11 1.55831e-11 1.82738e-11 5e-05 1.46608e-10 
69 1 0.0676872 0.0165751 0.00773264 0.00594442 -0.000528322 0.000202304 -7.93091e-11 -1.65557e-10 1.22297e-10 5e-05 1.46608e-10 
70 1 0.0738107 0.0173983 0.00722839 0.00617116 -0.000145653 1.03181e-05 1.71449e-10 -2.13946e-10 1.59511e-10 5e-05 1.46608e-10 
71 1 0.0613663 0.015785 0.00849575 0.00554435 -0.000327906 -0.000350973 -8.86837e-11 5.14804e-11 -3.44972e-11 5e-05 1.46608e-10 
72 1 0.0679925 0.0173979 0.00714671 0.00577441 -0.000449191 0.000190521 -1.20349e-10 -3.78655e-11 -6.964e-11 5e-05 1.46608e-10 
73 1 0.0676556 0.0167902 0.00758264 0.00598431 -0.000537586 0.000207585 -9.11934e-11 -6.07298e-11 4.1396e-11 5e-05 1.46608e-10 
74 1 0.0678587 0.0172128 0.00728029 0.00582992 -0.000473521 0.00017056 -4.40645e-10 7.87152e-11 -6.19142e-11 5e-05 1.46608e-10 
76 1 0.0619585 0.0176731 0.00714722 0.00569938 3.19426e-05 -0.000171462 -5.98639e-11 4.40264e-10 1.12915e-10 5e-05 1.46608e-10 
77 1 0.0680997 0.0183401 0.00711159 0.00559181 -0.000435109 0.000225006 -3.84904e-11 7.16231e-11 -4.54952e-12 5e-05 1.46608e-10 
78 1 0.0614491 0.0160687 0.0082262 0.0057439 -0.000318342 -0.000381635 2.0425e-10 -5.03936e-11 1.41855e-11 5e-05 1.46608e-10 
79 1 0.0616586 0.0167966 0.00757694 0.00611489 -2.02312e-05 0.000169197 -4.78628e-11 -2.74508e-10 1.48134e-10 5e-05 1.46608e-10 
80 1 0.0679222 0.017917 0.00711027 0.0056345 -0.00045894 0.000226553 -1.9256e-11 -8.6465e-11 -5.25561e-13 5e-05 1.46608e-10 
81 1 0.0615946 0.0165675 0.00775955 0.00602225 -0.000119042 -5.30245e-05 3.20854e-10 1.86845e-10 1.40454e-10 5e-05 1.46608e-10 
82 1 0.0617439 0.0171117 0.00734597 0.00618939 -7.7935e-05 0.0002158 -6.46064e-11 -2.00517e-10 1.65887e-10 5e-05 1.46608e-10 
83 1 0.0617241 0.0163877 0.00790168 0.00590839 -0.000399275 -0.000330473 1.49692e-10 2.96212e-11 -3.77341e-11 5e-05 1.46608e-10 
84 1 0.07385 0.0175944 0.00723371 0.00606983 -0.000124876 5.87759e-06 -2.73105e-11 9.43351e-12 -3.26344e-11 5e-05 1.46608e-10 
85 1 0.0615441 0.0160855 0.00819964 0.00573876 -0.000362236 -0.000341877 -2.71239e-11 8.1486e-11 -7.56962e-11 5e-05 1.46608e-10 
86 1 0.0679147 0.0174587 0.00711609 0.0056515 -0.000525008 0.000225503 -7.07254e-11 2.36767e-10 -1.6888e-11 5e-05 1.46608e-10 
87 1 0.0678047 0.0166791 0.00765636 0.00598366 -0.000525508 0.000199462 6.23342e-11 -6.10983e-11 4.26824e-11 5e-05 1.46608e-10 
88 1 0.0679838 0.0182106 0.00710877 0.00560654 -0.000448197 0.000225622 1.06148e-11 4.88273e-11 2.82579e-12 5e-05 1.46608e-10 
89 1 0.0679428 0.0180148 0.00710977 0.00562388 -0.000458606 0.000226461 1.44934e-11 -4.63084e-11 -8.54451e-12 5e-05 1.46608e-10 
90 1 0.0680297 0.0171833 0.00729614 0.00588795 -0.00038057 0.000100249 -7.81741e-11 6.04732e-11 -3.71028e-11 5e-05 1.46608e-10 
91 1 0.0616809 0.0168752 0.00751935 0.006128 -3.46288e-05 0.000174427 -2.35256e-11 -2.77686e-10 2.47337e-10 5e-05 1.46608e-10 
92 1 0.0680525 0.017688 0.00711844 0.00568796 -0.000437498 0.000236795 2.19194e-11 -5.2528e-11 2.79269e-11 5e-05 1.46608e-10 
93 1 0.0680381 0.0180464 0.00711309 0.00562461 -0.000448063 0.000226543 5.47631e-11 -2.5051e-11 4.91229e-12 5e-05 1.46608e-10 
94 1 0.0681141 0.0179816 0.00711693 0.00563313 -0.000439193 0.000226504 3.64045e-11 -9.71046e-11 4.02557e-12 5e-05 1.46608e-10 
95 1 0.0679017 0.0178191 0.00711077 0.00564636 -0.000449293 0.000227165 1.99779e-12 -5.098e-11 3.42708e-12 5e-05 1.46608e-10 
96 1 0.068073 0.0177859 0.00711793 0.0056711 -0.000443107 0.000228971 7.29643e-11 -8.18204e-11 2.23437e-12 5e-05 1.46608e-10 
97 1 0.0615527 0.0164221 0.00789034 0.00593568 -0.000431196 -0.000454593 -6.90489e-11 -1.72165e-11 -1.6498e-10 5e-05 1.46608e-10 
98 1 0.0680043 0.0183085 0.00710827 0.00559442 -0.000441902 0.000225208 -2.33649e-11 9.6837e-11 -7.5857e-12 5e-05 1.46608e-10 
99 1 0.0617115 0.0166653 0.00767544 0.00608416 -5.31129e-06 0.00016235 -2.78305e-11 -1.43921e-10 2.6167e-11 5e-05 1.46608e-10 
100 1 0.0679883 0.0170237 0.00740932 0.00608878 -0.000415134 0.000118832 8.49528e-11 1.09716e-11 -4.72251e-12 5e-05 1.46608e-10 
101 1 0.0616485 0.0164417 0.00786476 0.00595037 -0.000198086 -0.000103044 1.14479e-10 4.0873e-11 7.56465e-11 5e-05 1.46608e-10 
102 1 0.0643568 0.0187248 0.00531097 4.28418e-15 1.04939e-14 8.29597e-14 -2.37617e-21 8.5378e-22 7.65142e-24 5e-05 1.46608e-10 
103 1 0.24257 0.0191927 0.00520306 3.61636e-22 4.89458e-22 -5.81428e-22 0 -2.58494e-26 0 5e-05 1.46608e-10 
104 1 0.0619656 0.0173474 0.00721828 0.0057488 6.22491e-05 9.67764e-05 8.01916e-11 -2.41275e-10 1.349e-10 5e-05 1.46608e-10 
105 1 0.0615133 0.0162889 0.00803373 0.0058587 -0.000323298 -0.000381265 1.65094e-10 1.62588e-10 -2.12335e-10 5e-05 1.46608e-10 
106 1 0.0620447 0.0172832 0.00722691 0.00581285 0.000108373 7.03047e-05 4.68807e-10 -3.47593e-10 1.62878e-10 5e-05 1.46608e-10 
107 1 0.0614699 0.0161396 0.00815881 0.00578077 -0.000311836 -0.000395968 -3.40424e-10 4.87998e-11 7.60826e-12 5e-05 1.46608e-10 
108 1 0.06773 0.0167345 0.00761961 0.00597309 -0.000543384 0.000212063 -1.17113e-10 -1.18579e-10 8.05195e-11 5e-05 1.46608e-10 
109 1 0.0678196 0.0174289 0.00712976 0.00564097 -0.000546598 0.000223861 -2.04015e-11 3.87047e-11 -9.79361e-12 5e-05 1.46608e-10 
110 1 0.0681681 0.0178171 0.00712124 0.00566882 -0.000418852 0.0002282 2.16215e-10 -3.7008e-11 7.38333e-12 5e-05 1.46608e-10 
111 1 0.0680449 0.0185043 0.00710725 0.00541144 -0.00039572 0.000217808 -8.8851e-11 1.0215e-10 -9.51967e-12 5e-05 1.46608e-10 
112 1 0.0615735 0.0164939 0.00782395 0.00597741 -0.000356233 -0.000358693 -8.22168e-11 -5.91438e-11 -2.16535e-10 5e-05 1.46608e-10 
113 1 0.062352 0.0178181 0.00714016 0.00568541 1.41417e-05 -0.000210584 1.45223e-10 8.2338e-11 8.81939e-12 5e-05 1.46608e-10 
114 1 0.0619183 0.0170888 0.00736743 0.00634901 8.44413e-05 0.00010026 -1.25309e-10 -6.53179e-11 5.87536e-11 5e-05 1.46608e-10 
115 1 0.0678788 0.0172928 0.00722364 0.00578176 -0.000474399 0.00016926 -1.60118e-10 5.3779e-11 -6.32956e-11 5e-05 1.46608e-10 
116 1 0.0677086 0.0166548 0.00767613 0.00596628 -0.000537519 0.000208208 -1.16895e-10 -1.76687e-10 1.29176e-10 5e-05 1.46608e-10 
117 1 0.067559 0.0160971 0.00807175 0.00576714 -0.000462856 0.000161488 -3.49902e-10 6.60805e-11 -3.85566e-11 5e-05 1.46608e-10 
118 1 0.0614075 0.0159269 0.00836096 0.00567838 -0.000331428 -0.000363337 6.30283e-12 -1.30262e-10 1.11054e-10 5e-05 1.46608e-10 
119 1 0.0678696 0.0169188 0.00748634 0.00618471 -0.00048918 0.000167424 2.11369e-10 -2.44421e-11 1.37965e-11 5e-05 1.46608e-10 
120 1 0.0674243 0.0159121 0.00820533 0.00548942 -0.000396691 0.000123447 4.86557e-11 1.44617e-10 -1.07288e-10 5e-05 1.46608e-10 
121 1 0.0673853 0.0157521 0.00831875 0.00551628 -0.000413477 0.000133963 4.85942e-11 2.22895e-10 -1.50721e-10 5e-05 1.46608e-10 
122 1 0.0681886 0.017915 0.00712074 0.0056409 -0.000420938 0.000226743 2.91914e-10 -2.4332e-11 9.40125e-12 5e-05 1.46608e-10 
123 1 0.0615861 0.0162272 0.00806492 0.00583988 -0.000377658 -0.000341314 -1.31095e-10 5.91512e-11 -2.92438e-11 5e-05 1.46608e-10 
124 1 0.0679968 0.0178505 0.00711408 0.00565166 -0.000454697 0.000227862 1.79878e-11 -1.1935e-10 1.35619e-12 5e-05 1.46608e-10 
125 1 0.0675387 0.0160172 0.00812838 0.0056156 -0.00043179 0.000144004 -1.87604e-10 6.50632e-11 -3.88316e-11 5e-05 1.46608e-10 
126 1 0.067784 0.0172682 0.00724358 0.00579077 -0.000498317 0.000185694 -1.71594e-10 1.43004e-10 -7.77096e-11 5e-05 1.46608e-10 
127 1 0.0615319 0.0163512 0.00795771 0.00589694 -0.000361408 -0.000383315 4.50435e-11 1.71599e-10 -4.993e-11 5e-05 1.46608e-10 
128 1 0.0678812 0.0177212 0.00711127 0.00566365 -0.000432674 0.00022774 -1.41406e-11 -5.51755e-11 5.47147e-13 5e-05 1.46608e-10 
129 1 0.0679633 0.0181127 0.00710927 0.00561473 -0.000454619 0.000226027 3.73895e-11 1.07318e-11 -7.69408e-14 5e-05 1.46608e-10 
130 1 0.0618409 0.0171387 0.0073285 0.00625527 -2.60123e-05 0.000178658 -7.69196e-11 -1.34827e-10 1.09318e-10 5e-05 1.46608e-10 
131 1 0.0616904 0.0165864 0.00773322 0.00606878 9.48654e-07 0.000160047 3.63284e-11 -1.08931e-10 -1.60877e-11 5e-05 1.46608e-10 
132 1 0.0679763 0.0177526 0.00711458 0.00566361 -0.000431829 0.000227331 7.53506e-11 -5.90784e-11 -1.00297e-11 5e-05 1.46608e-10 
133 1 0.0677189 0.0163603 0.0078825 0.00588341 -0.00051557 0.000195128 -3.32444e-11 5.25833e-11 -3.38985e-11 5e-05 1.46608e-10 
134 1 0.067891 0.0169984 0.00742983 0.00617686 -0.000487442 0.000167113 3.20673e-10 -1.71566e-11 -1.24085e-11 5e-05 1.46608e-10 
135 1 0.067519 0.0159372 0.00818507 0.00549909 -0.000414442 0.000135225 -1.78696e-11 9.68869e-11 -6.03237e-11 5e-05 1.46608e-10 
136 1 0.0615232 0.0160146 0.00826702 0.00570404 -0.000356897 -0.000343049 -1.02569e-11 9.55747e-11 -7.65863e-11 5e-05 1.46608e-10 
137 1 0.0680651 0.0186022 0.00710673 0.00534363 -0.000377757 0.000213273 -1.29708e-10 9.71392e-11 -1.34691e-11 5e-05 1.46608e-10 
138 1 0.0676658 0.0164955 0.00778915 0.00591361 -0.000514755 0.000194031 -8.65684e-11 -6.60892e-11 4.97871e-11 5e-05 1.46608e-10 
140 1 0.0682091 0.0180129 0.00712024 0.0056298 -0.000423618 0.000226426 2.13275e-10 7.05417e-12 1.1402e-11 5e-05 1.46608e-10 
141 1 0.0615652 0.0161563 0.0081323 0.00578914 -0.000369681 -0.000341812 -1.14346e-10 7.44816e-11 -5.767e-11 5e-05 1.46608e-10 
142 1 0.0619376 0.0171703 0.00731285 0.00591883 6.62673e-05 0.000123616 9.1663e-11 -4.92355e-10 3.01333e-10 5e-05 1.46608e-10 
143 1 0.0614906 0.0162105 0.00809143 0.00583426 -0.000313561 -0.000394406 -1.36132e-10 2.2308e-10 -4.04221e-11 5e-05 1.46608e-10 
144 1 0.0618967 0.01701 0.00742516 0.00634112 0.000109542 8.12734e-05 2.49726e-11 -1.0548e-10 6.08815e-11 5e-05 1.46608e-10 
146 1 0.061745 0.0164587 0.00783422 0.00598175 -0.000377245 -0.00035689 4.95698e-11 -4.96799e-11 3.83864e-11 5e-05 1.46608e-10 
147 1 0.0615026 0.0159436 0.00833441 0.00568079 -0.000358011 -0.000339226 -1.53413e-10 1.60374e-10 -1.28389e-10 5e-05 1.46608e-10 
148 1 0.0618019 0.0173489 0.007172 0.0057371 -1.76491e-05 0.000170464 2.92483e-11 6.57016e-11 4.89403e-11 5e-05 1.46608e-10 
149 1 0.0681346 0.0180795 0.00711643 0.00562249 -0.000433948 0.000226186 5.01972e-11 -9.36983e-11 1.21697e-12 5e-05 1.46608e-10 
150 1 0.0617874 0.0166139 0.00771542 0.00608697 -4.62366e-06 0.000161292 7.66772e-11 -1.11623e-10 1.15997e-10 5e-05 1.46608e-10 
151 1 0.0621353 0.0173184 0.00720321 0.00578373 0.000150804 4.0603e-05 6.30251e-10 -5.68841e-10 4.26258e-10 5e-05 1.46608e-10 
153 1 0.0616275 0.0163696 0.00793072 0.00591888 -0.000326828 -0.000258909 1.1954e-12 -2.34429e-11 -4.95903e-11 5e-05 1.46608e-10 
154 1 0.0618951 0.0173791 0.00715204 0.00573019 -2.97458e-05 0.000175237 2.05275e-10 2.60381e-10 -6.71978e-11 5e-05 1.46608e-10 
155 1 0.0619789 0.0177708 0.00715157 0.00572473 4.00532e-05 -0.000203655 4.01115e-10 6.22014e-10 1.85518e-10 5e-05 1.46608e-10 
156 1 0.0618792 0.0172973 0.00721215 0.0057815 2.67329e-06 0.000140712 2.00645e-10 -3.69659e-10 5.66699e-11 5e-05 1.46608e-10 
157 1 0.0219312 0.0187687 0.00551176 -3.82835e-14 8.16874e-14 2.95888e-13 1.03113e-22 6.63295e-23 8.89219e-24 5e-05 1.46608e-10 
158 1 0.0619917 0.0174405 0.00719275 0.0056128 9.65069e-05 6.44174e-05 -3.30834e-10 -1.00674e-10 -3.8947e-11 5e-05 1.46608e-10 
159 1 0.068032 0.0175901 0.00711897 0.00570685 -0.00043084 0.000236093 -2.58026e-12 -2.82117e-11 4.55143e-11 5e-05 1.46608e-10 
160 1 0.061884 0.0177395 0.00715347 0.00572214 2.93057e-05 -0.000177906 6.54675e-11 6.08931e-10 1.82602e-10 5e-05 1.46608e-10 
162 1 0.0619144 0.0174763 0.00713859 0.00562245 -8.03514e-05 -0.000208561 -2.01635e-10 2.61052e-10 5.02416e-11 5e-05 1.46608e-10 
164 1 0.0621479 0.0181153 0.00716327 0.00581279 9.73885e-05 -0.000211493 4.1176e-11 4.7999e-11 -2.03265e-11 5e-05 1.46608e-10 
165 1 0.0622138 0.0175885 0.00713331 0.00569384 0.000144924 -0.000203061 3.14254e-10 -5.62983e-11 -7.40208e-11 5e-05 1.46608e-10 
166 1 0.0676758 0.0162007 0.00799574 0.00583535 -0.000504865 0.000189078 7.07372e-11 1.02243e-10 -7.16111e-11 5e-05 1.46608e-10 
167 1 0.0617663 0.016535 0.0077732 0.00608685 -2.01287e-06 0.000158089 7.40104e-11 -9.38648e-11 6.20624e-11 5e-05 1.46608e-10 
168 1 0.0620503 0.0173635 0.00716762 0.005718 0.000127594 5.75749e-05 -7.89941e-11 -1.74883e-11 -5.25932e-11 5e-05 1.46608e-10 
169 1 0.0622774 0.0178845 0.0071464 0.00569495 4.09659e-05 -0.000210187 4.93305e-10 1.304e-10 -1.76784e-11 5e-05 1.46608e-10 
170 1 0.0621187 0.0175575 0.00713523 0.00571912 5.76954e-05 -0.000207136 2.65832e-10 9.9266e-11 -4.85382e-11 5e-05 1.46608e-10 
171 1 0.0676973 0.0162804 0.00793917 0.00584862 -0.000517259 0.000197384 -4.2031e-13 1.02983e-10 -7.02968e-11 5e-05 1.46608e-10 
172 1 0.062192 0.0174898 0.00712896 0.00572704 6.00702e-05 -0.000202088 5.71199e-10 1.09779e-10 -2.59501e-11 5e-05 1.46608e-10 
173 1 0.0681631 0.0173685 0.00716247 0.00576041 -0.000463274 0.000170116 -9.25777e-11 -5.54392e-11 9.53237e-11 5e-05 1.46608e-10 
174 1 0.0620467 0.0176261 0.00714597 0.0056939 4.28987e-05 -0.000186679 5.42159e-11 1.01167e-10 -2.7464e-11 5e-05 1.46608e-10 
175 1 0.0557903 0.0172903 0.00722412 0.00544285 -0.000497214 -0.000132527 -3.45118e-10 2.09958e-10 -2.11677e-11 5e-05 1.46608e-10 
176 1 0.0618605 0.0172179 0.00727043 0.00587544 2.03966e-05 0.000141664 -1.34166e-10 -4.0212e-10 4.0309e-10 5e-05 1.46608e-10 
177 1 0.0619248 0.0179351 0.00716216 0.00567679 7.633e-05 -0.000212038 4.58935e-10 9.46635e-10 -1.76713e-11 5e-05 1.46608e-10 
178 1 0.0623314 0.01772 0.0071358 0.00566126 0.000163928 -0.00020399 6.94282e-12 -8.30705e-10 -6.58599e-11 5e-05 1.46608e-10 
179 1 0.0622571 0.0177866 0.00714205 0.00566537 8.52334e-05 -0.000206187 -3.75818e-11 6.44753e-10 5.87475e-11 5e-05 1.46608e-10 
181 1 0.061843 0.017544 0.00715647 0.00574061 4.86906e-06 -3.34514e-06 1.79773e-11 3.69598e-10 5.57579e-11 5e-05 1.46608e-10 
182 1 0.0676443 0.0164158 0.00784567 0.0058916 -0.000503132 0.000186434 -4.71873e-11 -5.87411e-11 4.20873e-11 5e-05 1.46608e-10 
183 1 0.0620789 0.0174521 0.00713129 0.00571352 4.97378e-05 -0.000110092 -3.87911e-10 5.51124e-11 -1.5679e-10 5e-05 1.46608e-10 
184 1 0.0679714 0.0176008 0.00719781 0.0057015 -0.000445041 0.000228077 3.74119e-11 -3.38405e-11 6.09237e-11 5e-05 1.46608e-10 
185 1 0.0617849 0.0172719 0.00723344 0.00580375 -3.50428e-05 0.000182612 1.03585e-10 -8.2574e-11 5.67811e-11 5e-05 1.46608e-10 
186 1 0.0618224 0.0174465 0.00716553 0.00573151 -3.99841e-06 0.000111496 -1.39427e-10 1.61893e-10 3.303e-10 5e-05 1.46608e-10 
187 1 0.0679668 0.016944 0.00746585 0.00619001 -0.000486666 0.000166239 2.96282e-10 -3.32419e-11 1.90689e-11 5e-05 1.46608e-10 
188 1 0.0680586 0.0181444 0.00711259 0.00561535 -0.000441378 0.000225988 1.02866e-11 -3.16554e-11 1.33841e-12 5e-05 1.46608e-10 
189 1 0.0680096 0.0171034 0.0073528 0.00600605 -0.000400901 0.000111344 2.05461e-10 -2.03853e-11 5.06849e-12 5e-05 1.46608e-10 
190 1 0.0559027 0.017409 0.00716508 0.00565553 -0.000335166 0.000512242 -4.61797e-10 -3.34696e-11 6.88644e-11 5e-05 1.46608e-10 
191 1 0.0680855 0.0187001 0.00710623 0.00538802 -0.000381588 0.000217265 1.54038e-11 4.31889e-11 9.91692e-12 5e-05 1.46608e-10 
192 1 0.0620192 0.0171225 0.00734513 0.00593406 8.39123e-05 0.000106381 4.72932e-10 -4.33288e-10 3.25664e-10 5e-05 1.46608e-10 
193 1 0.0677832 0.0165993 0.00771296 0.00594995 -0.000551133 0.000218222 -1.1036e-10 -1.20229e-10 8.29799e-11 5e-05 1.46608e-10 
194 1 0.0618315 0.0167713 0.00760007 0.00613441 -1.15473e-05 0.000166964 2.11377e-10 1.56021e-11 -1.5619e-11 5e-05 1.46608e-10 
195 1 0.0622365 0.0176884 0.00713768 0.0056495 0.000185284 -0.00019993 -1.41892e-10 -1.2591e-10 6.94273e-11 5e-05 1.46608e-10 
196 1 0.0613061 0.0155718 0.00869806 0.00541569 -0.000331868 -0.000332376 -2.58074e-11 -1.17223e-10 1.07052e-10 5e-05 1.46608e-10 
197 1 0.0558488 0.0175737 0.00716499 0.00568105 -0.000316884 0.00052308 1.00847e-10 -1.0362e-10 -1.28045e-11 5e-05 1.46608e-10 
198 1 0.0617011 0.0169543 0.00746165 0.00614817 -5.46443e-05 0.000183134 -9.02171e-11 -3.07098e-10 2.33827e-10 5e-05 1.46608e-10 
199 1 0.0619373 0.0175744 0.00714288 0.00570709 7.72103e-05 -0.000171171 9.46228e-11 -2.63613e-10 -2.3161e-10 5e-05 1.46608e-10 
200 1 0.0617981 0.0169803 0.00744461 0.0061616 -5.80705e-05 0.000199951 -8.10552e-11 -3.4145e-10 2.55076e-10 5e-05 1.46608e-10 
201 1 0.0622441 0.0181464 0.00716132 0.00599559 3.4275e-05 -0.000220791 5.62006e-10 -2.40273e-11 -2.53034e-11 5e-05 1.46608e-10 
202 1 0.0620366 0.0172019 0.00728685 0.00587798 8.89185e-05 9.15909e-05 5.99262e-10 -3.58115e-10 4.53632e-10 5e-05 1.46608e-10 
203 1 0.0681833 0.0174596 0.00712661 0.00573381 -0.000438487 0.000225926 -1.26615e-10 -9.42372e-11 -2.31099e-11 5e-05 1.46608e-10 
204 1 0.0617758 0.0169017 0.00750222 0.00613269 -4.52308e-05 0.00019031 -7.78665e-11 -3.45598e-10 2.6372e-10 5e-05 1.46608e-10 
205 1 0.0621079 0.0179196 0.00715454 0.00568927 8.97923e-05 -0.000206773 -2.83005e-11 -6.13228e-10 2.18237e-11 5e-05 1.46608e-10 
206 1 0.0620672 0.0177239 0.00714584 0.00566109 7.01606e-05 -0.000200258 8.30707e-11 3.31407e-11 2.27191e-11 5e-05 1.46608e-10 
207 1 0.0616067 0.0162981 0.00799753 0.00588545 -0.000383934 -0.000338905 -1.81666e-10 1.13897e-11 -1.10644e-10 5e-05 1.46608e-10 
208 1 0.0620246 0.01753 0.00716282 0.00570408 2.86464e-05 -0.000167792 -1.06968e-10 -4.89814e-11 -1.99469e-10 5e-05 1.46608e-10 
209 1 0.0618094 0.0166926 0.00765776 0.0060897 -1.10386e-05 0.000167417 8.7655e-11 -9.7814e-11 8.21859e-11 5e-05 1.46608e-10 
210 1 0.0678247 0.0173517 0.007284 0.00559879 -0.000414802 0.000148038 4.46392e-13 -2.76025e-10 -2.38322e-12 5e-05 1.46608e-10 
211 1 0.0680936 0.0178837 0.00711743 0.00564842 -0.000440535 0.000227931 8.80722e-11 -9.13141e-11 -2.07224e-12 5e-05 1.46608e-10 
212 1 0.0621415 0.0176573 0.00713959 0.00567416 0.000112921 -0.000198951 -2.91663e-11 -2.18057e-10 2.92561e-11 5e-05 1.46608e-10 
213 1 0.0679454 0.0168644 0.00752236 0.00618648 -0.000485915 0.000165996 1.9329e-10 -7.20939e-11 3.77277e-11 5e-05 1.46608e-10 
214 1 0.0680174 0.0179484 0.00711358 0.00563371 -0.000451887 0.00022683 1.83121e-11 -1.13578e-10 7.49657e-12 5e-05 1.46608e-10 
215 1 0.0558849 0.0173178 0.00720422 0.00563654 -0.000434928 -0.000123185 1.37345e-10 -9.36974e-10 -3.21216e-10 5e-05 1.46608e-10 
216 1 0.0619044 0.0178373 0.00715781 0.00569945 4.79576e-05 -0.000207637 1.07745e-10 8.70961e-10 1.26992e-10 5e-05 1.46608e-10 
217 1 0.0677403 0.01644 0.00782599 0.0058759 -0.00054187 0.000213756 2.94682e-11 -9.01592e-11 6.30345e-11 5e-05 1.46608e-10 
218 1 0.06202 0.0179669 0.00716028 0.00567641 7.61679e-05 -0.000209166 2.73705e-10 -2.28485e-10 -1.89689e-10 5e-05 1.46608e-10 
219 1 0.0680248 0.0184063 0.00710777 0.0055899 -0.00043567 0.000224589 -2.71456e-11 6.85242e-11 9.82196e-12 5e-05 1.46608e-10 
220 1 0.0618636 0.0176416 0.00715035 0.00572047 1.70289e-05 -0.000106805 -4.32845e-11 5.36237e-10 -8.84215e-11 5e-05 1.46608e-10 
221 1 0.0557815 0.0169119 0.00746672 0.00613751 4.99898e-05 0.00125068 2.65799e-10 3.40414e-10 -4.76756e-10 5e-05 1.46608e-10 
222 1 0.0677617 0.0165196 0.00776947 0.00592118 -0.000547006 0.000216084 -9.83558e-12 -1.14973e-10 8.20448e-11 5e-05 1.46608e-10 
223 1 0.0619552 0.0172535 0.00726021 0.00583962 5.05943e-05 0.000110991 4.06655e-10 -4.23709e-10 2.17458e-10 5e-05 1.46608e-10 
224 1 0.0617653 0.0171915 0.00728969 0.00619853 -9.61182e-05 0.000221569 2.15315e-11 -1.00389e-10 5.56353e-11 5e-05 1.46608e-10 
225 1 0.0681065 0.0175235 0.00712274 0.00574117 -0.000430723 0.000231254 -2.33086e-11 -3.09817e-11 1.82815e-11 5e-05 1.46608e-10 
226 1 0.0621606 0.0173964 0.00714609 0.00571241 0.000139123 7.73812e-06 -5.98648e-10 5.31374e-11 -4.30699e-10 5e-05 1.46608e-10 
227 1 0.0558449 0.0171367 0.00728249 0.00565674 -0.000357422 -0.000156497 -1.46883e-10 -6.68425e-11 -1.12716e-10 5e-05 1.46608e-10 
228 1 0.0558101 0.0173832 0.0071929 0.00560164 -0.000368981 0.000296211 -2.92657e-10 -2.26345e-10 1.21902e-10 5e-05 1.46608e-10 
229 1 0.0618981 0.0174409 0.00723065 0.00584959 0.000257206 -2.51097e-05 5.12234e-10 -4.36354e-11 2.43735e-11 5e-05 1.46608e-10 
230 1 0.0621918 0.0183103 0.00717182 0.00629489 1.66423e-05 -0.000233084 6.01455e-10 -2.03096e-10 -1.30347e-10 5e-05 1.46608e-10 
231 1 0.0557701 0.0171993 0.00726019 0.00548629 -0.000522529 -0.000112031 2.86418e-11 2.85373e-10 -1.21428e-11 5e-05 1.46608e-10 
232 1 0.0617034 0.0163168 0.00796906 0.00591701 -0.000401456 -0.000328714 8.72182e-11 2.68362e-11 -8.61264e-11 5e-05 1.46608e-10 
233 1 0.0618536 0.0168521 0.00754087 0.00618328 1.26165e-05 0.000149454 -1.61033e-11 -2.43106e-10 1.67633e-10 5e-05 1.46608e-10 
234 1 0.0680792 0.0182422 0.00711209 0.00560501 -0.000438201 0.00022556 4.19535e-11 3.28316e-12 3.22837e-13 5e-05 1.46608e-10 
235 1 0.0622386 0.0185054 0.00718027 0.0057906 -5.34315e-06 -0.000215848 -4.8078e-10 2.59886e-10 5.94254e-11 5e-05 1.46608e-10 
236 1 0.0622151 0.0184074 0.00717603 0.00601643 8.8669e-05 -0.000218835 -6.05814e-10 -3.31862e-11 1.65275e-11 5e-05 1.46608e-10 
237 1 0.0622895 0.0183409 0.00716979 0.00614668 2.22463e-05 -0.00022817 -2.72613e-11 2.15312e-10 2.61424e-11 5e-05 1.46608e-10 
239 1 0.0555885 0.0165938 0.00787693 0.00576852 1.51001e-05 0.00120217 -1.39022e-11 -4.08451e-10 2.6144e-10 5e-05 1.46608e-10 
240 1 0.0556471 0.0167691 0.00764068 0.00596666 6.53182e-05 0.00116628 -3.36816e-11 1.04831e-10 -1.57619e-10 5e-05 1.46608e-10 
241 1 0.0555689 0.0165354 0.00795568 0.00572428 -5.87692e-06 0.00122365 5.10561e-11 -1.10767e-10 3.40873e-10 5e-05 1.46608e-10 
242 1 0.0619783 0.0169646 0.00746088 0.00639034 0.000177714 3.36173e-05 1.60958e-10 1.04559e-10 -7.12993e-11 5e-05 1.46608e-10 
243 1 0.0617555 0.0168226 0.00756016 0.00612682 -1.87123e-05 0.000171454 5.95447e-11 -2.19001e-10 1.33762e-10 5e-05 1.46608e-10 
244 1 0.055608 0.0166522 0.00779818 0.00585437 4.94507e-05 0.00118386 -3.26623e-10 -2.69208e-10 1.7914e-10 5e-05 1.46608e-10 
246 1 0.0557276 0.0170307 0.00735881 0.00618637 -0.000118876 0.000862775 1.40526e-11 -7.15944e-10 -1.93508e-09 5e-05 1.46608e-10 