ITEM: TIMESTEP
17600000
ITEM: NUMBER OF ATOMS
287
ITEM: BOX BOUNDS ff ff ff
-0.02 0.43
-0.02 0.06
-0.02 0.07
ITEM: ATOMS id type x y z vx vy vz fx fy fz radius mass 
1 1 0.115397 0.0162443 0.00815433 0.00555798 5.30977e-05 0.000423099 -9.25289e-10 4.83199e-10 -3.32264e-10 5e-05 1.46608e-10 
2 1 0.115866 0.017327 0.0072105 0.00551062 -0.00096405 0.000302284 3.51884e-10 -3.41509e-10 3.59896e-10 5e-05 1.46608e-10 
3 1 0.109272 0.0159797 0.00811549 0.00585555 0.000679415 -7.72711e-05 -1.47758e-10 -7.11084e-11 -7.26302e-11 5e-05 1.46608e-10 
4 1 0.115713 0.017444 0.00714406 0.00545095 -0.000991165 0.000293814 2.45133e-10 -2.64332e-10 1.08282e-10 5e-05 1.46608e-10 
5 1 0.115281 0.0161453 0.00823489 0.00569527 -0.000238099 0.000694078 1.03817e-10 3.47283e-10 -3.12234e-10 5e-05 1.46608e-10 
6 1 0.12141 0.0164819 0.00763416 0.0056873 -0.000221327 -0.000123314 -2.25965e-11 -5.5547e-11 4.01955e-11 5e-05 1.46608e-10 
7 1 0.115466 0.0167984 0.00764683 0.005217 -0.000454894 0.00084097 -7.65225e-11 -5.21142e-10 2.78515e-10 5e-05 1.46608e-10 
8 1 0.115173 0.0157824 0.00856238 0.00578761 -0.000309849 0.000767797 1.17338e-10 4.3411e-10 -4.04874e-10 5e-05 1.46608e-10 
9 1 0.121663 0.0176459 0.00717126 0.0060166 -0.000122495 -0.000231285 3.59016e-11 2.97373e-11 -1.352e-11 5e-05 1.46608e-10 
10 1 0.11541 0.0165792 0.00784347 0.00609778 -0.000607645 0.00107766 1.90274e-09 9.58215e-10 -7.67722e-10 5e-05 1.46608e-10 
11 1 0.115908 0.0175045 0.00713296 0.00561526 -0.0010452 0.000243333 5.75067e-12 -1.5526e-10 -4.78901e-10 5e-05 1.46608e-10 
12 1 0.10947 0.0167981 0.00758011 0.00563173 0.000672793 -5.97551e-06 5.66463e-11 3.13747e-11 -5.30352e-11 5e-05 1.46608e-10 
13 1 0.115259 0.0160724 0.00830064 0.0057556 -7.03578e-05 0.000543153 1.47464e-10 9.58269e-11 -1.22641e-10 5e-05 1.46608e-10 
14 1 0.109197 0.0157102 0.00836926 0.00604185 -0.000197882 -0.000426761 1.54256e-10 6.29815e-11 -4.59414e-10 5e-05 1.46608e-10 
15 1 0.115598 0.0169715 0.00749547 0.00544182 -0.000457764 0.000878962 -2.31447e-10 9.78905e-11 -1.12582e-10 5e-05 1.46608e-10 
16 1 0.109178 0.0156823 0.0084634 0.00616444 -0.000491251 -0.000484552 1.1934e-10 1.41592e-10 -5.39302e-10 5e-05 1.46608e-10 
17 1 0.115388 0.0165067 0.00790886 0.00592866 -0.000579273 0.00104617 1.24604e-09 3.01657e-10 -1.13285e-10 5e-05 1.46608e-10 
18 1 0.121544 0.0170733 0.00730587 0.00565285 -5.7481e-05 -0.00023059 -3.19374e-11 -1.59202e-12 2.12644e-11 5e-05 1.46608e-10 
19 1 0.115238 0.0159999 0.00836607 0.00576408 -0.000124573 0.000596586 -5.23626e-10 2.99347e-10 -3.34503e-10 5e-05 1.46608e-10 
21 1 0.115376 0.016171 0.00821896 0.00564131 3.19825e-05 0.000443398 -1.34985e-09 -2.16689e-10 1.16359e-10 5e-05 1.46608e-10 
22 1 0.115503 0.0169432 0.00751381 0.0053347 -0.000450973 0.000836403 -1.87874e-10 -1.6705e-10 1.208e-10 5e-05 1.46608e-10 
23 1 0.109668 0.017286 0.00739011 0.00598598 0.000438464 -0.000597893 -1.46294e-11 -5.78002e-11 1.67716e-11 5e-05 1.46608e-10 
24 1 0.121602 0.0173598 0.00723856 0.00561827 -4.12374e-05 -0.000232476 1.68531e-11 -2.13748e-12 2.18622e-12 5e-05 1.46608e-10 
25 1 0.115448 0.0167271 0.00771433 0.0051716 -0.000493774 0.000864273 -3.80251e-10 1.77627e-10 -4.42068e-10 5e-05 1.46608e-10 
26 1 0.121487 0.0168011 0.00741203 0.00564721 6.71065e-05 0.000117777 -6.41534e-11 2.29621e-11 -1.87455e-11 5e-05 1.46608e-10 
27 1 0.10955 0.0171668 0.00744127 0.00591817 0.000455155 -0.000598385 9.14761e-12 2.55695e-11 -1.02024e-11 5e-05 1.46608e-10 
28 1 0.115695 0.0173615 0.00719854 0.00546434 -0.000884402 0.000273561 2.33075e-10 -7.00597e-10 3.7473e-10 5e-05 1.46608e-10 
29 1 0.115216 0.0159274 0.00843151 0.00577302 -0.000205509 0.000670433 2.03045e-12 -7.21667e-11 7.88807e-11 5e-05 1.46608e-10 
30 1 0.115751 0.0172225 0.00728502 0.00551973 -0.000944115 0.000284002 3.19919e-10 -3.90002e-10 5.71932e-11 5e-05 1.46608e-10 
31 1 0.115484 0.0168704 0.00757975 0.005295 -0.000445935 0.000844465 6.68343e-11 -4.41809e-10 2.26184e-10 5e-05 1.46608e-10 
32 1 0.115579 0.0168988 0.0075613 0.00531534 -0.000450129 0.000866229 -5.18753e-10 -3.92388e-11 -1.02225e-10 5e-05 1.46608e-10 
33 1 0.121428 0.0165471 0.00756054 0.00560796 6.90622e-05 0.000115172 -1.35662e-11 -1.79173e-11 3.1069e-11 5e-05 1.46608e-10 
34 1 0.115366 0.0164342 0.00797423 0.00557615 -0.000643009 0.0010371 1.91918e-09 -9.44957e-10 3.83556e-10 5e-05 1.46608e-10 
35 1 0.115561 0.0168259 0.00762726 0.00524793 -0.00045873 0.000862046 -1.48946e-10 -2.69719e-11 3.08787e-11 5e-05 1.46608e-10 
36 1 0.121706 0.017836 0.0071264 0.00605062 -0.000126409 -0.000232067 8.12578e-12 4.31613e-11 -1.00562e-11 5e-05 1.46608e-10 
37 1 0.115524 0.0166799 0.00775954 0.00560677 -0.000466703 0.00089453 7.97585e-10 -7.92579e-10 9.52766e-10 5e-05 1.46608e-10 
38 1 0.115693 0.0169994 0.00747753 0.00547309 -0.000430622 0.000859188 -4.18588e-10 -1.05772e-12 1.92359e-11 5e-05 1.46608e-10 
39 1 0.121622 0.0174553 0.00721612 0.00559494 -3.42265e-05 -0.000232865 -1.6594e-11 -2.04497e-11 8.86266e-12 5e-05 1.46608e-10 
41 1 0.115324 0.0162904 0.00810392 0.00558719 -0.000439787 0.000865061 -1.78875e-09 -1.4599e-09 6.32629e-10 5e-05 1.46608e-10 
42 1 0.115522 0.0170177 0.00744995 0.00540166 -0.000570501 0.000714681 -2.8783e-10 1.11012e-10 -1.66497e-10 5e-05 1.46608e-10 
44 1 0.115712 0.0170722 0.00741161 0.00548435 -0.000438208 0.000868036 -5.95157e-11 -2.2467e-10 -2.06241e-10 5e-05 1.46608e-10 
45 1 0.121447 0.0166318 0.00751103 0.00561987 6.69509e-05 0.000117171 2.94147e-11 -1.0327e-11 2.69706e-12 5e-05 1.46608e-10 
46 1 0.121525 0.0169778 0.00732831 0.00565508 -5.98596e-05 -0.000229693 4.17003e-11 1.20037e-11 3.54886e-11 5e-05 1.46608e-10 
47 1 0.115346 0.0163709 0.00804886 0.00489039 -0.000638987 0.000925836 1.24585e-09 1.51565e-10 4.21554e-10 5e-05 1.46608e-10 
48 1 0.11556 0.0171733 0.00733032 0.00543413 -0.000843862 0.000357074 6.23542e-11 4.88041e-11 -1.99867e-10 5e-05 1.46608e-10 
49 1 0.121506 0.0168859 0.00736248 0.00565914 6.73458e-05 0.000117823 -2.07666e-11 5.26143e-14 -5.55964e-12 5e-05 1.46608e-10 
50 1 0.115618 0.0174181 0.00716688 0.00546571 -0.000927271 0.000251734 1.03393e-10 -2.2042e-10 1.72489e-10 5e-05 1.46608e-10 
51 1 0.115599 0.017336 0.0072207 0.00549261 -0.000928749 0.000265111 2.16356e-10 -1.73758e-10 1.09889e-10 5e-05 1.46608e-10 
52 1 0.109451 0.0167193 0.00763853 0.00560776 0.000679425 -4.22822e-06 8.02712e-11 3.18655e-11 1.67234e-10 5e-05 1.46608e-10 
53 1 0.121564 0.0171688 0.00728344 0.00565684 -5.62879e-05 -0.000230768 4.24211e-11 -6.5034e-13 -1.15826e-11 5e-05 1.46608e-10 
54 1 0.115354 0.0160986 0.00828433 0.00576268 -7.19506e-06 0.000483002 3.79029e-10 -3.57574e-10 4.55019e-10 5e-05 1.46608e-10 
55 1 0.109232 0.0158105 0.00820563 0.00591532 0.000694039 3.59595e-06 -8.17388e-11 1.3593e-10 -1.96052e-10 5e-05 1.46608e-10 
56 1 0.115542 0.0167527 0.00769359 0.00522668 -0.000428185 0.000832835 5.30695e-10 -5.54337e-10 6.05772e-10 5e-05 1.46608e-10 
57 1 0.121467 0.0167165 0.00746151 0.0056315 6.6271e-05 0.000118149 6.48634e-12 6.79466e-12 -2.72291e-12 5e-05 1.46608e-10 
59 1 0.115618 0.0167081 0.00774123 0.0052855 -0.000405648 0.000815005 7.06732e-10 9.11871e-11 -3.89442e-11 5e-05 1.46608e-10 
60 1 0.115636 0.016781 0.00767519 0.00520271 -0.000390801 0.000795258 -2.70281e-10 3.36183e-10 -2.83407e-10 5e-05 1.46608e-10 
61 1 0.115302 0.0162179 0.00816936 0.00560013 -0.000487526 0.000917662 1.05535e-10 3.58689e-10 -3.63193e-10 5e-05 1.46608e-10 
62 1 0.115732 0.0171449 0.0073458 0.00543223 -0.000480691 0.000872706 -1.09229e-10 2.90905e-10 5.36173e-10 5e-05 1.46608e-10 
63 1 0.115656 0.0171995 0.00730963 0.00545292 -0.000724777 0.000518138 -2.2293e-10 3.33631e-11 9.51444e-11 5e-05 1.46608e-10 
64 1 0.121583 0.0172643 0.007261 0.00563362 -4.8273e-05 -0.000231285 2.61611e-11 -3.55005e-12 -4.3694e-12 5e-05 1.46608e-10 
65 1 0.109585 0.0169192 0.00752706 0.00563542 0.000538058 -0.000604085 7.54985e-11 2.6097e-11 8.60971e-12 5e-05 1.46608e-10 
66 1 0.109526 0.016663 0.00767248 0.00561052 0.000663402 -3.78454e-06 -1.32534e-11 -7.96697e-11 1.1769e-12 5e-05 1.46608e-10 
67 1 0.115887 0.0174104 0.00715967 0.00557001 -0.00103543 0.000218976 -2.74329e-11 -1.63189e-10 1.58628e-10 5e-05 1.46608e-10 
68 1 0.115789 0.0173872 0.00717613 0.00535621 -0.0010802 0.000368859 1.84049e-10 -1.99573e-10 5.14354e-11 5e-05 1.46608e-10 
69 1 0.115463 0.016461 0.00795744 0.00620424 -0.000213047 0.000730406 6.11165e-10 4.50951e-12 3.96285e-10 5e-05 1.46608e-10 
70 1 0.121641 0.0175508 0.00719368 0.0055957 -3.05681e-05 -0.000233958 -9.63358e-11 1.81696e-11 4.33325e-12 5e-05 1.46608e-10 
71 1 0.109214 0.0157417 0.00827588 0.00588815 0.000429714 -0.00025012 1.07425e-11 -7.66958e-12 -4.56977e-10 5e-05 1.46608e-10 
72 1 0.11577 0.0173046 0.00723071 0.00547169 -0.000884047 0.000258345 2.94052e-10 -1.12896e-09 4.19301e-10 5e-05 1.46608e-10 
73 1 0.115429 0.016652 0.00777754 0.0053045 -0.000530068 0.000940574 5.32972e-10 3.69993e-10 -3.64063e-10 5e-05 1.46608e-10 
74 1 0.115617 0.0170443 0.00742954 0.00548665 -0.000448293 0.000879607 5.23358e-11 1.79851e-10 -8.77846e-11 5e-05 1.46608e-10 
76 1 0.109795 0.0178354 0.00718478 0.0061235 0.000351759 -0.000577568 2.12843e-11 3.5903e-11 -2.85104e-11 5e-05 1.46608e-10 
77 1 0.115741 0.0179925 0.00713435 0.00584741 -0.000951065 0.000517709 -6.04903e-11 1.86494e-10 3.51752e-11 5e-05 1.46608e-10 
78 1 0.109292 0.0160539 0.00805163 0.00591317 0.000697194 -5.10333e-06 -6.81434e-11 -1.62312e-10 1.74909e-11 5e-05 1.46608e-10 
79 1 0.10949 0.0168922 0.00754628 0.00565667 0.000545165 -0.000550063 -2.71555e-11 8.22573e-12 -4.75443e-10 5e-05 1.46608e-10 
80 1 0.11566 0.0176059 0.0071206 0.00559957 -0.000947568 0.000242591 7.88856e-11 -1.3677e-10 1.31568e-10 5e-05 1.46608e-10 
81 1 0.109431 0.0166329 0.00768487 0.00557801 0.000693144 -2.56253e-05 -7.3748e-12 -1.33935e-10 2.15252e-10 5e-05 1.46608e-10 
82 1 0.109572 0.0172583 0.00740705 0.00594753 0.000460659 -0.000602565 -1.52357e-11 -6.39939e-11 2.17569e-11 5e-05 1.46608e-10 
83 1 0.109621 0.0166932 0.00766002 0.00562382 0.000682689 -2.75577e-05 1.07298e-10 -8.86612e-11 1.20225e-10 5e-05 1.46608e-10 
84 1 0.121684 0.0177409 0.00714883 0.00603286 -0.000123437 -0.000232151 -1.72135e-11 1.88286e-11 9.77794e-13 5e-05 1.46608e-10 
85 1 0.109404 0.0161668 0.00798654 0.00588937 0.00064702 2.34175e-05 -2.89699e-10 6.88312e-11 8.55741e-11 5e-05 1.46608e-10 
86 1 0.115675 0.0172795 0.00725271 0.00550813 -0.00092184 0.000265885 2.56158e-10 -1.99606e-10 6.84564e-11 5e-05 1.46608e-10 
87 1 0.115599 0.0166353 0.00780715 0.00541214 -0.000433874 0.000851054 1.14375e-10 -4.63196e-12 3.75182e-11 5e-05 1.46608e-10 
88 1 0.115678 0.0177015 0.0070977 0.00581535 -0.000963879 0.000297907 -1.64169e-11 -5.76254e-11 -5.92782e-11 5e-05 1.46608e-10 
89 1 0.115724 0.0177504 0.00719217 0.00586264 -0.00100781 0.000336106 -2.14341e-10 -8.74335e-11 -1.53456e-10 5e-05 1.46608e-10 
90 1 0.115846 0.0172475 0.00726786 0.00546702 -0.000708228 0.000629692 2.50227e-10 -4.05937e-10 1.09133e-10 5e-05 1.46608e-10 
91 1 0.10951 0.0169832 0.00750973 0.00563472 0.000525522 -0.000604207 -1.7068e-11 -5.25773e-11 -7.47068e-11 5e-05 1.46608e-10 
92 1 0.115847 0.017666 0.0071182 0.00576383 -0.00103765 0.000294411 1.8837e-10 1.70714e-10 1.52798e-10 5e-05 1.46608e-10 
93 1 0.115774 0.017733 0.00710715 0.00584229 -0.000979525 0.000308674 1.46717e-10 1.95468e-10 -4.935e-11 5e-05 1.46608e-10 
94 1 0.115911 0.0179564 0.00714864 0.00576168 -0.0010695 0.0005338 -4.18997e-10 1.001e-10 1.69987e-12 5e-05 1.46608e-10 
95 1 0.115821 0.0177241 0.00719508 0.00572379 -0.00111514 0.000340788 1.23851e-10 3.02804e-10 -7.3026e-11 5e-05 1.46608e-10 
96 1 0.11587 0.0177635 0.00711652 0.0057906 -0.00107238 0.000289618 -1.10537e-10 2.38357e-10 9.97826e-11 5e-05 1.46608e-10 
97 1 0.109393 0.016467 0.00779002 0.00562454 0.000661962 8.6245e-06 -6.84206e-10 2.42386e-10 -1.27594e-10 5e-05 1.46608e-10 
98 1 0.115699 0.0177988 0.00710849 0.00590007 -0.000964135 0.000335909 9.64304e-11 1.45106e-10 -2.4264e-10 5e-05 1.46608e-10 
99 1 0.109565 0.0168288 0.00756733 0.00563541 0.000671914 -2.74496e-06 -4.35253e-11 2.01511e-10 -1.61551e-10 5e-05 1.46608e-10 
100 1 0.115809 0.0170984 0.00739582 0.00549084 -0.000491967 0.000900118 -3.70815e-10 -1.85638e-10 -4.6677e-12 5e-05 1.46608e-10 
101 1 0.109507 0.0165802 0.00772495 0.00563711 0.000660067 2.07625e-06 -1.81823e-11 -1.76012e-11 -2.58931e-11 5e-05 1.46608e-10 
102 1 0.0643568 0.0187248 0.00531097 4.43416e-15 1.04338e-14 8.29595e-14 -2.04705e-21 3.66958e-22 4.63221e-23 5e-05 1.46608e-10 
103 1 0.24257 0.0191927 0.00520306 -5.71162e-23 -6.56601e-22 8.29106e-22 0 0 0 5e-05 1.46608e-10 
104 1 0.109869 0.0177707 0.00720237 0.00612151 0.00034523 -0.000576345 7.02172e-11 6.645e-11 -1.76209e-11 5e-05 1.46608e-10 
105 1 0.109354 0.0163179 0.00791722 0.00560045 0.000289918 -0.000399851 8.90704e-11 7.77958e-10 9.87847e-10 5e-05 1.46608e-10 
106 1 0.109943 0.0177059 0.00722003 0.00611181 0.000327192 -0.00056774 7.33419e-11 1.50986e-11 -2.08086e-11 5e-05 1.46608e-10 
107 1 0.109312 0.0161473 0.00802209 0.00587868 0.00066758 -4.53129e-05 -3.43717e-11 -7.51171e-11 7.66067e-10 5e-05 1.46608e-10 
108 1 0.115504 0.0166072 0.00782536 0.00618785 -0.000558862 0.00103569 3.34073e-09 -1.2138e-09 1.5123e-09 5e-05 1.46608e-10 
109 1 0.11558 0.0172545 0.00727524 0.0054732 -0.00092702 0.000260149 1.05575e-10 -8.01835e-11 -7.04107e-11 5e-05 1.46608e-10 
110 1 0.115824 0.0183779 0.00720104 0.00567383 -0.000963787 0.000566216 4.98047e-11 1.58106e-10 4.00914e-11 5e-05 1.46608e-10 
111 1 0.115858 0.0181195 0.00716571 0.00572257 -0.000967996 0.000571545 -4.46355e-10 1.80387e-10 -4.71824e-11 5e-05 1.46608e-10 
112 1 0.109412 0.01655 0.0077374 0.00556365 0.00070536 -3.47278e-05 1.11372e-11 1.31325e-10 -9.02151e-11 5e-05 1.46608e-10 
113 1 0.110281 0.018428 0.00693752 0.00605559 0.000703503 -0.000697127 -2.66505e-11 -6.82432e-11 2.62174e-11 5e-05 1.46608e-10 
114 1 0.109805 0.0174961 0.00730502 0.00609271 0.000379079 -0.000584157 -1.08119e-10 -1.32094e-11 1.92979e-11 5e-05 1.46608e-10 
115 1 0.115636 0.0171199 0.00736695 0.00544949 -0.000635765 0.000679413 -1.94827e-10 -8.59236e-11 2.17995e-10 5e-05 1.46608e-10 
116 1 0.115485 0.0165343 0.00789129 0.00602899 -0.000597967 0.00105893 8.80149e-10 -2.01451e-10 4.91219e-10 5e-05 1.46608e-10 
117 1 0.115333 0.016026 0.00834978 0.00576489 -2.91791e-05 0.000506262 -4.16993e-10 3.01584e-10 -3.00453e-10 5e-05 1.46608e-10 
118 1 0.109254 0.0159041 0.00817862 0.00575315 0.000693298 -0.000118297 -3.75114e-10 5.26618e-11 -2.94607e-10 5e-05 1.46608e-10 
119 1 0.115655 0.0168538 0.00760927 0.00527741 -0.000405103 0.000813401 -1.18402e-10 1.36337e-10 -1.78603e-10 5e-05 1.46608e-10 
120 1 0.115195 0.0158549 0.00849694 0.00576953 -0.000259868 0.00071971 -1.51151e-10 -4.12848e-11 3.18115e-11 5e-05 1.46608e-10 
121 1 0.115152 0.0157099 0.00862781 0.00579006 -0.000360562 0.000816303 1.2883e-10 3.62641e-10 -3.19545e-10 5e-05 1.46608e-10 
122 1 0.115804 0.0182817 0.00718369 0.00570887 -0.000966238 0.000570355 6.44164e-11 2.48288e-10 4.81528e-11 5e-05 1.46608e-10 
123 1 0.109447 0.0163318 0.00788225 0.0056881 0.000662524 -3.07743e-06 7.84487e-11 7.43188e-11 4.79951e-11 5e-05 1.46608e-10 
124 1 0.115753 0.0176348 0.00709633 0.00571106 -0.00110314 0.000278267 1.01715e-10 -1.28962e-10 -1.40259e-10 5e-05 1.46608e-10 
125 1 0.115311 0.0159535 0.00841521 0.00568862 -5.85901e-05 0.000527788 3.7159e-10 9.29446e-11 -4.55839e-11 5e-05 1.46608e-10 
126 1 0.115541 0.017094 0.00738807 0.00545695 -0.000741523 0.000529129 3.6611e-11 2.5368e-11 -3.61937e-10 5e-05 1.46608e-10 
127 1 0.109373 0.0163949 0.00785663 0.00564158 0.000499607 -0.000120946 -3.46411e-10 5.06473e-10 8.22899e-11 5e-05 1.46608e-10 
128 1 0.115638 0.0175088 0.00712967 0.00548626 -0.00094899 0.000208536 1.47435e-10 -2.3343e-10 1.87216e-10 5e-05 1.46608e-10 
129 1 0.11584 0.0178214 0.00720732 0.00563522 -0.00110746 0.000448817 -6.59078e-11 1.88338e-10 4.2337e-10 5e-05 1.46608e-10 
130 1 0.109689 0.0173776 0.00735587 0.00601411 0.000396103 -0.000584739 -6.93922e-11 2.93491e-10 -9.611e-11 5e-05 1.46608e-10 
131 1 0.109546 0.0167459 0.00761993 0.00562309 0.00066477 -4.98514e-06 4.79123e-11 -6.02357e-11 9.13767e-11 5e-05 1.46608e-10 
132 1 0.115723 0.0175367 0.00708493 0.00552748 -0.00101326 0.0002683 6.60011e-11 -1.93106e-10 3.68096e-11 5e-05 1.46608e-10 
133 1 0.115516 0.016342 0.0080721 0.00581102 -0.000193065 0.000651972 1.83488e-10 -5.40371e-10 1.2956e-10 5e-05 1.46608e-10 
134 1 0.115674 0.0169266 0.00754336 0.00536646 -0.000421941 0.000829366 -3.14259e-10 3.69325e-12 -2.54835e-11 5e-05 1.46608e-10 
135 1 0.11529 0.015881 0.00848065 0.00566862 -9.80865e-05 0.000562023 -5.86088e-10 7.21629e-10 -7.21829e-10 5e-05 1.46608e-10 
136 1 0.109398 0.016083 0.00804072 0.00593244 0.000654645 2.52099e-05 -3.98919e-10 -7.89139e-11 4.84427e-11 5e-05 1.46608e-10 
137 1 0.115762 0.0180892 0.007149 0.00579481 -0.000956278 0.000571726 -1.62608e-10 4.84545e-11 1.21965e-10 5e-05 1.46608e-10 
138 1 0.115442 0.0163893 0.00802403 0.00605046 -7.29754e-05 0.00061691 -1.18473e-09 6.4724e-10 -2.29836e-10 5e-05 1.46608e-10 
140 1 0.115879 0.0182159 0.00718309 0.00562671 -0.00102494 0.000549077 1.87343e-10 2.64427e-10 7.40016e-11 5e-05 1.46608e-10 
141 1 0.109425 0.0162494 0.00793431 0.00581747 0.000646646 1.32935e-05 -1.46715e-10 9.81727e-11 3.85112e-11 5e-05 1.46608e-10 
142 1 0.109826 0.0175876 0.0072708 0.00609784 0.000370855 -0.000581382 1.26003e-10 2.09482e-11 -3.66117e-11 5e-05 1.46608e-10 
143 1 0.109334 0.016237 0.00797344 0.00584981 0.000596806 4.18749e-05 -1.26007e-10 1.52094e-10 5.655e-11 5e-05 1.46608e-10 
144 1 0.109784 0.0174045 0.00733923 0.00606145 0.000387864 -0.000585285 -2.20844e-10 -5.8358e-11 1.85027e-11 5e-05 1.46608e-10 
146 1 0.10964 0.0167762 0.00760766 0.00561924 0.000689431 -2.95773e-05 1.07983e-11 -9.86173e-11 1.12254e-10 5e-05 1.46608e-10 
147 1 0.109368 0.0160019 0.00809127 0.00590359 0.00066443 1.61255e-05 -2.62367e-10 -1.41921e-10 5.25586e-11 5e-05 1.46608e-10 
148 1 0.109635 0.0175334 0.00730423 0.00601 0.000356395 -0.00056978 9.99245e-11 3.25394e-10 -1.15153e-10 5e-05 1.46608e-10 
149 1 0.115837 0.0180233 0.00714836 0.00580783 -0.000998258 0.000586428 -3.88874e-10 2.09526e-10 -1.17908e-10 5e-05 1.46608e-10 
150 1 0.10968 0.0169483 0.00751487 0.00563955 0.000645772 -0.000184534 1.28316e-10 -2.98666e-10 -1.56387e-10 5e-05 1.46608e-10 
151 1 0.110059 0.0178239 0.00716936 0.00612916 0.000282663 -0.000552379 1.57668e-10 -7.40748e-11 1.51063e-11 5e-05 1.46608e-10 
153 1 0.109487 0.0164973 0.00777746 0.00566343 0.000661954 4.05343e-07 -5.17977e-10 3.41028e-10 -2.53798e-10 5e-05 1.46608e-10 
154 1 0.109752 0.0176523 0.00725321 0.00609749 0.000368798 -0.000581528 1.09523e-11 6.9981e-11 -2.3076e-11 5e-05 1.46608e-10 
155 1 0.109816 0.0179269 0.00715057 0.00615254 0.000344889 -0.000575999 3.02019e-11 3.39778e-12 -7.81046e-13 5e-05 1.46608e-10 
156 1 0.109731 0.0175607 0.00728743 0.00607051 0.000362994 -0.000576644 6.41283e-11 1.11174e-10 -3.93392e-11 5e-05 1.46608e-10 
157 1 0.0219312 0.0187687 0.00551176 -3.8357e-14 8.16594e-14 2.95887e-13 4.41068e-22 1.64712e-22 1.07533e-23 5e-05 1.46608e-10 
158 1 0.109839 0.0179022 0.00724455 0.00612399 0.000316401 -0.000575513 -8.64084e-12 -1.59576e-10 -1.49398e-11 5e-05 1.46608e-10 
159 1 0.115807 0.0174693 0.00712194 0.00549462 -0.00110791 0.000375878 1.48796e-10 -1.18971e-10 1.03255e-10 5e-05 1.46608e-10 
160 1 0.109699 0.0178082 0.0072015 0.00610755 0.000361642 -0.000576956 5.326e-11 1.88853e-10 -8.06547e-11 5e-05 1.46608e-10 
162 1 0.109656 0.017625 0.00726999 0.00604311 0.000340757 -0.000566802 4.38322e-11 1.21738e-10 -4.74772e-11 5e-05 1.46608e-10 
164 1 0.110001 0.0183247 0.006995 0.00628607 0.000311903 -0.000574547 1.50229e-11 1.11359e-11 -1.36883e-11 5e-05 1.46608e-10 
165 1 0.110123 0.0180985 0.00706669 0.00620513 0.000269325 -0.000553309 -5.89163e-12 2.03595e-11 -7.33713e-12 5e-05 1.46608e-10 
166 1 0.115471 0.0161972 0.00820263 0.00523869 -0.000148476 0.000576996 1.92341e-10 6.96659e-10 -5.5646e-10 5e-05 1.46608e-10 
167 1 0.109659 0.0168589 0.00755493 0.00556655 0.000714196 -3.90183e-05 -9.41653e-11 -1.60799e-10 5.57706e-11 5e-05 1.46608e-10 
168 1 0.109964 0.0177974 0.00718582 0.0061324 0.000321484 -0.000565475 1.2965e-10 1.40914e-11 -2.15717e-11 5e-05 1.46608e-10 
169 1 0.110194 0.0183846 0.00695943 0.0062787 0.000250609 -0.000552172 -1.71931e-11 6.4477e-11 -2.2312e-11 5e-05 1.46608e-10 
170 1 0.109985 0.017889 0.0071516 0.00615315 0.000309421 -0.000563783 1.60124e-10 -3.7263e-11 1.19877e-11 5e-05 1.46608e-10 
171 1 0.115494 0.0162697 0.00813732 0.00523397 -0.000155495 0.000560244 1.96817e-09 -4.89028e-09 4.53392e-09 5e-05 1.46608e-10 
172 1 0.110102 0.0180069 0.0071009 0.00617844 0.000278795 -0.000554552 1.88138e-11 1.9089e-11 -9.20969e-12 5e-05 1.46608e-10 
173 1 0.115944 0.017696 0.00711624 0.00573351 -0.00106831 0.000414058 1.26312e-10 -1.78515e-11 1.4235e-10 5e-05 1.46608e-10 
174 1 0.109911 0.0179539 0.00713391 0.00616961 0.000323268 -0.000569945 8.21768e-11 -8.53038e-11 2.43086e-11 5e-05 1.46608e-10 
175 1 0.103639 0.0175063 0.0070999 0.00589932 0.000653391 -0.000351905 -5.43095e-11 2.22475e-10 3.42036e-10 5e-05 1.46608e-10 
176 1 0.10971 0.0174692 0.00732165 0.00601832 0.000380955 -0.00057916 -1.69459e-11 2.0505e-10 -7.87327e-11 5e-05 1.46608e-10 
177 1 0.109741 0.0179913 0.00713306 0.00616287 0.000356125 -0.000580906 -1.24147e-11 -3.0094e-11 2.852e-11 5e-05 1.46608e-10 
178 1 0.110241 0.0183006 0.00698593 0.00624593 0.000231498 -0.000542742 -1.58274e-11 6.62021e-11 -2.47107e-11 5e-05 1.46608e-10 
179 1 0.110147 0.0182726 0.00700287 0.00623754 0.000258058 -0.000551869 -8.13828e-12 3.6707e-11 -1.38746e-11 5e-05 1.46608e-10 
181 1 0.109699 0.0177903 0.00729987 0.00609503 0.000338308 -0.000574753 -9.1083e-11 -1.0649e-10 -1.65955e-10 5e-05 1.46608e-10 
182 1 0.11542 0.016316 0.00808826 0.00574916 7.4292e-05 0.000436208 4.45617e-10 2.71707e-10 -1.19082e-10 5e-05 1.46608e-10 
183 1 0.10989 0.0178623 0.00716815 0.0061441 0.000336219 -0.00057202 6.38095e-11 8.59501e-12 -2.6473e-11 5e-05 1.46608e-10 
184 1 0.115921 0.0175994 0.00710423 0.0057127 -0.00105749 0.000278877 8.50693e-12 -6.64334e-12 -1.59039e-10 5e-05 1.46608e-10 
185 1 0.109614 0.0174418 0.00733846 0.00600685 0.00041368 -0.00059088 -6.85615e-12 3.86561e-10 -1.39521e-10 5e-05 1.46608e-10 
186 1 0.109693 0.0176945 0.00733194 0.00607861 0.000322597 -0.000586226 -5.20693e-11 -1.67038e-10 3.1397e-11 5e-05 1.46608e-10 
187 1 0.115788 0.0170256 0.00746115 0.00550658 -0.000483759 0.000907255 -1.66362e-10 -1.48188e-10 9.06453e-11 5e-05 1.46608e-10 
188 1 0.115795 0.0178301 0.00711788 0.0058712 -0.000978692 0.000260119 -1.09237e-10 3.108e-10 -3.81639e-10 5e-05 1.46608e-10 
189 1 0.115827 0.0171711 0.00732945 0.00543674 -0.000492947 0.000878059 -3.20297e-10 -2.9454e-10 -1.6708e-10 5e-05 1.46608e-10 
190 1 0.103776 0.0177269 0.00704571 0.00631415 0.000476465 -0.000280752 4.60302e-11 -6.26351e-12 2.54022e-12 5e-05 1.46608e-10 
191 1 0.115783 0.0181854 0.00716634 0.00573558 -0.000962533 0.000574818 -5.1497e-11 8.11491e-11 8.82117e-11 5e-05 1.46608e-10 
192 1 0.1099 0.0175228 0.00728847 0.00605528 0.000334176 -0.000565813 -2.49451e-11 7.8519e-12 -1.37337e-11 5e-05 1.46608e-10 
193 1 0.11558 0.0165626 0.00787296 0.00628613 -0.000556818 0.00103034 4.13534e-09 -3.20842e-10 7.54305e-10 5e-05 1.46608e-10 
194 1 0.109721 0.0171298 0.00744188 0.00590386 0.000434426 -0.000578889 -1.59795e-10 -7.11446e-11 7.11167e-11 5e-05 1.46608e-10 
195 1 0.11017 0.0181806 0.00703396 0.00622498 0.000257147 -0.00055025 7.51961e-12 2.43827e-11 -1.30477e-11 5e-05 1.46608e-10 
196 1 0.109158 0.015656 0.00855775 0.00615442 -0.000491268 -0.00048285 -2.8918e-12 1.90142e-10 -6.09834e-10 5e-05 1.46608e-10 
197 1 0.103701 0.0177922 0.00703334 0.00638198 0.000552737 -0.000299225 2.17152e-11 -6.36873e-11 6.80466e-12 5e-05 1.46608e-10 
198 1 0.109529 0.0170751 0.00747549 0.00562984 0.000523544 -0.000601279 4.352e-11 4.5468e-12 -3.09217e-11 5e-05 1.46608e-10 
199 1 0.109678 0.0177167 0.00723573 0.00608382 0.000368329 -0.000579184 5.93123e-11 9.94911e-11 -1.35921e-11 5e-05 1.46608e-10 
200 1 0.109646 0.0171943 0.00742435 0.00594594 0.000460454 -0.000602319 6.40796e-11 -2.94914e-11 5.36035e-12 5e-05 1.46608e-10 
201 1 0.110119 0.0184483 0.00694225 0.00630072 0.000281433 -0.000564503 -8.47985e-11 -4.02012e-12 1.4488e-11 5e-05 1.46608e-10 
202 1 0.109922 0.0176144 0.00725425 0.00608265 0.000332053 -0.000566226 7.27688e-11 4.11983e-11 -1.78729e-11 5e-05 1.46608e-10 
203 1 0.115953 0.018149 0.00718219 0.00557613 -0.00105362 0.000541793 -9.05955e-11 -6.04547e-11 7.13508e-12 5e-05 1.46608e-10 
204 1 0.109625 0.0171028 0.00745857 0.00592847 0.000464492 -0.000602512 -3.65436e-11 -3.05113e-11 1.48303e-11 5e-05 1.46608e-10 
205 1 0.10996 0.018334 0.00708571 0.00627055 0.000317856 -0.000582589 -5.54321e-12 -1.11628e-11 -3.82097e-11 5e-05 1.46608e-10 
206 1 0.109932 0.0180455 0.00709969 0.00618193 0.000318111 -0.000568718 -9.21942e-11 -1.33483e-10 5.72151e-11 5e-05 1.46608e-10 
207 1 0.109468 0.0164145 0.00783 0.00565078 0.000663748 -3.18649e-06 -1.62165e-10 1.53806e-10 -1.68196e-11 5e-05 1.46608e-10 
208 1 0.109773 0.0177438 0.007219 0.00610915 0.000361412 -0.000579649 8.60594e-11 7.86498e-11 -4.54129e-11 5e-05 1.46608e-10 
209 1 0.1097 0.0170387 0.00747747 0.00579772 0.000508804 -0.000442425 -3.73712e-11 -2.37427e-10 -1.1912e-10 5e-05 1.46608e-10 
210 1 0.115716 0.0175503 0.00718376 0.00554371 -0.000924009 0.000254609 -6.42681e-11 -3.22672e-10 -4.04959e-11 5e-05 1.46608e-10 
211 1 0.115891 0.0178603 0.00713016 0.00576107 -0.00106931 0.000561668 -5.36907e-11 1.3026e-10 9.04177e-11 5e-05 1.46608e-10 
212 1 0.110006 0.0179806 0.00711737 0.006174 0.000306396 -0.000564145 2.80724e-11 -1.31561e-11 1.59297e-12 5e-05 1.46608e-10 
213 1 0.115769 0.0169529 0.0075271 0.00539964 -0.000464165 0.000880839 2.11571e-10 -1.02336e-10 1.30982e-10 5e-05 1.46608e-10 
214 1 0.115985 0.0178892 0.00714646 0.00578491 -0.00107868 0.000572885 -2.04792e-10 2.12045e-10 -1.22603e-10 5e-05 1.46608e-10 
215 1 0.103754 0.0176317 0.00706738 0.00629367 0.000465132 -0.000277752 -2.90252e-11 -2.57337e-11 1.04886e-11 5e-05 1.46608e-10 
216 1 0.10972 0.0178998 0.00716728 0.00613694 0.00036381 -0.000582167 -1.00901e-11 -3.71888e-11 1.67314e-12 5e-05 1.46608e-10 
217 1 0.115537 0.0164154 0.00800588 0.00628313 -0.000140525 0.000651608 4.77026e-10 -7.41746e-10 8.60568e-10 5e-05 1.46608e-10 
218 1 0.109858 0.0181103 0.00708204 0.00619236 0.000326505 -0.00057278 -6.06962e-11 -1.07817e-10 4.66419e-11 5e-05 1.46608e-10 
219 1 0.115816 0.0179268 0.00713258 0.00581468 -0.00100039 0.000547053 -1.0015e-10 1.7783e-10 -2.14608e-10 5e-05 1.46608e-10 
220 1 0.109771 0.017974 0.00722683 0.00614991 0.000348056 -0.000575024 -3.52672e-11 -1.8165e-10 3.14563e-11 5e-05 1.46608e-10 
221 1 0.103656 0.0172043 0.00728909 0.00576196 0.000700805 -0.000249734 2.26495e-10 -2.35029e-11 5.19365e-11 5e-05 1.46608e-10 
222 1 0.115561 0.0164898 0.0079389 0.00601071 -0.000533806 0.000985424 1.50398e-09 -9.00963e-10 9.43848e-10 5e-05 1.46608e-10 
223 1 0.109848 0.0176792 0.00723658 0.00610609 0.00035877 -0.000577898 6.71872e-11 8.42934e-11 -2.01806e-11 5e-05 1.46608e-10 
224 1 0.109593 0.0173501 0.00737275 0.00597298 0.000430911 -0.00059353 5.6931e-11 4.35419e-11 -1.58686e-11 5e-05 1.46608e-10 
225 1 0.115823 0.017564 0.0070943 0.00563739 -0.00117701 0.000267922 1.60487e-10 -2.27348e-10 2.20277e-10 5e-05 1.46608e-10 
226 1 0.11008 0.0179156 0.00713511 0.00615684 0.000285819 -0.00055566 1.11853e-10 1.98043e-11 -1.76343e-11 5e-05 1.46608e-10 
227 1 0.103714 0.0174416 0.00711468 0.00586491 0.000646622 -0.000207775 -2.41914e-10 5.37368e-11 -2.22913e-11 5e-05 1.46608e-10 
228 1 0.103659 0.0176015 0.00707671 0.00600306 0.000633873 -0.000309121 -3.172e-10 1.28259e-10 1.11143e-11 5e-05 1.46608e-10 
229 1 0.109735 0.0178778 0.00726366 0.00609448 0.000347812 -0.000577918 -1.87085e-11 -2.40084e-10 -6.43547e-11 5e-05 1.46608e-10 
230 1 0.110045 0.0185135 0.00692444 0.00632258 0.000311588 -0.000576719 -2.87533e-11 4.21934e-11 -1.37584e-11 5e-05 1.46608e-10 
231 1 0.10362 0.0174134 0.00713126 0.00583557 0.000710418 -0.000258448 4.58201e-12 -3.9056e-11 6.76828e-11 5e-05 1.46608e-10 
232 1 0.109601 0.0166103 0.00771252 0.00563499 0.000684024 -1.65557e-05 4.78868e-11 -9.18098e-11 4.2803e-11 5e-05 1.46608e-10 
233 1 0.109742 0.0172214 0.00740766 0.00597232 0.000416797 -0.00058732 -1.10602e-10 -4.60468e-11 4.21786e-11 5e-05 1.46608e-10 
234 1 0.11572 0.0178958 0.00711988 0.0058808 -0.000955206 0.000418637 -1.06136e-11 2.58197e-10 -1.08049e-10 5e-05 1.46608e-10 
235 1 0.109923 0.0188111 0.00682726 0.00583919 0.00046547 -0.000595147 8.05412e-12 8.23992e-11 -9.23658e-11 5e-05 1.46608e-10 
236 1 0.110089 0.018647 0.00687353 0.00598876 0.000688697 -0.000687094 -9.61718e-11 3.76444e-11 1.00211e-12 5e-05 1.46608e-10 
237 1 0.109953 0.018957 0.00682814 0.00591311 0.000394366 0.000446568 3.05788e-11 1.33441e-10 2.26297e-11 5e-05 1.46608e-10 
239 1 0.103446 0.0167018 0.00765404 0.00563559 0.000701442 -0.000256573 4.1886e-11 6.9824e-11 -3.74655e-11 5e-05 1.46608e-10 
240 1 0.103504 0.016939 0.00747978 0.00571662 0.000703203 -0.00025055 1.62745e-10 1.71801e-10 -3.45969e-11 5e-05 1.46608e-10 
241 1 0.103426 0.0166227 0.00771213 0.00561208 0.000700281 -0.000256264 2.58327e-11 5.32964e-11 -2.70024e-11 5e-05 1.46608e-10 
242 1 0.109858 0.0173397 0.0073569 0.00600973 0.000339055 -0.000563669 -1.11989e-10 -2.56658e-11 9.86377e-12 5e-05 1.46608e-10 
243 1 0.109604 0.0170112 0.00749279 0.00563447 0.000532233 -0.000604354 6.13129e-11 -8.6068e-11 -3.02794e-13 5e-05 1.46608e-10 
244 1 0.103465 0.0167809 0.00759595 0.00565215 0.000705676 -0.000259349 5.81564e-11 -2.56683e-12 -3.82418e-11 5e-05 1.46608e-10 
246 1 0.103581 0.0172553 0.00724743 0.00579114 0.000714332 -0.000257584 1.58138e-10 1.29845e-10 -5.19943e-11 5e-05 1.46608e-10 
247 1 0.109882 0.0182038 0.00704838 0.00623658 0.00033415 -0.000580489 -2.2923e-11 -3.18824e-11 1.50617e-11 5e-05 1.46608e-10 
248 1 0.110206 0.0184917 0.00692035 0.00605532 0.000710847 -0.00069967 -5.83665e-11 -3.35717e-11 1.70326e-11 5e-05 1.46608e-10 