ITEM: TIMESTEP
13800000
ITEM: NUMBER OF ATOMS
287
ITEM: BOX BOUNDS ff ff ff
-0.02 0.43
-0.02 0.06
-0.02 0.07
ITEM: ATOMS id type x y z vx vy vz fx fy fz radius mass 
1 1 0.0932876 0.0163588 0.00789377 0.00613553 6.46554e-05 -0.000323537 3.91836e-11 4.85991e-11 -5.17702e-11 5e-05 1.46608e-10 
2 1 0.0937405 0.0173811 0.00715959 0.00590146 0.000357166 -0.000127467 2.40248e-10 -2.17146e-11 -1.46488e-10 5e-05 1.46608e-10 
3 1 0.0870939 0.0159496 0.00813107 0.0060535 -0.000342233 0.000106723 -1.07375e-10 -3.90742e-11 5.08316e-11 5e-05 1.46608e-10 
4 1 0.093615 0.0176733 0.00706593 0.00571888 0.000409947 6.70894e-05 -1.12654e-11 1.20958e-11 4.05794e-12 5e-05 1.46608e-10 
5 1 0.0931699 0.0162521 0.00796479 0.00612044 0.000293522 5.53883e-05 2.20027e-11 5.38795e-11 -3.82031e-11 5e-05 1.46608e-10 
6 1 0.0992892 0.0166685 0.00760726 0.00619063 -1.34842e-05 3.38623e-05 -3.20557e-12 4.87836e-12 -3.49654e-12 5e-05 1.46608e-10 
7 1 0.0933648 0.0169679 0.00745573 0.0062324 6.0111e-05 -0.000311344 2.58037e-11 -5.51939e-11 3.984e-11 5e-05 1.46608e-10 
8 1 0.0930638 0.0158346 0.00821857 0.00564115 0.000344479 5.67847e-06 -2.63388e-10 8.02177e-11 -4.80017e-11 5e-05 1.46608e-10 
9 1 0.0995522 0.017797 0.00708727 0.00560548 8.7289e-05 -3.0249e-05 1.4724e-11 -4.10233e-12 5.67735e-12 5e-05 1.46608e-10 
10 1 0.0932998 0.0167308 0.00762757 0.00618261 6.96436e-05 -0.000315948 -1.0892e-11 -1.90711e-11 1.26532e-11 5e-05 1.46608e-10 
11 1 0.0937781 0.0175646 0.00709439 0.00578247 0.000489302 5.23348e-05 8.15788e-11 1.15324e-10 -1.89491e-11 5e-05 1.46608e-10 
12 1 0.0873051 0.0167297 0.00758726 0.00609248 -0.00023709 0.000366523 -2.22931e-11 -5.30915e-11 1.49136e-11 5e-05 1.46608e-10 
13 1 0.0931482 0.0161687 0.00801547 0.00611461 0.000289399 5.70997e-05 9.0178e-12 2.94962e-11 -1.349e-11 5e-05 1.46608e-10 
14 1 0.0870131 0.0156947 0.00842855 0.00553166 -0.000247363 2.20677e-05 4.41556e-11 -3.34675e-11 3.48469e-11 5e-05 1.46608e-10 
15 1 0.0935004 0.0171517 0.00731885 0.00596988 0.00012076 -0.000343694 -1.51324e-10 -6.22948e-11 -4.78372e-12 5e-05 1.46608e-10 
16 1 0.0869934 0.0156309 0.00850299 0.00552724 -0.000245725 2.04321e-05 -3.61646e-11 -1.20248e-11 1.63223e-11 5e-05 1.46608e-10 
17 1 0.0932782 0.0166517 0.00768486 0.00616962 7.18031e-05 -0.000316679 -6.94575e-12 -1.86211e-11 1.52491e-11 5e-05 1.46608e-10 
18 1 0.0994302 0.0172268 0.00722824 0.00578803 4.88102e-05 -2.05737e-05 4.79287e-11 -3.10007e-11 8.91375e-12 5e-05 1.46608e-10 
19 1 0.0931264 0.0160853 0.00806616 0.00611273 0.000285392 5.99426e-05 -1.22196e-11 2.16625e-11 -1.42362e-11 5e-05 1.46608e-10 
21 1 0.0932659 0.0162795 0.00795073 0.00613244 3.49067e-05 -0.000361928 -9.54084e-12 5.31698e-11 -8.47682e-11 5e-05 1.46608e-10 
22 1 0.0934063 0.0171264 0.00734099 0.00599689 9.59647e-05 -0.000326344 5.15505e-11 -1.74287e-10 8.5754e-11 5e-05 1.46608e-10 
23 1 0.0874876 0.017124 0.00743498 0.00597894 -0.000242538 0.000363581 6.93607e-11 1.39192e-11 -1.51629e-11 5e-05 1.46608e-10 
24 1 0.0994917 0.0175118 0.00715778 0.00582017 4.0207e-05 -1.88582e-05 -5.0268e-12 1.11625e-11 -1.25821e-11 5e-05 1.46608e-10 
25 1 0.0933431 0.0168889 0.00751301 0.00620581 6.65549e-05 -0.000314504 4.28699e-11 -2.78294e-11 2.0269e-11 5e-05 1.46608e-10 
26 1 0.0993723 0.0169665 0.0073537 0.00577667 4.98366e-05 -2.17981e-05 2.61828e-11 -4.66317e-12 1.0016e-12 5e-05 1.46608e-10 
27 1 0.0873908 0.0170929 0.00744334 0.00600168 -0.000237213 0.000362496 8.15713e-12 9.99328e-13 -1.62408e-13 5e-05 1.46608e-10 
28 1 0.0935953 0.0175774 0.00708651 0.005758 0.000403559 7.13172e-05 3.89767e-12 -3.78271e-12 1.94418e-11 5e-05 1.46608e-10 
29 1 0.0931047 0.0160018 0.00811684 0.0061097 0.000281328 6.20662e-05 -8.20824e-12 4.37479e-11 -2.23361e-11 5e-05 1.46608e-10 
30 1 0.0936328 0.0173373 0.0071809 0.00595241 0.000169748 -0.000368215 2.10098e-10 -7.27068e-11 2.26322e-10 5e-05 1.46608e-10 
31 1 0.0933864 0.017047 0.00739844 0.00622864 6.13279e-05 -0.000311775 -2.15731e-11 -7.27159e-11 4.8289e-11 5e-05 1.46608e-10 
32 1 0.0934812 0.017071 0.00737725 0.00602991 0.000122878 -0.000347508 -6.49145e-11 -6.99265e-11 9.25852e-11 5e-05 1.46608e-10 
33 1 0.0993106 0.0167429 0.00754395 0.006215 -1.63932e-05 3.64784e-05 -4.1876e-12 5.13275e-12 -3.32337e-12 5e-05 1.46608e-10 
34 1 0.0932566 0.0165727 0.00774214 0.00615907 7.31084e-05 -0.000317342 4.56073e-12 -6.74028e-12 2.90982e-12 5e-05 1.46608e-10 
35 1 0.0934608 0.0169914 0.00743547 0.00626432 0.000104956 -0.000343277 -1.6039e-10 -8.71544e-11 8.42614e-11 5e-05 1.46608e-10 
36 1 0.0995916 0.0179874 0.00704023 0.00565011 8.1011e-05 -2.86842e-05 -8.56917e-12 -3.75656e-11 7.675e-12 5e-05 1.46608e-10 
37 1 0.0934174 0.0168329 0.00754968 0.00619244 5.87202e-05 -0.000308652 3.42863e-11 -6.38826e-11 4.78827e-11 5e-05 1.46608e-10 
38 1 0.0935756 0.0170966 0.00735494 0.00597241 0.000137077 -0.000354163 5.59803e-11 8.72592e-11 -4.85959e-11 5e-05 1.46608e-10 
39 1 0.0995122 0.0176068 0.0071343 0.0058392 4.02423e-05 -1.88512e-05 -2.94997e-11 3.71574e-11 -1.29654e-11 5e-05 1.46608e-10 
41 1 0.0932133 0.0164145 0.00785672 0.00613122 6.655e-05 -0.00031528 3.86654e-11 6.04086e-11 -4.8728e-11 5e-05 1.46608e-10 
42 1 0.0934243 0.0172061 0.00728341 0.005959 9.56237e-05 -0.000325907 -1.92424e-10 -1.54075e-10 1.05071e-10 5e-05 1.46608e-10 
44 1 0.0935956 0.017178 0.00729602 0.0059584 0.000154841 -0.000366869 1.43956e-10 -3.7243e-11 8.7529e-11 5e-05 1.46608e-10 
45 1 0.099332 0.0168173 0.00748064 0.00623831 -1.93214e-05 3.88977e-05 -7.04902e-12 6.71274e-12 -6.46004e-12 5e-05 1.46608e-10 
46 1 0.0994097 0.0171317 0.00725172 0.0057868 5.03218e-05 -2.13026e-05 6.5198e-11 1.2349e-11 -1.10258e-11 5e-05 1.46608e-10 
47 1 0.0932349 0.0164936 0.00779943 0.00614172 7.16404e-05 -0.000315346 -2.62859e-11 5.09609e-12 7.33827e-12 5e-05 1.46608e-10 
48 1 0.093461 0.0173656 0.00716854 0.00591841 0.00014988 -0.00023555 -2.02601e-10 -1.47172e-10 1.72596e-10 5e-05 1.46608e-10 
49 1 0.0993897 0.0170415 0.00728988 0.00577971 5.03625e-05 -2.20118e-05 -2.26374e-11 1.07308e-11 -4.93464e-12 5e-05 1.46608e-10 
50 1 0.09352 0.0176416 0.00707027 0.00572005 0.000399783 7.38058e-05 1.06959e-10 -1.09994e-11 4.90002e-11 5e-05 1.46608e-10 
51 1 0.0935007 0.0175486 0.0071013 0.00573178 0.000152722 -0.000641951 -3.03545e-11 -1.68364e-10 -2.03924e-10 5e-05 1.46608e-10 
52 1 0.0872837 0.0166389 0.00762323 0.00610912 -0.000246314 0.000370762 -5.06847e-11 1.60595e-12 3.30831e-12 5e-05 1.46608e-10 
53 1 0.0994507 0.0173218 0.00720475 0.00580577 4.9532e-05 -2.13503e-05 -1.6291e-10 1.73701e-11 3.91661e-12 5e-05 1.46608e-10 
54 1 0.0932442 0.0161965 0.00800201 0.00611906 0.000293245 5.58606e-05 2.35946e-11 6.83786e-11 -3.89705e-11 5e-05 1.46608e-10 
55 1 0.0870528 0.0158223 0.00827972 0.00584338 -0.000302273 7.07598e-05 -2.03644e-10 -5.96761e-11 7.84404e-11 5e-05 1.46608e-10 
56 1 0.0934392 0.016912 0.00749239 0.00623578 5.39556e-05 -0.000306846 7.60664e-11 -3.09492e-11 2.40985e-11 5e-05 1.46608e-10 
57 1 0.0993533 0.0168917 0.00741733 0.006265 -2.23207e-05 4.14621e-05 2.28089e-11 2.23811e-11 -1.06144e-11 5e-05 1.46608e-10 
59 1 0.0934919 0.0167771 0.00758625 0.00617404 4.96363e-05 -0.000301242 1.25567e-10 2.80583e-12 -1.0138e-11 5e-05 1.46608e-10 
60 1 0.0935137 0.0168562 0.00752892 0.00626813 7.68063e-05 -0.000324728 9.90166e-11 -2.69123e-11 1.39105e-11 5e-05 1.46608e-10 
61 1 0.0931916 0.0163355 0.00791399 0.00612338 0.000139562 -0.000212406 3.79194e-11 6.23724e-11 -1.40344e-10 5e-05 1.46608e-10 
62 1 0.0936141 0.0172577 0.00723845 0.00599438 0.000152536 -0.000365591 7.41229e-11 -2.43444e-10 8.91903e-11 5e-05 1.46608e-10 
63 1 0.0935563 0.0173915 0.00714609 0.00594196 0.000230464 -0.000201229 4.48575e-11 -1.83505e-10 3.24058e-10 5e-05 1.46608e-10 
64 1 0.0994712 0.0174168 0.00718127 0.0058169 4.49554e-05 -2.04352e-05 1.34067e-11 5.51499e-11 -2.12835e-11 5e-05 1.46608e-10 
65 1 0.0874019 0.0167608 0.00757888 0.0060878 -0.000223089 0.000360254 -9.97516e-11 -5.83579e-11 1.42515e-11 5e-05 1.46608e-10 
66 1 0.0873379 0.0164883 0.00768685 0.00613123 -0.000233815 0.000367038 -1.70198e-10 -7.89249e-12 -6.64095e-13 5e-05 1.46608e-10 
67 1 0.0937591 0.0174687 0.00711502 0.00581564 0.000477688 6.14638e-05 1.19922e-10 1.13534e-10 -3.12147e-13 5e-05 1.46608e-10 
68 1 0.0936706 0.0175136 0.00710267 0.00579963 0.000446354 6.2561e-05 1.25243e-10 1.24287e-10 -9.602e-12 5e-05 1.46608e-10 
69 1 0.0933525 0.0165957 0.00772157 0.00616017 6.48894e-05 -0.000311601 5.09094e-12 -2.5531e-12 -4.62953e-12 5e-05 1.46608e-10 
70 1 0.0995325 0.0177019 0.0071108 0.00559887 8.74466e-05 -3.02233e-05 1.23115e-10 -3.8331e-11 7.27665e-12 5e-05 1.46608e-10 
71 1 0.087033 0.0157585 0.00835413 0.00564312 -0.000267946 4.04238e-05 -9.21929e-12 -7.00112e-11 7.91757e-11 5e-05 1.46608e-10 
72 1 0.0936502 0.0174177 0.00712322 0.00582277 0.000317068 9.3977e-05 -1.72057e-10 5.62015e-11 -3.90599e-12 5e-05 1.46608e-10 
73 1 0.0933215 0.0168098 0.00757029 0.00619296 6.71846e-05 -0.000314718 8.65714e-12 -1.87408e-11 1.28925e-11 5e-05 1.46608e-10 
74 1 0.0935186 0.0172314 0.00726125 0.00593656 0.000120611 -0.000339691 -3.43916e-10 -2.05923e-10 1.31454e-10 5e-05 1.46608e-10 
76 1 0.0876202 0.0176821 0.00721393 0.00566647 -0.000206134 0.000335185 1.36041e-10 -6.71509e-12 1.28369e-11 5e-05 1.46608e-10 
77 1 0.0936495 0.018273 0.0069347 0.00567374 0.000407565 7.05424e-05 2.46231e-11 2.15374e-11 -5.76004e-13 5e-05 1.46608e-10 
78 1 0.0871145 0.0160133 0.00805676 0.00606401 -0.000349157 0.000113469 6.37321e-11 -3.88963e-12 -3.48962e-12 5e-05 1.46608e-10 
79 1 0.0873265 0.0168205 0.00755128 0.00607421 -0.000230148 0.000362775 -2.6486e-11 -5.87856e-11 2.73796e-11 5e-05 1.46608e-10 
80 1 0.0935599 0.0178354 0.00704863 0.00572835 0.000401841 7.74113e-05 6.55025e-11 -2.70947e-11 -6.65272e-11 5e-05 1.46608e-10 
81 1 0.0872623 0.016548 0.00765921 0.00612705 -0.000256686 0.000376408 -8.50471e-12 2.19046e-11 2.1058e-11 5e-05 1.46608e-10 
82 1 0.0874122 0.0171838 0.00740736 0.00598212 -0.000225041 0.000356658 -1.64116e-13 3.36755e-12 -1.33425e-12 5e-05 1.46608e-10 
83 1 0.0874126 0.0164279 0.00771472 0.00613541 -0.000223687 0.000362763 -9.60903e-11 2.97115e-11 -2.09951e-11 5e-05 1.46608e-10 
84 1 0.0995719 0.0178922 0.00706375 0.00562739 8.42574e-05 -2.94599e-05 -5.11146e-12 -2.54048e-11 6.6564e-12 5e-05 1.46608e-10 
85 1 0.0872111 0.0160278 0.00803544 0.00605271 -0.000381245 0.000146675 7.06018e-11 3.4122e-11 -4.43582e-11 5e-05 1.46608e-10 
86 1 0.093575 0.0174817 0.00710704 0.00590402 0.000374021 8.35915e-05 4.43218e-11 -8.80298e-11 7.0092e-11 5e-05 1.46608e-10 
87 1 0.0934703 0.0166981 0.00764353 0.00617392 4.81877e-05 -0.000300183 1.67349e-10 3.54037e-11 -3.25064e-11 5e-05 1.46608e-10 
88 1 0.093597 0.0180129 0.00699058 0.00578702 0.000392867 7.54149e-05 -1.87826e-11 -2.99827e-11 2.13384e-11 5e-05 1.46608e-10 
89 1 0.0935807 0.0179332 0.00704881 0.00575428 0.000401694 8.2409e-05 8.54278e-12 -3.97368e-11 -3.43828e-11 5e-05 1.46608e-10 
90 1 0.0937199 0.0172957 0.00720732 0.00594715 0.000203391 -0.000368353 1.71034e-10 -1.02676e-11 4.97947e-12 5e-05 1.46608e-10 
91 1 0.087348 0.0169113 0.00751531 0.00605316 -0.000233778 0.000363148 -1.74984e-11 3.88772e-11 -1.95964e-11 5e-05 1.46608e-10 
92 1 0.0937295 0.0178008 0.007041 0.00569369 0.000427649 6.37639e-05 4.48891e-10 -1.60456e-10 5.87847e-11 5e-05 1.46608e-10 
93 1 0.0936867 0.0179758 0.00701441 0.00578747 0.000401729 7.36287e-05 -3.51832e-11 -1.37044e-10 4.67124e-11 5e-05 1.46608e-10 
94 1 0.0937916 0.0181186 0.00697269 0.00565536 0.00038555 7.2539e-05 2.26074e-10 -2.1665e-10 9.02598e-11 5e-05 1.46608e-10 
95 1 0.0936668 0.0178604 0.00712283 0.00575333 0.000353714 6.71514e-05 -7.75674e-11 8.13521e-11 -4.89968e-11 5e-05 1.46608e-10 
96 1 0.0937479 0.0178969 0.00702033 0.00579387 0.000415823 6.86987e-05 1.8825e-10 4.37227e-13 5.60371e-13 5e-05 1.46608e-10 
97 1 0.0872194 0.0163664 0.00773116 0.00617505 -0.000271513 0.000383073 -8.0723e-11 2.24624e-11 1.79003e-11 5e-05 1.46608e-10 
98 1 0.0936165 0.0181108 0.00699648 0.00561555 0.00042836 5.66757e-05 -2.58575e-12 -1.98197e-11 9.88673e-12 5e-05 1.46608e-10 
99 1 0.0873805 0.01667 0.00761486 0.00609951 -0.000225759 0.000361763 -8.2935e-11 -5.92351e-11 2.77195e-11 5e-05 1.46608e-10 
100 1 0.0936829 0.0171361 0.00732211 0.00592662 0.000190782 -0.000394835 7.90386e-11 -2.65885e-10 1.43993e-10 5e-05 1.46608e-10 
101 1 0.0873162 0.0163976 0.00772278 0.0061594 -0.00024055 0.000370296 4.52395e-12 1.90371e-11 5.58786e-12 5e-05 1.46608e-10 
102 1 0.0643568 0.0187248 0.00531097 4.19593e-15 1.05351e-14 8.29591e-14 1.21903e-21 -3.31674e-22 -1.59232e-23 5e-05 1.46608e-10 
103 1 0.24257 0.0191927 0.00520306 3.10422e-23 -3.03968e-22 -5.81428e-22 0 0 0 5e-05 1.46608e-10 
104 1 0.0876636 0.017525 0.00729654 0.00564872 -0.000156411 0.000313728 9.88425e-11 -8.90838e-11 1.19183e-10 5e-05 1.46608e-10 
105 1 0.0871767 0.0162042 0.00783383 0.00614627 -0.000444559 0.000208486 -1.19373e-11 8.94247e-11 2.35661e-11 5e-05 1.46608e-10 
106 1 0.0877392 0.0174608 0.0073092 0.00565595 -0.000128426 0.000300657 6.80657e-11 -1.70378e-10 9.73062e-11 5e-05 1.46608e-10 
107 1 0.0871353 0.0160769 0.00798246 0.00609984 -0.00035592 0.000118592 -1.26077e-11 4.00903e-12 -2.13707e-11 5e-05 1.46608e-10 
108 1 0.0933958 0.0167539 0.00760697 0.00618603 6.10045e-05 -0.000309748 6.90403e-12 -6.04548e-11 4.17825e-11 5e-05 1.46608e-10 
109 1 0.0934808 0.0174535 0.00712505 0.00593216 0.000270655 2.03113e-05 -1.28122e-12 -1.38634e-10 1.47069e-10 5e-05 1.46608e-10 
110 1 0.0938673 0.0181891 0.00695925 0.0057025 0.000427521 6.38323e-05 2.92226e-11 -1.59476e-11 3.4844e-11 5e-05 1.46608e-10 
111 1 0.0936543 0.0182849 0.00703387 0.00568878 0.00038771 7.74825e-05 -8.27205e-11 8.70214e-11 -1.77388e-12 5e-05 1.46608e-10 
112 1 0.0872409 0.0164572 0.00769519 0.00615032 -0.00026296 0.000379972 7.24126e-12 6.23786e-12 1.18367e-11 5e-05 1.46608e-10 
113 1 0.0880597 0.0182132 0.00695033 0.00547625 -0.000380625 -0.000110846 -1.62083e-10 9.57462e-11 -8.75392e-11 5e-05 1.46608e-10 
114 1 0.0876047 0.0172455 0.00739079 0.00586151 -0.000160819 0.000324415 -5.19116e-11 -3.16885e-11 6.12337e-12 5e-05 1.46608e-10 
115 1 0.0935374 0.0173114 0.00720346 0.00593377 0.00010696 -0.00031752 7.51583e-11 -5.50414e-11 2.35229e-10 5e-05 1.46608e-10 
116 1 0.0933741 0.0166748 0.00766429 0.00617251 6.19206e-05 -0.000309826 -1.26793e-11 -1.465e-11 1.30345e-11 5e-05 1.46608e-10 
117 1 0.0932225 0.016113 0.0080527 0.00611453 0.00028941 5.60307e-05 1.94398e-12 4.87869e-11 -2.95603e-11 5e-05 1.46608e-10 
118 1 0.0870731 0.015886 0.00820535 0.00599119 -0.000327858 9.31474e-05 -8.70747e-11 -9.96702e-11 1.06446e-10 5e-05 1.46608e-10 
119 1 0.0935353 0.0169353 0.00747163 0.00630672 0.000151364 -0.000379935 1.32664e-11 1.18463e-10 -7.07372e-11 5e-05 1.46608e-10 
120 1 0.093083 0.0159184 0.00816753 0.00610742 0.000277711 6.46995e-05 1.97757e-11 2.68876e-11 -4.87687e-12 5e-05 1.46608e-10 
121 1 0.093045 0.0157507 0.00826965 0.00568699 0.000330628 1.79116e-05 1.42493e-10 8.70499e-12 -8.61968e-12 5e-05 1.46608e-10 
122 1 0.0938429 0.0182836 0.00693774 0.00570492 0.000426281 6.57137e-05 9.12278e-11 -3.82727e-11 1.99366e-13 5e-05 1.46608e-10 
123 1 0.0872526 0.0161559 0.00788753 0.00615052 -0.000352266 0.000179972 6.62039e-12 9.73315e-11 -7.0493e-11 5e-05 1.46608e-10 
124 1 0.0936516 0.0178671 0.00702422 0.0057272 0.000382842 7.32476e-05 1.77788e-13 8.1381e-11 -3.69977e-11 5e-05 1.46608e-10 
125 1 0.0932007 0.0160296 0.00810339 0.00611049 0.000285349 5.94422e-05 -1.01563e-11 3.40368e-11 -1.8854e-11 5e-05 1.46608e-10 
126 1 0.0934425 0.0172858 0.00722579 0.0059172 9.70843e-05 -0.00032437 -3.5113e-10 -1.67818e-10 1.13712e-10 5e-05 1.46608e-10 
127 1 0.087198 0.0162756 0.00776714 0.00619768 -0.000277951 0.000390089 -7.53247e-11 7.3548e-12 -1.19094e-11 5e-05 1.46608e-10 
128 1 0.0935399 0.0177375 0.0070497 0.00573941 0.000401211 7.07227e-05 -2.32817e-11 -1.33946e-11 8.38639e-12 5e-05 1.46608e-10 
129 1 0.0936583 0.0180555 0.00706853 0.0055779 0.000368384 3.62895e-05 -1.00961e-10 7.03916e-11 7.04142e-11 5e-05 1.46608e-10 
130 1 0.0875089 0.0172149 0.007399 0.005938 -0.000247553 0.000363357 -1.47701e-10 6.021e-12 -1.19476e-11 5e-05 1.46608e-10 
131 1 0.0873591 0.0165792 0.00765084 0.00611003 -0.00023028 0.000364312 -1.27446e-10 -3.65616e-11 1.7396e-11 5e-05 1.46608e-10 
132 1 0.0936347 0.0177691 0.00704535 0.00572652 0.000407021 6.85048e-05 8.85296e-11 -2.8329e-11 6.28066e-12 5e-05 1.46608e-10 
133 1 0.0933835 0.0163816 0.00787284 0.00613613 6.84348e-05 -0.000313328 2.79397e-11 8.1975e-11 -5.09358e-11 5e-05 1.46608e-10 
134 1 0.0935557 0.0170152 0.00741383 0.00608489 0.000164645 -0.000377566 -6.2118e-11 5.52126e-11 -7.31258e-11 5e-05 1.46608e-10 
135 1 0.093179 0.0159462 0.00815407 0.00610381 0.000281504 6.16099e-05 -4.59479e-11 1.0882e-11 -1.82456e-12 5e-05 1.46608e-10 
136 1 0.087191 0.0159641 0.00810981 0.00592227 -0.000367295 0.000140521 4.69982e-10 -1.19682e-10 9.02179e-11 5e-05 1.46608e-10 
137 1 0.0936689 0.0183711 0.00693892 0.00567369 0.000414682 6.91386e-05 4.80572e-11 6.22161e-11 -8.79024e-11 5e-05 1.46608e-10 
138 1 0.0933308 0.0165167 0.00777886 0.00614923 6.76587e-05 -0.000313032 1.52598e-11 2.56611e-11 -9.87639e-12 5e-05 1.46608e-10 
140 1 0.0937464 0.0183085 0.00692957 0.00569717 0.000414058 6.89771e-05 6.51604e-11 -6.94867e-11 3.38268e-12 5e-05 1.46608e-10 
141 1 0.0872319 0.0160914 0.00796113 0.00611069 -0.000378873 0.000154226 -6.85649e-11 1.26025e-10 -1.06458e-10 5e-05 1.46608e-10 
142 1 0.0876252 0.0173365 0.0073547 0.00576367 -0.000168624 0.000326848 1.50899e-10 8.32785e-13 6.56407e-11 5e-05 1.46608e-10 
143 1 0.087156 0.0161406 0.00790815 0.00614817 -0.000319789 6.67833e-05 -8.62005e-11 -7.51147e-11 3.02236e-11 5e-05 1.46608e-10 
144 1 0.0875837 0.0171545 0.00742686 0.00592691 -0.000236172 0.000358656 -1.35302e-10 9.33533e-11 -3.69167e-11 5e-05 1.46608e-10 
146 1 0.0874337 0.0165188 0.00767871 0.00610281 -0.000224887 0.000361958 -4.18677e-11 6.55582e-11 -3.32713e-11 5e-05 1.46608e-10 
147 1 0.0871703 0.0159004 0.00818411 0.00584887 -0.000360807 0.000137897 2.00734e-10 -1.23497e-10 1.3239e-10 5e-05 1.46608e-10 
148 1 0.0874746 0.0174566 0.0072992 0.00562208 -0.000224475 0.000337782 -2.32366e-10 -8.48382e-11 -4.52831e-12 5e-05 1.46608e-10 
149 1 0.0937708 0.018214 0.00695109 0.00571436 0.000406248 6.94884e-05 1.94497e-10 -1.58256e-10 3.1686e-11 5e-05 1.46608e-10 
150 1 0.0874766 0.0167004 0.00760675 0.00608467 -0.000225119 0.000361244 -5.00699e-11 1.0422e-10 -4.22447e-11 5e-05 1.46608e-10 
151 1 0.0878319 0.0174967 0.0072987 0.00560924 -1.09304e-05 0.000252609 -7.18755e-11 8.81846e-11 -4.55776e-11 5e-05 1.46608e-10 
153 1 0.0872944 0.0163154 0.00777543 0.00616362 -0.000257815 0.000334061 1.09255e-10 3.69779e-11 4.21286e-11 5e-05 1.46608e-10 
154 1 0.0875703 0.0174879 0.007291 0.00568402 -0.000198719 0.000327218 1.28627e-10 -1.70789e-10 1.21624e-10 5e-05 1.46608e-10 
155 1 0.0876399 0.0177734 0.00717768 0.00570928 -9.50332e-05 0.000292401 5.7777e-11 9.80454e-11 -3.41853e-11 5e-05 1.46608e-10 
156 1 0.0875504 0.0173967 0.00732688 0.00573231 -0.000210538 0.000338329 5.98459e-11 -8.57862e-11 4.67738e-11 5e-05 1.46608e-10 
157 1 0.0219312 0.0187687 0.00551176 -3.82627e-14 8.16994e-14 2.95888e-13 -9.72739e-22 -2.76899e-22 -6.10046e-23 5e-05 1.46608e-10 
158 1 0.0876364 0.0176504 0.00730739 0.00564767 -0.00019535 0.000333993 2.35936e-10 6.42561e-11 4.59544e-11 5e-05 1.46608e-10 
159 1 0.0936896 0.0176108 0.00708911 0.00575287 0.000443675 5.79597e-05 2.74075e-11 1.71837e-11 -3.52828e-11 5e-05 1.46608e-10 
160 1 0.0875353 0.0177296 0.00719086 0.00568851 -0.000209702 0.000335694 1.02409e-10 -8.18595e-12 2.39635e-11 5e-05 1.46608e-10 
162 1 0.0874949 0.0175476 0.00726308 0.0056525 -0.000217115 0.000341195 -6.69924e-12 -1.92665e-10 9.33128e-11 5e-05 1.46608e-10 
164 1 0.0877776 0.0181287 0.00700732 0.00546956 -0.000357414 -0.00012583 1.65964e-11 3.99488e-11 -2.08052e-11 5e-05 1.46608e-10 
165 1 0.0879221 0.0177939 0.00716316 0.00556364 -0.000203329 -0.000208561 -2.74173e-12 -8.56297e-11 2.00358e-11 5e-05 1.46608e-10 
166 1 0.0933401 0.0162234 0.0079875 0.00611659 5.20675e-05 -0.000303797 -1.19007e-10 1.76642e-11 8.10485e-11 5e-05 1.46608e-10 
167 1 0.0874551 0.0166096 0.00764273 0.00609158 -0.000227498 0.000362707 6.98225e-11 5.35079e-11 -2.18195e-11 5e-05 1.46608e-10 
168 1 0.0877553 0.0175557 0.00727134 0.00565693 -0.000172586 0.000320919 1.27154e-10 -1.29332e-10 1.40929e-11 5e-05 1.46608e-10 
169 1 0.0879656 0.0181852 0.00696923 0.00545586 -0.000349194 -0.00013363 4.72649e-11 1.04937e-10 -4.14804e-11 5e-05 1.46608e-10 
170 1 0.0878016 0.017668 0.00722772 0.00577265 -3.22664e-05 0.000268443 -1.22263e-10 -2.98756e-11 2.34964e-11 5e-05 1.46608e-10 
171 1 0.0933619 0.0163026 0.00793012 0.00612947 6.74967e-05 -0.000314953 5.67854e-11 7.2368e-11 -5.69963e-11 5e-05 1.46608e-10 
172 1 0.0878999 0.0177008 0.00720997 0.0058884 -4.38463e-05 -0.000305126 7.05916e-12 6.66914e-11 -1.14028e-10 5e-05 1.46608e-10 
173 1 0.0938185 0.0177562 0.00705331 0.00582863 0.000491538 5.36878e-05 -9.33274e-11 -3.16761e-11 6.20011e-12 5e-05 1.46608e-10 
174 1 0.0877253 0.0177266 0.00720049 0.00574512 -5.03477e-05 0.00027595 -6.31843e-11 -6.3296e-12 -2.97369e-13 5e-05 1.46608e-10 
175 1 0.081466 0.0174183 0.00730872 0.00573778 0.000266827 0.000241888 -5.48319e-12 -1.00909e-11 4.05366e-12 5e-05 1.46608e-10 
176 1 0.0875299 0.0173057 0.00736298 0.00578462 -0.000227732 0.000350056 -1.55528e-10 2.15601e-13 -5.29113e-11 5e-05 1.46608e-10 
177 1 0.0875739 0.017912 0.00711842 0.00554444 -0.000165391 0.00031686 1.18075e-11 6.54683e-11 -4.27321e-12 5e-05 1.46608e-10 
178 1 0.0880126 0.0181049 0.00700592 0.00546238 -0.000348894 -0.00013233 3.66473e-11 1.05408e-10 -5.57729e-11 5e-05 1.46608e-10 
179 1 0.0879186 0.0180766 0.00702501 0.00547345 -0.000350331 -0.000132749 -5.21064e-11 4.37923e-12 -2.73614e-13 5e-05 1.46608e-10 
181 1 0.0875117 0.0176278 0.00732802 0.00562388 -0.000177803 0.000341855 -1.2465e-10 1.40145e-10 7.92152e-11 5e-05 1.46608e-10 
182 1 0.0933092 0.0164376 0.00783619 0.00613986 7.28491e-05 -0.000313077 2.05483e-11 5.76806e-11 -7.73731e-12 5e-05 1.46608e-10 
183 1 0.0877055 0.0176352 0.00723678 0.00565983 -0.000186412 0.000329979 9.61429e-11 -1.09582e-10 2.07339e-11 5e-05 1.46608e-10 
184 1 0.0936565 0.0177607 0.00714259 0.00570871 0.000417762 6.77711e-05 1.35333e-10 2.13071e-10 2.59438e-11 5e-05 1.46608e-10 
185 1 0.0874544 0.0173655 0.00733531 0.00568434 -0.000389077 0.000412036 -2.26936e-10 1.42272e-09 -2.88231e-10 5e-05 1.46608e-10 
186 1 0.0875139 0.017533 0.00736016 0.00567245 -0.000210004 0.000333994 -3.30355e-10 -2.59886e-10 1.96855e-10 5e-05 1.46608e-10 
187 1 0.0936639 0.0170566 0.00737964 0.00598703 0.000172872 -0.00037961 -1.75043e-10 -2.96656e-10 1.75641e-10 5e-05 1.46608e-10 
188 1 0.0937057 0.0180682 0.0069814 0.00561857 0.000429537 6.25155e-05 4.43895e-11 -1.13046e-10 3.73744e-11 5e-05 1.46608e-10 
189 1 0.0937012 0.0172158 0.00726452 0.00590689 0.000194644 -0.000399102 2.39383e-10 -7.66446e-12 1.92608e-10 5e-05 1.46608e-10 
190 1 0.0815814 0.0175387 0.00725831 0.00579687 0.000263141 0.000247296 1.53888e-12 3.10184e-12 -1.1915e-12 5e-05 1.46608e-10 
191 1 0.0936869 0.018459 0.00689477 0.00569793 0.000394477 7.0519e-05 2.63008e-11 1.83344e-10 -8.87314e-11 5e-05 1.46608e-10 
192 1 0.0876997 0.0172759 0.00738263 0.00577293 -0.000153156 0.000316808 3.19374e-11 1.89798e-10 -3.46998e-11 5e-05 1.46608e-10 
193 1 0.0934485 0.0166189 0.00770092 0.00615762 5.00494e-05 -0.000300851 4.61399e-11 2.98983e-11 -2.33849e-11 5e-05 1.46608e-10 
194 1 0.0875194 0.016882 0.0075348 0.00607105 -0.000213692 0.000355958 2.38903e-11 -3.87143e-11 1.59746e-11 5e-05 1.46608e-10 
195 1 0.0879225 0.0178981 0.00711216 0.00561451 -0.000260597 -0.000183928 3.93859e-11 8.90017e-11 -5.83739e-11 5e-05 1.46608e-10 
196 1 0.0869738 0.0155671 0.00857744 0.00552649 -0.000245397 2.01131e-05 1.79657e-12 -7.07458e-12 9.58219e-12 5e-05 1.46608e-10 
197 1 0.0815256 0.0176848 0.00718447 0.00559069 0.000291654 0.000220327 2.34452e-12 1.31977e-12 -1.41216e-12 5e-05 1.46608e-10 
198 1 0.0873694 0.0170021 0.00747932 0.00602351 -0.000243206 0.00036585 -5.06926e-12 1.7127e-11 -7.02166e-12 5e-05 1.46608e-10 
199 1 0.0875152 0.0176393 0.00722874 0.00564784 -0.000208364 0.000334261 -1.60343e-10 -1.72765e-10 6.88405e-11 5e-05 1.46608e-10 
200 1 0.0874662 0.0170332 0.00747096 0.00602131 -0.000237267 0.000363315 1.43575e-10 1.77386e-11 5.10794e-12 5e-05 1.46608e-10 
201 1 0.0879119 0.0182621 0.00693458 0.00544547 -0.000356675 -0.000132683 -4.07493e-11 3.67891e-11 5.11155e-11 5e-05 1.46608e-10 
202 1 0.0877199 0.0173673 0.00734636 0.00578876 -9.66964e-05 0.000301003 2.30683e-10 6.34463e-10 -3.18424e-10 5e-05 1.46608e-10 
203 1 0.0939397 0.0181221 0.00697602 0.00576498 0.000499561 5.03991e-05 -2.3417e-11 -3.65421e-11 -7.30378e-12 5e-05 1.46608e-10 
204 1 0.0874447 0.0169424 0.00750693 0.00605328 -0.00023038 0.000362045 -8.97991e-11 4.2512e-11 -1.69007e-11 5e-05 1.46608e-10 
205 1 0.0877672 0.0180095 0.00711615 0.00548645 -0.00035509 -0.000128255 -8.77703e-11 -5.49845e-11 -4.15473e-11 5e-05 1.46608e-10 
206 1 0.0877446 0.0178172 0.00716188 0.00567039 -0.000187795 -4.97078e-05 1.6034e-11 4.92304e-11 -2.88559e-10 5e-05 1.46608e-10 
207 1 0.0872742 0.0162311 0.00782533 0.0061664 -0.000303957 0.000250073 6.63049e-11 6.48053e-11 -2.63302e-12 5e-05 1.46608e-10 
208 1 0.0875905 0.0175788 0.00725461 0.00564494 -0.000191429 0.000326234 6.99096e-13 -1.38137e-10 7.36866e-11 5e-05 1.46608e-10 
209 1 0.087498 0.0167912 0.00757078 0.0060806 -0.000218408 0.000358263 -1.49568e-11 6.13366e-11 -2.30779e-11 5e-05 1.46608e-10 
210 1 0.0935699 0.0175808 0.00718315 0.00578018 0.000417625 7.59447e-05 6.34107e-12 2.19815e-10 7.30477e-11 5e-05 1.46608e-10 
211 1 0.0937811 0.0180041 0.00699763 0.00578702 0.000436793 6.47478e-05 -6.72958e-11 -1.04312e-11 1.65792e-11 5e-05 1.46608e-10 
212 1 0.087822 0.0177587 0.00718594 0.00577378 -0.00015408 -0.000249096 -1.10654e-10 -3.78371e-11 1.63594e-11 5e-05 1.46608e-10 
213 1 0.0936451 0.016977 0.00743718 0.00608784 0.000150356 -0.000369929 -4.92062e-10 -3.7251e-10 3.21807e-10 5e-05 1.46608e-10 
214 1 0.0937608 0.0179686 0.00708886 0.0058138 0.000410489 6.47643e-05 -8.72246e-12 6.65209e-11 4.33344e-11 5e-05 1.46608e-10 
215 1 0.0815613 0.0174499 0.00729971 0.00577179 0.000268824 0.000242927 2.01824e-11 2.2694e-11 -8.62349e-12 5e-05 1.46608e-10 
216 1 0.0875549 0.0178207 0.00715467 0.00564379 -0.00018908 0.000326915 8.62419e-11 5.47525e-11 -8.0118e-12 5e-05 1.46608e-10 
217 1 0.0934052 0.0164607 0.00781554 0.00612971 5.14891e-05 -0.000300667 1.18784e-10 1.14945e-10 -8.54885e-11 5e-05 1.46608e-10 
218 1 0.0876805 0.0179611 0.00710437 0.00544814 -0.00028452 -0.000114875 -7.49955e-11 -1.37568e-10 -1.31865e-10 5e-05 1.46608e-10 
219 1 0.0936502 0.0181867 0.00705217 0.00562984 0.000388726 5.8143e-05 -2.31123e-11 4.41238e-11 -1.90825e-11 5e-05 1.46608e-10 
220 1 0.0875765 0.0178007 0.00725021 0.00569196 -0.000161703 0.000324403 1.04886e-11 5.02087e-11 -4.13193e-12 5e-05 1.46608e-10 
221 1 0.0814576 0.0170063 0.00750624 0.00608073 0.000223856 0.000284491 1.91443e-12 2.54214e-12 -1.01038e-12 5e-05 1.46608e-10 
222 1 0.0934268 0.0165398 0.00775825 0.00614792 5.54687e-05 -0.000304226 3.72675e-11 2.60591e-11 -1.92253e-11 5e-05 1.46608e-10 
223 1 0.0876451 0.0174276 0.00731854 0.00573863 -0.000145589 0.000310565 3.21751e-10 2.18773e-10 1.15027e-11 5e-05 1.46608e-10 
224 1 0.0874337 0.0172746 0.00737137 0.0059377 -0.000273611 0.000378025 -4.22852e-10 -9.27773e-10 5.70288e-10 5e-05 1.46608e-10 
225 1 0.0937097 0.017705 0.00706157 0.00571596 0.000419584 6.58008e-05 1.83098e-10 -2.33461e-10 4.67705e-11 5e-05 1.46608e-10 
226 1 0.0878506 0.017588 0.00726241 0.00579287 -3.26058e-05 0.000270229 9.71978e-12 5.12967e-11 -3.38201e-11 5e-05 1.46608e-10 
227 1 0.0815212 0.0172723 0.0073825 0.00570677 0.000265632 0.000240269 -7.49137e-12 -3.15836e-12 -8.45741e-13 5e-05 1.46608e-10 
228 1 0.081486 0.0175071 0.00726733 0.00576655 0.000263932 0.000245105 3.36804e-12 3.73847e-12 4.97362e-13 5e-05 1.46608e-10 
229 1 0.087557 0.0177095 0.00728639 0.00566139 -0.000208453 0.000335257 1.44613e-10 -1.03319e-10 2.46249e-11 5e-05 1.46608e-10 
230 1 0.0878363 0.0183242 0.00690842 0.00546345 -0.000365119 -0.000125577 -7.76307e-11 1.27322e-10 -3.00024e-11 5e-05 1.46608e-10 
231 1 0.0814459 0.0173295 0.00735011 0.00571105 0.000271213 0.000237955 -2.55123e-11 -2.2613e-11 6.01756e-12 5e-05 1.46608e-10 
232 1 0.0873909 0.0163372 0.00775066 0.00616231 -0.000237252 0.000369943 6.52277e-11 1.64308e-10 -7.60096e-11 5e-05 1.46608e-10 
233 1 0.0875408 0.0169728 0.00749883 0.00604521 -0.000212685 0.000354332 3.04871e-11 -5.06127e-11 2.15824e-11 5e-05 1.46608e-10 
234 1 0.0936771 0.0181793 0.00695612 0.00563869 0.000400411 6.51653e-05 -4.8928e-11 2.13232e-12 -2.35136e-11 5e-05 1.46608e-10 
235 1 0.0878025 0.0185837 0.0069054 0.00555882 -0.000299083 0.000281231 1.00154e-10 -1.87356e-10 -1.44123e-11 5e-05 1.46608e-10 
236 1 0.0878543 0.0184201 0.00688634 0.00557786 -0.00028954 0.000287101 -1.66026e-10 -9.65135e-12 -3.66313e-11 5e-05 1.46608e-10 
237 1 0.0879537 0.0184533 0.00689658 0.00556127 -0.00029456 0.000286653 2.44546e-10 -1.5266e-10 -5.7673e-11 5e-05 1.46608e-10 
239 1 0.0812531 0.0165325 0.00772085 0.00616927 0.000195363 0.000303879 -1.73765e-12 -2.03125e-12 6.30825e-13 5e-05 1.46608e-10 
240 1 0.0813177 0.0167981 0.00759732 0.00611968 0.000203945 0.000296574 -8.07933e-13 -1.4884e-12 5.64774e-13 5e-05 1.46608e-10 
241 1 0.0812315 0.0164439 0.00776202 0.00618567 0.000192541 0.000306321 -3.47959e-13 -4.26452e-12 2.26981e-12 5e-05 1.46608e-10 
242 1 0.0876581 0.0170938 0.00745482 0.0059321 -0.000194423 0.000342173 -5.22124e-11 -1.17735e-11 -1.2051e-12 5e-05 1.46608e-10 
243 1 0.0874233 0.0168516 0.00754291 0.00607589 -0.000223551 0.000360489 -1.40913e-10 -1.44496e-11 -5.41595e-12 5e-05 1.46608e-10 
244 1 0.0812746 0.016621 0.00767967 0.00615266 0.000198191 0.000301474 -7.34188e-13 -3.34564e-12 1.51244e-12 5e-05 1.46608e-10 
246 1 0.0814039 0.0171523 0.00743263 0.00605421 0.000215883 0.000286608 -3.4223e-12 1.98882e-13 -5.44057e-13 5e-05 1.46608e-10 