ITEM: TIMESTEP
38200000
ITEM: NUMBER OF ATOMS
271
ITEM: BOX BOUNDS ff ff ff
-0.02 0.43
-0.02 0.06
-0.02 0.07
ITEM: ATOMS id type x y z vx vy vz fx fy fz radius mass 
1 1 0.235287 0.0156853 0.00843958 0.00600364 -0.000368228 0.000339412 2.34776e-11 -2.0887e-10 3.32707e-10 5e-05 1.46608e-10 
2 1 0.236117 0.018316 0.00692634 0.00551911 -0.000552995 0.000116187 6.28385e-11 -1.6193e-11 2.89923e-12 5e-05 1.46608e-10 
3 1 0.23027 0.018222 0.00700378 0.00565894 0.000208126 2.69279e-05 2.84859e-10 6.5222e-11 1.10721e-11 5e-05 1.46608e-10 
4 1 0.236189 0.0182473 0.00693975 0.00552181 -0.000546888 0.000115348 1.09612e-10 -1.65451e-11 5.04362e-12 5e-05 1.46608e-10 
5 1 0.235268 0.015624 0.00851637 0.00596894 -0.000365481 0.000331701 3.24939e-11 -2.54096e-10 3.34794e-10 5e-05 1.46608e-10 
6 1 0.241641 0.0170374 0.00757556 0.00586605 -8.82628e-05 -0.00010854 -1.28681e-11 5.93736e-12 -6.80776e-12 5e-05 1.46608e-10 
7 1 0.235373 0.0159305 0.00813593 0.00620086 -0.000401568 0.000349584 -9.33936e-11 1.48586e-10 -1.99947e-10 5e-05 1.46608e-10 
8 1 0.235244 0.0155641 0.00859284 0.00595144 -0.000366001 0.000329091 7.2749e-11 -1.54578e-10 1.92286e-10 5e-05 1.46608e-10 
9 1 0.241754 0.0174795 0.00718617 0.00560431 -3.34251e-05 -0.000146967 -2.33124e-11 1.14107e-10 -4.63081e-11 5e-05 1.46608e-10 
10 1 0.235814 0.0177642 0.00703935 0.00551424 -0.000555316 4.79805e-05 -2.44684e-11 2.88641e-11 -4.44285e-12 5e-05 1.46608e-10 
11 1 0.235948 0.0179869 0.00698976 0.00555955 -0.000534761 0.000112559 3.25364e-11 -1.55897e-11 1.50338e-11 5e-05 1.46608e-10 
12 1 0.229343 0.0158178 0.00823014 0.00624736 0.000125802 -0.000229379 6.87319e-11 -1.88178e-10 2.6049e-11 5e-05 1.46608e-10 
13 1 0.23518 0.0153808 0.00882154 0.00587135 -0.000354277 0.000322489 -2.79843e-11 5.03119e-11 -7.16993e-11 5e-05 1.46608e-10 
14 1 0.230011 0.0187223 0.00682325 0.00571049 0.000228816 2.15661e-05 1.09307e-11 1.01109e-10 -3.8264e-11 5e-05 1.46608e-10 
15 1 0.236154 0.018155 0.00695756 0.00555996 -0.00054561 0.000114698 1.59591e-11 8.13523e-11 -1.43453e-11 5e-05 1.46608e-10 
16 1 0.23011 0.0187567 0.00682831 0.00635528 0.000216572 -9.91159e-05 2.01898e-10 1.22263e-11 -4.48763e-11 5e-05 1.46608e-10 
17 1 0.236276 0.0182943 0.0069308 0.00551208 -0.000521785 0.000110476 5.30147e-11 2.55715e-11 -5.16235e-12 5e-05 1.46608e-10 
19 1 0.235223 0.0155026 0.00866874 0.00594726 -0.000360314 0.000327721 3.14554e-10 -4.02545e-11 6.37696e-11 5e-05 1.46608e-10 
21 1 0.235776 0.0175777 0.00710003 0.00549478 -0.000626733 -0.000186019 1.46541e-11 -9.42812e-12 -5.65175e-12 5e-05 1.46608e-10 
22 1 0.235929 0.0178906 0.00700836 0.0055657 -0.000542205 0.000118156 4.13452e-11 1.09219e-11 -3.67941e-11 5e-05 1.46608e-10 
23 1 0.229584 0.0164486 0.0078938 0.00609089 3.90819e-05 -0.000402949 -1.48986e-10 7.94205e-11 -2.727e-11 5e-05 1.46608e-10 
24 1 0.241826 0.0178197 0.00702797 0.00565389 6.19016e-05 1.26223e-05 -4.21545e-12 1.55529e-11 -5.19844e-12 5e-05 1.46608e-10 
25 1 0.235438 0.016111 0.00790541 0.00578388 -0.000326334 0.00029083 1.10422e-10 7.55699e-11 -1.81027e-10 5e-05 1.46608e-10 
26 1 0.24172 0.0173315 0.00731637 0.00558881 -3.32975e-05 -0.000146588 -2.96956e-10 1.51898e-10 -5.59057e-11 5e-05 1.46608e-10 
27 1 0.230354 0.0186028 0.00687138 0.00595203 -0.000420435 0.000253234 5.26353e-10 -4.40721e-10 1.55899e-10 5e-05 1.46608e-10 
28 1 0.236063 0.0181145 0.00696524 0.0055571 -0.000525949 0.000110404 2.20168e-11 -1.95875e-11 -4.61585e-12 5e-05 1.46608e-10 
29 1 0.235393 0.0159896 0.00805774 0.00613562 -0.000381996 0.000350674 -5.3952e-11 1.55996e-10 -2.11024e-10 5e-05 1.46608e-10 
30 1 0.235925 0.01807 0.00706054 0.00556586 -0.000545002 0.000111932 6.15593e-11 -2.32911e-10 5.04267e-11 5e-05 1.46608e-10 
31 1 0.235455 0.016173 0.00782882 0.00559089 -0.000303174 0.000259647 -8.90634e-12 7.4502e-11 -8.49898e-11 5e-05 1.46608e-10 
32 1 0.235901 0.017363 0.00716713 0.00554398 -0.000670651 -0.000174753 1.38083e-11 1.15824e-10 -4.30271e-11 5e-05 1.46608e-10 
33 1 0.241663 0.0171106 0.00751099 0.00587374 -8.80749e-05 -0.000108453 -1.03939e-11 4.50382e-12 -5.10368e-12 5e-05 1.46608e-10 
34 1 0.235352 0.0158676 0.00821072 0.00613313 -0.000379371 0.000349817 4.47072e-11 1.28809e-10 -2.3597e-11 5e-05 1.46608e-10 
35 1 0.236072 0.0177536 0.00703512 0.00550404 -0.000526308 0.000111111 -1.34709e-10 -1.71046e-11 3.0484e-11 5e-05 1.46608e-10 
36 1 0.241807 0.0177216 0.00702477 0.00566193 6.08161e-05 1.29799e-05 -1.56617e-11 2.40721e-12 4.24194e-12 5e-05 1.46608e-10 
37 1 0.235954 0.0184491 0.00690028 0.00554316 -0.000542645 0.000114341 7.94095e-12 5.32775e-11 -1.73067e-11 5e-05 1.46608e-10 
38 1 0.23612 0.0187839 0.00683576 0.00614514 -0.000669041 0.000140128 -1.89277e-10 -2.21822e-10 4.26588e-11 5e-05 1.46608e-10 
39 1 0.241845 0.0179179 0.00703118 0.00564411 6.43068e-05 1.28658e-05 2.40854e-11 2.4508e-11 -8.29162e-12 5e-05 1.46608e-10 
41 1 0.2363 0.0183925 0.00691184 0.00550111 -0.000541439 0.000114335 -1.69416e-11 -1.94499e-10 3.61961e-11 5e-05 1.46608e-10 
42 1 0.321436 0.0173475 0.00552525 4.62668e-16 2.2542e-15 8.4636e-14 4.32008e-24 -4.47841e-24 0 5e-05 1.46608e-10 
44 1 0.236083 0.0182237 0.00694415 0.00556471 -0.000534255 0.000111966 -4.66007e-11 -1.72844e-11 7.64471e-12 5e-05 1.46608e-10 
45 1 0.241683 0.017184 0.00744625 0.00542636 -1.11337e-05 -0.00016203 -4.19788e-11 7.68792e-12 -3.10775e-12 5e-05 1.46608e-10 
47 1 0.235311 0.0157459 0.00836398 0.00602853 -0.000368478 0.000340367 -9.31801e-11 -1.20434e-10 2.21091e-10 5e-05 1.46608e-10 
48 1 0.236099 0.0186879 0.00685431 0.00554461 -0.000531455 0.00011214 7.3318e-11 2.71613e-11 2.17925e-12 5e-05 1.46608e-10 
50 1 0.235496 0.0163391 0.00772549 0.00535547 -0.00025842 0.000201998 -6.53756e-11 -4.11292e-11 2.60624e-11 5e-05 1.46608e-10 
51 1 0.235478 0.0162539 0.0077747 0.00538588 -0.000268769 0.000211779 -1.26296e-10 2.21097e-11 -3.04891e-11 5e-05 1.46608e-10 
52 1 0.229259 0.0155752 0.00852425 0.00622638 0.000435437 0.00014217 3.93772e-10 -1.44747e-10 2.24499e-10 5e-05 1.46608e-10 
53 1 0.241788 0.0176294 0.00705829 0.00564454 4.16703e-05 -4.80532e-05 6.47936e-15 7.53021e-13 4.23278e-12 5e-05 1.46608e-10 
54 1 0.236052 0.0184453 0.00697781 0.00557298 -0.000553777 0.000114943 5.56449e-11 7.53554e-11 -3.53572e-11 5e-05 1.46608e-10 
55 1 0.229196 0.0154347 0.00878138 0.00608281 0.000415563 8.31846e-05 -6.00873e-12 -7.22681e-11 1.68287e-10 5e-05 1.46608e-10 
56 1 0.235974 0.0185454 0.00688168 0.00554582 -0.000543124 0.00011598 -3.35289e-12 7.09304e-11 -1.67949e-11 5e-05 1.46608e-10 
57 1 0.241701 0.0172578 0.00738126 0.00550697 -2.28871e-05 -0.000154458 5.60231e-11 1.90855e-12 -7.75952e-13 5e-05 1.46608e-10 
59 1 0.235909 0.0177948 0.00702916 0.00550918 -0.000538928 9.67046e-05 -9.5854e-11 3.22434e-11 -3.71656e-11 5e-05 1.46608e-10 
61 1 0.235769 0.0171285 0.0072705 0.00565292 -0.000451257 0.000312441 -9.64687e-11 1.76605e-10 -7.29518e-11 5e-05 1.46608e-10 
62 1 0.23625 0.018559 0.00687953 0.00552647 -0.000550064 0.000116038 -5.47444e-11 -4.02101e-11 1.02697e-11 5e-05 1.46608e-10 
63 1 0.236253 0.0181723 0.00695439 0.00553286 -0.000534542 0.000113021 1.31745e-10 1.8969e-12 -1.10169e-14 5e-05 1.46608e-10 
64 1 0.241864 0.018016 0.00703438 0.00561861 7.14037e-05 1.302e-05 -1.05505e-11 2.02732e-11 2.28406e-12 5e-05 1.46608e-10 
65 1 0.229531 0.0165978 0.00782361 0.00603302 5.40986e-05 -0.00040683 1.28074e-10 2.46863e-10 -1.27622e-10 5e-05 1.46608e-10 
66 1 0.229175 0.0153889 0.00886794 0.00601801 0.000413188 8.38223e-05 -1.00251e-10 -1.03307e-10 1.82681e-10 5e-05 1.46608e-10 
67 1 0.236033 0.0183692 0.00691589 0.00553819 -0.000543276 0.000114718 3.08354e-11 1.6296e-11 -3.8554e-12 5e-05 1.46608e-10 
68 1 0.235967 0.0175361 0.00710062 0.0054779 -0.000623917 -0.000184386 -5.54372e-11 8.38521e-11 -3.6539e-11 5e-05 1.46608e-10 
69 1 0.236031 0.0185739 0.00695867 0.00557211 -0.000602572 0.000118949 -9.95223e-12 1.68894e-10 -3.54919e-11 5e-05 1.46608e-10 
70 1 0.241736 0.0174056 0.00725121 0.00560298 -2.21932e-05 -0.000149934 -1.02119e-09 7.86686e-10 -2.24767e-10 5e-05 1.46608e-10 
71 1 0.229237 0.0155262 0.0086084 0.00620026 0.000422176 0.000109243 2.74593e-11 -5.36104e-11 1.53362e-10 5e-05 1.46608e-10 
72 1 0.235912 0.0182452 0.00697144 0.00555911 -0.000536842 0.000114516 -4.0291e-11 -4.57089e-11 -6.0036e-11 5e-05 1.46608e-10 
73 1 0.236014 0.0187389 0.0068443 0.00554731 -0.000510597 0.00011006 3.92721e-11 1.48182e-10 -4.97889e-11 5e-05 1.46608e-10 
74 1 0.236079 0.0185916 0.00687292 0.00553818 -0.000538134 0.000114169 -3.5592e-12 1.2872e-10 -2.68331e-11 5e-05 1.46608e-10 
76 1 0.230259 0.0185731 0.00688011 0.00584301 -9.99638e-07 0.000103721 2.03632e-10 3.16022e-11 1.16521e-10 5e-05 1.46608e-10 
77 1 0.236004 0.0178257 0.00702104 0.00550297 -0.000527803 0.000108023 -1.5385e-10 3.33919e-11 -1.98024e-11 5e-05 1.46608e-10 
78 1 0.229991 0.0186297 0.00685546 0.0056903 0.000236433 1.73354e-05 -1.55355e-11 1.10864e-10 -5.96861e-11 5e-05 1.46608e-10 
79 1 0.229297 0.0156634 0.00834875 0.00630556 0.000405652 0.000160386 1.44958e-10 -5.6209e-12 1.19861e-10 5e-05 1.46608e-10 
80 1 0.236227 0.0184588 0.00689887 0.00549847 -0.000549959 0.000115693 -4.67202e-11 -6.65911e-11 1.56406e-11 5e-05 1.46608e-10 
81 1 0.230131 0.0188522 0.00684884 0.00632818 0.000225456 -9.53811e-05 6.93176e-11 -2.02213e-11 -2.65814e-11 5e-05 1.46608e-10 
82 1 0.229364 0.0159003 0.00817786 0.00626939 2.11189e-05 -0.00038979 1.83601e-10 -2.39264e-10 -2.75215e-11 5e-05 1.46608e-10 
83 1 0.230047 0.0184755 0.00691066 0.00569866 0.000262426 9.195e-06 -1.22982e-10 -1.71506e-10 5.87511e-11 5e-05 1.46608e-10 
84 1 0.241773 0.0175533 0.00712128 0.00557939 -2.86905e-05 -0.000148073 -6.28468e-11 2.14771e-11 -1.81077e-11 5e-05 1.46608e-10 
85 1 0.230289 0.0183146 0.00697156 0.00564189 0.000222044 2.21993e-05 -1.41994e-10 7.35087e-11 -2.54804e-11 5e-05 1.46608e-10 
86 1 0.236321 0.0184904 0.00689292 0.00550573 -0.000578003 0.000121384 -9.13994e-11 -1.17421e-10 1.87694e-11 5e-05 1.46608e-10 
87 1 0.236195 0.0187198 0.00684831 0.00613878 -0.000669875 0.000140394 -5.13915e-11 -1.61975e-10 3.27805e-11 5e-05 1.46608e-10 
88 1 0.23566 0.0170163 0.00733441 0.00558021 -0.00032275 0.000229102 -1.2016e-10 1.32918e-10 4.31473e-11 5e-05 1.46608e-10 
89 1 0.236174 0.0186235 0.0068669 0.00553612 -0.000541423 0.00011415 -1.2894e-11 5.34287e-12 1.89887e-12 5e-05 1.46608e-10 
90 1 0.235968 0.0180831 0.00697115 0.00556124 -0.000529416 0.000111336 3.14444e-11 -1.74158e-10 3.37063e-11 5e-05 1.46608e-10 
91 1 0.230326 0.0185037 0.0069057 0.00580991 -3.92564e-05 0.000117124 -1.61619e-10 -2.65962e-10 5.17292e-11 5e-05 1.46608e-10 
92 1 0.23606 0.0184953 0.00689153 0.00555023 -0.000546008 0.000115045 -7.4163e-12 1.12397e-10 -2.94185e-11 5e-05 1.46608e-10 
93 1 0.235536 0.0165087 0.00762752 0.00564563 -0.000293579 0.000241073 -3.31004e-11 -6.42706e-11 7.44895e-11 5e-05 1.46608e-10 
94 1 0.236018 0.0181076 0.00705427 0.00555674 -0.000507003 0.000109791 4.58683e-11 -2.38196e-11 1.51937e-11 5e-05 1.46608e-10 
95 1 0.23588 0.0177502 0.00711373 0.00558776 -0.000921663 -7.99672e-05 -1.12657e-10 -1.75783e-11 -3.21615e-11 5e-05 1.46608e-10 
96 1 0.235556 0.016594 0.00757927 0.00571152 -0.000302409 0.000261048 -1.10098e-11 -7.51064e-11 4.55645e-11 5e-05 1.46608e-10 
97 1 0.229647 0.01671 0.00776098 0.00592717 7.00477e-05 -0.000407113 -4.01899e-11 5.21125e-10 -2.58166e-10 5e-05 1.46608e-10 
98 1 0.236043 0.0180183 0.00698384 0.00555632 -0.000527125 0.000111767 5.3538e-11 -2.91685e-11 6.61044e-12 5e-05 1.46608e-10 
99 1 0.229754 0.0171455 0.00753963 0.00620271 -0.000236619 -0.000273243 -9.72784e-11 3.09187e-11 -1.82788e-12 5e-05 1.46608e-10 
100 1 0.236155 0.0185272 0.00688551 0.00552131 -0.00053865 0.000113193 -7.06092e-11 1.48749e-11 -2.63567e-12 5e-05 1.46608e-10 
101 1 0.229319 0.0157418 0.00829062 0.00629 0.000329331 4.85852e-05 3.28877e-11 -2.75234e-11 1.26354e-10 5e-05 1.46608e-10 
102 1 0.0643568 0.0187248 0.00531097 4.36252e-15 1.04944e-14 8.29555e-14 -3.07939e-21 9.33137e-22 4.48745e-23 5e-05 1.46608e-10 
103 1 0.24257 0.0191927 0.00520306 2.29399e-22 -1.27651e-22 1.23839e-22 0 0 0 5e-05 1.46608e-10 
104 1 0.22995 0.0180217 0.00709552 0.00556381 9.96055e-05 -0.000386267 4.55134e-11 -5.20934e-12 -4.98753e-11 5e-05 1.46608e-10 
105 1 0.230406 0.0186898 0.00684171 0.00419112 0.000865075 -0.000229949 -1.05853e-10 -3.73095e-11 5.49686e-12 5e-05 1.46608e-10 
106 1 0.23023 0.0180373 0.00707017 0.00563602 4.82819e-05 -0.000381128 -1.12751e-10 3.67227e-11 1.87917e-10 5e-05 1.46608e-10 
107 1 0.230212 0.0179497 0.00711454 0.00555943 6.2639e-05 -0.000377897 -2.442e-10 9.40441e-11 -2.89937e-11 5e-05 1.46608e-10 
108 1 0.236044 0.0187101 0.006935 0.00556067 -0.000503212 0.000113318 -2.31059e-10 -1.1208e-10 -9.32681e-11 5e-05 1.46608e-10 
109 1 0.236234 0.0180758 0.00697303 0.00554681 -0.000535429 0.000113253 7.13667e-11 3.17688e-11 -9.13312e-12 5e-05 1.46608e-10 
110 1 0.235576 0.0166783 0.0075296 0.00569194 -0.000318366 0.000242281 9.0865e-11 -5.42029e-11 1.28292e-11 5e-05 1.46608e-10 
111 1 0.235895 0.0176676 0.00705914 0.00548293 -0.000596091 -0.000193561 3.09537e-11 -8.11355e-11 4.77972e-11 5e-05 1.46608e-10 
112 1 0.230008 0.0182902 0.00697513 0.00566253 0.000259599 7.28919e-06 1.05243e-10 5.10784e-11 1.098e-10 5e-05 1.46608e-10 
113 1 0.229615 0.0169463 0.00764652 0.00586163 7.28399e-05 -0.000400698 2.41349e-10 -2.53094e-10 1.63782e-10 5e-05 1.46608e-10 
114 1 0.229972 0.0185371 0.00688768 0.00569025 0.000257287 1.16503e-05 3.12636e-11 1.13011e-10 -2.57559e-11 5e-05 1.46608e-10 
115 1 0.236138 0.0180497 0.00697792 0.00554789 -0.000529994 0.00011208 8.63212e-11 1.30044e-11 3.44811e-13 5e-05 1.46608e-10 
116 1 0.235952 0.0184273 0.00699785 0.00555184 -0.000540491 0.000115212 -5.97826e-11 1.12341e-11 -3.85324e-11 5e-05 1.46608e-10 
117 1 0.236055 0.0189311 0.00680717 0.00618422 -0.000689662 0.000144348 -1.97829e-12 8.4818e-11 -1.07561e-11 5e-05 1.46608e-10 
118 1 0.229817 0.0178196 0.00720344 0.0055124 0.000116363 -0.000404497 4.04759e-11 -6.48978e-11 2.59195e-11 5e-05 1.46608e-10 
119 1 0.236099 0.0178572 0.00701512 0.00550006 -0.000514003 0.000109899 -1.18943e-10 -3.22574e-13 -3.31658e-12 5e-05 1.46608e-10 
120 1 0.235417 0.0160534 0.00798436 0.00601489 -0.000364882 0.000327502 1.04553e-10 2.13154e-10 -1.51898e-10 5e-05 1.46608e-10 
121 1 0.235329 0.015807 0.00828688 0.00608106 -0.000368525 0.000346914 -7.46126e-11 -5.48709e-11 3.20443e-11 5e-05 1.46608e-10 
122 1 0.235859 0.0174832 0.00712746 0.00552561 -0.000602204 -0.000197311 5.13903e-11 8.5017e-11 -4.16852e-11 5e-05 1.46608e-10 
123 1 0.229779 0.0176445 0.00729215 0.0055725 0.000104824 -0.000402645 -4.21484e-11 -8.40942e-11 4.58773e-11 5e-05 1.46608e-10 
124 1 0.235875 0.0175758 0.00709331 0.00549418 -0.000598447 -0.000194969 -2.27097e-11 -5.74207e-11 3.60088e-11 5e-05 1.46608e-10 
125 1 0.236141 0.0188799 0.00681721 0.00614978 -0.000739362 0.000153638 2.1928e-10 4.03794e-10 -7.60865e-11 5e-05 1.46608e-10 
126 1 0.235789 0.0172169 0.00722815 0.00567237 -0.000503775 0.000197093 1.46984e-10 -4.08095e-11 -2.07147e-10 5e-05 1.46608e-10 
127 1 0.230421 0.0187888 0.00682827 0.00415162 0.000979747 0.000120892 -6.05056e-11 4.70391e-12 1.36438e-11 5e-05 1.46608e-10 
128 1 0.235809 0.0174026 0.00715984 0.00556876 -0.000621616 -0.00019685 -3.35967e-12 -3.22861e-11 1.36332e-10 5e-05 1.46608e-10 
129 1 0.235873 0.0180516 0.00697709 0.00555619 -0.000539617 0.000113287 1.44472e-11 6.81647e-12 2.83912e-11 5e-05 1.46608e-10 
131 1 0.23025 0.0181292 0.00703604 0.0056514 0.000197998 3.19493e-05 1.58936e-10 -1.62239e-10 -6.37786e-11 5e-05 1.46608e-10 
132 1 0.235988 0.0181794 0.00695256 0.00556087 -0.000528966 0.000110784 -5.71391e-14 -4.30157e-11 6.18674e-12 5e-05 1.46608e-10 
133 1 0.235834 0.0178591 0.00701429 0.00554076 -0.000541462 0.000116939 -2.49282e-11 4.61571e-11 -2.50326e-11 5e-05 1.46608e-10 
134 1 0.235789 0.0173109 0.00719428 0.00563193 -0.000576568 -2.75161e-05 1.52646e-10 -6.16949e-11 2.49177e-13 5e-05 1.46608e-10 
135 1 0.235202 0.0154417 0.00874513 0.00591812 -0.000353765 0.000320833 -4.91557e-11 9.39382e-11 -1.16318e-10 5e-05 1.46608e-10 
136 1 0.230032 0.0188179 0.00684356 0.00633626 0.000212116 -9.91814e-05 3.28609e-11 -1.65001e-12 -1.5717e-11 5e-05 1.46608e-10 
137 1 0.235517 0.0164236 0.00767667 0.00550528 -0.000278295 0.000219171 -1.85923e-12 -7.34652e-11 5.51e-11 5e-05 1.46608e-10 
138 1 0.236035 0.0182577 0.00702499 0.00556545 -0.000544277 0.000113014 -1.18512e-10 -1.32913e-10 1.98406e-11 5e-05 1.46608e-10 
140 1 0.236023 0.017922 0.00700244 0.00556057 -0.000530763 0.000112863 8.48505e-11 -4.0128e-11 1.1405e-12 5e-05 1.46608e-10 
141 1 0.230027 0.0183829 0.00694289 0.00566977 0.000262525 9.62619e-06 -1.05312e-10 -3.49222e-11 1.75277e-11 5e-05 1.46608e-10 
142 1 0.229761 0.0175568 0.00733652 0.00552511 0.000115901 -0.000404473 -3.0201e-10 5.45398e-11 -1.06086e-11 5e-05 1.46608e-10 
143 1 0.229216 0.0154804 0.00869481 0.00612606 0.000423485 8.21914e-05 -1.07023e-10 -1.53405e-10 1.23972e-10 5e-05 1.46608e-10 
144 1 0.229875 0.0180823 0.00707037 0.00558283 0.000115324 -0.000406772 -8.68803e-12 1.77016e-11 -1.73211e-11 5e-05 1.46608e-10 
147 1 0.230086 0.0186608 0.00684622 0.00574873 0.000256159 1.23726e-05 -1.50803e-10 2.96786e-11 -1.07874e-11 5e-05 1.46608e-10 
148 1 0.22985 0.0171699 0.0075216 0.00585003 0.0004329 -0.000581322 -5.66585e-10 5.21361e-10 -2.21303e-10 5e-05 1.46608e-10 
149 1 0.235674 0.0171055 0.00729154 0.0055993 -0.000357194 0.000177618 -7.47543e-11 2.38839e-10 3.65565e-10 5e-05 1.46608e-10 
150 1 0.0100679 0.0201683 0.00551526 8.3854e-15 1.2449e-15 -8.48743e-14 -1.53804e-23 1.14661e-22 0 5e-05 1.46608e-10 
151 1 0.229723 0.0173815 0.00742526 0.00558012 0.000115376 -0.000407557 -2.27335e-10 3.64588e-11 -9.46108e-12 5e-05 1.46608e-10 
153 1 0.230075 0.0190089 0.00688462 0.00629738 0.000221235 -9.58977e-05 -3.9298e-11 -1.2324e-10 -2.47125e-11 5e-05 1.46608e-10 
154 1 0.229836 0.0179072 0.00715908 0.00552349 0.000113703 -0.000404269 -3.56188e-11 -4.82497e-11 -6.06873e-13 5e-05 1.46608e-10 
155 1 0.230059 0.0176595 0.00726713 0.00549064 0.00011467 -0.000401442 -6.07796e-11 -8.93831e-11 5.51097e-11 5e-05 1.46608e-10 
156 1 0.229988 0.0181973 0.00700742 0.00559139 0.000183957 3.39386e-05 -6.68572e-11 1.53179e-10 -2.50453e-11 5e-05 1.46608e-10 
157 1 0.0219312 0.0187687 0.00551176 -3.82204e-14 8.17029e-14 2.95892e-13 -7.90138e-22 -5.55038e-22 4.98376e-23 5e-05 1.46608e-10 
158 1 0.230233 0.018468 0.00691663 0.00567562 0.000228399 2.344e-05 2.18454e-13 -1.06784e-10 6.68379e-11 5e-05 1.46608e-10 
159 1 0.236271 0.018655 0.00686098 0.00613911 -0.000669485 0.000140137 9.48619e-11 -5.2418e-11 1.13175e-11 5e-05 1.46608e-10 
160 1 0.229856 0.0179947 0.00711473 0.00554803 0.000116743 -0.000405299 -8.53464e-11 2.71823e-11 2.37051e-11 5e-05 1.46608e-10 
162 1 0.230153 0.0189477 0.00686937 0.00630903 0.000230656 -9.32708e-05 -1.15446e-11 -4.63627e-11 -1.44827e-11 5e-05 1.46608e-10 
164 1 0.229711 0.0169713 0.0076282 0.00585592 2.79269e-05 -0.000381743 -1.12582e-10 1.48986e-11 -6.51296e-13 5e-05 1.46608e-10 
165 1 0.230044 0.0180488 0.00707678 0.00558521 0.000126978 -0.000251821 2.33589e-11 1.62446e-10 2.17355e-10 5e-05 1.46608e-10 
166 1 0.235994 0.0186422 0.00686297 0.00553635 -0.000547369 0.000116317 2.28144e-11 1.75896e-10 -3.61013e-11 5e-05 1.46608e-10 
168 1 0.229776 0.0172326 0.00749533 0.00644489 -7.31923e-05 -0.000368308 4.44844e-10 -1.19264e-10 3.97991e-11 5e-05 1.46608e-10 
169 1 0.230208 0.0187901 0.00683341 0.00621503 8.93425e-05 -0.000123123 1.39929e-10 -2.46992e-11 -2.35288e-11 5e-05 1.46608e-10 
170 1 0.230136 0.0180098 0.0070897 0.00559644 0.000101475 -0.000407 -6.40079e-11 2.38694e-10 -1.23773e-10 5e-05 1.46608e-10 
171 1 0.235943 0.0181733 0.00704147 0.00556682 -0.000547486 0.000112655 2.67104e-11 -1.06916e-10 2.05151e-11 5e-05 1.46608e-10 
172 1 0.230025 0.017961 0.00712069 0.00553595 7.71083e-05 -0.000378717 8.10087e-11 1.19487e-11 -4.41808e-11 5e-05 1.46608e-10 
173 1 0.236205 0.018363 0.00691739 0.00550262 -0.000545901 0.000115134 3.82962e-11 -2.55824e-11 6.17076e-12 5e-05 1.46608e-10 
174 1 0.230078 0.0177471 0.00722277 0.00550896 0.000119594 -0.000405422 -8.63372e-11 -1.14906e-10 5.26714e-11 5e-05 1.46608e-10 
175 1 0.223704 0.0172727 0.00733239 0.00548361 0.00047782 1.71351e-05 3.92097e-10 -2.79653e-10 2.87304e-10 5e-05 1.46608e-10 
177 1 0.229893 0.0173475 0.00743136 0.00559488 0.000131411 -0.000416678 -6.23849e-11 -1.27775e-11 1.25018e-11 5e-05 1.46608e-10 
178 1 0.229818 0.0174084 0.00740607 0.00557109 0.000105576 -0.000402155 5.7972e-11 1.46313e-10 -7.04359e-11 5e-05 1.46608e-10 
179 1 0.229893 0.017759 0.00722858 0.00549955 0.000112042 -0.000400954 -1.40569e-10 -1.2681e-10 4.07728e-11 5e-05 1.46608e-10 
181 1 0.230163 0.0185988 0.00686938 0.00589508 0.000194011 3.89221e-05 2.34681e-10 5.12227e-11 -5.961e-11 5e-05 1.46608e-10 
182 1 0.235854 0.0179553 0.0069957 0.00555837 -0.000543306 0.000115743 2.81513e-11 3.75367e-11 3.69479e-11 5e-05 1.46608e-10 
183 1 0.230117 0.0179222 0.00713406 0.00554101 0.000120863 -0.000407853 1.2977e-10 -1.64233e-10 1.143e-10 5e-05 1.46608e-10 
184 1 0.235878 0.0179245 0.00708762 0.00556358 -0.000532288 0.000114862 2.0365e-10 -1.79823e-10 2.37199e-11 5e-05 1.46608e-10 
186 1 0.229702 0.0172944 0.00746953 0.00649005 -0.000103176 -0.000358323 3.57054e-10 -4.84914e-10 1.72318e-10 5e-05 1.46608e-10 
187 1 0.235759 0.0174852 0.00713418 0.00552687 -0.000637236 -0.000185583 4.46478e-11 -2.65525e-11 -2.96349e-11 5e-05 1.46608e-10 
188 1 0.235951 0.0174435 0.00713477 0.00549637 -0.000635617 -0.000182716 -8.62434e-11 1.10978e-10 -4.25091e-11 5e-05 1.46608e-10 
189 1 0.235999 0.018277 0.00693368 0.00555705 -0.000533071 0.00011309 -3.37154e-11 -2.70783e-11 5.00677e-12 5e-05 1.46608e-10 
190 1 0.223974 0.0185424 0.00696675 0.00617467 0.000317222 0.00010641 1.69918e-10 4.2245e-11 2.45705e-11 5e-05 1.46608e-10 
191 1 0.235992 0.0176267 0.00706652 0.0054594 -0.000618762 -0.000190329 -2.19394e-11 5.03375e-11 1.95114e-11 5e-05 1.46608e-10 
192 1 0.230006 0.0178734 0.00716504 0.00550655 8.63802e-05 -0.0003899 1.03386e-10 5.31753e-11 -1.97471e-11 5e-05 1.46608e-10 
193 1 0.236118 0.0179534 0.00699652 0.00552089 -0.000519778 0.000109935 3.64061e-11 1.24454e-12 1.02366e-11 5e-05 1.46608e-10 
194 1 0.161461 0.0182058 0.00533758 1.5136e-15 -1.10135e-14 8.66685e-14 1.14139e-21 1.24775e-22 -3.92911e-24 5e-05 1.46608e-10 
195 1 0.230213 0.0183754 0.00694883 0.00566366 0.00023662 1.79476e-05 -2.30615e-11 -8.05316e-11 5.58277e-11 5e-05 1.46608e-10 
196 1 0.229605 0.0165357 0.00784953 0.00604373 4.87434e-05 -0.000404441 -1.31348e-11 2.1332e-10 -9.69601e-11 5e-05 1.46608e-10 
197 1 0.22376 0.0174981 0.00714254 0.0057641 0.000427977 7.04113e-05 3.57274e-12 1.0277e-10 -5.84207e-11 5e-05 1.46608e-10 
198 1 0.230054 0.0189134 0.00686409 0.00631353 0.000214336 -9.70002e-05 2.69969e-14 -1.02918e-10 -2.14421e-11 5e-05 1.46608e-10 
199 1 0.229952 0.0184445 0.0069199 0.00568299 0.00027867 5.69421e-06 1.47927e-11 1.28452e-10 -7.40659e-11 5e-05 1.46608e-10 
201 1 0.229594 0.0168592 0.00769079 0.00591748 7.85419e-05 -0.000407862 2.61575e-11 -2.05041e-10 1.2872e-10 5e-05 1.46608e-10 
202 1 0.230083 0.0182285 0.00699815 0.00566069 0.000238384 1.86323e-05 8.53213e-11 -1.33313e-11 2.04721e-12 5e-05 1.46608e-10 
203 1 0.2356 0.0167631 0.00748228 0.00561605 -0.000333809 0.00019302 -3.27133e-11 7.71296e-11 6.50349e-11 5e-05 1.46608e-10 
204 1 0.229278 0.0156176 0.00843568 0.00632705 0.000405124 0.000162661 3.5765e-10 -2.26033e-11 2.64275e-10 5e-05 1.46608e-10 
205 1 0.230174 0.018191 0.00701553 0.00567107 0.000227851 1.9262e-05 1.15144e-10 -8.6185e-11 -2.18011e-11 5e-05 1.46608e-10 
206 1 0.229668 0.0167972 0.00771671 0.00588728 7.41034e-05 -0.000406471 3.12028e-10 3.74899e-10 -1.98542e-10 5e-05 1.46608e-10 
207 1 0.229797 0.0173197 0.00745106 0.00561164 0.000156269 -0.000429866 -1.94559e-10 -2.00437e-11 1.22287e-11 5e-05 1.46608e-10 
208 1 0.229969 0.0181096 0.00705172 0.00558981 -2.8648e-05 -0.000703389 -5.31192e-11 -1.6355e-10 -4.61021e-10 5e-05 1.46608e-10 
209 1 0.226785 0.0179098 0.00706175 0.00572958 0.000480419 0.000156466 1.20603e-14 3.46264e-13 -1.83338e-13 5e-05 1.46608e-10 
210 1 0.235796 0.0176702 0.00706766 0.00549589 -0.000596604 -0.000105172 1.1499e-11 1.31045e-11 4.5462e-11 5e-05 1.46608e-10 
211 1 0.235765 0.0174759 0.0072336 0.00562371 -0.000457948 -0.000177385 -3.91875e-11 -1.19488e-10 -1.07654e-10 5e-05 1.46608e-10 
212 1 0.230103 0.0183211 0.00696594 0.00566877 0.000232643 2.0499e-05 6.45213e-11 4.35091e-12 7.57531e-11 5e-05 1.46608e-10 
213 1 0.235935 0.0183524 0.00691898 0.00554559 -0.000538745 0.000114614 -2.69814e-12 -1.10697e-11 2.09973e-12 5e-05 1.46608e-10 
214 1 0.235694 0.0171945 0.00725055 0.00561799 -0.000424934 7.29523e-05 5.11241e-11 -9.80603e-12 -1.90394e-11 5e-05 1.46608e-10 
215 1 0.223952 0.0184448 0.00696865 0.00616586 0.000328171 0.000106696 -5.80356e-11 4.53188e-11 1.82744e-11 5e-05 1.46608e-10 
216 1 0.230064 0.0181384 0.00703667 0.005636 0.000206743 -5.65057e-05 -1.0101e-11 1.75165e-10 3.25068e-10 5e-05 1.46608e-10 
217 1 0.236034 0.018835 0.00682572 0.00614431 -0.000683032 0.00014225 4.92497e-11 1.19802e-10 -1.95979e-11 5e-05 1.46608e-10 
218 1 0.229383 0.0159879 0.0081335 0.00624511 1.73312e-05 -0.000398027 5.31267e-11 -7.30394e-11 3.04959e-11 5e-05 1.46608e-10 
219 1 0.235636 0.0169366 0.00738985 0.00555056 -0.000312727 0.000214057 -1.17765e-10 8.24575e-11 2.62655e-11 5e-05 1.46608e-10 
220 1 0.230194 0.0182828 0.00698105 0.00567798 0.00023959 1.91852e-05 1.35176e-10 -1.18327e-11 1.24359e-11 5e-05 1.46608e-10 
221 1 0.28985 0.0179078 0.00695009 0.00584604 0.000298375 -9.32823e-05 8.9585e-13 4.54919e-14 -1.71654e-14 5e-05 1.46608e-10 
222 1 0.23612 0.0184171 0.00690677 0.00554903 -0.000553661 0.000116157 1.8748e-11 1.18344e-10 -3.2278e-11 5e-05 1.46608e-10 
223 1 0.229931 0.0179341 0.00713987 0.00552306 9.99716e-05 -0.00039379 2.08529e-11 1.14627e-10 8.7756e-11 5e-05 1.46608e-10 
224 1 0.0233192 0.0178475 0.00779357 -0.0225924 0.0226737 -0.0070955 3.55145e-10 -1.25511e-10 -2.72669e-11 5e-05 1.46608e-10 
225 1 0.235977 0.0177222 0.00704103 0.00551077 -0.000530514 0.000113279 -8.65385e-12 4.82391e-11 4.16248e-11 5e-05 1.46608e-10 
226 1 0.229742 0.0174692 0.0073809 0.00555029 0.000120342 -0.000407894 -2.21958e-10 1.27301e-10 -5.11298e-11 5e-05 1.46608e-10 
227 1 0.223892 0.018151 0.00697446 0.00571425 0.00044513 9.23861e-05 1.02037e-10 6.34123e-10 1.33391e-11 5e-05 1.46608e-10 
228 1 0.223722 0.017348 0.00726893 0.00556602 0.000457402 3.63602e-05 5.00819e-12 -1.20091e-10 9.12596e-11 5e-05 1.46608e-10 
229 1 0.230142 0.0185064 0.00690156 0.00568672 0.000241006 4.12255e-05 1.95271e-10 6.86044e-11 -1.69698e-10 5e-05 1.46608e-10 
230 1 0.229552 0.0166849 0.00777934 0.00600721 7.35168e-05 -0.000415861 -7.17309e-11 2.10435e-10 -7.59327e-11 5e-05 1.46608e-10 
231 1 0.223686 0.0171975 0.00739585 0.00553117 0.00047686 2.35834e-05 -4.71538e-11 -4.07263e-10 3.36548e-10 5e-05 1.46608e-10 
232 1 0.229933 0.0183518 0.00695212 0.00567339 0.000289873 9.2821e-06 8.40814e-11 6.1037e-11 -1.43088e-10 5e-05 1.46608e-10 
234 1 0.235893 0.0181479 0.00695849 0.00555557 -0.000536423 0.000113367 1.70471e-11 -5.26751e-11 1.46931e-11 5e-05 1.46608e-10 
235 1 0.230154 0.0180976 0.00704545 0.00563993 0.000222099 1.80948e-05 -9.86476e-11 3.01587e-11 5.5962e-11 5e-05 1.46608e-10 
236 1 0.22951 0.0165106 0.00786788 0.00605768 4.25801e-05 -0.000402588 -1.21069e-10 2.49562e-10 -1.10559e-10 5e-05 1.46608e-10 
237 1 0.229468 0.0163371 0.00795806 0.00613878 1.91504e-05 -0.000395996 2.39426e-11 9.67811e-11 -7.41122e-11 5e-05 1.46608e-10 
239 1 0.22352 0.0165985 0.00789925 0.00588857 0.000300276 0.000204432 1.30598e-11 8.0442e-12 -4.39596e-12 5e-05 1.46608e-10 
240 1 0.223542 0.0166732 0.0078365 0.00589003 0.000314456 0.000192835 1.30694e-11 4.21531e-11 -3.86225e-11 5e-05 1.46608e-10 
241 1 0.223607 0.0168975 0.00764825 0.00587706 0.000366225 0.000147296 -3.32814e-10 -2.60118e-10 2.23171e-10 5e-05 1.46608e-10 
242 1 0.229798 0.0177321 0.00724779 0.00554021 0.000111172 -0.000402948 1.05815e-11 -9.33851e-11 3.8585e-11 5e-05 1.46608e-10 
244 1 0.223564 0.016748 0.00777375 0.00588946 0.000330326 0.000179802 -1.31765e-10 -6.31047e-11 2.24095e-11 5e-05 1.46608e-10 
246 1 0.223668 0.0171223 0.0074592 0.00568177 0.000453894 5.61523e-05 -3.53948e-10 -4.85367e-10 3.56381e-10 5e-05 1.46608e-10 
247 1 0.230329 0.0187502 0.00682187 0.00416398 0.000944899 0.00011388 -9.30239e-11 -1.15236e-11 9.1234e-12 5e-05 1.46608e-10 
248 1 0.229573 0.0167721 0.00773506 0.00596028 8.11725e-05 -0.000414976 -3.57944e-10 1.12571e-11 5.44119e-11 5e-05 1.46608e-10 
249 1 0.223931 0.018347 0.00697057 0.00602197 0.000368614 0.000104324 -2.48851e-10 2.96543e-10 -8.48226e-12 5e-05 1.46608e-10 
250 1 0.229872 0.017258 0.0074768 0.00567345 0.000225995 -0.000468129 -1.48508e-10 3.90312e-11 -3.47183e-12 5e-05 1.46608e-10 
251 1 0.235619 0.0168475 0.00743219 0.00551119 -0.000324373 0.000174672 -1.70875e-10 2.14658e-10 2.01906e-10 5e-05 1.46608e-10 
252 1 0.223794 0.0176683 0.00705334 0.00571972 0.000455772 6.48397e-05 2.12883e-10 2.35852e-10 -1.62865e-10 5e-05 1.46608e-10 
253 1 0.223996 0.01864 0.00696485 0.00618923 0.000322131 0.000108741 -1.77748e-10 1.31433e-10 -2.57078e-11 5e-05 1.46608e-10 
254 1 0.223649 0.0170472 0.00752249 0.00582905 0.000420145 9.70618e-05 -2.32043e-10 -4.40517e-10 4.15682e-10 5e-05 1.46608e-10 
255 1 0.229894 0.0181727 0.00703227 0.00562153 0.000151305 -0.000333663 5.43088e-11 1.2791e-10 -2.9264e-11 5e-05 1.46608e-10 
256 1 0.229987 0.0177859 0.00720939 0.00549331 9.76039e-05 -0.000394173 -7.88733e-11 1.87723e-11 1.33422e-11 5e-05 1.46608e-10 
257 1 0.229949 0.0176107 0.00729812 0.00554737 0.000102732 -0.000399172 5.48525e-11 -9.02596e-11 3.08127e-11 5e-05 1.46608e-10 
258 1 0.229855 0.0175838 0.0073173 0.00551265 0.000127332 -0.000409666 -4.61863e-11 -3.70289e-10 1.95979e-10 5e-05 1.46608e-10 
259 1 0.223816 0.0177624 0.00702731 0.00572662 0.000416546 -0.000111186 1.59209e-10 3.16258e-10 -1.39089e-10 5e-05 1.46608e-10 
261 1 0.229658 0.0171205 0.00755799 0.00610561 4.22142e-06 -0.000385961 -1.1951e-10 3.02281e-10 -1.3986e-10 5e-05 1.46608e-10 