ITEM: TIMESTEP
17000000
ITEM: NUMBER OF ATOMS
287
ITEM: BOX BOUNDS ff ff ff
-0.02 0.43
-0.02 0.06
-0.02 0.07
ITEM: ATOMS id type x y z vx vy vz fx fy fz radius mass 
1 1 0.111977 0.0165493 0.00793363 0.005667 -0.000286025 0.000618692 -9.19786e-11 -4.83779e-11 2.52622e-11 5e-05 1.46608e-10 
2 1 0.112465 0.0176553 0.0072031 0.0060251 1.14559e-05 -0.000371903 1.29792e-11 -2.9131e-10 1.98018e-10 5e-05 1.46608e-10 
3 1 0.105733 0.0158465 0.00818699 0.00559649 -8.56058e-05 4.57814e-06 -9.08869e-10 -1.00277e-10 5.93476e-10 5e-05 1.46608e-10 
4 1 0.112317 0.0178604 0.00707929 0.00595213 -0.000621722 3.60939e-05 -6.67256e-10 5.84236e-10 -5.15583e-10 5e-05 1.46608e-10 
5 1 0.111861 0.0164377 0.00799745 0.00563914 -0.000278037 0.000610149 -2.65086e-11 8.83045e-11 -9.16765e-11 5e-05 1.46608e-10 
6 1 0.117943 0.0167033 0.0076562 0.00601434 -0.000187234 -0.000342787 -4.20201e-10 -6.09249e-10 6.53227e-10 5e-05 1.46608e-10 
7 1 0.112053 0.0171808 0.00752777 0.00591614 -0.000283291 0.000638475 6.67467e-11 1.69186e-10 -1.29569e-10 5e-05 1.46608e-10 
8 1 0.111754 0.016025 0.00825831 0.00553019 -0.000266222 0.000596157 -4.90912e-11 6.13831e-12 1.36262e-11 5e-05 1.46608e-10 
9 1 0.118215 0.0178027 0.00709351 0.0057388 8.1139e-05 0.000190139 2.8212e-10 2.38583e-10 -3.36335e-12 5e-05 1.46608e-10 
10 1 0.111989 0.0169331 0.00768433 0.0057564 -0.000293677 0.000630321 -1.4374e-10 -2.28659e-11 1.06269e-10 5e-05 1.46608e-10 
11 1 0.112528 0.0178129 0.00709734 0.00690982 -0.000288011 -0.000229005 -2.23526e-10 -2.89075e-10 1.9888e-10 5e-05 1.46608e-10 
12 1 0.105937 0.0166563 0.00763751 0.00605162 -0.000310291 -0.000101949 -3.47537e-10 -8.16467e-11 4.71172e-11 5e-05 1.46608e-10 
13 1 0.111839 0.0163572 0.00805287 0.00560599 -0.000276886 0.000603803 5.62424e-11 1.60878e-10 2.53508e-12 5e-05 1.46608e-10 
14 1 0.105663 0.0156485 0.0085145 0.0053699 0.000358698 0.000167487 4.86086e-10 3.65604e-10 -1.2742e-09 5e-05 1.46608e-10 
15 1 0.112192 0.0173718 0.00740585 0.00588285 -0.00066897 1.28169e-05 -3.73981e-10 -5.43601e-11 1.51123e-11 5e-05 1.46608e-10 
16 1 0.105644 0.0156184 0.00860792 0.00531444 0.000353037 0.000130936 3.72092e-10 -3.4159e-10 1.24688e-09 5e-05 1.46608e-10 
17 1 0.111968 0.0168506 0.00773652 0.00574283 -0.000294284 0.000627206 1.30907e-10 2.99576e-11 -3.90047e-11 5e-05 1.46608e-10 
18 1 0.118088 0.0172316 0.00722642 0.00628973 -2.11939e-05 0.000238767 -2.87411e-10 -1.8973e-10 8.30678e-13 5e-05 1.46608e-10 
19 1 0.111818 0.0162727 0.00810175 0.00559576 -0.000271115 0.000603098 -6.39152e-11 4.79435e-11 4.56919e-11 5e-05 1.46608e-10 
21 1 0.111956 0.0164667 0.00798581 0.00564582 -0.00028671 0.000618585 -1.95113e-11 -2.46461e-11 1.81157e-11 5e-05 1.46608e-10 
22 1 0.112097 0.0173491 0.00742899 0.00586801 -0.000371106 0.000461024 -5.14873e-11 -3.26999e-10 -3.6008e-10 5e-05 1.46608e-10 
23 1 0.10614 0.0170944 0.00735893 0.00613125 1.69477e-05 0.000455386 3.06908e-10 1.8317e-10 2.82359e-10 5e-05 1.46608e-10 
24 1 0.118152 0.0175169 0.00716006 0.00620838 -1.08474e-05 0.000229584 1.9812e-10 1.14461e-10 -1.49913e-11 5e-05 1.46608e-10 
25 1 0.112032 0.0170983 0.00757996 0.00583788 -0.000279523 0.000623746 1.40931e-10 3.86954e-11 -1.55979e-10 5e-05 1.46608e-10 
26 1 0.118024 0.0169872 0.00738628 0.00620505 -0.000286375 -0.000268551 -7.36136e-11 -2.73422e-10 -1.14856e-10 5e-05 1.46608e-10 
27 1 0.106022 0.0169842 0.00742512 0.00611148 -7.05415e-05 0.000241132 -4.61717e-10 -5.04158e-10 -1.08723e-09 5e-05 1.46608e-10 
28 1 0.112299 0.0177784 0.00713347 0.00600078 -0.00060746 3.68165e-05 -4.92843e-10 -6.18469e-10 1.00431e-10 5e-05 1.46608e-10 
29 1 0.111796 0.0161901 0.00815393 0.005565 -0.00027407 0.000601592 -5.44693e-11 -1.16413e-10 8.22904e-11 5e-05 1.46608e-10 
30 1 0.112342 0.0175688 0.00726649 0.00606925 -0.000607805 3.21468e-05 5.55521e-11 2.60661e-11 9.6119e-11 5e-05 1.46608e-10 
31 1 0.112075 0.0172634 0.00747559 0.00589852 -0.000265481 0.00064079 -7.36934e-11 1.71543e-10 -2.47565e-10 5e-05 1.46608e-10 
32 1 0.112171 0.0172892 0.00745807 0.00590045 -0.000755412 -5.63197e-05 -2.18756e-10 4.94725e-12 -5.94239e-10 5e-05 1.46608e-10 
33 1 0.117964 0.0167743 0.00758872 0.00605979 -0.000212159 -0.000325826 4.61087e-11 -7.27379e-10 5.55335e-10 5e-05 1.46608e-10 
34 1 0.111946 0.016768 0.0077887 0.00572769 -0.000282849 0.000622473 -5.20353e-11 7.16832e-11 -1.48294e-11 5e-05 1.46608e-10 
35 1 0.112149 0.0172082 0.0075125 0.00583376 -0.000773078 -5.35616e-05 -2.21607e-11 -1.45797e-10 -1.04463e-09 5e-05 1.46608e-10 
36 1 0.118255 0.0179935 0.00704903 0.00572557 2.52917e-05 0.000203674 -1.06901e-10 1.33702e-10 -3.31419e-11 5e-05 1.46608e-10 
37 1 0.112106 0.0170447 0.00762004 0.00583642 -0.000532482 0.00025365 4.4172e-11 -8.34864e-11 1.3876e-11 5e-05 1.46608e-10 
38 1 0.112278 0.0173246 0.00742843 0.00591682 -0.000596556 4.38524e-05 -3.51513e-11 3.42048e-11 7.46223e-11 5e-05 1.46608e-10 
39 1 0.118174 0.017612 0.00713794 0.0061921 1.53612e-06 0.000226185 -4.20518e-10 -1.19995e-10 4.00123e-11 5e-05 1.46608e-10 
41 1 0.111903 0.0166029 0.00789308 0.00567909 -0.000282747 0.000617296 4.37542e-11 -1.57702e-11 2.42327e-11 5e-05 1.46608e-10 
42 1 0.112117 0.017428 0.00737116 0.00584561 -0.000672785 4.05757e-05 -2.19204e-10 -4.63621e-10 -3.01187e-10 5e-05 1.46608e-10 
44 1 0.112299 0.017406 0.00737445 0.00592514 -0.000570587 4.05951e-06 -2.56316e-10 2.89366e-10 -2.95686e-10 5e-05 1.46608e-10 
45 1 0.117984 0.0168453 0.00752124 0.00610207 -0.000247731 -0.000302813 -1.23355e-10 -4.77646e-10 6.61177e-10 5e-05 1.46608e-10 
46 1 0.118066 0.0171453 0.00727222 0.00625584 -0.000162328 -2.07947e-05 -2.25146e-10 5.5159e-11 3.93422e-10 5e-05 1.46608e-10 
47 1 0.111925 0.0166854 0.00784089 0.00570015 -0.00028172 0.00061825 -7.461e-11 -2.35567e-11 -7.01334e-12 5e-05 1.46608e-10 
48 1 0.11216 0.0175916 0.00726432 0.00592943 -0.000955048 -0.000361476 -6.5088e-10 -4.47556e-10 3.12894e-10 5e-05 1.46608e-10 
49 1 0.118045 0.0170619 0.00732309 0.0061845 -0.000313039 -0.000288975 2.24783e-10 1.22263e-09 1.90139e-09 5e-05 1.46608e-10 
50 1 0.112223 0.0178352 0.0071013 0.00587414 -0.000803176 -0.000107056 1.09667e-10 3.04449e-10 -4.67968e-10 5e-05 1.46608e-10 
51 1 0.112203 0.0177536 0.0071555 0.0059597 -0.000911074 -0.000226262 5.04678e-10 5.78842e-11 -4.04719e-10 5e-05 1.46608e-10 
52 1 0.105915 0.016575 0.00769161 0.00601455 -0.000331936 -8.69338e-05 1.7877e-10 1.92161e-11 -1.47175e-11 5e-05 1.46608e-10 
53 1 0.118109 0.0173267 0.0072043 0.00626629 -2.42739e-05 0.000236783 3.82864e-11 2.85066e-10 -6.70903e-11 5e-05 1.46608e-10 
54 1 0.111935 0.0163842 0.008038 0.00562291 -0.000290934 0.000620166 2.87425e-11 -1.12122e-11 4.54179e-12 5e-05 1.46608e-10 
55 1 0.105694 0.0157085 0.0083264 0.00558498 0.000326216 0.000285566 -1.03694e-10 -2.78296e-10 1.00042e-09 5e-05 1.46608e-10 
56 1 0.112128 0.0171263 0.00756578 0.00594508 -0.000689494 0.000135035 9.0139e-10 -2.34137e-10 -1.0448e-09 5e-05 1.46608e-10 
57 1 0.118005 0.0169161 0.00745381 0.00619091 -0.000276913 -0.000271208 -2.0319e-10 -1.9494e-10 2.55627e-10 5e-05 1.46608e-10 
59 1 0.112192 0.0169989 0.00764435 0.00579937 -0.000648666 7.16951e-05 -8.14266e-11 1.52493e-10 -5.00368e-11 5e-05 1.46608e-10 
60 1 0.112213 0.0170803 0.00759039 0.00581042 -0.000643345 6.66121e-05 -3.19562e-10 2.33726e-10 -1.65251e-10 5e-05 1.46608e-10 
61 1 0.111882 0.0165203 0.00794526 0.00566283 -0.000279992 0.000615494 6.09859e-11 5.55821e-11 -4.48678e-11 5e-05 1.46608e-10 
62 1 0.11232 0.0174874 0.00732046 0.00601522 -0.000583885 1.60598e-05 -4.82716e-11 2.81805e-10 -1.7474e-10 5e-05 1.46608e-10 
63 1 0.112257 0.0176156 0.00724236 0.00600077 -0.000787282 -8.69529e-05 7.30941e-11 -5.47222e-11 3.46266e-10 5e-05 1.46608e-10 
64 1 0.118131 0.0174217 0.00718221 0.00621388 -1.85404e-05 0.000232734 3.43481e-10 3.95452e-10 -5.17277e-11 5e-05 1.46608e-10 
65 1 0.106054 0.0167615 0.00756298 0.00607891 -0.000305831 -0.000118803 1.1593e-10 -2.6731e-10 3.72367e-10 5e-05 1.46608e-10 
66 1 0.10599 0.0165175 0.00772528 0.00600482 -0.000316785 -9.66592e-05 3.47414e-11 1.67953e-11 -1.41516e-11 5e-05 1.46608e-10 
67 1 0.112495 0.0177345 0.00715005 0.0063285 -9.52306e-05 -0.000320497 8.21379e-11 -3.75118e-10 2.31096e-10 5e-05 1.46608e-10 
68 1 0.112396 0.0177572 0.00714128 0.00607932 -0.000295712 -0.000173864 -3.66308e-10 4.06962e-10 -2.62579e-10 5e-05 1.46608e-10 
69 1 0.112042 0.0167971 0.00777705 0.00575413 -0.000276061 0.000617947 -6.6658e-11 8.86707e-11 -8.05519e-11 5e-05 1.46608e-10 
70 1 0.118195 0.0177073 0.00711576 0.00586957 6.32562e-05 0.000198395 2.29325e-10 3.86864e-10 -6.3434e-11 5e-05 1.46608e-10 
71 1 0.105681 0.0156799 0.00842123 0.00556029 0.000319818 0.000250181 -5.36274e-10 7.6948e-11 -5.92005e-10 5e-05 1.46608e-10 
72 1 0.112365 0.0176527 0.00721078 0.00606914 -0.000463843 -6.47718e-05 -1.75085e-10 6.59972e-11 9.48456e-12 5e-05 1.46608e-10 
73 1 0.11201 0.0170157 0.00763215 0.00580028 -0.000282079 0.000630656 -1.17863e-10 1.08816e-10 -1.35499e-10 5e-05 1.46608e-10 
74 1 0.112214 0.0174523 0.00734961 0.00588581 -0.000764884 -0.000145869 -2.06928e-10 4.58854e-11 -4.88241e-10 5e-05 1.46608e-10 
76 1 0.106266 0.0176357 0.00713354 0.00568884 0.000186389 0.000458943 -7.49951e-10 8.79706e-10 -4.12545e-10 5e-05 1.46608e-10 
77 1 0.112332 0.0183636 0.00693585 0.00551073 -0.000586969 0.000316524 7.29178e-11 1.08309e-10 -2.84491e-12 5e-05 1.46608e-10 
78 1 0.105753 0.0159226 0.00812509 0.00559213 -0.000196346 -7.59635e-05 1.5575e-10 1.4776e-09 1.01746e-09 5e-05 1.46608e-10 
79 1 0.105958 0.0167376 0.00758341 0.00607591 -0.000307827 -0.000113612 -4.00202e-12 1.57242e-11 4.69821e-11 5e-05 1.46608e-10 
80 1 0.112259 0.0180115 0.00701866 0.00563901 -0.000624981 0.000125507 -1.89168e-10 -6.70807e-12 -6.73389e-11 5e-05 1.46608e-10 
81 1 0.105894 0.0164936 0.0077457 0.00598849 -0.000357285 -7.01976e-05 1.55034e-10 1.79651e-10 -1.23102e-10 5e-05 1.46608e-10 
82 1 0.106044 0.0170678 0.00737479 0.00614684 6.29637e-05 0.000460089 -2.77066e-10 1.39565e-10 -1.00092e-10 5e-05 1.46608e-10 
83 1 0.106085 0.0165409 0.00770523 0.00604818 -0.000305228 -0.000107253 -1.24701e-10 1.64374e-10 -1.18528e-10 5e-05 1.46608e-10 
84 1 0.118235 0.0178981 0.00707127 0.0056958 5.29363e-05 0.000197009 1.99494e-10 3.38843e-10 -1.23774e-10 5e-05 1.46608e-10 
85 1 0.105867 0.0160283 0.00805034 0.00574929 -0.000301192 -9.24674e-05 -2.31115e-10 -1.10504e-10 -2.26304e-10 5e-05 1.46608e-10 
86 1 0.112278 0.0176966 0.00718765 0.00599611 -0.000624642 2.4269e-05 -2.29476e-10 -4.53568e-10 -7.16069e-11 5e-05 1.46608e-10 
87 1 0.11217 0.0169175 0.00769833 0.00575673 -0.000651288 7.4332e-05 -4.15339e-11 2.9991e-10 -1.26738e-10 5e-05 1.46608e-10 
88 1 0.112273 0.0180757 0.00694332 0.00574348 -0.000724238 2.51563e-05 -1.41762e-10 3.04494e-10 2.06496e-10 5e-05 1.46608e-10 
89 1 0.112323 0.018138 0.00700425 0.00558581 -0.00066999 0.000273783 4.19564e-12 4.3334e-11 -4.10627e-11 5e-05 1.46608e-10 
90 1 0.112441 0.0175743 0.00725692 0.00600902 4.07423e-05 -0.000388375 -3.78707e-10 -1.88642e-10 1.24431e-10 5e-05 1.46608e-10 
91 1 0.105979 0.016819 0.00752935 0.0060696 -0.000330202 -0.000146307 5.49928e-10 -4.86674e-11 6.33186e-10 5e-05 1.46608e-10 
92 1 0.112444 0.0180412 0.00695567 0.00570508 -0.00066024 0.000203306 9.18122e-12 -3.11473e-10 1.56532e-10 5e-05 1.46608e-10 
93 1 0.112366 0.0181023 0.00691979 0.00573483 -0.000600735 4.35163e-05 -6.9395e-11 3.73929e-10 3.20934e-11 5e-05 1.46608e-10 
94 1 0.112502 0.0183287 0.00694395 0.00556559 -0.000551696 0.000320832 7.01502e-11 -3.38887e-11 -2.02926e-11 5e-05 1.46608e-10 
95 1 0.112413 0.0181019 0.00702881 0.00566096 -0.000602961 0.000125467 4.72451e-11 4.43772e-11 -1.34892e-10 5e-05 1.46608e-10 
96 1 0.112461 0.0181339 0.00692259 0.00558361 -0.000569139 0.000330894 1.05365e-10 -1.05269e-10 1.0359e-10 5e-05 1.46608e-10 
97 1 0.105851 0.016331 0.00785391 0.00586188 -0.000444428 -7.01333e-06 -1.18997e-10 2.40599e-10 -1.11434e-10 5e-05 1.46608e-10 
98 1 0.112292 0.0181696 0.00691458 0.0055105 -0.00059613 0.000315165 2.03805e-10 2.26422e-10 -2.05483e-11 5e-05 1.46608e-10 
99 1 0.106033 0.0166802 0.00761708 0.00608176 -0.00029929 -0.00010972 -2.83544e-10 -3.06279e-10 1.37086e-10 5e-05 1.46608e-10 
100 1 0.112399 0.0174115 0.00736487 0.00584417 0.000114759 -0.000426338 -5.90267e-11 1.29608e-10 -8.13327e-11 5e-05 1.46608e-10 
101 1 0.105968 0.0164362 0.00777937 0.00598114 -0.000332315 -8.62201e-05 3.43732e-10 1.70011e-10 -1.42315e-10 5e-05 1.46608e-10 
102 1 0.0643568 0.0187248 0.00531097 4.16394e-15 1.05523e-14 8.29586e-14 -3.02748e-22 -1.07146e-22 2.93649e-23 5e-05 1.46608e-10 
103 1 0.24257 0.0191927 0.00520306 -3.43631e-22 2.24983e-22 -5.81428e-22 0 0 0 5e-05 1.46608e-10 
104 1 0.106341 0.0175773 0.00716582 0.00583657 1.48646e-05 0.000551283 -5.24643e-10 6.3534e-10 -4.13746e-10 5e-05 1.46608e-10 
105 1 0.105811 0.0161677 0.00796235 0.00558794 -0.000412519 -6.9558e-06 -1.11258e-10 1.17683e-09 -6.91525e-10 5e-05 1.46608e-10 
106 1 0.106416 0.0175188 0.00719816 0.00582506 0.000110931 0.000506219 4.04994e-12 3.29472e-11 -3.71341e-11 5e-05 1.46608e-10 
107 1 0.105772 0.0160043 0.00807084 0.00555728 -0.000265825 -0.000107859 6.8853e-10 1.00028e-09 2.20284e-10 5e-05 1.46608e-10 
108 1 0.112085 0.0169622 0.00767267 0.00576685 -0.000314462 0.000634905 -3.2059e-10 2.48476e-11 -1.31117e-10 5e-05 1.46608e-10 
109 1 0.112182 0.0176749 0.00721356 0.00595801 -0.000949602 -0.000297054 -3.72663e-10 -1.88545e-10 3.22772e-10 5e-05 1.46608e-10 
110 1 0.112411 0.0187532 0.00697852 0.00533543 -0.000549743 0.000306529 -8.43177e-11 -1.09964e-10 -1.37578e-11 5e-05 1.46608e-10 
111 1 0.112447 0.0184922 0.00695591 0.00551179 -0.000573493 0.000314861 7.27805e-11 2.49065e-11 5.82572e-12 5e-05 1.46608e-10 
112 1 0.105872 0.0164123 0.0077998 0.00596513 -0.000413032 -3.29266e-05 3.44112e-12 1.42899e-10 -1.47622e-10 5e-05 1.46608e-10 
113 1 0.106742 0.0182199 0.00693101 0.00555372 -0.000146741 -0.000306637 2.09747e-10 -2.73723e-10 -5.57951e-11 5e-05 1.46608e-10 
114 1 0.10628 0.0173053 0.00727716 0.00605501 9.8753e-05 0.000531084 2.14521e-09 -1.02191e-09 5.56518e-10 5e-05 1.46608e-10 
115 1 0.112235 0.0175337 0.00729561 0.005964 -0.00066029 7.14119e-05 -4.54581e-10 -1.39729e-10 7.93739e-11 5e-05 1.46608e-10 
116 1 0.112063 0.0168796 0.00772485 0.00571476 -0.000305272 0.000626621 2.35267e-10 1.16467e-10 -1.50801e-10 5e-05 1.46608e-10 
117 1 0.111914 0.0163016 0.00809024 0.00560069 -0.00029278 0.000617951 -9.70623e-12 -2.01888e-11 -7.42308e-14 5e-05 1.46608e-10 
118 1 0.105714 0.015778 0.00825719 0.00558818 0.000167355 0.000183476 -7.58359e-10 -1.41709e-09 5.31674e-10 5e-05 1.46608e-10 
119 1 0.112235 0.0171617 0.00753641 0.0058712 -0.000641257 5.69143e-05 -2.30445e-10 3.02007e-10 -1.93496e-10 5e-05 1.46608e-10 
120 1 0.111775 0.0161076 0.00820612 0.00554577 -0.000274037 0.000601233 1.83717e-10 -2.08937e-12 1.61757e-11 5e-05 1.46608e-10 
121 1 0.111733 0.0159423 0.0083106 0.00532464 -0.000236047 0.000559957 -5.98449e-11 -7.34882e-11 3.36897e-11 5e-05 1.46608e-10 
122 1 0.112392 0.0186557 0.00696786 0.00549551 -0.000584328 0.000313665 -7.09071e-12 -4.86626e-11 -9.97934e-12 5e-05 1.46608e-10 
123 1 0.105907 0.0161917 0.00794187 0.00573253 -0.000284397 -0.000106838 1.13698e-10 3.94358e-10 -2.11189e-10 5e-05 1.46608e-10 
124 1 0.112348 0.0180186 0.00697501 0.00568857 -0.000747743 0.000181408 -3.59399e-10 -2.82557e-10 -2.00644e-10 5e-05 1.46608e-10 
125 1 0.111892 0.016219 0.00814236 0.00557444 -0.000297172 0.000617648 -1.07771e-10 -7.99887e-12 -1.15828e-11 5e-05 1.46608e-10 
126 1 0.112139 0.0175102 0.0073184 0.00587586 -0.000895255 -0.000297954 -4.35917e-10 -5.57681e-10 -5.59651e-11 5e-05 1.46608e-10 
127 1 0.105831 0.0162494 0.0079081 0.00568396 -0.000441234 -8.41171e-07 -3.74655e-10 4.85264e-10 -2.91481e-10 5e-05 1.46608e-10 
128 1 0.11224 0.0179174 0.00704703 0.00558852 -0.000630533 7.42079e-05 -2.15719e-10 4.54394e-10 -8.5117e-11 5e-05 1.46608e-10 
129 1 0.112431 0.018199 0.00701335 0.00558742 -0.000559742 0.000324836 2.84803e-10 -7.09177e-11 -1.3711e-12 5e-05 1.46608e-10 
130 1 0.106162 0.0171832 0.00731857 0.00616454 9.63509e-05 0.000577858 -4.68771e-11 7.31073e-10 -8.81943e-11 5e-05 1.46608e-10 
131 1 0.106011 0.0165989 0.00767118 0.00604861 -0.000308339 -0.000104686 -1.93772e-11 8.01293e-11 2.444e-11 5e-05 1.46608e-10 
132 1 0.112334 0.0179558 0.00705433 0.00573883 -0.000594431 7.42966e-05 1.7339e-10 1.35343e-09 -6.34088e-10 5e-05 1.46608e-10 
133 1 0.112073 0.0165788 0.00792174 0.0056659 -0.000296719 0.000625411 -1.24444e-10 -5.17648e-11 2.99614e-11 5e-05 1.46608e-10 
134 1 0.112257 0.017243 0.00748247 0.00595489 -0.000632762 5.01154e-05 -3.19605e-10 3.52383e-10 -1.7642e-10 5e-05 1.46608e-10 
135 1 0.11187 0.0161365 0.00819455 0.0055479 -0.000300472 0.000619595 -2.00167e-10 9.06949e-12 -6.06422e-11 5e-05 1.46608e-10 
136 1 0.105848 0.0159467 0.00810456 0.00561283 -0.00029554 -0.000108071 1.54072e-10 -9.43731e-11 -2.24222e-11 5e-05 1.46608e-10 
137 1 0.112352 0.018461 0.00694652 0.00550625 -0.000589783 0.000313835 5.40932e-11 5.76541e-11 3.84699e-12 5e-05 1.46608e-10 
138 1 0.11202 0.0167145 0.00782925 0.00571521 -0.000280729 0.000615994 -1.26084e-10 3.9086e-11 -6.98672e-11 5e-05 1.46608e-10 
140 1 0.112467 0.0185898 0.00696661 0.0055069 -0.000571845 0.00031605 -7.58378e-11 -1.83236e-10 -2.50273e-11 5e-05 1.46608e-10 
141 1 0.105887 0.01611 0.0079961 0.0058082 -0.000300553 -9.20101e-05 1.57053e-10 2.54657e-10 -1.0797e-10 5e-05 1.46608e-10 
142 1 0.106301 0.0173957 0.00724028 0.00593624 0.000152283 0.000500371 1.04758e-10 4.13464e-10 -1.45258e-10 5e-05 1.46608e-10 
143 1 0.105792 0.016086 0.0080166 0.00554658 -0.000341876 -7.04588e-05 1.33181e-10 1.60807e-09 -1.13455e-09 5e-05 1.46608e-10 
144 1 0.106258 0.0172149 0.00731404 0.00603449 0.00015458 0.000511397 2.56369e-10 -1.51155e-10 1.14161e-10 5e-05 1.46608e-10 
146 1 0.106107 0.0166223 0.00765106 0.00603529 -0.000337027 -8.61166e-05 -2.30519e-10 3.12536e-10 -1.74018e-10 5e-05 1.46608e-10 
147 1 0.105827 0.0158651 0.00815876 0.00553233 -0.000253802 -0.000115949 6.60987e-10 -7.33152e-10 5.8627e-10 5e-05 1.46608e-10 
148 1 0.106109 0.0173316 0.00724956 0.006167 4.18041e-05 0.000537123 3.13469e-10 3.1371e-11 3.60535e-10 5e-05 1.46608e-10 
149 1 0.112427 0.0183948 0.00694524 0.00553866 -0.000575663 0.000318156 8.70965e-11 1.51999e-11 4.63087e-11 5e-05 1.46608e-10 
150 1 0.106149 0.016785 0.00754286 0.00602554 -0.000334216 -7.25004e-05 1.23768e-10 2.28839e-11 -1.23783e-10 5e-05 1.46608e-10 
151 1 0.10653 0.0176421 0.00715591 0.00583577 0.000118976 0.000505338 -4.74844e-10 -1.18327e-10 -8.95301e-12 5e-05 1.46608e-10 
153 1 0.105947 0.0163548 0.00783349 0.00583673 -0.000299853 -9.91024e-05 2.20291e-10 3.16589e-10 -1.93568e-10 5e-05 1.46608e-10 
154 1 0.106227 0.0174543 0.00720794 0.00590766 0.000138852 0.000506773 7.24797e-10 -1.62177e-10 1.38318e-10 5e-05 1.46608e-10 
155 1 0.106287 0.0177262 0.00709647 0.00576422 0.000172432 0.000485089 -9.42819e-11 8.06997e-10 -1.46482e-10 5e-05 1.46608e-10 
156 1 0.106205 0.0173643 0.00724563 0.0061332 9.93283e-05 0.000524899 1.59903e-09 -3.64111e-10 2.66152e-10 5e-05 1.46608e-10 
157 1 0.0219312 0.0187687 0.00551176 -3.82051e-14 8.16695e-14 2.95903e-13 1.4493e-21 7.49426e-22 -1.86116e-23 5e-05 1.46608e-10 
158 1 0.10631 0.0176963 0.00720959 0.00574853 0.000152439 0.00048937 -5.73892e-10 3.15259e-12 2.48497e-11 5e-05 1.46608e-10 
159 1 0.112415 0.0178392 0.0070871 0.00599671 -0.000291739 -0.000169735 -5.02971e-10 3.80985e-10 -2.52273e-10 5e-05 1.46608e-10 
160 1 0.106172 0.0176031 0.00713854 0.00567754 6.99151e-05 0.000508341 -1.48042e-11 -7.80122e-11 3.22397e-11 5e-05 1.46608e-10 
162 1 0.10613 0.017422 0.00721268 0.006162 3.40309e-05 0.000566754 1.18737e-10 -6.61533e-10 2.31381e-10 5e-05 1.46608e-10 
164 1 0.106458 0.0181249 0.006948 0.00561256 -0.00011853 -0.00031686 -2.9994e-10 3.99739e-11 9.61385e-11 5e-05 1.46608e-10 
165 1 0.106616 0.0179094 0.0070489 0.00563465 0.000141718 0.000476681 3.47878e-10 -3.01446e-10 1.67552e-10 5e-05 1.46608e-10 
166 1 0.112031 0.0164136 0.00802616 0.00562211 -0.000300245 0.000624959 -1.23105e-10 -7.34975e-12 1.51789e-11 5e-05 1.46608e-10 
167 1 0.106128 0.0167037 0.00759696 0.00607313 -0.000339116 -8.70639e-05 6.50064e-10 2.2834e-11 -1.7835e-10 5e-05 1.46608e-10 
168 1 0.106436 0.0176095 0.007161 0.0058155 0.000115767 0.000501875 -2.5851e-10 3.75479e-11 -3.40515e-11 5e-05 1.46608e-10 
169 1 0.106647 0.0181883 0.00693667 0.00555605 -0.000140354 -0.000310244 1.70648e-10 -8.18562e-12 4.51487e-12 5e-05 1.46608e-10 
170 1 0.106456 0.0177006 0.0071236 0.00582515 -3.72832e-05 0.000574825 1.07651e-10 1.68173e-10 -6.58606e-11 5e-05 1.46608e-10 
171 1 0.112052 0.0164961 0.00797397 0.00564445 -0.000299784 0.000626172 -1.01927e-10 -6.44994e-11 3.62134e-11 5e-05 1.46608e-10 
172 1 0.106572 0.0178256 0.00708083 0.00580905 5.57619e-05 0.000528669 7.7766e-11 -1.12604e-10 8.93987e-11 5e-05 1.46608e-10 
173 1 0.112538 0.0180663 0.00693269 0.00567916 -0.000592887 2.57466e-05 1.30325e-11 -1.95901e-10 -1.44767e-10 5e-05 1.46608e-10 
174 1 0.106381 0.0177592 0.00709126 0.00578388 6.00402e-05 0.000524694 -3.7002e-10 2.36686e-10 -1.2132e-10 5e-05 1.46608e-10 
175 1 0.100119 0.0173578 0.00719482 0.00576457 0.000179001 -5.32878e-05 -9.98402e-11 4.60596e-11 -1.7702e-11 5e-05 1.46608e-10 
176 1 0.106184 0.0172735 0.0072817 0.0061373 0.000108309 0.000521661 6.22445e-10 -6.22809e-11 2.10061e-10 5e-05 1.46608e-10 
177 1 0.106212 0.0177913 0.00708731 0.00580042 0.000253468 0.000430507 4.00676e-11 9.62531e-10 1.94267e-10 5e-05 1.46608e-10 
178 1 0.106699 0.0181097 0.00697045 0.0055886 0.000202822 0.000433402 2.07893e-13 -6.82769e-11 -1.72143e-11 5e-05 1.46608e-10 
179 1 0.106604 0.0180811 0.00698672 0.0055863 0.000115873 0.000147392 2.9995e-10 -2.99602e-10 4.52383e-10 5e-05 1.46608e-10 
181 1 0.106163 0.0175849 0.00724377 0.00580494 0.000233659 0.000493078 -2.3336e-10 -6.58273e-10 1.68453e-10 5e-05 1.46608e-10 
182 1 0.111999 0.0166319 0.00788144 0.00568383 -0.000287276 0.000621649 -9.90626e-11 -2.81874e-11 1.08547e-11 5e-05 1.46608e-10 
183 1 0.106362 0.0176679 0.00712871 0.00575494 9.24625e-05 0.000508077 -2.24382e-10 6.57662e-10 -1.9072e-10 5e-05 1.46608e-10 
184 1 0.112504 0.0179721 0.00699573 0.00607644 -0.000506659 -3.10254e-05 4.55248e-10 -2.13531e-10 1.9867e-10 5e-05 1.46608e-10 
185 1 0.106087 0.0172412 0.00728646 0.00617338 7.30569e-05 0.000532358 -7.69995e-10 -4.50921e-10 9.90515e-11 5e-05 1.46608e-10 
186 1 0.106164 0.0174906 0.00727704 0.0058937 0.000250618 0.000509749 -3.16883e-10 -9.16026e-11 -6.62302e-10 5e-05 1.46608e-10 
187 1 0.112377 0.0173301 0.00741884 0.00583253 0.000133618 -0.000438211 -3.05246e-10 2.2839e-10 -1.40325e-10 5e-05 1.46608e-10 
188 1 0.112386 0.0182001 0.00692389 0.00555529 -0.000575016 0.000320475 2.6795e-10 1.6241e-10 -5.45074e-11 5e-05 1.46608e-10 
189 1 0.11242 0.0174929 0.00731089 0.00590607 8.11313e-05 -0.000408681 -8.50213e-11 -5.30645e-11 3.89258e-11 5e-05 1.46608e-10 
190 1 0.100255 0.0175793 0.00713994 0.00573275 0.000163078 -5.09679e-05 -6.77696e-12 -2.42028e-12 -6.68615e-11 5e-05 1.46608e-10 
191 1 0.112372 0.0185584 0.00695719 0.0054965 -0.000588338 0.00031329 1.0775e-11 -2.05809e-11 6.20882e-12 5e-05 1.46608e-10 
192 1 0.106375 0.0173362 0.00727293 0.00563545 0.000199324 0.00045115 -7.68439e-10 4.94911e-10 -2.89576e-10 5e-05 1.46608e-10 
193 1 0.112146 0.0168318 0.00775529 0.00710928 0.00105282 -0.00110178 -9.3757e-12 1.78063e-11 5.54829e-11 5e-05 1.46608e-10 
194 1 0.106192 0.0169477 0.00743466 0.00609622 -0.00034653 -0.000258673 -1.83691e-10 -2.03634e-10 -5.56717e-10 5e-05 1.46608e-10 
195 1 0.106651 0.0179968 0.00701451 0.00553375 0.000183469 0.000452996 4.06758e-10 -4.08797e-10 1.22724e-10 5e-05 1.46608e-10 
196 1 0.105627 0.0155884 0.00870177 0.00549483 0.000295878 0.000295941 1.6309e-10 -5.74415e-10 2.50369e-09 5e-05 1.46608e-10 
197 1 0.10018 0.017643 0.00712433 0.00574565 0.000174049 -6.49383e-05 -2.68237e-11 3.59605e-11 -3.91895e-11 5e-05 1.46608e-10 
198 1 0.106001 0.016901 0.00747632 0.00609561 -0.000254026 -2.62472e-05 -7.14778e-11 -3.39535e-10 -3.84558e-11 5e-05 1.46608e-10 
199 1 0.106152 0.0175123 0.0071758 0.00587938 0.000121997 0.00051247 -9.00388e-11 -1.44458e-09 5.75118e-10 5e-05 1.46608e-10 
200 1 0.106118 0.0170089 0.00740625 0.00608388 -0.00025838 -3.82093e-05 -3.11581e-11 1.42847e-10 1.26255e-10 5e-05 1.46608e-10 
201 1 0.106575 0.0182575 0.00693987 0.00557145 -0.000133946 -0.000309525 2.13617e-10 7.75182e-11 3.28725e-12 5e-05 1.46608e-10 
202 1 0.106396 0.017428 0.00723537 0.00583188 0.000318976 0.000417131 -1.08018e-10 -7.84599e-11 1.45131e-11 5e-05 1.46608e-10 
203 1 0.112542 0.0185234 0.00696529 0.00552569 -0.000546508 0.000319395 1.32901e-11 -5.76749e-11 -6.18012e-13 5e-05 1.46608e-10 
204 1 0.106097 0.0169243 0.00745491 0.00608568 -0.00037962 -0.000223596 -2.96882e-10 -7.4711e-11 1.37183e-10 5e-05 1.46608e-10 
205 1 0.106402 0.0180666 0.00706549 0.00549186 0.000435103 0.000203947 -1.47866e-10 8.3416e-11 2.29268e-10 5e-05 1.46608e-10 
206 1 0.106404 0.0178494 0.00705456 0.00583703 3.25522e-05 0.000542703 -8.55398e-11 -4.30458e-11 -5.61607e-11 5e-05 1.46608e-10 
207 1 0.105927 0.0162733 0.00788766 0.00569059 -0.000271565 -0.000110475 -4.83933e-11 3.97927e-10 -2.94343e-10 5e-05 1.46608e-10 
208 1 0.106247 0.017545 0.00717075 0.00572134 0.000188313 0.000468424 -4.95158e-10 4.20595e-10 -1.66812e-10 5e-05 1.46608e-10 
209 1 0.106171 0.0168663 0.00748876 0.00606799 -0.000352781 -7.78232e-05 8.9675e-12 1.82573e-10 -2.68978e-11 5e-05 1.46608e-10 
210 1 0.112271 0.017923 0.00714195 0.00602501 -0.00040026 -0.000116062 5.57965e-10 -5.51758e-10 -5.22367e-10 5e-05 1.46608e-10 
211 1 0.112482 0.0182313 0.0069333 0.00557463 -0.000555731 0.000335556 1.51686e-10 -9.97799e-11 3.77154e-11 5e-05 1.46608e-10 
212 1 0.106478 0.0177909 0.00708686 0.00581502 3.14805e-06 0.000554136 5.04263e-11 1.09352e-10 -2.35115e-11 5e-05 1.46608e-10 
213 1 0.112356 0.0172486 0.00747285 0.00586448 0.000135047 -0.000441135 -3.4267e-10 3.91602e-10 -2.42834e-10 5e-05 1.46608e-10 
214 1 0.112576 0.0182621 0.0069426 0.0055793 -0.000525678 0.000325334 2.22561e-11 1.27955e-11 -6.97719e-12 5e-05 1.46608e-10 
215 1 0.100235 0.0174842 0.00716344 0.00571727 0.000164634 -4.8574e-05 -9.23828e-11 1.8192e-11 -1.44606e-13 5e-05 1.46608e-10 
216 1 0.106191 0.0176939 0.00710128 0.00574036 0.000127903 0.000492885 -7.60571e-11 -4.33152e-11 -2.15092e-11 5e-05 1.46608e-10 
217 1 0.112095 0.0166615 0.00786853 0.00637738 -3.88957e-05 -0.000356375 -1.28361e-10 1.69022e-10 -5.15776e-11 5e-05 1.46608e-10 
218 1 0.10632 0.0179085 0.00702107 0.00576502 0.000203079 0.000467606 -5.46989e-11 -7.288e-11 9.64246e-11 5e-05 1.46608e-10 
219 1 0.112407 0.0182975 0.00693456 0.00554358 -0.000569237 0.000322367 8.08158e-11 -7.89898e-11 3.34056e-11 5e-05 1.46608e-10 
220 1 0.106238 0.0177575 0.00717775 0.00584525 0.000345371 0.000500104 -2.90777e-10 5.91903e-10 -9.74337e-12 5e-05 1.46608e-10 
221 1 0.100131 0.0170213 0.00730977 0.00634967 4.95258e-05 -1.91114e-05 2.50298e-10 -1.36883e-11 2.22679e-11 5e-05 1.46608e-10 
222 1 0.11212 0.016746 0.00781236 0.00685315 0.000480464 -0.000723462 -1.69371e-10 1.79427e-10 -9.97746e-11 5e-05 1.46608e-10 
223 1 0.106322 0.0174865 0.00720308 0.00578608 0.000272905 0.000442012 1.92849e-10 4.19095e-10 -6.65733e-12 5e-05 1.46608e-10 
224 1 0.106065 0.0171508 0.0073233 0.00618646 9.62098e-05 0.000533589 -5.35991e-12 6.84685e-12 2.43955e-10 5e-05 1.46608e-10 
225 1 0.112425 0.0179224 0.00703263 0.00580901 -0.000260007 -0.000181059 -3.22603e-10 5.5959e-10 -2.92566e-10 5e-05 1.46608e-10 
226 1 0.106553 0.0177324 0.00711916 0.00583589 9.09899e-05 0.000516798 -1.65627e-10 -5.64056e-10 2.36742e-10 5e-05 1.46608e-10 
227 1 0.100195 0.0172941 0.00721044 0.00574275 0.000156639 -4.74771e-05 -2.01358e-11 2.68661e-12 -8.24139e-12 5e-05 1.46608e-10 
228 1 0.100139 0.0174529 0.00717132 0.00571617 0.000189556 -5.47226e-05 2.51703e-11 5.9858e-11 -1.46657e-11 5e-05 1.46608e-10 
229 1 0.106207 0.0176671 0.00720765 0.0058568 0.000287004 0.000521227 -3.26516e-10 -1.56059e-10 -1.97747e-10 5e-05 1.46608e-10 
230 1 0.1065 0.0183238 0.00694325 0.00556929 -0.00013586 -0.000310185 2.40372e-11 6.22525e-11 -3.98458e-11 5e-05 1.46608e-10 
231 1 0.100099 0.0172628 0.00721831 0.00624404 7.63722e-05 -3.03768e-05 -2.52621e-10 -1.68913e-11 -1.98612e-11 5e-05 1.46608e-10 
232 1 0.106064 0.0164595 0.00775935 0.00594447 -0.00033453 -8.18148e-05 -4.80771e-11 -1.66226e-11 1.30849e-11 5e-05 1.46608e-10 
233 1 0.106214 0.0170337 0.00738793 0.00597068 -7.45275e-05 0.000560677 3.75771e-10 -6.12134e-10 1.10328e-09 5e-05 1.46608e-10 
234 1 0.112312 0.0182656 0.00693393 0.00550951 -0.000589669 0.000318298 1.34223e-10 1.70777e-10 -5.41723e-11 5e-05 1.46608e-10 
235 1 0.10639 0.018652 0.00694546 0.0054566 -2.64172e-05 -0.000303138 -1.29909e-10 -2.15909e-10 2.57267e-11 5e-05 1.46608e-10 
236 1 0.10652 0.0184217 0.00694096 0.00556958 -0.000141265 -0.000308147 -3.77211e-11 -5.09843e-11 1.37025e-11 5e-05 1.46608e-10 
237 1 0.10654 0.0185197 0.00693868 0.00537481 -7.23873e-05 -0.000299215 -4.58752e-10 -1.05719e-10 2.3876e-11 5e-05 1.46608e-10 
239 1 0.0999096 0.0165519 0.00770891 0.00611095 7.2331e-05 -3.74576e-05 -2.21824e-10 4.85417e-11 -4.39553e-11 5e-05 1.46608e-10 
240 1 0.0999723 0.0167753 0.00751878 0.00622005 3.98571e-05 -1.53341e-05 -8.977e-11 -9.28301e-11 1.47731e-10 5e-05 1.46608e-10 
241 1 0.0998887 0.0164774 0.00777228 0.00605789 7.47447e-05 -4.18279e-05 -2.73426e-11 4.9603e-11 -8.21991e-11 5e-05 1.46608e-10 
242 1 0.106331 0.0171554 0.00734669 0.00596317 0.0001215 0.000522221 9.84163e-10 -7.09701e-10 4.65056e-10 5e-05 1.46608e-10 
243 1 0.106075 0.0168429 0.00750888 0.00605739 -0.000318902 -0.000134585 9.58187e-11 4.95039e-12 6.57497e-10 5e-05 1.46608e-10 
244 1 0.0999305 0.0166263 0.00764553 0.00615513 5.59699e-05 -2.44123e-05 8.57955e-11 1.90178e-11 5.46285e-11 5e-05 1.46608e-10 
246 1 0.100056 0.0170732 0.00726528 0.0063734 4.14391e-05 -1.05909e-05 1.20894e-10 1.62117e-12 3.77945e-11 5e-05 1.46608e-10 
247 1 0.106346 0.0180063 0.0070083 0.00583752 -1.80516e-06 0.000399084 -1.78478e-10 -8.09966e-11 -1.37833e-10 5e-05 1.46608e-10 