ITEM: TIMESTEP
16000000
ITEM: NUMBER OF ATOMS
287
ITEM: BOX BOUNDS ff ff ff
-0.02 0.43
-0.02 0.06
-0.02 0.07
ITEM: ATOMS id type x y z vx vy vz fx fy fz radius mass 
1 1 0.106144 0.0164229 0.00777919 0.00611937 -0.000381896 -6.02553e-05 -1.7763e-11 -6.42125e-11 3.78112e-11 5e-05 1.46608e-10 
2 1 0.106582 0.0175183 0.00721418 0.00572573 7.78817e-05 0.000512163 2.61212e-10 -4.51467e-11 3.58064e-11 5e-05 1.46608e-10 
3 1 0.0999016 0.015905 0.00824513 0.00607359 -1.31821e-05 -8.98069e-05 4.80033e-11 2.73539e-11 -3.94312e-11 5e-05 1.46608e-10 
4 1 0.106465 0.0178187 0.00707352 0.00563364 0.00011779 0.000501451 3.0575e-10 -1.24778e-10 -4.05391e-11 5e-05 1.46608e-10 
5 1 0.106026 0.016318 0.00785351 0.00611529 -0.000389836 -5.49215e-05 -5.19054e-12 -5.94781e-11 3.35658e-11 5e-05 1.46608e-10 
6 1 0.112181 0.017011 0.00763718 0.00604132 0.000305995 -0.000562368 5.2882e-11 2.05774e-10 -1.36395e-10 5e-05 1.46608e-10 
7 1 0.106217 0.0170588 0.00738085 0.00569761 -2.93329e-05 0.000381773 6.22186e-11 1.88329e-10 -5.90048e-12 5e-05 1.46608e-10 
8 1 0.105917 0.0159117 0.00812386 0.00611134 -0.000384809 -5.83436e-05 2.18664e-11 1.88606e-10 -1.27069e-10 5e-05 1.46608e-10 
9 1 0.112441 0.0180788 0.00694448 0.00557906 0.000323386 -0.000553802 -1.07603e-10 -2.59899e-11 -2.71683e-10 5e-05 1.46608e-10 
10 1 0.106156 0.0168056 0.0075291 0.00612053 -0.000383196 -5.36445e-05 3.42615e-11 -1.56181e-12 -2.37876e-11 5e-05 1.46608e-10 
11 1 0.106619 0.0177037 0.00713785 0.00555629 0.000136738 0.000470775 1.73478e-10 2.35866e-10 -8.8775e-11 5e-05 1.46608e-10 
12 1 0.100119 0.0166556 0.00762128 0.00620128 -6.48848e-06 4.18643e-05 -4.81499e-12 1.30404e-10 -5.49624e-11 5e-05 1.46608e-10 
13 1 0.106004 0.0162368 0.00790758 0.00611444 -0.00038422 -5.89385e-05 -2.02827e-11 -4.7869e-11 2.8319e-11 5e-05 1.46608e-10 
14 1 0.0998175 0.015603 0.0084936 0.00564583 7.57021e-05 -0.000155854 -9.00954e-11 7.52893e-11 -5.93133e-11 5e-05 1.46608e-10 
15 1 0.106351 0.0172732 0.00730362 0.00573841 3.64327e-05 0.000531452 -7.59935e-11 5.92263e-11 -1.70993e-11 5e-05 1.46608e-10 
16 1 0.0997981 0.0155273 0.00855592 0.00564859 7.79143e-05 -0.000157259 2.83821e-11 5.94686e-11 -4.91235e-11 5e-05 1.46608e-10 
17 1 0.106134 0.0167243 0.00758317 0.00612074 -0.000386646 -5.65504e-05 3.12643e-11 -6.4225e-11 6.49978e-11 5e-05 1.46608e-10 
18 1 0.112331 0.0175809 0.00725935 0.00589 0.000225034 -0.00050134 2.02844e-10 1.04142e-10 -7.88415e-11 5e-05 1.46608e-10 
19 1 0.105982 0.0161555 0.00796165 0.00611427 -0.000380046 -6.14765e-05 1.33517e-11 -5.51475e-12 1.00189e-11 5e-05 1.46608e-10 
21 1 0.106122 0.0163416 0.00783326 0.00613585 -0.000382603 -6.08928e-05 4.7527e-11 -2.97373e-11 1.79822e-11 5e-05 1.46608e-10 
22 1 0.106257 0.0172388 0.00730368 0.00573466 4.46348e-05 0.000523006 4.40559e-11 1.06363e-10 -2.66996e-11 5e-05 1.46608e-10 
23 1 0.100308 0.0170556 0.00728118 0.00580972 0.000111234 -6.8705e-05 -1.22099e-10 1.07948e-10 -1.85765e-10 5e-05 1.46608e-10 
24 1 0.112386 0.017827 0.00709678 0.00565713 0.000290414 -0.000529835 -1.58271e-10 9.54704e-11 -7.00979e-11 5e-05 1.46608e-10 
25 1 0.106197 0.016971 0.00742428 0.00564624 -0.000180373 6.8152e-05 9.34708e-12 1.53552e-10 2.62071e-11 5e-05 1.46608e-10 
26 1 0.112268 0.0173364 0.00742137 0.00602758 0.000208001 -0.00049784 -3.68246e-11 -6.52192e-11 4.0509e-11 5e-05 1.46608e-10 
27 1 0.100196 0.0169544 0.00736699 0.00600671 1.0937e-05 1.05455e-05 1.26459e-10 6.32899e-11 -7.83457e-11 5e-05 1.46608e-10 
28 1 0.106451 0.0177244 0.00711285 0.00564052 0.000102441 0.000492727 8.60605e-11 -7.2719e-11 4.54211e-11 5e-05 1.46608e-10 
29 1 0.105961 0.0160742 0.00801572 0.00611411 -0.000378813 -6.18421e-05 4.18758e-11 7.22807e-11 -5.2928e-11 5e-05 1.46608e-10 
30 1 0.106487 0.0174853 0.00721934 0.00580111 9.35367e-05 0.000513278 -1.42057e-10 1.4043e-11 -1.58817e-11 5e-05 1.46608e-10 
31 1 0.106237 0.0171482 0.00734079 0.00572542 3.67044e-05 0.000530721 1.36855e-10 1.65174e-10 -3.2449e-12 5e-05 1.46608e-10 
32 1 0.106332 0.0171806 0.00733586 0.00572408 4.20799e-05 0.00052779 -8.59691e-11 1.33395e-11 -1.12394e-10 5e-05 1.46608e-10 
33 1 0.112203 0.0170924 0.00758323 0.00604781 0.000319345 -0.000571389 5.25255e-11 2.0308e-10 -1.3477e-10 5e-05 1.46608e-10 
34 1 0.106113 0.0166431 0.00763723 0.00612201 -0.000388304 -5.70087e-05 6.7656e-12 -7.99902e-11 5.03537e-11 5e-05 1.46608e-10 
35 1 0.106311 0.01709 0.00737297 0.00568409 6.36936e-06 0.000539952 5.12693e-11 -1.28484e-10 3.92017e-11 5e-05 1.46608e-10 
36 1 0.112476 0.0182734 0.00693696 0.00569119 0.000506853 0.000428865 -6.25357e-11 -7.98218e-11 3.38823e-11 5e-05 1.46608e-10 
37 1 0.106272 0.0169133 0.00745723 0.00561044 -8.76073e-05 0.000212003 9.39529e-11 -1.46307e-10 1.39344e-10 5e-05 1.46608e-10 
38 1 0.106426 0.017213 0.00733092 0.00572841 2.37419e-05 0.000534926 -1.5454e-10 -2.27695e-11 -3.7417e-11 5e-05 1.46608e-10 
39 1 0.112402 0.0179093 0.0070425 0.00558522 0.000308038 -0.000534686 4.00947e-11 6.8256e-11 -1.19021e-11 5e-05 1.46608e-10 
41 1 0.106069 0.0164806 0.00774537 0.00611465 -0.000392495 -5.3346e-05 -1.34643e-11 -5.12044e-11 3.26125e-11 5e-05 1.46608e-10 
42 1 0.106277 0.0173294 0.00726657 0.00576022 5.83717e-05 0.000523099 -4.39916e-11 4.20797e-11 -8.61812e-11 5e-05 1.46608e-10 
44 1 0.106447 0.0173054 0.00729717 0.00576821 7.16125e-05 0.000497797 4.69941e-11 4.01502e-10 -2.5493e-11 5e-05 1.46608e-10 
45 1 0.112224 0.0171737 0.00752927 0.00601993 0.000207337 -0.000497233 -1.40097e-10 -5.05213e-10 3.32842e-10 5e-05 1.46608e-10 
46 1 0.112311 0.0174992 0.00731343 0.00600032 0.000204075 -0.000493552 1.80839e-10 1.70942e-10 -1.15881e-10 5e-05 1.46608e-10 
47 1 0.106091 0.0165618 0.0076913 0.00612106 -0.000391145 -5.44328e-05 -9.70233e-12 -5.5507e-11 3.23805e-11 5e-05 1.46608e-10 
48 1 0.106317 0.0175107 0.00719224 0.00556539 5.6221e-05 0.000505716 -1.49745e-11 -6.46231e-11 2.51019e-11 5e-05 1.46608e-10 
49 1 0.11229 0.0174177 0.00736741 0.00603236 0.00020556 -0.000495897 -2.97145e-11 1.38344e-10 -9.15487e-11 5e-05 1.46608e-10 
50 1 0.106376 0.0177911 0.00711151 0.00563446 8.37981e-05 0.000519609 7.6645e-11 -4.19164e-12 -9.03318e-11 5e-05 1.46608e-10 
51 1 0.106356 0.0176922 0.0071177 0.00562509 1.83543e-05 0.000528107 -1.36156e-11 -6.92092e-11 2.85661e-11 5e-05 1.46608e-10 
52 1 0.100096 0.0165814 0.00768444 0.00618794 -7.80978e-06 4.52168e-05 -1.1389e-10 8.96717e-11 -4.93519e-11 5e-05 1.46608e-10 
53 1 0.112349 0.017663 0.00720514 0.00583287 0.000241505 -0.000508125 1.4408e-10 1.25345e-10 -5.96684e-11 5e-05 1.46608e-10 
54 1 0.1061 0.0162603 0.00788738 0.00614056 -0.000369779 -6.93539e-05 9.30709e-11 -2.35495e-11 1.03753e-11 5e-05 1.46608e-10 
55 1 0.0998583 0.0157542 0.00836921 0.00604375 1.88125e-06 -0.000102082 2.64147e-12 3.26175e-11 -1.79814e-11 5e-05 1.46608e-10 
56 1 0.106291 0.0169993 0.00741014 0.00566805 1.72668e-05 0.000535882 1.43969e-10 1.66631e-10 2.77781e-11 5e-05 1.46608e-10 
57 1 0.112246 0.0172551 0.00747532 0.00602331 0.000207278 -0.000497474 -8.43963e-11 -3.74287e-10 2.55462e-10 5e-05 1.46608e-10 
59 1 0.106347 0.0168542 0.00748782 0.00563231 -0.000378029 -0.00023025 -9.02696e-11 -1.47827e-10 -3.29163e-10 5e-05 1.46608e-10 
60 1 0.106367 0.016941 0.00744248 0.00563128 2.57121e-05 0.000526652 -5.68246e-11 -4.21587e-11 5.73415e-11 5e-05 1.46608e-10 
61 1 0.106047 0.0163993 0.00779944 0.00611495 -0.000393512 -5.26454e-05 -6.79641e-12 -5.44465e-11 3.9511e-11 5e-05 1.46608e-10 
62 1 0.106467 0.0173946 0.00725653 0.00581458 7.43161e-05 0.000522492 -1.26205e-10 2.22557e-10 -1.12094e-10 5e-05 1.46608e-10 
63 1 0.106411 0.0175448 0.00719141 0.00578793 8.38843e-05 0.000514751 -8.67666e-11 -2.53993e-11 -3.58004e-11 5e-05 1.46608e-10 
64 1 0.112367 0.017745 0.00715096 0.00578375 0.00026046 -0.00051695 -4.31284e-11 9.8567e-11 -7.63481e-11 5e-05 1.46608e-10 
65 1 0.100237 0.0167557 0.00753644 0.00629083 3.7524e-05 -9.69321e-06 3.81296e-10 7.19102e-11 -3.363e-11 5e-05 1.46608e-10 
66 1 0.100173 0.0165322 0.00772662 0.00617107 -3.65042e-05 5.09863e-05 -1.74775e-10 6.45985e-11 -3.46264e-11 5e-05 1.46608e-10 
67 1 0.106602 0.0176099 0.00717659 0.00565659 0.000139727 0.000478191 -3.08268e-12 -1.06763e-10 4.08708e-11 5e-05 1.46608e-10 
68 1 0.106526 0.0176673 0.0071447 0.00565896 0.000135222 0.000479207 -1.74897e-11 -1.81286e-10 8.17204e-11 5e-05 1.46608e-10 
69 1 0.106209 0.0166667 0.00761698 0.00612763 -0.000378166 -6.33258e-05 4.45021e-11 -1.21761e-10 8.81443e-11 5e-05 1.46608e-10 
70 1 0.112421 0.0179913 0.00698832 0.00556495 0.000312518 -0.000553553 -1.19624e-10 6.00624e-11 -4.97275e-11 5e-05 1.46608e-10 
71 1 0.0998372 0.0156787 0.00843132 0.00590761 2.98791e-05 -0.000122701 -2.03099e-11 5.38603e-11 -4.01536e-11 5e-05 1.46608e-10 
72 1 0.106507 0.0175762 0.00718211 0.00574568 0.000108089 0.000500452 1.61679e-10 -8.83362e-11 6.42609e-11 5e-05 1.46608e-10 
73 1 0.106177 0.016887 0.00747496 0.00560123 -0.000277006 -0.000100654 1.83916e-11 7.16853e-12 -4.74214e-11 5e-05 1.46608e-10 
74 1 0.106372 0.0173617 0.0072617 0.00577352 6.74841e-05 0.000517142 -7.30564e-14 2.05393e-10 -5.59636e-12 5e-05 1.46608e-10 
76 1 0.10043 0.0176245 0.00712898 0.00562792 2.88871e-05 5.22647e-07 -1.42393e-10 1.86953e-11 6.10489e-11 5e-05 1.46608e-10 
77 1 0.106493 0.0183631 0.00694315 0.00563286 6.4502e-05 -0.00032559 8.56628e-11 9.38433e-11 1.23116e-10 5e-05 1.46608e-10 
78 1 0.0999236 0.0159803 0.00818314 0.00607822 -2.26027e-05 -8.12841e-05 4.75375e-11 -9.86969e-12 -3.52348e-12 5e-05 1.46608e-10 
79 1 0.10014 0.0167301 0.00755787 0.00621073 -6.69302e-06 3.08515e-05 1.34027e-10 1.59141e-10 -9.75097e-11 5e-05 1.46608e-10 
80 1 0.106415 0.0179845 0.00707899 0.0054903 0.000121748 0.00043553 -8.29054e-11 -1.42344e-10 1.83758e-10 5e-05 1.46608e-10 
81 1 0.100075 0.016507 0.00774768 0.00615698 -1.07934e-05 3.27905e-05 -3.32957e-11 -4.84067e-12 -3.63922e-11 5e-05 1.46608e-10 
82 1 0.100215 0.0170348 0.00731051 0.0058474 2.8568e-05 -1.19038e-05 -1.91549e-10 1.03014e-10 -1.33969e-10 5e-05 1.46608e-10 
83 1 0.100272 0.0165575 0.00770499 0.00629722 1.18021e-05 -0.000114292 -1.19245e-10 -8.96065e-12 3.07252e-11 5e-05 1.46608e-10 
84 1 0.112457 0.0181758 0.00692633 0.00572318 0.00049786 0.000439122 -4.02155e-11 2.77082e-12 -7.01079e-12 5e-05 1.46608e-10 
85 1 0.100042 0.0160795 0.0081 0.00610387 -4.7383e-05 -6.30334e-05 -8.05366e-11 -9.81611e-11 9.536e-11 5e-05 1.46608e-10 
86 1 0.106432 0.0176336 0.00715016 0.00572095 9.16245e-05 0.000505631 7.2342e-11 -1.02239e-10 6.90916e-11 5e-05 1.46608e-10 
87 1 0.106327 0.0167725 0.00754203 0.00560078 -0.000273829 -9.98934e-05 -3.1083e-11 1.37912e-10 -9.64214e-11 5e-05 1.46608e-10 
88 1 0.106436 0.0180793 0.00699449 0.00557381 0.000110443 0.00048271 -8.4817e-12 -2.76819e-10 -2.9336e-10 5e-05 1.46608e-10 
89 1 0.106444 0.0180943 0.00709305 0.00561975 0.00014788 0.00047263 -5.84304e-11 -1.58169e-10 -3.80877e-10 5e-05 1.46608e-10 
90 1 0.106562 0.0174272 0.0072515 0.00581079 0.000101313 0.000509857 -1.16428e-10 1.74214e-10 -7.75679e-11 5e-05 1.46608e-10 
91 1 0.10016 0.0168046 0.00749448 0.00622045 -1.20959e-05 2.8632e-05 2.85791e-10 8.26004e-11 -6.04233e-11 5e-05 1.46608e-10 
92 1 0.10657 0.017953 0.00702572 0.00555597 0.000134553 0.0004745 1.31128e-10 -2.26411e-12 -2.63924e-11 5e-05 1.46608e-10 
93 1 0.106533 0.0180691 0.00697214 0.00556725 0.000125467 0.000483102 8.86151e-11 -3.1487e-11 -8.021e-11 5e-05 1.46608e-10 
94 1 0.106632 0.0182239 0.0069454 0.00557336 9.22545e-05 0.000160318 9.33899e-10 -4.90934e-11 1.14727e-10 5e-05 1.46608e-10 
95 1 0.106552 0.0180425 0.00706659 0.00555244 0.000131502 0.000490761 -2.47707e-10 -1.93026e-10 -2.82322e-11 5e-05 1.46608e-10 
96 1 0.106623 0.0180328 0.00699639 0.00556539 0.000134491 0.00047511 2.23327e-10 -2.78888e-12 2.18153e-11 5e-05 1.46608e-10 
97 1 0.100031 0.0163578 0.00787353 0.00612587 -3.96129e-05 -1.51169e-05 2.58022e-11 -7.10331e-11 -7.94364e-11 5e-05 1.46608e-10 
98 1 0.106455 0.0181773 0.00699912 0.0055383 0.000160978 -0.000117597 -5.16209e-10 -1.91459e-10 -2.3979e-10 5e-05 1.46608e-10 
99 1 0.100216 0.016681 0.00760002 0.00625288 2.25331e-05 3.42022e-06 1.02438e-10 8.03503e-11 -2.99002e-11 5e-05 1.46608e-10 
100 1 0.106522 0.0172457 0.0073259 0.00571998 3.80887e-05 0.000525831 -3.5948e-10 -1.68262e-11 -4.11023e-11 5e-05 1.46608e-10 
101 1 0.100151 0.0164572 0.00778918 0.00614563 -5.48872e-05 1.72718e-05 -4.89744e-11 -1.84302e-11 7.09914e-12 5e-05 1.46608e-10 
102 1 0.0643568 0.0187248 0.00531097 4.35453e-15 1.04533e-14 8.29613e-14 2.70491e-21 -9.98071e-22 -3.10193e-24 5e-05 1.46608e-10 
103 1 0.24257 0.0191927 0.00520306 -2.66492e-22 -1.27651e-22 -5.81428e-22 3.23117e-27 0 0 5e-05 1.46608e-10 
104 1 0.100505 0.0175602 0.00714467 0.00555576 -4.19632e-05 2.21976e-05 3.27882e-11 4.10663e-10 -6.56083e-11 5e-05 1.46608e-10 
105 1 0.0999884 0.016207 0.00799775 0.0061149 -5.86875e-05 -6.64364e-05 3.86619e-12 1.32653e-11 1.51721e-10 5e-05 1.46608e-10 
106 1 0.10058 0.0174958 0.00716037 0.00549807 -8.19523e-05 2.36294e-05 2.44429e-10 5.27282e-10 -2.75352e-11 5e-05 1.46608e-10 
107 1 0.0999449 0.0160557 0.00812104 0.00608732 -3.28646e-05 -7.39694e-05 4.15249e-12 -2.19354e-11 3.12699e-11 5e-05 1.46608e-10 
108 1 0.106252 0.0168298 0.0075085 0.00561318 -0.000263965 -0.000102021 1.65466e-11 8.39735e-11 -7.5912e-11 5e-05 1.46608e-10 
109 1 0.106337 0.0176015 0.00715497 0.00559234 2.1001e-05 0.000523866 -1.3583e-11 -6.5032e-11 2.66672e-11 5e-05 1.46608e-10 
110 1 0.106673 0.0183288 0.00693351 0.0056789 0.000168207 -0.000328225 -6.80882e-10 -5.75418e-12 1.38554e-10 5e-05 1.46608e-10 
111 1 0.106505 0.0183952 0.00703713 0.00574342 0.00044679 -0.000478468 -5.72645e-11 -2.04241e-10 2.15648e-10 5e-05 1.46608e-10 
112 1 0.100054 0.0164326 0.007811 0.0061377 -2.32901e-05 1.42481e-05 8.64384e-11 -9.48206e-11 -8.23875e-11 5e-05 1.46608e-10 
113 1 0.100895 0.0182013 0.00698942 0.00562601 1.03441e-05 3.14349e-06 -3.5646e-10 9.65505e-11 -2.18877e-11 5e-05 1.46608e-10 
114 1 0.100445 0.0172745 0.00721489 0.00550064 0.00026073 -7.24416e-05 -2.43303e-10 -2.47271e-10 1.11979e-10 5e-05 1.46608e-10 
115 1 0.106392 0.0174542 0.00722871 0.00581194 7.57851e-05 0.000521107 -1.22164e-10 8.64555e-11 -6.84833e-11 5e-05 1.46608e-10 
116 1 0.10623 0.016748 0.00756291 0.00613232 -0.000374046 -6.47695e-05 8.40864e-11 1.54027e-10 -8.41862e-11 5e-05 1.46608e-10 
117 1 0.106078 0.016179 0.00794146 0.00611554 -0.000380391 -6.12424e-05 1.3952e-12 -3.47898e-11 2.34794e-11 5e-05 1.46608e-10 
118 1 0.0998799 0.0158296 0.00830717 0.0060603 -3.74454e-06 -9.79283e-05 -5.78816e-11 4.33479e-11 -2.34671e-11 5e-05 1.46608e-10 
119 1 0.106386 0.0170322 0.00740642 0.00566965 2.82501e-05 0.000527715 -2.12711e-10 -3.17438e-11 1.27824e-11 5e-05 1.46608e-10 
120 1 0.105939 0.015993 0.00806979 0.0061136 -0.000380909 -6.06556e-05 6.19098e-11 1.38899e-10 -9.73591e-11 5e-05 1.46608e-10 
121 1 0.105896 0.0158303 0.00817797 0.0056013 -0.000286073 -9.62874e-05 8.21128e-11 2.12861e-10 -1.62712e-10 5e-05 1.46608e-10 
122 1 0.106615 0.0185031 0.00693469 0.00564083 8.94702e-05 -0.00031892 1.34044e-10 1.37061e-10 8.35845e-12 5e-05 1.46608e-10 
123 1 0.100085 0.0162307 0.00797556 0.00613155 -4.57604e-05 -6.43119e-05 -4.11068e-11 -9.48782e-11 1.00303e-10 5e-05 1.46608e-10 
124 1 0.106478 0.017989 0.00700148 0.0055673 0.000116734 0.000485676 -8.081e-11 -2.56848e-10 1.06833e-10 5e-05 1.46608e-10 
125 1 0.106057 0.0160978 0.00799553 0.00611645 -0.000378873 -6.21916e-05 2.77044e-11 -5.95488e-12 2.93383e-13 5e-05 1.46608e-10 
126 1 0.106298 0.01742 0.00722945 0.00579541 6.79668e-05 0.000524011 -6.09166e-11 1.49963e-11 -2.41821e-11 5e-05 1.46608e-10 
127 1 0.10001 0.0162827 0.00793594 0.00611695 -5.32409e-05 -4.72502e-05 -2.20399e-11 -3.36706e-11 6.0256e-11 5e-05 1.46608e-10 
128 1 0.106396 0.0178879 0.00709646 0.00553597 8.98893e-05 0.000355213 -1.07011e-10 -9.55683e-11 -1.93848e-10 5e-05 1.46608e-10 
129 1 0.106536 0.0181391 0.00704352 0.00627932 0.00116692 -0.000549351 -7.47907e-11 2.3801e-10 -3.02153e-10 5e-05 1.46608e-10 
130 1 0.10033 0.0171484 0.00724619 0.00568401 0.00018277 -5.50946e-05 -1.98236e-10 -1.55199e-11 -1.52606e-11 5e-05 1.46608e-10 
131 1 0.100195 0.0166064 0.00766345 0.00623713 1.19553e-05 8.75681e-06 -5.0018e-11 2.04469e-11 -1.59537e-10 5e-05 1.46608e-10 
132 1 0.106488 0.0179158 0.00706894 0.00556031 0.000133793 0.000485421 1.77068e-10 -1.0621e-10 -6.64429e-11 5e-05 1.46608e-10 
133 1 0.106239 0.0164463 0.00775908 0.00618009 -0.000374404 -6.83031e-05 -1.22609e-10 -1.48809e-10 1.05203e-10 5e-05 1.46608e-10 
134 1 0.106406 0.0171223 0.00736809 0.00570074 2.44904e-05 0.000531874 -1.62121e-10 1.78399e-11 1.58699e-11 5e-05 1.46608e-10 
135 1 0.106035 0.0160165 0.0080496 0.00611402 -0.000377637 -6.29414e-05 1.0653e-11 2.95036e-11 -1.85943e-11 5e-05 1.46608e-10 
136 1 0.10002 0.0160041 0.00816204 0.00608032 -4.16792e-05 -6.67012e-05 -1.00326e-10 -9.96381e-11 8.5281e-11 5e-05 1.46608e-10 
137 1 0.106513 0.0184617 0.00694087 0.00565178 8.94088e-05 -0.000318429 2.37839e-12 3.33841e-10 -2.74199e-11 5e-05 1.46608e-10 
138 1 0.106187 0.0165854 0.00767105 0.00613619 -0.000383046 -6.06418e-05 2.56566e-11 -1.20651e-10 7.00517e-11 5e-05 1.46608e-10 
140 1 0.106595 0.018405 0.00693695 0.00566783 0.000103514 -0.000307782 -1.53521e-10 1.3767e-10 3.94815e-11 5e-05 1.46608e-10 
141 1 0.100064 0.0161548 0.00803799 0.00611413 -5.20513e-05 -5.98922e-05 -3.46599e-11 -1.08886e-10 9.14941e-11 5e-05 1.46608e-10 
142 1 0.100465 0.0173698 0.00719133 0.00535548 1.38724e-06 -3.62872e-06 7.08286e-10 8.70756e-11 -1.53137e-10 5e-05 1.46608e-10 
143 1 0.0999665 0.0161314 0.00805934 0.00610202 -4.76558e-05 -6.97225e-05 3.20894e-11 -2.26348e-11 9.14774e-11 5e-05 1.46608e-10 
144 1 0.100425 0.0171791 0.00723846 0.00564986 0.000288763 -8.07927e-05 -6.10895e-11 -5.30802e-11 -1.24647e-11 5e-05 1.46608e-10 
146 1 0.100292 0.0166322 0.0076418 0.00631723 7.27012e-05 -3.65261e-05 1.12466e-11 4.48764e-11 2.81062e-11 5e-05 1.46608e-10 
147 1 0.0999979 0.0159279 0.00822479 0.00607381 -2.01243e-05 -8.53392e-05 8.95099e-11 1.00213e-11 -7.0204e-12 5e-05 1.46608e-10 
148 1 0.100275 0.0173082 0.00720684 0.00539855 7.38417e-05 -3.86615e-05 -6.04227e-10 -3.98106e-12 3.87443e-11 5e-05 1.46608e-10 
149 1 0.106576 0.018307 0.00694098 0.00566457 0.000128177 -0.00023355 5.94924e-11 -1.10658e-10 9.93542e-11 5e-05 1.46608e-10 
150 1 0.100332 0.0167815 0.00751481 0.00622085 8.85957e-05 -5.50392e-05 8.2888e-11 7.06823e-11 -9.20613e-11 5e-05 1.46608e-10 
151 1 0.100694 0.0176224 0.00712976 0.00551677 0.000210648 -4.54556e-05 -6.98225e-11 -3.89843e-11 1.16218e-11 5e-05 1.46608e-10 
153 1 0.10013 0.0163817 0.00785124 0.00612924 -8.15035e-05 -2.93738e-05 2.18038e-11 -8.71836e-11 4.02802e-11 5e-05 1.46608e-10 
154 1 0.10039 0.0174341 0.00717557 0.00541453 7.15551e-05 -2.92597e-05 3.85978e-10 -3.84057e-10 -2.46358e-10 5e-05 1.46608e-10 
155 1 0.10045 0.0177198 0.00710586 0.00553294 0.000149267 -2.92217e-05 5.60245e-11 -7.60376e-11 -9.35859e-12 5e-05 1.46608e-10 
156 1 0.10037 0.017339 0.00719908 0.00533566 8.85512e-05 -3.29806e-05 -2.40619e-11 -1.30069e-11 6.8268e-11 5e-05 1.46608e-10 
157 1 0.0219312 0.0187687 0.00551176 -3.82457e-14 8.17119e-14 2.95886e-13 2.55108e-22 6.67431e-23 1.86116e-23 5e-05 1.46608e-10 
158 1 0.100486 0.0176327 0.00721103 0.0056514 -1.53223e-06 -3.79365e-06 3.76473e-11 -1.48285e-10 2.15478e-11 5e-05 1.46608e-10 
159 1 0.106544 0.0177608 0.00710601 0.00559667 0.000166027 0.000458601 7.63655e-11 1.64464e-11 -7.45546e-11 5e-05 1.46608e-10 
160 1 0.100335 0.0175936 0.0071364 0.00556868 0.000109907 -3.02548e-05 1.90729e-10 -1.24603e-10 -2.94642e-11 5e-05 1.46608e-10 
162 1 0.100295 0.0174033 0.00718332 0.00531727 0.000118364 -4.99772e-05 -3.10024e-10 1.65884e-10 5.67579e-11 5e-05 1.46608e-10 
164 1 0.10061 0.0181115 0.00701092 0.00555788 0.000139126 -2.78517e-05 -8.61131e-11 -1.93113e-10 1.27702e-10 5e-05 1.46608e-10 
165 1 0.100797 0.0178892 0.00706509 0.00550788 0.000178853 -3.84858e-05 -1.529e-10 1.88699e-10 -4.63348e-11 5e-05 1.46608e-10 
166 1 0.106196 0.0162838 0.00786722 0.00619603 -0.000323662 -0.000102166 1.90572e-10 1.25665e-10 -9.23394e-11 5e-05 1.46608e-10 
167 1 0.100313 0.0167067 0.0075784 0.00633145 6.53953e-05 -3.31246e-05 4.97775e-10 3.56765e-11 -1.9885e-11 5e-05 1.46608e-10 
168 1 0.1006 0.0175912 0.00713724 0.00552059 0.000161272 -3.32176e-05 1.03146e-10 -7.68872e-11 1.60635e-11 5e-05 1.46608e-10 
169 1 0.100801 0.0181685 0.00699728 0.00561026 2.68294e-05 -1.51205e-06 -2.89108e-10 1.05592e-10 -2.26022e-11 5e-05 1.46608e-10 
170 1 0.100619 0.0176868 0.00711405 0.00550902 0.000204403 -4.2989e-05 7.28408e-12 1.16659e-10 -3.91897e-11 5e-05 1.46608e-10 
171 1 0.106218 0.0163651 0.00781315 0.00617174 -0.000335671 -9.32102e-05 1.13007e-10 5.89838e-11 -4.29638e-11 5e-05 1.46608e-10 
172 1 0.100734 0.0178137 0.00708335 0.00548529 0.000199161 -4.2987e-05 -7.20535e-11 1.27318e-10 -2.6331e-11 5e-05 1.46608e-10 
173 1 0.106653 0.017897 0.00705776 0.00554063 0.000189576 0.000444292 -1.47142e-10 -2.3283e-10 7.19128e-11 5e-05 1.46608e-10 
174 1 0.100544 0.017751 0.00709838 0.00550128 0.000193462 -4.16528e-05 2.63131e-11 -4.54529e-11 1.14251e-11 5e-05 1.46608e-10 
175 1 0.0943036 0.0174411 0.0071362 0.00561947 -0.000285136 0.000217111 -5.65674e-11 -8.95418e-11 -1.58861e-11 5e-05 1.46608e-10 
176 1 0.10035 0.0172437 0.00722265 0.00552811 0.000186514 -5.54378e-05 -2.55036e-10 5.42626e-11 -2.63606e-11 5e-05 1.46608e-10 
177 1 0.100375 0.0177841 0.00709019 0.00552046 0.000117407 -2.4242e-05 3.33027e-11 1.71181e-11 -1.99855e-11 5e-05 1.46608e-10 
178 1 0.100871 0.018099 0.00701422 0.00555741 -3.07174e-05 1.30643e-05 -2.44211e-10 1.97237e-10 -5.31957e-11 5e-05 1.46608e-10 
179 1 0.100775 0.0180734 0.00702034 0.00555464 5.58896e-05 -8.06911e-06 -3.39096e-10 9.30264e-11 -9.66061e-12 5e-05 1.46608e-10 
181 1 0.100314 0.0175046 0.00725961 0.00521889 8.45425e-05 -3.54094e-05 6.09204e-11 1.12704e-10 -1.82607e-10 5e-05 1.46608e-10 
182 1 0.106165 0.0165042 0.00772512 0.00614779 -0.000387902 -5.79511e-05 -6.36966e-11 -8.86213e-11 6.45382e-11 5e-05 1.46608e-10 
183 1 0.100525 0.0176556 0.00712153 0.00552327 0.000150928 -2.9261e-05 4.88729e-11 -1.37595e-10 2.02757e-11 5e-05 1.46608e-10 
184 1 0.10657 0.0179364 0.00712433 0.00563185 9.89204e-05 0.000469402 -1.87492e-10 1.42447e-10 2.7018e-11 5e-05 1.46608e-10 
185 1 0.100255 0.0172131 0.00723034 0.00558292 4.83113e-05 -2.31149e-05 -1.65013e-10 -1.83997e-10 1.08074e-11 5e-05 1.46608e-10 
186 1 0.100352 0.0174117 0.00726526 0.00528838 0.000112028 -6.97705e-05 6.38325e-10 7.33224e-11 -3.6757e-11 5e-05 1.46608e-10 
187 1 0.106501 0.0171552 0.007363 0.00571247 8.88186e-06 0.000540891 -5.99255e-11 -4.61856e-11 3.15139e-11 5e-05 1.46608e-10 
188 1 0.106537 0.0181647 0.00694308 0.00536241 -8.71956e-05 -0.000298039 -1.02768e-11 3.47134e-10 -1.15197e-10 5e-05 1.46608e-10 
189 1 0.106542 0.0173365 0.0072887 0.0057885 3.96693e-05 0.000534447 -2.80694e-10 2.36482e-10 -1.31863e-10 5e-05 1.46608e-10 
190 1 0.0944394 0.0176655 0.00709053 0.00550598 -0.000284317 0.000215328 2.80884e-10 9.67879e-11 2.99874e-12 5e-05 1.46608e-10 
191 1 0.106533 0.01856 0.00693859 0.00562349 4.80495e-05 -0.000313249 5.06875e-11 1.44015e-10 -6.64573e-12 5e-05 1.46608e-10 
192 1 0.10054 0.0173053 0.00720714 0.00552593 0.000202611 -5.93833e-05 1.29901e-10 -5.02798e-10 1.23705e-10 5e-05 1.46608e-10 
193 1 0.106305 0.0166901 0.00759686 0.00616298 -0.000347686 -8.47609e-05 -1.36535e-10 5.56057e-11 -3.69231e-11 5e-05 1.46608e-10 
194 1 0.100368 0.0169314 0.00738721 0.00582593 0.000164483 -0.000129053 8.6146e-10 -2.87715e-10 1.70887e-10 5e-05 1.46608e-10 
195 1 0.100816 0.017985 0.00704183 0.0055306 5.5628e-05 -8.0022e-06 -2.27529e-10 2.01255e-10 -4.61866e-11 5e-05 1.46608e-10 
196 1 0.0997789 0.0154515 0.00861826 0.005676 7.71927e-05 -0.000157527 2.24181e-11 6.81656e-11 -5.4464e-11 5e-05 1.46608e-10 
197 1 0.0943634 0.017729 0.00707689 0.00550816 -0.000285698 0.000217534 1.79901e-10 3.31857e-11 3.34136e-11 5e-05 1.46608e-10 
198 1 0.100179 0.0168794 0.00743089 0.00614158 -3.8998e-06 2.20827e-05 2.44543e-10 1.08234e-11 -1.33932e-12 5e-05 1.46608e-10 
199 1 0.100315 0.0174985 0.00715981 0.00540225 0.000121661 -4.37969e-05 3.18991e-10 -1.45239e-10 -1.89242e-10 5e-05 1.46608e-10 
200 1 0.100291 0.0169803 0.00734524 0.00591265 0.000111697 -7.32136e-05 -8.0905e-10 1.22633e-10 -1.08596e-10 5e-05 1.46608e-10 
201 1 0.100741 0.0182457 0.00697848 0.00564954 7.12754e-05 -1.16879e-05 -2.45922e-10 8.44624e-11 -3.1487e-11 5e-05 1.46608e-10 
202 1 0.10056 0.0174006 0.00718358 0.00540662 -7.1873e-05 2.29895e-05 3.27447e-10 -4.4835e-12 -7.22476e-11 5e-05 1.46608e-10 
203 1 0.106749 0.0182639 0.00693004 0.00530817 -0.000313898 -0.000304015 -8.02811e-10 7.47795e-11 4.22308e-10 5e-05 1.46608e-10 
204 1 0.100273 0.0169054 0.00740904 0.00609237 7.47464e-05 -4.22945e-05 -3.06083e-10 8.59994e-11 -1.0316e-10 5e-05 1.46608e-10 
205 1 0.10058 0.0180507 0.00709989 0.00550212 0.00012465 -2.80878e-05 4.58081e-11 -1.16014e-11 1.55083e-10 5e-05 1.46608e-10 
206 1 0.100564 0.0178466 0.0070752 0.00547458 0.000208375 -4.54927e-05 -4.19114e-11 -5.79477e-11 7.24632e-12 5e-05 1.46608e-10 
207 1 0.100108 0.0163064 0.0079132 0.0061148 -8.16706e-05 -3.76077e-05 -1.73218e-10 -1.11932e-10 7.01764e-11 5e-05 1.46608e-10 
208 1 0.10041 0.0175293 0.00715209 0.00549136 5.78326e-05 -1.2095e-05 4.97369e-10 -1.90607e-10 2.88294e-11 5e-05 1.46608e-10 
209 1 0.10035 0.0168564 0.007451 0.0061827 0.000113881 -7.39674e-05 3.6119e-10 1.56135e-10 -8.03952e-11 5e-05 1.46608e-10 
210 1 0.106413 0.0177587 0.00719878 0.00566543 6.3653e-05 0.00050903 1.53449e-10 7.39315e-11 -8.97896e-12 5e-05 1.46608e-10 
211 1 0.106628 0.0181247 0.00695731 0.00519042 0.000136886 0.000440755 -1.96454e-10 1.07639e-10 1.67465e-10 5e-05 1.46608e-10 
212 1 0.100639 0.0177823 0.00709088 0.00548738 0.000209119 -4.52579e-05 -1.16921e-11 -3.3078e-11 4.11853e-12 5e-05 1.46608e-10 
213 1 0.106481 0.0170645 0.00740016 0.00566638 -5.14756e-06 0.000542379 -1.99233e-10 2.39111e-10 -7.85692e-11 5e-05 1.46608e-10 
214 1 0.106633 0.0181154 0.00705679 0.0059906 0.000355506 0.000412657 -1.59271e-10 1.90387e-10 2.75287e-10 5e-05 1.46608e-10 
215 1 0.0944196 0.0175697 0.0071111 0.00563253 -0.000303881 0.000223431 6.77627e-11 6.12635e-11 -9.00289e-12 5e-05 1.46608e-10 
216 1 0.100355 0.0176888 0.0071133 0.00566939 8.50669e-05 -2.01363e-05 -4.38914e-11 3.71949e-11 3.88969e-11 5e-05 1.46608e-10 
217 1 0.106261 0.0165276 0.007705 0.00615442 -0.000370504 -6.96932e-05 4.13293e-12 -1.5122e-10 9.72515e-11 5e-05 1.46608e-10 
218 1 0.100489 0.0179107 0.00705958 0.00552363 0.000144593 -3.12005e-05 -1.52855e-10 -8.27922e-11 1.66824e-11 5e-05 1.46608e-10 
219 1 0.106548 0.0182394 0.00700885 0.00570823 6.46406e-06 -0.000393969 -4.01167e-10 2.08118e-10 8.98503e-10 5e-05 1.46608e-10 
220 1 0.100411 0.0176974 0.00719543 0.00562917 7.94631e-05 5.4169e-06 6.86606e-11 9.68756e-13 -5.45775e-11 5e-05 1.46608e-10 
221 1 0.0943225 0.0171264 0.0073015 0.00552532 -0.000353302 1.53416e-05 -4.71574e-10 6.53974e-11 -5.86712e-11 5e-05 1.46608e-10 
222 1 0.106283 0.0166089 0.00765093 0.0061694 -0.000340343 -9.02055e-05 9.6658e-11 -1.16929e-10 6.72265e-11 5e-05 1.46608e-10 
223 1 0.100485 0.017465 0.00716781 0.00539424 -3.71034e-05 -1.42402e-05 3.79494e-10 -3.19786e-10 6.99367e-11 5e-05 1.46608e-10 
224 1 0.100235 0.0171215 0.00726486 0.0057232 3.56219e-05 -2.10233e-05 -1.75857e-10 -2.16136e-11 -2.14367e-11 5e-05 1.46608e-10 
225 1 0.106565 0.0178514 0.00706899 0.00556293 0.000169015 0.000458268 -2.97403e-10 -5.43865e-12 1.06503e-10 5e-05 1.46608e-10 
226 1 0.100714 0.0177181 0.00710655 0.00550272 0.000218776 -4.76903e-05 -3.36682e-12 -2.99712e-12 4.40223e-12 5e-05 1.46608e-10 
227 1 0.0943795 0.0173781 0.00715221 0.00559424 -0.000300408 0.000219776 -1.64474e-10 2.49649e-11 -1.90415e-11 5e-05 1.46608e-10 
228 1 0.0943236 0.0175369 0.00711564 0.00563106 -0.000291474 0.000220657 -1.01996e-10 -4.55235e-11 -3.31425e-12 5e-05 1.46608e-10 
229 1 0.100391 0.017602 0.00721853 0.00553613 5.31947e-05 -2.04607e-05 1.72992e-10 -8.64895e-11 9.65689e-11 5e-05 1.46608e-10 
230 1 0.10067 0.0183146 0.0069617 0.00566887 0.000103373 -1.68422e-05 -2.26211e-10 1.2479e-10 -1.89011e-11 5e-05 1.46608e-10 
231 1 0.0942836 0.0173453 0.00715676 0.00560795 -0.000282166 0.000216511 3.9029e-11 -4.78308e-11 9.106e-11 5e-05 1.46608e-10 
232 1 0.100249 0.0164823 0.00776692 0.00632223 3.21275e-05 -0.000131536 -8.91532e-11 1.64138e-10 -1.24718e-10 5e-05 1.46608e-10 
233 1 0.100386 0.0170063 0.00732347 0.00577033 0.000209359 -0.00010952 5.6447e-10 -1.18653e-10 7.38028e-11 5e-05 1.46608e-10 
234 1 0.106473 0.0182599 0.00694553 0.00563804 5.85691e-05 -0.000303564 1.52803e-10 -7.78673e-11 9.51896e-12 5e-05 1.46608e-10 
235 1 0.100634 0.0185686 0.00689999 0.00567864 7.66203e-05 -1.28051e-05 1.58596e-11 2.65798e-10 -5.88683e-11 5e-05 1.46608e-10 
236 1 0.100692 0.0184116 0.00693815 0.00569087 8.94128e-05 -1.6054e-05 -1.90405e-10 8.15181e-11 -1.93127e-11 5e-05 1.46608e-10 
237 1 0.100788 0.0184449 0.00693017 0.00569858 7.07514e-05 -1.16153e-05 -2.70304e-10 5.92857e-13 -1.50917e-12 5e-05 1.46608e-10 
239 1 0.0941075 0.0166259 0.00766752 0.0060606 -0.00047312 7.62553e-05 2.93082e-11 1.06704e-10 -7.62254e-11 5e-05 1.46608e-10 
240 1 0.0941703 0.0168635 0.00749547 0.00565796 -0.000389525 3.42503e-05 1.04864e-10 2.40097e-11 -2.10965e-11 5e-05 1.46608e-10 
241 1 0.0940858 0.0165469 0.0077248 0.00605692 -0.00047379 7.69552e-05 1.91792e-11 1.07219e-10 -7.85677e-11 5e-05 1.46608e-10 
242 1 0.1005 0.0171149 0.00725419 0.0057503 0.000377144 -9.9485e-05 1.88917e-11 -2.08061e-10 1.9478e-13 5e-05 1.46608e-10 
243 1 0.100256 0.0168304 0.00747284 0.00620557 5.77334e-05 -2.70321e-05 3.83764e-10 7.21922e-11 -6.04899e-11 5e-05 1.46608e-10 
244 1 0.0941292 0.016705 0.00761025 0.00605514 -0.000471157 7.51042e-05 4.41588e-11 8.95248e-11 -6.648e-11 5e-05 1.46608e-10 
246 1 0.0942471 0.0171816 0.00726543 0.00552534 -0.000366411 3.27406e-05 -3.60948e-10 -3.03409e-11 1.23001e-10 5e-05 1.46608e-10 
247 1 0.100511 0.0180099 0.00703549 0.0055846 0.000142649 -2.93506e-05 1.41891e-11 -1.23979e-10 1.87463e-11 5e-05 1.46608e-10 