ITEM: TIMESTEP
26800000
ITEM: NUMBER OF ATOMS
271
ITEM: BOX BOUNDS ff ff ff
-0.02 0.43
-0.02 0.06
-0.02 0.07
ITEM: ATOMS id type x y z vx vy vz fx fy fz radius mass 
1 1 0.168754 0.0155799 0.0088025 0.00580254 -0.00101978 0.000239085 -2.99638e-10 -9.39627e-12 2.39767e-10 5e-05 1.46608e-10 
2 1 0.169314 0.0168857 0.00777772 0.00614222 0.00168828 -0.000974649 -4.04116e-11 8.90183e-11 -2.09335e-11 5e-05 1.46608e-10 
3 1 0.163467 0.0167362 0.00748098 0.00626879 4.73839e-05 -9.98439e-05 -1.22221e-11 2.57335e-11 -6.98126e-12 5e-05 1.46608e-10 
4 1 0.169103 0.0162563 0.00805444 0.00553668 -5.83051e-05 0.000616408 3.09244e-10 3.0263e-11 -1.01334e-10 5e-05 1.46608e-10 
5 1 0.168733 0.0155307 0.00888697 0.00569545 -0.000971116 0.00022189 1.65923e-11 -3.5595e-11 1.16022e-10 5e-05 1.46608e-10 
6 1 0.175242 0.0173083 0.0072788 0.00590681 -0.00127908 0.000371425 2.65451e-13 4.72642e-13 -1.16922e-13 5e-05 1.46608e-10 
7 1 0.16883 0.0157701 0.00845987 0.00523325 -0.000927606 0.000221232 1.04139e-10 -1.15503e-10 6.52665e-10 5e-05 1.46608e-10 
8 1 0.168708 0.0154867 0.0089732 0.00564005 -0.000938731 0.000207484 1.93227e-11 2.74794e-11 -2.99009e-11 5e-05 1.46608e-10 
9 1 0.175372 0.017872 0.00711929 0.00583928 -0.00126471 0.000367247 -5.31801e-13 5.222e-13 -5.67181e-14 5e-05 1.46608e-10 
10 1 0.169245 0.017429 0.00754947 0.00592568 0.000304644 -0.00037837 -2.36434e-10 -1.51806e-10 3.59595e-10 5e-05 1.46608e-10 
11 1 0.169341 0.0170123 0.00772273 0.00562473 0.000368875 -0.000393449 7.48789e-11 -1.44977e-10 7.53778e-11 5e-05 1.46608e-10 
12 1 0.162948 0.0161869 0.00803965 0.00587435 0.000125414 -3.2596e-05 6.73405e-13 2.35287e-11 2.58777e-11 5e-05 1.46608e-10 
13 1 0.168643 0.0153523 0.00923338 0.00570993 -0.000960363 0.000191044 1.3281e-10 3.21168e-10 -6.21133e-10 5e-05 1.46608e-10 
14 1 0.163543 0.0182515 0.0071193 0.00576104 0.000125372 -0.000110184 1.99841e-10 -1.1327e-10 4.25007e-11 5e-05 1.46608e-10 
15 1 0.169154 0.016277 0.00797085 0.00568254 -0.000338007 0.000884973 -1.65495e-10 7.53109e-11 -3.85116e-11 5e-05 1.46608e-10 
16 1 0.163656 0.0179384 0.00719222 0.00598968 9.81608e-05 -0.00010901 1.26822e-10 5.19245e-11 -1.71888e-12 5e-05 1.46608e-10 
17 1 0.16919 0.0164734 0.00792107 0.00558247 -4.67078e-05 0.000790171 2.35672e-10 -1.05844e-10 6.74559e-11 5e-05 1.46608e-10 
19 1 0.168687 0.0154419 0.00905991 0.00567977 -0.000953273 0.000201059 7.90228e-11 1.18357e-10 -2.17796e-10 5e-05 1.46608e-10 
21 1 0.16922 0.0173256 0.00759451 0.0059204 0.000400088 -0.000415639 2.03434e-10 2.96705e-10 -1.25568e-10 5e-05 1.46608e-10 
22 1 0.169176 0.0163728 0.00794722 0.00566792 -0.000267883 0.000863937 -1.38543e-10 1.10265e-10 -2.57383e-11 5e-05 1.46608e-10 
23 1 0.163119 0.0164381 0.00771367 0.00604749 9.66122e-05 5.08225e-06 -5.19939e-11 -1.25632e-10 2.03661e-10 5e-05 1.46608e-10 
24 1 0.175452 0.0182491 0.00701255 0.00551123 -0.00119926 0.000348181 4.43599e-13 -4.81489e-14 -1.98556e-13 5e-05 1.46608e-10 
25 1 0.168985 0.015929 0.00811581 0.00527414 -0.000515405 0.000663927 1.6128e-10 2.3263e-10 7.36573e-11 5e-05 1.46608e-10 
26 1 0.175329 0.0176841 0.00717246 0.00586179 -0.0012695 0.000368648 -1.63923e-13 4.66423e-13 -2.15204e-14 5e-05 1.46608e-10 
27 1 0.163444 0.0166401 0.00750415 0.00623761 1.08795e-05 -9.05873e-05 -1.8806e-10 9.58157e-11 -2.74392e-11 5e-05 1.46608e-10 
28 1 0.169249 0.0166573 0.00787744 0.00588267 -0.000106018 0.000172096 1.34939e-10 5.16557e-11 -8.19837e-11 5e-05 1.46608e-10 
29 1 0.168851 0.0158013 0.00836705 0.00506698 -0.000869116 0.000197151 8.13093e-11 -3.32948e-10 6.798e-10 5e-05 1.46608e-10 
30 1 0.169373 0.0175539 0.00749101 0.00605137 0.00114675 -0.000733038 -8.07913e-11 2.63108e-10 9.81497e-11 5e-05 1.46608e-10 
31 1 0.168985 0.0159804 0.00803009 0.0053533 -0.000264557 0.000813915 -1.70617e-10 1.53639e-10 3.00494e-11 5e-05 1.46608e-10 
32 1 0.169023 0.0160697 0.00805686 0.00544099 -0.000275958 0.000826504 -2.56215e-10 -1.51821e-11 -2.14769e-11 5e-05 1.46608e-10 
33 1 0.175264 0.0174023 0.00725222 0.00589555 -0.00127668 0.000370736 2.2928e-13 4.42131e-13 -9.83258e-14 5e-05 1.46608e-10 
34 1 0.168817 0.0157167 0.00854344 0.00531169 -0.000936444 0.000217468 3.81318e-10 -2.10327e-10 6.434e-10 5e-05 1.46608e-10 
35 1 0.168887 0.0159274 0.00821814 0.00549275 -0.000599054 0.000531537 -2.47967e-11 -3.176e-10 6.60425e-10 5e-05 1.46608e-10 
36 1 0.175432 0.0181548 0.00703925 0.00547905 -0.00119298 0.000346386 8.94953e-13 -1.58638e-13 3.25985e-13 5e-05 1.46608e-10 
37 1 0.169413 0.017741 0.00740974 0.00608412 0.00123379 -0.000778398 -7.24459e-12 6.59537e-11 -2.53838e-11 5e-05 1.46608e-10 
38 1 0.169502 0.0176968 0.00742485 0.00619806 0.00142282 -0.000864126 -1.18136e-10 7.3501e-11 -2.43488e-11 5e-05 1.46608e-10 
39 1 0.175472 0.0183434 0.00698586 0.00554339 -0.00120551 0.000350027 5.74012e-13 -2.41218e-13 9.03091e-14 5e-05 1.46608e-10 
41 1 0.169322 0.0165933 0.00790174 0.00624027 0.000127837 -0.000315276 7.01621e-11 -1.36169e-11 2.58079e-12 5e-05 1.46608e-10 
42 1 0.321436 0.0173475 0.00552525 4.59023e-16 2.25485e-15 8.4636e-14 -8.69671e-24 7.01165e-24 -2.06795e-25 5e-05 1.46608e-10 
44 1 0.169277 0.0167597 0.00783286 0.00615541 0.000501198 -0.00047012 3.38484e-11 -1.40939e-11 -1.12399e-11 5e-05 1.46608e-10 
45 1 0.175285 0.0174962 0.00722563 0.0058843 -0.00127429 0.000370039 1.12128e-13 4.37992e-13 -1.56426e-13 5e-05 1.46608e-10 
47 1 0.168773 0.0156219 0.00871371 0.00562798 -0.000979157 0.000242133 -1.90949e-10 -1.51344e-10 3.92847e-10 5e-05 1.46608e-10 
48 1 0.169463 0.017599 0.00746808 0.00610452 0.0011311 -0.000735713 -1.40306e-11 -1.75811e-10 3.87056e-11 5e-05 1.46608e-10 
50 1 0.168961 0.0162075 0.00797307 0.00545365 -0.000218689 0.000820494 3.83514e-10 3.1092e-11 5.6586e-11 5e-05 1.46608e-10 
51 1 0.168943 0.0161102 0.00798805 0.00546129 -0.000214901 0.000820753 6.81239e-11 -2.42679e-11 7.91455e-11 5e-05 1.46608e-10 
52 1 0.162872 0.0159477 0.0083511 0.00560138 0.000141306 -6.19498e-05 5.14379e-11 -1.21788e-10 1.72903e-10 5e-05 1.46608e-10 
53 1 0.175412 0.0180605 0.00706594 0.00544687 -0.00118671 0.000344595 1.32394e-12 -4.00105e-13 5.02301e-13 5e-05 1.46608e-10 
54 1 0.169459 0.0178887 0.00734503 0.00613184 0.00121505 -0.000772877 -1.55269e-12 -1.88401e-11 7.70021e-12 5e-05 1.46608e-10 
55 1 0.162815 0.0157685 0.00858483 0.00536083 0.000165676 -9.47776e-05 3.63473e-11 -5.50708e-11 4.79658e-11 5e-05 1.46608e-10 
56 1 0.169489 0.0178003 0.00738137 0.00612073 0.00120121 -0.000766602 5.03157e-11 -5.16993e-11 2.04136e-11 5e-05 1.46608e-10 
57 1 0.175307 0.0175902 0.00719905 0.00587305 -0.0012719 0.000369335 -1.63883e-14 4.35373e-13 -3.6489e-13 5e-05 1.46608e-10 
59 1 0.169288 0.0164912 0.00792976 0.00561095 -0.000239515 0.000848786 2.71215e-10 2.95162e-11 3.69685e-11 5e-05 1.46608e-10 
61 1 0.168868 0.0158552 0.00828467 0.00518794 -0.000736731 0.000300224 -1.29953e-10 -3.64924e-10 6.64783e-10 5e-05 1.46608e-10 
62 1 0.169497 0.0170763 0.00768896 0.00617445 0.000722036 -0.000564595 1.5462e-10 -1.08531e-10 5.27096e-11 5e-05 1.46608e-10 
63 1 0.169114 0.0160868 0.00801836 0.00545892 -0.000290973 0.000843182 -2.65076e-10 -2.80242e-12 -4.81835e-11 5e-05 1.46608e-10 
64 1 0.175491 0.0184379 0.00695912 0.00533694 -0.00116261 0.000337557 4.82304e-13 -2.84342e-12 7.91807e-13 5e-05 1.46608e-10 
65 1 0.163123 0.0168083 0.00756944 0.00623747 -2.39302e-05 -8.5805e-05 5.83521e-11 6.255e-11 2.55642e-11 5e-05 1.46608e-10 
66 1 0.162796 0.0157088 0.00866266 0.00631024 6.06268e-05 6.49433e-05 -5.6779e-11 1.69301e-11 -3.77868e-11 5e-05 1.46608e-10 
67 1 0.169441 0.0170014 0.00772319 0.00569491 0.00110793 -0.000706603 2.87337e-10 -3.97951e-10 1.92025e-10 5e-05 1.46608e-10 
68 1 0.169056 0.0162404 0.00796741 0.00545501 -0.000185428 0.000807252 1.23251e-10 -2.16564e-10 4.0333e-10 5e-05 1.46608e-10 
69 1 0.169459 0.0179807 0.0073059 0.00613928 0.00122551 -0.000777632 -5.66269e-11 2.38455e-11 -5.00069e-12 5e-05 1.46608e-10 
70 1 0.17535 0.017778 0.00714588 0.00585053 -0.00126711 0.000367947 -2.98492e-13 4.95023e-13 -1.16581e-13 5e-05 1.46608e-10 
71 1 0.162854 0.0158879 0.00842908 0.00549495 0.000152217 -7.7619e-05 4.53503e-10 -1.6864e-10 2.91393e-10 5e-05 1.46608e-10 
72 1 0.169419 0.0174716 0.00752408 0.00600805 0.00116218 -0.000719687 6.20733e-11 -2.52108e-11 4.38329e-10 5e-05 1.46608e-10 
73 1 0.169496 0.0180844 0.00726023 0.00616056 0.00124803 -0.000787884 -3.78524e-11 6.72629e-11 -2.57326e-11 5e-05 1.46608e-10 
74 1 0.169539 0.0169818 0.00772744 0.00585925 0.00188409 -0.0010448 4.0585e-10 -4.55384e-10 1.61225e-10 5e-05 1.46608e-10 
76 1 0.163497 0.0176262 0.00726875 0.00607018 7.44599e-05 -0.000103618 2.35991e-11 7.91202e-11 -6.88757e-12 5e-05 1.46608e-10 
77 1 0.169022 0.0163102 0.00803055 0.00540419 -0.000180359 0.00079167 1.73687e-10 -1.06531e-10 3.93926e-10 5e-05 1.46608e-10 
78 1 0.163602 0.018101 0.00715429 0.00597809 0.000111077 -0.000110773 -3.43934e-11 -1.56846e-11 1.60849e-12 5e-05 1.46608e-10 
79 1 0.162911 0.0160672 0.00819537 0.00578828 0.000134062 -4.50843e-05 8.09255e-11 -3.63169e-11 2.40942e-11 5e-05 1.46608e-10 
80 1 0.169389 0.0169959 0.00780884 0.00599575 0.000735454 -0.000535753 4.34983e-11 -2.37665e-10 1.36578e-11 5e-05 1.46608e-10 
81 1 0.163518 0.0177226 0.00725238 0.00605056 8.2193e-05 -0.000105678 -3.3221e-11 8.19583e-11 -3.55701e-11 5e-05 1.46608e-10 
82 1 0.162969 0.0162462 0.00796186 0.00594999 0.000111692 -1.4538e-05 1.59919e-10 -1.37189e-11 5.66322e-11 5e-05 1.46608e-10 
83 1 0.16356 0.0179108 0.00720013 0.00598872 0.000101861 -0.00010879 2.14333e-10 -3.14999e-11 -3.67912e-11 5e-05 1.46608e-10 
84 1 0.175392 0.0179662 0.00709263 0.00541474 -0.00118047 0.000342711 9.3393e-13 -1.0593e-13 -4.48671e-13 5e-05 1.46608e-10 
85 1 0.163509 0.0169302 0.0074342 0.00620803 7.6429e-05 -0.000105893 1.14118e-10 -8.0272e-11 1.93673e-11 5e-05 1.46608e-10 
86 1 0.169359 0.0167059 0.00785229 0.00658543 0.00107785 -0.000733285 2.54978e-11 -1.16619e-11 1.28372e-11 5e-05 1.46608e-10 
87 1 0.169636 0.0171281 0.00766114 0.00633768 0.00222785 -0.00121224 -3.34846e-11 -1.97623e-12 6.40666e-12 5e-05 1.46608e-10 
88 1 0.169113 0.0168176 0.00789801 0.00622438 0.000220807 0.000159431 -4.484e-12 -5.18245e-11 1.39054e-11 5e-05 1.46608e-10 
89 1 0.169446 0.0171558 0.00765731 0.00608041 0.000686537 -0.000545753 1.86073e-11 -1.14485e-10 -3.00753e-11 5e-05 1.46608e-10 
90 1 0.169408 0.0168529 0.00778777 0.00671819 0.00313968 -0.00161599 -3.58615e-11 9.49662e-11 -4.12527e-11 5e-05 1.46608e-10 
91 1 0.163489 0.0168326 0.00745773 0.00622286 2.96155e-05 -9.49372e-05 9.77924e-11 -6.83472e-12 2.39444e-12 5e-05 1.46608e-10 
92 1 0.169376 0.0172877 0.00760411 0.00607272 0.000238766 -0.000354876 -3.99841e-10 2.18392e-10 -1.35269e-10 5e-05 1.46608e-10 
93 1 0.169001 0.0163948 0.00791678 0.00571505 -0.000291563 0.000874593 -3.44702e-11 1.96449e-10 -1.36371e-10 5e-05 1.46608e-10 
94 1 0.169268 0.0171287 0.00767626 0.00552012 0.000395697 -0.000396347 -2.73223e-11 -9.63585e-11 5.28326e-11 5e-05 1.46608e-10 
95 1 0.169153 0.016915 0.00785777 0.00567734 -0.000523084 -1.77223e-05 -3.86819e-11 -9.78721e-11 3.68932e-11 5e-05 1.46608e-10 
96 1 0.169023 0.0164896 0.00789333 0.00570013 -0.000298057 0.000879026 9.79918e-11 2.02805e-10 -9.23991e-11 5e-05 1.46608e-10 
97 1 0.163215 0.0164571 0.007691 0.00608268 5.69796e-05 6.3361e-05 3.6265e-11 5.86244e-11 -9.16475e-11 5e-05 1.46608e-10 
98 1 0.169263 0.0168553 0.00785855 0.00712372 0.00068094 -0.000737927 4.76869e-12 -4.69891e-11 -3.67879e-11 5e-05 1.46608e-10 
99 1 0.163141 0.016904 0.00754641 0.00619939 -1.65438e-05 -8.38622e-05 5.19129e-11 6.90541e-11 1.6552e-11 5e-05 1.46608e-10 
100 1 0.169474 0.0173091 0.00759091 0.00583078 0.00114298 -0.000731817 -4.19034e-10 -4.78104e-10 2.87489e-10 5e-05 1.46608e-10 
101 1 0.162929 0.016127 0.00811737 0.00581547 0.000137206 -4.33808e-05 7.34243e-11 2.09259e-11 -4.88237e-12 5e-05 1.46608e-10 
102 1 0.0643568 0.0187248 0.00531097 4.12466e-15 1.0563e-14 8.29592e-14 -2.28501e-21 3.47881e-22 7.32055e-23 5e-05 1.46608e-10 
103 1 0.24257 0.0191927 0.00520306 -5.71162e-23 -1.27651e-22 1.23839e-22 0 0 0 5e-05 1.46608e-10 
104 1 0.163414 0.0176806 0.00725698 0.00604093 4.41063e-05 -9.54526e-05 3.4617e-11 8.16942e-11 -1.3485e-11 5e-05 1.46608e-10 
105 1 0.163326 0.0165424 0.00758159 0.00633355 9.66168e-05 2.37125e-05 -7.60005e-11 8.3834e-11 2.5634e-10 5e-05 1.46608e-10 
106 1 0.163276 0.0166777 0.00749759 0.00624851 1.67892e-05 -8.90065e-05 2.14346e-11 -8.5087e-11 -3.05228e-11 5e-05 1.46608e-10 
107 1 0.163234 0.0165168 0.00761308 0.00619031 3.81546e-05 7.90675e-05 -1.31895e-10 6.5994e-12 -1.80225e-10 5e-05 1.46608e-10 
108 1 0.169397 0.0180541 0.00727727 0.00615517 0.00125004 -0.000788329 -6.46988e-12 6.37224e-11 -2.82239e-11 5e-05 1.46608e-10 
109 1 0.168925 0.0160517 0.00806719 0.00542079 -0.000218757 0.00081086 -1.9403e-10 2.83713e-11 3.13008e-10 5e-05 1.46608e-10 
110 1 0.169044 0.0165844 0.00791715 0.00567475 -0.000293562 0.000875512 -8.74827e-11 6.9025e-11 -1.74586e-11 5e-05 1.46608e-10 
111 1 0.169181 0.0167872 0.00782514 0.0059301 -0.000222215 -0.000153527 2.50896e-11 -1.21581e-11 -4.35078e-12 5e-05 1.46608e-10 
112 1 0.163669 0.0175936 0.00727408 0.00604496 7.19801e-05 -0.00010271 -7.03223e-11 4.33181e-11 -1.33056e-11 5e-05 1.46608e-10 
113 1 0.163265 0.0171331 0.00738937 0.00614862 1.1933e-05 -8.94961e-05 1.5066e-10 1.2757e-11 5.47207e-11 5e-05 1.46608e-10 
114 1 0.163463 0.0183102 0.00710645 0.0056968 0.000129138 -0.000111205 -1.23987e-11 2.58555e-11 -9.35616e-12 5e-05 1.46608e-10 
115 1 0.169225 0.0165669 0.00791282 0.00594719 -8.58019e-05 0.000307569 2.27269e-10 -6.9811e-12 9.1467e-11 5e-05 1.46608e-10 
116 1 0.16936 0.0178996 0.00734452 0.00612796 0.00117489 -0.000755591 -1.37603e-11 -1.24994e-10 5.49099e-11 5e-05 1.46608e-10 
117 1 0.169617 0.0170382 0.00770022 0.00540903 0.00240592 -0.00124897 1.97228e-10 -1.62405e-10 6.64265e-11 5e-05 1.46608e-10 
118 1 0.163379 0.0179325 0.00719752 0.00600339 6.87715e-05 -0.000102438 1.3618e-11 8.17435e-11 -1.97398e-11 5e-05 1.46608e-10 
119 1 0.169132 0.0161821 0.00799434 0.00544583 -0.00029272 0.000844756 1.26493e-10 -3.18608e-11 9.66279e-12 5e-05 1.46608e-10 
120 1 0.168971 0.0158762 0.00819944 0.00513252 -0.000967029 0.000360045 -9.37711e-11 8.01805e-11 -6.69003e-11 5e-05 1.46608e-10 
121 1 0.168796 0.0156656 0.00862664 0.00542407 -0.000942646 0.000226064 3.62506e-10 -3.09641e-10 5.32444e-10 5e-05 1.46608e-10 
122 1 0.169051 0.0164847 0.00798925 0.00569613 -0.000278796 0.000881441 -1.61487e-10 2.65145e-10 -4.1186e-11 5e-05 1.46608e-10 
123 1 0.163336 0.0177419 0.00724349 0.00603938 4.60964e-05 -9.62704e-05 1.38216e-11 7.57907e-11 -2.49136e-11 5e-05 1.46608e-10 
124 1 0.169078 0.0167247 0.00792411 0.00565599 -0.000298054 0.000873335 -1.14576e-10 -5.71365e-12 -2.35322e-11 5e-05 1.46608e-10 
125 1 0.169545 0.0171667 0.00764855 0.00596399 0.0015048 -0.000888535 -2.4719e-11 1.03691e-10 -2.56515e-11 5e-05 1.46608e-10 
126 1 0.168904 0.0159834 0.00813717 0.00541516 -0.000341763 0.000694044 -2.74758e-11 -8.2093e-11 5.96828e-10 5e-05 1.46608e-10 
127 1 0.163349 0.016611 0.00751243 0.00626086 3.64474e-05 -9.85683e-05 3.51899e-10 -1.10394e-11 2.06371e-11 5e-05 1.46608e-10 
128 1 0.169099 0.0164309 0.00792032 0.00569548 -0.000267691 0.000868873 1.08495e-11 1.37013e-10 -3.73797e-11 5e-05 1.46608e-10 
129 1 0.169263 0.0172209 0.00771466 0.00587594 0.000421863 -0.000387345 2.66272e-10 1.94969e-10 -4.5027e-10 5e-05 1.46608e-10 
131 1 0.163371 0.0167068 0.00748932 0.00625606 3.38463e-05 -9.59566e-05 -1.31881e-10 4.02559e-11 -6.21876e-12 5e-05 1.46608e-10 
132 1 0.169363 0.0171097 0.00771575 0.00591205 0.000289179 -0.000523353 -7.00296e-11 3.34419e-11 -5.25124e-11 5e-05 1.46608e-10 
133 1 0.169325 0.01749 0.00755088 0.00562556 0.000736889 -0.00154543 -1.25235e-10 2.58053e-10 -3.35362e-13 5e-05 1.46608e-10 
134 1 0.169037 0.0161451 0.00799134 0.00546729 -0.000183505 0.000811674 1.97e-10 -2.17485e-10 -2.44524e-11 5e-05 1.46608e-10 
135 1 0.168665 0.0153971 0.00914664 0.00569896 -0.000958642 0.000192227 1.55731e-10 2.34306e-10 -4.19663e-10 5e-05 1.46608e-10 
136 1 0.163484 0.018406 0.00708337 0.00572033 0.000126357 -0.000110776 3.11465e-11 1.87362e-10 -4.38826e-11 5e-05 1.46608e-10 
137 1 0.16898 0.0163 0.00794026 0.00547259 -0.000222058 0.000823787 6.86268e-10 1.78571e-11 1.3753e-10 5e-05 1.46608e-10 
138 1 0.169338 0.0178101 0.0073835 0.0061187 0.00116808 -0.000752542 2.527e-11 -8.29632e-11 3.90367e-11 5e-05 1.46608e-10 
140 1 0.169214 0.0168914 0.00777945 0.00606613 0.000147159 -0.000316301 -2.35868e-11 -1.57601e-12 8.46929e-12 5e-05 1.46608e-10 
141 1 0.163477 0.0179668 0.00718798 0.00598925 9.73996e-05 -0.000106713 -3.26217e-11 7.53129e-11 -1.49203e-11 5e-05 1.46608e-10 
142 1 0.163315 0.017647 0.00726638 0.00605999 4.07813e-05 -9.55482e-05 6.93263e-12 5.43401e-11 -1.4581e-12 5e-05 1.46608e-10 
143 1 0.162834 0.0158282 0.00850691 0.00547066 0.000153504 -7.85883e-05 -1.77177e-10 -1.26672e-10 1.40382e-10 5e-05 1.46608e-10 
144 1 0.163421 0.0181201 0.00715228 0.00595561 7.42398e-05 -0.000102723 -4.71111e-13 2.704e-11 2.44897e-13 5e-05 1.46608e-10 
147 1 0.163594 0.0176587 0.00725963 0.00604734 7.59804e-05 -0.000103264 -1.89696e-11 1.04501e-10 -1.14401e-11 5e-05 1.46608e-10 
148 1 0.162986 0.0163076 0.00788483 0.00599011 9.22896e-05 -1.60575e-05 1.42919e-10 -1.42096e-10 -9.37083e-11 5e-05 1.46608e-10 
149 1 0.169158 0.0166925 0.00785547 0.00565711 -0.000278585 0.000863793 7.95783e-11 3.63617e-11 2.65513e-12 5e-05 1.46608e-10 
150 1 0.0100679 0.0201683 0.00551526 8.38389e-15 1.24767e-15 -8.48744e-14 9.30578e-25 1.14771e-23 4.1359e-25 5e-05 1.46608e-10 
151 1 0.163347 0.0173937 0.00732619 0.00611068 4.38995e-05 -9.74346e-05 -1.00755e-11 -9.9115e-12 8.88186e-12 5e-05 1.46608e-10 
153 1 0.163678 0.0180379 0.00716822 0.00595667 9.03705e-05 -0.000105536 -2.48309e-11 5.20172e-11 -1.01614e-11 5e-05 1.46608e-10 
154 1 0.1634 0.0180301 0.00718992 0.00596246 7.08212e-05 -0.000119082 -3.09089e-11 3.28604e-11 -1.08682e-12 5e-05 1.46608e-10 
155 1 0.163008 0.0163864 0.00782714 0.00597168 9.91311e-05 -2.79401e-05 -2.07461e-11 -7.7724e-11 4.15333e-11 5e-05 1.46608e-10 
156 1 0.163436 0.0177766 0.00723383 0.00603756 6.7116e-05 -0.000101534 -4.17397e-11 7.94456e-11 -1.91662e-11 5e-05 1.46608e-10 
157 1 0.0219312 0.0187687 0.00551176 -3.82975e-14 8.16902e-14 2.95886e-13 -1.95189e-22 -1.43361e-22 1.38553e-23 5e-05 1.46608e-10 
158 1 0.163592 0.0172254 0.00736279 0.00616423 0.000118529 -0.000114741 -4.27203e-11 -7.20887e-11 6.54091e-11 5e-05 1.46608e-10 
159 1 0.169558 0.0172577 0.00760928 0.00612681 0.00150278 -0.000895152 -7.75061e-11 9.43349e-11 -6.3319e-11 5e-05 1.46608e-10 
160 1 0.163457 0.0178715 0.00721093 0.00602108 8.09089e-05 -0.000103845 9.56565e-12 7.19094e-11 -2.94986e-11 5e-05 1.46608e-10 
162 1 0.163539 0.0178158 0.00722304 0.00603071 9.05726e-05 -0.000106282 -5.56679e-11 6.71796e-11 1.47456e-11 5e-05 1.46608e-10 
164 1 0.163224 0.0168388 0.00745999 0.00623209 3.30454e-06 -8.67081e-05 -2.59814e-11 2.57179e-11 1.52671e-11 5e-05 1.46608e-10 
165 1 0.163432 0.0173415 0.00733742 0.00612624 5.982e-05 -0.000101712 -5.19207e-11 1.55139e-12 -7.36518e-13 5e-05 1.46608e-10 
166 1 0.169419 0.0181435 0.00723829 0.00615925 0.00125249 -0.000789613 -7.07277e-11 3.20454e-11 -2.11244e-11 5e-05 1.46608e-10 
168 1 0.163298 0.016773 0.00747461 0.00624668 1.68799e-05 -9.00495e-05 -5.51573e-11 3.59325e-11 1.20194e-11 5e-05 1.46608e-10 
169 1 0.163209 0.0171853 0.00746326 0.00613305 3.55242e-07 -8.56052e-05 5.57017e-11 8.86978e-12 9.42035e-11 5e-05 1.46608e-10 
170 1 0.163415 0.0168983 0.00744314 0.00622298 3.39994e-05 -9.59356e-05 8.14996e-11 -6.63807e-12 -6.87083e-12 5e-05 1.46608e-10 
171 1 0.169316 0.0177206 0.00742247 0.00610952 0.00113116 -0.000736174 4.02996e-11 1.73018e-10 -1.13032e-10 5e-05 1.46608e-10 
172 1 0.16338 0.0173391 0.00742292 0.00612868 6.42007e-05 -0.00010185 -8.29278e-11 2.52213e-11 -4.51376e-12 5e-05 1.46608e-10 
173 1 0.16935 0.0171835 0.00764951 0.00595834 0.000382807 -0.000416347 1.158e-10 7.43451e-11 -1.34964e-10 5e-05 1.46608e-10 
174 1 0.163252 0.016582 0.00752807 0.00630099 6.01625e-05 7.65329e-05 2.26063e-10 -1.09366e-11 -1.52176e-10 5e-05 1.46608e-10 
175 1 0.157153 0.0169456 0.00747434 0.00629738 0.000656724 -7.85598e-05 -5.38121e-11 -4.99432e-11 2.10217e-11 5e-05 1.46608e-10 
177 1 0.163261 0.0170297 0.00741403 0.00618085 5.05535e-06 -8.88481e-05 3.68438e-12 6.39429e-13 -1.18726e-11 5e-05 1.46608e-10 
178 1 0.163357 0.0170596 0.00740558 0.0061708 3.86807e-05 -9.65664e-05 -2.80515e-11 2.816e-12 3.21027e-12 5e-05 1.46608e-10 
179 1 0.163411 0.0172465 0.00736032 0.00614353 5.40276e-05 -9.90674e-05 -3.52478e-11 -2.39127e-11 1.55288e-11 5e-05 1.46608e-10 
181 1 0.163574 0.0175636 0.00728255 0.00608325 8.28611e-05 -0.000105555 1.99359e-11 2.04729e-11 2.73418e-12 5e-05 1.46608e-10 
182 1 0.169288 0.0176032 0.0074736 0.00610089 0.00117198 -0.000755173 6.50675e-12 4.20438e-10 -2.68193e-10 5e-05 1.46608e-10 
183 1 0.163393 0.0168021 0.00746633 0.00625005 3.50995e-05 -9.66377e-05 -6.07406e-11 1.70231e-12 5.85291e-12 5e-05 1.46608e-10 
184 1 0.169243 0.016997 0.00773333 0.00575959 -0.000251903 -0.000131235 -2.47829e-11 -2.39411e-10 6.85201e-11 5e-05 1.46608e-10 
186 1 0.163293 0.017552 0.00728928 0.00607964 3.46548e-05 -9.40427e-05 -3.36317e-12 2.35669e-11 2.15488e-12 5e-05 1.46608e-10 
187 1 0.169193 0.0172137 0.00764322 0.00584956 0.00017019 -0.000319695 -3.06213e-11 -2.176e-11 -1.48263e-11 5e-05 1.46608e-10 
188 1 0.169012 0.0162147 0.00805871 0.00543107 -0.000206034 0.000816624 2.28426e-11 -6.92129e-10 4.32644e-10 5e-05 1.46608e-10 
189 1 0.169312 0.0173598 0.00757612 0.00600762 0.000267157 -0.000370901 -3.22937e-10 4.0651e-10 -1.16511e-10 5e-05 1.46608e-10 
190 1 0.157437 0.0177694 0.00707596 0.00590079 0.000680236 -0.000106355 1.79568e-11 2.33937e-12 -3.38522e-12 5e-05 1.46608e-10 
191 1 0.168996 0.0164056 0.00801603 0.00550938 -0.000153534 0.000833503 1.99571e-10 5.09461e-11 -3.40016e-10 5e-05 1.46608e-10 
192 1 0.163628 0.0170451 0.00740519 0.00618157 9.12998e-05 -0.000109173 -6.329e-11 -5.30714e-11 1.15023e-11 5e-05 1.46608e-10 
193 1 0.169228 0.0162158 0.00799825 0.00569288 -0.000326631 0.000883411 -1.25208e-10 7.38612e-11 -3.31746e-11 5e-05 1.46608e-10 
194 1 0.161461 0.0182058 0.00533758 1.46784e-15 -1.10221e-14 8.66682e-14 1.06664e-21 1.94646e-22 6.41065e-24 5e-05 1.46608e-10 
195 1 0.163508 0.0172787 0.00735127 0.00613944 7.98969e-05 -0.000106458 -6.75386e-11 -5.84486e-11 -8.40884e-12 5e-05 1.46608e-10 
196 1 0.163138 0.0165042 0.00764101 0.00614228 1.18612e-05 -5.50182e-05 -1.22062e-10 -1.44347e-10 4.68031e-11 5e-05 1.46608e-10 
197 1 0.157219 0.0172089 0.00734603 0.00630789 0.00064525 -7.29716e-05 2.73893e-11 -5.29093e-11 2.51073e-11 5e-05 1.46608e-10 
198 1 0.163563 0.0183468 0.00709634 0.00572112 0.000130391 -0.000112616 1.31213e-11 3.38205e-11 -6.74396e-12 5e-05 1.46608e-10 
199 1 0.163522 0.018162 0.00715882 0.00595415 8.63669e-05 -0.00010481 -4.65357e-11 -1.09925e-10 -2.34377e-12 5e-05 1.46608e-10 
201 1 0.163218 0.0172191 0.00736956 0.00614035 2.04831e-06 -8.61179e-05 2.81953e-11 -4.06896e-11 3.59512e-11 5e-05 1.46608e-10 
202 1 0.163475 0.0175313 0.00729164 0.00609052 6.88842e-05 -0.000102673 2.48308e-12 8.03608e-11 -1.45725e-11 5e-05 1.46608e-10 
203 1 0.169061 0.016658 0.00785167 0.00567314 -0.000294308 0.000871305 6.71273e-11 5.06998e-12 -1.9825e-11 5e-05 1.46608e-10 
204 1 0.162892 0.0160075 0.00827339 0.00572594 0.000131289 -5.10894e-05 -7.31811e-11 -7.77256e-11 7.0349e-11 5e-05 1.46608e-10 
205 1 0.163561 0.0171177 0.00738886 0.00617371 8.52996e-05 -0.000107699 -5.65379e-11 -3.53651e-11 1.64261e-11 5e-05 1.46608e-10 
206 1 0.163181 0.0166512 0.00751382 0.00627196 2.6597e-05 4.63194e-06 8.97365e-11 -2.00613e-10 -2.01996e-10 5e-05 1.46608e-10 
207 1 0.163285 0.0169968 0.00750538 0.00620099 3.03256e-06 -8.9986e-05 4.99725e-12 -1.09218e-10 -5.88209e-11 5e-05 1.46608e-10 
208 1 0.163396 0.0177538 0.00732266 0.00604505 4.7263e-05 -9.90469e-05 4.67042e-12 1.13472e-10 -4.57654e-11 5e-05 1.46608e-10 
209 1 0.160203 0.0174259 0.00722029 0.00584532 -0.00171306 0.000856731 1.96391e-13 3.87029e-13 -1.02651e-13 5e-05 1.46608e-10 
210 1 0.169284 0.0172535 0.0076225 0.00594693 0.000394906 -0.000413024 5.2845e-10 5.7072e-10 -2.49168e-10 5e-05 1.46608e-10 
211 1 0.169169 0.0171156 0.00768596 0.00568011 -0.000520663 -1.62733e-05 -1.46542e-11 1.56533e-11 5.56902e-12 5e-05 1.46608e-10 
212 1 0.16353 0.0173738 0.00732834 0.0061309 7.64555e-05 -0.000105037 -9.61959e-11 2.91612e-11 -5.01557e-12 5e-05 1.46608e-10 
213 1 0.169376 0.0176459 0.00745179 0.00610331 0.0011302 -0.000736307 2.96374e-11 1.20345e-10 4.21799e-11 5e-05 1.46608e-10 
214 1 0.169104 0.0168471 0.00780289 0.00566652 -0.000524553 -1.50115e-05 6.3127e-12 -1.5392e-11 1.79872e-12 5e-05 1.46608e-10 
215 1 0.157384 0.017931 0.00703952 0.00591291 0.000525658 -0.00073964 -7.26757e-12 -2.13303e-11 3.04792e-12 5e-05 1.46608e-10 
216 1 0.163468 0.0172613 0.00744096 0.00614048 9.15516e-05 -0.000101797 -1.04788e-11 9.68182e-12 1.88919e-11 5e-05 1.46608e-10 
217 1 0.169441 0.018233 0.00719932 0.00615803 0.00125103 -0.000789622 -4.59562e-11 -4.25794e-11 9.51289e-12 5e-05 1.46608e-10 
218 1 0.163023 0.0164206 0.00773441 0.0058856 0.000121305 -3.68085e-05 2.65618e-11 -6.01487e-11 8.69824e-11 5e-05 1.46608e-10 
219 1 0.169135 0.016597 0.00787904 0.0056782 -0.000274632 0.0008706 1.67683e-10 6.22869e-12 1.19374e-10 5e-05 1.46608e-10 
220 1 0.163454 0.0174364 0.00731453 0.00610962 6.32775e-05 -0.000101765 -3.2305e-11 4.28965e-11 -1.07346e-11 5e-05 1.46608e-10 
221 1 0.223292 0.017527 0.00708076 0.00657393 0.00107398 -0.000408461 6.57341e-13 6.9182e-14 -3.8095e-14 5e-05 1.46608e-10 
222 1 0.169501 0.0168181 0.00779865 0.00733148 0.00458827 -0.00225773 -7.32536e-11 4.04335e-12 1.62736e-12 5e-05 1.46608e-10 
223 1 0.163391 0.017584 0.00728028 0.00607766 5.52244e-05 -9.92253e-05 3.8236e-14 7.84257e-11 -1.51082e-11 5e-05 1.46608e-10 
224 1 0.1313 0.0177825 0.00781372 -0.0131643 0.0166069 -0.00465867 2.95172e-10 -1.63424e-10 -3.11502e-12 5e-05 1.46608e-10 
225 1 0.169077 0.0163355 0.00794388 0.00569869 -0.00031713 0.000881684 -4.67335e-11 2.62657e-10 -9.61567e-11 5e-05 1.46608e-10 
226 1 0.163334 0.0174662 0.00739389 0.00610519 3.53922e-05 -9.61004e-05 2.53398e-11 5.18528e-11 1.07441e-11 5e-05 1.46608e-10 
227 1 0.157399 0.0175907 0.00716332 0.00585514 0.000728906 -0.000131824 3.21612e-11 5.74719e-11 -2.56996e-11 5e-05 1.46608e-10 
228 1 0.157175 0.0170334 0.00743157 0.00630679 0.000652102 -7.58029e-05 -3.09168e-11 1.09946e-12 3.75052e-12 5e-05 1.46608e-10 
229 1 0.163626 0.0174029 0.00732006 0.0061259 0.000107565 -0.000112212 -6.67034e-11 -5.97203e-11 1.37368e-11 5e-05 1.46608e-10 
230 1 0.163167 0.0169945 0.00742373 0.00619426 -1.2772e-05 -8.5493e-05 1.69709e-11 7.10776e-11 -3.51546e-11 5e-05 1.46608e-10 
231 1 0.157148 0.0168561 0.00751862 0.0062916 0.000659094 -7.96833e-05 -1.68753e-11 -2.37797e-11 2.21253e-11 5e-05 1.46608e-10 
232 1 0.163583 0.0180054 0.0071773 0.00598285 0.000104266 -0.000107861 1.60978e-10 8.75292e-12 -6.91297e-12 5e-05 1.46608e-10 
234 1 0.16941 0.0173802 0.00756338 0.00580111 0.00116047 -0.000725403 -6.87473e-10 -4.55961e-10 3.86981e-10 5e-05 1.46608e-10 
235 1 0.163434 0.0169961 0.00741959 0.00619699 5.17905e-05 -9.98364e-05 4.89903e-13 -1.10726e-11 1.82314e-13 5e-05 1.46608e-10 
236 1 0.163146 0.0168996 0.00744662 0.00621498 -1.37081e-05 -8.48705e-05 1.93679e-11 5.65813e-11 -6.07558e-12 5e-05 1.46608e-10 
237 1 0.163103 0.0167097 0.00749241 0.00625577 -1.57224e-05 -7.11981e-05 6.98318e-11 -3.92366e-11 -2.86889e-11 5e-05 1.46608e-10 
239 1 0.156966 0.0161592 0.00785795 0.00579174 0.00065068 -9.59503e-05 1.15155e-11 2.7294e-11 -1.30131e-11 5e-05 1.46608e-10 
240 1 0.156985 0.0162474 0.00781485 0.00576206 0.00065497 -9.88419e-05 -2.72839e-11 1.00515e-12 1.04209e-11 5e-05 1.46608e-10 
241 1 0.157046 0.0165114 0.00768599 0.00624997 0.000571922 -4.32046e-05 -1.26253e-10 -3.17591e-11 4.76036e-11 5e-05 1.46608e-10 
242 1 0.163358 0.0178374 0.00722046 0.00601266 3.25555e-05 -9.25854e-05 3.40118e-12 8.52698e-11 -1.59352e-11 5e-05 1.46608e-10 
244 1 0.157004 0.0163356 0.00777174 0.00572983 0.00065755 -0.000101273 -3.19773e-11 1.47136e-11 -7.51829e-12 5e-05 1.46608e-10 
246 1 0.157111 0.0167725 0.00755871 0.00629078 0.000661502 -8.07192e-05 -9.11704e-12 -2.71951e-11 9.84147e-14 5e-05 1.46608e-10 
247 1 0.163552 0.0174688 0.00730544 0.00610263 8.03966e-05 -0.000105365 -3.74772e-11 4.72038e-12 2.18195e-12 5e-05 1.46608e-10 
248 1 0.163186 0.0170919 0.00743568 0.00616537 -9.90525e-06 -8.49446e-05 5.7853e-11 6.29309e-11 -1.38218e-11 5e-05 1.46608e-10 
249 1 0.157364 0.0178378 0.00706994 0.00590333 0.000661541 -0.000328846 7.29867e-12 -8.29061e-12 -2.24648e-12 5e-05 1.46608e-10 
250 1 0.163078 0.0166323 0.0076137 0.00450016 0.000424275 -0.000227759 8.50409e-11 -2.76546e-11 -5.7928e-11 5e-05 1.46608e-10 
251 1 0.169083 0.0167528 0.00782822 0.00565799 -0.00028724 0.000871863 -1.00249e-12 5.45999e-12 -1.51102e-12 5e-05 1.46608e-10 
252 1 0.157262 0.0173843 0.0072605 0.00632675 0.00064422 -7.03583e-05 -5.44047e-12 1.09059e-10 -4.71588e-11 5e-05 1.46608e-10 
253 1 0.157512 0.0177114 0.00710774 0.00588814 0.000667628 -0.000100109 5.0644e-12 -1.26915e-11 5.41233e-12 5e-05 1.46608e-10 
254 1 0.157089 0.0166848 0.00760147 0.00628643 0.000662932 -8.27165e-05 -2.50964e-11 -2.25195e-11 -1.1557e-11 5e-05 1.46608e-10 
255 1 0.163503 0.0180629 0.00716475 0.00595374 7.84441e-05 -0.000103527 -2.65303e-12 1.01954e-10 -1.91421e-11 5e-05 1.46608e-10 
256 1 0.16353 0.0170253 0.00741128 0.00618567 7.92816e-05 -0.000106302 -3.08024e-11 -2.95081e-11 1.1566e-11 5e-05 1.46608e-10 
257 1 0.163326 0.0171497 0.00746698 0.0061538 2.8992e-05 -9.82462e-05 -6.82817e-11 -2.61138e-11 6.8232e-11 5e-05 1.46608e-10 
258 1 0.163326 0.0172987 0.00734909 0.00613284 3.80308e-05 -9.54226e-05 -4.88011e-11 -4.55694e-11 1.14842e-11 5e-05 1.46608e-10 
259 1 0.157284 0.0174721 0.00721773 0.00633167 0.000640748 -6.90183e-05 7.87511e-11 1.18679e-10 -2.22997e-11 5e-05 1.46608e-10 
261 1 0.16338 0.0171542 0.00738274 0.00615322 4.49953e-05 -9.77887e-05 -2.61468e-11 -2.18836e-11 2.46431e-11 5e-05 1.46608e-10 