ITEM: TIMESTEP
36600000
ITEM: NUMBER OF ATOMS
271
ITEM: BOX BOUNDS ff ff ff
-0.02 0.43
-0.02 0.06
-0.02 0.07
ITEM: ATOMS id type x y z vx vy vz fx fy fz radius mass 
1 1 0.22589 0.0154705 0.00874055 0.00579527 -0.000265195 -0.000414408 1.81305e-10 -4.97478e-10 1.0668e-10 5e-05 1.46608e-10 
2 1 0.226742 0.0180729 0.00697225 0.00582243 0.000251073 0.000291992 1.90326e-10 -4.6127e-11 6.77602e-11 5e-05 1.46608e-10 
3 1 0.220801 0.0175541 0.007173 0.00618471 -0.000257025 -0.0002025 -5.36896e-10 5.14633e-11 -1.02476e-14 5e-05 1.46608e-10 
4 1 0.226816 0.0180161 0.00700766 0.00580845 0.000240534 0.000289738 1.37578e-10 -9.7263e-11 5.93774e-11 5e-05 1.46608e-10 
5 1 0.22587 0.0153961 0.00880414 0.00584242 -0.000291146 -0.000399103 7.2588e-11 -3.44499e-10 6.27075e-10 5e-05 1.46608e-10 
6 1 0.232364 0.0172512 0.00738235 0.00590643 -0.000771222 0.00037619 2.39333e-13 -1.22043e-13 5.96026e-14 5e-05 1.46608e-10 
7 1 0.225971 0.0157684 0.0084861 0.00529266 -0.000179303 -0.000420827 7.59859e-10 -3.34728e-10 1.4669e-10 5e-05 1.46608e-10 
8 1 0.22585 0.0153217 0.00886772 0.00580988 -0.000296091 -0.000369017 -1.00467e-10 -4.47294e-10 4.1097e-10 5e-05 1.46608e-10 
9 1 0.232495 0.0178044 0.00719015 0.00588774 -0.000767799 0.000374658 -5.79664e-13 3.02699e-13 -1.19495e-13 5e-05 1.46608e-10 
10 1 0.226446 0.0175741 0.00721543 0.00617811 0.000208153 0.000338681 3.20888e-11 -2.35708e-10 1.07046e-10 5e-05 1.46608e-10 
11 1 0.226583 0.0177794 0.00711644 0.00554583 0.000257171 0.000259045 7.91395e-11 -2.12976e-10 4.16191e-11 5e-05 1.46608e-10 
12 1 0.219907 0.0156469 0.00878758 0.0064477 0.000649248 0.000715449 -2.58774e-10 -4.32618e-11 -7.49812e-11 5e-05 1.46608e-10 
13 1 0.225789 0.0151235 0.00907952 0.00590625 0.000468528 8.31398e-05 0 0 -1.43822e-09 5e-05 1.46608e-10 
14 1 0.220584 0.018205 0.00708761 0.00566046 -0.000175516 -0.000192584 2.59788e-11 -1.28924e-11 7.74433e-13 5e-05 1.46608e-10 
15 1 0.226791 0.0179298 0.00705166 0.00570796 0.000265775 0.000268769 -3.31129e-10 7.05383e-12 -1.99357e-11 5e-05 1.46608e-10 
16 1 0.220682 0.0182381 0.00707908 0.0056378 -0.000216345 -0.000186377 -1.00412e-10 -9.25864e-11 1.89906e-11 5e-05 1.46608e-10 
17 1 0.226874 0.0180899 0.0069727 0.00564178 0.000339008 0.000221019 -1.4675e-10 -1.04105e-10 3.83831e-11 5e-05 1.46608e-10 
19 1 0.225829 0.0152473 0.00893131 0.00579524 -0.000333643 -0.000371036 -2.63e-10 -3.9092e-10 -8.54116e-11 5e-05 1.46608e-10 
21 1 0.226402 0.0174003 0.00730445 0.00620009 0.000356529 0.000257526 1.21461e-10 1.56006e-10 6.45009e-12 5e-05 1.46608e-10 
22 1 0.226564 0.0176928 0.00716238 0.00562799 0.000252577 0.000265185 1.85897e-09 -2.58507e-10 3.0441e-10 5e-05 1.46608e-10 
23 1 0.22015 0.0161424 0.00827059 0.00560188 0.000535858 0.000654152 -4.38222e-10 -4.50828e-10 4.02291e-10 5e-05 1.46608e-10 
24 1 0.232579 0.0181738 0.00706177 0.00554762 -0.000700461 0.000344934 8.06765e-13 -3.75042e-13 2.8808e-13 5e-05 1.46608e-10 
25 1 0.226038 0.0159923 0.00829834 0.00560298 -0.000247461 -0.000407311 6.76527e-11 -7.09373e-11 3.48281e-11 5e-05 1.46608e-10 
26 1 0.232451 0.01762 0.00725422 0.005894 -0.000768913 0.000375148 -9.88353e-15 1.89251e-13 -2.17105e-13 5e-05 1.46608e-10 
27 1 0.220885 0.0179419 0.00711392 0.00569727 -0.000126193 -0.000201727 -8.71113e-11 1.9753e-10 -1.60588e-11 5e-05 1.46608e-10 
28 1 0.226697 0.0178984 0.00706151 0.00573944 0.00011316 0.000353183 -2.03155e-10 -1.43463e-10 1.50139e-10 5e-05 1.46608e-10 
29 1 0.22599 0.0158432 0.00842241 0.00536239 -0.000191358 -0.000423132 -5.03602e-10 -1.02039e-10 1.28214e-10 5e-05 1.46608e-10 
30 1 0.226555 0.0178768 0.00715884 0.00565152 0.000368549 0.000292622 1.89495e-11 -3.53459e-10 2.31651e-10 5e-05 1.46608e-10 
31 1 0.22605 0.0160661 0.00823199 0.00561538 -0.000241376 -0.000412566 4.52838e-11 -5.47041e-11 4.98106e-11 5e-05 1.46608e-10 
32 1 0.226539 0.0171881 0.00742674 0.0061462 0.00037409 0.00024063 3.63775e-10 1.27345e-10 -7.85257e-11 5e-05 1.46608e-10 
33 1 0.232386 0.0173434 0.00735032 0.00590332 -0.00077061 0.000375921 -1.23312e-15 -7.35764e-14 1.24606e-13 5e-05 1.46608e-10 
34 1 0.225951 0.015694 0.00854969 0.00540092 -0.000199629 -0.000413388 1.05967e-09 -1.59051e-10 -2.32462e-10 5e-05 1.46608e-10 
35 1 0.226676 0.0175545 0.00724234 0.00605306 0.000671871 8.02962e-05 3.86534e-10 -3.35355e-10 9.76092e-10 5e-05 1.46608e-10 
36 1 0.232559 0.0180812 0.00709399 0.00550791 -0.000693076 0.000341625 9.58566e-13 -4.91041e-13 -3.69565e-14 5e-05 1.46608e-10 
37 1 0.226601 0.0182837 0.00692329 0.00562919 9.33052e-05 -0.000210611 1.03814e-10 4.01756e-10 -1.09795e-11 5e-05 1.46608e-10 
38 1 0.226757 0.018613 0.00691524 0.0056776 0.000171521 -0.000209574 3.74364e-11 -1.58789e-10 -6.45569e-12 5e-05 1.46608e-10 
39 1 0.232598 0.0182665 0.00702954 0.00558739 -0.000707841 0.000348233 7.14202e-13 -4.51799e-13 1.30151e-13 5e-05 1.46608e-10 
41 1 0.226924 0.0181901 0.00692317 0.00562352 0.000267192 0.000258041 3.20622e-10 -2.12525e-10 2.3702e-10 5e-05 1.46608e-10 
42 1 0.321436 0.0173475 0.00552525 4.57052e-16 2.25549e-15 8.4636e-14 -1.21007e-24 -2.10026e-24 0 5e-05 1.46608e-10 
44 1 0.226715 0.0179869 0.00701594 0.0057798 0.000253905 0.000283085 -2.39415e-11 3.51048e-11 8.89322e-12 5e-05 1.46608e-10 
45 1 0.232408 0.0174356 0.00731828 0.00590022 -0.000770035 0.000375666 2.59056e-13 -7.71982e-14 -1.05665e-13 5e-05 1.46608e-10 
47 1 0.225911 0.0155449 0.00867695 0.00565121 -0.000229468 -0.000418555 7.20172e-11 -3.83642e-10 3.68228e-10 5e-05 1.46608e-10 
48 1 0.226737 0.0185151 0.00691667 0.00565474 0.000169079 -0.00020913 2.70368e-11 -1.37155e-10 2.83663e-12 5e-05 1.46608e-10 
50 1 0.226096 0.0162137 0.00810525 0.00566086 -0.000233358 -0.000423785 1.11088e-11 -2.6805e-10 2.13309e-10 5e-05 1.46608e-10 
51 1 0.226071 0.0161405 0.00816845 0.0056388 -0.000241438 -0.000416013 1.06649e-10 -2.01171e-10 1.28722e-10 5e-05 1.46608e-10 
52 1 0.219821 0.0153816 0.00907443 0.00581392 0.000685908 0.000526204 -1.46722e-10 -5.23044e-11 2.48892e-11 5e-05 1.46608e-10 
53 1 0.232538 0.0179888 0.00712608 0.00588148 -0.000766725 0.000374169 -9.38634e-13 2.34964e-13 -6.59219e-14 5e-05 1.46608e-10 
54 1 0.226676 0.0182334 0.00696662 0.00566631 0.000230283 -7.64777e-05 1.85582e-10 9.57834e-11 -2.62689e-10 5e-05 1.46608e-10 
55 1 0.21976 0.0151826 0.00929034 0.00594711 0.000679011 0.000564517 1.1373e-10 3.58569e-10 -3.92292e-10 5e-05 1.46608e-10 
56 1 0.226622 0.0183853 0.00692181 0.00566084 0.00016172 -0.000199192 1.02884e-10 1.55195e-10 -1.01036e-10 5e-05 1.46608e-10 
57 1 0.23243 0.0175278 0.00728625 0.00589707 -0.000769436 0.000375402 -3.39791e-13 -2.01462e-13 1.11602e-13 5e-05 1.46608e-10 
59 1 0.226543 0.0176053 0.00720586 0.00549379 0.000255483 0.000260467 1.20307e-09 -2.48346e-10 -4.36367e-13 5e-05 1.46608e-10 
61 1 0.22638 0.0169372 0.00754829 0.00609677 0.000388897 0.000229463 -8.75513e-11 3.65265e-10 -2.17113e-10 5e-05 1.46608e-10 
62 1 0.226891 0.0183623 0.00691209 0.00565058 0.000223948 -0.000216433 4.82585e-10 -3.82134e-12 -3.92297e-11 5e-05 1.46608e-10 
63 1 0.226867 0.0178739 0.00708668 0.00571258 0.000261695 0.000271094 -3.73529e-10 -1.95246e-10 7.1555e-11 5e-05 1.46608e-10 
64 1 0.232618 0.0183591 0.00699731 0.00562716 -0.000715173 0.000351519 5.37501e-13 -3.18042e-13 3.3022e-13 5e-05 1.46608e-10 
65 1 0.220094 0.0162437 0.00814097 0.0057486 0.00061211 0.000597887 -3.11871e-11 -8.77621e-11 -2.53588e-11 5e-05 1.46608e-10 
66 1 0.219739 0.0151162 0.0093623 0.00598661 0.000660282 0.00059468 1.10332e-10 3.66938e-10 -3.96581e-10 5e-05 1.46608e-10 
67 1 0.226665 0.0181347 0.00695448 0.00578311 0.000188029 0.000164449 1.52479e-10 1.55453e-10 -1.19897e-11 5e-05 1.46608e-10 
68 1 0.226593 0.0173595 0.00733976 0.0052688 0.000562652 7.8586e-05 -6.33016e-10 2.80734e-10 -2.35888e-10 5e-05 1.46608e-10 
69 1 0.226643 0.0183306 0.00700287 0.00567593 0.000163998 -0.000177966 9.12349e-12 -1.62748e-11 -1.08468e-10 5e-05 1.46608e-10 
70 1 0.232473 0.0177122 0.00722218 0.00589083 -0.000768332 0.0003749 -4.17849e-13 -2.31139e-13 1.45999e-13 5e-05 1.46608e-10 
71 1 0.219801 0.0153153 0.0091464 0.00585477 0.000686748 0.000534209 1.53638e-10 6.25214e-11 -2.84335e-11 5e-05 1.46608e-10 
72 1 0.226546 0.0180197 0.00702282 0.00581347 0.000261817 0.000287173 -8.96764e-11 -2.35311e-10 -5.39002e-11 5e-05 1.46608e-10 
73 1 0.226662 0.0185813 0.00691895 0.0056685 0.000170566 -0.000208666 -4.90347e-11 -2.34437e-10 6.19467e-12 5e-05 1.46608e-10 
74 1 0.226717 0.0184171 0.0069181 0.00565508 0.000158599 -0.000208024 1.86085e-10 -1.36121e-10 2.22596e-12 5e-05 1.46608e-10 
76 1 0.22081 0.0180085 0.0071072 0.00568762 -0.000150007 -0.00019785 -8.57274e-12 8.31684e-11 -2.14191e-11 5e-05 1.46608e-10 
77 1 0.226638 0.0176349 0.00719696 0.00574361 0.000477694 0.000153102 2.20123e-09 9.42146e-12 4.09879e-10 5e-05 1.46608e-10 
78 1 0.220564 0.0181099 0.0071112 0.00564059 -0.000167437 -0.000191704 6.85339e-11 -3.53864e-11 -7.34512e-11 5e-05 1.46608e-10 
79 1 0.219863 0.0155143 0.00893068 0.00574023 0.000678 0.000519151 -2.81428e-10 9.40063e-11 -1.55983e-10 5e-05 1.46608e-10 
80 1 0.226861 0.018267 0.00691388 0.00566428 0.000244095 -0.000197243 2.91395e-10 -9.02026e-12 9.65514e-11 5e-05 1.46608e-10 
81 1 0.220702 0.0183349 0.00706435 0.00567876 -0.000222007 -0.000187142 -9.61811e-12 -1.49821e-10 1.89836e-11 5e-05 1.46608e-10 
82 1 0.219931 0.0157131 0.00871654 0.00645188 0.00063263 0.000729182 -6.98413e-11 -5.05442e-11 -2.68335e-11 5e-05 1.46608e-10 
83 1 0.220619 0.017947 0.00712343 0.00560302 -0.000268723 -0.000178047 -2.45194e-10 1.42507e-09 -2.33382e-10 5e-05 1.46608e-10 
84 1 0.232517 0.0178966 0.00715812 0.00588459 -0.000767279 0.000374413 -2.56103e-13 -1.61501e-13 1.23086e-14 5e-05 1.46608e-10 
85 1 0.220823 0.0176509 0.00715824 0.00616564 -0.000181308 -0.000211882 -6.58267e-10 2.24076e-10 -2.3751e-12 5e-05 1.46608e-10 
86 1 0.226958 0.0182884 0.00691014 0.00568177 0.000240434 -0.000208919 4.16441e-10 1.412e-10 -6.99272e-11 5e-05 1.46608e-10 
87 1 0.226831 0.0185467 0.00691296 0.00565453 0.000164302 -0.00020862 6.72696e-11 -2.20188e-10 -1.53811e-11 5e-05 1.46608e-10 
88 1 0.226264 0.0168137 0.00760552 0.00603393 0.000404509 0.000222657 1.13059e-10 4.51111e-10 -2.7532e-10 5e-05 1.46608e-10 
89 1 0.226812 0.0184488 0.00691439 0.00564738 0.000176283 -0.000209801 9.48951e-11 -1.15427e-10 3.06601e-11 5e-05 1.46608e-10 
90 1 0.226603 0.0178667 0.00707157 0.00561714 0.000244033 0.000276746 2.9402e-10 -7.50464e-11 5.87235e-11 5e-05 1.46608e-10 
91 1 0.220864 0.0178452 0.00712865 0.00571395 -0.0001256 -0.000202274 7.86331e-11 2.36137e-10 -4.28638e-11 5e-05 1.46608e-10 
92 1 0.226697 0.0183191 0.00691953 0.00566396 0.000162362 -0.000196433 1.20502e-10 -2.99204e-11 -1.95686e-10 5e-05 1.46608e-10 
93 1 0.226133 0.0163639 0.00797833 0.00577998 -0.000220865 -0.000448361 8.78929e-12 -2.40478e-10 2.06403e-10 5e-05 1.46608e-10 
94 1 0.226586 0.0177843 0.00721629 0.00553164 0.000257429 0.00025432 -3.27035e-10 2.73017e-10 9.34671e-11 5e-05 1.46608e-10 
95 1 0.226505 0.017583 0.00729566 0.00600736 0.000226074 0.000466337 6.02414e-10 -2.16323e-11 -1.41318e-10 5e-05 1.46608e-10 
96 1 0.226154 0.0164377 0.0079143 0.00587429 -0.000224201 -0.000460557 -1.17092e-11 -1.22784e-10 1.22802e-10 5e-05 1.46608e-10 
97 1 0.220209 0.0163416 0.00805399 0.00588674 0.000607474 0.000632936 9.77565e-11 6.36552e-11 -6.67097e-11 5e-05 1.46608e-10 
98 1 0.226678 0.0178108 0.0071066 0.0055335 0.000174215 0.000303428 4.72019e-10 -1.46461e-10 1.13234e-10 5e-05 1.46608e-10 
99 1 0.220307 0.0166734 0.00769317 0.0061538 0.000612518 0.0006838 1.2363e-10 -1.24405e-10 2.04955e-10 5e-05 1.46608e-10 
100 1 0.226792 0.0183508 0.00691582 0.00565806 0.000172394 -0.000206587 3.9602e-10 -1.63773e-10 5.95299e-11 5e-05 1.46608e-10 
101 1 0.219884 0.0155806 0.00885884 0.00617181 0.000663838 0.000633317 -3.67574e-11 6.97751e-11 -9.94118e-11 5e-05 1.46608e-10 
102 1 0.0643568 0.0187248 0.00531097 4.45202e-15 1.04862e-14 8.2952e-14 -1.99192e-21 3.63572e-22 4.32202e-23 5e-05 1.46608e-10 
103 1 0.24257 0.0191927 0.00520306 -7.91558e-23 4.86658e-23 1.23839e-22 0 0 0 5e-05 1.46608e-10 
104 1 0.220515 0.0174636 0.00719709 0.00612023 -0.000327043 -0.000182089 -2.79789e-10 9.53995e-11 7.28161e-11 5e-05 1.46608e-10 
105 1 0.220938 0.0177787 0.00713536 0.00609479 0.000310568 -0.000279975 -4.26198e-10 -7.3107e-10 1.21608e-10 5e-05 1.46608e-10 
106 1 0.220759 0.0173608 0.00720247 0.00620922 -0.000208563 -0.000209706 -4.89591e-10 1.6233e-10 -2.01996e-12 5e-05 1.46608e-10 
107 1 0.220738 0.0172642 0.0072172 0.00623796 -0.000208199 -0.000212048 -5.31543e-10 2.55961e-10 -5.89398e-12 5e-05 1.46608e-10 
108 1 0.226663 0.0184291 0.00700166 0.00565695 0.000145426 -0.000204159 1.0334e-10 -4.19974e-10 -6.47612e-11 5e-05 1.46608e-10 
109 1 0.226847 0.0177866 0.00713158 0.00586683 0.000192473 0.000319393 -4.14486e-11 1.72373e-10 -1.01593e-10 5e-05 1.46608e-10 
110 1 0.226178 0.0165113 0.00785096 0.00597662 -0.000228336 -0.000464039 -6.56013e-11 4.87441e-11 -5.83652e-11 5e-05 1.46608e-10 
111 1 0.226516 0.017456 0.00728311 0.00623398 0.000385336 0.000243218 -1.30842e-10 1.41046e-10 3.46344e-10 5e-05 1.46608e-10 
112 1 0.220578 0.0177535 0.00715289 0.00609299 -0.000239447 -0.000202382 8.36147e-11 5.04692e-10 -8.23712e-11 5e-05 1.46608e-10 
113 1 0.220173 0.0165092 0.00785245 0.0059896 0.00063474 0.000633146 9.7079e-11 1.33778e-11 1.34816e-10 5e-05 1.46608e-10 
114 1 0.220544 0.0180122 0.00711695 0.00566195 -0.000139692 -0.000200632 2.36982e-10 1.08182e-09 -1.8758e-10 5e-05 1.46608e-10 
115 1 0.226772 0.0178425 0.00709654 0.00576699 0.000111943 0.000353158 -3.44071e-10 -2.53165e-10 1.01524e-10 5e-05 1.46608e-10 
116 1 0.226629 0.0181825 0.00703867 0.00577109 0.000365844 9.68387e-05 3.7922e-10 1.76315e-10 -3.63274e-11 5e-05 1.46608e-10 
117 1 0.226702 0.0187773 0.0069161 0.00554429 0.000223415 -0.000204968 -1.49833e-11 -2.89766e-10 2.53582e-12 5e-05 1.46608e-10 
118 1 0.220376 0.0172391 0.00723557 0.00628135 -0.000315715 -0.000214128 -6.01238e-11 7.44528e-11 -1.64729e-10 5e-05 1.46608e-10 
119 1 0.226734 0.0176676 0.00718651 0.00546022 0.00019268 0.000288344 6.8688e-10 -6.80926e-10 3.27601e-10 5e-05 1.46608e-10 
120 1 0.226011 0.0159174 0.00835887 0.0055366 -0.000230357 -0.000412659 -3.45126e-11 -9.25729e-11 9.44188e-11 5e-05 1.46608e-10 
121 1 0.225931 0.0156194 0.00861333 0.00551429 -0.000216189 -0.000418747 5.2371e-10 -3.89338e-10 3.20619e-10 5e-05 1.46608e-10 
122 1 0.226473 0.0172822 0.00737214 0.00616882 0.000382958 0.00023823 1.01184e-10 8.77005e-11 -1.27891e-10 5e-05 1.46608e-10 
123 1 0.220334 0.0170531 0.00728924 0.0063288 -0.000368298 -0.000251712 3.57218e-11 3.71389e-10 1.9314e-10 5e-05 1.46608e-10 
124 1 0.226495 0.0173691 0.00732762 0.00624172 0.000350733 0.000254923 5.24754e-11 2.52915e-11 -9.08801e-11 5e-05 1.46608e-10 
125 1 0.226777 0.018711 0.00691382 0.00568166 0.000230011 -0.000210267 3.71055e-11 -9.22282e-11 -1.185e-12 5e-05 1.46608e-10 
126 1 0.226403 0.0170239 0.007504 0.00581189 0.0004612 0.000172995 -7.15346e-10 5.45821e-10 -3.34133e-10 5e-05 1.46608e-10 
127 1 0.220959 0.0178754 0.00712063 0.00571268 -0.00012979 -0.000201879 1.31176e-10 5.57793e-10 -8.39178e-11 5e-05 1.46608e-10 
128 1 0.22644 0.0171977 0.00741461 0.0061541 0.000397637 0.000230353 2.06164e-10 -5.9462e-12 9.66829e-11 5e-05 1.46608e-10 
129 1 0.226507 0.0178353 0.00708138 0.00574926 0.000152601 0.000337392 -2.52854e-10 -5.9986e-10 4.75722e-10 5e-05 1.46608e-10 
131 1 0.22078 0.0174574 0.00718773 0.0061883 -0.000217578 -0.00020839 -2.93461e-10 8.92659e-11 -1.94255e-11 5e-05 1.46608e-10 
132 1 0.226621 0.017954 0.00702664 0.00578437 0.000213944 0.00031098 5.52028e-11 5.46289e-11 4.50654e-11 5e-05 1.46608e-10 
133 1 0.226467 0.017661 0.00717092 0.00611113 8.84905e-05 0.000385513 -2.09125e-10 -8.08888e-10 3.1951e-10 5e-05 1.46608e-10 
134 1 0.226412 0.0171122 0.00745789 0.00615683 0.000410703 0.000229079 2.19985e-10 -2.18516e-10 1.58455e-10 5e-05 1.46608e-10 
135 1 0.225809 0.0151729 0.0089949 0.00581565 -0.000429197 -0.000476777 -1.37796e-10 -3.08725e-10 -5.8458e-10 5e-05 1.46608e-10 
136 1 0.220605 0.0183017 0.00707288 0.00566081 -0.000202245 -0.00018926 -5.4299e-11 -1.39561e-10 2.89085e-11 5e-05 1.46608e-10 
137 1 0.226115 0.0162884 0.00804157 0.00571458 -0.000226605 -0.000434883 -5.66175e-11 -2.71712e-10 2.53258e-10 5e-05 1.46608e-10 
138 1 0.226627 0.0180386 0.00707973 0.00585195 0.000231088 0.00027341 3.91763e-11 2.10393e-10 -1.12969e-10 5e-05 1.46608e-10 
140 1 0.226658 0.0177235 0.00715147 0.00551902 0.000236595 0.000261013 5.84943e-10 -7.48473e-11 1.72372e-10 5e-05 1.46608e-10 
141 1 0.220599 0.0178502 0.00713816 0.00582474 -0.000147803 -0.000206228 1.88228e-10 1.10507e-10 -8.41648e-12 5e-05 1.46608e-10 
142 1 0.220313 0.016983 0.00735751 0.00625237 -0.00022107 -0.000100382 1.37035e-10 2.59703e-10 -9.12245e-11 5e-05 1.46608e-10 
143 1 0.21978 0.0152489 0.00921837 0.00590797 0.000692889 0.000539379 -8.32448e-12 2.89505e-10 -3.38228e-10 5e-05 1.46608e-10 
144 1 0.220439 0.017529 0.00719148 0.00617946 -0.000268031 -0.000362138 1.32146e-10 4.97086e-10 -4.38986e-10 5e-05 1.46608e-10 
147 1 0.220661 0.0181414 0.00709441 0.00567442 -0.000156178 -0.000196963 5.87286e-11 -3.56698e-11 -1.32503e-11 5e-05 1.46608e-10 
148 1 0.220401 0.0167052 0.00767784 0.00650367 0.000904816 0.00045039 3.50139e-10 -7.412e-10 8.53706e-10 5e-05 1.46608e-10 
149 1 0.226283 0.0169047 0.00756856 0.00612707 0.00040003 0.000221859 -2.19646e-11 3.67189e-10 -1.32228e-10 5e-05 1.46608e-10 
150 1 0.0100679 0.0201683 0.00551526 8.38481e-15 1.24296e-15 -8.48744e-14 -9.56428e-25 -5.01737e-23 -1.03398e-24 5e-05 1.46608e-10 
151 1 0.220273 0.0168468 0.0074979 0.00623134 0.000446723 0.000552219 -2.54858e-10 7.43283e-10 3.42639e-10 5e-05 1.46608e-10 
153 1 0.220646 0.0184953 0.00704342 0.00546373 -0.000166361 -0.000186904 -4.77142e-11 -7.20273e-11 1.0234e-11 5e-05 1.46608e-10 
154 1 0.220397 0.0173358 0.00722127 0.00625761 -0.000318503 -0.000312269 7.40149e-11 1.61459e-10 -3.15631e-10 5e-05 1.46608e-10 
155 1 0.220598 0.0170456 0.00728378 0.00647245 -2.06672e-06 0.000520124 -1.31733e-10 -1.81169e-10 2.22822e-10 5e-05 1.46608e-10 
156 1 0.220557 0.0176569 0.00716762 0.00609557 -0.000267067 -0.0001969 -4.81488e-10 2.46085e-10 -1.8994e-10 5e-05 1.46608e-10 
157 1 0.0219312 0.0187687 0.00551176 -3.8374e-14 8.16503e-14 2.95887e-13 7.90164e-22 1.1596e-22 6.47269e-23 5e-05 1.46608e-10 
158 1 0.220789 0.0179118 0.00712193 0.00568872 -0.000153528 -0.000196891 6.26818e-12 1.84676e-10 -1.60741e-11 5e-05 1.46608e-10 
159 1 0.226911 0.0184603 0.00691067 0.00564099 0.000213495 -0.000207867 6.80266e-11 -9.44055e-11 -2.90784e-11 5e-05 1.46608e-10 
160 1 0.220418 0.0174325 0.00720678 0.0062069 -0.000302582 -0.0003932 7.99962e-11 3.77105e-10 -5.59689e-10 5e-05 1.46608e-10 
162 1 0.220723 0.0184317 0.00704962 0.00547481 -0.000156593 -0.000188754 -1.62874e-10 -1.05831e-10 2.24189e-11 5e-05 1.46608e-10 
164 1 0.220267 0.0165407 0.00783743 0.00604762 0.00061728 0.000659795 -1.7025e-10 -1.45262e-10 1.40528e-10 5e-05 1.46608e-10 
165 1 0.220611 0.0174946 0.0071889 0.0061712 -0.000268899 -0.000198728 -4.90521e-10 2.08113e-10 1.09931e-10 5e-05 1.46608e-10 
166 1 0.226642 0.0184833 0.00692038 0.00565041 0.000132587 -0.000207339 5.91318e-11 -1.5983e-10 1.66183e-11 5e-05 1.46608e-10 
168 1 0.220327 0.0167398 0.00762098 0.00622033 0.000623297 0.000700127 1.29568e-10 -2.7551e-10 -7.03282e-11 5e-05 1.46608e-10 
169 1 0.220777 0.0182685 0.00707103 0.00569017 -0.000213876 -0.000188907 -9.60106e-11 -2.32352e-10 3.82368e-11 5e-05 1.46608e-10 
170 1 0.220685 0.0174277 0.00719569 0.00619765 -0.000242219 -0.00020692 -4.77835e-10 8.35222e-11 3.35454e-11 5e-05 1.46608e-10 
171 1 0.226553 0.0179792 0.00711399 0.00581869 0.000312981 0.000286564 2.07546e-11 -1.94329e-10 2.244e-10 5e-05 1.46608e-10 
172 1 0.22059 0.0173982 0.0072046 0.00619113 -0.00028216 -0.000200051 -2.47862e-10 6.85468e-11 8.0135e-11 5e-05 1.46608e-10 
173 1 0.226827 0.0181685 0.0069328 0.00562433 0.000121377 -0.00016929 2.48842e-10 -5.07041e-11 -2.63572e-10 5e-05 1.46608e-10 
174 1 0.22062 0.0171361 0.00724022 0.00629263 -0.000280788 -0.000198291 -1.87604e-10 8.90439e-11 -8.53293e-13 5e-05 1.46608e-10 
175 1 0.214336 0.0171247 0.00743543 0.00610745 0.000244096 0.000521624 -6.26061e-11 -5.95457e-12 -2.64881e-12 5e-05 1.46608e-10 
177 1 0.220446 0.0168256 0.00752142 0.006281 -0.000485409 -0.000364491 -3.32914e-10 3.38754e-10 -2.18094e-10 5e-05 1.46608e-10 
178 1 0.220369 0.0168711 0.00747603 0.00627173 -0.000222049 -8.76771e-05 2.5088e-10 2.91312e-10 -4.63156e-10 5e-05 1.46608e-10 
179 1 0.22045 0.0171721 0.00724159 0.00631341 -0.000293078 -0.000195294 -1.67089e-11 9.58886e-11 -3.66422e-11 5e-05 1.46608e-10 
181 1 0.220736 0.0180748 0.00710052 0.00568454 -0.000147034 -0.000198774 1.59966e-10 4.22472e-11 -2.59951e-11 5e-05 1.46608e-10 
182 1 0.226489 0.0177479 0.00712636 0.00561959 0.000114509 0.000318541 8.29187e-10 -4.79531e-10 4.03924e-10 5e-05 1.46608e-10 
183 1 0.220664 0.0173311 0.00721043 0.00621268 -0.000243432 -0.000205111 -4.58799e-10 -2.00605e-10 5.51757e-11 5e-05 1.46608e-10 
184 1 0.226496 0.01774 0.00722577 0.00568174 0.000361721 0.000332197 -3.24922e-10 -7.11066e-10 4.78101e-10 5e-05 1.46608e-10 
186 1 0.220252 0.0167746 0.00756392 0.00618187 0.000592331 0.000706189 3.09339e-10 3.14609e-10 -1.22128e-10 5e-05 1.46608e-10 
187 1 0.226381 0.0173134 0.00734897 0.00616542 0.000368512 0.000246663 -1.21617e-12 2.60025e-10 2.03048e-11 5e-05 1.46608e-10 
188 1 0.226572 0.0172727 0.00738426 0.00616225 0.000367659 0.00024901 -3.29497e-10 2.2043e-10 -1.3277e-10 5e-05 1.46608e-10 
189 1 0.226633 0.0180434 0.00698008 0.00579441 0.000230963 0.000275084 2.90588e-11 1.09189e-10 -3.73716e-11 5e-05 1.46608e-10 
190 1 0.214614 0.018348 0.00700954 0.00554393 -9.22066e-05 0.000395318 5.50108e-11 2.2724e-10 -3.62654e-11 5e-05 1.46608e-10 
191 1 0.226621 0.0174452 0.00729633 0.00585804 0.000410294 0.000198693 1.17637e-10 -1.62962e-10 3.81868e-10 5e-05 1.46608e-10 
192 1 0.220569 0.0173014 0.00721837 0.00620733 -0.000298544 -0.000201042 -3.90122e-10 -9.02963e-11 -3.83854e-11 5e-05 1.46608e-10 
193 1 0.226753 0.0177549 0.00714164 0.00558458 0.000231257 0.000279621 1.0265e-10 -5.49785e-10 2.5672e-10 5e-05 1.46608e-10 
194 1 0.161461 0.0182058 0.00533758 1.58251e-15 -1.10029e-14 8.66687e-14 6.61932e-22 7.89699e-23 -1.65436e-24 5e-05 1.46608e-10 
195 1 0.220769 0.0178145 0.00713673 0.00571244 -0.000148426 -0.000199457 1.02188e-10 3.75983e-10 -8.18211e-11 5e-05 1.46608e-10 
196 1 0.220169 0.0162088 0.00819829 0.00570099 0.000564862 0.000640759 -5.03071e-10 -3.74118e-10 3.53173e-10 5e-05 1.46608e-10 
197 1 0.214399 0.0173483 0.00724597 0.00614852 0.000259694 0.000461727 6.13182e-11 -3.55447e-10 2.36456e-10 5e-05 1.46608e-10 
198 1 0.220625 0.0183985 0.00705815 0.00567937 -0.000212787 -0.00018868 -9.93567e-12 -9.75497e-11 1.28637e-11 5e-05 1.46608e-10 
199 1 0.220523 0.0179154 0.00713168 0.00573699 -0.000211735 -0.000189732 8.04191e-10 1.42587e-10 -9.97903e-11 5e-05 1.46608e-10 
201 1 0.220154 0.0164439 0.00792564 0.00590731 0.000623314 0.000617423 -4.58149e-11 -1.70941e-10 1.93144e-10 5e-05 1.46608e-10 
202 1 0.220653 0.0176881 0.00716122 0.00610983 -0.000250231 -0.000212289 -8.35891e-10 1.67636e-10 -3.29908e-10 5e-05 1.46608e-10 
203 1 0.226205 0.0165849 0.0077889 0.00606677 -0.000236044 -0.000468812 6.29561e-11 1.99025e-10 -2.58017e-10 5e-05 1.46608e-10 
204 1 0.219842 0.015448 0.00900247 0.00560325 0.000684819 0.000479363 -2.77064e-10 4.93214e-11 -1.3064e-10 5e-05 1.46608e-10 
205 1 0.220727 0.017621 0.00716621 0.00615864 -0.000249221 -0.000193278 -6.2632e-10 1.27066e-10 1.60921e-10 5e-05 1.46608e-10 
206 1 0.220228 0.0164079 0.00798178 0.00594157 0.000625119 0.000621139 3.72475e-10 1.55515e-10 -1.21834e-10 5e-05 1.46608e-10 
207 1 0.220348 0.0168061 0.00754934 0.00616441 0.000579413 0.000708999 -2.98247e-10 1.42072e-10 -1.87784e-11 5e-05 1.46608e-10 
208 1 0.220536 0.0175605 0.00718412 0.00612281 -0.000301256 -0.00025623 -5.89093e-10 1.51646e-10 2.95584e-11 5e-05 1.46608e-10 
209 1 0.217372 0.0175071 0.00708933 0.0061697 -0.000983005 0.000371527 8.88761e-14 -1.04205e-14 1.57161e-15 5e-05 1.46608e-10 
210 1 0.226424 0.0174872 0.00725994 0.00619282 0.000305069 0.000286313 -8.02342e-11 -1.22279e-10 -7.06548e-11 5e-05 1.46608e-10 
211 1 0.226365 0.0172604 0.00743222 0.00615248 0.000386026 0.000238392 1.66106e-10 -6.28375e-12 1.44334e-10 5e-05 1.46608e-10 
212 1 0.220674 0.0177846 0.00714471 0.0057214 -0.000172712 -0.000197843 3.0689e-10 6.40317e-11 -5.16621e-11 5e-05 1.46608e-10 
213 1 0.22658 0.0181795 0.0069248 0.0055012 -0.000421354 -0.000199692 -1.33429e-10 -3.36688e-10 4.89367e-11 5e-05 1.46608e-10 
214 1 0.2263 0.0169879 0.00751572 0.00613182 0.000409751 0.000217958 -5.70426e-11 1.30784e-10 -1.45101e-10 5e-05 1.46608e-10 
215 1 0.214594 0.0182516 0.00699192 0.00554899 -0.000109847 0.000402749 -6.71287e-11 2.47153e-10 -1.97063e-11 5e-05 1.46608e-10 
216 1 0.220632 0.0175913 0.00717476 0.00614084 -0.000256127 -0.000203172 -6.71402e-10 2.94309e-10 -7.7075e-11 5e-05 1.46608e-10 
217 1 0.226682 0.0186793 0.00691752 0.00569522 0.000183412 -0.000210434 -1.22735e-11 -2.10726e-10 1.85278e-12 5e-05 1.46608e-10 
218 1 0.219954 0.0157796 0.00864564 0.00642443 0.000616707 0.000735534 3.23732e-10 -9.77373e-12 9.57123e-11 5e-05 1.46608e-10 
219 1 0.226236 0.0167379 0.00766427 0.00605357 0.000203611 -2.30497e-06 2.39399e-11 4.66243e-10 -3.74409e-10 5e-05 1.46608e-10 
220 1 0.220748 0.0177177 0.00715147 0.00615137 -0.000142954 -0.000213056 -6.99582e-10 2.61191e-10 -3.70488e-11 5e-05 1.46608e-10 
221 1 0.280296 0.0169292 0.00737365 0.00579678 0.000610255 -0.000247589 -1.66084e-13 5.82945e-13 -2.38327e-13 5e-05 1.46608e-10 
222 1 0.226763 0.0182444 0.00691761 0.00566921 0.000143663 -0.000202888 9.97771e-11 -2.26476e-10 -3.69599e-11 5e-05 1.46608e-10 
223 1 0.220494 0.017367 0.00721182 0.00618787 -0.00031866 -0.000195454 -3.38677e-10 4.74393e-11 6.46292e-11 5e-05 1.46608e-10 
224 1 0.0388871 0.0173242 0.00799961 -1.3013e-06 -0.020996 0.0103484 -8.07213e-14 4.93037e-11 -3.39115e-12 5e-05 1.46608e-10 
225 1 0.226581 0.0175263 0.00725385 0.00613358 0.000502647 0.000193702 2.41463e-10 -4.24685e-10 8.4127e-11 5e-05 1.46608e-10 
226 1 0.220293 0.0169193 0.00743209 0.0062981 0.000136066 0.000231006 3.52541e-10 3.57534e-10 -3.8117e-11 5e-05 1.46608e-10 
227 1 0.214534 0.0179596 0.00696526 0.00586622 -0.000105256 -0.000154337 -3.72114e-11 4.03091e-10 -1.06456e-10 5e-05 1.46608e-10 
228 1 0.214357 0.0171978 0.00737046 0.00618279 0.000240883 0.000530597 3.12605e-10 -1.04544e-10 2.07378e-10 5e-05 1.46608e-10 
229 1 0.220714 0.0179782 0.00711526 0.00568337 -0.000152878 -0.000197512 2.3166e-10 -1.14203e-11 -8.61953e-12 5e-05 1.46608e-10 
230 1 0.220114 0.0163101 0.00806884 0.00580332 0.00063082 0.000598735 -3.25917e-11 -1.61176e-10 5.49999e-11 5e-05 1.46608e-10 
231 1 0.214315 0.0170516 0.00750047 0.006067 0.000247434 0.000519678 4.21571e-10 1.2958e-10 -4.89629e-12 5e-05 1.46608e-10 
232 1 0.220503 0.0178187 0.00714642 0.0060537 -0.000256466 -0.000207757 -3.59827e-10 -3.44372e-10 3.26725e-10 5e-05 1.46608e-10 
234 1 0.226526 0.0179226 0.00703639 0.00581657 0.000202852 0.00032246 1.23691e-10 -5.73189e-10 3.95897e-10 5e-05 1.46608e-10 
235 1 0.220706 0.0175243 0.00718096 0.00617381 -0.00023591 -0.000206212 -4.7692e-10 3.01791e-10 1.1731e-11 5e-05 1.46608e-10 
236 1 0.220075 0.0161788 0.00821459 0.0056733 0.000592605 0.000592204 -5.69606e-11 -1.21361e-10 2.57374e-11 5e-05 1.46608e-10 
237 1 0.220037 0.0160461 0.00835926 0.00550832 0.000575384 0.000554461 -2.16394e-10 -3.2856e-10 3.88044e-10 5e-05 1.46608e-10 
239 1 0.21415 0.0164669 0.00802078 0.00575306 0.000304608 0.000423117 -2.34079e-10 -3.23451e-10 2.57288e-10 5e-05 1.46608e-10 
240 1 0.214171 0.01654 0.00795574 0.00580054 0.000280001 0.000452517 8.33203e-11 -1.92546e-10 2.28929e-10 5e-05 1.46608e-10 
241 1 0.214233 0.0167593 0.00776063 0.00592575 0.000239978 0.000510983 2.22567e-11 2.98067e-10 -9.33382e-11 5e-05 1.46608e-10 
242 1 0.220355 0.0171424 0.00724954 0.00629514 -0.000321558 -0.000204482 -3.6991e-11 1.09206e-10 -2.44201e-11 5e-05 1.46608e-10 
244 1 0.214191 0.0166131 0.0078907 0.00581295 0.000255859 0.000472629 1.64162e-10 -1.99365e-10 1.71583e-10 5e-05 1.46608e-10 
246 1 0.214295 0.0169785 0.00756551 0.00604955 0.000248145 0.000524356 -2.47689e-10 1.69736e-10 -9.1676e-11 5e-05 1.46608e-10 
247 1 0.220905 0.0180389 0.00709915 0.00568745 -0.000167079 -0.00019548 -1.49759e-10 2.74242e-11 -1.09766e-12 5e-05 1.46608e-10 
248 1 0.220134 0.0163765 0.00799671 0.00588324 0.000633584 0.000605129 -1.41149e-10 -1.68594e-10 2.07106e-10 5e-05 1.46608e-10 
249 1 0.214574 0.0181552 0.00697429 0.00553402 -0.000113241 0.000387474 1.4157e-10 2.74299e-10 -1.47131e-10 5e-05 1.46608e-10 
250 1 0.220425 0.0167664 0.00759938 0.00632135 -0.000536181 -0.00038876 -5.57384e-10 6.84647e-10 1.96429e-10 5e-05 1.46608e-10 
251 1 0.226216 0.0166607 0.00772459 0.00617972 -0.000199294 -0.000440064 -8.07788e-11 4.46125e-10 -3.22571e-10 5e-05 1.46608e-10 
252 1 0.214435 0.0174919 0.00711171 0.00531088 8.65943e-05 -5.44154e-05 -1.02569e-10 -7.1357e-10 -2.21609e-10 5e-05 1.46608e-10 
253 1 0.214634 0.0184444 0.00702717 0.00552578 -7.6948e-05 0.000401936 -2.80817e-11 1.7068e-10 -8.84486e-12 5e-05 1.46608e-10 
254 1 0.214274 0.0169055 0.00763055 0.0059811 0.000225131 0.000520988 -6.61768e-10 2.02501e-10 -2.37463e-10 5e-05 1.46608e-10 
255 1 0.22046 0.0176255 0.00717596 0.00616251 -0.000228876 -0.000269975 -1.21412e-10 2.72385e-10 2.89754e-10 5e-05 1.46608e-10 
256 1 0.220548 0.0172049 0.0072341 0.00625058 -0.000321747 -0.00020433 -3.5982e-10 -2.42272e-10 -9.2782e-11 5e-05 1.46608e-10 
257 1 0.220504 0.0170256 0.00731028 0.0063454 -0.000444895 -0.000272212 -2.47563e-10 2.3663e-10 2.17186e-10 5e-05 1.46608e-10 
258 1 0.220409 0.0169933 0.00731525 0.00628649 -0.000490683 -0.000369734 1.02408e-10 1.02519e-10 -1.51069e-10 5e-05 1.46608e-10 
259 1 0.214454 0.0175855 0.00708232 0.00560544 6.77653e-06 -0.000121679 6.81497e-11 -4.04147e-10 5.46491e-11 5e-05 1.46608e-10 
261 1 0.220213 0.0166419 0.00770819 0.00614873 0.000609667 0.000682137 -2.31427e-10 3.27915e-10 -3.93498e-10 5e-05 1.46608e-10 