ITEM: TIMESTEP
37400000
ITEM: NUMBER OF ATOMS
271
ITEM: BOX BOUNDS ff ff ff
-0.02 0.43
-0.02 0.06
-0.02 0.07
ITEM: ATOMS id type x y z vx vy vz fx fy fz radius mass 
1 1 0.230617 0.0157017 0.00847326 0.00558477 0.000424445 -2.51699e-05 -1.29522e-10 1.10438e-10 -3.02272e-11 5e-05 1.46608e-10 
2 1 0.231483 0.0184027 0.0069618 0.00554942 1.83701e-05 9.11334e-05 7.15588e-11 3.00631e-11 -1.89655e-11 5e-05 1.46608e-10 
3 1 0.225534 0.0178767 0.00698954 0.0056415 0.00040985 0.000191743 6.38108e-10 -2.02516e-10 3.3863e-10 5e-05 1.46608e-10 
4 1 0.231559 0.0183418 0.00698456 0.00552176 -9.40647e-06 0.000101653 6.24232e-11 -2.06943e-11 4.93995e-12 5e-05 1.46608e-10 
5 1 0.230604 0.0156572 0.00856183 0.005536 0.000432845 -2.89074e-05 -6.84032e-11 7.08886e-11 -5.26247e-11 5e-05 1.46608e-10 
6 1 0.236979 0.0169614 0.00737953 0.00556306 -0.000362793 0.000265544 -3.8731e-12 3.29986e-12 7.22082e-12 5e-05 1.46608e-10 
7 1 0.230694 0.0158884 0.00812816 0.00567299 4.64872e-05 -0.000227413 1.31647e-11 4.62537e-11 -3.33828e-11 5e-05 1.46608e-10 
8 1 0.230579 0.0156085 0.00864557 0.00551958 0.000433674 -3.73554e-05 1.04108e-10 2.76361e-11 -1.64725e-11 5e-05 1.46608e-10 
9 1 0.237095 0.0174721 0.00708659 0.00551711 -0.000480482 5.4005e-05 3.31769e-11 6.47866e-12 -1.53363e-11 5e-05 1.46608e-10 
10 1 0.231174 0.0178647 0.00714547 0.00544883 0.000139823 5.1052e-05 1.18957e-10 8.25081e-11 1.41561e-11 5e-05 1.46608e-10 
11 1 0.231307 0.0180814 0.00707163 0.00548958 0.000145846 4.63633e-05 9.76273e-11 2.38358e-11 -1.14041e-11 5e-05 1.46608e-10 
12 1 0.224635 0.0158521 0.00856265 0.00574994 6.92383e-05 -0.000683444 1.18181e-10 1.49448e-10 -1.722e-10 5e-05 1.46608e-10 
13 1 0.230523 0.0154711 0.00890622 0.00557793 0.0004525 -6.27188e-05 -1.3365e-10 1.82302e-11 -7.1128e-11 5e-05 1.46608e-10 
14 1 0.225308 0.0185274 0.00696903 0.00568869 0.000524838 -0.000213386 -1.7412e-11 5.08035e-11 1.10704e-11 5e-05 1.46608e-10 
15 1 0.231508 0.0182601 0.00701241 0.00544727 4.25779e-05 8.24321e-05 1.74641e-10 2.98716e-12 -1.10531e-11 5e-05 1.46608e-10 
16 1 0.225405 0.0185624 0.00696522 0.0056656 0.000489674 -0.000211166 -3.26068e-10 -2.01223e-10 1.56763e-11 5e-05 1.46608e-10 
17 1 0.231634 0.0184042 0.00696397 0.00559692 -9.94981e-05 0.000134469 -9.31264e-11 -5.76402e-11 3.08836e-11 5e-05 1.46608e-10 
19 1 0.23056 0.0155627 0.00873247 0.00551843 0.000439456 -5.10764e-05 5.2011e-10 -3.30383e-11 1.16887e-10 5e-05 1.46608e-10 
21 1 0.231134 0.0176797 0.00720981 0.00574515 8.96085e-05 7.20341e-05 3.80215e-11 8.36898e-11 -6.5735e-11 5e-05 1.46608e-10 
22 1 0.231288 0.0179885 0.00710398 0.00540941 7.26062e-05 7.00705e-05 -2.62969e-11 9.41987e-11 -4.60637e-11 5e-05 1.46608e-10 
23 1 0.224882 0.0163915 0.00809095 0.00593545 0.000103 -0.000731809 2.56009e-10 9.14502e-11 -1.0482e-10 5e-05 1.46608e-10 
24 1 0.237175 0.0178573 0.00701381 0.00557263 -0.000493705 5.62405e-05 6.337e-11 -2.82099e-11 -1.18018e-12 5e-05 1.46608e-10 
25 1 0.230758 0.0161352 0.00797441 0.00614829 -0.000154457 -0.000311926 -5.23056e-11 -5.82486e-11 2.44647e-11 5e-05 1.46608e-10 
26 1 0.237057 0.0173014 0.00718365 0.00573463 -0.000392581 0.000292467 -1.33668e-11 -3.12915e-11 3.09461e-11 5e-05 1.46608e-10 
27 1 0.225611 0.0182665 0.00695976 0.00571847 0.000436826 -0.000213073 2.56244e-11 1.18667e-10 1.04171e-11 5e-05 1.46608e-10 
28 1 0.231422 0.0182121 0.00702773 0.00549645 0.000100889 5.92827e-05 -7.31717e-11 -3.6316e-11 1.13731e-11 5e-05 1.46608e-10 
29 1 0.230716 0.015961 0.00806291 0.0059871 -0.000124186 -0.000314973 3.71378e-11 8.75323e-12 -3.71576e-12 5e-05 1.46608e-10 
30 1 0.231281 0.0181764 0.00712872 0.00549757 0.000119925 4.98733e-05 -2.74193e-11 3.8425e-11 6.51043e-11 5e-05 1.46608e-10 
31 1 0.23078 0.0162221 0.00793017 0.00612982 -0.000149739 -0.00031244 2.53471e-11 -1.1403e-10 3.84747e-11 5e-05 1.46608e-10 
32 1 0.231267 0.017457 0.00729091 0.00589339 5.88786e-05 -0.000401997 -3.02901e-11 -5.05197e-12 -1.61998e-11 5e-05 1.46608e-10 
33 1 0.236999 0.0170464 0.00733045 0.00560712 -0.000371036 0.000271399 7.40789e-12 6.22827e-12 -6.37936e-12 5e-05 1.46608e-10 
34 1 0.230675 0.0158419 0.00821454 0.00566412 0.000309034 -8.65701e-05 2.08694e-12 3.78676e-11 -4.76472e-11 5e-05 1.46608e-10 
35 1 0.231414 0.0178463 0.00715623 0.00556876 0.000176909 3.63491e-05 -1.26176e-10 -1.7404e-10 6.48072e-11 5e-05 1.46608e-10 
36 1 0.237155 0.017761 0.007032 0.00556805 -0.000488203 5.47541e-05 1.07981e-10 6.77648e-11 -1.42925e-11 5e-05 1.46608e-10 
37 1 0.231315 0.0185563 0.00690483 0.0056191 7.39399e-05 7.38571e-05 -1.11244e-11 -6.72862e-11 3.39992e-11 5e-05 1.46608e-10 
38 1 0.231471 0.0188811 0.00683017 0.0057277 4.51657e-05 3.28354e-05 -3.81836e-11 -4.51442e-11 -1.57656e-10 5e-05 1.46608e-10 
39 1 0.237194 0.0179536 0.00699561 0.00559258 -0.000487973 5.52082e-05 -5.37412e-11 -6.34351e-11 1.01516e-11 5e-05 1.46608e-10 
41 1 0.231653 0.0184969 0.00693171 0.00563242 -7.6851e-05 0.000127129 -8.09896e-11 -6.67915e-11 2.99858e-11 5e-05 1.46608e-10 
42 1 0.321436 0.0173475 0.00552525 4.55319e-16 2.25488e-15 8.46361e-14 -3.78564e-23 2.24243e-24 0 5e-05 1.46608e-10 
44 1 0.23143 0.018318 0.00699064 0.00551524 0.000115866 5.66684e-05 -1.71173e-11 -1.04743e-10 3.9295e-12 5e-05 1.46608e-10 
45 1 0.237018 0.0171314 0.00728148 0.00564769 -0.000375544 0.000282691 1.41244e-11 3.53748e-12 4.4046e-12 5e-05 1.46608e-10 
47 1 0.230637 0.0157486 0.00838715 0.00561379 0.000434257 -1.53715e-05 1.25535e-11 4.06859e-11 -1.97121e-11 5e-05 1.46608e-10 
48 1 0.231452 0.0187829 0.00682755 0.00572998 3.24346e-05 9.06896e-05 2.91782e-11 9.09826e-11 -7.09364e-11 5e-05 1.46608e-10 
50 1 0.230821 0.0163964 0.0078417 0.00611789 -0.00014818 -0.000312273 -4.92533e-11 -1.04725e-10 6.93706e-11 5e-05 1.46608e-10 
51 1 0.230799 0.0163118 0.00789037 0.00611932 -0.000148329 -0.000312181 -7.77085e-11 -1.0227e-10 8.50296e-11 5e-05 1.46608e-10 
52 1 0.224548 0.0155555 0.00881667 0.00565779 -3.1053e-05 -0.000589043 1.29031e-10 1.65963e-11 -8.72903e-11 5e-05 1.46608e-10 
53 1 0.237135 0.0176647 0.0070502 0.00554335 -0.00048101 5.3762e-05 -2.09537e-10 1.07664e-11 1.02724e-11 5e-05 1.46608e-10 
54 1 0.231403 0.0185416 0.00697609 0.00564214 4.87226e-05 7.76794e-05 6.76767e-11 -1.93507e-11 -1.94269e-11 5e-05 1.46608e-10 
55 1 0.224487 0.0153323 0.00900743 0.0055193 -7.43574e-05 -0.000540535 -1.55533e-10 8.87262e-11 -3.78783e-11 5e-05 1.46608e-10 
56 1 0.231335 0.0186502 0.00687214 0.00569496 5.87082e-05 8.13451e-05 -3.23787e-11 3.4026e-11 -7.72577e-12 5e-05 1.46608e-10 
57 1 0.237037 0.0172165 0.00723254 0.00569215 -0.000383888 0.000286642 -4.99824e-12 -3.69949e-11 -2.37475e-12 5e-05 1.46608e-10 
59 1 0.231269 0.0178958 0.00713623 0.00543494 0.000194841 2.75495e-05 -2.59716e-10 1.665e-11 -3.5525e-12 5e-05 1.46608e-10 
61 1 0.231115 0.0172059 0.00742427 0.00605342 -6.8165e-05 -0.000346403 7.78107e-11 2.5256e-11 -1.9236e-11 5e-05 1.46608e-10 
62 1 0.231605 0.0186625 0.00687263 0.00572171 2.61029e-06 0.000100555 4.01034e-11 2.36367e-12 1.32708e-11 5e-05 1.46608e-10 
63 1 0.231611 0.0182619 0.0070136 0.00549725 -2.11177e-05 0.000105287 9.34182e-12 -4.92766e-11 2.1518e-11 5e-05 1.46608e-10 
64 1 0.237214 0.0180499 0.00697741 0.00560849 -0.000489562 5.5201e-05 3.336e-11 4.55086e-11 -5.9621e-12 5e-05 1.46608e-10 
65 1 0.224828 0.0165198 0.00799103 0.00594423 6.05053e-05 -0.000697624 -1.69003e-10 -2.70424e-10 2.4716e-10 5e-05 1.46608e-10 
66 1 0.224468 0.0152576 0.00907109 0.00549487 -8.33849e-05 -0.000530961 -5.73231e-11 4.82283e-11 -1.96289e-11 5e-05 1.46608e-10 
67 1 0.231395 0.0184469 0.00694469 0.00557822 6.00498e-05 7.57051e-05 3.05473e-11 -2.67543e-11 -4.53399e-12 5e-05 1.46608e-10 
68 1 0.231328 0.0176359 0.00722867 0.00570074 0.000257886 1.14449e-05 3.43815e-10 8.56325e-11 -1.62428e-11 5e-05 1.46608e-10 
69 1 0.231366 0.0186481 0.00696717 0.00568912 6.22093e-05 8.67648e-05 2.77834e-11 5.32338e-11 -3.64067e-11 5e-05 1.46608e-10 
70 1 0.237076 0.0173865 0.00713467 0.00577875 -0.000400572 0.000297763 -3.27947e-11 1.97229e-12 2.78523e-11 5e-05 1.46608e-10 
71 1 0.224527 0.0154813 0.00888018 0.00564661 -5.32457e-05 -0.000572971 4.92856e-11 4.35136e-11 -1.1944e-10 5e-05 1.46608e-10 
72 1 0.231269 0.0183327 0.00703045 0.00549771 0.000124182 5.09306e-05 1.29653e-11 -2.94075e-11 -4.11329e-12 5e-05 1.46608e-10 
73 1 0.231374 0.0188458 0.00683276 0.00572579 4.13071e-05 5.29872e-05 -4.77288e-12 1.97802e-12 -1.92568e-10 5e-05 1.46608e-10 
74 1 0.231435 0.0186906 0.00686232 0.00572191 3.54323e-05 9.00217e-05 2.71177e-11 1.15895e-10 -3.08991e-11 5e-05 1.46608e-10 
76 1 0.225536 0.0183325 0.00696205 0.00573365 0.000467841 -0.000212272 -9.99711e-11 1.09817e-10 -2.49254e-11 5e-05 1.46608e-10 
77 1 0.231364 0.0179273 0.00712685 0.00549679 0.000140514 4.81022e-05 1.46178e-10 1.88813e-11 -3.25982e-12 5e-05 1.46608e-10 
78 1 0.225289 0.0184294 0.00697045 0.0056883 0.000506841 -0.000213313 3.86471e-11 1.00267e-10 -5.06274e-12 5e-05 1.46608e-10 
79 1 0.224591 0.0157039 0.00868963 0.00572163 1.57766e-05 -0.000640005 -1.83002e-10 1.54571e-10 -1.26056e-10 5e-05 1.46608e-10 
80 1 0.231581 0.0185613 0.00690777 0.00567739 -2.57856e-05 0.000109956 -7.36025e-11 1.07591e-11 -1.22074e-12 5e-05 1.46608e-10 
81 1 0.225425 0.0186604 0.0069638 0.00568663 0.000421447 -0.000211821 7.09844e-11 6.98802e-11 -7.95918e-12 5e-05 1.46608e-10 
82 1 0.224656 0.0159264 0.00849909 0.00578321 8.68431e-05 -0.000700656 -6.81049e-11 8.06337e-11 -7.36009e-12 5e-05 1.46608e-10 
83 1 0.225346 0.0182681 0.00696947 0.00570575 0.000548442 -0.000211668 -4.66067e-11 -1.23143e-10 -7.41921e-11 5e-05 1.46608e-10 
84 1 0.237115 0.0175684 0.0070684 0.00552468 -0.000481013 5.42415e-05 -3.41237e-11 3.29278e-11 -8.35363e-12 5e-05 1.46608e-10 
85 1 0.225553 0.0179722 0.006964 0.00559874 0.000344645 -0.000199976 -8.51837e-11 -1.34087e-10 -1.97454e-11 5e-05 1.46608e-10 
86 1 0.231675 0.0185958 0.00689734 0.00571168 -1.35472e-05 0.000106259 5.76238e-11 -9.72277e-11 3.05231e-11 5e-05 1.46608e-10 
87 1 0.231546 0.0188166 0.00681741 0.00572121 1.36182e-05 0.000100758 4.90893e-11 2.19115e-11 -1.13853e-11 5e-05 1.46608e-10 
88 1 0.231002 0.0170897 0.00748864 0.00606202 -0.000108916 -0.000329904 -1.31749e-11 -3.88657e-11 1.0289e-11 5e-05 1.46608e-10 
89 1 0.231529 0.0187236 0.00684981 0.00572525 1.81341e-05 9.57488e-05 4.63273e-11 1.16613e-10 -4.40902e-11 5e-05 1.46608e-10 
90 1 0.231326 0.0181743 0.00703931 0.00550802 0.000102843 6.08082e-05 -9.01655e-11 6.8348e-12 -2.41615e-11 5e-05 1.46608e-10 
91 1 0.225592 0.0181685 0.00696117 0.00568697 0.000438702 -0.000217784 -7.96236e-11 1.31274e-10 6.98261e-11 5e-05 1.46608e-10 
92 1 0.231417 0.0185978 0.00689464 0.0056977 4.03192e-05 8.51156e-05 -4.49015e-11 7.80959e-11 -3.75596e-11 5e-05 1.46608e-10 
93 1 0.230864 0.0165704 0.00775325 0.00610402 -0.000146071 -0.000311348 -3.13329e-11 -7.63675e-11 4.66266e-11 5e-05 1.46608e-10 
94 1 0.23138 0.0182069 0.00711853 0.00547533 9.3626e-05 4.12097e-05 -1.23665e-11 2.11969e-11 7.10615e-11 5e-05 1.46608e-10 
95 1 0.23124 0.0178455 0.00721788 0.00552063 0.000205154 2.77625e-06 -3.41411e-11 3.77731e-12 2.51367e-10 5e-05 1.46608e-10 
96 1 0.230887 0.0166571 0.00770906 0.00609519 -0.000143526 -0.000312939 7.56873e-12 -5.67293e-11 3.10438e-11 5e-05 1.46608e-10 
97 1 0.224947 0.0166141 0.00790037 0.00600979 7.44865e-05 -0.000716274 4.29148e-11 -1.18731e-10 9.35409e-11 5e-05 1.46608e-10 
98 1 0.231405 0.0181165 0.00706104 0.00548665 7.02167e-05 7.21588e-05 -8.57565e-11 8.58403e-11 -3.47032e-11 5e-05 1.46608e-10 
99 1 0.225054 0.0169851 0.00758275 0.00616786 -0.000143018 -0.000554761 1.86149e-10 5.61797e-11 -5.91124e-11 5e-05 1.46608e-10 
100 1 0.231511 0.0186287 0.00688285 0.00570457 7.10094e-06 9.98058e-05 -6.58664e-13 1.01271e-10 -3.42789e-11 5e-05 1.46608e-10 
101 1 0.224613 0.0157781 0.00862612 0.00574869 4.05906e-05 -0.000662819 3.06128e-11 1.90764e-10 -2.34068e-10 5e-05 1.46608e-10 
102 1 0.0643568 0.0187248 0.00531097 4.15305e-15 1.04959e-14 8.29662e-14 3.71352e-21 -1.01663e-21 -6.63812e-23 5e-05 1.46608e-10 
103 1 0.24257 0.0191927 0.00520306 -1.3037e-23 -1.27651e-22 -5.81428e-22 0 0 0 5e-05 1.46608e-10 
104 1 0.225248 0.0177833 0.00701857 0.00578624 0.000421553 0.000178584 -7.45086e-10 -6.82711e-10 5.96372e-11 5e-05 1.46608e-10 
105 1 0.225667 0.0181025 0.00695888 0.00567287 0.000369749 -0.0002116 -2.34081e-10 1.14339e-10 3.97247e-11 5e-05 1.46608e-10 
106 1 0.225494 0.0177024 0.00707913 0.00584139 0.00033309 0.000242072 -9.35716e-11 -2.22477e-10 9.40337e-11 5e-05 1.46608e-10 
107 1 0.225475 0.0176151 0.007124 0.00589447 0.000319253 0.000255036 -1.9138e-10 -3.45976e-11 6.10624e-11 5e-05 1.46608e-10 
108 1 0.231402 0.0187901 0.00691384 0.00571831 4.84696e-05 8.32976e-05 1.49456e-10 1.12403e-10 -5.35641e-11 5e-05 1.46608e-10 
109 1 0.231605 0.0181677 0.00704661 0.00546117 -1.82962e-05 0.000103478 5.67772e-11 5.97367e-12 -1.41394e-12 5e-05 1.46608e-10 
110 1 0.230913 0.016745 0.00766928 0.00608789 -0.000139143 -0.000315854 5.24982e-12 -3.44671e-11 1.52797e-11 5e-05 1.46608e-10 
111 1 0.23125 0.0177467 0.0071883 0.00558749 0.000202843 2.6526e-05 4.70857e-11 -1.51123e-10 2.85696e-11 5e-05 1.46608e-10 
112 1 0.225307 0.0180711 0.00697232 0.00555558 0.000152824 -0.000208289 -7.9356e-10 4.34745e-10 -5.67958e-11 5e-05 1.46608e-10 
113 1 0.224914 0.0168167 0.00773694 0.00600753 -2.91985e-05 -0.000630714 -8.54423e-11 -4.23993e-11 4.33912e-11 5e-05 1.46608e-10 
114 1 0.225269 0.0183313 0.00697186 0.0056846 0.000571664 -0.000214582 2.41288e-11 5.49598e-11 -2.36619e-12 5e-05 1.46608e-10 
115 1 0.231506 0.0181609 0.00704722 0.00545897 4.74853e-05 7.90121e-05 1.67114e-12 8.40822e-12 -8.70589e-14 5e-05 1.46608e-10 
116 1 0.231309 0.0185309 0.0070099 0.00556728 0.000233211 -6.49732e-05 4.99472e-11 -1.15129e-10 1.11991e-10 5e-05 1.46608e-10 
117 1 0.231413 0.0190397 0.00686081 0.00567804 6.36357e-05 -0.000117323 -1.79266e-11 -1.59265e-10 -6.27498e-13 5e-05 1.46608e-10 
118 1 0.225116 0.0175783 0.00712461 0.00582894 3.57576e-05 -0.000282594 2.27758e-10 4.12366e-10 -5.69387e-10 5e-05 1.46608e-10 
119 1 0.23147 0.0179751 0.00711193 0.00547385 0.000108821 5.91504e-05 -1.53323e-10 -4.58026e-11 1.44182e-11 5e-05 1.46608e-10 
120 1 0.230734 0.0160487 0.00801854 0.00615346 -0.000156412 -0.000310261 -2.20067e-11 -3.98313e-11 -6.51828e-12 5e-05 1.46608e-10 
121 1 0.230655 0.0157915 0.00829873 0.00564321 0.000434134 -1.27336e-05 -3.83129e-11 2.32048e-13 -3.85374e-11 5e-05 1.46608e-10 
122 1 0.23121 0.0175617 0.00725264 0.00583575 0.000140433 5.22682e-05 -7.83861e-11 -4.63854e-11 4.17126e-11 5e-05 1.46608e-10 
123 1 0.22508 0.0174119 0.00722916 0.0058084 -0.000119639 -0.00049262 5.93975e-10 3.84548e-10 4.35704e-10 5e-05 1.46608e-10 
124 1 0.23123 0.0176543 0.00722045 0.00577127 0.000157942 4.59992e-05 5.00104e-11 -1.70372e-10 5.98031e-11 5e-05 1.46608e-10 
125 1 0.23149 0.0189781 0.00684548 0.00568492 7.86665e-05 -0.0001128 6.07736e-11 -6.77108e-11 -3.02038e-11 5e-05 1.46608e-10 
126 1 0.231139 0.0173006 0.00737612 0.00601371 -5.5736e-05 -0.000353562 -1.72192e-11 7.77768e-11 -8.28318e-11 5e-05 1.46608e-10 
127 1 0.225686 0.0182005 0.00695747 0.00568729 0.000387281 -0.000212868 -2.15081e-10 -1.18089e-10 -1.10053e-11 5e-05 1.46608e-10 
128 1 0.23117 0.0174779 0.0072895 0.00589185 6.70528e-05 -5.95777e-05 4.07966e-11 -2.08403e-10 3.02742e-11 5e-05 1.46608e-10 
129 1 0.231231 0.0181428 0.00704871 0.00548223 0.000131933 5.10701e-05 1.82517e-10 3.93072e-11 -1.67786e-11 5e-05 1.46608e-10 
131 1 0.225513 0.0177897 0.00703421 0.0057024 0.000373577 0.000212168 4.6208e-10 -3.46234e-10 2.41791e-10 5e-05 1.46608e-10 
132 1 0.231343 0.0182701 0.00700596 0.00551334 0.000125455 5.3238e-05 -6.84399e-11 -4.52239e-11 5.9488e-12 5e-05 1.46608e-10 
133 1 0.231193 0.0179574 0.00711323 0.00540083 0.000146461 4.46726e-05 -9.56584e-11 8.38013e-11 -3.21713e-11 5e-05 1.46608e-10 
134 1 0.23114 0.0173918 0.00733105 0.00593501 -7.08746e-05 -0.000337116 -1.11793e-10 -7.63178e-11 9.04421e-11 5e-05 1.46608e-10 
135 1 0.230541 0.0155169 0.00881931 0.00566104 0.000440462 -3.50837e-05 -1.62198e-10 -1.51935e-11 3.02968e-12 5e-05 1.46608e-10 
136 1 0.225328 0.0186255 0.00696761 0.00568471 0.000539931 -0.000213158 3.4994e-11 9.91907e-11 -8.66419e-12 5e-05 1.46608e-10 
137 1 0.230845 0.016484 0.00779977 0.00611155 -0.000147017 -0.000311679 -1.7135e-11 -1.05393e-10 4.14238e-11 5e-05 1.46608e-10 
138 1 0.231361 0.0183533 0.00707007 0.00551144 0.000101102 5.81666e-05 -5.63134e-11 -1.06062e-10 -3.12453e-12 5e-05 1.46608e-10 
140 1 0.231382 0.01802 0.00709458 0.00549007 0.000144545 4.66116e-05 5.83116e-11 3.37591e-11 -8.7497e-12 5e-05 1.46608e-10 
141 1 0.225326 0.0181692 0.00697091 0.00553989 0.000213255 -0.000204633 -5.99816e-10 2.55659e-10 2.7115e-11 5e-05 1.46608e-10 
142 1 0.225062 0.0173364 0.0072922 0.00595312 -0.000135298 -0.000533107 9.96822e-10 -9.61e-11 1.85111e-10 5e-05 1.46608e-10 
143 1 0.224507 0.0154069 0.00894379 0.00560215 -7.0444e-05 -0.000553062 3.15825e-11 4.89391e-11 -6.44653e-11 5e-05 1.46608e-10 
144 1 0.225171 0.0178421 0.00699477 0.00582678 0.000449148 0.000114749 -3.16047e-10 -5.50989e-10 -7.84218e-10 5e-05 1.46608e-10 
147 1 0.225386 0.0184643 0.00696663 0.00570335 0.000523818 -0.000213496 6.40221e-11 4.04693e-11 -1.2324e-12 5e-05 1.46608e-10 
148 1 0.225151 0.0170052 0.00755556 0.00618886 -0.000134607 -0.000563424 3.26924e-10 1.08037e-11 -4.495e-11 5e-05 1.46608e-10 
149 1 0.231016 0.0171814 0.00745109 0.00604601 -0.000105535 -0.000335471 -1.09599e-11 -5.17425e-11 2.71497e-11 5e-05 1.46608e-10 
150 1 0.0100679 0.0201683 0.00551526 8.38357e-15 1.25115e-15 -8.48744e-14 3.05023e-24 7.33477e-25 0 5e-05 1.46608e-10 
151 1 0.225021 0.0171876 0.00741938 0.00612311 -0.000109961 -0.000571154 2.14539e-10 -2.80531e-11 4.67621e-11 5e-05 1.46608e-10 
153 1 0.225367 0.0188216 0.00696478 0.00563226 0.000383611 -0.000209286 9.70112e-11 1.52887e-10 -1.56417e-12 5e-05 1.46608e-10 
154 1 0.225134 0.0176653 0.00707905 0.00580268 0.000268576 3.30762e-05 4.60274e-10 5.59371e-10 -3.20156e-10 5e-05 1.46608e-10 
155 1 0.225344 0.0174093 0.00722373 0.00582113 0.000410591 0.000216377 3.66898e-10 7.51517e-12 1.0877e-10 5e-05 1.46608e-10 
156 1 0.225287 0.017973 0.00697373 0.00560549 0.000120317 -0.000215185 -6.6472e-10 -1.25945e-11 -1.05449e-10 5e-05 1.46608e-10 
157 1 0.0219312 0.0187687 0.00551176 -3.84076e-14 8.16442e-14 2.95884e-13 6.84621e-22 2.9427e-22 3.30872e-24 5e-05 1.46608e-10 
158 1 0.225516 0.0182345 0.00696346 0.00570536 0.000460339 -0.000210128 -1.51579e-10 1.82612e-10 -5.95573e-11 5e-05 1.46608e-10 
159 1 0.231623 0.0187564 0.00683992 0.00572513 1.34068e-05 9.68605e-05 1.00809e-10 1.10612e-10 -2.5949e-11 5e-05 1.46608e-10 
160 1 0.225152 0.0177502 0.00702921 0.00580384 0.00043642 0.000183854 -2.13267e-10 2.39722e-10 -5.42235e-10 5e-05 1.46608e-10 
162 1 0.225445 0.0187585 0.00696238 0.00565238 0.00042209 -0.000210595 1.87247e-10 1.40166e-10 -1.3245e-11 5e-05 1.46608e-10 
164 1 0.225011 0.0168368 0.00770977 0.00600588 -6.80123e-05 -0.000598356 1.91732e-10 6.88023e-11 -8.08803e-11 5e-05 1.46608e-10 
165 1 0.225343 0.0178155 0.00700827 0.00577849 0.000416645 0.000200446 -4.44669e-10 -3.21718e-10 -3.0898e-10 5e-05 1.46608e-10 
166 1 0.231353 0.0187433 0.00683974 0.00572202 4.57734e-05 8.58454e-05 3.15192e-11 1.56188e-10 -4.9541e-11 5e-05 1.46608e-10 
168 1 0.225075 0.0170593 0.00751922 0.00619398 -0.000148741 -0.000552508 3.5236e-10 -5.72588e-12 -5.66603e-11 5e-05 1.46608e-10 
169 1 0.2255 0.0185945 0.00696151 0.00570014 0.000437662 -0.000212453 1.1301e-11 -1.0019e-10 8.32645e-13 5e-05 1.46608e-10 
170 1 0.225418 0.0177589 0.00704375 0.00579563 0.000423033 0.000198649 1.81562e-10 4.00675e-10 -1.19568e-10 5e-05 1.46608e-10 
171 1 0.231305 0.018269 0.00709897 0.0054957 0.00011675 4.35384e-05 -1.82402e-11 -4.8323e-12 3.86805e-11 5e-05 1.46608e-10 
172 1 0.225323 0.0177274 0.00705363 0.00579342 0.000401942 0.000211319 2.74802e-11 1.88879e-10 -1.65546e-10 5e-05 1.46608e-10 
173 1 0.231559 0.0184657 0.00694099 0.00562801 -5.91548e-05 0.000121126 1.419e-11 6.90026e-11 -3.7225e-11 5e-05 1.46608e-10 
174 1 0.225362 0.0174968 0.00717867 0.0058552 0.000362609 0.000224322 2.48684e-10 4.75279e-11 1.26921e-10 5e-05 1.46608e-10 
175 1 0.219013 0.017094 0.00731342 0.00578741 -0.000820295 0.000263223 -5.67854e-11 -5.65098e-11 -1.49198e-11 5e-05 1.46608e-10 
177 1 0.225194 0.0171537 0.00742849 0.00615212 -0.000107895 -0.000576915 -1.57501e-10 -1.86187e-10 2.09289e-10 5e-05 1.46608e-10 
178 1 0.225118 0.0172079 0.00739209 0.00604832 -0.000213712 -0.000476585 -4.80093e-10 -6.42475e-10 5.52537e-10 5e-05 1.46608e-10 
179 1 0.225191 0.0175201 0.00715404 0.00587255 0.000318671 0.000265179 -1.54193e-10 4.7661e-10 -3.91496e-10 5e-05 1.46608e-10 
181 1 0.225461 0.0183983 0.00696434 0.00572217 0.000525657 -0.000215038 5.0864e-11 -3.2706e-11 -4.36113e-11 5e-05 1.46608e-10 
182 1 0.231213 0.0180501 0.00708098 0.00545712 0.000132713 4.99092e-05 -2.50068e-11 6.20592e-11 -3.57241e-11 5e-05 1.46608e-10 
183 1 0.225399 0.0176716 0.00708862 0.00583962 0.000403654 0.000210341 1.05284e-10 2.15133e-10 -4.61911e-10 5e-05 1.46608e-10 
184 1 0.231234 0.0180304 0.00717674 0.00543 0.000127845 5.46873e-05 5.03936e-12 2.28143e-11 -4.13067e-11 5e-05 1.46608e-10 
186 1 0.225 0.0171134 0.00748289 0.00618895 -0.000124916 -0.000571016 3.71689e-11 -1.28549e-10 1.14219e-10 5e-05 1.46608e-10 
187 1 0.231114 0.0175891 0.00724727 0.00582431 5.3795e-05 2.05806e-05 -9.41019e-11 7.92392e-11 4.73457e-11 5e-05 1.46608e-10 
188 1 0.231308 0.0175434 0.00726082 0.0058463 0.000234963 2.42819e-05 2.58415e-11 -3.57522e-11 -1.49828e-13 5e-05 1.46608e-10 
189 1 0.231344 0.0183655 0.0069724 0.00550829 0.000102081 6.01028e-05 1.1174e-11 -3.98105e-11 6.3721e-12 5e-05 1.46608e-10 
190 1 0.219283 0.0184119 0.00703333 0.00537568 -0.000689126 0.000300728 -1.0295e-12 4.35603e-11 2.18761e-11 5e-05 1.46608e-10 
191 1 0.231355 0.0177269 0.00719713 0.00559049 0.000281944 -1.00185e-06 4.44201e-10 1.73456e-10 -3.19059e-11 5e-05 1.46608e-10 
192 1 0.225304 0.0176402 0.00709845 0.00582146 0.000367721 0.000221614 2.84761e-10 5.17531e-10 -3.56737e-10 5e-05 1.46608e-10 
193 1 0.23149 0.0180677 0.00707971 0.00547696 5.21521e-05 7.93028e-05 -1.21605e-10 4.53574e-11 -6.57017e-12 5e-05 1.46608e-10 
194 1 0.161461 0.0182058 0.00533758 1.39378e-15 -1.10284e-14 8.66687e-14 8.22218e-22 9.98821e-23 -2.89513e-24 5e-05 1.46608e-10 
195 1 0.225497 0.0181364 0.0069649 0.00568744 0.000453193 -0.000169938 -1.0386e-10 1.56732e-10 1.25262e-11 5e-05 1.46608e-10 
196 1 0.224904 0.0164656 0.00802744 0.00596468 8.94783e-05 -0.000723715 2.1893e-10 -1.7297e-11 -1.15577e-11 5e-05 1.46608e-10 
197 1 0.219066 0.0173444 0.00717619 0.00561466 -0.000751411 0.000320119 -1.87135e-11 -4.59463e-11 -5.68553e-11 5e-05 1.46608e-10 
198 1 0.225347 0.0187235 0.0069662 0.00563899 0.000370108 -0.000209827 7.709e-11 1.94911e-10 -3.19849e-12 5e-05 1.46608e-10 
199 1 0.22525 0.0182332 0.00697327 0.00570947 0.000508543 -0.000211335 1.53256e-09 2.00831e-09 -1.23392e-10 5e-05 1.46608e-10 
201 1 0.224893 0.0167424 0.00780048 0.00596782 -9.0276e-06 -0.000642774 -8.77617e-11 -1.27933e-10 1.0412e-10 5e-05 1.46608e-10 
202 1 0.225382 0.0180052 0.00697003 0.00573822 0.000199294 -0.0002162 -6.54558e-10 -1.50551e-11 1.70155e-12 5e-05 1.46608e-10 
203 1 0.230929 0.016831 0.00762073 0.00608306 -0.000132473 -0.000317178 -6.30222e-12 -1.7013e-11 1.33268e-11 5e-05 1.46608e-10 
204 1 0.22457 0.0156296 0.00875317 0.00567776 -6.31996e-06 -0.000612721 -1.73135e-10 9.55862e-11 -8.64869e-11 5e-05 1.46608e-10 
205 1 0.225458 0.0179405 0.00697334 0.00565776 0.000434599 0.000130192 4.0518e-10 -4.68977e-11 8.99513e-11 5e-05 1.46608e-10 
206 1 0.224968 0.0166883 0.00783683 0.00597634 -3.50614e-05 -0.00062237 -8.00531e-10 -7.83348e-10 7.36473e-10 5e-05 1.46608e-10 
207 1 0.225097 0.0171336 0.00745565 0.00617055 -7.28359e-05 -0.000612182 -3.2237e-11 -1.76035e-10 8.92402e-11 5e-05 1.46608e-10 
208 1 0.225265 0.017872 0.00697528 0.00563594 0.000139281 -0.000200479 -2.01181e-10 1.3599e-09 -1.57326e-10 5e-05 1.46608e-10 
209 1 0.222 0.0173159 0.00716104 0.00593599 0.000969757 -0.000368823 1.35387e-12 2.15589e-13 -7.99456e-14 5e-05 1.46608e-10 
210 1 0.231154 0.0177724 0.00717852 0.00557042 0.000120284 6.4888e-05 1.12159e-10 8.41816e-11 -6.28211e-13 5e-05 1.46608e-10 
211 1 0.231105 0.0175403 0.00733403 0.00582324 1.42247e-05 -6.55007e-06 -5.88716e-11 1.4795e-10 1.39658e-10 5e-05 1.46608e-10 
212 1 0.225402 0.0181033 0.00696861 0.00559433 0.000209999 -0.000208614 -6.59913e-10 -1.61392e-11 1.35623e-11 5e-05 1.46608e-10 
213 1 0.231297 0.0184635 0.0069371 0.0055886 8.83281e-05 6.73391e-05 1.44739e-11 -1.97997e-11 5.7376e-12 5e-05 1.46608e-10 
214 1 0.231037 0.0172646 0.0074002 0.00602931 -9.69155e-05 -0.000326805 -1.90255e-11 -6.85067e-11 1.74328e-11 5e-05 1.46608e-10 
215 1 0.219264 0.0183147 0.00704634 0.00535766 -0.000684437 0.000298651 -1.73278e-10 -1.69859e-10 -1.70651e-12 5e-05 1.46608e-10 
216 1 0.225362 0.0179064 0.00697146 0.00576638 0.000299029 -0.000192059 -3.05075e-10 3.60649e-11 -3.1668e-10 5e-05 1.46608e-10 
217 1 0.231394 0.0189436 0.0068406 0.00571064 5.11116e-05 -6.97401e-05 -3.59838e-11 -6.25233e-11 -1.69364e-10 5e-05 1.46608e-10 
218 1 0.224679 0.0160002 0.00843572 0.00582672 0.000101181 -0.000717628 -5.16661e-12 2.59802e-11 1.5572e-11 5e-05 1.46608e-10 
219 1 0.230974 0.0170056 0.00753461 0.00607691 -0.000117293 -0.000323476 -8.64634e-12 -1.89333e-11 1.29616e-11 5e-05 1.46608e-10 
220 1 0.225478 0.0180383 0.00696689 0.00567215 0.000434664 -1.22652e-05 2.47898e-10 1.53561e-10 4.18649e-10 5e-05 1.46608e-10 
221 1 0.285113 0.0175554 0.00708032 0.0060776 0.00165516 -0.000755055 -4.96593e-13 -8.99102e-12 5.75334e-12 5e-05 1.46608e-10 
222 1 0.231483 0.0185268 0.00691817 0.00566634 -3.04541e-06 0.000103028 -9.80029e-11 -1.30036e-13 2.94929e-12 5e-05 1.46608e-10 
223 1 0.225228 0.0176959 0.00706349 0.00569689 0.000281943 0.000270892 -5.15795e-10 5.26771e-10 -3.63906e-10 5e-05 1.46608e-10 
224 1 0.0312521 0.0171694 0.00808688 -0.00561993 0.0140577 -0.00801389 1.71778e-10 8.38325e-11 -1.04669e-10 5e-05 1.46608e-10 
225 1 0.23132 0.017815 0.00716554 0.00553244 0.000256093 5.85494e-06 -1.2535e-10 3.48085e-11 -1.38821e-11 5e-05 1.46608e-10 
226 1 0.225042 0.0172619 0.00735584 0.00610891 -0.000133384 -0.000543778 5.46564e-10 -9.46556e-11 1.12693e-10 5e-05 1.46608e-10 
227 1 0.219205 0.0180232 0.00708538 0.00533475 -0.000668964 0.000296916 -2.85154e-10 -3.0088e-12 -1.16351e-11 5e-05 1.46608e-10 
228 1 0.21903 0.0171702 0.00725098 0.00574536 -0.000795825 0.000289312 -9.26485e-11 -4.72648e-11 3.67239e-12 5e-05 1.46608e-10 
229 1 0.225441 0.0183003 0.00696576 0.00573703 0.000513551 -0.000218768 -1.12293e-10 2.09013e-11 -2.39311e-11 5e-05 1.46608e-10 
230 1 0.224849 0.0165941 0.00792748 0.00595525 3.13427e-05 -0.000674814 -1.23806e-10 -3.24983e-10 2.7697e-10 5e-05 1.46608e-10 
231 1 0.218994 0.0170191 0.0073767 0.00585428 -0.000829395 0.000267316 -1.44171e-10 -3.59003e-12 -7.635e-12 5e-05 1.46608e-10 
232 1 0.22523 0.0181352 0.00697468 0.00579566 0.000389701 -0.000213513 2.17024e-10 1.39157e-09 -1.36007e-10 5e-05 1.46608e-10 
234 1 0.23125 0.0182356 0.00701643 0.00551873 0.000122003 5.41153e-05 -4.62321e-11 1.66889e-11 -9.6325e-12 5e-05 1.46608e-10 
235 1 0.225437 0.0178461 0.00699886 0.00572527 0.000450229 0.000177079 5.60426e-11 1.42567e-10 3.69574e-11 5e-05 1.46608e-10 
236 1 0.224807 0.0164456 0.00805454 0.00592827 8.74754e-05 -0.000718021 -1.46955e-10 -2.29891e-10 2.07936e-10 5e-05 1.46608e-10 
237 1 0.224763 0.0162973 0.00818155 0.00592052 0.000113308 -0.000739204 3.64342e-10 -1.34966e-10 6.78788e-11 5e-05 1.46608e-10 
239 1 0.218823 0.0164227 0.00788165 0.00589279 -0.000805516 0.000244555 1.85811e-10 8.77311e-11 -8.87554e-11 5e-05 1.46608e-10 
240 1 0.218844 0.0164972 0.00781854 0.00589043 -0.000811138 0.000249295 2.77972e-10 -6.41923e-11 3.61941e-11 5e-05 1.46608e-10 
241 1 0.218909 0.0167208 0.00762923 0.00595287 -0.000838078 0.000267475 1.49219e-10 1.35626e-10 -1.25642e-10 5e-05 1.46608e-10 
242 1 0.225096 0.0174925 0.00717227 0.00582168 -8.34903e-05 -0.000440252 1.782e-10 4.39324e-10 -1.41876e-10 5e-05 1.46608e-10 
244 1 0.218866 0.0165717 0.00775544 0.005904 -0.000811899 0.000248857 -1.45219e-10 -7.57511e-11 6.04621e-11 5e-05 1.46608e-10 
246 1 0.218973 0.0169444 0.0074399 0.00593937 -0.000845382 0.000272986 1.44908e-10 -3.96508e-12 1.71097e-11 5e-05 1.46608e-10 
247 1 0.225631 0.0183646 0.00695834 0.00568745 0.00045181 -0.000211741 -4.30892e-10 6.4103e-11 8.4358e-12 5e-05 1.46608e-10 
248 1 0.224871 0.0166682 0.00786398 0.00594513 1.25205e-05 -0.000657822 -1.21746e-10 -2.53784e-10 2.28975e-10 5e-05 1.46608e-10 
249 1 0.219244 0.0182176 0.00705935 0.00535771 -0.000690818 0.000299602 9.46549e-11 -1.77464e-11 1.27122e-12 5e-05 1.46608e-10 
250 1 0.225173 0.0170794 0.00749204 0.00615638 -0.000104432 -0.000584494 7.09405e-11 1.08156e-10 -4.2842e-11 5e-05 1.46608e-10 
251 1 0.230956 0.0169167 0.0075768 0.00608127 -0.000125034 -0.00032035 -5.77804e-12 -1.26583e-11 1.19135e-11 5e-05 1.46608e-10 
252 1 0.219106 0.0175386 0.0071502 0.00541865 -0.000709986 0.000303141 1.2039e-10 4.66183e-11 3.46394e-11 5e-05 1.46608e-10 
253 1 0.219303 0.0185091 0.00702032 0.00536567 -0.000701473 0.000300643 6.96468e-11 -1.15603e-11 -4.08247e-12 5e-05 1.46608e-10 
254 1 0.218952 0.0168698 0.00750302 0.00598314 -0.00085227 0.000277291 -5.73352e-11 7.77556e-11 -5.21164e-11 5e-05 1.46608e-10 
255 1 0.225191 0.0179392 0.00698208 0.00585601 0.000441589 -4.21529e-05 -2.97483e-10 -9.61582e-10 -1.78414e-10 5e-05 1.46608e-10 
256 1 0.225286 0.0175521 0.00714385 0.0059377 0.000403743 0.000206785 -4.83337e-10 2.83308e-10 -1.73202e-10 5e-05 1.46608e-10 
257 1 0.22525 0.0173807 0.00724069 0.00581353 0.000337456 -5.32377e-05 5.04579e-10 -8.86743e-10 4.06225e-10 5e-05 1.46608e-10 
258 1 0.225156 0.0173575 0.00726492 0.00583456 -3.55527e-05 -0.000386955 2.45973e-10 -4.60267e-10 1.17326e-10 5e-05 1.46608e-10 
259 1 0.219126 0.0176357 0.00713721 0.00545921 -0.000711053 0.000307539 1.45298e-10 1.05139e-10 -7.85266e-11 5e-05 1.46608e-10 
261 1 0.224957 0.016965 0.00760991 0.00613498 -7.44013e-05 -0.000607281 1.17983e-10 -2.27077e-11 9.17334e-12 5e-05 1.46608e-10 