ITEM: TIMESTEP
1200000
ITEM: NUMBER OF ATOMS
220
ITEM: BOX BOUNDS ff ff ff
-0.02 0.43
-0.02 0.06
-0.02 0.07
ITEM: ATOMS id type x y z vx vy vz fx fy fz radius mass 
1 1 0.0201252 0.0175977 0.00710662 0.00517979 -0.0024009 0.000559146 7.81934e-12 -5.86537e-10 1.50128e-10 5e-05 1.46608e-10 
2 1 0.0204844 0.0185143 0.0069692 0.00573848 -0.00268006 0.000635397 2.60272e-10 -8.59979e-10 1.73998e-10 5e-05 1.46608e-10 
3 1 0.0152168 0.020315 0.00717254 3.31171e-16 -1.12794e-14 9.2385e-14 -5.59801e-25 -2.58494e-26 0 5e-05 1.46608e-10 
4 1 0.0205025 0.0192403 0.00684623 0.00493826 -0.00149732 0.000388997 3.60035e-10 -1.946e-10 -6.47412e-12 5e-05 1.46608e-10 
5 1 0.0200257 0.0175626 0.00712257 0.00512805 -0.00233777 0.000671106 2.98977e-10 1.35193e-10 2.57803e-11 5e-05 1.46608e-10 
6 1 0.0258603 0.0168064 0.00747371 0.00555826 -0.000201248 0.000256118 -6.81306e-11 -4.26944e-10 3.46101e-10 5e-05 1.46608e-10 
7 1 0.0202074 0.0184308 0.00697321 0.00559896 -0.00255071 0.000616384 4.72337e-10 8.6145e-10 -6.12945e-11 5e-05 1.46608e-10 
8 1 0.0199289 0.0171147 0.00732001 0.00508343 -0.00229874 0.000933687 -3.41603e-10 6.13644e-11 -3.93141e-11 5e-05 1.46608e-10 
9 1 0.0261873 0.018342 0.00702995 0.00558219 -0.00202984 0.00020529 8.84755e-13 -3.74509e-13 3.29897e-14 5e-05 1.46608e-10 
10 1 0.0201431 0.018141 0.00701838 0.0055207 -0.00243753 0.000590904 -1.00073e-11 -2.96084e-11 3.75644e-12 5e-05 1.46608e-10 
11 1 0.0206064 0.018585 0.00696105 0.00585526 -0.002529 0.000594334 -3.67266e-10 3.01593e-10 -5.71922e-11 5e-05 1.46608e-10 
12 1 0.0164976 0.0199961 0.00711627 -1.91945e-15 2.505e-15 -2.62517e-14 1.49539e-23 1.38036e-23 2.06795e-25 5e-05 1.46608e-10 
13 1 0.0200061 0.0174684 0.00714989 0.0051262 -0.00226613 0.000915968 -2.40939e-11 1.0394e-10 -1.45996e-10 5e-05 1.46608e-10 
14 1 0.0145599 0.0200144 0.00713956 0.00449796 -0.00547102 -0.00126946 5.33939e-13 4.17621e-13 4.79187e-14 5e-05 1.46608e-10 
15 1 0.0203464 0.0186554 0.00694132 0.00567371 -0.00267692 0.000634684 -6.23831e-11 -1.01267e-10 8.7131e-11 5e-05 1.46608e-10 
16 1 0.0144884 0.0196888 0.0070987 0.00474572 -0.00556475 -0.000696418 -4.02422e-13 3.8602e-13 4.75058e-14 5e-05 1.46608e-10 
17 1 0.0201233 0.0180442 0.00703353 0.00510534 -0.00235573 0.000562972 -1.27295e-11 1.07826e-11 -1.80614e-12 5e-05 1.46608e-10 
18 1 0.0259947 0.0174225 0.00720698 0.00553251 -0.000256794 -0.000118322 5.8924e-10 -1.64186e-10 -6.34937e-11 5e-05 1.46608e-10 
19 1 0.0199868 0.01738 0.00719242 0.0051207 -0.00226345 0.000919351 8.74121e-11 7.26618e-11 -6.61981e-11 5e-05 1.46608e-10 
21 1 0.0201053 0.0175026 0.00713061 0.00509802 -0.0022731 0.000904047 -1.86806e-11 -9.4305e-11 -1.00246e-10 5e-05 1.46608e-10 
22 1 0.0202503 0.0186239 0.00694312 0.00558444 -0.00269201 0.000640972 -2.54954e-10 3.39956e-10 -1.20541e-10 5e-05 1.46608e-10 
23 1 0.0170977 0.0200491 0.00707744 -1.92018e-15 2.5046e-15 -2.62516e-14 -1.065e-23 -6.46235e-24 0 5e-05 1.46608e-10 
24 1 0.0260534 0.0177114 0.00715141 0.00550548 -0.000328214 -0.000109467 9.55333e-11 2.65288e-10 -3.65854e-11 5e-05 1.46608e-10 
25 1 0.020186 0.0183342 0.00698827 0.00557387 -0.00240862 0.000588021 -9.75446e-12 -4.74698e-11 7.44338e-12 5e-05 1.46608e-10 
26 1 0.0259365 0.0171338 0.00726249 0.00561738 -0.00027378 -9.69469e-05 -5.46321e-11 1.73482e-10 -5.18376e-10 5e-05 1.46608e-10 
27 1 0.0167442 0.020188 0.00711655 -1.91978e-15 2.50484e-15 -2.62516e-14 5.35082e-24 2.06795e-24 -2.06795e-25 5e-05 1.46608e-10 
28 1 0.0204361 0.0191663 0.00685704 0.00565991 -0.00234814 0.000568911 1.71236e-09 -1.09242e-09 -3.15217e-11 5e-05 1.46608e-10 
29 1 0.0199675 0.0172916 0.00723495 0.00512816 -0.00224166 0.000906028 9.33858e-11 3.77564e-10 -1.37772e-10 5e-05 1.46608e-10 
30 1 0.0205431 0.0188859 0.0069079 0.0056311 -0.00246514 0.00057667 4.35556e-10 -4.52671e-10 6.77922e-11 5e-05 1.46608e-10 
31 1 0.0202288 0.0185274 0.00695816 0.00555321 -0.00269394 0.000632716 4.94386e-10 8.6708e-10 -1.11407e-10 5e-05 1.46608e-10 
32 1 0.0203252 0.0185588 0.00695638 0.0056209 -0.00263816 0.000626126 2.70714e-10 9.92943e-11 3.76108e-11 5e-05 1.46608e-10 
33 1 0.0258792 0.0168849 0.00741476 0.00557812 -0.000224472 0.000283172 3.43836e-10 3.13949e-10 -5.75413e-11 5e-05 1.46608e-10 
34 1 0.0201038 0.0179473 0.0070487 0.0051195 -0.00235994 0.000564281 2.33652e-11 -1.25588e-11 2.25692e-12 5e-05 1.46608e-10 
35 1 0.0203036 0.0184624 0.00697141 0.00560145 -0.00260106 0.000620735 4.70375e-10 2.82847e-10 -4.10129e-11 5e-05 1.46608e-10 
36 1 0.0262992 0.0188482 0.0069323 0.0057218 -0.00211574 0.000216961 3.17154e-13 -1.43233e-13 1.56656e-15 5e-05 1.46608e-10 
37 1 0.0202609 0.0182693 0.0070015 0.00561319 -0.0025113 0.000605534 1.95153e-10 -1.34776e-09 2.1886e-10 5e-05 1.46608e-10 
38 1 0.0204217 0.0185909 0.0069545 0.00569351 -0.00269031 0.000638276 3.00155e-10 -4.97728e-10 7.8625e-11 5e-05 1.46608e-10 
39 1 0.026073 0.0178077 0.00713289 0.00549638 -0.000333861 -0.000107189 1.55029e-11 9.49735e-11 -3.08659e-11 5e-05 1.46608e-10 
40 1 0.00901539 -0.00761262 0.0499496 -0.00489729 -0.161586 -0.454794 0 0 -1.43822e-09 5e-05 1.46608e-10 
41 1 0.0200647 0.0177537 0.00708058 0.00512479 -0.00240709 0.000555961 1.16815e-10 -2.3991e-10 -2.17019e-10 5e-05 1.46608e-10 
42 1 0.0202717 0.0187204 0.00692808 0.00563624 -0.00266891 0.000637331 -2.77226e-10 -1.57002e-10 7.70898e-11 5e-05 1.46608e-10 
44 1 0.0204562 0.0187055 0.00693633 0.00575435 -0.00265403 0.000610442 -4.05227e-10 -3.70309e-10 7.46377e-11 5e-05 1.46608e-10 
45 1 0.025898 0.0169635 0.00735581 0.00567692 -0.000195317 0.000259903 -3.44754e-10 2.2767e-10 -6.24863e-10 5e-05 1.46608e-10 
46 1 0.025981 0.0173252 0.00722551 0.00554887 -0.000263572 -0.000120207 -1.22974e-10 -3.40766e-10 -3.49441e-11 5e-05 1.46608e-10 
47 1 0.0200843 0.0178504 0.00706387 0.00513396 -0.00236204 0.000565137 -6.01073e-12 5.949e-12 -8.75085e-13 5e-05 1.46608e-10 
48 1 0.0203143 0.0189128 0.00689701 0.00564854 -0.0026746 0.000612003 2.70493e-10 1.81498e-10 2.66856e-12 5e-05 1.46608e-10 
49 1 0.0259559 0.0172302 0.00724397 0.00556465 -0.000271782 -0.000139011 4.95599e-11 -4.81275e-11 -8.16879e-10 5e-05 1.46608e-10 
50 1 0.0203883 0.0192526 0.00684097 0.00533515 -0.00259246 0.000568526 1.92193e-09 -1.37118e-09 -4.56509e-10 5e-05 1.46608e-10 
51 1 0.0203571 0.0191056 0.00686524 0.00573542 -0.0025451 0.000596989 7.66334e-10 4.45784e-10 -2.15526e-10 5e-05 1.46608e-10 
52 1 0.0163475 0.0200961 0.00713679 -1.91998e-15 2.50499e-15 -2.62516e-14 7.71604e-24 5.29913e-24 0 5e-05 1.46608e-10 
53 1 0.0260142 0.0175188 0.00718846 0.0055196 -0.000281103 -0.00011604 2.46404e-10 2.54689e-10 -1.52909e-11 5e-05 1.46608e-10 
54 1 0.0200867 0.017414 0.00717318 0.00504858 -0.002243 0.000908924 3.62719e-11 3.3559e-11 -1.59581e-11 5e-05 1.46608e-10 
55 1 0.0146284 0.0203463 0.00719746 0.00445257 -0.00525035 -0.00122587 2.74922e-13 -6.27953e-13 -1.26164e-13 5e-05 1.46608e-10 
56 1 0.0202822 0.0183658 0.00698645 0.00566325 -0.00256072 0.000616544 2.04811e-10 -2.50196e-10 1.45386e-11 5e-05 1.46608e-10 
57 1 0.0259168 0.017042 0.00729687 0.00566808 -0.00018489 0.000202964 -1.2194e-09 -7.45401e-11 -9.54169e-11 5e-05 1.46608e-10 
59 1 0.0203352 0.0182036 0.00701482 0.00557276 -0.00255329 0.000611573 1.62394e-09 -1.23263e-09 2.55455e-10 5e-05 1.46608e-10 
60 1 0.0203565 0.0183002 0.00699977 0.00562396 -0.00268622 0.000635895 4.10379e-10 -1.86549e-10 5.83047e-11 5e-05 1.46608e-10 
61 1 0.0200453 0.0176567 0.00709515 0.00516162 -0.00240334 0.000522852 2.55661e-10 2.59416e-11 1.30231e-10 5e-05 1.46608e-10 
62 1 0.0204808 0.0188085 0.00691941 0.00575438 -0.00257323 0.000595209 2.88137e-10 -7.54136e-10 1.28602e-10 5e-05 1.46608e-10 
63 1 0.0204109 0.0189446 0.00689424 0.00563899 -0.00269689 0.000611746 1.97774e-11 9.50801e-11 9.76878e-12 5e-05 1.46608e-10 
64 1 0.0260338 0.0176151 0.00716993 0.00551422 -0.000308993 -0.000111203 3.699e-11 3.75218e-10 -8.90382e-11 5e-05 1.46608e-10 
65 1 0.0166177 0.0198804 0.00709645 -1.91994e-15 2.50468e-15 -2.62517e-14 -2.95976e-24 -1.83531e-24 2.06795e-25 5e-05 1.46608e-10 
66 1 0.0163131 0.0198665 0.00711386 3.31186e-16 -1.12794e-14 9.2385e-14 1.1301e-24 2.58494e-26 0 5e-05 1.46608e-10 
67 1 0.0205161 0.0186268 0.00695142 0.0058167 -0.00261541 0.000605216 -1.91679e-10 7.59084e-11 -6.62648e-11 5e-05 1.46608e-10 
68 1 0.0205154 0.0191066 0.00686942 0.00573421 -0.00223697 0.000538789 8.65781e-10 -5.43159e-10 2.4293e-10 5e-05 1.46608e-10 
69 1 0.0201989 0.0179794 0.00704687 0.00505768 -0.00229965 0.000551535 -5.53932e-10 -4.94212e-10 4.98655e-11 5e-05 1.46608e-10 
70 1 0.0260926 0.017904 0.00711436 0.00548456 -0.000333728 -0.000107182 -1.2128e-13 -5.8456e-11 1.40801e-11 5e-05 1.46608e-10 
71 1 0.0145953 0.0201836 0.00716904 0.00453911 -0.00547268 -0.00127208 1.09377e-13 -7.01548e-13 -1.4074e-13 5e-05 1.46608e-10 
72 1 0.0205093 0.0189785 0.00689115 0.00577052 -0.00246821 0.000578223 -3.20048e-10 -1.01741e-09 1.49055e-10 5e-05 1.46608e-10 
73 1 0.0201646 0.0182376 0.00700332 0.00551916 -0.00252541 0.000602303 3.12723e-10 -7.5803e-10 2.01972e-10 5e-05 1.46608e-10 
74 1 0.0203682 0.0187518 0.00692601 0.00570357 -0.00268238 0.000620847 -2.29802e-10 -1.29366e-10 5.97993e-11 5e-05 1.46608e-10 
76 1 0.0207732 0.023925 0.0118695 0.0019969 0.0102819 0.0435963 0 0 -1.43822e-09 5e-05 1.46608e-10 
77 1 0.0226263 0.0192774 0.00689827 4.24155e-15 -2.63637e-14 -1.54285e-13 6.78547e-25 5.16988e-26 0 5e-05 1.46608e-10 
78 1 0.015098 0.0204985 0.0071995 3.60542e-15 -1.19881e-14 6.44398e-14 -3.47674e-24 1.03398e-25 2.06795e-25 5e-05 1.46608e-10 
79 1 0.0167576 0.0198364 0.00708203 -1.91997e-15 2.50479e-15 -2.62516e-14 1.01459e-23 7.08273e-24 0 5e-05 1.46608e-10 
80 1 0.0207399 0.0194005 0.00682653 0.00363424 0.000464754 9.61061e-05 -5.5192e-10 -2.06276e-10 4.92008e-11 5e-05 1.46608e-10 
81 1 0.0164062 0.0229013 0.0101372 -0.00395444 -0.031706 -0.101059 0 0 -1.43822e-09 5e-05 1.46608e-10 
82 1 0.0169384 0.0201102 0.00709492 -1.91997e-15 2.50475e-15 -2.62516e-14 -1.56389e-24 -8.27181e-25 0 5e-05 1.46608e-10 
83 1 0.0157199 0.0201372 0.00714902 3.30998e-16 -1.12794e-14 9.2385e-14 -2.32079e-24 7.75482e-26 0 5e-05 1.46608e-10 
84 1 0.0262401 0.0185808 0.00698388 0.00564698 -0.00207523 0.000211734 6.06912e-13 -2.50705e-13 2.47715e-14 5e-05 1.46608e-10 
85 1 0.0148519 0.0201535 0.00715413 3.29282e-16 -1.12794e-14 9.2385e-14 8.78556e-24 2.06795e-25 0 5e-05 1.46608e-10 
86 1 0.0204324 0.0190411 0.00687833 0.00576116 -0.00251003 0.000590155 1.65492e-10 6.00986e-10 3.97536e-11 5e-05 1.46608e-10 
87 1 0.0203154 0.0181068 0.00702997 0.00533327 -0.00253053 0.000599634 4.00648e-10 -1.73951e-09 3.07383e-10 5e-05 1.46608e-10 
88 1 0.0217636 0.019394 0.00685464 4.24141e-15 -2.63636e-14 -1.54285e-13 1.6214e-23 2.06795e-24 2.06795e-25 5e-05 1.46608e-10 
89 1 0.0208004 0.0192579 0.0068514 0.000523888 0.00117747 -0.000186769 -3.26618e-10 -4.0128e-10 6.10829e-11 5e-05 1.46608e-10 
90 1 0.0205153 0.0184207 0.00698559 0.00573983 -0.00270284 0.000642672 5.27039e-10 -8.50853e-10 1.29461e-10 5e-05 1.46608e-10 
91 1 0.0168885 0.0199274 0.00708113 -1.92028e-15 2.50494e-15 -2.62516e-14 -2.00333e-24 4.11005e-24 4.1359e-25 5e-05 1.46608e-10 
92 1 0.0205818 0.0191806 0.0068586 0.00516221 -0.00139469 0.000382991 1.00288e-09 3.76575e-10 -7.81421e-11 5e-05 1.46608e-10 
93 1 0.0215618 0.0192454 0.00687447 -3.97583e-15 2.47094e-14 1.44604e-13 4.40732e-24 -8.27181e-25 0 5e-05 1.46608e-10 
94 1 0.0207683 0.0191644 0.0068665 0.00545022 -0.000466162 0.000229725 -6.90612e-10 3.06393e-10 -7.22444e-11 5e-05 1.46608e-10 
95 1 0.0205878 0.019395 0.00682798 0.00450722 -0.000130394 -0.000156237 4.45795e-10 7.21738e-10 1.58477e-10 5e-05 1.46608e-10 
96 1 0.020591 0.0192886 0.0068404 0.00543852 -0.00143219 0.00039443 -7.5454e-10 2.41133e-10 -7.97036e-11 5e-05 1.46608e-10 
97 1 0.0161643 0.0199 0.00711848 -7.5805e-16 2.58188e-14 -2.11472e-13 -6.05845e-26 2.58494e-26 0 5e-05 1.46608e-10 
98 1 0.0222443 0.0194203 0.00686335 5.15451e-15 -3.20384e-14 -1.87495e-13 2.00333e-25 -5.16988e-26 2.06795e-25 5e-05 1.46608e-10 
99 1 0.0163517 0.0199659 0.00712406 -1.92036e-15 2.50448e-15 -2.62516e-14 -3.0373e-24 -3.41212e-24 -2.06795e-25 5e-05 1.46608e-10 
100 1 0.0205229 0.0183048 0.0070048 0.00543819 -0.0024527 0.000590206 2.36455e-10 -4.91668e-10 9.0285e-11 5e-05 1.46608e-10 
101 1 0.0169642 0.0142716 0.011991 0.0210273 0.000876935 -0.029779 0 0 -1.43822e-09 5e-05 1.46608e-10 
102 1 0.0643568 0.0187248 0.00531097 4.06723e-15 1.05509e-14 8.29639e-14 -1.97957e-21 7.25929e-22 1.69572e-23 5e-05 1.46608e-10 
103 1 0.273896 0.0229536 0.00748532 -0.517749 0.580398 0.116181 0 0 -1.43822e-09 5e-05 1.46608e-10 
104 1 0.0149723 0.0232889 0.0138131 0.00740798 0.00388703 -0.00328133 7.15951e-13 1.04579e-11 2.05647e-11 5e-05 1.46608e-10 
105 1 0.0153376 0.0205283 0.00719815 3.33333e-16 -1.12793e-14 9.2385e-14 -8.68451e-23 -1.88701e-24 0 5e-05 1.46608e-10 
106 1 0.0194872 0.023842 0.0115437 0.00620992 0.00890778 0.0225265 -1.75099e-06 -9.11369e-07 -2.69721e-06 5e-05 1.46608e-10 
107 1 0.0152007 0.0205228 0.00719828 3.60537e-15 -1.19881e-14 6.44398e-14 1.68021e-25 -2.58494e-25 0 5e-05 1.46608e-10 
108 1 0.0202395 0.0181728 0.00701653 0.00551679 -0.00246651 0.000594903 7.0467e-10 -1.48342e-09 3.04884e-10 5e-05 1.46608e-10 
109 1 0.0203357 0.0190092 0.00688113 0.00570849 -0.00260127 0.000606175 3.96173e-10 2.96184e-10 -3.13127e-11 5e-05 1.46608e-10 
110 1 0.0209405 0.0189933 0.00690047 4.23821e-15 -2.63639e-14 -1.54285e-13 -1.31573e-23 -4.3427e-24 2.06795e-25 5e-05 1.46608e-10 
111 1 0.0225682 0.0194054 0.0068748 5.15423e-15 -3.20384e-14 -1.87495e-13 2.31352e-24 0 0 5e-05 1.46608e-10 
112 1 0.0156714 0.0205606 0.0072009 -7.58108e-16 2.58188e-14 -2.11472e-13 -2.6011e-25 0 0 5e-05 1.46608e-10 
113 1 0.0202742 0.0238734 0.0116004 -0.00429842 -0.00106823 -0.0106087 4.48891e-08 7.65216e-08 3.44995e-07 5e-05 1.46608e-10 
114 1 0.0173616 0.0203449 0.00712121 -0.000460193 -0.030828 0.0365765 0 0 -1.43822e-09 5e-05 1.46608e-10 
115 1 0.0203895 0.0188482 0.00691012 0.00566627 -0.00269026 0.000616765 -4.00505e-11 -2.67621e-10 2.03034e-11 5e-05 1.46608e-10 
116 1 0.0202203 0.0180758 0.00703172 0.00530468 -0.00237449 0.000573206 2.7582e-10 -9.97044e-10 1.59149e-10 5e-05 1.46608e-10 
117 1 0.0200674 0.0173256 0.00721571 0.00517277 -0.00223819 0.000900923 3.063e-11 3.06353e-10 -1.3536e-10 5e-05 1.46608e-10 
118 1 0.0149479 0.0206112 0.00722886 -1.2911e-14 4.29321e-14 -2.30778e-13 -3.28675e-23 -3.05023e-23 -4.3427e-24 5e-05 1.46608e-10 
119 1 0.0204384 0.0183572 0.0069933 0.00547787 -0.00241312 0.000585844 4.30487e-10 -5.70254e-10 1.21942e-10 5e-05 1.46608e-10 
120 1 0.0199482 0.0172031 0.00727748 0.00509243 -0.00226294 0.000915774 -3.79303e-10 -1.52795e-10 8.68977e-11 5e-05 1.46608e-10 
121 1 0.0199095 0.0170263 0.00736254 0.00517846 -0.00233319 0.000946324 -2.23235e-11 2.58567e-10 -1.09004e-10 5e-05 1.46608e-10 
122 1 0.0207577 0.0190407 0.00688734 -3.97532e-15 2.47093e-14 1.44604e-13 8.40105e-25 1.03398e-25 -2.06795e-25 5e-05 1.46608e-10 
123 1 0.0155708 0.0202071 0.00715809 -7.5816e-16 2.58188e-14 -2.11472e-13 2.20366e-24 -2.58494e-26 0 5e-05 1.46608e-10 
124 1 0.020687 0.0193165 0.00683827 0.00511455 -0.000430329 0.000208713 -8.87748e-10 9.84658e-11 -1.63283e-10 5e-05 1.46608e-10 
125 1 0.0200481 0.0172372 0.00725824 0.00516553 -0.0022342 0.000900144 -6.07079e-11 5.59298e-10 -2.74251e-10 5e-05 1.46608e-10 
126 1 0.0202933 0.0188177 0.00691946 0.00564136 -0.00270382 0.00062917 -2.64373e-10 -1.89609e-10 7.12574e-11 5e-05 1.46608e-10 
127 1 0.0158296 0.020258 0.00716339 -7.58146e-16 2.58188e-14 -2.11472e-13 -1.04528e-24 2.58494e-26 0 5e-05 1.46608e-10 
128 1 0.0204082 0.0193501 0.00685095 0.00514919 -0.00289569 0.000562995 -1.56934e-13 4.83935e-09 1.68855e-09 5e-05 1.46608e-10 
129 1 0.021515 0.0193431 0.0068565 -3.97563e-15 2.47092e-14 1.44604e-13 1.5445e-24 2.58494e-25 0 5e-05 1.46608e-10 
130 1 0.0172106 0.0201542 0.00707921 -1.92012e-15 2.50479e-15 -2.62516e-14 2.61079e-24 3.59307e-24 0 5e-05 1.46608e-10 
131 1 0.0161846 0.0201428 0.00714804 3.30099e-16 -1.12794e-14 9.2385e-14 -3.5858e-24 1.80946e-25 0 5e-05 1.46608e-10 
132 1 0.0205052 0.0193388 0.00682946 0.00541969 -0.00145321 0.000385694 -8.84064e-10 -1.26732e-09 1.5182e-11 5e-05 1.46608e-10 
133 1 0.0202012 0.0175341 0.00711967 0.00518415 -0.00241399 0.000573735 3.25379e-10 -9.15574e-11 -4.2432e-11 5e-05 1.46608e-10 
134 1 0.0204026 0.0184491 0.00697702 0.00559654 -0.00240531 0.000589018 4.06301e-10 -4.97997e-10 7.12876e-11 5e-05 1.46608e-10 
135 1 0.0198897 0.016938 0.00740504 0.00520981 -0.00208903 0.000829703 7.96995e-11 3.37881e-10 -1.63278e-10 5e-05 1.46608e-10 
136 1 0.0151085 0.0203967 0.0071829 3.30875e-16 -1.12794e-14 9.2385e-14 1.02105e-24 7.75482e-26 0 5e-05 1.46608e-10 
137 1 0.0226887 0.0194645 0.00686801 -3.97548e-15 2.47093e-14 1.44604e-13 -1.87408e-25 0 0 5e-05 1.46608e-10 
138 1 0.0201791 0.0178825 0.00706191 0.00498771 -0.00227785 0.000546651 1.68159e-10 -4.28101e-10 4.97854e-11 5e-05 1.46608e-10 
140 1 0.0206783 0.0192069 0.00685675 0.00512791 -0.0010868 0.000326659 4.88e-10 2.05253e-10 2.04794e-11 5e-05 1.46608e-10 
141 1 0.0153517 0.0202892 0.00716891 3.31109e-16 -1.12794e-14 9.2385e-14 1.29489e-24 2.58494e-26 0 5e-05 1.46608e-10 
142 1 0.0189914 0.0238345 0.0115303 5.13997e-06 0.000148706 -0.000133039 3.52785e-13 1.15924e-11 -1.07663e-11 5e-05 1.46608e-10 
143 1 0.0161068 0.019636 0.00708645 -7.58053e-16 2.58188e-14 -2.11472e-13 -1.10668e-25 0 0 5e-05 1.46608e-10 
144 1 0.0184934 0.0234898 0.0106426 -0.0139608 -0.0445794 -0.0872668 -2.57699e-10 9.18598e-11 -1.26109e-09 5e-05 1.46608e-10 
146 1 0.0172681 0.0142486 0.0117796 0.000144946 0.000353573 -0.00104391 -1.2805e-10 2.30674e-10 -5.28233e-10 5e-05 1.46608e-10 
147 1 0.0147255 0.0202475 0.00717365 3.60438e-15 -1.19882e-14 6.44399e-14 -1.77844e-23 -1.34417e-24 8.27181e-25 5e-05 1.46608e-10 
148 1 0.0188123 0.0238385 0.0115375 5.80721e-06 0.000168455 -0.00015084 4.18526e-13 1.15758e-11 -1.08076e-11 5e-05 1.46608e-10 
149 1 0.0212548 0.0190059 0.00690696 5.15436e-15 -3.20385e-14 -1.87495e-13 -1.89347e-24 9.82277e-25 -2.06795e-25 5e-05 1.46608e-10 
150 1 0.0173571 0.014244 0.0117343 0.00165268 -0.00115953 0.00207019 1.09358e-10 -2.57152e-11 1.1599e-11 5e-05 1.46608e-10 
151 1 0.0202019 0.020177 0.024442 0 -0 -0.03 0 0 0 5e-05 1.46608e-10 
152 1 0.01617 0.0189135 0.0255722 0 -0 -0.03 0 0 0 5e-05 1.46608e-10 
153 1 0.017186 0.0142495 0.0118367 -0.00877342 -0.000403212 -0.0138576 -1.85569e-10 8.67733e-11 -1.22338e-09 5e-05 1.46608e-10 
154 1 0.0174712 0.019065 0.0157204 -5.70605e-05 0.0224242 -0.0927025 0 0 -1.43822e-09 5e-05 1.46608e-10 
155 1 0.0154545 0.0212038 0.0207826 0 -0 -0.03 0 0 0 5e-05 1.46608e-10 
156 1 0.0173038 0.0232965 0.0208353 0 -0 -0.03 0 0 0 5e-05 1.46608e-10 
157 1 0.0217048 0.0205476 0.0224827 0 -0 -0.03 0 0 0 5e-05 1.46608e-10 
158 1 0.0161578 0.0224653 0.020617 0 -0 -0.03 0 0 0 5e-05 1.46608e-10 
159 1 0.0206208 0.01909 0.00687516 0.00259218 -0.00256455 0.000509121 -5.37465e-10 7.34538e-10 -1.37348e-10 5e-05 1.46608e-10 
160 1 0.0184226 0.0209162 0.0274502 0 -0 -0.03 0 0 0 5e-05 1.46608e-10 
161 1 0.0229587 0.0180441 0.0195849 0 -0 -0.03 0 0 0 5e-05 1.46608e-10 
162 1 0.0175423 0.0233519 0.0210642 0 -0 -0.03 0 0 0 5e-05 1.46608e-10 
163 1 0.0203983 0.0196699 0.0162626 -2.08833e-09 0.0287994 -0.00372212 1.2162e-19 -3.28097e-12 -2.55129e-11 5e-05 1.46608e-10 
164 1 0.0237336 0.0193386 0.0229318 0 -0 -0.03 0 0 0 5e-05 1.46608e-10 
165 1 0.0192127 0.0207602 0.0229249 0 -0 -0.03 0 0 0 5e-05 1.46608e-10 
166 1 0.0215956 0.0158621 0.0274328 0 -0 -0.03 0 0 0 5e-05 1.46608e-10 
167 1 0.0156831 0.0164901 0.0269161 0 -0 -0.03 0 0 0 5e-05 1.46608e-10 
168 1 0.0196501 0.0238484 0.0115551 0.0036698 0.000959732 -0.000611658 1.9936e-07 2.10256e-08 7.94892e-08 5e-05 1.46608e-10 
169 1 0.0202272 0.0221235 0.0191734 0 -0 -0.03 0 0 0 5e-05 1.46608e-10 
170 1 0.0187086 0.0189789 0.019932 0 -0 -0.03 0 0 0 5e-05 1.46608e-10 
171 1 0.0218324 0.0162383 0.0202008 0 -0 -0.03 0 0 0 5e-05 1.46608e-10 
172 1 0.0201391 0.0204827 0.0226787 0 -0 -0.03 0 0 0 5e-05 1.46608e-10 
173 1 0.0206416 0.0182257 0.00702188 -7.45623e-15 3.50337e-14 2.14188e-13 -3.5278e-23 -3.17948e-24 -8.27181e-25 5e-05 1.46608e-10 
174 1 0.0183074 0.0205554 0.0242047 0 -0 -0.03 0 0 0 5e-05 1.46608e-10 
175 1 0.0176061 0.0170396 0.0274249 0 -0 -0.03 0 0 0 5e-05 1.46608e-10 
176 1 0.0175233 0.0231148 0.0108014 0.0206187 -0.0966445 -0.0403075 0 0 -1.43822e-09 5e-05 1.46608e-10 
177 1 0.0210262 0.0208862 0.0194776 0 -0 -0.03 0 0 0 5e-05 1.46608e-10 
178 1 0.0208525 0.0205134 0.0183453 0 0 -0.0509885 0 0 -1.43822e-09 5e-05 1.46608e-10 
179 1 0.0171845 0.0234184 0.0249928 0 -0 -0.03 0 0 0 5e-05 1.46608e-10 
180 1 0.0204053 0.0238761 0.0116057 0.000427078 -0.0025419 -0.00366041 0 0 -1.43822e-09 5e-05 1.46608e-10 
181 1 0.016032 0.0189085 0.0183235 0 0 -0.0550204 0 0 -1.43822e-09 5e-05 1.46608e-10 
182 1 0.0201595 0.0177856 0.00707707 0.00507014 -0.0022928 0.000552534 9.24589e-11 -2.32635e-10 -3.07348e-11 5e-05 1.46608e-10 
183 1 0.0196976 0.0194351 0.0223187 0 -0 -0.03 0 0 0 5e-05 1.46608e-10 
184 1 0.0219911 0.0169287 0.0230778 0 -0 -0.03 0 0 0 5e-05 1.46608e-10 
185 1 0.0188124 0.0230834 0.0124163 -0.0538083 0.0611691 -0.162689 0 0 -1.43822e-09 5e-05 1.46608e-10 
186 1 0.0159667 0.0228051 0.0183363 0 0 -0.0526856 0 0 -1.43822e-09 5e-05 1.46608e-10 
187 1 0.0206437 0.0168281 0.007473 -0.0111788 0.140549 -0.107157 0 0 -1.43822e-09 5e-05 1.46608e-10 
188 1 0.0224264 0.0188365 0.00696811 -3.9759e-15 2.47093e-14 1.44604e-13 3.48967e-24 -1.55096e-25 2.06795e-25 5e-05 1.46608e-10 
189 1 0.02107 0.0170872 0.0220739 0 -0 -0.03 0 0 0 5e-05 1.46608e-10 
190 1 0.0156072 0.0181684 0.0199657 0 -0 -0.03 0 0 0 5e-05 1.46608e-10 
191 1 0.0235608 0.0190602 0.0159037 6.42195e-06 0.0344148 0.0712823 0 0 -1.43822e-09 5e-05 1.46608e-10 
192 1 0.0187601 0.0212681 0.0210697 0 -0 -0.03 0 0 0 5e-05 1.46608e-10 
193 1 0.0202943 0.0166151 0.00757378 0.00175668 0.112392 -0.0877158 0 0 -1.43822e-09 5e-05 1.46608e-10 
194 1 0.0179506 0.0155736 0.0261168 0 -0 -0.03 0 0 0 5e-05 1.46608e-10 
195 1 0.0213313 0.0181362 0.0187646 0 -0 -0.03 0 0 0 5e-05 1.46608e-10 
196 1 0.0147682 0.0170801 0.0204365 0 -0 -0.03 0 0 0 5e-05 1.46608e-10 
197 1 0.018635 0.0173842 0.0240264 0 -0 -0.03 0 0 0 5e-05 1.46608e-10 
198 1 0.0167749 0.0230541 0.0110669 0.00614402 0.0429693 -0.0251433 0 0 -1.43822e-09 5e-05 1.46608e-10 
199 1 0.0195181 0.0198869 0.0154115 4.03065e-06 0.0237665 -0.00147971 0 0 -1.43822e-09 5e-05 1.46608e-10 
200 1 0.0172121 0.0203637 0.00716738 -0.0342747 -0.0942294 -0.0945117 0 0 -1.43822e-09 5e-05 1.46608e-10 
201 1 0.0231437 0.0176511 0.0271134 0 -0 -0.03 0 0 0 5e-05 1.46608e-10 
202 1 0.0198067 0.0238547 0.0115667 -0.00433539 0.0121844 0.0433268 1.02241e-06 1.61481e-07 -2.34132e-06 5e-05 1.46608e-10 
203 1 0.019886 0.0165115 0.0269262 0 -0 -0.03 0 0 0 5e-05 1.46608e-10 
204 1 0.0183739 0.0233985 0.0108172 1.32154e-07 -0.0978024 -0.101641 0 0 -1.43822e-09 5e-05 1.46608e-10 
205 1 0.0141609 0.0215318 0.0156099 -6.12962e-05 0.036844 -0.0228382 -7.91293e-13 1.49812e-10 -1.59614e-10 5e-05 1.46608e-10 
206 1 0.0188428 0.0223694 0.0243463 0 -0 -0.03 0 0 0 5e-05 1.46608e-10 
207 1 0.0170876 0.015219 0.0211082 0 -0 -0.03 0 0 0 5e-05 1.46608e-10 
208 1 0.0195295 0.0186718 0.0182789 0 0 -0.062476 0 0 -1.43822e-09 5e-05 1.46608e-10 
209 1 0.0162047 0.0182577 0.0194805 0 -0 -0.03 0 0 0 5e-05 1.46608e-10 
210 1 0.0200958 0.0154267 0.0216917 0 -0 -0.03 0 0 0 5e-05 1.46608e-10 
211 1 0.0220454 0.0232344 0.011917 -0.00374444 0.04769 -0.119355 0 0 -1.43822e-09 5e-05 1.46608e-10 
212 1 0.0208805 0.0222565 0.0254894 0 -0 -0.03 0 0 0 5e-05 1.46608e-10 
213 1 0.022659 0.0158496 0.0178396 0 0 -0.111899 0 0 -1.43822e-09 5e-05 1.46608e-10 
214 1 0.0208795 0.0191972 0.00686395 6.32944e-11 -4.57206e-11 9.55318e-12 -9.51106e-15 1.4148e-15 -5.02001e-16 5e-05 1.46608e-10 
215 1 0.016672 0.0214482 0.0230042 0 -0 -0.03 0 0 0 5e-05 1.46608e-10 
216 1 0.0195972 0.0204017 0.025531 0 -0 -0.03 0 0 0 5e-05 1.46608e-10 
217 1 0.0202497 0.0177437 0.00708708 0.00510375 -0.00219201 0.000536266 4.39465e-10 2.00193e-10 -2.08222e-11 5e-05 1.46608e-10 
218 1 0.0238348 0.0203469 0.0258133 0 -0 -0.03 0 0 0 5e-05 1.46608e-10 
219 1 0.022736 0.0222134 0.0182086 0 0 -0.0726686 0 0 -1.43822e-09 5e-05 1.46608e-10 
220 1 0.0185279 0.0220241 0.0204475 0 -0 -0.03 0 0 0 5e-05 1.46608e-10 
221 1 0.0148759 0.0215363 0.0156095 -6.13111e-05 0.0368443 -0.0228674 -7.91366e-13 1.4981e-10 -1.59634e-10 5e-05 1.46608e-10 
222 1 0.0202748 0.0179156 0.00705983 0.00496705 -0.00242186 0.000569552 -2.20742e-10 -1.90346e-10 2.1648e-11 5e-05 1.46608e-10 
223 1 0.0164664 0.0210217 0.0184921 0 -0 -0.03 0 0 0 5e-05 1.46608e-10 
224 1 0.0171649 0.0209407 0.00746217 -0.0185456 -0.0779228 -0.0395044 0 0 -1.43822e-09 5e-05 1.46608e-10 
225 1 0.0234485 0.0170682 0.0254068 0 -0 -0.03 0 0 0 5e-05 1.46608e-10 
226 1 0.0198378 0.0226428 0.0247003 0 -0 -0.03 0 0 0 5e-05 1.46608e-10 
