ITEM: TIMESTEP
17200000
ITEM: NUMBER OF ATOMS
287
ITEM: BOX BOUNDS ff ff ff
-0.02 0.43
-0.02 0.06
-0.02 0.07
ITEM: ATOMS id type x y z vx vy vz fx fy fz radius mass 
1 1 0.11312 0.0164115 0.00796853 0.00573445 -0.000522267 -6.4449e-06 1.79064e-10 3.61295e-10 -2.47539e-10 5e-05 1.46608e-10 
2 1 0.113597 0.0176057 0.00716694 0.00538927 -0.000541603 2.58176e-05 1.71056e-10 -7.16743e-12 -2.4185e-11 5e-05 1.46608e-10 
3 1 0.106914 0.0158748 0.00819497 0.00573469 0.000138583 0.000272574 -4.96037e-10 2.34667e-10 -5.7925e-11 5e-05 1.46608e-10 
4 1 0.113438 0.0177202 0.00710245 0.00551668 -0.000609798 5.14456e-05 -8.65757e-11 6.62976e-11 8.57797e-11 5e-05 1.46608e-10 
5 1 0.113003 0.0163065 0.0080435 0.00581307 -0.000651831 7.25971e-05 -6.85302e-11 -1.26477e-10 9.0298e-11 5e-05 1.46608e-10 
6 1 0.119102 0.0166014 0.0076507 0.00541512 -0.000653866 0.000138389 -2.21089e-12 1.89449e-11 -1.44881e-11 5e-05 1.46608e-10 
7 1 0.113191 0.0170403 0.00755732 0.00531956 -0.000568104 4.78933e-05 -3.14585e-11 1.65775e-10 -1.09484e-10 5e-05 1.46608e-10 
8 1 0.112898 0.0158992 0.00831349 0.00596845 -0.000675705 7.77684e-05 1.12085e-11 7.08735e-11 -3.80104e-11 5e-05 1.46608e-10 
9 1 0.11935 0.0177363 0.00715121 0.00543615 -0.000509848 0.000322114 -1.57688e-10 7.75629e-11 -4.49698e-11 5e-05 1.46608e-10 
10 1 0.113131 0.0167952 0.00771958 0.00600691 -0.000692451 8.399e-05 -3.51626e-10 -1.17924e-09 8.09536e-10 5e-05 1.46608e-10 
11 1 0.113633 0.0177698 0.00705855 0.00569555 -0.000605983 5.10176e-05 2.65719e-10 1.11782e-10 -1.03681e-10 5e-05 1.46608e-10 
12 1 0.107112 0.0166568 0.00763597 0.00556064 7.7004e-05 0.000491421 3.90863e-11 -2.0702e-10 1.63219e-10 5e-05 1.46608e-10 
13 1 0.112982 0.0162251 0.0080975 0.00584459 -0.000655445 7.29253e-05 -2.19334e-11 -6.00454e-11 3.29928e-11 5e-05 1.46608e-10 
14 1 0.106832 0.0157242 0.0085536 0.00601686 0.000345343 0.000399447 3.37636e-10 -4.58474e-10 3.44632e-10 5e-05 1.46608e-10 
15 1 0.113323 0.0172289 0.00742729 0.00531856 -0.000603861 6.9456e-05 -5.06808e-10 3.02852e-10 -1.68511e-10 5e-05 1.46608e-10 
16 1 0.106812 0.0156941 0.00864686 0.00599078 0.000337051 0.000367378 2.76069e-10 -6.10166e-11 3.23899e-10 5e-05 1.46608e-10 
17 1 0.113109 0.0167138 0.00777353 0.00578825 -0.000574031 2.36682e-05 9.2675e-10 -1.07296e-09 6.82563e-10 5e-05 1.46608e-10 
18 1 0.119233 0.0171633 0.00728494 0.00546553 -0.000536979 0.000330397 1.44913e-12 -2.35546e-11 5.56479e-12 5e-05 1.46608e-10 
19 1 0.112961 0.0161436 0.0081515 0.0058737 -0.000661942 7.5388e-05 1.48356e-12 1.66456e-12 -5.83351e-13 5e-05 1.46608e-10 
21 1 0.113098 0.0163295 0.00802288 0.00578341 -0.000586605 3.04956e-05 -6.13131e-11 1.22586e-10 -6.37564e-11 5e-05 1.46608e-10 
22 1 0.113229 0.0172041 0.00744903 0.00531003 -0.00057835 5.42191e-05 -1.57328e-10 -2.22283e-12 1.49508e-12 5e-05 1.46608e-10 
23 1 0.107305 0.0171427 0.00744491 0.00547853 0.000200559 0.000435681 3.29628e-11 -1.81013e-10 7.52268e-11 5e-05 1.46608e-10 
24 1 0.119291 0.0174498 0.00721807 0.00546603 -0.000530852 0.000328866 -2.72339e-11 1.15035e-11 -1.47673e-11 5e-05 1.46608e-10 
25 1 0.113172 0.0169583 0.00761152 0.00533615 -0.000667266 0.000120067 3.58422e-11 6.27155e-10 -9.00267e-10 5e-05 1.46608e-10 
26 1 0.119176 0.0168928 0.0073874 0.00547839 -0.000594634 0.000249 6.3493e-12 -1.22883e-13 3.67796e-11 5e-05 1.46608e-10 
27 1 0.10719 0.0170191 0.00748728 0.00545376 0.00010646 0.000473881 3.67493e-12 1.16915e-10 -4.96819e-11 5e-05 1.46608e-10 
28 1 0.113419 0.0176383 0.00715659 0.00548041 -0.000608813 6.82604e-05 2.18228e-10 3.04589e-11 -7.94701e-11 5e-05 1.46608e-10 
29 1 0.11294 0.0160621 0.0082055 0.00590812 -0.000666649 7.56421e-05 4.73533e-11 3.90234e-11 -3.07475e-11 5e-05 1.46608e-10 
30 1 0.113477 0.0174934 0.00724689 0.00534576 -0.000499944 5.26107e-06 2.99458e-10 -1.05901e-10 -3.91299e-11 5e-05 1.46608e-10 
31 1 0.11321 0.0171222 0.00750317 0.0052375 -0.000557718 4.51646e-05 -3.01098e-10 4.5381e-11 -1.5083e-11 5e-05 1.46608e-10 
32 1 0.113304 0.017147 0.00748143 0.00530272 -0.000576607 5.13901e-05 1.71153e-10 3.29109e-10 -2.04829e-10 5e-05 1.46608e-10 
33 1 0.11912 0.0166727 0.0075831 0.00545998 -0.000663256 0.000143836 -1.6915e-11 1.2565e-11 -1.40672e-11 5e-05 1.46608e-10 
34 1 0.113088 0.0166324 0.00782751 0.00570973 -0.000535633 5.08166e-06 -1.58348e-10 -5.01033e-10 3.67671e-10 5e-05 1.46608e-10 
35 1 0.113286 0.0170651 0.00753558 0.00532108 -0.000570983 5.14842e-05 -1.16255e-10 -1.8979e-10 1.87873e-10 5e-05 1.46608e-10 
36 1 0.119391 0.017927 0.0071068 0.00586243 -0.000584401 0.00035606 -1.44556e-12 2.08817e-11 -1.2769e-11 5e-05 1.46608e-10 
37 1 0.113247 0.0169007 0.00764424 0.006134 -0.000127952 -0.000272529 -5.01846e-10 6.19017e-10 -4.74879e-10 5e-05 1.46608e-10 
38 1 0.11342 0.0172477 0.00740929 0.00529437 -0.000486213 -4.85951e-06 2.32453e-10 -4.38181e-11 1.06969e-12 5e-05 1.46608e-10 
39 1 0.119311 0.0175453 0.00719578 0.00545439 -0.000524806 0.000326322 1.21063e-11 2.75106e-11 1.00776e-12 5e-05 1.46608e-10 
41 1 0.113046 0.0164695 0.00793551 0.00577595 -0.000502637 -2.12143e-05 -4.41547e-10 -2.01872e-10 2.21259e-10 5e-05 1.46608e-10 
42 1 0.113248 0.017286 0.00739489 0.00533828 -0.000591515 6.10365e-05 -4.18328e-11 6.38977e-11 -3.26402e-11 5e-05 1.46608e-10 
44 1 0.11344 0.0173294 0.0073552 0.0053384 -0.000497186 -9.23423e-07 5.00684e-10 -7.85469e-11 3.25241e-11 5e-05 1.46608e-10 
45 1 0.119138 0.0167441 0.00751542 0.00551078 -0.000674741 0.000149338 -1.55074e-11 -9.65533e-12 -2.90133e-12 5e-05 1.46608e-10 
46 1 0.119214 0.0170678 0.00730724 0.00547672 -0.000538195 0.00033059 -2.01352e-11 -3.52738e-11 3.35498e-12 5e-05 1.46608e-10 
47 1 0.113067 0.0165509 0.00788151 0.00575014 -0.000556718 1.27437e-05 4.26857e-10 -1.67033e-10 1.90633e-12 5e-05 1.46608e-10 
48 1 0.113286 0.0174497 0.00728661 0.005416 -0.000619887 7.4845e-05 1.39788e-12 -7.74451e-11 4.82511e-11 5e-05 1.46608e-10 
49 1 0.119194 0.0169722 0.00732954 0.00548878 -0.000539272 0.000330596 -1.79705e-11 -2.50695e-11 9.73877e-12 5e-05 1.46608e-10 
50 1 0.113343 0.0176954 0.00712418 0.00548071 -0.000611162 6.37808e-05 7.64081e-12 2.82046e-12 -1.63878e-11 5e-05 1.46608e-10 
51 1 0.113324 0.0176135 0.00717833 0.00545288 -0.000622199 7.62635e-05 1.21349e-10 5.55744e-11 1.69755e-11 5e-05 1.46608e-10 
52 1 0.107092 0.0165661 0.00767312 0.00556586 7.90873e-05 0.000494839 -2.79982e-11 1.01109e-10 6.03065e-11 5e-05 1.46608e-10 
53 1 0.119252 0.0172588 0.00726264 0.0054691 -0.000537386 0.000330241 2.4133e-11 -1.47124e-11 -1.00931e-12 5e-05 1.46608e-10 
54 1 0.113077 0.0162481 0.00807688 0.00582894 -0.000600511 3.73139e-05 6.17277e-11 1.35282e-10 -9.66125e-11 5e-05 1.46608e-10 
55 1 0.106872 0.0157843 0.00836722 0.00612578 0.000321369 0.000434329 -1.73178e-10 8.54084e-12 3.30302e-10 5e-05 1.46608e-10 
56 1 0.113267 0.0169831 0.00758974 0.00535421 -0.000614663 8.08883e-05 -7.90039e-12 -7.72892e-10 1.1946e-10 5e-05 1.46608e-10 
57 1 0.119158 0.0168153 0.0074479 0.00544236 -0.000687504 0.000117744 -3.45607e-12 5.02259e-12 2.81214e-11 5e-05 1.46608e-10 
59 1 0.113344 0.0169202 0.00762584 0.00581499 -0.000572194 1.97143e-05 8.26565e-10 -8.46238e-11 4.52782e-12 5e-05 1.46608e-10 
60 1 0.113364 0.0170019 0.00757176 0.00548036 -0.000510846 1.67266e-07 3.75272e-10 -7.54493e-11 2.74382e-11 5e-05 1.46608e-10 
61 1 0.113024 0.016388 0.00798951 0.00581118 -0.000557624 1.25486e-05 1.3511e-11 7.97618e-11 -1.09295e-11 5e-05 1.46608e-10 
62 1 0.113458 0.0174114 0.00730101 0.00535302 -0.000501514 3.12444e-06 4.75661e-10 -9.59734e-11 1.59405e-11 5e-05 1.46608e-10 
63 1 0.113381 0.0174745 0.00726487 0.00539549 -0.000610625 6.92463e-05 5.73517e-11 6.75726e-11 -6.39721e-11 5e-05 1.46608e-10 
64 1 0.119272 0.0173543 0.00724035 0.00547695 -0.000536393 0.000330333 3.97048e-12 3.90304e-12 1.23814e-11 5e-05 1.46608e-10 
65 1 0.107227 0.0167798 0.00759389 0.00546285 0.000175511 0.000445465 -1.6029e-10 -1.48114e-10 4.8017e-11 5e-05 1.46608e-10 
66 1 0.107166 0.0165078 0.00770534 0.00556263 9.9254e-05 0.000494542 2.31091e-10 -3.11672e-10 8.22644e-11 5e-05 1.46608e-10 
67 1 0.113617 0.0176875 0.00711283 0.00546757 -0.000568889 4.04946e-05 4.58105e-10 7.48011e-12 2.47958e-11 5e-05 1.46608e-10 
68 1 0.113516 0.017657 0.00713862 0.00540687 -0.000502949 4.62298e-06 1.18626e-10 -3.89442e-11 -8.73453e-12 5e-05 1.46608e-10 
69 1 0.113184 0.0166559 0.00780655 0.0057046 -0.000609517 5.01962e-05 2.09009e-10 -2.04995e-10 1.19738e-10 5e-05 1.46608e-10 
70 1 0.119331 0.0176408 0.0071735 0.00544944 -0.000516947 0.000325527 -1.87489e-11 5.30694e-11 -9.98992e-12 5e-05 1.46608e-10 
71 1 0.106856 0.0157559 0.00846167 0.00607536 0.000372999 0.000431118 -8.26996e-11 -2.75566e-10 4.64358e-10 5e-05 1.46608e-10 
72 1 0.113496 0.0175753 0.00719278 0.00536105 -0.000490666 1.45377e-05 2.22923e-10 -7.91883e-11 -1.65405e-12 5e-05 1.46608e-10 
73 1 0.113153 0.0168765 0.00766562 0.00610771 -0.000806788 0.000151475 7.27258e-10 -4.96043e-10 2.06073e-10 5e-05 1.46608e-10 
74 1 0.113343 0.0173108 0.00737315 0.00536418 -0.000623349 7.99879e-05 1.99646e-10 9.10885e-11 -7.35781e-11 5e-05 1.46608e-10 
76 1 0.107426 0.0176866 0.00722204 0.0059488 0.000161873 0.00049687 -3.32433e-11 -5.16064e-11 1.9414e-11 5e-05 1.46608e-10 
77 1 0.113462 0.0182382 0.0069999 0.00601776 -0.000555922 0.000362032 1.43594e-11 -9.66373e-12 4.43943e-11 5e-05 1.46608e-10 
78 1 0.106931 0.0159212 0.00810808 0.00567653 -7.49417e-05 0.000134206 3.52584e-10 5.72503e-12 -1.89684e-12 5e-05 1.46608e-10 
79 1 0.107132 0.0167474 0.0075988 0.00556976 8.68184e-05 0.000494055 -1.52166e-11 -2.07537e-10 6.57922e-11 5e-05 1.46608e-10 
80 1 0.113382 0.0178607 0.00701859 0.00554457 -0.000540941 0.000190673 -1.07037e-10 4.21217e-11 4.81116e-10 5e-05 1.46608e-10 
81 1 0.107072 0.0164755 0.00771025 0.00555507 8.19059e-05 0.000489431 -3.84582e-10 3.69979e-10 4.84261e-11 5e-05 1.46608e-10 
82 1 0.10721 0.0171099 0.00745004 0.00545794 0.000106715 0.000474159 -7.79721e-12 -4.27485e-11 1.76896e-11 5e-05 1.46608e-10 
83 1 0.107262 0.0165404 0.00770038 0.00545184 0.00016457 0.000448024 -1.4207e-10 -5.79975e-11 7.3954e-12 5e-05 1.46608e-10 
84 1 0.11937 0.0178318 0.00712894 0.00583495 -0.000581102 0.000354493 -7.90026e-13 4.23408e-11 1.2432e-11 5e-05 1.46608e-10 
85 1 0.107044 0.0160042 0.00800657 0.00574944 -0.000313372 -8.72055e-05 -2.65227e-10 2.90261e-10 -1.62632e-10 5e-05 1.46608e-10 
86 1 0.1134 0.0175564 0.00721073 0.0054647 -0.000615951 7.09438e-05 4.36885e-10 1.35955e-10 -2.36412e-13 5e-05 1.46608e-10 
87 1 0.113323 0.0168386 0.00767987 0.0060915 -0.000622142 3.56158e-05 1.34943e-10 1.74624e-10 -1.22998e-10 5e-05 1.46608e-10 
88 1 0.113401 0.0179447 0.00696772 0.00555753 -0.000483109 0.000321783 6.64172e-11 -8.16873e-11 1.02255e-10 5e-05 1.46608e-10 
89 1 0.113453 0.0180048 0.00706426 0.00550719 -0.000450036 0.00024588 -3.63756e-10 9.10868e-11 2.88756e-10 5e-05 1.46608e-10 
90 1 0.113598 0.0175217 0.00722124 0.00534477 -0.000527722 1.95151e-05 8.48013e-11 1.42178e-10 -9.62567e-11 5e-05 1.46608e-10 
91 1 0.107151 0.0168406 0.00756842 0.00541007 0.000116407 0.000464451 3.16594e-11 -9.49556e-11 3.70025e-11 5e-05 1.46608e-10 
92 1 0.113578 0.0179176 0.00700618 0.00602931 -0.000536907 0.000241081 -4.79845e-11 -1.61431e-10 1.15948e-10 5e-05 1.46608e-10 
93 1 0.113495 0.0179785 0.00697726 0.00554575 -0.000495983 0.000312961 -2.05733e-10 2.20455e-11 1.98109e-11 5e-05 1.46608e-10 
94 1 0.113638 0.0182084 0.0070089 0.00600752 -0.000504078 0.000355787 -1.00059e-10 -1.09788e-10 1.04345e-11 5e-05 1.46608e-10 
95 1 0.113549 0.017979 0.00707975 0.00550986 -0.000439065 -6.66708e-05 -1.08412e-10 -5.45998e-11 9.88855e-11 5e-05 1.46608e-10 
96 1 0.113595 0.0180143 0.00698742 0.00605713 -0.00051554 0.000355776 -4.58477e-11 -2.14589e-10 -6.34577e-11 5e-05 1.46608e-10 
97 1 0.107032 0.0163078 0.00781157 0.00564116 -0.000206347 2.61699e-05 -2.74642e-10 -4.4645e-12 -4.20901e-11 5e-05 1.46608e-10 
98 1 0.113419 0.0180439 0.00697872 0.00553119 -0.000490589 5.17035e-05 -7.32114e-11 9.444e-11 -1.1857e-09 5e-05 1.46608e-10 
99 1 0.107206 0.0166891 0.00763103 0.00556528 7.9776e-05 0.000496282 2.13576e-10 1.27e-11 1.28235e-11 5e-05 1.46608e-10 
100 1 0.113542 0.0173629 0.0073274 0.00533738 -0.000513712 1.06194e-05 3.38619e-10 -1.80984e-10 1.30254e-10 5e-05 1.46608e-10 
101 1 0.107147 0.0164199 0.00774908 0.00551074 9.33265e-05 0.000415941 1.02803e-10 -1.08361e-10 1.21951e-10 5e-05 1.46608e-10 
102 1 0.0643568 0.0187248 0.00531097 4.42196e-15 1.04551e-14 8.29576e-14 1.26274e-21 -2.98457e-22 -2.66766e-23 5e-05 1.46608e-10 
103 1 0.24257 0.0191927 0.00520306 -1.01195e-22 1.36824e-22 1.23839e-22 0 2.58494e-26 0 5e-05 1.46608e-10 
104 1 0.1075 0.0176285 0.00725422 0.00591197 0.0001254 0.000508682 -5.54688e-11 3.52127e-11 -2.64178e-11 5e-05 1.46608e-10 
105 1 0.106991 0.0161437 0.00791835 0.0057518 -0.000303423 -9.45289e-05 -1.43873e-10 -3.60525e-11 3.50589e-12 5e-05 1.46608e-10 
106 1 0.107575 0.0175702 0.00728643 0.00586681 7.35579e-05 0.000527323 -1.86705e-11 1.19624e-10 -5.42913e-11 5e-05 1.46608e-10 
107 1 0.10695 0.0159866 0.00803486 0.00572162 -0.000255001 -3.72468e-05 -6.53133e-12 -6.70373e-11 -1.48171e-10 5e-05 1.46608e-10 
108 1 0.113227 0.0168186 0.00769864 0.00614445 -0.000742199 0.000109873 5.31602e-10 -1.29421e-09 7.73992e-10 5e-05 1.46608e-10 
109 1 0.113305 0.0175316 0.00723247 0.00540209 -0.000630738 7.88184e-05 -1.16879e-11 -3.35205e-11 7.83217e-12 5e-05 1.46608e-10 
110 1 0.113548 0.0186264 0.00704285 0.00594202 -0.000562485 0.000346071 7.22427e-11 2.88614e-10 3.30053e-11 5e-05 1.46608e-10 
111 1 0.113582 0.0183689 0.00702051 0.005986 -0.000526628 0.000352759 1.09169e-10 7.95076e-11 1.68022e-11 5e-05 1.46608e-10 
112 1 0.107052 0.0163915 0.00776078 0.00553952 -1.26431e-05 0.000317542 -1.23692e-11 1.41095e-10 1.01035e-10 5e-05 1.46608e-10 
113 1 0.107914 0.0182675 0.00701831 0.00601477 -1.92739e-05 0.000581324 -6.6389e-11 -1.13512e-10 4.1878e-11 5e-05 1.46608e-10 
114 1 0.107439 0.0173567 0.00736549 0.00572682 0.00013756 0.000486325 2.2815e-11 -2.26616e-11 1.19256e-11 5e-05 1.46608e-10 
115 1 0.113362 0.0173926 0.00731901 0.00539905 -0.000626241 7.97531e-05 8.14751e-11 -8.09662e-12 1.1883e-12 5e-05 1.46608e-10 
116 1 0.113206 0.0167372 0.0077526 0.00593149 -0.000691478 8.95039e-05 4.10759e-10 -7.55499e-10 4.53996e-10 5e-05 1.46608e-10 
117 1 0.113056 0.0161666 0.00813088 0.00585799 -0.000620126 4.89403e-05 3.53395e-11 9.22285e-11 -6.60677e-11 5e-05 1.46608e-10 
118 1 0.106894 0.0158384 0.00828594 0.00614349 0.000248233 0.000406351 5.37304e-10 4.05757e-10 1.56031e-10 5e-05 1.46608e-10 
119 1 0.113383 0.0170838 0.00751759 0.00529461 -0.000481482 -7.84297e-06 -8.81824e-10 1.23647e-10 -2.70553e-11 5e-05 1.46608e-10 
120 1 0.112919 0.0159807 0.00825949 0.00593976 -0.000671868 7.67777e-05 9.10369e-11 9.47989e-11 -8.08857e-11 5e-05 1.46608e-10 
121 1 0.112876 0.0158178 0.00836749 0.00600055 -0.000678052 7.68852e-05 1.06154e-11 9.98367e-12 -5.5181e-12 5e-05 1.46608e-10 
122 1 0.113526 0.0185294 0.00703211 0.00596145 -0.00055739 0.000348029 6.41882e-11 2.33928e-10 2.39606e-11 5e-05 1.46608e-10 
123 1 0.107086 0.0161673 0.00789816 0.00574133 -0.000241934 -0.000136994 -4.70414e-10 2.11699e-10 -2.08324e-10 5e-05 1.46608e-10 
124 1 0.113479 0.0178842 0.00700639 0.00556996 -0.00072193 -0.000359067 -1.97955e-11 -8.8224e-11 -1.31918e-09 5e-05 1.46608e-10 
125 1 0.113035 0.0160852 0.00818487 0.00589609 -0.000633653 5.46315e-05 3.85241e-11 1.25082e-10 -7.94537e-11 5e-05 1.46608e-10 
126 1 0.113267 0.0173679 0.00734075 0.00537449 -0.000601998 6.60518e-05 -1.00543e-10 -1.66218e-10 1.12767e-10 5e-05 1.46608e-10 
127 1 0.107011 0.0162253 0.00786421 0.00572159 -0.000301044 -9.83329e-05 -1.5231e-10 -2.55873e-11 -6.07525e-11 5e-05 1.46608e-10 
128 1 0.113363 0.0177772 0.00707005 0.00551681 -0.000601547 6.55105e-05 2.24596e-11 -1.35775e-10 -4.24436e-11 5e-05 1.46608e-10 
129 1 0.113564 0.0180778 0.0070767 0.00604996 -0.000541935 0.000345221 -4.37143e-10 -7.09811e-12 7.1146e-11 5e-05 1.46608e-10 
130 1 0.107324 0.0172334 0.00740769 0.00549709 0.000203068 0.000435865 1.27792e-11 -1.47454e-10 7.05106e-11 5e-05 1.46608e-10 
131 1 0.107186 0.0165984 0.0076682 0.00556369 7.79778e-05 0.000494405 1.93295e-10 -2.22654e-11 2.51959e-11 5e-05 1.46608e-10 
132 1 0.11346 0.0178138 0.00707488 0.00550301 -0.00068123 -0.000305049 -1.50054e-11 -5.8126e-11 -1.38118e-09 5e-05 1.46608e-10 
133 1 0.113237 0.016513 0.00789576 0.00553077 -0.000491432 -1.55073e-05 1.07864e-12 -1.13467e-11 7.29547e-12 5e-05 1.46608e-10 
134 1 0.113401 0.0171658 0.00746341 0.00525946 -0.000478874 -7.24152e-06 -4.30552e-10 3.80564e-11 -4.94335e-13 5e-05 1.46608e-10 
135 1 0.113014 0.0160037 0.00823887 0.00592966 -0.00064315 5.87221e-05 1.74493e-10 1.56026e-10 -1.0996e-10 5e-05 1.46608e-10 
136 1 0.107022 0.0159228 0.00806078 0.00588115 -0.000138032 -0.000204235 1.66529e-11 -1.41288e-11 -2.26105e-12 5e-05 1.46608e-10 
137 1 0.113483 0.0183352 0.00701064 0.00599832 -0.00055364 0.000352906 5.37889e-11 1.09814e-10 7.01848e-12 5e-05 1.46608e-10 
138 1 0.113162 0.0165744 0.00786053 0.00559949 -0.000562862 2.69611e-05 4.28016e-10 5.63153e-11 -6.64392e-11 5e-05 1.46608e-10 
140 1 0.113604 0.0184671 0.00703141 0.00599141 -0.00051648 0.000353761 3.84356e-11 1.36582e-10 1.5346e-11 5e-05 1.46608e-10 
141 1 0.107065 0.0160858 0.00795235 0.00573731 -0.000236632 -0.000135661 -4.71253e-10 3.04045e-10 -1.42724e-10 5e-05 1.46608e-10 
142 1 0.107459 0.0174473 0.00732836 0.00580906 0.000128229 0.000498009 1.73296e-10 -6.8057e-12 1.20775e-11 5e-05 1.46608e-10 
143 1 0.10697 0.0160626 0.00797314 0.00575072 -0.000319288 -0.000113451 -1.69704e-10 -1.66951e-11 -1.17062e-10 5e-05 1.46608e-10 
144 1 0.107419 0.017266 0.00740266 0.00561237 0.00015624 0.000467552 -1.11463e-10 -2.35238e-11 4.23143e-13 5e-05 1.46608e-10 
146 1 0.107281 0.0166311 0.00766316 0.00541796 0.000170057 0.0004433 2.52665e-12 -7.46232e-11 1.56068e-11 5e-05 1.46608e-10 
147 1 0.107003 0.0158622 0.00814493 0.00575044 0.000262622 0.000572904 6.18328e-10 1.54988e-10 -2.4672e-10 5e-05 1.46608e-10 
148 1 0.107269 0.0173821 0.00733835 0.00548962 0.000211717 0.00043295 -1.09227e-10 -2.69698e-12 -6.90081e-11 5e-05 1.46608e-10 
149 1 0.113561 0.0182719 0.00700977 0.00600851 -0.000525633 0.000354374 -2.20957e-11 4.4942e-11 3.48722e-12 5e-05 1.46608e-10 
150 1 0.107321 0.0168125 0.00758878 0.0054023 0.000172835 0.000439986 3.24883e-10 -1.1081e-10 8.34313e-11 5e-05 1.46608e-10 
151 1 0.10769 0.0176925 0.00724472 0.00594598 2.65302e-05 0.000554809 -6.54179e-11 -6.98959e-11 2.16348e-11 5e-05 1.46608e-10 
153 1 0.107127 0.0163327 0.00779363 0.00561303 -4.60706e-05 0.000175111 1.81058e-10 8.46947e-12 2.37247e-10 5e-05 1.46608e-10 
154 1 0.107384 0.0175055 0.00729619 0.00585208 0.000163999 0.000486555 1.05299e-10 -1.03433e-11 1.09648e-11 5e-05 1.46608e-10 
155 1 0.107446 0.0177772 0.00718497 0.00599244 0.000157444 0.000503026 -5.03654e-11 8.49625e-12 -2.68002e-11 5e-05 1.46608e-10 
156 1 0.107364 0.0174148 0.0073333 0.00584492 0.000172736 0.000480556 1.03363e-10 3.96658e-11 2.48435e-11 5e-05 1.46608e-10 
157 1 0.0219312 0.0187687 0.00551176 -3.84403e-14 8.1636e-14 2.95882e-13 -2.1318e-22 -1.58302e-22 3.226e-23 5e-05 1.46608e-10 
158 1 0.107458 0.0177606 0.00728287 0.00596114 0.000140064 0.00050173 2.89916e-11 -5.18804e-11 -3.50315e-11 5e-05 1.46608e-10 
159 1 0.113535 0.0177395 0.00708532 0.0055152 -0.000521883 5.177e-06 -1.86349e-10 7.27495e-11 1.94809e-10 5e-05 1.46608e-10 
160 1 0.10733 0.017654 0.00722699 0.0059229 0.000182903 0.000484794 7.88982e-12 -9.1017e-11 5.38218e-11 5e-05 1.46608e-10 
162 1 0.107289 0.0174728 0.00730118 0.00583139 0.000160561 0.000486182 1.88478e-11 -2.03111e-10 6.6041e-11 5e-05 1.46608e-10 
164 1 0.107626 0.0181717 0.00703208 0.00620205 0.000119965 0.000537167 -8.05973e-11 -7.03489e-11 3.90069e-11 5e-05 1.46608e-10 
165 1 0.107754 0.0179638 0.00713393 0.00609778 2.7728e-05 0.000568823 -2.5376e-12 1.72554e-10 -7.08276e-11 5e-05 1.46608e-10 
166 1 0.113194 0.0163503 0.00800369 0.00577312 -0.000535899 -1.39051e-06 -8.80702e-11 -7.40552e-11 4.65041e-11 5e-05 1.46608e-10 
167 1 0.107301 0.0167218 0.00762601 0.0054056 0.000173181 0.000440717 2.88529e-10 -1.84162e-10 1.15134e-10 5e-05 1.46608e-10 
168 1 0.107595 0.0176608 0.00724936 0.00592793 8.13123e-05 0.000529964 -8.57921e-11 7.08505e-11 -3.12646e-11 5e-05 1.46608e-10 
169 1 0.107819 0.0182368 0.0070224 0.00624546 3.28291e-05 0.000580436 -1.61462e-10 6.08824e-11 -3.10062e-11 5e-05 1.46608e-10 
170 1 0.107616 0.0177514 0.00721229 0.00598563 7.9139e-05 0.000535719 -1.5478e-10 1.05694e-10 -5.5938e-11 5e-05 1.46608e-10 
171 1 0.113216 0.0164315 0.00794977 0.00568392 -0.000518065 -7.47562e-06 3.05644e-10 -1.37982e-10 7.0088e-11 5e-05 1.46608e-10 
172 1 0.107733 0.0178733 0.00717092 0.00604038 2.48445e-05 0.000564889 -1.33533e-11 4.80573e-11 -1.98087e-11 5e-05 1.46608e-10 
173 1 0.113671 0.0179483 0.00698621 0.00605457 -0.000561717 0.000355222 1.03814e-10 -1.38469e-10 -7.19604e-11 5e-05 1.46608e-10 
174 1 0.107541 0.0178096 0.00718007 0.00602019 0.000120121 0.000522044 -1.12626e-10 5.156e-11 -2.71736e-11 5e-05 1.46608e-10 
175 1 0.101276 0.017369 0.00719185 0.0057 0.000210057 -4.4541e-05 9.12657e-12 2.26003e-11 -1.34682e-11 5e-05 1.46608e-10 
176 1 0.107344 0.0173241 0.00737047 0.00549113 0.000215836 0.000431397 -6.08098e-13 1.37086e-10 -4.58596e-11 5e-05 1.46608e-10 
177 1 0.107371 0.0178352 0.00715284 0.00601627 0.000180329 0.000494397 -7.37418e-11 -1.38007e-10 7.09051e-11 5e-05 1.46608e-10 
178 1 0.107871 0.0181604 0.00706028 0.00622366 1.46958e-05 0.000585016 -8.9932e-11 2.01785e-10 1.55586e-11 5e-05 1.46608e-10 
179 1 0.107776 0.0181303 0.0070695 0.00620384 3.67095e-05 0.000570499 5.12572e-11 1.33004e-10 4.12327e-11 5e-05 1.46608e-10 
181 1 0.107327 0.0176403 0.00732597 0.00593247 0.000211527 0.000487554 -3.85372e-11 -1.71078e-10 5.596e-11 5e-05 1.46608e-10 
182 1 0.113141 0.016493 0.00791453 0.00573169 -0.000563889 1.89184e-05 -6.07316e-11 -6.10427e-10 3.89672e-10 5e-05 1.46608e-10 
183 1 0.107521 0.017719 0.00721715 0.00597297 0.000127166 0.000514143 -1.00763e-10 3.12324e-11 -2.78127e-11 5e-05 1.46608e-10 
184 1 0.113653 0.0178516 0.00700448 0.0059381 -0.000627615 7.54435e-05 1.74496e-10 -6.42717e-11 -6.45804e-10 5e-05 1.46608e-10 
185 1 0.107249 0.0172914 0.00737557 0.00549386 0.000209493 0.000433674 2.26687e-11 -1.8128e-10 1.03279e-10 5e-05 1.46608e-10 
186 1 0.107321 0.0175461 0.00736188 0.00587215 0.000179424 0.000491278 -2.58137e-11 -3.93236e-11 -1.29675e-10 5e-05 1.46608e-10 
187 1 0.113523 0.0172809 0.00738159 0.00531747 -0.000526039 1.94368e-05 1.43131e-10 -2.43916e-10 1.4374e-10 5e-05 1.46608e-10 
188 1 0.113518 0.0180777 0.00698831 0.00603358 -0.000544849 0.000363104 -2.33913e-11 -1.32233e-10 1.35503e-10 5e-05 1.46608e-10 
189 1 0.113561 0.0174448 0.00727325 0.00533448 -0.000505983 6.85483e-06 4.59689e-10 -3.52532e-11 -5.7688e-12 5e-05 1.46608e-10 
190 1 0.10141 0.017591 0.00713806 0.00566578 0.00024201 -5.32891e-05 -1.0149e-11 1.10738e-12 1.6955e-13 5e-05 1.46608e-10 
191 1 0.113505 0.0184323 0.00702137 0.00597978 -0.000555062 0.000349619 7.71404e-11 1.91009e-10 1.88125e-11 5e-05 1.46608e-10 
192 1 0.107534 0.0173891 0.00736058 0.00576232 8.48448e-05 0.000512525 3.18485e-10 3.9471e-11 1.14823e-11 5e-05 1.46608e-10 
193 1 0.113302 0.0167572 0.00773385 0.00589911 -0.000585587 2.33359e-05 7.53856e-10 2.93687e-11 -6.04296e-11 5e-05 1.46608e-10 
194 1 0.10736 0.0169939 0.00751429 0.0054084 0.000182908 0.00043665 -1.12563e-11 -6.17562e-11 2.54263e-11 5e-05 1.46608e-10 
195 1 0.107809 0.0180427 0.00710506 0.00614527 7.69593e-06 0.000580487 4.39811e-11 1.37904e-10 9.9474e-13 5e-05 1.46608e-10 
196 1 0.106793 0.015664 0.00874013 0.00592905 0.000346404 0.000337995 -2.01838e-10 -2.53982e-11 2.14254e-10 5e-05 1.46608e-10 
197 1 0.101335 0.0176549 0.00712248 0.00565462 0.000226854 -4.96145e-05 -2.74394e-11 -4.3071e-11 1.30267e-11 5e-05 1.46608e-10 
198 1 0.107171 0.0169284 0.00752453 0.00542136 0.000127968 0.000461456 -6.52403e-12 -3.23776e-11 1.32674e-11 5e-05 1.46608e-10 
199 1 0.10731 0.0175635 0.00726406 0.00587595 0.000173676 0.000485687 2.68057e-11 3.64241e-11 -4.19443e-11 5e-05 1.46608e-10 
200 1 0.107285 0.017052 0.00748214 0.00547083 0.000118855 0.000470131 -4.50583e-12 -4.29728e-11 1.82458e-11 5e-05 1.46608e-10 
201 1 0.107744 0.0182951 0.00699017 0.00625001 5.3382e-05 0.000572964 -9.23453e-11 3.85978e-11 -3.4013e-11 5e-05 1.46608e-10 
202 1 0.107554 0.0174796 0.00732351 0.00580988 8.16288e-05 0.000518442 1.56472e-10 1.0525e-10 -3.06922e-11 5e-05 1.46608e-10 
203 1 0.113681 0.0184025 0.00703038 0.00600365 -0.000496731 0.000356708 3.83307e-11 5.29142e-11 1.21353e-11 5e-05 1.46608e-10 
204 1 0.107265 0.0169612 0.00751937 0.00546302 0.000122679 0.00046772 -1.66796e-10 5.34685e-11 -3.82284e-11 5e-05 1.46608e-10 
205 1 0.107579 0.0181647 0.00712036 0.00618408 0.000118828 0.000523299 4.78872e-12 -2.37561e-11 5.22509e-11 5e-05 1.46608e-10 
206 1 0.107563 0.0179002 0.00714309 0.00607959 0.000112298 0.000530995 4.28909e-11 8.57823e-11 -3.4327e-11 5e-05 1.46608e-10 
207 1 0.107106 0.0162489 0.00784399 0.00570351 -0.000232735 -0.00012404 -1.87448e-11 4.4529e-11 2.62692e-11 5e-05 1.46608e-10 
208 1 0.107405 0.017596 0.00725911 0.00589973 0.000163662 0.000491495 3.46196e-11 -5.64764e-11 2.67563e-11 5e-05 1.46608e-10 
209 1 0.107341 0.0169032 0.00755154 0.00538976 0.000178949 0.000436127 4.77899e-11 -7.95879e-11 3.54246e-11 5e-05 1.46608e-10 
210 1 0.113406 0.0177972 0.00715775 0.00558641 -0.000599729 2.12555e-05 8.12474e-11 2.89801e-11 -1.70647e-10 5e-05 1.46608e-10 
211 1 0.113616 0.0181113 0.00699816 0.00602034 -0.000507027 0.000354984 1.10824e-11 -1.79269e-10 8.27126e-11 5e-05 1.46608e-10 
212 1 0.107637 0.0178418 0.00717535 0.00603731 6.45593e-05 0.000547776 2.05589e-11 8.04e-11 -3.53999e-11 5e-05 1.46608e-10 
213 1 0.113504 0.0171991 0.00743569 0.00525619 -0.0005312 2.70226e-05 -1.045e-10 -2.37869e-10 1.57184e-10 5e-05 1.46608e-10 
214 1 0.113713 0.0181425 0.00700766 0.00598266 -0.000522805 0.000352826 -1.69601e-10 -6.87359e-11 -1.08002e-11 5e-05 1.46608e-10 
215 1 0.101391 0.0174957 0.00716118 0.00568634 0.00023733 -5.21512e-05 1.06208e-11 1.11319e-11 -2.47103e-12 5e-05 1.46608e-10 
216 1 0.107351 0.0177446 0.00718991 0.00596462 0.000178269 0.000489346 -1.48431e-11 -1.04304e-10 6.76109e-11 5e-05 1.46608e-10 
217 1 0.113259 0.0165945 0.00784176 0.00537747 -0.000466282 -2.25225e-05 -6.50536e-10 2.30667e-10 -1.07772e-10 5e-05 1.46608e-10 
218 1 0.107488 0.0179582 0.00711097 0.00610608 0.000142558 0.000518656 1.93837e-11 6.85685e-11 -1.30296e-11 5e-05 1.46608e-10 
219 1 0.113539 0.0181748 0.00699903 0.00601825 -0.000535255 0.000358749 1.13325e-10 -1.82798e-10 3.32259e-11 5e-05 1.46608e-10 
220 1 0.107387 0.0178257 0.0072512 0.00601023 0.000199048 0.000495004 -4.87713e-11 -1.69068e-10 6.74598e-11 5e-05 1.46608e-10 
221 1 0.101294 0.0170323 0.00730526 0.00560533 0.000339065 1.25462e-05 -9.21278e-12 -2.67853e-12 1.14259e-11 5e-05 1.46608e-10 
222 1 0.11328 0.0166759 0.00778779 0.0054599 -0.000489348 -1.25858e-05 3.07336e-10 9.759e-11 -8.45455e-11 5e-05 1.46608e-10 
223 1 0.10748 0.0175379 0.00729129 0.00585776 0.000125279 0.000503946 9.48773e-11 2.14725e-11 -8.22717e-12 5e-05 1.46608e-10 
224 1 0.10723 0.0172007 0.00741279 0.00548674 0.00021153 0.000431694 -4.03203e-12 -9.32622e-11 6.31501e-11 5e-05 1.46608e-10 
225 1 0.113553 0.0178266 0.0070399 0.00593167 -0.000585045 4.25838e-05 -2.98165e-10 1.10047e-10 4.09667e-10 5e-05 1.46608e-10 
226 1 0.107711 0.0177829 0.00720778 0.00599764 2.18102e-05 0.000562281 -5.24422e-11 -3.95371e-11 9.64606e-12 5e-05 1.46608e-10 
227 1 0.101352 0.0173048 0.00720648 0.00569719 0.000172475 -0.000195641 3.59015e-11 1.69383e-11 -7.02569e-12 5e-05 1.46608e-10 
228 1 0.101296 0.0174643 0.00716873 0.00568523 0.000215307 -4.65179e-05 1.98553e-11 1.66094e-11 -4.93175e-12 5e-05 1.46608e-10 
229 1 0.107362 0.0177273 0.00728775 0.00595429 0.0001812 0.000487197 4.84971e-11 1.01311e-10 1.30946e-10 5e-05 1.46608e-10 
230 1 0.107669 0.018353 0.00695806 0.0062498 7.29001e-05 0.000565101 -6.2193e-11 5.28973e-11 -3.3558e-11 5e-05 1.46608e-10 
231 1 0.101257 0.0172736 0.00721497 0.00569383 0.000207505 -5.16604e-05 3.34778e-11 6.18897e-12 -2.43211e-11 5e-05 1.46608e-10 
232 1 0.107242 0.0164497 0.00773755 0.00548444 0.00015994 0.000451694 4.82919e-11 -7.36815e-11 3.07267e-11 5e-05 1.46608e-10 
233 1 0.107379 0.0170847 0.00747705 0.00545536 0.000178435 0.000443113 9.09457e-11 -9.6873e-11 5.16141e-11 5e-05 1.46608e-10 
234 1 0.11344 0.018141 0.00699023 0.0060305 -0.000562428 0.000373206 -5.47995e-12 -9.78092e-11 2.42163e-10 5e-05 1.46608e-10 
235 1 0.107559 0.0186662 0.00688002 0.00630727 3.34681e-05 -0.000353298 -8.82668e-12 -1.04244e-10 -7.6912e-12 5e-05 1.46608e-10 
236 1 0.107693 0.0184507 0.00693591 0.00620401 9.06893e-05 0.000280549 8.37879e-11 5.89583e-11 1.04343e-10 5e-05 1.46608e-10 
237 1 0.107709 0.0185344 0.00688372 0.00644164 0.000203101 0.000526881 3.93958e-11 1.42528e-11 -1.99223e-12 5e-05 1.46608e-10 
239 1 0.101086 0.0165504 0.0076973 0.00560488 7.49372e-05 -0.000154733 -5.92118e-12 2.91432e-12 -3.52099e-12 5e-05 1.46608e-10 
240 1 0.101143 0.0167778 0.00751024 0.00557222 8.09383e-05 -0.000159249 -6.22137e-12 -5.19861e-13 -1.92304e-12 5e-05 1.46608e-10 
241 1 0.101067 0.0164746 0.00775965 0.00557211 8.08819e-05 -0.000158566 -3.96439e-12 -5.29564e-12 4.85299e-12 5e-05 1.46608e-10 
242 1 0.107494 0.0172078 0.00743489 0.00563298 9.84093e-05 0.000494284 -9.81036e-11 7.47605e-11 -4.29664e-11 5e-05 1.46608e-10 
243 1 0.107246 0.0168705 0.00755665 0.00539539 0.00015633 0.000446791 1.22446e-10 -1.99535e-10 9.97663e-11 5e-05 1.46608e-10 
244 1 0.101105 0.0166262 0.00763496 0.00564459 7.06984e-05 -0.00015127 -1.57159e-11 6.05615e-11 -3.57824e-11 5e-05 1.46608e-10 
246 1 0.101218 0.0170835 0.00726338 0.00570194 0.000242935 8.86288e-05 2.50728e-12 5.43255e-12 8.91329e-12 5e-05 1.46608e-10 
247 1 0.10751 0.0180485 0.00707411 0.00613064 0.000131588 0.000526278 4.59604e-11 7.94729e-11 -2.7332e-11 5e-05 1.46608e-10 
248 1 0.107841 0.018327 0.00698565 0.00608928 5.40693e-05 0.000557031 1.75599e-11 -4.32597e-11 2.36453e-11 5e-05 1.46608e-10 