ITEM: TIMESTEP
8000000
ITEM: NUMBER OF ATOMS
287
ITEM: BOX BOUNDS ff ff ff
-0.02 0.43
-0.02 0.06
-0.02 0.07
ITEM: ATOMS id type x y z vx vy vz fx fy fz radius mass 
1 1 0.0594893 0.0165097 0.00796296 0.0058856 9.27212e-05 1.86128e-06 -3.35977e-11 1.74611e-10 -1.44763e-10 5e-05 1.46608e-10 
2 1 0.0598962 0.0172701 0.00720384 0.00597053 0.00026889 -0.000174644 -6.6853e-11 -1.96762e-10 -1.83751e-10 5e-05 1.46608e-10 
3 1 0.053284 0.01603 0.00818534 0.00600841 0.000416487 0.000693782 1.91608e-10 2.43962e-10 -2.96568e-10 5e-05 1.46608e-10 
4 1 0.0598171 0.0177689 0.00717396 0.00531122 0.000369521 -6.45097e-05 -2.01339e-10 -3.72589e-10 5.56336e-11 5e-05 1.46608e-10 
5 1 0.0593744 0.0164229 0.00805849 0.00586929 0.000106518 -1.67596e-05 -1.15899e-10 -5.27262e-11 5.78536e-11 5e-05 1.46608e-10 
6 1 0.0655094 0.0168583 0.00758963 0.00593866 -0.000605269 0.000297817 1.77695e-12 -1.7366e-11 1.22961e-11 5e-05 1.46608e-10 
7 1 0.059563 0.0170393 0.00743081 0.00615356 8.15233e-05 1.68745e-05 1.45778e-10 1.47845e-10 -7.07465e-11 5e-05 1.46608e-10 
8 1 0.0592668 0.0160732 0.00839893 0.00573082 0.000123766 -3.36347e-05 2.94382e-10 3.94883e-12 -2.50544e-11 5e-05 1.46608e-10 
9 1 0.0657653 0.0179549 0.00702521 0.00557053 -0.000558256 0.000223895 1.17975e-10 3.19716e-10 -7.47432e-11 5e-05 1.46608e-10 
10 1 0.0594995 0.0168322 0.00763834 0.00603982 0.000106977 -9.05164e-06 -2.41432e-10 -1.73754e-10 1.03163e-10 5e-05 1.46608e-10 
11 1 0.0599418 0.0174631 0.00717863 0.00593928 0.00029384 -7.38711e-05 9.27077e-11 -2.98505e-10 7.11112e-11 5e-05 1.46608e-10 
12 1 0.0534942 0.0167549 0.00756874 0.00609386 -0.000571733 -8.76003e-05 -1.46173e-11 -1.96357e-10 7.18453e-11 5e-05 1.46608e-10 
13 1 0.0593514 0.0163494 0.00812221 0.00584822 0.000102798 -1.16088e-05 2.26824e-10 1.5522e-10 -1.35024e-10 5e-05 1.46608e-10 
14 1 0.0532025 0.0157963 0.00849955 0.00583786 0.000436912 0.000635828 -1.98664e-10 -6.09659e-11 1.052e-10 5e-05 1.46608e-10 
15 1 0.0596937 0.0172021 0.00726903 0.00590098 0.000159825 -6.40936e-05 1.66206e-10 -1.00403e-10 1.58979e-10 5e-05 1.46608e-10 
16 1 0.0531821 0.0157379 0.00857811 0.00577042 0.000437151 0.000616187 -4.59621e-10 -4.05758e-10 3.35291e-10 5e-05 1.46608e-10 
17 1 0.0594783 0.0167632 0.00770752 0.00603055 0.00010227 -7.82523e-06 -1.1602e-10 -1.68067e-10 1.14944e-10 5e-05 1.46608e-10 
18 1 0.0656519 0.0174198 0.00719691 0.00567618 -0.000552259 0.000264942 -1.29798e-11 -5.91042e-12 -2.24252e-12 5e-05 1.46608e-10 
19 1 0.0593303 0.0162803 0.00819139 0.0058342 0.000110869 -1.60193e-05 1.99616e-10 2.96691e-10 -2.61446e-10 5e-05 1.46608e-10 
21 1 0.0594693 0.0164405 0.00803232 0.00586213 8.7963e-05 6.6071e-06 1.87952e-11 1.8467e-10 -2.16365e-10 5e-05 1.46608e-10 
22 1 0.0595992 0.0171782 0.00729158 0.00589833 0.000120388 -2.74843e-05 -2.08428e-10 8.03502e-11 -8.274e-11 5e-05 1.46608e-10 
23 1 0.0536745 0.0171407 0.0073969 0.00567379 -0.000516041 -8.58885e-05 1.98253e-10 -2.65639e-11 1.0779e-11 5e-05 1.46608e-10 
24 1 0.0657053 0.017661 0.00702677 0.00558307 -0.000547694 0.000226374 6.13891e-11 -5.28329e-11 -2.27621e-11 5e-05 1.46608e-10 
25 1 0.0595419 0.0169703 0.0075 0.0061187 9.13303e-05 6.64721e-06 8.47859e-11 1.96897e-11 2.68616e-11 5e-05 1.46608e-10 
26 1 0.0655956 0.0171784 0.0073657 0.00552854 -0.00052345 0.000249538 -3.51082e-11 -5.28044e-12 7.61336e-12 5e-05 1.46608e-10 
27 1 0.0535795 0.0171134 0.00741343 0.00582763 -0.000548377 -8.02264e-05 9.89016e-11 -6.9281e-11 -4.69444e-12 5e-05 1.46608e-10 
28 1 0.0597972 0.017671 0.00717611 0.00546729 0.000324413 -6.43329e-05 5.89551e-10 -7.19001e-10 4.76231e-11 5e-05 1.46608e-10 
29 1 0.0593091 0.0162113 0.00826057 0.00579992 0.000124156 -2.95959e-05 -3.01921e-10 1.20959e-10 -1.73658e-10 5e-05 1.46608e-10 
30 1 0.0598314 0.0174086 0.00718091 0.00593046 0.000228598 -7.53486e-05 1.07377e-10 6.94206e-11 1.30565e-10 5e-05 1.46608e-10 
31 1 0.0595819 0.0171087 0.0073613 0.00596066 0.000108945 -1.3613e-05 -2.2328e-10 1.26498e-10 -1.35055e-10 5e-05 1.46608e-10 
32 1 0.0596764 0.0171326 0.00733879 0.00594128 0.000144248 -4.81381e-05 -1.27031e-10 -1.21318e-10 6.48623e-11 5e-05 1.46608e-10 
33 1 0.0655311 0.0169383 0.00753366 0.00594906 -0.000606336 0.000298373 -1.63477e-11 -2.94493e-11 2.18089e-11 5e-05 1.46608e-10 
34 1 0.0594572 0.0166942 0.00777669 0.00601042 0.000107064 -1.1966e-05 1.32967e-10 -5.51581e-12 6.47738e-11 5e-05 1.46608e-10 
35 1 0.0596576 0.0170632 0.00740831 0.0059932 0.000130636 -3.56101e-05 -3.2292e-10 -1.11096e-11 -8.07225e-12 5e-05 1.46608e-10 
36 1 0.0658046 0.018151 0.00702769 0.0053684 -0.000478232 -0.000253047 -5.19075e-10 -1.61543e-10 6.21302e-10 5e-05 1.46608e-10 
37 1 0.0596168 0.0169242 0.00754763 0.0061517 0.00011344 -1.61789e-05 2.57739e-11 -2.39188e-10 2.36365e-10 5e-05 1.46608e-10 
38 1 0.0597706 0.0171576 0.00731508 0.00588406 0.00016206 -6.77889e-05 -2.91546e-11 -1.67487e-10 1.55138e-10 5e-05 1.46608e-10 
39 1 0.0657255 0.0177589 0.00702626 0.00557688 -0.000552139 0.000225455 -5.5618e-12 -2.29254e-10 -2.5949e-11 5e-05 1.46608e-10 
41 1 0.0594148 0.0165561 0.00791505 0.00592173 0.000110359 -1.63644e-05 -4.51388e-11 -1.2971e-10 9.958e-11 5e-05 1.46608e-10 
42 1 0.0596154 0.0172479 0.00722165 0.00582233 0.000143647 -3.58207e-05 5.35098e-11 4.19521e-11 -1.30438e-10 5e-05 1.46608e-10 
44 1 0.0597894 0.0172269 0.00724554 0.00586952 0.000158466 -6.86982e-05 2.47043e-10 -1.23969e-10 1.76414e-10 5e-05 1.46608e-10 
45 1 0.0655528 0.0170183 0.00747769 0.00595821 -0.000607439 0.000298946 -5.7408e-11 -2.86628e-11 2.03316e-11 5e-05 1.46608e-10 
46 1 0.0656355 0.017339 0.00725339 0.00564299 -0.000544701 0.000261579 2.22099e-11 -4.49375e-11 3.76075e-12 5e-05 1.46608e-10 
47 1 0.059436 0.0166251 0.00784587 0.00597059 0.000110571 -1.52676e-05 -2.26857e-10 -1.28309e-10 1.19884e-10 5e-05 1.46608e-10 
48 1 0.0596559 0.0174363 0.00718229 0.00588022 0.00016731 -6.68218e-05 3.49643e-11 2.35478e-11 7.60392e-11 5e-05 1.46608e-10 
49 1 0.0656158 0.0172586 0.00730957 0.00556979 -0.000529947 0.000253364 1.11872e-11 -2.37474e-11 1.04102e-11 5e-05 1.46608e-10 
50 1 0.0597165 0.0177301 0.00717583 0.00529732 0.000288177 -6.50832e-05 -4.83858e-10 3.40559e-10 1.97771e-13 5e-05 1.46608e-10 
51 1 0.0596964 0.0176321 0.00717798 0.00560034 0.000225979 -6.16965e-05 -2.31981e-11 1.65426e-10 6.01393e-13 5e-05 1.46608e-10 
52 1 0.0534725 0.0166653 0.00760755 0.00610731 -0.000578381 -8.64655e-05 1.84121e-11 -1.16441e-10 8.507e-11 5e-05 1.46608e-10 
53 1 0.0656721 0.0175 0.00714068 0.00564183 -0.000563304 0.000229552 1.29476e-11 1.03188e-10 -3.26943e-12 5e-05 1.46608e-10 
54 1 0.0594485 0.0163714 0.00810157 0.00585554 0.000100879 -6.32977e-06 1.55586e-11 1.55838e-10 -1.97944e-10 5e-05 1.46608e-10 
55 1 0.0532432 0.0159132 0.00834245 0.00591617 0.000412945 0.000667098 1.34939e-10 1.07712e-10 -2.35055e-11 5e-05 1.46608e-10 
56 1 0.0596385 0.0169938 0.00747793 0.0061443 7.12304e-05 2.58121e-05 6.01567e-11 -2.83863e-11 1.44725e-11 5e-05 1.46608e-10 
57 1 0.0655745 0.0170983 0.00742172 0.0059706 -0.000609114 0.000299666 8.38984e-11 -1.71772e-13 5.90903e-12 5e-05 1.46608e-10 
59 1 0.0596941 0.0168801 0.00759323 0.00624765 0.000197897 -9.78739e-05 7.88666e-11 -3.08976e-10 3.00384e-10 5e-05 1.46608e-10 
60 1 0.0597154 0.0169494 0.00752388 0.0061775 9.87399e-05 7.64951e-07 -1.07585e-11 -1.56182e-10 1.60116e-10 5e-05 1.46608e-10 
61 1 0.0593937 0.0164871 0.00798423 0.00590695 0.000107165 -1.4573e-05 -4.68077e-11 -9.85488e-11 1.00276e-10 5e-05 1.46608e-10 
62 1 0.0598044 0.0173038 0.00718327 0.00590356 0.000161212 -7.0976e-05 -1.33502e-11 8.46649e-11 9.36984e-11 5e-05 1.46608e-10 
63 1 0.0597568 0.0174751 0.00718041 0.00588617 0.000202472 -6.3236e-05 -1.53745e-10 -6.02633e-11 -1.00757e-11 5e-05 1.46608e-10 
64 1 0.0656885 0.0175813 0.00708475 0.00559182 -0.000551329 0.000224799 6.61097e-11 8.75816e-11 3.89464e-12 5e-05 1.46608e-10 
65 1 0.0535899 0.0167817 0.00755235 0.00609804 -0.000540304 -9.88746e-05 5.13005e-11 -2.56741e-10 9.13087e-11 5e-05 1.46608e-10 
66 1 0.0535255 0.0165129 0.00766896 0.00615553 -0.000568399 -8.62693e-05 -2.17241e-10 -7.08763e-11 2.15986e-10 5e-05 1.46608e-10 
67 1 0.0599214 0.0173658 0.00719001 0.0059772 0.000270829 -0.000116457 9.73356e-11 -2.24214e-10 -2.67937e-10 5e-05 1.46608e-10 
68 1 0.0598719 0.0176045 0.0071766 0.00564667 0.000285751 -6.55303e-05 3.30834e-10 -4.84489e-10 4.89806e-11 5e-05 1.46608e-10 
69 1 0.0595531 0.016717 0.00775526 0.00603323 0.000104332 -7.04532e-06 8.38725e-11 9.35716e-11 -1.13246e-10 5e-05 1.46608e-10 
70 1 0.0657455 0.0178569 0.00702573 0.0055589 -0.000559255 0.000225687 -1.22409e-10 -4.9005e-11 -3.42297e-12 5e-05 1.46608e-10 
71 1 0.0532229 0.0158548 0.008421 0.0058695 0.00041587 0.000651385 5.57266e-10 3.1127e-10 6.52092e-11 5e-05 1.46608e-10 
72 1 0.0598517 0.0175065 0.00717876 0.00591725 0.0002483 -6.93428e-05 -1.68331e-10 -6.53019e-11 5.59673e-12 5e-05 1.46608e-10 
73 1 0.0595207 0.0169013 0.00756917 0.00606467 0.000104412 -5.36028e-06 5.56966e-11 -5.27312e-11 6.10399e-11 5e-05 1.46608e-10 
74 1 0.0597143 0.0172899 0.00722596 0.00589318 0.000171155 -7.62306e-05 2.19288e-10 -4.86006e-11 1.41026e-10 5e-05 1.46608e-10 
76 1 0.0538136 0.0177713 0.00712437 0.00556093 -0.000452198 -0.00010535 -1.39903e-10 3.32292e-11 2.13558e-12 5e-05 1.46608e-10 
77 1 0.0599603 0.0184539 0.00715888 0.0056103 0.000247499 -6.64238e-05 -7.91023e-11 -2.15481e-10 5.83282e-12 5e-05 1.46608e-10 
78 1 0.0533044 0.0160885 0.00810673 0.00604368 0.000415604 0.000702566 1.96522e-10 2.09337e-10 -1.71932e-10 5e-05 1.46608e-10 
79 1 0.0535154 0.0168445 0.00752991 0.00607206 -0.00056683 -8.69552e-05 3.34122e-11 -1.82331e-10 6.09152e-11 5e-05 1.46608e-10 
80 1 0.0597761 0.018024 0.00716938 0.00529028 0.000312963 -6.38868e-05 -4.45758e-10 -3.61175e-11 4.17534e-12 5e-05 1.46608e-10 
81 1 0.053451 0.0165757 0.00764637 0.00612829 -0.000586202 -7.98948e-05 -2.43139e-11 -2.55652e-11 8.0983e-11 5e-05 1.46608e-10 
82 1 0.0535998 0.0172033 0.00737456 0.00566357 -0.000520525 -8.49422e-05 7.82465e-11 -3.46052e-11 1.72481e-11 5e-05 1.46608e-10 
83 1 0.0535774 0.0163745 0.00775912 0.00622416 0.000298477 0.00090521 2.00193e-12 8.24485e-11 -1.17279e-10 5e-05 1.46608e-10 
84 1 0.0657852 0.0180529 0.00702468 0.00542901 -0.000513434 0.000229688 1.86889e-10 4.07621e-10 -3.61561e-10 5e-05 1.46608e-10 
85 1 0.053399 0.0161159 0.00808811 0.00603736 0.000402751 0.000710787 3.08657e-10 1.16456e-10 -8.52043e-11 5e-05 1.46608e-10 
86 1 0.059777 0.017573 0.00717826 0.0057307 0.000232343 -6.05601e-05 -6.1549e-11 -2.98543e-10 -2.32642e-11 5e-05 1.46608e-10 
87 1 0.0596729 0.0168111 0.0076624 0.00613897 0.000193235 -9.55869e-05 1.44448e-10 5.17055e-11 -5.44004e-11 5e-05 1.46608e-10 
88 1 0.0598376 0.0183176 0.00716291 0.00553793 0.000209692 -6.52056e-05 6.68311e-11 -3.63316e-11 8.15865e-13 5e-05 1.46608e-10 
89 1 0.0597957 0.0181221 0.00716723 0.00542149 0.000275223 -6.46614e-05 -9.1124e-11 -3.03058e-10 3.86258e-12 5e-05 1.46608e-10 
90 1 0.0598828 0.0172001 0.00727405 0.00588101 0.000273516 -0.000181643 1.16614e-10 3.97524e-11 -1.06989e-10 5e-05 1.46608e-10 
91 1 0.0535369 0.0169341 0.00749109 0.00605546 -0.000571977 -8.15539e-05 7.41475e-11 -1.53923e-10 5.72504e-11 5e-05 1.46608e-10 
92 1 0.059912 0.0178004 0.0071723 0.00533104 0.000367047 -6.81805e-05 -4.09309e-10 -1.2998e-10 2.74996e-11 5e-05 1.46608e-10 
93 1 0.0598972 0.0181607 0.00716535 0.00553361 0.000310368 -6.69531e-05 -1.97516e-10 -1.6534e-10 2.19759e-12 5e-05 1.46608e-10 
94 1 0.0599724 0.0180942 0.00716584 0.00544096 0.000306935 -6.6127e-05 3.94773e-10 -2.05661e-10 6.27123e-12 5e-05 1.46608e-10 
95 1 0.0597564 0.017926 0.00717153 0.00556851 0.000279094 -6.73626e-05 -1.56485e-10 5.27181e-11 4.43529e-11 5e-05 1.46608e-10 
96 1 0.059932 0.0178983 0.00717015 0.00524883 0.000375207 -6.42398e-05 -4.61562e-10 2.16602e-10 -3.63302e-11 5e-05 1.46608e-10 
97 1 0.0534081 0.0163964 0.00772402 0.00616721 -0.000577804 -8.67882e-05 3.45763e-11 1.3844e-10 -5.72228e-11 5e-05 1.46608e-10 
98 1 0.0598587 0.0184153 0.00716075 0.00555434 0.000171569 -6.34635e-05 3.11436e-11 5.68663e-11 -3.40806e-12 5e-05 1.46608e-10 
99 1 0.0535687 0.016692 0.00759118 0.00610926 -0.00055253 -9.6347e-05 8.36945e-11 -2.57133e-10 1.06152e-10 5e-05 1.46608e-10 
100 1 0.0598453 0.0170614 0.00741314 0.0059777 0.000234793 -0.000139535 -2.4401e-10 1.69263e-10 -1.22358e-10 5e-05 1.46608e-10 
101 1 0.0535045 0.0164263 0.00771429 0.00620269 -0.000593067 -9.65367e-05 -1.08696e-10 -5.31875e-11 1.39848e-10 5e-05 1.46608e-10 
102 1 0.0643568 0.0187248 0.00531097 4.15673e-15 1.05769e-14 8.29558e-14 5.1713e-22 -2.26492e-22 -2.06795e-25 5e-05 1.46608e-10 
103 1 0.24257 0.0191927 0.00520306 -3.50766e-23 4.86658e-23 1.23839e-22 0 0 0 5e-05 1.46608e-10 
104 1 0.0538298 0.0174378 0.0072637 0.00577821 -0.000494707 -0.000100892 2.29068e-10 -2.21375e-11 -1.56995e-12 5e-05 1.46608e-10 
105 1 0.0533676 0.0162916 0.00789723 0.00615627 0.000476612 0.000743717 -4.29611e-11 1.46678e-10 6.41321e-11 5e-05 1.46608e-10 
106 1 0.0539047 0.0173754 0.00728592 0.0058176 -0.000486754 -0.000106644 2.52307e-10 -1.83283e-10 6.11175e-11 5e-05 1.46608e-10 
107 1 0.0533248 0.0161469 0.00802818 0.00609184 0.000416498 0.000700755 2.97861e-11 1.11404e-10 -2.66142e-10 5e-05 1.46608e-10 
108 1 0.0595954 0.0168551 0.0076169 0.00602496 8.70791e-05 9.46192e-06 2.59157e-10 1.35234e-10 -1.24429e-10 5e-05 1.46608e-10 
109 1 0.0596761 0.0175342 0.00718017 0.00585628 0.000178908 -4.2162e-05 -9.06271e-11 -7.35544e-11 -1.44823e-10 5e-05 1.46608e-10 
110 1 0.0600221 0.0178548 0.00717002 0.00535935 0.000442613 -6.7403e-05 -4.61153e-10 4.70278e-10 -1.38891e-11 5e-05 1.46608e-10 
111 1 0.0599008 0.0186109 0.00715643 0.00564035 0.0002172 -6.62184e-05 5.59814e-11 1.12474e-10 -1.85746e-13 5e-05 1.46608e-10 
112 1 0.0534295 0.0164861 0.0076852 0.00614894 -0.00056309 -9.23039e-05 2.57991e-11 1.4101e-10 -4.92395e-11 5e-05 1.46608e-10 
113 1 0.054188 0.0178156 0.00708569 0.00552164 -0.000325918 -0.000152497 2.04919e-10 -1.50092e-10 -2.48105e-11 5e-05 1.46608e-10 
114 1 0.0537693 0.017168 0.00738035 0.00567883 -0.000469993 -0.000107545 -2.8947e-10 1.16025e-10 -2.00949e-12 5e-05 1.46608e-10 
115 1 0.0597365 0.0173772 0.00718258 0.00591155 0.000182717 -7.56876e-05 9.6925e-11 9.84104e-11 6.88525e-11 5e-05 1.46608e-10 
116 1 0.0595742 0.016786 0.00768608 0.00601782 9.64792e-05 8.7353e-07 1.24986e-10 1.52691e-10 -9.67783e-11 5e-05 1.46608e-10 
117 1 0.0594255 0.0163026 0.00817045 0.00583025 0.00010432 -1.15509e-05 3.47696e-10 1.42738e-10 -1.36063e-10 5e-05 1.46608e-10 
118 1 0.0532636 0.0159716 0.0082639 0.00598639 0.000414694 0.00068648 -2.84481e-10 1.65924e-10 -2.59785e-10 5e-05 1.46608e-10 
119 1 0.0597344 0.0170187 0.00745436 0.00602738 0.000154826 -5.73758e-05 -5.43322e-10 -1.91368e-10 2.06318e-10 5e-05 1.46608e-10 
120 1 0.0592879 0.0161423 0.00832975 0.00574922 0.000127175 -3.64958e-05 -2.26474e-10 -2.65138e-11 -6.65155e-11 5e-05 1.46608e-10 
121 1 0.0592456 0.0160042 0.00846811 0.00571351 0.000127704 -3.65082e-05 4.91663e-11 7.25675e-11 -5.32392e-11 5e-05 1.46608e-10 
122 1 0.0600421 0.0179528 0.00716787 0.00529655 0.000445751 -6.70843e-05 2.00018e-11 3.87402e-10 -9.47811e-12 5e-05 1.46608e-10 
123 1 0.0534408 0.0162326 0.00793136 0.00615921 0.000433214 0.000726039 -3.12681e-11 2.10254e-11 -3.85541e-11 5e-05 1.46608e-10 
124 1 0.0598568 0.0179649 0.00716966 0.00552876 0.000322841 -6.65615e-05 2.95785e-10 -2.83632e-10 -7.54867e-12 5e-05 1.46608e-10 
125 1 0.0594044 0.0162336 0.00823963 0.00580143 9.18825e-05 1.41909e-06 1.05995e-10 2.01348e-11 4.41937e-11 5e-05 1.46608e-10 
126 1 0.0596356 0.0173385 0.00718444 0.00589743 0.000134012 -7.91581e-05 1.57909e-10 2.04423e-10 3.34332e-11 5e-05 1.46608e-10 
127 1 0.0533864 0.0163237 0.00779056 0.00601583 -0.000168085 0.00150222 1.93769e-11 -2.54375e-11 6.07506e-11 5e-05 1.46608e-10 
128 1 0.0597365 0.017828 0.00717368 0.0053114 0.000315098 -6.52827e-05 -9.16358e-10 4.31501e-10 6.83449e-11 5e-05 1.46608e-10 
129 1 0.0598166 0.0182198 0.00716507 0.0055061 0.000234405 -6.45664e-05 4.9701e-11 1.6373e-10 -2.66399e-12 5e-05 1.46608e-10 
130 1 0.0536946 0.0172306 0.00735802 0.00565514 -0.000510933 -8.86626e-05 -1.66097e-11 2.35677e-10 -1.32649e-11 5e-05 1.46608e-10 
131 1 0.0535469 0.0166024 0.00762999 0.0061274 -0.000558481 -9.23494e-05 1.30868e-11 -1.68929e-10 1.47132e-10 5e-05 1.46608e-10 
132 1 0.0598371 0.0178669 0.00717181 0.00558797 0.00031186 -6.78785e-05 -3.69762e-10 -1.4799e-10 -4.79795e-12 5e-05 1.46608e-10 
133 1 0.0595882 0.016535 0.00793913 0.00598877 0.000145543 -4.98833e-05 1.45493e-10 1.42165e-10 -1.42561e-10 5e-05 1.46608e-10 
134 1 0.0597532 0.0170881 0.00738482 0.00595213 0.000164274 -6.73399e-05 -2.99617e-10 -1.34106e-10 9.8534e-11 5e-05 1.46608e-10 
135 1 0.0593832 0.0161646 0.00830881 0.00576533 9.35276e-05 5.40759e-07 -4.70025e-11 6.29937e-11 -7.16307e-11 5e-05 1.46608e-10 
136 1 0.0533783 0.0160574 0.00816659 0.00600524 0.000406651 0.000707043 4.16032e-10 1.06607e-10 -5.19895e-11 5e-05 1.46608e-10 
137 1 0.0599218 0.0187086 0.00715428 0.00567891 0.000192986 -6.58675e-05 6.82203e-11 2.71969e-10 -6.54593e-12 5e-05 1.46608e-10 
138 1 0.0595319 0.016648 0.00782444 0.00601342 0.000117168 -2.1347e-05 2.833e-10 3.8398e-11 -4.53032e-11 5e-05 1.46608e-10 
140 1 0.0600675 0.0181251 0.00716419 0.00546312 0.000214406 -6.40857e-05 2.36461e-10 -1.47017e-10 -3.75256e-12 5e-05 1.46608e-10 
141 1 0.0534235 0.0161741 0.00801062 0.00611161 0.000409327 0.00072474 1.13313e-10 1.2108e-10 -5.85735e-11 5e-05 1.46608e-10 
142 1 0.0537894 0.0172579 0.00734148 0.00571272 -0.000543267 -7.79634e-05 -3.32193e-10 3.59583e-10 -9.68562e-11 5e-05 1.46608e-10 
143 1 0.0533469 0.0162223 0.00796634 0.00610446 0.00042808 0.000696745 1.15346e-10 1.77469e-10 -8.10796e-11 5e-05 1.46608e-10 
144 1 0.053749 0.0170779 0.00741931 0.00583842 -0.000345873 -0.000166469 3.11124e-10 -4.76613e-12 -3.1908e-11 5e-05 1.46608e-10 
146 1 0.0535995 0.0164495 0.00769148 0.00619835 -0.000524988 -0.000109286 5.84608e-11 1.16307e-10 1.6238e-11 5e-05 1.46608e-10 
147 1 0.0533579 0.015999 0.00824514 0.00601186 0.000396558 0.000720987 1.66979e-10 4.68144e-12 -3.75346e-11 5e-05 1.46608e-10 
148 1 0.0536602 0.017473 0.00725795 0.00570674 -0.000541196 -7.67712e-05 4.51393e-12 -4.36548e-11 3.41504e-11 5e-05 1.46608e-10 
149 1 0.059993 0.018192 0.00716369 0.00556324 0.000276422 -6.63592e-05 1.9333e-10 -2.28762e-10 -5.73294e-13 5e-05 1.46608e-10 
150 1 0.0536427 0.0166288 0.0076138 0.00613803 -0.000524553 -0.000108333 2.96472e-10 -1.38474e-10 4.44288e-11 5e-05 1.46608e-10 
151 1 0.0539851 0.0173192 0.00730523 0.00582521 -0.000501483 -0.000100684 3.06633e-10 -2.96105e-10 1.09297e-10 5e-05 1.46608e-10 
153 1 0.0534801 0.0163579 0.00778311 0.0059461 -0.000326211 8.23677e-05 1.67453e-10 -3.07387e-10 -7.20426e-12 5e-05 1.46608e-10 
154 1 0.053755 0.0175003 0.00724139 0.00571811 -0.00051868 -8.75933e-05 1.24324e-10 7.64457e-11 -4.4148e-11 5e-05 1.46608e-10 
155 1 0.0538326 0.0178614 0.00708546 0.00551257 -0.00044491 -0.000100577 4.65563e-11 1.20277e-11 1.46265e-11 5e-05 1.46608e-10 
156 1 0.0537349 0.0174104 0.00728028 0.00574255 -0.000533285 -8.35638e-05 2.51279e-10 1.82019e-10 -8.25089e-11 5e-05 1.46608e-10 
157 1 0.0219312 0.0187687 0.00551176 -3.82777e-14 8.16915e-14 2.95888e-13 -1.2301e-21 -7.56043e-22 4.40474e-23 5e-05 1.46608e-10 
158 1 0.0538498 0.0175277 0.00722481 0.00567469 -0.000414367 -0.000129328 3.45655e-11 -1.35888e-10 6.35177e-11 5e-05 1.46608e-10 
159 1 0.0598921 0.0177024 0.00717445 0.00547107 0.000340852 -6.42956e-05 3.37927e-10 -9.13952e-10 1.68679e-10 5e-05 1.46608e-10 
160 1 0.0537381 0.0178332 0.00710238 0.0055257 -0.000489459 -8.9752e-05 -8.71563e-12 4.32365e-11 -4.89778e-11 5e-05 1.46608e-10 
162 1 0.053775 0.0175904 0.00720244 0.00565607 -0.000466222 -0.000106402 -8.32079e-11 1.48162e-10 -5.31222e-11 5e-05 1.46608e-10 
164 1 0.0539857 0.018176 0.00700987 0.00552505 -0.000321019 0.000500748 -1.5125e-10 5.19966e-11 -3.56087e-11 5e-05 1.46608e-10 
165 1 0.05406 0.0176743 0.00715195 0.00557341 -0.000387846 -0.000134833 -6.04132e-11 -1.42654e-10 3.63395e-11 5e-05 1.46608e-10 
166 1 0.0595469 0.0163967 0.00807766 0.00619842 0.000392526 -0.000295589 6.79936e-11 2.48025e-10 -2.35048e-10 5e-05 1.46608e-10 
167 1 0.053621 0.0165392 0.00765262 0.00616486 -0.000521377 -0.00011085 1.98803e-10 7.90349e-11 -2.3848e-11 5e-05 1.46608e-10 
168 1 0.0539247 0.0174654 0.00724702 0.00568019 -0.000394172 -0.000138066 2.04946e-11 -7.81787e-11 2.97252e-11 5e-05 1.46608e-10 
169 1 0.0541161 0.0179458 0.0070348 0.00547824 -0.000370722 -0.000142286 -2.17692e-10 9.75642e-11 -1.09786e-10 5e-05 1.46608e-10 
170 1 0.0539648 0.0176456 0.00716913 0.00561466 -0.000387699 -0.000137003 9.70921e-11 -5.50142e-11 7.31399e-12 5e-05 1.46608e-10 
171 1 0.059567 0.0164659 0.00800831 0.00621847 0.000398942 -0.000301944 -1.40565e-11 5.50444e-11 -6.08722e-11 5e-05 1.46608e-10 
172 1 0.0540407 0.0175842 0.00719086 0.00561063 -0.000388699 -0.000136665 1.23018e-10 -1.03057e-10 4.49727e-11 5e-05 1.46608e-10 
173 1 0.0599906 0.0172942 0.00718142 0.00599321 0.000275837 -7.66766e-05 -7.5268e-11 -2.64714e-10 8.13636e-11 5e-05 1.46608e-10 
174 1 0.0538896 0.0177076 0.00714705 0.00558404 -0.000420376 -0.000123043 7.74888e-11 4.65302e-11 -3.47976e-11 5e-05 1.46608e-10 
175 1 0.0475894 0.0171631 0.00740615 0.00598789 0.0014076 -0.00096724 -2.36467e-10 -2.45103e-10 9.643e-11 5e-05 1.46608e-10 
176 1 0.0537147 0.0173205 0.00731915 0.00569856 -0.00052933 -8.37614e-05 -1.95563e-10 2.64695e-10 -1.1899e-10 5e-05 1.46608e-10 
177 1 0.0537757 0.0180136 0.00702468 0.00544624 -0.00045146 -6.59273e-05 -4.97011e-11 -1.0666e-10 -2.44792e-10 5e-05 1.46608e-10 
178 1 0.0541699 0.0177244 0.00712502 0.00556917 -0.000319466 -0.000160748 8.04784e-11 -9.49383e-11 -3.08505e-11 5e-05 1.46608e-10 
179 1 0.0540972 0.0178557 0.00707371 0.00550443 -0.000371504 -0.000144318 -8.00943e-11 3.17521e-11 -1.06426e-10 5e-05 1.46608e-10 
181 1 0.0537001 0.0176529 0.0071802 0.0056192 -0.000512065 -8.58282e-05 -3.2906e-11 8.68506e-11 -1.98823e-11 5e-05 1.46608e-10 
182 1 0.0595107 0.0165789 0.00789362 0.0059622 0.000115036 -1.99563e-05 -1.48435e-10 -2.8768e-12 9.60521e-12 5e-05 1.46608e-10 
183 1 0.0539447 0.0175553 0.00720815 0.0056606 -0.000381676 -0.000142484 -1.08125e-10 3.94531e-11 -3.52968e-12 5e-05 1.46608e-10 
184 1 0.0598408 0.0177207 0.00725833 0.00532855 0.000271913 -0.000121507 -1.55333e-10 -2.02886e-10 -8.17963e-11 5e-05 1.46608e-10 
185 1 0.0536399 0.0173831 0.00729682 0.00567506 -0.000527514 -8.10991e-05 2.34707e-10 -7.35004e-11 1.79299e-11 5e-05 1.46608e-10 
186 1 0.0536803 0.0175629 0.00721908 0.00568025 -0.000526956 -8.2275e-05 5.3946e-11 -2.31234e-12 -2.22791e-11 5e-05 1.46608e-10 
187 1 0.0598268 0.016992 0.00748272 0.00608937 0.000208995 -0.000113062 -1.79426e-10 9.19387e-11 -8.28758e-11 5e-05 1.46608e-10 
188 1 0.0599183 0.0182585 0.00716319 0.00555771 0.000261095 -6.59286e-05 1.31904e-10 -2.07614e-10 -8.2402e-12 5e-05 1.46608e-10 
189 1 0.0598631 0.0171309 0.00734345 0.0058861 0.000262532 -0.000168425 -1.50017e-10 1.84063e-10 -2.15842e-10 5e-05 1.46608e-10 
190 1 0.0476906 0.017199 0.00738707 0.00602262 0.00144756 -0.000974698 -3.90116e-11 -1.57321e-10 -2.56416e-11 5e-05 1.46608e-10 
191 1 0.0599429 0.0188063 0.00715212 0.00569611 0.000165267 -6.59018e-05 1.50575e-10 2.58494e-10 -7.24175e-12 5e-05 1.46608e-10 
192 1 0.0538641 0.0171952 0.00736382 0.00577595 -0.000499944 -9.88355e-05 -4.47668e-10 3.45877e-10 -1.37857e-10 5e-05 1.46608e-10 
193 1 0.0596517 0.0167421 0.00773159 0.00602815 0.00011413 -1.74029e-05 -3.07685e-11 -4.31159e-11 4.71458e-11 5e-05 1.46608e-10 
194 1 0.0536854 0.0168081 0.00753614 0.00611604 -0.000489188 -0.000121548 1.57525e-10 6.1709e-11 -3.6384e-11 5e-05 1.46608e-10 
195 1 0.0540795 0.0177653 0.00711267 0.00552929 -0.000395289 -0.000135251 -2.80894e-11 1.92412e-11 -2.2374e-11 5e-05 1.46608e-10 
196 1 0.0531617 0.0156795 0.00865666 0.00572385 0.000429453 0.000606934 4.38319e-11 -4.79738e-10 6.54105e-10 5e-05 1.46608e-10 
197 1 0.0476511 0.0174476 0.00733395 0.00599573 0.00146594 -0.000972297 7.23953e-11 -7.00059e-11 1.22176e-10 5e-05 1.46608e-10 
198 1 0.0535583 0.0170238 0.00745226 0.00599867 -0.000576671 -7.42295e-05 2.36162e-11 -7.00841e-11 2.4268e-11 5e-05 1.46608e-10 
199 1 0.0537947 0.0176807 0.00716343 0.00560391 -0.000469759 -0.000102147 4.1135e-11 7.66442e-11 -5.07753e-11 5e-05 1.46608e-10 
200 1 0.0536542 0.0170508 0.00743576 0.00580303 -0.000537474 -8.3553e-05 1.79123e-10 -1.47933e-10 3.48921e-11 5e-05 1.46608e-10 
201 1 0.0540801 0.0182076 0.00701951 0.00553802 -0.000358699 0.000502658 -5.99132e-11 -8.75377e-11 -2.23387e-11 5e-05 1.46608e-10 
202 1 0.0538844 0.0172853 0.00732488 0.00575506 -0.000566131 -6.89703e-05 5.0879e-11 -1.63694e-10 6.6487e-11 5e-05 1.46608e-10 
203 1 0.0600367 0.0174945 0.00717697 0.0058863 0.000462136 -7.49291e-05 2.25587e-10 -1.61045e-10 -6.55969e-11 5e-05 1.46608e-10 
204 1 0.0536328 0.0169609 0.0074747 0.006041 -0.000519023 -0.00010467 2.10904e-10 -5.31673e-11 1.08087e-11 5e-05 1.46608e-10 
205 1 0.0539466 0.0179835 0.00704533 0.00549637 -0.000360217 0.00012029 -4.06159e-11 1.16052e-10 1.02571e-10 5e-05 1.46608e-10 
206 1 0.0539089 0.0177977 0.00710815 0.00553406 -0.000422377 -0.000121474 9.69859e-11 8.04248e-11 -8.95387e-12 5e-05 1.46608e-10 
207 1 0.0534617 0.0163056 0.0078663 0.00612354 0.000222775 0.000472852 2.11192e-11 -3.65134e-10 -1.42768e-10 5e-05 1.46608e-10 
208 1 0.0538698 0.0176177 0.00718593 0.00563124 -0.000415192 -0.000126103 -1.04887e-12 2.20233e-11 -1.69784e-11 5e-05 1.46608e-10 
209 1 0.053664 0.0167184 0.00757497 0.00611412 -0.000507266 -0.000114154 2.95416e-10 -1.60289e-10 5.04721e-11 5e-05 1.46608e-10 
210 1 0.0596781 0.0173825 0.00726355 0.00589377 0.000132 -8.17939e-05 8.0229e-12 1.90187e-10 1.29723e-10 5e-05 1.46608e-10 
211 1 0.0599521 0.0179963 0.007168 0.00525688 0.000356102 -6.39467e-05 7.4084e-11 1.00941e-10 1.59018e-11 5e-05 1.46608e-10 
212 1 0.0539843 0.0177358 0.00713014 0.00556069 -0.000397283 -0.000132976 6.57584e-11 7.31046e-11 -1.40074e-11 5e-05 1.46608e-10 
213 1 0.0598076 0.0169227 0.00755219 0.00623374 0.000186895 -8.71376e-05 3.30738e-12 -9.11382e-11 7.86551e-11 5e-05 1.46608e-10 
214 1 0.0598766 0.0180629 0.00716751 0.00551299 0.000320547 -6.66652e-05 1.49285e-10 -2.35474e-10 1.68452e-11 5e-05 1.46608e-10 
215 1 0.0476634 0.0170963 0.00741365 0.005984 0.00139417 -0.000962201 -1.11406e-10 -1.09222e-10 -3.5436e-11 5e-05 1.46608e-10 
216 1 0.0537571 0.0179233 0.00706347 0.00547211 -0.000480908 -9.67752e-05 1.92959e-13 9.8429e-12 -5.50501e-11 5e-05 1.46608e-10 
217 1 0.0596093 0.016604 0.00786995 0.00602552 0.000132988 -3.65319e-05 -2.77613e-11 7.21857e-11 -6.81217e-11 5e-05 1.46608e-10 
218 1 0.0538707 0.0180417 0.00700764 0.00542654 -0.000445546 -0.00010993 -1.72253e-10 2.93742e-10 1.72021e-10 5e-05 1.46608e-10 
219 1 0.0598797 0.0185131 0.00715859 0.00561339 0.000236686 -6.59519e-05 9.81622e-12 1.16197e-11 -8.4209e-13 5e-05 1.46608e-10 
220 1 0.0537191 0.017743 0.00714129 0.00557618 -0.000500955 -8.72116e-05 -1.21238e-10 9.25848e-11 -2.17636e-11 5e-05 1.46608e-10 
221 1 0.0475593 0.0166452 0.00759933 0.00651717 0.00145734 -0.000765334 -8.44076e-11 3.06242e-10 -2.9085e-10 5e-05 1.46608e-10 
222 1 0.0596305 0.016673 0.00780077 0.00604745 0.000119114 -2.25194e-05 -2.1925e-11 -3.94516e-12 -4.98617e-12 5e-05 1.46608e-10 
223 1 0.0538096 0.0173478 0.00730261 0.00573534 -0.000565662 -6.96506e-05 -7.68768e-11 -1.59373e-10 5.98503e-11 5e-05 1.46608e-10 
224 1 0.0536198 0.0172932 0.00733569 0.00560784 -0.000510608 -8.53182e-05 2.39119e-10 -3.61974e-11 -2.61956e-12 5e-05 1.46608e-10 
225 1 0.059962 0.017561 0.00717647 0.0057804 0.000345916 -7.13959e-05 3.36086e-10 -2.75001e-10 -3.31086e-11 5e-05 1.46608e-10 
226 1 0.0540088 0.0174141 0.00726409 0.0056819 -0.000388149 -0.000140659 6.42415e-11 6.55073e-11 -3.19785e-11 5e-05 1.46608e-10 
227 1 0.0476694 0.0167419 0.00751228 0.00629578 0.00196041 -0.00132707 -3.12158e-10 2.0752e-10 -4.58743e-10 5e-05 1.46608e-10 
228 1 0.0476099 0.0172579 0.00738208 0.00600537 0.00141906 -0.000968041 -5.05314e-11 7.68735e-12 -9.66311e-11 5e-05 1.46608e-10 
229 1 0.0536632 0.0172972 0.00742568 0.00571721 -0.000436499 -0.000142441 -1.93339e-10 1.40929e-10 6.03394e-11 5e-05 1.46608e-10 
230 1 0.0540246 0.0183719 0.00701911 0.00549483 -0.000323004 0.000499013 -2.57835e-11 -4.8374e-11 1.10279e-12 5e-05 1.46608e-10 
231 1 0.0475688 0.0170682 0.00743022 0.00598481 0.00141129 -0.000967978 1.20392e-10 -2.3883e-10 2.31988e-10 5e-05 1.46608e-10 
232 1 0.0535569 0.0163161 0.00783766 0.00622982 0.000293319 0.000907689 6.26212e-11 7.82963e-11 -7.2868e-11 5e-05 1.46608e-10 
233 1 0.053707 0.0168978 0.00749728 0.00603937 -0.000503949 -0.000111043 3.95904e-10 -2.34663e-11 -2.40608e-11 5e-05 1.46608e-10 
234 1 0.0599404 0.0183559 0.00716103 0.00554649 0.000264502 -6.5932e-05 2.62639e-10 -2.67601e-10 9.34639e-12 5e-05 1.46608e-10 
235 1 0.0540648 0.0185677 0.00702845 0.00579569 -0.000407656 0.000524137 6.61591e-11 -7.7517e-11 2.44798e-12 5e-05 1.46608e-10 
236 1 0.0540433 0.0184701 0.00702365 0.00545647 -0.000328493 0.000495276 1.01169e-10 -7.78702e-11 6.0662e-12 5e-05 1.46608e-10 
237 1 0.0541193 0.0184035 0.00702877 0.00570225 -0.000398962 0.000515758 1.85248e-10 -1.1355e-10 1.70995e-11 5e-05 1.46608e-10 
239 1 0.0473787 0.0163421 0.00789071 0.00646773 0.00141927 -0.0007236 -1.31275e-10 2.54472e-10 -3.0172e-10 5e-05 1.46608e-10 
240 1 0.0474426 0.01655 0.00768407 0.00645178 0.00147718 -0.00079064 -5.76816e-10 5.97358e-10 -5.46617e-10 5e-05 1.46608e-10 
241 1 0.0473573 0.0162728 0.0079596 0.00646592 0.00148035 -0.00078908 7.53038e-11 2.22555e-10 -2.16647e-10 5e-05 1.46608e-10 
242 1 0.0538234 0.0170149 0.0074418 0.00614862 -3.24561e-05 -0.000315806 2.75182e-11 -3.43221e-10 1.4182e-10 5e-05 1.46608e-10 
243 1 0.0536113 0.0168713 0.00751353 0.0060733 -0.000534262 -0.000100105 2.83115e-13 -2.12492e-10 9.94161e-11 5e-05 1.46608e-10 
244 1 0.0474 0.0164114 0.00782183 0.0065184 0.0014393 -0.000739942 1.05415e-10 7.8403e-11 -2.45812e-11 5e-05 1.46608e-10 
246 1 0.0475277 0.0168789 0.00748 0.00586254 0.00136836 -0.00116987 -2.81198e-10 -4.30789e-10 -1.76687e-10 5e-05 1.46608e-10 