ITEM: TIMESTEP
24400000
ITEM: NUMBER OF ATOMS
273
ITEM: BOX BOUNDS ff ff ff
-0.02 0.43
-0.02 0.06
-0.02 0.07
ITEM: ATOMS id type x y z vx vy vz fx fy fz radius mass 
1 1 0.154834 0.0158602 0.00855384 0.00593967 -5.76064e-05 -0.000643276 9.31924e-10 3.0399e-10 -3.85596e-10 5e-05 1.46608e-10 
2 1 0.155371 0.0170696 0.00734256 0.005738 0.000624044 -8.13099e-05 2.68876e-11 6.10698e-11 7.0953e-11 5e-05 1.46608e-10 
3 1 0.149651 0.0174728 0.00731486 0.00521037 -0.000665816 0.000108467 2.61684e-11 1.965e-11 3.51519e-11 5e-05 1.46608e-10 
4 1 0.1552 0.0164699 0.00773006 0.00578073 0.000674472 -0.000151458 -1.15768e-09 2.14423e-10 2.25631e-09 5e-05 1.46608e-10 
5 1 0.154813 0.0158104 0.0086381 0.00592225 -4.61725e-05 -0.000647209 -7.90423e-11 3.4721e-10 -4.50674e-10 5e-05 1.46608e-10 
6 1 0.161114 0.0166915 0.00749681 0.00551921 -0.00137478 0.000383947 2.20421e-12 4.14324e-12 -1.95179e-12 5e-05 1.46608e-10 
7 1 0.154916 0.0160594 0.0082168 0.00610379 -3.84049e-05 -0.000688721 -5.4138e-11 1.06501e-10 -8.27148e-11 5e-05 1.46608e-10 
8 1 0.154793 0.0157606 0.00872237 0.00582268 -4.60359e-05 -0.000640902 -5.6417e-10 2.49023e-11 -9.67067e-11 5e-05 1.46608e-10 
9 1 0.161237 0.0172554 0.00733411 0.00528255 -0.00120904 0.000677839 -1.56088e-12 -4.46556e-12 1.06496e-12 5e-05 1.46608e-10 
10 1 0.155324 0.0176847 0.00733224 0.0055053 0.000526884 -0.000684263 1.02901e-10 3.19702e-10 8.58221e-11 5e-05 1.46608e-10 
11 1 0.155393 0.0171664 0.00733015 0.0057783 0.000584392 -8.81062e-05 3.28506e-10 -9.63449e-11 -1.87108e-10 5e-05 1.46608e-10 
12 1 0.149043 0.0164004 0.00769034 0.005587 -0.000760946 0.000129279 -1.45083e-11 -2.39282e-10 8.63994e-11 5e-05 1.46608e-10 
13 1 0.154731 0.0156112 0.00897516 0.00570781 -4.71985e-05 -0.000627052 -1.82631e-10 7.35675e-11 -8.16001e-11 5e-05 1.46608e-10 
14 1 0.149773 0.0190006 0.00680335 0.00590732 -0.000745316 0.000824702 2.2814e-09 -1.59621e-09 2.05801e-09 5e-05 1.46608e-10 
15 1 0.155263 0.0165427 0.00760024 0.00582234 0.000829717 -0.000185727 -2.45221e-09 -4.78857e-09 1.50915e-09 5e-05 1.46608e-10 
16 1 0.149784 0.0187318 0.00688684 0.00606366 -0.00110151 0.000253091 3.08501e-10 -7.92607e-10 4.83967e-10 5e-05 1.46608e-10 
17 1 0.155293 0.0167197 0.0075134 0.00587975 0.000726946 -0.000126772 -9.39935e-11 2.27708e-09 -8.28053e-10 5e-05 1.46608e-10 
19 1 0.154772 0.0157108 0.00880663 0.0057643 -5.49502e-05 -0.000627088 1.98537e-10 -1.32071e-10 1.15515e-10 5e-05 1.46608e-10 
21 1 0.155303 0.0175905 0.00730612 0.00551892 0.000541972 -0.000691511 7.49309e-11 3.53537e-10 1.18125e-11 5e-05 1.46608e-10 
22 1 0.155271 0.016632 0.00755611 0.00603404 0.000811395 -0.000153131 -8.15457e-10 2.27062e-10 -2.1839e-10 5e-05 1.46608e-10 
23 1 0.149203 0.0166866 0.00759018 0.00558858 -0.000743359 0.000124906 -6.65844e-11 -9.69288e-11 1.18201e-11 5e-05 1.46608e-10 
24 1 0.161296 0.0175392 0.00725721 0.00515742 -0.00118706 0.000663695 5.30424e-13 1.03452e-13 2.78141e-15 5e-05 1.46608e-10 
25 1 0.155116 0.0162449 0.00788769 0.0060683 -1.03217e-05 -0.000718262 1.10032e-10 1.43978e-10 -2.2513e-10 5e-05 1.46608e-10 
26 1 0.161196 0.0170663 0.00738532 0.00551108 -0.00125091 0.000704217 3.40537e-13 -8.48933e-13 2.34495e-13 5e-05 1.46608e-10 
27 1 0.149631 0.01738 0.00734661 0.00524561 -0.000644487 0.000101724 2.69113e-11 1.78335e-10 -5.8413e-11 5e-05 1.46608e-10 
28 1 0.155339 0.0168923 0.00742941 0.00585125 0.000614997 -7.16227e-05 1.08574e-10 1.82019e-10 -1.9931e-10 5e-05 1.46608e-10 
29 1 0.154937 0.016109 0.0081327 0.00618025 -6.16076e-05 -0.000661303 -4.53932e-10 3.73022e-10 -3.34752e-10 5e-05 1.46608e-10 
30 1 0.155411 0.0176048 0.00734874 0.00545026 0.000594404 -0.000664903 4.45545e-11 -5.72941e-11 -1.41193e-10 5e-05 1.46608e-10 
31 1 0.155119 0.0162972 0.00780254 0.00607624 0.00015085 -0.000633659 5.23542e-10 1.86147e-10 -7.98314e-11 5e-05 1.46608e-10 
32 1 0.155135 0.0163633 0.00772939 0.00593016 0.000559769 -0.000293645 -8.37348e-10 -1.81814e-10 3.78711e-10 5e-05 1.46608e-10 
33 1 0.161135 0.0167829 0.00746199 0.00552878 -0.00125421 0.000706277 1.44719e-12 3.76144e-12 -1.04489e-12 5e-05 1.46608e-10 
34 1 0.154895 0.0160096 0.00830106 0.00607903 -3.04538e-05 -0.000695507 2.68725e-10 -2.25434e-10 1.98689e-10 5e-05 1.46608e-10 
35 1 0.154977 0.0162088 0.00796403 0.00618401 -8.05915e-05 -0.000646557 -8.20637e-11 6.90429e-11 -5.03889e-11 5e-05 1.46608e-10 
36 1 0.161277 0.0174446 0.00728288 0.0052967 -0.00121129 0.000679389 7.84456e-13 -1.24523e-12 3.77405e-13 5e-05 1.46608e-10 
37 1 0.15551 0.0176575 0.00727832 0.00546256 0.000444022 -0.000681376 -5.47298e-11 -8.88228e-12 1.48132e-12 5e-05 1.46608e-10 
38 1 0.155602 0.0173253 0.00728046 0.00555473 0.00060463 -0.000694717 5.18238e-10 -5.18711e-11 -7.52834e-11 5e-05 1.46608e-10 
39 1 0.161358 0.0173897 0.0073036 0.00529805 -0.00120954 0.000678979 2.92064e-12 1.30203e-12 -1.92229e-13 5e-05 1.46608e-10 
41 1 0.155414 0.0168338 0.00746143 0.00591015 0.000654857 -8.81485e-05 3.98178e-11 -5.97883e-10 3.52775e-10 5e-05 1.46608e-10 
42 1 0.321436 0.0173475 0.00552525 4.56409e-16 2.25553e-15 8.4636e-14 -2.00979e-24 1.70606e-24 0 5e-05 1.46608e-10 
44 1 0.155355 0.016981 0.00738596 0.00581056 0.000614656 -7.69548e-05 -1.79876e-11 1.27097e-10 -9.79794e-11 5e-05 1.46608e-10 
45 1 0.161155 0.0168774 0.00743643 0.0055229 -0.00125312 0.000705586 1.55467e-12 2.67858e-12 -7.74075e-13 5e-05 1.46608e-10 
47 1 0.154854 0.01591 0.00846958 0.00592907 -5.30234e-05 -0.000660726 3.34252e-10 -2.1224e-10 1.46146e-10 5e-05 1.46608e-10 
48 1 0.155472 0.0175554 0.00728702 0.00547496 0.000623097 -0.000681258 6.859e-11 -2.86261e-10 1.63047e-11 5e-05 1.46608e-10 
50 1 0.155053 0.0164337 0.00764616 0.00586579 0.000682786 -0.000107498 2.04188e-10 1.48318e-10 -1.91695e-11 5e-05 1.46608e-10 
51 1 0.155036 0.0163643 0.00771624 0.00594207 0.000507148 -0.000304008 2.16029e-10 -7.9459e-11 -4.84352e-11 5e-05 1.46608e-10 
52 1 0.148966 0.0161492 0.00798598 0.00607146 -9.99876e-05 0.000708467 1.61124e-10 -7.80908e-11 6.48354e-11 5e-05 1.46608e-10 
53 1 0.161323 0.017209 0.00735279 0.00528294 -0.00120845 0.000677719 -1.99587e-12 -7.14206e-12 1.80141e-12 5e-05 1.46608e-10 
54 1 0.155538 0.0177532 0.00727107 0.00554067 0.000412299 -0.000690054 -2.03884e-10 4.34531e-11 2.87569e-11 5e-05 1.46608e-10 
55 1 0.148902 0.015987 0.00823015 0.00598199 -7.45406e-05 0.000669776 1.38865e-10 1.51246e-10 -2.38729e-10 5e-05 1.46608e-10 
56 1 0.155569 0.0175769 0.00727438 0.00550799 0.000484146 -0.000687265 -5.52375e-11 4.87598e-13 -1.97104e-12 5e-05 1.46608e-10 
57 1 0.161176 0.0169719 0.00741088 0.00551696 -0.00125203 0.000704909 9.56231e-13 8.96205e-13 -7.65343e-14 5e-05 1.46608e-10 
59 1 0.155389 0.0167465 0.00750388 0.00579947 0.000515775 -2.01787e-05 7.21606e-10 1.75291e-10 -2.44272e-10 5e-05 1.46608e-10 
61 1 0.154957 0.016159 0.00804828 0.00621671 -6.90463e-05 -0.0006462 1.76337e-10 2.54116e-10 -3.18441e-10 5e-05 1.46608e-10 
62 1 0.155563 0.0171325 0.0073188 0.00524914 0.000298931 6.64851e-05 -4.34004e-11 3.27997e-11 -1.10874e-10 5e-05 1.46608e-10 
63 1 0.155226 0.0163662 0.0076865 0.00420025 0.000813966 0.000231358 -4.94197e-11 1.39208e-09 -1.0612e-10 5e-05 1.46608e-10 
64 1 0.161377 0.0174844 0.00727792 0.00515756 -0.00118695 0.000663672 3.35689e-12 3.84191e-12 -8.74952e-13 5e-05 1.46608e-10 
65 1 0.149083 0.016579 0.00762917 0.00559302 -0.000746439 0.000131453 -5.98994e-11 -1.4577e-10 -2.74572e-11 5e-05 1.46608e-10 
66 1 0.148881 0.015933 0.00831166 0.00593738 -6.69708e-05 0.000649281 -9.93666e-11 1.51618e-10 -2.45576e-10 5e-05 1.46608e-10 
67 1 0.155469 0.0171007 0.00733088 0.00585409 0.000616008 -5.73227e-05 2.01351e-10 -2.30555e-10 4.03593e-11 5e-05 1.46608e-10 
68 1 0.155176 0.0165234 0.00764903 0.00587746 0.000767825 -0.000108003 1.33786e-09 2.18352e-10 1.75279e-10 5e-05 1.46608e-10 
69 1 0.155459 0.0179021 0.00727466 0.00561299 0.000444493 -0.00069966 -4.78589e-11 -1.03339e-10 -1.55992e-12 5e-05 1.46608e-10 
70 1 0.161217 0.0171609 0.00735972 0.00527541 -0.00120791 0.000677086 9.56153e-13 -2.433e-12 1.04849e-12 5e-05 1.46608e-10 
71 1 0.148944 0.016095 0.00806713 0.00601306 -9.05498e-05 0.000693613 1.44445e-10 -6.19343e-12 -1.06539e-11 5e-05 1.46608e-10 
72 1 0.155452 0.0174576 0.00729332 0.00552877 0.000595854 -0.000694817 -1.17199e-10 -1.8379e-10 3.99004e-11 5e-05 1.46608e-10 
73 1 0.155546 0.0178528 0.00726612 0.00558154 0.000403818 -0.000694204 -1.10697e-10 2.56223e-12 6.82672e-12 5e-05 1.46608e-10 
74 1 0.155544 0.017043 0.00736255 0.00588276 0.000607727 -7.17284e-05 2.68877e-10 -1.84115e-10 1.84607e-10 5e-05 1.46608e-10 
76 1 0.149663 0.0184097 0.00699847 0.00598693 -0.00067637 0.000117382 -5.35474e-11 6.71881e-12 -1.34652e-11 5e-05 1.46608e-10 
77 1 0.155077 0.0165296 0.0076606 0.00598226 0.000652645 -6.85931e-05 -3.09083e-10 -1.74075e-10 1.57778e-10 5e-05 1.46608e-10 
78 1 0.149782 0.0189042 0.0068287 0.00573576 -0.00105269 0.000257149 1.50702e-09 -1.70788e-09 -5.79066e-10 5e-05 1.46608e-10 
79 1 0.149007 0.0162607 0.00782507 0.00597674 -0.000482821 0.000404942 -8.0136e-11 -2.88514e-10 -9.72522e-11 5e-05 1.46608e-10 
80 1 0.155398 0.0170684 0.00743902 0.00582187 0.000643903 -0.000106696 -4.84298e-11 -2.99183e-10 2.19702e-10 5e-05 1.46608e-10 
81 1 0.149677 0.0185034 0.00696662 0.00601077 -0.000588862 6.31591e-05 1.37101e-10 7.85665e-11 -9.53164e-11 5e-05 1.46608e-10 
82 1 0.149088 0.0164873 0.00766872 0.00557862 -0.000747951 0.000151079 -1.89453e-10 -1.23628e-10 2.07401e-10 5e-05 1.46608e-10 
83 1 0.14969 0.0186998 0.00689974 0.00593868 -0.00119153 0.00024718 4.73296e-10 -2.82471e-10 -6.76144e-10 5e-05 1.46608e-10 
84 1 0.161257 0.01735 0.0073085 0.00528951 -0.0012102 0.00067864 2.61244e-13 -2.94391e-12 7.64613e-13 5e-05 1.46608e-10 
85 1 0.149684 0.0176593 0.00725114 0.00535931 -0.00069194 0.00011528 -6.24759e-11 1.59727e-10 -9.6603e-11 5e-05 1.46608e-10 
86 1 0.155433 0.016924 0.00741738 0.0058391 0.000634869 -8.3287e-05 -1.20002e-10 -1.00279e-10 -1.04385e-10 5e-05 1.46608e-10 
87 1 0.155733 0.0171046 0.00733935 0.00579152 0.000796341 -0.000170128 -1.94162e-10 -1.51338e-10 9.37117e-11 5e-05 1.46608e-10 
88 1 0.155229 0.016977 0.00749474 0.00595669 0.00057811 -3.31287e-05 6.99665e-11 -2.09898e-10 -3.29687e-10 5e-05 1.46608e-10 
89 1 0.155486 0.0171943 0.00729973 0.00548141 0.000391802 -0.000675295 -8.84044e-11 -2.17762e-10 -6.26506e-10 5e-05 1.46608e-10 
90 1 0.155449 0.0170126 0.00737393 0.00582793 0.000621097 -7.73267e-05 1.30195e-10 -4.93888e-12 1.10471e-10 5e-05 1.46608e-10 
91 1 0.14967 0.0175657 0.00728308 0.00524352 -0.000677933 0.000113646 1.93776e-10 1.10847e-10 -5.02638e-11 5e-05 1.46608e-10 
92 1 0.155433 0.0173597 0.00729963 0.00556822 0.000576194 -0.000705739 -1.65692e-10 -9.84505e-11 3.63386e-11 5e-05 1.46608e-10 
93 1 0.155159 0.016679 0.00752838 0.00583533 0.00064562 -0.000108821 -3.25871e-10 4.49538e-10 -2.51029e-10 5e-05 1.46608e-10 
94 1 0.155338 0.0173283 0.00731234 0.00556944 0.000562284 -0.000647623 -1.73001e-12 -1.04316e-10 3.41574e-10 5e-05 1.46608e-10 
95 1 0.155285 0.0171114 0.00744331 0.00570645 0.000684835 -1.63368e-05 3.34741e-10 -2.37152e-10 5.16982e-11 5e-05 1.46608e-10 
96 1 0.155185 0.0167658 0.00748622 0.00590727 0.000602251 -6.44586e-05 2.8547e-10 2.23779e-10 1.9366e-10 5e-05 1.46608e-10 
97 1 0.149398 0.0171934 0.00741478 0.00545459 -0.000504504 4.30087e-05 -4.69791e-10 3.38966e-10 -1.19958e-10 5e-05 1.46608e-10 
98 1 0.155318 0.0170176 0.00747119 0.00587982 0.000757605 -0.000111893 -3.39502e-10 -4.57335e-10 -7.0944e-12 5e-05 1.46608e-10 
99 1 0.149103 0.0166716 0.00759758 0.00559347 -0.000732171 0.000131164 2.52202e-11 -7.29686e-11 -1.07799e-10 5e-05 1.46608e-10 
100 1 0.155507 0.017293 0.00729331 0.00562976 0.000605552 -0.000635405 -3.58528e-10 -2.76249e-10 -2.98591e-10 5e-05 1.46608e-10 
101 1 0.149028 0.0163195 0.00774717 0.00561147 -0.000809279 5.86707e-05 2.03763e-11 -2.86954e-10 4.85144e-12 5e-05 1.46608e-10 
102 1 0.0643568 0.0187248 0.00531097 4.09717e-15 1.057e-14 8.29596e-14 -6.80537e-22 5.75795e-22 -3.63959e-23 5e-05 1.46608e-10 
103 1 0.24257 0.0191927 0.00520306 -1.3037e-23 -1.27651e-22 -5.81428e-22 0 0 0 5e-05 1.46608e-10 
104 1 0.14958 0.0184627 0.00698088 0.00592512 -0.000670952 0.000338545 -1.3938e-10 1.61901e-10 -1.2701e-11 5e-05 1.46608e-10 
105 1 0.149508 0.0172459 0.00739461 0.0053726 -0.000624164 9.26e-05 -4.22137e-10 1.56377e-10 -1.48111e-11 5e-05 1.46608e-10 
106 1 0.149456 0.0174721 0.00731939 0.00533552 -0.000540724 6.37899e-05 1.24779e-10 4.52301e-10 -3.00824e-10 5e-05 1.46608e-10 
107 1 0.149417 0.0172864 0.00738296 0.00537438 -0.000613878 9.0046e-05 -1.06373e-10 4.22125e-10 -1.23006e-11 5e-05 1.46608e-10 
108 1 0.155407 0.0180674 0.00727432 0.00566199 0.000457941 -0.000706447 -7.89656e-11 -9.09373e-11 2.38828e-11 5e-05 1.46608e-10 
109 1 0.155018 0.0163095 0.00779783 0.00605813 0.00016783 -0.000526397 7.63121e-11 -2.83602e-10 -1.92349e-10 5e-05 1.46608e-10 
110 1 0.155145 0.0168526 0.00751577 0.00595358 0.000612599 -2.20532e-05 1.40695e-11 4.9015e-10 1.15788e-10 5e-05 1.46608e-10 
111 1 0.155264 0.0170328 0.00735662 0.00592498 0.000686525 -0.000115729 8.97337e-11 3.43574e-10 -5.0038e-11 5e-05 1.46608e-10 
112 1 0.149837 0.0183939 0.00699974 0.00611151 -0.000540413 4.69947e-05 -3.38846e-10 -1.02866e-10 -7.30745e-11 5e-05 1.46608e-10 
113 1 0.149457 0.0179038 0.00717365 0.00559626 -0.000619216 0.000140003 5.30851e-10 -1.73424e-10 1.20104e-10 5e-05 1.46608e-10 
114 1 0.149642 0.0191609 0.00686837 0.00613831 -0.000670596 -0.000531554 -9.67017e-11 -2.24498e-10 -7.21102e-10 5e-05 1.46608e-10 
115 1 0.155317 0.0168128 0.00748577 0.00588131 0.000626423 -7.83933e-05 4.13224e-10 1.05989e-09 -5.31984e-10 5e-05 1.46608e-10 
116 1 0.155386 0.01797 0.00728084 0.00563906 0.000461126 -0.000702304 9.67491e-12 -8.70017e-11 -1.11333e-11 5e-05 1.46608e-10 
117 1 0.155638 0.0170744 0.00735063 0.00583699 0.000743938 -0.000141803 5.56855e-11 -2.165e-11 -5.40418e-11 5e-05 1.46608e-10 
118 1 0.149551 0.0187532 0.00687868 0.00600489 -0.000917342 0.000426489 -2.17959e-10 -8.73724e-10 1.91268e-10 5e-05 1.46608e-10 
119 1 0.155248 0.0164539 0.00764378 0.00582128 0.000682317 -9.23575e-06 3.29021e-09 -1.53388e-09 6.80846e-10 5e-05 1.46608e-10 
120 1 0.155077 0.0161991 0.00796762 0.00619885 -5.6189e-05 -0.00067773 -2.9054e-11 5.93877e-11 -1.84267e-10 5e-05 1.46608e-10 
121 1 0.154875 0.0159598 0.00838532 0.00601073 -3.67932e-05 -0.000685878 -7.31715e-10 -2.50105e-10 1.90434e-10 5e-05 1.46608e-10 
122 1 0.155124 0.016765 0.00756552 0.00586402 0.000649781 -0.000103524 -2.59607e-10 -2.23695e-10 -2.9681e-11 5e-05 1.46608e-10 
123 1 0.149501 0.0185212 0.00695896 0.00595217 -0.000657266 0.000318041 6.16559e-11 8.60655e-11 1.79962e-10 5e-05 1.46608e-10 
124 1 0.155139 0.0168608 0.00761522 0.00605921 0.00057219 5.59905e-06 -1.1241e-10 -2.59335e-11 2.33097e-10 5e-05 1.46608e-10 
125 1 0.155658 0.0171626 0.0073076 0.00573337 0.000749937 -0.000145369 -3.57819e-11 -2.68833e-11 7.15354e-11 5e-05 1.46608e-10 
126 1 0.155009 0.0162563 0.00788207 0.00610609 -0.000128958 -0.000709138 -5.20401e-10 1.51622e-10 1.03191e-10 5e-05 1.46608e-10 
127 1 0.149527 0.0173387 0.00736285 0.00535709 -0.00061054 8.8069e-05 -1.31815e-10 -4.26542e-11 4.93461e-11 5e-05 1.46608e-10 
128 1 0.155091 0.0166471 0.0077068 0.00574911 0.000450352 -0.000241724 -1.75706e-10 -5.26208e-11 -1.96279e-10 5e-05 1.46608e-10 
129 1 0.155278 0.0172627 0.00742113 0.00575682 0.000760419 -0.000222308 4.21796e-10 -9.94942e-11 -2.50005e-10 5e-05 1.46608e-10 
131 1 0.149547 0.0174315 0.00733109 0.00529534 -0.000587776 8.49784e-05 -2.32789e-10 -1.48278e-10 1.20711e-10 5e-05 1.46608e-10 
132 1 0.155346 0.0171897 0.00741537 0.00569449 0.000645801 -0.000102439 4.96494e-10 -1.37567e-10 7.51764e-11 5e-05 1.46608e-10 
133 1 0.155313 0.0174424 0.00739377 0.00561483 0.000605967 -0.000679619 1.52398e-10 3.01487e-10 -3.42531e-11 5e-05 1.46608e-10 
134 1 0.155152 0.0164264 0.00765367 0.00583006 0.000715067 -0.000105776 8.30285e-10 -2.73479e-09 4.43758e-10 5e-05 1.46608e-10 
135 1 0.154752 0.015661 0.00889089 0.005751 -5.54624e-05 -0.000621921 4.52463e-10 -1.22784e-11 1.36123e-11 5e-05 1.46608e-10 
136 1 0.149967 0.0190026 0.0068309 0.00581911 -0.000381798 0.00119525 5.33368e-10 -4.22326e-10 5.92667e-11 5e-05 1.46608e-10 
137 1 0.155087 0.01658 0.00757476 0.00593601 0.000647075 -8.3717e-05 5.65829e-11 9.59312e-11 -1.30559e-10 5e-05 1.46608e-10 
138 1 0.155442 0.0177805 0.00728161 0.00559618 0.000506567 -0.000701821 5.6243e-12 -5.74699e-11 1.1011e-11 5e-05 1.46608e-10 
140 1 0.155297 0.017136 0.00734715 0.00570157 0.000601093 -3.71402e-05 1.50811e-10 2.56215e-10 9.11732e-11 5e-05 1.46608e-10 
141 1 0.149647 0.0187848 0.00686938 0.00598832 -0.00104506 0.000480134 -5.90214e-10 -6.70618e-10 1.47446e-11 5e-05 1.46608e-10 
142 1 0.149481 0.0184286 0.00699101 0.00587612 -0.000642904 0.000332481 -1.3897e-10 1.31192e-11 -7.32352e-11 5e-05 1.46608e-10 
143 1 0.148923 0.016041 0.00814864 0.00599759 -8.53027e-05 0.00068579 1.0415e-10 1.54686e-10 -1.25821e-10 5e-05 1.46608e-10 
144 1 0.149591 0.0189384 0.00681459 0.00609809 -0.00105588 0.000461882 1.21076e-09 -2.33212e-10 1.63821e-10 5e-05 1.46608e-10 
147 1 0.149767 0.018462 0.00697832 0.00606966 -0.000535493 3.94546e-05 7.1545e-11 3.45081e-10 -9.75854e-11 5e-05 1.46608e-10 
148 1 0.149144 0.0168544 0.00753483 0.0055975 -0.000704145 0.000106203 -1.49658e-10 3.42038e-11 4.80731e-11 5e-05 1.46608e-10 
149 1 0.155252 0.0169406 0.00740196 0.00599089 0.000548446 -2.76206e-05 -4.83675e-10 -4.82222e-12 4.0726e-11 5e-05 1.46608e-10 
150 1 0.0100679 0.0201683 0.00551526 8.38442e-15 1.24826e-15 -8.48743e-14 -1.28988e-23 2.48671e-23 -8.27181e-25 5e-05 1.46608e-10 
151 1 0.149517 0.0181819 0.00707803 0.00572979 -0.000652204 0.000326256 -3.97389e-11 -1.44426e-11 2.45874e-11 5e-05 1.46608e-10 
153 1 0.149841 0.0188274 0.00685334 0.0061105 -0.000734368 0.000115955 8.27187e-10 -2.0647e-10 -9.38346e-10 5e-05 1.46608e-10 
154 1 0.149571 0.0188458 0.00684663 0.00607154 -0.000964831 0.000451246 -6.47147e-10 -7.29835e-10 2.92362e-10 5e-05 1.46608e-10 
155 1 0.149164 0.0169471 0.00750327 0.00559662 -0.00068872 0.000102801 -2.39149e-10 1.37819e-10 5.65246e-12 5e-05 1.46608e-10 
156 1 0.149595 0.0185581 0.00694777 0.00588854 -0.000645742 0.000332801 4.45402e-10 -1.9775e-10 8.70609e-11 5e-05 1.46608e-10 
157 1 0.0219312 0.0187687 0.00551176 -3.81859e-14 8.17374e-14 2.95887e-13 -2.42881e-22 2.60252e-22 -1.09188e-22 5e-05 1.46608e-10 
158 1 0.149729 0.0179831 0.00714083 0.00562717 -0.000677414 9.58233e-05 -2.81745e-10 -1.09284e-10 -6.45976e-12 5e-05 1.46608e-10 
159 1 0.155583 0.0172287 0.00729833 0.00568433 0.000675932 -0.000346788 -2.54841e-10 -2.08965e-10 -9.35034e-11 5e-05 1.46608e-10 
160 1 0.149604 0.0186522 0.00691498 0.00570932 -0.00064357 0.000334414 2.23996e-09 -9.75473e-10 7.23494e-10 5e-05 1.46608e-10 
162 1 0.14969 0.018605 0.00693173 0.00563608 -0.00100658 0.00018531 8.87596e-10 1.90509e-10 -2.01115e-10 5e-05 1.46608e-10 
164 1 0.149399 0.017626 0.00726925 0.00531046 -0.000593741 0.000105746 -1.87264e-10 2.75737e-10 2.88592e-10 5e-05 1.46608e-10 
165 1 0.149596 0.018123 0.00709731 0.00573175 -0.000851019 -0.000440144 -3.15073e-10 -4.29497e-10 -1.46674e-09 5e-05 1.46608e-10 
166 1 0.155496 0.0180216 0.00726541 0.00564553 0.000415383 -0.000702645 -9.74443e-11 -1.0933e-10 1.6721e-11 5e-05 1.46608e-10 
168 1 0.149476 0.0175652 0.00728751 0.00529788 -0.000581732 7.7188e-05 -2.09839e-10 1.91792e-11 -6.2776e-11 5e-05 1.46608e-10 
169 1 0.149382 0.0179677 0.00715717 0.00560487 -0.000668053 0.00017037 2.15039e-10 -3.43014e-10 -1.16314e-10 5e-05 1.46608e-10 
170 1 0.149586 0.0176182 0.00726718 0.00530221 -0.000631739 8.98322e-05 5.82539e-11 -1.9454e-10 1.31189e-10 5e-05 1.46608e-10 
171 1 0.155364 0.0178725 0.00728735 0.00561922 0.000471224 -0.0007016 -2.46685e-12 1.02952e-11 -1.98866e-11 5e-05 1.46608e-10 
172 1 0.149516 0.0180641 0.00720496 0.00575475 -0.000717987 0.000272473 -7.0028e-11 -4.74948e-11 -8.55054e-12 5e-05 1.46608e-10 
173 1 0.155413 0.0172614 0.007306 0.00554162 0.000494458 -0.000700666 -1.91166e-12 -1.22541e-10 1.54467e-10 5e-05 1.46608e-10 
174 1 0.149437 0.0173792 0.00735119 0.00538903 -0.000570802 7.4461e-05 -7.91632e-11 3.56143e-10 -2.88587e-10 5e-05 1.46608e-10 
175 1 0.143182 0.0170267 0.00747745 0.00571909 0.000564751 0.00127155 -1.37457e-10 -5.37141e-10 6.54617e-10 5e-05 1.46608e-10 
177 1 0.149436 0.0178177 0.00722263 0.0053181 -0.00062001 0.00017656 1.06093e-10 1.99406e-10 1.51146e-10 5e-05 1.46608e-10 
178 1 0.149536 0.0178445 0.0071919 0.00555386 -0.000638245 0.000100749 7.05922e-10 1.21234e-10 3.26397e-10 5e-05 1.46608e-10 
179 1 0.149576 0.0180301 0.00712837 0.00569532 -0.000670573 0.000137358 4.24024e-10 -1.79939e-10 -2.33052e-10 5e-05 1.46608e-10 
181 1 0.149737 0.0183458 0.00701824 0.00609506 -0.000595064 8.02979e-05 6.31713e-11 1.2009e-10 3.17458e-11 5e-05 1.46608e-10 
182 1 0.155343 0.0177751 0.00729387 0.00560194 0.000486151 -0.000700614 -2.79991e-11 1.51471e-10 4.01229e-11 5e-05 1.46608e-10 
183 1 0.149567 0.0175251 0.00729903 0.00525206 -0.000630519 9.69093e-05 -1.44508e-10 -1.39767e-10 5.93411e-11 5e-05 1.46608e-10 
184 1 0.155317 0.0172301 0.00732006 0.00574749 0.000546998 -0.000202855 3.84483e-10 3.65304e-11 -3.72303e-10 5e-05 1.46608e-10 
186 1 0.149462 0.018336 0.00702305 0.00584632 -0.000626901 0.000326446 7.4248e-11 7.69708e-11 -8.52472e-11 5e-05 1.46608e-10 
187 1 0.155284 0.0174926 0.00731241 0.00553168 0.000549058 -0.000699487 -2.74441e-11 1.94205e-10 6.27263e-12 5e-05 1.46608e-10 
188 1 0.155099 0.0164614 0.00773055 0.00586251 0.000704804 -0.000109404 1.78968e-12 -4.70362e-11 1.6385e-10 5e-05 1.46608e-10 
189 1 0.155378 0.0175241 0.00729971 0.0055333 0.000591219 -0.000695052 1.9907e-10 9.82842e-11 6.77286e-12 5e-05 1.46608e-10 
190 1 0.143354 0.0173995 0.00727616 0.00546514 -2.87396e-05 -0.000268044 4.65113e-12 4.46623e-11 -2.38771e-11 5e-05 1.46608e-10 
191 1 0.155103 0.016672 0.00761062 0.00584663 0.000695056 -0.000132299 -3.37723e-10 -6.26428e-11 -3.88293e-11 5e-05 1.46608e-10 
192 1 0.1498 0.0177815 0.00720733 0.00550993 -0.000684382 0.00010843 -6.41861e-10 4.66442e-10 -1.94198e-10 5e-05 1.46608e-10 
193 1 0.155251 0.0163074 0.00776821 0.0131913 -0.000362347 -0.00257681 0 0 -1.43822e-09 5e-05 1.46608e-10 
194 1 0.161461 0.0182058 0.00533758 1.60917e-15 -1.10037e-14 8.66681e-14 -3.67184e-22 -3.44055e-23 2.48154e-24 5e-05 1.46608e-10 
195 1 0.149672 0.0180614 0.00711632 0.0057162 -0.000773431 -0.000305692 -1.34046e-10 -1.0073e-10 -6.54009e-10 5e-05 1.46608e-10 
196 1 0.149321 0.0172544 0.00739592 0.00543302 -0.000619588 -0.00021958 -2.69725e-10 2.28871e-10 -1.29462e-09 5e-05 1.46608e-10 
197 1 0.143239 0.0172766 0.00732116 0.00547892 0.000460611 0.00119356 2.51735e-11 7.72991e-11 3.44555e-10 5e-05 1.46608e-10 
198 1 0.149871 0.0189834 0.00681082 0.00587188 -0.000663023 0.00120487 1.56e-09 7.42105e-10 -3.49628e-11 5e-05 1.46608e-10 
199 1 0.149674 0.0189926 0.00679712 0.00602833 -0.000973163 0.000524961 2.7444e-09 -1.99839e-09 1.43662e-09 5e-05 1.46608e-10 
201 1 0.149477 0.0179966 0.0071419 0.0056276 -0.000683064 7.3674e-05 4.54636e-10 1.1932e-10 4.61179e-10 5e-05 1.46608e-10 
202 1 0.149635 0.0183081 0.00703318 0.00599776 -0.000535236 0.000131562 3.7822e-10 -3.69078e-11 -1.70328e-10 5e-05 1.46608e-10 
203 1 0.155163 0.0169208 0.00744488 0.00592985 0.000603953 -4.37647e-05 1.14914e-10 3.88213e-10 -4.93309e-12 5e-05 1.46608e-10 
204 1 0.148986 0.0162031 0.00790412 0.00610273 -0.000102917 0.000719148 1.42045e-10 -1.12736e-11 6.27854e-11 5e-05 1.46608e-10 
205 1 0.149727 0.017846 0.00718718 0.00550816 -0.000695738 0.000112257 -2.18162e-10 2.7236e-10 1.80837e-11 5e-05 1.46608e-10 
206 1 0.14936 0.0174403 0.00733267 0.00539228 -0.000571374 9.22976e-05 -3.03037e-10 5.64634e-11 -4.00072e-10 5e-05 1.46608e-10 
207 1 0.149139 0.01676 0.00756726 0.00559789 -0.000721942 0.000119524 4.71407e-11 -4.23266e-11 -8.30067e-11 5e-05 1.46608e-10 
208 1 0.149499 0.0184039 0.00708636 0.00588837 -0.000682247 0.00034173 4.78481e-11 1.48216e-10 -5.72102e-10 5e-05 1.46608e-10 
209 1 0.146475 0.01866 0.00685448 0.00551489 -0.000723895 0.000355259 -7.61834e-13 4.06323e-13 -1.60797e-13 5e-05 1.46608e-10 
210 1 0.155358 0.0174262 0.00730602 0.00554283 0.000564129 -0.00069613 -6.48172e-11 -2.10362e-11 4.87189e-11 5e-05 1.46608e-10 
211 1 0.155264 0.0173948 0.00732054 0.00554238 0.000561577 -0.000598936 -3.00206e-11 -3.10475e-11 1.59975e-10 5e-05 1.46608e-10 
212 1 0.149766 0.0180932 0.00710286 0.00569233 -0.000532986 5.15106e-05 -4.47056e-10 2.27883e-10 -1.39392e-10 5e-05 1.46608e-10 
213 1 0.155414 0.0176848 0.00728885 0.00549212 0.000555774 -0.000692095 -4.86177e-11 -3.59237e-13 5.93339e-11 5e-05 1.46608e-10 
214 1 0.155204 0.0171083 0.00738373 0.00570746 0.000528822 -0.00017696 2.57748e-10 7.04559e-11 -1.1708e-10 5e-05 1.46608e-10 
215 1 0.143334 0.017305 0.00730364 0.00545588 -2.8606e-05 -0.000268237 2.60585e-12 -4.68689e-11 2.20225e-11 5e-05 1.46608e-10 
216 1 0.149646 0.0180048 0.00719459 0.00585759 -0.00061242 -4.00778e-05 7.0289e-10 7.02851e-11 -7.84978e-11 5e-05 1.46608e-10 
217 1 0.155566 0.0179505 0.00725975 0.00562248 0.000392241 -0.00069912 -4.71277e-11 2.87024e-11 7.44453e-12 5e-05 1.46608e-10 
218 1 0.149206 0.0171322 0.0074397 0.00559144 -0.000633059 0.000203277 1.10786e-10 2.75266e-11 -1.51611e-10 5e-05 1.46608e-10 
219 1 0.155231 0.0168472 0.00744759 0.00588064 0.000590545 -5.56806e-05 4.47586e-10 4.32965e-10 -2.59778e-11 5e-05 1.46608e-10 
220 1 0.149615 0.0182166 0.00706827 0.00598694 -0.00182735 -0.00337488 2.29291e-10 -2.20341e-11 6.23554e-10 5e-05 1.46608e-10 
221 1 0.143235 0.0168857 0.00756535 0.0057235 0.000702294 0.00139463 9.45672e-11 5.03418e-10 -5.33442e-10 5e-05 1.46608e-10 
222 1 0.155528 0.0169544 0.00740598 0.00584689 0.000609211 -6.92581e-05 -3.24057e-11 -2.36e-10 1.20308e-10 5e-05 1.46608e-10 
223 1 0.149557 0.0183674 0.00701383 0.00590024 -0.000611187 0.000324007 3.60834e-10 5.90588e-10 -2.76925e-10 5e-05 1.46608e-10 
224 1 0.145218 0.017689 0.00784781 1.62751e-10 -0.0225706 0.00841715 8.31669e-19 7.62519e-12 2.04632e-11 5e-05 1.46608e-10 
225 1 0.155181 0.0166062 0.00759316 0.00592837 0.000743575 -0.000167456 -2.22536e-11 8.44267e-10 -1.01473e-09 5e-05 1.46608e-10 
226 1 0.149436 0.0181287 0.00718366 0.00571933 -0.000577952 0.00034082 -1.53132e-10 -5.69671e-11 7.57322e-11 5e-05 1.46608e-10 
227 1 0.143294 0.0171298 0.00739449 0.00560416 0.000602246 0.00143578 1.33261e-10 -5.72699e-11 1.6162e-10 5e-05 1.46608e-10 
228 1 0.143201 0.0171083 0.00742298 0.00552638 0.000515582 0.0011553 -3.61037e-10 5.63473e-10 -3.79694e-11 5e-05 1.46608e-10 
229 1 0.1498 0.018182 0.00707211 0.00584079 -0.000580557 6.72484e-05 -2.05535e-10 -5.39705e-11 -4.69495e-11 5e-05 1.46608e-10 
230 1 0.149343 0.0177805 0.00721529 0.00533694 -0.000563528 0.000290952 -1.14421e-11 -6.80115e-11 -2.77976e-10 5e-05 1.46608e-10 
231 1 0.143162 0.016944 0.00752997 0.00571799 0.000599915 0.00125963 4.66401e-11 -7.13645e-10 -2.18136e-10 5e-05 1.46608e-10 
232 1 0.149742 0.0188178 0.0068589 0.00612461 -0.00110721 0.000366461 9.65057e-10 -7.75027e-11 1.80704e-09 5e-05 1.46608e-10 
234 1 0.155373 0.0172839 0.00739503 0.00565355 0.000540453 -0.000696838 -7.72757e-10 1.16928e-11 5.04575e-10 5e-05 1.46608e-10 
235 1 0.149605 0.0177176 0.00723323 0.00529162 -0.000586654 8.25548e-05 -2.0361e-10 1.16895e-10 -1.28566e-10 5e-05 1.46608e-10 
236 1 0.149324 0.0176879 0.00724737 0.00530911 -0.000560116 0.000280461 -2.65109e-10 9.65298e-11 -6.48528e-11 5e-05 1.46608e-10 
237 1 0.149284 0.0175027 0.00731146 0.00528584 -0.000596948 0.000306747 5.50428e-11 -3.25118e-11 6.33031e-12 5e-05 1.46608e-10 
239 1 0.142973 0.0162085 0.00800651 0.00598894 0.000611125 0.00155373 1.98231e-11 8.11775e-11 -5.94842e-11 5e-05 1.46608e-10 
240 1 0.143037 0.0164495 0.00783989 0.00594401 0.000602965 0.0015454 -3.66623e-11 -1.30419e-10 7.80713e-11 5e-05 1.46608e-10 
241 1 0.142951 0.0161282 0.00806205 0.00612548 0.00106445 0.00124562 1.12712e-11 4.51874e-11 -3.15521e-11 5e-05 1.46608e-10 
242 1 0.149523 0.0186149 0.00698637 0.00590554 -0.000694434 0.000460948 3.19652e-10 -1.71849e-11 -4.99682e-11 5e-05 1.46608e-10 
244 1 0.142994 0.0162889 0.00795097 0.00597357 0.000614848 0.00154637 1.37361e-12 -1.53411e-11 -1.20686e-12 5e-05 1.46608e-10 
246 1 0.143121 0.0167707 0.00761676 0.00570585 0.000605843 0.00146347 -6.13081e-11 1.14943e-10 -1.98721e-10 5e-05 1.46608e-10 
247 1 0.14971 0.0182447 0.00705292 0.00611878 -0.00044455 2.97019e-05 4.82475e-10 -4.34166e-10 1.0334e-11 5e-05 1.46608e-10 
248 1 0.149363 0.0178732 0.00718321 0.00530407 -0.000582077 0.000302131 7.39324e-11 -1.8899e-10 -6.79231e-11 5e-05 1.46608e-10 
249 1 0.143428 0.0173347 0.00729054 0.00545893 -3.54235e-05 -0.000265966 -3.92869e-11 1.00548e-11 5.0759e-12 5e-05 1.46608e-10 
250 1 0.149185 0.0170396 0.00747158 0.005601 -0.000674065 0.000113988 2.19049e-10 -7.56479e-11 -4.99216e-10 5e-05 1.46608e-10 
251 1 0.155184 0.0170134 0.00741343 0.00596086 0.00059724 -7.00075e-05 8.29007e-11 3.70802e-10 1.45557e-10 5e-05 1.46608e-10 
252 1 0.143278 0.0174636 0.00726203 0.00546743 -2.7957e-05 -0.000268804 -5.91134e-11 -1.05414e-10 3.72455e-11 5e-05 1.46608e-10 
253 1 0.143276 0.0170487 0.00745171 0.00563062 0.000809859 0.00121125 -6.01415e-11 -1.2888e-10 5.41755e-10 5e-05 1.46608e-10 
254 1 0.143101 0.0166904 0.00767287 0.00567635 0.000594904 0.00146274 -2.40019e-11 5.43303e-11 -1.0541e-10 5e-05 1.46608e-10 
255 1 0.149676 0.0188893 0.00683332 0.00612962 -0.00105302 0.000480961 1.38652e-09 -3.34704e-10 -7.49586e-10 5e-05 1.46608e-10 
256 1 0.149705 0.0177518 0.00721946 0.00550318 -0.00071119 0.000112417 -2.69286e-10 7.86564e-11 -8.40579e-11 5e-05 1.46608e-10 
257 1 0.149496 0.0179711 0.00723668 0.00572028 -0.00114851 -9.80937e-05 3.03137e-12 -3.67236e-10 6.38146e-10 5e-05 1.46608e-10 
258 1 0.149497 0.0180893 0.00711007 0.00567805 -0.000633802 0.000312895 1.10972e-10 -2.23905e-10 2.0644e-10 5e-05 1.46608e-10 
259 1 0.143298 0.0175578 0.00723467 0.00550815 -3.27336e-05 -0.000268923 2.78834e-11 -1.75887e-11 4.28807e-12 5e-05 1.46608e-10 
261 1 0.149556 0.0179377 0.00716142 0.00562493 -0.000708931 -0.000126016 2.24304e-10 -2.01192e-10 -1.95195e-10 5e-05 1.46608e-10 