ITEM: TIMESTEP
1000000
ITEM: NUMBER OF ATOMS
144
ITEM: BOX BOUNDS ff ff ff
-0.02 0.43
-0.02 0.06
-0.02 0.07
ITEM: ATOMS id type x y z vx vy vz fx fy fz radius mass 
1 1 0.0190804 0.0181395 0.00698162 0.00515445 -0.00279863 0.000637081 5.4921e-11 1.77023e-10 -7.30691e-12 5e-05 1.46608e-10 
2 1 0.0194447 0.0189913 0.00685498 0.00472972 -0.00153796 0.000416477 1.04391e-10 2.73576e-10 -9.62251e-11 5e-05 1.46608e-10 
3 1 0.0152049 0.0204355 0.00718729 3.31315e-16 -1.12794e-14 9.2385e-14 -6.45427e-25 -5.16988e-26 0 5e-05 1.46608e-10 
4 1 0.0201228 0.0191931 0.00684385 7.69609e-15 -4.82647e-14 -1.50448e-13 1.01544e-20 2.93686e-19 -4.99046e-20 5e-05 1.46608e-10 
5 1 0.0189848 0.0181072 0.00698358 0.00517217 -0.0027785 0.000635074 -2.44264e-10 3.36835e-11 -4.25739e-11 5e-05 1.46608e-10 
6 1 0.0247036 0.016888 0.00741097 0.00595811 -0.000913308 0.000610501 -2.88514e-12 -2.61406e-12 1.42225e-12 5e-05 1.46608e-10 
7 1 0.0191617 0.018979 0.00684715 0.00503202 -0.00274558 0.000622882 2.27922e-10 -2.71446e-10 -1.25687e-10 5e-05 1.46608e-10 
8 1 0.0188843 0.0176364 0.00710487 0.00563315 -0.00267868 0.00110317 -1.03555e-09 -1.66855e-10 -2.07616e-11 5e-05 1.46608e-10 
9 1 0.0251137 0.0187195 0.00699286 0.00536338 -0.00189301 0.000186586 4.36421e-13 -2.19636e-13 4.49133e-14 5e-05 1.46608e-10 
10 1 0.0191041 0.0186881 0.00689271 0.005085 -0.00275728 0.000627411 1.41529e-10 -1.68365e-11 -9.01205e-11 5e-05 1.46608e-10 
11 1 0.0195446 0.0189923 0.0068583 0.00470244 0.000805875 3.29282e-05 -1.17745e-10 1.27203e-10 -4.85642e-12 5e-05 1.46608e-10 
12 1 0.0175318 0.0238282 0.0115193 -0.00383139 -0.00760521 -0.0137095 -7.83758e-11 -3.40382e-10 -6.13597e-10 5e-05 1.46608e-10 
13 1 0.0189646 0.0180105 0.0069987 0.00512986 -0.00279399 0.000625951 1.85462e-12 4.41573e-10 -2.00506e-10 5e-05 1.46608e-10 
14 1 0.0140801 0.0205958 0.00727456 -1.29116e-14 4.2933e-14 -2.30778e-13 -2.84343e-25 3.10193e-25 0 5e-05 1.46608e-10 
15 1 0.0192947 0.0192078 0.00683648 0.0050211 -0.00271773 -0.000625117 2.34389e-10 -1.61617e-10 -2.80273e-10 5e-05 1.46608e-10 
16 1 0.0137219 0.020607 0.00729668 3.60713e-15 -1.19876e-14 6.44398e-14 1.84306e-23 -3.10193e-24 -1.65436e-24 5e-05 1.46608e-10 
17 1 0.0190848 0.0185912 0.0069079 0.00502322 -0.00271085 0.000618085 6.61264e-11 1.70612e-10 3.22359e-12 5e-05 1.46608e-10 
18 1 0.0248527 0.0175234 0.00719961 0.00595328 -0.00109175 0.000199665 -1.46635e-12 -3.92517e-13 -1.05687e-13 5e-05 1.46608e-10 
19 1 0.0189443 0.0179137 0.00701382 0.00511848 -0.00277722 0.000625682 2.15968e-10 6.0389e-10 4.55953e-10 5e-05 1.46608e-10 
21 1 0.0190596 0.0180422 0.00699682 0.00512858 -0.00281763 0.000641818 2.54553e-10 -1.96573e-10 5.85568e-11 5e-05 1.46608e-10 
22 1 0.0192002 0.0191751 0.00684095 0.00510961 -0.00278859 0.000595349 5.0299e-11 3.10615e-11 1.91414e-10 5e-05 1.46608e-10 
23 1 0.0179973 0.0238334 0.0115288 4.69696e-05 -0.000798987 -0.00144032 -1.17113e-12 2.22135e-11 4.00698e-11 5e-05 1.46608e-10 
24 1 0.024917 0.017813 0.00715491 0.00589162 -0.00107925 0.000197285 1.70236e-13 9.95079e-13 4.20597e-13 5e-05 1.46608e-10 
25 1 0.0191426 0.018882 0.00686234 0.0051672 -0.00277084 0.000634773 1.28693e-10 -3.3539e-10 7.33045e-12 5e-05 1.46608e-10 
26 1 0.0247883 0.0172338 0.00724432 0.0060147 -0.00110461 0.000202796 8.18509e-11 -3.01671e-11 4.90237e-12 5e-05 1.46608e-10 
27 1 0.0177916 0.0238378 0.0115367 4.44713e-05 -0.000754571 -0.00136026 -1.02599e-12 2.23765e-11 4.03325e-11 5e-05 1.46608e-10 
28 1 0.0199433 0.0192021 0.00683738 -5.77244e-13 -7.03023e-14 -5.92247e-14 2.29869e-18 7.83159e-18 2.68631e-18 5e-05 1.46608e-10 
29 1 0.0189241 0.017817 0.0070294 0.00502946 -0.00273104 0.000685215 -6.8221e-11 -3.8588e-10 4.55868e-10 5e-05 1.46608e-10 
30 1 0.0197387 0.0190733 0.00685181 4.8814e-14 1.43904e-13 -2.00294e-13 3.06708e-18 -9.91929e-21 1.61734e-18 5e-05 1.46608e-10 
31 1 0.0191809 0.019077 0.00684142 0.00506954 -0.00277194 0.00069353 -1.32054e-10 -3.26875e-10 -6.05076e-10 5e-05 1.46608e-10 
32 1 0.0192753 0.01911 0.00682967 0.00512094 -0.0028575 0.000658922 1.183e-10 2.53103e-11 8.44841e-12 5e-05 1.46608e-10 
33 1 0.0247244 0.0169679 0.00735443 0.0059954 -0.000920705 0.000615502 1.43637e-11 3.53301e-12 6.20797e-12 5e-05 1.46608e-10 
34 1 0.0190656 0.0184942 0.00692309 0.00511791 -0.00271194 0.000621071 1.96054e-13 8.3418e-11 -5.21233e-11 5e-05 1.46608e-10 
35 1 0.0192565 0.0190116 0.00684511 0.00503081 -0.0027914 0.000642864 -1.58588e-10 -3.29613e-10 -1.31904e-10 5e-05 1.46608e-10 
36 1 0.0252134 0.0192309 0.00689462 0.00521839 -0.00175857 0.00016605 3.69732e-13 -2.71598e-13 1.86811e-14 5e-05 1.46608e-10 
37 1 0.019218 0.0188176 0.00687549 0.00515624 -0.00280118 0.000640179 9.97851e-11 -2.88806e-10 1.84596e-11 5e-05 1.46608e-10 
38 1 0.0193748 0.0191011 0.00683458 0.00529131 -0.00116925 0.000378776 4.85608e-10 -1.09771e-10 3.23799e-11 5e-05 1.46608e-10 
39 1 0.0249668 0.0180367 0.00712037 0.00552184 -0.00251845 0.000419205 -2.23846e-13 5.24276e-13 -7.92792e-14 5e-05 1.46608e-10 
40 1 0.0178959 0.0238356 0.0115327 4.57422e-05 -0.000777101 -0.00140088 -1.23309e-12 2.22941e-11 4.01888e-11 5e-05 1.46608e-10 
41 1 0.0190254 0.0183007 0.00695335 0.00524751 -0.00274156 0.000631894 -2.28279e-10 -5.44874e-12 1.08797e-11 5e-05 1.46608e-10 
42 1 0.0192197 0.0192729 0.00684818 0.00506877 -0.00269152 -0.000495607 -2.70177e-11 -1.1122e-10 5.39191e-10 5e-05 1.46608e-10 
44 1 0.0195537 0.0191477 0.0068332 1.94836e-06 -2.63883e-05 -4.15437e-07 1.58781e-10 -6.36678e-12 -1.83799e-11 5e-05 1.46608e-10 
45 1 0.0247452 0.0170477 0.00729788 0.00603326 -0.00092663 0.00062041 1.37043e-11 -5.21381e-12 -4.36397e-12 5e-05 1.46608e-10 
46 1 0.0248312 0.0174269 0.00721451 0.00597431 -0.00109553 0.000200024 -3.0588e-12 1.22461e-11 -6.99454e-12 5e-05 1.46608e-10 
47 1 0.0190456 0.0183975 0.00693822 0.00525919 -0.00272755 0.000629438 -2.39748e-10 -4.46324e-11 7.94613e-12 5e-05 1.46608e-10 
48 1 0.0192587 0.0194684 0.00686398 0.00509817 -0.00266274 -0.0006276 2.09417e-10 5.89152e-10 9.28287e-11 5e-05 1.46608e-10 
49 1 0.0248098 0.0173303 0.00722942 0.00599544 -0.00109933 0.000200852 -4.68578e-13 -5.93197e-12 7.63435e-12 5e-05 1.46608e-10 
50 1 0.0200307 0.019253 0.00683108 -5.5495e-15 3.5831e-14 1.4266e-13 -2.47529e-21 9.68215e-22 -2.33679e-22 5e-05 1.46608e-10 
51 1 0.0198452 0.0193217 0.00681692 3.35227e-12 -1.42688e-13 -2.61591e-13 -4.10656e-18 3.53328e-18 -4.46396e-18 5e-05 1.46608e-10 
52 1 0.0171952 0.0229987 0.0101263 -0.0195199 -0.0627611 -0.0997143 -1.42065e-10 -3.25399e-10 -5.04682e-10 5e-05 1.46608e-10 
53 1 0.0248741 0.0176199 0.00718471 0.00593277 -0.00108743 0.000198713 4.10595e-13 -3.07723e-12 3.02541e-12 5e-05 1.46608e-10 
54 1 0.0190339 0.0178705 0.00702401 0.00510392 -0.00277025 0.000623997 -3.79353e-10 5.54627e-10 -8.01631e-11 5e-05 1.46608e-10 
55 1 0.0145775 0.020404 0.00721103 -1.29118e-14 4.2933e-14 -2.30778e-13 -1.80946e-25 5.16988e-26 0 5e-05 1.46608e-10 
56 1 0.0192372 0.0189146 0.0068603 0.00502647 -0.00272212 0.000623093 1.32129e-10 -4.14594e-10 -4.69839e-11 5e-05 1.46608e-10 
57 1 0.0247683 0.017137 0.00725927 0.00601708 -0.00110363 0.000200756 -2.78585e-11 -2.15147e-11 2.27858e-12 5e-05 1.46608e-10 
59 1 0.0193204 0.0186706 0.00690312 0.00295804 0.00129749 -0.000108824 -2.27427e-10 -1.13586e-10 2.32168e-11 5e-05 1.46608e-10 
60 1 0.0193175 0.018809 0.00688037 0.00516526 -0.00275097 0.000630389 3.40368e-10 2.70229e-10 7.83475e-12 5e-05 1.46608e-10 
61 1 0.0190051 0.018204 0.00696846 0.00520694 -0.00275879 0.00063267 -1.13406e-10 1.24566e-10 -5.10366e-11 5e-05 1.46608e-10 
62 1 0.0196462 0.0191108 0.00684246 5.18888e-08 -3.13043e-08 6.92673e-09 -2.51328e-12 -1.47799e-13 -6.33289e-14 5e-05 1.46608e-10 
63 1 0.0196927 0.0192412 0.00682275 -1.41279e-12 -2.1896e-13 -1.45149e-13 -1.95968e-17 -4.02618e-18 -8.42398e-18 5e-05 1.46608e-10 
64 1 0.0248956 0.0177164 0.00716981 0.00591228 -0.0010833 0.000197994 -1.17179e-14 1.95872e-12 -2.21906e-12 5e-05 1.46608e-10 
65 1 0.0176851 0.0238401 0.0115407 4.31913e-05 -0.000731595 -0.00131884 -1.11451e-12 2.24599e-11 4.04594e-11 5e-05 1.46608e-10 
66 1 0.0167812 0.0220953 0.00873097 -0.0271109 -0.0914429 -0.145684 1.67021e-10 -4.26356e-10 -7.6765e-10 5e-05 1.46608e-10 
67 1 0.0194759 0.0190852 0.00684071 -3.91848e-05 3.31827e-05 -6.87272e-06 -1.51149e-10 1.2066e-10 -4.06811e-11 5e-05 1.46608e-10 
68 1 0.0198714 0.0191187 0.006849 2.95941e-15 -1.39096e-14 -8.50386e-14 7.86468e-24 2.32645e-25 2.06795e-25 5e-05 1.46608e-10 
69 1 0.0191733 0.0185459 0.00691839 0.00496612 -0.00274106 0.000621287 -1.46264e-10 -9.66788e-11 1.70226e-13 5e-05 1.46608e-10 
70 1 0.0250191 0.0182703 0.00707937 0.00560636 -0.00197658 0.000194632 -4.48272e-13 6.02636e-13 -9.62902e-14 5e-05 1.46608e-10 
71 1 0.0143505 0.0204792 0.00723773 -1.29118e-14 4.2933e-14 -2.30778e-13 -3.74816e-25 0 0 5e-05 1.46608e-10 
72 1 0.0197611 0.0191696 0.00683684 -2.21872e-13 2.56995e-13 -1.88295e-13 -1.51828e-17 7.25831e-18 -3.71692e-18 5e-05 1.46608e-10 
73 1 0.0191234 0.0187852 0.0068786 0.00511392 -0.00276159 0.000634657 1.70473e-10 -1.94475e-10 -1.14601e-10 5e-05 1.46608e-10 
74 1 0.0194594 0.0191975 0.00682344 -1.92009e-15 2.50468e-15 -2.62516e-14 0 0 0 5e-05 1.46608e-10 
76 1 0.0215498 0.0205655 0.0160925 -1.06057e-09 0.0277687 -0.00915826 -8.22442e-20 -8.11857e-12 -2.45972e-11 5e-05 1.46608e-10 
77 1 0.0233993 0.0205472 0.0152062 7.41232e-11 0.0223604 -0.00903597 1.6647e-20 -7.99962e-12 -1.97588e-11 5e-05 1.46608e-10 
78 1 0.015098 0.0204985 0.0071995 3.60549e-15 -1.19881e-14 6.44398e-14 -2.62371e-24 -1.55096e-25 2.06795e-25 5e-05 1.46608e-10 
79 1 0.016662 0.0226949 0.0180787 0 0 -0.0884921 0 0 -1.43822e-09 5e-05 1.46608e-10 
80 1 0.0207838 0.0225497 0.00861402 -0.00837534 -0.114721 -0.0468327 0 0 -1.43822e-09 5e-05 1.46608e-10 
81 1 0.0165069 0.0180374 0.0156937 3.36085e-05 0.0222963 0.0967108 0 0 -1.43822e-09 5e-05 1.46608e-10 
82 1 0.0179632 0.0239394 0.0124236 0.0120348 -0.0920809 -0.0322044 0 0 -1.43822e-09 5e-05 1.46608e-10 
83 1 0.0157199 0.0201372 0.00714902 5.5651e-16 -2.362e-14 9.08852e-14 3.11579e-19 -1.0807e-17 -1.32062e-18 5e-05 1.46608e-10 
84 1 0.0233477 0.0151271 0.0131215 -1.76618e-05 -0.0854002 -0.143819 0 0 -1.43822e-09 5e-05 1.46608e-10 
85 1 0.0148519 0.0201535 0.00715413 3.3e-16 -1.12794e-14 9.2385e-14 6.40338e-24 1.29247e-25 0 5e-05 1.46608e-10 
86 1 0.0198456 0.0192227 0.00683109 -9.92507e-13 6.42491e-14 -3.21041e-13 -1.2742e-17 9.52307e-19 1.39175e-18 5e-05 1.46608e-10 
87 1 0.0219079 0.01537 0.0150086 0 0 -0.260893 0 0 -1.43822e-09 5e-05 1.46608e-10 
88 1 0.0217886 0.0196732 0.00690823 -0.00496886 -0.0606805 -0.0235877 8.04947e-11 1.35119e-10 5.08794e-11 5e-05 1.46608e-10 
89 1 0.020756 0.0192264 0.00685557 -3.97862e-15 2.47095e-14 1.44604e-13 -3.07802e-23 1.49926e-24 -1.24077e-24 5e-05 1.46608e-10 
90 1 0.0197989 0.0187393 0.00690853 -7.4575e-15 3.50333e-14 2.14188e-13 8.29766e-24 2.84343e-25 2.06795e-25 5e-05 1.46608e-10 
91 1 0.0185358 0.0238403 0.0115406 -0.00462495 0.000134328 -0.000431541 -7.90868e-08 -2.50457e-09 -2.00934e-09 5e-05 1.46608e-10 
92 1 0.0200132 0.0191008 0.00685661 -3.45779e-15 2.15749e-14 1.45154e-13 -4.58956e-21 2.50125e-20 -4.40019e-21 5e-05 1.46608e-10 
93 1 0.02205 0.020365 0.0152707 7.29996e-11 0.0227539 -0.00792371 2.32305e-20 -7.00392e-12 -2.01111e-11 5e-05 1.46608e-10 
94 1 0.0206448 0.0191119 0.00687207 4.24177e-15 -2.63636e-14 -1.54285e-13 6.81778e-24 3.61892e-25 0 5e-05 1.46608e-10 
95 1 0.0222009 0.0210111 0.016693 0 0 -0.187132 0 0 -1.43822e-09 5e-05 1.46608e-10 
96 1 0.020463 0.0143247 0.0115592 -0.000521055 0.0199914 -0.0331921 4.9879e-12 4.4424e-10 -7.37583e-10 5e-05 1.46608e-10 
97 1 0.0162727 0.0205829 0.00728204 -0.0208921 -0.0881923 -0.0446211 0 0 -1.43822e-09 5e-05 1.46608e-10 
98 1 0.0230812 0.0228 0.00970696 -0.0295162 -0.0829683 -0.183196 0 0 -1.43822e-09 5e-05 1.46608e-10 
99 1 0.0168924 0.0222947 0.00903301 -0.0300189 -0.0801287 -0.125771 -1.25495e-10 -3.06992e-10 -4.98539e-10 5e-05 1.46608e-10 
100 1 0.0187302 0.0157423 0.00849326 0.0906212 0.051783 -0.19453 0 0 -1.43822e-09 5e-05 1.46608e-10 
101 1 0.0150847 0.0168013 0.0162584 -0.00336912 -0.0240158 0.0327617 0 0 -1.43822e-09 5e-05 1.46608e-10 
102 1 0.0643568 0.0187248 0.00531097 4.39053e-15 1.04714e-14 8.2957e-14 1.50883e-22 1.34572e-22 -3.12261e-23 5e-05 1.46608e-10 
103 1 0.0181356 0.0238305 0.0115235 4.86395e-05 -0.000828851 -0.00149416 -1.11456e-12 2.21111e-11 3.98674e-11 5e-05 1.46608e-10 
104 1 0.0179035 0.023884 0.0116198 4.57427e-05 -0.000777109 -0.00140087 -1.23308e-12 2.2294e-11 4.01888e-11 5e-05 1.46608e-10 
105 1 0.0153376 0.0205283 0.00719815 3.31571e-16 -1.12794e-14 9.2385e-14 6.39692e-23 1.70606e-24 0 5e-05 1.46608e-10 
106 1 0.019558 0.0238682 0.0115909 -0.0113113 0.0102288 0.0231788 1.18227e-06 -1.85685e-06 -3.13662e-06 5e-05 1.46608e-10 
107 1 0.0153722 0.0227783 0.0098895 -0.00542259 -0.0398593 -0.0682102 0 0 -1.43822e-09 5e-05 1.46608e-10 
108 1 0.0191988 0.0187206 0.00689069 0.00506997 -0.00275405 0.000625243 7.14056e-10 -2.30626e-10 2.15447e-10 5e-05 1.46608e-10 
109 1 0.0197078 0.01934 0.0068233 4.04875e-12 -4.91921e-13 -3.23049e-13 6.77504e-17 -1.52453e-17 5.13058e-18 5e-05 1.46608e-10 
110 1 0.0209405 0.0189933 0.00690047 4.24446e-15 -2.63636e-14 -1.54285e-13 -7.50925e-24 1.13737e-24 -4.1359e-25 5e-05 1.46608e-10 
111 1 0.0239435 0.0210562 0.0149511 8.05302e-06 0.0250553 -0.0145673 1.843e-13 8.99001e-11 -8.75272e-11 5e-05 1.46608e-10 
112 1 0.0156714 0.0205606 0.0072009 -7.58099e-16 2.58188e-14 -2.11472e-13 2.79497e-25 -2.58494e-26 2.06795e-25 5e-05 1.46608e-10 
113 1 0.0204268 0.0191237 0.0167364 -0.000995007 0.0366706 -0.0415026 0 0 -1.43822e-09 5e-05 1.46608e-10 
114 1 0.01843 0.0238363 0.0115334 0.00283107 0.000382693 2.51462e-05 -8.37306e-08 1.25102e-08 1.1164e-08 5e-05 1.46608e-10 
115 1 0.0195772 0.0192439 0.00681926 -5.33303e-06 -1.97076e-05 3.40832e-06 -1.35874e-10 5.98957e-11 4.92058e-11 5e-05 1.46608e-10 
116 1 0.0192304 0.0186272 0.00690707 0.00496459 -0.00276831 0.000625128 3.15774e-10 -4.9015e-10 5.05111e-11 5e-05 1.46608e-10 
117 1 0.0190133 0.0177728 0.00703927 0.00522196 -0.00235977 0.000578879 -5.94573e-10 3.73001e-10 -3.64797e-11 5e-05 1.46608e-10 
118 1 0.0149479 0.0206112 0.00722886 -1.29122e-14 4.29328e-14 -2.30778e-13 3.30743e-23 2.42984e-24 -1.44757e-24 5e-05 1.46608e-10 
119 1 0.0193872 0.0188801 0.00687118 0.00508502 -0.00267504 0.000616064 5.91383e-10 2.72619e-10 -4.98503e-11 5e-05 1.46608e-10 
120 1 0.0189048 0.0177246 0.00706241 0.00504584 -0.00263241 0.00108153 1.39282e-09 -8.25058e-10 6.5093e-10 5e-05 1.46608e-10 
121 1 0.0188627 0.0175485 0.00714725 0.00556889 -0.00273344 0.00112506 -4.15488e-11 4.87102e-10 -2.19982e-10 5e-05 1.46608e-10 
122 1 0.0207577 0.0190407 0.00688734 -3.97535e-15 2.47093e-14 1.44604e-13 9.75815e-25 -2.58494e-25 2.06795e-25 5e-05 1.46608e-10 
123 1 0.0155708 0.0202071 0.00715809 -7.58018e-16 2.58188e-14 -2.11472e-13 1.24966e-24 2.58494e-26 -2.06795e-25 5e-05 1.46608e-10 
124 1 0.0205936 0.0192243 0.00685146 -3.97573e-15 2.47092e-14 1.44604e-13 -1.81592e-24 3.10193e-25 -2.06795e-25 5e-05 1.46608e-10 
125 1 0.0189942 0.0176832 0.0070793 0.00534019 -0.00214821 0.00084379 3.58468e-10 -4.35862e-10 3.05814e-10 5e-05 1.46608e-10 
126 1 0.0192392 0.0193707 0.00685608 0.00509531 -0.0026733 -0.000623027 1.62165e-10 4.98128e-10 1.63091e-10 5e-05 1.46608e-10 
127 1 0.0158039 0.0209714 0.00736266 0.00201805 -0.051973 0.0362427 0 0 -1.43822e-09 5e-05 1.46608e-10 
128 1 0.0201233 0.0192988 0.00682579 -4.26175e-14 2.00122e-13 -1.78679e-13 1.3528e-18 -9.53377e-18 1.53704e-18 5e-05 1.46608e-10 
129 1 0.0215211 0.0193598 0.00685381 -3.97528e-15 2.47088e-14 1.44604e-13 -7.45755e-24 3.67061e-24 -6.20385e-25 5e-05 1.46608e-10 
130 1 0.0182906 0.0238313 0.0115243 0.00283501 0.000353496 3.24237e-05 -1.23761e-07 -5.65291e-10 1.49329e-08 5e-05 1.46608e-10 
131 1 0.0162994 0.0206848 0.00732172 -0.0222184 -0.0909594 -0.0337552 0 0 -1.43822e-09 5e-05 1.46608e-10 
132 1 0.0203193 0.019253 0.00683901 5.15463e-15 -3.20384e-14 -1.87495e-13 8.40105e-25 1.55096e-25 0 5e-05 1.46608e-10 
133 1 0.0183351 0.0150276 0.0107554 0.0195112 -0.0296575 -0.140542 0 0 -1.43822e-09 5e-05 1.46608e-10 
134 1 0.0193469 0.0189702 0.00685504 0.00501479 -0.00272868 0.000618666 1.25663e-10 8.50015e-11 2.943e-11 5e-05 1.46608e-10 
135 1 0.0188412 0.0174605 0.00718963 0.00556808 -0.00279292 0.00115228 4.88795e-12 1.20164e-10 -2.06615e-12 5e-05 1.46608e-10 
136 1 0.0151091 0.0203973 0.00718298 -7.57458e-16 2.58188e-14 -2.11472e-13 1.06225e-24 -1.55096e-25 -2.06795e-25 5e-05 1.46608e-10 
137 1 0.0236048 0.0204686 0.0152332 7.54284e-11 0.0225252 -0.00855621 2.01453e-20 -7.57014e-12 -1.99063e-11 5e-05 1.46608e-10 
138 1 0.0191206 0.0183327 0.00695142 0.00521824 -0.00277543 0.000636011 -1.68539e-10 4.32679e-10 -9.02931e-11 5e-05 1.46608e-10 
140 1 0.0205602 0.0206827 0.00735262 -0.00143171 -0.136493 -0.0763592 0 0 -1.43822e-09 5e-05 1.46608e-10 
141 1 0.0153517 0.0202892 0.00716891 3.3125e-16 -1.12794e-14 9.2385e-14 1.23916e-24 0 0 5e-05 1.46608e-10 
142 1 0.0190235 0.0238583 0.011573 0.0301966 0.00658784 0.0172327 -2.34958e-06 -8.98452e-07 -3.26306e-07 5e-05 1.46608e-10 
143 1 0.0162075 0.02034 0.00720075 -0.00725339 -0.0503746 0.00706714 0 0 -1.43822e-09 5e-05 1.46608e-10 
144 1 0.0186459 0.0238443 0.0115477 -0.00176518 0.00022792 -0.000432564 2.34909e-08 9.41202e-10 2.05736e-09 5e-05 1.46608e-10 
146 1 0.0161581 0.0156658 0.0169755 0 0 -0.171681 0 0 -1.43822e-09 5e-05 1.46608e-10 
147 1 0.0147255 0.0202475 0.00717365 3.60347e-15 -1.19887e-14 6.44398e-14 -1.13479e-23 -2.94683e-24 4.1359e-25 5e-05 1.46608e-10 
148 1 0.0188577 0.0238521 0.0115617 -0.000477136 -1.39997e-05 4.34713e-05 2.8534e-06 -6.67805e-07 -5.873e-07 5e-05 1.46608e-10 
149 1 0.0212548 0.0190059 0.00690696 5.15472e-15 -3.20384e-14 -1.87495e-13 -5.69333e-24 -1.60266e-24 0 5e-05 1.46608e-10 
150 1 0.0170898 0.0142485 0.0118952 0.000376953 -0.000521911 0.00116927 1.39034e-11 -2.04088e-11 4.6246e-11 5e-05 1.46608e-10 
