ITEM: TIMESTEP
2600000
ITEM: NUMBER OF ATOMS
287
ITEM: BOX BOUNDS ff ff ff
-0.02 0.43
-0.02 0.06
-0.02 0.07
ITEM: ATOMS id type x y z vx vy vz fx fy fz radius mass 
1 1 0.028026 0.0164503 0.00772726 0.00589484 -0.000396894 0.000160898 -6.30169e-11 7.34707e-12 -1.04796e-11 5e-05 1.46608e-10 
2 1 0.0283713 0.0171557 0.00728575 0.00555961 -0.000275355 0.000134248 1.12446e-10 -1.59021e-11 1.80133e-11 5e-05 1.46608e-10 
3 1 0.0219305 0.0164185 0.00773578 0.00558686 -0.00103339 0.000865827 -3.65413e-11 1.92738e-10 -1.30189e-10 5e-05 1.46608e-10 
4 1 0.0283393 0.0178573 0.00712255 0.00545736 -0.000335288 0.000146299 3.0966e-13 5.14814e-11 -7.38572e-12 5e-05 1.46608e-10 
5 1 0.0279077 0.0163522 0.00781127 0.00611216 -0.000528866 0.000264699 1.43041e-10 -7.82637e-11 9.56635e-11 5e-05 1.46608e-10 
6 1 0.0339683 0.016572 0.00764036 0.0056755 0.000240635 0.000151924 -2.37375e-11 2.337e-11 -1.10757e-11 5e-05 1.46608e-10 
7 1 0.028086 0.0170616 0.00730399 0.00552616 -0.000359158 0.000150872 2.70617e-11 2.04765e-11 2.28086e-11 5e-05 1.46608e-10 
8 1 0.027799 0.0159768 0.00812316 0.00607176 -0.000460408 0.000209086 2.6041e-11 4.13332e-11 -3.38685e-11 5e-05 1.46608e-10 
9 1 0.0342559 0.0178617 0.00702899 0.00585054 0.00119468 -0.000703971 7.11676e-13 2.86286e-13 -1.35185e-13 5e-05 1.46608e-10 
10 1 0.0280271 0.0168046 0.00743571 0.00573449 -0.000378238 0.000151749 -1.68746e-11 1.03429e-10 -1.11527e-10 5e-05 1.46608e-10 
11 1 0.0284113 0.0173467 0.00724194 0.00545265 -0.000270319 0.000131334 1.11076e-10 1.88305e-10 -3.99806e-11 5e-05 1.46608e-10 
12 1 0.0221267 0.0172517 0.00722823 0.00542465 -0.00122859 0.000222169 2.83794e-12 2.13152e-11 2.85835e-10 5e-05 1.46608e-10 
13 1 0.0278859 0.0162771 0.00787364 0.00609282 -0.000515737 0.000253459 -1.12184e-10 -1.30716e-10 1.07617e-10 5e-05 1.46608e-10 
14 1 0.0218439 0.0160937 0.0079526 0.00594965 -0.00112284 0.000936959 -5.25368e-11 8.51183e-11 -5.74136e-11 5e-05 1.46608e-10 
15 1 0.028221 0.0172837 0.00725416 0.00554664 -0.000323233 0.00014503 1.40855e-10 -1.22931e-11 -1.0598e-11 5e-05 1.46608e-10 
16 1 0.0218223 0.0160125 0.0080068 0.00595579 -0.00113297 0.000946217 3.7845e-11 1.02153e-10 -7.8353e-11 5e-05 1.46608e-10 
17 1 0.0280081 0.016729 0.00749841 0.0057061 -0.000359622 0.000136269 1.34932e-10 2.07376e-10 -1.60277e-10 5e-05 1.46608e-10 
18 1 0.0341113 0.0172015 0.00736898 0.00588443 0.000565917 -0.000382866 1.45289e-11 5.9127e-11 -3.0593e-11 5e-05 1.46608e-10 
19 1 0.0278642 0.016202 0.00793602 0.00607808 -0.000501035 0.000242243 -2.30238e-10 -1.06747e-10 8.66562e-11 5e-05 1.46608e-10 
21 1 0.0280042 0.0163751 0.00778972 0.00616515 -0.000507668 0.000245579 9.9741e-11 -1.15144e-11 2.37817e-11 5e-05 1.46608e-10 
22 1 0.028126 0.0172525 0.00726019 0.00554105 -0.000345054 0.000151419 3.53675e-11 -2.29138e-11 1.06091e-11 5e-05 1.46608e-10 
23 1 0.0223004 0.0176712 0.00716377 0.00524671 -0.00118594 0.000339492 3.72499e-10 8.52105e-11 9.40829e-12 5e-05 1.46608e-10 
24 1 0.0341859 0.0175351 0.00719715 0.00589371 0.00123357 -0.000724549 1.07879e-12 3.82499e-13 -2.25841e-13 5e-05 1.46608e-10 
25 1 0.0280659 0.0169661 0.00732589 0.00542827 -0.00032521 0.000142798 -2.38223e-10 1.49258e-10 -1.44662e-11 5e-05 1.46608e-10 
26 1 0.03405 0.0169316 0.0074855 0.00573751 0.000234857 0.00015733 -1.1344e-12 -1.05027e-11 4.0295e-12 5e-05 1.46608e-10 
27 1 0.0222057 0.017639 0.00716667 0.00522421 -0.00127195 0.000356624 -4.27596e-11 -8.279e-11 1.90245e-11 5e-05 1.46608e-10 
28 1 0.0283197 0.0177617 0.00714448 0.00541783 -0.000336622 0.000144318 -3.75202e-12 1.85891e-10 -2.40824e-11 5e-05 1.46608e-10 
29 1 0.0278424 0.016127 0.0079984 0.00607284 -0.00048985 0.000233375 -1.99901e-12 -7.2791e-11 6.59592e-11 5e-05 1.46608e-10 
30 1 0.0283558 0.0175063 0.00720421 0.00539814 -0.000294082 0.000136292 -1.47798e-10 1.41367e-10 -3.44921e-11 5e-05 1.46608e-10 
31 1 0.028106 0.017157 0.00728209 0.00553244 -0.000358694 0.000155626 -5.13089e-11 1.86883e-11 -2.57449e-12 5e-05 1.46608e-10 
32 1 0.0282009 0.0171882 0.00727606 0.0055284 -0.000327835 0.000145182 -8.58193e-12 -5.60393e-11 -2.57923e-11 5e-05 1.46608e-10 
33 1 0.0339887 0.0166619 0.00760164 0.00569065 0.000239747 0.000153058 -5.14753e-12 5.92799e-12 -2.87013e-12 5e-05 1.46608e-10 
34 1 0.0279891 0.0166535 0.0075611 0.00564689 -0.000353415 0.000133978 -8.37322e-11 1.72757e-10 -2.0537e-10 5e-05 1.46608e-10 
35 1 0.0281809 0.0170927 0.00729797 0.00551314 -0.000325766 0.000143232 -5.1196e-11 -2.36981e-11 8.78e-13 5e-05 1.46608e-10 
36 1 0.0343013 0.0180749 0.00691918 0.00563353 -0.000234146 3.03939e-05 1.99298e-13 4.49037e-14 3.17021e-14 5e-05 1.46608e-10 
37 1 0.0281406 0.0169042 0.00735056 0.0057578 -0.000372799 0.000150006 5.4972e-11 7.01946e-11 6.5752e-11 5e-05 1.46608e-10 
38 1 0.0282958 0.0172193 0.00727004 0.00556341 -0.000289184 0.000137495 1.08975e-10 -3.09569e-11 -3.73942e-12 5e-05 1.46608e-10 
39 1 0.0342092 0.0176431 0.00714154 0.00577542 0.00126444 -0.000738465 5.13338e-13 -1.33773e-12 6.61047e-13 5e-05 1.46608e-10 
41 1 0.027951 0.0165024 0.0076865 0.00580221 -0.000474867 0.000229991 -9.32913e-11 1.33134e-10 -1.13363e-10 5e-05 1.46608e-10 
42 1 0.0281461 0.017348 0.00723828 0.00554407 -0.000345476 0.000150834 1.58488e-11 -8.27877e-11 2.51908e-11 5e-05 1.46608e-10 
44 1 0.0283159 0.0173148 0.00724814 0.0055622 -0.000297038 0.000138928 -1.05744e-10 2.42205e-11 -6.84946e-12 5e-05 1.46608e-10 
45 1 0.0340092 0.0167518 0.00756293 0.00570598 0.000237988 0.000154538 -1.04967e-12 -6.52831e-12 3.54912e-12 5e-05 1.46608e-10 
46 1 0.0340908 0.0171115 0.00740807 0.00576898 0.000231372 0.000160319 -1.59245e-12 -1.04785e-11 4.51771e-12 5e-05 1.46608e-10 
47 1 0.02797 0.0165779 0.00762379 0.00560487 -0.000348467 0.000129831 -1.28954e-11 2.79806e-11 -5.46748e-11 5e-05 1.46608e-10 
48 1 0.0281861 0.017539 0.00719447 0.00540786 -0.000313837 0.000141165 -6.93888e-12 -7.72625e-11 1.49861e-11 5e-05 1.46608e-10 
49 1 0.0340704 0.0170216 0.00744679 0.00575328 0.00023324 0.000158761 -1.66451e-12 -1.09907e-11 4.16269e-12 5e-05 1.46608e-10 
50 1 0.0282446 0.0178258 0.00712868 0.00543687 -0.000319502 0.000142756 -1.38573e-11 1.34125e-11 -1.11111e-12 5e-05 1.46608e-10 
51 1 0.0282251 0.0177302 0.00715061 0.00541605 -0.000314963 0.000141584 -7.6887e-12 -2.8911e-11 5.22107e-12 5e-05 1.46608e-10 
52 1 0.0221059 0.0171513 0.00724372 0.00540499 -0.00136564 0.000237103 -5.41328e-11 -6.29466e-11 -2.49069e-13 5e-05 1.46608e-10 
53 1 0.0341368 0.0173116 0.00731228 0.00585318 0.00149699 -0.000859976 4.88709e-11 -4.95937e-11 3.47678e-11 5e-05 1.46608e-10 
54 1 0.027982 0.0162996 0.00785248 0.00612585 -0.000517857 0.000254143 2.42555e-10 -2.58382e-10 2.05821e-10 5e-05 1.46608e-10 
55 1 0.0218873 0.0162561 0.00784419 0.00592722 -0.00110421 0.000923904 -8.85554e-11 1.30548e-10 -9.06912e-11 5e-05 1.46608e-10 
56 1 0.0281608 0.0169972 0.00731987 0.00553466 -0.000333191 0.000146856 9.24456e-11 2.66531e-11 1.4351e-11 5e-05 1.46608e-10 
57 1 0.0340296 0.0168417 0.00752422 0.00572178 0.000236463 0.000155905 -1.13857e-12 -8.92213e-12 4.91419e-12 5e-05 1.46608e-10 
59 1 0.0282167 0.0168518 0.00739167 0.0056258 -0.000305691 0.000129332 -2.27453e-10 4.01671e-11 -4.29649e-11 5e-05 1.46608e-10 
60 1 0.0282355 0.0169326 0.0073358 0.00557753 -0.000287035 0.000136485 1.04408e-10 1.94782e-12 1.56837e-11 5e-05 1.46608e-10 
61 1 0.0279293 0.0164273 0.00774888 0.00610097 -0.000530359 0.000266543 2.67138e-10 2.02159e-10 -2.08562e-10 5e-05 1.46608e-10 
62 1 0.0283359 0.0174104 0.00722621 0.00541138 -0.000313321 0.000140881 1.67307e-10 2.15846e-10 -4.87867e-11 5e-05 1.46608e-10 
63 1 0.0282808 0.0175705 0.00718837 0.00540198 -0.000293938 0.000136324 -1.1075e-10 3.00886e-11 -6.90086e-12 5e-05 1.46608e-10 
64 1 0.0341615 0.0174244 0.00725419 0.00585713 0.00128088 -0.000748171 9.86108e-13 -7.07298e-13 3.37751e-13 5e-05 1.46608e-10 
65 1 0.022222 0.0172838 0.00722489 0.00541267 -0.00117739 0.000439545 -7.21906e-10 3.35688e-10 8.57321e-11 5e-05 1.46608e-10 
66 1 0.0221633 0.0170161 0.00733629 0.00536973 -0.00104096 0.000825868 -2.82414e-10 5.74777e-10 4.34027e-10 5e-05 1.46608e-10 
67 1 0.0283914 0.0172511 0.00726385 0.00556202 -0.000283042 0.000135624 -4.7691e-11 8.99111e-11 -1.75669e-11 5e-05 1.46608e-10 
68 1 0.028395 0.0176977 0.0071603 0.00541658 -0.000290555 0.000135685 4.93953e-11 -1.57138e-11 3.67291e-12 5e-05 1.46608e-10 
69 1 0.0280837 0.0166775 0.00753868 0.00572019 -0.000335636 0.000116997 7.69118e-12 4.94149e-11 -4.80459e-11 5e-05 1.46608e-10 
70 1 0.0342323 0.0177513 0.00708583 0.00581024 0.00121881 -0.000715672 7.97075e-13 4.98357e-14 -5.63187e-14 5e-05 1.46608e-10 
71 1 0.0218656 0.0161749 0.0078984 0.00594566 -0.00111486 0.000931649 -1.26153e-10 1.35967e-10 -9.411e-11 5e-05 1.46608e-10 
72 1 0.0283755 0.0176021 0.00718223 0.00540426 -0.000289384 0.00013524 -5.16506e-11 -4.45641e-12 7.80493e-13 5e-05 1.46608e-10 
73 1 0.0280461 0.0168801 0.00737303 0.00577411 -0.000392174 0.000158107 1.54226e-11 9.53181e-11 -5.95941e-11 5e-05 1.46608e-10 
74 1 0.028241 0.0173791 0.00723226 0.00556046 -0.000319508 0.000144038 -4.16513e-11 2.12546e-11 -4.60494e-14 5e-05 1.46608e-10 
76 1 0.0224407 0.0183493 0.00705177 0.00564586 -0.00122976 0.000365208 -2.1797e-11 -7.38123e-11 1.09823e-11 5e-05 1.46608e-10 
77 1 0.0284925 0.0185502 0.00696372 0.00545742 -0.000379187 0.000156504 -6.91828e-11 -7.91728e-12 -4.38653e-12 5e-05 1.46608e-10 
78 1 0.0219504 0.0165 0.00768132 0.0053953 -0.000994765 0.000833391 -1.20858e-10 -2.497e-11 9.6709e-12 5e-05 1.46608e-10 
79 1 0.0221467 0.0173486 0.00721327 0.00543706 -0.00117037 0.000272312 5.95062e-11 8.35705e-10 -2.85114e-10 5e-05 1.46608e-10 
80 1 0.0283034 0.0181125 0.00706289 0.00547112 -0.000339391 0.000147783 3.21044e-12 -4.2574e-11 1.17758e-11 5e-05 1.46608e-10 
81 1 0.0220872 0.0170696 0.00729819 0.00541413 -0.00103941 0.000841006 -2.1529e-13 1.25441e-10 1.68376e-10 5e-05 1.46608e-10 
82 1 0.0222252 0.0177358 0.00715066 0.00523344 -0.00122714 0.000355659 3.28806e-11 -2.17481e-10 1.31778e-11 5e-05 1.46608e-10 
83 1 0.0222209 0.0168829 0.0074293 0.00527685 -0.00109368 0.000726392 -5.65683e-10 3.26144e-10 2.31748e-10 5e-05 1.46608e-10 
84 1 0.0342793 0.0179717 0.00697235 0.00589195 0.00117644 -0.000695296 5.91332e-13 2.71169e-13 -1.41972e-13 5e-05 1.46608e-10 
85 1 0.0220468 0.0164794 0.00769812 0.00543045 -0.000839918 0.000730396 -1.5836e-11 1.07301e-10 -7.61586e-11 5e-05 1.46608e-10 
86 1 0.0283003 0.0176661 0.00716642 0.00541193 -0.000295014 0.00013675 5.58966e-12 -1.79592e-11 4.20164e-12 5e-05 1.46608e-10 
87 1 0.0281977 0.0167762 0.0074543 0.00563428 -0.000318213 0.00011349 -1.01268e-10 -7.50585e-11 6.9967e-11 5e-05 1.46608e-10 
88 1 0.0283623 0.0183992 0.00699712 0.00548997 -0.000350346 0.000150607 -9.90268e-12 6.4414e-11 -2.0659e-11 5e-05 1.46608e-10 
89 1 0.028323 0.0182081 0.00704097 0.00547763 -0.00034157 0.000148208 2.42092e-11 -1.98013e-11 6.32851e-12 5e-05 1.46608e-10 
90 1 0.0283513 0.0170602 0.00730766 0.00553867 -0.000258434 0.000132951 1.40225e-10 -2.70484e-11 4.87697e-11 5e-05 1.46608e-10 
91 1 0.0221667 0.0174454 0.00719831 0.00534122 -0.00113552 0.000231904 1.31209e-10 -1.42082e-10 2.06766e-10 5e-05 1.46608e-10 
92 1 0.0284341 0.0178889 0.00711642 0.00545365 -0.000367392 0.000153995 1.18304e-10 3.40246e-11 -6.26686e-12 5e-05 1.46608e-10 
93 1 0.028418 0.0182398 0.0070348 0.00547604 -0.000353482 0.000151062 1.9832e-11 4.30738e-11 -7.83587e-12 5e-05 1.46608e-10 
94 1 0.0284932 0.0181758 0.0070506 0.00546384 -0.000366336 0.000153865 -2.37555e-11 -2.93933e-11 4.92731e-12 5e-05 1.46608e-10 
95 1 0.0282838 0.0180169 0.00708482 0.00546498 -0.000336189 0.000146867 -4.24241e-11 -5.28363e-11 9.29428e-12 5e-05 1.46608e-10 
96 1 0.0284538 0.0179845 0.00709448 0.0054395 -0.000361582 0.000152461 6.29137e-11 -6.02822e-11 1.47949e-11 5e-05 1.46608e-10 
97 1 0.0220495 0.0169075 0.00740903 0.00531972 -0.00101895 0.000870624 -1.14002e-09 -6.66086e-10 3.03231e-10 5e-05 1.46608e-10 
98 1 0.0283819 0.0184948 0.00697519 0.00549547 -0.000353375 0.000151679 -3.51726e-11 2.26905e-11 -1.18715e-11 5e-05 1.46608e-10 
99 1 0.0222018 0.0171881 0.00724573 0.00542241 -0.00112767 0.000694784 3.97119e-10 3.08959e-10 2.63531e-10 5e-05 1.46608e-10 
100 1 0.0283314 0.0169647 0.00732956 0.00554436 -0.000252134 0.000129704 8.63689e-11 -6.56897e-11 7.17056e-11 5e-05 1.46608e-10 
101 1 0.0221443 0.0169357 0.00739268 0.00530386 -0.000994049 0.000906038 3.07732e-10 -2.79356e-10 -8.30672e-11 5e-05 1.46608e-10 
102 1 0.0643568 0.0187248 0.00531097 4.17467e-15 1.05347e-14 8.29603e-14 1.68912e-21 -5.71944e-22 -8.06501e-24 5e-05 1.46608e-10 
103 1 0.24257 0.0191927 0.00520306 -1.3037e-23 -3.03968e-22 8.29106e-22 0 0 0 5e-05 1.46608e-10 
104 1 0.0224541 0.0179935 0.00711293 0.0054017 -0.00120718 0.000358194 5.26443e-10 -2.30197e-10 9.30802e-11 5e-05 1.46608e-10 
105 1 0.0220098 0.0167445 0.00751795 0.00552953 -0.00101623 0.000844594 -2.54497e-10 -2.2716e-10 1.65366e-10 5e-05 1.46608e-10 
106 1 0.0225294 0.0179286 0.00712563 0.00548568 -0.00129894 0.000210336 -4.29845e-11 1.70238e-10 5.10943e-11 5e-05 1.46608e-10 
107 1 0.0219702 0.0165815 0.00762687 0.0053039 -0.0009678 0.000812652 1.87991e-11 -1.1795e-10 6.19976e-11 5e-05 1.46608e-10 
108 1 0.0281218 0.0168286 0.00741328 0.00578151 -0.000358863 0.000127262 -5.52144e-11 1.44007e-11 -1.05407e-10 5e-05 1.46608e-10 
109 1 0.0282056 0.0176346 0.00717254 0.00541218 -0.000311278 0.000140547 -1.18033e-11 -6.50829e-11 1.70913e-11 5e-05 1.46608e-10 
110 1 0.0285093 0.0178249 0.00713222 0.00545978 -0.000367429 0.000154124 8.54293e-11 1.77844e-11 -2.08931e-12 5e-05 1.46608e-10 
111 1 0.0284214 0.0186859 0.00693135 0.00599297 -0.000446718 0.000179224 7.02674e-13 -6.13744e-11 1.66022e-11 5e-05 1.46608e-10 
112 1 0.0220688 0.016989 0.00735451 0.00529461 -0.00101911 0.000860724 -2.997e-10 -2.29052e-10 3.98593e-10 5e-05 1.46608e-10 
113 1 0.0226964 0.0178245 0.007142 0.00543363 -0.00140567 0.000244449 -1.56706e-10 1.69695e-10 5.01252e-11 5e-05 1.46608e-10 
114 1 0.0223952 0.017703 0.00715939 0.00529111 -0.00119337 0.00021407 1.06538e-10 2.83313e-12 -5.03942e-12 5e-05 1.46608e-10 
115 1 0.028261 0.0174747 0.00721034 0.00540682 -0.000317453 0.000141899 4.90967e-10 -1.79931e-11 1.03787e-11 5e-05 1.46608e-10 
116 1 0.0281028 0.016753 0.00747599 0.00575249 -0.000351115 0.000130313 3.14546e-11 8.03021e-11 -6.56315e-11 5e-05 1.46608e-10 
117 1 0.0279602 0.0162245 0.00791486 0.00614984 -0.000506564 0.000245165 -2.63122e-10 -1.6976e-10 1.41151e-10 5e-05 1.46608e-10 
118 1 0.021909 0.0163373 0.00779 0.00580483 -0.00108312 0.000906122 -1.25503e-10 2.16532e-10 -1.48399e-10 5e-05 1.46608e-10 
119 1 0.0282557 0.0170282 0.00731386 0.00551806 -0.000309343 0.000143131 -2.8557e-11 -7.01919e-11 1.29184e-12 5e-05 1.46608e-10 
120 1 0.0278207 0.0160519 0.00806078 0.00607407 -0.000474267 0.000220201 -4.00179e-11 -2.32665e-11 1.97068e-11 5e-05 1.46608e-10 
121 1 0.0277773 0.0159017 0.00818554 0.00607015 -0.000451995 0.000202107 6.70979e-11 1.48386e-10 -1.25757e-10 5e-05 1.46608e-10 
122 1 0.0285289 0.0179205 0.0071103 0.00544046 -0.000361028 0.000152312 1.23296e-10 -7.33254e-11 1.85871e-11 5e-05 1.46608e-10 
123 1 0.0220854 0.0166912 0.00755618 0.00549705 -0.00105444 0.000874765 -6.8611e-10 -1.19964e-10 1.77959e-10 5e-05 1.46608e-10 
124 1 0.0283786 0.0180485 0.00707869 0.00545051 -0.00035447 0.000150931 4.06659e-11 -4.36459e-11 1.12195e-11 5e-05 1.46608e-10 
125 1 0.0279385 0.0161494 0.00797726 0.00607467 -0.000508205 0.00024825 -1.20973e-10 -1.06878e-10 9.17658e-11 5e-05 1.46608e-10 
126 1 0.0281661 0.0174435 0.00721638 0.00555135 -0.000343394 0.000150139 -4.42723e-10 3.43209e-11 -1.20118e-11 5e-05 1.46608e-10 
127 1 0.0220296 0.016826 0.00746349 0.00551346 -0.00104779 0.00087075 -2.31545e-10 -5.34122e-10 2.56455e-10 5e-05 1.46608e-10 
128 1 0.0282641 0.0179214 0.00710675 0.00545809 -0.000328947 0.000145028 -1.44716e-11 -7.29621e-12 2.06098e-12 5e-05 1.46608e-10 
129 1 0.0283426 0.0183036 0.00701904 0.00548186 -0.000346492 0.000149694 4.44142e-12 3.81605e-11 -8.62936e-12 5e-05 1.46608e-10 
130 1 0.02232 0.0177679 0.00714778 0.00528203 -0.00119096 0.000348367 2.03432e-11 -1.07786e-11 -3.10277e-11 5e-05 1.46608e-10 
131 1 0.0221818 0.0170959 0.00727891 0.00545598 -0.00110098 0.000776411 2.81282e-10 -7.39371e-12 1.04579e-10 5e-05 1.46608e-10 
132 1 0.0283589 0.0179529 0.00710062 0.00545264 -0.000359033 0.000152087 6.52079e-11 1.17459e-11 -2.65743e-12 5e-05 1.46608e-10 
133 1 0.028121 0.0164741 0.00770498 0.00588455 -0.000410024 0.000172627 -6.40447e-10 2.69476e-11 -3.38978e-12 5e-05 1.46608e-10 
134 1 0.0282757 0.0171238 0.00729195 0.00553608 -0.00028594 0.000136627 1.85843e-11 1.12912e-12 5.06049e-12 5e-05 1.46608e-10 
135 1 0.0279168 0.0160743 0.00803964 0.0060601 -0.000502611 0.000243949 -1.90068e-10 -1.16531e-10 1.02014e-10 5e-05 1.46608e-10 
136 1 0.0220269 0.0163979 0.00775258 0.00564858 -0.000870207 0.000757434 -1.23204e-10 1.41567e-10 -9.58836e-11 5e-05 1.46608e-10 
137 1 0.0284418 0.0187813 0.00690947 0.00603837 -0.000444782 0.000180509 -1.83353e-10 -4.42678e-11 -1.62794e-11 5e-05 1.46608e-10 
138 1 0.0280646 0.0166017 0.00760158 0.00495241 0.00102969 -0.000985719 -5.09628e-10 5.94583e-10 -4.74867e-10 5e-05 1.46608e-10 
140 1 0.0285485 0.018016 0.00708837 0.00545701 -0.00035829 0.000151891 1.38797e-11 -1.0024e-10 2.26604e-11 5e-05 1.46608e-10 
141 1 0.0220666 0.0165609 0.00764366 0.00534671 -0.000829948 0.000720615 -1.20835e-10 2.283e-10 -1.44904e-10 5e-05 1.46608e-10 
142 1 0.0224148 0.0177999 0.00714446 0.00529687 -0.00119094 0.000291058 -1.57491e-10 -7.28883e-11 -3.25783e-11 5e-05 1.46608e-10 
143 1 0.0219906 0.0166629 0.00757249 0.00541725 -0.000988251 0.000827404 -9.76601e-11 -1.37737e-10 9.6236e-11 5e-05 1.46608e-10 
144 1 0.0223757 0.0176061 0.00717441 0.00528282 -0.00118239 0.000196505 -1.46405e-10 1.2892e-10 7.73564e-11 5e-05 1.46608e-10 
146 1 0.0222399 0.016963 0.00737255 0.00530582 -0.00110146 0.000741399 -3.8186e-10 4.56399e-10 6.95511e-11 5e-05 1.46608e-10 
147 1 0.0220054 0.0163167 0.0078068 0.00587591 -0.00091214 0.000792417 -1.53698e-10 2.86934e-10 -1.96513e-10 5e-05 1.46608e-10 
148 1 0.0222841 0.0180261 0.00710268 0.00527217 -0.00119335 0.000348723 4.7309e-11 3.92451e-11 -1.52471e-12 5e-05 1.46608e-10 
149 1 0.0286236 0.0179519 0.00710419 0.00544965 -0.000366644 0.000153781 5.51485e-11 -3.95114e-11 9.88983e-12 5e-05 1.46608e-10 
150 1 0.0222769 0.0171234 0.00725895 0.00544821 -0.00110482 0.000730677 1.59196e-12 5.44787e-10 -1.99197e-11 5e-05 1.46608e-10 
151 1 0.0225848 0.0177664 0.00715048 0.00537595 -0.00133252 0.000232975 5.32421e-11 2.67351e-10 -8.95065e-11 5e-05 1.46608e-10 
153 1 0.0221252 0.0168542 0.00744728 0.0054318 -0.00101774 0.00089261 1.2721e-09 -6.11643e-10 2.72142e-10 5e-05 1.46608e-10 
154 1 0.0223789 0.0180582 0.00709981 0.00527149 -0.00118508 0.000347335 7.09686e-11 2.70303e-11 -4.60265e-12 5e-05 1.46608e-10 
155 1 0.0224619 0.0184457 0.00703587 0.00564545 -0.00123073 0.000365368 -3.61924e-11 -7.44794e-11 7.20343e-12 5e-05 1.46608e-10 
156 1 0.0223593 0.0179614 0.0071158 0.0052866 -0.00118698 0.000348528 7.34914e-11 -2.72843e-11 1.17137e-11 5e-05 1.46608e-10 
157 1 0.0219312 0.0187687 0.00551176 -3.83286e-14 8.16669e-14 2.95888e-13 4.03225e-22 2.21426e-22 -2.25407e-23 5e-05 1.46608e-10 
158 1 0.022474 0.0180902 0.00709696 0.00554788 -0.00123779 0.000370488 2.02983e-10 -6.28467e-11 5.98727e-11 5e-05 1.46608e-10 
159 1 0.0284145 0.0177933 0.00713836 0.00544834 -0.000350066 0.000150158 5.41931e-11 8.36355e-11 -2.33965e-11 5e-05 1.46608e-10 
160 1 0.0223645 0.0184127 0.00703883 0.00564989 -0.00122977 0.000364995 -1.277e-11 -4.27507e-11 3.36001e-12 5e-05 1.46608e-10 
162 1 0.0223986 0.0181549 0.00708382 0.00526536 -0.00118568 0.000347339 2.53173e-11 5.42713e-11 -7.40157e-12 5e-05 1.46608e-10 
164 1 0.0226298 0.0187788 0.00698356 0.0058068 -0.00130168 0.000381926 -1.94239e-12 2.88105e-11 -7.12946e-12 5e-05 1.46608e-10 
165 1 0.0227004 0.0180243 0.00711097 0.00548552 -0.00129431 0.000227305 2.98082e-11 -3.4651e-11 4.12386e-12 5e-05 1.46608e-10 
166 1 0.0280798 0.0163235 0.00783001 0.00622682 -0.000475747 0.00021687 1.84418e-10 5.05324e-11 -5.16995e-11 5e-05 1.46608e-10 
167 1 0.0222586 0.0170431 0.00731576 0.00541516 -0.00111215 0.000749004 -6.31056e-10 4.83132e-10 -9.24249e-11 5e-05 1.46608e-10 
168 1 0.0225491 0.0180254 0.00711003 0.00552978 -0.00130164 0.000237185 1.59023e-10 3.27794e-11 -3.47762e-11 5e-05 1.46608e-10 
169 1 0.0227165 0.0179224 0.00712689 0.00549243 -0.00139047 0.000245496 7.03448e-11 -2.46231e-11 4.82729e-13 5e-05 1.46608e-10 
170 1 0.0225938 0.0181845 0.00708413 0.00558363 -0.001267 0.000370422 1.21641e-10 -5.48835e-11 -4.70312e-12 5e-05 1.46608e-10 
171 1 0.0281015 0.0163986 0.00776763 0.00591717 -0.000420378 0.000180208 -3.49995e-10 1.18484e-11 2.89459e-12 5e-05 1.46608e-10 
172 1 0.0226242 0.0179602 0.00712056 0.00551075 -0.00134566 0.000174992 7.74354e-11 -3.53439e-11 -1.72254e-10 5e-05 1.46608e-10 
173 1 0.0284094 0.0169039 0.00734465 0.00547561 -0.000304971 0.000135702 -3.01324e-11 6.90986e-11 -1.11907e-11 5e-05 1.46608e-10 
174 1 0.0225147 0.0182833 0.00706506 0.00563062 -0.00124452 0.000369347 -1.54835e-11 -5.46839e-11 1.01251e-11 5e-05 1.46608e-10 
175 1 0.0167339 0.0200721 0.00710625 0.00505872 -0.00453232 -0.000802388 2.53851e-11 3.96931e-11 2.42595e-12 5e-05 1.46608e-10 
176 1 0.0223396 0.0178647 0.00713179 0.00529554 -0.00118569 0.000347042 -1.18251e-10 -3.6325e-11 -1.05161e-11 5e-05 1.46608e-10 
177 1 0.0224064 0.0186057 0.007007 0.00572591 -0.00124044 0.000369236 -1.05371e-11 -3.86398e-11 -2.62236e-12 5e-05 1.46608e-10 
178 1 0.0226765 0.017727 0.00715706 0.00535537 -0.00137986 0.000241988 -8.53271e-11 7.34742e-11 -1.04743e-11 5e-05 1.46608e-10 
179 1 0.0226923 0.0182014 0.00708338 0.00558926 -0.00132941 0.00023706 1.53727e-10 -3.41908e-11 3.65747e-12 5e-05 1.46608e-10 
181 1 0.0223234 0.0182196 0.0070707 0.00526506 -0.00118805 0.000347802 1.21563e-11 4.42979e-11 -7.74603e-12 5e-05 1.46608e-10 
182 1 0.0280456 0.0165259 0.00766446 0.00580046 -0.000440858 0.000201758 -1.72291e-10 1.05383e-10 -7.58014e-11 5e-05 1.46608e-10 
183 1 0.0226272 0.0180916 0.00710013 0.00545823 -0.00132893 0.000234396 1.18528e-11 -6.34537e-11 -2.44152e-12 5e-05 1.46608e-10 
184 1 0.0283677 0.0177924 0.00722673 0.00542952 -0.000363877 0.000146407 1.56715e-10 -2.03559e-11 1.78722e-11 5e-05 1.46608e-10 
185 1 0.0222645 0.0179294 0.00711867 0.00527745 -0.00119556 0.000349335 -6.27414e-12 5.22584e-11 -1.10731e-11 5e-05 1.46608e-10 
186 1 0.0223038 0.0181228 0.00708669 0.00526733 -0.00119076 0.000348196 2.24432e-11 2.27836e-11 -3.85636e-12 5e-05 1.46608e-10 
187 1 0.0283114 0.0168753 0.00736974 0.00560043 -0.000276443 0.0001128 -1.46226e-11 -1.33178e-10 1.76289e-10 5e-05 1.46608e-10 
188 1 0.0285682 0.0181117 0.00706643 0.00546113 -0.000368975 0.000154503 -4.35409e-11 -8.99975e-11 2.13318e-11 5e-05 1.46608e-10 
189 1 0.0282733 0.0169931 0.00740582 0.00555018 -0.000286815 0.00014549 -1.18695e-10 -3.77753e-11 5.23904e-11 5e-05 1.46608e-10 
190 1 0.0167974 0.0199959 0.00709432 0.00506484 -0.00452791 -0.000802492 3.27266e-11 -8.59905e-11 -1.01726e-11 5e-05 1.46608e-10 
191 1 0.0284622 0.0188767 0.00688759 0.00608554 -0.000453094 0.000181734 1.59764e-10 1.54958e-10 -1.78412e-11 5e-05 1.46608e-10 
192 1 0.0224901 0.0177347 0.00715493 0.00535411 -0.00125088 0.000219608 1.57112e-10 2.49502e-11 2.28666e-11 5e-05 1.46608e-10 
193 1 0.0281787 0.0167006 0.00751698 0.00566502 -0.000329838 0.000111409 2.79541e-11 -2.03956e-10 1.68716e-10 5e-05 1.46608e-10 
194 1 0.022317 0.017315 0.00721933 0.00539347 -0.00119768 0.000207467 -6.99057e-10 3.71053e-10 -6.37404e-11 5e-05 1.46608e-10 
195 1 0.0227966 0.0179974 0.00711563 0.0055253 -0.00116873 0.000209296 -1.59965e-11 -1.39309e-10 2.8541e-11 5e-05 1.46608e-10 
196 1 0.0218006 0.0159314 0.00806109 0.0059638 -0.00113872 0.000959885 5.78276e-11 1.27555e-10 -1.43154e-10 5e-05 1.46608e-10 
197 1 0.0172161 0.0200183 0.00706584 2.03099e-14 -2.64943e-14 2.77687e-13 1.10506e-23 6.2297e-24 -2.06795e-25 5e-05 1.46608e-10 
198 1 0.0221862 0.0175422 0.00718267 0.0052186 -0.00124573 0.000350037 1.42558e-10 1.43394e-09 -2.67872e-10 5e-05 1.46608e-10 
199 1 0.0224188 0.0182516 0.00706784 0.00560957 -0.00122629 0.000364333 5.46315e-11 -2.05577e-11 6.79463e-12 5e-05 1.46608e-10 
200 1 0.022281 0.0175743 0.00717905 0.00530916 -0.0013096 -0.000509243 2.55113e-10 -2.20874e-11 -4.58378e-10 5e-05 1.46608e-10 
201 1 0.0227609 0.0186373 0.00701134 0.00577653 -0.00133348 0.000387047 1.63041e-11 -6.26681e-12 4.66264e-12 5e-05 1.46608e-10 
202 1 0.0225097 0.0178317 0.00714023 0.00542075 -0.00127821 0.000211993 1.30641e-12 1.49567e-10 4.47722e-11 5e-05 1.46608e-10 
203 1 0.0284299 0.0170001 0.00732258 0.00550935 -0.000276512 0.000134421 1.3658e-10 1.11457e-11 3.64052e-13 5e-05 1.46608e-10 
204 1 0.0222615 0.0174773 0.00719391 0.00527713 -0.00119164 0.000219959 -7.34231e-10 -2.92953e-11 -1.34364e-11 5e-05 1.46608e-10 
205 1 0.0226528 0.0184833 0.0070347 0.00568567 -0.00128948 0.000376551 7.32933e-11 -1.50178e-12 3.574e-12 5e-05 1.46608e-10 
206 1 0.0225359 0.0183798 0.00704917 0.00564683 -0.00123417 0.000365614 -1.04608e-12 -5.00935e-11 8.31233e-12 5e-05 1.46608e-10 
207 1 0.0221051 0.0167727 0.00750172 0.0054939 -0.0010419 0.000873868 2.90046e-10 -1.11523e-10 8.613e-10 5e-05 1.46608e-10 
208 1 0.0224939 0.0181869 0.00708098 0.00559232 -0.0012422 0.000369727 7.70862e-11 -5.30426e-11 -2.97943e-11 5e-05 1.46608e-10 
209 1 0.0222969 0.0172182 0.00723429 0.0054029 -0.00124676 0.000218273 -3.42116e-10 1.55213e-10 -1.08799e-10 5e-05 1.46608e-10 
210 1 0.0281046 0.0171268 0.00737741 0.00553131 -0.00039146 0.000156325 1.22674e-11 1.97548e-10 1.11577e-11 5e-05 1.46608e-10 
211 1 0.0284735 0.0180802 0.00707254 0.00546908 -0.000345384 0.000149033 -8.18836e-12 -9.31229e-11 2.23795e-11 5e-05 1.46608e-10 
212 1 0.0226109 0.0183105 0.00706306 0.0056398 -0.00127854 0.000373927 1.04478e-11 -1.37103e-11 1.57181e-11 5e-05 1.46608e-10 
213 1 0.0282924 0.0167997 0.00743232 0.00563949 -0.000316493 0.000105661 -1.34204e-10 -1.14601e-10 1.38369e-10 5e-05 1.46608e-10 
214 1 0.0283983 0.0181442 0.00705674 0.00547686 -0.00033896 0.000147679 1.04549e-11 -5.67921e-11 1.37676e-11 5e-05 1.46608e-10 
215 1 0.0167596 0.019787 0.00707716 0.00503752 -0.00459667 -0.000807039 7.28445e-13 5.41532e-12 1.09921e-13 5e-05 1.46608e-10 
216 1 0.0223857 0.0185091 0.00702293 0.00564351 -0.00122692 0.0003648 3.98142e-11 -4.51634e-11 1.84994e-11 5e-05 1.46608e-10 
217 1 0.0281402 0.0165496 0.00764231 0.0057879 -0.000379881 0.000150619 4.19238e-11 -9.80503e-11 9.0023e-11 5e-05 1.46608e-10 
218 1 0.0225061 0.0185993 0.00701084 0.00572027 -0.00125071 0.000371109 -1.09451e-11 2.01879e-11 -2.46138e-12 5e-05 1.46608e-10 
219 1 0.0284015 0.0185904 0.00695326 0.00547978 -0.000356677 0.000150737 1.12598e-10 -8.63868e-11 1.27556e-11 5e-05 1.46608e-10 
220 1 0.0223436 0.0183162 0.00705474 0.00561683 -0.00122197 0.000362753 -3.6607e-12 -4.72191e-11 6.66506e-12 5e-05 1.46608e-10 
221 1 0.0166771 0.0194434 0.00705041 0.00503382 -0.00455934 -0.000803188 5.26497e-12 -2.75596e-13 -3.94546e-13 5e-05 1.46608e-10 
222 1 0.0281593 0.0166251 0.00757963 0.00571262 -0.000351707 0.000129129 1.78741e-10 -2.04596e-10 1.60912e-10 5e-05 1.46608e-10 
223 1 0.0224344 0.0178967 0.00712891 0.00530166 -0.00118496 0.000348711 3.10888e-11 -1.68906e-10 1.80629e-11 5e-05 1.46608e-10 
224 1 0.0222448 0.0178326 0.00713467 0.00526637 -0.00121643 0.000352928 -7.37191e-11 -2.42002e-10 5.59732e-11 5e-05 1.46608e-10 
225 1 0.0284662 0.0171867 0.00727974 0.00556145 -0.000285141 0.000135917 1.12144e-10 1.55806e-10 -4.1603e-11 5e-05 1.46608e-10 
226 1 0.0226045 0.0178633 0.00713552 0.00545423 -0.00135355 0.000212916 -1.04992e-10 2.33509e-10 -9.11999e-11 5e-05 1.46608e-10 
227 1 0.0175751 0.0187762 0.00692108 8.94671e-13 1.98071e-14 2.1815e-13 -1.59931e-18 -3.8554e-18 -2.50857e-19 5e-05 1.46608e-10 
228 1 0.0167538 0.0201715 0.00711428 0.00483234 -0.00412966 -0.000747457 4.86047e-13 -8.15022e-13 -9.92421e-14 5e-05 1.46608e-10 
229 1 0.0221005 0.0169557 0.00748028 0.00479348 0.00148778 0.000219475 -3.46365e-10 -3.54485e-10 2.03198e-10 5e-05 1.46608e-10 
230 1 0.0226573 0.0189021 0.00696326 0.00586306 -0.00126835 0.000376711 1.77135e-11 3.69641e-11 7.09472e-12 5e-05 1.46608e-10 
231 1 0.0167065 0.0199496 0.00709656 0.00504111 -0.00458806 -0.000806463 6.86627e-13 5.18065e-12 4.33684e-13 5e-05 1.46608e-10 
232 1 0.0221367 0.0166222 0.00760722 0.0055753 -0.00102796 0.000855387 -1.39925e-10 6.57781e-11 -1.36862e-10 5e-05 1.46608e-10 
233 1 0.0223367 0.0174122 0.00720431 0.00531167 -0.0011384 0.000227793 -6.51107e-10 -9.06066e-11 2.17217e-11 5e-05 1.46608e-10 
234 1 0.0286433 0.0180475 0.00708226 0.00546233 -0.000367411 0.000154105 1.32299e-11 -4.26613e-11 9.60143e-12 5e-05 1.46608e-10 
235 1 0.0227053 0.0191541 0.00692152 0.00592714 -0.00134629 0.000392964 1.11527e-10 7.54956e-11 -9.12471e-12 5e-05 1.46608e-10 
236 1 0.0226879 0.0190111 0.00694546 0.00590178 -0.00128403 0.000381733 -1.91191e-11 -1.09378e-10 2.02922e-11 5e-05 1.46608e-10 
237 1 0.0227543 0.0189378 0.00695983 0.00588635 -0.00129609 0.000383253 3.31533e-11 -2.25693e-11 6.03726e-12 5e-05 1.46608e-10 
239 1 0.0163773 0.0184724 0.00694342 0.00461113 -0.00517979 -0.000648936 2.25006e-13 6.29007e-14 6.07318e-15 5e-05 1.46608e-10 
240 1 0.0164608 0.018851 0.00698934 0.00480326 -0.00564099 -0.000705933 6.45421e-13 -8.94315e-13 -1.18775e-13 5e-05 1.46608e-10 
241 1 0.016358 0.0183714 0.00693116 0.00464619 -0.00520353 -0.000651959 3.22984e-13 -4.50836e-14 -3.83698e-15 5e-05 1.46608e-10 
242 1 0.0225448 0.0175719 0.00718053 0.00518309 -0.00131568 0.000230999 1.44335e-10 -1.92431e-10 5.23259e-11 5e-05 1.46608e-10 
243 1 0.022242 0.0173804 0.00720895 0.00533235 -0.00120337 0.000212563 -3.38533e-10 9.28761e-11 -2.94542e-10 5e-05 1.46608e-10 
244 1 0.0164043 0.0185993 0.00695881 0.0048146 -0.00561935 -0.000703331 8.63045e-13 -1.28114e-12 -1.31203e-13 5e-05 1.46608e-10 
246 1 0.016663 0.0197549 0.00708116 0.00503059 -0.00458889 -0.000805754 1.12461e-12 -1.16184e-10 -1.3394e-11 5e-05 1.46608e-10 