ITEM: TIMESTEP
4400000
ITEM: NUMBER OF ATOMS
287
ITEM: BOX BOUNDS ff ff ff
-0.02 0.43
-0.02 0.06
-0.02 0.07
ITEM: ATOMS id type x y z vx vy vz fx fy fz radius mass 
1 1 0.03852 0.0164189 0.00767414 0.00576143 0.000244248 -0.000307346 -3.34697e-11 -2.8459e-10 1.30293e-10 5e-05 1.46608e-10 
2 1 0.0389206 0.0173662 0.00720204 0.00581974 0.00041983 9.52282e-05 7.94203e-11 5.94997e-11 -3.32554e-11 5e-05 1.46608e-10 
3 1 0.0322716 0.0159336 0.00823177 0.00599789 -0.000406195 0.000139983 -4.56678e-10 -2.44812e-10 2.78272e-10 5e-05 1.46608e-10 
4 1 0.0388372 0.0178468 0.00703366 0.00568857 0.000471516 7.2823e-05 1.37539e-11 -8.71419e-11 2.79624e-11 5e-05 1.46608e-10 
5 1 0.0384024 0.0163244 0.00776337 0.00632249 0.000288201 -2.62062e-06 3.00314e-10 2.86542e-10 6.56427e-10 5e-05 1.46608e-10 
6 1 0.0443682 0.0161911 0.00783011 0.00614249 -0.000600195 0.000460498 3.0996e-13 -3.3554e-14 2.75067e-14 5e-05 1.46608e-10 
7 1 0.0385862 0.017088 0.00733123 0.00589388 0.000231913 -0.000277183 3.11901e-11 1.07135e-10 -5.38177e-11 5e-05 1.46608e-10 
8 1 0.0382973 0.0160136 0.00813994 0.00618053 0.000324589 -8.39891e-05 -2.43371e-10 1.06184e-10 -2.17725e-10 5e-05 1.46608e-10 
9 1 0.0446388 0.0174037 0.00744801 0.00565041 -0.000469859 0.000529661 -1.16053e-12 1.84992e-13 -1.35875e-13 5e-05 1.46608e-10 
10 1 0.0385257 0.016826 0.00746408 0.00579821 0.000251137 -0.000285074 -6.21331e-11 -5.59442e-11 4.78911e-11 5e-05 1.46608e-10 
11 1 0.03896 0.0175528 0.00713961 0.00573423 0.000623152 2.22996e-05 -9.10809e-11 8.17204e-11 -4.63568e-11 5e-05 1.46608e-10 
12 1 0.0324794 0.0166227 0.0075503 0.00569591 -8.08214e-05 0.00029501 -4.80352e-11 -1.10972e-10 4.1233e-11 5e-05 1.46608e-10 
13 1 0.0383809 0.0162553 0.00783233 0.00631525 0.000279303 -2.0564e-05 2.51958e-11 -4.64432e-11 2.85345e-10 5e-05 1.46608e-10 
14 1 0.0321865 0.0156741 0.00852409 0.00587715 -0.000383885 0.000122496 -3.01026e-10 9.51693e-11 -9.34089e-11 5e-05 1.46608e-10 
15 1 0.0387207 0.0172908 0.00722684 0.00587735 0.00032043 -0.00024634 1.4712e-12 2.10517e-11 -8.77559e-11 5e-05 1.46608e-10 
16 1 0.0321652 0.0156093 0.00859716 0.0058535 -0.000389254 0.000129388 2.85294e-10 5.19783e-11 -7.20871e-11 5e-05 1.46608e-10 
17 1 0.0385056 0.0167386 0.00750837 0.00576133 0.000256674 -0.0002838 -9.92862e-13 -7.31127e-11 7.11338e-11 5e-05 1.46608e-10 
18 1 0.0445145 0.0168412 0.00761582 0.00588466 -0.000512904 0.000559004 -5.0995e-13 7.93846e-14 -5.93792e-14 5e-05 1.46608e-10 
19 1 0.03836 0.0161949 0.00790927 0.006277 0.000280907 -3.4396e-05 2.4674e-10 -1.21256e-10 2.35285e-10 5e-05 1.46608e-10 
21 1 0.0384968 0.0163375 0.00773232 0.00630722 0.000276726 -2.79845e-05 3.29925e-10 -1.11692e-10 5.05966e-10 5e-05 1.46608e-10 
22 1 0.038626 0.0172631 0.00724306 0.00589941 0.000254399 -0.000254808 -6.24778e-12 -9.51593e-11 -3.44417e-10 5e-05 1.46608e-10 
23 1 0.0326579 0.0170148 0.00738555 0.00576838 -0.000178054 0.000341781 2.68368e-10 2.57238e-11 -1.07647e-11 5e-05 1.46608e-10 
24 1 0.0445766 0.0171225 0.00753192 0.00576753 -0.00049138 0.000544331 -8.35252e-13 1.32173e-13 -9.78443e-14 5e-05 1.46608e-10 
25 1 0.038566 0.0170007 0.00737551 0.005853 0.000236794 -0.000279372 8.84339e-11 9.32286e-11 -4.0701e-11 5e-05 1.46608e-10 
26 1 0.0444519 0.0165621 0.00770622 0.00600196 -0.000573817 0.000444486 -1.28419e-13 4.12803e-14 -1.94553e-14 5e-05 1.46608e-10 
27 1 0.0325613 0.0169833 0.00739502 0.00573562 -0.000182003 0.000341041 7.98051e-12 2.97793e-11 -1.2711e-11 5e-05 1.46608e-10 
28 1 0.0388179 0.0177538 0.0070648 0.00565124 0.000471734 7.29083e-05 -7.75422e-11 -2.89725e-10 1.02306e-10 5e-05 1.46608e-10 
29 1 0.0383391 0.0161344 0.00798613 0.00625729 0.000293838 -4.32433e-05 2.30964e-10 9.12635e-11 4.91661e-11 5e-05 1.46608e-10 
30 1 0.0388655 0.017521 0.00714664 0.00580029 0.0004871 6.92067e-05 -2.05382e-10 8.58067e-11 -8.8045e-11 5e-05 1.46608e-10 
31 1 0.0386063 0.0171754 0.00728694 0.00591818 0.00023271 -0.00027627 -1.72745e-11 5.2116e-11 -1.39438e-10 5e-05 1.46608e-10 
32 1 0.038701 0.017203 0.00727054 0.00593222 0.00027983 -0.00030735 -7.20635e-11 3.4182e-13 -2.04657e-10 5e-05 1.46608e-10 
33 1 0.0443891 0.0162839 0.00779911 0.00610744 -0.000593883 0.000455712 2.00809e-13 -1.5629e-14 1.36651e-14 5e-05 1.46608e-10 
34 1 0.0384854 0.0166512 0.00755266 0.00575561 0.000243215 -0.000289506 -1.89837e-11 -1.28783e-10 -3.83611e-11 5e-05 1.46608e-10 
35 1 0.0386811 0.0171153 0.007315 0.00592091 0.000203938 -0.000264111 3.065e-11 1.02449e-10 -5.35707e-11 5e-05 1.46608e-10 
36 1 0.0446802 0.0175912 0.00739207 0.00557232 -0.000455514 0.000519881 -1.37799e-12 2.2057e-13 -1.62231e-13 5e-05 1.46608e-10 
37 1 0.0386408 0.0169405 0.00740361 0.00583257 0.000212452 -0.000265349 1.24129e-10 1.16657e-10 -4.4365e-11 5e-05 1.46608e-10 
38 1 0.0388065 0.0172438 0.00724724 0.00588286 0.000320039 -0.000319862 1.70213e-10 -2.02509e-11 1.32912e-10 5e-05 1.46608e-10 
39 1 0.0445974 0.0172162 0.00750395 0.00572849 -0.000484205 0.000539441 -9.43564e-13 1.49766e-13 -1.1079e-13 5e-05 1.46608e-10 
41 1 0.0384452 0.016477 0.00764225 0.00575346 0.000217869 -0.000320392 -3.86341e-11 1.03091e-11 1.54639e-10 5e-05 1.46608e-10 
42 1 0.0386455 0.0173514 0.00720036 0.00578545 0.000367634 -7.90229e-05 3.34661e-10 -2.21013e-10 -1.93369e-10 5e-05 1.46608e-10 
44 1 0.0388261 0.0173341 0.00720914 0.00582389 0.000471926 6.64734e-05 -5.04983e-11 -7.87704e-11 -1.12646e-11 5e-05 1.46608e-10 
45 1 0.0444101 0.0163766 0.00776814 0.00607228 -0.000587191 0.000451978 9.11169e-14 3.35454e-15 2.63673e-15 5e-05 1.46608e-10 
46 1 0.0444937 0.0167476 0.00764429 0.00593164 -0.000560447 0.000436991 -3.47941e-13 7.92748e-14 -4.15452e-14 5e-05 1.46608e-10 
47 1 0.0384653 0.0165639 0.00759696 0.00574807 0.000203417 -0.000357327 7.15938e-11 -5.83773e-11 3.28714e-11 5e-05 1.46608e-10 
48 1 0.0386843 0.017536 0.00713402 0.00578432 0.000438314 8.93911e-05 -2.67554e-10 -1.1712e-10 3.63093e-11 5e-05 1.46608e-10 
49 1 0.0444728 0.0166549 0.00767525 0.0059668 -0.00056713 0.000440742 -2.38187e-13 6.0291e-14 -3.05151e-14 5e-05 1.46608e-10 
50 1 0.0387426 0.017815 0.00704067 0.00566998 0.000487623 6.7111e-05 -2.49825e-11 -2.09423e-11 9.64662e-12 5e-05 1.46608e-10 
51 1 0.0387234 0.017722 0.00707181 0.00564194 0.000481238 7.0322e-05 -8.97787e-11 -1.64024e-10 2.6043e-11 5e-05 1.46608e-10 
52 1 0.032459 0.0165328 0.00758901 0.00567887 -7.39905e-05 0.000290284 4.50944e-11 1.40846e-10 -7.10177e-11 5e-05 1.46608e-10 
53 1 0.0445352 0.016935 0.00758785 0.00584561 -0.000505729 0.000554113 -6.18295e-13 9.69616e-14 -7.222e-14 5e-05 1.46608e-10 
54 1 0.0384773 0.0162769 0.00780949 0.00630554 0.000277097 -2.5124e-05 3.77401e-10 -3.28677e-10 2.80161e-10 5e-05 1.46608e-10 
55 1 0.032229 0.0158041 0.00837812 0.00592572 -0.000393049 0.000126419 4.64754e-10 6.34273e-11 -8.91821e-11 5e-05 1.46608e-10 
56 1 0.0386609 0.0170278 0.00735932 0.00586342 0.000192016 -0.000256639 1.20488e-10 1.5617e-10 -6.2689e-11 5e-05 1.46608e-10 
57 1 0.044431 0.0164694 0.00773718 0.00603712 -0.000580504 0.000448231 -1.87123e-14 2.23153e-14 -8.42022e-15 5e-05 1.46608e-10 
59 1 0.0387155 0.0168803 0.00743168 0.00580769 0.00018866 -0.000253846 1.0934e-10 8.455e-11 -3.11375e-11 5e-05 1.46608e-10 
60 1 0.0387357 0.0169677 0.00738739 0.00582951 0.000146707 -0.000233426 1.44667e-10 7.98257e-11 -4.44855e-11 5e-05 1.46608e-10 
61 1 0.0384239 0.0163963 0.00769728 0.00633755 0.000262287 -1.97892e-05 2.0264e-10 4.62406e-10 6.38162e-10 5e-05 1.46608e-10 
62 1 0.0388456 0.0174278 0.00717781 0.0058292 0.000442687 8.98739e-05 2.14503e-10 1.50504e-10 -1.41656e-10 5e-05 1.46608e-10 
63 1 0.0387791 0.0175677 0.00712761 0.00580966 0.000463503 7.6455e-05 -1.40744e-10 -6.9025e-12 1.76147e-11 5e-05 1.46608e-10 
64 1 0.0445559 0.0170287 0.00755989 0.00580657 -0.000498554 0.000549222 -7.26753e-13 1.14533e-13 -8.51431e-14 5e-05 1.46608e-10 
65 1 0.0325754 0.0166619 0.00755296 0.00568201 -0.000235481 0.000264491 -1.41594e-10 -8.29028e-11 -2.1087e-10 5e-05 1.46608e-10 
66 1 0.0325156 0.0164057 0.00769525 0.00620767 -0.00044053 0.000186162 4.83577e-11 1.10558e-10 1.17815e-10 5e-05 1.46608e-10 
67 1 0.0389404 0.0174593 0.0071709 0.0057858 0.000475859 7.70988e-05 -3.7334e-10 2.86279e-10 -1.11917e-10 5e-05 1.46608e-10 
68 1 0.0389049 0.0177083 0.007084 0.00564479 0.000446265 8.04908e-05 1.22206e-10 2.10273e-11 2.64369e-11 5e-05 1.46608e-10 
69 1 0.0385803 0.0166784 0.00753646 0.00574485 0.000249997 -0.000282548 3.62064e-11 -7.88061e-11 8.24294e-11 5e-05 1.46608e-10 
70 1 0.0446181 0.01731 0.00747598 0.00568945 -0.000477032 0.000534551 -1.05215e-12 1.67377e-13 -1.23959e-13 5e-05 1.46608e-10 
71 1 0.0322077 0.015739 0.00845101 0.00592093 -0.000385375 0.000121002 -1.25252e-10 1.92568e-10 -2.31911e-10 5e-05 1.46608e-10 
72 1 0.038885 0.0176144 0.00711538 0.00571421 0.00057505 3.15441e-05 -1.26325e-10 -1.70748e-10 1.971e-10 5e-05 1.46608e-10 
73 1 0.0385458 0.0169133 0.0074198 0.00582658 0.000243662 -0.000282147 -2.83504e-11 1.65663e-11 -2.54606e-11 5e-05 1.46608e-10 
74 1 0.0387403 0.0173819 0.00719062 0.00582516 0.000417677 -2.53004e-05 2.1071e-10 -7.65436e-11 -2.4492e-10 5e-05 1.46608e-10 
76 1 0.0327949 0.0176451 0.00711387 0.00558488 -0.000172367 0.000329831 5.80499e-11 3.49442e-11 -1.83918e-11 5e-05 1.46608e-10 
77 1 0.0389555 0.0184116 0.00690152 0.00572902 0.000417416 -0.000212167 4.68287e-11 2.11317e-11 -2.00394e-11 5e-05 1.46608e-10 
78 1 0.0322929 0.0159984 0.0081587 0.00604443 -0.00042364 0.000156674 -5.16927e-11 -2.22946e-10 2.59569e-10 5e-05 1.46608e-10 
79 1 0.0324998 0.0167126 0.00751158 0.00569948 -0.000131345 0.000318053 -1.78022e-10 -8.65093e-10 3.88947e-10 5e-05 1.46608e-10 
80 1 0.0388005 0.0180957 0.00695245 0.00572274 0.000469346 7.64055e-05 5.02622e-11 1.48771e-10 -2.2681e-10 5e-05 1.46608e-10 
81 1 0.0324396 0.0164532 0.00764637 0.0056158 -0.000264219 3.16686e-06 4.73965e-11 1.65612e-10 -1.73005e-10 5e-05 1.46608e-10 
82 1 0.0325817 0.0170733 0.0073563 0.00575329 -0.000191267 0.00034705 -1.32608e-11 2.07136e-11 -2.14161e-11 5e-05 1.46608e-10 
83 1 0.0325724 0.0162967 0.00781321 0.0062727 -0.000409911 0.000117624 1.64409e-10 -4.68483e-10 4.70756e-11 5e-05 1.46608e-10 
84 1 0.0446595 0.0174974 0.00742004 0.00561137 -0.000462686 0.000524771 -1.2683e-12 2.02239e-13 -1.49599e-13 5e-05 1.46608e-10 
85 1 0.0323883 0.0160165 0.00813372 0.00603435 -0.000474077 0.000213218 4.32396e-10 -1.1133e-10 1.03801e-10 5e-05 1.46608e-10 
86 1 0.0387984 0.0176615 0.00709862 0.0057111 0.000525201 5.03346e-05 -2.06028e-11 -1.00689e-10 4.76214e-10 5e-05 1.46608e-10 
87 1 0.0386954 0.0167929 0.00747597 0.00580638 0.000189724 -0.000252798 -5.20367e-11 -2.75365e-11 3.25262e-12 5e-05 1.46608e-10 
88 1 0.0388591 0.0183861 0.00690916 0.00574806 0.000388075 -0.000130473 7.44254e-12 4.45745e-11 8.88839e-11 5e-05 1.46608e-10 
89 1 0.0388199 0.0181938 0.00694822 0.00570745 0.000460269 -5.57349e-06 7.31987e-12 1.1769e-10 -1.44351e-10 5e-05 1.46608e-10 
90 1 0.038888 0.0171911 0.00727137 0.00592962 0.000367939 -0.000345823 2.24624e-11 2.50443e-11 -1.01261e-10 5e-05 1.46608e-10 
91 1 0.0325202 0.0168025 0.00747287 0.005704 -0.000175697 0.000338851 3.12579e-10 6.69419e-10 -2.88333e-10 5e-05 1.46608e-10 
92 1 0.0389437 0.0178947 0.00702162 0.00570489 0.000445153 8.30291e-05 3.8083e-11 1.68836e-10 -6.58238e-11 5e-05 1.46608e-10 
93 1 0.0389078 0.0182201 0.0069085 0.00576206 0.000424761 9.4575e-05 4.65076e-11 3.93513e-11 -6.74801e-12 5e-05 1.46608e-10 
94 1 0.0389955 0.0181759 0.00692728 0.00575149 0.000396297 0.000102116 2.60857e-11 2.66399e-11 6.30534e-12 5e-05 1.46608e-10 
95 1 0.0387812 0.0180011 0.0069784 0.00563968 0.000494701 6.40121e-05 2.68397e-10 8.95202e-11 1.25246e-11 5e-05 1.46608e-10 
96 1 0.0389631 0.0179878 0.00699049 0.00571206 0.000435446 8.65285e-05 -4.2304e-11 1.29492e-10 -3.76322e-11 5e-05 1.46608e-10 
97 1 0.0323993 0.0163227 0.00779332 0.00616376 -0.000455965 0.000187316 2.9102e-11 8.9294e-11 -1.59072e-10 5e-05 1.46608e-10 
98 1 0.0388857 0.0184825 0.00691136 0.00571744 0.000402961 -0.000216737 1.98555e-11 -2.93282e-11 2.53349e-11 5e-05 1.46608e-10 
99 1 0.0325549 0.0165739 0.00759586 0.0058375 -0.000308714 0.000230952 2.58804e-10 -1.87335e-10 -8.43562e-11 5e-05 1.46608e-10 
100 1 0.0388332 0.0169976 0.00736974 0.00596695 0.000204355 -0.000267959 4.53762e-11 3.47417e-11 -2.44143e-11 5e-05 1.46608e-10 
101 1 0.0324948 0.0163421 0.00776959 0.00622774 -0.000496626 0.000134923 3.25611e-10 -1.75701e-10 2.2088e-10 5e-05 1.46608e-10 
102 1 0.0643568 0.0187248 0.00531097 4.31043e-15 1.05177e-14 8.29555e-14 2.53272e-21 -1.01774e-21 -6.82424e-24 5e-05 1.46608e-10 
103 1 0.24257 0.0191927 0.00520306 2.51438e-22 -1.18555e-21 -1.2867e-21 0 0 0 5e-05 1.46608e-10 
104 1 0.0328122 0.017316 0.00725978 0.00562237 -0.000173939 0.000332283 2.94362e-11 1.95268e-11 -6.05018e-12 5e-05 1.46608e-10 
105 1 0.0323567 0.016193 0.00793947 0.00609122 -0.000455476 0.00018774 8.69981e-11 -1.4425e-10 1.60139e-10 5e-05 1.46608e-10 
106 1 0.0328874 0.0172569 0.00728922 0.00562943 -0.000166762 0.000329528 -4.61274e-11 -6.06978e-11 2.39019e-11 5e-05 1.46608e-10 
107 1 0.0323141 0.0160633 0.00808562 0.00604918 -0.000441764 0.000176745 2.32997e-10 -4.60835e-11 9.66614e-11 5e-05 1.46608e-10 
108 1 0.0386206 0.0168531 0.00744789 0.00581396 0.000221296 -0.000270665 -3.5342e-11 3.98892e-11 -6.07527e-11 5e-05 1.46608e-10 
109 1 0.038704 0.0176289 0.00710293 0.00578201 0.000441269 8.72596e-05 -5.69273e-11 -1.1576e-10 7.37315e-11 5e-05 1.46608e-10 
110 1 0.0390383 0.0179265 0.00701463 0.0057111 0.000427992 8.88679e-05 -2.03743e-10 -1.66293e-11 -2.77893e-12 5e-05 1.46608e-10 
111 1 0.0389168 0.0186791 0.00692868 0.00570312 0.000418449 -0.00021359 -7.80099e-11 -9.66121e-11 -5.58439e-12 5e-05 1.46608e-10 
112 1 0.0324205 0.0163875 0.00772024 0.00619224 -0.000455957 0.000176234 -5.29611e-11 4.70734e-11 -2.08649e-10 5e-05 1.46608e-10 
113 1 0.0330375 0.0171387 0.0073482 0.0056164 -0.000182652 0.000335916 8.73263e-11 1.11466e-10 -4.52921e-11 5e-05 1.46608e-10 
114 1 0.0327529 0.0170457 0.00737625 0.00581625 -0.000101395 0.000309669 -1.22609e-10 -3.50725e-11 2.10955e-11 5e-05 1.46608e-10 
115 1 0.0387595 0.0174746 0.00715819 0.00581898 0.000457553 8.78994e-05 1.35373e-10 7.46546e-12 -3.58584e-11 5e-05 1.46608e-10 
116 1 0.0386004 0.0167658 0.00749218 0.00577063 0.000237992 -0.000279846 -1.60625e-10 -8.91776e-13 4.18412e-11 5e-05 1.46608e-10 
117 1 0.0384557 0.0162166 0.00788625 0.00633031 0.000280765 -2.27389e-05 1.6895e-10 -1.87336e-10 2.73738e-10 5e-05 1.46608e-10 
118 1 0.0322503 0.0158687 0.00830485 0.00594304 -0.000402376 0.000136851 6.44617e-11 -1.27208e-10 1.07266e-10 5e-05 1.46608e-10 
119 1 0.0387559 0.0170552 0.00734303 0.00593865 0.000192638 -0.000257559 5.1395e-11 6.72959e-11 -1.89994e-11 5e-05 1.46608e-10 
120 1 0.0383182 0.016074 0.00806303 0.00622696 0.000315103 -6.53802e-05 -2.21399e-11 9.57301e-11 -1.3278e-10 5e-05 1.46608e-10 
121 1 0.0382764 0.0159532 0.00821684 0.00614073 0.000325641 -9.53112e-05 1.32299e-10 1.02227e-10 -1.38874e-10 5e-05 1.46608e-10 
122 1 0.0390575 0.0180201 0.00698329 0.0057167 0.000399376 9.90212e-05 -5.63025e-11 1.43823e-10 -3.46949e-11 5e-05 1.46608e-10 
123 1 0.0324308 0.0161462 0.00798757 0.00613736 -0.000447837 0.000178784 -2.69306e-10 -3.22456e-10 3.77121e-10 5e-05 1.46608e-10 
124 1 0.0388759 0.0180329 0.00697141 0.00572353 0.000463892 7.85755e-05 6.55935e-11 2.08936e-10 -4.20347e-11 5e-05 1.46608e-10 
125 1 0.0384348 0.0161562 0.00796316 0.00626068 0.000271885 -1.98891e-05 2.04189e-10 -1.73583e-10 3.21646e-10 5e-05 1.46608e-10 
126 1 0.0386644 0.017443 0.0071651 0.005744 0.000441466 8.57186e-05 -4.05988e-11 -1.69622e-10 -1.2e-11 5e-05 1.46608e-10 
127 1 0.032378 0.0162578 0.0078664 0.00613337 -0.000463117 0.000197129 2.14453e-10 2.17431e-11 1.66123e-11 5e-05 1.46608e-10 
128 1 0.0387619 0.0179081 0.00700953 0.0056838 0.000486286 6.62148e-05 1.03382e-11 5.58357e-11 -8.0236e-12 5e-05 1.46608e-10 
129 1 0.0388395 0.0182901 0.00692923 0.00575664 0.000434277 7.31076e-05 5.83012e-11 8.10844e-11 2.52217e-11 5e-05 1.46608e-10 
130 1 0.0326778 0.0171048 0.00734678 0.00575772 -0.000177886 0.000340193 6.30293e-11 1.83496e-10 -7.74206e-11 5e-05 1.46608e-10 
131 1 0.0325353 0.0164856 0.00763852 0.00604609 -0.00037874 0.000224173 4.08055e-10 2.72458e-11 2.31725e-10 5e-05 1.46608e-10 
132 1 0.0388565 0.0179399 0.00700254 0.00571173 0.000467412 7.56073e-05 -9.58677e-12 9.4767e-11 -2.64459e-11 5e-05 1.46608e-10 
133 1 0.0386148 0.0164435 0.00765313 0.00575549 0.000263677 -0.000275998 2.06011e-10 -2.09571e-10 3.01878e-10 5e-05 1.46608e-10 
134 1 0.0387869 0.0171563 0.00729156 0.00595367 0.000323037 -0.000319792 -1.03314e-10 5.55556e-11 -5.72024e-11 5e-05 1.46608e-10 
135 1 0.0384139 0.0160958 0.00804006 0.00625077 0.00027909 -2.75931e-05 3.5425e-10 -2.12965e-10 3.29795e-10 5e-05 1.46608e-10 
136 1 0.0323669 0.0159515 0.00820691 0.00603651 -0.000419387 0.000153106 -1.54591e-10 -7.03008e-11 8.36613e-11 5e-05 1.46608e-10 
137 1 0.0389361 0.0187769 0.00693713 0.00567753 0.000429562 -0.000211474 -1.72629e-10 -8.20362e-11 2.56467e-13 5e-05 1.46608e-10 
138 1 0.0385602 0.016591 0.00758075 0.00574808 0.00025247 -0.00029333 1.62122e-10 -1.76731e-10 3.23185e-11 5e-05 1.46608e-10 
140 1 0.039075 0.0181195 0.00694991 0.00573503 0.000367171 0.000111611 -6.79567e-11 -9.11837e-11 3.13998e-11 5e-05 1.46608e-10 
141 1 0.0324097 0.0160813 0.00806066 0.00603566 -0.000464207 0.000202017 3.35464e-10 -2.1788e-10 2.27784e-10 5e-05 1.46608e-10 
142 1 0.032773 0.0171357 0.00733749 0.00576261 -8.64625e-05 0.00029992 -1.52304e-10 3.0685e-11 -1.65189e-11 5e-05 1.46608e-10 
143 1 0.0323355 0.0161281 0.00801256 0.00606464 -0.000451676 0.000187048 1.23751e-10 -2.9918e-10 3.28818e-10 5e-05 1.46608e-10 
144 1 0.032733 0.0169557 0.00741501 0.00582483 -9.97689e-05 0.000309358 1.29005e-10 -1.24413e-10 5.8916e-11 5e-05 1.46608e-10 
146 1 0.0325935 0.0163617 0.00773996 0.00636096 -0.000382296 8.58708e-05 2.49459e-10 1.90206e-10 -3.72421e-10 5e-05 1.46608e-10 
147 1 0.0323456 0.0158867 0.00827999 0.00597805 -0.000416862 0.000153522 -1.14254e-10 6.28922e-11 -8.55527e-11 5e-05 1.46608e-10 
148 1 0.0326413 0.0173433 0.00723995 0.00556133 -0.000169127 0.000327429 4.95415e-12 2.0019e-11 -8.77919e-12 5e-05 1.46608e-10 
149 1 0.0391428 0.0181901 0.00692849 0.00569132 0.000491741 6.59694e-05 -1.94566e-11 -2.56669e-11 1.03967e-11 5e-05 1.46608e-10 
150 1 0.0326282 0.0165067 0.00760823 0.00601498 -0.000150368 0.000338981 3.62559e-10 3.22138e-11 8.32094e-11 5e-05 1.46608e-10 
151 1 0.0329428 0.0171077 0.00735753 0.00564179 -0.000137951 0.000317404 -9.64036e-11 -1.08768e-11 2.2373e-12 5e-05 1.46608e-10 
153 1 0.0324734 0.0162759 0.00784141 0.00618107 -0.000435265 0.000175631 -1.05506e-10 -8.53627e-11 8.14513e-11 5e-05 1.46608e-10 
154 1 0.032737 0.0173749 0.00723039 0.00562573 -0.000171327 0.000331462 9.24379e-11 8.39742e-11 -3.137e-11 5e-05 1.46608e-10 
155 1 0.0328141 0.017736 0.00707674 0.00557554 -0.000171656 0.000328602 4.56108e-11 7.4064e-12 -5.13163e-12 5e-05 1.46608e-10 
156 1 0.0327173 0.0172848 0.0072692 0.00562663 -0.000166001 0.000329122 4.25717e-11 1.0534e-10 -4.77055e-11 5e-05 1.46608e-10 
157 1 0.0219312 0.0187687 0.00551176 -3.82574e-14 8.17062e-14 2.95887e-13 8.31808e-22 3.46537e-22 2.93649e-23 5e-05 1.46608e-10 
158 1 0.0328314 0.0174062 0.00722086 0.00563922 -0.000159382 0.000326733 1.521e-11 5.63354e-11 -2.36944e-11 5e-05 1.46608e-10 
159 1 0.0389243 0.0178015 0.00705281 0.00567161 0.000441725 8.31257e-05 -3.19198e-11 4.69185e-12 -2.88043e-12 5e-05 1.46608e-10 
160 1 0.032719 0.0177054 0.00708892 0.00543116 -0.000167545 0.000307776 -2.17865e-11 -8.82319e-11 -6.03231e-11 5e-05 1.46608e-10 
162 1 0.032756 0.017465 0.00719152 0.00562127 -0.000175509 0.000332985 3.74728e-11 7.56136e-11 -3.24531e-11 5e-05 1.46608e-10 
164 1 0.0329654 0.0180375 0.00694862 0.00559137 -0.000201269 0.000344043 2.60749e-12 -7.2082e-11 6.52583e-11 5e-05 1.46608e-10 
165 1 0.0330018 0.0173785 0.00724085 0.00564782 -0.000126229 0.000312496 7.29838e-11 1.75519e-11 -4.33978e-12 5e-05 1.46608e-10 
166 1 0.0385744 0.0163009 0.00778367 0.00627529 0.000284468 -3.78739e-05 2.1984e-10 -2.89505e-10 4.76891e-10 5e-05 1.46608e-10 
167 1 0.0326114 0.0164272 0.00766651 0.00594486 -0.000393256 1.61243e-05 1.86908e-10 -1.70251e-10 -5.19757e-10 5e-05 1.46608e-10 
168 1 0.0329067 0.0173473 0.00725025 0.00565196 -0.000147698 0.000322022 -7.2748e-11 -4.27169e-11 1.70246e-11 5e-05 1.46608e-10 
169 1 0.0330571 0.0172294 0.00730909 0.00563545 -0.000168922 0.000330704 -3.27135e-12 3.31786e-11 -1.44638e-11 5e-05 1.46608e-10 
170 1 0.0329457 0.0175276 0.00717255 0.00560927 -0.000141282 0.000317294 -4.082e-11 8.56433e-12 -7.60636e-12 5e-05 1.46608e-10 
171 1 0.0385951 0.0163614 0.00770672 0.00575309 0.000346614 -0.00014362 -6.68041e-11 -1.9481e-10 2.98681e-10 5e-05 1.46608e-10 
172 1 0.0329819 0.0172884 0.00727967 0.00564798 -0.000154008 0.000324765 -7.04825e-11 -4.70341e-11 1.65099e-11 5e-05 1.46608e-10 
173 1 0.038912 0.0169417 0.00739556 0.00598476 0.000211906 -0.000270892 7.44665e-11 6.81506e-11 -4.15303e-11 5e-05 1.46608e-10 
174 1 0.0328704 0.0175864 0.0071432 0.00559457 -0.000158905 0.000324233 2.78523e-11 2.71707e-11 -8.8331e-12 5e-05 1.46608e-10 
175 1 0.0266508 0.0173876 0.00721024 0.00558633 -0.000252817 0.000130271 -7.71614e-11 -9.15701e-11 9.48173e-12 5e-05 1.46608e-10 
176 1 0.0326979 0.0171947 0.00730803 0.00568707 -0.00017038 0.000333546 -8.26877e-12 1.6176e-10 -7.38465e-11 5e-05 1.46608e-10 
177 1 0.0327566 0.0178838 0.00700689 0.00556343 -0.000181794 0.000332222 2.46975e-12 -7.44081e-11 3.54638e-11 5e-05 1.46608e-10 
178 1 0.0330178 0.0170486 0.00738702 0.00559531 -0.000185191 0.000336062 6.91929e-11 1.81609e-10 -7.75728e-11 5e-05 1.46608e-10 
179 1 0.0330402 0.0175588 0.00716306 0.00560712 -0.000133175 0.000313629 -8.72393e-11 -3.85395e-11 1.2676e-11 5e-05 1.46608e-10 
181 1 0.0326803 0.0175234 0.0071623 0.00561355 -0.000188066 0.000337879 5.29555e-12 3.99497e-11 -1.58143e-11 5e-05 1.46608e-10 
182 1 0.03854 0.0165037 0.00762504 0.00576265 0.000247053 -0.000308666 3.80871e-11 -1.59143e-10 4.73291e-11 5e-05 1.46608e-10 
183 1 0.0329265 0.0174374 0.00721146 0.0056336 -0.000143576 0.000319433 -3.89262e-12 -1.77714e-11 7.4416e-12 5e-05 1.46608e-10 
184 1 0.0388649 0.0178296 0.0071282 0.00565843 0.000442872 7.36597e-05 9.36029e-11 1.16591e-10 -3.47266e-12 5e-05 1.46608e-10 
185 1 0.0326218 0.0172532 0.00727877 0.00553355 -0.000164525 0.000324163 5.68592e-12 2.20227e-11 -9.53068e-12 5e-05 1.46608e-10 
186 1 0.0326608 0.0174334 0.00720113 0.00558936 -0.00017287 0.00033034 3.81604e-12 1.76707e-11 -7.67799e-12 5e-05 1.46608e-10 
187 1 0.0388104 0.0169075 0.00741547 0.00584027 0.000150939 -0.000235509 8.27896e-12 -1.54618e-10 7.49742e-11 5e-05 1.46608e-10 
188 1 0.0390633 0.0182463 0.00690591 0.00567368 0.000461251 7.29309e-05 1.20309e-11 -1.70066e-11 6.49802e-12 5e-05 1.46608e-10 
189 1 0.0387805 0.0170461 0.00743954 0.00599608 0.000206286 -0.000260206 1.92402e-11 -1.31712e-10 3.17086e-12 5e-05 1.46608e-10 
190 1 0.0267256 0.0173232 0.00722613 0.00556484 -0.00025842 0.000131388 -2.03491e-10 1.34761e-10 -4.77083e-11 5e-05 1.46608e-10 
191 1 0.0389577 0.0188742 0.00694542 0.00612536 0.000335567 -0.000240217 -2.75831e-11 -1.19178e-10 -8.23919e-12 5e-05 1.46608e-10 
192 1 0.032848 0.0170764 0.00736701 0.00584128 3.43428e-06 0.000264078 -3.19959e-10 -4.89224e-11 3.55396e-12 5e-05 1.46608e-10 
193 1 0.0386752 0.0167056 0.00752026 0.00574325 0.000238686 -0.000276715 -4.09264e-11 9.02117e-11 -4.00534e-11 5e-05 1.46608e-10 
194 1 0.0326727 0.0166858 0.00753126 0.00592411 -0.000119135 0.000321231 -9.93911e-11 -4.22554e-11 7.49471e-12 5e-05 1.46608e-10 
195 1 0.033021 0.0174686 0.00720195 0.00562798 -0.000116462 0.000307259 -4.48415e-11 1.70942e-11 -1.04824e-11 5e-05 1.46608e-10 
196 1 0.0321439 0.0155444 0.00867024 0.00584544 -0.000386011 0.000125603 1.13891e-10 9.81514e-11 -1.21819e-10 5e-05 1.46608e-10 
197 1 0.02671 0.0176743 0.00714448 0.00546382 -0.000220914 0.000119924 8.33913e-11 1.66823e-11 2.76709e-12 5e-05 1.46608e-10 
198 1 0.0325407 0.0168924 0.00743416 0.00570984 -0.000213201 0.000354034 2.21735e-10 2.34728e-10 -9.08257e-11 5e-05 1.46608e-10 
199 1 0.0327758 0.017555 0.00715282 0.00560235 -0.000174357 0.000331763 3.80734e-11 5.76481e-11 -2.51298e-11 5e-05 1.46608e-10 
200 1 0.0326373 0.0169249 0.00742424 0.00574577 -0.000190091 0.000344204 3.92941e-10 -1.31365e-10 3.59856e-11 5e-05 1.46608e-10 
201 1 0.0331354 0.0180106 0.0069682 0.00552788 -9.30449e-05 0.000291704 1.72138e-11 -2.35087e-11 1.71404e-11 5e-05 1.46608e-10 
202 1 0.0328677 0.0171668 0.00732806 0.005646 -0.000136836 0.00031699 -1.27941e-10 -6.52446e-11 2.05081e-11 5e-05 1.46608e-10 
203 1 0.0390349 0.0174912 0.00716387 0.00569297 0.000617053 2.46319e-05 -9.26173e-11 6.33984e-11 -4.37131e-11 5e-05 1.46608e-10 
204 1 0.0326172 0.0168353 0.00746377 0.00570987 -0.00019252 0.000346842 1.45281e-10 -1.33915e-10 -2.42309e-11 5e-05 1.46608e-10 
205 1 0.0329323 0.0178285 0.00703926 0.00556374 -0.000147517 0.000318417 4.62104e-11 -4.05777e-11 2.14737e-11 5e-05 1.46608e-10 
206 1 0.0328905 0.0176781 0.0071051 0.00558842 -0.000157691 0.000321806 -2.46247e-11 -6.46077e-12 1.76414e-11 5e-05 1.46608e-10 
207 1 0.0324522 0.016211 0.0079145 0.00621887 -0.000431602 0.000155997 1.3125e-10 -2.17189e-10 2.5683e-10 5e-05 1.46608e-10 
208 1 0.0328512 0.0174963 0.00718206 0.00561573 -0.000161245 0.000326691 -1.42552e-12 8.63559e-12 -1.27924e-12 5e-05 1.46608e-10 
209 1 0.0326501 0.0165963 0.00756971 0.0059633 -0.000135455 0.000328248 -3.94895e-11 2.64966e-12 2.25059e-11 5e-05 1.46608e-10 
210 1 0.0386271 0.0171634 0.00738402 0.005901 0.000172044 -0.000265595 2.01613e-11 2.06215e-10 -7.02159e-11 5e-05 1.46608e-10 
211 1 0.0389827 0.0180819 0.00695899 0.00572557 0.00040582 9.81864e-05 3.78597e-11 9.15258e-11 -5.79139e-11 5e-05 1.46608e-10 
212 1 0.032965 0.0176178 0.00713367 0.00560123 -0.000141912 0.000317059 -9.64998e-11 -5.80457e-11 2.11189e-11 5e-05 1.46608e-10 
213 1 0.0387903 0.0168201 0.00745976 0.00578374 0.000166759 -0.00024197 -1.38547e-12 -1.16538e-10 5.24523e-11 5e-05 1.46608e-10 
214 1 0.038895 0.0181261 0.00694022 0.00573772 0.000428434 9.25622e-05 1.05651e-10 2.69598e-11 -3.57029e-12 5e-05 1.46608e-10 
215 1 0.0266934 0.0171422 0.00726773 0.00558651 -0.00030266 0.000133566 -7.01474e-12 -3.70703e-11 5.22077e-11 5e-05 1.46608e-10 
216 1 0.0327377 0.0177936 0.00704578 0.00552511 -0.000176903 0.000328803 -2.61914e-11 -8.20384e-11 3.04408e-11 5e-05 1.46608e-10 
217 1 0.0386349 0.0165308 0.00760884 0.00576244 0.000261166 -0.000279065 3.54853e-10 -2.39064e-10 -4.15221e-11 5e-05 1.46608e-10 
218 1 0.0328514 0.0179158 0.0069977 0.00554813 -0.00016866 0.000330039 -2.75006e-12 -4.4384e-11 -5.45148e-12 5e-05 1.46608e-10 
219 1 0.0388976 0.0185814 0.00692024 0.00571324 0.000408141 -0.000214791 -3.30021e-11 -8.26608e-11 -8.01635e-12 5e-05 1.46608e-10 
220 1 0.0326997 0.0176135 0.00712346 0.00548792 -0.000170713 0.000325404 3.83299e-11 -2.56042e-13 -2.12153e-11 5e-05 1.46608e-10 
221 1 0.026628 0.0168814 0.00741164 0.00579447 -0.000369192 0.000141833 -2.5532e-10 -1.17581e-10 5.24357e-11 5e-05 1.46608e-10 
222 1 0.038655 0.0166182 0.00756455 0.00575133 0.000252049 -0.000281741 2.88082e-10 -4.98171e-11 3.19246e-11 5e-05 1.46608e-10 
223 1 0.0327926 0.0172259 0.0072986 0.00562749 -0.000160567 0.00032669 -1.16848e-10 -6.83332e-11 2.63421e-11 5e-05 1.46608e-10 
224 1 0.0326021 0.0171632 0.00731759 0.00575696 -0.000198461 0.000348343 1.01441e-10 2.6878e-10 -1.12036e-10 5e-05 1.46608e-10 
225 1 0.0389795 0.0176464 0.00710833 0.0057207 0.00051906 5.64906e-05 1.35359e-11 -1.60896e-10 -2.91444e-11 5e-05 1.46608e-10 
226 1 0.0329624 0.0171978 0.00731872 0.00563706 -0.000159682 0.000326684 -5.68571e-12 -7.63792e-12 3.6523e-12 5e-05 1.46608e-10 
227 1 0.0267421 0.0169821 0.00732555 0.00561941 -0.000333625 0.000107773 7.93821e-11 -3.0474e-11 -9.86819e-11 5e-05 1.46608e-10 
228 1 0.0266708 0.0174831 0.00718834 0.00560119 -0.000245463 0.000128026 -9.16672e-11 -2.67015e-11 9.83297e-12 5e-05 1.46608e-10 
229 1 0.0325983 0.0170574 0.00745363 0.00578687 -0.000179358 0.000344014 -2.12461e-11 -9.98106e-12 -4.38885e-12 5e-05 1.46608e-10 
230 1 0.033006 0.0182343 0.00693277 0.00562634 -0.000162508 0.000465844 -1.56192e-11 -3.62666e-11 -1.14465e-11 5e-05 1.46608e-10 
231 1 0.0266308 0.0172921 0.00723215 0.00557258 -0.00026296 0.000126506 -3.56936e-11 -1.11332e-10 1.40049e-11 5e-05 1.46608e-10 
232 1 0.0325512 0.0162318 0.00788629 0.00629539 -0.000408162 0.000134752 2.47188e-10 -2.39191e-10 2.09912e-10 5e-05 1.46608e-10 
233 1 0.0326925 0.0167758 0.00749248 0.00588073 -0.000108065 0.00031505 -7.34911e-11 -6.2153e-11 2.16439e-11 5e-05 1.46608e-10 
234 1 0.0390185 0.0183346 0.0068914 0.00573778 0.000436924 -0.000208721 9.40573e-11 3.50194e-11 9.34012e-12 5e-05 1.46608e-10 
235 1 0.033043 0.0184265 0.0069769 0.00554244 -0.000139697 0.00046565 -3.99837e-11 1.05726e-11 -8.14196e-11 5e-05 1.46608e-10 
236 1 0.0330247 0.0183305 0.00695488 0.00559332 -0.000146778 0.000466329 -2.85912e-11 5.97171e-11 -1.68872e-11 5e-05 1.46608e-10 
237 1 0.0331002 0.0182645 0.00694756 0.00562246 -0.000146053 0.000468347 -3.73962e-11 -3.23864e-11 -2.76009e-12 5e-05 1.46608e-10 
239 1 0.0264562 0.0165507 0.0076786 0.00608995 -0.000212235 0.00028111 -1.8566e-10 -2.43676e-10 1.69682e-10 5e-05 1.46608e-10 
240 1 0.026515 0.0167818 0.0074967 0.00557327 -0.000293317 9.08776e-05 2.94851e-10 -2.02756e-10 -3.06558e-10 5e-05 1.46608e-10 
241 1 0.0264345 0.0164726 0.00773715 0.00613575 -0.000175148 0.00025419 9.18272e-11 -1.82392e-10 1.46201e-10 5e-05 1.46608e-10 
242 1 0.0328079 0.0168964 0.00744457 0.00584089 -5.70411e-05 0.000290591 1.39008e-10 -1.27019e-10 6.64129e-11 5e-05 1.46608e-10 
243 1 0.0325972 0.016745 0.00750175 0.00564979 -0.000182759 0.000327353 6.96155e-11 -1.30615e-11 -8.45333e-11 5e-05 1.46608e-10 
244 1 0.0264762 0.0166291 0.00761981 0.00562807 -0.000170163 0.00022468 1.06901e-10 -1.65603e-10 -3.9927e-11 5e-05 1.46608e-10 
246 1 0.0265907 0.0171015 0.00727696 0.00558252 -0.000302267 9.67088e-05 2.63443e-11 3.49931e-11 1.86805e-10 5e-05 1.46608e-10 