ITEM: TIMESTEP
24600000
ITEM: NUMBER OF ATOMS
273
ITEM: BOX BOUNDS ff ff ff
-0.02 0.43
-0.02 0.06
-0.02 0.07
ITEM: ATOMS id type x y z vx vy vz fx fy fz radius mass 
1 1 0.156032 0.0158715 0.00838711 0.00551802 5.12344e-05 -0.000765562 -2.25441e-10 9.72651e-11 -1.38499e-10 5e-05 1.46608e-10 
2 1 0.156566 0.0172146 0.00731746 0.0062788 0.00063614 -6.53915e-05 9.86137e-11 -3.63752e-11 4.67831e-12 5e-05 1.46608e-10 
3 1 0.150775 0.0172778 0.00735576 0.00578417 -0.00145486 0.000363107 -5.04307e-11 1.63848e-11 -5.56856e-12 5e-05 1.46608e-10 
4 1 0.156384 0.0166171 0.00770338 0.00592216 0.000599976 -3.26387e-05 3.27108e-12 -3.60749e-10 -4.95448e-11 5e-05 1.46608e-10 
5 1 0.156013 0.0158216 0.00847148 0.00573973 1.50604e-05 -0.000734359 -1.50669e-10 2.83492e-11 -1.07358e-11 5e-05 1.46608e-10 
6 1 0.162226 0.0165034 0.00760785 0.00557338 -0.000304908 0.000524695 -2.04723e-11 -1.88926e-12 -1.16113e-11 5e-05 1.46608e-10 
7 1 0.156104 0.0160723 0.00804873 0.0056628 2.47412e-05 -0.000758975 4.8336e-11 1.33246e-10 -1.39387e-10 5e-05 1.46608e-10 
8 1 0.155992 0.0157719 0.00855565 0.00588537 -7.80588e-06 -0.00071485 4.05209e-11 -6.86823e-11 1.06378e-10 5e-05 1.46608e-10 
9 1 0.162346 0.0170477 0.00742268 0.0059306 -0.000823182 0.000112113 4.16721e-13 2.1688e-12 -2.50105e-13 5e-05 1.46608e-10 
10 1 0.156525 0.0178022 0.00718212 0.00627977 0.00052701 -0.000833167 4.97071e-10 -8.07149e-11 5.08384e-10 5e-05 1.46608e-10 
11 1 0.156588 0.0173028 0.00727449 0.00627968 0.000608704 -5.45058e-05 4.81248e-11 2.60097e-11 4.91167e-11 5e-05 1.46608e-10 
12 1 0.150161 0.0162767 0.00783875 0.00534589 -0.000709194 0.00133501 2.71833e-11 1.1692e-11 4.80205e-11 5e-05 1.46608e-10 
13 1 0.155927 0.0156231 0.00880791 0.00593786 1.45002e-05 -0.00075818 -6.22968e-11 1.01718e-10 -1.54981e-10 5e-05 1.46608e-10 
14 1 0.150848 0.0188778 0.0070077 0.0050465 -0.00105292 0.00100496 -3.81244e-10 -1.03322e-10 2.34057e-11 5e-05 1.46608e-10 
15 1 0.156445 0.0166902 0.00757341 0.0063079 0.000623023 -6.37599e-05 -2.32858e-10 -1.64391e-10 -1.39315e-10 5e-05 1.46608e-10 
16 1 0.15093 0.0185263 0.00701583 0.00531307 -0.0010945 0.00105851 -2.01658e-10 1.3825e-10 -4.29629e-11 5e-05 1.46608e-10 
17 1 0.156475 0.0168674 0.00748655 0.00623279 0.000591107 -5.37974e-05 -2.94358e-11 -6.81193e-11 -1.14214e-10 5e-05 1.46608e-10 
19 1 0.15597 0.0157223 0.00863974 0.00590944 -2.77962e-06 -0.000725098 4.19047e-10 -1.20441e-10 1.37188e-10 5e-05 1.46608e-10 
21 1 0.156505 0.017707 0.00715905 0.00634094 0.000509734 -0.000740431 2.98585e-10 1.22881e-10 -9.19744e-11 5e-05 1.46608e-10 
22 1 0.156454 0.0167795 0.0075294 0.00625495 0.000588442 -4.13624e-05 2.43507e-10 1.46628e-10 1.49033e-10 5e-05 1.46608e-10 
23 1 0.150317 0.0164997 0.00762862 0.00537812 -0.00153508 0.000399712 -2.05715e-11 -3.13277e-11 -1.3106e-12 5e-05 1.46608e-10 
24 1 0.162411 0.0173324 0.00735401 0.00589986 -0.000816495 0.000110949 3.84654e-13 3.1958e-13 -1.06315e-13 5e-05 1.46608e-10 
25 1 0.156283 0.0163115 0.00775535 0.00579665 0.000703621 -0.000120337 2.98641e-10 -1.92902e-10 8.21452e-11 5e-05 1.46608e-10 
26 1 0.162303 0.0168579 0.00746846 0.00595189 -0.000828017 0.000112769 5.18063e-12 -6.03624e-12 -1.71603e-12 5e-05 1.46608e-10 
27 1 0.150754 0.0171855 0.00738742 0.00577612 -0.00145756 0.00036416 -2.97796e-11 3.15749e-11 -9.61344e-12 5e-05 1.46608e-10 
28 1 0.156524 0.0170394 0.00740293 0.00627383 0.000617417 -5.95883e-05 1.91246e-11 -1.0194e-10 -4.93081e-11 5e-05 1.46608e-10 
29 1 0.156124 0.0161223 0.00796433 0.00574807 -7.5021e-05 -0.000805797 -4.22064e-11 1.51841e-10 -3.7693e-11 5e-05 1.46608e-10 
30 1 0.156613 0.0177267 0.00719486 0.00605771 0.000410076 -0.00103597 1.64512e-11 -2.32991e-10 -8.72779e-10 5e-05 1.46608e-10 
31 1 0.156298 0.0164003 0.00771178 0.00579465 0.000708785 -0.000115142 2.36311e-10 -2.37403e-11 -6.27453e-11 5e-05 1.46608e-10 
32 1 0.156316 0.0164956 0.00768741 0.00579031 0.000723078 -9.12771e-05 9.36122e-11 -2.64474e-11 -4.25658e-11 5e-05 1.46608e-10 
33 1 0.162245 0.0165716 0.00753739 0.00557356 -0.000746111 9.90393e-05 -4.58438e-12 1.30962e-11 -7.86542e-13 5e-05 1.46608e-10 
34 1 0.156085 0.0160223 0.00813319 0.00561048 4.43448e-05 -0.000754873 1.36569e-10 1.62343e-10 -2.08945e-10 5e-05 1.46608e-10 
35 1 0.15616 0.0162454 0.00781125 0.0057864 0.000508517 -0.000312548 1.97982e-11 7.58042e-12 3.43316e-11 5e-05 1.46608e-10 
36 1 0.162389 0.0172375 0.0073769 0.00591009 -0.000818802 0.000111361 4.41133e-13 -9.71242e-13 3.48681e-13 5e-05 1.46608e-10 
37 1 0.156704 0.0177658 0.00712881 0.00622391 0.000432125 -0.000776581 -2.72023e-10 3.98615e-11 1.8935e-11 5e-05 1.46608e-10 
38 1 0.156802 0.0174501 0.00720969 0.00611627 0.000998496 -0.000256252 1.55819e-09 -1.45493e-09 6.87794e-10 5e-05 1.46608e-10 
39 1 0.162471 0.0171814 0.0073891 0.00591608 -0.000810443 0.000109282 -3.29369e-14 -2.81909e-13 1.01451e-13 5e-05 1.46608e-10 
41 1 0.156597 0.0169796 0.00743556 0.006307 0.000658781 -7.75136e-05 2.68981e-11 -1.8718e-10 8.25119e-11 5e-05 1.46608e-10 
42 1 0.321436 0.0173475 0.00552525 4.61667e-16 2.25452e-15 8.4636e-14 -1.18083e-23 8.17487e-24 -2.06795e-25 5e-05 1.46608e-10 
44 1 0.156537 0.0171285 0.00735916 0.00629146 0.00062532 -6.05756e-05 6.27111e-11 -8.88383e-11 -2.79275e-12 5e-05 1.46608e-10 
45 1 0.162263 0.0166672 0.00751438 0.00552931 -0.000739813 9.7753e-05 1.62209e-11 3.1918e-12 -4.47224e-12 5e-05 1.46608e-10 
47 1 0.15605 0.0159217 0.00830252 0.00543819 6.34534e-05 -0.000776716 2.64395e-10 6.43256e-11 -1.56453e-10 5e-05 1.46608e-10 
48 1 0.156672 0.0176713 0.00713648 0.0063746 0.000389828 -0.000795865 5.91153e-10 -4.58272e-10 5.85366e-12 5e-05 1.46608e-10 
50 1 0.156237 0.0165839 0.00761811 0.00574806 0.000688794 -0.000122961 3.82184e-10 -7.1644e-11 -1.23584e-10 5e-05 1.46608e-10 
51 1 0.156219 0.0164956 0.0076615 0.00572192 0.00067387 -0.000160923 -7.87795e-12 -2.44813e-11 1.51007e-10 5e-05 1.46608e-10 
52 1 0.150087 0.0160644 0.00816878 0.00518203 -0.000699519 0.00130663 -7.28656e-11 -1.20585e-10 1.29456e-10 5e-05 1.46608e-10 
53 1 0.162437 0.0170075 0.00743095 0.0059352 -0.000813933 0.000109839 -5.17325e-13 1.60952e-12 -3.28311e-13 5e-05 1.46608e-10 
54 1 0.156733 0.0178612 0.00712147 0.00619217 0.000456843 -0.000772627 3.64243e-10 -2.24979e-10 -5.93704e-11 5e-05 1.46608e-10 
55 1 0.150033 0.0159049 0.00841711 0.00527257 -0.000702887 0.00132093 2.22031e-11 -6.78903e-11 1.04904e-10 5e-05 1.46608e-10 
56 1 0.156769 0.0176903 0.00712388 0.00641409 0.000448995 -0.000809816 4.30523e-10 4.47484e-10 -1.34443e-10 5e-05 1.46608e-10 
57 1 0.162282 0.0167628 0.00749138 0.00550828 -0.000735775 9.72731e-05 1.17051e-12 -9.58476e-12 1.18626e-12 5e-05 1.46608e-10 
59 1 0.156572 0.0168919 0.00747814 0.00618567 0.000617785 -5.48293e-05 -7.48939e-11 -1.63758e-10 1.48077e-10 5e-05 1.46608e-10 
61 1 0.156143 0.0161795 0.00788454 0.00576431 9.04726e-05 -0.000688844 1.66641e-10 1.47593e-11 3.97177e-12 5e-05 1.46608e-10 
62 1 0.156759 0.0172716 0.00729674 0.00625427 0.000611717 -5.79676e-05 2.19644e-10 -2.43095e-10 1.51655e-10 5e-05 1.46608e-10 
63 1 0.15641 0.0165135 0.00765991 0.00580675 0.000658078 -9.42168e-05 -2.36546e-10 3.66851e-10 -3.73366e-10 5e-05 1.46608e-10 
64 1 0.162493 0.0172767 0.0073661 0.00589986 -0.000816564 0.000110966 4.93423e-13 2.84061e-13 -6.8445e-14 5e-05 1.46608e-10 
65 1 0.150198 0.0164126 0.00770975 0.00537315 -0.000855911 0.00109575 -4.52263e-12 -2.96332e-11 2.34949e-11 5e-05 1.46608e-10 
66 1 0.150015 0.0158518 0.00849991 0.0060018 -0.000759257 0.00143962 -4.81076e-11 -5.97604e-11 8.24355e-11 5e-05 1.46608e-10 
67 1 0.156662 0.0172434 0.00730691 0.00626383 0.000630245 -6.70081e-05 1.61903e-10 -5.15619e-11 -1.066e-13 5e-05 1.46608e-10 
68 1 0.15636 0.01667 0.00762214 0.00609029 0.000638419 -5.81482e-05 7.29225e-10 -1.45904e-10 3.22795e-11 5e-05 1.46608e-10 
69 1 0.15666 0.0180197 0.00712394 0.0062527 0.000565456 -0.000781561 4.53202e-10 -7.33528e-11 -2.52543e-11 5e-05 1.46608e-10 
70 1 0.162324 0.0169528 0.00744557 0.00594133 -0.000825236 0.000112382 -4.69646e-13 7.73509e-13 -7.30936e-13 5e-05 1.46608e-10 
71 1 0.150069 0.0160112 0.00825162 0.00518371 -0.000697373 0.00130745 -4.25896e-11 -1.03585e-10 1.30761e-10 5e-05 1.46608e-10 
72 1 0.156655 0.0175752 0.0071612 0.00614857 0.000246475 -0.00117071 7.19728e-10 6.65872e-11 1.57483e-09 5e-05 1.46608e-10 
73 1 0.156741 0.0179608 0.00711653 0.00621056 0.000471827 -0.000774336 3.84943e-10 -7.24384e-11 -5.66036e-11 5e-05 1.46608e-10 
74 1 0.156735 0.017184 0.00733934 0.00626637 0.000638566 -7.11899e-05 -2.62059e-11 -7.90935e-11 6.04448e-11 5e-05 1.46608e-10 
76 1 0.150796 0.0182044 0.00704251 0.0053885 -0.00130892 0.000320613 -2.7199e-10 9.01652e-11 -1.61094e-10 5e-05 1.46608e-10 
77 1 0.156262 0.016678 0.0076412 0.00609035 0.000586079 -3.46127e-05 7.13571e-10 -3.39288e-10 4.32292e-11 5e-05 1.46608e-10 
78 1 0.150896 0.0187289 0.00701385 0.00532917 -0.00105644 0.00105986 -2.45912e-11 2.58535e-10 7.8811e-11 5e-05 1.46608e-10 
79 1 0.150134 0.0161706 0.00800604 0.0052779 -0.000708248 0.00132633 2.22194e-11 -7.96212e-11 1.05537e-10 5e-05 1.46608e-10 
80 1 0.156591 0.0172147 0.00741413 0.00625223 0.00065464 -6.16604e-05 6.93054e-11 1.70727e-10 -7.05311e-12 5e-05 1.46608e-10 
81 1 0.150817 0.0182989 0.00701749 0.00532791 -0.00119983 0.000647142 -2.64255e-10 1.3878e-10 -2.5889e-11 5e-05 1.46608e-10 
82 1 0.150199 0.0163268 0.00776115 0.005354 -0.000710856 0.00133909 6.17673e-11 -1.26462e-11 4.26475e-11 5e-05 1.46608e-10 
83 1 0.150837 0.0184943 0.00699612 0.005307 -0.00109492 0.00105705 -2.95778e-10 2.91691e-10 -7.43727e-11 5e-05 1.46608e-10 
84 1 0.162368 0.0171426 0.00739979 0.00592038 -0.000821002 0.00011173 -1.79476e-13 9.44941e-13 -1.11564e-13 5e-05 1.46608e-10 
85 1 0.150811 0.0174639 0.00729216 0.00578303 -0.00144056 0.000358299 -7.09723e-11 -3.61091e-12 3.06264e-12 5e-05 1.46608e-10 
86 1 0.156619 0.0170677 0.00739262 0.00629047 0.000612591 -5.65844e-05 -1.31263e-11 4.40228e-11 -4.108e-11 5e-05 1.46608e-10 
87 1 0.156928 0.0172423 0.00731797 0.00627438 0.000582423 -4.36993e-05 8.83346e-11 8.88196e-11 -4.87386e-11 5e-05 1.46608e-10 
88 1 0.156419 0.0171249 0.00746527 0.00626187 0.000638267 -6.91087e-05 1.2694e-10 -1.62995e-10 -2.04098e-10 5e-05 1.46608e-10 
89 1 0.156685 0.0173308 0.00726443 0.00628281 0.000629948 -6.59561e-05 2.93414e-10 -7.74973e-11 3.16266e-11 5e-05 1.46608e-10 
90 1 0.15664 0.0171557 0.00734967 0.00627996 0.000620539 -6.12584e-05 4.77498e-11 -9.62048e-13 -5.28268e-12 5e-05 1.46608e-10 
91 1 0.150797 0.0173703 0.00732409 0.0057868 -0.00144732 0.000360435 -7.85412e-11 3.94612e-12 1.15198e-13 5e-05 1.46608e-10 
92 1 0.156631 0.0174775 0.00718934 0.00633304 0.000656512 -7.14355e-05 -2.76704e-10 -2.3059e-10 -3.3144e-11 5e-05 1.46608e-10 
93 1 0.156331 0.0168234 0.00750274 0.00607378 0.000614461 -7.60126e-05 -8.67602e-11 9.80917e-11 -2.09581e-12 5e-05 1.46608e-10 
94 1 0.156533 0.0174446 0.00720183 0.00634865 0.000623548 -5.8539e-05 2.00884e-11 1.72342e-10 -7.39179e-11 5e-05 1.46608e-10 
95 1 0.156471 0.0172739 0.00740376 0.00626263 0.000630433 -5.96584e-05 2.66396e-11 -2.61092e-10 7.64978e-11 5e-05 1.46608e-10 
96 1 0.15636 0.0169097 0.00746095 0.00619062 0.000592236 -4.69416e-05 -3.44138e-10 5.27962e-11 -2.91748e-10 5e-05 1.46608e-10 
97 1 0.150513 0.0170002 0.0074553 0.00577659 -0.00144284 0.000359154 -2.13747e-11 -2.8353e-11 8.99876e-12 5e-05 1.46608e-10 
98 1 0.156495 0.0171813 0.00743302 0.00626303 0.000628508 -7.02517e-05 1.65927e-10 -1.81163e-10 -5.23116e-11 5e-05 1.46608e-10 
99 1 0.150219 0.0164877 0.00764728 0.00538582 -0.00123681 0.000640885 -2.07363e-11 -3.95621e-11 1.83953e-11 5e-05 1.46608e-10 
100 1 0.156707 0.0174207 0.0072206 0.00630368 0.000669285 -7.8197e-05 -2.06041e-11 1.77612e-10 -3.33566e-11 5e-05 1.46608e-10 
101 1 0.150144 0.0162232 0.00792165 0.00532323 -0.000708204 0.00133159 -1.94418e-11 -3.61735e-11 6.72887e-11 5e-05 1.46608e-10 
102 1 0.0643568 0.0187248 0.00531097 4.47446e-15 1.04126e-14 8.29605e-14 -1.45412e-21 6.01128e-22 -8.27181e-24 5e-05 1.46608e-10 
103 1 0.24257 0.0191927 0.00520306 -1.45275e-22 -1.27651e-22 1.23839e-22 0 0 0 5e-05 1.46608e-10 
104 1 0.150719 0.0182663 0.00702757 0.00536364 -0.00125914 0.00046724 -2.16557e-10 7.86484e-11 2.01151e-11 5e-05 1.46608e-10 
105 1 0.150627 0.0170543 0.0074345 0.00576069 -0.00146082 0.000365656 -6.31563e-12 5.93365e-11 -2.11367e-11 5e-05 1.46608e-10 
106 1 0.15058 0.0172791 0.00735968 0.00577464 -0.00144974 0.00036156 3.58029e-11 8.32209e-11 -2.98553e-11 5e-05 1.46608e-10 
107 1 0.150536 0.0170942 0.00742304 0.00576775 -0.00144829 0.000361229 -1.17798e-11 1.71255e-11 -5.82835e-12 5e-05 1.46608e-10 
108 1 0.156608 0.0181848 0.00712371 0.00618368 0.000673378 -0.00077669 -2.31783e-10 -5.54894e-10 1.24247e-10 5e-05 1.46608e-10 
109 1 0.156199 0.0164076 0.00770424 0.00578052 0.000688288 -0.000118631 4.06461e-12 -1.57037e-10 -5.14237e-11 5e-05 1.46608e-10 
110 1 0.156333 0.0170031 0.00748471 0.00624099 0.000633329 -4.8252e-05 3.22781e-11 1.23981e-10 -6.20848e-10 5e-05 1.46608e-10 
111 1 0.156456 0.01718 0.00733036 0.00628631 0.000616484 -5.97378e-05 1.3591e-11 -7.15458e-11 3.19276e-11 5e-05 1.46608e-10 
112 1 0.150994 0.0182123 0.00703545 0.00562062 -0.000754414 0.000126997 -8.06135e-11 1.17848e-10 5.39344e-12 5e-05 1.46608e-10 
113 1 0.150591 0.0177105 0.00721378 0.00576673 -0.00143279 0.000356639 -4.96815e-12 2.25889e-11 -1.27463e-11 5e-05 1.46608e-10 
114 1 0.150769 0.0189534 0.00699336 0.00519826 -0.00119764 0.00103348 -2.23006e-10 -1.92062e-10 -2.16762e-10 5e-05 1.46608e-10 
115 1 0.156501 0.01696 0.0074592 0.00621739 0.000610776 -6.55454e-05 -2.49647e-11 -1.89852e-10 -2.46929e-10 5e-05 1.46608e-10 
116 1 0.156587 0.0180872 0.00713017 0.00624351 0.000618834 -0.000785759 -2.19423e-10 -3.65008e-10 -5.45426e-11 5e-05 1.46608e-10 
117 1 0.156831 0.0172106 0.00732993 0.00629198 0.000656795 -7.87487e-05 -4.16309e-11 -2.7705e-10 1.3219e-10 5e-05 1.46608e-10 
118 1 0.150685 0.0185447 0.00696639 0.00534233 -0.0011702 0.00106852 8.02635e-12 4.45625e-11 -8.32397e-12 5e-05 1.46608e-10 
119 1 0.156432 0.0166012 0.00761718 0.00591387 0.000660075 -8.41258e-05 -3.42523e-10 2.48959e-10 -2.13328e-10 5e-05 1.46608e-10 
120 1 0.156256 0.0162248 0.00779739 0.00585267 0.000692989 -0.000113655 -2.01404e-10 -2.79502e-10 4.02638e-11 5e-05 1.46608e-10 
121 1 0.156067 0.015972 0.00821781 0.00552206 5.20191e-05 -0.000767496 3.88658e-10 9.26945e-11 -1.75904e-10 5e-05 1.46608e-10 
122 1 0.156309 0.0169101 0.00754709 0.0061758 0.000632598 -4.35088e-05 -1.18443e-10 2.38029e-10 -3.73911e-10 5e-05 1.46608e-10 
123 1 0.150641 0.0183304 0.00700339 0.00546795 -0.00133595 0.000370834 2.0038e-10 4.48762e-11 -1.35514e-10 5e-05 1.46608e-10 
124 1 0.156332 0.0170212 0.00758305 0.00621145 0.000686337 -1.87778e-05 1.76876e-10 -1.9075e-10 -8.64382e-10 5e-05 1.46608e-10 
125 1 0.156854 0.0173014 0.00728568 0.006233 0.000570991 -3.89909e-05 -8.39614e-11 -1.88804e-10 1.37466e-10 5e-05 1.46608e-10 
126 1 0.156184 0.0163188 0.00774781 0.00579417 0.000688018 -0.000110677 1.50713e-10 -3.06182e-11 6.95414e-11 5e-05 1.46608e-10 
127 1 0.150649 0.0171467 0.00740285 0.00576607 -0.00145439 0.0003633 -4.83238e-11 8.27692e-11 -2.48615e-11 5e-05 1.46608e-10 
128 1 0.15628 0.0167682 0.00768049 0.00628669 0.000586535 -5.80844e-05 -2.169e-10 -3.09398e-10 1.08021e-10 5e-05 1.46608e-10 
129 1 0.156506 0.0174864 0.00728859 0.00612684 0.00114346 -0.000375634 7.61916e-11 1.65951e-10 -1.91124e-10 5e-05 1.46608e-10 
131 1 0.150671 0.017239 0.00737119 0.00577677 -0.00145356 0.000362824 -2.22856e-11 2.06203e-11 -6.18219e-12 5e-05 1.46608e-10 
132 1 0.156543 0.0173657 0.00733813 0.00630004 0.000622915 -5.74922e-05 -1.45576e-10 1.59636e-10 -1.45698e-11 5e-05 1.46608e-10 
133 1 0.156522 0.0175822 0.00726513 0.00650147 0.00102979 -0.000289075 6.551e-11 1.84812e-10 -1.30444e-10 5e-05 1.46608e-10 
134 1 0.156336 0.016573 0.00762743 0.00586787 0.000714213 -9.22219e-05 2.78714e-10 -1.78042e-10 -7.77432e-11 5e-05 1.46608e-10 
135 1 0.155948 0.0156727 0.00872382 0.00593112 5.61736e-06 -0.000742486 1.92565e-10 6.59509e-11 -1.38861e-10 5e-05 1.46608e-10 
136 1 0.150788 0.0190512 0.00699972 0.00522881 -0.00118494 0.00104467 -6.75938e-12 -1.70387e-10 4.9021e-11 5e-05 1.46608e-10 
137 1 0.156269 0.016721 0.00755118 0.00624069 0.00059482 -4.80741e-05 2.73563e-11 5.47746e-11 -3.63672e-11 5e-05 1.46608e-10 
138 1 0.156643 0.0179044 0.00713064 0.00623768 0.000545646 -0.000783262 4.60158e-10 -2.51932e-10 6.15444e-11 5e-05 1.46608e-10 
140 1 0.156491 0.0172806 0.00730608 0.00627863 0.000638143 -5.98118e-05 9.30292e-11 -8.92472e-11 3.43095e-12 5e-05 1.46608e-10 
141 1 0.150785 0.0185792 0.00698754 0.00528993 -0.00110558 0.00105611 -1.67885e-10 2.01478e-10 -7.48462e-11 5e-05 1.46608e-10 
142 1 0.150622 0.0182376 0.00703516 0.00551147 -0.00135371 0.00033993 1.17612e-10 1.97603e-11 2.22764e-11 5e-05 1.46608e-10 
143 1 0.15005 0.0159582 0.00833419 0.00523427 -0.000700642 0.00131603 -4.87307e-11 -7.64355e-11 1.19561e-10 5e-05 1.46608e-10 
144 1 0.150725 0.0187374 0.00697916 0.00536025 -0.00114382 0.00106626 -6.66657e-11 1.44617e-11 -7.58031e-11 5e-05 1.46608e-10 
147 1 0.150912 0.0182659 0.00701919 0.0053653 -0.00111347 0.000251484 -1.36391e-10 1.22076e-10 -6.30759e-12 5e-05 1.46608e-10 
148 1 0.150257 0.016667 0.00757346 0.00569935 -0.00143227 0.000357569 -1.25515e-11 -3.98671e-11 1.35117e-11 5e-05 1.46608e-10 
149 1 0.156442 0.0170897 0.00737469 0.00627179 0.000616453 -6.5549e-05 -1.49174e-11 -7.14848e-11 -8.60092e-11 5e-05 1.46608e-10 
150 1 0.0100679 0.0201683 0.00551526 8.38444e-15 1.24864e-15 -8.48743e-14 7.28953e-24 -6.8475e-23 -4.1359e-25 5e-05 1.46608e-10 
151 1 0.150656 0.0179876 0.00711911 0.00575724 -0.00141765 0.000352427 2.62069e-11 6.31369e-11 1.69242e-12 5e-05 1.46608e-10 
153 1 0.150964 0.0186571 0.00702609 0.00528027 -0.00109663 0.00105032 8.82835e-11 1.96401e-10 -3.38519e-12 5e-05 1.46608e-10 
154 1 0.150705 0.0186399 0.0069894 0.00526294 -0.00113494 0.00105214 -1.53585e-11 9.68848e-11 -2.54607e-10 5e-05 1.46608e-10 
155 1 0.150278 0.0167594 0.00754179 0.00578858 -0.00145111 0.000360853 -5.98679e-13 -3.34545e-11 2.42761e-12 5e-05 1.46608e-10 
156 1 0.15074 0.0183615 0.00700538 0.00531324 -0.00117383 0.000783577 -2.71842e-10 1.25423e-10 -7.28415e-11 5e-05 1.46608e-10 
157 1 0.0219312 0.0187687 0.00551176 -3.82507e-14 8.16981e-14 2.9589e-13 2.51515e-23 -7.95127e-23 3.78435e-23 5e-05 1.46608e-10 
158 1 0.150864 0.0177845 0.00718275 0.00574766 -0.00142428 0.000354525 -1.76683e-11 5.82229e-11 -2.61394e-11 5e-05 1.46608e-10 
159 1 0.156781 0.0173609 0.00725318 0.00627205 0.00062643 -6.57153e-05 1.13487e-10 5.4173e-11 4.1517e-11 5e-05 1.46608e-10 
160 1 0.150734 0.0184587 0.00698274 0.00550377 -0.00111537 0.000942976 1.44575e-10 1.22549e-10 -1.63941e-10 5e-05 1.46608e-10 
162 1 0.150834 0.0183944 0.00699302 0.00531933 -0.00109263 0.00105975 -2.2469e-10 2.71682e-10 5.094e-11 5e-05 1.46608e-10 
164 1 0.150526 0.0174342 0.00730851 0.00577801 -0.00144158 0.000358686 -4.86626e-12 4.2991e-11 -1.45885e-11 5e-05 1.46608e-10 
165 1 0.150732 0.0179258 0.00713797 0.005757 -0.00141971 0.000352269 4.20169e-11 1.21268e-10 -4.37005e-11 5e-05 1.46608e-10 
166 1 0.156694 0.0181352 0.00711519 0.00609373 0.000582471 -0.000764502 -1.3312e-10 1.21348e-11 9.64979e-12 5e-05 1.46608e-10 
168 1 0.150602 0.0173714 0.00732802 0.00578123 -0.00144557 0.000360016 7.03295e-12 7.50517e-11 -2.61134e-11 5e-05 1.46608e-10 
169 1 0.150517 0.0177751 0.00719362 0.00576379 -0.00143302 0.000355988 1.18749e-11 2.31486e-11 -9.12656e-13 5e-05 1.46608e-10 
170 1 0.150714 0.0174244 0.00730764 0.00578685 -0.0014418 0.000358621 -5.4411e-11 4.3743e-11 -1.3758e-11 5e-05 1.46608e-10 
171 1 0.156566 0.0179896 0.00713664 0.00624823 0.000542043 -0.000780059 1.31856e-10 -7.75367e-10 -6.72336e-11 5e-05 1.46608e-10 
172 1 0.150655 0.0178686 0.00724469 0.00574802 -0.00142999 0.000348799 7.64068e-11 -6.02371e-13 -4.90778e-11 5e-05 1.46608e-10 
173 1 0.156613 0.0173973 0.00724619 0.00630097 0.000646335 -8.41257e-05 1.73571e-10 -7.8929e-11 2.66116e-12 5e-05 1.46608e-10 
174 1 0.150558 0.0171867 0.00739134 0.00577338 -0.00144281 0.000359238 -4.00283e-11 1.06242e-10 -3.6217e-11 5e-05 1.46608e-10 
175 1 0.144335 0.017112 0.00776152 0.00566116 0.000459818 0.00156367 4.02064e-12 1.87584e-11 -2.2095e-11 5e-05 1.46608e-10 
177 1 0.150568 0.0176248 0.00726264 0.00577082 -0.0014393 0.000357294 4.51024e-13 3.48085e-11 -7.29287e-12 5e-05 1.46608e-10 
178 1 0.150667 0.0176488 0.00723294 0.00576966 -0.00143383 0.000356607 -2.72295e-11 3.81525e-11 -1.57034e-11 5e-05 1.46608e-10 
179 1 0.150711 0.0178334 0.00716963 0.00575757 -0.001426 0.000352994 3.65895e-11 1.01794e-10 -4.81799e-11 5e-05 1.46608e-10 
181 1 0.15088 0.0181514 0.00705854 0.0054892 -0.00118554 0.000278346 -7.52811e-11 1.18278e-10 2.39801e-10 5e-05 1.46608e-10 
182 1 0.156545 0.0178921 0.0071431 0.00625903 0.000523558 -0.000784249 1.73279e-10 -3.27897e-10 1.92751e-10 5e-05 1.46608e-10 
183 1 0.150693 0.0173314 0.0073395 0.00578219 -0.00145304 0.000362499 -1.90046e-11 5.86535e-11 -1.87848e-11 5e-05 1.46608e-10 
184 1 0.156509 0.0173572 0.00724437 0.00630594 0.000631535 -6.22488e-05 8.51043e-11 5.44729e-12 -1.46052e-11 5e-05 1.46608e-10 
186 1 0.150602 0.0181448 0.00706692 0.00565369 -0.00138809 0.000344488 -1.49854e-10 2.88185e-11 -7.11384e-12 5e-05 1.46608e-10 
187 1 0.156483 0.0176112 0.00717789 0.0063314 0.000583195 -0.000386226 -8.87252e-11 -4.37477e-11 -1.89164e-10 5e-05 1.46608e-10 
188 1 0.156282 0.0166039 0.00770536 0.00573912 0.0004606 -1.51242e-05 1.18487e-10 -6.35231e-10 -3.46148e-11 5e-05 1.46608e-10 
189 1 0.156579 0.0176404 0.00715691 0.00627906 0.00041162 -0.000944593 4.46171e-10 -4.48417e-10 6.14605e-10 5e-05 1.46608e-10 
190 1 0.144522 0.0174845 0.00753347 0.00578551 0.000500301 0.00157191 -3.39517e-11 -1.29487e-10 1.22203e-10 5e-05 1.46608e-10 
191 1 0.156285 0.0168117 0.00759059 0.00614154 0.000589863 -5.84444e-05 -5.60741e-11 -6.90228e-11 1.46541e-10 5e-05 1.46608e-10 
192 1 0.150933 0.0175834 0.00724912 0.00575515 -0.00144126 0.000359174 -3.9344e-11 7.96877e-11 -2.61058e-11 5e-05 1.46608e-10 
193 1 0.156506 0.0165416 0.00764968 0.005834 0.000567796 -4.92283e-05 -2.2235e-10 4.70922e-10 -3.81709e-10 5e-05 1.46608e-10 
194 1 0.161461 0.0182058 0.00533758 1.57889e-15 -1.10045e-14 8.66685e-14 -9.7922e-22 -9.28252e-23 4.54949e-24 5e-05 1.46608e-10 
195 1 0.150808 0.0178633 0.00715739 0.0057601 -0.00141771 0.00035069 4.15246e-12 9.88292e-11 -3.33146e-11 5e-05 1.46608e-10 
196 1 0.150439 0.0170641 0.00743539 0.00577596 -0.00144435 0.000359749 -6.03565e-12 4.66958e-12 -2.15832e-12 5e-05 1.46608e-10 
197 1 0.1444 0.0173647 0.00759947 0.00574106 0.000384613 0.00135348 6.902e-13 -2.10159e-12 -2.79792e-10 5e-05 1.46608e-10 
198 1 0.150864 0.0189771 0.00701335 0.00519147 -0.00104754 0.00103993 -1.24607e-10 -1.88402e-10 -3.62259e-11 5e-05 1.46608e-10 
199 1 0.150812 0.0187819 0.00699813 0.00532468 -0.00108474 0.00105679 -1.35704e-10 -4.14951e-11 3.7416e-11 5e-05 1.46608e-10 
201 1 0.150613 0.0178028 0.00718213 0.00576366 -0.00143016 0.00035443 2.89784e-12 3.58045e-11 -6.10183e-12 5e-05 1.46608e-10 
202 1 0.150776 0.0181117 0.00707423 0.00560273 -0.00136011 0.000334798 -5.61809e-11 2.11182e-10 3.9403e-11 5e-05 1.46608e-10 
203 1 0.156352 0.0170673 0.00741043 0.00628063 0.00058241 -8.92462e-05 -1.25989e-11 4.50311e-10 -1.93473e-10 5e-05 1.46608e-10 
204 1 0.150109 0.0161171 0.00808688 0.00523149 -0.000702516 0.00131685 -7.33962e-11 -8.7304e-11 1.20976e-10 5e-05 1.46608e-10 
205 1 0.150859 0.0176477 0.00722907 0.00576511 -0.0014319 0.000356345 -3.86963e-11 5.47226e-11 -1.52137e-11 5e-05 1.46608e-10 
206 1 0.150483 0.0172495 0.00737181 0.0057761 -0.00144064 0.000358469 -5.20718e-11 5.89246e-11 -1.73797e-11 5e-05 1.46608e-10 
207 1 0.150252 0.0165725 0.0076059 0.00551766 -0.00142147 0.000365567 -2.71601e-11 -4.15981e-11 1.88441e-11 5e-05 1.46608e-10 
208 1 0.150643 0.0182114 0.0071292 0.00560806 -0.00132028 0.000309783 -3.0516e-10 3.05275e-11 6.74578e-11 5e-05 1.46608e-10 
209 1 0.147614 0.0184938 0.00693367 0.00554678 -0.000790327 0.000379102 7.19591e-13 -1.67887e-13 5.99452e-14 5e-05 1.46608e-10 
210 1 0.156558 0.0175449 0.0071794 0.00632479 0.000608781 -0.00017994 -6.07021e-12 -1.0445e-10 -2.27512e-10 5e-05 1.46608e-10 
211 1 0.156462 0.0175142 0.00718961 0.00634968 0.000613797 -0.000105045 -4.27064e-11 -1.58347e-10 2.89847e-11 5e-05 1.46608e-10 
212 1 0.15083 0.017956 0.00712562 0.00575405 -0.00137707 0.000337326 -1.21156e-10 2.62266e-11 -1.29506e-11 5e-05 1.46608e-10 
213 1 0.156614 0.0178089 0.00713799 0.00631857 0.00061402 -0.000773217 3.54278e-10 4.69553e-10 1.5717e-10 5e-05 1.46608e-10 
214 1 0.156398 0.0172612 0.00733656 0.00627691 0.000613309 -6.70536e-05 1.16312e-11 -6.91544e-11 3.33574e-12 5e-05 1.46608e-10 
215 1 0.144498 0.0174043 0.00758816 0.0057594 0.000501477 0.00155981 -2.06698e-11 -1.28295e-10 1.03666e-10 5e-05 1.46608e-10 
216 1 0.150781 0.0178074 0.0072358 0.00576367 -0.00141993 0.000352146 6.12621e-11 9.50582e-11 -5.80332e-11 5e-05 1.46608e-10 
217 1 0.156759 0.018059 0.0071104 0.00601939 0.000514583 -0.000752319 -4.22764e-10 1.13498e-10 4.74819e-11 5e-05 1.46608e-10 
218 1 0.150322 0.0169441 0.00747848 0.00578637 -0.00144771 0.000360361 5.014e-14 1.63669e-12 -5.86758e-12 5e-05 1.46608e-10 
219 1 0.156411 0.0169878 0.00742412 0.0062915 0.000557913 -1.90647e-05 -4.06202e-10 1.21438e-10 -1.79208e-10 5e-05 1.46608e-10 
220 1 0.150754 0.0180184 0.00710621 0.00576842 -0.00136095 0.000330906 -8.17145e-11 5.1087e-11 -3.76557e-13 5e-05 1.46608e-10 
221 1 0.144387 0.0169922 0.0078729 0.00563571 0.000465704 0.00154827 2.53362e-11 3.5057e-11 -1.86642e-11 5e-05 1.46608e-10 
222 1 0.156715 0.0170961 0.00738228 0.00629092 0.000634918 -6.6148e-05 -5.70244e-11 1.11299e-10 -4.78579e-11 5e-05 1.46608e-10 
223 1 0.150699 0.0181725 0.00705562 0.00560403 -0.0013559 0.000323007 -1.56523e-10 5.83714e-11 1.32132e-10 5e-05 1.46608e-10 
224 1 0.144453 0.0172609 0.00802233 -0.0121868 0.0301201 -0.00879095 0 0 -1.43822e-09 5e-05 1.46608e-10 
225 1 0.156364 0.0167484 0.00756023 0.0062386 0.000615511 -5.21896e-05 4.26615e-11 4.64162e-12 8.8055e-11 5e-05 1.46608e-10 
226 1 0.150575 0.0179362 0.00722639 0.0057507 -0.00143574 0.000351341 7.45144e-11 1.12627e-10 -7.30435e-12 5e-05 1.46608e-10 
227 1 0.144451 0.0172343 0.00770528 0.00572304 0.000465377 0.00157545 1.03129e-10 2.65873e-11 1.00445e-11 5e-05 1.46608e-10 
228 1 0.144356 0.0171923 0.00770582 0.00568423 0.000451213 0.0015744 1.83558e-11 1.76014e-11 2.66297e-12 5e-05 1.46608e-10 
229 1 0.150942 0.018006 0.00710624 0.00581473 -0.00109043 0.000237979 -1.94445e-10 2.24049e-10 -5.23812e-11 5e-05 1.46608e-10 
230 1 0.150474 0.0175904 0.00725692 0.00576951 -0.00143831 0.000357674 -8.29579e-12 2.17749e-11 -5.03373e-12 5e-05 1.46608e-10 
231 1 0.144314 0.0170317 0.00781722 0.00562713 0.000460001 0.00155025 9.14229e-12 2.17185e-11 -4.07991e-12 5e-05 1.46608e-10 
232 1 0.150878 0.0186111 0.00700724 0.00528166 -0.00110385 0.00105235 -1.91846e-10 3.86037e-10 -2.62406e-11 5e-05 1.46608e-10 
234 1 0.156624 0.0175536 0.0072539 0.0071168 0.00133196 -0.000936311 8.28976e-11 -5.52764e-11 -1.00322e-09 5e-05 1.46608e-10 
235 1 0.150737 0.0175273 0.00727242 0.00577896 -0.00144124 0.000358656 -3.45014e-11 4.21337e-13 4.11829e-14 5e-05 1.46608e-10 
236 1 0.150452 0.0174981 0.00728857 0.00577272 -0.00143953 0.000358035 7.8411e-12 2.29732e-11 -7.9904e-12 5e-05 1.46608e-10 
237 1 0.150409 0.0173134 0.00735188 0.0057754 -0.00144073 0.000358442 -1.38232e-11 2.5569e-11 -6.10096e-12 5e-05 1.46608e-10 
239 1 0.144128 0.0163087 0.00832028 0.0058198 0.000506451 0.00157879 -6.74483e-11 1.22563e-10 -1.23507e-10 5e-05 1.46608e-10 
240 1 0.144187 0.0165498 0.00815141 0.00544627 0.000473898 0.00147765 -1.3631e-11 -3.67222e-11 2.12708e-11 5e-05 1.46608e-10 
241 1 0.144105 0.0162283 0.0083753 0.00590355 0.000180361 0.00186223 3.2242e-11 1.14932e-10 -7.95627e-11 5e-05 1.46608e-10 
242 1 0.15066 0.0184217 0.00703946 0.00542564 -0.00142481 0.000665809 5.42483e-11 2.1293e-10 -1.5105e-10 5e-05 1.46608e-10 
244 1 0.144148 0.0163891 0.00826398 0.00387362 0.000863013 0.000638509 -6.47375e-10 2.38398e-10 -4.11239e-10 5e-05 1.46608e-10 
246 1 0.144271 0.016871 0.00792861 0.00556671 0.000465417 0.00152525 1.84163e-14 7.67864e-12 -3.48441e-13 5e-05 1.46608e-10 
247 1 0.150854 0.0180523 0.00709257 0.00573199 -0.00121514 0.000285047 -2.5265e-10 -1.10358e-11 7.00376e-11 5e-05 1.46608e-10 
248 1 0.150495 0.0176827 0.00722527 0.00576684 -0.00143598 0.000357268 -8.48548e-12 2.26803e-11 -4.78694e-12 5e-05 1.46608e-10 
249 1 0.144592 0.0174415 0.00759084 0.00579091 0.000503034 0.00157148 7.23263e-11 -4.52211e-11 6.81776e-11 5e-05 1.46608e-10 
250 1 0.1503 0.0168518 0.00751014 0.00578948 -0.00144991 0.000360868 -7.75241e-12 -1.33127e-11 1.41544e-12 5e-05 1.46608e-10 
251 1 0.156374 0.0171616 0.00738401 0.00626005 0.000606705 -8.26355e-05 -2.20327e-11 -1.39555e-10 -1.43113e-10 5e-05 1.46608e-10 
252 1 0.144444 0.017541 0.00750612 0.00578367 0.000502969 0.00156543 8.57381e-11 1.66637e-10 2.73962e-11 5e-05 1.46608e-10 
253 1 0.14443 0.0171539 0.00776098 0.0056961 0.000466723 0.00156768 6.10757e-11 7.9516e-11 -5.28026e-11 5e-05 1.46608e-10 
254 1 0.14425 0.0167907 0.00798431 0.00553643 0.000467651 0.00151291 6.61355e-12 1.00281e-11 1.30723e-12 5e-05 1.46608e-10 
255 1 0.150803 0.0186772 0.00699373 0.00538267 -0.001123 0.00106984 4.69154e-11 1.65551e-10 1.08238e-11 5e-05 1.46608e-10 
256 1 0.150837 0.0175553 0.00726072 0.00577157 -0.00143273 0.000355963 -8.11191e-11 1.80006e-11 -5.29693e-12 5e-05 1.46608e-10 
257 1 0.150633 0.0177762 0.00727635 0.00577645 -0.00142662 0.00035135 -9.66958e-11 1.76671e-11 2.67254e-11 5e-05 1.46608e-10 
258 1 0.150634 0.0178952 0.00715047 0.0057544 -0.00142668 0.000353232 2.7929e-11 5.57333e-11 -2.76646e-11 5e-05 1.46608e-10 
259 1 0.144462 0.0175969 0.00742521 0.00585372 0.000508314 0.0015878 -3.92579e-11 1.09135e-11 -5.77476e-11 5e-05 1.46608e-10 
261 1 0.150689 0.0177411 0.00720129 0.00576674 -0.00142826 0.00035418 1.29159e-11 7.01544e-11 -1.90378e-11 5e-05 1.46608e-10 
262 1 0.150387 0.0172211 0.00738353 0.00577684 -0.00144199 0.00035894 -4.76717e-12 2.42396e-11 -9.56694e-12 5e-05 1.46608e-10 