ITEM: TIMESTEP
14200000
ITEM: NUMBER OF ATOMS
287
ITEM: BOX BOUNDS ff ff ff
-0.02 0.43
-0.02 0.06
-0.02 0.07
ITEM: ATOMS id type x y z vx vy vz fx fy fz radius mass 
1 1 0.0956353 0.0163674 0.00781033 0.00615724 -5.77409e-05 0.000256472 -6.43341e-11 3.3844e-11 -1.33456e-10 5e-05 1.46608e-10 
2 1 0.0960789 0.0174316 0.00718029 0.00564232 -0.000100429 4.28246e-05 -2.22286e-10 1.81363e-10 -1.05659e-11 5e-05 1.46608e-10 
3 1 0.0894025 0.015855 0.00821322 0.00605687 -7.34877e-05 0.000671176 -2.96867e-10 -4.8903e-11 -1.33407e-10 5e-05 1.46608e-10 
4 1 0.0959562 0.0177336 0.00710413 0.00552949 -9.65037e-06 1.94463e-05 -7.29315e-11 1.44935e-11 1.23392e-12 5e-05 1.46608e-10 
5 1 0.0955181 0.0162667 0.00788907 0.00614127 -5.73785e-05 0.00025412 -6.78116e-11 1.77779e-11 -6.98202e-12 5e-05 1.46608e-10 
6 1 0.101633 0.0166861 0.00757965 0.00625284 0.000283057 8.48207e-05 7.43756e-11 -4.028e-11 5.39425e-11 5e-05 1.46608e-10 
7 1 0.0957031 0.0169672 0.00735553 0.00579295 -0.000173124 -0.000144932 -3.62684e-10 -1.11497e-10 1.44289e-10 5e-05 1.46608e-10 
8 1 0.0954097 0.0158878 0.00819673 0.00609074 -9.26486e-05 0.000283392 -2.93027e-11 1.23521e-11 -1.21163e-11 5e-05 1.46608e-10 
9 1 0.101888 0.0178286 0.00707562 0.0056148 0.000314913 -0.000225607 2.66502e-10 3.64949e-11 -9.84976e-12 5e-05 1.46608e-10 
10 1 0.0956454 0.0167287 0.00752805 0.00564625 -0.000164462 -0.000127748 1.22171e-10 2.39723e-10 -1.84866e-10 5e-05 1.46608e-10 
11 1 0.096119 0.0176229 0.00713241 0.00553493 -1.05316e-05 1.99238e-05 -1.60461e-10 1.2977e-10 -2.84511e-11 5e-05 1.46608e-10 
12 1 0.0896162 0.016624 0.00764379 0.00593984 -0.000551795 -6.2433e-05 8.96566e-13 -9.14896e-11 1.16596e-10 5e-05 1.46608e-10 
13 1 0.0954964 0.0161909 0.0079506 0.00613014 -6.26444e-05 0.000258976 -6.4423e-11 -2.01848e-11 4.61239e-14 5e-05 1.46608e-10 
14 1 0.0893205 0.0156364 0.00853799 0.00591123 -7.0516e-05 0.000658415 3.09922e-10 3.39795e-10 -1.60112e-10 5e-05 1.46608e-10 
15 1 0.0958372 0.0171617 0.00724036 0.00560798 -5.85031e-06 0.000165093 -2.54144e-10 1.88514e-10 7.34736e-11 5e-05 1.46608e-10 
16 1 0.0893001 0.0155817 0.00861918 0.00585198 -5.80631e-05 0.00063337 -4.13819e-10 2.66292e-11 -1.03765e-10 5e-05 1.46608e-10 
17 1 0.0956263 0.0166502 0.00758712 0.0056068 -0.000158575 3.56723e-07 -3.89746e-11 5.67282e-11 -1.89525e-10 5e-05 1.46608e-10 
18 1 0.101769 0.0172553 0.00720585 0.00562545 0.000322865 -0.000223983 -2.24745e-10 2.07413e-10 -1.34555e-10 5e-05 1.46608e-10 
19 1 0.0954747 0.0161151 0.00801213 0.00612224 -6.95521e-05 0.000265607 -4.20124e-12 -3.6902e-11 2.58605e-11 5e-05 1.46608e-10 
21 1 0.0956136 0.0162916 0.00787186 0.00615215 -5.17163e-05 0.000251289 -1.63397e-10 2.59348e-11 -3.54873e-11 5e-05 1.46608e-10 
22 1 0.0957415 0.0171293 0.00724484 0.00560816 4.57892e-06 0.000142881 -2.03932e-11 -6.18788e-11 8.88639e-11 5e-05 1.46608e-10 
23 1 0.0897976 0.0170042 0.00744553 0.00559843 -0.000530098 -5.06278e-05 -4.82234e-11 -9.53602e-11 1.2449e-10 5e-05 1.46608e-10 
24 1 0.101829 0.0175419 0.00714074 0.00571734 0.000298476 -0.000224173 6.86219e-11 -2.21749e-11 -1.37375e-12 5e-05 1.46608e-10 
25 1 0.0956839 0.0168877 0.00741304 0.00575499 -0.000153848 -0.000138919 1.12417e-10 -2.30408e-11 -1.0394e-10 5e-05 1.46608e-10 
26 1 0.101711 0.0170024 0.00734735 0.00584915 0.000324002 3.04237e-05 5.25318e-11 -1.60104e-10 1.70896e-10 5e-05 1.46608e-10 
27 1 0.0896981 0.0169729 0.00746636 0.00560973 -0.000492551 -6.93074e-05 -2.39634e-11 -5.51641e-11 1.42559e-11 5e-05 1.46608e-10 
28 1 0.0959368 0.0176384 0.00712794 0.00554287 -1.07035e-05 2.00185e-05 -5.84514e-11 2.64621e-11 3.73917e-11 5e-05 1.46608e-10 
29 1 0.095453 0.0160393 0.00807366 0.00611454 -7.83894e-05 0.000272413 7.86138e-11 -9.73063e-12 8.01967e-12 5e-05 1.46608e-10 
30 1 0.0959713 0.0173866 0.00720173 0.00567799 -5.70358e-05 -1.06929e-05 -6.31416e-11 -1.66064e-10 -2.38052e-10 5e-05 1.46608e-10 
31 1 0.0957224 0.0170472 0.00729872 0.00581942 -0.00027627 -0.000227118 -3.36839e-11 1.75293e-10 1.63532e-10 5e-05 1.46608e-10 
32 1 0.0958189 0.0170729 0.00728255 0.00553161 -3.46065e-05 9.25797e-05 -5.85545e-10 4.51065e-10 1.92462e-10 5e-05 1.46608e-10 
33 1 0.101654 0.016765 0.00752174 0.00573383 0.000364264 3.65244e-06 -2.26861e-10 -1.68901e-11 -8.43778e-11 5e-05 1.46608e-10 
34 1 0.0956049 0.0165729 0.00764679 0.00616085 -0.000161806 0.000186916 4.30927e-11 -1.57137e-10 -1.85194e-10 5e-05 1.46608e-10 
35 1 0.0958001 0.0169911 0.00733692 0.00540875 -0.000134547 -8.55341e-05 -1.55508e-10 3.83586e-10 1.85143e-11 5e-05 1.46608e-10 
36 1 0.101927 0.01802 0.00703219 0.00560282 0.000300821 -0.000222235 -2.66948e-11 1.11849e-10 -2.19017e-11 5e-05 1.46608e-10 
37 1 0.0957613 0.0168309 0.0074502 0.00544834 -0.00014829 -0.000118545 4.15501e-10 1.15759e-10 -5.96288e-11 5e-05 1.46608e-10 
38 1 0.0959122 0.0170976 0.00725657 0.00549435 -8.86373e-06 0.000145463 -4.61308e-10 -2.67042e-11 2.84374e-10 5e-05 1.46608e-10 
39 1 0.101849 0.0176375 0.00711903 0.00571948 0.000299955 -0.000225344 -1.28552e-11 -2.2643e-11 1.15894e-11 5e-05 1.46608e-10 
41 1 0.0955615 0.0164189 0.00776679 0.00616527 -7.25482e-05 0.000243074 -1.57577e-10 -1.09131e-10 5.74968e-11 5e-05 1.46608e-10 
42 1 0.0957615 0.0172251 0.00722455 0.00561488 1.1225e-05 0.000170477 -1.27423e-10 5.24807e-12 4.4884e-10 5e-05 1.46608e-10 
44 1 0.0959323 0.0171933 0.00723602 0.00559687 -2.82255e-05 0.000151353 -1.84082e-10 1.88929e-10 -5.00443e-11 5e-05 1.46608e-10 
45 1 0.101673 0.0168442 0.00746361 0.00578158 0.000349984 1.79663e-05 2.10589e-10 1.30112e-10 -1.77192e-12 5e-05 1.46608e-10 
46 1 0.101749 0.0171606 0.00723109 0.00565253 0.000377632 -3.04705e-05 -3.77152e-11 -1.98615e-10 -2.33883e-10 5e-05 1.46608e-10 
47 1 0.0955832 0.016496 0.00770701 0.00618636 -0.000110368 0.000232921 -3.69617e-10 -1.49404e-10 -6.49332e-11 5e-05 1.46608e-10 
48 1 0.0958016 0.0174169 0.0071831 0.00561709 -3.81211e-05 7.41636e-05 -8.60862e-11 -1.51065e-10 1.16544e-10 5e-05 1.46608e-10 
49 1 0.10173 0.0170815 0.00728924 0.00578917 0.000360387 6.85033e-06 -6.22562e-11 4.58292e-11 -1.62261e-10 5e-05 1.46608e-10 
50 1 0.0958614 0.0177021 0.00711174 0.00553298 -2.58712e-05 2.58443e-05 -1.13128e-10 -2.15508e-11 1.29138e-11 5e-05 1.46608e-10 
51 1 0.0958416 0.017607 0.00713553 0.00564985 -5.18031e-05 2.8814e-05 -3.30308e-11 -5.87236e-11 3.52326e-11 5e-05 1.46608e-10 
52 1 0.0895941 0.016536 0.00768592 0.00609419 -0.00058838 -5.23405e-05 -4.48481e-11 -1.36386e-10 8.70778e-11 5e-05 1.46608e-10 
53 1 0.101789 0.0173508 0.00718415 0.00568079 0.000296758 -0.000231435 -1.51198e-10 3.46315e-11 -2.31869e-10 5e-05 1.46608e-10 
54 1 0.0955919 0.0162158 0.00793341 0.00612937 -6.8461e-05 0.000265312 -1.02574e-10 3.87308e-11 -4.55195e-11 5e-05 1.46608e-10 
55 1 0.0893627 0.0157456 0.00837584 0.00595424 -7.6391e-05 0.000673401 -3.60427e-10 -4.65108e-11 -3.40388e-11 5e-05 1.46608e-10 
56 1 0.0957807 0.0169105 0.00739292 0.00535395 -0.000178548 -0.000173825 3.14493e-10 1.45878e-10 -1.14234e-10 5e-05 1.46608e-10 
57 1 0.101692 0.0169233 0.00740548 0.00581382 0.000328877 2.73001e-05 2.36014e-10 -9.243e-11 1.40568e-10 5e-05 1.46608e-10 
59 1 0.0958368 0.0167761 0.00748605 0.00544723 -0.000176034 -0.00013681 -3.61045e-10 -7.84735e-11 1.3235e-10 5e-05 1.46608e-10 
60 1 0.0958564 0.0168555 0.00742857 0.00545766 -0.000149374 -0.00012731 -2.85674e-10 7.04865e-11 1.35529e-10 5e-05 1.46608e-10 
61 1 0.0955398 0.0163425 0.00782754 0.00615316 -5.60954e-05 0.000252567 -3.59471e-11 -4.94886e-11 4.14919e-11 5e-05 1.46608e-10 
62 1 0.0959521 0.0172892 0.00721545 0.00562685 -4.25443e-05 0.000161948 -8.24871e-11 6.86481e-11 1.97139e-11 5e-05 1.46608e-10 
63 1 0.095897 0.0174486 0.00717675 0.00566769 -3.19908e-05 9.56933e-05 2.26362e-11 7.68567e-12 2.42737e-11 5e-05 1.46608e-10 
64 1 0.101809 0.0174464 0.00716244 0.00571433 0.000296505 -0.000223245 -2.12017e-11 -4.77971e-11 -6.0959e-11 5e-05 1.46608e-10 
65 1 0.0897128 0.0166507 0.00762322 0.00585294 -0.000325535 -0.000166326 -3.90127e-12 -2.52463e-11 1.4383e-11 5e-05 1.46608e-10 
66 1 0.0896485 0.0163877 0.00775566 0.00613012 -0.000589078 -9.23133e-05 -6.43587e-11 -5.98052e-11 2.43449e-10 5e-05 1.46608e-10 
67 1 0.0960991 0.0175271 0.00715639 0.00571312 0.000267299 -5.00956e-05 -1.8033e-11 -4.5688e-11 6.21071e-12 5e-05 1.46608e-10 
68 1 0.0960118 0.0175743 0.00714428 0.00560901 7.56344e-05 -4.14639e-06 -6.35026e-11 -1.57621e-10 7.50512e-11 5e-05 1.46608e-10 
69 1 0.0957003 0.0165949 0.00762555 0.00565847 2.65075e-05 0.000168239 -7.90704e-11 8.65432e-11 -7.20903e-11 5e-05 1.46608e-10 
70 1 0.101869 0.017733 0.00709733 0.00572952 0.000297493 -0.000224928 -1.03422e-10 -3.81139e-11 9.53799e-12 5e-05 1.46608e-10 
71 1 0.089341 0.015691 0.00845679 0.00592025 -9.10534e-05 0.000670558 1.47715e-10 1.33483e-10 -2.02738e-11 5e-05 1.46608e-10 
72 1 0.0959918 0.0174791 0.00716808 0.00566781 -4.67296e-05 3.10527e-05 -8.60913e-11 8.94419e-11 3.77356e-11 5e-05 1.46608e-10 
73 1 0.0956647 0.0168082 0.00747054 0.00570136 -0.000154626 -0.000134418 1.64433e-11 1.73471e-10 -8.71145e-11 5e-05 1.46608e-10 
74 1 0.0958573 0.0172576 0.00722049 0.00562178 -4.40207e-06 0.000185164 -4.12048e-11 1.36236e-10 -1.49845e-10 5e-05 1.46608e-10 
76 1 0.0899248 0.0175428 0.00717487 0.00561616 -0.000428649 -9.90144e-05 2.48814e-10 2.85924e-10 -2.20244e-10 5e-05 1.46608e-10 
77 1 0.0959916 0.0183388 0.0069524 0.00562142 -1.79129e-05 2.16766e-05 2.65413e-11 -1.98403e-10 4.8734e-11 5e-05 1.46608e-10 
78 1 0.0894228 0.0159081 0.00813099 0.00611181 -0.000164269 0.000618099 -1.97811e-10 7.71896e-11 -3.78645e-11 5e-05 1.46608e-10 
79 1 0.089637 0.0167122 0.00760147 0.0056876 -0.000503601 -8.61349e-05 -5.9606e-11 -6.79227e-11 5.79125e-11 5e-05 1.46608e-10 
80 1 0.0959003 0.0178951 0.00708048 0.00550103 -3.37785e-05 1.75656e-06 9.1463e-11 1.25592e-10 4.58761e-10 5e-05 1.46608e-10 
81 1 0.0895735 0.0164486 0.00772988 0.00611563 -0.000602339 -6.76964e-05 -1.09594e-10 -2.14284e-10 -6.95495e-11 5e-05 1.46608e-10 
82 1 0.0897182 0.0170605 0.00742259 0.00562227 -0.000504106 -6.5602e-05 4.9624e-12 -6.19459e-11 -1.02569e-11 5e-05 1.46608e-10 
83 1 0.0897231 0.016328 0.00778491 0.00609601 -0.000358558 0.00045545 7.44023e-11 -3.75827e-11 4.59122e-11 5e-05 1.46608e-10 
84 1 0.101908 0.0179243 0.0070539 0.00559585 0.000309625 -0.000223837 5.4264e-11 1.07006e-10 -2.83115e-11 5e-05 1.46608e-10 
85 1 0.0895218 0.0159209 0.0080948 0.00617299 -0.000434204 0.000319246 3.6032e-11 1.83881e-11 -1.59518e-10 5e-05 1.46608e-10 
86 1 0.095917 0.0175435 0.00715208 0.00565895 -4.42558e-05 3.27899e-05 -5.50889e-11 5.90346e-11 9.09893e-11 5e-05 1.46608e-10 
87 1 0.0958174 0.0166977 0.00754509 0.00548837 1.831e-05 0.000177395 2.29628e-10 -1.76253e-10 2.51508e-10 5e-05 1.46608e-10 
88 1 0.0959367 0.0180712 0.00701937 0.00554595 -3.70354e-05 2.32087e-05 -9.68312e-11 -8.05119e-11 1.68796e-11 5e-05 1.46608e-10 
89 1 0.0959201 0.0179931 0.00707951 0.00552128 -2.25901e-05 3.71351e-05 -1.65176e-11 3.47103e-11 3.61222e-11 5e-05 1.46608e-10 
90 1 0.0960579 0.0173365 0.00720406 0.00566484 -7.14172e-05 3.48614e-05 -1.10218e-11 -7.77075e-12 2.0943e-12 5e-05 1.46608e-10 
91 1 0.0896577 0.0167992 0.00755685 0.00555998 -0.0004778 -9.06053e-05 -2.51182e-11 -7.79478e-11 6.70981e-12 5e-05 1.46608e-10 
92 1 0.09607 0.0178604 0.00707267 0.00552887 -2.38834e-05 2.23968e-05 2.55735e-12 8.41354e-11 -2.12873e-11 5e-05 1.46608e-10 
93 1 0.0960286 0.0180344 0.00703371 0.00555377 -2.74942e-05 1.97308e-05 -1.34021e-11 -9.25559e-13 3.58512e-11 5e-05 1.46608e-10 
94 1 0.0961279 0.0181845 0.00699154 0.00556096 -2.91248e-05 2.39487e-05 -2.7853e-11 -1.09818e-11 -4.16026e-12 5e-05 1.46608e-10 
95 1 0.096018 0.0179211 0.00715185 0.00550582 -7.22844e-05 2.57204e-05 -1.50592e-11 1.03041e-10 -1.94098e-11 5e-05 1.46608e-10 
96 1 0.0960885 0.0179557 0.00704881 0.0055445 -3.09039e-05 2.37789e-05 2.99156e-12 6.51989e-11 -1.18624e-11 5e-05 1.46608e-10 
97 1 0.0895297 0.016276 0.00782082 0.0061424 -0.00045686 0.000243495 -1.85772e-11 5.53332e-11 3.35934e-10 5e-05 1.46608e-10 
98 1 0.0959561 0.0181693 0.00702086 0.00555757 -3.83847e-05 1.90914e-05 1.12338e-10 -1.26901e-10 3.94984e-11 5e-05 1.46608e-10 
99 1 0.0896921 0.0165633 0.00766714 0.00609732 -0.000375915 -0.000154422 5.63229e-11 -5.5096e-11 8.77051e-12 5e-05 1.46608e-10 
100 1 0.0960192 0.0171455 0.00724898 0.00556555 -5.62572e-05 0.000160959 -3.4481e-10 -2.94203e-11 1.75723e-10 5e-05 1.46608e-10 
101 1 0.0896262 0.0163012 0.00780059 0.00612539 -0.000600482 -0.000115239 -5.42963e-11 -7.21747e-11 2.02412e-10 5e-05 1.46608e-10 
102 1 0.0643568 0.0187248 0.00531097 4.19604e-15 1.05204e-14 8.29606e-14 1.68339e-21 -9.3262e-22 2.97785e-23 5e-05 1.46608e-10 
103 1 0.24257 0.0191927 0.00520306 -7.91558e-23 2.24983e-22 1.23839e-22 0 0 0 5e-05 1.46608e-10 
104 1 0.0899914 0.0174092 0.00723657 0.00552923 -0.000447531 -9.01087e-05 1.45874e-10 -3.17516e-11 2.45926e-11 5e-05 1.46608e-10 
105 1 0.0894866 0.0161043 0.00791391 0.00617891 -0.000355476 0.000452711 -1.06839e-10 6.49724e-11 -6.22222e-11 5e-05 1.46608e-10 
106 1 0.0900708 0.017351 0.00726067 0.00550352 -0.000485825 -6.71542e-05 -2.63072e-10 1.96551e-10 -8.00665e-11 5e-05 1.46608e-10 
107 1 0.0894437 0.0159675 0.00805328 0.00613847 -0.000309186 0.000503118 1.67082e-10 1.25233e-10 -1.35839e-11 5e-05 1.46608e-10 
108 1 0.0957418 0.0167516 0.00750786 0.00552322 -0.000102088 -5.58413e-05 1.49736e-10 -4.28899e-12 -1.13919e-10 5e-05 1.46608e-10 
109 1 0.0958216 0.017512 0.00715934 0.00566201 -6.68668e-05 -1.35008e-05 4.2066e-11 -9.87157e-11 -2.138e-10 5e-05 1.46608e-10 
110 1 0.0961981 0.0182536 0.00697441 0.00557173 -3.69803e-05 2.65066e-05 -1.10464e-11 2.51498e-11 -1.01901e-11 5e-05 1.46608e-10 
111 1 0.095997 0.0183519 0.00705139 0.00562197 8.07709e-07 1.93521e-05 4.59891e-11 7.18212e-12 -9.79201e-12 5e-05 1.46608e-10 
112 1 0.0895513 0.0163622 0.00777505 0.00612101 -0.000552941 3.85654e-05 -1.08384e-10 -1.77756e-10 -2.34347e-11 5e-05 1.46608e-10 
113 1 0.0903595 0.0180773 0.00698515 0.00554674 -0.000542753 0.000249141 -5.62174e-10 2.42708e-11 -6.1375e-11 5e-05 1.46608e-10 
114 1 0.0899246 0.0171322 0.00737584 0.00559252 -0.000313111 -0.000157302 7.48216e-11 3.22326e-10 -1.57806e-10 5e-05 1.46608e-10 
115 1 0.095877 0.0173533 0.00719924 0.00565354 -1.62755e-05 0.000163487 -5.48218e-11 8.2891e-11 -1.22496e-10 5e-05 1.46608e-10 
116 1 0.0957214 0.0166736 0.00756702 0.00558087 -0.000121043 -7.67028e-05 1.915e-11 1.72488e-10 2.09723e-11 5e-05 1.46608e-10 
117 1 0.0955702 0.01614 0.00799494 0.00610662 -6.80487e-05 0.000263973 -4.49575e-11 4.10617e-11 -3.66934e-11 5e-05 1.46608e-10 
118 1 0.0893821 0.0158006 0.0082946 0.0060029 -5.79872e-05 0.000678905 1.82256e-10 -7.85396e-11 -8.03479e-11 5e-05 1.46608e-10 
119 1 0.0958755 0.016935 0.00737105 0.00544435 -0.000136603 -0.000145124 -2.83138e-10 3.5599e-10 2.71875e-10 5e-05 1.46608e-10 
120 1 0.0954313 0.0159635 0.0081352 0.00610559 -8.63334e-05 0.000278599 2.11711e-11 1.87174e-11 -7.46262e-12 5e-05 1.46608e-10 
121 1 0.095388 0.015812 0.00825826 0.00608065 -9.69357e-05 0.00028657 -1.14047e-11 1.05618e-11 -8.03054e-12 5e-05 1.46608e-10 
122 1 0.0961851 0.0183498 0.00695024 0.0055821 -3.59663e-05 2.61532e-05 6.79111e-11 -2.20276e-11 7.23382e-12 5e-05 1.46608e-10 
123 1 0.0895607 0.0160486 0.00795121 0.00618582 -0.000356426 0.000449783 -4.04663e-10 4.24102e-11 -2.44902e-10 5e-05 1.46608e-10 
124 1 0.0959916 0.0179274 0.00705561 0.00550086 -4.36714e-05 2.73416e-05 1.78081e-11 1.71571e-10 -1.00638e-11 5e-05 1.46608e-10 
125 1 0.0955485 0.0160642 0.00805647 0.00611823 -7.22096e-05 0.000267654 1.71791e-11 -9.93213e-12 1.06428e-11 5e-05 1.46608e-10 
126 1 0.0957815 0.0173209 0.00720373 0.00561164 2.94182e-05 0.000143043 -8.59268e-11 -1.89627e-10 2.34218e-10 5e-05 1.46608e-10 
127 1 0.0895089 0.0161906 0.00786849 0.0061657 -0.000380561 0.000397532 -4.79218e-11 1.3655e-10 2.70521e-10 5e-05 1.46608e-10 
128 1 0.0958808 0.0177973 0.00708793 0.00551708 -2.38654e-05 2.12357e-05 -3.93977e-11 5.72689e-12 1.02105e-11 5e-05 1.46608e-10 
129 1 0.0959971 0.0181104 0.00709051 0.00555329 -2.95058e-05 1.77133e-05 1.1023e-11 -3.46499e-11 7.34895e-11 5e-05 1.46608e-10 
130 1 0.0898192 0.0170921 0.00740132 0.00558099 -0.00047801 -7.58662e-05 1.42397e-10 3.61231e-12 -8.59338e-12 5e-05 1.46608e-10 
131 1 0.0896699 0.0164759 0.00771114 0.00611871 -0.000550481 -7.24686e-05 -1.45223e-10 -2.0537e-10 1.06181e-10 5e-05 1.46608e-10 
132 1 0.0959754 0.0178288 0.0070803 0.00552169 -1.10478e-05 1.86626e-05 -3.9272e-11 3.3122e-11 -4.96986e-12 5e-05 1.46608e-10 
133 1 0.0957311 0.0163925 0.00779291 0.00630888 2.8396e-05 0.00019238 -9.57235e-11 1.40604e-10 -1.25212e-10 5e-05 1.46608e-10 
134 1 0.0958949 0.0170155 0.00731289 0.00557413 -0.00013233 -5.13558e-05 -1.53014e-10 1.36737e-10 -1.29436e-10 5e-05 1.46608e-10 
135 1 0.0955268 0.0159884 0.008118 0.00612122 -7.25547e-05 0.000267796 5.80607e-11 -2.17542e-11 1.89225e-11 5e-05 1.46608e-10 
136 1 0.0895023 0.0158719 0.00817974 0.00619729 -0.000427552 0.000304574 3.36913e-11 1.60409e-10 -6.89094e-11 5e-05 1.46608e-10 
137 1 0.0960112 0.0184372 0.00695179 0.00560298 -2.06891e-05 2.34193e-05 1.49039e-11 -5.05166e-11 -2.35545e-11 5e-05 1.46608e-10 
138 1 0.0956787 0.0165189 0.00768727 0.00619329 -5.85898e-05 0.000254755 -3.2497e-11 1.15456e-11 7.7961e-12 5e-05 1.46608e-10 
140 1 0.0960883 0.0183741 0.00694385 0.00559255 -2.2304e-05 2.25133e-05 6.91337e-11 -5.16177e-12 -2.83183e-11 5e-05 1.46608e-10 
141 1 0.0895383 0.0159705 0.00800954 0.00617759 -0.000397222 0.000369945 1.14066e-10 6.87709e-11 -1.45582e-10 5e-05 1.46608e-10 
142 1 0.0899445 0.0172199 0.00733183 0.00543196 -0.000489139 -6.19551e-05 -1.61546e-10 -2.05522e-11 2.05243e-11 5e-05 1.46608e-10 
143 1 0.089467 0.0160358 0.00798399 0.00617948 -0.000396638 0.000419015 1.58612e-10 1.28361e-10 -4.01828e-11 5e-05 1.46608e-10 
144 1 0.0899051 0.0170444 0.00741987 0.00555373 -0.000519453 -5.37848e-05 1.01827e-11 -9.92148e-11 5.16612e-11 5e-05 1.46608e-10 
146 1 0.0897457 0.0164157 0.00773641 0.00613404 -0.000525572 -8.31625e-05 5.7813e-11 4.87157e-12 -1.13625e-11 5e-05 1.46608e-10 
147 1 0.0894821 0.015823 0.00826459 0.00622924 -0.000442925 0.000290295 -2.52737e-10 -4.47858e-10 -2.52117e-10 5e-05 1.46608e-10 
148 1 0.0897786 0.0173231 0.00729082 0.00545001 -0.000469929 -7.21343e-05 -1.93458e-11 1.35912e-10 -1.18751e-10 5e-05 1.46608e-10 
149 1 0.0961011 0.0182779 0.00696802 0.00557316 -2.39851e-05 2.28717e-05 1.50011e-11 -9.02547e-12 1.70679e-11 5e-05 1.46608e-10 
150 1 0.0897888 0.0165908 0.00764832 0.00602306 -0.00014984 -0.000261002 3.33093e-11 -6.81546e-12 -1.20273e-12 5e-05 1.46608e-10 
151 1 0.0901772 0.0174041 0.00722877 0.00555474 -0.000568676 -2.99567e-05 1.94076e-10 3.30243e-10 -1.51911e-10 5e-05 1.46608e-10 
153 1 0.0896046 0.0162163 0.00784933 0.00614854 -0.000342844 0.000446031 6.99718e-11 -4.05682e-11 4.3361e-11 5e-05 1.46608e-10 
154 1 0.0898788 0.0173554 0.00726916 0.00548514 -0.000474832 -7.2891e-05 -2.20302e-10 1.21652e-10 -2.02233e-12 5e-05 1.46608e-10 
155 1 0.0899441 0.0176311 0.0071306 0.00557053 -0.000501613 -6.1695e-05 -4.79098e-11 3.27924e-11 -2.49669e-11 5e-05 1.46608e-10 
156 1 0.0898587 0.0172676 0.00731324 0.00543012 -0.00049976 -5.75107e-05 -5.79684e-11 4.65137e-11 -3.23058e-11 5e-05 1.46608e-10 
157 1 0.0219312 0.0187687 0.00551176 -3.82947e-14 8.16561e-14 2.95896e-13 6.05005e-22 -4.22172e-22 2.04727e-22 5e-05 1.46608e-10 
158 1 0.0899572 0.0175173 0.00726596 0.00559624 -0.000480547 -0.000109271 3.03179e-10 2.33327e-10 -2.93185e-10 5e-05 1.46608e-10 
159 1 0.0960315 0.0176698 0.00712037 0.0055419 5.67889e-06 1.48857e-05 -1.41656e-10 2.63522e-11 -2.38326e-11 5e-05 1.46608e-10 
160 1 0.0898362 0.0175864 0.00715899 0.00557728 -0.000454641 -8.12469e-05 1.0479e-10 2.63295e-10 -1.25631e-10 5e-05 1.46608e-10 
162 1 0.0897985 0.0174106 0.0072466 0.00548434 -0.000470299 -7.50705e-05 -4.33384e-11 2.58639e-10 -1.10555e-10 5e-05 1.46608e-10 
164 1 0.0900763 0.0179829 0.00695603 0.00547125 -0.000491038 0.000260034 -2.61584e-10 -1.26216e-11 -1.4132e-10 5e-05 1.46608e-10 
165 1 0.0902571 0.0177543 0.00705297 0.00560401 -0.000556113 -3.53093e-05 -4.06155e-10 6.29145e-10 -3.13919e-10 5e-05 1.46608e-10 
166 1 0.0956876 0.0162409 0.00791599 0.00613963 -5.45923e-05 0.000253682 -1.88425e-10 1.3631e-10 -1.13184e-10 5e-05 1.46608e-10 
167 1 0.0897681 0.0165033 0.00769227 0.0062534 -0.000202938 -0.000247255 1.20169e-10 1.29002e-11 -1.22306e-11 5e-05 1.46608e-10 
168 1 0.0900846 0.0174396 0.00721652 0.00558879 -0.000488502 -6.77105e-05 1.4821e-11 1.14753e-10 -5.62914e-11 5e-05 1.46608e-10 
169 1 0.0902651 0.0180459 0.00697544 0.00554191 -0.000556662 0.000246248 -4.43264e-10 -1.20069e-10 -3.66391e-11 5e-05 1.46608e-10 
170 1 0.0901258 0.0175527 0.00715888 0.00543135 -0.000665761 2.38524e-05 -3.18528e-10 1.43839e-10 -4.28228e-11 5e-05 1.46608e-10 
171 1 0.0957094 0.0163167 0.00785446 0.00615892 -5.46626e-05 0.000255641 -1.31782e-10 1.26324e-10 -1.04442e-10 5e-05 1.46608e-10 
172 1 0.0902401 0.0176661 0.00709705 0.0055678 -0.00057502 -3.01271e-05 -4.0773e-10 5.91811e-10 -2.56869e-10 5e-05 1.46608e-10 
173 1 0.096159 0.0178163 0.00708401 0.00552844 -3.58491e-05 2.5722e-05 1.03108e-11 4.79803e-11 -1.42767e-11 5e-05 1.46608e-10 
174 1 0.0900368 0.0175955 0.00714288 0.00556325 -0.000400124 -0.000112373 9.38926e-11 2.24363e-10 -1.31137e-10 5e-05 1.46608e-10 
175 1 0.0838335 0.0175897 0.0072329 0.00552759 0.000500038 -0.000522054 -2.61787e-11 -4.14064e-11 1.73107e-11 5e-05 1.46608e-10 
176 1 0.0898386 0.0171798 0.00735731 0.00552982 -0.000407627 -0.000108019 3.54847e-11 1.43613e-10 -6.76899e-11 5e-05 1.46608e-10 
177 1 0.0898757 0.017763 0.00707401 0.00555549 -0.000454637 -9.18877e-05 1.58221e-11 4.2625e-11 -1.05085e-10 5e-05 1.46608e-10 
178 1 0.0903232 0.0179649 0.00696789 0.00559421 -0.000507722 0.00025026 -5.251e-11 1.73409e-10 -5.42803e-11 5e-05 1.46608e-10 
179 1 0.0902285 0.0179327 0.00696937 0.00561225 -0.000522885 -1.61155e-05 9.40169e-11 1.08314e-10 -3.6419e-10 5e-05 1.46608e-10 
181 1 0.0898183 0.0174926 0.00730241 0.00548527 -0.000548523 -7.54909e-05 1.20251e-10 2.90597e-10 -2.34446e-11 5e-05 1.46608e-10 
182 1 0.095657 0.0164432 0.0077488 0.00618337 -7.4474e-05 0.000267169 -2.63508e-10 -2.49382e-11 -4.37516e-11 5e-05 1.46608e-10 
183 1 0.0900177 0.0175078 0.00718687 0.00564059 -0.000430405 -9.66328e-05 3.65928e-10 4.39886e-10 -2.64542e-10 5e-05 1.46608e-10 
184 1 0.0960104 0.0178153 0.00717301 0.00554453 1.57142e-05 1.31774e-05 1.48275e-10 2.00054e-10 -2.73645e-11 5e-05 1.46608e-10 
185 1 0.0897587 0.0172354 0.00733453 0.00547308 -0.000475692 -7.0346e-05 2.32405e-11 6.80922e-11 -5.24759e-11 5e-05 1.46608e-10 
186 1 0.0898248 0.0173972 0.00734217 0.00549914 -0.000494924 -7.68008e-05 2.73473e-11 5.95985e-11 -1.90174e-10 5e-05 1.46608e-10 
187 1 0.0959983 0.0170533 0.0072815 0.00552205 -0.000107402 -2.1313e-06 1.25117e-09 -1.01489e-09 -7.54982e-10 5e-05 1.46608e-10 
188 1 0.0960461 0.0181286 0.0070053 0.00555759 -2.7796e-05 2.19592e-05 -3.68424e-11 -6.88171e-11 3.39858e-11 5e-05 1.46608e-10 
189 1 0.096039 0.0172413 0.00722791 0.00563436 -7.21699e-05 3.68873e-05 -8.42052e-11 -8.31982e-12 -1.49413e-11 5e-05 1.46608e-10 
190 1 0.0839507 0.0177121 0.00717446 0.00558111 0.000489986 -0.000520829 -6.03149e-12 1.52723e-12 -8.24707e-13 5e-05 1.46608e-10 
191 1 0.0960297 0.0185242 0.00690601 0.00565301 -2.16402e-05 2.40506e-05 2.44474e-11 2.29642e-12 5.12933e-12 5e-05 1.46608e-10 
192 1 0.0900326 0.0171755 0.00734866 0.00546799 -0.000488303 -6.43558e-05 -2.16706e-10 7.60338e-11 -2.6812e-11 5e-05 1.46608e-10 
193 1 0.0957957 0.0166204 0.00760786 0.00561313 7.96955e-05 0.000127436 -1.20736e-10 2.22014e-10 -3.2321e-10 5e-05 1.46608e-10 
194 1 0.0898353 0.0167708 0.00755764 0.00591239 -9.96041e-05 -0.000279425 -4.73249e-11 -1.18958e-10 6.33152e-11 5e-05 1.46608e-10 
195 1 0.0902521 0.0178441 0.0070093 0.00555972 -0.000552592 -4.05221e-05 -4.39362e-10 4.4109e-10 -1.53512e-10 5e-05 1.46608e-10 
196 1 0.0892796 0.0155271 0.00870037 0.00579281 -5.85611e-05 0.00061879 2.79663e-11 -8.7988e-11 7.06586e-11 5e-05 1.46608e-10 
197 1 0.0838905 0.0178598 0.00711529 0.00560825 0.000485884 -0.000520616 1.21364e-12 -2.96278e-12 -1.41157e-12 5e-05 1.46608e-10 
198 1 0.0896783 0.0168853 0.00751033 0.00557636 -0.000480208 -7.62844e-05 3.75734e-11 -7.27329e-11 1.79667e-11 5e-05 1.46608e-10 
199 1 0.0898171 0.0174984 0.00720259 0.00553652 -0.000468354 -7.50094e-05 4.32413e-11 2.64031e-10 -1.03355e-10 5e-05 1.46608e-10 
200 1 0.0897765 0.0169156 0.00749004 0.00559831 -0.000507515 -6.33224e-05 -9.48128e-11 -1.19403e-10 5.28448e-11 5e-05 1.46608e-10 
201 1 0.0902141 0.0181315 0.00698403 0.00561488 -0.000504358 0.000258309 -3.5193e-10 -8.89717e-11 1.12972e-10 5e-05 1.46608e-10 
202 1 0.0900526 0.0172631 0.0073047 0.00547105 -0.000486614 -6.58096e-05 -5.67764e-11 9.83551e-11 -4.17503e-11 5e-05 1.46608e-10 
203 1 0.0962746 0.0181912 0.00699032 0.00556785 -4.42058e-05 2.82497e-05 2.77361e-11 1.11596e-10 -2.50905e-11 5e-05 1.46608e-10 
204 1 0.0897564 0.0168276 0.00753422 0.00567811 -0.000365547 -0.000136942 5.86252e-11 -1.65008e-11 -7.13908e-12 5e-05 1.46608e-10 
205 1 0.0900702 0.0178714 0.00705566 0.0055124 -0.000389658 -0.000117692 5.62457e-10 -9.96036e-11 -3.31563e-10 5e-05 1.46608e-10 
206 1 0.0900561 0.0176832 0.00709889 0.00558773 -0.000397129 -0.000113729 -3.41773e-10 6.44992e-11 4.46418e-11 5e-05 1.46608e-10 
207 1 0.0895832 0.0161319 0.0079006 0.00618517 -0.000338935 0.000445674 4.18082e-11 -1.00236e-10 1.98651e-11 5e-05 1.46608e-10 
208 1 0.089899 0.0174452 0.00722411 0.00550897 -0.000502604 -5.94451e-05 8.1338e-11 1.16598e-10 -3.67515e-11 5e-05 1.46608e-10 
209 1 0.089811 0.0166796 0.00760365 0.00558747 -0.000446135 -9.14379e-05 5.3099e-12 -3.9712e-11 2.02922e-11 5e-05 1.46608e-10 
210 1 0.0958801 0.0176692 0.00720432 0.00556658 -4.96977e-07 2.9384e-05 -1.90092e-11 1.66334e-10 6.38071e-11 5e-05 1.46608e-10 
211 1 0.0961226 0.0180661 0.00702121 0.00555439 -3.12819e-05 2.48472e-05 -4.68292e-11 2.44226e-11 1.61582e-12 5e-05 1.46608e-10 
212 1 0.0901451 0.0176404 0.00711489 0.00557317 -0.00065341 1.48986e-05 -1.93421e-10 1.4226e-10 -2.7917e-11 5e-05 1.46608e-10 
213 1 0.0959817 0.0169733 0.00733921 0.00564666 -0.000109814 -0.000150764 -2.13355e-10 -9.72296e-11 3.74329e-10 5e-05 1.46608e-10 
214 1 0.0960957 0.0180332 0.00711169 0.00553558 -3.04685e-05 2.13287e-05 -8.81774e-12 3.36552e-11 2.93312e-11 5e-05 1.46608e-10 
215 1 0.0839307 0.017621 0.00721422 0.00555954 0.000500481 -0.000523983 2.92681e-12 1.28251e-11 -6.23888e-12 5e-05 1.46608e-10 
216 1 0.0898552 0.0176739 0.00711459 0.00558174 -0.000460069 -8.66683e-05 -8.68497e-12 1.69853e-10 -1.23863e-10 5e-05 1.46608e-10 
217 1 0.0957529 0.0164684 0.00773131 0.0062581 1.64393e-05 0.000201366 -4.42458e-11 1.45439e-10 -9.74956e-11 5e-05 1.46608e-10 
218 1 0.0899871 0.0178193 0.00703614 0.00551518 -0.000394818 -0.000111685 2.58736e-10 8.52741e-11 -2.95226e-11 5e-05 1.46608e-10 
219 1 0.0959722 0.0182567 0.00706919 0.00550377 1.85299e-05 -2.65437e-06 1.60107e-11 7.29938e-11 2.09665e-10 5e-05 1.46608e-10 
220 1 0.0898867 0.0176576 0.00720807 0.0055381 -0.000480546 -8.27285e-05 5.0615e-11 2.61135e-10 -1.14262e-10 5e-05 1.46608e-10 
221 1 0.0838298 0.0171687 0.00741149 0.00584058 0.000438902 -0.000513687 6.16102e-12 6.21324e-12 -3.36984e-12 5e-05 1.46608e-10 
222 1 0.0957744 0.0165444 0.00766965 0.00581749 0.000165305 6.49366e-05 -8.35683e-11 8.59089e-11 -9.75528e-11 5e-05 1.46608e-10 
223 1 0.0899645 0.0173074 0.00728787 0.005482 -0.000486247 -6.67253e-05 -1.59767e-10 1.01252e-10 -7.5554e-12 5e-05 1.46608e-10 
224 1 0.0897394 0.0171484 0.00737973 0.00557106 -0.000494813 -6.75254e-05 1.26179e-10 -1.25456e-11 -6.38022e-12 5e-05 1.46608e-10 
225 1 0.0960508 0.0177652 0.0070965 0.00552781 -5.21283e-06 1.81528e-05 -6.02681e-12 5.32152e-11 -1.22052e-11 5e-05 1.46608e-10 
226 1 0.0902 0.017491 0.00718496 0.00557983 -0.000557696 -3.68809e-05 -6.04379e-11 3.9939e-10 -1.9355e-10 5e-05 1.46608e-10 
227 1 0.0838906 0.017439 0.00729357 0.00566631 0.000481122 -0.000521785 -7.00649e-12 -1.38375e-11 6.36808e-12 5e-05 1.46608e-10 
228 1 0.0838525 0.0176798 0.0071937 0.005556 0.000496032 -0.000521948 9.97108e-13 -2.74577e-11 1.20733e-11 5e-05 1.46608e-10 
229 1 0.0898674 0.0175691 0.00725242 0.00557134 -0.000498366 -8.67638e-05 1.93619e-10 3.38573e-10 -2.32104e-10 5e-05 1.46608e-10 
230 1 0.0901388 0.0181971 0.00698852 0.00559709 -0.000510823 0.000258375 -1.39027e-10 2.64038e-10 3.45721e-11 5e-05 1.46608e-10 
231 1 0.0838141 0.0174998 0.00727209 0.00566027 0.000474395 -0.000518575 -1.11859e-11 -1.68118e-11 7.42352e-12 5e-05 1.46608e-10 
232 1 0.0896999 0.0162436 0.0078361 0.0061229 -0.000275838 0.00040526 5.92126e-11 -6.38518e-11 5.44576e-11 5e-05 1.46608e-10 
233 1 0.0898623 0.0168677 0.00750875 0.0055944 -0.000517115 -5.6195e-05 -1.03226e-10 -1.85237e-10 1.0482e-10 5e-05 1.46608e-10 
234 1 0.0960071 0.018243 0.00697649 0.00556095 -2.86708e-05 2.41049e-05 -1.73847e-10 -7.93638e-11 1.35728e-10 5e-05 1.46608e-10 
235 1 0.0901018 0.018457 0.0070214 0.00579674 -0.000486426 0.000269727 -6.68531e-11 5.63588e-11 1.01162e-11 5e-05 1.46608e-10 
236 1 0.0901579 0.0182942 0.00700271 0.00560073 -0.000505388 0.000256284 -3.54432e-10 2.50821e-10 1.65466e-11 5e-05 1.46608e-10 
237 1 0.0902524 0.0183257 0.00701242 0.00576689 -0.000565321 0.000257875 -4.32841e-10 -1.32073e-10 -4.07171e-11 5e-05 1.46608e-10 
239 1 0.0836311 0.0166922 0.00762455 0.00625859 0.00034531 -0.000495472 8.68746e-11 -5.89913e-11 2.31317e-11 5e-05 1.46608e-10 
240 1 0.0836929 0.0169612 0.00750709 0.00579527 0.000445863 -0.000514253 1.14243e-11 3.05911e-12 -1.17032e-11 5e-05 1.46608e-10 
241 1 0.0836099 0.0166026 0.00766368 0.00629295 0.000339546 -0.000497976 -4.21632e-11 3.66491e-11 -1.09594e-11 5e-05 1.46608e-10 
242 1 0.0899933 0.0170002 0.00743661 0.00555998 -0.00051316 -5.76846e-05 -5.06051e-11 -6.35824e-11 3.91889e-11 5e-05 1.46608e-10 
243 1 0.0897341 0.0167386 0.00757901 0.00557669 -0.000456685 -8.60679e-05 -2.34652e-11 -5.68284e-11 3.43238e-12 5e-05 1.46608e-10 
244 1 0.0836521 0.0167818 0.00758541 0.00576575 0.000454839 -0.000516389 -9.41697e-12 -1.52961e-12 2.52822e-12 5e-05 1.46608e-10 