ITEM: TIMESTEP
30800000
ITEM: NUMBER OF ATOMS
271
ITEM: BOX BOUNDS ff ff ff
-0.02 0.43
-0.02 0.06
-0.02 0.07
ITEM: ATOMS id type x y z vx vy vz fx fy fz radius mass 
1 1 0.192061 0.0153572 0.00869461 0.00574757 5.41883e-05 3.5266e-05 1.65957e-10 1.46494e-10 7.95299e-11 5e-05 1.46608e-10 
2 1 0.192952 0.0178282 0.00702187 0.00572297 -0.000169653 -6.01022e-05 -4.48321e-11 2.67741e-11 -8.52845e-12 5e-05 1.46608e-10 
3 1 0.187022 0.0177265 0.0070144 0.00555059 -0.000131045 6.46433e-05 3.51448e-11 -7.40527e-11 1.22543e-10 5e-05 1.46608e-10 
4 1 0.192987 0.0175779 0.00709988 0.00566053 -0.000181197 -5.51786e-05 -1.25774e-10 1.61649e-11 1.69357e-12 5e-05 1.46608e-10 
5 1 0.192042 0.0153121 0.00878165 0.00557839 -6.81972e-05 -5.3849e-05 -5.78514e-11 1.32283e-10 2.59006e-11 5e-05 1.46608e-10 
6 1 0.198492 0.0170015 0.00741013 0.00611335 -0.00036137 5.32508e-05 -1.33804e-12 8.03125e-12 -4.60131e-12 5e-05 1.46608e-10 
7 1 0.192142 0.0156426 0.00842921 0.00547801 0.000149109 3.16553e-05 1.33913e-10 -1.7637e-11 3.78518e-11 5e-05 1.46608e-10 
8 1 0.192023 0.0152768 0.00887326 0.00559364 -0.000149228 -6.9087e-05 -7.92644e-11 1.14004e-11 8.94461e-13 5e-05 1.46608e-10 
9 1 0.19862 0.0175132 0.00712402 0.00560162 -0.000264385 1.29746e-05 -2.36914e-11 4.69075e-11 -2.56169e-11 5e-05 1.46608e-10 
10 1 0.192608 0.0174586 0.00714489 0.00561842 -3.46788e-05 -0.000102044 -1.82594e-10 -2.59482e-11 1.16544e-10 5e-05 1.46608e-10 
11 1 0.192742 0.0176752 0.00707413 0.00572708 -7.15111e-05 -9.17528e-05 -5.16532e-11 1.87166e-11 -9.74805e-12 5e-05 1.46608e-10 
12 1 0.186152 0.0156983 0.00837553 0.00551556 -0.000175967 3.49439e-05 -1.06757e-10 -2.06975e-10 8.02539e-11 5e-05 1.46608e-10 
13 1 0.191966 0.0151768 0.00915025 0.00567474 -0.00015983 -3.35792e-05 -6.29623e-11 -4.26789e-11 1.22476e-10 5e-05 1.46608e-10 
14 1 0.186819 0.0184722 0.00691808 0.00565178 -0.000125565 0.00011413 -5.21979e-11 -2.81881e-11 -1.27001e-11 5e-05 1.46608e-10 
15 1 0.192967 0.0174845 0.00712964 0.00562912 -0.000144567 -6.57813e-05 3.37049e-10 1.94972e-10 -5.99694e-11 5e-05 1.46608e-10 
16 1 0.186915 0.0185046 0.00691623 0.00564549 -0.000184043 -0.000348605 -1.50327e-10 -4.98489e-11 -7.11191e-11 5e-05 1.46608e-10 
17 1 0.193007 0.0176712 0.00707013 0.00572762 -0.000178816 -5.7255e-05 -8.68064e-11 -1.35137e-11 4.25808e-12 5e-05 1.46608e-10 
19 1 0.192007 0.0152432 0.00896608 0.00567142 -0.00015325 -4.63661e-05 1.19663e-10 -4.71581e-11 5.99682e-11 5e-05 1.46608e-10 
21 1 0.192566 0.0172724 0.00720486 0.00626055 -0.000226344 -0.00017839 1.36936e-11 -1.50496e-10 5.86068e-11 5e-05 1.46608e-10 
22 1 0.192778 0.0174248 0.00715214 0.00577476 5.30201e-05 -0.000133235 1.43439e-10 2.68395e-10 -9.10919e-11 5e-05 1.46608e-10 
23 1 0.186381 0.0162013 0.00789054 0.00558548 3.07005e-05 0.000223457 -5.08143e-11 -1.31937e-10 7.33194e-11 5e-05 1.46608e-10 
24 1 0.198696 0.0178734 0.0069778 0.00577055 -0.00025872 0.000114323 6.17004e-11 -1.03859e-10 2.06066e-11 5e-05 1.46608e-10 
25 1 0.192197 0.015866 0.00823663 0.00557765 0.000117575 4.5225e-05 -2.32836e-11 8.39759e-11 -3.6899e-11 5e-05 1.46608e-10 
26 1 0.198578 0.0173424 0.00721948 0.0061833 -0.000377591 6.07645e-05 7.23938e-11 5.7048e-12 1.0993e-12 5e-05 1.46608e-10 
27 1 0.187135 0.0178518 0.00698232 0.00555974 -0.000136721 0.000114415 6.04605e-11 -8.78667e-11 2.78158e-11 5e-05 1.46608e-10 
28 1 0.192912 0.0176414 0.00708138 0.00570255 -0.000142041 -6.80417e-05 -1.4189e-11 1.41809e-11 -7.49905e-12 5e-05 1.46608e-10 
29 1 0.192158 0.0157159 0.00836301 0.00554429 0.00013212 3.95586e-05 2.20203e-10 -1.01962e-11 1.60146e-11 5e-05 1.46608e-10 
30 1 0.192667 0.0177387 0.00705564 0.00575131 -4.96201e-05 -9.72731e-05 6.63997e-11 7.32241e-11 -1.06585e-11 5e-05 1.46608e-10 
31 1 0.192217 0.01594 0.00817271 0.00557284 0.000112649 4.36797e-05 -2.60141e-11 6.31243e-11 -7.73056e-11 5e-05 1.46608e-10 
32 1 0.192651 0.0168842 0.00737566 0.00590162 -6.40154e-05 0.000212013 -7.74011e-11 5.12129e-11 8.60949e-11 5e-05 1.46608e-10 
33 1 0.198514 0.0170867 0.00736247 0.00612942 -0.000365019 5.48959e-05 1.8999e-12 3.31053e-12 -2.29955e-12 5e-05 1.46608e-10 
34 1 0.192119 0.0155667 0.00848976 0.00547561 0.000145455 1.68271e-05 -7.98298e-11 2.36323e-11 2.31076e-12 5e-05 1.46608e-10 
35 1 0.192811 0.0171724 0.00723082 0.00623044 -7.87989e-05 -9.82408e-05 -1.66457e-11 3.33189e-10 -1.39674e-10 5e-05 1.46608e-10 
36 1 0.198676 0.0177766 0.0069926 0.00576044 -0.000257512 0.000114983 1.811e-10 -6.243e-11 1.88736e-11 5e-05 1.46608e-10 
37 1 0.19286 0.0182359 0.00689577 0.00577039 -3.9003e-05 -1.24138e-05 1.04225e-10 -2.00841e-10 -1.90687e-10 5e-05 1.46608e-10 
38 1 0.192919 0.0185275 0.00687051 0.00573166 -5.47157e-05 7.20132e-05 1.43341e-10 1.65214e-11 -4.20207e-12 5e-05 1.46608e-10 
39 1 0.198717 0.0179702 0.00696299 0.00579684 -0.000255925 0.000114798 -7.84675e-11 1.88068e-11 -5.49514e-12 5e-05 1.46608e-10 
41 1 0.193027 0.0177646 0.00704038 0.00569318 -0.000197429 -5.0688e-05 -1.38309e-10 -2.17271e-11 9.93979e-12 5e-05 1.46608e-10 
42 1 0.321436 0.0173475 0.00552525 4.56885e-16 2.25536e-15 8.4636e-14 2.04792e-23 -6.26848e-25 0 5e-05 1.46608e-10 
44 1 0.192932 0.0177348 0.00705163 0.00575221 -0.000152743 -6.59733e-05 -1.44236e-10 -3.40044e-11 1.7966e-11 5e-05 1.46608e-10 
45 1 0.198535 0.017172 0.0073148 0.00614561 -0.000369184 5.67162e-05 8.64469e-12 -3.1025e-12 -1.56402e-12 5e-05 1.46608e-10 
47 1 0.192079 0.0154173 0.00861659 0.00570618 0.000110535 5.85476e-05 -8.68211e-12 6.75472e-11 -1.56096e-12 5e-05 1.46608e-10 
48 1 0.192899 0.0184295 0.00687193 0.00572275 -2.90032e-05 7.09902e-05 1.06063e-10 1.44637e-11 -1.78727e-11 5e-05 1.46608e-10 
50 1 0.192257 0.0160943 0.00805194 0.00558294 8.22487e-05 2.14391e-05 -3.21524e-11 3.71724e-11 4.22663e-11 5e-05 1.46608e-10 
51 1 0.192236 0.0160151 0.00810925 0.00557938 9.60157e-05 2.99143e-05 -1.33455e-11 9.16388e-12 -7.01701e-11 5e-05 1.46608e-10 
52 1 0.186078 0.015508 0.00871915 0.0055202 -2.16992e-05 0.000142735 1.37848e-10 4.68921e-11 3.08244e-11 5e-05 1.46608e-10 
53 1 0.198658 0.0176861 0.00703114 0.00562397 -0.000251602 5.8457e-05 5.4463e-11 -6.85101e-11 2.34773e-11 5e-05 1.46608e-10 
54 1 0.192746 0.0181123 0.00693663 0.00552726 -3.40261e-06 -0.000108382 -4.95967e-10 9.38229e-11 -2.01283e-11 5e-05 1.46608e-10 
55 1 0.186019 0.0153603 0.00897349 0.00565786 -1.14206e-05 0.000195989 6.12772e-11 1.56693e-11 -3.10156e-12 5e-05 1.46608e-10 
56 1 0.192879 0.0183316 0.00687335 0.00571194 -1.38163e-05 6.9697e-05 5.23272e-11 -9.65482e-11 -6.12906e-11 5e-05 1.46608e-10 
57 1 0.198557 0.0172572 0.00726714 0.00616182 -0.000373209 5.8467e-05 -2.64339e-11 8.99803e-12 -2.60757e-13 5e-05 1.46608e-10 
59 1 0.192758 0.017331 0.00718203 0.00601543 0.000230135 -0.000192802 -1.49046e-10 -4.24767e-10 1.70011e-10 5e-05 1.46608e-10 
61 1 0.192536 0.0167851 0.00745752 0.00614734 0.00027153 -6.86198e-05 -1.52504e-10 1.65408e-10 -2.21987e-11 5e-05 1.46608e-10 
62 1 0.193144 0.0183297 0.00687665 0.00580417 -1.20442e-05 7.26823e-05 2.40823e-10 1.0531e-10 -1.52524e-11 5e-05 1.46608e-10 
63 1 0.192947 0.0173909 0.00715944 0.00599457 0.000277634 -0.00020566 2.34752e-10 -3.47916e-11 9.01823e-12 5e-05 1.46608e-10 
64 1 0.198737 0.0180669 0.00694818 0.00580536 -0.000263154 0.000116205 -3.851e-11 4.61083e-11 -1.22149e-11 5e-05 1.46608e-10 
65 1 0.186325 0.0163393 0.00779906 0.00555439 -3.66268e-07 0.000238607 3.44402e-11 5.32037e-11 -2.34563e-11 5e-05 1.46608e-10 
66 1 0.185999 0.0153112 0.00905822 0.00562801 -1.18603e-05 0.00019515 9.45845e-11 5.09282e-12 -1.38698e-11 5e-05 1.46608e-10 
67 1 0.192897 0.0179853 0.00697358 0.00583345 -8.50742e-05 -8.8412e-05 -7.55939e-11 -8.57608e-11 1.76887e-11 5e-05 1.46608e-10 
68 1 0.192694 0.0170512 0.00727088 0.0063294 -7.25555e-05 0.000145744 -1.03921e-10 3.11598e-10 6.0535e-10 5e-05 1.46608e-10 
69 1 0.192765 0.0182059 0.00690683 0.00564525 -1.94049e-05 -0.000105882 2.78188e-11 1.54091e-12 5.04866e-12 5e-05 1.46608e-10 
70 1 0.1986 0.0174276 0.00717181 0.00618535 -0.000381711 6.25774e-05 9.82743e-11 -1.24556e-10 3.01739e-11 5e-05 1.46608e-10 
71 1 0.18606 0.0154586 0.00880412 0.00556305 -1.63763e-06 0.000166991 1.0895e-10 -1.41853e-11 6.54961e-11 5e-05 1.46608e-10 
72 1 0.192802 0.0179553 0.00698488 0.0058272 -8.27139e-05 -8.92559e-05 2.79226e-11 5.44757e-11 -1.58601e-11 5e-05 1.46608e-10 
73 1 0.192824 0.0184954 0.00686989 0.00573085 8.31651e-06 7.00003e-05 1.05757e-11 1.37607e-11 1.20893e-11 5e-05 1.46608e-10 
74 1 0.192955 0.0182664 0.00688609 0.00581004 -3.96392e-05 2.85344e-05 1.52169e-10 -1.08762e-10 -4.41507e-10 5e-05 1.46608e-10 
76 1 0.187046 0.018277 0.00694063 0.00563542 -0.000152211 0.000117914 1.02151e-10 -1.40663e-11 1.42139e-11 5e-05 1.46608e-10 
77 1 0.192832 0.0172668 0.00720072 0.00621091 0.000456182 -0.000266769 -5.42736e-11 -7.79529e-11 1.45559e-11 5e-05 1.46608e-10 
78 1 0.186799 0.0183746 0.00692691 0.00563829 -0.000121642 0.000114778 1.8612e-11 5.1448e-11 -1.62173e-12 5e-05 1.46608e-10 
79 1 0.186116 0.0156064 0.00854913 0.00547899 -5.78053e-05 9.42881e-05 -9.24564e-11 -3.8222e-11 9.19558e-12 5e-05 1.46608e-10 
80 1 0.192991 0.0180154 0.00696226 0.00586359 -4.11358e-05 -0.000102565 6.00508e-11 1.61894e-11 -9.18833e-12 5e-05 1.46608e-10 
81 1 0.186934 0.0186018 0.00690088 0.00550898 -0.000108797 -9.38654e-05 7.20636e-11 -4.58127e-11 8.65252e-12 5e-05 1.46608e-10 
82 1 0.186173 0.0157407 0.00828744 0.00555259 -0.0002249 2.92439e-05 1.58145e-10 -1.25093e-10 2.26376e-10 5e-05 1.46608e-10 
83 1 0.186855 0.0182112 0.0069433 0.00562417 -0.000122857 0.000114994 7.63691e-11 9.24997e-11 1.2392e-12 5e-05 1.46608e-10 
84 1 0.19864 0.0175987 0.00707623 0.00559585 -0.000265976 1.27145e-05 -2.17278e-11 1.00019e-11 -2.28122e-11 5e-05 1.46608e-10 
85 1 0.187041 0.0178198 0.00698359 0.00555085 -0.000120992 0.000114025 1.45063e-11 -1.84819e-11 1.5231e-12 5e-05 1.46608e-10 
86 1 0.193047 0.0178583 0.00701055 0.0057342 -0.000191896 -5.33082e-05 -2.31914e-12 5.56719e-11 -1.52263e-11 5e-05 1.46608e-10 
87 1 0.192994 0.0184618 0.00687256 0.00575498 -4.16577e-05 7.17242e-05 -3.85586e-11 -2.30409e-10 1.81617e-11 5e-05 1.46608e-10 
88 1 0.192417 0.0166878 0.00754118 0.00617938 -6.22096e-05 3.92399e-05 3.14613e-11 -3.26348e-11 -3.51127e-11 5e-05 1.46608e-10 
89 1 0.192974 0.0183638 0.00687397 0.00574647 -1.87297e-05 7.71081e-05 9.88534e-11 -6.82316e-11 -4.22466e-12 5e-05 1.46608e-10 
90 1 0.192837 0.017705 0.00706288 0.00573591 -0.000112097 -7.85006e-05 -8.79885e-11 3.87674e-11 -3.56511e-12 5e-05 1.46608e-10 
91 1 0.187081 0.018016 0.00696586 0.00561159 -0.00016292 0.000118082 -3.38655e-10 -6.04462e-12 -7.69426e-12 5e-05 1.46608e-10 
92 1 0.192936 0.0181723 0.00691401 0.00582931 -7.55133e-05 -9.66228e-05 -6.38364e-12 8.39177e-11 2.42536e-11 5e-05 1.46608e-10 
93 1 0.192296 0.0162384 0.00791928 0.00556103 0.00010622 4.85519e-05 -2.95327e-11 3.05504e-11 -6.17898e-12 5e-05 1.46608e-10 
94 1 0.192723 0.0175818 0.00710388 0.00567962 -7.06571e-05 -9.1481e-05 -2.30471e-11 3.40243e-11 1.6055e-11 5e-05 1.46608e-10 
95 1 0.192683 0.017395 0.0071634 0.00560774 -5.88981e-05 -9.69445e-05 -2.14753e-10 2.99035e-11 1.22429e-10 5e-05 1.46608e-10 
96 1 0.192314 0.0163158 0.00785858 0.00555001 9.02632e-05 2.09182e-05 -1.13276e-11 3.59824e-11 -5.85375e-11 5e-05 1.46608e-10 
97 1 0.186443 0.0164508 0.00773574 0.00598029 -0.000164927 0.000114039 7.9983e-11 2.60308e-10 4.60029e-10 5e-05 1.46608e-10 
98 1 0.192817 0.0176116 0.00709263 0.00568911 -0.000101787 -8.13753e-05 -5.39457e-11 9.61582e-11 -4.58468e-11 5e-05 1.46608e-10 
99 1 0.18655 0.0168758 0.00749531 0.00610611 -0.000288736 1.53141e-05 5.37846e-11 -2.46419e-11 2.44277e-11 5e-05 1.46608e-10 
100 1 0.19305 0.0182978 0.00687602 0.00580535 -1.90501e-05 7.02927e-05 2.86835e-10 -1.93755e-10 -2.69808e-11 5e-05 1.46608e-10 
101 1 0.186138 0.0156526 0.00846332 0.00549604 -0.000112292 6.41829e-05 -3.11764e-10 -7.14599e-11 1.26534e-11 5e-05 1.46608e-10 
102 1 0.0643568 0.0187248 0.00531097 4.44824e-15 1.04338e-14 8.29589e-14 -4.33081e-22 -3.0448e-22 6.45201e-23 5e-05 1.46608e-10 
103 1 0.24257 0.0191927 0.00520306 2.51438e-22 -5.68443e-22 8.29106e-22 0 -2.58494e-26 0 5e-05 1.46608e-10 
104 1 0.186756 0.0177305 0.00701828 0.00579557 -0.00019812 7.18506e-05 2.61818e-10 -7.00958e-11 5.32641e-11 5e-05 1.46608e-10 
105 1 0.187098 0.0176682 0.00704436 0.00555033 -0.000170275 -3.51817e-05 9.63084e-11 -1.51001e-10 9.95872e-11 5e-05 1.46608e-10 
106 1 0.186984 0.0175549 0.00710969 0.00554305 -0.00018595 -2.61092e-05 -1.36045e-10 -7.69591e-11 3.98373e-11 5e-05 1.46608e-10 
107 1 0.186965 0.0174692 0.00715752 0.00558711 -0.000200914 -2.04982e-05 1.5467e-10 -1.09493e-10 5.90873e-11 5e-05 1.46608e-10 
108 1 0.192784 0.0182996 0.00687703 0.00568805 -2.48276e-05 -0.000104767 1.55346e-12 -8.86534e-12 3.75837e-12 5e-05 1.46608e-10 
109 1 0.192927 0.0172969 0.00718938 0.0062447 0.000528488 -0.00028994 -3.82206e-10 -3.70417e-10 1.21889e-10 5e-05 1.46608e-10 
110 1 0.192336 0.0163877 0.00779252 0.00586997 6.73638e-05 9.50509e-05 -7.48468e-11 5.81654e-11 -5.88059e-11 5e-05 1.46608e-10 
111 1 0.192663 0.0173016 0.00719316 0.00614688 -7.2393e-05 -9.58641e-05 -2.82193e-10 2.19017e-10 -7.56479e-11 5e-05 1.46608e-10 
112 1 0.186815 0.0180159 0.00696098 0.00557226 -0.000127939 0.000114162 8.47972e-11 4.83375e-11 -7.85045e-12 5e-05 1.46608e-10 
113 1 0.186411 0.0166795 0.00760712 0.0060832 -0.000261498 1.59466e-06 -6.2426e-11 2.45717e-11 -2.14673e-11 5e-05 1.46608e-10 
114 1 0.18678 0.018277 0.00693574 0.00561948 -0.000123087 0.000114673 8.76096e-11 1.17054e-10 -1.01687e-11 5e-05 1.46608e-10 
115 1 0.192892 0.017548 0.00711113 0.00565738 -0.000126532 -7.20829e-05 -6.32417e-11 -8.06293e-11 9.59115e-12 5e-05 1.46608e-10 
116 1 0.192727 0.0180189 0.00696639 0.00584524 -7.5206e-05 -9.1681e-05 7.34871e-12 1.05647e-10 -4.2459e-11 5e-05 1.46608e-10 
117 1 0.192864 0.0186914 0.00686705 0.0055474 -0.000153624 7.08759e-05 5.2679e-11 1.69194e-10 -2.41451e-12 5e-05 1.46608e-10 
118 1 0.186623 0.0175325 0.00713057 0.00566478 -0.000180349 -3.31747e-05 -7.5973e-11 -1.42584e-10 8.86011e-11 5e-05 1.46608e-10 
119 1 0.192852 0.0173611 0.00717069 0.00600431 0.000276926 -0.000206122 -2.02003e-10 -5.80884e-11 8.26876e-12 5e-05 1.46608e-10 
120 1 0.192177 0.0157907 0.00829945 0.00557903 0.000119764 4.3732e-05 1.36619e-10 4.28321e-11 -1.6e-11 5e-05 1.46608e-10 
121 1 0.1921 0.0154918 0.00855339 0.00558607 0.000136513 3.83538e-05 -3.0552e-10 6.39161e-11 -5.59149e-11 5e-05 1.46608e-10 
122 1 0.192619 0.0171155 0.00725252 0.00630282 -0.00018713 -7.37593e-05 -2.266e-11 9.70436e-11 1.14707e-11 5e-05 1.46608e-10 
123 1 0.186584 0.0173613 0.00722614 0.00618506 -0.000283175 1.04696e-05 -7.81064e-12 -1.213e-11 2.28287e-11 5e-05 1.46608e-10 
124 1 0.192641 0.0172085 0.00722284 0.00626742 -0.000152036 -8.59368e-05 4.85498e-11 -8.55238e-11 5.98302e-11 5e-05 1.46608e-10 
125 1 0.192939 0.0186255 0.00686909 0.00564513 -4.03152e-05 6.99175e-05 8.35224e-11 1.28949e-10 6.14792e-13 5e-05 1.46608e-10 
126 1 0.192556 0.0168621 0.00739682 0.00557026 -0.00171765 -0.0027958 -1.2801e-10 -3.2289e-10 -5.7978e-10 5e-05 1.46608e-10 
127 1 0.187116 0.0177546 0.00699616 0.0055384 -0.000153 -4.5933e-05 5.60191e-11 -1.03767e-10 3.39677e-11 5e-05 1.46608e-10 
128 1 0.192599 0.0170245 0.00728878 0.00630893 -0.000322613 -0.000407983 3.4638e-11 -2.75305e-11 -2.33144e-10 5e-05 1.46608e-10 
129 1 0.192762 0.0177686 0.00704438 0.00576591 -8.21605e-05 -8.80074e-05 -1.30676e-10 6.48018e-11 -1.20406e-11 5e-05 1.46608e-10 
131 1 0.187003 0.0176406 0.00706185 0.00555139 -0.000186526 -3.47232e-05 7.58798e-12 -1.39645e-10 -1.63298e-11 5e-05 1.46608e-10 
132 1 0.192857 0.0177984 0.00703313 0.00578097 -0.000125962 -7.48331e-05 -1.76139e-10 -5.09701e-11 1.14216e-11 5e-05 1.46608e-10 
133 1 0.192628 0.017552 0.00711514 0.00566417 -3.5062e-05 -0.000103513 -6.32307e-11 -1.07772e-10 8.25611e-11 5e-05 1.46608e-10 
134 1 0.192577 0.0169416 0.00734012 0.00605075 -0.00111103 -0.00178203 5.84303e-11 -1.16171e-10 -3.52048e-10 5e-05 1.46608e-10 
135 1 0.191985 0.0152101 0.00905791 0.00572995 -0.000162883 -2.80205e-05 1.85597e-11 -2.37628e-11 8.85213e-11 5e-05 1.46608e-10 
136 1 0.186839 0.0185697 0.00690795 0.00565167 -0.000195916 -0.000511656 -7.02915e-11 -1.15404e-10 -4.67381e-10 5e-05 1.46608e-10 
137 1 0.192275 0.0161639 0.00798255 0.00557631 9.07922e-05 3.42669e-05 1.55637e-10 4.14654e-11 6.68257e-11 5e-05 1.46608e-10 
138 1 0.192707 0.0179255 0.00699614 0.00583136 -7.0427e-05 -9.38393e-05 3.396e-12 1.8127e-10 -7.2447e-11 5e-05 1.46608e-10 
140 1 0.192797 0.0175182 0.00712238 0.0056502 -9.62961e-05 -8.3795e-05 1.37988e-10 1.30351e-10 -4.67428e-11 5e-05 1.46608e-10 
141 1 0.186835 0.0181136 0.00695214 0.00558612 -0.000137813 0.000115626 3.14729e-12 1.07177e-10 -1.39409e-11 5e-05 1.46608e-10 
142 1 0.186562 0.0172761 0.00727377 0.00618853 -0.000287084 1.31919e-05 -8.20768e-11 -1.08434e-11 1.12296e-11 5e-05 1.46608e-10 
143 1 0.186039 0.0154094 0.00888881 0.00559991 -2.06761e-06 0.000179129 9.15757e-11 -2.16133e-11 5.26101e-11 5e-05 1.46608e-10 
144 1 0.186679 0.01779 0.0069869 0.00583092 -0.000190403 -3.0643e-05 -6.35632e-12 -2.054e-11 4.09732e-11 5e-05 1.46608e-10 
147 1 0.186894 0.0184065 0.00692565 0.00565353 -0.000124618 0.000115212 -4.06645e-11 3.91244e-11 -2.91634e-12 5e-05 1.46608e-10 
148 1 0.186645 0.0169012 0.00747903 0.00607057 -0.00032209 3.49906e-05 4.86955e-13 -5.39753e-11 3.18766e-11 5e-05 1.46608e-10 
149 1 0.192441 0.0167641 0.00748099 0.00623477 -0.000150379 -5.3746e-05 -2.19119e-10 1.15619e-10 -1.68785e-11 5e-05 1.46608e-10 
150 1 0.0100679 0.0201683 0.00551526 8.38529e-15 1.24035e-15 -8.48744e-14 8.14256e-24 -1.34546e-23 8.27181e-25 5e-05 1.46608e-10 
151 1 0.186519 0.0171056 0.00736901 0.00614684 -0.000284878 1.19225e-05 -1.88027e-11 1.2194e-11 -3.8872e-12 5e-05 1.46608e-10 
153 1 0.186877 0.0187636 0.00687757 0.00556095 -0.00010861 -9.33408e-05 -1.86033e-12 -4.61411e-11 3.18857e-12 5e-05 1.46608e-10 
154 1 0.186642 0.0176184 0.00708266 0.00571822 -0.000215509 -1.3221e-05 -3.22849e-11 -8.60586e-11 -8.78964e-12 5e-05 1.46608e-10 
155 1 0.186849 0.0173551 0.00722332 0.00560716 -0.000163709 -4.17849e-05 -6.46251e-11 4.04875e-11 -2.22297e-11 5e-05 1.46608e-10 
156 1 0.186794 0.0179179 0.00696983 0.00583949 -0.000168663 0.000123149 1.51196e-10 1.09579e-10 -3.94088e-11 5e-05 1.46608e-10 
157 1 0.0219312 0.0187687 0.00551176 -3.8313e-14 8.16766e-14 2.95887e-13 -9.50431e-22 -4.95533e-22 1.38553e-23 5e-05 1.46608e-10 
158 1 0.187026 0.0181793 0.00694946 0.00561971 -0.000155769 0.000118153 -6.68781e-11 5.1762e-11 -1.41252e-11 5e-05 1.46608e-10 
159 1 0.193069 0.0183958 0.0068746 0.00578554 -1.88843e-05 7.15081e-05 4.91429e-11 -1.3082e-10 -7.98041e-12 5e-05 1.46608e-10 
160 1 0.18666 0.0177042 0.00703478 0.00577076 -0.000187437 -3.34932e-05 6.67034e-11 8.41488e-11 -3.77832e-11 5e-05 1.46608e-10 
162 1 0.186953 0.0186988 0.00688587 0.00556106 -0.000108656 -9.29577e-05 -3.78072e-11 -2.96786e-11 6.81331e-12 5e-05 1.46608e-10 
164 1 0.186507 0.0167054 0.00759056 0.00609416 -0.00028116 1.03442e-05 -2.82096e-11 6.08181e-12 -1.16168e-11 5e-05 1.46608e-10 
165 1 0.186852 0.0177604 0.00700809 0.00552471 -0.000157411 1.3086e-05 5.22872e-11 -2.97135e-12 -6.81206e-11 5e-05 1.46608e-10 
166 1 0.192804 0.0183974 0.0068713 0.0057136 4.70884e-07 7.08894e-05 4.44505e-11 -5.21006e-11 1.67443e-11 5e-05 1.46608e-10 
168 1 0.186572 0.0169611 0.00744769 0.00611498 -0.000293039 1.68978e-05 1.53467e-11 -6.94671e-12 -1.18124e-11 5e-05 1.46608e-10 
169 1 0.18701 0.0185374 0.0069091 0.00548552 -0.000126275 -8.92891e-05 3.64647e-11 -5.71949e-11 -8.17524e-12 5e-05 1.46608e-10 
170 1 0.186927 0.0176988 0.00703144 0.0055391 -0.000159079 -4.15057e-05 6.79702e-11 1.13145e-11 4.18352e-11 5e-05 1.46608e-10 
171 1 0.192687 0.0178321 0.00702589 0.00579139 -5.87073e-05 -9.68506e-05 -6.24585e-11 1.64725e-10 -2.38884e-11 5e-05 1.46608e-10 
172 1 0.186833 0.0176712 0.00704896 0.00554769 -0.000181476 -2.59998e-05 4.43877e-11 -2.28335e-12 -2.82911e-11 5e-05 1.46608e-10 
173 1 0.192972 0.0179218 0.00699206 0.00579166 -0.000129292 -7.39167e-05 -8.06358e-11 -5.83155e-11 2.15082e-11 5e-05 1.46608e-10 
174 1 0.18687 0.0174417 0.00717494 0.0056051 -0.000199489 -2.20261e-05 8.52863e-11 -3.2993e-12 -1.53093e-12 5e-05 1.46608e-10 
175 1 0.18053 0.0170945 0.00725357 0.00596864 -0.000199142 -0.000280992 -2.81267e-11 -9.42605e-12 2.1802e-10 5e-05 1.46608e-10 
177 1 0.186689 0.0170717 0.00738377 0.00617206 -0.000300948 2.06068e-05 4.73081e-11 -3.17613e-11 1.32867e-11 5e-05 1.46608e-10 
178 1 0.186615 0.0171315 0.00735244 0.00617519 -0.00029605 1.76991e-05 4.58544e-11 -1.87495e-11 3.08273e-11 5e-05 1.46608e-10 
179 1 0.1867 0.017473 0.00716167 0.00560422 -0.000177045 -3.47945e-05 5.569e-11 4.00395e-11 -1.27576e-11 5e-05 1.46608e-10 
181 1 0.186971 0.0183428 0.00693306 0.0056064 -0.000130462 0.000113187 -5.65778e-11 7.10102e-11 -2.99864e-11 5e-05 1.46608e-10 
182 1 0.192648 0.0176454 0.00708539 0.00571942 -4.19716e-05 -9.95814e-05 1.11739e-10 1.95358e-11 -2.71817e-11 5e-05 1.46608e-10 
183 1 0.186908 0.0176131 0.0070793 0.00555314 -0.000177352 -3.16567e-05 -7.61645e-12 -5.78197e-12 -2.1109e-11 5e-05 1.46608e-10 
184 1 0.192703 0.0174884 0.00713363 0.00563451 -6.92499e-05 -9.23407e-05 1.04238e-10 6.43682e-11 5.98121e-11 5e-05 1.46608e-10 
186 1 0.186497 0.0170204 0.00741663 0.00612447 -0.000284853 1.3342e-05 -4.47168e-11 -2.2337e-11 3.52114e-11 5e-05 1.46608e-10 
187 1 0.192545 0.01718 0.00723647 0.00629738 -0.000229634 -0.000161656 5.67096e-11 -1.52626e-10 -1.16171e-10 5e-05 1.46608e-10 
188 1 0.192674 0.0169635 0.00731468 0.00627139 -0.000251881 -0.000134575 1.18527e-10 -9.12276e-11 1.34129e-11 5e-05 1.46608e-10 
189 1 0.192877 0.0178918 0.00700338 0.00577946 -0.000119404 -7.70018e-05 4.91492e-11 6.5863e-11 -2.07246e-11 5e-05 1.46608e-10 
190 1 0.180815 0.0184468 0.0070342 0.00553969 -5.97735e-06 -0.000306386 -1.27693e-10 -1.63738e-10 3.91996e-11 5e-05 1.46608e-10 
191 1 0.192715 0.0171443 0.00724154 0.00627161 -0.000120519 -8.90314e-05 4.7889e-11 8.4258e-12 -2.73447e-12 5e-05 1.46608e-10 
192 1 0.186814 0.0175855 0.00709678 0.00559472 -0.000190405 -2.68347e-05 1.44924e-10 -1.44705e-11 3.69157e-12 5e-05 1.46608e-10 
193 1 0.192872 0.0174546 0.00714089 0.0056193 -0.000117633 -7.43542e-05 6.53767e-11 -1.26465e-10 1.13238e-11 5e-05 1.46608e-10 
194 1 0.161461 0.0182058 0.00533758 1.5727e-15 -1.10054e-14 8.66685e-14 -4.58943e-22 2.11965e-24 9.30578e-24 5e-05 1.46608e-10 
195 1 0.187006 0.0180817 0.00695829 0.0056052 -0.000155206 0.000117666 -1.03193e-10 1.46874e-10 -1.00768e-11 5e-05 1.46608e-10 
196 1 0.186401 0.0162841 0.00783789 0.00556275 3.00801e-05 0.000221931 1.05939e-10 -6.50817e-11 1.21273e-10 5e-05 1.46608e-10 
197 1 0.18059 0.0173823 0.00719707 0.00563263 -0.000138689 -0.000294242 -1.51136e-11 8.91208e-11 -2.30434e-11 5e-05 1.46608e-10 
198 1 0.186858 0.0186666 0.00689258 0.00552318 -0.000110068 -9.43821e-05 7.15155e-11 -3.85157e-11 1.89342e-11 5e-05 1.46608e-10 
199 1 0.18676 0.0181794 0.00694456 0.0055987 -0.000125009 0.000114764 -1.50178e-12 6.9469e-11 -1.02017e-11 5e-05 1.46608e-10 
201 1 0.186389 0.0165943 0.00765474 0.00607129 -0.000255789 5.08337e-07 4.28035e-11 2.45295e-11 -4.36452e-11 5e-05 1.46608e-10 
202 1 0.186892 0.0179523 0.00696837 0.00556384 -0.000135745 0.000115272 9.30068e-11 6.4317e-11 2.38632e-11 5e-05 1.46608e-10 
203 1 0.192355 0.0164631 0.00772969 0.00607614 5.26542e-05 0.000137723 -1.75646e-10 6.13858e-11 3.06347e-11 5e-05 1.46608e-10 
204 1 0.186097 0.0155571 0.00863426 0.005478 -3.27221e-05 0.00011736 2.12149e-10 -3.70981e-11 3.60207e-11 5e-05 1.46608e-10 
205 1 0.186967 0.0178865 0.00697595 0.0055493 -0.000132342 0.000115788 5.38487e-12 6.6832e-12 -4.67619e-11 5e-05 1.46608e-10 
206 1 0.186463 0.016535 0.00768586 0.00605174 -0.000250389 2.37704e-05 -1.22484e-10 2.08022e-10 2.45014e-10 5e-05 1.46608e-10 
207 1 0.186593 0.0170463 0.00740006 0.00614967 -0.000296728 1.9677e-05 -1.30969e-11 -4.07454e-11 1.13193e-11 5e-05 1.46608e-10 
208 1 0.186774 0.0178205 0.00697863 0.00583038 -0.000171895 0.000123378 2.21673e-10 -7.53698e-11 2.91153e-11 5e-05 1.46608e-10 
209 1 0.183549 0.0175057 0.0071587 0.00643304 0.000536998 -2.00524e-05 9.46727e-14 6.28888e-13 -3.17693e-13 5e-05 1.46608e-10 
210 1 0.192588 0.0173652 0.00717469 0.00609394 -0.000167051 -0.000167725 -3.67167e-10 -1.02929e-10 1.56996e-10 5e-05 1.46608e-10 
211 1 0.192524 0.0170873 0.00726761 0.00631366 -0.00022909 -0.000151615 7.04878e-11 -6.85873e-11 -1.43861e-10 5e-05 1.46608e-10 
212 1 0.186911 0.0180499 0.00695954 0.00558677 -0.000132232 0.000114972 4.16453e-11 6.44249e-11 -1.42311e-11 5e-05 1.46608e-10 
213 1 0.192841 0.0181423 0.00692534 0.00583391 -7.52025e-05 -9.16857e-05 1.62654e-11 -9.73657e-11 -1.37156e-10 5e-05 1.46608e-10 
214 1 0.192459 0.0168398 0.00741825 0.00634284 -0.000230538 -0.00012937 1.76326e-10 1.75735e-10 -3.18818e-11 5e-05 1.46608e-10 
215 1 0.180795 0.0183499 0.00704899 0.00558158 -2.67557e-05 -0.000306112 -3.55559e-10 5.34591e-11 -2.41881e-13 5e-05 1.46608e-10 
216 1 0.186872 0.0178558 0.00698547 0.00554714 -0.000142044 8.3213e-05 1.43737e-11 5.31826e-11 2.27785e-11 5e-05 1.46608e-10 
217 1 0.192844 0.0185934 0.00686847 0.00571905 -7.20485e-05 7.15243e-05 1.20929e-10 2.10373e-10 -4.00059e-12 5e-05 1.46608e-10 
218 1 0.186192 0.0157887 0.00820166 0.00560513 -0.000181959 7.61289e-05 1.38541e-10 -1.75342e-10 1.94228e-10 5e-05 1.46608e-10 
219 1 0.192399 0.0166112 0.00760283 0.00615567 2.0468e-05 0.000131478 2.20312e-10 -7.32814e-11 -1.52515e-11 5e-05 1.46608e-10 
220 1 0.186986 0.0179841 0.00696712 0.00556403 -0.000143762 0.000115765 1.09339e-10 4.75796e-11 -2.91351e-12 5e-05 1.46608e-10 
221 1 0.246645 0.017646 0.00703159 0.00634536 -3.40311e-05 1.1038e-05 3.2199e-13 3.61329e-15 2.59749e-15 5e-05 1.46608e-10 
222 1 0.192916 0.0180789 0.00694378 0.00584235 -6.40563e-05 -9.46924e-05 2.52522e-11 -7.60298e-12 -3.20012e-11 5e-05 1.46608e-10 
223 1 0.186737 0.0176446 0.00706592 0.00572925 -0.000228806 1.66466e-06 6.40077e-11 -1.2613e-10 9.17739e-11 5e-05 1.46608e-10 
224 1 0.095465 0.018112 0.00771278 -0.00111674 -0.0178422 0.00426359 1.77501e-10 -2.74853e-10 8.88224e-11 5e-05 1.46608e-10 
225 1 0.192737 0.0172373 0.00721188 0.00619634 -6.24243e-05 -0.000106281 -3.43333e-10 3.58547e-10 -1.12649e-10 5e-05 1.46608e-10 
226 1 0.186541 0.0171909 0.00732139 0.00617699 -0.000288406 1.36484e-05 7.18724e-11 -1.39144e-11 -1.08013e-11 5e-05 1.46608e-10 
227 1 0.180734 0.0180595 0.0070934 0.00570684 -8.40437e-05 -0.00030526 1.92083e-11 -1.02505e-10 1.83986e-11 5e-05 1.46608e-10 
228 1 0.180549 0.0171888 0.00722669 0.00563261 -0.000137728 -0.000292963 3.06599e-10 9.37409e-12 6.92163e-11 5e-05 1.46608e-10 
229 1 0.186951 0.0182452 0.00694188 0.00563532 -0.000137004 0.000116492 8.33687e-11 8.01275e-11 -2.17726e-11 5e-05 1.46608e-10 
230 1 0.186346 0.0164238 0.00775 0.00604416 -0.000259493 -2.47707e-06 -2.51757e-11 3.77397e-11 -2.76505e-11 5e-05 1.46608e-10 
231 1 0.180508 0.017021 0.00731758 0.00628567 -3.87022e-05 9.51e-06 1.65158e-10 -1.29496e-10 1.89653e-10 5e-05 1.46608e-10 
232 1 0.18674 0.0180818 0.00695339 0.00557859 -0.000124953 0.000114185 2.02617e-11 3.71105e-11 -2.2341e-12 5e-05 1.46608e-10 
234 1 0.192782 0.0178619 0.00701463 0.00581326 -9.21585e-05 -8.64119e-05 -9.23859e-11 4.51407e-11 -2.07998e-11 5e-05 1.46608e-10 
235 1 0.186945 0.017788 0.00698483 0.00554118 -0.000149927 0.000113678 2.15631e-11 5.45279e-11 -1.75697e-12 5e-05 1.46608e-10 
236 1 0.186305 0.016257 0.00785255 0.00557577 -3.32034e-06 0.000240893 3.09043e-12 5.40499e-11 -7.64447e-11 5e-05 1.46608e-10 
237 1 0.186267 0.0160929 0.00796007 0.00561151 3.26812e-07 0.000255156 -2.42089e-11 -9.97483e-11 -1.04683e-10 5e-05 1.46608e-10 
239 1 0.18034 0.0164262 0.00782565 0.00605204 0.000105705 -0.000103378 1.70142e-10 1.51661e-10 -1.20795e-10 5e-05 1.46608e-10 
240 1 0.180361 0.0165006 0.00776214 0.00608377 0.00010741 -0.000104659 -8.67215e-11 7.96564e-11 -1.04083e-10 5e-05 1.46608e-10 
241 1 0.180424 0.0167236 0.0075716 0.00619434 5.10592e-05 -5.86208e-05 7.92375e-11 -8.86971e-12 1.10177e-10 5e-05 1.46608e-10 
242 1 0.186605 0.0174467 0.00717844 0.00560569 -0.000171108 -3.8411e-05 4.38901e-11 -5.80377e-12 1.31968e-11 5e-05 1.46608e-10 
244 1 0.180382 0.0165749 0.00769862 0.00612143 9.83812e-05 -9.75689e-05 2.98483e-11 -1.28237e-11 -1.52168e-11 5e-05 1.46608e-10 
246 1 0.180487 0.0169466 0.00738111 0.00629048 -1.19952e-05 -1.92317e-06 3.18752e-10 -2.28602e-10 1.03704e-10 5e-05 1.46608e-10 
247 1 0.187141 0.0183088 0.00693937 0.00563885 -0.000159778 0.000119278 -2.74062e-11 1.49685e-10 -2.91229e-11 5e-05 1.46608e-10 
248 1 0.186368 0.0165091 0.00770237 0.00606222 -0.000258359 -5.56435e-07 4.35669e-11 4.2232e-11 -4.34114e-11 5e-05 1.46608e-10 
249 1 0.180775 0.018253 0.00706379 0.00575544 -7.08203e-05 -0.000310731 -1.43866e-10 1.68292e-10 -4.4958e-11 5e-05 1.46608e-10 
250 1 0.186667 0.0169864 0.00743141 0.00611898 -0.000331066 3.83945e-05 -1.39711e-11 -4.23339e-11 3.03315e-11 5e-05 1.46608e-10 
251 1 0.192378 0.0165368 0.00766616 0.00612927 6.77433e-05 0.000174309 -1.58898e-11 3.94578e-11 2.8999e-11 5e-05 1.46608e-10 
252 1 0.180631 0.0175758 0.00716745 0.00566821 -0.000129135 -0.000295282 -1.99329e-10 1.04218e-10 1.25741e-12 5e-05 1.46608e-10 
253 1 0.180834 0.0185437 0.00701942 0.00541412 1.99173e-05 -0.000303458 5.22668e-11 -5.92274e-11 3.27652e-12 5e-05 1.46608e-10 
254 1 0.180468 0.0168727 0.00744576 0.00624198 1.29658e-05 -1.72461e-05 -1.64486e-10 -7.32473e-11 4.8669e-11 5e-05 1.46608e-10 
255 1 0.186699 0.0178866 0.00697103 0.00583479 -0.000172172 0.000122676 9.15245e-11 -1.63548e-10 -1.41109e-11 5e-05 1.46608e-10 
256 1 0.186794 0.0174998 0.00714459 0.0056101 -0.000190838 -2.73483e-05 8.88146e-11 1.31014e-13 3.03121e-12 5e-05 1.46608e-10 
257 1 0.186753 0.0173282 0.00724046 0.00593016 0.00015708 -0.000226764 -9.525e-11 3.38061e-12 -2.54463e-12 5e-05 1.46608e-10 
258 1 0.186658 0.017302 0.00725716 0.00619075 -0.000281809 9.58574e-06 -7.08997e-11 -2.76134e-11 1.40207e-11 5e-05 1.46608e-10 
259 1 0.180652 0.0176725 0.00715264 0.00566961 -0.000118174 -0.000298862 -1.2754e-10 3.17365e-11 2.24963e-11 5e-05 1.46608e-10 