ITEM: TIMESTEP
33400000
ITEM: NUMBER OF ATOMS
271
ITEM: BOX BOUNDS ff ff ff
-0.02 0.43
-0.02 0.06
-0.02 0.07
ITEM: ATOMS id type x y z vx vy vz fx fy fz radius mass 
1 1 0.20717 0.0152235 0.00888226 0.00565339 0.000510794 -4.28164e-05 -1.09701e-11 2.42887e-11 -1.1487e-10 5e-05 1.46608e-10 
2 1 0.208057 0.0176328 0.00709763 0.00577279 0.000386029 6.3518e-05 -3.20108e-10 -3.17245e-11 -9.33375e-11 5e-05 1.46608e-10 
3 1 0.2022 0.0178485 0.00709236 0.00562761 0.000150952 0.000264488 2.36273e-11 -7.18456e-11 5.06025e-11 5e-05 1.46608e-10 
4 1 0.208118 0.0174792 0.00714478 0.00585578 0.000249545 0.000105324 -8.1253e-11 6.12535e-12 6.62872e-11 5e-05 1.46608e-10 
5 1 0.207156 0.0151693 0.00896511 0.00571722 0.000128773 -0.000294967 -3.41908e-11 -1.21792e-10 -2.34214e-10 5e-05 1.46608e-10 
6 1 0.213632 0.0169256 0.00753327 0.00639719 0.0012539 -0.000375503 3.69771e-11 4.86872e-11 -6.64174e-11 5e-05 1.46608e-10 
7 1 0.207247 0.0154967 0.00860324 0.00564619 6.48608e-05 -0.000394932 -4.00538e-10 3.95696e-10 6.09771e-10 5e-05 1.46608e-10 
8 1 0.207132 0.0151329 0.00905517 0.00561063 -0.000342128 -0.000524168 4.10781e-11 2.8548e-11 -2.09976e-10 5e-05 1.46608e-10 
9 1 0.21375 0.0173812 0.00716773 0.00606827 0.00123647 -0.000576718 -5.18948e-11 4.40062e-12 1.01484e-11 5e-05 1.46608e-10 
10 1 0.207722 0.0172517 0.00719979 0.00586736 0.000247275 0.00010608 1.9018e-11 3.78381e-11 -1.63178e-11 5e-05 1.46608e-10 
11 1 0.207857 0.0174731 0.00713863 0.00587455 0.000193537 0.000141585 1.6898e-10 1.64932e-10 1.57541e-10 5e-05 1.46608e-10 
12 1 0.201321 0.0156975 0.00832118 0.00533146 3.58292e-05 -7.23883e-05 2.01419e-10 -9.10494e-12 5.5057e-11 5e-05 1.46608e-10 
13 1 0.207082 0.015106 0.00934967 0.00573378 -0.000697224 -0.000567415 7.43213e-11 -1.16759e-11 -5.33318e-10 5e-05 1.46608e-10 
14 1 0.20199 0.0185452 0.00688875 0.0056789 0.000149751 0.000235951 1.0842e-10 4.12798e-10 -1.42245e-11 5e-05 1.46608e-10 
15 1 0.208103 0.0173823 0.0071729 0.00590181 0.0002383 0.000111023 -1.33725e-10 3.94766e-11 -5.47247e-12 5e-05 1.46608e-10 
16 1 0.202087 0.0185806 0.00689547 0.00568139 0.000154845 0.000237126 1.79113e-10 1.95351e-10 -6.48254e-12 5e-05 1.46608e-10 
17 1 0.208137 0.0175734 0.0071176 0.0057352 0.000280388 9.13667e-05 -1.93382e-10 4.45085e-11 8.13903e-12 5e-05 1.46608e-10 
19 1 0.207115 0.015121 0.00915304 0.00561449 -0.000622889 -0.000566849 1.10931e-10 1.05297e-10 -3.09666e-10 5e-05 1.46608e-10 
21 1 0.207684 0.0170853 0.00730028 0.00575312 7.11271e-05 -0.00036016 2.69124e-11 4.8558e-11 -4.64324e-11 5e-05 1.46608e-10 
22 1 0.207893 0.017222 0.00721377 0.00586866 0.000198771 0.000123286 1.36848e-10 -2.34637e-11 1.22718e-10 5e-05 1.46608e-10 
23 1 0.201557 0.0163102 0.00795452 0.00603786 0.000155508 0.000286975 6.83113e-11 1.04347e-10 -5.85953e-11 5e-05 1.46608e-10 
24 1 0.21383 0.0177552 0.00705069 0.00588414 0.0012763 -0.000582017 -3.72169e-11 1.07348e-12 5.93904e-12 5e-05 1.46608e-10 
25 1 0.207309 0.0157238 0.00841709 0.00567771 1.79631e-05 -0.000308126 -4.25123e-10 -2.70413e-11 1.37166e-10 5e-05 1.46608e-10 
26 1 0.213713 0.017218 0.00727281 0.00599558 0.00129524 -0.000461095 -8.69641e-11 1.61415e-11 -3.8314e-12 5e-05 1.46608e-10 
27 1 0.202332 0.0180512 0.00698174 0.00569227 4.10671e-05 0.000338678 -1.92035e-10 1.19797e-09 -6.46491e-10 5e-05 1.46608e-10 
28 1 0.208026 0.017447 0.00716993 0.00587493 0.000211239 0.000117285 -8.2165e-11 5.12161e-11 8.95408e-11 5e-05 1.46608e-10 
29 1 0.207268 0.0155723 0.00854124 0.00557006 8.29505e-05 -0.000362366 -1.40052e-10 1.19012e-11 6.80884e-11 5e-05 1.46608e-10 
30 1 0.207784 0.01754 0.00714884 0.00585952 0.000185471 0.000138887 5.39631e-11 3.00535e-10 4.97572e-10 5e-05 1.46608e-10 
31 1 0.207327 0.0157999 0.0083548 0.00585041 -2.9919e-05 -0.00028363 3.72687e-11 -1.91737e-10 1.93127e-10 5e-05 1.46608e-10 
32 1 0.207774 0.0167492 0.00756638 0.00633937 -5.0244e-06 -0.000329662 -2.74272e-11 2.83957e-13 2.30495e-12 5e-05 1.46608e-10 
33 1 0.213654 0.0169986 0.00746834 0.00642716 0.00125371 -0.00037087 2.93699e-11 3.48996e-11 -1.41377e-11 5e-05 1.46608e-10 
34 1 0.207231 0.0154212 0.00866661 0.00565323 2.49397e-05 -0.00047932 -1.06848e-10 2.45058e-10 2.29681e-10 5e-05 1.46608e-10 
35 1 0.207936 0.0170033 0.00735315 0.00590203 -2.3446e-05 -0.000291319 -9.56522e-11 -9.72711e-11 5.43854e-11 5e-05 1.46608e-10 
36 1 0.213811 0.0176616 0.00707997 0.00590674 0.00127621 -0.000582618 2.98073e-10 -6.82582e-11 1.34941e-11 5e-05 1.46608e-10 
37 1 0.207976 0.0180531 0.0070459 0.00536975 9.96048e-05 -0.000629378 6.6177e-11 1.53158e-10 -1.114e-09 5e-05 1.46608e-10 
38 1 0.208037 0.0183487 0.00708424 0.00553163 0.00018436 -0.000739347 -2.62368e-10 6.45755e-11 5.35122e-12 5e-05 1.46608e-10 
39 1 0.21385 0.0178489 0.00702141 0.00591407 0.00126495 -0.000579255 2.01975e-12 -1.65223e-11 6.26991e-13 5e-05 1.46608e-10 
41 1 0.208161 0.0176667 0.00709082 0.00573318 0.000296793 8.73011e-05 3.26425e-10 -1.00467e-10 -1.30766e-11 5e-05 1.46608e-10 
42 1 0.321436 0.0173475 0.00552525 4.57774e-16 2.2552e-15 8.4636e-14 1.87537e-23 5.61578e-24 -2.06795e-25 5e-05 1.46608e-10 
44 1 0.208035 0.0175389 0.00712467 0.0058473 0.000371351 6.17942e-05 3.46636e-10 2.69509e-10 -1.23433e-10 5e-05 1.46608e-10 
45 1 0.213675 0.0170716 0.00740342 0.00645362 0.00125076 -0.00036609 -3.95517e-11 -1.52829e-11 1.03479e-11 5e-05 1.46608e-10 
47 1 0.207198 0.0152839 0.00880785 0.0055943 0.000503451 -5.48704e-05 -3.56545e-11 1.24464e-10 -4.29837e-11 5e-05 1.46608e-10 
48 1 0.208017 0.0182515 0.00707156 0.00549394 0.000186617 -0.000737358 -3.07461e-11 3.7396e-11 1.00625e-10 5e-05 1.46608e-10 
50 1 0.207373 0.0159499 0.00823152 0.00599559 -7.3778e-05 -0.000253431 3.26038e-11 -1.15634e-10 1.41425e-10 5e-05 1.46608e-10 
51 1 0.207346 0.015879 0.00829687 0.00594169 -5.56341e-05 -0.00026619 1.26252e-10 -2.34954e-10 1.09027e-10 5e-05 1.46608e-10 
52 1 0.201244 0.0154969 0.00864919 0.00561206 -0.000224126 -0.000247239 -8.83284e-11 -3.37865e-11 7.5766e-11 5e-05 1.46608e-10 
53 1 0.213791 0.0175681 0.00710923 0.00611682 0.00123137 -0.000575389 3.42499e-12 -1.35471e-10 3.70614e-11 5e-05 1.46608e-10 
54 1 0.207864 0.0179256 0.00708313 0.00562721 0.000183238 -0.000216476 -1.0066e-10 2.15125e-10 3.00634e-10 5e-05 1.46608e-10 
55 1 0.201185 0.0153931 0.00892442 0.00545419 -0.000200265 -0.000277511 -9.5296e-11 -2.61062e-11 1.13701e-10 5e-05 1.46608e-10 
56 1 0.207999 0.0181507 0.00705821 0.00550925 0.000191483 -0.000729069 1.42296e-10 3.73163e-10 1.43233e-10 5e-05 1.46608e-10 
57 1 0.213696 0.0171447 0.0073384 0.00592846 0.00130161 -0.000475412 3.21408e-11 1.26521e-11 1.77112e-11 5e-05 1.46608e-10 
59 1 0.207874 0.0171318 0.00725281 0.00578296 2.14704e-05 -0.000325635 1.18351e-11 5.26836e-13 -5.12112e-11 5e-05 1.46608e-10 
61 1 0.207657 0.0166508 0.00765183 0.0062084 -0.000120605 -0.000229827 5.42908e-11 6.21321e-11 -5.12967e-11 5e-05 1.46608e-10 
62 1 0.20827 0.0180938 0.00701147 0.00558724 -0.000747522 -0.000897537 -4.3744e-10 -1.4984e-10 1.14776e-10 5e-05 1.46608e-10 
63 1 0.208085 0.0172876 0.00720028 0.00588828 0.00017017 0.000129527 -2.43422e-10 1.29147e-10 -3.80536e-11 5e-05 1.46608e-10 
64 1 0.213869 0.0179425 0.00699213 0.00594261 0.0012539 -0.000577204 -1.06318e-11 -3.24364e-11 1.02179e-11 5e-05 1.46608e-10 
65 1 0.201505 0.0164511 0.00786859 0.00603971 0.000151851 0.00029047 2.54774e-11 3.0725e-11 -6.91974e-12 5e-05 1.46608e-10 
66 1 0.201166 0.0153583 0.00901637 0.00537892 -0.000192076 -0.000286962 -2.52549e-10 -1.02859e-11 4.1787e-11 5e-05 1.46608e-10 
67 1 0.208008 0.0177919 0.00704923 0.00557609 0.000326384 7.3032e-05 3.35062e-11 -1.24638e-10 6.01719e-12 5e-05 1.46608e-10 
68 1 0.207818 0.0169018 0.0074411 0.0062436 -0.00012053 -0.000229676 -1.13184e-10 -2.14395e-10 1.70326e-10 5e-05 1.46608e-10 
69 1 0.207884 0.018023 0.00707197 0.00562748 0.000148228 -0.000469564 2.03072e-11 2.08112e-10 6.5586e-11 5e-05 1.46608e-10 
70 1 0.21373 0.0172914 0.00720697 0.00606333 0.0012916 -0.000449658 -1.20502e-11 -1.81536e-11 -3.16494e-12 5e-05 1.46608e-10 
71 1 0.201225 0.0154621 0.00874106 0.00557596 -0.00021692 -0.000254371 -8.04379e-11 -3.49513e-11 9.37249e-11 5e-05 1.46608e-10 
72 1 0.207898 0.0177625 0.00705452 0.00562758 0.000265983 0.000110132 5.20844e-10 4.00505e-10 -6.97808e-11 5e-05 1.46608e-10 
73 1 0.207943 0.018316 0.0070922 0.00550194 0.000221308 -0.000731215 1.81982e-11 1.21627e-10 1.05697e-10 5e-05 1.46608e-10 
74 1 0.208072 0.01808 0.00703682 0.0054862 0.000103857 -0.000741553 -4.33119e-10 2.11543e-10 3.30829e-11 5e-05 1.46608e-10 
76 1 0.202219 0.0183515 0.00688211 0.0055342 1.57659e-05 0.000214264 -9.97516e-11 -3.27994e-11 2.26942e-10 5e-05 1.46608e-10 
77 1 0.207952 0.0170797 0.00729079 0.00585361 -8.78578e-05 -0.000364428 3.52985e-11 7.15304e-11 4.30826e-10 5e-05 1.46608e-10 
78 1 0.20197 0.0184475 0.00688007 0.00567646 0.000161643 0.0002321 -3.72559e-11 5.8131e-10 -6.49914e-11 5e-05 1.46608e-10 
79 1 0.201277 0.0155667 0.00846477 0.00544909 -0.00020845 -0.000263004 1.62058e-09 -8.7797e-10 1.05856e-09 5e-05 1.46608e-10 
80 1 0.208108 0.0178258 0.00704228 0.00590158 0.000327134 9.13892e-05 -2.54712e-10 -3.03976e-10 1.51542e-10 5e-05 1.46608e-10 
81 1 0.202107 0.0186783 0.00690415 0.00566489 0.000156714 0.000236983 7.09276e-11 1.74687e-10 9.35545e-12 5e-05 1.46608e-10 
82 1 0.201335 0.0157761 0.00826092 0.00562323 0.000147363 0.000138956 6.87788e-11 4.2075e-11 2.3619e-13 5e-05 1.46608e-10 
83 1 0.202029 0.0182879 0.00689019 0.00570766 0.000189086 0.00027551 -1.05302e-09 3.6341e-10 -3.45597e-10 5e-05 1.46608e-10 
84 1 0.21377 0.0174747 0.00713848 0.00610761 0.0012323 -0.000576354 3.63143e-11 -3.02736e-11 2.64641e-12 5e-05 1.46608e-10 
85 1 0.202218 0.0179342 0.00704321 0.00566268 0.000126595 0.000280728 -4.29338e-11 1.51647e-10 -8.61181e-11 5e-05 1.46608e-10 
86 1 0.208181 0.0177609 0.00706364 0.00586238 0.000283511 9.29569e-05 1.16606e-10 -5.23675e-11 9.53199e-11 5e-05 1.46608e-10 
87 1 0.208112 0.0182834 0.00706348 0.00552137 0.000142565 -0.000745825 -8.8467e-11 9.95605e-11 -3.00403e-11 5e-05 1.46608e-10 
88 1 0.207539 0.0165547 0.00773569 0.00610871 -0.000123993 -0.00022155 -3.05299e-10 -1.52161e-10 1.28666e-10 5e-05 1.46608e-10 
89 1 0.208095 0.0181766 0.00704891 0.0055048 0.000107046 -0.000749833 1.87062e-10 3.43502e-10 1.47245e-10 5e-05 1.46608e-10 
90 1 0.207944 0.0175177 0.00715955 0.00587352 0.000245173 8.66269e-05 1.04994e-10 2.26122e-10 7.74312e-10 5e-05 1.46608e-10 
91 1 0.202256 0.0181051 0.00694536 0.00575231 0.00011522 0.000316077 -4.91925e-10 3.79458e-10 -4.57308e-10 5e-05 1.46608e-10 
92 1 0.208047 0.0179839 0.00702508 0.00553822 9.07084e-05 -0.000751527 -2.22502e-10 -8.40071e-11 -5.20859e-11 5e-05 1.46608e-10 
93 1 0.20741 0.0161025 0.00810797 0.00601429 -8.21364e-05 -0.000248564 -2.3527e-10 -8.72619e-11 3.85502e-11 5e-05 1.46608e-10 
94 1 0.207839 0.0173786 0.00716596 0.00587738 0.000192 0.00012693 -8.31809e-12 8.07279e-12 3.2326e-11 5e-05 1.46608e-10 
95 1 0.2078 0.0171981 0.00724225 0.00583744 0.000141359 -1.58382e-05 9.05818e-11 2.51815e-11 2.03537e-10 5e-05 1.46608e-10 
96 1 0.207434 0.0161771 0.00804546 0.00602209 -9.6449e-05 -0.000238774 -1.6843e-10 -2.93914e-11 6.90342e-11 5e-05 1.46608e-10 
97 1 0.201622 0.0165647 0.00780932 0.00603206 0.000151131 0.000289275 5.2426e-11 5.40088e-11 -2.88092e-11 5e-05 1.46608e-10 
98 1 0.207934 0.0174119 0.00715901 0.00588244 0.000190765 0.000126909 5.59512e-11 5.08532e-11 1.00886e-10 5e-05 1.46608e-10 
99 1 0.201731 0.0169886 0.00756744 0.00603121 0.000129762 0.000301905 -5.72937e-11 2.24167e-11 -1.44901e-11 5e-05 1.46608e-10 
100 1 0.20817 0.0180895 0.00702458 0.00557866 -0.000268691 -0.000817599 -5.83752e-10 -1.66092e-10 3.657e-11 5e-05 1.46608e-10 
101 1 0.201298 0.0156261 0.0083872 0.00507957 -4.6441e-05 -0.000250147 -3.37714e-11 -4.95528e-11 5.92384e-11 5e-05 1.46608e-10 
102 1 0.0643568 0.0187248 0.00531097 4.19914e-15 1.04963e-14 8.29639e-14 -1.39446e-21 2.41899e-22 4.67357e-23 5e-05 1.46608e-10 
103 1 0.24257 0.0191927 0.00520306 -2.33433e-22 -8.32918e-22 8.29106e-22 0 0 0 5e-05 1.46608e-10 
104 1 0.201934 0.0178412 0.00707999 0.00572188 0.000169422 0.000259546 1.46048e-10 1.00417e-10 -1.88446e-11 5e-05 1.46608e-10 
105 1 0.202295 0.0178807 0.00707939 0.0056783 0.000133493 0.000277309 -1.62935e-10 3.49988e-11 -3.59797e-11 5e-05 1.46608e-10 
106 1 0.202162 0.0176778 0.00719011 0.00557676 0.000188613 0.000238741 1.72384e-10 -1.78931e-10 1.18998e-10 5e-05 1.46608e-10 
107 1 0.202143 0.0175926 0.00723893 0.00558079 0.000180999 0.000243468 1.06789e-11 -1.73447e-10 1.0417e-10 5e-05 1.46608e-10 
108 1 0.207904 0.018121 0.00707082 0.00553621 0.000175413 -0.000654755 3.34286e-11 1.76898e-10 -2.33456e-10 5e-05 1.46608e-10 
109 1 0.208064 0.0171903 0.00722833 0.00588019 0.000224484 0.00011043 1.4327e-11 -3.30285e-12 4.02496e-11 5e-05 1.46608e-10 
110 1 0.207458 0.0162519 0.00798372 0.00600993 -0.000106815 -0.000230919 3.07801e-12 -1.0463e-10 7.06763e-11 5e-05 1.46608e-10 
111 1 0.207781 0.0171096 0.00728467 0.00591075 6.90642e-05 -0.000131537 1.84027e-11 7.58788e-11 1.85219e-10 5e-05 1.46608e-10 
112 1 0.201988 0.0180971 0.00693325 0.00562705 0.000185945 0.000244411 2.04399e-10 8.09163e-11 -2.42878e-10 5e-05 1.46608e-10 
113 1 0.201592 0.0167902 0.0076751 0.0060295 0.000136727 0.000297991 1.38686e-11 2.08797e-11 -6.87704e-12 5e-05 1.46608e-10 
114 1 0.201951 0.018348 0.00687124 0.00571642 0.000308376 0.000260414 -2.35354e-10 -2.00639e-10 5.50207e-11 5e-05 1.46608e-10 
115 1 0.208008 0.0173491 0.00717982 0.00588407 0.000182673 0.000125177 -4.13423e-12 1.34638e-10 -4.42951e-11 5e-05 1.46608e-10 
116 1 0.207845 0.0178302 0.00710563 0.00553595 0.000272735 5.1927e-05 2.2316e-10 -1.79816e-11 -1.90536e-10 5e-05 1.46608e-10 
117 1 0.207983 0.0185102 0.00711735 0.00556266 0.000230378 -0.000742289 -9.40815e-12 2.25364e-10 2.9651e-11 5e-05 1.46608e-10 
118 1 0.201802 0.017639 0.00719038 0.00558267 0.000191262 0.000237238 -2.7117e-10 -2.45557e-10 1.21337e-10 5e-05 1.46608e-10 
119 1 0.207969 0.0171605 0.00723424 0.00587821 0.000216057 0.000107928 6.1715e-11 -1.26703e-10 6.21633e-11 5e-05 1.46608e-10 
120 1 0.207286 0.0156487 0.00847929 0.00553085 6.68381e-05 -0.000345178 9.94077e-12 -7.02233e-11 6.96317e-11 5e-05 1.46608e-10 
121 1 0.207209 0.0153539 0.00873715 0.00565149 0.000185381 -0.000343851 -3.92883e-11 6.44234e-11 -2.81819e-11 5e-05 1.46608e-10 
122 1 0.207741 0.0169538 0.00740328 0.00624576 -0.00011566 -0.000233788 -5.26821e-11 -1.30232e-10 1.75064e-12 5e-05 1.46608e-10 
123 1 0.201765 0.0174686 0.00728797 0.00577795 0.000151067 0.000273255 -1.20731e-11 -1.84977e-10 9.90683e-11 5e-05 1.46608e-10 
124 1 0.207762 0.0170295 0.00734126 0.00614632 -4.71214e-05 -0.000203824 1.36684e-11 -8.37094e-11 -3.17536e-11 5e-05 1.46608e-10 
125 1 0.208057 0.0184459 0.00709688 0.00554361 0.000188215 -0.000741122 -3.33604e-10 6.38815e-12 3.43322e-11 5e-05 1.46608e-10 
126 1 0.207678 0.0167267 0.00758959 0.00617588 -6.36606e-05 -0.000273771 1.91482e-11 1.0767e-11 -9.64688e-12 5e-05 1.46608e-10 
127 1 0.202313 0.017966 0.00703049 0.00572609 0.000124955 0.000285671 -6.28891e-10 -3.24446e-10 1.74209e-10 5e-05 1.46608e-10 
128 1 0.207721 0.0168781 0.00746533 0.0062296 -0.000120774 -0.00023075 -5.95188e-11 -6.39142e-11 6.5589e-11 5e-05 1.46608e-10 
129 1 0.207872 0.0175682 0.00711104 0.0058429 0.00021146 0.000120259 -3.55246e-11 -8.38667e-11 4.96667e-11 5e-05 1.46608e-10 
131 1 0.202181 0.0177632 0.00714123 0.00557746 0.000156721 0.000258143 1.95488e-10 -1.48811e-10 9.78132e-11 5e-05 1.46608e-10 
132 1 0.207963 0.0176078 0.00712038 0.00578823 0.000304266 6.80982e-05 1.02248e-10 -5.25958e-12 -1.19789e-10 5e-05 1.46608e-10 
133 1 0.207742 0.0173458 0.00717268 0.00588177 0.000245821 0.000106948 7.204e-12 2.69791e-11 -1.00681e-11 5e-05 1.46608e-10 
134 1 0.207699 0.0168023 0.00752755 0.00626243 -8.11589e-05 -0.00026408 1.76507e-11 -3.17549e-11 2.58718e-11 5e-05 1.46608e-10 
135 1 0.207099 0.0151123 0.0092514 0.00564391 -0.000632373 -0.000573388 3.59583e-11 1.68248e-11 -4.36122e-10 5e-05 1.46608e-10 
136 1 0.202009 0.0186429 0.00689743 0.0056733 0.000142777 0.000236665 9.61777e-11 2.26229e-10 1.91071e-11 5e-05 1.46608e-10 
137 1 0.207394 0.0160255 0.00816949 0.00599584 -7.80507e-05 -0.000253099 -2.78737e-10 -3.15327e-11 5.91559e-11 5e-05 1.46608e-10 
138 1 0.207824 0.0177328 0.00711579 0.00566487 0.000215417 0.00011067 5.69641e-10 1.09618e-10 -1.30934e-11 5e-05 1.46608e-10 
140 1 0.207914 0.0173159 0.00718674 0.0058747 0.000197662 0.000121572 5.5448e-11 9.07163e-12 1.65402e-11 5e-05 1.46608e-10 
141 1 0.202009 0.0181912 0.00690636 0.00570493 0.00019922 0.000278583 -2.19432e-10 1.39582e-10 -2.76455e-10 5e-05 1.46608e-10 
142 1 0.201744 0.0173836 0.00733649 0.00600584 0.000120842 0.000305016 -4.40653e-11 -2.31806e-10 1.23208e-10 5e-05 1.46608e-10 
143 1 0.201204 0.0154277 0.00883256 0.00553372 -0.000210414 -0.000264114 4.42746e-11 -1.97859e-11 1.35741e-10 5e-05 1.46608e-10 
144 1 0.201858 0.0178948 0.00704376 0.00569201 0.000161602 0.000264732 1.39523e-10 1.36428e-12 1.65091e-11 5e-05 1.46608e-10 
147 1 0.202068 0.0184828 0.00688679 0.00568528 0.000162997 0.000236921 -9.37962e-12 3.40417e-10 -2.16925e-11 5e-05 1.46608e-10 
148 1 0.201826 0.0170172 0.00755663 0.00604341 0.000106092 0.000316502 -3.82203e-11 -1.31272e-11 6.68238e-12 5e-05 1.46608e-10 
149 1 0.20756 0.0166301 0.00767362 0.00615542 -0.000122295 -0.00022421 -2.65862e-10 -1.28381e-10 1.13111e-10 5e-05 1.46608e-10 
150 1 0.0100679 0.0201683 0.00551526 8.38484e-15 1.2437e-15 -8.48744e-14 -1.4424e-23 2.06634e-23 -1.03398e-24 5e-05 1.46608e-10 
151 1 0.2017 0.0172141 0.00743323 0.00602238 0.000125402 0.000304674 8.59782e-12 -3.83779e-11 2.25336e-11 5e-05 1.46608e-10 
153 1 0.202048 0.0188383 0.00691479 0.00564513 0.000151888 0.000235286 -2.56444e-11 3.21833e-11 1.977e-12 5e-05 1.46608e-10 
154 1 0.201821 0.0177242 0.00714158 0.00558761 0.000189664 0.000239355 -4.90864e-11 -1.90539e-10 1.68657e-10 5e-05 1.46608e-10 
155 1 0.202029 0.0174759 0.00730023 0.00559401 0.000200782 0.000232692 2.67467e-11 -2.57495e-10 1.53357e-10 5e-05 1.46608e-10 
156 1 0.20197 0.0180118 0.00698213 0.00564722 0.000183355 0.000240914 8.49192e-10 6.60098e-11 -6.54541e-11 5e-05 1.46608e-10 
157 1 0.0219312 0.0187687 0.00551176 -3.83305e-14 8.16708e-14 2.95887e-13 -3.97073e-22 2.8486e-22 -1.29661e-22 5e-05 1.46608e-10 
158 1 0.202199 0.0182535 0.00688188 0.0055208 1.14141e-05 9.57023e-05 7.10693e-10 -1.23541e-09 -1.44545e-09 5e-05 1.46608e-10 
159 1 0.208192 0.0181957 0.00703837 0.00553767 -2.12816e-05 -0.000776553 4.82256e-10 3.07384e-10 -4.9962e-11 5e-05 1.46608e-10 
160 1 0.20184 0.0178095 0.00709267 0.00564001 0.000174126 0.00025209 -4.67577e-11 -1.56156e-10 7.36018e-11 5e-05 1.46608e-10 
162 1 0.202126 0.018776 0.00691283 0.00565528 0.000156521 0.000236086 1.11995e-11 1.34995e-10 1.24566e-11 5e-05 1.46608e-10 
164 1 0.201687 0.016819 0.00766419 0.00603168 0.000142455 0.000294374 -1.88805e-11 -5.31818e-12 1.89707e-12 5e-05 1.46608e-10 
165 1 0.202029 0.017871 0.00706846 0.00559272 0.000163368 0.000252783 7.90042e-11 -6.36898e-11 7.73017e-11 5e-05 1.46608e-10 
166 1 0.207923 0.0182187 0.00707947 0.005473 0.000216555 -0.000729937 3.04216e-11 1.03942e-10 -3.7935e-12 5e-05 1.46608e-10 
168 1 0.201753 0.0170734 0.00751906 0.00602724 0.000107407 0.000314892 8.52347e-11 1.22974e-10 -6.89081e-11 5e-05 1.46608e-10 
169 1 0.202182 0.0186124 0.00690179 0.00567303 0.00017027 0.000238144 5.62409e-11 3.55038e-10 4.21056e-11 5e-05 1.46608e-10 
170 1 0.202105 0.0178169 0.00710494 0.00557231 0.000146184 0.000264224 1.85323e-10 -1.20176e-10 5.0994e-11 5e-05 1.46608e-10 
171 1 0.207804 0.0176372 0.00713687 0.00586113 0.000184238 0.000132177 2.9572e-12 3.54867e-10 -1.52098e-10 5e-05 1.46608e-10 
172 1 0.20201 0.0177858 0.00711727 0.0055839 0.000174959 0.000246647 8.79122e-11 -1.44242e-10 9.68139e-11 5e-05 1.46608e-10 
173 1 0.208081 0.0177263 0.00707079 0.00568441 0.000424838 5.49469e-05 -2.70202e-10 -2.52035e-10 1.86374e-10 5e-05 1.46608e-10 
174 1 0.202048 0.0175612 0.00725142 0.00559971 0.000194806 0.000236679 -1.60841e-10 -1.06618e-10 5.50827e-11 5e-05 1.46608e-10 
175 1 0.195682 0.0170933 0.00737544 0.00568188 0.00011826 0.000215474 -4.03807e-10 1.55424e-10 -1.11618e-10 5e-05 1.46608e-10 
177 1 0.20187 0.0171869 0.00745982 0.00600807 0.000111673 0.000311056 1.02812e-11 3.48894e-11 -1.98095e-11 5e-05 1.46608e-10 
178 1 0.201796 0.017243 0.0074223 0.00602068 0.00012655 0.000303113 5.59606e-11 4.69461e-12 -8.90483e-13 5e-05 1.46608e-10 
179 1 0.201878 0.0175845 0.00722704 0.00557368 0.000183851 0.000241415 -4.3369e-11 -3.64053e-11 1.40996e-11 5e-05 1.46608e-10 
181 1 0.202143 0.0184169 0.00688443 0.00569137 0.000185059 0.000239933 -2.32167e-10 8.36966e-11 -3.743e-11 5e-05 1.46608e-10 
182 1 0.207763 0.0174428 0.00716014 0.00586845 0.000186549 0.000127206 4.03208e-11 1.14394e-10 1.87301e-10 5e-05 1.46608e-10 
183 1 0.202086 0.0177316 0.0071538 0.0055835 0.000186375 0.000240907 1.35537e-10 -1.87065e-10 1.15838e-10 5e-05 1.46608e-10 
184 1 0.20782 0.0172898 0.00720766 0.00586141 0.000181038 9.48313e-05 5.06747e-11 -3.1918e-14 1.63413e-10 5e-05 1.46608e-10 
186 1 0.201679 0.0171293 0.00748161 0.00602093 0.000124483 0.000304877 1.79207e-11 4.74097e-11 -2.45204e-11 5e-05 1.46608e-10 
187 1 0.207666 0.017009 0.00736273 0.00584445 0.000751338 -0.000913432 -6.05447e-11 -5.63176e-11 4.28413e-11 5e-05 1.46608e-10 
188 1 0.207797 0.0168262 0.00750315 0.00623791 -0.000118233 -0.000233105 -1.99732e-10 -2.58877e-10 2.26752e-10 5e-05 1.46608e-10 
189 1 0.207981 0.0176994 0.00707567 0.00569182 0.000298655 8.5129e-05 -8.0504e-12 -2.37715e-10 -2.96131e-11 5e-05 1.46608e-10 
190 1 0.195952 0.0183576 0.0068759 0.00564629 -0.000132165 -0.000115292 -2.06354e-11 -2.09376e-10 -3.45727e-10 5e-05 1.46608e-10 
191 1 0.207839 0.0169779 0.00737868 0.00648109 0.000223703 -0.000524557 4.37925e-12 4.45187e-11 -7.16117e-11 5e-05 1.46608e-10 
192 1 0.201991 0.0177006 0.00716608 0.00558436 0.000186105 0.000240594 2.16507e-11 -9.5714e-11 4.30874e-11 5e-05 1.46608e-10 
193 1 0.207991 0.0172543 0.00720721 0.0058743 0.000212394 0.000116815 7.10539e-11 -6.73552e-11 3.92448e-11 5e-05 1.46608e-10 
194 1 0.161461 0.0182058 0.00533758 1.56457e-15 -1.1003e-14 8.6669e-14 -1.01728e-21 -3.26995e-23 1.28213e-23 5e-05 1.46608e-10 
195 1 0.202179 0.0181607 0.00691356 0.00580566 0.000121501 7.57471e-05 -2.37706e-10 3.26088e-10 -1.16447e-09 5e-05 1.46608e-10 
196 1 0.201579 0.0163951 0.00790607 0.00603731 0.000153118 0.000288481 3.25893e-11 2.97357e-11 -1.57383e-11 5e-05 1.46608e-10 
197 1 0.195742 0.0173603 0.00725253 0.00579212 0.000120207 0.000220923 -4.39979e-10 -2.53066e-10 7.53528e-11 5e-05 1.46608e-10 
198 1 0.202029 0.0187406 0.00690611 0.00565953 0.000146102 0.000235363 3.28642e-11 8.28346e-11 1.51222e-11 5e-05 1.46608e-10 
199 1 0.201931 0.0182514 0.00688818 0.00572049 0.00027706 0.000248001 -1.24577e-10 -1.23923e-10 -3.77833e-10 5e-05 1.46608e-10 
201 1 0.20157 0.0167054 0.00772347 0.00603196 0.000143083 0.000293853 -4.8822e-12 -3.03294e-11 3.7036e-13 5e-05 1.46608e-10 
202 1 0.202066 0.0180415 0.00697073 0.00566329 0.000149544 0.000271602 4.56767e-11 1.54082e-10 -7.34209e-11 5e-05 1.46608e-10 
203 1 0.207475 0.0163305 0.00792432 0.00604817 -0.000118593 -0.00021738 1.78532e-10 -1.46033e-10 8.83427e-11 5e-05 1.46608e-10 
204 1 0.201258 0.015532 0.00855672 0.00561976 -0.000222625 -0.000244321 1.32689e-10 -7.26697e-11 1.27061e-10 5e-05 1.46608e-10 
205 1 0.202142 0.0179876 0.0070071 0.00565163 0.000125691 0.000280957 6.25999e-12 1.56257e-10 -7.36652e-11 5e-05 1.46608e-10 
206 1 0.201644 0.0166495 0.00776094 0.00604573 0.000164903 0.000282084 1.14619e-10 -2.9057e-11 2.47268e-11 5e-05 1.46608e-10 
207 1 0.201774 0.0171582 0.00747068 0.00602974 0.000113955 0.000311206 9.73917e-11 9.79068e-11 -5.21351e-11 5e-05 1.46608e-10 
208 1 0.201952 0.0179265 0.00703108 0.00575633 0.000169092 0.000261608 1.63666e-10 -5.18215e-11 2.74788e-11 5e-05 1.46608e-10 
209 1 0.198766 0.0177289 0.00700119 0.00572508 -0.00053169 0.000156772 7.56388e-13 -6.13604e-14 2.06157e-14 5e-05 1.46608e-10 
210 1 0.207702 0.0171615 0.00723798 0.00581513 6.22404e-05 -0.000356183 -4.70303e-12 4.71179e-11 -2.45563e-11 5e-05 1.46608e-10 
211 1 0.207646 0.016932 0.00742579 0.00623742 -0.000114891 -0.000235166 -4.2299e-11 -7.16117e-11 5.98449e-11 5e-05 1.46608e-10 
212 1 0.202084 0.0181268 0.00692182 0.00569673 0.000153522 0.000277387 -1.57131e-11 2.6134e-10 -1.58074e-10 5e-05 1.46608e-10 
213 1 0.207957 0.0179558 0.00706003 0.00568956 0.000170838 -0.000294538 -2.62919e-10 -8.75222e-11 1.78392e-11 5e-05 1.46608e-10 
214 1 0.207583 0.0167056 0.00761211 0.00620194 -0.000129061 -0.000222318 7.07879e-11 -6.40885e-11 5.4426e-11 5e-05 1.46608e-10 
215 1 0.195933 0.0182597 0.00688193 0.00562592 -0.000128894 0.000104177 4.18105e-10 -2.6243e-10 2.74279e-10 5e-05 1.46608e-10 
216 1 0.202048 0.0179562 0.00701961 0.00562126 0.00015281 0.000260177 1.44507e-11 9.94716e-12 -3.58918e-11 5e-05 1.46608e-10 
217 1 0.207962 0.0184133 0.00710494 0.00552522 0.000228295 -0.000733344 -3.68837e-11 1.94718e-10 -6.72055e-11 5e-05 1.46608e-10 
218 1 0.201354 0.0158647 0.00821874 0.00603875 0.000136012 0.000292116 -8.98771e-11 5.06684e-11 -7.18336e-11 5e-05 1.46608e-10 
219 1 0.20752 0.0164786 0.00779776 0.00608048 -0.000124867 -0.000218642 -5.44585e-11 -1.01019e-10 8.7019e-11 5e-05 1.46608e-10 
220 1 0.20216 0.0180731 0.00695812 0.00570455 0.000137745 0.000278407 -6.44447e-11 2.23039e-10 -1.08873e-10 5e-05 1.46608e-10 
221 1 0.261719 0.0172357 0.00718136 0.00647656 0.000472059 -0.000196287 1.40622e-13 9.47998e-15 -4.88069e-15 5e-05 1.46608e-10 
222 1 0.208031 0.0178891 0.00705297 0.0058269 0.000274174 -3.59923e-05 -3.2961e-10 -1.29881e-10 5.41873e-11 5e-05 1.46608e-10 
223 1 0.201916 0.017755 0.00712944 0.0055863 0.000183198 0.000242259 -1.56004e-12 -1.48432e-10 9.90325e-11 5e-05 1.46608e-10 
224 1 0.0703797 0.0172126 0.00806165 -3.03085e-06 -0.019742 0.0105288 -1.19653e-13 7.10281e-11 -1.85367e-11 5e-05 1.46608e-10 
225 1 0.207858 0.0170543 0.00731612 0.0059605 3.08767e-05 -0.000336435 -7.42372e-11 -4.65491e-11 6.01376e-11 5e-05 1.46608e-10 
226 1 0.201722 0.0172989 0.00738486 0.00601756 0.000124845 0.000304427 -5.53296e-11 -1.57035e-10 8.04013e-11 5e-05 1.46608e-10 
227 1 0.195875 0.0179715 0.00693921 0.00566959 -0.000139218 -9.08503e-05 6.69614e-11 3.15525e-10 6.12178e-10 5e-05 1.46608e-10 
228 1 0.195702 0.0171823 0.00733449 0.00572356 0.000123289 0.000213737 -8.36405e-12 9.84069e-11 -1.71348e-11 5e-05 1.46608e-10 
229 1 0.202123 0.0183181 0.00687561 0.00558491 0.000147317 0.000242793 1.09179e-10 1.42276e-10 3.26673e-10 5e-05 1.46608e-10 
230 1 0.201527 0.0165359 0.00782024 0.00603574 0.000151668 0.000289581 6.0681e-12 -1.45698e-11 9.36031e-12 5e-05 1.46608e-10 
231 1 0.195662 0.0170043 0.00741644 0.00587576 7.29349e-05 0.000244818 -4.44972e-10 6.32352e-11 -6.40361e-11 5e-05 1.46608e-10 
232 1 0.201912 0.0181538 0.00690276 0.00565153 2.76642e-05 -6.88856e-05 6.05456e-11 -1.66303e-10 1.29596e-10 5e-05 1.46608e-10 
234 1 0.207888 0.0176629 0.0070836 0.00570495 0.00023883 0.000103374 8.11256e-12 -2.5036e-11 1.49093e-10 5e-05 1.46608e-10 
235 1 0.202123 0.0179022 0.00705607 0.00560558 0.000131989 0.000274811 -8.08697e-11 -1.36007e-10 8.18096e-11 5e-05 1.46608e-10 
236 1 0.201483 0.0163663 0.00791698 0.00603989 0.000152483 0.0002889 3.40319e-11 7.1089e-11 -2.59296e-11 5e-05 1.46608e-10 
237 1 0.20144 0.0161968 0.00801371 0.00605082 0.000151139 0.000290727 -5.13103e-12 8.90989e-11 -3.78208e-11 5e-05 1.46608e-10 
239 1 0.195491 0.0163176 0.00777895 0.00617476 -0.000364428 -6.07955e-06 2.24637e-11 3.37677e-10 -1.48946e-10 5e-05 1.46608e-10 
240 1 0.195512 0.016388 0.00771112 0.0062246 -0.000276917 7.53611e-05 3.0718e-11 -2.77828e-10 -6.16919e-10 5e-05 1.46608e-10 
241 1 0.195577 0.0166493 0.00757965 0.0061952 -6.38081e-05 0.000324865 -2.66479e-11 4.55779e-12 9.51592e-11 5e-05 1.46608e-10 
242 1 0.201784 0.0175538 0.00723918 0.00556387 0.000192665 0.000235815 -4.43249e-11 -2.33797e-10 1.33219e-10 5e-05 1.46608e-10 
244 1 0.195534 0.0164718 0.00766121 0.00621867 -0.000104931 0.000348849 -4.1266e-11 4.2031e-11 -9.80642e-12 5e-05 1.46608e-10 
246 1 0.195642 0.0169155 0.00745732 0.00617614 9.85867e-06 0.000288953 -1.36013e-11 -5.16087e-11 6.78799e-11 5e-05 1.46608e-10 
247 1 0.202313 0.0183828 0.0068884 0.005527 -3.72194e-06 0.000216946 -1.49011e-10 -3.06109e-11 -7.15081e-11 5e-05 1.46608e-10 
248 1 0.201548 0.0166207 0.00777184 0.00603415 0.000147504 0.000290916 -2.41781e-11 -2.85586e-11 3.00995e-11 5e-05 1.46608e-10 
249 1 0.195913 0.0181628 0.00689677 0.00562658 -0.000110858 8.54441e-05 -5.74945e-11 -2.04744e-10 1.25817e-10 5e-05 1.46608e-10 
250 1 0.201848 0.017102 0.00750824 0.0060311 0.000100158 0.000319252 -1.45495e-11 9.55085e-12 -7.10642e-12 5e-05 1.46608e-10 
251 1 0.207496 0.0164039 0.00785984 0.00607062 -0.000127468 -0.000214706 -7.43721e-11 -9.84267e-11 6.75704e-11 5e-05 1.46608e-10 
252 1 0.195782 0.0175383 0.00717055 0.00557701 0.000138339 0.000201314 1.29729e-10 -8.67234e-11 3.50029e-10 5e-05 1.46608e-10 
253 1 0.195972 0.0184555 0.00686991 0.00564002 -0.000143705 -0.000109241 2.71522e-11 1.48408e-10 8.22269e-12 5e-05 1.46608e-10 
254 1 0.19562 0.0168267 0.0074981 0.00618097 -1.04851e-05 0.000301611 4.57306e-11 -1.3332e-10 1.90705e-11 5e-05 1.46608e-10 
255 1 0.201876 0.0179801 0.00699484 0.00574132 0.000154004 0.000270562 -9.49238e-11 -8.47638e-11 2.77669e-11 5e-05 1.46608e-10 
256 1 0.201972 0.0176153 0.00721488 0.00558488 0.000187435 0.000240011 -8.53673e-12 -4.10312e-11 2.1238e-11 5e-05 1.46608e-10 
257 1 0.201935 0.0174449 0.00731249 0.00551725 0.000192532 0.000232787 2.97315e-11 2.3306e-10 -1.3388e-10 5e-05 1.46608e-10 
258 1 0.20184 0.017414 0.00732473 0.00608277 0.000438632 0.000123792 2.94828e-10 -4.04348e-11 3.93748e-11 5e-05 1.46608e-10 
259 1 0.195801 0.0176271 0.00712863 0.00560874 -1.17871e-05 -9.6196e-05 2.08286e-10 -1.1637e-10 -6.22343e-12 5e-05 1.46608e-10 
261 1 0.201635 0.0169598 0.00757835 0.00602184 0.000127386 0.000302571 4.44994e-11 8.33494e-11 -5.20745e-11 5e-05 1.46608e-10 
262 1 0.201418 0.016112 0.00806208 0.00605228 0.000149075 0.000291453 -1.08998e-11 6.13815e-11 -4.60326e-11 5e-05 1.46608e-10 