ITEM: TIMESTEP
7800000
ITEM: NUMBER OF ATOMS
287
ITEM: BOX BOUNDS ff ff ff
-0.02 0.43
-0.02 0.06
-0.02 0.07
ITEM: ATOMS id type x y z vx vy vz fx fy fz radius mass 
1 1 0.0583219 0.0164776 0.00797645 0.00653215 8.37646e-05 2.09833e-05 4.09737e-10 1.14605e-10 -7.47014e-11 5e-05 1.46608e-10 
2 1 0.0587094 0.0172357 0.00721922 0.00560585 0.000179625 -8.98166e-05 4.41159e-11 -1.62859e-10 2.41483e-10 5e-05 1.46608e-10 
3 1 0.0521333 0.0159732 0.00806582 0.00580742 5.68076e-05 0.000411272 1.76062e-10 1.14456e-10 -2.92849e-10 5e-05 1.46608e-10 
4 1 0.0586343 0.0177386 0.00718751 0.00605855 8.30324e-05 -6.54919e-05 1.43189e-11 6.59027e-11 -8.51675e-11 5e-05 1.46608e-10 
5 1 0.0582014 0.0163919 0.00807347 0.00594169 0.000128154 -2.86765e-05 -4.40443e-10 2.8848e-10 -2.92821e-10 5e-05 1.46608e-10 
6 1 0.0643289 0.0168192 0.00762902 0.00553964 0.000499219 -0.000225994 -1.38249e-11 1.86795e-11 -6.90347e-12 5e-05 1.46608e-10 
7 1 0.0583782 0.0170083 0.00744285 0.00556954 0.000189239 -0.000100419 -1.94742e-10 -9.34494e-11 8.75474e-11 5e-05 1.46608e-10 
8 1 0.0580925 0.0160411 0.00841227 0.00581925 9.65522e-05 -6.77761e-06 -4.36545e-11 -1.28142e-10 1.74619e-10 5e-05 1.46608e-10 
9 1 0.0645797 0.0179041 0.00706177 0.00623861 0.000369611 -0.000206414 2.7802e-10 -9.35872e-11 -7.28281e-11 5e-05 1.46608e-10 
10 1 0.0583225 0.0168002 0.00765157 0.00547619 0.00020183 -0.000111766 2.2097e-11 1.27439e-11 -3.74138e-11 5e-05 1.46608e-10 
11 1 0.058755 0.0174285 0.00719233 0.00588651 0.000131761 -7.65069e-05 -1.51897e-10 -1.17314e-10 2.34548e-11 5e-05 1.46608e-10 
12 1 0.0523289 0.0168191 0.00760405 0.00548465 -7.91534e-05 -0.000260679 -9.44373e-13 1.7287e-10 1.24593e-10 5e-05 1.46608e-10 
13 1 0.0581788 0.016317 0.00813583 0.00577821 0.000141891 -4.73531e-05 5.55842e-12 2.03053e-10 -2.00342e-10 5e-05 1.46608e-10 
14 1 0.0520568 0.0157572 0.0083983 0.00603599 0.000112491 0.00032931 6.68684e-11 -5.68435e-10 6.8338e-10 5e-05 1.46608e-10 
15 1 0.0585089 0.0171713 0.00728082 0.00563412 0.000184147 -9.15634e-05 -1.52245e-11 -6.21077e-11 8.89288e-11 5e-05 1.46608e-10 
16 1 0.0520351 0.0157039 0.0084801 0.00607706 0.000139407 0.000299241 -6.78427e-11 -3.14001e-10 5.54171e-10 5e-05 1.46608e-10 
17 1 0.0583044 0.0167307 0.00772121 0.00548273 0.000194968 -0.00010702 9.59636e-11 5.31737e-11 -7.09762e-11 5e-05 1.46608e-10 
18 1 0.0644634 0.0173731 0.00722271 0.00570147 0.000475693 -0.000204867 4.81632e-11 -4.09934e-11 3.99459e-11 5e-05 1.46608e-10 
19 1 0.0581572 0.016248 0.00820494 0.00579247 0.000123085 -2.94014e-05 7.61373e-11 1.7721e-10 -1.69234e-10 5e-05 1.46608e-10 
21 1 0.0582983 0.0164083 0.0080458 0.0062807 4.11565e-05 5.8385e-05 1.24777e-10 2.63707e-10 -2.57013e-10 5e-05 1.46608e-10 
22 1 0.0584146 0.0171472 0.00730361 0.00565637 0.00016811 -8.43754e-05 -7.32492e-12 -1.17962e-10 1.36327e-10 5e-05 1.46608e-10 
23 1 0.0525055 0.0172061 0.00743191 0.00575594 -0.000194271 -0.00022576 1.33204e-10 1.21871e-10 -1.78594e-11 5e-05 1.46608e-10 
24 1 0.0645206 0.0176103 0.00704868 0.00579628 0.000457051 -0.000182342 2.65006e-10 4.01887e-11 -1.74822e-13 5e-05 1.46608e-10 
25 1 0.0583595 0.016939 0.00751241 0.00552176 0.000194344 -0.0001062 -9.38221e-11 -5.01777e-11 6.39635e-11 5e-05 1.46608e-10 
26 1 0.0644056 0.0171357 0.00739682 0.00565031 0.000492067 -0.000214889 -4.78441e-11 9.75433e-11 -1.23894e-10 5e-05 1.46608e-10 
27 1 0.05241 0.0171791 0.00744837 0.0057773 -0.000151374 -0.00024585 -2.54266e-10 3.4907e-11 -7.08148e-12 5e-05 1.46608e-10 
28 1 0.0586127 0.017641 0.00718968 0.00606358 9.08818e-05 -6.63182e-05 8.93856e-11 9.42759e-11 -3.5192e-11 5e-05 1.46608e-10 
29 1 0.0581357 0.0161791 0.00827405 0.00578806 0.000104507 -1.37031e-05 -7.25886e-11 7.47042e-11 -5.49157e-11 5e-05 1.46608e-10 
30 1 0.0586465 0.0173782 0.00719449 0.00569748 7.77121e-05 -6.20047e-05 8.03733e-11 1.14809e-10 -3.2281e-11 5e-05 1.46608e-10 
31 1 0.0583972 0.0170777 0.00737334 0.00563265 0.00018141 -9.36385e-05 -3.36848e-11 -1.37646e-10 1.37406e-10 5e-05 1.46608e-10 
32 1 0.0584918 0.0171018 0.0073506 0.00561855 0.000184198 -9.28823e-05 1.13902e-11 -1.13597e-10 1.17634e-10 5e-05 1.46608e-10 
33 1 0.0643481 0.0168983 0.00757097 0.00557258 0.00049507 -0.000222609 4.55538e-11 3.36657e-11 -4.62887e-12 5e-05 1.46608e-10 
34 1 0.0582866 0.0166613 0.0077909 0.00566639 0.000166312 -7.60758e-05 -3.73435e-10 1.41325e-10 -1.53009e-10 5e-05 1.46608e-10 
35 1 0.0584731 0.0170334 0.00742112 0.00561198 0.000179901 -9.17043e-05 4.02559e-11 -1.83889e-10 1.3824e-10 5e-05 1.46608e-10 
36 1 0.0646227 0.0180993 0.00707036 0.00620691 0.000383203 -0.000210898 5.58584e-12 1.96543e-11 4.01727e-11 5e-05 1.46608e-10 
37 1 0.0584362 0.0168936 0.00755931 0.00557782 0.000196088 -9.98538e-05 -4.51281e-12 -2.20786e-10 8.78647e-11 5e-05 1.46608e-10 
38 1 0.058586 0.0171271 0.00732658 0.00561356 0.000180587 -9.2527e-05 -3.87497e-11 -8.94365e-11 8.29905e-11 5e-05 1.46608e-10 
39 1 0.06454 0.0177083 0.00705302 0.00589741 0.000442247 -0.00019421 -4.13787e-12 -1.10751e-10 5.68221e-11 5e-05 1.46608e-10 
41 1 0.0582462 0.016523 0.00792952 0.00650719 6.30069e-05 4.27529e-05 4.21307e-11 6.42666e-11 -8.64135e-11 5e-05 1.46608e-10 
42 1 0.058433 0.0172166 0.00723402 0.00572038 0.000168197 -7.59008e-05 -5.45391e-11 -1.37634e-10 1.26799e-10 5e-05 1.46608e-10 
44 1 0.0586065 0.0171963 0.00725728 0.00562192 0.000185634 -8.8066e-05 6.13405e-11 -1.10828e-10 1.77778e-11 5e-05 1.46608e-10 
45 1 0.0643672 0.0169775 0.00751292 0.00557997 0.000489156 -0.000220616 1.75284e-10 -6.18488e-11 6.57558e-11 5e-05 1.46608e-10 
46 1 0.0644439 0.017294 0.00728072 0.00569204 0.000476498 -0.000204966 -1.05528e-10 -7.67965e-12 -4.0186e-11 5e-05 1.46608e-10 
47 1 0.0582685 0.0165918 0.00786054 0.00632495 8.86152e-05 1.21631e-05 -1.03608e-10 9.08691e-11 -1.50333e-10 5e-05 1.46608e-10 
48 1 0.0584709 0.0174067 0.00719598 0.00566645 0.000216266 -5.49725e-05 5.89046e-11 1.0028e-10 -6.54541e-11 5e-05 1.46608e-10 
49 1 0.0644253 0.0172148 0.00733884 0.00566545 0.000483036 -0.000208287 1.26972e-10 1.34962e-10 -1.05032e-10 5e-05 1.46608e-10 
50 1 0.0585322 0.0177003 0.00718939 0.00606251 0.000105516 -7.04408e-05 6.12828e-11 2.04646e-10 -2.58785e-11 5e-05 1.46608e-10 
51 1 0.0585105 0.0176026 0.00719155 0.006082 0.00014162 -6.99277e-05 -1.00959e-11 5.19971e-11 2.34077e-12 5e-05 1.46608e-10 
52 1 0.0523092 0.0167291 0.00764294 0.00546047 -8.35331e-05 -0.000271939 -1.75347e-10 2.03474e-10 6.9048e-10 5e-05 1.46608e-10 
53 1 0.0644876 0.0174514 0.0071654 0.00572798 0.00047097 -0.000198868 -1.72617e-10 4.44196e-11 1.56366e-11 5e-05 1.46608e-10 
54 1 0.0582758 0.0163394 0.0081148 0.00610881 0.000236626 -0.000140914 -3.1671e-10 5.57045e-10 -5.61531e-10 5e-05 1.46608e-10 
55 1 0.0520952 0.0158655 0.00823461 0.00569266 7.09491e-05 0.000299989 1.92746e-11 3.07212e-10 4.59633e-10 5e-05 1.46608e-10 
56 1 0.0584549 0.016963 0.00748976 0.00559792 0.000187668 -9.64363e-05 1.25641e-10 -1.51345e-10 2.40261e-10 5e-05 1.46608e-10 
57 1 0.0643864 0.0170566 0.00745487 0.00560797 0.000494053 -0.00022137 -2.71066e-10 -1.432e-10 -2.06242e-12 5e-05 1.46608e-10 
59 1 0.0585133 0.0168494 0.00760508 0.00557619 0.000182967 -9.45061e-05 2.73555e-10 -1.89393e-10 1.88056e-10 5e-05 1.46608e-10 
60 1 0.058532 0.0169188 0.00753553 0.00559135 0.000178056 -8.78786e-05 1.43808e-10 -1.48468e-10 1.0967e-10 5e-05 1.46608e-10 
61 1 0.0582231 0.0164542 0.00799838 0.00632532 8.31682e-05 1.98387e-05 -2.71199e-10 1.98927e-10 -1.91735e-10 5e-05 1.46608e-10 
62 1 0.0586201 0.0172748 0.00719682 0.00562661 0.000201966 -6.7519e-05 8.13961e-11 7.88753e-11 6.57345e-11 5e-05 1.46608e-10 
63 1 0.0585712 0.0174454 0.00719566 0.00568885 0.00018724 -7.06795e-05 1.26809e-10 1.00102e-11 -9.92646e-12 5e-05 1.46608e-10 
64 1 0.0645014 0.0175312 0.00710673 0.00578811 0.000466796 -0.000189988 -1.19894e-10 6.55938e-11 1.5187e-12 5e-05 1.46608e-10 
65 1 0.0524235 0.0168468 0.00758735 0.00550828 -0.000120668 -0.000258573 -2.28759e-10 4.79151e-10 1.88199e-10 5e-05 1.46608e-10 
66 1 0.0523649 0.016577 0.00770392 0.00536808 -8.27624e-05 -0.000239816 5.52337e-10 8.9984e-11 -6.69296e-10 5e-05 1.46608e-10 
67 1 0.0587342 0.0173319 0.00720741 0.00572759 0.000163189 -8.55716e-05 -1.58639e-10 -1.37114e-10 6.47772e-11 5e-05 1.46608e-10 
68 1 0.058687 0.017574 0.00719018 0.00601497 2.20875e-05 -6.51727e-05 1.12032e-11 3.04141e-11 -2.0545e-11 5e-05 1.46608e-10 
69 1 0.0583808 0.0166856 0.00776788 0.00564511 0.000179029 -9.98579e-05 -4.1607e-10 3.37196e-12 3.84758e-11 5e-05 1.46608e-10 
70 1 0.0645597 0.0178063 0.0070574 0.00613923 0.000396003 -0.000205229 1.82791e-10 -2.27053e-10 3.71746e-13 5e-05 1.46608e-10 
71 1 0.0520768 0.0158106 0.00831616 0.00573995 0.000109689 0.000293305 9.14899e-10 -4.27382e-10 5.66885e-10 5e-05 1.46608e-10 
72 1 0.058667 0.0174761 0.00719233 0.00584351 5.31868e-05 -6.49993e-05 -9.99142e-11 5.04167e-11 -2.60561e-11 5e-05 1.46608e-10 
73 1 0.0583409 0.0168696 0.00758198 0.00550274 0.000196959 -0.000108028 -8.05315e-11 -2.27377e-11 1.0718e-11 5e-05 1.46608e-10 
74 1 0.0585313 0.01726 0.00724026 0.0056309 0.000194193 -7.74141e-05 4.5111e-11 -3.69217e-11 2.60288e-11 5e-05 1.46608e-10 
76 1 0.0526523 0.0178342 0.00716001 0.00602332 -0.000177903 -0.000246916 -2.01483e-10 2.82009e-10 -7.05629e-11 5e-05 1.46608e-10 
77 1 0.0587853 0.0184219 0.00717238 0.00593802 5.82607e-05 -6.6073e-05 1.96829e-11 5.98896e-11 -1.42246e-12 5e-05 1.46608e-10 
78 1 0.0521526 0.0160375 0.00799001 0.00554814 -0.000478499 -0.00040855 -2.95964e-10 -7.78232e-10 7.26133e-10 5e-05 1.46608e-10 
79 1 0.0523486 0.0169096 0.00756495 0.00548264 -0.000115185 -0.000245409 -7.08128e-11 -3.84789e-10 1.20727e-10 5e-05 1.46608e-10 
80 1 0.0585971 0.0179934 0.00718289 0.00600775 4.8622e-05 -6.67278e-05 2.89766e-11 7.77885e-11 -9.36533e-12 5e-05 1.46608e-10 
81 1 0.0522897 0.0166391 0.00768184 0.00542893 -5.38942e-05 -0.000244728 4.08318e-10 3.60267e-10 1.41277e-09 5e-05 1.46608e-10 
82 1 0.0524309 0.0172688 0.00740952 0.00579692 -0.000166362 -0.000240207 -1.50193e-11 1.32193e-11 6.7761e-12 5e-05 1.46608e-10 
83 1 0.0524209 0.0164247 0.00776492 0.00547497 -0.000168832 -0.000182474 2.28425e-10 4.8183e-10 -2.81536e-12 5e-05 1.46608e-10 
84 1 0.0646012 0.0180017 0.00706606 0.00622467 0.000378161 -0.000208552 -6.66609e-12 -6.68735e-11 1.26272e-11 5e-05 1.46608e-10 
85 1 0.0522488 0.0160647 0.00797969 0.00587985 6.82374e-05 0.000406863 1.64887e-10 9.34051e-11 -1.52132e-10 5e-05 1.46608e-10 
86 1 0.0585914 0.0175433 0.00719184 0.00593203 0.000128888 -6.6546e-05 1.76961e-10 1.97316e-11 4.66049e-12 5e-05 1.46608e-10 
87 1 0.0584949 0.01678 0.00767467 0.00554443 0.000198783 -0.000111412 -2.02643e-11 -2.52281e-10 2.07798e-10 5e-05 1.46608e-10 
88 1 0.058662 0.0182863 0.00717641 0.00595823 1.95278e-05 -6.54001e-05 -1.55894e-11 1.08172e-10 -7.44003e-12 5e-05 1.46608e-10 
89 1 0.0586188 0.0180911 0.00718073 0.00599272 3.68766e-05 -6.63669e-05 1.49889e-11 1.91809e-11 -4.16333e-12 5e-05 1.46608e-10 
90 1 0.0586961 0.0171658 0.00728944 0.00560465 0.000180844 -9.03322e-05 -4.13272e-11 -6.87286e-11 1.22987e-10 5e-05 1.46608e-10 
91 1 0.0523683 0.0169996 0.00752606 0.00556574 -0.000112292 -0.000249913 2.85119e-10 -5.4875e-10 1.99729e-10 5e-05 1.46608e-10 
92 1 0.0587305 0.0177697 0.00718919 0.00605838 9.22002e-05 -6.241e-05 2.96698e-11 1.39126e-12 -4.99611e-11 5e-05 1.46608e-10 
93 1 0.0587207 0.018129 0.00717887 0.0059841 6.09571e-05 -6.67059e-05 4.53512e-11 1.12485e-11 -1.01968e-11 5e-05 1.46608e-10 
94 1 0.0587953 0.0180624 0.00717936 0.00600045 8.84909e-05 -6.73444e-05 5.88382e-11 3.89013e-11 -8.11371e-12 5e-05 1.46608e-10 
95 1 0.0585755 0.0178957 0.00718506 0.00602369 5.83493e-05 -6.80185e-05 5.25452e-11 1.67727e-10 -1.87199e-11 5e-05 1.46608e-10 
96 1 0.058752 0.0178672 0.00718369 0.00604103 9.08415e-05 -6.66322e-05 5.83267e-11 2.5649e-11 1.04872e-11 5e-05 1.46608e-10 
97 1 0.0522507 0.01646 0.00776184 0.00550766 -0.000141661 -0.000504108 -9.37461e-11 3.74704e-10 1.73201e-09 5e-05 1.46608e-10 
98 1 0.0586837 0.0183839 0.00717424 0.00594738 1.25144e-05 -6.53514e-05 -2.29208e-11 -1.47258e-11 1.29592e-12 5e-05 1.46608e-10 
99 1 0.0524041 0.0167592 0.00763152 0.00546815 -0.000191578 -0.000464004 -2.4686e-10 6.8633e-10 9.47865e-10 5e-05 1.46608e-10 
100 1 0.0586586 0.0170271 0.00742851 0.00560818 0.000179977 -9.08078e-05 8.01985e-11 -9.94596e-11 9.24287e-11 5e-05 1.46608e-10 
101 1 0.0523457 0.0164869 0.00774294 0.00546905 -0.00027673 -0.000614136 2.72778e-10 5.38982e-10 1.15769e-09 5e-05 1.46608e-10 
102 1 0.0643568 0.0187248 0.00531097 4.20546e-15 1.05507e-14 8.29568e-14 2.44088e-21 -3.8164e-22 -8.4786e-23 5e-05 1.46608e-10 
103 1 0.24257 0.0191927 0.00520306 -4.75869e-22 -1.27651e-22 -5.81428e-22 0 0 0 5e-05 1.46608e-10 
104 1 0.0526647 0.0175031 0.00729855 0.00589241 -0.000188748 -0.000235412 1.70148e-10 1.82629e-10 -1.01967e-10 5e-05 1.46608e-10 
105 1 0.0522111 0.0162746 0.00782517 0.00559735 8.91487e-05 0.000432171 -5.94043e-11 6.16922e-11 -1.0507e-10 5e-05 1.46608e-10 
106 1 0.0527425 0.0174437 0.00731935 0.00587867 -0.000202124 -0.000229571 4.58159e-11 1.53848e-10 -5.35841e-11 5e-05 1.46608e-10 
107 1 0.0521713 0.0161034 0.00791718 0.00558158 -0.000484357 -0.00036439 -7.42056e-11 4.7174e-10 1.43754e-09 5e-05 1.46608e-10 
108 1 0.0584174 0.0168243 0.00762885 0.00557203 0.000191682 -0.00011218 -4.21342e-10 -7.04045e-11 4.86478e-11 5e-05 1.46608e-10 
109 1 0.0584897 0.0175049 0.00719371 0.00571076 0.000213988 -6.39257e-05 -2.25727e-10 1.49612e-10 1.80753e-11 5e-05 1.46608e-10 
110 1 0.0588398 0.0178193 0.00718367 0.00605054 0.000111383 -6.75032e-05 1.95095e-11 -1.71949e-11 4.81717e-11 5e-05 1.46608e-10 
111 1 0.0587271 0.0185797 0.00716991 0.00593291 6.22326e-05 -6.62104e-05 -2.59207e-11 -8.95821e-11 3.39872e-12 5e-05 1.46608e-10 
112 1 0.0522702 0.016549 0.00772071 0.00546757 1.78549e-05 -0.00015291 -1.28016e-11 -5.24444e-10 1.01547e-10 5e-05 1.46608e-10 
113 1 0.0529953 0.0176543 0.00721728 0.00631347 0.00148948 -0.000963982 -6.66832e-11 9.49518e-11 -3.41318e-11 5e-05 1.46608e-10 
114 1 0.0526018 0.0172339 0.00741508 0.00577728 -0.000204956 -0.000222086 -1.89644e-10 7.40052e-11 -2.60718e-11 5e-05 1.46608e-10 
115 1 0.0585514 0.0173474 0.00719614 0.00564904 0.000201699 -6.47494e-05 1.15154e-10 2.02639e-11 1.48243e-11 5e-05 1.46608e-10 
116 1 0.0583988 0.0167586 0.00770194 0.00558398 0.000183139 -0.000117768 -3.63787e-10 -4.7377e-11 1.5414e-10 5e-05 1.46608e-10 
117 1 0.0582533 0.0162705 0.00818382 0.00581171 0.000168006 -7.4399e-05 1.54936e-12 4.8349e-11 -1.48429e-11 5e-05 1.46608e-10 
118 1 0.052114 0.0159179 0.00815087 0.00575627 6.61796e-05 0.000392574 -6.72857e-11 -1.51374e-10 2.51498e-10 5e-05 1.46608e-10 
119 1 0.0585502 0.0169882 0.0074659 0.00560571 0.000179278 -8.75023e-05 1.06936e-10 -1.56944e-10 1.41846e-10 5e-05 1.46608e-10 
120 1 0.0581141 0.0161104 0.00834349 0.00580041 9.53392e-05 -8.85086e-06 -8.51224e-11 1.33644e-11 9.65712e-11 5e-05 1.46608e-10 
121 1 0.0580709 0.0159721 0.00848138 0.00583933 0.000104584 -1.1215e-05 -6.97275e-11 -2.52233e-10 2.57932e-10 5e-05 1.46608e-10 
122 1 0.0588614 0.0179169 0.00718151 0.00602745 0.00011847 -6.89176e-05 5.35373e-11 -3.26545e-11 6.25701e-12 5e-05 1.46608e-10 
123 1 0.0522859 0.0162153 0.00785474 0.00566536 0.000160895 0.00040088 -2.21917e-10 1.13671e-10 -1.63416e-10 5e-05 1.46608e-10 
124 1 0.0586774 0.0179338 0.00718319 0.00602638 7.20356e-05 -6.68663e-05 3.60938e-11 3.1117e-11 7.82716e-12 5e-05 1.46608e-10 
125 1 0.0582313 0.0162013 0.00825323 0.00583859 0.000147923 -5.48903e-05 -2.25945e-11 6.75465e-11 -7.19138e-11 5e-05 1.46608e-10 
126 1 0.0584526 0.0173078 0.007198 0.00570888 0.000171405 -6.38333e-05 -1.74969e-11 -1.92467e-10 -4.30469e-12 5e-05 1.46608e-10 
127 1 0.052231 0.0163662 0.00779035 0.00562636 0.000103623 0.000435965 -2.12122e-11 1.53823e-10 4.57829e-11 5e-05 1.46608e-10 
128 1 0.0585538 0.0177979 0.00718723 0.00604217 7.19714e-05 -5.82941e-05 4.40467e-11 1.46035e-10 -3.80056e-10 5e-05 1.46608e-10 
129 1 0.0586404 0.0181887 0.00717857 0.00597255 2.87285e-05 -6.52229e-05 3.54052e-11 5.49101e-11 -4.60079e-12 5e-05 1.46608e-10 
130 1 0.0525265 0.0172958 0.00739307 0.00580005 -0.000199754 -0.000225654 -5.73422e-11 -9.58835e-11 1.45966e-11 5e-05 1.46608e-10 
131 1 0.0523845 0.0166677 0.00766683 0.00542015 -0.000116793 -0.000311822 1.96552e-10 2.61592e-10 -8.83584e-11 5e-05 1.46608e-10 
132 1 0.0586558 0.0178362 0.00718535 0.00604347 7.80994e-05 -6.62463e-05 2.38758e-11 4.48051e-11 -3.80134e-11 5e-05 1.46608e-10 
133 1 0.0584216 0.0165024 0.0079531 0.00640158 0.000145546 -4.20305e-05 -8.00801e-10 -1.29701e-10 1.07135e-10 5e-05 1.46608e-10 
134 1 0.058569 0.0170576 0.00739636 0.00560648 0.000179239 -8.96239e-05 4.00994e-11 -8.85838e-11 1.33821e-10 5e-05 1.46608e-10 
135 1 0.0582097 0.0161323 0.00832235 0.00582888 0.000125963 -3.37934e-05 -1.67368e-10 1.04538e-10 -9.00415e-11 5e-05 1.46608e-10 
136 1 0.052229 0.0159989 0.00805241 0.00582753 5.39283e-05 0.000409344 1.95937e-10 6.43465e-11 -1.25595e-10 5e-05 1.46608e-10 
137 1 0.0587487 0.0186773 0.00716774 0.00592049 6.65315e-05 -6.61995e-05 -1.79306e-11 -1.07477e-10 2.35056e-12 5e-05 1.46608e-10 
138 1 0.0583627 0.0166162 0.00783753 0.00567098 0.000171758 -8.21967e-05 -6.45985e-10 -5.06409e-11 3.48195e-11 5e-05 1.46608e-10 
140 1 0.0588906 0.0180925 0.00717772 0.00599509 0.00010141 -6.77099e-05 6.54549e-11 5.82328e-11 -2.66545e-12 5e-05 1.46608e-10 
141 1 0.0522686 0.016134 0.00791044 0.00589303 0.000103251 0.000414661 -3.75326e-11 1.46192e-10 -1.70336e-10 5e-05 1.46608e-10 
142 1 0.0526228 0.0173236 0.00737624 0.00579604 -0.000205675 -0.00022377 1.06061e-10 1.90854e-10 -7.81881e-11 5e-05 1.46608e-10 
143 1 0.0521911 0.0161829 0.00785982 0.00562095 6.19503e-05 0.000434578 3.68644e-10 -1.93296e-11 2.46143e-10 5e-05 1.46608e-10 
144 1 0.0525809 0.0171442 0.00745393 0.00574741 -0.000194874 -0.000226556 3.99948e-14 8.62955e-12 -3.0759e-11 5e-05 1.46608e-10 
146 1 0.0524402 0.0165148 0.00772602 0.00548204 -6.48376e-05 -0.00024169 -4.7182e-10 -5.89402e-10 -1.63319e-10 5e-05 1.46608e-10 
147 1 0.0522095 0.0159373 0.00812867 0.00577018 4.80673e-05 0.000410099 -1.301e-10 2.56939e-11 1.17694e-11 5e-05 1.46608e-10 
148 1 0.0524938 0.017538 0.007293 0.00589489 -0.000166895 -0.000244889 -1.88888e-10 -2.81607e-10 1.09504e-10 5e-05 1.46608e-10 
149 1 0.0588169 0.01816 0.0071772 0.00597696 8.667e-05 -6.71304e-05 5.67127e-11 7.86595e-11 5.90726e-12 5e-05 1.46608e-10 
150 1 0.0524789 0.0166949 0.00764822 0.00545358 -0.000138295 -0.000227069 -5.58047e-10 5.28204e-10 3.15883e-10 5e-05 1.46608e-10 
151 1 0.0528215 0.0173858 0.00733945 0.00588821 -0.000194936 -0.000232897 -1.24058e-10 -1.92784e-11 1.16859e-11 5e-05 1.46608e-10 
153 1 0.0523258 0.0163971 0.00778209 0.00564013 -0.000114458 -0.000157234 -6.16239e-12 4.19914e-10 1.23224e-09 5e-05 1.46608e-10 
154 1 0.0525894 0.017565 0.00727654 0.00591158 -0.000177997 -0.000241738 1.36886e-10 1.64967e-10 -6.21828e-11 5e-05 1.46608e-10 
155 1 0.0526733 0.0179245 0.00712252 0.00606698 -0.00018721 -0.000244492 -3.68598e-11 2.16968e-10 -1.23923e-10 5e-05 1.46608e-10 
156 1 0.0525684 0.0174753 0.00731538 0.00588248 -0.000179336 -0.00023878 7.57223e-11 2.331e-10 -9.73063e-11 5e-05 1.46608e-10 
157 1 0.0219312 0.0187687 0.00551176 -3.82839e-14 8.16941e-14 2.95887e-13 2.95562e-22 1.54579e-22 -1.613e-23 5e-05 1.46608e-10 
158 1 0.0526857 0.0175928 0.00725971 0.00591474 -0.000198107 -0.000232504 -3.40533e-11 1.71368e-10 -4.89359e-11 5e-05 1.46608e-10 
159 1 0.058709 0.0176721 0.00718801 0.0060702 9.32879e-05 -6.40871e-05 2.39043e-11 -2.55213e-11 -1.652e-12 5e-05 1.46608e-10 
160 1 0.0525777 0.0178969 0.00713763 0.00607287 -0.000117859 -0.000273854 -2.52874e-10 2.14468e-10 -7.38664e-11 5e-05 1.46608e-10 
162 1 0.0526103 0.0176548 0.00723769 0.0059421 -0.000172124 -0.000246353 1.12335e-10 1.38321e-10 -9.16828e-11 5e-05 1.46608e-10 
164 1 0.0528332 0.0182215 0.00698753 0.00615692 -0.000253544 -0.000218426 3.32232e-10 -9.07368e-11 -8.56341e-11 5e-05 1.46608e-10 
165 1 0.0528971 0.0176729 0.00721473 0.00596423 -0.000265235 -0.000207214 -1.69885e-10 2.41793e-10 -9.20305e-11 5e-05 1.46608e-10 
166 1 0.0583761 0.0163648 0.00809094 0.00644603 0.000180397 -7.59256e-05 3.49448e-10 -3.03903e-11 5.60309e-12 5e-05 1.46608e-10 
167 1 0.0524596 0.0166049 0.00768712 0.00546584 -9.28504e-05 -0.000244671 -8.1232e-10 -5.29292e-10 2.24238e-10 5e-05 1.46608e-10 
168 1 0.0527646 0.0175348 0.00727985 0.00592322 -0.000199758 -0.000233113 -1.77289e-11 1.59627e-10 -8.72035e-11 5e-05 1.46608e-10 
169 1 0.0530179 0.017761 0.00717125 0.00605972 0.00288507 -0.00153698 -4.53523e-10 2.30773e-10 -7.39338e-11 5e-05 1.46608e-10 
170 1 0.0528076 0.0177156 0.00720158 0.0059734 -0.000236965 -0.000219685 -2.49945e-10 2.13692e-10 -7.01604e-11 5e-05 1.46608e-10 
171 1 0.0583992 0.0164335 0.00802209 0.00658626 0.00012036 -1.40683e-05 1.37896e-10 -2.03279e-10 1.64258e-10 5e-05 1.46608e-10 
172 1 0.0528761 0.0175832 0.00725357 0.00589134 -0.000239225 -0.000214371 -2.7801e-10 4.07447e-10 -1.53934e-10 5e-05 1.46608e-10 
173 1 0.0588033 0.0172606 0.00719565 0.00564243 6.96318e-05 1.40518e-05 -2.67909e-10 -1.74672e-10 7.63888e-11 5e-05 1.46608e-10 
174 1 0.0527276 0.0177723 0.00718202 0.00598949 -0.000216651 -0.000229824 -3.67304e-10 2.19847e-10 -8.28911e-11 5e-05 1.46608e-10 
175 1 0.0463547 0.0169494 0.00758711 0.0057294 8.90289e-05 -0.000632123 -6.49275e-12 -4.93718e-12 -1.47967e-11 5e-05 1.46608e-10 
176 1 0.0525474 0.0173856 0.00735422 0.00584011 -0.000173512 -0.000239524 1.93734e-10 6.55191e-11 -4.22734e-11 5e-05 1.46608e-10 
177 1 0.0526196 0.0180764 0.00705994 0.00616047 -0.000104432 -0.000284164 3.97997e-11 3.80989e-10 -1.73531e-10 5e-05 1.46608e-10 
178 1 0.0529743 0.0175642 0.00725629 0.00622663 0.00146894 -0.000950768 -1.9501e-10 2.24779e-10 -8.26521e-11 5e-05 1.46608e-10 
179 1 0.052939 0.0178524 0.00713704 0.00610524 -0.000273351 -0.000211683 -4.47217e-10 3.06308e-10 -1.1118e-10 5e-05 1.46608e-10 
181 1 0.0525357 0.0177175 0.00721531 0.00597536 -0.000163017 -0.000252587 3.05172e-10 3.83124e-11 -2.10649e-11 5e-05 1.46608e-10 
182 1 0.0583444 0.0165466 0.00790731 0.00645287 0.000188735 -8.57809e-05 -3.29747e-10 2.66088e-10 -3.02953e-10 5e-05 1.46608e-10 
183 1 0.0527867 0.0176258 0.00724042 0.00590542 -0.00023407 -0.00021688 -5.66256e-10 1.36358e-10 -4.15048e-11 5e-05 1.46608e-10 
184 1 0.0586604 0.0176933 0.00727279 0.00606558 0.000100152 -5.78124e-05 1.28401e-10 7.73755e-11 1.72684e-11 5e-05 1.46608e-10 
185 1 0.0524729 0.0174483 0.00733184 0.00586736 -0.000177415 -0.000240623 4.08522e-10 1.94615e-11 -3.19997e-11 5e-05 1.46608e-10 
186 1 0.0525148 0.0176278 0.00725416 0.00595461 -0.000160628 -0.000250927 -2.62757e-10 8.60644e-11 -5.09902e-12 5e-05 1.46608e-10 
187 1 0.0586398 0.0169577 0.00749806 0.00560687 0.000174821 -8.61785e-05 1.09119e-10 -1.1007e-10 1.06275e-10 5e-05 1.46608e-10 
188 1 0.0587423 0.0182266 0.0071767 0.00595654 6.14228e-05 -6.6115e-05 7.35871e-11 -1.58726e-11 7.49972e-12 5e-05 1.46608e-10 
189 1 0.0586757 0.0170967 0.00735873 0.0056048 0.000180514 -9.08045e-05 5.00242e-11 -9.56254e-11 9.79159e-11 5e-05 1.46608e-10 
190 1 0.046457 0.0169851 0.00756797 0.0057345 7.5108e-05 -0.000628842 1.80888e-12 3.0617e-11 -2.19066e-12 5e-05 1.46608e-10 
191 1 0.0587703 0.0187749 0.00716558 0.00590838 7.07642e-05 -6.60911e-05 -3.1519e-11 -1.29771e-10 2.5739e-12 5e-05 1.46608e-10 
192 1 0.0526987 0.0172622 0.00739798 0.0057789 -0.00020023 -0.000224873 -1.97232e-10 5.38697e-11 -1.62465e-11 5e-05 1.46608e-10 
193 1 0.0584758 0.0167107 0.00774417 0.00555211 0.000212889 -0.000128375 8.49061e-11 -1.26292e-10 1.09191e-10 5e-05 1.46608e-10 
194 1 0.0525197 0.0168746 0.00757052 0.00564188 -0.000179174 -0.000229227 3.2072e-10 -5.44521e-10 -1.03454e-10 5e-05 1.46608e-10 
195 1 0.0529181 0.0177626 0.00717589 0.00605038 -0.000286569 -0.000203273 -4.20117e-10 3.90371e-10 -1.35654e-10 5e-05 1.46608e-10 
196 1 0.0520134 0.0156507 0.00856189 0.00606153 0.000146662 0.000286222 -5.9399e-11 -2.01815e-10 2.78476e-10 5e-05 1.46608e-10 
197 1 0.0464196 0.0172332 0.00751475 0.00576176 7.67145e-05 -0.000631924 9.76979e-12 1.62722e-11 -9.29252e-12 5e-05 1.46608e-10 
198 1 0.052389 0.0170894 0.00748721 0.00572472 -0.000142722 -0.000245864 8.00314e-11 -2.65133e-10 1.125e-10 5e-05 1.46608e-10 
199 1 0.0526313 0.0177445 0.00719885 0.0059713 -0.000173398 -0.000245561 -1.07019e-10 3.41729e-10 -1.41466e-10 5e-05 1.46608e-10 
200 1 0.0524848 0.0171163 0.00747076 0.00570129 -0.000182662 -0.000228943 8.11876e-11 1.13147e-10 -5.67429e-11 5e-05 1.46608e-10 
201 1 0.0529331 0.018254 0.00696851 0.00594792 -0.000425318 -0.000150273 -5.64071e-10 -3.38789e-10 7.20601e-10 5e-05 1.46608e-10 
202 1 0.0527202 0.0173525 0.00735888 0.0058458 -0.00022264 -0.000218663 -3.58791e-11 1.09731e-10 -4.8241e-11 5e-05 1.46608e-10 
203 1 0.05885 0.0174598 0.00719065 0.00593432 2.61304e-06 -6.46493e-05 -1.50976e-10 -1.49086e-10 -4.10729e-12 5e-05 1.46608e-10 
204 1 0.052464 0.0170266 0.00750961 0.00563114 -0.000167748 -0.000226547 6.24654e-10 3.71433e-10 -1.7248e-10 5e-05 1.46608e-10 
205 1 0.0527908 0.0180417 0.00706539 0.00613887 -0.000272594 -0.000213548 -3.20042e-10 2.48189e-10 -7.90548e-11 5e-05 1.46608e-10 
206 1 0.0527486 0.017862 0.00714318 0.00605874 -0.000206972 -0.000236666 -3.79712e-10 1.79164e-10 -6.7856e-11 5e-05 1.46608e-10 
207 1 0.0523056 0.0163078 0.0078225 0.00579996 -8.82215e-05 -0.000271445 3.53196e-11 5.97101e-11 -3.7253e-10 5e-05 1.46608e-10 
208 1 0.0527067 0.0176825 0.00722087 0.00593449 -0.000204374 -0.000232294 -3.19341e-10 2.63057e-10 -8.51721e-11 5e-05 1.46608e-10 
209 1 0.0525016 0.0167843 0.00760945 0.00553036 -0.00017161 -0.000240167 -9.49474e-10 8.38683e-11 3.607e-10 5e-05 1.46608e-10 
210 1 0.0584933 0.0173531 0.00727735 0.0056701 0.000194525 -5.41486e-05 1.19305e-10 -6.40144e-11 -8.32519e-11 5e-05 1.46608e-10 
211 1 0.0587736 0.0179648 0.00718152 0.00601976 9.00942e-05 -6.80039e-05 4.98045e-11 5.21007e-12 -7.21162e-12 5e-05 1.46608e-10 
212 1 0.0528286 0.0178053 0.00716273 0.00605116 -0.000250098 -0.000217911 -4.56286e-10 2.09419e-10 -7.06729e-11 5e-05 1.46608e-10 
213 1 0.0586217 0.0168883 0.00756769 0.00559588 0.000170021 -8.17339e-05 6.54097e-11 -1.92734e-11 5.27975e-11 5e-05 1.46608e-10 
214 1 0.058699 0.0180314 0.00718103 0.00600772 6.53971e-05 -6.75303e-05 2.81905e-11 1.86403e-11 6.07392e-12 5e-05 1.46608e-10 
215 1 0.0464292 0.0168831 0.00759445 0.00571552 7.40958e-05 -0.000626667 6.91165e-12 -5.88418e-12 -4.74758e-12 5e-05 1.46608e-10 
216 1 0.0525986 0.0179867 0.00709879 0.00611863 -0.000108637 -0.000282666 -4.41926e-10 2.87712e-10 -1.14032e-10 5e-05 1.46608e-10 
217 1 0.05844 0.0165718 0.00788351 0.00570272 0.000226074 -0.000134796 -3.90351e-11 -1.27126e-10 1.4149e-10 5e-05 1.46608e-10 
218 1 0.0527153 0.0181034 0.00704349 0.00617531 -0.000217302 -0.000239025 -2.52712e-10 1.58124e-10 -6.35387e-11 5e-05 1.46608e-10 
219 1 0.0587054 0.0184821 0.00717207 0.00594187 5.83957e-05 -6.61022e-05 -3.12219e-11 -6.61947e-11 3.00597e-12 5e-05 1.46608e-10 
220 1 0.0525567 0.0178072 0.00717647 0.00600517 -0.000136338 -0.00026375 -2.22436e-10 -9.11931e-11 1.25219e-11 5e-05 1.46608e-10 
221 1 0.0463362 0.0164129 0.00771279 0.00560587 0.000152121 -0.000633147 3.39291e-11 2.59248e-11 -4.48121e-12 5e-05 1.46608e-10 
222 1 0.0584578 0.0166412 0.00781383 0.00557848 0.000228609 -0.000140153 4.73068e-10 -1.90966e-10 1.6873e-10 5e-05 1.46608e-10 
223 1 0.0526438 0.0174133 0.0073374 0.00586104 -0.000203118 -0.000228498 9.06559e-11 1.4114e-10 -6.43114e-11 5e-05 1.46608e-10 
224 1 0.0524519 0.0173586 0.00737068 0.00583898 -0.000171928 -0.000240858 -1.01965e-10 5.15348e-11 8.55177e-12 5e-05 1.46608e-10 
225 1 0.0587754 0.0175264 0.00719015 0.00601723 0.000105989 -6.87156e-05 -1.31627e-11 -9.62299e-11 2.42691e-11 5e-05 1.46608e-10 
226 1 0.0528459 0.0174797 0.00729868 0.0059348 -0.000198396 -0.000233992 -1.41496e-10 3.00241e-11 2.48481e-12 5e-05 1.46608e-10 
227 1 0.046466 0.0165608 0.00766483 0.00556048 9.84974e-05 -0.000615486 -5.99779e-12 -5.7399e-12 5.03638e-12 5e-05 1.46608e-10 
228 1 0.0463763 0.017044 0.00756299 0.00573974 8.42491e-05 -0.000631155 2.65578e-11 7.50968e-12 3.74954e-12 5e-05 1.46608e-10 
229 1 0.0524912 0.0173584 0.00746262 0.00580873 -0.000177852 -0.000234463 7.12482e-11 -7.67258e-11 5.0286e-11 5e-05 1.46608e-10 
230 1 0.0528724 0.0184063 0.00691356 0.00611875 -4.58006e-05 0.000595406 5.7587e-10 -4.99483e-10 1.11769e-10 5e-05 1.46608e-10 
231 1 0.0463343 0.0168545 0.00761117 0.00559244 0.000118523 -0.000624083 -2.84576e-11 7.62837e-12 1.66563e-11 5e-05 1.46608e-10 
232 1 0.0524009 0.0163348 0.0078038 0.00560416 -0.00016727 -0.000229058 1.14733e-10 1.52775e-11 2.18573e-10 5e-05 1.46608e-10 
233 1 0.0525395 0.0169646 0.00753164 0.00566042 -0.000178181 -0.00022303 1.71594e-10 -2.41456e-10 1.6175e-10 5e-05 1.46608e-10 
234 1 0.058764 0.0183242 0.00717454 0.0059371 6.18306e-05 -6.64875e-05 7.54299e-11 4.81139e-11 -1.10025e-12 5e-05 1.46608e-10 
235 1 0.0529195 0.0186014 0.00692352 0.00554652 -6.3625e-05 0.000511864 9.78815e-10 3.0466e-10 4.32232e-11 5e-05 1.46608e-10 
236 1 0.0528931 0.0185047 0.00691829 0.00603472 -5.70852e-05 0.000541286 -5.26552e-10 7.0427e-10 -1.6635e-10 5e-05 1.46608e-10 
237 1 0.052971 0.0184421 0.0069237 0.00599957 -0.000157243 0.000575627 1.63638e-10 8.94749e-11 1.07992e-10 5e-05 1.46608e-10 
239 1 0.0461615 0.0160971 0.00800449 0.0056787 0.000641423 -1.80406e-05 8.46781e-11 -3.29747e-11 1.26694e-11 5e-05 1.46608e-10 
240 1 0.0462189 0.0163055 0.0077965 0.00579256 0.000633042 5.27659e-06 1.24675e-10 2.30038e-12 5.8605e-11 5e-05 1.46608e-10 
241 1 0.046142 0.0160277 0.00807375 0.0059132 0.000623601 3.15809e-05 -5.2932e-12 5.81724e-11 -5.07099e-11 5e-05 1.46608e-10 
242 1 0.0526564 0.0170824 0.00747586 0.00576186 -0.000168054 -0.000237271 -2.24942e-11 -7.31688e-11 3.38363e-11 5e-05 1.46608e-10 
243 1 0.0524436 0.0169367 0.00754848 0.00559237 -0.000149866 -0.000241271 -1.1261e-10 5.24228e-10 -3.69966e-10 5e-05 1.46608e-10 
244 1 0.0461807 0.0161666 0.00793516 0.00572366 0.000645166 -1.351e-05 -1.07929e-10 -5.1001e-11 2.10472e-11 5e-05 1.46608e-10 
246 1 0.0462952 0.0166643 0.00765918 0.00558066 0.000123571 -0.000624109 1.01308e-11 9.59354e-12 -3.15481e-11 5e-05 1.46608e-10 