ITEM: TIMESTEP
15000000
ITEM: NUMBER OF ATOMS
287
ITEM: BOX BOUNDS ff ff ff
-0.02 0.43
-0.02 0.06
-0.02 0.07
ITEM: ATOMS id type x y z vx vy vz fx fy fz radius mass 
1 1 0.100323 0.0164524 0.00779022 0.00575251 -1.12634e-05 -7.46388e-05 -2.68162e-10 -2.71731e-10 2.0134e-10 5e-05 1.46608e-10 
2 1 0.100742 0.0174926 0.00716131 0.0056103 7.60232e-05 -1.3156e-05 5.54792e-11 -5.00907e-11 1.04856e-11 5e-05 1.46608e-10 
3 1 0.0940695 0.0158305 0.00823768 0.00621764 -0.000205546 -0.000125831 -1.74621e-11 9.72121e-11 9.33495e-11 5e-05 1.46608e-10 
4 1 0.100631 0.0178113 0.00708383 0.00562114 6.53129e-05 -1.07792e-05 -9.53264e-11 -1.0106e-10 2.44072e-11 5e-05 1.46608e-10 
5 1 0.100207 0.0163527 0.00787452 0.00574866 -5.00879e-05 -0.00016674 4.41844e-11 -6.17977e-11 1.60071e-10 5e-05 1.46608e-10 
6 1 0.106316 0.0167751 0.00754084 0.00546757 -0.000443163 1.25521e-05 1.48639e-12 -9.73012e-14 -1.96495e-13 5e-05 1.46608e-10 
7 1 0.100379 0.0170279 0.00730501 0.00563476 6.67855e-05 -3.37533e-05 -1.57898e-10 -7.08508e-11 3.88477e-11 5e-05 1.46608e-10 
8 1 0.1001 0.0159753 0.0081843 0.0061338 -8.6492e-05 -3.13692e-05 8.3486e-12 4.07925e-11 -3.07782e-11 5e-05 1.46608e-10 
9 1 0.10657 0.0179414 0.00703077 0.00556856 -0.000150167 0.000595353 -5.4137e-13 2.52445e-12 1.10094e-12 5e-05 1.46608e-10 
10 1 0.100324 0.0168034 0.0074961 0.00557966 4.77865e-05 -1.95141e-05 -3.85526e-10 -5.29464e-11 6.4762e-11 5e-05 1.46608e-10 
11 1 0.100781 0.0176832 0.00711508 0.00560248 7.40026e-05 -1.25652e-05 -1.5122e-11 -9.80259e-12 3.12233e-12 5e-05 1.46608e-10 
12 1 0.0942768 0.0166213 0.00766356 0.00562035 -0.000161795 -0.000126201 8.5479e-11 -3.17766e-10 2.43475e-10 5e-05 1.46608e-10 
13 1 0.100186 0.0162769 0.0079363 0.00609997 -6.01104e-05 -5.48862e-05 -3.8813e-11 -3.35637e-11 1.25629e-11 5e-05 1.46608e-10 
14 1 0.0939836 0.0155235 0.00847676 0.00625878 0.00024585 0.00047348 -4.56761e-11 -1.69318e-10 -7.30049e-11 5e-05 1.46608e-10 
15 1 0.100513 0.0172397 0.00722337 0.00563639 6.46045e-05 -2.51329e-05 -1.81259e-11 1.90526e-11 5.99867e-13 5e-05 1.46608e-10 
16 1 0.0939628 0.0154792 0.00856396 0.00626016 0.000646192 0.000686846 3.08507e-11 7.72816e-12 -7.92159e-12 5e-05 1.46608e-10 
17 1 0.100306 0.0167286 0.00755979 0.00562395 2.26505e-05 -7.46676e-06 2.98354e-10 -8.09345e-11 -2.09326e-11 5e-05 1.46608e-10 
18 1 0.106453 0.017397 0.0072542 0.00545405 -0.000135388 0.000578088 6.98661e-13 -1.25809e-12 3.50401e-13 5e-05 1.46608e-10 
19 1 0.100165 0.0162014 0.00799818 0.00610528 -6.55646e-05 -4.701e-05 1.59706e-11 1.54725e-11 -3.78432e-11 5e-05 1.46608e-10 
21 1 0.100303 0.0163763 0.00785276 0.00576617 -3.18582e-06 -9.31473e-05 -6.80762e-11 -1.46373e-10 8.87466e-11 5e-05 1.46608e-10 
22 1 0.100418 0.0172076 0.00723144 0.00563166 6.43979e-05 -2.19617e-05 7.63966e-11 3.97406e-11 -4.66032e-11 5e-05 1.46608e-10 
23 1 0.0944704 0.017 0.00738526 0.00558959 -8.7836e-05 -0.000184407 2.01236e-11 2.92858e-10 -4.00337e-10 5e-05 1.46608e-10 
24 1 0.106512 0.0176692 0.00714248 0.00552861 -0.000145431 0.000589385 -8.23572e-13 8.12116e-13 -1.48188e-12 5e-05 1.46608e-10 
25 1 0.100361 0.0169531 0.00736873 0.00569372 3.3763e-05 -1.96361e-05 7.36973e-10 -5.87707e-10 2.43881e-10 5e-05 1.46608e-10 
26 1 0.106395 0.0171247 0.00736597 0.00541975 -0.000131051 0.000572901 7.50999e-13 -1.5901e-12 -1.37548e-12 5e-05 1.46608e-10 
27 1 0.0943543 0.0169392 0.00743359 0.00550618 -0.000129857 -0.000129348 2.07776e-10 5.75755e-10 -4.56678e-10 5e-05 1.46608e-10 
28 1 0.100611 0.017716 0.00710695 0.0056162 6.78091e-05 -1.01016e-05 -5.56763e-11 -7.7265e-11 1.38559e-11 5e-05 1.46608e-10 
29 1 0.100143 0.016126 0.00806022 0.00611612 -7.49128e-05 -4.24059e-05 5.72274e-11 6.24789e-11 -4.26294e-11 5e-05 1.46608e-10 
30 1 0.100647 0.0174614 0.0071688 0.0056253 6.51038e-05 -1.06317e-05 1.02307e-10 -3.57858e-11 5.66825e-12 5e-05 1.46608e-10 
31 1 0.100398 0.0171124 0.00725498 0.00563969 6.90495e-05 -3.62988e-05 -2.80991e-10 1.95995e-10 -6.0934e-11 5e-05 1.46608e-10 
32 1 0.100494 0.0171455 0.00725073 0.00563514 6.00167e-05 -3.2036e-05 -1.6341e-11 -3.48786e-12 -2.4217e-11 5e-05 1.46608e-10 
33 1 0.106336 0.0168569 0.00748658 0.00550189 -0.000449593 1.48661e-05 -4.37343e-13 3.01706e-13 2.06918e-13 5e-05 1.46608e-10 
34 1 0.100287 0.0166538 0.00762344 0.00577944 1.9679e-06 -3.77108e-06 9.17135e-11 2.16734e-10 2.55193e-10 5e-05 1.46608e-10 
35 1 0.100474 0.0170533 0.00728388 0.00563855 5.79311e-05 -3.32967e-05 7.42668e-11 4.16347e-11 -7.12596e-11 5e-05 1.46608e-10 
36 1 0.106609 0.0181228 0.00695629 0.00559516 -0.000153618 0.00059941 -4.17784e-13 3.00092e-12 8.68659e-13 5e-05 1.46608e-10 
37 1 0.100437 0.0169035 0.00741119 0.00560379 5.94594e-05 -2.95672e-05 1.60331e-10 4.0258e-11 -3.8867e-11 5e-05 1.46608e-10 
38 1 0.100589 0.0171757 0.00723907 0.00563554 5.33906e-05 -2.33868e-05 -6.05996e-12 6.22993e-11 3.62219e-11 5e-05 1.46608e-10 
39 1 0.106531 0.0177599 0.00710524 0.00554192 -0.000146959 0.000591535 2.62521e-12 -1.13207e-12 -3.49229e-12 5e-05 1.46608e-10 
41 1 0.100247 0.0165039 0.00774986 0.00575793 1.2827e-05 -4.43624e-05 -2.81624e-10 -2.59496e-10 2.78356e-11 5e-05 1.46608e-10 
42 1 0.100437 0.0173029 0.0072079 0.00562365 7.22138e-05 -2.65498e-05 -1.34092e-11 -8.38228e-12 1.60617e-11 5e-05 1.46608e-10 
44 1 0.100608 0.0172709 0.00721554 0.00563738 6.17412e-05 -2.46429e-05 2.77012e-11 4.72685e-12 -1.49243e-11 5e-05 1.46608e-10 
45 1 0.106355 0.0169434 0.00744035 0.00555094 -0.00015111 0.000593935 -9.9042e-14 -5.84151e-14 8.19916e-13 5e-05 1.46608e-10 
46 1 0.106434 0.0173062 0.00729146 0.00544274 -0.000134064 0.000576299 8.47045e-13 -2.01083e-12 -4.20405e-12 5e-05 1.46608e-10 
47 1 0.100267 0.0165791 0.00768694 0.00576436 2.23165e-05 -9.41736e-06 2.16693e-11 -3.11541e-11 1.77196e-10 5e-05 1.46608e-10 
48 1 0.100476 0.0174933 0.00716088 0.00565273 9.46143e-05 -1.72289e-05 -1.43679e-11 4.93403e-12 -1.07773e-11 5e-05 1.46608e-10 
49 1 0.106414 0.0172155 0.00732872 0.00543122 -0.00013253 0.000574736 -2.0618e-14 3.30202e-13 3.54661e-12 5e-05 1.46608e-10 
50 1 0.100535 0.0177793 0.00709151 0.00562315 6.19808e-05 -9.44564e-06 -8.87281e-12 -5.62961e-11 2.67557e-11 5e-05 1.46608e-10 
51 1 0.100516 0.017684 0.00711462 0.00562602 5.87985e-05 -7.62367e-06 1.16641e-11 -5.99936e-11 1.47049e-11 5e-05 1.46608e-10 
52 1 0.0942565 0.016542 0.00772097 0.00571748 -0.000163715 -0.000130527 -6.45638e-11 -3.80091e-10 2.68718e-10 5e-05 1.46608e-10 
53 1 0.106473 0.0174877 0.00721696 0.00550185 -0.000142114 0.000585707 2.08001e-12 -1.33563e-12 -7.01104e-14 5e-05 1.46608e-10 
54 1 0.100283 0.0163007 0.00791498 0.005736 -1.91877e-06 -9.72481e-05 -6.80127e-11 -1.06541e-10 1.51032e-10 5e-05 1.46608e-10 
55 1 0.0940266 0.0156716 0.00835142 0.00625353 -0.000139678 -1.04233e-05 -4.97032e-11 -6.63514e-11 -4.82513e-12 5e-05 1.46608e-10 
56 1 0.100456 0.0169784 0.0073475 0.00562119 5.84984e-05 -2.93235e-05 1.96746e-10 1.23808e-10 -7.7294e-11 5e-05 1.46608e-10 
57 1 0.106375 0.017034 0.00740319 0.00556249 -0.000152696 0.000595963 1.68125e-12 -1.40186e-12 9.84417e-13 5e-05 1.46608e-10 
59 1 0.100513 0.0168541 0.0074536 0.00558359 4.92584e-05 -2.18927e-05 4.6168e-11 1.68623e-10 -5.22907e-11 5e-05 1.46608e-10 
60 1 0.100532 0.0169289 0.00738991 0.0056037 4.47124e-05 -2.1562e-05 3.44569e-11 8.08759e-11 -1.1151e-10 5e-05 1.46608e-10 
61 1 0.100228 0.0164283 0.00781233 0.00576205 -2.27452e-05 -0.000111368 -1.70966e-10 -1.15479e-10 1.93965e-10 5e-05 1.46608e-10 
62 1 0.100628 0.0173661 0.0071921 0.00562979 6.33832e-05 -1.67992e-05 6.4905e-11 1.17242e-11 -9.53468e-12 5e-05 1.46608e-10 
63 1 0.100572 0.0175254 0.00715318 0.0056265 5.97566e-05 -9.20466e-06 1.16164e-10 -7.05518e-11 2.71915e-11 5e-05 1.46608e-10 
64 1 0.106492 0.0175784 0.00717972 0.00551523 -0.000143828 0.000587352 -3.45423e-12 2.6372e-12 3.97476e-12 5e-05 1.46608e-10 
65 1 0.094393 0.016678 0.00761814 0.00553748 -7.86974e-05 -0.00018168 1.06152e-10 -6.62241e-10 4.64112e-10 5e-05 1.46608e-10 
66 1 0.0943329 0.0164392 0.00779094 0.00573844 -5.5598e-05 -0.00020702 1.53588e-10 6.40476e-11 -5.61622e-11 5e-05 1.46608e-10 
67 1 0.100762 0.0175879 0.0071382 0.00560477 7.5218e-05 -1.29116e-05 -3.54254e-12 -2.1394e-11 7.88149e-12 5e-05 1.46608e-10 
68 1 0.100686 0.017652 0.00712257 0.00561086 7.3615e-05 -1.23162e-05 -2.65511e-11 -4.83149e-11 1.05883e-11 5e-05 1.46608e-10 
69 1 0.100381 0.016679 0.00760227 0.00569187 0.000109685 -6.99502e-05 8.14982e-10 -1.91751e-10 4.69091e-10 5e-05 1.46608e-10 
70 1 0.106551 0.0178506 0.00706801 0.00555523 -0.000148528 0.000593454 1.27505e-12 7.62592e-13 -1.19116e-13 5e-05 1.46608e-10 
71 1 0.0940069 0.0155901 0.00840594 0.00620428 2.368e-05 0.000230364 -1.18656e-10 -4.70776e-11 1.87121e-11 5e-05 1.46608e-10 
72 1 0.100667 0.0175567 0.00714568 0.00561444 7.19067e-05 -1.19378e-05 5.29206e-11 -6.94424e-11 1.61174e-11 5e-05 1.46608e-10 
73 1 0.100343 0.0168782 0.00743241 0.00570757 4.77658e-05 -1.91024e-05 1.43601e-10 2.51584e-11 1.7809e-10 5e-05 1.46608e-10 
74 1 0.100533 0.0173349 0.00719987 0.00563538 6.14979e-05 -1.83772e-05 1.84178e-10 -2.08689e-11 3.86893e-11 5e-05 1.46608e-10 
76 1 0.0945866 0.0175303 0.00712441 0.00566221 5.03655e-05 0.000145885 2.93412e-11 2.0389e-10 -7.46985e-11 5e-05 1.46608e-10 
77 1 0.100672 0.0184219 0.00693563 0.00617529 -6.35419e-05 2.19391e-05 2.58783e-11 4.6796e-11 -2.66779e-11 5e-05 1.46608e-10 
78 1 0.094091 0.0159089 0.00817956 0.00620314 -0.000201426 -0.000130204 3.38811e-12 -1.12535e-11 -4.17135e-11 5e-05 1.46608e-10 
79 1 0.0942964 0.0167007 0.00760608 0.00552956 -0.000157568 -0.000124807 -1.4612e-10 -1.774e-10 9.94629e-11 5e-05 1.46608e-10 
80 1 0.100575 0.0179699 0.00704528 0.00561185 6.67197e-05 -1.07054e-05 -8.2888e-12 -2.00417e-11 7.42992e-12 5e-05 1.46608e-10 
81 1 0.0942365 0.016463 0.00777896 0.00570687 -0.000135979 -0.000147918 -6.03915e-11 -3.70863e-10 2.77217e-10 5e-05 1.46608e-10 
82 1 0.0943726 0.0170189 0.007376 0.00553049 -0.000132662 -0.000160273 -6.25319e-12 3.20001e-10 -4.83702e-10 5e-05 1.46608e-10 
83 1 0.094429 0.016463 0.00776986 0.00561132 -3.81983e-05 -0.000214649 8.41335e-11 1.0177e-10 -8.12367e-11 5e-05 1.46608e-10 
84 1 0.10659 0.0180321 0.00699353 0.00558196 -0.000151901 0.000597275 -6.43983e-13 2.51837e-12 -2.56465e-12 5e-05 1.46608e-10 
85 1 0.0942068 0.0159592 0.00813852 0.00626827 2.48849e-05 -0.000287543 3.60019e-12 -2.68941e-11 1.87334e-11 5e-05 1.46608e-10 
86 1 0.100591 0.0176207 0.00713006 0.00562111 6.34761e-05 -9.40436e-06 3.4549e-11 -7.49792e-11 1.57266e-11 5e-05 1.46608e-10 
87 1 0.100494 0.0167793 0.00751727 0.00557117 5.48505e-05 -2.26241e-05 1.8106e-10 1.76852e-11 -8.66666e-11 5e-05 1.46608e-10 
88 1 0.10061 0.0181427 0.00700335 0.00560885 6.80018e-05 -8.78846e-06 -2.62891e-12 3.95365e-11 -1.66549e-11 5e-05 1.46608e-10 
89 1 0.100595 0.0180658 0.00706528 0.00560859 6.76478e-05 -9.08816e-06 1.82067e-11 6.68162e-12 -1.18768e-11 5e-05 1.46608e-10 
90 1 0.100722 0.0173973 0.00718443 0.00562569 7.10986e-05 -1.01321e-05 4.38466e-11 -6.6689e-11 2.00973e-11 5e-05 1.46608e-10 
91 1 0.0943163 0.0167804 0.00754904 0.00551308 -0.000169542 -0.000118735 -2.50839e-10 2.19219e-10 -2.10116e-10 5e-05 1.46608e-10 
92 1 0.100745 0.0179392 0.0070529 0.00560863 7.17017e-05 -1.21851e-05 -1.81322e-12 2.19441e-11 -7.89684e-12 5e-05 1.46608e-10 
93 1 0.100706 0.0181141 0.00701039 0.00559801 6.70315e-05 -1.65116e-05 6.13484e-11 2.36704e-11 -4.0904e-11 5e-05 1.46608e-10 
94 1 0.100797 0.0182801 0.00697019 0.00614819 -6.9918e-05 2.50318e-05 2.84348e-11 -2.60237e-11 1.1139e-10 5e-05 1.46608e-10 
95 1 0.100725 0.0180115 0.00711909 0.00560633 6.56457e-05 -8.36273e-06 -2.013e-11 1.02778e-11 -1.39563e-11 5e-05 1.46608e-10 
96 1 0.100763 0.0180346 0.00702974 0.00559896 7.35279e-05 -1.0764e-05 6.95116e-11 2.04256e-11 6.33376e-12 5e-05 1.46608e-10 
97 1 0.0941966 0.0163038 0.00789329 0.00568577 -0.000104774 -0.000170311 1.1843e-10 -1.58181e-10 1.09274e-10 5e-05 1.46608e-10 
98 1 0.100632 0.0182403 0.00700489 0.00608358 -3.94825e-05 1.69967e-05 1.84264e-11 6.42066e-11 4.78418e-11 5e-05 1.46608e-10 
99 1 0.0943732 0.0165979 0.00767609 0.00562048 -8.34677e-05 -0.000182344 -2.81968e-11 -2.81666e-10 2.0106e-10 5e-05 1.46608e-10 
100 1 0.100683 0.0172068 0.00723123 0.00562922 5.39351e-05 -2.02839e-05 -1.75833e-10 4.16498e-11 1.57306e-11 5e-05 1.46608e-10 
101 1 0.0943113 0.0163552 0.00785174 0.00570587 0.000135224 -0.00034208 8.28595e-11 5.72956e-11 -4.52943e-11 5e-05 1.46608e-10 
102 1 0.0643568 0.0187248 0.00531097 4.24462e-15 1.04864e-14 8.29627e-14 -1.36857e-21 7.19518e-22 -2.50222e-23 5e-05 1.46608e-10 
103 1 0.24257 0.0191927 0.00520306 -1.23235e-22 -1.27651e-22 1.23839e-22 0 0 0 5e-05 1.46608e-10 
104 1 0.0946659 0.0174495 0.0071445 0.005634 0.000200265 0.000117491 5.09364e-10 3.45171e-10 -5.77106e-10 5e-05 1.46608e-10 
105 1 0.0941551 0.0161454 0.008008 0.00613567 -0.000183011 -0.000133312 -2.68984e-11 6.56309e-12 -1.21301e-11 5e-05 1.46608e-10 
106 1 0.094741 0.0173861 0.00716349 0.00572946 0.000210558 6.85487e-05 4.57468e-10 4.74161e-10 2.90659e-10 5e-05 1.46608e-10 
107 1 0.0941124 0.0159879 0.00812211 0.00617711 -0.000191744 -0.000129408 -1.22899e-10 2.14263e-11 -4.47686e-11 5e-05 1.46608e-10 
108 1 0.100418 0.0168287 0.00747486 0.00558431 6.23562e-05 -3.10849e-05 5.9339e-12 3.03883e-11 3.121e-11 5e-05 1.46608e-10 
109 1 0.100496 0.0175886 0.00713776 0.00562826 4.56215e-05 -5.17648e-06 -1.99829e-11 -2.05761e-10 4.57563e-11 5e-05 1.46608e-10 
110 1 0.100855 0.0183607 0.00695067 0.00617589 -5.24181e-05 1.88789e-05 5.00695e-11 -8.72372e-11 8.30738e-12 5e-05 1.46608e-10 
111 1 0.100679 0.0184372 0.00703425 0.00618786 -7.29159e-05 2.24486e-05 4.41377e-11 -9.54957e-11 1.62821e-11 5e-05 1.46608e-10 
112 1 0.0942167 0.0163836 0.00783638 0.00561499 -0.000100258 -0.000169128 -2.00086e-13 -2.68209e-10 1.98504e-10 5e-05 1.46608e-10 
113 1 0.0950302 0.0181038 0.0070084 0.00612737 6.09803e-05 9.29237e-07 -1.90647e-10 2.06552e-10 -1.91366e-10 5e-05 1.46608e-10 
114 1 0.0946052 0.0171811 0.00725706 0.0055507 5.42191e-05 -0.000204041 1.29212e-10 -7.79032e-10 1.09949e-09 5e-05 1.46608e-10 
115 1 0.100552 0.0174302 0.00717646 0.00563075 5.9884e-05 -1.17219e-05 2.02779e-10 -6.43976e-11 4.91284e-11 5e-05 1.46608e-10 
116 1 0.1004 0.0167539 0.00753854 0.00559594 5.90977e-05 -3.0084e-05 2.74336e-10 2.48431e-11 1.7724e-11 5e-05 1.46608e-10 
117 1 0.100261 0.0162245 0.00797769 0.00608169 -7.49816e-05 -3.95594e-05 4.41958e-11 1.58984e-11 -3.26703e-11 5e-05 1.46608e-10 
118 1 0.0940481 0.0157507 0.00829401 0.00624051 -0.000211795 -0.000122533 -6.98326e-11 3.40654e-11 3.13609e-11 5e-05 1.46608e-10 
119 1 0.10055 0.0170041 0.00732594 0.00564142 5.26379e-05 -2.52738e-05 -4.52121e-11 9.12894e-11 -7.21173e-11 5e-05 1.46608e-10 
120 1 0.100121 0.0160507 0.00812226 0.00612404 -8.10571e-05 -3.55998e-05 2.19439e-11 5.24038e-11 -4.56434e-11 5e-05 1.46608e-10 
121 1 0.100078 0.0158999 0.00824634 0.00614442 -9.02412e-05 -2.84082e-05 9.8363e-12 3.52655e-11 -2.99569e-11 5e-05 1.46608e-10 
122 1 0.100799 0.0185595 0.00690236 0.00624075 -7.66423e-05 2.44857e-05 -5.9676e-12 1.16693e-11 -2.10383e-12 5e-05 1.46608e-10 
123 1 0.0942498 0.0161174 0.00802393 0.00622525 4.18169e-05 -0.000297705 -2.53941e-11 -8.70771e-11 6.54651e-11 5e-05 1.46608e-10 
124 1 0.100668 0.018004 0.00703708 0.00561192 7.4307e-05 -1.22981e-05 -2.52588e-11 -4.2532e-11 1.62061e-12 5e-05 1.46608e-10 
125 1 0.100239 0.0161491 0.00803977 0.00611324 -6.17573e-05 -5.10735e-05 8.78928e-11 9.34113e-11 -8.41861e-11 5e-05 1.46608e-10 
126 1 0.100457 0.0173981 0.00718436 0.00562096 8.75981e-05 -3.05441e-05 4.32368e-11 2.48434e-11 -3.08341e-12 5e-05 1.46608e-10 
127 1 0.0941763 0.016226 0.00795275 0.00596746 -0.000153335 -0.000148466 2.28727e-11 -5.2882e-11 3.87399e-11 5e-05 1.46608e-10 
128 1 0.100555 0.0178746 0.00706839 0.00561874 6.46672e-05 -1.09458e-05 -3.72568e-11 -5.07451e-11 1.71905e-11 5e-05 1.46608e-10 
129 1 0.100681 0.0181874 0.00707389 0.00605498 8.95149e-05 0.000133841 -4.95519e-11 -6.51268e-11 -3.74922e-11 5e-05 1.46608e-10 
130 1 0.0944896 0.0170795 0.00732775 0.00553994 -2.94453e-05 -0.000235948 3.38634e-10 -1.55474e-10 3.65276e-10 5e-05 1.46608e-10 
131 1 0.0943529 0.0165186 0.0077335 0.00572929 -7.92273e-05 -0.000190352 -2.56085e-11 -4.78308e-10 3.42899e-10 5e-05 1.46608e-10 
132 1 0.10065 0.0179066 0.00706071 0.00560964 6.95308e-05 -1.16863e-05 -1.01582e-11 6.99985e-12 -4.28457e-12 5e-05 1.46608e-10 
133 1 0.100418 0.0164772 0.00776826 0.00575157 -2.19658e-05 -8.05322e-05 2.19064e-10 -1.71576e-10 1.81571e-10 5e-05 1.46608e-10 
134 1 0.100568 0.0170795 0.00726283 0.00564003 5.82114e-05 -2.02899e-05 -1.59056e-10 8.09239e-11 -5.89483e-11 5e-05 1.46608e-10 
135 1 0.100217 0.0160737 0.00810181 0.00612963 -6.63292e-05 -4.80437e-05 1.65594e-10 9.82948e-11 -8.34457e-11 5e-05 1.46608e-10 
136 1 0.0941853 0.0158801 0.00819582 0.00630564 1.60854e-05 -0.000282944 1.5163e-10 -1.46461e-11 2.29423e-12 5e-05 1.46608e-10 
137 1 0.100694 0.0185184 0.00692068 0.00619557 -7.01844e-05 2.27087e-05 -4.57634e-12 3.60192e-11 7.66171e-12 5e-05 1.46608e-10 
138 1 0.100362 0.0166039 0.00766552 0.00582748 2.2377e-05 -9.5036e-05 2.62544e-10 -5.65434e-10 1.12044e-10 5e-05 1.46608e-10 
140 1 0.100777 0.0184634 0.00692566 0.0061978 -6.5675e-05 2.32176e-05 7.95516e-14 -1.02126e-12 1.77536e-11 5e-05 1.46608e-10 
141 1 0.0942296 0.016038 0.00808135 0.00625853 3.57095e-05 -0.000294401 -2.27064e-10 -6.03957e-11 5.67499e-11 5e-05 1.46608e-10 
142 1 0.0946257 0.0172659 0.00720825 0.00567451 0.000192456 2.81496e-05 -1.69343e-09 -1.55931e-10 1.59055e-09 5e-05 1.46608e-10 
143 1 0.0941358 0.0160716 0.0080726 0.0061587 -0.000187069 -0.000129674 -6.75426e-11 5.30931e-11 -4.89214e-11 5e-05 1.46608e-10 
144 1 0.0945861 0.0170985 0.00731016 0.00551672 3.8403e-05 -0.00033487 8.67288e-10 -9.6097e-10 1.88939e-10 5e-05 1.46608e-10 
146 1 0.0944482 0.0165425 0.00771235 0.00565739 -4.13753e-05 -0.000213523 1.94714e-10 -1.92099e-11 2.18124e-11 5e-05 1.46608e-10 
147 1 0.0941638 0.015801 0.00825312 0.00631118 1.09455e-05 -0.000278906 -7.61395e-11 -4.06912e-11 2.66996e-11 5e-05 1.46608e-10 
148 1 0.0944288 0.0172601 0.00720679 0.0055378 -4.60424e-05 -8.16183e-05 -6.55683e-11 5.50034e-10 -2.23625e-10 5e-05 1.46608e-10 
149 1 0.100756 0.0183685 0.00694869 0.00617669 -6.06774e-05 1.682e-05 -2.4871e-11 -4.58687e-11 -7.33677e-11 5e-05 1.46608e-10 
150 1 0.0944881 0.0167012 0.00759746 0.00552969 -2.60576e-05 -0.000217861 5.60988e-10 -4.44294e-11 1.41358e-10 5e-05 1.46608e-10 
151 1 0.0948562 0.0175106 0.00713623 0.00574525 5.64772e-05 0.000141872 -2.12903e-10 -2.8549e-10 -1.46846e-10 5e-05 1.46608e-10 
153 1 0.0942913 0.0162758 0.00790919 0.005788 0.000125044 -0.000338222 6.9474e-11 3.05141e-11 -2.63577e-11 5e-05 1.46608e-10 
154 1 0.0945476 0.0173385 0.00716559 0.00574045 6.52333e-05 0.000160914 4.89575e-10 6.7633e-10 -2.35269e-10 5e-05 1.46608e-10 
155 1 0.0946049 0.0176283 0.00711692 0.0056395 6.19078e-05 0.0001341 1.32487e-10 -2.67155e-11 8.78067e-11 5e-05 1.46608e-10 
156 1 0.0945266 0.0172396 0.00721202 0.00564377 -5.24485e-05 -0.000205601 -4.81532e-11 -2.62735e-10 1.0798e-11 5e-05 1.46608e-10 
157 1 0.0219312 0.0187687 0.00551176 -3.83767e-14 8.16448e-14 2.95888e-13 5.3684e-22 3.028e-22 1.03398e-23 5e-05 1.46608e-10 
158 1 0.0946328 0.0175192 0.00721239 0.00580403 0.000106455 4.9617e-05 1.65444e-10 -2.65959e-10 -6.98444e-12 5e-05 1.46608e-10 
159 1 0.100706 0.0177472 0.00709946 0.00560396 7.46692e-05 -1.26671e-05 -3.02256e-11 -2.03248e-11 4.32107e-12 5e-05 1.46608e-10 
160 1 0.0944872 0.0175398 0.00711954 0.00566556 4.35557e-05 0.000152069 -1.8451e-11 -2.26427e-10 -2.97687e-11 5e-05 1.46608e-10 
162 1 0.0944482 0.0173494 0.00716615 0.00566901 3.23361e-05 0.000148457 2.66066e-10 -1.13509e-10 -1.15221e-09 5e-05 1.46608e-10 
164 1 0.0947418 0.018011 0.00702277 0.0061096 -4.63555e-05 0.000175935 7.51186e-11 -5.06749e-10 4.01326e-11 5e-05 1.46608e-10 
165 1 0.0949331 0.0177935 0.00707601 0.00582004 1.75888e-05 0.000154968 -5.38513e-10 1.08088e-09 -2.97136e-10 5e-05 1.46608e-10 
166 1 0.100379 0.0163258 0.00789286 0.00576805 -5.29886e-06 -9.16263e-05 7.55134e-11 -1.52138e-10 9.19924e-11 5e-05 1.46608e-10 
167 1 0.094468 0.0166219 0.00765489 0.00556836 -2.30201e-05 -0.000224809 3.36727e-10 -1.07954e-10 4.78199e-12 5e-05 1.46608e-10 
168 1 0.0947605 0.0174815 0.00713998 0.00567179 0.000131609 0.000127066 -2.63812e-10 5.709e-10 -1.18939e-10 5e-05 1.46608e-10 
169 1 0.0949353 0.0180728 0.00701452 0.00615802 -2.22051e-05 0.000176483 -7.93426e-11 -2.21087e-10 -6.61631e-12 5e-05 1.46608e-10 
170 1 0.0947793 0.0175778 0.00711929 0.00571176 7.62075e-05 0.000143683 1.98699e-11 2.52877e-10 -2.47446e-10 5e-05 1.46608e-10 
171 1 0.100399 0.0164015 0.00783057 0.00575527 -1.15029e-05 -8.83813e-05 -1.97871e-10 -1.94806e-10 1.60972e-10 5e-05 1.46608e-10 
172 1 0.0948988 0.0177016 0.00709532 0.00572482 8.96623e-05 0.000140117 2.48226e-11 4.01981e-10 7.40496e-11 5e-05 1.46608e-10 
173 1 0.100828 0.0178857 0.00706596 0.0056226 9.17317e-05 -1.68521e-05 4.79573e-12 4.86078e-11 -1.41913e-11 5e-05 1.46608e-10 
174 1 0.0947031 0.017641 0.00710324 0.00559924 0.000199462 0.000109424 1.70518e-10 1.67417e-10 -2.34338e-10 5e-05 1.46608e-10 
175 1 0.0884614 0.0174648 0.00729428 0.00565717 0.000630643 -0.000622608 3.09842e-11 1.22643e-10 -5.84725e-11 5e-05 1.46608e-10 
176 1 0.0945082 0.01716 0.0072696 0.00553758 -4.23535e-05 -0.00021619 -6.94175e-10 2.71954e-10 -7.17431e-11 5e-05 1.46608e-10 
177 1 0.0945263 0.0177316 0.00707837 0.00563537 4.06267e-05 0.000148322 -7.3027e-11 1.44757e-10 -1.00733e-11 5e-05 1.46608e-10 
178 1 0.0950099 0.0180082 0.00703083 0.00609341 -7.93268e-05 0.000189209 -1.03897e-10 -3.55047e-10 6.52575e-11 5e-05 1.46608e-10 
179 1 0.0949149 0.0179771 0.00703505 0.00605782 -1.83806e-05 0.000171601 1.16052e-11 -1.5212e-11 5.52674e-11 5e-05 1.46608e-10 
181 1 0.0944598 0.0174211 0.00724171 0.00557751 -1.84514e-05 0.000114147 -3.10204e-10 -2.13776e-10 8.37404e-11 5e-05 1.46608e-10 
182 1 0.100342 0.0165282 0.00772796 0.00575303 1.29715e-06 -3.11804e-05 7.27892e-11 -3.7579e-11 2.49977e-10 5e-05 1.46608e-10 
183 1 0.094685 0.0175469 0.00713165 0.00565443 0.000186173 8.91312e-05 -8.56223e-11 4.16217e-10 -6.94858e-11 5e-05 1.46608e-10 
184 1 0.100706 0.0179143 0.00714326 0.00738289 0.00182744 -0.00138027 5.49048e-11 7.82591e-11 -8.77851e-11 5e-05 1.46608e-10 
185 1 0.0944103 0.0171783 0.00726132 0.0054522 -0.000110821 -0.000200727 -1.63857e-11 3.64279e-10 -3.15943e-10 5e-05 1.46608e-10 
186 1 0.0944946 0.0173258 0.00725151 0.00579228 -0.000110256 3.3431e-05 1.14814e-11 -1.21365e-11 7.26919e-10 5e-05 1.46608e-10 
187 1 0.100664 0.0171116 0.00725476 0.0056412 4.87133e-05 -1.51326e-05 -7.37463e-12 4.67106e-11 -8.55742e-11 5e-05 1.46608e-10 
188 1 0.100726 0.0182108 0.00698693 0.00608398 -5.53525e-05 2.17222e-05 2.34623e-11 2.06886e-11 4.17425e-11 5e-05 1.46608e-10 
189 1 0.100703 0.017302 0.00720769 0.00563068 5.96422e-05 -2.59306e-05 -1.07144e-10 -5.92685e-11 -6.24095e-12 5e-05 1.46608e-10 
190 1 0.0885973 0.0176695 0.00718657 0.00571599 0.000623571 -0.000622334 -1.71944e-10 -2.33295e-11 2.11394e-11 5e-05 1.46608e-10 
191 1 0.100714 0.0186113 0.0068897 0.00623625 -8.07885e-05 2.54659e-05 -2.52791e-12 1.7482e-11 1.45481e-12 5e-05 1.46608e-10 
192 1 0.0946999 0.0172028 0.00723092 0.00528737 -0.000560298 0.000358728 0 0 -1.43822e-09 5e-05 1.46608e-10 
193 1 0.100476 0.0167044 0.00758098 0.00556667 5.26384e-05 -2.90323e-05 2.43141e-10 -3.6402e-11 -6.29357e-11 5e-05 1.46608e-10 
194 1 0.0945285 0.0168601 0.00748291 0.0055351 -2.66179e-05 -0.000228534 -6.26278e-11 5.3547e-10 -3.18711e-10 5e-05 1.46608e-10 
195 1 0.0949566 0.0178886 0.00705572 0.00596896 -5.2522e-05 0.000177548 3.15577e-10 6.36287e-10 -1.59792e-10 5e-05 1.46608e-10 
196 1 0.0939433 0.0154479 0.00865693 0.0062399 0.000633544 0.000693429 2.45021e-11 3.66432e-11 9.75652e-12 5e-05 1.46608e-10 
197 1 0.0885198 0.0177278 0.00716233 0.0056952 0.000602452 -0.000611485 9.65851e-11 1.26626e-10 -6.92873e-11 5e-05 1.46608e-10 
198 1 0.094336 0.0168595 0.00749117 0.0055044 -0.000154665 -0.000121937 3.00047e-10 5.62912e-10 -2.76708e-10 5e-05 1.46608e-10 
199 1 0.0944676 0.0174451 0.00714496 0.00561802 3.55737e-05 0.000139267 -8.86724e-11 -1.8651e-10 -6.04771e-11 5e-05 1.46608e-10 
200 1 0.0944519 0.0169195 0.00744342 0.00553504 -0.0001172 -0.000152719 3.36745e-12 4.04272e-10 -3.46368e-10 5e-05 1.46608e-10 
201 1 0.0948846 0.0181567 0.00699463 0.00622927 3.43054e-05 0.000163725 -3.86858e-11 -2.40633e-10 7.14589e-11 5e-05 1.46608e-10 
202 1 0.0947197 0.0172876 0.00718159 0.0056655 5.54699e-05 0.000144009 -5.22541e-10 5.64206e-11 2.54919e-10 5e-05 1.46608e-10 
203 1 0.100939 0.018307 0.00696378 0.00617342 -5.23627e-05 1.89299e-05 6.43602e-11 -4.25281e-11 1.43446e-11 5e-05 1.46608e-10 
204 1 0.094433 0.0168378 0.00750251 0.00552631 -7.48062e-05 -0.000184779 -1.37988e-10 1.0541e-10 -1.53678e-10 5e-05 1.46608e-10 
205 1 0.0947214 0.0179101 0.00712103 0.00576316 0.000344943 2.06212e-05 8.28373e-12 -1.42296e-10 3.92077e-11 5e-05 1.46608e-10 
206 1 0.0947242 0.0177366 0.00708276 0.00561202 0.000214829 0.000112202 -2.0299e-10 4.64945e-11 -4.27424e-11 5e-05 1.46608e-10 
207 1 0.0942708 0.0161965 0.00796658 0.00606093 7.43312e-05 -0.000313845 6.8581e-11 -3.71794e-11 2.18688e-11 5e-05 1.46608e-10 
208 1 0.0945671 0.0174344 0.007145 0.00561606 6.14105e-05 0.0001444 3.57212e-10 5.12828e-10 -3.77568e-11 5e-05 1.46608e-10 
209 1 0.0945088 0.0167805 0.00754008 0.00555632 -2.67515e-05 -0.000215425 6.39351e-11 1.38642e-10 -3.17623e-10 5e-05 1.46608e-10 
210 1 0.100554 0.0177454 0.00718365 0.00564097 9.81584e-05 -3.06808e-06 9.49197e-11 4.81352e-12 6.69262e-11 5e-05 1.46608e-10 
211 1 0.100809 0.0181575 0.00699995 0.00606695 -8.71417e-05 2.80878e-05 2.87103e-11 -3.60815e-11 2.85555e-11 5e-05 1.46608e-10 
212 1 0.0948007 0.0176733 0.00709883 0.00586167 3.83894e-05 0.000158736 -1.34749e-10 2.70689e-10 -6.29436e-11 5e-05 1.46608e-10 
213 1 0.100645 0.0170281 0.00730655 0.0056126 2.39654e-05 -5.08682e-05 -3.43429e-11 -1.27174e-11 -2.46106e-10 5e-05 1.46608e-10 
214 1 0.100773 0.0181179 0.00708429 0.00563925 0.000100547 -6.04132e-05 9.20699e-12 4.92002e-11 2.41293e-11 5e-05 1.46608e-10 
215 1 0.0885778 0.0175818 0.00723057 0.00566988 0.000610572 -0.000613474 -1.58205e-10 -6.88156e-11 4.15225e-11 5e-05 1.46608e-10 
216 1 0.0945068 0.0176357 0.00709896 0.00565409 4.23431e-05 0.000150706 -1.66583e-11 5.73842e-11 -6.1854e-11 5e-05 1.46608e-10 
217 1 0.100438 0.0165529 0.00770598 0.00573618 -1.79151e-05 -7.57575e-05 5.71067e-10 -1.88278e-10 4.6051e-11 5e-05 1.46608e-10 
218 1 0.0946451 0.0178162 0.00706302 0.00567528 6.11947e-05 0.000144881 -1.74843e-10 -8.60144e-11 5.75657e-11 5e-05 1.46608e-10 
219 1 0.100652 0.0183237 0.00705861 0.00609823 -5.15006e-05 1.61377e-05 -6.54747e-11 -3.36205e-11 -3.23391e-11 5e-05 1.46608e-10 
220 1 0.0945405 0.017635 0.00719311 0.00564876 2.6342e-05 0.000156376 -2.19177e-10 -7.76003e-11 -1.08115e-10 5e-05 1.46608e-10 
221 1 0.0884685 0.0170561 0.00749389 0.00646435 0.00246829 -0.00156664 9.45239e-12 1.41248e-11 -7.43511e-12 5e-05 1.46608e-10 
222 1 0.100457 0.0166288 0.00764374 0.0056325 2.19448e-05 -5.15971e-05 3.4769e-10 -1.87304e-10 -1.35597e-10 5e-05 1.46608e-10 
223 1 0.0946464 0.0173536 0.007165 0.00573301 0.000194826 9.78423e-05 -2.46289e-10 6.47654e-10 2.56532e-10 5e-05 1.46608e-10 
224 1 0.0943918 0.0170987 0.00731887 0.00551869 -0.000149348 -0.000218965 -3.40868e-10 1.83392e-10 -1.66704e-10 5e-05 1.46608e-10 
225 1 0.100726 0.0178425 0.00707634 0.0056068 7.1738e-05 -1.12796e-05 -1.97299e-11 -3.45359e-13 -3.66618e-12 5e-05 1.46608e-10 
226 1 0.0948752 0.0176066 0.00711561 0.00572368 9.00985e-05 0.000144655 -2.53409e-10 -2.0733e-10 -7.61406e-11 5e-05 1.46608e-10 
227 1 0.0885389 0.0174064 0.00731854 0.00566394 0.000629824 -0.00062251 -2.89602e-10 -1.30353e-10 7.7664e-11 5e-05 1.46608e-10 
228 1 0.0884808 0.0175525 0.0072503 0.00566976 0.000619598 -0.000617805 -3.46808e-11 5.55522e-11 -2.33608e-11 5e-05 1.46608e-10 
229 1 0.0945312 0.0175189 0.00720687 0.005669 3.39652e-06 0.000136604 -3.1098e-10 -2.79697e-10 -1.29503e-10 5e-05 1.46608e-10 
230 1 0.0948089 0.01822 0.00697857 0.00624937 5.14785e-05 8.01982e-05 5.79171e-11 -6.72944e-11 3.21968e-11 5e-05 1.46608e-10 
231 1 0.0884419 0.0173771 0.00733826 0.0056348 0.00061382 -0.000613146 4.76279e-12 1.4554e-10 -7.23181e-11 5e-05 1.46608e-10 
232 1 0.0944092 0.0163835 0.00782733 0.00554284 -3.49877e-05 -0.000213671 -3.26196e-10 3.308e-10 -2.21136e-10 5e-05 1.46608e-10 
233 1 0.0945482 0.0169393 0.00742515 0.0054932 2.0338e-05 -0.000235529 2.51952e-10 5.11581e-10 -4.06707e-10 5e-05 1.46608e-10 
234 1 0.100651 0.0183269 0.00695867 0.00609701 -4.68874e-05 1.61944e-05 2.27128e-11 3.59587e-11 -1.50175e-11 5e-05 1.46608e-10 
235 1 0.094777 0.0184753 0.00691442 0.00623817 2.30387e-05 1.29959e-05 2.14289e-11 -5.10356e-11 9.40402e-12 5e-05 1.46608e-10 
236 1 0.0948296 0.0183149 0.00695482 0.00619074 2.92733e-05 1.10674e-05 8.91628e-11 -4.2627e-12 -7.74547e-13 5e-05 1.46608e-10 
237 1 0.0949263 0.0183464 0.00694721 0.00622033 4.1863e-05 8.85409e-06 -1.9361e-10 -1.29163e-10 3.02176e-11 5e-05 1.46608e-10 
239 1 0.0882578 0.0165424 0.00770562 0.00575852 -3.31671e-06 0.000256575 1.61806e-12 7.45771e-12 -2.78571e-12 5e-05 1.46608e-10 
240 1 0.0883184 0.0168155 0.00759726 0.00552126 3.85119e-05 0.000229017 -2.88995e-12 2.28038e-13 5.59925e-13 5e-05 1.46608e-10 
241 1 0.0882373 0.0164515 0.0077417 0.0057669 -5.13229e-06 0.000257714 2.94375e-12 8.61859e-12 -3.57165e-12 5e-05 1.46608e-10 
242 1 0.0946616 0.0170436 0.00734597 0.00553342 0.000102067 -0.000289717 7.84351e-10 3.09995e-10 -4.7787e-10 5e-05 1.46608e-10 
243 1 0.0944132 0.0167583 0.00755997 0.00557152 -0.000104707 -0.000164514 -1.52223e-10 2.09675e-10 -1.3508e-10 5e-05 1.46608e-10 
244 1 0.0882783 0.0166334 0.00766953 0.00575002 -1.44769e-06 0.000255454 1.31859e-12 3.20119e-12 -1.11827e-12 5e-05 1.46608e-10 
246 1 0.0884025 0.0171996 0.00742732 0.00582185 0.00161854 -0.00111515 1.68438e-12 4.5416e-12 -2.31393e-12 5e-05 1.46608e-10 
247 1 0.0946654 0.0179253 0.00703954 0.00560615 0.000170601 0.000108872 5.32903e-11 -5.24384e-11 1.23593e-10 5e-05 1.46608e-10 