ITEM: TIMESTEP
25600000
ITEM: NUMBER OF ATOMS
271
ITEM: BOX BOUNDS ff ff ff
-0.02 0.43
-0.02 0.06
-0.02 0.07
ITEM: ATOMS id type x y z vx vy vz fx fy fz radius mass 
1 1 0.161898 0.0159745 0.0082818 0.00593795 0.000142126 0.000284779 -1.02674e-10 9.57565e-11 -7.50861e-11 5e-05 1.46608e-10 
2 1 0.162422 0.0173304 0.00735433 0.00589262 -0.000107965 -5.81043e-05 5.479e-11 -2.20831e-12 -1.67713e-11 5e-05 1.46608e-10 
3 1 0.156443 0.0166508 0.00759292 0.00564997 0.000622591 -8.69486e-05 -1.12846e-10 -5.03483e-11 -1.70659e-12 5e-05 1.46608e-10 
4 1 0.162236 0.0167177 0.00759109 0.00562186 -1.45744e-05 -8.34118e-05 -8.02223e-11 -1.51035e-10 2.39711e-11 5e-05 1.46608e-10 
5 1 0.161875 0.0159129 0.00835719 0.00596027 0.000143134 0.000285398 -1.89394e-10 4.85943e-11 -8.74902e-11 5e-05 1.46608e-10 
6 1 0.167965 0.0161497 0.00797715 0.00543298 -0.00140382 0.00106741 2.15791e-12 1.5417e-12 -2.22384e-12 5e-05 1.46608e-10 
7 1 0.161988 0.0162204 0.00797996 0.00548027 5.51178e-05 6.91168e-05 -5.33721e-11 1.04444e-11 -2.02428e-10 5e-05 1.46608e-10 
8 1 0.161853 0.0158511 0.00843278 0.00596123 0.000147758 0.00027968 -8.86934e-11 7.53245e-12 -2.61236e-11 5e-05 1.46608e-10 
9 1 0.168078 0.0166414 0.00771939 0.00508193 -0.00127109 0.0010621 1.2208e-12 2.38435e-12 -8.78932e-13 5e-05 1.46608e-10 
10 1 0.162371 0.0179232 0.00721408 0.00595077 -9.53151e-05 -4.96208e-05 -5.58187e-11 -1.95732e-10 -8.21471e-11 5e-05 1.46608e-10 
11 1 0.162444 0.0174253 0.00733144 0.00590206 -0.000109597 -5.72513e-05 1.26267e-11 1.94291e-11 1.49722e-11 5e-05 1.46608e-10 
12 1 0.155916 0.0159993 0.00819174 0.00581733 -3.72582e-05 -0.000658052 -1.93564e-11 1.41097e-12 4.16667e-12 5e-05 1.46608e-10 
13 1 0.161788 0.0156659 0.00865956 0.00596785 0.000152422 0.000272441 3.56666e-12 1.24096e-11 -1.68157e-11 5e-05 1.46608e-10 
14 1 0.156507 0.0181264 0.00713825 0.00614838 0.000405394 -0.000763616 1.77875e-11 1.63146e-10 -8.90491e-12 5e-05 1.46608e-10 
15 1 0.162297 0.0167629 0.00749114 0.00558345 -5.02488e-05 -6.6778e-05 -2.19322e-10 1.98947e-11 -6.2873e-13 5e-05 1.46608e-10 
16 1 0.15661 0.0177956 0.00713902 0.00619033 0.000426991 -0.000769406 4.37329e-12 1.03654e-10 -7.83587e-12 5e-05 1.46608e-10 
17 1 0.162335 0.0169537 0.00744519 0.00559491 -5.11359e-05 -6.68549e-05 -1.27842e-10 -4.72488e-12 1.741e-11 5e-05 1.46608e-10 
19 1 0.161832 0.0157894 0.00850837 0.00595601 0.00014846 0.000276704 4.18564e-11 2.56529e-11 -2.50952e-11 5e-05 1.46608e-10 
21 1 0.16235 0.0178283 0.00723695 0.00594369 -9.38762e-05 -6.00805e-05 -2.37784e-11 -7.68341e-11 3.25755e-10 5e-05 1.46608e-10 
22 1 0.162316 0.0168584 0.00746816 0.00558153 -4.88916e-05 -6.64351e-05 -1.39196e-10 1.14916e-11 6.43489e-12 5e-05 1.46608e-10 
23 1 0.156098 0.0162926 0.00775743 0.00570395 0.000641614 -9.51369e-05 1.89289e-11 3.21365e-12 2.42754e-11 5e-05 1.46608e-10 
24 1 0.168139 0.0169264 0.00764839 0.00523387 -0.00129612 0.00109023 1.03555e-12 -7.91357e-13 3.3809e-13 5e-05 1.46608e-10 
25 1 0.162131 0.0164221 0.00771221 0.00553505 2.8006e-05 8.89794e-05 7.30291e-11 1.89982e-11 -4.64035e-11 5e-05 1.46608e-10 
26 1 0.168039 0.016451 0.00776715 0.00527247 -0.00130149 0.0010971 -4.09366e-14 3.83935e-12 -1.20253e-12 5e-05 1.46608e-10 
27 1 0.156422 0.0165605 0.007637 0.00570788 0.000605471 -7.55145e-05 -2.79921e-11 8.86507e-11 -3.32184e-11 5e-05 1.46608e-10 
28 1 0.16238 0.0171404 0.00740014 0.00573401 -7.51411e-05 -6.34211e-05 1.62043e-10 -5.1516e-11 1.07703e-11 5e-05 1.46608e-10 
29 1 0.162003 0.0162774 0.00789913 0.00542169 5.32189e-05 5.27002e-05 -3.07758e-10 9.26171e-11 -1.72164e-10 5e-05 1.46608e-10 
30 1 0.162453 0.0178669 0.00722623 0.00593686 -9.75206e-05 -6.2525e-05 -5.90118e-11 -4.18999e-11 1.55283e-10 5e-05 1.46608e-10 
31 1 0.162148 0.0164821 0.00763397 0.00558384 2.0486e-05 9.59873e-05 1.09869e-10 -3.18795e-13 -4.30691e-11 5e-05 1.46608e-10 
32 1 0.162156 0.0165426 0.00755483 0.00560507 1.35157e-05 9.53785e-05 -9.97291e-11 2.35058e-11 -1.71339e-11 5e-05 1.46608e-10 
33 1 0.167982 0.0162023 0.00789395 0.00531943 -0.00134058 0.00108315 6.76237e-13 8.177e-13 -1.51376e-13 5e-05 1.46608e-10 
34 1 0.161959 0.0161594 0.00805352 0.00552433 7.85146e-05 0.000113118 -1.26798e-10 6.91641e-11 -1.7257e-10 5e-05 1.46608e-10 
35 1 0.162032 0.016404 0.00774749 0.00551369 4.47478e-05 6.43434e-05 -4.71142e-11 1.33084e-11 -2.49131e-11 5e-05 1.46608e-10 
36 1 0.168117 0.0168316 0.00767183 0.0052189 -0.00129357 0.00108744 1.95868e-12 1.18556e-13 4.74937e-13 5e-05 1.46608e-10 
37 1 0.162552 0.0179004 0.00721685 0.00590137 -0.00011447 -7.2367e-05 -1.3991e-10 -6.71421e-11 -2.65743e-10 5e-05 1.46608e-10 
38 1 0.162657 0.017579 0.00729185 0.00590079 -0.000115136 -5.5474e-05 3.07254e-11 1.36477e-10 -3.09431e-11 5e-05 1.46608e-10 
39 1 0.168194 0.0167739 0.00769867 0.00521972 -0.00129262 0.00108729 -2.49694e-12 -4.88559e-12 1.00193e-12 5e-05 1.46608e-10 
41 1 0.162454 0.0170748 0.00741471 0.00569345 -0.000133934 -4.85327e-05 1.21395e-11 -2.07269e-10 4.49472e-11 5e-05 1.46608e-10 
42 1 0.321436 0.0173475 0.00552525 4.53805e-16 2.25632e-15 8.4636e-14 4.49586e-23 -6.84363e-24 0 5e-05 1.46608e-10 
44 1 0.162401 0.0172354 0.00737723 0.00583627 -9.4832e-05 -5.99893e-05 1.66712e-10 -5.42045e-11 5.90809e-12 5e-05 1.46608e-10 
45 1 0.168 0.0162608 0.00781474 0.0053187 -0.00130952 0.00110586 2.3006e-12 3.26886e-13 3.32744e-13 5e-05 1.46608e-10 
47 1 0.161919 0.0160364 0.00820601 0.00590655 0.000143365 0.000278524 6.27405e-11 1.54797e-10 -3.86459e-11 5e-05 1.46608e-10 
48 1 0.162531 0.0178055 0.00723974 0.00591779 -0.000106839 -6.08972e-05 -5.76031e-11 6.54264e-11 8.36163e-11 5e-05 1.46608e-10 
50 1 0.162106 0.0167045 0.00751001 0.00559605 -3.96731e-05 -3.15805e-05 -6.25697e-12 5.38129e-11 1.88557e-10 5e-05 1.46608e-10 
51 1 0.162087 0.0166142 0.00754818 0.00560424 -4.98603e-06 4.65273e-05 -2.0381e-12 8.42973e-11 2.59854e-10 5e-05 1.46608e-10 
52 1 0.155831 0.0158006 0.0085284 0.00599789 -6.92067e-05 -0.000627672 -4.63129e-11 4.44389e-11 -6.0873e-11 5e-05 1.46608e-10 
53 1 0.168174 0.0166222 0.00773814 0.00508906 -0.00124217 0.00105502 1.68007e-13 4.72363e-13 -8.16235e-14 5e-05 1.46608e-10 
54 1 0.162574 0.0179953 0.00719396 0.00592091 -0.000132015 -6.80586e-05 1.86796e-10 -1.73607e-10 -9.07158e-11 5e-05 1.46608e-10 
55 1 0.155765 0.015652 0.00878045 0.00601053 -7.08433e-05 -0.000626518 1.26554e-11 -4.65636e-11 8.01741e-11 5e-05 1.46608e-10 
56 1 0.162626 0.0178345 0.00723149 0.00591762 -7.90524e-05 -6.65811e-05 -1.51655e-10 3.52375e-10 -1.37199e-10 5e-05 1.46608e-10 
57 1 0.16802 0.0163559 0.00779094 0.00529525 -0.00130564 0.00110139 1.5278e-12 1.41072e-12 -1.08949e-12 5e-05 1.46608e-10 
59 1 0.162431 0.0169801 0.00743756 0.00560902 -0.000111058 -5.3215e-05 -1.66459e-10 -1.52926e-10 3.63087e-11 5e-05 1.46608e-10 
61 1 0.162013 0.0163378 0.00782011 0.00543328 5.52414e-05 5.34563e-05 -2.56061e-10 8.81169e-11 -1.07295e-10 5e-05 1.46608e-10 
62 1 0.162614 0.017389 0.00733767 0.00589943 -0.00012465 -5.39542e-05 -6.19788e-13 6.06156e-11 -1.83257e-11 5e-05 1.46608e-10 
63 1 0.162251 0.0165692 0.00753787 0.00559259 -4.5366e-05 -6.96141e-05 -7.93465e-11 -1.0686e-10 3.23567e-11 5e-05 1.46608e-10 
64 1 0.168216 0.0168687 0.00767523 0.0052346 -0.00129528 0.0010901 -2.00517e-12 -4.58932e-12 9.94082e-13 5e-05 1.46608e-10 
65 1 0.1561 0.0167153 0.00765352 0.00568723 0.000607822 -8.81551e-05 -8.61517e-12 -4.33259e-11 2.35222e-11 5e-05 1.46608e-10 
66 1 0.155743 0.0156024 0.00886454 0.0060006 -6.90609e-05 -0.00062833 2.47155e-11 -4.41805e-11 6.6124e-11 5e-05 1.46608e-10 
67 1 0.162518 0.01736 0.00734593 0.00589036 -0.000124692 -5.32822e-05 4.35456e-11 1.70224e-11 1.12189e-12 5e-05 1.46608e-10 
68 1 0.162201 0.0167352 0.00749909 0.0055851 -4.35823e-05 -7.03711e-05 -4.20526e-11 -7.95576e-11 -3.87495e-13 5e-05 1.46608e-10 
69 1 0.162518 0.0181523 0.0071578 0.00600934 -0.000101121 -8.74191e-05 2.4913e-10 9.41888e-11 7.62012e-10 5e-05 1.46608e-10 
70 1 0.168058 0.0165462 0.00774328 0.00510495 -0.0012749 0.00106636 3.62095e-13 3.90069e-12 -8.33191e-13 5e-05 1.46608e-10 
71 1 0.155808 0.0157512 0.00861228 0.00603533 -7.63265e-05 -0.000620581 8.78701e-11 1.65144e-11 -3.10463e-11 5e-05 1.46608e-10 
72 1 0.162509 0.0177111 0.00726487 0.00590373 -0.000114835 -5.79177e-05 -2.08511e-11 2.08292e-11 -1.07002e-11 5e-05 1.46608e-10 
73 1 0.162595 0.0180902 0.00717106 0.00596334 -0.000131372 -5.8957e-05 3.54571e-11 -6.55761e-11 -1.24477e-12 5e-05 1.46608e-10 
74 1 0.162592 0.017294 0.0073606 0.00587949 -0.000134377 -5.1136e-05 3.73874e-12 -5.33762e-12 6.28467e-13 5e-05 1.46608e-10 
76 1 0.156453 0.0174786 0.00720204 0.00622026 0.000463002 -0.000327088 -1.63781e-10 -1.73731e-10 -6.78909e-10 5e-05 1.46608e-10 
77 1 0.162157 0.0167788 0.00757758 0.00560092 -3.07351e-05 -6.00259e-05 -3.09781e-11 -6.907e-11 -4.56363e-11 5e-05 1.46608e-10 
78 1 0.156559 0.017961 0.00713863 0.00617159 0.000420048 -0.000767053 -3.30259e-11 8.20274e-11 3.23524e-12 5e-05 1.46608e-10 
79 1 0.155873 0.0159 0.00836007 0.00586722 -4.48537e-05 -0.00065111 -1.11082e-10 4.1766e-11 -5.05308e-11 5e-05 1.46608e-10 
80 1 0.162463 0.0173909 0.00742337 0.00587882 -0.000125063 -5.98752e-05 1.604e-10 7.42356e-11 4.83647e-11 5e-05 1.46608e-10 
81 1 0.156473 0.0175719 0.0071721 0.00629759 0.000473775 -0.00025702 -1.1477e-10 -2.46179e-12 -1.36455e-10 5e-05 1.46608e-10 
82 1 0.155932 0.0160498 0.00810696 0.00582436 -4.07126e-05 -0.000655007 2.56194e-12 -9.62487e-12 1.40339e-11 5e-05 1.46608e-10 
83 1 0.156516 0.0177661 0.00715171 0.00619457 0.000418509 -0.000767178 2.89783e-11 -6.00102e-12 2.70491e-11 5e-05 1.46608e-10 
84 1 0.168097 0.0167366 0.00769552 0.00508911 -0.00127219 0.00106341 1.064e-13 1.24794e-12 -2.12634e-13 5e-05 1.46608e-10 
85 1 0.156478 0.0168305 0.00750497 0.00570396 0.000530415 -3.94046e-05 -2.06564e-10 9.39185e-11 -5.41944e-11 5e-05 1.46608e-10 
86 1 0.162475 0.0171698 0.00739179 0.00577609 -0.000154916 -4.45713e-05 6.87702e-11 -2.04536e-10 4.79411e-11 5e-05 1.46608e-10 
87 1 0.162783 0.017352 0.00734408 0.00588628 -0.000170871 -4.23807e-05 -1.70123e-10 -7.49809e-11 2.26412e-11 5e-05 1.46608e-10 
88 1 0.162262 0.0173189 0.00744286 0.00587967 -0.000107343 -5.52164e-05 -2.19829e-10 1.50641e-10 -4.32587e-12 5e-05 1.46608e-10 
89 1 0.16254 0.017455 0.00732302 0.00591099 -0.000111748 -5.63581e-05 -5.25275e-12 4.74665e-11 7.96837e-12 5e-05 1.46608e-10 
90 1 0.162497 0.0172651 0.00736882 0.00587768 -0.000122288 -5.45841e-05 5.57061e-11 2.68139e-12 -2.75161e-12 5e-05 1.46608e-10 
91 1 0.15646 0.0167421 0.00754825 0.00564768 0.000535832 -4.15219e-05 -7.53018e-11 8.23707e-11 2.40145e-12 5e-05 1.46608e-10 
92 1 0.162487 0.0176151 0.00728566 0.00590741 -0.000112381 -5.81271e-05 -1.08673e-10 -8.15711e-11 1.02103e-11 5e-05 1.46608e-10 
93 1 0.162145 0.0168948 0.0074619 0.00559375 -3.4467e-05 -6.7834e-05 -1.11837e-11 1.46683e-10 -3.87732e-11 5e-05 1.46608e-10 
94 1 0.162387 0.0175803 0.00729607 0.00591734 -9.42256e-05 -6.88157e-05 1.48291e-11 3.09715e-11 -8.83298e-12 5e-05 1.46608e-10 
95 1 0.162283 0.0174139 0.00742001 0.00591408 -0.000118836 -6.85841e-05 3.63429e-11 1.08317e-10 -8.71483e-11 5e-05 1.46608e-10 
96 1 0.162164 0.0169902 0.00743893 0.00558046 -2.31994e-05 -7.46732e-05 5.37304e-11 1.6175e-10 3.7357e-12 5e-05 1.46608e-10 
97 1 0.156193 0.0163225 0.00774633 0.00570108 0.000649299 -0.000100015 1.83459e-11 -3.76407e-11 2.43672e-11 5e-05 1.46608e-10 
98 1 0.162363 0.0173509 0.00743254 0.00590816 -0.000100364 -5.53625e-05 6.9932e-11 8.93883e-12 -6.01416e-11 5e-05 1.46608e-10 
99 1 0.156118 0.0168038 0.00761039 0.00572749 0.000612666 -9.05096e-05 6.92956e-11 5.23237e-11 1.11434e-10 5e-05 1.46608e-10 
100 1 0.162562 0.01755 0.0073001 0.00589425 -0.000114545 -5.63454e-05 -3.90966e-11 -1.13908e-12 1.19219e-11 5e-05 1.46608e-10 
101 1 0.155895 0.0159497 0.008276 0.00582508 -3.69251e-05 -0.000658238 -8.90849e-11 2.10427e-11 -1.99507e-11 5e-05 1.46608e-10 
102 1 0.0643568 0.0187248 0.00531097 4.28446e-15 1.04951e-14 8.29596e-14 1.78105e-21 -6.52025e-22 -9.30578e-24 5e-05 1.46608e-10 
103 1 0.24257 0.0191927 0.00520306 1.4124e-22 -1.27651e-22 1.23839e-22 0 0 0 5e-05 1.46608e-10 
104 1 0.156378 0.0175424 0.00718522 0.0062274 0.000397213 -0.000706888 -3.96161e-11 -2.25229e-10 -7.79066e-10 5e-05 1.46608e-10 
105 1 0.156308 0.0164414 0.00769171 0.00567805 0.000611387 -8.03016e-05 8.67352e-12 -2.32677e-12 3.17888e-12 5e-05 1.46608e-10 
106 1 0.156252 0.0165896 0.00762125 0.00570805 0.000628223 -8.70838e-05 4.27996e-11 3.01471e-11 -1.56158e-11 5e-05 1.46608e-10 
107 1 0.156213 0.0164113 0.00770295 0.00569832 0.00064226 -9.47807e-05 3.08546e-11 -7.51585e-11 2.59782e-11 5e-05 1.46608e-10 
108 1 0.162457 0.0183028 0.0071565 0.00600499 7.28522e-05 0.000198894 -3.39649e-10 3.17558e-10 -5.71199e-10 5e-05 1.46608e-10 
109 1 0.162067 0.0165301 0.00759875 0.00559866 2.38091e-05 7.84704e-05 -1.06836e-11 -2.47418e-11 5.49119e-11 5e-05 1.46608e-10 
110 1 0.162184 0.0170862 0.00745847 0.00556089 -1.77118e-05 -6.74971e-05 1.14953e-10 2.81779e-11 2.0193e-10 5e-05 1.46608e-10 
111 1 0.162318 0.0172912 0.00736513 0.00586185 -0.000119907 -5.60327e-05 -2.74224e-11 7.99347e-11 1.00429e-11 5e-05 1.46608e-10 
112 1 0.156622 0.0174469 0.0072042 0.00624487 0.000414307 3.92869e-05 -1.62767e-10 1.59486e-10 -5.5406e-11 5e-05 1.46608e-10 
113 1 0.156238 0.0169994 0.00741156 0.00565627 0.000677346 -0.000121041 -1.53341e-10 9.49614e-11 -1.23734e-10 5e-05 1.46608e-10 
114 1 0.156434 0.0181936 0.00714451 0.00614034 0.000396682 -0.000762336 3.01181e-11 1.60655e-10 -7.89178e-12 5e-05 1.46608e-10 
115 1 0.162359 0.0170506 0.00743903 0.00562374 -5.42458e-05 -6.52122e-05 1.69298e-11 -2.54018e-11 1.98563e-12 5e-05 1.46608e-10 
116 1 0.162436 0.0182065 0.00713965 0.00601215 2.19577e-06 0.000393402 3.48453e-10 1.40112e-10 2.32826e-10 5e-05 1.46608e-10 
117 1 0.162687 0.0173229 0.00735237 0.00588046 -0.000145055 -4.83903e-05 -6.44731e-11 6.1157e-13 -4.14738e-12 5e-05 1.46608e-10 
118 1 0.156347 0.017804 0.00717067 0.00618988 0.000397594 -0.000766752 3.52209e-12 -6.12144e-11 3.99324e-11 5e-05 1.46608e-10 
119 1 0.162276 0.0166679 0.00751406 0.005598 -5.41123e-05 -7.08684e-05 -1.26649e-10 -2.69067e-11 -5.70434e-11 5e-05 1.46608e-10 
120 1 0.162112 0.0163624 0.00779015 0.00549355 3.14518e-05 8.45142e-05 1.40706e-11 4.59632e-11 -5.30074e-11 5e-05 1.46608e-10 
121 1 0.161939 0.0160983 0.00813011 0.00561422 0.000176773 0.000222567 2.23433e-11 1.28402e-10 -7.44558e-11 5e-05 1.46608e-10 
122 1 0.162162 0.0169773 0.00753809 0.00558218 -1.9674e-05 -7.21462e-05 -4.07703e-11 -2.55713e-11 -1.23557e-10 5e-05 1.46608e-10 
123 1 0.156304 0.0176092 0.00718374 0.00622125 0.000398007 -0.000765677 -7.48744e-12 -1.16097e-10 -7.97579e-11 5e-05 1.46608e-10 
124 1 0.162211 0.0172313 0.00746993 0.00571611 -7.15595e-05 -5.04586e-05 1.7162e-10 -2.85349e-10 1.93297e-10 5e-05 1.46608e-10 
125 1 0.162709 0.0174182 0.00732938 0.00590756 -0.000141063 -5.00986e-05 -8.08819e-11 2.4732e-11 -9.62659e-12 5e-05 1.46608e-10 
126 1 0.162049 0.016457 0.0076646 0.00557125 3.49051e-05 7.6259e-05 -4.56719e-11 -1.93133e-11 -8.03433e-12 5e-05 1.46608e-10 
127 1 0.156327 0.0165296 0.00764861 0.00570141 0.000618916 -8.29332e-05 2.95424e-11 3.17061e-11 -1.6746e-11 5e-05 1.46608e-10 
128 1 0.162239 0.016926 0.00745314 0.00559949 -2.04612e-05 -7.40644e-05 -1.20044e-10 4.73491e-11 -2.39337e-11 5e-05 1.46608e-10 
129 1 0.162352 0.0177067 0.00735326 0.00592318 -8.75904e-05 -6.92122e-05 7.11411e-11 7.89055e-11 5.92977e-11 5e-05 1.46608e-10 
131 1 0.156349 0.0166256 0.00761592 0.00567169 0.000560168 -8.41732e-05 -9.42078e-11 -1.46676e-11 -3.87199e-11 5e-05 1.46608e-10 
132 1 0.162407 0.017542 0.00738627 0.00589996 -9.27531e-05 -6.27187e-05 -3.39455e-11 1.40881e-11 6.06135e-11 5e-05 1.46608e-10 
133 1 0.16241 0.0178479 0.00731438 0.00596032 -0.000133584 -7.56215e-05 -3.55549e-10 1.94751e-10 4.94853e-10 5e-05 1.46608e-10 
134 1 0.162181 0.0166385 0.00752324 0.00559438 -4.86864e-05 -3.84394e-05 -7.46497e-11 -4.66501e-11 6.74217e-11 5e-05 1.46608e-10 
135 1 0.16181 0.0157276 0.00858396 0.00595952 0.000149819 0.00027492 -1.91255e-11 6.80636e-12 -7.29139e-12 5e-05 1.46608e-10 
136 1 0.156455 0.018291 0.00713797 0.00612798 0.000395779 -0.000760667 4.76308e-11 2.06401e-10 -1.5612e-11 5e-05 1.46608e-10 
137 1 0.162125 0.0167994 0.00748488 0.00558986 -4.32095e-05 -6.73546e-05 4.70826e-11 5.73829e-11 -4.72443e-11 5e-05 1.46608e-10 
138 1 0.162496 0.0180569 0.00718038 0.00601519 -7.99572e-05 -4.41795e-05 1.02108e-10 3.49336e-10 -2.88784e-10 5e-05 1.46608e-10 
140 1 0.162341 0.0173869 0.00734204 0.00590079 -9.68172e-05 -5.81273e-05 7.40157e-11 6.43497e-11 -4.04925e-11 5e-05 1.46608e-10 
141 1 0.156442 0.0178341 0.00715786 0.00618546 0.000410143 -0.00076787 -3.49143e-12 -2.03769e-11 1.302e-11 5e-05 1.46608e-10 
142 1 0.156282 0.017509 0.00719047 0.00620947 0.000316465 -0.000766521 -1.27988e-11 -1.0455e-10 -9.18615e-13 5e-05 1.46608e-10 
143 1 0.155787 0.0157016 0.00869637 0.00603754 -7.61494e-05 -0.000621701 1.29867e-11 -2.33559e-11 2.65929e-11 5e-05 1.46608e-10 
144 1 0.15639 0.0179988 0.00715759 0.00616507 0.000399478 -0.000765422 -3.58875e-12 2.23748e-11 2.35655e-12 5e-05 1.46608e-10 
147 1 0.156548 0.0175054 0.00717219 0.00630927 0.000485254 9.9416e-06 -3.6834e-11 7.47973e-11 1.16561e-11 5e-05 1.46608e-10 
148 1 0.155952 0.0160997 0.0080226 0.00582985 -4.13497e-05 -0.000650809 -4.11877e-12 9.82111e-12 3.09524e-11 5e-05 1.46608e-10 
149 1 0.162295 0.0171932 0.00738879 0.00555398 -0.000275975 -1.7683e-05 3.60015e-11 1.14326e-11 4.05899e-13 5e-05 1.46608e-10 
150 1 0.0100679 0.0201683 0.00551526 8.38505e-15 1.2476e-15 -8.48743e-14 -4.73044e-24 1.3536e-22 1.65436e-24 5e-05 1.46608e-10 
151 1 0.156302 0.0172558 0.00728658 0.00603963 0.000450689 0.00010801 -9.8847e-10 -6.57917e-11 -1.53001e-09 5e-05 1.46608e-10 
153 1 0.156632 0.017893 0.00713248 0.0061809 0.000428809 -0.000768296 -3.59587e-11 1.12759e-10 8.73319e-12 5e-05 1.46608e-10 
154 1 0.156369 0.0179014 0.00716413 0.00617668 0.000399526 -0.000767147 -1.5311e-11 -3.55236e-11 -1.41721e-12 5e-05 1.46608e-10 
155 1 0.155974 0.0161579 0.00794454 0.00605729 5.0919e-07 -0.000549617 -3.89355e-11 7.66443e-11 6.18556e-11 5e-05 1.46608e-10 
156 1 0.156399 0.0176394 0.00717182 0.00623546 0.000410184 -0.000643356 -1.13482e-10 -7.90084e-11 -9.65107e-11 5e-05 1.46608e-10 
157 1 0.0219312 0.0187687 0.00551176 -3.82334e-14 8.171e-14 2.95889e-13 7.47564e-23 3.17224e-22 -7.69278e-23 5e-05 1.46608e-10 
158 1 0.156543 0.0170933 0.00737691 0.00599132 0.000489896 -8.10986e-06 -9.96344e-12 -3.29867e-11 1.38426e-11 5e-05 1.46608e-10 
159 1 0.162635 0.0174841 0.00731473 0.00591661 -0.000120859 -5.50965e-05 -3.01054e-11 1.14815e-10 -2.00939e-11 5e-05 1.46608e-10 
160 1 0.156421 0.0177367 0.0071644 0.00620062 0.000406118 -0.000744857 -2.96085e-11 -5.38506e-11 1.00481e-10 5e-05 1.46608e-10 
162 1 0.156494 0.0176687 0.00715825 0.00622143 0.000427486 -0.000772247 -1.30798e-11 4.03334e-11 -4.69483e-11 5e-05 1.46608e-10 
164 1 0.156196 0.0167318 0.00754295 0.00571872 0.000629037 -8.82844e-05 -4.41156e-11 -3.20354e-11 3.38363e-11 5e-05 1.46608e-10 
165 1 0.156386 0.0172094 0.00731298 0.00627523 0.000405883 6.19445e-05 -8.82581e-10 6.8384e-10 3.30865e-11 5e-05 1.46608e-10 
166 1 0.162537 0.0182476 0.00713434 0.00595119 -1.41188e-05 0.000232086 -5.37512e-10 2.61951e-10 5.85326e-11 5e-05 1.46608e-10 
168 1 0.156273 0.0166753 0.00757406 0.00571565 0.000626273 -8.63845e-05 -1.59902e-11 3.4677e-11 -1.60831e-11 5e-05 1.46608e-10 
169 1 0.156178 0.0170744 0.00743925 0.00565037 0.000665795 -0.000113214 7.51578e-11 9.3412e-11 -1.03307e-10 5e-05 1.46608e-10 
170 1 0.156384 0.0167987 0.00751708 0.00553896 0.00092875 -0.000243496 -2.46386e-10 4.07138e-10 -2.11079e-10 5e-05 1.46608e-10 
171 1 0.162415 0.0181122 0.00716508 0.00600353 2.06737e-06 0.000376147 -7.08122e-12 -7.81147e-12 -3.00137e-11 5e-05 1.46608e-10 
172 1 0.156337 0.0171629 0.00744008 0.00602897 0.000604487 -0.000105467 -1.0543e-10 1.15745e-11 1.2201e-11 5e-05 1.46608e-10 
173 1 0.162466 0.0175202 0.00730855 0.00590947 -0.000106276 -5.67259e-05 -1.48352e-11 1.63001e-11 2.31958e-11 5e-05 1.46608e-10 
174 1 0.156233 0.0164994 0.00765991 0.00569594 0.000630176 -8.90487e-05 4.47232e-11 2.20769e-11 -1.44371e-11 5e-05 1.46608e-10 
175 1 0.150301 0.0176056 0.00725563 0.00579672 -0.000908557 0.00017812 2.01742e-10 -2.41363e-10 6.84041e-11 5e-05 1.46608e-10 
177 1 0.156229 0.0169102 0.00745555 0.00567081 0.000666039 -0.000107882 4.3191e-11 -5.35763e-11 5.29834e-11 5e-05 1.46608e-10 
178 1 0.156321 0.0169462 0.00744129 0.00573054 0.000538324 -4.2268e-05 2.86361e-11 -4.66677e-12 -4.38964e-12 5e-05 1.46608e-10 
179 1 0.156373 0.0171194 0.0073572 0.00608439 0.000470884 -3.32605e-06 -1.05234e-10 1.18454e-10 -7.76985e-11 5e-05 1.46608e-10 
181 1 0.156529 0.0174144 0.00721669 0.00621904 0.000508897 -1.74783e-06 -1.31905e-10 1.31942e-10 -1.2389e-10 5e-05 1.46608e-10 
182 1 0.162393 0.0180179 0.00719052 0.00598142 7.64994e-06 0.000372631 -1.05414e-10 -1.38352e-10 -2.8454e-11 5e-05 1.46608e-10 
183 1 0.156368 0.0167133 0.0075718 0.00561845 0.000584294 -7.23763e-05 -7.49677e-11 2.02309e-11 -1.14536e-11 5e-05 1.46608e-10 
184 1 0.162363 0.0174823 0.00731901 0.00590601 -0.000109598 -5.59067e-05 2.30182e-11 1.00707e-10 -3.26817e-11 5e-05 1.46608e-10 
186 1 0.156258 0.0174034 0.0072115 0.00682345 4.91266e-05 -0.000317725 0 0 -1.43822e-09 5e-05 1.46608e-10 
187 1 0.162328 0.0177333 0.00725977 0.00593384 -9.16262e-05 -6.43567e-05 -1.74406e-11 -8.23394e-11 3.41043e-11 5e-05 1.46608e-10 
188 1 0.162138 0.0166831 0.00760223 0.00565322 4.36426e-05 -4.11489e-05 3.2285e-11 -8.47454e-11 1.87389e-10 5e-05 1.46608e-10 
189 1 0.162431 0.0177709 0.00724937 0.00592232 -0.000102367 -5.99772e-05 -4.34938e-11 -9.73417e-11 6.94644e-11 5e-05 1.46608e-10 
190 1 0.150599 0.0184764 0.00695503 0.00595688 -0.000912609 0.000175194 -1.95608e-10 8.28657e-11 1.42e-11 5e-05 1.46608e-10 
191 1 0.162146 0.0168801 0.00756081 0.00561757 -1.9641e-05 -5.87341e-05 5.44079e-11 4.68857e-11 -1.00411e-10 5e-05 1.46608e-10 
192 1 0.156601 0.0169481 0.00745136 0.00581585 0.000428547 1.58503e-05 -5.05487e-11 -1.2997e-10 6.46328e-11 5e-05 1.46608e-10 
193 1 0.162354 0.0166076 0.00752729 0.00556848 -0.000101135 -5.27522e-05 -8.31042e-11 -5.57463e-13 9.94133e-12 5e-05 1.46608e-10 
194 1 0.161461 0.0182058 0.00533758 1.61974e-15 -1.09987e-14 8.66685e-14 -3.70234e-22 7.49632e-25 7.44463e-24 5e-05 1.46608e-10 
195 1 0.156467 0.01715 0.00734571 0.00605222 0.000555501 -3.8906e-05 -8.44557e-12 -4.45105e-11 2.6543e-11 5e-05 1.46608e-10 
196 1 0.156118 0.016382 0.00771712 0.00569583 0.00064136 -9.74886e-05 3.24459e-11 -1.62722e-11 2.89115e-12 5e-05 1.46608e-10 
197 1 0.150365 0.0178827 0.00716064 0.00586734 -0.000923328 0.000180736 3.22391e-10 2.35893e-11 -2.25136e-12 5e-05 1.46608e-10 
198 1 0.156529 0.0182238 0.00713171 0.00613598 0.000404799 -0.000761949 3.88911e-11 1.93333e-10 -1.1967e-11 5e-05 1.46608e-10 
199 1 0.156486 0.0180289 0.00714479 0.00616159 0.00040754 -0.000765111 -7.64412e-13 1.06292e-10 -5.33463e-12 5e-05 1.46608e-10 
201 1 0.156246 0.0170891 0.00736728 0.00586793 0.000442482 1.6605e-05 3.16416e-10 -1.23319e-10 1.1519e-10 5e-05 1.46608e-10 
202 1 0.156428 0.0173806 0.00722951 0.00620601 0.00057239 -4.68679e-05 -2.72581e-11 -3.52437e-11 -1.66005e-11 5e-05 1.46608e-10 
203 1 0.162199 0.0171636 0.00739716 0.00563013 -3.20533e-05 -5.87308e-05 1.40659e-10 -6.4432e-11 1.57607e-10 5e-05 1.46608e-10 
204 1 0.155854 0.01585 0.00844446 0.00593226 -5.65837e-05 -0.000640512 -1.52471e-10 5.65519e-11 -7.71455e-11 5e-05 1.46608e-10 
205 1 0.156525 0.0170049 0.00742011 0.00588607 0.000502975 -1.83767e-05 4.67867e-11 2.13598e-12 3.50967e-12 5e-05 1.46608e-10 
206 1 0.156157 0.0165575 0.00762809 0.00569526 0.000634339 -9.15634e-05 2.26924e-12 -4.86125e-11 -1.54479e-11 5e-05 1.46608e-10 
207 1 0.15622 0.0168216 0.00759963 0.00566962 0.000694532 -0.000113833 2.88676e-10 2.81636e-11 1.61783e-11 5e-05 1.46608e-10 
208 1 0.1563 0.017498 0.00728805 0.00640139 0.00133861 -0.000688077 6.58394e-11 -2.81423e-11 1.50657e-12 5e-05 1.46608e-10 
209 1 0.153098 0.0169354 0.00741993 0.00501086 -0.00313351 0.000946915 -9.99124e-13 1.6183e-13 3.27995e-13 5e-05 1.46608e-10 
210 1 0.162408 0.0176762 0.00727683 0.00592256 -0.000102032 -6.37479e-05 -9.13234e-11 -1.05073e-10 3.1418e-11 5e-05 1.46608e-10 
211 1 0.162306 0.0176387 0.00728362 0.00591832 -9.56292e-05 -7.58445e-05 7.03525e-11 3.42982e-11 -1.89912e-11 5e-05 1.46608e-10 
212 1 0.15649 0.0172375 0.00730309 0.00611855 0.000543064 -3.19381e-05 -6.07053e-11 -4.7297e-11 2.60377e-11 5e-05 1.46608e-10 
213 1 0.162475 0.0179624 0.00720493 0.00597424 -8.34816e-05 -0.000144176 -7.53228e-11 -3.51469e-10 4.0917e-10 5e-05 1.46608e-10 
214 1 0.162242 0.0173537 0.00735133 0.00588958 -8.70639e-05 -5.91364e-05 2.76183e-12 1.36541e-10 -1.98567e-11 5e-05 1.46608e-10 
215 1 0.150536 0.0186274 0.0069379 0.00552244 -0.000837205 0.00110668 1.96833e-11 -1.49199e-10 -4.42618e-11 5e-05 1.46608e-10 
216 1 0.156436 0.0171474 0.0074408 0.00599546 0.000573586 -5.70657e-05 1.63336e-11 -3.14806e-12 5.44288e-11 5e-05 1.46608e-10 
217 1 0.162615 0.0181857 0.00714808 0.00593165 -0.000122739 -4.65344e-05 -2.10045e-11 1.25324e-11 3.07262e-11 5e-05 1.46608e-10 
218 1 0.156004 0.016275 0.00778808 0.00569645 0.000547698 -0.000203526 4.52955e-11 1.87331e-11 9.71874e-12 5e-05 1.46608e-10 
219 1 0.162272 0.0170965 0.00741211 0.00558443 -7.50624e-05 -6.6269e-05 -1.06777e-11 -3.29272e-10 2.06542e-11 5e-05 1.46608e-10 
220 1 0.156416 0.0173038 0.00729237 0.00614643 0.000573832 -5.767e-05 4.52268e-11 -1.60992e-11 -3.09584e-13 5e-05 1.46608e-10 
221 1 0.216508 0.0185474 0.00703423 0.00489807 -0.0052202 -0.00144211 9.89208e-13 -1.0176e-12 -2.84999e-13 5e-05 1.46608e-10 
222 1 0.16257 0.0171991 0.00738349 0.00587341 -0.000129143 -5.23056e-05 6.29819e-11 2.6767e-11 -7.35678e-12 5e-05 1.46608e-10 
223 1 0.156357 0.0174511 0.0072205 0.00621876 0.000552767 -0.0003139 1.37099e-11 -1.76708e-11 -1.02912e-11 5e-05 1.46608e-10 
224 1 0.139162 0.0168192 0.00830474 -2.59109e-05 -0.00499457 0.00351272 -2.96312e-13 1.89536e-10 -1.44864e-10 5e-05 1.46608e-10 
225 1 0.16222 0.0168306 0.00747611 0.00558428 -4.50297e-05 -6.70483e-05 -1.71857e-11 -1.10663e-11 -2.05002e-11 5e-05 1.46608e-10 
226 1 0.156296 0.0172684 0.00739939 0.00609555 0.000587551 -0.000344361 -3.77981e-10 1.3299e-10 -1.16628e-10 5e-05 1.46608e-10 
227 1 0.150549 0.0182831 0.00702138 0.00597104 -0.000941674 0.000185896 1.13313e-10 1.30085e-10 -5.20317e-11 5e-05 1.46608e-10 
228 1 0.150322 0.0176979 0.00722397 0.00582992 -0.000894637 0.000173464 -4.30738e-10 -8.1069e-11 2.85748e-11 5e-05 1.46608e-10 
229 1 0.156584 0.017269 0.00729118 0.00613872 0.000489164 -1.25351e-06 -1.19476e-10 1.14499e-10 -6.15657e-11 5e-05 1.46608e-10 
230 1 0.156139 0.0168856 0.00749391 0.00568836 0.000637562 -9.02597e-05 2.9489e-11 3.45471e-11 8.89883e-11 5e-05 1.46608e-10 
231 1 0.150279 0.0175132 0.0072873 0.00580077 -0.000910933 0.000178753 3.14295e-10 9.17771e-11 -3.86015e-11 5e-05 1.46608e-10 
232 1 0.156537 0.0178636 0.00714517 0.00618313 0.000419338 -0.000768501 -2.68549e-11 5.08738e-11 2.86545e-12 5e-05 1.46608e-10 
234 1 0.162465 0.0177034 0.00735436 0.00592428 -0.000171545 -4.99019e-05 -3.26009e-11 4.64622e-11 -5.04492e-11 5e-05 1.46608e-10 
235 1 0.156401 0.0168873 0.00747375 0.00572647 0.000627724 -8.65153e-05 -3.0366e-11 -2.21396e-11 2.51695e-11 5e-05 1.46608e-10 
236 1 0.156121 0.016789 0.00751153 0.00572115 0.000629062 -8.83107e-05 -1.45599e-11 -2.38531e-12 6.45939e-11 5e-05 1.46608e-10 
237 1 0.156082 0.0166208 0.00761123 0.00569511 0.000633277 -9.29367e-05 1.46495e-11 -6.44091e-13 1.1567e-11 5e-05 1.46608e-10 
239 1 0.150114 0.0167727 0.00754095 0.005422 -0.000819386 0.000156527 4.93027e-12 -5.91834e-12 2.75518e-12 5e-05 1.46608e-10 
240 1 0.150134 0.0168655 0.00750919 0.00540376 -0.000819447 0.000156959 -3.98787e-12 -7.2356e-12 9.00319e-14 5e-05 1.46608e-10 
241 1 0.150194 0.0171436 0.00741397 0.00571828 -0.000889688 0.000173567 4.03336e-13 2.70696e-11 -1.52725e-11 5e-05 1.46608e-10 
242 1 0.156325 0.0177066 0.0071772 0.00620014 0.0003968 -0.000768794 -2.60921e-11 -8.36825e-11 9.51021e-11 5e-05 1.46608e-10 
244 1 0.150153 0.0169583 0.00747742 0.00538578 -0.000818989 0.000157155 -6.24019e-12 -1.03968e-13 6.05892e-12 5e-05 1.46608e-10 
246 1 0.150258 0.0174208 0.00731897 0.00578511 -0.000894643 0.000173747 -3.09589e-10 1.55001e-10 -3.67975e-11 5e-05 1.46608e-10 
247 1 0.156507 0.0173265 0.00725953 0.00616922 0.00051731 -1.58859e-05 -1.10658e-12 1.45667e-10 -7.34877e-11 5e-05 1.46608e-10 
248 1 0.156159 0.0169805 0.00746898 0.00566459 0.000646703 -0.000109674 1.22863e-11 6.17389e-11 8.51674e-11 5e-05 1.46608e-10 
249 1 0.150516 0.0185295 0.00693925 0.0059495 -0.000935073 0.000151477 -2.00851e-10 -3.77541e-11 -6.16066e-11 5e-05 1.46608e-10 
250 1 0.155998 0.0162259 0.00787496 0.0059646 0.000199059 -0.000381858 -1.20217e-11 7.16376e-11 3.84765e-11 5e-05 1.46608e-10 
251 1 0.162221 0.0172587 0.00737424 0.0057661 -5.96874e-05 -5.92691e-05 -4.41177e-11 1.87971e-11 4.47559e-11 5e-05 1.46608e-10 
252 1 0.150408 0.0180675 0.0070973 0.00593276 -0.000916381 0.000179889 -2.3923e-10 1.33138e-10 -4.09769e-11 5e-05 1.46608e-10 
253 1 0.150673 0.0184117 0.00697524 0.00596748 -0.000900735 0.000171576 -1.46608e-10 1.74773e-10 -5.26613e-11 5e-05 1.46608e-10 
254 1 0.150237 0.0173284 0.00735063 0.00574118 -0.000892734 0.000174498 -3.15454e-11 -1.0866e-10 4.15786e-11 5e-05 1.46608e-10 
255 1 0.156464 0.0179315 0.00715132 0.00617442 0.000408935 -0.000767204 -2.24378e-11 4.6173e-11 -2.21681e-12 5e-05 1.46608e-10 
256 1 0.156507 0.0169166 0.00746333 0.00577625 0.000515353 -2.86739e-05 -6.68118e-11 5.63907e-11 -3.38657e-11 5e-05 1.46608e-10 
257 1 0.156296 0.0170423 0.00748119 0.0057853 0.000547797 -0.0001755 -2.24375e-10 -2.10489e-11 -1.95934e-10 5e-05 1.46608e-10 
258 1 0.156294 0.0171804 0.00735193 0.00607963 0.000469377 -0.000108396 6.59744e-11 2.08979e-10 -2.14759e-10 5e-05 1.46608e-10 
259 1 0.15043 0.0181599 0.00706564 0.00593807 -0.000935474 0.000184906 2.58458e-10 1.68582e-10 -3.04808e-11 5e-05 1.46608e-10 