ITEM: TIMESTEP
34800000
ITEM: NUMBER OF ATOMS
271
ITEM: BOX BOUNDS ff ff ff
-0.02 0.43
-0.02 0.06
-0.02 0.07
ITEM: ATOMS id type x y z vx vy vz fx fy fz radius mass 
1 1 0.215345 0.0153672 0.00896391 0.00580579 1.54226e-05 -0.000336893 8.4921e-11 -2.76584e-11 -3.34772e-11 5e-05 1.46608e-10 
2 1 0.216186 0.0177996 0.00700328 0.00608387 0.00041042 0.000287991 3.8533e-10 2.44425e-09 -1.48178e-09 5e-05 1.46608e-10 
3 1 0.210328 0.0176776 0.00715367 0.00585364 0.000289687 9.35163e-05 -2.34661e-10 5.253e-10 -1.43538e-10 5e-05 1.46608e-10 
4 1 0.2163 0.0176847 0.00703936 0.00650635 0.000324081 -0.000260389 1.95935e-10 3.21415e-10 -1.44059e-10 5e-05 1.46608e-10 
5 1 0.215325 0.0152918 0.00902631 0.00577266 9.5411e-06 -0.000330388 2.44599e-10 -2.95848e-11 -1.64029e-10 5e-05 1.46608e-10 
6 1 0.221771 0.0168412 0.00755228 0.0062569 0.000710137 -0.000121622 8.29326e-11 1.23669e-10 -8.82205e-11 5e-05 1.46608e-10 
7 1 0.215429 0.0156684 0.00871449 0.0059033 2.60322e-05 -0.000351776 1.50711e-11 1.29957e-11 4.20143e-11 5e-05 1.46608e-10 
8 1 0.215304 0.0152164 0.00908873 0.00576408 -1.72264e-06 -0.000319465 2.9109e-10 -1.03958e-10 -8.92771e-13 5e-05 1.46608e-10 
9 1 0.221896 0.0172906 0.00717469 0.00623463 0.000750266 -0.000153785 -3.87002e-10 1.70179e-10 -3.83954e-10 5e-05 1.46608e-10 
10 1 0.215911 0.0174092 0.00729697 0.00603595 -0.000318797 8.59764e-05 -9.45641e-10 1.96387e-09 6.02899e-10 5e-05 1.46608e-10 
11 1 0.216049 0.0175715 0.00713058 0.0059903 -0.000233842 -7.56635e-05 -3.98815e-10 4.80134e-10 -1.05412e-09 5e-05 1.46608e-10 
12 1 0.209438 0.0156394 0.00859505 0.00550906 0.000556099 -0.000134417 -1.49414e-11 2.30501e-10 -2.16497e-10 5e-05 1.46608e-10 
13 1 0.215243 0.0149901 0.00927597 0.0058175 -6.05408e-05 -0.000278028 -1.50569e-11 4.77089e-11 -3.41032e-11 5e-05 1.46608e-10 
14 1 0.210106 0.0182929 0.00696545 0.00569601 0.000404578 5.15466e-05 -1.06929e-10 -1.95989e-11 3.10511e-11 5e-05 1.46608e-10 
15 1 0.216323 0.0176 0.00708748 0.00632861 7.21163e-05 -0.000600926 6.23884e-10 -2.9428e-12 -9.38391e-11 5e-05 1.46608e-10 
16 1 0.210205 0.0183379 0.00698165 0.00568097 0.000283718 7.90125e-05 -1.10526e-10 1.19795e-10 7.72745e-11 5e-05 1.46608e-10 
17 1 0.216284 0.0177789 0.00700988 0.00619735 0.000432982 0.000177396 -5.02224e-10 -1.36678e-10 -6.76476e-10 5e-05 1.46608e-10 
19 1 0.215284 0.0151409 0.00915114 0.00578769 -2.13874e-05 -0.000305799 9.62594e-11 -4.65831e-11 1.63971e-11 5e-05 1.46608e-10 
21 1 0.215868 0.0172484 0.00740635 0.00604272 -0.000207902 -0.000182577 -1.07678e-09 -1.93889e-09 1.31522e-09 5e-05 1.46608e-10 
22 1 0.216108 0.0174087 0.00726093 0.00643303 -4.64414e-06 -0.000444797 7.64959e-10 -8.72097e-10 8.32523e-10 5e-05 1.46608e-10 
23 1 0.209668 0.0160915 0.00803893 0.00570651 0.000464007 2.33644e-05 -9.81363e-11 -5.64374e-11 7.45108e-11 5e-05 1.46608e-10 
24 1 0.221978 0.0176766 0.00710994 0.00586309 0.000800694 -0.000341947 -1.23679e-10 9.81405e-12 3.29788e-11 5e-05 1.46608e-10 
25 1 0.215496 0.0158936 0.00852783 0.00564057 7.0986e-05 -0.00037709 -2.2238e-10 7.77492e-11 -6.09123e-11 5e-05 1.46608e-10 
26 1 0.221855 0.0171408 0.00730055 0.00642153 0.000720041 -0.000115442 -7.34704e-11 -3.98044e-11 1.03516e-11 5e-05 1.46608e-10 
27 1 0.210409 0.018054 0.00704515 0.0056137 0.000292215 8.65121e-05 -4.35395e-10 6.90656e-11 -3.12165e-11 5e-05 1.46608e-10 
28 1 0.216208 0.0176178 0.00708101 0.00625576 7.89571e-06 -0.000481677 -1.4999e-09 1.44736e-09 8.43234e-10 5e-05 1.46608e-10 
29 1 0.215452 0.0157434 0.00865233 0.00591532 1.70468e-05 -0.000341875 -2.78257e-10 2.7487e-11 3.72084e-11 5e-05 1.46608e-10 
30 1 0.215972 0.0176364 0.00720256 0.00608721 -0.000115447 -0.00023544 0 0 -1.43822e-09 5e-05 1.46608e-10 
31 1 0.215517 0.0159689 0.00846548 0.00553217 9.40349e-05 -0.000387366 -2.53233e-10 7.97264e-11 -7.10133e-11 5e-05 1.46608e-10 
32 1 0.215981 0.016958 0.00763596 0.00599283 0.000202253 -0.000501354 -2.47461e-10 1.279e-10 -8.47646e-11 5e-05 1.46608e-10 
33 1 0.221792 0.0169161 0.00748935 0.00630205 0.000715162 -0.000119468 -1.62428e-11 1.22614e-10 -1.22472e-10 5e-05 1.46608e-10 
34 1 0.215407 0.0155934 0.00877669 0.00588159 3.148e-05 -0.000354848 -2.13934e-10 1.45767e-10 -4.34126e-11 5e-05 1.46608e-10 
35 1 0.216163 0.0172491 0.00738887 0.00616031 0.000146764 -0.000558856 1.87313e-10 3.09525e-11 1.36259e-11 5e-05 1.46608e-10 
36 1 0.221957 0.0175799 0.00712467 0.00583502 0.000798717 -0.000337868 -1.82074e-10 -9.14608e-11 4.32999e-12 5e-05 1.46608e-10 
37 1 0.216064 0.0180838 0.00699983 0.00601504 -0.000113135 -1.4323e-05 5.58812e-09 5.17862e-08 -4.67068e-09 5e-05 1.46608e-10 
38 1 0.216215 0.0183898 0.00703765 0.00563162 0.000335103 -0.000542802 -1.4621e-10 -2.72185e-10 -1.09584e-10 5e-05 1.46608e-10 
39 1 0.221998 0.0177734 0.00709521 0.00587491 0.000793965 -0.000342034 -1.68839e-11 4.84598e-11 1.22488e-11 5e-05 1.46608e-10 
41 1 0.216314 0.0178735 0.00699762 0.00602602 0.000507492 0.000187221 -4.18838e-12 5.27568e-10 -3.325e-10 5e-05 1.46608e-10 
42 1 0.321436 0.0173475 0.00552525 4.56353e-16 2.2551e-15 8.46361e-14 9.49965e-24 -1.20846e-24 0 5e-05 1.46608e-10 
44 1 0.216187 0.0177063 0.00703933 0.00629497 -7.37298e-05 -0.000720984 -1.52206e-09 1.88611e-09 1.59579e-09 5e-05 1.46608e-10 
45 1 0.221813 0.016991 0.00742642 0.00634333 0.000717352 -0.000118096 5.98261e-11 1.21468e-10 -1.09062e-10 5e-05 1.46608e-10 
47 1 0.215365 0.0154426 0.00890148 0.0058459 2.12878e-05 -0.000342497 8.58159e-11 2.72149e-11 -1.42716e-11 5e-05 1.46608e-10 
48 1 0.216182 0.0182808 0.00702197 0.00561945 0.000349732 -0.000524536 -3.38732e-10 -2.80327e-10 -3.22442e-10 5e-05 1.46608e-10 
50 1 0.215559 0.0161194 0.00834087 0.00560325 7.76764e-05 -0.00037697 -9.43904e-11 -6.0031e-11 5.34086e-11 5e-05 1.46608e-10 
51 1 0.215534 0.0160457 0.00840397 0.00554292 9.02075e-05 -0.000388558 -1.23691e-10 4.31578e-12 -1.23036e-11 5e-05 1.46608e-10 
52 1 0.209359 0.0153934 0.00889976 0.0058201 0.000537609 -6.34863e-05 -2.96121e-11 1.61995e-11 -2.3662e-11 5e-05 1.46608e-10 
53 1 0.221937 0.017483 0.0071394 0.00588216 0.000778001 -0.000345269 -1.17607e-10 -9.078e-11 -1.15389e-10 5e-05 1.46608e-10 
54 1 0.216113 0.0179818 0.00706497 0.005682 6.82807e-05 -0.000754822 -1.36785e-10 5.01767e-11 -1.38962e-09 5e-05 1.46608e-10 
55 1 0.209297 0.0152099 0.00912815 0.00580141 0.000552738 -8.56275e-05 -9.01631e-11 1.14167e-10 -1.08161e-10 5e-05 1.46608e-10 
56 1 0.216092 0.0182167 0.00702032 0.00584515 8.32509e-05 -0.00057887 -1.87115e-10 -6.91661e-10 -8.65862e-12 5e-05 1.46608e-10 
57 1 0.221834 0.0170659 0.00736349 0.00637073 0.000717471 -0.000118597 4.96056e-11 4.03566e-11 -2.60809e-11 5e-05 1.46608e-10 
59 1 0.216084 0.0173346 0.00732384 0.00629056 8.30153e-05 -0.000473176 -1.55539e-10 -9.2252e-10 5.96372e-10 5e-05 1.46608e-10 
61 1 0.215841 0.0168178 0.00775771 0.00592627 -5.43199e-06 -0.000328091 2.87545e-10 -1.53805e-10 1.32294e-10 5e-05 1.46608e-10 
62 1 0.216333 0.0180529 0.00697297 0.00591434 0.000472662 0.000149438 -4.93339e-10 1.8826e-10 -7.0831e-12 5e-05 1.46608e-10 
63 1 0.216353 0.0175254 0.00714697 0.00625303 0.000114316 -0.000551745 -1.0646e-10 -2.95495e-10 4.38392e-11 5e-05 1.46608e-10 
64 1 0.222019 0.0178702 0.00708048 0.0058904 0.000782955 -0.000340248 8.23715e-11 -6.35536e-11 -2.6822e-11 5e-05 1.46608e-10 
65 1 0.209612 0.0161992 0.00791278 0.00569369 0.000262845 -0.000513349 2.35884e-10 -8.69687e-11 7.4699e-10 5e-05 1.46608e-10 
66 1 0.209276 0.0151486 0.00920444 0.00579603 0.00055282 -8.59452e-05 1.1057e-10 1.90324e-10 -2.34683e-10 5e-05 1.46608e-10 
67 1 0.216118 0.0179149 0.00698437 0.00568984 0.000177003 0.000186969 -1.23152e-09 2.88451e-10 7.93246e-10 5e-05 1.46608e-10 
68 1 0.216021 0.0171088 0.00751113 0.00602058 0.000185439 -0.000486461 1.60349e-10 -1.66258e-10 1.21689e-10 5e-05 1.46608e-10 
69 1 0.216127 0.0180793 0.00708236 0.00572808 7.09052e-05 -0.000525033 -7.63527e-10 -1.35478e-10 2.84247e-10 5e-05 1.46608e-10 
70 1 0.221875 0.0172157 0.00723766 0.00630926 0.000734253 -0.000136288 -9.64304e-11 1.63949e-10 -1.5115e-10 5e-05 1.46608e-10 
71 1 0.20934 0.0153379 0.00898094 0.00589388 0.000522024 -6.14364e-05 -1.06582e-10 2.60695e-12 -5.12415e-11 5e-05 1.46608e-10 
72 1 0.216003 0.0177941 0.00699714 0.005971 0.000577498 0.00020241 2.38729e-09 -7.12255e-10 1.89953e-09 5e-05 1.46608e-10 
73 1 0.216121 0.0183573 0.007042 0.00562124 0.000390665 -0.000544215 -8.27806e-10 6.76989e-10 -1.99768e-10 5e-05 1.46608e-10 
74 1 0.216184 0.0181824 0.00700463 0.00564886 0.000352525 -0.000562004 -7.17715e-10 2.8112e-10 -2.96284e-10 5e-05 1.46608e-10 
76 1 0.210334 0.0181166 0.00702439 0.00564531 0.000299514 8.00827e-05 -2.90054e-10 1.03405e-10 -1.03812e-10 5e-05 1.46608e-10 
77 1 0.216184 0.0173237 0.00732569 0.00629442 0.000115441 -0.000549433 1.85359e-10 1.21952e-10 -1.95235e-10 5e-05 1.46608e-10 
78 1 0.210087 0.0181986 0.00699268 0.00561075 0.000404893 5.12289e-05 -5.5738e-10 1.82491e-10 -5.66272e-11 5e-05 1.46608e-10 
79 1 0.209398 0.0155159 0.00874722 0.00562559 0.000556689 -9.83008e-05 -6.90602e-11 9.35903e-11 -2.13611e-10 5e-05 1.46608e-10 
80 1 0.216283 0.0179681 0.00698901 0.00588496 0.000458229 3.92128e-05 -2.74206e-10 9.53435e-11 -2.11873e-10 5e-05 1.46608e-10 
81 1 0.210216 0.0184232 0.00693038 0.00571326 0.000283464 8.66341e-05 -1.43158e-10 2.09837e-10 6.82791e-11 5e-05 1.46608e-10 
82 1 0.209457 0.0157014 0.00851877 0.0055448 0.000558451 -0.000127626 -6.28974e-11 1.54198e-10 -1.34959e-10 5e-05 1.46608e-10 
83 1 0.210144 0.0180559 0.0070634 0.00589402 0.000304659 9.07804e-05 -6.31486e-11 -7.78536e-12 -9.89925e-13 5e-05 1.46608e-10 
84 1 0.221917 0.0173862 0.00715413 0.00603779 0.000729745 -0.000423519 -2.93977e-10 1.0254e-10 -1.60882e-10 5e-05 1.46608e-10 
85 1 0.210349 0.0177716 0.0071266 0.00587192 0.000286453 9.48592e-05 -4.2255e-10 4.10416e-10 -1.43531e-10 5e-05 1.46608e-10 
86 1 0.216381 0.0179507 0.00698924 0.00587919 0.000429969 0.000160829 -6.52461e-10 1.55152e-10 2.79103e-11 5e-05 1.46608e-10 
87 1 0.216291 0.0183269 0.00701853 0.00559809 0.000351141 -0.000534714 -5.87235e-10 -2.43651e-10 5.55551e-11 5e-05 1.46608e-10 
88 1 0.215722 0.0167224 0.00784194 0.00584573 1.97515e-05 -0.000340762 3.93442e-12 -1.8674e-10 1.59706e-10 5e-05 1.46608e-10 
89 1 0.216272 0.0182298 0.00700337 0.00572057 0.000303969 -0.000558627 -5.63148e-10 -1.99213e-10 3.4997e-11 5e-05 1.46608e-10 
90 1 0.216084 0.0176448 0.00706751 0.00338695 -0.000806902 0.000450618 0 0 -1.43822e-09 5e-05 1.46608e-10 
91 1 0.210389 0.0179598 0.00707233 0.00592454 0.000239186 0.000110903 -2.81669e-10 8.79151e-11 -8.77203e-11 5e-05 1.46608e-10 
92 1 0.216164 0.0180857 0.00698953 0.00560385 0.000241787 -0.000557716 -8.00228e-10 -5.10324e-10 1.3148e-10 5e-05 1.46608e-10 
93 1 0.215597 0.0162721 0.00821766 0.00564853 6.73932e-05 -0.000371495 8.5487e-11 -6.40524e-11 4.51823e-11 5e-05 1.46608e-10 
94 1 0.21603 0.0174964 0.00719402 0.00612937 -0.000382652 -0.000321573 -6.65818e-10 1.84027e-09 -2.4305e-09 5e-05 1.46608e-10 
95 1 0.215985 0.0173459 0.00732059 0.00622233 -0.00031666 -9.00402e-05 4.6415e-10 -6.17484e-10 1.0486e-09 5e-05 1.46608e-10 
96 1 0.21562 0.0163455 0.00815374 0.00571774 4.85616e-05 -0.000360004 3.8122e-11 -7.23691e-11 5.94395e-11 5e-05 1.46608e-10 
97 1 0.209727 0.0162966 0.00782836 0.00588825 5.00521e-05 -0.00032683 -2.4016e-10 -9.83755e-11 -1.5705e-10 5e-05 1.46608e-10 
98 1 0.216148 0.0175583 0.00713444 0.00615218 1.56198e-05 -0.000449321 -2.98197e-10 2.76244e-10 6.19732e-10 5e-05 1.46608e-10 
99 1 0.209831 0.0166747 0.00751819 0.00630008 -1.94652e-05 -0.000319867 1.91741e-11 -2.51941e-10 1.5042e-10 5e-05 1.46608e-10 
100 1 0.216259 0.0181176 0.00698984 0.00584224 0.000448697 -5.65909e-05 -3.76757e-10 3.05277e-10 4.89986e-10 5e-05 1.46608e-10 
101 1 0.209418 0.0155772 0.0086707 0.00553468 0.000560358 -0.000120377 1.71018e-10 1.81552e-10 -2.27382e-10 5e-05 1.46608e-10 
102 1 0.0643568 0.0187248 0.00531097 4.11174e-15 1.06006e-14 8.29551e-14 -7.45975e-22 6.65725e-22 -4.92172e-23 5e-05 1.46608e-10 
103 1 0.24257 0.0191927 0.00520306 -1.01195e-22 4.86658e-23 1.23839e-22 0 0 0 5e-05 1.46608e-10 
104 1 0.210045 0.0175815 0.00717336 0.00578498 0.000277812 9.49241e-05 7.63784e-11 2.04661e-10 -6.86788e-11 5e-05 1.46608e-10 
105 1 0.210465 0.017897 0.00709312 0.00590704 0.000192578 0.000123629 -4.98872e-10 6.68614e-11 -1.99575e-11 5e-05 1.46608e-10 
106 1 0.210289 0.0174878 0.00720844 0.00582984 0.00021587 0.000114433 1.89883e-10 8.39487e-11 -1.62163e-11 5e-05 1.46608e-10 
107 1 0.210269 0.017392 0.00723608 0.00615792 0.000593713 1.26461e-05 2.08434e-10 -6.18916e-11 2.4191e-11 5e-05 1.46608e-10 
108 1 0.216087 0.0181675 0.00710728 0.00579356 0.00011287 -0.000508531 -3.10753e-10 -1.61528e-10 2.7184e-10 5e-05 1.46608e-10 
109 1 0.216325 0.0174523 0.00720937 0.0062677 0.000125172 -0.000550546 -3.27547e-11 5.0938e-11 -1.45845e-10 5e-05 1.46608e-10 
110 1 0.215641 0.0164209 0.00809139 0.0057542 3.91323e-05 -0.000356373 -6.49848e-11 -4.92366e-12 2.59483e-11 5e-05 1.46608e-10 
111 1 0.215964 0.0172703 0.00738316 0.00616426 -0.000158298 -0.000229483 1.57895e-10 -1.12242e-09 7.94186e-10 5e-05 1.46608e-10 
112 1 0.210107 0.0178632 0.00709219 0.00573836 0.000258747 0.000102265 -3.01578e-11 2.79422e-10 8.44906e-11 5e-05 1.46608e-10 
113 1 0.209694 0.016502 0.00766454 0.00622548 3.04218e-05 -0.000350252 -8.82091e-11 -4.06979e-10 3.29363e-10 5e-05 1.46608e-10 
114 1 0.210068 0.0181043 0.0070199 0.00589942 0.000320752 9.14872e-05 2.95433e-11 2.14912e-11 -3.96658e-11 5e-05 1.46608e-10 
115 1 0.216255 0.0175456 0.00713725 0.00627224 0.000141169 -0.000575908 -2.41287e-10 4.29286e-10 -2.10319e-10 5e-05 1.46608e-10 
116 1 0.216072 0.017896 0.00709513 0.00618236 -0.000233226 0.000876773 0 0 -1.43822e-09 5e-05 1.46608e-10 
117 1 0.216161 0.018551 0.00707187 0.00556646 0.000427231 -0.000516151 -1.55943e-10 -3.42821e-10 -7.52939e-13 5e-05 1.46608e-10 
118 1 0.209908 0.0173614 0.0072341 0.00620765 -7.57077e-06 0.000192517 -1.62862e-11 -1.7946e-10 5.19564e-11 5e-05 1.46608e-10 
119 1 0.216209 0.0173975 0.00726295 0.00623422 0.000144024 -0.000566411 1.6792e-10 2.55055e-10 -1.61705e-10 5e-05 1.46608e-10 
120 1 0.215474 0.0158184 0.00859015 0.00581517 3.73283e-05 -0.000356219 -6.39579e-10 1.32577e-10 -3.87739e-11 5e-05 1.46608e-10 
121 1 0.215386 0.0155181 0.00883904 0.00586761 2.79027e-05 -0.000349139 1.74714e-10 9.44784e-11 -7.56284e-11 5e-05 1.46608e-10 
122 1 0.215922 0.0171215 0.00751065 0.00601699 -5.19233e-05 -0.00028052 3.18889e-10 -6.46189e-10 5.00711e-10 5e-05 1.46608e-10 
123 1 0.209864 0.0171725 0.00728848 0.00629446 0.000205165 0.000131459 -5.00129e-12 -1.54805e-10 4.0223e-11 5e-05 1.46608e-10 
124 1 0.215943 0.0171947 0.00744577 0.00604053 -0.000103028 -0.000256409 -1.33777e-10 -8.5681e-10 7.36483e-10 5e-05 1.46608e-10 
125 1 0.216235 0.0184868 0.00705262 0.00554478 0.000484939 -0.000503753 -3.56887e-10 -1.8145e-10 1.66458e-12 5e-05 1.46608e-10 
126 1 0.215862 0.0168929 0.00769544 0.00594169 -2.44256e-05 -0.000314179 6.47224e-11 -2.0871e-10 1.45828e-10 5e-05 1.46608e-10 
127 1 0.210484 0.0179913 0.00706593 0.00588277 0.000393808 6.42748e-05 -3.82593e-10 2.63383e-10 -7.35135e-11 5e-05 1.46608e-10 
128 1 0.215902 0.017044 0.00757049 0.00597758 -4.20487e-05 -0.000294834 9.63192e-11 -3.09971e-10 2.70724e-10 5e-05 1.46608e-10 
129 1 0.215971 0.0176271 0.00710212 0.00575007 -8.69296e-06 -0.000315896 5.25934e-11 2.96926e-09 -4.35316e-10 5e-05 1.46608e-10 
131 1 0.210309 0.0175829 0.00718102 0.00585862 0.000303439 8.96071e-05 9.43873e-11 2.15568e-10 -6.29888e-11 5e-05 1.46608e-10 
132 1 0.216079 0.0177262 0.00700962 0.00603275 5.16932e-05 0.000148951 2.47479e-09 4.86282e-09 -1.90286e-09 5e-05 1.46608e-10 
133 1 0.21593 0.0174718 0.00722139 0.00608144 -0.000448067 -9.18394e-05 1.21903e-09 -9.92716e-10 -4.28035e-09 5e-05 1.46608e-10 
134 1 0.215881 0.0169686 0.00763289 0.00595613 -3.95833e-05 -0.000302678 -1.03375e-10 -1.54923e-10 1.79176e-10 5e-05 1.46608e-10 
135 1 0.215264 0.0150655 0.00921356 0.00580338 -4.16732e-05 -0.000291332 3.68315e-11 -5.89185e-12 -2.64726e-13 5e-05 1.46608e-10 
136 1 0.210129 0.0184017 0.00697495 0.00565699 0.000231878 -9.66093e-05 -1.93307e-10 -3.778e-10 5.58568e-11 5e-05 1.46608e-10 
137 1 0.21558 0.0161946 0.00827855 0.00561271 7.38204e-05 -0.000374811 -2.33853e-12 -9.26856e-11 6.63541e-11 5e-05 1.46608e-10 
138 1 0.216019 0.0178044 0.00709537 0.00598466 0.000271298 0.000287938 -2.31017e-10 5.49205e-10 -3.09239e-10 5e-05 1.46608e-10 
140 1 0.216129 0.0174833 0.00719775 0.00626362 9.36778e-06 -0.000416276 -3.34686e-10 -6.81802e-10 -7.63312e-11 5e-05 1.46608e-10 
141 1 0.210124 0.0179617 0.0070902 0.00584952 0.000245919 6.63266e-05 1.14835e-10 3.29895e-10 -3.9035e-11 5e-05 1.46608e-10 
142 1 0.209843 0.0170786 0.0073155 0.00631565 0.000197153 0.000127415 5.28492e-12 -7.50812e-11 -2.72061e-11 5e-05 1.46608e-10 
143 1 0.209318 0.0152712 0.00905186 0.00576999 0.000551586 -8.4899e-05 -6.67005e-11 7.38848e-11 -6.38299e-11 5e-05 1.46608e-10 
144 1 0.20997 0.0176476 0.00717363 0.00570582 0.000211515 0.000131393 8.30798e-11 2.51233e-10 -1.06571e-10 5e-05 1.46608e-10 
147 1 0.210183 0.0182439 0.00700724 0.00565152 0.000277225 3.54464e-06 -3.24934e-10 1.70095e-10 -2.68279e-10 5e-05 1.46608e-10 
148 1 0.209929 0.0166983 0.00749401 0.00632652 -6.16549e-06 -0.000328742 4.03969e-11 -8.50069e-11 5.54863e-11 5e-05 1.46608e-10 
149 1 0.215744 0.0167974 0.00777965 0.00590857 8.38919e-06 -0.00033663 3.5372e-11 -2.58054e-10 2.10986e-10 5e-05 1.46608e-10 
150 1 0.0100679 0.0201683 0.00551526 8.38446e-15 1.24112e-15 -8.48744e-14 6.5916e-24 -1.80913e-23 2.06795e-25 5e-05 1.46608e-10 
151 1 0.2098 0.0168903 0.0073697 0.00641457 0.000478504 5.4774e-05 1.38465e-11 2.44929e-11 -9.50697e-12 5e-05 1.46608e-10 
153 1 0.210164 0.0185803 0.00688249 0.00562646 0.000185939 0.000118043 9.72429e-11 2.84746e-11 -8.39212e-12 5e-05 1.46608e-10 
154 1 0.209929 0.0174552 0.00720708 0.00595235 3.85419e-05 0.000169455 -1.07946e-10 6.25027e-11 -2.24427e-11 5e-05 1.46608e-10 
155 1 0.210132 0.0171719 0.0072968 0.00644217 0.000197206 0.000138265 3.52156e-10 -3.27617e-10 1.04924e-10 5e-05 1.46608e-10 
156 1 0.210076 0.0177716 0.00711825 0.00568883 0.00026089 0.000100118 8.63748e-13 1.95009e-10 -1.90598e-11 5e-05 1.46608e-10 
157 1 0.0219312 0.0187687 0.00551176 -3.82653e-14 8.17028e-14 2.95886e-13 2.12689e-22 2.35902e-22 -3.01921e-23 5e-05 1.46608e-10 
158 1 0.210314 0.0180217 0.00705176 0.00591022 0.000256837 0.000104411 7.61347e-11 3.44193e-10 -7.84984e-11 5e-05 1.46608e-10 
159 1 0.216347 0.0181656 0.00698414 0.00584509 0.00040779 -0.000546797 -2.55154e-10 -6.69534e-11 2.33595e-11 5e-05 1.46608e-10 
160 1 0.209949 0.0175493 0.00717994 0.00569514 0.000181637 0.000120156 -3.67005e-11 -1.65285e-10 4.68999e-11 5e-05 1.46608e-10 
162 1 0.210238 0.0185168 0.00690348 0.00573083 0.000299728 8.44213e-05 1.16851e-11 1.08224e-10 -1.26471e-10 5e-05 1.46608e-10 
164 1 0.209789 0.0165235 0.00764221 0.00627377 -1.04867e-05 -0.000324446 3.57811e-10 -9.98366e-11 8.96086e-11 5e-05 1.46608e-10 
165 1 0.210139 0.0176161 0.00716603 0.00576462 0.00034873 7.2858e-05 1.64662e-10 -1.66023e-10 5.39068e-11 5e-05 1.46608e-10 
166 1 0.216105 0.0182767 0.00709913 0.00582589 0.000282827 -0.000687432 -2.92884e-10 -2.93788e-10 -3.32408e-10 5e-05 1.46608e-10 
168 1 0.209852 0.0167539 0.00746106 0.00631374 6.46545e-07 -0.000290801 5.92179e-11 -2.11965e-10 1.24963e-10 5e-05 1.46608e-10 
169 1 0.210296 0.0183665 0.00694953 0.00570468 0.000257074 9.66223e-05 -1.66983e-10 1.17401e-10 -1.03699e-10 5e-05 1.46608e-10 
170 1 0.210215 0.0175511 0.0071875 0.0058744 0.000282851 9.55616e-05 2.17349e-10 8.41316e-11 -4.62578e-11 5e-05 1.46608e-10 
171 1 0.215992 0.0177175 0.00714775 0.00577391 9.75658e-05 -3.78177e-05 5.39259e-11 3.17172e-10 1.58386e-09 5e-05 1.46608e-10 
172 1 0.21012 0.0175188 0.00719414 0.00586872 0.000281431 9.62277e-05 2.16758e-10 1.23978e-10 -2.6579e-11 5e-05 1.46608e-10 
173 1 0.216217 0.0178945 0.00701034 0.00594481 0.000340794 -0.000263409 1.09921e-11 -7.23811e-11 -1.46943e-09 5e-05 1.46608e-10 
174 1 0.210153 0.0172658 0.00726978 0.00629224 0.000335438 9.29839e-05 1.47276e-10 1.38268e-11 2.26428e-12 5e-05 1.46608e-10 
175 1 0.203868 0.0172224 0.00737138 0.00607885 -0.000354208 -0.000163146 -5.83853e-11 2.82948e-11 -1.39566e-11 5e-05 1.46608e-10 
177 1 0.209968 0.0168596 0.00738388 0.00638046 0.000252548 0.000117687 -1.34384e-10 -1.81154e-10 -3.94002e-12 5e-05 1.46608e-10 
178 1 0.209898 0.0169312 0.00738087 0.0062782 0.000137269 1.44459e-05 7.39549e-12 -1.15963e-10 6.83441e-12 5e-05 1.46608e-10 
179 1 0.209983 0.0172994 0.00725467 0.00636022 0.000154877 0.000147941 3.17847e-10 4.8723e-11 -1.51001e-11 5e-05 1.46608e-10 
181 1 0.210255 0.018175 0.00700478 0.00567371 0.000312449 6.75714e-05 -5.47411e-10 -1.94439e-11 8.81656e-11 5e-05 1.46608e-10 
182 1 0.215951 0.0175482 0.00716023 0.00609128 -0.000539195 -0.000539964 1.47332e-09 2.18188e-09 -1.19609e-09 5e-05 1.46608e-10 
183 1 0.210195 0.0174555 0.00721508 0.00595452 0.000371854 7.18465e-05 -2.66015e-11 -1.6819e-10 4.80425e-11 5e-05 1.46608e-10 
184 1 0.216009 0.0174214 0.0072575 0.00636871 -0.00028963 -0.000134706 4.2877e-10 2.27517e-10 -7.54741e-10 5e-05 1.46608e-10 
186 1 0.209778 0.0168046 0.0074163 0.00639631 0.000188006 -0.000488363 5.30425e-12 2.29038e-11 -2.00041e-11 5e-05 1.46608e-10 
187 1 0.215847 0.0171731 0.0074687 0.00603517 -0.000112516 -0.000247358 -4.10267e-10 -1.59099e-09 1.31166e-09 5e-05 1.46608e-10 
188 1 0.216001 0.0170334 0.00757357 0.0059991 0.000195845 -0.00049432 -6.32405e-11 -2.81193e-11 4.22413e-11 5e-05 1.46608e-10 
189 1 0.216093 0.0178232 0.00703002 0.00578954 0.000239085 0.000227909 -1.12551e-09 1.27547e-09 -1.78922e-09 5e-05 1.46608e-10 
190 1 0.204146 0.0184934 0.0069362 0.00552353 -7.65158e-05 0.000254931 -6.34053e-11 1.40256e-10 8.40895e-12 5e-05 1.46608e-10 
191 1 0.216042 0.0171841 0.00744878 0.00608989 0.000170429 -0.000481597 6.56678e-10 -2.44303e-10 2.32008e-10 5e-05 1.46608e-10 
192 1 0.2101 0.0174239 0.00722151 0.0059541 0.000341635 8.07575e-05 3.43592e-10 -9.15055e-11 3.7578e-11 5e-05 1.46608e-10 
193 1 0.216228 0.0174725 0.00719965 0.00627286 0.000147085 -0.000568137 2.99285e-10 1.04661e-10 1.46601e-10 5e-05 1.46608e-10 
194 1 0.161461 0.0182058 0.00533758 1.42556e-15 -1.10253e-14 8.66686e-14 3.54343e-22 -5.16988e-24 -5.79026e-24 5e-05 1.46608e-10 
195 1 0.210294 0.0179273 0.00707898 0.0058793 0.000284017 9.40014e-05 -1.26108e-10 3.1603e-10 -1.72084e-10 5e-05 1.46608e-10 
196 1 0.209688 0.0161589 0.00796767 0.0057129 0.000369323 -6.03285e-05 3.53249e-11 1.29223e-10 1.92552e-10 5e-05 1.46608e-10 
197 1 0.203933 0.0174761 0.00722496 0.00597866 -0.000331738 -0.000170157 -1.7288e-10 3.73686e-11 -8.72224e-12 5e-05 1.46608e-10 
198 1 0.210148 0.018496 0.00693977 0.00573248 0.00030189 8.76838e-05 -1.32183e-12 3.68056e-10 -1.51011e-10 5e-05 1.46608e-10 
199 1 0.210048 0.0180102 0.00704704 0.00584848 0.000289376 9.19476e-05 -1.26303e-10 -1.05571e-10 -5.1857e-12 5e-05 1.46608e-10 
201 1 0.209673 0.0164264 0.00772654 0.00619486 2.19543e-05 -0.000342691 -7.00688e-11 -4.09672e-10 3.45539e-10 5e-05 1.46608e-10 
202 1 0.21018 0.01781 0.00713488 0.00576416 0.000277795 9.32309e-05 -6.41121e-11 2.53689e-10 -7.16306e-11 5e-05 1.46608e-10 
203 1 0.21566 0.0164966 0.00802883 0.00576288 4.06327e-05 -0.000357142 4.07305e-11 4.80665e-11 -3.06237e-11 5e-05 1.46608e-10 
204 1 0.209384 0.0154542 0.00882458 0.00572247 0.000550251 -8.37439e-05 -3.37398e-10 8.32029e-11 -1.69795e-10 5e-05 1.46608e-10 
205 1 0.210251 0.0177397 0.00713301 0.00582423 0.000308202 8.94357e-05 -1.77371e-10 1.19406e-10 -4.35905e-11 5e-05 1.46608e-10 
206 1 0.209748 0.0163722 0.00776628 0.0060418 2.05966e-05 -0.000328014 1.05416e-10 -9.31062e-12 6.13279e-11 5e-05 1.46608e-10 
207 1 0.209876 0.0168411 0.00741811 0.00630159 5.68546e-05 -0.000178243 -2.35491e-14 -1.31478e-10 1.40431e-10 5e-05 1.46608e-10 
208 1 0.210062 0.0176766 0.00714584 0.00570537 0.000248444 0.000104256 2.92366e-10 5.09666e-11 -2.22847e-12 5e-05 1.46608e-10 
209 1 0.206837 0.0173261 0.00715085 0.00619002 -0.000907875 0.000439049 1.57091e-10 -7.78871e-11 6.96466e-11 5e-05 1.46608e-10 
210 1 0.215889 0.0173237 0.00734399 0.00602708 -0.000325258 -9.66948e-05 -1.74244e-09 -8.97218e-10 6.58948e-10 5e-05 1.46608e-10 
211 1 0.215827 0.0170976 0.00753113 0.00600597 -4.56022e-05 -0.000297665 -5.29405e-11 -8.78653e-10 6.77668e-10 5e-05 1.46608e-10 
212 1 0.210204 0.0179053 0.00711646 0.00584775 0.000268826 5.31272e-05 -9.81024e-11 1.23981e-10 -4.44126e-10 5e-05 1.46608e-10 
213 1 0.216044 0.0179869 0.00698545 0.00579069 -0.000956551 0.000920465 -5.58812e-09 -5.17862e-08 1.79424e-09 5e-05 1.46608e-10 
214 1 0.215767 0.0168731 0.00771841 0.00594578 -1.03938e-06 -0.000334546 2.23678e-10 -2.99811e-10 2.24833e-10 5e-05 1.46608e-10 
215 1 0.204127 0.0183956 0.0069429 0.00566522 -9.72163e-05 0.000263577 -2.65381e-10 2.59378e-10 -4.5775e-12 5e-05 1.46608e-10 
216 1 0.210154 0.0177129 0.00713798 0.00568856 0.000272919 9.19012e-05 1.26178e-10 2.09072e-10 -6.38907e-11 5e-05 1.46608e-10 
217 1 0.216141 0.0184541 0.00705691 0.00556057 0.000418169 -0.000527586 -3.05234e-10 -3.49834e-10 -6.10224e-11 5e-05 1.46608e-10 
218 1 0.209478 0.0157612 0.00844156 0.00557103 0.000563142 -0.000122854 2.21009e-11 9.46472e-11 -7.32402e-11 5e-05 1.46608e-10 
219 1 0.215707 0.0166461 0.0079047 0.00580157 2.75249e-05 -0.000346446 5.5008e-11 -8.99016e-11 7.07673e-11 5e-05 1.46608e-10 
220 1 0.210273 0.0178334 0.00710602 0.00582061 0.000299399 8.95924e-05 1.81819e-10 2.65463e-10 -6.16528e-12 5e-05 1.46608e-10 
221 1 0.26994 0.0175208 0.00707805 0.00614401 -0.000834805 0.000294112 3.72676e-13 -6.09498e-14 9.0659e-15 5e-05 1.46608e-10 
222 1 0.216185 0.0179882 0.00699574 0.00579794 0.000258995 -0.000599112 -9.34903e-11 -2.04331e-10 -6.84648e-10 5e-05 1.46608e-10 
223 1 0.210026 0.0174873 0.00720055 0.00588077 0.000248912 0.000105711 2.53861e-10 1.45711e-11 3.23237e-11 5e-05 1.46608e-10 
224 1 0.0566546 0.0175058 0.0079162 4.49361e-10 -0.0221375 0.00957256 1.64152e-18 8.69212e-12 2.00617e-11 5e-05 1.46608e-10 
225 1 0.216063 0.0172594 0.00738643 0.00617826 0.000150891 -0.000465592 3.75664e-10 -5.83779e-10 1.4829e-10 5e-05 1.46608e-10 
226 1 0.209821 0.0169842 0.00734268 0.00639652 0.000482203 5.27749e-05 5.74569e-12 3.00035e-11 -5.91505e-12 5e-05 1.46608e-10 
227 1 0.204067 0.0181023 0.00696301 0.00560394 -9.49959e-05 0.000260219 -1.41833e-11 1.11644e-11 3.42758e-12 5e-05 1.46608e-10 
228 1 0.203889 0.017307 0.00732258 0.00604897 -0.000346615 -0.000165671 1.2073e-10 7.01652e-12 -1.1563e-11 5e-05 1.46608e-10 
229 1 0.210236 0.0180808 0.00703196 0.0059076 0.000275554 0.000102808 -7.98935e-11 3.92258e-11 -7.58596e-11 5e-05 1.46608e-10 
230 1 0.209632 0.0162751 0.00785063 0.00573564 0.00012023 -0.000400208 3.3032e-10 -1.53969e-09 1.23284e-09 5e-05 1.46608e-10 
231 1 0.203846 0.0171378 0.00742019 0.00606995 -0.000357006 -0.0001611 -1.76765e-10 8.17602e-11 -3.0583e-11 5e-05 1.46608e-10 
232 1 0.21003 0.0179266 0.00709874 0.00576358 0.00028309 0.000112606 -1.80782e-10 -2.00479e-11 2.50365e-10 5e-05 1.46608e-10 
234 1 0.215989 0.0177093 0.00704814 0.00575135 0.000388069 4.65494e-05 2.32523e-09 3.11994e-09 5.56477e-10 5e-05 1.46608e-10 
235 1 0.210234 0.017647 0.00716648 0.00585175 0.000294149 8.97625e-05 -1.20198e-10 9.09147e-11 -5.16243e-11 5e-05 1.46608e-10 
236 1 0.209592 0.0161297 0.00798189 0.00572847 0.000615365 -0.000149371 3.3497e-10 -8.87692e-11 -4.69082e-11 5e-05 1.46608e-10 
237 1 0.209553 0.0160075 0.00813564 0.00563922 0.000546595 -0.000102365 1.29351e-10 -2.20601e-10 2.11427e-10 5e-05 1.46608e-10 
239 1 0.203673 0.0164615 0.00781065 0.00598317 -0.000339201 -0.00016561 9.43667e-11 1.5123e-11 -1.3603e-11 5e-05 1.46608e-10 
240 1 0.203694 0.016546 0.00776184 0.005986 -0.00033577 -0.000167788 -5.12546e-11 2.22675e-11 1.48873e-11 5e-05 1.46608e-10 
241 1 0.203759 0.0167997 0.00761542 0.00601755 -0.000343784 -0.000164666 1.16392e-10 -6.08201e-11 2.97746e-11 5e-05 1.46608e-10 
242 1 0.209886 0.0172671 0.00726123 0.00626594 0.000154051 0.000145867 2.04101e-11 -1.81138e-10 3.89819e-11 5e-05 1.46608e-10 
244 1 0.203716 0.0166306 0.00771303 0.00600327 -0.000334984 -0.000170151 -1.35943e-10 7.33175e-11 -9.02062e-12 5e-05 1.46608e-10 
246 1 0.203824 0.0170533 0.007469 0.00605595 -0.00035458 -0.000161735 1.26705e-10 3.5889e-11 -3.07036e-11 5e-05 1.46608e-10 
247 1 0.210432 0.0181478 0.00701817 0.00563634 0.00024865 9.82406e-05 -3.27465e-10 2.21079e-10 -4.76605e-11 5e-05 1.46608e-10 
248 1 0.209652 0.0163508 0.00778855 0.00628405 -9.11347e-06 -0.000327493 4.15796e-10 1.63522e-09 -1.02094e-09 5e-05 1.46608e-10 
249 1 0.204107 0.0182978 0.00694958 0.00563043 -0.000101957 0.000261181 4.45216e-11 -1.17839e-11 -2.08117e-11 5e-05 1.46608e-10 
250 1 0.209949 0.0167741 0.00743191 0.00630793 2.09337e-05 -0.000344026 8.74113e-11 -1.83061e-10 1.57485e-10 5e-05 1.46608e-10 
251 1 0.215682 0.0165724 0.00796763 0.00578558 3.2576e-05 -0.000350926 7.74567e-11 1.2903e-11 -1.83616e-11 5e-05 1.46608e-10 
252 1 0.203972 0.0176459 0.00712715 0.00585235 -0.00030783 -0.00017287 -1.13212e-10 2.24463e-11 1.40255e-11 5e-05 1.46608e-10 
253 1 0.204166 0.0185912 0.00692949 0.00551714 -7.15311e-05 0.00025371 4.09618e-11 -3.12919e-11 -1.03417e-11 5e-05 1.46608e-10 
254 1 0.203803 0.0169687 0.00751781 0.00604187 -0.000346602 -0.000165415 1.13726e-10 -8.58534e-11 4.2541e-11 5e-05 1.46608e-10 
255 1 0.209991 0.0177449 0.00716286 0.0056969 0.000221099 0.000100258 8.26382e-11 2.47209e-11 1.95922e-10 5e-05 1.46608e-10 
256 1 0.210079 0.0173299 0.00724862 0.00625042 0.00030636 9.99965e-05 3.4359e-11 -3.49368e-11 1.13977e-11 5e-05 1.46608e-10 
257 1 0.210036 0.0171419 0.00730273 0.0063716 8.39814e-05 0.000169423 1.16701e-10 -2.3871e-10 7.57042e-11 5e-05 1.46608e-10 
258 1 0.209941 0.0171116 0.00730892 0.00635737 0.000166139 0.000146209 6.92232e-11 -3.45937e-11 2.5671e-11 5e-05 1.46608e-10 
259 1 0.20399 0.0177313 0.00707811 0.00578992 -0.000298369 -0.000177557 9.04087e-11 -2.70645e-11 2.63184e-12 5e-05 1.46608e-10 
261 1 0.209736 0.0166531 0.00754053 0.00628723 1.41923e-05 -0.000341424 -3.27873e-11 -3.94856e-11 6.25577e-11 5e-05 1.46608e-10 