ITEM: TIMESTEP
26400000
ITEM: NUMBER OF ATOMS
271
ITEM: BOX BOUNDS ff ff ff
-0.02 0.43
-0.02 0.06
-0.02 0.07
ITEM: ATOMS id type x y z vx vy vz fx fy fz radius mass 
1 1 0.166549 0.0160172 0.00842914 0.00578175 -0.000745366 0.00158675 3.85949e-10 -4.02477e-11 4.31532e-10 5e-05 1.46608e-10 
2 1 0.167074 0.01726 0.00740705 0.00567129 -0.00143252 0.00118879 -5.16839e-12 -2.66307e-11 5.27968e-12 5e-05 1.46608e-10 
3 1 0.16116 0.0168638 0.00744061 0.00591698 -0.000913647 0.000634009 -2.93425e-11 -9.52854e-12 1.35198e-12 5e-05 1.46608e-10 
4 1 0.166897 0.0166735 0.00763407 0.00527924 -0.00139146 0.00111473 2.30721e-10 -1.03875e-10 5.13955e-11 5e-05 1.46608e-10 
5 1 0.166527 0.0159596 0.0085078 0.00597967 -0.000752913 0.00162042 6.85849e-11 -6.04177e-11 2.33418e-10 5e-05 1.46608e-10 
6 1 0.172519 0.0159748 0.00857477 0.00633452 0.000511378 0.000218519 3.73499e-11 6.79302e-11 -1.60583e-10 5e-05 1.46608e-10 
7 1 0.166635 0.0162527 0.00811793 0.00495089 -0.000512782 0.001523 8.44319e-10 1.16615e-10 4.89641e-10 5e-05 1.46608e-10 
8 1 0.166504 0.0159021 0.00858636 0.00619079 -0.000758938 0.0016809 -2.34147e-10 -1.08942e-10 -1.99471e-10 5e-05 1.46608e-10 
9 1 0.173091 0.0181079 0.00705169 0.0155872 0.0514752 -0.00392945 0 0 -1.43822e-09 5e-05 1.46608e-10 
10 1 0.167021 0.0178388 0.00724724 0.00562319 -0.00144105 0.00118757 1.33097e-11 1.20104e-11 -9.31037e-12 5e-05 1.46608e-10 
11 1 0.167096 0.0173547 0.00738372 0.00566839 -0.00143096 0.00118846 -5.10304e-11 -4.44122e-11 5.66438e-12 5e-05 1.46608e-10 
12 1 0.160629 0.0161525 0.00796193 0.00554515 -6.5056e-05 0.000498777 8.64327e-11 -1.67639e-10 1.4479e-11 5e-05 1.46608e-10 
13 1 0.166431 0.0157299 0.00882087 0.00538804 -0.000773239 0.00161171 4.68736e-11 -7.92178e-11 1.86762e-10 5e-05 1.46608e-10 
14 1 0.161234 0.0183668 0.00701803 0.00557093 -0.000788803 0.000577554 4.81409e-12 3.23856e-11 -4.06845e-11 5e-05 1.46608e-10 
15 1 0.166938 0.0166956 0.00754563 0.00528594 -0.00137703 0.00111991 7.90136e-11 -5.35504e-11 2.74565e-11 5e-05 1.46608e-10 
16 1 0.161348 0.018057 0.00711332 0.00576962 -0.000536941 0.000517384 -8.45741e-11 2.89845e-11 -1.18716e-11 5e-05 1.46608e-10 
17 1 0.166976 0.0168869 0.00749757 0.00570934 -0.00144451 0.00119738 4.18386e-11 -6.5923e-11 3.6967e-11 5e-05 1.46608e-10 
19 1 0.166481 0.0158446 0.00866479 0.00653515 -0.000809317 0.00179007 -1.11275e-09 3.95115e-10 -5.73305e-10 5e-05 1.46608e-10 
21 1 0.166999 0.017745 0.00727408 0.00562582 -0.00143776 0.00118684 -1.07551e-11 1.51795e-14 -4.27882e-12 5e-05 1.46608e-10 
22 1 0.166959 0.0167904 0.00752213 0.00574244 -0.0014506 0.0012039 -2.09283e-12 -6.24532e-11 2.58144e-11 5e-05 1.46608e-10 
23 1 0.160812 0.0165098 0.007598 0.00562264 -0.000766193 0.00010524 -2.36848e-10 -5.25388e-10 1.76966e-10 5e-05 1.46608e-10 
24 1 0.173189 0.0185809 0.00691509 0.00557364 -0.00121076 0.000351561 -1.44151e-12 -1.06966e-11 3.04308e-12 5e-05 1.46608e-10 
25 1 0.166773 0.0164129 0.00782373 0.00530171 -0.00141513 0.00112968 4.74707e-11 5.63069e-12 6.63649e-11 5e-05 1.46608e-10 
26 1 0.172826 0.0170469 0.00780223 0.015564 0.0405902 -0.0300917 1.72023e-11 1.9264e-10 -1.31656e-10 5e-05 1.46608e-10 
27 1 0.161139 0.0167695 0.00746605 0.00591889 -0.000914974 0.000634752 5.83683e-11 3.33604e-11 -1.14078e-12 5e-05 1.46608e-10 
28 1 0.16703 0.0170705 0.00745388 0.00568325 -0.00143647 0.00119396 -2.09189e-11 -1.75915e-11 2.47236e-11 5e-05 1.46608e-10 
29 1 0.166644 0.0163056 0.00803358 0.00526762 -0.000689842 0.00148787 1.66287e-09 -1.69102e-10 2.79998e-10 5e-05 1.46608e-10 
30 1 0.167107 0.0177908 0.00726358 0.00562514 -0.00144105 0.00118592 2.68175e-11 -8.58501e-12 1.1782e-11 5e-05 1.46608e-10 
31 1 0.166794 0.0164579 0.00773687 0.00531045 -0.00142057 0.00113449 2.67297e-10 -8.40872e-11 1.63502e-10 5e-05 1.46608e-10 
32 1 0.16681 0.0165081 0.00765184 0.00531717 -0.00141844 0.0011324 -2.11485e-11 -8.18037e-11 1.16088e-10 5e-05 1.46608e-10 
33 1 0.172563 0.0161206 0.00847081 0.00945272 0.0108178 -0.00908954 -1.67997e-10 3.29567e-10 1.31345e-10 5e-05 1.46608e-10 
34 1 0.16661 0.0161904 0.00819196 0.00495299 -0.000621291 0.00140472 5.21937e-10 2.57828e-10 5.27549e-10 5e-05 1.46608e-10 
35 1 0.16668 0.0164224 0.0078754 0.00542639 -0.0011102 0.00128619 -1.96116e-11 -1.2222e-10 -2.16635e-10 5e-05 1.46608e-10 
36 1 0.173169 0.0184862 0.00694189 0.00553315 -0.00119724 0.000347668 -1.2565e-12 -1.03354e-11 2.92715e-12 5e-05 1.46608e-10 
37 1 0.167205 0.0178283 0.00726682 0.00562748 -0.00143433 0.00118356 4.94259e-11 -4.96869e-11 2.39031e-11 5e-05 1.46608e-10 
38 1 0.16731 0.0175154 0.00736875 0.00564557 -0.00141893 0.00118187 -1.02998e-11 3.6676e-11 -1.0563e-11 5e-05 1.46608e-10 
39 1 0.173208 0.018678 0.00688763 0.00537467 -0.00109774 0.00031923 -1.30641e-12 -1.2843e-11 3.50403e-12 5e-05 1.46608e-10 
41 1 0.167104 0.0170085 0.0074814 0.00567226 -0.00144664 0.00119365 -5.10615e-13 -1.64513e-11 1.29987e-11 5e-05 1.46608e-10 
42 1 0.321436 0.0173475 0.00552525 4.57642e-16 2.25514e-15 8.4636e-14 -2.94586e-23 -1.21492e-24 2.06795e-25 5e-05 1.46608e-10 
44 1 0.167052 0.0171653 0.00743045 0.005679 -0.00143588 0.00119114 8.7312e-12 -1.06212e-11 6.73967e-12 5e-05 1.46608e-10 
45 1 0.172631 0.016353 0.00830263 0.0121879 0.0202699 -0.0158967 4.57287e-11 1.51204e-10 -1.09682e-10 5e-05 1.46608e-10 
47 1 0.166571 0.0160748 0.00835046 0.0054472 -0.000683712 0.00149706 -4.88565e-10 -5.96074e-11 1.04488e-10 5e-05 1.46608e-10 
48 1 0.167184 0.0177334 0.00729036 0.00562964 -0.0014355 0.00118446 2.61297e-11 -3.79551e-11 1.74683e-11 5e-05 1.46608e-10 
50 1 0.166749 0.016631 0.00755836 0.0052955 -0.00139304 0.00114506 8.97891e-12 1.83174e-11 5.32125e-12 5e-05 1.46608e-10 
51 1 0.166729 0.0165455 0.00760639 0.00530411 -0.00141264 0.00113209 -9.26483e-13 -7.09489e-12 -1.71699e-10 5e-05 1.46608e-10 
52 1 0.160547 0.0159045 0.00826464 0.00536753 -3.38248e-05 0.000458449 3.20407e-11 9.76285e-11 -1.25563e-10 5e-05 1.46608e-10 
53 1 0.17315 0.0183911 0.0069688 0.00549127 -0.00118961 0.000345444 -8.97585e-13 -9.06618e-12 2.6169e-12 5e-05 1.46608e-10 
54 1 0.167228 0.0179229 0.00724354 0.00562375 -0.00142942 0.00118169 -3.48514e-12 -3.21033e-11 4.57895e-12 5e-05 1.46608e-10 
55 1 0.16049 0.0157185 0.00849284 0.00541626 -7.85403e-06 0.000429551 3.1884e-10 -3.51519e-11 7.00618e-11 5e-05 1.46608e-10 
56 1 0.16728 0.0177672 0.0072942 0.00562894 -0.00143111 0.0011829 6.34636e-11 -6.54448e-11 2.68884e-11 5e-05 1.46608e-10 
57 1 0.172721 0.0166576 0.00808206 0.0149884 0.0294228 -0.0225426 4.6891e-11 1.56527e-10 -1.13457e-10 5e-05 1.46608e-10 
59 1 0.167073 0.0169086 0.00750504 0.00570275 -0.00141812 0.00119025 7.25605e-11 -4.24411e-12 6.69417e-12 5e-05 1.46608e-10 
61 1 0.16666 0.0163612 0.00795191 0.00539725 -0.000929155 0.00139012 7.55503e-10 1.16816e-10 -5.20372e-11 5e-05 1.46608e-10 
62 1 0.167266 0.0173252 0.00741564 0.00563994 -0.00142324 0.00118246 -4.5773e-11 -3.64048e-11 1.09642e-11 5e-05 1.46608e-10 
63 1 0.166901 0.0165113 0.00761149 0.0053243 -0.00140705 0.00110553 -1.23695e-11 -4.63587e-11 1.44165e-10 5e-05 1.46608e-10 
64 1 0.173228 0.0187797 0.00685882 0.00541304 -0.00120306 0.000349134 9.20936e-13 -5.86601e-13 2.11384e-13 5e-05 1.46608e-10 
65 1 0.160815 0.0169314 0.00750142 0.00601714 -0.000877319 0.000618869 9.3253e-11 1.16812e-10 -1.37933e-10 5e-05 1.46608e-10 
66 1 0.160469 0.0156567 0.00856871 0.00564661 -1.29617e-05 0.000454052 -3.21491e-11 1.38424e-11 -1.71864e-11 5e-05 1.46608e-10 
67 1 0.16717 0.0172929 0.00741122 0.00566964 -0.00142824 0.0011873 -4.74711e-11 -2.411e-13 -4.68243e-12 5e-05 1.46608e-10 
68 1 0.166843 0.0166596 0.00754246 0.00527793 -0.00139721 0.00112129 6.07252e-11 -6.06125e-11 2.51233e-11 5e-05 1.46608e-10 
69 1 0.167172 0.0180755 0.00719318 0.00561442 -0.00143627 0.00118223 1.85437e-11 -3.02178e-11 1.22014e-11 5e-05 1.46608e-10 
70 1 0.172945 0.0175325 0.00745541 0.0174549 0.051457 -0.0376996 3.5189e-11 1.86531e-10 -1.3113e-10 5e-05 1.46608e-10 
71 1 0.160529 0.0158425 0.00834078 0.00539094 -3.12316e-05 0.000456186 8.63182e-11 3.64142e-11 -4.06006e-11 5e-05 1.46608e-10 
72 1 0.167163 0.0176386 0.00731382 0.00563139 -0.00143432 0.00118411 -3.91863e-11 -1.4286e-11 -5.05389e-12 5e-05 1.46608e-10 
73 1 0.167249 0.0180178 0.00722002 0.00562199 -0.00142668 0.00118075 5.66277e-11 -1.42744e-11 1.10936e-11 5e-05 1.46608e-10 
74 1 0.167242 0.0172302 0.00743885 0.00567666 -0.0014207 0.00118654 -3.78509e-11 3.76234e-11 -1.57316e-11 5e-05 1.46608e-10 
76 1 0.161188 0.0177446 0.00719197 0.00590433 -0.000843808 0.000612898 -2.0237e-11 5.13153e-11 -8.56293e-12 5e-05 1.46608e-10 
77 1 0.166812 0.0167219 0.00761415 0.00529238 -0.00137925 0.00110841 2.46811e-10 -1.63354e-10 8.7197e-11 5e-05 1.46608e-10 
78 1 0.161291 0.0182165 0.00706436 0.00554169 -0.000764939 0.00056636 -2.22418e-10 9.36005e-12 -2.7724e-11 5e-05 1.46608e-10 
79 1 0.160585 0.0160285 0.00811242 0.00545416 -4.51114e-05 0.000475978 -1.96359e-11 1.89451e-10 -1.13493e-10 5e-05 1.46608e-10 
80 1 0.167106 0.0173279 0.00747958 0.00566095 -0.00144521 0.00118568 2.94169e-12 4.61752e-11 1.93062e-11 5e-05 1.46608e-10 
81 1 0.161209 0.0178402 0.00717162 0.00590371 -0.000839969 0.00061133 -3.84029e-11 1.9386e-11 -5.44516e-12 5e-05 1.46608e-10 
82 1 0.160645 0.016215 0.00788548 0.00560442 -6.89218e-05 0.000523422 -1.35564e-10 -2.39931e-10 2.96045e-10 5e-05 1.46608e-10 
83 1 0.161253 0.0180272 0.00711576 0.00585811 -0.000822261 0.000603931 -5.40694e-11 -3.86736e-11 8.45402e-12 5e-05 1.46608e-10 
84 1 0.17313 0.0182935 0.00699644 0.00543985 -0.00122279 0.000354765 6.4433e-13 -2.0505e-12 6.00902e-13 5e-05 1.46608e-10 
85 1 0.161201 0.0170616 0.00738698 0.00589831 -0.000852065 0.000615336 9.99391e-11 -8.43836e-12 8.22669e-12 5e-05 1.46608e-10 
86 1 0.167126 0.0171035 0.00745794 0.00568235 -0.00142833 0.0011896 -2.89366e-12 -2.464e-11 6.34263e-12 5e-05 1.46608e-10 
87 1 0.167433 0.0172949 0.00744737 0.00563742 -0.00143769 0.00118578 4.92759e-11 9.56803e-14 9.83216e-12 5e-05 1.46608e-10 
88 1 0.166897 0.0172399 0.00747396 0.00568499 -0.00143984 0.00119812 -2.20229e-11 4.76514e-11 -9.46802e-12 5e-05 1.46608e-10 
89 1 0.167193 0.0173874 0.00738808 0.0056429 -0.00142322 0.001184 -2.09901e-11 -6.89882e-12 2.07131e-11 5e-05 1.46608e-10 
90 1 0.167147 0.0171982 0.00743455 0.00567379 -0.00142831 0.00118807 -1.19149e-11 -1.32343e-11 -1.12386e-12 5e-05 1.46608e-10 
91 1 0.161182 0.0169612 0.00741431 0.00591556 -0.000853613 0.000617103 -1.77188e-10 9.72776e-11 -4.60186e-11 5e-05 1.46608e-10 
92 1 0.16714 0.017544 0.0073371 0.0056384 -0.00143512 0.00118503 -5.75245e-11 -2.96253e-11 1.53739e-11 5e-05 1.46608e-10 
93 1 0.166787 0.0168152 0.00749127 0.00527483 -0.00138792 0.00111812 -9.05948e-11 -3.61647e-11 2.08252e-11 5e-05 1.46608e-10 
94 1 0.167038 0.0175015 0.00733469 0.00564021 -0.00143666 0.00118746 2.41009e-11 3.41394e-11 1.22735e-11 5e-05 1.46608e-10 
95 1 0.166923 0.0173385 0.00745132 0.00568009 -0.00143348 0.00119254 -2.98242e-11 -1.76134e-11 2.57758e-12 5e-05 1.46608e-10 
96 1 0.166809 0.01691 0.00746778 0.0057104 -0.00145952 0.00120362 1.02514e-11 -2.58193e-11 1.83314e-11 5e-05 1.46608e-10 
97 1 0.160907 0.0165355 0.00758113 0.00571342 -0.000993612 0.000196635 -2.0649e-10 -1.48086e-10 3.3463e-11 5e-05 1.46608e-10 
98 1 0.166999 0.0172723 0.00747671 0.00567594 -0.00144555 0.00118546 -1.45772e-11 -5.37982e-13 2.09376e-11 5e-05 1.46608e-10 
99 1 0.160835 0.017026 0.00747594 0.00594227 -0.000897867 0.000621673 2.31933e-11 1.23859e-10 -1.75371e-11 5e-05 1.46608e-10 
100 1 0.167214 0.0174824 0.00736456 0.00563493 -0.00143761 0.00118503 -1.58089e-11 3.33336e-11 -1.12037e-11 5e-05 1.46608e-10 
101 1 0.160604 0.0160906 0.00803626 0.00549569 -4.6532e-05 0.000487036 1.64118e-10 7.51008e-11 -1.14557e-10 5e-05 1.46608e-10 
102 1 0.0643568 0.0187248 0.00531097 4.18492e-15 1.05485e-14 8.2958e-14 -1.3231e-21 8.25811e-22 -3.24668e-23 5e-05 1.46608e-10 
103 1 0.24257 0.0191927 0.00520306 -1.01195e-22 -3.03968e-22 1.23839e-22 0 0 0 5e-05 1.46608e-10 
104 1 0.161109 0.0178017 0.00717073 0.00590164 -0.000844418 0.000613421 5.23348e-12 5.15922e-11 -1.41801e-11 5e-05 1.46608e-10 
105 1 0.161023 0.0166519 0.00752006 0.00595264 -0.00103395 0.000199503 1.05398e-10 2.01991e-11 -2.22616e-11 5e-05 1.46608e-10 
106 1 0.160968 0.0168015 0.00745645 0.00597627 -0.000894199 0.000525368 -2.21743e-11 -6.62886e-11 -1.81472e-11 5e-05 1.46608e-10 
107 1 0.160928 0.0166235 0.00753826 0.00590191 -0.00103099 0.00020729 1.26633e-11 -6.8107e-11 4.60555e-11 5e-05 1.46608e-10 
108 1 0.167108 0.0182193 0.00714425 0.00560202 -0.00143714 0.00118065 -5.76151e-12 -2.66146e-11 7.50365e-12 5e-05 1.46608e-10 
109 1 0.166714 0.0165019 0.00769521 0.00523324 -0.0014739 0.00109941 1.42208e-10 -2.67782e-11 -2.71236e-10 5e-05 1.46608e-10 
110 1 0.166828 0.0170058 0.0074892 0.00569292 -0.00145379 0.00121543 -1.16417e-12 -1.17595e-11 2.03795e-11 5e-05 1.46608e-10 
111 1 0.166965 0.0172091 0.00740618 0.00567816 -0.00144365 0.00119355 3.00956e-11 3.45686e-11 -6.73777e-12 5e-05 1.46608e-10 
112 1 0.16136 0.0177151 0.00721125 0.00589445 -0.000855524 0.000616144 -1.78778e-11 1.25559e-10 -3.97837e-11 5e-05 1.46608e-10 
113 1 0.160954 0.0172572 0.00731576 0.00585116 -0.000834278 0.000608492 -4.45348e-11 -4.61361e-11 4.53993e-12 5e-05 1.46608e-10 
114 1 0.161157 0.0184268 0.00699611 0.00558141 -0.000775808 0.000573127 -3.40975e-11 2.70651e-11 -1.03359e-11 5e-05 1.46608e-10 
115 1 0.167006 0.0169821 0.00749396 0.00568769 -0.00143485 0.00119396 8.71306e-12 -4.64277e-11 5.68764e-11 5e-05 1.46608e-10 
116 1 0.167086 0.0181201 0.00716875 0.00560935 -0.00144507 0.00118403 -1.57896e-11 -5.01215e-11 1.13492e-11 5e-05 1.46608e-10 
117 1 0.167339 0.0172624 0.00744329 0.00563642 -0.00142661 0.00118236 -5.03631e-11 -1.171e-11 -8.01696e-12 5e-05 1.46608e-10 
118 1 0.161077 0.0180519 0.00709758 0.00588607 -0.000833177 0.00060919 2.8645e-12 7.36568e-11 -1.87438e-11 5e-05 1.46608e-10 
119 1 0.166919 0.0166004 0.00756954 0.00529677 -0.00138489 0.00112461 1.59455e-11 -1.28262e-10 1.00002e-11 5e-05 1.46608e-10 
120 1 0.166755 0.0163673 0.00791087 0.00530846 -0.00141865 0.00112263 -1.96436e-10 2.43885e-11 -3.08441e-10 5e-05 1.46608e-10 
121 1 0.16659 0.0161326 0.00827115 0.00510213 -0.000650445 0.00141777 -1.12854e-09 8.05925e-11 -6.76078e-11 5e-05 1.46608e-10 
122 1 0.166828 0.0168995 0.00756526 0.00572803 -0.00145618 0.00120147 1.43316e-11 -8.96993e-11 8.4143e-12 5e-05 1.46608e-10 
123 1 0.161033 0.0178634 0.00714841 0.00590089 -0.000842684 0.00061283 7.14575e-12 6.69016e-11 -2.0989e-11 5e-05 1.46608e-10 
124 1 0.166862 0.0171482 0.00749823 0.0056869 -0.00144246 0.00120386 -1.88184e-11 9.19706e-11 -2.97837e-11 5e-05 1.46608e-10 
125 1 0.167361 0.0173577 0.00741973 0.00564228 -0.00143164 0.00118517 1.51125e-11 -1.32574e-12 6.03762e-12 5e-05 1.46608e-10 
126 1 0.166695 0.0164617 0.00778477 0.00533123 -0.00130043 0.00119717 2.37173e-10 2.77671e-10 -1.16586e-10 5e-05 1.46608e-10 
127 1 0.161044 0.01674 0.00747718 0.00598899 -0.000995117 0.000180258 6.88854e-11 -1.64398e-11 1.12614e-11 5e-05 1.46608e-10 
128 1 0.166883 0.0168503 0.0074976 0.00571838 -0.00146575 0.00120446 1.63697e-11 -3.72887e-11 5.14801e-12 5e-05 1.46608e-10 
129 1 0.166996 0.0176289 0.00738178 0.00564345 -0.00143833 0.00118587 -4.11277e-11 2.99111e-11 1.51494e-11 5e-05 1.46608e-10 
131 1 0.161064 0.0168319 0.00744357 0.00597518 -0.000849025 0.000620898 -2.47253e-11 7.50523e-12 -1.89436e-11 5e-05 1.46608e-10 
132 1 0.167048 0.0174726 0.00742992 0.00562119 -0.00144022 0.00118848 -7.89432e-11 3.50874e-11 -2.58854e-11 5e-05 1.46608e-10 
133 1 0.167059 0.017771 0.00734937 0.00562476 -0.00143468 0.00118727 -4.42643e-11 7.68848e-11 9.27337e-12 5e-05 1.46608e-10 
134 1 0.166819 0.0165609 0.00756668 0.00531386 -0.00138497 0.0011376 9.52993e-11 -8.91004e-11 5.37804e-11 5e-05 1.46608e-10 
135 1 0.166455 0.0157873 0.00874267 0.00673795 -0.000870293 0.00188513 7.09766e-10 4.51988e-10 -1.52493e-10 5e-05 1.46608e-10 
136 1 0.161177 0.0185214 0.00697045 0.00561822 -0.000776124 0.000575556 2.5617e-11 1.79382e-10 -3.92865e-11 5e-05 1.46608e-10 
137 1 0.166768 0.0167219 0.00752148 0.00526876 -0.00139737 0.0011155 4.2177e-11 1.34011e-11 1.50007e-10 5e-05 1.46608e-10 
138 1 0.167151 0.0179807 0.00721669 0.00561388 -0.00143733 0.00118247 2.48148e-11 -1.51602e-11 1.33491e-11 5e-05 1.46608e-10 
140 1 0.166988 0.0173043 0.00738268 0.00566998 -0.00143821 0.00119021 5.47035e-12 -1.64174e-11 5.09868e-12 5e-05 1.46608e-10 
141 1 0.161174 0.018085 0.00709435 0.00585952 -0.000823361 0.000605718 -1.2969e-11 4.50006e-11 -2.12858e-11 5e-05 1.46608e-10 
142 1 0.161012 0.0177692 0.00717383 0.00590762 -0.000843376 0.000613317 4.65873e-11 7.177e-11 -1.13735e-11 5e-05 1.46608e-10 
143 1 0.160509 0.0157805 0.00841681 0.00546073 -3.05781e-05 0.000458452 2.10891e-10 5.14013e-11 -7.66449e-12 5e-05 1.46608e-10 
144 1 0.161118 0.0182372 0.00704753 0.00550557 -0.000765084 0.000565651 -6.24187e-11 -3.88465e-11 -9.5513e-12 5e-05 1.46608e-10 
147 1 0.161286 0.0177786 0.00718852 0.00589674 -0.000851197 0.000614894 -7.40365e-11 2.03566e-11 -9.43611e-12 5e-05 1.46608e-10 
148 1 0.160661 0.0162764 0.00780816 0.0055655 -9.1558e-05 0.000525232 -2.2299e-10 -5.37449e-10 4.96468e-10 5e-05 1.46608e-10 
149 1 0.166944 0.0171143 0.0074296 0.00568634 -0.00144344 0.00119551 1.04028e-11 4.23515e-11 2.22075e-12 5e-05 1.46608e-10 
150 1 0.0100679 0.0201683 0.00551526 8.38533e-15 1.2441e-15 -8.48743e-14 -4.96308e-24 1.70541e-23 0 5e-05 1.46608e-10 
151 1 0.161041 0.0175179 0.00724715 0.00589897 -0.000841096 0.000612852 -5.1804e-11 -3.72991e-12 -6.57236e-12 5e-05 1.46608e-10 
153 1 0.161368 0.0181571 0.00708616 0.00558601 -0.000716021 0.00055658 -1.30138e-10 1.29651e-10 -4.27474e-11 5e-05 1.46608e-10 
154 1 0.161098 0.0181495 0.00709116 0.00585687 -0.000822872 0.000612324 -3.75667e-12 5.04965e-11 -5.25835e-11 5e-05 1.46608e-10 
155 1 0.160681 0.0163567 0.00775197 0.00556903 -0.000189415 0.000451488 -2.27954e-10 -7.66777e-10 7.00979e-10 5e-05 1.46608e-10 
156 1 0.161131 0.0178964 0.0071452 0.0059034 -0.000835367 0.000610907 -1.67451e-11 4.38686e-11 -1.38643e-11 5e-05 1.46608e-10 
157 1 0.0219312 0.0187687 0.00551176 -3.84242e-14 8.16385e-14 2.95883e-13 -5.74167e-22 -5.67549e-22 9.24374e-23 5e-05 1.46608e-10 
158 1 0.161281 0.0173496 0.00731015 0.00588323 -0.000852473 0.000614576 -7.0948e-11 -3.63259e-11 1.01389e-11 5e-05 1.46608e-10 
159 1 0.167287 0.0174201 0.00739213 0.00563954 -0.00143354 0.00118501 3.59421e-11 6.20336e-11 -2.39945e-11 5e-05 1.46608e-10 
160 1 0.161152 0.0179907 0.00711978 0.00588538 -0.000829647 0.00060805 -4.23011e-11 3.34821e-11 -1.03995e-11 5e-05 1.46608e-10 
162 1 0.161231 0.0179329 0.00714119 0.00588165 -0.000831465 0.000608473 -6.71658e-11 5.88392e-12 -8.88154e-12 5e-05 1.46608e-10 
164 1 0.160914 0.0169567 0.00739994 0.00595233 -0.000872952 0.000586207 -8.11149e-11 1.41283e-10 3.591e-10 5e-05 1.46608e-10 
165 1 0.161122 0.0174621 0.00726809 0.00589043 -0.000849347 0.00061414 -5.77367e-11 -3.7975e-11 4.28661e-12 5e-05 1.46608e-10 
166 1 0.167192 0.0181706 0.00716948 0.00560287 -0.00143312 0.00117979 -1.40614e-11 -4.11221e-11 8.72885e-12 5e-05 1.46608e-10 
168 1 0.160988 0.016893 0.00742141 0.00596716 -0.000851052 0.000618057 -6.66314e-11 2.66749e-13 -1.05683e-11 5e-05 1.46608e-10 
169 1 0.160901 0.0173139 0.00737848 0.00583884 -0.000842226 0.000609309 -3.53899e-12 -8.87598e-12 1.02983e-11 5e-05 1.46608e-10 
170 1 0.161105 0.0170214 0.00739234 0.00591957 -0.000846437 0.000613186 -1.40604e-10 8.31348e-11 -3.41797e-11 5e-05 1.46608e-10 
171 1 0.167064 0.0180274 0.00719935 0.00560783 -0.00144523 0.00118322 1.7454e-11 -6.34559e-12 1.74414e-11 5e-05 1.46608e-10 
172 1 0.161092 0.0174654 0.00736357 0.00589419 -0.000840674 0.000614363 -5.00044e-11 -7.08663e-11 2.73063e-11 5e-05 1.46608e-10 
173 1 0.167119 0.0174499 0.00736332 0.00563764 -0.00143142 0.00119069 -5.79648e-11 -8.28721e-12 6.71741e-11 5e-05 1.46608e-10 
174 1 0.160947 0.0167122 0.0074966 0.00595202 -0.000986868 0.00031937 3.79059e-11 -1.03568e-10 -1.50176e-11 5e-05 1.46608e-10 
175 1 0.154768 0.0167095 0.00749784 0.00584588 0.000352815 5.44296e-05 1.11634e-11 -2.17246e-11 -2.76227e-11 5e-05 1.46608e-10 
177 1 0.160954 0.0171471 0.00735488 0.00591349 -0.000863077 0.000613935 4.08821e-11 5.37574e-11 -2.91248e-11 5e-05 1.46608e-10 
178 1 0.161047 0.0171817 0.0073431 0.00590429 -0.000843911 0.000613111 7.93537e-11 -9.82103e-12 3.13463e-12 5e-05 1.46608e-10 
179 1 0.161104 0.0173673 0.0072939 0.00588407 -0.000846002 0.000612818 1.97224e-11 -6.9097e-11 2.11321e-11 5e-05 1.46608e-10 
181 1 0.161264 0.017684 0.00721403 0.00590405 -0.000848517 0.000615192 -6.4942e-11 -7.31417e-12 -1.25298e-11 5e-05 1.46608e-10 
182 1 0.167042 0.0179311 0.00721546 0.00562306 -0.00144631 0.00118622 2.33482e-11 2.27091e-11 -1.14203e-12 5e-05 1.46608e-10 
183 1 0.161086 0.0169264 0.0074181 0.0059184 -0.000908703 0.00063247 -8.44863e-11 -2.99922e-11 -6.37275e-13 5e-05 1.46608e-10 
184 1 0.167011 0.0174011 0.00735894 0.00566725 -0.0014341 0.00118916 -2.15605e-11 -4.85286e-11 1.0686e-11 5e-05 1.46608e-10 
186 1 0.16099 0.0176749 0.00719925 0.00591411 -0.000842612 0.000614066 2.22414e-12 5.06021e-11 -5.19482e-12 5e-05 1.46608e-10 
187 1 0.166978 0.0176479 0.00728543 0.00564494 -0.00144123 0.00118734 1.38842e-12 -2.85713e-11 1.14951e-11 5e-05 1.46608e-10 
188 1 0.166805 0.0166259 0.00764122 0.00530966 -0.00137465 0.0011298 8.74598e-11 -1.1288e-10 1.09111e-10 5e-05 1.46608e-10 
189 1 0.167084 0.0176945 0.00728729 0.00563044 -0.00143338 0.00118435 -1.88596e-11 1.5895e-11 -1.24132e-11 5e-05 1.46608e-10 
190 1 0.155051 0.0175962 0.00733648 0.00607144 0.000220375 -0.000746719 -6.96447e-13 -2.74706e-12 6.43675e-13 5e-05 1.46608e-10 
191 1 0.166781 0.0168143 0.00759108 0.00527035 -0.00138723 0.00111368 2.03726e-10 -2.3199e-10 4.98491e-11 5e-05 1.46608e-10 
192 1 0.161341 0.017196 0.00735761 0.00589016 -0.000823029 0.000606529 1.27112e-10 -1.12536e-10 4.23935e-11 5e-05 1.46608e-10 
193 1 0.167013 0.016635 0.00757294 0.00530011 -0.00136077 0.00111648 2.65599e-11 -3.75239e-11 -9.89292e-12 5e-05 1.46608e-10 
194 1 0.161461 0.0182058 0.00533758 1.41061e-15 -1.10228e-14 8.66691e-14 8.30644e-22 5.2862e-23 -7.03104e-24 5e-05 1.46608e-10 
195 1 0.161198 0.0174009 0.00729029 0.00587968 -0.000860397 0.000617743 -3.80636e-11 -3.84631e-11 2.48e-11 5e-05 1.46608e-10 
196 1 0.160832 0.0165981 0.00755503 0.00561957 -0.000963697 0.000184933 -1.3203e-10 -2.5752e-11 4.9718e-11 5e-05 1.46608e-10 
197 1 0.154831 0.0169815 0.00739453 0.00627064 0.00019915 -0.000335324 1.80436e-11 -5.12172e-12 -3.66274e-11 5e-05 1.46608e-10 
198 1 0.161254 0.0184614 0.00699238 0.00558955 -0.000801681 0.000581933 -8.56479e-11 8.83702e-11 -3.31939e-11 5e-05 1.46608e-10 
199 1 0.161213 0.0182788 0.00706051 0.00553481 -0.000777897 0.000564531 -1.92919e-10 -1.83243e-11 -5.35323e-12 5e-05 1.46608e-10 
201 1 0.160915 0.0173508 0.00728666 0.00593218 -0.000862488 0.000619137 -1.87666e-12 -9.16248e-12 5.32222e-12 5e-05 1.46608e-10 
202 1 0.161166 0.0176504 0.00721739 0.00591159 -0.000849035 0.000615496 -2.12912e-11 6.6998e-11 2.39538e-12 5e-05 1.46608e-10 
203 1 0.166848 0.0170805 0.00742585 0.00568504 -0.00144955 0.00121529 7.319e-11 1.47327e-11 3.03395e-11 5e-05 1.46608e-10 
204 1 0.160566 0.0159665 0.00818851 0.00538571 -3.92383e-05 0.000462003 8.66625e-11 1.1995e-10 -1.46117e-10 5e-05 1.46608e-10 
205 1 0.161259 0.0172489 0.00733737 0.00589129 -0.000827526 0.00060807 1.5094e-10 -5.53942e-11 2.66049e-11 5e-05 1.46608e-10 
206 1 0.160871 0.0167745 0.00746944 0.00596948 -0.00100608 0.000224066 1.68966e-10 -2.63717e-10 -2.90893e-11 5e-05 1.46608e-10 
207 1 0.160978 0.0170874 0.00745604 0.00596127 -0.000783992 0.000586479 -9.83499e-12 2.47429e-11 -3.02405e-11 5e-05 1.46608e-10 
208 1 0.161069 0.0178596 0.00724182 0.00588012 -0.000865459 0.000619653 -4.04252e-12 6.73728e-11 -2.26939e-11 5e-05 1.46608e-10 
209 1 0.157803 0.0171711 0.0073878 0.00580584 0.000861531 -0.000199743 -6.74508e-13 7.26957e-13 -3.84239e-13 5e-05 1.46608e-10 
210 1 0.167059 0.0175965 0.00731116 0.00564321 -0.00143513 0.00118561 -2.0273e-11 -3.8873e-12 1.20185e-11 5e-05 1.46608e-10 
211 1 0.166956 0.0175565 0.00731949 0.00564248 -0.00143817 0.00118692 -2.65969e-11 -2.65235e-11 5.10182e-12 5e-05 1.46608e-10 
212 1 0.161221 0.0174955 0.00726487 0.00591329 -0.000856882 0.000617159 -1.02128e-10 3.44492e-11 -1.06501e-11 5e-05 1.46608e-10 
213 1 0.167128 0.017886 0.00723998 0.00562497 -0.00144036 0.00118497 3.65211e-11 -1.59686e-11 1.12777e-11 5e-05 1.46608e-10 
214 1 0.166891 0.0172701 0.00737881 0.00567826 -0.00144688 0.00119452 1.75445e-11 5.17896e-11 -1.48938e-11 5e-05 1.46608e-10 
215 1 0.154999 0.0177613 0.00733625 0.00601524 0.000203332 -0.000739237 -7.83975e-13 -3.60055e-12 2.1396e-13 5e-05 1.46608e-10 
216 1 0.161153 0.0173856 0.00737862 0.00587422 -0.000846263 0.00061818 -4.93004e-11 -3.91377e-11 4.11491e-11 5e-05 1.46608e-10 
217 1 0.16727 0.0181139 0.00719613 0.00560902 -0.00142238 0.00117768 9.04624e-12 -1.66884e-11 6.16934e-12 5e-05 1.46608e-10 
218 1 0.160717 0.016484 0.00761664 0.00556255 -0.000651209 0.000149796 -5.43503e-11 -7.60842e-10 -2.55508e-10 5e-05 1.46608e-10 
219 1 0.166921 0.0170179 0.00745333 0.0056836 -0.00146311 0.00119751 6.20515e-11 -3.54799e-11 -1.40569e-11 5e-05 1.46608e-10 
220 1 0.161145 0.0175562 0.00724281 0.00591133 -0.000853422 0.000617847 -2.57397e-11 2.45626e-11 7.56475e-12 5e-05 1.46608e-10 
221 1 0.220872 0.0171316 0.00723114 0.00592855 0.000968542 -0.000368361 -2.2347e-13 -3.93091e-14 1.52103e-14 5e-05 1.46608e-10 
222 1 0.16722 0.0171355 0.00746218 0.00567149 -0.00142797 0.00118791 -2.62336e-11 -1.00809e-11 4.91247e-13 5e-05 1.46608e-10 
223 1 0.161087 0.0177074 0.00719616 0.00591317 -0.000841732 0.000612838 2.92942e-11 1.15542e-10 -4.2552e-11 5e-05 1.46608e-10 
224 1 0.134282 0.0173854 0.007975 -0.0221314 0.0353194 -0.0143638 9.47209e-11 -7.01182e-11 -6.73346e-11 5e-05 1.46608e-10 
225 1 0.166862 0.0167548 0.00751854 0.005272 -0.00139101 0.00111984 2.44634e-11 -2.433e-11 2.02843e-11 5e-05 1.46608e-10 
226 1 0.161031 0.0175445 0.00734298 0.00591422 -0.000848472 0.000616784 -1.14197e-10 1.6399e-11 -1.38849e-11 5e-05 1.46608e-10 
227 1 0.155009 0.0174011 0.00734941 0.00613979 0.000204415 -0.000754477 -1.53957e-13 -4.52088e-13 -1.90335e-12 5e-05 1.46608e-10 
228 1 0.154789 0.0167974 0.00745497 0.00612448 0.000304552 9.0245e-05 8.44819e-12 1.14963e-11 1.77557e-11 5e-05 1.46608e-10 
229 1 0.161316 0.0175259 0.00726225 0.00591428 -0.00084864 0.000615773 -9.6203e-11 6.90912e-12 -9.87398e-12 5e-05 1.46608e-10 
230 1 0.16086 0.0171128 0.00735086 0.00595387 -0.000855856 0.000627822 -2.87336e-11 -1.66587e-11 5.07305e-11 5e-05 1.46608e-10 
231 1 0.154768 0.0166199 0.00754233 0.00571123 0.000352109 5.05942e-05 -1.47395e-11 -7.12465e-12 1.34531e-11 5e-05 1.46608e-10 
232 1 0.161275 0.0181213 0.00709042 0.00556406 -0.000762026 0.00056856 -1.17175e-10 -3.55219e-11 4.98962e-12 5e-05 1.46608e-10 
234 1 0.167092 0.0176611 0.00738118 0.00563251 -0.00143017 0.00118486 -1.84905e-11 8.21773e-11 -1.6438e-11 5e-05 1.46608e-10 
235 1 0.161123 0.0171205 0.00736531 0.00590328 -0.000847016 0.000614375 3.44275e-11 -8.4493e-11 2.42655e-11 5e-05 1.46608e-10 
236 1 0.160839 0.0170185 0.00737627 0.00596022 -0.000854165 0.000619718 7.06292e-13 6.35313e-11 -2.11782e-11 5e-05 1.46608e-10 
237 1 0.160796 0.016836 0.00744362 0.00555043 -0.00088833 0.000166083 5.12218e-10 1.635e-09 -5.42862e-10 5e-05 1.46608e-10 
239 1 0.154601 0.0161394 0.00812433 0.00544453 -0.000186744 -0.000367948 -2.42448e-12 -2.1537e-11 3.80424e-11 5e-05 1.46608e-10 
240 1 0.154619 0.0161896 0.00803975 0.00548638 -0.000193203 -0.000362725 1.44663e-11 -6.21378e-11 6.4268e-11 5e-05 1.46608e-10 
241 1 0.15469 0.0163368 0.00778941 0.00559226 -0.00021185 -0.000349688 -4.4573e-11 -1.98772e-12 2.41081e-12 5e-05 1.46608e-10 
242 1 0.161055 0.0179577 0.007123 0.00589584 -0.000837685 0.000611577 1.81268e-11 6.78196e-11 -2.29409e-11 5e-05 1.46608e-10 
244 1 0.154637 0.0162398 0.00795518 0.00554689 -0.000203779 -0.000355665 1.81186e-10 -6.91138e-11 5.43133e-11 5e-05 1.46608e-10 
246 1 0.154729 0.0165365 0.00758229 0.00572872 0.00034589 5.33673e-05 -2.2421e-11 6.53149e-12 1.6733e-11 5e-05 1.46608e-10 
247 1 0.161243 0.0175898 0.00723945 0.00591013 -0.000850759 0.000614436 -1.12733e-10 9.78883e-12 -1.63969e-11 5e-05 1.46608e-10 
248 1 0.160881 0.0172134 0.00736697 0.0058824 -0.000896571 0.000601941 -6.44389e-12 -1.61104e-11 4.95149e-11 5e-05 1.46608e-10 
249 1 0.154978 0.0176637 0.00734271 0.00604874 0.000194968 -0.000742925 -8.10577e-13 -4.00331e-12 6.21102e-13 5e-05 1.46608e-10 
250 1 0.160716 0.0164378 0.00770528 0.00559427 -0.000371534 0.000258914 -6.48174e-11 -8.97114e-10 4.05392e-10 5e-05 1.46608e-10 
251 1 0.166869 0.0171753 0.00740223 0.00568595 -0.00144984 0.00119895 2.05381e-11 5.02845e-11 -1.19279e-11 5e-05 1.46608e-10 
252 1 0.154873 0.0171759 0.00737504 0.00621772 0.000155358 -0.000761996 2.37389e-12 9.28222e-12 -9.24669e-12 5e-05 1.46608e-10 
253 1 0.155125 0.0175287 0.00733025 0.00609488 0.000246998 -0.000750652 6.77131e-13 1.13002e-12 3.76746e-13 5e-05 1.46608e-10 
254 1 0.15471 0.0164484 0.00762535 0.00575391 0.00034351 5.53706e-05 2.39575e-11 2.34216e-11 -4.08162e-12 5e-05 1.46608e-10 
255 1 0.161197 0.0181798 0.00706884 0.00548588 -0.000785349 0.00057014 -5.68694e-11 1.22183e-10 -4.16826e-11 5e-05 1.46608e-10 
256 1 0.161228 0.0171555 0.00736199 0.00589342 -0.000845556 0.000613182 6.37191e-11 -5.58775e-11 1.86287e-11 5e-05 1.46608e-10 
257 1 0.161019 0.0172825 0.00740148 0.00587097 -0.000841964 0.000597758 4.88105e-11 -5.15736e-11 -7.87586e-12 5e-05 1.46608e-10 
258 1 0.161022 0.0174226 0.00727304 0.00592725 -0.000825016 0.000609546 4.976e-12 -3.36566e-11 5.00126e-12 5e-05 1.46608e-10 
259 1 0.154894 0.0172735 0.00736857 0.00618364 0.000163167 -0.000757788 1.37323e-12 1.32467e-11 5.02689e-12 5e-05 1.46608e-10 
261 1 0.161074 0.0172749 0.0073183 0.00588976 -0.000844214 0.000611665 6.26336e-11 -4.96214e-11 6.71864e-12 5e-05 1.46608e-10 
262 1 0.160776 0.016748 0.00748649 0.0054985 -0.000763578 8.935e-05 3.50233e-10 1.50307e-09 -7.76599e-10 5e-05 1.46608e-10 