ITEM: TIMESTEP
35400000
ITEM: NUMBER OF ATOMS
271
ITEM: BOX BOUNDS ff ff ff
-0.02 0.43
-0.02 0.06
-0.02 0.07
ITEM: ATOMS id type x y z vx vy vz fx fy fz radius mass 
1 1 0.218818 0.0152579 0.00898982 0.00595269 7.54709e-05 0.0012624 -3.90623e-11 -3.86805e-11 3.55213e-11 5e-05 1.46608e-10 
2 1 0.219656 0.0177349 0.00714317 0.00591956 -0.00080698 0.000337882 1.12225e-11 -6.6717e-12 1.15262e-11 5e-05 1.46608e-10 
3 1 0.21384 0.0177534 0.00705091 0.00592019 -0.000360475 -8.24712e-05 -4.75867e-10 6.70271e-11 -3.4772e-11 5e-05 1.46608e-10 
4 1 0.219738 0.0176248 0.00716183 0.00592325 -0.000809373 0.000337618 1.9686e-10 -9.24229e-11 2.80738e-11 5e-05 1.46608e-10 
5 1 0.218796 0.0151916 0.00906138 0.00596594 7.27689e-05 0.00126823 -1.77233e-11 -3.92101e-11 3.93902e-11 5e-05 1.46608e-10 
6 1 0.225341 0.0171569 0.00740982 0.00548085 -0.000350887 -0.000309662 6.58792e-11 -2.48566e-11 3.39932e-11 5e-05 1.46608e-10 
7 1 0.218904 0.0155232 0.00870311 0.00590752 8.14282e-05 0.00124542 5.95957e-13 -1.09712e-11 2.01898e-11 5e-05 1.46608e-10 
8 1 0.218774 0.0151253 0.00913304 0.00597865 6.99654e-05 0.00127352 -2.11786e-12 -3.30727e-11 3.6264e-11 5e-05 1.46608e-10 
9 1 0.225458 0.0176554 0.00710138 0.00615225 -1.27317e-06 0.000443867 6.31342e-12 1.04405e-10 -1.64824e-11 5e-05 1.46608e-10 
10 1 0.219365 0.0172031 0.00720743 0.00555822 -0.000713096 0.000308223 6.70596e-11 1.66184e-10 2.09789e-11 5e-05 1.46608e-10 
11 1 0.219498 0.0174306 0.00718024 0.00564293 -0.0007466 0.000318975 4.70593e-10 -1.52761e-10 7.28053e-11 5e-05 1.46608e-10 
12 1 0.212955 0.0157127 0.00857155 0.00592908 0.000113059 0.000619277 3.1013e-10 -3.76728e-11 2.00836e-11 5e-05 1.46608e-10 
13 1 0.21871 0.0149508 0.00936558 0.00597136 -0.000655066 0.000748545 -5.81011e-12 -9.81141e-12 7.23059e-11 5e-05 1.46608e-10 
14 1 0.213627 0.0183918 0.006943 0.00621795 -0.000141373 0.000463253 1.71443e-10 2.1175e-10 -1.95159e-10 5e-05 1.46608e-10 
15 1 0.21975 0.0175257 0.00717631 0.00586993 -0.000899755 0.000348438 3.15336e-11 -2.25215e-10 3.89914e-11 5e-05 1.46608e-10 
16 1 0.213728 0.0184285 0.00695661 0.00599887 -0.000228866 0.000416433 7.36637e-10 9.31644e-10 2.95834e-10 5e-05 1.46608e-10 
17 1 0.219755 0.0177224 0.00714866 0.00591056 -0.000834602 0.000340694 -3.59935e-11 -2.30303e-11 6.88829e-12 5e-05 1.46608e-10 
19 1 0.218753 0.015059 0.00920469 0.00599011 6.8769e-05 0.00127956 5.04789e-13 -2.31909e-11 3.41408e-11 5e-05 1.46608e-10 
21 1 0.219327 0.0170494 0.00732956 0.00549146 -0.000758183 0.000234362 -1.10755e-10 9.93294e-11 -1.62719e-10 5e-05 1.46608e-10 
22 1 0.219541 0.0172724 0.00720427 0.00553949 -0.000745503 0.000315046 -9.60779e-11 -1.92583e-10 2.02866e-11 5e-05 1.46608e-10 
23 1 0.213198 0.0162522 0.00810252 0.00573668 0.000151062 0.000565335 -9.47302e-11 -2.52545e-10 2.04671e-10 5e-05 1.46608e-10 
24 1 0.22554 0.0180143 0.00696415 0.00629622 -4.03834e-05 -0.000234244 -6.01295e-12 -1.03777e-11 -3.5489e-10 5e-05 1.46608e-10 
25 1 0.218969 0.0157221 0.00848817 0.00586908 8.23138e-05 0.00123456 6.97402e-12 -3.37476e-11 -1.04795e-12 5e-05 1.46608e-10 
26 1 0.225418 0.0174811 0.00719097 0.0055776 7.12534e-05 0.000362104 4.10716e-11 1.63228e-10 -9.7227e-11 5e-05 1.46608e-10 
27 1 0.213923 0.0181302 0.00693293 0.00603257 -0.000223803 -0.000129138 -4.92336e-10 -3.14081e-10 1.38166e-10 5e-05 1.46608e-10 
28 1 0.219652 0.017539 0.00717069 0.00587827 -0.000808606 0.000335591 6.14012e-11 -1.249e-10 1.23833e-11 5e-05 1.46608e-10 
29 1 0.218926 0.0155896 0.00863162 0.00589361 8.12483e-05 0.00124157 -1.16265e-11 -1.02994e-11 2.44312e-11 5e-05 1.46608e-10 
30 1 0.219438 0.0174525 0.00725738 0.00552132 -0.000810197 0.000266263 -8.85661e-11 2.5073e-11 -3.64755e-10 5e-05 1.46608e-10 
31 1 0.218991 0.0157884 0.0084165 0.00585642 8.49962e-05 0.0012307 3.82412e-13 8.43065e-12 1.88234e-11 5e-05 1.46608e-10 
32 1 0.21945 0.0167928 0.00753108 0.00542756 -0.000719984 0.000208891 1.20702e-10 9.57015e-11 -1.05534e-10 5e-05 1.46608e-10 
33 1 0.225359 0.0172317 0.00734613 0.00549366 -0.000363556 -0.000304202 2.18178e-10 -3.37038e-11 1.84211e-10 5e-05 1.46608e-10 
34 1 0.218883 0.015457 0.00877487 0.00592643 8.03096e-05 0.00125118 1.62125e-11 -1.64741e-11 2.66851e-11 5e-05 1.46608e-10 
35 1 0.219622 0.0170777 0.00728342 0.00544194 -0.000819603 0.00028948 -2.89742e-11 -6.45684e-12 2.18148e-11 5e-05 1.46608e-10 
36 1 0.225519 0.0179167 0.00696728 0.00628558 -2.39352e-05 0.000471158 1.32186e-10 3.76044e-12 7.04529e-11 5e-05 1.46608e-10 
37 1 0.219529 0.0179738 0.00710455 0.00592991 -0.000790074 0.000335592 3.1151e-11 8.27473e-11 -8.39245e-12 5e-05 1.46608e-10 
38 1 0.219694 0.0183074 0.00706358 0.00591898 -0.000830351 0.000340464 8.18157e-12 -2.69454e-11 4.26107e-12 5e-05 1.46608e-10 
39 1 0.225562 0.0181119 0.00696266 0.00628061 -3.21794e-05 -0.000226487 1.42303e-11 1.57412e-11 -1.39834e-10 5e-05 1.46608e-10 
41 1 0.219791 0.0178152 0.00713688 0.00593384 -0.000802308 0.000336856 -8.29341e-11 -7.46475e-11 9.97003e-12 5e-05 1.46608e-10 
42 1 0.321436 0.0173475 0.00552525 4.5694e-16 2.25539e-15 8.4636e-14 -3.98404e-24 -2.64956e-24 2.06795e-25 5e-05 1.46608e-10 
44 1 0.219639 0.0176372 0.00715634 0.00591937 -0.000803277 0.000337074 4.4273e-11 -7.24582e-11 2.28968e-11 5e-05 1.46608e-10 
45 1 0.225379 0.0173117 0.00728932 0.00552244 -0.000345159 -0.000283404 -2.35747e-10 1.64976e-12 9.1243e-11 5e-05 1.46608e-10 
47 1 0.218839 0.0153242 0.00891807 0.00594354 7.76518e-05 0.00125795 -1.14541e-11 -3.59395e-11 3.70196e-11 5e-05 1.46608e-10 
48 1 0.219668 0.018206 0.00707695 0.00592439 -0.000829295 0.000340519 -3.09777e-12 -3.02313e-11 3.5824e-12 5e-05 1.46608e-10 
50 1 0.219037 0.0159255 0.00827862 0.00516863 -0.000616532 0.000274682 -3.82349e-11 8.86918e-14 -2.61771e-12 5e-05 1.46608e-10 
51 1 0.219013 0.0158558 0.008346 0.00579424 -0.000263418 0.000872949 -3.29617e-11 4.89361e-11 3.8066e-11 5e-05 1.46608e-10 
52 1 0.212868 0.0154261 0.00883643 0.00604621 -0.000372772 7.19113e-05 -8.0369e-11 2.10108e-10 -6.14733e-11 5e-05 1.46608e-10 
53 1 0.225498 0.0178296 0.00701199 0.00624061 -1.91264e-05 0.000458269 6.16292e-11 -7.87517e-11 7.79259e-11 5e-05 1.46608e-10 
54 1 0.219577 0.0179067 0.00718175 0.00592488 -0.000813942 0.000339548 2.8574e-11 8.27578e-11 1.09037e-12 5e-05 1.46608e-10 
55 1 0.212803 0.015239 0.00906143 0.00607865 -0.000364951 4.74896e-05 1.12701e-10 1.98637e-10 -2.87839e-10 5e-05 1.46608e-10 
56 1 0.219551 0.0180721 0.00709147 0.00592109 -0.000824253 0.000339841 -7.81262e-12 -4.97834e-11 5.10014e-12 5e-05 1.46608e-10 
57 1 0.225398 0.0173939 0.00723579 0.00557462 7.12288e-05 0.000363885 -3.82463e-11 1.36351e-10 2.40514e-11 5e-05 1.46608e-10 
59 1 0.219527 0.0171743 0.0072176 0.00549341 -0.000730557 0.000307222 1.28783e-11 -2.13369e-10 -6.48055e-11 5e-05 1.46608e-10 
61 1 0.21931 0.0166135 0.00768918 0.00532501 -0.000743772 0.000233511 8.90832e-11 -1.2709e-10 7.94485e-11 5e-05 1.46608e-10 
62 1 0.219811 0.0179876 0.00711322 0.00593257 -0.000813044 0.000338562 3.03532e-11 -5.64333e-11 8.55273e-12 5e-05 1.46608e-10 
63 1 0.219788 0.017434 0.00719068 0.00575114 -0.000956053 0.000351709 -6.73097e-11 -2.25282e-10 3.95061e-11 5e-05 1.46608e-10 
64 1 0.225584 0.0182095 0.00696117 0.00625914 -2.8813e-05 -0.000227972 -7.58082e-12 -5.44525e-11 2.0393e-11 5e-05 1.46608e-10 
65 1 0.213145 0.01637 0.00798718 0.00567756 0.000145521 0.000562029 -1.47004e-11 -2.26336e-10 1.98626e-10 5e-05 1.46608e-10 
66 1 0.212781 0.0151773 0.00913707 0.00608943 -0.000360752 5.25127e-05 1.39587e-10 3.56167e-10 -4.83996e-10 5e-05 1.46608e-10 
67 1 0.219581 0.0178111 0.00712954 0.00592787 -0.000802192 0.000336766 -2.45958e-13 -1.08948e-11 -1.04629e-11 5e-05 1.46608e-10 
68 1 0.21949 0.0169425 0.00740455 0.00550301 -0.000713874 0.000192134 -2.19005e-11 -1.0376e-10 5.07916e-11 5e-05 1.46608e-10 
69 1 0.219586 0.0180057 0.007193 0.00593173 -0.0008196 0.000344919 1.10703e-10 7.02535e-11 2.00492e-11 5e-05 1.46608e-10 
70 1 0.225438 0.0175683 0.00714618 0.00585715 3.56188e-05 0.000401511 4.67882e-12 1.27175e-10 -6.57759e-11 5e-05 1.46608e-10 
71 1 0.212851 0.0153615 0.00891093 0.00594993 -0.000354508 4.82192e-05 8.03765e-11 4.13407e-10 1.43529e-10 5e-05 1.46608e-10 
72 1 0.219465 0.0176888 0.00714246 0.00591757 -0.000791198 0.000335998 1.07965e-10 8.60066e-11 -6.47166e-11 5e-05 1.46608e-10 
73 1 0.219596 0.0182747 0.00706453 0.00591898 -0.000835173 0.000341198 -1.13406e-11 -5.00577e-11 6.69382e-12 5e-05 1.46608e-10 
74 1 0.219651 0.0181082 0.00709015 0.00592698 -0.000828019 0.000340226 5.31587e-12 -9.24008e-12 -1.96418e-13 5e-05 1.46608e-10 
76 1 0.213852 0.0181978 0.00695152 0.00588563 -0.000439041 -2.49368e-05 -2.55363e-10 -5.11936e-10 1.43074e-09 5e-05 1.46608e-10 
77 1 0.219626 0.0171578 0.00722365 0.00548514 -0.000785706 0.00032153 9.57771e-11 -5.84249e-13 3.24466e-11 5e-05 1.46608e-10 
78 1 0.213606 0.0182955 0.00692527 0.00625301 -0.000187289 0.000440351 2.42357e-10 4.63962e-10 1.85587e-10 5e-05 1.46608e-10 
79 1 0.212912 0.0155667 0.00870124 0.00594071 0.000127887 0.000600177 -9.3271e-11 1.00395e-10 -1.30324e-10 5e-05 1.46608e-10 
80 1 0.219753 0.0179065 0.00712252 0.00592665 -0.000809814 0.000337999 1.90786e-11 -4.25671e-11 5.66795e-12 5e-05 1.46608e-10 
81 1 0.21375 0.018527 0.00697477 0.00598802 -0.000343593 0.00039265 -4.50239e-10 -1.75834e-10 -6.79684e-11 5e-05 1.46608e-10 
82 1 0.212975 0.0157868 0.00850741 0.0058912 0.000113436 0.000622474 3.95036e-10 -6.32387e-11 3.05404e-11 5e-05 1.46608e-10 
83 1 0.213659 0.0181341 0.0069403 0.00606162 -0.000345957 -8.38046e-05 8.77734e-10 -2.4333e-11 -1.54019e-11 5e-05 1.46608e-10 
84 1 0.225479 0.0177424 0.0070568 0.00614188 -1.30065e-06 0.000442151 -1.68846e-10 -2.90611e-11 4.29454e-11 5e-05 1.46608e-10 
85 1 0.213862 0.0178465 0.00702171 0.00597393 -0.000381111 -7.79462e-05 -1.51764e-10 6.07988e-12 -1.11294e-11 5e-05 1.46608e-10 
86 1 0.219852 0.0178979 0.00712749 0.00592568 -0.000815356 0.000338577 2.2031e-11 -1.0608e-10 1.60801e-11 5e-05 1.46608e-10 
87 1 0.21977 0.0182443 0.00707539 0.00592327 -0.000822575 0.000339549 1.87317e-11 -1.68217e-11 3.13947e-12 5e-05 1.46608e-10 
88 1 0.219194 0.0165237 0.00777193 0.00526865 -0.000700013 0.000202865 -4.59458e-11 -3.21957e-11 2.11568e-11 5e-05 1.46608e-10 
89 1 0.219748 0.0181477 0.00708822 0.00592972 -0.000821462 0.000339661 2.07957e-12 -3.9417e-11 4.90321e-12 5e-05 1.46608e-10 
90 1 0.219519 0.0175276 0.00716732 0.00570887 -0.000774548 0.000320194 2.60832e-10 -1.4069e-10 1.66858e-10 5e-05 1.46608e-10 
91 1 0.213904 0.0180343 0.00696289 0.00600075 -0.000274676 -0.000111646 1.42996e-11 -1.01473e-10 9.08395e-11 5e-05 1.46608e-10 
92 1 0.219629 0.0180115 0.00710301 0.00592064 -0.000823083 0.000339691 2.30697e-11 3.94895e-12 -2.11037e-12 5e-05 1.46608e-10 
93 1 0.219075 0.0160753 0.00815175 0.00551584 -0.000751695 0.000218592 -7.8751e-11 1.76286e-12 3.92339e-11 5e-05 1.46608e-10 
94 1 0.219479 0.0173463 0.00723051 0.00555437 -0.000723897 0.000315995 6.92633e-11 -5.68206e-11 5.84201e-11 5e-05 1.46608e-10 
95 1 0.219444 0.0171541 0.00726958 0.00547422 -0.000711213 0.000276983 1.183e-10 -3.90297e-11 -5.83952e-11 5e-05 1.46608e-10 
96 1 0.219095 0.0161495 0.00808789 0.00547654 -0.000740674 0.000220108 -1.00036e-10 3.73443e-11 -1.46796e-11 5e-05 1.46608e-10 
97 1 0.21326 0.0164722 0.00790681 0.00559078 0.000203217 0.000497411 4.79548e-11 -2.4806e-10 2.45476e-10 5e-05 1.46608e-10 
98 1 0.21959 0.0174647 0.00719786 0.00570059 -0.000808354 0.000301788 4.87843e-10 -3.4866e-10 3.97708e-10 5e-05 1.46608e-10 
99 1 0.213354 0.0168384 0.00757982 0.00548027 0.000260344 0.000431983 -2.45281e-10 -4.02869e-11 -3.22524e-11 5e-05 1.46608e-10 
100 1 0.219725 0.0180416 0.00710235 0.00591934 -0.000840047 0.000341561 3.43628e-12 -1.23839e-11 -3.47329e-12 5e-05 1.46608e-10 
101 1 0.212932 0.0156399 0.00863623 0.00594277 0.000121138 0.000612788 -3.07499e-11 4.23423e-11 -8.94147e-11 5e-05 1.46608e-10 
102 1 0.0643568 0.0187248 0.00531097 4.05132e-15 1.0571e-14 8.29618e-14 1.62502e-22 -8.3235e-23 2.48154e-24 5e-05 1.46608e-10 
103 1 0.24257 0.0191927 0.00520306 -2.11393e-22 4.86658e-23 1.23839e-22 0 0 0 5e-05 1.46608e-10 
104 1 0.213552 0.0176679 0.00708645 0.00602263 -0.000219844 -0.000128573 3.53952e-10 -1.86626e-10 -2.15223e-11 5e-05 1.46608e-10 
105 1 0.213978 0.0179695 0.00698032 0.00591641 -0.00034336 -8.77931e-05 -2.65088e-10 3.75733e-10 -9.00795e-11 5e-05 1.46608e-10 
106 1 0.213796 0.0175673 0.00710929 0.0058878 -0.000330231 -8.98398e-05 -1.70671e-10 2.75219e-10 -9.01085e-11 5e-05 1.46608e-10 
107 1 0.213775 0.0174739 0.00713856 0.00575073 -0.000424671 -5.66168e-05 -2.60404e-10 1.27168e-10 -3.21917e-11 5e-05 1.46608e-10 
108 1 0.219558 0.0181016 0.00718669 0.00592208 -0.000827877 0.00034083 -2.17051e-11 -4.69667e-11 -6.17861e-12 5e-05 1.46608e-10 
109 1 0.219771 0.0173362 0.0072039 0.00564429 -0.000944558 0.000346569 1.51705e-10 -1.51501e-10 2.57579e-11 5e-05 1.46608e-10 
110 1 0.219116 0.0162242 0.0080247 0.00539651 -0.000722939 0.000215761 -2.51772e-11 4.54179e-11 -4.97886e-11 5e-05 1.46608e-10 
111 1 0.219424 0.0170658 0.00731221 0.00548287 -0.000735287 0.000231551 -8.61694e-11 -1.29091e-11 -9.15353e-11 5e-05 1.46608e-10 
112 1 0.213618 0.0179473 0.00699882 0.00614654 -0.000322557 -9.77756e-05 -1.62124e-10 -3.41655e-10 2.98983e-10 5e-05 1.46608e-10 
113 1 0.213222 0.0166628 0.0077259 0.00542534 0.00017095 0.00050571 2.82734e-10 -1.85019e-10 2.63303e-10 5e-05 1.46608e-10 
114 1 0.213585 0.0182002 0.00694633 0.00623311 -0.000248894 0.000251171 3.02017e-10 7.08469e-10 1.18018e-10 5e-05 1.46608e-10 
115 1 0.219689 0.0174474 0.00718507 0.00578928 -0.000843662 0.000337384 5.99184e-11 -1.55649e-10 3.3164e-11 5e-05 1.46608e-10 
116 1 0.219552 0.017811 0.00722534 0.00592939 -0.000807183 0.00033642 2.6325e-11 -1.12259e-10 -2.52408e-11 5e-05 1.46608e-10 
117 1 0.21964 0.0184682 0.00703879 0.00591811 -0.000834666 0.000341082 -2.25444e-11 -7.47691e-11 9.29651e-12 5e-05 1.46608e-10 
118 1 0.213414 0.0174533 0.00715836 0.0055921 -8.65892e-06 8.40784e-05 3.99984e-10 -3.24784e-10 -5.89558e-10 5e-05 1.46608e-10 
119 1 0.21964 0.0172559 0.00721031 0.00554176 -0.000790124 0.000321966 8.22441e-11 -1.70339e-10 -1.78362e-11 5e-05 1.46608e-10 
120 1 0.218947 0.0156558 0.0085598 0.00588116 8.17955e-05 0.00123864 -7.86182e-12 -2.32829e-11 1.54901e-11 5e-05 1.46608e-10 
121 1 0.218861 0.0153905 0.00884642 0.00593891 7.89333e-05 0.00125539 1.82435e-11 -2.68892e-11 3.46016e-11 5e-05 1.46608e-10 
122 1 0.219387 0.0169133 0.00743598 0.00541065 -0.000738361 0.00022161 1.33e-11 6.29925e-11 1.48274e-11 5e-05 1.46608e-10 
123 1 0.213375 0.0172792 0.00724778 0.00560419 0.000174346 0.00048429 4.60575e-11 4.45718e-10 1.12457e-10 5e-05 1.46608e-10 
124 1 0.219407 0.0169882 0.00737282 0.00546042 -0.000748677 0.000221209 9.04584e-11 2.28612e-11 1.54101e-11 5e-05 1.46608e-10 
125 1 0.219715 0.0184042 0.00705071 0.00591612 -0.000835943 0.000341171 -6.69936e-11 -1.14192e-10 1.36369e-11 5e-05 1.46608e-10 
126 1 0.219333 0.0166878 0.00762617 0.00539537 -0.000751176 0.000235718 1.49531e-10 -3.4567e-11 3.35631e-11 5e-05 1.46608e-10 
127 1 0.213998 0.0180661 0.00695011 0.00612249 -0.00010918 -0.000165136 -2.50742e-10 2.3376e-10 -8.1594e-11 5e-05 1.46608e-10 
128 1 0.219367 0.0168384 0.00749926 0.00540779 -0.00074495 0.000228388 1.51372e-10 4.89115e-12 -3.83011e-11 5e-05 1.46608e-10 
129 1 0.219422 0.017495 0.00716828 0.00558203 -0.000691425 0.000310323 -2.25571e-10 2.4193e-10 1.70761e-11 5e-05 1.46608e-10 
131 1 0.213818 0.0176605 0.00708009 0.00578596 -0.000324911 -8.92394e-05 -2.32419e-10 2.39431e-10 -6.22267e-11 5e-05 1.46608e-10 
132 1 0.21954 0.0176244 0.00715441 0.00591442 -0.000805385 0.000337794 4.7313e-11 -1.32601e-11 4.13324e-11 5e-05 1.46608e-10 
133 1 0.219384 0.0173004 0.00719437 0.00552413 -0.000699753 0.000307018 1.18308e-11 1.95684e-10 -4.10376e-11 5e-05 1.46608e-10 
134 1 0.219348 0.0167634 0.00756261 0.00541418 -0.000750158 0.000233391 1.25833e-10 -5.74218e-12 -1.62835e-11 5e-05 1.46608e-10 
135 1 0.218731 0.0150145 0.00929166 0.00590869 -0.000188178 0.00113064 5.70711e-12 -1.17203e-11 5.59016e-11 5e-05 1.46608e-10 
136 1 0.213647 0.018488 0.00696067 0.00615497 -9.29876e-05 0.000449593 -3.54168e-10 -4.10544e-11 -3.76029e-10 5e-05 1.46608e-10 
137 1 0.219059 0.0159992 0.00821462 0.00541558 -0.000734693 0.000216723 -7.43822e-11 -1.06279e-11 5.46569e-13 5e-05 1.46608e-10 
138 1 0.219492 0.0176937 0.00723839 0.00590951 -0.000803292 0.000337766 -9.80949e-12 6.75867e-11 -1.54625e-11 5e-05 1.46608e-10 
140 1 0.219574 0.0173663 0.0071922 0.00560005 -0.00078451 0.00031825 2.7659e-10 -3.95313e-10 6.78764e-11 5e-05 1.46608e-10 
141 1 0.21364 0.0180406 0.00696958 0.00617443 -0.000341426 -0.000127818 1.2222e-10 3.64401e-10 2.43921e-10 5e-05 1.46608e-10 
142 1 0.213356 0.0172011 0.00730726 0.00558424 0.000213566 0.000530343 2.4749e-10 3.57935e-10 -3.29382e-11 5e-05 1.46608e-10 
143 1 0.212825 0.0153007 0.00898579 0.00604104 -0.000366075 6.4242e-05 1.54746e-10 2.16791e-10 2.66546e-10 5e-05 1.46608e-10 
144 1 0.213478 0.0177325 0.00706909 0.00607933 -0.000209566 -0.000140178 1.66437e-10 -3.31372e-10 -3.72603e-11 5e-05 1.46608e-10 
147 1 0.213707 0.0183318 0.00693886 0.00620687 -0.000199757 0.00043596 -3.76295e-10 2.6485e-10 -1.52811e-12 5e-05 1.46608e-10 
148 1 0.21345 0.0168686 0.0075636 0.00535671 0.000126229 0.000539393 -1.0925e-10 1.57412e-10 -1.29581e-10 5e-05 1.46608e-10 
149 1 0.219213 0.0165986 0.00770844 0.00530548 -0.000709905 0.000207186 -1.54995e-10 1.04919e-11 -1.51941e-12 5e-05 1.46608e-10 
150 1 0.0100679 0.0201683 0.00551526 8.38451e-15 1.24889e-15 -8.48743e-14 -1.04432e-23 6.08365e-23 -2.06795e-25 5e-05 1.46608e-10 
151 1 0.213317 0.0170287 0.0073992 0.00558229 0.000198558 0.000515556 -6.64455e-11 -1.21486e-10 2.07916e-11 5e-05 1.46608e-10 
153 1 0.213689 0.0186805 0.00699588 0.00610024 -8.65236e-06 0.000459496 2.83462e-10 -1.20906e-10 1.92602e-11 5e-05 1.46608e-10 
154 1 0.213435 0.0175461 0.00712754 0.00570729 -8.13303e-05 -8.84719e-05 6.23304e-10 -3.9502e-10 -2.67509e-10 5e-05 1.46608e-10 
155 1 0.213638 0.0172631 0.00722185 0.00569079 0.000142602 0.000575686 2.75504e-10 2.81293e-10 -2.5706e-10 5e-05 1.46608e-10 
156 1 0.213593 0.0178549 0.0070279 0.006142 -0.000273491 -0.000114582 -2.86985e-10 -2.74757e-10 1.57057e-10 5e-05 1.46608e-10 
157 1 0.0219312 0.0187687 0.00551176 -3.82862e-14 8.16898e-14 2.95887e-13 6.51792e-22 -3.27253e-23 9.32646e-23 5e-05 1.46608e-10 
158 1 0.21383 0.0181003 0.0069515 0.0059696 -0.000434358 -0.000768135 -7.773e-10 -1.01007e-09 -8.37786e-10 5e-05 1.46608e-10 
159 1 0.219826 0.0180856 0.00709993 0.00593313 -0.000815083 0.000338853 2.47115e-11 -2.93686e-11 5.74852e-12 5e-05 1.46608e-10 
160 1 0.213456 0.0176393 0.00709831 0.00591335 -0.000145816 -0.000135122 8.41712e-10 -4.007e-10 7.13243e-11 5e-05 1.46608e-10 
162 1 0.21377 0.0186232 0.00699242 0.00586132 -0.000294762 0.000389354 -7.77066e-10 -1.57701e-10 -6.45475e-11 5e-05 1.46608e-10 
164 1 0.213316 0.0166919 0.00771059 0.0053992 0.000247901 0.000431893 5.19076e-10 -1.10613e-10 1.55235e-10 5e-05 1.46608e-10 
165 1 0.213647 0.0176968 0.0070745 0.00611889 -0.000234804 -0.000126371 -5.08198e-12 -3.521e-11 1.97581e-11 5e-05 1.46608e-10 
166 1 0.219572 0.0181689 0.0070786 0.00592166 -0.000823415 0.000339679 -2.25586e-11 -8.71578e-11 1.1218e-11 5e-05 1.46608e-10 
168 1 0.213374 0.0169155 0.00751918 0.00550458 0.000263054 0.000429417 -3.58009e-11 -8.37469e-11 3.05457e-11 5e-05 1.46608e-10 
169 1 0.213822 0.0184585 0.00696874 0.00594038 -0.000443715 0.000367271 -5.02463e-10 1.85672e-10 -2.66203e-10 5e-05 1.46608e-10 
170 1 0.213722 0.0176322 0.00709186 0.00599691 -0.000331944 -9.36766e-05 -1.20075e-10 8.83899e-11 -3.50469e-11 5e-05 1.46608e-10 
171 1 0.219433 0.0175548 0.00724768 0.00570996 -0.000721171 0.000315995 1.41243e-10 2.22478e-10 5.29624e-11 5e-05 1.46608e-10 
172 1 0.213627 0.0176035 0.00710374 0.00597219 -0.000217173 -0.000128136 -6.10161e-11 -8.78091e-11 3.87504e-11 5e-05 1.46608e-10 
173 1 0.219692 0.0178281 0.00714643 0.00592849 -0.000811976 0.000338903 -4.08401e-11 1.89795e-11 2.30093e-12 5e-05 1.46608e-10 
174 1 0.213659 0.017352 0.00717965 0.005652 -0.000277388 -0.000108521 2.32921e-11 4.32282e-10 -1.83122e-10 5e-05 1.46608e-10 
175 1 0.207297 0.0169381 0.0074393 0.00562726 5.4556e-06 -0.000300618 -5.56483e-11 4.77285e-11 1.54799e-11 5e-05 1.46608e-10 
177 1 0.21349 0.0170149 0.00743321 0.00557029 0.000118605 0.000572558 8.26596e-11 1.57552e-10 -1.38655e-10 5e-05 1.46608e-10 
178 1 0.213413 0.0170576 0.00738432 0.00561891 0.000258849 0.000446062 1.90255e-10 -9.81818e-11 1.15812e-10 5e-05 1.46608e-10 
179 1 0.213489 0.0173879 0.00717418 0.0055896 -0.000199233 -0.00011871 2.83491e-13 3.11889e-10 -1.07885e-10 5e-05 1.46608e-10 
181 1 0.213777 0.0182606 0.00693219 0.00603237 -0.000323995 0.000343888 -1.68234e-09 4.28224e-10 -3.78408e-10 5e-05 1.46608e-10 
182 1 0.219403 0.0173978 0.00718131 0.00550665 -0.000686157 0.000305225 6.76647e-11 1.95573e-10 -1.02962e-11 5e-05 1.46608e-10 
183 1 0.213701 0.0175388 0.00712112 0.00588427 -0.000288854 -0.000103817 -4.71325e-11 1.61151e-10 -7.6801e-11 5e-05 1.46608e-10 
184 1 0.219453 0.017251 0.00724685 0.00552002 -0.000711002 0.000308518 -2.8705e-10 -3.59119e-11 -4.59586e-11 5e-05 1.46608e-10 
186 1 0.213298 0.0169555 0.00746459 0.0055606 0.000191258 0.000509838 7.08939e-11 -7.50272e-11 8.82347e-11 5e-05 1.46608e-10 
187 1 0.219308 0.0169737 0.007392 0.00547329 -0.000762697 0.000225632 1.29854e-11 9.69352e-11 -1.06371e-10 5e-05 1.46608e-10 
188 1 0.21947 0.0168677 0.0074678 0.005442 -0.0006999 0.000189373 1.0345e-10 5.61362e-11 -1.00546e-10 5e-05 1.46608e-10 
189 1 0.219561 0.0177213 0.00716844 0.00591829 -0.000803239 0.000338723 2.35964e-11 9.14472e-12 -2.59302e-11 5e-05 1.46608e-10 
190 1 0.20758 0.0182045 0.007125 0.00606214 -9.95336e-05 -0.000859692 -3.53241e-11 -1.52648e-10 -2.19193e-11 5e-05 1.46608e-10 
191 1 0.219507 0.0170178 0.00734108 0.00548268 -0.000723482 0.000209912 -3.86246e-11 9.72232e-11 -2.09579e-10 5e-05 1.46608e-10 
192 1 0.213606 0.0175102 0.00713297 0.00585315 -0.000186996 -0.000138494 -5.49867e-11 8.65331e-11 -2.41388e-11 5e-05 1.46608e-10 
193 1 0.219673 0.0173496 0.00719828 0.00565945 -0.000824535 0.00033078 3.54623e-11 -1.489e-10 1.71366e-11 5e-05 1.46608e-10 
194 1 0.161461 0.0182058 0.00533758 1.54172e-15 -1.1022e-14 8.6667e-14 -2.01822e-21 -2.8243e-22 -1.86116e-24 5e-05 1.46608e-10 
195 1 0.213809 0.0180051 0.00697491 0.0061035 -0.000325209 -0.000102496 -1.28953e-10 -4.24404e-10 -7.80869e-12 5e-05 1.46608e-10 
196 1 0.213219 0.0163255 0.00803743 0.00577426 0.000233189 0.000492635 -5.5077e-11 -2.29836e-10 2.11375e-10 5e-05 1.46608e-10 
197 1 0.207356 0.0171698 0.00725856 0.0055667 9.18582e-05 -0.000210917 -5.30521e-10 -2.38234e-10 -1.71002e-12 5e-05 1.46608e-10 
198 1 0.213668 0.0185843 0.00697822 0.0061541 -4.33284e-05 0.000457046 -2.22885e-10 -2.18233e-10 -2.27889e-10 5e-05 1.46608e-10 
199 1 0.213563 0.0181033 0.00695769 0.00622145 -0.000297023 -1.40233e-05 2.16526e-10 6.80342e-10 -4.1223e-10 5e-05 1.46608e-10 
201 1 0.213203 0.0165895 0.00779136 0.00540287 0.000171165 0.000504147 -1.08624e-10 -2.19547e-10 1.97541e-10 5e-05 1.46608e-10 
202 1 0.213693 0.0178854 0.00702346 0.00608886 -0.000300409 -9.64728e-05 1.70386e-10 -1.4542e-10 6.82688e-10 5e-05 1.46608e-10 
203 1 0.219136 0.016299 0.00796145 0.00528254 -0.000703032 0.000202323 8.08431e-11 3.51303e-11 -3.62669e-11 5e-05 1.46608e-10 
204 1 0.21289 0.0154942 0.00876647 0.00601606 -0.000114225 0.000334508 2.08921e-12 2.19997e-11 -1.92163e-10 5e-05 1.46608e-10 
205 1 0.213766 0.0178183 0.00703348 0.00597709 -0.000339759 -9.77759e-05 -5.62659e-11 9.13947e-11 6.14845e-11 5e-05 1.46608e-10 
206 1 0.213279 0.0165454 0.00784151 0.00549823 0.000219412 0.000471502 -3.80414e-11 -2.0675e-10 1.8379e-10 5e-05 1.46608e-10 
207 1 0.213393 0.0169845 0.00744948 0.00556934 0.000261885 0.000438817 2.00799e-10 -5.73489e-11 1.35187e-10 5e-05 1.46608e-10 
208 1 0.213573 0.0177614 0.00705716 0.00616409 -0.000213976 -0.000136959 -7.85399e-10 -6.7373e-10 1.67591e-10 5e-05 1.46608e-10 
209 1 0.210214 0.016779 0.00741515 0.00556036 -0.000856291 0.00042203 2.74727e-13 5.0773e-13 -1.36488e-13 5e-05 1.46608e-10 
210 1 0.219347 0.0171261 0.00726861 0.00553225 -0.000735045 0.000274369 -1.86132e-10 1.64255e-10 -7.43867e-11 5e-05 1.46608e-10 
211 1 0.219289 0.0168986 0.00745518 0.00544343 -0.000754105 0.000230063 2.72153e-11 8.2999e-11 -6.56911e-11 5e-05 1.46608e-10 
212 1 0.213714 0.0179777 0.00699147 0.00612674 -0.000350706 -0.000168763 -5.01761e-11 6.61085e-11 9.38034e-10 5e-05 1.46608e-10 
213 1 0.219507 0.017877 0.00711742 0.00592971 -0.000796127 0.000335539 3.29813e-11 9.10259e-11 -2.45419e-11 5e-05 1.46608e-10 
214 1 0.219235 0.0166734 0.00764592 0.00534533 -0.000726202 0.000216937 -1.63993e-10 3.42111e-11 -8.15395e-12 5e-05 1.46608e-10 
215 1 0.207559 0.0181074 0.00711248 0.00609474 -0.000116457 -0.000867034 4.57565e-12 -1.13655e-11 3.70345e-12 5e-05 1.46608e-10 
216 1 0.213668 0.0177906 0.00704514 0.00606986 -0.000316131 -0.000103132 4.3123e-10 2.379e-10 -1.08063e-10 5e-05 1.46608e-10 
217 1 0.219618 0.0183715 0.00705166 0.0059162 -0.000836088 0.000341133 -1.47475e-11 -6.34167e-11 8.10791e-12 5e-05 1.46608e-10 
218 1 0.212996 0.0158589 0.00844147 0.00586252 0.000111932 0.000616216 1.31782e-10 2.45825e-11 1.08449e-12 5e-05 1.46608e-10 
219 1 0.219181 0.0164476 0.00783547 0.00523552 -0.000693502 0.000199241 3.40037e-11 -2.22298e-11 9.28151e-12 5e-05 1.46608e-10 
220 1 0.213788 0.0179114 0.00700427 0.00603763 -0.000369352 -0.00010027 1.25799e-11 -7.79827e-11 -1.32839e-11 5e-05 1.46608e-10 
221 1 0.273341 0.0170721 0.00726354 0.00546953 -0.00072078 0.000375972 5.81798e-13 -1.04158e-13 1.60449e-14 5e-05 1.46608e-10 
222 1 0.219653 0.0179156 0.0071175 0.0059257 -0.000816579 0.000339502 1.90573e-11 2.36295e-11 3.99684e-12 5e-05 1.46608e-10 
223 1 0.213531 0.0175746 0.00711571 0.00577344 -0.000258163 -0.000115605 5.52703e-10 -2.97519e-10 2.76006e-11 5e-05 1.46608e-10 
224 1 0.0502301 0.0182442 0.00768594 -0.0139399 0.00183121 -0.000790543 3.26273e-10 -2.85463e-10 3.9407e-11 5e-05 1.46608e-10 
225 1 0.219523 0.0170933 0.00727753 0.00545528 -0.00072906 0.000205862 4.544e-11 1.87725e-11 1.90116e-11 5e-05 1.46608e-10 
226 1 0.213336 0.0171188 0.00736042 0.00559112 0.000202862 0.000521271 8.66977e-11 2.63004e-11 -1.92542e-10 5e-05 1.46608e-10 
227 1 0.207497 0.0178164 0.00707508 0.0062094 -0.000145176 -0.000888244 6.09141e-12 1.0786e-10 -2.40792e-11 5e-05 1.46608e-10 
228 1 0.207316 0.0170141 0.00737709 0.00567 4.31084e-07 -0.000297354 2.40941e-10 -9.10773e-11 5.05353e-11 5e-05 1.46608e-10 
229 1 0.213755 0.018163 0.00692835 0.00615518 -0.000339966 -4.08805e-05 3.53502e-10 5.82979e-11 1.82787e-10 5e-05 1.46608e-10 
230 1 0.213165 0.0164431 0.00792212 0.00560151 0.000154166 0.000544175 -3.15922e-11 -2.28873e-10 2.01203e-10 5e-05 1.46608e-10 
231 1 0.207277 0.0168622 0.00750146 0.00559716 7.07956e-06 -0.000301044 3.80656e-11 1.25045e-10 -9.42018e-11 5e-05 1.46608e-10 
232 1 0.213541 0.0180089 0.00698248 0.00619626 -0.000314491 -0.00010649 -1.91488e-10 1.64731e-10 -4.21619e-10 5e-05 1.46608e-10 
234 1 0.219443 0.0175919 0.00715537 0.00577849 -0.000731229 0.000326697 3.42396e-10 -1.04301e-11 9.47905e-12 5e-05 1.46608e-10 
235 1 0.213744 0.0177253 0.00706266 0.00584418 -0.000291155 -0.000101134 -6.23739e-10 1.85997e-10 -4.62702e-11 5e-05 1.46608e-10 
236 1 0.213124 0.0162969 0.00805211 0.00571984 0.00014043 0.000571394 -9.76678e-11 -2.15494e-10 1.67456e-10 5e-05 1.46608e-10 
237 1 0.213081 0.0161531 0.00818438 0.00573768 0.000135934 0.000576835 -2.08073e-10 -1.503e-10 6.91244e-11 5e-05 1.46608e-10 
239 1 0.207123 0.016255 0.00799887 0.00563337 -2.48581e-05 -0.000276533 1.78671e-10 -2.39582e-10 1.81152e-10 5e-05 1.46608e-10 
240 1 0.207143 0.0163308 0.00793673 0.00555213 -1.35335e-05 -0.000281371 1.17821e-10 -9.05887e-11 7.0033e-11 5e-05 1.46608e-10 
241 1 0.2072 0.0165586 0.00775018 0.00546478 9.30296e-07 -0.000288797 1.47267e-10 4.49531e-11 -4.74611e-11 5e-05 1.46608e-10 
242 1 0.213395 0.0173633 0.00719736 0.0056248 7.75184e-05 0.000320758 1.93152e-10 2.12537e-10 -1.02254e-10 5e-05 1.46608e-10 
244 1 0.207162 0.0164067 0.00787455 0.00542357 1.02884e-05 -0.000293616 -5.00891e-11 3.49973e-12 2.63039e-12 5e-05 1.46608e-10 
246 1 0.207258 0.0167863 0.00756363 0.00557864 3.80591e-06 -0.000295999 -3.59029e-11 2.01972e-10 -1.73971e-10 5e-05 1.46608e-10 
247 1 0.213947 0.0182272 0.00693934 0.00588382 -0.000304365 0.000385336 -6.51977e-10 -6.91446e-11 -3.07557e-11 5e-05 1.46608e-10 
248 1 0.213185 0.0165163 0.00785682 0.00546984 0.00016555 0.000517498 -2.91612e-11 -2.30037e-10 2.29375e-10 5e-05 1.46608e-10 
249 1 0.207538 0.0180104 0.00710004 0.00613224 -0.000129926 -0.000873375 3.28044e-11 1.15244e-10 2.06986e-11 5e-05 1.46608e-10 
250 1 0.213469 0.0169418 0.00749829 0.00541515 0.000125827 0.000546705 1.90378e-11 1.58088e-10 -1.29496e-10 5e-05 1.46608e-10 
251 1 0.219157 0.0163736 0.00789831 0.00521933 -0.000689471 0.000196335 3.32762e-11 1.92947e-11 -1.54442e-11 5e-05 1.46608e-10 
252 1 0.207393 0.0173414 0.00716333 0.00571509 0.000228339 0.000101831 -1.64208e-10 -6.14741e-12 8.77141e-11 5e-05 1.46608e-10 
253 1 0.207601 0.0183015 0.00713748 0.00602732 -8.06588e-05 -0.000851782 -5.15437e-11 -2.47003e-10 -3.09701e-11 5e-05 1.46608e-10 
254 1 0.207239 0.0167104 0.00762581 0.00554238 -1.80877e-06 -0.000290034 -4.78649e-11 2.35855e-10 -1.81457e-10 5e-05 1.46608e-10 
255 1 0.213499 0.0178286 0.00705107 0.0061542 -0.000258314 -0.000109962 -1.16541e-10 -2.00276e-10 7.53287e-11 5e-05 1.46608e-10 
256 1 0.213585 0.017417 0.00716229 0.0057418 -0.000191299 -0.00019502 -1.05814e-10 1.54956e-10 -6.07618e-11 5e-05 1.46608e-10 
257 1 0.213543 0.0172348 0.00723638 0.00567426 0.000151063 0.000563422 2.11345e-10 2.31847e-10 -2.55279e-10 5e-05 1.46608e-10 
258 1 0.213444 0.0172068 0.00725014 0.00553704 0.000133365 0.000549284 1.07879e-10 1.8246e-10 1.21161e-10 5e-05 1.46608e-10 
259 1 0.207413 0.0174357 0.00713693 0.0060809 0.000173192 0.000200946 3.69282e-10 -2.05208e-12 5.31071e-11 5e-05 1.46608e-10 
261 1 0.21326 0.0168093 0.00759512 0.00548006 0.000178538 0.000509816 -1.20861e-10 -2.04422e-10 1.64811e-10 5e-05 1.46608e-10 