ITEM: TIMESTEP
6200000
ITEM: NUMBER OF ATOMS
287
ITEM: BOX BOUNDS ff ff ff
-0.02 0.43
-0.02 0.06
-0.02 0.07
ITEM: ATOMS id type x y z vx vy vz fx fy fz radius mass 
1 1 0.0490339 0.0166156 0.00779738 0.00609516 0.000535596 0.000139975 -4.96728e-10 8.05668e-11 -1.75212e-10 5e-05 1.46608e-10 
2 1 0.0494252 0.0174329 0.00717034 0.00564338 0.000528248 -0.000349215 1.86975e-10 -3.6169e-10 1.67136e-10 5e-05 1.46608e-10 
3 1 0.0427825 0.0159908 0.00818325 0.00598888 -0.000464924 0.000290817 7.64104e-11 9.29766e-12 -3.81293e-11 5e-05 1.46608e-10 
4 1 0.0493534 0.0179492 0.00708212 0.00560606 0.000501339 -0.000346609 1.63139e-11 1.40406e-10 -3.32573e-11 5e-05 1.46608e-10 
5 1 0.0489168 0.0165192 0.0078833 0.00610096 0.000613286 6.04028e-05 -7.80752e-11 -2.38135e-10 2.384e-10 5e-05 1.46608e-10 
6 1 0.0549657 0.016646 0.0076701 0.00610882 0.00033641 0.000824929 2.73688e-11 -2.97478e-11 6.12826e-11 5e-05 1.46608e-10 
7 1 0.0491 0.017167 0.00729166 0.00598096 0.000721241 -1.16717e-06 -1.22e-10 5.15782e-10 -5.88992e-10 5e-05 1.46608e-10 
8 1 0.0488101 0.0161728 0.00822771 0.00598255 0.000634535 2.69696e-05 4.05737e-11 5.02588e-11 -4.7649e-11 5e-05 1.46608e-10 
9 1 0.0552259 0.0177525 0.00711238 0.00556543 -0.000218321 0.000507844 1.25543e-11 3.39092e-11 6.00122e-12 5e-05 1.46608e-10 
10 1 0.0490441 0.016935 0.00746989 0.00596229 0.000625026 3.14711e-05 -6.81081e-10 1.46286e-10 -3.71998e-10 5e-05 1.46608e-10 
11 1 0.0494651 0.0176258 0.00713432 0.00562518 0.000494599 -0.000345788 8.42798e-11 -2.22975e-10 -5.82763e-12 5e-05 1.46608e-10 
12 1 0.0429903 0.0167174 0.00759263 0.00605037 -0.000378861 0.000379916 2.58468e-11 1.4559e-10 -7.55073e-11 5e-05 1.46608e-10 
13 1 0.0488955 0.0164499 0.00795218 0.00607155 0.000628965 4.18601e-05 -1.28791e-10 -1.38058e-10 1.75724e-10 5e-05 1.46608e-10 
14 1 0.0427 0.0157577 0.00849762 0.00578209 -0.000429435 0.000259084 -4.00255e-10 -1.55407e-10 1.27356e-10 5e-05 1.46608e-10 
15 1 0.049234 0.0173703 0.00719023 0.00574422 0.000398485 -0.000270705 -8.4967e-11 -3.41944e-11 -5.30062e-10 5e-05 1.46608e-10 
16 1 0.0426794 0.0156994 0.00857621 0.00572397 -0.000429121 0.000257652 -2.37661e-10 -2.73036e-10 3.10536e-10 5e-05 1.46608e-10 
17 1 0.0490235 0.0168656 0.00753891 0.00622724 0.000543833 0.000138399 5.49807e-10 2.46285e-10 -6.98306e-11 5e-05 1.46608e-10 
18 1 0.0551065 0.0171988 0.0072959 0.00570394 -0.000344205 -0.000160382 -3.21437e-11 3.50936e-11 -1.22931e-11 5e-05 1.46608e-10 
19 1 0.0488741 0.0163806 0.00802106 0.00605388 0.000640207 2.83313e-05 -6.68839e-11 -7.24931e-11 1.76793e-11 5e-05 1.46608e-10 
21 1 0.0490126 0.0165463 0.00786626 0.00604229 0.000488975 0.000185414 -6.06934e-10 8.27811e-10 -9.11851e-10 5e-05 1.46608e-10 
22 1 0.0491394 0.0173404 0.00720219 0.00571291 0.000370437 -0.000505473 9.66608e-11 5.28979e-12 -3.17283e-10 5e-05 1.46608e-10 
23 1 0.0431704 0.0171202 0.00746186 0.00591139 -0.000317484 0.000351044 -1.62831e-10 -1.75282e-10 6.18515e-11 5e-05 1.46608e-10 
24 1 0.0551666 0.0174685 0.00717927 0.00551653 -0.000304267 -0.000167195 2.78535e-12 8.69675e-12 -2.73695e-12 5e-05 1.46608e-10 
25 1 0.0490815 0.0170907 0.00735362 0.00600788 0.000696462 1.80561e-05 -2.40138e-10 5.73027e-10 -6.25084e-10 5e-05 1.46608e-10 
26 1 0.0550459 0.0169291 0.00741251 0.00566027 -0.000336964 -0.000160721 -1.42131e-10 4.03077e-11 9.58284e-13 5e-05 1.46608e-10 
27 1 0.043074 0.0170885 0.00746878 0.00592075 -0.000340037 0.000359374 -5.44701e-11 -6.50787e-11 1.00215e-11 5e-05 1.46608e-10 
28 1 0.049334 0.0178527 0.00710011 0.00560088 0.000513721 -0.00034841 1.14286e-10 -3.97074e-10 5.93114e-11 5e-05 1.46608e-10 
29 1 0.0488528 0.0163114 0.00808994 0.00602801 0.000645664 1.90893e-05 1.35496e-11 3.04418e-11 -5.07386e-11 5e-05 1.46608e-10 
30 1 0.0493704 0.0175951 0.0071441 0.00563627 0.000481581 -0.000348156 2.78989e-10 -1.28202e-10 -7.91429e-11 5e-05 1.46608e-10 
31 1 0.0491192 0.0172476 0.00723367 0.00596409 0.000492566 -1.90647e-05 -6.02584e-11 1.24397e-10 -2.28971e-10 5e-05 1.46608e-10 
32 1 0.0492127 0.0172727 0.00720849 0.0058592 0.000564362 -0.00037319 -6.39217e-11 2.15358e-10 -7.63508e-11 5e-05 1.46608e-10 
33 1 0.0549861 0.0167044 0.00759154 0.00615125 0.000333334 0.000837352 6.94293e-11 -3.60803e-11 1.02273e-10 5e-05 1.46608e-10 
34 1 0.0490021 0.0167963 0.00760779 0.00621788 0.000532767 0.000155948 -4.52277e-10 6.11087e-11 -5.84052e-11 5e-05 1.46608e-10 
35 1 0.0491858 0.0171733 0.00724068 0.00605225 0.000573812 9.93287e-05 -5.01682e-11 2.48914e-10 -2.22888e-10 5e-05 1.46608e-10 
36 1 0.0552652 0.0179484 0.00712164 0.00537789 -0.000181495 0.00049197 1.42195e-11 2.9274e-11 1.60719e-12 5e-05 1.46608e-10 
37 1 0.0491582 0.0170317 0.00738333 0.00596997 0.000642007 1.4347e-05 -4.45356e-10 1.40925e-10 -1.83251e-10 5e-05 1.46608e-10 
38 1 0.0493106 0.0173082 0.00720689 0.00585428 0.000516334 -0.000126003 2.25795e-10 -1.51001e-10 -8.66033e-10 5e-05 1.46608e-10 
39 1 0.0551861 0.0175586 0.00714038 0.00538148 -0.000276638 -0.000171098 2.34045e-12 2.13742e-11 -1.10631e-11 5e-05 1.46608e-10 
41 1 0.0489595 0.0166578 0.00774554 0.00614289 0.00056264 0.000121201 2.53752e-10 -1.36559e-10 8.16212e-11 5e-05 1.46608e-10 
42 1 0.0491593 0.0174363 0.00718195 0.00569919 0.0003891 -0.000333015 -3.54851e-11 -2.11915e-12 -1.83875e-10 5e-05 1.46608e-10 
44 1 0.0493304 0.0174025 0.00718023 0.00567865 0.000498422 -0.000278206 1.36521e-10 -1.12168e-10 -5.07129e-10 5e-05 1.46608e-10 
45 1 0.0550065 0.0167628 0.00751299 0.00619686 0.000333117 0.000849891 -2.0831e-11 -4.14383e-11 7.25186e-11 5e-05 1.46608e-10 
46 1 0.0550862 0.0171089 0.00733476 0.00568744 -0.000339109 -0.00016174 -1.08969e-11 4.75844e-11 -1.90746e-11 5e-05 1.46608e-10 
47 1 0.0489808 0.0167271 0.00767667 0.00621777 0.00055246 0.000142517 5.17941e-11 1.93818e-10 -2.03368e-10 5e-05 1.46608e-10 
48 1 0.0491994 0.0176289 0.00714597 0.00570674 0.000401758 -0.000334381 -5.90695e-11 -1.67236e-10 6.06632e-11 5e-05 1.46608e-10 
49 1 0.055066 0.017019 0.00737363 0.00566735 -0.000333817 -0.000163046 -4.11982e-11 2.8782e-11 -5.76084e-12 5e-05 1.46608e-10 
50 1 0.0492589 0.0179182 0.00709195 0.005606 0.000516416 -0.000349119 1.59193e-10 -7.57533e-11 1.02633e-11 5e-05 1.46608e-10 
51 1 0.0492394 0.0178218 0.00710993 0.00559279 0.000523866 -0.000350957 2.73549e-11 -1.98257e-11 -4.64927e-12 5e-05 1.46608e-10 
52 1 0.0429694 0.0166247 0.00762359 0.00606222 -0.000386166 0.00038542 -8.37304e-14 1.3371e-10 -5.40073e-11 5e-05 1.46608e-10 
53 1 0.0551266 0.0172887 0.00725702 0.00572931 -0.000350763 -0.000158928 -3.9309e-11 -3.26479e-12 3.48125e-12 5e-05 1.46608e-10 
54 1 0.0489906 0.0164766 0.00793557 0.00607612 0.00060987 6.25338e-05 2.98031e-10 -1.8001e-11 4.74798e-11 5e-05 1.46608e-10 
55 1 0.0427413 0.0158743 0.00834044 0.00585901 -0.000450989 0.000275152 1.64401e-10 2.7754e-11 -4.09388e-11 5e-05 1.46608e-10 
56 1 0.0491723 0.0171014 0.00731312 0.00599288 0.000665915 1.25484e-05 -4.13475e-10 1.90184e-10 -2.84216e-10 5e-05 1.46608e-10 
57 1 0.0550257 0.0168392 0.00745138 0.00564708 -0.000339173 -0.0001598 -1.26904e-11 -4.03185e-11 -8.09553e-12 5e-05 1.46608e-10 
59 1 0.049237 0.0169935 0.00743157 0.00629285 0.000944929 -0.000255044 -3.05387e-10 4.69286e-10 -5.57918e-10 5e-05 1.46608e-10 
60 1 0.0492516 0.0170637 0.00736102 0.00593758 0.000610742 3.11781e-05 -3.22381e-10 5.43937e-10 -1.35307e-10 5e-05 1.46608e-10 
61 1 0.0489381 0.0165885 0.00781442 0.00610925 0.000581657 9.10884e-05 -1.82925e-10 -3.89306e-10 3.03006e-10 5e-05 1.46608e-10 
62 1 0.0493505 0.0174988 0.00716209 0.00561767 0.000490954 -0.000362116 4.00843e-10 -1.8564e-10 -2.85535e-10 5e-05 1.46608e-10 
63 1 0.0492941 0.0176593 0.00713623 0.00567666 0.00043259 -0.000337525 -2.84306e-10 5.38003e-10 -9.14093e-11 5e-05 1.46608e-10 
64 1 0.0551471 0.0173785 0.00721816 0.00566126 -0.000334835 -0.000162017 1.50501e-11 -7.03797e-12 2.61004e-12 5e-05 1.46608e-10 
65 1 0.0430872 0.0167491 0.00758575 0.0060521 -0.000358209 0.000379846 3.0724e-11 1.3224e-10 -1.38808e-11 5e-05 1.46608e-10 
66 1 0.0430239 0.0164709 0.00767861 0.00613718 -0.000393596 0.000390451 2.47214e-10 1.16053e-10 5.51449e-12 5e-05 1.46608e-10 
67 1 0.0494452 0.0175292 0.00715235 0.00562772 0.000478337 -0.000344145 3.95726e-10 -2.4043e-10 -9.00884e-12 5e-05 1.46608e-10 
68 1 0.0494099 0.0177879 0.00710812 0.00564438 0.000516892 -0.00035042 2.59206e-11 -1.56812e-10 2.28963e-11 5e-05 1.46608e-10 
69 1 0.0490979 0.0168235 0.00759073 0.00621633 0.000549231 0.000136486 6.05316e-10 -6.65778e-10 6.33347e-10 5e-05 1.46608e-10 
70 1 0.0552059 0.0176553 0.00712438 0.00543635 -0.000232635 0.000167691 -7.50949e-13 3.19011e-11 7.31846e-13 5e-05 1.46608e-10 
71 1 0.0427209 0.0158159 0.00841906 0.00583115 -0.000440923 0.00026768 2.97182e-10 -1.15687e-11 2.48809e-11 5e-05 1.46608e-10 
72 1 0.0493902 0.0176915 0.00712611 0.00562648 0.000504892 -0.000347781 1.19736e-10 -2.22044e-10 1.57044e-11 5e-05 1.46608e-10 
73 1 0.0490616 0.0170046 0.00740024 0.00603734 0.000656688 1.79697e-05 4.13725e-10 2.83716e-10 -2.27763e-10 5e-05 1.46608e-10 
74 1 0.0492541 0.0174666 0.00717221 0.00569062 0.000411863 -0.000332744 9.56117e-12 -8.34246e-11 3.25019e-11 5e-05 1.46608e-10 
76 1 0.0433128 0.0177703 0.00724478 0.00537777 -0.000245262 0.000423631 4.12046e-10 -8.60817e-11 -5.30396e-11 5e-05 1.46608e-10 
77 1 0.0494851 0.0185486 0.00696983 0.00567558 0.000532352 -0.000354862 8.51706e-11 -7.53196e-11 7.63252e-12 5e-05 1.46608e-10 
78 1 0.0428032 0.0160491 0.00810467 0.00600936 -0.000466856 0.000291079 -1.11459e-10 1.43881e-10 -1.80922e-10 5e-05 1.46608e-10 
79 1 0.0430112 0.0168102 0.00756167 0.00602459 -0.000363814 0.000372292 3.56074e-12 1.82386e-10 -6.52144e-11 5e-05 1.46608e-10 
80 1 0.0493174 0.0182076 0.00703796 0.00565403 0.000545475 -0.000356422 -7.68551e-12 -1.40581e-10 2.73988e-11 5e-05 1.46608e-10 
81 1 0.0429484 0.0165319 0.00765457 0.00612459 -0.000397184 0.000398051 9.25259e-11 1.33261e-10 -5.86645e-11 5e-05 1.46608e-10 
82 1 0.0430949 0.0171812 0.00743782 0.00588108 -0.000344235 0.000358694 -4.93549e-11 -6.52954e-11 -8.03372e-12 5e-05 1.46608e-10 
83 1 0.0430795 0.0163288 0.00775886 0.00608909 -0.000433004 0.000252293 1.01643e-10 1.31437e-10 -2.27549e-11 5e-05 1.46608e-10 
84 1 0.0552457 0.0178504 0.00711703 0.0055477 -0.000215522 0.000507265 1.14654e-11 2.79759e-11 1.47866e-12 5e-05 1.46608e-10 
85 1 0.0428994 0.0160629 0.00808107 0.00603245 -0.000475855 0.000301029 -2.39596e-10 8.60738e-11 -8.76349e-11 5e-05 1.46608e-10 
86 1 0.0493144 0.0177562 0.00711811 0.00561116 0.000515518 -0.000348979 -5.95146e-12 -1.95555e-10 2.66894e-11 5e-05 1.46608e-10 
87 1 0.0492171 0.0169235 0.00750132 0.00602211 0.00065557 5.60496e-06 9.14597e-10 3.63043e-10 -1.34693e-10 5e-05 1.46608e-10 
88 1 0.0493762 0.018497 0.00698396 0.00567772 0.000528949 -0.000354482 1.70126e-11 -7.85775e-11 1.37734e-11 5e-05 1.46608e-10 
89 1 0.049337 0.0183042 0.00701995 0.00565146 0.000498136 -0.000347724 6.40869e-12 -5.94638e-11 9.87901e-12 5e-05 1.46608e-10 
90 1 0.049386 0.0172426 0.00721011 0.00588384 0.000540545 0.000279193 4.26154e-10 -9.95355e-12 1.81189e-11 5e-05 1.46608e-10 
91 1 0.0430321 0.0169029 0.00753071 0.00599684 -0.000353204 0.000364354 -3.64263e-11 1.5341e-10 -4.56945e-11 5e-05 1.46608e-10 
92 1 0.0494486 0.0179807 0.00707216 0.00566529 0.000525523 -0.000353632 3.42478e-11 -9.4191e-11 3.27526e-12 5e-05 1.46608e-10 
93 1 0.0494319 0.0183354 0.00701007 0.00566323 0.000526548 -0.000353276 8.47337e-11 -5.99828e-11 -4.9548e-13 5e-05 1.46608e-10 
94 1 0.0495071 0.01827 0.0070182 0.0056608 0.000524126 -0.000352679 1.31826e-10 -5.27812e-11 8.17314e-12 5e-05 1.46608e-10 
95 1 0.0492978 0.0181111 0.00705598 0.00559744 0.000497182 -0.000344686 3.63326e-11 1.26679e-10 -2.79547e-11 5e-05 1.46608e-10 
96 1 0.0494681 0.0180772 0.00705417 0.00566333 0.000529104 -0.000353764 1.1416e-10 -9.41235e-11 1.77438e-11 5e-05 1.46608e-10 
97 1 0.0429067 0.0163468 0.00771634 0.00619012 -0.000415123 0.000394804 2.37145e-11 9.85529e-11 -4.27994e-11 5e-05 1.46608e-10 
98 1 0.0493958 0.0185934 0.00696598 0.00567944 0.000528481 -0.000354453 4.74332e-11 -8.31591e-11 1.33288e-11 5e-05 1.46608e-10 
99 1 0.0430658 0.0166565 0.00761667 0.0060578 -0.000372143 0.000380775 -9.89878e-12 1.21767e-10 -6.47836e-11 5e-05 1.46608e-10 
100 1 0.049346 0.0170896 0.00732798 0.00601503 -0.000128728 -0.000686236 -1.02831e-10 1.51854e-10 9.06334e-11 5e-05 1.46608e-10 
101 1 0.0430025 0.0163782 0.00770951 0.00615519 -0.000389799 0.000391358 3.01363e-11 3.39134e-11 -3.71233e-11 5e-05 1.46608e-10 
102 1 0.0643568 0.0187248 0.00531097 4.49704e-15 1.04926e-14 8.2949e-14 -3.35079e-21 5.65042e-22 9.2851e-23 5e-05 1.46608e-10 
103 1 0.24257 0.0191927 0.00520306 2.29399e-22 3.13141e-22 -5.81428e-22 0 2.58494e-26 0 5e-05 1.46608e-10 
104 1 0.0433279 0.0174299 0.00736212 0.00560012 -0.000292782 0.000331042 -7.16461e-11 -2.83399e-10 7.54361e-11 5e-05 1.46608e-10 
105 1 0.042865 0.0162242 0.00786865 0.00610466 -0.000490752 0.000305876 4.81942e-11 1.41017e-10 -9.36049e-11 5e-05 1.46608e-10 
106 1 0.0434024 0.0173677 0.0073865 0.00559888 -0.000288253 0.000329997 -1.22468e-10 -2.59741e-10 1.20691e-10 5e-05 1.46608e-10 
107 1 0.0428237 0.0161074 0.00802607 0.00603894 -0.000467403 0.000291169 -6.14562e-11 1.49554e-10 -2.4348e-10 5e-05 1.46608e-10 
108 1 0.0491388 0.0169622 0.00745261 0.00601095 0.000618409 4.66855e-05 4.31461e-10 -2.14456e-10 2.16307e-10 5e-05 1.46608e-10 
109 1 0.0492194 0.0177252 0.00712798 0.0057025 0.000404915 -0.000332992 -2.12189e-10 -1.09856e-10 3.28152e-11 5e-05 1.46608e-10 
110 1 0.0495433 0.0180117 0.00706233 0.00566192 0.000526059 -0.000353026 1.26417e-10 -1.29102e-10 1.82219e-11 5e-05 1.46608e-10 
111 1 0.049435 0.0187862 0.00693 0.00570839 0.000541896 -0.000358047 -7.96684e-11 -8.4142e-11 1.98366e-11 5e-05 1.46608e-10 
112 1 0.0429272 0.0164415 0.00769163 0.00614639 -0.000400075 0.000402275 2.58039e-11 9.35975e-11 -5.461e-11 5e-05 1.46608e-10 
113 1 0.0436124 0.0175233 0.00734179 0.00562275 2.15257e-05 0.000223732 -6.82153e-11 -1.73504e-10 6.51178e-11 5e-05 1.46608e-10 
114 1 0.0432663 0.0171514 0.00745512 0.00583421 -0.000296557 0.00034097 -2.15203e-10 -6.57693e-12 -4.65097e-11 5e-05 1.46608e-10 
115 1 0.0492741 0.017563 0.00715422 0.00570364 0.000401835 -0.000332278 1.20926e-10 -3.08061e-11 1.53165e-11 5e-05 1.46608e-10 
116 1 0.0491188 0.0168928 0.00752176 0.00608369 0.000587869 8.65191e-05 8.41096e-10 -5.40547e-10 5.84452e-10 5e-05 1.46608e-10 
117 1 0.0489693 0.0164073 0.00800445 0.00603988 0.000618845 4.85358e-05 2.56463e-10 6.98713e-11 -4.75995e-11 5e-05 1.46608e-10 
118 1 0.0427619 0.0159325 0.00826184 0.00591332 -0.000455633 0.000281269 -8.01934e-11 -7.88832e-12 -1.28968e-12 5e-05 1.46608e-10 
119 1 0.0492643 0.0171335 0.00729059 0.00606084 0.000589234 8.95882e-05 -2.11552e-10 1.09234e-11 -5.15691e-10 5e-05 1.46608e-10 
120 1 0.0488315 0.0162421 0.00815883 0.00600726 0.000642077 2.12029e-05 5.44374e-11 4.72311e-11 -4.65947e-11 5e-05 1.46608e-10 
121 1 0.0487888 0.0161035 0.00829659 0.0059542 0.000627097 3.15372e-05 -1.03204e-11 1.59905e-11 -1.59988e-11 5e-05 1.46608e-10 
122 1 0.0495627 0.0181081 0.00704434 0.0056666 0.000525707 -0.000353495 1.85953e-10 -9.44384e-11 3.93102e-12 5e-05 1.46608e-10 
123 1 0.0429408 0.0161797 0.0079241 0.00600988 -0.000435549 0.000314129 2.02878e-10 -1.98526e-11 2.6424e-11 5e-05 1.46608e-10 
124 1 0.0493926 0.0181423 0.00704609 0.00565835 0.000538872 -0.000354949 8.81671e-11 -8.75505e-11 8.19876e-12 5e-05 1.46608e-10 
125 1 0.0489479 0.0163379 0.00807341 0.00603399 0.000629081 3.77526e-05 4.39794e-11 1.99609e-10 -2.11489e-10 5e-05 1.46608e-10 
126 1 0.0491793 0.0175326 0.00716396 0.00569502 0.000397756 -0.00032853 6.48022e-11 -9.95586e-11 -1.6109e-11 5e-05 1.46608e-10 
127 1 0.0428862 0.0162837 0.0077911 0.00616059 -0.000455987 0.000348894 1.24097e-11 1.52036e-10 -6.65881e-11 5e-05 1.46608e-10 
128 1 0.0492783 0.0180147 0.00707396 0.00559781 0.000506405 -0.000346612 5.47242e-11 7.28579e-11 -2.28728e-11 5e-05 1.46608e-10 
129 1 0.0493566 0.0184007 0.00700195 0.00566755 0.000530971 -0.000354275 2.44449e-11 -6.55662e-11 1.39598e-11 5e-05 1.46608e-10 
130 1 0.0431913 0.017213 0.00743089 0.00582502 -0.000301162 0.000345684 -3.28982e-10 -2.32004e-10 8.53279e-11 5e-05 1.46608e-10 
131 1 0.0430449 0.0165637 0.00764763 0.00606905 -0.000385227 0.000381376 -2.67045e-11 1.43362e-10 3.24406e-12 5e-05 1.46608e-10 
132 1 0.0493729 0.0180456 0.00706414 0.00558341 0.000480609 -0.00034138 -5.22905e-11 1.81819e-11 -5.40273e-12 5e-05 1.46608e-10 
133 1 0.0491328 0.0166455 0.00777785 0.00628356 0.000552179 0.000145846 -4.83366e-10 4.83694e-10 -5.83865e-10 5e-05 1.46608e-10 
134 1 0.0492901 0.0172239 0.00725663 0.00601365 0.000572501 2.62797e-05 7.36529e-11 -2.39363e-10 -8.59376e-10 5e-05 1.46608e-10 
135 1 0.0489265 0.0162686 0.00814229 0.00598091 0.00063286 2.85134e-05 2.05234e-10 2.12172e-10 -1.88658e-10 5e-05 1.46608e-10 
136 1 0.042879 0.0160046 0.00815969 0.00600084 -0.000477223 0.000304389 -2.35386e-10 8.32834e-11 -9.05289e-11 5e-05 1.46608e-10 
137 1 0.0494546 0.0188826 0.00691202 0.00572075 0.000542472 -0.000358685 -3.90438e-12 -3.46811e-12 1.42241e-12 5e-05 1.46608e-10 
138 1 0.0490766 0.0167542 0.00765962 0.00626361 0.000528622 0.000167242 6.85674e-11 -1.73201e-10 1.45128e-10 5e-05 1.46608e-10 
140 1 0.0495823 0.0182045 0.00702636 0.00566595 0.00052615 -0.000353232 1.5811e-10 -5.88419e-11 4.26711e-12 5e-05 1.46608e-10 
141 1 0.0429199 0.0161212 0.00800246 0.00604123 -0.000472188 0.00029924 5.23636e-11 4.2107e-11 -1.71812e-11 5e-05 1.46608e-10 
142 1 0.043287 0.0172442 0.00742414 0.00558978 -0.00026438 0.000322318 1.25767e-10 -2.02918e-10 1.12129e-10 5e-05 1.46608e-10 
143 1 0.0428444 0.0161659 0.00794724 0.00608207 -0.000474169 0.000298583 1.73059e-11 6.15547e-11 -1.77926e-10 5e-05 1.46608e-10 
144 1 0.0432454 0.0170586 0.00748609 0.00593068 -0.000305372 0.000349762 3.43521e-11 1.44339e-11 8.30258e-11 5e-05 1.46608e-10 
146 1 0.0431076 0.0164192 0.00772653 0.00617816 -0.000442975 0.000298 6.21243e-11 1.75163e-10 -5.34924e-13 5e-05 1.46608e-10 
147 1 0.0428584 0.0159463 0.00823829 0.00596684 -0.000479875 0.000310463 1.36723e-10 -6.41452e-12 -7.71745e-12 5e-05 1.46608e-10 
148 1 0.0431569 0.0174596 0.00734486 0.00559806 -0.000285358 0.000328378 6.41325e-11 2.58719e-10 -8.06134e-11 5e-05 1.46608e-10 
149 1 0.0496018 0.0183009 0.00700837 0.00565367 0.000526545 -0.000352796 1.76568e-10 -6.27039e-11 5.41449e-13 5e-05 1.46608e-10 
150 1 0.0431407 0.0165948 0.00764092 0.00606281 -0.000368219 0.000378275 -5.51617e-11 1.36173e-10 -2.45102e-11 5e-05 1.46608e-10 
151 1 0.0434769 0.0173056 0.0074109 0.00560337 -0.000280868 0.000327141 -1.11113e-10 -1.99755e-10 6.17777e-11 5e-05 1.46608e-10 
153 1 0.0429839 0.016303 0.0077727 0.00609696 -0.000381557 0.000381173 1.49087e-10 -8.50326e-11 -8.26249e-11 5e-05 1.46608e-10 
154 1 0.043253 0.0174915 0.00733789 0.00560588 -0.000306102 0.000334768 2.7357e-11 -2.12462e-10 3.73186e-11 5e-05 1.46608e-10 
155 1 0.0433321 0.0178639 0.00721538 0.00537012 -0.000241269 0.00043884 -5.93357e-11 1.88027e-11 1.11337e-11 5e-05 1.46608e-10 
156 1 0.0432325 0.0173986 0.0073689 0.00560163 -0.000283617 0.000327582 -7.84078e-11 -2.73875e-10 6.34757e-11 5e-05 1.46608e-10 
157 1 0.0219312 0.0187687 0.00551176 -3.83824e-14 8.1636e-14 2.9589e-13 -2.99517e-22 -1.37777e-22 -1.86116e-24 5e-05 1.46608e-10 
158 1 0.0433484 0.0175227 0.00733111 0.00560225 -0.000298798 0.000331572 3.91739e-11 -2.60041e-10 1.19287e-10 5e-05 1.46608e-10 
159 1 0.0494293 0.0178843 0.00709014 0.00566135 0.000521974 -0.000353053 -1.3427e-11 -9.59215e-11 1.73647e-11 5e-05 1.46608e-10 
160 1 0.0432373 0.0178312 0.00722066 0.00528979 -0.000335217 0.00034028 2.73676e-11 3.19569e-11 4.87966e-11 5e-05 1.46608e-10 
162 1 0.0432735 0.0175843 0.00730688 0.00560071 -0.000330136 0.000344368 1.77795e-10 -1.17168e-10 1.89647e-10 5e-05 1.46608e-10 
164 1 0.0434846 0.0181786 0.0071271 0.00543457 -0.000187904 0.000427089 1.8268e-10 3.24687e-11 -1.86168e-12 5e-05 1.46608e-10 
165 1 0.0435378 0.0175854 0.00731743 0.0055207 -8.34035e-05 0.000251151 -3.24089e-11 -2.84406e-10 -3.89803e-11 5e-05 1.46608e-10 
166 1 0.0490896 0.0165065 0.00791605 0.00727769 0.00163481 -0.000855225 -5.07251e-10 4.83714e-10 -5.50257e-10 5e-05 1.46608e-10 
167 1 0.0431198 0.016502 0.00767188 0.00609064 -0.00037486 0.000376112 -3.15498e-11 1.41391e-10 -5.43908e-11 5e-05 1.46608e-10 
168 1 0.0434229 0.0174606 0.00735549 0.00561446 -0.000275412 0.000326297 1.14508e-11 -1.47121e-10 4.55528e-11 5e-05 1.46608e-10 
169 1 0.0436323 0.017618 0.00731275 0.00550606 -8.54529e-06 0.000375163 -1.30931e-10 6.65181e-11 -1.07866e-11 5e-05 1.46608e-10 
170 1 0.0434632 0.0176473 0.00729311 0.00545721 -0.000147127 0.000294723 -4.22733e-11 -2.04454e-10 2.88298e-10 5e-05 1.46608e-10 
171 1 0.0491109 0.0165758 0.00784713 0.007269 0.00161561 -0.000836435 3.92649e-10 -1.4505e-09 1.55015e-09 5e-05 1.46608e-10 
172 1 0.0435178 0.0174917 0.00734875 0.00553575 -6.15553e-05 0.000249778 1.89636e-11 -6.73908e-11 3.02153e-11 5e-05 1.46608e-10 
173 1 0.049461 0.0171834 0.00723971 0.0058261 0.000462527 0.00029511 2.45753e-10 -2.50419e-10 1.0085e-10 5e-05 1.46608e-10 
174 1 0.0433882 0.0177088 0.00726898 0.00541239 -0.000182872 0.0003957 5.89025e-11 1.21248e-10 6.00809e-10 5e-05 1.46608e-10 
175 1 0.0371491 0.0173968 0.007216 0.00580427 0.000885282 -0.000602623 5.9807e-11 5.32193e-11 -1.11286e-11 5e-05 1.46608e-10 
176 1 0.043212 0.0173058 0.00739991 0.00559936 -0.000267946 0.000323795 5.14989e-12 -2.88152e-10 9.76243e-11 5e-05 1.46608e-10 
177 1 0.043276 0.0180189 0.00716301 0.00534981 -0.000202933 0.000423028 1.82033e-11 -2.28544e-11 6.44884e-12 5e-05 1.46608e-10 
178 1 0.0435922 0.0174295 0.00737314 0.00557714 1.28601e-05 0.000225391 -1.19582e-11 -1.21648e-10 4.20291e-11 5e-05 1.46608e-10 
179 1 0.043577 0.017774 0.00726011 0.00540007 -0.000157715 0.000411733 -1.38646e-10 3.15311e-10 -1.11888e-10 5e-05 1.46608e-10 
181 1 0.043198 0.0176453 0.00728284 0.00557025 -0.000413711 0.000374785 9.10093e-11 -1.00537e-10 1.0164e-10 5e-05 1.46608e-10 
182 1 0.0490552 0.0166849 0.00772849 0.00611587 0.000506447 0.000172712 -8.70472e-10 1.04347e-10 -1.07421e-10 5e-05 1.46608e-10 
183 1 0.0434432 0.0175537 0.00732438 0.00552106 -0.000105139 0.000265262 -1.28796e-10 -1.4919e-11 3.78376e-11 5e-05 1.46608e-10 
184 1 0.0493769 0.0179103 0.00717122 0.00565578 0.000505748 -0.000351634 -8.14825e-11 9.3164e-11 -5.02819e-11 5e-05 1.46608e-10 
185 1 0.0431364 0.0173668 0.00737586 0.00558303 -0.000297941 0.000333362 -8.51059e-11 3.3114e-10 -1.23543e-10 5e-05 1.46608e-10 
186 1 0.0431774 0.0175524 0.00731385 0.00558283 -0.000369952 0.000357247 -1.17163e-11 -5.87949e-11 1.98512e-11 5e-05 1.46608e-10 
187 1 0.0493335 0.0170225 0.00740108 0.00611952 -0.000185705 -0.00073185 5.20898e-11 -1.49844e-10 -2.56342e-11 5e-05 1.46608e-10 
188 1 0.0495266 0.0183664 0.00700021 0.00565204 0.000524356 -0.000352528 1.7413e-10 -4.55284e-11 1.52892e-12 5e-05 1.46608e-10 
189 1 0.0493645 0.0171562 0.0072557 0.00576791 0.000106493 -0.000556708 1.73245e-10 -2.32132e-10 -3.5013e-10 5e-05 1.46608e-10 
190 1 0.0372491 0.0174309 0.00719622 0.00583184 0.000879913 -0.000600553 2.4359e-11 -3.33204e-10 1.70506e-10 5e-05 1.46608e-10 
191 1 0.0494742 0.018979 0.00689403 0.00572947 0.000538948 -0.00035846 3.21787e-11 -2.37649e-11 7.08088e-12 5e-05 1.46608e-10 
192 1 0.0433614 0.017182 0.00744855 0.00558354 -0.000257066 0.000318816 2.37197e-11 -2.14873e-10 4.66768e-11 5e-05 1.46608e-10 
193 1 0.0491967 0.0168538 0.0075708 0.00641389 0.000878475 -0.000174062 -1.3206e-10 -2.63686e-10 2.26295e-10 5e-05 1.46608e-10 
194 1 0.0431826 0.0167803 0.00757898 0.00607066 -0.000304641 0.00035509 2.02483e-11 7.18529e-11 -3.43694e-11 5e-05 1.46608e-10 
195 1 0.0435576 0.0176798 0.00728831 0.00542602 -0.000100252 0.000395146 -9.18376e-11 9.98834e-11 2.37675e-11 5e-05 1.46608e-10 
196 1 0.0426588 0.0156411 0.0086548 0.00569891 -0.000433926 0.000262343 1.22418e-10 -2.74011e-10 3.73062e-10 5e-05 1.46608e-10 
197 1 0.0372064 0.0176595 0.00708293 0.00575936 0.000896489 -0.000605607 1.31723e-11 2.42607e-11 -2.27219e-11 5e-05 1.46608e-10 
198 1 0.043053 0.0169957 0.00749975 0.0059495 -0.000344394 0.000362988 1.06073e-10 -1.16871e-11 -2.5057e-11 5e-05 1.46608e-10 
199 1 0.0432936 0.0176772 0.00727584 0.00545775 -0.00028931 0.000366931 1.12654e-10 -1.43747e-10 1.39421e-10 5e-05 1.46608e-10 
200 1 0.0431495 0.0170275 0.00749282 0.00594225 -0.000319289 0.000356033 1.02744e-10 -3.9027e-11 8.91327e-11 5e-05 1.46608e-10 
201 1 0.0435925 0.0182302 0.00711822 0.00544404 -0.000222951 0.000438371 -6.89461e-11 1.03968e-10 -3.67881e-11 5e-05 1.46608e-10 
202 1 0.0433819 0.0172749 0.00741751 0.00557065 -0.000283363 0.000326672 -7.44506e-11 -2.33232e-10 3.02958e-11 5e-05 1.46608e-10 
203 1 0.0495399 0.0175599 0.00714257 0.00562815 0.000500635 -0.000345972 3.05081e-10 7.76272e-11 7.42648e-12 5e-05 1.46608e-10 
204 1 0.0431286 0.0169347 0.00752378 0.00597566 -0.000324718 0.000358534 1.75633e-10 -3.76105e-11 -1.50572e-10 5e-05 1.46608e-10 
205 1 0.043446 0.0179906 0.00718339 0.0053903 -0.00017907 0.00042111 -4.06624e-11 1.03285e-10 -3.91093e-11 5e-05 1.46608e-10 
206 1 0.0434073 0.0178026 0.00723968 0.00538341 -0.000176743 0.000446208 8.52292e-10 -2.35615e-13 3.19475e-10 5e-05 1.46608e-10 
207 1 0.0429616 0.0162404 0.00784737 0.00599933 -0.000375247 0.000357055 1.99029e-10 -1.33609e-10 -8.0387e-11 5e-05 1.46608e-10 
208 1 0.0433685 0.0176156 0.00730006 0.00551904 -0.000241896 0.000315706 3.33041e-10 1.18306e-11 2.00971e-10 5e-05 1.46608e-10 
209 1 0.0431621 0.0166874 0.00761001 0.00605662 -0.000367424 0.00036939 -1.91258e-10 1.08489e-10 -4.22963e-11 5e-05 1.46608e-10 
210 1 0.0491869 0.0172662 0.00730489 0.00618908 0.000687612 -0.000276658 -3.66053e-12 3.17584e-11 -2.09763e-10 5e-05 1.46608e-10 
211 1 0.0494876 0.0181736 0.00703619 0.00566692 0.000524786 -0.000353289 1.24932e-10 -8.24237e-11 7.14648e-12 5e-05 1.46608e-10 
212 1 0.0434826 0.0177413 0.00726396 0.00539334 -0.000142833 0.000404301 -5.79682e-11 1.59089e-10 9.69638e-11 5e-05 1.46608e-10 
213 1 0.0493193 0.0169558 0.00747415 0.00604216 -0.000236084 -0.0007827 -1.72164e-10 -7.77392e-10 -4.05711e-10 5e-05 1.46608e-10 
214 1 0.0494123 0.0182389 0.00702806 0.00566015 0.000510354 -0.00035049 4.49632e-11 -8.61741e-11 1.39899e-11 5e-05 1.46608e-10 
215 1 0.0372246 0.0173374 0.00724371 0.00581095 0.00088601 -0.000602844 1.23683e-10 5.76894e-11 -3.69754e-11 5e-05 1.46608e-10 
216 1 0.0432567 0.0179249 0.00719116 0.00533973 -0.000265023 0.000445285 -5.45028e-11 -9.9316e-11 2.25527e-11 5e-05 1.46608e-10 
217 1 0.0491541 0.0167148 0.00770897 0.00641747 0.000646763 6.46569e-05 -1.23052e-11 1.30347e-10 -1.44029e-10 5e-05 1.46608e-10 
218 1 0.0433708 0.0180519 0.00715909 0.00538774 -0.000183121 0.000422087 -8.6362e-12 2.64262e-11 -4.96799e-12 5e-05 1.46608e-10 
219 1 0.0494154 0.0186898 0.00694799 0.00570025 0.000534321 -0.00035636 -1.19268e-13 -1.07163e-10 1.79433e-11 5e-05 1.46608e-10 
220 1 0.0432181 0.0177382 0.00725179 0.00540073 -0.000373509 0.000366353 5.62065e-11 -6.61955e-11 1.08589e-10 5e-05 1.46608e-10 
221 1 0.0371247 0.0168996 0.00746559 0.00596018 0.000898843 -0.000613219 -3.18225e-11 -2.96313e-11 1.58978e-11 5e-05 1.46608e-10 
222 1 0.0491757 0.0167844 0.00763984 0.00655995 0.00081008 -8.64641e-05 9.29139e-10 -9.16008e-10 1.03256e-09 5e-05 1.46608e-10 
223 1 0.0433074 0.017337 0.00739313 0.00558962 -0.000278895 0.000326384 -1.21234e-10 -2.36862e-10 1.35472e-10 5e-05 1.46608e-10 
224 1 0.0431158 0.017274 0.00740686 0.0057881 -0.000336687 0.000353705 1.9336e-11 5.7941e-11 -2.09643e-11 5e-05 1.46608e-10 
225 1 0.0494849 0.0177222 0.00711632 0.00563103 0.000507421 -0.000347905 5.78502e-11 -1.15801e-10 1.83116e-11 5e-05 1.46608e-10 
226 1 0.0434974 0.0173985 0.00737988 0.00562015 -0.00026896 0.000324061 -8.9918e-11 -4.81742e-11 1.08826e-11 5e-05 1.46608e-10 
227 1 0.0372413 0.0170157 0.00740428 0.0059984 0.000882443 -0.000606067 -3.38415e-11 3.69547e-11 -1.75265e-11 5e-05 1.46608e-10 
228 1 0.0371682 0.0174844 0.00717165 0.00583249 0.000868193 -0.000594622 7.8997e-11 5.80936e-11 -2.14893e-11 5e-05 1.46608e-10 
229 1 0.0431212 0.0171695 0.00753359 0.00588227 -0.000349833 0.000355726 -1.26898e-10 -1.98406e-10 4.68468e-11 5e-05 1.46608e-10 
230 1 0.0435234 0.0183666 0.00707083 0.00550917 -0.000192929 0.000433221 2.1748e-10 -6.87798e-11 4.28604e-11 5e-05 1.46608e-10 
231 1 0.03713 0.0173093 0.00726036 0.005778 0.000909561 -0.000613362 -2.08673e-11 -2.32887e-11 1.12484e-11 5e-05 1.46608e-10 
232 1 0.043057 0.0162529 0.00781994 0.00599197 -0.000421503 0.00023202 3.86721e-11 9.69181e-11 -8.99002e-11 5e-05 1.46608e-10 
233 1 0.0432035 0.0168731 0.00754801 0.00598411 -0.00032528 0.000357431 4.35685e-12 -6.79416e-11 5.55004e-11 5e-05 1.46608e-10 
234 1 0.0495373 0.0184642 0.00698239 0.00565902 0.000524296 -0.000352708 2.03867e-10 -1.26994e-11 -8.83019e-12 5e-05 1.46608e-10 
235 1 0.043568 0.0185613 0.00701283 0.00538934 -0.000147627 0.000410726 4.23904e-10 1.315e-10 2.14727e-12 5e-05 1.46608e-10 
236 1 0.0435432 0.0184605 0.00704274 0.00541322 -0.000186701 0.000422654 1.32495e-10 -2.20358e-10 3.24139e-11 5e-05 1.46608e-10 
237 1 0.0436319 0.0184183 0.00706196 0.00539353 -0.000187785 0.000424402 2.7758e-10 -1.12417e-10 7.04872e-11 5e-05 1.46608e-10 
239 1 0.0369474 0.0165232 0.00765886 0.00645751 0.000776566 -0.000565657 6.49838e-12 1.73221e-11 -9.485e-12 5e-05 1.46608e-10 
240 1 0.0370096 0.016785 0.00752612 0.00588826 0.000888536 -0.000606073 1.83741e-12 -4.41054e-12 2.14506e-12 5e-05 1.46608e-10 
241 1 0.0369259 0.0164362 0.00770305 0.00647626 0.000773036 -0.000564368 4.75096e-12 2.82691e-11 -1.36633e-11 5e-05 1.46608e-10 
242 1 0.0433198 0.0169964 0.0075105 0.00595539 -0.000289093 0.000344757 1.8099e-10 5.4738e-11 -1.54281e-11 5e-05 1.46608e-10 
243 1 0.0431077 0.016842 0.00755474 0.00602803 -0.000342348 0.000360078 -6.87794e-11 1.29281e-10 2.90564e-11 5e-05 1.46608e-10 
244 1 0.0369689 0.0166103 0.00761467 0.00643816 0.00077981 -0.000566714 -6.56024e-13 4.60454e-12 -2.38282e-12 5e-05 1.46608e-10 
246 1 0.0370902 0.0171344 0.00734897 0.00599196 0.000874245 -0.000601785 1.63768e-11 3.72855e-11 -1.85942e-11 5e-05 1.46608e-10 