ITEM: TIMESTEP
1400000
ITEM: NUMBER OF ATOMS
219
ITEM: BOX BOUNDS ff ff ff
-0.02 0.43
-0.02 0.06
-0.02 0.07
ITEM: ATOMS id type x y z vx vy vz fx fy fz radius mass 
1 1 0.0212258 0.0172088 0.00723534 0.0058827 -0.00175876 0.000651718 -2.78712e-10 1.1321e-10 1.18991e-11 5e-05 1.46608e-10 
2 1 0.0215833 0.0181001 0.00707077 0.00515952 -0.00175043 0.000441106 3.5783e-10 -1.37253e-10 3.41391e-11 5e-05 1.46608e-10 
3 1 0.015657 0.0197477 0.0071017 0.00473969 -0.00544457 -0.000681724 4.00463e-13 -1.01699e-12 -1.32055e-13 5e-05 1.46608e-10 
4 1 0.0215509 0.0188286 0.0069454 0.00512681 -0.00194577 0.000474337 -8.97439e-11 -1.87303e-10 2.02711e-11 5e-05 1.46608e-10 
5 1 0.0211078 0.017146 0.00726874 0.00588322 -0.00193426 0.000733883 3.0763e-10 2.90757e-11 -7.75511e-11 5e-05 1.46608e-10 
6 1 0.0270018 0.0167405 0.00751706 0.00610375 -0.00040174 0.000160313 -1.99338e-10 -1.5073e-11 -9.5589e-12 5e-05 1.46608e-10 
7 1 0.0212934 0.0180004 0.00707983 0.00533964 -0.00188532 0.000469099 6.8273e-11 2.03413e-10 -4.19903e-11 5e-05 1.46608e-10 
8 1 0.0209996 0.0167194 0.00750456 0.00580812 -0.00160232 0.00125622 -6.97548e-11 -2.8914e-12 5.09266e-14 5e-05 1.46608e-10 
9 1 0.0272861 0.0179643 0.00708445 0.00534913 -0.00171678 0.000465759 8.49043e-13 -2.91215e-13 7.80524e-14 5e-05 1.46608e-10 
10 1 0.021232 0.0177104 0.00712671 0.00529438 -0.00186224 0.000488349 -1.10476e-10 -1.01789e-11 -1.03578e-11 5e-05 1.46608e-10 
11 1 0.0216977 0.0181719 0.00706164 0.00553641 -0.00125453 0.000366174 1.72277e-10 -3.29857e-10 4.86876e-11 5e-05 1.46608e-10 
12 1 0.0164976 0.0199961 0.00711627 -1.92058e-15 2.50469e-15 -2.62516e-14 -6.46235e-26 1.42172e-24 0 5e-05 1.46608e-10 
13 1 0.021086 0.0170581 0.0073111 0.00582658 -0.00193762 0.000735635 -2.83785e-10 1.79914e-10 1.30793e-10 5e-05 1.46608e-10 
14 1 0.0154859 0.0189476 0.00700463 0.0044622 -0.00507221 -0.000635267 3.81662e-13 -5.25274e-13 -4.84835e-14 5e-05 1.46608e-10 
15 1 0.0214295 0.0182251 0.00704519 0.00512982 -0.00185918 0.000456886 -6.06139e-11 -2.76175e-10 3.21985e-11 5e-05 1.46608e-10 
16 1 0.0154183 0.0186105 0.00696371 0.00447381 -0.0050496 -0.000632549 8.37715e-13 -2.43465e-13 -5.50353e-14 5e-05 1.46608e-10 
17 1 0.0212115 0.0176137 0.00714182 0.00528015 -0.00186953 0.000490068 -4.28175e-11 -7.70991e-11 1.26764e-11 5e-05 1.46608e-10 
18 1 0.0271503 0.0173422 0.00722708 0.00615221 -0.000414526 0.000173764 1.67741e-11 6.78497e-13 -5.32104e-12 5e-05 1.46608e-10 
19 1 0.0210643 0.0169702 0.0073535 0.00582068 -0.00195416 0.000713636 -1.30611e-10 -2.14685e-11 -7.84068e-11 5e-05 1.46608e-10 
21 1 0.0212041 0.0171208 0.00727772 0.0059312 -0.00175655 0.00065278 5.84753e-10 -4.79241e-11 2.71753e-11 5e-05 1.46608e-10 
22 1 0.0213343 0.0181936 0.00704795 0.00534682 -0.00192831 0.000475777 9.28275e-11 -1.04104e-10 9.95803e-12 5e-05 1.46608e-10 
23 1 0.0170907 0.0200345 0.00707656 2.03104e-14 -2.6494e-14 2.77687e-13 1.24206e-23 6.72084e-24 0 5e-05 1.46608e-10 
24 1 0.0272146 0.0176278 0.00716162 0.00608247 -0.000395225 0.000168162 -1.21246e-10 7.13786e-11 -2.14212e-11 5e-05 1.46608e-10 
25 1 0.0212729 0.0179037 0.00709579 0.00533451 -0.0018459 0.000457403 -3.01262e-11 3.91287e-11 -1.7115e-10 5e-05 1.46608e-10 
26 1 0.027086 0.0170566 0.00729254 0.00622149 -0.000421649 0.000178052 -1.14949e-10 -2.50315e-11 2.9983e-11 5e-05 1.46608e-10 
27 1 0.0167442 0.020188 0.00711655 -1.92014e-15 2.50488e-15 -2.62516e-14 -8.65955e-25 -2.81758e-24 -2.06795e-25 5e-05 1.46608e-10 
28 1 0.0215218 0.0187222 0.00696277 0.00513371 -0.00190973 0.000467282 5.5989e-11 -1.60794e-10 2.35281e-11 5e-05 1.46608e-10 
29 1 0.0210426 0.0168843 0.00739988 0.0058192 -0.0018867 0.000828061 2.62033e-11 -2.30161e-11 -2.42813e-10 5e-05 1.46608e-10 
30 1 0.0216138 0.0184567 0.00701067 0.00502183 -0.00188329 0.000459761 -1.40187e-11 -6.32587e-11 1.30257e-11 5e-05 1.46608e-10 
31 1 0.0213138 0.018097 0.00706389 0.00534451 -0.00191914 0.000475178 -5.2629e-11 -4.94705e-11 1.44496e-11 5e-05 1.46608e-10 
32 1 0.021409 0.0181284 0.00706114 0.00535343 -0.00191042 0.000473937 -1.88343e-11 -1.60078e-10 3.13276e-11 5e-05 1.46608e-10 
33 1 0.0270226 0.0168158 0.00745457 0.00615976 -0.000415973 0.000173172 1.05512e-10 8.33149e-11 -2.85342e-11 5e-05 1.46608e-10 
34 1 0.021191 0.017517 0.00715692 0.00527027 -0.00187638 0.000489967 7.69927e-11 -1.86659e-11 1.67978e-11 5e-05 1.46608e-10 
35 1 0.0213886 0.0180319 0.00707708 0.00534254 -0.00190671 0.000472631 3.8964e-11 3.88678e-11 -3.1189e-11 5e-05 1.46608e-10 
36 1 0.0273897 0.0184615 0.00697056 0.00523059 -0.00179084 0.000171678 8.1233e-13 -4.12869e-13 5.2477e-14 5e-05 1.46608e-10 
37 1 0.0213477 0.0178387 0.00710902 0.00532002 -0.00187419 0.000478424 -6.59916e-11 5.08098e-11 3.71389e-12 5e-05 1.46608e-10 
38 1 0.021509 0.0181657 0.00705752 0.00515052 -0.00180125 0.000449388 2.75325e-10 2.66909e-11 -7.21544e-12 5e-05 1.46608e-10 
39 1 0.027235 0.0177232 0.00713974 0.00559015 -0.000299355 0.000139941 1.8057e-11 6.75207e-12 6.91262e-13 5e-05 1.46608e-10 
41 1 0.0211503 0.0173236 0.0071872 0.00535704 -0.00189732 0.000513227 4.51522e-11 1.47342e-10 -6.55763e-11 5e-05 1.46608e-10 
42 1 0.0213547 0.0182901 0.00703201 0.00513343 -0.00188421 0.000459037 -1.01065e-11 -1.44384e-10 4.67635e-11 5e-05 1.46608e-10 
44 1 0.0215382 0.0182771 0.00703929 0.00521071 -0.00170928 0.000436733 1.97294e-10 -6.94992e-11 3.1411e-11 5e-05 1.46608e-10 
45 1 0.0270435 0.016891 0.00739208 0.00618256 -0.00042831 0.000181975 5.19005e-11 1.21536e-10 -1.59084e-11 5e-05 1.46608e-10 
46 1 0.0271289 0.017247 0.0072489 0.00617056 -0.000416572 0.000174654 -1.16799e-11 2.18935e-11 7.31593e-12 5e-05 1.46608e-10 
47 1 0.0211706 0.0174203 0.00717203 0.00526168 -0.00187837 0.000487606 9.47326e-11 3.27475e-11 -6.4579e-12 5e-05 1.46608e-10 
48 1 0.0213939 0.0184836 0.00700003 0.00519884 -0.00188408 0.000463997 -2.29381e-11 -7.15445e-11 7.48195e-11 5e-05 1.46608e-10 
49 1 0.0271074 0.0171518 0.00727072 0.00619578 -0.000416607 0.000174936 3.9694e-11 2.19921e-11 1.28138e-12 5e-05 1.46608e-10 
50 1 0.021456 0.0187962 0.00694832 0.00512216 -0.00192074 0.000468955 -4.44089e-11 -2.47465e-10 2.61507e-11 5e-05 1.46608e-10 
51 1 0.0214326 0.0186772 0.00696801 0.00510334 -0.00184984 0.000456443 1.86105e-11 -1.24088e-13 1.56695e-12 5e-05 1.46608e-10 
52 1 0.0163475 0.0200961 0.00713679 -1.92044e-15 2.50401e-15 -2.62517e-14 -4.42025e-24 -2.58494e-24 0 5e-05 1.46608e-10 
53 1 0.0271717 0.0174374 0.00720526 0.0061304 -0.000408741 0.000172119 1.87706e-11 -9.85865e-12 4.38673e-12 5e-05 1.46608e-10 
54 1 0.0211823 0.0170329 0.00732009 0.00591387 -0.00173328 0.000636693 -2.44483e-10 2.95287e-11 -7.55797e-11 5e-05 1.46608e-10 
55 1 0.0155563 0.0192857 0.00704565 0.0046159 -0.00532987 -0.000665195 3.14842e-11 -2.51479e-11 2.23894e-11 5e-05 1.46608e-10 
56 1 0.0213681 0.0179353 0.00709302 0.00534278 -0.0018926 0.000471304 1.33065e-11 6.62145e-11 -2.70263e-11 5e-05 1.46608e-10 
57 1 0.0270652 0.0169661 0.00732971 0.00619345 -0.000426813 0.000180979 -1.70876e-10 6.08675e-12 2.76026e-11 5e-05 1.46608e-10 
59 1 0.0214222 0.0177733 0.00712218 0.00532584 -0.00186804 0.000465236 -1.57505e-10 5.91432e-11 -6.28914e-11 5e-05 1.46608e-10 
60 1 0.0214427 0.0178699 0.00710623 0.0053359 -0.00190417 0.0004729 -2.69571e-12 3.68684e-11 -6.2905e-11 5e-05 1.46608e-10 
61 1 0.0211294 0.017234 0.00722636 0.00584279 -0.00191701 0.000726949 -3.44468e-11 1.72755e-10 -7.43879e-11 5e-05 1.46608e-10 
62 1 0.0215581 0.0183746 0.00702317 0.00516292 -0.00197352 0.000479222 4.09026e-11 -1.17555e-10 1.51755e-11 5e-05 1.46608e-10 
63 1 0.0214887 0.0185157 0.00699714 0.00522433 -0.00188991 0.000466406 1.07145e-10 -1.58815e-10 2.92435e-11 5e-05 1.46608e-10 
64 1 0.0271932 0.0175326 0.00718344 0.00610974 -0.00040141 0.000170096 -4.148e-11 1.08114e-12 -2.78541e-12 5e-05 1.46608e-10 
65 1 0.0166177 0.0198804 0.00709645 -1.92025e-15 2.50459e-15 -2.62516e-14 -1.69314e-24 -3.10193e-25 0 5e-05 1.46608e-10 
66 1 0.0163131 0.0198665 0.00711386 3.31146e-16 -1.12794e-14 9.2385e-14 7.75482e-25 0 0 5e-05 1.46608e-10 
67 1 0.0216026 0.018202 0.00705388 0.00541675 -0.00155992 0.000415472 2.51305e-11 -4.37043e-10 9.76285e-11 5e-05 1.46608e-10 
68 1 0.0216039 0.0186664 0.00697457 0.00513566 -0.00191 0.000467805 1.06625e-10 -2.02684e-10 3.65275e-11 5e-05 1.46608e-10 
69 1 0.0212863 0.0175487 0.00715506 0.00527164 -0.00187079 0.000489137 6.87482e-12 2.61672e-12 7.01157e-12 5e-05 1.46608e-10 
70 1 0.0272552 0.0178187 0.00711785 0.00561309 -0.000303731 0.000141245 6.40666e-13 -5.31711e-12 -1.6792e-13 5e-05 1.46608e-10 
71 1 0.01552 0.0191168 0.00702517 0.00444978 -0.00506412 -0.000634235 2.4587e-13 -3.62381e-13 -4.49757e-14 5e-05 1.46608e-10 
72 1 0.0215858 0.0185512 0.00699375 0.00508029 -0.00186824 0.00045882 3.16096e-11 -3.72236e-11 7.6732e-12 5e-05 1.46608e-10 
73 1 0.0212525 0.0178072 0.00711161 0.0053054 -0.0018589 0.000494213 4.35126e-11 -6.96455e-11 6.12111e-11 5e-05 1.46608e-10 
74 1 0.0214495 0.0183221 0.00702916 0.00512859 -0.00182874 0.000450941 3.97133e-11 7.53479e-11 -3.17758e-11 5e-05 1.46608e-10 
76 1 0.0206724 0.0238633 0.0115821 -0.0455656 0.0121787 0.0286375 5.82927e-07 -2.05364e-06 3.83044e-07 5e-05 1.46608e-10 
77 1 0.0226263 0.0192774 0.00689827 4.24161e-15 -2.63637e-14 -1.54285e-13 -5.75149e-25 0 0 5e-05 1.46608e-10 
78 1 0.0156785 0.0198465 0.00711369 0.00476772 -0.00546214 -0.00068397 2.90325e-13 -9.32704e-13 -1.1877e-13 5e-05 1.46608e-10 
79 1 0.0167576 0.0198364 0.00708203 -1.91994e-15 2.50465e-15 -2.62517e-14 -2.48154e-24 -2.66249e-24 2.06795e-25 5e-05 1.46608e-10 
80 1 0.0215166 0.0191036 0.00689746 0.00522821 -0.00206237 0.000498859 7.63411e-12 2.72529e-10 -6.8662e-11 5e-05 1.46608e-10 
81 1 0.0161002 0.0202147 0.00715712 3.31387e-16 -1.12794e-14 9.2385e-14 -3.12939e-24 -1.03398e-25 0 5e-05 1.46608e-10 
82 1 0.0169384 0.0201102 0.00709492 -1.92035e-15 2.50464e-15 -2.62516e-14 -1.30539e-24 -1.39587e-24 0 5e-05 1.46608e-10 
83 1 0.0158723 0.0199762 0.00712883 0.00484479 -0.0054986 -0.000688697 8.34877e-13 -2.63426e-13 -3.20708e-14 5e-05 1.46608e-10 
84 1 0.0273353 0.0181968 0.00703113 0.00539596 -0.00176568 0.000477695 5.99556e-13 -1.85674e-13 4.67483e-14 5e-05 1.46608e-10 
85 1 0.0157152 0.0191697 0.00703093 0.00461556 -0.00533014 -0.000666637 1.0786e-11 -4.28855e-12 1.46008e-13 5e-05 1.46608e-10 
86 1 0.0215081 0.0186129 0.00698107 0.00509874 -0.00184979 0.000456516 2.2195e-11 -3.74203e-11 8.38839e-12 5e-05 1.46608e-10 
87 1 0.0214017 0.0176767 0.00713812 0.00527272 -0.00186896 0.000469653 -1.5315e-11 1.73608e-10 -3.63196e-11 5e-05 1.46608e-10 
88 1 0.0217636 0.019394 0.00685464 4.24054e-15 -2.63638e-14 -1.54285e-13 6.5916e-24 9.82277e-25 0 5e-05 1.46608e-10 
89 1 0.0215357 0.0192004 0.00688144 0.00525396 -0.00206883 0.000498806 1.65256e-11 2.55809e-10 -1.75401e-11 5e-05 1.46608e-10 
90 1 0.0216106 0.0180054 0.00708771 0.00504664 -0.00174112 0.000436074 1.34234e-10 -1.97339e-10 3.84342e-11 5e-05 1.46608e-10 
91 1 0.016898 0.0198835 0.00707625 -1.92001e-15 2.50476e-15 -2.62516e-14 3.42504e-24 4.93723e-24 2.06795e-25 5e-05 1.46608e-10 
92 1 0.0216456 0.0188608 0.0069425 0.00517319 -0.00193513 0.000473087 6.44227e-11 -7.81387e-11 1.15677e-11 5e-05 1.46608e-10 
93 1 0.0216241 0.0192468 0.00687595 0.00528404 -0.00212238 0.00050838 -1.39856e-10 -1.01134e-11 -7.53472e-12 5e-05 1.46608e-10 
94 1 0.0217785 0.0190936 0.00690638 7.15713e-05 0.000163337 -2.59064e-05 -2.12984e-11 -9.41332e-12 1.31082e-12 5e-05 1.46608e-10 
95 1 0.0214939 0.0189885 0.00691651 0.00516323 -0.0019563 0.00047474 5.6663e-11 1.36352e-11 9.81865e-12 5e-05 1.46608e-10 
96 1 0.0216608 0.0189683 0.00692454 0.00525783 -0.00208475 0.000500733 -1.35661e-10 2.46113e-10 -4.23902e-11 5e-05 1.46608e-10 
97 1 0.0161643 0.0199 0.00711848 -7.58058e-16 2.58188e-14 -2.11472e-13 1.68021e-25 0 -2.06795e-25 5e-05 1.46608e-10 
98 1 0.022245 0.019382 0.00686992 5.15463e-15 -3.20384e-14 -1.87495e-13 8.98266e-25 5.68687e-25 0 5e-05 1.46608e-10 
99 1 0.0163517 0.0199659 0.00712406 -1.91994e-15 2.50471e-15 -2.62516e-14 2.58494e-24 2.58494e-24 2.06795e-25 5e-05 1.46608e-10 
100 1 0.0216152 0.0179069 0.00710465 0.00515323 -0.00170793 0.000433791 6.91297e-11 -2.53322e-11 7.38232e-12 5e-05 1.46608e-10 
101 1 0.0172448 0.0142756 0.0117214 -0.000525827 -0.000139915 0.000724954 -2.47228e-11 -3.40673e-11 1.71983e-10 5e-05 1.46608e-10 
102 1 0.0643568 0.0187248 0.00531097 4.38814e-15 1.04421e-14 8.2961e-14 -5.18423e-22 -2.17626e-22 3.90843e-23 5e-05 1.46608e-10 
103 1 0.242517 0.0192163 0.00521123 0.0286729 0.0214864 0.000681892 0 0 -1.43822e-09 5e-05 1.46608e-10 
104 1 0.0168535 0.0238512 0.0121241 0.0126709 0.000685239 -0.0176255 1.40999e-11 3.51455e-13 -2.04191e-11 5e-05 1.46608e-10 
105 1 0.0157361 0.0201105 0.00714571 0.00484492 -0.00549844 -0.000688678 -1.66157e-13 -1.42575e-12 -1.88605e-13 5e-05 1.46608e-10 
106 1 0.0183759 0.0197951 0.00695971 -2.23023e-06 2.85908e-06 4.35909e-07 6.06347e-11 -8.71498e-11 -1.27499e-11 5e-05 1.46608e-10 
107 1 0.0157041 0.0199642 0.00712796 0.00480167 -0.00548041 -0.000686321 1.20177e-13 -9.40337e-13 -1.13991e-13 5e-05 1.46608e-10 
108 1 0.0213272 0.0177421 0.00712485 0.00529087 -0.00186248 0.000487224 -5.51066e-11 3.22477e-11 -3.52681e-11 5e-05 1.46608e-10 
109 1 0.0214135 0.0185804 0.00698403 0.00523008 -0.00187877 0.000464422 6.05574e-11 -3.22007e-11 -1.23112e-11 5e-05 1.46608e-10 
110 1 0.0217194 0.0187305 0.00696678 0.00512548 -0.00192844 0.000470575 9.60707e-11 5.52282e-12 3.20783e-13 5e-05 1.46608e-10 
111 1 0.0225682 0.0194054 0.0068748 5.15458e-15 -3.20384e-14 -1.87495e-13 -1.3894e-24 -1.03398e-25 0 5e-05 1.46608e-10 
112 1 0.015803 0.0204174 0.00718294 0.00493895 -0.00552102 -0.000691773 -2.77733e-13 -3.46833e-13 -4.94684e-14 5e-05 1.46608e-10 
113 1 0.0202214 0.0238438 0.0115468 -0.000382557 -0.00786032 -0.0190928 4.69222e-08 -2.77392e-06 2.12608e-06 5e-05 1.46608e-10 
114 1 0.0173662 0.0200367 0.00705661 -1.92009e-15 2.50487e-15 -2.62516e-14 9.30578e-25 1.68021e-24 0 5e-05 1.46608e-10 
115 1 0.0214691 0.018419 0.00701314 0.0051919 -0.00190471 0.000466346 -4.52734e-12 -7.43958e-11 7.49357e-12 5e-05 1.46608e-10 
116 1 0.0213068 0.0176454 0.00713995 0.00527603 -0.00186454 0.000488398 -4.45502e-11 1.84096e-11 -1.53877e-12 5e-05 1.46608e-10 
117 1 0.0211606 0.016945 0.00736246 0.0058871 -0.00171224 0.000647208 -5.31639e-10 2.10879e-10 1.74726e-10 5e-05 1.46608e-10 
118 1 0.0156357 0.0196502 0.00708987 0.0047126 -0.00542472 -0.000679215 -5.5253e-13 -1.22755e-12 -1.827e-12 5e-05 1.46608e-10 
119 1 0.0214631 0.0179665 0.00709029 0.00533872 -0.0019076 0.00047389 9.17015e-11 1.2936e-10 -1.65512e-11 5e-05 1.46608e-10 
120 1 0.021021 0.0168007 0.00745032 0.00582407 -0.00161939 0.0012713 1.66364e-10 9.97793e-11 6.52365e-11 5e-05 1.46608e-10 
121 1 0.0209782 0.0166382 0.0075588 0.00578477 -0.00158736 0.00124491 3.22768e-11 3.11246e-11 -1.60367e-11 5e-05 1.46608e-10 
122 1 0.0217443 0.0188772 0.00694241 0.00478593 0.000420611 5.97084e-05 1.22541e-12 2.23823e-11 -3.13842e-12 5e-05 1.46608e-10 
123 1 0.0157845 0.0200237 0.00713494 0.00484486 -0.00549847 -0.000688682 3.09883e-13 -1.19499e-12 -1.3225e-13 5e-05 1.46608e-10 
124 1 0.0215841 0.0190312 0.00691168 0.00522426 -0.00209665 0.000502614 9.15373e-11 3.21151e-10 -4.08739e-11 5e-05 1.46608e-10 
125 1 0.0211391 0.0168613 0.00741288 0.00587261 -0.00140187 0.00110701 -8.19499e-11 8.07375e-11 -3.28477e-10 5e-05 1.46608e-10 
126 1 0.0213744 0.018387 0.00701656 0.00507185 -0.00187595 0.000425756 -2.45388e-10 -5.8443e-11 -8.46643e-11 5e-05 1.46608e-10 
127 1 0.0158296 0.020258 0.00716339 -7.58033e-16 2.58188e-14 -2.11472e-13 1.82077e-24 0 2.06795e-25 5e-05 1.46608e-10 
128 1 0.0214755 0.0188942 0.00694435 0.00513663 -0.00193378 0.000470738 -1.17117e-10 -2.08415e-10 7.68722e-12 5e-05 1.46608e-10 
129 1 0.0215597 0.0193218 0.00686136 0.0052572 -0.00215184 0.000512419 1.08074e-10 2.17318e-10 -5.63045e-11 5e-05 1.46608e-10 
130 1 0.0172106 0.0201542 0.00707921 -1.92008e-15 2.50476e-15 -2.62516e-14 5.11818e-24 2.66249e-24 0 5e-05 1.46608e-10 
131 1 0.0161846 0.0201428 0.00714804 3.29761e-16 -1.12794e-14 9.2385e-14 4.22314e-24 1.29247e-25 0 5e-05 1.46608e-10 
132 1 0.0215704 0.0189253 0.0069294 0.00515114 -0.00196052 0.000476216 6.50189e-11 -1.46387e-10 1.92523e-11 5e-05 1.46608e-10 
133 1 0.0212968 0.0172715 0.00720341 0.00575335 -0.00159986 0.000586302 2.09667e-10 -1.89049e-10 1.1766e-10 5e-05 1.46608e-10 
134 1 0.0214836 0.0180631 0.00707434 0.00537413 -0.00188371 0.000469488 6.87069e-11 -5.38083e-11 1.64274e-11 5e-05 1.46608e-10 
135 1 0.0211175 0.0167801 0.00746709 0.00591205 -0.00136969 0.00110201 5.80394e-11 -7.21797e-11 9.80982e-11 5e-05 1.46608e-10 
136 1 0.0157045 0.0195781 0.00708083 0.00471257 -0.00542471 -0.00067919 9.28177e-13 -5.56286e-13 1.64654e-12 5e-05 1.46608e-10 
137 1 0.0226887 0.0194645 0.00686801 -3.97542e-15 2.47093e-14 1.44604e-13 1.47988e-24 -2.06795e-25 2.06795e-25 5e-05 1.46608e-10 
138 1 0.0212658 0.017452 0.00717016 0.0052679 -0.00188112 0.000491186 1.81643e-11 -1.06518e-10 1.73306e-11 5e-05 1.46608e-10 
140 1 0.0217564 0.0189973 0.00692221 0.00490561 -0.000901335 0.000288848 1.01624e-10 -1.90115e-10 3.29983e-11 5e-05 1.46608e-10 
141 1 0.0157693 0.0198889 0.00711853 0.00480168 -0.0054804 -0.000686321 2.61775e-13 -8.37044e-13 -1.03399e-13 5e-05 1.46608e-10 
142 1 0.0178694 0.0197766 0.006995 -1.92026e-15 2.50453e-15 -2.62516e-14 -8.65955e-25 -8.78879e-25 0 5e-05 1.46608e-10 
143 1 0.0161068 0.019636 0.00708645 -7.58088e-16 2.58188e-14 -2.11472e-13 -9.37041e-26 0 0 5e-05 1.46608e-10 
144 1 0.0174594 0.0198817 0.00703501 -1.92087e-15 2.50414e-15 -2.62516e-14 2.10673e-24 2.48154e-24 0 5e-05 1.46608e-10 
146 1 0.0174308 0.0142668 0.0116554 0.000814685 -0.00172564 0.00286669 2.38967e-13 -2.81262e-11 -2.2453e-11 5e-05 1.46608e-10 
147 1 0.015626 0.0192146 0.00703673 0.00461569 -0.00533 -0.000669973 -2.42263e-11 1.44773e-11 -2.61245e-11 5e-05 1.46608e-10 
148 1 0.0177707 0.020049 0.00702821 -1.92007e-15 2.50468e-15 -2.62516e-14 1.16322e-24 5.68687e-25 0 5e-05 1.46608e-10 
149 1 0.0218303 0.0189312 0.00693554 0.00552993 -0.000218856 0.00018942 2.06489e-10 -8.9953e-11 2.14604e-11 5e-05 1.46608e-10 
150 1 0.0175321 0.0142636 0.0116606 0.000812901 -0.00169482 0.00281117 -5.07365e-11 7.60655e-12 -3.24177e-11 5e-05 1.46608e-10 
151 1 0.0202019 0.020177 0.018442 0 -0 -0.03 0 0 0 5e-05 1.46608e-10 
152 1 0.01617 0.0189135 0.0195722 0 -0 -0.03 0 0 0 5e-05 1.46608e-10 
153 1 0.0173327 0.0142722 0.0116739 0.000949677 -0.00153956 0.00355014 9.31926e-11 -8.03902e-11 3.45099e-10 5e-05 1.46608e-10 
154 1 0.0178964 0.0201384 0.007032 0.00165108 -0.00706851 -0.00347792 0 0 -1.43822e-09 5e-05 1.46608e-10 
155 1 0.01633 0.0237218 0.0126486 0.0117222 0.00269352 -0.0121568 -3.19785e-12 1.9388e-12 8.69903e-12 5e-05 1.46608e-10 
156 1 0.0178709 0.0199939 0.00701562 0.000176337 -0.0164565 -0.00158302 9.60646e-11 5.75382e-10 4.78711e-11 5e-05 1.46608e-10 
157 1 0.0216867 0.0232514 0.0139277 -0.0018671 0.0913894 -0.134063 0 0 -1.43822e-09 5e-05 1.46608e-10 
158 1 0.018273 0.0197257 0.00696062 -1.48525e-08 1.94209e-08 2.93926e-09 -1.23772e-13 1.58758e-13 2.41975e-14 5e-05 1.46608e-10 
159 1 0.0216251 0.0187628 0.00695867 0.00513299 -0.00192451 0.000470059 3.31201e-12 -1.95725e-10 3.69204e-11 5e-05 1.46608e-10 
160 1 0.0184226 0.0209162 0.0214502 0 -0 -0.03 0 0 0 5e-05 1.46608e-10 
161 1 0.0228774 0.0225945 0.0147904 -0.00224286 0.067026 -0.0672224 5.08826e-12 3.00372e-10 -4.91589e-10 5e-05 1.46608e-10 
162 1 0.0181318 0.0198278 0.00698069 -1.92137e-15 2.51077e-15 -2.6251e-14 -3.40049e-23 5.40252e-23 7.44463e-24 5e-05 1.46608e-10 
163 1 0.0208787 0.0238641 0.0116099 0.00244084 -0.0040435 -0.0058259 0 0 -1.43822e-09 5e-05 1.46608e-10 
164 1 0.0237301 0.0203453 0.0161942 -0.000567982 0.0323505 -0.0107853 0 0 -1.43822e-09 5e-05 1.46608e-10 
165 1 0.0192156 0.0226975 0.0143641 0.000105231 0.071536 -0.160303 0 0 -1.43822e-09 5e-05 1.46608e-10 
166 1 0.0215956 0.0158621 0.0214328 0 -0 -0.03 0 0 0 5e-05 1.46608e-10 
167 1 0.0156831 0.0164901 0.0209161 0 -0 -0.03 0 0 0 5e-05 1.46608e-10 
168 1 0.0186062 0.0207543 0.00731667 -0.0195349 -0.0834593 -0.00489558 0 0 -1.43822e-09 5e-05 1.46608e-10 
169 1 0.0199656 0.0238446 0.0115483 -0.00668697 0.000900563 -0.000193697 1.27885e-08 -7.10863e-09 -9.49778e-09 5e-05 1.46608e-10 
170 1 0.018743 0.02338 0.0107101 0.0164438 -0.10033 -0.0274434 0 0 -1.43822e-09 5e-05 1.46608e-10 
171 1 0.0213123 0.0171625 0.00725459 0.007576 0.000821887 -0.000624329 -4.09076e-10 1.28491e-10 -6.54141e-11 5e-05 1.46608e-10 
172 1 0.0201418 0.0226972 0.0136475 0.000111153 0.0906714 -0.116364 0 0 -1.43822e-09 5e-05 1.46608e-10 
173 1 0.0216327 0.0178099 0.00712171 0.00534885 -0.0018762 0.000467666 6.4136e-11 7.54265e-11 -3.04039e-13 5e-05 1.46608e-10 
174 1 0.0183074 0.0205554 0.0179235 0 0 -0.104286 0 0 -1.43822e-09 5e-05 1.46608e-10 
175 1 0.0176061 0.0170396 0.0214249 0 -0 -0.03 0 0 0 5e-05 1.46608e-10 
176 1 0.0177317 0.0199438 0.00702102 -1.92008e-15 2.5047e-15 -2.62516e-14 -4.35562e-24 -4.80799e-24 -2.06795e-25 5e-05 1.46608e-10 
177 1 0.0207764 0.023866 0.0115876 0.000435479 -0.00120083 -0.000466496 0 0 -1.43822e-09 5e-05 1.46608e-10 
178 1 0.020534 0.0238574 0.0115715 0.00151862 -0.00760007 -0.029196 -2.43938e-07 1.17909e-07 1.09973e-06 5e-05 1.46608e-10 
179 1 0.0171845 0.0234184 0.0189928 0 -0 -0.03 0 0 0 5e-05 1.46608e-10 
180 1 0.0203569 0.0238497 0.0115575 0.00322578 0.000670122 -0.00424999 1.50663e-07 -7.90652e-08 -2.30878e-07 5e-05 1.46608e-10 
181 1 0.0181978 0.020721 0.0072752 -0.0314338 -0.0709094 -0.0305845 1.66879e-10 7.15947e-11 4.00332e-11 5e-05 1.46608e-10 
182 1 0.0212453 0.0173553 0.00718564 0.00525234 -0.0018945 0.000488745 -8.94047e-11 -2.06317e-10 -2.20151e-10 5e-05 1.46608e-10 
183 1 0.0196981 0.0210345 0.0149802 -9.7363e-06 0.025335 -0.0140202 9.92419e-14 -4.80349e-11 1.22528e-09 5e-05 1.46608e-10 
184 1 0.0220422 0.0162432 0.0154931 -0.00087908 -0.0394239 0.00403553 0 0 -1.43822e-09 5e-05 1.46608e-10 
185 1 0.0176394 0.020021 0.00703514 -1.92063e-15 2.50417e-15 -2.62517e-14 2.06795e-25 6.72084e-25 2.06795e-25 5e-05 1.46608e-10 
186 1 0.0177095 0.0201724 0.00704445 -1.92008e-15 2.50453e-15 -2.62517e-14 5.26035e-24 -1.42172e-24 -6.20385e-25 5e-05 1.46608e-10 
187 1 0.0215387 0.0178431 0.00711346 0.00533531 -0.00191093 0.000474874 5.5541e-11 1.42628e-10 -3.70141e-11 5e-05 1.46608e-10 
188 1 0.0224264 0.0188365 0.00696811 -3.97535e-15 2.47093e-14 1.44604e-13 -1.04819e-23 1.24077e-24 -4.1359e-25 5e-05 1.46608e-10 
189 1 0.0206197 0.0147963 0.0115416 -0.0610099 0.0702295 -0.089603 0 0 -1.43822e-09 5e-05 1.46608e-10 
190 1 0.015587 0.0221042 0.0152032 1.49675e-06 0.0506664 -0.0426191 9.73917e-12 2.70092e-10 -3.5254e-10 5e-05 1.46608e-10 
191 1 0.0237712 0.019317 0.00691532 -1.93992e-16 6.03288e-15 3.87993e-14 -3.20694e-25 -1.03398e-25 0 5e-05 1.46608e-10 
192 1 0.0180161 0.0196989 0.00697685 0.000311242 -0.0136235 -0.00132259 8.74528e-11 5.75179e-10 4.84816e-11 5e-05 1.46608e-10 
193 1 0.0213813 0.01758 0.00715324 0.00526931 -0.00186455 0.000487823 2.72235e-12 8.80412e-11 -3.56545e-12 5e-05 1.46608e-10 
194 1 0.0179506 0.0155736 0.0201168 0 -0 -0.03 0 0 0 5e-05 1.46608e-10 
195 1 0.020974 0.0239616 0.011936 -0.018034 -0.0296749 -0.00990839 0 0 -1.43822e-09 5e-05 1.46608e-10 
196 1 0.015149 0.017365 0.00741214 0.0299241 0.0525529 -0.0424389 0 0 -1.43822e-09 5e-05 1.46608e-10 
197 1 0.018635 0.0173842 0.0171303 0 0 -0.162597 0 0 -1.43822e-09 5e-05 1.46608e-10 
198 1 0.0168716 0.0199923 0.00708856 -1.9202e-15 2.50452e-15 -2.62516e-14 6.47527e-24 5.40252e-24 2.06795e-25 5e-05 1.46608e-10 
199 1 0.0182003 0.0199351 0.00698592 2.03104e-14 -2.64942e-14 2.77687e-13 7.75482e-26 -2.58494e-26 0 5e-05 1.46608e-10 
200 1 0.0172112 0.0199627 0.00706089 -1.9209e-15 2.50432e-15 -2.62516e-14 -5.04063e-24 7.75482e-26 2.06795e-25 5e-05 1.46608e-10 
201 1 0.0231437 0.0176511 0.0211134 0 -0 -0.03 0 0 0 5e-05 1.46608e-10 
202 1 0.0194982 0.0232076 0.00992177 -0.0232446 -0.0576498 -0.118211 -2.63335e-10 8.99271e-11 -1.24367e-09 5e-05 1.46608e-10 
203 1 0.019886 0.0165115 0.0209262 0 -0 -0.03 0 0 0 5e-05 1.46608e-10 
204 1 0.0175415 0.0197076 0.00701239 2.03104e-14 -2.64941e-14 2.77687e-13 -5.93244e-24 -2.17135e-24 4.1359e-25 5e-05 1.46608e-10 
205 1 0.0158236 0.0235858 0.0131344 0.00973219 0.00189212 -0.0107591 9.68249e-11 3.48023e-11 -3.11352e-11 5e-05 1.46608e-10 
206 1 0.0188428 0.0223694 0.0183063 0 0 -0.0580125 0 0 -1.43822e-09 5e-05 1.46608e-10 
207 1 0.0174763 0.0142208 0.0117317 0.000876285 -0.00171194 0.00284382 1.2745e-10 4.05377e-11 -2.60929e-11 5e-05 1.46608e-10 
208 1 0.0187367 0.0212879 0.0076828 -0.0237433 -0.0854235 -0.0535153 0 0 -1.43822e-09 5e-05 1.46608e-10 
209 1 0.016226 0.0228168 0.0144867 -0.000215844 0.0662908 -0.0875169 0 0 -1.43822e-09 5e-05 1.46608e-10 
210 1 0.0208962 0.0163074 0.00785396 0.0363028 0.0810061 -0.146977 0 0 -1.43822e-09 5e-05 1.46608e-10 
211 1 0.0216815 0.0190665 0.00690834 0.00529229 -0.00209574 0.000504264 -2.53693e-10 5.96917e-11 -1.18541e-11 5e-05 1.46608e-10 
212 1 0.0208805 0.0222565 0.0194894 0 -0 -0.03 0 0 0 5e-05 1.46608e-10 
213 1 0.0214082 0.0173145 0.0071976 0.00524225 -0.00189646 0.000492778 4.27907e-11 3.36384e-11 -1.15853e-11 5e-05 1.46608e-10 
214 1 0.0216116 0.0191366 0.00689444 0.00526187 -0.00210104 0.000504064 4.46024e-11 3.22325e-10 -8.99923e-11 5e-05 1.46608e-10 
215 1 0.0165843 0.0232855 0.014131 -0.00328023 0.0687006 -0.188909 0 0 -1.43822e-09 5e-05 1.46608e-10 
216 1 0.0195972 0.0204017 0.019531 0 -0 -0.03 0 0 0 5e-05 1.46608e-10 
217 1 0.0213403 0.0173866 0.00718345 0.00526411 -0.00188249 0.000490804 -2.19009e-11 -1.14026e-10 -3.46564e-14 5e-05 1.46608e-10 
218 1 0.0238348 0.0203469 0.0198133 0 -0 -0.03 0 0 0 5e-05 1.46608e-10 
219 1 0.0222116 0.0194877 0.00685093 5.15451e-15 -3.20384e-14 -1.87495e-13 -3.12131e-24 -6.72084e-25 0 5e-05 1.46608e-10 
220 1 0.0181789 0.0201612 0.00704929 -0.0106641 -0.0455482 -0.0190005 5.71072e-11 1.05714e-10 4.62901e-11 5e-05 1.46608e-10 
221 1 0.0165785 0.0237832 0.0123996 0.0124014 0.00179669 -0.0149823 -3.38594e-13 -4.22889e-13 -3.58151e-13 5e-05 1.46608e-10 
222 1 0.0213608 0.0174833 0.00716835 0.00526669 -0.00187072 0.000488931 -3.87231e-11 9.28359e-12 6.49133e-12 5e-05 1.46608e-10 
223 1 0.0182128 0.019628 0.0069557 -1.90871e-13 1.51243e-12 5.51633e-14 -1.90336e-17 4.35928e-17 3.60721e-18 5e-05 1.46608e-10 
224 1 0.0170469 0.0203168 0.00710669 -1.92357e-15 2.50273e-15 -2.62516e-14 -6.21678e-24 -3.95496e-24 0 5e-05 1.46608e-10 
225 1 0.0234485 0.0170682 0.0194068 0 -0 -0.03 0 0 0 5e-05 1.46608e-10 
226 1 0.0198378 0.0226428 0.0187003 0 -0 -0.03 0 0 0 5e-05 1.46608e-10 
