LIGGGHTS (Version LIGGGHTS-PUBLIC 3.8.0, compiled 2026-05-30-04:17:57 by root, git commit 3d5c00f20519e6bb6eb6756f51f1ad36564e649d)
##################################Header for General commands#######################################################

atom_style	granular		#Simulation of particles

boundary	f f f			#fixed boundaries -> particles will be deleted if leaving the simulation box

units		si

communicate	multi vel yes		#default

newton		off			#default


###################################System variables##################################################################

#Definition of boundaries

variable xmin equal -0.02
variable xmax equal 0.43

variable ymin equal -0.02
variable ymax equal 0.06

variable zmin equal -0.02
variable zmax equal 0.07

#Definition of the timestep

variable dt equal 1e-6


###################################Specific variables for current simulation#########################################

variable natoms equal 2 				#1 -> particle #2 ->pipe and screw


####variable for material properties####

####Young Modulus####
variable	youngmodulus1	equal 	7e6
variable	youngmodulus2	equal 	2e8

####Poission ratio####
variable 	poission1	equal	0.30
variable 	poission2	equal	0.29


####variable for contact properties####

####coefficient of restitution####
variable	CoR11	equal	0.6
variable	CoR12	equal	0.3
variable	CoR21	equal	0.3
variable	CoR22	equal	0.45

####sliding friction coefficient####
variable	sf11	equal	0.65	#Particle-particle sliding friction coefficient
variable	sf12	equal	0.7
variable	sf21	equal	0.7
variable	sf22	equal	0.0

####rolling friction coefficient####
variable	rf11	equal	0.75	#Particle-particle rolling friction coefficient
variable	rf12	equal	0.6
variable	rf21	equal	0.6
variable	rf22	equal	0.0


####variable for particle####

#Number of particle radius
variable	nradii	equal	3

variable	radius1	equal	0.0005	#m
variable	radius2	equal	0.0005	#m
variable	radius3	equal	0.0005	#m

variable	frac1	equal	0.3945
variable	frac2	equal	0.4059
variable	frac3	equal	0.1996

variable	density	equal	280		#kg/m³


####filling parameters####

variable	filltime	equal	2.0		#s, prueba rápida: alimentar 2 s

variable	dischargetime	equal	90		#s, tiempo para que puedan salir partículas

variable	fillmass	equal	4.4e-5 		#kg, 2 g de material

variable	fillmassrate	equal	${fillmass}/${filltime}	#kg/s
variable	fillmassrate	equal	4.4e-05/${filltime}	
variable	fillmassrate	equal	4.4e-05/2	

variable	fillsteps	equal	${filltime}/${dt}
variable	fillsteps	equal	2/${dt}
variable	fillsteps	equal	2/1e-06

variable	dischargesteps	equal	${dischargetime}/${dt}
variable	dischargesteps	equal	90/${dt}
variable	dischargesteps	equal	90/1e-06


####screw velocities####

variable	screwPeriod	equal	1.209		#s, prueba rápida: 2 vueltas/s


###################################Definition of simulationbox#######################################################

region		reg block ${xmin} ${xmax} ${ymin} ${ymax} ${zmin} ${zmax} units box
region		reg block -0.02 ${xmax} ${ymin} ${ymax} ${zmin} ${zmax} units box
region		reg block -0.02 0.43 ${ymin} ${ymax} ${zmin} ${zmax} units box
region		reg block -0.02 0.43 -0.02 ${ymax} ${zmin} ${zmax} units box
region		reg block -0.02 0.43 -0.02 0.06 ${zmin} ${zmax} units box
region		reg block -0.02 0.43 -0.02 0.06 -0.02 ${zmax} units box
region		reg block -0.02 0.43 -0.02 0.06 -0.02 0.07 units box

processors 6 1 1

create_box	2 reg
Created orthogonal box = (-0.02 -0.02 -0.02) to (0.43 0.06 0.07)
  6 by 1 by 1 MPI processor grid

neighbor	0.001 bin

neigh_modify	delay 0


#################################Definition of the contact models####################################################

pair_style gran model hertz tangential history rolling_friction epsd2

pair_coeff	* *

timestep ${dt}
timestep 1e-06

thermo 1000

fix		integrator all nve/sphere

fix		gravi all gravity 9.81 vector 0.0 0.0 -1.0


###################################Definition of Material properties#################################################

fix 		m1 all property/global youngsModulus peratomtype ${youngmodulus1} ${youngmodulus2}
fix 		m1 all property/global youngsModulus peratomtype 7000000 ${youngmodulus2}
fix 		m1 all property/global youngsModulus peratomtype 7000000 200000000

fix 		m2 all property/global poissonsRatio peratomtype ${poission1} ${poission2}
fix 		m2 all property/global poissonsRatio peratomtype 0.3 ${poission2}
fix 		m2 all property/global poissonsRatio peratomtype 0.3 0.29

fix 		m3 all property/global coefficientRestitution peratomtypepair ${natoms} ${CoR11} ${CoR12} ${CoR21} ${CoR22}
fix 		m3 all property/global coefficientRestitution peratomtypepair 2 ${CoR11} ${CoR12} ${CoR21} ${CoR22}
fix 		m3 all property/global coefficientRestitution peratomtypepair 2 0.6 ${CoR12} ${CoR21} ${CoR22}
fix 		m3 all property/global coefficientRestitution peratomtypepair 2 0.6 0.3 ${CoR21} ${CoR22}
fix 		m3 all property/global coefficientRestitution peratomtypepair 2 0.6 0.3 0.3 ${CoR22}
fix 		m3 all property/global coefficientRestitution peratomtypepair 2 0.6 0.3 0.3 0.45

fix 		m4 all property/global coefficientFriction peratomtypepair ${natoms} ${sf11} ${sf12} ${sf21} ${sf22}
fix 		m4 all property/global coefficientFriction peratomtypepair 2 ${sf11} ${sf12} ${sf21} ${sf22}
fix 		m4 all property/global coefficientFriction peratomtypepair 2 0.65 ${sf12} ${sf21} ${sf22}
fix 		m4 all property/global coefficientFriction peratomtypepair 2 0.65 0.7 ${sf21} ${sf22}
fix 		m4 all property/global coefficientFriction peratomtypepair 2 0.65 0.7 0.7 ${sf22}
fix 		m4 all property/global coefficientFriction peratomtypepair 2 0.65 0.7 0.7 0

fix 		m5 all property/global coefficientRollingFriction peratomtypepair ${natoms} ${rf11} ${rf12} ${rf21} ${rf22}
fix 		m5 all property/global coefficientRollingFriction peratomtypepair 2 ${rf11} ${rf12} ${rf21} ${rf22}
fix 		m5 all property/global coefficientRollingFriction peratomtypepair 2 0.75 ${rf12} ${rf21} ${rf22}
fix 		m5 all property/global coefficientRollingFriction peratomtypepair 2 0.75 0.6 ${rf21} ${rf22}
fix 		m5 all property/global coefficientRollingFriction peratomtypepair 2 0.75 0.6 0.6 ${rf22}
fix 		m5 all property/global coefficientRollingFriction peratomtypepair 2 0.75 0.6 0.6 0


###################################Generation and Loading of the Geometry .stl#######################################

fix case all mesh/surface file case_remesh.stl type 2 heal auto_remove_duplicates scale 1.0 curvature 1e-5 curvature_tolerant yes

fix screw all mesh/surface file screw_simplified.stl type 2 scale 1.0 curvature 1e-5 curvature_tolerant yes

fix 		walls 		all wall/gran model hertz tangential history rolling_friction epsd2 mesh n_meshes 2 meshes case screw

fix		Movescrew	all move/mesh mesh screw rotate origin 0.2024435 0.019051 0.011497 axis -1. 0. 0. period ${screwPeriod}
fix		Movescrew	all move/mesh mesh screw rotate origin 0.2024435 0.019051 0.011497 axis -1. 0. 0. period 1.209

fix feed all mesh/surface file feed.stl type 2 scale 1.0 curvature 1e-5 curvature_tolerant yes

fix outlet all mesh/surface file outlet_1.stl type 2 scale 1.0 curvature 1e-5 curvature_tolerant yes


###################################Generation and Insertion of the particles#########################################

fix pts1 all particletemplate/sphere 10487 atom_type 1 density constant ${density} radius constant ${radius1} volume_limit 1e-18
fix pts1 all particletemplate/sphere 10487 atom_type 1 density constant 280 radius constant ${radius1} volume_limit 1e-18
fix pts1 all particletemplate/sphere 10487 atom_type 1 density constant 280 radius constant 0.0005 volume_limit 1e-18

fix pts2 all particletemplate/sphere 11887 atom_type 1 density constant ${density} radius constant ${radius2} volume_limit 1e-18
fix pts2 all particletemplate/sphere 11887 atom_type 1 density constant 280 radius constant ${radius2} volume_limit 1e-18
fix pts2 all particletemplate/sphere 11887 atom_type 1 density constant 280 radius constant 0.0005 volume_limit 1e-18

fix pts3 all particletemplate/sphere 16561 atom_type 1 density constant ${density} radius constant ${radius3} volume_limit 1e-18
fix pts3 all particletemplate/sphere 16561 atom_type 1 density constant 280 radius constant ${radius3} volume_limit 1e-18
fix pts3 all particletemplate/sphere 16561 atom_type 1 density constant 280 radius constant 0.0005 volume_limit 1e-18

fix 		pdd1 all particledistribution/discrete 32452867 ${nradii} pts1 ${frac1} pts2 ${frac2} pts3 ${frac3}
fix 		pdd1 all particledistribution/discrete 32452867 3 pts1 ${frac1} pts2 ${frac2} pts3 ${frac3}
fix 		pdd1 all particledistribution/discrete 32452867 3 pts1 0.3945 pts2 ${frac2} pts3 ${frac3}
fix 		pdd1 all particledistribution/discrete 32452867 3 pts1 0.3945 pts2 0.4059 pts3 ${frac3}
fix 		pdd1 all particledistribution/discrete 32452867 3 pts1 0.3945 pts2 0.4059 pts3 0.1996

fix		ins_mesh all mesh/surface/planar file feed.stl type 1 scale 1.0

fix 		ins all insert/stream seed 15485863 distributiontemplate pdd1         	mass ${fillmass} massrate ${fillmassrate} overlapcheck yes all_in yes vel constant 0 0 -0.03         	insertion_face ins_mesh extrude_length 0.015
fix 		ins all insert/stream seed 15485863 distributiontemplate pdd1         	mass 4.4e-05 massrate ${fillmassrate} overlapcheck yes all_in yes vel constant 0 0 -0.03         	insertion_face ins_mesh extrude_length 0.015
fix 		ins all insert/stream seed 15485863 distributiontemplate pdd1         	mass 4.4e-05 massrate 2.2e-05 overlapcheck yes all_in yes vel constant 0 0 -0.03         	insertion_face ins_mesh extrude_length 0.015


################################### Particle Residence Time Track#########################################

fix 	rt_outlet	all massflow/mesh mesh outlet vec_side 0 0 -1 file rt_outlet.txt writeTime

fix 	rt_inlet	all massflow/mesh mesh feed vec_side 0 0 -1 file rt_inlet.txt writeTime


###################################Outlet mass flow track#########################################

fix	mfout	all massflow/mesh mesh outlet vec_side 0 0 -1

fix	mfin	all massflow/mesh mesh feed vec_side 0 0 -1

variable 	time equal step*dt

variable 	in_mass_flow equal	f_mfin[3]

variable 	out_mass_flow equal	f_mfout[3]

fix mass_flow_rate all print 5000 "${time},${in_mass_flow},${out_mass_flow}" screen no title "t,in_mass_flow,out_mass_flow" file massflow.csv


###################################Dumping of the data for post-processing to visualize############################

#fix ts_check all check/timestep/gran 1000 0.1 0.1

shell 	mkdir -p post

variable dumptime equal 0.2		#guarda cada 0.05 s

variable dumpstep equal ${dumptime}/${dt}
variable dumpstep equal 0.2/${dt}
variable dumpstep equal 0.2/1e-06

dump	dmpparticle all custom ${dumpstep} post/particles_*.liggghts id type x y z vx vy vz fx fy fz radius mass
dump	dmpparticle all custom 200000 post/particles_*.liggghts id type x y z vx vy vz fx fy fz radius mass

dump_modify	dmpparticle sort id

dump	dmpscrew	all	mesh/stl ${dumpstep} post/screw_*.stl screw
dump	dmpscrew	all	mesh/stl 200000 post/screw_*.stl screw


####################################RUN the simulation filling and discharge###########################################################

run	${fillsteps}
run	2000000
Setting up run at Sat May 30 11:43:40 2026

WARNING: Fix mesh: Mesh contains highly skewed element, moving mesh (if used) will not parallelize well (../surface_mesh_I.h:657)
WARNING: Fix mesh: Mesh contains highly skewed element, moving mesh (if used) will not parallelize well (../surface_mesh_I.h:657)
INFO: Particle insertion ins: 75.030187 particles every 500000 steps - particle rate 150.060375, (mass rate 2.200000e-05)
      300 particles (mass 4.398230e-05) within 1500000 steps
Memory usage per processor = 14.7696 Mbytes
    Step    Atoms         KinEng            CPU 
       0        0              0              0 
INFO: Particle insertion ins: inserted 75 particle templates (mass 1.099557e-05) at step 1
 - a total of 75 particle templates (mass 1.099557e-05) inserted so far.
    1000       75  4.9480084e-09      2.8166616 
    2000       75  4.9480084e-09      5.0448322 
    3000       75  4.9480084e-09      7.1673712 
    4000       75  4.9480084e-09      8.8936986 
    5000       75  4.9480084e-09      11.295208 
    6000       75  4.9480084e-09      14.077637 
    7000       75  4.9480084e-09      16.943476 
    8000       75  4.9480084e-09      19.808099 
    9000       75  4.9480084e-09      22.734781 
   10000       75  4.9480084e-09      25.789219 
   11000       75  4.9480084e-09      28.725607 
   12000       75  4.9480084e-09      31.501557 
   13000       75  4.9480084e-09      34.352659 
   14000       75  4.9480084e-09      37.013193 
   15000       75  4.9480084e-09      39.921768 
   16000       75  4.9480084e-09      42.642559 
   17000       75  4.9480084e-09      45.468455 
   18000       75  4.9604308e-09       48.34064 
   19000       75  5.0145189e-09      51.044005 
   20000       75   5.082716e-09      53.936174 
   21000       75   5.165022e-09      56.490572 
   22000       75   5.261437e-09      59.032091 
   23000       75  5.3719609e-09      61.568387 
   24000       75  5.4965937e-09      64.095625 
   25000       75  5.6353356e-09      66.652036 
   26000       75  5.7881863e-09       69.19438 
   27000       75   5.955146e-09      71.733558 
   28000       75  6.1362147e-09      74.274942 
   29000       75  6.3313923e-09      76.842096 
   30000       75  6.5406789e-09      79.412598 
   31000       75  6.7640744e-09      82.057578 
   32000       75  7.0015789e-09      84.692229 
   33000       75  7.2996171e-09      87.360074 
   34000       75  5.2096821e-09      89.965325 
   35000       75  5.2302774e-09      92.569794 
   36000       75  5.2790906e-09      95.150202 
   37000       75  5.3561216e-09      97.725867 
   38000       75  5.5050528e-09      100.30921 
   39000       75  5.7012001e-09      103.12131 
   40000       75  5.9396743e-09      105.92602 
   41000       75  6.2225407e-09      108.87333 
   42000       75  6.5965399e-09      111.61499 
   43000       75  7.0269749e-09      114.42875 
   44000       75  7.5138456e-09      117.45734 
   45000       75  7.7864527e-09        120.163 
   46000       75  8.2608323e-09      123.05618 
   47000       75  8.8158326e-09      125.99548 
   48000       75  9.4272687e-09      128.64683 
   49000       75   7.414528e-09      131.34746 
   50000       75  7.7375487e-09      133.94199 
   51000       75  8.1069479e-09      136.91479 
   52000       75   8.518876e-09      139.93719 
   53000       75  8.9735006e-09      143.15215 
   54000       75  6.8087288e-09      146.20585 
   55000       75  7.0763248e-09      149.37773 
   56000       75  7.4502284e-09      152.40446 
   57000       75  7.8950208e-09      154.87943 
   58000       75  8.4107264e-09      157.29526 
   59000       75  8.9973829e-09      159.71776 
   60000       75  9.6550422e-09      162.11311 
   61000       75  1.0039841e-08      163.68317 
   62000       75  1.0717352e-08      165.28733 
   63000       75  1.1291775e-08      166.76399 
   64000       75  1.2131171e-08       168.3726 
   65000       75  8.2492309e-09       169.9456 
   66000       75  8.7050199e-09      172.26459 
   67000       75  9.3198855e-09      175.11725 
   68000       75  1.0009501e-08      177.45942 
   69000       75  1.0794518e-08       179.2589 
   70000       75  1.1745675e-08      180.93738 
   71000       75  7.8757454e-09      182.48515 
   72000       75  8.3855643e-09      184.22678 
   73000       75  9.0125178e-09      185.93207 
   74000       75  9.7568752e-09      187.69889 
   75000       75   9.405636e-09      189.45761 
   76000       75  1.0176631e-08       191.5766 
   77000       75  1.1060497e-08      194.68051 
   78000       75  1.2057236e-08      197.74995 
   79000       75  1.3166845e-08      200.75197 
   80000       75  1.4389327e-08      203.90008 
   81000       75   1.572468e-08      206.73517 
   82000       75  1.3139676e-08      209.56097 
   83000       75  1.0590503e-08      212.50364 
   84000       75  1.1324351e-08       215.3399 
   85000       75  1.2076834e-08      218.10164 
   86000       75  9.1375896e-09       220.7488 
   87000       75  9.6345906e-09      223.31771 
   88000       75  1.0061273e-08      225.89362 
   89000       75  8.0351522e-09      228.45498 
   90000       75  8.1050879e-09      230.91463 
   91000       75  8.5764256e-09      233.23417 
   92000       75  6.3709236e-09      236.25838 
   93000       75  6.6802701e-09      239.26522 
   94000       75  7.0558869e-09      242.21423 
   95000       75  7.4612634e-09      245.25858 
   96000       75  6.6296726e-09      248.26289 
   97000       75  6.9391146e-09      250.02472 
   98000       75   7.117354e-09      252.63357 
   99000       75  7.5261528e-09      255.35744 
  100000       75  7.9932422e-09      257.08274 
  101000       75  8.1581034e-09      258.63071 
  102000       75  8.5099972e-09      260.18338 
  103000       75   9.000467e-09      261.65378 
  104000       75  9.4877021e-09      263.17839 
  105000       75   6.800103e-09      264.72486 
  106000       75  7.0285381e-09      266.21874 
  107000       75  7.3408937e-09      267.69649 
  108000       75  7.7683916e-09      269.19042 
  109000       75  8.2645194e-09      270.74829 
  110000       75  8.8783201e-09      272.27724 
  111000       75  9.5648002e-09      273.75902 
  112000       75  1.0323899e-08      275.27405 
  113000       75  1.0833705e-08      276.79365 
  114000       75  1.1611096e-08      278.33284 
  115000       75  1.2507168e-08      279.84256 
  116000       75  1.3480047e-08      281.34463 
  117000       75  1.4596044e-08      282.88473 
  118000       75  1.5808589e-08      284.45781 
  119000       75  1.7108478e-08      286.04586 
  120000       75  1.5316139e-08      287.54255 
  121000       75  1.4908225e-08      289.07718 
  122000       75  9.6943446e-09      290.68833 
  123000       75  7.8162821e-09      293.53695 
  124000       75  8.2665701e-09      296.21443 
  125000       75  8.8860057e-09      298.96337 
  126000       75  9.6292151e-09      301.85661 
  127000       75  1.0495698e-08      304.76082 
  128000       75  1.1248062e-08      307.60589 
  129000       75  1.2171621e-08       310.2017 
  130000       75  1.2874758e-08      312.69619 
  131000       75  9.7300298e-09      315.38016 
  132000       75  1.0170904e-08      318.26174 
  133000       75  1.0803957e-08      321.13183 
  134000       75  1.1262295e-08      323.83961 
  135000       75  9.1699883e-09      325.89722 
  136000       75  9.8201593e-09      328.48137 
  137000       75  7.8797975e-09      331.48215 
  138000       75   8.424513e-09      334.42269 
  139000       75  9.1280811e-09      337.06299 
  140000       75  9.9580742e-09      340.18462 
  141000       75  1.0943104e-08      342.95406 
  142000       75  1.1338335e-08      345.57166 
  143000       75  1.2362075e-08      348.34981 
  144000       75  1.3510386e-08      351.07608 
  145000       75  1.4798759e-08      353.90492 
  146000       75  1.6004497e-08      355.86703 
  147000       75  1.7097828e-08      357.65776 
  148000       75    1.87343e-08      359.88952 
  149000       75  1.5373383e-08      361.99972 
  150000       75  1.6707952e-08      364.19486 
  151000       75  1.8123565e-08      365.95856 
  152000       75  1.6477217e-08      367.85628 
  153000       75  1.4990911e-08      370.60032 
  154000       75  1.6083864e-08      373.28445 
  155000       75   1.733342e-08       375.9124 
  156000       75  1.7637761e-08      378.75223 
  157000       75  1.2446311e-08      381.51116 
  158000       75  1.3607555e-08       384.2087 
  159000       75  1.4940312e-08      387.08174 
  160000       75  1.5414138e-08      389.67703 
  161000       75  1.6875585e-08       392.4863 
  162000       75  1.8479476e-08      395.19676 
  163000       75  1.7837057e-08       398.2313 
  164000       75   1.490807e-08      401.19191 
  165000       75  1.6099795e-08       404.0793 
  166000       75  1.6016866e-08      407.03255 
  167000       75  1.7078904e-08      409.96093 
  168000       75  1.8373816e-08      412.74325 
  169000       75   1.348341e-08      415.54042 
  170000       75   1.413521e-08       418.3959 
  171000       75  1.5081803e-08      421.23387 
  172000       75  1.3887361e-08      424.22011 
  173000       75  1.4092166e-08      426.98594 
  174000       75  1.4820553e-08      429.90779 
  175000       75  1.0293128e-08      432.81936 
  176000       75  1.0504288e-08      436.11225 
  177000       75   1.086354e-08      439.25458 
  178000       75  8.5540248e-09      442.30579 
  179000       75  8.1362173e-09      445.27296 
  180000       75  8.4984243e-09      448.66911 
  181000       75  8.9622423e-09      451.86093 
  182000       75  9.5153958e-09      455.06656 
  183000       75  9.5093299e-09      458.41952 
  184000       75  1.0120023e-08      461.74369 
  185000       75  1.0172271e-08      464.97156 
  186000       75  1.0005802e-08       468.0663 
  187000       75  1.0694866e-08      471.29006 
  188000       75  8.6352827e-09      474.28725 
  189000       75  8.9631504e-09      477.59837 
  190000       75  9.2138107e-09      480.58512 
  191000       75  9.5978407e-09      483.98085 
  192000       75  5.4529966e-09      486.87086 
  193000       75  5.5312188e-09      490.04655 
  194000       75  5.6818049e-09      493.32588 
  195000       75  5.8817066e-09      496.76031 
  196000       75  6.1569601e-09      500.40218 
  197000       75  6.5187603e-09      503.87996 
  198000       75  7.0471418e-09      506.52482 
  199000       75  7.4080131e-09      509.66432 
  200000       75  8.0144282e-09      516.90777 
  201000       75  8.7049993e-09      519.72328 
  202000       75   9.086841e-09      522.91036 
  203000       75   9.867467e-09      526.16875 
  204000       75  9.2586363e-09      529.28834 
  205000       75  9.9827653e-09      532.40683 
  206000       75  1.0765743e-08      535.38275 
  207000       75  1.1687302e-08      538.08098 
  208000       75  1.2707257e-08      540.97178 
  209000       75  1.1257957e-08      544.05253 
  210000       75  1.1885845e-08       546.7284 
  211000       75  1.2611528e-08      549.72971 
  212000       75  1.3646032e-08      552.55698 
  213000       75  1.4769251e-08      555.54346 
  214000       75  1.3139558e-08      558.45941 
  215000       75  1.2103267e-08        561.353 
  216000       75  1.2101596e-08      564.42793 
  217000       75  1.3275375e-08       567.3226 
  218000       75  1.0790135e-08      570.36412 
  219000       75   9.966858e-09      573.28829 
  220000       75  1.0420585e-08      576.29366 
  221000       75  1.0383807e-08      579.48233 
  222000       75   1.086874e-08      581.59116 
  223000       75  7.9560605e-09      583.37567 
  224000       75  8.2058788e-09       585.1604 
  225000       75  6.0043435e-09      587.09672 
  226000       75  6.1199351e-09      589.17546 
  227000       75    6.33263e-09      591.40462 
  228000       75   6.291797e-09      594.34467 
  229000       75  5.5911632e-09      597.61443 
  230000       75  6.0927174e-09      600.92233 
  231000       75  6.6640546e-09      604.11832 
  232000       75  7.2819571e-09      607.27888 
  233000       75  7.9612849e-09      610.54915 
  234000       75   8.773605e-09      613.86082 
  235000       75  9.6627408e-09      617.11628 
  236000       75  9.1006081e-09      620.22167 
  237000       75  9.2777774e-09      623.51423 
  238000       75  9.9599445e-09      626.50199 
  239000       75  5.1946756e-09      629.32803 
  240000       75  5.4445955e-09      632.37306 
  241000       75   5.801081e-09      635.41105 
  242000       75   6.122567e-09      638.33034 
  243000       75  6.6338764e-09      641.03207 
  244000       75  7.2822576e-09      643.92614 
  245000       75  7.8768963e-09      646.79917 
  246000       75  8.6404596e-09      649.77425 
  247000       75  8.2107566e-09       653.1685 
  248000       75  7.6292882e-09      656.43166 
  249000       75   8.217588e-09        659.532 
  250000       75  8.8924725e-09      662.86464 
  251000       75  8.3065268e-09      665.85009 
  252000       75  6.8593884e-09      668.85765 
  253000       75  7.2316287e-09      672.08379 
  254000       75  6.7325101e-09      675.39699 
  255000       75  7.2065304e-09      678.69052 
  256000       75  7.2674234e-09      682.14507 
  257000       75  7.8493894e-09      685.52965 
  258000       75  8.2125697e-09      688.70675 
  259000       75  8.8438006e-09      691.74273 
  260000       75  9.3301523e-09       694.7089 
  261000       75  5.6108155e-09      697.88098 
  262000       75  4.8676787e-09      700.99276 
  263000       75  5.1547425e-09      704.10428 
  264000       75  5.4190156e-09      707.22032 
  265000       75  5.7052438e-09      710.53651 
  266000       75  6.1009576e-09      714.04352 
  267000       75  6.3628843e-09      717.65936 
  268000       75  8.1435062e-09      721.13455 
  269000       75  8.3864534e-09       724.2917 
  270000       75  8.9954224e-09      727.22253 
  271000       75  8.8483412e-09      730.34947 
  272000       75  9.5161007e-09      733.68758 
  273000       75  9.1532919e-09      736.63657 
  274000       75  9.4902285e-09      738.96841 
  275000       75  1.0152504e-08      741.78808 
  276000       75   1.093403e-08      744.88432 
  277000       75  9.7031425e-09      748.40707 
  278000       75  1.0214154e-08      751.82029 
  279000       75  1.1003547e-08      755.11853 
  280000       75  1.2025474e-08      758.42807 
  281000       75  1.1646369e-08      761.52956 
  282000       75  1.2356981e-08      764.61463 
  283000       75  1.3168467e-08      767.56193 
  284000       75  1.3488774e-08      770.92548 
  285000       75   1.463742e-08      774.14725 
  286000       75  1.3067719e-08      777.40067 
  287000       75  1.1302118e-08      780.80814 
  288000       75  9.7841878e-09      784.16286 
  289000       75  1.0172217e-08      787.77683 
  290000       75   1.092371e-08      791.84332 
  291000       75  1.1689958e-08      795.53249 
  292000       75  8.4099449e-09      799.39136 
  293000       75  8.8616095e-09      803.31794 
  294000       75  9.7692324e-09      807.12777 
  295000       75  1.0591487e-08      811.04737 
  296000       75  1.1667038e-08      815.10078 
  297000       75  1.2888855e-08      818.50359 
  298000       75  1.4062464e-08        822.141 
  299000       75  1.2847355e-08      825.79106 
  300000       75  1.3445204e-08      829.62072 
  301000       75  1.0305604e-08      833.32784 
  302000       75   1.050106e-08       837.1188 
  303000       75  1.1066774e-08      840.91993 
  304000       75  1.2024564e-08      844.60492 
  305000       75  3.5289972e-08      848.70118 
  306000       75  3.5406087e-08      852.27985 
  307000       75  3.0115492e-08      856.06556 
  308000       75  2.9865787e-08      859.53607 
  309000       75  2.9663852e-08      862.76323 
  310000       75  2.9260858e-08      865.84796 
  311000       75   1.581349e-08      869.30998 
  312000       75  1.5778496e-08      872.87268 
  313000       75  1.5892935e-08      876.42215 
  314000       75  1.5994497e-08      880.20678 
  315000       75  1.6234214e-08       883.8099 
  316000       75  1.6496381e-08      887.14108 
  317000       75  1.6874068e-08      890.64654 
  318000       75  1.7379389e-08       894.5477 
  319000       75  1.2424309e-08       898.2744 
  320000       75  1.2721816e-08      901.87587 
  321000       75  1.2660413e-08      905.60443 
  322000       75  1.2953976e-08      909.21548 
  323000       75  9.2142886e-09      912.63509 
  324000       75  9.3117827e-09      916.25488 
  325000       75  8.7294752e-09      919.86905 
  326000       75  8.4093304e-09      923.42651 
  327000       75  7.8927876e-09      926.70409 
  328000       75  7.9163786e-09      929.79789 
  329000       75  8.2134288e-09      933.09465 
  330000       75  7.6936842e-09      936.12142 
  331000       75  8.2177251e-09       939.5924 
  332000       75  8.7731165e-09      943.41989 
  333000       75  8.6822048e-09       946.8745 
  334000       75  1.0078771e-08      950.35086 
  335000       75  6.6406161e-09      953.65511 
  336000       75  9.6498247e-09      957.37153 
  337000       75   9.867262e-09      961.07165 
  338000       75  9.5409994e-09      964.63473 
  339000       75  9.8066654e-09       968.2701 
  340000       75  1.0622044e-08      971.71649 
  341000       75   9.302195e-09       975.5116 
  342000       75  9.3209963e-09      979.31406 
  343000       75  1.0059544e-08       982.6796 
  344000       75  1.7607955e-08      985.93703 
  345000       75  1.5649277e-08      989.31718 
  346000       75   7.515205e-09      992.86422 
  347000       75  7.8136047e-09      995.96774 
  348000       75  8.3960192e-09      999.05719 
  349000       75  9.2496721e-09      1002.3406 
  350000       75  5.9815978e-09      1005.5237 
  351000       75  6.6219874e-09      1008.3005 
  352000       75  6.4603286e-09       1011.248 
  353000       75  6.2019189e-09      1014.9656 
  354000       75  6.6338063e-09      1018.4631 
  355000       75  6.3182177e-09      1022.0046 
  356000       75  6.8482903e-09      1024.1718 
  357000       75  7.2426717e-09      1026.2026 
  358000       75  7.6248466e-09       1028.561 
  359000       75  8.2688929e-09      1030.9781 
  360000       75  9.1609788e-09      1032.7781 
  361000       75  7.7683818e-09      1034.7971 
  362000       75  8.4926854e-09      1038.2416 
  363000       75  9.2744359e-09      1040.5913 
  364000       75  1.0152219e-08       1042.516 
  365000       75    1.04452e-08      1045.2945 
  366000       75  1.1138821e-08      1048.0573 
  367000       75    1.23534e-08      1050.8883 
  368000       75  1.4499982e-08      1053.7473 
  369000       75  1.4184744e-08      1056.8478 
  370000       75  1.2008055e-08      1059.8499 
  371000       75  1.2906933e-08      1063.1904 
  372000       75  1.4085743e-08      1066.7853 
  373000       75  1.3255493e-08      1070.5961 
  374000       75  1.2888576e-08      1073.4534 
  375000       75  1.2897576e-08      1076.3679 
  376000       75  1.0793833e-08      1079.7263 
  377000       75   7.661123e-09      1083.3951 
  378000       75  8.3833293e-09       1086.637 
  379000       75   8.564801e-09      1090.7505 
  380000       75  9.1900047e-09      1094.8106 
  381000       75  1.0095638e-08       1098.616 
  382000       75  9.4561895e-09      1102.6204 
  383000       75  9.8567497e-09      1106.7084 
  384000       75   1.067638e-08      1110.8359 
  385000       75  1.0357168e-08        1114.39 
  386000       75  1.0562685e-08      1117.6726 
  387000       75  1.1287503e-08      1121.0911 
  388000       75  1.2118082e-08      1124.4842 
  389000       75  1.2771666e-08      1127.9176 
  390000       75   1.375378e-08        1131.53 
  391000       75  1.4759945e-08      1134.8851 
  392000       75   1.189668e-08       1138.396 
  393000       75  1.2925458e-08      1141.8247 
  394000       75  1.1397961e-08      1145.1519 
  395000       75  1.2270744e-08      1147.9522 
  396000       75  1.3133161e-08      1150.7991 
  397000       75  1.4385033e-08      1153.7041 
  398000       75   1.434324e-08      1156.5464 
  399000       75  1.2161133e-08      1159.3449 
  400000       75  1.4758121e-07      1166.1735 
  401000       75  4.0581622e-08      1169.5206 
  402000       75  2.5023046e-08      1173.0433 
  403000       75  2.4574324e-08      1176.5221 
  404000       75  2.4337398e-08      1179.9513 
  405000       75  1.9980573e-08      1182.7669 
  406000       75  1.2444008e-08      1185.5142 
  407000       75  1.0255507e-08      1189.1972 
  408000       75  9.5766157e-09       1192.274 
  409000       75   9.604241e-09      1195.3859 
  410000       75  9.9438995e-09      1198.1713 
  411000       75   1.017019e-08      1201.3327 
  412000       75  1.1185017e-08      1204.4286 
  413000       75  1.1252363e-08      1207.3333 
  414000       75  1.1732478e-08      1210.4316 
  415000       75  7.6324255e-09      1213.2886 
  416000       75  8.1356743e-09      1216.8115 
  417000       75  7.3992496e-09      1220.0151 
  418000       75  6.9181808e-09      1223.3423 
  419000       75  1.4578117e-08      1227.0474 
  420000       75  1.3905216e-08      1230.3948 
  421000       75  1.3716254e-08       1234.089 
  422000       75  9.1686053e-09      1238.1112 
  423000       75  9.4322253e-09      1242.0242 
  424000       75  1.0247406e-08      1245.7997 
  425000       75  1.1036386e-08      1249.8741 
  426000       75  2.3940676e-08       1253.622 
  427000       75  3.5252851e-08      1256.5271 
  428000       75  1.3338912e-08      1259.4097 
  429000       75   5.680857e-08      1262.1437 
  430000       75  1.3191214e-08      1264.8009 
  431000       75  1.1960035e-08      1266.7479 
  432000       75  1.2925855e-08      1268.8403 
  433000       75  1.3820129e-08      1270.9266 
  434000       75  1.2737892e-08      1272.9581 
  435000       75  7.7934798e-09      1275.0848 
  436000       75  7.6141419e-09      1276.9676 
  437000       75  7.9094988e-09      1279.1748 
  438000       75   7.848672e-09       1281.678 
  439000       75  7.6552739e-09      1284.4529 
  440000       75  8.3263423e-09      1287.9831 
  441000       75  8.1549127e-09      1291.3091 
  442000       75  8.7392712e-09      1294.8071 
  443000       75   9.579765e-09      1298.2321 
  444000       75  8.5328395e-09       1301.551 
  445000       75  6.2074733e-09      1304.7996 
  446000       75  5.6746668e-09      1308.1402 
  447000       75  6.1991183e-09      1311.0719 
  448000       75   6.925955e-09      1315.2375 
  449000       75  7.2200339e-09      1319.0698 
  450000       75  7.9536301e-09      1322.7369 
  451000       75  8.5821593e-09      1325.1552 
  452000       75  8.6472988e-09      1327.8699 
  453000       75  7.0497449e-09      1330.6249 
  454000       75  7.9297099e-09      1333.3384 
  455000       75  8.1803577e-09      1336.0591 
  456000       75  8.6347462e-09      1338.9763 
  457000       75  6.2715459e-09      1342.1879 
  458000       75   6.858388e-09      1345.1344 
  459000       75   7.292589e-09       1348.317 
  460000       75  8.0653219e-09      1351.3149 
  461000       75   8.925343e-09      1354.3713 
  462000       75  9.0551612e-09       1357.505 
  463000       75  8.2435487e-09      1360.4998 
  464000       75  5.8365343e-09      1363.9807 
  465000       75  5.9521198e-09      1368.0819 
  466000       75  6.5360794e-09      1372.2712 
  467000       75  7.2445831e-09      1376.2361 
  468000       75  7.8241339e-09      1379.4239 
  469000       75   2.036205e-08      1382.9931 
  470000       75  2.0282227e-08      1386.6584 
  471000       75  3.6005896e-08      1389.9003 
  472000       75  3.4842574e-08       1393.391 
  473000       75  2.0810763e-08      1397.0095 
  474000       75  1.9976846e-08      1400.6017 
  475000       75  1.8822749e-08      1404.1522 
  476000       75  1.8755896e-08      1407.2293 
  477000       75  1.7158885e-08      1410.4503 
  478000       75  1.7198122e-08      1413.3504 
  479000       75  1.5090768e-08      1416.0332 
  480000       75  1.5156223e-08      1418.6799 
  481000       75  1.5472049e-08      1421.6117 
  482000       75  1.5457016e-08      1424.7537 
  483000       75  1.4662916e-07      1427.6461 
  484000       75  1.4590618e-07      1431.7583 
  485000       75  1.4493602e-07      1435.5027 
  486000       75  2.5011881e-08       1439.022 
  487000       75   2.452835e-08      1442.5469 
  488000       75  2.4509704e-08      1446.4405 
  489000       75  2.3701754e-08      1449.4092 
  490000       75   2.351589e-08      1452.4573 
  491000       75   2.233527e-08      1456.2195 
  492000       75  2.3670141e-08      1459.6525 
  493000       75  2.0727334e-08      1463.5277 
  494000       75  1.9187523e-08      1467.3797 
  495000       75  1.9119486e-08      1471.2539 
  496000       75  1.7075939e-08      1474.5265 
  497000       75  1.7022721e-08      1477.8046 
  498000       75  1.7215097e-08      1481.0144 
  499000       75  1.7350596e-08      1484.3496 
  500000       75   1.778037e-08      1488.0232 
INFO: Particle insertion ins: inserted 75 particle templates (mass 1.099557e-05) at step 500001
 - a total of 150 particle templates (mass 2.199115e-05) inserted so far.
  501000      150  2.3163397e-08      1492.1042 
  502000      150  1.9582844e-08      1496.0572 
  503000      150  1.9898396e-08      1499.9446 
  504000      150   2.043691e-08      1503.3144 
  505000      150  1.9825032e-08      1506.5586 
  506000      150  2.0035793e-08      1509.7662 
  507000      150  2.0005897e-08      1512.6993 
  508000      150  2.0233718e-08      1515.5208 
  509000      150  2.0920369e-08      1518.2933 
  510000      150  2.2619241e-08      1522.1153 
  511000      150    1.80132e-08      1526.0642 
  512000      150  1.4220023e-08       1529.749 
  513000      150   2.126123e-08      1533.5759 
  514000      150  1.8355647e-08      1537.4107 
  515000      150   1.545964e-08      1540.2412 
  516000      150  1.2705015e-08      1543.6378 
  517000      150  1.2378603e-08      1546.4731 
  518000      150  1.2325771e-08      1550.0462 
  519000      150   1.303307e-08      1553.9874 
  520000      150  1.3765566e-08      1558.1825 
  521000      150  1.3584984e-08      1562.3657 
  522000      150    1.40665e-08      1567.7064 
  523000      150  1.4490649e-08      1572.1228 
  524000      150  1.5613816e-08      1576.4776 
  525000      150  1.5514675e-08      1580.2096 
  526000      150   1.154501e-08      1584.3531 
  527000      150   1.072251e-08      1589.1594 
  528000      150  1.1439447e-08      1593.3969 
  529000      150  1.1825683e-08      1597.6365 
  530000      150  1.2084314e-08      1601.7044 
  531000      150  1.1916637e-08      1606.2232 
  532000      150  1.2811696e-08      1610.5555 
  533000      150  1.3533809e-08      1615.3329 
  534000      150   1.420704e-08       1619.827 
  535000      150   1.544936e-08       1623.958 
  536000      150  1.2789653e-08      1628.0314 
  537000      150  1.3080562e-08      1631.8252 
  538000      150   1.388893e-08      1636.2594 
  539000      150  1.4877682e-08      1641.0015 
  540000      150  1.5815553e-08      1645.8061 
  541000      150  1.7057274e-08      1649.5983 
  542000      150  1.3405492e-08      1654.2115 
  543000      150  1.4005591e-08      1658.3557 
  544000      150  1.4860382e-08      1662.7028 
  545000      150   1.567593e-08      1666.5684 
  546000      150  1.6855226e-08      1671.3847 
  547000      150  1.8123147e-08      1676.0982 
  548000      150  1.8038383e-08       1681.077 
  549000      150  1.9270902e-08      1685.8961 
  550000      150  2.0739652e-08      1690.5629 
  551000      150  2.0881022e-08      1695.3504 
  552000      150  1.8836726e-08      1699.4089 
  553000      150    1.61548e-08      1703.6427 
  554000      150  1.6666636e-08      1708.1022 
  555000      150  1.7150495e-08      1712.8702 
  556000      150  1.7261198e-08      1717.7418 
  557000      150  1.6100596e-08      1722.4334 
  558000      150  1.2633646e-08      1727.4301 
  559000      150  1.3392565e-08      1732.5275 
  560000      150  1.3478748e-08      1736.6296 
  561000      150  1.4577563e-08       1741.486 
  562000      150  1.5329897e-08      1746.1817 
  563000      150  1.5995576e-08      1750.6481 
  564000      150  1.7418078e-08      1754.6345 
  565000      150  1.8984274e-08      1757.9251 
  566000      150  2.1040066e-08      1762.2517 
  567000      150  2.0308613e-08      1766.0091 
  568000      150   1.993446e-08      1769.8826 
  569000      150  3.0091307e-08      1774.3008 
  570000      150   2.710658e-08      1778.5607 
  571000      150   2.744473e-08      1782.5278 
  572000      150  2.5206263e-08       1787.263 
  573000      150  2.5726232e-08      1791.7351 
  574000      150  2.2476164e-08      1795.9794 
  575000      150  2.3176045e-08      1799.4973 
  576000      150  2.4019408e-08      1803.7933 
  577000      150  2.4678036e-08      1808.4111 
  578000      150  2.2180714e-08      1812.4966 
  579000      150  1.7642365e-08        1817.81 
  580000      150  1.5500871e-08       1822.336 
  581000      150  1.5775971e-08      1827.1389 
  582000      150  1.6267881e-08      1831.6899 
  583000      150  1.7084917e-08       1835.952 
  584000      150  1.6782093e-08      1840.4182 
  585000      150  1.9985312e-08      1844.8451 
  586000      150  2.4423507e-07      1849.0058 
  587000      150  2.2268592e-08      1853.7498 
  588000      150  1.8920833e-08      1858.6924 
  589000      150  1.2991988e-08      1863.3019 
  590000      150  1.2061254e-08      1867.6883 
  591000      150  1.1567063e-08      1872.6973 
  592000      150  2.3679833e-08      1877.4802 
  593000      150  1.1836183e-08        1882.08 
  594000      150  1.1551671e-08       1886.123 
  595000      150  9.8980696e-08       1891.586 
  596000      150  6.4301835e-08      1896.1532 
  597000      150  9.6059738e-09      1899.2815 
  598000      150  1.0084895e-08      1904.3519 
  599000      150  1.0124406e-08      1908.9266 
  600000      150  1.0191334e-08      1917.9348 
  601000      150  9.7600738e-09      1923.1932 
  602000      150  1.0322564e-08       1928.108 
  603000      150   9.095542e-09      1932.5692 
  604000      150  9.1814753e-09      1936.2762 
  605000      150  8.9290862e-09      1940.5752 
  606000      150  9.4125804e-09      1945.5826 
  607000      150  1.0235747e-08      1950.5808 
  608000      150  1.0946395e-08      1955.2422 
  609000      150  1.1357882e-08      1959.8125 
  610000      150  1.1977826e-08        1964.52 
  611000      150  7.1009469e-08      1969.3813 
  612000      150  1.3906867e-08      1974.3221 
  613000      150  1.4367558e-08      1978.1993 
  614000      150  1.3139858e-08      1983.7155 
  615000      150  1.3737187e-08      1989.0651 
  616000      150  1.4538023e-08      1994.5371 
  617000      150  1.5535011e-08      1999.2175 
  618000      150  1.5909601e-08      2003.4795 
  619000      150  1.7187253e-08      2007.9505 
  620000      150  1.4998782e-08       2012.319 
  621000      150  1.5981945e-08      2016.7394 
  622000      150  1.7288906e-08      2020.6476 
  623000      150  1.7372784e-07      2025.2385 
  624000      150  2.8082059e-08      2029.5286 
  625000      150  2.4340116e-08      2034.0972 
  626000      150  1.9605792e-08      2038.9922 
  627000      150  2.1065701e-08       2044.076 
  628000      150  1.0299407e-08      2048.5076 
  629000      150  1.0557226e-08      2053.4379 
  630000      150  1.0728677e-08      2058.1923 
  631000      150  1.7036074e-08      2062.6936 
  632000      150  1.5023905e-08      2067.1471 
  633000      150  1.1570334e-08      2071.5122 
  634000      150  1.1504549e-08      2076.1283 
  635000      150  1.1712944e-08      2080.1317 
  636000      150  1.2958478e-08      2084.5179 
  637000      150  1.2966949e-08      2089.2955 
  638000      150  1.2131643e-08      2093.9049 
  639000      150  1.3045343e-08      2099.0095 
  640000      150  1.7222806e-08       2103.427 
  641000      150  1.5001099e-08      2108.7002 
  642000      150  1.4283195e-08      2112.6804 
  643000      150  1.5020222e-08      2116.5586 
  644000      150  1.1788923e-07      2120.6813 
  645000      150  1.0447329e-08      2124.6208 
  646000      150  9.6579618e-09       2128.617 
  647000      150  9.1040984e-09      2132.6936 
  648000      150   9.510734e-09      2137.3924 
  649000      150  8.4942682e-09       2142.366 
  650000      150  8.6698565e-09      2146.7279 
  651000      150  8.5161337e-09      2151.3544 
  652000      150  8.8422012e-09      2156.7171 
  653000      150  8.3852994e-09      2162.3133 
  654000      150  2.9931798e-08      2167.0626 
  655000      150  2.1037444e-08      2171.5232 
  656000      150  1.8278579e-08      2176.3836 
  657000      150   1.713251e-08       2181.399 
  658000      150  1.5671447e-08      2186.3758 
  659000      150   1.412708e-08      2191.1781 
  660000      150  1.3390294e-08       2196.285 
  661000      150  1.1711632e-08      2200.7301 
  662000      150   1.243887e-08      2204.7226 
  663000      150  1.1818695e-08      2209.0811 
  664000      150  9.2553897e-09      2213.6005 
  665000      150  9.1766023e-09      2218.3093 
  666000      150  9.4996596e-09      2223.3705 
  667000      150  9.9324309e-09      2228.5643 
  668000      150  9.1282741e-09      2233.9289 
  669000      150  8.6837062e-09      2239.3127 
  670000      150  8.6753825e-09      2244.6091 
  671000      150   6.506499e-09       2249.013 
  672000      150  6.3889368e-09      2253.7928 
  673000      150  6.1404779e-09      2258.6574 
  674000      150  6.2384547e-09      2262.9711 
  675000      150  6.4053402e-09      2266.9476 
  676000      150  6.5980386e-09      2272.2847 
  677000      150  7.5954932e-09      2276.7411 
  678000      150  6.7211124e-09       2281.152 
  679000      150  7.1468195e-09       2285.919 
  680000      150  1.6911777e-08      2290.9302 
  681000      150  8.2894141e-09      2295.8572 
  682000      150  9.1317917e-09      2299.9132 
  683000      150  9.6916827e-09      2304.3023 
  684000      150  1.0742904e-08       2308.719 
  685000      150  1.0682676e-08      2313.6046 
  686000      150  1.1379484e-08      2317.9252 
  687000      150  1.2454545e-08      2322.8958 
  688000      150   1.350141e-08       2327.081 
  689000      150  1.5003395e-08      2331.7441 
  690000      150  1.6395579e-08      2336.6246 
  691000      150  1.4686634e-08      2340.4732 
  692000      150  1.5884344e-08       2344.631 
  693000      150  1.4588414e-08      2349.2893 
  694000      150  1.4918886e-08      2354.1007 
  695000      150  1.0558395e-08       2359.029 
  696000      150  1.1133362e-08      2363.6715 
  697000      150  1.1760728e-08      2367.9895 
  698000      150  3.4216502e-07      2372.8152 
  699000      150  3.3925908e-07      2378.1845 
  700000      150  1.2578337e-07       2382.526 
  701000      150  1.1952901e-07      2386.9408 
  702000      150   1.185683e-07      2391.6402 
  703000      150  1.1525123e-07      2395.9605 
  704000      150  1.1425077e-07      2400.2102 
  705000      150  1.1351332e-07        2404.65 
  706000      150  1.0973273e-07      2408.9386 
  707000      150  1.0889596e-07      2413.6201 
  708000      150  1.0747615e-07      2418.2666 
  709000      150  1.0653322e-07      2423.7961 
  710000      150  1.0235396e-07      2428.8513 
  711000      150  1.0088979e-07      2433.7646 
  712000      150  9.9669264e-08      2438.4669 
  713000      150  9.7984601e-08      2442.8378 
  714000      150  9.5944336e-08      2447.6148 
  715000      150  9.4373266e-08      2452.0343 
  716000      150  9.3233937e-08      2456.3865 
  717000      150  9.5956097e-08      2461.3669 
  718000      150  9.4525185e-08      2467.3794 
  719000      150  9.6288898e-08      2472.2403 
  720000      150  9.2116863e-08       2478.032 
  721000      150  8.7500222e-08      2482.5612 
  722000      150  8.4812215e-08      2486.8838 
  723000      150  8.3658648e-08      2492.1921 
  724000      150  8.2424139e-08       2497.015 
  725000      150   8.118854e-08      2501.8108 
  726000      150  8.0908983e-08       2506.918 
  727000      150  7.9651991e-08      2512.6145 
  728000      150    7.85202e-08      2517.2501 
  729000      150  7.7602042e-08       2522.183 
  730000      150  7.6283468e-08      2527.1472 
  731000      150  7.5278589e-08      2532.1031 
  732000      150  7.5168919e-08      2537.0414 
  733000      150  7.9978238e-08      2542.3955 
  734000      150   7.340392e-08      2547.2517 
  735000      150  7.9090143e-08      2552.2409 
  736000      150  7.1698294e-08      2557.3881 
  737000      150  7.2056684e-08      2562.2826 
  738000      150   1.032283e-07      2567.4204 
  739000      150  1.5676727e-07      2572.3742 
  740000      150  9.8493416e-08      2576.6786 
  741000      150  6.3399873e-08      2581.0651 
  742000      150  6.2391452e-08      2585.5406 
  743000      150   6.155089e-08      2590.1978 
  744000      150  6.0655762e-08      2594.9965 
  745000      150  5.9653397e-08      2599.3673 
  746000      150  9.3019576e-08      2605.2153 
  747000      150  9.1463497e-08      2609.9698 
  748000      150  8.9909101e-08      2615.3227 
  749000      150  8.7080739e-08      2619.5213 
  750000      150   8.380917e-08      2623.7393 
  751000      150  8.2365665e-08      2627.4688 
  752000      150  8.1134302e-08      2632.7985 
  753000      150  7.9860094e-08      2637.6154 
  754000      150  7.8765315e-08      2641.7806 
  755000      150  7.7916984e-08      2646.6725 
  756000      150  1.2399648e-07      2651.7554 
  757000      150  1.1417258e-07       2656.573 
  758000      149  6.0179575e-08      2661.7551 
  759000      149  5.9598816e-08      2666.2442 
  760000      149  5.8216742e-08      2670.0469 
  761000      149  5.6676608e-08      2674.8822 
  762000      149  5.1566981e-08      2679.6112 
  763000      149   5.049943e-08      2685.1434 
  764000      149  4.6205819e-08      2690.4426 
  765000      149  4.1626918e-08      2696.0186 
  766000      149   3.773684e-08       2700.634 
  767000      149  3.5766895e-08      2705.4377 
  768000      149  3.0551211e-08       2710.067 
  769000      149  3.0150297e-08      2714.2493 
  770000      149   2.963391e-08      2719.4515 
  771000      149  5.0609367e-08      2723.9981 
  772000      149  4.6052706e-08       2728.617 
  773000      149  4.3255399e-08      2733.3422 
  774000      149  4.0595353e-08      2737.7465 
  775000      149  3.8707408e-08      2743.5569 
  776000      149  3.4111666e-08       2747.916 
  777000      149  3.3994283e-08      2752.5968 
  778000      149  3.3489905e-08      2756.4753 
  779000      149  3.2117942e-08      2760.4464 
  780000      149  2.3806519e-08      2765.7015 
  781000      149  2.0775082e-08       2770.847 
  782000      149  2.0800662e-08       2775.488 
  783000      149  2.0495654e-08      2781.3207 
  784000      149  2.0325956e-08      2785.7637 
  785000      149  1.7478123e-08      2790.2155 
  786000      149  1.6786824e-08      2794.8454 
  787000      149   1.718347e-08      2799.2525 
  788000      149   1.780837e-08       2804.107 
  789000      149  1.8469263e-08      2808.3826 
  790000      149  1.6624989e-08      2813.0074 
  791000      149  1.6579962e-08      2817.9983 
  792000      149   1.773312e-08      2823.6376 
  793000      149  1.9223619e-08      2829.2046 
  794000      149  3.8012193e-08      2834.2308 
  795000      149  2.2556482e-08      2838.8846 
  796000      149  2.2068521e-08      2843.6927 
  797000      149  1.9536084e-08      2849.3692 
  798000      149  2.0858677e-08      2854.1115 
  799000      149  1.8306463e-08      2859.2504 
  800000      149  1.8877093e-08      2868.2389 
  801000      149  2.1838026e-08      2873.6939 
  802000      149  2.4564057e-08      2878.1602 
  803000      149  2.4398339e-08      2883.4451 
  804000      149  2.5081483e-08      2887.7463 
  805000      149  2.2731308e-08      2892.1717 
  806000      149  2.3619402e-08       2897.142 
  807000      149  2.2627461e-08      2901.7519 
  808000      149  2.1881329e-08      2906.8908 
  809000      149  2.0360827e-08      2911.9366 
  810000      149  2.1532584e-08      2916.5897 
  811000      149  1.8614128e-08      2920.6438 
  812000      149  1.1723845e-08      2925.9114 
  813000      149   1.097063e-08      2930.8412 
  814000      149    1.12958e-08      2936.0964 
  815000      149  6.1469619e-08      2941.1834 
  816000      149   1.208294e-08      2946.7713 
  817000      149  2.8040205e-08      2951.3656 
  818000      149  1.3345688e-08      2956.4505 
  819000      149  1.4640445e-08      2961.2006 
  820000      149  3.9849132e-08        2966.11 
  821000      149  1.9724544e-08      2970.8977 
  822000      149   1.623809e-07      2975.0721 
  823000      149  5.6192872e-08      2979.3492 
  824000      149  9.1306444e-08      2984.7578 
  825000      149  8.2964432e-08      2990.7606 
  826000      149  7.0433955e-08      2995.8234 
  827000      149  6.6354517e-08      3000.7009 
  828000      149  6.4735233e-08      3005.5708 
  829000      149  5.8775744e-08      3010.7418 
  830000      149  5.7939049e-08      3016.3553 
  831000      149  5.7332846e-08      3020.6952 
  832000      149  5.1314076e-08      3025.4834 
  833000      149  5.1241629e-08      3030.3489 
  834000      149  4.1477149e-08      3034.7917 
  835000      149  4.0370409e-08      3039.0878 
  836000      149  4.0556791e-08      3042.9913 
  837000      149  3.9144136e-08       3047.924 
  838000      149  4.7661384e-08       3052.564 
  839000      149  4.0230226e-08      3057.3012 
  840000      149   4.586231e-08      3062.0598 
  841000      149  4.2813277e-08      3067.4374 
  842000      149  4.2237397e-08      3071.6117 
  843000      149   3.855595e-08      3076.9598 
  844000      149  3.5027298e-08      3081.9668 
  845000      149  3.5912309e-08       3086.357 
  846000      149  3.1801319e-08      3090.5067 
  847000      149  2.9995887e-08      3095.1469 
  848000      149  2.9212121e-08       3100.319 
  849000      149  2.8802424e-08      3105.3387 
  850000      149  2.6011097e-08      3110.6547 
  851000      149  2.5678219e-08      3116.0996 
  852000      149   1.667907e-08      3121.2532 
  853000      149   1.533306e-08      3125.7998 
  854000      149  1.4759461e-08      3130.6661 
  855000      149  2.3745375e-07      3136.2724 
  856000      149   1.457975e-08      3140.9755 
  857000      149  2.4140911e-08      3145.7105 
  858000      149  2.1925787e-08      3150.9945 
  859000      149   1.664425e-08      3155.8754 
  860000      149  2.4024956e-08      3160.7972 
  861000      149  2.8293501e-08      3165.4803 
  862000      149   2.610844e-08      3169.3742 
  863000      149  2.0100792e-08      3174.5595 
  864000      149  1.4977077e-07      3179.7245 
  865000      149  2.7270689e-08      3184.2839 
  866000      149  1.9690341e-08      3189.4595 
  867000      149  1.9331773e-08      3195.2018 
  868000      149  1.9987371e-07       3200.415 
  869000      149  2.3831392e-08      3205.7785 
  870000      149  1.8555646e-08      3210.5125 
  871000      149  1.7184189e-08      3216.0006 
  872000      149  1.4795321e-08      3220.8338 
  873000      149  1.4398268e-08      3226.2228 
  874000      149  1.3544338e-08       3230.857 
  875000      149  2.0217431e-08      3235.4266 
  876000      149  1.6035973e-08      3239.6761 
  877000      149  1.6058515e-08       3244.344 
  878000      149  1.6408703e-08      3249.0719 
  879000      149   1.705955e-08      3254.4827 
  880000      149  3.3725313e-08      3259.4307 
  881000      149  3.1288452e-08      3264.2787 
  882000      149   3.009295e-08      3269.3846 
  883000      149  2.8276257e-08      3274.9539 
  884000      149  2.8060034e-08      3280.7598 
  885000      149  2.4462905e-08      3286.4111 
  886000      149  1.6452993e-08      3291.9078 
  887000      149  2.0908371e-08      3297.7743 
  888000      149  2.0150247e-08      3302.4451 
  889000      149   3.460529e-08      3306.9786 
  890000      149  2.6156743e-08      3312.3714 
  891000      149  1.7148585e-08      3316.9478 
  892000      149  1.7851205e-08      3322.7968 
  893000      149  3.7272179e-08      3327.6139 
  894000      149   2.446379e-08      3332.5629 
  895000      149  1.8781337e-08      3337.5551 
  896000      149  1.8770035e-08      3342.6394 
  897000      149  1.7343592e-08      3347.6243 
  898000      149  1.6286913e-08      3352.6646 
  899000      149  1.6424876e-08      3357.9911 
  900000      149  1.5006489e-08      3362.1014 
  901000      149  1.0240815e-08      3366.1634 
  902000      149  1.0707667e-08      3370.2439 
  903000      149  9.7095236e-09      3376.1403 
  904000      149  9.7052497e-09      3381.3398 
  905000      149  7.4161105e-09      3386.5991 
  906000      149   7.782791e-09      3392.3737 
  907000      149  9.5045643e-09      3397.1809 
  908000      149  1.1549429e-08      3401.9731 
  909000      149  1.0901779e-08      3406.7576 
  910000      149  1.0690681e-08      3412.7376 
  911000      149  8.2821631e-09      3417.6898 
  912000      149  8.7695806e-09      3422.3272 
  913000      149  8.7188832e-09      3426.7252 
  914000      149  7.8961406e-09      3431.9373 
  915000      149  9.0577939e-09      3436.9202 
  916000      149  4.2936752e-07      3443.1378 
  917000      149  6.0206367e-09      3448.2947 
  918000      149  6.0258878e-09      3452.7358 
  919000      149  6.7240307e-09       3457.018 
  920000      149  5.5882383e-09       3461.378 
  921000      149  5.6311221e-09      3466.5063 
  922000      149  4.1124797e-09      3471.2185 
  923000      149  4.4001577e-09      3476.0576 
  924000      149  4.5207115e-09       3481.275 
  925000      149  4.9297762e-09      3486.4751 
  926000      149  5.4166541e-09      3492.2551 
  927000      149  5.5908069e-09      3496.9352 
  928000      149   5.307592e-09       3501.697 
  929000      149  5.5676892e-09      3506.1687 
  930000      149  6.1084927e-09       3510.516 
  931000      149  6.7725147e-09      3514.7718 
  932000      149  7.3275301e-09      3519.4249 
  933000      149  7.9920472e-09      3524.6322 
  934000      149  7.9102513e-09      3530.4899 
  935000      149  2.2911077e-08      3536.3256 
  936000      149  2.0972439e-08      3540.8906 
  937000      149   2.019655e-08      3546.0218 
  938000      149  1.9799991e-08      3550.9166 
  939000      149  1.9103725e-08      3556.2275 
  940000      149  2.0137276e-08      3561.5135 
  941000      149  1.7373889e-08      3567.2514 
  942000      149  1.5298789e-08      3572.9916 
  943000      149  1.5399788e-08      3577.9474 
  944000      149  1.6031093e-08      3582.9179 
  945000      149   1.684418e-08      3587.9783 
  946000      149  4.4572692e-07      3593.0854 
  947000      149  4.9218031e-08       3597.973 
  948000      149  8.9697375e-08      3602.9967 
  949000      149  3.5619664e-08      3608.3613 
  950000      149  2.2991021e-08       3612.631 
  951000      149  2.1089751e-08      3617.4276 
  952000      149   1.996188e-08      3622.9946 
  953000      149  1.9237096e-08       3627.937 
  954000      149  3.2802201e-08      3632.9071 
  955000      149  1.9890031e-08       3638.164 
  956000      149  1.8814513e-08      3643.5653 
  957000      149  1.6978672e-08      3648.7799 
  958000      149  1.7540348e-08       3654.625 
  959000      149  3.0134239e-08      3659.8751 
  960000      149  2.4014674e-08      3665.1299 
  961000      149     2.2548e-08      3669.8685 
  962000      149  2.0395842e-08      3674.4345 
  963000      149   2.887675e-07      3679.6102 
  964000      149  1.1519092e-07      3683.6927 
  965000      149  1.1486102e-07      3688.1791 
  966000      149  8.0297467e-08      3692.6015 
  967000      149  7.7867796e-08      3697.1506 
  968000      149  7.7954979e-08      3702.2218 
  969000      149  7.8850247e-08      3706.7242 
  970000      149  8.0136596e-08      3712.4538 
  971000      149  8.0835252e-08      3717.4285 
  972000      149  5.6986672e-08      3722.4625 
  973000      149  2.1041559e-08      3726.8244 
  974000      149  2.1552469e-08      3731.2933 
  975000      149  2.2015034e-08      3735.2633 
  976000      149   1.944569e-08      3739.8594 
  977000      149  2.0409025e-08      3743.7768 
  978000      149  2.3844412e-08      3748.3035 
  979000      149  2.2709732e-08      3753.6112 
  980000      149   4.896923e-08      3758.1595 
  981000      149  2.0183626e-08      3762.5102 
  982000      149  2.0015302e-08      3767.1636 
  983000      149  1.8882232e-08      3772.3759 
  984000      149  1.8588574e-08      3777.9774 
  985000      149   1.902465e-08      3782.5923 
  986000      149  3.1053448e-08       3787.271 
  987000      149  2.6014763e-08      3791.9185 
  988000      149  3.0821212e-08      3796.9253 
  989000      149  2.6710494e-08      3800.9584 
  990000      149  2.6845188e-08       3805.716 
  991000      149   2.728273e-08      3809.8126 
  992000      149  2.8033358e-08      3814.0268 
  993000      149  2.8949643e-08      3818.2666 
  994000      149   2.974572e-08      3823.4579 
  995000      149  3.0871397e-08      3828.7295 
  996000      149  3.1019332e-08      3832.9161 
  997000      149  3.2011296e-08       3836.957 
  998000      149  3.9414649e-08      3841.8334 
  999000      149  3.7616572e-08      3847.1203 
 1000000      149  3.8090041e-08      3856.5611 
INFO: Particle insertion ins: inserted 75 particle templates (mass 1.099557e-05) at step 1000001
 - a total of 225 particle templates (mass 3.298672e-05) inserted so far.
 1001000      224  4.1850498e-08      3861.7386 
 1002000      224  4.1035352e-08      3867.2678 
 1003000      224  2.0968708e-08      3871.7782 
 1004000      224   2.125053e-08      3875.9007 
 1005000      224  1.7309268e-08      3880.4791 
 1006000      224  1.3782378e-08      3885.9461 
 1007000      224  1.4420993e-08       3891.672 
 1008000      224  1.4777882e-08      3897.6092 
 1009000      224  1.5475683e-08      3903.0768 
 1010000      224  1.6637092e-08      3907.3624 
 1011000      224  1.7692898e-08      3911.5987 
 1012000      224  1.5861475e-08      3917.0986 
 1013000      224  1.8053177e-08      3922.3455 
 1014000      224   1.988678e-08       3928.198 
 1015000      224  1.6414631e-08      3933.5065 
 1016000      224  1.5722141e-08      3938.0509 
 1017000      224  1.6008805e-08      3942.6484 
 1018000      224  1.5845746e-08      3947.3398 
 1019000      224  1.3260595e-08       3951.736 
 1020000      224  1.2490965e-08       3957.414 
 1021000      224  1.3057736e-08       3962.309 
 1022000      224  1.3894491e-08      3967.3674 
 1023000      224  1.4232243e-08      3971.7734 
 1024000      224  1.4572602e-08      3976.9326 
 1025000      224  1.5106617e-08      3981.4592 
 1026000      224  4.2209954e-08      3986.2095 
 1027000      224  2.3140246e-08      3991.0079 
 1028000      224  2.2586643e-08      3995.4572 
 1029000      224  2.2245312e-08      4000.7393 
 1030000      224  2.2829721e-08      4004.8859 
 1031000      224  2.3952142e-08      4009.2982 
 1032000      224  2.4115572e-08      4013.8993 
 1033000      224  2.1556812e-08      4018.4937 
 1034000      224  2.0126351e-08      4023.4713 
 1035000      224  1.9557123e-08      4028.4781 
 1036000      224  1.9662846e-08      4033.2913 
 1037000      224  1.3239931e-07      4038.1762 
 1038000      224  4.0140212e-08      4042.5583 
 1039000      224  3.0536339e-08      4047.6619 
 1040000      224  2.8678591e-08      4051.8259 
 1041000      224  2.3048696e-08      4056.0256 
 1042000      224  2.0902674e-08      4061.2108 
 1043000      224  1.9219652e-08      4067.2005 
 1044000      224  6.0086269e-08      4072.2509 
 1045000      224  1.9743268e-08      4077.6551 
 1046000      224  2.0617722e-08      4082.5009 
 1047000      224  2.0322874e-08      4088.0544 
 1048000      224  1.5735954e-08      4092.6545 
 1049000      224  2.2973259e-08      4097.1036 
 1050000      224  1.4709622e-08      4101.4555 
 1051000      224  1.2027128e-08      4105.6878 
 1052000      224  1.1753225e-08       4110.091 
 1053000      224  1.2403848e-08      4114.8557 
 1054000      224    1.56311e-08       4120.166 
 1055000      224  1.2035773e-08      4124.9885 
 1056000      224  1.2554175e-08      4130.8418 
 1057000      224  1.3018198e-08      4136.6111 
 1058000      224  1.3878661e-08      4142.2039 
 1059000      224  1.4303788e-08      4147.8445 
 1060000      224  1.5738637e-08      4153.5204 
 1061000      224  1.4336635e-08      4158.5839 
 1062000      224  1.3862936e-08      4163.8246 
 1063000      224  1.2432015e-08      4168.8697 
 1064000      224   7.833994e-08      4173.5523 
 1065000      224  1.1975935e-08      4179.0659 
 1066000      224  1.2932688e-08      4184.4428 
 1067000      224  1.1305399e-08      4190.4413 
 1068000      224  1.1506672e-08      4195.0188 
 1069000      224  1.2020435e-08      4199.0962 
 1070000      224  1.2506981e-08      4204.1869 
 1071000      224  1.2834387e-08      4209.5015 
 1072000      224  1.3352746e-08      4214.9599 
 1073000      224  1.0820918e-08      4219.2659 
 1074000      224   1.133045e-08      4224.3716 
 1075000      224  1.2699915e-08      4229.1862 
 1076000      224  8.5004788e-07      4234.0258 
 1077000      224  1.5025393e-07       4238.938 
 1078000      224  1.4003221e-07      4244.3934 
 1079000      224  1.2307873e-07      4250.3098 
 1080000      224  1.1487272e-07      4255.9868 
 1081000      224  1.0551738e-07      4261.0197 
 1082000      224  9.9221378e-08      4266.1895 
 1083000      224  9.5000819e-08      4271.5124 
 1084000      224  7.9462737e-08      4277.0848 
 1085000      224  7.4614815e-08      4281.3261 
 1086000      224  6.7201666e-08      4285.1092 
 1087000      224  6.1084605e-08      4290.1454 
 1088000      224  5.7767861e-08      4295.2322 
 1089000      224  5.0701634e-08      4299.9425 
 1090000      224  4.7795693e-08      4304.1965 
 1091000      224  4.6745424e-08      4309.6056 
 1092000      224  4.4363077e-08      4315.6818 
 1093000      224   4.234201e-08       4320.268 
 1094000      224  3.7830933e-08      4325.0744 
 1095000      224  3.5589609e-08      4329.3642 
 1096000      224  3.4422307e-08      4333.9726 
 1097000      224  3.3665919e-08       4340.404 
 1098000      224   3.324178e-08      4346.6064 
 1099000      224  3.2361823e-08       4351.883 
 1100000      224  2.9102925e-08      4357.1671 
 1101000      224  2.6067621e-08      4363.0042 
 1102000      224  2.5110122e-08        4368.56 
 1103000      224  2.4822579e-08      4373.9462 
 1104000      224  2.4654128e-08       4378.711 
 1105000      224  2.4168659e-08      4383.5352 
 1106000      224  2.3492408e-08      4388.5856 
 1107000      224  7.6469093e-08        4393.81 
 1108000      224  1.9232277e-08      4398.1443 
 1109000      224  2.1050989e-08      4403.8645 
 1110000      224  2.0574071e-08      4408.5603 
 1111000      224  2.2554143e-08      4414.1111 
 1112000      224  1.9360435e-08      4418.8028 
 1113000      224  1.8907515e-08      4423.6445 
 1114000      224  1.9048987e-08      4428.1271 
 1115000      224  2.0345663e-08      4432.8522 
 1116000      224  2.2971164e-08      4437.8857 
 1117000      224  1.9891741e-08      4443.0138 
 1118000      224  1.0820947e-07       4448.054 
 1119000      224  8.2583225e-08       4453.094 
 1120000      224  7.6137334e-08       4458.198 
 1121000      224  7.2760917e-08      4463.8827 
 1122000      224  6.2660508e-08      4468.6751 
 1123000      224  5.0692378e-08      4474.1221 
 1124000      224  4.7556576e-08      4479.4068 
 1125000      224  4.5412729e-08      4483.8561 
 1126000      224  6.5325913e-08      4489.1915 
 1127000      224  5.3909223e-08       4495.086 
 1128000      224  5.5130381e-08      4500.7172 
 1129000      224   4.428431e-08       4505.422 
 1130000      224  3.9669326e-08      4511.2377 
 1131000      224  3.9259197e-08      4515.9995 
 1132000      224  3.7661062e-08      4520.6003 
 1133000      224  3.4084751e-08      4525.5104 
 1134000      224  3.4786187e-08      4531.4268 
 1135000      224  3.4704941e-08      4537.4511 
 1136000      224  3.7612445e-08      4543.0963 
 1137000      224   3.469953e-08      4548.5599 
 1138000      224  3.2947054e-08      4553.8551 
 1139000      224  2.8681081e-08      4559.0737 
 1140000      224  2.4927012e-08      4563.3849 
 1141000      224  2.4869236e-08      4568.9524 
 1142000      224  2.4829739e-08      4575.0093 
 1143000      224  3.3745055e-08      4580.8423 
 1144000      224  3.5729564e-08       4585.756 
 1145000      224  3.2324399e-08      4590.0501 
 1146000      224  3.1070711e-08      4594.2815 
 1147000      224  2.9509286e-08       4598.718 
 1148000      224  2.8459223e-08      4603.6398 
 1149000      224  2.8560655e-08      4608.0191 
 1150000      224  2.7951534e-08      4612.2341 
 1151000      224  2.9549065e-08       4617.208 
 1152000      224  3.3196419e-08      4622.1452 
 1153000      224  3.1910182e-08      4627.5672 
 1154000      224  3.2851253e-08       4632.391 
 1155000      224  3.3328368e-08      4637.7487 
 1156000      224  2.9176053e-08      4643.1554 
 1157000      224  1.3004346e-07      4648.5754 
 1158000      224  8.1250445e-08      4654.3848 
 1159000      224  7.5175431e-08      4659.9482 
 1160000      224  7.3183386e-08      4664.5832 
 1161000      224  1.7213525e-07      4670.2315 
 1162000      224  1.3341569e-07      4676.3364 
 1163000      224  1.1411275e-07      4681.5548 
 1164000      224  7.8450888e-08       4686.931 
 1165000      224  7.4510798e-08      4692.1728 
 1166000      224  6.4941008e-08       4697.847 
 1167000      224  6.1622979e-08      4703.6093 
 1168000      224  5.9875665e-08      4708.3824 
 1169000      224  5.8432998e-08      4713.3545 
 1170000      224  5.8467518e-08      4719.2681 
 1171000      224  3.8117564e-08      4724.5788 
 1172000      224  3.5197625e-08      4730.3331 
 1173000      224  3.6023032e-08      4735.8893 
 1174000      224   3.105085e-08      4741.8023 
 1175000      224  4.9632738e-07       4747.888 
 1176000      224  2.9083617e-08      4753.9605 
 1177000      224  2.7584313e-08      4759.5687 
 1178000      224  2.5818172e-08      4765.6036 
 1179000      224  2.7169936e-08      4771.5991 
 1180000      224   2.661979e-08      4777.1211 
 1181000      224  2.9544869e-08      4782.4257 
 1182000      224   2.739876e-08      4787.6119 
 1183000      224  2.8793072e-08      4792.6989 
 1184000      224   3.003002e-08      4797.7198 
 1185000      224  3.1426305e-08      4803.9159 
 1186000      224  3.1198213e-08      4809.0776 
 1187000      224  9.6271052e-08       4814.262 
 1188000      224  1.0135954e-07      4819.5426 
 1189000      224  3.3001043e-08      4825.6651 
 1190000      224  3.3842288e-08      4830.7149 
 1191000      224  3.3174327e-08      4836.2867 
 1192000      224  2.8979387e-08      4842.0274 
 1193000      224  2.8937397e-08      4847.8054 
 1194000      224  2.9736193e-08      4854.3272 
 1195000      224  2.3758662e-08      4859.5051 
 1196000      224  2.4911812e-08      4865.2213 
 1197000      224   2.497001e-08      4870.8244 
 1198000      224  1.7565679e-08      4876.5675 
 1199000      224  1.7007247e-08      4882.7978 
 1200000      224  1.7300722e-08      4892.4193 
 1201000      224  1.5809986e-08      4898.0539 
 1202000      224  1.5089828e-08      4903.8838 
 1203000      224  1.4176562e-08      4910.1072 
 1204000      224  1.4793792e-08      4915.4753 
 1205000      224  1.2029295e-08      4921.1747 
 1206000      224  1.1595656e-08      4925.6399 
 1207000      224  1.1775522e-08      4931.6185 
 1208000      224  1.3320755e-08      4936.6419 
 1209000      224   1.239318e-08      4943.0041 
 1210000      224  1.1831572e-06      4949.4986 
 1211000      224  1.5248913e-07      4956.2085 
 1212000      224  1.3804883e-07      4962.9691 
 1213000      224  1.2779588e-07      4968.8264 
 1214000      224   1.103725e-07      4974.7045 
 1215000      224  8.0786049e-08      4979.4906 
 1216000      224  7.1186605e-08      4984.4583 
 1217000      224  5.0632604e-08       4989.498 
 1218000      224  4.8807768e-08      4995.4664 
 1219000      224  4.4319033e-08      5001.1324 
 1220000      224  4.2315198e-08      5006.1288 
 1221000      224  4.1936766e-08      5011.7682 
 1222000      224  5.2477665e-08      5017.8145 
 1223000      224  4.3352318e-08      5022.8475 
 1224000      224  4.2856928e-08      5028.6232 
 1225000      224  3.7240442e-08      5035.5874 
 1226000      224  3.7140949e-08      5040.8389 
 1227000      224  4.1474417e-08      5045.7683 
 1228000      224  3.7614944e-08      5051.8484 
 1229000      224  3.8321157e-08      5057.6226 
 1230000      224   3.578834e-08      5063.4768 
 1231000      224  3.2793699e-08      5069.5546 
 1232000      224  6.8254406e-08      5074.3519 
 1233000      224  6.3969645e-08       5079.629 
 1234000      224   4.419951e-08      5084.2884 
 1235000      224  3.7908988e-08      5088.9734 
 1236000      224   2.467876e-07      5094.4363 
 1237000      224  3.2245384e-08      5099.2723 
 1238000      224  3.0848594e-08      5104.5273 
 1239000      224  3.0372079e-08      5108.4533 
 1240000      224  2.9363154e-08      5113.5198 
 1241000      224   2.846109e-08      5119.4205 
 1242000      224  2.8496502e-08      5124.7752 
 1243000      224  2.5202745e-08      5130.2191 
 1244000      224  1.8546187e-08      5134.8498 
 1245000      224   1.561364e-08      5139.7882 
 1246000      224  8.7294076e-07      5144.8796 
 1247000      224  1.8040167e-08      5150.1911 
 1248000      224  1.6648726e-08      5156.1936 
 1249000      224  1.5830606e-08      5161.2594 
 1250000      224  1.5011587e-08      5166.9238 
 1251000      224  1.4754083e-08      5172.4932 
 1252000      224  2.3422722e-08      5178.5656 
 1253000      224  2.3057919e-08       5183.929 
 1254000      224  1.6192497e-08      5189.7441 
 1255000      224  1.7939518e-08      5195.5011 
 1256000      224  1.8928961e-08      5201.2836 
 1257000      224  1.0461088e-07       5205.605 
 1258000      224  6.0972155e-08      5209.7512 
 1259000      224  4.2335025e-08      5214.9345 
 1260000      224  3.8978386e-08      5220.4507 
 1261000      224  3.1991214e-08      5225.3318 
 1262000      224  2.3126436e-08      5231.1356 
 1263000      224  2.0810112e-08      5236.0713 
 1264000      224  2.0810703e-08      5240.8922 
 1265000      224  1.8305779e-07       5246.786 
 1266000      224  1.9867992e-08      5252.2073 
 1267000      224  2.1704274e-08      5256.7862 
 1268000      224  1.8320044e-08       5262.326 
 1269000      224  1.7807694e-08      5267.6224 
 1270000      224  1.6275343e-08      5273.2812 
 1271000      224  1.6801895e-08      5280.5386 
 1272000      224  1.6466015e-08      5286.9707 
 1273000      224  1.8592996e-08      5292.2868 
 1274000      224  1.5563341e-08      5297.1234 
 1275000      224  1.5474875e-08      5301.5375 
 1276000      224  1.5446092e-08      5307.7425 
 1277000      224  1.7471354e-08      5312.9617 
 1278000      224   1.780683e-08      5318.8719 
 1279000      224  1.8355845e-08      5324.3959 
 1280000      224  3.6101725e-07       5330.566 
 1281000      224  4.0921709e-08      5336.7496 
 1282000      224  7.4744659e-08      5343.1585 
 1283000      224  3.5715614e-08      5349.3545 
 1284000      224    2.10903e-08      5354.7375 
 1285000      224  2.2348888e-08      5361.1467 
 1286000      224  1.6588212e-08      5366.6309 
 1287000      224   1.318239e-08      5371.3131 
 1288000      224   1.297711e-08      5376.9334 
 1289000      224  1.3361369e-08      5382.6365 
 1290000      224  1.4693616e-07      5388.4232 
 1291000      224  1.1666863e-07      5394.3751 
 1292000      224  1.0401851e-07      5400.3408 
 1293000      224  9.6564756e-08       5405.188 
 1294000      224  7.8179723e-08      5411.4933 
 1295000      224  7.8600219e-08      5417.5612 
 1296000      224  6.7154518e-08      5423.0598 
 1297000      224  5.9805481e-08      5429.7438 
 1298000      224  5.7831192e-08      5435.2757 
 1299000      224  5.2117885e-08      5441.2515 
 1300000      224  4.6219854e-08       5446.932 
 1301000      224   3.954452e-08      5451.9041 
 1302000      224  3.9047248e-08      5457.8917 
 1303000      224  3.8667458e-08      5462.4942 
 1304000      224  3.7203098e-08      5467.8097 
 1305000      224  3.6855352e-08      5473.6228 
 1306000      224  3.4560567e-08      5478.9708 
 1307000      224  3.2856274e-08      5484.7438 
 1308000      224  7.9801528e-08      5489.3677 
 1309000      224  7.4078077e-08      5493.6463 
 1310000      224  6.3906022e-08       5498.229 
 1311000      224  3.8873519e-08      5502.9094 
 1312000      224  3.3626408e-08      5507.2147 
 1313000      224  3.4643459e-08       5511.931 
 1314000      224  2.8091952e-08      5518.0973 
 1315000      224   2.686748e-08        5524.15 
 1316000      224  2.6177415e-08       5528.928 
 1317000      224   2.818127e-08      5534.6265 
 1318000      224  2.5487809e-08      5540.7099 
 1319000      224  3.6086793e-08       5547.025 
 1320000      224  2.3022529e-08      5552.7666 
 1321000      224  2.2435434e-08      5558.1522 
 1322000      224  1.8409473e-08      5563.0548 
 1323000      224  3.1451815e-07      5568.9667 
 1324000      224  2.0435095e-08      5573.9049 
 1325000      224  1.5842713e-08      5579.9318 
 1326000      224  1.4742248e-08      5585.3658 
 1327000      224  1.5540866e-08       5590.498 
 1328000      224  1.7010314e-08      5595.0908 
 1329000      224    1.68443e-08      5600.2005 
 1330000      224  1.6073148e-08      5605.8612 
 1331000      224  1.5445792e-08      5611.4753 
 1332000      224   1.704784e-08      5617.4436 
 1333000      224  1.7391457e-08      5624.0251 
 1334000      224  1.5640712e-08      5629.5208 
 1335000      224  1.3253592e-08      5634.4704 
 1336000      224  1.2321901e-08      5640.4576 
 1337000      224   1.561447e-08      5645.9132 
 1338000      224  1.3365819e-08      5652.0258 
 1339000      224  1.3000638e-08      5658.2562 
 1340000      224   1.220926e-08      5664.4421 
 1341000      224  1.2813098e-08      5670.3215 
 1342000      224  1.3398034e-08      5675.7006 
 1343000      224  1.3874947e-08       5681.095 
 1344000      224  1.3861752e-08      5687.0239 
 1345000      224  1.1968578e-08      5692.2718 
 1346000      224  1.1288109e-08      5698.2757 
 1347000      224  1.5664632e-08       5704.117 
 1348000      224  1.2670851e-08      5710.1149 
 1349000      224  1.1601128e-08      5715.7651 
 1350000      224  1.4433661e-08      5721.0135 
 1351000      224  1.4159948e-08      5727.1291 
 1352000      224   1.330941e-08      5732.4451 
 1353000      224  1.6054756e-07      5737.1178 
 1354000      224  1.5964829e-08      5741.7938 
 1355000      224   1.138888e-08      5747.6873 
 1356000      224  1.0530448e-08       5753.077 
 1357000      224  1.4727134e-08      5758.5498 
 1358000      224  1.1365813e-08      5764.5448 
 1359000      224  1.2504835e-08      5770.0934 
 1360000      224  1.0677069e-08      5774.4876 
 1361000      224   5.400841e-09      5778.7263 
 1362000      224  5.7540166e-09      5783.2558 
 1363000      224  5.5794281e-09      5787.8159 
 1364000      224  1.0068065e-08      5793.0914 
 1365000      224  5.6908181e-09      5798.2844 
 1366000      224  5.9058024e-09      5803.9434 
 1367000      224  1.2282782e-08      5809.9496 
 1368000      224  2.0010503e-08       5816.191 
 1369000      224   1.015626e-08      5821.5934 
 1370000      224  5.7909612e-09      5826.1352 
 1371000      224  5.4577983e-09      5831.4991 
 1372000      224  5.4473221e-09      5836.7089 
 1373000      224  5.6258863e-09      5842.8235 
 1374000      224   6.178168e-09      5848.8245 
 1375000      224  6.6392927e-09      5854.8941 
 1376000      224  1.7794778e-08      5860.2944 
 1377000      224  9.6682313e-09      5866.1569 
 1378000      224  8.7071488e-09      5871.7961 
 1379000      224  8.6556425e-09      5878.1224 
 1380000      224   8.506055e-09      5883.8037 
[...]
 3846000      233  4.0753851e-07      11757.027 
 3847000      233  3.4950351e-07      11763.526 
 3848000      233  3.3230514e-07      11770.765 
 3849000      233  3.1396887e-07      11777.056 
 3850000      233  3.1065926e-07       11782.93 
 3851000      233  2.9424013e-07      11788.965 
 3852000      233  2.8390801e-07      11795.365 
 3853000      233  2.7533814e-07      11801.893 
 3854000      233  2.6677866e-07      11808.073 
 3855000      233  2.5974293e-07      11813.829 
 3856000      233  2.5292661e-07      11819.624 
 3857000      233  2.4446022e-07      11825.457 
 3858000      233  2.3238227e-07      11831.338 
 3859000      233  2.0763104e-07       11838.35 
 3860000      233  3.5419594e-07      11843.195 
 3861000      233  3.0573197e-07      11850.518 
 3862000      233  4.5527152e-07       11856.12 
 3863000      233  2.9516178e-07      11861.705 
 3864000      233  2.9221287e-07      11868.268 
 3865000      233  2.5452338e-07      11875.509 
 3866000      233  2.4204278e-07      11881.845 
 3867000      233   2.010453e-07      11887.129 
 3868000      233  1.9297671e-07      11893.274 
 3869000      233  1.8166194e-07      11898.572 
 3870000      233  1.7147033e-07      11904.166 
 3871000      233  1.6220111e-07      11911.235 
 3872000      233  1.4820686e-07      11917.164 
 3873000      233  1.4180438e-07        11924.2 
 3874000      233  1.3977188e-07      11930.543 
 3875000      233  1.3031439e-07      11936.195 
 3876000      233  1.2986766e-07      11941.677 
 3877000      233  1.2061683e-07      11948.566 
 3878000      233  1.1519714e-07       11955.61 
 3879000      233  1.4610782e-07      11961.391 
 3880000      233  1.2729884e-07      11967.808 
 3881000      233  1.1619851e-07      11974.513 
 3882000      233  1.1081806e-07      11980.672 
 3883000      233  1.0620033e-07        11986.5 
 3884000      233  1.0276889e-07      11992.558 
 3885000      233  1.6118702e-07      11999.291 
 3886000      233  1.2477675e-07      12004.679 
 3887000      233  9.2620621e-08      12009.805 
 3888000      233  8.8861391e-08      12014.932 
 3889000      233  1.0722762e-06      12019.869 
 3890000      233  1.0639432e-06      12024.982 
 3891000      233  1.0700387e-06      12031.196 
 3892000      233   1.041634e-06      12037.359 
 3893000      233   1.061194e-06      12042.511 
 3894000      233  1.0414144e-06      12049.409 
 3895000      233  1.0304343e-06      12055.331 
 3896000      233  1.0226132e-06      12061.114 
 3897000      233  1.0163889e-06      12066.709 
 3898000      233  1.0102634e-06      12071.972 
 3899000      233   9.991177e-07       12077.77 
 3900000      233  1.2188145e-06      12083.273 
 3901000      233  1.1257335e-06      12089.855 
 3902000      233  1.0768337e-06        12096.3 
 3903000      233  1.5012431e-06      12102.406 
 3904000      233  2.2131046e-06      12108.942 
 3905000      232  1.3708418e-07      12115.173 
 3906000      232  1.3285975e-07      12119.969 
 3907000      232  1.3116646e-07       12125.68 
 3908000      232  1.2784635e-07      12131.983 
 3909000      232  1.2235864e-07      12136.609 
 3910000      232  1.8222796e-07      12142.324 
 3911000      232  1.4201951e-07      12148.224 
 3912000      232  1.7991959e-07      12154.668 
 3913000      232  1.4552392e-07      12161.771 
 3914000      232  1.2638501e-07      12168.993 
 3915000      232  4.7869953e-07      12175.573 
 3916000      232  1.3279279e-07      12180.678 
 3917000      232  4.2866751e-07      12186.378 
 3918000      232  1.6974302e-07      12192.654 
 3919000      232  1.3367397e-07      12198.465 
 3920000      232  3.5951097e-07      12205.446 
 3921000      232  3.2655959e-07      12211.922 
 3922000      232  9.7658464e-08      12218.796 
 3923000      232  9.3421937e-08       12225.72 
 3924000      232  9.2530571e-08      12232.435 
 3925000      232  9.2376377e-08      12238.251 
 3926000      232  8.7307745e-08      12244.601 
 3927000      232    8.78948e-08      12250.091 
 3928000      232  8.7197456e-08      12255.513 
 3929000      232  8.2337345e-08       12262.58 
 3930000      232  8.2628366e-08      12269.724 
 3931000      232  8.1246048e-08      12276.042 
 3932000      232  1.0263205e-06      12281.497 
 3933000      232  1.7235407e-07      12286.997 
 3934000      232  8.0483045e-08      12292.652 
 3935000      232  8.2146841e-08      12298.546 
 3936000      232  8.4241897e-08      12303.995 
 3937000      232  8.5173867e-08      12310.137 
 3938000      232  1.5952442e-07      12316.507 
 3939000      232  8.1444035e-08      12322.724 
 3940000      232  1.9172396e-07      12329.307 
 3941000      232  2.6350158e-07      12335.366 
 3942000      232  9.1424123e-08      12342.267 
 3943000      232  8.8146383e-08      12348.128 
 3944000      232   9.736244e-08       12354.43 
 3945000      232  1.2819718e-06      12360.888 
 3946000      232   1.113417e-07      12366.907 
 3947000      232  1.0389252e-07      12373.417 
 3948000      232  9.3944964e-08      12379.948 
 3949000      232  8.9187013e-08      12385.989 
 3950000      232  8.8470567e-08      12391.719 
 3951000      232  1.8310625e-07      12397.125 
 3952000      232  1.6451543e-07      12403.887 
 3953000      232  1.7942105e-07      12410.958 
 3954000      232  1.7134061e-07      12417.977 
 3955000      232  1.5744851e-07      12424.848 
 3956000      232  1.5143424e-07       12431.36 
 3957000      232  1.7802149e-07      12437.248 
 3958000      232  1.4974283e-07      12443.337 
 3959000      232  2.4658232e-06      12449.516 
 3960000      232  1.5189369e-07      12454.243 
 3961000      232  1.4586909e-07      12459.079 
 3962000      232  2.3889202e-07      12465.477 
 3963000      232  1.3918853e-07      12472.289 
 3964000      232  1.3704203e-07      12479.375 
 3965000      232  1.2486737e-07      12486.203 
 3966000      232  1.2471905e-07       12492.81 
 3967000      232  1.2593442e-07      12499.397 
 3968000      232  1.2729143e-07      12505.653 
 3969000      232   1.923474e-07      12511.942 
 3970000      232  3.3197505e-07      12517.994 
 3971000      232  2.0400072e-07      12524.908 
 3972000      232  1.3266499e-07      12530.233 
 3973000      232  1.2689691e-07      12535.028 
 3974000      232  1.6491829e-07      12540.722 
 3975000      232  1.2360907e-07      12547.386 
 3976000      232  1.1988017e-07      12554.991 
 3977000      232  6.5828299e-07       12563.52 
 3978000      232  1.2437309e-07      12569.491 
 3979000      232  1.2980786e-07      12574.735 
 3980000      232  1.4767368e-07      12580.962 
 3981000      232  1.3216723e-07      12586.596 
 3982000      232  3.3838784e-06      12592.863 
 3983000      232  1.1842959e-07       12599.74 
 3984000      232  1.0603212e-07      12605.655 
 3985000      232  1.1124634e-07      12611.925 
 3986000      232  9.5859045e-08      12618.031 
 3987000      232  1.0054596e-07      12624.159 
 3988000      232   1.003587e-07      12629.329 
 3989000      232  1.0451926e-07        12635.5 
 3990000      232  8.0985607e-07      12641.083 
 3991000      232  1.7493308e-07      12646.887 
 3992000      232  1.0633752e-07      12652.018 
 3993000      232  9.6240094e-08       12659.24 
 3994000      232  9.7292017e-08      12666.171 
 3995000      232  9.7352243e-08      12672.276 
 3996000      232  9.4315527e-08      12678.382 
 3997000      232  9.6604102e-08      12684.396 
 3998000      232  1.6416468e-07      12691.322 
 3999000      232  1.0226572e-07        12697.5 
 4000000      232  1.0687781e-07      12709.825 
 4001000      232   1.053653e-07      12716.626 
 4002000      232  1.0620611e-07      12725.483 
 4003000      232  1.0736712e-07      12732.363 
 4004000      232  1.0759488e-07      12740.292 
 4005000      232  1.0496729e-07      12745.897 
 4006000      232  1.0786486e-07      12751.918 
 4007000      232  1.1133526e-07      12758.065 
 4008000      232  1.1273848e-07      12764.762 
 4009000      232  1.0098293e-07      12771.766 
 4010000      232  1.0390121e-07      12779.558 
 4011000      232  9.8625291e-08      12784.828 
 4012000      232  9.9144682e-08      12792.271 
 4013000      232  5.7761435e-07      12798.525 
 4014000      232  5.0973077e-07      12805.004 
 4015000      232  5.2104963e-07      12812.254 
 4016000      232  5.2350204e-07      12818.527 
 4017000      232   3.648805e-07      12826.119 
 4018000      232  3.5490083e-07      12832.544 
 4019000      231  2.7269027e-07      12838.337 
 4020000      231  2.5687375e-07      12843.871 
 4021000      231  2.4834047e-07      12849.186 
 4022000      231  2.1233926e-07      12855.285 
 4023000      231  4.0621634e-07      12861.734 
 4024000      231  1.9849271e-07      12866.602 
 4025000      231  1.9122723e-07      12872.819 
 4026000      231   1.853465e-07      12877.942 
 4027000      231  1.7968037e-07      12884.482 
 4028000      231  1.7080422e-07      12891.598 
 4029000      231  1.7723954e-07      12897.588 
 4030000      231   1.520212e-07      12904.221 
 4031000      231   2.982018e-07       12909.69 
 4032000      231  1.9506969e-07      12915.776 
 4033000      231  1.8814075e-07      12921.629 
 4034000      231  1.8533024e-07      12927.923 
 4035000      231   1.894319e-07      12934.131 
 4036000      231  1.7260291e-07      12940.515 
 4037000      231  1.5966785e-07       12946.14 
 4038000      231  1.6493294e-07      12952.818 
 4039000      231  1.5557901e-07      12959.748 
 4040000      231  1.5317347e-07      12966.747 
 4041000      231  1.4273943e-07       12972.03 
 4042000      231  1.2675908e-07      12978.143 
 4043000      231  1.6086146e-07      12984.843 
 4044000      231  1.5241629e-07       12991.93 
 4045000      231  1.3116207e-07      12997.409 
 4046000      231  1.2516915e-07      13003.009 
 4047000      231  1.1775168e-07      13008.139 
 4048000      231  1.0304385e-07       13013.18 
 4049000      231  1.0258977e-07      13018.174 
 4050000      231  1.0157375e-07      13025.319 
 4051000      231  1.0281539e-07      13031.329 
 4052000      231   9.728771e-08      13036.534 
 4053000      231  9.3727611e-08      13041.918 
 4054000      231  9.0886737e-08      13047.786 
 4055000      231  9.6614361e-08      13054.542 
 4056000      231  9.4089919e-08      13060.597 
 4057000      231  1.2228161e-07      13066.518 
 4058000      231  6.9090929e-08      13072.334 
 4059000      231  6.4779895e-08      13078.143 
 4060000      231  6.3485353e-08      13083.519 
 4061000      231  6.3992487e-08      13088.993 
 4062000      231  6.7752796e-08      13095.156 
 4063000      231  5.1904535e-08      13102.495 
 4064000      231  5.1145233e-08      13109.797 
 4065000      231  5.1430037e-08      13116.942 
 4066000      231  5.6899226e-08       13123.08 
 4067000      231  9.7851654e-08       13129.03 
 4068000      231  5.1133609e-08      13135.454 
 4069000      231  5.9369058e-08      13141.259 
 4070000      231  4.8726302e-08      13147.057 
 4071000      231  5.7631306e-08      13153.031 
 4072000      231   1.327683e-07      13159.616 
 4073000      231  1.0693223e-07      13166.013 
 4074000      231  1.0064596e-07      13170.643 
 4075000      231  1.0631409e-07      13176.481 
 4076000      231  1.0532791e-07      13182.978 
 4077000      231  1.0472088e-07      13189.376 
 4078000      231   1.627304e-07      13195.343 
 4079000      231  1.1979785e-07      13201.677 
 4080000      231  1.1407499e-07      13207.616 
 4081000      231  1.1220455e-07       13213.32 
 4082000      231  4.7848212e-07      13218.284 
 4083000      231  1.5636533e-06        13223.2 
 4084000      231  1.0035715e-07      13229.262 
 4085000      231  1.0052145e-07      13236.108 
 4086000      231  1.0001965e-07      13241.602 
 4087000      231  9.4130427e-08       13247.07 
 4088000      231  1.2779071e-07      13252.132 
 4089000      231  1.2003859e-07      13257.712 
 4090000      231  8.5757405e-08      13264.134 
 4091000      231  7.8475782e-08      13270.164 
 4092000      231   7.381768e-08      13276.604 
 4093000      231  7.1382392e-08      13281.485 
 4094000      231  7.1279168e-08      13287.292 
 4095000      231  7.0199777e-08      13294.253 
 4096000      231  7.1030974e-08      13300.728 
 4097000      231  7.2162504e-08      13307.742 
 4098000      231   6.541356e-08      13313.679 
 4099000      231  6.4559589e-08       13320.38 
 4100000      231  6.5677753e-08      13326.669 
 4101000      231  1.0734322e-07      13333.802 
 4102000      231  7.0559548e-08      13339.918 
 4103000      231  7.3571407e-08      13344.672 
 4104000      231  8.3041739e-08      13350.412 
 4105000      231  7.2418148e-08       13356.56 
 4106000      231  5.3195608e-08      13363.351 
 4107000      231  5.8376746e-08      13369.672 
 4108000      231   5.802558e-08      13375.653 
 4109000      231  5.4676028e-08       13382.36 
 4110000      231  7.0923609e-08      13389.152 
 4111000      231  3.5399275e-07      13395.084 
 4112000      231  2.7670594e-07      13400.676 
 4113000      231  2.1516632e-07      13406.541 
 4114000      231  1.6121959e-07      13412.341 
 4115000      231  1.1196387e-07      13418.775 
 4116000      231  1.2143026e-07      13425.647 
 4117000      231  1.1371584e-07      13432.453 
 4118000      231  1.0372949e-07      13438.553 
 4119000      231  9.8217343e-08      13444.895 
 4120000      231  9.2821607e-08      13451.767 
 4121000      231  9.1757037e-08      13458.385 
 4122000      231  7.1650185e-08      13463.757 
 4123000      231  7.0842771e-08      13469.255 
 4124000      231  6.1138887e-08      13475.598 
 4125000      231   5.847113e-08      13481.817 
 4126000      231  5.9872689e-08      13487.125 
 4127000      231  6.3298725e-08       13493.35 
 4128000      231  8.3889592e-08      13499.684 
 4129000      231  5.3046016e-08      13506.169 
 4130000      231  4.8509516e-08      13512.631 
 4131000      231  1.1387535e-07      13518.847 
 4132000      231  1.0638158e-07      13525.761 
 4133000      231  7.9371543e-08      13530.687 
 4134000      231  3.3583107e-07      13536.066 
 4135000      231  5.9701022e-08      13541.522 
 4136000      231  4.3429438e-07      13546.666 
 4137000      231  1.6174244e-07       13552.57 
 4138000      230  4.1771089e-08      13560.217 
 4139000      230  4.1795487e-08        13566.6 
 4140000      230  1.4408679e-05      13572.158 
 4141000      230  1.8073151e-06      13577.833 
 4142000      230  1.4552853e-06      13584.604 
 4143000      230  2.1883257e-06      13592.433 
 4144000      230  3.1999698e-06      13599.092 
 4145000      230   1.953773e-05      13605.247 
 4146000      230  6.1934179e-07      13611.336 
 4147000      230  6.4391493e-06      13616.694 
 4148000      230  4.4955912e-07      13621.868 
 4149000      230  7.8592263e-06      13629.352 
 4150000      230  8.4791399e-07      13635.764 
 4151000      230  8.5570829e-06      13641.544 
 4152000      230  5.3072875e-08      13647.618 
 4153000      230  8.4309341e-08      13653.771 
 4154000      230  1.5772925e-07      13659.526 
 4155000      230  5.1411194e-08      13665.265 
 4156000      230  8.0200604e-08      13671.449 
 4157000      230  5.0279362e-08      13677.963 
 4158000      230  7.2227364e-08      13684.751 
 4159000      230   5.481015e-08      13692.276 
 4160000      230  8.8574875e-08      13698.493 
 4161000      230  1.6266506e-07      13705.401 
 4162000      230    1.63517e-07      13711.959 
 4163000      230  9.0837325e-08      13719.107 
 4164000      230  5.9084907e-08       13726.08 
 4165000      230  9.5565936e-06      13733.041 
 4166000      230  8.5767724e-06      13739.098 
 4167000      230  6.1366679e-06      13746.077 
 4168000      230  5.1667575e-06       13752.57 
 4169000      230  3.8488583e-06      13758.515 
 4170000      230  3.6784446e-06      13765.287 
 4171000      230  3.3559676e-06      13772.019 
 4172000      230  3.3141156e-06      13778.878 
 4173000      230   3.277684e-06      13785.836 
 4174000      230  3.2395259e-06      13792.431 
 4175000      230   3.189422e-06      13798.956 
 4176000      230  2.8627678e-06      13806.299 
 4177000      230  2.8191594e-06       13813.39 
 4178000      230  2.8044745e-06      13820.416 
 4179000      230  2.7743069e-06      13826.414 
 4180000      230  3.2236578e-06      13832.363 
 4181000      230  2.9432537e-06      13839.327 
 4182000      230  2.7813352e-06      13844.876 
 4183000      230  2.7200061e-06        13851.4 
 4184000      230  2.6345367e-06      13857.055 
 4185000      230  2.6233735e-06      13862.395 
 4186000      230  2.5588545e-06      13867.686 
 4187000      229  2.9257743e-06      13872.557 
 4188000      229  2.1196647e-06      13878.032 
 4189000      228  1.7154191e-06       13884.18 
 4190000      228  1.6392158e-06      13891.224 
 4191000      228  1.6158273e-06      13896.937 
 4192000      227  1.3663965e-06      13903.781 
 4193000      226  1.1244519e-06       13909.79 
 4194000      226  1.1034719e-06      13916.351 
 4195000      225  8.1457983e-07      13923.133 
 4196000      225  7.6105986e-07      13929.102 
 4197000      225  7.4721674e-07      13935.789 
 4198000      225  7.4021852e-07      13941.506 
 4199000      225  7.2237946e-07      13947.811 
 4200000      225   7.058827e-07      13958.109 
 4201000      225  6.9122533e-07      13963.594 
 4202000      225  6.6900164e-07      13969.473 
 4203000      225   6.542667e-07       13975.75 
 4204000      224  4.8140266e-07      13981.518 
 4205000      223  3.6260107e-07      13987.101 
 4206000      222  2.8524873e-07      13993.499 
 4207000      222  6.1346124e-07       14000.33 
 4208000      222  1.1729203e-06       14007.62 
 4209000      222  2.6009273e-07       14013.86 
 4210000      222  3.1696543e-07      14018.827 
 4211000      222  2.4434271e-07      14025.684 
 4212000      221  1.8291031e-07      14031.511 
 4213000      221  2.7104509e-07      14037.472 
 4214000      221  1.7394636e-07      14042.417 
 4215000      221    1.60402e-07      14047.678 
 4216000      221  1.9153351e-07      14054.386 
 4217000      221  1.6625182e-07       14060.33 
 4218000      221  1.5883009e-07      14066.784 
 4219000      221  8.5485614e-07       14074.17 
 4220000      221  2.1722296e-07      14080.704 
 4221000      221  2.0132062e-07       14085.48 
 4222000      221  2.5537273e-07      14090.153 
 4223000      221  3.3401932e-06      14095.229 
 4224000      220  9.4507758e-08      14100.812 
 4225000      220  8.8436984e-08      14105.434 
 4226000      220  7.8131113e-08       14111.03 
 4227000      220  7.6226371e-08       14115.93 
 4228000      220  7.0155287e-08       14122.16 
 4229000      220  6.6798751e-08       14128.25 
 4230000      220  6.4991153e-08      14133.804 
 4231000      220  6.7130631e-08      14139.118 
 4232000      220  6.3196476e-08      14144.675 
 4233000      220  6.2823695e-08      14150.962 
 4234000      220  6.2531388e-08      14158.463 
 4235000      220  9.0818589e-08      14165.129 
 4236000      220  7.4709663e-08      14169.639 
 4237000      220  7.3669792e-08      14176.371 
 4238000      220  6.4367663e-08      14182.972 
 4239000      220  1.4368567e-07      14189.578 
 4240000      220  8.0192133e-08      14196.344 
 4241000      220  7.1900753e-08      14202.083 
 4242000      220   7.052895e-08      14207.879 
 4243000      220  6.9441622e-08      14214.741 
 4244000      220  6.7923314e-08      14220.984 
 4245000      220    6.92585e-08      14228.167 
 4246000      220  6.9885142e-08      14233.581 
 4247000      220  7.0033316e-08      14238.868 
 4248000      220  7.0709085e-08       14243.72 
 4249000      220  7.2504426e-08      14249.813 
 4250000      220  1.9960105e-06      14256.384 
 4251000      219  1.0632421e-07        14262.6 
 4252000      219  8.2990048e-08      14268.338 
 4253000   