# vtk DataFile Version 3.0
LIGGGHTS particles timestep 6000000
ASCII
DATASET POLYDATA
POINTS 266 float
0.0239127 0.01714 0.0163881
0.0274556 0.0201821 0.0156837
0.0192148 0.0200289 0.0166674
0.0250168 0.0214021 0.0161829
0.0254314 0.0216506 0.00827912
0.0219191 0.0184692 0.0159059
0.0242553 0.0161507 0.0148684
0.0212443 0.0240732 0.0143234
0.0178033 0.0146232 0.0119356
0.0165103 0.0201126 0.0158259
0.0203521 0.01406 0.013082
0.0296076 0.0151317 0.00981908
0.0221266 0.0175168 0.0156695
0.0186649 0.0228338 0.0151668
0.0226503 0.0172767 0.0166026
0.0191798 0.0238711 0.0136827
0.0173348 0.0241726 0.0142521
0.0170839 0.0239506 0.0166765
0.0204334 0.0163911 0.0160488
0.0161605 0.0191831 0.0159416
0.0161408 0.0143101 0.0140691
0.0212643 0.0225393 0.0164248
0.0210515 0.0234915 0.0156139
0.0173493 0.021676 0.0335103
0.018283 0.0148475 0.0149179
0.0138998 0.022322 0.0156416
0.0289236 0.0150029 0.0126514
0.0196046 0.0230751 0.0149238
0.0224747 0.0206387 0.0156662
0.019457 0.0179391 0.0166393
0.0293781 0.0147903 0.010936
0.0200995 0.0217529 0.0160363
0.0126452 0.0205035 0.0165404
0.0122183 0.0211458 0.0214714
0.0193331 0.0190379 0.0167623
0.0234224 0.0203279 0.0157624
0.0261197 0.0233609 0.0109828
0.0174501 0.0147896 0.0143677
0.0216579 0.0174517 0.0165507
0.0228988 0.0186669 0.0159351
0.0189883 0.0237213 0.015494
0.0160723 0.0206438 0.0165759
0.0189023 0.0213112 0.0162466
0.0220354 0.0231879 0.0160744
0.0180375 0.0170669 0.0154869
0.0210134 0.0156942 0.0155679
0.0175621 0.0228841 0.0165757
0.0245357 0.0182872 0.00730062
0.0272571 0.021059 0.0153117
0.0194365 0.0164696 0.0160494
0.0191478 0.0155946 0.0154426
0.0154504 0.0198614 0.0166079
0.0178888 0.0213484 0.0162087
0.0212979 0.0147602 0.0145799
0.0185832 0.0234655 0.0143681
0.0168252 0.018679 0.0166576
0.0243634 0.0222597 0.0155297
0.0188903 0.0240874 0.0127522
0.0214707 0.0231647 0.0147166
0.0195248 0.0143433 0.0138103
0.0175684 0.0139454 0.0137371
0.0182029 0.0159217 0.0154451
0.0180543 0.0155813 0.0142784
0.023815 0.0215584 0.0161125
0.0204778 0.0144823 0.0140793
0.0157971 0.0152454 0.015171
0.0178095 0.0150317 0.0133944
0.0149662 0.0220726 0.0168145
0.0244882 0.0159507 0.00850647
0.0203303 0.0234106 0.0117513
0.0199897 0.024448 0.0137075
0.0175169 0.0146355 0.0158541
0.0184022 0.0142059 0.0156755
0.0236434 0.0151829 0.00961325
0.0223612 0.0237741 0.0142194
0.0189771 0.0201851 0.0073642
0.0282932 0.0166951 0.0150324
0.0246025 0.0185939 0.016723
0.0190533 0.014028 0.0164133
0.0452238 0.020186 0.00584088
0.0205049 0.0190331 0.0167602
0.0304416 0.0178373 0.00736771
0.017058 0.0147381 0.012592
0.021438 0.016426 0.0161008
0.0196145 0.0223664 0.00878959
0.0226605 0.0226917 0.0140409
0.0187233 0.0148296 0.0129277
0.0191506 0.021128 0.00773165
0.0134142 0.0215947 0.0161264
0.0194196 0.0223455 0.0156044
0.0160716 0.0218917 0.0150612
0.013306 0.0163001 0.015969
0.0202189 0.0199887 0.0166897
0.0166796 0.022894 0.0137284
0.0152876 0.0212971 0.0153538
0.0198616 0.0230354 0.00990428
0.0226789 0.0206314 0.0177974
0.0197648 0.0208437 0.0164398
0.0199927 0.0244593 0.0170448
0.0217578 0.0237932 0.0135093
0.0240708 0.0206546 0.016497
0.0245765 0.0200786 0.0174637
0.0179554 0.0243055 0.0171234
0.0265101 0.0228195 0.00932766
0.0216658 0.0237332 0.0170059
0.022515 0.0160345 0.0147638
0.0210054 0.0223162 0.0145098
0.0159733 0.0182037 0.0158666
0.0236424 0.0193611 0.0159321
0.0207392 0.0220882 0.00848719
0.0217166 0.0194434 0.0160102
0.017333 0.0207255 0.0156227
0.0173926 0.0221617 0.0159052
0.0185986 0.0138054 0.0134499
0.0217296 0.0228429 0.0138082
0.0222046 0.0215352 0.0153119
0.0215038 0.0203931 0.0157434
0.023231 0.0147487 0.0115387
0.0306734 0.0188549 0.00717611
0.112691 0.0188173 0.00572472
0.022562 0.0169003 0.0217737
0.0217104 0.0149792 0.0154641
0.0166881 0.0227786 0.015394
0.0185992 0.0160183 0.0163581
0.0361248 0.0268795 0.0435188
0.0219718 0.0185012 0.00606129
0.0280143 0.0177576 0.0156048
0.0148901 0.0222269 0.0157398
0.0207737 0.022878 0.0137279
0.0205814 0.0233556 0.0109031
0.0173634 0.0235114 0.0158225
0.0155681 0.0214627 0.0162993
0.019249 0.0148787 0.0146608
0.0234012 0.0215564 0.0170229
0.019826 0.0206562 0.00754531
0.0241444 0.0194803 0.0167887
0.0219928 0.0222218 0.0146128
0.0234637 0.0148678 0.0105585
0.0166567 0.0172518 0.0155791
0.0163658 0.0162013 0.0160726
0.0207601 0.0147667 0.0158427
0.0179374 0.0240656 0.0130566
0.0184746 0.0229989 0.0161831
0.0209507 0.0242216 0.0133791
0.029816 0.0155651 0.00896242
0.0315367 0.0221902 0.00852818
0.0206789 0.0238511 0.0124358
0.0225346 0.0169722 0.0280327
0.030124 0.0163747 0.00811508
0.0183557 0.0205198 0.0165197
0.0231998 0.0213184 0.0153405
0.0266612 0.0229341 0.0133116
0.0227053 0.014911 0.0155405
0.0237312 0.0225734 0.016043
0.0226863 0.0196736 0.0159335
0.0187325 0.0140608 0.0144073
0.0169861 0.0239506 0.0133417
0.0168359 0.0223027 0.0145271
0.0184551 0.0220801 0.0157899
0.0164505 0.0232939 0.0162175
0.0202142 0.0150346 0.0148705
0.0204189 0.023704 0.0133608
0.0215878 0.0225224 0.0154772
0.0174471 0.0197711 0.0159
0.0164268 0.0232874 0.0128446
0.0228311 0.0204861 0.0165965
0.0164029 0.0164139 0.0150962
0.0178694 0.0237607 0.0149946
0.0270298 0.0219242 0.0145824
0.0208912 0.0210072 0.0164316
0.0166634 0.0155375 0.014222
0.0162497 0.0237445 0.0140314
0.0235504 0.0161667 0.0164111
0.0187109 0.015033 0.0161452
0.0244612 0.0157114 0.0157429
0.0238565 0.0183827 0.0158904
0.0247673 0.0221917 0.0163476
0.0183166 0.0239838 0.0162483
0.0230867 0.0233286 0.0146372
0.0224272 0.0231488 0.013199
0.0226908 0.0216305 0.0162083
0.0257949 0.0207509 0.0170206
0.0249567 0.0200268 0.00729693
0.0169516 0.0211069 0.0164648
0.013882 0.015637 0.0154908
0.0285142 0.015966 0.0144779
0.0254885 0.0191929 0.0167561
0.0170169 0.0215595 0.0151709
0.0187472 0.019034 0.00716245
0.0291765 0.0147649 0.0115804
0.170075 0.0198241 0.00580831
0.023126 0.0160793 0.0173126
0.02523 0.0206028 0.0164242
0.0229882 0.0231534 0.0156124
0.0222393 0.0235944 0.015167
0.0156442 0.0228088 0.0168036
0.0158881 0.0225606 0.0143411
0.0176658 0.022801 0.0151866
0.0277712 0.0189504 0.0158401
0.0183614 0.0183755 0.0166928
0.02394 0.016931 0.0154107
0.0213984 0.018585 0.0167884
0.0174125 0.0153686 0.0151821
0.0212462 0.0141857 0.0135117
0.0194039 0.0241224 0.0163102
0.023132 0.0175727 0.0156892
0.0200678 0.0154877 0.0158193
0.0162226 0.0236721 0.0150322
0.0203888 0.0239863 0.0161989
0.0158077 0.0226114 0.0158371
0.0205884 0.0225161 0.0155318
0.0148749 0.0227196 0.0140284
0.0258382 0.023024 0.00982668
0.0237217 0.0228235 0.0151066
0.0170541 0.0181265 0.0158562
0.0189472 0.0244445 0.0171394
0.0168187 0.0196788 0.0166724
0.0162464 0.0210357 0.0155471
0.0348586 0.0130208 0.0435188
0.017918 0.014208 0.0128378
0.0250181 0.0164797 0.0160586
0.0233365 0.0159584 0.0154567
0.0174027 0.0164041 0.015089
0.00550493 0.0073559 0.0435188
0.0220693 0.0144043 0.0140527
0.0256655 0.0226099 0.00909077
0.0143956 0.0229653 0.0150578
0.0161199 0.0236026 0.0171822
0.017347 0.015962 0.0159842
0.0227622 0.0152558 0.0138346
0.0177633 0.0188242 0.0159557
0.0153337 0.0232618 0.015236
0.0231307 0.0147968 0.0146428
0.0234288 0.0157382 0.0144854
0.0185129 0.022484 0.0170395
0.0196748 0.0239975 0.0145434
0.0166522 0.0225046 0.0168038
0.0229962 0.0221406 0.0148065
0.0238044 0.015085 0.015323
0.0224772 0.0151746 0.0164777
0.0153183 0.014702 0.0144815
0.014537 0.015087 0.0149727
0.0209261 0.0217228 0.0190395
0.0205192 0.0234695 0.0146545
0.0241672 0.0165851 0.00798233
0.0154997 0.0203989 0.0157384
0.0146065 0.0209934 0.0164171
0.0212117 0.0216172 0.0152076
0.0214781 0.0146374 0.0165266
0.0150932 0.022085 0.0147696
0.0198563 0.0231933 0.0159041
0.0193509 0.0145082 0.0155839
0.0222807 0.0177358 0.0176384
0.0156574 0.0230363 0.0134927
0.0195722 0.0224404 0.0165881
0.02245 0.0165254 0.0156335
0.0211894 0.0232388 0.0129481
0.0170272 0.0232818 0.0145842
0.0136263 0.0206933 0.0165036
0.0183286 0.0243309 0.0139372
0.0168506 0.0148048 0.0135678
0.0251757 0.0174888 0.0165124
0.0164475 0.0218723 0.0160565
0.0198436 0.0241308 0.0128093
0.0193656 0.0140648 0.0128628
0.0199181 0.0217052 0.00810565

VERTICES 266 532
1 0
1 1
1 2
1 3
1 4
1 5
1 6
1 7
1 8
1 9
1 10
1 11
1 12
1 13
1 14
1 15
1 16
1 17
1 18
1 19
1 20
1 21
1 22
1 23
1 24
1 25
1 26
1 27
1 28
1 29
1 30
1 31
1 32
1 33
1 34
1 35
1 36
1 37
1 38
1 39
1 40
1 41
1 42
1 43
1 44
1 45
1 46
1 47
1 48
1 49
1 50
1 51
1 52
1 53
1 54
1 55
1 56
1 57
1 58
1 59
1 60
1 61
1 62
1 63
1 64
1 65
1 66
1 67
1 68
1 69
1 70
1 71
1 72
1 73
1 74
1 75
1 76
1 77
1 78
1 79
1 80
1 81
1 82
1 83
1 84
1 85
1 86
1 87
1 88
1 89
1 90
1 91
1 92
1 93
1 94
1 95
1 96
1 97
1 98
1 99
1 100
1 101
1 102
1 103
1 104
1 105
1 106
1 107
1 108
1 109
1 110
1 111
1 112
1 113
1 114
1 115
1 116
1 117
1 118
1 119
1 120
1 121
1 122
1 123
1 124
1 125
1 126
1 127
1 128
1 129
1 130
1 131
1 132
1 133
1 134
1 135
1 136
1 137
1 138
1 139
1 140
1 141
1 142
1 143
1 144
1 145
1 146
1 147
1 148
1 149
1 150
1 151
1 152
1 153
1 154
1 155
1 156
1 157
1 158
1 159
1 160
1 161
1 162
1 163
1 164
1 165
1 166
1 167
1 168
1 169
1 170
1 171
1 172
1 173
1 174
1 175
1 176
1 177
1 178
1 179
1 180
1 181
1 182
1 183
1 184
1 185
1 186
1 187
1 188
1 189
1 190
1 191
1 192
1 193
1 194
1 195
1 196
1 197
1 198
1 199
1 200
1 201
1 202
1 203
1 204
1 205
1 206
1 207
1 208
1 209
1 210
1 211
1 212
1 213
1 214
1 215
1 216
1 217
1 218
1 219
1 220
1 221
1 222
1 223
1 224
1 225
1 226
1 227
1 228
1 229
1 230
1 231
1 232
1 233
1 234
1 235
1 236
1 237
1 238
1 239
1 240
1 241
1 242
1 243
1 244
1 245
1 246
1 247
1 248
1 249
1 250
1 251
1 252
1 253
1 254
1 255
1 256
1 257
1 258
1 259
1 260
1 261
1 262
1 263
1 264
1 265

POINT_DATA 266
SCALARS id int 1
LOOKUP_TABLE default
1
2
3
5
6
7
8
10
12
13
14
17
18
19
20
21
22
23
24
25
26
27
29
31
33
34
35
36
37
38
40
41
42
43
44
46
50
51
52
53
54
55
56
57
58
59
60
63
64
65
66
67
68
69
71
72
74
76
78
79
80
84
85
87
88
89
90
91
93
95
96
99
100
101
102
103
104
105
106
107
109
111
112
113
115
117
118
119
120
122
123
124
125
126
127
128
129
130
131
132
133
134
135
136
137
138
139
140
141
144
145
146
148
149
150
151
152
153
154
155
156
158
160
161
162
163
164
165
166
167
168
169
170
172
175
177
178
179
181
182
183
184
185
186
187
189
191
192
193
194
195
197
198
199
200
201
203
204
205
206
207
209
210
212
213
214
216
217
218
219
220
221
222
225
227
228
229
230
231
232
234
235
237
238
239
240
241
242
244
245
246
247
248
249
251
253
254
255
256
257
259
261
262
263
264
266
269
270
271
272
273
274
275
276
277
278
279
280
282
283
286
287
288
289
290
291
292
293
294
295
296
297
298
299
301
302
303
304
305
307
308
309
310
311
312
313
314
316
317
318
319
320
321
322
323
325
327
330
332
333
334
336
338
339
340
341

SCALARS type int 1
LOOKUP_TABLE default
1
1
1
1
1
1
1
1
1
1
1
1
1
1
1
1
1
1
1
1
1
1
1
1
1
1
1
1
1
1
1
1
1
1
1
1
1
1
1
1
1
1
1
1
1
1
1
1
1
1
1
1
1
1
1
1
1
1
1
1
1
1
1
1
1
1
1
1
1
1
1
1
1
1
1
1
1
1
1
1
1
1
1
1
1
1
1
1
1
1
1
1
1
1
1
1
1
1
1
1
1
1
1
1
1
1
1
1
1
1
1
1
1
1
1
1
1
1
1
1
1
1
1
1
1
1
1
1
1
1
1
1
1
1
1
1
1
1
1
1
1
1
1
1
1
1
1
1
1
1
1
1
1
1
1
1
1
1
1
1
1
1
1
1
1
1
1
1
1
1
1
1
1
1
1
1
1
1
1
1
1
1
1
1
1
1
1
1
1
1
1
1
1
1
1
1
1
1
1
1
1
1
1
1
1
1
1
1
1
1
1
1
1
1
1
1
1
1
1
1
1
1
1
1
1
1
1
1
1
1
1
1
1
1
1
1
1
1
1
1
1
1
1
1
1
1
1
1
1
1
1
1
1
1
1
1
1
1
1
1
1
1
1
1
1
1

SCALARS radius float 1
LOOKUP_TABLE default
0.0005
0.0005
0.0005
0.0005
0.0005
0.0005
0.0005
0.0005
0.0005
0.0005
0.0005
0.0005
0.0005
0.0005
0.0005
0.0005
0.0005
0.0005
0.0005
0.0005
0.0005
0.0005
0.0005
0.0005
0.0005
0.0005
0.0005
0.0005
0.0005
0.0005
0.0005
0.0005
0.0005
0.0005
0.0005
0.0005
0.0005
0.0005
0.0005
0.0005
0.0005
0.0005
0.0005
0.0005
0.0005
0.0005
0.0005
0.0005
0.0005
0.0005
0.0005
0.0005
0.0005
0.0005
0.0005
0.0005
0.0005
0.0005
0.0005
0.0005
0.0005
0.0005
0.0005
0.0005
0.0005
0.0005
0.0005
0.0005
0.0005
0.0005
0.0005
0.0005
0.0005
0.0005
0.0005
0.0005
0.0005
0.0005
0.0005
0.0005
0.0005
0.0005
0.0005
0.0005
0.0005
0.0005
0.0005
0.0005
0.0005
0.0005
0.0005
0.0005
0.0005
0.0005
0.0005
0.0005
0.0005
0.0005
0.0005
0.0005
0.0005
0.0005
0.0005
0.0005
0.0005
0.0005
0.0005
0.0005
0.0005
0.0005
0.0005
0.0005
0.0005
0.0005
0.0005
0.0005
0.0005
0.0005
0.0005
0.0005
0.0005
0.0005
0.0005
0.0005
0.0005
0.0005
0.0005
0.0005
0.0005
0.0005
0.0005
0.0005
0.0005
0.0005
0.0005
0.0005
0.0005
0.0005
0.0005
0.0005
0.0005
0.0005
0.0005
0.0005
0.0005
0.0005
0.0005
0.0005
0.0005
0.0005
0.0005
0.0005
0.0005
0.0005
0.0005
0.0005
0.0005
0.0005
0.0005
0.0005
0.0005
0.0005
0.0005
0.0005
0.0005
0.0005
0.0005
0.0005
0.0005
0.0005
0.0005
0.0005
0.0005
0.0005
0.0005
0.0005
0.0005
0.0005
0.0005
0.0005
0.0005
0.0005
0.0005
0.0005
0.0005
0.0005
0.0005
0.0005
0.0005
0.0005
0.0005
0.0005
0.0005
0.0005
0.0005
0.0005
0.0005
0.0005
0.0005
0.0005
0.0005
0.0005
0.0005
0.0005
0.0005
0.0005
0.0005
0.0005
0.0005
0.0005
0.0005
0.0005
0.0005
0.0005
0.0005
0.0005
0.0005
0.0005
0.0005
0.0005
0.0005
0.0005
0.0005
0.0005
0.0005
0.0005
0.0005
0.0005
0.0005
0.0005
0.0005
0.0005
0.0005
0.0005
0.0005
0.0005
0.0005
0.0005
0.0005
0.0005
0.0005
0.0005
0.0005
0.0005
0.0005
0.0005
0.0005
0.0005
0.0005
0.0005
0.0005
0.0005
0.0005
0.0005
0.0005
0.0005
0.0005
0.0005
0.0005
0.0005
0.0005
0.0005
0.0005
0.0005
0.0005
0.0005

SCALARS mass float 1
LOOKUP_TABLE default
1.46608e-07
1.46608e-07
1.46608e-07
1.46608e-07
1.46608e-07
1.46608e-07
1.46608e-07
1.46608e-07
1.46608e-07
1.46608e-07
1.46608e-07
1.46608e-07
1.46608e-07
1.46608e-07
1.46608e-07
1.46608e-07
1.46608e-07
1.46608e-07
1.46608e-07
1.46608e-07
1.46608e-07
1.46608e-07
1.46608e-07
1.46608e-07
1.46608e-07
1.46608e-07
1.46608e-07
1.46608e-07
1.46608e-07
1.46608e-07
1.46608e-07
1.46608e-07
1.46608e-07
1.46608e-07
1.46608e-07
1.46608e-07
1.46608e-07
1.46608e-07
1.46608e-07
1.46608e-07
1.46608e-07
1.46608e-07
1.46608e-07
1.46608e-07
1.46608e-07
1.46608e-07
1.46608e-07
1.46608e-07
1.46608e-07
1.46608e-07
1.46608e-07
1.46608e-07
1.46608e-07
1.46608e-07
1.46608e-07
1.46608e-07
1.46608e-07
1.46608e-07
1.46608e-07
1.46608e-07
1.46608e-07
1.46608e-07
1.46608e-07
1.46608e-07
1.46608e-07
1.46608e-07
1.46608e-07
1.46608e-07
1.46608e-07
1.46608e-07
1.46608e-07
1.46608e-07
1.46608e-07
1.46608e-07
1.46608e-07
1.46608e-07
1.46608e-07
1.46608e-07
1.46608e-07
1.46608e-07
1.46608e-07
1.46608e-07
1.46608e-07
1.46608e-07
1.46608e-07
1.46608e-07
1.46608e-07
1.46608e-07
1.46608e-07
1.46608e-07
1.46608e-07
1.46608e-07
1.46608e-07
1.46608e-07
1.46608e-07
1.46608e-07
1.46608e-07
1.46608e-07
1.46608e-07
1.46608e-07
1.46608e-07
1.46608e-07
1.46608e-07
1.46608e-07
1.46608e-07
1.46608e-07
1.46608e-07
1.46608e-07
1.46608e-07
1.46608e-07
1.46608e-07
1.46608e-07
1.46608e-07
1.46608e-07
1.46608e-07
1.46608e-07
1.46608e-07
1.46608e-07
1.46608e-07
1.46608e-07
1.46608e-07
1.46608e-07
1.46608e-07
1.46608e-07
1.46608e-07
1.46608e-07
1.46608e-07
1.46608e-07
1.46608e-07
1.46608e-07
1.46608e-07
1.46608e-07
1.46608e-07
1.46608e-07
1.46608e-07
1.46608e-07
1.46608e-07
1.46608e-07
1.46608e-07
1.46608e-07
1.46608e-07
1.46608e-07
1.46608e-07
1.46608e-07
1.46608e-07
1.46608e-07
1.46608e-07
1.46608e-07
1.46608e-07
1.46608e-07
1.46608e-07
1.46608e-07
1.46608e-07
1.46608e-07
1.46608e-07
1.46608e-07
1.46608e-07
1.46608e-07
1.46608e-07
1.46608e-07
1.46608e-07
1.46608e-07
1.46608e-07
1.46608e-07
1.46608e-07
1.46608e-07
1.46608e-07
1.46608e-07
1.46608e-07
1.46608e-07
1.46608e-07
1.46608e-07
1.46608e-07
1.46608e-07
1.46608e-07
1.46608e-07
1.46608e-07
1.46608e-07
1.46608e-07
1.46608e-07
1.46608e-07
1.46608e-07
1.46608e-07
1.46608e-07
1.46608e-07
1.46608e-07
1.46608e-07
1.46608e-07
1.46608e-07
1.46608e-07
1.46608e-07
1.46608e-07
1.46608e-07
1.46608e-07
1.46608e-07
1.46608e-07
1.46608e-07
1.46608e-07
1.46608e-07
1.46608e-07
1.46608e-07
1.46608e-07
1.46608e-07
1.46608e-07
1.46608e-07
1.46608e-07
1.46608e-07
1.46608e-07
1.46608e-07
1.46608e-07
1.46608e-07
1.46608e-07
1.46608e-07
1.46608e-07
1.46608e-07
1.46608e-07
1.46608e-07
1.46608e-07
1.46608e-07
1.46608e-07
1.46608e-07
1.46608e-07
1.46608e-07
1.46608e-07
1.46608e-07
1.46608e-07
1.46608e-07
1.46608e-07
1.46608e-07
1.46608e-07
1.46608e-07
1.46608e-07
1.46608e-07
1.46608e-07
1.46608e-07
1.46608e-07
1.46608e-07
1.46608e-07
1.46608e-07
1.46608e-07
1.46608e-07
1.46608e-07
1.46608e-07
1.46608e-07
1.46608e-07
1.46608e-07
1.46608e-07
1.46608e-07
1.46608e-07
1.46608e-07
1.46608e-07
1.46608e-07
1.46608e-07
1.46608e-07
1.46608e-07
1.46608e-07
1.46608e-07
1.46608e-07
1.46608e-07
1.46608e-07
1.46608e-07
1.46608e-07
1.46608e-07
1.46608e-07
1.46608e-07
1.46608e-07

VECTORS velocity float
0.0160839 -0.0024255 -0.00263966
0.000404089 0.0219688 -0.00627697
0.0139672 0.0127686 -0.00392733
-0.00140925 0.0017361 -0.00174017
0.000135014 -0.0160077 -0.0176119
0.00276143 0.0150518 0.00155508
0.00224673 -0.000395497 -0.00186966
0.000528722 0.00017895 0.00064591
0.00552016 0.000859335 -0.00133265
0.00333185 0.00486188 -0.00154039
-0.00254588 -2.97545e-05 -0.00102581
0.000334177 -0.00936943 0.0224075
0.000890431 0.021867 0.00778354
-0.000645746 7.21441e-05 -0.000664655
-0.0175704 -0.0293217 -0.00608713
-0.0018235 -0.00150286 -0.000102562
0.000749594 0.000523943 -0.000463762
4.41805e-05 -0.000560042 -0.00198893
0.00240045 0.00104833 0.00232062
0.00367631 0.00458105 0.000608043
0.00369208 0.0002112 -0.00513965
-0.0966741 -0.0106483 -0.0163845
-0.0050067 -0.00383978 -0.0211619
-0.0297992 0.100277 0.683754
0.00515338 0.00117455 0.000163669
-5.25974e-05 -0.000343042 0.000200523
0.000821445 0.00669362 0.0240621
-0.00010169 0.00250091 -0.000568368
-0.0217923 -0.0116814 0.00511773
0.000988338 0.0125675 0.00142238
0.0051051 -0.00414733 0.000337243
0.0110646 0.0106045 -0.00595681
0.00291909 0.00430484 -0.00165324
0.12427 -0.0570182 -0.336215
0.00967346 0.00839692 -0.00298217
0.000884812 0.0202921 -0.0063615
0.00101844 -0.00264906 -0.0235286
0.00562284 0.00111878 -0.000805731
-0.00127031 0.016946 0.00707245
0.00179971 0.0220013 0.000803088
0.00012681 -0.000158141 -0.00032027
0.0110273 0.00569727 -0.000419564
0.0078062 0.00406801 0.00041169
-0.0198672 0.00552918 0.00282684
0.00217329 0.000954301 -0.00128195
0.0043361 0.00402168 0.0050363
-0.00213126 0.000938669 -0.000655526
0.000679257 -0.0247051 0.00194748
0.00244773 0.0119276 -0.00507879
0.00256152 0.00453137 0.00363005
0.00479936 0.000587191 -6.11511e-06
0.00597117 0.00964603 0.00555307
0.0086658 0.00307524 -0.00131396
-0.00664764 -0.00219007 -0.00483765
-0.0040124 -0.00193449 -3.27477e-05
0.002511 0.00584221 -0.00069873
7.68707e-05 0.00031838 -0.000127697
3.20038e-06 -0.000234192 -0.000670494
0.00190465 0.00206139 -0.00514119
-0.00720522 -0.00156565 -0.00502107
0.00185054 0.000302171 -0.00217545
0.00493528 0.00110972 -0.000229458
0.00548556 0.00138728 0.000283806
-0.00128617 -0.00156435 -0.00173938
-0.00506223 -0.00392375 -0.00718637
0.00865544 -0.00516063 -0.00334637
0.00540945 -0.000300405 -0.00028795
-0.00129758 -0.00160148 -0.00251304
0.000123681 -0.0169449 0.018332
0.00146778 0.00579736 -0.024105
-0.000801013 -0.000703325 -0.000196335
0.00272723 0.000257438 -0.00269387
0.00320224 0.00078949 0.000248565
0.00105849 -0.00610963 0.0120465
0.000193759 0.000257971 0.000140867
0.000124694 -0.0253275 -0.00788206
0.000379141 0.0208229 0.0136937
0.00727961 0.00625963 -0.0015222
0.00262383 0.000366583 0.000753149
-3.3487e-15 2.53691e-14 -8.02804e-14
0.00931095 0.00995223 -0.00126867
0.000222789 -0.0239379 0.00683248
0.0060247 0.00111714 -0.000924043
0.00791424 0.00726368 -0.00173391
2.53526e-05 -0.0151014 -0.020736
0.00235358 0.0012024 -0.000763083
-0.0107496 -0.00140169 -0.012065
0.000520162 -0.0208497 -0.0107627
-0.00048811 -0.00206561 -0.00194145
-0.00313514 -0.000288631 0.00295563
-0.000717696 0.00390312 -0.00147535
0.00252926 -0.00398184 -0.00134499
0.0153493 0.0128392 -0.00231359
0.00693592 0.0016914 -0.00297138
0.00472712 -0.00143701 -0.00276267
0.000478548 -0.00956934 -0.0215351
0.0214819 -0.045831 -0.00749367
0.013632 0.0128483 -0.00474648
0.00140582 -0.000880887 -0.000777223
0.000659184 -0.000169926 -0.000205016
0.010731 0.00171033 -0.00300078
0.0602416 0.0172074 -0.0431538
-0.00080401 0.000467888 0.00172964
0.00191187 0.000689656 -0.00361459
-0.0469028 -0.0185816 -0.0778677
0.0050622 0.000339441 -0.00588776
0.00476377 3.41724e-05 -0.000481133
0.00433773 0.00553548 0.0020184
0.0078356 -0.0102218 -0.000210618
-0.000452512 -0.0169582 -0.0164767
0.00278482 0.020629 -0.00450175
0.00436392 0.00202767 0.00105317
0.000573425 -0.000676685 0.00103701
0.00563866 -0.000402954 -0.00261084
0.00299573 -0.000349164 -0.00102612
0.020734 0.0117549 0.0105751
-0.00606527 0.023033 -0.0074584
0.00108246 -0.00143553 0.016476
0.00103223 -0.0218955 0.000821271
-4.23e-15 2.50374e-14 1.50107e-13
0.0567771 -0.161737 0.179541
-0.000982229 0.000138337 -0.00758275
0.000355511 -0.00149185 0.00102375
0.00573537 -0.0036167 0.000124531
-9.73064e-317 -9.74665e-317 -1.68644e-13
2.97464e-14 -6.36447e-14 -2.30363e-13
-9.48251e-05 0.0240709 0.0101904
6.40624e-05 -0.00176941 0.00172376
0.00430409 -9.81031e-05 -0.00269084
0.000628337 -0.00429192 -0.0236556
-0.00175875 -0.000672762 -0.00358904
-0.00192571 -0.00194518 -0.000530447
0.00489025 0.000149449 -0.000256894
-0.0388953 -0.0146519 -0.018728
-1.34123e-06 -0.0229254 -0.00929716
0.0207531 0.0135547 -0.0109471
0.00764189 -0.000133148 0.00125797
0.000310342 -0.00826346 0.0239763
0.00505269 0.00385559 0.00109317
0.00505469 0.00382295 0.000561568
0.00545495 0.00157722 -0.00142282
-0.000242712 0.000423634 -0.000404715
0.00024709 0.00072817 0.00341812
0.00138345 0.000559219 -0.000764398
0.00111121 -0.012568 0.0170607
0.000273877 -0.0168605 -0.0178373
-0.000954355 -0.00435759 -0.000397996
0.0637319 -0.222168 0.516973
0.00117158 -0.0163128 0.0121287
0.00976823 0.00505341 -0.00241134
0.00583794 -0.00210162 0.00160393
0.000272052 0.0140134 -0.0214049
-0.00274987 -0.0065002 0.00611166
5.42239e-05 6.94723e-05 -4.13304e-05
0.00521839 0.0141677 -0.0104508
0.00873874 -0.00180291 -0.00187581
-0.000332752 0.000189588 -0.000392878
-0.000433374 0.00142319 -0.0008733
0.00142661 0.000486378 0.00330483
0.00113828 0.00137368 0.000665661
0.00675008 -0.00326498 -0.00375039
0.00422007 0.000773479 -0.00329709
-0.015263 0.00316026 -0.00776925
0.00399351 0.00611934 0.000162793
0.00206653 0.000351478 -0.00256168
0.0276498 -0.00254406 0.0198337
0.00535097 0.00350151 0.00109888
-0.00500761 -0.00160807 0.00118963
0.000445119 0.0173087 -0.0171644
0.0113952 0.0449685 -0.0420862
0.00546379 0.000519719 -1.323e-05
0.00515202 0.00164039 -0.00415996
0.00385647 0.00301653 -0.00399064
0.00309821 0.00140672 -0.000632568
0.00206922 0.00485002 -0.0018442
0.00134755 0.0230768 0.00334838
-0.000150242 0.000472182 -2.94103e-05
7.21931e-05 0.000954761 0.00242833
0.000281815 0.000279546 0.000317682
0.0010256 0.000568449 -0.000350087
-0.0161034 -0.00153827 -0.0315741
-0.00108338 -0.000334872 -0.00149914
-0.000362451 -0.024835 -0.00691756
0.00613094 0.0068567 0.000115733
0.00300787 -0.00214613 -0.00354867
0.000445594 0.0161394 0.0173889
2.68616e-06 0.0290883 -0.000510007
-0.000145998 0.00105699 -0.000333252
0.000637781 -0.0247611 -0.00102244
0.00320941 0.00280702 0.00659863
-1.25904e-14 -2.90356e-15 -1.70359e-13
0.00263455 -0.0236187 -0.00623562
-0.0035828 0.000949351 -0.00424505
-0.000126126 0.000166664 -2.84596e-05
-5.93811e-06 0.000641009 -0.000395992
-0.00114357 -3.49888e-05 0.00264121
0.000137894 0.00271942 -0.00268383
-0.000629242 -0.00225496 -0.00202687
0.00103299 0.0228116 0.000136527
1.93538e-09 0.0287031 0.00370583
0.00280646 0.0022667 -0.00108621
0.0124252 0.0157138 0.00170321
0.00512834 0.00154509 -0.00124952
-0.00103389 0.000548755 -0.0033984
0.000842132 -0.000436662 -0.000708849
0.000358352 0.0125234 0.00478434
0.00412362 -1.82767e-06 0.00151926
-0.00130918 0.00330731 -0.00478227
-0.000138763 8.58624e-05 0.00122696
0.00049191 -0.00153158 0.00307035
-0.0147492 -0.00466397 -0.0831641
0.00520037 0.0028444 -0.00137375
0.00129737 -0.00573136 -0.0161181
-2.2386e-06 0.000231598 6.34075e-05
0.00430776 0.00513863 9.11829e-05
-0.00204401 -0.00273378 -0.00568401
0.00251981 0.00573866 -0.000847197
0.00159622 0.00434416 -0.0018583
9.74258e-317 -9.72051e-317 7.04906e-13
0.00468293 6.88779e-05 -0.00140964
0.00220361 0.00388145 0.00105268
0.00203451 0.000348776 -0.00161771
0.00546326 0.003283 0.00131202
-9.69406e-317 9.51793e-317 -1.91574e-12
-0.00129397 -0.000320942 0.000266442
0.00236316 -0.00958378 -0.0122454
0.000272643 -0.000509651 -0.000632186
0.0137407 0.000519217 -0.021107
0.00499378 0.000736602 -0.000376023
0.00197925 0.00763622 0.0140537
0.00444671 0.00583283 -9.05749e-05
0.000863431 2.20943e-05 -0.00278771
0.00229976 -0.00209665 0.00748323
0.00298006 -0.0048023 -0.00250879
0.00734861 -0.0184725 -0.00797076
-0.0044493 0.00373246 0.000590821
0.00586505 0.00277055 0.000753819
0.00648686 0.0027017 0.00011911
0.00285116 -0.000472667 0.00574525
-0.0160188 -0.00466932 0.00270036
0.00392642 -0.00193352 -0.00257412
0.003239 -0.000209601 -0.00506779
-0.0296705 0.0362706 0.0815941
0.00152653 -0.00325983 -0.0352743
0.000327876 -0.0203448 0.0143274
0.00593378 -0.000525362 -0.00154186
-8.41253e-05 0.0286705 -0.0112638
0.0102472 0.00620468 0.00352417
0.0103269 0.0055579 -0.00566112
0.00566357 -0.000298318 -0.00240423
-0.00160664 -0.000593668 0.00326319
0.00308462 0.000591077 -2.19753e-05
-0.00664397 -0.0573474 -0.0383408
0.00363381 0.00144838 -0.00319583
-0.000394023 0.0005388 0.00256626
-0.0217333 0.0199146 -0.0197346
0.00308206 -0.000703357 -0.00155103
0.00126184 0.00117239 -0.000530609
0.00397116 -0.000795224 -0.0020883
-0.00157604 -0.000559772 0.000180727
0.00581041 0.00121251 -0.00102337
0.0149323 0.00900958 0.00286455
-0.00141867 0.00179021 0.00337495
-0.000206605 0.000344708 -0.000598665
0.00262811 0.00510407 -0.00780446
-0.000594392 -0.0100695 -0.00830294

VECTORS force float
-3.21179e-06 1.63694e-06 3.93123e-06
1.30719e-08 -4.99368e-08 -6.77923e-10
-4.80375e-07 7.27894e-07 -1.88166e-08
-7.1926e-07 -2.62955e-07 3.38518e-07
-4.61829e-08 -2.65643e-09 3.53932e-08
-2.3889e-06 9.46347e-07 -1.47874e-06
-2.53148e-07 -2.13136e-07 -1.4453e-06
4.37692e-06 3.47317e-06 -7.69411e-06
-8.47023e-08 -9.2384e-08 6.68573e-07
-6.23889e-07 2.03154e-07 1.15854e-06
3.33823e-07 -4.66428e-08 3.52876e-07
-2.45614e-09 8.1216e-09 1.38328e-08
-5.70283e-07 -5.21761e-08 1.86189e-07
-1.26791e-07 -5.10066e-07 1.05713e-06
0.0 0.0 -1.43822e-06
7.03188e-06 -3.41582e-06 1.32605e-06
-5.43708e-07 1.4779e-06 -2.78688e-06
1.18925e-07 -4.25022e-07 -1.00929e-06
-1.18391e-07 -3.31608e-08 4.27046e-08
-9.72175e-09 -1.47969e-07 1.09136e-06
-1.57288e-08 1.6778e-07 -2.92027e-07
0.0 0.0 -1.43822e-06
0.0 0.0 -1.43822e-06
0.0 0.0 -1.43822e-06
7.0822e-07 1.92008e-08 -5.88002e-08
-1.32296e-07 8.27809e-07 -2.35577e-07
-1.36756e-08 1.65792e-08 4.94572e-09
-5.05113e-08 1.3334e-06 -1.18775e-06
0.0 0.0 -1.43822e-06
-1.31196e-08 1.08553e-07 3.76179e-08
4.54903e-05 -1.62347e-06 -0.000174414
-1.02628e-07 -1.84175e-07 1.62168e-07
-1.01986e-06 -1.57303e-06 5.78184e-07
0.0 0.0 -1.43822e-06
-2.40796e-07 4.10134e-07 -1.2676e-07
2.26213e-07 5.32384e-06 -2.42815e-06
-2.05564e-08 3.96726e-08 6.09004e-08
1.84163e-07 1.86381e-08 -2.63217e-07
0.0 0.0 -1.43822e-06
4.00119e-07 3.9283e-07 3.89442e-06
1.00636e-06 7.20292e-08 -1.17744e-06
-4.82472e-07 6.16909e-07 -4.25918e-07
-9.95376e-07 4.84211e-06 -1.71271e-06
5.42164e-07 -5.17389e-07 -3.62668e-06
-3.34933e-08 -1.40989e-07 -5.31175e-08
2.47033e-07 1.00623e-07 4.99743e-07
9.26362e-08 3.92757e-08 -1.46125e-06
2.90704e-08 2.33336e-08 2.32979e-08
-4.77194e-10 -9.89659e-08 7.69874e-08
-4.94142e-08 -6.85613e-08 -6.20805e-08
-1.16957e-07 5.52595e-07 1.12984e-07
1.71967e-07 6.55111e-07 -1.19194e-06
-3.42853e-07 -1.01112e-06 5.1724e-07
-1.92125e-06 1.4226e-06 1.68465e-06
2.45104e-06 -1.92683e-06 4.18425e-07
1.31469e-07 6.43574e-08 -1.24942e-06
2.24186e-07 -7.71426e-08 1.761e-07
7.48493e-07 1.9118e-07 -7.84788e-08
1.52049e-05 7.31309e-06 -1.86133e-05
-4.4857e-07 -6.03036e-07 -1.4781e-06
3.2367e-07 -5.86302e-07 3.35789e-07
-7.4357e-07 -7.16864e-08 -5.07989e-07
2.7037e-07 6.94842e-08 2.28684e-07
-2.82233e-07 1.9056e-06 -6.85019e-07
5.41785e-07 -1.00053e-09 -6.25656e-07
5.53306e-08 6.27226e-08 8.324e-08
-8.89708e-08 -2.44598e-07 1.23411e-06
-3.29957e-06 1.79053e-06 3.55013e-06
-1.08355e-08 -1.10157e-07 1.44927e-07
-4.17588e-07 -1.51228e-07 -8.8273e-07
2.09564e-06 1.08709e-06 -1.49637e-06
7.85171e-07 -5.73857e-07 3.15335e-07
2.02486e-07 5.98213e-08 -1.57976e-08
-9.77513e-09 -1.62584e-08 -2.71977e-08
6.52703e-06 -1.89754e-06 -4.38174e-06
-5.72642e-10 -8.97082e-09 1.26734e-08
-1.46967e-09 8.96703e-09 -1.42669e-08
1.30357e-06 -7.72214e-07 -1.9413e-07
-2.95244e-09 8.79972e-08 -1.02089e-07
-9.47678e-19 -1.94871e-19 -2.56227e-20
2.92723e-07 -5.68853e-07 -1.07492e-06
-1.20197e-09 -3.39587e-09 1.58562e-08
-1.56945e-09 4.65458e-07 5.53486e-08
2.75178e-07 4.16022e-07 -3.60697e-07
3.17229e-08 9.80315e-08 1.97366e-07
7.23254e-06 1.94158e-06 -3.03487e-06
5.91507e-08 -3.93032e-07 -1.0978e-06
-2.07698e-09 -1.99081e-08 6.57874e-09
-1.45311e-07 1.97198e-08 -1.69597e-07
-4.30946e-09 6.57695e-07 -1.16521e-06
-4.23683e-07 -1.83603e-07 2.49693e-07
1.02572e-07 2.25894e-08 -4.7434e-07
8.62028e-07 -1.71929e-07 6.58234e-09
-1.11247e-07 -8.23488e-07 2.12848e-06
-2.25129e-09 1.86616e-06 -4.02325e-07
-3.05606e-09 -1.55649e-08 -1.65698e-09
0.0 0.0 -1.43822e-06
-1.09494e-06 1.66159e-07 -7.68411e-07
4.03777e-07 9.01528e-08 7.47346e-08
2.10176e-07 -1.74258e-06 -3.20769e-06
-2.36885e-07 9.77488e-07 -2.08191e-07
0.0 0.0 -1.43822e-06
-3.3029e-07 -3.09759e-07 -3.44399e-07
-5.22773e-08 -3.57091e-08 1.4862e-08
-6.04934e-08 -4.1389e-07 -9.73021e-07
0.0 0.0 -1.43822e-06
1.79819e-06 6.51511e-06 -5.32062e-06
-7.74653e-07 -9.05752e-07 -6.39878e-07
-7.28745e-07 1.77901e-06 -1.10119e-07
-1.61119e-08 -4.18185e-08 -4.94703e-09
-1.33716e-06 -4.05142e-06 4.0836e-07
5.06308e-07 -1.9415e-06 3.34162e-07
-2.69347e-07 -3.71241e-06 -4.21882e-07
-9.45027e-07 1.43678e-06 3.33461e-07
5.17972e-07 7.76475e-07 -4.94274e-06
0.0 0.0 -1.43822e-06
3.95625e-07 2.38368e-07 -8.17317e-08
-1.87838e-08 6.22122e-09 2.51518e-08
-4.67038e-09 -8.16564e-08 3.12799e-08
-2.95138e-20 -2.46169e-21 -4.23516e-22
0.0 0.0 -1.43822e-06
-2.12036e-07 3.58994e-07 -9.11649e-08
-8.67907e-07 -3.69677e-06 -1.08227e-06
1.92119e-07 -2.20277e-07 -1.11786e-06
0.0 0.0 0.0
4.14993e-19 4.53692e-20 3.9387e-20
1.03701e-09 9.06586e-09 -1.46691e-08