# vtk DataFile Version 3.0
LIGGGHTS particles timestep 4000000
ASCII
DATASET POLYDATA
POINTS 297 float
0.0206395 0.0153593 0.0163176
0.0249595 0.0184676 0.00725065
0.0185962 0.014614 0.011951
0.0234882 0.0177997 0.0165576
0.025108 0.0166231 0.0161634
0.0197836 0.0190891 0.00719018
0.0171403 0.0152476 0.0138115
0.0217772 0.0140849 0.0143118
0.0203625 0.0241335 0.0130854
0.0188196 0.0194564 0.0167373
0.0151048 0.0220315 0.0169572
0.017054 0.0222892 0.0156642
0.0225198 0.0173258 0.0155942
0.0275717 0.0211349 0.0152918
0.0234202 0.0233458 0.0155001
0.0237619 0.0219072 0.0173363
0.0248601 0.022016 0.0163234
0.0155887 0.0229078 0.0170328
0.0150983 0.0225096 0.0156066
0.0218742 0.0231674 0.0148656
0.0181489 0.0184322 0.0159015
0.0176798 0.0152743 0.0160733
0.0201542 0.0230275 0.0161785
0.0177454 0.0203959 0.0157513
0.017151 0.0231063 0.0162335
0.0178017 0.0213481 0.0172277
0.017423 0.0190475 0.0168202
0.0226977 0.0199641 0.0158474
0.0278278 0.0189726 0.0250276
0.013672 0.0219612 0.0158746
0.0265362 0.0234006 0.0113608
0.021238 0.0240678 0.0135417
0.0229304 0.0182873 0.0173518
0.0151421 0.0228211 0.0138193
0.01811 0.0151075 0.0135731
0.0273904 0.021787 0.0147622
0.0167653 0.0233811 0.0125257
0.0244181 0.0212512 0.0180715
0.0196328 0.0219516 0.0168094
0.0176972 0.0146151 0.0143496
0.01679 0.0161948 0.0149262
0.0223112 0.0224683 0.0143388
0.0237831 0.019641 0.0159103
0.0202247 0.0199869 0.007326
0.0151224 0.0185306 0.016768
0.0176632 0.0239574 0.0163455
0.0194067 0.0144871 0.0141058
0.0195738 0.0226042 0.0154754
0.0212673 0.0232657 0.0125776
0.0212783 0.022005 0.0158508
0.0242054 0.0155961 0.00892755
0.0157621 0.0208087 0.0157861
0.0258429 0.0194865 0.0167283
0.0211278 0.0147913 0.0145934
0.0241218 0.0186966 0.0162982
0.023146 0.014747 0.0147526
0.0242745 0.0171725 0.0165913
0.0271288 0.00945283 0.0344542
0.0162972 0.0226111 0.0163926
0.0164819 0.0227393 0.0139507
0.0146315 0.0217524 0.0160634
0.019641 0.0154139 0.0163192
0.025061 0.017793 0.0165848
0.0230487 0.0165869 0.0160121
0.0157305 0.0193242 0.0167827
0.0181065 0.0244441 0.0138245
0.0198424 0.0242118 0.0163986
0.0258826 0.0183498 0.0167183
0.0202278 0.0238298 0.0155589
0.018526 0.0235949 0.0140833
0.0179306 0.019909 0.0168044
0.020836 0.0231927 0.0130475
0.0228654 0.0156755 0.0163963
0.0169587 0.0171387 0.0164257
0.0237756 0.0157126 0.0145807
0.0209068 0.0233317 0.0147727
0.0213531 0.0231911 0.0158359
0.0222548 0.0217927 0.0150643
0.0459161 0.022348 0.048951
0.0231716 0.0189711 0.0164566
0.0193965 0.0241131 0.0128839
0.0182328 0.0153471 0.0169622
0.0192735 0.0243552 0.0138465
0.0221759 0.0175794 0.0164982
0.0202379 0.019287 0.0167542
0.0220635 0.0238522 0.0140425
0.0134605 0.0200036 0.0166622
0.0260009 0.0227466 0.00922913
0.0245994 0.0165382 0.0151623
0.0215214 0.0228944 0.0137456
0.0234158 0.022842 0.00936397
0.0176339 0.0158142 0.0145489
0.0281511 0.0185626 0.0157969
0.0180397 0.0144054 0.0155227
0.0223134 0.0150269 0.0157683
0.0220009 0.0184898 0.0168744
0.0236969 0.0193685 0.017209
0.0170266 0.021745 0.0167351
0.016399 0.0179065 0.0158545
0.0131111 0.0211729 0.0163002
0.0173289 0.0148208 0.0129118
0.0169898 0.0196408 0.0159164
0.0171418 0.0233323 0.0143394
0.0159594 0.0198439 0.0159595
0.0202893 0.0140442 0.0130884
0.0166297 0.0170041 0.0154911
0.0144134 0.0220548 0.0176791
0.0199352 0.018334 0.0166966
0.025003 0.0188708 0.0167662
0.0204255 0.0142446 0.0167431
0.0226386 0.0209305 0.0155859
0.0219393 0.0234722 0.0130329
0.0192118 0.0153024 0.015143
0.0226517 0.0238047 0.0148385
0.0157939 0.0217537 0.0162882
0.0251164 0.0210503 0.0163626
0.01925 0.0200154 0.00731094
0.0177544 0.0233607 0.0171427
0.0158759 0.0222611 0.0145821
0.0158611 0.015122 0.0150291
0.0186911 0.0152076 0.0160844
0.0229323 0.0224106 0.015159
0.0224541 0.0231747 0.0156541
0.0240424 0.0214206 0.0161919
0.0176986 0.0240632 0.0126709
0.0228252 0.0169621 0.0170678
0.017772 0.0223928 0.0168922
0.0156825 0.0211849 0.0172114
0.0165782 0.0200328 0.0167391
0.0179637 0.0194142 0.0159358
0.0199937 0.0234762 0.0170588
0.0236952 0.0228793 0.0149451
0.0286219 0.0168034 0.0151364
0.112691 0.0188173 0.00572472
0.0166649 0.0143541 0.0139534
0.0204849 0.0154661 0.0153354
0.0210976 0.016152 0.0159147
0.0209245 0.0181778 0.0167121
0.0157331 0.0164282 0.0161041
0.0247655 0.0196102 0.0175266
0.0219718 0.0185012 0.00606129
0.0262712 0.0221556 0.00861188
0.0224043 0.0148171 0.0168312
0.0171457 0.00754741 0.0324924
0.00741284 0.0216896 0.0331987
0.0170938 0.0222553 0.0145761
0.0160718 0.0155731 0.0166096
0.0161215 0.0220833 0.0172236
0.022155 0.0148914 0.0147664
0.0193131 0.0209977 0.0163934
0.023117 0.0222561 0.0164364
0.0225369 0.0229909 0.0135464
0.0249426 0.0184221 0.018065
0.0200895 0.0162078 0.015907
0.0125054 0.0202948 0.0166078
0.0235994 0.0165389 0.0151643
0.0176105 0.0229163 0.0151198
0.0242223 0.016537 0.0181144
0.0172275 0.0242072 0.0135455
0.0163887 0.0235598 0.016695
0.0196608 0.0200977 0.0166564
0.027787 0.0203816 0.0156167
0.0228617 0.0182266 0.0158652
0.0292446 0.0150489 0.0128454
0.0210733 0.0238291 0.012459
0.0191189 0.0143789 0.0157237
0.0279766 0.0195029 0.0158075
0.0238687 0.0149876 0.0101666
0.0186438 0.0145814 0.0147452
0.0231523 0.0211381 0.0167058
0.0191873 0.0141979 0.0126419
0.0241469 0.0222962 0.0156261
0.0175796 0.0146149 0.0119495
0.0168377 0.0143036 0.0149186
0.0187282 0.0174637 0.00749661
0.0164352 0.0237369 0.0137652
0.014174 0.01534 0.015212
0.0191672 0.0238852 0.0147767
0.0174362 0.0212663 0.0153683
0.0249866 0.0200255 0.0166426
0.0175818 0.0244779 0.0179218
0.0214417 0.0147679 0.0162357
0.0190913 0.0161642 0.0158689
0.0178056 0.0239677 0.0146458
0.0203496 0.0242088 0.014085
0.0271765 0.0207291 0.0244081
0.0196147 0.0248506 0.0178978
0.0236252 0.0207036 0.0156243
0.0188859 0.0234821 0.0170998
0.0151035 0.0155935 0.0154805
0.0149132 0.0234487 0.0151711
0.0199847 0.0147218 0.0148875
0.0186584 0.0240418 0.0162981
0.0212426 0.0191578 0.0167873
0.0231868 0.0154284 0.0154825
0.019442 0.0136949 0.0134884
0.0234648 0.021571 0.015154
0.0230737 0.0153482 0.0139571
0.0190613 0.0178334 0.0165997
0.0164181 0.0156448 0.0156743
0.0245487 0.0168621 0.00776266
0.0217845 0.0155896 0.0166974
0.0258055 0.0205907 0.0169253
0.0192828 0.0235328 0.0157059
0.0135902 0.0159599 0.0157473
0.0177125 0.0178905 0.0166818
0.0262417 0.023068 0.00994109
0.0184121 0.0163166 0.0150203
0.0213653 0.017006 0.016362
0.0156667 0.0234754 0.0143628
0.027022 0.0228118 0.0133971
0.0228416 0.0160274 0.0147594
0.0144565 0.0200916 0.0166637
0.0234533 0.016117 0.0170759
0.0216669 0.0211127 0.0154468
0.0230776 0.0231492 0.0142837
0.0157221 0.0145292 0.014236
0.023488 0.0147517 0.0118547
0.0181518 0.0236503 0.0155291
0.0187925 0.0225061 0.0172959
0.0255046 0.0208256 0.00766958
0.0180313 0.022124 0.0178197
0.0227662 0.019809 0.0171297
0.0171616 0.0186524 0.0159397
0.0244533 0.0209732 0.0171071
0.0183806 0.0138932 0.0163109
0.0184426 0.0135144 0.0172342
0.0161661 0.0188668 0.0160071
0.0182592 0.0230601 0.016329
0.0158614 0.0231302 0.0133103
0.0202714 0.0244199 0.0172777
0.0204419 0.0233248 0.0107827
0.014088 0.0209818 0.016396
0.0167364 0.0206157 0.015663
0.0166255 0.0183428 0.0167258
0.0154007 0.0204193 0.0166332
0.0173475 0.0206994 0.0166173
0.0213894 0.0220487 0.0148282
0.0236666 0.0174263 0.0156367
0.0221008 0.0162635 0.0160098
0.019924 0.0232533 0.014801
0.0186459 0.0230426 0.0149081
0.0149304 0.0148923 0.0147272
0.0347564 0.0131786 0.0435188
0.0186063 0.0142396 0.0135602
0.0178481 0.0217144 0.0161616
0.0242774 0.0156012 0.0155534
0.0239834 0.0162935 0.0162124
0.0171891 0.0152046 0.0152048
0.00550493 0.0073559 0.0435188
0.0186225 0.0247267 0.0179216
0.0212079 0.0141708 0.0134943
0.0169028 0.0228244 0.0171602
0.0183096 0.0172812 0.0155755
0.0334739 0.0205208 0.0393871
0.0183183 0.0223745 0.0155758
0.0182057 0.015344 0.0152209
0.0141945 0.0227589 0.015259
0.0208826 0.0230798 0.00993847
0.0167974 0.0241235 0.0174127
0.0180872 0.014202 0.0127066
0.0155589 0.0216697 0.0153201
0.0163958 0.020995 0.0165367
0.0200873 0.0146107 0.015876
0.0186717 0.0216325 0.0168248
0.0192129 0.0227663 0.0163933
0.0214799 0.0153656 0.0153321
0.0174201 0.0177061 0.0157436
0.0165376 0.0216278 0.0151208
0.018162 0.0243515 0.0171172
0.0203993 0.0143856 0.0140417
0.0203307 0.0209452 0.0164137
0.023945 0.0202051 0.0167194
0.0182091 0.0164854 0.0162153
0.0203204 0.0213448 0.00785471
0.0189819 0.0187157 0.00718428
0.0221225 0.0190877 0.0159427
0.0159239 0.0236691 0.0175878
0.0196206 0.0214577 0.00796446
0.0200591 0.0227676 0.00934812
0.0246068 0.0174847 0.0175545
0.0234931 0.01542 0.0179211
0.0218479 0.0199588 0.0165084
0.0191573 0.0244444 0.0170887
0.0190948 0.0218668 0.0159499
0.0206087 0.0226075 0.0153931
0.048962 0.0408082 0.0851062
0.0221486 0.0208874 0.0167256
0.0183377 0.0207591 0.0164704
0.0240195 0.0183232 0.0174274
0.0164501 0.0237865 0.0148994
0.0201216 0.0219079 0.0159382
0.0203586 0.0173175 0.0164513
0.0175793 0.0161115 0.0155344
0.0185058 0.0239776 0.0131526
0.0176279 0.0139929 0.0135699
0.0158429 0.0231108 0.015317

VERTICES 297 594
1 0
1 1
1 2
1 3
1 4
1 5
1 6
1 7
1 8
1 9
1 10
1 11
1 12
1 13
1 14
1 15
1 16
1 17
1 18
1 19
1 20
1 21
1 22
1 23
1 24
1 25
1 26
1 27
1 28
1 29
1 30
1 31
1 32
1 33
1 34
1 35
1 36
1 37
1 38
1 39
1 40
1 41
1 42
1 43
1 44
1 45
1 46
1 47
1 48
1 49
1 50
1 51
1 52
1 53
1 54
1 55
1 56
1 57
1 58
1 59
1 60
1 61
1 62
1 63
1 64
1 65
1 66
1 67
1 68
1 69
1 70
1 71
1 72
1 73
1 74
1 75
1 76
1 77
1 78
1 79
1 80
1 81
1 82
1 83
1 84
1 85
1 86
1 87
1 88
1 89
1 90
1 91
1 92
1 93
1 94
1 95
1 96
1 97
1 98
1 99
1 100
1 101
1 102
1 103
1 104
1 105
1 106
1 107
1 108
1 109
1 110
1 111
1 112
1 113
1 114
1 115
1 116
1 117
1 118
1 119
1 120
1 121
1 122
1 123
1 124
1 125
1 126
1 127
1 128
1 129
1 130
1 131
1 132
1 133
1 134
1 135
1 136
1 137
1 138
1 139
1 140
1 141
1 142
1 143
1 144
1 145
1 146
1 147
1 148
1 149
1 150
1 151
1 152
1 153
1 154
1 155
1 156
1 157
1 158
1 159
1 160
1 161
1 162
1 163
1 164
1 165
1 166
1 167
1 168
1 169
1 170
1 171
1 172
1 173
1 174
1 175
1 176
1 177
1 178
1 179
1 180
1 181
1 182
1 183
1 184
1 185
1 186
1 187
1 188
1 189
1 190
1 191
1 192
1 193
1 194
1 195
1 196
1 197
1 198
1 199
1 200
1 201
1 202
1 203
1 204
1 205
1 206
1 207
1 208
1 209
1 210
1 211
1 212
1 213
1 214
1 215
1 216
1 217
1 218
1 219
1 220
1 221
1 222
1 223
1 224
1 225
1 226
1 227
1 228
1 229
1 230
1 231
1 232
1 233
1 234
1 235
1 236
1 237
1 238
1 239
1 240
1 241
1 242
1 243
1 244
1 245
1 246
1 247
1 248
1 249
1 250
1 251
1 252
1 253
1 254
1 255
1 256
1 257
1 258
1 259
1 260
1 261
1 262
1 263
1 264
1 265
1 266
1 267
1 268
1 269
1 270
1 271
1 272
1 273
1 274
1 275
1 276
1 277
1 278
1 279
1 280
1 281
1 282
1 283
1 284
1 285
1 286
1 287
1 288
1 289
1 290
1 291
1 292
1 293
1 294
1 295
1 296

POINT_DATA 297
SCALARS id int 1
LOOKUP_TABLE default
1
2
3
4
5
6
7
8
10
12
13
14
15
17
18
19
20
21
22
23
24
25
26
27
29
30
31
32
33
34
35
36
37
38
39
40
41
42
43
44
46
50
51
52
53
54
55
56
57
58
59
60
62
63
64
65
66
67
68
69
71
72
73
74
75
76
78
79
80
84
85
87
88
89
90
91
92
93
94
95
96
97
99
100
101
102
103
104
105
106
107
109
111
112
113
115
116
117
118
119
120
122
123
124
125
126
127
128
129
130
131
132
133
134
135
136
137
138
139
140
141
142
143
144
145
146
148
149
150
151
152
153
154
155
156
157
158
160
161
162
163
164
165
166
167
168
169
170
172
174
175
177
178
179
180
181
182
183
184
185
186
187
188
189
191
192
193
194
195
197
198
199
200
201
202
203
204
205
206
207
209
210
212
213
214
216
217
218
219
220
221
222
225
226
227
228
229
230
231
232
233
234
235
237
238
239
240
241
242
244
245
246
247
248
249
251
252
253
254
255
256
257
258
259
261
262
263
264
265
266
268
269
270
271
272
273
274
275
276
277
278
279
280
282
283
285
286
287
288
289
290
291
292
293
294
295
296
297
298
299
301
302
303
304
305
307
308
309
310
311
312
313
314
315
316
317
318
319
320
321
322
323
324
325
326
327
328
329
330
332
333
334
336
338
339
340
341

SCALARS type int 1
LOOKUP_TABLE default
1
1
1
1
1
1
1
1
1
1
1
1
1
1
1
1
1
1
1
1
1
1
1
1
1
1
1
1
1
1
1
1
1
1
1
1
1
1
1
1
1
1
1
1
1
1
1
1
1
1
1
1
1
1
1
1
1
1
1
1
1
1
1
1
1
1
1
1
1
1
1
1
1
1
1
1
1
1
1
1
1
1
1
1
1
1
1
1
1
1
1
1
1
1
1
1
1
1
1
1
1
1
1
1
1
1
1
1
1
1
1
1
1
1
1
1
1
1
1
1
1
1
1
1
1
1
1
1
1
1
1
1
1
1
1
1
1
1
1
1
1
1
1
1
1
1
1
1
1
1
1
1
1
1
1
1
1
1
1
1
1
1
1
1
1
1
1
1
1
1
1
1
1
1
1
1
1
1
1
1
1
1
1
1
1
1
1
1
1
1
1
1
1
1
1
1
1
1
1
1
1
1
1
1
1
1
1
1
1
1
1
1
1
1
1
1
1
1
1
1
1
1
1
1
1
1
1
1
1
1
1
1
1
1
1
1
1
1
1
1
1
1
1
1
1
1
1
1
1
1
1
1
1
1
1
1
1
1
1
1
1
1
1
1
1
1
1
1
1
1
1
1
1
1
1
1
1
1
1
1
1
1
1
1
1
1
1
1
1
1
1
1
1
1
1
1
1

SCALARS radius float 1
LOOKUP_TABLE default
0.0005
0.0005
0.0005
0.0005
0.0005
0.0005
0.0005
0.0005
0.0005
0.0005
0.0005
0.0005
0.0005
0.0005
0.0005
0.0005
0.0005
0.0005
0.0005
0.0005
0.0005
0.0005
0.0005
0.0005
0.0005
0.0005
0.0005
0.0005
0.0005
0.0005
0.0005
0.0005
0.0005
0.0005
0.0005
0.0005
0.0005
0.0005
0.0005
0.0005
0.0005
0.0005
0.0005
0.0005
0.0005
0.0005
0.0005
0.0005
0.0005
0.0005
0.0005
0.0005
0.0005
0.0005
0.0005
0.0005
0.0005
0.0005
0.0005
0.0005
0.0005
0.0005
0.0005
0.0005
0.0005
0.0005
0.0005
0.0005
0.0005
0.0005
0.0005
0.0005
0.0005
0.0005
0.0005
0.0005
0.0005
0.0005
0.0005
0.0005
0.0005
0.0005
0.0005
0.0005
0.0005
0.0005
0.0005
0.0005
0.0005
0.0005
0.0005
0.0005
0.0005
0.0005
0.0005
0.0005
0.0005
0.0005
0.0005
0.0005
0.0005
0.0005
0.0005
0.0005
0.0005
0.0005
0.0005
0.0005
0.0005
0.0005
0.0005
0.0005
0.0005
0.0005
0.0005
0.0005
0.0005
0.0005
0.0005
0.0005
0.0005
0.0005
0.0005
0.0005
0.0005
0.0005
0.0005
0.0005
0.0005
0.0005
0.0005
0.0005
0.0005
0.0005
0.0005
0.0005
0.0005
0.0005
0.0005
0.0005
0.0005
0.0005
0.0005
0.0005
0.0005
0.0005
0.0005
0.0005
0.0005
0.0005
0.0005
0.0005
0.0005
0.0005
0.0005
0.0005
0.0005
0.0005
0.0005
0.0005
0.0005
0.0005
0.0005
0.0005
0.0005
0.0005
0.0005
0.0005
0.0005
0.0005
0.0005
0.0005
0.0005
0.0005
0.0005
0.0005
0.0005
0.0005
0.0005
0.0005
0.0005
0.0005
0.0005
0.0005
0.0005
0.0005
0.0005
0.0005
0.0005
0.0005
0.0005
0.0005
0.0005
0.0005
0.0005
0.0005
0.0005
0.0005
0.0005
0.0005
0.0005
0.0005
0.0005
0.0005
0.0005
0.0005
0.0005
0.0005
0.0005
0.0005
0.0005
0.0005
0.0005
0.0005
0.0005
0.0005
0.0005
0.0005
0.0005
0.0005
0.0005
0.0005
0.0005
0.0005
0.0005
0.0005
0.0005
0.0005
0.0005
0.0005
0.0005
0.0005
0.0005
0.0005
0.0005
0.0005
0.0005
0.0005
0.0005
0.0005
0.0005
0.0005
0.0005
0.0005
0.0005
0.0005
0.0005
0.0005
0.0005
0.0005
0.0005
0.0005
0.0005
0.0005
0.0005
0.0005
0.0005
0.0005
0.0005
0.0005
0.0005
0.0005
0.0005
0.0005
0.0005
0.0005
0.0005
0.0005
0.0005
0.0005
0.0005
0.0005
0.0005
0.0005
0.0005
0.0005
0.0005
0.0005
0.0005
0.0005
0.0005
0.0005
0.0005
0.0005
0.0005
0.0005
0.0005
0.0005
0.0005
0.0005
0.0005
0.0005
0.0005
0.0005
0.0005
0.0005
0.0005

SCALARS mass float 1
LOOKUP_TABLE default
1.46608e-07
1.46608e-07
1.46608e-07
1.46608e-07
1.46608e-07
1.46608e-07
1.46608e-07
1.46608e-07
1.46608e-07
1.46608e-07
1.46608e-07
1.46608e-07
1.46608e-07
1.46608e-07
1.46608e-07
1.46608e-07
1.46608e-07
1.46608e-07
1.46608e-07
1.46608e-07
1.46608e-07
1.46608e-07
1.46608e-07
1.46608e-07
1.46608e-07
1.46608e-07
1.46608e-07
1.46608e-07
1.46608e-07
1.46608e-07
1.46608e-07
1.46608e-07
1.46608e-07
1.46608e-07
1.46608e-07
1.46608e-07
1.46608e-07
1.46608e-07
1.46608e-07
1.46608e-07
1.46608e-07
1.46608e-07
1.46608e-07
1.46608e-07
1.46608e-07
1.46608e-07
1.46608e-07
1.46608e-07
1.46608e-07
1.46608e-07
1.46608e-07
1.46608e-07
1.46608e-07
1.46608e-07
1.46608e-07
1.46608e-07
1.46608e-07
1.46608e-07
1.46608e-07
1.46608e-07
1.46608e-07
1.46608e-07
1.46608e-07
1.46608e-07
1.46608e-07
1.46608e-07
1.46608e-07
1.46608e-07
1.46608e-07
1.46608e-07
1.46608e-07
1.46608e-07
1.46608e-07
1.46608e-07
1.46608e-07
1.46608e-07
1.46608e-07
1.46608e-07
1.46608e-07
1.46608e-07
1.46608e-07
1.46608e-07
1.46608e-07
1.46608e-07
1.46608e-07
1.46608e-07
1.46608e-07
1.46608e-07
1.46608e-07
1.46608e-07
1.46608e-07
1.46608e-07
1.46608e-07
1.46608e-07
1.46608e-07
1.46608e-07
1.46608e-07
1.46608e-07
1.46608e-07
1.46608e-07
1.46608e-07
1.46608e-07
1.46608e-07
1.46608e-07
1.46608e-07
1.46608e-07
1.46608e-07
1.46608e-07
1.46608e-07
1.46608e-07
1.46608e-07
1.46608e-07
1.46608e-07
1.46608e-07
1.46608e-07
1.46608e-07
1.46608e-07
1.46608e-07
1.46608e-07
1.46608e-07
1.46608e-07
1.46608e-07
1.46608e-07
1.46608e-07
1.46608e-07
1.46608e-07
1.46608e-07
1.46608e-07
1.46608e-07
1.46608e-07
1.46608e-07
1.46608e-07
1.46608e-07
1.46608e-07
1.46608e-07
1.46608e-07
1.46608e-07
1.46608e-07
1.46608e-07
1.46608e-07
1.46608e-07
1.46608e-07
1.46608e-07
1.46608e-07
1.46608e-07
1.46608e-07
1.46608e-07
1.46608e-07
1.46608e-07
1.46608e-07
1.46608e-07
1.46608e-07
1.46608e-07
1.46608e-07
1.46608e-07
1.46608e-07
1.46608e-07
1.46608e-07
1.46608e-07
1.46608e-07
1.46608e-07
1.46608e-07
1.46608e-07
1.46608e-07
1.46608e-07
1.46608e-07
1.46608e-07
1.46608e-07
1.46608e-07
1.46608e-07
1.46608e-07
1.46608e-07
1.46608e-07
1.46608e-07
1.46608e-07
1.46608e-07
1.46608e-07
1.46608e-07
1.46608e-07
1.46608e-07
1.46608e-07
1.46608e-07
1.46608e-07
1.46608e-07
1.46608e-07
1.46608e-07
1.46608e-07
1.46608e-07
1.46608e-07
1.46608e-07
1.46608e-07
1.46608e-07
1.46608e-07
1.46608e-07
1.46608e-07
1.46608e-07
1.46608e-07
1.46608e-07
1.46608e-07
1.46608e-07
1.46608e-07
1.46608e-07
1.46608e-07
1.46608e-07
1.46608e-07
1.46608e-07
1.46608e-07
1.46608e-07
1.46608e-07
1.46608e-07
1.46608e-07
1.46608e-07
1.46608e-07
1.46608e-07
1.46608e-07
1.46608e-07
1.46608e-07
1.46608e-07
1.46608e-07
1.46608e-07
1.46608e-07
1.46608e-07
1.46608e-07
1.46608e-07
1.46608e-07
1.46608e-07
1.46608e-07
1.46608e-07
1.46608e-07
1.46608e-07
1.46608e-07
1.46608e-07
1.46608e-07
1.46608e-07
1.46608e-07
1.46608e-07
1.46608e-07
1.46608e-07
1.46608e-07
1.46608e-07
1.46608e-07
1.46608e-07
1.46608e-07
1.46608e-07
1.46608e-07
1.46608e-07
1.46608e-07
1.46608e-07
1.46608e-07
1.46608e-07
1.46608e-07
1.46608e-07
1.46608e-07
1.46608e-07
1.46608e-07
1.46608e-07
1.46608e-07
1.46608e-07
1.46608e-07
1.46608e-07
1.46608e-07
1.46608e-07
1.46608e-07
1.46608e-07
1.46608e-07
1.46608e-07
1.46608e-07
1.46608e-07
1.46608e-07
1.46608e-07
1.46608e-07
1.46608e-07
1.46608e-07
1.46608e-07
1.46608e-07
1.46608e-07
1.46608e-07
1.46608e-07
1.46608e-07
1.46608e-07
1.46608e-07
1.46608e-07
1.46608e-07
1.46608e-07
1.46608e-07
1.46608e-07
1.46608e-07
1.46608e-07
1.46608e-07
1.46608e-07
1.46608e-07
1.46608e-07
1.46608e-07
1.46608e-07
1.46608e-07
1.46608e-07
1.46608e-07

VECTORS velocity float
0.00395124 0.00186954 0.00301192
0.000212387 -0.024245 0.00359556
0.000416388 0.00206891 -0.00383337
-0.0184466 -0.0385034 -0.00598895
-0.00111638 0.00127205 0.00342596
-4.38408e-07 -0.011124 -0.00108258
-0.00276422 -0.000210983 0.00233316
-0.000468882 -0.00112295 0.00177404
0.00314096 0.000979319 0.00235703
0.00355925 0.00625494 -0.00049669
-0.00083895 -0.000344221 0.00187454
0.00765129 0.000294221 0.00176016
0.0031296 0.0136266 0.00636144
0.00239496 0.0150616 -0.00664731
-0.00133511 -0.000858483 -0.000936612
0.00481152 -0.00294586 0.00828507
-0.0112841 0.00928023 -0.00620908
-0.000390248 0.000275138 0.00106556
-0.000144772 0.00177055 -0.000338179
0.00896541 -0.0207574 0.015573
0.00187032 0.011433 0.000724714
-0.000762595 0.002454 -0.0115114
0.000829422 -0.000673892 0.00142356
0.00455203 0.00326778 -0.00239947
4.72535e-05 -0.000281794 -0.000136191
-0.00554121 0.0051786 6.39048e-05
-0.00232551 0.00361946 0.00237525
0.00284323 0.00375457 -0.00221779
-0.1023 -0.0291605 -0.233253
0.00155536 0.00274583 -0.00138262
0.000456224 0.000210527 -0.0250983
-0.00129366 0.00442459 0.0216496
-0.0248565 -0.0209991 -0.00605142
0.00341163 0.00182757 -0.00553969
-0.00513769 -0.00108647 -0.00690158
0.000891973 0.0159025 -0.0149726
0.00521467 0.00215536 -0.0034849
-0.0270601 -0.0137302 -0.0115038
0.00821895 -0.000270449 -0.00100002
0.00265237 -0.000431894 -0.00366207
0.00512333 0.000797955 0.00331469
-0.00326696 -0.0182868 0.0125664
0.00420021 0.00426553 -0.0012821
-2.14768e-05 -0.0252922 -0.00725958
-0.00922753 0.0121151 0.00256116
-0.000318255 2.36988e-05 0.000603863
-0.00299885 -0.00166027 -0.00384678
-0.00721396 -0.0043319 0.0163882
0.00042973 0.00364601 -0.0183651
0.00871473 0.0207691 -0.0240983
0.00140544 -0.0101091 0.0155507
0.00386372 0.0033685 0.00222536
-0.00462746 -0.00235737 0.000303004
-0.0059403 -0.0018832 -0.00274544
0.00440729 -0.0210772 -0.0185106
0.00448992 -0.000549757 -0.00174387
-0.00678773 -0.0111828 -0.00929112
-0.0439704 0.0316651 -0.118823
0.00038304 -0.000417168 0.00163715
0.00121796 0.00139472 -0.00235782
0.000579339 0.00166547 0.000120092
0.00391668 0.00163283 0.00390354
-0.00197501 -0.0219089 -0.000156881
-0.00829411 0.000168402 -0.00950342
0.00512563 0.00087416 0.00072346
0.00116334 0.00018717 -0.000371487
0.000175399 7.42205e-05 0.000699694
-0.00670202 -0.013522 -0.00783676
0.00269557 0.0038567 0.0070091
0.00264657 0.000424642 0.00132909
0.00147356 0.00221621 0.00251771
0.014643 -0.00300631 0.00761424
-0.0229846 -0.00436978 -0.00524654
0.00769409 0.00370172 0.000823477
-0.00398109 0.00723877 -0.0147415
0.00856496 -0.023269 0.0155791
-0.0232662 0.0122887 0.0115267
0.00862121 -0.0637708 -0.0117234
0.262529 -0.0110289 -0.0795887
0.00265219 0.00359498 0.00844097
0.00170838 -0.000387749 -0.00379913
-0.00084212 0.00394046 0.000191171
0.000886101 0.00120899 0.00142382
-0.0011691 0.00641927 0.00793448
0.00401464 -0.00294575 0.0019881
-0.000848401 0.00357208 0.0136208
0.00124058 0.00314862 2.8598e-05
0.00311935 -0.00885006 -0.0125945
0.0154564 -0.0188039 -0.01231
-0.0106247 -0.0120113 0.0176071
0.000443277 0.00469885 0.00670317
0.00593518 0.00230504 0.00425679
0.0016873 0.0170295 0.00151684
0.0012469 -0.00104321 -0.000791189
0.00631006 -0.0172201 -0.0455595
-0.0131236 0.00586184 -0.00454942
0.00503997 -0.00736507 0.0147732
0.00111619 0.000542484 0.00449207
0.00465466 0.00233628 0.00078148
0.000127803 2.62325e-05 -7.06779e-05
0.00350751 0.00176652 0.00930957
0.000945753 0.0117194 -0.000434399
-7.25513e-05 0.000394989 -7.59714e-05
0.00431986 0.00281327 0.00114322
-0.000985723 0.00201392 -0.00506407
0.0050856 0.00134173 0.00250293
-0.00117302 -0.000429506 0.00131994
0.00229666 0.017556 0.00261656
-0.0246497 -0.0242321 -0.0205321
0.00138872 0.00238519 -0.00415768
0.0688694 -0.0397006 0.0100398
-0.00515734 -0.00187791 0.00353374
-0.00432293 -0.000587773 -0.00303357
0.000549241 -0.00159809 0.00567097
0.000739246 -0.0011232 0.00414604
0.0018061 0.0116082 -0.00500923
0.000538079 -0.0255109 -0.00716314
0.00087889 0.00112015 0.00168892
0.00338275 0.000337631 -0.00110003
-0.00242898 0.00108824 0.00242778
0.0040446 6.224e-05 0.00287623
-0.0119243 -0.023242 -0.0109479
0.00531552 -0.00484146 0.00678499
0.00493249 0.0213291 -0.00498209
0.000401693 0.00436678 0.00150758
-0.0473075 -0.0432962 0.00466866
0.00207902 0.000869322 0.00332764
-0.00283974 0.00246139 0.000766668
-2.65612e-05 -0.000827501 0.00472274
0.00104361 0.00993454 -0.00177872
-0.00370607 -0.000255617 0.000400339
-0.0033427 -0.00547896 -0.00270388
0.000296755 0.0210583 0.0133635
-4.22782e-15 2.50375e-14 1.50107e-13
-0.00238769 -0.00340798 0.00099156
-0.00637711 0.00385231 0.00540198
0.000506588 0.00249047 0.000685671
-0.00366464 -0.000953258 0.00204468
-0.000556445 0.00867557 0.00295783
-0.00363983 -0.0229862 -0.0220088
2.97576e-14 -6.36184e-14 -2.30369e-13
0.000488827 -0.0159586 -0.0155514
-0.121668 -0.0447839 -0.107998
-0.00916767 0.0622869 -0.189665
0.0616007 -0.0155298 -0.110431
0.00138505 0.00213221 -0.00295578
-0.0242902 -0.0060105 -0.00752801
-0.000102538 0.000774716 0.00271045
-0.000377823 -0.00131672 0.00155242
-0.00351329 -0.00647198 0.00454277
0.0128156 -0.0373721 0.00439524
-0.00342042 -0.00304849 0.00885525
-0.00773786 0.00168012 -0.0189335
0.00297554 0.00213735 0.00316488
4.1142e-05 -0.000122765 0.000151771
0.0153627 5.87527e-05 0.00129498
-0.00045833 0.00150967 -0.000350648
-0.0586109 0.0837572 -0.183211
0.00175673 0.000322512 -0.000228658
0.000307405 0.000296332 0.000165625
-0.000787285 -0.00415019 0.00542305
0.00117735 0.0204469 -0.0069102
-0.00397114 -0.00141557 0.00481814
0.000121263 0.00759863 0.02435
-0.00165451 0.00205473 0.00105144
0.00253531 0.000607427 -0.00010953
0.000337297 0.0175292 -0.0026781
0.00131947 -0.0048976 0.0180129
-0.00325782 -0.00083756 -0.00486768
0.0118204 -0.0635084 0.03005
0.00153833 0.00265393 -0.00454781
0.01414 -0.0123787 0.0112548
-6.17267e-06 0.0019587 -0.00327902
-0.000307132 -0.000890846 -0.00020213
0.000336114 -0.0223889 0.00923941
0.00121617 0.000688667 -0.00210025
-0.000304453 6.61525e-05 0.000303759
0.00876634 0.00339084 -0.00252292
0.00672929 0.00224925 0.00172476
-0.00099288 0.0127692 -0.00126315
0.000725335 -8.26212e-06 -0.000364634
0.00426376 0.00293053 -0.00320669
0.00163523 0.00473708 0.00329741
0.00063395 0.000466904 0.000381039
0.00300561 0.00196167 0.00498165
-0.0828388 -0.0532885 -0.252141
0.00426661 -0.00336573 -0.0086223
0.0226938 -0.0315819 0.0218992
0.00160973 -0.000936695 -0.00167149
4.76324e-05 0.00209171 -0.0011719
0.000443844 -0.000194543 -0.000950092
-0.00399772 0.000729806 -0.00329156
0.000619166 -0.000572292 0.000168773
-0.00402531 0.0252568 0.00602455
0.00273451 -0.000128968 -0.00250306
0.00011143 0.00263541 -0.00550235
0.0140259 -0.0295985 0.0312835
0.00243821 0.00891699 0.0116865
-0.00440232 0.0236067 0.00629304
-0.00110362 0.00166154 0.00116453
0.000683638 -0.0200057 0.0120004
-0.0108633 0.00561898 -0.0153755
0.000819552 -0.00754078 -0.0156822
0.00129443 -0.00297178 -0.000535587
-0.00364754 0.00357909 0.00407378
0.0105014 0.011115 0.0010448
0.00423186 -0.0046814 -0.0143537
0.00680251 0.000274309 0.00314536
-0.00614835 0.00963101 0.00482045
0.0017232 0.000309297 -0.00261405
-0.00115841 0.0168654 -0.0218005
0.00269067 0.0113855 0.0101901
0.00124626 0.00173679 -0.000539171
-0.024721 -0.0243187 -0.00792222
0.0194825 -0.0465785 0.0110477
-0.00202564 -0.000902137 0.00456005
-0.00192054 0.000752253 0.00180203
0.00165677 0.000510832 0.0176993
-0.00203896 0.000583629 0.00272854
0.00377345 -0.00096579 -0.000379938
-0.000169737 -0.0225607 -0.0132552
0.00504984 0.00031421 0.00167204
-0.00713697 -0.0396407 0.00737157
-0.00260392 0.00895658 -0.000356021
0.0125823 -0.0137936 0.00895321
0.000114459 5.27829e-06 -0.000309831
0.000260889 0.000177482 -0.000493666
0.0052036 0.00297135 0.000789406
0.000307493 0.000859536 0.00161038
0.00371148 0.00106853 -0.00445145
0.00506496 -0.00316241 -0.00215012
0.000537879 -0.00416989 -0.0219908
0.000524837 0.0015981 0.00021594
0.0049281 0.00318261 -1.6243e-06
0.00648102 0.00139337 0.0019234
0.00115612 0.00149275 0.0003288
0.00086377 0.000203907 -0.000731744
0.0153803 0.0169996 -0.0411851
0.00961963 0.0110515 0.00535804
-0.0127595 0.00776268 0.00247472
0.00542678 -0.0152963 0.00423741
-0.00584678 -0.00234735 0.0020872
-0.00394521 0.00519669 -0.00439223
0.0176517 -0.0272433 7.04906e-13
-0.00294829 -0.000288607 -0.0051291
0.00382772 0.00117969 0.00443968
-0.014434 -0.00673497 -0.0161156
-0.0116011 -0.0130416 -0.00793937
-0.00542783 -0.00464541 -0.00848168
-9.69406e-317 9.51793e-317 -1.91574e-12
0.00354368 0.000175532 -0.00183448
-0.00137413 -0.00194606 0.0021113
0.00201556 0.000621324 0.000793238
0.00222922 0.00790278 0.00404362
-0.037292 -0.00218122 -0.132419
0.00120216 -0.00096914 0.00256123
0.00463159 -0.00117676 0.0021433
0.000146533 8.17775e-05 -0.00179724
0.00021979 -0.00281694 -0.0115911
0.00107933 0.000256882 -0.00011787
-0.000714558 0.00195157 -0.00525464
0.00580741 0.00393239 0.00262643
0.0010731 -0.000125195 0.00442938
-0.00257333 0.00199987 -0.00342723
-0.000785662 -0.0024624 0.00497171
-0.00180979 -0.00168369 0.00784182
-0.00489885 0.00976601 -0.0123691
0.00295923 0.0107002 0.0024751
0.00666309 0.00228258 0.0020295
0.000421549 -0.000146508 -0.000108264
-0.00245442 -0.00238736 -0.000387421
0.00528915 0.00652941 -0.00432967
0.00892982 -0.0149708 0.00104719
0.00559425 0.0186182 -0.00594045
-0.0120127 -0.0118326 0.00409075
0.000768688 -0.020564 -0.000382089
0.00228889 0.0150304 -0.000239638
0.000900896 0.000781566 0.000135594
0.328385 -0.0450759 -0.0762384
0.000303249 -0.0123459 -0.021611
-0.0197523 -0.0184334 -0.023761
-0.096058 -0.102049 -0.0710331
0.0122508 0.00937338 -0.0136554
9.30237e-05 -0.000105285 2.66454e-05
-0.0094096 -0.0171512 0.00873126
-0.00130047 -0.0118841 0.00983406
0.303868 0.185784 0.328111
-0.00920094 0.0109578 0.00956018
0.00306807 0.000385252 0.000612385
-0.0307978 -0.0638399 -0.0113994
0.000181234 -0.000269542 -0.000359916
0.0104888 -0.00310809 0.00174613
-0.0118631 0.0123174 0.004516
0.00504051 0.00448646 0.00247429
0.00148675 0.00129501 -0.00214069
0.000809932 0.00133365 -0.00459504
0.000255182 0.000346331 -0.00184908

VECTORS force float
-3.61219e-07 3.70036e-07 -1.28087e-06
-9.27197e-10 -5.18711e-09 1.46744e-08
8.29887e-08 -1.42035e-07 -2.21621e-07
0.0 0.0 -1.43822e-06
-7.89537e-09 -3.46061e-08 1.97733e-08
-1.91201e-09 -1.76479e-08 -1.93016e-08
-2.24579e-08 1.24422e-07 -6.42906e-08
2.92288e-07 -1.51557e-06 9.8442e-07
-5.41471e-05 5.25052e-06 3.03109e-05
1.55997e-06 1.28596e-07 6.90456e-07
-7.6108e-07 -8.64824e-07 5.23799e-07
-2.49987e-07 1.18663e-07 -3.9101e-09
-4.88579e-07 7.84482e-08 -4.38908e-07
-2.47283e-09 -1.3643e-07 1.69016e-07
6.5215e-06 1.49758e-05 -4.88722e-06
0.0 0.0 -1.43822e-06
1.07696e-07 1.3815e-06 -7.79626e-07
6.50382e-08 -1.21135e-07 -3.72527e-07
3.33805e-08 7.38046e-08 -4.76165e-07
2.46476e-05 -2.14951e-05 -0.000105622
2.35298e-07 -2.07087e-06 -1.03784e-06
1.42769e-07 -5.40274e-07 1.48505e-07
-2.14024e-06 -6.60032e-07 2.68086e-06
6.78351e-07 -4.35383e-08 5.17442e-07
-1.31901e-06 -1.01009e-07 1.22179e-06
2.75515e-06 7.71435e-07 2.64259e-07
9.92707e-08 3.67421e-07 -1.73329e-07
-7.4004e-08 2.37461e-06 1.6279e-06
0.0 0.0 -1.43822e-06
-2.94615e-07 1.10715e-07 -1.67931e-07
2.9103e-09 -1.44656e-08 -2.05505e-09
-0.000114603 2.66661e-05 -8.72501e-06
0.0 0.0 -1.43822e-06
-9.45353e-07 2.52667e-06 -4.29782e-06
-3.26533e-07 6.64554e-07 1.81612e-06
1.35698e-08 -7.52552e-09 -5.17758e-08
4.44419e-09 1.39064e-08 2.13221e-08
0.0 0.0 -1.43822e-06
-3.40937e-07 -1.38236e-06 2.19807e-06
2.59036e-07 5.03481e-07 -2.75212e-07
-1.4565e-07 7.8514e-07 2.02055e-06
-8.69838e-05 1.34608e-05 -8.679e-06
-4.89475e-06 -1.58751e-05 -1.33486e-05
3.50913e-10 -3.05809e-09 1.23581e-08
2.38984e-07 5.68234e-07 3.75179e-07
-1.92222e-06 1.09801e-06 2.13801e-06
1.69429e-06 1.55702e-06 1.64641e-06
3.66352e-05 6.54959e-05 -3.57125e-05