# vtk DataFile Version 3.0
LIGGGHTS particles timestep 2000000
ASCII
DATASET POLYDATA
POINTS 334 float
0.0233874 0.0227942 0.00932516
0.0212985 0.0234259 0.0120344
0.0170291 0.0152199 0.0151571
0.0169722 0.0191235 0.0170773
0.0221787 0.0165551 0.016149
0.0157742 0.022581 0.0155443
0.0168995 0.0143377 0.0145934
0.0200796 0.0145159 0.0160132
0.0242424 0.0150314 0.0100325
0.0193854 0.0241364 0.0139293
0.0250151 0.0187617 0.0169937
0.020052 0.0218093 0.0081616
0.0144538 0.0216578 0.0160814
0.0182544 0.0196339 0.0159061
0.0176368 0.0204024 0.0157393
0.0248144 0.0170958 0.0154988
0.0230479 0.0232884 0.0155028
0.0185741 0.0236875 0.0155899
0.0242063 0.0193046 0.015952
0.0211736 0.0232683 0.0127882
0.0183422 0.0161473 0.0159912
0.0156588 0.0225094 0.0145145
0.0204073 0.0140547 0.0131196
0.0173139 0.019629 0.016285
0.0149661 0.014872 0.0147105
0.0234782 0.0151571 0.0133769
0.0171233 0.0187105 0.0159352
0.0134204 0.0200498 0.0166511
0.0204452 0.022988 0.0159932
0.0178245 0.0221008 0.0157937
0.0154159 0.0156276 0.0155131
0.0177278 0.0148959 0.0142716
0.0224474 0.0191116 0.0163879
0.023068 0.0228315 0.0138501
0.0203687 0.0243776 0.0137222
0.0194897 0.014715 0.0173334
0.0128897 0.0208653 0.0164204
0.0243835 0.0222519 0.015674
0.0240398 0.0203996 0.0157357
0.0146389 0.0230703 0.0149406
0.0254382 0.0161387 0.0215419
0.0178101 0.0237819 0.0149519
0.0178997 0.0188615 0.0165469
0.0230214 0.0216391 0.016203
0.0190658 0.0155264 0.0142366
0.0196779 0.0143997 0.014778
0.016969 0.0168199 0.0153579
0.0221223 0.0130731 0.0219025
0.0172117 0.023151 0.0132127
0.0192429 0.0241057 0.0129403
0.0226942 0.0223663 0.0155958
0.0156262 0.0228544 0.0168972
0.019141 0.0145515 0.0156077
0.0240646 0.0189569 0.0172356
0.0184148 0.0235556 0.0141824
0.0198733 0.0234253 0.0144349
0.0185276 0.0184163 0.0159087
0.0214317 0.0148396 0.0146448
0.0190166 0.0188514 0.016735
0.0259012 0.0191834 0.0168041
0.0240873 0.0214955 0.0173241
0.0199264 0.0153081 0.0151734
0.0213123 0.0142141 0.0135361
0.0234005 0.0221529 0.0169725
0.0235783 0.0179536 0.0175465
0.0201181 0.0162378 0.0159057
0.0192247 0.0216138 0.0160973
0.0237242 0.0152922 0.0149583
0.0173397 0.0216623 0.0165502
0.0166016 0.0142094 0.0136475
0.0240747 0.0165402 0.016542
0.0195554 0.0237195 0.0153995
0.0157527 0.0145286 0.0141974
0.017647 0.0242636 0.0140917
0.0175037 0.0242167 0.0171821
0.0255488 0.0172318 0.0165898
0.0171809 0.0232101 0.0154788
0.0206205 0.0145871 0.015175
0.0180728 0.0154026 0.0153098
0.0208261 0.0209085 0.0172018
0.0149763 0.0220963 0.0168423
0.0220905 0.0195757 0.0171982
0.0165792 0.0210371 0.0163761
0.0209429 0.014438 0.0175317
0.0180444 0.0138422 0.0137088
0.0222356 0.0145316 0.0151553
0.0179639 0.0239807 0.0163262
0.0189701 0.0230911 0.0148727
0.0218297 0.0233983 0.0111026
0.0192003 0.0240831 0.0162616
0.018745 0.0145675 0.0120282
0.0176197 0.0240538 0.0130774
0.0222572 0.0200381 0.0158388
0.019285 0.0149149 0.0131227
0.0184808 0.0243244 0.0135466
0.017508 0.0220945 0.0147348
0.0154462 0.0229585 0.0136473
0.0217656 0.02399 0.0144433
0.0206162 0.0153707 0.0158946
0.0220389 0.0209628 0.0155244
0.0196944 0.0142698 0.0137867
0.020055 0.0209795 0.00768471
0.0206003 0.0145384 0.0141764
0.020628 0.017767 0.0166129
0.0231633 0.0198044 0.0163079
0.0231148 0.0162696 0.0149868
0.0261663 0.0219953 0.0084519
0.0167197 0.0151669 0.0161065
0.0226441 0.0181771 0.0160936
0.0191017 0.0221584 0.0175139
0.0167374 0.0178026 0.0157728
0.0220382 0.0217917 0.0160846
0.0136146 0.0207457 0.0173566
0.0225744 0.0180752 0.0170912
0.0188144 0.0223691 0.0155866
0.0250178 0.0197647 0.0171825
0.0226418 0.0154075 0.0154383
0.0193764 0.0198006 0.016689
0.0148503 0.0225622 0.0159257
0.0203974 0.0202054 0.0166302
0.0182822 0.0144392 0.0149697
0.0213861 0.0201333 0.0167597
0.0154683 0.0217662 0.0160368
0.0175878 0.014641 0.0133148
0.0258495 0.0181785 0.0167088
0.0187823 0.0233609 0.0168126
0.0182532 0.0213304 0.0162653
0.0214078 0.0239694 0.0134682
0.0209667 0.0237125 0.0166511
0.0227212 0.023626 0.0146716
0.0174395 0.0205656 0.0167059
0.0254919 0.0211207 0.0165893
0.0186313 0.0204567 0.0165707
0.0177144 0.0178392 0.0159837
0.0234226 0.0188509 0.0164762
0.0249236 0.0178057 0.0172705
0.0218359 0.0227697 0.0159153
0.0184238 0.015116 0.0135891
0.0210966 0.0228048 0.0152408
0.0222048 0.0225392 0.0142618
0.016805 0.0239685 0.013647
0.0234447 0.0160859 0.0159124
0.0238333 0.0172988 0.0157671
0.019386 0.0230156 0.0160918
0.0179016 0.0227322 0.0170925
0.0164379 0.01842 0.0166088
0.024126 0.0199014 0.0167501
0.0221428 0.0144376 0.0140679
0.0210271 0.014591 0.0163669
0.0264415 0.0228092 0.0093121
0.0231554 0.0222105 0.0145964
0.0189258 0.0213092 0.0170052
0.0210976 0.0228443 0.00942675
0.0186632 0.0164324 0.0150881
0.0245597 0.0207698 0.0165049
0.0189492 0.0169526 0.00775555
0.0190319 0.0156034 0.0155089
0.0223907 0.0210265 0.0166797
0.0238453 0.0214592 0.0152302
0.0219009 0.0149969 0.0159788
0.0170478 0.0234414 0.0122235
0.0191033 0.0247423 0.0177754
0.0163842 0.0222243 0.0167295
0.0192613 0.0184677 0.00722039
0.0181259 0.022994 0.0161537
0.0180442 0.0228303 0.0151466
0.0195798 0.0207602 0.0164777
0.0175498 0.0158568 0.0145887
0.0188552 0.0140165 0.0142676
0.0237471 0.0227704 0.0151033
0.0228426 0.0173071 0.015644
0.0210903 0.022036 0.015882
0.0198637 0.0227873 0.0152044
0.0196805 0.0222807 0.0167079
0.0218144 0.0218955 0.0149218
0.017381 0.0231398 0.0142528
0.0131344 0.0190957 0.0167407
0.0196886 0.0181119 0.0166417
0.0160108 0.0236182 0.0141353
0.0139785 0.0208507 0.0164312
0.0216673 0.0182747 0.0167208
0.0249577 0.0163121 0.0161317
0.016183 0.0203589 0.0157576
0.02681 0.0233639 0.0110154
0.0203739 0.0240754 0.0127384
0.023384 0.0209667 0.0168483
0.0248976 0.0167883 0.00784038
0.0204465 0.0212272 0.0162927
0.0224161 0.0219763 0.0169927
0.0177943 0.014681 0.0123167
0.0201969 0.024035 0.0160997
0.0246079 0.021067 0.0180885
0.0235774 0.0178655 0.0165501
0.016056 0.0150799 0.0149744
0.0183081 0.0140379 0.0159701
0.0121087 0.0198371 0.0170671
0.0154272 0.0236855 0.0149444
0.0214282 0.0210671 0.016405
0.0163538 0.0231108 0.0149256
0.0214398 0.0223864 0.0167598
0.0230076 0.0147265 0.0145503
0.0240596 0.0165364 0.0151633
0.0162315 0.0236352 0.0170517
0.0204436 0.0244974 0.0177089
0.0202815 0.0224372 0.00883024
0.0168306 0.0239443 0.0146462
0.0208274 0.0236075 0.0141978
0.0229808 0.0191362 0.0173268
0.0205451 0.0236388 0.015223
0.0166408 0.0221291 0.0157678
0.0220749 0.0232494 0.0129322
0.017202 0.0226859 0.0163797
0.0214653 0.022944 0.0137218
0.0134483 0.021623 0.0160819
0.0242176 0.0170847 0.0173766
0.0211354 0.0166406 0.0162197
0.0219422 0.0234952 0.0166872
0.0169782 0.0238409 0.0164188
0.0163635 0.0212588 0.0153618
0.0245841 0.0174329 0.0164102
0.0230728 0.0206483 0.01578
0.0190776 0.0139381 0.0130731
0.0179436 0.01702 0.0154581
0.0199948 0.0233594 0.0168086
0.0197443 0.0145991 0.0119758
0.0164004 0.0194012 0.0159457
0.0228509 0.0214558 0.015235
0.0257662 0.0201613 0.0166469
0.0200921 0.022041 0.0158289
0.0163254 0.0231227 0.0161786
0.0249594 0.0219524 0.0164346
0.0240127 0.0215868 0.0163221
0.0243697 0.0156922 0.0156091
0.0186366 0.0222541 0.0165911
0.0164878 0.0227593 0.01395
0.0239703 0.0205145 0.0175245
0.0139261 0.0223592 0.0156026
0.0236665 0.0148611 0.0124873
0.0165101 0.0220565 0.0147775
0.022998 0.0201342 0.0172459
0.0182364 0.0236282 0.0176066
0.0162327 0.0232329 0.0130262
0.0214685 0.0158552 0.0156979
0.0192983 0.0169447 0.0162947
0.0211916 0.0191521 0.0167828
0.0223791 0.0235194 0.013788
0.0146412 0.0201356 0.0166549
0.0180567 0.0217553 0.0172409
0.0191125 0.0203997 0.0174455
0.0206548 0.015739 0.0235465
0.0231263 0.0190181 0.025621
0.0147557 0.0162637 0.0159611
0.0198166 0.0217235 0.0268261
0.019422 0.0234435 0.0204502
0.0172018 0.0214809 0.0219372
0.0182333 0.0181926 0.0237348
0.0221752 0.016147 0.0250981
0.0170654 0.0208125 0.0186372
0.0201956 0.0192297 0.0167409
0.0213444 0.019401 0.0207905
0.0180981 0.0234307 0.0263957
0.0151734 0.0210431 0.016952
0.0168922 0.0224148 0.0222268
0.022325 0.0165453 0.0201042
0.0222789 0.0170488 0.0258909
0.0191856 0.0222351 0.0236081
0.0170837 0.0214901 0.0271165
0.0230624 0.0204971 0.0264981
0.0201308 0.020888 0.0287359
0.0222363 0.0218158 0.0192099
0.0225555 0.0184025 0.0262851
0.0163745 0.0173595 0.0193179
0.0153013 0.021121 0.0283342
0.018402 0.0195897 0.0170129
0.0176245 0.0164399 0.0192387
0.0212188 0.0185762 0.0233413
0.022758 0.0173024 0.0272489
0.0155898 0.0193476 0.0167916
0.0181653 0.0185053 0.0265087
0.0196372 0.019876 0.0281384
0.0191389 0.0185709 0.0190564
0.0214063 0.0188194 0.026685
0.0184335 0.0214167 0.0216386
0.0173851 0.0159919 0.0157338
0.0220938 0.020542 0.0175039
0.01818 0.0203917 0.0195603
0.0174398 0.0183973 0.0206346
0.0166515 0.0214394 0.0172886
0.016262 0.0200841 0.0167158
0.0173715 0.0216869 0.0235629
0.0196752 0.0154001 0.016247
0.0168871 0.0229121 0.0173013
0.0167285 0.0194426 0.0264254
0.0233776 0.0176246 0.0216465
0.0157865 0.0218611 0.0270223
0.022085 0.0161086 0.0179122
0.0206086 0.0168305 0.0171575
0.0184076 0.0204746 0.0257722
0.019091 0.01504 0.0226958
0.017502 0.0192537 0.0233138
0.0216562 0.0181773 0.021853
0.0187175 0.0193401 0.0238978
0.0177118 0.0149102 0.0209954
0.0176586 0.0231518 0.0191361
0.0184538 0.0150286 0.0161552
0.0177343 0.022623 0.0240664
0.0174457 0.0212969 0.0153354
0.0157025 0.0165301 0.0245209
0.016815 0.0208972 0.022778
0.0196651 0.0158 0.02559
0.0209355 0.0150893 0.0215274
0.0173827 0.0195927 0.0205516
0.0229736 0.0169158 0.0174915
0.0165343 0.01861 0.0257744
0.0197136 0.024473 0.017026
0.0168273 0.0153527 0.0258131
0.0213437 0.0217327 0.021128
0.018283 0.0233852 0.028476
0.0180905 0.0203905 0.0240846
0.0203779 0.018928 0.0219331
0.0185929 0.0243498 0.0170103
0.0199592 0.0214305 0.0171548
0.0206018 0.021642 0.0229943
0.0226489 0.0228137 0.0164973
0.0218597 0.0191396 0.0196914
0.0196365 0.0163266 0.0173645
0.0178262 0.021063 0.0263703
0.0229625 0.0206436 0.0250408
0.0175735 0.014698 0.0158137
0.0174954 0.0210046 0.0176026
0.0211044 0.0171193 0.0204326
0.0145607 0.0181581 0.0255422
0.0160845 0.016481 0.0284102
0.0227529 0.0185252 0.0200358

VERTICES 334 668
1 0
1 1
1 2
1 3
1 4
1 5
1 6
1 7
1 8
1 9
1 10
1 11
1 12
1 13
1 14
1 15
1 16
1 17
1 18
1 19
1 20
1 21
1 22
1 23
1 24
1 25
1 26
1 27
1 28
1 29
1 30
1 31
1 32
1 33
1 34
1 35
1 36
1 37
1 38
1 39
1 40
1 41
1 42
1 43
1 44
1 45
1 46
1 47
1 48
1 49
1 50
1 51
1 52
1 53
1 54
1 55
1 56
1 57
1 58
1 59
1 60
1 61
1 62
1 63
1 64
1 65
1 66
1 67
1 68
1 69
1 70
1 71
1 72
1 73
1 74
1 75
1 76
1 77
1 78
1 79
1 80
1 81
1 82
1 83
1 84
1 85
1 86
1 87
1 88
1 89
1 90
1 91
1 92
1 93
1 94
1 95
1 96
1 97
1 98
1 99
1 100
1 101
1 102
1 103
1 104
1 105
1 106
1 107
1 108
1 109
1 110
1 111
1 112
1 113
1 114
1 115
1 116
1 117
1 118
1 119
1 120
1 121
1 122
1 123
1 124
1 125
1 126
1 127
1 128
1 129
1 130
1 131
1 132
1 133
1 134
1 135
1 136
1 137
1 138
1 139
1 140
1 141
1 142
1 143
1 144
1 145
1 146
1 147
1 148
1 149
1 150
1 151
1 152
1 153
1 154
1 155
1 156
1 157
1 158
1 159
1 160
1 161
1 162
1 163
1 164
1 165
1 166
1 167
1 168
1 169
1 170
1 171
1 172
1 173
1 174
1 175
1 176
1 177
1 178
1 179
1 180
1 181
1 182
1 183
1 184
1 185
1 186
1 187
1 188
1 189
1 190
1 191
1 192
1 193
1 194
1 195
1 196
1 197
1 198
1 199
1 200
1 201
1 202
1 203
1 204
1 205
1 206
1 207
1 208
1 209
1 210
1 211
1 212
1 213
1 214
1 215
1 216
1 217
1 218
1 219
1 220
1 221
1 222
1 223
1 224
1 225
1 226
1 227
1 228
1 229
1 230
1 231
1 232
1 233
1 234
1 235
1 236
1 237
1 238
1 239
1 240
1 241
1 242
1 243
1 244
1 245
1 246
1 247
1 248
1 249
1 250
1 251
1 252
1 253
1 254
1 255
1 256
1 257
1 258
1 259
1 260
1 261
1 262
1 263
1 264
1 265
1 266
1 267
1 268
1 269
1 270
1 271
1 272
1 273
1 274
1 275
1 276
1 277
1 278
1 279
1 280
1 281
1 282
1 283
1 284
1 285
1 286
1 287
1 288
1 289
1 290
1 291
1 292
1 293
1 294
1 295
1 296
1 297
1 298
1 299
1 300
1 301
1 302
1 303
1 304
1 305
1 306
1 307
1 308
1 309
1 310
1 311
1 312
1 313
1 314
1 315
1 316
1 317
1 318
1 319
1 320
1 321
1 322
1 323
1 324
1 325
1 326
1 327
1 328
1 329
1 330
1 331
1 332
1 333

POINT_DATA 334
SCALARS id int 1
LOOKUP_TABLE default
1
2
3
4
5
6
7
8
9
10
12
13
14
15
16
17
18
19
20
21
22
23
24
25
26
27
28
29
30
31
32
33
34
35
36
37
38
39
40
41
42
43
44
46
47
48
49
50
51
52
53
54
55
56
57
58
59
60
61
62
63
64
65
66
67
68
69
70
71
72
73
74
75
76
78
79
80
81
83
84
85
86
87
88
89
90
91
92
93
94
95
96
97
98
99
100
101
102
103
104
105
106
107
108
109
110
111
112
113
114
115
116
117
118
119
120
121
122
123
124
125
126
127
128
129
130
131
132
133
134
135
136
137
138
139
140
141
142
143
144
145
146
147
148
149
150
151
152
153
154
155
156
157
158
159
160
161
162
163
164
165
166
167
168
169
170
172
173
174
175
176
177
178
179
180
181
182
183
184
185
186
187
188
189
191
192
193
194
195
196
197
198
199
200
201
202
203
204
205
206
207
208
209
210
212
213
214
215
216
217
218
219
220
221
222
223
224
225
226
227
228
229
230
231
232
233
234
235
236
237
238
239
240
241
242
243
244
245
246
247
248
249
250
251
252
253
254
255
256
257
258
259
260
261
262
263
264
265
266
267
268
269
270
271
272
273
274
275
276
277
278
279
280
281
282
283
284
285
286
287
288
289
290
291
292
293
294
295
296
297
298
299
300
301
302
303
304
305
306
307
308
309
310
311
312
313
314
315
316
317
318
319
320
321
322
323
324
325
326
327
328
329
330
331
332
333
334
335
336
337
338
339
340
341

SCALARS type int 1
LOOKUP_TABLE default
1
1
1
1
1
1
1
1
1
1
1
1
1
1
1
1
1
1
1
1
1
1
1
1
1
1
1
1
1
1
1
1
1
1
1
1
1
1
1
1
1
1
1
1
1
1
1
1
1
1
1
1
1
1
1
1
1
1
1
1
1
1
1
1
1
1
1
1
1
1
1
1
1
1
1
1
1
1
1
1
1
1
1
1
1
1
1
1
1
1
1
1
1
1
1
1
1
1
1
1
1
1
1
1
1
1
1
1
1
1
1
1
1
1
1
1
1
1
1
1
1
1
1
1
1
1
1
1
1
1
1
1
1
1
1
1
1
1
1
1
1
1
1
1
1
1
1
1
1
1
1
1
1
1
1
1
1
1
1
1
1
1
1
1
1
1
1
1
1
1
1
1
1
1
1
1
1
1
1
1
1
1
1
1
1
1
1
1
1
1
1
1
1
1
1
1
1
1
1
1
1
1
1
1
1
1
1
1
1
1
1
1
1
1
1
1
1
1
1
1
1
1
1
1
1
1
1
1
1
1
1
1
1
1
1
1
1
1
1
1
1
1
1
1
1
1
1
1
1
1
1
1
1
1
1
1
1
1
1
1
1
1
1
1
1
1
1
1
1
1
1
1
1
1
1
1
1
1
1
1
1
1
1
1
1
1
1
1
1
1
1
1
1
1
1
1
1
1
1
1
1
1
1
1
1
1
1
1
1
1
1
1
1
1
1
1
1
1
1
1
1
1
1
1
1
1
1
1
1
1
1
1
1
1

SCALARS radius float 1
LOOKUP_TABLE default
0.0005
0.0005
0.0005
0.0005
0.0005
0.0005
0.0005
0.0005
0.0005
0.0005
0.0005
0.0005
0.0005
0.0005
0.0005
0.0005
0.0005
0.0005
0.0005
0.0005
0.0005
0.0005
0.0005
0.0005
0.0005
0.0005
0.0005
0.0005
0.0005
0.0005
0.0005
0.0005
0.0005
0.0005
0.0005
0.0005
0.0005
0.0005
0.0005
0.0005
0.0005
0.0005
0.0005
0.0005
0.0005
0.0005
0.0005
0.0005
0.0005
0.0005
0.0005
0.0005
0.0005
0.0005
0.0005
0.0005
0.0005
0.0005
0.0005
0.0005
0.0005
0.0005
0.0005
0.0005
0.0005
0.0005
0.0005
0.0005
0.0005
0.0005
0.0005
0.0005
0.0005
0.0005
0.0005
0.0005
0.0005
0.0005
0.0005
0.0005
0.0005
0.0005
0.0005
0.0005
0.0005
0.0005
0.0005
0.0005
0.0005
0.0005
0.0005
0.0005
0.0005
0.0005
0.0005
0.0005
0.0005
0.0005
0.0005
0.0005
0.0005
0.0005
0.0005
0.0005
0.0005
0.0005
0.0005
0.0005
0.0005
0.0005
0.0005
0.0005
0.0005
0.0005
0.0005
0.0005
0.0005
0.0005
0.0005
0.0005
0.0005
0.0005
0.0005
0.0005
0.0005
0.0005
0.0005
0.0005
0.0005
0.0005
0.0005
0.0005
0.0005
0.0005
0.0005
0.0005
0.0005
0.0005
0.0005
0.0005
0.0005
0.0005
0.0005
0.0005
0.0005
0.0005
0.0005
0.0005
0.0005
0.0005
0.0005
0.0005
0.0005
0.0005
0.0005
0.0005
0.0005
0.0005
0.0005
0.0005
0.0005
0.0005
0.0005
0.0005
0.0005
0.0005
0.0005
0.0005
0.0005
0.0005
0.0005
0.0005
0.0005
0.0005
0.0005
0.0005
0.0005
0.0005
0.0005
0.0005
0.0005
0.0005
0.0005
0.0005
0.0005
0.0005
0.0005
0.0005
0.0005
0.0005
0.0005
0.0005
0.0005
0.0005
0.0005
0.0005
0.0005
0.0005
0.0005
0.0005
0.0005
0.0005
0.0005
0.0005
0.0005
0.0005
0.0005
0.0005
0.0005
0.0005
0.0005
0.0005
0.0005
0.0005
0.0005
0.0005
0.0005
0.0005
0.0005
0.0005
0.0005
0.0005
0.0005
0.0005
0.0005
0.0005
0.0005
0.0005
0.0005
0.0005
0.0005
0.0005
0.0005
0.0005
0.0005
0.0005
0.0005
0.0005
0.0005
0.0005
0.0005
0.0005
0.0005
0.0005
0.0005
0.0005
0.0005
0.0005
0.0005
0.0005
0.0005
0.0005
0.0005
0.0005
0.0005
0.0005
0.0005
0.0005
0.0005
0.0005
0.0005
0.0005
0.0005
0.0005
0.0005
0.0005
0.0005
0.0005
0.0005
0.0005
0.0005
0.0005
0.0005
0.0005
0.0005
0.0005
0.0005
0.0005
0.0005
0.0005
0.0005
0.0005
0.0005
0.0005
0.0005
0.0005
0.0005
0.0005
0.0005
0.0005
0.0005
0.0005
0.0005
0.0005
0.0005
0.0005
0.0005
0.0005
0.0005
0.0005
0.0005
0.0005
0.0005
0.0005
0.0005
0.0005
0.0005
0.0005
0.0005
0.0005
0.0005
0.0005
0.0005
0.0005
0.0005
0.0005
0.0005
0.0005
0.0005
0.0005
0.0005
0.0005
0.0005
0.0005
0.0005
0.0005
0.0005
0.0005
0.0005
0.0005
0.0005
0.0005
0.0005
0.0005

SCALARS mass float 1
LOOKUP_TABLE default
1.46608e-07
1.46608e-07
1.46608e-07
1.46608e-07
1.46608e-07
1.46608e-07
1.46608e-07
1.46608e-07
1.46608e-07
1.46608e-07
1.46608e-07
1.46608e-07
1.46608e-07
1.46608e-07
1.46608e-07
1.46608e-07
1.46608e-07
1.46608e-07
1.46608e-07
1.46608e-07
1.46608e-07
1.46608e-07
1.46608e-07
1.46608e-07
1.46608e-07
1.46608e-07
1.46608e-07
1.46608e-07
1.46608e-07
1.46608e-07
1.46608e-07
1.46608e-07
1.46608e-07
1.46608e-07
1.46608e-07
1.46608e-07
1.46608e-07
1.46608e-07
1.46608e-07
1.46608e-07
1.46608e-07
1.46608e-07
1.46608e-07
1.46608e-07
1.46608e-07
1.46608e-07
1.46608e-07
1.46608e-07
1.46608e-07
1.46608e-07
1.46608e-07
1.46608e-07
1.46608e-07
1.46608e-07
1.46608e-07
1.46608e-07
1.46608e-07
1.46608e-07
1.46608e-07
1.46608e-07
1.46608e-07
1.46608e-07
1.46608e-07
1.46608e-07
1.46608e-07
1.46608e-07
1.46608e-07
1.46608e-07
1.46608e-07
1.46608e-07
1.46608e-07
1.46608e-07
1.46608e-07
1.46608e-07
1.46608e-07
1.46608e-07
1.46608e-07
1.46608e-07
1.46608e-07
1.46608e-07
1.46608e-07
1.46608e-07
1.46608e-07
1.46608e-07
1.46608e-07
1.46608e-07
1.46608e-07
1.46608e-07
1.46608e-07
1.46608e-07
1.46608e-07
1.46608e-07
1.46608e-07
1.46608e-07
1.46608e-07
1.46608e-07
1.46608e-07
1.46608e-07
1.46608e-07
1.46608e-07
1.46608e-07
1.46608e-07
1.46608e-07
1.46608e-07
1.46608e-07
1.46608e-07
1.46608e-07
1.46608e-07
1.46608e-07
1.46608e-07
1.46608e-07
1.46608e-07
1.46608e-07
1.46608e-07
1.46608e-07
1.46608e-07
1.46608e-07
1.46608e-07
1.46608e-07
1.46608e-07
1.46608e-07
1.46608e-07
1.46608e-07
1.46608e-07
1.46608e-07
1.46608e-07
1.46608e-07
1.46608e-07
1.46608e-07
1.46608e-07
1.46608e-07
1.46608e-07
1.46608e-07
1.46608e-07
1.46608e-07
1.46608e-07
1.46608e-07
1.46608e-07
1.46608e-07
1.46608e-07
1.46608e-07
1.46608e-07
1.46608e-07
1.46608e-07
1.46608e-07
1.46608e-07
1.46608e-07
1.46608e-07
1.46608e-07
1.46608e-07
1.46608e-07
1.46608e-07
1.46608e-07
1.46608e-07
1.46608e-07
1.46608e-07
1.46608e-07
1.46608e-07
1.46608e-07
1.46608e-07
1.46608e-07
1.46608e-07
1.46608e-07
1.46608e-07
1.46608e-07
1.46608e-07
1.46608e-07
1.46608e-07
1.46608e-07
1.46608e-07
1.46608e-07
1.46608e-07
1.46608e-07
1.46608e-07
1.46608e-07
1.46608e-07
1.46608e-07
1.46608e-07
1.46608e-07
1.46608e-07
1.46608e-07
1.46608e-07
1.46608e-07
1.46608e-07
1.46608e-07
1.46608e-07
1.46608e-07
1.46608e-07
1.46608e-07
1.46608e-07
1.46608e-07
1.46608e-07
1.46608e-07
1.46608e-07
1.46608e-07
1.46608e-07
1.46608e-07
1.46608e-07
1.46608e-07
1.46608e-07
1.46608e-07
1.46608e-07
1.46608e-07
1.46608e-07
1.46608e-07
1.46608e-07
1.46608e-07
1.46608e-07
1.46608e-07
1.46608e-07
1.46608e-07
1.46608e-07
1.46608e-07
1.46608e-07
1.46608e-07
1.46608e-07
1.46608e-07
1.46608e-07
1.46608e-07
1.46608e-07
1.46608e-07
1.46608e-07
1.46608e-07
1.46608e-07
1.46608e-07
1.46608e-07
1.46608e-07
1.46608e-07
1.46608e-07
1.46608e-07
1.46608e-07
1.46608e-07
1.46608e-07
1.46608e-07
1.46608e-07
1.46608e-07
1.46608e-07
1.46608e-07
1.46608e-07
1.46608e-07
1.46608e-07
1.46608e-07
1.46608e-07
1.46608e-07
1.46608e-07
1.46608e-07
1.46608e-07
1.46608e-07
1.46608e-07
1.46608e-07
1.46608e-07
1.46608e-07
1.46608e-07
1.46608e-07
1.46608e-07
1.46608e-07
1.46608e-07
1.46608e-07
1.46608e-07
1.46608e-07
1.46608e-07
1.46608e-07
1.46608e-07
1.46608e-07
1.46608e-07
1.46608e-07
1.46608e-07
1.46608e-07
1.46608e-07
1.46608e-07
1.46608e-07
1.46608e-07
1.46608e-07
1.46608e-07
1.46608e-07
1.46608e-07
1.46608e-07
1.46608e-07
1.46608e-07
1.46608e-07
1.46608e-07
1.46608e-07
1.46608e-07
1.46608e-07
1.46608e-07
1.46608e-07
1.46608e-07
1.46608e-07
1.46608e-07
1.46608e-07
1.46608e-07
1.46608e-07
1.46608e-07
1.46608e-07
1.46608e-07
1.46608e-07
1.46608e-07
1.46608e-07
1.46608e-07
1.46608e-07
1.46608e-07
1.46608e-07
1.46608e-07
1.46608e-07
1.46608e-07
1.46608e-07
1.46608e-07
1.46608e-07
1.46608e-07
1.46608e-07
1.46608e-07
1.46608e-07
1.46608e-07
1.46608e-07
1.46608e-07
1.46608e-07
1.46608e-07
1.46608e-07
1.46608e-07
1.46608e-07
1.46608e-07
1.46608e-07
1.46608e-07
1.46608e-07
1.46608e-07
1.46608e-07
1.46608e-07
1.46608e-07
1.46608e-07
1.46608e-07
1.46608e-07
1.46608e-07
1.46608e-07
1.46608e-07

VECTORS velocity float
0.00152447 -0.00540238 -0.00947988
0.00286743 -0.00387847 -0.0220546
-0.00100936 0.00148799 0.00164626
0.00580952 0.00815549 0.00564789
-0.0028884 -0.0191096 -0.00966587
0.00354496 0.00220783 -0.00252854
0.0205394 -0.000930792 -0.00782108
-0.00268479 0.000227078 -0.00373125
0.00197273 -0.00449077 0.0143834
0.00278506 0.00788741 -0.00462951
-0.00969284 0.0287918 0.0121123
0.00120597 -0.01373 -0.0111483
0.00210327 0.00491138 -0.000235872
0.00495797 0.0051846 0.000177278
0.00285449 0.00349857 0.000578309
0.000466643 0.0241539 0.0115405
0.000126224 0.00043121 -0.000386137
0.0052165 0.00225605 -0.00451863
-0.00165295 0.0136516 -0.000715639
0.00133358 0.00491809 -0.0187018
-0.00950152 -0.00580902 -0.00378429
0.00452345 0.0035628 -0.00306927
0.00157999 -0.000590276 0.00240738
0.00093892 0.00419943 0.00089444
-0.000381265 0.000881038 -0.00114947
0.00346459 -0.000377307 0.000527025
0.00425316 0.00539038 0.00285709
0.00246663 0.00250729 -0.00115304
0.00393008 0.00409609 -0.00132199
0.00497063 0.00135059 -0.00123773
-0.00945165 -0.0072831 -0.0035766
0.0019648 0.00965486 -0.020234
0.00227867 0.0195281 0.0210917
-0.000689962 -0.000401953 -0.000999832
-0.00108274 0.0149894 0.0123252
0.011178 -0.0476832 -0.300826
0.00168814 0.00297475 -0.000129698
-0.000396364 -0.000339142 0.000671001
0.00266279 0.00621078 -0.00133945
0.00175904 0.00189528 0.000642716
-0.0537248 0.00788844 -0.0881618
0.000989642 0.000485382 0.000187769
0.00254511 0.00459114 0.0048865
0.0010642 0.000331928 -0.00344204
0.0262228 -0.0120192 -0.0161951
-0.00234689 0.00104493 0.00036083
0.00223341 0.0156996 0.00836123
-0.0491329 -0.157403 0.362345
0.000918113 0.000694051 -0.0026177
0.000758568 -0.00107098 -0.000386831
0.000972707 0.00222385 -0.0016389
0.000625064 0.000222164 -0.000376462
-0.00224829 -0.00246796 -0.0012582
-0.00965208 0.0196986 0.0202284
-0.00123543 -0.00362329 -0.00494093
0.00661254 0.00904547 -0.00571191
0.00322819 0.0121462 0.00058103
-0.00347592 -0.00185281 -0.00203371
0.0015919 0.00776986 0.000518967
0.00185122 0.000301042 0.00364247
0.00181898 0.00210435 -0.00548604
-0.000372572 -0.00186329 -0.00308751
-0.00186385 -0.00106732 -0.000133166
-0.000410672 -0.000728009 -0.00125491
0.0113111 0.0360547 0.0180188
-0.00543839 -0.00236035 -0.00316427
0.00403949 0.00344615 -0.000254347
0.00128703 0.00317573 -0.00136424
0.00569687 0.00343739 0.000842676
0.00373486 8.59494e-05 -0.00266398
0.0116436 0.0222609 0.0132152
0.00253512 0.00639864 -0.0102024
0.000148613 -0.000372004 0.000474295
0.00120133 0.000493418 0.000259542
0.00412875 0.000377424 -0.00211006
-0.00498704 -0.00171297 -0.00891292
0.00232401 -0.000887215 -0.00148381
-0.000288119 -0.00216535 -0.00332383
-0.000691187 0.00110675 0.00283911
-0.00780976 0.0138823 -0.00483868
0.000487298 0.000153009 -0.00061135
0.001132 0.0185564 0.0198035
0.0047767 0.00484233 0.000624684
-0.0714128 -0.0476879 -0.00300048
-0.0010752 0.00541004 -0.0140692
-0.00217026 -0.00129613 -0.0027187
0.00378862 -0.000909941 -0.00264853
0.00407367 0.00187092 -0.00476209
-4.97089e-06 -2.971e-05 -0.0110512
0.00575815 -0.000729836 -0.00282662
0.0144825 0.0280836 -0.0465808
-1.83803e-05 0.00159323 -0.000432822
0.00626532 0.000557127 -0.0015117
0.00576625 -0.000613959 -0.00166412
0.00360505 -0.000651568 0.00279679
0.00431965 0.00468181 -0.00458353
0.00469761 0.00222853 -0.00325927
0.0215369 0.00190856 0.0109729
0.00248603 0.00199191 -0.00624354
0.00424006 0.0048032 -0.00409927
-4.40395e-05 0.000126743 0.000397137
5.69336e-05 -0.0211904 -0.00978283
-0.00158784 -0.00502344 -0.00294094
0.00127725 0.0246349 0.00629809
0.00198523 0.0188899 0.0121382
0.000325089 0.021513 0.0172833
0.000540939 -0.0179132 -0.0164264
-0.000559575 -0.000381295 0.00183434
0.00150226 0.0218519 0.0158485
0.0211325 0.0029953 0.0107835
0.0041906 0.00546552 0.00314131
0.00311442 0.00118377 -0.00299824
-0.00292427 -8.60949e-06 0.00448408
0.00411697 0.00824846 0.00455339
0.00748105 0.00334298 -0.00193157
-0.00869528 0.0385413 0.0119017
0.00644047 0.00729352 0.011709
0.00198188 0.00210068 0.00217187
0.00347353 0.00936249 -0.00332038
-0.00194312 0.00130266 0.00177609
-0.0134263 0.00314259 -0.0153632
-0.00198908 0.0069022 0.00895376
0.00101909 0.00283675 -0.00141366
0.00952975 0.00478258 -0.0243045
-0.00689397 0.00246696 -0.014859
0.00584839 0.00047716 -0.001856
0.00282623 0.000813792 -0.00091713
-0.00314585 -0.00281055 -0.00898594
0.00272301 -0.00260131 -0.00677802
0.00451472 -1.10467e-06 -0.0024579
0.00294309 0.0036697 0.000821433
0.000274283 0.000740533 0.000819461
0.00128711 0.00139972 0.00168204
0.00544185 0.00962205 0.000601052
0.00316149 0.00752429 0.0113291
-0.00436829 0.028147 0.0112041
-0.00178514 -0.00648206 0.00147084
0.00881917 -0.00153148 -0.00608101
0.00701755 0.00600447 -0.00821057
-0.00109932 0.0036279 -0.00582687
0.00146785 0.00146893 -9.43169e-05
0.00701002 0.0207625 0.0163447
-0.000132618 0.0261671 0.00896484
0.00111519 0.0211578 -0.0167692
0.00402316 0.00362128 -0.000708685
0.0023188 0.0116835 0.00421461
-0.00591461 0.0101517 0.00248117
-0.00083164 -0.000309128 -0.000472975
0.00448797 0.00376297 -0.00521461
0.00392745 -0.00196074 -0.00379055
-0.000574004 -0.000530563 -0.000912576
0.00377703 -0.00325001 -0.00223582
-1.73293e-05 -0.00715813 -0.0131595
0.00163097 0.00392756 0.00323738
0.00103715 0.00139114 0.00091759
5.21439e-05 -0.0226945 0.0137261
0.000765857 0.000132293 -0.00167666
0.00273896 -0.0041639 -0.0191664
0.00189949 0.0153485 -0.0107404
-0.0147574 -0.00511554 0.00507578
0.00443248 -1.06787e-05 -0.00667121
0.00768247 -0.00160208 -0.00518374
0.00348388 0.00304252 -0.00122239
0.000458782 -0.0240221 0.00320774
0.00433925 0.00444499 -0.00203788
0.00461952 0.00193067 -0.000819105
-0.00155332 0.00200005 0.000377896
-0.00146665 0.00783345 0.00788001
-0.00412897 0.00148606 -0.00791257
-0.00018864 -0.000360957 -0.000291648
-5.59214e-08 0.0253523 0.0103038
0.00493971 0.00804936 -0.00389853
0.00500715 0.00855974 -0.00456207
0.00615057 0.00843787 0.000480079
0.00564203 0.00346262 -0.00127358
0.0203101 -0.022359 -0.021612
-0.00239238 0.00325643 -0.000720247
0.000581345 0.00935159 0.000859422
0.002276 0.00114694 -0.000593981
0.00402512 0.000946824 0.00430108
0.00408196 0.00661702 0.00311464
0.00557316 0.014304 -0.00196949
0.00475101 0.00538983 -2.61434e-05
0.000710948 -0.00191254 -0.0224155
-0.000184293 -0.00302667 -0.00298128
0.00252922 -0.000208232 -0.00547697
0.00111291 -0.0189866 0.0128883
-0.00186149 0.0094872 -0.00385602
0.00700449 -0.00722513 -0.00899627
0.0139207 -0.00514319 -0.0348741
0.000273471 -0.00102959 -0.00313327
0.000550368 -0.00355143 1.41279e-05
-0.000675392 0.00722007 0.0199527
-0.000647472 0.0001833 0.000267425
0.000288088 0.000576524 -0.00103918
0.0525908 -0.0654049 -0.101456
0.00206698 0.00101438 -0.000510802
-0.00312371 0.00280275 -0.00684275
0.00335269 0.000122407 -0.00243353
-0.00500705 -0.00924148 0.00443277
0.00154262 0.000325815 0.00225868
0.000716241 0.02225 0.0150098
0.00110678 -0.000821986 -0.0016489
0.0122746 -0.00802047 -0.00713362
0.000587096 -0.0140442 -0.0165051
0.000735449 -0.000424939 0.000378282
0.001374 0.00544124 -0.00545907
0.00232478 0.011981 0.010437
0.00735733 -0.000268052 -0.0157067
0.00431664 0.00575139 -0.00167915
-0.00133454 0.000996203 -0.00443347
0.00403602 0.00517917 -0.00146941
0.0083356 0.016408 -0.0101757
0.00322879 0.00380808 0.000410626
0.00709464 0.0214104 -0.043002
0.000702431 0.00170894 0.0092237
0.00216096 -0.00533313 -0.0103614
0.00335317 0.000633581 -0.00128037
0.00453576 0.00512098 -0.000797977
-0.00105125 0.0279125 0.00966138
0.00395953 0.00896432 -0.000738061
0.00114652 0.000591332 -0.00116913
0.00472447 0.00674292 0.00466829
0.00430594 -0.000795553 -0.00330312
0.0132422 0.0429159 -0.0712543
0.00483185 0.00553617 9.72161e-05
0.00228054 0.0053956 -0.00462375
0.000430303 4.42279e-05 0.00166836
0.00322003 0.00807785 -0.0034386
0.00331561 0.00154283 -0.00220846
-0.000213155 0.000205812 4.38827e-05
-0.000464668 -0.00417081 -0.000723859
0.00276944 0.010827 -0.00727709
0.00290489 0.00331126 -0.00233901
0.00505391 0.00478172 -0.00824342
-0.0115866 0.00599791 0.00513771
0.0035437 0.00505848 -0.00203373
0.00114521 0.00462252 0.0198115
0.0043461 0.00436302 -0.00218824
-0.00719887 0.00803602 0.00437106
-0.0147697 -0.000757122 -0.0154408
0.000624439 -0.000589898 -0.00208409
0.00180171 0.00648434 0.00307818
-0.00111011 0.00124458 0.000212466
0.00514083 0.00837202 -0.000768498
-0.00131412 -1.57999e-05 -0.000515821
0.00855905 0.00930918 -0.00278434
0.00920517 0.00478118 -0.00200906
0.00501639 0.00378273 -0.000657915
0.0 -0.0 -0.01
0.0 -0.0 -0.01
-0.0156315 -0.013468 -0.0122854
0.0 -0.0 -0.01
0.0 -0.0 -0.01
0.0 -0.0 -0.01
0.0 -0.0 -0.01
0.0 -0.0 -0.01
0.0 -0.0 -0.01
0.00353181 0.00351477 0.000192799
0.0 -0.0 -0.01
0.0 -0.0 -0.01
0.0 0.0 -0.170693
0.0 -0.0 -0.01
0.0 -0.0 -0.01
0.0 -0.0 -0.01
0.0 -0.0 -0.01
0.0 -0.0 -0.01
0.0 -0.0 -0.01
0.0 -0.0 -0.01
0.0 -0.0 -0.01
0.0 -0.0 -0.01
0.0 -0.0 -0.01
0.0 -0.0 -0.01
0.000813334 0.00413402 0.00646018
0.0 -0.0 -0.01
0.0 -0.0 -0.01
0.0 -0.0 -0.01
-0.00583412 0.0196187 -0.000292271
0.0 -0.0 -0.01
0.0 -0.0 -0.01
0.0 -0.0 -0.01
0.0 -0.0 -0.01
0.0 -0.0 -0.01
-0.00910116 0.00102442 -0.0116069
-0.0118488 0.0298103 -0.00293189
0.0 -0.0 -0.01
0.0 -0.0 -0.01
0.00422878 0.00437862 0.000816302
0.00922389 0.00623848 -0.000492013
0.0 -0.0 -0.01
0.00530561 0.00428809 -0.00427948
0.00242686 0.00150928 -0.00162395
0.0 -0.0 -0.01
0.0 -0.0 -0.01
0.0 -0.0 -0.01
-0.0309957 0.0537877 0.059647
-0.0569567 0.00655624 0.0254951
0.0 -0.0 -0.01
0.0 -0.0 -0.01
0.0 -0.0 -0.01
0.0 -0.0 -0.01
0.0 -0.0 -0.01
0.0 -0.0 -0.01
0.0 -0.0 -0.01
-0.000861383 -0.00261324 0.00077835
0.0 -0.0 -0.01
0.00172524 0.00253653 -0.000865918