# vtk DataFile Version 3.0
LIGGGHTS particles timestep 7000000
ASCII
DATASET POLYDATA
POINTS 250 float
0.0209905 0.0148283 0.0158028
0.0284579 0.0156264 0.0140656
0.0170398 0.0211885 0.0153959
0.0262414 0.0233025 0.012362
0.022315 0.0196178 0.0167142
0.0270639 0.0232461 0.0126343
0.0215195 0.0240131 0.0145409
0.013861 0.021217 0.0171669
0.0202175 0.0233214 0.0122838
0.021857 0.0221735 0.015033
0.0306149 0.0193276 0.00722809
0.0176713 0.0242365 0.017122
0.0191978 0.0246373 0.0175259
0.0198946 0.0163301 0.0160108
0.0192226 0.0238192 0.0137832
0.0173958 0.0242394 0.014164
0.0189576 0.0241721 0.016521
0.0213179 0.0229137 0.0157357
0.0204306 0.022968 0.0133172
0.0176727 0.0146257 0.0119316
0.0171886 0.0153044 0.0149527
0.0188794 0.0141751 0.0126797
0.0140662 0.0225965 0.0154112
0.0297953 0.0159986 0.00846695
0.019793 0.0238513 0.0155963
0.0179557 0.0216616 0.0160379
0.0303858 0.0183523 0.0072213
0.015444 0.0229867 0.0136609
0.017536 0.0190587 0.0159517
0.0178927 0.0169573 0.0154184
0.0382248 0.0188984 0.00572852
0.027524 0.0192072 0.0158073
0.0189031 0.0213862 0.0162123
0.0164345 0.0200315 0.0166529
0.0227816 0.0227337 0.0166951
0.0180331 0.0239398 0.016217
0.0184675 0.0229929 0.0149843
0.0170632 0.0141984 0.0133789
0.0205663 0.0150713 0.0149305
0.020888 0.021244 0.0163254
0.0158768 0.0223318 0.0160193
0.0255478 0.0208105 0.0163773
0.0281941 0.0163059 0.0147848
0.0192905 0.0143199 0.0137425
0.0206145 0.017577 0.0165673
0.0169939 0.0219354 0.0160594
0.01677 0.018076 0.0158513
0.0213812 0.0203187 0.0166527
0.0201835 0.0237238 0.0135868
0.020599 0.0220951 0.0158863
0.024229 0.0225906 0.0158999
0.0192111 0.024115 0.012838
0.0218275 0.0231181 0.0142978
0.0207912 0.014092 0.0132148
0.0178893 0.0142117 0.0128156
0.0228505 0.0213603 0.0162521
0.0177703 0.0179482 0.0158128
0.0167671 0.0220331 0.0148058
0.0230805 0.0164017 0.0150859
0.0179252 0.0155086 0.0141814
0.0189711 0.0159911 0.0157678
0.0164301 0.0218263 0.0168837
0.0218317 0.0181172 0.0158553
0.0200523 0.0244443 0.0138444
0.0188272 0.0152389 0.0151247
0.0180517 0.0158256 0.0153577
0.0224283 0.0237988 0.01432
0.0170477 0.00753778 0.0337898
0.0293682 0.0149998 0.0103138
0.0172189 0.0194343 0.0168224
0.0211106 0.0214744 0.0152873
0.0595372 0.0181191 0.00595203
0.0181932 0.0138164 0.0136823
0.0315272 0.0226467 0.00905968
0.0306333 0.0199567 0.0321969
0.017256 0.0208957 0.0163319
0.0212913 0.0205737 0.0156893
0.024769 0.0190431 0.0071817
0.0200699 0.0149657 0.0161684
0.0206931 0.0158075 0.0156388
0.013624 0.0219278 0.016009
0.0237166 0.0216592 0.0171259
0.0206377 0.0231526 0.0102314
0.0155719 0.0193042 0.0160012
0.0160501 0.0215148 0.0153771
0.0197143 0.0216582 0.00802504
0.0184331 0.0186317 0.00719747
0.021498 0.0196253 0.0159343
0.0175999 0.0147538 0.015679
0.0243982 0.0198569 0.0167036
0.0171029 0.0237095 0.0159302
0.0219443 0.0235394 0.0133596
0.0186507 0.0222737 0.0156542
0.015165 0.0220321 0.0170749
0.0272622 0.020393 0.0156011
0.0223711 0.0212792 0.017251
0.0232511 0.0148374 0.0107163
0.0183351 0.0229614 0.0163085
0.00192884 0.0172381 0.0435188
0.0231976 0.0156733 0.0143985
0.017319 0.0200284 0.0158376
0.0208869 0.0233303 0.012964
0.0227273 0.0164541 0.0160199
0.0222881 0.0202297 0.0159219
0.0235552 0.0153913 0.00924393
0.0228001 0.0221499 0.0147008
0.0242178 0.0175202 0.00745114
0.0197692 0.0155167 0.01539
0.0318068 0.0232604 0.010357
0.112691 0.0188173 0.00572472
0.0231673 0.0202329 0.0173217
0.019156 0.0191243 0.0167607
0.0181091 0.0235471 0.0142321
0.0163205 0.023234 0.0163402
0.0361248 0.0268795 0.0435188
0.0219718 0.0185012 0.00606129
0.0290775 0.0147404 0.0113141
0.0158614 0.0224222 0.0150023
0.0223517 0.0157351 0.0149297
0.0207644 0.0144972 0.0141286
0.0235407 0.0226257 0.0718961
0.0176408 0.022594 0.0153806
0.0162612 0.0142761 0.013971
0.0163014 0.0208108 0.016041
0.0226953 0.0186167 0.0159242
0.0215349 0.0148331 0.0146707
0.023811 0.0160433 0.00840018
0.023946 0.0215571 0.0160953
0.0197124 0.0183845 0.0338124
0.0176425 0.0150132 0.0133601
0.0217017 0.0143055 0.0138378
0.01743 0.024119 0.0131883
0.0198888 0.0211942 0.0163241
0.0209754 0.0243101 0.0136832
0.0309469 0.0206722 0.00752823
0.0324792 0.0230099 0.013219
0.0220959 0.0169278 0.015405
0.0203656 0.0203494 0.0166102
0.0311504 0.0216448 0.00799734
0.0163029 0.023109 0.0132568
0.056184 0.0176484 0.00593477
0.0277457 0.0182705 0.015742
0.0164696 0.0156303 0.0143389
0.0240387 0.0166449 0.0152371
0.019828 0.0140063 0.0129599
0.0166522 0.0238704 0.0135742
0.0208492 0.0224794 0.00892741
0.0218746 0.0187176 0.0166612
0.0170396 0.0233784 0.0144563
0.0139555 0.0204031 0.0165943
0.0211129 0.0239088 0.0127497
0.0212634 0.0228207 0.0136538
0.0185805 0.0178299 0.00734176
0.0167345 0.023945 0.0169142
0.023246 0.0150412 0.0153544
0.0189051 0.0239 0.0147276
0.0279869 0.0173011 0.0154051
0.0219275 0.0219707 0.0166782
0.0209058 0.0224913 0.0149162
0.016041 0.0235315 0.0142279
0.02649 0.0231293 0.00996137
0.0184474 0.0146561 0.014162
0.0185672 0.013883 0.0164378
0.01544 0.0146416 0.0144095
0.0248525 0.0219833 0.016229
0.0132119 0.021088 0.0163622
0.0231179 0.0234356 0.014789
0.0240025 0.0150465 0.00985292
0.017335 0.022831 0.016348
0.0255559 0.0175107 0.0165144
0.0259766 0.0183047 0.016953
0.0146979 0.0226364 0.0141206
0.0157943 0.0182929 0.0158829
0.0295847 0.0154275 0.00920542
0.0251301 0.0191128 0.0167655
0.0210199 0.0234238 0.0115458
0.0216633 0.0155649 0.0156354
0.0300823 0.0168375 0.00776254
0.170075 0.0198241 0.00580831
0.0254234 0.0215328 0.016807
0.0228464 0.0230536 0.0156723
0.0220584 0.0234975 0.0152359
0.0156248 0.0229177 0.0169897
0.0200553 0.0222249 0.00858792
0.0197816 0.0233802 0.0145157
0.0288302 0.0148683 0.0122116
0.0172523 0.0163105 0.0150032
0.0255208 0.0226523 0.00909155
0.02362 0.0178935 0.0157996
0.01941 0.0228019 0.015258
0.0234978 0.0192131 0.0159389
0.0184525 0.0167214 0.0162126
0.0194771 0.0145625 0.0154712
0.0164289 0.0236285 0.0151936
0.0201526 0.0242411 0.016627
0.0166596 0.0227148 0.0155292
0.0146569 0.0150283 0.0148965
0.0189171 0.0205816 0.00749707
0.0271051 0.0211539 0.015254
0.0237154 0.0228299 0.0151624
0.0206805 0.0235597 0.0174659
0.0177239 0.0236727 0.0151462
0.0153691 0.0202869 0.0160398
0.0202477 0.0237949 0.0119562
0.0348586 0.0130208 0.0435188
0.0228931 0.0146326 0.0145123
0.02454 0.0208169 0.016445
0.0256642 0.0229568 0.00969954
0.0170384 0.0225735 0.0172976
0.00550493 0.0073559 0.0435188
0.0239832 0.0156365 0.0150163
0.026822 0.0219935 0.0144987
0.0147005 0.0233269 0.0154566
0.0203361 0.0230104 0.0155735
0.0195978 0.0220428 0.0158825
0.0232326 0.0221245 0.0156847
0.0166286 0.0208803 0.0171492
0.0152824 0.0231788 0.0146996
0.0246056 0.0159355 0.0157397
0.0165684 0.0192941 0.0159913
0.0158473 0.019273 0.0169632
0.0206102 0.0237885 0.0149134
0.0185044 0.0143463 0.0155539
0.0247594 0.0198922 0.00727971
0.0251019 0.0166805 0.0161857
0.0179584 0.0221974 0.0168821
0.0168933 0.0147299 0.0125492
0.0162526 0.0163307 0.0150189
0.0154229 0.0212278 0.0165089
0.0209626 0.0235229 0.0140148
0.0258226 0.0232505 0.0105293
0.0193788 0.0223603 0.00879724
0.0148887 0.0224733 0.0159658
0.02322 0.0205434 0.0157712
0.0197459 0.0231449 0.0101731
0.0221692 0.021164 0.015412
0.01823 0.0206923 0.0164893
0.0239807 0.0166776 0.0162348
0.0190984 0.0196813 0.00725608
0.0149653 0.0219918 0.0148374
0.0188247 0.0236127 0.0156975
0.0226261 0.0151958 0.0137296
0.0183073 0.024058 0.0129659
0.0144982 0.0216733 0.0164223
0.0184321 0.0244044 0.0138438
0.0241087 0.018768 0.0167583
0.00646791 0.0259621 0.0536049
0.020176 0.0242074 0.012959
0.0235187 0.0158603 0.0158736
0.0198582 0.0144755 0.0145508

VERTICES 250 500
1 0
1 1
1 2
1 3
1 4
1 5
1 6
1 7
1 8
1 9
1 10
1 11
1 12
1 13
1 14
1 15
1 16
1 17
1 18
1 19
1 20
1 21
1 22
1 23
1 24
1 25
1 26
1 27
1 28
1 29
1 30
1 31
1 32
1 33
1 34
1 35
1 36
1 37
1 38
1 39
1 40
1 41
1 42
1 43
1 44
1 45
1 46
1 47
1 48
1 49
1 50
1 51
1 52
1 53
1 54
1 55
1 56
1 57
1 58
1 59
1 60
1 61
1 62
1 63
1 64
1 65
1 66
1 67
1 68
1 69
1 70
1 71
1 72
1 73
1 74
1 75
1 76
1 77
1 78
1 79
1 80
1 81
1 82
1 83
1 84
1 85
1 86
1 87
1 88
1 89
1 90
1 91
1 92
1 93
1 94
1 95
1 96
1 97
1 98
1 99
1 100
1 101
1 102
1 103
1 104
1 105
1 106
1 107
1 108
1 109
1 110
1 111
1 112
1 113
1 114
1 115
1 116
1 117
1 118
1 119
1 120
1 121
1 122
1 123
1 124
1 125
1 126
1 127
1 128
1 129
1 130
1 131
1 132
1 133
1 134
1 135
1 136
1 137
1 138
1 139
1 140
1 141
1 142
1 143
1 144
1 145
1 146
1 147
1 148
1 149
1 150
1 151
1 152
1 153
1 154
1 155
1 156
1 157
1 158
1 159
1 160
1 161
1 162
1 163
1 164
1 165
1 166
1 167
1 168
1 169
1 170
1 171
1 172
1 173
1 174
1 175
1 176
1 177
1 178
1 179
1 180
1 181
1 182
1 183
1 184
1 185
1 186
1 187
1 188
1 189
1 190
1 191
1 192
1 193
1 194
1 195
1 196
1 197
1 198
1 199
1 200
1 201
1 202
1 203
1 204
1 205
1 206
1 207
1 208
1 209
1 210
1 211
1 212
1 213
1 214
1 215
1 216
1 217
1 218
1 219
1 220
1 221
1 222
1 223
1 224
1 225
1 226
1 227
1 228
1 229
1 230
1 231
1 232
1 233
1 234
1 235
1 236
1 237
1 238
1 239
1 240
1 241
1 242
1 243
1 244
1 245
1 246
1 247
1 248
1 249

POINT_DATA 250
SCALARS id int 1
LOOKUP_TABLE default
1
2
3
6
7
8
10
12
13
14
17
18
19
20
21
22
23
24
25
26
29
33
34
35
36
38
40
42
43
44
46
50
51
52
53
54
55
56
58
59
60
63
64
65
66
67
68
69
71
72
74
76
78
79
80
84
85
87
88
89
90
91
95
96
99
100
102
103
104
105
106
107
109
111
112
113
115
117
118
119
120
122
123
124
125
126
127
128
129
130
131
132
133
135
136
138
139
140
141
144
145
146
148
149
150
151
152
153
154
155
156
158
160
161
162
163
164
165
166
167
168
169
170
172
175
177
178
179
181
182
183
184
185
186
187
189
191
192
193
194
195
197
199
200
201
203
204
205
206
207
209
212
213
214
216
217
218
219
220
221
222
225
227
228
229
230
231
232
234
235
237
238
239
240
241
242
244
245
246
248
249
251
253
254
255
256
257
259
261
262
263
264
266
270
271
272
273
274
275
276
277
278
279
280
282
283
286
287
288
289
290
291
292
293
294
295
296
297
298
299
301
302
303
304
305
307
308
309
310
311
312
313
314
317
318
319
320
321
322
323
325
327
330
332
333
336
338
339
340
341

SCALARS type int 1
LOOKUP_TABLE default
1
1
1
1
1
1
1
1
1
1
1
1
1
1
1
1
1
1
1
1
1
1
1
1
1
1
1
1
1
1
1
1
1
1
1
1
1
1
1
1
1
1
1
1
1
1
1
1
1
1
1
1
1
1
1
1
1
1
1
1
1
1
1
1
1
1
1
1
1
1
1
1
1
1
1
1
1
1
1
1
1
1
1
1
1
1
1
1
1
1
1
1
1
1
1
1
1
1
1
1
1
1
1
1
1
1
1
1
1
1
1
1
1
1
1
1
1
1
1
1
1
1
1
1
1
1
1
1
1
1
1
1
1
1
1
1
1
1
1
1
1
1
1
1
1
1
1
1
1
1
1
1
1
1
1
1
1
1
1
1
1
1
1
1
1
1
1
1
1
1
1
1
1
1
1
1
1
1
1
1
1
1
1
1
1
1
1
1
1
1
1
1
1
1
1
1
1
1
1
1
1
1
1
1
1
1
1
1
1
1
1
1
1
1
1
1
1
1
1
1
1
1
1
1
1
1
1
1
1
1
1
1
1
1
1
1
1
1
1
1
1
1
1
1
1
1
1
1
1
1

SCALARS radius float 1
LOOKUP_TABLE default
0.0005
0.0005
0.0005
0.0005
0.0005
0.0005
0.0005
0.0005
0.0005
0.0005
0.0005
0.0005
0.0005
0.0005
0.0005
0.0005
0.0005
0.0005
0.0005
0.0005
0.0005
0.0005
0.0005
0.0005
0.0005
0.0005
0.0005
0.0005
0.0005
0.0005
0.0005
0.0005
0.0005
0.0005
0.0005
0.0005
0.0005
0.0005
0.0005
0.0005
0.0005
0.0005
0.0005
0.0005
0.0005
0.0005
0.0005
0.0005
0.0005
0.0005
0.0005
0.0005
0.0005
0.0005
0.0005
0.0005
0.0005
0.0005
0.0005
0.0005
0.0005
0.0005
0.0005
0.0005
0.0005
0.0005
0.0005
0.0005
0.0005
0.0005
0.0005
0.0005
0.0005
0.0005
0.0005
0.0005
0.0005
0.0005
0.0005
0.0005
0.0005
0.0005
0.0005
0.0005
0.0005
0.0005
0.0005
0.0005
0.0005
0.0005
0.0005
0.0005
0.0005
0.0005
0.0005
0.0005
0.0005
0.0005
0.0005
0.0005
0.0005
0.0005
0.0005
0.0005
0.0005
0.0005
0.0005
0.0005
0.0005
0.0005
0.0005
0.0005
0.0005
0.0005
0.0005
0.0005
0.0005
0.0005
0.0005
0.0005
0.0005
0.0005
0.0005
0.0005
0.0005
0.0005
0.0005
0.0005
0.0005
0.0005
0.0005
0.0005
0.0005
0.0005
0.0005
0.0005
0.0005
0.0005
0.0005
0.0005
0.0005
0.0005
0.0005
0.0005
0.0005
0.0005
0.0005
0.0005
0.0005
0.0005
0.0005
0.0005
0.0005
0.0005
0.0005
0.0005
0.0005
0.0005
0.0005
0.0005
0.0005
0.0005
0.0005
0.0005
0.0005
0.0005
0.0005
0.0005
0.0005
0.0005
0.0005
0.0005
0.0005
0.0005
0.0005
0.0005
0.0005
0.0005
0.0005
0.0005
0.0005
0.0005
0.0005
0.0005
0.0005
0.0005
0.0005
0.0005
0.0005
0.0005
0.0005
0.0005
0.0005
0.0005
0.0005
0.0005
0.0005
0.0005
0.0005
0.0005
0.0005
0.0005
0.0005
0.0005
0.0005
0.0005
0.0005
0.0005
0.0005
0.0005
0.0005
0.0005
0.0005
0.0005
0.0005
0.0005
0.0005
0.0005
0.0005
0.0005
0.0005
0.0005
0.0005
0.0005
0.0005
0.0005
0.0005
0.0005
0.0005
0.0005
0.0005
0.0005
0.0005
0.0005
0.0005
0.0005
0.0005
0.0005
0.0005
0.0005
0.0005
0.0005
0.0005
0.0005
0.0005
0.0005
0.0005
0.0005
0.0005
0.0005

SCALARS mass float 1
LOOKUP_TABLE default
1.46608e-07
1.46608e-07
1.46608e-07
1.46608e-07
1.46608e-07
1.46608e-07
1.46608e-07
1.46608e-07
1.46608e-07
1.46608e-07
1.46608e-07
1.46608e-07
1.46608e-07
1.46608e-07
1.46608e-07
1.46608e-07
1.46608e-07
1.46608e-07
1.46608e-07
1.46608e-07
1.46608e-07
1.46608e-07
1.46608e-07
1.46608e-07
1.46608e-07
1.46608e-07
1.46608e-07
1.46608e-07
1.46608e-07
1.46608e-07
1.46608e-07
1.46608e-07
1.46608e-07
1.46608e-07
1.46608e-07
1.46608e-07
1.46608e-07
1.46608e-07
1.46608e-07
1.46608e-07
1.46608e-07
1.46608e-07
1.46608e-07
1.46608e-07
1.46608e-07
1.46608e-07
1.46608e-07
1.46608e-07
1.46608e-07
1.46608e-07
1.46608e-07
1.46608e-07
1.46608e-07
1.46608e-07
1.46608e-07
1.46608e-07
1.46608e-07
1.46608e-07
1.46608e-07
1.46608e-07
1.46608e-07
1.46608e-07
1.46608e-07
1.46608e-07
1.46608e-07
1.46608e-07
1.46608e-07
1.46608e-07
1.46608e-07
1.46608e-07
1.46608e-07
1.46608e-07
1.46608e-07
1.46608e-07
1.46608e-07
1.46608e-07
1.46608e-07
1.46608e-07
1.46608e-07
1.46608e-07
1.46608e-07
1.46608e-07
1.46608e-07
1.46608e-07
1.46608e-07
1.46608e-07
1.46608e-07
1.46608e-07
1.46608e-07
1.46608e-07
1.46608e-07
1.46608e-07
1.46608e-07
1.46608e-07
1.46608e-07
1.46608e-07
1.46608e-07
1.46608e-07
1.46608e-07
1.46608e-07
1.46608e-07
1.46608e-07
1.46608e-07
1.46608e-07
1.46608e-07
1.46608e-07
1.46608e-07
1.46608e-07
1.46608e-07
1.46608e-07
1.46608e-07
1.46608e-07
1.46608e-07
1.46608e-07
1.46608e-07
1.46608e-07
1.46608e-07
1.46608e-07
1.46608e-07
1.46608e-07
1.46608e-07
1.46608e-07
1.46608e-07
1.46608e-07
1.46608e-07
1.46608e-07
1.46608e-07
1.46608e-07
1.46608e-07
1.46608e-07
1.46608e-07
1.46608e-07
1.46608e-07
1.46608e-07
1.46608e-07
1.46608e-07
1.46608e-07
1.46608e-07
1.46608e-07
1.46608e-07
1.46608e-07
1.46608e-07
1.46608e-07
1.46608e-07
1.46608e-07
1.46608e-07
1.46608e-07
1.46608e-07
1.46608e-07
1.46608e-07
1.46608e-07
1.46608e-07
1.46608e-07
1.46608e-07
1.46608e-07
1.46608e-07
1.46608e-07
1.46608e-07
1.46608e-07
1.46608e-07
1.46608e-07
1.46608e-07
1.46608e-07
1.46608e-07
1.46608e-07
1.46608e-07
1.46608e-07
1.46608e-07
1.46608e-07
1.46608e-07
1.46608e-07
1.46608e-07
1.46608e-07
1.46608e-07
1.46608e-07
1.46608e-07
1.46608e-07
1.46608e-07
1.46608e-07
1.46608e-07
1.46608e-07
1.46608e-07
1.46608e-07
1.46608e-07
1.46608e-07
1.46608e-07
1.46608e-07
1.46608e-07
1.46608e-07
1.46608e-07
1.46608e-07
1.46608e-07
1.46608e-07
1.46608e-07
1.46608e-07
1.46608e-07
1.46608e-07
1.46608e-07
1.46608e-07
1.46608e-07
1.46608e-07
1.46608e-07
1.46608e-07
1.46608e-07
1.46608e-07
1.46608e-07
1.46608e-07
1.46608e-07
1.46608e-07
1.46608e-07
1.46608e-07
1.46608e-07
1.46608e-07
1.46608e-07
1.46608e-07
1.46608e-07
1.46608e-07
1.46608e-07
1.46608e-07
1.46608e-07
1.46608e-07
1.46608e-07
1.46608e-07
1.46608e-07
1.46608e-07
1.46608e-07
1.46608e-07
1.46608e-07
1.46608e-07
1.46608e-07
1.46608e-07
1.46608e-07
1.46608e-07
1.46608e-07
1.46608e-07
1.46608e-07
1.46608e-07
1.46608e-07
1.46608e-07
1.46608e-07
1.46608e-07
1.46608e-07
1.46608e-07
1.46608e-07
1.46608e-07
1.46608e-07
1.46608e-07
1.46608e-07
1.46608e-07
1.46608e-07

VECTORS velocity float
0.000132361 -1.46152e-05 0.000384451
0.000907784 0.0115902 0.0196837
0.000235428 0.00845087 -0.00550235
0.00174596 0.00510264 -0.0229644
-0.0115549 0.0269756 -0.00709223
0.000953385 0.00297474 -0.0107122
-0.00117226 -0.00058448 -0.00158122
-0.021495 0.0451289 0.0105242
0.00171069 0.00269613 -0.0197623
0.0178625 -0.0471875 0.0734974
4.77226e-05 -0.0256396 -0.0028057
-0.01161 0.000100595 0.0053773
-0.0427781 0.00265819 0.00329107
-0.000536122 0.0103542 0.0078826
0.000963777 -0.000143161 -0.00291727
-0.000554963 0.000415166 -2.81069e-05
-0.00562048 0.00714475 0.0176794
-0.0125586 -0.045794 0.0529791
2.70466e-05 0.00826155 -0.0189795
0.00156319 0.000676678 -0.00107988
0.00227771 0.00849761 0.0147028
0.0018663 0.00850346 -0.0141189
0.000401371 0.00277583 -0.00147753
0.000458032 -0.0171292 0.0168064
-0.00805396 0.00432742 0.0153163
0.00157047 0.00416628 -0.00404071
0.000716845 -0.0225226 0.00434348
0.00429802 0.000746068 -0.00429289
0.000139018 0.0257707 0.00047153
0.00136247 0.0135352 0.00676611
4.92972e-15 -2.35778e-14 1.16589e-13
0.000578077 0.0238524 -0.00163437
-0.00214745 0.00706141 -0.00161156
-0.0034757 0.0188278 0.00857343
-0.00489984 0.0645108 0.0199844
0.00132516 -0.000941825 -0.0012822
0.000639071 0.00300667 -0.000277299
0.00603694 -0.00169447 0.000831687
-0.00161599 4.17216e-05 0.00126632
0.017778 -0.0378086 -0.021905
-0.000206616 -0.00878948 -0.00288801
8.28751e-06 0.000318904 -0.000459655
0.00063909 0.0185263 0.0144098
0.000133052 -0.00076344 -0.000889839
-0.000729992 0.0251414 0.00787586
0.000797149 0.00146089 0.00417395
-1.13448e-07 0.023628 0.00520604
0.00673419 0.040337 0.00389399
-9.56821e-05 0.00424536 -0.00714417
0.00110143 -0.00258991 0.00631081
-1.79476e-05 4.24938e-05 2.05481e-05
-7.91403e-05 0.00104443 -0.00111734
-0.00298684 -9.57126e-05 -0.007734
-1.12593e-05 -0.000265478 0.000441067
0.00353057 -0.000285871 -0.00201706
0.003402 0.0349217 0.00893878
-4.49248e-06 0.0201228 0.00467506
-0.00100636 0.0139595 -0.0125065
0.00541818 0.00652299 0.00270029
-0.00154761 -0.00024268 0.000549026
0.00385593 0.00221233 -0.00168238
-0.0133379 0.015665 -0.00962693
0.000522585 0.0240274 0.00534019
-7.85651e-05 0.000850715 -0.000992428
-0.000292905 1.75225e-05 0.000684428
0.000537158 0.00308354 -0.0033099
-0.000808065 -0.000735697 -0.000853795
-0.0598256 0.00321543 -0.0754571
-0.000666482 -0.00702855 0.0258453
0.00347303 0.0276687 0.00169613
0.011631 0.0223347 -0.0378862
-8.77685e-15 1.82085e-14 2.24054e-13
0.00186908 -9.60374e-05 -0.00142665
0.00194087 -0.0118668 -0.015937
-0.00994492 -0.025183 -0.0306254
-0.0016166 0.0261506 -0.00641347
0.00335532 0.0314633 -0.00728151
0.000210861 -0.0236273 0.00138938
0.000360286 -0.0018226 0.00145166
-5.12399e-05 0.000544465 0.0019589
0.000526192 -0.000547924 -0.00355079
-0.0618826 0.0564756 -0.0575185
0.00149139 -0.00149558 -0.0027647
9.31469e-05 0.027343 -0.000331475
0.0178346 -0.000474049 -0.0234703
0.000118426 -0.00268585 -0.00465352
0.000575337 -0.0250026 0.0014898
-8.8084e-06 0.0272998 -0.00278096
0.00117009 -0.00146335 0.00856285
0.000267329 0.029944 0.0220488
-0.00147157 -0.00106439 -0.0005818
0.000855111 -0.0130661 -0.020696
0.0062532 0.00168589 0.000945636
-0.00984202 -0.00862487 -0.00747434
0.00172118 0.0189527 -0.0060645
0.0214896 -0.0519297 0.00560524
-7.57473e-05 -0.0074348 0.0229981
0.00629596 -0.0118199 0.00820898
-9.70127e-317 -9.68653e-317 -1.04219e-12
0.00656193 0.00465739 0.00386345
-0.000899894 0.0274612 -0.00676184
0.0003983 0.00554052 -0.011794
-0.00189218 0.0034998 -0.000289286
-0.000335868 0.0277825 -0.00743516
0.000173802 -0.0129219 0.0204683
0.00951454 0.0100412 -0.0150063
3.94667e-05 -0.0251014 0.00750657
-0.00123138 0.0026366 0.00511322
0.000876593 -0.006185 -0.0217968
-4.21711e-15 2.50379e-14 1.50107e-13
-0.0363866 -0.0240273 -0.0506234
1.12069e-09 0.0290937 -0.00063251
0.00062508 0.00160935 0.000114247
-0.00468597 -0.016218 -0.0151736
-9.73064e-317 -9.74665e-317 -1.68644e-13
2.98556e-14 -6.36454e-14 -2.30349e-13
0.0014163 -0.00133238 0.0181281
0.0052087 7.77088e-05 -0.0120946
0.00481624 0.00773948 0.00122602
-0.000312908 -0.000962485 0.000421026
0.0494105 -0.00641086 0.467529
-0.000305973 -0.00116619 -0.00276981
0.00131748 0.00257779 -0.00617104
0.00262365 0.00786209 -0.00733904
0.000755536 0.0240567 0.00225673
0.000809101 0.00223549 -0.00201614
0.00101604 -0.0176233 0.0151298
-0.000268063 0.0150717 -0.00908855
-0.0155588 -0.055855 -0.0679235
0.00429448 -0.00100548 -0.000554959
-0.000296582 0.000627025 -0.00144503
0.00111628 0.00017384 -2.78349e-05
0.0120152 -0.00541831 0.00184986
-0.000163807 0.00103791 -0.00108723
0.000685292 -0.0210261 -0.00742011
5.73606e-05 0.0113094 -0.0229113
0.00255376 0.0136364 0.0071599
-0.00261452 0.0142147 -0.00514395
0.00116142 -0.0166605 -0.0137867
-0.000470689 0.00662645 -0.00985134
8.395e-15 1.14379e-14 1.62812e-13
0.00154082 0.0214748 0.00615307
0.00115817 0.0150167 0.018267
0.0050435 0.00655628 0.00504031
0.000411645 0.00038807 -0.000677625
0.00346234 0.00155545 0.00124306
-7.26571e-05 -0.00539308 -0.00735477
-0.0186553 0.0284358 -0.00928722
-0.00467118 0.00233959 -0.00115118
-0.000706075 0.0280297 0.00643354
2.72914e-05 0.00157746 -0.00228204
-0.0011344 0.007278 -0.0157183
0.00157572 -0.0210113 0.00713416
0.00251719 -0.00830387 -0.027171
0.0154593 0.00180081 -0.00420101
0.00405874 -0.00242137 -0.00643106
-7.61389e-05 0.0229654 0.0118151
-0.0753099 0.0262907 0.0505846
0.0332914 -0.0458491 0.0964602
0.00486 -0.00209679 -0.00057887
0.003105 -0.00596865 -0.0191195
3.31104e-06 0.00112887 -0.0028396
0.00156003 -0.00093558 0.0030329
0.00223254 -0.00164502 -1.84805e-05
1.12811e-07 6.87373e-05 -1.57384e-05
-0.00529793 0.00375511 -0.000562953
-0.000362331 -0.000428032 -0.000190387
0.00160924 -0.00960472 0.0168688
-0.00471534 0.00587978 0.00261861
-0.00138771 0.00791654 0.0027885
-0.00041066 0.0111783 -0.00382948
0.00467127 0.00142894 -0.00453362
0.00032721 0.0252138 0.00443607
0.00226044 -0.0101247 0.0178993
0.00617425 -0.00967921 -0.000139458
9.14694e-05 0.00067865 -0.014816
0.000282867 0.00210298 -0.00336778
0.00231333 -0.0160312 0.01047
-1.25903e-14 -2.89972e-15 -1.7036e-13
1.05679e-05 7.71876e-05 -8.67106e-05
-0.00613723 0.00415981 0.000455785
-0.0217014 -0.00142061 0.00241643
-0.00478295 -0.00854119 -0.00450827
0.00326541 -0.0094151 -0.0119294
-0.010676 0.0136579 -0.00984501
6.41613e-05 0.00341444 0.0171819
0.000606782 0.0120596 0.00867751
0.00133943 -0.0128188 -0.0155416
-7.02677e-05 0.0176794 0.00422391
0.000389531 0.0102989 0.0127534
0.000483803 0.0244368 -0.000848502
0.0058957 0.00115298 -0.000377191
0.00102876 0.000321852 -0.000535959
-0.00575693 0.000618343 -0.000995104
0.0165895 -0.0543671 -0.131577
-0.000617227 -0.000605524 0.00312677
0.00110044 0.000356763 -0.00263383
0.000148467 -0.0232101 -0.00920485
0.00246744 0.0136877 -0.00810197
-7.28307e-05 -6.60298e-05 4.67956e-05
-0.0312492 0.0428873 -0.0824913
0.000324448 -0.000105555 0.00101491
-0.000610777 0.0329316 -0.0569681
0.00267438 0.0019834 -0.00718408
9.74258e-317 -9.72051e-317 7.04906e-13
0.00247514 0.00169141 0.00138637
-0.00106967 0.0146331 -0.005665
0.00248817 -0.00638013 -0.0204364
-0.00503903 -0.0718887 0.00330921
-9.69406e-317 9.51793e-317 -1.91574e-12
0.00515792 0.00677391 0.000753616
0.000399751 0.0171631 -0.0176965
0.00153283 0.000507869 -0.000974035
-0.0108392 -0.00482807 0.0553009
0.00384644 -0.00594805 0.00809366
-0.00689328 -0.000589691 -0.00724622
0.0121347 0.0207118 -0.00361205
0.00400294 -0.0013246 -0.001289
0.00632714 0.00616186 0.00416103
0.000276039 0.0263432 0.00147231
0.00340717 0.00952116 -0.00350096
-0.000200886 -0.00184716 -0.00424307
0.00124809 -0.000468561 0.00296984
-7.64946e-05 -0.024385 -0.00644735
0.00649949 0.00792624 0.00408936
-0.00114568 0.00179926 -0.00288572
0.00487251 0.000344145 0.00332912
0.000539004 0.0190234 0.0144785
0.0236043 0.00585532 -0.0226259
-0.00151944 0.00132257 -0.00705961
0.00100903 -0.00551076 -0.022007
0.00105474 -0.0137658 -0.0179598
0.00173357 -0.00102715 -0.00111403
1.04346e-05 0.0256232 -0.0100323
0.00113321 -0.00693238 -0.01912
0.0150641 0.0505038 -0.0259798
0.000857278 -3.56756e-05 0.000233675
0.0037949 0.00486419 0.00491169
0.000590147 -0.0237248 -0.00414001
0.00565978 0.00374012 -0.00446488
0.00171096 0.0120015 0.00266945
0.00478097 0.00281314 0.00189255
0.000457615 -0.000898553 -0.001203
-0.000609742 -0.00871111 -0.0161978
0.000234922 -0.00041946 -0.000245453
0.00377078 -0.0316292 -0.00634725
-0.208374 0.0616828 0.203852
-0.000504867 0.00176136 -0.00100216
0.0014195 0.00689902 0.00058683
-0.0011912 -0.000935 -0.00107901

VECTORS force float
-4.49276e-08 -8.14561e-08 -2.21755e-07
1.51598e-05 -1.87715e-06 5.59013e-06
-6.23461e-08 7.31488e-07 -1.0336e-06
2.9802e-08 -3.73827e-09 -2.21134e-08
0.0 0.0 -1.43822e-06
-9.04011e-08 -6.09632e-08 7.75924e-08
7.54251e-07 -3.89733e-07 -8.65692e-07
2.15919e-07 6.12106e-06 2.28684e-06
2.08515e-07 4.58031e-07 1.27149e-06
0.0 0.0 -1.43822e-06
-1.15666e-09 -6.6306e-09 1.54239e-08
0.0 0.0 -1.43822e-06
0.0 0.0 -1.43822e-06
-1.77895e-08 -6.76413e-08 -1.42135e-07
-4.17691e-06 5.33977e-06 -7.02466e-07
-7.63221e-07 2.0794e-07 -1.93273e-06
4.21389e-08 -6.89687e-07 -1.47091e-06
3.98966e-06 7.56655e-07 1.8418e-06
-4.34969e-09 -6.28206e-08 2.19938e-07
3.85984e-07 3.09706e-08 -5.55317e-08
-7.23776e-07 -3.75416e-07 -3.90444e-07
-4.03392e-08 4.45399e-07 -7.39374e-07
7.0502e-07 2.74465e-06 -2.38532e-06
-8.4369e-10 4.37318e-11 1.85727e-08
0.0 0.0 -1.43822e-06
-1.38356e-06 3.48847e-06 -1.94884e-06
-8.74778e-09 -2.07326e-08 1.98714e-08
7.48922e-06 3.13849e-06 -6.22016e-06
4.08747e-07 4.55212e-07 1.44626e-07
8.33923e-08 1.43631e-07 4.15814e-08
8.27181e-22 6.24687e-21 1.05879e-21
-1.36215e-08 2.88364e-08 3.07895e-08
2.08843e-08 1.3477e-06 -5.37752e-07
1.12419e-06 4.12304e-06 5.73198e-06
0.0 0.0 -1.43822e-06
-8.61081e-07 -2.44077e-06 1.45672e-06
2.39287e-06 2.15936e-06 -2.99509e-06
3.96808e-07 -9.57997e-07 7.80601e-07
-1.98247e-07 -5.37722e-08 -3.97249e-08
0.0 0.0 -1.43822e-06
3.39176e-06 -4.05712e-07 2.15328e-06
-3.7432e-07 5.32166e-07 -2.49967e-07
-5.44642e-09 2.07328e-08 -1.75576e-09
7.27352e-07 -1.01153e-08 2.47207e-07
4.24378e-08 1.98318e-07 2.0906e-08
0.0 0.0 -1.43822e-06
-6.76394e-14 4.66042e-09 -2.11515e-08
0.0 0.0 -1.43822e-06
-4.18142e-07 9.22069e-08 2.48569e-07
0.0 0.0 -1.43822e-06
-2.78677e-07 4.17486e-08 -9.70907e-08
-4.37671e-07 1.19804e-08 -1.05943e-06
3.60613e-06 -4.13026e-07 -4.71283e-06
-8.60289e-08 -1.14255e-07 -1.00254e-07
5.01869e-07 2.32772e-07 2.3924e-07
0.0 0.0 -1.43822e-06
1.0446e-09 6.45251e-08 8.10897e-09
-8.32493e-07 -6.59769e-07 1.34899e-06
-2.02355e-07 -1.9754e-07 -1.66346e-07
1.10363e-06 5.21638e-07 6.87009e-07
-2.33107e-08 -1.39679e-07 -8.8937e-07
0.0 0.0 -1.43822e-06
-2.57357e-08 -4.69803e-08 3.94431e-09
-1.81952e-07 6.00759e-08 1.27531e-07
-1.88565e-07 -6.12981e-08 -4.31042e-07
2.37987e-09 -1.17326e-07 -7.33431e-07
5.32144e-07 3.09533e-07 -9.82374e-07
0.0 0.0 -1.43822e-06
-3.62045e-08 -1.25936e-08 4.67101e-08
-7.77237e-07 7.38372e-07 1.51889e-06
0.0 0.0 -1.43822e-06
4.72486e-21 -2.68668e-21 0.0
-2.92192e-07 -3.1709e-07 8.91503e-07
-2.61757e-08 -6.10831e-08 -6.33872e-08
-3.65483e-07 6.70138e-08 -1.08691e-06
0.0 0.0 -1.43822e-06
0.0 0.0 -1.43822e-06
-7.14833e-10 -7.48958e-09 1.54758e-08
4.51946e-08 -3.75096e-07 2.77796e-08
2.94122e-07 -1.43818e-07 6.25902e-08
-3.74229e-06 -2.26358e-06 -5.61298e-06
0.0 0.0 -1.43822e-06
-1.48936e-07 -3.5098e-07 -4.66828e-07
2.42151e-07 9.15794e-07 -9.61901e-07
3.71338e-06 1.71103e-06 9.19928e-08
4.58982e-08 6.17226e-07 2.78937e-07
-2.01803e-08 8.24963e-08 -1.82466e-08
7.1445e-07 -3.3231e-06 -3.51282e-07
-4.14398e-07 1.20069e-07 -8.00349e-07
0.0 0.0 -1.43822e-06
0.0 0.0 -1.43822e-06
0.0 0.0 -1.43822e-06
-6.48425e-07 -1.15614e-06 1.26341e-06
1.71329e-05 -5.10753e-07 6.43219e-06
1.05299e-06 2.56651e-07 -6.39722e-07
0.0 0.0 -1.43822e-06
-1.88277e-08 3.59385e-08 -5.80396e-08
0.0 0.0 -1.43822e-06
0.0 0.0 0.0
-1.31963e-07 -3.86473e-07 -6.78548e-07
-1.8865e-07 -3.67503e-07 5.45463e-07
-2.80098e-08 -2.35492e-08 3.6678e-07
-1.49743e-07 -2.9488e-07 2.57327e-07
2.28172e-06 -6.03422e-06 4.29361e-06
-5.41731e-08 -1.5836e-08 8.67128e-08
0.0 0.0 -1.43822e-06
1.64955e-09 1.97693e-09 1.54069e-08
-3.00767e-07 1.07707e-08 3.31462e-08
-8.77072e-09 -2.12669e-08 -2.00236e-08
7.41154e-22 -4.8175e-21 2.11758e-22
0.0 0.0 -1.43822e-06
2.37705e-14 -7.31498e-10 -2.33171e-08
-8.55794e-07 8.91293e-07 -4.33349e-08
0.0 0.0 -1.43822e-06
0.0 0.0 0.0
-2.73909e-19 -8.44915e-20 -1.07997e-20
1.23032e-08 -1.0948e-08 -1.4457e-07
-8.20653e-07 -5.52557e-06 2.39217e-06
1.64505e-07 -2.47037e-07 -1.09946e-06
-8.02029e-09 -6.8387e-08 3.57201e-08
0.0 0.0 -1.43822e-06
6.58073e-06 1.25858e-05 -8.21489e-07
-7.14837e-08 1.88012e-07 -3.11132e-07
-1.23512e-06 2.64421e-06 2.79849e-06
-3.09486e-08 -2.92038e-09 -9.83797e-08
-7.71117e-09 -3.5518e-07 -8.66459e-07
-1.54487e-08 6.23984e-08 -4.70274e-08
4.2031e-06 -1.41186e-05 6.149e-06
0.0 0.0 -1.43822e-06
-7.72478e-07 -1.50847e-07 -3.24265e-07
-4.816e-08 2.06564e-07 -8.38769e-07
1.47577e-06 1.13922e-06 -1.76825e-06
-3.38921e-08 -7.76162e-07 -1.64816e-07
-2.86995e-07 -1.78372e-07 -4.05508e-07
-1.01425e-08 -3.43501e-08 2.76968e-09
-1.19489e-09 -1.1958e-08 -1.06368e-08
1.61829e-08 -6.35816e-08 -3.98299e-08
6.95011e-08 5.57205e-07 -8.90112e-08
1.04035e-09 1.09886e-07 1.77866e-07
2.99832e-06 1.43522e-06 -1.38179e-06
5.92923e-21 8.45709e-21 -1.05879e-21
-5.85252e-08 3.23354e-07 -1.45171e-07
-1.43152e-07 -3.21261e-07 -1.86478e-07
-1.90145e-07 -1.00122e-07 -8.45535e-08
1.85735e-07 -4.8009e-07 -2.21026e-07
4.23485e-06 2.84368e-06 2.31705e-06
4.14767e-07 -3.05423e-07 8.77739e-07
0.0 0.0 -1.43822e-06
-2.99657e-06 -3.17429e-07 2.30935e-07
-3.56232e-08 -4.99551e-06 -1.10463e-05
2.07016e-08 6.7661e-08 2.44885e-07
1.06341e-06 2.90322e-07 -1.45804e-06
-9.19857e-09 5.75832e-08 -1.41223e-08
7.75796e-08 -3.41218e-07 -1.09745e-06
0.0 0.0 -1.43822e-06
-7.61548e-06 6.14846e-06 1.3307e-05
-1.48692e-09 9.85555e-09 -1.19965e-08
0.0 0.0 -1.43822e-06
0.0 0.0 -1.43822e-06
4.23086e-06 1.21393e-05 8.12135e-06
-9.75808e-09 -5.68916e-09 7.80323e-09
-7.31925e-07 -3.91602e-07 1.55117e-06
-1.93296e-07 4.15489e-07 -1.12114e-06
2.20994e-08 2.89947e-08 -2.58006e-07
-4.34679e-08 5.58267e-07 5.93331e-07
-1.25001e-08 4.11872e-07 -3.90298e-07
-1.96799e-07 1.81992e-07 -2.07484e-07
3.64484e-07 7.7747e-08 -1.05737e-07
0.0 0.0 -1.43822e-06
-2.23489e-07 1.74282e-08 5.47012e-08
-1.26815e-07 2.49105e-07 -4.61548e-07
5.87062e-06 8.91805e-07 4.61943e-07
1.39287e-10 3.13178e-09 -2.12508e-08
-3.12883e-08 -2.78397e-08 7.21884e-08
-1.01172e-07 4.77306e-07 -4.77256e-07
-9.38569e-07 4.29043e-08 4.86669e-07
0.0 0.0 -1.43822e-06
-3.39385e-08 -7.27293e-08 7.21334e-08
3.29549e-21 2.25324e-21 -2.11758e-22
-7.3773e-08 2.67576e-07 3.17192e-08