# vtk DataFile Version 3.0
LIGGGHTS particles timestep 1200000
ASCII
DATASET POLYDATA
POINTS 182 float
0.0236212 0.0234118 0.0114341
0.0239141 0.0228725 0.0094373
0.0159332 0.0226416 0.015332
0.0267177 0.014756 0.0110782
0.0216001 0.0167323 0.00785659
0.024545 0.0212312 0.0154308
0.0257322 0.0189154 0.0159898
0.0214063 0.0237163 0.0149101
0.0219076 0.0140828 0.0145602
0.0170177 0.0235715 0.01567
0.0199606 0.0239731 0.0126495
0.0173997 0.0235051 0.0143484
0.0181794 0.0239964 0.0163236
0.0135396 0.0214772 0.0152399
0.0206061 0.0146913 0.011734
0.0186314 0.0146801 0.0144883
0.0203025 0.0178597 0.0180597
0.0187099 0.0244551 0.0137925
0.0188678 0.0206214 0.0157097
0.0206019 0.0213739 0.0153413
0.0187578 0.0232915 0.0126814
0.019851 0.0207992 0.0157245
0.0169901 0.0141801 0.0134756
0.0186656 0.0216023 0.0157273
0.0198175 0.0246413 0.0176002
0.026422 0.0149102 0.0124777
0.0211278 0.0145835 0.0128662
0.0201862 0.0227653 0.013957
0.0169429 0.0222348 0.0167922
-0.00812918 0.0109279 0.0436321
0.0172763 0.0240498 0.0131036
0.020048 0.0198499 0.0160262
0.0207317 0.024106 0.0143034
0.017912 0.0135478 0.0204376
0.0224418 0.0236368 0.0141038
0.0192264 0.0228627 0.0137489
0.0186631 0.01486 0.015815
0.0157402 0.0234985 0.0143
0.018017 0.0231617 0.0131261
0.0165776 0.0240301 0.0141198
0.0195677 0.0216565 0.0152938
0.039852 0.0190547 0.00569119
0.0146696 0.0213162 0.0161198
0.0216263 -0.0083752 0.0404175
0.021532 0.0204571 0.0166015
0.0209781 0.0178983 0.0157939
0.0199445 0.0179657 0.0161959
0.0203821 0.0144496 0.0135386
0.0208442 0.024031 0.0130029
0.023513 0.0150899 0.0149322
0.0227546 0.0219013 0.0159057
0.0190671 0.0196752 0.0159662
0.0165583 0.023205 0.0147946
0.0161429 0.0145022 0.0139013
0.0198026 0.0215727 0.0176562
0.020797 0.0163235 0.0150544
0.0187616 0.0230162 0.0165065
0.0223737 0.0236519 0.0150932
0.0209302 0.022696 0.0177053
0.0243992 0.0207844 0.0165343
0.0258477 0.018136 0.0167269
0.0247579 0.0218069 0.0154942
0.0194915 0.0230558 0.0174098
0.0154347 0.023519 0.0152522
0.024708 0.0217563 0.0165
0.014013 0.0225318 0.0156096
0.0175482 0.023412 0.0114824
0.0199315 0.0237121 0.0153255
0.0196422 0.0244866 0.013623
0.0219371 0.0224139 0.017021
0.0177157 0.024354 0.0139322
0.0213757 0.0227522 0.0152291
0.0225971 0.0226977 0.0152843
0.0217751 0.0240934 0.0178964
0.0223122 0.0234908 0.0169738
0.0253789 0.0180829 0.0158454
0.0216519 0.0154774 0.0158601
0.021397 0.0236847 0.0166268
0.0336017 0.0195831 0.00585649
0.0194428 0.0221598 0.0162699
0.0157689 0.0218625 0.0159375
0.0190815 0.0238383 0.0158928
0.0182416 0.0234676 0.0154849
0.0257394 0.0165316 0.0149859
0.0281173 0.018953 0.00718507
0.0205726 0.0231593 0.0147943
0.0145305 0.0215861 0.0151672
0.0336822 0.0190157 0.0406344
0.0191977 0.0242936 0.0168011
0.021639 0.0167854 0.0153214
0.020834 0.0221982 0.0158979
0.019093 0.0241221 0.0129259
0.0203967 0.0188434 0.0163443
0.0234539 0.0191785 0.0167676
0.0194314 0.0223302 0.0145617
0.0205998 0.0242138 0.0171018
0.0209636 0.014997 0.0101038
0.0235294 0.0220241 0.0165311
0.0186536 -0.000175355 0.0533184
0.0206864 0.0169427 0.0158324
0.0201786 0.0236873 0.0136157
0.0195558 0.0212072 0.016612
0.0248597 0.0203783 0.0157362
0.0185367 0.023647 0.0119116
0.0210346 0.0138246 0.0141007
0.0227682 0.014639 0.0144354
0.0205743 0.02025 0.0168514
0.0228967 0.0220191 0.00855717
0.0208101 0.0205406 0.0158519
0.0203911 0.0221665 0.0147677
0.0196089 0.017127 0.0157659
0.0178608 0.0143792 0.0139258
0.0219246 0.0154038 0.0141808
0.0182102 0.0224923 0.015699
0.022711 0.0227245 0.01647
0.025463 0.0210778 0.0165275
0.0163337 0.023032 0.0161608
0.019249 0.0228746 0.0155868
0.0175824 0.0217798 0.0160291
0.0243008 0.0156632 0.0155517
0.0192845 0.0187011 0.0160349
0.0168226 0.0223068 0.0156481
0.0250177 0.0195102 0.0159041
0.0271281 0.0152074 0.00956427
0.0184184 0.0231394 0.0103798
0.0232587 0.0230325 0.00980675
0.0196507 0.0145748 0.0143605
0.0216263 0.0238862 0.0135965
0.0140404 0.0222557 0.0146009
0.0160264 0.0218259 0.0169029
0.0193039 0.0234433 0.0114319
0.0195774 0.0235852 0.014403
0.0224711 0.0210243 0.0171558
0.0231427 0.0210924 0.0163438
0.022042 0.0212584 0.0162815
0.0327957 0.0190095 0.00571076
0.0187775 0.0137786 0.0138745
0.023051 0.0226783 0.00918566
0.0180992 0.0233492 0.0110772
0.018681 0.0189186 0.0168076
0.0201622 0.0155883 0.0143731
0.0198046 0.0163856 0.0151231
0.0208782 0.0235362 0.0157554
0.0186481 0.0236051 0.0135745
0.0256867 0.0199937 0.0158235
0.0219025 0.0179244 0.00737559
0.0166472 0.0214535 0.0161926
0.0253563 0.020842 0.0155555
0.0182619 0.0227444 0.0139828
0.0201302 0.0228848 0.0160365
0.0187851 0.0230873 0.0147406
0.0205846 0.0231681 0.0168782
0.0244061 0.0188608 0.0167808
0.0178342 0.023413 0.0123228
0.0184881 0.022121 0.0147953
0.0195633 0.0138439 0.0132377
0.0234822 0.0230349 0.015609
0.0187108 0.0217266 0.016971
0.0241877 0.0223811 0.014884
0.0174896 0.0228793 0.0151231
0.0220909 0.0148701 0.0131466
0.0209653 0.0118226 0.0292391
0.0225013 0.0201629 0.0166467
0.0182416 0.0140311 0.0130695
0.0242788 0.0225365 0.0159456
0.0258427 0.0195958 0.0167371
0.0218182 0.0222097 0.0160507
0.0212892 0.0156121 0.00889169
0.0213639 0.0147955 0.0108862
0.0174676 0.0228865 0.0162447
0.020071 0.0223167 0.0170372
0.0231782 0.0232565 0.014687
0.0184132 0.0239876 0.0146047
0.0230665 0.0225182 0.0176146
0.0146412 0.0230236 0.0148729
0.0210094 0.0196085 0.0161514
0.0235271 0.0201988 0.0166657
0.0172102 0.0239449 0.0165776
0.0225884 0.0154074 0.0152935
0.0201275 0.0240587 0.0162376
0.0149983 0.0223757 0.0155605
0.0219826 0.0231927 0.0159106

VERTICES 182 364
1 0
1 1
1 2
1 3
1 4
1 5
1 6
1 7
1 8
1 9
1 10
1 11
1 12
1 13
1 14
1 15
1 16
1 17
1 18
1 19
1 20
1 21
1 22
1 23
1 24
1 25
1 26
1 27
1 28
1 29
1 30
1 31
1 32
1 33
1 34
1 35
1 36
1 37
1 38
1 39
1 40
1 41
1 42
1 43
1 44
1 45
1 46
1 47
1 48
1 49
1 50
1 51
1 52
1 53
1 54
1 55
1 56
1 57
1 58
1 59
1 60
1 61
1 62
1 63
1 64
1 65
1 66
1 67
1 68
1 69
1 70
1 71
1 72
1 73
1 74
1 75
1 76
1 77
1 78
1 79
1 80
1 81
1 82
1 83
1 84
1 85
1 86
1 87
1 88
1 89
1 90
1 91
1 92
1 93
1 94
1 95
1 96
1 97
1 98
1 99
1 100
1 101
1 102
1 103
1 104
1 105
1 106
1 107
1 108
1 109
1 110
1 111
1 112
1 113
1 114
1 115
1 116
1 117
1 118
1 119
1 120
1 121
1 122
1 123
1 124
1 125
1 126
1 127
1 128
1 129
1 130
1 131
1 132
1 133
1 134
1 135
1 136
1 137
1 138
1 139
1 140
1 141
1 142
1 143
1 144
1 145
1 146
1 147
1 148
1 149
1 150
1 151
1 152
1 153
1 154
1 155
1 156
1 157
1 158
1 159
1 160
1 161
1 162
1 163
1 164
1 165
1 166
1 167
1 168
1 169
1 170
1 171
1 172
1 173
1 174
1 175
1 176
1 177
1 178
1 179
1 180
1 181

POINT_DATA 182
SCALARS id int 1
LOOKUP_TABLE default
1
2
4
5
6
7
8
9
10
11
12
13
14
15
16
17
18
19
20
21
22
23
24
25
26
27
29
30
31
32
34
35
36
37
38
39
40
41
42
43
44
45
46
47
48
49
50
51
52
53
54
55
57
58
59
60
61
62
63
64
65
66
68
69
70
71
72
73
74
75
76
77
78
79
80
81
82
83
84
85
86
87
88
89
90
91
92
93
94
95
96
97
98
99
100
101
102
103
104
105
106
107
108
109
110
111
112
113
114
115
116
117
118
119
120
121
122
123
124
125
126
127
128
129
131
132
133
134
135
136
137
138
139
140
141
142
143
144
145
146
147
148
149
150
151
152
153
154
155
156
157
158
159
160
161
162
163
164
165
166
167
168
169
170
171
173
174
175
176
177
178
179
180
181
182
183
184
185
187
188
189
190

SCALARS type int 1
LOOKUP_TABLE default
1
1
1
1
1
1
1
1
1
1
1
1
1
1
1
1
1
1
1
1
1
1
1
1
1
1
1
1
1
1
1
1
1
1
1
1
1
1
1
1
1
1
1
1
1
1
1
1
1
1
1
1
1
1
1
1
1
1
1
1
1
1
1
1
1
1
1
1
1
1
1
1
1
1
1
1
1
1
1
1
1
1
1
1
1
1
1
1
1
1
1
1
1
1
1
1
1
1
1
1
1
1
1
1
1
1
1
1
1
1
1
1
1
1
1
1
1
1
1
1
1
1
1
1
1
1
1
1
1
1
1
1
1
1
1
1
1
1
1
1
1
1
1
1
1
1
1
1
1
1
1
1
1
1
1
1
1
1
1
1
1
1
1
1
1
1
1
1
1
1
1
1
1
1
1
1
1
1
1
1
1
1

SCALARS radius float 1
LOOKUP_TABLE default
0.0005
0.0005
0.0005
0.0005
0.0005
0.0005
0.0005
0.0005
0.0005
0.0005
0.0005
0.0005
0.0005
0.0005
0.0005
0.0005
0.0005
0.0005
0.0005
0.0005
0.0005
0.0005
0.0005
0.0005
0.0005
0.0005
0.0005
0.0005
0.0005
0.0005
0.0005
0.0005
0.0005
0.0005
0.0005
0.0005
0.0005
0.0005
0.0005
0.0005
0.0005
0.0005
0.0005
0.0005
0.0005
0.0005
0.0005
0.0005
0.0005
0.0005
0.0005
0.0005
0.0005
0.0005
0.0005
0.0005
0.0005
0.0005
0.0005
0.0005
0.0005
0.0005
0.0005
0.0005
0.0005
0.0005
0.0005
0.0005
0.0005
0.0005
0.0005
0.0005
0.0005
0.0005
0.0005
0.0005
0.0005
0.0005
0.0005
0.0005
0.0005
0.0005
0.0005
0.0005
0.0005
0.0005
0.0005
0.0005
0.0005
0.0005
0.0005
0.0005
0.0005
0.0005
0.0005
0.0005
0.0005
0.0005
0.0005
0.0005
0.0005
0.0005
0.0005
0.0005
0.0005
0.0005
0.0005
0.0005
0.0005
0.0005
0.0005
0.0005
0.0005
0.0005
0.0005
0.0005
0.0005
0.0005
0.0005
0.0005
0.0005
0.0005
0.0005
0.0005
0.0005
0.0005
0.0005
0.0005
0.0005
0.0005
0.0005
0.0005
0.0005
0.0005
0.0005
0.0005
0.0005
0.0005
0.0005
0.0005
0.0005
0.0005
0.0005
0.0005
0.0005
0.0005
0.0005
0.0005
0.0005
0.0005
0.0005
0.0005
0.0005
0.0005
0.0005
0.0005
0.0005
0.0005
0.0005
0.0005
0.0005
0.0005
0.0005
0.0005
0.0005
0.0005
0.0005
0.0005
0.0005
0.0005
0.0005
0.0005
0.0005
0.0005
0.0005
0.0005
0.0005
0.0005
0.0005
0.0005
0.0005
0.0005

SCALARS mass float 1
LOOKUP_TABLE default
5.23599e-07
5.23599e-07
5.23599e-07
5.23599e-07
5.23599e-07
5.23599e-07
5.23599e-07
5.23599e-07
5.23599e-07
5.23599e-07
5.23599e-07
5.23599e-07
5.23599e-07
5.23599e-07
5.23599e-07
5.23599e-07
5.23599e-07
5.23599e-07
5.23599e-07
5.23599e-07
5.23599e-07
5.23599e-07
5.23599e-07
5.23599e-07
5.23599e-07
5.23599e-07
5.23599e-07
5.23599e-07
5.23599e-07
5.23599e-07
5.23599e-07
5.23599e-07
5.23599e-07
5.23599e-07
5.23599e-07
5.23599e-07
5.23599e-07
5.23599e-07
5.23599e-07
5.23599e-07
5.23599e-07
5.23599e-07
5.23599e-07
5.23599e-07
5.23599e-07
5.23599e-07
5.23599e-07
5.23599e-07
5.23599e-07
5.23599e-07
5.23599e-07
5.23599e-07
5.23599e-07
5.23599e-07
5.23599e-07
5.23599e-07
5.23599e-07
5.23599e-07
5.23599e-07
5.23599e-07
5.23599e-07
5.23599e-07
5.23599e-07
5.23599e-07
5.23599e-07
5.23599e-07
5.23599e-07
5.23599e-07
5.23599e-07
5.23599e-07
5.23599e-07
5.23599e-07
5.23599e-07
5.23599e-07
5.23599e-07
5.23599e-07
5.23599e-07
5.23599e-07
5.23599e-07
5.23599e-07
5.23599e-07
5.23599e-07
5.23599e-07
5.23599e-07
5.23599e-07
5.23599e-07
5.23599e-07
5.23599e-07
5.23599e-07
5.23599e-07
5.23599e-07
5.23599e-07
5.23599e-07
5.23599e-07
5.23599e-07
5.23599e-07
5.23599e-07
5.23599e-07
5.23599e-07
5.23599e-07
5.23599e-07
5.23599e-07
5.23599e-07
5.23599e-07
5.23599e-07
5.23599e-07
5.23599e-07
5.23599e-07
5.23599e-07
5.23599e-07
5.23599e-07
5.23599e-07
5.23599e-07
5.23599e-07
5.23599e-07
5.23599e-07
5.23599e-07
5.23599e-07
5.23599e-07
5.23599e-07
5.23599e-07
5.23599e-07
5.23599e-07
5.23599e-07
5.23599e-07
5.23599e-07
5.23599e-07
5.23599e-07
5.23599e-07
5.23599e-07
5.23599e-07
5.23599e-07
5.23599e-07
5.23599e-07
5.23599e-07
5.23599e-07
5.23599e-07
5.23599e-07
5.23599e-07
5.23599e-07
5.23599e-07
5.23599e-07
5.23599e-07
5.23599e-07
5.23599e-07
5.23599e-07
5.23599e-07
5.23599e-07
5.23599e-07
5.23599e-07
5.23599e-07
5.23599e-07
5.23599e-07
5.23599e-07
5.23599e-07
5.23599e-07
5.23599e-07
5.23599e-07
5.23599e-07
5.23599e-07
5.23599e-07
5.23599e-07
5.23599e-07
5.23599e-07
5.23599e-07
5.23599e-07
5.23599e-07
5.23599e-07
5.23599e-07
5.23599e-07
5.23599e-07
5.23599e-07
5.23599e-07
5.23599e-07
5.23599e-07
5.23599e-07
5.23599e-07
5.23599e-07
5.23599e-07
5.23599e-07
5.23599e-07
5.23599e-07

VECTORS velocity float
0.00178977 0.00332113 -0.0525786
0.0121336 -0.0033339 -0.00551231
0.00568726 0.00270245 0.0151921
0.000513932 -0.00647757 0.0515292
0.000975549 -0.041989 0.0279659
0.00385421 0.0296683 -0.0144269
0.00125963 0.00128076 -0.00361322
-0.0029732 -0.0197762 -0.00944621
-0.0165424 0.0142789 -0.026482
0.00452619 0.00308986 -0.00511887
0.0512987 0.0378079 0.0681475
-0.00228837 0.00289105 -0.00131427
-0.046256 0.0386039 0.0665681
0.00138798 0.00352384 -0.000686273
0.00576543 -0.0162125 0.0558504
-0.00198448 -0.00877186 0.00355377
0.180336 0.0915908 -0.411493
-0.0454381 -0.0139057 0.0701728
0.00324447 0.0111231 -0.00503225
0.0241332 -0.0311361 0.0769362
0.0611805 -0.0293269 0.0054838
0.0147833 -0.0295934 0.0609837
0.00121777 0.0034101 -0.0104765
0.0141641 0.0133988 0.0486219
0.0178421 0.0411075 0.0539751
0.000146103 0.0122554 0.0493369
0.00559073 -0.022121 0.076221
0.00018839 -0.00991446 0.0283731
-0.00675447 0.0112171 -0.00597769
-0.288628 -0.0720581 -0.299408
-0.000450334 -0.0014872 0.0019235
0.00760877 -0.0580225 0.0524207
-0.0215982 -0.0212766 0.0165315
-0.0359442 0.264682 -0.506731
0.00786647 0.0179277 -0.00962798
0.0392763 -0.0352528 0.0972104
-0.0789985 0.00480171 0.0451679
-0.00406477 -0.00355752 -6.3786e-05
0.0486611 0.00736109 0.0339887
0.00933847 -0.0132349 0.00240704
0.0455266 -0.0127559 0.0813665
-3.5912e-15 1.70335e-14 -8.4261e-14
0.00437729 -0.0244182 -0.0126829
-0.0428195 -0.220455 -0.340442
-0.0280613 0.00444991 -0.0071788
0.00248893 0.0547796 0.0150379
-0.0185195 -0.00454946 0.0818632
-0.0408797 0.0469023 0.0179852
0.00608726 -0.0061129 0.0226611
0.0169232 0.0163894 0.00831218
0.227824 -0.00314915 0.0325173
-0.000307664 -0.000585519 0.00176016
-0.000622398 0.000265829 0.00414983
-0.00266599 0.0342741 -0.0386526
0.0217087 -0.226057 0.368917
0.000458518 0.0422425 0.0360857
-0.0478912 -0.0677627 0.0191505
0.00343193 -0.00171585 -0.00841921
0.271423 -0.203922 0.51545
0.0442734 -0.0443136 0.0313497
0.000797314 0.00754693 -0.00139271
0.00604144 0.0158524 0.0110721
-0.0797561 -0.00335682 -0.0522628
-0.0108223 -0.00751806 -0.00144344
0.0113395 -0.00462335 0.03769
0.00124757 0.00285274 0.00580792
-0.0077753 0.031341 -0.0878883
0.292925 0.0848714 0.234921
0.0273964 0.00528036 0.0273707
0.109683 0.0276262 0.143696
-0.0009386 0.000191287 0.00356248
0.112802 -0.0635255 0.027423
0.00331576 -0.00688464 0.00489462
0.00354448 -0.0163394 -0.0338246
0.125488 -0.0244688 0.0805597
0.00702657 0.00325433 0.00402291
-0.0762015 0.0894381 -0.040963
0.146995 0.0332943 0.217887
-2.03761e-10 -2.34571e-09 -3.90124e-10
0.277154 -0.166072 0.605556
0.00118849 -0.00628706 0.0088597
0.000411591 -0.00302799 0.0444837
-0.0220352 0.0723929 0.384294
0.00199447 0.0289024 0.023107
0.00325415 -0.0452247 -0.000306924
0.077087 -0.0229289 -0.00400714
0.00090685 0.0114717 -0.00273832
-0.138626 0.0135172 -0.125044
-0.0394169 0.0178776 0.0636639
0.000104137 0.0483103 0.028193
0.214435 -0.0841267 0.160821
0.0895017 -0.0113909 0.0525876
0.0246761 -0.0180057 0.104796
-0.0397779 -0.0788095 -0.00604406
0.0316504 -0.0394275 0.0600209
0.0866603 0.0683213 0.273232
0.000829837 -0.0154769 0.0473876
0.218437 -0.0168751 0.130017
-0.0903843 -0.0840716 -0.234366
0.00387896 0.0548177 0.0376943
-0.0318824 -0.0534726 0.0364094
0.0881518 -0.387683 0.309066
0.00356966 0.0210019 -0.00605644
0.0193564 0.000593932 0.0416966
0.00435922 0.0330896 -0.038001
0.0169019 0.00451637 0.0127797
0.0105255 0.0619744 0.0318069
0.0122801 0.0192345 -0.000385791
0.0111419 -0.0472051 0.0544003
0.028511 -0.036969 0.0768955
0.000147568 0.0317619 0.0483273
-0.0033118 0.000370154 0.00162403
0.0106666 0.0352047 -0.075065
0.00826003 0.007642 0.00373011
0.0282992 -0.0500954 -0.00479031
0.00700537 -0.0502192 0.018674
0.0102929 0.00675673 0.0118273
0.134525 -0.176974 0.559115
0.00250318 0.0144054 -0.00660083
0.0203095 0.0175876 0.0191712
0.0131603 0.0154112 0.0175349
-0.00363615 -0.0107974 -0.00344524
0.00636014 0.0192451 -0.00384886
0.000466596 -0.0221622 0.0455028
0.00339297 -0.0112542 -0.00995179
0.0116907 0.00621815 -0.00482379
0.0183156 0.038017 -0.0756971
-0.00366948 -0.0226948 0.0168148
0.0108071 0.0174235 -0.0137683
-0.00407733 -0.00807334 0.00919551
0.00876096 -0.00206919 -0.02447
0.109873 -0.0744722 0.275994
0.0251176 -0.0800549 0.146952
0.0871911 -0.117766 0.0407001
0.14631 -0.0789252 0.0764706
-4.53639e-09 4.19975e-09 -1.35128e-09
0.00132175 -0.000479067 0.00223521
0.0106001 -0.00301457 -0.00366024
0.0177988 -0.0342159 0.0319863
-0.0109829 0.0550558 -0.00337926
0.0316535 0.0208012 0.00728039
-0.000169219 0.0440981 0.033602
0.104468 0.0447533 0.140257
-0.00238165 -0.0301231 0.0516275
0.00256202 0.0106516 -0.00110034
0.00019237 -0.0520365 0.0122206
0.000669599 0.0142856 -0.00351359
0.00102157 0.00406979 -0.00262275
0.0942899 -0.0355203 0.280021
0.254297 -0.0366067 0.507121
0.0844388 -0.0378728 0.49111
0.223023 0.0406052 0.489096
0.00121481 0.0543495 0.00276273
-0.00199983 -0.028274 0.101028
0.0103329 -0.00582241 0.0196801
-0.0110309 0.0269076 -0.037752
0.00187994 -0.00980957 0.00830745
-0.0510717 0.00722515 -0.0461244
-0.00242556 0.0190772 -0.0166093
0.000149363 -0.00402561 -0.00514667
-0.00660829 0.0533726 0.0101455
-0.0840568 0.14105 -0.234156
-0.0325463 -0.0143782 0.00111033
-0.00134132 -0.00220889 0.00464289
0.00566933 0.000732299 0.00982575
-0.000221378 0.00388081 -0.00572554
0.215535 -0.00852633 0.129369
0.00111036 -0.0197257 0.0279265
-0.000445351 -0.0098074 0.0523198
0.00627054 0.000292489 -0.00570571
0.385824 -0.119366 0.570548
0.00328311 -0.00262199 0.00173966
-0.177727 -0.149625 0.26006
-0.116159 0.0345937 0.23462
0.00317939 0.000283913 -0.00290962
0.0196959 -0.0583285 0.0564189
-0.0127381 -0.0538113 0.0165885
-0.0316439 -0.00869473 0.00694033
0.000252043 0.0189025 0.0152851
0.139531 0.0549314 0.272937
0.00345657 0.004982 0.0154673
-0.005271 -0.0030362 -0.0132066

VECTORS force float
-7.24694e-06 4.67664e-06 -1.07044e-05
7.84487e-05 0.000109176 0.000138988
-4.85636e-07 1.33475e-05 1.94715e-05
-3.27803e-08 1.98633e-07 1.28138e-07
1.02295e-05 -1.13027e-05 1.59728e-05
-8.30554e-06 2.34577e-05 9.1615e-06
-5.32008e-05 -1.19798e-05 0.000279271
-0.000213599 6.74894e-06 0.000200225
0.0 0.0 -5.1365e-06
8.23834e-07 -5.58584e-07 -4.48116e-06
0.00194054 0.000667162 4.03851e-05
-2.1305e-05 1.58755e-05 6.8649e-06
-0.000915768 0.00132738 0.001608
-6.34536e-06 7.20484e-06 -3.94601e-06
8.16252e-05 3.65266e-05 -9.63086e-05
0.0 0.0 -5.1365e-06
0.0 0.0 -5.1365e-06
0.00193081 -0.000427337 -0.00257696
0.000107805 9.89691e-05 1.47615e-05
-2.41822e-05 3.26162e-05 -3.66221e-05
-0.00241716 7.10688e-05 -0.00144656
4.24473e-05 1.67877e-05 -3.18786e-05
9.09043e-07 4.08611e-06 -7.53707e-07
0.0 0.0 -5.1365e-06
0.0 0.0 -5.1365e-06
1.01483e-06 -3.03691e-06 -7.09873e-06
0.0 0.0 -5.1365e-06
0.000505148 -0.000340337 0.000548184
1.30803e-07 -4.23764e-06 -1.66101e-06
0.0 0.0 -5.1365e-06
-5.94614e-05 -3.9332e-06 1.42263e-05
0.000131497 0.000196153 -2.58412e-05
-0.000300893 -0.000327771 0.000462363
0.0 0.0 -5.1365e-06
2.35075e-05 -0.000168565 0.000228719
0.000668161 -0.00124979 -0.000398965
0.0 0.0 -5.1365e-06
2.70359e-07 -1.31482e-07 -4.94491e-06
-0.00262251 -0.00317394 0.0032524
0.0 0.0 -5.1365e-06
0.0 0.0 -5.1365e-06
1.09426e-19 -1.86347e-20 -7.6233e-21
5.57524e-08 7.62623e-07 -2.58176e-06
0.0 0.0 -5.1365e-06
0.0 0.0 -5.1365e-06
3.68198e-07 3.81734e-06 -3.0165e-06
-2.12532e-05 -0.000144098 -2.31037e-05
0.0 0.0 -5.1365e-06
0.000451568 0.000664468 -0.000514202
0.0 0.0 -5.1365e-06
-5.23627e-05 0.000179429 0.000154172
1.45792e-05 -5.09383e-06 5.45325e-05
-1.32445e-06 1.50223e-05 -1.99641e-05
0.0 0.0 -5.1365e-06
0.0 0.0 -5.1365e-06
3.84464e-06 -5.59241e-06 -1.29007e-05
0.0 0.0 -5.1365e-06
-6.21915e-05 0.000294791 -0.000114118
0.0 0.0 -5.1365e-06
0.0 0.0 -5.1365e-06
6.2181e-06 -1.8548e-06 7.30582e-06
2.98117e-05 -9.13746e-06 2.44194e-05
0.0 0.0 -5.1365e-06
0.0 0.0 -5.1365e-06
0.0 0.0 -5.1365e-06
2.53317e-06 5.28418e-06 1.18058e-05
0.0034692 0.0048251 -0.00219938
-0.000207332 1.26357e-05 -0.000349869
0.000603742 -0.000323288 -0.000776687
-6.87729e-05 5.60789e-05 9.38498e-05
-0.000105819 1.31406e-05 -7.8986e-06
-6.14594e-05 9.24598e-05 9.40624e-06
1.00648e-05 -0.000144089 -3.89418e-05
-6.56918e-07 -1.31276e-06 -3.46054e-06
9.3577e-05 -6.60137e-05 -4.46556e-05
4.99101e-05 0.000153182 -0.000281343
0.0 0.0 -5.1365e-06
0.000368796 0.000369272 0.000122849
8.7283e-11 -1.88878e-10 -6.35715e-11
0.0 0.0 -5.1365e-06
-1.61299e-06 -5.80994e-07 -3.32123e-06
0.0 0.0 -5.1365e-06
0.000933589 -0.00100132 -0.0013239
-2.56732e-07 5.40411e-07 5.2117e-08
-7.23147e-07 3.07923e-06 -3.7572e-07
3.18831e-05 -2.203e-06 5.14012e-05
-5.58421e-06 8.11978e-06 8.55194e-06
0.0 0.0 -5.1365e-06
0.0 0.0 -5.1365e-06
4.00034e-06 -5.65802e-06 -3.03755e-05
0.000818982 -0.000317575 0.00039492
-0.000457455 -0.00257856 -0.00194236
-2.25195e-05 1.09544e-05 -2.45025e-05
0.0 0.0 -5.1365e-06
0.00016138 5.25143e-05 0.000566308
0.000263224 3.55399e-05 0.000411913
-3.0991e-08 1.53133e-07 2.06851e-07
0.0 0.0 -5.1365e-06
0.0 0.0 -5.1365e-06
-3.68198e-07 -3.81734e-06 -7.25651e-06
0.000295865 0.000234116 -9.52282e-06
0.0 0.0 -5.1365e-06
-9.66351e-06 1.04139e-05 -3.77534e-05
-0.00379937 -0.00215047 -0.00101967
0.0 0.0 -5.1365e-06
0.0 0.0 -5.1365e-06
0.0 0.0 -5.1365e-06
-2.81622e-06 -6.3248e-05 -5.84828e-06
3.67792e-05 2.24319e-05 1.50964e-05
-0.000144653 -5.13827e-06 -6.58766e-05
0.0 0.0 -5.1365e-06
-4.46854e-06 2.45715e-06 1.21656e-05
0.0 0.0 -5.1365e-06
-1.8875e-05 -9.83963e-05 9.32602e-05
-1.98692e-05 0.000116118 0.000163539
0.0 0.0 -5.1365e-06
1.55442e-06 3.38111e-06 -3.1289e-06
-0.00013611 9.22565e-05 0.000723783
-3.05444e-07 4.6979e-06 -2.38038e-06
-3.35649e-07 -2.95398e-07 -3.78409e-06
0.0 0.0 -5.1365e-06
-2.18024e-07 8.44748e-06 -1.7411e-07
1.27269e-05 3.8972e-05 0.000100818
-1.66051e-08 1.32869e-07 2.07401e-07
0.000753911 -0.000302708 0.000755024
-0.000106431 -0.000111339 -0.000113992
0.0 0.0 -5.1365e-06
-7.95765e-05 0.000299304 0.000133168
3.72834e-06 -1.08028e-06 -1.60878e-06
7.1619e-06 -6.35275e-06 4.51878e-06
-0.000924262 -5.4044e-05 0.00129344
0.00014274 9.09909e-05 -6.31271e-05
0.0 0.0 -5.1365e-06
8.45216e-05 -4.29696e-05 3.47414e-05
0.0 0.0 -5.1365e-06
-7.04594e-11 -3.52106e-12 3.2699e-11
-1.4796e-06 -7.63197e-06 1.27657e-05
6.184e-05 5.03066e-05 -0.000245957
-0.00141228 0.00138532 -0.00373638
0.0 0.0 -5.1365e-06
0.0 0.0 -5.1365e-06
6.92345e-06 5.34872e-06 2.14893e-05
0.0 0.0 -5.1365e-06
0.00197898 0.000553885 -0.00133078
-6.61936e-07 1.37245e-05 -8.15629e-06
-4.6968e-09 1.83912e-09 2.24549e-07
0.0 0.0 -5.1365e-06
2.74077e-06 2.00109e-06 4.71306e-06
-0.00139803 0.000997187 -0.0009289
0.00032568 -2.67069e-05 0.000849199
-5.27121e-06 -0.00234542 -0.00118086
-0.00050683 -0.000391379 0.000117945
-5.03122e-07 1.44936e-06 -3.40056e-07
0.000495581 -5.38398e-05 -0.00269261
-3.70713e-05 -0.000277235 0.000385548
0.0 0.0 -5.1365e-06
-5.70975e-05 -3.63082e-05 5.86755e-05
0.0 0.0 -5.1365e-06
-2.44697e-08 5.33248e-07 5.67708e-08
-1.81985e-08 8.6383e-07 -5.42102e-06
-0.000655989 0.000847591 0.000478652
0.0 0.0 -5.1365e-06
0.0 0.0 -5.1365e-06
-2.88048e-06 -1.42014e-05 -1.57743e-05
2.21028e-05 -3.02791e-05 -1.268e-05
0.0 0.0 -5.1365e-06
0.000249499 -0.00018276 5.69573e-05
1.43035e-07 5.48261e-07 -3.03571e-07
3.30686e-08 1.84633e-07 1.01476e-07
-1.30803e-07 4.23764e-06 -8.612e-06
0.0 0.0 -5.1365e-06
-2.55918e-05 0.000141044 -8.56568e-05
0.00049593 0.00182803 0.000423779
0.0 0.0 -5.1365e-06
1.78304e-09 -1.686e-07 5.11663e-07
-2.59814e-05 5.87377e-05 1.93133e-05
0.0 0.0 -5.1365e-06
0.0 0.0 -5.1365e-06
0.0 0.0 -5.1365e-06
3.79325e-05 0.000226603 0.00033665
-7.72358e-06 1.15996e-06 2.52193e-05
0.0 0.0 -5.1365e-06
