# vtk DataFile Version 3.0
LIGGGHTS particles timestep 3800000
ASCII
DATASET POLYDATA
POINTS 146 float
0.0261964 0.0220816 0.00728605
0.0303962 0.0229516 0.00953606
0.0310671 0.0191297 0.0057183
0.0326243 0.0176696 0.0155618
0.023243 -0.019425 0.0547485
0.0306167 0.023278 0.0104743
0.0298812 0.0213732 0.00783331
0.0302208 0.0224215 0.00876675
0.0224817 0.0228808 0.015318
0.0177102 0.0109393 0.0364243
0.0299633 0.0192754 0.00581251
0.0177196 0.0229472 0.0152023
0.0258114 0.0210556 0.0153196
0.0258361 0.0217407 0.0147226
0.0158607 0.0232401 0.0150539
0.0216592 0.0239711 0.0145082
0.0189921 0.0234791 0.0117874
0.0208366 0.0231527 0.0135098
0.0165324 0.0147736 0.012762
0.0185458 0.0229252 0.00995389
0.0210885 0.0339652 0.0429395
0.0243769 0.0229151 0.00949785
0.0323055 0.0193348 0.0158284
0.0215093 0.0151782 0.013711
0.0208433 0.0134215 0.0486282
0.0181296 0.0235994 0.0235994
0.0198015 0.0240908 0.0128667
0.0224707 0.0184422 0.0172797
0.0153233 0.0229063 0.0137341
0.0187397 0.0139876 0.0140268
0.0173517 0.0240933 0.0143386
0.0181825 0.0237595 0.0138949
0.0203256 0.0239629 0.0139411
0.0149493 0.0231112 0.0146607
0.0231608 0.0174362 0.0165197
0.0406138 0.0191626 0.00568074
0.0207736 0.0240307 0.0130451
0.0194219 0.0236854 0.0144468
0.0280297 0.0148697 0.0105669
0.0260486 0.0203689 0.0156027
0.0237925 0.0192214 0.00595071
0.0217392 0.0205594 0.0172175
0.0151653 0.0167437 0.0155917
0.0203195 0.023251 0.0146443
0.0185551 0.0221104 0.0167105
0.0143224 0.0227129 0.0154051
0.0168298 0.0146599 0.0166364
0.0172495 0.0150384 0.0134522
0.021767 0.0182662 0.0158783
0.0200591 0.0144029 0.0140225
0.0268096 0.018267 0.0254913
0.0267065 0.0172254 0.0152873
0.0234079 0.0192741 0.00720585
0.0220815 0.0149025 0.01042
0.0155396 0.0223148 0.0145224
0.0138464 0.0218175 0.0150524
0.0194489 0.0244021 0.0137483
0.023713 0.022736 0.0154452
0.018634 0.0241554 0.0130966
0.0195695 0.023611 0.0155232
0.0239395 0.0202041 0.00583859
0.0167591 0.0238894 0.0135592
0.0178157 0.0142488 0.013696
0.0225637 0.0195823 0.0058395
0.0194279 0.0140895 0.0133069
0.0336017 0.0195831 0.00585649
0.0216401 0.0238324 0.0135171
0.0198427 0.023167 0.0135592
0.0206294 0.0202748 0.0157867
0.0320596 0.0202194 0.0156092
0.0337706 0.0147755 0.0118457
0.0227416 0.0143797 0.0148537
0.0217091 0.017123 0.0155028
0.0241222 0.0188999 0.017696
0.0195373 0.0226941 0.0143685
0.0235556 0.0113051 0.045703
0.0204858 0.0186743 0.0159323
0.0201825 0.0220203 0.0162044
0.013285 0.0203834 0.0182112
0.0389148 0.0189256 0.00570476
0.0212494 0.0229545 0.0143923
0.0310282 0.0233164 0.0123059
0.0285351 0.015755 0.0087355
0.0216535 0.0157475 0.0158253
0.028934 0.0268735 0.0421654
0.0176357 0.0240549 0.0131084
0.0281023 0.0147774 0.0113843
0.0214594 0.0165352 0.0178709
0.0293383 0.0188744 0.00718125
0.018531 0.0232535 0.0146819
0.019013 0.0182361 0.016766
0.0191537 0.0233727 0.012746
0.0232114 0.0232192 0.0147238
0.0231394 0.0181618 0.00729799
0.0271903 0.0157897 0.0143099
0.019076 0.0160475 0.0162656
0.0199821 0.0234947 0.0118017
0.0315365 0.0223166 0.0143167
0.0344365 0.0152494 0.0134132
0.0174835 0.0144424 0.0124465
0.0216453 0.0147863 0.0127812
0.021154 0.0139745 0.0138347
0.0196995 0.0222569 0.0152493
0.020416 0.0140375 0.013163
0.0186024 0.0232703 0.010629
0.0156508 0.0201643 0.0159318
0.0229997 0.0159527 0.0147221
0.0212039 0.0157065 0.0145193
0.0327957 0.0190095 0.00571076
0.0225057 0.0236016 0.0141276
0.0202988 0.0213151 0.0169528
0.0206908 0.0222184 0.0152827
0.0148417 0.0194906 0.0160509
0.0193925 0.0233193 0.010864
0.0166626 0.0228054 0.0160894
0.0255192 0.019994 0.0167431
0.0317688 0.021414 0.0150647
0.0241715 0.0223122 0.00880851
0.0142517 0.022448 0.0143894
0.0313072 0.0227727 0.0134722
0.0163968 0.0102683 0.031287
0.0184837 0.0140032 0.0129894
0.0227654 0.0170074 0.015449
0.0252574 0.0212202 0.0163819
0.0218634 0.0204257 0.0157298
0.0282832 0.0152609 0.00951307
0.022008 0.0161971 0.0149555
0.0236231 0.0151484 0.0150098
0.0288753 0.0170753 0.0076425
0.00370616 0.0157832 0.066518
0.0159914 0.0236021 0.0141312
0.0247626 0.0164332 0.0160576
0.019939 0.0212809 0.0153462
0.0222832 0.0145898 0.0139781
0.0210978 0.0212708 0.0153606
0.0381686 0.0197868 0.00591052
0.0236738 0.0206316 0.00761182
0.0240244 0.0155632 0.0158872
0.0202893 0.0232949 0.0126888
0.0216196 0.0222058 0.014932
0.0165293 0.0171828 0.0155498
0.0209952 0.0165024 0.0151683
0.0208135 0.017455 0.0158569
0.0147397 0.018482 0.0170992
0.013121 0.009849 0.0377567
0.0192532 0.0145887 0.015533

VERTICES 146 292
1 0
1 1
1 2
1 3
1 4
1 5
1 6
1 7
1 8
1 9
1 10
1 11
1 12
1 13
1 14
1 15
1 16
1 17
1 18
1 19
1 20
1 21
1 22
1 23
1 24
1 25
1 26
1 27
1 28
1 29
1 30
1 31
1 32
1 33
1 34
1 35
1 36
1 37
1 38
1 39
1 40
1 41
1 42
1 43
1 44
1 45
1 46
1 47
1 48
1 49
1 50
1 51
1 52
1 53
1 54
1 55
1 56
1 57
1 58
1 59
1 60
1 61
1 62
1 63
1 64
1 65
1 66
1 67
1 68
1 69
1 70
1 71
1 72
1 73
1 74
1 75
1 76
1 77
1 78
1 79
1 80
1 81
1 82
1 83
1 84
1 85
1 86
1 87
1 88
1 89
1 90
1 91
1 92
1 93
1 94
1 95
1 96
1 97
1 98
1 99
1 100
1 101
1 102
1 103
1 104
1 105
1 106
1 107
1 108
1 109
1 110
1 111
1 112
1 113
1 114
1 115
1 116
1 117
1 118
1 119
1 120
1 121
1 122
1 123
1 124
1 125
1 126
1 127
1 128
1 129
1 130
1 131
1 132
1 133
1 134
1 135
1 136
1 137
1 138
1 139
1 140
1 141
1 142
1 143
1 144
1 145

POINT_DATA 146
SCALARS id int 1
LOOKUP_TABLE default
1
2
4
5
6
7
8
10
11
12
13
14
15
16
19
20
21
22
23
24
25
26
27
29
30
31
34
35
36
37
40
41
42
43
44
45
46
48
49
50
52
53
54
55
58
59
60
61
62
63
64
65
66
68
71
72
74
75
76
77
78
79
81
82
83
84
85
86
87
89
90
91
92
93
95
97
98
102
103
105
107
108
109
110
111
112
113
114
115
118
120
122
123
124
125
126
127
128
129
131
133
134
135
136
138
139
140
141
142
143
144
146
147
148
149
150
151
152
153
154
155
156
157
158
160
161
163
164
167
168
169
170
171
173
174
175
176
178
180
181
182
183
185
188
189
190

SCALARS type int 1
LOOKUP_TABLE default
1
1
1
1
1
1
1
1
1
1
1
1
1
1
1
1
1
1
1
1
1
1
1
1
1
1
1
1
1
1
1
1
1
1
1
1
1
1
1
1
1
1
1
1
1
1
1
1
1
1
1
1
1
1
1
1
1
1
1
1
1
1
1
1
1
1
1
1
1
1
1
1
1
1
1
1
1
1
1
1
1
1
1
1
1
1
1
1
1
1
1
1
1
1
1
1
1
1
1
1
1
1
1
1
1
1
1
1
1
1
1
1
1
1
1
1
1
1
1
1
1
1
1
1
1
1
1
1
1
1
1
1
1
1
1
1
1
1
1
1
1
1
1
1
1
1

SCALARS radius float 1
LOOKUP_TABLE default
0.0005
0.0005
0.0005
0.0005
0.0005
0.0005
0.0005
0.0005
0.0005
0.0005
0.0005
0.0005
0.0005
0.0005
0.0005
0.0005
0.0005
0.0005
0.0005
0.0005
0.0005
0.0005
0.0005
0.0005
0.0005
0.0005
0.0005
0.0005
0.0005
0.0005
0.0005
0.0005
0.0005
0.0005
0.0005
0.0005
0.0005
0.0005
0.0005
0.0005
0.0005
0.0005
0.0005
0.0005
0.0005
0.0005
0.0005
0.0005
0.0005
0.0005
0.0005
0.0005
0.0005
0.0005
0.0005
0.0005
0.0005
0.0005
0.0005
0.0005
0.0005
0.0005
0.0005
0.0005
0.0005
0.0005
0.0005
0.0005
0.0005
0.0005
0.0005
0.0005
0.0005
0.0005
0.0005
0.0005
0.0005
0.0005
0.0005
0.0005
0.0005
0.0005
0.0005
0.0005
0.0005
0.0005
0.0005
0.0005
0.0005
0.0005
0.0005
0.0005
0.0005
0.0005
0.0005
0.0005
0.0005
0.0005
0.0005
0.0005
0.0005
0.0005
0.0005
0.0005
0.0005
0.0005
0.0005
0.0005
0.0005
0.0005
0.0005
0.0005
0.0005
0.0005
0.0005
0.0005
0.0005
0.0005
0.0005
0.0005
0.0005
0.0005
0.0005
0.0005
0.0005
0.0005
0.0005
0.0005
0.0005
0.0005
0.0005
0.0005
0.0005
0.0005
0.0005
0.0005
0.0005
0.0005
0.0005
0.0005
0.0005
0.0005
0.0005
0.0005
0.0005
0.0005

SCALARS mass float 1
LOOKUP_TABLE default
5.23599e-07
5.23599e-07
5.23599e-07
5.23599e-07
5.23599e-07
5.23599e-07
5.23599e-07
5.23599e-07
5.23599e-07
5.23599e-07
5.23599e-07
5.23599e-07
5.23599e-07
5.23599e-07
5.23599e-07
5.23599e-07
5.23599e-07
5.23599e-07
5.23599e-07
5.23599e-07
5.23599e-07
5.23599e-07
5.23599e-07
5.23599e-07
5.23599e-07
5.23599e-07
5.23599e-07
5.23599e-07
5.23599e-07
5.23599e-07
5.23599e-07
5.23599e-07
5.23599e-07
5.23599e-07
5.23599e-07
5.23599e-07
5.23599e-07
5.23599e-07
5.23599e-07
5.23599e-07
5.23599e-07
5.23599e-07
5.23599e-07
5.23599e-07
5.23599e-07
5.23599e-07
5.23599e-07
5.23599e-07
5.23599e-07
5.23599e-07
5.23599e-07
5.23599e-07
5.23599e-07
5.23599e-07
5.23599e-07
5.23599e-07
5.23599e-07
5.23599e-07
5.23599e-07
5.23599e-07
5.23599e-07
5.23599e-07
5.23599e-07
5.23599e-07
5.23599e-07
5.23599e-07
5.23599e-07
5.23599e-07
5.23599e-07
5.23599e-07
5.23599e-07
5.23599e-07
5.23599e-07
5.23599e-07
5.23599e-07
5.23599e-07
5.23599e-07
5.23599e-07
5.23599e-07
5.23599e-07
5.23599e-07
5.23599e-07
5.23599e-07
5.23599e-07
5.23599e-07
5.23599e-07
5.23599e-07
5.23599e-07
5.23599e-07
5.23599e-07
5.23599e-07
5.23599e-07
5.23599e-07
5.23599e-07
5.23599e-07
5.23599e-07
5.23599e-07
5.23599e-07
5.23599e-07
5.23599e-07
5.23599e-07
5.23599e-07
5.23599e-07
5.23599e-07
5.23599e-07
5.23599e-07
5.23599e-07
5.23599e-07
5.23599e-07
5.23599e-07
5.23599e-07
5.23599e-07
5.23599e-07
5.23599e-07
5.23599e-07
5.23599e-07
5.23599e-07
5.23599e-07
5.23599e-07
5.23599e-07
5.23599e-07
5.23599e-07
5.23599e-07
5.23599e-07
5.23599e-07
5.23599e-07
5.23599e-07
5.23599e-07
5.23599e-07
5.23599e-07
5.23599e-07
5.23599e-07
5.23599e-07
5.23599e-07
5.23599e-07
5.23599e-07
5.23599e-07
5.23599e-07
5.23599e-07
5.23599e-07
5.23599e-07
5.23599e-07
5.23599e-07
5.23599e-07
5.23599e-07
5.23599e-07

VECTORS velocity float
0.246986 -0.00268798 -0.135152
0.000693458 -0.0194761 -0.0418888
-8.71305e-15 1.80385e-16 -1.02212e-13
0.000377858 0.0484746 0.0168707
0.107677 -0.489318 -0.036895
0.00297428 -0.0119372 -0.0425981
0.00604376 -0.0320542 -0.0194883
0.000705542 -0.0311946 -0.0370156
-0.0407389 0.023062 -0.0344952
-0.0227542 -0.120776 -0.231169
-1.05657e-15 9.75905e-18 -1.23877e-14
-0.0441634 0.0318289 -0.0680619
0.00225536 0.0376417 -0.0228242
-0.000455309 0.0370089 -0.0334599
0.00434898 -0.00433457 -0.00450992
-0.0162112 -0.000158462 -0.0238102
0.00145573 -0.00104939 -0.00402035
0.00258336 -0.00809292 -0.00906402
0.00677192 -0.0134921 -0.00683747
0.00242569 -0.0041707 -0.0109715
0.276629 0.174032 -0.171654
0.00476877 -0.00398819 -0.0162236
0.00340827 0.0421414 -0.00531555
-0.0177175 -0.000937788 -0.0174499
-0.142645 0.151335 -0.108826
0.00155563 0.0852524 -0.0952476
0.000523363 0.00172708 -0.00213591
-0.252865 -0.0170589 0.0672903
0.00987347 0.0017852 -0.0100337
-0.00439031 -0.0141844 -0.00922154
0.00671936 0.017012 -0.0184013
0.00815232 0.0121242 -0.0121774
0.00612118 -0.00179229 0.00207039
0.00360672 0.00115407 -0.000290438
-0.286634 -0.00360436 0.00483867
-7.29585e-15 3.4843e-14 -1.72292e-13
-0.00027191 0.000488392 -0.00205694
0.00694219 0.00743144 0.00833402
0.0743693 0.805411 -0.406375
0.00376273 0.0399875 -0.00932488
-4.19062e-08 6.7844e-09 4.1516e-09
-0.349361 0.00412165 0.0410761
0.112239 0.0193426 -0.0423627
0.0234377 0.0561943 0.0216111
-0.0165641 -0.00667199 -0.0906446
-0.0506954 0.00980114 -0.0491552
0.00971209 0.00164419 -0.0412899
0.0172124 0.0134892 -0.0355954
6.62231e-06 0.0489445 0.00837405
-0.00136624 0.0100909 -0.004603
-0.325387 -0.106775 -0.225624
0.000855234 0.0459598 0.0182954
0.00513084 -0.0419832 -0.000297127
0.000452287 -0.013155 0.05035
0.000921467 0.0100314 -0.0375341
0.010224 -0.0130338 -0.0179565
-0.00704839 -0.00399533 -0.00142571
-0.00049228 0.0309222 -0.0178645
0.0109153 -0.00346873 -0.0176387
0.00818695 -0.0346871 -0.0199554
5.45772e-09 -8.29821e-10 -5.11227e-10
0.000410913 0.00149075 -0.00324757
-0.0199463 -0.00903934 -0.00915843
-4.39593e-14 9.36731e-14 3.3937e-13
-0.00058528 -0.000623786 -0.00607476
-1.04155e-18 2.6334e-18 -1.59374e-18
-0.00537214 -0.0170259 -0.02508
0.00539459 0.00904019 0.000746538
-8.71429e-05 0.0513279 -0.00530472
0.000217505 0.0467199 -0.0140414
0.000935461 -0.00139295 0.0541869
-0.0252928 -0.0348667 -0.0176981
0.00459511 0.0251539 0.0138812
-0.128004 0.0220433 0.0834766
0.0163769 0.0201185 0.0192387
0.0485132 -0.151353 -0.119378
0.00115401 0.0501064 0.00453886
0.0581888 -0.00851588 0.0843982
0.148018 -0.0366741 0.00816627
-8.52235e-16 3.68772e-15 -1.82428e-14
-0.0103899 -0.00846029 0.0081851
0.00227418 0.00676451 -0.0448501
0.00437397 -0.0235553 0.0241286
0.00219679 -0.0355133 -0.00333608
-0.290005 -0.249533 0.433702
0.00164548 -7.81389e-05 -0.00155136
0.26065 5.75648 0.709709
0.0568197 -0.125882 0.144966
0.0566311 -0.0279674 -2.50734
0.00478933 0.0142893 -0.00338933
-0.00811954 -0.000833913 0.00560715
0.0117233 -0.00631646 -0.00395592
-0.0149569 0.0114618 -0.01334
0.000370433 -0.0511781 0.00966672
0.00394128 0.0171137 0.0207466
-0.0398397 -0.0590364 -0.0493309
-2.3495e-06 0.00243763 -0.00230558
0.00189528 0.0292005 -0.0370599
-0.000138236 0.0226276 0.0466284
0.0201977 0.0283653 -0.0898375
0.000878648 0.00597577 -0.000193635
0.00478903 0.00564985 -0.00540507
-0.000365757 0.0488408 0.0314029
9.54118e-05 6.00003e-05 -0.000498099
0.0101469 -0.000946694 -0.0124018
0.0636659 0.0671273 -0.00520781
0.0166379 -0.00789716 -0.0203797
0.011586 0.0226119 0.0202046
2.17788e-18 -1.54749e-18 -1.27896e-19
-0.011068 -0.000945124 -0.0180598
-0.111291 0.0547053 -0.0354388
0.00296428 0.0458805 0.0469165
0.0161204 0.057114 0.0833775
0.00521413 -0.00299818 -0.0195995
-0.0333696 0.160718 0.0901492
0.00366567 0.0549227 0.162607
6.75418e-05 0.0461778 -0.0268859
0.0031251 -0.0269049 -0.0285208
0.00400194 0.00255845 -0.00761558
-0.00256409 0.0290212 -0.0461756
-0.134508 0.0410607 -0.190662
-0.00222083 -0.000142968 -0.00162212
-0.000676231 0.0224722 0.0116796
-0.0124842 -0.0453263 -0.161101
0.0019456 0.0242758 -0.00395056
0.00142668 -0.021546 0.0431708
0.0184527 0.0157774 -0.0114151
-0.0214584 -0.0161339 -0.0441601
0.00108245 -0.0410317 0.0189692
-0.342761 -0.13446 0.724694
0.000636464 8.63525e-05 -0.00219371
-0.0332703 0.00660127 0.0231991
0.00641854 0.0323132 -0.0167249
-0.00564585 -0.00679648 -0.042526
0.0146885 0.0548639 -0.0323495
1.03914e-14 -4.97197e-14 2.45847e-13
0.000963692 -0.0455892 -0.0221444
-0.0463821 0.012885 -0.0547678
-0.000857884 0.00624814 -0.00922849
0.00708072 0.00611622 0.0332711
0.0113829 -0.0144241 -0.0246227
0.00534728 0.0136504 0.0418961
0.0154829 0.0151736 -0.00300407
0.084161 0.0635342 0.0703436
-0.194386 -0.23741 0.17778
-0.00915495 -0.0426519 -0.0740367

VECTORS force float
0.0 0.0 -5.1365e-06
1.87574e-07 1.62234e-06 4.36909e-06
-1.27055e-21 4.77421e-19 0.0
-4.65563e-09 1.70093e-07 -1.8542e-07
0.0 0.0 -5.1365e-06
-1.04628e-06 -4.29723e-06 -1.40603e-05
0.000141822 -7.52358e-05 -0.000311275
-3.67161e-08 1.48122e-06 2.34329e-06
0.0 0.0 -5.1365e-06
0.0 0.0 -5.1365e-06
0.0 -2.97785e-23 0.0
0.0 0.0 -5.1365e-06
5.55582e-09 7.84585e-08 -2.47063e-07
4.13683e-08 -2.18191e-08 -2.48899e-07
-3.20927e-06 -2.06458e-06 9.80503e-06
-6.76127e-05 2.46134e-05 2.84817e-05
-4.96327e-06 -5.65602e-06 -4.0545e-06
8.76563e-05 1.04336e-05 -1.85219e-05
0.0 0.0 -5.1365e-06
7.78198e-06 1.13695e-05 5.18378e-05
0.0 0.0 -5.1365e-06
2.33918e-06 1.01038e-06 2.75615e-06
1.82723e-05 -3.67342e-05 1.22635e-05
0.0 0.0 -5.1365e-06
0.0 0.0 -5.1365e-06
0.0 0.0 -5.1365e-06
-2.61581e-05 -1.43836e-05 3.39342e-08
0.0 0.0 -5.1365e-06
-6.00175e-07 5.18202e-06 -4.41697e-06
0.0 0.0 -5.1365e-06
-4.80835e-05 1.65843e-05 7.66188e-07
-2.61287e-05 -2.39549e-05 -4.80471e-05
1.64704e-05 -2.88645e-05 1.49537e-06
3.24181e-05 -4.93055e-05 -1.73163e-06
0.0 0.0 -5.1365e-06
1.58819e-22 0.0 -8.47033e-22
3.25001e-06 2.39733e-07 1.75455e-05
0.0 0.0 -5.1365e-06
0.0125642 -0.0536628 0.0348489
-5.56064e-07 3.95592e-07 -3.9252e-07
-5.35969e-11 8.65618e-12 5.3151e-12
0.0 0.0 -5.1365e-06
0.0 0.0 -5.1365e-06
4.08443e-05 6.51613e-07 9.70363e-06
0.0 0.0 -5.1365e-06
0.0 0.0 -5.1365e-06
0.0 0.0 -5.1365e-06
0.0 0.0 -5.1365e-06
-1.97964e-10 -1.27802e-07 2.39775e-07
-2.19841e-06 -8.42534e-07 1.70723e-06
0.0 0.0 -5.1365e-06
1.94603e-07 7.66305e-07 -8.46268e-08
-1.73416e-06 -2.45905e-05 3.91445e-06
-2.28919e-08 1.77051e-07 1.89472e-07
6.90461e-06 1.37243e-05 5.2181e-06
0.0 0.0 -5.1365e-06
4.19665e-05 -2.22715e-05 1.03716e-06
0.0 0.0 -5.1365e-06
1.01433e-05 2.18375e-05 -5.54403e-05
0.0 0.0 -5.1365e-06
-1.22939e-11 2.02464e-12 1.30176e-12
-1.78335e-06 5.69485e-06 6.21619e-06
0.0 0.0 -5.1365e-06
0.0 -2.11758e-22 -8.47033e-22
-1.3299e-06 1.98234e-08 -1.46376e-06
-7.41154e-22 2.11758e-22 -1.69407e-21
0.0 0.0 -5.1365e-06
4.13805e-05 -9.06883e-05 0.000129921
0.0 0.0 -5.1365e-06
3.17844e-06 -1.3488e-05 4.13982e-06
7.85513e-07 -3.12329e-06 6.70333e-06
0.0 0.0 -5.1365e-06
-3.35323e-06 -2.82774e-06 1.68851e-05
0.0 0.0 -5.1365e-06
-0.000103712 1.47879e-06 1.7294e-05
0.0 0.0 -5.1365e-06
-4.4093e-09 5.004e-08 -2.91894e-07
0.0 0.0 -5.1365e-06
0.0 0.0 -5.1365e-06
-1.74992e-19 -3.38813e-20 8.47033e-22
0.000121218 -0.000161584 -4.28203e-05
2.90742e-05 3.88715e-05 -2.89307e-05
-4.26478e-05 5.22034e-05 -8.54512e-06
0.0 0.0 -5.1365e-06
0.0 0.0 -5.1365e-06
2.35086e-06 2.80563e-06 1.10567e-07
0.0212704 -0.183429 0.170514
0.0 0.0 -5.1365e-06
0.0490447 0.108777 0.0365844
5.47815e-05 -4.72203e-05 0.000113215
0.0 0.0 -5.1365e-06
-3.93907e-05 -6.47428e-05 8.24393e-05
3.02535e-06 -7.45765e-06 -2.93681e-07
-5.2972e-07 5.2958e-07 6.46336e-07
-8.01529e-06 0.000110875 0.000114065
0.0 0.0 -5.1365e-06
-6.77023e-06 1.27546e-05 3.47836e-05
-6.72545e-07 2.17472e-06 -2.29142e-06
1.27936e-08 2.20499e-07 -3.3863e-08
2.02773e-07 1.34027e-06 -3.73151e-06
-1.16306e-06 -7.54296e-05 7.55085e-05
7.55314e-07 -1.15427e-06 2.10848e-06
4.05333e-05 3.11079e-06 3.69056e-06
-9.11565e-07 -7.88693e-07 3.67995e-06
2.47578e-05 9.33659e-06 8.5927e-05
0.0 0.0 -5.1365e-06
0.0 0.0 -5.1365e-06
0.0 0.0 -5.1365e-06
-3.17637e-22 -1.48231e-21 -2.5411e-21
5.55867e-05 -1.73807e-05 2.211e-05
0.0 0.0 -5.1365e-06
4.71681e-05 -4.62734e-05 -6.87821e-05
0.0 0.0 -5.1365e-06
1.22707e-05 6.19173e-05 0.000100526
0.0 0.0 -5.1365e-06
0.0 0.0 -5.1365e-06
-2.43658e-09 -7.63468e-08 -2.15057e-07
7.68696e-08 6.59145e-07 1.11585e-06
2.98728e-06 -1.21313e-05 6.36097e-06
2.56214e-07 -2.47477e-08 4.30426e-07
0.0 0.0 -5.1365e-06
-1.18303e-06 -1.70494e-07 -6.63663e-06
1.92071e-07 2.73553e-07 2.66905e-06
0.0 0.0 -5.1365e-06
0.0 0.0 -5.1365e-06
-6.2773e-06 3.11532e-05 -5.03852e-06
0.0 0.0 -5.1365e-06
0.0 0.0 -5.1365e-06
6.10807e-08 2.59281e-06 -1.17708e-06
0.0 0.0 -5.1365e-06
-3.28518e-06 -3.81381e-06 1.19148e-05
0.0 0.0 -5.1365e-06
0.0 0.0 -5.1365e-06
0.0 0.0 -5.1365e-06
0.0 0.0 -5.1365e-06
4.09223e-20 -2.32934e-20 -6.77626e-21
1.4226e-07 -1.0118e-08 3.16219e-07
0.0 0.0 -5.1365e-06
5.72432e-06 3.08543e-05 3.16852e-05
3.8992e-05 -0.000137626 0.000114717
0.0 0.0 -5.1365e-06
2.81063e-06 1.95025e-06 -5.15216e-06
0.0 0.0 -5.1365e-06
0.0 0.0 -5.1365e-06
0.0 0.0 -5.1365e-06
0.0 0.0 -5.1365e-06
