# vtk DataFile Version 3.0
LIGGGHTS particles timestep 4000000
ASCII
DATASET POLYDATA
POINTS 141 float
0.0301751 0.0199402 0.00583053
0.0307983 0.0154013 0.00921274
0.0311969 0.0190595 0.00570718
0.0330572 0.0233038 0.0105383
0.0311069 0.0164736 0.00811207
0.0302813 0.0147608 0.0112056
0.0305611 0.0150037 0.0100778
0.0201344 0.0234196 0.0148868
0.0189838 0.0146658 0.0151633
0.0302591 0.0185329 0.0057867
0.0177125 0.0233781 0.0142737
0.0266039 0.0223963 0.00881425
0.026118 0.0206246 0.0075574
0.0168351 0.0233486 0.0147535
0.0217737 0.0239266 0.0138331
0.0197251 0.0189758 0.00717739
0.0218211 0.0233354 0.0126473
0.017913 0.0149771 0.0133155
0.0188352 0.0154462 0.00911181
0.0193909 0.0156823 0.0148399
0.0249494 0.015771 0.00866469
0.0327108 0.0227597 0.00924139
0.0240836 0.0155375 0.0154312
0.0188431 0.0225136 0.0154819
0.0182239 0.0212592 0.0156115
0.0198312 0.0241188 0.0129419
0.0172187 0.0172275 0.0155534
0.0173055 0.0234777 0.0119094
0.0193585 0.0141153 0.0127788
0.0176928 0.0243293 0.013968
0.0185023 0.0237674 0.0138006
0.020225 0.023804 0.0138596
0.0154891 0.0236004 0.0147583
0.0166374 0.0142175 0.0136025
0.0406138 0.0191626 0.00568074
0.0209613 0.0240389 0.0132256
0.0193534 0.0235459 0.0142755
0.028417 0.0204873 0.0155669
0.0268122 0.0229112 0.00951046
0.0237925 0.0192214 0.00595071
0.0135653 0.0217913 0.0159777
0.0175012 0.0162293 0.0150615
0.0210135 0.0235512 0.0144203
0.0171837 0.0236151 0.0156865
0.0146575 0.0230689 0.014918
0.0176539 0.0155978 0.0143015
0.0188981 0.0149198 0.0131539
0.0240263 0.021364 0.0153129
0.0206255 0.0144987 0.0141214
0.0176173 0.0140337 0.0134665
0.0272178 0.0233989 0.0113207
0.0237554 0.015271 0.0135472
0.0233446 0.01619 0.0156075
0.0170498 0.0229794 0.0135783
0.0157424 0.0230613 0.0134158
0.0192995 0.0244016 0.0137451
0.0239633 0.0226941 0.0154919
0.0188309 0.0240968 0.0129154
0.0239395 0.0202041 0.00583859
0.0169362 0.0239599 0.0134306
0.0183587 0.0141128 0.0127864
0.0225637 0.0195823 0.0058395
0.019773 0.0142138 0.0136834
0.0336017 0.0195831 0.00585649
0.0225754 0.0231135 0.0133037
0.0212042 0.0234075 0.0112105
0.022755 0.0221686 0.0147036
0.0324822 0.0219392 0.00829334
0.0343415 0.0207614 0.0153506
0.0241745 0.0164887 0.0151367
0.0256923 0.0204555 0.0165665
0.0192449 0.0213059 0.017443
0.0216178 0.0230732 0.0133363
0.0171965 0.0221573 0.0156053
0.0217923 0.0206344 0.0165462
0.021314 0.00474621 0.0451406
0.0165897 0.021997 0.0148261
0.0389148 0.0189256 0.00570476
0.0218915 0.0232957 0.0148248
0.0314048 0.0175324 0.00744284
0.0291189 0.017432 0.0154746
0.0223139 0.0144831 0.0141573
0.0177311 0.0239686 0.0128582
0.028447 0.0213045 0.0151886
0.0230325 0.0145761 0.0148465
0.0298059 0.0152058 0.0133119
0.0185653 0.0231641 0.0147591
0.014029 0.0225052 0.0154533
0.0199475 0.0199688 0.00730571
0.0233028 0.0232432 0.0149622
0.0236488 0.0156881 0.0144574
0.0275725 0.0231191 0.0129974
0.0185665 0.0137263 0.0136847
0.0206435 0.0210228 0.00772275
0.0320593 0.0205125 0.00753779
0.0346432 0.0196041 0.0157837
0.0182102 0.0146259 0.0119413
0.0228099 0.0190226 0.015951
0.0214777 0.0142556 0.0136585
0.0168641 0.017529 0.016776
0.0206156 0.0140788 0.0131626
0.0190817 0.0163182 0.00815815
0.0173555 0.0224496 0.0143692
0.0238836 0.0200207 0.0158526
0.0225014 0.020505 0.0156989
0.0327957 0.0190095 0.00571076
0.0226569 0.0235633 0.0142344
0.015895 0.022751 0.0150978
0.0162961 0.0227214 0.0141824
0.0195416 0.0179625 0.00730847
0.0176956 0.0229171 0.0151863
0.0245216 0.0194478 0.0169028
0.0322969 0.0213252 0.00779705
0.0245471 0.0149754 0.0101418
0.0165199 0.0233147 0.0127595
0.0316517 0.0185949 0.00723722
0.0181245 0.0229003 0.0160915
0.0192102 0.0146255 0.0119319
0.024954 0.0178619 0.0159599
0.0246138 0.022011 0.0158427
0.0237878 0.0222362 0.0146202
0.0286933 0.0194196 0.0158066
0.0215948 0.014852 0.014973
0.0239282 0.0178808 0.0158003
0.0294571 0.0162345 0.0147143
0.0162086 0.0237368 0.0140776
0.0245645 0.0191221 0.0159584
0.0172032 0.0202826 0.0160523
0.0232259 0.0172067 0.0155467
0.0221434 0.0226684 0.0140881
0.0381686 0.0197868 0.00591052
0.0241037 0.0148097 0.0122699
0.0250285 0.0170089 0.0154438
0.0208795 0.0230291 0.00981552
0.0231826 0.0227398 0.0140036
0.0186443 0.0155081 0.0141977
0.0228325 0.0175708 0.016496
0.0224403 0.0214103 0.0152775
0.0180355 0.0219633 0.0149254
0.0136863 0.0115374 0.0313462
0.0189337 0.0145554 0.0141061

VERTICES 141 282
1 0
1 1
1 2
1 3
1 4
1 5
1 6
1 7
1 8
1 9
1 10
1 11
1 12
1 13
1 14
1 15
1 16
1 17
1 18
1 19
1 20
1 21
1 22
1 23
1 24
1 25
1 26
1 27
1 28
1 29
1 30
1 31
1 32
1 33
1 34
1 35
1 36
1 37
1 38
1 39
1 40
1 41
1 42
1 43
1 44
1 45
1 46
1 47
1 48
1 49
1 50
1 51
1 52
1 53
1 54
1 55
1 56
1 57
1 58
1 59
1 60
1 61
1 62
1 63
1 64
1 65
1 66
1 67
1 68
1 69
1 70
1 71
1 72
1 73
1 74
1 75
1 76
1 77
1 78
1 79
1 80
1 81
1 82
1 83
1 84
1 85
1 86
1 87
1 88
1 89
1 90
1 91
1 92
1 93
1 94
1 95
1 96
1 97
1 98
1 99
1 100
1 101
1 102
1 103
1 104
1 105
1 106
1 107
1 108
1 109
1 110
1 111
1 112
1 113
1 114
1 115
1 116
1 117
1 118
1 119
1 120
1 121
1 122
1 123
1 124
1 125
1 126
1 127
1 128
1 129
1 130
1 131
1 132
1 133
1 134
1 135
1 136
1 137
1 138
1 139
1 140

POINT_DATA 141
SCALARS id int 1
LOOKUP_TABLE default
1
2
4
5
7
8
10
11
12
13
14
15
16
19
20
21
22
23
24
25
26
27
29
30
31
34
35
36
37
40
41
42
43
44
45
46
48
49
50
52
53
54
55
58
59
60
61
62
63
64
65
66
68
71
72
74
75
76
78
79
81
82
83
84
85
86
87
89
90
91
92
93
95
97
98
102
103
105
107
108
109
110
112
113
114
115
118
120
122
123
124
125
126
127
128
129
131
133
134
135
136
138
139
140
141
142
143
144
147
148
149
150
151
152
153
154
155
156
157
158
160
161
163
164
167
169
170
171
173
174
175
176
178
180
181
182
183
185
188
189
190

SCALARS type int 1
LOOKUP_TABLE default
1
1
1
1
1
1
1
1
1
1
1
1
1
1
1
1
1
1
1
1
1
1
1
1
1
1
1
1
1
1
1
1
1
1
1
1
1
1
1
1
1
1
1
1
1
1
1
1
1
1
1
1
1
1
1
1
1
1
1
1
1
1
1
1
1
1
1
1
1
1
1
1
1
1
1
1
1
1
1
1
1
1
1
1
1
1
1
1
1
1
1
1
1
1
1
1
1
1
1
1
1
1
1
1
1
1
1
1
1
1
1
1
1
1
1
1
1
1
1
1
1
1
1
1
1
1
1
1
1
1
1
1
1
1
1
1
1
1
1
1
1

SCALARS radius float 1
LOOKUP_TABLE default
0.0005
0.0005
0.0005
0.0005
0.0005
0.0005
0.0005
0.0005
0.0005
0.0005
0.0005
0.0005
0.0005
0.0005
0.0005
0.0005
0.0005
0.0005
0.0005
0.0005
0.0005
0.0005
0.0005
0.0005
0.0005
0.0005
0.0005
0.0005
0.0005
0.0005
0.0005
0.0005
0.0005
0.0005
0.0005
0.0005
0.0005
0.0005
0.0005
0.0005
0.0005
0.0005
0.0005
0.0005
0.0005
0.0005
0.0005
0.0005
0.0005
0.0005
0.0005
0.0005
0.0005
0.0005
0.0005
0.0005
0.0005
0.0005
0.0005
0.0005
0.0005
0.0005
0.0005
0.0005
0.0005
0.0005
0.0005
0.0005
0.0005
0.0005
0.0005
0.0005
0.0005
0.0005
0.0005
0.0005
0.0005
0.0005
0.0005
0.0005
0.0005
0.0005
0.0005
0.0005
0.0005
0.0005
0.0005
0.0005
0.0005
0.0005
0.0005
0.0005
0.0005
0.0005
0.0005
0.0005
0.0005
0.0005
0.0005
0.0005
0.0005
0.0005
0.0005
0.0005
0.0005
0.0005
0.0005
0.0005
0.0005
0.0005
0.0005
0.0005
0.0005
0.0005
0.0005
0.0005
0.0005
0.0005
0.0005
0.0005
0.0005
0.0005
0.0005
0.0005
0.0005
0.0005
0.0005
0.0005
0.0005
0.0005
0.0005
0.0005
0.0005
0.0005
0.0005
0.0005
0.0005
0.0005
0.0005
0.0005
0.0005

SCALARS mass float 1
LOOKUP_TABLE default
5.23599e-07
5.23599e-07
5.23599e-07
5.23599e-07
5.23599e-07
5.23599e-07
5.23599e-07
5.23599e-07
5.23599e-07
5.23599e-07
5.23599e-07
5.23599e-07
5.23599e-07
5.23599e-07
5.23599e-07
5.23599e-07
5.23599e-07
5.23599e-07
5.23599e-07
5.23599e-07
5.23599e-07
5.23599e-07
5.23599e-07
5.23599e-07
5.23599e-07
5.23599e-07
5.23599e-07
5.23599e-07
5.23599e-07
5.23599e-07
5.23599e-07
5.23599e-07
5.23599e-07
5.23599e-07
5.23599e-07
5.23599e-07
5.23599e-07
5.23599e-07
5.23599e-07
5.23599e-07
5.23599e-07
5.23599e-07
5.23599e-07
5.23599e-07
5.23599e-07
5.23599e-07
5.23599e-07
5.23599e-07
5.23599e-07
5.23599e-07
5.23599e-07
5.23599e-07
5.23599e-07
5.23599e-07
5.23599e-07
5.23599e-07
5.23599e-07
5.23599e-07
5.23599e-07
5.23599e-07
5.23599e-07
5.23599e-07
5.23599e-07
5.23599e-07
5.23599e-07
5.23599e-07
5.23599e-07
5.23599e-07
5.23599e-07
5.23599e-07
5.23599e-07
5.23599e-07
5.23599e-07
5.23599e-07
5.23599e-07
5.23599e-07
5.23599e-07
5.23599e-07
5.23599e-07
5.23599e-07
5.23599e-07
5.23599e-07
5.23599e-07
5.23599e-07
5.23599e-07
5.23599e-07
5.23599e-07
5.23599e-07
5.23599e-07
5.23599e-07
5.23599e-07
5.23599e-07
5.23599e-07
5.23599e-07
5.23599e-07
5.23599e-07
5.23599e-07
5.23599e-07
5.23599e-07
5.23599e-07
5.23599e-07
5.23599e-07
5.23599e-07
5.23599e-07
5.23599e-07
5.23599e-07
5.23599e-07
5.23599e-07
5.23599e-07
5.23599e-07
5.23599e-07
5.23599e-07
5.23599e-07
5.23599e-07
5.23599e-07
5.23599e-07
5.23599e-07
5.23599e-07
5.23599e-07
5.23599e-07
5.23599e-07
5.23599e-07
5.23599e-07
5.23599e-07
5.23599e-07
5.23599e-07
5.23599e-07
5.23599e-07
5.23599e-07
5.23599e-07
5.23599e-07
5.23599e-07
5.23599e-07
5.23599e-07
5.23599e-07
5.23599e-07
5.23599e-07
5.23599e-07
5.23599e-07
5.23599e-07
5.23599e-07

VECTORS velocity float
2.92164e-15 1.70246e-14 -3.66696e-13
-0.265824 2.56906 3.59675
3.9255e-15 -3.05075e-15 -1.03292e-13
0.00352851 -0.0052128 -0.0331299
0.000111697 -0.0243398 0.0161291
0.00613529 -0.00336112 -0.00462238
0.0236225 0.108751 0.0913107
0.00597403 -0.0319054 -0.0117244
0.0972701 -0.08106 -0.0971367
2.99385e-13 -4.19658e-15 5.24744e-14
0.00240321 0.00372334 -0.00195883
0.00372772 -0.0286534 -0.0320348
-0.000121914 -0.0457096 -0.0216832
-0.00270049 -0.0102443 -0.00524447
-0.00188908 0.00222743 -0.0027979
0.00218364 -0.0450848 -0.000361839
0.00230413 0.00151836 -0.00216737
0.0109122 0.00562347 0.0042411
0.000312618 -0.0322978 0.0440418
0.0425711 0.00435369 -0.0355435
0.00105902 -0.0235921 0.024208
0.000483344 -0.0255905 -0.0456142
-0.0257218 0.00487813 -0.0457135
0.0211116 0.00564485 -0.0174098
0.00453301 0.00856769 0.00948299
0.000828637 -0.00302788 -0.00200063
0.00768127 0.019318 0.00795285
0.00945742 0.00230566 -0.00988371
0.010048 0.000813491 -0.00201966
0.000444077 0.00198387 0.000481292
0.00230341 0.00188498 -0.00409951
0.00122433 -0.00172405 -0.00155018
0.00135988 0.00175425 -0.00115483
0.00168879 -0.00209761 0.0072736
-7.29578e-15 3.48464e-14 -1.72291e-13
-0.000229392 0.000921582 -0.000919289
0.00219185 -0.00640734 -0.00348358
0.00114055 0.0458132 -0.0161098
0.00410974 -0.0184067 -0.0374087
1.09646e-10 -1.81225e-11 -1.10219e-11
0.000973831 0.000768364 -0.000791301
0.0139324 0.0200438 -0.00276213
0.000441723 -0.00827442 -0.00382271
-0.0029939 -0.000311496 0.0015331
0.000367138 0.00124685 -0.00038597
0.00972042 0.00486784 0.00872872
0.00941009 0.000727756 -0.00348068
9.08911e-05 0.0624891 -0.0224432
0.00519263 0.00861569 -0.00193608
0.00271081 0.00442424 -0.014411
0.000909668 0.000278669 -0.0520992
0.00631628 0.0191188 0.0304772
0.00545498 0.0215166 0.00573698
0.0031892 0.0057738 -0.00212488
0.0130619 0.00471583 -0.0109376
-0.0128802 -0.0157628 0.0147196
-0.00615004 0.00307531 -0.00802855
0.000317285 0.00245381 -0.000727848
-1.59921e-11 2.9453e-12 1.00737e-12
-0.143305 0.121021 0.133346
0.00950488 -0.00269549 0.00385279
-4.39603e-14 9.3675e-14 3.3937e-13
0.00579985 0.00210613 -0.000151791
-1.2376e-18 -3.40391e-18 1.17621e-17
0.00409852 0.000723533 -0.00161479
0.00313486 -0.00127724 -0.0373404
-0.00798212 0.00149402 -0.00428933
0.000808519 -0.0342933 -0.0320889
0.000865857 0.0459761 -0.02142
0.00792552 0.015632 0.0118732
-0.0122 0.0560643 -0.0146898
-0.000888441 0.0789017 -0.113267
0.00935417 0.00629104 -0.0094979
0.0115478 -0.0078104 -0.00457329
-0.000656229 0.0604782 -0.0140993
-0.048866 0.0342875 -0.00458826
-0.0011905 0.00134313 -0.000724613
-8.09292e-16 3.67562e-15 -1.8247e-14
-6.13184e-05 -0.00270028 0.00141888
0.000575257 -0.0490673 0.0165501
-0.000450665 0.0489999 0.0238425
0.00262787 -0.000588316 0.00253062
-0.880302 0.60018 0.955486
0.00136571 0.0323046 -0.0184221
0.00342052 0.00276475 0.00162428
-0.00014779 0.0198189 0.0493337
-0.00293997 0.00120816 -0.00076976
8.8632e-05 0.000525142 -0.000864175
4.96861e-05 -0.0511961 -0.0143037
-0.0090237 0.00528818 -0.0106166
0.0238781 0.0154382 0.0304901
0.000160282 0.025996 -0.0479138
0.0077435 -0.00352428 0.00477961
0.000555743 -0.0452403 -0.0215893
-0.000681134 -0.0472325 -0.0130405
0.00872526 -0.000210708 0.00463676
0.0112498 -0.00100579 0.00342756
0.0012633 0.0501663 -1.65143e-05
0.00399977 0.00312793 -0.00122156
0.172512 0.176596 -0.0677694
0.00452062 0.000814657 0.000946263
0.00120099 -0.0354287 0.0310228
0.00176476 0.00371664 -0.00138024
-1.01292e-06 0.048596 -0.0107617
0.009889 0.0105599 -0.00414866
8.95642e-19 5.68804e-18 1.42107e-17
-0.000519144 -0.00332551 -0.00863233
0.00732857 0.00981937 -0.000373115
0.00173251 0.00134648 -0.0036696
0.0023386 -0.0353656 0.0100312
-0.000830959 -0.00150158 0.000201908
-0.00221604 0.0495074 -0.0009912
0.00193348 -0.030787 -0.0222941
0.000186153 -0.0176344 0.0404588
0.0136338 0.00470356 -0.0115768
0.00167139 -0.048177 0.0029996
0.0283401 0.0242522 -0.00925252
0.0118153 -0.00129744 0.00154585
0.001746 0.0296944 -0.0318131
-0.00581776 0.00495656 -0.0112331
0.00328912 -0.00437859 -0.000228412
-0.0102022 0.0543175 -0.106141
-0.0373522 -0.0685379 -0.0150287
-0.00722682 0.0367991 -0.00287447
0.00123092 0.0240389 0.0230285
-0.00235237 -0.00207562 -0.00127558
-9.38413e-06 0.0497787 -0.00098238
-0.0310507 -0.0935364 -0.0436498
-0.00329248 0.024683 -0.00437212
-0.00530468 0.00274741 -0.00496772
1.03947e-14 -4.97167e-14 2.45848e-13
0.0021847 0.00753704 0.039094
0.000920505 0.00644532 0.00102311
0.00378565 -0.0182273 -0.0402178
0.000443282 0.00279536 0.00339475
0.00839117 -4.35767e-05 0.00558496
0.0068829 0.0347412 -0.00842515
-0.0162195 0.00702105 -0.0118175
0.005242 -0.000793589 -0.00277363
-0.0176539 -0.0753804 -0.220814
0.00578049 -0.000266961 0.000294073

VECTORS force float
-2.13181e-17 -1.23292e-16 -3.98902e-17
-0.0423165 -0.3303 -0.0687935
5.7715e-17 -6.4767e-18 -4.92465e-18
-1.80453e-07 -9.738e-07 6.0722e-06
-2.50245e-06 -4.03042e-06 2.83427e-06
3.87284e-07 7.46255e-07 -2.0159e-06
-0.0107923 -0.0115885 0.0181163
6.14023e-06 6.13994e-07 -2.77311e-06
0.0 0.0 -5.1365e-06
-1.60241e-15 4.96553e-17 1.36637e-16
-9.5856e-06 -1.99928e-05 -1.03531e-06
1.26087e-05 9.38204e-06 4.49702e-06
-9.09757e-08 -2.04515e-07 1.82812e-07
0.0 0.0 -5.1365e-06
1.07618e-05 7.68117e-06 -1.38484e-07
4.68706e-07 -1.08996e-05 1.46139e-06
4.30015e-07 -3.8438e-07 2.16596e-06
7.62612e-08 -1.45759e-07 -4.44098e-06
1.94888e-10 1.75412e-07 1.96266e-07
0.0 0.0 -5.1365e-06
-3.3525e-06 -6.92104e-06 1.35192e-05
3.9552e-09 -2.35275e-07 3.95033e-08
6.63042e-07 -2.84525e-06 -2.07524e-06
0.0 0.0 -5.1365e-06
0.0 0.0 -5.1365e-06
1.8698e-05 9.90219e-05 -3.43656e-05
-7.53154e-09 -1.20715e-08 9.66768e-08
3.76814e-08 1.69623e-07 1.25557e-07
2.46839e-06 -4.73925e-06 4.40136e-06
-1.05382e-05 -1.05143e-05 4.94136e-05
2.56007e-06 -3.88781e-06 -5.59013e-06
6.56039e-06 3.50972e-06 1.24481e-05
3.66245e-06 -1.05416e-05 8.20833e-06
-4.14353e-07 -4.69941e-06 2.69012e-06
-4.49986e-22 -8.47033e-22 -8.47033e-22
2.60952e-07 7.91501e-07 -3.68847e-07
6.29786e-06 -2.90116e-06 -9.79476e-08
-4.75637e-08 6.43527e-07 -4.7624e-07
-4.02984e-06 -7.02188e-06 -9.10849e-06
2.02848e-13 -2.8869e-14 -1.89256e-14
-2.85791e-06 -4.62564e-06 -8.29119e-07
-3.7896e-07 4.88652e-07 -9.46114e-07
-5.63273e-07 4.73072e-07 -5.13954e-06
-2.0638e-06 1.27322e-06 -7.72893e-07
-6.03773e-07 -9.55117e-06 9.7665e-06
-3.64763e-07 -1.42365e-06 -2.15106e-06
-1.0676e-07 9.62976e-07 6.94015e-07
0.0 0.0 -5.1365e-06
-2.33564e-06 4.45359e-07 -3.67263e-06
0.0 0.0 -5.1365e-06
8.10068e-09 -1.99208e-07 9.81908e-08
1.30236e-07 -5.70989e-06 -6.73398e-06
-4.36285e-06 -4.50647e-06 3.90024e-06
5.11881e-06 0.000324488 -1.99686e-05
3.6237e-07 -1.04889e-06 -1.17307e-07
0.0 0.0 -5.1365e-06
-4.71813e-07 -6.6708e-07 -4.39804e-06
1.05166e-05 5.85678e-06 -2.01231e-05
2.67278e-14 -5.69663e-15 1.84564e-15
-0.00767675 0.00529786 0.00723675
-9.09512e-07 -2.09124e-06 -2.9157e-06
0.0 -2.11758e-22 0.0
-5.6453e-06 -4.53007e-06 2.52422e-06
0.0 0.0 0.0
6.04839e-06 -6.2194e-06 1.19367e-05
-3.28551e-07 -1.30271e-06 -1.63837e-06
2.24301e-06 -1.87044e-05 2.24038e-05
3.16324e-08 3.31595e-07 4.37265e-07
-5.21626e-08 -1.1313e-09 -2.54163e-07
4.26307e-07 3.98594e-06 -4.21986e-06
0.0 0.0 -5.1365e-06
0.0 0.0 -5.1365e-06
4.73832e-06 -4.97636e-06 8.63203e-06
0.0 0.0 -5.1365e-06
0.0 0.0 -5.1365e-06
0.0 0.0 -5.1365e-06
0.0 0.0 -5.1365e-06
-2.43813e-19 -5.42101e-20 0.0
-4.15415e-06 2.54281e-06 -2.02925e-06
2.77534e-09 2.21684e-08 2.33517e-07
-4.48171e-08 1.6882e-07 -1.64379e-07
-3.69442e-06 3.52356e-06 -3.70793e-06
0.0117451 -0.0135176 -0.00731276
-1.76918e-07 -4.83667e-08 -6.24058e-08
-2.20119e-06 1.01498e-06 -3.93795e-06
-2.45393e-08 2.29358e-07 -4.41418e-08
2.45627e-06 -9.53545e-07 -6.70833e-06
2.75023e-07 -4.89941e-06 3.44014e-06
-2.88986e-08 -1.43899e-07 1.89498e-07
-1.21357e-07 -1.43619e-07 -4.9521e-06
0.0 0.0 -5.1365e-06
-1.4034e-06 1.5757e-06 -4.97418e-06
4.15248e-07 3.63365e-07 -3.11678e-06
-1.66104e-06 3.6104e-05 1.11554e-05
-5.41278e-07 -2.5853e-07 1.39103e-07
-2.76539e-06 -3.38564e-06 4.15988e-06
-9.79199e-07 -2.69825e-06 -3.5655e-06
-5.04015e-09 2.06762e-08 -2.90407e-07
-1.88665e-06 1.62935e-06 -2.53114e-06
0.0 0.0 -5.1365e-06
6.80104e-06 2.2217e-06 -3.87071e-06
-9.78629e-06 3.58748e-06 -2.72019e-06
-1.04165e-05 1.51777e-05 1.481e-05
-2.10971e-09 -5.88529e-08 -3.1923e-07
-1.12714e-06 7.1328e-06 2.2966e-06
-1.05879e-22 1.05879e-22 0.0
0.0 0.0 -5.1365e-06
-5.52579e-06 -3.18374e-06 1.05419e-07
2.52805e-06 3.12589e-06 -2.6833e-06
-4.5659e-08 -1.97632e-06 2.83165e-07
9.27362e-07 -2.5816e-06 -7.44057e-06
-2.806e-08 2.78241e-08 -3.32628e-07
-5.72709e-07 9.98599e-07 4.41369e-07
8.30169e-08 6.89609e-07 -1.49676e-06
-2.66165e-07 -1.80232e-06 2.44998e-06
7.13898e-07 1.65511e-05 -1.0664e-06
0.0 0.0 -5.1365e-06
-5.7855e-06 7.54169e-06 -1.19381e-05
-4.46362e-07 3.28594e-06 1.6816e-06
-1.14692e-07 6.95118e-06 -2.3379e-07
0.0 0.0 -5.1365e-06
0.00322247 -0.00452856 -0.00136225
0.0 0.0 -5.1365e-06
0.0 0.0 -5.1365e-06
-3.26679e-05 1.84113e-05 -1.59052e-05
-0.000291129 -0.000295576 0.000108095
-5.01421e-08 9.5386e-09 -3.27398e-07
0.0 0.0 -5.1365e-06
0.0 0.0 -5.1365e-06
4.71742e-06 -3.01588e-06 -8.24072e-06
1.20173e-20 -4.23516e-21 -1.69407e-21
-1.9347e-06 1.65845e-06 6.3478e-06
-7.69238e-07 -3.55235e-06 5.19733e-06
-3.65128e-07 -6.22454e-07 -8.66504e-07
1.14786e-05 -5.2151e-06 3.6919e-05
5.9085e-08 -6.17108e-07 -2.19592e-07
0.0 0.0 -5.1365e-06
0.0 0.0 -5.1365e-06
0.0 0.0 -5.1365e-06
0.0 0.0 -5.1365e-06
1.06284e-06 -2.68275e-07 -1.20483e-06
