# vtk DataFile Version 3.0
LIGGGHTS particles timestep 1000000
ASCII
DATASET POLYDATA
POINTS 183 float
0.0232969 0.0227089 0.0140134
0.0224332 0.0226403 0.0140887
0.0157666 0.0222591 0.0157841
0.0263981 0.0215915 0.00808265
0.0212477 0.0234122 0.0113918
0.024072 0.0179221 0.015802
0.0258419 0.0196469 0.0167421
0.0213049 0.0237909 0.0147752
0.0216978 0.0143226 0.0137976
0.0165405 0.0236942 0.0166499
0.019905 0.0241004 0.0126146
0.0171599 0.023987 0.0146023
0.0171725 0.0236054 0.0156755
0.0238003 0.0188995 0.015945
0.0203185 0.0214526 0.00796489
0.0250716 0.0202978 0.0166384
0.0222189 0.0214778 0.0162442
0.0185776 0.0243823 0.0138545
0.0246106 0.01939 0.0164792
0.0229396 0.0182945 0.0163361
0.0168082 0.0222601 0.0145809
0.0239572 0.0214166 0.0165119
0.0173686 0.013997 0.0137507
0.0178929 0.0175456 0.0156956
0.0174845 0.0240177 0.016589
0.025953 0.0200608 0.00730948
0.0210748 0.0199745 0.00732405
0.0186303 0.0191487 0.0159552
0.0192624 0.0223792 0.0166424
0.0231498 0.0175477 0.0156912
0.0168083 0.0238455 0.013534
0.0236856 0.0157386 0.0144655
0.0205988 0.0241698 0.0142268
0.022975 0.0203367 0.0170084
0.0224352 0.0236565 0.0139787
0.0181155 0.021666 0.0151129
0.0200797 0.0149391 0.0147543
0.0152236 0.0233109 0.0146459
0.016207 0.0216665 0.015111
0.0160415 0.0236537 0.0141621
0.0184004 0.0162969 0.0150038
0.039852 0.0190547 0.00569119
0.0202915 0.0223462 0.0166724
0.0244847 0.0201881 0.0158335
0.0235429 0.0198619 0.0158796
0.020193 0.0143297 0.0139597
0.0189708 0.014715 0.0126108
0.020124 0.0203297 0.00743557
0.0208103 0.0240615 0.0130093
0.0231979 0.0152955 0.0153071
0.0212844 0.0209865 0.0164178
0.0184414 0.0150165 0.0134035
0.0163484 0.0236654 0.0151111
0.0239983 0.019033 0.0172274
0.0201955 0.0213268 0.016235
0.0198713 0.0167878 0.00788439
0.0181633 0.0219693 0.0160673
0.0222517 0.0237533 0.0149769
0.0197435 0.0230694 0.016101
0.0239753 0.0203594 0.0166835
0.0256525 0.0177241 0.0169965
0.024646 0.021988 0.0158085
0.0225103 0.0224296 0.0163441
0.0151937 0.0230585 0.0156103
0.0240857 0.0227005 0.0158522
0.0138862 0.0222941 0.0156355
0.0157321 0.0230593 0.0134047
0.0197803 0.0238854 0.0147992
0.0195344 0.0245114 0.0136362
0.0198925 0.0234971 0.0169939
0.0176012 0.0243493 0.0137742
0.0208625 0.022643 0.0153823
0.0224581 0.0228171 0.0150772
0.0191104 0.024215 0.0166031
0.0211535 0.0237213 0.0164011
0.0247786 0.0153399 0.0092961
0.0237654 0.0152634 0.013546
0.0200432 0.0241531 0.0162438
0.0336017 0.0195831 0.00585649
0.0180905 0.0227142 0.0154048
0.0154246 0.0223495 0.0167504
0.018468 0.0228898 0.0163136
0.0174271 0.0213323 0.0162953
0.0254091 0.0175905 0.00747875
0.0274112 0.0233039 0.0123323
0.0204965 0.0232685 0.0146406
0.0136093 0.0206513 0.0164987
0.0223737 0.0214393 0.0152557
0.0188699 0.0233713 0.0170923
0.0196979 0.0146262 0.0119306
0.0200371 0.0221894 0.0157181
0.0189123 0.024099 0.0129195
0.0195024 0.0153015 0.0138909
0.023973 0.0149678 0.0127263
0.0179008 0.0207973 0.0155958
0.0183334 0.0238549 0.0160861
0.020608 0.0224399 0.00886665
0.0231295 0.0229618 0.0157489
0.0227589 0.0192514 0.0159658
0.0208435 0.0140967 0.0132299
0.0200801 0.0238388 0.0135036
0.0194335 0.0206237 0.0165232
0.024277 0.0169999 0.0154399
0.016699 0.0228991 0.0137305
0.0209598 0.0137181 0.014146
0.022326 0.0142466 0.0145722
0.0186545 0.0156135 0.0143179
0.02207 0.0232458 0.012736
0.0198269 0.0160169 0.0157822
0.019461 0.015743 0.0148934
0.0190943 0.0163634 0.00811961
0.0195997 0.0145822 0.0155706
0.0210091 0.0147061 0.0144164
0.0169631 0.0197242 0.0158921
0.0220964 0.0233375 0.0164526
0.0250784 0.0218832 0.0166322
0.0158922 0.0231195 0.0172485
0.0187901 0.0231601 0.01474
0.0169454 0.0184023 0.01591
0.0246646 0.0160996 0.0156651
0.0182014 0.014631 0.0119804
0.0161464 0.0213644 0.0160675
0.024318 0.0147888 0.011128
0.0266796 0.0226583 0.00909482
0.0232575 0.0218878 0.0157426
0.0173682 0.0238464 0.0127006
0.0220054 0.0221379 0.0146522
0.0233549 0.0166539 0.0152653
0.0216325 0.0239302 0.0134972
0.0134058 0.0215577 0.0161118
0.0192237 0.0215296 0.0161165
0.0179178 0.0223834 0.0144439
0.0192284 0.0236697 0.0139996
0.0218114 0.0223027 0.0156401
0.0217031 0.0202854 0.0169953
0.020443 0.0204212 0.0165785
0.0327957 0.0190095 0.00571077
0.018905 0.0156874 0.00883509
0.0217168 0.0231635 0.0139017
0.016464 0.0232999 0.0127861
0.0213072 0.0227269 0.0165074
0.0196692 0.0185881 0.0072152
0.0193985 0.0175068 0.00744819
0.0205679 0.0236295 0.0155713
0.01809 0.0235597 0.014148
0.0250282 0.0176298 0.0157126
0.0213525 0.0233982 0.012275
0.0160155 0.0226878 0.018399
0.0248133 0.0185848 0.0159176
0.0169002 0.0209206 0.0155488
0.0196868 0.0228839 0.0150895
0.0171667 0.0218768 0.0154331
0.0191629 0.0236757 0.0155574
0.0252045 0.0165647 0.0165059
0.0159304 0.0225663 0.0142397
0.0173999 0.0164705 0.0151193
0.019312 0.0144035 0.0134959
0.023701 0.0228015 0.0150003
0.0184454 0.0209772 0.0164148
0.0230013 0.0220417 0.0147857
0.0163615 0.0230514 0.0159056
0.0199639 0.0141291 0.0127559
0.0224716 0.0205685 0.0157085
0.0233954 0.0208493 0.0158652
0.0183355 0.0140397 0.0129855
0.0239618 0.0218513 0.0149449
0.0242745 0.0211151 0.0155285
0.0210096 0.0218811 0.0160656
0.0211499 0.0232573 0.0104492
0.0208403 0.0209352 0.00767601
0.0165165 0.022227 0.0164444
0.0190024 0.022349 0.0155882
0.0230681 0.0234056 0.0146425
0.0173268 0.0230515 0.0148551
0.0232968 0.0221132 0.016875
0.0143712 0.022947 0.0150564
0.0177339 0.0153687 0.0140161
0.0252508 0.0212436 0.0161757
0.0173069 0.0226727 0.0160243
0.0237388 0.0172177 0.0164288
0.0180298 0.0236786 0.01515
0.0148074 0.021998 0.0158873
0.0216097 0.023281 0.015581

VERTICES 183 366
1 0
1 1
1 2
1 3
1 4
1 5
1 6
1 7
1 8
1 9
1 10
1 11
1 12
1 13
1 14
1 15
1 16
1 17
1 18
1 19
1 20
1 21
1 22
1 23
1 24
1 25
1 26
1 27
1 28
1 29
1 30
1 31
1 32
1 33
1 34
1 35
1 36
1 37
1 38
1 39
1 40
1 41
1 42
1 43
1 44
1 45
1 46
1 47
1 48
1 49
1 50
1 51
1 52
1 53
1 54
1 55
1 56
1 57
1 58
1 59
1 60
1 61
1 62
1 63
1 64
1 65
1 66
1 67
1 68
1 69
1 70
1 71
1 72
1 73
1 74
1 75
1 76
1 77
1 78
1 79
1 80
1 81
1 82
1 83
1 84
1 85
1 86
1 87
1 88
1 89
1 90
1 91
1 92
1 93
1 94
1 95
1 96
1 97
1 98
1 99
1 100
1 101
1 102
1 103
1 104
1 105
1 106
1 107
1 108
1 109
1 110
1 111
1 112
1 113
1 114
1 115
1 116
1 117
1 118
1 119
1 120
1 121
1 122
1 123
1 124
1 125
1 126
1 127
1 128
1 129
1 130
1 131
1 132
1 133
1 134
1 135
1 136
1 137
1 138
1 139
1 140
1 141
1 142
1 143
1 144
1 145
1 146
1 147
1 148
1 149
1 150
1 151
1 152
1 153
1 154
1 155
1 156
1 157
1 158
1 159
1 160
1 161
1 162
1 163
1 164
1 165
1 166
1 167
1 168
1 169
1 170
1 171
1 172
1 173
1 174
1 175
1 176
1 177
1 178
1 179
1 180
1 181
1 182

POINT_DATA 183
SCALARS id int 1
LOOKUP_TABLE default
1
2
4
5
6
7
8
9
10
11
12
13
14
15
16
17
18
19
20
21
22
23
24
25
26
27
29
30
31
32
34
35
36
37
38
39
40
41
42
43
44
45
46
47
48
49
50
51
52
53
54
55
57
58
59
60
61
62
63
64
65
66
68
69
70
71
72
73
74
75
76
77
78
79
80
81
82
83
84
85
86
87
88
89
90
91
92
93
94
95
96
97
98
99
100
101
102
103
104
105
106
107
108
109
110
111
112
113
114
115
116
117
118
119
120
121
122
123
124
125
126
127
128
129
130
131
132
133
134
135
136
137
138
139
140
141
142
143
144
145
146
147
148
149
150
151
152
153
154
155
156
157
158
159
160
161
162
163
164
165
166
167
168
169
170
171
173
174
175
176
177
178
179
180
181
182
183
184
185
187
188
189
190

SCALARS type int 1
LOOKUP_TABLE default
1
1
1
1
1
1
1
1
1
1
1
1
1
1
1
1
1
1
1
1
1
1
1
1
1
1
1
1
1
1
1
1
1
1
1
1
1
1
1
1
1
1
1
1
1
1
1
1
1
1
1
1
1
1
1
1
1
1
1
1
1
1
1
1
1
1
1
1
1
1
1
1
1
1
1
1
1
1
1
1
1
1
1
1
1
1
1
1
1
1
1
1
1
1
1
1
1
1
1
1
1
1
1
1
1
1
1
1
1
1
1
1
1
1
1
1
1
1
1
1
1
1
1
1
1
1
1
1
1
1
1
1
1
1
1
1
1
1
1
1
1
1
1
1
1
1
1
1
1
1
1
1
1
1
1
1
1
1
1
1
1
1
1
1
1
1
1
1
1
1
1
1
1
1
1
1
1
1
1
1
1
1
1

SCALARS radius float 1
LOOKUP_TABLE default
0.0005
0.0005
0.0005
0.0005
0.0005
0.0005
0.0005
0.0005
0.0005
0.0005
0.0005
0.0005
0.0005
0.0005
0.0005
0.0005
0.0005
0.0005
0.0005
0.0005
0.0005
0.0005
0.0005
0.0005
0.0005
0.0005
0.0005
0.0005
0.0005
0.0005
0.0005
0.0005
0.0005
0.0005
0.0005
0.0005
0.0005
0.0005
0.0005
0.0005
0.0005
0.0005
0.0005
0.0005
0.0005
0.0005
0.0005
0.0005
0.0005
0.0005
0.0005
0.0005
0.0005
0.0005
0.0005
0.0005
0.0005
0.0005
0.0005
0.0005
0.0005
0.0005
0.0005
0.0005
0.0005
0.0005
0.0005
0.0005
0.0005
0.0005
0.0005
0.0005
0.0005
0.0005
0.0005
0.0005
0.0005
0.0005
0.0005
0.0005
0.0005
0.0005
0.0005
0.0005
0.0005
0.0005
0.0005
0.0005
0.0005
0.0005
0.0005
0.0005
0.0005
0.0005
0.0005
0.0005
0.0005
0.0005
0.0005
0.0005
0.0005
0.0005
0.0005
0.0005
0.0005
0.0005
0.0005
0.0005
0.0005
0.0005
0.0005
0.0005
0.0005
0.0005
0.0005
0.0005
0.0005
0.0005
0.0005
0.0005
0.0005
0.0005
0.0005
0.0005
0.0005
0.0005
0.0005
0.0005
0.0005
0.0005
0.0005
0.0005
0.0005
0.0005
0.0005
0.0005
0.0005
0.0005
0.0005
0.0005
0.0005
0.0005
0.0005
0.0005
0.0005
0.0005
0.0005
0.0005
0.0005
0.0005
0.0005
0.0005
0.0005
0.0005
0.0005
0.0005
0.0005
0.0005
0.0005
0.0005
0.0005
0.0005
0.0005
0.0005
0.0005
0.0005
0.0005
0.0005
0.0005
0.0005
0.0005
0.0005
0.0005
0.0005
0.0005
0.0005
0.0005
0.0005
0.0005
0.0005
0.0005
0.0005
0.0005

SCALARS mass float 1
LOOKUP_TABLE default
5.23599e-07
5.23599e-07
5.23599e-07
5.23599e-07
5.23599e-07
5.23599e-07
5.23599e-07
5.23599e-07
5.23599e-07
5.23599e-07
5.23599e-07
5.23599e-07
5.23599e-07
5.23599e-07
5.23599e-07
5.23599e-07
5.23599e-07
5.23599e-07
5.23599e-07
5.23599e-07
5.23599e-07
5.23599e-07
5.23599e-07
5.23599e-07
5.23599e-07
5.23599e-07
5.23599e-07
5.23599e-07
5.23599e-07
5.23599e-07
5.23599e-07
5.23599e-07
5.23599e-07
5.23599e-07
5.23599e-07
5.23599e-07
5.23599e-07
5.23599e-07
5.23599e-07
5.23599e-07
5.23599e-07
5.23599e-07
5.23599e-07
5.23599e-07
5.23599e-07
5.23599e-07
5.23599e-07
5.23599e-07
5.23599e-07
5.23599e-07
5.23599e-07
5.23599e-07
5.23599e-07
5.23599e-07
5.23599e-07
5.23599e-07
5.23599e-07
5.23599e-07
5.23599e-07
5.23599e-07
5.23599e-07
5.23599e-07
5.23599e-07
5.23599e-07
5.23599e-07
5.23599e-07
5.23599e-07
5.23599e-07
5.23599e-07
5.23599e-07
5.23599e-07
5.23599e-07
5.23599e-07
5.23599e-07
5.23599e-07
5.23599e-07
5.23599e-07
5.23599e-07
5.23599e-07
5.23599e-07
5.23599e-07
5.23599e-07
5.23599e-07
5.23599e-07
5.23599e-07
5.23599e-07
5.23599e-07
5.23599e-07
5.23599e-07
5.23599e-07
5.23599e-07
5.23599e-07
5.23599e-07
5.23599e-07
5.23599e-07
5.23599e-07
5.23599e-07
5.23599e-07
5.23599e-07
5.23599e-07
5.23599e-07
5.23599e-07
5.23599e-07
5.23599e-07
5.23599e-07
5.23599e-07
5.23599e-07
5.23599e-07
5.23599e-07
5.23599e-07
5.23599e-07
5.23599e-07
5.23599e-07
5.23599e-07
5.23599e-07
5.23599e-07
5.23599e-07
5.23599e-07
5.23599e-07
5.23599e-07
5.23599e-07
5.23599e-07
5.23599e-07
5.23599e-07
5.23599e-07
5.23599e-07
5.23599e-07
5.23599e-07
5.23599e-07
5.23599e-07
5.23599e-07
5.23599e-07
5.23599e-07
5.23599e-07
5.23599e-07
5.23599e-07
5.23599e-07
5.23599e-07
5.23599e-07
5.23599e-07
5.23599e-07
5.23599e-07
5.23599e-07
5.23599e-07
5.23599e-07
5.23599e-07
5.23599e-07
5.23599e-07
5.23599e-07
5.23599e-07
5.23599e-07
5.23599e-07
5.23599e-07
5.23599e-07
5.23599e-07
5.23599e-07
5.23599e-07
5.23599e-07
5.23599e-07
5.23599e-07
5.23599e-07
5.23599e-07
5.23599e-07
5.23599e-07
5.23599e-07
5.23599e-07
5.23599e-07
5.23599e-07
5.23599e-07
5.23599e-07
5.23599e-07
5.23599e-07
5.23599e-07
5.23599e-07
5.23599e-07
5.23599e-07
5.23599e-07
5.23599e-07
5.23599e-07
5.23599e-07
5.23599e-07
5.23599e-07
5.23599e-07

VECTORS velocity float
0.00177864 -0.000289822 -0.000841688
0.00520436 0.00182652 -0.00477518
0.00427079 -0.0292233 0.0172518
0.000420112 -0.0411339 -0.0315586
0.00182769 -0.00253239 -0.0329701
0.0038286 -0.00297684 -0.014044
-0.0184716 -0.0256106 -0.0349957
-0.00373289 -0.00230874 0.00520891
-0.000470375 0.00113096 -0.00446996
0.00397936 0.0105088 0.0633273
0.000782812 0.00402156 -0.00101011
-0.00362824 0.005719 -0.00383507
0.0169989 -0.000610445 0.0247354
0.0178366 -0.00928935 -0.00642736
0.00124867 -0.0397383 -0.0254896
0.0306373 0.00812813 -0.0080768
0.00104636 -0.00542228 -0.0199682
-0.041381 -0.00389583 0.0189134
0.0100067 -0.0110072 0.0215346
0.0094646 0.00330687 0.00560671
0.00137978 0.0140243 -0.0227011
-0.0482008 -0.0972458 0.0695247
0.000250939 -0.00602303 0.0207044
0.00163281 0.0156637 0.00917836
-0.00381002 -0.000475295 0.00254147
0.000122257 -0.0506406 -0.0142904
0.0307653 -1.93978 9.16184
-1.39474e-06 0.049755 -0.00152864
0.0067687 0.0125064 0.00094515
0.00686315 0.0116033 0.00686828
-0.0636904 0.0585296 -0.0228557
-0.00917472 0.00218709 -0.0110311
-0.00461667 0.000595353 0.000992577
0.0385578 -0.0458655 0.0693041
0.00166509 -0.000348047 -0.00311467
0.0029616 0.0315791 -0.0244085
0.00226278 -0.0008115 0.00280681
-0.100092 -0.0198635 -0.0205122
0.00975843 0.0122539 -0.00775298
-0.00706206 -0.0622988 -0.0140682
0.000838099 0.00464222 -0.00100562
-3.57647e-15 1.70428e-14 -8.42597e-14
0.0107407 0.00909713 -0.0102118
0.0143082 -0.00339566 -0.00797868
0.0149719 -0.000718183 -0.00443177
0.00864759 0.00451947 0.0097251
0.00788871 0.00638489 0.011995
0.000850196 -0.0484961 -0.0168956
-0.000953332 -8.33136e-05 0.000206892
0.0107446 -0.0252081 0.0217923
-0.00063972 0.0106994 -0.00125793
0.00519198 0.00736351 0.0099091
0.0061794 -0.0452482 -0.001083
-0.0685747 -0.0468183 -0.0122275
-0.0026427 0.0124538 -0.00540206
0.19789 -0.245178 2.3619
0.0059958 -0.00205034 -0.00759582
-0.00134155 6.71102e-05 0.000906503
0.00848575 0.0103009 -0.0039791
0.0470353 -0.00382933 -0.00819862
-0.0358006 -0.0182735 -0.02828
-0.0012545 -0.00897915 0.00155725
-0.00280045 -0.00521463 0.00422021
-0.00520028 -0.0322334 0.0207008
-0.00241201 -0.00316489 1.80998e-05
-0.00373298 -0.00244937 0.0113069
0.00646089 0.0027674 0.0115351
-0.00402585 0.00507141 -0.0061265
-0.0101184 -0.000432729 -0.00156643
0.0222847 0.0106922 -0.00655691
-0.0688468 0.0377827 0.0289782
-0.0040824 0.00752958 -0.00776388
0.00195679 0.00177681 -0.00454399
0.00217767 -0.00176954 -0.014897
-0.00549898 -0.00656939 -0.0235567
0.00348462 -0.0208828 0.0381084
0.00314257 0.0231035 0.038917
0.0017895 -0.00780953 -0.0217887
-6.90472e-08 8.39538e-08 5.55645e-09
0.00403374 -0.00140984 -0.00457264
-0.0239281 -0.0208053 -0.0250619
0.00593185 -0.00217017 -0.00768605
-0.00778628 0.0152527 -0.00244985
-0.0025338 -0.056059 0.0137507
0.00555741 0.00613369 -0.0467487
-0.00485946 0.0157676 -0.0249812
-0.00184431 0.0248258 -0.00978799
0.015911 0.00154211 -0.0114254
0.0127185 -0.0012431 -0.011436
0.00345559 -0.00265479 0.00579987
-0.00469801 0.00603037 -0.00585019
-0.000103014 0.00239293 -0.00121763
0.0156678 0.00877339 0.0148838
0.00203002 0.0174471 0.0538076
-0.00188961 0.0360654 -0.0150553
-0.00396039 0.000153728 0.000683347
-9.62778e-07 -0.0272852 -0.0357224
-0.00103175 0.000890061 -0.00114298
0.0135634 0.0072113 -0.00440821
0.00847584 0.00244325 0.00398842
-0.00546939 0.000899822 -0.00165373
0.00673465 0.011057 -0.0186391
0.0159105 -0.00451836 -0.000676338
-0.00276972 0.0360111 -0.0333301
0.00580771 -3.37938e-05 0.00297092
0.00355196 0.00598343 -0.00509889
0.00975661 0.00518266 0.00675491
-5.74453e-05 4.68579e-05 -0.000890991
0.0100796 -0.00735294 0.013902
0.00705795 0.0110674 0.00634262
0.203529 -0.0704644 1.15063
-0.0258082 -0.00915917 -0.0219769
0.004581 0.00180424 0.0160035
1.48661e-06 0.049104 -0.00781432
-0.00172959 0.00119424 0.000408499
0.00146564 -0.00307447 0.00266066
0.0102641 -0.0313444 -0.0222802
-2.92749e-05 0.00702456 0.00192617
0.00111164 0.0493519 0.00786529
-0.0215218 -0.0231277 -0.0246036
0.00872518 0.000652008 0.0119204
-0.0179471 0.0149985 -0.00428925
0.000143527 -0.00680594 0.0527799
0.00315741 -0.0100744 -0.0149253
0.017798 0.00624496 -0.0292383
-0.0209032 -0.174056 -0.0391182
0.00662012 0.00371243 -0.00886945
0.00939706 0.00423068 0.000654237
0.00218409 -0.00149271 -0.00311093
-0.00559144 -0.00370244 0.00316485
-0.00155172 0.0140353 -0.00252769
0.000696022 0.0258612 -0.027196
-0.0100266 0.00370564 -0.00193151
0.00238076 0.00803935 -0.00399691
-0.00533096 -0.0122232 -0.022228
0.00849583 0.0127963 -0.0043701
7.81448e-08 -1.09625e-07 2.56334e-08
-0.0315987 -0.030372 0.0102017
0.00618738 -0.000995817 -0.00879759
0.0125029 0.0051332 0.00705247
-0.0040102 0.00602525 -0.000730533
0.000769203 -0.0495124 0.00594092
0.0178401 -0.213625 -0.200938
0.0027164 -0.0010605 -0.0161363
0.00114654 -7.33513e-05 1.67342e-05
0.0103951 -0.00277104 0.00455982
0.00386109 0.00168371 -0.0120406
0.0359503 -0.0891589 0.0031805
0.00721178 -0.00264978 -0.0036015
-0.00737887 0.00676049 -0.00308981
0.00891553 0.00800759 -0.0134209
0.00111277 0.00649014 0.000418687
-0.00193234 0.00326432 0.00143269
-0.0250267 -0.0368901 -0.0226823
0.0126131 0.0158245 -0.0166412
0.0152551 -0.0144096 -0.0122527
0.00742445 0.0107293 0.014522
-0.000490654 -0.000387405 -0.000895648
-0.00507984 0.015722 -0.00618423
0.00867276 0.0109652 -0.0125039
-0.00581328 -0.0247777 0.0412178
0.0028881 -0.00420855 0.00856222
0.0111274 0.00384451 -0.00212432
0.0165931 -0.00807418 0.000739693
-0.00422431 0.00481515 -0.0100358
0.00556232 -0.00405458 -0.000881503
0.0119005 -0.00333106 -0.00191077
-0.00432414 0.0107054 -0.00554512
0.000786887 -0.00840039 -0.0448029
0.00524365 -0.0404103 -0.0186813
0.0152733 -0.00458281 0.0370762
0.006077 0.00825907 -0.00770393
-0.000264161 0.00128064 -0.00121275
-0.00101885 0.00937348 -0.00784497
-0.0260096 -0.0150948 0.0334432
-0.00327403 0.000280302 0.0123716
0.00816728 0.00458569 0.0114261
0.00572735 -0.0104067 0.0130719
-0.00363027 0.0132483 -0.00604894
0.0184957 -0.00688587 -0.0103997
0.00125314 0.00282045 -0.00308638
0.00649404 -0.00465468 -0.00176286
-0.00378275 0.0106981 0.000449752

VECTORS force float
3.70679e-06 -8.20821e-06 1.80138e-05
1.82123e-07 -2.61895e-05 2.81086e-05
3.96451e-05 -0.000168065 9.44747e-05
-1.66926e-08 -1.88639e-07 1.13228e-07
-5.47321e-06 7.46913e-06 3.84121e-05
0.0 0.0 -5.1365e-06
0.0 0.0 -5.1365e-06
-6.85571e-05 -8.62976e-06 -1.99776e-05
0.0 0.0 -5.1365e-06
-1.72009e-05 -1.15306e-05 -5.62351e-05
1.37801e-05 3.51575e-07 3.56604e-07
-0.000124045 -2.60668e-05 -8.35285e-05
0.0 0.0 -5.1365e-06
1.5711e-05 -0.000149999 -9.44476e-06
-7.44266e-07 -3.01702e-06 -4.6843e-06
0.0 0.0 -5.1365e-06
0.0 0.0 -5.1365e-06
0.000203733 -0.000167213 -0.000200257
0.0 0.0 -5.1365e-06
0.0 0.0 -5.1365e-06
4.53368e-05 -0.00011533 -9.93835e-05
0.0 0.0 -5.1365e-06
0.0 0.0 -5.1365e-06
-3.28149e-08 4.93689e-07 -1.65037e-06
1.73334e-05 8.82154e-06 5.23e-06
3.23322e-09 -1.31568e-07 1.95462e-07
-0.00521425 -0.0635091 -0.074393
3.29433e-09 -1.87935e-08 -2.88269e-07
4.25908e-06 -4.86951e-06 -6.19702e-06
-5.95259e-07 1.41856e-06 8.18357e-07
-7.3258e-05 -0.000909323 0.000132409
0.0 0.0 -5.1365e-06
-3.10418e-05 1.38176e-05 -2.21621e-05
0.0 0.0 -5.1365e-06
-3.62833e-06 2.48222e-06 -1.0664e-06
-4.54143e-08 5.42109e-07 -1.80197e-06
0.0 0.0 -5.1365e-06
5.27918e-05 -4.17802e-05 -0.000293968
-6.56993e-05 2.97224e-05 -5.16672e-05
-9.17283e-05 1.74955e-05 -0.000286319
0.0 0.0 -5.1365e-06
1.87353e-19 2.98579e-20 -1.69407e-21
-6.65176e-08 2.82112e-10 -4.91891e-06
8.09324e-06 5.87047e-05 -2.41682e-05
-6.39147e-05 1.4643e-05 2.51596e-05
-6.20049e-06 -2.33219e-05 -1.00019e-05
4.50139e-06 1.74975e-05 8.86259e-06
-3.72562e-06 3.97163e-06 3.58212e-07
8.13812e-06 -4.10821e-06 1.60431e-05
0.0 0.0 -5.1365e-06
-7.19398e-07 1.09957e-06 -5.48349e-06
-2.60836e-06 4.05982e-06 -4.64473e-06
8.88837e-05 -2.7179e-05 0.000263582
0.0 0.0 -5.1365e-06
-7.31691e-06 -1.22269e-05 6.52638e-06
0.00650548 -0.266204 -0.267502
1.03001e-05 -1.57066e-05 5.55291e-06
-4.52257e-05 -1.29682e-05 3.27227e-05
0.0 0.0 -5.1365e-06
0.0 0.0 -5.1365e-06
0.0 0.0 -5.1365e-06
-3.49764e-05 -3.56331e-05 1.34164e-05
0.0 0.0 -5.1365e-06
0.000237112 0.000133682 -0.000721157
-3.06935e-05 -3.41927e-05 8.33617e-06
-1.95826e-05 -4.18689e-05 7.68482e-05
5.70267e-05 -0.000165771 -0.000174521
-3.54688e-05 1.25661e-06 -1.28829e-05
6.55127e-05 -6.61342e-06 -2.29797e-05
0.0 0.0 -5.1365e-06
0.000144773 -0.000508313 -0.000533753
5.47915e-07 7.42982e-07 -5.09346e-06
-8.91793e-06 1.78234e-05 -4.02312e-06
0.0 0.0 -5.1365e-06
0.0 0.0 -5.1365e-06
6.20609e-05 -0.000145641 1.09421e-05
-4.75968e-07 8.09305e-07 1.02164e-06
0.0 0.0 -5.1365e-06
2.32895e-12 -2.60881e-12 5.07189e-14
-4.37527e-05 3.36322e-05 -6.84158e-06
0.0 0.0 -5.1365e-06
1.4648e-05 4.60188e-06 8.30193e-06
-1.79206e-06 -4.6559e-06 -4.5607e-06
-7.64876e-06 -3.35254e-05 7.34845e-06
-8.81275e-05 -0.00014116 3.72468e-05
2.28295e-05 -9.26725e-05 -5.3236e-06
0.0 0.0 -5.1365e-06
0.000119517 9.00232e-05 6.76411e-05
-2.93756e-07 8.38806e-07 -2.18389e-06
4.18256e-06 -5.62888e-07 2.30394e-06
2.54161e-08 9.24761e-06 -4.63045e-09
-1.51475e-08 2.07205e-07 -2.59178e-07
1.11192e-05 2.23922e-05 -2.67643e-05
8.07824e-08 -2.39076e-07 1.35387e-06
1.56782e-06 -4.464e-07 -2.17481e-06
4.79487e-06 1.57382e-06 2.4078e-06
-4.14393e-07 7.75426e-07 1.4402e-06
-2.00888e-05 8.26192e-06 -1.17102e-05
-1.1385e-05 -1.00099e-05 1.03867e-05
9.21295e-06 -1.36089e-06 -1.21853e-06
7.41191e-07 9.09345e-06 -2.51987e-05
0.0 0.0 -5.1365e-06
-2.30452e-06 -4.83858e-07 1.39256e-05
0.000161622 -0.000495801 -0.000301827
8.78828e-06 -2.94436e-07 -3.1251e-06
-2.77283e-07 1.95194e-07 -4.80473e-06
-2.45142e-05 4.08994e-05 2.05058e-05
2.7368e-05 -8.9832e-06 3.62501e-06
-5.42375e-06 1.28216e-05 3.31654e-05
-1.99949e-05 -3.65158e-06 9.0739e-06
-0.0393402 -0.119004 -0.0256303
0.0 0.0 -5.1365e-06
0.0 0.0 -5.1365e-06
0.0 0.0 -5.1365e-06
6.5e-07 -7.47116e-06 2.73871e-06
8.32453e-07 4.82041e-05 -2.48969e-05
0.0 0.0 -5.1365e-06
0.0 0.0 -5.1365e-06
-8.56214e-07 -1.03336e-07 1.69794e-06
0.0 0.0 -5.1365e-06
2.79496e-06 -7.81916e-06 3.25446e-06
0.0 0.0 -5.1365e-06
-1.51666e-08 2.00172e-07 8.36584e-08
-9.8005e-06 2.54088e-05 2.16119e-05
0.0 0.0 -5.1365e-06
0.0 0.0 -5.1365e-06
1.49882e-06 -3.09681e-05 4.5022e-05
0.0 0.0 -5.1365e-06
-1.08768e-06 9.34651e-06 1.47749e-05
1.07077e-07 1.3618e-06 -4.21742e-06
4.21843e-06 -4.07957e-06 -1.34598e-06
2.53915e-05 3.49848e-05 -3.14807e-05
8.52743e-05 -6.4547e-05 0.000147608
-6.82873e-06 -1.29064e-05 -2.37057e-06
0.0 0.0 -5.1365e-06
-9.08054e-06 -3.49327e-07 1.89142e-05
-2.62577e-12 4.05494e-12 -1.13647e-12
-0.00190142 -0.00353905 -0.00256012
-3.19872e-06 4.62276e-07 9.49498e-06
0.000157367 3.81772e-05 4.3735e-05
3.85421e-06 -1.29645e-05 -6.71383e-06
-1.5862e-07 -6.25371e-07 -2.97481e-08
-0.0059867 -0.0316018 -0.0148082
0.0 0.0 -5.1365e-06
-8.66298e-06 3.06331e-05 -4.0749e-06
-2.83568e-07 5.65394e-07 -2.0003e-06
1.54528e-05 1.16721e-06 2.40393e-05
0.0 0.0 -5.1365e-06
0.0 0.0 -5.1365e-06
-4.17426e-06 -3.589e-05 5.31541e-06
0.0 0.0 -5.1365e-06
4.17967e-06 3.5892e-05 -1.56505e-05
4.20652e-06 -3.43458e-07 -5.11238e-06
0.0 0.0 -5.1365e-06
0.000162044 -0.000537629 0.000370868
-9.29047e-07 -1.69885e-06 4.20452e-06
8.36637e-06 -7.02015e-06 -9.71119e-06
-1.87097e-05 1.50774e-05 -2.16077e-06
5.28047e-07 1.36887e-06 -3.16022e-06
2.70277e-05 4.34784e-05 8.73051e-06
-3.83823e-05 0.000558215 -0.000332042
6.49542e-06 -8.23501e-07 1.24609e-06
6.62843e-05 3.55475e-05 -1.27395e-05
7.23126e-05 1.29504e-05 -1.7749e-06
1.09031e-06 2.50914e-06 -2.40211e-06
-3.79425e-05 0.000121374 -3.64285e-05
-4.16621e-05 5.4269e-05 -1.32597e-05
-5.58156e-07 -1.51443e-08 -1.11592e-05
5.40674e-06 4.83106e-06 3.12284e-05
-2.27357e-06 -1.20869e-05 -3.49873e-06
9.05248e-05 -0.000346775 0.000299749
1.65443e-05 -2.813e-05 4.52041e-06
-2.56587e-05 1.93864e-05 2.22776e-06
2.04907e-05 -6.27133e-05 -8.16244e-05
0.0 0.0 -5.1365e-06
0.00010205 -2.58615e-05 -5.49481e-05
8.65205e-06 1.37899e-05 1.84882e-05
-7.79338e-06 0.000106466 -7.42691e-05
-5.98168e-06 -6.92861e-06 5.56307e-06
4.01539e-07 -1.62398e-07 -4.40313e-06
-5.72926e-05 6.4525e-05 -2.06367e-05
-3.90511e-05 -4.09721e-05 9.21199e-06
-7.30676e-07 -1.20192e-06 -6.60968e-06
