# vtk DataFile Version 3.0
LIGGGHTS particles timestep 5200000
ASCII
DATASET POLYDATA
POINTS 132 float
0.0301751 0.0199402 0.00583053
0.0333746 0.0160127 0.00844286
0.0311969 0.0190595 0.00570718
0.0367706 0.0206292 0.0154416
0.0336702 0.017031 0.00768857
0.0328017 0.0148555 0.0106741
0.0331204 0.0152178 0.00954855
0.02203 0.0237565 0.0138407
0.0232872 0.00229723 0.0435187
0.0302591 0.0185329 0.0057867
0.0290551 0.0225639 0.00896146
0.0287061 0.0213363 0.00783712
0.0202505 0.0240846 0.0129156
0.0264971 0.0148325 0.0121282
0.0186534 0.0139805 0.0130054
0.0240032 0.0157121 0.0155712
0.0198952 0.0226497 0.0142563
0.0247798 0.0208501 0.0155615
0.019564 0.0174561 0.0156551
0.0283385 0.0198976 0.00731637
0.0362165 0.0225479 0.0140281
0.0267614 0.0147576 0.011315
0.0254271 0.017878 0.0157801
0.0494639 0.0184482 0.00609482
-0.00507772 0.00914663 0.0455337
0.0202261 0.0152047 0.0137331
0.0231956 0.0229583 0.00965311
0.0255611 0.0196436 0.0159945
0.020237 0.0238593 0.0138965
0.014814 0.0191061 0.0175737
0.0184322 0.0235643 0.0126025
0.0192011 0.0141207 0.0138556
0.0228559 0.0219071 0.00850589
0.0397699 0.0198563 0.00585678
0.0244702 0.0166271 0.0162058
0.0161043 0.0148943 0.0131082
0.0310943 0.0192145 0.0158161
0.0294336 0.0232436 0.0103942
0.0237925 0.0192214 0.00595071
0.0161499 0.0128309 0.0216188
0.0215068 0.0152523 0.00948178
0.0179826 0.0146851 0.0145874
0.0210287 0.0230547 0.0152176
0.0183146 0.023367 0.0110733
0.0214476 0.0147445 0.012605
0.0205771 0.0168953 0.0153849
0.0249643 0.0190962 0.016707
0.0206957 0.0137625 0.0139858
0.0297177 0.023366 0.0118716
0.0204255 0.0241249 0.0169528
0.0177372 0.0239392 0.0163286
0.0195854 0.0214534 0.0184137
0.0193565 0.0242646 0.0133296
0.0184072 0.0210595 0.0181899
0.0329708 0.0200808 0.00595653
0.0212305 0.0239895 0.0132808
0.0239395 0.0202041 0.00583859
0.0213023 0.0157664 0.0087252
0.0160453 0.0192141 0.0213549
0.0225637 0.0195823 0.0058395
0.0271846 0.0153709 0.00928665
0.033703 0.0194141 0.00581744
0.0273811 0.0160456 0.00842735
0.0205663 0.0157692 0.0145352
0.0209482 0.0182531 0.0131409
0.0354806 0.0233063 0.0106419
0.0377192 0.0166923 0.0150866
0.0221844 0.0143467 0.0144956
0.0234375 0.0227433 0.00923619
0.0167024 0.0142166 0.013563
0.0223454 0.0229675 0.0152182
0.0174955 0.0233322 0.0111342
0.0172345 0.0240482 0.0131932
0.0221088 0.0160098 0.016248
0.0389148 0.0189256 0.00570476
0.0234221 0.0229918 0.0151087
0.0341835 0.0193172 0.00734209
0.0317848 0.0163843 0.0148699
0.0257632 0.0187176 0.0159389
0.0237959 0.0232823 0.0121971
0.0308135 0.020588 0.0155004
0.0164741 0.0237917 0.0137897
0.0325237 0.014803 0.0120252
0.022054 0.0182305 0.00727153
0.0203357 0.0143261 0.0132317
0.0244236 0.0216551 0.0160852
0.0209578 0.0149732 0.0101985
0.0216655 0.0168609 0.00776275
0.0301447 0.022818 0.0135564
0.0229349 0.0165566 0.0161065
0.0233208 0.0149203 0.0148413
0.0348216 0.0219106 0.00824194
0.0381621 0.0152951 0.0135869
0.0196757 0.0234055 0.012463
0.0243873 0.0178677 0.0166915
0.0174639 0.0240362 0.0141987
0.0234 0.0231844 0.0103761
0.0209106 0.0147033 0.0142625
0.0217876 0.0228913 0.0175344
0.0206627 0.0147514 0.0113028
0.0198337 0.0163285 0.0150157
0.0327934 0.019013 0.00570964
0.0191239 0.0229069 0.0169733
0.0182625 0.0240056 0.0134836
0.0235939 0.0208174 0.0166175
0.0242825 0.0223038 0.0150731
0.0189525 0.0207493 0.0157634
0.0350644 0.0225909 0.00909479
0.0215636 0.0155557 0.0144318
0.0346081 0.021064 0.00777524
0.0235597 0.0221189 0.00865311
0.0255901 0.020535 0.0156655
0.0280456 0.0176433 0.00743038
0.0174411 0.0139485 0.0141813
0.0248855 0.0202745 0.0165454
0.031413 0.017852 0.0156363
0.0196344 0.0215829 0.0164328
0.0214555 0.016475 0.0151365
0.0320665 0.0154858 0.0138794
0.019006 0.0234602 0.0117398
0.0156954 0.0234761 0.0143321
0.0192045 0.0235259 0.0141247
0.0186751 0.0220555 0.0178913
0.0214758 0.0143277 0.013513
0.0381686 0.0197868 0.00591052
0.0176836 0.0141078 0.0132225
0.028037 0.0186055 0.00719984
0.020538 0.0145098 0.0122665
0.019082 0.0196188 0.0159087
0.0192748 0.0223209 0.0149769
0.0220557 0.0151446 0.0136319
0.0208911 0.0179718 0.0158171

VERTICES 132 264
1 0
1 1
1 2
1 3
1 4
1 5
1 6
1 7
1 8
1 9
1 10
1 11
1 12
1 13
1 14
1 15
1 16
1 17
1 18
1 19
1 20
1 21
1 22
1 23
1 24
1 25
1 26
1 27
1 28
1 29
1 30
1 31
1 32
1 33
1 34
1 35
1 36
1 37
1 38
1 39
1 40
1 41
1 42
1 43
1 44
1 45
1 46
1 47
1 48
1 49
1 50
1 51
1 52
1 53
1 54
1 55
1 56
1 57
1 58
1 59
1 60
1 61
1 62
1 63
1 64
1 65
1 66
1 67
1 68
1 69
1 70
1 71
1 72
1 73
1 74
1 75
1 76
1 77
1 78
1 79
1 80
1 81
1 82
1 83
1 84
1 85
1 86
1 87
1 88
1 89
1 90
1 91
1 92
1 93
1 94
1 95
1 96
1 97
1 98
1 99
1 100
1 101
1 102
1 103
1 104
1 105
1 106
1 107
1 108
1 109
1 110
1 111
1 112
1 113
1 114
1 115
1 116
1 117
1 118
1 119
1 120
1 121
1 122
1 123
1 124
1 125
1 126
1 127
1 128
1 129
1 130
1 131

POINT_DATA 132
SCALARS id int 1
LOOKUP_TABLE default
1
2
4
5
7
8
10
11
12
13
15
16
19
20
21
22
23
24
25
26
27
29
30
31
34
35
36
37
40
41
42
43
44
45
46
48
49
50
52
53
54
55
58
59
60
61
62
63
65
66
68
71
72
74
75
76
78
79
81
82
83
84
85
86
87
89
90
91
92
95
97
98
102
103
105
107
108
109
110
112
113
114
115
118
120
122
123
124
125
126
127
128
129
133
134
135
136
138
139
140
141
142
143
144
147
148
149
151
153
154
155
156
157
158
160
161
163
164
167
169
170
171
173
174
175
178
181
182
183
185
189
190

SCALARS type int 1
LOOKUP_TABLE default
1
1
1
1
1
1
1
1
1
1
1
1
1
1
1
1
1
1
1
1
1
1
1
1
1
1
1
1
1
1
1
1
1
1
1
1
1
1
1
1
1
1
1
1
1
1
1
1
1
1
1
1
1
1
1
1
1
1
1
1
1
1
1
1
1
1
1
1
1
1
1
1
1
1
1
1
1
1
1
1
1
1
1
1
1
1
1
1
1
1
1
1
1
1
1
1
1
1
1
1
1
1
1
1
1
1
1
1
1
1
1
1
1
1
1
1
1
1
1
1
1
1
1
1
1
1
1
1
1
1
1
1

SCALARS radius float 1
LOOKUP_TABLE default
0.0005
0.0005
0.0005
0.0005
0.0005
0.0005
0.0005
0.0005
0.0005
0.0005
0.0005
0.0005
0.0005
0.0005
0.0005
0.0005
0.0005
0.0005
0.0005
0.0005
0.0005
0.0005
0.0005
0.0005
0.0005
0.0005
0.0005
0.0005
0.0005
0.0005
0.0005
0.0005
0.0005
0.0005
0.0005
0.0005
0.0005
0.0005
0.0005
0.0005
0.0005
0.0005
0.0005
0.0005
0.0005
0.0005
0.0005
0.0005
0.0005
0.0005
0.0005
0.0005
0.0005
0.0005
0.0005
0.0005
0.0005
0.0005
0.0005
0.0005
0.0005
0.0005
0.0005
0.0005
0.0005
0.0005
0.0005
0.0005
0.0005
0.0005
0.0005
0.0005
0.0005
0.0005
0.0005
0.0005
0.0005
0.0005
0.0005
0.0005
0.0005
0.0005
0.0005
0.0005
0.0005
0.0005
0.0005
0.0005
0.0005
0.0005
0.0005
0.0005
0.0005
0.0005
0.0005
0.0005
0.0005
0.0005
0.0005
0.0005
0.0005
0.0005
0.0005
0.0005
0.0005
0.0005
0.0005
0.0005
0.0005
0.0005
0.0005
0.0005
0.0005
0.0005
0.0005
0.0005
0.0005
0.0005
0.0005
0.0005
0.0005
0.0005
0.0005
0.0005
0.0005
0.0005
0.0005
0.0005
0.0005
0.0005
0.0005
0.0005

SCALARS mass float 1
LOOKUP_TABLE default
5.23599e-07
5.23599e-07
5.23599e-07
5.23599e-07
5.23599e-07
5.23599e-07
5.23599e-07
5.23599e-07
5.23599e-07
5.23599e-07
5.23599e-07
5.23599e-07
5.23599e-07
5.23599e-07
5.23599e-07
5.23599e-07
5.23599e-07
5.23599e-07
5.23599e-07
5.23599e-07
5.23599e-07
5.23599e-07
5.23599e-07
5.23599e-07
5.23599e-07
5.23599e-07
5.23599e-07
5.23599e-07
5.23599e-07
5.23599e-07
5.23599e-07
5.23599e-07
5.23599e-07
5.23599e-07
5.23599e-07
5.23599e-07
5.23599e-07
5.23599e-07
5.23599e-07
5.23599e-07
5.23599e-07
5.23599e-07
5.23599e-07
5.23599e-07
5.23599e-07
5.23599e-07
5.23599e-07
5.23599e-07
5.23599e-07
5.23599e-07
5.23599e-07
5.23599e-07
5.23599e-07
5.23599e-07
5.23599e-07
5.23599e-07
5.23599e-07
5.23599e-07
5.23599e-07
5.23599e-07
5.23599e-07
5.23599e-07
5.23599e-07
5.23599e-07
5.23599e-07
5.23599e-07
5.23599e-07
5.23599e-07
5.23599e-07
5.23599e-07
5.23599e-07
5.23599e-07
5.23599e-07
5.23599e-07
5.23599e-07
5.23599e-07
5.23599e-07
5.23599e-07
5.23599e-07
5.23599e-07
5.23599e-07
5.23599e-07
5.23599e-07
5.23599e-07
5.23599e-07
5.23599e-07
5.23599e-07
5.23599e-07
5.23599e-07
5.23599e-07
5.23599e-07
5.23599e-07
5.23599e-07
5.23599e-07
5.23599e-07
5.23599e-07
5.23599e-07
5.23599e-07
5.23599e-07
5.23599e-07
5.23599e-07
5.23599e-07
5.23599e-07
5.23599e-07
5.23599e-07
5.23599e-07
5.23599e-07
5.23599e-07
5.23599e-07
5.23599e-07
5.23599e-07
5.23599e-07
5.23599e-07
5.23599e-07
5.23599e-07
5.23599e-07
5.23599e-07
5.23599e-07
5.23599e-07
5.23599e-07
5.23599e-07
5.23599e-07
5.23599e-07
5.23599e-07
5.23599e-07
5.23599e-07
5.23599e-07
5.23599e-07
5.23599e-07
5.23599e-07
5.23599e-07
5.23599e-07

VECTORS velocity float
1.82272e-14 1.06222e-13 -3.37787e-13
0.000786002 -0.0349117 0.0353935
-8.71213e-15 6.23705e-17 -1.02212e-13
0.00119891 0.0429493 -0.0203085
0.000818858 -0.0461917 0.0228801
0.000422076 -0.0100781 0.0501585
0.00508856 -0.0124151 0.026937
-0.00389231 0.00171767 -0.00180024
-2.18132e-38 -1.22536e-38 1.99711e-12
6.60136e-15 -6.25629e-17 7.74361e-14
0.00171722 -0.0285757 -0.0373466
0.0031034 -0.0364933 -0.0204229
0.00124399 -0.0106005 -0.0153001
0.00509115 0.00719205 0.0331811
0.00361055 -0.00629155 0.000786833
0.00522499 0.0079601 0.0112632
-0.0201045 0.0125606 -0.0210019
0.00363087 0.0377338 -0.0120255
0.00515344 0.028557 0.0125339
-0.000703953 -0.0519772 -0.0140144
-2.81174e-05 0.0366313 -0.0402807
0.0026025 -0.0034878 0.0447228
0.00697153 0.0147639 0.0116299
-4.14282e-15 -1.61422e-14 -2.4118e-13
-0.109561 -0.130257 -0.432383
-0.000587834 0.0182047 0.0280153
0.00824639 -0.00952495 -0.0228718
0.0371964 0.028595 0.024654
-0.0111738 -0.0424755 -0.0128039
-0.354598 -0.154317 0.00673542
-0.0308779 -0.00678083 -0.0171116
0.0263989 -0.0200974 0.0011837
0.00548708 -0.0262477 -0.0249446
2.95424e-15 -1.41126e-14 6.97858e-14
0.011993 0.0247786 0.0367048
0.00288064 0.00372264 -0.0100024
0.0047683 0.0319666 -0.000552345
0.00159789 -0.0124404 -0.0432222
2.19013e-15 4.49219e-15 1.4725e-14
-0.00222814 -0.154036 0.10795
1.9327e-05 -0.0116531 0.0224322
0.0167496 -0.0165976 -0.013078
-0.0130405 -0.0770162 -0.0522732
0.0234105 0.0642375 0.0784138
0.0107389 0.00513326 0.0142713
0.0170071 0.0151334 0.00857409
0.0023422 -0.00830722 0.0113522
0.000874195 -0.0210971 0.0489749
0.000541583 0.00397124 -0.0499753
-0.0392213 -0.0705237 0.0531469
-0.043259 0.0537608 0.0978831
-0.174206 -0.106166 0.231599
-0.0241268 -0.0211228 -0.0549959
-0.171533 -0.11312 0.0601931
3.14705e-19 -1.21044e-19 -4.78746e-19
-0.00080172 0.00362001 -0.00155993
6.31747e-16 -6.14588e-15 1.59359e-14
0.000154691 -0.0295851 0.0372623
-0.265187 -0.14977 0.176623
-4.39592e-14 9.36748e-14 3.3937e-13
0.00127939 -0.0233121 0.0416795
2.17236e-19 1.29079e-18 -1.50487e-19
-0.00185735 -0.0450672 0.0340088
-0.0105725 -0.00771735 -0.0164124
-0.0151799 0.330269 -0.0663038
0.0025382 -0.00750439 -0.0398139
0.00322351 0.0181485 0.0140686
-0.0168677 0.00722806 -0.00541867
0.00718338 -0.0132167 -0.0212232
0.00012569 -0.00237807 0.00595744
0.0174678 0.072 0.0323119
0.00472246 0.00320465 -0.07605
0.00227842 -0.00321089 -0.00158364
-0.00393529 0.0388581 -0.0227983
-7.73489e-16 3.69129e-15 -1.82454e-14
-0.106505 0.0531353 -0.0642639
0.000358584 -0.0520899 -0.00665631
-0.00153959 0.0372619 0.0352928
0.0053628 0.0134692 0.00927493
0.000400154 0.00826447 -0.0344013
0.000573286 0.0486463 -0.017815
0.00120097 -0.00179755 0.00260422
0.00175094 0.00726109 0.0442567
-0.00282553 -0.0153101 -0.000769779
-0.0202417 -0.0161015 0.0495769
-0.0354527 0.0175537 0.00544762
0.00255666 -0.0131919 0.0436842
0.000845008 -0.042405 0.0258892
0.000408074 0.026451 -0.0452227
0.00621191 0.0397711 0.00984163
-0.00288252 -0.0220749 0.0254469
-0.105854 -0.0492808 0.292259
0.000517168 0.0242814 0.0455054
0.14595 0.001105 0.255607
-0.000855115 0.0454329 -0.0263811
-0.0316375 -0.00859708 -0.0430371
0.00866673 -0.00503613 -0.0253185
0.0150159 -0.00850519 -0.0138635
0.161013 -0.0291414 0.0770149
-0.00115637 -0.00931612 0.0535924
0.00865587 0.0199723 0.01044
-3.46738e-19 -8.88003e-19 -8.7183e-20
-0.018367 0.0169663 0.204517
-0.0296332 0.0493865 0.0567696
-0.0586061 -0.0101428 -0.0615351
-0.194017 0.136216 0.150755
0.0766439 -0.0351761 0.026959
-0.00019196 -0.027408 -0.0452566
-0.00644923 0.00194001 -0.0321612
0.00848159 -0.0327497 -0.0113691
0.00416419 -0.0279946 -0.0265852
-0.00388029 0.00529457 -0.00115143
-0.000247736 -0.0492502 0.0148661
0.00404028 -0.0106878 -0.00260377
-0.0280539 0.00832757 -0.0559428
0.000753148 0.04862 0.0140883
-0.217003 -0.0921508 0.026456
-0.00354268 0.0160468 0.00899989
-0.0017196 0.027532 0.0438779
0.105966 -0.171347 0.308997
0.000971001 0.00133198 -0.00599373
0.0330539 -0.0609071 -0.0584657
-0.240834 0.0109812 0.172519
-0.0175436 0.0288062 0.0122543
1.04011e-14 -4.97182e-14 2.45847e-13
0.00140619 -0.000439375 0.00199142
0.000207295 -0.0401725 0.00322967
0.00691805 0.00132092 0.0410622
0.00112399 0.0502932 -0.00660217
0.123588 -0.107965 0.0334827
-0.000943553 -0.0126056 -0.0135859
0.00029656 0.0346042 0.00758221

VECTORS force float
1.85818e-20 1.94818e-20 5.92923e-21
-4.66234e-08 4.23557e-08 2.66904e-07
6.88214e-22 4.72659e-20 0.0
-5.63791e-08 9.14275e-08 -2.94365e-07
-6.90414e-08 -4.24162e-09 2.54903e-07
-1.35644e-08 2.04973e-07 1.30409e-07
-5.18816e-08 1.68115e-07 -1.10362e-08
-7.7739e-07 1.50704e-06 -5.70717e-07
8.48048e-40 4.7639e-40 0.0
5.29396e-23 1.2325e-22 0.0
-1.29833e-07 -1.37254e-07 4.028e-08
-2.96251e-07 -9.47415e-07 -2.7943e-07
0.000502794 -5.74779e-06 0.000678947
1.35078e-06 1.59952e-06 8.64209e-07
0.0 0.0 -5.1365e-06
-2.95322e-07 -7.77066e-07 -2.46281e-07
0.0 0.0 -5.1365e-06
-2.16954e-05 2.25987e-05 -0.000305471
-8.78054e-08 4.23499e-07 9.1912e-08
-6.77644e-08 -1.0418e-07 1.74519e-07
9.11095e-07 -2.26226e-06 1.94686e-06
9.10142e-06 -2.42958e-07 8.46057e-07
-0.000217394 5.03032e-05 0.000315731
-1.77263e-18 4.57027e-19 2.5411e-21
0.0 0.0 -5.1365e-06
-1.96575e-06 -2.96334e-05 3.67283e-05
-4.79545e-07 1.13131e-05 1.25345e-05
0.000212767 -3.69009e-05 0.00010557
0.0 0.0 -5.1365e-06
0.0 0.0 -5.1365e-06
-5.57005e-06 1.3717e-05 5.05782e-05
0.0 0.0 -5.1365e-06
9.31083e-08 6.97916e-06 4.02961e-06
5.50571e-21 -1.69407e-21 -8.47033e-22
0.0 0.0 -5.1365e-06
0.0 0.0 -5.1365e-06
-6.27988e-07 -1.8242e-06 3.97873e-07
5.89498e-08 1.77086e-06 6.64901e-06
-3.17637e-22 -2.11758e-22 0.0
0.0 0.0 -5.1365e-06
4.16749e-08 -9.46211e-08 -2.30527e-07
0.0 0.0 -5.1365e-06
0.0 0.0 -5.1365e-06
0.00225954 0.000647353 -0.00469999
0.000110978 3.00336e-05 4.97844e-05
0.0 0.0 -5.1365e-06
3.71511e-06 4.47969e-06 2.38232e-07
0.0 0.0 -5.1365e-06
-6.10359e-08 -2.41441e-07 -3.85783e-07
0.0 0.0 -5.1365e-06
0.0 0.0 -5.1365e-06
0.0 0.0 -5.1365e-06
0.0 0.0 -5.1365e-06
0.0 0.0 -5.1365e-06
0.0 0.0 0.0
-1.44174e-06 -1.09996e-06 6.31262e-07
2.11758e-22 0.0 0.0
-4.0289e-08 7.15395e-07 -5.71202e-07
0.0 0.0 -5.1365e-06
0.0 0.0 0.0
-1.67189e-07 -5.61385e-08 4.69851e-07
0.0 0.0 0.0
1.20786e-06 6.97054e-06 -5.53161e-06
0.0 0.0 -5.1365e-06
0.0 0.0 -5.1365e-06
-7.54624e-07 -1.16449e-06 -4.36484e-06
-1.99833e-07 5.55312e-08 1.74558e-07
0.0 0.0 -5.1365e-06
-6.00197e-06 1.92451e-05 1.57555e-05
-3.60144e-07 -9.94044e-08 -2.50829e-06
0.0 0.0 -5.1365e-06
-7.91394e-05 0.000596703 -0.00250276
-5.15232e-06 2.32929e-05 -7.66079e-06
0.0 0.0 -5.1365e-06
-2.12526e-19 -1.16467e-20 6.77626e-21
0.0 0.0 -5.1365e-06
-7.05256e-08 -6.11805e-08 2.27337e-07
-2.50072e-07 2.85115e-07 -2.3211e-07
-0.00023943 -3.25096e-05 -0.000291517
-3.18598e-07 1.13858e-07 -1.46433e-06
-3.00906e-09 1.00781e-08 -2.25153e-07
7.68503e-06 1.06534e-05 -5.61122e-06
6.71344e-06 -2.51683e-06 -1.43002e-05
0.000138059 1.25888e-05 6.15149e-05
0.0 0.0 -5.1365e-06
0.0 0.0 -5.1365e-06
1.0536e-07 3.55821e-07 4.46845e-07
-6.37189e-08 -2.828e-08 2.56587e-07
-1.14983e-08 -1.52271e-07 -2.02549e-07
0.0 0.0 -5.1365e-06
0.0 0.0 -5.1365e-06
0.00116601 0.000115885 0.029453
-3.85568e-08 2.33086e-07 -1.65268e-08
0.00169903 -0.00257704 0.00227084
0.0 0.0 -5.1365e-06
0.0 0.0 -5.1365e-06
-6.3497e-05 4.79506e-06 1.52566e-05
0.0 0.0 -5.1365e-06
0.0 0.0 -5.1365e-06
2.05634e-07 1.77481e-07 -5.60373e-08
0.0 0.0 -5.1365e-06
0.0 0.0 0.0
0.0 0.0 -5.1365e-06
5.57005e-06 -1.3717e-05 -6.08512e-05
0.0 0.0 -5.1365e-06
0.0125819 -0.00437214 -0.00926053
0.0 0.0 -5.1365e-06
2.56646e-08 -2.33618e-07 8.44376e-08
0.0 0.0 -5.1365e-06
0.000656907 0.000488843 -0.000179758
-3.23768e-06 7.88031e-06 4.6368e-06
0.000129195 -2.74601e-05 -5.567e-06
-1.03698e-06 -2.77523e-07 1.09951e-07
5.0833e-07 -1.00724e-06 -3.65044e-06
0.0 0.0 -5.1365e-06
-3.12345e-08 1.69276e-07 -1.72912e-07
0.0 0.0 -5.1365e-06
1.89875e-08 -1.21289e-07 -4.59947e-06
-2.64957e-07 1.23766e-06 2.02559e-06
0.00466717 0.00676452 -0.00625642
2.23261e-08 3.04606e-06 -4.67073e-06
0.0 0.0 -5.1365e-06
0.0 0.0 -5.1365e-06
3.10598e-05 -2.87372e-05 3.37436e-05
-3.00697e-20 -6.56451e-21 0.0
5.31909e-08 1.04816e-05 -3.59617e-06
2.83855e-07 -1.24004e-06 1.27521e-06
-4.97969e-05 5.02292e-05 -7.63321e-05
-6.67884e-09 -9.30942e-09 -3.00225e-07
0.0 0.0 -5.1365e-06
0.0 0.0 -5.1365e-06
-1.39072e-07 2.67206e-07 8.78738e-07
