# vtk DataFile Version 3.0
LIGGGHTS particles timestep 4400000
ASCII
DATASET POLYDATA
POINTS 141 float
0.0301751 0.0199402 0.00583053
0.0317091 0.0230655 0.0098703
0.0311969 0.0190595 0.00570718
0.0341096 0.0165568 0.0149909
0.031932 0.023357 0.0110301
0.0311725 0.0217116 0.00809745
0.0315095 0.0226424 0.00905535
0.0230472 0.0224101 0.015639
0.0232069 0.00257091 0.0466811
0.0302591 0.0185329 0.0057867
0.0219229 0.0237508 0.0149501
0.0274112 0.0196134 0.0157715
0.0270521 0.0212348 0.0152079
0.018691 0.0244195 0.0136955
0.0235581 0.0153853 0.00924322
0.0219043 0.0177821 0.0157665
0.023355 0.014922 0.0102752
0.0192336 0.0231999 0.0147278
0.0208023 0.0223522 0.0144632
0.0232579 0.020211 0.0157883
0.0265111 0.0227987 0.0134813
0.0337718 0.0179573 0.0156007
0.0245136 0.0158777 0.0156704
0.0213203 0.0208063 0.0156161
0.0225486 0.0228259 0.0138425
0.0212737 0.0239524 0.013263
0.0165267 0.0227124 0.0140383
0.0187826 0.0200234 0.00728829
0.0196434 0.0140075 0.0129577
0.0200707 0.0244429 0.0136366
0.0216595 0.0230577 0.0134471
0.0226704 0.0233187 0.0154543
0.0169284 0.0239363 0.0133953
0.0169124 0.0146939 0.012401
0.0406138 0.0191626 0.00568074
0.0220214 0.0238321 0.0139585
0.0203206 0.0235264 0.0142374
0.0293787 0.0150224 0.0102093
0.0277545 0.0181476 0.0157118
0.0237925 0.0192214 0.00595071
0.0165886 0.0152419 0.0138239
0.017438 0.0221744 0.0157044
0.0234854 0.0230063 0.0149664
0.0183565 0.0235932 0.0141378
0.0161553 0.0236361 0.0139532
0.0174323 0.0229171 0.015027
0.0227806 0.0221643 0.0146745
0.0225341 0.0170546 0.0154829
0.0208972 0.0146334 0.0144011
0.0178449 0.0146233 0.011936
0.0280414 0.0169192 0.0151882
0.0215212 0.0204546 0.0166319
0.0231811 0.0161633 0.015331
0.0207961 0.0233926 0.0111911
0.0179416 0.0240543 0.0129024
0.0211112 0.0241341 0.0142278
0.0329708 0.0200808 0.00595659
0.0204012 0.0240252 0.0127904
0.0239395 0.0202041 0.00583859
0.019338 0.0241212 0.0129532
0.0177244 0.0144427 0.012927
0.0225637 0.0195823 0.0058395
0.0233167 0.0154651 0.0141235
0.033703 0.0194141 0.00581744
0.024138 0.0172087 0.0076136
0.0226685 0.0150675 0.0134741
0.0210261 0.0216252 0.0151228
0.0333389 0.0197322 0.0157141
0.0354634 0.0151232 0.00974965
0.0216472 0.0150452 0.0149679
0.0257554 0.0202629 0.01664
0.0224821 0.0195945 0.0159209
0.0232768 0.0176779 0.0157273
0.0213071 0.0231894 0.0144118
0.0146515 0.0229675 0.0150849
0.0153858 0.0233544 0.0145273
0.0204602 0.0231549 0.0131584
0.0389148 0.0189256 0.00570476
0.0228245 0.023597 0.0145046
0.0322069 0.0233003 0.0122097
0.0299145 0.0161851 0.00823429
0.0230804 0.014699 0.0147214
0.0191599 0.0217128 0.00809634
0.0290786 0.0147404 0.0112239
0.0239238 0.0156554 0.0148946
0.0307578 0.019972 0.00733019
0.0163921 0.0158473 0.0145958
0.0154988 0.0229709 0.0135987
0.0206186 0.0140772 0.0131672
0.015107 0.0220322 0.0148107
0.0156325 0.0215676 0.015531
0.028356 0.0157636 0.0142729
0.0186485 0.0140685 0.0128562
0.0221851 0.0145134 0.0143128
0.0327531 0.022187 0.0144509
0.0359468 0.0165004 0.00803351
0.0205091 0.023053 0.0151117
0.0241384 0.0224694 0.0155
0.021463 0.0142373 0.0136781
0.0185488 0.0257543 0.0232157
0.0228361 0.0210643 0.0154654
0.0216858 0.0187606 0.0159466
0.0211449 0.0234395 0.0122119
0.0159269 0.022598 0.0148975
0.0184267 0.0142405 0.0145109
0.0327934 0.019013 0.00570964
0.0185287 0.0241261 0.0176227
0.0173564 0.0235259 0.0142374
0.019986 0.0234038 0.0113597
0.0190731 0.014312 0.0137281
0.0194028 0.0237527 0.013912
0.0175626 0.0151415 0.0136231
0.0330383 0.021188 0.0151585
0.0244557 0.0205961 0.0165173
0.0197042 0.0230014 0.00986411
0.0324794 0.0229787 0.0132804
0.0180309 0.0237155 0.0150735
0.0220494 0.0215931 0.015144
0.0257794 0.023218 0.0102928
0.0169498 0.0141758 0.013511
0.0253479 0.0211299 0.0163509
0.029583 0.0154652 0.00913479
0.0240475 0.0166546 0.0152402
0.0185851 0.0154093 0.0182697
0.030256 0.0177109 0.00742227
0.0177041 0.0243765 0.0138438
0.0247672 0.0218475 0.0159663
0.0165628 0.0233671 0.0148255
0.0193775 0.0145145 0.0146588
0.0200498 0.0144051 0.0139207
0.0381686 0.0197868 0.00591052
0.0214696 0.0197541 0.0159072
0.0237127 0.0217359 0.0160291
0.0222576 0.0162498 0.0149575
0.0259918 0.0233798 0.0113269
0.0147149 0.0226511 0.0141303
0.0234549 0.0208899 0.0164951
0.0184355 0.0228099 0.0151871
0.0196021 0.0237694 0.0154623
0.0180473 0.013856 0.0136694
0.0218922 0.0225507 0.014903

VERTICES 141 282
1 0
1 1
1 2
1 3
1 4
1 5
1 6
1 7
1 8
1 9
1 10
1 11
1 12
1 13
1 14
1 15
1 16
1 17
1 18
1 19
1 20
1 21
1 22
1 23
1 24
1 25
1 26
1 27
1 28
1 29
1 30
1 31
1 32
1 33
1 34
1 35
1 36
1 37
1 38
1 39
1 40
1 41
1 42
1 43
1 44
1 45
1 46
1 47
1 48
1 49
1 50
1 51
1 52
1 53
1 54
1 55
1 56
1 57
1 58
1 59
1 60
1 61
1 62
1 63
1 64
1 65
1 66
1 67
1 68
1 69
1 70
1 71
1 72
1 73
1 74
1 75
1 76
1 77
1 78
1 79
1 80
1 81
1 82
1 83
1 84
1 85
1 86
1 87
1 88
1 89
1 90
1 91
1 92
1 93
1 94
1 95
1 96
1 97
1 98
1 99
1 100
1 101
1 102
1 103
1 104
1 105
1 106
1 107
1 108
1 109
1 110
1 111
1 112
1 113
1 114
1 115
1 116
1 117
1 118
1 119
1 120
1 121
1 122
1 123
1 124
1 125
1 126
1 127
1 128
1 129
1 130
1 131
1 132
1 133
1 134
1 135
1 136
1 137
1 138
1 139
1 140

POINT_DATA 141
SCALARS id int 1
LOOKUP_TABLE default
1
2
4
5
7
8
10
11
12
13
14
15
16
19
20
21
22
23
24
25
26
27
29
30
31
34
35
36
37
40
41
42
43
44
45
46
48
49
50
52
53
54
55
58
59
60
61
62
63
64
65
66
68
71
72
74
75
76
78
79
81
82
83
84
85
86
87
89
90
91
92
93
95
97
98
102
103
105
107
108
109
110
112
113
114
115
118
120
122
123
124
125
126
127
128
129
131
133
134
135
136
138
139
140
141
142
143
144
147
148
149
150
151
152
153
154
155
156
157
158
160
161
163
164
167
169
170
171
173
174
175
176
178
180
181
182
183
185
188
189
190

SCALARS type int 1
LOOKUP_TABLE default
1
1
1
1
1
1
1
1
1
1
1
1
1
1
1
1
1
1
1
1
1
1
1
1
1
1
1
1
1
1
1
1
1
1
1
1
1
1
1
1
1
1
1
1
1
1
1
1
1
1
1
1
1
1
1
1
1
1
1
1
1
1
1
1
1
1
1
1
1
1
1
1
1
1
1
1
1
1
1
1
1
1
1
1
1
1
1
1
1
1
1
1
1
1
1
1
1
1
1
1
1
1
1
1
1
1
1
1
1
1
1
1
1
1
1
1
1
1
1
1
1
1
1
1
1
1
1
1
1
1
1
1
1
1
1
1
1
1
1
1
1

SCALARS radius float 1
LOOKUP_TABLE default
0.0005
0.0005
0.0005
0.0005
0.0005
0.0005
0.0005
0.0005
0.0005
0.0005
0.0005
0.0005
0.0005
0.0005
0.0005
0.0005
0.0005
0.0005
0.0005
0.0005
0.0005
0.0005
0.0005
0.0005
0.0005
0.0005
0.0005
0.0005
0.0005
0.0005
0.0005
0.0005
0.0005
0.0005
0.0005
0.0005
0.0005
0.0005
0.0005
0.0005
0.0005
0.0005
0.0005
0.0005
0.0005
0.0005
0.0005
0.0005
0.0005
0.0005
0.0005
0.0005
0.0005
0.0005
0.0005
0.0005
0.0005
0.0005
0.0005
0.0005
0.0005
0.0005
0.0005
0.0005
0.0005
0.0005
0.0005
0.0005
0.0005
0.0005
0.0005
0.0005
0.0005
0.0005
0.0005
0.0005
0.0005
0.0005
0.0005
0.0005
0.0005
0.0005
0.0005
0.0005
0.0005
0.0005
0.0005
0.0005
0.0005
0.0005
0.0005
0.0005
0.0005
0.0005
0.0005
0.0005
0.0005
0.0005
0.0005
0.0005
0.0005
0.0005
0.0005
0.0005
0.0005
0.0005
0.0005
0.0005
0.0005
0.0005
0.0005
0.0005
0.0005
0.0005
0.0005
0.0005
0.0005
0.0005
0.0005
0.0005
0.0005
0.0005
0.0005
0.0005
0.0005
0.0005
0.0005
0.0005
0.0005
0.0005
0.0005
0.0005
0.0005
0.0005
0.0005
0.0005
0.0005
0.0005
0.0005
0.0005
0.0005

SCALARS mass float 1
LOOKUP_TABLE default
5.23599e-07
5.23599e-07
5.23599e-07
5.23599e-07
5.23599e-07
5.23599e-07
5.23599e-07
5.23599e-07
5.23599e-07
5.23599e-07
5.23599e-07
5.23599e-07
5.23599e-07
5.23599e-07
5.23599e-07
5.23599e-07
5.23599e-07
5.23599e-07
5.23599e-07
5.23599e-07
5.23599e-07
5.23599e-07
5.23599e-07
5.23599e-07
5.23599e-07
5.23599e-07
5.23599e-07
5.23599e-07
5.23599e-07
5.23599e-07
5.23599e-07
5.23599e-07
5.23599e-07
5.23599e-07
5.23599e-07
5.23599e-07
5.23599e-07
5.23599e-07
5.23599e-07
5.23599e-07
5.23599e-07
5.23599e-07
5.23599e-07
5.23599e-07
5.23599e-07
5.23599e-07
5.23599e-07
5.23599e-07
5.23599e-07
5.23599e-07
5.23599e-07
5.23599e-07
5.23599e-07
5.23599e-07
5.23599e-07
5.23599e-07
5.23599e-07
5.23599e-07
5.23599e-07
5.23599e-07
5.23599e-07
5.23599e-07
5.23599e-07
5.23599e-07
5.23599e-07
5.23599e-07
5.23599e-07
5.23599e-07
5.23599e-07
5.23599e-07
5.23599e-07
5.23599e-07
5.23599e-07
5.23599e-07
5.23599e-07
5.23599e-07
5.23599e-07
5.23599e-07
5.23599e-07
5.23599e-07
5.23599e-07
5.23599e-07
5.23599e-07
5.23599e-07
5.23599e-07
5.23599e-07
5.23599e-07
5.23599e-07
5.23599e-07
5.23599e-07
5.23599e-07
5.23599e-07
5.23599e-07
5.23599e-07
5.23599e-07
5.23599e-07
5.23599e-07
5.23599e-07
5.23599e-07
5.23599e-07
5.23599e-07
5.23599e-07
5.23599e-07
5.23599e-07
5.23599e-07
5.23599e-07
5.23599e-07
5.23599e-07
5.23599e-07
5.23599e-07
5.23599e-07
5.23599e-07
5.23599e-07
5.23599e-07
5.23599e-07
5.23599e-07
5.23599e-07
5.23599e-07
5.23599e-07
5.23599e-07
5.23599e-07
5.23599e-07
5.23599e-07
5.23599e-07
5.23599e-07
5.23599e-07
5.23599e-07
5.23599e-07
5.23599e-07
5.23599e-07
5.23599e-07
5.23599e-07
5.23599e-07
5.23599e-07
5.23599e-07
5.23599e-07
5.23599e-07
5.23599e-07
5.23599e-07
5.23599e-07
5.23599e-07

VECTORS velocity float
1.8226e-14 1.0622e-13 -3.37788e-13
0.00565082 -0.0180276 -0.0348989
-8.71285e-15 1.8045e-17 -1.02212e-13
0.00195396 0.0274621 0.0213628
0.00019811 -0.00280163 -0.0541593
0.00322828 -0.03933 -0.0365194
0.00142417 -0.023694 -0.023701
-0.0122852 -0.0141538 -0.0200969
0.0154651 0.00251418 -0.369893
6.6013e-15 -6.2726e-17 7.74361e-14
0.00565899 0.00467505 -0.00532996
0.0012865 0.0519681 -0.00602961
0.0167904 -0.0131822 0.0160464
0.000136392 0.00146448 0.000195877
0.000519481 -0.0278703 0.0438054
0.0136753 0.0125751 0.00666584
0.00081379 -0.0139782 0.0481207
0.00403366 -0.00469577 -0.000332518
0.00311126 0.0217523 -0.0199804
0.00121573 0.0101942 -0.00382038
-3.32304e-05 0.030209 -0.0433922
-0.00043823 0.0479927 0.0108424
0.00679473 0.00561173 0.00826005
0.00763677 0.0184579 -0.0112397
0.00822935 0.00885994 -0.014597
0.00105978 -0.00116043 -0.00140367
0.00491823 0.00514846 -0.00202682
0.00216065 -0.0412157 -0.0106963
0.000361311 0.00137815 -0.00114909
0.000969083 0.000210582 -0.00173989
0.000833123 -0.00454309 0.00264423
-0.00165023 -0.00404058 -0.00162974
0.000890092 0.00239272 -0.00040173
-0.00192324 -0.00123439 0.00621721
-7.29576e-15 3.48431e-14 -1.72292e-13
0.000905763 -0.00124532 0.00030904
0.00456298 0.00740606 -0.00863557
0.00099249 -0.0137047 0.0490971
0.00284393 0.0464787 0.0163691
2.92438e-15 4.37169e-15 1.46522e-14
0.00880738 0.00527768 0.00717093
0.0005933 -0.00129015 0.000682625
0.000569281 -0.00122013 0.000127694
-0.00038283 0.00438378 -0.00106524
0.000522075 0.00203117 -0.000486965
-0.00269949 0.00209167 -0.00216349
0.00216397 0.0264416 -0.0266126
0.0195236 0.0165665 -0.000910782
-0.00418122 0.00562582 -0.00734929
-1.03369e-05 0.0021316 -0.00221352
0.000189627 0.0449179 0.0269186
0.00445925 0.00749661 0.038826
0.010731 0.0115355 0.00386009
0.00776237 -0.00233408 -0.0115289
-0.000614343 -0.000247288 -0.0006187
0.00169506 0.00599019 -0.00452202
2.33115e-05 5.43017e-06 0.000105118
0.00223907 0.000804538 -0.0026691
4.97297e-16 -6.12692e-15 1.59501e-14
-0.000182512 0.00281175 -0.00149888
0.000249907 0.000650845 0.00296752
-4.39597e-14 9.36749e-14 3.3937e-13
0.0109655 0.00572719 0.00602064
-7.82158e-07 3.30238e-08 1.40894e-07
0.00394587 -0.038579 0.016912
0.0110125 0.00380893 0.0057389
0.0123592 0.0109388 -0.0212972
0.00175513 0.0437244 -0.00982373
0.0028165 -0.0168069 0.0351933
-0.00342611 -0.00618243 -0.00898087
-0.000203974 -0.001042 -0.000617259
-0.00529905 0.0168423 -0.00310875
0.0117296 0.022367 0.00611511
0.00981848 0.0129002 -0.0123937
-0.00464886 0.00036867 -0.00998321
4.3476e-05 -0.00181835 -0.00205746
0.0089898 0.00260882 -0.0101269
-7.67647e-16 3.69147e-15 -1.82456e-14
0.000818494 -0.000118285 0.00085424
-0.0157337 -0.00213537 -0.042044
0.131525 7.71392 4.29798
0.00151436 0.0016655 -0.00114132
0.000656811 -0.0281432 -0.0249898
0.00396374 -0.00326733 0.0297695
0.00838282 0.00696639 0.00495909
0.00031468 -0.0502168 -0.0111195
0.00619715 0.00142873 -0.000877426
0.00431518 0.000655412 -0.00402203
0.00122628 -0.000881971 -0.00253181
0.00567565 0.000706868 -0.00528291
0.0325692 0.000799448 -0.0369219
0.00432977 0.0273327 0.0309833
0.00160444 0.00083538 0.000499194
0.00436128 0.00407367 -0.012562
0.000369585 0.0226888 -0.0208294
0.00301991 -0.0358768 0.0215559
0.0465935 -0.00156319 0.08912
0.000441767 0.00026092 0.00131703
0.000285295 0.00168262 -0.00240605
-0.00881458 -0.115909 -0.0592566
0.0211008 0.021099 -0.0135076
0.00890138 0.0166096 -0.000278636
-0.020043 -0.0129715 -0.0112442
0.00786413 -0.00167325 -0.0106424
0.00593335 0.00503297 -0.00464006
-8.13967e-07 7.69918e-07 -5.78224e-07
-0.0577877 -0.00253028 -0.120309
-0.00133476 0.00122837 0.000317217
0.00320796 -0.00494755 -0.0404773
0.00248948 0.000157906 0.000374524
-0.000805346 0.00164111 0.00104507
0.00737777 0.00426884 0.00166082
0.000213905 0.0467651 -0.025443
-0.0113223 0.0492059 -0.0148097
0.000977876 -0.0203234 -0.0446234
0.00015636 0.0237314 -0.0467492
-0.000774287 -0.00206675 -0.00188898
0.00957885 0.0103921 -0.0057888
0.000491881 -0.0139649 -0.0486055
-0.00163784 0.047148 -0.00715502
-0.000706947 -0.00100151 -0.00229496
0.00546137 -0.0189266 0.0324894
0.0113464 0.00838037 0.00649459
0.0656876 0.22926 -0.0213497
0.00128981 -0.0494443 0.0151726
0.000546391 0.000719994 0.00131371
0.00046085 -0.00235049 -0.00253734
-0.00191921 0.00305754 -0.000451226
0.0033675 0.00828914 -0.000430794
-0.000819213 -0.000797117 0.000411203
1.04198e-14 -4.97177e-14 2.45846e-13
-0.00103072 0.0258653 0.0016475
0.00119983 0.00204231 0.00552981
0.0104353 0.0118448 0.00768467
0.00180297 0.000378138 -0.0516165
0.00361577 -0.00110188 -0.00474174
0.00419951 0.000592573 0.0053326
0.00634006 -0.0083848 0.00816593
0.00822618 -0.00301515 -0.00151229
0.00565456 -0.000810728 -0.000853926
-0.00318364 0.00893937 -0.0170263

VECTORS force float
-1.11173e-21 2.11758e-22 -8.47033e-22
-0.000141609 0.000126103 2.84229e-05
-1.64113e-21 1.45746e-19 0.0
-1.50225e-07 8.72427e-07 -8.1082e-08
-1.48912e-08 -2.16377e-07 -1.0654e-07
-2.30605e-07 -2.07615e-07 6.27585e-08
1.07035e-05 -4.28091e-05 -1.24471e-06
-7.69905e-07 -9.29794e-07 -5.46786e-07
0.0 0.0 -5.1365e-06
5.29396e-23 4.96308e-23 0.0
2.85168e-06 5.95403e-07 3.9181e-05
-3.64737e-07 2.50552e-07 -1.46531e-07
1.02696e-05 -6.08899e-05 6.72992e-05
-9.38764e-07 3.26185e-06 -5.96014e-06
-1.68116e-08 9.12372e-08 2.11804e-07
0.0 0.0 -5.1365e-06
-4.57436e-08 1.81545e-07 2.90464e-07
-1.98358e-06 -6.04646e-07 -5.21004e-06
4.67803e-05 -0.000159328 0.000117425
-2.54354e-06 -4.48533e-06 -2.08727e-06
1.14857e-07 -3.90615e-07 3.73924e-07
7.34204e-07 1.37791e-06 -2.29329e-06
1.52472e-05 5.86919e-06 1.05454e-05
0.0 0.0 -5.1365e-06
-4.10381e-06 5.53214e-07 -6.0782e-06
-6.78194e-06 -2.03136e-06 1.91256e-06
5.90785e-06 -4.90754e-06 -2.40533e-06
-7.28961e-06 0.000211891 2.15287e-05
-9.63883e-06 8.2104e-06 7.60194e-06
-1.19305e-07 -5.2674e-06 -6.08791e-06
5.10849e-06 1.221e-05 -1.76069e-05
9.50567e-07 -1.5996e-06 3.27529e-07
2.15442e-07 -1.73609e-06 -5.81249e-07
-6.84441e-06 -5.86071e-06 5.32436e-06
2.91168e-22 4.23516e-22 0.0
-2.77183e-06 -1.05124e-05 2.04058e-06
-8.32703e-06 6.48674e-06 -1.76206e-05
-4.81273e-07 -8.80526e-08 1.23715e-06
5.24493e-06 -1.56074e-05 -3.31935e-06
2.31155e-18 -3.76083e-19 -2.32087e-19
1.85988e-05 1.86339e-05 2.95622e-05
-3.425e-07 1.28023e-05 1.26571e-06
1.1735e-06 3.08885e-06 4.38414e-06
1.26435e-06 6.4533e-06 -4.03463e-06
-2.72812e-06 -1.93829e-06 5.63758e-06
-3.2516e-07 8.02699e-06 -2.16406e-06
-1.48377e-05 9.39467e-06 -6.06348e-06
-5.0216e-06 -8.12104e-07 -5.26082e-06
-2.74812e-07 1.07226e-06 -1.22028e-06
0.0 0.0 -5.1365e-06
-2.22592e-08 2.02716e-07 -1.2586e-07
0.0 0.0 -5.1365e-06
3.75729e-06 -2.77727e-06 -4.47849e-06
-2.39174e-06 2.58983e-06 2.21028e-05
-1.20731e-05 -6.37549e-07 1.93027e-06
-1.04796e-05 -5.8467e-05 4.9049e-05
-5.07777e-08 8.32505e-07 -4.25804e-06
-6.01463e-05 -2.38041e-05 2.63682e-05
8.54974e-20 -2.22346e-20 -9.31736e-21
-3.44283e-09 2.06466e-07 -1.47109e-07
5.2684e-06 -5.67636e-06 9.928e-07
0.0 0.0 0.0
-1.2406e-05 1.81638e-06 -9.87694e-06
2.15187e-09 -3.11811e-09 -1.55166e-09
1.77102e-05 -0.000228214 8.61984e-05
-3.68392e-07 -1.40133e-06 -6.32551e-06
0.0 0.0 -5.1365e-06
-9.99038e-08 2.62273e-07 -2.77029e-07
2.3893e-07 5.94038e-07 -1.04747e-06
-1.01698e-07 -1.79617e-06 -6.98041e-07
-1.2115e-06 2.5501e-07 -4.10611e-06
-5.89408e-06 -8.56905e-06 -9.09971e-06
3.81446e-06 1.32181e-06 1.61501e-06
4.05406e-07 -7.3371e-05 0.000125408
-6.63196e-07 -1.69547e-06 -3.32854e-06
4.05872e-06 -1.32892e-06 -4.16152e-07
-6.34753e-05 1.23534e-05 3.12813e-05
0.0 -1.27055e-20 -2.5411e-21
-1.73976e-06 1.66728e-07 -6.20136e-07
-0.00161824 -0.000353214 -0.00126336
0.000591016 -0.0286919 0.124346
-3.97305e-06 1.88039e-06 -9.03637e-07
9.0189e-06 1.44564e-05 1.09612e-05
1.11068e-05 3.19468e-05 0.000237556
-1.59013e-05 -4.32451e-06 -1.13607e-05
-9.51892e-09 -1.4933e-07 1.89538e-07
0.0 0.0 -5.1365e-06
-9.60289e-06 -7.90212e-06 5.04059e-06
1.79202e-05 7.63999e-07 1.04023e-05
2.96672e-06 -1.8542e-06 5.1826e-07
0.0 0.0 -5.1365e-06
-1.81366e-05 4.85051e-06 -4.55056e-06
6.40734e-06 -3.84631e-06 -6.91532e-06
0.0 0.0 -5.1365e-06
8.17529e-05 -0.000141921 0.000157476
-3.25114e-05 -8.64201e-05 5.5282e-05
-2.11234e-05 8.43382e-06 2.61368e-05
-1.23562e-06 -1.89331e-06 -2.05315e-06
1.92547e-06 -3.57612e-06 -2.72585e-06
0.0 0.0 -5.1365e-06
0.0 0.0 -5.1365e-06
-3.7662e-07 9.78814e-07 -2.08225e-06
-3.19459e-06 -9.36725e-06 6.12399e-06
6.16102e-07 5.19084e-07 -4.5156e-06
1.79339e-06 -6.07658e-07 -2.11173e-06
-1.71707e-09 7.24298e-09 -3.03152e-09
0.0 0.0 -5.1365e-06
-1.7737e-06 2.19626e-06 2.60527e-06
-1.8291e-06 1.58296e-06 3.6176e-05
-6.49489e-06 -1.26195e-07 -9.3544e-06
-7.4894e-06 -4.38752e-06 1.21083e-05
2.49882e-06 -1.06546e-05 2.50152e-05
-9.75906e-09 -3.91429e-08 -2.50625e-07
-3.91094e-08 -4.51281e-08 -4.82812e-06
-5.33075e-08 -2.67122e-07 -5.85353e-08
-1.86927e-08 -1.76096e-07 -1.65387e-07
-3.8264e-06 -2.90875e-06 -1.31887e-06
-4.34953e-06 3.22512e-05 1.08868e-05
-3.76378e-09 -2.26749e-07 -5.4697e-08
3.79797e-05 8.38505e-05 2.91575e-05
0.0 0.0 -5.1365e-06
3.68249e-07 -2.35249e-06 4.24051e-06
-3.3894e-07 -3.77382e-07 -1.08949e-06
0.0 0.0 -5.1365e-06
-2.43787e-07 -1.04177e-07 2.47339e-07
1.31129e-08 -2.8594e-06 -3.16356e-06
1.13509e-06 -1.48242e-06 4.08412e-06
-8.04201e-06 4.18498e-06 -5.91667e-06
4.30979e-07 2.81034e-08 -5.7374e-06
-8.76255e-06 1.8833e-05 2.7151e-05
-1.84494e-20 1.69407e-21 1.69407e-21
0.0 0.0 -5.1365e-06
9.31843e-07 -6.73304e-07 -2.66767e-06
2.32676e-06 5.93684e-06 1.99882e-08
-3.22414e-06 1.12526e-07 -1.26477e-05
-5.59005e-06 -4.01799e-06 1.74285e-05
5.44186e-07 2.61419e-08 6.79743e-07
-5.99886e-06 -1.43979e-05 1.14932e-05
4.92463e-07 4.74872e-07 -1.26579e-06
-1.54405e-06 1.96391e-06 -2.52046e-06
2.98589e-05 -5.79905e-08 -1.83598e-05
