# vtk DataFile Version 3.0
LIGGGHTS particles timestep 2600000
ASCII
DATASET POLYDATA
POINTS 167 float
0.0257462 0.0184315 0.0159665
0.0279696 0.0228402 0.00933792
0.02103 0.0140374 0.018769
0.0299742 0.018999 0.0158162
0.0220586 0.0221282 0.0169989
0.0281695 0.0231969 0.0102521
0.0274422 0.0212241 0.00777818
0.0277728 0.0222547 0.00860126
0.0193041 0.0230657 0.0147989
0.0213056 0.0147937 0.014571
0.0211537 0.0198957 0.00730833
0.0210814 0.0235349 0.0158557
0.0199354 0.0147257 0.0111936
0.0203006 0.0153924 0.015275
0.0209457 0.0150623 0.0136143
0.0234697 0.0216283 0.0151223
0.0200297 0.023792 0.013779
0.0218308 0.0240943 0.0142964
0.0173762 0.0234847 0.0118013
0.022967 0.0155823 0.0154534
0.0194369 0.021247 0.015391
0.022529 0.0192416 0.01722
0.0189009 0.0154709 0.0141432
0.0175816 0.0240129 0.0130143
0.029626 0.0202919 0.0156108
0.0195979 0.0224561 0.0155343
0.0238378 0.0222727 0.0146037
0.018214 0.0232408 0.0129857
0.0196802 0.0241057 0.0129008
0.0189933 0.0228689 0.0162193
0.0227042 0.0239231 0.0146914
0.0200066 0.0245139 0.0172273
0.022499 0.014547 0.0142292
0.0239827 0.0153739 0.0153057
0.0162465 0.0230438 0.0149851
0.018257 0.0243579 0.0136659
0.0245877 0.0165244 0.0151747
0.018432 0.0234945 0.0118333
0.0216298 0.0219646 0.00840377
0.0406138 0.0191626 0.00568074
0.0206638 0.0240497 0.0130245
0.0202422 0.0219246 0.016637
0.0253244 0.0202941 0.0161121
0.0207412 0.0156962 0.0144307
0.0251061 0.0212041 0.0158568
0.0224111 0.022885 0.00947683
0.0222568 0.0209377 0.0164172
0.0257144 0.0208816 0.0167994
0.0236754 0.0204196 0.0165215
0.0190391 0.0219829 0.014854
0.0221796 0.015115 0.0149878
0.0213679 0.0210276 0.00775041
0.0206845 0.0146137 0.0119736
0.0209207 0.0213012 0.0162446
0.0222103 0.0226292 0.0154929
0.0216042 0.0179896 0.0168102
0.0186907 0.0226096 0.0141661
0.0211412 0.0144403 0.0128496
0.0171385 0.0141545 0.0134567
0.0184845 0.0240253 0.0163948
0.0173178 0.0242835 0.0140103
0.021546 0.0219903 0.0158798
0.0154362 0.023376 0.0145023
0.0239788 0.0191448 0.0161577
0.0210172 0.0237355 0.0138835
0.0232874 0.0149062 0.0147328
0.0192558 0.0244166 0.0137428
0.0193288 0.0146851 0.0123376
0.0195031 0.0166153 0.0152156
0.0163066 0.0238969 0.0142626
0.0245236 0.0223034 0.0160942
0.0225637 0.0195823 0.0058395
0.0145958 0.0230307 0.0149344
0.0336017 0.0195831 0.00585649
0.0186963 0.0161336 0.0148699
0.0172279 0.0225755 0.0152738
0.0228787 0.023372 0.015461
0.0247106 0.0186544 0.0170479
0.0294504 0.0212656 0.0151956
0.0312177 0.0149405 0.0124565
0.0174099 0.0214336 0.0160595
0.0186545 0.0143525 0.0146682
0.0220524 0.0231102 0.0100095
0.0188779 0.0188482 0.0159443
0.0248211 0.0186953 0.0159376
0.0211787 0.0149796 0.0155452
0.0180532 0.0143045 0.0138583
0.023882 0.0229539 0.0156451
0.0184593 0.0211008 0.0154887
0.0256089 0.0193744 0.0160745
0.0389148 0.0189256 0.00570476
0.0177684 0.0223796 0.0144559
0.0205765 0.017459 0.00748292
0.0283901 0.0233599 0.0111628
0.0250902 0.015006 0.0129436
0.0197462 0.0158403 0.0145735
0.0255985 0.0175995 0.0165124
0.017057 0.0230706 0.0143992
0.024428 0.0217282 0.0152506
0.0217423 0.0158165 0.0156783
0.0267922 0.0183802 0.00725815
0.0201939 0.0147596 0.0128331
0.0179918 0.0233745 0.0145053
0.0242329 0.0179363 0.0158234
0.0172708 0.0236735 0.0151546
0.0188468 0.0235781 0.0140533
0.0231773 0.022478 0.0152937
0.0240908 0.0193923 0.017383
0.0230253 0.0224142 0.0143447
0.0225236 0.0231782 0.0146375
0.0175155 0.0238273 0.0161119
0.0287902 0.0230682 0.0131041
0.0309531 0.0153811 0.0136803
0.0167377 0.0233781 0.0125541
0.0252372 0.0217287 0.0166522
0.0243378 0.0208694 0.0157537
0.0177043 0.0216452 0.0151283
0.0193396 0.0217846 0.0162285
0.0203019 0.0145043 0.0144233
0.0182137 0.0196341 0.0159171
0.020712 0.0240057 0.0166577
0.0184729 0.0206332 0.0163769
0.0235175 0.020873 0.0155216
0.0183406 0.0219921 0.0160407
0.0327957 0.0190095 0.00571076
0.0232424 0.0229593 0.0140462
0.0199768 0.0138939 0.0132855
0.01768 0.0205283 0.0157131
0.0194727 0.0241738 0.0164354
0.0228189 0.023388 0.0111067
0.0212512 0.0227596 0.0152476
0.021644 0.0143154 0.013759
0.0290676 0.0224653 0.0140861
0.0191074 0.0149802 0.013294
0.0185231 0.0226848 0.0153411
0.0286357 0.0233338 0.012187
0.0191384 0.0140774 0.0137988
0.0258949 0.0198966 0.0168779
0.021034 0.0171236 0.0163751
0.0204132 0.0166166 0.00793448
0.024706 0.0197079 0.0166513
0.0247661 0.0159019 0.0144068
0.0184788 0.0168805 0.0155413
0.0200592 0.0152714 0.0162375
0.0217934 0.0235928 0.0151561
0.0262769 0.0162188 0.00823536
0.0198838 0.0238703 0.0148016
0.0158127 0.0226654 0.0159045
0.0207862 0.0138144 0.0138699
0.0169008 0.0235006 0.0135242
0.0199621 0.0209401 0.016499
0.0227871 0.0231373 0.0130482
0.0381686 0.0197868 0.00591052
0.019236 0.0205001 0.0170815
0.0202802 0.023075 0.0162733
0.0185097 0.0139827 0.0130271
0.0251041 0.016938 0.0159324
0.0208723 0.0238151 0.0148666
0.0201673 0.0239275 0.015759
0.0205511 0.0221925 0.0156794
0.0199389 0.0174262 0.0156386
0.0199425 0.0152329 0.0137899
0.0182384 0.0236361 0.0154382
0.0203184 0.0229882 0.0149741
0.0212271 0.0227462 0.0164523
0.0198648 0.015248 0.0095241
0.019222 0.0236356 0.0156161

VERTICES 167 334
1 0
1 1
1 2
1 3
1 4
1 5
1 6
1 7
1 8
1 9
1 10
1 11
1 12
1 13
1 14
1 15
1 16
1 17
1 18
1 19
1 20
1 21
1 22
1 23
1 24
1 25
1 26
1 27
1 28
1 29
1 30
1 31
1 32
1 33
1 34
1 35
1 36
1 37
1 38
1 39
1 40
1 41
1 42
1 43
1 44
1 45
1 46
1 47
1 48
1 49
1 50
1 51
1 52
1 53
1 54
1 55
1 56
1 57
1 58
1 59
1 60
1 61
1 62
1 63
1 64
1 65
1 66
1 67
1 68
1 69
1 70
1 71
1 72
1 73
1 74
1 75
1 76
1 77
1 78
1 79
1 80
1 81
1 82
1 83
1 84
1 85
1 86
1 87
1 88
1 89
1 90
1 91
1 92
1 93
1 94
1 95
1 96
1 97
1 98
1 99
1 100
1 101
1 102
1 103
1 104
1 105
1 106
1 107
1 108
1 109
1 110
1 111
1 112
1 113
1 114
1 115
1 116
1 117
1 118
1 119
1 120
1 121
1 122
1 123
1 124
1 125
1 126
1 127
1 128
1 129
1 130
1 131
1 132
1 133
1 134
1 135
1 136
1 137
1 138
1 139
1 140
1 141
1 142
1 143
1 144
1 145
1 146
1 147
1 148
1 149
1 150
1 151
1 152
1 153
1 154
1 155
1 156
1 157
1 158
1 159
1 160
1 161
1 162
1 163
1 164
1 165
1 166

POINT_DATA 167
SCALARS id int 1
LOOKUP_TABLE default
1
2
4
5
6
7
8
10
11
12
13
14
15
16
17
18
19
20
21
22
23
24
25
26
27
29
30
31
34
35
36
37
38
39
40
41
42
43
44
45
46
48
49
50
51
52
53
54
55
57
58
59
60
61
62
63
64
65
66
68
69
70
71
72
74
75
76
77
78
79
81
82
83
84
85
86
87
88
89
90
91
92
93
95
96
97
98
99
102
103
105
106
107
108
109
110
111
112
113
114
115
117
118
119
120
122
123
124
125
126
127
128
129
131
132
133
134
135
136
137
138
139
140
141
142
143
144
146
147
148
149
150
151
152
153
154
155
156
157
158
160
161
163
164
166
167
168
169
170
171
173
174
175
176
177
178
179
180
181
182
183
184
185
187
188
189
190

SCALARS type int 1
LOOKUP_TABLE default
1
1
1
1
1
1
1
1
1
1
1
1
1
1
1
1
1
1
1
1
1
1
1
1
1
1
1
1
1
1
1
1
1
1
1
1
1
1
1
1
1
1
1
1
1
1
1
1
1
1
1
1
1
1
1
1
1
1
1
1
1
1
1
1
1
1
1
1
1
1
1
1
1
1
1
1
1
1
1
1
1
1
1
1
1
1
1
1
1
1
1
1
1
1
1
1
1
1
1
1
1
1
1
1
1
1
1
1
1
1
1
1
1
1
1
1
1
1
1
1
1
1
1
1
1
1
1
1
1
1
1
1
1
1
1
1
1
1
1
1
1
1
1
1
1
1
1
1
1
1
1
1
1
1
1
1
1
1
1
1
1
1
1
1
1
1
1

SCALARS radius float 1
LOOKUP_TABLE default
0.0005
0.0005
0.0005
0.0005
0.0005
0.0005
0.0005
0.0005
0.0005
0.0005
0.0005
0.0005
0.0005
0.0005
0.0005
0.0005
0.0005
0.0005
0.0005
0.0005
0.0005
0.0005
0.0005
0.0005
0.0005
0.0005
0.0005
0.0005
0.0005
0.0005
0.0005
0.0005
0.0005
0.0005
0.0005
0.0005
0.0005
0.0005
0.0005
0.0005
0.0005
0.0005
0.0005
0.0005
0.0005
0.0005
0.0005
0.0005
0.0005
0.0005
0.0005
0.0005
0.0005
0.0005
0.0005
0.0005
0.0005
0.0005
0.0005
0.0005
0.0005
0.0005
0.0005
0.0005
0.0005
0.0005
0.0005
0.0005
0.0005
0.0005
0.0005
0.0005
0.0005
0.0005
0.0005
0.0005
0.0005
0.0005
0.0005
0.0005
0.0005
0.0005
0.0005
0.0005
0.0005
0.0005
0.0005
0.0005
0.0005
0.0005
0.0005
0.0005
0.0005
0.0005
0.0005
0.0005
0.0005
0.0005
0.0005
0.0005
0.0005
0.0005
0.0005
0.0005
0.0005
0.0005
0.0005
0.0005
0.0005
0.0005
0.0005
0.0005
0.0005
0.0005
0.0005
0.0005
0.0005
0.0005
0.0005
0.0005
0.0005
0.0005
0.0005
0.0005
0.0005
0.0005
0.0005
0.0005
0.0005
0.0005
0.0005
0.0005
0.0005
0.0005
0.0005
0.0005
0.0005
0.0005
0.0005
0.0005
0.0005
0.0005
0.0005
0.0005
0.0005
0.0005
0.0005
0.0005
0.0005
0.0005
0.0005
0.0005
0.0005
0.0005
0.0005
0.0005
0.0005
0.0005
0.0005
0.0005
0.0005
0.0005
0.0005
0.0005
0.0005
0.0005
0.0005

SCALARS mass float 1
LOOKUP_TABLE default
5.23599e-07
5.23599e-07
5.23599e-07
5.23599e-07
5.23599e-07
5.23599e-07
5.23599e-07
5.23599e-07
5.23599e-07
5.23599e-07
5.23599e-07
5.23599e-07
5.23599e-07
5.23599e-07
5.23599e-07
5.23599e-07
5.23599e-07
5.23599e-07
5.23599e-07
5.23599e-07
5.23599e-07
5.23599e-07
5.23599e-07
5.23599e-07
5.23599e-07
5.23599e-07
5.23599e-07
5.23599e-07
5.23599e-07
5.23599e-07
5.23599e-07
5.23599e-07
5.23599e-07
5.23599e-07
5.23599e-07
5.23599e-07
5.23599e-07
5.23599e-07
5.23599e-07
5.23599e-07
5.23599e-07
5.23599e-07
5.23599e-07
5.23599e-07
5.23599e-07
5.23599e-07
5.23599e-07
5.23599e-07
5.23599e-07
5.23599e-07
5.23599e-07
5.23599e-07
5.23599e-07
5.23599e-07
5.23599e-07
5.23599e-07
5.23599e-07
5.23599e-07
5.23599e-07
5.23599e-07
5.23599e-07
5.23599e-07
5.23599e-07
5.23599e-07
5.23599e-07
5.23599e-07
5.23599e-07
5.23599e-07
5.23599e-07
5.23599e-07
5.23599e-07
5.23599e-07
5.23599e-07
5.23599e-07
5.23599e-07
5.23599e-07
5.23599e-07
5.23599e-07
5.23599e-07
5.23599e-07
5.23599e-07
5.23599e-07
5.23599e-07
5.23599e-07
5.23599e-07
5.23599e-07
5.23599e-07
5.23599e-07
5.23599e-07
5.23599e-07
5.23599e-07
5.23599e-07
5.23599e-07
5.23599e-07
5.23599e-07
5.23599e-07
5.23599e-07
5.23599e-07
5.23599e-07
5.23599e-07
5.23599e-07
5.23599e-07
5.23599e-07
5.23599e-07
5.23599e-07
5.23599e-07
5.23599e-07
5.23599e-07
5.23599e-07
5.23599e-07
5.23599e-07
5.23599e-07
5.23599e-07
5.23599e-07
5.23599e-07
5.23599e-07
5.23599e-07
5.23599e-07
5.23599e-07
5.23599e-07
5.23599e-07
5.23599e-07
5.23599e-07
5.23599e-07
5.23599e-07
5.23599e-07
5.23599e-07
5.23599e-07
5.23599e-07
5.23599e-07
5.23599e-07
5.23599e-07
5.23599e-07
5.23599e-07
5.23599e-07
5.23599e-07
5.23599e-07
5.23599e-07
5.23599e-07
5.23599e-07
5.23599e-07
5.23599e-07
5.23599e-07
5.23599e-07
5.23599e-07
5.23599e-07
5.23599e-07
5.23599e-07
5.23599e-07
5.23599e-07
5.23599e-07
5.23599e-07
5.23599e-07
5.23599e-07
5.23599e-07
5.23599e-07
5.23599e-07
5.23599e-07
5.23599e-07
5.23599e-07
5.23599e-07
5.23599e-07
5.23599e-07
5.23599e-07
5.23599e-07
5.23599e-07
5.23599e-07

VECTORS velocity float
-0.00248717 -0.00597752 -0.00503568
0.0031052 0.0105051 -0.0415257
-0.023249 0.0936651 -0.0191965
0.00167161 0.0419564 0.00204861
0.0376227 0.157145 -0.128883
0.592337 -4.65974 1.12439
0.00125025 -0.0418887 -0.021727
0.00539411 -0.0279596 -0.024376
-0.00209634 0.000862193 -0.000505881
-0.00263117 -0.0143191 -0.00220573
0.000197646 -0.0517679 -0.014064
0.00376589 0.00335435 0.0055798
-2.45975e-05 -0.00772648 0.0526495
0.00405807 -0.0128468 -0.00377269
0.00176681 0.0287703 -0.0255328
0.00296065 0.00499385 -0.00255413
0.0013799 -0.00533025 0.00343869
0.000769616 0.00144751 -0.00040356
0.0043752 -0.171449 0.101285
5.77657e-05 0.00353598 0.00495846
0.00973304 0.0102467 0.00207702
-0.0590489 0.0108324 -0.0633541
0.0124301 -0.00490445 -0.00875889
0.00610074 0.000293065 -0.00480632
0.000277036 0.04885 -0.014994
0.0010964 0.00775752 0.0014174
0.00111209 0.00218126 -0.00190412
0.0108099 0.00691965 -0.0238669
0.000626667 -0.00410282 0.00196849
-0.0201479 -0.0050159 -0.0177922
-0.000742275 0.00404643 -0.00339684
-0.0159452 0.00583955 -0.0166208
-0.00231443 0.00144674 -0.00540682
-0.00611162 0.00217303 -0.0157552
0.0065437 0.00261068 -0.00706983
0.0315561 -0.00851882 -0.0266746
0.00165822 0.0398196 0.0355628
0.000749156 -0.00615978 0.0104806
0.00051126 -0.0376628 -0.0336997
-7.29505e-15 3.48426e-14 -1.72292e-13
0.000110622 -0.00035406 0.000404604
0.00225962 0.00565965 -0.00550286
-0.00162291 -0.000420446 0.00326411
0.0115097 -0.00210118 0.00488483
0.00175822 0.000813752 0.00194148
0.00457568 -0.00334591 -0.0118258
-4.91101e-08 0.055821 -0.0218789
0.00114895 -0.000176817 0.000708473
-0.0215229 0.0262799 0.00515333
0.0036442 0.00749605 0.000413131
-0.00333749 0.00484079 -0.00807459
0.00412187 -0.0336041 -0.0171679
0.00346603 -0.000925429 0.00277978
-0.0273266 -0.00224298 0.00507193
0.000880736 -0.0016784 -0.000938461
-0.000280827 0.0315127 0.0745677
0.00110493 0.00586672 -0.00228867
0.0204583 0.0174144 -0.012221
-0.000974327 0.00498949 -0.012631
-0.0114697 -0.0176404 -0.0292401
0.0238244 0.0209857 -0.0454821
-0.0152756 -0.00136229 0.00109842
0.00276233 0.00227672 -0.00096906
0.000468286 0.0633356 0.0101802
0.00154153 -0.00205631 0.00168505
-0.00259516 -0.00187522 2.13198e-06
0.00236346 -0.000861783 0.00113582
0.00568536 0.00571579 0.030894
0.00746278 0.00157218 -0.0104357
0.00510147 -0.00759079 -6.33002e-05
-0.00528439 0.00516422 -0.00441762
-4.39595e-14 9.36739e-14 3.39371e-13
0.00538327 0.00262455 -0.00495805
1.72039e-18 2.95775e-18 -1.85522e-17
0.0132281 0.00686129 -0.0115495
-0.0188221 0.00180768 -0.020253
0.00244405 -0.00162925 -0.00379797
-0.012427 0.0260951 0.0921703
0.000327392 0.0486125 -0.0243204
0.00788999 0.00153457 0.0190181
-0.00646137 0.0220078 0.000370187
0.00379477 -0.00318573 -0.0197175
0.00430472 -0.00572455 -0.0259718
-8.75226e-07 0.04964 0.00262071
0.00733957 0.0762082 0.00119458
0.00818928 -0.00437055 -0.00878972
-0.00628561 0.000200798 0.000929438
0.000790043 0.000274263 -0.000700154
0.0103612 0.022262 -0.00416846
-0.00512617 -0.00189158 0.00266999
-8.04931e-16 3.67919e-15 -1.82465e-14
0.00287697 0.00606761 -0.00621136
0.000451093 -0.0285467 0.0108839
-0.0900752 -0.760541 0.236693
0.000243583 0.0164462 0.0491234
0.00247805 0.00710803 0.0102914
0.031886 0.0168768 0.0532721
0.0068655 0.00747962 -0.00375653
0.000427776 0.00456209 0.00175108
0.00213867 -0.000818473 0.00126033
0.000574804 -0.0499805 0.0079352
0.0175356 0.00975195 0.011068
0.00504602 0.00358841 0.0018479
0.00392929 0.0580613 0.0164982
0.000614696 0.00104364 0.000287043
0.00353821 0.00262875 0.00248957
0.00197041 0.00231484 -0.00272892
0.00762461 -0.0763168 -0.0977731
0.00843746 0.00988596 -0.00751271
-0.00725865 0.0186515 -0.0185661
-0.0069359 -0.004438 -0.000272097
0.000337748 0.0232444 -0.0474938
0.00142908 0.0227847 0.0486359
0.00355005 -0.00235577 0.00432835
0.000892563 -6.93574e-05 0.00108934
0.00307392 0.00509131 -0.00118909
-0.00202345 0.00714847 -0.0048639
-0.00170709 0.0104895 -0.00163423
0.00525361 -0.00468027 0.00670249
0.00996455 0.0244086 -0.00140485
-0.0145156 0.00309877 0.00275684
-0.000590212 -0.014085 -0.0437715
0.00639091 0.00951621 -0.00323041
0.0176122 -0.00731065 0.00809577
-2.73987e-18 -6.32197e-18 -2.20382e-17
0.00299922 0.00369161 -0.000340219
0.00073858 0.0035019 -0.00487261
0.00281312 0.0357233 -0.00866494
-0.0149787 -0.00336004 -0.0129428
-4.11278e-05 0.000684249 -0.0144439
-0.00225752 0.000318473 0.00286635
2.89336e-05 0.000102069 -0.00497359
0.000201063 0.0328795 -0.0405183
0.0151159 -0.00684175 -0.0126641
-0.00310295 0.00274599 0.000524165
0.000662073 0.00634752 -0.048825
0.00280629 0.00181374 0.000430239
-0.000172299 0.00136232 -2.12962e-05
-0.00130399 0.0168581 0.00608224
-0.00452512 -0.0370544 0.0285525
-8.75804e-06 0.0624861 0.0755987
0.000343001 0.0343505 0.0387573
0.0123806 0.0233131 -0.0261402
-0.0123899 -0.0215036 -0.0116864
-0.00184485 0.00155278 0.000142004
0.00111073 -0.039767 0.0324019
-0.00198922 0.00026273 0.000840006
-0.0288162 0.0862546 -0.0639412
0.005144 -0.00185129 -0.0077021
0.00862706 0.00646441 -0.000966136
-0.0161348 0.0500415 -0.0358457
0.00240951 0.0103669 -0.0309538
1.04085e-14 -4.97198e-14 2.45846e-13
0.0128676 0.011408 -0.0385048
-0.00823328 -0.0114627 -0.0193285
-0.000891279 -0.00176791 0.00594975
0.00747816 0.0236927 0.0489982
-0.00182644 0.000685268 0.000495664
0.000676522 -0.00431963 0.00263552
-0.00351769 0.00109485 0.00319642
0.000893789 0.00506645 0.0173376
0.00651207 0.00432967 -0.00223705
-0.00186949 0.00200685 0.000554679
-0.00440597 0.00107665 0.000435111
0.000668331 0.00827194 0.00698422
0.00756693 -0.0200255 0.0425855
-0.000990549 -0.0010538 0.000901712

VECTORS force float
-3.52579e-06 -5.46763e-05 2.04923e-05
-0.000301695 0.000541162 -0.00212007
0.0 0.0 -5.1365e-06
7.91232e-08 -6.78692e-07 -2.67807e-07
0.0 0.0 -5.1365e-06
0.0110243 0.158232 -0.12367
6.06571e-05 0.000144473 9.1032e-05
-0.000198242 0.000213228 -0.000306644
3.3367e-05 6.56852e-06 4.06038e-07
1.07865e-06 3.25159e-06 -1.29875e-05
3.56161e-10 -9.8232e-08 1.96342e-07
-3.11877e-06 1.08973e-05 -1.20354e-06
7.46829e-07 1.92893e-07 6.81748e-08
-6.55757e-06 -4.45707e-07 -3.23999e-06
0.0 0.0 -5.1365e-06
1.73593e-05 -4.10992e-05 1.0735e-05
-8.4109e-06 5.45491e-07 -2.81639e-06
-3.32885e-06 -3.67838e-06 2.13434e-05
6.70854e-05 -0.00476615 0.00374022
-1.93307e-07 -1.19208e-06 -1.13447e-07
-1.86694e-06 -1.04636e-05 1.58791e-05
0.0 0.0 -5.1365e-06
0.0 0.0 -5.1365e-06
-2.48678e-05 9.21118e-07 1.63727e-05
2.36909e-08 -1.73202e-07 -1.46187e-07
-1.2255e-05 -2.1364e-05 7.15712e-06
6.02281e-06 -1.46446e-05 -1.19603e-06
-6.64858e-06 -4.82026e-06 2.0192e-05
-7.66094e-06 -1.39178e-06 -1.6818e-06
0.0 0.0 -5.1365e-06
-4.64319e-06 3.63582e-06 -1.15673e-05
0.0 0.0 -5.1365e-06
-3.30917e-07 7.81137e-07 -4.00842e-06
-1.91413e-06 1.39604e-06 -2.01674e-06
2.36396e-07 4.37086e-08 -4.83931e-06
1.27864e-06 3.48637e-06 1.68439e-06
0.0 0.0 -5.1365e-06
1.12894e-05 0.00010134 -6.79901e-05
-1.74883e-08 -2.34291e-07 8.4863e-08
7.67624e-22 -1.05879e-21 0.0
2.86956e-06 -1.66378e-06 2.03621e-05
0.0 0.0 -5.1365e-06
2.06201e-05 1.07746e-05 5.86933e-06
7.23442e-06 -2.09983e-06 -1.75026e-06
1.92406e-06 5.98809e-06 1.36623e-05
1.67213e-05 1.28395e-05 6.84471e-06
-1.79222e-10 -1.30282e-07 -3.28242e-07
-6.53133e-06 9.06215e-06 -8.80669e-06
0.0 0.0 -5.1365e-06
1.63669e-05 8.65917e-06 3.74208e-06
0.0 0.0 -5.1365e-06
-6.16294e-05 6.50259e-05 2.31875e-05
-6.07153e-07 2.52483e-06 -5.28545e-06
-6.69343e-06 -1.17932e-05 7.31867e-06
2.0325e-05 -2.38081e-05 3.4549e-05
0.0 0.0 -5.1365e-06
1.37052e-05 -2.77899e-06 8.46721e-06
-1.08013e-06 1.31008e-06 1.45276e-06
0.0 0.0 -5.1365e-06
0.0 0.0 -5.1365e-06
0.0 0.0 -5.1365e-06
5.4063e-06 4.55887e-06 -1.435e-05
-2.46571e-07 2.55715e-06 -4.37034e-06
7.82376e-06 -4.84483e-05 -0.000241365
4.41536e-06 -4.77522e-05 3.6371e-05
0.0 0.0 -5.1365e-06
-1.89157e-05 -2.01968e-06 -7.8463e-06
2.58028e-06 3.31333e-06 1.29633e-06
0.0 0.0 -5.1365e-06
0.0 0.0 -5.1365e-06
0.0 0.0 -5.1365e-06
-1.05879e-22 -4.23516e-22 0.0
-4.03111e-09 -4.04154e-08 -5.24685e-06
-1.05879e-21 3.59989e-21 3.38813e-21
0.0 0.0 -5.1365e-06
-1.64497e-06 -1.80048e-06 1.52719e-05
-1.6581e-05 9.27333e-06 -1.01939e-05
0.0 0.0 -5.1365e-06
2.57858e-08 -1.14707e-07 -2.13236e-07
-1.88487e-05 -2.98622e-05 -1.13447e-05
-1.45209e-05 -2.15661e-05 3.02335e-05
0.0 0.0 -5.1365e-06
-7.54989e-07 -9.06217e-06 -2.06218e-05
1.97317e-09 -3.83551e-08 -2.85125e-07
-5.92894e-06 -0.000180858 4.79416e-05
-1.07865e-06 -3.25159e-06 2.71452e-06
0.0 0.0 -5.1365e-06
-2.28293e-06 -4.29574e-06 -8.73411e-07
5.55234e-06 -6.15148e-06 1.53138e-05
-1.09596e-06 7.68597e-06 -3.30175e-05
-9.26442e-20 -2.22346e-20 0.0
2.92492e-05 -4.17042e-06 7.26026e-06
-0.00054881 -6.44807e-05 -0.000107047
0.0165099 0.0326565 -0.0281337
-6.24099e-08 2.45269e-07 7.8126e-08
-1.28271e-07 -1.53049e-06 -4.06598e-07
0.0 0.0 -5.1365e-06
-1.23713e-06 -7.18411e-06 -1.30763e-06
2.50278e-05 -3.4072e-05 -1.53866e-06
0.0 0.0 -5.1365e-06
-3.02692e-08 -7.74665e-08 2.22711e-07
3.47116e-06 1.46356e-06 -2.14466e-06
-2.06338e-05 -3.2178e-05 -5.62126e-05
-1.37527e-05 -5.57889e-05 -0.000114511
1.16136e-05 -1.89199e-05 1.73224e-05
-5.25193e-06 -1.75755e-05 1.36458e-06
4.85013e-06 -2.50927e-05 6.72475e-07
0.0 0.0 -5.1365e-06
5.54746e-06 -7.63515e-06 5.31031e-06
7.87514e-06 -5.87904e-06 -2.94333e-06
0.0 0.0 -5.1365e-06
5.85845e-08 -1.68798e-07 -1.29907e-07
-1.41915e-05 -4.25698e-05 -0.000103471
-3.9913e-05 -0.000504771 0.000383245
1.81007e-06 5.67177e-06 1.29679e-06
-1.84488e-05 1.48083e-05 0.000135487
-9.30384e-07 -1.435e-05 1.14108e-05
-8.89284e-07 -1.02514e-06 8.27899e-06
0.0 0.0 -5.1365e-06
-3.07697e-06 1.09039e-05 9.43398e-06
0.0 0.0 -5.1365e-06
0.0 0.0 -5.1365e-06
9.30127e-06 -5.17978e-05 3.03649e-05
0.0 0.0 -5.1365e-06
1.27055e-21 1.05879e-21 2.5411e-21
-4.20204e-06 -9.22201e-06 -1.67119e-05
0.0 0.0 -5.1365e-06
3.01625e-06 2.93151e-06 1.86382e-07
0.0 0.0 -5.1365e-06
7.67039e-06 1.71182e-06 2.50359e-05
1.23156e-05 -2.31337e-05 6.74714e-06
2.58752e-05 1.13924e-05 -1.19329e-06
-1.13894e-08 -1.16088e-07 -2.16059e-07
1.19589e-06 3.27398e-07 -4.22813e-06
-1.65805e-05 -3.73847e-05 -1.6197e-05
-4.18757e-08 -1.97097e-07 -2.0827e-07
9.43505e-07 -1.13071e-06 -2.11311e-06
-1.39724e-07 -4.29956e-07 -5.31428e-06
-2.54855e-08 -4.74474e-08 1.85879e-07
-0.000366709 -0.000108992 -6.5748e-05
0.0 0.0 -5.1365e-06
-6.36515e-08 3.72426e-07 5.54347e-08
0.0 0.0 -5.1365e-06
-3.03349e-06 -4.05332e-06 9.12203e-06
3.68524e-05 -1.21046e-05 -5.18009e-06
2.04259e-08 1.22704e-07 1.87355e-07
1.28221e-05 -9.17313e-06 1.16389e-05
0.0 0.0 -5.1365e-06
-2.58752e-05 -1.13924e-05 -9.07972e-06
-3.34772e-05 2.41877e-05 2.97614e-05
0.0 0.0 -5.1365e-06
-1.39962e-05 -6.94217e-05 0.00020474
-4.42045e-21 -1.14349e-20 -1.69407e-21
0.0 0.0 -5.1365e-06
0.0 0.0 -5.1365e-06
2.21947e-06 -7.51314e-08 4.45894e-06
0.0 0.0 -5.1365e-06
-1.09787e-05 -2.59741e-05 5.98832e-05
-2.72366e-07 6.47994e-06 -5.17272e-06
-1.19845e-05 -2.65012e-05 1.65527e-05
0.0 0.0 -5.1365e-06
0.0 0.0 -5.1365e-06
2.9284e-05 -1.41455e-05 -3.91596e-05
-7.33388e-06 1.04975e-05 -2.47635e-06
9.15308e-06 -3.37081e-05 -2.74953e-06
-1.5983e-05 2.29782e-05 -6.85267e-05
1.34846e-05 -8.22043e-06 2.00956e-07
