# vtk DataFile Version 3.0
LIGGGHTS particles timestep 2400000
ASCII
DATASET POLYDATA
POINTS 167 float
0.0239519 0.0156751 0.0149212
0.027568 0.0189216 0.0158464
0.0225628 0.0203857 0.0169377
0.0295267 0.0153054 0.00940781
0.0220942 0.0209018 0.0161996
0.0277806 0.0180369 0.0156897
0.0270483 0.0212522 0.0151936
0.0272456 0.0204166 0.0155972
0.0183468 0.0233701 0.0144929
0.0208307 0.0146202 0.0143492
0.0210843 0.0234496 0.0121871
0.0206578 0.0237602 0.0158936
0.0191788 0.021715 0.00809772
0.0201756 0.0150856 0.014944
0.0189753 0.014304 0.0137427
0.0225199 0.019672 0.0159167
0.0197439 0.0238688 0.0141115
0.0219766 0.0240254 0.0143488
0.0172179 0.0240176 0.0130952
0.0220341 0.01951 0.0168485
0.0191434 0.0206817 0.0164837
0.0232756 0.014878 0.0105549
0.0168964 0.0147092 0.0124616
0.0164246 0.0236491 0.013566
0.0292601 0.0148738 0.0106071
0.01855 0.0227424 0.0152451
0.0230064 0.0213359 0.0153304
0.0164562 0.022743 0.0139586
0.0197096 0.0242026 0.0131503
0.0182004 0.0228043 0.0161898
0.0224818 0.0233894 0.0137481
0.0220578 0.0236524 0.0171284
0.0221923 0.0144316 0.0141265
0.0233399 0.0193623 0.0169362
0.0162779 0.0231608 0.0163005
0.0171506 0.0242922 0.0140497
0.0239431 0.0164913 0.00804523
0.0186191 0.0241002 0.0129619
0.0207466 0.0225545 0.0142609
0.0406138 0.0191626 0.00568074
0.0207034 0.0240116 0.0130033
0.0165666 0.023146 0.0173479
0.02367 0.0179156 0.0158398
0.0192936 0.0147875 0.0145646
0.0234993 0.0190983 0.0159428
0.0215416 0.023675 0.0135136
0.0236527 0.0216516 0.0171521
0.0250034 0.021556 0.0161269
0.0231147 0.0162273 0.0149397
0.0162853 0.021899 0.0157782
0.022653 0.0151007 0.0135432
0.020504 0.023109 0.0133335
0.019515 0.0140097 0.0129542
0.0197408 0.0214484 0.0162044
0.0224339 0.0230056 0.0164366
0.0236528 0.0206094 0.0168657
0.0167881 0.0221556 0.0146901
0.0204967 0.0140659 0.013136
0.0167157 0.0145625 0.0134338
0.0158061 0.0270203 0.0255589
0.0158211 0.0235897 0.0143622
0.0210957 0.0223362 0.0163225
0.0146129 0.0232282 0.0151877
0.0234806 0.0151869 0.00961062
0.0207357 0.0239931 0.0140174
0.0230146 0.0146822 0.0146369
0.0187656 0.0242436 0.01411
0.0187794 0.020013 0.00728665
0.0172305 0.015977 0.0147107
0.0155759 0.023052 0.015384
0.023724 0.0228035 0.0151584
0.0225637 0.0195823 0.0058395
0.0148338 0.0226015 0.0159343
0.0336017 0.0195831 0.00585649
0.0173626 0.0152314 0.0138029
0.0171771 0.0227259 0.0162148
0.0223162 0.0235637 0.0151711
0.0228053 0.0227203 0.0155524
0.029029 0.0147625 0.0114745
0.0307599 0.019981 0.00733066
0.0154468 0.0206498 0.015662
0.0216799 0.0187515 0.0159732
0.0210231 0.0218862 0.0149825
0.0181619 0.016254 0.014966
0.023364 0.0154755 0.0141376
0.0224301 0.0156881 0.0144245
0.0221454 0.0166693 0.0152519
0.0230753 0.0233086 0.0145728
0.0180797 0.0182998 0.0177761
0.0245435 0.0159002 0.0156964
0.0389148 0.0189256 0.00570476
0.0158174 0.0223488 0.0146852
0.0200876 0.0234651 0.0116269
0.0280335 0.0169842 0.0152196
0.0247758 0.0199494 0.00731478
0.018273 0.0149215 0.0141012
0.0252833 0.0198536 0.0167344
0.0148885 0.0222449 0.0150123
0.0231856 0.0204143 0.0157391
0.0246029 0.0206463 0.0165292
0.0261026 0.0233646 0.011772
0.0185185 0.0140658 0.0128612
0.0170117 0.0233939 0.0144348
0.0240731 0.0157808 0.00861363
0.0165515 0.0228394 0.0153913
0.0179843 0.0238203 0.0136828
0.0216277 0.0232864 0.015842
0.0229605 0.0215685 0.0163154
0.0212437 0.0209507 0.0156759
0.0220013 0.0214874 0.0152405
0.0170903 0.0237256 0.0160039
0.0284127 0.0156378 0.0141335
0.0304284 0.0186128 0.00719214
0.0156217 0.0230482 0.0135385
0.0244075 0.0222263 0.0156841
0.0226904 0.0184296 0.0158987
0.0155613 0.0215281 0.0151969
0.0190695 0.0220978 0.0158139
0.0215361 0.0200562 0.0160739
0.0162741 0.0162065 0.014916
0.0211498 0.0238515 0.0167592
0.0184799 0.0213836 0.016191
0.0221903 0.0183949 0.0167801
0.0177315 0.0219676 0.0158679
0.0327957 0.0190095 0.00571076
0.0227891 0.0221241 0.0147232
0.0181724 0.0139291 0.0142103
0.0164254 0.0170457 0.0154725
0.018823 0.0241413 0.0164837
0.0216835 0.0227751 0.0139282
0.0207996 0.0228472 0.0153548
0.0213651 0.0142104 0.0136103
0.0286798 0.0150917 0.0128814
0.017742 0.0146234 0.0119356
0.0175325 0.0227276 0.0152429
0.028245 0.0161833 0.0147095
0.0184313 0.0144911 0.0149951
0.0255953 0.0207903 0.0164857
0.018455 0.0201193 0.017279
0.0205238 0.023332 0.0107479
0.0239419 0.0214319 0.0161586
0.0243487 0.0182437 0.00729993
0.0164893 0.0155281 0.0142091
0.0219295 0.0176163 0.0157101
0.0212474 0.02336 0.0146174
0.0257178 0.023116 0.00996112
0.0191271 0.0237988 0.0149353
0.0216474 0.0215899 0.0168882
0.0199569 0.0144016 0.0139077
0.0150592 0.022933 0.0143341
0.0235331 0.0223752 0.0161456
0.0219284 0.0225721 0.0150476
0.0381686 0.0197868 0.00591052
0.0207195 0.0213406 0.0164962
0.0193089 0.0230117 0.0161426
0.0175874 0.0140613 0.0134106
0.0242916 0.0196417 0.0167471
0.020137 0.0237604 0.0150402
0.0195525 0.0239308 0.0158331
0.020053 0.022272 0.0157284
0.0221209 0.0221083 0.0160433
0.0180439 0.0149045 0.0131281
0.0176468 0.0236953 0.0151257
0.0195903 0.0229346 0.0150711
0.0216783 0.0227255 0.0170819
0.0195212 0.0226274 0.00917861
0.018477 0.0236548 0.0156814

VERTICES 167 334
1 0
1 1
1 2
1 3
1 4
1 5
1 6
1 7
1 8
1 9
1 10
1 11
1 12
1 13
1 14
1 15
1 16
1 17
1 18
1 19
1 20
1 21
1 22
1 23
1 24
1 25
1 26
1 27
1 28
1 29
1 30
1 31
1 32
1 33
1 34
1 35
1 36
1 37
1 38
1 39
1 40
1 41
1 42
1 43
1 44
1 45
1 46
1 47
1 48
1 49
1 50
1 51
1 52
1 53
1 54
1 55
1 56
1 57
1 58
1 59
1 60
1 61
1 62
1 63
1 64
1 65
1 66
1 67
1 68
1 69
1 70
1 71
1 72
1 73
1 74
1 75
1 76
1 77
1 78
1 79
1 80
1 81
1 82
1 83
1 84
1 85
1 86
1 87
1 88
1 89
1 90
1 91
1 92
1 93
1 94
1 95
1 96
1 97
1 98
1 99
1 100
1 101
1 102
1 103
1 104
1 105
1 106
1 107
1 108
1 109
1 110
1 111
1 112
1 113
1 114
1 115
1 116
1 117
1 118
1 119
1 120
1 121
1 122
1 123
1 124
1 125
1 126
1 127
1 128
1 129
1 130
1 131
1 132
1 133
1 134
1 135
1 136
1 137
1 138
1 139
1 140
1 141
1 142
1 143
1 144
1 145
1 146
1 147
1 148
1 149
1 150
1 151
1 152
1 153
1 154
1 155
1 156
1 157
1 158
1 159
1 160
1 161
1 162
1 163
1 164
1 165
1 166

POINT_DATA 167
SCALARS id int 1
LOOKUP_TABLE default
1
2
4
5
6
7
8
10
11
12
13
14
15
16
17
18
19
20
21
22
23
24
25
26
27
29
30
31
34
35
36
37
38
39
40
41
42
43
44
45
46
48
49
50
51
52
53
54
55
57
58
59
60
61
62
63
64
65
66
68
69
70
71
72
74
75
76
77
78
79
81
82
83
84
85
86
87
88
89
90
91
92
93
95
96
97
98
99
102
103
105
106
107
108
109
110
111
112
113
114
115
117
118
119
120
122
123
124
125
126
127
128
129
131
132
133
134
135
136
137
138
139
140
141
142
143
144
146
147
148
149
150
151
152
153
154
155
156
157
158
160
161
163
164
166
167
168
169
170
171
173
174
175
176
177
178
179
180
181
182
183
184
185
187
188
189
190

SCALARS type int 1
LOOKUP_TABLE default
1
1
1
1
1
1
1
1
1
1
1
1
1
1
1
1
1
1
1
1
1
1
1
1
1
1
1
1
1
1
1
1
1
1
1
1
1
1
1
1
1
1
1
1
1
1
1
1
1
1
1
1
1
1
1
1
1
1
1
1
1
1
1
1
1
1
1
1
1
1
1
1
1
1
1
1
1
1
1
1
1
1
1
1
1
1
1
1
1
1
1
1
1
1
1
1
1
1
1
1
1
1
1
1
1
1
1
1
1
1
1
1
1
1
1
1
1
1
1
1
1
1
1
1
1
1
1
1
1
1
1
1
1
1
1
1
1
1
1
1
1
1
1
1
1
1
1
1
1
1
1
1
1
1
1
1
1
1
1
1
1
1
1
1
1
1
1

SCALARS radius float 1
LOOKUP_TABLE default
0.0005
0.0005
0.0005
0.0005
0.0005
0.0005
0.0005
0.0005
0.0005
0.0005
0.0005
0.0005
0.0005
0.0005
0.0005
0.0005
0.0005
0.0005
0.0005
0.0005
0.0005
0.0005
0.0005
0.0005
0.0005
0.0005
0.0005
0.0005
0.0005
0.0005
0.0005
0.0005
0.0005
0.0005
0.0005
0.0005
0.0005
0.0005
0.0005
0.0005
0.0005
0.0005
0.0005
0.0005
0.0005
0.0005
0.0005
0.0005
0.0005
0.0005
0.0005
0.0005
0.0005
0.0005
0.0005
0.0005
0.0005
0.0005
0.0005
0.0005
0.0005
0.0005
0.0005
0.0005
0.0005
0.0005
0.0005
0.0005
0.0005
0.0005
0.0005
0.0005
0.0005
0.0005
0.0005
0.0005
0.0005
0.0005
0.0005
0.0005
0.0005
0.0005
0.0005
0.0005
0.0005
0.0005
0.0005
0.0005
0.0005
0.0005
0.0005
0.0005
0.0005
0.0005
0.0005
0.0005
0.0005
0.0005
0.0005
0.0005
0.0005
0.0005
0.0005
0.0005
0.0005
0.0005
0.0005
0.0005
0.0005
0.0005
0.0005
0.0005
0.0005
0.0005
0.0005
0.0005
0.0005
0.0005
0.0005
0.0005
0.0005
0.0005
0.0005
0.0005
0.0005
0.0005
0.0005
0.0005
0.0005
0.0005
0.0005
0.0005
0.0005
0.0005
0.0005
0.0005
0.0005
0.0005
0.0005
0.0005
0.0005
0.0005
0.0005
0.0005
0.0005
0.0005
0.0005
0.0005
0.0005
0.0005
0.0005
0.0005
0.0005
0.0005
0.0005
0.0005
0.0005
0.0005
0.0005
0.0005
0.0005
0.0005
0.0005
0.0005
0.0005
0.0005
0.0005

SCALARS mass float 1
LOOKUP_TABLE default
5.23599e-07
5.23599e-07
5.23599e-07
5.23599e-07
5.23599e-07
5.23599e-07
5.23599e-07
5.23599e-07
5.23599e-07
5.23599e-07
5.23599e-07
5.23599e-07
5.23599e-07
5.23599e-07
5.23599e-07
5.23599e-07
5.23599e-07
5.23599e-07
5.23599e-07
5.23599e-07
5.23599e-07
5.23599e-07
5.23599e-07
5.23599e-07
5.23599e-07
5.23599e-07
5.23599e-07
5.23599e-07
5.23599e-07
5.23599e-07
5.23599e-07
5.23599e-07
5.23599e-07
5.23599e-07
5.23599e-07
5.23599e-07
5.23599e-07
5.23599e-07
5.23599e-07
5.23599e-07
5.23599e-07
5.23599e-07
5.23599e-07
5.23599e-07
5.23599e-07
5.23599e-07
5.23599e-07
5.23599e-07
5.23599e-07
5.23599e-07
5.23599e-07
5.23599e-07
5.23599e-07
5.23599e-07
5.23599e-07
5.23599e-07
5.23599e-07
5.23599e-07
5.23599e-07
5.23599e-07
5.23599e-07
5.23599e-07
5.23599e-07
5.23599e-07
5.23599e-07
5.23599e-07
5.23599e-07
5.23599e-07
5.23599e-07
5.23599e-07
5.23599e-07
5.23599e-07
5.23599e-07
5.23599e-07
5.23599e-07
5.23599e-07
5.23599e-07
5.23599e-07
5.23599e-07
5.23599e-07
5.23599e-07
5.23599e-07
5.23599e-07
5.23599e-07
5.23599e-07
5.23599e-07
5.23599e-07
5.23599e-07
5.23599e-07
5.23599e-07
5.23599e-07
5.23599e-07
5.23599e-07
5.23599e-07
5.23599e-07
5.23599e-07
5.23599e-07
5.23599e-07
5.23599e-07
5.23599e-07
5.23599e-07
5.23599e-07
5.23599e-07
5.23599e-07
5.23599e-07
5.23599e-07
5.23599e-07
5.23599e-07
5.23599e-07
5.23599e-07
5.23599e-07
5.23599e-07
5.23599e-07
5.23599e-07
5.23599e-07
5.23599e-07
5.23599e-07
5.23599e-07
5.23599e-07
5.23599e-07
5.23599e-07
5.23599e-07
5.23599e-07
5.23599e-07
5.23599e-07
5.23599e-07
5.23599e-07
5.23599e-07
5.23599e-07
5.23599e-07
5.23599e-07
5.23599e-07
5.23599e-07
5.23599e-07
5.23599e-07
5.23599e-07
5.23599e-07
5.23599e-07
5.23599e-07
5.23599e-07
5.23599e-07
5.23599e-07
5.23599e-07
5.23599e-07
5.23599e-07
5.23599e-07
5.23599e-07
5.23599e-07
5.23599e-07
5.23599e-07
5.23599e-07
5.23599e-07
5.23599e-07
5.23599e-07
5.23599e-07
5.23599e-07
5.23599e-07
5.23599e-07
5.23599e-07
5.23599e-07
5.23599e-07
5.23599e-07
5.23599e-07
5.23599e-07
5.23599e-07
5.23599e-07
5.23599e-07

VECTORS velocity float
0.00787064 0.00786557 0.00481033
0.00126245 0.0480053 0.000457504
0.00848097 -0.0675742 0.108489
0.00144253 -0.0213869 0.0425672
0.00693328 -0.0728713 0.0892093
0.00118736 0.047791 0.0155306
0.00788815 0.0197883 -0.00858905
0.00191586 0.036934 -0.0116312
-0.000677733 -0.00405663 0.00101412
-0.00317758 0.00333873 -0.00239848
-0.0221815 -0.0316255 -0.00628977
0.00093409 -0.000844108 -0.000927456
-0.000318325 -0.0288275 -0.0247062
-0.00520638 0.00327957 -0.00309482
-0.00614818 0.00625645 -0.00899533
0.0100456 0.0321088 -0.00675352
0.00680686 -0.0294024 -0.00220821
0.00905258 -0.00813269 -0.0140644
0.000414409 -0.000456106 -6.58655e-06
0.0129505 -0.0877968 0.0203012
-0.0181549 -0.0139191 0.00339636
0.00133241 -0.0165455 0.057982
0.0121603 0.00121277 -0.00205583
0.00118532 0.00155162 -0.000330312
-0.000102058 -0.0141143 0.0492581
-0.00043161 -0.00935736 -0.0096101
0.00751143 0.035013 -0.0202689
0.00417507 0.00355518 -0.00252319
0.0421924 0.0106792 -0.00315319
0.000763967 -0.000632668 -0.00259071
-0.000157529 -0.0107698 -0.0266536
0.00166904 -0.0011007 -0.00210322
0.000506253 0.00321822 -0.00372367
0.0695729 -0.130169 0.043459
-0.0280939 -0.0209454 -0.000179184
0.00195988 0.00124424 -0.00118908
0.16228 1.52879 0.0448248
0.000411411 0.00134179 -0.00112027
0.0185816 -0.0113941 0.00470864
-7.29457e-15 3.48449e-14 -1.72292e-13
0.00221824 0.0018396 -0.00170209
0.0977693 -0.077986 0.0237369
0.0220884 -0.0340309 -0.0457045
-0.000598848 -0.00418944 -0.00469139
0.00809231 0.0121459 -0.00182547
-0.00160964 -0.0197567 -0.00647784
0.0451157 -0.0205895 0.0230423
-0.00731653 0.00812597 0.000626898
0.00963035 0.00874501 0.00778984
0.050383 0.000236407 -0.0467948
0.00961897 0.00565322 0.00670462
0.00859619 0.00580321 -0.00393001
-0.000645083 0.00189817 -0.00354261
-0.00595618 -0.00422498 0.0100523
0.0115927 -0.0133883 0.00759895
0.0189446 -0.029419 0.0540926
0.0111982 0.00809541 -0.00127535
-0.000850989 -4.93945e-05 -0.000310339
0.00221982 0.0029552 0.00302907
0.0785695 -0.129488 -0.140804
0.0031772 0.000460733 -0.00493163
0.018272 -0.0461782 0.0445561
-0.00836935 -0.00559723 0.00266949
0.00173524 -0.012904 0.0229252
0.0154427 -0.0578789 -0.00096635
0.000459795 0.00193636 -0.00258481
0.00220905 -0.00102018 0.000374131
0.00187311 -0.0419508 -0.00996021
0.00658806 0.0139779 0.0151923
-0.00730481 -0.00242767 0.00567152
-0.00935679 0.0176475 -0.00718397
-9.72978e-14 2.07322e-13 3.01243e-13
0.00638013 -0.000284625 0.000846128
1.76447e-20 -4.08658e-18 9.35252e-18
0.00213488 0.000649788 -0.0041223
-0.0187362 -0.00298511 0.0108157
-0.0104997 -0.00229591 -0.0110488
-0.00403665 -0.00673562 -0.0027062
0.00189957 -0.00112752 0.0349445
0.00033017 -0.0501805 -0.0111743
0.00586479 0.00604842 0.000726672
0.0405567 -0.0773031 0.0281244
0.0387869 -0.0249918 7.30393e-06
0.0088562 0.018288 0.0103075
0.00786254 0.00490015 0.00761131
0.00754127 0.00597701 0.00367213
0.0144969 -0.00108375 -0.00100654
-0.0149224 0.00618314 -0.010774
-0.0291057 0.0571009 -0.15306
0.00928225 0.00533017 0.00637599
3.57975e-06 -1.08416e-05 -2.34437e-06
0.0113011 0.00715145 0.000395667
0.00820621 -0.000837837 -0.0236974
1.80147e-05 0.0447259 0.0262613
7.72899e-05 -0.0495253 -0.0192991
0.00548814 0.0036676 0.00840781
0.057881 -0.0307611 -0.00293289
0.0116949 0.00279728 0.000920266
0.000524786 0.047019 -0.0152704
0.0148057 -0.031516 0.00270447
0.000135324 0.00722191 -0.0443347
-0.00104383 0.0096525 -0.0166289
0.00232112 0.00248034 -0.00123623
0.57346 6.38247 2.77602
-0.00463932 0.00805642 0.00328904
0.00077009 -0.00288945 0.00122284
0.0121332 -0.00932101 0.00510071
0.0227658 -0.0292464 0.00298607
0.0484509 -0.0434142 0.0370409
0.0410364 -0.0638573 0.0528346
-0.0111704 0.00155609 0.0133547
0.00275339 0.0220404 0.035848
0.0034554 -0.0347923 0.00794739
0.00203828 0.00132457 -9.15469e-05
-0.00287919 0.00340386 0.00114285
0.0150585 -0.00141461 0.00582466
0.0153379 0.00526936 -0.00177205
-0.010008 -0.00416365 0.00455279
0.0469123 -0.0515896 0.052671
0.00414671 0.0160498 0.0128246
0.0017115 -0.00165982 -0.00185354
-0.014807 -0.00122538 -0.000200496
0.0462322 -0.0882663 0.0218727
-0.0104968 0.00830133 -0.0027261
-4.51913e-19 3.89784e-18 8.70887e-18
0.00675766 0.0480069 -0.0240579
0.00235303 -0.00566339 -0.00450515
0.00116421 0.0149312 0.00529354
-0.000304188 0.000307236 -0.000220186
0.00358091 -0.0112535 0.0179689
0.00336612 -0.028343 0.0226529
-0.000666592 0.000576653 -0.000790384
0.00325593 0.0265487 0.0549682
0.0117197 -0.00012533 -0.00403098
-0.00430694 0.00838261 0.00157408
0.00124882 0.0369965 0.0287334
0.00611719 -0.0122226 0.00351426
0.000727163 -0.0126137 -0.0017324
0.061014 -0.294069 -0.0431444
0.00102563 -0.00823209 -0.0441806
0.00643923 0.00491062 0.0109638
0.000963644 -0.0505329 0.0086568
0.0079196 0.0115094 0.0142887
0.00615782 0.014429 0.0110345
0.027456 -0.0108483 0.023369
0.00046103 -0.0167945 -0.0490254
-0.000134898 -0.00119535 6.91631e-05
-0.00555302 -0.0432702 0.0443786
-0.00659646 0.00459586 -0.00594132
0.0114734 0.00570045 0.00566955
-0.00342872 -0.00386145 0.00273042
-0.0262078 -0.0290492 0.00595538
-5.71171e-07 2.72785e-06 5.77165e-07
0.00377005 -0.0789295 0.007499
-0.00260038 -0.00420967 -0.0137338
6.36215e-05 -0.000739651 0.00151274
0.055655 -0.0747935 0.00855415
0.000243485 -0.000618276 2.84539e-05
-0.000404769 -0.000263638 0.000630883
-0.00296763 -0.00607696 0.00487532
0.016334 -0.03507 0.0239224
0.00163508 0.000471757 0.00978711
0.000160871 0.00165785 0.000706179
0.000822208 -0.00162895 -0.000965392
0.0281122 -0.0154074 0.0443781
0.000339957 -0.0273652 -0.0445372
-0.00042215 -0.00194959 0.000829816

VECTORS force float
1.1279e-05 -1.96965e-08 -5.82083e-07
5.9137e-06 4.31241e-06 -1.18109e-06
0.0 0.0 -5.1365e-06
-1.15582e-07 5.2683e-08 3.52413e-07
0.0 0.0 -5.1365e-06
-1.84091e-07 8.00851e-07 -1.28891e-07
2.076e-05 4.12625e-05 -4.37497e-05
1.10175e-05 9.60962e-05 -4.75802e-05
-1.13085e-06 -2.93684e-07 5.07495e-06
1.37343e-06 -3.83776e-06 2.90903e-07
0.0 0.0 -5.1365e-06
7.31919e-07 8.33641e-07 1.9841e-06
5.25517e-09 -2.14144e-07 2.63288e-07
-4.8305e-06 3.67987e-06 -4.74447e-07
-1.87676e-06 -5.81567e-07 -3.57042e-07
0.0 0.0 -5.1365e-06
0.0 0.0 -5.1365e-06
0.0 0.0 -5.1365e-06
-1.61572e-06 -1.82872e-06 5.66556e-07
0.0 0.0 -5.1365e-06
0.0 0.0 -5.1365e-06
-6.42853e-07 -9.80115e-07 3.70504e-07
-2.39795e-05 -1.01958e-05 1.03683e-05
2.45477e-06 4.83212e-06 -3.88481e-06
3.75398e-07 3.16035e-07 2.37748e-07
0.0 0.0 -5.1365e-06
0.0 0.0 -5.1365e-06
7.37802e-06 7.61657e-07 -6.77387e-07
0.0 0.0 -5.1365e-06
0.0 0.0 -5.1365e-06
0.0 0.0 -5.1365e-06
-3.27978e-07 -5.18936e-07 -4.47237e-06
-2.18657e-06 -1.90147e-06 -7.8319e-07
0.0 0.0 -5.1365e-06
4.82475e-05 -1.13896e-05 1.43664e-05
-8.95205e-06 -5.24973e-06 1.70089e-05
0.00520418 0.0143766 0.0182324
-1.83235e-06 7.66262e-07 -1.56177e-05
0.0 0.0 -5.1365e-06
-8.15269e-21 6.35275e-22 8.47033e-22
3.64209e-06 -2.26102e-06 -2.05127e-06
0.0 0.0 -5.1365e-06
0.0 0.0 -5.1365e-06
0.0 0.0 -5.1365e-06
0.0 0.0 -5.1365e-06
0.0 0.0 -5.1365e-06
0.0 0.0 -5.1365e-06
0.0 0.0 -5.1365e-06
0.0 0.0 -5.1365e-06
4.42633e-06 2.29309e-06 7.56601e-06
-1.47698e-05 -3.70519e-06 -2.09956e-06
1.35842e-06 -1.22262e-06 9.25594e-07
8.41194e-07 -1.89187e-06 4.34191e-06
0.0 0.0 -5.1365e-06
0.0 0.0 -5.1365e-06
0.0 0.0 -5.1365e-06
-2.03772e-07 -4.61711e-06 -9.32133e-06
3.77529e-07 -3.76929e-07 8.44937e-07
-3.98878e-06 -3.68159e-06 -6.71353e-07
0.0 0.0 -5.1365e-06
1.3342e-06 -2.46641e-06 -2.08411e-06
0.0 0.0 -5.1365e-06
-6.82175e-06 -1.08189e-06 -3.00539e-06
-5.80624e-06 6.10615e-07 4.86088e-06
0.0 0.0 -5.1365e-06
2.14269e-06 2.82495e-06 -3.02952e-07
-2.90468e-05 -7.83163e-06 2.17715e-05
2.25026e-06 -1.85836e-05 -1.02976e-05
-5.21438e-08 -1.72264e-07 -4.5217e-06
-1.21643e-06 1.39142e-05 1.3041e-06
0.0 0.0 -5.1365e-06
7.76865e-17 -1.65541e-16 5.56187e-17
-4.15747e-06 -6.88191e-06 1.07902e-06
-7.41154e-22 6.35275e-22 8.47033e-22
0.0 0.0 -5.1365e-06
0.0 0.0 -5.1365e-06
-1.94186e-05 1.687e-05 4.57822e-06
0.0 0.0 -5.1365e-06
-7.36095e-07 1.31517e-06 -2.13729e-07
-1.01606e-08 -1.49001e-07 1.89705e-07
-1.13257e-07 1.46965e-06 -3.94285e-06
0.0 0.0 -5.1365e-06
0.0 0.0 -5.1365e-06
0.0 0.0 -5.1365e-06
-2.0636e-05 5.05393e-06 -1.58899e-06
-6.78189e-06 2.78245e-06 -2.36218e-07
0.0 0.0 -5.1365e-06
4.66212e-06 -4.18801e-05 7.92756e-06
0.0 0.0 -5.1365e-06
0.0 0.0 -5.1365e-06
9.56804e-09 2.39416e-08 4.43788e-09
-8.9937e-06 -1.95091e-05 7.83566e-06
2.28351e-06 4.04305e-06 4.80866e-05
1.66607e-07 -3.37133e-08 -1.87596e-07
-1.55963e-06 8.12914e-06 2.54734e-06
5.91219e-08 -1.6392e-06 -2.29663e-06
0.0 0.0 -5.1365e-06
-4.57279e-06 -9.95964e-06 3.69722e-06
1.80427e-07 -2.22356e-07 -4.02882e-06
0.0 0.0 -5.1365e-06
1.01031e-05 -6.69119e-06 5.11532e-05
1.34432e-07 3.15096e-06 -1.72289e-07
1.19723e-05 -9.01254e-06 -1.88879e-06
-0.0145489 0.0773076 0.219087
-8.82976e-06 1.62421e-05 -1.25144e-05
-9.89735e-06 -2.52192e-06 1.07991e-06
0.0 0.0 -5.1365e-06
0.0 0.0 -5.1365e-06
0.0 0.0 -5.1365e-06
0.0 0.0 -5.1365e-06
0.0 0.0 -5.1365e-06
-2.36991e-07 9.32142e-09 -3.80988e-07
-0.00117081 -0.00666309 0.00130069
8.03849e-06 3.43754e-07 1.85478e-06
2.7634e-06 1.9002e-06 -4.15431e-06
0.0 0.0 -5.1365e-06
-5.65616e-06 6.03788e-06 -1.35356e-05
1.19385e-06 4.10977e-07 -6.2827e-06
0.0 0.0 -5.1365e-06
-3.36416e-07 -1.34308e-06 3.15876e-08
1.32376e-06 -5.70935e-07 -1.96175e-06
-1.19385e-06 -4.10977e-07 -3.99031e-06
0.0 0.0 -5.1365e-06
3.13694e-08 4.04513e-07 -4.92966e-06
1.37643e-21 -3.17637e-22 1.69407e-21
0.0 0.0 -5.1365e-06
-1.50626e-05 -2.53117e-05 -1.39611e-05
-5.28134e-08 -5.09056e-07 -1.33689e-07
-1.31985e-06 8.54989e-07 -3.17852e-06
0.0 0.0 -5.1365e-06
0.0 0.0 -5.1365e-06
-4.06051e-07 -3.36559e-07 -2.60943e-06
-6.73762e-06 1.31963e-05 -1.53866e-05
2.89551e-05 -4.52228e-06 -8.00213e-06
-1.44661e-05 -1.63314e-05 2.02151e-05
4.94011e-08 5.99339e-07 1.65576e-07
1.78982e-05 1.85911e-05 2.17913e-05
-2.68648e-06 1.77527e-07 -3.34377e-06
0.0 0.0 -5.1365e-06
-1.13186e-05 4.26399e-06 8.89239e-06
-3.62503e-06 9.39599e-05 6.94489e-05
-1.17041e-07 -2.65808e-07 2.91135e-07
-2.50839e-07 -1.05473e-06 -3.08741e-06
0.0 0.0 -5.1365e-06
0.0 0.0 -5.1365e-06
-7.07008e-09 -2.43212e-07 -1.42955e-08
-7.8901e-07 9.09813e-07 1.84345e-06
0.0 0.0 -5.1365e-06
-2.535e-06 3.63168e-07 1.79568e-06
9.21954e-08 -4.27618e-06 1.20699e-05
-2.58655e-06 2.34512e-06 -4.25087e-06
0.0 0.0 -5.1365e-06
-3.67441e-09 1.75491e-08 3.71573e-09
0.0 0.0 -5.1365e-06
-2.01062e-07 -5.84164e-07 -4.37664e-06
7.22783e-08 4.81615e-06 -1.23515e-05
0.0 0.0 -5.1365e-06
-1.21656e-05 6.53932e-06 6.86232e-07
-4.62968e-06 -2.16746e-07 2.66206e-06
0.0 0.0 -5.1365e-06
0.0 0.0 -5.1365e-06
3.0272e-06 6.32322e-06 -1.02287e-07
4.39178e-06 -6.95991e-06 5.44026e-06
-5.27493e-06 2.20665e-06 7.96676e-06
0.0 0.0 -5.1365e-06
-1.6901e-08 -2.39036e-07 4.35154e-08
1.36281e-06 9.65122e-07 -2.93987e-06
