# vtk DataFile Version 3.0
LIGGGHTS particles timestep 4600000
ASCII
DATASET POLYDATA
POINTS 139 float
0.0301751 0.0199402 0.00583053
0.0322643 0.0161794 0.00832337
0.0311969 0.0190595 0.00570718
0.0346468 0.0233102 0.0123161
0.0324805 0.016996 0.00767882
0.0316182 0.0148103 0.0108361
0.0318618 0.0151649 0.00965791
0.0199858 0.0221848 0.0157109
0.0232817 0.00229607 0.0451291
0.0302591 0.0185329 0.0057867
0.0217236 0.0232814 0.0146565
0.027905 0.0226434 0.00908125
0.027472 0.0213184 0.00784977
0.0190267 0.0243267 0.0139232
0.0243289 0.0175659 0.0156925
0.0206579 0.0146636 0.0152072
0.0240407 0.0154164 0.0153576
0.0173576 0.0218689 0.0149495
0.021721 0.0221818 0.00864401
0.0179877 0.0149589 0.0151917
0.0270718 0.0194924 0.00720717
0.0343216 0.0233629 0.0109471
0.0249464 0.0167836 0.0161363
0.0231889 0.0225587 0.0143087
0.0245229 0.0210683 0.0161727
0.021198 0.0239983 0.013278
0.0185048 0.0235204 0.011894
0.0193157 0.0146971 0.0123946
0.0207067 0.0146144 0.0119824
0.0200364 0.0243098 0.0139048
0.0226127 0.0233979 0.0111998
0.0216844 0.0232498 0.0156551
0.0175194 0.0234671 0.0117244
0.018876 0.0155388 0.0142454
0.0406138 0.0191626 0.00568074
0.0228731 0.0230295 0.0134152
0.0204102 0.02348 0.0143948
0.0297844 0.0197399 0.0157141
0.0281138 0.023134 0.0100278
0.0237925 0.0192214 0.00595071
0.0186837 0.0162392 0.0149644
0.0189999 0.0226019 0.0141809
0.0226721 0.0226509 0.0153674
0.0184334 0.0235 0.0144258
0.0166692 0.0240979 0.0141137
0.0187126 0.0232963 0.0128477
0.0220215 0.0185749 0.0205105
0.0242223 0.0218064 0.0150015
0.0208127 0.0143567 0.0142576
0.0191009 0.0149533 0.0133368
0.0284162 0.0233654 0.0113596
0.0198932 0.0229259 0.0150462
0.0224249 0.014868 0.0152209
0.0207555 0.0181003 0.00731938
0.0183533 0.0241803 0.0132033
0.0211812 0.0240959 0.0142878
0.0329708 0.0200808 0.00595653
0.0202787 0.0240996 0.0129557
0.0239395 0.0202041 0.00583859
0.0193008 0.0241182 0.012969
0.0198074 0.0153106 0.0139584
0.0225637 0.0195823 0.0058395
0.0252467 0.0179533 0.0158091
0.033703 0.0194141 0.00581744
0.0246859 0.0165557 0.0151972
0.0238275 0.0198998 0.0158636
0.0219773 0.0229172 0.00955582
0.0337751 0.0222673 0.0086021
0.0360157 0.0187061 0.0156691
0.0215899 0.0148744 0.0146668
0.0182156 0.0191051 0.0159603
0.0214974 0.0124266 0.0243662
0.0220046 0.0237732 0.0138326
0.0150087 0.0232085 0.0147325
0.0158305 0.0235571 0.0142823
0.0210054 0.0191762 0.00717159
0.0389148 0.0189256 0.00570476
0.0255455 0.0200771 0.016252
0.0326895 0.0180508 0.00729575
0.031353 0.0169894 0.0152978
0.0233641 0.0149494 0.0147878
0.0195287 0.0147226 0.0112188
0.0294685 0.0211201 0.0152881
0.0148302 0.0141244 0.0231734
0.0312132 0.0149614 0.0124921
0.0184905 0.0176823 0.0157396
0.0173942 0.0234091 0.0126866
0.0211536 0.0143657 0.0130201
0.0171242 0.0226118 0.0141726
0.01806 0.022399 0.0144345
0.0287184 0.023236 0.0127095
0.020174 0.0144827 0.0128596
0.0225883 0.0145729 0.0142781
0.0333211 0.0208678 0.00766905
0.0365386 0.0164562 0.0149039
0.0208927 0.0229032 0.0150654
0.0128503 0.0161844 0.024515
0.0217213 0.0143156 0.0138414
0.0164469 0.0231035 0.0149258
0.0194175 0.02109 0.0160652
0.0219779 0.0167367 0.0162461
0.0214492 0.0211839 0.00782857
0.0179804 0.0230864 0.013498
0.0178004 0.0140814 0.0132189
0.0327934 0.019013 0.00570965
0.0180242 0.0225211 0.0154318
0.0176415 0.0241076 0.0143684
0.0204181 0.0166788 0.00789228
0.020689 0.0150818 0.0135406
0.0194225 0.0234911 0.0142888
0.0197348 0.0159865 0.0147174
0.0335582 0.0216446 0.00803798
0.0232625 0.0196853 0.0169034
0.0200482 0.0155869 0.00895858
0.0329893 0.0192757 0.00729613
0.0192585 0.0219333 0.014923
0.0208403 0.0122529 0.0300093
0.0262756 0.0162153 0.00823906
0.0192517 0.0140953 0.0140861
0.0247663 0.0195134 0.015949
0.0300176 0.0189016 0.0158096
0.0241046 0.0186256 0.0159404
0.0188963 0.0229307 0.0151186
0.0308746 0.0155476 0.0139955
0.0174005 0.0241572 0.0133988
0.0217082 0.0137735 0.0193834
0.0174327 0.0232653 0.0148642
0.0207295 0.0154741 0.0144671
0.0202791 0.0138184 0.0135991
0.0381686 0.0197868 0.00591052
0.019013 0.0146761 0.0153909
0.0235491 0.0211705 0.0154618
0.0266367 0.017748 0.0074144
0.0169062 0.0233282 0.0135216
0.017512 0.0159619 0.0160459
0.0181992 0.0236183 0.0154012
0.0194365 0.0237341 0.0154179
0.0192684 0.0139471 0.0130889
0.021721 0.0223 0.0159777

VERTICES 139 278
1 0
1 1
1 2
1 3
1 4
1 5
1 6
1 7
1 8
1 9
1 10
1 11
1 12
1 13
1 14
1 15
1 16
1 17
1 18
1 19
1 20
1 21
1 22
1 23
1 24
1 25
1 26
1 27
1 28
1 29
1 30
1 31
1 32
1 33
1 34
1 35
1 36
1 37
1 38
1 39
1 40
1 41
1 42
1 43
1 44
1 45
1 46
1 47
1 48
1 49
1 50
1 51
1 52
1 53
1 54
1 55
1 56
1 57
1 58
1 59
1 60
1 61
1 62
1 63
1 64
1 65
1 66
1 67
1 68
1 69
1 70
1 71
1 72
1 73
1 74
1 75
1 76
1 77
1 78
1 79
1 80
1 81
1 82
1 83
1 84
1 85
1 86
1 87
1 88
1 89
1 90
1 91
1 92
1 93
1 94
1 95
1 96
1 97
1 98
1 99
1 100
1 101
1 102
1 103
1 104
1 105
1 106
1 107
1 108
1 109
1 110
1 111
1 112
1 113
1 114
1 115
1 116
1 117
1 118
1 119
1 120
1 121
1 122
1 123
1 124
1 125
1 126
1 127
1 128
1 129
1 130
1 131
1 132
1 133
1 134
1 135
1 136
1 137
1 138

POINT_DATA 139
SCALARS id int 1
LOOKUP_TABLE default
1
2
4
5
7
8
10
11
12
13
14
15
16
19
20
21
22
23
24
25
26
27
29
30
31
34
35
36
37
40
41
42
43
44
45
46
48
49
50
52
53
54
55
58
59
60
61
62
63
64
65
66
68
71
72
74
75
76
78
79
81
82
83
84
85
86
87
89
90
91
92
95
97
98
102
103
105
107
108
109
110
112
113
114
115
118
120
122
123
124
125
126
127
128
129
131
133
134
135
136
138
139
140
141
142
143
144
147
148
149
150
151
152
153
154
155
156
157
158
160
161
163
164
167
169
170
171
173
174
175
178
180
181
182
183
185
188
189
190

SCALARS type int 1
LOOKUP_TABLE default
1
1
1
1
1
1
1
1
1
1
1
1
1
1
1
1
1
1
1
1
1
1
1
1
1
1
1
1
1
1
1
1
1
1
1
1
1
1
1
1
1
1
1
1
1
1
1
1
1
1
1
1
1
1
1
1
1
1
1
1
1
1
1
1
1
1
1
1
1
1
1
1
1
1
1
1
1
1
1
1
1
1
1
1
1
1
1
1
1
1
1
1
1
1
1
1
1
1
1
1
1
1
1
1
1
1
1
1
1
1
1
1
1
1
1
1
1
1
1
1
1
1
1
1
1
1
1
1
1
1
1
1
1
1
1
1
1
1
1

SCALARS radius float 1
LOOKUP_TABLE default
0.0005
0.0005
0.0005
0.0005
0.0005
0.0005
0.0005
0.0005
0.0005
0.0005
0.0005
0.0005
0.0005
0.0005
0.0005
0.0005
0.0005
0.0005
0.0005
0.0005
0.0005
0.0005
0.0005
0.0005
0.0005
0.0005
0.0005
0.0005
0.0005
0.0005
0.0005
0.0005
0.0005
0.0005
0.0005
0.0005
0.0005
0.0005
0.0005
0.0005
0.0005
0.0005
0.0005
0.0005
0.0005
0.0005
0.0005
0.0005
0.0005
0.0005
0.0005
0.0005
0.0005
0.0005
0.0005
0.0005
0.0005
0.0005
0.0005
0.0005
0.0005
0.0005
0.0005
0.0005
0.0005
0.0005
0.0005
0.0005
0.0005
0.0005
0.0005
0.0005
0.0005
0.0005
0.0005
0.0005
0.0005
0.0005
0.0005
0.0005
0.0005
0.0005
0.0005
0.0005
0.0005
0.0005
0.0005
0.0005
0.0005
0.0005
0.0005
0.0005
0.0005
0.0005
0.0005
0.0005
0.0005
0.0005
0.0005
0.0005
0.0005
0.0005
0.0005
0.0005
0.0005
0.0005
0.0005
0.0005
0.0005
0.0005
0.0005
0.0005
0.0005
0.0005
0.0005
0.0005
0.0005
0.0005
0.0005
0.0005
0.0005
0.0005
0.0005
0.0005
0.0005
0.0005
0.0005
0.0005
0.0005
0.0005
0.0005
0.0005
0.0005
0.0005
0.0005
0.0005
0.0005
0.0005
0.0005

SCALARS mass float 1
LOOKUP_TABLE default
5.23599e-07
5.23599e-07
5.23599e-07
5.23599e-07
5.23599e-07
5.23599e-07
5.23599e-07
5.23599e-07
5.23599e-07
5.23599e-07
5.23599e-07
5.23599e-07
5.23599e-07
5.23599e-07
5.23599e-07
5.23599e-07
5.23599e-07
5.23599e-07
5.23599e-07
5.23599e-07
5.23599e-07
5.23599e-07
5.23599e-07
5.23599e-07
5.23599e-07
5.23599e-07
5.23599e-07
5.23599e-07
5.23599e-07
5.23599e-07
5.23599e-07
5.23599e-07
5.23599e-07
5.23599e-07
5.23599e-07
5.23599e-07
5.23599e-07
5.23599e-07
5.23599e-07
5.23599e-07
5.23599e-07
5.23599e-07
5.23599e-07
5.23599e-07
5.23599e-07
5.23599e-07
5.23599e-07
5.23599e-07
5.23599e-07
5.23599e-07
5.23599e-07
5.23599e-07
5.23599e-07
5.23599e-07
5.23599e-07
5.23599e-07
5.23599e-07
5.23599e-07
5.23599e-07
5.23599e-07
5.23599e-07
5.23599e-07
5.23599e-07
5.23599e-07
5.23599e-07
5.23599e-07
5.23599e-07
5.23599e-07
5.23599e-07
5.23599e-07
5.23599e-07
5.23599e-07
5.23599e-07
5.23599e-07
5.23599e-07
5.23599e-07
5.23599e-07
5.23599e-07
5.23599e-07
5.23599e-07
5.23599e-07
5.23599e-07
5.23599e-07
5.23599e-07
5.23599e-07
5.23599e-07
5.23599e-07
5.23599e-07
5.23599e-07
5.23599e-07
5.23599e-07
5.23599e-07
5.23599e-07
5.23599e-07
5.23599e-07
5.23599e-07
5.23599e-07
5.23599e-07
5.23599e-07
5.23599e-07
5.23599e-07
5.23599e-07
5.23599e-07
5.23599e-07
5.23599e-07
5.23599e-07
5.23599e-07
5.23599e-07
5.23599e-07
5.23599e-07
5.23599e-07
5.23599e-07
5.23599e-07
5.23599e-07
5.23599e-07
5.23599e-07
5.23599e-07
5.23599e-07
5.23599e-07
5.23599e-07
5.23599e-07
5.23599e-07
5.23599e-07
5.23599e-07
5.23599e-07
5.23599e-07
5.23599e-07
5.23599e-07
5.23599e-07
5.23599e-07
5.23599e-07
5.23599e-07
5.23599e-07
5.23599e-07
5.23599e-07
5.23599e-07
5.23599e-07
5.23599e-07
5.23599e-07

VECTORS velocity float
1.82253e-14 1.0622e-13 -3.37788e-13
0.000903618 -0.0356177 0.0339903
-8.7128e-15 6.28864e-17 -1.02212e-13
0.00187362 0.00915917 -0.0422954
0.000446795 -0.0465816 0.0232197
0.000359522 -0.00878876 0.051312
0.00257236 -0.0120041 0.0291758
0.00406588 0.00638993 0.0167512
0.000347951 0.00013041 0.0403488
6.60109e-15 -5.91008e-17 7.74361e-14
0.00100038 -0.00101393 -0.00217076
-0.398939 0.10643 0.0800959
0.00116081 -0.0365386 -0.022479
-0.00113473 0.00655045 0.00994851
0.00337976 0.0384442 0.0125427
-0.0174287 0.0155122 -0.00408076
0.0076983 0.0127407 0.00185107
-0.0175782 0.0199984 -0.020816
0.000625357 -0.0348323 -0.0353631
-0.0240674 -0.111517 0.151239
0.00234292 -0.0470801 -0.00625283
0.00154095 -0.00366546 -0.0527665
0.0230153 0.0328161 -0.00144158
-0.0216195 0.0489933 -0.101537
0.00234959 0.081077 0.00232796
0.000960674 -0.0120666 0.00436585
0.00482064 -0.00951932 -0.0103149
0.0083319 0.00336377 0.0161291
-0.00244257 -0.00132513 0.00168695
0.00402227 0.000724333 -0.00590899
2.5789e-06 0.000827253 -0.0233698
0.000651155 -0.00232371 -0.00258785
-0.000859552 0.00192516 -0.00773485
0.00937148 0.00886221 -0.0062871
-7.29594e-15 3.48435e-14 -1.72292e-13
0.000893363 0.00645117 -0.0209354
-7.61205e-05 -0.00366296 0.0153433
-0.00148156 0.0489311 -0.00900806
0.000591112 -0.0163046 -0.0482568
2.19187e-15 4.4917e-15 1.47254e-14
0.0172067 0.020259 0.000133323
0.00477799 -0.000987249 0.01407
-0.00192505 0.0698333 -0.0646108
-0.00386627 -0.00611449 0.00980575
0.0021806 -0.0025955 -0.00752581
0.0219012 -0.00167597 -0.00200787
-0.0578566 -0.0939267 -0.0401366
-0.019017 0.00703575 -0.0121912
0.0129928 -0.00101466 -0.000249868
0.00804383 -0.00192292 0.0180718
0.000652134 0.00393231 -0.0530962
-2.3487e-05 -0.005261 0.00380871
0.0137689 0.0101361 0.00172927
0.0857755 0.0929926 0.470749
0.00864594 0.00833581 0.00338446
0.000390415 -0.00259993 0.00608477
-4.25518e-06 -2.50765e-06 -1.21715e-06
0.00638002 -0.000693082 -0.00437635
6.31178e-16 -6.14517e-15 1.5936e-14
0.0124464 0.0230773 0.00303353
0.0128625 0.00883583 0.0029143
-4.39592e-14 9.36743e-14 3.3937e-13
0.00380925 0.0371203 0.010326
-7.64148e-09 2.40598e-06 1.55115e-07
0.00206245 0.00652053 -0.00246749
0.00297013 0.048639 -0.00817701
0.00301245 -0.00545876 -0.0159682
0.00606415 -0.0260059 -0.0292484
0.00194709 0.0510271 0.0115172
0.0123272 0.00520096 0.00871866
0.0376344 0.0759211 -0.057683
-0.132806 0.0899103 0.04755
0.00055089 -0.00134894 -3.61054e-05
0.00592768 0.00600384 5.2739e-05
0.007088 0.00275182 -0.0046583
0.00262946 -0.043891 0.000788049
-7.90277e-16 3.68508e-15 -1.82459e-14
-0.00172384 0.0215367 -0.0184835
0.00162304 -0.0315135 0.00622917
-0.000589388 0.019374 0.0138863
0.0100298 0.00465784 0.00657527
0.0010379 -0.00692858 0.0516868
0.0002114 0.0453635 -0.0207359
-0.0963673 0.168976 0.0860534
0.00565725 0.0100139 0.0344746
0.0129706 0.0188313 0.00422402
0.00206793 0.018725 -0.00795307
0.011182 0.00445407 0.00660341
0.01019 0.0169368 -0.0154519
-0.00228948 0.0128818 -0.00498579
0.002718 0.0137718 -0.0391981
0.0103792 0.00341395 0.0105527
0.013912 0.000619714 0.00131746
0.00246561 -0.040427 -0.0152388
0.00670089 0.025172 0.0175643
-0.001286 0.00312787 -0.00335668
0.188171 0.0917633 -0.0193127
0.00928092 0.00378422 0.00274741
0.00832186 0.00514777 -0.00382811
0.00478476 0.0671638 -0.0160138
-0.0420596 -0.0186396 -0.0195162
0.000973107 -0.0387405 -0.0249243
-0.000828035 -0.0139637 -0.0150813
0.00334118 0.00116352 -0.00667432
-5.49603e-07 8.65201e-07 6.17274e-07
-0.000231402 0.000294469 -0.0141414
4.24046e-05 -0.0056836 -0.00111327
0.000615286 -0.0430488 0.0282022
0.00909069 0.00738509 0.000527875
0.000495237 -0.00111407 0.0116915
0.00808615 0.0159454 0.0139527
0.0038269 -0.0273184 -0.0207234
-0.0177719 0.0627179 0.00516632
0.00112023 -0.0304848 0.0403841
0.00114743 -0.0519414 -0.00478418
0.00546845 0.0204724 -0.0181063
-0.0186714 0.19304 -0.256582
0.00109769 -0.0397767 0.0324523
0.00200453 0.0153544 0.00485688
-0.0265796 0.0211307 -0.0168706
0.00174311 0.0451914 0.0027465
0.00041675 0.0493399 0.0141487
0.00488863 -0.00875357 0.0248558
0.0016121 0.0241429 0.0397747
0.0116891 0.00903135 0.0175839
-0.100902 -0.160536 -0.0746969
0.00498754 -0.00604319 0.0133935
2.68554e-05 0.0244699 -0.0063731
0.00857149 -0.00165351 0.00569786
1.04158e-14 -4.97175e-14 2.45847e-13
-0.234479 -0.164191 -0.045158
-0.0376486 0.0194631 -0.00832994
0.00356556 -0.0332724 0.00770298
0.0115629 0.00655173 0.0115134
-0.0018417 -0.0333656 -0.0614987
0.0377804 0.00600345 -0.00899572
-0.00722283 -0.00481376 -0.00134809
0.00693961 -0.0127903 0.00473464
-0.0196362 -0.0311348 -0.0723982

VECTORS force float
2.59404e-21 2.11758e-22 8.47033e-22
-1.12975e-07 -1.57794e-07 5.14016e-07
1.21761e-21 -2.74376e-21 -8.47033e-22
1.49497e-06 -4.14753e-06 1.484e-05
3.32882e-10 1.84662e-08 2.46684e-07
-5.23401e-09 2.00454e-07 1.52745e-07
-1.70943e-07 -1.16999e-07 1.25218e-06
-1.35504e-06 -4.71161e-06 3.45313e-06
0.0 0.0 -5.1365e-06
1.58819e-22 6.74979e-22 0.0
5.26734e-06 -8.79877e-06 -2.60961e-06
0.112253 0.00950197 -0.0458448
8.1367e-08 4.3794e-06 3.3936e-06
7.12802e-05 0.000132459 -5.3817e-05
-5.44883e-07 -1.57593e-07 3.80756e-06
0.0 0.0 -5.1365e-06
0.0 0.0 -5.1365e-06
3.96328e-05 1.75501e-06 7.71024e-06
-2.44262e-08 -2.49915e-07 7.48412e-08
0.0 0.0 -5.1365e-06
-1.8349e-06 -1.58463e-05 -1.24734e-06
9.51435e-06 4.83014e-06 2.19503e-05
0.0 0.0 -5.1365e-06
0.0 0.0 -5.1365e-06
0.0 0.0 -5.1365e-06
0.000105165 -9.97064e-05 6.5552e-05
0.0 0.0 -5.1365e-06
-4.18476e-06 -1.64562e-07 4.926e-06
-1.10482e-07 1.00837e-06 -3.95109e-06
0.0 0.0 -5.1365e-06
-8.56088e-08 1.67704e-08 3.8654e-07
-2.74364e-07 -5.43968e-07 1.06891e-06
-0.000175334 4.23067e-05 0.000261948
0.0 0.0 -5.1365e-06
-5.82335e-22 -2.11758e-22 8.47033e-22
2.12253e-07 -9.02455e-09 4.46412e-07
-1.03e-05 1.13322e-05 -3.16065e-05
6.50961e-06 -1.79713e-05 8.75831e-06
9.46856e-08 -2.59552e-07 -6.07006e-08
8.47033e-22 -2.11758e-22 8.47033e-22
0.0 0.0 -5.1365e-06
-8.49255e-05 9.2437e-05 8.0088e-06
-8.97779e-08 9.6351e-07 -1.71201e-06
-0.000120578 -1.02266e-05 -1.07042e-05
2.53627e-05 5.63926e-06 6.38311e-05
0.0 0.0 -5.1365e-06
0.0 0.0 -5.1365e-06
0.0 0.0 -5.1365e-06
0.0 0.0 -5.1365e-06
3.08905e-06 4.81234e-07 4.18024e-06
3.82607e-07 -2.73537e-07 2.85619e-07
1.23106e-05 1.32091e-06 5.79517e-05
0.0 0.0 -5.1365e-06
0.0272916 0.0747699 0.443533
0.000169816 -8.41089e-05 -3.38333e-05
-7.56754e-05 1.18129e-05 -1.01692e-05
-1.29768e-08 -3.44432e-08 -6.68728e-09
0.000102718 -0.000257337 9.57441e-05
6.24687e-21 1.05879e-21 0.0
0.000175391 6.46907e-05 8.28201e-05
0.0 0.0 -5.1365e-06
1.05879e-22 0.0 0.0
-4.58131e-07 6.24547e-07 1.02215e-07
-1.22468e-08 -3.33075e-08 -1.58665e-08
0.0 0.0 -5.1365e-06
0.0 0.0 -5.1365e-06
1.19789e-06 3.38474e-06 7.08579e-06
-1.46681e-05 4.64772e-05 -4.60704e-05
-5.53668e-09 1.76088e-08 -2.47552e-07
0.0 0.0 -5.1365e-06
0.0 0.0 -5.1365e-06
0.0 0.0 -5.1365e-06
-1.76775e-05 -1.46028e-05 3.24458e-05
-3.65143e-06 9.58802e-06 3.65006e-06
3.06406e-06 -2.06884e-06 -1.85148e-06
-2.57433e-05 1.08179e-05 1.43557e-05
-2.0755e-19 9.95264e-21 1.10114e-20
0.0 0.0 -5.1365e-06
1.32131e-07 1.08123e-06 -3.18529e-07
1.5332e-08 -2.89662e-07 -2.55526e-07
0.0 0.0 -5.1365e-06
-6.05796e-07 1.40759e-08 1.7843e-06
2.00031e-05 -0.000130942 6.47426e-05
0.0 0.0 -5.1365e-06
1.1562e-05 -3.00449e-05 2.70179e-05
0.0 0.0 -5.1365e-06
-0.000783077 -0.00029685 0.00027085
-1.50311e-05 -2.96441e-06 -7.46382e-06
-0.000107781 -0.000417393 0.000338182
2.76352e-06 0.000160842 -0.000117421
1.69423e-06 -1.94424e-06 4.38534e-06
-8.13738e-07 -4.12691e-07 -6.98029e-06
0.0 0.0 -5.1365e-06
1.24565e-05 -3.62454e-06 1.76361e-05
-3.23452e-06 -4.10289e-06 4.62605e-06
6.05287e-07 3.47876e-06 -1.50088e-06
0.0 0.0 -5.1365e-06
1.91761e-05 6.12526e-06 5.18629e-06
2.49727e-06 -8.38864e-07 -4.6715e-06
0.0 0.0 -5.1365e-06
0.0 0.0 -5.1365e-06
2.5117e-07 1.20746e-06 1.36806e-06
0.0 0.0 -5.1365e-06
1.43886e-07 1.42123e-06 -3.67963e-06
-5.41986e-08 3.97634e-08 -6.7242e-09
0.0 0.0 -5.1365e-06
3.27048e-06 1.97915e-05 -6.49003e-06
-3.31692e-08 3.83232e-07 -6.11526e-08
-8.63112e-08 4.96824e-06 2.13564e-06
-4.93333e-05 -1.46054e-05 -8.75193e-06
0.0 0.0 -5.1365e-06
5.0737e-05 -2.72489e-05 8.48696e-06
0.0 0.0 -5.1365e-06
-1.62414e-07 -3.86058e-08 3.94342e-07
1.81856e-07 1.95266e-06 3.59623e-08
0.0 0.0 -5.1365e-06
0.0 0.0 -5.1365e-06
3.51368e-07 6.49816e-07 -3.63359e-07
0.0 0.0 -5.1365e-06
0.0 0.0 -5.1365e-06
6.21178e-06 -6.00335e-05 3.51086e-06
0.0 0.0 -5.1365e-06
-3.91383e-05 4.17193e-05 2.23712e-05
-4.09733e-07 1.45072e-06 1.45765e-06
0.000344683 -9.45895e-05 0.000405203
0.0 0.0 -5.1365e-06
-1.14409e-05 -2.67446e-05 -1.68966e-07
0.0 0.0 -5.1365e-06
9.79279e-06 -3.67649e-06 9.12547e-06
-9.61912e-20 -6.98802e-21 2.5411e-21
0.0 0.0 -5.1365e-06
0.0 0.0 -5.1365e-06
-1.26896e-05 -2.97619e-05 8.80843e-06
-0.000265455 -0.00017665 -0.000325903
0.0 0.0 -5.1365e-06
0.0 0.0 -5.1365e-06
4.36078e-07 -7.31778e-07 -4.96812e-06
0.0 0.0 -5.1365e-06
0.0 0.0 -5.1365e-06
