# vtk DataFile Version 3.0
LIGGGHTS particles timestep 2800000
ASCII
DATASET POLYDATA
POINTS 163 float
0.01414 0.0225801 0.0206961
0.0283094 0.0152985 0.00940166
0.0224366 0.0185228 0.0159561
0.0304739 0.0230726 0.00987885
0.0167311 0.0143756 0.0136675
0.0285531 0.0158037 0.00866795
0.0278258 0.0147705 0.011656
0.0280902 0.0149312 0.010331
0.0203682 0.0223851 0.0147676
0.0210371 0.0148293 0.0147502
0.0216097 0.014762 0.0130659
0.0225705 0.022675 0.0167786
0.0207159 0.0176271 0.0157313
0.0213764 0.0162958 0.0160877
0.0225059 0.0175142 0.0156821
0.0102585 0.0174656 0.034008
0.0200976 0.0238484 0.0136426
0.0217542 0.0241819 0.0142203
0.0185231 0.0226573 0.00939292
0.0234123 0.0161563 0.0160296
0.0203663 0.0233146 0.0126003
0.0206189 0.0202758 0.024744
0.0206041 0.0196091 0.0161638
0.0189414 0.023738 0.012037
0.0300366 0.0218559 0.00818378
0.0184859 0.0229666 0.0150333
0.0238716 0.0227027 0.0153189
0.019936 0.0234681 0.0117362
0.0197889 0.0240906 0.0127518
0.0209575 0.0237407 0.016881
0.0224778 0.023859 0.0148082
0.0200511 0.0242979 0.0168131
0.0235666 0.0151147 0.0149487
0.0250022 0.0169614 0.0163402
0.0164086 0.0230836 0.0149145
0.018446 0.0244545 0.0136483
0.0165018 0.0147822 0.0127834
0.019379 0.023276 0.0105286
0.0219527 0.0147761 0.0110801
0.0406138 0.0191626 0.00568074
0.0207137 0.0240765 0.0129788
0.02116 0.0218506 0.0166698
0.0258072 0.0217315 0.0147378
0.0219655 0.0205353 0.0157017
0.0238032 0.0211261 0.0165806
0.024152 0.0196584 0.00583484
0.0179016 0.0146705 0.0143794
0.0254812 0.0182314 0.0167205
0.0179253 0.019594 0.0174747
0.0197833 0.02298 0.0135084
0.0220906 0.0149769 0.0151076
0.0217312 0.0147875 0.0120734
0.0221369 0.015674 0.0143923
0.0224229 0.0211695 0.0163819
0.0208429 0.0155785 0.0154503
0.015217 0.0225957 0.0146823
0.0194291 0.0232918 0.0124951
0.0230424 0.0159813 0.014722
0.0174843 0.0146208 0.0119627
0.0177581 0.0240142 0.0178264
0.0174809 0.024424 0.0138765
0.0220294 0.0220981 0.0161444
0.015954 0.0235846 0.0141598
0.0203417 0.0144426 0.014035
0.021035 0.0237942 0.0138067
0.0244652 0.0160201 0.0158451
0.0194288 0.024511 0.0136172
0.0205203 0.0185973 0.0159387
0.0211058 0.0209327 0.0160248
0.0167139 0.0238667 0.0135715
0.0231051 0.021829 0.016764
0.0225637 0.0195823 0.0058395
0.0153246 0.0229087 0.0137384
0.0336017 0.0195831 0.00585649
0.0200268 0.0209413 0.015626
0.0175766 0.0228145 0.0154282
0.0219642 0.0229917 0.0156664
0.0298074 0.0210674 0.00768497
0.0316156 0.0221299 0.0145298
0.0164388 0.0223631 0.015664
0.01872 0.0143423 0.0138997
0.023212 0.0184356 0.00728412
0.0207763 0.0217827 0.0155958
0.0224059 0.0160413 0.0158707
0.0173711 0.0143005 0.0129029
0.0201926 0.0231892 0.0189726
0.0247958 0.0219561 0.0163685
0.0389148 0.0189256 0.00570476
0.0187938 0.0233785 0.0111519
0.0213643 0.0152944 0.0138841
0.028788 0.0166582 0.00788752
0.0260443 0.0203691 0.0156029
0.0216136 0.0192432 0.0159991
0.0257289 0.0192755 0.0167895
0.0179348 0.0237289 0.0137415
0.0255639 0.0232245 0.0127247
0.0176631 0.0142095 0.0182279
0.027134 0.0159154 0.0144158
0.0219016 0.0165313 0.0151599
0.0188497 0.0241676 0.0144048
0.0168402 0.023985 0.0145563
0.0192176 0.0237232 0.0132729
0.0232211 0.0232154 0.0147192
0.0230151 0.014913 0.0258025
0.0242943 0.0227653 0.00932615
0.0216126 0.0232059 0.0146139
0.0154328 0.0230941 0.0177844
0.0292682 0.0185949 0.00721507
0.0313141 0.0227568 0.0135111
0.0185237 0.0231397 0.010248
0.0237341 0.0219154 0.0159186
0.0167766 0.0164612 0.0161407
0.0189853 0.0234703 0.0139596
0.014019 0.0222416 0.0149098
0.0183784 0.0163144 0.0164124
0.0203129 0.0218473 0.0179085
0.0171338 0.0242207 0.019216
0.0208691 0.0212501 0.0185411
0.0192007 0.0159905 0.0195218
0.0178614 0.021915 0.0160881
0.0327957 0.0190095 0.00571076
0.0226054 0.0235646 0.0139919
0.020289 0.0140271 0.0131271
0.0197515 0.0221127 0.0155107
0.019023 0.0240579 0.0162726
0.0234467 0.019485 0.00720651
0.0229074 0.0224874 0.0157412
0.022871 0.014401 0.0148647
0.0294947 0.0196944 0.00725612
0.0190238 0.0246028 0.017904
0.0182801 0.0237191 0.0156583
0.028978 0.0175293 0.00745953
0.019302 0.013876 0.0131765
0.0176602 0.0139078 0.0137795
0.0217073 0.0214694 0.0153332
0.0223177 0.014705 0.0138605
0.019127 0.0137919 0.0171618
0.0258114 0.0210536 0.0153209
0.018689 0.0224944 0.0171718
0.0194707 0.0146981 0.0144588
0.0207298 0.0226949 0.0160135
0.0267036 0.0172406 0.0152917
0.0196494 0.0236536 0.014794
0.0147304 0.0232265 0.0153505
0.0212144 0.0139665 0.0139279
0.0175667 0.0240523 0.0129328
0.0211267 0.0229177 0.0136552
0.0239028 0.021394 0.00805388
0.0381686 0.0197868 0.00591052
0.0202288 0.0196467 0.0171806
0.0224204 0.0192292 0.0167164
0.0183226 0.0140229 0.0130394
0.0236803 0.019978 0.016807
0.0206685 0.0236018 0.0147397
0.0204221 0.0238194 0.0159221
0.0225825 0.0233591 0.0176462
0.0214107 0.0222053 0.0146464
0.0214743 0.0182563 0.0158994
0.0166217 0.021422 0.0162855
0.0218241 0.0240238 0.0186675
0.0217963 0.0206051 0.0169828
0.0209349 0.0167404 0.0153077
0.0197292 0.0230988 0.0158968

VERTICES 163 326
1 0
1 1
1 2
1 3
1 4
1 5
1 6
1 7
1 8
1 9
1 10
1 11
1 12
1 13
1 14
1 15
1 16
1 17
1 18
1 19
1 20
1 21
1 22
1 23
1 24
1 25
1 26
1 27
1 28
1 29
1 30
1 31
1 32
1 33
1 34
1 35
1 36
1 37
1 38
1 39
1 40
1 41
1 42
1 43
1 44
1 45
1 46
1 47
1 48
1 49
1 50
1 51
1 52
1 53
1 54
1 55
1 56
1 57
1 58
1 59
1 60
1 61
1 62
1 63
1 64
1 65
1 66
1 67
1 68
1 69
1 70
1 71
1 72
1 73
1 74
1 75
1 76
1 77
1 78
1 79
1 80
1 81
1 82
1 83
1 84
1 85
1 86
1 87
1 88
1 89
1 90
1 91
1 92
1 93
1 94
1 95
1 96
1 97
1 98
1 99
1 100
1 101
1 102
1 103
1 104
1 105
1 106
1 107
1 108
1 109
1 110
1 111
1 112
1 113
1 114
1 115
1 116
1 117
1 118
1 119
1 120
1 121
1 122
1 123
1 124
1 125
1 126
1 127
1 128
1 129
1 130
1 131
1 132
1 133
1 134
1 135
1 136
1 137
1 138
1 139
1 140
1 141
1 142
1 143
1 144
1 145
1 146
1 147
1 148
1 149
1 150
1 151
1 152
1 153
1 154
1 155
1 156
1 157
1 158
1 159
1 160
1 161
1 162

POINT_DATA 163
SCALARS id int 1
LOOKUP_TABLE default
1
2
4
5
6
7
8
10
11
12
13
14
15
16
17
18
19
20
21
22
23
24
25
26
27
29
30
31
34
35
36
37
38
39
40
41
42
43
44
45
46
48
49
50
51
52
53
54
55
57
58
59
60
61
62
63
64
65
66
68
69
70
71
72
74
75
76
77
78
79
81
82
83
84
85
86
87
89
90
91
92
93
95
97
98
102
103
105
106
107
108
109
110
111
112
113
114
115
117
118
120
122
123
124
125
126
127
128
129
131
132
133
134
135
136
137
138
139
140
141
142
143
144
146
147
148
149
150
151
152
153
154
155
156
157
158
160
161
163
164
166
167
168
169
170
171
173
174
175
176
177
178
179
180
181
182
183
184
185
187
188
189
190

SCALARS type int 1
LOOKUP_TABLE default
1
1
1
1
1
1
1
1
1
1
1
1
1
1
1
1
1
1
1
1
1
1
1
1
1
1
1
1
1
1
1
1
1
1
1
1
1
1
1
1
1
1
1
1
1
1
1
1
1
1
1
1
1
1
1
1
1
1
1
1
1
1
1
1
1
1
1
1
1
1
1
1
1
1
1
1
1
1
1
1
1
1
1
1
1
1
1
1
1
1
1
1
1
1
1
1
1
1
1
1
1
1
1
1
1
1
1
1
1
1
1
1
1
1
1
1
1
1
1
1
1
1
1
1
1
1
1
1
1
1
1
1
1
1
1
1
1
1
1
1
1
1
1
1
1
1
1
1
1
1
1
1
1
1
1
1
1
1
1
1
1
1
1

SCALARS radius float 1
LOOKUP_TABLE default
0.0005
0.0005
0.0005
0.0005
0.0005
0.0005
0.0005
0.0005
0.0005
0.0005
0.0005
0.0005
0.0005
0.0005
0.0005
0.0005
0.0005
0.0005
0.0005
0.0005
0.0005
0.0005
0.0005
0.0005
0.0005
0.0005
0.0005
0.0005
0.0005
0.0005
0.0005
0.0005
0.0005
0.0005
0.0005
0.0005
0.0005
0.0005
0.0005
0.0005
0.0005
0.0005
0.0005
0.0005
0.0005
0.0005
0.0005
0.0005
0.0005
0.0005
0.0005
0.0005
0.0005
0.0005
0.0005
0.0005
0.0005
0.0005
0.0005
0.0005
0.0005
0.0005
0.0005
0.0005
0.0005
0.0005
0.0005
0.0005
0.0005
0.0005
0.0005
0.0005
0.0005
0.0005
0.0005
0.0005
0.0005
0.0005
0.0005
0.0005
0.0005
0.0005
0.0005
0.0005
0.0005
0.0005
0.0005
0.0005
0.0005
0.0005
0.0005
0.0005
0.0005
0.0005
0.0005
0.0005
0.0005
0.0005
0.0005
0.0005
0.0005
0.0005
0.0005
0.0005
0.0005
0.0005
0.0005
0.0005
0.0005
0.0005
0.0005
0.0005
0.0005
0.0005
0.0005
0.0005
0.0005
0.0005
0.0005
0.0005
0.0005
0.0005
0.0005
0.0005
0.0005
0.0005
0.0005
0.0005
0.0005
0.0005
0.0005
0.0005
0.0005
0.0005
0.0005
0.0005
0.0005
0.0005
0.0005
0.0005
0.0005
0.0005
0.0005
0.0005
0.0005
0.0005
0.0005
0.0005
0.0005
0.0005
0.0005
0.0005
0.0005
0.0005
0.0005
0.0005
0.0005
0.0005
0.0005
0.0005
0.0005
0.0005
0.0005

SCALARS mass float 1
LOOKUP_TABLE default
5.23599e-07
5.23599e-07
5.23599e-07
5.23599e-07
5.23599e-07
5.23599e-07
5.23599e-07
5.23599e-07
5.23599e-07
5.23599e-07
5.23599e-07
5.23599e-07
5.23599e-07
5.23599e-07
5.23599e-07
5.23599e-07
5.23599e-07
5.23599e-07
5.23599e-07
5.23599e-07
5.23599e-07
5.23599e-07
5.23599e-07
5.23599e-07
5.23599e-07
5.23599e-07
5.23599e-07
5.23599e-07
5.23599e-07
5.23599e-07
5.23599e-07
5.23599e-07
5.23599e-07
5.23599e-07
5.23599e-07
5.23599e-07
5.23599e-07
5.23599e-07
5.23599e-07
5.23599e-07
5.23599e-07
5.23599e-07
5.23599e-07
5.23599e-07
5.23599e-07
5.23599e-07
5.23599e-07
5.23599e-07
5.23599e-07
5.23599e-07
5.23599e-07
5.23599e-07
5.23599e-07
5.23599e-07
5.23599e-07
5.23599e-07
5.23599e-07
5.23599e-07
5.23599e-07
5.23599e-07
5.23599e-07
5.23599e-07
5.23599e-07
5.23599e-07
5.23599e-07
5.23599e-07
5.23599e-07
5.23599e-07
5.23599e-07
5.23599e-07
5.23599e-07
5.23599e-07
5.23599e-07
5.23599e-07
5.23599e-07
5.23599e-07
5.23599e-07
5.23599e-07
5.23599e-07
5.23599e-07
5.23599e-07
5.23599e-07
5.23599e-07
5.23599e-07
5.23599e-07
5.23599e-07
5.23599e-07
5.23599e-07
5.23599e-07
5.23599e-07
5.23599e-07
5.23599e-07
5.23599e-07
5.23599e-07
5.23599e-07
5.23599e-07
5.23599e-07
5.23599e-07
5.23599e-07
5.23599e-07
5.23599e-07
5.23599e-07
5.23599e-07
5.23599e-07
5.23599e-07
5.23599e-07
5.23599e-07
5.23599e-07
5.23599e-07
5.23599e-07
5.23599e-07
5.23599e-07
5.23599e-07
5.23599e-07
5.23599e-07
5.23599e-07
5.23599e-07
5.23599e-07
5.23599e-07
5.23599e-07
5.23599e-07
5.23599e-07
5.23599e-07
5.23599e-07
5.23599e-07
5.23599e-07
5.23599e-07
5.23599e-07
5.23599e-07
5.23599e-07
5.23599e-07
5.23599e-07
5.23599e-07
5.23599e-07
5.23599e-07
5.23599e-07
5.23599e-07
5.23599e-07
5.23599e-07
5.23599e-07
5.23599e-07
5.23599e-07
5.23599e-07
5.23599e-07
5.23599e-07
5.23599e-07
5.23599e-07
5.23599e-07
5.23599e-07
5.23599e-07
5.23599e-07
5.23599e-07
5.23599e-07
5.23599e-07
5.23599e-07
5.23599e-07
5.23599e-07
5.23599e-07
5.23599e-07
5.23599e-07
5.23599e-07
5.23599e-07
5.23599e-07

VECTORS velocity float
-0.245904 0.022985 -0.0938364
0.000724088 -0.0229958 0.0432225
0.000427679 0.0455759 0.00554627
0.00162885 -0.0185329 -0.0427478
-0.00224925 -0.00748705 0.00237351
0.00225569 -0.0319227 0.0344709
0.00462164 0.00136884 0.0355711
0.000148585 -0.0173588 0.0512494
-0.0242344 -0.0544949 -0.0104486
-0.021968 0.00924271 0.00425541
-0.000261685 0.00345485 0.0502412
0.0363529 -0.0533821 0.120138
0.00479352 0.0109136 0.00394303
0.0268451 -0.00655801 -0.0163978
0.00445544 0.00990712 -0.00867299
0.202036 0.00129455 -0.0799036
-0.0165167 0.00374143 -0.00820341
-0.0105394 0.00204292 -0.00241422
-0.00189811 -0.0109011 -0.0280347
0.00517716 0.0223777 -0.0172182
0.0111225 0.00902895 -0.0404097
0.204289 0.118007 -0.0782025
0.058073 0.0158211 0.00273822
-0.00133649 0.00418098 -0.0160376
0.000568061 -0.03836 -0.0351603
0.0214504 0.0267741 -0.0247683
0.00214182 0.00184924 0.00624257
0.0115403 0.00423095 -0.00804803
-0.00266945 -0.00574814 -0.0231527
-0.0259607 0.0454863 0.0797661
-0.00315925 -0.000770485 0.000638805
0.026024 0.00388263 0.000164534
0.00381682 -0.00974975 -0.0132754
0.000756753 0.0287021 -0.00577419
-0.0218513 -0.00770344 0.0133415
-0.00274275 -0.00333287 0.00129381
0.000729532 -0.00329395 0.00324662
0.0305549 -0.00415699 0.0653234
0.00194574 -0.00664294 0.0381612
-7.29538e-15 3.48421e-14 -1.72292e-13
-0.00534167 0.00617884 -0.00838388
-0.0396829 -0.0784706 0.143337
-0.000591006 0.0368668 -0.0331333
0.00345506 -0.0362273 0.0176188
0.05981 -0.0565011 0.0042593
-0.000290979 -2.80192e-05 -0.0091366
-0.00115912 0.00016228 0.0033869
-2.21432e-06 0.0594249 0.00936028
0.0186119 0.0868218 0.0400297
-0.0215213 0.016712 -0.0373207
-0.0083024 -0.00714355 -0.00220019
0.000728771 0.00756198 0.0489425
0.00543088 0.0229917 0.0283299
0.0264885 -0.147246 0.0315073
-0.0340851 0.0500107 -0.0213459
0.0038024 -0.0223834 -0.0255423
0.00349117 0.00416564 -0.0456626
0.0247135 0.00273003 0.000682347
0.00275325 -0.00278669 0.00534782
-0.0190339 -0.0509445 -0.0647561
-0.001095 -0.00133222 -0.00232625
-0.0116609 -0.0458527 0.118919
0.00488362 -0.00195016 -0.00368406
0.000781283 0.00173246 0.000686898
-0.0181602 0.00853561 -0.00402317
0.00619103 0.00497997 0.00907176
-0.00262809 -0.000737966 0.0070531
0.0148804 0.0241804 -0.0180577
0.0184544 -0.00308034 -0.0101748
-0.000546332 0.00159206 -0.00172132
0.0042337 -0.0774072 0.0337466
-4.39595e-14 9.36736e-14 3.3937e-13
0.00704887 0.00147547 -0.0242066
7.31663e-19 -2.61952e-18 1.55756e-18
0.00688441 0.0485766 -0.0539754
0.0292189 0.041407 0.0355614
-0.0994859 -0.107594 0.0020651
0.000994072 -0.0435895 -0.0211861
0.00436015 0.0267806 -0.0250205
-0.134119 -0.0176431 0.0494073
0.00450679 -0.000501177 0.00804655
0.000877515 -0.051632 0.00719098
-0.0286498 0.00588266 0.0161368
0.0153833 -0.0186361 -0.0157705
0.00190788 -0.00223209 0.00513115
-0.020396 0.0720127 0.482616
-0.0757271 0.0449701 -0.0364652
-7.48876e-16 3.68845e-15 -1.8247e-14
-0.00295687 0.00946596 -0.0245386
0.00254607 0.0252739 0.0253224
0.00102423 -0.0396803 0.027985
0.00407887 0.0396513 -0.00924806
0.048868 0.0181422 0.0164106
2.04826e-05 0.0602747 -0.00218998
0.000395852 -0.00425271 -0.0141355
9.11305e-06 0.00930732 -0.0215784
-0.216959 -0.0234541 -0.0527549
-0.00511871 0.0140624 0.0102008
0.0133435 0.0064922 0.00304138
-0.0133843 -0.00826395 0.0164502
0.00108536 -0.000212223 -0.00797415
-0.00540314 0.0151138 -0.0630302
0.000549818 -3.11309e-06 0.00122921
0.331831 -0.320813 -0.0096171
0.00608461 -0.00956521 -0.0221086
-0.0108244 0.00252364 -0.0316264
-0.0482052 -0.0358622 0.0206708
0.00177724 -0.0457464 0.00698612
-0.00256335 0.0288007 -0.0463757
0.0112019 -0.0161451 -0.0363411
0.0760452 0.0283403 -0.0192052
-0.0376212 0.0689712 -0.0626651
-0.00948921 0.0352278 -0.0644345
-0.0898287 0.0233145 -0.209351
0.0245046 -0.00598371 0.0347652
0.0807243 -0.00305958 0.321272
-0.102677 0.0544792 0.0230831
0.117549 -0.00682263 0.289931
0.002393 0.158484 -0.601059
0.0524545 -0.122783 0.156365
-2.11907e-18 1.17755e-18 -9.11678e-19
-0.00200754 -0.00237713 0.000688008
0.000787045 -6.31788e-05 0.00158237
-0.0244496 -0.0117745 0.0417158
-0.0290633 0.0090428 0.0301049
0.00162737 -0.0178375 -0.00621317
-0.0251709 0.00146619 0.181729
-0.00568473 -0.0014188 -0.00710549
0.00189329 -0.0509045 -0.00871595
0.0572213 0.14773 -0.0804423
0.00343351 0.00373803 0.00346232
0.000423476 -0.0497953 0.0164246
0.000852233 -0.00257604 0.00456029
-0.0052011 -0.00172718 0.00788608
0.0306138 -0.00198825 0.0438373
0.0420407 0.0145804 0.03208
-0.0341069 -0.0735397 -0.0609116
0.00236245 0.0374613 -0.0226593
-0.0723168 -0.0230248 0.106892
0.00419288 -0.00060369 0.00303623
-0.0768839 0.00775779 0.0576847
0.00112677 0.0472608 0.0179002
-0.0195698 -0.0310034 -0.0254212
0.00997398 -0.0168149 0.00519732
0.00301671 0.0108792 -0.0195023
-0.000450419 -0.000874212 -0.0038477
-0.00733148 0.0172262 -0.026321
0.000196927 -0.0434426 -0.0292646
1.04103e-14 -4.97175e-14 2.45847e-13
0.0206558 -0.110668 0.0488651
0.0405888 -0.0286908 0.0454226
-0.000752006 -0.00353866 0.0108775
0.0236823 -0.0268628 0.00337725
-0.0308347 -0.0151073 0.0153666
0.0402984 0.0159012 0.0192992
0.0501385 0.0569576 0.136639
0.0236721 -0.019325 -0.0339284
0.00271328 0.0232415 0.00718969
-0.0541198 -0.0964451 0.0814151
-0.00630084 -0.0600685 -0.0327186
0.0827222 0.0426403 0.0381984
0.0116353 0.00793144 -0.00320516
0.0353624 0.015881 0.0299431

VECTORS force float
0.0 0.0 -5.1365e-06
-9.64375e-07 1.22965e-06 -5.69634e-06
0.0 0.0 -5.1365e-06
2.36421e-06 2.2464e-06 4.62992e-06
1.89385e-06 -3.28922e-06 3.67703e-06
-1.67779e-06 3.27323e-06 -2.70601e-06
6.09981e-07 -3.94073e-06 1.11141e-05
-1.48644e-08 1.95974e-07 9.6476e-08
0.0 0.0 -5.1365e-06
0.0 0.0 -5.1365e-06
0.0 0.0 -5.1365e-06
0.0 0.0 -5.1365e-06
6.80406e-06 4.00144e-06 -1.88305e-06
0.0 0.0 -5.1365e-06
0.0 0.0 -5.1365e-06
0.0 0.0 -5.1365e-06
0.000412213 6.35802e-05 -0.00015865
9.15875e-05 -1.998e-05 0.000141306
0.000302652 1.99306e-05 -0.000175574
0.0 0.0 -5.1365e-06
-7.12473e-05 -0.000246943 0.000285045
0.0 0.0 -5.1365e-06
0.0 0.0 -5.1365e-06
5.54443e-05 -0.000555736 0.000345443
-7.25605e-09 -2.13278e-07 1.04446e-07
-4.11273e-06 -1.77941e-05 -1.06493e-05
9.63305e-05 8.80609e-05 -7.28402e-05
-0.000155217 2.10358e-06 -2.555e-05
0.000323941 -7.14201e-05 5.3353e-05
0.0 0.0 -5.1365e-06
4.00118e-05 1.33594e-05 -1.91142e-05
0.0 0.0 -5.1365e-06
0.0 0.0 -5.1365e-06
0.0 0.0 -5.1365e-06
0.0 0.0 -5.1365e-06
1.13847e-05 4.76972e-05 -2.99491e-05
-4.03599e-07 -2.0575e-06 6.82407e-06
0.00396583 0.00316151 -0.00246291
5.8489e-08 -3.59427e-07 4.31731e-09
-2.91168e-22 8.47033e-22 0.0
1.2494e-05 4.74841e-05 0.000367748
0.0 0.0 -5.1365e-06
2.93133e-08 -2.29997e-08 -2.61995e-07
0.0 0.0 -5.1365e-06
0.0 0.0 -5.1365e-06
0.0 0.0 -5.1365e-06
4.90973e-08 2.26881e-07 -4.50677e-06
2.80046e-09 6.63362e-08 -3.65483e-07
0.0 0.0 -5.1365e-06
0.000367696 -3.51424e-05 -3.68918e-05
1.93641e-08 9.48245e-07 4.21106e-07
-4.96891e-07 2.99803e-06 4.64499e-06
-1.04076e-06 2.93632e-06 1.08125e-05
0.0 0.0 -5.1365e-06
0.0 0.0 -5.1365e-06
0.0 0.0 -5.1365e-06
-0.000154998 0.00019739 0.000163995
0.0 0.0 -5.1365e-06
-4.29234e-07 -3.59005e-07 7.94486e-07
0.0 0.0 -5.1365e-06
-2.63394e-05 1.72549e-06 -1.0546e-05
0.0 0.0 -5.1365e-06
0.0 0.0 -5.1365e-06
-1.72003e-06 1.0637e-06 -2.35496e-06
0.000218614 0.000130137 -3.41487e-05
0.0 0.0 -5.1365e-06
0.000207821 2.24687e-05 -0.000162687
0.0 0.0 -5.1365e-06
0.0 0.0 -5.1365e-06
-7.07026e-06 7.86974e-06 -3.58059e-06
0.0 0.0 -5.1365e-06
-1.05879e-22 0.0 8.47033e-22
-2.09382e-05 4.59323e-06 -8.15464e-06
5.29396e-22 -2.11758e-22 1.69407e-21
0.0 0.0 -5.1365e-06
0.0 0.0 -5.1365e-06
0.0 0.0 -5.1365e-06
-9.23199e-08 -3.08922e-07 9.25409e-08
-1.79497e-07 -5.4866e-07 -8.20262e-08
0.0 0.0 -5.1365e-06
0.0 0.0 -5.1365e-06
3.36938e-05 6.16126e-06 -2.32405e-05
0.0 0.0 -5.1365e-06
4.41053e-06 -3.29509e-06 -1.20775e-07
3.02081e-07 4.62348e-07 4.00732e-06
0.0 0.0 -5.1365e-06
0.0 0.0 -5.1365e-06
-1.058e-19 3.17637e-21 4.23516e-21
0.00134985 0.00110477 -0.000369534
-8.05161e-06 -7.68006e-06 -1.73838e-05
-1.03041e-07 -1.32472e-07 3.51639e-07
-4.18973e-07 4.41616e-07 -1.01183e-06
0.0 0.0 -5.1365e-06
9.56181e-08 -3.8077e-08 -3.4742e-07
-3.42982e-05 -2.49474e-06 -6.68595e-06
-1.90719e-07 -1.70011e-08 8.85615e-09
0.0 0.0 -5.1365e-06
-0.00066757 6.80804e-05 -0.00104554
-5.60487e-06 2.08426e-06 -4.24897e-06
-0.000162723 8.95653e-05 -1.911e-05
-6.38191e-07 1.44807e-06 1.59596e-06
0.000290805 -8.53913e-05 0.000215302
1.14536e-05 2.09665e-05 -1.52168e-05
0.0 0.0 -5.1365e-06
-0.000412345 -3.19139e-05 0.000798849
0.0 0.0 -5.1365e-06
0.0 0.0 -5.1365e-06
-1.40658e-07 -2.50139e-07 2.35069e-07
-1.3918e-05 2.52864e-05 -4.93385e-05
0.00028224 -0.000238558 0.000107797
-9.63305e-05 -8.80609e-05 6.25672e-05
0.0 0.0 -5.1365e-06
2.32924e-05 -0.000124758 0.000453565
0.0 0.0 -5.1365e-06
0.0 0.0 -5.1365e-06
0.0 0.0 -5.1365e-06
0.0 0.0 -5.1365e-06
0.0 0.0 -5.1365e-06
0.0 0.0 -5.1365e-06
0.0 0.0 -5.1365e-06
2.11758e-22 2.11758e-22 3.38813e-21
-3.33388e-05 4.6506e-05 -6.74049e-05
-3.13829e-07 2.10284e-06 1.23567e-06
0.0 0.0 -5.1365e-06
0.0 0.0 -5.1365e-06
6.7457e-05 8.44975e-05 -3.32506e-05
0.0 0.0 -5.1365e-06
5.7327e-07 5.89282e-07 1.37966e-06
-3.99432e-07 -4.89747e-07 7.49905e-08
0.0 0.0 -5.1365e-06
6.20433e-06 -1.92233e-05 -1.36157e-06
-3.67534e-08 -1.65056e-08 2.39694e-07
-3.20562e-06 9.8709e-07 -4.35463e-07
1.15749e-08 5.57542e-08 -3.59343e-06
0.0 0.0 -5.1365e-06
0.0 0.0 -5.1365e-06
0.0 0.0 -5.1365e-06
5.10654e-08 -2.22185e-08 -3.23897e-07
0.0 0.0 -5.1365e-06
0.0 0.0 -5.1365e-06
0.0 0.0 -5.1365e-06
2.64509e-07 8.20026e-07 -2.22293e-07
0.0 0.0 -5.1365e-06
0.0 0.0 -5.1365e-06
2.19066e-06 -1.66896e-06 -3.80652e-06
2.04048e-06 -1.47493e-07 -3.43864e-06
-1.50491e-05 9.84883e-05 -0.000107957
-1.76301e-08 -2.0253e-07 1.32336e-07
-2.31611e-20 4.23516e-22 8.47033e-22
0.0 0.0 -5.1365e-06
0.0 0.0 -5.1365e-06
-3.94971e-06 1.18916e-06 -3.27054e-06
0.0 0.0 -5.1365e-06
0.0 0.0 -5.1365e-06
-1.06215e-06 -1.24146e-06 3.20155e-08
0.0 0.0 -5.1365e-06
0.0 0.0 -5.1365e-06
4.77762e-06 4.80972e-06 -5.12108e-06
0.0 0.0 -5.1365e-06
0.0 0.0 -5.1365e-06
0.0 0.0 -5.1365e-06
0.0 0.0 -5.1365e-06
1.06215e-06 1.24146e-06 -1.0305e-05
