# vtk DataFile Version 3.0
LIGGGHTS particles timestep 4800000
ASCII
DATASET POLYDATA
POINTS 137 float
0.0301751 0.0199402 0.00583053
0.0325228 0.0182866 0.015691
0.0311969 0.0190595 0.00570718
0.0356095 0.0204602 0.00754602
0.0327954 0.0169983 0.0152694
0.0320279 0.0203328 0.0155508
0.0322845 0.0194188 0.0158014
0.0216579 0.0219176 0.0149027
0.0232872 0.00229723 0.0435187
0.0302591 0.0185329 0.0057867
0.0222313 0.0230284 0.0149439
0.0282774 0.0152564 0.00952488
0.0278489 0.0147601 0.0115843
0.0195899 0.0244441 0.0137407
0.0256184 0.0219687 0.0145518
0.0195573 0.0143013 0.0138834
0.0243134 0.015673 0.015535
0.0186206 0.0228012 0.0165208
0.0220814 0.0149027 0.0104167
0.0174093 0.0146244 0.0120049
0.0274128 0.0152206 0.0132691
0.0351972 0.018468 0.00731553
0.0257885 0.0210439 0.0153376
0.0242304 0.0226312 0.00913095
0.0420308 0.0170364 0.00666617
0.0217625 0.0238523 0.0136721
0.0189822 0.0233518 0.010979
0.0206673 0.0178456 0.0157804
0.0225524 0.015455 0.0143489
0.0208623 0.024254 0.0139523
0.0232701 0.0186656 0.00721694
0.0190892 0.023961 0.0162112
0.0185194 0.0230115 0.0100886
0.0201887 0.0204131 0.0157342
0.0398528 0.019832 0.00584932
0.0237884 0.0209209 0.00779241
0.0212635 0.0229225 0.0151705
0.0301447 0.0221968 0.00851208
0.0285336 0.0157519 0.00873995
0.0237925 0.0192214 0.00595071
0.0208047 0.0213393 0.0153118
0.0208524 0.0234788 0.0119175
0.0232696 0.023179 0.0147795
0.0197733 0.0236064 0.0141369
0.0169421 0.0239451 0.0133956
0.0199557 0.0234342 0.0114825
0.0175099 0.0145608 0.0139835
0.0227046 0.0211853 0.0182061
0.0205126 0.0145135 0.0143075
0.0203399 0.0193931 0.0159455
0.0288753 0.0170753 0.00764249
0.0204061 0.0242493 0.0171755
0.0222142 0.0154888 0.0153971
0.0214441 0.0153462 0.0140676
0.0189544 0.0241921 0.0130373
0.0216073 0.0238407 0.0146605
0.0329708 0.0200808 0.00595653
0.0210157 0.0239389 0.0130159
0.0239395 0.0202041 0.00583859
0.0200175 0.0241421 0.0129353
0.0216256 0.01743 0.0156442
0.0225637 0.0195823 0.0058395
0.0265508 0.0211233 0.0152302
0.033703 0.0194141 0.00581744
0.0260344 0.0203647 0.0156067
0.0190022 0.0147542 0.0148734
0.0215213 0.0173016 0.0114652
0.0345416 0.015795 0.00866317
0.0365536 0.0231662 0.0102638
0.0214124 0.0139446 0.0144162
0.0205384 0.0221119 0.0147362
0.016196 0.0162609 0.0156908
0.0225744 0.0235952 0.0141947
0.015277 0.0206507 0.0161028
0.0161892 0.0236835 0.013999
0.0216505 0.0147668 0.0128683
0.0389148 0.0189256 0.00570476
0.023917 0.022665 0.0153417
0.0330537 0.016183 0.0147462
0.0310317 0.0233162 0.0123101
0.0236535 0.0151501 0.0149956
0.0209338 0.0167719 0.0153291
0.0298808 0.0213718 0.00783265
0.0164558 0.0231488 0.0148008
0.0316157 0.0221296 0.0145302
0.0198287 0.0215783 0.0151912
0.0191314 0.023464 0.0118875
0.0228676 0.016233 0.015095
0.0193556 0.022947 0.0136025
0.0203297 0.0229282 0.0136795
0.0292364 0.018482 0.00725161
0.02188 0.0164798 0.0151228
0.0227558 0.0145217 0.0147634
0.0337695 0.0147765 0.0118598
0.0370263 0.0232859 0.0123521
0.0229338 0.0225157 0.0154463
0.0179569 0.0238168 0.0148958
0.0221446 0.0146434 0.0138946
0.0172562 0.0235207 0.0142443
0.0212776 0.0225603 0.0142386
0.0214773 0.0148565 0.0149696
0.0217806 0.0147257 0.0118675
0.0200023 0.0233593 0.0124304
0.0178973 0.0140912 0.0131785
0.0327934 0.019013 0.00570964
0.0184437 0.0229609 0.0150279
0.018094 0.0242929 0.0140234
0.0211253 0.0158317 0.0149597
0.0226344 0.0171967 0.0156289
0.0207156 0.0234071 0.0144667
0.021915 0.020022 0.0158405
0.0340549 0.014903 0.0104983
0.0208765 0.0140785 0.0134469
0.0334596 0.0150932 0.0130569
0.0212413 0.0230668 0.0133797
0.0220346 0.0162536 0.0160843
0.0267038 0.0172445 0.0152922
0.0185474 0.0143324 0.0139187
0.025711 0.0203828 0.0165912
0.0304714 0.0230667 0.009868
0.0247688 0.0220532 0.0163385
0.0210263 0.0223329 0.0160172
0.031313 0.0227593 0.0135052
0.0178807 0.0240659 0.0130735
0.0218249 0.021097 0.015498
0.0187613 0.0235853 0.0142529
0.022377 0.0184457 0.0159178
0.0198945 0.0140065 0.0129893
0.0381686 0.0197868 0.00591052
0.0164732 0.0145964 0.0139683
0.0270869 0.0161046 0.0146126
0.0191216 0.0233059 0.0127688
0.0161153 0.0148992 0.013085
0.019643 0.0236006 0.0151316
0.0205531 0.0235932 0.0155575
0.0188948 0.0140001 0.0129702
0.0219714 0.022429 0.0157029

VERTICES 137 274
1 0
1 1
1 2
1 3
1 4
1 5
1 6
1 7
1 8
1 9
1 10
1 11
1 12
1 13
1 14
1 15
1 16
1 17
1 18
1 19
1 20
1 21
1 22
1 23
1 24
1 25
1 26
1 27
1 28
1 29
1 30
1 31
1 32
1 33
1 34
1 35
1 36
1 37
1 38
1 39
1 40
1 41
1 42
1 43
1 44
1 45
1 46
1 47
1 48
1 49
1 50
1 51
1 52
1 53
1 54
1 55
1 56
1 57
1 58
1 59
1 60
1 61
1 62
1 63
1 64
1 65
1 66
1 67
1 68
1 69
1 70
1 71
1 72
1 73
1 74
1 75
1 76
1 77
1 78
1 79
1 80
1 81
1 82
1 83
1 84
1 85
1 86
1 87
1 88
1 89
1 90
1 91
1 92
1 93
1 94
1 95
1 96
1 97
1 98
1 99
1 100
1 101
1 102
1 103
1 104
1 105
1 106
1 107
1 108
1 109
1 110
1 111
1 112
1 113
1 114
1 115
1 116
1 117
1 118
1 119
1 120
1 121
1 122
1 123
1 124
1 125
1 126
1 127
1 128
1 129
1 130
1 131
1 132
1 133
1 134
1 135
1 136

POINT_DATA 137
SCALARS id int 1
LOOKUP_TABLE default
1
2
4
5
7
8
10
11
12
13
14
15
16
19
20
21
22
23
24
25
26
27
29
30
31
34
35
36
37
40
41
42
43
44
45
46
48
49
50
52
53
54
55
58
59
60
61
62
63
64
65
66
68
71
72
74
75
76
78
79
81
82
83
84
85
86
87
89
90
91
92
95
97
98
102
103
105
107
108
109
110
112
113
114
115
118
120
122
123
124
125
126
127
128
129
131
133
134
135
136
138
139
140
141
142
143
144
147
148
149
150
151
153
154
155
156
157
158
160
161
163
164
167
169
170
171
173
174
175
178
181
182
183
185
188
189
190

SCALARS type int 1
LOOKUP_TABLE default
1
1
1
1
1
1
1
1
1
1
1
1
1
1
1
1
1
1
1
1
1
1
1
1
1
1
1
1
1
1
1
1
1
1
1
1
1
1
1
1
1
1
1
1
1
1
1
1
1
1
1
1
1
1
1
1
1
1
1
1
1
1
1
1
1
1
1
1
1
1
1
1
1
1
1
1
1
1
1
1
1
1
1
1
1
1
1
1
1
1
1
1
1
1
1
1
1
1
1
1
1
1
1
1
1
1
1
1
1
1
1
1
1
1
1
1
1
1
1
1
1
1
1
1
1
1
1
1
1
1
1
1
1
1
1
1
1

SCALARS radius float 1
LOOKUP_TABLE default
0.0005
0.0005
0.0005
0.0005
0.0005
0.0005
0.0005
0.0005
0.0005
0.0005
0.0005
0.0005
0.0005
0.0005
0.0005
0.0005
0.0005
0.0005
0.0005
0.0005
0.0005
0.0005
0.0005
0.0005
0.0005
0.0005
0.0005
0.0005
0.0005
0.0005
0.0005
0.0005
0.0005
0.0005
0.0005
0.0005
0.0005
0.0005
0.0005
0.0005
0.0005
0.0005
0.0005
0.0005
0.0005
0.0005
0.0005
0.0005
0.0005
0.0005
0.0005
0.0005
0.0005
0.0005
0.0005
0.0005
0.0005
0.0005
0.0005
0.0005
0.0005
0.0005
0.0005
0.0005
0.0005
0.0005
0.0005
0.0005
0.0005
0.0005
0.0005
0.0005
0.0005
0.0005
0.0005
0.0005
0.0005
0.0005
0.0005
0.0005
0.0005
0.0005
0.0005
0.0005
0.0005
0.0005
0.0005
0.0005
0.0005
0.0005
0.0005
0.0005
0.0005
0.0005
0.0005
0.0005
0.0005
0.0005
0.0005
0.0005
0.0005
0.0005
0.0005
0.0005
0.0005
0.0005
0.0005
0.0005
0.0005
0.0005
0.0005
0.0005
0.0005
0.0005
0.0005
0.0005
0.0005
0.0005
0.0005
0.0005
0.0005
0.0005
0.0005
0.0005
0.0005
0.0005
0.0005
0.0005
0.0005
0.0005
0.0005
0.0005
0.0005
0.0005
0.0005
0.0005
0.0005

SCALARS mass float 1
LOOKUP_TABLE default
5.23599e-07
5.23599e-07
5.23599e-07
5.23599e-07
5.23599e-07
5.23599e-07
5.23599e-07
5.23599e-07
5.23599e-07
5.23599e-07
5.23599e-07
5.23599e-07
5.23599e-07
5.23599e-07
5.23599e-07
5.23599e-07
5.23599e-07
5.23599e-07
5.23599e-07
5.23599e-07
5.23599e-07
5.23599e-07
5.23599e-07
5.23599e-07
5.23599e-07
5.23599e-07
5.23599e-07
5.23599e-07
5.23599e-07
5.23599e-07
5.23599e-07
5.23599e-07
5.23599e-07
5.23599e-07
5.23599e-07
5.23599e-07
5.23599e-07
5.23599e-07
5.23599e-07
5.23599e-07
5.23599e-07
5.23599e-07
5.23599e-07
5.23599e-07
5.23599e-07
5.23599e-07
5.23599e-07
5.23599e-07
5.23599e-07
5.23599e-07
5.23599e-07
5.23599e-07
5.23599e-07
5.23599e-07
5.23599e-07
5.23599e-07
5.23599e-07
5.23599e-07
5.23599e-07
5.23599e-07
5.23599e-07
5.23599e-07
5.23599e-07
5.23599e-07
5.23599e-07
5.23599e-07
5.23599e-07
5.23599e-07
5.23599e-07
5.23599e-07
5.23599e-07
5.23599e-07
5.23599e-07
5.23599e-07
5.23599e-07
5.23599e-07
5.23599e-07
5.23599e-07
5.23599e-07
5.23599e-07
5.23599e-07
5.23599e-07
5.23599e-07
5.23599e-07
5.23599e-07
5.23599e-07
5.23599e-07
5.23599e-07
5.23599e-07
5.23599e-07
5.23599e-07
5.23599e-07
5.23599e-07
5.23599e-07
5.23599e-07
5.23599e-07
5.23599e-07
5.23599e-07
5.23599e-07
5.23599e-07
5.23599e-07
5.23599e-07
5.23599e-07
5.23599e-07
5.23599e-07
5.23599e-07
5.23599e-07
5.23599e-07
5.23599e-07
5.23599e-07
5.23599e-07
5.23599e-07
5.23599e-07
5.23599e-07
5.23599e-07
5.23599e-07
5.23599e-07
5.23599e-07
5.23599e-07
5.23599e-07
5.23599e-07
5.23599e-07
5.23599e-07
5.23599e-07
5.23599e-07
5.23599e-07
5.23599e-07
5.23599e-07
5.23599e-07
5.23599e-07
5.23599e-07
5.23599e-07
5.23599e-07
5.23599e-07
5.23599e-07
5.23599e-07
5.23599e-07

VECTORS velocity float
1.82257e-14 1.06221e-13 -3.37788e-13
-0.000412094 0.0535147 0.00997667
-8.71287e-15 9.29827e-17 -1.02212e-13
0.000719026 -0.0480315 -0.015427
0.00116235 0.042371 0.0211475
0.000817417 0.0461411 -0.0157795
0.00177814 0.0362412 -0.00461072
0.00942478 -0.00935464 0.00899121
-1.2817e-12 -7.19994e-13 1.99722e-12
6.60125e-15 -6.27797e-17 7.74361e-14
0.00700858 -0.000281271 0.00164594
0.000937386 -0.0215661 0.0434057
0.00355437 -0.0010858 0.0357244
-0.0851829 -0.119733 -0.00013896
0.000393755 0.0363733 -0.0358961
-0.0163287 0.00856659 -0.00615944
-0.0019231 0.000645953 -0.00451934
-0.0327647 0.00762827 -0.0641146
0.000454428 -0.0131797 0.0503222
0.00956001 0.00384389 -0.014115
0.00325205 0.0206389 0.0418301
0.00198948 -0.0540252 -0.00454607
0.00211825 0.0367248 -0.0215599
0.00614057 0.00957007 0.00288043
0.0551704 -0.099265 -0.0105305
0.0148496 0.0057814 0.000155524
0.000463252 0.00151822 -0.0124038
0.00202704 0.0447636 0.0130118
0.00300175 0.0123075 0.0949155
-0.00318433 0.00728783 0.00267826
0.00150862 -0.0501723 0.00391072
-0.0349088 0.00324746 -0.0107209
0.00655528 -0.0138894 -0.0349111
6.23119e-07 0.0473631 -0.0149065
-0.0168754 0.00767387 0.0179421
0.000144264 -0.0469768 -0.0259903
0.0069342 -0.00292078 0.0153486
0.000366203 -0.0351078 -0.0366507
0.00392556 -0.0235388 0.0243488
2.19001e-15 4.49285e-15 1.47259e-14
0.0181674 -0.0198651 0.0029574
-0.00140705 0.00133941 -0.00209139
0.000160681 0.00321273 0.00115499
0.284482 -0.0669325 0.598637
0.000826532 0.000215831 0.000871807
0.00710297 -0.00268588 -0.0210241
0.00210581 0.0153249 0.0307192
-0.00780034 0.061048 -0.126106
-0.0515251 -0.044927 0.0521597
0.00100539 0.0508635 -0.00365452
0.00108253 -0.0410347 0.0189708
-0.024565 0.00855919 0.0508324
-0.0322601 -0.0027226 0.0373566
0.0853851 0.0437082 0.0528852
0.00019444 -0.021942 -0.00534998
-0.00180127 0.00337831 -0.00178108
-2.6769e-12 6.62293e-12 1.25177e-13
0.00680909 -0.00343157 0.00382745
6.32476e-16 -6.14548e-15 1.59356e-14
0.0150627 -0.0485927 -0.0125523
0.0126578 0.03655 0.0172861
-4.39602e-14 9.36747e-14 3.3937e-13
0.00603694 0.0298994 -0.0188594
3.09927e-12 1.29251e-11 3.99113e-12
0.00420657 0.0394215 -0.0095419
0.0101528 -0.0147276 -0.0341984
-0.00126715 -0.121267 -0.00687062
0.00064075 -0.0332532 0.0387933
0.00280329 -0.0148509 -0.0415556
-0.0273622 0.0272203 0.0254789
0.0266388 -0.00432399 0.0174808
0.000738657 -0.035985 -0.0863053
0.00208479 0.00208887 0.00680787
0.152077 0.023827 0.018487
0.00133639 0.000363663 -8.58632e-05
0.0146178 -0.00379181 0.0307308
-8.25003e-16 3.70098e-15 -1.82412e-14
0.00451678 0.000932024 0.00572958
0.00157666 0.03681 0.033827
0.00246776 0.00692214 -0.0446616
-0.00287614 -0.00349087 -0.000952023
0.00320485 0.0382744 0.0182762
0.00781121 -0.0310178 -0.0183622
0.00975536 0.00361488 -0.0012365
0.00435623 0.0267772 -0.0249776
0.0149531 0.00361034 0.0195796
0.00565758 0.00996912 -0.00967674
-0.0563665 0.0752971 0.094981
0.094103 0.0401969 0.165725
0.0489881 0.00407824 0.058499
0.0490761 -0.0499008 0.00147083
0.00317744 0.0282186 0.0202186
-0.0683751 0.0123344 0.0439545
0.000741469 -0.0012658 0.0544454
0.000974823 0.0119437 -0.0549789
0.00938601 0.000158434 0.00859647
-0.000108941 0.0021843 -0.000429769
0.0484985 -0.00533217 0.00602839
0.00672972 0.00309376 -0.00465886
0.0314927 -0.00684662 0.00883742
-0.0108214 -0.0222848 -0.0622919
0.00289501 0.0048933 0.0445812
0.0203563 -0.0113873 -0.0377514
-0.00410937 -0.00732839 0.0435657
7.04733e-12 1.4932e-12 1.15856e-13
0.0225587 0.01671 -0.0146815
0.0017227 -0.000198615 -0.00225347
0.00274826 0.0157872 0.0396733
-0.0370891 0.142732 0.0938039
0.0182441 -0.000773128 -0.0194904
0.0127162 -0.00883651 -0.00651431
0.0106814 -0.00160311 -0.0123771
-0.00336892 -0.00607164 0.0299642
0.000736795 0.0185757 0.0476297
0.0211262 0.00319764 -0.00165436
0.0120108 0.00941018 0.014962
0.00125144 0.0473909 0.0178097
0.0146885 0.000612327 0.0266018
-0.017607 0.0626668 -0.0160062
0.00138993 -0.0193848 -0.0445823
-0.068661 0.0283751 -0.00171693
-0.0123745 0.0491014 -0.0136588
-0.00276611 0.0292511 -0.0471253
-6.92694e-05 -0.00128836 -0.000121047
0.00298918 0.0346961 -0.00348411
0.0147528 0.00687616 -0.00559232
4.73228e-08 0.0493442 0.00652116
-0.00213015 0.000644145 -0.000329827
1.04084e-14 -4.9716e-14 2.45847e-13
-0.011606 -0.00410815 0.00705711
0.00289451 0.0262613 0.0257298
0.0132735 -0.0276203 -0.0026431
-4.99752e-05 -0.000791441 0.00204259
0.00864658 -0.0127451 -0.0196547
0.0231756 -0.0050917 -0.02021
-0.00203799 0.00618206 -0.00990877
0.00386888 0.0184834 0.000556205

VECTORS force float
7.41154e-22 0.0 0.0
-4.97741e-07 1.29335e-06 2.4846e-07
-1.32349e-21 3.26058e-20 0.0
8.28486e-07 -1.20679e-07 -1.3251e-06
-8.09032e-08 3.37072e-07 -8.56748e-08
-7.16207e-07 3.59438e-06 -2.77025e-06
-4.37163e-06 6.17446e-06 6.04793e-06
-8.94679e-06 -5.35835e-06 1.77125e-05
5.877e-16 3.3014e-16 -9.99499e-20
0.0 3.58169e-22 0.0
1.61082e-05 3.58424e-06 6.53144e-07
4.4526e-05 -4.22282e-05 3.22023e-06
-6.5443e-08 1.08491e-05 1.89139e-06
4.3245e-05 -0.000528678 0.00043643
-1.90059e-08 -5.48762e-08 -2.54041e-07
0.0 0.0 -5.1365e-06
-2.49369e-06 2.39534e-06 4.68867e-07
0.0 0.0 -5.1365e-06
-2.27994e-08 1.77298e-07 1.93509e-07
0.0 0.0 -5.1365e-06
-1.71221e-06 2.20392e-06 5.19152e-07
2.98696e-05 8.02277e-07 3.18442e-06
7.9476e-07 4.58337e-07 2.20628e-06
3.10407e-06 1.98371e-06 5.0623e-06
0.0 0.0 -5.1365e-06
-0.000192812 -6.36552e-05 -0.000221846
-2.06823e-05 3.47108e-05 6.63218e-05
-1.68969e-07 7.94691e-07 -6.55714e-08
0.0 0.0 -5.1365e-06
2.7082e-07 -8.63749e-07 -1.08531e-06
-5.07279e-05 7.27467e-05 2.73625e-05
0.0 0.0 -5.1365e-06
-1.71779e-07 1.51367e-06 3.17403e-06
-5.9202e-09 -9.24567e-08 -2.69733e-07
0.0 0.0 -5.1365e-06
-2.19975e-08 -1.13416e-07 1.88454e-07
-1.36555e-05 -4.35792e-06 -1.46874e-05
-1.20005e-08 -2.49088e-07 4.12314e-08
0.000104495 -6.3864e-05 -1.33535e-05
7.94093e-22 0.0 0.0
-1.13648e-06 -9.16055e-06 1.39047e-05
9.92781e-06 -6.07491e-07 -3.78e-05
-0.000167727 -3.55747e-05 -1.50356e-06
0.00108712 -9.52558e-05 0.0034104
-3.4888e-06 6.45458e-07 2.67547e-06
-0.000117134 4.37626e-05 -0.00017848
0.0 0.0 -5.1365e-06
0.0 0.0 -5.1365e-06
0.0 0.0 -5.1365e-06
3.56661e-08 -2.02848e-09 -3.52099e-07
6.69734e-09 2.79015e-06 -1.29691e-06
0.0 0.0 -5.1365e-06
0.0 0.0 -5.1365e-06
0.0 0.0 -5.1365e-06
6.86544e-05 -0.000218632 0.000166998
0.0 0.0 -5.1365e-06
9.61105e-14 2.47355e-14 2.33668e-14
0.000133604 0.000222294 -6.95191e-05
1.69407e-21 -4.23516e-22 0.0
3.8509e-05 -0.000222238 -6.36592e-05
0.0 0.0 -5.1365e-06
1.05879e-22 -2.11758e-22 -8.47033e-22
2.46152e-06 3.2495e-06 -7.53226e-06
-8.94473e-14 -1.76692e-13 -6.50864e-14
-1.91021e-07 5.76966e-07 -9.4609e-07
0.0 0.0 -5.1365e-06
0.0 0.0 -5.1365e-06
-2.80011e-08 1.36883e-07 2.15579e-07
-2.55715e-07 -3.69835e-07 -5.1619e-07
0.0 0.0 -5.1365e-06
6.1396e-06 -2.16703e-05 2.62413e-05
0.0 0.0 -5.1365e-06
2.41816e-05 1.18933e-05 1.9277e-05
0.0 0.0 -5.1365e-06
-2.61434e-06 -9.11826e-07 5.72565e-06
0.0 0.0 -5.1365e-06
-1.79306e-19 -2.66815e-20 2.5411e-21
-2.38831e-06 -1.4253e-06 -6.41754e-06
-2.28674e-08 2.18573e-07 -9.49653e-08
1.1129e-05 9.04942e-06 -3.86607e-06
-1.2102e-06 1.51498e-07 3.42481e-07
0.0 0.0 -5.1365e-06
-9.30192e-05 0.000100192 0.000358644
-7.08131e-07 -3.05879e-06 -2.92577e-06
3.80265e-08 -3.48334e-07 -3.60332e-07
-3.90425e-06 -1.91579e-05 3.05541e-05
-2.94029e-05 9.6666e-05 0.000155123
0.0 0.0 -5.1365e-06
0.00064197 -1.19602e-05 0.00125825
-0.000371451 -8.69131e-05 9.43345e-05
-0.00346584 0.00324812 0.00350926
4.36549e-08 -1.04836e-07 -3.81779e-07
0.0 0.0 -5.1365e-06
1.16568e-08 1.648e-07 3.46012e-08
1.25554e-06 -9.59483e-06 7.13044e-05
-4.77297e-05 -7.33696e-05 6.63783e-05
8.95417e-06 -2.80046e-06 1.16498e-06
0.0 0.0 -5.1365e-06
5.42168e-06 -7.55874e-06 1.90994e-05
0.000119575 3.45873e-05 -2.46085e-05
0.0 0.0 -5.1365e-06
-1.07781e-06 3.46384e-07 6.13962e-06
-0.000129425 4.85344e-05 -0.000613491
0.0 0.0 -5.1365e-06
-2.17245e-13 1.20074e-13 -2.8739e-14
1.85845e-06 -4.59922e-06 -2.91204e-06
1.09141e-05 2.2692e-05 5.41823e-06
0.0 0.0 -5.1365e-06
0.0 0.0 -5.1365e-06
0.000155638 -1.11371e-05 0.00019725
-1.71653e-05 9.28791e-05 0.000126495
-3.09602e-06 -3.10392e-07 1.50129e-05
0.0 0.0 -5.1365e-06
6.97633e-06 -1.10606e-05 1.72993e-06
-0.000176854 -4.35571e-05 0.000140814
1.09523e-07 -1.43642e-06 -4.30864e-07
2.72383e-07 8.64215e-07 -1.41115e-07
0.0 0.0 -5.1365e-06
0.0 0.0 -5.1365e-06
2.36502e-09 8.98987e-07 8.2334e-07
0.0 0.0 -5.1365e-06
0.0 0.0 -5.1365e-06
3.90996e-06 -8.67544e-06 1.77947e-05
9.57783e-07 -9.72061e-06 -3.58747e-06
0.0 0.0 -5.1365e-06
4.08187e-06 1.50651e-05 -5.49316e-06
-1.01429e-08 1.9361e-08 -3.28906e-07
8.24397e-07 -3.93049e-09 -4.93518e-06
7.47771e-20 1.16467e-20 0.0
1.25967e-07 3.72071e-08 -5.39507e-06
-3.34053e-07 -1.18509e-08 -5.52463e-07
0.000158744 -0.000219609 0.000268162
-1.28033e-07 -1.55852e-06 -3.1967e-06
0.0 0.0 -5.1365e-06
0.0 0.0 -5.1365e-06
-6.97819e-07 3.81985e-07 -3.53999e-06
-5.17562e-06 -3.43839e-06 -6.23949e-07
