# vtk DataFile Version 3.0
LIGGGHTS particles timestep 200000
ASCII
DATASET POLYDATA
POINTS 190 float
0.0203327 0.0211049 0.0170043
0.0187556 0.014422 0.014048
0.023702 0.0216805 0.0160943
0.0160168 0.0154234 0.0140864
0.0214028 0.0147111 0.0126168
0.0150434 0.0152697 0.0138643
0.0206123 0.0139867 0.0133715
0.0248005 0.0212162 0.0162937
0.0213573 0.023963 0.0133963
0.0182542 0.0235047 0.0138784
0.012441 0.022106 0.0256974
0.0186521 0.0243737 0.0135993
0.0165435 0.0238714 0.0147589
0.0160995 0.0229075 0.0163646
0.0216636 0.0161238 0.0149628
0.0152053 0.0148311 0.0149559
0.0222003 0.0237071 0.0139559
0.0204133 0.0236981 0.0144752
0.0173852 0.0234926 0.0143731
0.0203359 0.0149347 0.0132149
0.0183355 0.02264 0.0143654
0.0171577 0.0144035 0.0145119
0.017217 0.0228556 0.0151263
0.0190647 0.0198218 0.0158882
0.0201222 0.0154213 0.014076
0.0171028 0.021359 0.0166235
0.0206734 0.0146268 0.0119382
0.0210669 0.0156258 0.0143314
0.0153512 0.0211684 0.0163118
0.0199146 0.0235536 0.0153676
0.0179506 0.0223345 0.0164118
0.0201255 0.0229275 0.0136839
0.0218281 0.0151272 0.0135842
0.0157504 0.0235033 0.014286
0.0193875 0.0222902 0.0146513
0.0198071 0.0242888 0.0137575
0.0198282 0.0152201 0.0150107
0.0192874 0.0186825 0.0159389
0.0222415 0.0207345 0.0164567
0.022179 0.0230084 0.0149786
0.0153163 0.0221542 0.0164753
0.020476 0.0161993 0.0149063
0.0145512 0.0230214 0.0149766
0.0161756 0.0144016 0.0149452
0.0288921 0.0246215 0.0123769
0.0202168 0.0224601 0.0165915
0.0217806 0.019789 0.0167109
0.0208091 0.0149604 0.0150666
0.0206568 0.0143109 0.0143192
0.0215404 0.0214546 0.0163843
0.0149446 0.0202846 0.0165941
0.0193026 0.0240856 0.0128922
0.0229113 0.0224469 0.0155252
0.0199877 0.0225656 0.0155096
0.0212443 0.0213844 0.017368
0.0234422 0.0197853 0.0169242
0.0153528 0.023568 0.0152002
0.0187623 0.0232072 0.0130723
0.0202901 0.0184363 0.0159186
0.0182733 0.0239762 0.0127316
0.0159981 0.0149222 0.013201
0.0229701 0.0234166 0.0145235
0.0218184 0.0205638 0.0173519
0.0197353 0.0142575 0.0139333
0.0218341 0.0151186 0.0147233
0.023455 0.0207991 0.0164978
0.0229404 0.0188884 0.0168456
0.0224025 0.0229993 0.0162977
0.0163875 0.0206412 0.0164982
0.0242964 0.0223724 0.0156841
0.0178528 0.0194577 0.0169845
0.0141756 0.0158898 0.0147024
0.0173407 0.0236088 0.0157849
0.0182163 0.0238604 0.0148116
0.0180064 0.0209821 0.0164184
0.0165647 0.0238224 0.013715
0.0191211 0.0222037 0.0158508
0.0191337 0.0226237 0.016758
0.0224122 0.0221642 0.0168592
0.0166634 0.0235504 0.0171131
0.0208406 0.0203338 0.0157598
0.020369 0.022206 0.0146492
0.0188912 0.0148577 0.0149376
0.0205901 0.0156648 0.0157429
0.0173058 0.0202645 0.0166213
0.0210532 0.0192525 0.0159412
0.0149368 0.0164503 0.0153173
0.0208274 0.022953 0.0151318
0.0197149 0.0167637 0.0153575
0.0250018 0.0203967 0.0157468
0.0182213 0.0229731 0.0156719
0.0215732 0.023239 0.0157408
0.0178139 0.0234825 0.0119969
0.0189136 0.0238114 0.0157219
0.0171697 0.0141633 0.0134057
0.0185517 0.0219595 0.0150663
0.0173784 0.0240597 0.0131844
0.0219713 0.0221979 0.0157592
0.0205361 0.0213659 0.0153015
0.0192183 0.0191618 0.0168521
0.0162802 0.0231624 0.0154118
0.0174747 0.0233059 0.0110481
0.0234817 0.0232519 0.0153666
0.0191299 0.0234838 0.0118215
0.017998 0.0137968 0.0138611
0.0191566 0.0239878 0.0144582
0.0232153 0.0148689 0.0146671
0.0224204 0.0145504 0.0141464
0.0163227 0.0142724 0.0139549
0.0198728 0.023292 0.0127918
0.0214959 0.0142058 0.0137852
0.0195016 0.0200782 0.0171451
0.0194744 0.0139763 0.0130097
0.02077 0.0199374 0.0174247
0.0209429 0.0221674 0.0157394
0.0140399 0.0222602 0.0145909
0.0200647 0.0194236 0.0159261
0.0217249 0.0166396 0.0161217
0.0189189 0.0212011 0.0160474
0.0214016 0.0224139 0.0166377
0.0246458 0.0213984 0.0152817
0.0184221 0.0185595 0.0168394
0.0170138 0.0221217 0.015781
0.0198466 0.0204395 0.0157267
0.0237009 0.0154189 0.0153473
0.0146332 0.0156095 0.018389
0.017808 0.0236905 0.0170248
0.019528 0.021435 0.0152806
0.0233644 0.0231512 0.01008
0.020762 0.0232669 0.0163273
0.0130036 0.0200867 0.0158473
0.0182836 0.023353 0.0111317
0.0191677 0.0229095 0.0139141
0.0204401 0.0240786 0.013008
0.0162583 0.0215577 0.01612
0.0213747 0.023426 0.0144428
0.0189528 0.0231424 0.0149688
0.0158161 0.0223025 0.0156208
0.0184747 0.0139989 0.0130059
0.0226076 0.0153119 0.0153275
0.0227095 0.0215617 0.0161192
0.0241984 0.0220964 0.0147286
0.0148165 0.0223001 0.0156158
0.0154334 0.0179813 0.0202147
0.0156807 0.0186955 0.0218865
0.0180295 0.0187387 0.0254765
0.0148448 0.0180022 0.0160956
0.0151739 0.0201441 0.0177656
0.0189671 0.0237397 0.0167205
0.0156334 0.019327 0.0285634
0.0215999 0.0152672 0.0156844
0.0204488 0.0161305 0.0283762
0.0185192 0.0192145 0.0176937
0.0202749 0.0156005 0.0166895
0.0209741 0.0170833 0.0257963
0.0177812 0.0228084 0.0225582
0.0175972 0.0231613 0.0197827
0.0195545 0.0207922 0.0209305
0.0204413 0.0197501 0.0231418
0.0224662 0.0198197 0.0176541
0.019124 0.0195029 0.0269394
0.0234014 0.020003 0.0196315
0.0210308 0.0182747 0.0169351
0.0176669 0.0206937 0.0244543
0.0229259 0.0208201 0.0269811
0.0188008 0.0155253 0.015683
0.0170399 0.0157493 0.0272634
0.0206655 0.0185728 0.0197515
0.0220125 0.0176956 0.0218975
0.0196281 0.0147648 0.0159098
0.0194511 0.0187946 0.0177946
0.022004 0.0203373 0.0268568
0.0204341 0.018096 0.0261504
0.0203693 0.0147539 0.0206563
0.0169775 0.018539 0.0185405
0.0166492 0.0208378 0.0230883
0.0181284 0.0154797 0.0177353
0.0192541 0.0221469 0.0200825
0.0196058 0.0177215 0.0164143
0.0154542 0.0163496 0.0209249
0.0197633 0.0161608 0.0178873
0.0206325 0.0219985 0.0208955
0.017319 0.0170935 0.0198537
0.0207036 0.0165409 0.0162402
0.0162944 0.0167122 0.0167363
0.0212376 0.0175192 0.0178297
0.0218173 0.0155851 0.0166671
0.0154267 0.0216624 0.0240849
0.0226886 0.0165359 0.0285639
0.021032 0.0224914 0.0222284

VERTICES 190 380
1 0
1 1
1 2
1 3
1 4
1 5
1 6
1 7
1 8
1 9
1 10
1 11
1 12
1 13
1 14
1 15
1 16
1 17
1 18
1 19
1 20
1 21
1 22
1 23
1 24
1 25
1 26
1 27
1 28
1 29
1 30
1 31
1 32
1 33
1 34
1 35
1 36
1 37
1 38
1 39
1 40
1 41
1 42
1 43
1 44
1 45
1 46
1 47
1 48
1 49
1 50
1 51
1 52
1 53
1 54
1 55
1 56
1 57
1 58
1 59
1 60
1 61
1 62
1 63
1 64
1 65
1 66
1 67
1 68
1 69
1 70
1 71
1 72
1 73
1 74
1 75
1 76
1 77
1 78
1 79
1 80
1 81
1 82
1 83
1 84
1 85
1 86
1 87
1 88
1 89
1 90
1 91
1 92
1 93
1 94
1 95
1 96
1 97
1 98
1 99
1 100
1 101
1 102
1 103
1 104
1 105
1 106
1 107
1 108
1 109
1 110
1 111
1 112
1 113
1 114
1 115
1 116
1 117
1 118
1 119
1 120
1 121
1 122
1 123
1 124
1 125
1 126
1 127
1 128
1 129
1 130
1 131
1 132
1 133
1 134
1 135
1 136
1 137
1 138
1 139
1 140
1 141
1 142
1 143
1 144
1 145
1 146
1 147
1 148
1 149
1 150
1 151
1 152
1 153
1 154
1 155
1 156
1 157
1 158
1 159
1 160
1 161
1 162
1 163
1 164
1 165
1 166
1 167
1 168
1 169
1 170
1 171
1 172
1 173
1 174
1 175
1 176
1 177
1 178
1 179
1 180
1 181
1 182
1 183
1 184
1 185
1 186
1 187
1 188
1 189

POINT_DATA 190
SCALARS id int 1
LOOKUP_TABLE default
1
2
3
4
5
6
7
8
9
10
11
12
13
14
15
16
17
18
19
20
21
22
23
24
25
26
27
28
29
30
31
32
33
34
35
36
37
38
39
40
41
42
43
44
45
46
47
48
49
50
51
52
53
54
55
56
57
58
59
60
61
62
63
64
65
66
67
68
69
70
71
72
73
74
75
76
77
78
79
80
81
82
83
84
85
86
87
88
89
90
91
92
93
94
95
96
97
98
99
100
101
102
103
104
105
106
107
108
109
110
111
112
113
114
115
116
117
118
119
120
121
122
123
124
125
126
127
128
129
130
131
132
133
134
135
136
137
138
139
140
141
142
143
144
145
146
147
148
149
150
151
152
153
154
155
156
157
158
159
160
161
162
163
164
165
166
167
168
169
170
171
172
173
174
175
176
177
178
179
180
181
182
183
184
185
186
187
188
189
190

SCALARS type int 1
LOOKUP_TABLE default
1
1
1
1
1
1
1
1
1
1
1
1
1
1
1
1
1
1
1
1
1
1
1
1
1
1
1
1
1
1
1
1
1
1
1
1
1
1
1
1
1
1
1
1
1
1
1
1
1
1
1
1
1
1
1
1
1
1
1
1
1
1
1
1
1
1
1
1
1
1
1
1
1
1
1
1
1
1
1
1
1
1
1
1
1
1
1
1
1
1
1
1
1
1
1
1
1
1
1
1
1
1
1
1
1
1
1
1
1
1
1
1
1
1
1
1
1
1
1
1
1
1
1
1
1
1
1
1
1
1
1
1
1
1
1
1
1
1
1
1
1
1
1
1
1
1
1
1
1
1
1
1
1
1
1
1
1
1
1
1
1
1
1
1
1
1
1
1
1
1
1
1
1
1
1
1
1
1
1
1
1
1
1
1
1
1
1
1
1
1

SCALARS radius float 1
LOOKUP_TABLE default
0.0005
0.0005
0.0005
0.0005
0.0005
0.0005
0.0005
0.0005
0.0005
0.0005
0.0005
0.0005
0.0005
0.0005
0.0005
0.0005
0.0005
0.0005
0.0005
0.0005
0.0005
0.0005
0.0005
0.0005
0.0005
0.0005
0.0005
0.0005
0.0005
0.0005
0.0005
0.0005
0.0005
0.0005
0.0005
0.0005
0.0005
0.0005
0.0005
0.0005
0.0005
0.0005
0.0005
0.0005
0.0005
0.0005
0.0005
0.0005
0.0005
0.0005
0.0005
0.0005
0.0005
0.0005
0.0005
0.0005
0.0005
0.0005
0.0005
0.0005
0.0005
0.0005
0.0005
0.0005
0.0005
0.0005
0.0005
0.0005
0.0005
0.0005
0.0005
0.0005
0.0005
0.0005
0.0005
0.0005
0.0005
0.0005
0.0005
0.0005
0.0005
0.0005
0.0005
0.0005
0.0005
0.0005
0.0005
0.0005
0.0005
0.0005
0.0005
0.0005
0.0005
0.0005
0.0005
0.0005
0.0005
0.0005
0.0005
0.0005
0.0005
0.0005
0.0005
0.0005
0.0005
0.0005
0.0005
0.0005
0.0005
0.0005
0.0005
0.0005
0.0005
0.0005
0.0005
0.0005
0.0005
0.0005
0.0005
0.0005
0.0005
0.0005
0.0005
0.0005
0.0005
0.0005
0.0005
0.0005
0.0005
0.0005
0.0005
0.0005
0.0005
0.0005
0.0005
0.0005
0.0005
0.0005
0.0005
0.0005
0.0005
0.0005
0.0005
0.0005
0.0005
0.0005
0.0005
0.0005
0.0005
0.0005
0.0005
0.0005
0.0005
0.0005
0.0005
0.0005
0.0005
0.0005
0.0005
0.0005
0.0005
0.0005
0.0005
0.0005
0.0005
0.0005
0.0005
0.0005
0.0005
0.0005
0.0005
0.0005
0.0005
0.0005
0.0005
0.0005
0.0005
0.0005
0.0005
0.0005
0.0005
0.0005
0.0005
0.0005
0.0005
0.0005
0.0005
0.0005
0.0005
0.0005

SCALARS mass float 1
LOOKUP_TABLE default
5.23599e-07
5.23599e-07
5.23599e-07
5.23599e-07
5.23599e-07
5.23599e-07
5.23599e-07
5.23599e-07
5.23599e-07
5.23599e-07
5.23599e-07
5.23599e-07
5.23599e-07
5.23599e-07
5.23599e-07
5.23599e-07
5.23599e-07
5.23599e-07
5.23599e-07
5.23599e-07
5.23599e-07
5.23599e-07
5.23599e-07
5.23599e-07
5.23599e-07
5.23599e-07
5.23599e-07
5.23599e-07
5.23599e-07
5.23599e-07
5.23599e-07
5.23599e-07
5.23599e-07
5.23599e-07
5.23599e-07
5.23599e-07
5.23599e-07
5.23599e-07
5.23599e-07
5.23599e-07
5.23599e-07
5.23599e-07
5.23599e-07
5.23599e-07
5.23599e-07
5.23599e-07
5.23599e-07
5.23599e-07
5.23599e-07
5.23599e-07
5.23599e-07
5.23599e-07
5.23599e-07
5.23599e-07
5.23599e-07
5.23599e-07
5.23599e-07
5.23599e-07
5.23599e-07
5.23599e-07
5.23599e-07
5.23599e-07
5.23599e-07
5.23599e-07
5.23599e-07
5.23599e-07
5.23599e-07
5.23599e-07
5.23599e-07
5.23599e-07
5.23599e-07
5.23599e-07
5.23599e-07
5.23599e-07
5.23599e-07
5.23599e-07
5.23599e-07
5.23599e-07
5.23599e-07
5.23599e-07
5.23599e-07
5.23599e-07
5.23599e-07
5.23599e-07
5.23599e-07
5.23599e-07
5.23599e-07
5.23599e-07
5.23599e-07
5.23599e-07
5.23599e-07
5.23599e-07
5.23599e-07
5.23599e-07
5.23599e-07
5.23599e-07
5.23599e-07
5.23599e-07
5.23599e-07
5.23599e-07
5.23599e-07
5.23599e-07
5.23599e-07
5.23599e-07
5.23599e-07
5.23599e-07
5.23599e-07
5.23599e-07
5.23599e-07
5.23599e-07
5.23599e-07
5.23599e-07
5.23599e-07
5.23599e-07
5.23599e-07
5.23599e-07
5.23599e-07
5.23599e-07
5.23599e-07
5.23599e-07
5.23599e-07
5.23599e-07
5.23599e-07
5.23599e-07
5.23599e-07
5.23599e-07
5.23599e-07
5.23599e-07
5.23599e-07
5.23599e-07
5.23599e-07
5.23599e-07
5.23599e-07
5.23599e-07
5.23599e-07
5.23599e-07
5.23599e-07
5.23599e-07
5.23599e-07
5.23599e-07
5.23599e-07
5.23599e-07
5.23599e-07
5.23599e-07
5.23599e-07
5.23599e-07
5.23599e-07
5.23599e-07
5.23599e-07
5.23599e-07
5.23599e-07
5.23599e-07
5.23599e-07
5.23599e-07
5.23599e-07
5.23599e-07
5.23599e-07
5.23599e-07
5.23599e-07
5.23599e-07
5.23599e-07
5.23599e-07
5.23599e-07
5.23599e-07
5.23599e-07
5.23599e-07
5.23599e-07
5.23599e-07
5.23599e-07
5.23599e-07
5.23599e-07
5.23599e-07
5.23599e-07
5.23599e-07
5.23599e-07
5.23599e-07
5.23599e-07
5.23599e-07
5.23599e-07
5.23599e-07
5.23599e-07
5.23599e-07
5.23599e-07
5.23599e-07
5.23599e-07
5.23599e-07
5.23599e-07
5.23599e-07
5.23599e-07
5.23599e-07

VECTORS velocity float
-0.0137345 -0.0491763 0.00609167
0.000137769 -0.00227576 0.00440401
0.00205437 0.00680916 -0.00222932
0.0126767 0.00219118 -0.0106369
0.00764496 0.013855 -0.0201057
0.0110398 0.0205821 -0.0538537
0.000150294 0.00127617 -0.00320237
0.0572749 -0.00927047 -0.0447068
0.000769909 -0.00190488 -0.00131468
0.00603074 0.000277626 0.0121047
-0.0106078 0.0355974 0.0513349
0.00303233 0.00178004 0.00185676
0.00101423 -0.00117802 0.000316019
-0.0398467 0.0232525 -8.74143e-05
0.027847 0.0207888 -0.00584631
0.0631681 0.0894533 0.0332875
0.000709784 0.00141756 7.99481e-05
0.00301958 0.0124006 -0.0477745
0.00373838 0.00608986 -0.0078011
0.00573737 0.00787649 0.0256376
0.0127588 -0.00130945 0.0133561
-0.00572549 0.0144276 0.0207993
-0.00622833 0.00638483 -0.00864313
0.00359125 0.0256956 -0.0110196
0.00488085 0.0189864 0.0301372
-0.00350342 0.0102505 -0.00729722
-0.00569829 0.000435958 -0.00378311
0.011404 0.0132644 0.0166591
-0.00460458 0.0195661 -0.00453274
0.0102065 0.00685894 -0.0183523
-0.0137377 0.0593937 -0.010575
0.00497138 0.0139798 -0.0179119
0.00045201 0.000415308 -0.000618774
3.22396e-05 -0.00189786 -0.00132916
0.0134106 0.00499123 0.00992301
-0.0130138 0.0113759 -0.00847932
0.0069299 -0.00719836 0.0270132
0.00422966 0.0125325 0.0027887
0.0188434 0.0220683 -0.0036961
-0.0132583 0.014145 -0.0122095
-0.00153741 0.0191158 0.000227032
0.00241127 0.00976349 0.00567149
0.000969152 0.00759957 -0.0018941
-0.0240972 0.0213372 -0.036442
-0.00468827 2.02596 0.128156
0.013273 -0.0182973 -0.0259673
0.013611 0.0264897 0.0146264
0.00329866 0.00619799 -0.00972676
-0.00145173 0.00264426 -0.0083693
-0.01013 -0.00521997 -0.022839
-0.0349976 0.0198728 -0.0356976
0.00556132 0.000720961 -0.000820689
-0.0127186 0.00965605 0.00108392
4.29279e-05 0.0125089 0.0165688
-0.0123281 -0.0101323 -0.0339184
0.0188109 -0.0382533 -0.027594
0.00178427 -0.00473381 0.000326325
-0.00711265 0.00174093 -0.0054566
-0.0115723 0.00366982 -0.015271
-0.00184089 0.00840836 -0.00368592
0.00367751 -0.00802198 -0.00852957
-0.00134742 0.00151334 -0.000541675
0.00154067 -0.0144395 -0.0204848
-0.00181147 0.000558816 -0.00898194
0.0123467 0.00414173 0.00298779
0.0215749 0.022298 0.0132864
0.0818987 -0.080809 -0.113473
0.00553426 -0.0191225 -0.0288201
-0.00660363 0.00298325 0.00118361
0.000575705 0.00345036 0.00542113
-0.020075 0.0532397 -0.0405238
-0.0640667 -0.0239587 -0.0390532
-0.0171397 0.0036725 -0.00766383
0.00610537 0.00620542 0.00722475
0.00876276 0.035828 -0.0135791
0.00396094 0.00344936 0.000739806
-0.00250399 0.0107074 0.0183826
0.012421 0.0243898 0.0109144
0.00329539 0.00611862 0.0107773
0.0413144 -0.0477963 -0.0695648
0.000335898 0.0361409 -0.0135673
0.012142 0.00188709 0.00492458
0.0040689 0.00168792 0.00153939
0.0117878 -0.00055229 -0.000163226
0.00644182 0.0314518 -0.00829042
0.00549832 0.0234308 0.0170234
-0.0699219 -0.017755 -0.121628
0.00211308 0.00832466 0.00881221
0.00321039 0.018827 0.0217994
0.00758558 0.0362197 -0.00943612
-0.00330771 -0.0183808 -0.0256048
-0.00624977 0.0076031 -0.0044011
-0.0155296 0.0221105 -0.0615867
-0.00395922 0.00282654 0.0156901
0.00198953 0.00537339 -0.00458118
0.0125814 0.00813099 0.00938009
0.00294463 -0.000323175 -0.0032908
-0.0141037 0.012118 -0.0097915
0.00111203 0.0248003 -0.0161282
-0.00696689 -0.0219725 -0.0332524
-0.00257054 0.00159362 0.00433044
-0.0148522 -0.000899964 3.05613e-05
-0.00284364 0.00546579 0.00128299
-1.41654e-05 -0.000949197 0.000580326
-0.00130681 -0.00059742 0.00304209
-0.0233573 0.0282389 -0.00341192
0.00105389 -0.0030113 0.00798503
0.00299568 0.00206619 -0.00137148
-0.00822519 -0.0096116 -0.00654025
0.00195165 0.00506582 -0.0263743
-0.000210846 0.000348162 -0.00129587
-0.0139622 0.000260475 0.0106946
0.00302326 0.00442661 -0.00735577
-0.0220064 -0.0666855 0.0158393
0.0158915 0.00711625 0.00666626
-0.000686782 0.0145029 -0.0120503
0.00805059 0.0191663 -0.00130086
-0.00390204 -0.0117011 0.00942542
0.00613798 0.014689 -0.0491754
0.0259294 -0.0388865 -0.0361568
0.00443675 0.00435543 -0.00191393
-0.0341472 -0.0401471 -0.10075
-0.00815791 0.0101788 -0.00796056
0.00540787 0.0373917 -0.00801274
0.0346344 0.00632388 -0.0194515
-0.00583558 0.0932968 0.111746
-0.0375414 0.133347 0.0109261
0.00627765 0.0528062 -0.0395067
0.000340084 -0.0155932 -0.0495792
-0.000146779 0.000218165 0.00904021
-3.85774e-05 0.0525182 -0.0194112
-0.00105258 -0.0384772 0.0342979
0.00897716 0.00131829 0.00375088
-0.00259398 -5.76121e-05 -0.00260822
-0.00539013 0.00190038 0.00324205
0.00156904 -0.00193746 -0.0017161
0.0067999 -0.0119571 -0.0165654
-0.00668137 0.00303903 0.00511795
0.00155976 -0.00233893 0.0043159
0.00533065 0.00913538 0.00963862
0.000883802 0.0201063 -0.0133212
0.00183448 0.0033294 -0.000416403
-0.00755467 -0.00642926 0.0017624
0.0 -0.0 -0.1
0.0 -0.0 -0.1
0.0 -0.0 -0.1
-0.000660787 0.00834704 0.165017
0.0 0.0 -0.1519
0.00508291 0.0284038 0.0246362
0.0 -0.0 -0.1
0.0132927 0.00232075 0.0036229
0.0 -0.0 -0.1
0.0244825 0.0577497 -0.0327779
0.0175801 0.023468 0.00864398
0.0 -0.0 -0.1
0.0 -0.0 -0.1
0.0 -0.0 -0.1
0.0 -0.0 -0.1
0.0 -0.0 -0.1
0.0 0.0 -0.158934
0.0 -0.0 -0.1
0.0 -0.0 -0.1
0.0178379 -0.0606132 -0.0284516
0.0 -0.0 -0.1
0.0 -0.0 -0.1
-0.0054962 0.0200308 -0.017005
0.0 -0.0 -0.1
0.0 -0.0 -0.1
0.0 -0.0 -0.1
-0.0299095 -0.042494 -0.0215877
0.0191591 0.0646425 0.0760889
0.0 -0.0 -0.1
0.0 -0.0 -0.1
0.0 -0.0 -0.1
0.0 -0.0 -0.1
0.0 -0.0 -0.1
0.0 0.0 -0.153842
0.116584 0.051446 0.350181
0.070974 -0.00410658 -0.0709377
0.0 -0.0 -0.1
0.0 0.0 -0.143826
0.0 -0.0 -0.1
0.0 -0.0 -0.1
-0.0719909 0.0366433 -0.0645226
0.00291236 -0.049086 0.114352
0.0 0.0 -0.147701
0.0435812 -0.0179005 -0.161424
0.0 -0.0 -0.1
0.0 -0.0 -0.1
0.0 -0.0 -0.1

VECTORS force float
0.0 0.0 -5.1365e-06
5.92164e-07 8.77871e-09 1.05481e-06
1.91596e-06 8.71235e-07 -6.34625e-06
0.0 0.0 -5.1365e-06
-9.77302e-07 9.4292e-07 3.19598e-06
0.0 0.0 -5.1365e-06
-1.44253e-07 -1.20254e-06 -3.55632e-06
0.0 0.0 -5.1365e-06
0.0 0.0 -5.1365e-06
-3.6652e-05 -2.91432e-05 -2.07297e-06
0.0 0.0 -5.1365e-06
1.95108e-05 -3.75363e-05 -2.76392e-05
1.0208e-05 2.23199e-06 -2.40375e-06
8.04726e-06 1.49915e-06 8.56816e-06
0.0 0.0 -5.1365e-06
0.0 0.0 -5.1365e-06
9.21696e-06 5.69452e-06 -9.19177e-06
-1.40366e-05 1.79094e-06 4.37191e-06
9.63354e-07 8.69515e-08 1.98481e-06
9.62536e-07 -2.96572e-08 -1.24024e-06
-3.76118e-05 -6.53755e-05 -9.39666e-05
0.0 0.0 -5.1365e-06
5.93562e-07 9.60574e-06 -1.86103e-06
0.0 0.0 -5.1365e-06
-2.53308e-06 3.0412e-06 -5.54308e-06
0.0 0.0 -5.1365e-06
1.21666e-06 -2.32686e-06 3.41092e-06
-1.0656e-06 5.06729e-06 -7.48149e-06
4.5369e-08 2.88646e-06 -2.23463e-06
0.0 0.0 -5.1365e-06
0.0 0.0 -5.1365e-06
-2.351e-05 -2.68531e-06 -4.22941e-05
7.95458e-07 -2.86237e-06 4.01681e-06
-3.85701e-06 -6.1785e-06 7.97225e-06
-2.47847e-05 2.07657e-05 -1.86049e-06
0.0 0.0 -5.1365e-06
0.0 0.0 -5.1365e-06
0.000135025 0.000108456 1.1697e-05
0.0 0.0 -5.1365e-06
-3.35063e-06 -2.87333e-06 6.3788e-06
7.49075e-08 2.882e-06 -3.95108e-06
1.09323e-06 6.50882e-06 4.45778e-05
1.48723e-05 0.000206416 4.20313e-05
0.0 0.0 -5.1365e-06
0.0 0.0 -5.1365e-06
0.0 0.0 -5.1365e-06
0.0 0.0 -5.1365e-06
0.0 0.0 -5.1365e-06
0.0 0.0 -5.1365e-06
0.0 0.0 -5.1365e-06
0.0 0.0 -5.1365e-06
7.73594e-06 -7.89041e-06 1.12743e-05
-1.92825e-05 -2.2822e-05 1.15856e-05
-2.49614e-05 -1.68571e-05 1.05972e-09
0.0 0.0 -5.1365e-06
0.0 0.0 -5.1365e-06
5.92666e-05 1.06582e-05 6.38856e-05
0.000219024 0.000189276 -0.000158379
0.0 0.0 -5.1365e-06
-3.01668e-05 0.000196704 -0.000178793
0.0 0.0 -5.1365e-06
1.94353e-05 9.22531e-06 -5.78115e-06
0.0 0.0 -5.1365e-06
6.72365e-07 -1.70129e-07 -4.79632e-06
-1.97207e-06 5.73032e-07 6.48656e-06
0.0 0.0 -5.1365e-06
0.0 0.0 -5.1365e-06
0.0 0.0 -5.1365e-06
2.18672e-06 2.51611e-06 4.12673e-06
3.95926e-06 7.55109e-06 1.42946e-05
0.0 0.0 -5.1365e-06
0.0 0.0 -5.1365e-06
0.0 0.0 -5.1365e-06
9.4695e-06 -1.65957e-05 2.64256e-06
-9.23415e-06 1.4233e-05 1.04016e-05
6.60211e-06 4.94828e-06 3.51166e-06
-1.82989e-05 -3.63046e-06 2.02736e-05
-2.38983e-06 5.82275e-07 -6.2399e-07
-5.92525e-06 6.0548e-06 5.29057e-06
0.0 0.0 -5.1365e-06
0.0 0.0 -5.1365e-06
-1.05118e-05 -1.75732e-05 -2.37035e-05
8.56112e-07 3.89361e-07 6.58096e-07
-4.11742e-07 -2.61223e-05 2.87212e-05
-2.24652e-06 4.73994e-06 1.83297e-06
0.0 0.0 -5.1365e-06
0.0 0.0 -5.1365e-06
-4.99833e-06 4.75437e-06 1.09953e-05
0.0 0.0 -5.1365e-06
0.0 0.0 -5.1365e-06
0.0 0.0 -5.1365e-06
0.0 0.0 -5.1365e-06
2.45798e-05 0.000207688 0.000155356
0.0 0.0 -5.1365e-06
0.0 0.0 -5.1365e-06
9.90316e-06 -2.58968e-05 9.90635e-05
-9.15792e-07 3.54651e-06 -4.13641e-06
0.0 0.0 -5.1365e-06
-2.26223e-07 5.04447e-06 -3.03836e-07
7.27279e-05 5.11628e-05 7.9547e-05
2.38188e-05 6.53045e-07 5.70054e-06
-0.000317139 -0.000473036 0.00176987
-1.48761e-05 -1.26575e-05 -1.46323e-05
4.67032e-09 2.39575e-06 1.77461e-05
1.25572e-06 -1.27888e-06 7.65148e-08
0.0 0.0 -5.1365e-06
0.0 0.0 -5.1365e-06
-6.84333e-07 -1.63172e-07 7.37655e-06
0.0 0.0 -5.1365e-06
2.27693e-05 -5.22284e-07 9.94773e-06
8.45182e-07 -3.01583e-06 -1.27973e-06
0.0 0.0 -5.1365e-06
5.8051e-07 1.14769e-06 -2.25192e-06
0.0 0.0 -5.1365e-06
4.96687e-06 4.0969e-06 2.00331e-06
7.64677e-06 -0.000128342 8.27302e-06
-7.74499e-07 3.31704e-06 4.47076e-07
0.0 0.0 -5.1365e-06
0.0 0.0 -5.1365e-06
0.0 0.0 -5.1365e-06
-5.63668e-06 1.92694e-05 2.82498e-05
-7.27279e-05 -5.11628e-05 -8.982e-05
0.0 0.0 -5.1365e-06
0.0 0.0 -5.1365e-06
0.0 0.0 -5.1365e-06
0.0 0.0 -5.1365e-06
0.0 0.0 -5.1365e-06
0.0 0.0 -5.1365e-06
-2.01228e-06 -3.91917e-06 -9.12426e-06
0.0 0.0 -5.1365e-06
0.0 0.0 -5.1365e-06
-0.00151834 -0.0010839 -0.00256409
-0.000110727 -3.10928e-05 -0.000151958
2.17303e-05 -4.62633e-06 -6.55836e-07
-2.79364e-06 1.05209e-06 4.92837e-06
-4.31666e-08 -8.43639e-06 -7.74821e-06
5.40331e-05 0.000114724 9.00477e-05
-7.53386e-06 -3.73504e-06 9.59199e-06
-4.91702e-07 7.2563e-07 2.52374e-06
0.0 0.0 -5.1365e-06
4.00929e-06 -6.92604e-06 -1.43538e-05
2.08422e-06 7.20027e-06 -7.93133e-07
-1.01663e-05 -2.6544e-06 -7.51931e-06
0.0 0.0 0.0
0.0 0.0 0.0
0.0 0.0 0.0
0.0 0.0 -5.1365e-06
0.0 0.0 -5.1365e-06
0.0 0.0 -5.1365e-06
0.0 0.0 0.0
0.0 0.0 -5.1365e-06
0.0 0.0 0.0
0.0 0.0 -5.1365e-06
8.4104e-08 -9.5777e-07 -3.46928e-06
0.0 0.0 0.0
0.0 0.0 0.0
0.0 0.0 0.0
0.0 0.0 0.0
0.0 0.0 0.0
0.0 0.0 -5.1365e-06
0.0 0.0 0.0
0.0 0.0 0.0
0.0 0.0 -5.1365e-06
0.0 0.0 0.0
0.0 0.0 0.0
0.0 0.0 -5.1365e-06
0.0 0.0 0.0
0.0 0.0 0.0
0.0 0.0 0.0
0.0 0.0 -5.1365e-06
0.0 0.0 -5.1365e-06
0.0 0.0 0.0
0.0 0.0 0.0
0.0 0.0 0.0
0.0 0.0 0.0
0.0 0.0 0.0
0.0 0.0 -5.1365e-06
0.0 0.0 -5.1365e-06
0.0 0.0 -5.1365e-06
0.0 0.0 0.0
0.0 0.0 -5.1365e-06
0.0 0.0 0.0
0.0 0.0 0.0
0.0 0.0 -5.1365e-06
0.0 0.0 -5.1365e-06
0.0 0.0 -5.1365e-06
0.0 0.0 -5.1365e-06
0.0 0.0 0.0
0.0 0.0 0.0
0.0 0.0 0.0
