# vtk DataFile Version 3.0
LIGGGHTS particles timestep 2200000
ASCII
DATASET POLYDATA
POINTS 169 float
0.024783 0.0163915 0.016351
0.0271102 0.0151947 0.00959467
0.0213368 0.0176234 0.0175336
0.0288969 0.0221543 0.00847968
0.02066 0.0171271 0.015547
0.0273362 0.0158536 0.00863823
0.026492 0.0148238 0.0120844
0.0267828 0.0148125 0.0108362
0.017588 0.0231684 0.0148147
0.0206148 0.0146515 0.0148084
0.0195097 0.0232483 0.0135334
0.0202538 0.0248369 0.0184575
0.0188564 0.0234403 0.0115021
0.0196012 0.0163891 0.0160912
0.019035 0.0142466 0.013823
0.021128 0.0151401 0.0136837
0.0195502 0.0242849 0.0139539
0.0213216 0.0240153 0.0143906
0.017201 0.0240376 0.0131084
0.0209044 0.0160057 0.0147451
0.0214123 0.016062 0.0166133
0.0229133 0.0220527 0.00863868
0.0170992 0.0146012 0.0142983
0.01674 0.0234649 0.0143716
0.0287436 0.0215309 0.00790216
0.0185244 0.0212687 0.0166371
0.021679 0.0164821 0.0151718
0.0138394 0.0222313 0.0159896
0.0194813 0.0240896 0.0129562
0.0200469 0.0161543 0.017883
0.0221563 0.0237198 0.0139273
0.0228332 0.0185458 0.0173882
0.0218715 0.0152249 0.0161524
0.0224508 0.0154757 0.0153386
0.015822 0.022518 0.0166681
0.0170949 0.0243264 0.0140122
0.0232724 0.0230398 0.00976741
0.0184975 0.0241439 0.013049
0.0187751 0.0222096 0.0146839
0.0406138 0.0191626 0.00568074
0.0204402 0.0240993 0.0127073
0.00783845 0.0198293 0.0370984
0.0230986 0.0161865 0.0161218
0.0199131 0.0147566 0.0161457
0.0221592 0.0151011 0.0135331
0.0212796 0.0239805 0.0132841
0.0260352 0.0203635 0.0252532
0.0246242 0.0217159 0.0155719
0.0230898 0.0147957 0.0145848
0.0162492 0.0172793 0.018397
0.0215346 0.0165302 0.00797936
0.0181754 0.0229285 0.0135778
0.0195532 0.0139788 0.0130056
0.0200339 0.0156688 0.0143859
0.0201482 0.0242507 0.0194986
0.0206999 0.0165667 0.0185499
0.0142923 0.0185293 0.0197836
0.0199621 0.0138268 0.0139054
0.0183332 0.0146418 0.0144844
0.0183619 0.0225187 0.0179989
0.0151731 0.0232825 0.0146577
0.0185878 0.0124007 0.0231231
0.0143569 0.0230191 0.0151753
0.0230168 0.0226975 0.00920063
0.0205664 0.0243568 0.0138332
0.0237935 0.015252 0.0151291
0.0185201 0.0242779 0.0141239
0.0176286 0.0234226 0.0114361
0.0197627 0.012949 0.0197038
0.0155011 0.021681 0.016098
0.0235764 0.0229545 0.0150847
0.0228951 0.0209346 0.00684761
0.0165115 0.0209449 0.0176588
0.0336017 0.0195831 0.00585649
0.0181567 0.0159554 0.0175279
0.017555 0.0231394 0.0173403
0.0221736 0.0234834 0.0151062
0.0231164 0.0216572 0.0160808
0.0285545 0.0206623 0.0075385
0.0303319 0.0222122 0.0143744
0.0171114 0.0147114 0.028242
0.0204199 0.0145723 0.0128895
0.0187087 0.0214929 0.0154254
0.0262835 0.0202198 0.0230093
0.0222334 0.014392 0.0142348
0.021244 0.0155743 0.00895905
0.0208994 0.0139875 0.0135265
0.0229432 0.0234148 0.014463
0.0203982 0.0221933 0.0433675
0.0256583 0.0174132 0.0168453
0.0388021 0.0192522 0.00577558
0.0152906 0.0196934 0.0167021
0.0179139 0.023288 0.0127314
0.0276106 0.0167903 0.00781689
0.023801 0.0233135 0.0122616
0.0197809 0.0153776 0.0153088
0.0255641 0.0205869 0.0165528
0.0135038 0.0178298 0.015772
0.0219188 0.0154227 0.0144544
0.025142 0.0214793 0.016394
0.0253632 0.0184087 0.0159018
0.00955546 0.00219726 0.0439844
0.0185488 0.0139895 0.0129878
0.0160826 0.0230147 0.0149752
0.0237045 0.0225965 0.009086
0.016169 0.0222901 0.0156608
0.0178285 0.02375 0.0138197
0.0209438 0.0210818 0.0168872
0.0186897 0.0242394 0.0176071
0.0199575 0.0201165 0.0159143
0.0195803 0.021005 0.0155185
0.0166746 0.0234446 0.0164059
0.0280291 0.0185832 0.00720142
0.0299422 0.0231874 0.0128272
0.0140569 0.0222836 0.014567
0.0237799 0.0223773 0.0158783
0.0215135 0.01477 0.0127062
0.0118066 0.0186687 0.0275855
0.0198151 0.016379 0.0151078
0.0202024 0.0148046 0.0139002
0.0154581 0.0159008 0.0160565
0.0242826 0.0260896 0.0254737
0.0228892 0.0221104 0.0174569
0.0211285 0.0153135 0.0154576
0.0242243 0.0178848 0.0210567
0.0327957 0.0190095 0.00571076
0.0208073 0.0206025 0.0158257
0.0180198 0.0143942 0.01559
0.0156155 0.0168252 0.015362
0.0187404 0.023137 0.0168242
0.0205059 0.021701 0.0150713
0.0202828 0.022616 0.0147077
0.021395 0.0138298 0.0143675
0.0282202 0.0194958 0.00719503
0.0161989 0.0146445 0.0134436
0.0175605 0.0226926 0.0161682
0.0280981 0.0174806 0.00745102
0.0106317 0.00951077 0.0371881
0.0251311 0.0197137 0.0159246
0.0169937 0.0155873 0.026964
0.0188322 0.0232609 0.0128874
0.0219727 0.0183953 0.0168453
0.0234596 0.023237 0.0105212
0.0210336 0.0120931 0.0377697
0.0170737 0.0150954 0.0151731
0.0206093 0.0146294 0.0119203
0.0202835 0.0234494 0.0140176
0.0250917 0.0208197 0.0155826
0.0182803 0.023631 0.0153684
0.0226294 0.0231499 0.0222269
0.0195385 0.0145566 0.01463
0.0136194 0.0216023 0.0151562
0.023545 0.0193829 0.0167868
0.0212849 0.0231144 0.0148225
0.0242072 0.0220854 0.0147463
0.0200913 0.0179838 0.0159781
0.0204534 0.0238223 0.0148884
0.018018 0.0138091 0.0138154
0.0231597 0.0177362 0.0166602
0.019206 0.023135 0.0152227
0.0190673 0.023791 0.0159707
0.0190287 0.019827 0.0160531
0.0221931 0.0209575 0.0165406
0.0171728 0.0141637 0.0134023
0.0168515 0.023478 0.0154179
0.0196841 0.0222329 0.0154995
0.0201251 0.0276521 0.0332631
0.0182187 0.0237267 0.0121183
0.0180078 0.0238514 0.0166169

VERTICES 169 338
1 0
1 1
1 2
1 3
1 4
1 5
1 6
1 7
1 8
1 9
1 10
1 11
1 12
1 13
1 14
1 15
1 16
1 17
1 18
1 19
1 20
1 21
1 22
1 23
1 24
1 25
1 26
1 27
1 28
1 29
1 30
1 31
1 32
1 33
1 34
1 35
1 36
1 37
1 38
1 39
1 40
1 41
1 42
1 43
1 44
1 45
1 46
1 47
1 48
1 49
1 50
1 51
1 52
1 53
1 54
1 55
1 56
1 57
1 58
1 59
1 60
1 61
1 62
1 63
1 64
1 65
1 66
1 67
1 68
1 69
1 70
1 71
1 72
1 73
1 74
1 75
1 76
1 77
1 78
1 79
1 80
1 81
1 82
1 83
1 84
1 85
1 86
1 87
1 88
1 89
1 90
1 91
1 92
1 93
1 94
1 95
1 96
1 97
1 98
1 99
1 100
1 101
1 102
1 103
1 104
1 105
1 106
1 107
1 108
1 109
1 110
1 111
1 112
1 113
1 114
1 115
1 116
1 117
1 118
1 119
1 120
1 121
1 122
1 123
1 124
1 125
1 126
1 127
1 128
1 129
1 130
1 131
1 132
1 133
1 134
1 135
1 136
1 137
1 138
1 139
1 140
1 141
1 142
1 143
1 144
1 145
1 146
1 147
1 148
1 149
1 150
1 151
1 152
1 153
1 154
1 155
1 156
1 157
1 158
1 159
1 160
1 161
1 162
1 163
1 164
1 165
1 166
1 167
1 168

POINT_DATA 169
SCALARS id int 1
LOOKUP_TABLE default
1
2
4
5
6
7
8
10
11
12
13
14
15
16
17
18
19
20
21
22
23
24
25
26
27
29
30
31
34
35
36
37
38
39
40
41
42
43
44
45
46
48
49
50
51
52
53
54
55
57
58
59
60
61
62
63
64
65
66
68
69
70
71
72
74
75
76
77
78
79
81
82
83
84
85
86
87
88
89
90
91
92
93
95
96
97
98
99
102
103
105
106
107
108
109
110
111
112
113
114
115
116
117
118
119
120
122
123
124
125
126
127
128
129
131
132
133
134
135
136
137
138
139
140
141
142
143
144
146
147
148
149
150
151
152
153
154
155
156
157
158
160
161
162
163
164
166
167
168
169
170
171
173
174
175
176
177
178
179
180
181
182
183
184
185
187
188
189
190

SCALARS type int 1
LOOKUP_TABLE default
1
1
1
1
1
1
1
1
1
1
1
1
1
1
1
1
1
1
1
1
1
1
1
1
1
1
1
1
1
1
1
1
1
1
1
1
1
1
1
1
1
1
1
1
1
1
1
1
1
1
1
1
1
1
1
1
1
1
1
1
1
1
1
1
1
1
1
1
1
1
1
1
1
1
1
1
1
1
1
1
1
1
1
1
1
1
1
1
1
1
1
1
1
1
1
1
1
1
1
1
1
1
1
1
1
1
1
1
1
1
1
1
1
1
1
1
1
1
1
1
1
1
1
1
1
1
1
1
1
1
1
1
1
1
1
1
1
1
1
1
1
1
1
1
1
1
1
1
1
1
1
1
1
1
1
1
1
1
1
1
1
1
1
1
1
1
1
1
1

SCALARS radius float 1
LOOKUP_TABLE default
0.0005
0.0005
0.0005
0.0005
0.0005
0.0005
0.0005
0.0005
0.0005
0.0005
0.0005
0.0005
0.0005
0.0005
0.0005
0.0005
0.0005
0.0005
0.0005
0.0005
0.0005
0.0005
0.0005
0.0005
0.0005
0.0005
0.0005
0.0005
0.0005
0.0005
0.0005
0.0005
0.0005
0.0005
0.0005
0.0005
0.0005
0.0005
0.0005
0.0005
0.0005
0.0005
0.0005
0.0005
0.0005
0.0005
0.0005
0.0005
0.0005
0.0005
0.0005
0.0005
0.0005
0.0005
0.0005
0.0005
0.0005
0.0005
0.0005
0.0005
0.0005
0.0005
0.0005
0.0005
0.0005
0.0005
0.0005
0.0005
0.0005
0.0005
0.0005
0.0005
0.0005
0.0005
0.0005
0.0005
0.0005
0.0005
0.0005
0.0005
0.0005
0.0005
0.0005
0.0005
0.0005
0.0005
0.0005
0.0005
0.0005
0.0005
0.0005
0.0005
0.0005
0.0005
0.0005
0.0005
0.0005
0.0005
0.0005
0.0005
0.0005
0.0005
0.0005
0.0005
0.0005
0.0005
0.0005
0.0005
0.0005
0.0005
0.0005
0.0005
0.0005
0.0005
0.0005
0.0005
0.0005
0.0005
0.0005
0.0005
0.0005
0.0005
0.0005
0.0005
0.0005
0.0005
0.0005
0.0005
0.0005
0.0005
0.0005
0.0005
0.0005
0.0005
0.0005
0.0005
0.0005
0.0005
0.0005
0.0005
0.0005
0.0005
0.0005
0.0005
0.0005
0.0005
0.0005
0.0005
0.0005
0.0005
0.0005
0.0005
0.0005
0.0005
0.0005
0.0005
0.0005
0.0005
0.0005
0.0005
0.0005
0.0005
0.0005
0.0005
0.0005
0.0005
0.0005
0.0005
0.0005

SCALARS mass float 1
LOOKUP_TABLE default
5.23599e-07
5.23599e-07
5.23599e-07
5.23599e-07
5.23599e-07
5.23599e-07
5.23599e-07
5.23599e-07
5.23599e-07
5.23599e-07
5.23599e-07
5.23599e-07
5.23599e-07
5.23599e-07
5.23599e-07
5.23599e-07
5.23599e-07
5.23599e-07
5.23599e-07
5.23599e-07
5.23599e-07
5.23599e-07
5.23599e-07
5.23599e-07
5.23599e-07
5.23599e-07
5.23599e-07
5.23599e-07
5.23599e-07
5.23599e-07
5.23599e-07
5.23599e-07
5.23599e-07
5.23599e-07
5.23599e-07
5.23599e-07
5.23599e-07
5.23599e-07
5.23599e-07
5.23599e-07
5.23599e-07
5.23599e-07
5.23599e-07
5.23599e-07
5.23599e-07
5.23599e-07
5.23599e-07
5.23599e-07
5.23599e-07
5.23599e-07
5.23599e-07
5.23599e-07
5.23599e-07
5.23599e-07
5.23599e-07
5.23599e-07
5.23599e-07
5.23599e-07
5.23599e-07
5.23599e-07
5.23599e-07
5.23599e-07
5.23599e-07
5.23599e-07
5.23599e-07
5.23599e-07
5.23599e-07
5.23599e-07
5.23599e-07
5.23599e-07
5.23599e-07
5.23599e-07
5.23599e-07
5.23599e-07
5.23599e-07
5.23599e-07
5.23599e-07
5.23599e-07
5.23599e-07
5.23599e-07
5.23599e-07
5.23599e-07
5.23599e-07
5.23599e-07
5.23599e-07
5.23599e-07
5.23599e-07
5.23599e-07
5.23599e-07
5.23599e-07
5.23599e-07
5.23599e-07
5.23599e-07
5.23599e-07
5.23599e-07
5.23599e-07
5.23599e-07
5.23599e-07
5.23599e-07
5.23599e-07
5.23599e-07
5.23599e-07
5.23599e-07
5.23599e-07
5.23599e-07
5.23599e-07
5.23599e-07
5.23599e-07
5.23599e-07
5.23599e-07
5.23599e-07
5.23599e-07
5.23599e-07
5.23599e-07
5.23599e-07
5.23599e-07
5.23599e-07
5.23599e-07
5.23599e-07
5.23599e-07
5.23599e-07
5.23599e-07
5.23599e-07
5.23599e-07
5.23599e-07
5.23599e-07
5.23599e-07
5.23599e-07
5.23599e-07
5.23599e-07
5.23599e-07
5.23599e-07
5.23599e-07
5.23599e-07
5.23599e-07
5.23599e-07
5.23599e-07
5.23599e-07
5.23599e-07
5.23599e-07
5.23599e-07
5.23599e-07
5.23599e-07
5.23599e-07
5.23599e-07
5.23599e-07
5.23599e-07
5.23599e-07
5.23599e-07
5.23599e-07
5.23599e-07
5.23599e-07
5.23599e-07
5.23599e-07
5.23599e-07
5.23599e-07
5.23599e-07
5.23599e-07
5.23599e-07
5.23599e-07
5.23599e-07
5.23599e-07
5.23599e-07
5.23599e-07
5.23599e-07
5.23599e-07
5.23599e-07
5.23599e-07
5.23599e-07

VECTORS velocity float
-0.00208302 -0.00408632 0.0520204
0.000442177 -0.0220681 0.0456451
-0.0193865 -0.0463657 -0.072113
0.00119144 -0.0259999 -0.0237903
0.0480062 -0.00813077 0.0243449
0.00133196 -0.0338791 0.037714
0.00271574 -0.000105279 0.0144491
0.000511428 -0.00889809 0.0504912
0.0131698 0.0194536 -0.0268197
4.08259e-05 -0.0324751 -0.0125864
0.0603706 0.0212743 0.0356372
-0.0060328 -0.0151518 -0.0593714
0.0119825 -0.00523048 0.0618793
-0.0144727 0.00110676 0.000886292
0.00694786 0.00299218 -0.00184332
-0.00336458 -0.00728651 -0.0356711
-0.00786095 0.0137523 0.00312022
0.00327378 0.0026969 0.00120996
0.00336599 -0.000623232 0.0140928
0.00720024 0.0186399 0.0195365
-0.0760629 0.0168651 -0.10532
0.000691189 -0.0214133 -0.0248052
-0.0089489 -0.00925498 -0.011949
-0.000434547 0.000648579 -0.00486553
0.00381793 -0.0216331 -0.0173518
-0.053495 0.0710065 0.0267514
-0.00617874 0.044432 -0.00392036
0.107324 -0.0669741 0.0796694
0.0177518 0.0104753 0.0300072
-0.188601 0.162778 -0.0701829
-0.000637666 0.00155077 -0.000420111
-0.00680704 -0.0437981 0.00411585
-0.0113152 -0.0311937 -0.0142639
-0.00404792 -0.00228396 0.00718632
0.0422543 -0.040933 -0.016431
0.00251631 -0.0026984 0.0175233
0.0056748 -0.00565657 -0.0251081
0.0420374 0.0327971 0.00980511
0.00241003 0.0673792 -0.00425271
-7.29188e-15 3.48399e-14 -1.72293e-13
-0.00185153 -0.0082937 0.00113242
-0.0900173 0.00608591 0.215977
-0.0484601 -0.0716124 0.0257811
0.00680368 -0.0165852 -0.0214097
0.0108191 0.00412568 0.0126292
0.00247392 0.00376611 0.0027971
0.179572 -0.0295601 0.136173
0.00427865 0.00640679 -0.00173092
0.0094306 0.00262932 0.0287603
0.0186808 -0.0159432 0.0579491
0.000818549 -0.0418941 0.0288554
0.0298265 -0.0516142 0.0929498
-0.00317626 0.00262084 -0.00551573
0.00983702 0.0145124 0.0218644
0.0123228 0.00946544 -0.00401825
0.0634994 -0.0212029 -0.153069
-0.0160424 0.0106683 0.150535
0.000794281 -0.000979351 -0.00342662
-0.000974737 -0.00737875 0.00230318
-0.0236222 0.127882 0.101542
0.0036483 0.00187866 -0.00397494
-0.169826 0.176509 0.243003
0.00351471 0.00599759 0.00255536
0.00659126 -0.0182682 -0.0219254
0.0148742 -0.00421162 0.0135788
0.0142198 0.0126358 0.0118663
0.00364238 -0.0139222 0.0501281
0.00507154 -0.00749014 -0.0475227
-0.104813 0.0458978 0.0358921
-0.0190931 0.0468057 0.0258178
-0.000690252 -0.00221873 -0.00457111
-0.00146961 -0.0660711 -0.0270859
-0.0846773 -0.00799564 -0.142246
8.32972e-19 -3.81016e-18 6.17694e-18
-0.111525 -0.101288 -0.186425
-0.0922627 -0.0406135 0.0050915
-0.0105534 0.00723571 -0.0140862
0.00909596 0.0295237 -0.0120898
0.0013894 -0.0436139 -0.0171769
0.00299805 0.028847 -0.034749
-0.0480285 -0.0843654 0.234872
0.00737756 0.00331533 0.00134206
-0.0392225 0.0273948 -0.00585855
0.0885762 -0.12235 0.0768285
0.0122189 0.00394161 0.00357577
0.0010804 -0.0260138 0.0397571
0.00501409 0.0051393 0.00828825
-9.81898e-05 -0.000307228 -0.00200713
-0.0696406 0.00417895 0.549268
-0.0258416 0.00856065 -0.0336694
1.06117e-14 -4.97621e-14 2.45829e-13
-0.040068 0.0449019 0.0334579
0.0107623 -0.0325347 0.0123016
0.559267 1.69691 0.553812
-0.00370321 0.00933278 -0.0564805
-0.00786933 0.00695561 0.0212939
0.0107756 -0.00455854 -0.0352437
0.011039 0.023604 0.00611305
0.042912 0.0170862 -0.0354501
0.00653156 -0.00183727 0.000547714
0.000243908 0.0482309 0.0254788
0.000996226 -0.0530896 -0.215343
-0.00146056 0.000405297 0.001725
-0.00184823 0.00198552 -0.0028305
0.00666872 0.00490101 -0.00775525
0.0123765 0.0151824 0.00724638
-0.0174821 -0.0455888 0.0762829
0.0240489 0.0774724 0.0411424
0.0351049 -0.254942 0.129196
0.00551705 0.0392357 -0.0226444
0.0145125 0.0729252 -0.0243375
-0.0335668 0.0469098 -0.0421301
0.000240524 -0.0457155 0.00506687
0.00177039 0.0156322 -0.0430589
0.00924826 0.0114939 -0.00878258
0.02866 0.00896261 0.00179992
0.00158011 -0.0226196 0.0286875
0.0809082 -0.0833862 -0.467917
0.0112523 0.029284 0.00577851
0.0137183 0.00986349 0.0246822
-0.191721 0.0868715 -0.19741
0.0796123 0.0256503 0.17267
-0.0705846 -0.0727561 -0.0165956
0.00732003 0.00738009 0.019685
-0.167184 0.0562928 0.0311464
-1.78046e-18 3.03337e-18 4.48421e-18
0.00133156 0.0474019 -0.0256739
0.105033 0.0407852 -0.0895578
-0.011971 0.00169842 0.0136757
0.0433771 0.0358218 0.0124663
0.00724631 0.0300823 -0.0123406
0.0204769 0.0651735 -0.00142334
0.00234598 7.08794e-05 0.0039875
-0.000522706 -0.0465824 -0.00690245
0.00506005 0.0350966 -0.0448565
0.0018999 0.0372028 -0.144917
0.0170945 5.81712 6.45369
0.0278014 -0.00382345 -0.0784781
-0.00011933 0.0328577 0.0233143
0.0337049 -0.0698816 0.259226
0.0653166 -0.00675906 0.022403
-0.00247125 0.0343828 0.00891969
0.00252884 -0.0105026 -0.0436158
-0.177818 -0.343408 0.863407
-0.0264793 0.00760725 -0.0130526
0.0139949 0.000972822 -0.00241662
0.0522637 -0.0259138 0.0177009
0.00424972 0.0177937 0.0103633
0.0289132 -0.000601242 -0.0255451
0.087654 0.00833117 0.0571743
0.0227314 0.0179756 -0.0124843
0.00631808 0.0139196 -0.00547796
-0.00152933 0.0505057 -0.015784
-0.00994231 0.0040885 -0.00655263
0.00190274 0.0031311 -0.000246174
0.059272 0.0714035 -0.0287238
0.0106219 -0.00145158 0.00845175
-0.00302293 0.000131678 -0.000823606
0.0169538 -0.0519362 0.0175165
-0.0358398 -0.00182181 -0.0240714
0.0504101 0.029052 -0.0705505
0.00182382 0.0548967 -0.00485291
0.046722 0.0416806 0.00354525
0.00278201 0.00356561 -0.00127709
0.0120566 0.0250446 -0.040547
-0.0103403 0.0279938 0.0156415
-0.0072963 0.121662 0.403015
-0.0127871 -0.0508386 0.0123329
0.0277087 -0.030993 -0.0583702

VECTORS force float
0.0 0.0 -5.1365e-06
-1.06184e-08 1.35131e-07 2.18907e-07
0.0 0.0 -5.1365e-06
3.3336e-05 0.000104087 6.5558e-05
0.0 0.0 -5.1365e-06
7.74043e-07 -1.3731e-06 3.08382e-06
-3.9388e-06 -2.58102e-07 5.24283e-06
-4.4785e-08 2.07681e-07 2.49617e-08
1.03119e-07 2.35146e-06 -3.30114e-06
0.0 0.0 -5.1365e-06
-0.00102487 0.000948878 0.000138557
0.0 0.0 -5.1365e-06
0.000650353 -0.00076168 0.000323812
0.0 0.0 -5.1365e-06
0.0 0.0 -5.1365e-06
0.0 0.0 -5.1365e-06
0.0 0.0 -5.1365e-06
9.22327e-05 3.81285e-05 2.19355e-05
-0.000286083 -2.44431e-07 0.000487728
0.0 0.0 -5.1365e-06
0.0 0.0 -5.1365e-06
9.17008e-07 -1.65346e-07 3.25593e-07
4.39229e-06 3.62571e-05 1.73368e-06
-6.9089e-05 -3.02339e-05 6.21639e-05
-3.98909e-07 -1.06232e-06 1.36059e-05
0.0 0.0 -5.1365e-06
0.0 0.0 -5.1365e-06
0.0 0.0 -5.1365e-06
0.000580361 0.000571982 0.000530371
0.0 0.0 -5.1365e-06
2.14753e-05 -4.87679e-06 1.03732e-05
0.0 0.0 -5.1365e-06
0.0 0.0 -5.1365e-06
-9.2976e-08 -2.47114e-06 4.88991e-06
0.0 0.0 -5.1365e-06
-0.000615291 -5.87812e-05 0.000416362
-5.15072e-05 2.24195e-05 -8.53091e-06
-0.0013273 0.000310829 -0.000907449
0.0 0.0 -5.1365e-06
-1.69407e-20 3.59989e-21 8.47033e-22
9.84187e-05 4.1168e-05 -6.24729e-05
0.0 0.0 -5.1365e-06
0.0 0.0 -5.1365e-06
0.0 0.0 -5.1365e-06
-5.31811e-07 -2.8324e-06 -1.36028e-06
4.56767e-05 -2.06806e-05 6.87501e-05
0.0 0.0 -5.1365e-06
-1.5925e-06 -3.0634e-06 -2.75461e-06
-3.7722e-06 -7.1393e-07 -1.26324e-05
0.0 0.0 -5.1365e-06
7.19114e-09 6.14735e-08 2.28957e-07
0.000270205 -0.000278211 -0.0023269
2.37206e-06 -7.58153e-07 1.24148e-06
1.7498e-06 9.17789e-07 -4.05001e-06
0.0 0.0 -5.1365e-06
0.0 0.0 -5.1365e-06
0.0 0.0 -5.1365e-06
-1.54758e-06 1.04938e-06 -6.87878e-06
0.0 0.0 -5.1365e-06
0.0 0.0 -5.1365e-06
-7.75157e-06 -4.68158e-06 -3.3025e-06
0.0 0.0 -5.1365e-06
0.0 0.0 -5.1365e-06
4.03549e-06 8.05146e-06 2.23378e-06
-1.695e-05 -0.00025726 -8.97259e-05
3.66295e-06 4.62044e-07 2.95972e-06
-0.000628448 -0.000177089 0.000160498
-0.000509948 2.13609e-05 -0.00178669
0.0 0.0 -5.1365e-06
0.0 0.0 -5.1365e-06
1.74704e-05 -2.09108e-07 2.76892e-06
0.0 0.0 -5.1365e-06
0.0 0.0 -5.1365e-06
-3.17637e-22 -8.47033e-22 2.5411e-21
0.0 0.0 -5.1365e-06
0.0 0.0 -5.1365e-06
0.0 0.0 -5.1365e-06
-1.03342e-06 -5.43022e-06 -2.52799e-06
-2.26155e-07 -2.39273e-07 3.40545e-07
-3.36676e-07 3.91523e-07 -6.73447e-07
0.0 0.0 -5.1365e-06
8.26298e-06 9.57751e-06 8.22589e-05
0.0 0.0 -5.1365e-06
0.0 0.0 -5.1365e-06
0.0 0.0 -5.1365e-06
3.43236e-07 -1.45613e-06 2.65326e-06
9.85071e-05 2.11218e-05 6.29883e-05
2.89803e-06 -2.74261e-06 -7.57766e-06
0.0 0.0 -5.1365e-06
0.0 0.0 -5.1365e-06
2.3656e-19 1.87618e-19 2.87991e-20
0.0 0.0 -5.1365e-06
-0.000425935 0.00112576 -0.000196424
-0.00267188 -0.0197307 0.0566064
-1.39598e-07 5.34168e-07 4.98008e-06
0.0 0.0 -5.1365e-06
3.23878e-07 -5.32415e-06 -1.3345e-06
-6.53468e-07 2.74354e-07 1.17339e-06
0.0 0.0 -5.1365e-06
-2.78202e-06 5.54598e-06 -1.04066e-05
0.0 0.0 -5.1365e-06
0.0 0.0 -5.1365e-06
7.46923e-06 -2.18631e-05 1.06696e-05
-6.42715e-06 -2.91934e-06 1.15015e-05
3.74032e-05 9.526e-05 7.97876e-05
0.0 0.0 -5.1365e-06
-0.000237417 -6.48702e-05 -0.000985316
0.0 0.0 -5.1365e-06
0.0 0.0 -5.1365e-06
3.41804e-05 -0.000165457 -8.02593e-05
0.0 0.0 -5.1365e-06
0.0 0.0 -5.1365e-06
1.64023e-06 1.33197e-05 -9.20085e-07
2.55932e-07 -4.68352e-07 -6.98884e-08
-5.90565e-07 3.35666e-06 -4.29196e-06
1.03342e-06 5.43022e-06 -7.74501e-06
0.0 0.0 -5.1365e-06
0.0 0.0 -5.1365e-06
0.0 0.0 -5.1365e-06
0.0 0.0 -5.1365e-06
0.0 0.0 -5.1365e-06
0.0 0.0 -5.1365e-06
0.0 0.0 -5.1365e-06
0.0 0.0 -5.1365e-06
0.0 0.0 -5.1365e-06
1.16467e-21 1.05879e-22 2.5411e-21
1.15659e-05 -0.000101866 -9.34577e-05
0.0 0.0 -5.1365e-06
0.0 0.0 -5.1365e-06
0.0 0.0 -5.1365e-06
0.0 0.0 -5.1365e-06
0.0 0.0 -5.1365e-06
8.12418e-05 7.01917e-06 2.55555e-05
-4.9756e-07 -5.80135e-06 4.93693e-07
0.0 0.0 -5.1365e-06
0.0 0.0 -5.1365e-06
-0.000130853 0.00987433 0.314929
0.0 0.0 -5.1365e-06
0.0 0.0 -5.1365e-06
0.0 0.0 -5.1365e-06
-0.000906066 -0.000941139 -4.69642e-05
0.0 0.0 -5.1365e-06
-0.000152896 4.22662e-05 1.24689e-05
0.0 0.0 -5.1365e-06
0.0 0.0 -5.1365e-06
-3.98901e-05 -2.38604e-05 3.8107e-05
-3.76515e-05 -0.000747685 -0.000162388
-6.29219e-07 1.28493e-05 4.51778e-06
-4.58686e-07 6.88426e-08 -6.1004e-06
0.0 0.0 -5.1365e-06
0.0 0.0 -5.1365e-06
4.39124e-06 -6.0299e-06 -3.32983e-06
0.0 0.0 -5.1365e-06
1.11213e-05 4.10609e-05 1.84633e-05
4.56186e-08 -1.79525e-08 7.40556e-07
0.0 0.0 -5.1365e-06
0.000114588 -0.000207386 -8.84932e-05
-5.07755e-06 -2.70601e-06 1.15735e-05
0.0 0.0 -5.1365e-06
0.0 0.0 -5.1365e-06
0.0 0.0 -5.1365e-06
1.35993e-05 -7.01604e-05 -6.11538e-06
0.0 0.0 -5.1365e-06
-4.41029e-06 -3.59065e-05 -1.19492e-05
0.0 0.0 -5.1365e-06
0.0 0.0 -5.1365e-06
0.0 0.0 -5.1365e-06
0.000994462 0.000329321 -0.00120354
0.0 0.0 -5.1365e-06
