# vtk DataFile Version 3.0
LIGGGHTS particles timestep 3000000
ASCII
DATASET POLYDATA
POINTS 162 float
0.0185974 0.0154876 0.0141744
0.0287195 0.0192805 0.0158183
0.0237616 0.0217688 0.0150163
0.0309196 0.0157597 0.00878027
0.016712 0.0142055 0.0135868
0.0290392 0.0176837 0.0155669
0.028176 0.0213903 0.0151075
0.0284719 0.0203323 0.0155834
0.0210412 0.0232792 0.0104856
0.021537 0.0147203 0.0144933
0.0229721 0.0182802 0.0158946
0.0245282 0.020782 0.016664
0.0221967 0.0218532 0.0149502
0.0239555 0.0184614 0.0159093
0.0242504 0.0210317 0.0154815
0.0213991 0.02185 0.0160258
0.0198759 0.0236535 0.0140685
0.0217198 0.0242336 0.0141875
0.0187597 0.0153124 0.0093398
0.0249064 0.0181531 0.0158676
0.020804 0.0224774 0.00890235
0.0135635 0.0203593 0.0165963
0.021691 0.0229828 0.0135147
0.0197819 0.0192871 0.00720624
0.0304333 0.0148907 0.0105824
0.0182106 0.0229243 0.0150145
0.0238656 0.0227139 0.0153051
0.020445 0.0199618 0.00729801
0.0202217 0.0241172 0.0129412
0.0199284 0.0238225 0.0155455
0.0225035 0.0237654 0.0149973
0.0185303 0.0240346 0.0164098
0.0250643 0.0170869 0.0154839
0.0248113 0.0197096 0.0166742
0.0167748 0.0233828 0.0159564
0.0184484 0.0244799 0.0137024
0.0178765 0.0150592 0.0134736
0.0191791 0.0166421 0.00792975
0.023492 0.0162656 0.0152995
0.0406138 0.0191626 0.00568074
0.0211814 0.0239771 0.0131145
0.0201839 0.0231099 0.0148932
0.0262838 0.0211888 0.00782014
0.0231656 0.0224155 0.0143494
0.0251124 0.0214737 0.0162396
0.0241503 0.0196581 0.00582661
0.0188036 0.0148521 0.0129579
0.025813 0.0196936 0.0166964
0.0205027 0.0223527 0.0156076
0.0208359 0.0229647 0.00964453
0.0222867 0.0151146 0.0150323
0.0232143 0.0172455 0.0155638
0.0238235 0.0194306 0.0161224
0.0214151 0.0225178 0.0212175
0.0206741 0.0150376 0.0148877
0.0166847 0.0228933 0.0137432
0.0202263 0.0210482 0.00772617
0.0244857 0.0201225 0.0158232
0.0181545 0.0146539 0.0122082
0.0172144 0.0215964 0.01531
0.0174737 0.0243993 0.0139285
0.0256462 0.0248964 0.0573391
0.0160306 0.0236458 0.0141641
0.0205655 0.014488 0.0140585
0.0206349 0.0243008 0.0140404
0.0233851 0.0148853 0.0149837
0.0194903 0.0245027 0.0136513
0.0219007 0.022479 0.0142258
0.0225551 0.0228541 0.0137239
0.0167856 0.0238371 0.0135335
0.0240936 0.0186537 0.0168949
0.0225637 0.0195823 0.0058395
0.0164537 0.0232959 0.0127875
0.0336017 0.0195831 0.00585649
0.0211508 0.0236568 0.0139128
0.0175401 0.023774 0.0147812
0.0224336 0.0228817 0.0147723
0.0302747 0.0147623 0.0113197
0.0321674 0.0209138 0.00763774
0.0159411 0.0225284 0.0142657
0.0188225 0.0138726 0.0131817
0.0237202 0.0157359 0.0144704
0.0123675 0.0290218 0.0351945
0.0241749 0.0174987 0.0156802
0.0178773 0.0141616 0.0130328
0.0195575 0.0230486 0.0161872
0.0245197 0.0221614 0.015821
0.0389148 0.0189256 0.00570476
0.0193906 0.0174576 0.00747249
0.0227492 0.0193704 0.0159336
0.0293373 0.016646 0.0150388
0.0268191 0.022935 0.00954931
0.0216964 0.0228551 0.0161604
0.0256306 0.0206592 0.0164999
0.0179985 0.0237254 0.013609
0.0258748 0.0197451 0.00721966
0.0173192 0.0168008 0.0153441
0.02768 0.0229285 0.0133308
0.0235147 0.0203748 0.0159177
0.0185025 0.0239483 0.0145639
0.0165524 0.0237178 0.0150184
0.0192292 0.0240991 0.012805
0.0232618 0.0232637 0.0147122
0.0184279 0.0205402 0.0160874
0.024779 0.0153405 0.00929415
0.0213609 0.0234431 0.0150571
0.0164241 0.0227559 0.0152568
0.0297952 0.0152762 0.0134128
0.0317087 0.0188647 0.00720601
0.0189744 0.0159525 0.00851248
0.023183 0.0220951 0.0157643
0.0176171 0.0157086 0.0144295
0.0189824 0.0237584 0.0136364
0.0157303 0.023057 0.0134066
0.0187548 0.0145304 0.0139316
0.0237869 0.0201385 0.0168543
0.0149236 0.0225701 0.0154878
0.0212206 0.0156314 0.0155371
0.0178623 0.014714 0.0144147
0.0175178 0.0226443 0.0157339
0.0327957 0.0190095 0.00571076
0.0226073 0.0236146 0.0140483
0.020567 0.0140751 0.0131478
0.013927 0.0164805 0.0234029
0.016702 0.0204316 0.0163375
0.0237831 0.0151925 0.0134487
0.0230052 0.0230781 0.0156481
0.0224878 0.0145325 0.0142431
0.0300343 0.0149282 0.0124688
0.0189418 0.0161321 0.0148614
0.0139006 0.0144291 0.0222954
0.0295612 0.0157224 0.0142501
0.0199417 0.014336 0.0124124
0.0177576 0.0138251 0.0139662
0.0228039 0.0231791 0.0128441
0.024452 0.0163064 0.014993
0.0193168 0.0146604 0.0147482
0.0266262 0.0224466 0.00884921
0.0176416 0.0229078 0.014185
0.0196732 0.0142269 0.0135692
0.0191498 0.0217992 0.0160414
0.0272033 0.0233842 0.0111929
0.0191932 0.0232326 0.0146633
0.0153135 0.0232282 0.014744
0.0214319 0.0142468 0.013619
0.0175048 0.0239947 0.0128877
0.0214281 0.0233808 0.0122062
0.0242391 0.0147358 0.01152
0.0381686 0.0197868 0.00591052
0.0194993 0.0152006 0.0137158
0.0191145 0.0146257 0.0119314
0.0238796 0.021531 0.0162651
0.0190859 0.0225659 0.0154002
0.017856 0.0236537 0.0157527
0.0211224 0.0214959 0.0170041
0.0219502 0.023422 0.0129575
0.023066 0.0211643 0.0154093
0.0161681 0.0218293 0.0149842
0.0140363 0.00483368 0.0517341
0.0247338 0.0205863 0.0182196
0.0225239 0.0204074 0.0157826
0.0188806 0.0235241 0.0155995

VERTICES 162 324
1 0
1 1
1 2
1 3
1 4
1 5
1 6
1 7
1 8
1 9
1 10
1 11
1 12
1 13
1 14
1 15
1 16
1 17
1 18
1 19
1 20
1 21
1 22
1 23
1 24
1 25
1 26
1 27
1 28
1 29
1 30
1 31
1 32
1 33
1 34
1 35
1 36
1 37
1 38
1 39
1 40
1 41
1 42
1 43
1 44
1 45
1 46
1 47
1 48
1 49
1 50
1 51
1 52
1 53
1 54
1 55
1 56
1 57
1 58
1 59
1 60
1 61
1 62
1 63
1 64
1 65
1 66
1 67
1 68
1 69
1 70
1 71
1 72
1 73
1 74
1 75
1 76
1 77
1 78
1 79
1 80
1 81
1 82
1 83
1 84
1 85
1 86
1 87
1 88
1 89
1 90
1 91
1 92
1 93
1 94
1 95
1 96
1 97
1 98
1 99
1 100
1 101
1 102
1 103
1 104
1 105
1 106
1 107
1 108
1 109
1 110
1 111
1 112
1 113
1 114
1 115
1 116
1 117
1 118
1 119
1 120
1 121
1 122
1 123
1 124
1 125
1 126
1 127
1 128
1 129
1 130
1 131
1 132
1 133
1 134
1 135
1 136
1 137
1 138
1 139
1 140
1 141
1 142
1 143
1 144
1 145
1 146
1 147
1 148
1 149
1 150
1 151
1 152
1 153
1 154
1 155
1 156
1 157
1 158
1 159
1 160
1 161

POINT_DATA 162
SCALARS id int 1
LOOKUP_TABLE default
1
2
4
5
6
7
8
10
11
12
13
14
15
16
17
18
19
20
21
22
23
24
25
26
27
29
30
31
34
35
36
37
38
39
40
41
42
43
44
45
46
48
49
50
51
52
53
54
55
57
58
59
60
61
62
63
64
65
66
68
69
70
71
72
74
75
76
77
78
79
81
82
83
84
85
86
87
89
90
91
92
93
95
97
98
102
103
105
106
107
108
109
110
111
112
113
114
115
117
118
120
122
123
124
125
126
127
128
129
131
132
133
134
135
136
137
138
139
140
141
142
143
144
146
147
148
149
150
151
152
153
154
155
156
157
158
160
161
163
164
166
167
168
169
170
171
173
174
175
176
178
179
180
181
182
183
184
185
187
188
189
190

SCALARS type int 1
LOOKUP_TABLE default
1
1
1
1
1
1
1
1
1
1
1
1
1
1
1
1
1
1
1
1
1
1
1
1
1
1
1
1
1
1
1
1
1
1
1
1
1
1
1
1
1
1
1
1
1
1
1
1
1
1
1
1
1
1
1
1
1
1
1
1
1
1
1
1
1
1
1
1
1
1
1
1
1
1
1
1
1
1
1
1
1
1
1
1
1
1
1
1
1
1
1
1
1
1
1
1
1
1
1
1
1
1
1
1
1
1
1
1
1
1
1
1
1
1
1
1
1
1
1
1
1
1
1
1
1
1
1
1
1
1
1
1
1
1
1
1
1
1
1
1
1
1
1
1
1
1
1
1
1
1
1
1
1
1
1
1
1
1
1
1
1
1

SCALARS radius float 1
LOOKUP_TABLE default
0.0005
0.0005
0.0005
0.0005
0.0005
0.0005
0.0005
0.0005
0.0005
0.0005
0.0005
0.0005
0.0005
0.0005
0.0005
0.0005
0.0005
0.0005
0.0005
0.0005
0.0005
0.0005
0.0005
0.0005
0.0005
0.0005
0.0005
0.0005
0.0005
0.0005
0.0005
0.0005
0.0005
0.0005
0.0005
0.0005
0.0005
0.0005
0.0005
0.0005
0.0005
0.0005
0.0005
0.0005
0.0005
0.0005
0.0005
0.0005
0.0005
0.0005
0.0005
0.0005
0.0005
0.0005
0.0005
0.0005
0.0005
0.0005
0.0005
0.0005
0.0005
0.0005
0.0005
0.0005
0.0005
0.0005
0.0005
0.0005
0.0005
0.0005
0.0005
0.0005
0.0005
0.0005
0.0005
0.0005
0.0005
0.0005
0.0005
0.0005
0.0005
0.0005
0.0005
0.0005
0.0005
0.0005
0.0005
0.0005
0.0005
0.0005
0.0005
0.0005
0.0005
0.0005
0.0005
0.0005
0.0005
0.0005
0.0005
0.0005
0.0005
0.0005
0.0005
0.0005
0.0005
0.0005
0.0005
0.0005
0.0005
0.0005
0.0005
0.0005
0.0005
0.0005
0.0005
0.0005
0.0005
0.0005
0.0005
0.0005
0.0005
0.0005
0.0005
0.0005
0.0005
0.0005
0.0005
0.0005
0.0005
0.0005
0.0005
0.0005
0.0005
0.0005
0.0005
0.0005
0.0005
0.0005
0.0005
0.0005
0.0005
0.0005
0.0005
0.0005
0.0005
0.0005
0.0005
0.0005
0.0005
0.0005
0.0005
0.0005
0.0005
0.0005
0.0005
0.0005
0.0005
0.0005
0.0005
0.0005
0.0005
0.0005

SCALARS mass float 1
LOOKUP_TABLE default
5.23599e-07
5.23599e-07
5.23599e-07
5.23599e-07
5.23599e-07
5.23599e-07
5.23599e-07
5.23599e-07
5.23599e-07
5.23599e-07
5.23599e-07
5.23599e-07
5.23599e-07
5.23599e-07
5.23599e-07
5.23599e-07
5.23599e-07
5.23599e-07
5.23599e-07
5.23599e-07
5.23599e-07
5.23599e-07
5.23599e-07
5.23599e-07
5.23599e-07
5.23599e-07
5.23599e-07
5.23599e-07
5.23599e-07
5.23599e-07
5.23599e-07
5.23599e-07
5.23599e-07
5.23599e-07
5.23599e-07
5.23599e-07
5.23599e-07
5.23599e-07
5.23599e-07
5.23599e-07
5.23599e-07
5.23599e-07
5.23599e-07
5.23599e-07
5.23599e-07
5.23599e-07
5.23599e-07
5.23599e-07
5.23599e-07
5.23599e-07
5.23599e-07
5.23599e-07
5.23599e-07
5.23599e-07
5.23599e-07
5.23599e-07
5.23599e-07
5.23599e-07
5.23599e-07
5.23599e-07
5.23599e-07
5.23599e-07
5.23599e-07
5.23599e-07
5.23599e-07
5.23599e-07
5.23599e-07
5.23599e-07
5.23599e-07
5.23599e-07
5.23599e-07
5.23599e-07
5.23599e-07
5.23599e-07
5.23599e-07
5.23599e-07
5.23599e-07
5.23599e-07
5.23599e-07
5.23599e-07
5.23599e-07
5.23599e-07
5.23599e-07
5.23599e-07
5.23599e-07
5.23599e-07
5.23599e-07
5.23599e-07
5.23599e-07
5.23599e-07
5.23599e-07
5.23599e-07
5.23599e-07
5.23599e-07
5.23599e-07
5.23599e-07
5.23599e-07
5.23599e-07
5.23599e-07
5.23599e-07
5.23599e-07
5.23599e-07
5.23599e-07
5.23599e-07
5.23599e-07
5.23599e-07
5.23599e-07
5.23599e-07
5.23599e-07
5.23599e-07
5.23599e-07
5.23599e-07
5.23599e-07
5.23599e-07
5.23599e-07
5.23599e-07
5.23599e-07
5.23599e-07
5.23599e-07
5.23599e-07
5.23599e-07
5.23599e-07
5.23599e-07
5.23599e-07
5.23599e-07
5.23599e-07
5.23599e-07
5.23599e-07
5.23599e-07
5.23599e-07
5.23599e-07
5.23599e-07
5.23599e-07
5.23599e-07
5.23599e-07
5.23599e-07
5.23599e-07
5.23599e-07
5.23599e-07
5.23599e-07
5.23599e-07
5.23599e-07
5.23599e-07
5.23599e-07
5.23599e-07
5.23599e-07
5.23599e-07
5.23599e-07
5.23599e-07
5.23599e-07
5.23599e-07
5.23599e-07
5.23599e-07
5.23599e-07
5.23599e-07
5.23599e-07
5.23599e-07
5.23599e-07
5.23599e-07
5.23599e-07
5.23599e-07
5.23599e-07

VECTORS velocity float
0.00865942 -0.00203525 0.00362661
0.00199848 0.0492402 -0.0068296
0.00176718 0.00104522 0.0023494
0.000244192 -0.0356292 0.0397815
0.00168068 -0.0025261 0.00594929
0.000539267 0.0499758 0.0202895
0.00626869 0.0255402 -0.0171963
0.000546917 0.0492327 -0.0157626
0.00274896 -0.0102876 -0.0470541
0.00247238 0.00399868 0.00445002
0.00437831 0.041364 0.000216827
-0.00164711 0.000638235 -0.00120354
0.00369389 0.0169429 -0.0256231
0.0112722 0.00911565 -0.0213809
0.00445766 0.0118121 0.00315562
0.0158961 0.0137883 0.00391475
-0.00530407 0.00504972 -0.00455165
0.00522744 -0.0201661 0.010883
0.00282763 -0.0244572 0.0366952
0.0154407 0.00514764 -0.00554392
-0.246673 1.01888 -1.58007
-9.21367e-05 0.0656807 0.00837182
0.00778553 0.00924193 -0.0351039
0.00225448 -0.0466097 -0.00262517
0.00346944 -0.00697024 0.0394786
-0.0246825 -0.00463402 0.00825824
0.000127599 -0.000300987 0.0017541
0.000772523 -0.0488989 -0.013972
-0.00686084 -0.00738566 0.00135154
0.00738666 -0.028543 0.00220142
0.00580973 -0.00617469 0.00682993
0.0178314 -0.0111252 0.0150523
0.00812256 -0.0001793 -0.00475827
0.00051788 -0.0108983 -0.0134488
-0.0150187 0.0167771 0.0217608
-0.00147512 -0.000435897 -0.00126323
0.00717835 -0.00217181 0.00424019
-0.00152976 -0.0367381 0.0257408
0.00223173 0.019305 -0.00476025
-7.29571e-15 3.48437e-14 -1.72292e-13
0.00395346 -0.00549568 -0.0329352
-0.00648794 -0.0138678 -0.0196087
-0.000152929 -0.0442097 -0.0293487
-0.00423746 -0.00231593 0.00587424
3.8952e-05 -0.000153566 -0.000467631
-1.15081e-14 -1.85311e-15 1.86304e-13
0.0309544 -0.00442737 -0.0101155
-0.00680212 0.0162825 0.00782629
-0.00268206 0.0458976 -0.00723346
-0.000452528 -0.0160051 -0.05634
0.0104937 -0.00185556 0.00374935
0.00958572 0.0304575 0.00536706
0.0135022 0.00120956 0.00838226
-0.04192 -0.00429581 -0.0603314
0.000436097 0.00203522 0.00336194
0.00246427 0.00904987 -0.00826173
0.00145045 -0.0436616 -0.0213304
0.00900007 0.00644713 0.00712232
0.010621 -0.000476695 0.00556281
0.0459675 -0.111688 0.0949511
-0.00169048 0.000103168 -0.00138155
0.105779 0.0671929 0.896283
0.00412994 -0.00574845 0.000356098
0.00882948 0.00173247 0.00183657
-0.00213632 -0.016518 0.00275647
0.000210663 0.0191764 -0.0853453
-0.000876904 0.000287263 -0.000514694
0.00768017 0.0170956 -0.0290697
0.0327457 0.0028892 -0.0118185
-0.00148771 0.00459372 -0.00321381
0.00872116 -0.0504404 -0.00458547
-4.39593e-14 9.36731e-14 3.3937e-13
0.00911719 0.00405002 -0.00693252
5.63724e-19 8.28771e-18 -2.35024e-17
-0.00264051 -0.031914 0.00238893
-0.0129493 -0.0154418 0.0254686
-0.00724085 0.000754073 -0.0126375
0.00502059 -0.00339799 0.0193864
0.0112903 -0.00487828 -0.00580062
0.00805367 0.00715462 -0.00821001
0.0109926 -0.000688232 0.00186925
0.014514 -0.00261897 -0.00506912
-0.146176 0.00962184 0.319137
0.0134294 0.0139721 -0.00431044
0.0106022 -0.000771371 0.00372118
0.0286772 0.00165555 -0.0289453
0.000776447 0.000430371 0.000893732
-7.67996e-16 3.68786e-15 -1.82463e-14
0.00167778 -0.0444214 0.0186675
0.00307856 0.0604551 -0.0131853
0.00139289 0.0408987 0.0280487
0.00389961 -0.018692 -0.0396583
0.0468912 0.0395432 0.152438
-0.00030875 2.59094e-05 -0.000166159
-0.0066205 -0.0037557 -0.00411783
0.00027338 -0.0520109 -0.011996
0.014408 -0.0141458 -0.0025047
-0.000255344 0.0270577 -0.0463654
0.0170218 -0.000237185 0.00162909
-0.00751844 0.00544119 0.00790505
-0.000235558 -0.0032467 -0.00625739
-0.000453235 0.00170852 -0.00126529
0.000297554 -0.00414488 0.00481298
0.0764481 -0.233739 0.183995
0.00269122 -0.0186384 0.0376646
0.035753 -0.062941 -0.00306074
-0.000442467 0.0119278 0.0250411
-0.00028394 0.0201869 0.0479591
0.000428107 -0.0547832 -0.00188071
0.001145 -0.0327828 0.0346163
-0.00874218 0.00248995 -0.0060522
0.0101559 0.0134351 0.0148252
-0.00290757 0.00197263 -0.00292073
0.00922266 0.00345046 -0.00921914
0.0119209 -0.000619163 0.00225148
-0.00558974 0.0081725 0.00833543
-0.0344497 -0.0209928 -0.000707023
0.00504561 -0.0144618 -0.0433737
0.000394712 -0.00414156 0.0120213
-0.000601632 -0.0311034 0.0223103
1.41634e-18 -9.25963e-18 -2.26465e-17
0.00359373 0.00228107 -2.05439e-05
0.00915641 0.000958737 0.00246143
-0.0747951 -0.216379 -0.021394
0.181776 -0.0705816 0.142751
-0.000896766 0.0149062 0.0330085
0.00015619 0.00117185 0.00233085
0.00534741 -0.00362231 0.00931791
0.000587333 0.0122663 0.0495892
0.0155942 -0.00140345 0.00867451
0.166412 0.0436125 0.0873555
0.0028983 0.0257144 0.0302574
0.0102112 -0.000815526 0.00103621
0.00502338 -0.000690254 0.00214685
-0.046756 -0.0146854 -0.080419
0.00140069 0.00270103 0.00291103
0.0186919 -0.00536525 -0.00151462
0.00302854 -0.0293354 -0.0331396
-0.0174015 0.00799193 -0.016576
0.00892602 0.00113991 0.00257696
0.0121018 0.00725819 0.0138836
0.000245184 -0.00111129 -0.053551
-0.0083247 0.0107558 -0.00243946
0.0241999 -0.00948355 0.00133404
0.00828682 0.00375629 0.00356171
-0.00406773 0.000190778 -0.00225116
-0.019085 -0.107437 0.0191723
0.000216994 -0.00349679 0.054771
1.04148e-14 -4.97179e-14 2.45847e-13
0.00416711 -0.000124256 -0.000432202
0.0101139 -0.00157236 0.0035574
-0.00560942 0.00370143 -0.0025585
-0.00698195 0.0107458 0.00197732
0.00257478 -0.0132488 -0.00164115
-0.0470527 -0.019585 -0.0682674
-0.0812767 0.0324891 -0.0519353
-0.00901456 0.00306067 -0.00766698
-0.00867951 0.0283137 -0.0114476
-0.156929 -0.509867 0.751968
-0.0439486 -0.0471916 0.07369
0.0154054 -0.00194656 -0.0116257
-0.00464817 0.00304416 -0.00868014

VECTORS force float
-1.79588e-07 -9.40644e-07 -2.86898e-06
-3.98225e-08 2.49655e-06 -3.5115e-07
3.85084e-06 3.12043e-05 -6.31891e-06
-2.77406e-09 1.06929e-07 1.93851e-07
4.23198e-08 -2.51251e-07 9.92965e-08
-8.45128e-08 -1.9118e-06 -1.26969e-07
-7.98751e-06 4.05771e-06 -2.48818e-06
-4.3068e-08 9.08318e-08 -2.03928e-07
4.0669e-07 5.02501e-06 -3.15861e-05
2.42969e-06 1.02747e-06 -2.19987e-06
0.0 0.0 -5.1365e-06
-2.20528e-07 -5.70477e-07 -1.70498e-06
0.0 0.0 -5.1365e-06
0.0 0.0 -5.1365e-06
-1.25299e-05 -4.6618e-05 -1.32267e-05
0.0 0.0 -5.1365e-06
-3.37657e-05 2.83958e-05 0.000111143
0.000660861 -0.0006396 0.000731513
3.20502e-06 6.10912e-06 -1.09754e-05
4.47249e-05 2.84146e-05 4.39373e-05
-0.0474021 0.1967 -0.284383
0.0 0.0 -5.1365e-06
-0.00202464 0.000825521 -0.00112749
-1.58933e-06 8.39555e-07 -3.77912e-06
-1.4191e-07 -1.57465e-07 5.48829e-07
0.0 0.0 -5.1365e-06
-1.18881e-05 1.58523e-05 1.63018e-05
-9.9737e-06 -5.65739e-05 -9.60563e-06
-0.000252565 -0.00018277 -1.69817e-05
-4.00919e-05 2.12912e-05 2.83695e-05
7.54224e-06 0.000108627 -7.95009e-05
0.0 0.0 -5.1365e-06
1.45188e-05 -2.75202e-07 -1.5868e-05
0.0 0.0 -5.1365e-06
0.0 0.0 -5.1365e-06
3.66261e-06 -1.08003e-05 1.71474e-05
0.0 0.0 -5.1365e-06
-2.24382e-05 -3.03516e-05 6.77951e-05
0.0 0.0 -5.1365e-06
6.61744e-22 -4.23516e-22 0.0
-0.000291624 0.00278815 0.00161246
4.00919e-05 -2.12912e-05 -3.86425e-05
-2.22758e-08 -1.48693e-07 1.6586e-07
0.00014833 5.53999e-06 -0.000155565
2.15905e-06 5.92481e-08 1.61335e-06
-5.57401e-19 -8.72775e-20 -3.47284e-20
0.0 0.0 -5.1365e-06
0.0 0.0 -5.1365e-06
0.0 0.0 -5.1365e-06
-0.0012791 0.00597011 -0.00905999
0.0 0.0 -5.1365e-06
-3.39402e-05 -5.55492e-06 0.000173657
0.0 0.0 -5.1365e-06
0.0 0.0 -5.1365e-06
-1.76126e-07 -2.8948e-06 1.85939e-06
1.09904e-06 1.10939e-05 -1.38629e-05
-1.75237e-07 -4.13058e-07 1.50008e-08
1.18959e-05 -1.77177e-05 2.00915e-05
1.76617e-06 3.09272e-06 2.22999e-06
0.0 0.0 -5.1365e-06
6.68419e-06 1.23799e-05 7.28783e-06
0.0 0.0 -5.1365e-06
0.0 0.0 -5.1365e-06
-1.35683e-06 2.15851e-06 -2.86596e-06
0.000298977 -0.000388862 2.81358e-05
0.0 0.0 -5.1365e-06
-2.77107e-06 -2.24228e-06 9.00596e-06
-0.000454134 -8.28267e-05 -0.000401115
-0.000153764 -0.000116249 -0.00012943
2.01601e-05 2.53083e-05 9.46581e-06
0.0 0.0 -5.1365e-06
1.05879e-22 -2.11758e-22 -8.47033e-22
1.4908e-06 3.46091e-08 3.57576e-05
-4.23516e-22 4.23516e-22 -1.69407e-21
-0.000138977 0.00182675 -0.00137947
0.0 0.0 -5.1365e-06
-0.000145326 0.000109953 -0.000214901
1.03705e-07 -3.66163e-07 -2.01207e-06
4.3447e-05 8.20932e-05 -2.4238e-05
5.59641e-06 -9.29074e-06 3.69601e-06
4.30135e-06 1.00415e-06 7.01321e-06
0.0 0.0 -5.1365e-06
0.0 0.0 -5.1365e-06
-5.92436e-05 -2.81394e-05 -4.34788e-05
-5.19746e-06 4.49257e-06 8.17754e-06
0.0 0.0 -5.1365e-06
1.12608e-06 -3.34459e-06 -7.52662e-07
-1.38093e-19 -8.47033e-22 5.92923e-21
1.81337e-05 1.59862e-05 -3.39907e-05
-2.33129e-05 -5.51318e-05 0.000601473
-1.33738e-07 4.28135e-07 -2.46591e-09
4.48596e-05 -2.33083e-05 1.77444e-05
0.0 0.0 -5.1365e-06
1.12421e-06 -2.13817e-07 -1.20523e-07
-1.50533e-05 -4.07885e-05 7.76926e-05
4.84113e-09 -1.22022e-07 2.10487e-07
2.01372e-07 -9.81145e-08 5.70138e-07
-7.15021e-08 -2.09818e-07 -1.52223e-07
0.0 0.0 -5.1365e-06
-1.35801e-05 1.67334e-05 -2.22352e-05
3.85109e-05 6.58099e-05 8.73923e-06
-3.34661e-06 -3.97976e-06 1.23722e-05
-4.70272e-05 5.08012e-05 -3.13187e-05
0.0 0.0 -5.1365e-06
3.74796e-05 -0.000141117 5.952e-05
0.0 0.0 -5.1365e-06
-2.62688e-05 -9.88357e-06 -1.81637e-05
-9.88316e-06 -1.2488e-05 -1.84262e-05
1.48618e-08 -1.35192e-08 2.47538e-07
1.04757e-05 4.19898e-05 -9.1125e-05
0.0 0.0 -5.1365e-06
0.0 0.0 -5.1365e-06
-5.51311e-06 -1.02445e-05 3.81434e-05
-8.08282e-06 -5.31319e-06 6.23394e-06
1.14333e-06 2.55581e-06 -2.25449e-07
-7.976e-07 -1.44871e-06 -5.41254e-06
0.0 0.0 -5.1365e-06
0.0 0.0 -5.1365e-06
0.0 0.0 -5.1365e-06
0.0 0.0 -5.1365e-06
-9.52912e-22 -5.29396e-22 -2.5411e-21
0.000694182 -0.000463805 0.000378446
-1.78298e-06 6.47382e-08 3.19467e-06
0.0 0.0 -5.1365e-06
0.0 0.0 -5.1365e-06
-0.000520649 0.00178134 0.00188647
-1.74891e-05 2.53603e-05 -9.39064e-06
0.0 0.0 -5.1365e-06
-3.31054e-08 2.44413e-07 5.76665e-08
0.0 0.0 -5.1365e-06
0.0 0.0 -5.1365e-06
-3.04015e-05 -0.000194469 -0.000166373
4.35986e-06 -1.92029e-06 4.23051e-06
-5.92882e-06 6.05996e-08 4.17916e-07
0.00042698 -0.00047096 -0.00108271
-1.46998e-05 1.66496e-05 1.13994e-05
6.36189e-07 2.12995e-06 -1.78588e-06
1.07421e-05 3.88184e-05 6.84126e-05
0.0 0.0 -5.1365e-06
-4.02786e-07 -2.31876e-06 -2.48715e-06
0.0 0.0 -5.1365e-06
-1.48227e-08 -2.54069e-07 -1.17102e-07
-2.25779e-05 -9.02946e-05 7.73842e-05
0.0 0.0 -5.1365e-06
-2.89546e-06 3.1171e-07 -4.12751e-06
3.98103e-05 3.04868e-06 2.95634e-05
-0.00742928 -0.00553921 0.00829031
1.96798e-08 2.31421e-07 8.18563e-08
7.90123e-20 7.83505e-21 -1.69407e-21
-1.35604e-07 5.6246e-07 1.13831e-06
7.26067e-06 -1.14581e-06 4.44401e-06
0.0 0.0 -5.1365e-06
-2.20821e-05 -3.06387e-05 8.74773e-06
0.0 0.0 -5.1365e-06
0.0 0.0 -5.1365e-06
-0.00219954 -0.00362449 0.00203466
0.0 0.0 -5.1365e-06
-1.22422e-05 -5.59264e-05 -5.98505e-06
0.0 0.0 -5.1365e-06
0.0 0.0 -5.1365e-06
0.0 0.0 -5.1365e-06
-2.45681e-06 6.26936e-06 1.25991e-06
