# vtk DataFile Version 3.0
LIGGGHTS particles timestep 3200000
ASCII
DATASET POLYDATA
POINTS 154 float
0.0197879 0.0209035 0.015569
0.0290756 0.0226377 0.009034
0.02401 0.0225309 0.0145754
0.0314137 0.0178499 0.0156359
0.0165865 0.0142545 0.0135844
0.0294337 0.0232436 0.0103947
0.0286361 0.0209977 0.00765879
0.0287856 0.0217383 0.00809486
0.021429 0.0161969 0.00826217
0.0218818 0.0156708 0.0143854
0.0243981 0.0217781 0.0150203
0.0196865 0.019876 0.0165992
0.0234331 0.0232346 0.0105182
0.0250064 0.0198488 0.0160379
0.0247686 0.0210688 0.0156034
0.0198086 0.0236793 0.0142928
0.0216982 0.0242277 0.0141785
0.0242479 0.0193762 0.0223096
0.0261428 0.018416 0.0172957
0.0209943 0.0150097 0.0100097
0.0146484 0.0213791 0.0159779
0.0230463 0.0226874 0.00918068
0.0201933 0.0152191 0.0138335
0.0310943 0.0192155 0.0158159
0.0201274 0.0228136 0.0139059
0.0237034 0.0230047 0.0154511
0.0204062 0.0146434 0.0129166
0.0202175 0.0240883 0.0128829
0.0219466 0.0240789 0.0220375
0.022294 0.0237739 0.0149755
0.0170223 0.0237007 0.0160108
0.0254412 0.0174778 0.0163699
0.0242945 0.0209309 0.0165415
0.0161911 0.0229862 0.0150124
0.0188575 0.0244074 0.0135482
0.0192555 0.0188671 0.0159535
0.0199034 0.0166834 0.0154047
0.0231148 0.016152 0.0158858
0.0406138 0.0191626 0.00568074
0.0211382 0.0240118 0.0130771
0.0206895 0.0235392 0.0147418
0.0265934 0.0147529 0.0116161
0.0241851 0.0231682 0.0101044
0.0252707 0.0213629 0.0164218
0.0241503 0.0196581 0.00582661
0.0207068 0.0175218 0.0156884
0.0261214 0.0195601 0.0172615
0.0213976 0.0227475 0.0153246
0.0212138 0.0154114 0.00912307
0.0225186 0.0152891 0.0151767
0.0235663 0.0170927 0.016428
0.0232446 0.02217 0.0157669
0.0190422 0.0238481 0.0165169
0.0207058 0.0145926 0.0144298
0.0186931 0.0234132 0.0122144
0.0206111 0.0146261 0.011931
0.0255638 0.0204919 0.0157291
0.019533 0.0177281 0.0157468
0.0193627 0.0223618 0.0144831
0.0177787 0.0243569 0.013836
0.0166604 0.0238544 0.0136597
0.0211931 0.0152391 0.0138017
0.0205833 0.0242939 0.0140562
0.0235288 0.015054 0.0148938
0.0197617 0.0244694 0.0136571
0.0232587 0.0230283 0.00976581
0.0239151 0.0228554 0.00936242
0.0173547 0.024075 0.0129682
0.0207616 0.0157067 0.0155076
0.0225637 0.0195823 0.0058395
0.018308 0.0233924 0.0112557
0.0336017 0.0195831 0.00585649
0.0210961 0.0236461 0.0138359
0.01814 0.0234271 0.0139206
0.021652 0.0232947 0.0145125
0.0307939 0.0206364 0.0154781
0.0325238 0.014803 0.0120254
0.0177622 0.0236791 0.0119557
0.0194322 0.0139804 0.0130056
0.0243953 0.0157468 0.0156168
0.0204691 0.0233933 0.0158683
0.0206571 0.0121389 0.0306015
0.0183675 0.0140141 0.0130336
0.0169156 0.0233936 0.0248076
0.0244056 0.0223278 0.0159825
0.0389148 0.0189256 0.00570476
0.0200119 0.0158331 0.0146032
0.0220488 0.0125985 0.0344483
0.0296231 0.0233812 0.0114422
0.0273196 0.0157901 0.0087045
0.0125462 0.0275678 0.0385782
0.0257305 0.0203598 0.0167154
0.0184208 0.0238194 0.0130387
0.0263562 0.0150038 0.0128515
0.0188046 0.0210645 0.0157312
0.0281154 0.0190018 0.00717866
0.0188442 0.0238492 0.0145705
0.0168808 0.0236275 0.0146708
0.0192869 0.0240079 0.0127343
0.0231138 0.0232904 0.0146515
0.0203643 0.022199 0.014659
0.025188 0.0189405 0.0159186
0.0160252 0.025947 0.0268838
0.017236 0.0227227 0.0152985
0.0302239 0.0226128 0.0138814
0.0320665 0.0154858 0.0138793
0.0180797 0.0165937 0.0177342
0.0190231 0.0200591 0.0158517
0.0197873 0.0232131 0.0130559
0.0174826 0.02331 0.0110469
0.0188958 0.013771 0.0138444
0.0151103 0.0230712 0.0149179
0.0213792 0.0163009 0.0149959
0.0177897 0.014633 0.0143455
0.0183955 0.0225259 0.0142737
0.0327957 0.0190095 0.00571076
0.0224306 0.0236551 0.0140201
0.0221603 0.0151154 0.0135745
0.015721 0.0207743 0.0165959
0.0216284 0.0148017 0.0149199
0.0199095 0.0213301 0.0249391
0.0224191 0.0228 0.0151894
0.0227781 0.0146365 0.0143683
0.0304132 0.0219036 0.0147235
0.0205819 0.0214314 0.0152665
0.011607 0.0155148 0.0258124
0.0299106 0.023227 0.0126963
0.0216476 0.0147946 0.0127698
0.0175522 0.013997 0.0136115
0.0234534 0.0217841 0.00840632
0.0257774 0.0189963 0.0166136
0.0193711 0.0145055 0.0143295
0.0270015 0.0150294 0.00998503
0.0190926 0.0231244 0.0138502
0.0205072 0.0137077 0.013968
0.0185971 0.021941 0.0151956
0.0276225 0.0168169 0.00780048
0.0188779 0.0231845 0.0155823
0.0158634 0.0235436 0.0142336
0.0218676 0.0142596 0.0141047
0.019232 0.023452 0.0115062
0.0218289 0.0174026 0.00749299
0.0231952 0.017971 0.0169323
0.0381686 0.0197868 0.00591052
0.0208599 0.018594 0.0159177
0.0211604 0.0141892 0.0133922
0.0222493 0.0221748 0.0160516
0.0199215 0.0220288 0.0162149
0.0198459 0.0230375 0.0150782
0.0228508 0.0219788 0.00854422
0.0178703 0.0232945 0.0126261
0.0161879 0.0187575 0.0168923
0.0215772 0.0187011 0.0166641
0.0179831 0.0226657 0.0160214

VERTICES 154 308
1 0
1 1
1 2
1 3
1 4
1 5
1 6
1 7
1 8
1 9
1 10
1 11
1 12
1 13
1 14
1 15
1 16
1 17
1 18
1 19
1 20
1 21
1 22
1 23
1 24
1 25
1 26
1 27
1 28
1 29
1 30
1 31
1 32
1 33
1 34
1 35
1 36
1 37
1 38
1 39
1 40
1 41
1 42
1 43
1 44
1 45
1 46
1 47
1 48
1 49
1 50
1 51
1 52
1 53
1 54
1 55
1 56
1 57
1 58
1 59
1 60
1 61
1 62
1 63
1 64
1 65
1 66
1 67
1 68
1 69
1 70
1 71
1 72
1 73
1 74
1 75
1 76
1 77
1 78
1 79
1 80
1 81
1 82
1 83
1 84
1 85
1 86
1 87
1 88
1 89
1 90
1 91
1 92
1 93
1 94
1 95
1 96
1 97
1 98
1 99
1 100
1 101
1 102
1 103
1 104
1 105
1 106
1 107
1 108
1 109
1 110
1 111
1 112
1 113
1 114
1 115
1 116
1 117
1 118
1 119
1 120
1 121
1 122
1 123
1 124
1 125
1 126
1 127
1 128
1 129
1 130
1 131
1 132
1 133
1 134
1 135
1 136
1 137
1 138
1 139
1 140
1 141
1 142
1 143
1 144
1 145
1 146
1 147
1 148
1 149
1 150
1 151
1 152
1 153

POINT_DATA 154
SCALARS id int 1
LOOKUP_TABLE default
1
2
4
5
6
7
8
10
11
12
13
14
15
16
17
19
20
21
22
23
24
25
26
27
29
30
31
34
35
36
37
38
39
40
41
42
43
44
45
46
48
49
50
51
52
53
54
55
57
58
59
60
61
62
63
64
65
66
68
69
71
72
74
75
76
77
78
79
81
82
83
84
85
86
87
89
90
91
92
93
95
97
98
102
103
105
106
107
108
109
110
111
112
113
114
115
118
120
122
123
124
125
126
127
128
129
131
133
134
135
136
138
139
140
141
142
143
144
146
147
148
149
150
151
152
153
154
155
156
157
158
160
161
163
164
166
167
168
169
170
171
173
174
175
176
178
180
181
182
183
185
188
189
190

SCALARS type int 1
LOOKUP_TABLE default
1
1
1
1
1
1
1
1
1
1
1
1
1
1
1
1
1
1
1
1
1
1
1
1
1
1
1
1
1
1
1
1
1
1
1
1
1
1
1
1
1
1
1
1
1
1
1
1
1
1
1
1
1
1
1
1
1
1
1
1
1
1
1
1
1
1
1
1
1
1
1
1
1
1
1
1
1
1
1
1
1
1
1
1
1
1
1
1
1
1
1
1
1
1
1
1
1
1
1
1
1
1
1
1
1
1
1
1
1
1
1
1
1
1
1
1
1
1
1
1
1
1
1
1
1
1
1
1
1
1
1
1
1
1
1
1
1
1
1
1
1
1
1
1
1
1
1
1
1
1
1
1
1
1

SCALARS radius float 1
LOOKUP_TABLE default
0.0005
0.0005
0.0005
0.0005
0.0005
0.0005
0.0005
0.0005
0.0005
0.0005
0.0005
0.0005
0.0005
0.0005
0.0005
0.0005
0.0005
0.0005
0.0005
0.0005
0.0005
0.0005
0.0005
0.0005
0.0005
0.0005
0.0005
0.0005
0.0005
0.0005
0.0005
0.0005
0.0005
0.0005
0.0005
0.0005
0.0005
0.0005
0.0005
0.0005
0.0005
0.0005
0.0005
0.0005
0.0005
0.0005
0.0005
0.0005
0.0005
0.0005
0.0005
0.0005
0.0005
0.0005
0.0005
0.0005
0.0005
0.0005
0.0005
0.0005
0.0005
0.0005
0.0005
0.0005
0.0005
0.0005
0.0005
0.0005
0.0005
0.0005
0.0005
0.0005
0.0005
0.0005
0.0005
0.0005
0.0005
0.0005
0.0005
0.0005
0.0005
0.0005
0.0005
0.0005
0.0005
0.0005
0.0005
0.0005
0.0005
0.0005
0.0005
0.0005
0.0005
0.0005
0.0005
0.0005
0.0005
0.0005
0.0005
0.0005
0.0005
0.0005
0.0005
0.0005
0.0005
0.0005
0.0005
0.0005
0.0005
0.0005
0.0005
0.0005
0.0005
0.0005
0.0005
0.0005
0.0005
0.0005
0.0005
0.0005
0.0005
0.0005
0.0005
0.0005
0.0005
0.0005
0.0005
0.0005
0.0005
0.0005
0.0005
0.0005
0.0005
0.0005
0.0005
0.0005
0.0005
0.0005
0.0005
0.0005
0.0005
0.0005
0.0005
0.0005
0.0005
0.0005
0.0005
0.0005
0.0005
0.0005
0.0005
0.0005
0.0005
0.0005

SCALARS mass float 1
LOOKUP_TABLE default
5.23599e-07
5.23599e-07
5.23599e-07
5.23599e-07
5.23599e-07
5.23599e-07
5.23599e-07
5.23599e-07
5.23599e-07
5.23599e-07
5.23599e-07
5.23599e-07
5.23599e-07
5.23599e-07
5.23599e-07
5.23599e-07
5.23599e-07
5.23599e-07
5.23599e-07
5.23599e-07
5.23599e-07
5.23599e-07
5.23599e-07
5.23599e-07
5.23599e-07
5.23599e-07
5.23599e-07
5.23599e-07
5.23599e-07
5.23599e-07
5.23599e-07
5.23599e-07
5.23599e-07
5.23599e-07
5.23599e-07
5.23599e-07
5.23599e-07
5.23599e-07
5.23599e-07
5.23599e-07
5.23599e-07
5.23599e-07
5.23599e-07
5.23599e-07
5.23599e-07
5.23599e-07
5.23599e-07
5.23599e-07
5.23599e-07
5.23599e-07
5.23599e-07
5.23599e-07
5.23599e-07
5.23599e-07
5.23599e-07
5.23599e-07
5.23599e-07
5.23599e-07
5.23599e-07
5.23599e-07
5.23599e-07
5.23599e-07
5.23599e-07
5.23599e-07
5.23599e-07
5.23599e-07
5.23599e-07
5.23599e-07
5.23599e-07
5.23599e-07
5.23599e-07
5.23599e-07
5.23599e-07
5.23599e-07
5.23599e-07
5.23599e-07
5.23599e-07
5.23599e-07
5.23599e-07
5.23599e-07
5.23599e-07
5.23599e-07
5.23599e-07
5.23599e-07
5.23599e-07
5.23599e-07
5.23599e-07
5.23599e-07
5.23599e-07
5.23599e-07
5.23599e-07
5.23599e-07
5.23599e-07
5.23599e-07
5.23599e-07
5.23599e-07
5.23599e-07
5.23599e-07
5.23599e-07
5.23599e-07
5.23599e-07
5.23599e-07
5.23599e-07
5.23599e-07
5.23599e-07
5.23599e-07
5.23599e-07
5.23599e-07
5.23599e-07
5.23599e-07
5.23599e-07
5.23599e-07
5.23599e-07
5.23599e-07
5.23599e-07
5.23599e-07
5.23599e-07
5.23599e-07
5.23599e-07
5.23599e-07
5.23599e-07
5.23599e-07
5.23599e-07
5.23599e-07
5.23599e-07
5.23599e-07
5.23599e-07
5.23599e-07
5.23599e-07
5.23599e-07
5.23599e-07
5.23599e-07
5.23599e-07
5.23599e-07
5.23599e-07
5.23599e-07
5.23599e-07
5.23599e-07
5.23599e-07
5.23599e-07
5.23599e-07
5.23599e-07
5.23599e-07
5.23599e-07
5.23599e-07
5.23599e-07
5.23599e-07
5.23599e-07
5.23599e-07
5.23599e-07
5.23599e-07
5.23599e-07
5.23599e-07
5.23599e-07

VECTORS velocity float
0.0103402 -0.00475075 -0.0189572
0.00115486 -0.0277289 -0.0377147
-0.00100805 0.0116395 -0.00365052
0.00075134 0.0486148 0.0140997
-0.00708161 0.00311719 0.00400816
0.00152977 -0.013101 -0.0454818
0.00109473 -0.0438238 -0.0197227
0.00133787 -0.03609 -0.0278934
0.00298388 -0.0334894 0.0286618
-0.00133834 0.0282812 0.0348718
0.00323025 0.0051789 -0.00297065
0.0294973 -0.0930467 -0.0313416
-0.0495301 -0.0472626 -0.163826
0.0061535 0.0048369 -0.00115337
0.0102792 0.0126757 -0.00112633
-0.0317949 0.0011123 -0.0335378
0.00186903 0.000257207 0.00111946
-0.181163 0.0303803 0.0629846
0.000825938 0.00283668 -0.000718512
0.00110214 -0.0163839 0.0468908
0.0256917 -0.121559 -0.0153285
0.0483262 0.164134 0.0378288
0.0129639 -0.00269096 0.00573465
0.00478131 0.0316391 -0.000546685
0.0127552 0.0039111 -0.00727192
-0.00179818 -0.00689839 -0.0299555
0.0102925 0.0189529 0.00487808
0.000598867 -0.000597579 -0.00103739
0.095532 0.00373499 0.234842
-0.00140674 0.00625537 0.00658449
0.00452145 -0.0184533 -0.0241057
-0.0263193 0.0243934 -0.0231345
-0.0326413 0.0310864 -0.0278751
0.0244524 -0.019317 0.00494685
0.00256781 0.00262337 0.000677826
0.0232539 -0.0370679 -0.011989
0.0254406 0.0412838 0.0192453
-0.0258978 -0.0143167 -0.0152056
-7.29381e-15 3.48391e-14 -1.72293e-13
0.00122334 -0.00193984 -0.00112618
0.00296463 -0.0214217 -0.0347632
0.00184825 0.000425363 0.0417261
-0.145036 0.205688 -0.0891389
-0.000140845 0.00436153 0.00507495
-1.1428e-14 -1.84062e-15 1.86309e-13
0.0306604 0.0617021 0.0340597
0.000363894 0.00338679 0.0037092
-0.0276755 -0.0071474 0.0198615
0.00048531 -0.0281791 0.0417949
0.00114188 0.00588264 0.00308608
0.00114516 -0.0498716 -0.0160208
-0.00744505 0.024988 -0.0301764
0.0194843 0.00866451 -0.0532389
0.00873098 -0.000327286 -0.00209448
0.00833432 0.00699184 -0.00777531
0.0115562 0.00216193 -0.00412464
0.00166645 0.00183017 0.000123289
0.000548666 0.0832415 0.0114589
0.0115117 0.0248642 -0.0242442
-0.0134781 0.00135756 0.00805444
-0.0200486 -0.00727655 -0.0417464
0.00882581 0.0149784 0.0238173
0.00375651 0.000409115 -0.000306015
0.00266604 -0.00228894 -0.00368225
0.00225384 -0.000567324 0.00213863
-0.0824229 0.297969 0.0868657
-0.229785 0.729484 0.730797
0.000225487 -0.00879237 -0.006888
0.0425347 0.034251 0.0173342
-4.39596e-14 9.36739e-14 3.3937e-13
0.000224509 2.65139e-05 -0.015963
-1.17946e-18 1.85932e-18 1.37476e-18
0.00318713 0.00269609 -0.0029515
0.00749084 0.023688 5.27769e-05
0.0025582 0.000593041 0.00884661
0.000539641 0.0486688 -0.0181483
0.00176587 0.00726597 0.0442489
0.00615871 -0.00499114 -0.00577442
0.000930399 0.000172206 0.000444519
0.0270288 0.0264502 0.0290183
-0.0138693 -0.100738 0.0269234
0.250918 -0.330122 0.111439
-0.0125334 0.00010897 0.00755439
0.00985834 -0.158906 -0.19518
-0.030663 -0.0159661 -0.0126697
-7.79089e-16 3.68404e-15 -1.82466e-14
0.00971224 0.0317473 0.0216713
-0.111691 0.311883 0.216537
0.000730422 0.00105457 -0.0515264
0.00201785 -0.0303078 0.0335028
-0.124047 0.0443605 0.098195
0.00127271 0.00897602 0.00390886
0.00741811 0.00335164 -0.00221775
0.0005292 0.0157099 0.04914
0.0154473 0.00865995 -0.0024191
0.00392342 -0.0480448 0.000222653
-0.0127263 -0.0335156 -0.012022
0.00955455 -0.0169131 0.00421575
0.00199942 0.00280761 0.00077864
0.00651037 -0.00420207 0.0101867
0.00938705 0.00969362 -0.00742887
0.00586548 0.00458173 -0.0014452
-0.0985759 -0.0275383 -0.0291984
0.0082114 0.0233162 -0.0272438
0.000288572 0.0286997 -0.0424582
-0.00171928 0.0275316 0.0438762
-0.0472084 0.0327685 -0.0605273
0.00645432 0.0453365 0.00313153
0.00143134 -0.000736112 0.00843724
-0.000165266 -0.00365704 -0.0320863
-0.000521251 -0.00072124 -0.000999977
0.0014511 0.0275592 -0.037612
-0.00486927 0.0280779 0.0336012
-0.003107 0.00534904 0.00690964
-0.00780168 0.00794647 -0.0138119
2.13289e-18 -3.45828e-19 3.26688e-18
0.000656816 0.00213352 0.00790946
0.00522777 0.017184 0.0218108
-0.0868648 0.0891955 0.0133047
0.000956947 0.000233745 -0.00365065
-0.0672838 -0.00523426 -0.0588158
0.00149768 -0.0153007 0.017648
-0.000303524 0.0027025 0.00882906
-0.00045937 0.0339642 -0.0313533
0.00856855 0.00284078 -0.0126998
0.166845 0.0818844 0.0368769
0.00279546 0.0145534 -0.0419758
0.0172361 0.00534649 0.0184724
-0.0081937 0.00258403 0.0115591
0.00352517 -0.0369367 -0.0278918
0.00175026 0.00915236 0.00101758
0.0242395 -0.000956198 -0.0261273
0.000166834 -0.0200141 0.0496093
0.00355809 -0.00370623 -0.0418501
-0.00060945 -0.00128003 -0.00125178
0.0155633 0.0223151 0.00297374
0.0041245 -0.0359535 0.0238568
0.0381026 -0.0360614 0.038245
-0.0195223 -0.0143838 0.0111927
0.00150166 0.00671051 0.00419151
0.001542 0.00453575 -0.00645352
-0.474429 0.0508514 -1.85514
-0.0706881 -0.0099464 -0.0483696
1.03895e-14 -4.97162e-14 2.45848e-13
1.25881e-06 0.0493049 0.00511558
0.00422728 0.00114373 0.00537227
-0.0413608 -0.0356448 -0.0706556
0.044187 0.0544168 -0.011782
-0.00174337 -0.00166321 0.0287945
0.0161648 0.00971504 -0.0135439
0.0115415 0.00335729 -0.00868243
-0.0743657 -0.086564 0.0452207
-0.0175997 -0.0130444 -0.020683
0.0119688 -0.0286728 -0.0371887

VECTORS force float
0.0 0.0 -5.1365e-06
-2.89923e-06 1.66885e-06 2.10113e-06
7.41269e-07 -6.78318e-07 -8.06717e-07
-3.13569e-08 1.69641e-07 -1.72839e-07
-5.46585e-06 -4.63047e-06 5.36621e-06
4.91375e-07 3.66052e-06 1.29697e-05
-1.79877e-07 -5.56547e-07 -2.17414e-07
-3.38185e-07 -2.40426e-06 -1.18303e-06
-3.03689e-05 -5.20328e-05 2.65881e-05
2.35741e-06 -1.4166e-05 2.50741e-05
-8.60166e-07 1.86966e-06 3.16122e-06
0.0 0.0 -5.1365e-06
0.00108928 0.00318826 0.0107231
9.22504e-06 8.6458e-06 1.19981e-05
8.31212e-05 -3.84504e-06 9.61309e-06
-6.35624e-05 5.77673e-05 -2.53174e-05
-9.63012e-05 -1.64933e-05 3.32756e-05
0.0 0.0 -5.1365e-06
-4.22318e-05 -0.00017991 3.10841e-05
7.63845e-06 -4.42977e-05 3.22684e-05
0.0 0.0 -5.1365e-06
0.0122232 -0.0193723 0.00547152
0.0 0.0 -5.1365e-06
-2.06686e-07 1.8278e-06 -2.26615e-07
9.3675e-07 -2.57875e-05 0.00011588
0.0 0.0 -5.1365e-06
0.0 0.0 -5.1365e-06
3.0735e-06 2.40716e-05 2.29104e-05
0.0 0.0 -5.1365e-06
6.06745e-05 -8.04991e-05 -0.000259058
0.0 0.0 -5.1365e-06
0.0 0.0 -5.1365e-06
0.0 0.0 -5.1365e-06
0.0 0.0 -5.1365e-06
1.09414e-05 2.26309e-05 3.41829e-05
0.0 0.0 -5.1365e-06
0.0 0.0 -5.1365e-06
0.0 0.0 -5.1365e-06
-7.94093e-21 -8.47033e-22 0.0
7.08515e-06 -1.42846e-05 3.35444e-05
9.27796e-05 -0.000123443 0.000207235
-2.0197e-06 1.07707e-06 1.30126e-05
-0.0111996 -0.00310349 0.033789
0.0 0.0 -5.1365e-06
0.0 -1.52201e-22 0.0
0.0 0.0 -5.1365e-06
1.39872e-05 -0.000142348 3.7383e-06
0.0 0.0 -5.1365e-06
-6.97097e-05 -0.000404465 0.000839386
0.0 0.0 -5.1365e-06
0.0 0.0 -5.1365e-06
0.0 0.0 -5.1365e-06
0.0 0.0 -5.1365e-06
0.0 0.0 -5.1365e-06
1.81399e-05 -9.37067e-06 -8.42271e-05
3.07052e-06 -6.4815e-06 1.75739e-06
1.07576e-05 7.78872e-07 -1.73861e-05
0.0 0.0 -5.1365e-06
0.0 0.0 -5.1365e-06
0.0 0.0 -5.1365e-06
0.0 0.0 -5.1365e-06
0.0 0.0 -5.1365e-06
-5.02522e-05 5.2107e-05 -5.43574e-05
0.0 0.0 -5.1365e-06
-7.8491e-07 2.84892e-05 4.88855e-05
0.00189777 -0.00945093 0.00497154
0.0241002 -0.229613 0.164913
0.000301542 1.52303e-05 8.92039e-05
-0.00026799 -0.000103373 9.17826e-05
0.0 0.0 -8.47033e-22
4.82692e-05 -3.19214e-05 0.000137958
-1.37643e-21 8.47033e-22 -1.69407e-21
-0.00010267 3.79975e-06 9.96582e-06
0.0 0.0 -5.1365e-06
4.71208e-06 -0.000199128 -0.00010894
-1.06136e-08 1.72197e-08 -2.49142e-07
7.43885e-06 7.36738e-07 -2.889e-07
-0.000153687 -0.000196691 6.52487e-06
-8.96585e-08 -1.45873e-05 7.32506e-06
0.0 0.0 -5.1365e-06
0.0 0.0 -5.1365e-06
0.0 0.0 -5.1365e-06
-1.40642e-05 -1.87867e-06 -2.79023e-07
0.0 0.0 -5.1365e-06
0.0 0.0 -5.1365e-06
4.6825e-20 4.5528e-20 7.6233e-21
0.0 0.0 -5.1365e-06
0.0 0.0 -5.1365e-06
-2.75129e-09 -2.16673e-07 -1.00453e-07
-2.89184e-07 -1.07003e-05 1.21316e-05
0.0 0.0 -5.1365e-06
0.0 0.0 -5.1365e-06
0.000124926 -7.26149e-05 -8.38996e-05
-3.16914e-09 2.49888e-07 7.23284e-09
0.0 0.0 -5.1365e-06
1.85242e-05 -5.16978e-06 -3.2271e-07
0.0 0.0 -5.1365e-06
0.0 0.0 -5.1365e-06
4.50194e-05 3.28679e-05 -1.32199e-05
4.05902e-05 1.912e-06 2.63028e-05
-1.54514e-07 1.31051e-06 -4.74553e-06
-6.61603e-07 4.64348e-05 -3.71843e-05
0.0 0.0 -5.1365e-06
0.0 0.0 -5.1365e-06
-4.09922e-09 -1.20039e-07 -1.95686e-07
-2.65281e-07 1.23731e-06 2.02481e-06
0.0 0.0 -5.1365e-06
0.0 0.0 -5.1365e-06
-4.32706e-06 2.52094e-05 -0.000230066
-1.47536e-05 1.55502e-05 0.000136014
-3.79477e-06 8.49314e-06 5.78238e-06
0.0 0.0 -5.1365e-06
0.00026799 0.000103373 -0.000102056
-2.97986e-06 5.09807e-06 3.617e-06
0.0 0.0 -5.1365e-06
-1.05879e-21 -5.29396e-22 -3.38813e-21
-0.000111132 1.89453e-05 -0.000101531
0.0 0.0 -5.1365e-06
0.0 0.0 -5.1365e-06
0.0 0.0 -5.1365e-06
0.0 0.0 -5.1365e-06
0.0 0.0 -5.1365e-06
0.0 0.0 -5.1365e-06
5.0592e-08 -5.52309e-07 4.02133e-07
-5.09344e-06 4.37625e-05 2.60611e-05
0.0 0.0 -5.1365e-06
9.749e-08 -1.33692e-07 -1.19341e-06
-8.31601e-06 2.90642e-06 6.51697e-06
-1.11797e-05 5.06366e-06 6.52041e-06
-0.00025312 0.000369994 9.06153e-05
-7.20515e-06 -0.00030723 4.7765e-06
0.0 0.0 -5.1365e-06
-3.12309e-07 2.03984e-09 1.199e-06
0.0 0.0 -5.1365e-06
1.58825e-05 -5.02328e-06 9.0945e-06
0.0 0.0 -5.1365e-06
-4.64649e-07 -9.87655e-07 8.36426e-07
0.0 0.0 -5.1365e-06
2.18047e-06 1.74192e-05 -2.24483e-06
0.0 0.0 -5.1365e-06
4.02372e-05 -1.74899e-05 1.38895e-05
0.000411777 0.320421 0.436921
0.0 0.0 -5.1365e-06
-8.78267e-20 -1.37643e-20 8.47033e-22
-9.74061e-09 -1.57412e-07 5.77814e-07
1.18523e-05 2.52665e-06 1.57597e-05
0.0 0.0 -5.1365e-06
0.0 0.0 -5.1365e-06
0.0 0.0 -5.1365e-06
-0.000144856 0.00269423 0.000813522
-0.00010713 -5.79482e-06 0.000152105
0.0 0.0 -5.1365e-06
0.0 0.0 -5.1365e-06
0.0 0.0 -5.1365e-06
