# vtk DataFile Version 3.0
LIGGGHTS particles timestep 5000000
ASCII
DATASET POLYDATA
POINTS 137 float
0.0301751 0.0199402 0.00583053
0.0329919 0.0231902 0.0102756
0.0311969 0.0190595 0.00570718
0.0360299 0.0148604 0.012488
0.0332453 0.0233493 0.0113542
0.0323897 0.0216168 0.00800391
0.0326301 0.0225639 0.00895132
0.023801 0.0222796 0.0146355
0.0232872 0.00229723 0.0435187
0.0302591 0.0185329 0.0057867
0.0219679 0.0232521 0.0151326
0.0286734 0.0194784 0.0157951
0.0281872 0.0213416 0.01515
0.0199334 0.0241185 0.0129551
0.0260695 0.0205352 0.00745501
0.0184812 0.0139593 0.0136156
0.0233155 0.0148415 0.0150429
0.0177611 0.0225263 0.0150041
0.0234778 0.0162299 0.0151381
0.0178927 0.0150157 0.0133979
0.0279755 0.0221794 0.014368
0.0356294 0.0155894 0.0139977
0.0264887 0.0219444 0.0083599
0.024631 0.0151049 0.00981175
0.0494639 0.0184482 0.00609482
0.0219115 0.0239559 0.0139518
0.0193791 0.0174013 0.0075031
0.0222216 0.0215529 0.0152851
0.0240735 0.0176591 0.015722
0.0207795 0.0243223 0.0138447
0.0236206 0.0156511 0.0143354
0.0168359 0.02296 0.0136198
0.0189878 0.0160015 0.00845729
0.0217602 0.0230722 0.0141576
0.0397699 0.0198563 0.00585678
0.0241123 0.0147925 0.0122098
0.0182305 0.0200392 0.0228276
0.030575 0.0150011 0.0101017
0.0290445 0.0176599 0.0155609
0.0237925 0.0192214 0.00595071
0.0225192 0.0225705 0.0146182
0.0213124 0.0223355 0.00879211
0.0233297 0.0231434 0.014855
0.0199553 0.0237582 0.0138881
0.0169551 0.023832 0.0131479
0.0203694 0.0194494 0.00720608
0.0188789 0.0150962 0.0135409
0.024711 0.0201263 0.0168425
0.0202892 0.0144559 0.0140194
0.0212116 0.0225979 0.015874
0.0294074 0.0163993 0.0148312
0.0189979 0.0230234 0.0149509
0.0208007 0.0213705 0.016229
0.0230257 0.0180485 0.0158318
0.0189216 0.0240991 0.0129189
0.0209822 0.0235625 0.0145713
0.0329708 0.0200808 0.00595653
0.0213575 0.0239152 0.0131294
0.0239395 0.0202041 0.00583859
0.020948 0.0231153 0.0100924
0.0234007 0.0209543 0.015525
0.0225637 0.0195823 0.0058395
0.0269012 0.0225786 0.00904827
0.033703 0.0194141 0.00581744
0.0268479 0.0230353 0.0098024
0.0196879 0.014868 0.0129996
0.0215198 0.0176123 0.00835309
0.0350215 0.0176184 0.0154603
0.037297 0.0171361 0.00765542
0.0217055 0.0141057 0.0142063
0.022457 0.02303 0.0137046
0.0164584 0.0142806 0.0137062
0.0226263 0.0238198 0.0146376
0.0157419 0.0230611 0.013416
0.0162759 0.0237213 0.0139439
0.0222099 0.0151178 0.0150309
0.0389148 0.0189256 0.00570476
0.0240779 0.022577 0.0155508
0.0334862 0.0232414 0.0126458
0.0314059 0.0175345 0.00744201
0.0251035 0.0172932 0.0155896
0.0224727 0.0206099 0.0156644
0.0302796 0.0147617 0.0112127
0.0167244 0.0238073 0.0148354
0.0321622 0.0208881 0.00762612
0.0215916 0.0230908 0.013213
0.0196752 0.0186169 0.00720806
0.0243618 0.020654 0.015656
0.0205723 0.0224106 0.00884757
0.0212919 0.0234144 0.0117111
0.0296172 0.0155242 0.0139898
0.0234623 0.0200078 0.0158601
0.0225906 0.0145632 0.0142911
0.0343564 0.0207155 0.0153828
0.0377321 0.0188597 0.00726579
0.0230381 0.0226365 0.0156739
0.0177228 0.0227134 0.0140222
0.0243277 0.016728 0.0153091
0.0173477 0.023699 0.0140579
0.0232427 0.0227547 0.0139375
0.0212825 0.014871 0.0146912
0.0232493 0.0171263 0.0155177
0.0203971 0.0217138 0.00815446
0.0182092 0.0146089 0.0119807
0.0327934 0.019013 0.00570964
0.018219 0.0234509 0.014484
0.0181172 0.0243249 0.0139518
0.0229155 0.0190368 0.015952
0.0241492 0.0215316 0.0152005
0.0180827 0.0217619 0.0155932
0.0231104 0.0217961 0.0150669
0.0346381 0.0196375 0.0157712
0.0211119 0.0141563 0.0134033
0.0341879 0.0215309 0.0147942
0.0222437 0.0232404 0.0128153
0.0246344 0.0184576 0.0162172
0.0272028 0.0233836 0.0111896
0.0189471 0.0141792 0.0126728
0.0253043 0.0211698 0.016311
0.0309182 0.0157597 0.00878048
0.0247228 0.0218977 0.0159325
0.0191695 0.0156204 0.0143479
0.0317089 0.0188662 0.00720586
0.0179246 0.0240345 0.013016
0.0211086 0.0220278 0.0182076
0.0189395 0.0237521 0.0138579
0.0226965 0.020436 0.0166387
0.0201621 0.0139982 0.0131338
0.0381686 0.0197868 0.00591052
0.0174332 0.0140897 0.013438
0.0275625 0.0231324 0.0129589
0.0200201 0.0203521 0.00742417
0.0177326 0.0154829 0.0142673
0.0171764 0.0228209 0.0157607
0.0222771 0.0231319 0.0166804
0.019447 0.0146259 0.0119312
0.0183705 0.0158272 0.0149562

VERTICES 137 274
1 0
1 1
1 2
1 3
1 4
1 5
1 6
1 7
1 8
1 9
1 10
1 11
1 12
1 13
1 14
1 15
1 16
1 17
1 18
1 19
1 20
1 21
1 22
1 23
1 24
1 25
1 26
1 27
1 28
1 29
1 30
1 31
1 32
1 33
1 34
1 35
1 36
1 37
1 38
1 39
1 40
1 41
1 42
1 43
1 44
1 45
1 46
1 47
1 48
1 49
1 50
1 51
1 52
1 53
1 54
1 55
1 56
1 57
1 58
1 59
1 60
1 61
1 62
1 63
1 64
1 65
1 66
1 67
1 68
1 69
1 70
1 71
1 72
1 73
1 74
1 75
1 76
1 77
1 78
1 79
1 80
1 81
1 82
1 83
1 84
1 85
1 86
1 87
1 88
1 89
1 90
1 91
1 92
1 93
1 94
1 95
1 96
1 97
1 98
1 99
1 100
1 101
1 102
1 103
1 104
1 105
1 106
1 107
1 108
1 109
1 110
1 111
1 112
1 113
1 114
1 115
1 116
1 117
1 118
1 119
1 120
1 121
1 122
1 123
1 124
1 125
1 126
1 127
1 128
1 129
1 130
1 131
1 132
1 133
1 134
1 135
1 136

POINT_DATA 137
SCALARS id int 1
LOOKUP_TABLE default
1
2
4
5
7
8
10
11
12
13
14
15
16
19
20
21
22
23
24
25
26
27
29
30
31
34
35
36
37
40
41
42
43
44
45
46
48
49
50
52
53
54
55
58
59
60
61
62
63
64
65
66
68
71
72
74
75
76
78
79
81
82
83
84
85
86
87
89
90
91
92
95
97
98
102
103
105
107
108
109
110
112
113
114
115
118
120
122
123
124
125
126
127
128
129
131
133
134
135
136
138
139
140
141
142
143
144
147
148
149
150
151
153
154
155
156
157
158
160
161
163
164
167
169
170
171
173
174
175
178
181
182
183
185
188
189
190

SCALARS type int 1
LOOKUP_TABLE default
1
1
1
1
1
1
1
1
1
1
1
1
1
1
1
1
1
1
1
1
1
1
1
1
1
1
1
1
1
1
1
1
1
1
1
1
1
1
1
1
1
1
1
1
1
1
1
1
1
1
1
1
1
1
1
1
1
1
1
1
1
1
1
1
1
1
1
1
1
1
1
1
1
1
1
1
1
1
1
1
1
1
1
1
1
1
1
1
1
1
1
1
1
1
1
1
1
1
1
1
1
1
1
1
1
1
1
1
1
1
1
1
1
1
1
1
1
1
1
1
1
1
1
1
1
1
1
1
1
1
1
1
1
1
1
1
1

SCALARS radius float 1
LOOKUP_TABLE default
0.0005
0.0005
0.0005
0.0005
0.0005
0.0005
0.0005
0.0005
0.0005
0.0005
0.0005
0.0005
0.0005
0.0005
0.0005
0.0005
0.0005
0.0005
0.0005
0.0005
0.0005
0.0005
0.0005
0.0005
0.0005
0.0005
0.0005
0.0005
0.0005
0.0005
0.0005
0.0005
0.0005
0.0005
0.0005
0.0005
0.0005
0.0005
0.0005
0.0005
0.0005
0.0005
0.0005
0.0005
0.0005
0.0005
0.0005
0.0005
0.0005
0.0005
0.0005
0.0005
0.0005
0.0005
0.0005
0.0005
0.0005
0.0005
0.0005
0.0005
0.0005
0.0005
0.0005
0.0005
0.0005
0.0005
0.0005
0.0005
0.0005
0.0005
0.0005
0.0005
0.0005
0.0005
0.0005
0.0005
0.0005
0.0005
0.0005
0.0005
0.0005
0.0005
0.0005
0.0005
0.0005
0.0005
0.0005
0.0005
0.0005
0.0005
0.0005
0.0005
0.0005
0.0005
0.0005
0.0005
0.0005
0.0005
0.0005
0.0005
0.0005
0.0005
0.0005
0.0005
0.0005
0.0005
0.0005
0.0005
0.0005
0.0005
0.0005
0.0005
0.0005
0.0005
0.0005
0.0005
0.0005
0.0005
0.0005
0.0005
0.0005
0.0005
0.0005
0.0005
0.0005
0.0005
0.0005
0.0005
0.0005
0.0005
0.0005
0.0005
0.0005
0.0005
0.0005
0.0005
0.0005

SCALARS mass float 1
LOOKUP_TABLE default
5.23599e-07
5.23599e-07
5.23599e-07
5.23599e-07
5.23599e-07
5.23599e-07
5.23599e-07
5.23599e-07
5.23599e-07
5.23599e-07
5.23599e-07
5.23599e-07
5.23599e-07
5.23599e-07
5.23599e-07
5.23599e-07
5.23599e-07
5.23599e-07
5.23599e-07
5.23599e-07
5.23599e-07
5.23599e-07
5.23599e-07
5.23599e-07
5.23599e-07
5.23599e-07
5.23599e-07
5.23599e-07
5.23599e-07
5.23599e-07
5.23599e-07
5.23599e-07
5.23599e-07
5.23599e-07
5.23599e-07
5.23599e-07
5.23599e-07
5.23599e-07
5.23599e-07
5.23599e-07
5.23599e-07
5.23599e-07
5.23599e-07
5.23599e-07
5.23599e-07
5.23599e-07
5.23599e-07
5.23599e-07
5.23599e-07
5.23599e-07
5.23599e-07
5.23599e-07
5.23599e-07
5.23599e-07
5.23599e-07
5.23599e-07
5.23599e-07
5.23599e-07
5.23599e-07
5.23599e-07
5.23599e-07
5.23599e-07
5.23599e-07
5.23599e-07
5.23599e-07
5.23599e-07
5.23599e-07
5.23599e-07
5.23599e-07
5.23599e-07
5.23599e-07
5.23599e-07
5.23599e-07
5.23599e-07
5.23599e-07
5.23599e-07
5.23599e-07
5.23599e-07
5.23599e-07
5.23599e-07
5.23599e-07
5.23599e-07
5.23599e-07
5.23599e-07
5.23599e-07
5.23599e-07
5.23599e-07
5.23599e-07
5.23599e-07
5.23599e-07
5.23599e-07
5.23599e-07
5.23599e-07
5.23599e-07
5.23599e-07
5.23599e-07
5.23599e-07
5.23599e-07
5.23599e-07
5.23599e-07
5.23599e-07
5.23599e-07
5.23599e-07
5.23599e-07
5.23599e-07
5.23599e-07
5.23599e-07
5.23599e-07
5.23599e-07
5.23599e-07
5.23599e-07
5.23599e-07
5.23599e-07
5.23599e-07
5.23599e-07
5.23599e-07
5.23599e-07
5.23599e-07
5.23599e-07
5.23599e-07
5.23599e-07
5.23599e-07
5.23599e-07
5.23599e-07
5.23599e-07
5.23599e-07
5.23599e-07
5.23599e-07
5.23599e-07
5.23599e-07
5.23599e-07
5.23599e-07
5.23599e-07
5.23599e-07
5.23599e-07
5.23599e-07
5.23599e-07

VECTORS velocity float
1.82271e-14 1.06221e-13 -3.37788e-13
0.00303978 -0.0147647 -0.0386619
-8.71337e-15 1.00672e-16 -1.02212e-13
0.00240347 0.00339268 0.0309145
0.001291 0.00191157 -0.0331115
0.00363305 -0.0228879 -0.0158281
0.00211812 -0.0256815 -0.0369265
0.00226153 -0.00201968 -0.00343194
-3.60919e-25 -2.02746e-25 1.99711e-12
6.60143e-15 -6.23732e-17 7.74361e-14
-0.0251367 -0.00392452 -0.0555822
0.00481836 0.0375929 -0.0064789
0.0042265 0.0298748 -0.0174538
0.000292418 -0.00165185 -0.00824113
-0.000157215 -0.0478402 -0.0179943
-0.0741269 -0.0150208 -0.0885767
-0.00978602 -0.0196721 0.0359338
0.0154007 -0.0193164 -0.0144861
0.0102121 0.0406038 0.0620419
0.00685528 0.00814841 0.0227566
0.000406461 0.0345376 -0.037957
-8.36539e-06 0.0286329 0.0446835
0.000841382 -0.0379782 -0.0317741
0.00140242 -0.0163558 0.0333159
4.80942e-12 1.72929e-11 -9.17938e-13
0.0044232 0.00606058 -0.00324164
0.00111792 -0.0456963 0.0193736
-0.00325442 0.0468894 -0.0204998
0.00161269 0.0462762 0.0153284
-0.000307968 -0.0208591 -0.013799
0.0234031 0.0271475 0.0691709
-0.00577967 -0.00170697 0.00321772
0.000395388 -0.0351935 0.0360219
0.00164668 0.0157968 -0.0303309
2.90732e-15 -1.40976e-14 6.97908e-14
0.000692173 0.00877439 0.0489924
-0.079407 -0.090377 0.0512373
0.000285847 -0.0177787 0.0485219
0.000593424 0.0513769 0.0203374
2.19028e-15 4.49273e-15 1.4725e-14
-0.0398308 0.00233685 -0.0165699
0.00237098 -0.0311797 -0.0329051
0.0048568 -0.00739981 -0.00784825
-0.00290552 -0.00317295 0.0126133
-0.00217258 0.00991198 -0.00379397
-0.000614737 -0.0449555 -0.00685704
0.00861582 0.00553281 0.0106422
-0.00686131 0.00992464 -0.0381235
-0.00446496 -0.00143346 0.00638777
-0.0913691 0.0244765 -0.00989269
0.00148803 0.03703 0.0337033
0.0217094 0.0219774 -0.0243288
-0.000122635 0.0547177 -0.0270978
-0.000702238 0.053095 0.0114631
-0.00108521 0.0024518 -0.00230651
-0.0214944 -0.0461368 0.0318076
5.92564e-18 6.64353e-18 7.91968e-19
-0.000209288 0.00337912 -0.00399028
6.31434e-16 -6.14545e-15 1.5936e-14
0.00290948 -0.0151189 -0.0386912
0.0100277 0.0120772 -0.00194437
-4.39591e-14 9.36746e-14 3.3937e-13
0.0534472 -5.66647 4.19965
-1.01539e-17 -5.44593e-18 3.60711e-19
-0.128935 -0.991516 1.76382
0.00187757 0.00151995 0.00221848
4.8346e-05 -0.00748383 -0.000192281
0.000394556 0.0482493 0.0175463
0.000562003 -0.0461884 0.0230077
-0.000780919 -0.00141927 0.000917366
0.00223796 0.00793448 -0.0271106
0.00217335 -0.000520381 0.000434036
0.00853555 -0.00537282 -0.00913793
0.0103568 0.0018344 -0.00842894
-0.00452949 0.0013953 0.00330729
-0.00832771 -0.00225258 0.00226229
-8.12683e-16 3.69106e-15 -1.82438e-14
-0.0077598 0.00532445 -0.00398677
0.00208364 0.0112236 -0.0398157
0.000567605 -0.0490745 0.016534
0.0260111 0.0468645 0.0198849
0.00595389 0.0393396 -0.0130433
0.00589229 -0.00357775 -0.00426767
-0.00659084 0.00517603 0.00738902
0.00595591 -0.0272403 -0.0124607
0.00541102 0.0113296 -0.0346511
0.000743974 -0.0494234 0.0056423
0.00686786 0.0262439 -0.014647
-0.000122319 -0.0294553 -0.0383896
0.00178438 0.00498361 -0.0528865
0.000578951 0.0251629 0.0395343
-0.00206003 -0.000245268 0.00162867
0.000144764 -0.00384806 0.00678772
0.00109014 0.0457183 -0.0206338
-0.00184153 -0.049792 0.000379923
-0.00579804 -0.00818786 -0.00754626
0.0139746 0.00475469 -0.0107742
0.0150175 0.0455364 0.0433145
-0.0130878 -0.0126521 0.00340287
-0.00493501 0.00481157 -0.00818397
-0.00844392 0.00323164 -0.0124752
-0.00148288 0.0524825 0.0201148
3.29305e-05 -0.0409335 -0.0330639
-0.000939564 -0.015841 0.00578232
-2.31257e-17 1.05341e-17 -4.03117e-18
-0.0131218 0.00829773 0.0165638
0.00619287 -0.0616815 -0.0153566
6.0795e-05 0.0494166 -0.000226445
0.0174049 0.00120941 -0.0057061
-0.0279643 -0.079906 -0.0794666
-0.000256112 -0.00423827 -0.0280978
0.00358218 0.0270421 -0.00137278
3.75637e-05 -0.000843804 0.000567767
-0.00420887 0.0486543 -0.0369556
0.010039 -0.00177958 -0.0291866
0.00816075 0.000468166 -0.0575342
0.000243614 -0.00113878 -0.0535673
-0.00585694 -0.000117198 -0.00187053
-0.00627624 0.00538387 -0.00421306
0.000244036 -0.0356263 0.039786
-0.000513305 0.00166126 0.00906695
0.0156098 0.00235173 -0.00117983
0.000427739 -0.0547962 -0.00189153
-0.0417763 0.266419 0.15432
-0.0658001 0.00978215 0.15911
-0.0278719 -0.0108116 -0.00506267
-0.0440143 0.043279 -0.0336766
0.00020398 -8.58045e-05 -0.000208267
1.0405e-14 -4.97195e-14 2.45847e-13
0.0101516 -0.00507643 -0.00894431
0.00186185 0.0187728 -0.0399161
0.000301298 -0.0487 -0.016965
0.0175435 0.0161776 0.0204551
-0.0116345 -0.0214898 -0.0323585
-0.0362017 0.0122622 0.00200237
0.000745668 -0.00156181 0.000869132
0.0438824 0.0280465 -0.0113753

VECTORS force float
2.06464e-21 4.87044e-21 1.69407e-21
-3.43747e-06 2.94809e-06 4.75027e-06
-5.29396e-22 -4.69392e-20 0.0
-3.775e-05 5.32094e-05 9.90675e-05
-4.08669e-06 -4.16829e-07 -9.30707e-06
-0.000106517 -5.13836e-05 -5.11081e-05
-7.21778e-07 -2.19053e-06 -2.30856e-06
1.46895e-05 -3.22899e-05 -1.07999e-05
1.54476e-27 8.67765e-28 0.0
0.0 -4.77283e-22 0.0
0.0 0.0 -5.1365e-06
2.191e-05 -0.000148796 3.58183e-05
1.69157e-07 -4.07897e-07 7.45643e-08
9.57871e-06 2.93921e-05 -6.85391e-05
6.87764e-08 -2.42444e-07 1.85099e-07
0.0 0.0 -5.1365e-06
0.0 0.0 -5.1365e-06
0.0 0.0 -5.1365e-06
1.73169e-06 1.69169e-06 -1.13199e-06
1.75614e-07 -1.09418e-07 1.43581e-06
-2.09698e-08 -9.33081e-08 -2.11638e-07
-2.30875e-08 1.99608e-07 -8.36072e-08
-9.49339e-05 2.44966e-05 -0.000331722
-2.47426e-08 2.40154e-06 -7.07444e-06
-1.72114e-14 -6.15704e-14 4.31677e-15
1.53783e-06 -2.75426e-05 -9.44376e-06
-9.80864e-08 -1.25763e-07 2.85039e-07
8.27993e-06 2.02047e-05 -1.19427e-05
-4.5063e-07 -1.01961e-07 -2.54293e-06
1.58857e-05 1.51013e-05 7.18655e-06
5.65624e-06 6.46123e-06 1.18886e-05
1.86333e-05 8.10474e-07 2.54695e-05
-1.7276e-08 5.75521e-08 2.35171e-07
-8.38127e-06 -3.40015e-05 -1.20655e-05
2.70786e-20 -1.05032e-19 -2.20229e-20
-1.81379e-07 5.29169e-07 1.23055e-08
0.0 0.0 -5.1365e-06
-1.46876e-08 1.7262e-07 1.5437e-07
9.62192e-07 -9.16949e-06 -2.05024e-06
7.41154e-22 -6.35275e-22 0.0
0.0 0.0 -5.1365e-06
-3.26885e-07 -4.92547e-07 -3.6832e-07
8.52272e-06 -2.61805e-06 1.1027e-06
-1.57979e-05 -1.67999e-05 -1.99299e-05
3.08128e-05 4.60681e-05 2.06036e-05
-1.61894e-06 -4.15011e-06 2.73247e-07
6.99134e-07 1.57149e-06 -1.82328e-06
0.0 0.0 -5.1365e-06
0.0 0.0 -5.1365e-06
0.0 0.0 -5.1365e-06
-2.03229e-07 7.51675e-06 7.11541e-06
0.0 0.0 -5.1365e-06
-2.46158e-08 5.46332e-08 -4.24966e-07
-1.17628e-05 2.54595e-05 -9.44906e-06
5.38606e-06 1.79405e-06 2.63837e-05
0.0 0.0 -5.1365e-06
1.76818e-20 2.2764e-20 8.47033e-22
-1.37562e-05 1.73742e-05 -1.85885e-07
1.05879e-22 2.11758e-22 8.47033e-22
-1.11119e-05 -1.17543e-05 -2.73521e-05
-8.64914e-06 3.26938e-06 -2.24479e-05
0.0 -2.11758e-22 0.0
0.031834 0.123694 -0.345885
-7.41154e-20 -9.48148e-20 -2.37169e-20
0.0141294 0.0115761 0.0224751
1.79853e-06 1.65868e-08 -3.94034e-06
6.74587e-09 4.1604e-07 -4.68712e-07
-2.63325e-08 1.50431e-07 -1.81434e-07
-4.50271e-08 -3.10165e-08 2.43542e-07
-1.08991e-07 1.1603e-06 -2.32323e-06
-7.98191e-06 -2.48586e-05 -2.73251e-05
-1.26302e-06 -1.548e-05 1.72383e-05
-6.69346e-06 1.56164e-06 -1.08227e-05
-7.78971e-06 2.94472e-06 1.20754e-06
4.58274e-05 -3.14012e-06 8.49659e-06
-8.0625e-07 -2.06563e-06 3.97284e-06
1.7208e-19 7.05155e-20 6.77626e-21
0.0 0.0 -5.1365e-06
1.52419e-07 -7.99236e-07 5.48138e-07
2.57303e-09 2.25911e-08 2.33283e-07
-8.55805e-07 -1.29838e-06 -4.7394e-06
8.2372e-05 4.62465e-05 -1.45099e-05
8.07899e-08 4.3859e-07 -2.0903e-06
0.0 0.0 -5.1365e-06
5.60251e-05 -0.000163669 -2.51751e-05
3.02751e-06 1.10311e-05 -2.28686e-05
-8.41473e-08 -1.98292e-07 2.13846e-07
0.0 0.0 -5.1365e-06
-2.30425e-08 -2.26767e-07 1.60034e-07
-3.48335e-06 6.01874e-07 3.80046e-05
-7.65082e-08 1.1283e-06 1.00648e-06
0.0 0.0 -5.1365e-06
1.00094e-06 -1.32806e-06 -5.0032e-07
-7.07918e-08 2.34362e-08 -2.69571e-07
6.70285e-08 -6.26082e-07 3.61384e-07
0.0 0.0 -5.1365e-06
-5.19701e-06 2.10176e-05 1.78235e-07
1.04112e-06 1.51271e-06 -4.26576e-06
-0.000124922 -0.000368653 -2.74378e-05
-5.18682e-06 6.35548e-06 -3.2241e-05
-9.1167e-07 1.90074e-06 -1.17805e-06
1.23562e-05 -2.77587e-05 1.92539e-06
1.75979e-08 -2.47188e-07 4.21369e-08
0.0 0.0 -5.1365e-06
-1.37325e-19 6.18863e-20 -1.35525e-20
0.0 0.0 -5.1365e-06
0.000108452 0.00104996 0.000440289
3.69597e-07 -1.25074e-06 -1.74063e-07
-1.17023e-05 1.62166e-05 5.02087e-06
0.0 0.0 -5.1365e-06
2.9246e-05 -1.81717e-05 -5.23702e-06
0.000169217 0.000679406 0.000187697
-7.50802e-07 4.30377e-07 -3.04055e-06
-6.46054e-07 4.36037e-08 1.93114e-07
1.68181e-05 -2.85992e-06 -1.13399e-05
0.0 0.0 -5.1365e-06
1.94072e-08 -2.29434e-07 4.01261e-08
-1.45777e-06 -2.43482e-06 1.20123e-06
0.0 0.0 -5.1365e-06
-2.6411e-09 1.07609e-07 1.94618e-07
2.14453e-05 1.32975e-05 5.19829e-06
0.0 0.0 -5.1365e-06
1.51515e-08 -1.36189e-08 2.47658e-07
0.000107742 -0.000711975 -0.000459869
0.0 0.0 -5.1365e-06
0.0 0.0 -5.1365e-06
0.0 0.0 -5.1365e-06
1.02586e-06 -1.32196e-06 3.46125e-08
-5.916e-20 4.02341e-21 3.38813e-21
0.0 0.0 -5.1365e-06
-2.61542e-06 2.35315e-06 -9.75467e-06
5.13685e-07 2.89129e-06 9.49665e-07
7.13586e-07 1.2606e-06 7.88717e-07
0.0 0.0 -5.1365e-06
0.0 0.0 -5.1365e-06
-1.85822e-06 -3.65506e-06 4.11862e-06
0.0 0.0 -5.1365e-06
