# vtk DataFile Version 3.0
LIGGGHTS particles timestep 4200000
ASCII
DATASET POLYDATA
POINTS 141 float
0.0301751 0.0199402 0.00583053
0.0313098 0.0182341 0.0157297
0.0311969 0.0190595 0.00570718
0.0334937 0.0164211 0.00808983
0.0316051 0.017175 0.0153663
0.0307947 0.0206343 0.0154791
0.0310944 0.0192156 0.0158159
0.0208317 0.0229217 0.0150523
0.0242307 0.00534108 0.0418013
0.0302591 0.0185329 0.0057867
0.0200465 0.0238214 0.0147684
0.0269661 0.0149808 0.0101532
0.0265063 0.014784 0.0119898
0.0181574 0.0243507 0.0139059
0.0231119 0.0227861 0.00930686
0.0203535 0.0149006 0.0131419
0.0229141 0.0220988 0.00866627
0.0185055 0.0220926 0.0155327
0.0189812 0.0200636 0.0158308
0.020381 0.0210252 0.0155583
0.0254602 0.0179092 0.0158021
0.0332078 0.0154387 0.00919006
0.0235057 0.0153387 0.015234
0.0208661 0.017485 0.0210199
0.0202326 0.0225031 0.0143072
0.0208102 0.0240334 0.0131437
0.0134324 0.0202478 0.0183489
0.0176418 0.0234267 0.0114684
0.0196161 0.0139826 0.0130309
0.0192867 0.0240053 0.0139965
0.0200669 0.0233374 0.0138004
0.0209953 0.0235742 0.0142735
0.0163451 0.0237475 0.0138913
0.0166923 0.0142186 0.0135647
0.0406138 0.0191626 0.00568074
0.0217309 0.0238471 0.0136434
0.0198173 0.0229439 0.0151893
0.0288584 0.0219683 0.00834798
0.0273182 0.0157867 0.00870819
0.0237925 0.0192214 0.00595071
0.0160951 0.0148983 0.0131128
0.0199505 0.0220249 0.0160813
0.0219501 0.0233524 0.0145484
0.0180983 0.0237508 0.0147042
0.0155586 0.0234195 0.0144143
0.0178012 0.0229498 0.0152392
0.019578 0.0215429 0.0152773
0.0210906 0.0152055 0.0137448
0.0210433 0.0140638 0.0142715
0.017636 0.0141145 0.0132354
0.027649 0.016904 0.00772818
0.0216204 0.0196274 0.0168844
0.0217055 0.0156363 0.0150547
0.019451 0.023218 0.0130335
0.0178079 0.0239905 0.0128731
0.0202397 0.0243054 0.0139155
0.0241652 0.0221512 0.0146711
0.0197957 0.0241383 0.012989
0.0239395 0.0202041 0.00583859
0.0188077 0.0241923 0.013139
0.0176857 0.0145187 0.0141484
0.0225637 0.0195823 0.0058395
0.0214539 0.014746 0.0126087
0.0336017 0.0195831 0.00585649
0.0233385 0.023092 0.00998748
0.0215436 0.0165655 0.00794689
0.0202386 0.0188078 0.0160062
0.0328979 0.0149358 0.0103244
0.0348243 0.0219321 0.00825937
0.0213415 0.0162907 0.0202853
0.025591 0.0193584 0.0167666
0.0216673 0.0188692 0.0204965
0.022001 0.0154394 0.0141097
0.0191856 0.022297 0.0147615
0.0220804 0.02269 0.0152863
0.0147755 0.0228694 0.0151036
0.0183398 0.0226777 0.0143872
0.0389148 0.0189256 0.00570476
0.0229471 0.0234136 0.0144676
0.0317858 0.01638 0.0148655
0.029484 0.0233219 0.0107222
0.0222055 0.0144579 0.0140986
0.0187205 0.0234688 0.0117587
0.0287041 0.0213059 0.00781434
0.0230443 0.0147738 0.0145502
0.030333 0.0222098 0.0143782
0.0109399 0.0211212 0.0246686
0.0142389 0.022438 0.0143756
0.020553 0.0146179 0.0121936
0.0191147 0.0131833 0.0183857
0.0236164 0.0153 0.0478416
0.0280133 0.0184887 0.00722857
0.0185971 0.0139883 0.012989
0.0207859 0.014799 0.0107981
0.0323921 0.0149624 0.0127206
0.0351725 0.0227525 0.00943774
0.0187734 0.0210331 0.0155389
0.0235698 0.0230536 0.0152388
0.0210048 0.0141524 0.0132763
0.0230534 0.0221454 0.0157725
0.0208748 0.0204174 0.0161719
0.0201171 0.0159421 0.0147037
0.0192235 0.0227994 0.0139052
0.0196744 0.0209117 0.0175091
0.0155069 0.0147938 0.0259001
0.0327957 0.0190095 0.00571076
0.0240162 0.0216916 0.016116
0.0171951 0.0234987 0.0143569
0.01842 0.0234073 0.0137087
0.0190361 0.0142543 0.0138467
0.0190199 0.0233605 0.0147126
0.0161481 0.0149905 0.0146647
0.0326107 0.014749 0.0115154
0.0242073 0.0155235 0.0159322
0.0185232 0.023332 0.0127169
0.031989 0.0156327 0.0141177
0.0189151 0.0237118 0.015643
0.0199672 0.0201304 0.0158975
0.0251951 0.0207589 0.0156126
0.0250031 0.0215353 0.0162124
0.0254536 0.0198401 0.0158993
0.0290768 0.0226318 0.00902924
0.0222271 0.0149418 0.0132241
0.0132142 0.0135699 0.0288403
0.0298008 0.0233192 0.0122141
0.0171804 0.0242659 0.0137156
0.0246084 0.0214864 0.0152597
0.0165171 0.0230609 0.0149743
0.0213319 0.0224732 0.0253546
0.0190096 0.0155771 0.0155244
0.0381686 0.0197868 0.00591052
0.0200757 0.015697 0.0189905
0.0245252 0.0177288 0.0167643
0.0212291 0.0155339 0.00903383
0.0252448 0.0188684 0.0159671
0.0141757 0.0207771 0.0192613
0.0204787 0.0218573 0.0150162
0.0203216 0.0200412 0.0174054
0.0193517 0.0231123 0.0164348
0.0180416 0.0159249 0.0163548
0.0195567 0.0210641 0.0161584

VERTICES 141 282
1 0
1 1
1 2
1 3
1 4
1 5
1 6
1 7
1 8
1 9
1 10
1 11
1 12
1 13
1 14
1 15
1 16
1 17
1 18
1 19
1 20
1 21
1 22
1 23
1 24
1 25
1 26
1 27
1 28
1 29
1 30
1 31
1 32
1 33
1 34
1 35
1 36
1 37
1 38
1 39
1 40
1 41
1 42
1 43
1 44
1 45
1 46
1 47
1 48
1 49
1 50
1 51
1 52
1 53
1 54
1 55
1 56
1 57
1 58
1 59
1 60
1 61
1 62
1 63
1 64
1 65
1 66
1 67
1 68
1 69
1 70
1 71
1 72
1 73
1 74
1 75
1 76
1 77
1 78
1 79
1 80
1 81
1 82
1 83
1 84
1 85
1 86
1 87
1 88
1 89
1 90
1 91
1 92
1 93
1 94
1 95
1 96
1 97
1 98
1 99
1 100
1 101
1 102
1 103
1 104
1 105
1 106
1 107
1 108
1 109
1 110
1 111
1 112
1 113
1 114
1 115
1 116
1 117
1 118
1 119
1 120
1 121
1 122
1 123
1 124
1 125
1 126
1 127
1 128
1 129
1 130
1 131
1 132
1 133
1 134
1 135
1 136
1 137
1 138
1 139
1 140

POINT_DATA 141
SCALARS id int 1
LOOKUP_TABLE default
1
2
4
5
7
8
10
11
12
13
14
15
16
19
20
21
22
23
24
25
26
27
29
30
31
34
35
36
37
40
41
42
43
44
45
46
48
49
50
52
53
54
55
58
59
60
61
62
63
64
65
66
68
71
72
74
75
76
78
79
81
82
83
84
85
86
87
89
90
91
92
93
95
97
98
102
103
105
107
108
109
110
112
113
114
115
118
120
122
123
124
125
126
127
128
129
131
133
134
135
136
138
139
140
141
142
143
144
147
148
149
150
151
152
153
154
155
156
157
158
160
161
163
164
167
169
170
171
173
174
175
176
178
180
181
182
183
185
188
189
190

SCALARS type int 1
LOOKUP_TABLE default
1
1
1
1
1
1
1
1
1
1
1
1
1
1
1
1
1
1
1
1
1
1
1
1
1
1
1
1
1
1
1
1
1
1
1
1
1
1
1
1
1
1
1
1
1
1
1
1
1
1
1
1
1
1
1
1
1
1
1
1
1
1
1
1
1
1
1
1
1
1
1
1
1
1
1
1
1
1
1
1
1
1
1
1
1
1
1
1
1
1
1
1
1
1
1
1
1
1
1
1
1
1
1
1
1
1
1
1
1
1
1
1
1
1
1
1
1
1
1
1
1
1
1
1
1
1
1
1
1
1
1
1
1
1
1
1
1
1
1
1
1

SCALARS radius float 1
LOOKUP_TABLE default
0.0005
0.0005
0.0005
0.0005
0.0005
0.0005
0.0005
0.0005
0.0005
0.0005
0.0005
0.0005
0.0005
0.0005
0.0005
0.0005
0.0005
0.0005
0.0005
0.0005
0.0005
0.0005
0.0005
0.0005
0.0005
0.0005
0.0005
0.0005
0.0005
0.0005
0.0005
0.0005
0.0005
0.0005
0.0005
0.0005
0.0005
0.0005
0.0005
0.0005
0.0005
0.0005
0.0005
0.0005
0.0005
0.0005
0.0005
0.0005
0.0005
0.0005
0.0005
0.0005
0.0005
0.0005
0.0005
0.0005
0.0005
0.0005
0.0005
0.0005
0.0005
0.0005
0.0005
0.0005
0.0005
0.0005
0.0005
0.0005
0.0005
0.0005
0.0005
0.0005
0.0005
0.0005
0.0005
0.0005
0.0005
0.0005
0.0005
0.0005
0.0005
0.0005
0.0005
0.0005
0.0005
0.0005
0.0005
0.0005
0.0005
0.0005
0.0005
0.0005
0.0005
0.0005
0.0005
0.0005
0.0005
0.0005
0.0005
0.0005
0.0005
0.0005
0.0005
0.0005
0.0005
0.0005
0.0005
0.0005
0.0005
0.0005
0.0005
0.0005
0.0005
0.0005
0.0005
0.0005
0.0005
0.0005
0.0005
0.0005
0.0005
0.0005
0.0005
0.0005
0.0005
0.0005
0.0005
0.0005
0.0005
0.0005
0.0005
0.0005
0.0005
0.0005
0.0005
0.0005
0.0005
0.0005
0.0005
0.0005
0.0005

SCALARS mass float 1
LOOKUP_TABLE default
5.23599e-07
5.23599e-07
5.23599e-07
5.23599e-07
5.23599e-07
5.23599e-07
5.23599e-07
5.23599e-07
5.23599e-07
5.23599e-07
5.23599e-07
5.23599e-07
5.23599e-07
5.23599e-07
5.23599e-07
5.23599e-07
5.23599e-07
5.23599e-07
5.23599e-07
5.23599e-07
5.23599e-07
5.23599e-07
5.23599e-07
5.23599e-07
5.23599e-07
5.23599e-07
5.23599e-07
5.23599e-07
5.23599e-07
5.23599e-07
5.23599e-07
5.23599e-07
5.23599e-07
5.23599e-07
5.23599e-07
5.23599e-07
5.23599e-07
5.23599e-07
5.23599e-07
5.23599e-07
5.23599e-07
5.23599e-07
5.23599e-07
5.23599e-07
5.23599e-07
5.23599e-07
5.23599e-07
5.23599e-07
5.23599e-07
5.23599e-07
5.23599e-07
5.23599e-07
5.23599e-07
5.23599e-07
5.23599e-07
5.23599e-07
5.23599e-07
5.23599e-07
5.23599e-07
5.23599e-07
5.23599e-07
5.23599e-07
5.23599e-07
5.23599e-07
5.23599e-07
5.23599e-07
5.23599e-07
5.23599e-07
5.23599e-07
5.23599e-07
5.23599e-07
5.23599e-07
5.23599e-07
5.23599e-07
5.23599e-07
5.23599e-07
5.23599e-07
5.23599e-07
5.23599e-07
5.23599e-07
5.23599e-07
5.23599e-07
5.23599e-07
5.23599e-07
5.23599e-07
5.23599e-07
5.23599e-07
5.23599e-07
5.23599e-07
5.23599e-07
5.23599e-07
5.23599e-07
5.23599e-07
5.23599e-07
5.23599e-07
5.23599e-07
5.23599e-07
5.23599e-07
5.23599e-07
5.23599e-07
5.23599e-07
5.23599e-07
5.23599e-07
5.23599e-07
5.23599e-07
5.23599e-07
5.23599e-07
5.23599e-07
5.23599e-07
5.23599e-07
5.23599e-07
5.23599e-07
5.23599e-07
5.23599e-07
5.23599e-07
5.23599e-07
5.23599e-07
5.23599e-07
5.23599e-07
5.23599e-07
5.23599e-07
5.23599e-07
5.23599e-07
5.23599e-07
5.23599e-07
5.23599e-07
5.23599e-07
5.23599e-07
5.23599e-07
5.23599e-07
5.23599e-07
5.23599e-07
5.23599e-07
5.23599e-07
5.23599e-07
5.23599e-07
5.23599e-07
5.23599e-07
5.23599e-07
5.23599e-07
5.23599e-07

VECTORS velocity float
1.8226e-14 1.06224e-13 -3.37787e-13
0.000568361 0.0504331 0.0114595
-8.71263e-15 1.0618e-16 -1.02212e-13
-0.0895922 0.405732 0.373968
0.00390411 0.0346218 0.0135708
0.000540459 0.0486613 -0.0181297
0.00477928 0.0316292 -0.000545817
0.0253995 -0.015043 0.00716865
-0.0198047 -0.0254901 0.587387
6.60059e-15 -6.27232e-17 7.74361e-14
0.00402699 -0.000972136 0.00911639
0.000184898 -0.0188214 0.0500463
0.0059857 -0.0047329 0.00138887
0.00330729 -0.00372882 -0.00473972
0.0071499 -0.0130475 -0.0214426
0.00633645 -0.0034855 0.00660697
0.00632208 -0.0245983 -0.02292
-0.00765013 0.0653013 -0.0937832
0.00662141 0.0398446 -0.00863462
0.0224863 0.0124766 0.0411878
0.00868398 0.0130607 0.00296359
0.000295455 -0.0307415 0.0498649
0.00148677 0.00138267 -0.0140338
0.0143568 -0.159354 0.0265231
0.013634 -0.00662262 -0.000247492
0.000804195 0.00105608 -0.000790096
0.147022 -0.0593339 0.0379471
-0.142685 -1.41593 1.08157
0.00143488 0.0141971 -0.0272635
-0.0004215 -0.000674764 0.0041186
0.00446347 -0.00615093 -0.00533315
0.00890496 -0.00967613 0.000907886
0.00212385 0.00111141 0.00464073
-0.00096116 -0.0034531 0.00273531
-7.29459e-15 3.48424e-14 -1.72292e-13
-0.00547502 -0.00710366 0.00255524
0.0225124 0.00223749 0.0240586
0.00176645 -0.0393726 -0.0354472
0.00208412 -0.0309725 0.0342753
-2.89394e-13 5.23639e-14 4.39579e-14
-0.000106498 0.00258172 -0.00546337
0.0331547 0.0494483 -0.00956806
0.00544292 -0.0182781 0.0186012
0.00713039 0.000865504 0.00029385
-0.000428441 -0.00247941 -0.0013559
-0.0578356 -0.0283568 -0.0500169
0.0151021 0.00895894 0.00895401
0.0188533 0.00346468 -0.00884274
-0.0120824 -0.00667278 -0.00179911
0.000479502 -0.0011527 0.00219301
0.00348697 -0.0380668 0.0239604
0.000469288 0.0555591 -0.0256644
0.0700878 -0.0432696 0.0545994
-0.00218167 0.00162386 -0.00565869
0.00343855 0.00780247 0.0165739
0.00348715 -0.00289482 0.000744651
0.00184974 0.00579186 -0.00302772
0.00664561 0.00231035 -0.00106368
4.81522e-14 -1.26626e-14 1.09118e-14
0.00407497 -0.000425033 0.00204959
0.00159082 0.00238492 0.00545826
-4.39589e-14 9.36736e-14 3.3937e-13
0.00551633 0.00036026 0.0063765
-1.2376e-18 -3.40391e-18 1.17621e-17
0.00933761 -0.00661324 -0.0250995
0.000773306 -0.0419173 0.0284878
0.000697955 0.0496196 0.066589
0.000838612 -0.0124265 0.0482071
0.00566594 -0.018942 -0.0109241
-0.125912 -0.0807968 -0.0403466
0.0191379 0.0084754 -0.0016427
0.00736823 -0.112664 0.00608957
0.0145621 0.00206474 0.0140308
0.0213648 0.0220477 0.0113223
0.00909543 -0.0246114 0.00933545
0.0220358 0.0436052 -0.0370718
0.0163236 0.000239705 0.00887575
-7.63383e-16 3.70381e-15 -1.82433e-14
0.0112405 -0.00179264 0.000781094
-0.00119337 0.0359085 0.0338413
0.00273523 -0.00497992 -0.0375403
-0.00437832 -0.00442312 0.00331713
0.00153284 0.00918481 -0.00346027
0.00188272 -0.0410552 -0.0223657
-0.00410436 -0.00430093 -0.00339651
0.00284381 0.0290555 -0.0348924
-0.147368 -0.157409 0.130355
0.00806857 0.00374241 -0.00285861
0.015101 0.00093101 -0.00338187
-0.101823 0.142288 0.0842246
-0.0163801 -0.0950647 0.371266
0.00038162 -0.0485186 0.00765706
-0.000467 -0.000657734 0.00177597
0.000322485 -0.0103615 0.0511941
0.000460666 0.0147727 0.0492098
0.000765616 -0.0267536 -0.0431622
0.010071 0.0162167 0.017078
-0.0437196 -0.0165214 0.00818475
-0.00241351 -0.00132049 -0.00118711
-0.00183272 0.0428366 -0.0319949
0.0225245 0.0220334 0.0640338
0.0159676 -0.0286167 0.0128728
0.0110834 0.00368767 0.00223657
-0.0581125 0.0743279 -0.0671087
-0.00860484 -0.0452805 -0.187529
8.95642e-19 5.68804e-18 1.42107e-17
-0.00508063 0.00412373 -0.0127428
0.00350529 -0.00112892 0.00401968
0.0216272 -0.00196441 0.000866287
0.0100291 0.00289901 -0.00236858
0.00961087 -0.00285202 0.00714325
-0.0323652 -0.0493587 -0.00463097
0.000238003 -0.00324059 0.054927
0.0156059 -0.0188869 -0.0190265
-0.00752486 0.00483219 0.00348481
0.00298482 0.0161162 0.0228154
0.00585487 -0.030926 -0.00711125
0.0142764 0.0212686 0.0484503
-0.00145633 0.00310737 0.00179785
0.001784 0.00724622 -0.0114354
-0.000690368 0.011748 0.0121022
0.00111139 -0.0283501 -0.0386313
0.00936764 -0.00286545 0.00542613
0.0335998 0.158237 0.264458
0.00142204 0.00664109 -0.0471963
0.0028339 0.00110003 0.000695938
0.00736161 0.00315189 0.00413364
-0.0351625 0.0138701 -0.0419502
0.167913 0.463165 0.160935
0.000942817 -0.0663931 0.122383
1.03961e-14 -4.97167e-14 2.45848e-13
-0.175464 -0.0469149 -0.0774782
-0.01264 0.0218816 0.063364
0.00236365 -0.0305946 0.0464786
0.00887878 0.010698 0.00793104
-0.173287 -0.0227227 -0.0579676
0.0150076 0.00530183 0.0126099
-0.0244057 0.0584712 -0.0596112
-0.00409567 0.0280419 -0.116134
0.00393674 -0.0030165 -0.0210097
0.0208453 0.0691853 -0.0369757

VECTORS force float
4.87044e-21 -1.24937e-20 -3.38813e-21
2.64797e-08 8.89014e-08 -2.07584e-07
4.23516e-22 -1.83207e-19 0.0
0.062415 0.0809935 0.046973
-1.77122e-06 -2.26975e-06 2.61939e-06
-9.62674e-09 4.0885e-09 -2.42162e-07
-1.69446e-07 2.0534e-06 -2.65631e-07
0.0 0.0 -5.1365e-06
0.0 0.0 -5.1365e-06
5.29396e-23 4.64876e-22 0.0
-9.88693e-06 -2.85392e-06 -1.42696e-08
-2.35533e-08 1.67606e-07 1.69885e-07
-9.66309e-07 -2.56992e-06 -4.01829e-06
1.18761e-06 -1.63851e-05 -8.75766e-06
2.04893e-05 -3.90815e-05 0.000106592
-9.61959e-07 2.50202e-07 -6.89181e-06
-7.46616e-05 2.70182e-05 -6.73393e-05
0.00014696 0.00011759 0.000175709
7.09176e-06 -4.07188e-06 8.65246e-06
3.09909e-05 6.72432e-05 -1.91454e-05
1.36723e-05 3.34047e-06 1.34143e-05
1.8383e-06 1.98349e-05 -6.64375e-05
1.13586e-05 2.79813e-06 1.19492e-06
0.0 0.0 -5.1365e-06
-4.28845e-06 -2.72892e-05 -3.03397e-05
8.60933e-09 1.47011e-05 1.58781e-05
0.0 0.0 -5.1365e-06
-0.01107 -0.0929012 0.0195483
0.0 0.0 -5.1365e-06
5.30541e-06 3.63285e-06 -9.32562e-07
-5.91942e-05 -5.91599e-05 8.4782e-06
0.0 0.0 -5.1365e-06
-3.91309e-06 -1.41815e-05 -2.84332e-06
0.0 0.0 -5.1365e-06
4.97632e-21 -1.90582e-21 -8.47033e-22
0.0 0.0 -5.1365e-06
-1.03718e-06 -6.01962e-06 4.53781e-06
2.0761e-07 -5.21249e-07 -9.43556e-07
-1.37387e-05 6.00979e-05 -7.22681e-05
-7.06562e-16 1.14011e-16 7.05528e-17
2.7943e-06 -2.19511e-05 2.07413e-05
0.0 0.0 -5.1365e-06
0.0 0.0 -5.1365e-06
0.0 0.0 -5.1365e-06
-1.14442e-06 7.01585e-06 -1.44155e-06
0.0 0.0 -5.1365e-06
-0.000109537 -1.53915e-05 2.14782e-05
9.61959e-07 -2.50202e-07 -3.3812e-06
-2.89796e-07 -3.2791e-07 -1.81726e-06
-2.47934e-08 -8.25438e-06 5.281e-06
-1.42781e-05 -4.97804e-05 3.10477e-05
0.0 0.0 -5.1365e-06
0.0 0.0 -5.1365e-06
-4.13491e-06 -3.71892e-05 1.98418e-05
-3.56743e-05 7.80287e-05 -6.68504e-05
-1.7618e-05 -3.03629e-05 1.07312e-05
6.71646e-05 -0.000175637 0.000162967
5.97698e-05 1.14976e-05 -6.84112e-05
-5.40773e-17 1.06375e-17 6.10457e-18
-4.91892e-05 -9.91134e-05 4.31177e-05
3.77532e-08 -1.76951e-05 2.98008e-05
1.05879e-22 -2.11758e-22 0.0
-1.779e-06 -6.6538e-07 -1.62799e-06
0.0 0.0 0.0
4.29298e-05 -9.73214e-06 1.9738e-05
-1.53817e-07 -2.41998e-07 4.9116e-07
0.0 0.0 -5.1365e-06
-3.39436e-08 1.80173e-07 1.55245e-07
1.69411e-05 3.15046e-05 0.000106053
0.0 0.0 -5.1365e-06
3.89395e-06 7.48651e-07 3.50956e-05
0.0 0.0 -5.1365e-06
0.0 0.0 -5.1365e-06
5.9722e-05 -3.95387e-05 0.000134096
0.0 0.0 -5.1365e-06
0.0 0.0 -5.1365e-06
6.99231e-07 -2.53819e-05 -8.00783e-07
1.28378e-20 -9.93146e-20 -2.11758e-20
-1.99132e-05 -2.62151e-05 -9.05161e-06
-7.33418e-08 2.01212e-07 9.60361e-08
5.40087e-07 -1.56163e-07 -1.45319e-06
4.66679e-06 -1.16581e-05 7.44978e-06
-5.20882e-05 -4.31124e-05 0.000158666
-2.86001e-07 -8.48887e-07 -2.07379e-07
-1.13586e-05 -2.79813e-06 -1.14679e-05
-3.23521e-07 3.60938e-07 -6.48225e-07
0.0 0.0 -5.1365e-06
-1.22148e-06 -5.99183e-07 1.42989e-06
0.0 0.0 -5.1365e-06
0.0 0.0 -5.1365e-06
0.0 0.0 -5.1365e-06
-8.23873e-08 -2.93316e-08 3.4234e-07
6.13755e-06 2.05611e-05 4.45681e-05
-1.44088e-09 2.07363e-07 1.23104e-07
-2.47243e-08 2.44151e-07 6.62872e-08
-5.27591e-07 -6.6486e-07 -7.1757e-07
-6.84349e-05 3.99822e-05 -6.57614e-05
0.0 0.0 -5.1365e-06
-1.04415e-06 -1.18733e-06 -7.45583e-07
0.0 0.0 -5.1365e-06
3.74411e-05 -3.86738e-05 9.49366e-05
0.0 0.0 -5.1365e-06
-5.37789e-05 -8.66698e-05 2.2775e-05
0.0 0.0 -5.1365e-06
0.0 0.0 -5.1365e-06
-1.05879e-22 1.05879e-22 0.0
0.0 0.0 -5.1365e-06
0.0 0.0 -5.1365e-06
-1.15263e-05 -6.48343e-05 -2.80209e-05
3.59669e-06 -6.49324e-08 1.96319e-05
-1.95684e-06 -8.7682e-07 -3.49047e-06
0.0 0.0 -5.1365e-06
-4.43207e-09 2.31092e-07 4.75425e-08
0.0 0.0 -5.1365e-06
8.66098e-05 0.000116441 0.000128341
1.33713e-05 8.06329e-05 3.50027e-05
0.0 0.0 -5.1365e-06
2.43671e-05 -3.90422e-05 2.71148e-05
6.20548e-06 -1.99281e-05 3.55561e-06
-1.41864e-05 1.60805e-05 4.89233e-07
-1.94902e-05 -8.12429e-06 -2.82402e-05
-1.56257e-07 -3.89167e-07 -1.66409e-07
-8.41136e-06 -9.48684e-06 1.05557e-05
0.0 0.0 -5.1365e-06
-1.63866e-07 -1.3685e-07 -4.01229e-07
-3.15829e-05 -2.04469e-06 -4.62066e-05
5.58907e-06 4.54203e-06 -2.76853e-05
0.0 0.0 -5.1365e-06
0.0 0.0 -5.1365e-06
0.0 0.0 -5.1365e-06
-1.5326e-20 -1.05879e-20 -1.69407e-21
0.0 0.0 -5.1365e-06
0.0 0.0 -5.1365e-06
-2.56871e-07 -2.0692e-06 2.39168e-06
2.96763e-06 5.14086e-06 -1.37692e-05
0.0 0.0 -5.1365e-06
-4.59388e-05 4.87024e-05 -6.27598e-05
0.0 0.0 -5.1365e-06
0.0 0.0 -5.1365e-06
0.0 0.0 -5.1365e-06
7.15575e-05 -7.0018e-05 6.8591e-05
