ITEM: TIMESTEP
6000000
ITEM: NUMBER OF ATOMS
250
ITEM: BOX BOUNDS ff ff ff
-0.02 0.43
-0.02 0.06
-0.02 0.07
ITEM: ATOMS id type x y z vx vy vz fx fy fz radius mass 
2 1 0.0168242 0.0239037 0.0167227 0.00241522 0.0005493 0.000220994 -1.93403e-06 -1.39669e-06 -1.68395e-06 0.0005 1.46608e-07 
3 1 0.0298585 0.0156272 0.00886474 0.493574 3.13697 1.37976 0.038989 -0.0605132 -0.0320082 0.0005 1.46608e-07 
4 1 0.0146498 0.0217413 0.0160702 0.00470773 0.00652113 -0.00139534 1.67413e-06 -5.46579e-07 8.40023e-07 0.0005 1.46608e-07 
5 1 0.0282099 0.0169035 0.0151905 0.000155304 0.02159 0.0129754 -1.16239e-09 1.30828e-08 -9.74384e-09 0.0005 1.46608e-07 
6 1 0.0279711 0.0179677 0.0156727 -5.03191e-05 0.0232589 0.00779054 -8.5253e-08 -1.40918e-06 -3.28324e-07 0.0005 1.46608e-07 
7 1 0.0159702 0.0198028 0.0167055 -0.0354211 -0.0208707 -0.0301294 -4.6331e-07 -8.36792e-07 4.70381e-06 0.0005 1.46608e-07 
8 1 0.0177932 0.0185429 0.0159134 -0.000742772 0.0198793 0.00207803 6.12309e-08 2.34246e-07 -5.10594e-08 0.0005 1.46608e-07 
10 1 0.0205639 0.024068 0.0143178 -0.0215902 0.00017333 -0.00354342 0 0 -1.43822e-06 0.0005 1.46608e-07 
11 1 0.0242359 0.0169315 0.00773694 0.00213429 -0.02038 0.0114988 -4.23928e-06 2.85546e-05 7.18245e-06 0.0005 1.46608e-07 
12 1 0.0209083 0.0241429 0.013369 0.00882648 -0.00252577 0.00197889 -3.00956e-05 0.000104566 8.5991e-07 0.0005 1.46608e-07 
13 1 0.0192482 0.0237535 0.0138474 -0.000369499 4.86712e-06 0.000117294 -2.27056e-06 1.38106e-06 -1.92224e-06 0.0005 1.46608e-07 
15 1 0.0161634 0.0149822 0.0149073 0.00242809 0.00156316 -0.00248731 1.25253e-07 1.07377e-07 -6.58839e-07 0.0005 1.46608e-07 
16 1 0.0252478 0.0212545 0.0161517 0.0568889 0.0939568 -0.0697291 -0.00127368 0.000650441 0.00170195 0.0005 1.46608e-07 
17 1 0.0174241 0.0234393 0.014353 0.000940049 0.00130617 0.00056838 -2.60504e-06 -2.24373e-06 2.79064e-06 0.0005 1.46608e-07 
18 1 0.0276201 0.0197514 0.015761 6.06246e-05 0.0240938 -0.0056172 -1.40498e-07 6.06735e-06 -2.86594e-06 0.0005 1.46608e-07 
19 1 0.0221759 0.0230417 0.013435 -0.0132039 -0.0141493 0.01449 -1.25058e-05 -7.20103e-05 -0.000283723 0.0005 1.46608e-07 
21 1 0.0262973 0.0233944 0.0116197 0.000208101 0.00137298 -0.0250404 -8.06966e-08 -1.69011e-08 -1.80861e-07 0.0005 1.46608e-07 
22 1 0.0184108 0.015908 0.0155036 0.0103591 0.00265669 0.00266203 0 0 -1.43822e-06 0.0005 1.46608e-07 
23 1 0.0172928 0.0204905 0.0157149 0.00260266 0.00287817 0.000973566 -3.93529e-07 5.03077e-06 4.19912e-06 0.0005 1.46608e-07 
24 1 0.0179344 0.0158823 0.0146242 0.00469498 0.00349798 0.00603019 -1.17149e-07 -6.12647e-07 7.60515e-07 0.0005 1.46608e-07 
25 1 0.0237039 0.0162172 0.0149343 -0.00316441 0.00727875 0.00443035 0 0 -1.43822e-06 0.0005 1.46608e-07 
26 1 0.0158185 0.0225225 0.0149968 0.00472964 0.000875173 0.00156804 3.34709e-07 1.16206e-05 -2.70557e-06 0.0005 1.46608e-07 
27 1 0.0266281 0.0229679 0.0132399 0.000262104 0.0136521 -0.0210143 7.69204e-09 -1.27171e-08 -2.04122e-09 0.0005 1.46608e-07 
28 1 0.0319698 0.0232515 0.0103505 0.000844384 -0.00640841 -0.0224242 -1.43903e-08 -2.40753e-08 -2.37478e-08 0.0005 1.46608e-07 
29 1 0.0222237 0.0159381 0.0156246 0.00110524 0.00942337 0.0129325 -2.65773e-06 -1.6739e-05 -1.70578e-05 0.0005 1.46608e-07 
31 1 0.0195018 0.0238223 0.0158572 0.0146301 -0.0169103 -0.0322342 0 0 -1.43822e-06 0.0005 1.46608e-07 
33 1 0.0253004 0.0168343 0.0165716 0.0274204 0.0238522 -0.0814726 0 0 -1.43822e-06 0.0005 1.46608e-07 
34 1 0.0137903 0.0221539 0.015769 0.00283718 0.0047059 -0.00165081 4.74332e-06 3.59526e-06 -2.78109e-06 0.0005 1.46608e-07 
35 1 0.0234607 0.0155426 0.0142309 0.00529342 0.00387273 0.00239996 1.86653e-06 -4.02969e-06 3.48883e-06 0.0005 1.46608e-07 
36 1 0.0454257 0.0173169 0.00620813 -1.94421e-15 -1.13713e-14 -7.97137e-14 3.53495e-18 -4.83418e-19 -2.13876e-20 0.0005 1.46608e-07 
38 1 0.0198764 0.0143742 0.0148687 0.000227171 -0.00389005 -0.00060417 -9.47819e-07 -2.69155e-07 1.40959e-06 0.0005 1.46608e-07 
39 1 0.0303593 0.0174859 0.00748102 0.000174235 -0.0245605 0.00857666 -8.84277e-10 -9.87837e-10 1.69061e-08 0.0005 1.46608e-07 
41 1 0.0157901 0.0191023 0.0159465 0.00812656 -0.00460701 0.00149564 -2.04899e-07 8.09341e-07 3.23931e-08 0.0005 1.46608e-07 
44 1 0.0167056 0.0233252 0.015915 9.62984e-05 -0.00291851 0.00133444 0 0 -1.43822e-06 0.0005 1.46608e-07 
45 1 0.0188649 0.017328 0.0164558 -0.0229523 -0.0747783 -0.0209499 0 0 -1.43822e-06 0.0005 1.46608e-07 
47 1 0.0487553 0.0195855 0.00596623 -6.7045e-16 1.36138e-15 1.40099e-14 7.8377e-20 -9.82029e-21 4.44692e-21 0.0005 1.46608e-07 
49 1 0.0163658 0.0220406 0.0168837 0.00900941 0.00735242 -0.00591475 2.15166e-07 -3.77914e-07 -1.03468e-06 0.0005 1.46608e-07 
50 1 0.0272571 0.0210541 0.0153146 0.00245958 0.010712 -0.00478997 9.34039e-08 1.29372e-06 -2.34504e-06 0.0005 1.46608e-07 
51 1 0.0233462 0.019296 0.0212452 0.00386274 -0.148733 0.191385 0 0 -1.43822e-06 0.0005 1.46608e-07 
53 1 0.0210559 0.0141369 0.0133731 0.000121346 0.00108792 -0.000755223 -3.74047e-07 -1.27948e-07 5.51018e-07 0.0005 1.46608e-07 
54 1 0.0295517 0.0150247 0.0100543 0.00162894 -0.00610987 0.0186422 1.15327e-07 2.27769e-07 1.93789e-07 0.0005 1.46608e-07 
55 1 0.022603 0.0235526 0.0140701 0.000182587 -0.0235257 -0.0263362 -0.000107574 7.40792e-05 -4.23453e-05 0.0005 1.46608e-07 
56 1 0.0313475 0.021702 0.00808129 -0.000320056 -0.0192822 -0.0178432 1.42962e-08 1.20292e-08 2.53589e-08 0.0005 1.46608e-07 
57 1 0.0181133 0.0142039 0.0156951 0.00229362 0.00205679 -0.0029874 -3.70156e-07 -2.75984e-07 -1.4419e-06 0.0005 1.46608e-07 
58 1 0.0258966 0.0231295 0.0100294 0.00418016 0.00462229 0.00250838 -6.44437e-09 3.26093e-08 2.23742e-07 0.0005 1.46608e-07 
59 1 0.0170368 0.0178534 0.0157947 -0.00401596 -0.00838346 -0.0034892 0 0 -1.43822e-06 0.0005 1.46608e-07 
60 1 0.0200551 0.0217504 0.00811086 0.00169732 -0.00768799 -0.00748768 6.95031e-06 7.47346e-06 7.54809e-06 0.0005 1.46608e-07 
61 1 0.0183607 0.0239572 0.0134063 0.00118851 -0.000576125 0.00159937 3.11487e-07 4.33283e-08 1.79893e-07 0.0005 1.46608e-07 
62 1 0.0301767 0.0166049 0.00797791 0.0013405 -0.0167841 0.0113324 -3.83598e-08 9.80388e-08 -8.72418e-08 0.0005 1.46608e-07 
63 1 0.0197039 0.0224293 0.0156032 0.0289254 0.0249755 -0.0510053 0 0 -1.43822e-06 0.0005 1.46608e-07 
64 1 0.0184148 0.0138905 0.0133382 0.000931966 0.001727 -0.00566196 2.63135e-07 -2.64298e-07 5.98371e-07 0.0005 1.46608e-07 
65 1 0.0178339 0.0242371 0.0171954 -0.029215 0.0102971 -0.00300684 2.32459e-06 3.49473e-07 1.45774e-06 0.0005 1.46608e-07 
66 1 0.0192938 0.0230833 0.0148943 0.0241542 0.00166942 -0.00693953 0 0 -1.43822e-06 0.0005 1.46608e-07 
67 1 0.0309778 0.0149974 0.0128489 0.000381096 0.00448333 0.0159573 1.60036e-08 -5.70913e-08 -1.13007e-07 0.0005 1.46608e-07 
69 1 0.0188057 0.0183601 0.00720653 1.87351e-05 -0.0141546 0.00088806 -1.34721e-08 4.98346e-08 -7.08908e-09 0.0005 1.46608e-07 
70 1 0.0227756 0.0114116 0.0258482 0.0445727 -0.478336 0.397353 0 0 -1.43822e-06 0.0005 1.46608e-07 
71 1 0.0270357 0.0219142 0.0145961 0.000455769 0.0173056 -0.0170953 -3.10922e-09 -4.10805e-09 -1.72282e-08 0.0005 1.46608e-07 
73 1 0.0164616 0.019002 0.0174068 -0.0642023 -0.0510881 -0.040551 0 0 -1.43822e-06 0.0005 1.46608e-07 
75 1 0.0192086 0.0164028 0.0170073 -0.081292 0.0872884 0.0260272 0 0 -1.43822e-06 0.0005 1.46608e-07 
76 1 0.018953 0.0142957 0.0124794 0.00829751 0.0071712 -0.0118473 1.58213e-07 4.38413e-08 -7.25005e-07 0.0005 1.46608e-07 
77 1 0.0209802 0.0225054 0.0154347 -0.0265284 -0.0637734 0.00778235 0 0 -1.43822e-06 0.0005 1.46608e-07 
78 1 0.0202854 0.0232219 0.0148485 0.0248752 -0.00990079 0.0498748 0 0 -1.43822e-06 0.0005 1.46608e-07 
79 1 0.0190262 0.0240284 0.0167753 -0.0531412 -0.0199372 -0.0784294 0 0 -1.43822e-06 0.0005 1.46608e-07 
81 1 0.0228229 0.0151207 0.0135859 0.00644723 0.0035051 0.0035945 -1.42025e-06 -5.48828e-06 5.85695e-06 0.0005 1.46608e-07 
82 1 0.022673 0.0200542 0.00582605 2.78659e-14 -1.24841e-14 2.5502e-13 5.0822e-21 -2.90638e-20 -1.90582e-21 0.0005 1.46608e-07 
85 1 0.0232708 0.0147213 0.0113862 0.000721036 -0.00235015 0.0248535 2.31135e-09 1.35503e-08 2.0078e-09 0.0005 1.46608e-07 
86 1 0.0272429 0.0197246 0.0240281 0.0772554 -0.143907 0.287314 0 0 -1.43822e-06 0.0005 1.46608e-07 
87 1 0.0142449 0.0228334 0.0151929 0.00191441 0.00299793 -0.00274651 2.70408e-07 -1.9519e-06 6.21157e-07 0.0005 1.46608e-07 
88 1 0.0175346 0.0226039 0.0153761 0.00121157 -0.00147222 0.000615204 2.17649e-06 3.7013e-06 -5.46886e-07 0.0005 1.46608e-07 
89 1 0.0229212 0.0221544 0.0148061 0.0635216 -0.0233754 0.0800455 0 0 -1.43822e-06 0.0005 1.46608e-07 
90 1 0.0207327 0.0234097 0.0114615 -0.000945148 -0.000272529 -0.0189012 -8.31166e-07 3.60495e-06 2.88286e-05 0.0005 1.46608e-07 
91 1 0.0206905 0.0195866 0.0167814 0.0201947 -0.0127853 -0.000253372 0 0 -1.43822e-06 0.0005 1.46608e-07 
92 1 0.0201392 0.02502 0.0187675 -0.0514344 0.0429125 0.0427203 0 0 -1.43822e-06 0.0005 1.46608e-07 
93 1 0.0227547 0.0145793 0.0144238 0.00167402 0.000230404 -0.000373043 3.69752e-07 -2.75343e-07 2.19536e-06 0.0005 1.46608e-07 
94 1 0.0155456 0.0201546 0.0180536 -0.097744 -0.0427628 -0.0343816 0 0 -1.43822e-06 0.0005 1.46608e-07 
95 1 0.0248062 0.0184563 0.00731488 -0.0471954 -4.57182 4.93993 -0.00967789 -0.489776 -1.14639 0.0005 1.46608e-07 
96 1 0.0256965 0.0210463 0.0169455 -0.0366611 0.0290706 -0.125125 0.00517056 0.00362801 0.000845253 0.0005 1.46608e-07 
97 1 0.0229886 0.0153173 0.015799 -0.00438727 0.00521302 -0.00435933 0 0 -1.43822e-06 0.0005 1.46608e-07 
98 1 0.0169731 0.0239563 0.0133757 0.000794369 0.000869695 0.00053192 -2.04718e-07 -2.12857e-06 3.31152e-06 0.0005 1.46608e-07 
99 1 0.0206296 0.0152519 0.0187966 -0.0966963 0.101183 0.169894 0 0 -1.43822e-06 0.0005 1.46608e-07 
101 1 0.0307871 0.0191296 0.00721432 2.69684e-05 -0.0262395 -0.00221274 8.44203e-10 -6.32684e-10 1.35195e-08 0.0005 1.46608e-07 
102 1 0.0186676 0.0234094 0.0191988 -0.14523 0.0233784 0.0406306 0 0 -1.43822e-06 0.0005 1.46608e-07 
103 1 0.0214328 0.022199 0.0171096 -0.112608 -0.0433697 0.0354435 0 0 -1.43822e-06 0.0005 1.46608e-07 
104 1 0.0200326 0.0157466 0.0181217 -0.0711299 0.124835 0.0819337 0 0 -1.43822e-06 0.0005 1.46608e-07 
105 1 0.0192555 0.0144825 0.0140922 0.00113927 0.00149563 -0.00259325 8.04695e-10 -1.93338e-07 -1.53581e-06 0.0005 1.46608e-07 
107 1 0.0177078 0.023922 0.0162549 0.00176221 -1.85484e-06 -0.00188767 -8.79895e-07 -8.99523e-07 -2.82447e-06 0.0005 1.46608e-07 
109 1 0.0219186 0.0189166 0.0300338 -0.0332057 -0.186332 0.654217 0 0 -1.43822e-06 0.0005 1.46608e-07 
111 1 0.0252026 0.016196 0.0209023 0.0464405 -0.216771 0.190472 0 0 -1.43822e-06 0.0005 1.46608e-07 
112 1 0.0171187 0.0154785 0.0150396 0.00726373 0.00770222 0.00115556 -2.11573e-08 -2.42506e-07 -9.12294e-07 0.0005 1.46608e-07 
113 1 0.0202802 0.0158281 0.0157861 0.000877446 0.00963169 -0.0082996 -6.5201e-08 1.2096e-07 -6.65096e-07 0.0005 1.46608e-07 
115 1 0.020568 0.0227464 0.0163223 -0.0876509 0.0401354 0.141192 0 0 -1.43822e-06 0.0005 1.46608e-07 
118 1 0.0187543 0.0143942 0.0273511 -0.169829 -0.385471 0.504806 0 0 -1.43822e-06 0.0005 1.46608e-07 
119 1 0.01869 0.0207993 0.0164387 -0.00620292 0.0123333 -0.00260673 5.4314e-07 1.84874e-06 7.88277e-07 0.0005 1.46608e-07 
120 1 0.0151419 0.0218265 0.0149605 0.00473816 0.00246787 -0.0014816 -1.24227e-05 1.40146e-05 -1.74992e-05 0.0005 1.46608e-07 
121 1 0.0240348 0.0195354 0.00581891 1.29275e-14 2.64387e-14 8.65889e-14 -6.08805e-22 -1.24408e-21 -3.81165e-21 0.0005 1.46608e-07 
122 1 0.0193682 0.0136608 0.0135336 1.31562e-05 0.00134672 -0.00188612 3.57045e-07 3.73341e-08 -6.59258e-07 0.0005 1.46608e-07 
123 1 0.0239161 0.0157782 0.00864502 0.00557636 -0.00405193 0.00366182 1.66246e-06 4.4458e-06 -7.66385e-06 0.0005 1.46608e-07 
127 1 0.0200098 0.0165175 0.0212496 -0.0720111 -0.210734 0.17764 0 0 -1.43822e-06 0.0005 1.46608e-07 
129 1 0.0130431 0.0174722 0.0503288 -0.583325 -0.115379 1.72778 0 0 -1.43822e-06 0.0005 1.46608e-07 
130 1 0.0232659 0.0202374 0.017371 0.00932314 -0.0918805 0.0653586 0 0 -1.43822e-06 0.0005 1.46608e-07 
133 1 0.0130499 0.0204953 0.016546 0.00121978 0.00688194 -0.00306471 1.79292e-08 -3.36513e-06 1.17349e-06 0.0005 1.46608e-07 
134 1 0.0198585 0.0202155 0.0186212 -0.0386419 -0.110428 0.0447408 0 0 -1.43822e-06 0.0005 1.46608e-07 
135 1 0.0235239 0.016257 0.0159255 0.017163 -0.021506 0.00219898 0 0 -1.43822e-06 0.0005 1.46608e-07 
137 1 0.0169078 0.0149543 0.0132339 0.00486645 0.00108771 0.00495472 2.30116e-07 -9.44909e-07 4.32796e-07 0.0005 1.46608e-07 
138 1 0.0248475 0.0201155 0.00587393 -5.31588e-15 -8.70989e-16 8.60086e-14 3.70577e-22 7.94093e-23 -3.81165e-21 0.0005 1.46608e-07 
139 1 0.0234789 0.0149278 0.0150194 -0.000293807 2.24679e-05 -0.000150999 0 0 -1.43822e-06 0.0005 1.46608e-07 
140 1 0.0232658 0.0139158 0.0246412 -0.228809 -0.0283774 0.356781 0 0 -1.43822e-06 0.0005 1.46608e-07 
141 1 0.0158594 0.023577 0.0142782 0.000429297 -0.000780023 -0.00139738 -6.16031e-06 -2.57277e-06 1.50302e-07 0.0005 1.46608e-07 
142 1 0.0172767 0.015387 0.0140565 0.00709116 0.00261426 0.00201991 1.36067e-07 -3.33877e-07 -9.41842e-08 0.0005 1.46608e-07 
143 1 0.0257543 0.0228477 0.00933357 0.0044378 0.00205497 0.00317753 -4.90527e-08 -6.58087e-08 1.57527e-07 0.0005 1.46608e-07 
144 1 0.0176864 0.0240566 0.0126849 0.000986804 -0.00486695 0.00228964 -3.05167e-07 -1.09889e-07 -2.91474e-07 0.0005 1.46608e-07 
146 1 0.0185458 0.0237065 0.015569 -0.000649194 -0.000779922 -0.00964662 0 0 -1.43822e-06 0.0005 1.46608e-07 
147 1 0.0293644 0.0148003 0.0109986 0.00134057 -0.00176792 0.0129028 2.10184e-07 -3.01394e-07 -8.13896e-08 0.0005 1.46608e-07 
149 1 0.0199045 0.0244597 0.0135846 8.96213e-05 -0.000340904 0.00106855 3.01911e-06 -2.00544e-06 -2.25057e-07 0.0005 1.46608e-07 
150 1 0.0178839 0.0172937 0.0155894 0.00290712 0.0101892 0.00490995 -4.84333e-08 3.18754e-07 6.2639e-07 0.0005 1.46608e-07 
151 1 0.0191949 0.0176578 0.0173744 -0.0544981 -0.104766 -0.0270536 0 0 -1.43822e-06 0.0005 1.46608e-07 
152 1 0.0204059 0.0146472 0.0158983 -0.000192048 -0.000615693 -0.000969358 3.32443e-08 -4.50764e-07 -3.48403e-07 0.0005 1.46608e-07 
153 1 0.0240878 0.01703 0.0155495 0.0315394 -0.018966 -0.00257914 0 0 -1.43822e-06 0.0005 1.46608e-07 
154 1 0.0291525 0.0147553 0.01167 0.00422423 0.000105543 0.00366328 -9.21504e-08 -1.88494e-08 -2.95947e-07 0.0005 1.46608e-07 
155 1 0.016421 0.0231285 0.0132997 0.000776587 0.00386806 -0.00407812 1.67019e-06 -1.57782e-06 -2.6307e-06 0.0005 1.46608e-07 
156 1 0.015738 0.0217264 0.0160683 0.00583574 0.00194017 -0.00114914 3.01794e-06 -3.9907e-06 1.001e-06 0.0005 1.46608e-07 
157 1 0.0255338 0.0220306 0.00863133 0.00307723 -0.0117592 -0.0129756 -2.07081e-05 -2.1166e-05 2.47221e-05 0.0005 1.46608e-07 
158 1 0.0252781 0.0193743 0.016758 -0.0241316 -0.462369 0.208253 0 0 -1.43822e-06 0.0005 1.46608e-07 
159 1 0.0196065 0.0214223 0.0162846 -0.00111658 0.049808 0.0130788 0 0 -1.43822e-06 0.0005 1.46608e-07 
160 1 0.0207676 0.0169059 0.016366 -0.00300288 -0.0971598 -0.0507058 0 0 -1.43822e-06 0.0005 1.46608e-07 
161 1 0.0164698 0.0170578 0.0154803 0.000647357 0.00528415 0.00220049 0 0 -1.43822e-06 0.0005 1.46608e-07 
162 1 0.015078 0.0225505 0.0156682 0.00367497 0.00543461 -0.00408394 -1.74011e-06 5.0801e-07 1.99106e-06 0.0005 1.46608e-07 
164 1 0.0317272 0.0226653 0.00909114 0.000518255 -0.00748024 -0.0101663 1.1005e-07 -1.07287e-07 2.67116e-08 0.0005 1.46608e-07 
166 1 0.0204745 0.0128854 0.0205037 -0.257967 -0.145904 0.119943 0 0 -1.43822e-06 0.0005 1.46608e-07 
167 1 0.0242534 0.0169138 0.0168241 0.00894299 0.028555 -0.0254775 0 0 -1.43822e-06 0.0005 1.46608e-07 
168 1 0.0219294 0.0222717 0.0146214 -0.0926783 -0.0583201 0.10443 0 0 -1.43822e-06 0.0005 1.46608e-07 
169 1 0.0173805 0.0165295 0.0151688 0.00455046 0.00514511 0.00478436 -2.34227e-07 -1.95185e-07 9.33623e-07 0.0005 1.46608e-07 
170 1 0.0213264 0.02341 0.0144419 0.00381617 0.0128827 0.00122325 7.83286e-05 2.7108e-05 -3.85658e-05 0.0005 1.46608e-07 
172 1 0.0177563 0.0151904 0.015754 0.0074156 -0.00297481 -0.00317972 5.77326e-07 2.83323e-07 -5.90538e-07 0.0005 1.46608e-07 
175 1 0.0230147 0.0231842 0.0148136 0.00581295 -0.0356194 -0.0639296 0.000268561 0.000554108 0.000501687 0.0005 1.46608e-07 
176 1 0.0557224 0.0193212 0.00585087 2.76116e-15 8.33657e-15 1.95882e-13 1.10313e-19 -1.16904e-19 3.17637e-21 0.0005 1.46608e-07 
177 1 0.0217684 0.0238915 0.0137187 0.00167949 0.00209016 -0.000171252 -4.92047e-05 -3.02356e-05 -0.000139793 0.0005 1.46608e-07 
178 1 0.0180337 0.0220144 0.0185751 -0.0893281 -0.0446828 0.0281085 0 0 -1.43822e-06 0.0005 1.46608e-07 
179 1 0.0194528 0.0144072 0.0160829 -0.000637849 -0.00343153 -0.00676865 -1.38908e-08 -7.06267e-09 -1.42434e-06 0.0005 1.46608e-07 
180 1 0.0175376 0.0204261 0.0178437 -0.0634666 -0.0628055 -0.0425699 0 0 -1.43822e-06 0.0005 1.46608e-07 
181 1 0.0194811 0.0220876 0.00847766 0.000897271 -0.0152751 -0.0165251 -1.20697e-05 1.8124e-05 9.33777e-06 0.0005 1.46608e-07 
182 1 0.0153212 0.020802 0.0164691 -0.00826062 0.010067 0.0123676 0 0 -1.43822e-06 0.0005 1.46608e-07 
183 1 0.0167465 0.0214177 0.0162002 0.00596648 0.00165382 -0.00276719 -9.19167e-08 1.06369e-07 -1.30533e-06 0.0005 1.46608e-07 
184 1 0.022331 0.0147381 0.0153154 -0.00185909 0.000503054 -0.00122859 -1.33562e-06 7.6594e-07 7.52201e-07 0.0005 1.46608e-07 
185 1 0.0210691 0.0146637 0.0144327 -0.00115615 -0.000371772 -0.000530978 -7.43014e-08 -2.6923e-07 -3.55008e-07 0.0005 1.46608e-07 
186 1 0.0185146 0.0240617 0.0144522 -0.000149774 -3.13693e-05 0.000111675 -4.47309e-06 -3.36651e-07 2.48882e-06 0.0005 1.46608e-07 
188 1 0.0226451 0.0153893 0.0202307 -0.10692 0.096793 0.100616 0 0 -1.43822e-06 0.0005 1.46608e-07 
189 1 0.0141689 0.0174033 0.0198388 -0.321252 -0.131205 0.0384005 0 0 -1.43822e-06 0.0005 1.46608e-07 
190 1 0.0242506 0.0225984 0.0159857 0.0329773 -0.11622 0.015678 7.84771e-05 0.000844563 -0.0010934 0.0005 1.46608e-07 
192 1 0.0181798 0.0146229 0.0119362 -0.000751116 0.00142595 -0.00229165 -3.27421e-08 2.7343e-08 -2.23213e-07 0.0005 1.46608e-07 
193 1 0.0216776 0.017701 0.0200272 0.00705177 -0.195678 0.148951 0 0 -1.43822e-06 0.0005 1.46608e-07 
198 1 0.0251348 0.020753 0.00764458 -0.000705141 -0.0222924 -0.0129417 3.20115e-09 -8.04657e-09 1.01777e-08 0.0005 1.46608e-07 
200 1 0.0173732 0.0228518 0.0165005 0.00490601 -0.0299532 -0.00393713 0 0 -1.43822e-06 0.0005 1.46608e-07 
201 1 0.01828 0.0231475 0.0147821 0.00036156 0.000970651 0.000935474 -9.98427e-07 -7.37766e-06 -3.29776e-06 0.0005 1.46608e-07 
207 1 0.0159609 0.0144278 0.0141001 0.00149729 -0.000327766 -0.00106181 3.69117e-07 2.39139e-07 -8.51798e-08 0.0005 1.46608e-07 
208 1 0.0168467 0.0141082 0.0137632 0.00235615 -0.00125901 0.00105759 1.08412e-06 -1.05227e-06 1.42398e-06 0.0005 1.46608e-07 
209 1 0.0234515 0.0183955 0.0176099 -0.131668 0.0926544 -0.048291 0 0 -1.43822e-06 0.0005 1.46608e-07 
210 1 0.016579 0.0223678 0.015654 0.00354867 -0.00527816 0.00226553 0 0 -1.43822e-06 0.0005 1.46608e-07 
212 1 0.0236218 0.0226929 0.0153111 0.182642 0.0422825 -0.112483 -0.00024698 -0.000151326 0.000408662 0.0005 1.46608e-07 
213 1 0.0172098 0.0182491 0.0167113 -0.00381966 -0.0164724 0.0127502 0 0 -1.43822e-06 0.0005 1.46608e-07 
215 1 0.0365933 0.0210052 0.0435188 -7.87611e-318 -2.35442e-317 2.45735e-12 2.32656e-320 -2.46835e-320 0 0.0005 1.46608e-07 
216 1 0.0193007 0.016191 0.0159031 -0.00183846 0.0174529 0.00974118 0 0 -1.43822e-06 0.0005 1.46608e-07 
219 1 0.0154822 0.0229687 0.0135991 0.00354478 0.00101385 -0.00361021 -5.13513e-07 2.34786e-06 -7.12197e-06 0.0005 1.46608e-07 
220 1 0.0251694 0.0183895 0.0188147 -0.0306131 -0.0975654 0.0899479 0 0 -1.43822e-06 0.0005 1.46608e-07 
221 1 0.0173781 0.0207889 0.016666 -0.000411506 -0.00443573 0.00120301 0 0 -1.43822e-06 0.0005 1.46608e-07 
222 1 0.0206406 0.0238249 0.0122891 0.00109992 -0.00292675 -0.00498642 1.04468e-05 -2.01872e-05 6.60106e-05 0.0005 1.46608e-07 
224 1 0.0218962 0.0143594 0.0139602 -0.000464643 -0.000906491 0.00103726 8.92521e-08 4.91587e-08 -1.99972e-07 0.0005 1.46608e-07 
225 1 0.0186663 0.0217178 0.0160293 0.00697939 0.00913734 0.00610779 0 0 -1.43822e-06 0.0005 1.46608e-07 
227 1 0.0177158 0.0146638 0.0149001 0.0035879 0.00163164 -0.00779371 0 0 -1.43822e-06 0.0005 1.46608e-07 
228 1 0.0174773 0.0235962 0.015338 0.000292356 -0.000722199 0.000919352 5.05337e-06 4.58038e-06 -2.29952e-07 0.0005 1.46608e-07 
229 1 0.0153553 0.0210057 0.0154905 0.0114225 -0.0067668 0.00500307 -1.55041e-06 -7.48189e-07 -4.27193e-06 0.0005 1.46608e-07 
231 1 0.0225715 0.015838 0.01458 0.00422398 0.00234993 0.0051849 -3.01936e-06 5.49191e-07 -1.31283e-07 0.0005 1.46608e-07 
236 1 0.0201286 0.0140454 0.0130103 0.000158644 0.00116664 -0.001393 1.77092e-07 -4.37606e-07 2.74845e-07 0.0005 1.46608e-07 
237 1 0.0160106 0.0180243 0.0158395 0.00247042 0.0150753 0.00375048 -4.14015e-08 2.08875e-07 -7.13147e-09 0.0005 1.46608e-07 
238 1 0.0218947 0.0162053 0.0213188 -0.0510284 -0.300853 0.236868 0 0 -1.43822e-06 0.0005 1.46608e-07 
239 1 0.0171963 0.0146367 0.0121299 0.0015285 0.00190842 -0.00556139 -1.54756e-07 3.6908e-07 -7.19258e-07 0.0005 1.46608e-07 
240 1 0.0167489 0.0187991 0.0159481 0.00629457 -0.000538287 0.00272356 -1.45292e-06 3.90207e-06 1.0197e-05 0.0005 1.46608e-07 
242 1 0.015159 0.0147801 0.0145825 0.00130172 -0.00055317 -0.000591062 -2.79337e-07 -1.47727e-08 -1.49783e-07 0.0005 1.46608e-07 
243 1 0.0150423 0.023321 0.0148378 0.00224199 0.000575089 -0.00100345 -5.80266e-06 -2.16895e-06 -1.28462e-06 0.0005 1.46608e-07 
244 1 0.0135382 0.018314 0.0167261 0.000329221 0.024321 0.0765388 0 0 -1.43822e-06 0.0005 1.46608e-07 
246 1 0.0287702 0.0152774 0.0134294 -4.97795e-05 0.0101775 0.0237131 -1.44388e-09 1.53546e-08 -4.4023e-09 0.0005 1.46608e-07 
247 1 0.0257716 0.0130397 0.0265378 -0.0489706 -0.296585 0.460809 0 0 -1.43822e-06 0.0005 1.46608e-07 
248 1 0.0155751 0.0200736 0.0158253 0.0052331 0.00710825 0.00586383 0 0 -1.43822e-06 0.0005 1.46608e-07 
250 1 0.014939 0.0225136 0.0142799 0.00466305 0.00157438 -0.00388586 1.87309e-07 4.37781e-06 -6.70858e-06 0.0005 1.46608e-07 
251 1 0.0216621 0.0245846 0.0205129 -0.00633162 0.0684271 0.153244 0 0 -1.43822e-06 0.0005 1.46608e-07 
252 1 0.0217564 0.0148216 0.016702 -0.0775478 -0.198176 -0.0160882 0 0 -1.43822e-06 0.0005 1.46608e-07 
253 1 0.0155816 0.0225763 0.016571 0.00270403 0.00402288 0.000116946 2.24495e-06 -4.06208e-06 6.86378e-07 0.0005 1.46608e-07 
256 1 0.0210566 0.0198244 0.0275044 -0.0380438 -0.120987 0.538434 0 0 -1.43822e-06 0.0005 1.46608e-07 
257 1 0.0157501 0.0156322 0.0155452 -0.00608027 -0.00190175 -0.0050368 5.052e-08 -2.52281e-07 -6.60305e-07 0.0005 1.46608e-07 
258 1 0.0176691 0.0217897 0.0160681 0.00977884 -0.00216761 7.98213e-05 -1.00961e-07 2.58022e-07 -1.43164e-06 0.0005 1.46608e-07 
259 1 0.0216652 0.0233608 0.0125977 0.00253513 -2.59293e-05 0.00376943 -3.803e-05 -9.4146e-06 -6.71206e-06 0.0005 1.46608e-07 
260 1 0.019988 0.0188269 0.00721054 0.000167956 -0.0252453 0.00033426 1.06977e-06 3.11985e-06 3.06977e-08 0.0005 1.46608e-07 
261 1 0.0204759 0.0151768 0.015053 -0.000356786 0.00034638 -0.000386411 -2.08076e-07 -3.87093e-07 -3.55027e-07 0.0005 1.46608e-07 
262 1 0.0171271 0.022892 0.0178208 -0.0897481 0.00543305 -0.0153938 0 0 -1.43822e-06 0.0005 1.46608e-07 
263 1 0.0220754 0.0185212 0.0159194 -0.133164 -0.0928397 -0.0298886 0 0 -1.43822e-06 0.0005 1.46608e-07 
264 1 0.0286896 0.0188118 0.00592076 1.0044e-14 -7.85492e-17 1.17824e-13 -1.58819e-22 2.11221e-21 0 0.0005 1.46608e-07 
266 1 0.013288 0.0213989 0.0161901 0.0039293 0.00533951 -0.00221445 -3.09897e-06 -1.70954e-06 1.76157e-06 0.0005 1.46608e-07 
267 1 0.0202406 0.0144015 0.0139379 0.000766122 -0.00105967 -3.60611e-05 4.54497e-07 -8.16449e-07 -7.15957e-07 0.0005 1.46608e-07 
268 1 0.0162513 0.0231494 0.0170434 0.00168384 0.00152909 0.000253308 -8.55901e-09 -4.13082e-08 -1.43533e-06 0.0005 1.46608e-07 
270 1 0.0228256 0.0243469 0.0207623 0.0254632 0.0504952 0.113534 0 0 -1.43822e-06 0.0005 1.46608e-07 
271 1 0.0183383 0.0230486 0.0162997 -0.00358834 -0.00857771 -0.0219607 0 0 -1.43822e-06 0.0005 1.46608e-07 
272 1 0.0165602 0.0197809 0.0158986 0.00701705 -0.000322857 0.00109943 1.38383e-06 -4.18378e-06 -9.17063e-06 0.0005 1.46608e-07 
273 1 0.0158768 0.0234207 0.0153624 0.0017266 0.000863574 0.000167537 -9.65796e-06 -6.89197e-07 5.28849e-06 0.0005 1.46608e-07 
276 1 0.0189464 0.0144955 0.0152251 0.000968763 -0.000914257 -0.00742617 -3.91029e-08 -3.64042e-09 -1.14947e-06 0.0005 1.46608e-07 
277 1 0.0209956 0.023696 0.016289 0.00341741 0.00537677 -0.0472291 0 0 -1.43822e-06 0.0005 1.46608e-07 
279 1 0.025212 0.021789 0.0167299 0.038788 0.140251 -0.118261 -0.00234487 -0.000160457 0.0031906 0.0005 1.46608e-07 
280 1 0.0277831 0.0188834 0.0158468 0.00110163 0.0233116 0.000616137 5.20395e-07 3.46443e-07 1.13311e-06 0.0005 1.46608e-07 
281 1 0.0175486 0.0142321 0.0129737 0.00140822 0.00189433 -0.00611617 -2.30385e-07 1.54671e-07 9.74394e-07 0.0005 1.46608e-07 
285 1 0.0183273 0.0148575 0.0130224 0.00449076 -0.00213401 -0.0059547 3.28552e-07 1.98863e-07 -2.3146e-08 0.0005 1.46608e-07 
287 1 0.0177473 0.0145166 0.0139114 0.00184924 0.00202722 -0.0067629 8.63768e-08 6.17278e-07 1.14811e-06 0.0005 1.46608e-07 
288 1 0.0191815 0.0241099 0.0128876 0.000402945 0.000130529 4.74824e-05 1.05977e-06 9.4098e-08 4.92941e-08 0.0005 1.46608e-07 
289 1 0.0182962 0.018817 0.0167541 -0.0032367 -0.00160696 -0.000793507 8.43774e-08 3.1326e-07 -1.79666e-07 0.0005 1.46608e-07 
290 1 0.0220984 0.0238071 0.0148622 0.00692424 -0.0151983 0.0154418 -4.69094e-05 -0.000280734 -0.00015393 0.0005 1.46608e-07 
291 1 0.0235018 0.0149482 0.0103299 0.000424202 -0.00479687 0.0135911 5.36236e-08 3.06867e-08 -1.64109e-07 0.0005 1.46608e-07 
292 1 0.0195002 0.015328 0.0152112 -0.000111574 0.000115912 0.00229703 -5.64122e-08 -9.49437e-08 -3.55398e-07 0.0005 1.46608e-07 
294 1 0.0168349 0.0221318 0.0147164 0.00591831 0.0018634 0.00263975 -4.36035e-06 7.08716e-07 1.16357e-06 0.0005 1.46608e-07 
296 1 0.0243446 0.0151434 0.00964532 -0.00074214 0.00719603 0.00735703 1.17049e-05 0.000796216 0.000442162 0.0005 1.46608e-07 
297 1 0.0214819 0.0152509 0.0151439 -0.00639833 0.00439168 0.0042656 0 0 -1.43822e-06 0.0005 1.46608e-07 
298 1 0.0230798 0.017354 0.015929 -0.0469912 0.0469914 -0.0403757 0 0 -1.43822e-06 0.0005 1.46608e-07 
299 1 0.0391006 0.0190317 0.00571839 -8.50382e-15 4.07947e-14 -2.01662e-13 4.18825e-19 1.38278e-19 1.03762e-20 0.0005 1.46608e-07 
300 1 0.0171736 0.0213911 0.0152964 0.00784746 0.00510706 -0.00180557 -5.906e-07 -5.21174e-06 2.05948e-07 0.0005 1.46608e-07 
301 1 0.0205198 0.0234027 0.0129686 0.00573166 -0.00287619 -0.00446425 3.56105e-05 -5.60893e-05 0.000113753 0.0005 1.46608e-07 
302 1 0.0177636 0.0197752 0.0171121 -0.00747657 0.00371187 0.026878 0 0 -1.43822e-06 0.0005 1.46608e-07 
303 1 0.0200408 0.0232897 0.0106376 0.00138926 -0.00370473 -0.0155675 -8.39786e-07 -1.16563e-07 2.44821e-07 0.0005 1.46608e-07 
305 1 0.0247115 0.0219174 0.0158412 0.00887276 -0.0796468 -0.00880274 7.92139e-05 0.00189443 9.18161e-05 0.0005 1.46608e-07 
306 1 0.0212566 0.0230783 0.0133237 -0.000100184 -0.000607707 0.00214623 -5.75065e-05 -9.00629e-05 5.77856e-05 0.0005 1.46608e-07 
307 1 0.0138516 0.0204693 0.028683 -0.44731 -0.0774336 0.540742 0 0 -1.43822e-06 0.0005 1.46608e-07 
308 1 0.0185512 0.0151392 0.0143617 -0.0037813 0.00728712 -0.0276247 -4.88974e-07 4.12785e-07 -7.12807e-07 0.0005 1.46608e-07 
309 1 0.0163548 0.0203696 0.0220886 -0.243001 -0.106891 0.178809 0 0 -1.43822e-06 0.0005 1.46608e-07 
311 1 0.0256327 0.0203302 0.0165539 -0.276259 0.0936841 -0.10042 0.00938592 0.00117607 0.000571827 0.0005 1.46608e-07 
312 1 0.0175554 0.019537 0.015937 0.00266607 -0.0051276 -0.0211563 0 0 -1.43822e-06 0.0005 1.46608e-07 
313 1 0.0191322 0.0198385 0.0166907 0.0133505 -0.0042488 0.000927864 0 0 -1.43822e-06 0.0005 1.46608e-07 
314 1 0.01885 0.0167191 0.00784927 -9.69377e-05 -0.0154544 0.00924331 -1.52023e-06 -6.91257e-06 7.41554e-06 0.0005 1.46608e-07 
319 1 0.0228203 0.0166404 0.0152363 -0.0186749 -0.0469543 -0.0539505 2.65773e-06 1.6739e-05 1.41813e-05 0.0005 1.46608e-07 
320 1 0.0196439 0.0195937 0.00728807 6.30516e-05 -0.0249542 -0.00694063 -8.25796e-07 -6.11992e-08 9.8809e-08 0.0005 1.46608e-07 
321 1 0.0208448 0.02268 0.0140561 0.000831682 0.0081293 -0.00711355 -6.5359e-05 -5.4459e-05 0.000136672 0.0005 1.46608e-07 
323 1 0.0186809 0.0225637 0.0154933 0.000275336 -0.0155412 -0.0249422 0 0 -1.43822e-06 0.0005 1.46608e-07 
324 1 0.018827 0.0192968 0.00718515 7.17678e-05 -0.0249413 -0.00191049 -1.04879e-07 3.19834e-07 6.44474e-08 0.0005 1.46608e-07 
325 1 0.0176644 0.0243234 0.0139967 0.000268935 0.0001129 0.000494814 -5.12371e-07 -2.20707e-06 4.09582e-06 0.0005 1.46608e-07 
326 1 0.016688 0.024105 0.0143538 -0.000266513 -7.48248e-05 0.000262774 -4.76037e-07 -1.45349e-06 2.14246e-06 0.0005 1.46608e-07 
327 1 0.0203137 0.020665 0.00755299 3.69885e-05 -0.0229978 -0.00941675 -4.33245e-10 -1.03956e-08 1.01803e-08 0.0005 1.46608e-07 
328 1 0.024217 0.0155621 0.0154975 0.00240651 -0.0051219 -0.00534463 0 0 -1.43822e-06 0.0005 1.46608e-07 
329 1 0.0164586 0.0162226 0.0149304 0.0047188 0.00475321 0.00302439 1.47854e-07 -5.31392e-08 -5.88481e-07 0.0005 1.46608e-07 
331 1 0.0163191 0.0207139 0.0156319 0.00782164 -0.000576166 -0.00071584 -9.20523e-07 5.02057e-06 1.52158e-07 0.0005 1.46608e-07 
332 1 0.0180429 0.0161407 0.00831944 0.000977498 -0.0178056 0.0169707 -2.7306e-08 -1.59506e-08 3.20495e-08 0.0005 1.46608e-07 
334 1 0.0284949 0.0160079 0.0145164 0.0016261 0.0137344 0.0147488 3.00869e-08 -6.26386e-08 -7.13026e-08 0.0005 1.46608e-07 
338 1 0.0190732 0.0206488 0.0075298 0.000141335 -0.0230396 -0.00944033 -1.20795e-10 -1.14295e-08 1.09684e-08 0.0005 1.46608e-07 
339 1 0.0184341 0.0140657 0.0144816 -0.000940225 -0.00109803 -0.00612943 7.26573e-07 8.07132e-10 -1.20807e-06 0.0005 1.46608e-07 
340 1 0.016708 0.0230941 0.0149383 0.0023524 0.0016019 0.000823821 -1.00573e-05 1.11152e-06 -2.62885e-08 0.0005 1.46608e-07 
341 1 0.0161311 0.0215761 0.0151608 0.0055675 -0.00279292 -0.00148542 0 0 -1.43822e-06 0.0005 1.46608e-07 
