LIGGGHTS (Version LIGGGHTS-PUBLIC 3.8.0, compiled 2026-05-30-04:17:57 by root, git commit 3d5c00f20519e6bb6eb6756f51f1ad36564e649d)
##################################Header for General commands#######################################################

atom_style	granular		#Simulation of particles

boundary	f f f			#fixed boundaries -> particles will be deleted if leaving the simulation box

units		si

communicate	multi vel yes		#default

newton		off			#default


###################################System variables##################################################################

#Definition of boundaries

variable xmin equal -0.02
variable xmax equal 0.43

variable ymin equal -0.02
variable ymax equal 0.06

variable zmin equal -0.02
variable zmax equal 0.07

#Definition of the timestep

variable dt equal 1e-6


###################################Specific variables for current simulation#########################################

variable natoms equal 2 				#1 -> particle #2 ->pipe and screw


####variable for material properties####

####Young Modulus####
variable	youngmodulus1	equal 	7e6
variable	youngmodulus2	equal 	2e8

####Poission ratio####
variable 	poission1	equal	0.30
variable 	poission2	equal	0.29


####variable for contact properties####

####coefficient of restitution####
variable	CoR11	equal	0.6
variable	CoR12	equal	0.3
variable	CoR21	equal	0.3
variable	CoR22	equal	0.45

####sliding friction coefficient####
variable	sf11	equal	0.65	#Particle-particle sliding friction coefficient
variable	sf12	equal	0.6
variable	sf21	equal	0.6
variable	sf22	equal	0.0

####rolling friction coefficient####
variable	rf11	equal	0.75	#Particle-particle rolling friction coefficient
variable	rf12	equal	0.5
variable	rf21	equal	0.5
variable	rf22	equal	0.0


####variable for particle####

#Number of particle radius
variable	nradii	equal	3

variable	radius1	equal	0.0005	#m
variable	radius2	equal	0.0005	#m
variable	radius3	equal	0.0005	#m

variable	frac1	equal	0.3945
variable	frac2	equal	0.4059
variable	frac3	equal	0.1996

variable	density	equal	280		#kg/m³


####filling parameters####

variable	filltime	equal	2.0		#s, prueba rápida: alimentar 2 s

variable	dischargetime	equal	90		#s, tiempo para que puedan salir partículas

variable	fillmass	equal	4.4e-5 		#kg, 2 g de material

variable	fillmassrate	equal	${fillmass}/${filltime}	#kg/s
variable	fillmassrate	equal	4.4e-05/${filltime}	
variable	fillmassrate	equal	4.4e-05/2	

variable	fillsteps	equal	${filltime}/${dt}
variable	fillsteps	equal	2/${dt}
variable	fillsteps	equal	2/1e-06

variable	dischargesteps	equal	${dischargetime}/${dt}
variable	dischargesteps	equal	90/${dt}
variable	dischargesteps	equal	90/1e-06


####screw velocities####

variable	screwPeriod	equal	1.209		#s, prueba rápida: 2 vueltas/s


###################################Definition of simulationbox#######################################################

region		reg block ${xmin} ${xmax} ${ymin} ${ymax} ${zmin} ${zmax} units box
region		reg block -0.02 ${xmax} ${ymin} ${ymax} ${zmin} ${zmax} units box
region		reg block -0.02 0.43 ${ymin} ${ymax} ${zmin} ${zmax} units box
region		reg block -0.02 0.43 -0.02 ${ymax} ${zmin} ${zmax} units box
region		reg block -0.02 0.43 -0.02 0.06 ${zmin} ${zmax} units box
region		reg block -0.02 0.43 -0.02 0.06 -0.02 ${zmax} units box
region		reg block -0.02 0.43 -0.02 0.06 -0.02 0.07 units box

processors 6 1 1

create_box	2 reg
Created orthogonal box = (-0.02 -0.02 -0.02) to (0.43 0.06 0.07)
  6 by 1 by 1 MPI processor grid

neighbor	0.001 bin

neigh_modify	delay 0


#################################Definition of the contact models####################################################

pair_style gran model hertz tangential history rolling_friction epsd2

pair_coeff	* *

timestep ${dt}
timestep 1e-06

thermo 1000

fix		integrator all nve/sphere

fix		gravi all gravity 9.81 vector 0.0 0.0 -1.0


###################################Definition of Material properties#################################################

fix 		m1 all property/global youngsModulus peratomtype ${youngmodulus1} ${youngmodulus2}
fix 		m1 all property/global youngsModulus peratomtype 7000000 ${youngmodulus2}
fix 		m1 all property/global youngsModulus peratomtype 7000000 200000000

fix 		m2 all property/global poissonsRatio peratomtype ${poission1} ${poission2}
fix 		m2 all property/global poissonsRatio peratomtype 0.3 ${poission2}
fix 		m2 all property/global poissonsRatio peratomtype 0.3 0.29

fix 		m3 all property/global coefficientRestitution peratomtypepair ${natoms} ${CoR11} ${CoR12} ${CoR21} ${CoR22}
fix 		m3 all property/global coefficientRestitution peratomtypepair 2 ${CoR11} ${CoR12} ${CoR21} ${CoR22}
fix 		m3 all property/global coefficientRestitution peratomtypepair 2 0.6 ${CoR12} ${CoR21} ${CoR22}
fix 		m3 all property/global coefficientRestitution peratomtypepair 2 0.6 0.3 ${CoR21} ${CoR22}
fix 		m3 all property/global coefficientRestitution peratomtypepair 2 0.6 0.3 0.3 ${CoR22}
fix 		m3 all property/global coefficientRestitution peratomtypepair 2 0.6 0.3 0.3 0.45

fix 		m4 all property/global coefficientFriction peratomtypepair ${natoms} ${sf11} ${sf12} ${sf21} ${sf22}
fix 		m4 all property/global coefficientFriction peratomtypepair 2 ${sf11} ${sf12} ${sf21} ${sf22}
fix 		m4 all property/global coefficientFriction peratomtypepair 2 0.65 ${sf12} ${sf21} ${sf22}
fix 		m4 all property/global coefficientFriction peratomtypepair 2 0.65 0.6 ${sf21} ${sf22}
fix 		m4 all property/global coefficientFriction peratomtypepair 2 0.65 0.6 0.6 ${sf22}
fix 		m4 all property/global coefficientFriction peratomtypepair 2 0.65 0.6 0.6 0

fix 		m5 all property/global coefficientRollingFriction peratomtypepair ${natoms} ${rf11} ${rf12} ${rf21} ${rf22}
fix 		m5 all property/global coefficientRollingFriction peratomtypepair 2 ${rf11} ${rf12} ${rf21} ${rf22}
fix 		m5 all property/global coefficientRollingFriction peratomtypepair 2 0.75 ${rf12} ${rf21} ${rf22}
fix 		m5 all property/global coefficientRollingFriction peratomtypepair 2 0.75 0.5 ${rf21} ${rf22}
fix 		m5 all property/global coefficientRollingFriction peratomtypepair 2 0.75 0.5 0.5 ${rf22}
fix 		m5 all property/global coefficientRollingFriction peratomtypepair 2 0.75 0.5 0.5 0


###################################Generation and Loading of the Geometry .stl#######################################

fix case all mesh/surface file case_remesh.stl type 2 heal auto_remove_duplicates scale 1.0 curvature 1e-5 curvature_tolerant yes

fix screw all mesh/surface file screw_simplified.stl type 2 scale 1.0 curvature 1e-5 curvature_tolerant yes

fix 		walls 		all wall/gran model hertz tangential history rolling_friction epsd2 mesh n_meshes 2 meshes case screw

fix		Movescrew	all move/mesh mesh screw rotate origin 0.2024435 0.019051 0.011497 axis -1. 0. 0. period ${screwPeriod}
fix		Movescrew	all move/mesh mesh screw rotate origin 0.2024435 0.019051 0.011497 axis -1. 0. 0. period 1.209

fix feed all mesh/surface file feed.stl type 2 scale 1.0 curvature 1e-5 curvature_tolerant yes

fix outlet all mesh/surface file outlet_1.stl type 2 scale 1.0 curvature 1e-5 curvature_tolerant yes


###################################Generation and Insertion of the particles#########################################

fix pts1 all particletemplate/sphere 10487 atom_type 1 density constant ${density} radius constant ${radius1} volume_limit 1e-18
fix pts1 all particletemplate/sphere 10487 atom_type 1 density constant 280 radius constant ${radius1} volume_limit 1e-18
fix pts1 all particletemplate/sphere 10487 atom_type 1 density constant 280 radius constant 0.0005 volume_limit 1e-18

fix pts2 all particletemplate/sphere 11887 atom_type 1 density constant ${density} radius constant ${radius2} volume_limit 1e-18
fix pts2 all particletemplate/sphere 11887 atom_type 1 density constant 280 radius constant ${radius2} volume_limit 1e-18
fix pts2 all particletemplate/sphere 11887 atom_type 1 density constant 280 radius constant 0.0005 volume_limit 1e-18

fix pts3 all particletemplate/sphere 16561 atom_type 1 density constant ${density} radius constant ${radius3} volume_limit 1e-18
fix pts3 all particletemplate/sphere 16561 atom_type 1 density constant 280 radius constant ${radius3} volume_limit 1e-18
fix pts3 all particletemplate/sphere 16561 atom_type 1 density constant 280 radius constant 0.0005 volume_limit 1e-18

fix 		pdd1 all particledistribution/discrete 32452867 ${nradii} pts1 ${frac1} pts2 ${frac2} pts3 ${frac3}
fix 		pdd1 all particledistribution/discrete 32452867 3 pts1 ${frac1} pts2 ${frac2} pts3 ${frac3}
fix 		pdd1 all particledistribution/discrete 32452867 3 pts1 0.3945 pts2 ${frac2} pts3 ${frac3}
fix 		pdd1 all particledistribution/discrete 32452867 3 pts1 0.3945 pts2 0.4059 pts3 ${frac3}
fix 		pdd1 all particledistribution/discrete 32452867 3 pts1 0.3945 pts2 0.4059 pts3 0.1996

fix		ins_mesh all mesh/surface/planar file feed.stl type 1 scale 1.0

fix 		ins all insert/stream seed 15485863 distributiontemplate pdd1         	mass ${fillmass} massrate ${fillmassrate} overlapcheck yes all_in yes vel constant 0 0 -0.03         	insertion_face ins_mesh extrude_length 0.015
fix 		ins all insert/stream seed 15485863 distributiontemplate pdd1         	mass 4.4e-05 massrate ${fillmassrate} overlapcheck yes all_in yes vel constant 0 0 -0.03         	insertion_face ins_mesh extrude_length 0.015
fix 		ins all insert/stream seed 15485863 distributiontemplate pdd1         	mass 4.4e-05 massrate 2.2e-05 overlapcheck yes all_in yes vel constant 0 0 -0.03         	insertion_face ins_mesh extrude_length 0.015


################################### Particle Residence Time Track#########################################

fix 	rt_outlet	all massflow/mesh mesh outlet vec_side 0 0 -1 file rt_outlet.txt writeTime

fix 	rt_inlet	all massflow/mesh mesh feed vec_side 0 0 -1 file rt_inlet.txt writeTime


###################################Outlet mass flow track#########################################

fix	mfout	all massflow/mesh mesh outlet vec_side 0 0 -1

fix	mfin	all massflow/mesh mesh feed vec_side 0 0 -1

variable 	time equal step*dt

variable 	in_mass_flow equal	f_mfin[3]

variable 	out_mass_flow equal	f_mfout[3]

fix mass_flow_rate all print 5000 "${time},${in_mass_flow},${out_mass_flow}" screen no title "t,in_mass_flow,out_mass_flow" file massflow.csv


###################################Dumping of the data for post-processing to visualize############################

#fix ts_check all check/timestep/gran 1000 0.1 0.1

shell 	mkdir -p post

variable dumptime equal 0.2		#guarda cada 0.05 s

variable dumpstep equal ${dumptime}/${dt}
variable dumpstep equal 0.2/${dt}
variable dumpstep equal 0.2/1e-06

dump	dmpparticle all custom ${dumpstep} post/particles_*.liggghts id type x y z vx vy vz fx fy fz radius mass
dump	dmpparticle all custom 200000 post/particles_*.liggghts id type x y z vx vy vz fx fy fz radius mass

dump_modify	dmpparticle sort id

dump	dmpscrew	all	mesh/stl ${dumpstep} post/screw_*.stl screw
dump	dmpscrew	all	mesh/stl 200000 post/screw_*.stl screw


####################################RUN the simulation filling and discharge###########################################################

run	${fillsteps}
run	2000000
Setting up run at Sat May 30 11:50:53 2026

WARNING: Fix mesh: Mesh contains highly skewed element, moving mesh (if used) will not parallelize well (../surface_mesh_I.h:657)
WARNING: Fix mesh: Mesh contains highly skewed element, moving mesh (if used) will not parallelize well (../surface_mesh_I.h:657)
INFO: Particle insertion ins: 75.030187 particles every 500000 steps - particle rate 150.060375, (mass rate 2.200000e-05)
      300 particles (mass 4.398230e-05) within 1500000 steps
Memory usage per processor = 14.7696 Mbytes
    Step    Atoms         KinEng            CPU 
       0        0              0              0 
INFO: Particle insertion ins: inserted 75 particle templates (mass 1.099557e-05) at step 1
 - a total of 75 particle templates (mass 1.099557e-05) inserted so far.
    1000       75  4.9480084e-09      3.1307843 
    2000       75  4.9480084e-09      6.2446552 
    3000       75  4.9480084e-09      9.1496816 
    4000       75  4.9480084e-09      12.126316 
    5000       75  4.9480084e-09      15.210793 
    6000       75  4.9480084e-09      18.506282 
    7000       75  4.9480084e-09      21.882863 
    8000       75  4.9480084e-09      24.859746 
    9000       75  4.9480084e-09      27.938262 
   10000       75  4.9480084e-09      31.010227 
   11000       75  4.9480084e-09      34.002307 
   12000       75  4.9480084e-09      37.265421 
   13000       75  4.9480084e-09      40.510239 
   14000       75  4.9480084e-09      43.714861 
   15000       75  4.9480084e-09      46.726166 
   16000       75  4.9480084e-09      49.935694 
   17000       75  4.9480084e-09      53.070176 
   18000       75  4.9604308e-09      56.627153 
   19000       75  5.0145189e-09      60.119818 
   20000       75   5.082716e-09      63.600205 
   21000       75   5.165022e-09      66.861677 
   22000       75   5.261437e-09      70.087158 
   23000       75  5.3719609e-09      73.025624 
   24000       75  5.4965937e-09      75.478823 
   25000       75  5.6353356e-09      78.321877 
   26000       75  5.7881863e-09      80.974359 
   27000       75   5.955146e-09      83.537169 
   28000       75  6.1362147e-09      86.041662 
   29000       75  6.3313923e-09      88.553948 
   30000       75  6.5406789e-09      91.166182 
   31000       75  6.7640744e-09      93.817014 
   32000       75  7.0015789e-09      96.296316 
   33000       75  7.2996171e-09      99.259225 
   34000       75  5.2090959e-09      101.59685 
   35000       75  5.2298493e-09      103.43626 
   36000       75  5.2788206e-09      105.33753 
   37000       75  5.3560098e-09      107.36539 
   38000       75  5.5050991e-09      109.42931 
   39000       75  5.7014046e-09      111.79921 
   40000       75  5.9400369e-09      113.68838 
   41000       75  6.2230615e-09      116.36775 
   42000       75  6.5972188e-09      119.34039 
   43000       75  7.0278119e-09      122.20793 
   44000       75  7.5148408e-09       125.0733 
   45000       75  7.9937968e-09      128.09189 
   46000       75  8.2685689e-09      131.34511 
   47000       75  8.8249253e-09      134.45733 
   48000       75  9.4377175e-09      137.61638 
   49000       75  7.4269567e-09      140.35917 
   50000       75  7.7539719e-09      143.33381 
   51000       75  8.1278506e-09      145.39238 
   52000       75  8.5444937e-09      147.99588 
   53000       75  9.0044253e-09      150.68168 
   54000       75  6.8486491e-09      153.46791 
   55000       75  7.1236701e-09      156.06335 
   56000       75   7.506465e-09      158.83875 
   57000       75  7.9626296e-09      161.87441 
   58000       75  8.4930776e-09      164.84569 
   59000       75  9.0989795e-09      167.92092 
   60000       75  9.7828948e-09      171.09927 
   61000       75  1.0547853e-08      173.95092 
   62000       75  1.0952601e-08      176.85566 
   63000       75  1.1603439e-08      179.86965 
   64000       75  1.2532622e-08      182.91239 
   65000       75  8.8221316e-09      185.87806 
   66000       75  9.5118694e-09      189.09684 
   67000       75  1.0286729e-08      192.36298 
   68000       75  1.1146994e-08      195.51187 
   69000       75  1.2107594e-08      198.50124 
   70000       75  1.3242866e-08       201.4275 
   71000       75  9.5838198e-09      204.56509 
   72000       75  8.8657505e-09      207.43742 
   73000       75  8.2523077e-09      210.04196 
   74000       75  8.7743011e-09      212.93518 
   75000       75  9.4090907e-09      215.47746 
   76000       75  1.0156725e-08      218.10031 
   77000       75  1.1017221e-08      221.22305 
   78000       75  1.1990586e-08       224.3267 
   79000       75  1.3076821e-08      227.17314 
   80000       75  1.3884766e-08      230.07117 
   81000       75  1.4797792e-08      232.95721 
   82000       75  1.2245785e-08      235.93566 
   83000       75  1.2765761e-08      238.87561 
   84000       75  1.1885639e-08      241.65443 
   85000       75  1.2734444e-08      244.94258 
   86000       75   9.739772e-09      247.96669 
   87000       75  1.0102139e-08       251.1144 
   88000       75  8.2132622e-09      254.11211 
   89000       75  8.5459694e-09      257.07059 
   90000       75  8.9804984e-09      260.08496 
   91000       75   6.632428e-09      263.18074 
   92000       75   7.020341e-09      266.17906 
   93000       75  7.4774593e-09      268.97109 
   94000       75  7.8334828e-09      271.72271 
   95000       75  7.7004926e-09      274.28271 
   96000       75  7.6076359e-09      277.00467 
   97000       75  7.9993399e-09      279.88224 
   98000       75  8.0703394e-09      283.02707 
   99000       75   8.469803e-09      286.30608 
  100000       75   8.970112e-09      289.48661 
  101000       75  9.4313967e-09      292.74894 
  102000       75  9.9321196e-09      295.92162 
  103000       75  1.0522494e-08      299.14868 
  104000       75  1.1225944e-08      302.34587 
  105000       75   8.837218e-09       304.7648 
  106000       75  9.3576263e-09      306.99876 
  107000       75  9.9665509e-09      310.02799 
  108000       75  1.0668719e-08      313.30112 
  109000       75  1.1444472e-08      316.23917 
  110000       75  1.2293927e-08       319.6068 
  111000       75  1.0202908e-08      322.88651 
  112000       75  1.0041677e-08      325.77515 
  113000       75  1.0762527e-08      328.79795 
  114000       75  1.1597234e-08      331.87688 
  115000       75  1.2490815e-08      334.83964 
  116000       75  1.1724618e-08      337.52735 
  117000       75  1.2664824e-08      340.58498 
  118000       75  1.3492169e-08      343.74099 
  119000       75  1.4561273e-08       346.8862 
  120000       75  1.5728594e-08      350.14536 
  121000       75  1.5243782e-08      353.72786 
  122000       75  1.0063443e-08      357.20606 
  123000       75   8.181632e-09      360.86709 
  124000       75  8.4404106e-09      364.30649 
  125000       75  8.8926477e-09      367.69033 
  126000       75  9.4499941e-09      371.26395 
  127000       75  1.0100818e-08      374.81878 
  128000       75  1.0873285e-08      378.38594 
  129000       75  1.1744399e-08      381.91797 
  130000       75  1.2308925e-08      385.21031 
  131000       75  1.0700839e-08      388.46365 
  132000       75   1.136313e-08      391.81455 
  133000       75  1.2244199e-08      394.99999 
  134000       75  1.0092084e-08      398.25622 
  135000       75  1.0913086e-08      401.53786 
  136000       75  1.1914217e-08      404.41742 
  137000       75  1.0351483e-08      407.14374 
  138000       75  1.1296426e-08      409.91328 
  139000       75  1.2380879e-08      412.38541 
  140000       75  1.3341628e-08      414.19899 
  141000       75  1.0959256e-08       416.5761 
  142000       75  1.1457808e-08       419.5547 
  143000       75  1.2512249e-08      422.40511 
  144000       75  1.3607295e-08      425.22987 
  145000       75   1.495229e-08      428.16602 
  146000       75  1.5967788e-08      431.43188 
  147000       75  1.7528226e-08       434.6474 
  148000       75  1.9258148e-08      437.87118 
  149000       75  1.7979346e-08      441.23628 
  150000       75  1.9405974e-08      444.53242 
  151000       75  2.0431264e-08      447.77998 
  152000       75   1.722147e-08      451.02106 
  153000       75  1.5771391e-08      454.41299 
  154000       75  1.6924108e-08      457.82398 
  155000       75  1.3768895e-08      460.88658 
  156000       75  1.0788663e-08      463.47516 
  157000       75  1.1797349e-08      466.25365 
  158000       75    1.29344e-08      469.14143 
  159000       75  1.3990512e-08      472.24164 
  160000       75  1.3234203e-08      475.41924 
  161000       75  1.4377291e-08      478.41705 
  162000       75  1.5645748e-08       481.7816 
  163000       75  1.6786303e-08      484.90256 
  164000       75    1.39175e-08      488.24113 
  165000       75  1.5039619e-08      491.34447 
  166000       75  1.4828531e-08      494.73454 
  167000       75  1.5924352e-08      497.91659 
  168000       75  1.6958233e-08      501.20066 
  169000       75  1.3996765e-08      504.35582 
  170000       75  1.4706616e-08      507.76626 
  171000       75   1.574286e-08      511.11084 
  172000       75  1.6774473e-08      514.55852 
  173000       75  1.4859395e-08       517.7047 
  174000       75  1.5533098e-08      521.18642 
  175000       75  9.4003558e-09      524.60323 
  176000       75  9.7069169e-09      528.01949 
  177000       75  1.0185056e-08      531.51131 
  178000       75   8.451588e-09      534.95491 
  179000       75  8.8208748e-09       538.1628 
  180000       75  9.2914558e-09      541.24319 
  181000       75  9.8834065e-09      544.24682 
  182000       75   9.725553e-09       547.1337 
  183000       75  1.0260087e-08      550.37021 
  184000       75  1.1144202e-08      553.80243 
  185000       75   1.214055e-08      556.54986 
  186000       75  1.2448335e-08      560.14788 
  187000       75  1.2237068e-08      563.68915 
  188000       75  1.0376396e-08      567.13322 
  189000       75  1.0947265e-08      570.49563 
  190000       75  1.1543457e-08      573.92614 
  191000       75  1.1865932e-08      577.55428 
  192000       75  1.2633433e-08      580.48822 
  193000       75  1.1367557e-08      583.89396 
  194000       75  9.3476423e-09        587.304 
  195000       75   9.919351e-09      590.41527 
  196000       75  1.0592638e-08      593.30824 
  197000       75  8.9716642e-09      596.84176 
  198000       75  9.1886745e-09      599.58073 
  199000       75  9.5261275e-09      602.20067 
  200000       75  7.2614326e-09      609.29397 
  201000       75  7.6423544e-09      612.46478 
  202000       75  7.9402724e-09      615.61068 
  203000       75  8.2451591e-09      618.84633 
  204000       75   8.889026e-09       622.3101 
  205000       75  9.5959452e-09      625.40827 
  206000       75  9.8444577e-09      627.56051 
  207000       75  1.0700614e-08      629.84208 
  208000       75  1.1667226e-08      632.27702 
  209000       75  1.2657759e-08      634.59698 
  210000       75  1.3058397e-08      636.62841 
  211000       75  1.3769801e-08       639.2569 
  212000       75  1.4487844e-08      642.81839 
  213000       75  1.5261366e-08      646.28409 
  214000       75  1.2117401e-08      649.74711 
  215000       75  1.2396275e-08      653.27646 
  216000       75  9.2984594e-09      656.99138 
  217000       75  9.5558545e-09      660.98355 
  218000       75  8.9834416e-09      664.95235 
  219000       75  9.6280149e-09      668.76993 
  220000       75  1.0104517e-08      672.38327 
  221000       75  1.0335256e-08      675.56008 
  222000       75  8.5811243e-09      678.70628 
  223000       75  9.2538675e-09      681.80647 
  224000       75   9.924436e-09      684.69303 
  225000       75  8.2860073e-09       688.0003 
  226000       75  7.4086764e-09      691.17339 
  227000       75  5.8721893e-09      694.48631 
  228000       75  6.8574611e-09      697.50173 
  229000       75  6.1562661e-09      700.70539 
  230000       75  6.3558238e-09      703.68761 
  231000       75  6.6893535e-09      706.59513 
  232000       75   7.114745e-09      709.59563 
  233000       75  7.6603698e-09      712.44571 
  234000       75  8.2489217e-09       715.4584 
  235000       75   8.929709e-09      718.52449 
  236000       75  8.5172664e-09      721.11594 
  237000       75  9.0564503e-09      723.77609 
  238000       75  9.7263912e-09      726.32637 
  239000       75  5.0039141e-09       728.8649 
  240000       75  5.2079106e-09      731.36146 
  241000       75  5.5308296e-09      734.04009 
  242000       75  5.9495495e-09      737.54037 
  243000       75  6.1888879e-09      740.83809 
  244000       75  6.7442241e-09      743.87021 
  245000       75  7.3416409e-09      746.89881 
  246000       75  8.0319519e-09      749.94829 
  247000       75   7.236694e-09      753.00541 
  248000       75  6.5533955e-09      756.25994 
  249000       75  6.6723354e-09      759.32058 
  250000       75  6.9999573e-09      762.68677 
  251000       75  7.0554826e-09      765.78658 
  252000       75  7.4250809e-09      768.64643 
  253000       75  6.2121217e-09      770.93043 
  254000       75  6.6090309e-09      772.83508 
  255000       75  6.7849527e-09      775.46987 
  256000       75  6.9229488e-09      778.34766 
  257000       75  7.2019576e-09      781.40103 
  258000       75  7.6462876e-09      784.66853 
  259000       75  8.0650492e-09      788.33838 
  260000       75  8.6036715e-09      792.06639 
  261000       75   5.411639e-09      795.39633 
  262000       75  5.7594841e-09      797.97818 
  263000       75  6.2293856e-09      801.08475 
  264000       75  6.7869546e-09      804.55413 
  265000       75  6.6529322e-09      807.99131 
  266000       75  7.2859535e-09      811.02055 
  267000       75  7.2471741e-09      814.09177 
  268000       75  7.0282309e-09      817.27024 
  269000       75  7.5792591e-09      820.78668 
  270000       75  7.6884057e-09      824.17763 
  271000       75  8.3449407e-09      826.96071 
  272000       75  8.9860731e-09      829.16938 
  273000       75  8.1520341e-09      831.34718 
  274000       75  8.6089502e-09      833.49934 
  275000       75  8.5888273e-09      835.32377 
  276000       75  9.2099626e-09      837.26799 
  277000       75  1.0051001e-08      839.28056 
  278000       75  1.0844336e-08      841.73986 
  279000       75  1.1539294e-08      844.34264 
  280000       75  1.2544233e-08      846.99417 
  281000       75  1.1149525e-08      849.73193 
  282000       75  1.2092093e-08      853.00011 
  283000       75  1.2602998e-08      856.11997 
  284000       75  1.3624376e-08      858.35959 
  285000       75  1.4746952e-08      860.95201 
  286000       75  1.2303894e-08      863.63185 
  287000       75  1.1417136e-08      866.56254 
  288000       75  9.8368925e-09      869.51359 
  289000       75  1.0577141e-08      872.63741 
  290000       75  1.1522748e-08      876.02417 
  291000       75  8.7859645e-09      879.22537 
  292000       75  9.3026446e-09      882.74651 
  293000       75  9.9151531e-09      886.02954 
  294000       75  1.0452897e-08      889.06129 
  295000       75  1.1489405e-08      891.76647 
  296000       75  1.2647232e-08      894.75602 
  297000       75  1.3433524e-08      898.04172 
  298000       75  1.4779857e-08      901.31762 
  299000       75  1.3871758e-08      904.48406 
  300000       75  1.2009377e-08      907.51281 
  301000       75  1.1480794e-08      910.13745 
  302000       75  1.2477618e-08      912.78618 
  303000       75  1.1758195e-08      915.42968 
  304000       75  1.1669434e-08      918.04047 
  305000       75  3.4702736e-08      920.65454 
  306000       75  3.4839649e-08      923.26145 
  307000       75  3.1337634e-08      925.85944 
  308000       75  3.0694995e-08      928.47245 
  309000       75  3.0653137e-08      931.54926 
  310000       75  3.0454819e-08      935.13458 
  311000       75  1.7659465e-08      938.66654 
  312000       75  1.7642404e-08      942.13014 
  313000       75  1.7810696e-08      945.65642 
  314000       75  1.8109819e-08      948.94316 
  315000       75  1.7969653e-08      952.44266 
  316000       75  1.8188663e-08      955.66238 
  317000       75  1.8312259e-08      959.23958 
  318000       75   1.867479e-08      962.88206 
  319000       75  1.3795851e-08      966.37271 
  320000       75  1.4227713e-08      969.81057 
  321000       75  1.4127353e-08       973.0724 
  322000       75  1.4510085e-08      976.54274 
  323000       75  1.4649112e-08      979.63499 
  324000       75  1.0010104e-08      982.94923 
  325000       75  1.0247269e-08      985.65315 
  326000       75  9.5075692e-09      988.74153 
  327000       75  8.6567595e-09      991.99783 
  328000       75  8.6329416e-09      995.13722 
  329000       75  8.5714984e-09      998.59514 
  330000       75   8.737437e-09      1001.9822 
  331000       75  9.2104182e-09       1005.646 
  332000       75  9.5024489e-09      1008.7557 
  333000       75  9.9689421e-09       1012.413 
  334000       75   8.246861e-09       1015.343 
  335000       75  8.0514006e-09       1018.359 
  336000       75  8.2786653e-09      1021.6605 
  337000       75  8.5491924e-09      1025.1125 
  338000       75  9.0134487e-09      1028.1944 
  339000       75  8.3465826e-09      1031.4665 
  340000       75  8.9582252e-09      1034.6034 
  341000       75  8.2944882e-09      1037.8244 
  342000       75  1.7076746e-08       1040.729 
  343000       75  8.5314338e-09      1043.5261 
  344000       75  8.3944547e-09      1046.7437 
  345000       75  9.0947047e-09      1049.9315 
  346000       75   8.720378e-09      1053.1684 
  347000       75  8.9094436e-09      1056.3263 
  348000       75  9.1175828e-09      1059.5318 
  349000       75   9.712891e-09      1063.3158 
  350000       75  1.0395532e-08      1067.1189 
  351000       75  7.1427287e-09       1070.543 
  352000       75  7.7394599e-09      1073.8826 
  353000       75  8.6384173e-09      1077.0008 
  354000       75  9.2123033e-09       1079.299 
  355000       75   7.939388e-09      1081.1826 
  356000       75  6.9093043e-09      1083.1184 
  357000       75  6.7779298e-09      1085.0773 
  358000       75  7.3918074e-09      1087.8292 
  359000       75  8.0753097e-09      1091.1933 
  360000       75  8.9102048e-09      1094.7516 
  361000       75  7.4883462e-09      1098.1709 
  362000       75  4.1815337e-08      1101.4373 
  363000       75   8.767021e-09      1104.7414 
  364000       75   9.541583e-09      1108.1385 
  365000       75  9.7193279e-09       1111.447 
  366000       75  1.0366455e-08      1114.8054 
  367000       75  8.5534546e-09      1118.3762 
  368000       75  9.3465928e-09      1121.4052 
  369000       75  1.0026635e-08      1125.2386 
  370000       75  1.0428871e-08       1128.708 
  371000       75  1.1276961e-08      1132.4487 
  372000       75  1.1927283e-08      1135.4976 
  373000       75   1.261626e-08      1139.9664 
  374000       75  1.3666435e-08      1143.8353 
  375000       75  1.4852608e-08      1147.5371 
  376000       75   7.356456e-09      1151.5369 
  377000       75  8.0304974e-09      1156.1783 
  378000       75  9.6509288e-09      1160.4253 
  379000       75   9.769596e-09      1164.5838 
  380000       75  9.7594264e-09      1169.0439 
  381000       75  9.9506329e-09      1173.1947 
  382000       75  1.0450334e-08      1177.9241 
  383000       75  1.1294442e-08      1180.9673 
  384000       75  1.2292475e-08       1183.942 
  385000       75  1.3066203e-08      1187.8972 
  386000       75  1.4542679e-08      1192.2848 
  387000       75  1.2335104e-08      1196.6244 
  388000       75  1.3222598e-08      1200.3692 
  389000       75  1.4248593e-08      1204.3034 
  390000       75  1.3002837e-08      1208.1683 
  391000       75  1.4093851e-08      1212.6535 
  392000       75  1.5346285e-08      1216.3705 
  393000       75  1.6498473e-08      1219.6692 
  394000       75  1.7509353e-08      1223.5924 
  395000       75  1.3852181e-08      1227.9249 
  396000       75  1.4675152e-08      1232.3321 
  397000       75  1.3830926e-08       1236.977 
  398000       75  1.5210148e-08      1241.3996 
  399000       75   1.411893e-08      1245.7489 
  400000       75  1.4691481e-08      1254.6196 
  401000       75  1.4718712e-08      1258.1083 
  402000       75  1.5857917e-08      1262.0144 
  403000       75  1.6390808e-08      1266.2511 
  404000       75  1.7655122e-08      1270.3343 
  405000       75  1.5364504e-08      1274.5654 
  406000       75  1.2273322e-08       1278.835 
  407000       75  7.3756039e-09      1283.1118 
  408000       75  7.7161238e-09      1287.5187 
  409000       75  8.0856718e-09       1291.258 
  410000       75  7.6586946e-09      1296.0974 
  411000       75  8.4675763e-09      1300.9878 
  412000       75  6.4523072e-09      1305.4545 
  413000       75  7.0168861e-09      1309.2627 
  414000       75   5.860678e-09      1313.3849 
  415000       75  3.5927528e-09      1317.7484 
  416000       75  3.7058629e-09      1321.8659 
  417000       75  3.7414312e-09      1325.9149 
  418000       75  3.9875834e-09      1329.7146 
  419000       75  4.2976989e-09      1333.6831 
  420000       75  4.8414223e-09      1337.3778 
  421000       75  5.4458332e-09      1341.0927 
  422000       75  6.1637359e-09      1345.1992 
  423000       75  6.9332631e-09      1349.3205 
  424000       75  7.7984539e-09      1353.4589 
  425000       75  8.6736039e-09      1357.9545 
  426000       75  8.5796632e-09      1362.0785 
  427000       75  9.5096048e-09      1366.3744 
  428000       75  7.8887492e-09      1370.7507 
  429000       75  6.4662831e-09      1375.3089 
  430000       75  7.0593361e-09      1379.5004 
  431000       75  7.7878391e-09      1383.6483 
  432000       75  7.0861533e-09      1387.5755 
  433000       75  7.8178057e-09      1391.9122 
  434000       75  8.4236504e-09      1396.8015 
  435000       75  6.2442798e-09      1400.6278 
  436000       75  6.6734552e-09      1405.0899 
  437000       75  4.5469486e-09      1409.6329 
  438000       75  4.9121833e-09      1413.2447 
  439000       75  5.5161678e-09      1416.4669 
  440000       75  6.2362542e-09      1420.8611 
  441000       75  5.9394984e-09      1425.4484 
  442000       75  5.2115681e-09       1429.551 
  443000       75  4.2827157e-09      1434.1372 
  444000       75  4.8012409e-09      1438.4204 
  445000       75  5.3206687e-09      1442.4747 
  446000       75  5.9469706e-09      1446.6398 
  447000       75   6.744347e-09      1450.9885 
  448000       75  7.5175395e-09      1455.0354 
  449000       75  7.8624675e-09      1459.6789 
  450000       75  8.4679155e-09      1464.0423 
  451000       75  8.7201319e-09      1468.5437 
  452000       75  9.2559218e-09      1472.8174 
  453000       75  7.3616259e-09      1477.0612 
  454000       75  6.8220615e-09      1481.2392 
  455000       75  7.5806618e-09      1485.6494 
  456000       75  8.0533595e-09      1489.9191 
  457000       75  5.9801469e-09      1493.9491 
  458000       75  6.5123182e-09      1497.7503 
  459000       75  7.1638313e-09      1501.4521 
  460000       75  7.9980438e-09      1504.7986 
  461000       75  9.0022512e-09      1508.5897 
  462000       75  1.0066162e-08      1512.7574 
  463000       75  6.9896053e-09      1517.0823 
  464000       75  7.6810942e-09      1521.1633 
  465000       75  8.4219375e-09      1525.1906 
  466000       75   8.396722e-09      1529.8875 
  467000       75  9.2336838e-09      1534.7157 
  468000       75  6.7474597e-09      1539.1239 
  469000       75   4.784868e-09      1543.9589 
  470000       75  5.2919383e-09      1548.5565 
  471000       75   5.625332e-09      1553.2621 
  472000       75  6.1460738e-09      1557.8098 
  473000       75  4.4024097e-09      1562.8682 
  474000       75  4.8209607e-09      1567.3363 
  475000       75  8.5352707e-09      1571.5795 
  476000       75  6.0451877e-09      1575.6026 
  477000       75  7.4907226e-08      1579.9628 
  478000       75  7.4387138e-08      1584.3025 
  479000       75  7.3372143e-08       1588.774 
  480000       75  2.0910489e-08      1592.8675 
  481000       75  2.0472067e-08      1597.4439 
  482000       75  1.9761445e-08      1601.8827 
  483000       75   1.931439e-08      1606.4163 
  484000       75  1.9640874e-08      1611.0004 
  485000       75  1.9886562e-08      1614.9951 
  486000       75  1.8730571e-08      1619.1139 
  487000       75  1.8191702e-08      1623.3772 
  488000       75  1.8514049e-08      1627.5469 
  489000       75  1.7940923e-08      1631.7123 
  490000       75  1.7861878e-08      1635.9582 
  491000       75  1.4915997e-08      1640.5073 
  492000       75  1.5098947e-08      1644.9123 
  493000       75  1.5421357e-08      1649.3947 
  494000       75  1.1840933e-08      1654.0669 
  495000       75  1.1823204e-08      1658.0045 
  496000       75  1.1975996e-08      1661.9138 
  497000       75  1.0837159e-08      1666.5948 
  498000       75  8.8010897e-09      1671.8547 
  499000       75  9.0374231e-09      1676.6102 
  500000       75  9.3012791e-09      1681.0915 
INFO: Particle insertion ins: inserted 75 particle templates (mass 1.099557e-05) at step 500001
 - a total of 150 particle templates (mass 2.199115e-05) inserted so far.
  501000      150  1.4725437e-08      1685.0987 
  502000      150  1.5547099e-08      1689.1836 
  503000      150  1.4771499e-08      1693.6582 
  504000      150  1.4191132e-08       1697.666 
  505000      150  1.4891259e-08       1701.266 
  506000      150  1.5195806e-08      1705.1018 
  507000      150   1.567534e-08       1709.425 
  508000      150  1.5862589e-08      1714.0987 
  509000      150  1.6577324e-08      1718.1162 
  510000      150  1.4383609e-08      1722.5671 
  511000      150  1.5164169e-08      1727.4488 
  512000      150  1.1904873e-08        1731.51 
  513000      150  1.2597184e-08      1735.6041 
  514000      150  1.3314796e-08       1740.228 
  515000      150  1.4119021e-08      1745.0787 
  516000      150  1.2619836e-08      1749.2705 
  517000      150  1.3411166e-08      1753.3867 
  518000      150  1.4383588e-08      1757.2905 
  519000      150  1.5533582e-08      1761.5638 
  520000      150  1.5900119e-08      1766.2332 
  521000      150  1.6540465e-08      1770.7338 
  522000      150   1.745462e-08      1775.3767 
  523000      150  2.5983052e-08      1780.0879 
  524000      150  1.7606334e-08      1785.0109 
  525000      150  1.7388219e-08      1789.0405 
  526000      150  2.3946275e-08      1793.1268 
  527000      150  1.9302194e-08      1796.9472 
  528000      150  1.8311002e-08      1800.7674 
  529000      150  1.8789546e-08      1804.6146 
  530000      150  1.9019572e-08      1807.5669 
  531000      150  1.9474117e-08       1810.464 
  532000      150  1.9797642e-08      1814.1186 
  533000      150  1.9547698e-08      1818.0704 
  534000      150  1.5239543e-08      1821.9142 
  535000      150  1.5199187e-08      1826.2008 
  536000      150  1.8079627e-08      1831.2438 
  537000      150  1.6828525e-08      1835.1946 
  538000      150  1.7299409e-08      1839.3588 
  539000      150  1.7709421e-08      1842.4138 
  540000      150  1.8955407e-08      1846.3232 
  541000      150  2.0344935e-08      1850.6541 
  542000      150  1.7566747e-08      1855.4274 
  543000      150   1.856159e-08      1858.9334 
  544000      150  2.6497122e-08      1863.2923 
  545000      150  2.5032637e-08      1868.1775 
  546000      150  2.2279012e-08      1872.5038 
  547000      150  2.2954857e-08      1877.5264 
  548000      150  1.9675187e-08      1882.0763 
  549000      150  1.9191759e-08       1886.336 
  550000      150  2.3517191e-08      1890.7125 
  551000      150  2.1009118e-08      1895.1901 
  552000      150  2.1172458e-08      1899.6722 
  553000      150  2.1618575e-08      1903.8399 
  554000      150  2.0638727e-08      1907.9921 
  555000      150  2.1314372e-08      1912.1967 
  556000      150  1.9840611e-08      1916.5279 
  557000      150  1.8834493e-08      1920.5431 
  558000      150  1.6523094e-08      1924.4374 
  559000      150  1.3437289e-08      1929.2359 
  560000      150  1.3499941e-08      1933.6679 
  561000      150  1.4051282e-08      1938.1409 
  562000      150  1.4843076e-08      1943.1764 
  563000      150  1.5468511e-08      1947.6422 
  564000      150  1.5578733e-08      1952.0598 
  565000      150  1.6730554e-08      1956.4468 
  566000      150  1.7783854e-08      1961.1875 
  567000      150   1.954077e-08      1965.8621 
  568000      150   2.070631e-08      1970.9187 
  569000      150  2.1812318e-08      1975.9916 
  570000      150  1.8872205e-08      1980.5289 
  571000      150  2.0286996e-08      1983.8251 
  572000      150   1.872942e-08      1987.6193 
  573000      150  2.0144247e-08      1991.9193 
  574000      150   2.088981e-08      1996.1851 
  575000      150  2.4949071e-08      2000.5524 
  576000      150  2.5669492e-08       2005.362 
  577000      150  2.0315244e-08      2009.9509 
  578000      150  1.8660187e-08      2014.9655 
  579000      150  1.5238105e-08      2019.5554 
  580000      150  1.6661599e-08       2023.641 
  581000      150  2.0832467e-08      2028.3084 
  582000      150  1.7286184e-08      2032.7676 
  583000      150  1.5326365e-08      2037.5666 
  584000      150  1.5953924e-08      2041.8928 
  585000      150  1.6076731e-08      2045.6718 
  586000      150  1.7895952e-08      2050.0748 
  587000      150  1.8403633e-08      2054.8202 
  588000      150  1.7602622e-08      2059.4173 
  589000      150  1.5112629e-08      2063.9955 
  590000      150  1.2734352e-08       2068.067 
  591000      150  9.8529816e-09      2072.9416 
  592000      150  1.0468655e-08      2077.9689 
  593000      150  1.1218618e-08      2082.4463 
  594000      150  1.1914736e-08      2086.9743 
  595000      150  1.1362104e-08      2091.1222 
  596000      150  1.0534636e-08      2096.3655 
  597000      150  9.5636947e-09      2101.3204 
  598000      150  1.0743448e-08      2105.9628 
  599000      150  1.0032368e-08      2110.3077 
  600000      150  9.3029936e-09      2119.0327 
  601000      150  9.1297031e-09      2123.5671 
  602000      150   7.438411e-09      2127.9373 
  603000      150  7.8829261e-09      2132.0959 
  604000      150  5.9327082e-08      2136.5544 
  605000      150  8.8157146e-09      2141.5534 
  606000      150  1.1639466e-08      2146.4591 
  607000      150  1.1224896e-08       2151.202 
  608000      150  1.0681401e-08      2155.6384 
  609000      150  1.3328302e-08      2160.9015 
  610000      150  1.2632476e-08      2166.3189 
  611000      150  1.6949852e-08      2170.8565 
  612000      150  1.6860949e-08      2175.3643 
  613000      150  1.7231665e-08       2180.397 
  614000      150  1.4818536e-08      2185.1118 
  615000      150  1.1345622e-08      2189.7816 
  616000      150  1.1794662e-08      2194.2265 
  617000      150  1.2509643e-08      2199.2133 
  618000      150  1.3422549e-08       2204.409 
  619000      150  6.2263151e-08       2209.451 
  620000      150  1.2424648e-08      2214.8857 
  621000      150  1.3137281e-08      2218.8437 
  622000      150  1.3823846e-08      2222.4346 
  623000      150   1.486027e-08       2226.367 
  624000      150  1.1611805e-08      2230.8132 
  625000      150  1.1474862e-08      2236.1532 
  626000      150  1.1733495e-08      2240.7015 
  627000      150  1.2650415e-08      2245.0186 
  628000      150  1.3230929e-08      2249.6908 
  629000      150  1.0789691e-08      2255.4694 
  630000      150  1.3055741e-08      2260.4219 
  631000      150  1.1987798e-08      2264.5751 
  632000      150  1.2292364e-08      2269.0271 
  633000      150  1.1409472e-08       2273.313 
  634000      150  1.1361337e-08      2278.4357 
  635000      150  1.1745699e-08       2283.431 
  636000      150  1.2350479e-08      2288.7851 
  637000      150  7.8688592e-08      2293.0007 
  638000      150  1.6530527e-08       2297.213 
  639000      150  2.1097214e-08      2302.4198 
  640000      150  1.2964495e-08      2307.3648 
  641000      150  1.7337041e-08      2311.2313 
  642000      150   1.142973e-08      2315.4421 
  643000      150  1.0121874e-08      2319.8454 
  644000      150  9.7803038e-09       2324.701 
  645000      150  1.8081062e-08      2329.6633 
  646000      150  1.2181919e-08      2333.6137 
  647000      150  1.1230345e-08      2338.0001 
  648000      150  1.0595163e-08      2342.2219 
  649000      150  3.0690135e-08      2347.7118 
  650000      150    1.06276e-08      2353.0297 
  651000      150  3.1792389e-07       2357.464 
  652000      150  4.1128944e-08      2361.7231 
  653000      150  3.7175528e-08      2365.3084 
  654000      150  3.6516529e-08      2369.0178 
  655000      150  3.5779295e-08      2373.7547 
  656000      150  3.1608151e-08      2378.3274 
  657000      150  1.1143848e-07      2382.9233 
  658000      150  8.7879403e-08      2387.3864 
  659000      150  7.2818162e-08      2391.8153 
  660000      150  5.2611837e-08      2396.4573 
  661000      150  4.9256962e-08      2400.6943 
  662000      150  4.6972713e-08      2404.8903 
  663000      150  4.5123464e-08      2408.7587 
  664000      150  4.3143848e-08      2413.9609 
  665000      150  4.1712345e-08      2418.8366 
  666000      150  3.9993756e-08      2424.0309 
  667000      150  3.0531527e-08      2428.7864 
  668000      150  2.8844108e-08      2432.9571 
  669000      150  2.7854052e-08      2437.2795 
  670000      150  2.7190607e-08      2441.7638 
  671000      150  2.5264847e-08      2446.8367 
  672000      150   2.471165e-08      2452.0619 
  673000      150  2.4196258e-08      2457.0051 
  674000      150  2.4144823e-08      2462.2779 
  675000      150  2.4172948e-08      2467.9312 
  676000      150  2.3227613e-08      2472.7694 
  677000      150  2.3293719e-08      2477.6042 
  678000      150   2.370605e-08      2481.6173 
  679000      150   2.431046e-08      2485.6528 
  680000      150  2.5200429e-08      2489.9756 
  681000      150   2.612547e-08      2495.4734 
  682000      150  2.6991886e-08      2501.2187 
  683000      150  2.8337109e-08      2506.5421 
  684000      150  2.9758382e-08       2511.519 
  685000      150  2.0625292e-08      2516.5611 
  686000      150  2.2154244e-08      2521.4171 
  687000      150  2.3318552e-08      2526.3064 
  688000      150  2.1505584e-08      2531.3335 
  689000      150  2.3049134e-08      2536.3398 
  690000      150  1.2566265e-07      2540.9262 
  691000      150  4.0440412e-08       2545.806 
  692000      150  2.8263659e-08      2549.6155 
  693000      150  2.4515914e-08      2553.6931 
  694000      150  2.3840348e-07      2558.0262 
  695000      150  1.1615729e-07      2562.1169 
  696000      150  1.0125502e-07      2567.0994 
  697000      150  8.5491522e-08      2571.6933 
  698000      150  8.1741924e-08        2575.92 
  699000      150  7.2770075e-08      2581.0871 
  700000      150  6.8885315e-08      2585.9532 
  701000      150   6.654647e-08      2590.4857 
  702000      150  6.4338604e-08      2595.2341 
  703000      150  4.9609195e-08      2599.7818 
  704000      150  4.4888946e-08      2604.4156 
  705000      150   4.136156e-08      2608.8242 
  706000      150  3.8735456e-08      2612.8488 
  707000      150  3.3598233e-08      2617.3888 
  708000      150  3.2381875e-08      2622.1873 
  709000      150   2.989529e-08      2626.9418 
  710000      150  2.9799273e-08       2630.994 
  711000      150  2.5722238e-08      2635.8832 
  712000      150   2.442938e-08      2640.8111 
  713000      150  2.4270642e-08      2645.1533 
  714000      150  1.6280473e-08        2649.61 
  715000      150  1.6293704e-08      2653.9472 
  716000      150  1.6412207e-08      2659.5954 
  717000      150  1.7185749e-08      2665.2808 
  718000      150  1.7785228e-08      2669.2657 
  719000      150  1.8524999e-08      2674.2794 
  720000      150  1.9566113e-08      2678.9358 
  721000      150  2.0677471e-08      2684.2562 
  722000      150  1.9398909e-08      2689.3029 
  723000      150  2.0584835e-08       2694.144 
  724000      150  2.2002766e-08      2699.1208 
  725000      150  2.3304048e-08      2704.0588 
  726000      150  2.5369553e-08      2708.6198 
  727000      150  2.5146208e-08      2713.5803 
  728000      150  2.4632302e-08      2718.6929 
  729000      150  2.6120788e-08      2723.9372 
  730000      150  2.5802372e-08      2728.7768 
  731000      150  2.7425895e-08      2733.6188 
  732000      150  2.7662611e-08      2739.0021 
  733000      150  2.9283328e-08      2744.2384 
  734000      150  3.1112025e-08       2749.089 
  735000      150  2.9182031e-08      2754.6895 
  736000      150  3.0918806e-08      2760.3592 
  737000      150  2.5940114e-08        2766.24 
  738000      150  2.1765193e-08      2771.4186 
  739000      150  1.4691595e-08      2776.3891 
  740000      150  1.1717095e-08      2781.5666 
  741000      150  1.2022527e-08      2786.6263 
  742000      150  1.0446637e-08      2791.7225 
  743000      150  1.1204785e-08       2797.955 
  744000      150  1.1951326e-08      2802.4738 
  745000      150  1.2328329e-08      2807.0064 
  746000      150  1.3066872e-08      2811.5519 
  747000      150  1.4407548e-08      2816.4064 
  748000      150  1.2568992e-08      2820.3897 
  749000      150  1.3638051e-08      2824.3097 
  750000      150  1.3611864e-08      2829.2301 
  751000      150  1.4070139e-08      2833.3417 
  752000      150  1.2202201e-08      2837.6089 
  753000      150  1.3109291e-08      2842.2993 
  754000      150   1.414448e-08      2847.2089 
  755000      150  1.4759374e-08      2852.0616 
  756000      150  1.3335626e-08       2856.643 
  757000      150   1.467987e-08      2860.4622 
  758000      150   1.603726e-08      2864.2483 
  759000      150  1.6599668e-08      2868.6962 
  760000      150  1.8144732e-08      2873.6993 
  761000      150  1.8669863e-08      2878.9542 
  762000      150  1.1346372e-08      2884.0585 
  763000      150  1.2227145e-08      2888.6495 
  764000      150  1.4845845e-08       2893.571 
  765000      150  1.4269588e-08      2898.9359 
  766000      150  1.0596455e-08      2904.2811 
  767000      150  1.0704776e-08      2908.9568 
  768000      150  1.1634028e-08      2914.7246 
  769000      150  1.1857708e-08      2920.2818 
  770000      150  6.3595458e-08         2925.4 
  771000      150  1.9579779e-08      2931.0097 
  772000      150  1.4842346e-08      2937.2288 
  773000      150   1.492764e-08      2942.9636 
  774000      150  1.4562659e-08       2947.918 
  775000      150  1.3527883e-08      2952.4356 
  776000      150  1.2200332e-08      2957.3565 
  777000      150  1.2345356e-08      2962.2285 
  778000      150  1.0703686e-08      2966.9204 
  779000      150  1.0432506e-08      2971.4258 
  780000      150  1.0940025e-08      2976.7544 
  781000      150  1.2296241e-08      2981.4924 
  782000      150  1.3482107e-08      2986.3924 
  783000      150  1.4385654e-08      2991.7947 
  784000      150  1.4357737e-08      2997.5731 
  785000      150  1.3942867e-08      3002.4336 
  786000      150  1.3333809e-08      3007.6779 
  787000      150  1.3959371e-08      3011.9609 
  788000      150  1.0483793e-08      3016.2874 
  789000      150  1.1321245e-08       3020.884 
  790000      150  9.3979874e-09      3025.7786 
  791000      150  9.2908887e-09      3030.1203 
  792000      150  7.6867388e-09      3034.3255 
  793000      150  8.1467396e-09       3038.808 
  794000      150  8.9488021e-09      3043.7309 
  795000      150  7.5961426e-09      3048.7684 
  796000      150  7.7692407e-09      3054.6494 
  797000      150  7.9844024e-09      3059.4543 
  798000      150  7.2009252e-09      3064.7629 
  799000      150  7.1881059e-09      3070.0532 
  800000      150  7.6143609e-09      3080.0015 
  801000      150  7.9362155e-09      3084.5954 
  802000      150  8.5247267e-09       3089.119 
  803000      150   8.692292e-09      3093.6668 
  804000      150  8.6928442e-09      3098.6896 
  805000      150  5.6355905e-09      3103.0115 
  806000      150   5.836913e-09      3108.0256 
  807000      150  5.2577157e-09      3112.7463 
  808000      150   5.597921e-09      3116.8284 
  809000      150  5.8120429e-09      3121.1996 
  810000      150  6.0806265e-09      3126.2184 
  811000      150  6.7116958e-09      3130.1893 
  812000      150   6.275631e-09      3135.0129 
  813000      150  6.8913669e-09      3140.0975 
  814000      150  7.6439064e-09      3144.7652 
  815000      150  7.6714279e-09      3149.3755 
  816000      150  8.7460243e-09      3153.6789 
  817000      150  9.4471928e-09      3158.6462 
  818000      150  1.0470477e-08      3164.1877 
  819000      150  1.2033424e-08      3168.2838 
  820000      150  2.0379755e-07      3172.0539 
  821000      150  7.5439626e-08       3177.399 
  822000      150  7.3154875e-08      3181.8981 
  823000      150  7.0909193e-08      3187.4875 
  824000      150  5.9044621e-08        3192.58 
  825000      150  4.4641806e-07      3198.0718 
  826000      150  4.4259531e-07      3202.1812 
  827000      150  4.3919332e-07       3206.609 
  828000      150   4.357256e-07      3211.2584 
  829000      150  4.2874241e-07      3216.3395 
  830000      150  4.2485218e-07      3221.3077 
  831000      150  2.6674697e-07      3226.2265 
  832000      150   2.638714e-07      3230.6586 
  833000      150  2.6039122e-07      3236.0816 
  834000      150   2.576311e-07      3240.9378 
  835000      150  2.5498618e-07      3245.7064 
  836000      150  2.5230512e-07      3250.3678 
  837000      150  2.4858343e-07      3255.6234 
  838000      150  2.4632339e-07       3260.661 
  839000      150  2.4305889e-07      3264.9743 
  840000      150  2.4026256e-07      3269.1316 
  841000      150  2.3774219e-07      3273.5535 
  842000      150  2.3523933e-07      3278.5331 
  843000      150  2.3000462e-07      3282.4174 
  844000      150  2.2636002e-07      3286.2687 
  845000      150  2.2398392e-07       3291.243 
  846000      150  2.1867447e-07      3295.9074 
  847000      150  2.1536852e-07      3301.7361 
  848000      150   2.119218e-07       3306.699 
  849000      150  2.0904794e-07      3310.5342 
  850000      150  2.0624742e-07       3314.462 
  851000      150  2.0342139e-07      3319.1343 
  852000      150  2.0056909e-07      3324.1708 
  853000      150  2.2654809e-07      3328.7079 
  854000      150  1.9558585e-07      3333.5841 
  855000      150  2.3551576e-07      3337.8942 
  856000      150  1.9185455e-07      3343.4646 
  857000      150  1.8999069e-07      3347.9088 
  858000      150  1.8956152e-07      3352.6585 
  859000      149  2.5555307e-08      3357.8504 
  860000      149  2.5458475e-08      3361.9571 
  861000      149  2.3880541e-08      3367.0759 
  862000      149  2.3696414e-08      3371.8025 
  863000      149  2.4393853e-08      3377.0289 
  864000      149  2.3272258e-08      3382.3042 
  865000      149  2.2076024e-08      3387.3134 
  866000      149  2.2125597e-08      3392.3603 
  867000      149   2.218613e-08      3397.7591 
  868000      149   1.989582e-08       3403.144 
  869000      149  1.9272359e-08      3407.3616 
  870000      149  1.7543483e-08      3411.4516 
  871000      149  1.7274243e-08      3416.8425 
  872000      149  1.7409048e-08      3421.5955 
  873000      149  1.5595755e-08      3425.9654 
  874000      149  1.5301854e-08      3430.5122 
  875000      149  1.4955321e-08      3435.0769 
  876000      149  1.4605549e-08       3440.212 
  877000      149  1.4793093e-08      3445.1858 
  878000      149  1.5071066e-08      3450.1061 
  879000      149  1.4979937e-08      3454.7836 
  880000      149  1.5480239e-08      3459.3863 
  881000      149  1.5442202e-08      3464.3321 
  882000      149  1.4588519e-08      3469.4629 
  883000      149  1.5184719e-08      3474.5749 
  884000      149  1.5577077e-08      3479.1079 
  885000      149  1.5962583e-08      3483.7573 
  886000      149  1.2732596e-08      3488.3308 
  887000      149  2.5718726e-08      3492.5371 
  888000      149  1.7914625e-08      3497.4378 
  889000      149  3.1365105e-08      3503.1193 
  890000      149  2.3932136e-08      3508.2335 
  891000      149  2.0968384e-08      3512.9867 
  892000      149   1.956785e-08      3518.1807 
  893000      149  1.7968312e-08      3523.7849 
  894000      149  1.5225536e-08       3529.016 
  895000      149  1.3897425e-08      3534.8564 
  896000      149  1.1693419e-08       3539.176 
  897000      149   8.205051e-09      3543.6279 
  898000      149  7.3498958e-09      3547.9557 
  899000      149  6.9981656e-09      3551.5077 
  900000      149  7.0320037e-09      3555.9102 
  901000      149  6.6857155e-09      3561.7533 
  902000      149   5.821626e-09      3567.5375 
  903000      149  5.6847162e-09      3572.3453 
  904000      149  5.3055566e-09      3578.2674 
  905000      149  5.3454347e-09      3583.2151 
  906000      149  5.6260253e-09      3588.1559 
  907000      149  4.8539762e-09      3593.5099 
  908000      149  4.8464464e-09      3598.4578 
  909000      149  5.8342373e-09      3603.3223 
  910000      149  1.2272785e-06      3607.9609 
  911000      149  3.2323346e-07      3612.1662 
  912000      149  2.5544364e-07      3616.1115 
  913000      149    1.91646e-07      3619.7326 
  914000      149  1.6369006e-07      3624.5585 
  915000      149  1.4544576e-07      3630.1653 
  916000      149  1.3643488e-07      3634.4729 
  917000      149  1.2534385e-07      3638.7397 
  918000      149  1.2005967e-07      3642.8499 
  919000      149  1.1144826e-07      3647.2202 
  920000      149  1.0503223e-07      3651.5893 
  921000      149  8.0780703e-08      3656.8209 
  922000      149  7.4891305e-08      3661.2641 
  923000      149  7.0180961e-08      3665.0617 
  924000      149  6.4278948e-08      3669.6521 
  925000      149   6.303168e-08       3675.224 
  926000      149  6.1169308e-08      3681.0386 
  927000      149  5.9031878e-08      3686.5123 
  928000      149  5.3894397e-08      3691.4711 
  929000      149  5.3583088e-08      3696.0059 
  930000      149  5.2154165e-08      3700.5872 
  931000      149  4.6878693e-08      3705.3898 
  932000      149  4.5434005e-08        3710.59 
  933000      149  4.4289921e-08      3714.9024 
  934000      149  4.2557212e-08      3719.3699 
  935000      149   4.368577e-08      3725.1154 
  936000      149  4.0972391e-08      3730.9067 
  937000      149  4.1267155e-08      3736.1764 
  938000      149  4.2615796e-08      3740.8854 
  939000      149  2.1369613e-07      3745.8236 
  940000      149  2.1253673e-07      3749.8947 
  941000      149  2.1041859e-07      3755.0051 
  942000      149  7.7371098e-08      3759.9463 
  943000      149  7.6970786e-08      3765.2419 
  944000      149  7.5965881e-08      3770.0528 
  945000      149  7.5619433e-08      3774.9591 
  946000      149   7.573789e-08      3779.4713 
  947000      149  7.5931945e-08      3783.9807 
  948000      149  5.7792718e-08      3788.3767 
  949000      149  5.6870262e-08      3792.9953 
  950000      149  5.6810232e-08      3797.9035 
  951000      149  5.7010695e-08      3803.3061 
  952000      149  5.1802068e-08      3809.3015 
  953000      149   4.865236e-08      3813.7905 
  954000      149  4.6778281e-08      3818.8462 
  955000      149  4.6631815e-08      3824.1081 
  956000      149  3.4082306e-07      3828.2014 
  957000      149  4.5565614e-08       3833.334 
  958000      149   4.624872e-08       3838.391 
  959000      149  4.6738663e-08      3843.6065 
  960000      149  4.5236663e-08      3848.8725 
  961000      149  4.5638999e-08      3853.5388 
  962000      149  4.6169403e-08      3858.6305 
  963000      149  4.6833164e-08      3863.6689 
  964000      149  4.7173677e-08      3868.9392 
  965000      149  4.7502776e-08      3874.4076 
  966000      149  4.8887974e-08      3879.2117 
  967000      149  4.7934786e-08      3884.9976 
  968000      149  5.0690428e-08      3890.5474 
  969000      149  5.3858443e-08      3895.6836 
  970000      149  5.1294739e-08      3900.5239 
  971000      149  5.2451565e-08      3904.6721 
  972000      149   8.435744e-08      3909.9962 
  973000      149  5.5134488e-08      3915.5122 
  974000      149  5.4781297e-08      3921.1058 
  975000      149  5.5137469e-08      3926.2472 
  976000      149   5.461642e-08      3930.9257 
  977000      149  5.6197447e-08      3935.7303 
  978000      149  5.7759153e-08      3940.3541 
  979000      149  5.6308385e-08      3946.2515 
  980000      149   5.543622e-08      3950.9316 
  981000      149  5.6570654e-08      3955.3086 
  982000      149  5.7947197e-08      3960.9583 
  983000      149   5.633118e-08      3966.1684 
  984000      149  5.7768889e-08      3971.0881 
  985000      149   5.949752e-08      3976.1004 
  986000      149   5.631264e-08      3980.7615 
  987000      149   5.918665e-08      3985.5819 
  988000      149  5.8637709e-08      3990.0407 
  989000      149  6.2511843e-08      3994.6619 
  990000      149  6.1604775e-08      3999.3558 
  991000      149  6.3232361e-08      4004.5914 
  992000      149  6.5270847e-08       4009.728 
  993000      149  6.5106833e-08      4015.0352 
  994000      149  1.1178674e-07      4020.2735 
  995000      149  1.1274806e-07      4025.2984 
  996000      149   1.139956e-07      4029.9307 
  997000      149  1.1533451e-07      4034.3157 
  998000      149  7.9723743e-08      4038.5817 
  999000      149  7.9322323e-08      4043.7462 
 1000000      149  7.6960637e-08      4053.4385 
INFO: Particle insertion ins: inserted 76 particle templates (mass 1.114218e-05) at step 1000001
 - a total of 226 particle templates (mass 3.313333e-05) inserted so far.
 1001000      225  8.3258015e-08      4058.4904 
 1002000      225  8.4455652e-08      4063.1162 
 1003000      225   8.608224e-08      4068.5476 
 1004000      225  8.7820066e-08      4073.4775 
 1005000      225  9.0082627e-08      4077.8966 
 1006000      225  9.8547451e-08      4082.4131 
 1007000      224  2.6128345e-08      4086.4247 
 1008000      224  2.3911244e-08      4091.1595 
 1009000      224   2.383452e-08      4096.5295 
 1010000      224  2.5010598e-08      4101.9361 
 1011000      224  2.5860164e-08      4107.9006 
 1012000      224  6.9961257e-08      4113.2675 
 1013000      224  5.8885554e-08      4118.9308 
 1014000      224  5.0664202e-08      4124.2908 
 1015000      224  4.6413885e-08       4129.517 
 1016000      224  4.4497613e-08      4134.8652 
 1017000      224  4.0328433e-08      4140.1403 
 1018000      224  3.3103253e-08      4144.3639 
 1019000      224  2.9481278e-08      4148.6219 
 1020000      224  2.8594346e-08      4153.6636 
 1021000      224  2.8550105e-08      4158.2846 
 1022000      224  2.5851572e-08      4162.0844 
 1023000      224  2.4718219e-08      4165.9986 
 1024000      224  2.3592167e-08      4171.1169 
 1025000      224  2.0747966e-08      4176.2668 
 1026000      224  2.0730512e-08      4181.4639 
 1027000      224  2.1687017e-08      4186.8604 
 1028000      224  2.1628622e-08       4191.243 
 1029000      224  2.1842752e-08      4195.5383 
 1030000      224  2.2119574e-08      4200.5191 
 1031000      224  2.3577661e-08      4205.8092 
 1032000      224  2.1486486e-08      4211.4388 
 1033000      224  2.2750762e-08      4217.5407 
 1034000      224  2.3714438e-08      4222.3438 
 1035000      224  2.5454212e-08      4227.8456 
 1036000      224  2.5649758e-08      4233.3753 
 1037000      224  2.7531281e-08       4239.237 
 1038000      224  4.0852386e-08      4243.7541 
 1039000      224  3.0248769e-08      4248.2561 
 1040000      224  3.0010081e-08      4253.0644 
 1041000      224  3.0238854e-08      4258.4344 
 1042000      224  3.0515978e-08      4263.4997 
 1043000      224  3.0713513e-08        4269.21 
 1044000      224    3.26471e-08      4274.9172 
 1045000      224  7.3129198e-08      4280.2649 
 1046000      224  3.7812723e-08      4285.0974 
 1047000      224     7.4588e-08       4290.308 
 1048000      224  4.7553026e-08      4295.6868 
 1049000      224  4.0305376e-08      4301.7526 
 1050000      224  4.2284086e-08      4306.5593 
 1051000      224  3.1331216e-08      4312.8321 
 1052000      224  3.2049344e-08      4317.7995 
 1053000      224  3.2490675e-08      4322.7749 
 1054000      224   3.130325e-08      4328.6049 
 1055000      224  3.2715398e-08      4334.1287 
 1056000      224  3.3049188e-08      4338.8994 
 1057000      224  4.8153449e-08      4344.7895 
 1058000      224  3.9794664e-08      4350.5978 
 1059000      224  4.3517355e-08      4355.7684 
 1060000      224  3.9651033e-08       4361.362 
 1061000      224  4.0136366e-08      4366.1261 
 1062000      224  4.0514203e-08      4370.1389 
 1063000      224  3.7175931e-08      4376.2381 
 1064000      224  3.8562487e-08      4381.1398 
 1065000      224  3.7882176e-08      4386.6299 
 1066000      224  3.9588651e-08      4392.7772 
 1067000      224  2.6585332e-08      4397.4646 
 1068000      224  2.1704518e-08      4402.2673 
 1069000      224  2.2524414e-08      4406.4841 
 1070000      224  2.3831239e-08      4410.7396 
 1071000      224  2.4636705e-08      4416.2308 
 1072000      224  2.3601167e-08      4422.0557 
 1073000      224  2.4758123e-08        4427.12 
 1074000      224  2.6770758e-08       4431.373 
 1075000      224  2.7041714e-08      4437.0995 
 1076000      224  2.9385414e-08      4442.0799 
 1077000      224  2.9990818e-08      4446.6212 
 1078000      224  2.4960138e-08      4451.6912 
 1079000      224  2.5518923e-08       4457.061 
 1080000      224  2.6412983e-08      4462.1778 
 1081000      224  2.7529315e-08      4467.4366 
 1082000      224  4.0355566e-08      4472.6222 
 1083000      224  1.1649758e-07      4478.9317 
 1084000      224  4.5128614e-08      4484.9125 
 1085000      224  4.4665292e-08      4491.4475 
 1086000      224  3.5663442e-08      4496.9194 
 1087000      224  2.2904678e-08      4502.1203 
 1088000      224  2.3060733e-08      4508.1963 
 1089000      224  1.9404727e-08      4514.2968 
 1090000      224  1.9833124e-08      4519.7803 
 1091000      224  1.9240253e-08      4525.3203 
 1092000      224  1.8029054e-08      4531.2813 
 1093000      224  1.6781794e-08      4536.5214 
 1094000      224  1.6924868e-08      4541.7189 
 1095000      224  1.7664329e-08      4546.2154 
 1096000      224  1.6233437e-08      4550.6531 
 1097000      224   1.447163e-08      4556.2604 
 1098000      224  1.2100179e-08      4561.2142 
 1099000      224  1.2588261e-08      4567.0649 
 1100000      224  1.0348967e-08      4571.4339 
 1101000      224  3.8072612e-08      4575.6664 
 1102000      224  2.2320896e-08      4580.0843 
 1103000      224  1.5659498e-08      4586.3142 
 1104000      224   1.980781e-08      4591.2091 
 1105000      224  2.7568245e-08      4597.0504 
 1106000      224  1.6119156e-08      4602.3028 
 1107000      224  1.9846712e-08      4607.8895 
 1108000      224  1.6351568e-08      4613.2265 
 1109000      224  1.0265908e-08      4618.5359 
 1110000      224  1.0404374e-08      4624.2192 
 1111000      224  1.0631922e-08      4629.0648 
 1112000      224  1.0160799e-08      4634.5516 
 1113000      224  1.0381906e-08       4640.165 
 1114000      224  1.0581296e-08      4645.0893 
 1115000      224  1.0908604e-08      4649.6724 
 1116000      224  1.1446498e-08      4654.2244 
 1117000      224  1.2460233e-08       4659.714 
 1118000      224  1.9660147e-08        4665.08 
 1119000      224  1.8491284e-08      4670.2727 
 1120000      224  2.3204836e-08      4676.0388 
 1121000      224  2.6431122e-08      4681.2624 
 1122000      224  2.1849615e-08      4686.2167 
 1123000      224  2.1201892e-08      4691.4791 
 1124000      224   2.251074e-08      4696.7992 
 1125000      224   3.768806e-08      4701.7174 
 1126000      224  3.4875912e-08      4706.0754 
 1127000      224  2.5669403e-08      4711.0363 
 1128000      224  2.0429863e-08      4717.0655 
 1129000      224  1.6645264e-08      4722.9938 
 1130000      224  1.5234357e-08      4728.7956 
 1131000      224   1.595663e-08      4734.8385 
 1132000      224  1.6753661e-08      4740.7042 
 1133000      224   1.276684e-08       4746.352 
 1134000      224  1.2750896e-08      4750.7784 
 1135000      224   9.621592e-09      4754.8944 
 1136000      224  8.7580777e-09      4759.8924 
 1137000      224  8.9073381e-09      4765.2911 
 1138000      224  8.8799326e-09      4770.5749 
 1139000      224  8.6391891e-09       4776.321 
 1140000      224  8.0422284e-07      4781.5989 
 1141000      224  8.3563264e-09      4787.4894 
 1142000      224  7.9476141e-09      4791.8566 
 1143000      224  8.0564109e-09      4797.2718 
 1144000      224  8.5779566e-09       4802.865 
 1145000      224  8.7237578e-09      4808.1039 
 1146000      224  9.4969959e-09       4813.754 
 1147000      224   1.613094e-07      4819.0316 
 1148000      224  1.2212563e-07      4823.9643 
 1149000      224  1.1040896e-07      4829.8143 
 1150000      224  9.3208102e-08      4835.7786 
 1151000      224  8.4844964e-08      4840.9806 
 1152000      224  7.9869252e-08      4846.3548 
 1153000      224  8.4729167e-08      4851.9589 
 1154000      224  7.3714515e-08      4856.3907 
 1155000      224  5.6116988e-08      4862.8552 
 1156000      224  5.2113788e-08      4868.8149 
 1157000      224  5.1075706e-08      4874.5497 
 1158000      224  6.1713195e-08      4879.9695 
 1159000      224   5.722418e-08      4884.4258 
 1160000      224  5.4358304e-08      4888.5387 
 1161000      224  5.6839485e-08      4893.2449 
 1162000      224  5.1700027e-08      4898.1571 
 1163000      224  4.7720187e-08      4904.8417 
 1164000      224  4.6870182e-08      4911.4796 
 1165000      224  4.6511117e-08      4916.5275 
 1166000      224  4.3505779e-08      4923.5152 
 1167000      224  4.0197886e-08      4930.5905 
 1168000      224  5.9813048e-08      4936.6003 
 1169000      224   3.875824e-08      4941.3846 
 1170000      224   3.746256e-08      4946.4623 
 1171000      224  3.4082415e-08      4952.0526 
 1172000      224  3.0902856e-08      4957.9723 
 1173000      224  3.1487355e-08      4963.8323 
 1174000      224  3.1308533e-08      4969.9266 
 1175000      224  3.1072237e-08      4975.1908 
 1176000      224  2.9424605e-08       4980.187 
 1177000      224  2.1849293e-08       4987.271 
 1178000      224  1.9443464e-08      4993.3893 
 1179000      224   1.924097e-08       4998.989 
 1180000      224  2.0007677e-08       5004.896 
 1181000      224  2.0540035e-08      5009.4553 
 1182000      224  2.1725146e-08      5014.9801 
 1183000      224  2.2244123e-08      5020.5596 
 1184000      224  2.6866344e-08      5025.7633 
 1185000      224  2.4592499e-08      5031.6534 
 1186000      224  2.4065372e-08      5036.5321 
 1187000      224  2.4649198e-08      5042.2257 
 1188000      224   1.749856e-08      5047.7344 
 1189000      224  1.7590203e-08      5053.5266 
 1190000      224  1.9480074e-07       5058.379 
 1191000      224  1.7468625e-07      5064.2301 
 1192000      224  1.0031827e-07       5069.472 
 1193000      224  9.1860972e-08       5075.213 
 1194000      224  3.7618047e-08      5081.4169 
 1195000      224  1.8868134e-08      5086.9263 
 1196000      224  1.6807556e-08      5092.6484 
 1197000      224  1.5796866e-08      5099.2233 
 1198000      224  1.3930791e-08      5105.4339 
 1199000      224  7.7917846e-07      5110.7643 
 1200000      224   1.507413e-08      5120.6109 
 1201000      224  1.6362566e-08      5126.4679 
 1202000      224  1.4657695e-08      5132.3424 
 1203000      224  1.3270572e-08      5137.2109 
 1204000      224   1.370096e-08      5142.7452 
 1205000      224  1.2388834e-08      5148.1947 
 1206000      224  1.3072011e-08      5153.5365 
 1207000      224  1.2879605e-08      5158.9801 
 1208000      224  1.2715591e-08      5163.9641 
 1209000      224  1.3331387e-08       5169.374 
 1210000      224  1.4444625e-08      5174.7062 
 1211000      224  1.4681915e-08      5179.7667 
 1212000      224  1.3122746e-08      5185.1028 
 1213000      224  1.4213093e-08      5191.1313 
 1214000      224  1.4304063e-08      5195.8092 
 1215000      224  1.1702904e-08      5199.7546 
 1216000      224  1.2410769e-08      5204.8841 
 1217000      224  1.1746184e-08      5209.7377 
 1218000      224  1.3330307e-08      5215.2344 
 1219000      224  1.4804906e-08      5219.3056 
 1220000      224  1.4580394e-08      5223.6632 
 1221000      224  2.2674124e-08      5228.8383 
 1222000      224  1.6124394e-08      5234.7557 
 1223000      224  1.9674441e-08      5239.4876 
 1224000      224  1.9168304e-08      5246.0331 
 1225000      224  1.7385071e-08      5251.3001 
 1226000      224  1.6902153e-08      5257.0091 
 1227000      224  1.7341615e-08      5261.8495 
 1228000      224     1.8703e-08      5267.2658 
 1229000      224  1.8076841e-08      5271.7088 
 1230000      224  1.7454965e-08      5277.4059 
 1231000      224  1.1373602e-08       5282.402 
 1232000      224  6.8573698e-08       5287.443 
 1233000      224  2.8419109e-08      5292.0922 
 1234000      224  2.1133514e-08      5297.3755 
 1235000      224  2.1608602e-08       5303.257 
 1236000      224  2.0473831e-08      5308.0747 
 1237000      224  1.6619493e-08       5313.159 
 1238000      224  1.6830049e-08      5318.7857 
 1239000      224   1.695372e-08      5323.6225 
 1240000      224  1.6763017e-08      5329.4327 
 1241000      224  1.7144701e-08      5334.7444 
 1242000      224  1.8050846e-08      5338.9789 
 1243000      224  1.5722868e-08      5344.5073 
 1244000      224  1.5838447e-08      5351.4576 
 1245000      224   1.597639e-08      5356.5564 
 1246000      224  1.3983926e-08      5361.5094 
 1247000      224  1.4830406e-08      5366.9291 
 1248000      224  1.5183659e-08      5371.7623 
 1249000      224  1.6198442e-08      5376.8348 
 1250000      224  4.4430137e-07      5382.6493 
 1251000      224  8.8530781e-08      5388.2835 
 1252000      224  7.3058845e-08      5394.5081 
 1253000      224  6.8355768e-08      5401.5706 
 1254000      224  6.4320897e-08      5406.4213 
 1255000      224  6.2898222e-08      5411.8122 
 1256000      224  5.8123379e-08      5417.1913 
 1257000      224  5.5964106e-08      5421.3874 
 1258000      224  5.5133562e-08      5426.0815 
 1259000      224  4.5086784e-08      5431.3294 
 1260000      224  4.5179463e-08      5435.9995 
 1261000      224  4.7650751e-08      5441.9772 
 1262000      224  4.8186391e-08      5447.7507 
 1263000      224  4.7175582e-08      5452.2115 
 1264000      224  5.6058552e-08      5456.3765 
 1265000      224  5.5134888e-08      5461.3295 
 1266000      224  5.2212288e-08      5465.9021 
 1267000      224  4.3085827e-08      5471.6012 
 1268000      224  4.2555919e-08      5476.5356 
 1269000      224  4.2102461e-08      5482.1257 
 1270000      224  4.2148337e-08      5486.5881 
 1271000      224  3.2387972e-08      5492.0742 
 1272000      224  2.8532237e-08      5497.5448 
 1273000      224  2.1108442e-08      5503.3969 
 1274000      224  4.3251956e-08      5509.1806 
 1275000      224  3.4944545e-08      5513.6426 
 1276000      224  3.0876083e-08      5519.3404 
 1277000      224   1.979764e-08      5525.1723 
 1278000      224  2.4562436e-08      5530.0646 
 1279000      224  1.6031495e-08      5535.7997 
 1280000      224    1.49466e-08      5541.9824 
 1281000      224  1.4987037e-08      5546.3815 
 1282000      224  1.4788259e-08      5551.3037 
 1283000      224  1.4590541e-08      5556.6645 
 1284000      224   1.376684e-08      5561.8672 
 1285000      224  1.3434522e-08      5566.8584 
 1286000      224  1.2487614e-08      5571.7223 
 1287000      224  1.5014392e-07      5576.9698 
 1288000      224  1.5182429e-07      5582.6026 
 1289000      224  1.3333223e-07      5587.6246 
 1290000      224  1.2763161e-07      5592.0015 
 1291000      224  1.1436695e-07      5597.8421 
 1292000      224  1.0571917e-07      5602.2332 
 1293000      224  9.8381143e-08      5607.8206 
 1294000      224  9.3744157e-08      5612.3794 
 1295000      224  8.9640004e-08      5617.8229 
 1296000      224  8.4597516e-08      5623.6123 
 1297000      224  7.9941444e-08       5629.653 
 1298000      224  7.6056683e-08      5634.3864 
 1299000      224  6.8752296e-08      5639.0904 
 1300000      224   6.656803e-08       5643.858 
 1301000      224  6.4016347e-08      5649.0574 
 1302000      224  5.3753497e-08      5654.0219 
 1303000      224  5.0888629e-08      5659.5491 
 1304000      224  4.9294824e-08      5664.8562 
 1305000      224  2.1873518e-07       5670.574 
 1306000      224  2.1202581e-07      5675.8715 
 1307000      224  1.1992254e-07      5681.9951 
 1308000      224  1.1004886e-07      5687.8685 
 1309000      224  1.0415341e-07      5694.5888 
 1310000      224   9.921667e-08       5700.083 
 1311000      224  8.8083809e-08      5706.0835 
 1312000      224  5.4579065e-08      5712.2902 
 1313000      224   4.226895e-08      5717.4604 
 1314000      224  3.6652238e-08      5721.6158 
 1315000      224  3.5615914e-08      5727.5704 
 1316000      224  3.2227909e-08      5733.3418 
 1317000      224  3.1530901e-08      5739.4648 
 1318000      224  4.9434819e-08      5745.9874 
 1319000      224  4.4430875e-08      5751.5626 
 1320000      224  4.2902289e-08      5756.5129 
 1321000      224  3.6777329e-08      5762.6709 
 1322000      224  3.4852451e-08      5768.7299 
 1323000      224  3.3504002e-08      5774.4092 
 1324000      224  3.1828368e-08      5779.9227 
 1325000      224  2.7799786e-08      5785.0975 
 1326000      224  2.8318529e-08      5791.6659 
 1327000      224  2.5132895e-08      5798.6549 
 1328000      224  2.5053535e-08      5804.3532 
 1329000      224  2.6047242e-08      5810.7664 
 1330000      224  2.6535051e-08       5817.246 
 1331000      224  9.4621142e-08      5822.7131 
 1332000      224  8.3408714e-08      5828.5834 
 1333000      224  7.9508446e-08      5834.2871 
 1334000      224  5.4996633e-08      5839.3622 
 1335000      224  5.3440146e-08      5844.4116 
 1336000      224  5.1241905e-08      5850.4368 
 1337000      224  5.1597414e-08      5856.3983 
 1338000      224   3.156471e-08      5861.9736 
 1339000      224  3.0459956e-08      5866.9246 
 1340000      224  3.0597321e-08      5872.2982 
 1341000      224  2.8005793e-08      5879.1929 
 1342000      224  3.7890879e-08      5884.5985 
 1343000      224  3.2598363e-08      5891.4428 
 1344000      224  3.0928325e-08      5897.7802 
 1345000      224  2.8016179e-08       5903.697 
 1346000      224  2.5616343e-08       5908.621 
 1347000      224  2.6887895e-08      5915.2814 
 1348000      224  2.3878768e-08      5921.4699 
 1349000      224  2.6375911e-08       5928.173 
 1350000      224   2.534945e-08      5933.4802 
 1351000      224  2.5235803e-08      5938.5636 
 1352000      224   2.738293e-08      5944.1815 
 1353000      224  2.3071978e-08      5950.0203 
 1354000      224  2.2904111e-08       5955.603 
 1355000      224  2.2000176e-08      5961.0958 
 1356000      224   2.317039e-08      5967.1243 
 1357000      224  2.1645312e-08      5973.2817 
 1358000      224  2.3754849e-08       5979.333 
 1359000      224  2.4380056e-08      5984.8311 
 1360000      224  2.4265999e-08      5989.6955 
 1361000      224  2.3827681e-08      5995.0883 
 1362000      224  2.5241738e-08       6000.083 
 1363000      224  2.7166281e-08      6005.0499 
 1364000      224  2.7105677e-08       6011.916 
 1365000      224  2.4448384e-08      6018.0666 
 1366000      224  2.5994986e-08       6023.345 
 1367000      224  2.8412311e-08      6028.7214 
 1368000      224  3.9405655e-08      6035.0253 
 1369000      224   3.236057e-08      6040.9199 
 1370000      224  3.1507963e-08      6047.1163 
 1371000      224  2.5604596e-08      6053.1969 
 1372000      224  2.9542843e-08      6059.9206 
 1373000      224  2.5925716e-08      6066.4378 
 1374000      224  2.0270505e-08       6071.376 
 1375000      224   2.017358e-08       6075.942 
 1376000      224  2.0762345e-08      6081.4783 
 1377000      224  2.0566559e-08      6086.2891 
 1378000      224  1.8553618e-08      6092.7033 
 1379000      224  1.1344191e-08      6098.3822 
 1380000      224  1.1140254e-08      6103.8234 
[...]
29780000      107  1.6458875e-09      166023.51 
29781000      107  1.6528467e-09       166027.4 
29782000      107   1.657326e-09      166031.75 
29783000      107  1.6747088e-09      166035.36 
29784000      107  5.0073006e-09      166039.19 
29785000      107  1.9018154e-09      166042.46 
29786000      107  1.6898839e-09      166046.18 
29787000      107  1.6790744e-09      166050.43 
29788000      107  1.7002265e-09      166055.37 
29789000      107  1.6827691e-09      166058.68 
29790000      107  1.6244568e-09      166062.71 
29791000      107  1.6469753e-09      166066.06 
29792000      107   1.643795e-09      166069.48 
29793000      107  1.6223353e-09      166072.88 
29794000      107  1.5958363e-09      166076.83 
29795000      107  8.2781693e-08       166081.2 
29796000      107  1.1493017e-07      166085.24 
29797000      107   1.646434e-09      166089.74 
29798000      107  1.6498681e-09      166094.27 
29799000      107  1.6100357e-09       166098.4 
29800000      107   1.591533e-09      166106.87 
29801000      107  1.5643342e-09      166111.68 
29802000      107  1.5668593e-09      166116.58 
29803000      107   1.104619e-06      166120.94 
29804000      107  9.1325875e-08      166125.61 
29805000      107  1.9676539e-09      166130.11 
29806000      107  3.0108986e-09      166133.52 
29807000      107  1.5558836e-09      166136.75 
29808000      107  3.5876661e-09      166139.74 
29809000      107  2.6516651e-07      166142.81 
29810000      107  8.6115896e-08      166145.97 
29811000      107  4.8143551e-09       166149.4 
29812000      107  1.8233439e-09      166152.62 
29813000      107  1.7583357e-09      166155.95 
29814000      107   1.616869e-09       166160.3 
29815000      107  1.5904519e-09      166164.55 
29816000      107  1.5873716e-09      166167.97 
29817000      107  1.5961015e-09      166172.36 
29818000      107  1.5543904e-09      166175.67 
29819000      107  1.5568197e-09      166179.32 
29820000      107   1.567144e-09       166182.4 
29821000      107  1.5510467e-09       166186.7 
29822000      107   1.555781e-09      166189.87 
29823000      107  1.5486841e-09      166193.99 
29824000      107  1.5314874e-09      166197.52 
29825000      107  1.5590605e-08      166201.55 
29826000      107  5.6737677e-09      166204.64 
29827000      107  3.0636744e-09      166208.32 
29828000      107  1.5937424e-09      166211.84 
29829000      107  1.5759951e-09       166215.2 
29830000      107  1.5789987e-09      166219.06 
29831000      107  1.5523732e-09       166222.2 
29832000      107  1.5870003e-09      166226.03 
29833000      107  1.5897509e-09      166229.01 
29834000      107  1.8304616e-08      166232.86 
29835000      107  1.5575092e-09      166236.53 
29836000      107  1.5581112e-09      166241.06 
29837000      107  6.9746791e-09      166244.81 
29838000      107   1.539892e-09      166248.63 
29839000      107  1.5475927e-09      166251.71 
29840000      107  8.5016209e-08      166254.99 
29841000      107  1.5081067e-09      166258.04 
29842000      107  1.5097997e-09      166261.53 
29843000      107  4.3619453e-08      166264.99 
29844000      107  1.5017257e-09      166269.12 
29845000      107   1.512376e-09      166273.46 
29846000      107  1.5568863e-09      166277.19 
29847000      107  1.5347186e-09      166280.94 
29848000      107  1.5249613e-09      166284.85 
29849000      107  1.5826381e-09      166289.12 
29850000      107  1.5942103e-09      166292.66 
29851000      107  2.0826393e-09      166297.22 
29852000      107  4.7977126e-07      166301.45 
29853000      107  1.8443336e-09      166306.01 
29854000      107  4.6467088e-09       166309.7 
29855000      107  1.8017266e-09         166313 
29856000      107  1.8923673e-08      166317.02 
29857000      107  1.5706604e-09      166321.57 
29858000      107  1.5590148e-09         166326 
29859000      107  2.2101817e-08      166330.84 
29860000      107  1.5718679e-09      166335.33 
29861000      107  3.1617028e-07      166338.97 
29862000      107  1.1557008e-05      166342.36 
29863000      107  3.8126377e-06      166345.74 
29864000      107  2.5787234e-07       166348.9 
29865000      107  1.2122289e-06      166353.43 
29866000      107  2.5281303e-06      166356.78 
29867000      107  6.9909279e-08      166361.25 
29868000      107    2.58242e-05      166365.51 
29869000      107  3.6831623e-06      166370.13 
29870000      107   3.205369e-08      166374.66 
29871000      107  1.5328913e-08      166379.53 
29872000      107  6.0669428e-09       166383.9 
29873000      107  8.7709765e-09      166388.54 
29874000      107  5.5937613e-09      166392.45 
29875000      107  1.8181068e-08      166397.13 
29876000      107  2.3318457e-09      166400.38 
29877000      107  4.7419797e-09      166403.86 
29878000      107  1.9715177e-09      166407.16 
29879000      107  5.0816984e-08      166410.39 
29880000      107  1.7817491e-09      166414.04 
29881000      107  4.7000841e-09       166417.9 
29882000      107  5.3296131e-09      166422.67 
29883000      107   5.061505e-07      166427.74 
29884000      107  1.7706053e-09      166432.33 
29885000      107  1.6905061e-09      166437.04 
29886000      107  2.6182403e-07      166440.93 
29887000      107  1.6945674e-09       166444.5 
29888000      107  1.5978384e-09      166449.02 
29889000      107  1.5920234e-09       166453.5 
29890000      107  1.6300498e-09      166457.97 
29891000      107  1.5839591e-09      166461.78 
29892000      107   1.576928e-09      166466.33 
29893000      107  1.9355692e-09      166469.58 
29894000      107    2.92025e-07      166473.32 
29895000      107  3.6722437e-07      166477.01 
29896000      107  1.6391464e-09      166480.96 
29897000      107  1.6690571e-09      166485.59 
29898000      107  1.6008633e-09      166489.73 
29899000      107  2.4511857e-09      166494.21 
29900000      107  8.7198263e-09      166497.94 
29901000      107  2.7773099e-09      166502.99 
29902000      107  1.6001983e-09      166507.82 
29903000      107  2.1431239e-07      166513.08 
29904000      107  6.4302117e-08      166518.79 
29905000      107  8.7569771e-09      166523.32 
29906000      107  6.5957824e-09      166527.36 
29907000      107  2.2962582e-09       166532.9 
29908000      107  1.6339899e-09      166537.84 
29909000      107  1.6345472e-09       166542.4 
29910000      107  1.6378501e-09      166547.16 
29911000      107  1.6605873e-09       166551.8 
29912000      107   1.658309e-09      166555.15 
29913000      107  2.4550965e-08       166559.7 
29914000      107  1.6707008e-09      166563.32 
29915000      107  6.8392935e-07      166566.59 
29916000      107  4.9255787e-09      166570.98 
29917000      107  1.6920437e-09      166574.76 
29918000      107  1.6907958e-09      166578.17 
29919000      107    1.75167e-09      166581.94 
29920000      107  1.7675928e-09      166585.92 
29921000      107  1.7540004e-09      166590.26 
29922000      107  1.7285878e-09      166594.93 
29923000      107  1.7072409e-09      166599.27 
29924000      107  1.6846102e-09      166602.82 
29925000      107  1.6977428e-09      166606.73 
29926000      107  1.9550758e-09      166610.62 
29927000      107  1.6216921e-08      166614.77 
29928000      107  2.1946866e-09      166619.28 
29929000      107  1.6803185e-09      166623.05 
29930000      107  2.4708249e-09       166626.2 
29931000      107  1.9846418e-09       166629.7 
29932000      107   1.048898e-08      166634.01 
29933000      107  7.7757086e-08      166638.43 
29934000      107  7.1003997e-08      166641.87 
29935000      107   4.784235e-07      166646.76 
29936000      107  8.3071262e-09      166650.47 
29937000      107  1.8455332e-09      166654.13 
29938000      107  1.7153901e-09      166658.53 
29939000      107  1.7460895e-09      166662.17 
29940000      107  1.6936057e-09      166665.67 
29941000      107  5.9683582e-09      166669.14 
29942000      107  1.6689654e-09      166672.48 
29943000      107  1.6494797e-09      166676.12 
29944000      107  1.7563301e-09       166680.2 
29945000      107  1.9519211e-09      166685.06 
29946000      107  1.6913697e-09      166689.31 
29947000      107  1.7084722e-09      166693.14 
29948000      107  1.7542847e-09      166696.87 
29949000      107  1.7650715e-09      166700.34 
29950000      107  1.7723094e-09      166703.89 
29951000      107   1.759584e-09      166707.57 
29952000      107  1.4743795e-08      166711.31 
29953000      107  3.4329231e-08      166715.67 
29954000      107  1.7446884e-09      166719.42 
29955000      107  1.7383328e-09      166722.98 
29956000      107  1.7088503e-09      166726.22 
29957000      107  1.6852694e-09      166729.83 
29958000      107  1.6823363e-09      166733.53 
29959000      107  1.6970638e-09      166738.15 
29960000      107  3.8898734e-09      166742.57 
29961000      107  3.3575551e-09      166747.37 
29962000      107   9.604746e-08      166751.49 
29963000      107  5.4202045e-08      166756.04 
29964000      107  4.9182189e-09         166760 
29965000      107  5.4408791e-09      166764.55 
29966000      107  2.8114417e-09      166769.13 
29967000      107   2.418026e-09      166773.67 
29968000      107  5.8323189e-09       166777.7 
29969000      107   1.777032e-09      166782.22 
29970000      107  1.5988898e-09      166786.25 
29971000      107  1.5763907e-09      166789.92 
29972000      107  1.5486105e-09      166793.73 
29973000      107  1.5815821e-09      166798.07 
29974000      107  1.6026613e-09      166801.47 
29975000      107  1.6456329e-09      166804.92 
29976000      107  1.6096583e-09      166809.04 
29977000      107   1.597507e-09         166812 
29978000      107  9.3887669e-09       166815.2 
29979000      107   4.245999e-09      166818.95 
29980000      107  4.6020455e-09      166822.63 
29981000      107  2.9520903e-08      166826.39 
29982000      107   1.787526e-09      166830.46 
29983000      107  1.7716736e-09       166834.7 
29984000      107  3.6013705e-08      166839.25 
29985000      107  1.5754604e-09      166843.12 
29986000      107  7.7613176e-09      166846.84 
29987000      107  3.6677829e-08      166851.22 
29988000      107  1.4913533e-09       166856.3 
29989000      107  1.1104804e-08      166861.29 
29990000      107  2.3815303e-08      166865.98 
29991000      107  3.2483253e-08       166870.7 
29992000      107  2.9909462e-08      166875.58 
29993000      107  7.5920451e-09      166880.27 
29994000      107  1.6894299e-08      166884.82 
29995000      107  1.5194773e-08      166889.47 
29996000      107  1.5304201e-09      166893.53 
29997000      107  1.5066461e-09      166898.39 
29998000      107  1.5042312e-09      166903.61 
29999000      107   1.534712e-09      166908.53 
30000000      107  1.5660792e-09       166916.2 
30001000      107  1.5799566e-09      166920.79 
30002000      107  1.5429388e-09      166926.06 
30003000      107  1.5062133e-09      166931.21 
30004000      107   2.191995e-09       166936.2 
30005000      107  5.6808037e-09      166941.02 
30006000      107  1.5907618e-09      166945.31 
30007000      107  8.0144414e-08      166949.63 
30008000      107  4.7068453e-09      166953.98 
30009000      107   1.529506e-09       166958.3 
30010000      107  1.7463101e-09      166962.93 
30011000      107  1.5166761e-08      166966.97 
30012000      107  1.4830279e-08      166971.81 
30013000      107  3.2834909e-08      166975.96 
30014000      107  1.5919208e-08      166979.06 
30015000      107  1.0963613e-08      166981.93 
30016000      107  4.0265221e-08      166985.61 
30017000      107  7.2895275e-08      166989.49 
30018000      107  2.5999727e-07      166993.98 
30019000      107  2.3321435e-09      166997.88 
30020000      107  1.9444173e-09      167001.84 
30021000      107  1.6819597e-09      167005.44 
30022000      107  3.5494298e-09      167008.86 
30023000      107  1.5139032e-08      167013.25 
30024000      107  3.5950246e-09      167017.85 
30025000      107  1.1108435e-06      167022.47 
30026000      107  5.4604129e-07      167027.15 
30027000      107  1.5638642e-09      167031.72 
30028000      107   1.565718e-09      167035.88 
30029000      107  1.5494479e-09      167039.88 
30030000      107  1.5534184e-09      167044.29 
30031000      107  1.5692825e-09      167048.06 
30032000      107    1.57336e-09      167052.22 
30033000      107  1.5628353e-09      167056.16 
30034000      107  1.5945878e-09      167060.09 
30035000      107  1.5603535e-09      167063.92 
30036000      107   1.552989e-09      167067.82 
30037000      107  1.5376578e-09       167071.3 
30038000      107  1.6680785e-09      167075.24 
30039000      107   1.552011e-09      167078.78 
30040000      107   1.605421e-09      167082.25 
30041000      107  2.5593059e-09       167086.3 
30042000      107  6.3387626e-09      167089.44 
30043000      107  1.0305785e-08      167092.56 
30044000      107  3.1863047e-08      167095.71 
30045000      107  9.4118552e-09       167099.5 
30046000      107   4.934356e-09      167103.78 
30047000      107  1.5781241e-09      167107.28 
30048000      107  1.5413622e-09      167111.54 
30049000      107  5.7257634e-07      167116.22 
30050000      107  5.3711471e-09      167120.53 
30051000      107  1.5194592e-09      167124.18 
30052000      107  1.4972128e-09      167128.51 
30053000      107  1.4791738e-09      167133.11 
30054000      107  1.5348037e-09      167137.63 
30055000      107  1.5253482e-09      167141.89 
30056000      107   1.540236e-09      167145.94 
30057000      107  1.5445632e-09      167150.81 
30058000      107  4.9435526e-09      167155.67 
30059000      107  3.1389132e-09      167160.26 
30060000      107   1.496766e-08      167164.99 
30061000      107  1.6245325e-06      167168.62 
30062000      107  1.5293056e-06      167171.87 
30063000      107  1.6532572e-06      167176.57 
30064000      107  1.0384832e-05      167181.09 
30065000      107  7.5626705e-07      167185.52 
30066000      107  3.5464108e-06      167189.81 
30067000      107  2.3014962e-06      167194.32 
30068000      107   1.848361e-06       167198.5 
30069000      107   9.974419e-07      167202.27 
30070000      107  1.5461958e-09      167206.69 
30071000      107  1.6802032e-09      167210.71 
30072000      107  1.4714178e-09      167214.86 
30073000      107  1.6748076e-09      167218.82 
30074000      107  2.9545761e-09       167222.4 
30075000      107  1.3786596e-08      167226.33 
30076000      107  1.8240982e-09       167229.4 
30077000      107  1.6147662e-09      167232.76 
30078000      107  2.2846996e-09      167236.37 
30079000      107  1.8394916e-09      167240.06 
30080000      107  1.6335827e-09       167243.7 
30081000      107  1.5883383e-09      167247.36 
30082000      107   1.595881e-09      167250.94 
30083000      107   1.564706e-09      167254.21 
30084000      107  1.5762801e-09      167257.99 
30085000      107  1.5648871e-09      167262.14 
30086000      107  1.5385128e-09      167265.46 
30087000      107  1.5267791e-09      167269.11 
30088000      107  1.5721881e-09      167273.59 
30089000      107  1.5389736e-09      167278.18 
30090000      107  1.5767283e-09      167281.71 
30091000      107  1.6259679e-09      167285.17 
30092000      107  4.2638089e-08      167289.37 
30093000      107  1.5707984e-09      167294.19 
30094000      107  1.5358475e-09      167298.36 
30095000      107  1.5700022e-09      167302.71 
30096000      107  1.5865871e-09      167306.26 
30097000      107  1.6816355e-09      167310.28 
30098000      107   3.431029e-08      167314.23 
30099000      107  2.1820843e-09      167318.39 
30100000      107  2.6490743e-09      167322.63 
30101000      107  2.0335146e-09      167327.07 
30102000      107  9.9470516e-09         167332 
30103000      107  1.6083987e-09      167336.43 
30104000      107  1.3321675e-08      167340.55 
30105000      107  1.6386583e-07      167344.49 
30106000      107  1.2595921e-07      167347.69 
30107000      107  4.4413729e-09      167350.96 
30108000      107  2.8852211e-08      167354.43 
30109000      107  1.3123061e-07      167358.52 
30110000      107  4.5665809e-09      167361.95 
30111000      107  7.0486828e-07      167365.45 
30112000      107  1.4964948e-09      167369.33 
30113000      107  1.4991246e-09      167373.69 
30114000      107  1.4998895e-09      167377.58 
30115000      107  1.4894098e-09       167382.3 
30116000      107  1.4924228e-09      167386.98 
30117000      107  3.0320603e-08      167391.67 
30118000      107  1.5845904e-09      167396.29 
30119000      107  1.8361452e-09      167400.16 
30120000      107  1.6228702e-09       167403.7 
30121000      107  1.6260224e-09       167408.2 
30122000      107  1.8604887e-09       167412.6 
30123000      107  1.5978882e-09       167417.3 
30124000      107   3.812336e-09      167421.59 
30125000      107  1.6522027e-08      167425.43 
30126000      107  1.5798617e-09      167429.41 
30127000      107  1.8020875e-09      167432.73 
30128000      107  1.7460359e-09       167436.3 
30129000      107  1.6188794e-09      167440.94 
30130000      107  1.8614127e-09       167445.7 
30131000      107  1.9619439e-09      167449.42 
30132000      107  7.1221955e-07      167453.19 
30133000      107   5.267783e-08      167457.91 
30134000      107  1.5659179e-09      167462.53 
30135000      107  1.5950103e-09      167467.28 
30136000      107  1.7654304e-09      167471.55 
30137000      107    2.65859e-09      167476.06 
30138000      107  1.9202706e-09      167480.33 
30139000      107   1.692493e-09      167484.11 
30140000      107  1.6076719e-09      167488.34 
30141000      107   1.641542e-09      167492.38 
30142000      107  1.6041708e-09      167496.19 
30143000      107  1.6571097e-09      167499.96 
30144000      107  5.1453163e-08      167503.87 
30145000      107  7.2752174e-09      167508.66 
30146000      107  2.0081882e-09      167512.28 
30147000      107  3.5896848e-09      167515.88 
30148000      107  1.6796958e-09      167520.02 
30149000      107   1.704435e-09      167524.52 
30150000      107   1.681684e-09      167528.29 
30151000      107  1.1125374e-07       167530.7 
30152000      107  3.9167863e-09         167534 
30153000      107   1.843831e-09      167538.52 
30154000      107  7.0709076e-08      167542.53 
30155000      107  1.8807657e-09      167546.13 
30156000      107  1.7567278e-09      167550.18 
30157000      107  1.7269899e-09      167554.65 
30158000      107  1.7661924e-09      167559.02 
30159000      107  1.7487763e-09      167563.38 
30160000      107  1.7250237e-09      167567.66 
30161000      107  1.7025262e-09      167571.33 
30162000      107  1.7458277e-09      167574.98 
30163000      107  1.1231309e-06      167578.52 
30164000      107  1.7311011e-09       167582.2 
30165000      107   1.684603e-09       167587.1 
30166000      107   1.694178e-09       167590.8 
30167000      107  1.7010458e-09      167595.03 
30168000      107  1.7624714e-09      167600.09 
30169000      107  2.8179865e-09      167604.97 
30170000      107  2.5190711e-09      167608.73 
30171000      107  2.6626494e-09      167612.36 
30172000      107  2.1889905e-09      167615.74 
30173000      107  2.5972044e-09      167619.45 
30174000      107  2.4474001e-09      167623.63 
30175000      107  2.3631659e-09      167627.01 
30176000      107  1.8047022e-09      167630.51 
30177000      107  2.2195636e-09      167634.09 
30178000      107  5.1222236e-09      167637.84 
30179000      107  1.8603492e-09      167641.82 
30180000      107  7.1942584e-09       167646.1 
30181000      107   1.335278e-07      167650.14 
30182000      107  7.2463379e-08      167653.74 
30183000      107  7.9087476e-09      167657.81 
30184000      107  1.6409731e-09      167661.48 
30185000      107  1.6233608e-09      167666.07 
30186000      107  1.6285206e-09      167669.97 
30187000      107  1.5989111e