ITEM: TIMESTEP
300000
ITEM: NUMBER OF ATOMS
107
ITEM: BOX BOUNDS ff ff ff
-0.02 0.43
-0.02 0.06
-0.02 0.07
ITEM: ATOMS id type x y z vx vy vz fx fy fz radius mass 
1 1 0.0214438 0.0148592 0.0146834 -0.00132647 0.00554491 -0.00520329 -9.70629e-08 1.7731e-06 -2.49599e-06 0.0005 5.23599e-07 
2 1 0.0185551 0.0234082 0.0144193 -0.0230638 0.00110149 0.00568532 0 0 -5.1365e-06 0.0005 5.23599e-07 
3 1 0.0172381 0.023929 0.0129502 -0.0147966 0.0126575 0.000925692 0 0 -5.1365e-06 0.0005 5.23599e-07 
5 1 0.0180518 0.0147667 0.0127039 0.00538033 0.00729753 0.0328287 -7.76424e-06 -5.55117e-06 1.07331e-05 0.0005 5.23599e-07 
6 1 0.0191085 0.0239037 0.0134993 -0.0050673 0.00582206 -0.0107988 3.50428e-06 8.73727e-05 -1.13492e-05 0.0005 5.23599e-07 
7 1 0.0199163 0.0241189 0.0129446 -0.000678026 -0.00377197 -0.00196598 -3.38863e-06 -2.67118e-05 0.000169488 0.0005 5.23599e-07 
9 1 0.0148111 0.0141342 0.0160741 7.66358e-21 -1.17022e-19 2.0377e-20 0 0 0 0.0005 5.23599e-07 
10 1 0.0223099 0.0151699 0.0150881 0.00106668 -0.00314291 0.000892712 0 0 -5.1365e-06 0.0005 5.23599e-07 
12 1 0.0205382 0.014523 0.014128 0.0227231 0.00446416 0.0159071 2.12187e-05 -8.91927e-06 1.0595e-05 0.0005 5.23599e-07 
13 1 0.0243843 0.0202163 0.0157896 -0.00557853 0.0123425 0.00508193 -3.46289e-05 7.31786e-05 -4.50386e-05 0.0005 5.23599e-07 
14 1 0.0183889 0.0226293 0.0153493 -0.00961709 -0.00999261 -0.0141076 0 0 -5.1365e-06 0.0005 5.23599e-07 
17 1 0.020577 0.0151907 0.0150699 0.00191623 0.00472416 0.00660833 0 0 -5.1365e-06 0.0005 5.23599e-07 
18 1 0.0165122 0.0238473 0.0138452 0.0272049 0.0001601 -0.0352263 0 0 -5.1365e-06 0.0005 5.23599e-07 
21 1 0.0223155 0.0214579 0.0153256 0.0383502 0.0342041 0.000558335 -0.00050855 0.000122513 0.000734141 0.0005 5.23599e-07 
23 1 0.0171419 0.0235962 0.015901 -0.0726929 0.0138325 0.0806885 0 0 -5.1365e-06 0.0005 5.23599e-07 
24 1 0.0242534 0.0211582 0.0154723 -0.00699971 0.0211091 -0.0194478 -5.91183e-05 4.72913e-05 4.90258e-05 0.0005 5.23599e-07 
25 1 0.0188663 0.0149499 0.0132521 0.0196306 0.00424103 0.0153876 1.67151e-06 -3.59142e-06 1.75005e-07 0.0005 5.23599e-07 
26 1 0.0167707 0.0227911 0.0142419 -0.023541 -0.00899017 0.0208074 0 0 -5.1365e-06 0.0005 5.23599e-07 
29 1 0.0158594 0.0231615 0.0145008 -0.0267393 0.0222176 -0.0208618 0 0 -5.1365e-06 0.0005 5.23599e-07 
35 1 0.0191503 0.0221096 0.0157664 0.0212708 0.0201807 -0.0244231 0 0 -5.1365e-06 0.0005 5.23599e-07 
36 1 0.024962 0.0203221 0.0165894 0.000482935 -0.0110621 -0.00580277 0.000271592 -0.000204837 2.08124e-05 0.0005 5.23599e-07 
38 1 0.0202957 0.01406 0.0130552 0.00420775 0.00256187 -0.00282392 -3.42585e-06 4.85648e-06 2.41827e-08 0.0005 5.23599e-07 
39 1 0.0224784 0.0205462 0.015687 0.0116392 0.0472973 -0.0221995 0.000217873 -4.71608e-05 -0.000507153 0.0005 5.23599e-07 
40 1 0.0193727 0.0239865 0.0145657 -0.0537693 -0.00442488 0.0127987 0 0 -5.1365e-06 0.0005 5.23599e-07 
42 1 0.0230465 0.0219758 0.0148731 0.00122799 0.0312731 -0.0184168 -0.000171738 0.000105623 3.08674e-05 0.0005 5.23599e-07 
44 1 0.0252017 0.0212514 0.0162715 0.0163971 0.0276793 0.0213199 -0.00053828 0.00092159 0.000803975 0.0005 5.23599e-07 
45 1 0.0216421 0.0232849 0.0156451 -0.0930178 -0.0678424 0.0807689 6.26157e-07 3.56306e-07 -4.1126e-06 0.0005 5.23599e-07 
48 1 0.0214912 0.0233744 0.0124627 -0.00333437 0.0554073 -0.024072 -0.000833123 0.00235394 -0.00271103 0.0005 5.23599e-07 
49 1 0.0242606 0.0181255 0.0158539 0.00137378 0.0377928 0.00986337 0 0 -5.1365e-06 0.0005 5.23599e-07 
52 1 0.0208372 0.0229502 0.0151016 -0.023822 0.00624375 0.0189967 0 0 -5.1365e-06 0.0005 5.23599e-07 
53 1 0.0229831 0.0206566 0.0165758 -0.00421795 -0.00684463 0.0129871 0 0 -5.1365e-06 0.0005 5.23599e-07 
54 1 0.0236057 0.0228274 0.0149081 0.0526817 -0.0901961 -0.129588 0.00398751 -0.00144838 -0.00262915 0.0005 5.23599e-07 
57 1 0.0187484 0.0275985 0.0256236 0.0172185 -0.0326053 -0.0360862 0 0 -5.1365e-06 0.0005 5.23599e-07 
60 1 0.0178419 0.0151342 0.0136095 0.0125685 0.0099615 0.0331567 -1.14131e-05 1.27314e-06 1.0187e-05 0.0005 5.23599e-07 
62 1 0.0201622 0.0242734 0.0139536 -0.0669013 0.00749533 0.00448278 0 0 -5.1365e-06 0.0005 5.23599e-07 
63 1 0.0220141 0.0144032 0.0140003 0.00660478 0.00239723 0.00153918 -2.96996e-07 6.4485e-06 3.31554e-06 0.0005 5.23599e-07 
64 1 0.0233923 0.0201741 0.0158011 -0.000210313 0.0249852 0.0111401 -0.00015765 2.65139e-05 -0.000133104 0.0005 5.23599e-07 
65 1 0.0232402 0.022713 0.0140054 0.0223142 -0.0503431 0.0508933 0.0019287 3.76175e-05 -0.00371774 0.0005 5.23599e-07 
66 1 0.0193837 0.0230523 0.0149371 -0.0375172 -0.0288656 0.00471743 0 0 -5.1365e-06 0.0005 5.23599e-07 
67 1 0.0193266 0.0159349 0.0147561 0.00794534 -0.0182432 0.0475745 0 0 -5.1365e-06 0.0005 5.23599e-07 
68 1 0.0159168 0.0231251 0.0132826 0.0163416 0.00513179 -0.0141632 2.2792e-07 1.7808e-07 5.68915e-08 0.0005 5.23599e-07 
69 1 0.0227575 0.0232324 0.0155831 -0.144177 0.0109359 0.0354634 0.0117717 0.00320385 -0.00477212 0.0005 5.23599e-07 
70 1 0.0197485 0.0149743 0.0145505 0.016393 0.0091147 0.0142223 -3.02646e-07 6.91124e-06 1.08626e-05 0.0005 5.23599e-07 
74 1 0.0224555 0.0238365 0.0147691 -0.0119941 0.0234587 -0.043362 0.00677384 0.000174747 -0.00505671 0.0005 5.23599e-07 
75 1 0.0249912 0.0170178 0.0154484 0.00149874 0.0263754 0.0137926 8.40974e-07 1.43173e-07 -7.25967e-07 0.0005 5.23599e-07 
76 1 0.0240373 0.0227447 0.0157799 -0.0514231 -0.0156231 -0.0571847 0.000486226 -8.3692e-05 7.65597e-05 0.0005 5.23599e-07 
79 1 0.0166467 0.0236853 0.0148617 -0.0314074 0.0769998 -0.00299561 0 0 -5.1365e-06 0.0005 5.23599e-07 
80 1 0.0176935 0.0143615 0.0142442 0.00556045 0.000324607 0.00687963 0 0 -5.1365e-06 0.0005 5.23599e-07 
81 1 0.0197826 0.0146261 0.0119309 5.85477e-06 -0.00139401 0.00219015 9.65703e-10 -3.75417e-07 5.55403e-07 0.0005 5.23599e-07 
82 1 0.0169422 0.01417 0.0135428 0.005382 -0.00155736 0.0168324 0 0 -5.1365e-06 0.0005 5.23599e-07 
84 1 0.0161491 0.0229134 0.0155706 0.0123815 0.020138 -0.00481594 0 0 -5.1365e-06 0.0005 5.23599e-07 
85 1 0.0226439 0.0228766 0.0147127 -0.0167706 0.0485752 0.0621105 0.0117459 0.00778681 0.0114306 0.0005 5.23599e-07 
86 1 0.0239639 0.0182725 0.0167985 0.00542925 0.0290125 0.0252316 0 0 -5.1365e-06 0.0005 5.23599e-07 
87 1 0.0231073 0.0179322 0.0158007 0.00224689 0.0291828 0.0104214 6.38655e-07 -3.90967e-07 -6.8248e-06 0.0005 5.23599e-07 
88 1 0.0213116 0.0221064 0.0158649 0.0182105 -0.0695458 -0.0202581 0 0 -5.1365e-06 0.0005 5.23599e-07 
89 1 0.0244635 0.0191121 0.0159605 0.00529284 -0.0637587 0.00311921 0 0 -5.1365e-06 0.0005 5.23599e-07 
90 1 0.0187748 0.0146252 0.0119322 6.47672e-06 -0.00141753 0.00233249 8.42232e-10 -3.25141e-07 4.07535e-07 0.0005 5.23599e-07 
91 1 0.018353 0.0219202 0.0170609 0.0160725 0.151545 -0.0332023 0 0 -5.1365e-06 0.0005 5.23599e-07 
92 1 0.0217108 0.0232052 0.0145962 -0.00764148 0.0313403 -0.00140239 -0.0017745 0.00191098 0.000588759 0.0005 5.23599e-07 
95 1 0.0233762 0.0166245 0.0152429 0.0106616 0.0117871 -0.00768765 0 0 -5.1365e-06 0.0005 5.23599e-07 
96 1 0.0176732 0.0233489 0.0149178 -0.0372052 0.00610697 0.0424107 0 0 -5.1365e-06 0.0005 5.23599e-07 
97 1 0.0196461 0.014495 0.0136793 0.0191944 0.00266829 0.0182519 1.11666e-05 1.10114e-05 2.6972e-05 0.0005 5.23599e-07 
98 1 0.0151265 0.0222913 0.0200009 0.101767 -0.0889244 -0.149465 0 0 -5.1365e-06 0.0005 5.23599e-07 
100 1 0.023564 0.0158684 0.0146123 0.00971331 0.0143666 0.0118645 1.36761e-06 2.20528e-07 -9.68289e-07 0.0005 5.23599e-07 
103 1 0.0243203 0.0155791 0.0156613 -0.00968712 0.00605414 -0.00288006 2.32664e-06 -8.35688e-06 -3.71663e-06 0.0005 5.23599e-07 
104 1 0.0179385 0.0140042 0.0133413 0.00791254 -0.00501794 0.00771464 0 0 -5.1365e-06 0.0005 5.23599e-07 
105 1 0.0217081 0.0230854 0.0133603 0.0246049 0.0432363 0.0173835 0.00942443 -0.0224136 0.00665055 0.0005 5.23599e-07 
106 1 0.0184741 0.0155556 0.0142646 0.0135242 0.00499344 0.0122011 0 0 -5.1365e-06 0.0005 5.23599e-07 
108 1 0.0197791 0.0146803 0.0155055 0.00155878 0.0078858 0.0148352 1.03024e-06 -2.19207e-06 6.82279e-06 0.0005 5.23599e-07 
110 1 0.0240439 0.0219329 0.0148781 0.0108074 0.0452765 -0.00754545 0.000672243 -0.000515393 -0.000491927 0.0005 5.23599e-07 
111 1 0.0219084 0.0238901 0.0139148 0.0296481 -0.00261442 0.0109834 -0.00017503 0.00181878 -0.000156815 0.0005 5.23599e-07 
112 1 0.0220413 0.0221532 0.0146717 0.0705807 -0.0646229 -0.0583466 -0.0109381 -0.00258615 0.00441308 0.0005 5.23599e-07 
114 1 0.0226671 0.0230805 0.013329 0.0529543 -0.0132688 0.00370575 -0.0113661 0.000893729 -0.00413217 0.0005 5.23599e-07 
115 1 0.0239784 0.0210007 0.0164243 -0.00174853 0.0152522 0.00566227 0 0 -5.1365e-06 0.0005 5.23599e-07 
119 1 0.0257779 0.0207773 0.0169228 0.01737 -0.0174794 -0.0025244 4.58472e-05 0.000285116 0.000232732 0.0005 5.23599e-07 
125 1 0.0171885 0.0234681 0.0120641 0.0139133 0.0071773 0.00013236 1.7126e-06 -3.03264e-06 -2.62561e-06 0.0005 5.23599e-07 
126 1 0.0236545 0.0150295 0.0151489 -0.00551612 -0.000573485 -0.00784697 5.95016e-07 -5.852e-07 -4.25437e-06 0.0005 5.23599e-07 
128 1 0.0228238 0.0225566 0.0164064 0.0101638 0.00147289 0.0154905 0 0 -5.1365e-06 0.0005 5.23599e-07 
131 1 0.0232592 0.0210945 0.0154456 0.017841 0.0121259 0.0131885 -9.99361e-05 -5.84815e-05 0.000670449 0.0005 5.23599e-07 
133 1 0.0182686 0.02407 0.0129816 0.000272521 0.00123008 -0.000513208 2.61321e-06 5.28511e-07 -5.64543e-06 0.0005 5.23599e-07 
135 1 0.0201934 0.0234096 0.014469 -0.0515835 0.00317902 -0.00439549 0 0 -5.1365e-06 0.0005 5.23599e-07 
136 1 0.0166844 0.0196338 0.0160071 0.00291247 0.0530152 0.0158918 0 0 -5.1365e-06 0.0005 5.23599e-07 
137 1 0.0243302 0.0163568 0.0150331 0.00323336 0.0149965 0.0100289 -2.628e-06 7.17595e-06 -1.01995e-06 0.0005 5.23599e-07 
143 1 0.0236756 0.0218408 0.0159339 -0.017992 0.0117689 -0.000994936 -4.82781e-05 -0.000103972 -0.000196338 0.0005 5.23599e-07 
144 1 0.0257995 0.0197789 0.0166779 -0.00255526 0.0178975 -0.00144824 -3.8822e-08 5.19903e-06 1.96964e-06 0.0005 5.23599e-07 
148 1 0.0170939 0.017636 0.0161151 0.0117108 0.00997332 -0.0103454 0 0 -5.1365e-06 0.0005 5.23599e-07 
149 1 0.0226999 0.0215693 0.0162804 0.00203362 -0.0113964 -0.00693068 0 0 -5.1365e-06 0.0005 5.23599e-07 
152 1 0.017537 0.0229981 0.0135483 0.0114912 -0.0144595 0.0175928 0 0 -5.1365e-06 0.0005 5.23599e-07 
154 1 0.0189054 0.0139819 0.0130002 0.0109754 0.0117544 -0.0177315 -2.41334e-06 9.94686e-06 9.942e-06 0.0005 5.23599e-07 
158 1 0.0258881 0.0186899 0.0167379 0.0209463 -0.000405603 -0.000222847 0 0 -5.1365e-06 0.0005 5.23599e-07 
159 1 0.0187091 0.0142338 0.0139541 0.0251593 0.0139143 -0.01139 0 0 -5.1365e-06 0.0005 5.23599e-07 
161 1 0.0246571 0.0219778 0.0158779 -0.0285313 0.0347011 -0.0205778 -0.000497257 0.000136234 -0.000794088 0.0005 5.23599e-07 
165 1 0.0209978 0.0240668 0.0133606 -0.0443203 0.0108971 -0.011621 0 0 -5.1365e-06 0.0005 5.23599e-07 
167 1 0.0199314 0.021628 0.0165241 0.000844842 0.0841577 -0.0278909 0 0 -5.1365e-06 0.0005 5.23599e-07 
168 1 0.021201 0.0141815 0.0134628 0.00598045 0.000880049 0.0019993 5.41595e-06 1.96757e-06 -3.46292e-06 0.0005 5.23599e-07 
171 1 0.0233138 0.0190548 0.0159631 0.012897 -0.0697059 0.000211302 0 0 -5.1365e-06 0.0005 5.23599e-07 
172 1 0.0186262 0.0236478 0.0154024 -0.0107331 -0.00143028 0.00841068 0 0 -5.1365e-06 0.0005 5.23599e-07 
175 1 0.0210396 0.0239889 0.0144639 -0.0252517 0.0204897 -0.00996867 0 0 -5.1365e-06 0.0005 5.23599e-07 
176 1 0.0249854 0.0191635 0.0168137 -0.00658026 -0.0141023 0.00382347 0 0 -5.1365e-06 0.0005 5.23599e-07 
177 1 0.0219487 0.0230452 0.0165658 0.0039273 -0.0293466 0.0772219 -6.26157e-07 -3.56306e-07 -6.16041e-06 0.0005 5.23599e-07 
178 1 0.0177187 0.0239042 0.0139859 -0.0674082 0.0244045 0.0131499 0 0 -5.1365e-06 0.0005 5.23599e-07 
182 1 0.0199393 0.0237673 0.0153978 0.0167806 -0.0159402 -0.045362 0 0 -5.1365e-06 0.0005 5.23599e-07 
184 1 0.017782 0.0224151 0.0144229 0.0403862 -0.00126633 -0.00616593 0 0 -5.1365e-06 0.0005 5.23599e-07 
185 1 0.0127417 0.0179179 0.00824204 -0.00233926 0.00527252 -0.00299884 5.0469e-07 -4.83498e-07 -8.25961e-07 0.0005 5.23599e-07 
186 1 0.0253605 0.0169403 0.0163744 0.00490346 0.00622279 0.0113223 -1.99987e-07 -2.74036e-07 -4.04352e-06 0.0005 5.23599e-07 
187 1 0.0171115 0.02059 0.0157236 -0.0199563 0.0704086 0.0327785 0 0 -5.1365e-06 0.0005 5.23599e-07 
190 1 0.0228754 0.0146577 0.0144396 0.0035826 0.000312752 0.00896456 2.99931e-06 -2.34685e-06 1.78669e-06 0.0005 5.23599e-07 
