ITEM: TIMESTEP
160000
ITEM: NUMBER OF ATOMS
160
ITEM: BOX BOUNDS ff ff ff
-0.02 0.43
-0.02 0.06
-0.02 0.07
ITEM: ATOMS id type x y z vx vy vz fx fy fz radius mass 
1 1 0.0168163 0.0141954 0.0135474 0.00556062 0.00501061 -0.0118322 0 0 -5.1365e-06 0.0005 5.23599e-07 
2 1 0.0184828 0.0169565 0.0154338 0.0061288 0.00662707 -0.00295017 0 0 -5.1365e-06 0.0005 5.23599e-07 
3 1 0.0196089 0.0231593 0.0162166 -0.00340686 -0.0337471 -0.00411096 0 0 -5.1365e-06 0.0005 5.23599e-07 
4 1 0.0231192 0.0226068 0.0152166 -0.0118079 -0.0521152 0.0418715 6.84397e-05 8.61203e-05 -3.12697e-06 0.0005 5.23599e-07 
5 1 0.0189609 0.0153288 0.0139342 0.00635047 0.0182708 0.0378156 0 0 -5.1365e-06 0.0005 5.23599e-07 
6 1 0.0239405 0.0154816 0.0252764 0.00913287 -0.17369 0.0518363 0 0 -5.1365e-06 0.0005 5.23599e-07 
7 1 0.0188863 0.0192162 0.0160212 0.0794885 -0.0103468 -0.0406405 0 0 -5.1365e-06 0.0005 5.23599e-07 
8 1 0.0202828 0.0214514 0.0170493 0.00528533 0.0052222 -0.0289804 0 0 -5.1365e-06 0.0005 5.23599e-07 
9 1 0.014811 0.0141343 0.0160742 0.000418159 0.00142412 -0.000858612 -2.04466e-06 -4.6013e-06 -6.57018e-07 0.0005 5.23599e-07 
10 1 0.0246619 0.0176943 0.0157447 0.0882178 -0.123804 -0.0347794 0 0 -5.1365e-06 0.0005 5.23599e-07 
12 1 0.0182711 0.0240537 0.0129422 -0.0344708 -0.0234857 -0.00206704 0.000942271 -0.000262223 0.000428733 0.0005 5.23599e-07 
13 1 0.0209549 0.0143661 0.012767 0.0054317 -0.00362536 0.0157554 -1.89482e-05 9.94176e-06 1.23887e-07 0.0005 5.23599e-07 
14 1 0.0202594 0.0241001 0.0129401 0.00748192 0.0162148 -0.00114752 -2.7278e-05 -0.000390742 0.000820779 0.0005 5.23599e-07 
16 1 0.0204961 0.023689 0.0162824 -0.0011647 0.0113426 -0.0133906 -1.13517e-05 -2.42302e-05 8.15422e-05 0.0005 5.23599e-07 
17 1 0.0231748 0.0181506 0.0171823 0.00342406 -0.0444861 -0.0496341 0 0 -5.1365e-06 0.0005 5.23599e-07 
18 1 0.0246829 0.0201094 0.0160298 0.0713455 -0.11073 -0.051933 0.000285104 0.000308484 0.000823202 0.0005 5.23599e-07 
19 1 0.0183965 0.0228148 0.0164307 0.021239 -0.0270411 -0.0512253 0 0 -5.1365e-06 0.0005 5.23599e-07 
20 1 0.0252145 0.0169319 0.016102 -0.028666 -0.0262432 -0.0492233 0 0 -5.1365e-06 0.0005 5.23599e-07 
21 1 0.0197293 0.0180631 0.0158332 0.017657 0.0230336 0.00503422 -3.55567e-06 5.12918e-06 1.50969e-05 0.0005 5.23599e-07 
23 1 0.0174298 0.0183867 0.0169022 -0.0587142 0.0188952 0.0888069 0 0 -5.1365e-06 0.0005 5.23599e-07 
24 1 0.0222633 0.0144789 0.0141227 0.00450595 -0.00154683 0.0131894 -3.35377e-05 3.7369e-05 7.28508e-06 0.0005 5.23599e-07 
25 1 0.0183765 0.0216575 0.0151716 0.0112695 -0.0285991 0.0399687 6.32496e-06 0.000112988 -0.000139023 0.0005 5.23599e-07 
26 1 0.0215128 0.0206015 0.0165214 -0.00358043 0.0364232 -0.00247991 3.05337e-07 8.98694e-08 -5.27789e-06 0.0005 5.23599e-07 
27 1 0.0193027 0.0219328 0.0151348 0.0217197 -0.0459744 0.0459521 5.50445e-05 -8.62152e-05 -9.85126e-05 0.0005 5.23599e-07 
28 1 0.0202153 0.0236196 0.0145874 0.00431027 0.0134381 0.0130623 -7.83677e-05 -2.73611e-05 -5.82469e-05 0.0005 5.23599e-07 
29 1 0.0205331 0.0243026 0.013925 0.0186988 7.00538e-05 0.00689778 -0.00054051 0.000672924 5.3487e-05 0.0005 5.23599e-07 
31 1 0.0193784 0.0146386 0.012116 0.00450755 0.00611099 0.0275415 2.04162e-05 3.07716e-06 6.22039e-05 0.0005 5.23599e-07 
32 1 0.0245382 0.0167385 0.0153088 0.0048738 0.0149196 0.0334571 0 0 -5.1365e-06 0.0005 5.23599e-07 
33 1 0.0205697 0.0230415 0.0170399 -0.0108235 0.010755 0.00494659 2.23859e-05 -1.76282e-06 2.68076e-05 0.0005 5.23599e-07 
34 1 0.0178018 0.0219968 0.0240889 -0.149824 0.0185696 0.037002 0 0 -5.1365e-06 0.0005 5.23599e-07 
35 1 0.0220003 0.0157023 0.0156404 -0.0319268 -0.0194537 -0.0290168 0 0 -5.1365e-06 0.0005 5.23599e-07 
36 1 0.0195593 0.0143599 0.0140476 -0.0122836 0.046772 -0.0167406 0 0 -5.1365e-06 0.0005 5.23599e-07 
37 1 0.0160233 0.0171965 0.0271977 -0.198014 -0.0866876 0.13543 0 0 -5.1365e-06 0.0005 5.23599e-07 
38 1 0.0230132 0.0158075 0.0159559 -0.00194762 -0.0406854 -0.068073 0 0 -5.1365e-06 0.0005 5.23599e-07 
39 1 0.0182692 0.0135413 0.017557 -0.0459551 0.0807426 -0.0450778 0 0 -5.1365e-06 0.0005 5.23599e-07 
40 1 0.0168937 0.0227759 0.0154243 0.00583999 -0.00278832 -0.00512216 0 0 -5.1365e-06 0.0005 5.23599e-07 
41 1 0.0248318 0.0191309 0.0159805 0.1584 -0.0672062 -0.0379281 0.0105932 5.58882e-05 -0.00760674 0.0005 5.23599e-07 
42 1 0.0177714 0.0143019 0.01882 -0.0930717 0.0897057 0.00959076 0 0 -5.1365e-06 0.0005 5.23599e-07 
44 1 0.0172414 0.0223727 0.0145753 0.0311443 0.0139838 0.0437754 -0.000401459 0.00023788 -0.000267329 0.0005 5.23599e-07 
45 1 0.0238376 0.022062 0.014775 0.0330543 -0.0487672 -0.013392 0.00113667 0.000982198 -0.000569779 0.0005 5.23599e-07 
46 1 0.0239773 0.0227884 0.0156981 0.00911231 -0.0132629 0.0102818 0 0 -5.1365e-06 0.0005 5.23599e-07 
48 1 0.017411 0.0216139 0.0151617 0.012789 0.00757306 0.0129456 -0.0001523 0.000109577 0.000218178 0.0005 5.23599e-07 
49 1 0.0244198 0.0156905 0.0157776 0.000254726 0.0255215 0.00818422 0 0 -5.1365e-06 0.0005 5.23599e-07 
52 1 0.0228943 0.0230158 0.0134373 0.0203455 -0.00734434 0.0425848 -0.0206217 -0.0276915 -0.00121105 0.0005 5.23599e-07 
53 1 0.0211974 0.0152828 0.0151821 -0.0286391 -0.0190716 -0.0430993 0 0 -5.1365e-06 0.0005 5.23599e-07 
54 1 0.0237927 0.015222 0.015155 0.012444 0.00955685 0.00230226 0 0 -5.1365e-06 0.0005 5.23599e-07 
55 1 0.0174648 0.0200452 0.0184017 -0.0623009 -0.0757297 -0.0299193 0 0 -5.1365e-06 0.0005 5.23599e-07 
56 1 0.0199446 0.0194347 0.0261124 -0.00999731 0.0105418 -0.162016 0 0 -5.1365e-06 0.0005 5.23599e-07 
57 1 0.0199467 0.0141284 0.0127597 0.00826223 -0.00261514 0.0180376 4.0047e-05 -3.31893e-05 6.76417e-05 0.0005 5.23599e-07 
58 1 0.0256837 0.0193463 0.0163374 0.065422 -0.00968454 0.148073 -0.000708435 -0.00094618 -0.000672244 0.0005 5.23599e-07 
60 1 0.0222301 0.0167146 0.0162247 -0.0817214 -0.0563735 -0.00749372 0 0 -5.1365e-06 0.0005 5.23599e-07 
62 1 0.0157923 0.0235319 0.01429 0.000897134 -0.00180218 -0.000889479 -1.70141e-08 3.88523e-07 -5.08756e-06 0.0005 5.23599e-07 
63 1 0.0230911 0.0147878 0.014589 0.00129913 0.00722821 0.00730454 3.45087e-05 1.31401e-05 3.29572e-05 0.0005 5.23599e-07 
64 1 0.0207844 0.0198894 0.016681 3.33738e-05 0.059032 -0.00890329 6.37279e-07 2.78011e-07 -4.11814e-07 0.0005 5.23599e-07 
65 1 0.0189471 0.0243982 0.0138001 -0.00615806 -0.00989719 0.0254424 -0.000829942 0.00235971 -0.000526276 0.0005 5.23599e-07 
66 1 0.0159795 0.0144495 0.0140384 0.00680889 -0.00243034 -0.00081131 5.15609e-07 3.83043e-06 -2.83671e-06 0.0005 5.23599e-07 
67 1 0.024117 0.0185177 0.0159139 0.0287222 -0.117869 -0.0629777 -0.013396 -0.0068428 0.00620729 0.0005 5.23599e-07 
68 1 0.0179979 0.0225936 0.0152079 0.0354039 0.0291433 -0.0416758 0 0 -5.1365e-06 0.0005 5.23599e-07 
69 1 0.0172605 0.0238 0.0125821 0.026971 -0.0137741 0.00972454 0.0048648 -0.00170297 0.00383947 0.0005 5.23599e-07 
70 1 0.0249097 0.0180852 0.0166706 -0.0384903 -0.0113285 -0.0404801 0 0 -5.1365e-06 0.0005 5.23599e-07 
71 1 0.0229653 0.0204493 0.0171979 -0.0108343 0.0249744 -0.0214089 0 0 -5.1365e-06 0.0005 5.23599e-07 
72 1 0.0165879 0.0241379 0.0142991 0.0114659 0.0260674 -0.00294726 -0.000331462 0.000288345 0.00019323 0.0005 5.23599e-07 
73 1 0.021967 0.0232582 0.0147629 0.00541386 0.00421517 -0.00746981 0 0 -5.1365e-06 0.0005 5.23599e-07 
74 1 0.0150623 0.022392 0.0155735 -0.000295834 -0.00526179 -0.00199763 0 0 -5.1365e-06 0.0005 5.23599e-07 
75 1 0.0203771 0.016595 0.0160334 -0.0244551 -0.0398297 -0.0736712 0 0 -5.1365e-06 0.0005 5.23599e-07 
76 1 0.0167433 0.0237755 0.0134029 -0.0318273 0.0452374 -0.03769 -0.00356269 0.0067095 -0.00388242 0.0005 5.23599e-07 
77 1 0.0202339 0.0163717 0.0150633 -0.00738674 0.0121817 0.0119345 0 0 -5.1365e-06 0.0005 5.23599e-07 
78 1 0.021259 0.021289 0.0172024 -0.00533725 -0.00372598 0.0207832 5.91729e-07 2.48381e-06 -3.38861e-06 0.0005 5.23599e-07 
79 1 0.02037 0.0146177 0.011998 0.00722487 0.00205471 0.0158628 -1.25084e-07 -9.2629e-06 1.56636e-05 0.0005 5.23599e-07 
80 1 0.015167 0.0148061 0.0145159 0.0032476 0.00320476 -0.00477242 0 0 -5.1365e-06 0.0005 5.23599e-07 
81 1 0.01992 0.0176037 0.0176864 -0.101643 -0.0871992 -0.0676745 0 0 -5.1365e-06 0.0005 5.23599e-07 
82 1 0.0182222 0.0240822 0.0144137 0.0138416 -0.000710549 0.0100216 0.000101682 5.02706e-05 9.44553e-06 0.0005 5.23599e-07 
83 1 0.0211388 0.0235574 0.0142177 0.0065034 0.00573607 0.00270962 -5.55095e-05 5.84348e-05 4.62132e-05 0.0005 5.23599e-07 
84 1 0.0191749 0.0148843 0.0130642 0.0150149 0.00546298 0.040626 0 0 -5.1365e-06 0.0005 5.23599e-07 
85 1 0.0236752 0.0167554 0.016355 -0.0482703 -0.02552 0.00204449 0 0 -5.1365e-06 0.0005 5.23599e-07 
86 1 0.0141946 0.022747 0.0152252 0.000700914 0.00320417 0.000518552 -1.724e-05 -3.80918e-06 1.167e-05 0.0005 5.23599e-07 
87 1 0.0223087 0.0212057 0.0165591 0.0221793 0.00817672 -0.0530289 -3.05337e-07 -8.98694e-08 -4.99511e-06 0.0005 5.23599e-07 
88 1 0.0187091 0.0185537 0.0168568 -0.0524328 -0.0441336 -0.0299717 0 0 -5.1365e-06 0.0005 5.23599e-07 
89 1 0.0256058 0.0193569 0.0172922 -0.0537726 0.0570082 0.0389767 -0.00859013 -0.000628727 -0.00224987 0.0005 5.23599e-07 
90 1 0.0230084 0.0194568 0.0167916 -0.0152741 -0.00493581 0.0339459 0 0 -5.1365e-06 0.0005 5.23599e-07 
91 1 0.0238918 0.0202557 0.0167841 -0.0196149 -0.0284187 0.0374744 0 0 -5.1365e-06 0.0005 5.23599e-07 
92 1 0.0192819 0.0239665 0.0146356 0.00472255 0.00564661 -0.0101337 8.52452e-06 3.56999e-05 1.33448e-05 0.0005 5.23599e-07 
93 1 0.0217333 0.0224413 0.0155149 0.00158846 0.00550835 0.00339451 2.96021e-05 -3.92857e-05 1.63963e-05 0.0005 5.23599e-07 
94 1 0.0211437 0.0222744 0.017325 -0.00208996 0.0142427 0.0171071 3.94087e-06 -1.54557e-05 -9.68716e-06 0.0005 5.23599e-07 
95 1 0.0139978 0.0163435 0.0288172 0.228676 0.113606 0.135553 0 0 -5.1365e-06 0.0005 5.23599e-07 
96 1 0.0221171 0.0186817 0.0167989 -0.0452199 0.0321763 -0.0131004 0 0 -5.1365e-06 0.0005 5.23599e-07 
97 1 0.0195168 0.0292595 0.0290256 -0.127259 0.0521787 0.169719 0 0 -5.1365e-06 0.0005 5.23599e-07 
98 1 0.017422 0.0237901 0.0149362 0.00545148 -0.00412157 -0.00293092 4.67658e-06 -1.50315e-05 -4.03059e-05 0.0005 5.23599e-07 
99 1 0.0207938 0.0179593 0.0181236 -0.024793 -0.0532828 -0.0949004 0 0 -5.1365e-06 0.0005 5.23599e-07 
100 1 0.0177603 0.0140866 0.0132312 0.00918832 0.00137181 -0.010993 -1.08058e-06 -1.1534e-05 5.97274e-06 0.0005 5.23599e-07 
102 1 0.0222944 0.023388 0.0167546 -0.00741058 -0.0258291 -0.0625417 0 0 -5.1365e-06 0.0005 5.23599e-07 
103 1 0.0202817 0.0149531 0.0132176 0.00522472 0.00382721 0.0114882 1.83825e-06 -2.13554e-06 -3.48975e-06 0.0005 5.23599e-07 
104 1 0.0199846 0.0156829 0.0158173 -0.0811639 -0.00482945 -0.0205111 0 0 -5.1365e-06 0.0005 5.23599e-07 
105 1 0.0158286 0.02287 0.0151342 0.0104042 -0.0216845 0.0138557 -0.000109876 3.99888e-05 -6.6917e-05 0.0005 5.23599e-07 
106 1 0.0187796 0.023183 0.0131359 -0.00347612 0.00197497 -0.0319601 0.000305411 0.000172321 -0.000428168 0.0005 5.23599e-07 
108 1 0.0187709 0.0232942 0.0141243 -0.000604899 0.0106127 -0.014191 -0.000375771 -8.68175e-05 -0.000646463 0.0005 5.23599e-07 
109 1 0.0213664 0.0237611 0.0167712 0.00328092 -0.00210796 0.00221218 -1.63891e-06 -1.48035e-06 -4.90621e-06 0.0005 5.23599e-07 
110 1 0.0202526 0.0153982 0.0148305 -0.0378668 0.0247846 -0.0317153 0 0 -5.1365e-06 0.0005 5.23599e-07 
111 1 0.0179608 0.0227345 0.0140146 -0.0103803 -0.0284901 0.0209298 -0.000937788 0.000478553 9.32693e-06 0.0005 5.23599e-07 
112 1 0.0174818 0.0221586 0.0163826 0.0328844 0.0335236 0.0410118 0 0 -5.1365e-06 0.0005 5.23599e-07 
113 1 0.019865 0.021852 0.0159546 0.0169833 -0.0233695 0.0233829 0.000180405 -0.000259386 0.000306623 0.0005 5.23599e-07 
114 1 0.0164605 0.0236421 0.0151641 0.00894483 -0.01559 0.00153798 3.37096e-05 3.31241e-05 6.89358e-05 0.0005 5.23599e-07 
115 1 0.0185836 0.0234483 0.0121959 -0.0060371 -0.00923718 -0.00509054 -0.000764885 0.000254135 0.00127048 0.0005 5.23599e-07 
116 1 0.0213498 0.0234336 0.0158263 0.00181797 0.00159319 0.000103064 -2.25003e-05 4.75675e-07 2.07509e-05 0.0005 5.23599e-07 
118 1 0.0248262 0.0220922 0.0163427 0.00880935 -0.00839153 0.00121849 -9.57112e-05 0.000237198 7.72601e-05 0.0005 5.23599e-07 
119 1 0.0176868 0.0234831 0.0117786 0.00128634 0.0356878 0.052371 0.00332201 -0.00822377 0.00142725 0.0005 5.23599e-07 
120 1 0.0180909 0.0240195 0.0163833 -0.0122205 -0.00493836 -0.0147797 4.04057e-06 -7.43988e-06 2.69245e-06 0.0005 5.23599e-07 
121 1 0.0232557 0.022208 0.0168417 -0.0191458 -0.0115295 -0.0111783 0 0 -5.1365e-06 0.0005 5.23599e-07 
122 1 0.018234 0.020117 0.0159588 -0.00933454 0.0146197 -0.00745721 0 0 -5.1365e-06 0.0005 5.23599e-07 
124 1 0.022411 0.0231626 0.0156618 0.0144505 0.0261482 -0.0587161 -1.71169e-06 8.62429e-06 -7.38227e-06 0.0005 5.23599e-07 
125 1 0.0192248 0.0161225 0.0149469 -0.0084371 -0.0313955 -0.0320268 0 0 -5.1365e-06 0.0005 5.23599e-07 
126 1 0.0244701 0.0210651 0.0165724 0.0058421 0.0141885 0.0357344 0 0 -5.1365e-06 0.0005 5.23599e-07 
128 1 0.0175152 0.0243132 0.0137463 0.0203548 0.0104541 0.0232321 -6.26423e-05 -2.2366e-05 -4.19808e-05 0.0005 5.23599e-07 
131 1 0.0212398 0.0239948 0.0133072 0.0146542 -0.000582164 0.00690201 3.09753e-05 1.19716e-05 0.000106289 0.0005 5.23599e-07 
132 1 0.0233966 0.0211384 0.0166051 -0.0952862 -0.0374153 0.0481349 0 0 -5.1365e-06 0.0005 5.23599e-07 
133 1 0.0149597 0.0231904 0.014759 0.00309856 0.00661604 0.0103751 6.04838e-05 2.87935e-05 3.61358e-06 0.0005 5.23599e-07 
134 1 0.0212843 0.0226119 0.0163919 0.00725193 0.000128821 0.00540115 2.13831e-06 2.82309e-06 2.83351e-06 0.0005 5.23599e-07 
135 1 0.019717 0.0172277 0.0164925 -0.0687415 -0.0167807 -0.0386678 0 0 -5.1365e-06 0.0005 5.23599e-07 
136 1 0.0198337 0.0209201 0.0163286 -0.0135225 -0.0126555 -0.00846015 0 0 -5.1365e-06 0.0005 5.23599e-07 
137 1 0.0212807 0.0142458 0.0146277 -0.0081276 -0.0105457 0.0119926 5.6429e-06 4.32761e-06 9.15222e-06 0.0005 5.23599e-07 
138 1 0.0214277 0.0216584 0.0160573 -0.00891812 -0.00247939 -0.00209126 1.28024e-06 1.24911e-05 4.26644e-06 0.0005 5.23599e-07 
140 1 0.0214247 0.014233 0.0136386 0.0106406 -0.00800058 0.0142163 -1.41777e-05 -2.27871e-06 3.06525e-06 0.0005 5.23599e-07 
141 1 0.0199082 0.022834 0.0151313 -0.0055177 0.000377888 -0.00961895 0 0 -5.1365e-06 0.0005 5.23599e-07 
142 1 0.0183724 0.0235671 0.0152587 -3.64222e-05 -0.00702886 0.00960339 9.78624e-08 2.08634e-07 -5.56941e-06 0.0005 5.23599e-07 
143 1 0.0192628 0.0241063 0.0129131 -0.00269437 0.00402587 0.00444785 -0.000386662 -0.00674698 -0.00470117 0.0005 5.23599e-07 
144 1 0.016827 0.0236968 0.0161954 -0.00683694 -0.00832118 -0.000893955 -3.51752e-06 4.75426e-07 -7.72555e-07 0.0005 5.23599e-07 
145 1 0.0245247 0.020955 0.0155142 0.0170476 -0.0205147 0.00169528 -3.26692e-05 -0.000261798 0.000461189 0.0005 5.23599e-07 
146 1 0.0207289 0.0222482 0.0156446 0.00852764 -0.0033852 0.00161898 -1.92843e-06 -9.18095e-06 -1.20767e-05 0.0005 5.23599e-07 
148 1 0.0244739 0.0219036 0.0154764 0.0194499 -0.0202704 -0.0103323 -0.000673314 7.40338e-05 -0.000137527 0.0005 5.23599e-07 
149 1 0.0238068 0.0198276 0.0158792 0.0103647 -0.00789062 -0.0334408 0.000874516 -0.00142704 2.29228e-06 0.0005 5.23599e-07 
150 1 0.0223598 0.0224539 0.0163642 0.00596473 -0.0329664 -0.0642779 1.71169e-06 -8.62429e-06 -2.89074e-06 0.0005 5.23599e-07 
152 1 0.0254541 0.0213287 0.0167438 0.0129147 -0.0730682 -0.0137907 0 0 -5.1365e-06 0.0005 5.23599e-07 
154 1 0.0171233 0.0146996 0.014521 0.0420424 -5.71336e-05 0.0249448 0 0 -5.1365e-06 0.0005 5.23599e-07 
155 1 0.0198629 0.0223387 0.0168282 -0.00706145 0.0242012 0.0022066 0 0 -5.1365e-06 0.0005 5.23599e-07 
158 1 0.0232558 0.0225769 0.0142106 0.00492719 -0.0222268 0.0403291 0.0107962 0.00897541 -0.000447404 0.0005 5.23599e-07 
159 1 0.0229289 0.0236101 0.0148207 -0.0248875 -0.0114439 -0.0559679 0 0 -5.1365e-06 0.0005 5.23599e-07 
161 1 0.0234625 0.0217734 0.0156889 -0.00121485 0.0420941 0.00717656 0 0 -5.1365e-06 0.0005 5.23599e-07 
163 1 0.021041 0.022952 0.0150065 -8.97823e-05 0.00463576 -0.000510478 7.47259e-06 -1.653e-05 4.35116e-06 0.0005 5.23599e-07 
165 1 0.0176631 0.0233957 0.0133691 -0.0494203 0.0135239 -0.0228905 -0.00545631 0.00426371 0.00550842 0.0005 5.23599e-07 
167 1 0.0240714 0.0190554 0.0169707 -0.00747287 0.024519 0.0122404 0 0 -5.1365e-06 0.0005 5.23599e-07 
168 1 0.0205161 0.0147047 0.0141573 0.0292055 0.0118734 0.00770135 -1.74878e-06 -5.29469e-06 1.93177e-06 0.0005 5.23599e-07 
169 1 0.0187384 0.0223641 0.0144702 0.0232531 0.00773138 0.0483041 -3.12155e-05 -0.000371858 -0.00046527 0.0005 5.23599e-07 
171 1 0.0254997 0.0183966 0.0159064 0.0763127 -0.0558074 -0.00196851 0.000538679 -0.000632458 0.000449836 0.0005 5.23599e-07 
172 1 0.0181597 0.0208361 0.0167354 -0.049898 -0.0644901 -0.0682415 0 0 -5.1365e-06 0.0005 5.23599e-07 
173 1 0.0254108 0.0206032 0.0157204 0.0126523 -0.0200041 -0.0179212 0.000405052 0.0012658 0.000179562 0.0005 5.23599e-07 
175 1 0.0169965 0.0232498 0.0142101 0.027662 0.0277312 0.000749268 -0.00022373 0.000143722 0.000436147 0.0005 5.23599e-07 
176 1 0.0190935 0.0138298 0.0132857 -0.0185721 0.0324888 -0.0318467 0 0 -5.1365e-06 0.0005 5.23599e-07 
177 1 0.0236029 0.0207525 0.0155939 0.00662264 0.0138207 -0.0124331 -7.43614e-05 -0.000250899 5.69652e-05 0.0005 5.23599e-07 
178 1 0.0220505 0.0237629 0.0138726 0.00541813 -0.00160288 -0.000495637 2.88757e-05 -3.22888e-05 -5.69702e-06 0.0005 5.23599e-07 
179 1 0.0221365 0.0148735 0.0150337 -0.00111511 0.0151103 0.000883738 0 0 -5.1365e-06 0.0005 5.23599e-07 
180 1 0.0189759 0.0228067 0.0154993 0.00563245 -0.00267038 0.022898 0 0 -5.1365e-06 0.0005 5.23599e-07 
182 1 0.0176711 0.0232512 0.0158977 -0.0124267 -0.0152405 -0.0069233 3.76793e-06 -7.79228e-07 -8.77088e-06 0.0005 5.23599e-07 
183 1 0.0189945 0.0239267 0.0159614 0.0028081 0.0042043 0.00976618 -9.04284e-07 -5.00196e-07 -2.46566e-06 0.0005 5.23599e-07 
184 1 0.0160371 0.0227091 0.0160979 0.00493211 -0.0255338 0.0144435 7.92946e-06 -6.46378e-05 6.65156e-05 0.0005 5.23599e-07 
185 1 0.0184069 0.0182514 0.0159381 -0.0372363 -0.053757 -0.0859508 0 0 -5.1365e-06 0.0005 5.23599e-07 
186 1 0.0254172 0.0203194 0.0166862 0.055547 -0.094871 -0.003638 0 0 -5.1365e-06 0.0005 5.23599e-07 
187 1 0.0197233 0.0237984 0.0137267 0.0154104 -0.00801466 0.0126984 -0.00161845 0.00525837 0.000545941 0.0005 5.23599e-07 
188 1 0.0197852 0.0242664 0.0166835 -0.0347868 -0.0236101 -0.0337634 -3.31055e-06 1.18415e-05 -8.08577e-07 0.0005 5.23599e-07 
189 1 0.0198791 0.0238195 0.0155077 -0.00453704 0.00141278 -0.00133116 -1.1352e-05 2.76236e-05 -0.000127955 0.0005 5.23599e-07 
190 1 0.0204852 0.0138779 0.0135636 0.0167892 -0.00960965 0.0215631 1.26036e-05 -1.57195e-05 4.49805e-06 0.0005 5.23599e-07 
