ITEM: TIMESTEP
220000
ITEM: NUMBER OF ATOMS
117
ITEM: BOX BOUNDS ff ff ff
-0.02 0.43
-0.02 0.06
-0.02 0.07
ITEM: ATOMS id type x y z vx vy vz fx fy fz radius mass 
1 1 0.0199992 0.0157721 0.0145107 0.00717189 0.00821654 0.00862098 -3.29934e-06 1.0716e-06 2.18379e-06 0.0005 5.23599e-07 
2 1 0.021123 0.023488 0.0153357 0.00889139 -0.00367317 0.0116773 2.52006e-05 1.331e-05 4.29561e-05 0.0005 5.23599e-07 
3 1 0.0136148 0.0213156 0.0154171 0.00308117 -0.0487201 0.0238154 0 0 -5.1365e-06 0.0005 5.23599e-07 
4 1 0.025525 0.0203591 0.0157667 0.026337 0.0421697 -0.004065 -7.02852e-06 -2.77105e-05 1.15447e-06 0.0005 5.23599e-07 
5 1 0.0196374 0.0216509 0.0151097 0.00481312 -0.00582836 0.00983589 -1.4717e-07 3.83816e-06 -3.37248e-06 0.0005 5.23599e-07 
6 1 0.0186344 0.0216724 0.0151023 0.0154281 0.00646945 -0.00988045 0 0 -5.1365e-06 0.0005 5.23599e-07 
7 1 0.0140294 0.0222957 0.0151329 -0.0460071 0.00240597 0.00724879 0 0 -5.1365e-06 0.0005 5.23599e-07 
9 1 0.0148111 0.0141342 0.0160741 -4.24993e-22 1.21591e-19 -1.00951e-19 4.23516e-22 4.23516e-22 -8.47033e-22 0.0005 5.23599e-07 
10 1 0.0248857 0.0188881 0.0167995 -0.00177722 0.0460602 0.0652451 0 0 -5.1365e-06 0.0005 5.23599e-07 
12 1 0.020739 0.0242541 0.0140299 -0.0185624 -0.00035972 -0.0129547 0.000254273 0.000707168 0.000143775 0.0005 5.23599e-07 
13 1 0.0206124 0.0162215 0.0154717 0.00534562 0.0149451 -0.00129645 0 0 -5.1365e-06 0.0005 5.23599e-07 
14 1 0.0228118 0.0237921 0.0148025 0.00104677 -0.000234404 0.00599093 -3.67398e-06 8.28846e-06 -1.03468e-05 0.0005 5.23599e-07 
17 1 0.0183304 0.0225916 0.0143069 -0.00441201 -0.00436504 0.0205161 0.000328989 8.729e-05 -0.000413893 0.0005 5.23599e-07 
18 1 0.0147063 0.0231839 0.0151787 -0.0165812 0.0107693 0.0369714 0 0 -5.1365e-06 0.0005 5.23599e-07 
21 1 0.0173994 0.0145171 0.014157 0.00824451 -0.00500682 -0.00343799 0 0 -5.1365e-06 0.0005 5.23599e-07 
23 1 0.0211475 0.0159278 0.0146773 0.0183033 0.0106374 0.0142395 0 0 -5.1365e-06 0.0005 5.23599e-07 
24 1 0.0222749 0.0156988 0.0155246 -0.00656891 -0.00146259 0.000436473 0 0 -5.1365e-06 0.0005 5.23599e-07 
25 1 0.0241429 0.0211732 0.0169423 0.0266342 -0.00493902 -0.00954764 2.22792e-05 -9.69928e-06 1.15742e-05 0.0005 5.23599e-07 
26 1 0.0200577 0.0242294 0.0164764 -0.00352403 -0.00581136 -0.019884 0 0 -5.1365e-06 0.0005 5.23599e-07 
29 1 0.0211288 0.0234952 0.0172026 0.0345903 0.016597 0.0129903 0 0 -5.1365e-06 0.0005 5.23599e-07 
31 1 0.0220477 0.020927 0.0163895 0.0165343 0.0170358 -0.0110988 -1.07741e-06 4.61584e-06 1.37098e-07 0.0005 5.23599e-07 
35 1 0.0207218 0.0153392 0.0139721 0.0126975 0.00486822 0.0149404 1.23714e-06 3.2572e-06 5.94751e-07 0.0005 5.23599e-07 
36 1 0.0207447 0.014629 0.0119668 -0.0129998 -0.000568961 -0.00989289 3.45219e-07 6.42975e-06 1.77459e-06 0.0005 5.23599e-07 
37 1 0.0195148 0.0237603 0.0148322 0.0081333 0.0190808 0.00726073 2.8706e-06 -2.34642e-06 -3.75712e-06 0.0005 5.23599e-07 
38 1 0.0202303 0.0137666 0.0137233 0.00440136 -0.00151281 -0.0028201 0 0 -5.1365e-06 0.0005 5.23599e-07 
39 1 0.0175883 0.0141219 0.0132528 0.00085644 0.0014187 0.00890564 0 0 -5.1365e-06 0.0005 5.23599e-07 
40 1 0.0177922 0.0238647 0.0147351 0.0135262 0.00744025 -0.00154758 0 0 -5.1365e-06 0.0005 5.23599e-07 
42 1 0.0192253 0.0189647 0.0159553 0.00125226 0.0504231 0.000557508 -7.90964e-09 1.79758e-08 -2.94232e-07 0.0005 5.23599e-07 
44 1 0.0194378 0.0231516 0.0132259 0.0189955 -0.0135679 0.0181265 0.000705478 0.00181582 -0.000485402 0.0005 5.23599e-07 
45 1 0.0212335 0.0225483 0.0163489 0.00912546 0.0100948 0.0128702 4.64706e-07 -3.93399e-06 -7.93586e-06 0.0005 5.23599e-07 
48 1 0.0161805 0.0228845 0.0151007 -0.018883 -0.0174569 -0.00186418 0 0 -5.1365e-06 0.0005 5.23599e-07 
49 1 0.0254579 0.0175941 0.0162317 0.00805459 0.0221893 0.00564895 -6.97607e-06 -4.93269e-06 -1.57835e-05 0.0005 5.23599e-07 
52 1 0.0177243 0.0229188 0.015099 0.00705064 -0.0121207 0.000570014 0 0 -5.1365e-06 0.0005 5.23599e-07 
53 1 0.0238164 0.0197035 0.0171562 0.052689 -0.00216143 -0.0329054 0 0 -5.1365e-06 0.0005 5.23599e-07 
54 1 0.0228345 0.0146498 0.0143826 -0.00273889 -0.000581764 -0.00355786 -3.83932e-08 8.2059e-07 -3.6373e-06 0.0005 5.23599e-07 
57 1 0.021618 0.0147833 0.0127383 -0.00664634 -0.00132453 -0.00532924 -8.32339e-08 -5.55269e-08 -2.54505e-06 0.0005 5.23599e-07 
60 1 0.0198172 0.0224634 0.0161902 0.00874038 -0.019963 0.0367873 0 0 -5.1365e-06 0.0005 5.23599e-07 
62 1 0.0174218 0.0241755 0.0137376 0.0347961 -0.00313496 0.0119617 0 0 -5.1365e-06 0.0005 5.23599e-07 
63 1 0.0219759 0.0144285 0.0139203 -0.00164914 0.00177401 -0.00520262 2.45038e-06 -7.13482e-07 -3.5404e-07 0.0005 5.23599e-07 
64 1 0.0204119 0.0144843 0.0143961 -0.013686 0.0113352 -0.00500056 0 0 -5.1365e-06 0.0005 5.23599e-07 
65 1 0.0191969 0.0238602 0.0157799 0.00364931 0.00317212 0.0220568 0 0 -5.1365e-06 0.0005 5.23599e-07 
66 1 0.0197408 0.01669 0.0152722 0.00121498 0.0197873 0.0197679 0 0 -5.1365e-06 0.0005 5.23599e-07 
67 1 0.0228639 0.0192014 0.0177471 -0.0316624 0.0687173 -0.00511646 0 0 -5.1365e-06 0.0005 5.23599e-07 
68 1 0.0160377 0.01518 0.0178738 0.0548573 0.0672867 -0.329336 0 0 -5.1365e-06 0.0005 5.23599e-07 
69 1 0.0214503 0.0239332 0.0134307 -0.00348891 -0.00598304 -0.00188073 0.000130616 0.000175373 -7.49779e-05 0.0005 5.23599e-07 
70 1 0.0257809 0.0203232 0.0168466 -0.00396761 -0.0107624 -0.0508531 0 0 -5.1365e-06 0.0005 5.23599e-07 
72 1 0.017761 0.0234751 0.0117757 -0.0157949 0.0110033 0.00397584 -0.00352531 -0.00250951 0.00757923 0.0005 5.23599e-07 
74 1 0.0178709 0.023907 0.0126562 -0.0121188 0.112489 -0.0680897 -0.00698645 -0.000127113 -0.00424712 0.0005 5.23599e-07 
75 1 0.0210186 0.0141713 0.0132543 0.00508044 0.00197948 0.000510387 3.42192e-06 -1.3416e-06 5.71002e-06 0.0005 5.23599e-07 
76 1 0.018861 0.0234717 0.0117689 0.0457039 -0.0149718 0.0147294 -0.000453886 -0.000265535 -0.00279029 0.0005 5.23599e-07 
77 1 0.0205901 0.0214212 0.0154067 0.0146219 -0.016487 -0.0403246 4.17157e-07 7.3962e-07 -4.90367e-06 0.0005 5.23599e-07 
79 1 0.0229092 0.0214201 0.0162439 0.0175887 -0.00510156 -0.00163988 3.61653e-05 -1.87162e-05 4.1314e-05 0.0005 5.23599e-07 
80 1 0.019939 0.018004 0.0161627 -0.0499245 0.00138067 0.0442688 0 0 -5.1365e-06 0.0005 5.23599e-07 
81 1 0.0185465 0.0139905 0.0129855 0.000414248 -0.0020516 0.00341015 2.77488e-06 -1.90235e-06 1.30502e-07 0.0005 5.23599e-07 
82 1 0.0213416 0.0234788 0.0143538 0.00313191 -0.00231694 0.00648241 -5.82368e-06 3.73391e-05 2.87245e-05 0.0005 5.23599e-07 
84 1 0.025479 0.0227862 0.0221893 -0.076099 -0.0332362 -0.154459 0 0 -5.1365e-06 0.0005 5.23599e-07 
85 1 0.0183498 0.0224175 0.0159008 -0.0263162 -0.0652342 -0.0366162 0 0 -5.1365e-06 0.0005 5.23599e-07 
86 1 0.0186419 0.0233321 0.0127112 0.0237706 -0.0325565 -0.0063241 0.00609819 0.00197351 -0.00178737 0.0005 5.23599e-07 
87 1 0.0177867 0.0131002 0.0286489 0.0114123 -0.146191 0.291947 0 0 -5.1365e-06 0.0005 5.23599e-07 
88 1 0.0166448 0.0142288 0.0135673 8.41158e-05 -0.0013639 0.00348912 0 0 -5.1365e-06 0.0005 5.23599e-07 
89 1 0.0238061 0.0218829 0.0163244 0.0206173 -0.00266677 -0.00725977 -1.42296e-05 -3.51149e-05 3.01946e-05 0.0005 5.23599e-07 
90 1 0.0184191 0.0137958 0.0139545 -0.000849105 -0.000845189 0.0011616 -1.27539e-05 -1.78905e-06 -1.99868e-06 0.0005 5.23599e-07 
91 1 0.0247904 0.02093 0.0161433 0.0371216 -0.10331 0.0666658 0 0 -5.1365e-06 0.0005 5.23599e-07 
92 1 0.0204025 0.0233326 0.0146618 0.00395369 -0.00526769 0.0165434 -0.000110664 -3.07395e-05 -8.32084e-05 0.0005 5.23599e-07 
95 1 0.0177555 0.0127215 0.0205808 0.0697763 0.192603 0.0189118 0 0 -5.1365e-06 0.0005 5.23599e-07 
96 1 0.0241325 0.0177096 0.016612 -0.0406925 -0.0119725 -0.0470358 0 0 -5.1365e-06 0.0005 5.23599e-07 
97 1 0.0193543 0.0143624 0.0139669 -0.00123881 0.000499728 0.0464938 0 0 -5.1365e-06 0.0005 5.23599e-07 
98 1 0.0235573 0.0150511 0.0149456 -0.000157715 0.0114208 -0.0206089 -1.92944e-06 1.3828e-06 -2.48414e-06 0.0005 5.23599e-07 
99 1 0.0256715 0.0185273 0.0159315 -0.00482929 0.0256485 -0.0069431 0 0 -5.1365e-06 0.0005 5.23599e-07 
100 1 0.0195468 0.0139754 0.013012 0.00303522 0.000210981 -0.00463383 0 0 -5.1365e-06 0.0005 5.23599e-07 
103 1 0.0221518 0.0168036 0.0162672 -0.00155648 0.0233275 0.0288867 0 0 -5.1365e-06 0.0005 5.23599e-07 
104 1 0.0217185 0.0153882 0.0140319 0.0138039 0.00405322 0.0114083 3.91361e-06 2.03927e-06 -5.53416e-06 0.0005 5.23599e-07 
105 1 0.0186815 0.023241 0.0150719 0.00763853 -0.0101121 -0.0259492 0 0 -5.1365e-06 0.0005 5.23599e-07 
106 1 0.0215627 0.0225904 0.0153589 -0.00407144 -0.010566 0.0101058 -5.5554e-05 5.63235e-05 -1.85385e-05 0.0005 5.23599e-07 
108 1 0.023236 0.0223352 0.0156397 0.00202946 -0.0084835 0.00382374 -4.22278e-05 -3.64648e-05 1.46125e-05 0.0005 5.23599e-07 
110 1 0.0222871 0.0220684 0.0158077 -0.00773366 0.0100568 -0.00605983 1.43403e-05 -5.16297e-05 -3.30802e-05 0.0005 5.23599e-07 
111 1 0.0169227 0.023334 0.0145781 0.00240375 0.00116952 0.0026041 2.68606e-06 4.41587e-06 -2.50557e-06 0.0005 5.23599e-07 
112 1 0.0196503 0.0228347 0.0152669 -0.00833164 0.0206657 0.0245764 0 0 -5.1365e-06 0.0005 5.23599e-07 
114 1 0.0184846 0.0242057 0.0133542 0.0339253 -0.0225483 0.0380566 0.00010557 0.00378713 -0.00190709 0.0005 5.23599e-07 
115 1 0.0234584 0.0230502 0.0149788 -0.0025894 -0.00191312 0.000178898 -9.43312e-06 -6.41932e-06 4.78311e-06 0.0005 5.23599e-07 
119 1 0.0245604 0.0218617 0.015545 -0.24841 -0.152718 0.0340212 -0.0155159 -0.0119285 0.0132283 0.0005 5.23599e-07 
125 1 0.0205828 0.0226174 0.0155578 0.000864282 -0.000700092 0.0292817 3.17438e-05 2.56929e-06 3.49595e-05 0.0005 5.23599e-07 
126 1 0.0232698 0.0160329 0.0163562 -0.00873447 -0.0214727 -0.0215056 0 0 -5.1365e-06 0.0005 5.23599e-07 
128 1 0.0194246 0.0241634 0.0130575 -0.00870557 0.00693991 -0.0187751 -0.000238843 0.000152582 0.00041868 0.0005 5.23599e-07 
131 1 0.0234171 0.0205437 0.0166503 0.0186437 -0.0211246 -0.0535898 0 0 -5.1365e-06 0.0005 5.23599e-07 
132 1 0.0213653 0.0215924 0.0160867 0.00343656 0.00515906 0.00169294 -4.64706e-07 3.93399e-06 -2.33715e-06 0.0005 5.23599e-07 
133 1 0.0164164 0.0237722 0.0138355 0.00694173 0.00368633 0.00423251 1.52281e-05 -4.70178e-06 8.26949e-06 0.0005 5.23599e-07 
135 1 0.0202049 0.0238346 0.0155544 -0.00850325 -0.0165709 -0.00358247 -0.000111883 5.66033e-05 -0.000133354 0.0005 5.23599e-07 
136 1 0.0171033 0.0235636 0.0155475 0.00110836 -0.0116681 -0.00236738 0 0 -5.1365e-06 0.0005 5.23599e-07 
137 1 0.0212045 0.0138354 0.0141775 0.00014678 0.000308618 0.000299806 -4.07908e-07 1.14071e-06 -2.07886e-07 0.0005 5.23599e-07 
140 1 0.0236604 0.0187846 0.021562 -0.212105 -0.284949 0.920364 0 0 -5.1365e-06 0.0005 5.23599e-07 
142 1 0.0192871 0.0223935 0.0144347 -0.00221714 -0.023134 0.0109906 0.000156847 -0.000104683 -0.000253377 0.0005 5.23599e-07 
143 1 0.0222448 0.023694 0.013985 -0.00119362 0.00105033 0.00164012 -3.69674e-05 2.92525e-06 1.00021e-05 0.0005 5.23599e-07 
144 1 0.0203729 0.0221849 0.0146817 0.0311176 -0.0112156 0.0202556 -0.000217125 2.63124e-05 -8.53668e-05 0.0005 5.23599e-07 
148 1 0.0199875 0.023724 0.0137871 -0.0253994 -0.00560568 -0.0122847 0.000112872 7.82522e-05 -0.000628959 0.0005 5.23599e-07 
149 1 0.0160123 0.014912 0.0131991 0.00728356 -0.00258437 -0.00396541 0 0 -5.1365e-06 0.0005 5.23599e-07 
152 1 0.0155336 0.0234576 0.0145385 -0.0165466 0.00081958 0.00301412 0 0 -5.1365e-06 0.0005 5.23599e-07 
154 1 0.0200351 0.0227756 0.0139187 0.00380297 0.00482612 -0.0151737 0.000692341 0.00134846 0.000768032 0.0005 5.23599e-07 
158 1 0.0249082 0.0220156 0.0164149 0.120827 0.0560518 -0.174426 0.025333 0.0105166 -0.0150673 0.0005 5.23599e-07 
159 1 0.0218144 0.0233042 0.0160411 0.023265 -0.00789732 0.01409 0 0 -5.1365e-06 0.0005 5.23599e-07 
161 1 0.0204015 0.0240791 0.0129645 -0.0076856 -0.0172725 -0.00397076 -0.000157866 -4.54065e-05 -0.000422961 0.0005 5.23599e-07 
165 1 0.0213885 0.0233436 0.0182678 -0.0395884 0.0232626 0.0102957 0 0 -5.1365e-06 0.0005 5.23599e-07 
167 1 0.0165226 0.0218706 0.0168486 0.00485881 0.185327 0.14812 0 0 -5.1365e-06 0.0005 5.23599e-07 
168 1 0.0213647 0.0147006 0.0146789 -0.00502088 0.0143772 -0.0164506 0 0 -5.1365e-06 0.0005 5.23599e-07 
169 1 0.0212508 0.0184371 0.0163032 -0.0409555 0.022677 0.0137552 0 0 -5.1365e-06 0.0005 5.23599e-07 
171 1 0.0198602 0.0207697 0.0156133 0.000549816 0.0110696 -0.0010013 -3.67907e-07 9.93471e-07 -4.09008e-06 0.0005 5.23599e-07 
172 1 0.022478 0.0228946 0.0150962 -0.00390629 -0.00933446 0.00179866 -1.56197e-05 2.10488e-05 -1.31197e-05 0.0005 5.23599e-07 
175 1 0.0192057 0.0242824 0.0140196 0.00734202 0.0317942 0.000277556 -0.000125774 0.00101185 -0.000273719 0.0005 5.23599e-07 
176 1 0.0203497 0.014907 0.013151 0.00780816 0.00745864 0.0167413 -2.29295e-06 -2.58141e-06 -4.50924e-06 0.0005 5.23599e-07 
177 1 0.0255048 0.0212895 0.0167557 0.0080891 -0.00205974 0.0207531 -3.51831e-05 3.16968e-05 -6.63391e-05 0.0005 5.23599e-07 
178 1 0.0183702 0.0130905 0.0270184 0.115157 0.224901 -0.124604 0 0 -5.1365e-06 0.0005 5.23599e-07 
182 1 0.0189578 0.0233298 0.0141117 -0.0134176 -0.0211154 0.0147552 -0.000125 0.000218796 0.000257061 0.0005 5.23599e-07 
184 1 0.0181377 0.0231951 0.0135463 0.0305552 -0.0152042 0.00255722 0.000628242 -0.00194806 -0.000318518 0.0005 5.23599e-07 
185 1 0.025203 0.0194264 0.0159276 0.0217828 0.00826494 0.00188027 7.02852e-06 2.77105e-05 -1.14275e-05 0.0005 5.23599e-07 
186 1 0.0259513 0.0180403 0.0169778 0.0092982 0.0216312 0.00511142 -9.47381e-07 5.05176e-06 1.154e-05 0.0005 5.23599e-07 
187 1 0.0207096 0.0233998 0.016298 0.0154366 0.00394502 -0.0014651 0.000111883 -5.66033e-05 0.000123081 0.0005 5.23599e-07 
190 1 0.0241857 0.0156207 0.015522 -0.00497211 0.00150454 0.0114428 0 0 -5.1365e-06 0.0005 5.23599e-07 
