ITEM: TIMESTEP
100000
ITEM: NUMBER OF ATOMS
180
ITEM: BOX BOUNDS ff ff ff
-0.02 0.43
-0.02 0.06
-0.02 0.07
ITEM: ATOMS id type x y z vx vy vz fx fy fz radius mass 
1 1 0.0225629 0.0202221 0.0164363 0.01416 -0.0133216 -0.0220391 0 0 -5.1365e-06 0.0005 5.23599e-07 
2 1 0.0195287 0.0221568 0.0157279 0.00598825 -0.00145283 -0.00640821 8.51006e-06 1.0806e-05 1.2544e-05 0.0005 5.23599e-07 
3 1 0.0229331 0.0229565 0.0135928 0.0517123 0.0235773 -0.0308531 -0.00692574 -0.0138679 -0.00193389 0.0005 5.23599e-07 
4 1 0.0159667 0.0226 0.0144318 0.00787805 0.00323237 -0.00664558 3.46818e-05 2.48613e-05 -3.16878e-05 0.0005 5.23599e-07 
5 1 0.0166842 0.0142099 0.0135925 4.96536e-06 -0.00158729 0.0061894 1.76603e-06 1.49815e-06 5.46194e-06 0.0005 5.23599e-07 
6 1 0.0228666 0.0187621 0.0159337 0.0084281 0.0181496 0.000218712 -2.5835e-06 1.11181e-06 -1.02246e-06 0.0005 5.23599e-07 
7 1 0.0200415 0.0229491 0.016061 0.00258083 -0.00380052 -0.00381309 -6.99259e-06 5.37433e-06 4.6431e-06 0.0005 5.23599e-07 
8 1 0.0236391 0.0215619 0.0175116 0.00229082 -0.0197993 0.0253819 0 0 -5.1365e-06 0.0005 5.23599e-07 
9 1 0.0195731 0.0125062 0.0171044 -0.19584 -0.101341 0.0821233 0 0 -5.1365e-06 0.0005 5.23599e-07 
10 1 0.0217908 0.0143489 0.01386 -0.000465894 0.00496794 -0.0130987 0 0 -5.1365e-06 0.0005 5.23599e-07 
11 1 0.0192064 0.0208191 0.0169342 -0.000111279 -0.0134843 -0.00975968 0 0 -5.1365e-06 0.0005 5.23599e-07 
12 1 0.0164657 0.0238585 0.0139369 0.00291186 -0.000157586 -0.00056333 2.99746e-06 8.54172e-06 -2.85127e-06 0.0005 5.23599e-07 
13 1 0.0196042 0.0145977 0.013729 0.00302744 0.000578323 -0.00602704 3.48934e-06 -2.53652e-05 -2.39122e-05 0.0005 5.23599e-07 
14 1 0.0181811 0.0240661 0.0129846 0.0123691 0.0162553 -0.00430327 -0.00143384 -0.00130941 -0.00040482 0.0005 5.23599e-07 
15 1 0.0211861 0.0211484 0.0173112 -0.000289036 -0.0436249 -0.0455918 0 0 -5.1365e-06 0.0005 5.23599e-07 
16 1 0.0200523 0.0243109 0.0139141 0.00469448 0.00341163 -0.000229516 -0.000165924 -0.00021012 5.75663e-05 0.0005 5.23599e-07 
17 1 0.0239126 0.0201947 0.0171238 -0.00575633 -0.0226177 -0.00619597 0 0 -5.1365e-06 0.0005 5.23599e-07 
18 1 0.0186716 0.0152109 0.0137353 0.00445921 0.000854089 0.00191089 3.6824e-06 -8.39205e-07 -3.05518e-06 0.0005 5.23599e-07 
19 1 0.0177294 0.0153844 0.0140292 0.00833643 0.0186596 0.0335391 -2.44575e-05 6.14755e-06 -1.29602e-05 0.0005 5.23599e-07 
20 1 0.0257574 0.0202184 0.0166389 -0.00620845 -0.00203894 -0.00121857 0 0 -5.1365e-06 0.0005 5.23599e-07 
21 1 0.0187728 0.0162149 0.0149226 -0.01023 -0.000603705 0.00219644 3.07518e-07 -9.14101e-07 -5.0716e-07 0.0005 5.23599e-07 
22 1 0.0238691 0.0188551 0.0159414 0.0143532 -0.0167785 -0.00189141 0 0 -5.1365e-06 0.0005 5.23599e-07 
23 1 0.0225699 0.0231503 0.0169327 0.0074963 -0.0120935 -0.00182313 -1.71154e-06 -1.91546e-06 -4.24872e-06 0.0005 5.23599e-07 
24 1 0.023497 0.0151046 0.0147812 0.00226148 -0.00472261 0.00962885 -3.62455e-06 1.14087e-07 -1.20102e-06 0.0005 5.23599e-07 
25 1 0.0180503 0.023059 0.0162604 0.00366703 -0.000563506 -0.00284922 1.06636e-05 4.84185e-06 1.83183e-06 0.0005 5.23599e-07 
26 1 0.0240843 0.0173311 0.0166396 0.025027 0.0197265 0.0246333 -7.11259e-07 2.54433e-08 -4.13772e-06 0.0005 5.23599e-07 
27 1 0.0219993 0.0240272 0.0142794 0.00430856 0.0074297 0.0135727 -0.000109156 -4.63091e-05 1.75813e-05 0.0005 5.23599e-07 
28 1 0.0206304 0.0241365 0.0169212 0.00677366 -0.00579765 -0.0110428 -1.00423e-05 1.17074e-06 1.06513e-05 0.0005 5.23599e-07 
29 1 0.0191662 0.0241049 0.0129191 0.000458561 -0.0106035 -0.00500783 0.000359653 -0.0010701 -6.4815e-05 0.0005 5.23599e-07 
30 1 0.0248309 0.0217456 0.0159941 -0.00550871 -0.00187243 0.00364031 0 0 -5.1365e-06 0.0005 5.23599e-07 
31 1 0.0239149 0.0160127 0.0147605 -0.00231801 -0.00353052 0.0031055 4.33384e-07 -8.54011e-07 -4.27893e-07 0.0005 5.23599e-07 
32 1 0.0209273 0.0141076 0.0132715 0.00348362 0.00141973 0.00112699 7.63639e-06 9.47968e-07 1.03963e-07 0.0005 5.23599e-07 
33 1 0.0235148 0.0220013 0.0166075 0.0018783 -0.00465508 0.00635656 8.61918e-06 -1.71442e-06 -1.00741e-05 0.0005 5.23599e-07 
34 1 0.0202026 0.0150715 0.0150048 0.0162674 0.00985399 -0.00447145 0 0 -5.1365e-06 0.0005 5.23599e-07 
35 1 0.0204899 0.0145644 0.014192 0.00347552 -0.000742421 -0.00145723 -2.91339e-06 -3.12399e-05 3.50432e-05 0.0005 5.23599e-07 
36 1 0.0226805 0.0192846 0.0167656 0.00799456 -0.00245681 0.0144104 1.24614e-06 1.41271e-06 -2.38261e-06 0.0005 5.23599e-07 
37 1 0.0190878 0.0148358 0.012907 0.00186374 0.00245441 -0.00025161 -9.79749e-07 1.46295e-05 -1.5941e-05 0.0005 5.23599e-07 
38 1 0.0226057 0.0148536 0.0152929 -0.00560211 0.00240382 0.0191842 0 0 -5.1365e-06 0.0005 5.23599e-07 
39 1 0.0234192 0.0181957 0.0166127 0.0538774 0.00224327 0.0347019 8.57435e-05 0.000140849 0.000261701 0.0005 5.23599e-07 
40 1 0.0246208 0.0162371 0.0154319 -0.000191854 -0.000194967 -0.000256769 -5.59032e-07 4.58099e-07 8.3213e-08 0.0005 5.23599e-07 
41 1 0.0223714 0.0211741 0.0156014 0.00928865 -0.0167306 -0.0113237 0 0 -5.1365e-06 0.0005 5.23599e-07 
42 1 0.0179629 0.0149019 0.0131012 0.0108492 -3.73185e-05 -0.00247034 -3.70482e-06 4.60804e-07 -6.45535e-06 0.0005 5.23599e-07 
44 1 0.0204193 0.023613 0.0146993 0.009644 -0.00142932 -0.0133139 4.8421e-06 2.22877e-06 1.8691e-06 0.0005 5.23599e-07 
45 1 0.0185111 0.0236037 0.0141081 -0.0153174 0.0159118 -0.0151109 -0.000958557 -0.00282022 -0.000438996 0.0005 5.23599e-07 
46 1 0.0221897 0.0232219 0.0130546 0.0229286 0.1977 -0.0923728 -0.0071976 -0.00463892 0.00260118 0.0005 5.23599e-07 
48 1 0.0193028 0.0230973 0.0170561 0.00245471 0.0113957 -0.0038447 -1.51264e-06 -4.76133e-06 6.04244e-06 0.0005 5.23599e-07 
49 1 0.0259822 0.0192695 0.0169791 0.0049471 -0.00559712 0.00986936 0 0 -5.1365e-06 0.0005 5.23599e-07 
52 1 0.0157494 0.0230267 0.01348 0.0306168 -0.0149572 -0.0217213 0.000186242 0.000674923 -0.000335557 0.0005 5.23599e-07 
53 1 0.0188141 0.0230601 0.0148995 -0.00750791 0.0157529 -0.00668381 0 0 -5.1365e-06 0.0005 5.23599e-07 
54 1 0.0200598 0.0144123 0.012286 0.011955 0.0103803 -0.0152863 0 0 -5.1365e-06 0.0005 5.23599e-07 
55 1 0.0250155 0.0195031 0.0168727 0.00212745 -0.00566792 0.0172291 3.93826e-07 3.70176e-06 -3.64071e-06 0.0005 5.23599e-07 
56 1 0.019037 0.0230753 0.0160926 0.00413392 -0.00470308 -0.00406035 9.85818e-07 -3.05464e-06 4.28266e-06 0.0005 5.23599e-07 
57 1 0.0201565 0.0137165 0.0137739 0.0134036 -0.00403985 0.00959402 6.0405e-06 -9.749e-07 -8.02961e-07 0.0005 5.23599e-07 
58 1 0.0195381 0.0154879 0.0141815 0.0142989 0.0127229 -0.0129106 0 0 -5.1365e-06 0.0005 5.23599e-07 
59 1 0.0205228 0.0221077 0.0158164 0.00610005 -0.00284141 -0.00333092 2.88921e-05 -1.21593e-06 -1.42223e-06 0.0005 5.23599e-07 
60 1 0.0250935 0.0171487 0.0155154 0.0066944 0.0153856 0.00590508 -2.97753e-06 -1.21443e-06 -6.0209e-07 0.0005 5.23599e-07 
61 1 0.0215552 0.0227834 0.0173709 0.0253983 -0.00046114 -0.0139436 0 0 -5.1365e-06 0.0005 5.23599e-07 
62 1 0.0177994 0.023114 0.0149711 0.00978719 0.00331411 -0.00648867 8.07404e-05 2.21181e-05 2.65044e-05 0.0005 5.23599e-07 
63 1 0.0241061 0.0153575 0.0155326 0.00495621 0.00217414 0.00569399 -1.71155e-06 1.86163e-07 4.04821e-06 0.0005 5.23599e-07 
64 1 0.0241311 0.0173835 0.0156423 0.0108632 0.0384658 0.0192936 -2.76907e-05 -1.47321e-05 -1.53018e-05 0.0005 5.23599e-07 
65 1 0.0179362 0.0243873 0.0138971 0.000935869 -0.00322036 -0.00735621 0.00488863 -0.00547456 0.000181456 0.0005 5.23599e-07 
66 1 0.0175684 0.0224087 0.0156738 0.00718125 0.00264849 -0.00510099 2.89348e-05 -1.28915e-05 2.51054e-06 0.0005 5.23599e-07 
67 1 0.0191484 0.0146256 0.0119315 0.00237558 -0.00167658 0.00182501 -5.82989e-06 3.64045e-07 -3.82644e-06 0.0005 5.23599e-07 
68 1 0.0176267 0.0143906 0.0144365 -0.0379973 0.0355737 -0.0101399 0 0 -5.1365e-06 0.0005 5.23599e-07 
69 1 0.0156838 0.0229789 0.0153542 0.00250819 -0.0041547 -0.00341714 -1.21306e-06 -2.81999e-06 1.57556e-06 0.0005 5.23599e-07 
70 1 0.0232972 0.016896 0.015388 0.00180093 0.0422805 0.0249717 3.75156e-05 2.12333e-05 5.16924e-05 0.0005 5.23599e-07 
71 1 0.017302 0.0213112 0.0153797 0.0102556 0.00606393 -0.000821982 -0.000122753 -2.49606e-05 0.0001598 0.0005 5.23599e-07 
72 1 0.0147631 0.0231138 0.0148665 7.02206e-05 -0.00055335 0.000433846 -2.41635e-06 -5.43678e-06 -2.01841e-06 0.0005 5.23599e-07 
73 1 0.0175397 0.0225964 0.0141568 0.00378544 0.00459947 -0.00452931 -0.00115375 -0.00150747 -0.000362286 0.0005 5.23599e-07 
74 1 0.0171376 0.0175646 0.0157014 0.00803431 0.0179742 0.00936917 -1.28399e-07 5.73736e-07 2.64183e-07 0.0005 5.23599e-07 
75 1 0.0258415 0.0182988 0.0167061 0.00616316 0.00678854 0.0155237 0 0 -5.1365e-06 0.0005 5.23599e-07 
76 1 0.0140862 0.0225937 0.0153872 0.000201104 -8.9727e-05 -0.00126737 -1.62941e-06 -1.81951e-06 -2.24892e-07 0.0005 5.23599e-07 
77 1 0.0186029 0.014253 0.0140244 -0.0103027 0.000400427 -0.0144035 0 0 -5.1365e-06 0.0005 5.23599e-07 
78 1 0.0181698 0.0146511 0.0121352 0.00672698 0.00181865 0.0250193 7.26236e-06 3.57285e-06 1.50776e-05 0.0005 5.23599e-07 
79 1 0.0192139 0.013716 0.0134419 0.0126449 -0.0120895 0.0149009 -1.00814e-05 7.09079e-06 5.02392e-06 0.0005 5.23599e-07 
80 1 0.0200499 0.0204182 0.0165755 0.00164784 -0.0050082 -0.00625348 -7.30247e-08 1.72548e-05 2.00695e-05 0.0005 5.23599e-07 
81 1 0.0214765 0.0233721 0.012439 -0.0771791 -0.380327 0.194755 0.0217258 0.0150068 -0.00639219 0.0005 5.23599e-07 
82 1 0.016471 0.023772 0.0149482 0.00387948 -0.00160642 -0.00284254 6.89135e-05 8.03296e-06 -3.60462e-05 0.0005 5.23599e-07 
83 1 0.0182665 0.0211003 0.0154444 0.0107167 0.00746132 -0.00011333 1.02629e-05 -6.79883e-06 1.28966e-05 0.0005 5.23599e-07 
84 1 0.0176599 0.0140177 0.0134829 -0.0079258 -0.0108568 -0.00450417 -3.16152e-06 -2.40997e-06 2.3722e-06 0.0005 5.23599e-07 
85 1 0.0255577 0.0173397 0.0165603 0.00709207 -0.00571778 0.01633 6.31141e-05 -2.15117e-05 -8.69707e-06 0.0005 5.23599e-07 
86 1 0.0210556 0.0225758 0.0165284 -0.00159937 -0.00415599 0.00606887 -5.27917e-06 5.56961e-06 1.22341e-05 0.0005 5.23599e-07 
87 1 0.0184477 0.0152704 0.0147134 0.0234317 0.00209024 0.0231991 1.00045e-05 2.20209e-05 4.64518e-05 0.0005 5.23599e-07 
88 1 0.0210501 0.0204281 0.0165755 0.00185837 0.00474544 -0.00438451 -1.554e-08 2.13818e-06 -2.513e-06 0.0005 5.23599e-07 
89 1 0.0254405 0.0212045 0.0165739 -0.00137291 0.00101258 -0.000165744 0 0 -5.1365e-06 0.0005 5.23599e-07 
90 1 0.0242319 0.022522 0.0157923 0.00357855 -0.00343667 0.00249242 -1.99717e-06 -6.29675e-07 -3.34779e-06 0.0005 5.23599e-07 
91 1 0.0229197 0.0222995 0.0151617 0.0142751 0.0467254 0.00451314 0.0020594 -0.00389703 -0.00417831 0.0005 5.23599e-07 
92 1 0.0217392 0.0237031 0.0169955 0.0157717 -0.00204062 -0.00198888 2.30464e-05 5.30229e-06 -5.63703e-05 0.0005 5.23599e-07 
93 1 0.0224488 0.0237409 0.0177367 -0.0026943 -0.000248209 -0.00689957 -9.28563e-07 -9.36619e-07 -3.80621e-06 0.0005 5.23599e-07 
94 1 0.0232545 0.0227089 0.015947 0.0459057 0.0153034 0.0253272 0.00561364 0.00461504 0.00187643 0.0005 5.23599e-07 
95 1 0.0166854 0.0230033 0.0162174 0.00694413 0.00326619 -0.000108989 2.25441e-06 4.86207e-06 -4.45407e-06 0.0005 5.23599e-07 
96 1 0.0224348 0.0234354 0.0153294 -0.00932619 -0.00157582 0.0135921 1.54859e-06 9.52155e-07 -7.90792e-06 0.0005 5.23599e-07 
97 1 0.0210199 0.0241718 0.0141247 0.00620771 0.00566583 -0.00974575 0 0 -5.1365e-06 0.0005 5.23599e-07 
98 1 0.0195031 0.0234955 0.0143165 0.00493348 -0.0107087 0.0112214 -4.8421e-06 -2.22877e-06 -1.21421e-05 0.0005 5.23599e-07 
99 1 0.0232383 0.0225608 0.0173913 0.0175536 -0.0083453 -0.00749885 0 0 -5.1365e-06 0.0005 5.23599e-07 
100 1 0.0203382 0.0238233 0.0156767 0.00448428 -0.00408554 -0.00879491 3.38066e-06 7.52915e-07 -9.96749e-06 0.0005 5.23599e-07 
102 1 0.0246352 0.0192098 0.01775 -0.00237158 -0.028259 0.00691307 3.20169e-07 -3.23327e-05 -4.75142e-05 0.0005 5.23599e-07 
103 1 0.0194853 0.0149254 0.0161226 -0.0563538 -0.0421811 0.00305398 0 0 -5.1365e-06 0.0005 5.23599e-07 
104 1 0.0241505 0.021236 0.0167114 -0.00127486 -0.00878226 0.00735673 -6.4292e-07 1.53832e-06 -6.04737e-06 0.0005 5.23599e-07 
105 1 0.0234978 0.0196891 0.0163528 0.00682992 -0.0118167 -0.00760673 0 0 -5.1365e-06 0.0005 5.23599e-07 
106 1 0.0234958 0.0230863 0.0150761 -0.0176172 -0.0556362 -0.0862027 0.000132535 -0.000937471 -0.00625593 0.0005 5.23599e-07 
108 1 0.0203874 0.0231683 0.0169777 -0.0030837 0.00122532 -0.000815449 -2.61932e-06 -8.89193e-06 -1.53503e-06 0.0005 5.23599e-07 
109 1 0.0228536 0.023509 0.0144243 0.00516638 0.000354782 0.0141969 -1.54859e-06 -9.52155e-07 -2.36508e-06 0.0005 5.23599e-07 
110 1 0.0248148 0.0201262 0.0181063 -0.0049312 -0.0219906 -0.0194472 -1.87043e-07 3.24082e-05 3.72318e-05 0.0005 5.23599e-07 
111 1 0.0150065 0.0223074 0.0156538 -0.000350151 0.000794272 0.00112829 -6.16244e-06 -4.70579e-06 1.23296e-06 0.0005 5.23599e-07 
112 1 0.024541 0.017778 0.0174104 0.0575868 0.012733 0.00280924 0 0 -5.1365e-06 0.0005 5.23599e-07 
113 1 0.0225485 0.0222045 0.0164528 0.00291658 -0.00197913 0.00963349 -1.68813e-06 -1.16067e-05 -1.68851e-06 0.0005 5.23599e-07 
114 1 0.0197596 0.0241368 0.0164295 0.00828813 -0.00244173 -0.00836222 -8.6781e-07 -3.31933e-06 1.52829e-06 0.0005 5.23599e-07 
115 1 0.019369 0.0237261 0.0154104 0.00314704 -0.00084504 -0.00229821 7.09949e-07 2.02214e-06 2.36128e-06 0.0005 5.23599e-07 
116 1 0.0187608 0.0240993 0.0164035 0.00811721 -0.00102669 -0.00477461 -3.40927e-06 -2.7684e-06 5.4393e-07 0.0005 5.23599e-07 
117 1 0.0196082 0.0221346 0.0167245 0.00212378 -0.00403433 -0.00481674 -1.51082e-05 -4.23368e-06 -1.00654e-05 0.0005 5.23599e-07 
118 1 0.0210034 0.023574 0.0176591 0.0125359 -0.00453268 -0.00298478 -2.92184e-05 -4.91156e-06 4.81974e-05 0.0005 5.23599e-07 
119 1 0.021192 0.023621 0.0161614 -0.00700482 0.00881254 0.0156185 1.09731e-06 -1.2597e-06 -6.45207e-06 0.0005 5.23599e-07 
120 1 0.0163764 0.0210358 0.0155895 0.0107463 0.00913082 5.90862e-05 -1.31392e-05 5.31714e-05 -1.15449e-05 0.0005 5.23599e-07 
121 1 0.0180268 0.0220189 0.0147963 0.0104616 -0.00134009 0.00369578 -0.000413943 -0.000624696 -3.72717e-05 0.0005 5.23599e-07 
122 1 0.0198182 0.0229023 0.0150659 0.00627712 0.0038537 -0.00684776 8.10052e-07 2.33335e-07 -5.74956e-06 0.0005 5.23599e-07 
123 1 0.0205348 0.0218279 0.016941 -0.00478265 -0.00999449 -0.00476718 1.51432e-05 4.20553e-06 -1.48572e-07 0.0005 5.23599e-07 
124 1 0.0190643 0.0243627 0.0138731 0.0025755 -0.00689462 0.00318322 0.000877685 -0.000426867 4.67626e-05 0.0005 5.23599e-07 
125 1 0.0245196 0.0186512 0.0167053 0.0050655 -0.00994989 0.036705 8.12117e-06 2.6199e-05 6.32668e-06 0.0005 5.23599e-07 
126 1 0.0175174 0.020448 0.015837 0.00933989 0.0114081 0.00268072 -4.00779e-06 2.11269e-06 -1.68122e-06 0.0005 5.23599e-07 
127 1 0.0217523 0.0220543 0.0158675 0.00604923 0.00488977 0.00280567 -2.50775e-06 1.04941e-05 -1.06646e-05 0.0005 5.23599e-07 
128 1 0.0156065 0.0235231 0.0145191 -7.70932e-05 -0.00130725 -0.0018531 1.04437e-05 -4.4701e-06 -5.8627e-06 0.0005 5.23599e-07 
129 1 0.0200005 0.021358 0.016223 -5.97923e-05 -0.00911407 -0.00770837 4.75192e-07 7.06779e-06 1.02767e-06 0.0005 5.23599e-07 
130 1 0.0190014 0.0214318 0.016171 0.0013739 0.00646908 0.00723001 3.79024e-06 -4.96487e-07 -6.20311e-06 0.0005 5.23599e-07 
131 1 0.0167123 0.0229174 0.0137062 0.0144749 0.00950862 -0.00744899 0.00015375 0.000319022 -0.000163641 0.0005 5.23599e-07 
132 1 0.0184819 0.0201866 0.015805 0.00959964 0.0118011 0.000304353 -1.67034e-06 4.79103e-06 -3.01034e-06 0.0005 5.23599e-07 
133 1 0.0177668 0.0240308 0.016487 0.00871233 0.00162688 0.00189118 -4.11011e-06 -3.87727e-06 -6.42127e-06 0.0005 5.23599e-07 
134 1 0.0170449 0.0220471 0.0147681 0.00799171 0.00029521 0.00254526 -0.000538024 0.00080114 0.000157786 0.0005 5.23599e-07 
135 1 0.023794 0.0162571 0.0159938 -0.00860173 -0.00908472 -0.0125159 -2.52155e-06 7.27777e-07 7.68023e-07 0.0005 5.23599e-07 
136 1 0.0180404 0.0217053 0.0162082 -0.00324714 0.00261391 0.00250352 -3.46772e-06 3.57126e-06 -3.60395e-06 0.0005 5.23599e-07 
137 1 0.0244174 0.0209181 0.0176239 -0.00440689 -0.019931 0.0110288 0 0 -5.1365e-06 0.0005 5.23599e-07 
138 1 0.0173422 0.0194541 0.0159276 0.00161231 0.00875543 -0.000521884 -6.61391e-08 1.52195e-06 -2.89249e-06 0.0005 5.23599e-07 
139 1 0.0240246 0.0219879 0.0149658 -0.00462252 0.00388789 -0.00155731 6.95942e-05 0.000105132 -3.75183e-05 0.0005 5.23599e-07 
140 1 0.0226505 0.0145793 0.0143255 -0.0059298 -0.00769124 0.0104742 0 0 -5.1365e-06 0.0005 5.23599e-07 
141 1 0.0188088 0.0245075 0.0173151 0.00811061 -0.00107723 -0.00422243 2.61446e-07 -7.7519e-07 -3.40178e-06 0.0005 5.23599e-07 
142 1 0.0183805 0.0236828 0.0155525 0.00290978 0.000655933 -0.00198693 3.78372e-06 5.01874e-06 8.51807e-06 0.0005 5.23599e-07 
143 1 0.0172371 0.0241093 0.0132705 0.0179879 -0.00632189 -0.0205906 0.0043777 0.0115277 0.00298463 0.0005 5.23599e-07 
144 1 0.0230835 0.0177974 0.0157618 0.00956848 0.0360569 0.0448958 -3.63744e-05 -5.29023e-05 -0.000214242 0.0005 5.23599e-07 
145 1 0.0233824 0.0206309 0.0160222 0.0212218 -0.0196847 -0.0236822 0 0 -5.1365e-06 0.0005 5.23599e-07 
146 1 0.0183057 0.0191715 0.0159562 0.0113153 0.0144871 -0.00522186 0 0 -5.1365e-06 0.0005 5.23599e-07 
147 1 0.0226333 0.0211702 0.0176473 -0.0160674 0.00805708 -0.0506314 0 0 -5.1365e-06 0.0005 5.23599e-07 
148 1 0.0218067 0.023105 0.0139465 0.0475822 0.0237432 0.0384778 0.00120163 0.00100817 0.000894837 0.0005 5.23599e-07 
149 1 0.0196391 0.0142494 0.0146651 -0.000102111 -0.000167722 -0.00685219 -2.41624e-06 8.74858e-05 3.95044e-05 0.0005 5.23599e-07 
150 1 0.0233039 0.0213773 0.0152901 0.00544974 0.000388923 0.00317781 -6.95942e-05 -0.000105132 2.72453e-05 0.0005 5.23599e-07 
151 1 0.023791 0.0191689 0.0171673 -0.0223967 -0.00838826 0.00189316 0 0 -5.1365e-06 0.0005 5.23599e-07 
152 1 0.0221083 0.0218811 0.0149066 0.011346 0.025122 -0.091389 0.00578052 0.0124545 0.0152677 0.0005 5.23599e-07 
153 1 0.024782 0.0204607 0.016705 2.68075e-05 -0.00809182 0.0066363 -3.80483e-07 1.89629e-06 -3.28196e-06 0.0005 5.23599e-07 
154 1 0.0219942 0.0230075 0.0161198 0.0105645 -0.0113298 -0.00713313 0 0 -5.1365e-06 0.0005 5.23599e-07 
155 1 0.021493 0.0235982 0.0150268 -0.0070148 0.0146421 0.0108687 2.22843e-05 -9.85004e-06 -1.30977e-05 0.0005 5.23599e-07 
157 1 0.0219033 0.0209538 0.0166115 0.0143728 -0.0111171 -0.0182096 7.94919e-06 9.40403e-07 2.30582e-06 0.0005 5.23599e-07 
158 1 0.0174108 0.0232514 0.0129165 -0.000163453 -0.0954755 -0.0498056 0.0128552 -0.0122092 -0.000983085 0.0005 5.23599e-07 
159 1 0.0202279 0.0241192 0.01296 0.00468327 -0.000398317 0.00190439 9.80215e-06 5.53971e-05 -0.000133613 0.0005 5.23599e-07 
160 1 0.0242552 0.0211144 0.0154711 0.0171443 -0.0165821 -0.0134117 -4.06861e-06 2.98006e-05 2.12664e-06 0.0005 5.23599e-07 
161 1 0.0184581 0.0140531 0.0128819 0.00899199 -0.00991573 0.0173016 2.65049e-06 6.02987e-06 1.17181e-05 0.0005 5.23599e-07 
163 1 0.016578 0.0201481 0.0160026 0.0110473 0.00770862 0.00686871 -4.08072e-06 -1.01409e-05 9.23098e-07 0.0005 5.23599e-07 
164 1 0.0228661 0.0212208 0.0166518 0.0183778 -0.0154877 -0.0250406 -8.60066e-07 -1.03511e-06 -5.0736e-06 0.0005 5.23599e-07 
165 1 0.0168324 0.0228976 0.0152073 0.0108063 0.000948491 0.00112559 0.000220091 0.00010132 -5.07915e-05 0.0005 5.23599e-07 
167 1 0.0248346 0.017888 0.016142 0.0239109 0.0198326 0.014584 -6.06144e-05 -1.18047e-06 1.22169e-05 0.0005 5.23599e-07 
168 1 0.0213536 0.0148193 0.0146265 0.00742898 0.00723158 -0.0107958 2.26982e-06 -4.57511e-07 -2.26958e-06 0.0005 5.23599e-07 
169 1 0.0216983 0.0218954 0.0168817 -0.00701462 -0.0169448 -0.00719735 0 0 -5.1365e-06 0.0005 5.23599e-07 
171 1 0.0244548 0.0201914 0.0157991 0.0051534 -0.00236527 0.00998292 4.06861e-06 -2.98006e-05 -1.23997e-05 0.0005 5.23599e-07 
172 1 0.0224965 0.0224935 0.0142988 -0.0793897 -0.0579051 0.0259578 -0.00946345 0.000294347 -0.00960643 0.0005 5.23599e-07 
173 1 0.0192815 0.0153767 0.0152531 0.0275785 0.000822865 0.00982143 9.08268e-05 -1.19308e-05 4.0766e-05 0.0005 5.23599e-07 
174 1 0.0186354 0.0223622 0.0166761 0.00763662 -0.00271528 -0.00390659 0 0 -5.1365e-06 0.0005 5.23599e-07 
175 1 0.0172989 0.0236327 0.0156982 0.00763217 0.0005836 0.00258727 9.12874e-06 5.37468e-06 -3.89519e-06 0.0005 5.23599e-07 
176 1 0.021181 0.0228172 0.0155666 0.000459934 0.00962763 0.00822199 -9.88941e-06 -3.38412e-06 -4.18565e-06 0.0005 5.23599e-07 
177 1 0.0211331 0.0154819 0.0153523 0.000700883 -0.0201995 -0.00952451 0 0 -5.1365e-06 0.0005 5.23599e-07 
178 1 0.0164323 0.0232917 0.0128221 0.03805 0.0849257 -0.0348458 -0.00102578 0.008834 0.00268419 0.0005 5.23599e-07 
179 1 0.0251009 0.0164916 0.0162711 0.00162422 0.00487626 -0.00195055 1.33663e-06 1.59333e-06 1.74987e-06 0.0005 5.23599e-07 
180 1 0.0161482 0.0218031 0.014998 0.0104013 0.00592928 -0.00495556 -0.000151849 0.000287324 0.000132542 0.0005 5.23599e-07 
181 1 0.0210918 0.0213963 0.0162306 0.00769298 -0.00288198 -0.000273679 -7.18631e-06 2.49752e-06 -1.08138e-05 0.0005 5.23599e-07 
182 1 0.0167886 0.0238821 0.016683 0.00434919 0.00213688 0.00439513 9.80626e-08 1.47351e-06 -4.64161e-06 0.0005 5.23599e-07 
183 1 0.0176798 0.0160386 0.0147884 0.00539702 -0.00984664 -0.00425465 0 0 -5.1365e-06 0.0005 5.23599e-07 
184 1 0.0166347 0.0220855 0.015824 0.00793023 0.00319864 -0.00394598 -1.91857e-05 9.03404e-08 -8.64469e-06 0.0005 5.23599e-07 
185 1 0.0229907 0.0199155 0.0175593 0.016847 -0.0331313 -0.00371448 0 0 -5.1365e-06 0.0005 5.23599e-07 
186 1 0.0234747 0.0225035 0.0142835 -0.0044367 -0.00124452 0.0166287 -0.0047967 -0.00339997 0.000425371 0.0005 5.23599e-07 
187 1 0.0175335 0.0235418 0.0140734 -0.0150941 0.015834 -0.0177663 0.000346463 0.00387403 -0.000110585 0.0005 5.23599e-07 
188 1 0.0185615 0.0223569 0.0155773 0.00622534 0.00376682 -0.00850297 2.83583e-06 6.81504e-06 9.98108e-06 0.0005 5.23599e-07 
189 1 0.0176533 0.0243347 0.0174328 0.000457573 0.000696947 0.000952498 1.01831e-06 -1.06729e-06 -1.52643e-06 0.0005 5.23599e-07 
190 1 0.0210629 0.0137445 0.0141946 0.013412 0.00723755 0.0022457 1.25527e-05 5.63423e-06 7.1772e-06 0.0005 5.23599e-07 
