ITEM: TIMESTEP
360000
ITEM: NUMBER OF ATOMS
101
ITEM: BOX BOUNDS ff ff ff
-0.02 0.43
-0.02 0.06
-0.02 0.07
ITEM: ATOMS id type x y z vx vy vz fx fy fz radius mass 
1 1 0.025283 0.0206773 0.0159073 -0.0854548 -0.0237761 0.0667306 0.012278 0.00289775 0.011962 0.0005 5.23599e-07 
2 1 0.0205564 0.0236608 0.0140915 0.0622399 -0.0095816 0.0395825 0 0 -5.1365e-06 0.0005 5.23599e-07 
3 1 0.0211592 0.0240035 0.0133 0.0178291 -0.010579 3.74872e-05 -0.000134205 -0.000138588 9.60339e-05 0.0005 5.23599e-07 
5 1 0.0242013 0.0206328 0.015829 -0.00961943 -0.0692452 0.0237945 -0.000568008 0.00259278 -0.00115297 0.0005 5.23599e-07 
6 1 0.0201945 0.0241334 0.0130092 0.10591 0.0164096 0.0295434 0 0 -5.1365e-06 0.0005 5.23599e-07 
7 1 0.0214156 0.02338 0.0145525 0.06965 -0.0208883 0.04468 0 0 -5.1365e-06 0.0005 5.23599e-07 
9 1 0.0148111 0.0141342 0.0160741 7.66358e-21 -1.17022e-19 2.0377e-20 0 0 0 0.0005 5.23599e-07 
10 1 0.0215643 0.0142902 0.0136958 0.0021203 0.000604106 -0.000130936 -1.00917e-07 -3.31243e-07 -1.46527e-06 0.0005 5.23599e-07 
12 1 0.0198041 0.013679 0.0136947 -0.000545237 -0.00039684 0.000310973 -4.83672e-07 2.90839e-08 -2.28745e-07 0.0005 5.23599e-07 
13 1 0.0257712 0.0203622 0.0167383 -0.00983357 -0.035692 0.126522 0 0 -5.1365e-06 0.0005 5.23599e-07 
14 1 0.0211238 0.0234105 0.0157541 0.0301687 0.0518406 -0.0275117 0 0 -5.1365e-06 0.0005 5.23599e-07 
17 1 0.0247658 0.0213893 0.0155388 0.0791979 0.0517329 0.0515441 -0.0194111 -0.00312097 0.0118655 0.0005 5.23599e-07 
18 1 0.0183085 0.0238561 0.012507 0.0968647 -0.0102847 -0.0137856 0 0 -5.1365e-06 0.0005 5.23599e-07 
21 1 0.0177897 0.0230462 0.0134772 0.0180737 0.00333849 0.0195448 -2.7011e-05 0.000254837 -2.58626e-05 0.0005 5.23599e-07 
23 1 0.0196128 0.0140982 0.0128073 -0.000386292 -7.56862e-06 0.000253185 -8.50829e-07 -3.92987e-07 2.99669e-07 0.0005 5.23599e-07 
25 1 0.0246964 0.0203443 0.0167481 -0.014757 0.00465847 0.0164557 0 0 -5.1365e-06 0.0005 5.23599e-07 
26 1 0.0195972 0.023802 0.0138112 0.0585269 0.00243712 0.0283734 0 0 -5.1365e-06 0.0005 5.23599e-07 
29 1 0.017524 0.0234831 0.0117772 0.0227852 -0.00398494 -0.0130808 0.000949762 -0.00945537 0.00197594 0.0005 5.23599e-07 
35 1 0.0186696 0.0227094 0.0140247 0.0176686 0.0293684 -0.0379773 0 0 -5.1365e-06 0.0005 5.23599e-07 
36 1 0.0181927 0.0221274 0.014709 0.0169939 0.0246456 -0.0201376 1.99507e-05 2.29448e-05 1.39276e-05 0.0005 5.23599e-07 
38 1 0.0241699 0.0181605 0.0159088 0.0148007 0.0224357 0.000154066 0.00672504 -0.0128972 -0.005783 0.0005 5.23599e-07 
39 1 0.0176992 0.020482 0.0157218 0.00634536 0.0383024 -0.0043191 0 0 -5.1365e-06 0.0005 5.23599e-07 
40 1 0.0179775 0.023046 0.0161126 0.0102734 -0.00427086 -0.0206002 3.01778e-05 1.24829e-05 3.55326e-06 0.0005 5.23599e-07 
42 1 0.0167101 0.0237993 0.0134242 0.00993799 -0.0181172 -0.00945614 7.99321e-05 0.00232155 -0.00100558 0.0005 5.23599e-07 
44 1 0.0244255 0.0188978 0.0168477 0.0126601 0.00985161 0.00596413 0 0 -5.1365e-06 0.0005 5.23599e-07 
45 1 0.0206412 0.0181872 0.017303 0.000105098 0.0285879 0.0234872 0 0 -5.1365e-06 0.0005 5.23599e-07 
48 1 0.0254026 0.0213689 0.0166504 0.0175599 0.0271704 0.0442371 0 0 -5.1365e-06 0.0005 5.23599e-07 
49 1 0.0198959 0.0152636 0.0138373 0.00415387 0.0036866 0.00669573 2.83691e-05 1.35643e-05 -2.75155e-05 0.0005 5.23599e-07 
52 1 0.0187657 0.02339 0.0147986 0.01162 -0.00633202 0.00205646 0 0 -5.1365e-06 0.0005 5.23599e-07 
53 1 0.0191111 0.0224545 0.0149434 0.0226335 -0.00568127 -0.0278778 0 0 -5.1365e-06 0.0005 5.23599e-07 
54 1 0.0178902 0.0140881 0.0137152 -0.0285743 0.00511402 -0.0204916 0 0 -5.1365e-06 0.0005 5.23599e-07 
57 1 0.0172459 0.0243164 0.0140327 0.0228012 -0.0283361 -0.00125684 0.000317341 -0.000638806 0.000714065 0.0005 5.23599e-07 
60 1 0.019813 0.0237027 0.0155338 0.00943259 0.00772324 0.0250806 0 0 -5.1365e-06 0.0005 5.23599e-07 
62 1 0.0169291 0.0171181 0.0192339 0.196917 0.022477 -0.140183 0 0 -5.1365e-06 0.0005 5.23599e-07 
63 1 0.0251009 0.018114 0.0158394 -0.00862197 -0.0206589 -0.0114953 -0.00365225 -0.0103692 -0.00429323 0.0005 5.23599e-07 
64 1 0.0232901 0.0173043 0.016563 -0.0187164 -0.0202281 -0.0139225 0 0 -5.1365e-06 0.0005 5.23599e-07 
65 1 0.0192646 0.0167571 0.0156331 0.239489 0.0694148 0.00219918 0 0 -5.1365e-06 0.0005 5.23599e-07 
66 1 0.0179782 0.0236603 0.0142444 0.00795521 0.0160508 0.0070612 0 0 -5.1365e-06 0.0005 5.23599e-07 
67 1 0.0240474 0.0214034 0.0164958 0.00646347 0.00687755 0.10377 0 0 -5.1365e-06 0.0005 5.23599e-07 
68 1 0.0197474 0.0232597 0.0146381 0.0153068 -0.0078035 0.0294809 0 0 -5.1365e-06 0.0005 5.23599e-07 
69 1 0.0147959 0.0210191 0.0163746 -0.0014029 0.0761598 -0.00385154 0 0 -5.1365e-06 0.0005 5.23599e-07 
70 1 0.0256355 0.0197924 0.0158684 -0.152787 -0.138262 -0.0822656 -0.0372062 -0.0157582 -0.0206034 0.0005 5.23599e-07 
74 1 0.0174952 0.0222232 0.0155322 -0.0336895 -0.015794 -0.0137989 0 0 -5.1365e-06 0.0005 5.23599e-07 
75 1 0.020477 0.0248018 0.0151432 1.98838e-10 -4.72382e-11 8.55109e-11 7.40993e-13 -1.76103e-13 3.18714e-13 0.0005 5.23599e-07 
76 1 0.0163081 0.0239486 0.014353 0.00900103 -0.000236042 -0.010416 -1.93153e-07 1.70824e-07 -5.13885e-06 0.0005 5.23599e-07 
79 1 0.0181535 0.0242505 0.0134407 0.0128918 0.000573778 -0.00730026 0 0 -5.1365e-06 0.0005 5.23599e-07 
80 1 0.0180383 0.0193719 0.0159366 -7.131e-05 0.0497544 -0.00387056 -4.47213e-07 1.12292e-06 -3.27113e-07 0.0005 5.23599e-07 
81 1 0.023921 0.019306 0.0159724 0.025328 -0.0315482 -0.0270127 0.000810643 0.00297624 0.000905747 0.0005 5.23599e-07 
82 1 0.0191443 0.0149176 0.013137 0.0104255 0.00273797 0.00978345 1.97576e-06 4.10948e-07 2.05131e-06 0.0005 5.23599e-07 
84 1 0.0213385 0.0224534 0.0155134 -0.0547225 0.0726001 -0.0260454 0.000154802 -0.000103075 8.45967e-05 0.0005 5.23599e-07 
85 1 0.0247041 0.0197913 0.0158931 0.0533607 0.0536982 0.0548173 0.00535716 0.0168348 0.0119278 0.0005 5.23599e-07 
86 1 0.0186066 0.0139726 0.0130165 0.00708477 7.25229e-05 0.00164212 0 0 -5.1365e-06 0.0005 5.23599e-07 
87 1 0.0227089 0.0205214 0.0168117 -0.0625265 -0.0607755 0.0206324 0 0 -5.1365e-06 0.0005 5.23599e-07 
88 1 0.0206153 0.0229407 0.0150253 0.0195974 0.0022798 0.0164831 -0.00015788 0.000125332 -8.87745e-05 0.0005 5.23599e-07 
90 1 0.0236573 0.0201475 0.0167676 0.00794627 0.010842 0.034738 0 0 -5.1365e-06 0.0005 5.23599e-07 
91 1 0.0173198 0.0235372 0.0127196 0.00864836 0.0660609 -0.038021 -0.000624154 0.0149283 0.00059462 0.0005 5.23599e-07 
92 1 0.0163396 0.0231157 0.0149122 -0.00452565 0.00385305 0.0109407 0 0 -5.1365e-06 0.0005 5.23599e-07 
96 1 0.0193523 0.0215059 0.0152018 -0.00297153 0.0560049 -0.0373313 2.77951e-07 7.4705e-07 1.21209e-07 0.0005 5.23599e-07 
97 1 0.0187782 0.0235521 0.0157934 0.0406943 0.0214192 -0.0173549 -3.01778e-05 -1.24829e-05 -1.38263e-05 0.0005 5.23599e-07 
98 1 0.0187502 0.0231898 0.0131452 0.00597813 0.00795489 -0.0549225 0 0 -5.1365e-06 0.0005 5.23599e-07 
100 1 0.017952 0.0213616 0.0153041 0.0110102 0.0277713 -0.0143198 8.60564e-06 -5.24244e-05 7.88899e-06 0.0005 5.23599e-07 
104 1 0.0196998 0.0146127 0.0119531 -9.385e-05 0.0019662 -0.00316818 -2.96731e-07 1.4647e-06 -2.44469e-06 0.0005 5.23599e-07 
105 1 0.024306 0.0210133 0.0174042 0.01394 -0.0500074 0.14902 0 0 -5.1365e-06 0.0005 5.23599e-07 
106 1 0.0146485 0.0230429 0.0149236 0.0044764 0.0173244 -0.0120563 0 0 -5.1365e-06 0.0005 5.23599e-07 
108 1 0.0189267 0.0153999 0.0140394 0.0129457 0.0161045 0.0142445 -4.11081e-05 -8.88852e-06 2.94271e-05 0.0005 5.23599e-07 
110 1 0.02381 0.01537 0.0153045 -0.0213604 0.00863343 -0.0109901 0 0 -5.1365e-06 0.0005 5.23599e-07 
111 1 0.0227993 0.0235412 0.0143805 0.095355 -0.0521378 0.0277929 0 0 -5.1365e-06 0.0005 5.23599e-07 
112 1 0.0192232 0.0145296 0.0144353 -0.0602042 -0.045729 -0.0633296 0 0 -5.1365e-06 0.0005 5.23599e-07 
114 1 0.0247836 0.0220846 0.0163175 0.00933197 -0.018907 -0.0160379 0 0 -5.1365e-06 0.0005 5.23599e-07 
115 1 0.0224043 0.0145169 0.0141884 0.00260821 0.00239045 -0.000584582 3.04538e-06 8.2557e-07 -3.54844e-06 0.0005 5.23599e-07 
119 1 0.0258539 0.0193366 0.0167459 -0.00875586 0.00570334 -0.00123539 0 0 -5.1365e-06 0.0005 5.23599e-07 
125 1 0.0229019 0.0230076 0.0134803 0.104788 0.0090752 0.0196253 0.00415832 0.00705152 0.00261496 0.0005 5.23599e-07 
126 1 0.0232092 0.0148645 0.0146818 -0.00528039 -0.0051257 -0.00213144 1.97558e-07 -2.38381e-06 1.62049e-07 0.0005 5.23599e-07 
128 1 0.0170259 0.023245 0.0141958 0.00460707 0.0118594 0.00531462 0 0 -5.1365e-06 0.0005 5.23599e-07 
131 1 0.0185345 0.0215534 0.0161218 -0.00237709 0.0329619 -0.0404601 0 0 -5.1365e-06 0.0005 5.23599e-07 
133 1 0.0233763 0.022658 0.0142522 0.0480435 0.212641 0.0660662 0.00909666 -0.00719473 0.00113701 0.0005 5.23599e-07 
135 1 0.0178387 0.0230169 0.0149974 -0.0079982 0.00948951 0.0103418 -9.10131e-09 2.91994e-07 -5.18665e-06 0.0005 5.23599e-07 
136 1 0.024213 0.0220487 0.0151332 -0.0507103 -0.193664 0.184827 0.0105578 0.00705234 -0.00608283 0.0005 5.23599e-07 
143 1 0.0156064 0.0165588 0.0172055 0.15791 0.15239 -0.553999 0 0 -5.1365e-06 0.0005 5.23599e-07 
144 1 0.0251205 0.0171828 0.0155379 -0.0690683 -0.032017 -0.020432 -0.00307052 0.00179829 0.000809488 0.0005 5.23599e-07 
148 1 0.0241384 0.0194377 0.0177554 0.00677451 -0.0313226 0.0836543 0 0 -5.1365e-06 0.0005 5.23599e-07 
149 1 0.0157315 0.019334 0.0167533 1.6166e-05 0.0601276 -0.00282735 0 0 -5.1365e-06 0.0005 5.23599e-07 
152 1 0.0219892 0.0237777 0.0138302 0.0760692 -0.0371726 0.0430913 0 0 -5.1365e-06 0.0005 5.23599e-07 
154 1 0.0202377 0.0148568 0.0129905 -0.00177033 -0.000245928 0.00874332 7.42171e-06 2.07048e-06 -1.80534e-06 0.0005 5.23599e-07 
158 1 0.0245867 0.0164475 0.0151846 0.00781971 -0.0615972 -0.0197494 -0.00103511 -0.00126241 -0.000530323 0.0005 5.23599e-07 
159 1 0.0206994 0.0146139 0.01198 -0.000263865 -0.00121078 0.00220674 4.09433e-08 1.57248e-06 -3.56494e-06 0.0005 5.23599e-07 
165 1 0.0221603 0.0234537 0.0152334 0.0819472 -0.0124953 0.0435003 0 0 -5.1365e-06 0.0005 5.23599e-07 
167 1 0.0235163 0.0213138 0.0156285 0.0622124 0.0250337 0.0130924 7.41583e-05 -0.000955038 0.00160122 0.0005 5.23599e-07 
168 1 0.0206772 0.0140221 0.0133207 0.000622163 -0.00135768 0.00383752 1.42517e-06 -8.67571e-07 -2.2913e-06 0.0005 5.23599e-07 
171 1 0.0233203 0.0219373 0.0148862 -0.0592437 -0.0655803 0.146452 0.036865 -0.000189341 0.00283631 0.0005 5.23599e-07 
172 1 0.0172309 0.022317 0.014515 0.0068354 0.00463095 -0.00130423 -2.87199e-05 2.87343e-05 -3.82983e-05 0.0005 5.23599e-07 
175 1 0.024141 0.0226867 0.0158388 0.0860415 0.0193937 -0.071114 -0.00742947 -0.00567771 0.00175714 0.0005 5.23599e-07 
176 1 0.0168565 0.0141921 0.0135293 0.00325605 -0.00446116 0.00829474 1.82273e-06 1.25601e-05 -6.51299e-06 0.0005 5.23599e-07 
177 1 0.0188744 0.0206849 0.015664 0.00219583 0.0735553 0.0191644 0 0 -5.1365e-06 0.0005 5.23599e-07 
178 1 0.0191643 0.0241115 0.0129584 0.08431 0.00705107 0.00841224 0 0 -5.1365e-06 0.0005 5.23599e-07 
182 1 0.015476 0.0233925 0.01448 0.00790591 0.00360994 -0.00395371 1.5267e-07 4.67635e-07 -2.33152e-06 0.0005 5.23599e-07 
184 1 0.0183428 0.0176876 0.0160662 -0.00724194 0.0189638 0.0551113 0 0 -5.1365e-06 0.0005 5.23599e-07 
185 1 0.0097676 0.0177068 0.00831817 -0.00128036 0.0025395 0.00357876 0 0 -5.1365e-06 0.0005 5.23599e-07 
186 1 0.0208657 0.0148649 0.0141225 -0.0193595 0.0214069 -0.0596041 0 0 -5.1365e-06 0.0005 5.23599e-07 
187 1 0.0223422 0.0225404 0.0156154 -0.0176795 0.0531865 -0.0430607 0 0 -5.1365e-06 0.0005 5.23599e-07 
190 1 0.0257542 0.0187686 0.0159272 0.0354993 -0.0430988 0.00834399 0.00350358 0.00156629 0.0010079 0.0005 5.23599e-07 
