ITEM: TIMESTEP
200000
ITEM: NUMBER OF ATOMS
119
ITEM: BOX BOUNDS ff ff ff
-0.02 0.43
-0.02 0.06
-0.02 0.07
ITEM: ATOMS id type x y z vx vy vz fx fy fz radius mass 
1 1 0.0182045 0.01463 0.0119748 0.0144324 -0.00237618 -0.00375371 -4.29933e-06 3.96298e-06 -8.29597e-06 0.0005 5.23599e-07 
2 1 0.021293 0.0233843 0.0156774 0.00412105 0.00368692 -0.0135793 0 0 -5.1365e-06 0.0005 5.23599e-07 
3 1 0.0207554 0.0218985 0.0159214 0.00522145 -0.0445553 0.0275129 -2.15916e-05 0.000237262 0.000107988 0.0005 5.23599e-07 
4 1 0.0244606 0.0203077 0.0157917 0.0121926 0.00311532 0.00515841 0.000375344 -0.000275028 0.000265121 0.0005 5.23599e-07 
5 1 0.0173742 0.0175841 0.0181975 -0.167916 -0.158998 -0.0419204 0 0 -5.1365e-06 0.0005 5.23599e-07 
6 1 0.019193 0.0220988 0.015883 -0.0704572 -0.133758 0.121746 0 0 -5.1365e-06 0.0005 5.23599e-07 
7 1 0.0228422 0.0227262 0.0168094 -0.00863489 -0.00940648 -0.00414524 0 0 -5.1365e-06 0.0005 5.23599e-07 
9 1 0.0148111 0.0141342 0.0160741 -2.8735e-20 -5.63578e-20 3.65542e-20 0 4.23516e-22 0 0.0005 5.23599e-07 
10 1 0.0257275 0.020456 0.0167129 0.0198919 -0.0214165 0.0274495 0 0 -5.1365e-06 0.0005 5.23599e-07 
12 1 0.0204181 0.0241993 0.0139131 0.0106277 -0.0328432 0.027525 0 0 -5.1365e-06 0.0005 5.23599e-07 
13 1 0.0233928 0.0165098 0.0151612 0.0120037 0.0126414 0.00615012 0 0 -5.1365e-06 0.0005 5.23599e-07 
14 1 0.0228475 0.0235311 0.0145177 0.0074398 -0.0521577 -0.062971 -0.00229117 0.00217192 -0.001222 0.0005 5.23599e-07 
17 1 0.0185962 0.0228193 0.0165481 -0.0402402 -0.0474128 0.152873 0 0 -5.1365e-06 0.0005 5.23599e-07 
18 1 0.0138511 0.0221221 0.015785 -0.0297162 -0.0690405 0.0660336 0 0 -5.1365e-06 0.0005 5.23599e-07 
21 1 0.0187468 0.0212289 0.016402 -0.0813725 -0.175304 0.115599 0 0 -5.1365e-06 0.0005 5.23599e-07 
23 1 0.0194121 0.0153214 0.0139268 0.0117683 1.20018e-05 -0.0208915 0 0 -5.1365e-06 0.0005 5.23599e-07 
24 1 0.0220375 0.0149863 0.0148785 -0.0090836 0.0014682 -0.00743673 -5.22545e-08 2.0503e-07 -5.0459e-06 0.0005 5.23599e-07 
25 1 0.0235872 0.0218333 0.0149987 0.0315794 -0.0119551 0.00690386 -0.00094153 -0.000513716 0.000321511 0.0005 5.23599e-07 
26 1 0.0219778 0.02336 0.0164303 0.0153357 0.00297114 -0.0219414 0 0 -5.1365e-06 0.0005 5.23599e-07 
27 1 0.0181873 0.0228456 0.0151779 0.0086086 -0.0616563 0.0731943 0 0 -5.1365e-06 0.0005 5.23599e-07 
29 1 0.0233489 0.0233881 0.0153471 -0.000356466 0.016138 -0.0352035 0.000823671 4.38039e-05 -1.69391e-05 0.0005 5.23599e-07 
31 1 0.0231935 0.0173691 0.0156405 0.0127362 0.0204121 0.00450307 0 0 -5.1365e-06 0.0005 5.23599e-07 
35 1 0.0190105 0.0148718 0.0130128 0.0104524 -0.00218369 -0.00988674 -1.85537e-06 -7.87245e-08 5.73801e-06 0.0005 5.23599e-07 
36 1 0.0199424 0.0145601 0.0126238 0.0312834 -0.00295451 -0.0212458 0 0 -5.1365e-06 0.0005 5.23599e-07 
37 1 0.0186885 0.0234561 0.0143964 -0.04429 -0.0241321 0.0141896 0 0 -5.1365e-06 0.0005 5.23599e-07 
38 1 0.0188034 0.0145271 0.0139282 0.0146542 -0.00494098 -0.0101477 1.81889e-06 -1.62495e-06 1.45165e-06 0.0005 5.23599e-07 
39 1 0.0172083 0.0141268 0.013479 0.00157534 -0.000319721 0.00112916 3.77723e-07 -1.80061e-08 -5.62037e-06 0.0005 5.23599e-07 
40 1 0.0175876 0.0235811 0.0141264 -0.0253587 -0.00375773 0.000261459 0 0 -5.1365e-06 0.0005 5.23599e-07 
42 1 0.0180182 0.0160941 0.0148309 0.00269979 -0.0140225 -0.00575321 -8.95162e-08 -9.83608e-07 -5.41164e-08 0.0005 5.23599e-07 
44 1 0.0178001 0.0219915 0.0148299 0.0187281 -0.0536363 0.0123248 0 0 -5.1365e-06 0.0005 5.23599e-07 
45 1 0.0236278 0.0222039 0.0162638 -0.00373544 -0.0175591 -0.0100953 0 0 -5.1365e-06 0.0005 5.23599e-07 
48 1 0.0166138 0.022731 0.0163426 -0.152718 -0.0495865 0.185657 0 0 -5.1365e-06 0.0005 5.23599e-07 
49 1 0.0243139 0.0161977 0.0149086 0.0201922 0.0170274 0.0113096 0 0 -5.1365e-06 0.0005 5.23599e-07 
52 1 0.016266 0.0232412 0.0154522 0.0025521 0.0188961 0.136522 0 0 -5.1365e-06 0.0005 5.23599e-07 
53 1 0.0238051 0.0193093 0.0159491 0.0465437 -0.018391 0.0225104 0 0 -5.1365e-06 0.0005 5.23599e-07 
54 1 0.0229602 0.0147038 0.0145071 -0.00414971 -0.00400163 -0.000230005 -9.35509e-07 -8.4255e-07 3.29277e-06 0.0005 5.23599e-07 
57 1 0.0208291 0.0140948 0.0132259 -0.00447454 0.000314879 -0.00392856 1.82431e-07 6.85416e-06 1.7533e-06 0.0005 5.23599e-07 
60 1 0.0164764 0.0238093 0.019638 -0.183382 0.0612918 -0.0118804 0 0 -5.1365e-06 0.0005 5.23599e-07 
62 1 0.0163581 0.0237299 0.0138395 0.0187923 0.00327162 -0.0194324 0 0 -5.1365e-06 0.0005 5.23599e-07 
63 1 0.0221117 0.0144296 0.0140511 -0.00432953 0.00146512 -0.00677569 -4.14983e-07 1.32466e-06 -3.19988e-06 0.0005 5.23599e-07 
64 1 0.0203088 0.0152392 0.0151086 0.00025004 -0.00870718 0.0150039 0 0 -5.1365e-06 0.0005 5.23599e-07 
65 1 0.0204692 0.0237382 0.0149177 -0.00773447 0.00571857 0.0441142 0 0 -5.1365e-06 0.0005 5.23599e-07 
66 1 0.0179509 0.0149198 0.0131514 0.0132101 0.00507975 0.00239277 6.41944e-06 -1.36714e-06 3.03629e-06 0.0005 5.23599e-07 
67 1 0.0174387 0.0238796 0.0230573 -0.258662 0.262082 -0.222109 0 0 -5.1365e-06 0.0005 5.23599e-07 
68 1 0.0199366 0.0237523 0.0158403 0.0185372 -0.0122688 0.116836 0 0 -5.1365e-06 0.0005 5.23599e-07 
69 1 0.021207 0.0239355 0.0132198 0.00074169 0.118611 -0.0805522 0.000424725 0.00205613 -0.00137564 0.0005 5.23599e-07 
70 1 0.0247572 0.0188025 0.0159711 0.0185385 -0.0689686 -0.00601698 9.72802e-06 4.56436e-06 -1.2119e-05 0.0005 5.23599e-07 
72 1 0.0174894 0.0233187 0.0127434 -0.00444409 0.00575327 -0.0431165 -2.01592e-05 2.38985e-06 -9.54569e-06 0.0005 5.23599e-07 
74 1 0.0157457 0.0230628 0.013414 0.0116484 -0.000946301 -0.00964349 -2.69838e-06 -5.3438e-07 -1.0473e-07 0.0005 5.23599e-07 
75 1 0.0191882 0.0137778 0.0133516 -0.00955859 0.0105182 -0.00331774 2.00164e-06 7.84199e-06 4.50438e-06 0.0005 5.23599e-07 
76 1 0.0181043 0.0240655 0.0130069 0.000632244 0.00145117 -0.00144825 -5.15984e-06 1.03608e-06 -1.66696e-05 0.0005 5.23599e-07 
77 1 0.0235567 0.0212011 0.0163288 0.0208131 -0.0159868 0.0209855 -0.000180809 2.05701e-05 -0.00015082 0.0005 5.23599e-07 
79 1 0.0229632 0.0183739 0.0159033 0.0149842 -0.0548771 0.00128794 0 0 -5.1365e-06 0.0005 5.23599e-07 
80 1 0.0182524 0.0153593 0.0139974 0.0179031 0.00166725 0.00230538 3.58326e-06 1.2135e-06 -2.21109e-06 0.0005 5.23599e-07 
81 1 0.0181281 0.0138176 0.0137209 0.00332668 0.00128072 -0.00489746 -2.01199e-07 4.03403e-06 -1.43564e-06 0.0005 5.23599e-07 
82 1 0.021631 0.0239236 0.0146647 -0.00380844 -0.127799 0.0579167 0.000158419 0.00730694 -0.0057023 0.0005 5.23599e-07 
84 1 0.0228143 0.0195328 0.0159642 0.0390372 -0.040666 -0.0057554 0 0 -5.1365e-06 0.0005 5.23599e-07 
85 1 0.0182554 0.0175418 0.0236203 -0.280429 -0.130385 -0.115126 0 0 -5.1365e-06 0.0005 5.23599e-07 
86 1 0.0164886 0.0233067 0.0127909 0.011334 0.00395541 -0.00952055 2.34964e-06 -3.79936e-06 -6.48084e-06 0.0005 5.23599e-07 
87 1 0.0188277 0.0235159 0.0156309 -0.00703377 -0.050052 0.0817301 0 0 -5.1365e-06 0.0005 5.23599e-07 
88 1 0.0162928 0.0143394 0.0138205 5.05795e-05 0.000852938 -0.00116641 -3.77723e-07 1.80061e-08 -4.65264e-06 0.0005 5.23599e-07 
89 1 0.0234735 0.0203418 0.0158284 0.0220987 -0.00703064 0.0133618 -0.000103494 0.000325201 -0.000168635 0.0005 5.23599e-07 
90 1 0.0170973 0.0140889 0.0144725 -0.00116 0.00514558 0.00416215 0 0 -5.1365e-06 0.0005 5.23599e-07 
91 1 0.0224941 0.0204809 0.0158709 0.0202286 -0.0232626 0.0111082 -4.75375e-05 -0.000333011 0.000236277 0.0005 5.23599e-07 
92 1 0.0195689 0.0230961 0.014889 -0.0327571 -0.0271178 0.0358442 0 0 -5.1365e-06 0.0005 5.23599e-07 
95 1 0.0242255 0.0212208 0.0154639 -0.00182729 0.00858189 -0.0124494 -2.49457e-05 0.000100512 1.77199e-05 0.0005 5.23599e-07 
96 1 0.0247036 0.0205157 0.016781 0.00584286 -0.0325244 0.0079785 0 0 -5.1365e-06 0.0005 5.23599e-07 
97 1 0.0246249 0.0201124 0.0177093 0.00373318 -0.0226945 0.0189673 0 0 -5.1365e-06 0.0005 5.23599e-07 
98 1 0.024375 0.0181533 0.0167849 0.0221199 -0.103589 -0.0165659 0 0 -5.1365e-06 0.0005 5.23599e-07 
99 1 0.0253891 0.0184192 0.0167036 0.0334737 -0.100722 -0.0319718 0 0 -5.1365e-06 0.0005 5.23599e-07 
100 1 0.0184084 0.0141028 0.0127995 0.00340291 0.00165696 -0.00191177 3.30884e-06 -2.87192e-06 3.51643e-06 0.0005 5.23599e-07 
103 1 0.0239516 0.0182175 0.0158808 0.0159607 -0.0725829 -0.012796 -9.72802e-06 -4.56436e-06 1.84597e-06 0.0005 5.23599e-07 
104 1 0.019793 0.014305 0.0139481 0.0397057 0.0224774 -0.0323463 -2.00164e-06 -7.84199e-06 -1.47774e-05 0.0005 5.23599e-07 
105 1 0.0171707 0.022991 0.01505 -0.0180366 -0.000415399 0.0981237 0 0 -5.1365e-06 0.0005 5.23599e-07 
106 1 0.0226827 0.0225894 0.0148704 0.0649477 -0.0211632 0.0600757 -0.00148285 -0.00108599 -0.000691449 0.0005 5.23599e-07 
108 1 0.0228624 0.0229787 0.0137079 0.0328629 -0.194353 -0.0727466 0.00538411 0.0103497 0.00368471 0.0005 5.23599e-07 
110 1 0.0230543 0.0211741 0.0154807 0.012854 0.0140663 5.6811e-05 0.000459902 0.000236127 0.000336529 0.0005 5.23599e-07 
111 1 0.0217024 0.0223179 0.015929 0.00708662 -0.00794741 -0.0482275 0 0 -5.1365e-06 0.0005 5.23599e-07 
112 1 0.0179494 0.0221245 0.0159384 -0.0272774 -0.0803798 0.0876254 0 0 -5.1365e-06 0.0005 5.23599e-07 
114 1 0.0171657 0.02409 0.0133526 -0.00528408 -0.00835855 -0.0167065 2.77666e-05 -2.1169e-05 2.95176e-05 0.0005 5.23599e-07 
115 1 0.0221957 0.0232077 0.0130469 0.0779586 0.162286 -0.0681944 -0.00267106 0.0165976 -0.011543 0.0005 5.23599e-07 
119 1 0.0214807 0.023373 0.0124396 0.0497183 -0.115798 0.0277493 -0.0155841 -0.0297047 0.00520629 0.0005 5.23599e-07 
122 1 0.02249 0.0215219 0.0163603 0.00279501 0.0382154 -0.0307056 0 0 -5.1365e-06 0.0005 5.23599e-07 
125 1 0.0206081 0.0227637 0.0152618 -0.0121481 -0.0275255 0.0278804 0 0 -5.1365e-06 0.0005 5.23599e-07 
126 1 0.0245414 0.0194609 0.0168109 0.0127291 -0.0592279 0.00217561 0 0 -5.1365e-06 0.0005 5.23599e-07 
128 1 0.0191072 0.0241041 0.012928 -0.000103823 0.00244036 -0.00125459 1.25795e-08 2.1121e-07 -5.73908e-08 0.0005 5.23599e-07 
131 1 0.0239888 0.0226296 0.0154203 0.031985 -0.00163809 0.0164953 -0.000182646 0.000845488 -9.0457e-05 0.0005 5.23599e-07 
132 1 0.0234539 0.0187006 0.0167351 0.00485835 -0.0565735 -0.004527 0 0 -5.1365e-06 0.0005 5.23599e-07 
133 1 0.0154232 0.0234736 0.0148047 0.0258026 0.0329287 0.0506434 0 0 -5.1365e-06 0.0005 5.23599e-07 
135 1 0.020051 0.0228098 0.0163444 -0.0558357 -0.0274011 0.065513 0 0 -5.1365e-06 0.0005 5.23599e-07 
136 1 0.0191545 0.0243139 0.0167959 -0.0855592 0.0393319 0.119793 0 0 -5.1365e-06 0.0005 5.23599e-07 
137 1 0.0212599 0.0139069 0.0141081 -0.0032474 -0.0011517 -0.00285255 -6.59517e-07 9.65598e-06 1.64638e-05 0.0005 5.23599e-07 
140 1 0.024207 0.0170269 0.0154605 0.00866228 0.0200928 0.00925487 0 0 -5.1365e-06 0.0005 5.23599e-07 
142 1 0.0167199 0.0221272 0.0147737 0.0117222 -0.00199568 0.0008951 0 0 -5.1365e-06 0.0005 5.23599e-07 
143 1 0.0221284 0.0237345 0.0138633 -0.00749237 -0.0691933 -0.0367673 -0.00445134 -0.00918817 -0.0109084 0.0005 5.23599e-07 
144 1 0.0165815 0.0211312 0.01543 0.10144 -0.0647293 0.0382963 0 0 -5.1365e-06 0.0005 5.23599e-07 
148 1 0.019468 0.0238151 0.0138699 -0.0704779 0.0191517 -0.00937886 0 0 -5.1365e-06 0.0005 5.23599e-07 
149 1 0.015402 0.0146708 0.0144113 0.0257031 -0.0116907 -0.0155965 0 0 -5.1365e-06 0.0005 5.23599e-07 
152 1 0.0144486 0.0228794 0.0152412 -0.0174364 -0.0383739 0.0642432 0 0 -5.1365e-06 0.0005 5.23599e-07 
154 1 0.0181875 0.0212427 0.015368 0.0127487 -0.0324588 0.0222695 0 0 -5.1365e-06 0.0005 5.23599e-07 
158 1 0.0246367 0.0220249 0.0158916 0.00558627 -0.0046508 0.00347927 -0.000106345 -1.12865e-05 2.69633e-05 0.0005 5.23599e-07 
159 1 0.0227169 0.0223737 0.015849 0.00909182 -0.012312 0.0244287 0 0 -5.1365e-06 0.0005 5.23599e-07 
161 1 0.0201415 0.0241192 0.0129497 -0.00348691 -0.000918179 0.000819978 -4.94804e-05 -1.45829e-05 -4.08912e-05 0.0005 5.23599e-07 
165 1 0.0218432 0.0228121 0.0138669 0.0104128 -0.151148 -0.109118 -0.00377607 8.10024e-05 0.00153869 0.0005 5.23599e-07 
167 1 0.0237642 0.0201363 0.0168852 0.00552605 -0.0489603 0.0268284 0 0 -5.1365e-06 0.0005 5.23599e-07 
168 1 0.0210959 0.0147878 0.0145515 -0.00855344 -7.42674e-05 -0.00335372 1.65992e-06 4.40513e-06 -6.13019e-08 0.0005 5.23599e-07 
169 1 0.0234816 0.0225012 0.0142905 -0.0386727 -0.0494522 0.0625177 0.00326514 0.00251683 0.00253132 0.0005 5.23599e-07 
171 1 0.0233552 0.0217545 0.0173207 0.000984105 -0.038164 -0.00568793 0 0 -5.1365e-06 0.0005 5.23599e-07 
172 1 0.0217744 0.022984 0.0148194 -0.0880647 -0.0971667 0.0961698 0.00607629 0.00773923 0.0144465 0.0005 5.23599e-07 
175 1 0.0183254 0.0243064 0.0139776 -0.000360898 0.00373017 0.00431875 0 0 -5.1365e-06 0.0005 5.23599e-07 
176 1 0.0192098 0.0146256 0.0119331 0.0121362 0.00328299 -0.00722463 0 0 -5.1365e-06 0.0005 5.23599e-07 
177 1 0.0252383 0.0212793 0.0162821 0.0288009 -0.024851 0.0255071 -4.30322e-05 0.000193662 2.64735e-05 0.0005 5.23599e-07 
178 1 0.0243912 0.0215392 0.0167294 0.0148331 -0.0139378 0.0141691 0.000100419 -0.000205499 3.62546e-05 0.0005 5.23599e-07 
182 1 0.0169933 0.0229759 0.0135892 0.0312335 0.0139048 -0.0228271 0 0 -5.1365e-06 0.0005 5.23599e-07 
184 1 0.0159716 0.0225481 0.0142423 0.0194882 0.0153126 -0.0107937 -3.91951e-06 1.54312e-05 -1.17808e-06 0.0005 5.23599e-07 
185 1 0.0246834 0.0182217 0.0177359 0.0961888 -0.0897881 -0.0404989 0 0 -5.1365e-06 0.0005 5.23599e-07 
186 1 0.0258284 0.0193791 0.0168169 -0.00760154 -0.0563253 0.00998194 0 0 -5.1365e-06 0.0005 5.23599e-07 
187 1 0.022368 0.023337 0.0154867 -0.0166571 -0.0269872 -0.0521043 0.00178957 0.00351527 -0.00807784 0.0005 5.23599e-07 
190 1 0.0236348 0.0156715 0.0143851 0.0144045 0.0114627 0.0107337 -3.73128e-06 -9.90023e-06 1.6477e-05 0.0005 5.23599e-07 
