ITEM: TIMESTEP
89600000
ITEM: NUMBER OF ATOMS
88
ITEM: BOX BOUNDS ff ff ff
-0.02 0.43
-0.02 0.06
-0.02 0.07
ITEM: ATOMS id type x y z vx vy vz fx fy fz radius mass 
1 1 0.0387146 0.0187573 0.00575718 -8.66846e-15 7.85696e-14 2.00898e-13 0 0 0 0.0005 1.46608e-07 
2 1 0.0515454 0.0203376 0.00592249 1.05571e-14 2.65338e-14 3.50785e-13 1.95876e-21 -9.03943e-21 -1.48231e-21 0.0005 1.46608e-07 
3 1 0.0657625 0.0198039 0.00576669 -1.37854e-15 3.97309e-14 -1.45084e-13 -5.88125e-21 7.94093e-22 2.11758e-22 0.0005 1.46608e-07 
8 1 0.102543 0.017821 0.00581645 -9.78493e-16 -4.35264e-15 -1.20042e-13 1.04225e-22 -1.98523e-23 0 0.0005 1.46608e-07 
9 1 0.0387828 0.0214812 0.00622724 -2.7398e-19 1.0589e-18 -5.6917e-18 -6.61744e-23 -1.8198e-23 0 0.0005 1.46608e-07 
14 1 0.191105 0.0203026 0.00593314 -1.12292e-14 -4.38018e-14 9.73353e-14 -1.32349e-21 5.29396e-22 2.11758e-22 0.0005 1.46608e-07 
18 1 0.0819644 0.018662 0.00575674 1.34802e-14 4.56298e-14 1.93312e-13 2.67345e-21 -5.29396e-23 -2.11758e-22 0.0005 1.46608e-07 
26 1 0.10448 0.0180949 0.00580371 1.49516e-14 2.23959e-14 -1.76074e-13 7.94093e-23 -1.65436e-20 -3.59989e-21 0.0005 1.46608e-07 
28 1 0.0800401 0.0168845 0.00628905 -1.13565e-15 -7.29083e-15 -3.41145e-14 -1.12497e-22 0 0 0.0005 1.46608e-07 
32 1 0.0458896 0.0168235 0.00626774 -4.52628e-15 -2.52972e-14 -1.74151e-13 4.03664e-21 -1.85288e-22 0 0.0005 1.46608e-07 
34 1 0.0564645 0.0213699 0.00635393 -1.12316e-15 -1.50774e-14 3.20738e-14 2.72083e-19 2.30393e-19 1.20067e-19 0.0005 1.46608e-07 
38 1 0.101399 0.019053 0.0156844 3.5684e-05 0.0225072 0.00133448 -5.66581e-10 2.81598e-09 -1.09117e-08 0.0005 1.46608e-07 
46 1 0.136461 0.0187737 0.0058834 2.02472e-15 3.12786e-15 -2.90521e-14 4.65868e-21 -1.6676e-21 0 0.0005 1.46608e-07 
48 1 0.0822817 0.0172512 0.00607537 6.662e-16 3.61518e-14 1.18632e-13 -3.66358e-21 5.29396e-23 2.11758e-22 0.0005 1.46608e-07 
54 1 0.0652975 0.0207687 0.00603532 -1.12594e-15 3.25654e-14 -1.18914e-13 4.69508e-21 -5.29396e-23 0 0.0005 1.46608e-07 
56 1 0.0870153 0.0206158 0.00591409 3.22108e-15 5.89872e-15 -3.89487e-14 0 0 0 0.0005 1.46608e-07 
59 1 0.0792518 0.0191834 0.00582281 6.34923e-15 2.15016e-14 9.10984e-14 1.10644e-20 -2.31875e-20 5.0822e-21 0.0005 1.46608e-07 
64 1 0.0170063 0.0201419 0.00601043 1.306e-14 5.24646e-15 -1.07333e-13 9.48677e-20 -5.25425e-20 8.47033e-21 0.0005 1.46608e-07 
65 1 0.0643606 0.0210989 0.00615793 9.85084e-15 -6.28945e-14 2.05619e-13 -6.2204e-22 0 2.11758e-22 0.0005 1.46608e-07 
66 1 0.0448733 0.0164686 0.00634571 -2.66165e-17 -1.41553e-16 -9.78829e-16 5.29396e-23 1.05879e-22 2.11758e-22 0.0005 1.46608e-07 
68 1 0.0803045 0.0192159 0.005743 -9.52825e-15 -2.67153e-14 1.14756e-13 -3.97047e-23 0 0 0.0005 1.46608e-07 
70 1 0.0811915 0.017199 0.00615598 4.51285e-15 1.52767e-14 6.47201e-14 7.54389e-22 -5.29396e-23 0 0.0005 1.46608e-07 
74 1 0.0615774 0.0172559 0.00608456 -7.35704e-16 -3.25344e-15 -2.32818e-14 0 0 0 0.0005 1.46608e-07 
82 1 0.063441 0.0163701 0.00647495 5.21797e-16 7.48207e-15 9.5806e-15 5.9557e-23 1.05879e-22 0 0.0005 1.46608e-07 
83 1 0.0855075 0.019144 0.00579031 -2.80434e-15 1.60117e-14 -2.15085e-13 4.76456e-22 6.61744e-23 0 0.0005 1.46608e-07 
86 1 0.0829173 0.0222111 0.0066532 2.52974e-15 -1.23228e-14 5.62313e-14 -3.45431e-20 2.64698e-22 1.90582e-21 0.0005 1.46608e-07 
88 1 0.0357086 0.0161117 0.00660683 -4.48671e-15 2.81983e-14 7.49129e-14 -2.72639e-20 1.08526e-20 -6.35275e-21 0.0005 1.46608e-07 
89 1 0.0618809 0.0199413 0.00582959 -3.27147e-16 -4.53143e-15 1.25525e-14 -6.61744e-24 -5.29396e-23 -2.11758e-22 0.0005 1.46608e-07 
90 1 0.0845463 0.0178241 0.00589851 -1.71457e-15 5.08498e-14 1.75601e-13 -2.29294e-21 -1.58819e-22 -2.11758e-22 0.0005 1.46608e-07 
93 1 0.11021 0.0201465 0.00580174 8.91933e-16 6.44512e-15 -3.3356e-14 5.10867e-21 3.33519e-21 6.35275e-22 0.0005 1.46608e-07 
100 1 0.0830136 0.0187071 0.00584947 -9.52938e-15 -2.67155e-14 1.14756e-13 0 0 0 0.0005 1.46608e-07 
106 1 0.0439552 0.0161318 0.00656318 1.95621e-16 -2.75147e-15 -2.89952e-15 4.76456e-22 0 0 0.0005 1.46608e-07 
107 1 0.0782305 0.0203396 0.00602091 2.81538e-15 7.785e-15 -1.4569e-14 2.64698e-23 -5.29396e-23 0 0.0005 1.46608e-07 
108 1 0.0822914 0.0196163 0.00600118 7.16623e-15 2.00956e-14 -8.6317e-14 3.25578e-21 -1.05879e-22 4.23516e-22 0.0005 1.46608e-07 
109 1 0.0732237 0.018766 0.005768 1.04199e-14 -5.92097e-14 -1.6338e-13 -1.29437e-20 2.1864e-20 -8.68209e-21 0.0005 1.46608e-07 
112 1 0.0644815 0.0190744 0.00573853 7.97976e-16 -3.78212e-15 -6.44673e-14 0 0 0 0.0005 1.46608e-07 
113 1 0.0683453 0.0182317 0.00578271 7.82593e-18 1.40389e-17 5.06786e-16 2.64698e-23 -2.64698e-23 0 0.0005 1.46608e-07 
121 1 0.0609817 0.0187588 0.00589337 -4.3469e-15 -1.94159e-14 -1.3904e-13 7.63653e-21 -7.67624e-22 0 0.0005 1.46608e-07 
124 1 0.0609012 0.0197493 0.00575757 -5.19423e-15 -2.31833e-14 -1.66017e-13 0 0 0 0.0005 1.46608e-07 
125 1 0.0634974 0.0172463 0.00599641 6.53445e-16 1.61479e-15 1.27519e-14 4.63221e-23 0 -4.23516e-22 0.0005 1.46608e-07 
126 1 0.0286258 0.0183498 0.00592583 -1.94458e-14 1.85348e-16 -2.28119e-13 -1.05879e-22 -1.54186e-20 0 0.0005 1.46608e-07 
127 1 0.0888729 0.0199317 0.00596406 -1.21359e-15 -2.23074e-15 1.47218e-14 1.43731e-20 -1.1382e-21 1.05879e-21 0.0005 1.46608e-07 
129 1 0.0601285 0.017977 0.00598674 -1.08938e-14 2.2616e-14 2.78395e-13 8.00711e-21 9.77397e-20 -7.41154e-21 0.0005 1.46608e-07 
132 1 0.0626638 0.0179373 0.00595165 -7.364e-15 -1.81926e-14 -1.43647e-13 5.29396e-23 2.64698e-23 0 0.0005 1.46608e-07 
134 1 0.0644862 0.0176438 0.00589539 -5.97998e-15 -1.47719e-14 -1.16641e-13 -6.61744e-23 5.29396e-23 0 0.0005 1.46608e-07 
137 1 0.0238948 0.0168123 0.00667048 -1.55891e-14 -3.19677e-14 -1.04791e-13 -8.60268e-21 3.54695e-21 2.11758e-22 0.0005 1.46608e-07 
142 1 0.042543 0.0198089 0.00582143 -7.00229e-17 5.99009e-16 -1.89569e-15 2.64698e-23 -5.29396e-23 0 0.0005 1.46608e-07 
146 1 0.0388539 0.0197419 0.00587248 -2.83257e-15 1.34605e-14 -6.65669e-14 2.11758e-22 0 0 0.0005 1.46608e-07 
149 1 0.0766607 0.0190533 0.00580856 -9.25816e-15 5.50584e-14 2.11123e-13 4.03863e-20 -2.70204e-19 7.41154e-20 0.0005 1.46608e-07 
159 1 0.0779381 0.019417 0.00576935 7.62803e-16 -4.6007e-15 -1.76583e-14 -5.29396e-23 0 0 0.0005 1.46608e-07 
160 1 0.0620021 0.0189487 0.00583492 3.91012e-16 1.75515e-15 1.25357e-14 -2.64698e-23 0 0 0.0005 1.46608e-07 
163 1 0.0424897 0.0188104 0.00581963 1.19016e-16 -3.45868e-16 -1.89425e-15 -5.9557e-23 0 0 0.0005 1.46608e-07 
165 1 0.0920805 0.0205253 0.0059177 -7.84784e-15 -7.28946e-14 1.85342e-13 -1.32349e-23 0 0 0.0005 1.46608e-07 
174 1 0.0861863 0.0174976 0.00842036 7.12509e-06 -0.00192065 0.00137542 -1.18158e-09 -2.10436e-08 -1.16916e-09 0.0005 1.46608e-07 
182 1 0.0557406 0.0175302 0.00596599 -5.51418e-15 -7.75118e-15 -1.08969e-13 -1.63146e-19 1.79558e-19 -4.44692e-21 0.0005 1.46608e-07 
187 1 0.102423 0.0196788 0.00582979 1.5148e-15 2.27516e-15 -1.78435e-14 2.52786e-20 -1.79465e-20 -2.11758e-22 0.0005 1.46608e-07 
189 1 0.0453636 0.0157749 0.00687326 2.77778e-17 -5.64697e-16 -6.89825e-16 0 -5.29396e-23 -2.11758e-22 0.0005 1.46608e-07 
193 1 0.377411 0.0175525 0.00839571 2.10004e-05 -0.00112727 0.000622396 2.99003e-10 -1.9652e-08 -3.55157e-09 0.0005 1.46608e-07 
195 1 0.0505919 0.0207133 0.00592302 6.74627e-15 1.8938e-14 2.6288e-13 -4.30134e-22 -5.16161e-22 2.11758e-22 0.0005 1.46608e-07 
198 1 0.0643736 0.0166453 0.00623285 -9.28334e-16 8.92625e-14 2.24983e-13 2.97785e-23 1.05879e-22 0 0.0005 1.46608e-07 
201 1 0.0440263 0.0170728 0.00623272 2.29681e-16 -6.63938e-16 -3.64325e-15 1.19114e-22 -1.05879e-22 0 0.0005 1.46608e-07 
209 1 0.0799751 0.0180833 0.00603206 1.34774e-14 4.56291e-14 1.93312e-13 -7.45124e-21 1.69407e-21 0 0.0005 1.46608e-07 
213 1 0.0810479 0.0182624 0.00591498 1.06402e-15 3.60242e-15 1.52616e-14 -4.63221e-22 -1.58819e-22 0 0.0005 1.46608e-07 
215 1 0.0824664 0.0205903 0.00624245 -1.04306e-15 -2.92632e-15 1.25719e-14 -6.08805e-22 -4.76456e-22 -2.11758e-22 0.0005 1.46608e-07 
221 1 0.0595038 0.0223955 0.00675756 1.20225e-16 -1.68773e-15 4.05504e-15 6.32562e-20 -4.76456e-21 -3.59989e-21 0.0005 1.46608e-07 
223 1 0.063626 0.0183177 0.00585415 -7.35964e-15 -1.81946e-14 -1.43647e-13 -2.09111e-21 8.73503e-22 0 0.0005 1.46608e-07 
226 1 0.0316007 0.0183082 0.00603438 1.31529e-14 -4.4717e-14 -1.10013e-13 4.31457e-21 -2.96462e-21 1.69407e-21 0.0005 1.46608e-07 
227 1 0.0584979 0.0201946 0.00586451 3.22796e-16 4.88498e-15 -1.04401e-14 7.41154e-22 0 0 0.0005 1.46608e-07 
229 1 0.0215463 0.0196109 0.00592744 -1.81494e-14 8.1435e-15 -1.66091e-13 0 0 0 0.0005 1.46608e-07 
240 1 0.0690612 0.017564 0.00598647 -1.68189e-17 1.76947e-16 4.66257e-16 -2.64698e-23 0 0 0.0005 1.46608e-07 
242 1 0.0636055 0.0197465 0.00578044 6.28602e-15 -4.01366e-14 1.31216e-13 -9.79382e-22 5.29396e-23 0 0.0005 1.46608e-07 
245 1 0.0975908 0.0180497 0.00610625 8.69852e-16 3.429e-14 1.03653e-13 0 0 0 0.0005 1.46608e-07 
246 1 0.0242602 0.0201274 0.00583803 -1.07556e-14 -1.73446e-15 1.75368e-13 0 -8.79624e-21 -2.11758e-22 0.0005 1.46608e-07 
256 1 0.0869377 0.0214054 0.0079631 0.0014319 -0.0149835 -0.00871439 -6.15615e-09 -2.11588e-08 -4.28564e-10 0.0005 1.46608e-07 
257 1 0.0567438 0.01754 0.00591345 -9.8464e-15 -1.33726e-14 -1.90504e-13 1.04423e-20 4.8175e-21 -6.35275e-22 0.0005 1.46608e-07 
258 1 0.061759 0.0163729 0.00651709 1.13685e-15 -1.29772e-14 -1.85173e-14 -5.29396e-23 5.29396e-23 2.64698e-22 0.0005 1.46608e-07 
270 1 0.0504712 0.0179279 0.00611076 -3.69989e-15 -1.32327e-14 -1.98725e-13 8.63577e-22 0 0 0.0005 1.46608e-07 
273 1 0.0371638 0.0187263 0.00573865 3.79207e-15 -1.81838e-14 8.99498e-14 -1.11702e-20 -1.23879e-20 -2.11758e-21 0.0005 1.46608e-07 
274 1 0.0328558 0.0191954 0.00572294 8.84871e-16 5.06752e-15 -1.96344e-14 8.27181e-21 0 2.11758e-22 0.0005 1.46608e-07 
277 1 0.044465 0.0204317 0.00594645 -3.22498e-15 2.52848e-14 -8.03115e-14 2.36547e-19 3.21873e-20 1.27055e-21 0.0005 1.46608e-07 
279 1 0.0625324 0.0169121 0.00611939 -3.87208e-16 3.70501e-14 9.33832e-14 -3.29631e-21 0 -2.11758e-22 0.0005 1.46608e-07 
280 1 0.066033 0.0188309 0.00577203 2.18559e-15 -1.03755e-14 -1.76838e-13 2.67444e-20 1.79995e-21 2.11758e-22 0.0005 1.46608e-07 
281 1 0.0833983 0.0210192 0.00634375 2.36838e-14 -4.02521e-14 1.90901e-13 1.52731e-20 -2.11758e-22 -2.75286e-21 0.0005 1.46608e-07 
283 1 0.0634617 0.0174486 0.00844678 -4.45694e-05 -0.00103643 4.47631e-05 -9.59288e-11 4.3981e-08 -3.85965e-08 0.0005 1.46608e-07 
291 1 0.0350698 0.0188001 0.00572051 -7.09743e-15 -4.06792e-14 1.57631e-13 -1.5948e-20 -1.64113e-21 -1.05879e-21 0.0005 1.46608e-07 
293 1 0.0623373 0.0157218 0.00700852 1.10309e-15 -1.29941e-14 -1.85129e-14 0 -2.11758e-22 -2.11758e-22 0.0005 1.46608e-07 
296 1 0.0667607 0.0199247 0.00579031 -4.10198e-16 1.19617e-14 -4.36764e-14 1.35724e-20 6.88214e-22 2.11758e-22 0.0005 1.46608e-07 
298 1 0.0801544 0.0202323 0.00596714 -1.80161e-14 -5.05044e-14 2.16941e-13 2.2764e-21 -2.64698e-21 -6.35275e-22 0.0005 1.46608e-07 
