ITEM: TIMESTEP
81600000
ITEM: NUMBER OF ATOMS
88
ITEM: BOX BOUNDS ff ff ff
-0.02 0.43
-0.02 0.06
-0.02 0.07
ITEM: ATOMS id type x y z vx vy vz fx fy fz radius mass 
1 1 0.0387146 0.0187573 0.00575718 -8.66847e-15 7.85637e-14 2.009e-13 0 0 0 0.0005 1.46608e-07 
2 1 0.0515454 0.0203376 0.00592249 1.0621e-14 2.65596e-14 3.50781e-13 -1.38106e-20 9.41001e-21 2.11758e-22 0.0005 1.46608e-07 
3 1 0.0657625 0.0198039 0.00576669 -1.32107e-15 3.97328e-14 -1.45084e-13 1.26228e-21 0 0 0.0005 1.46608e-07 
8 1 0.102543 0.017821 0.00581645 -9.785e-16 -4.35256e-15 -1.20042e-13 4.63221e-23 6.61744e-24 0 0.0005 1.46608e-07 
9 1 0.0387828 0.0214812 0.00622724 -2.71805e-19 1.05768e-18 -5.7047e-18 2.48154e-24 -1.32349e-23 0 0.0005 1.46608e-07 
14 1 0.191105 0.0203026 0.00593314 -1.12282e-14 -4.38017e-14 9.73355e-14 -1.05879e-22 0 0 0.0005 1.46608e-07 
18 1 0.0819644 0.018662 0.00575674 1.34863e-14 4.56282e-14 1.93312e-13 8.12622e-21 -5.29396e-22 -4.23516e-22 0.0005 1.46608e-07 
26 1 0.10448 0.0180949 0.00580371 1.49888e-14 2.23655e-14 -1.76075e-13 2.8058e-21 3.07049e-21 6.35275e-22 0.0005 1.46608e-07 
28 1 0.0800401 0.0168845 0.00628905 -1.13553e-15 -7.29179e-15 -3.41143e-14 -4.63221e-23 0 0 0.0005 1.46608e-07 
32 1 0.0458896 0.0168235 0.00626774 -4.52729e-15 -2.52972e-14 -1.74151e-13 1.07798e-20 -6.08805e-22 -2.11758e-22 0.0005 1.46608e-07 
34 1 0.0564645 0.0213699 0.00635393 -8.53962e-16 -1.50169e-14 3.21097e-14 4.03002e-20 -8.57621e-21 -2.75286e-21 0.0005 1.46608e-07 
38 1 0.0940855 0.0163547 0.0081852 0.000173283 -0.0174443 0.0135238 -2.87372e-09 1.02264e-09 1.15319e-08 0.0005 1.46608e-07 
46 1 0.136461 0.0187737 0.0058834 2.01579e-15 3.14274e-15 -2.9051e-14 -1.04556e-20 1.85288e-22 -4.23516e-22 0.0005 1.46608e-07 
48 1 0.0822817 0.0172512 0.00607537 6.63456e-16 3.6152e-14 1.18632e-13 -1.90748e-21 0 0 0.0005 1.46608e-07 
54 1 0.0652975 0.0207687 0.00603532 -1.12848e-15 3.25657e-14 -1.18914e-13 -1.48231e-21 -5.29396e-23 0 0.0005 1.46608e-07 
56 1 0.0870153 0.0206158 0.00591409 3.22058e-15 5.90039e-15 -3.89485e-14 0 0 0 0.0005 1.46608e-07 
59 1 0.0792518 0.0191834 0.00582281 6.34862e-15 2.1503e-14 9.10981e-14 3.09432e-20 -8.99973e-22 -2.11758e-22 0.0005 1.46608e-07 
64 1 0.0170063 0.0201419 0.00601043 1.30467e-14 5.24947e-15 -1.07335e-13 5.6963e-20 -1.77348e-20 5.92923e-21 0.0005 1.46608e-07 
65 1 0.0643606 0.0210989 0.00615793 9.85083e-15 -6.28954e-14 2.05619e-13 -2.11758e-22 -1.05879e-22 -2.11758e-22 0.0005 1.46608e-07 
66 1 0.0448733 0.0164686 0.00634571 -2.63056e-17 -1.4143e-16 -9.78913e-16 -6.88214e-22 -1.58819e-22 0 0.0005 1.46608e-07 
68 1 0.0803045 0.0192159 0.005743 -9.52812e-15 -2.67153e-14 1.14756e-13 1.32349e-22 0 0 0.0005 1.46608e-07 
70 1 0.0811915 0.017199 0.00615598 4.51275e-15 1.52769e-14 6.47201e-14 8.73503e-22 -1.05879e-22 0 0.0005 1.46608e-07 
74 1 0.0615774 0.0172559 0.00608456 -8.05345e-16 -3.56316e-15 -2.54998e-14 5.29396e-22 0 0 0.0005 1.46608e-07 
82 1 0.063441 0.0163701 0.00647495 5.28164e-16 7.57407e-15 9.69836e-15 -4.63221e-23 0 0 0.0005 1.46608e-07 
83 1 0.0855075 0.019144 0.00579031 -2.80428e-15 1.60116e-14 -2.15085e-13 -3.90429e-22 2.64698e-23 0 0.0005 1.46608e-07 
86 1 0.0829173 0.0222111 0.0066532 2.51733e-15 -1.23246e-14 5.62315e-14 -5.71747e-21 6.35275e-22 2.11758e-22 0.0005 1.46608e-07 
88 1 0.0357086 0.0161117 0.00660683 -4.6514e-15 2.81717e-14 7.4913e-14 -9.45103e-20 4.12399e-20 -2.20229e-20 0.0005 1.46608e-07 
89 1 0.0618809 0.0199413 0.00582959 -4.18444e-16 -5.79503e-15 1.60532e-14 -6.61744e-24 -2.64698e-23 0 0.0005 1.46608e-07 
90 1 0.0845463 0.0178241 0.00589851 -1.70794e-15 5.08488e-14 1.75601e-13 -2.1998e-20 -2.64698e-22 0 0.0005 1.46608e-07 
93 1 0.0949727 0.0202617 0.00739081 0.00141888 -0.0212299 -0.00669443 -2.06985e-08 1.87671e-08 -5.68959e-09 0.0005 1.46608e-07 
100 1 0.0830136 0.0187071 0.00584947 -9.52938e-15 -2.67155e-14 1.14756e-13 0 0 0 0.0005 1.46608e-07 
106 1 0.0439552 0.0161318 0.00656318 1.95636e-16 -2.75145e-15 -2.89952e-15 4.63221e-22 0 0 0.0005 1.46608e-07 
107 1 0.0782305 0.0203396 0.00602091 3.56739e-15 9.86259e-15 -1.84565e-14 1.05879e-22 0 0 0.0005 1.46608e-07 
108 1 0.0822914 0.0196163 0.00600118 7.16704e-15 2.00954e-14 -8.63168e-14 -8.99973e-22 0 0 0.0005 1.46608e-07 
109 1 0.0732237 0.018766 0.005768 1.03547e-14 -5.91719e-14 -1.63398e-13 1.4033e-19 -2.19699e-20 1.82112e-20 0.0005 1.46608e-07 
112 1 0.0644815 0.0190744 0.00573853 7.97976e-16 -3.78212e-15 -6.44673e-14 0 0 0 0.0005 1.46608e-07 
113 1 0.0683453 0.0182317 0.00578271 7.82575e-18 1.40392e-17 5.06786e-16 -2.64698e-23 2.64698e-23 0 0.0005 1.46608e-07 
121 1 0.0609817 0.0187588 0.00589337 -4.35004e-15 -1.94156e-14 -1.3904e-13 -1.23746e-21 3.97047e-22 -2.11758e-22 0.0005 1.46608e-07 
124 1 0.0609012 0.0197493 0.00575757 -5.19423e-15 -2.31833e-14 -1.66017e-13 0 0 0 0.0005 1.46608e-07 
125 1 0.0634974 0.0172463 0.00599641 6.61475e-16 1.63472e-15 1.29086e-14 9.92617e-24 0 0 0.0005 1.46608e-07 
126 1 0.0286258 0.0183498 0.00592583 -1.9446e-14 1.81738e-16 -2.28119e-13 -2.64698e-23 1.96228e-21 2.11758e-22 0.0005 1.46608e-07 
127 1 0.0888729 0.0199317 0.00596406 -1.21479e-15 -2.23268e-15 1.47214e-14 -8.51003e-21 6.61744e-21 2.11758e-22 0.0005 1.46608e-07 
129 1 0.0601285 0.017977 0.00598674 -1.09066e-14 2.24615e-14 2.78407e-13 -6.37988e-20 -2.08913e-19 1.29173e-20 0.0005 1.46608e-07 
132 1 0.0626638 0.0179373 0.00595165 -7.36526e-15 -1.8192e-14 -1.43647e-13 -2.44845e-21 8.73503e-22 0 0.0005 1.46608e-07 
134 1 0.0644862 0.0176438 0.00589539 -5.98016e-15 -1.47719e-14 -1.16641e-13 3.97047e-23 -2.64698e-23 0 0.0005 1.46608e-07 
137 1 0.0238948 0.0168123 0.00667048 -1.55883e-14 -3.19709e-14 -1.0479e-13 -6.85567e-21 -5.50571e-21 2.75286e-21 0.0005 1.46608e-07 
142 1 0.042543 0.0198089 0.00582143 -1.11378e-16 9.48807e-16 -3.00572e-15 -1.91906e-22 0 0 0.0005 1.46608e-07 
146 1 0.0388539 0.0197419 0.00587248 -2.83257e-15 1.34605e-14 -6.65669e-14 -1.25731e-22 0 0 0.0005 1.46608e-07 
149 1 0.0766607 0.0190533 0.00580856 -9.21022e-15 5.49354e-14 2.11157e-13 -4.14583e-20 -5.24102e-21 -2.32934e-21 0.0005 1.46608e-07 
159 1 0.0779381 0.019417 0.00576935 9.66123e-16 -5.8285e-15 -2.23704e-14 -5.29396e-23 0 2.11758e-22 0.0005 1.46608e-07 
160 1 0.0620021 0.0189487 0.00583492 5.00148e-16 2.24463e-15 1.6032e-14 1.32349e-23 0 -2.11758e-22 0.0005 1.46608e-07 
163 1 0.0424897 0.0188104 0.00581963 1.88667e-16 -5.48419e-16 -3.00441e-15 4.56604e-22 5.29396e-23 2.11758e-22 0.0005 1.46608e-07 
165 1 0.0920805 0.0205253 0.0059177 -7.84781e-15 -7.28946e-14 1.85342e-13 6.61744e-24 0 0 0.0005 1.46608e-07 
174 1 0.0803662 0.0174808 0.00842629 3.34063e-05 0.000678506 -0.00137594 5.82229e-11 5.35014e-08 -4.8625e-08 0.0005 1.46608e-07 
182 1 0.0557406 0.0175302 0.00596599 -5.64773e-15 -7.68928e-15 -1.08966e-13 1.78314e-19 -4.29605e-20 -6.56451e-21 0.0005 1.46608e-07 
187 1 0.102423 0.0196788 0.00582979 1.53188e-15 2.26278e-15 -1.78436e-14 -5.03191e-20 9.66147e-21 -2.96462e-21 0.0005 1.46608e-07 
189 1 0.0453636 0.0157749 0.00687326 2.73698e-17 -5.64899e-16 -6.89675e-16 1.05879e-22 2.64698e-22 0 0.0005 1.46608e-07 
193 1 0.377394 0.0175238 0.00840761 -3.74926e-05 -0.00416318 0.00158981 -3.83068e-11 2.57742e-08 -2.158e-08 0.0005 1.46608e-07 
195 1 0.0505919 0.0207133 0.00592302 6.74637e-15 1.8938e-14 2.6288e-13 1.19114e-22 -5.55865e-22 0 0.0005 1.46608e-07 
198 1 0.0643736 0.0166453 0.00623285 -9.28343e-16 8.92625e-14 2.24983e-13 -3.06057e-23 -2.11758e-22 -2.11758e-22 0.0005 1.46608e-07 
201 1 0.0440263 0.0170728 0.00623272 2.29633e-16 -6.63939e-16 -3.64325e-15 1.72054e-22 -1.05879e-22 0 0.0005 1.46608e-07 
209 1 0.0799751 0.0180833 0.00603206 1.34752e-14 4.56307e-14 1.93312e-13 2.40875e-21 1.48231e-21 -4.23516e-22 0.0005 1.46608e-07 
213 1 0.0810479 0.0182624 0.00591498 1.06426e-15 3.60225e-15 1.52617e-14 3.57342e-22 -1.05879e-22 2.11758e-22 0.0005 1.46608e-07 
215 1 0.0824664 0.0205903 0.00624245 -1.05152e-15 -2.92483e-15 1.25715e-14 7.31889e-21 -3.28225e-21 0 0.0005 1.46608e-07 
221 1 0.0595038 0.0223955 0.00675756 9.56448e-17 -1.684e-15 4.05739e-15 6.37922e-20 -2.85874e-21 -3.38813e-21 0.0005 1.46608e-07 
223 1 0.063626 0.0183177 0.00585415 -7.36202e-15 -1.81923e-14 -1.43647e-13 9.01296e-21 -3.97047e-22 -4.23516e-22 0.0005 1.46608e-07 
226 1 0.0316007 0.0183082 0.00603438 1.31705e-14 -4.47228e-14 -1.10009e-13 1.24408e-20 1.90582e-20 -6.35275e-21 0.0005 1.46608e-07 
227 1 0.0584979 0.0201946 0.00586451 3.22867e-16 4.87945e-15 -1.04428e-14 1.32349e-23 1.05879e-22 0 0.0005 1.46608e-07 
229 1 0.0215463 0.0196109 0.00592744 -1.81494e-14 8.1435e-15 -1.66091e-13 0 0 0 0.0005 1.46608e-07 
240 1 0.0690612 0.017564 0.00598647 -1.68187e-17 1.76948e-16 4.66257e-16 2.64698e-23 -2.64698e-23 0 0.0005 1.46608e-07 
242 1 0.0636055 0.0197465 0.00578044 6.28678e-15 -4.0137e-14 1.31216e-13 2.83227e-21 5.29396e-23 -2.11758e-22 0.0005 1.46608e-07 
245 1 0.0962476 0.02339 0.011577 0.00113256 0.000445205 -0.0113594 4.46642e-10 4.57925e-09 -1.52991e-08 0.0005 1.46608e-07 
246 1 0.0242602 0.0201274 0.00583803 -1.07557e-14 -1.72601e-15 1.75368e-13 4.89691e-22 -1.65436e-24 2.11758e-22 0.0005 1.46608e-07 
256 1 0.0776965 0.0228531 0.00957613 0.000162995 -0.00884075 -0.0201246 4.59165e-10 -1.22108e-08 2.41451e-09 0.0005 1.46608e-07 
257 1 0.0567438 0.01754 0.00591345 -9.83968e-15 -1.33728e-14 -1.90505e-13 5.30719e-21 -2.02494e-21 -2.11758e-22 0.0005 1.46608e-07 
258 1 0.061759 0.0163729 0.00651709 1.24413e-15 -1.42137e-14 -2.02814e-14 -1.05879e-22 0 -5.29396e-23 0.0005 1.46608e-07 
270 1 0.0504712 0.0179279 0.00611076 -3.69924e-15 -1.32326e-14 -1.98725e-13 2.94476e-21 -2.64698e-22 0 0.0005 1.46608e-07 
273 1 0.0371638 0.0187263 0.00573865 3.81105e-15 -1.81901e-14 8.99478e-14 -6.76965e-21 -8.62915e-21 -1.05879e-21 0.0005 1.46608e-07 
274 1 0.0328558 0.0191954 0.00572294 8.87662e-16 5.06752e-15 -1.96342e-14 1.27584e-20 0 6.35275e-22 0.0005 1.46608e-07 
277 1 0.044465 0.0204317 0.00594645 -2.95409e-15 2.53157e-14 -8.03118e-14 -4.34601e-19 -5.05573e-20 -2.11758e-22 0.0005 1.46608e-07 
279 1 0.0625324 0.0169121 0.00611939 -3.91082e-16 3.705e-14 9.33833e-14 -1.12224e-20 -8.47033e-22 2.11758e-22 0.0005 1.46608e-07 
280 1 0.066033 0.0188309 0.00577203 2.16144e-15 -1.03787e-14 -1.76838e-13 -1.82079e-20 -5.81012e-21 0 0.0005 1.46608e-07 
281 1 0.0833983 0.0210192 0.00634375 2.36839e-14 -4.02522e-14 1.90901e-13 -9.8997e-21 -5.50571e-21 -4.23516e-22 0.0005 1.46608e-07 
283 1 0.0634598 0.0175072 0.0084008 -2.71144e-06 0.00338132 0.000273506 0 0 -1.43822e-06 0.0005 1.46608e-07 
291 1 0.0350698 0.0188001 0.00572051 -7.11027e-15 -4.06776e-14 1.57631e-13 7.4036e-20 -1.99582e-20 -1.90582e-21 0.0005 1.46608e-07 
293 1 0.0623373 0.0157218 0.00700852 1.20813e-15 -1.42314e-14 -2.02759e-14 -7.94093e-22 -4.23516e-22 2.11758e-22 0.0005 1.46608e-07 
296 1 0.0667607 0.0199247 0.00579031 -4.03957e-16 1.19619e-14 -4.36764e-14 1.56238e-20 2.64698e-22 -2.11758e-22 0.0005 1.46608e-07 
298 1 0.0801544 0.0202323 0.00596714 -1.80127e-14 -5.05046e-14 2.16941e-13 1.82641e-21 5.29396e-23 2.11758e-22 0.0005 1.46608e-07 
