ITEM: TIMESTEP
63800000
ITEM: NUMBER OF ATOMS
88
ITEM: BOX BOUNDS ff ff ff
-0.02 0.43
-0.02 0.06
-0.02 0.07
ITEM: ATOMS id type x y z vx vy vz fx fy fz radius mass 
1 1 0.0387146 0.0187573 0.00575718 -8.68244e-15 7.85655e-14 2.00899e-13 6.61744e-24 -5.29396e-22 2.11758e-22 0.0005 1.46608e-07 
2 1 0.0515454 0.0203376 0.00592249 1.05179e-14 2.65601e-14 3.50784e-13 -5.99143e-20 4.19281e-20 -2.32934e-21 0.0005 1.46608e-07 
3 1 0.0657625 0.0198039 0.00576669 -1.32113e-15 3.97313e-14 -1.45084e-13 -2.91168e-22 8.47033e-22 2.11758e-22 0.0005 1.46608e-07 
8 1 0.102543 0.017821 0.00581645 -9.78446e-16 -4.35263e-15 -1.20042e-13 -7.11375e-23 -1.32349e-23 0 0.0005 1.46608e-07 
9 1 0.0387828 0.0214812 0.00622724 -2.73309e-19 1.04591e-18 -5.70615e-18 4.63221e-23 -6.45201e-23 0 0.0005 1.46608e-07 
14 1 0.191105 0.0203026 0.00593314 -1.12287e-14 -4.38006e-14 9.73359e-14 -1.03232e-21 1.05879e-22 -2.11758e-22 0.0005 1.46608e-07 
18 1 0.0818976 0.0186296 0.00576906 6.35209e-15 2.15025e-14 9.10979e-14 -9.26442e-23 5.29396e-23 0 0.0005 1.46608e-07 
26 1 0.10448 0.0180949 0.00580371 1.50702e-14 2.2274e-14 -1.7608e-13 -8.63444e-20 1.26526e-20 -6.14099e-21 0.0005 1.46608e-07 
28 1 0.0719963 0.0174662 0.00750902 0.000617658 -0.0184548 0.00546488 -3.245e-09 -3.18526e-08 3.76372e-08 0.0005 1.46608e-07 
32 1 0.0458896 0.0168235 0.00626774 -4.52749e-15 -2.52971e-14 -1.74151e-13 -2.60066e-21 -7.94093e-23 0 0.0005 1.46608e-07 
34 1 0.0564645 0.0213699 0.00635393 -4.87056e-16 -1.48913e-14 3.21794e-14 -1.54517e-20 2.91168e-20 1.88465e-20 0.0005 1.46608e-07 
38 1 0.0768084 0.0148089 0.0117593 6.98368e-05 0.000597115 0.0218739 -6.79726e-10 1.11064e-08 3.91343e-09 0.0005 1.46608e-07 
46 1 0.136461 0.0187737 0.0058834 2.00339e-15 3.14965e-15 -2.90512e-14 7.43801e-21 -5.82335e-22 -2.11758e-22 0.0005 1.46608e-07 
48 1 0.0819829 0.0176499 0.00599436 1.00305e-14 3.39565e-14 1.43854e-13 1.32349e-23 0 0 0.0005 1.46608e-07 
54 1 0.0652975 0.0207687 0.00603532 -1.12843e-15 3.2565e-14 -1.18914e-13 4.7811e-22 5.29396e-23 0 0.0005 1.46608e-07 
56 1 0.0830166 0.0197662 0.00609629 -1.5825e-14 -4.43647e-14 1.90571e-13 0 -1.53525e-21 -4.23516e-22 0.0005 1.46608e-07 
59 1 0.0793161 0.0192087 0.00581236 1.52814e-14 5.18532e-14 2.19693e-13 -3.9612e-20 2.41934e-20 -1.90582e-21 0.0005 1.46608e-07 
64 1 0.0170063 0.0201419 0.00601043 1.29958e-14 5.26026e-15 -1.0734e-13 1.4516e-19 -4.50913e-20 1.54584e-20 0.0005 1.46608e-07 
65 1 0.0643606 0.0210989 0.00615793 9.85165e-15 -6.2895e-14 2.05619e-13 -1.72054e-22 -2.11758e-22 0 0.0005 1.46608e-07 
66 1 0.0448733 0.0164686 0.00634571 -2.6531e-17 -1.41517e-16 -9.78879e-16 -3.70577e-22 -5.29396e-23 0 0.0005 1.46608e-07 
68 1 0.080527 0.019112 0.00575077 1.34761e-14 4.56314e-14 1.93312e-13 -7.82182e-21 3.70577e-22 2.11758e-22 0.0005 1.46608e-07 
70 1 0.0732475 0.02242 0.00894321 -1.26939e-05 -0.0126042 -0.0179864 -1.78511e-09 -1.1652e-08 3.22415e-09 0.0005 1.46608e-07 
74 1 0.0615839 0.0172264 0.00608851 -4.35272e-15 -1.94153e-14 -1.3904e-13 -1.98523e-22 -4.76456e-22 0 0.0005 1.46608e-07 
82 1 0.0634269 0.0163488 0.00649241 8.53248e-19 1.56087e-17 1.92491e-17 1.85288e-22 -5.29396e-23 -1.05879e-22 0.0005 1.46608e-07 
83 1 0.085142 0.0184899 0.00574639 3.31501e-15 -1.89272e-14 2.54251e-13 -1.32349e-22 -1.32349e-23 0 0.0005 1.46608e-07 
86 1 0.0829173 0.0222111 0.0066532 2.53035e-15 -1.23261e-14 5.62305e-14 3.85135e-21 5.82335e-22 2.11758e-22 0.0005 1.46608e-07 
88 1 0.0357086 0.0161117 0.00660683 -4.49012e-15 2.81849e-14 7.49178e-14 -1.02915e-19 -3.38813e-21 -4.44692e-21 0.0005 1.46608e-07 
89 1 0.0618809 0.0199413 0.00582959 -7.25453e-16 -1.00502e-14 2.78368e-14 -3.30872e-24 -2.64698e-23 0 0.0005 1.46608e-07 
90 1 0.067189 0.0223606 0.00874993 0.00300196 -0.00781064 -0.00852713 -1.96319e-05 -5.98452e-06 1.55316e-06 0.0005 1.46608e-07 
93 1 0.0777242 0.0164624 0.00804007 3.65955e-05 -0.0183148 0.0124349 -8.39541e-10 2.63708e-09 1.17464e-08 0.0005 1.46608e-07 
100 1 0.0828881 0.0187784 0.00585566 -1.80129e-14 -5.05049e-14 2.16941e-13 1.60142e-21 5.29396e-23 0 0.0005 1.46608e-07 
106 1 0.0439552 0.0161318 0.00656318 1.95771e-16 -2.75145e-15 -2.89949e-15 -5.691e-22 0 0 0.0005 1.46608e-07 
107 1 0.0782305 0.0203396 0.00602091 5.81496e-15 1.60758e-14 -3.00866e-14 -5.29396e-23 1.58819e-22 4.23516e-22 0.0005 1.46608e-07 
108 1 0.0819591 0.0196502 0.00598149 1.13313e-15 2.45241e-15 -1.0479e-14 1.73726e-18 -8.47562e-20 1.23243e-19 0.0005 1.46608e-07 
109 1 0.0732237 0.018766 0.005768 1.04409e-14 -5.92052e-14 -1.6338e-13 -3.16314e-20 2.55698e-20 -1.10114e-20 0.0005 1.46608e-07 
112 1 0.0644815 0.0190744 0.00573853 7.98041e-16 -3.78212e-15 -6.44673e-14 -3.30872e-24 0 0 0.0005 1.46608e-07 
113 1 0.0683453 0.0182317 0.00578271 1.61798e-16 2.83921e-16 1.01021e-14 7.94093e-23 -7.94093e-23 -4.23516e-22 0.0005 1.46608e-07 
121 1 0.0609817 0.0187588 0.00589337 -4.35076e-15 -1.94155e-14 -1.3904e-13 -4.10282e-22 -1.85288e-22 2.11758e-22 0.0005 1.46608e-07 
124 1 0.0609012 0.0197493 0.00575757 -5.19423e-15 -2.31833e-14 -1.66017e-13 0 0 0 0.0005 1.46608e-07 
125 1 0.0635066 0.0172168 0.0060025 7.90704e-19 7.93728e-18 2.28705e-17 0 7.94093e-23 0 0.0005 1.46608e-07 
126 1 0.0286258 0.0183498 0.00592583 -1.9446e-14 1.84319e-16 -2.28118e-13 1.05879e-22 6.38997e-23 0 0.0005 1.46608e-07 
127 1 0.0862115 0.0201056 0.00585272 2.60574e-15 -1.48763e-14 1.99835e-13 -2.87859e-22 1.93229e-21 2.11758e-22 0.0005 1.46608e-07 
129 1 0.0601285 0.017977 0.00598674 -1.09312e-14 2.26151e-14 2.78393e-13 7.94093e-23 1.71524e-20 -1.27055e-21 0.0005 1.46608e-07 
132 1 0.0626577 0.0177866 0.00597105 -3.12613e-15 -7.71958e-15 -6.09969e-14 -4.63221e-23 5.29396e-23 0 0.0005 1.46608e-07 
134 1 0.0644264 0.0175965 0.00590444 3.16568e-19 4.23298e-18 2.38963e-17 0 2.64698e-23 0 0.0005 1.46608e-07 
137 1 0.0238948 0.0168123 0.00667048 -1.55915e-14 -3.19692e-14 -1.0479e-13 2.64698e-23 1.58819e-22 -2.11758e-22 0.0005 1.46608e-07 
142 1 0.042543 0.0198089 0.00582143 -3.04989e-16 2.60632e-15 -8.2545e-15 6.61744e-24 -5.29396e-23 0 0.0005 1.46608e-07 
146 1 0.0388539 0.0197419 0.00587248 -2.81876e-15 1.34613e-14 -6.65674e-14 -3.90429e-22 0 0 0.0005 1.46608e-07 
149 1 0.0766607 0.0190533 0.00580856 -9.17802e-15 5.49347e-14 2.11159e-13 3.90363e-20 1.0535e-20 2.11758e-21 0.0005 1.46608e-07 
159 1 0.0779381 0.019417 0.00576935 1.57462e-15 -9.50155e-15 -3.64686e-14 -1.05879e-22 0 0 0.0005 1.46608e-07 
160 1 0.0620021 0.0189487 0.00583492 8.67337e-16 3.89212e-15 2.77991e-14 -9.92617e-24 -2.64698e-23 -2.11758e-22 0.0005 1.46608e-07 
163 1 0.0424897 0.0188104 0.00581963 5.19017e-16 -1.50639e-15 -8.25109e-15 3.97047e-23 -5.29396e-23 0 0.0005 1.46608e-07 
165 1 0.0920805 0.0205253 0.0059177 -7.84777e-15 -7.28946e-14 1.85342e-13 1.98523e-23 0 0 0.0005 1.46608e-07 
174 1 0.0803438 0.0176012 0.00836771 -0.000111231 0.000998969 -0.00167708 1.16758e-09 2.41776e-08 -3.12412e-08 0.0005 1.46608e-07 
182 1 0.0557526 0.0175354 0.00596499 -7.02099e-15 -9.55793e-15 -1.36148e-13 -1.4426e-21 4.53824e-20 -3.38813e-21 0.0005 1.46608e-07 
187 1 0.102423 0.0196788 0.00582979 1.52362e-15 2.26864e-15 -1.78435e-14 2.5411e-20 -2.23405e-20 -4.23516e-22 0.0005 1.46608e-07 
189 1 0.0453636 0.0157749 0.00687326 2.74598e-17 -5.64791e-16 -6.89736e-16 1.58819e-22 5.29396e-23 0 0.0005 1.46608e-07 
193 1 0.377393 0.0174764 0.00843154 2.50856e-05 -0.00429461 0.00219285 2.15813e-12 1.11117e-08 -1.28034e-08 0.0005 1.46608e-07 
195 1 0.0505919 0.0207133 0.00592302 6.74683e-15 1.8938e-14 2.6288e-13 -2.18376e-22 -2.77933e-22 0 0.0005 1.46608e-07 
198 1 0.0643723 0.0166398 0.006235 -8.25005e-16 7.93174e-14 1.99916e-13 1.10842e-22 0 0 0.0005 1.46608e-07 
201 1 0.0440263 0.0170728 0.00623272 2.29622e-16 -6.63941e-16 -3.64325e-15 -1.58819e-22 0 0 0.0005 1.46608e-07 
209 1 0.0745379 0.022348 0.0142406 0.00175112 0.00825146 -0.0123281 -1.96567e-08 6.27363e-08 -9.41128e-08 0.0005 1.46608e-07 
213 1 0.0810639 0.0181072 0.00595049 1.06441e-15 3.60321e-15 1.52614e-14 0 0 0 0.0005 1.46608e-07 
215 1 0.0824647 0.0205875 0.00624167 -1.14513e-14 -3.20876e-14 1.37829e-13 4.92338e-21 -4.18223e-21 -4.23516e-22 0.0005 1.46608e-07 
221 1 0.0595038 0.0223955 0.00675756 1.45343e-16 -1.68909e-15 4.05365e-15 -1.0263e-19 -6.03511e-21 1.05879e-21 0.0005 1.46608e-07 
223 1 0.0635627 0.0182346 0.00586792 -2.51872e-15 -6.222e-15 -4.91282e-14 -5.29396e-23 -2.64698e-23 0 0.0005 1.46608e-07 
226 1 0.0316007 0.0183082 0.00603438 1.31846e-14 -4.47407e-14 -1.1e-13 -2.59669e-20 2.43522e-21 -4.23516e-21 0.0005 1.46608e-07 
227 1 0.0584979 0.0201946 0.00586451 3.22826e-16 4.87961e-15 -1.04427e-14 9.26442e-23 0 0 0.0005 1.46608e-07 
229 1 0.0215463 0.0196109 0.00592744 -1.81463e-14 8.1435e-15 -1.66091e-13 -5.29396e-22 0 0 0.0005 1.46608e-07 
240 1 0.0690612 0.017564 0.00598647 -3.42953e-16 3.51804e-15 9.28659e-15 1.85288e-22 -2.38228e-22 -6.35275e-22 0.0005 1.46608e-07 
242 1 0.0636055 0.0197465 0.00578044 6.28611e-15 -4.01367e-14 1.31216e-13 4.89691e-22 -5.29396e-23 2.11758e-22 0.0005 1.46608e-07 
245 1 0.0788845 0.0212959 0.00783947 0.00149981 -0.0120438 -0.00693817 8.87031e-08 6.78218e-08 2.27676e-07 0.0005 1.46608e-07 
246 1 0.0242602 0.0201274 0.00583803 -1.07556e-14 -1.73217e-15 1.75368e-13 0 2.04148e-21 0 0.0005 1.46608e-07 
256 1 0.0633489 0.0191305 0.0158142 0.000133915 0.018751 0.000360903 -5.93927e-09 -4.58481e-08 -2.94649e-08 0.0005 1.46608e-07 
257 1 0.0536593 0.0162891 0.00821552 0.000565468 -0.0131415 0.0120868 -1.81648e-09 -3.02515e-09 1.92168e-08 0.0005 1.46608e-07 
258 1 0.0591957 0.01503 0.00998123 0.000659982 -0.00658423 0.0142619 -2.4428e-08 1.14877e-08 1.07728e-07 0.0005 1.46608e-07 
270 1 0.0504712 0.0179279 0.00611076 -3.69947e-15 -1.32326e-14 -1.98725e-13 4.63221e-23 3.83812e-22 0 0.0005 1.46608e-07 
273 1 0.0371638 0.0187263 0.00573865 3.8113e-15 -1.81894e-14 8.99478e-14 -3.52776e-20 -9.52912e-21 -2.11758e-22 0.0005 1.46608e-07 
274 1 0.0328558 0.0191954 0.00572294 8.85902e-16 5.06752e-15 -1.96342e-14 -1.53657e-20 0 -8.47033e-22 0.0005 1.46608e-07 
277 1 0.044465 0.0204317 0.00594645 -2.47659e-15 2.53544e-14 -8.03172e-14 -5.37535e-20 9.05266e-21 5.0822e-21 0.0005 1.46608e-07 
279 1 0.0625701 0.016812 0.0061773 -2.93243e-15 -4.20485e-14 -5.38382e-14 5.29396e-23 0 0 0.0005 1.46608e-07 
280 1 0.066033 0.0188309 0.00577203 2.1793e-15 -1.03752e-14 -1.76838e-13 -3.90959e-20 -1.14085e-20 0 0.0005 1.46608e-07 
281 1 0.0833983 0.0210192 0.00634375 2.36848e-14 -4.02529e-14 1.90901e-13 1.74701e-21 -7.99387e-21 -1.48231e-21 0.0005 1.46608e-07 
283 1 0.0635141 0.0175188 0.00840036 6.79169e-05 0.0041262 -0.00369175 -2.0752e-09 5.44418e-08 -5.86571e-08 0.0005 1.46608e-07 
291 1 0.0350698 0.0188001 0.00572051 -7.07574e-15 -4.06805e-14 1.57632e-13 6.73524e-20 -1.78406e-20 -1.48231e-21 0.0005 1.46608e-07 
293 1 0.058002 0.0165105 0.0149498 0.000223961 0.0171964 0.0124668 -1.70234e-09 1.22181e-08 -2.04135e-09 0.0005 1.46608e-07 
296 1 0.0667607 0.0199247 0.00579031 -4.01615e-16 1.19611e-14 -4.36766e-14 -2.82399e-21 1.00585e-21 4.23516e-22 0.0005 1.46608e-07 
298 1 0.0707289 0.0148267 0.0122029 -0.0240188 0.0705743 0.0420675 -0.00577197 0.194318 -0.038143 0.0005 1.46608e-07 
