ITEM: TIMESTEP
16000000
ITEM: NUMBER OF ATOMS
92
ITEM: BOX BOUNDS ff ff ff
-0.02 0.43
-0.02 0.06
-0.02 0.07
ITEM: ATOMS id type x y z vx vy vz fx fy fz radius mass 
1 1 0.0364242 0.0169888 0.00631991 -9.12809e-16 5.64877e-15 1.50125e-14 -8.25857e-21 -9.47618e-21 2.75286e-21 0.0005 1.46608e-07 
2 1 0.0183158 0.0185919 0.0159253 -3.01757e-10 0.0204458 0.00199222 -1.19302e-15 1.21792e-09 -1.36214e-08 0.0005 1.46608e-07 
3 1 0.0386909 0.0171966 0.00759845 0.000947829 -0.0176074 0.00645402 1.58792e-08 4.65652e-08 -2.22356e-09 0.0005 1.46608e-07 
8 1 0.0396786 0.0213724 0.00785906 0.000226279 -0.0178067 -0.0117599 -7.83418e-10 -9.81326e-09 5.86392e-09 0.0005 1.46608e-07 
9 1 0.0436892 0.020408 0.00596775 2.40367e-15 -2.04486e-14 6.48839e-14 9.39677e-21 1.05879e-22 -2.11758e-22 0.0005 1.46608e-07 
14 1 0.0217815 0.0216991 0.00823828 6.08288e-05 -0.016667 -0.0136435 8.30155e-11 -1.07731e-08 5.32549e-09 0.0005 1.46608e-07 
18 1 0.08261 0.0191091 0.00590955 -1.77889e-14 -5.05042e-14 2.1696e-13 7.89977e-19 -6.12511e-20 4.87044e-20 0.0005 1.46608e-07 
19 1 0.0197133 0.016294 0.0150038 -0.000407433 0.0179566 0.0146862 1.80988e-06 -3.87021e-07 -1.0853e-06 0.0005 1.46608e-07 
26 1 0.103453 0.0178822 0.00580682 1.68896e-15 7.51593e-15 2.07276e-13 -1.18882e-20 -5.29396e-22 2.11758e-22 0.0005 1.46608e-07 
28 1 0.0285507 0.0233785 0.0109699 0.000609321 -0.00121401 -0.0221413 1.01639e-08 -5.86227e-09 7.75686e-08 0.0005 1.46608e-07 
32 1 0.0458019 0.0165106 0.00631547 2.39543e-15 1.33717e-14 9.20545e-14 -1.53856e-20 3.09696e-21 0 0.0005 1.46608e-07 
34 1 0.0389225 0.0180768 0.00726874 0.00137145 -0.016741 0.00228303 1.64923e-09 1.57656e-08 1.63799e-08 0.0005 1.46608e-07 
38 1 0.029609 0.0212421 0.0152228 8.73533e-05 0.0201853 -0.00979383 2.35508e-10 -2.00557e-09 -1.12426e-08 0.0005 1.46608e-07 
46 1 0.031638 0.0147598 0.0115757 0.00066148 0.000534081 0.0203367 -6.17448e-09 -3.97015e-08 -8.8829e-08 0.0005 1.46608e-07 
48 1 0.0349486 0.0231097 0.0129719 0.000402449 0.0076234 -0.0198844 -3.69994e-09 -6.36747e-09 -1.2219e-08 0.0005 1.46608e-07 
54 1 0.0337955 0.0216887 0.00806213 0.0012749 -0.0101851 -0.008668 1.06048e-08 2.89586e-08 2.31689e-08 0.0005 1.46608e-07 
56 1 0.0410622 0.0229557 0.0133497 0.000346549 0.00942626 -0.0159206 5.11512e-09 -2.03144e-08 -8.15861e-09 0.0005 1.46608e-07 
59 1 0.0371974 0.0151623 0.0133074 0.000311307 0.008899 0.0187205 -3.02286e-09 1.30305e-08 3.48195e-09 0.0005 1.46608e-07 
64 1 0.0206884 0.0146185 0.0119644 -0.00164415 0.00123386 -0.00389194 7.25117e-08 -6.32828e-08 1.16844e-07 0.0005 1.46608e-07 
65 1 0.0346396 0.0233767 0.0112829 0.000676483 -0.000492716 -0.0190732 -2.23169e-06 3.89998e-07 -2.01433e-06 0.0005 1.46608e-07 
66 1 0.0413179 0.0223438 0.014222 1.66253e-05 0.014954 -0.0163979 -1.00319e-09 -5.90081e-09 -1.04583e-08 0.0005 1.46608e-07 
68 1 0.0365682 0.0171676 0.0152757 0.00134579 0.0162144 0.00678013 -5.63886e-08 7.74237e-08 3.84624e-08 0.0005 1.46608e-07 
70 1 0.0300136 0.019722 0.0157063 0.00129334 0.0174377 -0.00399608 4.54849e-08 -8.74701e-09 1.87324e-08 0.0005 1.46608e-07 
74 1 0.0176179 0.014103 0.0132785 -0.000348556 0.000477365 -0.00105056 1.00706e-08 -1.59349e-08 3.83128e-08 0.0005 1.46608e-07 
82 1 0.0222944 0.0144971 0.0141146 -0.00373466 0.000692072 -0.00482577 1.66628e-08 -1.24861e-08 3.74899e-08 0.0005 1.46608e-07 
83 1 0.0379346 0.015002 0.0100505 0.00184211 -0.004932 0.0124427 5.13651e-11 1.36026e-08 -3.01256e-08 0.0005 1.46608e-07 
86 1 0.0344052 0.0232456 0.0104516 0.0020956 -0.00465467 -0.0143019 9.50313e-06 6.64648e-06 1.68148e-05 0.0005 1.46608e-07 
88 1 0.0247876 0.0165608 0.0151805 0.00407586 0.00293938 0.00236448 -3.26207e-09 -2.97511e-09 1.22517e-08 0.0005 1.46608e-07 
89 1 0.0391599 0.0190335 0.00718879 -0.000183339 -0.0219223 -0.000563734 2.92287e-09 6.5777e-09 1.30102e-08 0.0005 1.46608e-07 
90 1 0.0248932 0.0186992 0.0159453 -3.13262e-09 0.0205245 0.00167119 8.91469e-15 1.27328e-09 -1.56378e-08 0.0005 1.46608e-07 
93 1 0.030627 0.0169109 0.0152509 4.65387e-05 0.018377 0.0130471 1.22347e-08 -4.50105e-08 -1.7124e-08 0.0005 1.46608e-07 
96 1 0.0377005 0.0148332 0.0112607 9.86817e-05 -0.00139369 0.0213378 -7.91474e-10 1.028e-08 5.65528e-09 0.0005 1.46608e-07 
100 1 0.0408557 0.0232567 0.0124529 0.000698234 0.00355066 -0.0192141 -6.01145e-09 -7.19066e-09 -6.19128e-09 0.0005 1.46608e-07 
106 1 0.0439974 0.0161245 0.00657288 -1.57175e-15 2.20966e-14 2.32822e-14 3.30872e-22 1.05879e-22 0 0.0005 1.46608e-07 
107 1 0.0287694 0.0233418 0.0121095 0.000384978 0.00233748 -0.0196311 -2.24772e-09 -8.45369e-09 -1.28399e-08 0.0005 1.46608e-07 
108 1 0.0393823 0.0201443 0.00732388 0.000740265 -0.018221 -0.00407518 -5.53991e-09 -1.97023e-08 6.18831e-09 0.0005 1.46608e-07 
109 1 0.0309629 0.0157562 0.0143171 0.00036055 0.0128354 0.014299 -2.98002e-10 1.48896e-08 -1.55755e-09 0.0005 1.46608e-07 
112 1 0.0245085 0.0204814 0.0157204 0.00172516 0.00795317 -0.00141494 -1.07405e-07 1.25012e-06 -5.29886e-07 0.0005 1.46608e-07 
113 1 0.0262611 0.0155546 0.00893654 0.000718171 -0.0117372 0.0162118 -3.60921e-09 2.65704e-09 1.53318e-08 0.0005 1.46608e-07 
121 1 0.0269129 0.0180143 0.0073473 0.00109957 -0.0129141 0.00264389 1.15377e-06 3.03741e-06 -9.30993e-07 0.0005 1.46608e-07 
124 1 0.0361094 0.0192458 0.015745 0.000492238 0.0222126 0.00205419 9.28468e-10 1.62333e-10 -7.79987e-09 0.0005 1.46608e-07 
125 1 0.0233017 0.0226619 0.0140938 0.00224374 0.00205335 -2.93085e-05 8.04931e-06 -3.04363e-05 -1.33365e-05 0.0005 1.46608e-07 
126 1 0.0286258 0.0183498 0.00592583 -1.94458e-14 1.82372e-16 -2.28119e-13 5.29396e-23 -7.63508e-21 0 0.0005 1.46608e-07 
127 1 0.0367899 0.0163883 0.0148938 0.00254038 0.00534068 0.00729021 1.13524e-07 2.43666e-09 -9.11146e-08 0.0005 1.46608e-07 
129 1 0.0166693 0.0142211 0.0135721 0.000594879 -0.00112285 0.00262955 -3.5514e-08 -4.66488e-09 -8.83931e-09 0.0005 1.46608e-07 
132 1 0.0280015 0.0224019 0.00876482 0.000585529 -0.0131138 -0.0154876 -1.05515e-08 -2.02661e-08 -1.3863e-08 0.0005 1.46608e-07 
134 1 0.0277927 0.0216775 0.00804993 0.00130021 -0.0122148 -0.00877844 -2.73327e-09 -6.77923e-08 -8.89612e-09 0.0005 1.46608e-07 
137 1 0.0227645 0.0233553 0.0120441 0.000105681 0.00320056 -0.0214301 -2.10291e-10 -9.32552e-09 -8.30836e-09 0.0005 1.46608e-07 
142 1 0.0406197 0.0233782 0.0112148 0.000438834 8.64331e-05 -0.0229172 9.24237e-09 -2.93027e-09 -9.15973e-09 0.0005 1.46608e-07 
146 1 0.0194964 0.0139116 0.0136954 0.0273556 -0.0648597 -0.134151 0 0 -1.43822e-06 0.0005 1.46608e-07 
149 1 0.0400271 0.0224796 0.00886225 0.000285422 -0.0111506 -0.0152466 -1.04102e-09 -4.8034e-08 -1.89623e-08 0.0005 1.46608e-07 
159 1 0.0651534 0.0184728 0.00578214 1.6613e-16 -7.85385e-16 -1.33899e-14 -4.80757e-21 -1.21761e-21 0 0.0005 1.46608e-07 
160 1 0.0293783 0.0222356 0.0143896 0.000183215 0.0140772 -0.0155153 1.12693e-09 -4.2678e-09 -9.84485e-09 0.0005 1.46608e-07 
163 1 0.0183653 0.02349 0.0118119 -7.13965e-05 -0.000572176 0.00121753 -7.22902e-08 -7.10111e-08 1.28574e-07 0.0005 1.46608e-07 
165 1 0.0186586 0.0174751 0.0156539 -0.000181692 0.0217116 0.00819568 -1.29245e-07 3.67676e-07 -1.29746e-08 0.0005 1.46608e-07 
174 1 0.0210964 0.0187397 0.0071931 0.000297346 -0.0199109 0.00201775 -2.14639e-09 -1.09958e-08 1.1736e-08 0.0005 1.46608e-07 
180 1 0.0187794 0.0165914 0.0152018 -0.000199081 0.0194351 0.0128548 1.00018e-07 4.65832e-07 2.84992e-07 0.0005 1.46608e-07 
182 1 0.01985 0.0152019 0.00942881 8.44621 -0.679137 2.56243 0.786112 -3.58727 -1.62505 0.0005 1.46608e-07 
187 1 0.102423 0.0196788 0.00582979 1.5301e-15 2.2608e-15 -1.7844e-14 -8.60268e-21 1.42143e-20 1.05879e-21 0.0005 1.46608e-07 
189 1 0.0265892 0.0167556 0.00789649 -0.000108581 -0.0126595 0.00798668 -2.73672e-09 -1.42885e-08 2.41335e-09 0.0005 1.46608e-07 
193 1 0.0318568 0.0148915 0.0104302 0.000175038 -0.00492225 0.0199721 -3.61319e-10 8.7649e-09 9.30044e-09 0.0005 1.46608e-07 
194 1 0.024103 0.019586 0.015927 0.00476801 0.00135262 0.000480662 -2.22072e-07 1.11251e-06 -3.6387e-08 0.0005 1.46608e-07 
195 1 0.0191121 0.0153436 0.0140796 -5.94802e-07 0.0129449 0.0194666 6.24877e-08 4.69311e-07 -5.34594e-07 0.0005 1.46608e-07 
198 1 0.0198799 0.0240963 0.0129098 -4.23782e-05 -0.00126231 0.00040799 5.27429e-08 1.13191e-08 -2.85203e-09 0.0005 1.46608e-07 
201 1 0.0440291 0.0170649 0.00623435 -1.84795e-15 5.33739e-15 2.93335e-14 2.77933e-22 0 0 0.0005 1.46608e-07 
209 1 0.0274441 0.020462 0.00744532 0.000144297 -0.0199956 -0.00706203 -8.01116e-10 -8.99985e-09 8.28613e-09 0.0005 1.46608e-07 
213 1 0.0326553 0.0170655 0.00766874 0.000172033 -0.0195624 0.00963351 -2.43626e-09 -1.3762e-09 1.26548e-08 0.0005 1.46608e-07 
215 1 0.0335322 0.0209346 0.00766623 0.00093592 -0.016486 -0.00653445 -7.55769e-10 -9.52152e-09 7.41578e-09 0.0005 1.46608e-07 
221 1 0.0580541 0.0173356 0.00595763 9.18179e-15 -1.90547e-14 -2.34434e-13 -1.32349e-23 1.32349e-23 0 0.0005 1.46608e-07 
223 1 0.030217 0.0188534 0.0158244 0.000231849 0.0209189 0.00279193 2.35422e-08 -1.44842e-08 -5.53438e-08 0.0005 1.46608e-07 
226 1 0.0185736 0.0139736 0.0130143 3.10861e-05 -0.000494292 0.000818135 3.93554e-08 -4.64011e-09 1.48659e-08 0.0005 1.46608e-07 
227 1 0.0173665 0.0234867 0.0118219 -9.20164e-05 -0.000549565 0.000505803 -1.7691e-08 1.42753e-09 -6.21116e-09 0.0005 1.46608e-07 
229 1 0.0307283 0.0166516 0.00660365 9.48634e-15 -3.21836e-14 -7.89941e-14 -6.46127e-20 8.78797e-20 -4.51045e-20 0.0005 1.46608e-07 
240 1 0.0323915 0.0159308 0.00853892 0.000305478 -0.0141081 0.0150759 -9.46073e-10 1.84835e-09 1.23954e-08 0.0005 1.46608e-07 
242 1 0.0312054 0.0152265 0.0133401 -0.00011228 0.00827897 0.0201779 1.11719e-09 8.56547e-09 -1.25382e-08 0.0005 1.46608e-07 
245 1 0.0314197 0.0149144 0.0124904 0.00107576 0.00484254 0.0176532 3.02039e-08 3.67322e-09 -7.36629e-08 0.0005 1.46608e-07 
246 1 0.0242602 0.0201274 0.00583803 -1.07556e-14 -1.726e-15 1.75368e-13 0 0 0 0.0005 1.46608e-07 
256 1 0.0210814 0.0144002 0.0128576 -0.000605386 0.00168903 -0.00413853 -1.19367e-07 3.18405e-07 2.44893e-07 0.0005 1.46608e-07 
257 1 0.0189236 0.0156184 0.0150223 -0.000130191 0.0187992 0.017738 -2.62756e-08 -5.51192e-07 4.19877e-08 0.0005 1.46608e-07 
258 1 0.0158697 0.0144922 0.0141078 -0.00115293 0.00172141 -0.00146324 2.80022e-08 -4.18031e-08 2.24243e-08 0.0005 1.46608e-07 
270 1 0.0246415 0.0213739 0.0152887 -0.000615938 0.00379126 -0.00197364 -9.29047e-08 1.06624e-07 -9.30692e-08 0.0005 1.46608e-07 
273 1 0.0204063 0.0159701 0.0085142 0.000593705 -0.0141427 0.0151349 -8.13146e-09 -3.62297e-09 1.71206e-08 0.0005 1.46608e-07 
274 1 0.020635 0.0166187 0.0152168 -0.000603392 0.0192652 0.0125745 -5.01207e-08 9.52099e-10 7.54328e-08 0.0005 1.46608e-07 
277 1 0.0355304 0.0215774 0.0148927 -0.000111204 0.017533 -0.012582 1.75477e-09 -4.14898e-09 -1.16779e-08 0.0005 1.46608e-07 
279 1 0.0196594 0.0146186 0.0119433 -2.35415e-06 0.0012955 -0.00215083 8.25531e-11 -1.95046e-08 3.23855e-08 0.0005 1.46608e-07 
280 1 0.0332466 0.0195477 0.00733576 0.000171712 -0.0215157 -0.00324344 -2.03114e-09 -4.23258e-09 1.04317e-08 0.0005 1.46608e-07 
281 1 0.032968 0.0182244 0.00731753 0.000487168 -0.0199944 0.00189969 -2.86758e-09 1.35661e-08 8.57569e-09 0.0005 1.46608e-07 
283 1 0.0271936 0.0191691 0.00716266 0.00159993 -0.0106352 -0.00212471 -3.6831e-09 4.38823e-08 3.33427e-08 0.0005 1.46608e-07 
291 1 0.03293 0.0193179 0.00575787 -8.27348e-15 -4.74532e-14 1.83895e-13 -9.26442e-23 0 0 0.0005 1.46608e-07 
293 1 0.0208992 0.0158037 0.0147012 1.77054e-05 0.0170077 0.0164594 2.77324e-08 -1.80122e-07 -5.33257e-08 0.0005 1.46608e-07 
296 1 0.0200042 0.015531 0.0144265 0.000183874 0.015066 0.0178405 1.4814e-07 -4.04063e-07 -2.96463e-07 0.0005 1.46608e-07 
298 1 0.0237276 0.0211419 0.0154665 -0.000905469 0.0176424 -0.00556713 -9.07965e-08 2.86516e-07 -1.08712e-07 0.0005 1.46608e-07 
