ITEM: TIMESTEP
32600000
ITEM: NUMBER OF ATOMS
89
ITEM: BOX BOUNDS ff ff ff
-0.02 0.43
-0.02 0.06
-0.02 0.07
ITEM: ATOMS id type x y z vx vy vz fx fy fz radius mass 
1 1 0.0388307 0.0187336 0.00577146 -9.82911e-15 8.71496e-14 2.22854e-13 1.6531e-19 5.18808e-21 5.71747e-21 0.0005 1.46608e-07 
2 1 0.0315089 0.0189543 0.0072087 7.22167e-05 -0.0230393 -0.0010513 2.1439e-09 9.57223e-10 1.07111e-08 0.0005 1.46608e-07 
3 1 0.0516038 0.0225283 0.0140134 0.000573888 0.0104695 -0.0161757 -1.09728e-06 6.59645e-07 3.80164e-06 0.0005 1.46608e-07 
8 1 0.0554435 0.0187069 0.00728698 -2.86479e-05 -0.0217413 0.000939298 -3.31671e-10 -1.80794e-09 1.15593e-08 0.0005 1.46608e-07 
9 1 0.0436892 0.020408 0.00596775 2.40926e-15 -2.04489e-14 6.48836e-14 8.00711e-22 -6.88214e-22 0 0.0005 1.46608e-07 
14 1 0.0343506 0.0197357 0.0157262 0.000263045 0.0127913 -0.00133864 2.03266e-08 -9.36777e-08 4.81634e-08 0.0005 1.46608e-07 
18 1 0.08261 0.0191091 0.00590955 -1.80253e-14 -5.04945e-14 2.16942e-13 -9.28825e-20 -1.88465e-20 -9.95264e-21 0.0005 1.46608e-07 
26 1 0.103453 0.0178822 0.00580682 1.68608e-15 7.51669e-15 2.07276e-13 9.22737e-20 -1.81252e-20 -2.11758e-22 0.0005 1.46608e-07 
28 1 0.0448705 0.0233373 0.0108072 0.000421357 -0.00431394 -0.0187177 -2.19933e-09 -1.43231e-08 -4.2178e-09 0.0005 1.46608e-07 
32 1 0.0458692 0.0166351 0.00629564 2.90071e-16 1.62417e-15 1.11821e-14 1.65436e-21 0 0 0.0005 1.46608e-07 
34 1 0.0572659 0.0174442 0.00591793 9.18033e-15 -1.90555e-14 -2.34434e-13 -4.69177e-21 -4.53957e-21 2.11758e-22 0.0005 1.46608e-07 
38 1 0.0461512 0.0206959 0.0154868 8.61407e-05 0.0213469 -0.00740584 1.94996e-10 -2.67757e-10 -1.20953e-08 0.0005 1.46608e-07 
46 1 0.0483781 0.0151062 0.00992086 0.000529556 -0.00772703 0.0191793 -6.26513e-09 4.71483e-09 1.6195e-08 0.0005 1.46608e-07 
48 1 0.0518458 0.0219559 0.0147309 0.00137806 0.0119762 -0.00801272 -9.09097e-07 3.29435e-06 9.85693e-07 0.0005 1.46608e-07 
54 1 0.0510783 0.0233669 0.0116994 0.00127958 0.00220868 -0.0151744 9.96434e-10 -1.81661e-08 1.27392e-08 0.0005 1.46608e-07 
56 1 0.0534999 0.0154493 0.0138622 0.000196879 0.0115172 0.0180926 -1.38105e-09 1.29255e-08 -4.55539e-10 0.0005 1.46608e-07 
59 1 0.0793161 0.0192087 0.00581236 1.52696e-14 5.18488e-14 2.19695e-13 -1.35221e-19 3.57871e-20 -1.05879e-21 0.0005 1.46608e-07 
64 1 0.0170063 0.0201419 0.00601043 1.30212e-14 5.26001e-15 -1.07337e-13 -6.16746e-21 -6.632e-20 -3.81165e-21 0.0005 1.46608e-07 
65 1 0.0632091 0.0196192 0.00574818 3.96063e-15 5.47595e-14 -1.5184e-13 -1.40952e-21 -2.96462e-21 -1.05879e-21 0.0005 1.46608e-07 
66 1 0.0448873 0.0164493 0.00634816 -4.52788e-15 -2.52973e-14 -1.74151e-13 9.5953e-22 -7.94093e-23 0 0.0005 1.46608e-07 
68 1 0.0528125 0.0177462 0.0156164 0.00131956 0.0155348 0.00395771 -9.99784e-09 4.48093e-08 1.7637e-09 0.0005 1.46608e-07 
70 1 0.0465323 0.0191038 0.0158003 0.000691967 0.0160794 0.00113821 3.29491e-09 -3.0608e-08 -3.49343e-09 0.0005 1.46608e-07 
74 1 0.0346229 0.0186716 0.0157335 7.90341e-05 0.0222911 0.00369164 7.44571e-10 3.57911e-09 -1.22568e-08 0.0005 1.46608e-07 
82 1 0.0362735 0.0149351 0.0103038 0.000915051 -0.0029093 0.0106242 1.07372e-09 1.15916e-08 -3.79634e-08 0.0005 1.46608e-07 
83 1 0.0544056 0.0152616 0.00960757 -0.00030417 -0.0096301 0.0171165 -6.33273e-09 1.87989e-08 -1.06125e-08 0.0005 1.46608e-07 
86 1 0.0514038 0.0229416 0.013168 0.00026228 0.00828652 -0.0193321 3.77343e-07 -1.83095e-08 -5.21542e-07 0.0005 1.46608e-07 
88 1 0.0357086 0.0161117 0.00660683 -4.58369e-15 2.8184e-14 7.49125e-14 6.5076e-20 2.35052e-20 -4.87044e-21 0.0005 1.46608e-07 
89 1 0.0548135 0.0162292 0.00834078 0.000529806 -0.0135829 0.013706 -2.17685e-09 1.46467e-09 1.48002e-08 0.0005 1.46608e-07 
90 1 0.0371557 0.0175146 0.00744865 5.96247e-05 -0.0174123 0.00563931 -1.51757e-08 5.15434e-09 1.87033e-08 0.0005 1.46608e-07 
93 1 0.0473187 0.0158696 0.0144181 0.00113539 0.0100725 0.0101419 -4.43839e-09 1.8132e-08 -1.424e-08 0.0005 1.46608e-07 
96 1 0.0538492 0.0148285 0.0121578 5.71092e-05 0.00279661 0.0213706 -6.89006e-10 1.17938e-08 2.79882e-09 0.0005 1.46608e-07 
100 1 0.0560295 0.0213529 0.00783581 0.000570269 -0.0139112 -0.0077994 -1.21817e-08 -4.40083e-09 -3.28367e-08 0.0005 1.46608e-07 
106 1 0.0439552 0.0161318 0.00656318 1.95934e-16 -2.75167e-15 -2.89974e-15 1.19114e-22 1.05879e-22 1.05879e-22 0.0005 1.46608e-07 
107 1 0.0450577 0.023373 0.011588 0.000915244 0.00227311 -0.0202167 3.47724e-09 -7.33086e-09 4.85856e-09 0.0005 1.46608e-07 
108 1 0.0550427 0.0170384 0.00770416 0.000611229 -0.0114428 0.00594492 -3.12063e-09 1.24337e-08 -8.29262e-09 0.0005 1.46608e-07 
109 1 0.0465082 0.0158456 0.00867322 -0.000462723 -0.00892485 0.00910654 -2.68963e-09 -7.00127e-09 -3.26939e-08 0.0005 1.46608e-07 
112 1 0.0416456 0.0150253 0.0130771 0.000271069 0.0076043 0.0190152 -3.06942e-09 1.56204e-08 5.97974e-09 0.0005 1.46608e-07 
113 1 0.0418528 0.0148092 0.012196 -1.96893e-05 0.00243418 0.0218845 -1.90489e-09 1.07215e-08 2.14784e-09 0.0005 1.46608e-07 
121 1 0.0427861 0.0160298 0.00847483 0.000472804 -0.0135787 0.0146508 -3.18566e-09 -1.42653e-09 1.59735e-08 0.0005 1.46608e-07 
124 1 0.052439 0.0194841 0.0157323 -0.000832382 0.0232126 0.000830147 -3.14642e-06 -8.22651e-07 -2.2022e-06 0.0005 1.46608e-07 
125 1 0.0405499 0.0191579 0.0156476 0.00140575 0.0196124 -0.000487558 -1.73266e-08 1.61476e-07 -4.4518e-08 0.0005 1.46608e-07 
126 1 0.0286258 0.0183498 0.00592583 -1.94459e-14 1.8502e-16 -2.28119e-13 -5.29396e-23 6.8139e-22 2.11758e-22 0.0005 1.46608e-07 
127 1 0.0531218 0.0164254 0.0149332 0.000328338 0.0164488 0.0125129 -1.54326e-09 1.26605e-08 -4.42487e-09 0.0005 1.46608e-07 
129 1 0.0280575 0.0210152 0.0153276 0.000580542 0.0113382 -0.00589688 4.75477e-09 -3.38248e-08 1.63423e-08 0.0005 1.46608e-07 
132 1 0.0446516 0.0230114 0.00992306 0.000265296 -0.00776973 -0.0193817 -1.32686e-09 -1.17938e-08 -2.07918e-09 0.0005 1.46608e-07 
134 1 0.0440019 0.0212297 0.00775964 0.000223669 -0.018385 -0.0113457 -9.00529e-10 -9.7626e-09 6.27265e-09 0.0005 1.46608e-07 
137 1 0.0238948 0.0168123 0.00667048 -1.55915e-14 -3.19689e-14 -1.04791e-13 2.38228e-22 1.05879e-22 0 0.0005 1.46608e-07 
142 1 0.0470176 0.01787 0.0060864 -3.12611e-15 -1.74655e-14 -1.20236e-13 -2.8455e-22 5.29396e-23 0 0.0005 1.46608e-07 
146 1 0.0390565 0.0200205 0.00592023 -3.95475e-15 1.88495e-14 -9.32077e-14 -1.59811e-20 -3.59989e-21 0 0.0005 1.46608e-07 
149 1 0.0766607 0.0190533 0.00580856 -9.17261e-15 5.49348e-14 2.11159e-13 -6.82126e-20 5.29396e-23 -4.65868e-21 0.0005 1.46608e-07 
159 1 0.0779397 0.0194308 0.00576583 6.35278e-15 -3.81097e-14 -1.46472e-13 -1.53657e-19 4.5528e-21 -7.83505e-21 0.0005 1.46608e-07 
160 1 0.045938 0.0216983 0.0149493 0.00045452 0.0151602 -0.0123555 -4.81788e-09 7.91672e-09 -1.99097e-08 0.0005 1.46608e-07 
163 1 0.0424878 0.0188132 0.00581899 -4.51473e-15 1.30452e-14 7.16622e-14 0 0 0 0.0005 1.46608e-07 
165 1 0.0920805 0.0205253 0.0059177 -7.84834e-15 -7.28946e-14 1.85342e-13 0 0 0 0.0005 1.46608e-07 
174 1 0.0398478 0.0218284 0.014613 0.000565837 0.00860054 -0.00729876 6.90016e-09 -4.31011e-09 8.51323e-09 0.0005 1.46608e-07 
182 1 0.0375745 0.0191477 0.00725529 -0.000162879 -0.0223486 -0.00176725 -1.4392e-09 -2.98205e-09 1.12859e-08 0.0005 1.46608e-07 
187 1 0.102423 0.0196788 0.00582979 1.54395e-15 2.26418e-15 -1.78424e-14 -2.75286e-21 -2.56757e-20 -3.17637e-21 0.0005 1.46608e-07 
189 1 0.0423899 0.0151412 0.00977219 -6.11031e-05 -0.0092902 0.0186227 -1.38383e-09 7.92244e-09 8.49623e-09 0.0005 1.46608e-07 
193 1 0.377411 0.0174997 0.0084171 3.20238e-05 -0.000698683 -0.000507164 4.52743e-11 4.43049e-08 -3.98043e-08 0.0005 1.46608e-07 
195 1 0.0507369 0.0203921 0.00594173 -5.75445e-15 -2.04854e-14 -3.07615e-13 1.16136e-21 -1.65171e-20 1.05879e-21 0.0005 1.46608e-07 
198 1 0.0386365 0.0229987 0.00982825 0.000231574 -0.00825179 -0.0190167 -1.11119e-09 -1.20074e-08 -1.85849e-09 0.0005 1.46608e-07 
201 1 0.0440263 0.0170728 0.00623272 2.29685e-16 -6.6386e-16 -3.64347e-15 -1.19114e-22 0 0 0.0005 1.46608e-07 
209 1 0.0435618 0.0191339 0.00717485 0.00126848 -0.0160756 -0.000353326 3.95594e-09 9.0508e-09 9.56089e-09 0.0005 1.46608e-07 
213 1 0.0491592 0.0175267 0.00744898 0.000743386 -0.0164372 0.00540217 -7.96212e-09 -2.66474e-09 2.86401e-08 0.0005 1.46608e-07 
215 1 0.0508294 0.0232707 0.0108366 0.00093922 -0.00395106 -0.0175073 -1.44854e-09 -1.14538e-08 -4.3177e-09 0.0005 1.46608e-07 
221 1 0.059059 0.0180876 0.00593586 7.18601e-15 -1.49151e-14 -1.83491e-13 -1.19114e-21 7.01449e-22 -2.11758e-22 0.0005 1.46608e-07 
223 1 0.0470663 0.0166802 0.0150804 7.70895e-05 0.0180653 0.0131715 -1.74867e-09 1.03196e-08 -7.14685e-09 0.0005 1.46608e-07 
226 1 0.0316007 0.0183082 0.00603438 1.3145e-14 -4.47041e-14 -1.1002e-13 8.6715e-20 -2.61521e-20 2.03288e-20 0.0005 1.46608e-07 
227 1 0.0319033 0.0209075 0.00766209 0.00167006 -0.0146263 -0.00537388 -1.94591e-08 -5.42506e-08 -1.51395e-08 0.0005 1.46608e-07 
229 1 0.0215463 0.0196109 0.00592744 -1.81493e-14 8.13663e-15 -1.66091e-13 0 -1.72054e-22 0 0.0005 1.46608e-07 
240 1 0.0487073 0.0158956 0.00864199 0.000144331 -0.014579 0.0158903 -7.57974e-10 4.24375e-09 1.10882e-08 0.0005 1.46608e-07 
242 1 0.0478149 0.0149145 0.0122606 6.50152e-05 0.00348678 0.0212754 -5.87921e-10 1.15485e-08 1.31205e-09 0.0005 1.46608e-07 
245 1 0.0481012 0.0148506 0.0111133 0.000662866 -0.000394076 0.0185288 -5.83976e-09 7.39926e-09 1.82876e-08 0.0005 1.46608e-07 
246 1 0.0242602 0.0201274 0.00583803 -1.07556e-14 -1.73291e-15 1.75368e-13 0 9.92617e-24 0 0.0005 1.46608e-07 
256 1 0.033424 0.0229419 0.0133336 0.000591019 0.0105004 -0.0197573 -1.81328e-08 1.29926e-09 3.68002e-08 0.0005 1.46608e-07 
257 1 0.0234612 0.0155433 0.0142289 0.00381208 0.00254986 0.00371576 -5.42475e-10 -6.58293e-09 8.98322e-09 0.0005 1.46608e-07 
258 1 0.0302635 0.0148949 0.0104383 9.56668e-05 -0.00516584 0.0175392 -3.91326e-10 5.20131e-08 -1.06758e-07 0.0005 1.46608e-07 
270 1 0.0414926 0.0154648 0.0138726 0.000484406 0.011345 0.0164144 -4.63668e-09 1.83225e-08 6.22423e-09 0.0005 1.46608e-07 
273 1 0.0371638 0.0187263 0.00573865 3.73591e-15 -1.8176e-14 8.99538e-14 5.65792e-21 -5.14573e-20 -9.95264e-21 0.0005 1.46608e-07 
274 1 0.0328558 0.0191954 0.00572294 8.90166e-16 5.06752e-15 -1.9634e-14 1.07203e-21 0 -2.11758e-22 0.0005 1.46608e-07 
277 1 0.0520942 0.0209073 0.0153535 0.00102945 0.0221167 -0.00924283 -2.50094e-08 -7.53591e-08 7.18596e-08 0.0005 1.46608e-07 
279 1 0.0356079 0.0151735 0.0132379 0.000674224 0.008083 0.0167708 1.67199e-09 9.46962e-09 -1.68185e-09 0.0005 1.46608e-07 
280 1 0.050471 0.022541 0.00917601 0.000107637 -0.0115496 -0.0193518 -2.98527e-10 -1.04089e-08 4.03044e-09 0.0005 1.46608e-07 
281 1 0.0498006 0.0202476 0.00741426 8.96351e-05 -0.020575 -0.00639037 -1.45774e-09 -8.02972e-09 8.75479e-09 0.0005 1.46608e-07 
283 1 0.0433279 0.0182864 0.00728004 0.00147778 -0.0135088 0.00295033 4.60696e-09 2.04994e-08 -1.69093e-09 0.0005 1.46608e-07 
291 1 0.0350698 0.0188001 0.00572051 -7.09767e-15 -4.06768e-14 1.57632e-13 1.00718e-20 -1.48231e-21 0 0.0005 1.46608e-07 
293 1 0.0293695 0.0157717 0.014333 0.00107498 0.0118121 0.0134171 -7.4861e-09 2.83715e-08 3.30936e-09 0.0005 1.46608e-07 
296 1 0.0358021 0.0148552 0.0124272 0.00124355 0.00055893 0.0118226 1.67161e-08 1.07195e-08 -5.59493e-08 0.0005 1.46608e-07 
298 1 0.0407242 0.0182071 0.0156471 0.00054419 0.0198012 0.00316976 5.38099e-08 -2.23684e-07 4.1824e-08 0.0005 1.46608e-07 
