ITEM: TIMESTEP
39600000
ITEM: NUMBER OF ATOMS
88
ITEM: BOX BOUNDS ff ff ff
-0.02 0.43
-0.02 0.06
-0.02 0.07
ITEM: ATOMS id type x y z vx vy vz fx fy fz radius mass 
1 1 0.0387146 0.0187573 0.00575718 -8.66468e-15 7.85637e-14 2.009e-13 1.50017e-20 0 4.23516e-22 0.0005 1.46608e-07 
2 1 0.038466 0.0221993 0.0141585 -0.000475967 0.0161434 -0.0154579 6.0782e-09 -4.42143e-09 -1.06202e-08 0.0005 1.46608e-07 
3 1 0.0651417 0.0194805 0.00572288 2.4751e-15 -1.17757e-14 -2.00674e-13 1.77546e-20 2.38228e-22 2.11758e-22 0.0005 1.46608e-07 
8 1 0.102543 0.017821 0.00581645 -9.78703e-16 -4.3526e-15 -1.20042e-13 -1.48893e-23 1.32349e-23 0 0.0005 1.46608e-07 
9 1 0.0387828 0.0214812 0.00622724 2.27079e-11 3.33291e-11 6.02058e-12 1.48348e-16 1.27029e-16 3.33944e-16 0.0005 1.46608e-07 
14 1 0.0416294 0.0165283 0.00798673 0.00131206 -0.0135303 0.00890161 1.28427e-08 3.50526e-08 -3.25546e-08 0.0005 1.46608e-07 
18 1 0.08261 0.0191091 0.00590955 -1.79853e-14 -5.0497e-14 2.16945e-13 -3.33652e-20 3.10755e-20 8.04681e-21 0.0005 1.46608e-07 
26 1 0.10448 0.0180949 0.00580371 1.4984e-14 2.2366e-14 -1.76075e-13 2.60463e-20 1.64642e-20 3.17637e-21 0.0005 1.46608e-07 
28 1 0.0516249 0.0173937 0.0155082 0.000573991 0.015849 0.00722627 -1.81375e-08 -1.87063e-09 -1.01197e-08 0.0005 1.46608e-07 
32 1 0.0458896 0.0168235 0.00626774 -4.52823e-15 -2.5297e-14 -1.74151e-13 1.2904e-21 -1.58819e-22 0 0.0005 1.46608e-07 
34 1 0.057335 0.017914 0.0058854 1.15699e-15 4.05404e-15 9.33134e-14 8.96492e-19 7.25801e-20 -1.67289e-20 0.0005 1.46608e-07 
38 1 0.0532088 0.0152194 0.00968539 0.000152786 -0.00974083 0.018599 -2.76079e-10 8.50481e-09 7.366e-09 0.0005 1.46608e-07 
46 1 0.0550466 0.0220828 0.00843585 0.00108614 -0.0128477 -0.0114325 -6.11896e-09 -2.47229e-08 -8.55844e-09 0.0005 1.46608e-07 
48 1 0.0583792 0.0150342 0.0130638 -0.000180565 0.0054028 0.0222397 -1.47333e-08 -1.50333e-08 -6.77736e-08 0.0005 1.46608e-07 
54 1 0.0574207 0.0182587 0.0156999 0.000334722 0.0198748 0.00310868 -1.24186e-09 9.95358e-09 -6.76607e-09 0.0005 1.46608e-07 
56 1 0.0601016 0.0183015 0.00732192 -6.03021e-05 -0.0220673 0.0027834 -3.124e-10 -5.00611e-10 1.19191e-08 0.0005 1.46608e-07 
59 1 0.0793161 0.0192087 0.00581236 1.56591e-14 5.17552e-14 2.1969e-13 3.56508e-19 5.6063e-20 -3.64224e-20 0.0005 1.46608e-07 
64 1 0.0170063 0.0201419 0.00601043 1.30184e-14 5.2558e-15 -1.07338e-13 -5.68571e-20 -2.23405e-20 -9.1056e-21 0.0005 1.46608e-07 
65 1 0.0632091 0.0196192 0.00574818 3.9638e-15 5.47589e-14 -1.5184e-13 -1.88796e-20 -3.65283e-21 -1.90582e-21 0.0005 1.46608e-07 
66 1 0.0448733 0.0164686 0.00634571 -6.79515e-17 -3.58056e-16 -2.47881e-15 1.05879e-22 5.29396e-23 4.23516e-22 0.0005 1.46608e-07 
68 1 0.0593603 0.015593 0.00903813 2.18791e-06 -0.0138627 0.0176692 -1.03091e-09 6.84661e-09 9.79416e-09 0.0005 1.46608e-07 
70 1 0.0496398 0.0232876 0.010866 0.00103644 -0.00386294 -0.0163365 -8.54879e-09 -8.25014e-09 -2.16719e-08 0.0005 1.46608e-07 
74 1 0.0422254 0.018763 0.00718424 0.00144534 -0.0138581 -0.000233054 -8.15662e-09 -1.38901e-08 2.57506e-08 0.0005 1.46608e-07 
82 1 0.0434698 0.0231384 0.0101767 0.000400642 -0.00673906 -0.0195843 -2.11019e-09 -1.2458e-08 -3.29181e-09 0.0005 1.46608e-07 
83 1 0.0604912 0.0202498 0.00736802 0.0016132 -0.0155252 -0.00331615 -8.56173e-09 -2.9163e-08 5.22023e-10 0.0005 1.46608e-07 
86 1 0.0578277 0.0167434 0.0151269 0.000104566 0.0182647 0.0121572 -1.22766e-09 1.20769e-08 -6.09495e-09 0.0005 1.46608e-07 
88 1 0.0357086 0.0161117 0.00660683 -4.50213e-15 2.82001e-14 7.49114e-14 -1.83303e-20 4.23516e-22 -1.48231e-21 0.0005 1.46608e-07 
89 1 0.0613764 0.0230728 0.00999858 0.00050189 -0.00743845 -0.0176394 -2.6484e-09 -1.54221e-08 -6.64895e-09 0.0005 1.46608e-07 
90 1 0.0438455 0.0233264 0.0118783 4.24307e-05 0.00382689 -0.0228838 -3.30519e-09 -7.72434e-09 -9.19091e-09 0.0005 1.46608e-07 
93 1 0.0539606 0.0177191 0.0073947 0.000923007 -0.0183548 0.00629471 -5.90599e-09 -1.18601e-08 1.56281e-08 0.0005 1.46608e-07 
100 1 0.063096 0.0199047 0.0157027 0.00220502 0.0148623 -0.00389153 -1.01888e-08 3.63259e-08 -1.67249e-08 0.0005 1.46608e-07 
106 1 0.0439552 0.0161318 0.00656318 1.95425e-16 -2.75167e-15 -2.89972e-15 -1.32349e-23 0 0 0.0005 1.46608e-07 
107 1 0.0520199 0.0161074 0.0146366 0.000329348 0.0150558 0.0135622 -2.21662e-09 1.27361e-08 -1.8734e-09 0.0005 1.46608e-07 
108 1 0.0619123 0.0232007 0.0123746 8.97103e-05 0.00515314 -0.0211521 -3.27199e-10 -1.05472e-08 -5.77125e-09 0.0005 1.46608e-07 
109 1 0.0509543 0.0204273 0.0155929 0.00079608 0.0180172 -0.0068108 -4.43296e-09 9.27387e-09 -1.40224e-08 0.0005 1.46608e-07 
112 1 0.0480656 0.0181085 0.00733985 0.00119347 -0.0197035 0.00264958 1.05843e-08 6.39339e-09 2.32547e-08 0.0005 1.46608e-07 
113 1 0.0483559 0.0195432 0.00723349 0.000457342 -0.0187086 -0.00253528 5.83521e-09 -2.90771e-07 -3.29001e-08 0.0005 1.46608e-07 
121 1 0.0462974 0.0190448 0.00717074 0.00092314 0.000173746 -0.000963028 -4.34926e-08 1.79972e-07 2.18099e-08 0.0005 1.46608e-07 
124 1 0.0591124 0.0150758 0.00994096 0.0999224 0.476702 0.00753317 0.160568 -0.101048 -0.105862 0.0005 1.46608e-07 
125 1 0.0469143 0.0148892 0.0108005 -0.000150478 -0.00502838 0.0216327 -1.66859e-09 1.03333e-08 6.56749e-09 0.0005 1.46608e-07 
126 1 0.0286258 0.0183498 0.00592583 -1.9446e-14 1.66911e-16 -2.28119e-13 2.64698e-22 8.96788e-21 0 0.0005 1.46608e-07 
127 1 0.0596795 0.0167409 0.00791051 0.000705701 -0.0152718 0.0109854 -2.91136e-09 -3.47578e-09 1.61808e-08 0.0005 1.46608e-07 
129 1 0.0342827 0.0152738 0.0134693 9.33022e-05 0.00978937 0.0194049 -5.07252e-10 1.28888e-08 -4.67898e-10 0.0005 1.46608e-07 
132 1 0.0511904 0.0194689 0.0157995 2.76975e-05 0.0226858 -0.00071764 5.05476e-10 3.38984e-09 -1.21903e-08 0.0005 1.46608e-07 
134 1 0.0477976 0.0170778 0.00771405 1.54546e-05 -0.014287 0.0063155 3.35382e-09 3.10503e-08 -7.6685e-09 0.0005 1.46608e-07 
137 1 0.0238948 0.0168123 0.00667048 -1.55894e-14 -3.19695e-14 -1.04791e-13 2.75286e-21 -3.70577e-22 -2.11758e-22 0.0005 1.46608e-07 
142 1 0.0470176 0.01787 0.0060864 -3.12563e-15 -1.74656e-14 -1.20236e-13 3.1102e-22 -1.32349e-22 0 0.0005 1.46608e-07 
146 1 0.0388539 0.0197419 0.00587248 -2.83264e-15 1.34604e-14 -6.65669e-14 0 0 0 0.0005 1.46608e-07 
149 1 0.0766607 0.0190533 0.00580856 -9.39684e-15 5.50335e-14 2.11123e-13 1.80928e-19 7.34272e-20 -1.3129e-20 0.0005 1.46608e-07 
159 1 0.0779397 0.0194308 0.00576583 6.45805e-15 -3.81047e-14 -1.46469e-13 3.00975e-19 -1.60407e-20 1.71524e-20 0.0005 1.46608e-07 
160 1 0.0522154 0.0153449 0.0137221 0.00049826 0.0105053 0.0177054 -2.22967e-09 1.29752e-08 1.80574e-09 0.0005 1.46608e-07 
163 1 0.0424878 0.0188132 0.00581899 -4.51498e-15 1.30452e-14 7.16622e-14 0 0 0 0.0005 1.46608e-07 
165 1 0.0920805 0.0205253 0.0059177 -7.84821e-15 -7.28946e-14 1.85342e-13 0 0 0 0.0005 1.46608e-07 
174 1 0.046004 0.0160967 0.0146456 0.000237045 0.0151223 0.0141479 -9.12194e-10 1.25001e-08 -2.56482e-09 0.0005 1.46608e-07 
182 1 0.0444937 0.0222828 0.0143503 -1.01998e-06 0.0153836 -0.0161694 -1.42644e-09 -4.98367e-09 -1.17388e-08 0.0005 1.46608e-07 
187 1 0.102423 0.0196788 0.00582979 1.50092e-15 2.2653e-15 -1.78459e-14 2.62845e-20 -5.29396e-21 1.27055e-21 0.0005 1.46608e-07 
189 1 0.0453636 0.0157749 0.00687326 7.11183e-17 -1.42918e-15 -1.74754e-15 -5.29396e-23 1.58819e-22 2.11758e-22 0.0005 1.46608e-07 
193 1 0.377401 0.0175318 0.00839032 1.75063e-06 0.00173325 0.000931434 7.23455e-10 -9.81912e-08 1.56407e-08 0.0005 1.46608e-07 
195 1 0.0507369 0.0203921 0.00594173 -5.72402e-15 -2.04839e-14 -3.07615e-13 7.44463e-22 1.95876e-21 0 0.0005 1.46608e-07 
198 1 0.0447217 0.021318 0.0151864 0.000572846 0.0159891 -0.00817913 7.99618e-09 -3.41975e-08 2.85033e-10 0.0005 1.46608e-07 
201 1 0.0440263 0.0170728 0.00623272 2.29464e-16 -6.63856e-16 -3.64347e-15 1.58819e-22 0 0 0.0005 1.46608e-07 
209 1 0.0504682 0.0222518 0.0143543 0.00207396 0.00738589 -0.00907449 -2.06321e-06 -3.55391e-07 -2.8978e-07 0.0005 1.46608e-07 
213 1 0.0559427 0.0232908 0.0124069 0.000305881 0.00381888 -0.0196782 -2.15801e-09 -8.15836e-09 -1.32862e-08 0.0005 1.46608e-07 
215 1 0.0570596 0.0200604 0.0156759 0.000764188 0.0205223 -0.00296264 -2.24157e-08 -3.87502e-08 -4.25354e-08 0.0005 1.46608e-07 
221 1 0.059059 0.0180876 0.00593586 7.18669e-15 -1.49147e-14 -1.83491e-13 -1.91906e-21 -1.01909e-21 0 0.0005 1.46608e-07 
223 1 0.0533999 0.0157022 0.00893591 0.00129036 -0.0096816 0.0134319 5.61509e-09 1.44545e-08 -3.30958e-09 0.0005 1.46608e-07 
226 1 0.0316007 0.0183082 0.00603438 1.31802e-14 -4.47405e-14 -1.10001e-13 8.12622e-21 1.05879e-21 1.27055e-21 0.0005 1.46608e-07 
227 1 0.0395312 0.017698 0.0155207 0.000940763 0.0182433 0.00511198 -6.34708e-09 1.99375e-08 -3.9326e-09 0.0005 1.46608e-07 
229 1 0.0215463 0.0196109 0.00592744 -1.81462e-14 8.13654e-15 -1.66092e-13 6.88214e-22 0 -2.11758e-22 0.0005 1.46608e-07 
240 1 0.0553698 0.0229683 0.00977199 5.65779e-05 -0.00803297 -0.0202356 -1.47971e-09 -1.15708e-08 3.65155e-10 0.0005 1.46608e-07 
242 1 0.0543353 0.0194929 0.00724219 0.000164482 -0.0204738 -0.00159109 -6.00907e-10 -8.38278e-09 9.98467e-09 0.0005 1.46608e-07 
245 1 0.0546957 0.0209768 0.00761997 0.00207481 -0.0108417 -0.0061128 2.11294e-08 5.61282e-08 2.99183e-08 0.0005 1.46608e-07 
246 1 0.0242602 0.0201274 0.00583803 -1.07556e-14 -1.73291e-15 1.75368e-13 0 0 0 0.0005 1.46608e-07 
256 1 0.0407378 0.014801 0.011684 9.41979e-05 0.000465801 0.0216487 -9.02915e-10 1.11949e-08 3.93097e-09 0.0005 1.46608e-07 
257 1 0.0312743 0.0228626 0.00939635 8.59825e-05 -0.00717879 -0.0127843 1.20309e-08 -9.6965e-09 5.98499e-09 0.0005 1.46608e-07 
258 1 0.0368723 0.0215004 0.00796735 0.0025723 -0.00862516 -0.0058563 1.40457e-06 -4.26233e-08 -9.5638e-07 0.0005 1.46608e-07 
270 1 0.0504712 0.0179279 0.00611076 -3.6999e-15 -1.32327e-14 -1.98725e-13 -5.79026e-22 7.67624e-22 0 0.0005 1.46608e-07 
273 1 0.0371638 0.0187263 0.00573865 3.81493e-15 -1.819e-14 8.99476e-14 -1.76355e-20 2.5411e-21 1.48231e-21 0.0005 1.46608e-07 
274 1 0.0328558 0.0191954 0.00572294 8.89652e-16 5.06752e-15 -1.9634e-14 1.42937e-21 0 0 0.0005 1.46608e-07 
277 1 0.044465 0.0204317 0.00594645 -3.02329e-15 2.53102e-14 -8.0311e-14 -1.3303e-19 3.44107e-21 5.92923e-21 0.0005 1.46608e-07 
279 1 0.0424893 0.0202032 0.00730863 0.000660873 -0.018387 -0.00461832 -1.90985e-09 -1.60851e-08 8.14885e-09 0.0005 1.46608e-07 
280 1 0.0568218 0.0208693 0.0153871 0.000887202 0.0162085 -0.00889739 -1.26911e-08 1.90521e-07 -1.57771e-07 0.0005 1.46608e-07 
281 1 0.0563001 0.0227356 0.0137277 0.0023742 0.010066 -0.0141682 2.62958e-08 -4.27589e-08 3.51066e-08 0.0005 1.46608e-07 
283 1 0.0501357 0.0229685 0.0131326 0.00026539 0.0080666 -0.0194996 -1.98834e-09 -8.11947e-09 -9.12491e-09 0.0005 1.46608e-07 
291 1 0.0350698 0.0188001 0.00572051 -7.08241e-15 -4.06758e-14 1.57633e-13 1.63186e-20 4.49986e-21 1.90582e-21 0.0005 1.46608e-07 
293 1 0.0355619 0.0162347 0.00826489 0.000501358 -0.00836371 0.00659123 -3.79272e-09 -1.51468e-08 1.47521e-08 0.0005 1.46608e-07 
296 1 0.0431416 0.0225905 0.00900661 -6.2215e-05 -0.0114797 -0.0194974 -9.40289e-10 -1.00081e-08 3.54681e-09 0.0005 1.46608e-07 
298 1 0.0471937 0.0152446 0.00968865 0.000502604 -0.00834153 0.0187723 -4.14322e-09 4.89287e-09 1.42428e-08 0.0005 1.46608e-07 
