ITEM: TIMESTEP
6400000
ITEM: NUMBER OF ATOMS
193
ITEM: BOX BOUNDS ff ff ff
-0.02 0.43
-0.02 0.06
-0.02 0.07
ITEM: ATOMS id type x y z vx vy vz fx fy fz radius mass 
1 1 0.0220594 0.0241177 0.0144668 -0.00162962 0.000243743 -0.00212609 3.47995e-05 -4.8914e-06 6.76822e-06 0.0005 1.46608e-07 
2 1 0.0196096 0.0138723 0.0131823 -0.000485938 -0.000247551 0.00766618 -6.10343e-06 -1.90092e-05 1.69007e-05 0.0005 1.46608e-07 
3 1 0.0276329 0.0171562 0.00759917 0.000974189 -0.0127031 0.00503242 -1.55406e-08 1.9676e-08 -1.33501e-10 0.0005 1.46608e-07 
4 1 0.0207643 0.0150783 0.0135121 0.0076277 0.00639072 0.0117965 -4.01404e-08 -1.01887e-07 -1.30852e-06 0.0005 1.46608e-07 
6 1 0.0246523 0.0162361 0.0163078 -0.00259594 0.0257322 -0.0322003 1.15262e-05 1.07769e-05 1.8506e-05 0.0005 1.46608e-07 
8 1 0.0292983 0.023218 0.0127562 0.00120919 0.00622618 -0.0171695 1.75599e-09 -1.79019e-08 3.37551e-09 0.0005 1.46608e-07 
9 1 0.0427568 0.0185796 0.00587847 5.41634e-15 -1.55197e-14 -8.5344e-14 1.33818e-19 4.45222e-20 4.23516e-22 0.0005 1.46608e-07 
10 1 0.0222678 0.0165666 0.0161265 -0.0347309 0.00703514 0.00353319 4.15189e-07 -2.75368e-07 -1.51637e-07 0.0005 1.46608e-07 
13 1 0.0179974 0.0243245 0.0139745 -0.00320523 -0.00475687 -0.00335899 -6.57795e-05 6.48661e-05 -8.58572e-05 0.0005 1.46608e-07 
14 1 0.0141589 0.0190704 0.0159476 -0.000756326 0.00299452 -0.0292048 0 0 -1.43822e-06 0.0005 1.46608e-07 
15 1 0.0229593 0.0234113 0.0114077 0.000749253 -0.000380686 -0.0122892 -3.34375e-07 -2.03107e-07 -2.99408e-07 0.0005 1.46608e-07 
17 1 0.0209465 0.0240157 0.0130019 -0.000120915 -0.000994672 -0.0012856 -2.02572e-05 -2.20718e-06 1.46139e-05 0.0005 1.46608e-07 
18 1 0.08261 0.0191091 0.00590955 -1.80323e-14 -5.04831e-14 2.16944e-13 1.8648e-20 8.17916e-20 1.54584e-20 0.0005 1.46608e-07 
19 1 0.0195361 0.0233391 0.014844 0.00543985 0.0301381 -0.0471003 0 0 -1.43822e-06 0.0005 1.46608e-07 
20 1 0.0204917 0.0166066 0.0163153 0.017143 0.063948 0.024797 0 0 -1.43822e-06 0.0005 1.46608e-07 
21 1 0.0203838 0.0194767 0.0159362 7.73324e-05 0.0202595 -0.00212012 1.31324e-07 2.87734e-07 3.44616e-08 0.0005 1.46608e-07 
22 1 0.0223148 0.0230357 0.0152062 0.00232295 0.0125389 -0.0376763 0 0 -1.43822e-06 0.0005 1.46608e-07 
23 1 0.022428 0.015449 0.0160954 -0.0177958 0.0208725 -0.00422108 0 0 -1.43822e-06 0.0005 1.46608e-07 
24 1 0.0190534 0.0234866 0.0117918 0.00128686 0.00118159 -0.00067062 1.0285e-05 2.77696e-06 1.27942e-05 0.0005 1.46608e-07 
26 1 0.0192177 0.019045 0.0205799 -0.448076 0.0826449 0.182557 0 0 -1.43822e-06 0.0005 1.46608e-07 
28 1 0.0181714 0.0234412 0.0121869 0.000124271 0.00250601 -0.0100726 6.44656e-06 2.71559e-05 4.54039e-05 0.0005 1.46608e-07 
29 1 0.0187413 0.0192372 0.0159407 3.09023e-06 0.0231326 -0.000964438 -2.88102e-08 8.98257e-07 -3.45238e-07 0.0005 1.46608e-07 
31 1 0.0250477 0.0184579 0.0183406 -0.0425759 0.00427403 -0.112312 0 0 -1.43822e-06 0.0005 1.46608e-07 
32 1 0.0248032 0.0201079 0.0158207 0.100895 0.0497274 -0.0116882 0 0 -1.43822e-06 0.0005 1.46608e-07 
33 1 0.0211781 0.0175412 0.00747112 0.00119156 -0.0186745 0.00548416 4.35061e-09 -6.49679e-08 6.37342e-08 0.0005 1.46608e-07 
34 1 0.0283247 0.0223814 0.00870199 0.000334919 -0.0131741 -0.0153829 -5.74715e-10 -1.0537e-08 4.02439e-09 0.0005 1.46608e-07 
35 1 0.0230289 0.014761 0.0145289 0.00454497 0.00234937 0.00657886 9.15173e-06 2.08477e-06 4.46746e-06 0.0005 1.46608e-07 
36 1 0.0212185 0.0243073 0.0139916 0.0013582 -0.000336107 -0.00318652 -3.0788e-05 -6.09339e-05 0.00013449 0.0005 1.46608e-07 
38 1 0.0217812 0.0238574 0.0133701 0.000269843 0.00280856 -0.00497753 -2.23225e-05 -7.81407e-06 2.53543e-05 0.0005 1.46608e-07 
39 1 -0.0184786 0.00716032 0.00325409 -0.189006 -0.0711378 -1.12414 0 0 -1.43822e-06 0.0005 1.46608e-07 
40 1 0.0261411 0.0191284 0.0172844 0.0237393 -0.136218 0.041109 5.07463e-06 4.01497e-06 -5.2963e-06 0.0005 1.46608e-07 
42 1 0.0259302 0.00975865 0.0327135 -0.0333083 0.0462033 -0.103663 0 0 -1.43822e-06 0.0005 1.46608e-07 
43 1 0.0199618 0.0148141 0.0147553 -0.0218953 0.0244256 0.002007 3.63371e-06 4.2574e-06 -1.31206e-06 0.0005 1.46608e-07 
46 1 0.019702 0.014053 0.0141613 -0.00707775 0.00447727 0.0135151 -4.29399e-06 -6.80222e-06 5.11053e-06 0.0005 1.46608e-07 
48 1 0.026435 0.015142 0.00970962 0.000157907 -0.00899102 0.0192004 -8.7535e-10 7.49683e-09 9.9249e-09 0.0005 1.46608e-07 
49 1 0.0176795 0.0137451 0.0194555 -0.197635 0.441682 0.362551 0 0 -1.43822e-06 0.0005 1.46608e-07 
51 1 0.0199089 0.0258707 0.0553109 -0.123746 0.143308 1.30872 0 0 -1.43822e-06 0.0005 1.46608e-07 
52 1 0.0202861 0.0243679 0.0137008 0.00361175 -0.0203835 -0.00177568 -6.58641e-05 1.39615e-05 0.00013719 0.0005 1.46608e-07 
53 1 0.0222516 0.015695 0.0174035 -0.0306204 0.089876 -0.0692238 0 0 -1.43822e-06 0.0005 1.46608e-07 
54 1 0.0249571 0.0178044 0.0158356 0.0308267 0.0399441 -0.0129541 0 0 -1.43822e-06 0.0005 1.46608e-07 
56 1 0.030411 0.0193268 0.0158112 0.002324 0.0143844 -0.0021361 -1.78444e-08 7.02628e-08 -1.04617e-08 0.0005 1.46608e-07 
58 1 0.039128 0.0256416 0.0469501 0.108587 0.00328286 -0.177591 0 0 -1.43822e-06 0.0005 1.46608e-07 
59 1 0.0275362 0.0192522 0.00717635 0.000630245 -0.0179584 -0.00183784 2.16886e-09 1.97871e-09 1.41211e-08 0.0005 1.46608e-07 
62 1 0.0132996 0.0148725 0.0214022 0.0894306 0.098695 -0.300538 3.16493e-07 2.26134e-07 -8.9377e-07 0.0005 1.46608e-07 
64 1 0.0209282 0.0156253 0.0143567 -0.00356069 0.00509989 0.00597864 7.83063e-08 -3.19446e-07 -5.55774e-07 0.0005 1.46608e-07 
65 1 0.0261209 0.0147893 0.0109236 0.000244997 -0.0033096 0.0210923 -1.90578e-09 9.07858e-09 7.93389e-09 0.0005 1.46608e-07 
66 1 0.0309207 0.0172876 0.015421 0.00120333 0.0172921 0.0071728 -1.60725e-08 3.89893e-08 4.37791e-09 0.0005 1.46608e-07 
68 1 0.0258153 0.0202891 0.0168206 -0.0162888 -0.0490435 -0.031649 0 0 -1.43822e-06 0.0005 1.46608e-07 
69 1 0.0187001 0.0124557 0.0357796 -0.898153 -1.31122 2.94668 0 0 -1.43822e-06 0.0005 1.46608e-07 
70 1 0.025893 0.0177733 0.0171251 -0.0743804 -0.138318 -0.0263325 0 0 -1.43822e-06 0.0005 1.46608e-07 
71 1 0.0251922 0.022013 0.0207943 -0.0794472 -0.0832967 -0.265067 0 0 -1.43822e-06 0.0005 1.46608e-07 
72 1 0.0220567 0.0155661 0.0232257 -0.077325 -0.0603647 0.0264433 0 0 -1.43822e-06 0.0005 1.46608e-07 
73 1 0.0334108 0.00684197 0.0463747 0.0457399 -0.119848 -0.191532 0 0 -1.43822e-06 0.0005 1.46608e-07 
74 1 0.0189732 0.0244043 0.0138296 -0.00823682 0.00179429 -0.00991424 -0.000109868 3.64133e-05 -8.54977e-06 0.0005 1.46608e-07 
75 1 0.0244808 0.0063576 0.0381109 -0.0127474 0.0550845 -0.103709 0 0 -1.43822e-06 0.0005 1.46608e-07 
76 1 0.01759 0.02406 0.0131158 -0.00659646 -0.00272995 -0.000587218 -2.57242e-05 -1.3237e-05 3.4233e-05 0.0005 1.46608e-07 
78 1 0.0198712 0.0258705 0.0210698 0.00529181 -0.100328 -0.275505 0 0 -1.43822e-06 0.0005 1.46608e-07 
79 1 0.0197596 0.0148102 0.0128712 -0.000189417 0.00596648 0.0216685 1.89889e-06 4.01166e-09 7.75788e-08 0.0005 1.46608e-07 
82 1 0.016501 0.0234272 0.0144568 0.00463644 -0.00599695 -0.0036713 3.88921e-06 -9.26485e-07 5.17231e-05 0.0005 1.46608e-07 
83 1 0.0281192 0.0216746 0.00805018 0.00118433 -0.0133035 -0.00989181 -1.01692e-08 -2.64824e-08 -3.83664e-09 0.0005 1.46608e-07 
86 1 0.0253482 0.0156889 0.0141814 0.000734257 0.0128859 0.0157868 -9.72607e-09 1.63217e-08 8.47957e-09 0.0005 1.46608e-07 
88 1 0.0129462 0.0188448 0.015949 5.31517e-10 0.02054 0.00113806 2.25155e-15 9.17898e-10 -1.36709e-08 0.0005 1.46608e-07 
89 1 0.0286183 0.0229858 0.0096289 0.000107693 -0.00895235 -0.0208049 5.21331e-08 6.07417e-08 2.20202e-07 0.0005 1.46608e-07 
90 1 0.0188897 0.013852 0.016685 -0.00902969 -0.00984433 0.0152633 7.12832e-08 7.02874e-07 -1.41786e-06 0.0005 1.46608e-07 
91 1 0.0133932 0.0202542 0.0157817 0.00305629 0.00604061 -0.00252099 -2.49315e-07 5.8557e-07 -7.80137e-08 0.0005 1.46608e-07 
92 1 0.0188419 0.0156366 0.0155472 0.00379128 0.0116833 0.0107201 2.16325e-08 -1.35909e-07 -9.64069e-08 0.0005 1.46608e-07 
93 1 0.0202305 0.0140949 0.0169447 -0.0415719 0.0131289 -0.0362632 0 0 -1.43822e-06 0.0005 1.46608e-07 
96 1 0.0278798 0.0206174 0.00750075 0.000168668 -0.0196524 -0.00738878 -7.47019e-10 -1.08898e-08 6.72526e-09 0.0005 1.46608e-07 
97 1 0.0301035 0.0155701 0.0365263 0.262053 -0.152981 0.23228 0 0 -1.43822e-06 0.0005 1.46608e-07 
98 1 0.0138352 0.022024 0.0151607 0.00371298 0.00479668 -0.00674578 -2.77042e-08 4.31475e-08 1.49228e-07 0.0005 1.46608e-07 
99 1 0.0206878 0.0181351 0.0159891 -4.61541e-05 0.0240544 0.00292083 -3.69382e-08 -1.90005e-07 1.37505e-06 0.0005 1.46608e-07 
100 1 0.0302059 0.0204686 0.0154719 0.000475503 0.0193894 -0.00731936 -6.29444e-09 7.56725e-09 -1.37159e-08 0.0005 1.46608e-07 
101 1 0.0207488 0.0168729 0.0153832 0.000285105 0.0163093 0.0118839 -8.51356e-07 -9.08099e-07 6.75038e-07 0.0005 1.46608e-07 
102 1 0.0234121 0.023258 0.0152287 -0.00821338 -0.0033872 -0.0190206 0 0 -1.43822e-06 0.0005 1.46608e-07 
105 1 0.0269763 0.000104577 0.0664753 0.0854784 -0.214748 0.0645918 0 0 -1.43822e-06 0.0005 1.46608e-07 
106 1 0.0178435 0.0233902 0.0112769 0.000889495 -0.000801299 -0.00312159 -1.81233e-05 1.82364e-06 1.22143e-05 0.0005 1.46608e-07 
107 1 0.0195704 0.0240349 0.0125196 -0.00377273 -0.00318634 -0.00128339 -0.000120967 -6.17489e-05 -8.6234e-05 0.0005 1.46608e-07 
108 1 0.0288117 0.0233027 0.0106932 0.00166263 -0.00431309 -0.0175411 1.24416e-07 -1.08381e-07 1.41842e-07 0.0005 1.46608e-07 
109 1 0.0232022 0.0161953 0.0169974 -0.0632 -0.0130174 -0.0446841 0 0 -1.43822e-06 0.0005 1.46608e-07 
110 1 0.0186334 0.0139841 0.0129967 -0.00109338 -0.000802476 0.00233102 3.63189e-06 -1.8002e-06 6.05704e-07 0.0005 1.46608e-07 
111 1 0.019912 0.0158127 0.0145477 0.000710907 0.0140988 0.0136316 0 0 -1.43822e-06 0.0005 1.46608e-07 
112 1 0.0223437 0.0149515 0.0152317 0.00437999 0.010687 0.000964565 -3.22679e-06 -2.17348e-06 3.56912e-06 0.0005 1.46608e-07 
113 1 0.0212795 0.0176993 0.0168843 -0.0596507 -0.0569775 0.166098 0 0 -1.43822e-06 0.0005 1.46608e-07 
115 1 0.0189418 0.017277 0.0156763 8.25193e-05 0.0213336 0.00923845 -3.46158e-07 1.12228e-06 1.63548e-06 0.0005 1.46608e-07 
116 1 0.0366968 0.0113174 0.050425 0.18032 -0.103098 -0.101224 0 0 -1.43822e-06 0.0005 1.46608e-07 
117 1 0.0140513 0.0142483 0.0217957 0.0636679 0.0536928 -0.245843 0 0 -1.43822e-06 0.0005 1.46608e-07 
119 1 0.0221906 0.0144627 0.014073 0.00769213 0.00196457 0.00564116 -7.01286e-06 -3.02433e-06 -5.18046e-06 0.0005 1.46608e-07 
120 1 0.0193858 0.0221472 0.0323741 -0.45071 0.176555 1.35536 0 0 -1.43822e-06 0.0005 1.46608e-07 
121 1 0.0203775 0.0157701 0.0154337 -0.00207652 0.0154623 0.0180636 0 0 -1.43822e-06 0.0005 1.46608e-07 
122 1 0.00457198 0.0226206 0.0405457 0.062602 -0.0326341 -0.11301 0 0 -1.43822e-06 0.0005 1.46608e-07 
124 1 0.0269031 0.0165125 0.00805677 0.0516782 0.0951191 0.131189 0.311389 0.919019 1.18969 0.0005 1.46608e-07 
125 1 0.0187526 0.01824 0.0158682 -5.16361e-05 0.0229068 0.0043185 3.12061e-07 -1.9823e-06 -1.11162e-06 0.0005 1.46608e-07 
126 1 0.0232901 0.0158469 0.0156973 -0.0193017 0.00303637 -0.00550144 0 0 -1.43822e-06 0.0005 1.46608e-07 
127 1 0.0272204 0.0178463 0.00738504 0.000500417 -0.0123875 0.00314688 -1.59968e-08 -2.97132e-09 4.56005e-08 0.0005 1.46608e-07 
128 1 0.0176182 0.0154003 0.0153133 0.00215574 0.0130222 0.0132069 -3.30562e-09 -1.74153e-08 -5.73895e-08 0.0005 1.46608e-07 
129 1 0.0216809 0.0223544 0.015575 -0.00375149 0.0251738 -0.0202247 1.83907e-07 1.99864e-07 -1.93541e-07 0.0005 1.46608e-07 
130 1 0.0211251 0.0207902 0.0164616 3.7374e-07 0.0234448 -0.00793628 8.24455e-10 -1.70026e-08 -1.25944e-08 0.0005 1.46608e-07 
131 1 0.0205442 0.014234 0.0130221 -0.00366342 -0.000567239 0.0211621 1.95769e-05 1.73907e-05 -1.05477e-05 0.0005 1.46608e-07 
132 1 0.017789 0.014514 0.0141576 0.000247778 -3.44994e-05 -0.0015247 -4.86405e-08 -2.89556e-07 -7.88797e-07 0.0005 1.46608e-07 
134 1 0.0205814 0.0165897 0.018353 -0.599707 -0.277687 0.315877 0 0 -1.43822e-06 0.0005 1.46608e-07 
135 1 0.0257815 0.0126212 0.0377839 0.0357795 -0.212713 0.339209 0 0 -1.43822e-06 0.0005 1.46608e-07 
137 1 0.0182689 0.0227842 0.0139488 0.0106121 0.0278973 -0.0403676 0 0 -1.43822e-06 0.0005 1.46608e-07 
138 1 0.0276059 0.0136692 0.0284997 -0.0779203 0.02723 -0.235655 0 0 -1.43822e-06 0.0005 1.46608e-07 
142 1 0.0298425 0.0217545 0.014885 0.00297932 0.0101978 -0.00866651 -2.562e-06 -3.56321e-07 4.54905e-06 0.0005 1.46608e-07 
143 1 0.0195513 0.0161639 0.0161348 0.0350192 0.0653516 -0.0495644 0 0 -1.43822e-06 0.0005 1.46608e-07 
146 1 0.0180964 0.0143655 0.0155351 0.00344454 0.0078715 -0.0236134 0 0 -1.43822e-06 0.0005 1.46608e-07 
147 1 0.0155006 0.0233993 0.0144593 0.00369417 0.00190102 -0.000902349 0 0 -1.43822e-06 0.0005 1.46608e-07 
148 1 0.0256936 0.0161489 0.0216885 -0.0277768 0.00626784 -0.0930762 0 0 -1.43822e-06 0.0005 1.46608e-07 
149 1 0.0295541 0.022571 0.013891 0.00060566 0.0116352 -0.0176496 -8.20418e-09 7.56027e-10 -1.31338e-08 0.0005 1.46608e-07 
154 1 0.0123763 0.00816047 0.0434587 -1.73006 -1.92318 4.0205 0 0 -1.43822e-06 0.0005 1.46608e-07 
155 1 0.0207605 0.0161022 0.00834112 0.00195119 -0.0124436 0.00994568 6.65656e-09 4.40193e-08 4.35288e-09 0.0005 1.46608e-07 
156 1 0.0168371 0.0146745 0.0144186 0.00151387 -0.00034573 0.00157452 0 0 -1.43822e-06 0.0005 1.46608e-07 
159 1 0.01672 0.0142232 0.0135339 0.000659643 -0.000983058 0.00199007 -3.66722e-08 7.75385e-08 -7.33636e-07 0.0005 1.46608e-07 
160 1 0.0217272 0.0147412 0.0214429 -0.133394 -0.348809 0.217253 0 0 -1.43822e-06 0.0005 1.46608e-07 
161 1 0.0167367 0.0238982 0.0136076 0.00227974 -0.00209324 -0.00554487 -1.26316e-06 4.83374e-05 -8.79391e-05 0.0005 1.46608e-07 
163 1 0.0215206 0.0144682 0.016901 -0.0451342 0.00588428 -0.0344816 0 0 -1.43822e-06 0.0005 1.46608e-07 
165 1 0.0164631 0.0110764 0.0245343 0.0972451 0.0516515 -0.187708 0 0 -1.43822e-06 0.0005 1.46608e-07 
167 1 0.0174146 -0.000883457 0.0473577 0.0577542 -0.141734 -0.149446 0 0 -1.43822e-06 0.0005 1.46608e-07 
169 1 0.0159178 0.0144734 0.0140776 0.000651874 -0.000302615 -0.000334448 1.95273e-07 4.28075e-08 -3.36279e-07 0.0005 1.46608e-07 
171 1 0.013357 0.0211822 0.0154112 0.00372789 0.00553307 -0.00448803 -2.91414e-07 3.75149e-07 -4.47631e-07 0.0005 1.46608e-07 
172 1 0.0215113 0.0148781 0.0146799 0.00569323 0.00697366 -0.00527196 0 0 -1.43822e-06 0.0005 1.46608e-07 
174 1 0.0205583 0.0154839 0.00910043 0.000209511 -0.0098745 0.0147922 2.73791e-09 -3.52284e-08 8.6566e-08 0.0005 1.46608e-07 
177 1 0.0230375 0.0229113 0.00945384 0.00140839 -0.000369229 -0.003038 -6.396e-08 2.53324e-07 6.82012e-07 0.0005 1.46608e-07 
178 1 0.0146051 0.023028 0.0149183 0.00554091 0.00168236 -0.0036588 -1.08071e-09 8.38586e-09 1.28657e-08 0.0005 1.46608e-07 
180 1 0.0200262 0.0144988 0.0160505 -0.000662668 0.0211137 -0.087528 0 0 -1.43822e-06 0.0005 1.46608e-07 
182 1 0.0195504 0.0237812 0.0134297 -0.00638445 -0.0115953 0.00357519 -0.00013016 -2.02146e-05 0.000152435 0.0005 1.46608e-07 
186 1 0.0230095 0.0224016 0.0155968 -0.0114144 -0.00815316 -0.0105594 0 0 -1.43822e-06 0.0005 1.46608e-07 
187 1 0.0474618 0.0192773 0.00593797 4.68819e-15 -1.01942e-14 -1.05708e-13 2.12354e-19 -9.99499e-20 1.90582e-20 0.0005 1.46608e-07 
188 1 0.021494 0.0147572 0.0126461 0.00863498 0.0028648 0.00425224 2.70132e-06 -1.67593e-06 -2.8976e-06 0.0005 1.46608e-07 
189 1 0.0227375 0.0232897 0.0105644 0.00225011 -0.000464176 -0.0058203 7.30616e-08 1.9556e-07 -5.11083e-07 0.0005 1.46608e-07 
192 1 0.0213159 0.0139349 0.0143978 1.24609e-07 0.00165014 0.00115776 4.22476e-06 7.51295e-07 1.40721e-06 0.0005 1.46608e-07 
193 1 0.0250169 0.016837 0.0152923 0.00479697 0.0203578 0.0170721 3.6439e-06 -0.00013711 -8.11509e-05 0.0005 1.46608e-07 
194 1 0.0160948 0.0228692 0.015237 -0.031566 -0.0171158 0.0196317 0 0 -1.43822e-06 0.0005 1.46608e-07 
195 1 0.0221106 0.0184321 0.00724352 0.000247035 -0.0205342 0.00306923 -1.81592e-09 -4.41433e-09 1.00724e-08 0.0005 1.46608e-07 
198 1 0.0176744 0.014098 0.0132555 -0.00281663 0.000992411 -0.00118838 -2.19209e-06 1.46177e-08 8.34058e-07 0.0005 1.46608e-07 
201 1 0.021321 0.0184899 0.00722558 0.000234467 -0.0206829 0.00293291 -9.27988e-10 -7.82217e-09 1.17501e-08 0.0005 1.46608e-07 
209 1 0.0196222 0.0117968 0.022066 -0.120939 0.0374244 -0.0387114 0 0 -1.43822e-06 0.0005 1.46608e-07 
213 1 0.0243326 0.0153908 0.0158806 0.00698697 0.00918372 0.000317383 -1.15262e-05 -1.07769e-05 -2.13824e-05 0.0005 1.46608e-07 
214 1 0.0206144 0.0152906 0.0165439 -0.0578724 0.0655671 -0.0556252 0 0 -1.43822e-06 0.0005 1.46608e-07 
215 1 0.0252493 0.0187988 0.0159406 -0.0657785 0.0796462 -0.000629766 0 0 -1.43822e-06 0.0005 1.46608e-07 
216 1 0.0185818 0.0218376 0.0154801 -0.00703775 -0.117561 0.00689116 0 0 -1.43822e-06 0.0005 1.46608e-07 
217 1 0.0170657 0.0235513 0.0152822 0.0445547 0.00286746 -0.0352622 0 0 -1.43822e-06 0.0005 1.46608e-07 
218 1 0.0229836 0.0215221 0.0161486 -0.00378772 0.00234607 -5.94469e-05 7.12098e-08 1.27689e-06 -7.36919e-07 0.0005 1.46608e-07 
221 1 0.0585019 0.0190661 0.00583452 1.13036e-14 -2.34782e-14 -2.88773e-13 1.32812e-20 7.14684e-21 0 0.0005 1.46608e-07 
222 1 0.0335364 -0.0165503 0.0522657 0.163146 -0.41559 -0.0753656 0 0 -1.43822e-06 0.0005 1.46608e-07 
223 1 0.0177798 0.0227864 0.0148259 0.0221021 0.0291785 -0.0248406 0 0 -1.43822e-06 0.0005 1.46608e-07 
224 1 0.0190562 0.0238205 0.0157025 -0.0291095 -0.0210935 -0.040639 1.39228e-07 -3.22028e-07 -9.93953e-07 0.0005 1.46608e-07 
226 1 0.0186537 0.0239631 0.012939 -0.0199731 -0.0598547 -0.0688136 0 0 -1.43822e-06 0.0005 1.46608e-07 
227 1 0.0187513 0.0143476 0.0139208 -0.0005929 -0.00210225 0.000711697 -6.36705e-07 -2.38436e-07 7.93748e-07 0.0005 1.46608e-07 
228 1 0.0265541 0.0218387 0.0307812 0.170821 0.195021 1.08931 0 0 -1.43822e-06 0.0005 1.46608e-07 
229 1 0.0206698 0.0145921 0.0121186 -0.000131525 -0.00177099 0.0216286 5.46341e-06 1.03056e-05 -8.86259e-06 0.0005 1.46608e-07 
230 1 0.0246706 0.017104 0.0181916 -0.0620643 -0.105492 0.0355959 0 0 -1.43822e-06 0.0005 1.46608e-07 
235 1 0.0197092 0.0151814 0.0137982 0.00313709 0.00823294 0.0233968 4.41872e-07 4.03109e-07 8.60172e-07 0.0005 1.46608e-07 
239 1 0.0193894 0.0224701 0.0143571 0.000577548 0.0177228 -0.0266503 0 0 -1.43822e-06 0.0005 1.46608e-07 
240 1 0.025465 0.0103753 0.0304852 -0.0708824 0.0636183 -0.161865 0 0 -1.43822e-06 0.0005 1.46608e-07 
242 1 0.0203059 0.014994 0.0102467 0.000103178 -0.00630709 0.0205005 -1.27302e-08 -6.45173e-09 2.52071e-08 0.0005 1.46608e-07 
243 1 0.0184966 0.0148872 0.0147694 0.000807019 -0.00276983 -0.00221898 -4.57315e-08 -3.64867e-07 -4.02991e-07 0.0005 1.46608e-07 
245 1 0.0226262 0.0236004 0.0140518 -0.00131329 -0.00238716 0.00117333 1.19197e-05 -2.68254e-06 8.06749e-06 0.0005 1.46608e-07 
246 1 0.0199743 0.00386433 0.0411231 0.0157174 0.0208951 -0.0431017 -1.10699e-07 3.92122e-07 -8.70917e-07 0.0005 1.46608e-07 
253 1 0.0236766 0.0167198 0.0162344 -0.00533716 0.0185426 0.00851452 3.0565e-07 -1.864e-07 -9.06601e-08 0.0005 1.46608e-07 
254 1 0.0226252 0.0230363 0.00985433 0.0018467 -0.00241182 -0.00715047 -1.31348e-08 1.7579e-07 4.93226e-07 0.0005 1.46608e-07 
255 1 0.0197786 0.0186806 0.0159438 -0.000432211 0.021011 0.00177698 2.54577e-07 -5.32072e-07 -9.47992e-08 0.0005 1.46608e-07 
256 1 0.0207536 0.0147779 0.0153664 0.0080019 0.00247646 -0.0327332 0 0 -1.43822e-06 0.0005 1.46608e-07 
257 1 0.0237329 0.015166 0.0151124 0.00683135 0.00829064 0.00320687 -1.7159e-06 7.56465e-08 -9.96968e-07 0.0005 1.46608e-07 
258 1 0.0252224 0.0210392 0.0160589 0.0530534 -0.0652263 0.0354192 -7.5385e-07 4.02769e-08 -1.2598e-06 0.0005 1.46608e-07 
261 1 0.0239818 0.0185935 0.0209614 -0.0586638 -0.0691085 2.1581 0 0 -1.43822e-06 0.0005 1.46608e-07 
262 1 0.0213945 0.0142753 0.013496 0.00632498 0.00188142 0.00226621 8.49887e-06 1.65151e-06 3.11117e-06 0.0005 1.46608e-07 
263 1 0.0159028 0.0139326 0.0265976 -1.02019 0.342607 1.30246 0 0 -1.43822e-06 0.0005 1.46608e-07 
264 1 0.0219312 0.0209876 0.00771702 0.000234326 -0.0190992 -0.0112546 1.28869e-09 -7.08679e-09 9.15883e-09 0.0005 1.46608e-07 
266 1 0.0216182 0.0234805 0.01412 -0.00197747 0.00566637 -0.0136122 7.45831e-05 -3.02721e-05 4.5125e-05 0.0005 1.46608e-07 
268 1 0.022543 0.0225741 0.00915567 0.000395856 -0.00228503 -0.00436591 8.55532e-08 -3.15887e-08 1.80259e-08 0.0005 1.46608e-07 
269 1 0.0224183 0.0202798 0.0166107 -3.51635e-05 0.0241242 -0.00566893 3.62724e-08 2.73224e-09 -1.68411e-08 0.0005 1.46608e-07 
270 1 0.0153081 0.0151613 0.0136838 0.00168481 -0.000248989 -0.00175508 -4.0503e-08 9.81978e-08 -1.24354e-07 0.0005 1.46608e-07 
271 1 0.021741 0.0215215 0.0161285 -0.000174531 0.025997 -0.0164952 0 0 -1.43822e-06 0.0005 1.46608e-07 
273 1 0.0230647 0.0164197 0.0199912 -0.150967 -0.923177 0.573096 0 0 -1.43822e-06 0.0005 1.46608e-07 
274 1 0.0222601 0.012045 0.0229133 -0.0436111 0.0796823 -0.269974 0 0 -1.43822e-06 0.0005 1.46608e-07 
275 1 0.0155921 0.015473 0.0151661 -0.0015287 -0.0314009 -0.0886085 0 0 -1.43822e-06 0.0005 1.46608e-07 
276 1 0.0170242 0.0163847 0.0160231 -0.00103582 0.00895882 0.00611301 -3.32458e-09 -2.45536e-08 -8.20484e-09 0.0005 1.46608e-07 
277 1 0.0266214 0.0156666 0.00876125 0.00105237 -0.0111906 0.0143459 -8.36577e-09 -7.36757e-09 2.92948e-08 0.0005 1.46608e-07 
278 1 0.0254406 0.0170776 0.0164852 -0.084839 -0.129999 -0.0814702 0 0 -1.43822e-06 0.0005 1.46608e-07 
279 1 0.0198287 0.017692 0.0157934 0.000185036 0.0214018 0.00785251 -9.44959e-07 2.89203e-06 -7.56618e-07 0.0005 1.46608e-07 
280 1 0.0234474 0.0231486 0.0100827 0.00280194 0.00042276 -0.00518034 1.01151e-06 3.03474e-07 4.55026e-07 0.0005 1.46608e-07 
281 1 0.0213637 0.015654 0.0152992 -0.00753977 0.0155201 -0.00925079 0 0 -1.43822e-06 0.0005 1.46608e-07 
282 1 0.0175024 0.0191443 0.0172659 0.00273402 0.0055094 0.0930275 0 0 -1.43822e-06 0.0005 1.46608e-07 
283 1 0.0200813 0.0147234 0.0113514 -4.86982e-05 -0.00269194 0.0224877 1.23921e-07 2.65607e-07 -6.29271e-07 0.0005 1.46608e-07 
285 1 0.0207635 0.0229279 0.015008 -0.000973073 0.0209953 -0.0229144 2.31609e-07 2.45081e-07 -3.17707e-07 0.0005 1.46608e-07 
288 1 0.0380317 -0.00630021 0.0663142 0.202206 -0.303396 0.0663603 0 0 -1.43822e-06 0.0005 1.46608e-07 
291 1 0.0234829 0.0226913 0.0141296 0.0117128 0.0390542 0.0374444 -4.47983e-05 -3.88131e-05 -0.000190436 0.0005 1.46608e-07 
293 1 0.0172354 0.0235406 0.0123609 -0.000314582 0.00599616 -0.0162212 -1.83315e-06 2.84873e-05 3.91587e-05 0.0005 1.46608e-07 
294 1 0.0214906 0.0236024 0.0151359 0.00200812 0.0184945 -0.0264264 2.38777e-07 3.7817e-07 -1.09529e-06 0.0005 1.46608e-07 
296 1 0.0191346 0.0145205 0.0154481 0.0174855 0.0178467 -0.0530944 0 0 -1.43822e-06 0.0005 1.46608e-07 
297 1 0.0215545 0.0149304 0.0159746 -0.00817442 0.0128735 -0.0196452 0 0 -1.43822e-06 0.0005 1.46608e-07 
298 1 0.0168062 0.0151613 0.0158457 -0.00999921 0.00510016 -0.00888438 -7.78137e-08 -2.52334e-08 -3.66701e-07 0.0005 1.46608e-07 
