ITEM: TIMESTEP
36400000
ITEM: NUMBER OF ATOMS
88
ITEM: BOX BOUNDS ff ff ff
-0.02 0.43
-0.02 0.06
-0.02 0.07
ITEM: ATOMS id type x y z vx vy vz fx fy fz radius mass 
1 1 0.0388307 0.0187336 0.00577146 -9.43001e-15 8.71598e-14 2.22868e-13 -9.07913e-20 1.35525e-20 -9.31736e-21 0.0005 1.46608e-07 
2 1 0.034705 0.0218478 0.0146855 -0.000353661 0.0160532 -0.0121105 -4.70144e-09 -2.01329e-08 -6.90475e-09 0.0005 1.46608e-07 
3 1 0.055111 0.01495 0.0103952 3.57478e-05 -0.00697384 0.016433 2.55299e-09 2.94596e-08 -1.83686e-08 0.0005 1.46608e-07 
8 1 0.0590828 0.0203019 0.0156289 0.000378553 0.017137 -0.00456418 4.59624e-10 4.03502e-09 -3.11659e-08 0.0005 1.46608e-07 
9 1 0.0436892 0.020408 0.00596775 2.40233e-15 -2.04486e-14 6.4884e-14 -7.94093e-21 1.05879e-21 6.35275e-22 0.0005 1.46608e-07 
14 1 0.0387688 0.020769 0.00755231 0.0830829 1.14071 -2.00958 0.00196143 0.0135401 0.0305169 0.0005 1.46608e-07 
18 1 0.08261 0.0191091 0.00590955 -1.81205e-14 -5.05423e-14 2.16923e-13 3.27325e-19 -1.54478e-19 -7.41154e-21 0.0005 1.46608e-07 
26 1 0.103453 0.0178822 0.00580682 1.6905e-15 7.51604e-15 2.07276e-13 4.67357e-21 -2.11758e-21 0 0.0005 1.46608e-07 
28 1 0.0483907 0.0152499 0.0134295 -6.21145e-06 0.0081091 0.0212401 -1.61485e-09 1.04664e-08 -1.55108e-09 0.0005 1.46608e-07 
32 1 0.0458896 0.0168235 0.00626774 -4.52738e-15 -2.52971e-14 -1.74151e-13 9.92617e-22 -2.11758e-22 2.11758e-22 0.0005 1.46608e-07 
34 1 0.0572659 0.0174442 0.00591793 9.17936e-15 -1.90559e-14 -2.34434e-13 2.15067e-21 1.03232e-21 0 0.0005 1.46608e-07 
38 1 0.0497464 0.0164079 0.00818795 0.000510138 -0.0152457 0.0131798 -2.16839e-09 5.59361e-10 1.42683e-08 0.0005 1.46608e-07 
46 1 0.0521882 0.0230695 0.0129293 0.00155865 0.0050559 -0.0148561 -2.49551e-09 -5.13024e-09 -2.17952e-08 0.0005 1.46608e-07 
48 1 0.0555071 0.0161425 0.00860719 0.00135027 -0.0071203 0.00966263 -4.88507e-08 -1.94214e-07 9.52816e-08 0.0005 1.46608e-07 
54 1 0.0543853 0.0152619 0.0135622 0.00102598 0.00980775 0.0171744 -1.13464e-08 1.44153e-08 1.50723e-08 0.0005 1.46608e-07 
56 1 0.0570856 0.0218719 0.00822982 0.000931041 -0.0105308 -0.00835618 -3.27695e-09 -1.8817e-08 7.13163e-09 0.0005 1.46608e-07 
59 1 0.0793161 0.0192087 0.00581236 1.52383e-14 5.1843e-14 2.19699e-13 1.41481e-20 3.38284e-20 -9.74088e-21 0.0005 1.46608e-07 
64 1 0.0170063 0.0201419 0.00601043 1.29742e-14 5.26674e-15 -1.07343e-13 1.03814e-19 -4.84397e-20 1.01644e-20 0.0005 1.46608e-07 
65 1 0.0632091 0.0196192 0.00574818 4.00921e-15 5.47562e-14 -1.5184e-13 8.02762e-20 1.90582e-21 3.17637e-21 0.0005 1.46608e-07 
66 1 0.0448733 0.0164686 0.00634571 -5.39019e-16 -2.8421e-15 -1.97381e-14 1.05879e-22 3.70577e-22 1.69407e-21 0.0005 1.46608e-07 
68 1 0.0562343 0.0184031 0.00731486 6.40773e-06 -0.0219817 0.00245549 -9.95817e-10 -2.09063e-09 1.18348e-08 0.0005 1.46608e-07 
70 1 0.0468255 0.021394 0.0151492 0.00117386 0.0127553 -0.00802875 -1.03998e-08 2.97213e-08 -6.59244e-08 0.0005 1.46608e-07 
74 1 0.039029 0.0216851 0.00808976 0.000256883 -0.01646 -0.0124456 -5.62262e-10 -1.09915e-08 3.8333e-09 0.0005 1.46608e-07 
82 1 0.0408604 0.0212073 0.0151845 0.00121185 0.0140446 -0.00998073 -6.08032e-09 1.75969e-08 -1.31048e-08 0.0005 1.46608e-07 
83 1 0.057678 0.0233015 0.0106316 0.00290273 -0.00413691 -0.0137713 -3.11107e-07 7.1314e-07 1.89503e-07 0.0005 1.46608e-07 
86 1 0.0548325 0.0147932 0.0117694 0.000293872 0.00137053 0.0209507 -8.10751e-10 1.20515e-08 4.60948e-09 0.0005 1.46608e-07 
88 1 0.0357086 0.0161117 0.00660683 -4.54186e-15 2.82015e-14 7.49085e-14 -1.66363e-19 -2.31875e-20 -6.35275e-22 0.0005 1.46608e-07 
89 1 0.0583934 0.0227473 0.0137107 -0.000339331 0.0137892 -0.0179345 9.98117e-10 -7.28813e-09 -8.01788e-09 0.0005 1.46608e-07 
90 1 0.0410533 0.0204975 0.0155505 0.00281689 0.0124954 -0.00256361 -2.35755e-08 3.53467e-08 -2.29862e-08 0.0005 1.46608e-07 
93 1 0.0511313 0.021911 0.00828261 0.000458548 -0.00967339 -0.0135798 -6.24699e-09 1.06534e-08 6.91039e-08 0.0005 1.46608e-07 
100 1 0.0596688 0.0176957 0.0155763 0.0010342 0.0166586 0.00444986 -7.56567e-09 2.50238e-08 -2.32416e-09 0.0005 1.46608e-07 
106 1 0.0439552 0.0161318 0.00656318 1.95919e-16 -2.75166e-15 -2.89974e-15 -3.70577e-22 0 -1.05879e-22 0.0005 1.46608e-07 
107 1 0.0487651 0.0149004 0.0118651 0.000192342 0.00225113 0.021042 -9.00036e-10 1.14484e-08 3.31695e-09 0.0005 1.46608e-07 
108 1 0.0587921 0.0215817 0.0149053 0.000276604 0.0165005 -0.0127215 -1.36315e-09 -1.52501e-09 -1.22324e-08 0.0005 1.46608e-07 
109 1 0.0478364 0.016953 0.0152889 0.000120917 0.0194032 0.0125067 2.04149e-09 1.00138e-08 -8.16171e-09 0.0005 1.46608e-07 
112 1 0.0450542 0.0217181 0.00814628 0.000707345 -0.0163446 -0.0133647 -1.57387e-08 2.41086e-08 2.13187e-09 0.0005 1.46608e-07 
113 1 0.0452478 0.022405 0.00879598 -0.00031124 -0.0112885 -0.0200786 1.58623e-08 6.82348e-09 1.47795e-08 0.0005 1.46608e-07 
121 1 0.0452733 0.0148085 0.0116707 -0.0027408 0.00153058 0.0152102 -5.50063e-09 1.05588e-08 2.36164e-09 0.0005 1.46608e-07 
124 1 0.0559336 0.0173292 0.00755082 0.00295 -0.0010183 -0.00034046 7.33783e-07 1.82938e-06 -2.79841e-06 0.0005 1.46608e-07 
125 1 0.0435668 0.0158002 0.00869656 0.00145105 -0.00815252 0.00950225 3.8954e-09 4.30478e-08 -3.54831e-08 0.0005 1.46608e-07 
126 1 0.0286258 0.0183498 0.00592583 -1.94461e-14 1.33256e-16 -2.28119e-13 -3.44107e-22 -9.49231e-21 0 0.0005 1.46608e-07 
127 1 0.0566616 0.0204233 0.0074156 0.00136456 -0.0149447 -0.00401252 -6.23766e-09 -2.21049e-08 2.40342e-09 0.0005 1.46608e-07 
129 1 0.0317124 0.016183 0.00831705 0.000363337 -0.0146372 0.013928 -2.52089e-09 7.57268e-10 1.32053e-08 0.0005 1.46608e-07 
132 1 0.0482276 0.0157938 0.0142883 0.000851446 0.0126661 0.0136644 -1.03699e-08 2.56395e-08 1.68333e-08 0.0005 1.46608e-07 
134 1 0.046451 0.0156571 0.00892512 0.000869635 -0.00651235 0.0076531 -3.23876e-08 -4.94009e-08 3.9585e-08 0.0005 1.46608e-07 
137 1 0.0238948 0.0168123 0.00667048 -1.55913e-14 -3.19673e-14 -1.04791e-13 7.94093e-22 2.48816e-21 -8.47033e-22 0.0005 1.46608e-07 
142 1 0.0470176 0.01787 0.0060864 -3.11844e-15 -1.74667e-14 -1.20236e-13 4.48001e-21 -1.48231e-21 0 0.0005 1.46608e-07 
146 1 0.0390565 0.0200205 0.00592023 -3.94831e-15 1.88492e-14 -9.3208e-14 7.88138e-21 -5.29396e-23 -4.23516e-22 0.0005 1.46608e-07 
149 1 0.0766607 0.0190533 0.00580856 -8.85797e-15 5.49372e-14 2.11172e-13 4.57199e-20 1.47701e-20 4.23516e-22 0.0005 1.46608e-07 
159 1 0.0779397 0.0194308 0.00576583 6.29408e-15 -3.8117e-14 -1.46473e-13 1.00883e-19 2.48816e-20 -2.11758e-21 0.0005 1.46608e-07 
160 1 0.0492844 0.0153359 0.00942381 0.00061328 -0.0127993 0.0185852 2.72467e-09 8.5714e-09 8.64208e-09 0.0005 1.46608e-07 
163 1 0.0424878 0.0188132 0.00581899 -4.51498e-15 1.30456e-14 7.16621e-14 0 0 0 0.0005 1.46608e-07 
165 1 0.0920805 0.0205253 0.0059177 -7.84785e-15 -7.28946e-14 1.85342e-13 0 0 0 0.0005 1.46608e-07 
174 1 0.0430773 0.0149381 0.0105068 0.000140796 -0.00595832 0.0214 4.76476e-10 9.54445e-09 7.16604e-09 0.0005 1.46608e-07 
182 1 0.0417739 0.017278 0.0153859 0.0001484 0.0197089 0.00957087 -1.97493e-09 1.02684e-08 -5.73805e-09 0.0005 1.46608e-07 
187 1 0.102423 0.0196788 0.00582979 1.51572e-15 2.26532e-15 -1.78446e-14 5.17219e-20 -4.18752e-20 -8.47033e-22 0.0005 1.46608e-07 
189 1 0.0453636 0.0157749 0.00687326 5.63753e-16 -1.13761e-14 -1.39066e-14 -1.05879e-22 1.11173e-21 1.27055e-21 0.0005 1.46608e-07 
193 1 0.377422 0.017554 0.00839386 7.66758e-06 -0.000494573 0.00070289 6.28164e-10 -4.13168e-08 4.97226e-09 0.0005 1.46608e-07 
195 1 0.0507369 0.0203921 0.00594173 -5.72313e-15 -2.04898e-14 -3.07615e-13 7.42874e-20 -1.34202e-20 -6.35275e-22 0.0005 1.46608e-07 
198 1 0.0420502 0.0163237 0.0148227 0.000514804 0.0148033 0.0135545 -4.1758e-09 -7.22082e-08 -4.0246e-08 0.0005 1.46608e-07 
201 1 0.0440263 0.0170728 0.00623272 2.29585e-16 -6.63849e-16 -3.64347e-15 -2.64698e-22 0 0 0.0005 1.46608e-07 
209 1 0.0474786 0.0186968 0.0157429 -0.000373561 0.0219069 0.00309036 7.10437e-09 6.54995e-09 -1.17209e-08 0.0005 1.46608e-07 
213 1 0.0529073 0.0210344 0.0153167 0.000234999 0.0186206 -0.00954859 -6.96954e-10 1.09031e-09 -1.23715e-08 0.0005 1.46608e-07 
215 1 0.0541138 0.0161255 0.0146757 0.00422589 0.00289237 0.00359714 2.26868e-07 -4.25592e-07 -4.01711e-07 0.0005 1.46608e-07 
221 1 0.059059 0.0180876 0.00593586 7.18722e-15 -1.49147e-14 -1.83491e-13 -9.99234e-22 -2.64698e-22 2.11758e-22 0.0005 1.46608e-07 
223 1 0.0505708 0.0200135 0.00734624 7.72657e-05 -0.0212873 -0.00558598 -9.58321e-11 -7.35197e-09 9.94365e-09 0.0005 1.46608e-07 
226 1 0.0316007 0.0183082 0.00603438 1.31459e-14 -4.4766e-14 -1.09994e-13 -6.37128e-20 -7.45389e-20 2.5411e-20 0.0005 1.46608e-07 
227 1 0.0359598 0.0165828 0.0149321 0.00265646 0.0112045 0.00647931 -1.34059e-08 3.67668e-08 3.05741e-08 0.0005 1.46608e-07 
229 1 0.0215463 0.0196109 0.00592744 -1.81457e-14 8.1435e-15 -1.66091e-13 0 0 0 0.0005 1.46608e-07 
240 1 0.0524624 0.0225646 0.0139573 0.000695608 0.0104157 -0.0164714 -3.83459e-09 -1.7815e-09 -1.57591e-08 0.0005 1.46608e-07 
242 1 0.0515624 0.023043 0.0102795 0.000539015 -0.00665607 -0.0193064 -4.27962e-09 -1.20452e-08 -3.93044e-09 0.0005 1.46608e-07 
245 1 0.0518615 0.0233242 0.0114088 0.00178719 -0.00183689 -0.0151801 -8.25459e-09 -7.17679e-09 -2.76052e-08 0.0005 1.46608e-07 
246 1 0.0242602 0.0201274 0.00583803 -1.07574e-14 -1.72601e-15 1.75368e-13 0 0 0 0.0005 1.46608e-07 
256 1 0.0373185 0.0152277 0.00954846 0.000606916 -0.0082413 0.0160335 -1.69974e-08 -1.00925e-09 2.74561e-08 0.0005 1.46608e-07 
257 1 0.0281585 0.0231743 0.0128294 0.000236859 0.00710596 -0.0180785 8.50154e-09 -2.46745e-08 1.61143e-08 0.0005 1.46608e-07 
258 1 0.03354 0.0231292 0.0100592 0.000502944 -0.00696373 -0.0182296 -3.12416e-09 -1.35511e-08 -8.08749e-09 0.0005 1.46608e-07 
270 1 0.0447465 0.0207613 0.0075328 0.000131187 -0.0197474 -0.00935428 -2.1052e-10 -8.95059e-09 7.99001e-09 0.0005 1.46608e-07 
273 1 0.0371638 0.0187263 0.00573865 3.82092e-15 -1.8188e-14 8.99477e-14 -7.82579e-20 -8.52327e-21 1.05879e-21 0.0005 1.46608e-07 
274 1 0.0328558 0.0191954 0.00572294 8.76326e-16 5.06752e-15 -1.96346e-14 2.11758e-22 0 0 0.0005 1.46608e-07 
277 1 0.05575 0.0167325 0.0079204 0.000756986 -0.00449154 0.00222523 1.29705e-06 1.07794e-06 -1.38549e-06 0.0005 1.46608e-07 
279 1 0.0398347 0.023399 0.011159 0.000403766 -0.000199803 -0.0221997 4.39548e-10 -1.18073e-08 -4.28956e-09 0.0005 1.46608e-07 
280 1 0.0536966 0.0175616 0.0155788 0.00109106 0.0137429 0.00545815 3.95891e-08 1.87495e-08 1.47203e-09 0.0005 1.46608e-07 
281 1 0.0535253 0.0185342 0.0157497 0.000207403 0.0206783 0.00232195 -1.10526e-09 7.7839e-09 -9.30459e-09 0.0005 1.46608e-07 
283 1 0.0471589 0.0200349 0.0157089 0.000632917 0.0200916 -0.00455322 -5.51405e-08 1.45023e-07 -4.48862e-08 0.0005 1.46608e-07 
291 1 0.0350698 0.0188001 0.00572051 -7.12632e-15 -4.06664e-14 1.57633e-13 4.82544e-20 5.50571e-21 3.81165e-21 0.0005 1.46608e-07 
293 1 0.032646 0.0203777 0.00748176 0.00100388 -0.0189933 -0.0053474 -1.02049e-08 -2.14693e-08 1.49304e-11 0.0005 1.46608e-07 
296 1 0.0405342 0.0223539 0.0141767 0.000109143 0.0150606 -0.0170077 -8.53145e-10 -5.93331e-09 -1.18246e-08 0.0005 1.46608e-07 
298 1 0.0437918 0.0165938 0.00797051 -4.10678e-06 -0.0197945 0.0108266 3.48817e-09 3.12454e-09 9.86894e-09 0.0005 1.46608e-07 
