ITEM: TIMESTEP
31800000
ITEM: NUMBER OF ATOMS
89
ITEM: BOX BOUNDS ff ff ff
-0.02 0.43
-0.02 0.06
-0.02 0.07
ITEM: ATOMS id type x y z vx vy vz fx fy fz radius mass 
1 1 0.0388307 0.0187336 0.00577146 -9.82477e-15 8.71108e-14 2.2287e-13 -1.39013e-19 1.47172e-20 -1.05879e-20 0.0005 1.46608e-07 
2 1 0.0309345 0.0174713 0.0154949 0.000676151 0.0179961 0.00665393 -7.92373e-09 2.72514e-08 -1.03571e-09 0.0005 1.46608e-07 
3 1 0.0508442 0.0161886 0.00833549 0.000496125 -0.0148702 0.0139204 -4.10082e-09 -5.28453e-10 1.45903e-08 0.0005 1.46608e-07 
8 1 0.0548274 0.0179033 0.0156574 0.000844364 0.0181703 0.00418732 -5.26887e-09 1.89658e-08 -8.03861e-09 0.0005 1.46608e-07 
9 1 0.0436892 0.020408 0.00596775 2.40341e-15 -2.04486e-14 6.4884e-14 2.66683e-21 -3.17637e-22 -2.11758e-22 0.0005 1.46608e-07 
14 1 0.0335249 0.0192464 0.00727841 -0.000648264 -0.0190221 -0.000791858 -1.20525e-08 -8.7889e-08 2.65577e-08 0.0005 1.46608e-07 
18 1 0.08261 0.0191091 0.00590955 -1.79519e-14 -5.05065e-14 2.16946e-13 -5.29396e-21 -3.01755e-20 -1.90582e-21 0.0005 1.46608e-07 
26 1 0.103453 0.0178822 0.00580682 1.68857e-15 7.51635e-15 2.07276e-13 -1.11173e-21 -2.1242e-21 2.11758e-22 0.0005 1.46608e-07 
28 1 0.0440019 0.0148248 0.0115435 0.00105505 -0.00140816 0.0210771 -6.60919e-09 7.79975e-09 6.17852e-09 0.0005 1.46608e-07 
32 1 0.0458692 0.0166351 0.00629564 2.92602e-16 1.62412e-15 1.1182e-14 -1.16467e-21 -7.94093e-23 2.11758e-22 0.0005 1.46608e-07 
34 1 0.0572659 0.0174442 0.00591793 9.17992e-15 -1.90558e-14 -2.34434e-13 -4.3609e-21 -1.37643e-21 0 0.0005 1.46608e-07 
38 1 0.0452587 0.0177822 0.00744863 7.92933e-05 -0.0204468 0.0064567 -5.64311e-10 -2.02828e-09 1.24929e-08 0.0005 1.46608e-07 
46 1 0.0477317 0.0222825 0.0143928 0.00124695 0.00951585 -0.0110928 2.19902e-08 3.77359e-08 4.90459e-09 0.0005 1.46608e-07 
48 1 0.0512658 0.0177052 0.00741247 0.000131414 -0.0195275 0.00673805 -5.28864e-10 -3.53007e-09 1.22665e-08 0.0005 1.46608e-07 
54 1 0.0502702 0.0149048 0.0105298 0.00159655 -0.00265618 0.0172321 -1.13374e-08 6.66896e-09 3.18273e-08 0.0005 1.46608e-07 
56 1 0.0529159 0.0232129 0.0109134 0.00100582 -0.00363151 -0.0189637 -6.49341e-09 -1.45925e-08 -1.62661e-08 0.0005 1.46608e-07 
59 1 0.0793161 0.0192087 0.00581236 1.53103e-14 5.18468e-14 2.19693e-13 -1.07057e-19 -6.14099e-21 7.19978e-21 0.0005 1.46608e-07 
64 1 0.0170063 0.0201419 0.00601043 1.30019e-14 5.26396e-15 -1.0734e-13 -1.13079e-19 -5.82865e-20 -1.67289e-20 0.0005 1.46608e-07 
65 1 0.0632091 0.0196192 0.00574818 3.9716e-15 5.47594e-14 -1.51839e-13 3.43842e-20 -5.82335e-22 1.05879e-21 0.0005 1.46608e-07 
66 1 0.0448873 0.0164493 0.00634816 -4.52776e-15 -2.52973e-14 -1.74151e-13 -3.70577e-22 -7.94093e-23 0 0.0005 1.46608e-07 
68 1 0.0520777 0.0214365 0.00789103 0.00142783 -0.010928 -0.00776097 1.24792e-08 6.1003e-08 4.06965e-08 0.0005 1.46608e-07 
70 1 0.0455342 0.0191546 0.00720041 0.00213765 -0.0144331 0.000868352 -1.40146e-08 -4.90069e-08 4.15455e-09 0.0005 1.46608e-07 
74 1 0.03392 0.0207257 0.00763178 0.000429294 -0.0184256 -0.00684098 -2.96553e-09 -1.62119e-08 6.17814e-09 0.0005 1.46608e-07 
82 1 0.0350258 0.0233725 0.0114128 0.000248322 -9.4236e-05 -0.0215727 -6.72493e-10 -9.78192e-09 -6.50833e-09 0.0005 1.46608e-07 
83 1 0.0537415 0.0222267 0.0144341 0.00149531 0.010187 -0.012389 -3.34026e-07 -1.83287e-06 2.27467e-06 0.0005 1.46608e-07 
86 1 0.0504598 0.0151471 0.00978891 -4.73828e-05 -0.00934831 0.0186199 9.83689e-09 5.84858e-09 6.69303e-09 0.0005 1.46608e-07 
88 1 0.0357086 0.0161117 0.00660683 -4.48587e-15 2.81803e-14 7.49198e-14 1.38913e-19 1.05879e-20 4.44692e-21 0.0005 1.46608e-07 
89 1 0.0539712 0.0215218 0.0150458 0.0010738 0.0182213 -0.0106952 3.19333e-07 -3.19694e-07 -5.90421e-08 0.0005 1.46608e-07 
90 1 0.0362735 0.0200326 0.0156749 -0.000163365 0.0088802 -0.00239817 2.91548e-09 1.08437e-07 -4.57236e-08 0.0005 1.46608e-07 
93 1 0.0464997 0.0225639 0.00911916 0.000198861 -0.009294 -0.0190634 -1.55537e-08 3.38776e-08 9.91379e-08 0.0005 1.46608e-07 
96 1 0.0531245 0.023361 0.0119347 0.00155108 0.0022103 -0.0130426 4.06514e-09 -1.16367e-08 9.86473e-09 0.0005 1.46608e-07 
100 1 0.055491 0.0154656 0.0139258 0.00088747 0.00816104 0.0148388 1.80862e-08 2.52464e-08 -4.65311e-08 0.0005 1.46608e-07 
106 1 0.0439552 0.0161318 0.00656318 1.95402e-16 -2.75166e-15 -2.89975e-15 -1.58819e-22 0 0 0.0005 1.46608e-07 
107 1 0.0444493 0.0152772 0.00974655 9.48739e-05 -0.00824557 0.0193096 -4.24766e-10 8.29767e-09 8.82812e-09 0.0005 1.46608e-07 
108 1 0.0542992 0.020204 0.0156776 0.000828226 0.0081363 -0.00228461 6.38046e-09 -1.17821e-08 1.22207e-08 0.0005 1.46608e-07 
109 1 0.0468868 0.0233227 0.0108362 0.00113606 -0.00347934 -0.0166878 -7.13041e-09 -1.29631e-08 -2.09107e-08 0.0005 1.46608e-07 
112 1 0.04096 0.0233726 0.0111004 0.000559539 -0.0012857 -0.0165237 4.28415e-09 -8.89861e-09 5.1506e-09 0.0005 1.46608e-07 
113 1 0.0412016 0.023341 0.0121559 0.000698749 0.00312167 -0.0198056 -2.4923e-09 -9.49123e-09 -1.14926e-08 0.0005 1.46608e-07 
121 1 0.0420536 0.0212531 0.0151358 -8.83723e-05 0.0131426 -0.00846796 -2.10559e-09 1.60014e-08 1.32509e-09 0.0005 1.46608e-07 
124 1 0.0518562 0.0202902 0.00742671 0.000182688 -0.0206343 -0.00620981 7.86393e-09 5.59715e-08 1.82654e-08 0.0005 1.46608e-07 
125 1 0.0392014 0.0173896 0.00751861 0.000164161 -0.0202891 0.00790227 -1.03938e-09 -2.54637e-09 1.26103e-08 0.0005 1.46608e-07 
126 1 0.0286258 0.0183498 0.00592583 -1.94461e-14 1.84539e-16 -2.28118e-13 -2.64698e-23 -3.1619e-22 -2.11758e-22 0.0005 1.46608e-07 
127 1 0.0525394 0.0225922 0.00930303 -0.000139944 -0.0104848 -0.0200239 -1.53198e-09 -9.50399e-09 4.5305e-09 0.0005 1.46608e-07 
129 1 0.027447 0.0186521 0.00719189 0.000494006 -0.0196808 0.00232897 -3.01525e-09 -1.06155e-08 1.12654e-08 0.0005 1.46608e-07 
132 1 0.0437685 0.0149321 0.0127035 0.000900515 0.00593895 0.0173965 -5.42044e-07 3.21803e-06 9.48575e-06 0.0005 1.46608e-07 
134 1 0.0434159 0.0156227 0.0141183 0.00121807 0.0116433 0.0150557 -1.72873e-08 5.94164e-08 6.15349e-08 0.0005 1.46608e-07 
137 1 0.0238948 0.0168123 0.00667048 -1.55918e-14 -3.19687e-14 -1.04791e-13 -3.70577e-22 2.11758e-22 0 0.0005 1.46608e-07 
142 1 0.0470176 0.01787 0.0060864 -3.12583e-15 -1.74654e-14 -1.20236e-13 4.83073e-22 -2.64698e-23 0 0.0005 1.46608e-07 
146 1 0.0390565 0.0200205 0.00592023 -3.93448e-15 1.88523e-14 -9.3208e-14 -1.74039e-20 -1.74701e-21 4.23516e-22 0.0005 1.46608e-07 
149 1 0.0766607 0.0190533 0.00580856 -9.13189e-15 5.49105e-14 2.11167e-13 3.62636e-20 6.43745e-20 -1.41878e-20 0.0005 1.46608e-07 
159 1 0.0779397 0.0194308 0.00576583 6.21934e-15 -3.81354e-14 -1.46471e-13 -4.58324e-20 1.26526e-20 -5.0822e-21 0.0005 1.46608e-07 
160 1 0.0449551 0.0165549 0.00801945 0.000465405 -0.0110626 0.00702894 2.73768e-06 1.54726e-05 8.30361e-05 0.0005 1.46608e-07 
163 1 0.0424878 0.0188132 0.00581899 -4.51498e-15 1.3045e-14 7.16622e-14 0 0 0 0.0005 1.46608e-07 
165 1 0.0920805 0.0205253 0.0059177 -7.84834e-15 -7.28946e-14 1.85342e-13 0 0 0 0.0005 1.46608e-07 
174 1 0.0389563 0.0165101 0.00796498 0.0071599 -1.45574e-05 -0.00186007 -1.01354e-07 1.65894e-07 1.15814e-07 0.0005 1.46608e-07 
182 1 0.0366962 0.0185441 0.0156646 -9.28814e-05 0.0217983 0.00376501 -1.32178e-09 4.43696e-09 -1.05781e-08 0.0005 1.46608e-07 
187 1 0.102423 0.0196788 0.00582979 1.51413e-15 2.26738e-15 -1.78445e-14 -3.56548e-20 3.29813e-20 1.27055e-21 0.0005 1.46608e-07 
189 1 0.0417952 0.0220602 0.0144695 0.000148822 0.0155697 -0.0152186 -2.63227e-09 -3.61678e-09 -1.08044e-08 0.0005 1.46608e-07 
193 1 0.377421 0.01752 0.00841229 -6.49655e-05 0.000380259 -0.000399035 2.66802e-10 5.44393e-09 -1.89611e-08 0.0005 1.46608e-07 
195 1 0.0507369 0.0203921 0.00594173 -5.71112e-15 -2.04763e-14 -3.07616e-13 1.53889e-20 3.04402e-22 -2.11758e-22 0.0005 1.46608e-07 
198 1 0.037538 0.0153834 0.0137454 0.000292225 0.010703 0.0187682 5.21355e-10 1.08696e-08 -2.39989e-09 0.0005 1.46608e-07 
201 1 0.0440263 0.0170728 0.00623272 2.29435e-16 -6.6385e-16 -3.64347e-15 1.05879e-22 0 0 0.0005 1.46608e-07 
209 1 0.0429872 0.0172406 0.0153602 8.50279e-05 0.0194127 0.0097143 -3.3422e-10 8.53502e-09 -8.2298e-09 0.0005 1.46608e-07 
213 1 0.0483874 0.019759 0.0157716 0.00213886 0.0132181 -0.00314018 -2.15674e-08 8.11282e-08 -1.85602e-08 0.0005 1.46608e-07 
215 1 0.0500104 0.0148809 0.0116848 0.00031212 0.00117183 0.0210886 -2.66484e-09 1.12116e-08 4.48648e-09 0.0005 1.46608e-07 
221 1 0.059059 0.0180876 0.00593586 7.18593e-15 -1.49143e-14 -1.83491e-13 -1.50878e-21 9.26442e-23 -2.11758e-22 0.0005 1.46608e-07 
223 1 0.046248 0.0220244 0.00833831 0.00320317 -0.00242508 -0.00386033 -5.8107e-09 -1.88752e-08 -1.51968e-08 0.0005 1.46608e-07 
226 1 0.0316007 0.0183082 0.00603438 1.31722e-14 -4.47326e-14 -1.10005e-13 1.4929e-20 -7.72918e-21 4.44692e-21 0.0005 1.46608e-07 
227 1 0.0311239 0.0164689 0.0149742 0.0001821 0.0170319 0.0134955 -6.84304e-10 1.09014e-08 -5.1986e-09 0.0005 1.46608e-07 
229 1 0.0215463 0.0196109 0.00592744 -1.8149e-14 8.14506e-15 -1.66091e-13 1.61466e-21 -5.22778e-21 -4.23516e-22 0.0005 1.46608e-07 
240 1 0.0480511 0.0212484 0.0151989 0.000190947 0.0193331 -0.0103346 -4.59819e-10 -1.98372e-09 -1.19468e-08 0.0005 1.46608e-07 
242 1 0.0472041 0.0232714 0.0121438 0.000177612 0.00444707 -0.0215577 -2.05891e-09 -1.02675e-08 -5.76264e-09 0.0005 1.46608e-07 
245 1 0.0475167 0.0228406 0.0134817 0.000220268 0.00834216 -0.0179273 -7.98071e-10 -6.11081e-09 -1.21362e-08 0.0005 1.46608e-07 
246 1 0.0242602 0.0201274 0.00583803 -1.07574e-14 -1.72574e-15 1.75368e-13 0 -5.06235e-22 0 0.0005 1.46608e-07 
256 1 0.0327965 0.0160524 0.00841324 0.000442179 -0.0144092 0.0143392 -3.00714e-09 7.81687e-10 1.38305e-08 0.0005 1.46608e-07 
257 1 0.020435 0.0150399 0.00991484 0.000538849 -0.00663654 0.0181215 -4.4818e-09 4.71484e-09 2.04086e-08 0.0005 1.46608e-07 
258 1 0.0296226 0.0225579 0.0139727 1.09202e-05 0.0120843 -0.0170442 1.50471e-09 -6.42074e-09 -1.09794e-08 0.0005 1.46608e-07 
270 1 0.040742 0.0230869 0.0100128 0.000164563 -0.0072821 -0.0195783 -4.7979e-10 -1.15859e-08 -2.27981e-09 0.0005 1.46608e-07 
273 1 0.0371638 0.0187263 0.00573865 3.79843e-15 -1.81832e-14 8.99496e-14 2.87197e-20 9.1056e-21 1.48231e-21 0.0005 1.46608e-07 
274 1 0.0328558 0.0191954 0.00572294 8.74348e-16 5.06752e-15 -1.96348e-14 3.50725e-21 0 2.11758e-22 0.0005 1.46608e-07 
277 1 0.0514507 0.0187283 0.00720363 0.000931782 -0.0144576 0.000419098 -2.59093e-09 -3.07655e-08 2.3224e-08 0.0005 1.46608e-07 
279 1 0.0345213 0.0226624 0.00917004 0.00024019 -0.0109826 -0.0187929 2.95852e-10 -1.12896e-08 3.26067e-09 0.0005 1.46608e-07 
280 1 0.0497568 0.0150873 0.0128831 -0.000457713 0.00525897 0.0214889 2.28532e-09 1.2095e-08 -2.97937e-11 0.0005 1.46608e-07 
281 1 0.0489047 0.017665 0.0155811 0.000847394 0.0176796 0.00513917 -7.93743e-09 2.48353e-08 -9.43442e-10 0.0005 1.46608e-07 
283 1 0.0426893 0.0184328 0.015783 0.0022984 0.0154676 0.00311586 -6.20108e-09 2.97628e-08 -2.86881e-08 0.0005 1.46608e-07 
291 1 0.0350698 0.0188001 0.00572051 -7.0821e-15 -4.06785e-14 1.57632e-13 1.54186e-20 -3.65283e-21 0 0.0005 1.46608e-07 
293 1 0.0283262 0.0222246 0.00852521 0.000266426 -0.0142302 -0.0155084 -5.94126e-12 -1.15111e-08 2.95098e-09 0.0005 1.46608e-07 
296 1 0.0347988 0.0232465 0.0103904 0.00319895 0.00160706 0.000323889 1.03571e-07 3.81108e-08 2.1868e-07 0.0005 1.46608e-07 
298 1 0.0400477 0.0210583 0.00772803 0.000526949 -0.0189595 -0.0130163 -2.62126e-08 2.07242e-08 1.51061e-08 0.0005 1.46608e-07 
