ITEM: TIMESTEP
18400000
ITEM: NUMBER OF ATOMS
89
ITEM: BOX BOUNDS ff ff ff
-0.02 0.43
-0.02 0.06
-0.02 0.07
ITEM: ATOMS id type x y z vx vy vz fx fy fz radius mass 
1 1 0.0389279 0.0193587 0.00579183 9.34695e-15 -4.4448e-14 2.19821e-13 3.2624e-21 4.76456e-22 0 0.0005 1.46608e-07 
2 1 0.0209325 0.0146532 0.0121434 -0.00730501 -0.000613524 -0.00794656 5.86473e-09 -2.29324e-08 5.50463e-08 0.0005 1.46608e-07 
3 1 0.041207 0.0223733 0.0141859 3.36875e-05 0.0145042 -0.0163378 2.86716e-07 2.79391e-07 -5.73191e-08 0.0005 1.46608e-07 
8 1 0.0420733 0.0190411 0.0157977 0.000464037 0.0190276 0.000538632 5.96813e-09 -2.56677e-07 -1.28272e-08 0.0005 1.46608e-07 
9 1 0.0436892 0.020408 0.00596775 2.40202e-15 -2.04483e-14 6.48841e-14 4.41384e-21 -5.29396e-23 0 0.0005 1.46608e-07 
14 1 0.0250004 0.0154284 0.0138407 0.000843142 0.0105459 0.0152311 -7.76132e-09 2.32908e-08 1.38645e-08 0.0005 1.46608e-07 
18 1 0.08261 0.0191091 0.00590955 -1.8488e-14 -5.04874e-14 2.16906e-13 1.60791e-19 1.14879e-20 1.63054e-20 0.0005 1.46608e-07 
26 1 0.103453 0.0178822 0.00580682 1.72579e-15 7.50746e-15 2.07276e-13 -1.63633e-20 -2.66021e-21 2.11758e-22 0.0005 1.46608e-07 
28 1 0.030789 0.016047 0.0146158 0.000569362 0.0146284 0.0140254 3.12747e-08 -4.53109e-08 -4.1546e-08 0.0005 1.46608e-07 
32 1 0.0458019 0.0165106 0.00631547 2.39463e-15 1.3371e-14 9.20546e-14 -9.5225e-21 1.19114e-21 0 0.0005 1.46608e-07 
34 1 0.0414888 0.0215149 0.0149848 0.00061355 0.0149154 -0.0115397 2.34013e-10 -1.83599e-08 -2.99758e-09 0.0005 1.46608e-07 
38 1 0.0317855 0.0148967 0.0103673 0.000195411 -0.00485937 0.0196824 -5.52171e-10 8.49231e-09 1.11233e-08 0.0005 1.46608e-07 
46 1 0.0337787 0.0218901 0.00823755 0.00177074 -0.0127034 -0.0122016 2.32823e-06 -2.43391e-06 -1.25492e-06 0.0005 1.46608e-07 
48 1 0.0378914 0.0150666 0.0098267 0.00113947 -0.00576363 0.0124935 -8.83079e-08 6.89365e-08 -2.16274e-07 0.0005 1.46608e-07 
54 1 0.0367118 0.0163443 0.0148523 8.31871e-05 0.0098261 0.00807465 -1.50284e-06 6.95088e-06 8.50647e-06 0.0005 1.46608e-07 
56 1 0.0431179 0.0151384 0.0132534 0.000221632 0.00851245 0.0190806 -9.79041e-10 1.21192e-08 1.32425e-09 0.0005 1.46608e-07 
59 1 0.0406133 0.0233643 0.0115919 4.37649e-05 0.00141285 -0.0226647 -2.03593e-09 -1.00839e-08 -8.31498e-09 0.0005 1.46608e-07 
64 1 0.0170063 0.0201419 0.00601043 1.30205e-14 5.25651e-15 -1.07338e-13 4.68515e-21 2.94476e-20 2.32934e-21 0.0005 1.46608e-07 
65 1 0.0376997 0.0148679 0.0109228 0.000402046 -0.00247216 0.0204431 -3.4874e-09 9.30211e-09 9.99721e-09 0.0005 1.46608e-07 
66 1 0.0434948 0.0148062 0.0117538 0.000167777 0.000749164 0.0217422 -2.56986e-09 1.12948e-08 5.42663e-09 0.0005 1.46608e-07 
68 1 0.0393623 0.0204461 0.00742477 0.00184865 -0.0155458 -0.00427377 -1.84156e-08 -4.66043e-08 -8.38888e-09 0.0005 1.46608e-07 
70 1 0.0320509 0.0153597 0.00928052 0.00138063 -0.01118 0.0160891 9.42544e-10 -2.25882e-08 1.02601e-07 0.0005 1.46608e-07 
74 1 0.0203252 0.0148587 0.0129749 0.00339621 0.00339146 0.0088447 1.65287e-09 -4.3702e-08 -9.45301e-09 0.0005 1.46608e-07 
82 1 0.0217805 0.0219905 0.00849099 0.000115217 -0.0152733 -0.0141587 -1.193e-09 -1.19288e-08 2.82875e-09 0.0005 1.46608e-07 
83 1 0.0409802 0.0229291 0.0134305 0.000815419 0.00940995 -0.0156214 -4.07927e-06 7.29877e-06 -1.3391e-05 0.0005 1.46608e-07 
86 1 0.0371864 0.0150312 0.013001 0.00091809 0.00742878 0.0179497 -9.40751e-09 1.45253e-08 1.45356e-08 0.0005 1.46608e-07 
88 1 0.0175537 0.0234808 0.0118115 -4.94416e-06 0.000103051 -0.000139861 6.55963e-11 7.96494e-09 -8.25153e-09 0.0005 1.46608e-07 
89 1 0.0416426 0.020813 0.0154505 0.00123355 0.014852 -0.00532798 2.11843e-08 -7.4055e-08 5.92185e-08 0.0005 1.46608e-07 
90 1 0.024258 0.0184071 0.0159049 0.000398673 0.0209685 0.00318825 -2.09836e-10 3.33142e-09 -1.44153e-08 0.0005 1.46608e-07 
93 1 0.0326839 0.0175682 0.00743629 0.000522255 -0.018621 0.00694358 -1.75924e-09 -5.07586e-09 1.43931e-08 0.0005 1.46608e-07 
96 1 0.0407924 0.0232473 0.0126084 0.000639573 0.00505266 -0.0195407 -2.06396e-06 2.10812e-07 -5.80057e-06 0.0005 1.46608e-07 
100 1 0.0428759 0.0158813 0.0144205 0.000197881 0.0145052 0.0165726 -6.2921e-09 1.65749e-07 4.03871e-08 0.0005 1.46608e-07 
106 1 0.0439974 0.0161245 0.00657288 -1.57214e-15 2.20998e-14 2.32856e-14 -1.32349e-23 0 1.05879e-22 0.0005 1.46608e-07 
107 1 0.0311085 0.0152497 0.013368 -0.000151975 0.00836033 0.0206042 -4.39949e-10 1.11227e-08 -2.22252e-09 0.0005 1.46608e-07 
108 1 0.0418344 0.0199796 0.0157057 5.31973e-05 0.0200718 -0.00398633 9.39283e-09 -3.7882e-08 -1.07345e-08 0.0005 1.46608e-07 
109 1 0.0329593 0.0186156 0.00730133 -0.00041086 -0.0220698 0.000444314 -1.48422e-08 -4.36124e-09 8.60859e-09 0.0005 1.46608e-07 
112 1 0.027752 0.0217957 0.00817807 0.000417103 -0.0160631 -0.0134929 -2.91315e-09 -1.16963e-08 4.50615e-09 0.0005 1.46608e-07 
113 1 0.0282816 0.0232223 0.0103107 0.000497611 -0.00286764 -0.0134986 2.08975e-09 -5.89705e-09 -9.16385e-09 0.0005 1.46608e-07 
121 1 0.0288621 0.0231417 0.012935 0.000218677 0.00824828 -0.0177674 1.08036e-06 -2.72151e-07 6.86748e-08 0.0005 1.46608e-07 
124 1 0.0390765 0.0190425 0.00718328 6.41581e-05 -0.0220898 -0.000730138 -1.00633e-09 -4.19583e-09 1.10763e-08 0.0005 1.46608e-07 
125 1 0.0261585 0.0155575 0.00891733 0.000831455 -0.0114202 0.0159293 -5.15894e-09 -1.13807e-10 1.85297e-08 0.0005 1.46608e-07 
126 1 0.0286258 0.0183498 0.00592583 -1.94461e-14 2.17485e-16 -2.28118e-13 -1.32349e-22 1.65548e-20 0 0.0005 1.46608e-07 
127 1 0.0399051 0.0223692 0.00870155 0.00089072 -0.0104326 -0.0131657 1.50869e-09 -5.63916e-09 1.41955e-08 0.0005 1.46608e-07 
129 1 0.0205398 0.0157786 0.00867701 -5.3684e-05 -0.0122655 0.0146878 -2.18998e-09 7.94618e-09 3.5055e-09 0.0005 1.46608e-07 
132 1 0.0300293 0.0192213 0.015832 0.00165168 0.014882 0.000297117 2.03817e-08 -5.26223e-08 -1.21356e-08 0.0005 1.46608e-07 
134 1 0.0298068 0.0200601 0.0156693 0.00041106 0.0190503 -0.00491337 1.68846e-09 -1.05276e-08 -7.34342e-09 0.0005 1.46608e-07 
137 1 0.0238881 0.0168749 0.0066524 -1.8926e-14 -3.88076e-14 -1.27204e-13 1.05879e-22 -5.29396e-23 0 0.0005 1.46608e-07 
142 1 0.0425472 0.0168298 0.0151439 0.000223528 0.0178195 0.0107077 -1.2762e-09 1.04774e-08 -5.81078e-09 0.0005 1.46608e-07 
146 1 0.0250211 0.0209277 0.0155393 -4.76072e-07 0.0203569 -0.00938937 -1.56901e-11 4.3384e-08 -4.30951e-08 0.0005 1.46608e-07 
149 1 0.0422914 0.0179278 0.0156479 0.000634159 0.0123059 0.0041723 7.5495e-10 -2.33058e-08 -8.38582e-09 0.0005 1.46608e-07 
159 1 0.0651534 0.0184728 0.00578214 1.66496e-16 -7.85278e-16 -1.33899e-14 -2.9977e-21 -7.41154e-22 0 0.0005 1.46608e-07 
160 1 0.0313173 0.0149052 0.0124503 0.00167004 0.00397982 0.0147529 4.46904e-09 -5.72799e-09 -4.47366e-08 0.0005 1.46608e-07 
163 1 0.0204381 0.0164052 0.00809202 0.0010871 -0.00999688 0.00691433 5.75536e-09 2.54593e-08 -3.44837e-08 0.0005 1.46608e-07 
165 1 0.0238089 0.0204945 0.0157025 0.000352332 0.0203504 -0.00701583 -7.35143e-10 -1.83209e-09 -1.53734e-08 0.0005 1.46608e-07 
174 1 0.0246844 0.0166018 0.0152232 0.00340177 0.00707267 0.00327529 2.29922e-08 -8.80763e-08 -6.01432e-08 0.0005 1.46608e-07 
182 1 0.0235717 0.0214655 0.0152371 8.14533e-06 0.0194053 -0.0125293 -7.27321e-10 -6.63649e-09 -1.64409e-08 0.0005 1.46608e-07 
187 1 0.102423 0.0196788 0.00582979 1.51252e-15 2.26957e-15 -1.78444e-14 -4.86515e-20 3.87253e-20 6.35275e-22 0.0005 1.46608e-07 
189 1 0.028601 0.0233683 0.0115341 0.000197342 0.000550568 -0.0218766 -1.03106e-09 -1.10844e-08 -9.45185e-09 0.0005 1.46608e-07 
193 1 0.379262 0.0170606 0.00867176 0.00130589 -0.00911278 0.00703326 1.08161e-08 7.6403e-08 -4.10254e-08 0.0005 1.46608e-07 
195 1 0.022785 0.0232694 0.0125444 0.000202099 0.00446744 -0.0199123 -1.12864e-09 -7.56764e-09 -1.08684e-08 0.0005 1.46608e-07 
198 1 0.0250587 0.0190043 0.015951 0.000710273 0.0207901 8.93637e-05 -3.28192e-10 1.06729e-09 -1.39717e-08 0.0005 1.46608e-07 
201 1 0.0440291 0.0170649 0.00623435 -1.84828e-15 5.3382e-15 2.93379e-14 1.05879e-22 0 -4.23516e-22 0.0005 1.46608e-07 
209 1 0.0295302 0.0212187 0.0152359 0.000150881 0.0203772 -0.00991896 6.40322e-10 -1.79696e-09 -1.22426e-08 0.0005 1.46608e-07 
213 1 0.0347624 0.0232772 0.0124013 0.000723557 0.00382027 -0.018369 -8.84587e-09 1.30059e-08 -1.01821e-07 0.0005 1.46608e-07 
215 1 0.0365048 0.0170646 0.015193 0.000361556 0.0121931 0.00735308 -2.21784e-06 3.76657e-06 1.9399e-06 0.0005 1.46608e-07 
221 1 0.0580541 0.0173356 0.00595763 9.18183e-15 -1.90547e-14 -2.34434e-13 0 0 0 0.0005 1.46608e-07 
223 1 0.0324561 0.0164486 0.00805557 0.00171439 -0.0120964 0.00812387 -9.1857e-09 -7.81602e-09 4.45494e-08 0.0005 1.46608e-07 
226 1 0.0193548 0.0147809 0.0127468 0.00105394 0.00506591 0.0179019 4.57328e-08 -4.80444e-08 -8.0719e-08 0.0005 1.46608e-07 
227 1 0.0198747 0.0150378 0.00996139 0.00143534 -0.00652132 0.0184813 -2.10475e-08 -1.25999e-08 1.54679e-08 0.0005 1.46608e-07 
229 1 0.0215463 0.0196109 0.00592744 -1.81457e-14 8.14304e-15 -1.66092e-13 -7.94093e-23 -3.17637e-21 -2.11758e-22 0.0005 1.46608e-07 
240 1 0.0345396 0.0233876 0.0113211 0.00047085 -0.000183704 -0.0212107 1.165e-09 -1.01124e-08 -3.0095e-09 0.0005 1.46608e-07 
242 1 0.0332699 0.0200783 0.00741169 0.000137361 -0.0205547 -0.00486462 -1.00723e-09 -7.59989e-09 9.04646e-09 0.0005 1.46608e-07 
245 1 0.0335185 0.0212341 0.0077936 0.00115166 -0.0150646 -0.00735158 8.92456e-08 7.0605e-07 -4.21796e-08 0.0005 1.46608e-07 
246 1 0.0242602 0.0201274 0.00583803 -1.07556e-14 -1.72598e-15 1.75368e-13 0 -4.81419e-22 0 0.0005 1.46608e-07 
256 1 0.0162575 0.0194293 0.0167399 -3.09807e-10 0.024652 -0.0018447 -1.31794e-13 -1.31314e-09 -1.68055e-08 0.0005 1.46608e-07 
257 1 0.0195982 0.0138958 0.0131434 0.00502288 -0.00108522 0.00180146 -4.35965e-08 -1.24636e-08 2.60404e-08 0.0005 1.46608e-07 
258 1 0.0215208 0.0210981 0.00777918 0.000505359 -0.0153113 -0.00928707 6.7462e-09 9.50045e-09 3.06721e-08 0.0005 1.46608e-07 
270 1 0.0273896 0.0206065 0.0074831 0.000176498 -0.0195915 -0.00742008 3.07369e-09 2.92499e-08 1.82318e-08 0.0005 1.46608e-07 
273 1 0.0159153 0.0235851 0.0142117 0.00233759 0.0016356 -0.000213409 -5.08238e-10 1.04023e-08 2.1704e-08 0.0005 1.46608e-07 
274 1 0.0186781 0.0236962 0.0122091 -0.00827677 -0.0360897 -0.0650579 3.0872e-08 -4.07579e-07 -7.34732e-07 0.0005 1.46608e-07 
277 1 0.0388127 0.0180202 0.00729468 0.000404165 -0.0193531 0.00484877 -3.21359e-09 -1.57088e-08 1.81606e-08 0.0005 1.46608e-07 
279 1 0.0211054 0.0142646 0.0131699 0.0043177 0.00209819 0.00106817 -3.72629e-08 -2.68502e-08 -1.37142e-07 0.0005 1.46608e-07 
280 1 0.0361057 0.0189588 0.0156905 0.00159736 0.0216931 0.00362326 -4.34086e-11 9.06941e-10 -5.62814e-09 0.0005 1.46608e-07 
281 1 0.0355274 0.0212187 0.0150851 0.00109038 0.018615 -0.0134681 2.53153e-08 6.10978e-08 -5.60905e-08 0.0005 1.46608e-07 
283 1 0.0293647 0.022013 0.014616 0.000469106 0.0141701 -0.0140429 -2.57458e-09 1.5436e-09 -1.54855e-08 0.0005 1.46608e-07 
291 1 0.03293 0.0193179 0.00575787 -8.27352e-15 -4.74532e-14 1.83895e-13 0 0 0 0.0005 1.46608e-07 
293 1 0.0200573 0.0241018 0.012917 -2.40602e-05 0.000168382 -0.000174916 4.71387e-07 1.83615e-08 1.33529e-08 0.0005 1.46608e-07 
296 1 0.0211819 0.019604 0.00720635 0.000709895 -0.0166934 -0.00335105 2.96802e-09 -1.14674e-08 3.11458e-08 0.0005 1.46608e-07 
298 1 0.0265026 0.0167502 0.0078907 -0.000603453 -0.0198307 0.0129621 -8.99214e-09 -1.1952e-08 -3.07135e-08 0.0005 1.46608e-07 
