ITEM: TIMESTEP
48600000
ITEM: NUMBER OF ATOMS
88
ITEM: BOX BOUNDS ff ff ff
-0.02 0.43
-0.02 0.06
-0.02 0.07
ITEM: ATOMS id type x y z vx vy vz fx fy fz radius mass 
1 1 0.0387146 0.0187573 0.00575718 -8.66844e-15 7.85691e-14 2.00898e-13 1.45584e-22 9.52912e-22 0 0.0005 1.46608e-07 
2 1 0.0463529 0.0233933 0.0112462 0.00104265 0.000346643 -0.0165292 4.43181e-09 -1.0398e-08 3.3701e-08 0.0005 1.46608e-07 
3 1 0.0656942 0.0197559 0.0057542 -1.26514e-15 3.97352e-14 -1.45084e-13 1.06541e-21 0 0 0.0005 1.46608e-07 
8 1 0.102543 0.017821 0.00581645 -9.78526e-16 -4.35259e-15 -1.20042e-13 1.20768e-22 0 0 0.0005 1.46608e-07 
9 1 0.0387828 0.0214812 0.00622724 -2.72059e-19 1.05999e-18 -5.70326e-18 5.21124e-23 -5.45939e-23 0 0.0005 1.46608e-07 
14 1 0.0497583 0.0150235 0.0101431 0.00088148 -0.00418227 0.0136247 -1.12226e-09 -4.19996e-09 1.08195e-07 0.0005 1.46608e-07 
18 1 0.0815251 0.0188155 0.00575115 1.78642e-20 7.25055e-21 -2.82648e-20 0 0 0 0.0005 1.46608e-07 
26 1 0.10448 0.0180949 0.00580371 1.49845e-14 2.23685e-14 -1.76075e-13 -1.69407e-20 9.84676e-21 -1.27055e-21 0.0005 1.46608e-07 
28 1 0.0565649 0.0174774 0.00751679 -0.000165583 -0.0139986 0.00482276 1.73662e-08 9.96891e-09 2.77202e-08 0.0005 1.46608e-07 
32 1 0.0458896 0.0168235 0.00626774 -4.52703e-15 -2.52972e-14 -1.74151e-13 -2.64036e-21 7.94093e-23 2.11758e-22 0.0005 1.46608e-07 
34 1 0.057335 0.017914 0.0058854 1.54886e-15 3.8841e-15 9.33145e-14 -2.7835e-19 9.25913e-20 6.35275e-22 0.0005 1.46608e-07 
38 1 0.0613938 0.0149168 0.011936 0.000858595 -0.000757424 0.00984694 -1.32878e-06 9.18355e-07 2.90622e-06 0.0005 1.46608e-07 
46 1 0.136461 0.0187737 0.0058834 2.01889e-15 3.13788e-15 -2.90514e-14 1.54716e-20 -1.37113e-20 2.11758e-22 0.0005 1.46608e-07 
48 1 0.0664584 0.0166864 0.0150547 0.000141251 0.017711 0.0120422 -6.29364e-10 1.04406e-08 -6.36765e-09 0.0005 1.46608e-07 
54 1 0.064303 0.0192381 0.00572672 3.49587e-15 -1.65665e-14 -2.82398e-13 2.52456e-21 1.19114e-22 0 0.0005 1.46608e-07 
56 1 0.0830207 0.0197197 0.00608582 -1.58238e-14 -4.43658e-14 1.90571e-13 -5.51895e-21 2.17052e-21 0 0.0005 1.46608e-07 
59 1 0.0793161 0.0192087 0.00581236 1.53186e-14 5.18623e-14 2.19688e-13 1.62657e-20 -2.09641e-20 3.59989e-21 0.0005 1.46608e-07 
64 1 0.0170063 0.0201419 0.00601043 1.30356e-14 5.24993e-15 -1.07336e-13 1.23137e-19 -8.50606e-20 1.16467e-20 0.0005 1.46608e-07 
65 1 0.0632091 0.0196192 0.00574818 3.96859e-15 5.47594e-14 -1.51839e-13 -1.59017e-20 -1.08526e-20 -4.65868e-21 0.0005 1.46608e-07 
66 1 0.0448733 0.0164686 0.00634571 -2.61516e-17 -1.41618e-16 -9.79096e-16 0 -5.29396e-23 -2.11758e-22 0.0005 1.46608e-07 
68 1 0.0685786 0.0175517 0.00746808 0.00125014 -0.0151133 0.00466676 -1.00523e-08 -6.12681e-08 2.6629e-08 0.0005 1.46608e-07 
70 1 0.0577945 0.0223798 0.00873071 0.0013074 -0.0115062 -0.0146109 -1.55587e-08 -1.75954e-08 -5.35247e-09 0.0005 1.46608e-07 
74 1 0.0508058 0.0185985 0.00720435 0.00169723 -0.0179498 0.00249331 -1.0163e-06 -3.23396e-06 1.22992e-07 0.0005 1.46608e-07 
82 1 0.0520461 0.0227345 0.00965417 -0.00139196 -0.00751329 -0.0201279 -8.08119e-09 -3.14994e-08 -1.28695e-09 0.0005 1.46608e-07 
83 1 0.0699256 0.0226084 0.009398 0.000766498 -0.00702654 -0.0141785 1.01546e-08 -1.76825e-08 -8.89716e-09 0.0005 1.46608e-07 
86 1 0.0745131 0.0200179 0.0058526 -9.28051e-15 -5.05774e-14 2.0429e-13 -2.51344e-19 -4.21399e-20 -2.30816e-20 0.0005 1.46608e-07 
88 1 0.0357086 0.0161117 0.00660683 -4.52945e-15 2.81785e-14 7.49178e-14 3.44637e-20 -2.75286e-21 2.96462e-21 0.0005 1.46608e-07 
89 1 0.061617 0.0194189 0.0057813 -4.35384e-15 -1.9415e-14 -1.3904e-13 -7.13361e-21 -1.24408e-21 4.23516e-22 0.0005 1.46608e-07 
90 1 0.0523885 0.0233605 0.0115627 0.00289493 -0.000820223 -0.0113756 -1.004e-09 -2.10073e-10 -3.52649e-09 0.0005 1.46608e-07 
93 1 0.0625961 0.017693 0.00741429 0.000358594 -0.0179607 0.00425594 -5.57671e-09 2.90409e-08 5.83814e-09 0.0005 1.46608e-07 
100 1 0.0722978 0.017504 0.0154894 0.00135812 0.0149698 0.00626191 1.37354e-08 -5.91144e-08 -2.21521e-08 0.0005 1.46608e-07 
106 1 0.0439552 0.0161318 0.00656318 1.95886e-16 -2.75167e-15 -2.89973e-15 2.51463e-22 0 1.05879e-22 0.0005 1.46608e-07 
107 1 0.0602981 0.0174679 0.0155298 0.00103183 0.00998688 0.00479948 6.00502e-09 -1.41299e-07 -6.8089e-08 0.0005 1.46608e-07 
108 1 0.0712713 0.0217969 0.014827 0.000161856 0.0171245 -0.0132523 -1.07603e-09 -2.85512e-09 -1.1765e-08 0.0005 1.46608e-07 
109 1 0.0592389 0.0218884 0.0146718 0.000136828 0.0161556 -0.014158 -1.25656e-09 -2.94425e-09 -1.13765e-08 0.0005 1.46608e-07 
112 1 0.0638565 0.0178382 0.00590305 1.12052e-14 2.75667e-14 2.17547e-13 9.76338e-20 -1.06144e-20 -2.75286e-21 0.0005 1.46608e-07 
113 1 0.0572465 0.0204007 0.0074202 0.00198045 -0.0131716 -0.00334922 -1.29558e-08 -5.16736e-08 -1.14702e-08 0.0005 1.46608e-07 
121 1 0.0527015 0.0231915 0.0126163 0.000165534 0.00691905 -0.0208126 8.93676e-08 -1.78385e-07 3.81794e-07 0.0005 1.46608e-07 
124 1 0.0607121 0.0186881 0.00591167 -5.20329e-15 -2.31992e-14 -1.66015e-13 -8.26916e-20 1.91906e-20 -4.23516e-22 0.0005 1.46608e-07 
125 1 0.0548174 0.0156472 0.0141516 -0.000283726 0.0111828 0.0174863 9.56515e-09 1.43229e-07 1.31447e-08 0.0005 1.46608e-07 
126 1 0.0286258 0.0183498 0.00592583 -1.94459e-14 1.84635e-16 -2.28119e-13 1.05879e-22 6.28306e-21 2.11758e-22 0.0005 1.46608e-07 
127 1 0.0862115 0.0201056 0.00585272 2.60543e-15 -1.48765e-14 1.99835e-13 3.47085e-21 5.29396e-23 0 0.0005 1.46608e-07 
129 1 0.043107 0.0149549 0.0127881 0.00131454 0.00434616 0.0157584 -3.23742e-08 1.58687e-07 1.71339e-07 0.0005 1.46608e-07 
132 1 0.0596483 0.0201907 0.015659 0.000502939 0.0173676 -0.00363501 2.49131e-09 -8.12721e-09 -1.75019e-08 0.0005 1.46608e-07 
134 1 0.0562549 0.0164586 0.00822706 0.00140497 -0.013882 0.0123674 1.15253e-08 3.0717e-08 -7.00794e-08 0.0005 1.46608e-07 
137 1 0.0238948 0.0168123 0.00667048 -1.55944e-14 -3.19691e-14 -1.0479e-13 3.83812e-21 3.17637e-22 -6.35275e-22 0.0005 1.46608e-07 
142 1 0.0470176 0.01787 0.0060864 -3.12506e-15 -1.74652e-14 -1.20236e-13 2.73962e-21 5.29396e-23 0 0.0005 1.46608e-07 
146 1 0.0388539 0.0197419 0.00587248 -2.83263e-15 1.34605e-14 -6.65669e-14 -6.61744e-24 0 0 0.0005 1.46608e-07 
149 1 0.0766607 0.0190533 0.00580856 -8.97628e-15 5.49385e-14 2.11167e-13 2.31789e-19 1.14349e-20 6.77626e-21 0.0005 1.46608e-07 
159 1 0.0779397 0.0194308 0.00576583 6.38442e-15 -3.81113e-14 -1.4647e-13 1.60837e-19 4.13987e-20 -3.17637e-21 0.0005 1.46608e-07 
160 1 0.0608194 0.0156834 0.0142016 -2.91045e-05 0.0131625 0.0182018 -1.58318e-09 1.10788e-08 -2.84719e-09 0.0005 1.46608e-07 
163 1 0.0424878 0.0188132 0.00581899 -4.51451e-15 1.3045e-14 7.16622e-14 -3.04402e-22 -5.29396e-23 0 0.0005 1.46608e-07 
165 1 0.0920805 0.0205253 0.0059177 -7.84806e-15 -7.28946e-14 1.85342e-13 1.65436e-22 0 0 0.0005 1.46608e-07 
174 1 0.0653947 0.0178928 0.00824517 9.50988e-05 0.0195164 -0.00416728 -7.73675e-10 -2.06336e-07 1.20419e-08 0.0005 1.46608e-07 
182 1 0.0531711 0.0221134 0.0145693 0.00287701 0.0074547 -0.00834763 -1.49683e-05 4.2643e-05 -1.86005e-05 0.0005 1.46608e-07 
187 1 0.102423 0.0196788 0.00582979 1.4997e-15 2.28181e-15 -1.78439e-14 4.32516e-20 -3.92547e-20 -1.05879e-21 0.0005 1.46608e-07 
189 1 0.0453636 0.0157749 0.00687326 2.72464e-17 -5.65208e-16 -6.90186e-16 -5.29396e-23 5.29396e-23 2.11758e-22 0.0005 1.46608e-07 
193 1 0.377432 0.0176139 0.00837704 -0.000835161 -0.00197124 0.00122598 2.28504e-10 -5.46008e-08 1.28381e-08 0.0005 1.46608e-07 
195 1 0.0507369 0.0203921 0.00594173 -5.72442e-15 -2.04838e-14 -3.07615e-13 -8.8012e-21 3.32196e-21 -2.11758e-22 0.0005 1.46608e-07 
198 1 0.0536451 0.0202985 0.0156445 0.00277403 0.0120238 -0.00512119 1.24149e-06 -2.98388e-06 -2.32773e-06 0.0005 1.46608e-07 
201 1 0.0440263 0.0170728 0.00623272 2.2971e-16 -6.63871e-16 -3.64347e-15 -1.19114e-22 1.05879e-22 0 0.0005 1.46608e-07 
209 1 0.0588026 0.0230232 0.0131995 0.000546038 0.00703396 -0.0183459 -8.24937e-09 2.45301e-09 -1.83624e-08 0.0005 1.46608e-07 
213 1 0.065158 0.0220809 0.0145713 0.00053583 0.0129953 -0.0139907 -2.34108e-09 7.87134e-10 -1.70769e-08 0.0005 1.46608e-07 
215 1 0.0824671 0.0205532 0.00623389 -9.5323e-15 -2.67192e-14 1.14755e-13 1.38966e-21 1.16467e-21 4.23516e-22 0.0005 1.46608e-07 
221 1 0.059059 0.0180876 0.00593586 7.18393e-15 -1.4916e-14 -1.83491e-13 2.98447e-21 1.1382e-21 0 0.0005 1.46608e-07 
223 1 0.0618907 0.015374 0.00927706 0.00135021 -0.00533713 0.00565161 3.50635e-07 2.46846e-07 -2.30146e-07 0.0005 1.46608e-07 
226 1 0.0316007 0.0183082 0.00603438 1.31804e-14 -4.47307e-14 -1.10005e-13 -7.88799e-21 3.70577e-21 -2.96462e-21 0.0005 1.46608e-07 
227 1 0.047539 0.0207459 0.0154426 0.000190864 0.0193824 -0.00837372 -1.89833e-09 2.94691e-09 -1.20263e-08 0.0005 1.46608e-07 
229 1 0.0215463 0.0196109 0.00592744 -1.81457e-14 8.13653e-15 -1.66092e-13 0 0 0 0.0005 1.46608e-07 
240 1 0.0649535 0.0177043 0.00586377 -5.98106e-15 -1.47718e-14 -1.16641e-13 1.86612e-21 -7.14684e-22 0 0.0005 1.46608e-07 
242 1 0.0623985 0.0186635 0.00586235 -4.353e-15 -1.94155e-14 -1.3904e-13 1.78009e-21 -4.76456e-22 0 0.0005 1.46608e-07 
245 1 0.0637407 0.022158 0.00868184 5.77774e-05 -0.014132 -0.0164309 -1.59754e-09 -1.09771e-08 4.81304e-09 0.0005 1.46608e-07 
246 1 0.0242602 0.0201274 0.00583803 -1.07571e-14 -1.7329e-15 1.75368e-13 2.77933e-22 0 0 0.0005 1.46608e-07 
256 1 0.0484728 0.0165611 0.0150072 0.000145607 0.0173448 0.0131561 4.96646e-10 1.15665e-08 -6.15759e-09 0.0005 1.46608e-07 
257 1 0.040065 0.0230693 0.0099538 0.00132168 -0.00520788 -0.0119846 2.98875e-09 -8.80534e-09 3.00006e-10 0.0005 1.46608e-07 
258 1 0.0451724 0.0199557 0.00726199 0.00120552 -0.0187945 -0.00599248 3.63574e-08 1.04975e-07 2.26069e-08 0.0005 1.46608e-07 
270 1 0.0504712 0.0179279 0.00611076 -3.6997e-15 -1.32326e-14 -1.98725e-13 -4.11274e-21 2.91168e-22 0 0.0005 1.46608e-07 
273 1 0.0371638 0.0187263 0.00573865 3.81773e-15 -1.81882e-14 8.99478e-14 2.12751e-20 2.64698e-21 2.11758e-22 0.0005 1.46608e-07 
274 1 0.0328558 0.0191954 0.00572294 8.89338e-16 5.06752e-15 -1.9634e-14 -6.88214e-22 -5.29396e-23 0 0.0005 1.46608e-07 
277 1 0.044465 0.0204317 0.00594645 -3.10144e-15 2.52944e-14 -8.0313e-14 2.58868e-19 1.24408e-20 -5.92923e-21 0.0005 1.46608e-07 
279 1 0.0482921 0.0174638 0.0155114 0.00214728 0.00647485 0.00169683 -9.78115e-06 1.27333e-05 -7.75449e-06 0.0005 1.46608e-07 
280 1 0.0660681 0.018771 0.00577597 -5.10513e-16 2.41026e-15 4.1093e-14 3.31534e-21 9.39677e-22 0 0.0005 1.46608e-07 
281 1 0.0829947 0.0213806 0.00646753 -2.64537e-16 2.90799e-15 -1.311e-14 1.88332e-20 3.81165e-21 2.11758e-22 0.0005 1.46608e-07 
283 1 0.0584724 0.0233615 0.0117128 0.000241857 0.00181068 -0.0214575 -2.23668e-10 -1.08177e-08 -4.4554e-09 0.0005 1.46608e-07 
291 1 0.0350698 0.0188001 0.00572051 -7.05983e-15 -4.06774e-14 1.57634e-13 -2.05935e-20 -2.11758e-22 -1.05879e-21 0.0005 1.46608e-07 
293 1 0.0442604 0.0162493 0.00825158 0.00163931 -0.0129031 0.00913339 2.15881e-08 4.73475e-08 -1.37947e-08 0.0005 1.46608e-07 
296 1 0.0667523 0.0199335 0.00579279 3.35315e-16 -9.53606e-15 3.48317e-14 1.21314e-20 2.48816e-21 6.35275e-22 0.0005 1.46608e-07 
298 1 0.0557412 0.0149979 0.0102559 0.00027267 -0.00817148 0.0172635 4.72722e-09 4.14594e-08 -3.29221e-08 0.0005 1.46608e-07 
