ITEM: TIMESTEP
33200000
ITEM: NUMBER OF ATOMS
89
ITEM: BOX BOUNDS ff ff ff
-0.02 0.43
-0.02 0.06
-0.02 0.07
ITEM: ATOMS id type x y z vx vy vz fx fy fz radius mass 
1 1 0.0388307 0.0187336 0.00577146 -9.75547e-15 8.71598e-14 2.22854e-13 -2.34886e-19 -8.89385e-21 -6.98802e-21 0.0005 1.46608e-07 
2 1 0.0319525 0.0169278 0.0152668 0.00104014 0.013779 0.00887504 9.15036e-09 -7.95759e-08 -5.11967e-08 0.0005 1.46608e-07 
3 1 0.05233 0.0183307 0.00726354 0.00245073 -0.0143103 0.00334923 -1.3172e-08 -5.36409e-08 1.79178e-08 0.0005 1.46608e-07 
8 1 0.0563236 0.0158554 0.01439 0.000696719 0.00847928 0.0105466 2.87088e-09 -1.84499e-08 -1.53787e-08 0.0005 1.46608e-07 
9 1 0.0436892 0.020408 0.00596775 2.39566e-15 -2.04458e-14 6.48851e-14 2.46103e-20 1.42937e-21 -4.23516e-22 0.0005 1.46608e-07 
14 1 0.0350263 0.0215798 0.00797537 0.001581 -0.00227692 -0.00447326 6.90983e-05 -3.38146e-05 4.50032e-06 0.0005 1.46608e-07 
18 1 0.08261 0.0191091 0.00590955 -1.79064e-14 -5.05116e-14 2.16948e-13 3.56786e-19 4.49986e-21 2.64698e-20 0.0005 1.46608e-07 
26 1 0.103453 0.0178822 0.00580682 1.59794e-15 7.52555e-15 2.07276e-13 -4.47472e-20 -1.3665e-20 8.47033e-22 0.0005 1.46608e-07 
28 1 0.0457339 0.015992 0.00849336 0.00552654 -0.00581834 0.00303334 -0.000616102 0.00318351 0.00125296 0.0005 1.46608e-07 
32 1 0.0458692 0.0166351 0.00629564 2.91074e-16 1.6242e-15 1.11821e-14 -8.99973e-22 5.29396e-23 0 0.0005 1.46608e-07 
34 1 0.0572659 0.0174442 0.00591793 9.18141e-15 -1.90551e-14 -2.34434e-13 4.63221e-22 -9.26442e-23 0 0.0005 1.46608e-07 
38 1 0.046821 0.0203236 0.00746094 0.000112682 -0.0194734 -0.00654354 -1.85562e-08 -1.00073e-07 -4.63729e-08 0.0005 1.46608e-07 
46 1 0.0490194 0.0211043 0.0152203 -0.00124375 0.021395 -0.0101183 1.0049e-08 6.3901e-09 8.06338e-09 0.0005 1.46608e-07 
48 1 0.0525956 0.0194121 0.00721761 0.000559159 -0.0171676 -0.00178884 4.90691e-06 1.86324e-05 6.97531e-06 0.0005 1.46608e-07 
54 1 0.0516006 0.0156334 0.00892756 -0.000175288 -0.0119209 0.0136532 3.94211e-09 2.51377e-08 1.21929e-08 0.0005 1.46608e-07 
56 1 0.0540544 0.0233554 0.0116497 0.00184501 0.000503692 -0.0150772 2.39717e-09 -1.66722e-08 -9.92522e-09 0.0005 1.46608e-07 
59 1 0.0793161 0.0192087 0.00581236 1.54221e-14 5.17868e-14 2.19699e-13 -6.41919e-19 7.1786e-20 2.79521e-20 0.0005 1.46608e-07 
64 1 0.0170063 0.0201419 0.00601043 1.29929e-14 5.26161e-15 -1.07341e-13 -2.16258e-20 -8.01637e-20 -6.77626e-21 0.0005 1.46608e-07 
65 1 0.0632091 0.0196192 0.00574818 4.01351e-15 5.47684e-14 -1.51835e-13 -2.08562e-19 3.97047e-21 -3.81165e-21 0.0005 1.46608e-07 
66 1 0.0448873 0.0164493 0.00634816 -4.52785e-15 -2.5297e-14 -1.74151e-13 -1.04556e-21 3.70577e-22 0 0.0005 1.46608e-07 
68 1 0.0534331 0.0225131 0.00900195 -9.14672e-05 -0.0114554 -0.0195064 1.37234e-09 -1.28684e-08 5.60346e-09 0.0005 1.46608e-07 
70 1 0.0470679 0.0214701 0.00798348 0.00111954 -0.015947 -0.0101401 -1.01515e-08 -2.52029e-08 -6.4468e-09 0.0005 1.46608e-07 
74 1 0.0352701 0.0220873 0.00844151 0.00128249 -0.00528164 -0.00845378 -7.80458e-05 -2.18725e-05 -1.22507e-06 0.0005 1.46608e-07 
82 1 0.0369291 0.0213081 0.0150336 6.07098e-05 0.0177678 -0.0116674 -2.71583e-10 -1.65484e-09 -1.15425e-08 0.0005 1.46608e-07 
83 1 0.0548658 0.0218289 0.0148503 0.00047262 0.0153476 -0.0123257 -2.65683e-07 7.5451e-07 -7.92859e-07 0.0005 1.46608e-07 
86 1 0.0520226 0.0169509 0.00775655 6.73668e-05 -0.0196972 0.00992614 -1.49194e-11 1.72018e-09 1.18677e-08 0.0005 1.46608e-07 
88 1 0.0357086 0.0161117 0.00660683 -4.59144e-15 2.81841e-14 7.4912e-14 -1.09188e-20 -2.34522e-20 8.25857e-21 0.0005 1.46608e-07 
89 1 0.0552163 0.0202156 0.015674 0.00120676 0.0139636 -0.00357841 -1.84165e-07 1.81746e-07 6.70751e-08 0.0005 1.46608e-07 
90 1 0.0377205 0.0181738 0.0156255 7.33819e-05 0.0211799 0.00509934 -1.16014e-09 6.24237e-09 -9.63745e-09 0.0005 1.46608e-07 
93 1 0.0478566 0.0233752 0.0110018 0.00160205 0.000325881 -0.014222 1.09406e-08 -2.16109e-08 1.78224e-08 0.0005 1.46608e-07 
96 1 0.0544258 0.0228476 0.0134874 0.000163937 0.0101176 -0.0187621 -1.40377e-09 -7.17343e-09 -1.01494e-08 0.0005 1.46608e-07 
100 1 0.0566678 0.0149634 0.0127953 3.32526e-05 0.00507541 0.0220261 -1.13142e-09 1.05018e-08 -1.26791e-10 0.0005 1.46608e-07 
106 1 0.0439552 0.0161318 0.00656318 1.95766e-16 -2.75167e-15 -2.89973e-15 5.29396e-22 -1.05879e-22 0 0.0005 1.46608e-07 
107 1 0.0458982 0.0164276 0.00814067 0.0197122 -0.0290544 -0.0235673 0.0149514 -0.107466 -0.10623 0.0005 1.46608e-07 
108 1 0.0556873 0.0183776 0.01573 0.000286925 0.0201804 0.00257615 -1.63434e-09 9.68839e-09 -9.12844e-09 0.0005 1.46608e-07 
109 1 0.0458326 0.0173492 0.0154393 0.000448803 0.0194263 0.00843009 -1.34604e-08 -7.01733e-08 5.28259e-09 0.0005 1.46608e-07 
112 1 0.0421209 0.0233542 0.011867 0.00114172 0.00198882 -0.0172172 -6.29184e-07 1.28359e-06 -4.75479e-06 0.0005 1.46608e-07 
113 1 0.0423059 0.0231439 0.0128999 0.00026169 0.0063261 -0.0193445 -1.42734e-09 -6.3556e-09 -1.28335e-08 0.0005 1.46608e-07 
121 1 0.0431395 0.0205229 0.015558 9.24644e-05 0.0213988 -0.00618453 -4.92098e-10 1.0517e-10 -1.08068e-08 0.0005 1.46608e-07 
124 1 0.0531095 0.0216993 0.0080617 0.000496864 -0.0160752 -0.0128288 -1.18273e-08 -5.00522e-08 -1.78341e-08 0.0005 1.46608e-07 
125 1 0.0408995 0.0208928 0.00757661 7.47323e-05 -0.0194984 -0.010839 5.20707e-10 -9.74858e-09 6.6955e-09 0.0005 1.46608e-07 
126 1 0.0286258 0.0183498 0.00592583 -1.94457e-14 1.8893e-16 -2.28119e-13 7.94093e-23 -1.52913e-20 0 0.0005 1.46608e-07 
127 1 0.053763 0.0231623 0.010494 0.000444897 -0.00539094 -0.0198503 -2.90028e-09 -1.21516e-08 -4.17124e-09 0.0005 1.46608e-07 
129 1 0.0285401 0.0191486 0.00715526 0.000745334 -0.0182474 -0.000676499 2.3314e-09 2.31412e-09 1.49476e-08 0.0005 1.46608e-07 
132 1 0.0455932 0.0156367 0.00915816 0.00205271 -0.00825403 0.0130214 4.65686e-05 2.35968e-05 -2.75881e-05 0.0005 1.46608e-07 
134 1 0.0444872 0.0154316 0.0137506 -1.94606e-05 0.00914341 0.0197184 -1.58347e-07 2.68283e-07 -1.02472e-07 0.0005 1.46608e-07 
137 1 0.0238948 0.0168123 0.00667048 -1.55874e-14 -3.19711e-14 -1.0479e-13 3.25578e-21 3.49401e-21 -1.48231e-21 0.0005 1.46608e-07 
142 1 0.0470176 0.01787 0.0060864 -3.124e-15 -1.74656e-14 -1.20236e-13 5.36675e-21 -5.29396e-22 2.11758e-22 0.0005 1.46608e-07 
146 1 0.0390565 0.0200205 0.00592023 -3.94797e-15 1.88493e-14 -9.3208e-14 -3.17902e-20 -5.39984e-21 0 0.0005 1.46608e-07 
149 1 0.0766607 0.0190533 0.00580856 -9.17579e-15 5.49333e-14 2.11159e-13 -1.61585e-19 -1.4876e-20 -4.02341e-21 0.0005 1.46608e-07 
159 1 0.0779397 0.0194308 0.00576583 6.23203e-15 -3.81313e-14 -1.46472e-13 1.33924e-19 3.31402e-20 -2.5411e-21 0.0005 1.46608e-07 
160 1 0.0466105 0.019472 0.00719613 0.00278309 -0.00982067 6.95007e-05 -8.0114e-08 -2.66139e-07 3.08392e-07 0.0005 1.46608e-07 
163 1 0.0424878 0.0188132 0.00581899 -4.51472e-15 1.30452e-14 7.16622e-14 -1.32349e-23 -5.29396e-23 0 0.0005 1.46608e-07 
165 1 0.0920805 0.0205253 0.0059177 -7.84834e-15 -7.28946e-14 1.85342e-13 0 0 0 0.0005 1.46608e-07 
174 1 0.0402967 0.0181978 0.00727191 0.000679883 -0.018807 0.00449741 -4.90242e-09 -1.19983e-08 1.019e-08 0.0005 1.46608e-07 
182 1 0.0380333 0.0166894 0.0150965 0.0015391 0.00901051 0.0065996 1.60014e-08 -4.48617e-08 -3.17746e-08 0.0005 1.46608e-07 
187 1 0.102423 0.0196788 0.00582979 1.48989e-15 2.29177e-15 -1.78435e-14 1.04556e-20 -6.90861e-21 0 0.0005 1.46608e-07 
189 1 0.042871 0.0217363 0.0147591 -0.22851 -0.437758 -0.303712 -0.0322519 0.0849256 0.091974 0.0005 1.46608e-07 
193 1 0.377411 0.01754 0.00840045 -4.87684e-05 0.00326227 -0.00220541 -1.90296e-10 1.29694e-08 -2.88276e-08 0.0005 1.46608e-07 
195 1 0.0507369 0.0203921 0.00594173 -5.73177e-15 -2.04825e-14 -3.07615e-13 1.72616e-20 -2.31611e-21 -2.11758e-22 0.0005 1.46608e-07 
198 1 0.0392329 0.0148852 0.010517 0.000637442 -0.003251 0.0180341 -3.37263e-09 7.44079e-09 1.86394e-08 0.0005 1.46608e-07 
201 1 0.0440263 0.0170728 0.00623272 2.29655e-16 -6.63877e-16 -3.64347e-15 2.51463e-22 -1.05879e-22 0 0.0005 1.46608e-07 
209 1 0.0441936 0.0162011 0.0147363 0.00129079 0.014143 0.0112359 7.68427e-07 -1.13017e-05 -7.65553e-06 0.0005 1.46608e-07 
213 1 0.0499817 0.0169434 0.0152209 -0.000305124 0.0186326 0.0124608 1.64997e-09 9.36912e-09 -8.25844e-09 0.0005 1.46608e-07 
215 1 0.0513335 0.0150333 0.0099369 5.59887e-05 -0.00947176 0.0204225 1.15211e-10 8.55199e-09 8.96589e-09 0.0005 1.46608e-07 
221 1 0.059059 0.0180876 0.00593586 7.18583e-15 -1.49149e-14 -1.83491e-13 6.55127e-22 6.2204e-22 0 0.0005 1.46608e-07 
223 1 0.0476198 0.0229791 0.00989897 6.30279e-05 -0.00825261 -0.019309 -2.94545e-10 -1.32348e-08 -2.09585e-09 0.0005 1.46608e-07 
226 1 0.0316007 0.0183082 0.00603438 1.31876e-14 -4.47393e-14 -1.1e-13 6.88214e-22 1.40819e-20 -5.50571e-21 0.0005 1.46608e-07 
227 1 0.0323882 0.0157212 0.0142562 0.00127051 0.00960439 0.0136381 2.443e-09 3.54445e-09 -3.22707e-08 0.0005 1.46608e-07 
229 1 0.0215463 0.0196109 0.00592744 -1.81494e-14 8.13654e-15 -1.66091e-13 0 0 0 0.0005 1.46608e-07 
240 1 0.049309 0.0198382 0.0157583 0.00472956 0.00694602 -0.00236695 -1.41011e-06 9.32885e-06 -4.21926e-06 0.0005 1.46608e-07 
242 1 0.0483662 0.0228888 0.0132448 0.000348925 0.00801847 -0.018951 -2.24654e-09 -7.18611e-09 -1.03481e-08 0.0005 1.46608e-07 
245 1 0.0486393 0.0223642 0.0142755 0.00249226 0.00427545 -0.0049278 -1.38187e-08 8.60566e-08 -4.84548e-08 0.0005 1.46608e-07 
246 1 0.0242602 0.0201274 0.00583803 -1.07555e-14 -1.7329e-15 1.75368e-13 -9.26442e-23 0 0 0.0005 1.46608e-07 
256 1 0.0339598 0.0166717 0.00790435 0.000124758 -0.0195825 0.0114074 -9.19887e-10 3.1472e-09 1.14482e-08 0.0005 1.46608e-07 
257 1 0.0251142 0.0209028 0.0155421 0.00168062 0.00243002 -0.00122538 -4.24445e-09 -6.59655e-09 -1.07794e-07 0.0005 1.46608e-07 
258 1 0.0310506 0.0208688 0.0153227 0.000355518 0.01744 -0.00933897 8.83644e-11 5.6761e-08 -4.325e-08 0.0005 1.46608e-07 
270 1 0.0418832 0.023371 0.0109984 0.00398037 0.000482884 -0.00379495 7.28854e-06 -6.13185e-07 1.75161e-05 0.0005 1.46608e-07 
273 1 0.0371638 0.0187263 0.00573865 3.82023e-15 -1.81871e-14 8.99479e-14 -1.92038e-20 -7.04096e-21 -1.05879e-21 0.0005 1.46608e-07 
274 1 0.0328558 0.0191954 0.00572294 8.90102e-16 5.06752e-15 -1.9634e-14 1.32349e-23 0 0 0.0005 1.46608e-07 
277 1 0.0528493 0.0205867 0.00749905 0.000324837 -0.019274 -0.00678455 -1.6122e-09 -1.07634e-08 7.14132e-09 0.0005 1.46608e-07 
279 1 0.0361521 0.0233555 0.011938 0.00107391 0.00395331 -0.0196054 -1.1079e-08 3.70728e-09 1.07685e-07 0.0005 1.46608e-07 
280 1 0.05095 0.0149207 0.0118271 0.000375744 -0.000639746 0.0214412 2.42342e-08 1.76485e-08 -1.87807e-08 0.0005 1.46608e-07 
281 1 0.0503161 0.0158755 0.0143974 0.000601798 0.0135205 0.0135841 -4.56306e-09 1.7899e-08 3.9574e-09 0.0005 1.46608e-07 
283 1 0.0439176 0.0172118 0.015352 0.000102135 0.0193866 0.00984517 -9.4137e-10 1.04372e-08 -7.297e-09 0.0005 1.46608e-07 
291 1 0.0350698 0.0188001 0.00572051 -7.11473e-15 -4.06744e-14 1.57632e-13 7.97932e-20 -2.21817e-20 -1.90582e-21 0.0005 1.46608e-07 
293 1 0.0297751 0.0232559 0.0104936 0.00223107 -0.00494045 -0.0144273 -5.69416e-08 -3.24754e-08 -1.99199e-07 0.0005 1.46608e-07 
296 1 0.0365437 0.0225941 0.0139518 0.000129565 0.0153749 -0.0178956 3.82558e-09 -5.39195e-09 -8.95517e-09 0.0005 1.46608e-07 
298 1 0.0411699 0.0218796 0.00823676 0.000592294 -0.0154954 -0.0127953 -3.4761e-09 -1.34102e-08 1.4495e-09 0.0005 1.46608e-07 
