ITEM: TIMESTEP
50400000
ITEM: NUMBER OF ATOMS
88
ITEM: BOX BOUNDS ff ff ff
-0.02 0.43
-0.02 0.06
-0.02 0.07
ITEM: ATOMS id type x y z vx vy vz fx fy fz radius mass 
1 1 0.0387146 0.0187573 0.00575718 -8.68244e-15 7.85637e-14 2.00899e-13 0 0 0 0.0005 1.46608e-07 
2 1 0.0479308 0.0194016 0.00717647 0.00192054 -0.0105352 -0.00200762 9.14476e-09 2.38214e-08 2.41788e-08 0.0005 1.46608e-07 
3 1 0.0656942 0.0197559 0.0057542 -1.48352e-15 3.97308e-14 -1.45083e-13 -1.87935e-21 7.3586e-21 1.90582e-21 0.0005 1.46608e-07 
8 1 0.102543 0.017821 0.00581645 -9.78538e-16 -4.35259e-15 -1.20042e-13 3.68923e-22 -1.32349e-23 0 0.0005 1.46608e-07 
9 1 0.0387828 0.0214812 0.00622724 -2.70451e-19 1.05448e-18 -5.69315e-18 1.90252e-23 4.63221e-23 0 0.0005 1.46608e-07 
14 1 0.0512707 0.0173218 0.0154802 -0.000197755 0.0197846 0.0104976 6.16522e-09 -4.23684e-08 -2.23232e-08 0.0005 1.46608e-07 
18 1 0.0815251 0.0188155 0.00575115 1.78642e-20 7.25055e-21 -2.82648e-20 0 0 0 0.0005 1.46608e-07 
26 1 0.10448 0.0180949 0.00580371 1.49879e-14 2.23674e-14 -1.76075e-13 -2.92226e-20 -2.77933e-21 -2.75286e-21 0.0005 1.46608e-07 
28 1 0.0581903 0.0148702 0.0121051 -0.00010846 0.00213589 0.0218995 4.21773e-10 1.18e-08 1.11298e-09 0.0005 1.46608e-07 
32 1 0.0458896 0.0168235 0.00626774 -4.5272e-15 -2.5297e-14 -1.74151e-13 3.5271e-21 7.14684e-22 -2.11758e-22 0.0005 1.46608e-07 
34 1 0.057335 0.017914 0.0058854 1.38973e-15 3.97976e-15 9.33129e-14 -1.52903e-19 7.73447e-20 -1.27055e-21 0.0005 1.46608e-07 
38 1 0.0632904 0.0172835 0.0154371 4.65674e-05 0.0201589 0.0106786 2.27296e-10 7.14062e-09 -9.72881e-09 0.0005 1.46608e-07 
46 1 0.136461 0.0187737 0.0058834 1.93637e-15 3.26814e-15 -2.9043e-14 -9.29222e-20 -7.10184e-20 -1.29173e-20 0.0005 1.46608e-07 
48 1 0.0682677 0.0215707 0.0150381 0.000530019 0.0167226 -0.0118054 -1.66145e-09 6.17755e-10 -1.37959e-08 0.0005 1.46608e-07 
54 1 0.0643218 0.0192837 0.00572428 7.98074e-16 -3.7819e-15 -6.44673e-14 0 5.29396e-23 0 0.0005 1.46608e-07 
56 1 0.0830207 0.0197197 0.00608582 -1.58241e-14 -4.4365e-14 1.90571e-13 -2.11758e-21 -1.42937e-21 -2.11758e-22 0.0005 1.46608e-07 
59 1 0.0793161 0.0192087 0.00581236 1.53463e-14 5.18456e-14 2.1969e-13 5.53351e-20 1.19114e-20 -4.87044e-21 0.0005 1.46608e-07 
64 1 0.0170063 0.0201419 0.00601043 1.30015e-14 5.26515e-15 -1.0734e-13 2.0387e-19 -5.4713e-20 2.30816e-20 0.0005 1.46608e-07 
65 1 0.0632197 0.0196312 0.00575279 -4.63367e-17 -6.63601e-16 1.83265e-15 3.97047e-23 -5.29396e-23 -2.11758e-22 0.0005 1.46608e-07 
66 1 0.0448733 0.0164686 0.00634571 -2.63096e-17 -1.41723e-16 -9.78764e-16 1.58819e-22 5.29396e-23 0 0.0005 1.46608e-07 
68 1 0.0704856 0.0149142 0.0108881 0.000752797 -0.00143287 0.022953 2.76278e-08 1.22536e-08 1.03196e-07 0.0005 1.46608e-07 
70 1 0.0594268 0.0170744 0.00768906 0.00130364 -0.0132141 0.00822301 -7.6608e-09 -1.68277e-08 1.60932e-08 0.0005 1.46608e-07 
74 1 0.0525448 0.0148443 0.0107166 0.00128273 -0.0021525 0.017351 -8.69679e-09 6.20433e-09 2.42226e-08 0.0005 1.46608e-07 
82 1 0.0535761 0.0178384 0.00736593 0.000640143 -0.0182858 0.00591691 -5.16793e-09 -1.44496e-08 1.60351e-08 0.0005 1.46608e-07 
83 1 0.0717018 0.0185455 0.00731116 2.48176e-05 -0.0218936 0.00162429 -5.62917e-10 -1.54594e-09 1.16962e-08 0.0005 1.46608e-07 
86 1 0.0829173 0.0222111 0.0066532 2.5338e-15 -1.23267e-14 5.62303e-14 -4.73809e-21 8.47033e-22 2.11758e-22 0.0005 1.46608e-07 
88 1 0.0357086 0.0161117 0.00660683 -4.48316e-15 2.82073e-14 7.49098e-14 -8.11299e-21 1.69407e-20 -6.56451e-21 0.0005 1.46608e-07 
89 1 0.061617 0.0194189 0.0057813 -4.31246e-15 -1.94277e-14 -1.3904e-13 6.44142e-20 -4.26163e-21 -1.27055e-21 0.0005 1.46608e-07 
90 1 0.0540928 0.0200015 0.0073007 8.65448e-05 -0.0194408 -0.00387864 4.08301e-09 1.77362e-09 1.13988e-08 0.0005 1.46608e-07 
93 1 0.0647654 0.0152192 0.00970881 0.000370628 -0.00768165 0.0184904 -1.73202e-09 7.20692e-09 1.17534e-08 0.0005 1.46608e-07 
100 1 0.0741512 0.0217902 0.0148222 -0.000166822 0.0176579 -0.0131277 3.6124e-09 4.33392e-09 -1.93892e-08 0.0005 1.46608e-07 
106 1 0.0439552 0.0161318 0.00656318 1.95486e-16 -2.75166e-15 -2.89972e-15 3.44107e-22 0 0 0.0005 1.46608e-07 
107 1 0.0740765 0.0190412 0.00572265 8.80182e-15 -5.0017e-14 -1.38032e-13 -5.9557e-22 1.32349e-21 -4.23516e-22 0.0005 1.46608e-07 
108 1 0.0735214 0.0232503 0.0120753 -0.00044067 0.00515899 -0.0215341 1.80005e-09 -8.52639e-09 -4.82836e-09 0.0005 1.46608e-07 
109 1 0.0609851 0.0229923 0.00991193 0.000307535 -0.00806124 -0.0174851 -3.644e-09 -1.55371e-08 -1.0092e-08 0.0005 1.46608e-07 
112 1 0.0635117 0.0186768 0.00581452 9.04304e-17 2.29428e-16 1.79194e-15 -1.32349e-23 5.29396e-23 -2.11758e-22 0.0005 1.46608e-07 
113 1 0.0587951 0.0151862 0.00960676 0.000125725 -0.0101056 0.0168149 5.28784e-09 8.51587e-08 -8.04166e-08 0.0005 1.46608e-07 
121 1 0.054338 0.0211641 0.00770461 0.000524877 -0.0183945 -0.0116125 2.91788e-09 -7.15024e-09 7.94343e-09 0.0005 1.46608e-07 
124 1 0.0606895 0.0188926 0.00588382 -4.35275e-15 -1.94148e-14 -1.3904e-13 -1.19776e-21 7.94093e-23 2.11758e-22 0.0005 1.46608e-07 
125 1 0.0567536 0.0194596 0.0157513 -9.82444e-05 0.0222467 -0.000895158 -1.07431e-09 2.74226e-09 -1.15481e-08 0.0005 1.46608e-07 
126 1 0.0286258 0.0183498 0.00592583 -1.94458e-14 1.80307e-16 -2.28119e-13 -2.64698e-23 8.78342e-21 2.11758e-22 0.0005 1.46608e-07 
127 1 0.0862115 0.0201056 0.00585272 2.58512e-15 -1.48714e-14 1.99836e-13 -3.08836e-20 -3.6793e-21 2.11758e-22 0.0005 1.46608e-07 
129 1 0.04467 0.0198744 0.0156784 0.00158107 0.0158713 -0.00345759 1.49513e-09 -4.51001e-09 -7.36315e-09 0.0005 1.46608e-07 
132 1 0.0612333 0.0233559 0.0110466 0.000789545 8.67675e-05 -0.0165984 4.30389e-09 -4.98504e-08 4.79346e-09 0.0005 1.46608e-07 
134 1 0.0579067 0.0152765 0.0135877 0.00130159 0.00968685 0.0167921 -1.63847e-08 2.21744e-08 2.34772e-08 0.0005 1.46608e-07 
137 1 0.0238948 0.0168123 0.00667048 -1.55916e-14 -3.19687e-14 -1.04791e-13 7.94093e-23 -2.11758e-22 -2.11758e-22 0.0005 1.46608e-07 
142 1 0.0470176 0.01787 0.0060864 -3.12351e-15 -1.74656e-14 -1.20236e-13 -9.4828e-21 2.77933e-21 -2.11758e-22 0.0005 1.46608e-07 
146 1 0.0388539 0.0197419 0.00587248 -2.82463e-15 1.34622e-14 -6.6567e-14 -1.40356e-20 -4.76456e-22 4.23516e-22 0.0005 1.46608e-07 
149 1 0.0766607 0.0190533 0.00580856 -9.18237e-15 5.49356e-14 2.11158e-13 9.91492e-20 2.33463e-20 -6.35275e-22 0.0005 1.46608e-07 
159 1 0.0779397 0.0194308 0.00576583 6.44582e-15 -3.80934e-14 -1.46472e-13 -2.554e-19 3.07579e-20 -1.86347e-20 0.0005 1.46608e-07 
160 1 0.0613609 0.0179771 0.00599066 -5.2054e-15 -2.31807e-14 -1.66017e-13 4.7778e-21 1.74701e-21 -4.23516e-22 0.0005 1.46608e-07 
163 1 0.0424878 0.0188132 0.00581899 -4.51519e-15 1.30454e-14 7.16621e-14 -3.30872e-22 -5.29396e-23 -2.11758e-22 0.0005 1.46608e-07 
165 1 0.0920805 0.0205253 0.0059177 -7.84834e-15 -7.28946e-14 1.85342e-13 0 0 0 0.0005 1.46608e-07 
174 1 0.0819498 0.017658 0.00833988 2.96171e-09 -0.0188404 0.00815112 2.03543e-14 6.90516e-09 1.62086e-08 0.0005 1.46608e-07 
182 1 0.0547456 0.0225116 0.00888787 0.000604803 -0.0102224 -0.0140595 4.93565e-09 -3.68656e-08 -1.91155e-08 0.0005 1.46608e-07 
187 1 0.102423 0.0196788 0.00582979 1.48618e-15 2.27232e-15 -1.78463e-14 -8.22416e-20 7.67624e-21 -5.71747e-21 0.0005 1.46608e-07 
189 1 0.0453636 0.0157749 0.00687326 2.75086e-17 -5.64969e-16 -6.90187e-16 -5.29396e-23 -1.58819e-22 0 0.0005 1.46608e-07 
193 1 0.377393 0.0176162 0.00835 -2.79717e-06 0.00449958 1.36501e-05 8.08034e-10 -1.22561e-07 -2.3896e-09 0.0005 1.46608e-07 
195 1 0.0507369 0.0203921 0.00594173 -5.72565e-15 -2.04836e-14 -3.07615e-13 -1.62127e-21 7.94093e-23 0 0.0005 1.46608e-07 
198 1 0.0553215 0.0233627 0.0114158 0.000606325 0.000200204 -0.0140907 2.44394e-09 1.0279e-08 1.30139e-08 0.0005 1.46608e-07 
201 1 0.0440263 0.0170728 0.00623272 2.29529e-16 -6.63854e-16 -3.64347e-15 2.38228e-22 0 0 0.0005 1.46608e-07 
209 1 0.0604371 0.0216362 0.00802487 0.00140978 -0.012329 -0.0113348 -3.60708e-10 -5.70232e-10 2.53727e-08 0.0005 1.46608e-07 
213 1 0.0670698 0.0230718 0.0100996 -3.83808e-05 -0.00628846 -0.0210693 -1.30805e-09 -1.14757e-08 2.90171e-10 0.0005 1.46608e-07 
215 1 0.0824665 0.0205479 0.00623259 -1.14691e-14 -3.20775e-14 1.3783e-13 5.28072e-20 -2.2764e-20 -8.47033e-22 0.0005 1.46608e-07 
221 1 0.059059 0.0180876 0.00593586 7.18608e-15 -1.49144e-14 -1.83491e-13 -2.91168e-22 4.23516e-22 2.11758e-22 0.0005 1.46608e-07 
223 1 0.0629733 0.0178349 0.00594875 4.40324e-15 1.08788e-14 8.58996e-14 -2.64698e-23 5.29396e-23 2.11758e-22 0.0005 1.46608e-07 
226 1 0.0316007 0.0183082 0.00603438 1.31712e-14 -4.4749e-14 -1.09998e-13 -2.22346e-21 -3.5046e-20 1.41878e-20 0.0005 1.46608e-07 
227 1 0.0490862 0.0231841 0.0105183 0.00250853 -0.00410411 -0.0118458 -1.01682e-08 -7.36079e-09 -2.91999e-08 0.0005 1.46608e-07 
229 1 0.0215463 0.0196109 0.00592744 -1.81494e-14 8.14263e-15 -1.66091e-13 5.29396e-23 -1.4254e-20 -8.47033e-22 0.0005 1.46608e-07 
240 1 0.0649744 0.0177417 0.00585796 -7.36476e-15 -1.81889e-14 -1.43647e-13 2.2539e-20 -8.54974e-21 2.11758e-22 0.0005 1.46608e-07 
242 1 0.0623985 0.0186635 0.00586235 -4.35029e-15 -1.94143e-14 -1.3904e-13 1.32349e-23 1.85288e-22 0 0.0005 1.46608e-07 
245 1 0.0654812 0.0171987 0.00761806 0.000573972 -0.0167937 0.00900168 -3.45045e-09 -9.53891e-09 1.77751e-08 0.0005 1.46608e-07 
246 1 0.0242602 0.0201274 0.00583803 -1.07572e-14 -1.73207e-15 1.75368e-13 3.49401e-21 -1.19445e-21 2.11758e-22 0.0005 1.46608e-07 
256 1 0.0503973 0.0211724 0.0152163 0.000134041 0.0192013 -0.0104142 -8.41211e-10 8.63479e-10 -1.28534e-08 0.0005 1.46608e-07 
257 1 0.0416037 0.0180397 0.00733503 0.000458334 -0.0195398 0.00508855 -5.26042e-09 -6.50799e-09 1.23377e-08 0.0005 1.46608e-07 
258 1 0.0469665 0.0157004 0.00890572 0.000476478 -0.0127717 0.0164352 1.51507e-09 2.09578e-08 -7.98753e-08 0.0005 1.46608e-07 
270 1 0.0504712 0.0179279 0.00611076 -3.69952e-15 -1.32327e-14 -1.98725e-13 3.0341e-21 -6.61744e-23 0 0.0005 1.46608e-07 
273 1 0.0371638 0.0187263 0.00573865 3.8097e-15 -1.81881e-14 8.99481e-14 4.89691e-22 1.25467e-20 2.32934e-21 0.0005 1.46608e-07 
274 1 0.0328558 0.0191954 0.00572294 8.76028e-16 5.06752e-15 -1.96346e-14 3.70577e-22 0 0 0.0005 1.46608e-07 
277 1 0.044465 0.0204317 0.00594645 -3.01239e-15 2.53229e-14 -8.03073e-14 -4.6825e-19 -9.84676e-20 -1.24937e-20 0.0005 1.46608e-07 
279 1 0.0501179 0.0220442 0.0146313 0.00095801 0.0109697 -0.00942974 1.83923e-06 -3.06579e-07 1.08642e-06 0.0005 1.46608e-07 
280 1 0.0660681 0.018771 0.00577597 -5.08088e-16 2.41088e-15 4.1093e-14 -2.24331e-21 -2.64698e-22 0 0.0005 1.46608e-07 
281 1 0.0833983 0.0210192 0.00634375 2.36844e-14 -4.02501e-14 1.90901e-13 -5.21455e-21 4.34104e-21 1.69407e-21 0.0005 1.46608e-07 
283 1 0.0601052 0.0200878 0.00733188 0.00152559 -0.0155597 -0.00261225 4.13158e-09 1.85879e-08 9.07636e-09 0.0005 1.46608e-07 
291 1 0.0350698 0.0188001 0.00572051 -7.09926e-15 -4.06659e-14 1.57635e-13 7.34536e-20 -5.66453e-21 1.90582e-21 0.0005 1.46608e-07 
293 1 0.0459477 0.0151907 0.0133005 0.000105336 0.00885146 0.019729 -1.63372e-09 1.36671e-08 2.53587e-09 0.0005 1.46608e-07 
296 1 0.0667523 0.0199335 0.00579279 2.43951e-16 -9.54413e-15 3.48304e-14 -1.40086e-19 -3.81165e-21 0 0.0005 1.46608e-07 
298 1 0.0572783 0.0173639 0.0154756 0.000438478 0.0156464 0.00759163 6.52535e-10 -7.92503e-09 -2.11855e-08 0.0005 1.46608e-07 
