ITEM: TIMESTEP
4800000
ITEM: NUMBER OF ATOMS
229
ITEM: BOX BOUNDS ff ff ff
-0.02 0.43
-0.02 0.06
-0.02 0.07
ITEM: ATOMS id type x y z vx vy vz fx fy fz radius mass 
1 1 0.0221778 0.0240531 0.0144744 -0.000217698 0.00135217 -0.0012113 4.16919e-08 -1.89151e-06 -1.68608e-07 0.0005 1.46608e-07 
2 1 0.019979 0.0140507 0.0129279 0.000346279 -9.79743e-05 0.000281199 -6.95049e-08 1.56305e-07 -2.9243e-07 0.0005 1.46608e-07 
3 1 0.0255162 0.017313 0.0164852 0.00264615 0.00821339 0.00410477 1.09908e-07 2.35426e-06 2.07034e-06 0.0005 1.46608e-07 
4 1 0.0232355 0.0163393 0.0152028 0.00122603 0.0146679 0.0110233 -1.32138e-07 -2.62789e-07 2.19079e-07 0.0005 1.46608e-07 
6 1 0.018776 0.0176637 0.0157288 0.00669655 -0.0065292 -0.0001097 -2.00817e-07 4.49155e-07 1.43521e-07 0.0005 1.46608e-07 
7 1 0.0227106 0.0186504 0.0159532 0.00321206 0.00476153 0.00318806 -2.22551e-06 1.1479e-05 2.97818e-06 0.0005 1.46608e-07 
8 1 0.0279536 0.0216811 0.0148646 0.000923743 0.0132375 -0.0110093 -4.99162e-10 -1.65634e-08 6.65428e-09 0.0005 1.46608e-07 
9 1 0.023526 0.0192269 0.0159667 0.00562651 -0.000883686 0.0039354 -6.13741e-07 4.18263e-06 2.20496e-06 0.0005 1.46608e-07 
10 1 0.0189698 0.0146243 0.011934 0.00161893 -0.000799568 0.00136559 -2.71646e-07 5.42745e-08 -1.76372e-07 0.0005 1.46608e-07 
11 1 0.00193761 0.0257042 0.051303 -0.856467 0.282544 1.69944 0 0 -1.43822e-06 0.0005 1.46608e-07 
13 1 0.0177504 0.0243957 0.013858 0.000450988 -0.000114278 -0.000439405 -2.6796e-07 -4.0868e-07 5.73506e-07 0.0005 1.46608e-07 
14 1 0.0149443 0.022207 0.0157424 0.00124376 0.00262785 -0.000480532 6.73492e-07 2.64157e-07 -5.36163e-07 0.0005 1.46608e-07 
15 1 0.023292 0.0230121 0.0157611 -0.000196785 7.05582e-05 -0.000165548 -6.1408e-06 -4.46222e-06 6.32939e-06 0.0005 1.46608e-07 
17 1 0.021149 0.0239654 0.012989 0.000346657 -0.000649452 -0.000538809 -3.69572e-07 -4.8975e-08 5.40931e-07 0.0005 1.46608e-07 
18 1 0.08261 0.0191091 0.00590955 -1.7719e-14 -5.03455e-14 2.17002e-13 3.44054e-19 -3.60518e-19 -5.71747e-20 0.0005 1.46608e-07 
19 1 0.0194461 0.0237525 0.0138274 0.000170384 0.00384629 -0.00979703 -9.21608e-06 -5.41064e-06 1.6042e-05 0.0005 1.46608e-07 
20 1 0.0168196 0.0181632 0.0158599 0.0134014 -0.0217683 -0.00659628 0 0 -1.43822e-06 0.0005 1.46608e-07 
21 1 0.0211753 0.0218098 0.0160157 -0.00241908 0.00491179 -0.00661753 1.03762e-07 1.95396e-06 -8.73717e-08 0.0005 1.46608e-07 
22 1 0.0240468 0.022691 0.0155741 -7.33027e-05 4.25169e-05 0.000399532 -2.68279e-06 -5.0546e-07 3.64112e-06 0.0005 1.46608e-07 
23 1 0.0207637 0.021211 0.00781495 0.000549138 -0.0164277 -0.0101388 -2.19838e-09 -9.18556e-09 5.7587e-09 0.0005 1.46608e-07 
24 1 0.0182465 0.0223671 0.0164485 -0.0136161 -0.00712523 0.00876524 0 0 -1.43822e-06 0.0005 1.46608e-07 
26 1 0.0227019 0.0219984 0.0147586 0.00127194 0.0106402 -0.0117321 4.1265e-06 3.18871e-06 5.29878e-06 0.0005 1.46608e-07 
28 1 0.0136817 0.0219823 0.0158819 -0.0015185 -0.00381885 -0.00299639 0 0 -1.43822e-06 0.0005 1.46608e-07 
29 1 0.0165152 0.014251 0.0136819 0.000439638 -0.0014635 0.0141426 4.97313e-05 2.55959e-05 2.66634e-06 0.0005 1.46608e-07 
31 1 0.0182645 0.0239764 0.0146042 0.00327709 0.000506132 0.00174035 -1.36337e-05 -7.2252e-06 -3.05053e-06 0.0005 1.46608e-07 
32 1 0.0229643 0.0175096 0.0156838 0.000566744 0.0192903 0.00724592 5.31382e-11 5.6085e-09 -1.46494e-08 0.0005 1.46608e-07 
33 1 0.0162092 0.0209593 0.0155305 0.00492359 0.0103747 -0.00573017 -4.43867e-06 3.96904e-07 -3.52589e-06 0.0005 1.46608e-07 
34 1 0.0270935 0.0226307 0.00902281 0.00394319 -0.0027118 -0.00519471 -1.48203e-06 -3.65749e-07 -9.72517e-08 0.0005 1.46608e-07 
35 1 0.0174588 0.0151612 0.0145589 0.0267565 -0.0192499 -0.0648268 2.12247e-07 2.71979e-08 -1.19478e-06 0.0005 1.46608e-07 
36 1 0.0211987 0.0242953 0.0139828 0.000740381 -0.00097199 0.00130376 6.43061e-06 -1.12348e-05 1.9603e-05 0.0005 1.46608e-07 
38 1 0.0219095 0.0238029 0.0135824 -7.61098e-05 -0.000371606 -0.00034564 2.24237e-06 -1.53807e-07 3.6863e-06 0.0005 1.46608e-07 
39 1 0.0226556 0.0235606 0.0152943 0.000347296 0.00131095 2.03902e-05 -4.53939e-06 3.01039e-06 -5.76788e-07 0.0005 1.46608e-07 
40 1 0.025512 0.0208358 0.0162717 -0.000252235 0.00166299 -0.000542091 -2.79475e-08 -8.26905e-08 3.17596e-08 0.0005 1.46608e-07 
42 1 0.0225677 0.0145497 0.0142918 0.000421532 0.000180049 -7.10725e-05 -2.1872e-07 8.79954e-08 -2.28209e-07 0.0005 1.46608e-07 
43 1 0.0201089 0.0179272 0.00731373 0.000572758 -0.0136443 0.00281284 -7.36245e-08 6.72584e-08 -8.45824e-09 0.0005 1.46608e-07 
46 1 0.0201641 0.0148751 0.014694 -0.000585084 0.00408736 0.00857266 2.4752e-08 6.16095e-08 -6.9686e-08 0.0005 1.46608e-07 
48 1 0.0242018 0.0165953 0.0152153 0.00294678 0.00829668 0.00448566 -1.24404e-06 2.45382e-06 1.42609e-06 0.0005 1.46608e-07 
49 1 0.0232655 0.0147313 0.0149845 0.00608812 0.0113924 -0.00867855 -7.68097e-08 1.47198e-07 -3.17715e-07 0.0005 1.46608e-07 
51 1 0.0172047 0.0208278 0.0155816 0.0121911 0.00250575 -0.00261075 -2.2095e-07 4.24133e-07 -1.00677e-06 0.0005 1.46608e-07 
52 1 0.020054 0.0243064 0.0132484 0.00120526 -0.000399389 0.000896622 1.14655e-05 -1.4502e-05 1.50934e-05 0.0005 1.46608e-07 
53 1 0.0146487 0.0205254 0.0165554 0.00130794 -0.0047522 0.00283283 -7.99156e-08 1.21839e-06 -4.00619e-07 0.0005 1.46608e-07 
54 1 0.0222301 0.0232121 0.0130201 0.0023684 0.00470927 -0.00832002 -4.14314e-07 -2.12464e-07 7.07851e-07 0.0005 1.46608e-07 
56 1 0.0291266 0.019544 0.0157766 0.00132244 0.00262389 -0.00145391 6.7919e-08 -3.72776e-07 1.19056e-08 0.0005 1.46608e-07 
58 1 0.0170789 0.0223726 0.0164411 -0.00610694 0.0180076 -0.0120866 0 0 -1.43822e-06 0.0005 1.46608e-07 
59 1 0.0265881 0.0212507 0.00782366 4.23328e-05 -0.0128718 -0.00881734 -4.01285e-09 1.08019e-08 3.26039e-08 0.0005 1.46608e-07 
60 1 0.0224098 0.0220099 0.0160569 -0.000243177 -0.025272 -0.0315857 0 0 -1.43822e-06 0.0005 1.46608e-07 
62 1 0.0227582 0.0229312 0.0169546 0.0330097 -0.0315691 0.0174599 -6.36087e-07 -1.20683e-07 -1.37786e-06 0.0005 1.46608e-07 
64 1 0.0184612 0.0149737 0.0132959 0.00132436 0.00337117 0.00314965 1.61095e-08 -5.4503e-07 8.05356e-07 0.0005 1.46608e-07 
65 1 0.0250915 0.0214972 0.0160612 0.000202517 0.00298181 0.000203187 -1.75419e-08 -1.08004e-07 8.79715e-08 0.0005 1.46608e-07 
66 1 0.0293714 0.0158484 0.0144171 0.000574694 0.013213 0.0137874 -5.83689e-09 2.46176e-08 7.6128e-09 0.0005 1.46608e-07 
68 1 0.0246097 0.0221066 0.0157102 0.000207743 0.000124617 0.00225444 -8.2362e-08 -5.06757e-07 5.95116e-07 0.0005 1.46608e-07 
69 1 0.0227234 0.0155203 0.0154615 0.00549809 0.00375969 -0.0121602 8.04672e-08 -3.14129e-07 1.70967e-06 0.0005 1.46608e-07 
70 1 0.0258382 0.0207621 0.0170159 -0.000189579 0.000309466 -0.000218784 3.35879e-08 -5.78166e-08 3.66231e-08 0.0005 1.46608e-07 
71 1 0.0174448 0.0235819 0.0154681 -0.00616451 -7.02021e-05 0.0141204 0 0 -1.43822e-06 0.0005 1.46608e-07 
72 1 0.0209245 0.0141175 0.0132461 0.000243656 -0.000516333 0.0011162 -6.53498e-08 4.32207e-09 5.47748e-08 0.0005 1.46608e-07 
73 1 0.0207343 0.0226927 0.0154213 -0.00903277 -0.0129913 0.0255143 4.13855e-06 1.91014e-06 7.06954e-06 0.0005 1.46608e-07 
74 1 0.018804 0.0244273 0.0138916 0.000314066 0.001135 -0.00187969 2.34346e-06 7.30364e-07 -7.61818e-07 0.0005 1.46608e-07 
75 1 0.0174083 0.014107 0.0141063 0.0374269 -0.00791779 -0.0177146 3.25984e-05 1.67457e-05 2.58612e-05 0.0005 1.46608e-07 
76 1 0.0163507 0.0237115 0.0137817 -0.00067668 -0.000761922 0.000504682 -5.11942e-06 -4.59616e-06 3.8479e-06 0.0005 1.46608e-07 
77 1 0.0245319 0.0219768 0.0165215 0.000481691 0.000592352 0.000826903 -1.33616e-07 -2.58973e-08 4.55042e-08 0.0005 1.46608e-07 
78 1 0.0189217 0.0162844 0.00817915 0.000392557 -0.0143081 0.0124766 7.32081e-07 2.37817e-06 -2.83079e-06 0.0005 1.46608e-07 
79 1 0.0157863 0.0224761 0.0143272 0.00594061 0.00105349 0.000623681 -8.68337e-08 1.49201e-06 -4.19216e-09 0.0005 1.46608e-07 
81 1 0.018321 0.0137587 0.0138673 0.00248114 0.0018826 0.00448578 -1.33264e-08 -2.24039e-07 -4.04656e-07 0.0005 1.46608e-07 
82 1 0.0156135 0.0234577 0.0144076 0.000499434 0.000504731 0.00052585 -1.3469e-06 -1.79401e-06 1.99931e-06 0.0005 1.46608e-07 
83 1 0.026556 0.0228627 0.00945705 0.000263903 -0.00716435 -0.0136252 -5.28676e-08 -1.48633e-08 1.23865e-07 0.0005 1.46608e-07 
84 1 0.0245337 0.0205192 0.016463 0.00408652 0.0164342 0.00727775 -1.50204e-06 1.55793e-06 -4.38034e-06 0.0005 1.46608e-07 
85 1 0.0242986 0.014966 0.0102248 -5.05586e-05 -0.00767497 0.0189223 -1.2685e-08 1.4928e-08 -4.10884e-08 0.0005 1.46608e-07 
86 1 0.0236213 0.0221395 0.0146617 0.00351298 0.00461073 -0.00606464 3.35644e-05 -3.56683e-05 2.84024e-05 0.0005 1.46608e-07 
87 1 0.0198219 0.022983 0.0151398 -0.0112174 -0.025869 0.0166051 -3.21955e-06 -7.09186e-06 1.5332e-06 0.0005 1.46608e-07 
88 1 0.0187344 0.0156661 0.00884872 0.000161677 -0.0137072 0.0167159 2.37183e-07 6.98667e-07 -6.36171e-07 0.0005 1.46608e-07 
89 1 0.0273346 0.023182 0.0127428 0.000752376 0.00752792 -0.0157157 4.98403e-07 -7.40787e-08 2.36443e-08 0.0005 1.46608e-07 
90 1 0.0200772 0.0229991 0.0161486 -0.00860424 0.0243908 0.0331626 0 0 -1.43822e-06 0.0005 1.46608e-07 
91 1 0.0188519 0.0216333 0.0160648 0.0019796 0.016181 -0.00932929 -7.52727e-06 3.23659e-06 -1.69352e-06 0.0005 1.46608e-07 
92 1 0.0208238 0.0233209 0.0106557 0.000939991 -0.00409646 -0.0189614 3.79657e-08 3.25376e-08 1.77145e-07 0.0005 1.46608e-07 
93 1 0.0224907 0.0197287 0.015892 0.0020707 0.0124872 -0.00219541 -1.20427e-06 -3.72471e-06 -4.51817e-07 0.0005 1.46608e-07 
95 1 0.0237517 0.014966 0.0127666 0.000691532 0.00721224 0.0194017 1.52703e-08 2.58917e-08 3.59169e-08 0.0005 1.46608e-07 
96 1 0.0262587 0.0218781 0.00832383 0.000227547 -0.015586 -0.0133227 -2.58782e-09 -9.35509e-09 8.3526e-09 0.0005 1.46608e-07 
97 1 0.016845 0.0240093 0.0145608 -0.00179658 -0.00109864 0.00159841 -5.20632e-06 -3.90867e-06 5.17999e-06 0.0005 1.46608e-07 
98 1 0.0131411 0.0212213 0.016288 -0.012256 -0.0232444 0.00357441 -4.588e-08 8.14844e-08 -1.49848e-06 0.0005 1.46608e-07 
99 1 0.0217132 0.0143175 0.0138272 0.000288655 -0.000160597 0.000697783 -2.95573e-07 -2.63439e-07 2.68695e-08 0.0005 1.46608e-07 
100 1 0.0287055 0.0184856 0.0157907 2.76505e-05 0.0222684 0.00377126 -7.39907e-10 6.81033e-09 -1.14507e-08 0.0005 1.46608e-07 
101 1 0.0241013 0.0174762 0.0156775 0.00424877 0.00908662 0.00269781 -1.09836e-06 9.75596e-07 1.24958e-07 0.0005 1.46608e-07 
102 1 0.0234821 0.0230244 0.0148511 0.000107998 0.00138242 -0.000374608 -3.626e-06 -1.35115e-05 1.44117e-06 0.0005 1.46608e-07 
105 1 0.0187649 0.0224621 0.0154772 0.00995198 0.00829637 -0.0241192 0 0 -1.43822e-06 0.0005 1.46608e-07 
106 1 0.0170995 0.0240045 0.0132513 -5.09468e-05 -0.000245888 -0.000341559 -1.03258e-06 -3.26623e-06 -3.54254e-07 0.0005 1.46608e-07 
107 1 0.0190128 0.0241022 0.0127261 -9.12577e-05 0.00287512 -0.00306727 2.54849e-08 8.50631e-09 -1.0504e-08 0.0005 1.46608e-07 
108 1 0.0276517 0.0225279 0.0139156 1.23132e-06 0.0132064 -0.0175106 -1.39346e-09 -6.90301e-09 -9.93159e-09 0.0005 1.46608e-07 
109 1 0.0235652 0.0187993 0.0199153 -0.0619141 -0.0387953 0.0728981 0 0 -1.43822e-06 0.0005 1.46608e-07 
110 1 0.0230979 0.0211016 0.0158983 0.00447467 -0.00152734 0.00750113 -2.67889e-06 -2.49443e-06 8.12603e-06 0.0005 1.46608e-07 
111 1 0.0166828 0.015282 0.015532 0.0227618 -0.00500841 -0.0463054 2.27682e-08 -6.1408e-09 -1.40633e-06 0.0005 1.46608e-07 
112 1 0.0191897 0.0162598 0.014958 0.00408285 0.00303335 0.00317917 9.19634e-09 -4.98266e-08 -4.60407e-08 0.0005 1.46608e-07 
113 1 0.0164557 0.014549 0.014635 0.00179115 -0.00156283 -0.000338293 0 0 -1.43822e-06 0.0005 1.46608e-07 
114 1 0.0234162 0.0188472 0.0168864 -0.0129283 -0.00178102 7.33438e-06 0 0 -1.43822e-06 0.0005 1.46608e-07 
115 1 0.0170427 0.023446 0.0122404 0.00604887 0.000428131 -0.0082147 2.10287e-08 8.57172e-09 -1.62133e-08 0.0005 1.46608e-07 
116 1 0.0235989 0.0182215 0.0161153 0.00172119 0.00347458 0.00619493 7.32604e-06 -2.68383e-06 3.49152e-06 0.0005 1.46608e-07 
117 1 0.0165952 0.0225148 0.0155503 0.00551947 -0.00327255 0.00828016 0 0 -1.43822e-06 0.0005 1.46608e-07 
119 1 0.0201251 0.0155565 0.0154326 -0.00173155 0.00318136 0.00252084 2.74448e-08 -2.12433e-07 -3.68189e-07 0.0005 1.46608e-07 
120 1 0.0202488 0.0238544 0.0156542 -0.0021164 -0.00393673 -0.0141217 -2.70369e-07 -6.38451e-07 -6.42142e-07 0.0005 1.46608e-07 
121 1 0.0246132 0.0186435 0.015923 1.96129e-07 0.0204096 0.00193478 7.17004e-10 -3.59307e-09 -1.39239e-08 0.0005 1.46608e-07 
122 1 0.0164087 0.0201264 0.0160847 0.00671497 -0.00227599 0.0249365 0 0 -1.43822e-06 0.0005 1.46608e-07 
124 1 0.0254031 0.0183403 0.00725753 0.000306142 -0.0206542 0.00355689 -1.2799e-09 -3.90965e-09 1.08893e-08 0.0005 1.46608e-07 
125 1 0.0192483 0.0136813 0.0135017 0.000608949 -0.000440571 0.000507385 -1.41674e-07 -3.92675e-08 -3.5205e-07 0.0005 1.46608e-07 
126 1 0.0219587 0.0216965 0.0150341 5.13433e-05 0.0163639 -0.0123223 1.29788e-07 -1.2141e-06 -1.03397e-06 0.0005 1.46608e-07 
127 1 0.0256976 0.0196114 0.00720754 0.000732683 -0.01741 -0.00324853 -2.06802e-09 -4.04459e-08 2.69809e-08 0.0005 1.46608e-07 
128 1 0.021457 0.0230444 0.0133624 3.68133e-05 0.00775496 -0.0175698 2.58013e-07 2.69341e-08 1.0635e-07 0.0005 1.46608e-07 
129 1 0.0211128 0.0159183 0.0157212 -0.00124867 0.00154926 0.00325837 -7.28546e-09 -3.80319e-08 -5.39052e-09 0.0005 1.46608e-07 
130 1 0.0217083 0.022515 0.0155477 -0.0018584 0.00409898 0.0048211 8.21822e-06 6.64884e-06 -3.78088e-06 0.0005 1.46608e-07 
131 1 0.0258952 0.0184374 0.016726 -0.0349504 -0.0105645 -0.0803143 -3.779e-07 8.49365e-08 -9.18985e-07 0.0005 1.46608e-07 
132 1 0.0207035 0.0139262 0.0141994 4.99812e-06 -0.000227351 0.000337131 3.33855e-08 1.66032e-08 4.63137e-08 0.0005 1.46608e-07 
134 1 0.0240808 0.0156006 0.0152217 0.00699712 0.00254807 0.0114011 2.00721e-06 5.30769e-07 2.35265e-06 0.0005 1.46608e-07 
135 1 0.0176282 0.0207879 0.0165082 0.000589228 -0.00828327 -0.00639361 0 0 -1.43822e-06 0.0005 1.46608e-07 
137 1 0.0198573 0.0206055 0.0165304 -0.00274758 0.0130246 -0.000161093 4.99076e-06 1.16821e-05 -1.83523e-07 0.0005 1.46608e-07 
138 1 0.0196845 0.0221599 0.0157294 0.00691895 0.0187892 -0.0140466 -5.49216e-07 4.57072e-07 -3.23651e-07 0.0005 1.46608e-07 
139 1 0.0240593 0.0170155 0.0168358 0.0110466 0.0343766 -0.000357809 0 0 -1.43822e-06 0.0005 1.46608e-07 
141 1 0.0196496 0.024185 0.0163846 0.00277168 -0.00406674 -0.00985964 -2.98239e-08 -4.01147e-07 -8.90268e-07 0.0005 1.46608e-07 
142 1 0.028369 0.0197114 0.0157965 0.00145314 0.0177291 -0.00261575 6.29143e-08 -2.81477e-07 1.12699e-07 0.0005 1.46608e-07 
143 1 0.018394 0.0185855 0.0159224 0.00547243 -0.0264707 -0.000365946 1.13155e-05 1.8436e-05 1.8094e-06 0.0005 1.46608e-07 
146 1 0.0222037 0.0231624 0.0161245 0.000688654 0.000802204 0.00895093 4.46829e-06 -4.41e-06 5.99452e-06 0.0005 1.46608e-07 
147 1 0.0147898 0.023122 0.0148655 -0.00149253 -0.000857199 -0.000978576 0 0 -1.43822e-06 0.0005 1.46608e-07 
148 1 0.0199497 0.0208983 0.00765375 0.000786195 -0.0185614 -0.0079347 -3.27914e-09 -1.19875e-08 4.56989e-09 0.0005 1.46608e-07 
149 1 0.0280892 0.0209989 0.0153433 0.00128901 0.012358 -0.00591511 2.33216e-09 -6.52822e-08 4.04378e-08 0.0005 1.46608e-07 
151 1 0.0159269 0.0228816 0.0164593 -0.0195738 -0.0100413 0.0166795 7.03094e-07 -2.42071e-07 -1.39353e-06 0.0005 1.46608e-07 
154 1 0.0218039 0.0223643 0.0144559 0.00022654 0.0120156 -0.0142357 2.21264e-06 -4.53767e-06 2.94268e-06 0.0005 1.46608e-07 
155 1 0.0177491 0.0221654 0.0146813 0.0162105 -0.0141653 0.00904674 3.25352e-06 1.4033e-05 2.64973e-06 0.0005 1.46608e-07 
156 1 0.0186511 0.0190882 0.0167528 0.00584802 -0.00681843 0.00600879 0 0 -1.43822e-06 0.0005 1.46608e-07 
157 1 0.023557 0.0165095 0.0161344 0.0071763 0.0248562 0.00754059 0 0 -1.43822e-06 0.0005 1.46608e-07 
159 1 0.0154325 0.014659 0.0143892 0.00370651 -0.000900872 -0.00327302 5.59247e-08 -3.66546e-08 -9.48239e-09 0.0005 1.46608e-07 
160 1 0.022624 0.0227071 0.0151891 0.000666311 0.00417565 -0.00470274 -8.28965e-06 6.25444e-06 1.96737e-06 0.0005 1.46608e-07 
161 1 0.0195481 0.0219214 0.016722 0.00157487 0.00911487 -0.00386695 6.22455e-06 -6.638e-07 6.93088e-07 0.0005 1.46608e-07 
162 1 0.0151252 0.0220653 0.0167163 0.00284907 -0.000479289 -0.000770188 0 0 -1.43822e-06 0.0005 1.46608e-07 
163 1 0.0210603 0.0209158 0.0164495 0.00323053 0.00737799 -0.00155076 -1.91197e-07 1.1786e-06 -5.91666e-07 0.0005 1.46608e-07 
164 1 0.0176262 0.0156268 0.0155594 0.0314465 -0.0204644 -0.0671633 0 0 -1.43822e-06 0.0005 1.46608e-07 
165 1 0.0161859 0.0235982 0.0152154 0.0042889 0.00219104 -0.0018918 2.12508e-07 -1.2013e-07 1.72549e-06 0.0005 1.46608e-07 
167 1 0.0213221 0.0238685 0.0149011 0.000385479 -0.00228043 0.00173364 6.05441e-06 -5.22241e-06 6.64195e-06 0.0005 1.46608e-07 
168 1 0.0154106 0.0211642 0.0163641 -0.00363974 -0.0141987 0.00641482 1.02762e-08 8.96608e-07 -8.05664e-07 0.0005 1.46608e-07 
169 1 0.015766 0.0152371 0.0151351 0.00539494 -0.00449074 -0.00638812 -1.29122e-07 -3.53408e-07 -3.4322e-07 0.0005 1.46608e-07 
171 1 0.0217218 0.0236575 0.0168799 -0.0308839 0.0243302 0.0311494 5.68388e-08 -1.71988e-06 -1.45028e-06 0.0005 1.46608e-07 
172 1 0.0211471 0.0147616 0.0145235 -0.000577506 0.000479272 -0.000302795 -1.87189e-09 -4.92825e-08 -8.60672e-08 0.0005 1.46608e-07 
173 1 0.0179811 0.0141439 0.0130116 0.00332684 0.00147572 0.00441558 -2.66108e-07 -2.93593e-07 -5.98639e-07 0.0005 1.46608e-07 
174 1 0.0184039 0.0238458 0.0134036 0.000131615 0.00103392 -0.00287996 8.04117e-07 -1.86926e-07 1.01975e-07 0.0005 1.46608e-07 
175 1 0.0207073 0.0239679 0.0165451 -0.000517412 -0.00370168 -0.0079715 0 0 -1.43822e-06 0.0005 1.46608e-07 
176 1 0.0235666 0.020221 0.0158746 0.00668094 -0.000643719 0.0126812 7.6895e-07 1.91277e-07 5.79683e-06 0.0005 1.46608e-07 
177 1 0.0183364 0.0195836 0.0159391 0.0119686 -0.0253437 0.00570487 9.40471e-07 2.06051e-06 -2.5616e-07 0.0005 1.46608e-07 
178 1 0.0141608 0.0228055 0.0155757 -0.00137581 -0.00168848 -0.0007715 -8.26741e-07 2.2028e-06 -1.4788e-06 0.0005 1.46608e-07 
180 1 0.0191019 0.0228912 0.0163468 -0.0157219 0.0161845 0.0175176 0 0 -1.43822e-06 0.0005 1.46608e-07 
182 1 0.0159922 0.0217999 0.0150335 0.0066901 -0.000145858 0.00187255 8.0926e-07 -6.06927e-06 7.25628e-06 0.0005 1.46608e-07 
186 1 0.0233951 0.0220323 0.0158869 0.000393233 0.000251059 0.00218955 -5.42852e-06 -6.85264e-07 1.08229e-05 0.0005 1.46608e-07 
187 1 0.0474618 0.0192773 0.00593797 4.7856e-15 -1.01275e-14 -1.0571e-13 -3.21608e-20 5.45542e-20 -6.56451e-21 0.0005 1.46608e-07 
188 1 0.0196748 0.0195832 0.00723412 0.00010177 -0.0211633 -0.00481189 2.83256e-08 1.79862e-07 7.95972e-08 0.0005 1.46608e-07 
189 1 0.0245664 0.0153656 0.00925511 0.000600665 -0.00966219 0.0180593 -2.23262e-08 -4.1295e-08 9.02427e-08 0.0005 1.46608e-07 
191 1 0.0249761 0.0169929 0.015707 0.00311935 0.0095111 0.00358876 -1.19252e-06 4.27635e-06 2.49151e-06 0.0005 1.46608e-07 
192 1 0.0235717 0.0152729 0.0135668 0.00105341 0.00961051 0.0156173 -5.52995e-08 -1.72032e-08 -9.34928e-08 0.0005 1.46608e-07 
193 1 0.0222626 0.0206683 0.015637 0.00285224 0.00890558 -0.00385793 -7.7644e-07 -1.94486e-06 2.31672e-06 0.0005 1.46608e-07 
194 1 0.0194762 0.0196987 0.0167094 -0.0034727 0.011094 -0.00226539 -3.02341e-06 -5.57425e-06 5.54855e-06 0.0005 1.46608e-07 
195 1 0.0180069 0.0214541 0.015335 0.0119719 -0.0104135 0.0177973 4.02452e-07 -4.55846e-07 4.45658e-07 0.0005 1.46608e-07 
198 1 0.0192436 0.0237645 0.0155395 -0.0202566 0.000704537 0.0119932 0 0 -1.43822e-06 0.0005 1.46608e-07 
201 1 0.0181225 0.0230506 0.0149563 -0.00814683 0.00291109 -0.00938949 -4.426e-06 1.48789e-05 5.38499e-06 0.0005 1.46608e-07 
202 1 0.0185445 0.0143956 0.0151897 0.00132676 0.000307184 0.00192315 8.17918e-08 -5.48841e-08 -9.24982e-08 0.0005 1.46608e-07 
204 1 0.0212271 0.0234605 0.0158549 -0.0685554 0.0383331 0.0322916 0 0 -1.43822e-06 0.0005 1.46608e-07 
207 1 0.0146444 0.0150416 0.0148895 0.0014245 -0.0011581 -0.000800336 1.42754e-06 -6.39252e-07 -1.45643e-06 0.0005 1.46608e-07 
209 1 0.0214612 0.0228461 0.00942589 0.000736825 -0.00837512 -0.0128819 1.84463e-07 -2.8759e-08 1.45405e-08 0.0005 1.46608e-07 
213 1 0.0176698 0.0224673 0.0156321 -0.0236227 0.00240857 -0.00187579 0 0 -1.43822e-06 0.0005 1.46608e-07 
214 1 0.0202509 0.0214599 0.0161775 -0.00347904 0.0131779 -0.00781207 2.61227e-07 1.18286e-06 -5.76636e-07 0.0005 1.46608e-07 
215 1 0.0236216 0.0214747 0.0166918 0.0160263 0.0122344 0.00792617 0 0 -1.43822e-06 0.0005 1.46608e-07 
216 1 0.0190289 0.0233357 0.014647 -0.000854503 -0.00883851 0.00941561 -4.53925e-06 1.23403e-05 -6.94218e-06 0.0005 1.46608e-07 
217 1 0.017627 0.0239752 0.0163956 0.00211392 0.0157288 0.0325504 0 0 -1.43822e-06 0.0005 1.46608e-07 
218 1 0.0179947 0.0146547 0.0121542 0.0038706 0.001076 0.00466333 1.48489e-07 -1.0016e-07 -7.34192e-07 0.0005 1.46608e-07 
220 1 0.0210467 0.0189017 0.0167627 -3.61172e-09 0.0247807 0.000985934 -3.67204e-12 9.09893e-10 -1.6911e-08 0.0005 1.46608e-07 
221 1 0.0428597 0.0177668 0.00603291 3.90525e-15 -1.12794e-14 -6.19598e-14 4.77382e-20 1.67818e-20 -2.11758e-22 0.0005 1.46608e-07 
222 1 0.0158839 0.0219814 0.0160214 -0.00447499 -0.00834376 0.00509079 0 0 -1.43822e-06 0.0005 1.46608e-07 
223 1 0.0182106 0.0205501 0.015711 0.0148336 -0.0169016 0.0122826 0 0 -1.43822e-06 0.0005 1.46608e-07 
224 1 0.0198586 0.0239022 0.0147315 -0.00985449 -0.000835663 -0.0080892 0 0 -1.43822e-06 0.0005 1.46608e-07 
225 1 0.0239862 0.0147521 0.0118744 0.00157059 2.15384e-06 0.0166142 -1.11225e-09 2.95789e-08 -3.37677e-09 0.0005 1.46608e-07 
226 1 0.0179186 0.0240729 0.0127302 -0.000181326 0.00046611 -0.000983261 -6.64859e-08 -1.15715e-07 3.44178e-07 0.0005 1.46608e-07 
227 1 0.0210173 0.0149476 0.0154974 -0.00583749 0.00294078 -0.00140476 -2.43108e-08 -1.22775e-07 -8.02809e-08 0.0005 1.46608e-07 
228 1 0.0219159 0.023377 0.0121397 0.00168357 0.00283426 -0.0180151 -5.8702e-08 -1.28537e-08 1.10455e-06 0.0005 1.46608e-07 
229 1 0.0163001 0.0232611 0.0129139 0.00517854 0.00282636 -0.00188912 3.38818e-06 6.12848e-07 -6.55634e-07 0.0005 1.46608e-07 
230 1 0.020187 0.0217109 0.00813827 0.000578261 -0.0142368 -0.0107141 3.18846e-09 -1.16363e-08 2.06515e-08 0.0005 1.46608e-07 
235 1 0.0155712 0.0230012 0.0135141 0.00497172 0.00186194 -0.00160627 1.8105e-06 2.53438e-07 8.4972e-07 0.0005 1.46608e-07 
237 1 0.0234405 0.0157016 0.0144604 0.000593169 0.00956162 0.0165478 5.451e-07 5.08909e-07 -9.50858e-07 0.0005 1.46608e-07 
238 1 0.0204636 0.0202457 0.00740258 4.34474e-05 -0.0211447 -0.00683654 -3.87663e-10 -8.16025e-09 7.9442e-09 0.0005 1.46608e-07 
239 1 0.018654 0.0241079 0.0164485 0.00169617 0.00138677 0.00149409 -1.10364e-06 -3.35065e-06 -3.89126e-07 0.0005 1.46608e-07 
240 1 0.0166704 0.0234556 0.0160997 -0.0135664 -0.00273272 0.0178562 3.46387e-07 -1.74533e-07 -1.4524e-06 0.0005 1.46608e-07 
241 1 0.014464 0.0214424 0.0161947 -0.00095223 -0.00112954 0.00153073 -1.13321e-09 1.11223e-06 -7.8746e-07 0.0005 1.46608e-07 
242 1 0.0165999 0.0227883 0.0139002 0.010656 0.000158295 0.000939195 1.5492e-05 -7.13215e-06 1.28907e-05 0.0005 1.46608e-07 
243 1 0.0207411 0.0232884 0.0145951 -0.000797868 -0.0109324 0.00854613 8.01406e-06 -7.58845e-05 9.64761e-05 0.0005 1.46608e-07 
244 1 0.0186281 0.0146409 0.014224 0.00214179 0.00249375 0.00257668 -2.54099e-07 -6.10275e-07 1.93679e-08 0.0005 1.46608e-07 
245 1 0.0228716 0.0234597 0.014278 0.000186454 0.000408725 4.15555e-06 -2.70597e-06 -3.446e-06 -5.2025e-06 0.0005 1.46608e-07 
246 1 0.0183203 0.0233344 0.0159026 -0.0213181 0.00598889 -0.000784097 0 0 -1.43822e-06 0.0005 1.46608e-07 
248 1 0.0210365 0.0227008 0.016489 0.00292969 -0.0240232 0.0155333 0 0 -1.43822e-06 0.0005 1.46608e-07 
253 1 0.0229994 0.0229853 0.0134434 0.000537402 0.00133657 -0.00341625 -5.18114e-07 3.01035e-07 -2.89791e-06 0.0005 1.46608e-07 
254 1 0.0220047 0.0150512 0.0149486 -0.000247273 0.000462632 -0.00107357 3.32242e-09 -9.84247e-08 1.43307e-07 0.0005 1.46608e-07 
255 1 0.0173626 0.0198773 0.0158687 0.00194605 -0.001241 -0.000852017 -7.82455e-08 1.06538e-06 -1.24202e-07 0.0005 1.46608e-07 
256 1 0.0166348 0.0191494 0.0159625 0.00335751 -0.014166 0.00659459 0 0 -1.43822e-06 0.0005 1.46608e-07 
257 1 0.0194841 0.0168618 0.0077791 0.00136602 -0.0144804 0.00781685 -2.32458e-07 2.30779e-06 -2.09123e-06 0.0005 1.46608e-07 
258 1 0.0181204 0.0169228 0.0154054 3.75884e-06 0.0138836 0.00797187 -1.21798e-13 1.73449e-08 8.65131e-10 0.0005 1.46608e-07 
261 1 0.0253942 0.0215374 0.0168355 0.000138934 0.000647406 -2.06242e-05 -4.67429e-08 -7.45037e-08 2.62755e-08 0.0005 1.46608e-07 
262 1 0.0195847 0.0145835 0.015455 -0.0094369 -0.0016768 -0.000300671 -6.97056e-08 -3.91103e-08 -2.89128e-07 0.0005 1.46608e-07 
263 1 0.0223194 0.0227586 0.0138968 -0.000358216 0.0071562 -0.0103311 -2.08501e-06 -1.58257e-06 -8.55149e-07 0.0005 1.46608e-07 
264 1 0.0172031 0.0165625 0.0151855 0.00340951 0.00662825 0.00381647 6.47581e-09 -7.60459e-08 -4.78567e-08 0.0005 1.46608e-07 
266 1 0.0219526 0.0232228 0.0146208 0.000858417 0.00445929 -0.00769542 6.25375e-06 -1.74066e-06 4.89475e-07 0.0005 1.46608e-07 
268 1 0.0192982 0.0153082 0.0138989 0.00260084 0.00305181 0.00357864 -3.53207e-07 -1.38094e-07 -6.11727e-07 0.0005 1.46608e-07 
269 1 0.0198101 0.014452 0.013828 0.000934992 0.00260586 -0.00092186 2.6936e-07 6.32423e-08 -4.32504e-07 0.0005 1.46608e-07 
270 1 0.0149554 0.0157163 0.0155591 0.00379872 -0.00116311 0.000673452 -4.89502e-08 -7.88951e-08 -7.51212e-07 0.0005 1.46608e-07 
271 1 0.0230825 0.0199435 0.0167151 -0.0014841 -0.00744054 0.00784282 0 0 -1.43822e-06 0.0005 1.46608e-07 
272 1 0.0181021 0.015928 0.0146707 0.00310114 -0.000234423 -0.00201617 4.70009e-08 9.63531e-08 1.56821e-07 0.0005 1.46608e-07 
273 1 0.0244101 0.0196897 0.0159162 0.00604089 -0.00185611 0.00413116 3.56643e-07 -9.9901e-07 1.61657e-06 0.0005 1.46608e-07 
274 1 0.0170413 0.0229787 0.0147801 0.00900074 -0.00216614 0.00619804 0 0 -1.43822e-06 0.0005 1.46608e-07 
275 1 0.0140381 0.0196791 0.0167111 -1.56213e-10 0.0245232 -0.00291707 -3.72121e-16 -1.9581e-09 -1.67229e-08 0.0005 1.46608e-07 
276 1 0.0169822 0.0216809 0.0151002 0.00802012 -0.00898238 0.00390827 2.83352e-06 1.20588e-06 1.10456e-07 0.0005 1.46608e-07 
277 1 0.0249008 0.0162111 0.00827586 0.000344335 -0.0168477 0.0140278 -6.11913e-09 -3.47063e-09 1.41992e-08 0.0005 1.46608e-07 
278 1 0.0248963 0.0148208 0.0106848 0.000464042 -0.0038955 0.0207864 -8.66124e-09 1.26379e-08 -1.12625e-09 0.0005 1.46608e-07 
279 1 0.0191554 0.0175076 0.00745537 0.000379572 -0.0180216 0.00731832 3.86196e-07 3.45247e-06 -1.13141e-06 0.0005 1.46608e-07 
280 1 0.0193389 0.0148143 0.0128443 0.000710873 0.000352952 0.00292109 -3.08321e-07 6.46093e-08 -3.88476e-08 0.0005 1.46608e-07 
281 1 0.0212856 0.0231196 0.0101103 0.00326465 -0.00428909 -0.0134664 -2.67853e-07 3.41615e-08 -1.69134e-09 0.0005 1.46608e-07 
282 1 0.0139636 0.0155437 0.0154225 0.00159607 -0.00194265 -0.000884574 -1.42499e-06 1.52153e-06 2.1468e-06 0.0005 1.46608e-07 
283 1 0.0174544 0.0230784 0.0133749 0.00264007 0.00368733 -0.0084107 -3.61559e-07 -6.11534e-07 3.95624e-06 0.0005 1.46608e-07 
285 1 0.0203929 0.0237564 0.0138971 0.000682981 -0.00436675 0.00307316 -2.57051e-06 -4.17418e-05 6.40769e-05 0.0005 1.46608e-07 
287 1 0.0167262 0.0214586 0.0162255 0.00999228 0.00792094 -0.00794959 3.79151e-06 4.20044e-06 3.92587e-06 0.0005 1.46608e-07 
288 1 0.0155739 0.0193783 0.0167745 3.40172e-10 0.0248438 -0.00142904 -5.7816e-12 -8.86499e-10 -1.69603e-08 0.0005 1.46608e-07 
289 1 0.0156384 0.0227579 0.0152789 0.00776913 -0.00790313 -0.00239479 0 0 -1.43822e-06 0.0005 1.46608e-07 
290 1 0.0183223 0.0149458 0.0103154 0.000179008 -0.00655078 0.0211973 -5.55045e-10 8.37116e-09 1.1321e-08 0.0005 1.46608e-07 
291 1 0.0240121 0.021115 0.0154359 0.00617076 -0.0821686 0.048044 -2.47295e-09 1.43879e-06 -6.32876e-07 0.0005 1.46608e-07 
293 1 0.0125189 0.0201599 0.0165107 0.00294656 0.000921123 -0.00345506 -1.619e-08 -3.21245e-08 8.12705e-10 0.0005 1.46608e-07 
294 1 0.0211235 0.0234323 0.0115626 0.000503274 0.00130351 -0.0220508 5.20532e-08 -4.32773e-08 1.11672e-07 0.0005 1.46608e-07 
296 1 0.0194195 0.0184449 0.00723175 0.000346612 -0.0197974 0.00334349 9.51466e-08 4.48455e-07 1.1086e-08 0.0005 1.46608e-07 
297 1 0.0177649 0.0178235 0.0157707 0.0236835 -0.0214994 -0.0047879 -1.26379e-05 -2.01615e-05 -4.43974e-06 0.0005 1.46608e-07 
298 1 0.021246 0.0233011 0.0124634 -7.12054e-05 0.00612529 -0.0213463 4.35259e-09 -1.21729e-07 2.36774e-07 0.0005 1.46608e-07 
299 1 0.0187811 0.0153661 0.015143 0.00886644 -0.00240266 -0.0132337 3.12428e-08 -3.61579e-08 2.09646e-07 0.0005 1.46608e-07 
