ITEM: TIMESTEP
57400000
ITEM: NUMBER OF ATOMS
88
ITEM: BOX BOUNDS ff ff ff
-0.02 0.43
-0.02 0.06
-0.02 0.07
ITEM: ATOMS id type x y z vx vy vz fx fy fz radius mass 
1 1 0.0387146 0.0187573 0.00575718 -8.68248e-15 7.85697e-14 2.00897e-13 2.64698e-23 0 0 0.0005 1.46608e-07 
2 1 0.0544274 0.0230396 0.0130979 2.26417e-05 0.00903257 -0.0201483 -8.25252e-10 -8.99651e-09 -9.94276e-09 0.0005 1.46608e-07 
3 1 0.0657504 0.019873 0.00578573 -1.35931e-15 3.97331e-14 -1.45083e-13 3.53636e-20 5.82335e-22 -2.11758e-22 0.0005 1.46608e-07 
8 1 0.102543 0.017821 0.00581645 -9.78111e-16 -4.35255e-15 -1.20042e-13 -3.63959e-23 -1.98523e-23 0 0.0005 1.46608e-07 
9 1 0.0387828 0.0214812 0.00622724 -2.72454e-19 1.05465e-18 -5.7047e-18 -8.27181e-25 1.8198e-23 0 0.0005 1.46608e-07 
14 1 0.191105 0.0203026 0.00593314 -1.1229e-14 -4.38001e-14 9.73362e-14 2.2764e-21 -5.29396e-22 0 0.0005 1.46608e-07 
18 1 0.081805 0.0184766 0.00581164 4.5131e-15 1.52775e-14 6.47199e-14 -1.65966e-20 -2.5411e-21 1.27055e-21 0.0005 1.46608e-07 
26 1 0.10448 0.0180949 0.00580371 1.49858e-14 2.23616e-14 -1.76076e-13 -1.82641e-20 -2.18111e-20 -3.17637e-21 0.0005 1.46608e-07 
28 1 0.0654445 0.0222807 0.00868318 0.00113564 -0.0101955 -0.0120119 1.99019e-09 1.22034e-08 4.34481e-08 0.0005 1.46608e-07 
32 1 0.0458896 0.0168235 0.00626774 -4.52861e-15 -2.52971e-14 -1.74151e-13 -2.30287e-21 -5.82335e-22 2.11758e-22 0.0005 1.46608e-07 
34 1 0.0564645 0.0213699 0.00635393 -1.21664e-15 -1.49952e-14 3.21093e-14 -1.18737e-19 1.56913e-19 6.98802e-20 0.0005 1.46608e-07 
38 1 0.0703819 0.0183523 0.00730811 -0.000555582 -0.0207227 0.00258262 -4.77552e-10 -6.51071e-09 1.56618e-08 0.0005 1.46608e-07 
46 1 0.136461 0.0187737 0.0058834 2.02419e-15 3.13833e-15 -2.9051e-14 -6.24687e-21 2.83227e-21 8.47033e-22 0.0005 1.46608e-07 
48 1 0.0753566 0.0149583 0.0102541 0.00220024 -0.0025324 0.00840841 6.05888e-09 -7.13201e-09 -8.81229e-08 0.0005 1.46608e-07 
54 1 0.0642637 0.0197348 0.005762 -1.62365e-15 4.68991e-14 -1.71253e-13 4.75133e-21 5.29396e-23 0 0.0005 1.46608e-07 
56 1 0.0830301 0.0197432 0.00609207 1.59242e-14 4.46515e-14 -1.91799e-13 -1.56172e-21 1.27055e-21 4.23516e-22 0.0005 1.46608e-07 
59 1 0.0793161 0.0192087 0.00581236 1.53201e-14 5.18468e-14 2.19692e-13 -5.83923e-20 4.23516e-21 3.38813e-21 0.0005 1.46608e-07 
64 1 0.0170063 0.0201419 0.00601043 1.30339e-14 5.25084e-15 -1.07336e-13 9.94205e-20 2.76874e-20 1.33408e-20 0.0005 1.46608e-07 
65 1 0.0631788 0.0196997 0.0057764 -5.08442e-15 -7.00995e-14 1.94375e-13 -1.05879e-22 -5.29396e-23 -2.11758e-22 0.0005 1.46608e-07 
66 1 0.0448733 0.0164686 0.00634571 -2.64708e-17 -1.41571e-16 -9.78816e-16 -7.41154e-22 -2.64698e-22 0 0.0005 1.46608e-07 
68 1 0.0774903 0.0223812 0.00875141 0.0210396 0.0537543 -0.073319 0.0375003 0.253407 -0.254029 0.0005 1.46608e-07 
70 1 0.0668722 0.0220585 0.0145106 0.000613926 0.0134207 -0.0146063 -3.67122e-09 -5.82659e-12 -1.63274e-08 0.0005 1.46608e-07 
74 1 0.058836 0.0202218 0.00735227 0.00253048 0.000520352 -0.00193558 -7.46221e-08 1.53913e-07 -5.90468e-08 0.0005 1.46608e-07 
82 1 0.0599191 0.0233238 0.0107378 0.000669159 -0.00143763 -0.0104951 1.51466e-08 -1.2955e-09 -1.7822e-08 0.0005 1.46608e-07 
83 1 0.0784338 0.0229896 0.0129768 0.000348918 0.008495 -0.0203401 -6.25757e-09 -5.8711e-09 -8.05419e-09 0.0005 1.46608e-07 
86 1 0.0829173 0.0222111 0.0066532 2.53162e-15 -1.23273e-14 5.62302e-14 -1.22952e-20 -1.58819e-22 4.23516e-22 0.0005 1.46608e-07 
88 1 0.0357086 0.0161117 0.00660683 -4.48227e-15 2.81696e-14 7.4924e-14 6.3501e-20 1.82112e-20 -3.17637e-21 0.0005 1.46608e-07 
89 1 0.0616142 0.0194373 0.00577883 -3.52257e-15 -1.56468e-14 -1.12062e-13 -1.52995e-20 1.01644e-20 -6.35275e-22 0.0005 1.46608e-07 
90 1 0.0602082 0.0233102 0.0119213 0.000750522 0.00218019 -0.0144756 -4.48947e-09 -2.04824e-08 1.01406e-08 0.0005 1.46608e-07 
93 1 0.0716749 0.02297 0.00996492 0.000796941 -0.00808666 -0.017541 -3.85102e-09 -1.54757e-08 -6.3192e-09 0.0005 1.46608e-07 
100 1 0.0829966 0.0186949 0.00584523 -1.58233e-14 -4.43655e-14 1.90571e-13 -7.16008e-21 -6.51157e-21 -1.69407e-21 0.0005 1.46608e-07 
106 1 0.0439552 0.0161318 0.00656318 1.95704e-16 -2.75166e-15 -2.89971e-15 4.36751e-22 0 -1.05879e-22 0.0005 1.46608e-07 
107 1 0.0782305 0.0203396 0.00602091 6.90311e-15 1.90867e-14 -3.57202e-14 5.29396e-23 -1.58819e-22 2.11758e-22 0.0005 1.46608e-07 
108 1 0.0820549 0.0194844 0.00595083 -1.57579e-14 -4.433e-14 1.90584e-13 7.02773e-21 1.12761e-20 3.81165e-21 0.0005 1.46608e-07 
109 1 0.0732237 0.018766 0.005768 1.04182e-14 -5.92013e-14 -1.63383e-13 -3.1102e-20 -6.61744e-21 1.27055e-21 0.0005 1.46608e-07 
112 1 0.0634431 0.0187323 0.00581101 -1.65592e-14 -3.16824e-14 -6.59072e-14 6.0052e-17 1.0573e-16 -1.64691e-17 0.0005 1.46608e-07 
113 1 0.0683032 0.0181933 0.00578444 2.26809e-15 4.39106e-15 1.52498e-13 7.4744e-21 -3.89106e-21 0 0.0005 1.46608e-07 
121 1 0.0611023 0.0211153 0.0152598 0.000124199 0.0186951 -0.0101788 -5.16188e-10 1.69891e-09 -1.33427e-08 0.0005 1.46608e-07 
124 1 0.0606894 0.0189134 0.00588092 -5.21031e-15 -2.31793e-14 -1.66018e-13 1.77348e-20 -6.37922e-21 4.23516e-22 0.0005 1.46608e-07 
125 1 0.0629521 0.016895 0.00612788 -1.73291e-08 -2.61641e-09 2.02259e-09 3.08173e-11 -3.0548e-12 4.09878e-12 0.0005 1.46608e-07 
126 1 0.0286258 0.0183498 0.00592583 -1.94459e-14 1.84871e-16 -2.28119e-13 -7.94093e-23 3.28349e-21 0 0.0005 1.46608e-07 
127 1 0.0862115 0.0201056 0.00585272 2.60393e-15 -1.48765e-14 1.99835e-13 2.42198e-21 -1.79995e-21 0 0.0005 1.46608e-07 
129 1 0.0510895 0.0148195 0.0115829 0.000259198 0.000744226 0.0210809 -1.46885e-09 1.10496e-08 5.7769e-09 0.0005 1.46608e-07 
132 1 0.0619216 0.0173346 0.00606283 -1.92372e-15 -8.58482e-15 -6.14797e-14 -1.52201e-22 0 0 0.0005 1.46608e-07 
134 1 0.0638616 0.0173542 0.00596408 1.73315e-15 4.27213e-15 3.37768e-14 -2.24993e-22 0 0 0.0005 1.46608e-07 
137 1 0.0238948 0.0168123 0.00667048 -1.55913e-14 -3.1968e-14 -1.04791e-13 -1.32349e-22 -3.44107e-21 1.05879e-21 0.0005 1.46608e-07 
142 1 0.0470176 0.01787 0.0060864 -3.12647e-15 -1.74655e-14 -1.20236e-13 1.20437e-21 -2.64698e-23 0 0.0005 1.46608e-07 
146 1 0.0388539 0.0197419 0.00587248 -2.81893e-15 1.34634e-14 -6.6567e-14 -1.28908e-20 0 6.35275e-22 0.0005 1.46608e-07 
149 1 0.0766607 0.0190533 0.00580856 -8.88522e-15 5.49389e-14 2.1117e-13 -1.18671e-19 4.5528e-21 -5.92923e-21 0.0005 1.46608e-07 
159 1 0.0779381 0.019417 0.00576935 1.87044e-15 -1.12799e-14 -4.3296e-14 -2.64698e-23 1.58819e-22 2.11758e-22 0.0005 1.46608e-07 
160 1 0.0612866 0.0181088 0.00597459 -5.19441e-15 -2.3183e-14 -1.66017e-13 1.52201e-22 0 0 0.0005 1.46608e-07 
163 1 0.0424878 0.0188132 0.00581899 -4.51498e-15 1.30454e-14 7.16621e-14 0 0 0 0.0005 1.46608e-07 
165 1 0.0920805 0.0205253 0.0059177 -7.84821e-15 -7.28946e-14 1.85342e-13 0 0 0 0.0005 1.46608e-07 
174 1 0.0802829 0.01757 0.0083853 0.000204614 0.000379816 0.000373935 -2.14544e-09 -5.04466e-08 7.07857e-09 0.0005 1.46608e-07 
182 1 0.055651 0.0177812 0.00595299 -1.15923e-14 -1.57688e-14 -2.24476e-13 6.18069e-21 1.77612e-20 -1.90582e-21 0.0005 1.46608e-07 
187 1 0.102423 0.0196788 0.00582979 1.52895e-15 2.26295e-15 -1.78438e-14 1.27584e-20 -1.6676e-21 1.05879e-21 0.0005 1.46608e-07 
189 1 0.0453636 0.0157749 0.00687326 2.73739e-17 -5.6489e-16 -6.89751e-16 1.58819e-22 2.64698e-22 0 0.0005 1.46608e-07 
193 1 0.377396 0.0176099 0.00836451 -1.39047e-05 -0.000649446 0.00113148 -7.87926e-10 -8.2587e-08 2.05592e-08 0.0005 1.46608e-07 
195 1 0.0507369 0.0203921 0.00594173 -5.71518e-15 -2.04857e-14 -3.07615e-13 -3.02649e-20 7.0542e-21 0 0.0005 1.46608e-07 
198 1 0.064015 0.0164562 0.00637648 1.42588e-15 2.04834e-14 2.62189e-14 -1.05879e-22 1.58819e-22 -1.05879e-22 0.0005 1.46608e-07 
201 1 0.0440263 0.0170728 0.00623272 2.29653e-16 -6.64014e-16 -3.64342e-15 1.32349e-22 0 0 0.0005 1.46608e-07 
209 1 0.0681211 0.0167948 0.0151043 8.41537e-05 0.0183698 0.0123846 -1.04933e-09 1.11039e-08 -7.40053e-09 0.0005 1.46608e-07 
213 1 0.0741661 0.016552 0.0150087 0.000204479 0.014709 0.0125762 1.16299e-08 -1.10175e-07 -1.35971e-07 0.0005 1.46608e-07 
215 1 0.0824647 0.0205875 0.00624167 -1.14468e-14 -3.20943e-14 1.37828e-13 -4.73147e-20 1.58289e-20 -2.11758e-22 0.0005 1.46608e-07 
221 1 0.059059 0.0180876 0.00593586 7.18607e-15 -1.49145e-14 -1.83491e-13 1.38966e-22 1.19114e-22 0 0.0005 1.46608e-07 
223 1 0.0629374 0.0178781 0.00594512 2.81048e-08 -2.50214e-09 -1.90282e-09 4.0673e-11 -4.38647e-12 -3.87835e-12 0.0005 1.46608e-07 
226 1 0.0316007 0.0183082 0.00603438 1.31776e-14 -4.47359e-14 -1.10003e-13 8.07328e-21 5.92923e-21 -1.69407e-21 0.0005 1.46608e-07 
227 1 0.0555757 0.0191553 0.0157901 0.00024226 0.0216648 0.000199972 -5.70639e-10 4.10486e-09 -1.1111e-08 0.0005 1.46608e-07 
229 1 0.0215463 0.0196109 0.00592744 -1.81493e-14 8.13631e-15 -1.66091e-13 0 -7.41154e-22 0 0.0005 1.46608e-07 
240 1 0.0643136 0.0182406 0.00582866 9.4436e-15 1.40994e-14 -7.30382e-14 -6.00767e-17 -1.05774e-16 1.64758e-17 0.0005 1.46608e-07 
242 1 0.062354 0.0187526 0.0058513 -3.50622e-15 -1.56488e-14 -1.12062e-13 4.63221e-23 0 0 0.0005 1.46608e-07 
245 1 0.0725051 0.0228633 0.0133717 0.0017534 0.00379106 -0.00931671 -7.14304e-09 1.39535e-08 1.73785e-08 0.0005 1.46608e-07 
246 1 0.0242602 0.0201274 0.00583803 -1.07556e-14 -1.73294e-15 1.75368e-13 2.38228e-22 -1.32349e-22 0 0.0005 1.46608e-07 
256 1 0.0568522 0.0148996 0.0124477 2.41048e-05 0.00372729 0.0217597 -4.24108e-10 1.23749e-08 1.15967e-09 0.0005 1.46608e-07 
257 1 0.0477975 0.0231194 0.0102429 0.000685053 -0.00548132 -0.0171773 5.57205e-09 -4.83495e-08 -3.06138e-08 0.0005 1.46608e-07 
258 1 0.0534165 0.0222024 0.00855211 0.00126884 -0.0109598 -0.0150441 4.60773e-09 5.00748e-09 2.94058e-08 0.0005 1.46608e-07 
270 1 0.0504712 0.0179279 0.00611076 -3.69923e-15 -1.32326e-14 -1.98725e-13 -1.64774e-21 -1.32349e-22 0 0.0005 1.46608e-07 
273 1 0.0371638 0.0187263 0.00573865 3.81072e-15 -1.81893e-14 8.99478e-14 -5.41307e-21 3.70577e-22 1.27055e-21 0.0005 1.46608e-07 
274 1 0.0328558 0.0191954 0.00572294 8.75969e-16 5.06752e-15 -1.96346e-14 -1.19114e-22 0 0 0.0005 1.46608e-07 
277 1 0.044465 0.0204317 0.00594645 -3.11751e-15 2.5289e-14 -8.03141e-14 -5.09543e-20 -4.76456e-21 2.11758e-22 0.0005 1.46608e-07 
279 1 0.0565237 0.015643 0.0141315 7.6392e-05 0.012922 0.0178519 -1.45786e-09 1.20093e-08 -1.67821e-09 0.0005 1.46608e-07 
280 1 0.066033 0.0188309 0.00577203 2.19547e-15 -1.03743e-14 -1.76838e-13 2.71613e-20 6.74979e-21 0 0.0005 1.46608e-07 
281 1 0.0833983 0.0210192 0.00634375 2.36848e-14 -4.025e-14 1.90901e-13 -9.87323e-21 -6.14099e-21 -4.23516e-22 0.0005 1.46608e-07 
283 1 0.0635413 0.0175291 0.008405 2.23935e-05 -0.00949183 0.00460437 -3.47394e-11 2.30118e-09 1.56218e-09 0.0005 1.46608e-07 
291 1 0.0350698 0.0188001 0.00572051 -7.09798e-15 -4.06738e-14 1.57633e-13 -1.20702e-20 -4.76456e-22 -6.35275e-22 0.0005 1.46608e-07 
293 1 0.0523527 0.0179357 0.0073918 0.0018024 -0.0167466 0.00528905 -1.10264e-08 -2.32001e-08 1.69508e-08 0.0005 1.46608e-07 
296 1 0.0667523 0.0199335 0.00579279 3.36258e-16 -9.53819e-15 3.48311e-14 -1.03745e-20 3.70577e-22 2.11758e-22 0.0005 1.46608e-07 
298 1 0.0645766 0.0188435 0.00730518 -1.0436e-05 -0.0219699 0.000166722 -7.4922e-10 -3.0319e-09 1.1056e-08 0.0005 1.46608e-07 
