ITEM: TIMESTEP
5400000
ITEM: NUMBER OF ATOMS
215
ITEM: BOX BOUNDS ff ff ff
-0.02 0.43
-0.02 0.06
-0.02 0.07
ITEM: ATOMS id type x y z vx vy vz fx fy fz radius mass 
1 1 0.022093 0.0241107 0.0144309 -8.68765e-05 3.37942e-05 0.000263947 -2.10018e-07 -2.84286e-07 3.99877e-07 0.0005 1.46608e-07 
2 1 0.0211038 0.0208457 0.0156638 -0.0111518 0.0172202 -0.0134663 0 0 -1.43822e-06 0.0005 1.46608e-07 
3 1 0.0258498 0.0195075 0.0158433 0.00142289 0.0182647 -0.00405933 1.51159e-07 2.4195e-07 2.82129e-07 0.0005 1.46608e-07 
4 1 0.0207148 0.0180342 0.0158299 0.00011977 0.0198147 0.00441929 -2.51143e-07 1.92106e-07 1.60371e-07 0.0005 1.46608e-07 
6 1 0.0219646 0.0228745 0.0159443 -0.0212935 0.00459164 -0.0130806 0 0 -1.43822e-06 0.0005 1.46608e-07 
8 1 0.0283971 0.0185541 0.00718276 0.00171802 -0.0195415 0.0024887 -1.31063e-09 7.26094e-09 2.50275e-08 0.0005 1.46608e-07 
9 1 0.0245983 0.0220765 0.0150931 -0.00455839 0.00231271 -0.00353816 3.61553e-08 1.55149e-07 -9.01797e-08 0.0005 1.46608e-07 
10 1 0.0201348 0.0207753 0.0159062 0.0121917 -0.0152617 0.0223353 0 0 -1.43822e-06 0.0005 1.46608e-07 
13 1 0.0178392 0.024365 0.0138848 0.0155518 0.000856558 -0.0120738 0 0 -1.43822e-06 0.0005 1.46608e-07 
14 1 0.0151599 0.0223033 0.0156026 0.00167959 0.00455483 -0.00322204 3.46059e-06 1.1979e-06 -1.06094e-06 0.0005 1.46608e-07 
15 1 0.0227329 0.0226211 0.0153528 -0.00751924 -0.000571453 0.000838333 6.47252e-08 5.52866e-07 -1.26963e-06 0.0005 1.46608e-07 
17 1 0.0210187 0.0240083 0.0130107 0.000193815 0.00045026 -0.000565971 4.8707e-08 -1.56292e-07 1.08813e-06 0.0005 1.46608e-07 
18 1 0.08261 0.0191091 0.00590955 -1.80228e-14 -5.04931e-14 2.16943e-13 -7.90652e-20 4.04458e-20 -4.44692e-21 0.0005 1.46608e-07 
19 1 0.0195592 0.0237694 0.0137085 0.00125834 0.000504417 -0.00086037 -3.86839e-06 2.71847e-06 4.41815e-06 0.0005 1.46608e-07 
20 1 0.0143967 0.0188009 0.0159353 0.00244562 0.0040896 0.000630747 -1.19399e-07 7.13624e-07 -2.00924e-08 0.0005 1.46608e-07 
21 1 0.0190121 0.014302 0.0138736 -0.0031509 0.00312101 -0.00363849 4.54304e-07 1.91767e-06 3.6177e-06 0.0005 1.46608e-07 
22 1 0.0238084 0.0230263 0.0157017 -5.97483e-05 0.000167215 -0.000144283 -1.14607e-07 1.23114e-07 -1.07881e-07 0.0005 1.46608e-07 
23 1 0.0211451 0.0147209 0.0116548 -0.00155815 -0.00174611 0.0219334 -8.88802e-08 4.60687e-09 7.04542e-08 0.0005 1.46608e-07 
24 1 0.0141754 0.0207408 0.0156169 0.00274141 0.00474261 -0.00307237 -3.02533e-06 2.17763e-06 1.85323e-06 0.0005 1.46608e-07 
26 1 0.0233822 0.0225075 0.00897968 0.000640875 -0.0105408 -0.0127918 4.63099e-09 -3.22214e-09 9.94899e-09 0.0005 1.46608e-07 
28 1 0.0143738 0.0224941 0.0143086 0.00311506 0.000759608 0.00310612 2.35188e-08 4.26187e-07 -1.88386e-06 0.0005 1.46608e-07 
29 1 0.0167442 0.0143738 0.0131731 0.00442363 0.0198762 -0.0400914 2.83771e-07 2.84035e-07 -8.60237e-07 0.0005 1.46608e-07 
31 1 0.0180225 0.0236603 0.0155877 9.9791e-06 -0.00221454 -0.00162025 -3.2122e-07 4.57458e-07 -1.55188e-06 0.0005 1.46608e-07 
32 1 0.0208097 0.019554 0.0169584 0.0257227 -0.0229306 -0.083337 0 0 -1.43822e-06 0.0005 1.46608e-07 
33 1 0.0186365 0.0227706 0.0140824 0.00394312 0.00135058 -0.00277585 -1.02241e-06 2.85778e-06 -2.51604e-06 0.0005 1.46608e-07 
34 1 0.0276206 0.0155057 0.00902274 0.00076534 -0.0102622 0.0162452 -8.01447e-09 -3.11513e-09 2.38858e-08 0.0005 1.46608e-07 
35 1 0.0231642 0.016704 0.0161871 -0.000728186 0.00948514 0.0195962 0 0 -1.43822e-06 0.0005 1.46608e-07 
36 1 0.0211905 0.0243224 0.0139892 -0.000144992 0.000579359 0.000393652 -1.64306e-07 -4.31711e-07 1.0667e-06 0.0005 1.46608e-07 
38 1 0.0218235 0.0238623 0.0134673 -0.000448495 -0.000661316 0.000661176 -3.4728e-08 -2.93457e-07 6.83544e-07 0.0005 1.46608e-07 
39 1 0.0224404 0.0235961 0.0151754 -0.000217342 0.00050679 -0.000318951 1.29831e-06 -3.487e-07 5.85986e-07 0.0005 1.46608e-07 
40 1 0.0257244 0.0200087 0.0164275 0.000129711 0.00995213 0.000886368 3.43082e-07 1.12741e-06 -2.57073e-07 0.0005 1.46608e-07 
42 1 0.0229585 0.0147178 0.0144825 -0.0052577 -0.00315226 -0.00217567 4.64956e-08 -1.85734e-07 -9.95569e-07 0.0005 1.46608e-07 
43 1 0.0212211 0.0160857 0.0150115 -1.75952e-05 0.0183157 0.0154275 -1.48849e-07 7.36148e-07 1.28955e-07 0.0005 1.46608e-07 
46 1 0.0166223 0.0152314 0.0157596 -0.0318227 0.00502817 -0.0297945 -2.81913e-06 -6.10373e-06 4.63525e-06 0.0005 1.46608e-07 
48 1 0.0251823 0.0202492 0.0157764 0.0035385 0.00321156 -0.00263128 -4.76826e-07 1.59247e-06 8.5506e-07 0.0005 1.46608e-07 
49 1 0.023677 0.0151715 0.0150119 -0.00419934 -0.00342408 -0.00292025 -9.3883e-08 -1.53841e-07 -4.33415e-07 0.0005 1.46608e-07 
51 1 0.0166627 0.0238429 0.0166644 0.00239269 -0.00131966 -0.00607933 -5.51505e-07 -1.40831e-06 -2.98168e-06 0.0005 1.46608e-07 
52 1 0.0201395 0.0243086 0.0132437 0.000376043 0.000318651 -0.000175383 -7.14094e-07 1.20035e-07 2.08498e-06 0.0005 1.46608e-07 
53 1 0.0158303 0.0213176 0.0162428 0.00330064 0.00690081 -0.00176198 -5.90807e-07 -1.88916e-07 1.04909e-06 0.0005 1.46608e-07 
54 1 0.0236794 0.0214716 0.00812815 6.45803e-05 -0.0178729 -0.0134364 -4.32405e-08 -5.21908e-08 -2.67618e-08 0.0005 1.46608e-07 
56 1 0.0298723 0.0225976 0.00899476 0.00015479 -0.00566163 -0.00804285 1.44143e-09 4.41132e-09 1.44756e-08 0.0005 1.46608e-07 
58 1 0.0177185 0.0229435 0.0162152 0.00115081 0.00168972 0.00520236 -6.63314e-07 9.99025e-06 -6.38903e-06 0.0005 1.46608e-07 
59 1 0.0267436 0.0151982 0.0133273 -0.000235233 0.00781459 0.0191758 1.91403e-09 1.09044e-08 4.50231e-09 0.0005 1.46608e-07 
60 1 0.0233296 0.0158447 0.0156645 -0.0159737 0.000690005 -0.0125632 -5.01975e-08 7.82651e-08 -1.12089e-06 0.0005 1.46608e-07 
62 1 0.0145876 0.0220128 0.0173429 0.000479044 0.00109502 0.00157885 8.81694e-07 -1.22981e-06 -1.7451e-06 0.0005 1.46608e-07 
64 1 0.0237967 0.0177833 0.0168424 -0.00299927 0.0017074 -0.0621477 0 0 -1.43822e-06 0.0005 1.46608e-07 
65 1 0.0253696 0.0208395 0.0155731 0.000500865 0.00205786 0.000359773 1.21756e-07 1.97392e-07 -1.53167e-06 0.0005 1.46608e-07 
66 1 0.0297859 0.0232182 0.0103766 0.000756389 -0.00624346 -0.0193854 -2.78357e-08 -2.05373e-08 -7.48374e-08 0.0005 1.46608e-07 
68 1 0.0253326 0.0212931 0.0164697 -0.0107421 0.0145076 -0.0235464 0 0 -1.43822e-06 0.0005 1.46608e-07 
69 1 0.0217056 0.0163323 0.0158755 -0.000212558 0.0137844 -0.0110546 0 0 -1.43822e-06 0.0005 1.46608e-07 
70 1 0.0259916 0.0190795 0.0169754 -0.0149054 -0.0141722 -0.0319229 -4.14464e-07 8.58743e-08 -8.30475e-07 0.0005 1.46608e-07 
71 1 0.0174431 0.0242006 0.0171772 0.00251147 -0.00204666 -0.00792691 1.12697e-06 5.92668e-07 1.55704e-06 0.0005 1.46608e-07 
72 1 0.0225354 0.0151602 0.013644 0.000112389 0.00896102 0.0156732 1.05739e-07 -7.04268e-07 -3.81523e-07 0.0005 1.46608e-07 
73 1 0.0168516 0.0215518 0.0161351 0.00345395 0.0124519 -0.00522986 -2.26962e-07 1.09793e-06 -8.88551e-07 0.0005 1.46608e-07 
74 1 0.0188457 0.0244502 0.0137171 0.000838567 0.000156641 -0.000454 -4.22527e-07 8.05482e-07 1.05291e-07 0.0005 1.46608e-07 
75 1 0.0177097 0.0141086 0.0132038 3.54453e-05 9.53721e-05 -0.000342011 2.89325e-07 -3.74678e-08 2.1884e-07 0.0005 1.46608e-07 
76 1 0.0165419 0.0238151 0.0137565 -0.000661406 7.10352e-06 0.00161855 -1.0531e-06 8.40446e-07 1.97428e-06 0.0005 1.46608e-07 
77 1 -0.0176377 0.00107377 0.0193252 -0.22518 -0.0322308 -0.808401 0 0 -1.43822e-06 0.0005 1.46608e-07 
78 1 0.0197169 0.0185429 0.0162616 0.0342372 -0.0352837 -0.0101184 0 0 -1.43822e-06 0.0005 1.46608e-07 
79 1 0.0182794 0.0233185 0.0125718 0.00316563 0.000868016 -0.00144262 1.32253e-07 9.78401e-08 -6.88571e-08 0.0005 1.46608e-07 
82 1 0.0157576 0.0235092 0.0142954 -0.00121046 0.00104236 0.00391749 -1.54196e-06 2.25611e-06 3.75004e-06 0.0005 1.46608e-07 
83 1 0.0270778 0.0147589 0.0114346 0.00100473 -0.000627087 0.0143081 4.7309e-09 -3.0874e-09 -2.92563e-08 0.0005 1.46608e-07 
86 1 0.0242685 0.023261 0.0125525 0.000479279 0.00429511 -0.0191061 -4.05237e-09 -6.81502e-09 -1.71013e-08 0.0005 1.46608e-07 
87 1 0.0207979 0.022686 0.015549 -0.00214254 0.00180797 0.00212055 -1.58506e-07 6.86807e-07 -1.66795e-06 0.0005 1.46608e-07 
88 1 0.019423 0.0199679 0.0161175 0.00810782 0.00194528 0.0725407 0 0 -1.43822e-06 0.0005 1.46608e-07 
89 1 0.0278411 0.0160763 0.00839959 0.000357785 -0.0157126 0.0144311 -3.26425e-09 -4.47957e-10 1.32064e-08 0.0005 1.46608e-07 
90 1 0.0234064 0.0217575 0.0167472 -0.0234873 -0.00994655 -0.0167785 0 0 -1.43822e-06 0.0005 1.46608e-07 
91 1 0.0130577 0.0213186 0.0164579 -0.000527995 -0.000251975 0.000603594 -1.05206e-06 -7.16152e-07 -3.11982e-07 0.0005 1.46608e-07 
92 1 0.0212769 0.0149578 0.0102095 0.000196849 -0.00610449 0.0201118 -4.10277e-09 -3.33863e-09 3.57806e-08 0.0005 1.46608e-07 
93 1 0.0188651 0.0142935 0.0148625 -0.0058604 0.000894621 -0.00265095 1.69588e-06 1.28435e-06 1.38167e-06 0.0005 1.46608e-07 
95 1 0.0210687 0.0235824 0.0158997 -0.000931069 0.000893768 0.00289109 1.81884e-07 3.17287e-07 -9.70778e-07 0.0005 1.46608e-07 
96 1 0.0267911 0.0148885 0.0124355 0.00171555 0.00399593 0.0144931 -1.21785e-09 1.00413e-08 -1.92359e-09 0.0005 1.46608e-07 
97 1 0.0171824 0.023948 0.0145176 0.00192443 0.00710377 -0.0144751 -1.10223e-06 1.39499e-06 -2.12123e-06 0.0005 1.46608e-07 
98 1 0.0136385 0.0219011 0.0158894 0.000154681 0.000249501 0.00135246 5.57589e-08 -9.09086e-08 8.88083e-07 0.0005 1.46608e-07 
99 1 0.0211882 0.0139534 0.0139217 -0.0144554 0.0133987 -0.0461147 -1.60421e-07 3.47321e-07 -9.32184e-07 0.0005 1.46608e-07 
100 1 0.0291163 0.0215455 0.00793921 0.000792346 -0.00977536 -0.00747553 6.08047e-07 1.05492e-07 2.25815e-07 0.0005 1.46608e-07 
101 1 0.0220134 0.0209312 0.0163893 -0.00306909 0.00402072 -0.00278695 1.59355e-07 1.20368e-06 -3.77568e-07 0.0005 1.46608e-07 
102 1 0.0232259 0.0232666 0.0147623 -0.000131657 4.20956e-05 -0.00045477 2.96773e-07 2.68149e-07 -1.56884e-07 0.0005 1.46608e-07 
105 1 0.0172352 0.0151433 0.0149746 -0.00807529 -0.00759354 -0.00933523 3.24898e-06 1.68783e-06 -2.54678e-06 0.0005 1.46608e-07 
106 1 0.0172789 0.0240421 0.0131206 -0.000150889 -0.000210309 -0.000323686 -3.293e-08 1.90503e-10 8.46197e-08 0.0005 1.46608e-07 
107 1 0.0195344 0.0240298 0.0125932 0.000712713 0.000535619 -0.000699779 -2.45972e-08 6.25802e-07 -1.05329e-07 0.0005 1.46608e-07 
108 1 0.0280595 0.0170287 0.00769156 0.000830802 -0.0156742 0.0082004 -1.27143e-09 6.6274e-09 8.16703e-09 0.0005 1.46608e-07 
109 1 0.0183277 0.0159299 0.0157341 -0.0077363 0.00462309 0.0044022 1.30767e-07 -1.46554e-07 -7.68773e-08 0.0005 1.46608e-07 
110 1 0.0178851 0.0144675 0.0156333 0.000224698 -0.00107573 0.00121726 4.4123e-08 -7.92419e-08 1.08642e-07 0.0005 1.46608e-07 
111 1 0.0180324 0.0144681 0.0140806 0.00828632 -0.0036401 -0.00278532 -8.7416e-08 -2.94449e-07 -8.67284e-07 0.0005 1.46608e-07 
112 1 0.0217022 0.01463 0.0150706 -0.00812263 -0.00233153 -0.0138856 0 0 -1.43822e-06 0.0005 1.46608e-07 
113 1 0.0170334 0.0145547 0.0141906 -0.00279856 -0.00921208 -0.016855 2.5806e-09 5.90548e-08 -1.43657e-06 0.0005 1.46608e-07 
115 1 0.0181795 0.0232325 0.0106208 -0.000125504 7.20649e-05 -0.00375833 -6.47565e-09 6.17272e-08 3.3565e-08 0.0005 1.46608e-07 
116 1 0.0182911 0.0151105 0.014984 -0.000429672 0.00588606 0.00772404 1.64467e-07 -3.87319e-09 9.78381e-08 0.0005 1.46608e-07 
117 1 0.0176112 0.0231112 0.0148578 0.00118058 0.00612507 -0.00874767 -6.2003e-07 1.28203e-06 -1.7251e-06 0.0005 1.46608e-07 
119 1 0.0212276 0.0218379 0.0158653 -0.00200481 0.0041113 -0.00806994 -4.69589e-07 1.03287e-06 -7.18892e-07 0.0005 1.46608e-07 
120 1 0.0217194 0.0229729 0.0149759 -0.000450519 0.00386547 -0.00215628 2.0471e-06 -2.52653e-06 4.54019e-06 0.0005 1.46608e-07 
121 1 0.0197138 0.0148116 0.0146598 -0.00909007 0.00104723 0.00208293 1.66575e-07 -3.9877e-07 -4.81044e-07 0.0005 1.46608e-07 
122 1 0.0181584 0.0240729 0.0164883 0.00670662 -0.000142713 -0.00169745 2.60616e-07 4.97393e-07 -1.21999e-06 0.0005 1.46608e-07 
124 1 0.0257283 0.0180373 0.0157299 0.00130424 0.0219402 0.007873 -6.69722e-09 2.68274e-07 1.17463e-07 0.0005 1.46608e-07 
125 1 0.0186782 0.0139919 0.0129837 -0.000737518 0.000704702 -0.00308867 -1.93493e-06 7.96526e-07 6.48298e-07 0.0005 1.46608e-07 
126 1 0.0231523 0.0217717 0.00837673 0.000669299 -0.016089 -0.0134848 -9.90817e-09 -2.66942e-08 -1.54316e-08 0.0005 1.46608e-07 
127 1 0.026127 0.0164981 0.0149742 0.000799917 0.0154981 0.0104823 -3.82137e-09 1.9996e-08 -9.06115e-10 0.0005 1.46608e-07 
128 1 0.0219758 0.01676 0.00784508 0.000187608 -0.0176741 0.011254 -8.21711e-10 4.9361e-10 1.33149e-08 0.0005 1.46608e-07 
129 1 0.0197328 0.0225222 0.0164649 0.153536 0.0219704 0.257239 0 0 -1.43822e-06 0.0005 1.46608e-07 
130 1 0.0152292 0.0204408 0.0160181 0.00387043 0.000952593 -0.00502199 -2.52674e-07 1.38847e-06 -3.19585e-07 0.0005 1.46608e-07 
131 1 0.0259082 0.018043 0.0168919 -0.018642 -0.0142212 -0.0295759 -3.66165e-07 2.38861e-07 -8.39574e-07 0.0005 1.46608e-07 
132 1 0.0221917 0.0162235 0.0149223 -2.33942e-05 0.0178474 0.0146798 5.7735e-10 7.93753e-08 2.35685e-07 0.0005 1.46608e-07 
134 1 0.0243472 0.0156943 0.0155688 -0.00393799 -0.00445228 -0.00177406 -1.32069e-07 7.46413e-08 -2.63482e-07 0.0005 1.46608e-07 
135 1 0.0180303 0.0202166 0.0166416 0.00419442 0.0113013 -0.00149276 6.84822e-07 -2.17365e-06 8.07126e-07 0.0005 1.46608e-07 
137 1 0.0143944 0.0198018 0.0158819 0.0057547 0.00723125 -0.00209908 -5.3817e-07 -2.30715e-06 -9.70785e-07 0.0005 1.46608e-07 
138 1 0.0177322 0.0211188 0.0163302 0.0008517 0.0133505 -0.00565164 -8.10656e-07 -1.25505e-05 -1.88544e-06 0.0005 1.46608e-07 
141 1 0.0190516 0.0236243 0.0155159 0.00323058 0.0220564 -0.0225529 -1.54468e-06 2.59411e-06 -6.39407e-07 0.0005 1.46608e-07 
142 1 0.0288739 0.0205655 0.00748151 0.000190935 -0.0196831 -0.00741189 -4.77374e-10 -9.16319e-09 7.63989e-09 0.0005 1.46608e-07 
143 1 0.0185086 0.0228181 0.0151871 0.00491892 0.0108706 -0.0101565 1.98461e-06 3.73514e-06 1.78728e-08 0.0005 1.46608e-07 
146 1 0.0137512 0.0211488 0.0173808 0.0041048 0.00304993 0.000153056 1.63077e-07 5.09756e-08 -1.02415e-06 0.0005 1.46608e-07 
147 1 0.0149399 0.0231791 0.0147664 -0.00188043 0.00368411 0.007134 -1.65103e-06 -1.09246e-06 8.46161e-07 0.0005 1.46608e-07 
148 1 0.0203751 0.0158127 0.0145891 2.19472e-08 0.0155611 0.0171823 -3.74624e-09 -1.90945e-08 1.11253e-07 0.0005 1.46608e-07 
149 1 0.0286346 0.0193961 0.00720032 0.000255578 -0.0215706 -0.00347533 1.71281e-09 1.15628e-09 1.00484e-08 0.0005 1.46608e-07 
151 1 0.0162615 0.0230441 0.0161554 0.00263661 0.00209859 -0.00128985 5.05507e-07 -1.22996e-06 3.71015e-07 0.0005 1.46608e-07 
154 1 0.0230857 0.0210894 0.00797497 -0.00240359 -0.0337459 -0.00703032 -1.97002e-07 -2.97445e-07 -9.17251e-08 0.0005 1.46608e-07 
155 1 0.01922 0.0229488 0.0135278 0.00343039 0.000959576 -0.00300957 -4.617e-07 1.59392e-06 -2.11739e-06 0.0005 1.46608e-07 
156 1 0.0238861 0.0165575 0.0174062 -0.0753849 -0.0863494 -0.062188 0 0 -1.43822e-06 0.0005 1.46608e-07 
157 1 0.022222 0.0170667 0.0163747 0.00196814 0.0216994 0.0111951 0 0 -1.43822e-06 0.0005 1.46608e-07 
159 1 0.0160452 0.0144178 0.0140075 0.00259357 -0.000668999 -0.00263091 2.29336e-08 6.90268e-07 -1.03155e-07 0.0005 1.46608e-07 
160 1 0.0235691 0.0229656 0.00960081 0.00219602 -0.00446122 -0.0121698 -1.95507e-09 1.22389e-08 2.44578e-08 0.0005 1.46608e-07 
161 1 0.0131925 0.0209127 0.0155529 0.00343199 0.0063114 -0.00298425 -1.2888e-06 -6.2026e-06 1.58466e-06 0.0005 1.46608e-07 
162 1 0.0152168 0.0220378 0.0165662 0.00072738 0.00331512 0.000501794 3.13972e-07 2.44588e-06 1.77076e-06 0.0005 1.46608e-07 
163 1 0.0154281 0.0194654 0.015924 0.00391832 0.000438684 0.000665043 -8.64316e-08 7.3809e-07 1.84533e-07 0.0005 1.46608e-07 
165 1 0.0163763 0.023695 0.0150586 0.00420809 0.000277983 -0.00115242 1.27817e-06 1.8203e-06 -2.31917e-07 0.0005 1.46608e-07 
167 1 0.0212772 0.0238268 0.014916 -0.000261487 0.000979235 0.000386954 9.41298e-08 -1.28179e-06 1.98421e-06 0.0005 1.46608e-07 
168 1 0.0161343 0.0221364 0.0157559 -0.000490865 0.00495027 -0.00770197 7.65005e-07 -1.11454e-06 -1.06128e-06 0.0005 1.46608e-07 
169 1 0.0152242 0.0147844 0.0144652 0.000877988 -0.000700869 -0.000374063 1.05212e-07 -2.74088e-07 4.3504e-07 0.0005 1.46608e-07 
171 1 0.020339 0.0218872 0.0169872 0.0200083 -0.0391902 0.0066188 0 0 -1.43822e-06 0.0005 1.46608e-07 
172 1 0.0208277 0.0149954 0.013609 -0.0203349 0.0403513 -0.015983 0 0 -1.43822e-06 0.0005 1.46608e-07 
174 1 0.0195494 0.0232501 0.0127753 0.00221662 0.000873617 -0.00246966 -2.6302e-07 9.04215e-07 -1.09105e-06 0.0005 1.46608e-07 
175 1 0.024118 0.0211793 0.0163125 -0.00191927 0.0240381 -0.0152304 0 0 -1.43822e-06 0.0005 1.46608e-07 
176 1 0.0234812 0.0220869 0.015803 -0.00393563 0.00153968 -0.00231748 1.4079e-07 -7.9484e-08 6.87749e-08 0.0005 1.46608e-07 
177 1 0.0200601 0.0224301 0.0143585 -0.00199607 0.0106503 -0.013277 -1.36545e-05 -8.67884e-06 1.32281e-05 0.0005 1.46608e-07 
178 1 0.0142642 0.0229745 0.0154832 -0.0039508 -0.00953221 -0.00401098 -1.04139e-07 1.32675e-07 -1.4098e-06 0.0005 1.46608e-07 
180 1 0.014278 0.0162002 0.014912 0.00413366 0.00196398 0.00256282 2.6528e-08 -1.03786e-07 -6.42681e-08 0.0005 1.46608e-07 
182 1 0.0184485 0.02356 0.0135796 0.00306271 0.000787717 -0.0019416 -5.99089e-07 1.32347e-06 -2.24414e-06 0.0005 1.46608e-07 
186 1 0.0164159 0.0153457 0.0139711 0.00632372 -0.00242116 -0.00773907 1.17867e-06 9.08628e-07 2.81288e-06 0.0005 1.46608e-07 
187 1 0.0474618 0.0192773 0.00593797 4.68811e-15 -1.01866e-14 -1.05709e-13 -2.52601e-19 -3.23249e-19 1.99053e-20 0.0005 1.46608e-07 
188 1 0.0199896 0.0140902 0.0139567 0.00903579 0.015533 0.00462518 2.14069e-07 -4.18436e-07 -6.41684e-07 0.0005 1.46608e-07 
189 1 0.0225764 0.0153347 0.0151736 -0.0231163 0.00274705 -0.0120876 0 0 -1.43822e-06 0.0005 1.46608e-07 
191 1 0.0155925 0.0157138 0.0144327 0.00443774 -0.000534171 -0.0011074 -1.15236e-07 -4.00817e-07 -2.42827e-07 0.0005 1.46608e-07 
192 1 0.0191946 0.0209352 0.0155564 0.00383145 -0.00835099 -0.012757 0 0 -1.43822e-06 0.0005 1.46608e-07 
193 1 0.0237737 0.0231909 0.0103292 0.00111135 -0.00494413 -0.0172371 -4.19076e-09 -7.04666e-09 4.26947e-09 0.0005 1.46608e-07 
194 1 0.0134112 0.0199847 0.015855 0.00333046 0.0068863 -0.00239683 -1.02475e-07 1.29576e-06 -4.33529e-07 0.0005 1.46608e-07 
195 1 0.0201603 0.0229924 0.0134706 0.00310893 0.00138561 -0.00232016 -1.4123e-06 1.40037e-06 -1.49761e-06 0.0005 1.46608e-07 
198 1 0.0200026 0.0232904 0.0156913 -0.0205075 -0.0145738 -0.0249529 0 0 -1.43822e-06 0.0005 1.46608e-07 
201 1 0.0193914 0.0230455 0.0147746 -0.00585873 0.0249657 -0.0252697 -1.05815e-05 1.44068e-05 -5.23901e-06 0.0005 1.46608e-07 
204 1 0.0198673 0.0241921 0.0163485 0.0406481 -0.00235123 -0.0150527 -2.02085e-07 -4.56324e-07 -9.83395e-07 0.0005 1.46608e-07 
207 1 0.0154807 0.0151077 0.0135545 0.00127001 -0.00100429 -0.000421336 -2.19185e-07 6.35982e-07 2.13991e-07 0.0005 1.46608e-07 
209 1 0.021713 0.0147736 0.0108697 -2.13996e-05 -0.00423831 0.0212714 3.39467e-08 1.05517e-08 7.45065e-08 0.0005 1.46608e-07 
213 1 0.0223915 0.0209873 0.017372 0.00820778 0.00470238 0.0233882 0 0 -1.43822e-06 0.0005 1.46608e-07 
214 1 0.0156338 0.0228763 0.0169162 0.00203799 0.0027996 0.00119766 -1.06716e-06 1.71984e-06 1.90789e-06 0.0005 1.46608e-07 
215 1 0.0249519 0.0163612 0.0160447 0.000107346 -0.002715 0.000205259 -7.2549e-06 1.4824e-06 6.16262e-06 0.0005 1.46608e-07 
216 1 0.0184551 0.0223777 0.0165854 0.00986442 0.00740069 -0.015855 1.4553e-06 -1.94313e-06 1.72412e-06 0.0005 1.46608e-07 
217 1 0.0160231 0.0236539 0.0174096 0.00463842 0.00418801 -0.00130515 1.94629e-06 1.05208e-06 6.84632e-07 0.0005 1.46608e-07 
218 1 0.020745 0.0147074 0.0147675 -0.0175773 0.0288658 -0.00284389 0 0 -1.43822e-06 0.0005 1.46608e-07 
220 1 0.0224844 0.0217376 0.0160102 -0.0113764 0.00796608 -0.00393281 -9.21727e-07 1.43664e-07 4.26613e-07 0.0005 1.46608e-07 
221 1 0.0428597 0.0177668 0.00603291 3.91434e-15 -1.12535e-14 -6.1964e-14 1.89259e-21 -1.49819e-20 2.5411e-21 0.0005 1.46608e-07 
222 1 0.0169559 0.0225861 0.0154006 -0.000456197 0.0086942 -0.00718046 -1.11778e-07 9.64529e-07 -4.05204e-07 0.0005 1.46608e-07 
223 1 0.0228364 0.0225774 0.0164224 -0.000692969 0.000728115 0.00218939 -5.78861e-07 5.91736e-07 2.75722e-07 0.0005 1.46608e-07 
224 1 0.0199864 0.0238646 0.0148192 0.000477147 0.000612112 -0.000815935 -2.22299e-06 -1.21816e-06 1.56683e-06 0.0005 1.46608e-07 
226 1 0.0186369 0.0240892 0.0128507 0.00123443 0.000358878 -0.000598481 -1.10581e-07 4.64486e-07 -4.16377e-07 0.0005 1.46608e-07 
227 1 0.0225612 0.0194974 0.0167331 -2.55956e-09 0.0246292 -0.00204399 -7.83475e-15 -1.34718e-09 -1.67976e-08 0.0005 1.46608e-07 
228 1 0.0230055 0.0195975 0.00721782 5.44055e-05 -0.0162898 -0.00295682 -4.47794e-09 5.96911e-09 1.29032e-08 0.0005 1.46608e-07 
229 1 0.0184945 0.0233968 0.0112528 0.00105171 0.00159676 -0.00274313 3.18778e-08 -2.55998e-08 -1.02668e-07 0.0005 1.46608e-07 
230 1 0.0208654 0.014744 0.012629 0.00186445 0.00458199 0.0138256 2.83787e-07 1.05678e-07 -9.91146e-07 0.0005 1.46608e-07 
235 1 0.0180646 0.0235153 0.0117758 0.00241801 -0.000325361 -0.00162991 -1.53642e-09 1.76439e-08 -1.76584e-08 0.0005 1.46608e-07 
238 1 0.0217135 0.0149073 0.0131331 0.00206353 0.00752078 0.0124327 5.07436e-07 1.35497e-08 -1.14757e-06 0.0005 1.46608e-07 
239 1 0.0188169 0.024435 0.0171492 0.0179689 -0.0135674 -0.0349816 -7.31256e-08 -4.08111e-07 -9.05275e-07 0.0005 1.46608e-07 
240 1 0.0170455 0.0235501 0.0157878 0.00833439 0.0017848 -0.00384202 0 0 -1.43822e-06 0.0005 1.46608e-07 
241 1 0.0149019 0.0213768 0.015876 0.00273281 0.00391018 -0.00274102 1.52611e-06 2.40686e-06 1.1647e-06 0.0005 1.46608e-07 
242 1 0.0190382 0.0234484 0.0120075 0.00207857 0.00101317 -0.002366 6.07727e-07 3.16001e-07 -1.30195e-06 0.0005 1.46608e-07 
243 1 0.0206302 0.0231389 0.0146732 0.000632431 0.0016584 -0.00275657 -4.1561e-06 -6.87543e-06 8.76565e-06 0.0005 1.46608e-07 
245 1 0.0226869 0.0235643 0.0141126 0.000453078 -0.00151433 -0.0010847 -6.72491e-09 8.95947e-08 5.14331e-09 0.0005 1.46608e-07 
246 1 0.0145698 0.0211741 0.0167985 0.00741177 0.00339577 -0.002223 0 0 -1.43822e-06 0.0005 1.46608e-07 
253 1 0.0245894 0.0226527 0.00913657 -0.000205087 0.00182412 -9.79712e-05 -2.89948e-08 1.78726e-07 2.19689e-07 0.0005 1.46608e-07 
254 1 0.0215837 0.0174185 0.0156498 -0.00289444 0.0183801 0.00734691 4.76063e-07 -2.0551e-07 -6.03673e-08 0.0005 1.46608e-07 
255 1 0.0189082 0.0144666 0.0158465 -0.00417347 -0.00560545 -0.00143045 -7.95042e-09 -4.47552e-07 -3.80462e-07 0.0005 1.46608e-07 
256 1 0.0202806 0.0175589 0.0167808 0.0980808 -0.256719 0.0970619 0 0 -1.43822e-06 0.0005 1.46608e-07 
257 1 0.0199684 0.0173961 0.0156407 1.48735e-05 0.0215678 0.00858616 -6.97734e-08 -9.72843e-08 -3.67915e-08 0.0005 1.46608e-07 
258 1 0.0199994 0.0217068 0.0153009 -0.0143065 0.0149837 -0.0281102 0 0 -1.43822e-06 0.0005 1.46608e-07 
261 1 0.0259717 0.0202733 0.0171368 -0.000114027 0.0018467 0.000728576 -2.30206e-08 1.37544e-06 -3.2523e-07 0.0005 1.46608e-07 
262 1 0.0220744 0.0143891 0.0140832 -0.010228 0.000574871 -0.00989467 -6.13883e-07 1.77914e-05 1.93737e-05 0.0005 1.46608e-07 
263 1 0.0239513 0.0224418 0.00895605 0.00172101 -0.00793821 -0.0111319 1.54174e-08 3.04422e-08 1.35917e-08 0.0005 1.46608e-07 
264 1 0.0190659 0.0219583 0.014875 0.0054344 0.0206426 -0.0240839 0 0 -1.43822e-06 0.0005 1.46608e-07 
266 1 0.0215474 0.0235 0.0141214 -0.00172989 0.00166849 0.00251923 -2.99642e-07 -6.70866e-07 1.60637e-06 0.0005 1.46608e-07 
268 1 0.0208331 0.0219941 0.0148279 -0.000148893 0.011211 -0.00895944 -3.54635e-07 6.41131e-07 -2.83944e-07 0.0005 1.46608e-07 
269 1 0.020383 0.0165909 0.015217 -0.000103721 0.0191747 0.0128395 -2.39682e-07 2.77222e-07 7.35187e-08 0.0005 1.46608e-07 
270 1 0.0145006 0.0150551 0.0151001 0.00232996 -0.0026061 0.00159535 4.21868e-08 -4.40753e-08 7.24156e-09 0.0005 1.46608e-07 
271 1 0.021551 0.0234352 0.0167633 0.0101465 -0.00288795 -0.00323214 0 0 -1.43822e-06 0.0005 1.46608e-07 
272 1 0.0203742 0.0196016 0.0159234 0.00636465 -0.0142731 -0.000620627 0 0 -1.43822e-06 0.0005 1.46608e-07 
273 1 0.0246484 0.0221165 0.0162236 0.013367 0.0272752 -0.00720674 0 0 -1.43822e-06 0.0005 1.46608e-07 
274 1 0.0162774 0.0146491 0.0149617 -0.0162566 0.0121638 -0.00726413 0 0 -1.43822e-06 0.0005 1.46608e-07 
275 1 0.0137771 0.0206276 0.0165278 0.00533145 0.00519935 -0.00128001 3.45174e-07 9.64304e-07 -8.05e-07 0.0005 1.46608e-07 
276 1 0.0188349 0.0238398 0.0145124 -0.0193311 0.0141093 -0.00895164 0 0 -1.43822e-06 0.0005 1.46608e-07 
277 1 0.0255751 0.0189661 0.0158673 0.000649769 0.0196357 -0.000212179 -3.49102e-07 1.34874e-06 2.22083e-07 0.0005 1.46608e-07 
278 1 0.0253445 0.0172428 0.0164661 -0.0101054 -0.0249678 -0.00941711 8.1835e-08 3.04321e-07 1.7943e-07 0.0005 1.46608e-07 
279 1 0.0197276 0.0139835 0.0129976 0.000613953 0.000817147 0.0056685 -1.17667e-06 -4.74191e-06 -6.59562e-08 0.0005 1.46608e-07 
280 1 0.0213355 0.0198932 0.0158742 0.000148556 0.0204655 -0.00402132 2.5677e-07 2.71145e-07 -1.47885e-07 0.0005 1.46608e-07 
281 1 0.0226368 0.0163832 0.00810807 0.000590832 -0.0172564 0.0124478 -4.66263e-09 3.40987e-10 1.0976e-08 0.0005 1.46608e-07 
282 1 0.014595 0.0155352 0.0142281 0.00130577 0.00166895 0.00382481 2.68513e-08 3.10072e-09 3.04175e-08 0.0005 1.46608e-07 
283 1 0.019303 0.0233529 0.010986 0.00150844 -0.000290012 -0.00211276 -5.16177e-08 -1.44276e-08 -3.78321e-08 0.0005 1.46608e-07 
285 1 0.0204909 0.0237403 0.0139137 0.000803019 0.00142112 -0.000277228 -8.59273e-07 -2.04009e-06 3.07878e-06 0.0005 1.46608e-07 
287 1 0.0117533 0.0277521 0.0315071 0.0305565 -0.0773565 -0.201067 2.5487e-07 -2.77593e-07 -9.48909e-07 0.0005 1.46608e-07 
288 1 0.0177044 0.0220054 0.0158693 -0.000766433 0.00938444 -0.00587024 -8.3424e-07 7.19777e-06 -7.9867e-07 0.0005 1.46608e-07 
289 1 0.0158251 0.0228622 0.0151078 0.00442348 0.00192462 -0.00373434 5.70886e-07 3.27105e-06 -1.31536e-06 0.0005 1.46608e-07 
290 1 0.0186731 0.0214519 0.0162629 0.00955944 -0.00139104 0.00410254 0 0 -1.43822e-06 0.0005 1.46608e-07 
291 1 0.0238389 0.022739 0.0150418 -0.000334934 0.000815657 -0.000540724 -5.24294e-08 1.35607e-07 -1.50296e-07 0.0005 1.46608e-07 
293 1 0.0138393 0.0219004 0.0149099 0.00108491 -5.03508e-05 0.00117089 -5.46173e-08 -3.55713e-07 -2.79364e-07 0.0005 1.46608e-07 
294 1 0.0215118 0.0152735 0.00940066 0.0001797 -0.0111138 0.0183556 2.91068e-09 1.268e-08 -5.41253e-09 0.0005 1.46608e-07 
296 1 0.0191689 0.0154482 0.0153302 -0.00283758 0.0131608 0.0125568 1.4764e-07 -2.57207e-07 -2.27623e-07 0.0005 1.46608e-07 
297 1 0.0138376 0.0179675 0.0158096 4.89537e-07 0.0198972 0.00494487 -1.00548e-09 -2.68945e-08 -2.14581e-08 0.0005 1.46608e-07 
298 1 0.0217806 0.0158909 0.00851288 0.00239588 -0.0108111 0.00945657 -2.51423e-08 1.82152e-08 4.3474e-08 0.0005 1.46608e-07 
299 1 0.0175495 0.016477 0.0160936 -0.0122671 0.0149543 0.0083056 4.86644e-07 -1.16014e-07 -7.79151e-08 0.0005 1.46608e-07 
