ITEM: TIMESTEP
10200000
ITEM: NUMBER OF ATOMS
126
ITEM: BOX BOUNDS ff ff ff
-0.02 0.43
-0.02 0.06
-0.02 0.07
ITEM: ATOMS id type x y z vx vy vz fx fy fz radius mass 
1 1 0.0203121 0.0229125 0.0137095 0.00360113 7.75751e-05 0.00103209 3.02151e-08 8.99071e-07 7.57434e-07 0.0005 1.46608e-07 
2 1 0.0229585 0.0147197 0.0144775 -0.000967409 0.000916658 -0.0032001 -6.71072e-09 -1.74123e-08 2.40117e-08 0.0005 1.46608e-07 
3 1 0.0317654 0.0171843 0.015395 0.00135899 0.0132601 0.00588467 1.65179e-09 -4.11056e-09 -1.71289e-08 0.0005 1.46608e-07 
4 1 0.0214693 0.0156499 0.00886949 0.00142601 -0.00933435 0.0148819 5.18006e-07 3.45942e-06 -4.62357e-06 0.0005 1.46608e-07 
6 1 0.0192321 0.0238374 0.0139052 0.0218995 -0.00163124 0.0110686 0 0 -1.43822e-06 0.0005 1.46608e-07 
8 1 0.0327959 0.0147643 0.0116605 0.000430366 -0.000302198 0.0154388 -1.70621e-07 -2.01602e-08 2.40253e-08 0.0005 1.46608e-07 
9 1 0.0427538 0.0186075 0.0058732 2.097e-15 -5.77374e-15 -3.18951e-14 6.1132e-20 3.25049e-20 -2.11758e-21 0.0005 1.46608e-07 
13 1 0.0185646 0.0241567 0.0131177 -0.000802606 -0.00656838 -0.0122482 -1.55331e-06 -4.87085e-07 7.42527e-07 0.0005 1.46608e-07 
14 1 0.0200991 0.0232976 0.0128117 0.00161621 0.00061286 0.000491763 1.25066e-06 5.91523e-07 3.41116e-06 0.0005 1.46608e-07 
15 1 0.0201453 0.0201622 0.0158104 -7.52346e-08 0.0199491 -0.00496329 -3.07449e-12 -3.16107e-09 -1.33196e-08 0.0005 1.46608e-07 
17 1 0.0208987 0.0239999 0.0126592 -0.000559181 0.00157093 -0.00339483 -3.54877e-09 1.84277e-08 1.43669e-08 0.0005 1.46608e-07 
18 1 0.08261 0.0191091 0.00590955 -1.80369e-14 -5.04891e-14 2.16942e-13 4.42045e-21 -4.97632e-21 -2.5411e-21 0.0005 1.46608e-07 
19 1 0.014155 0.0224111 0.0144128 0.000178479 0.00102595 -0.000134278 2.0399e-09 1.12296e-08 -3.00567e-09 0.0005 1.46608e-07 
20 1 0.0183517 0.0141002 0.0139514 -1.01098e-05 0.000944378 -0.00292204 -5.38533e-08 3.23937e-07 -9.83242e-07 0.0005 1.46608e-07 
26 1 0.0207655 0.0216123 0.015151 0.00417103 0.00346088 -0.00164484 -1.33096e-07 -6.51524e-08 -2.48919e-06 0.0005 1.46608e-07 
28 1 0.0198853 0.0210937 0.0154481 2.47659e-06 0.0202714 -0.0104676 6.43621e-11 4.80172e-08 -4.68442e-08 0.0005 1.46608e-07 
32 1 0.0422303 0.0177762 0.006064 -1.24843e-14 -4.21932e-14 -1.20803e-13 2.28699e-20 4.39398e-21 -4.23516e-21 0.0005 1.46608e-07 
34 1 0.0319551 0.0164427 0.0149342 0.000515261 0.0156014 0.0125477 5.24401e-09 -5.42858e-10 -1.3789e-08 0.0005 1.46608e-07 
38 1 0.0234496 0.0229529 0.00959045 0.00208168 -0.000880065 -0.00652159 2.72864e-06 -1.60041e-06 8.63263e-07 0.0005 1.46608e-07 
40 1 0.0167657 0.0233719 0.0145027 0.00219691 0.00143651 0.000400187 -2.72609e-07 -1.24192e-08 -5.58026e-08 0.0005 1.46608e-07 
42 1 0.0211734 0.0158614 0.0146045 0.00748508 0.00396829 0.00279778 1.92269e-08 -6.61902e-08 -3.25962e-08 0.0005 1.46608e-07 
46 1 0.0266539 0.0148581 0.0122548 0.00221555 0.0035928 0.0135965 -9.17246e-09 1.04546e-08 1.78224e-08 0.0005 1.46608e-07 
48 1 0.0296461 0.0233079 0.0105968 0.00113723 -0.00315322 -0.014956 -4.45157e-09 -5.06919e-09 4.68126e-09 0.0005 1.46608e-07 
54 1 0.0287805 0.020883 0.00759831 0.000380655 -0.0180087 -0.00745818 -5.94805e-10 -8.69953e-09 5.41739e-09 0.0005 1.46608e-07 
56 1 0.0339463 0.0172431 0.00763987 -0.000346362 -0.0215447 0.00815532 1.87373e-08 2.78707e-08 -2.45693e-08 0.0005 1.46608e-07 
59 1 0.031043 0.0203762 0.0155684 0.000174198 0.0200572 -0.00670425 -9.69338e-10 3.38209e-09 -1.21155e-08 0.0005 1.46608e-07 
64 1 0.0238467 0.0152951 0.0151625 -0.0218271 -0.0173399 -0.0177912 -2.6769e-08 -6.07847e-08 2.18614e-08 0.0005 1.46608e-07 
65 1 0.0294375 0.0229145 0.00949381 0.000446921 -0.00831243 -0.0159922 1.00153e-08 -3.03927e-08 -1.27375e-08 0.0005 1.46608e-07 
66 1 0.0346861 0.0208363 0.00769512 0.00105995 -0.00715155 -0.00329888 -1.15599e-08 -4.43642e-10 -1.01885e-08 0.0005 1.46608e-07 
68 1 0.0306128 0.0220739 0.0145227 -0.000256468 0.0139083 -0.0151688 -1.00588e-08 1.8123e-08 -1.27662e-08 0.0005 1.46608e-07 
70 1 0.0236012 0.0231968 0.0103235 0.00194499 -0.0015645 -0.0117308 1.81223e-07 5.84538e-07 -4.57917e-08 0.0005 1.46608e-07 
74 1 0.0190708 0.0237718 0.0123461 0.00937863 -0.00378345 -0.00970579 1.55331e-06 4.87085e-07 -3.61897e-06 0.0005 1.46608e-07 
76 1 0.0230271 0.0217417 0.00837061 0.00200893 -0.013117 -0.0105675 -1.12758e-09 -3.23451e-09 5.37715e-09 0.0005 1.46608e-07 
82 1 0.0155702 0.0165607 0.0155429 0.121383 0.0423458 -0.254882 0 0 -1.43822e-06 0.0005 1.46608e-07 
83 1 0.0315813 0.0181765 0.0156961 0.00018446 0.0214739 0.00495218 -2.89526e-09 1.34992e-08 -8.85275e-09 0.0005 1.46608e-07 
86 1 0.0289459 0.0216087 0.00800363 0.000847567 -0.0132358 -0.0101435 1.6175e-09 -7.14514e-09 9.61616e-09 0.0005 1.46608e-07 
88 1 0.0203253 0.0154705 0.0141503 0.00359072 0.00264361 0.00555968 4.61278e-09 -9.19097e-08 -4.39999e-07 0.0005 1.46608e-07 
89 1 0.0322304 0.015489 0.0139449 -3.98088 -1.64904 -2.64531 0.804834 -2.15079 1.24216 0.0005 1.46608e-07 
90 1 0.0150187 0.0152803 0.0138553 -0.00256756 0.0012613 0.000989616 3.44739e-07 -8.749e-08 -3.76603e-07 0.0005 1.46608e-07 
91 1 0.0195631 0.0139961 0.0129769 0.00127515 0.00145371 -0.00237975 -1.12145e-07 4.67337e-07 -6.16125e-07 0.0005 1.46608e-07 
93 1 0.0250898 0.0200862 0.0157968 -0.00024504 0.0159187 -0.00405165 5.36654e-09 -7.62747e-09 -5.28475e-09 0.0005 1.46608e-07 
96 1 0.0312839 0.0193281 0.0158081 0.00144664 0.0163426 -0.00200496 -1.02914e-08 2.95698e-08 -1.12618e-08 0.0005 1.46608e-07 
98 1 0.0193601 0.0227314 0.0140341 0.0588658 -0.00764211 0.0198805 0 0 -1.43822e-06 0.0005 1.46608e-07 
100 1 0.0335695 0.0159402 0.00850059 0.000387107 -0.0142208 0.014855 -2.32566e-09 1.83342e-09 1.35403e-08 0.0005 1.46608e-07 
101 1 0.0177743 0.0234024 0.0113845 0.00425116 -0.000408006 -0.00187733 -4.21938e-08 -5.97171e-08 -2.72175e-07 0.0005 1.46608e-07 
106 1 0.0184951 0.0232412 0.0143328 0.0124467 0.00619716 -0.0256118 0 0 -1.43822e-06 0.0005 1.46608e-07 
107 1 0.0222854 0.0236831 0.0140173 0.000791712 -0.00101685 0.00136135 -4.37984e-06 6.53514e-07 -3.90914e-06 0.0005 1.46608e-07 
108 1 0.0325934 0.0149369 0.0125829 0.000356077 0.00504716 0.0196319 9.98527e-07 -2.76222e-07 -5.88636e-07 0.0005 1.46608e-07 
109 1 0.0257397 0.0204397 0.0156707 0.00181318 0.00457078 -0.0028407 8.86576e-09 -3.46053e-09 -4.88758e-09 0.0005 1.46608e-07 
110 1 0.0185631 0.0139944 0.0129798 0.00115258 0.00177466 -0.00281713 -2.36787e-07 2.82846e-07 -8.21838e-07 0.0005 1.46608e-07 
112 1 0.0153683 0.0145579 0.0147355 -0.00869691 0.00464348 -0.0111486 -1.33663e-08 1.59147e-08 -7.26772e-07 0.0005 1.46608e-07 
113 1 0.0189987 0.0231828 0.0131682 0.0289429 0.000598104 -0.00191985 0 0 -1.43822e-06 0.0005 1.46608e-07 
117 1 0.0186707 0.0222578 0.014597 0.00307745 0.01334 -0.02065 0 0 -1.43822e-06 0.0005 1.46608e-07 
121 1 0.019155 0.0202945 0.015768 0.000221498 0.0212313 -0.00614545 2.2511e-10 -5.41591e-09 -1.51217e-08 0.0005 1.46608e-07 
124 1 0.0302141 0.0231036 0.0130077 3.39687e-05 0.00944287 -0.0204206 2.92381e-11 -9.75497e-09 -7.55023e-09 0.0005 1.46608e-07 
125 1 0.0148997 0.0233029 0.0150899 0.0361444 0.0514794 0.150962 0 0 -1.43822e-06 0.0005 1.46608e-07 
126 1 0.0286258 0.0183498 0.00592583 -1.94458e-14 2.16854e-16 -2.28118e-13 4.23516e-22 -5.89594e-20 0 0.0005 1.46608e-07 
127 1 0.0307931 0.0215077 0.0150575 0.000205413 0.0187041 -0.0113035 8.96438e-10 -2.3373e-10 -1.27063e-08 0.0005 1.46608e-07 
129 1 0.0176134 0.0141064 0.013272 0.00114702 6.49295e-05 -0.000959605 -4.22551e-08 -5.84159e-08 4.92509e-08 0.0005 1.46608e-07 
131 1 0.0212759 0.0152552 0.0138159 0.00555708 0.00292773 0.00338604 -2.94208e-07 -6.48856e-08 -1.86796e-08 0.0005 1.46608e-07 
132 1 0.0190916 0.0234031 0.0112077 0.000742174 0.00155631 -0.00435124 1.04704e-08 6.45869e-08 2.34932e-07 0.0005 1.46608e-07 
134 1 0.0211494 0.0234908 0.0143024 0.00332027 -0.0014232 -0.00113694 1.12785e-06 1.21543e-06 -1.48115e-06 0.0005 1.46608e-07 
137 1 0.0174269 0.0145429 0.0141521 -0.00074106 -0.00189204 -0.000609379 -1.82376e-08 9.55382e-08 -1.26458e-07 0.0005 1.46608e-07 
142 1 0.0333551 0.0153321 0.00935701 0.000367316 -0.0116863 0.018148 -3.34977e-09 1.81243e-08 -3.06809e-08 0.0005 1.46608e-07 
143 1 0.0202589 0.0147216 0.0155602 0.014538 -0.00427329 -0.00884169 -1.06181e-07 -5.23407e-08 -8.68675e-07 0.0005 1.46608e-07 
146 1 0.0205458 0.0223451 0.0144989 0.00605788 0.00113511 0.0017201 3.4486e-07 -1.62431e-06 1.40474e-06 0.0005 1.46608e-07 
147 1 0.0211667 0.0228802 0.0151096 0.0131206 -0.00945362 0.0115015 0 0 -1.43822e-06 0.0005 1.46608e-07 
149 1 0.0331973 0.0150173 0.0100678 0.000379429 -0.00624024 0.0198959 -1.1987e-09 1.25099e-08 8.30326e-11 0.0005 1.46608e-07 
156 1 0.0231183 -0.0149388 0.0620286 -0.0258533 -0.487977 0.2979 0 0 -1.43822e-06 0.0005 1.46608e-07 
159 1 0.0166755 0.0238668 0.0136386 0.00238215 0.0016671 0.000339082 9.99489e-08 5.5259e-08 -7.0567e-08 0.0005 1.46608e-07 
160 1 0.0230491 0.0233349 0.0145586 0.000895132 0.00111871 0.00404876 -1.24921e-06 5.7795e-07 -7.09718e-08 0.0005 1.46608e-07 
161 1 0.0205294 0.0242259 0.0136086 0.00323566 0.003175 -0.00309615 -2.13275e-07 6.87583e-08 -1.46372e-06 0.0005 1.46608e-07 
163 1 0.0158182 0.0146798 0.0138509 -7.32922e-05 0.00421261 -0.00698884 2.94785e-07 1.22836e-07 -4.37484e-07 0.0005 1.46608e-07 
165 1 0.0208152 0.0146376 0.0120325 0.0036308 0.00101801 0.00721881 0 0 -1.43822e-06 0.0005 1.46608e-07 
169 1 0.0189081 0.021361 0.0152974 -7.07806e-06 0.0214031 -0.0129743 -1.67421e-10 6.20833e-08 -6.02204e-08 0.0005 1.46608e-07 
171 1 0.0173981 0.01511 0.0149752 -0.00224482 -0.000395457 -0.00181585 1.29883e-10 2.27995e-07 -1.88287e-07 0.0005 1.46608e-07 
172 1 0.0257397 0.0198466 0.0165558 -0.00106605 0.0213388 0.000375842 -7.02728e-09 -6.42585e-11 -1.39333e-08 0.0005 1.46608e-07 
174 1 0.0215552 0.0147665 0.012694 0.00685113 0.00113994 0.0065529 -7.29415e-06 -4.49418e-07 -4.01458e-06 0.0005 1.46608e-07 
178 1 0.0196903 0.0241728 0.0130672 0.000183617 -7.71731e-05 0.000205556 7.20465e-07 9.06512e-07 9.53702e-07 0.0005 1.46608e-07 
180 1 0.0166462 0.0142868 0.013451 0.000660955 0.0016306 -0.00362392 4.09419e-08 2.32789e-07 -4.86648e-07 0.0005 1.46608e-07 
182 1 0.0165402 0.0148115 0.01453 -0.000855696 -0.00107055 -0.00472937 2.12056e-07 6.18454e-08 1.824e-07 0.0005 1.46608e-07 
186 1 0.0232779 -0.00189862 0.0557818 0.812793 -1.91413 4.57285 0 0 -1.43822e-06 0.0005 1.46608e-07 
187 1 0.0474618 0.0192773 0.00593797 4.68759e-15 -1.01804e-14 -1.05709e-13 -1.20702e-19 5.65659e-20 -1.12232e-20 0.0005 1.46608e-07 
189 1 0.0221659 0.0183916 0.00724183 0.000236618 -0.0206174 0.00327541 -8.60809e-10 -4.36592e-09 1.15369e-08 0.0005 1.46608e-07 
193 1 0.0272617 0.0147435 0.0115065 0.000738398 -0.000446795 0.0160512 -6.82049e-10 1.23435e-08 1.51539e-08 0.0005 1.46608e-07 
194 1 0.0206098 0.0139626 0.0134251 0.000255967 0.00153801 -0.00301107 1.60203e-07 -2.71852e-08 7.76789e-08 0.0005 1.46608e-07 
195 1 0.0210101 0.0147737 0.0108867 0.000398858 -0.00396573 0.0212229 6.52132e-10 1.02618e-08 4.41161e-09 0.0005 1.46608e-07 
198 1 0.0175426 0.0230757 0.0103024 0.00210104 -0.00608457 -0.0167161 -1.26298e-08 -1.32428e-08 -7.21294e-09 0.0005 1.46608e-07 
201 1 0.0248807 0.0212464 0.0153742 0.00200257 0.0110123 0.0119013 -4.77675e-06 -8.77918e-05 -0.000182135 0.0005 1.46608e-07 
209 1 0.0203361 0.0239756 0.0145808 0.00163637 -0.0016108 0.000841381 8.4076e-07 8.91842e-07 -1.85609e-06 0.0005 1.46608e-07 
213 1 0.0275367 0.0158629 0.00859474 0.000782487 -0.013437 0.0121929 2.06542e-08 6.28052e-11 4.3052e-08 0.0005 1.46608e-07 
214 1 0.0196336 0.0220454 0.0147841 0.00133482 0.00664521 -0.00647937 -9.57512e-08 1.04503e-06 -1.08571e-06 0.0005 1.46608e-07 
215 1 0.0285361 0.0197125 0.00724991 -0.000262227 -0.0188132 -0.00391744 -4.40505e-09 -1.53815e-08 2.17597e-08 0.0005 1.46608e-07 
216 1 0.0182845 0.0233248 0.0108821 0.000356536 -0.000252257 -0.00152068 7.95039e-09 9.4153e-09 -2.8065e-08 0.0005 1.46608e-07 
221 1 0.0585019 0.0190661 0.00583452 1.13261e-14 -2.34686e-14 -2.88773e-13 -3.55224e-20 -1.2229e-20 -4.23516e-22 0.0005 1.46608e-07 
223 1 0.0216839 0.0143463 0.0137303 0.000344541 0.00107158 -0.0018179 -5.40898e-09 2.09748e-08 -2.5555e-08 0.0005 1.46608e-07 
226 1 0.0198838 0.0147143 0.0146333 0.0010404 -0.00142082 -0.00317564 -3.42137e-07 2.47649e-07 -1.17219e-06 0.0005 1.46608e-07 
227 1 0.0137224 0.02176 0.0150363 0.000683416 0.00163624 0.000852363 7.295e-09 1.73936e-08 7.39263e-09 0.0005 1.46608e-07 
229 1 0.0241884 0.0223046 0.0146276 0.00179698 0.00359576 3.38321e-05 2.35035e-09 1.61097e-08 2.48456e-09 0.0005 1.46608e-07 
240 1 0.0270139 0.0148036 0.0107817 0.000764879 -0.00326535 0.019046 -4.94105e-09 7.68888e-09 1.35183e-08 0.0005 1.46608e-07 
242 1 0.0254212 0.0191102 0.015959 0.000434618 0.0212187 -0.000269557 -1.71499e-09 2.19085e-09 -1.59062e-08 0.0005 1.46608e-07 
243 1 0.0207425 0.0190056 0.0159503 -8.73558e-11 0.0205507 7.99215e-05 -3.13809e-16 -5.78713e-11 -1.3682e-08 0.0005 1.46608e-07 
245 1 0.0262895 0.0154823 0.0139818 0.000949368 0.0114282 0.0160419 -1.24694e-07 2.17928e-06 2.30151e-06 0.0005 1.46608e-07 
246 1 0.0242602 0.0201274 0.00583803 -1.07574e-14 -1.73317e-15 1.75368e-13 0 5.0458e-22 0 0.0005 1.46608e-07 
254 1 0.0201123 0.0161427 0.0148655 0.00404447 0.00322994 0.00387986 1.13629e-08 -4.57231e-08 -2.31547e-08 0.0005 1.46608e-07 
256 1 0.0223407 0.0149609 0.0132814 3.04482e-07 0.000175195 -0.000574722 6.04948e-06 1.39106e-07 3.24479e-06 0.0005 1.46608e-07 
257 1 0.0198984 0.0234995 0.0118538 -0.000555463 -0.000198007 6.88793e-05 -1.40326e-07 -2.24687e-06 8.07527e-07 0.0005 1.46608e-07 
258 1 0.0193323 0.0143389 0.0138877 -0.00341615 -0.0012784 -0.00241766 5.27334e-08 -5.19936e-07 -6.08903e-07 0.0005 1.46608e-07 
262 1 0.0205474 0.014937 0.0132094 0.00368809 0.00343342 0.00530256 -5.27429e-08 1.00695e-07 -1.19952e-07 0.0005 1.46608e-07 
268 1 0.0157597 0.0234975 0.0142686 0.00721449 0.0020021 -0.00678855 1.69185e-08 1.27253e-08 -3.18669e-10 0.0005 1.46608e-07 
269 1 0.0207824 0.0145014 0.0142496 0.00164031 0.00171405 -0.00308019 5.09145e-09 -5.38229e-08 2.61846e-07 0.0005 1.46608e-07 
270 1 0.018296 0.014829 0.0146339 -0.00185164 -0.000353319 -0.00162969 3.52143e-08 -3.70052e-07 -6.03383e-07 0.0005 1.46608e-07 
271 1 0.0232623 0.0225212 0.00898881 0.0036006 -0.00153648 -0.00396053 -1.2249e-05 7.0865e-06 3.24965e-06 0.0005 1.46608e-07 
273 1 0.0218434 0.0166553 0.00790697 0.000257955 -0.0175694 0.0116622 -1.23505e-09 -8.38836e-10 1.25123e-08 0.0005 1.46608e-07 
274 1 0.0175613 0.0240708 0.0131638 0.000214309 0.000242732 -0.000148967 -6.01676e-07 -2.6446e-08 7.23021e-08 0.0005 1.46608e-07 
275 1 0.0214641 0.0174976 0.015677 2.31291e-11 0.0192217 0.00737326 6.61583e-16 5.08445e-09 -1.2739e-08 0.0005 1.46608e-07 
277 1 0.0299031 0.0233814 0.0117047 0.000382541 0.00115631 -0.0208783 -1.22042e-09 -9.81967e-09 -6.39942e-09 0.0005 1.46608e-07 
279 1 0.0209584 0.0207418 0.015619 -3.00578e-08 0.018954 -0.00797539 -6.03277e-11 -5.59648e-09 -1.25155e-08 0.0005 1.46608e-07 
280 1 0.0281804 0.0183837 0.00723914 0.000371771 -0.0199121 0.00347299 -2.6416e-09 -8.88199e-09 1.20369e-08 0.0005 1.46608e-07 
281 1 0.0279249 0.017039 0.00768864 0.000870993 -0.0163752 0.00828897 1.95404e-08 -1.59344e-08 -1.58825e-08 0.0005 1.46608e-07 
283 1 0.0198637 0.0170793 0.0154818 0.00145837 0.0147426 0.00721737 -8.90129e-09 3.9594e-08 1.18005e-08 0.0005 1.46608e-07 
291 1 0.0315237 0.0185201 0.00593899 7.97061e-15 -2.70952e-14 -6.66215e-14 0 0 0 0.0005 1.46608e-07 
293 1 0.018174 0.0233885 0.0125683 0.00397235 -0.0025002 -0.0149051 0 0 -1.43822e-06 0.0005 1.46608e-07 
296 1 0.0214811 0.0239341 0.0134817 -0.000316998 0.000356837 -0.000744261 -2.79593e-06 2.94874e-06 -1.77311e-06 0.0005 1.46608e-07 
297 1 0.0221529 0.0141378 0.0145885 -0.000520572 0.0005758 -0.00150896 5.29256e-09 9.38301e-09 6.77557e-08 0.0005 1.46608e-07 
298 1 0.0176222 0.0236565 0.0140719 0.000630707 0.000570615 -0.00111992 -6.52347e-08 1.06292e-06 -1.47062e-06 0.0005 1.46608e-07 
