ITEM: TIMESTEP
83600000
ITEM: NUMBER OF ATOMS
88
ITEM: BOX BOUNDS ff ff ff
-0.02 0.43
-0.02 0.06
-0.02 0.07
ITEM: ATOMS id type x y z vx vy vz fx fy fz radius mass 
1 1 0.0387146 0.0187573 0.00575718 -8.6825e-15 7.85637e-14 2.00899e-13 -1.05879e-22 0 0 0.0005 1.46608e-07 
2 1 0.0515454 0.0203376 0.00592249 1.07265e-14 2.65702e-14 3.50777e-13 -2.0391e-19 7.6233e-20 2.11758e-21 0.0005 1.46608e-07 
3 1 0.0657625 0.0198039 0.00576669 -1.32106e-15 3.97318e-14 -1.45084e-13 -3.63959e-23 0 2.11758e-22 0.0005 1.46608e-07 
8 1 0.102543 0.017821 0.00581645 -9.78518e-16 -4.35259e-15 -1.20042e-13 -2.81241e-23 6.61744e-24 0 0.0005 1.46608e-07 
9 1 0.0387828 0.0214812 0.00622724 -2.72471e-19 1.04008e-18 -5.69315e-18 -8.27181e-25 4.96308e-24 0 0.0005 1.46608e-07 
14 1 0.191105 0.0203026 0.00593314 -1.12285e-14 -4.38016e-14 9.73355e-14 -6.08805e-22 5.29396e-22 0 0.0005 1.46608e-07 
18 1 0.0819644 0.018662 0.00575674 1.34797e-14 4.56304e-14 1.93312e-13 -6.74979e-22 -2.64698e-22 2.11758e-22 0.0005 1.46608e-07 
26 1 0.10448 0.0180949 0.00580371 1.49812e-14 2.23648e-14 -1.76076e-13 2.5358e-20 2.33993e-20 4.02341e-21 0.0005 1.46608e-07 
28 1 0.0800401 0.0168845 0.00628905 -1.1356e-15 -7.29099e-15 -3.41145e-14 1.05879e-22 0 0 0.0005 1.46608e-07 
32 1 0.0458896 0.0168235 0.00626774 -4.52712e-15 -2.52971e-14 -1.74151e-13 -8.82105e-21 2.64698e-23 2.11758e-22 0.0005 1.46608e-07 
34 1 0.0564645 0.0213699 0.00635393 -1.56959e-15 -1.50137e-14 3.20899e-14 2.54428e-19 -5.18808e-21 4.44692e-21 0.0005 1.46608e-07 
38 1 0.0957274 0.0183663 0.0156644 0.00176535 0.0228651 0.000510741 2.87632e-08 1.23364e-07 -7.36735e-09 0.0005 1.46608e-07 
46 1 0.136461 0.0187737 0.0058834 2.11469e-15 3.09117e-15 -2.90498e-14 -9.17178e-20 2.47757e-20 -2.96462e-21 0.0005 1.46608e-07 
48 1 0.0822817 0.0172512 0.00607537 6.65461e-16 3.61527e-14 1.18631e-13 1.21976e-20 0 0 0.0005 1.46608e-07 
54 1 0.0652975 0.0207687 0.00603532 -1.12543e-15 3.25659e-14 -1.18914e-13 1.62293e-21 -5.29396e-23 0 0.0005 1.46608e-07 
56 1 0.0870153 0.0206158 0.00591409 3.22059e-15 5.90082e-15 -3.89484e-14 0 0 0 0.0005 1.46608e-07 
59 1 0.0792518 0.0191834 0.00582281 6.34769e-15 2.15031e-14 9.10981e-14 -1.12497e-21 -1.34466e-20 1.90582e-21 0.0005 1.46608e-07 
64 1 0.0170063 0.0201419 0.00601043 1.30169e-14 5.24424e-15 -1.07339e-13 5.61159e-20 -6.85567e-21 5.50571e-21 0.0005 1.46608e-07 
65 1 0.0643606 0.0210989 0.00615793 9.8509e-15 -6.28949e-14 2.05619e-13 5.4263e-22 1.05879e-22 0 0.0005 1.46608e-07 
66 1 0.0448733 0.0164686 0.00634571 -2.62063e-17 -1.41301e-16 -9.78658e-16 2.64698e-22 1.05879e-22 0 0.0005 1.46608e-07 
68 1 0.0803045 0.0192159 0.005743 -9.52827e-15 -2.67153e-14 1.14756e-13 1.98523e-22 0 0 0.0005 1.46608e-07 
70 1 0.0811915 0.017199 0.00615598 4.51269e-15 1.52767e-14 6.47202e-14 -7.27919e-22 1.05879e-22 0 0.0005 1.46608e-07 
74 1 0.0615774 0.0172559 0.00608456 -7.8669e-16 -3.48342e-15 -2.49288e-14 -6.35275e-22 -6.35275e-22 0 0.0005 1.46608e-07 
82 1 0.063441 0.0163701 0.00647495 5.26592e-16 7.55101e-15 9.66882e-15 -6.28657e-23 0 0 0.0005 1.46608e-07 
83 1 0.0855075 0.019144 0.00579031 -2.81032e-15 1.60107e-14 -2.15085e-13 -7.7755e-22 -1.24408e-21 0 0.0005 1.46608e-07 
86 1 0.0829173 0.0222111 0.0066532 2.53148e-15 -1.23279e-14 5.62301e-14 -8.33798e-22 -2.22346e-21 -2.11758e-22 0.0005 1.46608e-07 
88 1 0.0357086 0.0161117 0.00660683 -4.58185e-15 2.81752e-14 7.49159e-14 -7.01582e-20 -4.34104e-21 -3.38813e-21 0.0005 1.46608e-07 
89 1 0.0618809 0.0199413 0.00582959 -3.92819e-16 -5.43982e-15 1.50683e-14 1.65436e-23 1.05879e-22 -2.11758e-22 0.0005 1.46608e-07 
90 1 0.0845463 0.0178241 0.00589851 -1.7153e-15 5.08489e-14 1.75601e-13 8.20067e-21 2.11758e-22 0 0.0005 1.46608e-07 
93 1 0.11021 0.0201465 0.00580174 8.80509e-16 6.44526e-15 -3.33563e-14 -1.96935e-20 8.15269e-21 1.27055e-21 0.0005 1.46608e-07 
100 1 0.0830136 0.0187071 0.00584947 -9.52795e-15 -2.67155e-14 1.14756e-13 0 0 0 0.0005 1.46608e-07 
106 1 0.0439552 0.0161318 0.00656318 1.95616e-16 -2.75145e-15 -2.89948e-15 -4.89691e-22 -1.05879e-22 -1.05879e-22 0.0005 1.46608e-07 
107 1 0.0782305 0.0203396 0.00602091 3.35163e-15 9.26523e-15 -1.73417e-14 0 -5.29396e-23 4.23516e-22 0.0005 1.46608e-07 
108 1 0.0822914 0.0196163 0.00600118 7.16839e-15 2.0095e-14 -8.63168e-14 -9.13207e-22 -2.11758e-22 -2.11758e-22 0.0005 1.46608e-07 
109 1 0.0732237 0.018766 0.005768 1.03531e-14 -5.91719e-14 -1.63398e-13 -2.12169e-19 -5.88159e-20 7.41154e-21 0.0005 1.46608e-07 
112 1 0.0644815 0.0190744 0.00573853 7.97976e-16 -3.78212e-15 -6.44673e-14 0 0 0 0.0005 1.46608e-07 
113 1 0.0683453 0.0182317 0.00578271 7.82575e-18 1.40389e-17 5.06786e-16 -2.64698e-23 0 0 0.0005 1.46608e-07 
121 1 0.0609817 0.0187588 0.00589337 -4.35175e-15 -1.94154e-14 -1.3904e-13 -4.96308e-22 -2.64698e-23 -2.11758e-22 0.0005 1.46608e-07 
124 1 0.0609012 0.0197493 0.00575757 -5.19423e-15 -2.31833e-14 -1.66017e-13 0 0 0 0.0005 1.46608e-07 
125 1 0.0634974 0.0172463 0.00599641 6.59461e-16 1.62975e-15 1.28693e-14 2.64698e-23 0 0 0.0005 1.46608e-07 
126 1 0.0286258 0.0183498 0.00592583 -1.9446e-14 1.86424e-16 -2.28118e-13 -1.05879e-22 3.2198e-21 0 0.0005 1.46608e-07 
127 1 0.0888729 0.0199317 0.00596406 -1.22008e-15 -2.22743e-15 1.47218e-14 1.12629e-20 -9.29089e-21 -4.23516e-22 0.0005 1.46608e-07 
129 1 0.0601285 0.017977 0.00598674 -1.08857e-14 2.26379e-14 2.78393e-13 -4.2709e-20 -2.03288e-20 -2.11758e-22 0.0005 1.46608e-07 
132 1 0.0626638 0.0179373 0.00595165 -7.36457e-15 -1.81923e-14 -1.43647e-13 -5.691e-22 1.05879e-22 2.11758e-22 0.0005 1.46608e-07 
134 1 0.0644862 0.0176438 0.00589539 -5.97938e-15 -1.47721e-14 -1.16641e-13 -8.99973e-22 -3.17637e-22 2.11758e-22 0.0005 1.46608e-07 
137 1 0.0238948 0.0168123 0.00667048 -1.5589e-14 -3.1969e-14 -1.04791e-13 5.02926e-21 -5.29396e-23 -8.47033e-22 0.0005 1.46608e-07 
142 1 0.042543 0.0198089 0.00582143 -1.00172e-16 8.54475e-16 -2.70626e-15 -3.90429e-22 0 0 0.0005 1.46608e-07 
146 1 0.0388539 0.0197419 0.00587248 -2.83255e-15 1.34604e-14 -6.65669e-14 -1.52201e-22 0 0 0.0005 1.46608e-07 
149 1 0.0766607 0.0190533 0.00580856 -9.17629e-15 5.49366e-14 2.11158e-13 -7.16735e-20 -8.78797e-21 -2.75286e-21 0.0005 1.46608e-07 
159 1 0.0779381 0.019417 0.00576935 9.07545e-16 -5.47635e-15 -2.102e-14 1.05879e-22 2.64698e-22 -2.11758e-22 0.0005 1.46608e-07 
160 1 0.0620021 0.0189487 0.00583492 4.69618e-16 2.10701e-15 1.50482e-14 -2.31611e-23 0 0 0.0005 1.46608e-07 
163 1 0.0424897 0.0188104 0.00581963 1.69757e-16 -4.93862e-16 -2.7051e-15 1.25731e-22 5.29396e-23 0 0.0005 1.46608e-07 
165 1 0.0920805 0.0205253 0.0059177 -7.84812e-15 -7.28946e-14 1.85342e-13 2.77933e-22 0 0 0.0005 1.46608e-07 
174 1 0.0861518 0.0184422 0.00809524 6.43427e-10 -0.0202631 0.0034326 -3.7681e-13 2.81958e-09 1.74079e-08 0.0005 1.46608e-07 
182 1 0.0557406 0.0175302 0.00596599 -5.53447e-15 -7.62987e-15 -1.08976e-13 7.87344e-20 5.79688e-21 -4.65868e-21 0.0005 1.46608e-07 
187 1 0.102423 0.0196788 0.00582979 1.5351e-15 2.25061e-15 -1.78449e-14 -4.09223e-20 2.30287e-20 -4.23516e-22 0.0005 1.46608e-07 
189 1 0.0453636 0.0157749 0.00687326 2.75023e-17 -5.64994e-16 -6.89982e-16 -2.11758e-22 -1.58819e-22 0 0.0005 1.46608e-07 
193 1 0.377418 0.0173997 0.00847926 0.00125947 -0.000242177 -0.000852806 6.85219e-09 7.82187e-08 -6.41541e-08 0.0005 1.46608e-07 
195 1 0.0505919 0.0207133 0.00592302 6.74628e-15 1.89381e-14 2.6288e-13 -1.91906e-22 -2.64698e-23 0 0.0005 1.46608e-07 
198 1 0.0643736 0.0166453 0.00623285 -9.28302e-16 8.92625e-14 2.24983e-13 -3.06057e-23 0 0 0.0005 1.46608e-07 
201 1 0.0440263 0.0170728 0.00623272 2.29525e-16 -6.63931e-16 -3.64325e-15 -1.98523e-22 1.05879e-22 0 0.0005 1.46608e-07 
209 1 0.0799751 0.0180833 0.00603206 1.34732e-14 4.56305e-14 1.93312e-13 1.00453e-20 -3.81165e-21 2.11758e-22 0.0005 1.46608e-07 
213 1 0.0810479 0.0182624 0.00591498 1.06425e-15 3.60228e-15 1.52617e-14 -4.49986e-22 5.29396e-23 2.11758e-22 0.0005 1.46608e-07 
215 1 0.0824664 0.0205903 0.00624245 -1.04161e-15 -2.92713e-15 1.25718e-14 -3.03079e-21 -4.76456e-22 -2.11758e-22 0.0005 1.46608e-07 
221 1 0.0595038 0.0223955 0.00675756 1.21864e-16 -1.6825e-15 4.05715e-15 2.31544e-20 -5.61159e-21 -3.17637e-21 0.0005 1.46608e-07 
223 1 0.063626 0.0183177 0.00585415 -7.36363e-15 -1.81925e-14 -1.43647e-13 -2.24993e-22 -5.29396e-22 0 0.0005 1.46608e-07 
226 1 0.0316007 0.0183082 0.00603438 1.31852e-14 -4.47314e-14 -1.10004e-13 -1.45319e-20 -7.94093e-21 1.05879e-21 0.0005 1.46608e-07 
227 1 0.0584979 0.0201946 0.00586451 2.95148e-16 4.88192e-15 -1.04424e-14 -5.29396e-23 -1.90582e-21 -8.47033e-22 0.0005 1.46608e-07 
229 1 0.0215463 0.0196109 0.00592744 -1.81494e-14 8.1435e-15 -1.66091e-13 0 0 0 0.0005 1.46608e-07 
240 1 0.0690612 0.017564 0.00598647 -1.68187e-17 1.76947e-16 4.66257e-16 2.64698e-23 -2.64698e-23 0 0.0005 1.46608e-07 
242 1 0.0636055 0.0197465 0.00578044 6.28607e-15 -4.01366e-14 1.31216e-13 1.19114e-21 1.05879e-22 -2.11758e-22 0.0005 1.46608e-07 
245 1 0.098027 0.0165716 0.00799786 0.000303897 -0.0163323 0.0120963 -1.98127e-09 -1.63281e-10 1.24611e-08 0.0005 1.46608e-07 
246 1 0.0242602 0.0201274 0.00583803 -1.07555e-14 -1.72601e-15 1.75368e-13 -7.94093e-23 0 0 0.0005 1.46608e-07 
256 1 0.0798528 0.0158745 0.00855089 0.000637911 -0.01172 0.0136951 -5.17021e-09 -5.56489e-09 2.80893e-08 0.0005 1.46608e-07 
257 1 0.0567438 0.01754 0.00591345 -9.84305e-15 -1.33705e-14 -1.90505e-13 -3.20284e-21 -2.24993e-21 4.23516e-22 0.0005 1.46608e-07 
258 1 0.061759 0.0163729 0.00651709 1.21673e-15 -1.38953e-14 -1.98273e-14 1.85288e-22 0 5.29396e-23 0.0005 1.46608e-07 
270 1 0.0504712 0.0179279 0.00611076 -3.69845e-15 -1.32326e-14 -1.98725e-13 -2.63705e-21 5.29396e-23 0 0.0005 1.46608e-07 
273 1 0.0371638 0.0187263 0.00573865 3.83752e-15 -1.81912e-14 8.99463e-14 1.08129e-20 1.58819e-20 3.59989e-21 0.0005 1.46608e-07 
274 1 0.0328558 0.0191954 0.00572294 8.86264e-16 5.06752e-15 -1.96343e-14 1.2679e-20 0 6.35275e-22 0.0005 1.46608e-07 
277 1 0.044465 0.0204317 0.00594645 -2.80062e-15 2.53313e-14 -8.03125e-14 1.58706e-19 2.05935e-20 8.47033e-22 0.0005 1.46608e-07 
279 1 0.0625324 0.0169121 0.00611939 -3.82002e-16 3.70489e-14 9.33837e-14 1.10925e-21 0 -2.11758e-22 0.0005 1.46608e-07 
280 1 0.066033 0.0188309 0.00577203 2.19509e-15 -1.03721e-14 -1.76838e-13 -4.60707e-20 -1.27452e-20 0 0.0005 1.46608e-07 
281 1 0.0833983 0.0210192 0.00634375 2.36861e-14 -4.02505e-14 1.90901e-13 1.4029e-21 -4.8175e-21 -1.05879e-21 0.0005 1.46608e-07 
283 1 0.0634631 0.0175013 0.00840784 -5.40865e-05 0.00341893 -0.00379939 -1.54917e-10 7.66559e-08 -7.13614e-08 0.0005 1.46608e-07 
291 1 0.0350698 0.0188001 0.00572051 -7.12804e-15 -4.06645e-14 1.57634e-13 5.25028e-20 -1.37643e-21 1.90582e-21 0.0005 1.46608e-07 
293 1 0.0623373 0.0157218 0.00700852 1.18063e-15 -1.39131e-14 -1.98218e-14 -1.58819e-22 1.05879e-22 2.11758e-22 0.0005 1.46608e-07 
296 1 0.0667607 0.0199247 0.00579031 -4.92031e-16 1.19613e-14 -4.36757e-14 6.02022e-20 1.58819e-21 -2.11758e-22 0.0005 1.46608e-07 
298 1 0.0801544 0.0202323 0.00596714 -1.80131e-14 -5.05046e-14 2.16941e-13 5.29396e-23 1.05879e-22 0 0.0005 1.46608e-07 
