ITEM: TIMESTEP
10000000
ITEM: NUMBER OF ATOMS
127
ITEM: BOX BOUNDS ff ff ff
-0.02 0.43
-0.02 0.06
-0.02 0.07
ITEM: ATOMS id type x y z vx vy vz fx fy fz radius mass 
1 1 0.0185643 0.0216261 0.0151241 -0.000710996 0.00299623 -0.0011618 2.9943e-08 1.26921e-06 -9.39626e-07 0.0005 1.46608e-07 
2 1 0.0234162 0.0149757 0.0148308 -0.00292746 -0.00260288 -0.000655324 -2.66136e-08 -2.71076e-08 -1.04667e-08 0.0005 1.46608e-07 
3 1 0.0316789 0.0149112 0.0123886 -0.00119884 0.00472328 0.0200706 0.000101713 -2.70491e-05 -5.86908e-05 0.0005 1.46608e-07 
4 1 0.0213298 0.0189333 0.00719055 0.000425638 -0.0193629 0.00120599 -3.01152e-09 -1.35556e-08 9.90555e-09 0.0005 1.46608e-07 
6 1 0.0176461 0.0223287 0.0145377 0.00144164 0.0105048 -0.00965961 -1.32806e-06 5.91903e-07 -3.43254e-07 0.0005 1.46608e-07 
8 1 0.0326821 0.0162868 0.00819765 0.000925913 -0.0140544 0.012754 -8.52073e-09 -9.96291e-09 2.01033e-08 0.0005 1.46608e-07 
9 1 0.0427538 0.0186075 0.0058732 1.98707e-15 -5.83537e-15 -3.18908e-14 2.28964e-21 8.68209e-21 -1.27055e-21 0.0005 1.46608e-07 
13 1 0.0187723 0.0240166 0.0127782 0.000351779 0.000672382 0.000326519 -8.05395e-08 -1.39378e-07 1.23096e-07 0.0005 1.46608e-07 
14 1 0.0194225 0.0227367 0.0140024 0.00404815 0.0020174 -0.000551126 -4.7307e-07 3.01417e-06 -3.30507e-06 0.0005 1.46608e-07 
15 1 0.0199875 0.0165064 0.0153896 7.05229e-05 0.0203349 0.0127618 -1.71082e-09 -6.59896e-10 4.40139e-10 0.0005 1.46608e-07 
17 1 0.0209267 0.0239939 0.0126992 0.000569376 -0.000262034 0.000221045 -6.19642e-06 -2.22797e-06 -1.69881e-05 0.0005 1.46608e-07 
18 1 0.08261 0.0191091 0.00590955 -1.79924e-14 -5.04897e-14 2.16946e-13 -6.36731e-20 6.87685e-20 1.3129e-20 0.0005 1.46608e-07 
19 1 0.0135893 0.0215544 0.0151863 0.00145074 0.0030843 -0.000418605 2.5311e-07 5.26868e-07 2.08182e-07 0.0005 1.46608e-07 
20 1 0.0194478 0.014478 0.0157053 -0.00296276 0.0168299 -0.0365319 -1.16533e-07 3.79404e-07 -8.51769e-07 0.0005 1.46608e-07 
26 1 0.0205529 0.018005 0.0158338 2.8656e-05 0.0225502 0.0054386 -1.42106e-08 -2.77603e-08 -1.71721e-08 0.0005 1.46608e-07 
28 1 0.0195711 0.0178251 0.0157748 3.11124e-05 0.0222069 0.00636484 1.24836e-08 1.21834e-09 -3.81713e-08 0.0005 1.46608e-07 
32 1 0.0422303 0.0177762 0.006064 -1.24728e-14 -4.2121e-14 -1.2083e-13 -2.72639e-21 -1.39231e-20 5.29396e-21 0.0005 1.46608e-07 
34 1 0.0318332 0.0147899 0.0115552 0.000321832 0.000387716 0.0208893 -1.32459e-05 3.07166e-06 -6.99172e-06 0.0005 1.46608e-07 
38 1 0.0227893 0.0233881 0.0111799 0.000292085 -0.00093882 -0.0116369 3.39798e-07 -4.75763e-08 -9.67492e-07 0.0005 1.46608e-07 
40 1 0.0154545 0.0226834 0.0153115 0.00375244 0.0011475 -0.00266686 -3.69559e-07 -4.37312e-07 3.8169e-07 0.0005 1.46608e-07 
42 1 0.0214437 0.0155272 0.0153547 -0.011184 -0.00306828 -0.00813094 -1.23447e-07 3.06891e-07 -2.58256e-08 0.0005 1.46608e-07 
46 1 0.0264672 0.0155342 0.0089522 0.000887935 -0.00642173 0.00920448 -3.04325e-09 1.84626e-08 1.4492e-09 0.0005 1.46608e-07 
48 1 0.0295349 0.0222696 0.014305 0.00170245 0.014923 -0.0182846 -3.0019e-08 -4.93496e-09 6.18192e-08 0.0005 1.46608e-07 
54 1 0.0286321 0.0232137 0.0102338 0.000571223 -0.00574438 -0.0185343 -7.64902e-07 1.56989e-07 5.59674e-07 0.0005 1.46608e-07 
56 1 0.0337673 0.0208288 0.00763784 0.000662352 -0.0177576 -0.00690571 -2.81394e-09 -1.29888e-08 6.65758e-09 0.0005 1.46608e-07 
59 1 0.0308821 0.0170132 0.0152851 0.000604648 0.010207 0.006148 4.21371e-09 -1.48426e-08 -1.86492e-08 0.0005 1.46608e-07 
64 1 0.025697 0.0176167 0.0170811 0.112008 -0.398095 -0.0945482 0 0 -1.43822e-06 0.0005 1.46608e-07 
65 1 0.0292785 0.0229937 0.0132488 0.00010586 0.010212 -0.0197249 -4.06638e-10 -8.76632e-09 -8.53504e-09 0.0005 1.46608e-07 
66 1 0.0343229 0.0227314 0.00924603 0.000172272 -0.0107437 -0.0188503 -5.08504e-10 -1.18891e-08 1.92562e-09 0.0005 1.46608e-07 
68 1 0.0305822 0.0190034 0.0158424 5.09962e-05 0.0173464 0.00111915 1.20274e-09 -2.49062e-09 -1.51872e-08 0.0005 1.46608e-07 
70 1 0.0232374 0.0229828 0.0138066 -0.000674056 0.00338339 -0.00873753 2.14258e-07 2.32976e-06 3.31575e-06 0.0005 1.46608e-07 
74 1 0.0179881 0.0233539 0.0124877 0.00402487 0.000906023 -0.0024769 -4.60046e-05 -3.15411e-06 2.68335e-05 0.0005 1.46608e-07 
76 1 0.0223912 0.0229095 0.00949486 0.00382081 -0.00131295 -0.00458685 4.90391e-07 5.59657e-07 -1.75443e-07 0.0005 1.46608e-07 
82 1 0.023442 0.0226528 0.01464 0.00475008 0.0207036 -0.0210026 -1.02815e-06 -1.64159e-06 -2.25488e-06 0.0005 1.46608e-07 
83 1 0.0314749 0.0152425 0.0132704 0.0109634 -0.0021311 -0.00287284 -0.000419527 0.000346772 0.000694861 0.0005 1.46608e-07 
86 1 0.0287778 0.0233552 0.0111818 0.000505845 0.000143161 -0.014022 1.76868e-07 -9.76885e-08 -1.22049e-07 0.0005 1.46608e-07 
88 1 0.0199046 0.014738 0.0112125 1.76283e-06 -0.00289053 0.0231552 -1.72386e-08 9.9512e-09 1.00387e-08 0.0005 1.46608e-07 
89 1 0.0321446 0.0149439 0.0102151 0.000524333 -0.00537545 0.0190916 -3.1371e-09 6.88551e-09 1.52834e-08 0.0005 1.46608e-07 
90 1 0.0148004 0.0153605 0.014 0.00254021 -0.000422355 -0.0034282 0 0 -1.43822e-06 0.0005 1.46608e-07 
91 1 0.0196619 0.0139025 0.0131323 -0.00339545 0.00946459 -0.0159433 4.18167e-08 4.21636e-07 -6.47909e-07 0.0005 1.46608e-07 
93 1 0.0249367 0.0168235 0.0153451 0.00292447 0.00776275 0.00421979 1.56858e-09 -9.08248e-09 -6.12665e-10 0.0005 1.46608e-07 
96 1 0.0311208 0.0158954 0.0144559 0.000368844 0.0137959 0.0143433 -2.12087e-09 1.76587e-08 1.16899e-09 0.0005 1.46608e-07 
98 1 0.0191449 0.0202368 0.0157807 4.99711e-10 0.0197535 -0.00548805 8.8842e-16 -3.6674e-09 -1.3139e-08 0.0005 1.46608e-07 
100 1 0.033425 0.0195199 0.00730749 -6.23521e-05 -0.0205099 -0.00299827 -1.49956e-08 1.39687e-07 2.57704e-08 0.0005 1.46608e-07 
101 1 0.0172628 0.0231768 0.0130816 0.00381102 0.00239476 -0.00578135 -9.60031e-06 1.02733e-07 1.54111e-05 0.0005 1.46608e-07 
106 1 0.0180695 0.0207445 0.0156191 7.12719e-05 0.021114 -0.00864851 -1.13358e-09 -1.56645e-09 -1.82798e-08 0.0005 1.46608e-07 
107 1 0.0195819 0.024431 0.0136594 -0.0462082 -0.0207659 0.00790438 0 0 -1.43822e-06 0.0005 1.46608e-07 
108 1 0.0324662 0.0155002 0.00907174 -1.7328e-05 -0.0136563 0.0183533 -2.08538e-07 -1.35422e-06 3.00183e-06 0.0005 1.46608e-07 
109 1 0.0244873 0.0188133 0.015951 0.00439154 0.00165894 -0.00160616 -2.02593e-07 6.71556e-07 1.60391e-07 0.0005 1.46608e-07 
110 1 0.0184367 0.013992 0.0130492 0.00102943 -0.00114891 0.00244479 1.80799e-09 8.55851e-08 -2.16326e-07 0.0005 1.46608e-07 
112 1 0.0199954 0.0236129 0.0140759 0.0195896 -0.0023672 0.0253868 0 0 -1.43822e-06 0.0005 1.46608e-07 
113 1 0.0186395 0.0224412 0.0145492 0.00190398 0.00194448 -0.00139832 -1.63808e-06 5.61655e-08 -4.84933e-06 0.0005 1.46608e-07 
117 1 0.0183688 0.0193472 0.0159328 0.00046618 0.0209186 -0.00139906 -2.37912e-10 1.30613e-10 -1.43839e-08 0.0005 1.46608e-07 
121 1 0.0188563 0.0171672 0.0155379 4.21537e-05 0.0209731 0.00978104 3.31256e-08 6.83198e-09 -1.01647e-08 0.0005 1.46608e-07 
124 1 0.030138 0.0202289 0.0155715 0.00101704 0.0176843 -0.00578818 -6.96563e-09 1.75427e-08 -1.71114e-08 0.0005 1.46608e-07 
125 1 0.0144933 0.0229984 0.014998 0.00321835 0.00121433 -0.00146073 5.55178e-07 -5.18956e-07 -4.7251e-08 0.0005 1.46608e-07 
126 1 0.0286258 0.0183498 0.00592583 -1.9446e-14 1.90652e-16 -2.28118e-13 7.94093e-23 1.53831e-20 -2.11758e-22 0.0005 1.46608e-07 
127 1 0.0305395 0.0181523 0.0157036 0.000150725 0.020302 0.00475563 -6.12942e-10 4.14092e-09 -1.06261e-08 0.0005 1.46608e-07 
129 1 0.0174822 0.0141208 0.0133276 0.00366171 0.000168062 -0.0100467 0 0 -1.43822e-06 0.0005 1.46608e-07 
131 1 0.0208114 0.0146054 0.0120899 0.0114609 0.0374955 -0.0640065 -8.96165e-07 7.82872e-07 -1.72685e-08 0.0005 1.46608e-07 
132 1 0.0185466 0.0234791 0.0117414 0.00100559 0.000614754 0.00122623 5.44714e-05 1.61855e-05 6.87216e-05 0.0005 1.46608e-07 
134 1 0.0196225 0.022108 0.0147536 0.0050203 -0.00641862 -0.00784869 1.6508e-06 -2.82662e-06 5.11758e-06 0.0005 1.46608e-07 
137 1 0.0173014 0.0145516 0.0142227 0.00254172 -0.000692317 0.00170292 0 0 -1.43822e-06 0.0005 1.46608e-07 
142 1 0.0331891 0.018105 0.00731918 4.33381e-05 -0.012392 0.00195399 3.43367e-08 -9.30135e-08 -2.24052e-08 0.0005 1.46608e-07 
143 1 0.0242703 0.0207484 0.0156124 -0.00413516 -0.000410323 -0.000231613 0 0 -1.43822e-06 0.0005 1.46608e-07 
146 1 0.0202696 0.019408 0.0159269 -2.667e-06 0.0230017 -0.00185692 1.34125e-08 -4.5716e-08 -8.39442e-09 0.0005 1.46608e-07 
147 1 0.020172 0.0185212 0.0166009 -1.27477e-05 0.0265465 0.00273394 4.5397e-08 -1.62465e-08 -3.51579e-08 0.0005 1.46608e-07 
149 1 0.0329555 0.0171543 0.00761038 0.000187964 -0.0193971 0.00915894 -1.6396e-09 -1.63127e-09 1.20828e-08 0.0005 1.46608e-07 
156 1 0.0252681 0.0206861 0.0156406 -0.00249976 0.000542992 0.00178086 0 0 -1.43822e-06 0.0005 1.46608e-07 
159 1 0.016139 0.0239201 0.0145001 0.00277295 0.000520874 -0.0023499 2.03762e-07 2.61359e-07 -2.41892e-07 0.0005 1.46608e-07 
160 1 0.0206798 0.0243447 0.0138017 0.137932 0.0105192 0.121099 0 0 -1.43822e-06 0.0005 1.46608e-07 
161 1 0.0175481 0.0240375 0.0129411 0.00233081 0.000248512 -0.00113198 -2.95303e-05 -4.88828e-06 -1.62154e-07 0.0005 1.46608e-07 
163 1 0.0165465 0.0150987 0.0149364 -0.00104476 -0.0117274 -0.0108912 0 0 -1.43822e-06 0.0005 1.46608e-07 
165 1 0.0204239 0.01544 0.00914937 0.000376521 -0.00962479 0.0146749 -6.18169e-09 -7.88418e-09 6.79585e-08 0.0005 1.46608e-07 
169 1 0.0186328 0.0181594 0.0158635 1.37892e-05 0.0226723 0.00462203 1.64322e-08 -4.32417e-08 -2.84574e-08 0.0005 1.46608e-07 
171 1 0.0183428 0.0157828 0.0156786 -0.00284736 0.00780593 0.00659202 5.86452e-08 -1.38923e-07 -1.83748e-07 0.0005 1.46608e-07 
172 1 0.0252705 0.0197213 0.0159087 0.00588458 0.00232614 -0.000481531 -2.10907e-07 8.25453e-07 -3.83238e-07 0.0005 1.46608e-07 
174 1 0.0209641 0.0151406 0.00964969 0.00160394 -0.00849556 0.0145168 6.75563e-09 1.46822e-08 -6.24498e-08 0.0005 1.46608e-07 
178 1 0.0185712 0.0244175 0.0137465 -0.0117614 -0.0189226 0.00859681 0 0 -1.43822e-06 0.0005 1.46608e-07 
180 1 0.0165347 0.0142543 0.0136529 -0.00034564 -0.000162445 0.00172976 -1.25662e-08 -3.47408e-07 -8.88019e-07 0.0005 1.46608e-07 
182 1 0.017679 0.0151484 0.0151957 -0.0193808 0.0244066 0.0883181 0 0 -1.43822e-06 0.0005 1.46608e-07 
186 1 0.0184434 0.0233139 0.0140958 0.00469452 0.00484503 0.00088252 -1.16255e-06 3.12966e-07 -2.83896e-06 0.0005 1.46608e-07 
187 1 0.0474618 0.0192773 0.00593797 4.6903e-15 -1.01583e-14 -1.05711e-13 3.07274e-19 2.80315e-20 1.12232e-20 0.0005 1.46608e-07 
189 1 0.0220364 0.022015 0.00849334 0.000189918 -0.0151358 -0.0142682 -8.79553e-10 -1.15433e-08 4.44609e-09 0.0005 1.46608e-07 
193 1 0.0271833 0.0160578 0.00840621 6.23746e-05 -0.0158546 0.0104343 -3.74079e-07 2.1809e-07 -2.59416e-07 0.0005 1.46608e-07 
194 1 0.0207418 0.0141429 0.0130858 -0.0163942 0.0113553 -0.044275 0 0 -1.43822e-06 0.0005 1.46608e-07 
195 1 0.0208723 0.0169217 0.00771791 0.000422428 -0.0176865 0.010103 -3.52804e-09 -1.15484e-09 1.43685e-08 0.0005 1.46608e-07 
198 1 0.0170022 0.0234048 0.0121655 0.00235474 -0.000496405 -0.00703473 3.77562e-06 7.85726e-06 8.19103e-06 0.0005 1.46608e-07 
201 1 0.0245458 0.0215935 0.0151542 0.00135961 0.000187882 0.00192294 -1.53385e-07 6.13599e-07 -4.76237e-07 0.0005 1.46608e-07 
209 1 0.0191283 0.0239623 0.0144737 0.00720269 0.000338426 0.0485141 0 0 -1.43822e-06 0.0005 1.46608e-07 
213 1 0.0274192 0.0193622 0.00718595 0.000360405 -0.0190675 -0.00234131 1.71877e-09 5.08055e-09 1.6412e-08 0.0005 1.46608e-07 
214 1 0.0194719 0.0188053 0.0159459 -8.65445e-06 0.0230971 0.00126528 6.00569e-09 -3.29336e-08 -2.52344e-09 0.0005 1.46608e-07 
215 1 0.0283012 0.0226752 0.0090895 0.000753778 -0.0108619 -0.0153289 -4.89066e-09 -1.6328e-08 -5.94679e-09 0.0005 1.46608e-07 
216 1 0.0176067 0.0234677 0.0116165 0.00206036 -0.000415286 -0.00225388 2.14301e-05 3.27643e-06 1.13858e-05 0.0005 1.46608e-07 
221 1 0.0585019 0.0190661 0.00583452 1.13152e-14 -2.34692e-14 -2.88773e-13 2.11758e-22 -2.24993e-22 0 0.0005 1.46608e-07 
223 1 0.0217615 0.0143674 0.0137844 -0.00797425 0.000459075 -0.0107704 -2.29485e-08 1.07234e-07 -6.41694e-07 0.0005 1.46608e-07 
226 1 0.0167684 0.0232016 0.014796 0.00330612 0.000948183 -0.00236146 6.80135e-07 2.70375e-08 -2.88767e-07 0.0005 1.46608e-07 
227 1 0.0139649 0.022389 0.015589 0.00246902 0.00261781 -2.16176e-05 4.5612e-07 6.13419e-07 2.47493e-07 0.0005 1.46608e-07 
229 1 0.0239636 0.0221914 0.014641 -0.0012255 -0.00429072 0.00376112 4.82194e-07 1.63338e-06 8.43211e-07 0.0005 1.46608e-07 
240 1 0.0268549 0.0168792 0.00776245 0.00193237 -0.0144901 0.00959505 -2.15033e-08 -3.864e-08 2.70274e-08 0.0005 1.46608e-07 
242 1 0.0252501 0.0155761 0.0140201 0.000977558 0.0118047 0.0154904 -9.28174e-09 1.74146e-08 1.18543e-08 0.0005 1.46608e-07 
243 1 0.0196692 0.0149026 0.0131454 -0.00244049 0.00977852 0.0225011 -2.1616e-08 -1.46784e-07 -9.14448e-07 0.0005 1.46608e-07 
245 1 0.0261356 0.014926 0.0102619 0.00104965 -0.00674742 0.0167112 1.61035e-08 1.27854e-08 -9.85686e-08 0.0005 1.46608e-07 
246 1 0.0242602 0.0201274 0.00583803 -4.75906e-05 9.83042e-07 -6.15505e-05 -3.62741e-08 2.137e-08 5.56866e-07 0.0005 1.46608e-07 
254 1 0.0197798 0.0146084 0.0121961 -0.000383913 0.000776226 0.0247278 1.99596e-07 9.18465e-07 -9.00603e-07 0.0005 1.46608e-07 
256 1 0.021576 0.0147857 0.0127501 0.00506227 -0.00617805 -0.0258275 -2.64447e-08 -3.46738e-07 -1.08366e-06 0.0005 1.46608e-07 
257 1 0.0189301 0.0231513 0.0132375 -0.000150173 0.00194332 0.00120248 -7.38595e-07 -2.52132e-07 3.92738e-07 0.0005 1.46608e-07 
258 1 0.0177987 0.0143831 0.0163292 0.0569594 -0.104144 0.190319 0 0 -1.43822e-06 0.0005 1.46608e-07 
262 1 0.0201809 0.0150446 0.010012 1.01957e-05 -0.00667839 0.019599 1.09702e-09 -3.86303e-09 1.31395e-08 0.0005 1.46608e-07 
264 1 0.0179796 0.0232195 0.0149765 -0.00848193 0.00949966 -0.0034643 1.81468e-07 -2.51055e-07 4.7948e-07 0.0005 1.46608e-07 
268 1 0.0153288 0.0233377 0.0145659 0.00327633 0.00030363 -0.00290158 -5.30925e-07 -1.52241e-07 3.55154e-07 0.0005 1.46608e-07 
269 1 0.0242728 0.0197892 0.0158953 0.00522925 0.000198044 0.00191566 -1.93807e-07 1.07737e-06 -3.34368e-07 0.0005 1.46608e-07 
270 1 0.0202454 0.012899 0.0195743 -0.0605937 0.0765114 -0.23106 0 0 -1.43822e-06 0.0005 1.46608e-07 
271 1 0.022787 0.0232059 0.010237 0.00098378 -0.00334373 -0.0134858 1.96054e-06 -3.07059e-06 -7.52791e-06 0.0005 1.46608e-07 
273 1 0.0216236 0.0201633 0.00735873 2.87978e-05 -0.0208457 -0.00654313 -5.43288e-10 -3.72168e-09 1.06637e-08 0.0005 1.46608e-07 
274 1 0.0174446 0.0241978 0.0139626 -0.17637 0.056261 -0.0101012 0 0 -1.43822e-06 0.0005 1.46608e-07 
275 1 0.0217133 0.0148806 0.0146412 -0.00902553 0.00108035 -0.0111079 -2.9324e-07 -3.19878e-07 -4.99311e-07 0.0005 1.46608e-07 
277 1 0.029744 0.0215928 0.0149894 0.00152416 0.0146687 -0.0099794 -7.23629e-08 -6.70906e-09 2.50845e-08 0.0005 1.46608e-07 
279 1 0.0207826 0.017047 0.015663 1.08659e-05 0.0216839 0.0102585 8.38616e-09 -1.02418e-08 1.41214e-08 0.0005 1.46608e-07 
280 1 0.0280354 0.0218128 0.00817184 0.000432424 -0.0136302 -0.0120879 -6.92761e-09 1.84435e-07 1.958e-07 0.0005 1.46608e-07 
281 1 0.0277924 0.0208199 0.00757352 0.000338858 -0.0188591 -0.0079345 -1.47745e-09 -1.11441e-08 6.68739e-09 0.0005 1.46608e-07 
283 1 0.0190483 0.016269 0.0151428 9.67638e-06 0.0189905 0.0142918 2.78181e-10 1.85532e-08 -2.42534e-08 0.0005 1.46608e-07 
291 1 0.0315237 0.0185201 0.00593899 7.96765e-15 -2.70951e-14 -6.66219e-14 -2.85874e-21 0 -4.23516e-22 0.0005 1.46608e-07 
293 1 0.0174518 0.0231876 0.0140642 0.00428004 0.011649 -0.00678998 1.95078e-06 4.22027e-06 -3.88542e-06 0.0005 1.46608e-07 
296 1 0.0200465 0.0240659 0.0125462 0.000915367 0.00123936 -0.00038042 -2.21861e-05 -1.76307e-05 -0.000147966 0.0005 1.46608e-07 
297 1 0.0226597 0.0146005 0.0142951 -0.00266184 -6.15136e-05 -0.00249504 3.69338e-08 -4.00861e-09 4.47015e-08 0.0005 1.46608e-07 
298 1 0.0237432 0.0216316 0.015253 0.00333578 0.00241205 0.00510982 5.13657e-07 1.21927e-06 1.10996e-06 0.0005 1.46608e-07 
