ITEM: TIMESTEP
35000000
ITEM: NUMBER OF ATOMS
89
ITEM: BOX BOUNDS ff ff ff
-0.02 0.43
-0.02 0.06
-0.02 0.07
ITEM: ATOMS id type x y z vx vy vz fx fy fz radius mass 
1 1 0.0388307 0.0187336 0.00577146 -9.82694e-15 8.71506e-14 2.22854e-13 2.34853e-19 5.71747e-21 7.83505e-21 0.0005 1.46608e-07 
2 1 0.0334162 0.0227924 0.0136607 0.000703699 0.0100815 -0.0173296 -7.70407e-09 5.47203e-09 -2.23055e-08 0.0005 1.46608e-07 
3 1 0.0538455 0.0147933 0.0117875 0.000168318 0.0014073 0.0208916 -1.16093e-09 1.15097e-08 5.05443e-09 0.0005 1.46608e-07 
8 1 0.0578804 0.021348 0.0150251 7.89888e-06 0.016615 -0.0115061 5.39968e-10 -3.67212e-09 -1.63736e-08 0.0005 1.46608e-07 
9 1 0.0436892 0.020408 0.00596775 2.40026e-15 -2.04488e-14 6.4884e-14 -4.71162e-21 -9.52912e-22 2.11758e-22 0.0005 1.46608e-07 
14 1 0.0371352 0.0178697 0.00734121 0.00139254 -0.0155647 0.00294334 2.05981e-08 -5.46215e-08 4.92626e-08 0.0005 1.46608e-07 
18 1 0.08261 0.0191091 0.00590955 -1.80167e-14 -5.05015e-14 2.16941e-13 -5.59968e-20 -5.77041e-21 -1.69407e-21 0.0005 1.46608e-07 
26 1 0.103453 0.0178822 0.00580682 1.68988e-15 7.51586e-15 2.07276e-13 -1.4795e-20 1.30364e-21 0 0.0005 1.46608e-07 
28 1 0.0472999 0.0156642 0.014186 0.00118924 0.0116068 0.0143514 -3.92733e-09 1.95791e-08 1.31221e-09 0.0005 1.46608e-07 
32 1 0.0458692 0.0166351 0.00629564 2.90779e-16 1.62427e-15 1.11821e-14 7.61006e-22 0 0 0.0005 1.46608e-07 
34 1 0.0572659 0.0174442 0.00591793 9.18434e-15 -1.90537e-14 -2.34434e-13 -1.47569e-21 -1.7073e-21 0 0.0005 1.46608e-07 
38 1 0.0483097 0.015104 0.00989082 0.000383488 -0.00785178 0.0192637 -3.45615e-09 7.44764e-09 1.21948e-08 0.0005 1.46608e-07 
46 1 0.050907 0.0233689 0.0114843 0.00245137 0.000179736 -0.0119979 1.85175e-07 5.62793e-07 -1.13056e-06 0.0005 1.46608e-07 
48 1 0.0541406 0.0148484 0.0107313 0.196712 0.353743 0.162814 -0.139964 0.186162 -0.0393444 0.0005 1.46608e-07 
54 1 0.0533413 0.0155824 0.0140998 0.000520853 0.0121146 0.0175358 2.62563e-10 1.11625e-08 -3.03132e-09 0.0005 1.46608e-07 
56 1 0.0554497 0.0192726 0.0072546 0.00118793 -0.0211225 -0.000612603 -2.13684e-09 -5.05625e-09 1.24269e-08 0.0005 1.46608e-07 
59 1 0.0793161 0.0192087 0.00581236 1.5237e-14 5.1863e-14 2.19694e-13 -7.94093e-23 5.03985e-20 -1.10114e-20 0.0005 1.46608e-07 
64 1 0.0170063 0.0201419 0.00601043 1.30251e-14 5.25103e-15 -1.07337e-13 6.69685e-20 -2.27243e-20 7.83505e-21 0.0005 1.46608e-07 
65 1 0.0632091 0.0196192 0.00574818 3.9368e-15 5.47556e-14 -1.51842e-13 -6.86825e-20 4.23516e-21 -2.11758e-22 0.0005 1.46608e-07 
66 1 0.0448873 0.0164493 0.00634816 -4.52807e-15 -2.52973e-14 -1.74151e-13 -3.90429e-22 6.61744e-22 0 0.0005 1.46608e-07 
68 1 0.0549575 0.0169926 0.00775301 0.00161326 -0.0032882 0.00286728 1.02228e-08 5.58636e-09 -4.15523e-08 0.0005 1.46608e-07 
70 1 0.0457282 0.0230881 0.0128078 -0.00031957 0.00881269 -0.018699 3.51431e-08 -3.03095e-08 8.2507e-08 0.0005 1.46608e-07 
74 1 0.0375768 0.0195506 0.00729918 4.30073e-05 -0.0217769 -0.00309592 -1.49921e-09 -6.16933e-09 1.03633e-08 0.0005 1.46608e-07 
82 1 0.0391221 0.02329 0.012202 0.000920715 0.00274861 -0.0205552 2.85055e-09 1.03859e-09 -1.26168e-08 0.0005 1.46608e-07 
83 1 0.0564749 0.0227884 0.00942047 -6.71581e-05 -0.0102164 -0.0199348 1.91146e-09 -1.13519e-08 6.47458e-10 0.0005 1.46608e-07 
86 1 0.0535628 0.0150463 0.013101 0.000314248 0.00666378 0.0223964 2.03924e-09 1.23506e-08 -2.64537e-09 0.0005 1.46608e-07 
88 1 0.0357086 0.0161117 0.00660683 -4.53512e-15 2.81835e-14 7.49156e-14 1.40793e-19 2.54639e-20 -1.05879e-21 0.0005 1.46608e-07 
89 1 0.0569807 0.0233664 0.0117305 0.000240038 0.00174473 -0.0214496 -2.45194e-10 -1.0748e-08 -4.89748e-09 0.0005 1.46608e-07 
90 1 0.039811 0.0216657 0.014817 8.29576e-05 0.0150455 -0.0121286 -4.25726e-09 -1.49175e-08 3.4778e-10 0.0005 1.46608e-07 
93 1 0.0495289 0.0193487 0.00722631 0.000511855 -0.0194244 -0.00182371 6.56315e-10 -4.8258e-08 1.71924e-08 0.0005 1.46608e-07 
96 1 0.0560202 0.0216196 0.00801828 0.00024995 -0.0168954 -0.0126449 -1.02961e-10 -1.11555e-08 4.42566e-09 0.0005 1.46608e-07 
100 1 0.058215 0.0198918 0.0157066 0.000271755 0.0195206 -0.00314268 -5.234e-09 5.86163e-08 -2.09953e-08 0.0005 1.46608e-07 
106 1 0.0439552 0.0161318 0.00656318 1.95853e-16 -2.75166e-15 -2.89974e-15 -3.83812e-22 0 -1.05879e-22 0.0005 1.46608e-07 
107 1 0.047539 0.0151017 0.0130859 -0.000179198 0.00669437 0.0216578 4.35141e-09 1.38099e-08 1.01398e-09 0.0005 1.46608e-07 
108 1 0.0572804 0.023148 0.012889 0.000842281 0.00491468 -0.0171054 -8.61685e-09 -6.13577e-10 -3.00253e-08 0.0005 1.46608e-07 
109 1 0.0468453 0.0171887 0.0153802 0.00199954 0.00306496 0.000652158 7.30877e-09 -5.50359e-08 4.98101e-09 0.0005 1.46608e-07 
112 1 0.043544 0.0194404 0.00719365 0.000509259 -0.0206164 -0.00263767 -9.27566e-11 -6.23519e-09 8.15371e-09 0.0005 1.46608e-07 
113 1 0.0439974 0.0215491 0.00797022 0.000275687 -0.0170695 -0.0120193 -7.58219e-10 -1.14757e-08 4.64483e-09 0.0005 1.46608e-07 
121 1 0.0448539 0.0233852 0.0111435 0.00143788 -0.00128443 -0.0146549 -9.74078e-10 -1.78328e-08 1.6421e-09 0.0005 1.46608e-07 
124 1 0.0547317 0.0163311 0.00827588 0.00220092 -0.00531302 0.00654199 -2.15943e-08 -4.64998e-08 -1.32482e-08 0.0005 1.46608e-07 
125 1 0.0423877 0.0152975 0.00945818 3.87301e-05 -0.00866861 0.0148195 -5.65438e-09 1.6549e-08 1.61404e-08 0.0005 1.46608e-07 
126 1 0.0286258 0.0183498 0.00592583 -1.94458e-14 1.83865e-16 -2.28119e-13 -7.94093e-23 8.45048e-21 0 0.0005 1.46608e-07 
127 1 0.0551605 0.0180316 0.00732262 0.000376547 -0.018316 0.00317254 7.23459e-09 5.5078e-08 1.91489e-08 0.0005 1.46608e-07 
129 1 0.0302623 0.015018 0.0100697 0.000131835 -0.0073913 0.0201439 -1.15988e-09 7.65904e-09 9.44126e-09 0.0005 1.46608e-07 
132 1 0.0470564 0.0163538 0.0148038 0.000889795 0.0179026 0.0128959 1.61578e-08 5.00592e-08 3.62523e-08 0.0005 1.46608e-07 
134 1 0.0464303 0.0190279 0.0158352 0.000630058 0.0219053 0.00155646 -3.53329e-06 1.37982e-05 -2.23648e-09 0.0005 1.46608e-07 
137 1 0.0238948 0.0168123 0.00667048 -1.55927e-14 -3.19687e-14 -1.0479e-13 2.38228e-21 5.29396e-23 -2.11758e-22 0.0005 1.46608e-07 
142 1 0.0470176 0.01787 0.0060864 -3.12457e-15 -1.7466e-14 -1.20236e-13 -4.67853e-21 5.29396e-23 2.11758e-22 0.0005 1.46608e-07 
146 1 0.0390565 0.0200205 0.00592023 -3.93913e-15 1.88501e-14 -9.32082e-14 6.90001e-20 1.11173e-20 -8.47033e-22 0.0005 1.46608e-07 
149 1 0.0766607 0.0190533 0.00580856 -9.19841e-15 5.49351e-14 2.11158e-13 1.50216e-21 -1.3182e-20 2.32934e-21 0.0005 1.46608e-07 
159 1 0.0779397 0.0194308 0.00576583 6.39317e-15 -3.81178e-14 -1.46468e-13 1.26148e-19 4.73809e-20 -6.56451e-21 0.0005 1.46608e-07 
160 1 0.0480227 0.0148505 0.0110679 0.000373998 -0.000925546 0.0191142 2.55104e-09 6.56376e-09 2.25859e-08 0.0005 1.46608e-07 
163 1 0.0424878 0.0188132 0.00581899 -4.51498e-15 1.30449e-14 7.16622e-14 2.64698e-23 -2.64698e-22 0 0.0005 1.46608e-07 
165 1 0.0920805 0.0205253 0.0059177 -7.84797e-15 -7.28946e-14 1.85342e-13 -7.94093e-23 0 0 0.0005 1.46608e-07 
174 1 0.0418319 0.0147881 0.0118695 7.04353e-05 0.00114975 0.021753 -8.09129e-10 1.19151e-08 4.36775e-09 0.0005 1.46608e-07 
182 1 0.0405159 0.0188297 0.0156441 0.00229645 0.0168792 0.000395483 -3.75704e-09 3.1835e-08 6.99284e-09 0.0005 1.46608e-07 
187 1 0.102423 0.0196788 0.00582979 1.50283e-15 2.26697e-15 -1.78455e-14 4.14517e-20 -1.49554e-20 1.69407e-21 0.0005 1.46608e-07 
189 1 0.0446459 0.023138 0.010268 0.000612142 -0.00615056 -0.0181053 -2.21862e-09 -1.32194e-08 -1.13706e-08 0.0005 1.46608e-07 
193 1 0.377408 0.0175318 0.00840183 2.82693e-05 -0.000583748 0.00103199 1.13296e-10 -5.0012e-08 8.80875e-09 0.0005 1.46608e-07 
195 1 0.0507369 0.0203921 0.00594173 -5.72612e-15 -2.04835e-14 -3.07615e-13 -1.5948e-21 7.94093e-23 0 0.0005 1.46608e-07 
198 1 0.0408801 0.0170364 0.0153082 0.00015462 0.0185182 0.0101579 3.05477e-10 1.04273e-08 -6.82979e-09 0.0005 1.46608e-07 
201 1 0.0440263 0.0170728 0.00623272 2.29591e-16 -6.63852e-16 -3.64347e-15 -2.64698e-22 0 0 0.0005 1.46608e-07 
209 1 0.0461504 0.0203108 0.0156071 0.000133345 0.0213536 -0.00595383 -1.28132e-09 2.41604e-09 -1.2537e-08 0.0005 1.46608e-07 
213 1 0.0515727 0.0223667 0.0142235 0.00166786 0.00977219 -0.0133992 -1.23529e-08 1.87555e-08 -3.6191e-08 0.0005 1.46608e-07 
215 1 0.0529293 0.0167792 0.0151769 0.000119406 0.0181849 0.0118093 -5.76688e-10 1.29415e-08 -5.42996e-09 0.0005 1.46608e-07 
221 1 0.059059 0.0180876 0.00593586 7.18596e-15 -1.49144e-14 -1.83491e-13 2.31611e-22 -3.97047e-22 0 0.0005 1.46608e-07 
223 1 0.0491515 0.0178629 0.00736125 0.000119191 -0.0212327 0.0051409 -1.13049e-09 -1.51824e-09 1.12317e-08 0.0005 1.46608e-07 
226 1 0.0316007 0.0183082 0.00603438 1.32157e-14 -4.47525e-14 -1.09991e-13 -5.52954e-20 -1.05879e-21 -7.41154e-21 0.0005 1.46608e-07 
227 1 0.0341216 0.0202861 0.0155523 0.00135801 0.0167559 -0.00606693 3.61762e-09 -1.36564e-08 -3.95154e-09 0.0005 1.46608e-07 
229 1 0.0215463 0.0196109 0.00592744 -1.81457e-14 8.1435e-15 -1.66091e-13 0 0 0 0.0005 1.46608e-07 
240 1 0.0512391 0.0230906 0.0127731 6.09176e-05 0.00723512 -0.0205651 -7.75291e-10 -9.11498e-09 -7.08752e-09 0.0005 1.46608e-07 
242 1 0.0501597 0.0220357 0.00842078 -0.000312702 -0.0138454 -0.0179589 -5.67972e-10 -5.78774e-09 4.78051e-09 0.0005 1.46608e-07 
245 1 0.050611 0.0231086 0.0103492 0.000413873 -0.00626398 -0.0193151 -2.27673e-09 -1.26114e-08 -3.39509e-09 0.0005 1.46608e-07 
246 1 0.0242602 0.0201274 0.00583803 -1.07575e-14 -1.73217e-15 1.75368e-13 1.24408e-21 2.04148e-21 2.11758e-22 0.0005 1.46608e-07 
256 1 0.0357152 0.0148318 0.0123196 0.000538713 0.00280102 0.0171706 4.02687e-09 1.30315e-08 -5.98801e-09 0.0005 1.46608e-07 
257 1 0.027111 0.0233438 0.0120943 0.000591418 0.00250433 -0.0195064 -4.57688e-09 -7.88624e-09 -1.89592e-08 0.0005 1.46608e-07 
258 1 0.0324719 0.022848 0.00938537 -4.32273e-05 -0.0100483 -0.0191005 3.74664e-09 -1.27519e-08 9.26947e-10 0.0005 1.46608e-07 
270 1 0.043311 0.0185856 0.00722149 0.000547562 -0.0190788 0.00301553 -4.36534e-09 -1.1427e-08 1.19109e-08 0.0005 1.46608e-07 
273 1 0.0371638 0.0187263 0.00573865 3.81297e-15 -1.81854e-14 8.99486e-14 1.63782e-20 5.77041e-21 6.35275e-22 0.0005 1.46608e-07 
274 1 0.0328558 0.0191954 0.00572294 8.77533e-16 5.06752e-15 -1.96346e-14 1.46378e-20 0 4.23516e-22 0.0005 1.46608e-07 
277 1 0.0544031 0.0154514 0.0092961 9.53635e-05 -0.0116512 0.0182761 -3.5219e-10 7.40392e-09 8.92756e-09 0.0005 1.46608e-07 
279 1 0.0386134 0.0230858 0.0100633 0.000643593 -0.00665517 -0.0175507 -2.03017e-08 -7.84901e-09 -6.08124e-11 0.0005 1.46608e-07 
280 1 0.052442 0.0190075 0.0157814 0.000106849 0.0216528 0.000781996 -1.26286e-09 5.31953e-09 -1.07451e-08 0.0005 1.46608e-07 
281 1 0.0520312 0.0209456 0.0153285 0.000867912 0.0217913 -0.00923199 -2.23559e-08 -6.48694e-08 6.73569e-08 0.0005 1.46608e-07 
283 1 0.0457143 0.0220472 0.0146434 0.000432744 0.0152173 -0.0142535 -1.3615e-09 -2.43025e-09 -1.16114e-08 0.0005 1.46608e-07 
291 1 0.0350698 0.0188001 0.00572051 -7.08931e-15 -4.06767e-14 1.57632e-13 -2.44978e-20 7.72918e-21 8.47033e-22 0.0005 1.46608e-07 
293 1 0.0315077 0.0193596 0.00724174 0.000105486 -0.0219146 -0.00259257 -5.63172e-10 -4.30252e-09 1.0693e-08 0.0005 1.46608e-07 
296 1 0.0387957 0.0233098 0.0108883 0.00104197 -0.00236834 -0.013737 1.33776e-09 5.55242e-09 -1.50482e-08 0.0005 1.46608e-07 
298 1 0.0427725 0.0162686 0.00823116 0.00121612 -0.012795 0.012333 -9.80126e-09 -1.13711e-08 2.16207e-08 0.0005 1.46608e-07 
