ITEM: TIMESTEP
48400000
ITEM: NUMBER OF ATOMS
88
ITEM: BOX BOUNDS ff ff ff
-0.02 0.43
-0.02 0.06
-0.02 0.07
ITEM: ATOMS id type x y z vx vy vz fx fy fz radius mass 
1 1 0.0387146 0.0187573 0.00575718 -8.68226e-15 7.85671e-14 2.00898e-13 8.02696e-21 1.79995e-21 -2.11758e-22 0.0005 1.46608e-07 
2 1 0.0462204 0.0219987 0.0146654 0.000332499 0.0156446 -0.0146302 3.63311e-08 2.33077e-07 -6.69519e-08 0.0005 1.46608e-07 
3 1 0.0656942 0.0197559 0.0057542 -1.34769e-15 3.97353e-14 -1.45083e-13 6.5612e-21 -1.05879e-22 -2.11758e-22 0.0005 1.46608e-07 
8 1 0.102543 0.017821 0.00581645 -9.78494e-16 -4.3526e-15 -1.20042e-13 -1.91906e-22 2.64698e-23 0 0.0005 1.46608e-07 
9 1 0.0387828 0.0214812 0.00622724 -2.7097e-19 1.0538e-18 -5.70759e-18 -8.27181e-25 -4.96308e-23 0 0.0005 1.46608e-07 
14 1 0.0494564 0.0169999 0.00770813 0.00422946 -0.00473261 0.00111847 3.47428e-08 2.16516e-07 -1.51593e-07 0.0005 1.46608e-07 
18 1 0.0815251 0.0188155 0.00575115 1.78642e-20 7.25055e-21 -2.82648e-20 0 0 0 0.0005 1.46608e-07 
26 1 0.10448 0.0180949 0.00580371 1.49807e-14 2.23671e-14 -1.76075e-13 -1.32349e-21 2.41404e-20 8.47033e-22 0.0005 1.46608e-07 
28 1 0.0563632 0.0208549 0.00754196 0.000929473 -0.0146249 -0.00698782 6.47507e-09 5.6245e-09 2.38192e-08 0.0005 1.46608e-07 
32 1 0.0458896 0.0168235 0.00626774 -4.52647e-15 -2.52972e-14 -1.74151e-13 -6.68362e-22 6.61744e-22 -2.11758e-22 0.0005 1.46608e-07 
34 1 0.057335 0.017914 0.0058854 1.46597e-15 3.96062e-15 9.33125e-14 4.2122e-19 -1.84997e-19 1.05879e-21 0.0005 1.46608e-07 
38 1 0.0609866 0.0154137 0.00927473 0.000343054 -0.00769084 0.0118287 -2.79479e-07 -2.49315e-08 2.16919e-07 0.0005 1.46608e-07 
46 1 0.136461 0.0187737 0.0058834 1.99637e-15 3.14399e-15 -2.90523e-14 2.96859e-20 -2.71845e-20 -1.05879e-21 0.0005 1.46608e-07 
48 1 0.0663193 0.0148 0.011973 0.00123943 0.000989628 0.0146751 -7.03853e-09 1.17841e-08 -2.5814e-08 0.0005 1.46608e-07 
54 1 0.064303 0.0192381 0.00572672 3.49502e-15 -1.65668e-14 -2.82398e-13 1.00089e-20 -1.85288e-22 2.11758e-22 0.0005 1.46608e-07 
56 1 0.0830207 0.0197197 0.00608582 -1.58244e-14 -4.43644e-14 1.90571e-13 -4.68515e-21 -8.47033e-22 -4.23516e-22 0.0005 1.46608e-07 
59 1 0.0793161 0.0192087 0.00581236 1.53478e-14 5.18471e-14 2.1969e-13 4.79897e-20 -1.09055e-20 -2.11758e-22 0.0005 1.46608e-07 
64 1 0.0170063 0.0201419 0.00601043 1.30004e-14 5.26056e-15 -1.0734e-13 -3.24255e-20 3.69518e-20 -2.5411e-21 0.0005 1.46608e-07 
65 1 0.0632091 0.0196192 0.00574818 4.07559e-15 5.47603e-14 -1.51836e-13 3.56283e-20 1.16467e-21 1.69407e-21 0.0005 1.46608e-07 
66 1 0.0448733 0.0164686 0.00634571 -2.66685e-17 -1.42064e-16 -9.79123e-16 -3.70577e-22 0 0 0.0005 1.46608e-07 
68 1 0.0684478 0.021134 0.00773817 0.000142996 -0.0188721 -0.011552 -7.76668e-10 -1.02977e-08 8.06741e-09 0.0005 1.46608e-07 
70 1 0.0576234 0.0232448 0.0123596 0.000271438 0.00453921 -0.0202804 -6.45728e-09 -7.81694e-09 -1.47857e-08 0.0005 1.46608e-07 
74 1 0.0506423 0.0220821 0.00847553 0.000500595 -0.0157599 -0.0178149 -1.57469e-08 -4.78039e-08 -4.7569e-08 0.0005 1.46608e-07 
82 1 0.0517226 0.0231469 0.0126618 0.000172565 0.00674923 -0.0208025 -4.14557e-09 -9.98094e-09 -7.41392e-09 0.0005 1.46608e-07 
83 1 0.0694495 0.0233289 0.0117052 0.000420863 0.00270646 -0.022031 -9.75157e-09 -9.72644e-09 -7.13989e-09 0.0005 1.46608e-07 
86 1 0.0745131 0.0200179 0.0058526 -8.96443e-15 -5.06234e-14 2.04293e-13 -3.06388e-20 -1.47648e-19 -3.79047e-20 0.0005 1.46608e-07 
88 1 0.0357086 0.0161117 0.00660683 -4.47373e-15 2.81869e-14 7.4918e-14 -2.1594e-19 -3.35637e-20 2.11758e-22 0.0005 1.46608e-07 
89 1 0.061617 0.0194189 0.0057813 -4.35448e-15 -1.94152e-14 -1.3904e-13 3.52842e-20 -8.17916e-21 2.11758e-22 0.0005 1.46608e-07 
90 1 0.0521504 0.0221766 0.0144916 0.00154481 0.00944743 -0.0100522 4.31609e-07 1.03134e-06 -4.17816e-07 0.0005 1.46608e-07 
93 1 0.0623344 0.0207258 0.00750734 0.00205929 -0.012293 -0.0042031 -1.14249e-08 -4.88944e-08 -6.15871e-09 0.0005 1.46608e-07 
100 1 0.0720983 0.0150047 0.0129454 0.00122358 0.00594054 0.0159336 5.35075e-10 1.58827e-08 -2.34364e-09 0.0005 1.46608e-07 
106 1 0.0439552 0.0161318 0.00656318 1.95461e-16 -2.75166e-15 -2.89972e-15 -2.24993e-22 0 0 0.0005 1.46608e-07 
107 1 0.0601683 0.015015 0.012821 0.000666339 0.00391302 0.0219318 2.33454e-06 -7.78916e-06 -1.70054e-05 0.0005 1.46608e-07 
108 1 0.0711317 0.0180422 0.0156282 0.000597977 0.0193944 0.00392851 -3.95405e-09 1.39589e-08 -7.84681e-09 0.0005 1.46608e-07 
109 1 0.0590304 0.0184998 0.0157353 0.000275961 0.0205059 0.00220791 -1.3498e-09 7.95365e-09 -9.74386e-09 0.0005 1.46608e-07 
112 1 0.0638565 0.0178382 0.00590305 1.11848e-14 2.74977e-14 2.17556e-13 -3.4686e-19 1.11252e-19 4.44692e-21 0.0005 1.46608e-07 
113 1 0.0569791 0.0228946 0.00953367 0.000239489 -0.00934728 -0.0192275 -1.17938e-09 -1.257e-08 -7.50004e-10 0.0005 1.46608e-07 
121 1 0.0525815 0.0207546 0.0154385 -9.85904e-05 0.0180172 -0.00598981 -1.23425e-08 -2.5506e-08 -3.75387e-09 0.0005 1.46608e-07 
124 1 0.0607121 0.0186881 0.00591167 -5.33324e-15 -2.31781e-14 -1.66014e-13 6.21378e-20 -4.16899e-20 3.81165e-21 0.0005 1.46608e-07 
125 1 0.0546072 0.0148478 0.0105683 0.000363277 -0.00486982 0.0152101 5.45732e-09 3.28695e-08 -3.06578e-08 0.0005 1.46608e-07 
126 1 0.0286258 0.0183498 0.00592583 -1.94471e-14 3.16462e-18 -2.28119e-13 -1.85288e-22 9.26812e-20 2.11758e-22 0.0005 1.46608e-07 
127 1 0.0862115 0.0201056 0.00585272 2.60293e-15 -1.48764e-14 1.99836e-13 1.8595e-21 -5.691e-22 0 0.0005 1.46608e-07 
129 1 0.0430023 0.0155007 0.00912158 0.000731186 -0.00722022 0.0109555 -4.83437e-09 -9.2972e-11 3.93441e-08 0.0005 1.46608e-07 
132 1 0.059437 0.017025 0.0153147 0.000192199 0.0194663 0.0113909 -8.53713e-10 1.2964e-08 -7.86026e-09 0.0005 1.46608e-07 
134 1 0.0557197 0.0179883 0.00741814 8.94945e-05 -0.0223866 0.00339622 -7.43629e-11 6.63464e-10 9.92812e-09 0.0005 1.46608e-07 
137 1 0.0238948 0.0168123 0.00667048 -1.55934e-14 -3.19676e-14 -1.04791e-13 -4.94985e-21 -2.85874e-21 1.69407e-21 0.0005 1.46608e-07 
142 1 0.0470176 0.01787 0.0060864 -3.12785e-15 -1.74654e-14 -1.20236e-13 -2.94476e-21 -7.94093e-23 0 0.0005 1.46608e-07 
146 1 0.0388539 0.0197419 0.00587248 -2.82605e-15 1.34607e-14 -6.65672e-14 -1.17857e-20 -7.41154e-22 4.23516e-22 0.0005 1.46608e-07 
149 1 0.0766607 0.0190533 0.00580856 -9.18122e-15 5.49328e-14 2.11159e-13 1.99317e-20 1.64113e-21 -4.23516e-22 0.0005 1.46608e-07 
159 1 0.0779397 0.0194308 0.00576583 6.35932e-15 -3.8104e-14 -1.46473e-13 -3.77459e-20 -1.13291e-20 1.48231e-21 0.0005 1.46608e-07 
160 1 0.0606097 0.0149413 0.0104793 0.000327607 -0.00378904 0.0196913 -1.4907e-09 9.37302e-09 9.49294e-09 0.0005 1.46608e-07 
163 1 0.0424878 0.0188132 0.00581899 -4.51473e-15 1.30454e-14 7.16621e-14 0 0 0 0.0005 1.46608e-07 
165 1 0.0920805 0.0205253 0.0059177 -7.84799e-15 -7.28946e-14 1.85342e-13 1.38966e-22 0 0 0.0005 1.46608e-07 
174 1 0.0653662 0.0173328 0.00850015 -2.94496e-05 7.6354e-05 0.000619311 -5.30373e-09 2.28396e-08 -2.726e-08 0.0005 1.46608e-07 
182 1 0.0530102 0.0185699 0.0157672 0.000259501 0.0206615 0.00209191 -1.09585e-09 7.45419e-09 -9.83965e-09 0.0005 1.46608e-07 
187 1 0.102423 0.0196788 0.00582979 1.53511e-15 2.26353e-15 -1.78432e-14 1.81318e-20 3.89106e-21 1.90582e-21 0.0005 1.46608e-07 
189 1 0.0453636 0.0157749 0.00687326 2.78859e-17 -5.64637e-16 -6.90363e-16 -1.58819e-22 2.11758e-22 0 0.0005 1.46608e-07 
193 1 0.377398 0.0174994 0.00840954 -2.09657e-06 0.000113462 -0.00144909 -9.1199e-10 6.44662e-08 -5.52685e-08 0.0005 1.46608e-07 
195 1 0.0507369 0.0203921 0.00594173 -5.72723e-15 -2.04836e-14 -3.07615e-13 1.19114e-21 -4.36751e-22 0 0.0005 1.46608e-07 
198 1 0.0535126 0.0167516 0.0151214 0.000103164 0.0183267 0.0121566 -1.06932e-09 1.11322e-08 -6.18385e-09 0.0005 1.46608e-07 
201 1 0.0440263 0.0170728 0.00623272 2.29403e-16 -6.63851e-16 -3.64347e-15 -1.32349e-23 0 0 0.0005 1.46608e-07 
209 1 0.0586161 0.020579 0.0155617 0.00252269 0.0111742 -0.00366102 3.08348e-08 -1.18142e-07 5.14795e-08 0.0005 1.46608e-07 
213 1 0.065025 0.0185105 0.015788 0.000676742 0.0115957 0.00218332 -5.82461e-10 -6.51784e-09 -1.10067e-08 0.0005 1.46608e-07 
215 1 0.0824671 0.0205532 0.00623389 -9.5232e-15 -2.67156e-14 1.14756e-13 5.29396e-23 0 0 0.0005 1.46608e-07 
221 1 0.059059 0.0180876 0.00593586 7.1946e-15 -1.49097e-14 -1.83491e-13 -1.82046e-20 -8.73503e-21 0 0.0005 1.46608e-07 
223 1 0.0617529 0.0181469 0.00740088 -0.000199622 -0.0226006 0.00267833 -3.94757e-10 -8.23838e-10 1.09664e-08 0.0005 1.46608e-07 
226 1 0.0316007 0.0183082 0.00603438 1.3175e-14 -4.47339e-14 -1.10004e-13 3.86459e-21 -1.19643e-20 5.29396e-21 0.0005 1.46608e-07 
227 1 0.047368 0.0172817 0.0154386 0.00256276 0.0130213 0.0046257 5.62132e-07 -1.97558e-06 1.81113e-06 0.0005 1.46608e-07 
229 1 0.0215463 0.0196109 0.00592744 -1.81495e-14 8.1435e-15 -1.66091e-13 2.38228e-22 0 0 0.0005 1.46608e-07 
240 1 0.0649535 0.0177043 0.00586377 -5.98011e-15 -1.47724e-14 -1.16641e-13 1.11173e-21 5.29396e-23 0 0.0005 1.46608e-07 
242 1 0.0623985 0.0186635 0.00586235 -4.35281e-15 -1.94144e-14 -1.3904e-13 1.32349e-23 -1.08526e-21 2.11758e-22 0.0005 1.46608e-07 
245 1 0.06347 0.0233585 0.0117852 6.07369e-05 0.00227467 -0.017888 -3.30564e-09 -3.64527e-08 4.81853e-08 0.0005 1.46608e-07 
246 1 0.0242602 0.0201274 0.00583803 -1.07574e-14 -1.73385e-15 1.75368e-13 0 5.19304e-21 0 0.0005 1.46608e-07 
256 1 0.0483907 0.0148377 0.0114758 0.000218419 0.000721528 0.0203857 -6.13845e-10 1.18262e-08 5.94881e-09 0.0005 1.46608e-07 
257 1 0.0398956 0.0229871 0.0132963 -0.0244139 -0.118222 -0.0529943 0.00758758 0.156121 0.0602251 0.0005 1.46608e-07 
258 1 0.0450493 0.0229388 0.00975823 0.000174759 -0.00851264 -0.0197049 -8.07164e-09 1.5415e-08 3.87252e-08 0.0005 1.46608e-07 
270 1 0.0504712 0.0179279 0.00611076 -3.69951e-15 -1.32326e-14 -1.98725e-13 4.08958e-21 1.05879e-22 0 0.0005 1.46608e-07 
273 1 0.0371638 0.0187263 0.00573865 3.81198e-15 -1.81981e-14 8.9946e-14 -7.35397e-20 2.1864e-20 7.83505e-21 0.0005 1.46608e-07 
274 1 0.0328558 0.0191954 0.00572294 8.76073e-16 5.06752e-15 -1.96346e-14 4.49986e-22 0 0 0.0005 1.46608e-07 
277 1 0.044465 0.0204317 0.00594645 -2.77583e-15 2.53474e-14 -8.03084e-14 -4.69812e-19 -2.95932e-20 8.89385e-21 0.0005 1.46608e-07 
279 1 0.0481144 0.0150752 0.0128609 0.000155721 0.00642755 0.0220712 9.08788e-10 1.24352e-08 -2.36246e-09 0.0005 1.46608e-07 
280 1 0.0660681 0.018771 0.00577597 -5.07517e-16 2.41099e-15 4.1093e-14 5.9557e-23 3.44107e-22 0 0.0005 1.46608e-07 
281 1 0.0829947 0.0213806 0.00646753 -3.01199e-16 2.90518e-15 -1.31097e-14 -4.72419e-20 -6.40569e-21 0 0.0005 1.46608e-07 
283 1 0.0583876 0.0213678 0.0150367 0.000471575 0.0160211 -0.0113105 -3.98242e-09 6.69881e-09 -1.59789e-08 0.0005 1.46608e-07 
291 1 0.0350698 0.0188001 0.00572051 -7.07508e-15 -4.0676e-14 1.57633e-13 -5.57454e-20 1.42407e-20 1.48231e-21 0.0005 1.46608e-07 
293 1 0.0440594 0.0196689 0.00722 0.000441656 -0.0208541 -0.00336195 2.30256e-07 -4.90741e-07 -8.54984e-07 0.0005 1.46608e-07 
296 1 0.0667523 0.0199335 0.00579279 3.61245e-16 -9.53912e-15 3.48306e-14 -6.45796e-20 -2.2764e-21 0 0.0005 1.46608e-07 
298 1 0.0554021 0.0168902 0.00778989 0.00227755 -0.00596329 0.00356877 -1.57562e-08 -3.05632e-08 -7.68941e-09 0.0005 1.46608e-07 
