ITEM: TIMESTEP
63000000
ITEM: NUMBER OF ATOMS
88
ITEM: BOX BOUNDS ff ff ff
-0.02 0.43
-0.02 0.06
-0.02 0.07
ITEM: ATOMS id type x y z vx vy vz fx fy fz radius mass 
1 1 0.0387146 0.0187573 0.00575718 -8.66847e-15 7.85697e-14 2.00898e-13 -6.61744e-24 -1.05879e-22 -2.11758e-22 0.0005 1.46608e-07 
2 1 0.0515454 0.0203376 0.00592249 1.06509e-14 2.65878e-14 3.50778e-13 2.54818e-19 -7.26331e-20 -1.90582e-21 0.0005 1.46608e-07 
3 1 0.0657504 0.019873 0.00578573 -1.3606e-15 3.97329e-14 -1.45084e-13 -2.94311e-21 2.75286e-21 1.05879e-21 0.0005 1.46608e-07 
8 1 0.102543 0.017821 0.00581645 -9.79525e-16 -4.35255e-15 -1.20042e-13 5.16161e-22 6.61744e-23 0 0.0005 1.46608e-07 
9 1 0.0387828 0.0214812 0.00622724 -2.7653e-19 1.05622e-18 -5.70904e-18 -1.15805e-23 -3.47416e-23 0 0.0005 1.46608e-07 
14 1 0.191105 0.0203026 0.00593314 -1.12288e-14 -4.38002e-14 9.73361e-14 -3.97047e-22 4.23516e-22 2.11758e-22 0.0005 1.46608e-07 
18 1 0.0818948 0.0186113 0.00577358 1.28079e-10 4.69656e-12 -1.00778e-11 1.33526e-13 5.64051e-15 -1.0476e-14 0.0005 1.46608e-07 
26 1 0.10448 0.0180949 0.00580371 1.49894e-14 2.2362e-14 -1.76075e-13 -9.42324e-21 2.41934e-20 1.48231e-21 0.0005 1.46608e-07 
28 1 0.0710203 0.0205755 0.015539 0.00309727 0.0125663 -0.00431761 -6.06392e-06 9.45421e-06 -3.34585e-06 0.0005 1.46608e-07 
32 1 0.0458896 0.0168235 0.00626774 -4.52645e-15 -2.52971e-14 -1.74151e-13 -2.83888e-21 -7.94093e-22 4.23516e-22 0.0005 1.46608e-07 
34 1 0.0564645 0.0213699 0.00635393 -8.35779e-16 -1.50194e-14 3.21091e-14 -2.50139e-20 -3.07049e-21 4.02341e-21 0.0005 1.46608e-07 
38 1 0.0761498 0.0231061 0.0127217 0.000546132 0.00462161 -0.0128034 3.29229e-10 -1.77367e-08 3.19868e-09 0.0005 1.46608e-07 
46 1 0.136461 0.0187737 0.0058834 2.01258e-15 3.14915e-15 -2.90506e-14 -2.55301e-20 4.15576e-21 -1.90582e-21 0.0005 1.46608e-07 
48 1 0.0819493 0.0176386 0.00599936 -1.34126e-10 -4.80238e-12 1.05538e-11 -1.53444e-13 -6.19004e-15 1.18808e-14 0.0005 1.46608e-07 
54 1 0.0642637 0.0197348 0.005762 -1.62386e-15 4.68993e-14 -1.71253e-13 4.50152e-21 5.29396e-23 0 0.0005 1.46608e-07 
56 1 0.0830166 0.0197662 0.00609629 -1.58214e-14 -4.43633e-14 1.90571e-13 0 2.64698e-22 0 0.0005 1.46608e-07 
59 1 0.0793161 0.0192087 0.00581236 1.50261e-14 5.19446e-14 2.19689e-13 6.38583e-20 -2.35052e-20 1.05879e-21 0.0005 1.46608e-07 
64 1 0.0170063 0.0201419 0.00601043 1.30429e-14 5.24619e-15 -1.07335e-13 4.84397e-20 -4.23516e-20 4.44692e-21 0.0005 1.46608e-07 
65 1 0.0631785 0.0197006 0.00577672 -2.8448e-19 2.2268e-18 -7.00636e-18 2.64698e-23 0 0 0.0005 1.46608e-07 
66 1 0.0448733 0.0164686 0.00634571 -2.65255e-17 -1.41606e-16 -9.78809e-16 -1.58819e-22 0 0 0.0005 1.46608e-07 
68 1 0.0805886 0.0189533 0.00578393 -6.32583e-15 -2.12942e-14 -9.02494e-14 2.41801e-20 -5.71747e-21 -2.11758e-22 0.0005 1.46608e-07 
70 1 0.0723624 0.0152613 0.0134068 0.00141916 0.00509324 0.00876611 -4.57809e-09 3.31827e-09 2.31236e-08 0.0005 1.46608e-07 
74 1 0.061222 0.0168907 0.00614021 -3.75764e-17 -1.09022e-15 -2.01516e-15 7.94093e-23 -2.0117e-21 1.48231e-21 0.0005 1.46608e-07 
82 1 0.0632257 0.0161184 0.0066832 -5.03406e-19 -6.61384e-18 -8.45086e-18 0 0 0 0.0005 1.46608e-07 
83 1 0.085142 0.0184899 0.00574639 3.31512e-15 -1.89273e-14 2.54251e-13 1.36981e-21 2.24993e-22 0 0.0005 1.46608e-07 
86 1 0.0829173 0.0222111 0.0066532 2.53099e-15 -1.23268e-14 5.62304e-14 -2.76609e-21 -2.11758e-22 0 0.0005 1.46608e-07 
88 1 0.0357086 0.0161117 0.00660683 -4.52936e-15 2.81837e-14 7.49159e-14 -9.36236e-20 -2.38228e-21 -5.0822e-21 0.0005 1.46608e-07 
89 1 0.0616493 0.0194572 0.00577495 -3.50369e-15 -1.56489e-14 -1.12063e-13 -3.30872e-21 2.62051e-21 -2.11758e-22 0.0005 1.46608e-07 
90 1 0.0661091 0.0161599 0.0146521 0.000380637 0.0154047 0.0131304 -1.30958e-09 1.21096e-08 -3.48603e-09 0.0005 1.46608e-07 
93 1 0.077072 0.0203041 0.0155996 0.000235155 0.0197793 -0.00634709 -1.01138e-09 2.88861e-09 -1.20153e-08 0.0005 1.46608e-07 
100 1 0.082878 0.0187758 0.00585421 -1.80221e-14 -5.05043e-14 2.1694e-13 8.57621e-21 -5.82335e-22 4.23516e-22 0.0005 1.46608e-07 
106 1 0.0439552 0.0161318 0.00656318 1.95497e-16 -2.75147e-15 -2.89951e-15 -2.91168e-22 0 0 0.0005 1.46608e-07 
107 1 0.0782305 0.0203396 0.00602091 5.95688e-15 1.64684e-14 -3.08218e-14 -1.85288e-22 -1.58819e-22 2.11758e-22 0.0005 1.46608e-07 
108 1 0.0819591 0.0196502 0.00598149 7.03888e-16 2.42873e-15 -1.05198e-14 6.67038e-20 -8.21622e-20 -1.65171e-20 0.0005 1.46608e-07 
109 1 0.0732237 0.018766 0.005768 1.04139e-14 -5.92027e-14 -1.63383e-13 -5.8207e-20 -6.03511e-21 -2.11758e-21 0.0005 1.46608e-07 
112 1 0.0634468 0.0187379 0.00581012 -7.91983e-20 -6.29279e-19 -7.45762e-18 -3.97047e-23 -5.29396e-23 0 0.0005 1.46608e-07 
113 1 0.0683032 0.0181933 0.00578444 2.27298e-15 4.38982e-15 1.52498e-13 -4.86382e-21 2.43522e-21 0 0.0005 1.46608e-07 
121 1 0.0604733 0.0175454 0.00603533 9.18159e-15 -1.90545e-14 -2.34434e-13 1.10511e-21 7.80858e-22 -2.11758e-22 0.0005 1.46608e-07 
124 1 0.0607457 0.0189765 0.00587035 -3.5069e-15 -1.56489e-14 -1.12062e-13 2.45507e-21 7.94093e-23 -2.11758e-22 0.0005 1.46608e-07 
125 1 0.0629728 0.0169073 0.00612312 -1.10427e-19 -4.63447e-18 -8.46585e-18 0 -1.05879e-22 0 0.0005 1.46608e-07 
126 1 0.0286258 0.0183498 0.00592583 -1.94459e-14 1.88469e-16 -2.28119e-13 -1.05879e-22 -4.14149e-21 0 0.0005 1.46608e-07 
127 1 0.0862115 0.0201056 0.00585272 2.60545e-15 -1.48761e-14 1.99836e-13 -1.98523e-21 0 0 0.0005 1.46608e-07 
129 1 0.056325 0.0187365 0.00729892 9.60924e-05 -0.0217295 0.00118515 -9.01468e-10 -3.61025e-09 1.13064e-08 0.0005 1.46608e-07 
132 1 0.0620309 0.0174701 0.00604048 -6.35642e-17 -3.08615e-16 -2.22046e-15 -8.20563e-22 0 8.47033e-22 0.0005 1.46608e-07 
134 1 0.0638561 0.0173717 0.00596215 -7.31618e-17 -1.77776e-16 -1.41227e-15 7.94093e-23 -2.11758e-22 0 0.0005 1.46608e-07 
137 1 0.0238948 0.0168123 0.00667048 -1.55895e-14 -3.1969e-14 -1.04791e-13 6.40569e-21 -1.58819e-22 -8.47033e-22 0.0005 1.46608e-07 
142 1 0.042543 0.0198089 0.00582143 -3.19174e-16 2.72689e-15 -8.63707e-15 3.97047e-23 0 0 0.0005 1.46608e-07 
146 1 0.0388539 0.0197419 0.00587248 -2.83201e-15 1.34604e-14 -6.65669e-14 -1.17129e-21 -1.05879e-22 0 0.0005 1.46608e-07 
149 1 0.0766607 0.0190533 0.00580856 -9.17729e-15 5.49371e-14 2.11158e-13 -1.98457e-20 -4.87044e-21 -3.59989e-21 0.0005 1.46608e-07 
159 1 0.0779381 0.019417 0.00576935 1.61331e-15 -9.73326e-15 -3.73594e-14 7.94093e-23 -1.05879e-22 0 0.0005 1.46608e-07 
160 1 0.0612868 0.0181352 0.0059709 -5.19448e-15 -2.31825e-14 -1.66017e-13 -2.91168e-22 0 0 0.0005 1.46608e-07 
163 1 0.0424897 0.0188104 0.00581963 5.43115e-16 -1.57603e-15 -8.63357e-15 -1.32349e-23 5.29396e-23 2.11758e-22 0.0005 1.46608e-07 
165 1 0.0920805 0.0205253 0.0059177 -7.84776e-15 -7.28946e-14 1.85342e-13 0 0 0 0.0005 1.46608e-07 
174 1 0.0803289 0.0175498 0.00839571 -2.01054e-05 0.00129032 -0.000613838 -6.12845e-10 -1.56089e-08 -1.00268e-08 0.0005 1.46608e-07 
182 1 0.0557526 0.0175354 0.00596499 -7.05935e-15 -9.53764e-15 -1.36148e-13 -2.15861e-20 1.32349e-22 8.47033e-22 0.0005 1.46608e-07 
187 1 0.102423 0.0196788 0.00582979 1.51622e-15 2.2665e-15 -1.78444e-14 2.67345e-20 -6.19393e-21 1.69407e-21 0.0005 1.46608e-07 
189 1 0.0453636 0.0157749 0.00687326 2.76769e-17 -5.64705e-16 -6.89785e-16 1.58819e-22 1.05879e-22 0 0.0005 1.46608e-07 
193 1 0.377412 0.0175499 0.00839653 1.51378e-05 -0.00107704 0.000804868 4.40475e-10 -3.03909e-08 1.31025e-09 0.0005 1.46608e-07 
195 1 0.0505919 0.0207133 0.00592302 6.75284e-15 1.89379e-14 2.6288e-13 -6.29319e-21 1.72054e-22 2.11758e-22 0.0005 1.46608e-07 
198 1 0.0642197 0.0165122 0.00632159 -5.93015e-17 -8.6824e-16 -1.10941e-15 2.64698e-23 5.29396e-23 1.05879e-22 0.0005 1.46608e-07 
201 1 0.0440263 0.0170728 0.00623272 2.29435e-16 -6.63924e-16 -3.64325e-15 1.32349e-23 0 0 0.0005 1.46608e-07 
209 1 0.0736869 0.0161152 0.00841788 -0.00072763 -0.0172064 0.0129149 -1.03325e-08 2.49281e-08 3.26763e-08 0.0005 1.46608e-07 
213 1 0.0791793 0.0149718 0.010139 0.00142345 -0.003784 0.013875 -2.81144e-09 1.14536e-08 -8.55466e-09 0.0005 1.46608e-07 
215 1 0.0824647 0.0205875 0.00624167 -1.14349e-14 -3.20916e-14 1.3783e-13 2.93815e-21 -3.07049e-21 -4.23516e-22 0.0005 1.46608e-07 
221 1 0.059688 0.0190243 0.00588436 8.11155e-15 -1.68475e-14 -2.07264e-13 1.19114e-21 -1.50878e-21 0 0.0005 1.46608e-07 
223 1 0.0629334 0.0178902 0.00594379 -3.60454e-19 -6.76884e-20 -7.52497e-18 0 1.05879e-22 0 0.0005 1.46608e-07 
226 1 0.0316007 0.0183082 0.00603438 1.31489e-14 -4.47276e-14 -1.1001e-13 -4.70633e-20 3.01755e-20 -1.75759e-20 0.0005 1.46608e-07 
227 1 0.0594515 0.0171503 0.00602742 5.00274e-15 -1.054e-14 -1.2915e-13 -6.61744e-24 -2.19699e-21 2.11758e-22 0.0005 1.46608e-07 
229 1 0.0215463 0.0196109 0.00592744 -1.81494e-14 8.13654e-15 -1.66091e-13 5.29396e-23 0 0 0.0005 1.46608e-07 
240 1 0.0643235 0.0182572 0.00582605 -6.31405e-19 -1.06861e-18 -7.6386e-18 0 0 0 0.0005 1.46608e-07 
242 1 0.0623557 0.0187459 0.00585217 -4.35009e-15 -1.94154e-14 -1.3904e-13 0 0 0 0.0005 1.46608e-07 
245 1 0.0779426 0.0165868 0.0150465 0.000552583 0.0163515 0.0105357 -3.52374e-09 1.81686e-08 -1.59989e-09 0.0005 1.46608e-07 
246 1 0.0242602 0.0201274 0.00583803 -1.07572e-14 -1.73291e-15 1.75368e-13 3.50725e-21 0 2.11758e-22 0.0005 1.46608e-07 
256 1 0.0625173 0.01954 0.00734666 0.000280094 -0.0210026 -0.00225034 -2.5065e-09 -5.70542e-09 1.09618e-08 0.0005 1.46608e-07 
257 1 0.0529074 0.0210781 0.0152926 0.000222157 0.0186436 -0.00975044 -4.79756e-10 9.361e-10 -1.23589e-08 0.0005 1.46608e-07 
258 1 0.0583909 0.022769 0.0136846 -0.000188463 0.0127329 -0.0170488 3.34494e-08 -3.62064e-07 3.45082e-07 0.0005 1.46608e-07 
270 1 0.0504712 0.0179279 0.00611076 -3.6995e-15 -1.32327e-14 -1.98725e-13 -8.43724e-22 -1.32349e-22 0 0.0005 1.46608e-07 
273 1 0.0371638 0.0187263 0.00573865 3.7944e-15 -1.82111e-14 8.99442e-14 -1.5109e-19 -1.927e-20 2.5411e-21 0.0005 1.46608e-07 
274 1 0.0328558 0.0191954 0.00572294 8.76271e-16 5.06752e-15 -1.96346e-14 0 0 0 0.0005 1.46608e-07 
277 1 0.044465 0.0204317 0.00594645 -2.83283e-15 2.53184e-14 -8.03154e-14 9.24722e-19 8.51268e-20 -7.19978e-21 0.0005 1.46608e-07 
279 1 0.061785 0.0165321 0.00807752 -0.00094739 -0.0192845 0.0146183 -2.34067e-09 -4.46576e-09 -4.30075e-08 0.0005 1.46608e-07 
280 1 0.066033 0.0188309 0.00577203 2.18239e-15 -1.0376e-14 -1.76838e-13 1.14283e-20 4.49986e-21 -2.11758e-22 0.0005 1.46608e-07 
281 1 0.0833983 0.0210192 0.00634375 2.36842e-14 -4.02507e-14 1.90901e-13 9.8997e-21 -1.36584e-20 -3.59989e-21 0.0005 1.46608e-07 
283 1 0.0635038 0.0173958 0.00847649 -4.3285e-05 0.00157154 -0.000818141 -2.06874e-10 3.33242e-08 -3.67893e-08 0.0005 1.46608e-07 
291 1 0.0350698 0.0188001 0.00572051 -7.13379e-15 -4.06777e-14 1.5763e-13 -3.60915e-20 7.46448e-21 4.23516e-22 0.0005 1.46608e-07 
293 1 0.0571805 0.0220909 0.00841021 0.000863758 -0.0138341 -0.0125519 -1.09043e-08 -2.49944e-08 -1.56154e-08 0.0005 1.46608e-07 
296 1 0.0667523 0.0199335 0.00579279 3.42044e-16 -9.53908e-15 3.48308e-14 3.30641e-20 1.58819e-22 -2.11758e-22 0.0005 1.46608e-07 
298 1 0.0698213 0.0233548 0.0110841 0.00161953 -0.00103848 -0.0139597 -3.59599e-10 -8.75314e-09 2.17513e-08 0.0005 1.46608e-07 
