ITEM: TIMESTEP
12000000
ITEM: NUMBER OF ATOMS
107
ITEM: BOX BOUNDS ff ff ff
-0.02 0.43
-0.02 0.06
-0.02 0.07
ITEM: ATOMS id type x y z vx vy vz fx fy fz radius mass 
1 1 0.0245443 0.0157692 0.0158198 -0.0175906 -0.0124525 -0.0158841 -1.02376e-07 -2.94335e-07 1.94375e-07 0.0005 1.46608e-07 
2 1 0.0241325 0.0224741 0.0154954 -0.00101772 0.000686541 -0.00121159 -1.23406e-07 1.18983e-07 -1.64317e-08 0.0005 1.46608e-07 
3 1 0.0333762 0.0225189 0.0141281 0.00116018 0.0108813 -0.014704 -8.73233e-09 1.14248e-09 -2.21775e-08 0.0005 1.46608e-07 
8 1 0.0346773 0.0174324 0.0153521 9.13524e-05 0.0195858 0.00803111 -7.76734e-10 8.1708e-09 -9.00415e-09 0.0005 1.46608e-07 
9 1 0.0436892 0.020408 0.00596775 2.40147e-15 -2.04487e-14 6.4884e-14 9.64162e-21 4.76456e-22 0 0.0005 1.46608e-07 
14 1 0.0230264 0.0161987 0.0149115 0.00410554 0.00398048 0.00253633 2.67061e-08 -1.18252e-07 -9.75766e-08 0.0005 1.46608e-07 
17 1 0.0208739 0.0240255 0.0130173 -0.0018619 -0.000136524 0.00164711 -8.85359e-06 4.01231e-06 2.64088e-06 0.0005 1.46608e-07 
18 1 0.08261 0.0191091 0.00590955 -1.80672e-14 -5.04839e-14 2.16941e-13 -2.73036e-20 -1.01326e-19 -1.77877e-20 0.0005 1.46608e-07 
19 1 0.0198272 0.0214444 0.00791511 0.000638928 -0.015866 -0.00992133 -1.66294e-09 -2.05264e-08 2.10084e-09 0.0005 1.46608e-07 
20 1 0.0191383 0.0142456 0.0125626 0.00105944 0.00104859 -0.00187398 -2.59504e-07 -2.80375e-07 7.11003e-07 0.0005 1.46608e-07 
26 1 0.0234613 0.0230926 0.0150577 -0.000558687 0.000315676 0.00118781 1.67305e-06 -1.06228e-06 6.71629e-06 0.0005 1.46608e-07 
28 1 0.0242585 0.0152256 0.00948546 0.0001328 -0.0109677 0.0189661 -4.07986e-10 7.35737e-09 9.52063e-09 0.0005 1.46608e-07 
32 1 0.0450541 0.0174935 0.00619215 -3.09653e-15 -1.74694e-14 -1.20236e-13 -1.30099e-20 1.93229e-21 0 0.0005 1.46608e-07 
34 1 0.0340244 0.0202366 0.0155423 0.00219615 0.0137066 -0.00519417 -4.18848e-09 1.21241e-08 -6.83702e-09 0.0005 1.46608e-07 
38 1 0.0261476 0.0223391 0.00877149 0.000394728 -0.01176 -0.0139682 2.13407e-10 -2.01163e-08 1.02531e-08 0.0005 1.46608e-07 
40 1 0.0200336 0.0221442 0.00849565 4.86553e-05 -0.013027 -0.0147843 -2.85139e-10 -1.14846e-08 3.77845e-09 0.0005 1.46608e-07 
46 1 0.0280657 0.020014 0.0156879 0.000311818 0.0196738 -0.00531969 -1.96732e-09 8.02208e-09 -1.10694e-08 0.0005 1.46608e-07 
48 1 0.0313044 0.0192357 0.00720884 8.3961e-05 -0.0220222 -0.00208177 -4.0205e-10 -4.38174e-09 1.09404e-08 0.0005 1.46608e-07 
54 1 0.0303175 0.0154203 0.00918782 0.0030245 -0.00526363 0.0109218 -8.90516e-09 -1.21529e-08 1.66904e-08 0.0005 1.46608e-07 
56 1 0.0362178 0.0151403 0.00969439 0.000662716 -0.00801379 0.0160799 -2.98411e-09 9.76637e-09 1.19507e-08 0.0005 1.46608e-07 
59 1 0.0325747 0.0232844 0.0105161 0.00229076 -0.00357494 -0.016892 3.56483e-07 5.20484e-07 -1.68219e-07 0.0005 1.46608e-07 
64 1 0.0245323 0.0165181 0.0151573 -0.00215136 0.00688408 0.00571713 -2.24898e-07 -3.24957e-07 6.73881e-08 0.0005 1.46608e-07 
65 1 0.0309796 0.017442 0.00751769 0.000849844 -0.0175722 0.00620751 -4.40929e-07 -7.86182e-08 1.73945e-07 0.0005 1.46608e-07 
66 1 0.0369047 0.017175 0.00761927 0.000174332 -0.017531 0.00741234 6.25519e-08 1.57202e-07 -5.94189e-08 0.0005 1.46608e-07 
68 1 0.0320908 0.0223141 0.00861822 0.000332023 -0.0137782 -0.0152203 -2.17905e-09 -1.41379e-08 -2.6754e-10 0.0005 1.46608e-07 
70 1 0.026372 0.0228642 0.00944231 0.00133356 -0.00746744 -0.0135989 4.90014e-09 1.29807e-08 1.80963e-08 0.0005 1.46608e-07 
74 1 0.0200015 0.0207132 0.00755171 -9.16804e-05 -0.0191366 -0.00774608 -5.38935e-10 -1.07308e-08 4.96384e-09 0.0005 1.46608e-07 
82 1 0.015363 0.0229165 0.0136933 0.0050839 0.001908 -0.00378389 -3.91941e-09 4.36183e-09 1.46864e-08 0.0005 1.46608e-07 
83 1 0.0330878 0.023228 0.0126592 0.00165059 0.00393506 -0.0166322 -2.0934e-08 -8.44877e-09 -2.92224e-08 0.0005 1.46608e-07 
86 1 0.0307416 0.0167501 0.00783344 0.000985723 -0.0127923 0.00761402 -9.71076e-07 2.46861e-07 5.06368e-07 0.0005 1.46608e-07 
88 1 0.0184902 0.0148561 0.0130178 0.00548383 0.00214287 0.00226135 -1.80506e-06 7.53292e-07 -1.41582e-06 0.0005 1.46608e-07 
89 1 0.0341731 0.0194723 0.0158069 0.00242307 0.0125315 -0.000488936 -1.04222e-08 4.18106e-09 2.00551e-09 0.0005 1.46608e-07 
90 1 0.0249436 0.0216116 0.016068 -0.011322 0.0132939 -0.00809107 -4.38257e-09 3.34867e-09 -4.66021e-09 0.0005 1.46608e-07 
91 1 0.0217631 0.0143349 0.0138543 -0.00134903 -0.00215467 0.00273375 -1.26426e-07 -1.0852e-07 -1.58603e-07 0.0005 1.46608e-07 
93 1 0.0270975 0.0232223 0.0126694 -0.0338282 0.14237 -0.14771 -0.142428 -0.589071 -0.0666381 0.0005 1.46608e-07 
96 1 0.0327908 0.0233558 0.0115888 2.12463e-05 0.00239472 -0.0220842 1.83374e-08 -1.47394e-09 2.79741e-08 0.0005 1.46608e-07 
100 1 0.0359486 0.0148906 0.0107138 0.00193265 -0.000458531 0.0129312 -2.28329e-08 -3.03222e-08 2.2449e-07 0.0005 1.46608e-07 
101 1 0.0218372 0.0233726 0.0147178 -0.00268862 0.00996593 -0.00461962 -1.8828e-07 -6.49603e-07 4.34944e-06 0.0005 1.46608e-07 
106 1 0.0218053 0.0233377 0.0127087 0.00104366 -0.000297016 -0.0013756 -5.1581e-07 2.57485e-06 2.11864e-06 0.0005 1.46608e-07 
107 1 0.023472 0.0149952 0.0128955 0.00067347 0.00749033 0.0191768 -4.5741e-10 3.92865e-08 9.59745e-08 0.0005 1.46608e-07 
108 1 0.0343181 0.0188149 0.0157642 0.00112867 0.0178733 0.00268705 2.27481e-09 -8.57203e-09 -9.80716e-09 0.0005 1.46608e-07 
109 1 0.0273843 0.022469 0.0140012 3.96713e-05 0.013413 -0.0172932 -1.24179e-09 -6.77894e-09 -1.03158e-08 0.0005 1.46608e-07 
110 1 0.0228216 0.0213097 0.0153443 0.00547137 -0.0014602 -0.000822354 -1.8543e-07 1.09583e-06 -7.25761e-07 0.0005 1.46608e-07 
112 1 0.0184576 0.0146235 0.0119352 -0.000378125 0.000522301 -0.000879551 1.34215e-07 -1.45393e-07 3.92506e-08 0.0005 1.46608e-07 
113 1 0.0213693 0.0227524 0.0140887 0.00244453 0.00469816 -0.00382997 7.40043e-07 -9.18011e-07 -3.13697e-06 0.0005 1.46608e-07 
117 1 0.021789 0.0215876 0.0151497 -0.000988496 0.0103488 -0.00734388 -3.61191e-07 6.07577e-06 -2.52244e-06 0.0005 1.46608e-07 
121 1 0.0182249 0.0154959 0.0141646 0.00367124 0.0033212 0.0045831 -2.34121e-08 -1.32593e-07 -2.04869e-07 0.0005 1.46608e-07 
124 1 0.0318776 0.0215517 0.00795023 0.00126238 -0.0103987 -0.00873577 4.68834e-09 5.91371e-08 4.20516e-08 0.0005 1.46608e-07 
125 1 0.0171921 0.0230871 0.013415 0.0202612 0.00934685 -0.0288097 2.9848e-07 -1.17096e-07 -8.37522e-07 0.0005 1.46608e-07 
126 1 0.0286258 0.0183498 0.00592583 -1.94458e-14 1.85298e-16 -2.28119e-13 -5.29396e-23 6.37425e-21 0 0.0005 1.46608e-07 
127 1 0.0323536 0.0228433 0.00940255 0.000242281 -0.0102927 -0.0193242 -3.44998e-09 -1.40112e-08 -2.93769e-09 0.0005 1.46608e-07 
129 1 0.0202154 0.0144032 0.0139015 0.000225107 0.000699428 -0.000467595 -1.97993e-07 -1.34804e-07 9.72193e-07 0.0005 1.46608e-07 
132 1 0.0232775 0.0225849 0.0142163 0.0023957 -0.0030964 0.00315115 -2.71195e-06 -3.58039e-06 5.34408e-06 0.0005 1.46608e-07 
134 1 0.0220426 0.0236417 0.0136388 0.000440325 0.000538203 -0.000399922 1.21962e-06 1.10329e-06 -4.10373e-06 0.0005 1.46608e-07 
137 1 0.0225155 0.022125 0.0147219 0.00843309 0.00736859 -0.00470573 4.69462e-06 4.42336e-06 -4.53369e-06 0.0005 1.46608e-07 
142 1 0.0356343 0.0147858 0.0120671 0.000355815 0.00164363 0.016739 2.88325e-09 3.79401e-08 2.95681e-08 0.0005 1.46608e-07 
143 1 0.0228497 0.0230412 0.0134365 0.000407792 0.000249681 -0.000246524 7.39399e-07 2.15842e-07 -4.14433e-06 0.0005 1.46608e-07 
146 1 0.0174819 0.0141277 0.0132995 0.00152977 -0.00183332 0.00373468 2.65614e-07 -1.90552e-08 -2.3983e-07 0.0005 1.46608e-07 
149 1 0.035165 0.0156215 0.0139979 -0.000217307 0.0114454 0.0195859 9.199e-09 1.03961e-08 -6.57997e-09 0.0005 1.46608e-07 
159 1 0.0189149 0.0172522 0.00759653 0.00128455 -0.0142038 0.00721873 1.12342e-08 5.41921e-08 -1.68877e-08 0.0005 1.46608e-07 
160 1 0.0261693 0.02153 0.00805774 1.97454e-05 -0.0175148 -0.0131081 -3.59788e-10 -9.25983e-09 5.6737e-09 0.0005 1.46608e-07 
161 1 0.0212082 0.0231423 0.0132654 0.00267854 0.000684348 -0.00482086 -2.04852e-06 8.97705e-06 -1.38343e-07 0.0005 1.46608e-07 
163 1 0.0137242 0.0220426 0.0158177 0.00992423 0.0156138 -0.0103931 1.77035e-09 -6.60582e-12 -9.6672e-09 0.0005 1.46608e-07 
165 1 0.0163375 0.0191772 0.0159429 0.000485263 0.0209296 -0.000528077 -2.37739e-10 7.61513e-10 -1.43519e-08 0.0005 1.46608e-07 
171 1 0.020725 0.0226974 0.00918821 0.000374178 -0.0075691 -0.0120429 9.3757e-07 3.86466e-06 7.66097e-08 0.0005 1.46608e-07 
174 1 0.0184547 0.0138963 0.013297 0.00193242 0.000253009 -0.00193009 4.06434e-07 1.80902e-07 -6.281e-07 0.0005 1.46608e-07 
180 1 0.0235645 0.0218599 0.0149477 -0.00154502 0.00455724 -0.00482907 -6.02735e-07 1.19783e-06 -8.23755e-07 0.0005 1.46608e-07 
182 1 0.0163395 0.0232609 0.0129221 0.00407547 0.00117413 -0.00369979 7.54169e-09 1.34953e-08 5.12783e-08 0.0005 1.46608e-07 
187 1 0.0474618 0.0192773 0.00593797 4.69598e-15 -1.01664e-14 -1.0571e-13 1.42924e-19 -1.68348e-20 8.47033e-21 0.0005 1.46608e-07 
189 1 0.0227442 0.0235723 0.014348 0.000745589 0.000759112 0.000947342 -2.48245e-07 7.24173e-08 -1.63856e-06 0.0005 1.46608e-07 
193 1 0.0285429 0.0179875 0.015698 0.000917737 0.016323 0.00624611 1.19803e-08 -4.95343e-08 -4.12241e-08 0.0005 1.46608e-07 
194 1 0.020961 0.0141149 0.0132991 0.000388181 0.00102083 -0.00144446 2.01922e-07 4.00776e-08 5.03919e-08 0.0005 1.46608e-07 
195 1 0.023941 0.0159008 0.0146381 0.00378118 0.0024585 0.00375869 4.43932e-07 5.15434e-08 1.29783e-07 0.0005 1.46608e-07 
198 1 0.0222392 0.0227322 0.0139759 0.00137742 0.00176557 -0.00119104 2.86704e-06 -3.6521e-06 2.94866e-06 0.0005 1.46608e-07 
201 1 0.044179 0.0167154 0.00630741 2.01317e-15 -5.80619e-15 -3.18945e-14 2.54904e-20 7.04096e-21 4.23516e-22 0.0005 1.46608e-07 
209 1 0.0236674 0.0147551 0.0119579 0.000751265 0.00242835 0.0191087 -6.85753e-09 1.39129e-08 2.33501e-08 0.0005 1.46608e-07 
213 1 0.0292357 0.0154593 0.0138294 -4.78957e-05 0.0107036 0.0205339 -7.83189e-10 1.10484e-08 -5.12379e-09 0.0005 1.46608e-07 
215 1 0.0300011 0.0148541 0.01065 0.000186398 -0.00412674 0.0174893 -4.15731e-09 2.65352e-08 -4.55664e-09 0.0005 1.46608e-07 
216 1 0.0172308 0.0155604 0.0142519 0.00367712 0.00439578 0.00486759 1.23778e-08 -1.60248e-07 -1.00452e-07 0.0005 1.46608e-07 
221 1 0.0585019 0.0190661 0.00583452 1.13093e-14 -2.34722e-14 -2.88773e-13 7.94093e-21 3.9837e-21 0 0.0005 1.46608e-07 
223 1 0.0267706 0.0233781 0.0114354 0.000184407 0.000445069 -0.0219054 -8.88794e-10 -1.05587e-08 -4.95098e-09 0.0005 1.46608e-07 
226 1 0.0192707 0.0144197 0.0135422 -0.000381529 0.00623437 -0.00588955 -2.19943e-08 5.46788e-07 -5.02032e-07 0.0005 1.46608e-07 
227 1 0.0176841 0.0240457 0.0130617 -6.94546e-05 -0.000347683 -2.57966e-05 8.18943e-10 1.16464e-08 3.90703e-10 0.0005 1.46608e-07 
229 1 0.0307283 0.0166516 0.00660365 9.41867e-15 -3.20999e-14 -7.90362e-14 -2.32934e-21 2.79521e-20 -1.52466e-20 0.0005 1.46608e-07 
240 1 0.0289409 0.0161653 0.0146918 0.000666513 0.013303 0.0132835 1.88493e-08 -5.52795e-08 -5.43648e-08 0.0005 1.46608e-07 
242 1 0.0276679 0.0216838 0.0148705 0.00155372 0.0124517 -0.0113582 1.01837e-07 -1.40888e-06 1.719e-06 0.0005 1.46608e-07 
243 1 0.0200116 0.0140268 0.0129978 0.000382041 0.000685878 -0.00105118 4.23048e-07 7.29609e-07 -1.50864e-07 0.0005 1.46608e-07 
245 1 0.0278773 0.0209905 0.0153597 0.001326 0.0109062 -0.00463735 9.31208e-09 -2.86576e-07 7.75985e-08 0.0005 1.46608e-07 
246 1 0.0242602 0.0201274 0.00583803 -1.07556e-14 -1.726e-15 1.75368e-13 0 -4.96308e-24 0 0.0005 1.46608e-07 
256 1 0.0176388 0.0147214 0.0125103 0.00342829 0.00136892 0.00685469 -1.08201e-08 -8.3354e-08 -1.81673e-07 0.0005 1.46608e-07 
257 1 0.020288 0.0238188 0.0138012 0.0379295 -0.00572875 0.021826 0 0 -1.43822e-06 0.0005 1.46608e-07 
258 1 0.0213197 0.0231196 0.010039 0.000978638 -0.00432881 -0.0137629 1.27118e-07 -3.71544e-07 -7.83961e-07 0.0005 1.46608e-07 
268 1 0.00427012 -0.00705601 0.000609871 -0.00146315 -0.170949 -0.932499 0 0 -1.43822e-06 0.0005 1.46608e-07 
269 1 0.0232819 0.0154188 0.014061 0.00380888 0.00262534 0.004132 -3.73183e-08 -5.74613e-08 -2.27472e-08 0.0005 1.46608e-07 
270 1 0.019194 0.0152843 0.0140386 0.00294824 0.0166648 -0.0238717 -3.60096e-07 4.3599e-07 -5.15117e-07 0.0005 1.46608e-07 
273 1 0.018008 0.0161632 0.0148771 0.00337375 0.00467676 0.00345089 -1.34962e-07 -2.07969e-07 -1.22924e-07 0.0005 1.46608e-07 
274 1 0.0192367 0.0188888 0.00718674 0.000427084 -0.0190904 -0.000461853 -3.66538e-09 5.61297e-08 -2.8692e-09 0.0005 1.46608e-07 
277 1 0.0316955 0.0207528 0.00756385 0.000614055 -0.0166797 -0.00585643 -1.87068e-09 -1.97901e-09 9.95061e-09 0.0005 1.46608e-07 
279 1 0.0208459 0.0234591 0.0117159 0.00271019 -0.00157573 -0.00378864 4.67778e-08 -5.45528e-08 3.91364e-08 0.0005 1.46608e-07 
280 1 0.0297597 0.0147771 0.0115252 0.00162117 0.00119139 0.016875 -1.11832e-08 1.10428e-08 2.82233e-08 0.0005 1.46608e-07 
281 1 0.0295237 0.0149546 0.0125653 0.000247361 0.00550054 0.0204882 -2.18182e-09 1.19574e-08 3.94677e-09 0.0005 1.46608e-07 
283 1 0.0161262 0.0235617 0.0138516 0.00807369 0.00422363 -0.00371979 9.56116e-08 1.42748e-07 4.44284e-08 0.0005 1.46608e-07 
291 1 0.03293 0.0193179 0.00575787 -8.26915e-15 -4.74524e-14 1.83895e-13 -2.51463e-21 4.76456e-22 0 0.0005 1.46608e-07 
293 1 0.0204409 0.0231102 0.00997407 0.000685021 -0.00606995 -0.0150965 -1.11447e-06 3.19406e-06 5.29756e-06 0.0005 1.46608e-07 
296 1 0.0197848 0.0241103 0.01294 0.00398454 0.0013238 -0.000347288 2.34891e-06 9.48759e-08 1.04322e-06 0.0005 1.46608e-07 
297 1 0.0170139 0.0162443 0.0149485 0.00361329 0.00559817 0.00388172 -6.50619e-08 -1.42408e-07 -1.04256e-07 0.0005 1.46608e-07 
298 1 0.0187107 0.0240948 0.012934 -1.67737e-06 -1.23564e-05 -5.02094e-06 1.36708e-09 1.15867e-08 -1.50373e-09 0.0005 1.46608e-07 
