ITEM: TIMESTEP
69000000
ITEM: NUMBER OF ATOMS
88
ITEM: BOX BOUNDS ff ff ff
-0.02 0.43
-0.02 0.06
-0.02 0.07
ITEM: ATOMS id type x y z vx vy vz fx fy fz radius mass 
1 1 0.0387146 0.0187573 0.00575718 -8.67726e-15 7.85637e-14 2.00899e-13 3.09961e-20 0 1.05879e-21 0.0005 1.46608e-07 
2 1 0.0515454 0.0203376 0.00592249 1.06141e-14 2.65577e-14 3.50781e-13 3.53504e-20 -3.77194e-21 -6.35275e-22 0.0005 1.46608e-07 
3 1 0.0657625 0.0198039 0.00576669 -1.32108e-15 3.97318e-14 -1.45084e-13 0 0 0 0.0005 1.46608e-07 
8 1 0.102543 0.017821 0.00581645 -9.78717e-16 -4.3526e-15 -1.20042e-13 -1.35658e-22 -6.61744e-24 0 0.0005 1.46608e-07 
9 1 0.0387828 0.0214812 0.00622724 -2.73611e-19 1.0631e-18 -5.69892e-18 -3.06057e-23 3.97047e-23 0 0.0005 1.46608e-07 
14 1 0.191105 0.0203026 0.00593314 -1.12275e-14 -4.38009e-14 9.73359e-14 3.01755e-21 -3.17637e-22 2.11758e-22 0.0005 1.46608e-07 
18 1 0.0818976 0.0186296 0.00576906 6.35209e-15 2.15024e-14 9.1098e-14 -3.97047e-23 0 0 0.0005 1.46608e-07 
26 1 0.10448 0.0180949 0.00580371 1.50298e-14 2.23187e-14 -1.76077e-13 1.42937e-21 1.87935e-20 4.02341e-21 0.0005 1.46608e-07 
28 1 0.0770469 0.0194608 0.0158015 0.00112506 0.0169775 -0.00266201 -6.39489e-09 1.75802e-08 -1.13822e-08 0.0005 1.46608e-07 
32 1 0.0458896 0.0168235 0.00626774 -4.5284e-15 -2.52972e-14 -1.74151e-13 1.88597e-21 3.70577e-22 -2.11758e-22 0.0005 1.46608e-07 
34 1 0.0564645 0.0213699 0.00635393 -8.95158e-16 -1.50195e-14 3.21073e-14 3.00498e-20 -8.57621e-21 -2.96462e-21 0.0005 1.46608e-07 
38 1 0.0821483 0.0227033 0.01364 0.000104541 0.0108898 -0.0184954 -6.27141e-10 -6.54544e-09 -9.77906e-09 0.0005 1.46608e-07 
46 1 0.136461 0.0187737 0.0058834 2.18345e-15 3.03863e-15 -2.90506e-14 -2.10845e-19 7.24478e-20 -7.41154e-21 0.0005 1.46608e-07 
48 1 0.0819829 0.0176499 0.00599436 1.00304e-14 3.39564e-14 1.43854e-13 1.32349e-23 0 0 0.0005 1.46608e-07 
54 1 0.0652975 0.0207687 0.00603532 -1.12869e-15 3.25652e-14 -1.18914e-13 8.60268e-22 -1.58819e-22 0 0.0005 1.46608e-07 
56 1 0.0830166 0.0197662 0.00609629 -1.58214e-14 -4.43666e-14 1.90571e-13 0 0 0 0.0005 1.46608e-07 
59 1 0.0793161 0.0192087 0.00581236 1.52615e-14 5.18694e-14 2.19691e-13 7.60212e-20 -1.85288e-20 -1.48231e-21 0.0005 1.46608e-07 
64 1 0.0170063 0.0201419 0.00601043 1.30104e-14 5.25542e-15 -1.07339e-13 1.56939e-19 7.43801e-21 1.86347e-20 0.0005 1.46608e-07 
65 1 0.0643606 0.0210989 0.00615793 9.85075e-15 -6.28948e-14 2.05619e-13 -3.97047e-22 5.29396e-23 0 0.0005 1.46608e-07 
66 1 0.0448733 0.0164686 0.00634571 -2.63927e-17 -1.413e-16 -9.78715e-16 5.82335e-22 1.05879e-22 0 0.0005 1.46608e-07 
68 1 0.080527 0.019112 0.00575077 1.34777e-14 4.56303e-14 1.93312e-13 -1.78671e-21 -1.48231e-21 4.23516e-22 0.0005 1.46608e-07 
70 1 0.078105 0.0155722 0.0139907 0.000735512 0.0121885 0.016602 -8.42119e-09 1.6172e-08 1.03744e-08 0.0005 1.46608e-07 
74 1 0.0615774 0.0172559 0.00608456 -9.28675e-16 -4.1076e-15 -2.93969e-14 0 -2.11758e-22 0 0.0005 1.46608e-07 
82 1 0.063441 0.0163701 0.00647495 5.3841e-16 7.72089e-15 9.88641e-15 6.61744e-23 1.05879e-22 -2.11758e-22 0.0005 1.46608e-07 
83 1 0.085142 0.0184899 0.00574639 3.31509e-15 -1.89273e-14 2.54251e-13 -1.91244e-21 -3.57342e-22 0 0.0005 1.46608e-07 
86 1 0.0829173 0.0222111 0.0066532 2.53092e-15 -1.23276e-14 5.62302e-14 -2.51463e-21 1.00585e-21 2.11758e-22 0.0005 1.46608e-07 
88 1 0.0357086 0.0161117 0.00660683 -4.67102e-15 2.81701e-14 7.49125e-14 -1.68877e-20 3.5893e-20 -1.37643e-20 0.0005 1.46608e-07 
89 1 0.0618809 0.0199413 0.00582959 -6.17976e-16 -8.55969e-15 2.371e-14 9.92617e-24 -1.85288e-22 -2.11758e-22 0.0005 1.46608e-07 
90 1 0.072304 0.0150783 0.0131232 0.00129992 0.00387684 0.0125626 -4.75898e-10 -1.50531e-08 -4.16405e-08 0.0005 1.46608e-07 
93 1 0.0835941 0.0172353 0.0153701 -3.10637e-07 0.0153034 0.00834758 1.11092e-09 3.9932e-08 -1.90298e-08 0.0005 1.46608e-07 
100 1 0.0828881 0.0187784 0.00585566 -1.80128e-14 -5.05043e-14 2.16941e-13 3.17637e-22 -1.58819e-22 0 0.0005 1.46608e-07 
106 1 0.0439552 0.0161318 0.00656318 1.95429e-16 -2.75149e-15 -2.89952e-15 2.11758e-22 0 0 0.0005 1.46608e-07 
107 1 0.0782305 0.0203396 0.00602091 5.01069e-15 1.38528e-14 -2.59266e-14 -5.29396e-23 5.29396e-23 0 0.0005 1.46608e-07 
108 1 0.0819591 0.0196502 0.00598149 9.05685e-16 2.52415e-15 -1.04809e-14 7.46051e-20 4.15576e-20 1.73642e-20 0.0005 1.46608e-07 
109 1 0.0732237 0.018766 0.005768 1.03905e-14 -5.92249e-14 -1.63376e-13 -1.91866e-19 2.74756e-20 -2.24464e-20 0.0005 1.46608e-07 
112 1 0.0644815 0.0190744 0.00573853 7.97976e-16 -3.78212e-15 -6.44673e-14 0 0 0 0.0005 1.46608e-07 
113 1 0.0683453 0.0182317 0.00578271 2.60705e-17 4.58128e-17 1.63168e-15 2.64698e-23 1.32349e-22 0 0.0005 1.46608e-07 
121 1 0.0609817 0.0187588 0.00589337 -4.35106e-15 -1.94154e-14 -1.3904e-13 -3.30872e-22 -5.29396e-23 0 0.0005 1.46608e-07 
124 1 0.0609012 0.0197493 0.00575757 -5.19423e-15 -2.31833e-14 -1.66017e-13 0 0 0 0.0005 1.46608e-07 
125 1 0.0634974 0.0172463 0.00599641 6.74308e-16 1.66642e-15 1.31589e-14 1.98523e-23 -2.11758e-22 0 0.0005 1.46608e-07 
126 1 0.0286258 0.0183498 0.00592583 -1.9446e-14 1.84066e-16 -2.28119e-13 1.58819e-22 9.40153e-21 0 0.0005 1.46608e-07 
127 1 0.0862115 0.0201056 0.00585272 2.60593e-15 -1.4876e-14 1.99836e-13 -9.13207e-22 -8.07328e-22 0 0.0005 1.46608e-07 
129 1 0.0601285 0.017977 0.00598674 -1.0895e-14 2.26362e-14 2.78393e-13 -2.7469e-20 -2.35581e-21 -1.48231e-21 0.0005 1.46608e-07 
132 1 0.0626638 0.0179373 0.00595165 -7.36422e-15 -1.81923e-14 -1.43647e-13 -8.20563e-22 7.94093e-23 0 0.0005 1.46608e-07 
134 1 0.0644862 0.0176438 0.00589539 -5.98016e-15 -1.47718e-14 -1.16641e-13 1.72054e-22 0 0 0.0005 1.46608e-07 
137 1 0.0238948 0.0168123 0.00667048 -1.55916e-14 -3.19697e-14 -1.0479e-13 5.82335e-22 5.29396e-21 -1.69407e-21 0.0005 1.46608e-07 
142 1 0.042543 0.0198089 0.00582143 -2.32701e-16 1.98828e-15 -6.29696e-15 -2.97785e-23 0 0 0.0005 1.46608e-07 
146 1 0.0388539 0.0197419 0.00587248 -2.83186e-15 1.34605e-14 -6.65669e-14 4.69839e-22 0 0 0.0005 1.46608e-07 
149 1 0.0766607 0.0190533 0.00580856 -9.1789e-15 5.49343e-14 2.11159e-13 -7.35463e-20 -1.32349e-20 -1.69407e-21 0.0005 1.46608e-07 
159 1 0.0779381 0.019417 0.00576935 1.35778e-15 -8.18753e-15 -3.14257e-14 -1.32349e-22 5.29396e-23 4.23516e-22 0.0005 1.46608e-07 
160 1 0.0620021 0.0189487 0.00583492 7.38667e-16 3.31516e-15 2.36782e-14 -4.96308e-23 0 0 0.0005 1.46608e-07 
163 1 0.0424897 0.0188104 0.00581963 3.95977e-16 -1.14922e-15 -6.29428e-15 -2.97785e-23 0 2.11758e-22 0.0005 1.46608e-07 
165 1 0.0920805 0.0205253 0.0059177 -7.84828e-15 -7.28946e-14 1.85342e-13 -1.12497e-22 0 0 0.0005 1.46608e-07 
174 1 0.0803497 0.017493 0.00841876 2.30846e-05 0.000310034 0.000634122 1.85014e-10 -3.71019e-08 1.93691e-09 0.0005 1.46608e-07 
182 1 0.0557406 0.0175302 0.00596599 -5.62713e-15 -7.65413e-15 -1.0897e-13 -1.0527e-19 5.8882e-20 1.90582e-21 0.0005 1.46608e-07 
187 1 0.102423 0.0196788 0.00582979 1.54368e-15 2.2603e-15 -1.78429e-14 9.26442e-22 1.45584e-21 4.23516e-22 0.0005 1.46608e-07 
189 1 0.0453636 0.0157749 0.00687326 2.74692e-17 -5.64988e-16 -6.89883e-16 -5.29396e-23 -5.29396e-23 0 0.0005 1.46608e-07 
193 1 0.377406 0.0175425 0.00839478 0.00107789 -0.00100364 0.00147215 -2.58276e-08 -6.89165e-08 1.97384e-08 0.0005 1.46608e-07 
195 1 0.0505919 0.0207133 0.00592302 6.74629e-15 1.89381e-14 2.6288e-13 -1.30364e-21 1.85288e-22 0 0.0005 1.46608e-07 
198 1 0.0643736 0.0166453 0.00623285 -9.28194e-16 8.92626e-14 2.24983e-13 7.19647e-23 0 -2.11758e-22 0.0005 1.46608e-07 
201 1 0.0440263 0.0170728 0.00623272 2.29497e-16 -6.63921e-16 -3.64325e-15 1.19114e-22 0 0 0.0005 1.46608e-07 
209 1 0.0791617 0.0153627 0.00928088 0.000215956 -0.0110535 0.018121 -6.20481e-10 5.75493e-09 1.08119e-08 0.0005 1.46608e-07 
213 1 0.0810639 0.0181072 0.00595049 1.06441e-15 3.60321e-15 1.52614e-14 0 0 0 0.0005 1.46608e-07 
215 1 0.0824647 0.0205875 0.00624167 -1.14507e-14 -3.20834e-14 1.3783e-13 -4.17428e-20 5.45277e-21 -2.11758e-21 0.0005 1.46608e-07 
221 1 0.0595038 0.0223955 0.00675756 1.97457e-16 -1.67344e-15 4.05844e-15 1.03497e-19 5.50571e-21 -1.27055e-21 0.0005 1.46608e-07 
223 1 0.063626 0.0183177 0.00585415 -7.35957e-15 -1.81948e-14 -1.43647e-13 -7.94093e-23 8.73503e-22 -2.11758e-22 0.0005 1.46608e-07 
226 1 0.0316007 0.0183082 0.00603438 1.31769e-14 -4.47315e-14 -1.10005e-13 4.97632e-21 -7.19978e-21 3.59989e-21 0.0005 1.46608e-07 
227 1 0.0584979 0.0201946 0.00586451 2.95192e-16 4.87984e-15 -1.04434e-14 -7.27919e-22 0 0 0.0005 1.46608e-07 
229 1 0.0215463 0.0196109 0.00592744 -1.81494e-14 8.13654e-15 -1.66091e-13 0 0 0 0.0005 1.46608e-07 
240 1 0.0690612 0.017564 0.00598647 -5.56051e-17 5.67729e-16 1.49949e-15 0 -1.05879e-22 0 0.0005 1.46608e-07 
242 1 0.0636055 0.0197465 0.00578044 6.28592e-15 -4.01367e-14 1.31216e-13 -1.20437e-21 1.05879e-22 0 0.0005 1.46608e-07 
245 1 0.0850992 0.01512 0.00976407 0.00117081 -0.00547656 0.0119565 -4.04743e-09 2.07818e-08 -1.64043e-08 0.0005 1.46608e-07 
246 1 0.0242602 0.0201274 0.00583803 -1.07557e-14 -1.72315e-15 1.75368e-13 5.02926e-22 -2.06961e-21 0 0.0005 1.46608e-07 
256 1 0.0685352 0.0205263 0.00744272 0.000805224 -0.0122579 -0.00494702 8.36969e-09 -3.60896e-07 -7.89336e-08 0.0005 1.46608e-07 
257 1 0.0567438 0.01754 0.00591345 -9.84567e-15 -1.33738e-14 -1.90504e-13 -4.65868e-21 -9.79382e-22 2.11758e-22 0.0005 1.46608e-07 
258 1 0.061759 0.0163729 0.00651709 1.43498e-15 -1.63859e-14 -2.33812e-14 2.24993e-22 2.11758e-22 1.05879e-22 0.0005 1.46608e-07 
270 1 0.0504712 0.0179279 0.00611076 -3.6996e-15 -1.32327e-14 -1.98725e-13 -1.44922e-21 4.63221e-22 0 0.0005 1.46608e-07 
273 1 0.0371638 0.0187263 0.00573865 3.81376e-15 -1.81884e-14 8.9948e-14 1.07136e-20 7.19978e-21 8.47033e-22 0.0005 1.46608e-07 
274 1 0.0328558 0.0191954 0.00572294 8.76274e-16 5.06752e-15 -1.96346e-14 -1.32349e-23 0 0 0.0005 1.46608e-07 
277 1 0.044465 0.0204317 0.00594645 -2.93235e-15 2.53124e-14 -8.03136e-14 -2.1013e-19 -2.84285e-20 -1.05879e-21 0.0005 1.46608e-07 
279 1 0.0625324 0.0169121 0.00611939 -3.96508e-16 3.7049e-14 9.33836e-14 -7.84498e-21 3.17637e-22 -2.11758e-22 0.0005 1.46608e-07 
280 1 0.066033 0.0188309 0.00577203 2.1687e-15 -1.03792e-14 -1.76838e-13 -1.00221e-20 -3.91753e-21 0 0.0005 1.46608e-07 
281 1 0.0833983 0.0210192 0.00634375 2.36839e-14 -4.02461e-14 1.90902e-13 -4.79103e-21 1.85288e-21 4.23516e-22 0.0005 1.46608e-07 
283 1 0.0634862 0.0174884 0.00842758 -4.29652e-05 -0.00119868 0.000767425 -1.10035e-10 -2.7314e-09 -1.14669e-08 0.0005 1.46608e-07 
291 1 0.0350698 0.0188001 0.00572051 -7.0724e-15 -4.06791e-14 1.57633e-13 -1.50481e-20 7.04096e-21 8.47033e-22 0.0005 1.46608e-07 
293 1 0.0623373 0.0157218 0.00700852 1.39243e-15 -1.64069e-14 -2.3375e-14 -2.64698e-22 -1.05879e-22 2.11758e-22 0.0005 1.46608e-07 
296 1 0.0667607 0.0199247 0.00579031 -4.06364e-16 1.19615e-14 -4.36765e-14 -1.50679e-20 2.11758e-22 0 0.0005 1.46608e-07 
298 1 0.0762018 0.022599 0.013861 0.000469561 0.0103794 -0.0169085 -4.81601e-09 -9.06192e-10 -1.74041e-08 0.0005 1.46608e-07 
