ITEM: TIMESTEP
30000000
ITEM: NUMBER OF ATOMS
89
ITEM: BOX BOUNDS ff ff ff
-0.02 0.43
-0.02 0.06
-0.02 0.07
ITEM: ATOMS id type x y z vx vy vz fx fy fz radius mass 
1 1 0.0388307 0.0187336 0.00577146 -9.59113e-15 8.71867e-14 2.2285e-13 3.61286e-19 1.14349e-20 1.12232e-20 0.0005 1.46608e-07 
2 1 0.0290981 0.0147526 0.01146 0.00232607 -0.000271304 0.00856225 -5.59531e-07 -1.00578e-06 1.52495e-06 0.0005 1.46608e-07 
3 1 0.0490678 0.0210597 0.00769662 0.000200689 -0.0185444 -0.00967494 -3.31235e-10 -1.04669e-08 6.19433e-09 0.0005 1.46608e-07 
8 1 0.05329 0.0148231 0.0108359 0.00247561 -0.000956528 0.0148885 -3.20076e-08 -2.69288e-08 9.62313e-08 0.0005 1.46608e-07 
9 1 0.0436892 0.020408 0.00596775 2.40488e-15 -2.04492e-14 6.48837e-14 -9.58868e-21 -2.64698e-22 2.11758e-22 0.0005 1.46608e-07 
14 1 0.0321221 0.0233702 0.011499 0.000228025 0.00032881 -0.0217038 -3.19217e-09 -1.00368e-08 -8.5579e-09 0.0005 1.46608e-07 
18 1 0.08261 0.0191091 0.00590955 -1.81304e-14 -5.04987e-14 2.16933e-13 -2.29625e-20 1.53313e-19 3.62107e-20 0.0005 1.46608e-07 
26 1 0.103453 0.0178822 0.00580682 1.6915e-15 7.51612e-15 2.07276e-13 -2.41702e-21 2.42198e-21 0 0.0005 1.46608e-07 
28 1 0.0425455 0.0188252 0.00718878 0.002343 -0.0113435 0.00169989 3.5518e-08 -7.61814e-08 1.28732e-08 0.0005 1.46608e-07 
32 1 0.0458692 0.0166351 0.00629564 2.91135e-16 1.62423e-15 1.11821e-14 -5.75718e-22 -7.94093e-23 0 0.0005 1.46608e-07 
34 1 0.0572659 0.0174442 0.00591793 9.18155e-15 -1.90549e-14 -2.34434e-13 6.74979e-22 -2.64698e-22 2.11758e-22 0.0005 1.46608e-07 
38 1 0.0434061 0.022266 0.00857138 0.00180773 -0.0116997 -0.0119116 -2.32753e-07 -1.41794e-06 -1.13934e-06 0.0005 1.46608e-07 
46 1 0.0462402 0.0162929 0.0148275 0.000233625 0.0161998 0.0136732 -3.11057e-10 1.19653e-08 -4.22744e-09 0.0005 1.46608e-07 
48 1 0.0495218 0.0224701 0.00902975 0.000100795 -0.0121879 -0.0189956 -1.8361e-10 -1.12208e-08 4.79778e-09 0.0005 1.46608e-07 
54 1 0.0483308 0.0178859 0.00738045 0.000977212 -0.0196848 0.00337358 2.06258e-08 1.06714e-08 2.00971e-08 0.0005 1.46608e-07 
56 1 0.0509826 0.0217548 0.0148709 -0.000246608 0.0169609 -0.0100379 -5.19475e-09 -6.52815e-08 1.09298e-08 0.0005 1.46608e-07 
59 1 0.0793161 0.0192087 0.00581236 1.53386e-14 5.18953e-14 2.19679e-13 -2.13214e-20 -1.21761e-20 5.92923e-21 0.0005 1.46608e-07 
64 1 0.0170063 0.0201419 0.00601043 1.30314e-14 5.2583e-15 -1.07336e-13 -4.39134e-20 -6.75906e-20 -8.89385e-21 0.0005 1.46608e-07 
65 1 0.0632091 0.0196192 0.00574818 3.98329e-15 5.47611e-14 -1.51838e-13 -4.84662e-20 1.05879e-22 -1.27055e-21 0.0005 1.46608e-07 
66 1 0.0448873 0.0164493 0.00634816 -4.52774e-15 -2.52974e-14 -1.74151e-13 -1.33672e-21 3.97047e-22 0 0.0005 1.46608e-07 
68 1 0.050417 0.0231181 0.0126759 0.000107483 0.006841 -0.0208652 -1.05741e-09 -9.70443e-09 -7.21543e-09 0.0005 1.46608e-07 
70 1 0.0438971 0.0232628 0.0106913 -0.000475694 -0.00403559 -0.0208686 6.96854e-09 5.53521e-09 1.92865e-09 0.0005 1.46608e-07 
74 1 0.0323967 0.0232493 0.0125866 0.000972023 0.00575762 -0.0162459 2.21478e-09 -2.57969e-08 6.58706e-08 0.0005 1.46608e-07 
82 1 0.0333484 0.0200097 0.0156546 0.000465276 0.0185377 -0.00524028 -2.20451e-09 7.54622e-09 -1.36937e-08 0.0005 1.46608e-07 
83 1 0.0519093 0.0179185 0.0156497 0.000967195 0.017481 0.00371669 -9.2608e-09 2.62387e-08 -4.38446e-10 0.0005 1.46608e-07 
86 1 0.0487543 0.0195972 0.00723784 0.000415114 -0.0188579 -0.00320358 1.44224e-08 8.37641e-08 5.60305e-08 0.0005 1.46608e-07 
88 1 0.0357086 0.0161117 0.00660683 -4.5144e-15 2.81909e-14 7.49141e-14 1.49779e-19 3.18696e-20 -2.32934e-21 0.0005 1.46608e-07 
89 1 0.0523137 0.0161289 0.0146387 0.00160882 0.0100102 0.00804824 -7.02311e-09 5.07343e-08 3.46536e-08 0.0005 1.46608e-07 
90 1 0.0338288 0.0181261 0.0155934 0.000641506 0.0232314 0.00430035 -1.04182e-08 1.98812e-08 1.35645e-09 0.0005 1.46608e-07 
93 1 0.0447086 0.0226275 0.0139522 0.000321993 0.00623072 -0.00880379 -1.33633e-09 -1.1937e-08 1.48825e-08 0.0005 1.46608e-07 
96 1 0.0513888 0.0200465 0.0157145 0.00235506 0.0135792 -0.00432095 -2.25526e-07 -8.95068e-08 -3.228e-08 0.0005 1.46608e-07 
100 1 0.0536501 0.0155625 0.00908135 0.000488123 -0.011335 0.0165644 1.78031e-08 4.71781e-08 -3.24362e-08 0.0005 1.46608e-07 
106 1 0.0439552 0.0161318 0.00656318 1.95454e-16 -2.75166e-15 -2.89972e-15 3.04402e-22 0 0 0.0005 1.46608e-07 
107 1 0.0428578 0.0199889 0.00728107 0.00110032 -0.0190436 -0.00317034 -1.55301e-08 -2.7359e-08 -7.59437e-09 0.0005 1.46608e-07 
108 1 0.0528747 0.0149738 0.012559 0.00177361 0.00534122 0.0235691 -7.12075e-09 -1.6032e-08 4.00408e-08 0.0005 1.46608e-07 
109 1 0.0449242 0.0219321 0.0147238 0.00050895 0.0154631 -0.0137121 -3.37776e-09 1.35198e-10 -1.33358e-08 0.0005 1.46608e-07 
112 1 0.0390546 0.0214387 0.0149643 0.00046571 0.0163368 -0.0121998 -2.26613e-09 -7.38641e-10 -1.3411e-08 0.0005 1.46608e-07 
113 1 0.0395509 0.0191908 0.0157355 3.20155e-05 0.0219473 0.000382778 -3.2893e-10 2.90095e-09 -1.19232e-08 0.0005 1.46608e-07 
121 1 0.0405517 0.0155689 0.0139692 0.000313518 0.0123191 0.0167229 -1.20404e-09 1.19992e-08 -8.83056e-10 0.0005 1.46608e-07 
124 1 0.0500422 0.0233558 0.0113022 0.00336159 -0.00054405 -0.00906311 -6.56509e-07 -6.77515e-08 -4.35623e-07 0.0005 1.46608e-07 
125 1 0.0372344 0.0217551 0.00810648 0.00398141 0.00419622 0.00125158 1.39799e-08 3.93759e-08 8.70092e-08 0.0005 1.46608e-07 
126 1 0.0286258 0.0183498 0.00592583 -1.94461e-14 1.837e-16 -2.28118e-13 -1.85288e-22 -1.12408e-20 2.11758e-22 0.0005 1.46608e-07 
127 1 0.0507302 0.0223846 0.0142155 0.00269298 0.00454394 -0.00362745 5.76403e-09 -5.10696e-08 1.15793e-07 0.0005 1.46608e-07 
129 1 0.0256832 0.0228729 0.00944597 0.00176241 -0.00480642 -0.00954749 -9.74296e-09 -3.38374e-08 -5.50844e-08 0.0005 1.46608e-07 
132 1 0.0422488 0.0173812 0.00753887 0.000117303 -0.0201754 0.00793226 -3.72346e-10 -6.33149e-10 1.24271e-08 0.0005 1.46608e-07 
134 1 0.0417324 0.0157206 0.008827 0.000251324 -0.0128899 0.0164622 -1.30087e-09 4.61733e-09 1.12984e-08 0.0005 1.46608e-07 
137 1 0.0238948 0.0168123 0.00667048 -1.55922e-14 -3.19694e-14 -1.0479e-13 3.1499e-21 1.58819e-22 -6.35275e-22 0.0005 1.46608e-07 
142 1 0.0470176 0.01787 0.0060864 -3.12638e-15 -1.74649e-14 -1.20236e-13 -1.6087e-20 1.85288e-21 0 0.0005 1.46608e-07 
146 1 0.0390565 0.0200205 0.00592023 -3.95128e-15 1.88506e-14 -9.32076e-14 -1.62855e-20 -4.71162e-21 -2.11758e-22 0.0005 1.46608e-07 
149 1 0.0766607 0.0190533 0.00580856 -9.16662e-15 5.49342e-14 2.11159e-13 3.38879e-20 -7.94093e-21 6.77626e-21 0.0005 1.46608e-07 
159 1 0.0779397 0.0194308 0.00576583 6.51286e-15 -3.80803e-14 -1.46473e-13 6.00533e-20 6.93508e-20 -1.50348e-20 0.0005 1.46608e-07 
160 1 0.0431412 0.0213739 0.0078679 0.00023138 -0.0177614 -0.0118537 1.83577e-10 -1.03261e-08 5.06339e-09 0.0005 1.46608e-07 
163 1 0.0424878 0.0188132 0.00581899 -4.51473e-15 1.30457e-14 7.16621e-14 0 2.11758e-22 0 0.0005 1.46608e-07 
165 1 0.0920805 0.0205253 0.0059177 -7.84787e-15 -7.28946e-14 1.85342e-13 9.92617e-23 0 0 0.0005 1.46608e-07 
174 1 0.0370608 0.0210092 0.00771266 0.00473969 0.010368 0.00228974 4.91166e-08 -9.24904e-09 1.8085e-07 0.0005 1.46608e-07 
182 1 0.0343072 0.0161526 0.0147167 0.000743293 0.0149316 0.0140444 -4.74955e-09 1.50304e-08 -1.09781e-09 0.0005 1.46608e-07 
187 1 0.102423 0.0196788 0.00582979 1.48759e-15 2.29084e-15 -1.78438e-14 -3.5443e-20 3.6793e-20 1.69407e-21 0.0005 1.46608e-07 
189 1 0.0400277 0.0171982 0.0153741 0.00100866 0.0155103 0.00674994 2.79169e-09 -4.50358e-08 -4.1509e-09 0.0005 1.46608e-07 
193 1 0.377413 0.017468 0.00842945 -2.94044e-05 0.00202744 -0.0023716 -3.91012e-10 6.46177e-08 -5.91778e-08 0.0005 1.46608e-07 
195 1 0.0507369 0.0203921 0.00594173 -5.7256e-15 -2.04835e-14 -3.07615e-13 2.87859e-22 -8.07328e-22 2.11758e-22 0.0005 1.46608e-07 
198 1 0.0355995 0.015312 0.00937814 0.000110343 -0.0119143 0.0189505 -9.08174e-12 7.52674e-09 8.27489e-09 0.0005 1.46608e-07 
201 1 0.0440263 0.0170728 0.00623272 2.29504e-16 -6.63857e-16 -3.64347e-15 1.98523e-22 0 0 0.0005 1.46608e-07 
209 1 0.0415608 0.0152325 0.0096957 -0.0012379 -0.0111897 0.0201645 -2.7848e-09 -2.67482e-09 -1.38084e-09 0.0005 1.46608e-07 
213 1 0.0469327 0.0148483 0.0120975 3.71779e-05 0.00283313 0.021141 -2.66185e-10 1.16972e-08 2.55823e-09 0.0005 1.46608e-07 
215 1 0.0481194 0.0168357 0.00782969 0.000838564 -0.015995 0.00903122 -1.86976e-08 1.1524e-08 1.05719e-08 0.0005 1.46608e-07 
221 1 0.059059 0.0180876 0.00593586 7.18595e-15 -1.49146e-14 -1.83491e-13 1.32349e-22 3.70577e-22 0 0.0005 1.46608e-07 
223 1 0.0444928 0.0230607 0.0130315 0.000220462 0.00688441 -0.0191755 -1.44295e-09 -6.96644e-09 -1.1188e-08 0.0005 1.46608e-07 
226 1 0.0316007 0.0183082 0.00603438 1.31793e-14 -4.47085e-14 -1.10014e-13 -9.41001e-20 5.05043e-20 -3.07049e-20 0.0005 1.46608e-07 
227 1 0.0294846 0.0150419 0.0100228 0.00129334 -0.00536284 0.0151361 3.36607e-09 1.03279e-08 -1.39507e-08 0.0005 1.46608e-07 
229 1 0.0215463 0.0196109 0.00592744 -1.81457e-14 8.1435e-15 -1.66092e-13 -1.58819e-22 0 0 0.0005 1.46608e-07 
240 1 0.0465708 0.0154485 0.0138887 0.00120321 0.0083927 0.0140607 4.33999e-09 2.70415e-08 -1.79764e-08 0.0005 1.46608e-07 
242 1 0.0454846 0.0196192 0.0157537 0.000495037 0.019841 -0.00315361 -3.99412e-09 1.07933e-08 -1.18477e-08 0.0005 1.46608e-07 
245 1 0.0459957 0.0175263 0.0155297 0.000494181 0.0178987 0.00629346 -4.49721e-09 2.59397e-08 -5.1429e-09 0.0005 1.46608e-07 
246 1 0.0242602 0.0201274 0.00583803 -1.07556e-14 -1.726e-15 1.75368e-13 0 0 0 0.0005 1.46608e-07 
256 1 0.0313251 0.0220055 0.00836492 -7.17331e-06 -0.015294 -0.0151987 -1.06832e-08 -1.69308e-08 -8.46403e-09 0.0005 1.46608e-07 
257 1 0.0172259 0.024032 0.0131174 0.000222638 0.00134796 -0.001123 9.57691e-10 7.02469e-09 -8.87678e-09 0.0005 1.46608e-07 
258 1 0.0279622 0.017626 0.0155546 -0.000117323 0.0205239 0.0090974 -5.12012e-10 6.92979e-09 -1.00907e-08 0.0005 1.46608e-07 
270 1 0.0387228 0.0224355 0.0139389 -0.000795707 0.0153177 -0.016359 7.04197e-09 -3.41864e-09 -1.19197e-08 0.0005 1.46608e-07 
273 1 0.0371638 0.0187263 0.00573865 3.77831e-15 -1.81277e-14 8.99617e-14 5.13342e-19 6.81862e-20 -8.25857e-21 0.0005 1.46608e-07 
274 1 0.0328558 0.0191954 0.00572294 8.81695e-16 5.06752e-15 -1.96345e-14 1.44393e-20 0 4.23516e-22 0.0005 1.46608e-07 
277 1 0.04976 0.023012 0.00996128 0.000142907 -0.00788866 -0.0194435 -6.06307e-10 -1.24656e-08 -1.37057e-09 0.0005 1.46608e-07 
279 1 0.0326886 0.022555 0.0140236 0.000693489 0.0111939 -0.0161931 -3.84567e-09 -2.07415e-09 -1.49519e-08 0.0005 1.46608e-07 
280 1 0.0478334 0.0160051 0.00850769 0.000178785 -0.0148662 0.0150145 -8.21401e-10 4.42059e-09 1.1245e-08 0.0005 1.46608e-07 
281 1 0.0472923 0.0148947 0.0107725 0.000829434 -0.00331169 0.0153037 -6.83941e-09 1.75171e-08 4.75098e-08 0.0005 1.46608e-07 
283 1 0.0413513 0.0148741 0.0105551 0.00128586 -0.00331179 0.0185036 -1.48438e-08 -1.97026e-09 2.71746e-08 0.0005 1.46608e-07 
291 1 0.0350698 0.0188001 0.00572051 -7.05609e-15 -4.06763e-14 1.57634e-13 -3.68856e-20 5.82335e-22 -1.48231e-21 0.0005 1.46608e-07 
293 1 0.0270048 0.0216307 0.0148516 0.000853795 0.0147286 -0.0125125 -4.33756e-09 2.65771e-09 -1.69557e-08 0.0005 1.46608e-07 
296 1 0.0330235 0.0215317 0.0149587 3.02815e-05 0.0190025 -0.0119839 -7.82889e-10 -3.91482e-09 -1.09916e-08 0.0005 1.46608e-07 
298 1 0.0384807 0.023127 0.0129589 0.000651533 0.00476898 -0.0119749 3.27941e-09 -8.32201e-10 1.85514e-08 0.0005 1.46608e-07 
