ITEM: TIMESTEP
12800000
ITEM: NUMBER OF ATOMS
100
ITEM: BOX BOUNDS ff ff ff
-0.02 0.43
-0.02 0.06
-0.02 0.07
ITEM: ATOMS id type x y z vx vy vz fx fy fz radius mass 
1 1 0.0230056 0.0152195 0.013814 -0.00639813 0.00102508 -0.0146813 -2.47208e-07 2.54147e-07 -9.92732e-07 0.0005 1.46608e-07 
2 1 0.0220743 0.0164892 0.0151493 -6.09617e-05 0.0118893 0.00760285 -3.35614e-09 -1.80662e-07 -1.8151e-07 0.0005 1.46608e-07 
3 1 0.034406 0.0156958 0.00878813 0.000219773 -0.0132468 0.0163011 -1.3113e-09 5.60522e-09 1.15144e-08 0.0005 1.46608e-07 
8 1 0.0357894 0.0215983 0.00798902 0.00184385 -0.00917754 -0.00686292 3.12772e-05 -1.21431e-05 1.20873e-05 0.0005 1.46608e-07 
9 1 0.0436892 0.020408 0.00596775 2.40381e-15 -2.04483e-14 6.4884e-14 -2.56095e-21 -4.76456e-22 0 0.0005 1.46608e-07 
14 1 0.013925 0.0220678 0.0147691 0.00849894 0.0133406 -0.0125479 -3.1636e-08 -4.01019e-08 2.06201e-08 0.0005 1.46608e-07 
17 1 0.0210051 0.0233306 0.0127027 0.00424361 -0.000286758 -0.00163717 1.73534e-07 8.90676e-09 -1.32881e-06 0.0005 1.46608e-07 
18 1 0.08261 0.0191091 0.00590955 -1.81246e-14 -5.0496e-14 2.16934e-13 -8.41607e-20 8.78797e-21 -8.89385e-21 0.0005 1.46608e-07 
19 1 0.0193272 0.0231795 0.0174104 0.0220442 -0.0878079 -0.130127 0 0 -1.43822e-06 0.0005 1.46608e-07 
20 1 0.0208146 0.0212483 0.0153649 1.87153e-05 0.0200419 -0.0113886 -2.45692e-09 1.01705e-08 -2.49316e-08 0.0005 1.46608e-07 
26 1 0.0239646 0.0218833 0.00844412 0.00050011 -0.0155911 -0.0132211 -2.7361e-09 -1.28699e-08 4.00355e-09 0.0005 1.46608e-07 
28 1 0.0257566 0.0211088 0.0152885 0.00223858 0.00133184 0.000808028 1.57518e-08 -1.37201e-07 7.30201e-08 0.0005 1.46608e-07 
32 1 0.0450541 0.0174935 0.00619215 -3.10491e-15 -1.74686e-14 -1.20236e-13 5.78762e-20 -8.7615e-21 -2.11758e-22 0.0005 1.46608e-07 
34 1 0.0348638 0.0174727 0.00747989 0.000591511 -0.018227 0.00738299 -2.2113e-09 -4.62176e-09 1.52497e-08 0.0005 1.46608e-07 
38 1 0.0268555 0.0164736 0.014913 0.00061023 0.0145526 0.00982009 -9.79747e-09 -2.59956e-08 -2.56954e-08 0.0005 1.46608e-07 
40 1 0.0209237 0.0163146 0.0155036 0.0292914 0.0274248 -0.0522392 0 0 -1.43822e-06 0.0005 1.46608e-07 
46 1 0.0287896 0.0170508 0.00765272 0.000892576 -0.0157048 0.00767195 2.0879e-08 7.79361e-08 -3.26599e-08 0.0005 1.46608e-07 
48 1 0.0320315 0.019941 0.0156687 0.000743477 0.0160631 -0.00528081 1.40728e-09 7.61054e-08 -5.17535e-08 0.0005 1.46608e-07 
54 1 0.0311156 0.0230225 0.0131422 0.000175568 0.00993388 -0.0199776 -5.24886e-09 -7.70583e-09 -8.71612e-09 0.0005 1.46608e-07 
56 1 0.037081 0.0230962 0.0130062 0.000779089 0.00703935 -0.0190505 2.73795e-06 -2.14689e-06 1.04121e-05 0.0005 1.46608e-07 
59 1 0.0335717 0.0148053 0.0122482 0.00165728 0.0015463 0.015044 -1.82889e-08 6.83612e-08 9.49899e-08 0.0005 1.46608e-07 
64 1 0.0193036 0.0144718 0.0140774 -0.0012633 0.000902938 0.00178953 0 0 -1.43822e-06 0.0005 1.46608e-07 
65 1 0.0317584 0.0211183 0.0152274 3.28047e-05 0.0193407 -0.00998532 4.79874e-10 -7.89523e-10 -1.25311e-08 0.0005 1.46608e-07 
66 1 0.0378462 0.0206061 0.0154464 0.00374955 0.00740536 -0.00109988 2.68413e-08 -1.97449e-07 1.67772e-07 0.0005 1.46608e-07 
68 1 0.0328669 0.0164707 0.0149627 5.41857e-05 0.0173547 0.0140076 -1.96506e-09 1.25884e-08 -5.1e-09 0.0005 1.46608e-07 
70 1 0.0271159 0.0157586 0.0143152 0.00043654 0.0130207 0.0156949 -1.96136e-09 1.04285e-08 -7.77181e-09 0.0005 1.46608e-07 
74 1 0.017596 0.0141246 0.0144788 -0.0317772 -0.00482767 -0.0333672 0 0 -1.43822e-06 0.0005 1.46608e-07 
82 1 0.0181085 0.0240903 0.0130748 0.00120181 -0.00138628 -0.00354836 -5.5e-09 8.79394e-09 2.18335e-08 0.0005 1.46608e-07 
83 1 0.0340926 0.0150565 0.00995566 0.00139486 -0.00527543 0.0163793 -1.06693e-08 -1.90817e-09 3.24014e-08 0.0005 1.46608e-07 
86 1 0.0315035 0.0221881 0.0144415 0.00169669 0.0107548 -0.0127303 -4.55144e-07 -2.09444e-06 2.45556e-06 0.0005 1.46608e-07 
88 1 0.0159537 0.0149382 0.013228 -0.000437527 -0.000290668 0.000939542 5.91959e-07 1.27543e-07 -7.62105e-07 0.0005 1.46608e-07 
89 1 0.0353372 0.0193981 0.00734333 4.70754e-05 -0.0220226 -0.00306144 2.01213e-11 -4.40262e-09 1.18345e-08 0.0005 1.46608e-07 
90 1 0.0214872 0.0239065 0.0134524 -0.00841038 0.00109495 -0.0081917 -1.05609e-07 -1.51116e-08 -1.53703e-07 0.0005 1.46608e-07 
91 1 0.0221049 0.0144804 0.0139581 0.0119441 0.00175043 0.00821798 0 0 -1.43822e-06 0.0005 1.46608e-07 
93 1 0.0277358 0.014761 0.0116305 0.00123353 -0.000562106 0.0154897 1.67923e-07 -3.53148e-07 -2.07799e-06 0.0005 1.46608e-07 
96 1 0.0338761 0.0148366 0.0110873 -0.000102406 -0.00280918 0.0218991 2.14378e-09 1.21826e-08 5.10735e-09 0.0005 1.46608e-07 
100 1 0.036837 0.0234031 0.0116846 0.000564038 0.000939787 -0.0201002 -2.02274e-09 -1.14578e-08 -6.19011e-09 0.0005 1.46608e-07 
106 1 0.0232393 0.0189175 0.00720755 0.000314324 -0.0206828 0.00100205 -1.73094e-09 -4.98952e-09 1.16478e-08 0.0005 1.46608e-07 
107 1 0.0259065 0.0204425 0.0155932 0.00277138 0.00550101 -0.00165402 4.94369e-09 -1.58534e-07 9.51663e-08 0.0005 1.46608e-07 
108 1 0.0355923 0.0207409 0.00764274 0.000870113 -0.0181196 -0.00664279 -3.22722e-06 4.76125e-06 -3.28161e-06 0.0005 1.46608e-07 
109 1 0.0279533 0.0148335 0.0106839 2.29954e-06 -0.00604112 0.0227763 -3.64191e-09 9.46672e-09 -5.50296e-08 0.0005 1.46608e-07 
112 1 0.0196163 0.0225917 0.0141919 2.19168e-05 0.0591824 -0.0737019 -8.90095e-10 3.09216e-07 -5.7887e-07 0.0005 1.46608e-07 
113 1 0.022248 0.0153049 0.00935811 9.60411e-05 -0.0114849 0.0189388 4.69715e-08 4.26772e-08 -1.32637e-08 0.0005 1.46608e-07 
121 1 0.0250301 0.0204529 0.0270016 0.0873606 0.126211 0.0797936 0 0 -1.43822e-06 0.0005 1.46608e-07 
124 1 0.0326072 0.0173762 0.0154532 0.000227279 0.0190513 0.00781944 -7.70037e-10 1.01333e-08 -7.67979e-09 0.0005 1.46608e-07 
125 1 0.0190002 0.0232094 0.0104627 0.00314694 -0.00271775 -0.0122661 -7.88601e-08 -8.77037e-08 -1.50233e-07 0.0005 1.46608e-07 
126 1 0.0286258 0.0183498 0.00592583 -1.94458e-14 1.245e-16 -2.28119e-13 5.02926e-22 5.07157e-20 2.11758e-22 0.0005 1.46608e-07 
127 1 0.0331374 0.0157244 0.0142423 0.00147316 0.0105168 0.0142204 -5.38402e-07 1.53147e-06 1.6237e-06 0.0005 1.46608e-07 
129 1 0.020363 0.0140278 0.0131606 -0.000211258 -0.00132172 0.00312739 -4.84059e-08 1.34589e-07 1.57336e-07 0.0005 1.46608e-07 
132 1 0.0242241 0.0227824 0.00931981 0.00201716 -0.00351272 -0.00666251 1.50072e-05 9.44137e-07 7.11807e-07 0.0005 1.46608e-07 
134 1 0.0234664 0.0150272 0.01483 -0.022716 -0.00826417 -0.025029 -1.96107e-07 7.61387e-08 -4.64885e-07 0.0005 1.46608e-07 
137 1 0.0167835 0.0145374 0.0128394 -0.000668131 0.00236077 -0.00350797 0 0 -1.43822e-06 0.0005 1.46608e-07 
142 1 0.0365428 0.023271 0.0105542 0.00200954 -0.00423507 -0.0140756 -2.09736e-08 -2.69493e-08 -8.3679e-08 0.0005 1.46608e-07 
143 1 0.0236419 0.0204937 0.00758588 0.000732266 -0.0191174 -0.0087405 1.35893e-09 -7.79009e-09 1.04614e-08 0.0005 1.46608e-07 
146 1 0.0176471 0.0141425 0.0131532 -0.00112645 0.000728506 -0.0018154 -6.54479e-07 -2.77885e-07 -1.04295e-06 0.0005 1.46608e-07 
149 1 0.0360207 0.0220439 0.00843652 0.00154091 -0.00833529 -0.0100906 5.45926e-05 -1.49421e-05 -2.60481e-05 0.0005 1.46608e-07 
159 1 0.019446 0.0137275 0.0134228 -0.000507962 -0.00148735 0.00271054 -8.73024e-07 -2.76302e-07 -1.04942e-08 0.0005 1.46608e-07 
160 1 0.0265116 0.0177378 0.0154972 0.00190928 0.0228838 0.00664556 2.59893e-08 3.83366e-08 1.38404e-08 0.0005 1.46608e-07 
161 1 0.0218867 0.014784 0.0110512 -8.70518e-06 -0.00371372 0.0223899 1.99472e-11 9.46615e-09 4.52006e-09 0.0005 1.46608e-07 
163 1 0.0171284 0.0240152 0.0132586 0.00125067 -0.000525705 -0.00293586 -4.85795e-09 8.29588e-09 2.4593e-08 0.0005 1.46608e-07 
165 1 0.015 0.0227759 0.0139544 0.00240326 0.00109914 -0.00135802 -2.00149e-08 -7.05417e-08 -1.07934e-07 0.0005 1.46608e-07 
171 1 0.0203054 0.014511 0.0142254 -0.00633452 -0.00303891 -0.0115964 0 0 -1.43822e-06 0.0005 1.46608e-07 
174 1 0.0186167 0.0140159 0.0129441 -0.000800935 -0.00142815 0.00190207 -4.24606e-07 3.42734e-07 -6.60836e-07 0.0005 1.46608e-07 
180 1 0.0229504 0.0160935 0.0148106 0.00109967 0.016345 0.0137992 -8.83158e-06 2.24176e-05 6.53031e-06 0.0005 1.46608e-07 
182 1 0.0183881 0.0229593 0.010015 0.00287632 -0.00517245 -0.0120832 -2.40749e-08 -2.51153e-08 -4.70039e-08 0.0005 1.46608e-07 
187 1 0.0474618 0.0192773 0.00593797 4.78263e-15 -1.01541e-14 -1.05708e-13 -1.01088e-19 -3.92812e-20 -1.05879e-21 0.0005 1.46608e-07 
189 1 0.0211585 0.0140102 0.0137661 0.00175778 0.000784199 0.000227696 5.60254e-07 -6.17143e-08 5.87008e-07 0.0005 1.46608e-07 
193 1 0.0291524 0.018568 0.00720107 0.00104282 -0.0183981 0.00286332 -4.95023e-09 -1.32735e-08 1.27567e-08 0.0005 1.46608e-07 
194 1 0.0220967 0.0157266 0.0144707 0.000446662 0.0203468 0.0186376 -1.73675e-05 3.4342e-06 3.06955e-05 0.0005 1.46608e-07 
195 1 0.0235148 0.022991 0.0150056 -0.0117685 0.00891725 -0.0108819 -3.67231e-08 1.31672e-08 -6.03086e-08 0.0005 1.46608e-07 
198 1 0.0183387 0.014347 0.0138461 -0.00198271 0.00139286 0.00014412 0 0 -1.43822e-06 0.0005 1.46608e-07 
201 1 0.044179 0.0167154 0.00630741 2.00103e-15 -5.80869e-15 -3.18948e-14 2.99109e-21 -8.20563e-21 1.69407e-21 0.0005 1.46608e-07 
209 1 0.0243899 0.0157478 0.015582 -0.00929586 -0.00921711 -0.00555161 -9.999e-09 -3.41836e-08 2.08553e-08 0.0005 1.46608e-07 
213 1 0.0298201 0.0214865 0.0078811 0.000222612 -0.0109804 -0.00824264 4.11572e-07 3.2373e-07 1.72889e-07 0.0005 1.46608e-07 
215 1 0.0306167 0.0233474 0.0108642 0.000431201 -0.00178716 -0.022573 8.0273e-09 -9.83579e-09 -9.17858e-09 0.0005 1.46608e-07 
221 1 0.0585019 0.0190661 0.00583452 1.13011e-14 -2.34747e-14 -2.88773e-13 -1.16666e-20 -8.37769e-21 2.11758e-22 0.0005 1.46608e-07 
223 1 0.0274453 0.014957 0.0127094 0.000179482 0.00612629 0.02016 -9.02733e-10 1.20018e-08 2.57531e-09 0.0005 1.46608e-07 
226 1 0.0173403 0.0146361 0.0120147 0.000813256 0.000389546 -0.00169107 -2.93316e-09 -2.58113e-08 1.33415e-07 0.0005 1.46608e-07 
227 1 0.0205621 0.0234837 0.0118194 4.67032e-05 -0.000452844 0.000186968 7.01556e-07 3.30924e-08 -1.00427e-07 0.0005 1.46608e-07 
229 1 0.0307283 0.0166516 0.00660365 9.42313e-15 -3.21199e-14 -7.90276e-14 -7.22625e-21 3.81165e-21 1.48231e-21 0.0005 1.46608e-07 
240 1 0.0296155 0.0206187 0.00749882 0.000439385 -0.0179777 -0.00695669 -2.47436e-06 -6.00765e-06 -1.15989e-06 0.0005 1.46608e-07 
242 1 0.0282685 0.0153995 0.00925425 0.000417477 -0.0100068 0.0174508 -3.9741e-09 3.41938e-09 1.43097e-08 0.0005 1.46608e-07 
243 1 0.020946 0.015358 0.0151572 -0.00898034 -0.00446802 0.0362671 -1.61283e-05 -3.2308e-06 3.4277e-05 0.0005 1.46608e-07 
245 1 0.0285093 0.0159191 0.00852329 0.000337463 -0.0154934 0.0147912 2.29186e-10 4.4886e-09 9.87707e-09 0.0005 1.46608e-07 
246 1 0.0242602 0.0201274 0.00583803 -1.07574e-14 -1.7329e-15 1.75368e-13 -3.44107e-22 0 0 0.0005 1.46608e-07 
256 1 0.0190014 0.0239251 0.0126209 0.00542193 -0.00114673 -0.00099621 -2.88686e-07 5.92623e-08 -5.49595e-09 0.0005 1.46608e-07 
257 1 0.0187271 0.0234041 0.0112582 0.00179794 -0.00167774 -0.0153329 -2.11086e-08 -3.55337e-08 -1.66574e-07 0.0005 1.46608e-07 
258 1 0.021489 0.0147905 0.0132338 -0.00369448 0.00722557 0.0271316 2.73383e-08 -2.30016e-08 -1.48611e-06 0.0005 1.46608e-07 
270 1 0.021169 0.0194614 0.0159231 -4.91111e-09 0.0204132 -0.0019188 5.64525e-12 -1.1858e-09 -1.35899e-08 0.0005 1.46608e-07 
273 1 0.0196833 0.0232609 0.0129262 0.00813928 0.00101969 -0.00100347 -7.07633e-08 1.39296e-07 -4.45146e-07 0.0005 1.46608e-07 
274 1 0.0199401 0.0208175 0.015588 3.82733e-05 0.0211052 -0.00910008 -2.55112e-10 -5.75198e-09 -1.65489e-08 0.0005 1.46608e-07 
277 1 0.0322616 0.0191188 0.0158216 0.00165371 0.0158978 0.000559991 -3.55666e-10 1.44212e-08 -1.58631e-08 0.0005 1.46608e-07 
279 1 0.0215773 0.0147914 0.0122377 -0.001401 0.00142014 0.0269823 3.07902e-08 -7.44071e-08 -6.43432e-08 0.0005 1.46608e-07 
280 1 0.0303893 0.0230705 0.00987307 6.78246e-05 -0.0085168 -0.0200352 -2.10765e-08 -2.69057e-08 -7.09458e-08 0.0005 1.46608e-07 
281 1 0.0302051 0.0225813 0.00900893 0.00137835 -0.0133228 -0.0156777 -1.02127e-08 -4.81581e-08 -7.74737e-08 0.0005 1.46608e-07 
283 1 0.0241964 0.0168511 0.016254 0.000907091 0.00954751 0.00403115 -5.11751e-08 7.15037e-09 6.99581e-09 0.0005 1.46608e-07 
291 1 0.03293 0.0193179 0.00575787 -8.26855e-15 -4.74531e-14 1.83895e-13 -7.74241e-21 1.00585e-21 0 0.0005 1.46608e-07 
293 1 0.021216 0.0153698 0.0141952 -0.000612261 0.0162514 0.0239074 -9.99916e-06 -2.74496e-05 2.56291e-05 0.0005 1.46608e-07 
296 1 0.0223325 0.0236437 0.0140045 -0.00178281 0.00129149 0.00017879 -2.1134e-08 1.81182e-08 6.83965e-09 0.0005 1.46608e-07 
298 1 0.0196004 0.0234376 0.0115148 -0.000173319 0.00139777 0.00350716 -2.01459e-07 -5.25142e-08 4.51807e-07 0.0005 1.46608e-07 
