ITEM: TIMESTEP
55600000
ITEM: NUMBER OF ATOMS
88
ITEM: BOX BOUNDS ff ff ff
-0.02 0.43
-0.02 0.06
-0.02 0.07
ITEM: ATOMS id type x y z vx vy vz fx fy fz radius mass 
1 1 0.0387146 0.0187573 0.00575718 -8.66967e-15 7.8565e-14 2.00899e-13 3.4146e-21 -2.64698e-21 8.47033e-22 0.0005 1.46608e-07 
2 1 0.0528283 0.0182661 0.0157219 0.000257091 0.019873 0.0030236 -1.98918e-09 1.32859e-08 -8.17748e-09 0.0005 1.46608e-07 
3 1 0.0657504 0.019873 0.00578573 -1.36171e-15 3.97336e-14 -1.45083e-13 1.19172e-19 -1.53525e-21 -1.05879e-21 0.0005 1.46608e-07 
8 1 0.102543 0.017821 0.00581645 -9.785e-16 -4.35259e-15 -1.20042e-13 8.93355e-23 -1.98523e-23 0 0.0005 1.46608e-07 
9 1 0.0387828 0.0214812 0.00622724 -2.72775e-19 1.05309e-18 -5.7047e-18 -1.40621e-23 -3.63959e-23 0 0.0005 1.46608e-07 
14 1 0.0560604 0.0208445 0.00756556 0.00114552 -0.0142076 -0.00590575 -3.30792e-09 4.51219e-09 1.30872e-08 0.0005 1.46608e-07 
18 1 0.0815251 0.0188155 0.00575115 1.78642e-20 7.25055e-21 -2.82648e-20 0 0 0 0.0005 1.46608e-07 
26 1 0.10448 0.0180949 0.00580371 1.49831e-14 2.23648e-14 -1.76075e-13 -9.95264e-21 -1.26261e-20 -2.96462e-21 0.0005 1.46608e-07 
28 1 0.0639684 0.0220032 0.0146624 0.000636354 0.0121194 -0.0107029 4.93089e-09 -1.73056e-08 1.28226e-09 0.0005 1.46608e-07 
32 1 0.0458896 0.0168235 0.00626774 -4.52741e-15 -2.52971e-14 -1.74151e-13 -6.55127e-22 -2.64698e-23 0 0.0005 1.46608e-07 
34 1 0.0564645 0.0213699 0.00635393 -8.50025e-16 -1.49351e-14 3.21481e-14 4.17918e-19 6.03511e-20 3.1552e-20 0.0005 1.46608e-07 
38 1 0.0685978 0.0226545 0.00922244 6.68136e-05 -0.0112749 -0.0184276 2.79247e-10 -1.20227e-08 1.49933e-09 0.0005 1.46608e-07 
46 1 0.136461 0.0187737 0.0058834 1.94956e-15 3.17429e-15 -2.90523e-14 -2.88124e-20 2.07523e-20 8.47033e-22 0.0005 1.46608e-07 
48 1 0.073614 0.0188026 0.00732072 0.000110998 -0.0216114 0.00102376 -1.12384e-09 -3.37124e-09 1.10617e-08 0.0005 1.46608e-07 
54 1 0.0642637 0.0197348 0.005762 -1.62184e-15 4.68989e-14 -1.71253e-13 4.35593e-21 -7.41154e-22 -2.11758e-22 0.0005 1.46608e-07 
56 1 0.0830207 0.0197197 0.00608582 -1.58243e-14 -4.43654e-14 1.90571e-13 5.01602e-21 -4.76456e-22 -2.11758e-22 0.0005 1.46608e-07 
59 1 0.0793161 0.0192087 0.00581236 1.52732e-14 5.18502e-14 2.19694e-13 4.95911e-20 1.72583e-20 -9.1056e-21 0.0005 1.46608e-07 
64 1 0.0170063 0.0201419 0.00601043 1.30203e-14 5.25709e-15 -1.07338e-13 9.11884e-20 -6.44539e-21 1.05879e-20 0.0005 1.46608e-07 
65 1 0.0631808 0.0196931 0.0057741 5.21747e-15 7.19424e-14 -1.99484e-13 -2.1242e-21 0 -2.11758e-22 0.0005 1.46608e-07 
66 1 0.0448733 0.0164686 0.00634571 -2.63293e-17 -1.41542e-16 -9.78899e-16 -6.35275e-22 -2.11758e-22 0 0.0005 1.46608e-07 
68 1 0.0758781 0.0222739 0.014382 0.00116795 0.0107631 -0.0134161 -5.2689e-09 4.91082e-09 -2.83643e-08 0.0005 1.46608e-07 
70 1 0.0649487 0.0176746 0.0155994 0.000651802 0.0130337 0.00597159 1.7019e-09 -2.76989e-08 -1.88254e-08 0.0005 1.46608e-07 
74 1 0.0570347 0.0233121 0.0108466 0.00143678 -0.00244021 -0.0164208 -2.3387e-08 -8.22919e-10 -1.45486e-08 0.0005 1.46608e-07 
82 1 0.058288 0.0206433 0.0154866 0.00362672 -0.000277147 0.00269967 -2.05995e-08 -1.7758e-07 8.13576e-08 0.0005 1.46608e-07 
83 1 0.0768378 0.0183327 0.0157316 3.86121e-05 0.0216251 0.00473053 -5.77755e-10 6.45882e-09 -1.03878e-08 0.0005 1.46608e-07 
86 1 0.0829173 0.0222111 0.0066532 2.54631e-15 -1.233e-14 5.6229e-14 3.07446e-20 -5.29396e-23 -1.48231e-21 0.0005 1.46608e-07 
88 1 0.0357086 0.0161117 0.00660683 -4.3905e-15 2.82076e-14 7.49152e-14 8.23475e-20 -1.85818e-20 1.20702e-20 0.0005 1.46608e-07 
89 1 0.0616142 0.0194373 0.00577883 -3.51573e-15 -1.56457e-14 -1.12063e-13 -1.74039e-21 -4.49986e-22 2.11758e-22 0.0005 1.46608e-07 
90 1 0.0586428 0.019267 0.0157293 0.000673925 0.0113045 -0.000484248 2.39649e-08 -9.62587e-08 -2.81231e-08 0.0005 1.46608e-07 
93 1 0.0696459 0.0227604 0.0137034 0.00167239 0.00360716 -0.00320248 7.20082e-07 1.10771e-06 -9.50652e-09 0.0005 1.46608e-07 
100 1 0.0790928 0.01656 0.00796342 0.000375675 -0.0178647 0.0116758 2.70403e-10 2.27784e-09 1.18394e-08 0.0005 1.46608e-07 
106 1 0.0439552 0.0161318 0.00656318 1.9566e-16 -2.75167e-15 -2.89975e-15 5.55865e-22 0 0 0.0005 1.46608e-07 
107 1 0.0782305 0.0203396 0.00602091 7.23293e-15 1.99972e-14 -3.74236e-14 -1.85288e-22 -1.58819e-22 4.23516e-22 0.0005 1.46608e-07 
108 1 0.0782875 0.0148756 0.0110269 0.000955856 -0.00212689 0.0179839 -1.87184e-08 -2.34091e-09 -9.75006e-09 0.0005 1.46608e-07 
109 1 0.0732237 0.018766 0.005768 1.04044e-14 -5.91966e-14 -1.63385e-13 -5.17749e-20 -5.66453e-21 -2.75286e-21 0.0005 1.46608e-07 
112 1 0.0634283 0.0187234 0.00581289 1.82048e-12 -8.21124e-13 2.43713e-13 -2.85956e-14 1.34973e-14 -2.10833e-16 0.0005 1.46608e-07 
113 1 0.0683032 0.0181933 0.00578444 2.27389e-15 4.38846e-15 1.52498e-13 -4.44361e-21 2.42198e-21 0 0.0005 1.46608e-07 
121 1 0.0593981 0.0161345 0.0146767 0.00163944 0.0117394 0.00856639 -7.01203e-09 -1.19937e-08 7.09839e-09 0.0005 1.46608e-07 
124 1 0.0606894 0.0189134 0.00588092 -5.18653e-15 -2.31787e-14 -1.66018e-13 5.33035e-20 -1.12232e-20 -2.11758e-22 0.0005 1.46608e-07 
125 1 0.0617251 0.0193007 0.00733541 0.00106879 -0.014665 0.000282511 -1.07823e-08 -2.72012e-08 4.67035e-09 0.0005 1.46608e-07 
126 1 0.0286258 0.0183498 0.00592583 -1.94456e-14 2.38892e-16 -2.28118e-13 -7.94093e-22 -1.08367e-19 -2.11758e-22 0.0005 1.46608e-07 
127 1 0.0862115 0.0201056 0.00585272 2.6354e-15 -1.4868e-14 1.99836e-13 -3.5046e-20 -6.51157e-21 0 0.0005 1.46608e-07 
129 1 0.0493445 0.0176895 0.00739768 0.000796697 -0.0168988 0.00468917 -3.73656e-09 8.58257e-08 -9.7171e-10 0.0005 1.46608e-07 
132 1 0.0619682 0.017221 0.00607724 7.78174e-15 3.47382e-14 2.48762e-13 -3.16976e-21 2.69992e-21 -2.11758e-22 0.0005 1.46608e-07 
134 1 0.0638568 0.0173281 0.00596765 2.55986e-16 6.1691e-16 4.88279e-15 -4.49986e-22 4.76456e-22 0 0.0005 1.46608e-07 
137 1 0.0238948 0.0168123 0.00667048 -1.55918e-14 -3.19692e-14 -1.0479e-13 3.97047e-22 -1.58819e-22 2.11758e-22 0.0005 1.46608e-07 
142 1 0.0470176 0.01787 0.0060864 -3.12833e-15 -1.74655e-14 -1.20236e-13 -2.11758e-22 7.94093e-23 0 0.0005 1.46608e-07 
146 1 0.0388539 0.0197419 0.00587248 -2.83263e-15 1.34604e-14 -6.65669e-14 -1.32349e-23 0 0 0.0005 1.46608e-07 
149 1 0.0766607 0.0190533 0.00580856 -9.16588e-15 5.49352e-14 2.11159e-13 1.4962e-20 9.635e-21 -4.87044e-21 0.0005 1.46608e-07 
159 1 0.0779381 0.019417 0.00576935 1.95924e-15 -1.18181e-14 -4.53608e-14 7.94093e-23 -5.29396e-23 -2.11758e-22 0.0005 1.46608e-07 
160 1 0.0612894 0.0181031 0.0059753 -6.03842e-15 -2.69496e-14 -1.92995e-13 2.05141e-22 0 0 0.0005 1.46608e-07 
163 1 0.0424878 0.0188132 0.00581899 -4.51473e-15 1.3045e-14 7.16622e-14 0 0 0 0.0005 1.46608e-07 
165 1 0.0920805 0.0205253 0.0059177 -7.84793e-15 -7.28946e-14 1.85342e-13 2.97785e-22 0 0 0.0005 1.46608e-07 
174 1 0.0803689 0.0178237 0.00826722 -0.0014468 0.0183081 -0.0043998 2.55599e-08 -1.78569e-07 1.10267e-08 0.0005 1.46608e-07 
182 1 0.055651 0.0177812 0.00595299 -1.15984e-14 -1.57653e-14 -2.24476e-13 1.14217e-20 3.9837e-21 -4.23516e-22 0.0005 1.46608e-07 
187 1 0.102423 0.0196788 0.00582979 1.51537e-15 2.27007e-15 -1.78441e-14 -2.2367e-20 1.67818e-20 2.11758e-22 0.0005 1.46608e-07 
189 1 0.0453636 0.0157749 0.00687326 2.72941e-17 -5.64908e-16 -6.89695e-16 5.29396e-23 2.64698e-22 2.11758e-22 0.0005 1.46608e-07 
193 1 0.377394 0.0175056 0.00841805 3.59187e-05 0.00202887 -0.000995891 6.3123e-11 -1.63947e-09 -1.82861e-08 0.0005 1.46608e-07 
195 1 0.0507369 0.0203921 0.00594173 -5.72658e-15 -2.04837e-14 -3.07615e-13 2.68668e-21 -5.29396e-23 0 0.0005 1.46608e-07 
198 1 0.0603874 0.0149966 0.0102308 0.000631412 -0.00470139 0.018444 -3.59003e-09 7.50093e-09 1.53914e-08 0.0005 1.46608e-07 
201 1 0.0440263 0.0170728 0.00623272 2.29698e-16 -6.6386e-16 -3.64347e-15 1.58819e-22 0 0 0.0005 1.46608e-07 
209 1 0.0660257 0.0148122 0.0122366 0.000452058 0.000492722 0.015478 -5.20796e-10 1.42987e-08 -3.6369e-08 0.0005 1.46608e-07 
213 1 0.0722546 0.0149268 0.0111851 0.000124277 -0.00227302 0.0219488 -8.88838e-10 9.66274e-09 4.27946e-09 0.0005 1.46608e-07 
215 1 0.0824665 0.0205479 0.00623259 -1.14351e-14 -3.20905e-14 1.3783e-13 4.50119e-20 -9.52912e-22 3.59989e-21 0.0005 1.46608e-07 
221 1 0.059059 0.0180876 0.00593586 7.18625e-15 -1.49147e-14 -1.83491e-13 1.78671e-22 8.47033e-22 0 0.0005 1.46608e-07 
223 1 0.062959 0.0178508 0.00594748 -2.84158e-12 7.98088e-13 -1.9642e-13 3.1015e-14 -1.40911e-14 2.77756e-16 0.0005 1.46608e-07 
226 1 0.0316007 0.0183082 0.00603438 1.31807e-14 -4.4731e-14 -1.10004e-13 1.37908e-20 -1.05879e-22 2.5411e-21 0.0005 1.46608e-07 
227 1 0.0538475 0.0149546 0.0128082 6.69457e-05 0.005554 0.0222354 -1.18286e-09 1.24217e-08 1.00555e-09 0.0005 1.46608e-07 
229 1 0.0215463 0.0196109 0.00592744 -1.81457e-14 8.13653e-15 -1.66092e-13 0 0 0 0.0005 1.46608e-07 
240 1 0.0643088 0.0182312 0.00583009 -7.36433e-15 -1.81923e-14 -1.43647e-13 -2.64698e-23 0 0 0.0005 1.46608e-07 
242 1 0.062354 0.0187526 0.0058513 -3.5062e-15 -1.56489e-14 -1.12062e-13 -2.64698e-23 0 0 0.0005 1.46608e-07 
245 1 0.0705227 0.0196885 0.0157373 0.000129039 0.0222519 -0.00182316 -3.42329e-09 3.18756e-09 -1.10826e-08 0.0005 1.46608e-07 
246 1 0.0242602 0.0201274 0.00583803 -1.07574e-14 -1.72506e-15 1.75368e-13 0 -5.19139e-21 0 0.0005 1.46608e-07 
256 1 0.0551284 0.0168966 0.00780299 0.00142355 -0.0127655 0.0076918 -1.04927e-08 2.78596e-08 -3.8341e-08 0.0005 1.46608e-07 
257 1 0.0461546 0.0212322 0.0152489 0.000430239 0.0160326 -0.0086599 6.21314e-09 -1.0071e-07 1.90115e-08 0.0005 1.46608e-07 
258 1 0.0516182 0.0228087 0.0135031 0.00162789 0.00610797 -0.012282 4.3047e-09 -9.79165e-09 9.36575e-09 0.0005 1.46608e-07 
270 1 0.0504712 0.0179279 0.00611076 -3.69907e-15 -1.32326e-14 -1.98725e-13 1.1018e-21 3.97047e-23 0 0.0005 1.46608e-07 
273 1 0.0371638 0.0187263 0.00573865 3.81551e-15 -1.81896e-14 8.99476e-14 4.35891e-20 -3.07049e-21 -2.75286e-21 0.0005 1.46608e-07 
274 1 0.0328558 0.0191954 0.00572294 8.90149e-16 5.06752e-15 -1.9634e-14 -3.48078e-21 0 0 0.0005 1.46608e-07 
277 1 0.044465 0.0204317 0.00594645 -3.119e-15 2.52974e-14 -8.03114e-14 -2.75253e-19 -7.43801e-20 -1.27055e-20 0.0005 1.46608e-07 
279 1 0.0545743 0.0153366 0.00949459 -0.000210973 -0.00927287 0.0155574 -3.96907e-09 1.15565e-08 3.84132e-09 0.0005 1.46608e-07 
280 1 0.066033 0.0188309 0.00577203 2.18477e-15 -1.03751e-14 -1.76838e-13 1.64774e-20 -2.35581e-21 4.23516e-22 0.0005 1.46608e-07 
281 1 0.0833983 0.0210192 0.00634375 2.36856e-14 -4.02488e-14 1.90901e-13 -4.42045e-21 -4.92338e-21 -6.35275e-22 0.0005 1.46608e-07 
283 1 0.0635802 0.0171172 0.00863852 -2.7647e-06 -0.0148497 0.0100466 -6.72581e-11 6.67438e-08 -2.31597e-08 0.0005 1.46608e-07 
291 1 0.0350698 0.0188001 0.00572051 -7.05299e-15 -4.06759e-14 1.57634e-13 2.07523e-20 -3.17637e-22 6.35275e-22 0.0005 1.46608e-07 
293 1 0.0506219 0.0227292 0.00944113 7.88602e-05 -0.0100213 -0.0193246 -4.33974e-10 -1.12552e-08 2.98437e-09 0.0005 1.46608e-07 
296 1 0.0667523 0.0199335 0.00579279 3.32793e-16 -9.53841e-15 3.48311e-14 -2.40858e-20 -3.70577e-22 2.11758e-22 0.0005 1.46608e-07 
298 1 0.0622419 0.0213772 0.00789438 -7.74789e-05 -0.0158751 -0.0150165 3.22718e-09 -4.6236e-09 8.94382e-09 0.0005 1.46608e-07 
