ITEM: TIMESTEP
26600000
ITEM: NUMBER OF ATOMS
89
ITEM: BOX BOUNDS ff ff ff
-0.02 0.43
-0.02 0.06
-0.02 0.07
ITEM: ATOMS id type x y z vx vy vz fx fy fz radius mass 
1 1 0.0388307 0.0187336 0.00577146 -9.85419e-15 8.71493e-14 2.22853e-13 5.60034e-20 2.64698e-21 1.48231e-21 0.0005 1.46608e-07 
2 1 0.0260447 0.0203894 0.00742082 -2.65007e-05 -0.0201373 -0.00705923 1.7533e-09 -7.44664e-09 9.73426e-09 0.0005 1.46608e-07 
3 1 0.0457906 0.0233947 0.0115399 0.000717107 0.0025027 -0.0206599 4.39041e-08 3.12015e-08 -2.09002e-08 0.0005 1.46608e-07 
8 1 0.0497966 0.0193107 0.00720627 0.000374371 -0.0187284 -0.00189271 -2.22977e-10 -4.88565e-08 2.34482e-08 0.0005 1.46608e-07 
9 1 0.0436892 0.020408 0.00596775 2.40368e-15 -2.04484e-14 6.4884e-14 2.02494e-21 -5.29396e-23 0 0.0005 1.46608e-07 
14 1 0.0292856 0.0168182 0.0151786 0.000450253 0.0178248 0.0112284 -1.82908e-09 1.13907e-08 -5.29782e-09 0.0005 1.46608e-07 
18 1 0.08261 0.0191091 0.00590955 -1.78429e-14 -5.04936e-14 2.16958e-13 -1.4782e-19 1.73589e-19 3.26108e-20 0.0005 1.46608e-07 
26 1 0.103453 0.0178822 0.00580682 1.6898e-15 7.51653e-15 2.07276e-13 -1.38106e-20 -1.28378e-21 0 0.0005 1.46608e-07 
28 1 0.0391519 0.0233484 0.0108965 0.00164395 -0.00132559 -0.0166579 -8.93007e-09 -1.6816e-08 -8.66302e-09 0.0005 1.46608e-07 
32 1 0.0458692 0.0166351 0.00629564 2.90179e-16 1.62425e-15 1.11821e-14 -4.89691e-22 -5.29396e-23 0 0.0005 1.46608e-07 
34 1 0.0572659 0.0174442 0.00591793 9.18195e-15 -1.90549e-14 -2.34434e-13 -1.00982e-20 -4.83073e-21 0 0.0005 1.46608e-07 
38 1 0.0406355 0.0197129 0.0156311 -0.000345709 0.0212372 -0.00270462 -7.94256e-07 1.62911e-06 -4.11766e-07 0.0005 1.46608e-07 
46 1 0.0429873 0.0159361 0.00857026 0.000308182 -0.0134044 0.0151315 -1.72095e-09 2.34928e-09 1.27633e-08 0.0005 1.46608e-07 
48 1 0.0462068 0.0212925 0.0152002 0.000554293 0.0149373 -0.00891209 3.62881e-09 1.83777e-08 -4.45439e-08 0.0005 1.46608e-07 
54 1 0.0451534 0.0233325 0.0108905 0.000900309 -0.00354944 -0.0168653 -3.29138e-09 -1.96238e-08 7.48253e-09 0.0005 1.46608e-07 
56 1 0.0479084 0.0150472 0.012863 1.41462e-05 0.00579619 0.0212891 -6.88286e-11 1.20136e-08 -1.23232e-09 0.0005 1.46608e-07 
59 1 0.0793161 0.0192087 0.00581236 1.56612e-14 5.1864e-14 2.19664e-13 3.81959e-19 -5.06632e-20 -1.3976e-20 0.0005 1.46608e-07 
64 1 0.0170063 0.0201419 0.00601043 1.29929e-14 5.26538e-15 -1.07341e-13 -1.89656e-19 -8.89252e-20 -2.68933e-20 0.0005 1.46608e-07 
65 1 0.0632091 0.0196192 0.00574818 3.97241e-15 5.47592e-14 -1.51839e-13 7.2911e-20 -1.42937e-21 1.48231e-21 0.0005 1.46608e-07 
66 1 0.0448873 0.0164493 0.00634816 -4.52774e-15 -2.52968e-14 -1.74151e-13 4.69839e-22 1.32349e-22 0 0.0005 1.46608e-07 
68 1 0.0473286 0.0166621 0.0150859 0.000145805 0.0175686 0.0129101 3.84767e-09 -3.18283e-09 -2.05523e-08 0.0005 1.46608e-07 
70 1 0.0408853 0.0184047 0.0156759 0.000565667 0.0202562 0.00257461 -3.46749e-09 9.10182e-09 -9.58732e-09 0.0005 1.46608e-07 
74 1 0.0294854 0.0159802 0.0145288 0.000505838 0.0142304 0.0140453 -3.86945e-09 1.65557e-08 2.7486e-09 0.0005 1.46608e-07 
82 1 0.0304121 0.0148691 0.0106479 0.00167498 -0.00299998 0.0185666 -4.51839e-09 -2.18991e-08 6.63236e-08 0.0005 1.46608e-07 
83 1 0.0484192 0.0148584 0.0105515 0.00634839 -0.00196344 -0.0102907 6.98804e-05 1.79484e-05 2.45838e-06 0.0005 1.46608e-07 
86 1 0.0453873 0.023267 0.0123274 0.000167526 0.00475414 -0.0209842 1.07816e-06 -4.05354e-07 4.51924e-06 0.0005 1.46608e-07 
88 1 0.0357086 0.0161117 0.00660683 -4.42119e-15 2.81966e-14 7.49175e-14 -1.07136e-19 -3.48872e-20 6.14099e-21 0.0005 1.46608e-07 
89 1 0.049191 0.0170126 0.00773267 0.00202867 -0.00470334 0.00182034 1.47014e-07 7.89782e-07 -6.1428e-07 0.0005 1.46608e-07 
90 1 0.0308299 0.0154681 0.00913745 0.000904779 -0.0102613 0.0150593 -2.45241e-09 7.30094e-09 8.13214e-10 0.0005 1.46608e-07 
93 1 0.0416983 0.0154001 0.0137799 0.00093256 0.0106599 0.0159079 -6.84975e-09 2.10647e-08 1.1452e-08 0.0005 1.46608e-07 
96 1 0.0482174 0.014864 0.0115658 0.000303931 0.00107496 0.020742 -2.62925e-09 1.11925e-08 5.54133e-09 0.0005 1.46608e-07 
100 1 0.0505402 0.0221765 0.00863709 0.00071316 -0.0135438 -0.0164251 -1.85806e-08 -3.87137e-08 -4.41056e-08 0.0005 1.46608e-07 
106 1 0.0439552 0.0161318 0.00656318 1.95435e-16 -2.75166e-15 -2.89972e-15 -1.72054e-22 0 0 0.0005 1.46608e-07 
107 1 0.0397633 0.0227337 0.013624 5.87968e-05 0.0134096 -0.0178872 -4.20384e-09 -8.06437e-09 -9.21748e-09 0.0005 1.46608e-07 
108 1 0.0495679 0.0181583 0.0072866 0.000248738 -0.0209979 0.00402309 -6.43708e-10 -3.54898e-09 1.13515e-08 0.0005 1.46608e-07 
109 1 0.041895 0.015015 0.0130001 0.00076784 0.00698105 0.0181658 -4.44718e-09 1.63573e-08 1.02269e-08 0.0005 1.46608e-07 
112 1 0.0352956 0.016733 0.0150767 0.0122594 0.0889189 -0.152507 -0.099384 -0.143605 0.241777 0.0005 1.46608e-07 
113 1 0.0358051 0.0152355 0.0133684 0.000240833 0.0092561 0.0188772 -1.84917e-09 1.18091e-08 4.67066e-10 0.0005 1.46608e-07 
121 1 0.0369634 0.0158421 0.00866354 0.000238593 -0.0134125 0.0156363 -1.50157e-09 2.62602e-09 1.21107e-08 0.0005 1.46608e-07 
124 1 0.0470834 0.0175258 0.0155039 0.00199069 0.0135841 0.00428961 -6.79696e-09 3.32803e-08 7.88877e-09 0.0005 1.46608e-07 
125 1 0.0333432 0.0233435 0.0119427 0.000404762 0.001266 -0.0203052 -3.99668e-09 -7.14272e-09 -1.22985e-08 0.0005 1.46608e-07 
126 1 0.0286258 0.0183498 0.00592583 -1.94461e-14 1.84888e-16 -2.28118e-13 0 6.01877e-21 0 0.0005 1.46608e-07 
127 1 0.0476365 0.0155269 0.0139746 0.000405177 0.0102748 0.0156657 -1.27376e-09 1.23437e-08 -6.05438e-09 0.0005 1.46608e-07 
129 1 0.0189168 0.0241013 0.012917 -4.56382e-05 0.00111341 -0.000829201 -3.45189e-10 9.53891e-09 -9.41227e-09 0.0005 1.46608e-07 
132 1 0.0388433 0.0229926 0.00976709 0.000265714 -0.00848921 -0.019008 -9.33262e-10 -1.21114e-08 -1.22882e-09 0.0005 1.46608e-07 
134 1 0.0386255 0.0224569 0.00887182 -6.45702e-05 -0.0126208 -0.0191297 -7.86719e-10 -1.13111e-08 2.99313e-09 0.0005 1.46608e-07 
137 1 0.0238948 0.0168123 0.00667048 -1.55917e-14 -3.19694e-14 -1.0479e-13 6.35275e-22 5.29396e-23 -2.11758e-22 0.0005 1.46608e-07 
142 1 0.0470176 0.01787 0.0060864 -3.12601e-15 -1.74657e-14 -1.20236e-13 -3.3749e-22 5.29396e-23 0 0.0005 1.46608e-07 
146 1 0.0390565 0.0200205 0.00592023 -3.99743e-15 1.88377e-14 -9.32082e-14 4.10282e-22 3.86459e-21 8.47033e-22 0.0005 1.46608e-07 
149 1 0.0766607 0.0190533 0.00580856 -9.17281e-15 5.49346e-14 2.11159e-13 7.82182e-20 1.27584e-20 1.27055e-21 0.0005 1.46608e-07 
159 1 0.0779397 0.0194308 0.00576583 6.35816e-15 -3.81001e-14 -1.46474e-13 6.75244e-20 2.46169e-20 -2.96462e-21 0.0005 1.46608e-07 
160 1 0.0403811 0.0206247 0.0155293 0.0028106 0.0059109 -0.002159 -1.71931e-06 3.12768e-06 -4.71414e-07 0.0005 1.46608e-07 
163 1 0.0424878 0.0188132 0.00581899 -4.51466e-15 1.30454e-14 7.16622e-14 7.27919e-22 -3.70577e-22 2.11758e-22 0.0005 1.46608e-07 
165 1 0.0920805 0.0205253 0.0059177 -7.84776e-15 -7.28946e-14 1.85342e-13 0 0 0 0.0005 1.46608e-07 
174 1 0.0326354 0.0225856 0.0089694 0.000778384 -0.0104139 -0.0150522 2.50688e-09 -9.45058e-09 3.47658e-09 0.0005 1.46608e-07 
182 1 0.0315563 0.0180992 0.00725431 0.00103394 -0.0186733 0.00431248 -6.60274e-09 -1.4016e-08 1.55682e-08 0.0005 1.46608e-07 
187 1 0.102423 0.0196788 0.00582979 1.51119e-15 2.27031e-15 -1.78444e-14 -3.16579e-20 3.12608e-20 1.27055e-21 0.0005 1.46608e-07 
189 1 0.036341 0.0148408 0.0109398 0.000261671 -0.00254874 0.0207945 -2.95045e-09 1.00495e-08 6.39344e-09 0.0005 1.46608e-07 
193 1 0.377425 0.0175542 0.00837773 1.84072e-05 0.00471645 -0.00452357 -4.66639e-10 6.21496e-08 -6.36116e-08 0.0005 1.46608e-07 
195 1 0.0507369 0.0203921 0.00594173 -5.72408e-15 -2.04839e-14 -3.07615e-13 6.25349e-22 1.4029e-21 0 0.0005 1.46608e-07 
198 1 0.0323857 0.0216019 0.00797927 0.00136921 -0.00926569 -0.00713641 9.15773e-09 4.63609e-08 2.81333e-08 0.0005 1.46608e-07 
201 1 0.0440263 0.0170728 0.00623272 2.29453e-16 -6.63857e-16 -3.64347e-15 -7.94093e-23 0 0 0.0005 1.46608e-07 
209 1 0.0377486 0.0189769 0.00724215 -0.000434552 -0.0193242 -0.000322154 -2.50741e-09 -2.44852e-08 1.96345e-08 0.0005 1.46608e-07 
213 1 0.0435098 0.0180205 0.00739925 0.00146752 -0.0143659 0.00482712 -7.87093e-09 -3.1354e-08 2.2092e-08 0.0005 1.46608e-07 
215 1 0.0448942 0.0230243 0.00997636 0.00111214 -0.00421431 -0.0112725 6.27845e-09 1.67627e-08 4.10211e-08 0.0005 1.46608e-07 
221 1 0.059059 0.0180876 0.00593586 7.18564e-15 -1.49141e-14 -1.83491e-13 1.26393e-21 -3.57342e-22 0 0.0005 1.46608e-07 
223 1 0.0415066 0.016053 0.0145922 4.50986e-05 0.0151188 0.0159299 -1.23311e-09 1.16622e-08 -4.27164e-09 0.0005 1.46608e-07 
226 1 0.0316007 0.0183082 0.00603438 1.31621e-14 -4.47335e-14 -1.10006e-13 6.0007e-20 -6.67038e-21 9.52912e-21 0.0005 1.46608e-07 
227 1 0.0266834 0.0226711 0.0091027 0.00144199 -0.00448082 -0.00809925 -2.77724e-08 1.69421e-07 2.06412e-07 0.0005 1.46608e-07 
229 1 0.0215463 0.0196109 0.00592744 -1.81493e-14 8.13752e-15 -1.66091e-13 0 -6.08805e-22 0 0.0005 1.46608e-07 
240 1 0.0432241 0.0169215 0.00777232 3.98115e-05 -0.019948 0.00981242 -1.17623e-09 2.64245e-09 1.05231e-08 0.0005 1.46608e-07 
242 1 0.0423714 0.0148215 0.0108155 0.000833382 -0.00245378 0.0187893 -6.16145e-09 8.80049e-09 2.02902e-08 0.0005 1.46608e-07 
245 1 0.0427173 0.0153524 0.00946007 0.00141533 -0.00839277 0.0194814 3.99484e-09 -6.17033e-08 1.07466e-07 0.0005 1.46608e-07 
246 1 0.0242602 0.0201274 0.00583803 -1.07556e-14 -1.73281e-15 1.75368e-13 0 4.30134e-23 0 0.0005 1.46608e-07 
256 1 0.0283171 0.0208374 0.0154522 0.000153226 0.0202865 -0.00822677 -4.68973e-10 1.75989e-10 -1.2066e-08 0.0005 1.46608e-07 
257 1 0.0182186 0.0146413 0.0118562 0.00727162 -0.00657547 0.0228755 -1.59948e-05 1.77282e-05 -4.90934e-05 0.0005 1.46608e-07 
258 1 0.0236391 0.0156724 0.0143865 0.00403011 0.00292175 0.00357933 6.50962e-10 -4.94463e-09 1.04069e-08 0.0005 1.46608e-07 
270 1 0.0345781 0.0198674 0.0156809 0.00170825 0.00998593 -0.00275193 7.71008e-09 -6.06502e-09 -5.44167e-08 0.0005 1.46608e-07 
273 1 0.0371638 0.0187263 0.00573865 3.80816e-15 -1.81901e-14 8.99478e-14 2.14802e-20 9.1056e-21 2.11758e-22 0.0005 1.46608e-07 
274 1 0.0328558 0.0191954 0.00572294 8.90382e-16 5.06752e-15 -1.9634e-14 2.64698e-22 0 0 0.0005 1.46608e-07 
277 1 0.0466553 0.0196441 0.0157762 0.000810735 0.018878 -0.00285628 -6.90505e-09 1.91309e-08 -1.5239e-08 0.0005 1.46608e-07 
279 1 0.0297127 0.0153582 0.0136702 -0.000186418 0.00995439 0.0206087 -2.29115e-09 1.06305e-08 -1.4796e-09 0.0005 1.46608e-07 
280 1 0.0446413 0.0225271 0.00898018 6.17236e-05 -0.0118846 -0.0197062 -2.16012e-09 -1.05503e-08 4.91232e-09 0.0005 1.46608e-07 
281 1 0.0437411 0.0189208 0.00718288 0.000971518 -0.0162632 0.00143601 -7.38407e-09 -2.72936e-08 1.23796e-08 0.0005 1.46608e-07 
283 1 0.0374784 0.017828 0.00735336 0.00287505 -0.0173326 0.00557367 -2.89421e-07 2.27311e-06 -1.16008e-06 0.0005 1.46608e-07 
291 1 0.0350698 0.0188001 0.00572051 -7.08542e-15 -4.06766e-14 1.57633e-13 1.24276e-20 1.37643e-21 8.47033e-22 0.0005 1.46608e-07 
293 1 0.0189669 0.0159091 0.00856825 0.000248229 -0.0144055 0.0154898 -2.87762e-09 1.5276e-09 1.22947e-08 0.0005 1.46608e-07 
296 1 0.030243 0.0147822 0.0114131 0.00179657 -0.000602739 0.0101369 -2.27219e-09 -9.00145e-09 -1.25611e-08 0.0005 1.46608e-07 
298 1 0.0342524 0.0211808 0.0150931 0.00155321 0.0147088 -0.00847231 1.13944e-09 -1.54952e-08 3.90495e-09 0.0005 1.46608e-07 
