ITEM: TIMESTEP
7800000
ITEM: NUMBER OF ATOMS
151
ITEM: BOX BOUNDS ff ff ff
-0.02 0.43
-0.02 0.06
-0.02 0.07
ITEM: ATOMS id type x y z vx vy vz fx fy fz radius mass 
1 1 0.0224538 0.0238739 0.0147936 0.000361167 0.000595639 -0.00029466 -7.37005e-09 1.66346e-09 1.35957e-08 0.0005 1.46608e-07 
2 1 0.0208481 0.0172716 0.0158457 4.55849e-05 0.0224264 0.0094247 4.97929e-08 -1.14579e-07 8.76486e-08 0.0005 1.46608e-07 
3 1 0.0299615 0.0222679 0.00861325 0.00027145 -0.0139716 -0.0153259 -6.21225e-09 -1.08926e-08 1.5169e-09 0.0005 1.46608e-07 
4 1 0.0163132 0.0154279 0.0150355 0.00401394 -0.0049112 -0.0145281 0 0 -1.43822e-06 0.0005 1.46608e-07 
6 1 0.017388 0.0151486 0.0150226 -0.000446007 -0.00329466 -0.00968178 3.471e-08 -4.10221e-07 -4.82597e-07 0.0005 1.46608e-07 
8 1 0.0304355 0.0227026 0.0137482 0.000142895 0.0114307 -0.0180098 -8.25741e-10 -6.49494e-09 -1.02139e-08 0.0005 1.46608e-07 
9 1 0.0427538 0.0186075 0.0058732 2.04179e-15 -5.78877e-15 -3.18959e-14 -2.53713e-20 1.67289e-20 -4.65868e-21 0.0005 1.46608e-07 
13 1 0.0177426 0.0240971 0.0128983 -0.00138732 0.000938253 -0.000847929 -4.79535e-06 -5.92326e-07 3.83374e-06 0.0005 1.46608e-07 
14 1 0.0184733 0.0229942 0.0100177 0.00205066 -0.00224129 -0.0102104 3.10764e-08 -1.41612e-07 -2.54597e-07 0.0005 1.46608e-07 
15 1 0.0250902 0.0204906 0.0158292 0.00231545 0.00364079 -0.00219884 1.41765e-07 4.71076e-07 1.45962e-07 0.0005 1.46608e-07 
17 1 0.0208921 0.0240435 0.0129425 -0.00079514 0.000360147 0.00269146 4.15411e-07 -3.74342e-07 4.66067e-07 0.0005 1.46608e-07 
18 1 0.08261 0.0191091 0.00590955 -1.80396e-14 -5.04988e-14 2.1694e-13 6.55524e-20 9.52912e-22 5.29396e-21 0.0005 1.46608e-07 
19 1 0.016677 0.0142356 0.0135266 -0.000688122 0.000871325 -0.00039469 -2.00848e-06 -9.84377e-08 -2.96292e-06 0.0005 1.46608e-07 
20 1 0.0313287 0.0181304 0.0400129 0.205121 -0.0858621 0.221518 0 0 -1.43822e-06 0.0005 1.46608e-07 
21 1 0.0230662 0.021438 0.00816422 0.00193406 -0.0144571 -0.00984953 3.73861e-07 -3.05186e-07 -1.94743e-07 0.0005 1.46608e-07 
23 1 0.0188079 0.015457 0.0153765 -0.00997841 0.0201539 0.0158561 7.22311e-07 -1.36444e-06 -1.04179e-06 0.0005 1.46608e-07 
24 1 0.0217145 0.0147948 0.0128425 0.0068101 0.00189503 0.00409201 6.26376e-08 1.51734e-07 -7.73169e-07 0.0005 1.46608e-07 
26 1 0.0162364 0.0230526 0.0148911 0.000323045 0.0019021 -0.00217669 7.59208e-07 2.78718e-06 -3.63429e-06 0.0005 1.46608e-07 
28 1 0.0200257 0.0173401 0.0164103 -1.01861e-05 0.0255623 0.0090349 8.74431e-09 -1.21744e-07 -1.87914e-07 0.0005 1.46608e-07 
32 1 0.0422303 0.0177762 0.006064 -1.24829e-14 -4.20199e-14 -1.20864e-13 2.44051e-20 9.14266e-20 -3.59989e-20 0.0005 1.46608e-07 
33 1 0.0226091 0.0145759 0.0142874 -0.00188922 -0.00366714 0.00451947 -1.82637e-07 3.88228e-08 5.91455e-08 0.0005 1.46608e-07 
34 1 0.029513 0.0229392 0.00953638 0.000405755 -0.00814217 -0.0172851 5.61957e-09 -8.02827e-09 6.90544e-08 0.0005 1.46608e-07 
35 1 0.0190183 0.0143756 0.0156736 0.0243501 0.011906 -0.0108778 -2.72561e-07 3.33013e-07 -9.30201e-07 0.0005 1.46608e-07 
36 1 0.0213058 0.0242383 0.0140966 -1.01073e-05 0.000503625 0.000940404 -2.9619e-07 -3.60157e-08 2.18474e-07 0.0005 1.46608e-07 
38 1 0.0216753 0.0238888 0.0133291 -0.000518197 0.000976372 0.00272138 -2.51565e-07 -1.00146e-07 3.87589e-07 0.0005 1.46608e-07 
40 1 0.0257946 0.0202275 0.0167247 -6.35349e-05 0.00119674 8.47975e-05 4.71013e-08 -1.12936e-07 1.70829e-07 0.0005 1.46608e-07 
42 1 0.0217291 0.0141041 0.0142321 -0.0030012 -0.000673399 -0.00171528 1.14115e-07 8.07166e-08 -1.33646e-07 0.0005 1.46608e-07 
46 1 0.0217142 0.0177587 0.0157637 1.49326e-05 0.022084 0.00670354 2.71177e-08 -8.85421e-08 -3.67368e-09 0.0005 1.46608e-07 
48 1 0.0276609 0.0159077 0.00855796 -0.000248009 -0.0150316 0.0136033 1.68118e-08 3.36471e-08 -1.4042e-08 0.0005 1.46608e-07 
49 1 0.0180798 0.0242355 0.0138418 0.0257274 0.0162335 0.019908 0 0 -1.43822e-06 0.0005 1.46608e-07 
52 1 0.0295125 0.0176401 0.0418823 0.385038 -0.19153 0.82128 0 0 -1.43822e-06 0.0005 1.46608e-07 
54 1 0.0267424 0.0148795 0.0122921 0.00246592 0.00385321 0.0135184 -1.06626e-08 4.43393e-09 2.08381e-08 0.0005 1.46608e-07 
56 1 0.0317198 0.0179482 0.0156548 0.000194117 0.0203727 0.00566098 -1.04631e-09 8.62555e-09 -9.234e-09 0.0005 1.46608e-07 
59 1 0.0287185 0.0201172 0.00733826 0.000124097 -0.0207134 -0.00610263 -1.27819e-09 -8.33508e-09 8.77692e-09 0.0005 1.46608e-07 
64 1 0.0211094 0.0192629 0.0168481 0.000504026 0.0253337 -0.000288273 1.46279e-08 1.08337e-07 -8.77461e-08 0.0005 1.46608e-07 
65 1 0.0273277 0.0151639 0.00967058 0.000227687 -0.00904218 0.0189599 -4.46861e-10 7.70032e-09 9.98232e-09 0.0005 1.46608e-07 
66 1 0.0319434 0.0167536 0.0151575 0.00145329 0.00935208 0.00676543 -6.67295e-10 -2.08381e-08 -1.78092e-08 0.0005 1.46608e-07 
68 1 0.0277003 0.0148724 0.010427 -2.66084e-05 -0.00698084 0.0208785 1.10819e-09 7.89803e-09 6.16033e-09 0.0005 1.46608e-07 
70 1 0.0195527 0.0143098 0.0138555 -0.0070002 -0.000150935 0.00278364 1.1764e-06 -4.77977e-06 6.27643e-06 0.0005 1.46608e-07 
74 1 0.0209863 0.0147408 0.0114873 0.000190044 -0.000575416 0.0205756 -2.24294e-08 8.83271e-09 7.13384e-08 0.0005 1.46608e-07 
75 1 0.0180546 0.0142336 0.0148517 0.000207792 0.000527918 -0.000743456 -4.59707e-07 -7.97433e-07 -1.73796e-06 0.0005 1.46608e-07 
76 1 0.0187067 0.0239555 0.012287 0.000181658 0.000469375 -0.00278858 -8.46935e-06 4.3674e-06 2.816e-06 0.0005 1.46608e-07 
82 1 0.0188185 0.0148066 0.014617 0.00014799 0.0136302 0.0212268 8.19352e-07 -2.60129e-07 6.90402e-07 0.0005 1.46608e-07 
83 1 0.0291642 0.0220664 0.00835387 0.000277246 -0.0153887 -0.0153172 -4.49672e-09 -1.18231e-08 4.04267e-09 0.0005 1.46608e-07 
86 1 0.0270092 0.0147392 0.011307 7.73261e-06 -0.00197941 0.022658 -1.82865e-09 1.1853e-08 6.83087e-09 0.0005 1.46608e-07 
88 1 0.0137425 0.021787 0.0150052 -0.000168341 -0.00367566 -0.00266683 4.78743e-09 -5.97402e-09 -1.28686e-06 0.0005 1.46608e-07 
89 1 0.0298128 0.0233505 0.0109 0.000312481 -3.52233e-05 -0.0242008 -1.69753e-08 1.8123e-08 9.06136e-08 0.0005 1.46608e-07 
90 1 0.0217396 0.0183111 0.0165968 0.000426166 0.0263854 0.00378549 -9.5598e-08 1.23108e-07 9.70109e-08 0.0005 1.46608e-07 
91 1 0.01869 0.0234127 0.0114942 0.00451702 0.000412151 -0.00775337 1.13757e-06 -4.70321e-07 8.49752e-08 0.0005 1.46608e-07 
92 1 -0.00734593 0.0139314 0.070011 -0.474119 -0.315849 1.05245 0 0 -1.43822e-06 0.0005 1.46608e-07 
93 1 0.0207767 0.0182682 0.015872 -7.14341e-05 0.0225964 0.00407559 -4.81728e-09 -4.64111e-08 -4.36018e-08 0.0005 1.46608e-07 
96 1 0.0288911 0.0210278 0.00765755 0.000311967 -0.0180398 -0.00847047 -6.28947e-10 -1.17499e-08 5.57031e-09 0.0005 1.46608e-07 
98 1 0.0182619 0.023311 0.0107512 0.00246859 -0.00048376 -0.00851561 -1.41284e-07 -5.32039e-07 -5.24189e-07 0.0005 1.46608e-07 
100 1 0.0314373 0.0190948 0.0158479 0.00152059 0.0159016 -6.87449e-05 2.20872e-09 -9.34418e-10 -8.07329e-09 0.0005 1.46608e-07 
101 1 0.0232074 0.022097 0.00863926 0.0013314 -0.0131859 -0.0123485 -1.71209e-06 1.77139e-06 -1.88639e-06 0.0005 1.46608e-07 
106 1 0.0183906 0.016179 0.0159282 -0.00575567 0.0232154 0.0150316 5.5356e-08 6.55072e-07 2.33157e-07 0.0005 1.46608e-07 
107 1 0.0201271 0.0239758 0.0125459 0.000644617 -0.000759808 -0.000647439 1.86118e-06 -2.29883e-06 1.15444e-07 0.0005 1.46608e-07 
108 1 0.0301815 0.0232916 0.0123981 0.00237301 0.00170356 -0.0130045 8.93641e-07 -5.27049e-07 4.9011e-06 0.0005 1.46608e-07 
109 1 0.0211914 0.0199696 0.015845 -0.000302017 0.0223831 -0.0047478 1.02245e-08 -5.10887e-08 -2.86246e-08 0.0005 1.46608e-07 
110 1 0.0193003 0.0200967 0.0159973 -5.10649e-05 0.0237029 -0.00505963 -2.8257e-11 -3.42932e-09 -1.82206e-08 0.0005 1.46608e-07 
111 1 0.0213483 0.0151338 0.00967302 0.000460283 -0.00896174 0.0159011 3.83653e-09 2.59665e-08 -6.75839e-08 0.0005 1.46608e-07 
112 1 0.0151349 0.0224973 0.0156366 0.020871 0.0374129 -0.0443981 0 0 -1.43822e-06 0.0005 1.46608e-07 
113 1 0.0285753 0.0139869 0.032395 0.0145927 -0.048343 0.0385821 0 0 -1.43822e-06 0.0005 1.46608e-07 
115 1 0.0243364 0.00222184 0.0467058 -0.071514 -0.198992 0.31327 0 0 -1.43822e-06 0.0005 1.46608e-07 
117 1 0.024835 0.0215621 0.0325488 0.0986915 -3.11722e-05 0.0620853 0 0 -1.43822e-06 0.0005 1.46608e-07 
121 1 0.0154176 0.0146421 0.0144419 -0.000522741 8.85115e-05 0.00284418 1.8964e-07 2.74282e-07 -7.56539e-07 0.0005 1.46608e-07 
122 1 0.019186 0.0233228 0.0108139 0.00163823 -0.00172265 -0.0117874 1.56261e-07 4.35916e-07 9.90895e-07 0.0005 1.46608e-07 
124 1 0.0281814 0.0179801 0.00732826 0.000172858 -0.0206178 0.00507062 -7.39026e-10 -2.9564e-09 1.19789e-08 0.0005 1.46608e-07 
125 1 0.0208174 0.0145761 0.012459 0.00100041 -0.00286883 0.020329 -1.55968e-07 1.07698e-07 1.10797e-07 0.0005 1.46608e-07 
126 1 0.0245754 0.022096 0.0151018 -0.000956681 0.00407006 0.00161596 3.05098e-07 -4.66891e-06 4.53681e-06 0.0005 1.46608e-07 
127 1 0.0284389 0.0190157 0.007191 0.00121917 -0.013045 0.00177014 -3.82593e-09 1.87046e-09 -7.43529e-09 0.0005 1.46608e-07 
129 1 0.0207848 0.0153729 0.0184579 0.0196201 -0.159422 -0.189157 0 0 -1.43822e-06 0.0005 1.46608e-07 
131 1 0.0214461 0.0190074 0.0159419 2.64189e-05 0.022924 0.000215546 -9.27343e-09 5.41224e-08 -4.23372e-08 0.0005 1.46608e-07 
132 1 0.0173748 0.0145246 0.0141802 0.00423246 -0.0007397 -0.00417871 -2.64027e-06 -1.00007e-06 -3.49484e-06 0.0005 1.46608e-07 
134 1 0.0178172 0.023392 0.0111934 0.00415856 -0.000577963 -0.00759023 5.12108e-07 2.31307e-07 9.83228e-07 0.0005 1.46608e-07 
137 1 0.020603 0.0150098 0.0133529 0.00276767 0.00460812 0.00953358 -2.4113e-08 -6.62749e-09 1.53066e-07 0.0005 1.46608e-07 
142 1 0.0312107 0.0200014 0.0156847 0.000512781 0.0185665 -0.00493112 9.8928e-09 -4.12081e-08 -8.64309e-09 0.0005 1.46608e-07 
143 1 0.0234134 0.0227449 0.00924529 0.00183574 -0.00705581 -0.00940631 -2.44772e-06 -3.278e-06 7.91572e-06 0.0005 1.46608e-07 
146 1 0.0194194 0.0234353 0.0161522 0.0458624 -0.0132311 -0.0478969 0 0 -1.43822e-06 0.0005 1.46608e-07 
147 1 0.0161485 0.0236524 0.0140197 -0.00916498 0.00469237 -0.00772933 0 0 -1.43822e-06 0.0005 1.46608e-07 
149 1 0.0308752 0.0215197 0.0150457 1.82601e-06 0.019263 -0.0117612 6.55653e-09 -5.73927e-09 -1.01381e-08 0.0005 1.46608e-07 
155 1 0.0148975 0.0153307 0.0139366 -0.000281552 -0.000464856 0.00109291 6.84255e-09 -3.10545e-07 -7.23624e-07 0.0005 1.46608e-07 
156 1 0.0200659 0.0206399 0.0156532 -5.10186e-06 0.0216142 -0.00825851 1.22067e-11 -6.32447e-09 -1.64729e-08 0.0005 1.46608e-07 
159 1 0.0161932 0.0218017 0.0159945 -0.0160706 0.0652918 0.0331617 0 0 -1.43822e-06 0.0005 1.46608e-07 
160 1 0.0164177 0.0146194 0.0144545 0.00137261 -0.00767849 -0.011802 0 0 -1.43822e-06 0.0005 1.46608e-07 
161 1 0.0169247 0.0239515 0.0134618 0.000474932 0.00481456 -0.0131292 0 0 -1.43822e-06 0.0005 1.46608e-07 
163 1 0.0183136 0.011459 0.0277744 -0.0554339 -0.174098 -0.0428087 0 0 -1.43822e-06 0.0005 1.46608e-07 
165 1 0.0160566 0.0149154 0.0131367 -0.00704183 0.00192806 0.00886189 5.05033e-08 -2.38213e-06 -3.83511e-06 0.0005 1.46608e-07 
169 1 0.0203325 0.0233458 0.0146768 -0.0475876 -0.0914222 -0.093987 0 0 -1.43822e-06 0.0005 1.46608e-07 
171 1 0.0175617 0.0229903 0.0100337 0.00106538 -0.00768175 -0.017932 -1.37795e-08 -6.66205e-08 -8.45629e-08 0.0005 1.46608e-07 
172 1 0.0233813 0.0149642 0.0147904 0.000182376 0.0020169 -0.00305154 -1.63237e-07 1.79712e-07 -6.81317e-07 0.0005 1.46608e-07 
174 1 0.0158928 0.0158281 0.0165053 0.016267 0.0530956 -0.112855 0 0 -1.43822e-06 0.0005 1.46608e-07 
177 1 0.0249512 0.021241 0.0154101 0.00208417 0.00248288 -0.00153039 -2.05543e-07 -1.14484e-07 1.94399e-07 0.0005 1.46608e-07 
178 1 0.0153439 0.0233443 0.0145559 0.000274482 0.000453672 -0.000423454 7.82845e-07 8.27921e-08 -2.28523e-06 0.0005 1.46608e-07 
180 1 0.0182052 0.0140456 0.0130539 -0.00012338 0.000371667 -0.00100026 1.5231e-07 -8.06197e-08 -4.13734e-08 0.0005 1.46608e-07 
182 1 0.0198817 0.0231699 0.0131669 0.00647134 0.00892817 -0.0220616 -2.00842e-07 3.87762e-07 -1.04463e-06 0.0005 1.46608e-07 
186 1 0.0159346 0.0153825 0.0140123 -0.00327808 0.00615475 0.00915097 1.97894e-06 6.879e-07 3.48949e-06 0.0005 1.46608e-07 
187 1 0.0474618 0.0192773 0.00593797 4.63937e-15 -1.01781e-14 -1.05712e-13 1.00956e-19 -2.67874e-20 7.19978e-21 0.0005 1.46608e-07 
189 1 0.0142975 0.015825 0.0145663 0.00373453 0.00287165 0.00444561 2.00549e-08 -1.77789e-07 -6.49886e-08 0.0005 1.46608e-07 
192 1 0.0225059 0.0150343 0.0134048 0.00294838 0.00445647 0.00832479 -6.47365e-07 1.31996e-07 1.29167e-07 0.0005 1.46608e-07 
193 1 0.0259264 0.0190983 0.0168454 -0.00399839 0.00721431 -0.0071281 -4.20794e-07 -1.85002e-07 -8.2399e-07 0.0005 1.46608e-07 
194 1 0.0182921 0.023134 0.0131439 0.000731622 0.00469991 -0.0137054 1.28321e-06 -4.05389e-06 9.4891e-06 0.0005 1.46608e-07 
195 1 0.0202114 0.0182801 0.0166967 -2.70128e-05 0.0270592 0.00406534 -2.82693e-08 -2.08531e-07 -7.14163e-08 0.0005 1.46608e-07 
198 1 0.0190994 0.0178824 0.0166561 1.85602e-06 0.0243203 0.00552739 2.04763e-08 -3.05037e-08 -2.39536e-08 0.0005 1.46608e-07 
201 1 0.0228122 0.0235147 0.0141066 -0.000605452 0.0036316 -0.00145188 -5.09304e-09 -2.10215e-08 6.12672e-08 0.0005 1.46608e-07 
209 1 0.0173927 0.0161431 0.0158754 -0.00517153 0.0136983 0.00989989 1.24794e-07 9.15825e-08 1.09395e-07 0.0005 1.46608e-07 
213 1 0.0257447 0.020709 0.0154938 0.00217452 0.00269233 -0.00210649 -3.50182e-07 1.6955e-06 -8.11806e-07 0.0005 1.46608e-07 
214 1 0.020492 0.0192743 0.0160615 4.50967e-05 0.0230555 6.50031e-05 -5.648e-09 1.16767e-07 -1.87085e-08 0.0005 1.46608e-07 
215 1 0.0262905 0.0157481 0.014313 0.000446257 0.0134654 0.0158786 -3.95771e-09 1.62053e-08 2.32103e-09 0.0005 1.46608e-07 
216 1 0.0199805 0.0169181 0.0155049 4.23735e-05 0.0204952 0.0113555 2.21905e-08 1.99723e-08 -8.80948e-08 0.0005 1.46608e-07 
217 1 0.0184154 0.0239545 0.0163141 -0.0646313 -0.0595877 -0.0580574 0 0 -1.43822e-06 0.0005 1.46608e-07 
221 1 0.0585019 0.0190661 0.00583452 1.1307e-14 -2.34729e-14 -2.88773e-13 -1.79399e-20 -4.61898e-21 -2.11758e-22 0.0005 1.46608e-07 
223 1 0.0197198 0.0181052 0.0158437 -2.63308e-06 0.0226255 0.004941 1.40704e-08 -3.7229e-08 -2.76354e-08 0.0005 1.46608e-07 
226 1 0.0192852 0.0241777 0.0130776 -0.00227301 -0.00410608 -0.0091251 0 0 -1.43822e-06 0.0005 1.46608e-07 
227 1 0.0192006 0.0140016 0.0129678 -3.60871e-05 -0.000479602 0.000387759 -2.6035e-07 6.80901e-07 -3.20812e-07 0.0005 1.46608e-07 
229 1 0.0236996 0.0232417 0.0104829 0.0035939 0.00114188 -0.00273868 -1.04123e-08 -2.39275e-07 1.84828e-06 0.0005 1.46608e-07 
235 1 0.021514 0.0151969 0.0137381 0.00332508 0.00414837 0.0138441 0 0 -1.43822e-06 0.0005 1.46608e-07 
239 1 0.0194965 0.0235284 0.0123091 0.00318729 -0.000535414 -0.00883672 -6.48862e-06 1.09342e-05 3.18041e-06 0.0005 1.46608e-07 
240 1 0.0239759 0.0233683 0.0115057 0.000728135 0.00260171 -0.0225469 4.70332e-10 -2.13888e-08 -3.85305e-09 0.0005 1.46608e-07 
242 1 0.0241073 0.0213325 0.0162882 -0.023809 -0.0125203 0.00576001 0 0 -1.43822e-06 0.0005 1.46608e-07 
243 1 0.0142083 0.0224264 0.0143935 0.000780453 -0.000734691 -0.0009382 2.55446e-09 4.10048e-07 -7.31068e-07 0.0005 1.46608e-07 
245 1 0.0237948 0.0230493 0.00979891 0.00421075 -0.00183722 -0.007187 2.68724e-06 -5.40548e-06 -6.08342e-06 0.0005 1.46608e-07 
246 1 0.0245883 0.0222347 0.0161646 0.00354851 -0.0206155 -0.0288153 0 0 -1.43822e-06 0.0005 1.46608e-07 
254 1 0.0140923 0.0209902 0.0154978 0.00341929 -0.00127793 -0.000229762 -2.56376e-10 4.80565e-08 -9.39896e-07 0.0005 1.46608e-07 
255 1 0.0218381 0.0163336 0.00813621 0.0001246 -0.0177511 0.013571 -1.30315e-09 1.5076e-09 1.47933e-08 0.0005 1.46608e-07 
256 1 0.0211637 0.014184 0.0134112 0.000270321 0.00188897 -0.00355508 -3.53303e-07 -4.32945e-07 5.69514e-07 0.0005 1.46608e-07 
257 1 0.0245972 0.0183096 0.0167364 -4.63664e-09 0.0246376 0.00373879 -1.37819e-14 2.76153e-09 -1.67974e-08 0.0005 1.46608e-07 
258 1 0.0233467 0.0231212 0.0148549 -0.00211713 0.00159088 -0.00197124 -4.51968e-07 3.21215e-07 -3.55773e-07 0.0005 1.46608e-07 
262 1 0.0155543 0.0160303 0.014759 -0.0107512 -0.00768861 -0.0101338 0 0 -1.43822e-06 0.0005 1.46608e-07 
264 1 0.0249789 0.013919 0.0231055 -0.0899159 -0.0527407 -0.091995 -2.01021e-07 3.24084e-07 -1.02427e-06 0.0005 1.46608e-07 
266 1 0.0188602 0.0169646 0.0163318 5.66934e-06 0.0221262 0.00932144 9.3245e-11 -4.06158e-09 -1.96127e-08 0.0005 1.46608e-07 
268 1 0.0279786 0.0255373 0.0308195 -0.0451433 -0.0338493 -0.144215 -3.1169e-07 -2.05452e-07 -9.55138e-07 0.0005 1.46608e-07 
269 1 0.0207123 0.0153464 0.0143238 -0.0391443 -0.0240355 -0.0531852 0 0 -1.43822e-06 0.0005 1.46608e-07 
270 1 0.0201889 0.0140072 0.0131258 -0.000857538 -0.000910711 0.00168089 -1.90688e-08 -5.54079e-09 1.51511e-10 0.0005 1.46608e-07 
271 1 0.0177175 0.0145373 0.0157428 -0.00110869 0.00372972 -0.00328756 -8.60187e-07 1.3002e-07 4.38187e-07 0.0005 1.46608e-07 
273 1 0.018723 0.0232808 0.0125021 0.00121924 0.00349125 -0.0104707 -2.57945e-06 3.51801e-07 5.45533e-06 0.0005 1.46608e-07 
274 1 0.014477 0.0230676 0.0151123 -0.00824773 -0.00333394 0.00421808 5.21825e-07 -9.04963e-08 -3.79259e-07 0.0005 1.46608e-07 
275 1 0.0180677 0.0234308 0.0119854 0.00217907 0.000877256 -0.00952893 3.82919e-07 -1.51895e-06 3.3831e-06 0.0005 1.46608e-07 
277 1 0.0279649 0.016901 0.00771852 0.000864735 -0.0150798 0.00923339 -7.18933e-09 -1.54852e-08 2.71192e-08 0.0005 1.46608e-07 
278 1 0.0240574 0.0154633 0.0153334 -0.000663881 -0.00147402 0.000744819 -1.43572e-07 -1.50869e-07 -5.92771e-08 0.0005 1.46608e-07 
279 1 0.0210615 0.0143801 0.0168231 -0.0829915 0.0171612 -0.0825989 1.44841e-08 4.24332e-07 -8.7307e-07 0.0005 1.46608e-07 
280 1 0.0255839 0.0187721 0.015943 0.00780207 -0.0123076 0.00131282 -2.22e-07 9.40221e-07 1.68268e-07 0.0005 1.46608e-07 
281 1 0.0256544 0.0197743 0.0158444 6.13601e-05 0.00237794 -0.000356585 -2.52296e-07 2.79045e-08 -1.72388e-07 0.0005 1.46608e-07 
282 1 0.0169736 0.0236631 0.0151663 0.000226193 -1.2419e-05 0.000530208 5.98587e-07 -3.02735e-07 1.36163e-06 0.0005 1.46608e-07 
283 1 0.0147909 0.0218448 0.0149612 0.00448932 0.000164991 -0.00172795 -7.52081e-08 9.80137e-07 -1.03544e-06 0.0005 1.46608e-07 
285 1 0.0211882 0.0148554 0.010537 0.000259992 -0.00483081 0.020156 1.9538e-09 1.11155e-08 -1.4608e-09 0.0005 1.46608e-07 
291 1 0.0315237 0.0185201 0.00593899 7.97641e-15 -2.70899e-14 -6.6623e-14 6.35275e-22 0 2.11758e-22 0.0005 1.46608e-07 
293 1 0.0195121 0.0191056 0.0159762 -1.99709e-05 0.0232668 0.000270952 -3.99772e-09 4.79289e-08 -3.26763e-08 0.0005 1.46608e-07 
296 1 0.0201502 0.0222535 0.0147745 -0.00912464 0.0234449 -0.0544774 0 0 -1.43822e-06 0.0005 1.46608e-07 
297 1 0.021009 0.0209436 0.0155196 -1.16552e-06 0.0209103 -0.00983771 3.22354e-12 -7.50955e-09 -1.59305e-08 0.0005 1.46608e-07 
298 1 0.030222 0.0250787 0.0347544 0.00991223 -0.0420179 -0.0204812 -4.03748e-07 -3.36381e-08 -9.86663e-07 0.0005 1.46608e-07 
