ITEM: TIMESTEP
82000000
ITEM: NUMBER OF ATOMS
88
ITEM: BOX BOUNDS ff ff ff
-0.02 0.43
-0.02 0.06
-0.02 0.07
ITEM: ATOMS id type x y z vx vy vz fx fy fz radius mass 
1 1 0.0387146 0.0187573 0.00575718 -8.68248e-15 7.85641e-14 2.00899e-13 -1.58819e-22 -9.52912e-22 2.11758e-22 0.0005 1.46608e-07 
2 1 0.0515454 0.0203376 0.00592249 1.06351e-14 2.65563e-14 3.50781e-13 1.61684e-19 3.18828e-20 -6.98802e-21 0.0005 1.46608e-07 
3 1 0.0657625 0.0198039 0.00576669 -1.32081e-15 3.97318e-14 -1.45084e-13 -3.77194e-22 0 0 0.0005 1.46608e-07 
8 1 0.102543 0.017821 0.00581645 -9.78444e-16 -4.35259e-15 -1.20042e-13 -4.1359e-23 6.61744e-24 0 0.0005 1.46608e-07 
9 1 0.0387828 0.0214812 0.00622724 -2.70301e-19 1.06019e-18 -5.70326e-18 2.15067e-23 -4.1359e-23 0 0.0005 1.46608e-07 
14 1 0.191105 0.0203026 0.00593314 -1.12287e-14 -4.38009e-14 9.73358e-14 4.23516e-22 2.11758e-22 2.11758e-22 0.0005 1.46608e-07 
18 1 0.0819644 0.018662 0.00575674 1.34792e-14 4.563e-14 1.93312e-13 -6.2204e-22 2.64698e-22 2.11758e-22 0.0005 1.46608e-07 
26 1 0.10448 0.0180949 0.00580371 1.49817e-14 2.23619e-14 -1.76076e-13 1.17791e-20 7.64977e-21 4.23516e-22 0.0005 1.46608e-07 
28 1 0.0800401 0.0168845 0.00628905 -1.1356e-15 -7.29147e-15 -3.41144e-14 -1.32349e-23 -5.29396e-23 0 0.0005 1.46608e-07 
32 1 0.0458896 0.0168235 0.00626774 -4.52789e-15 -2.5297e-14 -1.74151e-13 -4.21531e-21 -9.79382e-22 2.11758e-22 0.0005 1.46608e-07 
34 1 0.0564645 0.0213699 0.00635393 -1.37827e-15 -1.50154e-14 3.20949e-14 5.62615e-20 -2.75286e-20 -6.56451e-21 0.0005 1.46608e-07 
38 1 0.0942812 0.0164184 0.0149324 0.000528843 0.0160169 0.0121217 -3.26454e-09 1.56564e-08 -2.08793e-09 0.0005 1.46608e-07 
46 1 0.136461 0.0187737 0.0058834 2.02525e-15 3.13679e-15 -2.9051e-14 5.29396e-23 3.73224e-21 4.23516e-22 0.0005 1.46608e-07 
48 1 0.0822817 0.0172512 0.00607537 6.63772e-16 3.61522e-14 1.18632e-13 2.47492e-21 -5.29396e-23 0 0.0005 1.46608e-07 
54 1 0.0652975 0.0207687 0.00603532 -1.12805e-15 3.25658e-14 -1.18914e-13 6.78288e-22 0 0 0.0005 1.46608e-07 
56 1 0.0870153 0.0206158 0.00591409 3.22108e-15 5.90079e-15 -3.89484e-14 0 0 0 0.0005 1.46608e-07 
59 1 0.0792518 0.0191834 0.00582281 6.34955e-15 2.15024e-14 9.10982e-14 6.68362e-21 -5.3469e-21 8.47033e-22 0.0005 1.46608e-07 
64 1 0.0170063 0.0201419 0.00601043 1.3026e-14 5.25101e-15 -1.07337e-13 7.30037e-20 -6.41892e-21 8.68209e-21 0.0005 1.46608e-07 
65 1 0.0643606 0.0210989 0.00615793 9.85088e-15 -6.28952e-14 2.05619e-13 6.61744e-23 5.29396e-23 -2.11758e-22 0.0005 1.46608e-07 
66 1 0.0448733 0.0164686 0.00634571 -2.67436e-17 -1.41531e-16 -9.78873e-16 5.29396e-23 1.05879e-22 2.11758e-22 0.0005 1.46608e-07 
68 1 0.0803045 0.0192159 0.005743 -9.52836e-15 -2.67153e-14 1.14756e-13 -2.64698e-23 0 0 0.0005 1.46608e-07 
70 1 0.0811915 0.017199 0.00615598 4.51276e-15 1.5277e-14 6.47201e-14 -9.26442e-23 2.11758e-22 0 0.0005 1.46608e-07 
74 1 0.0615774 0.0172559 0.00608456 -8.0131e-16 -3.54715e-15 -2.53844e-14 -5.29396e-22 0 0 0.0005 1.46608e-07 
82 1 0.063441 0.0163701 0.00647495 5.27895e-16 7.56939e-15 9.69236e-15 -6.61744e-24 -1.05879e-22 0 0.0005 1.46608e-07 
83 1 0.0855075 0.019144 0.00579031 -2.80431e-15 1.60117e-14 -2.15085e-13 -3.24255e-22 -1.32349e-23 0 0.0005 1.46608e-07 
86 1 0.0829173 0.0222111 0.0066532 2.5498e-15 -1.23258e-14 5.62297e-14 -2.86535e-20 1.0535e-20 3.38813e-21 0.0005 1.46608e-07 
88 1 0.0357086 0.0161117 0.00660683 -4.44402e-15 2.82007e-14 7.49146e-14 7.45257e-20 -6.56451e-21 6.35275e-21 0.0005 1.46608e-07 
89 1 0.0618809 0.0199413 0.00582959 -4.13199e-16 -5.72273e-15 1.58526e-14 3.30872e-24 -5.29396e-23 0 0.0005 1.46608e-07 
90 1 0.0845463 0.0178241 0.00589851 -1.71735e-15 5.0851e-14 1.75601e-13 1.08316e-19 2.64698e-22 8.47033e-22 0.0005 1.46608e-07 
93 1 0.0954243 0.0150115 0.0104576 0.000210441 -0.00508295 0.0207124 -1.4431e-09 9.4371e-09 7.20988e-09 0.0005 1.46608e-07 
100 1 0.0830136 0.0187071 0.00584947 -9.52938e-15 -2.67155e-14 1.14756e-13 0 0 0 0.0005 1.46608e-07 
106 1 0.0439552 0.0161318 0.00656318 1.95546e-16 -2.75146e-15 -2.89949e-15 -2.77933e-22 0 1.05879e-22 0.0005 1.46608e-07 
107 1 0.0782305 0.0203396 0.00602091 3.52888e-15 9.75611e-15 -1.8257e-14 7.94093e-23 0 -2.11758e-22 0.0005 1.46608e-07 
108 1 0.0822914 0.0196163 0.00600118 7.1677e-15 2.00948e-14 -8.6317e-14 -2.51463e-22 -1.05879e-22 0 0.0005 1.46608e-07 
109 1 0.0732237 0.018766 0.005768 1.03486e-14 -5.91905e-14 -1.63391e-13 -6.87553e-20 -3.11285e-20 8.68209e-21 0.0005 1.46608e-07 
112 1 0.0644815 0.0190744 0.00573853 7.9802e-16 -3.78212e-15 -6.44673e-14 2.18376e-22 0 0 0.0005 1.46608e-07 
113 1 0.0683453 0.0182317 0.00578271 7.82629e-18 1.40392e-17 5.06786e-16 2.64698e-23 -2.64698e-23 0 0.0005 1.46608e-07 
121 1 0.0609817 0.0187588 0.00589337 -4.35063e-15 -1.94155e-14 -1.3904e-13 2.79918e-21 -1.05879e-22 0 0.0005 1.46608e-07 
124 1 0.0609012 0.0197493 0.00575757 -5.19423e-15 -2.31833e-14 -1.66017e-13 0 0 0 0.0005 1.46608e-07 
125 1 0.0634974 0.0172463 0.00599641 6.61071e-16 1.63373e-15 1.29007e-14 -1.98523e-23 1.05879e-22 0 0.0005 1.46608e-07 
126 1 0.0286258 0.0183498 0.00592583 -1.94459e-14 1.88766e-16 -2.28119e-13 -2.38228e-22 -3.02177e-20 0 0.0005 1.46608e-07 
127 1 0.0888729 0.0199317 0.00596406 -1.21827e-15 -2.22545e-15 1.47222e-14 1.61201e-20 2.22346e-21 1.69407e-21 0.0005 1.46608e-07 
129 1 0.0601285 0.017977 0.00598674 -1.08402e-14 2.26832e-14 2.78391e-13 -2.36031e-19 -8.47033e-20 -2.32934e-21 0.0005 1.46608e-07 
132 1 0.0626638 0.0179373 0.00595165 -7.36394e-15 -1.81922e-14 -1.43647e-13 3.17637e-22 -7.94093e-23 0 0.0005 1.46608e-07 
134 1 0.0644862 0.0176438 0.00589539 -5.97923e-15 -1.4772e-14 -1.16641e-13 6.35275e-22 -7.94093e-23 0 0.0005 1.46608e-07 
137 1 0.0238948 0.0168123 0.00667048 -1.55921e-14 -3.1969e-14 -1.0479e-13 7.94093e-22 -3.17637e-22 0 0.0005 1.46608e-07 
142 1 0.042543 0.0198089 0.00582143 -1.0904e-16 9.29744e-16 -2.94506e-15 4.03664e-22 0 0 0.0005 1.46608e-07 
146 1 0.0388539 0.0197419 0.00587248 -2.8339e-15 1.34616e-14 -6.65667e-14 4.27487e-21 -5.82335e-22 -2.11758e-22 0.0005 1.46608e-07 
149 1 0.0766607 0.0190533 0.00580856 -9.17861e-15 5.49361e-14 2.11158e-13 -6.81001e-20 -2.32934e-21 -4.23516e-21 0.0005 1.46608e-07 
159 1 0.0779381 0.019417 0.00576935 9.5559e-16 -5.76451e-15 -2.21277e-14 5.29396e-23 5.29396e-23 4.23516e-22 0.0005 1.46608e-07 
160 1 0.0620021 0.0189487 0.00583492 4.93881e-16 2.21667e-15 1.58317e-14 -2.97785e-23 -2.64698e-23 -2.11758e-22 0.0005 1.46608e-07 
163 1 0.0424897 0.0188104 0.00581963 1.85283e-16 -5.37412e-16 -2.94377e-15 5.82335e-22 0 0 0.0005 1.46608e-07 
165 1 0.0920805 0.0205253 0.0059177 -7.84782e-15 -7.28946e-14 1.85342e-13 1.98523e-23 0 0 0.0005 1.46608e-07 
174 1 0.0803747 0.0174749 0.00843192 -3.92247e-05 -0.000790031 0.00116932 -2.29889e-10 -3.16046e-08 1.6575e-09 0.0005 1.46608e-07 
182 1 0.0557406 0.0175302 0.00596599 -5.82823e-15 -7.49516e-15 -1.0897e-13 -8.24931e-20 -6.03908e-20 7.83505e-21 0.0005 1.46608e-07 
187 1 0.102423 0.0196788 0.00582979 1.53197e-15 2.25943e-15 -1.7844e-14 -6.11452e-21 -3.22931e-21 -6.35275e-22 0.0005 1.46608e-07 
189 1 0.0453636 0.0157749 0.00687326 2.7731e-17 -5.64684e-16 -6.89832e-16 5.29396e-23 -1.05879e-22 -2.11758e-22 0.0005 1.46608e-07 
193 1 0.37739 0.0175163 0.00840842 2.38602e-05 -0.00377116 0.00249953 7.92878e-11 -4.6722e-08 1.33417e-08 0.0005 1.46608e-07 
195 1 0.0505919 0.0207133 0.00592302 6.74636e-15 1.89381e-14 2.6288e-13 2.5808e-22 -1.32349e-23 0 0.0005 1.46608e-07 
198 1 0.0643736 0.0166453 0.00623285 -9.28231e-16 8.9262e-14 2.24983e-13 2.39882e-23 1.05879e-22 0 0.0005 1.46608e-07 
201 1 0.0440263 0.0170728 0.00623272 2.29475e-16 -6.63937e-16 -3.64325e-15 -2.38228e-22 1.05879e-22 0 0.0005 1.46608e-07 
209 1 0.0799751 0.0180833 0.00603206 1.3476e-14 4.5631e-14 1.93312e-13 -2.07788e-21 2.22346e-21 -4.23516e-22 0.0005 1.46608e-07 
213 1 0.0810479 0.0182624 0.00591498 1.06502e-15 3.60272e-15 1.52615e-14 7.41154e-22 -5.29396e-22 2.11758e-22 0.0005 1.46608e-07 
215 1 0.0824664 0.0205903 0.00624245 -1.04515e-15 -2.92623e-15 1.25717e-14 6.2204e-21 -1.69407e-21 2.11758e-22 0.0005 1.46608e-07 
221 1 0.0595038 0.0223955 0.00675756 8.83572e-17 -1.68193e-15 4.05847e-15 1.6087e-19 8.68209e-21 -1.90582e-21 0.0005 1.46608e-07 
223 1 0.063626 0.0183177 0.00585415 -7.36383e-15 -1.81927e-14 -1.43647e-13 -5.45277e-21 1.16467e-21 2.11758e-22 0.0005 1.46608e-07 
226 1 0.0316007 0.0183082 0.00603438 1.31802e-14 -4.47328e-14 -1.10004e-13 -6.96155e-21 -7.83505e-21 2.32934e-21 0.0005 1.46608e-07 
227 1 0.0584979 0.0201946 0.00586451 2.95132e-16 4.88034e-15 -1.04432e-14 -1.98523e-23 -2.32934e-21 -1.05879e-21 0.0005 1.46608e-07 
229 1 0.0215463 0.0196109 0.00592744 -1.81494e-14 8.14338e-15 -1.66091e-13 0 -1.85288e-22 0 0.0005 1.46608e-07 
240 1 0.0690612 0.017564 0.00598647 -1.68193e-17 1.76947e-16 4.66257e-16 -2.64698e-23 5.29396e-23 0 0.0005 1.46608e-07 
242 1 0.0636055 0.0197465 0.00578044 6.28615e-15 -4.01368e-14 1.31216e-13 2.15729e-21 -2.64698e-22 -2.11758e-22 0.0005 1.46608e-07 
245 1 0.0965268 0.018374 0.00723242 0.000356197 -0.0197318 0.00354161 -2.84716e-09 -9.42028e-09 1.14292e-08 0.0005 1.46608e-07 
246 1 0.0242602 0.0201274 0.00583803 -1.07556e-14 -1.72599e-15 1.75368e-13 0 -2.15067e-23 0 0.0005 1.46608e-07 
256 1 0.0781176 0.0165688 0.00798888 4.91355e-05 -0.0186108 0.0122416 -1.00897e-09 2.30163e-09 1.2111e-08 0.0005 1.46608e-07 
257 1 0.0567438 0.01754 0.00591345 -9.82637e-15 -1.3375e-14 -1.90505e-13 -8.21887e-21 -6.24687e-21 8.47033e-22 0.0005 1.46608e-07 
258 1 0.061759 0.0163729 0.00651709 1.23973e-15 -1.41491e-14 -2.01899e-14 -1.85288e-22 1.32349e-22 -1.05879e-22 0.0005 1.46608e-07 
270 1 0.0504712 0.0179279 0.00611076 -3.69848e-15 -1.32327e-14 -1.98725e-13 6.02187e-22 -5.9557e-22 0 0.0005 1.46608e-07 
273 1 0.0371638 0.0187263 0.00573865 3.81076e-15 -1.81878e-14 8.99482e-14 2.90837e-20 -5.0822e-21 -1.27055e-21 0.0005 1.46608e-07 
274 1 0.0328558 0.0191954 0.00572294 8.7629e-16 5.06752e-15 -1.96346e-14 -3.97047e-23 0 0 0.0005 1.46608e-07 
277 1 0.044465 0.0204317 0.00594645 -2.65748e-15 2.53458e-14 -8.03133e-14 -1.31945e-19 5.35748e-20 2.09641e-20 0.0005 1.46608e-07 
279 1 0.0625324 0.0169121 0.00611939 -3.92746e-16 3.70491e-14 9.33836e-14 -9.30165e-21 0 0 0.0005 1.46608e-07 
280 1 0.066033 0.0188309 0.00577203 2.20132e-15 -1.03728e-14 -1.76838e-13 -4.30134e-22 6.07481e-21 -4.23516e-22 0.0005 1.46608e-07 
281 1 0.0833983 0.0210192 0.00634375 2.3685e-14 -4.02501e-14 1.90901e-13 -3.09696e-21 -2.64698e-21 -2.11758e-22 0.0005 1.46608e-07 
283 1 0.0634868 0.0173831 0.00848908 0.00120316 -0.00166412 0.000125437 5.86964e-09 7.91123e-08 -6.16122e-08 0.0005 1.46608e-07 
291 1 0.0350698 0.0188001 0.00572051 -7.08741e-15 -4.06763e-14 1.57633e-13 2.05141e-21 -2.11758e-22 0 0.0005 1.46608e-07 
293 1 0.0623373 0.0157218 0.00700852 1.20233e-15 -1.41674e-14 -2.01841e-14 7.41154e-22 2.11758e-22 0 0.0005 1.46608e-07 
296 1 0.0667607 0.0199247 0.00579031 -3.98694e-16 1.19614e-14 -4.36766e-14 -8.68374e-21 2.64698e-22 2.11758e-22 0.0005 1.46608e-07 
298 1 0.0801544 0.0202323 0.00596714 -1.80113e-14 -5.05038e-14 2.16941e-13 2.75286e-21 -1.74701e-21 -2.11758e-22 0.0005 1.46608e-07 
