ITEM: TIMESTEP
25000000
ITEM: NUMBER OF ATOMS
89
ITEM: BOX BOUNDS ff ff ff
-0.02 0.43
-0.02 0.06
-0.02 0.07
ITEM: ATOMS id type x y z vx vy vz fx fy fz radius mass 
1 1 0.0388307 0.0187336 0.00577146 -9.65662e-15 8.71709e-14 2.22854e-13 -8.23872e-20 -7.0939e-21 -6.35275e-22 0.0005 1.46608e-07 
2 1 0.0220293 0.0148744 0.0130681 0.00430533 0.00127774 0.00278718 3.54398e-08 9.5488e-08 -1.91053e-07 0.0005 1.46608e-07 
3 1 0.046414 0.0193062 0.0071733 -0.000276177 -0.0029868 -0.00138407 -5.21536e-10 1.30807e-07 -1.63169e-08 0.0005 1.46608e-07 
8 1 0.0483206 0.0213198 0.00784614 0.000261816 -0.0174774 -0.0101944 -9.59272e-10 -1.14356e-08 4.92537e-09 0.0005 1.46608e-07 
9 1 0.0436892 0.020408 0.00596775 2.4031e-15 -2.04484e-14 6.4884e-14 1.53525e-21 3.17637e-22 -2.11758e-22 0.0005 1.46608e-07 
14 1 0.0277719 0.015439 0.0137918 9.19955e-05 0.0115766 0.0195312 -2.51334e-08 3.63383e-08 5.30769e-08 0.0005 1.46608e-07 
18 1 0.08261 0.0191091 0.00590955 -1.80733e-14 -5.05027e-14 2.16936e-13 -3.47548e-20 6.78156e-20 1.12232e-20 0.0005 1.46608e-07 
26 1 0.103453 0.0178822 0.00580682 1.69482e-15 7.51501e-15 2.07276e-13 1.03762e-20 -2.34919e-21 0 0.0005 1.46608e-07 
28 1 0.0371089 0.0232904 0.0106324 0.00208134 -0.00255966 -0.0127413 7.93883e-06 -5.17153e-07 6.31058e-07 0.0005 1.46608e-07 
32 1 0.0458692 0.0166351 0.00629564 2.88515e-16 1.62419e-15 1.11821e-14 1.97862e-21 7.94093e-23 0 0.0005 1.46608e-07 
34 1 0.0572659 0.0174442 0.00591793 9.17936e-15 -1.90567e-14 -2.34434e-13 -2.1639e-21 -2.63374e-21 2.11758e-22 0.0005 1.46608e-07 
38 1 0.038574 0.0199775 0.0156799 0.00364879 0.00786903 -0.00251034 -1.68781e-05 1.15144e-05 1.66362e-06 0.0005 1.46608e-07 
46 1 0.0415285 0.0178979 0.00736812 0.000232449 -0.0197721 0.00572653 -2.25776e-09 -4.19396e-09 1.31342e-08 0.0005 1.46608e-07 
48 1 0.0446311 0.0199073 0.0156235 0.00213266 0.00866003 -0.00223273 -2.55885e-07 -1.11431e-06 3.91452e-07 0.0005 1.46608e-07 
54 1 0.0436483 0.0231308 0.0128596 0.000222526 0.00635059 -0.0197514 -2.75276e-10 -7.37577e-09 -9.21954e-09 0.0005 1.46608e-07 
56 1 0.0466591 0.0151232 0.01007 0.000151055 -0.00731493 0.0202645 -1.45702e-09 8.2695e-09 8.79487e-09 0.0005 1.46608e-07 
59 1 0.0793161 0.0192087 0.00581236 1.53089e-14 5.18646e-14 2.19688e-13 3.89768e-20 -1.03762e-20 1.05879e-21 0.0005 1.46608e-07 
64 1 0.0170063 0.0201419 0.00601043 1.30177e-14 5.25971e-15 -1.07338e-13 -7.93564e-20 -1.91509e-20 -1.10114e-20 0.0005 1.46608e-07 
65 1 0.0443128 0.0212636 0.015227 0.000706732 0.0167468 -0.00839748 6.68029e-09 -2.91389e-08 -1.35801e-09 0.0005 1.46608e-07 
66 1 0.0448873 0.0164493 0.00634816 -4.52783e-15 -2.5297e-14 -1.74151e-13 -6.61744e-23 -5.29396e-23 0 0.0005 1.46608e-07 
68 1 0.0459146 0.0151973 0.0133692 0.000212707 0.00900717 0.0195897 -1.92637e-09 1.34578e-08 2.2545e-09 0.0005 1.46608e-07 
70 1 0.0392703 0.0170014 0.0152611 0.00150588 0.0133473 0.00781729 -2.75554e-09 2.8684e-08 8.52173e-09 0.0005 1.46608e-07 
74 1 0.0280761 0.0148957 0.0123574 0.000303717 0.00464034 0.0200025 -1.64672e-09 1.18433e-08 3.98115e-09 0.0005 1.46608e-07 
82 1 0.0290414 0.0159943 0.00848919 0.00106368 -0.0146329 0.0123796 -2.69259e-05 -9.59073e-09 -1.67955e-05 0.0005 1.46608e-07 
83 1 0.0471068 0.0162293 0.00825674 0.00024924 -0.015116 0.0136332 -1.0001e-09 1.79563e-09 1.35073e-08 0.0005 1.46608e-07 
86 1 0.0439029 0.022529 0.0140582 0.000202874 0.0162722 -0.0153185 3.56398e-08 -5.37674e-08 4.17229e-08 0.0005 1.46608e-07 
88 1 0.0357086 0.0161117 0.00660683 -4.44581e-15 2.82005e-14 7.49146e-14 -5.6513e-20 -1.36584e-20 1.69407e-21 0.0005 1.46608e-07 
89 1 0.0477833 0.0190269 0.0072157 0.000920855 -0.0112472 -0.000154294 -3.7042e-06 -1.66851e-05 1.31466e-06 0.0005 1.46608e-07 
90 1 0.0293236 0.0168186 0.00777939 0.00175759 -0.0145148 0.0103149 -2.19499e-08 -3.84903e-08 2.17262e-08 0.0005 1.46608e-07 
93 1 0.0399665 0.0150806 0.0131393 0.00169199 0.00392025 0.0131542 -4.79211e-08 2.33054e-08 2.04518e-08 0.0005 1.46608e-07 
96 1 0.0468772 0.0156074 0.00904995 0.00199503 -0.00861517 0.0107215 2.55594e-09 8.99331e-09 5.82034e-09 0.0005 1.46608e-07 
100 1 0.0490507 0.0232278 0.0105604 0.00275587 0.00293809 0.00186453 3.09658e-08 4.53838e-08 2.01851e-07 0.0005 1.46608e-07 
106 1 0.0439552 0.0161318 0.00656318 1.95807e-16 -2.75165e-15 -2.89971e-15 5.82335e-22 -1.05879e-22 0 0.0005 1.46608e-07 
107 1 0.0382741 0.0212956 0.0149803 0.00214438 0.012328 -0.00849745 3.3176e-07 -5.85681e-09 -7.15859e-08 0.0005 1.46608e-07 
108 1 0.0480722 0.0201431 0.00735911 0.000475718 -0.022066 -0.0084995 -1.39674e-08 8.86208e-08 4.8717e-09 0.0005 1.46608e-07 
109 1 0.0404383 0.0148147 0.0108964 0.000711312 -0.00213578 0.0197657 -4.46899e-09 9.57596e-09 1.26231e-08 0.0005 1.46608e-07 
112 1 0.0333407 0.0166615 0.0150673 0.00111128 0.0122558 0.00930765 4.1358e-09 -5.41665e-08 -3.76944e-08 0.0005 1.46608e-07 
113 1 0.0340103 0.0149554 0.0127472 7.3963e-05 0.0065423 0.0192239 -1.24225e-09 1.37815e-08 2.45242e-09 0.0005 1.46608e-07 
121 1 0.0352588 0.0166257 0.00795704 -8.17121e-06 -0.0190381 0.0118115 -1.06689e-09 2.45392e-09 1.16164e-08 0.0005 1.46608e-07 
124 1 0.0455089 0.0160936 0.0146571 0.000264498 0.0152111 0.0139859 -9.27698e-10 1.23892e-08 -2.51853e-09 0.0005 1.46608e-07 
125 1 0.0320356 0.0220876 0.0145774 0.000883488 0.0131517 -0.0114533 4.16627e-09 -1.683e-08 -2.90944e-09 0.0005 1.46608e-07 
126 1 0.0286258 0.0183498 0.00592583 -1.94456e-14 1.55936e-16 -2.28119e-13 -2.64698e-22 -8.50309e-20 -2.11758e-22 0.0005 1.46608e-07 
127 1 0.0462226 0.0148245 0.0117588 -0.000253103 -0.000383111 0.0203548 4.04018e-11 1.35368e-08 1.94922e-09 0.0005 1.46608e-07 
129 1 0.0187318 0.0224242 0.0090107 -3.69356e-05 -0.0123027 -0.0180768 -1.02492e-09 -1.08329e-08 4.14703e-09 0.0005 1.46608e-07 
132 1 0.0366305 0.0223175 0.00872409 0.000583418 -0.0120874 -0.0162832 -6.41294e-09 -7.36921e-09 7.04456e-09 0.0005 1.46608e-07 
134 1 0.0364202 0.0217785 0.00812928 0.00233217 -0.00855976 -0.00701126 -5.37917e-09 -2.18922e-08 -1.98918e-08 0.0005 1.46608e-07 
137 1 0.0238948 0.0168123 0.00667048 -1.55946e-14 -3.19699e-14 -1.0479e-13 3.6793e-21 -1.48231e-21 -2.11758e-22 0.0005 1.46608e-07 
142 1 0.0470176 0.01787 0.0060864 -3.12731e-15 -1.74657e-14 -1.20236e-13 3.50725e-22 1.58819e-22 0 0.0005 1.46608e-07 
146 1 0.0390565 0.0200205 0.00592023 -3.92824e-15 1.88525e-14 -9.32082e-14 1.20424e-19 1.97465e-20 -1.05879e-21 0.0005 1.46608e-07 
149 1 0.0766607 0.0190533 0.00580856 -9.0985e-15 5.49394e-14 2.11161e-13 3.05739e-19 -2.91168e-21 1.58819e-20 0.0005 1.46608e-07 
159 1 0.0779397 0.0194308 0.00576583 6.22519e-15 -3.81372e-14 -1.4647e-13 7.15677e-20 3.9387e-20 -7.19978e-21 0.0005 1.46608e-07 
160 1 0.0384183 0.0206388 0.0154455 0.00214692 0.0117017 -0.00523767 2.09074e-06 4.15615e-08 -1.04303e-06 0.0005 1.46608e-07 
163 1 0.0424878 0.0188132 0.00581899 -4.51473e-15 1.30448e-14 7.16623e-14 0 3.17637e-22 0 0.0005 1.46608e-07 
165 1 0.0920805 0.0205253 0.0059177 -7.84809e-15 -7.28946e-14 1.85342e-13 -2.64698e-23 0 0 0.0005 1.46608e-07 
174 1 0.0313965 0.0233528 0.0118981 0.000505861 0.00342129 -0.0193148 8.76703e-09 -1.70619e-08 8.90174e-08 0.0005 1.46608e-07 
182 1 0.0301277 0.0203603 0.00740176 2.22979e-05 -0.0199006 -0.0059519 2.48978e-09 -5.81079e-09 1.13668e-08 0.0005 1.46608e-07 
187 1 0.102423 0.0196788 0.00582979 1.54157e-15 2.26018e-15 -1.78431e-14 2.07258e-20 -2.14405e-21 1.48231e-21 0.0005 1.46608e-07 
189 1 0.034303 0.0148536 0.0115622 -0.000870655 -0.000315183 0.0238543 -1.78789e-08 -1.45707e-08 1.30939e-08 0.0005 1.46608e-07 
193 1 0.377427 0.0174739 0.00843337 4.90708e-05 -0.00313813 0.00173444 2.90253e-10 3.42727e-09 -1.09017e-08 0.0005 1.46608e-07 
195 1 0.0507369 0.0203921 0.00594173 -5.70976e-15 -2.04827e-14 -3.07616e-13 -2.1639e-20 6.08805e-21 -2.11758e-22 0.0005 1.46608e-07 
198 1 0.0310735 0.0232638 0.0104435 0.00102868 -0.0056476 -0.0187865 -1.74834e-08 -1.17457e-08 -2.34511e-08 0.0005 1.46608e-07 
201 1 0.0440263 0.0170728 0.00623272 2.29661e-16 -6.63862e-16 -3.64347e-15 3.04402e-22 1.05879e-22 0 0.0005 1.46608e-07 
209 1 0.0359829 0.0198882 0.0074378 7.80293e-05 -0.0211445 -0.00472247 -8.74608e-10 -5.31286e-09 9.67313e-09 0.0005 1.46608e-07 
213 1 0.0421536 0.020473 0.0073908 -0.458696 0.8557 -0.506536 0.00227896 -0.0059865 0.0296031 0.0005 1.46608e-07 
215 1 0.0432595 0.0233941 0.0113985 -5.25222e-06 -0.00991496 -0.0601404 0.000163548 -0.000523352 -0.00163243 0.0005 1.46608e-07 
221 1 0.059059 0.0180876 0.00593586 7.18586e-15 -1.49147e-14 -1.83491e-13 2.31611e-22 3.30872e-22 0 0.0005 1.46608e-07 
223 1 0.0396975 0.0157586 0.0141498 7.16241e-05 0.0133265 0.0166342 -1.29819e-10 1.19123e-08 -2.92186e-09 0.0005 1.46608e-07 
226 1 0.0316007 0.0183082 0.00603438 1.31862e-14 -4.47318e-14 -1.10003e-13 1.66495e-20 -8.89385e-21 6.77626e-21 0.0005 1.46608e-07 
227 1 0.0251745 0.0233582 0.0109155 0.00153023 -0.00227795 -0.0161167 -6.21404e-08 -1.40242e-07 -2.33035e-07 0.0005 1.46608e-07 
229 1 0.0215463 0.0196109 0.00592744 -1.81456e-14 8.1435e-15 -1.66092e-13 -2.43522e-21 -1.32349e-23 4.23516e-22 0.0005 1.46608e-07 
240 1 0.0417448 0.0188977 0.00716059 0.00113961 -0.00924244 0.000467242 5.27368e-09 2.96102e-08 6.2811e-09 0.0005 1.46608e-07 
242 1 0.0411115 0.0162357 0.00823079 0.00339443 -0.00323765 -0.000302733 1.26802e-06 4.77599e-07 6.81142e-09 0.0005 1.46608e-07 
245 1 0.0412913 0.0167766 0.00786671 0.00304048 -0.00903077 0.00422296 -1.06801e-06 -3.31738e-07 -4.16159e-08 0.0005 1.46608e-07 
246 1 0.0242602 0.0201274 0.00583803 -1.07556e-14 -1.726e-15 1.75368e-13 0 0 0 0.0005 1.46608e-07 
256 1 0.0269818 0.0183598 0.0157451 0.00121218 0.0192958 0.00516847 -1.12266e-08 -7.4878e-08 -4.31609e-08 0.0005 1.46608e-07 
257 1 0.0157169 0.0198991 0.0158765 -3.03362e-06 0.0202473 -0.00372562 5.41937e-09 -9.90789e-09 -1.35186e-08 0.0005 1.46608e-07 
258 1 0.0244324 0.0222164 0.0157219 -0.0113502 0.0103311 -0.00761225 3.36291e-08 -4.90506e-08 -8.16039e-09 0.0005 1.46608e-07 
270 1 0.0330393 0.0180459 0.0156681 0.000189642 0.0210636 0.00586312 -5.49402e-10 7.33053e-09 -9.81482e-09 0.0005 1.46608e-07 
273 1 0.0371638 0.0187263 0.00573865 3.81399e-15 -1.81877e-14 8.99481e-14 1.8959e-20 -4.23516e-21 -1.48231e-21 0.0005 1.46608e-07 
274 1 0.0328558 0.0191954 0.00572294 8.84871e-16 5.06752e-15 -1.96344e-14 8.27181e-21 0 2.11758e-22 0.0005 1.46608e-07 
277 1 0.0447947 0.0190211 0.0157941 0.00288865 0.0120936 -0.00116028 -2.65913e-07 -9.16768e-07 2.073e-07 0.0005 1.46608e-07 
279 1 0.0283824 0.0147403 0.0111351 0.000596185 -0.00258651 0.0209553 -3.66023e-09 9.90556e-09 9.10988e-09 0.0005 1.46608e-07 
280 1 0.0430403 0.02321 0.0104335 0.000395446 -0.00546691 -0.0187289 -3.5586e-09 -1.33994e-08 -1.50171e-08 0.0005 1.46608e-07 
281 1 0.0424431 0.0217779 0.00818807 0.00237468 -0.0115958 -0.00806942 -9.26943e-09 -1.51035e-08 -8.41037e-09 0.0005 1.46608e-07 
283 1 0.0354772 0.0175912 0.00742052 0.000378569 -0.0180172 0.0071812 -3.90897e-09 -1.18131e-08 1.69595e-08 0.0005 1.46608e-07 
291 1 0.0350698 0.0188001 0.00572051 -7.12958e-15 -4.06745e-14 1.57631e-13 -4.31854e-20 1.00585e-21 -1.48231e-21 0.0005 1.46608e-07 
293 1 0.0156018 0.0230095 0.0135223 0.00560558 0.00178038 -0.00482288 -6.76005e-09 2.66865e-09 1.55079e-08 0.0005 1.46608e-07 
296 1 0.0288472 0.0154711 0.00913324 0.00252584 -0.00754982 0.0121166 3.07902e-05 -6.94367e-07 -1.36396e-05 0.0005 1.46608e-07 
298 1 0.0324193 0.0206908 0.0153928 7.01062e-05 0.019444 -0.00826741 -2.601e-10 8.8186e-10 -1.19261e-08 0.0005 1.46608e-07 
