ITEM: TIMESTEP
1000000
ITEM: NUMBER OF ATOMS
150
ITEM: BOX BOUNDS ff ff ff
-0.02 0.43
-0.02 0.06
-0.02 0.07
ITEM: ATOMS id type x y z vx vy vz fx fy fz radius mass 
1 1 0.021515 0.0235865 0.0144167 0.00267907 0.00341893 -0.0033522 7.04017e-06 4.72866e-06 8.03407e-06 0.0005 1.46608e-07 
2 1 0.0180514 0.0229965 0.0149283 0.000306415 2.22518e-05 0.00243355 -1.12645e-06 1.36739e-06 -2.23898e-06 0.0005 1.46608e-07 
3 1 0.0249806 0.0215756 0.0161008 0.00031235 -0.00101627 -0.000438178 -2.31526e-07 7.12338e-09 -9.52658e-08 0.0005 1.46608e-07 
4 1 0.0158042 0.0223012 0.0145176 0.0027539 0.00346493 -0.00429008 -7.09489e-08 7.49983e-07 -9.64599e-07 0.0005 1.46608e-07 
5 1 0.0233657 0.0165608 0.0151794 0.0050093 0.00119441 0.00128594 -1.35936e-08 -7.79845e-08 -3.2722e-08 0.0005 1.46608e-07 
6 1 0.0175554 0.014619 0.0119427 -0.000251219 0.00126016 -0.00211935 2.47894e-08 4.87212e-08 -1.4241e-08 0.0005 1.46608e-07 
7 1 0.0148563 0.0229363 0.0144751 0.00654078 0.00292264 -0.00413357 9.67848e-08 -3.01045e-07 3.10539e-07 0.0005 1.46608e-07 
8 1 0.0239953 0.0216188 0.0163317 -0.000178282 -0.000661885 -0.000447769 -3.73558e-07 -2.15189e-07 -2.67328e-07 0.0005 1.46608e-07 
9 1 0.0206752 0.0240369 0.0129593 0.000100995 0.000681501 -0.000671716 3.41929e-07 -1.24882e-06 1.2214e-06 0.0005 1.46608e-07 
10 1 0.0186209 0.0186955 0.00718566 0.00041526 -0.0217065 0.000502887 -7.27353e-08 2.39547e-07 -5.62475e-08 0.0005 1.46608e-07 
11 1 0.0153891 0.0229335 0.0136599 0.00425447 0.00185838 -0.00368464 3.24636e-07 1.71798e-07 1.72746e-09 0.0005 1.46608e-07 
12 1 0.0206362 0.0230497 0.00987957 0.00164379 -0.00723464 -0.0164919 -1.0316e-07 1.0685e-07 -3.69965e-08 0.0005 1.46608e-07 
13 1 0.016458 0.0237337 0.0136629 0.00166172 0.00116877 -0.00116779 -1.44721e-06 -4.11192e-07 -5.94002e-07 0.0005 1.46608e-07 
14 1 0.0174322 0.023651 0.0152422 1.72006e-05 -7.63664e-05 0.000663284 -6.4174e-07 6.1031e-07 -9.85346e-07 0.0005 1.46608e-07 
15 1 0.0231647 0.017535 0.0156774 2.97342e-05 0.0165637 0.00582282 -2.43778e-09 9.04196e-08 2.61811e-08 0.0005 1.46608e-07 
16 1 0.0182342 0.0142402 0.0125717 0.0193016 0.0106409 -0.0176403 6.79106e-08 1.39018e-07 -2.92832e-07 0.0005 1.46608e-07 
17 1 0.0215494 0.0238203 0.0132438 -0.000192633 0.000712484 -0.00077061 3.79231e-06 -1.44919e-06 5.98089e-06 0.0005 1.46608e-07 
18 1 0.0213151 0.0234105 0.012324 -0.000912963 0.00089106 0.000778992 -1.13526e-06 2.12546e-06 -4.44249e-06 0.0005 1.46608e-07 
19 1 0.0189634 0.0244417 0.0137036 4.70079e-05 5.98074e-05 -0.000235312 -1.17687e-06 -9.5954e-08 9.23171e-07 0.0005 1.46608e-07 
20 1 0.0223933 0.0163648 0.0150533 0.00156044 0.0126037 0.0101423 6.73735e-09 -2.05724e-08 -2.16275e-08 0.0005 1.46608e-07 
21 1 0.0209351 0.0233949 0.0111654 0.000628224 0.000581934 0.000390382 -9.39718e-07 2.42792e-07 -4.57792e-07 0.0005 1.46608e-07 
22 1 0.018751 0.0137429 0.0135204 0.000800323 0.000590817 -0.00209697 8.26588e-07 -1.88694e-07 -4.49531e-08 0.0005 1.46608e-07 
23 1 0.0184386 0.0240845 0.0129359 -1.19192e-05 3.9554e-06 -8.16682e-05 3.39175e-07 1.54191e-07 -3.68124e-07 0.0005 1.46608e-07 
24 1 0.0221752 0.017211 0.0155494 0.00302742 0.0081561 0.00442033 -2.03347e-08 8.61205e-08 3.81552e-08 0.0005 1.46608e-07 
25 1 0.0195287 0.0140111 0.012952 0.00104047 0.00104949 -0.00156426 -4.19539e-08 3.15254e-08 5.65636e-08 0.0005 1.46608e-07 
26 1 0.0160855 0.0225162 0.0154528 0.000352626 0.00126114 -0.0028212 4.12488e-07 8.31425e-07 9.21563e-07 0.0005 1.46608e-07 
27 1 0.0195207 0.0222223 0.00859541 0.0004137 -0.0131801 -0.0164819 9.16258e-09 -2.75875e-09 2.24653e-08 0.0005 1.46608e-07 
28 1 0.0180193 0.0143126 0.0138945 0.000799549 0.000337748 -0.00150917 -1.51405e-06 -2.59917e-08 -3.3343e-07 0.0005 1.46608e-07 
29 1 0.0173043 0.0225662 0.0154345 0.000535471 0.00157871 0.00133527 -2.71875e-06 -3.59098e-06 -7.8024e-07 0.0005 1.46608e-07 
30 1 0.0216793 0.0228733 0.0152629 0.000351921 0.0187672 -0.0410048 0 0 -1.43822e-06 0.0005 1.46608e-07 
31 1 0.0179806 0.0243904 0.0137626 0.000271565 -3.11732e-05 0.000265747 -8.68988e-07 7.32724e-07 -7.94951e-07 0.0005 1.46608e-07 
32 1 0.0204302 0.0236868 0.0138052 0.00067688 0.00274573 -0.00137143 -7.98723e-07 -1.42955e-07 -1.05446e-06 0.0005 1.46608e-07 
33 1 0.0223145 0.0218121 0.0157416 -0.0211008 0.0114122 -0.0617705 2.95295e-06 8.57551e-07 2.05814e-05 0.0005 1.46608e-07 
34 1 0.0180461 0.0162193 0.00823292 0.00109228 -0.0131377 0.0128064 -1.43059e-08 -3.37065e-08 1.69837e-08 0.0005 1.46608e-07 
35 1 0.0210754 0.0230499 0.0134375 -0.00154743 0.00348406 -0.00404564 -8.91275e-07 -4.46598e-06 -4.33002e-07 0.0005 1.46608e-07 
36 1 0.0211026 0.0243196 0.0139369 0.00017851 0.00101835 -0.000671085 1.22844e-07 -4.77928e-07 2.99527e-06 0.0005 1.46608e-07 
37 1 0.0218913 0.0186426 0.0159373 -1.36261e-11 0.0205142 0.00169278 -1.87168e-16 9.62411e-10 -1.36779e-08 0.0005 1.46608e-07 
38 1 0.0215759 0.0226379 0.0141227 0.00306459 0.00653027 -0.00774153 1.45836e-05 4.13853e-06 1.45742e-05 0.0005 1.46608e-07 
39 1 0.0243828 0.0222371 0.0156481 6.05651e-05 -0.000102801 0.000303656 3.80972e-07 4.41041e-07 4.77686e-07 0.0005 1.46608e-07 
40 1 0.0226915 0.0228291 0.0153398 -0.00486076 0.00344536 -0.00131019 5.04678e-07 -3.74792e-07 -1.80688e-06 0.0005 1.46608e-07 
41 1 0.0198956 0.0234108 0.0146155 0.00289114 0.00466263 -0.00791186 -3.82232e-06 8.2882e-06 8.36496e-07 0.0005 1.46608e-07 
42 1 0.0205099 0.0140676 0.0131385 0.000850181 0.000873981 -0.00107183 -5.99429e-07 3.90862e-07 -8.02198e-07 0.0005 1.46608e-07 
43 1 0.015785 0.0235215 0.0143632 0.00167065 0.000437243 -0.000792846 2.28865e-06 1.92493e-06 -1.6852e-06 0.0005 1.46608e-07 
44 1 0.0202517 0.0233267 0.0179662 0.0268235 0.0438415 0.127972 0 0 -1.43822e-06 0.0005 1.46608e-07 
45 1 0.0223658 0.0236663 0.0140184 0.000735707 0.0011276 -0.000762435 2.04467e-06 2.54556e-06 8.15141e-06 0.0005 1.46608e-07 
46 1 0.0217976 0.0233444 0.0161379 -0.0260609 0.00855788 -0.0206647 0 0 -1.43822e-06 0.0005 1.46608e-07 
47 1 0.0230106 0.0210833 0.0163657 -0.00804745 -0.00157634 -0.00132519 5.95526e-07 -8.51881e-08 -1.97779e-07 0.0005 1.46608e-07 
48 1 0.02221 0.0144475 0.0141166 -0.0010246 -0.00101042 0.000699696 -4.68669e-09 9.66719e-08 2.6174e-09 0.0005 1.46608e-07 
49 1 0.0183054 0.0235961 0.0142185 5.0914e-05 -0.000145531 0.00124303 -1.73607e-06 1.97247e-06 3.30952e-07 0.0005 1.46608e-07 
50 1 0.0221573 0.0232044 0.0129405 0.000213103 -0.000328875 -0.000405688 1.0857e-06 -5.35453e-07 1.73277e-06 0.0005 1.46608e-07 
51 1 0.0163366 0.0228005 0.0138673 0.00311028 0.0020096 -0.00350076 -3.19229e-07 5.49696e-07 -1.97943e-07 0.0005 1.46608e-07 
52 1 0.0199283 0.0244273 0.0134801 0.000238108 0.000623106 -0.00015871 -3.16543e-07 -1.9451e-07 3.70113e-07 0.0005 1.46608e-07 
53 1 0.0231105 0.0233115 0.0145606 0.000205092 0.000416771 -0.000166664 3.72945e-06 6.05885e-06 7.73569e-06 0.0005 1.46608e-07 
54 1 0.0201155 0.0234039 0.0111766 0.000994189 -0.00103425 -0.0152102 -2.04992e-06 -2.71516e-06 -8.22263e-06 0.0005 1.46608e-07 
55 1 0.0225038 0.0226332 0.0163068 -0.0129024 0.000819182 -0.047027 0 0 -1.43822e-06 0.0005 1.46608e-07 
56 1 0.0240096 0.0206355 0.0165131 -0.00163507 -0.000920901 -0.00210937 -3.80348e-08 -1.80938e-07 -1.56109e-07 0.0005 1.46608e-07 
57 1 0.0173424 0.0237192 0.014065 0.000603923 0.000331447 0.000694749 -1.68562e-06 3.5645e-07 -2.05618e-06 0.0005 1.46608e-07 
58 1 0.0199094 0.0231955 0.0102973 0.00114028 -0.00549554 -0.0160994 4.39606e-07 -7.54764e-07 -1.31218e-06 0.0005 1.46608e-07 
59 1 0.0229803 0.0220368 0.0148024 0.00135672 0.0019563 -0.000652758 1.83964e-06 2.13043e-06 -1.94312e-07 0.0005 1.46608e-07 
60 1 0.0190783 0.0207635 0.00757388 0.000133627 -0.0192424 -0.00830148 -4.96994e-10 -9.62992e-09 7.24653e-09 0.0005 1.46608e-07 
61 1 0.0168463 0.0230952 0.0146662 0.00147923 0.000371762 -0.0018665 -4.34345e-07 1.06832e-06 -1.98847e-06 0.0005 1.46608e-07 
62 1 0.0223113 0.0237032 0.0150163 0.000780601 0.000281475 -0.00253686 -1.75404e-06 -1.0317e-07 7.79329e-07 0.0005 1.46608e-07 
63 1 0.0195831 0.0237814 0.0154929 -0.00523374 -0.00385437 -0.00935074 0 0 -1.43822e-06 0.0005 1.46608e-07 
64 1 0.0231685 0.0153434 0.0139503 -0.000367394 -0.000364228 0.000306765 -2.292e-08 -1.38895e-07 -4.39173e-07 0.0005 1.46608e-07 
65 1 0.0213746 0.0142117 0.0136198 0.000281393 0.00148083 -0.00280953 -1.94626e-07 -3.84126e-08 8.85958e-07 0.0005 1.46608e-07 
66 1 0.0225782 0.0197369 0.0158957 -0.00760263 0.0103201 -0.0003108 -5.60221e-08 -1.75056e-06 5.39134e-07 0.0005 1.46608e-07 
67 1 0.0190522 0.024524 0.0172941 -0.0368783 0.00284663 0.0152699 3.93357e-07 -4.66627e-07 -1.14932e-06 0.0005 1.46608e-07 
68 1 0.0233146 0.022138 0.0157851 -0.0013914 0.00159098 0.00050908 2.31973e-08 -1.23525e-06 -9.55167e-07 0.0005 1.46608e-07 
69 1 0.0191191 0.0240043 0.0145737 5.69889e-06 0.000229281 -0.00035738 -1.98383e-06 1.84756e-06 1.71341e-06 0.0005 1.46608e-07 
70 1 0.0237215 0.0228295 0.0151882 6.48773e-05 -0.000200693 -0.000320819 -6.30942e-07 -7.61948e-07 -1.1127e-06 0.0005 1.46608e-07 
71 1 0.0182686 0.0222887 0.0156035 0.0014142 -1.03331e-05 0.00107549 -1.26838e-07 1.71585e-06 -7.99007e-07 0.0005 1.46608e-07 
72 1 0.0169647 0.0148155 0.0128961 0.00385986 0.00322656 0.00461636 4.50479e-07 1.22818e-06 -1.54831e-06 0.0005 1.46608e-07 
73 1 0.0203871 0.0234472 0.0120963 0.00209025 0.00353789 -0.0121155 -7.05651e-08 9.66375e-07 -5.0192e-06 0.0005 1.46608e-07 
74 1 0.0172403 0.0240324 0.013122 -9.24087e-06 -0.00157553 1.61876e-05 -1.54443e-06 -1.91934e-07 6.50421e-08 0.0005 1.46608e-07 
75 1 0.0190507 0.0230055 0.0149644 0.000575181 0.00850366 -0.00854561 3.39622e-07 4.63812e-07 -2.67653e-08 0.0005 1.46608e-07 
76 1 0.0142153 0.0227909 0.0152352 0.0111262 0.0159999 -0.0158649 2.51791e-09 -1.35082e-09 -1.7507e-08 0.0005 1.46608e-07 
77 1 0.0195756 0.0220838 0.0178184 0 0 -0.113743 0 0 -1.43822e-06 0.0005 1.46608e-07 
78 1 0.0242748 0.0212811 0.0172304 -0.000308902 -0.00270156 -0.0011628 3.05382e-07 1.13977e-08 -3.47976e-07 0.0005 1.46608e-07 
79 1 0.0223502 0.0202584 0.0167725 -0.00803857 0.0153348 -0.0183888 0 0 -1.43822e-06 0.0005 1.46608e-07 
80 1 0.0159109 0.0217769 0.016103 -0.00653713 0.00300268 -0.00285521 -1.41813e-07 -1.62004e-07 6.8465e-07 0.0005 1.46608e-07 
81 1 0.0222401 0.0208297 0.0155704 -0.00554322 0.0126889 -0.00582419 -2.24545e-06 6.6095e-07 -2.21022e-05 0.0005 1.46608e-07 
82 1 0.00670003 0.0222215 0.0349186 -0.0377853 -0.0197416 0.0780196 0 0 -1.43822e-06 0.0005 1.46608e-07 
83 1 0.02036 0.0206709 0.0165097 0.00218277 0.026688 -0.00846546 1.09638e-07 -4.8774e-08 -1.09053e-06 0.0005 1.46608e-07 
84 1 0.0198606 0.0142972 0.0138634 8.74746e-05 0.00109899 -0.0015585 -2.64134e-07 -7.22111e-08 1.00731e-07 0.0005 1.46608e-07 
85 1 0.0163497 0.0195255 0.0183963 0 0 -0.0399817 0 0 -1.43822e-06 0.0005 1.46608e-07 
86 1 0.0207228 0.0145865 0.014279 0.000791489 0.00174933 -0.00249173 -4.0877e-07 5.39826e-07 -3.36e-07 0.0005 1.46608e-07 
87 1 0.0176425 0.0157216 0.0144661 0.00709918 0.00262372 0.00561923 -1.38748e-07 -1.69942e-07 -8.36374e-07 0.0005 1.46608e-07 
88 1 0.0159553 0.0187338 0.0159463 -3.14724e-09 0.0205537 0.00126122 -2.23965e-16 9.60896e-10 -1.56601e-08 0.0005 1.46608e-07 
89 1 0.0219806 0.0220271 0.0148133 0.000867797 0.0105635 -0.00910826 1.79457e-06 -1.5491e-06 1.93149e-06 0.0005 1.46608e-07 
90 1 0.0182514 0.0163517 0.0158167 -0.676244 -0.410491 0.305604 0 0 -1.43822e-06 0.0005 1.46608e-07 
91 1 0.0163046 0.0211643 0.0154178 0.00304766 0.016306 -0.00895259 -9.03633e-07 -6.20329e-07 -2.63973e-07 0.0005 1.46608e-07 
92 1 0.0184745 0.0236788 0.015465 0.00044587 0.000321524 0.000810257 -3.77702e-06 3.04853e-07 1.15484e-06 0.0005 1.46608e-07 
93 1 0.0175879 0.0219519 0.0163071 0.0227421 0.0230272 -0.0491268 4.96191e-07 1.88358e-06 1.25696e-07 0.0005 1.46608e-07 
94 1 0.0140291 -0.0187236 -0.0032751 -0.0163288 -0.176249 -0.991284 0 0 -1.43822e-06 0.0005 1.46608e-07 
95 1 0.0203577 0.0243088 0.0170707 4.13298e-05 0.0157947 0.0446158 -1.14905e-07 -3.2135e-07 -1.04861e-06 0.0005 1.46608e-07 
96 1 0.0175262 0.0151485 0.0136537 0.00649908 0.00400794 -0.00210632 -1.36106e-06 -3.00439e-07 -9.11889e-08 0.0005 1.46608e-07 
97 1 0.0151177 0.0228289 0.0157686 0.000439447 0.000407194 -6.57782e-05 -1.07872e-07 7.86963e-07 1.3363e-06 0.0005 1.46608e-07 
98 1 0.0235458 0.0193744 0.0159366 0.00162589 0.00623714 -0.0013796 -8.633e-08 7.72661e-07 -1.84097e-07 0.0005 1.46608e-07 
99 1 0.0180086 0.0239825 0.0163196 -0.0451725 -0.00963695 -0.0110354 4.04124e-07 -4.84861e-07 -1.17333e-06 0.0005 1.46608e-07 
100 1 0.0213818 0.0217788 0.0179898 0.0216194 -0.00407964 0.0129115 0 0 -1.43822e-06 0.0005 1.46608e-07 
101 1 0.0156719 0.0202391 0.0157839 0.00339097 -0.00396292 0.0004434 -1.79507e-07 1.29146e-06 -1.23601e-07 0.0005 1.46608e-07 
102 1 0.0170231 0.0211499 0.0161131 0.00814004 0.0247402 -0.0142777 -3.74519e-07 -1.45655e-06 -2.11634e-06 0.0005 1.46608e-07 
103 1 0.0179336 0.0208767 0.0164235 0.00604637 0.023526 -0.00845851 -6.60736e-07 4.49976e-07 -2.9798e-07 0.0005 1.46608e-07 
104 1 0.0207868 0.0230046 0.0145947 0.00379229 0.00876039 -0.0106108 -4.46457e-06 8.00183e-06 -8.28676e-06 0.0005 1.46608e-07 
105 1 0.0166753 0.0154402 0.0140905 0.00498995 -0.00016067 -0.000396101 5.23215e-07 -1.82936e-07 -2.32278e-08 0.0005 1.46608e-07 
106 1 0.0151672 0.0235978 0.0151391 0.00145787 0.000442137 -0.000394976 2.48804e-06 8.74096e-07 -3.64792e-06 0.0005 1.46608e-07 
107 1 0.015098 0.0220518 0.0151504 0.0031325 0.00450497 -0.0047112 1.19102e-07 1.84637e-07 4.4156e-08 0.0005 1.46608e-07 
108 1 0.0231334 0.0212394 0.0153857 0.00208134 0.000691253 -0.000583597 2.10585e-06 -3.42275e-07 2.49814e-07 0.0005 1.46608e-07 
109 1 0.0224373 0.0233857 0.0172803 -0.0327052 0.00955834 -0.0101947 0 0 -1.43822e-06 0.0005 1.46608e-07 
110 1 0.0167365 0.0220595 0.0147859 0.00300487 0.00629231 -0.00374518 8.18224e-07 -3.11744e-06 1.49028e-06 0.0005 1.46608e-07 
111 1 0.0164708 0.0161007 0.0148247 0.0050137 0.000420664 -8.20099e-05 3.35393e-08 -1.24686e-07 -9.05826e-08 0.0005 1.46608e-07 
112 1 0.0166576 0.0197725 0.0166575 -0.0518853 -0.0315138 -0.0298868 0 0 -1.43822e-06 0.0005 1.46608e-07 
113 1 0.0161711 0.0234982 0.0152852 0.00287846 0.00104436 -0.000726263 6.16446e-08 6.29644e-07 -1.0877e-07 0.0005 1.46608e-07 
114 1 0.0175951 0.0229525 0.016311 0.00175814 0.0227984 -0.0106583 0 0 -1.43822e-06 0.0005 1.46608e-07 
115 1 0.0168676 0.023676 0.0161015 0.00364522 -0.0170913 -0.0301701 3.46697e-07 -2.13244e-07 -8.5431e-07 0.0005 1.46608e-07 
116 1 0.0170859 0.0141125 0.0135968 0.000519779 -0.000458075 0.000702068 4.49958e-07 -2.95665e-07 7.2688e-07 0.0005 1.46608e-07 
117 1 0.0187831 0.0214367 0.0161738 1.75894e-05 0.0227283 -0.0115643 6.76149e-10 2.06884e-08 -3.13905e-08 0.0005 1.46608e-07 
118 1 0.0233626 0.0203428 0.0157643 0.00269863 0.00146742 -0.000226987 -1.61474e-06 -2.66998e-06 6.72019e-07 0.0005 1.46608e-07 
119 1 0.0183792 0.0205317 0.0186623 -0.0331958 -0.138849 0.0540004 0 0 -1.43822e-06 0.0005 1.46608e-07 
120 1 0.0213026 0.021271 0.0153826 0.00588497 0.0304291 -0.014415 0 0 -1.43822e-06 0.0005 1.46608e-07 
121 1 0.01973 0.0148875 0.01466 0.000522419 -0.0014968 -0.000978999 -4.35402e-08 -3.73998e-07 -4.44848e-07 0.0005 1.46608e-07 
122 1 0.0225112 0.0226815 0.0141992 0.00110675 0.00177272 -0.0012206 1.48644e-05 -2.30154e-06 2.75911e-05 0.0005 1.46608e-07 
123 1 0.0192668 0.0222721 0.0156608 0.00585303 0.0226355 -0.0174655 -1.06204e-06 9.5034e-07 2.22846e-07 0.0005 1.46608e-07 
124 1 0.0215596 0.0148772 0.014743 -4.56652e-05 -0.00153752 0.00210083 -1.19062e-07 -3.97348e-07 -8.94805e-08 0.0005 1.46608e-07 
125 1 0.0230153 0.0146645 0.0146682 -0.000626215 -0.000776032 4.62363e-05 -1.12105e-07 3.58569e-08 -7.56371e-07 0.0005 1.46608e-07 
126 1 0.0181182 0.0198739 0.0166832 -0.0121477 0.0212937 -0.00265543 5.07157e-07 3.51164e-07 -1.06955e-07 0.0005 1.46608e-07 
127 1 0.0210262 0.0208862 0.0184486 0 -0 -0.03 0 0 0 0.0005 1.46608e-07 
128 1 0.0210176 0.0214938 0.0163639 -0.0078573 0.0464247 0.0110079 0 0 -1.43822e-06 0.0005 1.46608e-07 
129 1 0.0153062 0.0211151 0.0154409 0.00293087 0.00983859 -0.00590649 -3.72266e-07 6.43364e-07 -1.33514e-06 0.0005 1.46608e-07 
130 1 0.019617 0.0155411 0.0154089 -0.00200891 -0.00133699 0.000211556 6.30724e-08 -2.03765e-07 -1.36978e-07 0.0005 1.46608e-07 
131 1 0.0196976 0.0194351 0.0185016 0 -0 -0.03 0 0 0 0.0005 1.46608e-07 
132 1 0.0203253 0.0211173 0.0174069 0.0104611 0.0379609 -0.0123338 0 0 -1.43822e-06 0.0005 1.46608e-07 
133 1 0.0215973 0.0231267 0.0178849 -0.0148275 0.0605383 0.0722574 0 0 -1.43822e-06 0.0005 1.46608e-07 
134 1 0.0215697 0.0201278 0.0158121 -0.0086278 0.0163443 -0.00419672 7.71013e-07 6.23403e-07 -1.53142e-07 0.0005 1.46608e-07 
135 1 0.0250188 0.0206174 0.0165039 -1.49051e-07 0.0235143 -0.00746331 2.1459e-10 -5.94854e-09 -1.57878e-08 0.0005 1.46608e-07 
136 1 0.0183155 0.0221381 0.0176739 -0.0879282 0.00351364 0.0173031 0 0 -1.43822e-06 0.0005 1.46608e-07 
137 1 0.0189472 0.0144163 0.0142524 0.000232441 0.00105271 -0.00230505 1.49957e-06 1.03278e-06 9.60213e-07 0.0005 1.46608e-07 
138 1 0.0213313 0.0181362 0.0189002 0 -0 -0.03 0 0 0 0.0005 1.46608e-07 
139 1 0.0193645 0.0201524 0.0166485 0.0125636 0.000457202 0.00232239 -2.52639e-07 7.06599e-07 -1.90898e-07 0.0005 1.46608e-07 
140 1 0.0166723 0.0202568 0.0157799 0.00293136 0.0181604 -0.00532264 -3.63745e-07 4.26508e-07 -1.18889e-07 0.0005 1.46608e-07 
141 1 0.0210034 0.0221349 0.014631 0.00154586 0.0102668 -0.011287 -5.0943e-06 1.00874e-05 -7.05408e-06 0.0005 1.46608e-07 
142 1 0.0236825 0.0183838 0.0158928 0.00241129 0.00412212 3.1778e-05 -1.09477e-07 5.12115e-07 -5.0681e-08 0.0005 1.46608e-07 
143 1 0.019886 0.0165115 0.0183426 0 0 -0.0515084 0 0 -1.43822e-06 0.0005 1.46608e-07 
144 1 0.0207414 0.0238019 0.0149533 0.00180767 0.00408974 -0.004304 -1.16707e-06 1.99827e-06 -2.19156e-06 0.0005 1.46608e-07 
145 1 0.0186011 0.0230882 0.0162676 0.00335814 -0.0152742 -0.000817552 0 0 -1.43822e-06 0.0005 1.46608e-07 
146 1 0.0185288 0.0151361 0.0136269 0.00779911 -0.0129195 -0.0310417 -6.02344e-08 -4.4224e-07 -7.89764e-07 0.0005 1.46608e-07 
147 1 0.0198269 0.0214679 0.0161832 -0.000176601 0.0240199 -0.012385 -4.01204e-09 3.84432e-08 -4.45544e-08 0.0005 1.46608e-07 
148 1 0.0172686 0.019404 0.0159323 -5.42888e-05 0.0203377 -0.00175011 1.00698e-08 4.1994e-08 -1.46856e-08 0.0005 1.46608e-07 
149 1 0.0240632 0.0159987 0.0147278 -0.00564058 -0.0042491 -0.00464212 -3.02171e-08 -3.5977e-08 2.91546e-09 0.0005 1.46608e-07 
150 1 0.0221518 0.0214302 0.016974 -0.0221228 -0.0614903 -0.0727737 0 0 -1.43822e-06 0.0005 1.46608e-07 
