ITEM: TIMESTEP
56800000
ITEM: NUMBER OF ATOMS
88
ITEM: BOX BOUNDS ff ff ff
-0.02 0.43
-0.02 0.06
-0.02 0.07
ITEM: ATOMS id type x y z vx vy vz fx fy fz radius mass 
1 1 0.0387146 0.0187573 0.00575718 -8.68244e-15 7.85684e-14 2.00897e-13 -6.61744e-24 1.05879e-21 -4.23516e-22 0.0005 1.46608e-07 
2 1 0.0538497 0.0149012 0.0125892 0.000118248 0.00468291 0.022139 1.54091e-10 1.30734e-08 2.57328e-09 0.0005 1.46608e-07 
3 1 0.0657504 0.019873 0.00578573 -1.36711e-15 3.97327e-14 -1.45083e-13 -3.20053e-20 -5.29396e-23 2.11758e-22 0.0005 1.46608e-07 
8 1 0.102543 0.017821 0.00581645 -9.78454e-16 -4.35261e-15 -1.20042e-13 1.07533e-22 -1.32349e-23 0 0.0005 1.46608e-07 
9 1 0.0387828 0.0214812 0.00622724 -2.69997e-19 1.05199e-18 -5.70181e-18 -1.8198e-23 4.96308e-23 0 0.0005 1.46608e-07 
14 1 0.191105 0.0203026 0.00593314 -1.12288e-14 -4.37986e-14 9.73368e-14 1.11173e-21 9.52912e-22 4.23516e-22 0.0005 1.46608e-07 
18 1 0.081805 0.0184766 0.00581164 4.51403e-15 1.52773e-14 6.47199e-14 -8.4968e-21 6.88214e-22 4.23516e-22 0.0005 1.46608e-07 
26 1 0.10448 0.0180949 0.00580371 1.49613e-14 2.23528e-14 -1.76079e-13 -3.99694e-20 7.90917e-20 4.02341e-21 0.0005 1.46608e-07 
28 1 0.0649475 0.0174674 0.0155193 0.000190139 0.0199394 0.00991655 -4.15911e-09 1.24429e-08 -7.22869e-09 0.0005 1.46608e-07 
32 1 0.0458896 0.0168235 0.00626774 -4.52711e-15 -2.52971e-14 -1.74151e-13 1.74701e-21 1.32349e-22 0 0.0005 1.46608e-07 
34 1 0.0564645 0.0213699 0.00635393 -8.2701e-16 -1.50251e-14 3.21067e-14 8.37504e-20 4.88103e-20 1.96935e-20 0.0005 1.46608e-07 
38 1 0.0696417 0.0226998 0.0137985 0.000538493 0.00726657 -0.0114737 -6.13996e-09 -1.06635e-08 2.21696e-08 0.0005 1.46608e-07 
46 1 0.136461 0.0187737 0.0058834 2.11138e-15 3.09358e-15 -2.90497e-14 -7.69741e-20 2.53051e-20 -2.11758e-21 0.0005 1.46608e-07 
48 1 0.0746605 0.0229154 0.00954753 0.00149898 -0.0064161 -0.0153581 2.07383e-08 1.06608e-08 4.93045e-08 0.0005 1.46608e-07 
54 1 0.0642637 0.0197348 0.005762 -1.624e-15 4.68993e-14 -1.71253e-13 3.97047e-22 -1.05879e-22 0 0.0005 1.46608e-07 
56 1 0.0830301 0.0197432 0.00609207 1.59239e-14 4.46517e-14 -1.91799e-13 2.66021e-21 -9.52912e-22 0 0.0005 1.46608e-07 
59 1 0.0793161 0.0192087 0.00581236 1.53389e-14 5.18578e-14 2.19688e-13 9.14399e-20 -6.55392e-20 7.83505e-21 0.0005 1.46608e-07 
64 1 0.0170063 0.0201419 0.00601043 1.30171e-14 5.25229e-15 -1.07338e-13 1.2957e-19 -6.84641e-20 1.18585e-20 0.0005 1.46608e-07 
65 1 0.0631812 0.0196943 0.00577453 3.97179e-15 5.47613e-14 -1.51839e-13 -2.64698e-23 0 0 0.0005 1.46608e-07 
66 1 0.0448733 0.0164686 0.00634571 -2.62614e-17 -1.41533e-16 -9.78796e-16 -5.29396e-22 -3.70577e-22 0 0.0005 1.46608e-07 
68 1 0.0769561 0.0175436 0.0154744 0.000390463 0.0194422 0.00711289 -3.57086e-09 1.03634e-08 -6.547e-09 0.0005 1.46608e-07 
70 1 0.06602 0.0148128 0.0120626 0.00068413 0.00206173 0.0175258 -1.53326e-08 2.28963e-08 6.84961e-08 0.0005 1.46608e-07 
74 1 0.0582604 0.0205771 0.015505 0.00336314 0.0094434 -0.00330231 1.28705e-06 -8.13968e-06 3.62396e-06 0.0005 1.46608e-07 
82 1 0.0593669 0.0160326 0.0146225 0.00162816 0.00996716 0.0112659 -8.6221e-08 2.26554e-08 -3.17099e-08 0.0005 1.46608e-07 
83 1 0.0778584 0.0149707 0.0125085 -3.45447e-07 0.00467161 0.0213801 6.49502e-10 1.18667e-08 9.26544e-11 0.0005 1.46608e-07 
86 1 0.0829173 0.0222111 0.0066532 2.5257e-15 -1.23274e-14 5.62305e-14 1.076e-20 -3.22931e-21 -8.47033e-22 0.0005 1.46608e-07 
88 1 0.0357086 0.0161117 0.00660683 -4.37714e-15 2.81908e-14 7.49224e-14 8.02961e-20 3.89106e-20 -9.95264e-21 0.0005 1.46608e-07 
89 1 0.0616142 0.0194373 0.00577883 -3.50665e-15 -1.56475e-14 -1.12063e-13 -3.01755e-21 -1.85288e-22 2.11758e-22 0.0005 1.46608e-07 
90 1 0.059617 0.0152828 0.0135735 -0.000277082 0.00579258 0.00980062 1.87196e-09 6.59216e-09 -1.94116e-09 0.0005 1.46608e-07 
93 1 0.0709261 0.0175516 0.0155117 0.00126839 0.0161014 0.00480181 2.36358e-08 7.97114e-08 -5.64696e-09 0.0005 1.46608e-07 
100 1 0.0829966 0.0186949 0.00584523 -1.58955e-14 -4.43651e-14 1.90565e-13 -1.5723e-20 -5.0822e-21 -2.11758e-21 0.0005 1.46608e-07 
106 1 0.0439552 0.0161318 0.00656318 1.95575e-16 -2.75165e-15 -2.89971e-15 4.89691e-22 1.05879e-22 0 0.0005 1.46608e-07 
107 1 0.0782305 0.0203396 0.00602091 7.00279e-15 1.93618e-14 -3.62336e-14 -5.29396e-23 0 4.23516e-22 0.0005 1.46608e-07 
108 1 0.0820549 0.0194844 0.00595083 -1.68047e-14 -4.44946e-14 1.90459e-13 7.59815e-20 -5.43107e-19 -1.15408e-19 0.0005 1.46608e-07 
109 1 0.0732237 0.018766 0.005768 1.04062e-14 -5.92017e-14 -1.63383e-13 3.7918e-20 4.65868e-21 -2.11758e-22 0.0005 1.46608e-07 
112 1 0.0634303 0.0187262 0.00581245 1.33538e-12 -7.57753e-13 -1.59943e-13 4.93104e-15 -1.85499e-15 7.20321e-17 0.0005 1.46608e-07 
113 1 0.0683032 0.0181933 0.00578444 2.26931e-15 4.39353e-15 1.52498e-13 8.12291e-21 -3.28887e-21 0 0.0005 1.46608e-07 
121 1 0.0605185 0.0151818 0.00958648 0.00405288 -0.00142621 -0.00326234 -8.5858e-07 -2.09344e-07 -4.59289e-07 0.0005 1.46608e-07 
124 1 0.0606894 0.0189134 0.00588092 -5.1289e-15 -2.31947e-14 -1.66018e-13 1.57277e-19 -2.60727e-20 -1.27055e-21 0.0005 1.46608e-07 
125 1 0.0629837 0.0168715 0.00613737 -3.86759e-16 3.70497e-14 9.33834e-14 5.90111e-21 -2.11758e-22 2.11758e-22 0.0005 1.46608e-07 
126 1 0.0286258 0.0183498 0.00592583 -1.94458e-14 1.59572e-16 -2.28119e-13 -1.58819e-22 7.65725e-20 2.11758e-22 0.0005 1.46608e-07 
127 1 0.0862115 0.0201056 0.00585272 2.60516e-15 -1.48765e-14 1.99835e-13 6.68031e-21 -1.25731e-21 0 0.0005 1.46608e-07 
129 1 0.050621 0.0228163 0.00961585 0.000111719 -0.00933032 -0.0194609 -6.33423e-10 -1.12747e-08 1.57908e-09 0.0005 1.46608e-07 
132 1 0.0619216 0.0173346 0.00606283 -1.9236e-15 -8.58527e-15 -6.14796e-14 9.72764e-22 0 0 0.0005 1.46608e-07 
134 1 0.0638574 0.0173291 0.00596748 -7.36543e-15 -1.81925e-14 -1.43647e-13 1.08526e-21 -2.64698e-23 -2.11758e-22 0.0005 1.46608e-07 
137 1 0.0238948 0.0168123 0.00667048 -1.55904e-14 -3.19688e-14 -1.04791e-13 7.14684e-22 5.29396e-22 -2.11758e-22 0.0005 1.46608e-07 
142 1 0.0470176 0.01787 0.0060864 -3.12575e-15 -1.74654e-14 -1.20236e-13 -1.85288e-22 -1.32349e-22 0 0.0005 1.46608e-07 
146 1 0.0388539 0.0197419 0.00587248 -2.81887e-15 1.34634e-14 -6.6567e-14 -2.05141e-22 0 0 0.0005 1.46608e-07 
149 1 0.0766607 0.0190533 0.00580856 -9.18728e-15 5.49354e-14 2.11158e-13 -7.8066e-20 2.09641e-20 -1.10114e-20 0.0005 1.46608e-07 
159 1 0.0779381 0.019417 0.00576935 1.89662e-15 -1.14416e-14 -4.39174e-14 -2.64698e-23 1.05879e-22 2.11758e-22 0.0005 1.46608e-07 
160 1 0.0612866 0.0181088 0.00597459 -5.19414e-15 -2.3183e-14 -1.66017e-13 3.44107e-22 -1.32349e-22 0 0.0005 1.46608e-07 
163 1 0.0424878 0.0188132 0.00581899 -4.51452e-15 1.30452e-14 7.16622e-14 4.63221e-22 -4.23516e-22 2.11758e-22 0.0005 1.46608e-07 
165 1 0.0920805 0.0205253 0.0059177 -7.84821e-15 -7.28946e-14 1.85342e-13 0 0 0 0.0005 1.46608e-07 
174 1 0.080281 0.0175207 0.00840928 2.94872e-05 -0.0093912 0.00488283 6.45166e-11 -3.24602e-08 1.76955e-08 0.0005 1.46608e-07 
182 1 0.055651 0.0177812 0.00595299 -1.15969e-14 -1.57667e-14 -2.24476e-13 -2.70521e-20 2.8455e-20 -1.05879e-21 0.0005 1.46608e-07 
187 1 0.102423 0.0196788 0.00582979 1.4972e-15 2.27738e-15 -1.78447e-14 -5.691e-20 2.32405e-20 -1.27055e-21 0.0005 1.46608e-07 
189 1 0.0453636 0.0157749 0.00687326 2.74896e-17 -5.64912e-16 -6.89781e-16 1.05879e-22 2.64698e-22 0 0.0005 1.46608e-07 
193 1 0.377396 0.0175106 0.00841152 2.67472e-05 -0.00223782 0.00188653 8.38671e-11 -4.91051e-08 1.15399e-08 0.0005 1.46608e-07 
195 1 0.0507369 0.0203921 0.00594173 -5.69621e-15 -2.04908e-14 -3.07615e-13 -4.06874e-20 1.06011e-20 0 0.0005 1.46608e-07 
198 1 0.061486 0.0186371 0.00737744 0.00159992 -0.0221965 0.00554983 3.39034e-08 -9.74972e-08 3.83788e-08 0.0005 1.46608e-07 
201 1 0.0440263 0.0170728 0.00623272 2.29638e-16 -6.63859e-16 -3.64347e-15 1.98523e-22 0 0 0.0005 1.46608e-07 
209 1 0.0675361 0.0186922 0.00728357 0.000304946 -0.021896 0.00136528 -5.12474e-09 -5.21764e-09 8.60207e-09 0.0005 1.46608e-07 
213 1 0.0736126 0.0189958 0.00731463 0.000186943 -0.021376 0.000350035 -1.3702e-09 -4.35607e-09 1.0937e-08 0.0005 1.46608e-07 
215 1 0.0824647 0.0205875 0.00624167 -1.14412e-14 -3.20892e-14 1.3783e-13 3.09696e-21 2.11758e-22 4.23516e-22 0.0005 1.46608e-07 
221 1 0.059059 0.0180876 0.00593586 7.19402e-15 -1.49182e-14 -1.8349e-13 2.05141e-21 -4.27487e-21 6.35275e-22 0.0005 1.46608e-07 
223 1 0.0629561 0.0178561 0.00594695 -1.27449e-12 8.58717e-13 -1.27172e-14 -4.95069e-15 1.77855e-15 -5.42719e-17 0.0005 1.46608e-07 
226 1 0.0316007 0.0183082 0.00603438 1.31732e-14 -4.47391e-14 -1.10002e-13 1.74965e-20 1.88465e-20 -5.71747e-21 0.0005 1.46608e-07 
227 1 0.0550134 0.0165667 0.00800863 0.00395236 0.00273769 -0.00686689 -1.01415e-07 2.17587e-07 -4.29926e-07 0.0005 1.46608e-07 
229 1 0.0215463 0.0196109 0.00592744 -1.81493e-14 8.1435e-15 -1.66091e-13 0 0 0 0.0005 1.46608e-07 
240 1 0.0643088 0.0182312 0.00583009 -7.36454e-15 -1.81921e-14 -1.43647e-13 -2.51463e-22 0 0 0.0005 1.46608e-07 
242 1 0.062354 0.0187526 0.0058513 -3.50628e-15 -1.56489e-14 -1.12062e-13 6.61744e-24 0 0 0.0005 1.46608e-07 
245 1 0.0720024 0.014845 0.0120907 -0.000236988 0.0008978 0.0222704 3.08369e-09 1.13738e-08 1.45629e-09 0.0005 1.46608e-07 
246 1 0.0242602 0.0201274 0.00583803 -1.07556e-14 -1.726e-15 1.75368e-13 0 0 0 0.0005 1.46608e-07 
256 1 0.0563346 0.0219044 0.00825194 0.000356367 -0.0154669 -0.0131721 -1.63421e-09 -1.27207e-08 1.90746e-09 0.0005 1.46608e-07 
257 1 0.0473258 0.0162352 0.0147407 0.000214373 0.016118 0.0143067 -2.16842e-09 1.11451e-08 -5.44704e-09 0.0005 1.46608e-07 
258 1 0.052826 0.0180891 0.0156923 0.000399506 0.0189643 0.0034915 -2.68202e-09 1.59385e-08 -6.85724e-09 0.0005 1.46608e-07 
270 1 0.0504712 0.0179279 0.00611076 -3.70005e-15 -1.32326e-14 -1.98725e-13 -1.35988e-21 9.26442e-23 0 0.0005 1.46608e-07 
273 1 0.0371638 0.0187263 0.00573865 3.83927e-15 -1.81886e-14 8.99468e-14 2.31677e-20 2.8058e-21 -1.05879e-21 0.0005 1.46608e-07 
274 1 0.0328558 0.0191954 0.00572294 8.81287e-16 5.06752e-15 -1.96345e-14 -7.51742e-21 0 -4.23516e-22 0.0005 1.46608e-07 
277 1 0.044465 0.0204317 0.00594645 -2.75749e-15 2.5331e-14 -8.03142e-14 -5.16359e-20 -2.60992e-20 -6.56451e-21 0.0005 1.46608e-07 
279 1 0.0557008 0.0194081 0.00738416 -0.000631666 -0.0218997 -0.00225825 3.04149e-10 -5.16241e-09 -1.16132e-09 0.0005 1.46608e-07 
280 1 0.066033 0.0188309 0.00577203 2.18232e-15 -1.03758e-14 -1.76838e-13 -4.57001e-20 -7.04096e-21 -2.11758e-22 0.0005 1.46608e-07 
281 1 0.0833983 0.0210192 0.00634375 2.36845e-14 -4.0253e-14 1.90901e-13 7.72918e-21 7.19978e-21 8.47033e-22 0.0005 1.46608e-07 
283 1 0.0635639 0.0172407 0.00855763 -0.00086389 0.0132176 -0.0054738 1.02789e-08 1.31519e-08 -4.6738e-08 0.0005 1.46608e-07 
291 1 0.0350698 0.0188001 0.00572051 -7.10608e-15 -4.06709e-14 1.57633e-13 -2.46434e-20 3.22931e-21 -2.11758e-22 0.0005 1.46608e-07 
293 1 0.0516043 0.0227495 0.0136198 0.00135059 0.00725507 -0.0140185 1.05372e-08 -3.25778e-08 4.61623e-08 0.0005 1.46608e-07 
296 1 0.0667523 0.0199335 0.00579279 2.92659e-16 -9.53806e-15 3.48316e-14 8.17817e-20 4.60574e-21 4.23516e-22 0.0005 1.46608e-07 
298 1 0.0635756 0.022799 0.0135282 0.00435952 0.00327293 -0.0102079 5.45292e-08 6.38304e-08 -1.37133e-07 0.0005 1.46608e-07 
