ITEM: TIMESTEP
17600000
ITEM: NUMBER OF ATOMS
89
ITEM: BOX BOUNDS ff ff ff
-0.02 0.43
-0.02 0.06
-0.02 0.07
ITEM: ATOMS id type x y z vx vy vz fx fy fz radius mass 
1 1 0.0400553 0.017968 0.00612374 -0.00900726 0.0633575 -0.0251664 2.41957e-08 -9.25128e-08 3.72242e-08 0.0005 1.46608e-07 
2 1 0.0214436 0.0143164 0.0134892 0.00327341 -0.000646481 0.0053454 -6.29907e-07 -5.89442e-08 -1.11002e-06 0.0005 1.46608e-07 
3 1 0.0402273 0.0158134 0.00871408 0.000355692 -0.0132901 0.0159414 -2.90402e-09 2.92706e-09 1.2416e-08 0.0005 1.46608e-07 
8 1 0.0413815 0.0202068 0.00732458 0.000877709 -0.0183686 -0.00436928 -1.63407e-08 -5.40262e-08 -7.8134e-09 0.0005 1.46608e-07 
9 1 0.0436892 0.020408 0.00596775 2.41434e-15 -2.04477e-14 6.48838e-14 1.0707e-20 -3.91753e-21 -1.48231e-21 0.0005 1.46608e-07 
14 1 0.0241384 0.022878 0.00948585 0.0034956 -0.0035136 -0.00307653 4.64062e-08 2.03416e-08 -1.17257e-08 0.0005 1.46608e-07 
18 1 0.08261 0.0191091 0.00590955 -1.79425e-14 -5.0517e-14 2.16944e-13 -1.10657e-19 -1.28802e-19 -4.63751e-20 0.0005 1.46608e-07 
26 1 0.103453 0.0178822 0.00580682 1.82605e-15 7.49174e-15 2.07276e-13 -8.74661e-21 -1.96538e-20 6.35275e-22 0.0005 1.46608e-07 
28 1 0.0299983 0.0225292 0.00894818 0.00134928 -0.0059513 -0.00746217 -4.23755e-11 2.27238e-08 -6.9919e-09 0.0005 1.46608e-07 
32 1 0.0458019 0.0165106 0.00631547 2.39361e-15 1.33714e-14 9.20546e-14 -5.88953e-22 -4.49986e-22 0 0.0005 1.46608e-07 
34 1 0.0404923 0.016523 0.00801861 0.00346762 -0.0077675 0.00828327 -8.6427e-09 -6.41494e-09 -6.74099e-09 0.0005 1.46608e-07 
38 1 0.0311182 0.0225656 0.013868 -0.000478381 0.00908442 -0.0120859 -1.81813e-09 8.64699e-10 -6.20767e-09 0.0005 1.46608e-07 
46 1 0.0330073 0.0155125 0.0139564 4.65143e-05 0.0119994 0.0193577 1.58597e-10 1.07603e-08 -4.9048e-09 0.0005 1.46608e-07 
48 1 0.0369627 0.0231064 0.0129687 0.000348512 0.00715837 -0.0198641 -4.18935e-09 -3.60255e-09 -1.18424e-08 0.0005 1.46608e-07 
54 1 0.0357899 0.0220232 0.00838075 0.00206582 -0.00670006 -0.007098 -1.28864e-08 1.24471e-08 7.69296e-09 0.0005 1.46608e-07 
56 1 0.0424052 0.0233186 0.0107663 0.000342314 -0.00279819 -0.0136378 1.26092e-07 6.15342e-07 1.1219e-06 0.0005 1.46608e-07 
59 1 0.0394788 0.0148078 0.011812 6.01491e-05 0.00106164 0.0217471 -8.24997e-10 1.14005e-08 3.88814e-09 0.0005 1.46608e-07 
64 1 0.0170063 0.0201419 0.00601043 1.30214e-14 5.25878e-15 -1.07337e-13 -9.71441e-21 6.10128e-21 -1.69407e-21 0.0005 1.46608e-07 
65 1 0.0365217 0.0233732 0.0112486 0.000240359 -0.000678214 -0.0216786 -1.91341e-09 -9.39908e-09 -7.98047e-09 0.0005 1.46608e-07 
66 1 0.0426013 0.0234055 0.0116354 0.000618633 0.00145456 -0.0192078 -1.37655e-07 -7.56558e-08 -9.60624e-08 0.0005 1.46608e-07 
68 1 0.0381774 0.0187567 0.0157055 -0.000977841 0.0208929 0.00301118 6.34152e-09 1.84599e-08 -3.47259e-08 0.0005 1.46608e-07 
70 1 0.0314065 0.021869 0.0147808 0.000860999 0.01407 -0.0105251 3.02084e-06 -1.91147e-06 -1.88577e-06 0.0005 1.46608e-07 
74 1 0.0187709 0.0143519 0.0138724 0.00107092 -0.00214704 0.000909012 7.64824e-09 -1.14355e-08 -2.28733e-08 0.0005 1.46608e-07 
82 1 0.0208921 0.02304 0.0134624 -0.00646295 0.00094088 -0.00349329 5.84759e-09 1.36044e-08 -1.61935e-08 0.0005 1.46608e-07 
83 1 0.0399859 0.0151099 0.00975741 7.88496e-05 -0.0105915 0.0195925 2.80949e-10 9.19945e-09 7.52377e-09 0.0005 1.46608e-07 
86 1 0.0362258 0.0229994 0.009838 0.000241102 -0.00837311 -0.0185544 -1.35851e-09 -1.23456e-08 -2.74552e-09 0.0005 1.46608e-07 
88 1 0.0205096 0.0140335 0.0132163 0.000435793 0.000882526 -0.00180764 8.81129e-08 1.36611e-07 -2.56546e-07 0.0005 1.46608e-07 
89 1 0.0408646 0.0181473 0.0072922 0.000322742 -0.0194987 0.00477902 -3.28969e-09 -8.58739e-09 1.19034e-08 0.0005 1.46608e-07 
90 1 0.023431 0.020325 0.00758928 -0.00113236 -0.0215134 -0.00817694 4.19113e-07 -3.05756e-07 -2.69833e-07 0.0005 1.46608e-07 
93 1 0.0319345 0.0196322 0.0157676 0.000731391 0.018903 -0.00361322 -5.88854e-09 1.18912e-08 -1.26187e-08 0.0005 1.46608e-07 
96 1 0.0397753 0.0148675 0.0106525 0.000580592 -0.00300102 0.0195433 -3.90807e-09 9.59237e-09 1.36206e-08 0.0005 1.46608e-07 
100 1 0.0422047 0.0229758 0.00984465 0.000268964 -0.00796913 -0.0199612 -3.16658e-09 -1.16949e-08 1.1352e-09 0.0005 1.46608e-07 
106 1 0.0439974 0.0161245 0.00657288 -1.57204e-15 2.20988e-14 2.32845e-14 -3.97047e-23 0 0 0.0005 1.46608e-07 
107 1 0.0302761 0.0231349 0.0100712 0.00103528 -0.00678718 -0.0169192 -1.97775e-08 -4.629e-08 -9.76713e-08 0.0005 1.46608e-07 
108 1 0.0410792 0.01908 0.00716737 0.000191253 -0.0215198 -0.000943759 -1.10112e-09 -5.52549e-09 1.07045e-08 0.0005 1.46608e-07 
109 1 0.0321384 0.0187874 0.015809 0.000575825 0.0207374 0.00273484 1.28728e-09 2.80503e-09 -9.2761e-09 0.0005 1.46608e-07 
112 1 0.0269806 0.0156066 0.0140896 1.03466 -0.408177 0.46036 -0.0200367 0.00283977 -0.0437577 0.0005 1.46608e-07 
113 1 0.0276765 0.0147414 0.011071 0.000560763 -0.00261677 0.020887 -5.83413e-09 8.70092e-09 1.53144e-08 0.0005 1.46608e-07 
121 1 0.0282731 0.0158695 0.0085948 0.0015198 -0.00941972 0.0114577 3.36163e-09 -1.87351e-08 5.04033e-08 0.0005 1.46608e-07 
124 1 0.0378937 0.0198301 0.0157199 0.00453091 0.00475398 0.00211289 -0.000107933 2.12164e-06 1.41664e-05 0.0005 1.46608e-07 
125 1 0.0254425 0.0215654 0.0149038 0.000794452 0.0154062 -0.0124835 -6.33356e-09 4.30143e-09 -1.46031e-08 0.0005 1.46608e-07 
126 1 0.0286258 0.0183498 0.00592583 -1.94458e-14 1.85112e-16 -2.28119e-13 -5.29396e-23 -1.25241e-20 0 0.0005 1.46608e-07 
127 1 0.0391775 0.0151745 0.0132756 0.00149105 0.00938108 0.017814 -2.56455e-08 -3.86254e-08 8.66188e-09 0.0005 1.46608e-07 
129 1 0.0200859 0.0234825 0.0118168 -0.00369447 -0.000320948 7.28019e-05 -9.5336e-06 3.99364e-07 2.55618e-06 0.0005 1.46608e-07 
132 1 0.0292185 0.0195789 0.00725073 0.000370251 -0.0209153 -0.00300442 5.90513e-08 -6.1849e-09 2.74154e-08 0.0005 1.46608e-07 
134 1 0.029003 0.0187364 0.00719201 0.00153766 -0.0177583 0.00268855 -6.80067e-08 5.80892e-10 5.92681e-08 0.0005 1.46608e-07 
137 1 0.0238481 0.015871 0.00696463 -0.0257761 0.0631293 -0.0154258 3.16671e-07 -1.58463e-07 2.03357e-09 0.0005 1.46608e-07 
142 1 0.041942 0.0224358 0.00878388 0.00146646 -0.00929475 -0.0133837 6.87224e-09 1.58692e-08 3.74342e-08 0.0005 1.46608e-07 
146 1 0.019972 0.0198848 0.0158794 0.000455213 0.0207433 -0.00409523 -5.99135e-11 -2.77279e-09 -1.55057e-08 0.0005 1.46608e-07 
149 1 0.0416543 0.0215443 0.00798703 0.00025063 -0.0171219 -0.0124135 -8.12154e-10 -1.08234e-08 5.86781e-09 0.0005 1.46608e-07 
159 1 0.0651534 0.0184728 0.00578214 1.67201e-16 -7.85246e-16 -1.33899e-14 -1.63782e-21 -4.23516e-22 0 0.0005 1.46608e-07 
160 1 0.0306402 0.0233742 0.0117662 0.000386006 0.00138158 -0.0207546 -1.81015e-09 -9.56657e-09 -7.67699e-09 0.0005 1.46608e-07 
163 1 0.019514 0.0227625 0.013976 4.27215e-05 0.0685921 -0.0921964 0 0 -1.43822e-06 0.0005 1.46608e-07 
165 1 0.0232117 0.0195197 0.00721863 0.000160902 -0.0166377 -0.00217045 -1.10692e-06 -1.59423e-06 1.14913e-06 0.0005 1.46608e-07 
174 1 0.0239186 0.0223262 0.00886579 0.00209564 -0.00609617 -0.00604585 -9.1155e-09 1.63936e-08 -2.75982e-08 0.0005 1.46608e-07 
182 1 0.0220621 0.0152727 0.00941329 0.000116275 -0.0113502 0.0189427 -5.58382e-10 4.52551e-09 1.10267e-08 0.0005 1.46608e-07 
187 1 0.102423 0.0196788 0.00582979 1.52026e-15 2.26653e-15 -1.78441e-14 2.74492e-20 -2.35052e-20 -6.35275e-22 0.0005 1.46608e-07 
189 1 0.0280044 0.0152111 0.00959456 0.000121715 -0.00909459 0.0188368 -4.62881e-10 6.57657e-09 1.03973e-08 0.0005 1.46608e-07 
193 1 0.379816 0.0218995 0.0134365 -0.318357 0.175838 -0.235538 0 0 -1.43822e-06 0.0005 1.46608e-07 
195 1 0.0211421 0.0152267 0.0137727 0.00444515 0.00142464 0.000785292 6.19621e-08 -9.88488e-08 -7.72028e-08 0.0005 1.46608e-07 
198 1 0.0221935 0.0149191 0.0131825 0.00634627 0.00186345 0.00448087 -7.86392e-07 1.43077e-07 -1.43606e-06 0.0005 1.46608e-07 
201 1 0.0440291 0.0170649 0.00623435 -1.84801e-15 5.33791e-15 2.93365e-14 -1.32349e-23 0 0 0.0005 1.46608e-07 
209 1 0.028779 0.0177459 0.00739279 0.000298058 -0.0208159 0.0059835 -2.79578e-09 -3.48224e-09 1.20747e-08 0.0005 1.46608e-07 
213 1 0.0339957 0.0151607 0.00966502 0.00149231 -0.00678306 0.0149531 -6.6545e-09 9.90924e-09 -6.44246e-08 0.0005 1.46608e-07 
215 1 0.0355584 0.0214031 0.00792486 0.00161779 -0.0134144 -0.00742589 -1.41381e-09 -1.43423e-08 1.86366e-09 0.0005 1.46608e-07 
221 1 0.0580541 0.0173356 0.00595763 9.18187e-15 -1.90547e-14 -2.34434e-13 -6.61744e-24 0 0 0.0005 1.46608e-07 
223 1 0.0316719 0.0208398 0.0153437 -5.22609e-05 0.0195726 -0.00879115 1.64603e-09 -9.83865e-10 -1.20762e-08 0.0005 1.46608e-07 
226 1 0.0184864 0.0233543 0.0111119 0.00343953 -0.00202679 -0.00807212 -2.68639e-09 4.00009e-09 -1.01188e-09 0.0005 1.46608e-07 
227 1 0.0189508 0.0235767 0.0120239 0.0235553 -0.00502625 -0.0165727 0 0 -1.43822e-06 0.0005 1.46608e-07 
229 1 0.0216626 0.0194308 0.0059059 -0.0248153 0.0341964 0.00438733 4.08602e-07 -4.60205e-07 -6.71992e-08 0.0005 1.46608e-07 
240 1 0.0337779 0.014926 0.0106872 1.83864e-06 -0.00224421 0.021439 -3.20478e-08 3.04909e-09 8.16034e-08 0.0005 1.46608e-07 
242 1 0.0325129 0.0171098 0.0153329 0.000309187 0.0177626 0.00822626 -2.91323e-09 1.78092e-08 -3.01496e-09 0.0005 1.46608e-07 
245 1 0.0327525 0.0161966 0.0147157 0.000333856 0.0158452 0.0142525 2.17924e-07 -5.89394e-07 -5.53127e-07 0.0005 1.46608e-07 
246 1 0.0242602 0.0201274 0.00583803 -1.07559e-14 -1.73446e-15 1.75368e-13 7.94093e-23 -8.79789e-21 0 0.0005 1.46608e-07 
256 1 0.0172836 0.0146398 0.0120414 0.000487467 0.000305163 -0.00114142 -2.04017e-08 -1.37875e-08 4.94631e-08 0.0005 1.46608e-07 
257 1 0.0195365 0.0139876 0.012991 4.25858e-05 -5.46091e-05 8.7935e-05 5.0488e-08 1.2345e-07 -1.96986e-07 0.0005 1.46608e-07 
258 1 0.020058 0.0232964 0.0128218 -0.00867693 -0.00653022 0.0307048 0 0 -1.43822e-06 0.0005 1.46608e-07 
270 1 0.026571 0.016805 0.0151242 0.000158645 0.0176543 0.0104831 -4.4118e-10 1.09312e-08 -6.18304e-09 0.0005 1.46608e-07 
273 1 0.0185365 0.0140033 0.0129649 0.000125957 -0.000261107 0.000439498 8.46474e-09 -3.45412e-08 1.07923e-08 0.0005 1.46608e-07 
274 1 0.0216548 0.0147504 0.0111863 0.000620894 -0.00199964 0.0148273 8.31717e-10 1.03823e-08 1.86638e-09 0.0005 1.46608e-07 
277 1 0.0377467 0.0203937 0.0155916 0.000503384 0.00697589 -0.00211532 -1.38643e-05 -8.10382e-06 1.81076e-05 0.0005 1.46608e-07 
279 1 0.0214149 0.0147364 0.0125822 0.00457479 0.000682983 0.00548018 -3.84873e-07 -1.62016e-07 -9.73607e-07 0.0005 1.46608e-07 
280 1 0.0353366 0.02017 0.00750142 8.20148e-05 -0.0206671 -0.00556718 -6.54638e-10 -7.01188e-09 8.80706e-09 0.0005 1.46608e-07 
281 1 0.0348238 0.018066 0.00731145 0.00106575 -0.0174992 0.00197777 2.62574e-09 2.72665e-08 1.33595e-08 0.0005 1.46608e-07 
283 1 0.0285272 0.0165997 0.00792571 0.000610484 -0.0163099 0.0116221 -3.76333e-09 -3.15235e-09 1.57301e-08 0.0005 1.46608e-07 
291 1 0.03293 0.0193179 0.00575787 -8.27359e-15 -4.7452e-14 1.83895e-13 -4.36751e-22 5.29396e-23 -2.11758e-22 0.0005 1.46608e-07 
293 1 0.0212012 0.0239629 0.0132339 -0.000809236 -0.000420352 -0.00146327 -2.45131e-08 7.74433e-09 9.37882e-09 0.0005 1.46608e-07 
296 1 0.0205213 0.0222181 0.0146402 0.000189296 0.0454569 -0.0480142 7.99103e-09 1.15601e-07 -1.04438e-06 0.0005 1.46608e-07 
298 1 0.025712 0.0206042 0.0155739 0.00361761 0.00340684 -0.00455266 1.20716e-10 3.15491e-08 -1.17824e-10 0.0005 1.46608e-07 
