ITEM: TIMESTEP
34000000
ITEM: NUMBER OF ATOMS
89
ITEM: BOX BOUNDS ff ff ff
-0.02 0.43
-0.02 0.06
-0.02 0.07
ITEM: ATOMS id type x y z vx vy vz fx fy fz radius mass 
1 1 0.0388307 0.0187336 0.00577146 -9.85269e-15 8.7148e-14 2.22854e-13 2.27905e-20 2.22346e-21 1.90582e-21 0.0005 1.46608e-07 
2 1 0.0326629 0.0200354 0.00739773 0.00121124 -0.0183729 -0.00366176 2.96593e-09 5.05823e-09 1.19683e-08 0.0005 1.46608e-07 
3 1 0.0529103 0.0213778 0.0151253 0.000172161 0.018654 -0.0110572 -8.3102e-10 -1.51397e-09 -1.14558e-08 0.0005 1.46608e-07 
8 1 0.0568852 0.0209234 0.00757806 0.00034666 -0.0158771 -0.00793327 7.02428e-10 -4.58987e-08 1.29771e-08 0.0005 1.46608e-07 
9 1 0.0436892 0.020408 0.00596775 2.40477e-15 -2.04485e-14 6.48839e-14 -2.47492e-21 -1.58819e-22 0 0.0005 1.46608e-07 
14 1 0.0360262 0.0167248 0.0150468 0.0015106 0.0147324 0.008471 -3.77298e-09 1.20343e-08 -4.65825e-09 0.0005 1.46608e-07 
18 1 0.08261 0.0191091 0.00590955 -1.77229e-14 -5.05142e-14 2.16963e-13 5.68544e-19 -7.19978e-21 4.3834e-20 0.0005 1.46608e-07 
26 1 0.103453 0.0178822 0.00580682 1.68899e-15 7.51635e-15 2.07276e-13 -5.88953e-21 -2.88521e-21 2.11758e-22 0.0005 1.46608e-07 
28 1 0.0463413 0.0229804 0.013202 0.000262091 0.00781973 -0.0189904 -8.62101e-10 -7.65632e-09 -9.88095e-09 0.0005 1.46608e-07 
32 1 0.0458692 0.0166351 0.00629564 2.86656e-16 1.62501e-15 1.11821e-14 9.02619e-21 -2.43522e-21 2.11758e-22 0.0005 1.46608e-07 
34 1 0.0572659 0.0174442 0.00591793 9.18425e-15 -1.90538e-14 -2.34434e-13 -1.02173e-20 -5.0822e-21 2.11758e-22 0.0005 1.46608e-07 
38 1 0.047586 0.0186492 0.0157159 -0.000587699 0.0230295 0.00187217 -2.59874e-08 3.98699e-08 8.41662e-09 0.0005 1.46608e-07 
46 1 0.0499138 0.0167824 0.00784656 0.00128081 -0.0139427 0.00942289 -3.18859e-09 -7.04016e-09 2.04303e-08 0.0005 1.46608e-07 
48 1 0.053095 0.0200636 0.015751 1.31887 -0.138415 -4.34141 0.706191 0.833124 6.46478 0.0005 1.46608e-07 
54 1 0.0522315 0.0231149 0.0127017 0.000410679 0.00588462 -0.0208294 -2.35277e-08 1.41977e-08 -7.37818e-08 0.0005 1.46608e-07 
56 1 0.054548 0.015109 0.0132307 0.00115451 0.00677701 0.0173294 -1.12237e-08 1.51884e-08 1.03138e-08 0.0005 1.46608e-07 
59 1 0.0793161 0.0192087 0.00581236 1.53062e-14 5.18418e-14 2.19694e-13 1.04026e-20 3.25049e-20 -9.74088e-21 0.0005 1.46608e-07 
64 1 0.0170063 0.0201419 0.00601043 1.30455e-14 5.25385e-15 -1.07335e-13 -1.92515e-19 -6.38054e-20 -2.66815e-20 0.0005 1.46608e-07 
65 1 0.0632091 0.0196192 0.00574818 4.04115e-15 5.47589e-14 -1.51838e-13 -1.52373e-19 4.76456e-22 -4.23516e-21 0.0005 1.46608e-07 
66 1 0.0448873 0.0164493 0.00634816 -4.52778e-15 -2.52971e-14 -1.74151e-13 8.40416e-22 1.32349e-22 0 0.0005 1.46608e-07 
68 1 0.0540748 0.0165886 0.0150134 0.000211548 0.0172407 0.012458 -3.26881e-10 1.07656e-08 -5.98932e-09 0.0005 1.46608e-07 
70 1 0.0465265 0.0153887 0.00942148 0.0649986 -0.0144395 0.0229066 -0.00216482 0.000461067 -0.000682126 0.0005 1.46608e-07 
74 1 0.0362613 0.0158853 0.0143789 0.000401701 0.00888149 0.0119201 -2.20894e-09 -9.5804e-09 -1.06409e-08 0.0005 1.46608e-07 
82 1 0.0378303 0.0164245 0.00807086 0.00339107 -0.00213923 0.00199839 2.17814e-06 9.18632e-07 1.6071e-06 0.0005 1.46608e-07 
83 1 0.0557485 0.0161716 0.00857007 0.000331778 -0.0149308 0.0151407 -7.53598e-10 5.64238e-09 1.2763e-08 0.0005 1.46608e-07 
86 1 0.0526787 0.0223395 0.0142819 0.00095785 0.0101788 -0.0137631 -1.44718e-09 5.17394e-09 -2.32166e-08 0.0005 1.46608e-07 
88 1 0.0357086 0.0161117 0.00660683 -4.57134e-15 2.81995e-14 7.49074e-14 -9.68e-20 -2.21817e-20 2.5411e-21 0.0005 1.46608e-07 
89 1 0.055966 0.0171239 0.00764694 0.00187156 -0.00590828 0.00243493 -5.70203e-08 9.8221e-08 -8.35184e-08 0.0005 1.46608e-07 
90 1 0.0388158 0.0205399 0.00746286 0.00136062 -0.0177064 -0.00599518 -1.36186e-08 -3.08623e-08 1.12909e-09 0.0005 1.46608e-07 
93 1 0.0484012 0.0153748 0.0137293 0.000327885 0.00821121 0.0139404 4.33031e-09 6.52006e-08 3.7231e-08 0.0005 1.46608e-07 
96 1 0.0553095 0.0151477 0.0100219 0.000421695 -0.0104826 0.0194719 -6.24075e-09 1.29534e-09 1.33884e-08 0.0005 1.46608e-07 
100 1 0.0573637 0.0225741 0.00897198 0.000103499 -0.0119313 -0.0191954 -3.24596e-10 -1.25637e-08 1.84386e-09 0.0005 1.46608e-07 
106 1 0.0439552 0.0161318 0.00656318 1.95673e-16 -2.75165e-15 -2.89971e-15 5.4263e-22 0 0 0.0005 1.46608e-07 
107 1 0.0467374 0.0221723 0.0144967 0.000150864 0.0153688 -0.0152641 -1.25651e-09 -3.06637e-09 -1.27039e-08 0.0005 1.46608e-07 
108 1 0.0563407 0.0184428 0.00731298 1.71727e-05 -0.0220689 0.002314 -1.0705e-09 -2.94631e-09 1.18389e-08 0.0005 1.46608e-07 
109 1 0.0459593 0.0233291 0.0108905 0.000349442 0.0031215 0.00161944 1.5129e-07 -1.23665e-07 -3.49712e-07 0.0005 1.46608e-07 
112 1 0.0427833 0.0148341 0.0123604 0.000592839 0.00293113 0.0218715 -1.57882e-06 -2.01283e-06 -5.74391e-06 0.0005 1.46608e-07 
113 1 0.0432879 0.0151031 0.00997598 -1.11998e-05 -0.00766215 0.0200201 1.02573e-11 9.40185e-09 8.74044e-09 0.0005 1.46608e-07 
121 1 0.0438005 0.0163362 0.00814839 0.00204776 -0.00698686 0.00559457 0.00163366 0.00276967 0.00224075 0.0005 1.46608e-07 
124 1 0.0537865 0.0175631 0.0155748 0.00138205 0.0133631 0.00503545 2.20827e-09 -5.36692e-09 -1.29079e-08 0.0005 1.46608e-07 
125 1 0.0416259 0.0183517 0.0156995 0.000625689 0.0200495 0.00277744 -6.38265e-09 1.57959e-08 -8.79648e-09 0.0005 1.46608e-07 
126 1 0.0286258 0.0183498 0.00592583 -1.94458e-14 1.85318e-16 -2.28119e-13 0 -7.73042e-21 0 0.0005 1.46608e-07 
127 1 0.0543103 0.0157321 0.0142582 1.63504e-05 0.0110508 0.0183417 -1.56315e-08 -1.16408e-08 -5.4282e-08 0.0005 1.46608e-07 
129 1 0.0294602 0.0191319 0.0158468 0.00148257 0.0106106 0.00109958 7.19748e-07 -3.43046e-07 -1.9647e-07 0.0005 1.46608e-07 
132 1 0.0460319 0.0233356 0.0117355 0.000815466 0.00140852 -0.010232 -6.38552e-08 -2.22352e-08 -1.13319e-07 0.0005 1.46608e-07 
134 1 0.0452535 0.0222212 0.00851229 0.0014458 -0.00931271 -0.0118217 -9.01905e-10 -1.39773e-08 1.63074e-08 0.0005 1.46608e-07 
137 1 0.0238948 0.0168123 0.00667048 -1.55883e-14 -3.1969e-14 -1.04791e-13 5.77041e-21 -6.88214e-22 -4.23516e-22 0.0005 1.46608e-07 
142 1 0.0470176 0.01787 0.0060864 -3.12647e-15 -1.74653e-14 -1.20236e-13 7.94093e-22 2.64698e-23 0 0.0005 1.46608e-07 
146 1 0.0390565 0.0200205 0.00592023 -3.96968e-15 1.88444e-14 -9.32081e-14 3.67268e-21 -1.95876e-21 -4.23516e-22 0.0005 1.46608e-07 
149 1 0.0766607 0.0190533 0.00580856 -9.18463e-15 5.49356e-14 2.11158e-13 -6.03709e-20 -2.96462e-21 -3.81165e-21 0.0005 1.46608e-07 
159 1 0.0779397 0.0194308 0.00576583 6.27926e-15 -3.81079e-14 -1.46476e-13 -3.8143e-20 8.47033e-22 -1.48231e-21 0.0005 1.46608e-07 
160 1 0.0473033 0.0199165 0.015735 0.000403885 0.0201275 -0.00391365 -1.69373e-10 4.30376e-09 -1.30255e-08 0.0005 1.46608e-07 
163 1 0.0424878 0.0188132 0.00581899 -4.51505e-15 1.30451e-14 7.16622e-14 1.32349e-22 -2.64698e-22 2.11758e-22 0.0005 1.46608e-07 
165 1 0.0920805 0.0205253 0.0059177 -7.8483e-15 -7.28946e-14 1.85342e-13 -6.61744e-23 0 0 0.0005 1.46608e-07 
174 1 0.0410025 0.0209452 0.0153512 0.00322124 0.00450477 -0.00372492 -3.26056e-07 -2.96705e-09 4.69998e-07 0.0005 1.46608e-07 
182 1 0.0390334 0.0213775 0.00787236 0.000296694 -0.0174949 -0.011631 9.45214e-11 -1.06638e-08 3.83013e-09 0.0005 1.46608e-07 
187 1 0.102423 0.0196788 0.00582979 1.50832e-15 2.26729e-15 -1.7845e-14 5.57189e-20 -1.38172e-20 2.75286e-21 0.0005 1.46608e-07 
189 1 0.0436355 0.0157273 0.00887354 -0.0493808 0.0336524 0.0128765 0.00991295 -0.19578 -0.084093 0.0005 1.46608e-07 
193 1 0.377426 0.0175296 0.00839945 3.28082e-05 0.000128556 -0.00135528 8.51274e-11 5.18795e-08 -4.6691e-08 0.0005 1.46608e-07 
195 1 0.0507369 0.0203921 0.00594173 -5.73063e-15 -2.04816e-14 -3.07615e-13 -1.46411e-20 6.35275e-22 2.11758e-22 0.0005 1.46608e-07 
198 1 0.0400022 0.0233805 0.0114814 3.03262e-05 0.00100271 -0.022014 -9.33139e-10 -1.123e-08 -5.10332e-09 0.0005 1.46608e-07 
201 1 0.0440263 0.0170728 0.00623272 2.29654e-16 -6.63856e-16 -3.64347e-15 2.91168e-22 0 0 0.0005 1.46608e-07 
209 1 0.0450437 0.0213925 0.00790621 0.000123111 -0.017331 -0.0110811 8.13931e-10 -1.19614e-08 5.95966e-09 0.0005 1.46608e-07 
213 1 0.0507317 0.0204308 0.00746278 0.000170848 -0.0200255 -0.00680669 -1.15433e-09 -8.51416e-09 8.33887e-09 0.0005 1.46608e-07 
215 1 0.0520133 0.0233713 0.0116926 0.00159177 0.00218513 -0.0023122 7.19587e-08 1.67904e-08 3.12656e-07 0.0005 1.46608e-07 
221 1 0.059059 0.0180876 0.00593586 7.18574e-15 -1.49145e-14 -1.83491e-13 4.63221e-22 -6.88214e-22 0 0.0005 1.46608e-07 
223 1 0.0481891 0.0162406 0.0147444 0.000133458 0.0161522 0.0139659 -6.15161e-10 1.18416e-08 -3.1816e-09 0.0005 1.46608e-07 
226 1 0.0316007 0.0183082 0.00603438 1.31796e-14 -4.47691e-14 -1.09989e-13 1.06806e-19 -5.11396e-20 3.2399e-20 0.0005 1.46608e-07 
227 1 0.033008 0.0213229 0.00783423 0.00121238 -0.0144547 -0.00756561 -5.34532e-09 -2.9338e-08 -3.83457e-09 0.0005 1.46608e-07 
229 1 0.0215463 0.0196109 0.00592744 -1.81457e-14 8.1435e-15 -1.66091e-13 0 0 0 0.0005 1.46608e-07 
240 1 0.0504042 0.0185882 0.00720762 0.000710182 -0.0194139 0.00222291 -5.35096e-09 -1.56056e-08 1.39452e-08 0.0005 1.46608e-07 
242 1 0.0490916 0.0148865 0.0105854 0.0012585 -0.00251379 0.0163978 -3.98984e-09 7.49827e-09 1.49116e-08 0.0005 1.46608e-07 
245 1 0.0495834 0.0156062 0.00903877 -4.28965e-05 -0.0136676 0.017491 -1.54892e-09 6.82518e-09 9.07914e-09 0.0005 1.46608e-07 
246 1 0.0242602 0.0201274 0.00583803 -1.0758e-14 -1.73386e-15 1.75368e-13 8.73503e-22 5.19469e-21 0 0.0005 1.46608e-07 
256 1 0.0347097 0.0221349 0.0144434 5.20481e-05 0.016453 -0.0150107 6.63093e-09 1.98115e-08 -2.59662e-08 0.0005 1.46608e-07 
257 1 0.0261527 0.0176253 0.0074163 4.23406e-05 -0.0211965 0.00620911 -1.2244e-09 -8.23906e-10 1.23109e-08 0.0005 1.46608e-07 
258 1 0.0317036 0.0159435 0.00862926 -0.000589563 -0.0111754 0.0105115 1.53508e-09 -1.2518e-08 9.66396e-10 0.0005 1.46608e-07 
270 1 0.0425244 0.0151694 0.0133136 0.000263264 0.00899276 0.0191449 -2.04629e-09 1.18297e-08 2.83467e-09 0.0005 1.46608e-07 
273 1 0.0371638 0.0187263 0.00573865 3.83427e-15 -1.81862e-14 8.99475e-14 -5.33895e-20 -8.78797e-21 4.23516e-22 0.0005 1.46608e-07 
274 1 0.0328558 0.0191954 0.00572294 8.78352e-16 5.06752e-15 -1.96346e-14 1.53128e-20 0 6.35275e-22 0.0005 1.46608e-07 
277 1 0.0535708 0.018624 0.0157492 0.000197631 0.0209854 0.00199695 -1.66658e-09 6.9801e-09 -9.48283e-09 0.0005 1.46608e-07 
279 1 0.0371153 0.0148564 0.0107184 0.00030534 -0.00316964 0.0200051 -1.23666e-09 9.76114e-09 8.76913e-09 0.0005 1.46608e-07 
280 1 0.0517701 0.0231906 0.0107475 0.00111698 -0.00467926 -0.0179643 -3.7468e-08 1.19508e-09 -7.27472e-08 0.0005 1.46608e-07 
281 1 0.0511721 0.0217651 0.0081368 0.0125411 0.086285 -0.204697 -0.0565806 -0.027039 0.0768829 0.0005 1.46608e-07 
283 1 0.044744 0.0203751 0.00736542 0.000120824 -0.0208588 -0.00829971 1.50777e-10 -8.4932e-09 8.79077e-09 0.0005 1.46608e-07 
291 1 0.0350698 0.0188001 0.00572051 -7.10123e-15 -4.06714e-14 1.57633e-13 3.42651e-20 -3.70577e-22 1.27055e-21 0.0005 1.46608e-07 
293 1 0.0307596 0.0149473 0.0124567 0.000203327 0.0048248 0.0207511 -1.80958e-09 1.26125e-08 1.48429e-09 0.0005 1.46608e-07 
296 1 0.0376054 0.0156252 0.00895033 0.000178638 -0.0131061 0.0172931 -1.59171e-09 4.4629e-09 1.17067e-08 0.0005 1.46608e-07 
298 1 0.0418072 0.0174735 0.0154951 0.000220705 0.0198938 0.00879794 -6.49521e-10 1.17764e-08 -7.45876e-09 0.0005 1.46608e-07 
