ITEM: TIMESTEP
91800000
ITEM: NUMBER OF ATOMS
88
ITEM: BOX BOUNDS ff ff ff
-0.02 0.43
-0.02 0.06
-0.02 0.07
ITEM: ATOMS id type x y z vx vy vz fx fy fz radius mass 
1 1 0.0387146 0.0187573 0.00575718 -8.66846e-15 7.85694e-14 2.00898e-13 0 4.23516e-22 0 0.0005 1.46608e-07 
2 1 0.0515454 0.0203376 0.00592249 9.5525e-15 2.68327e-14 3.50793e-13 -2.95542e-19 -7.91446e-20 1.33408e-20 0.0005 1.46608e-07 
3 1 0.0657625 0.0198039 0.00576669 -1.37649e-15 3.97328e-14 -1.45083e-13 1.27386e-22 0 0 0.0005 1.46608e-07 
8 1 0.102543 0.017821 0.00581645 -9.78474e-16 -4.35258e-15 -1.20042e-13 1.40621e-22 -3.30872e-23 0 0.0005 1.46608e-07 
9 1 0.0387828 0.0214812 0.00622724 -2.72677e-19 1.06116e-18 -5.71048e-18 1.48893e-23 -1.65436e-24 0 0.0005 1.46608e-07 
14 1 0.191105 0.0203026 0.00593314 -1.12288e-14 -4.38003e-14 9.7336e-14 5.02926e-22 -2.11758e-22 -2.11758e-22 0.0005 1.46608e-07 
18 1 0.0819644 0.018662 0.00575674 1.34701e-14 4.56324e-14 1.93312e-13 1.13423e-20 4.76456e-21 -1.69407e-21 0.0005 1.46608e-07 
26 1 0.10448 0.0180949 0.00580371 1.50321e-14 2.23628e-14 -1.76072e-13 -5.53218e-21 1.73112e-20 1.69407e-21 0.0005 1.46608e-07 
28 1 0.0800401 0.0168845 0.00628905 -1.13565e-15 -7.29098e-15 -3.41145e-14 4.63221e-23 0 0 0.0005 1.46608e-07 
32 1 0.0458896 0.0168235 0.00626774 -4.52981e-15 -2.52972e-14 -1.74151e-13 3.6793e-21 -2.91168e-22 -2.11758e-22 0.0005 1.46608e-07 
34 1 0.0564645 0.0213699 0.00635393 -1.26455e-15 -1.50141e-14 3.2099e-14 -6.7586e-19 1.15408e-20 -1.52466e-20 0.0005 1.46608e-07 
38 1 0.0957177 0.0194742 0.00570861 1.33045e-15 2.37437e-15 3.12229e-14 3.71636e-20 -1.36055e-20 -6.35275e-22 0.0005 1.46608e-07 
46 1 0.136461 0.0187737 0.0058834 2.01721e-15 3.14312e-15 -2.90509e-14 1.01512e-20 -7.27919e-21 8.47033e-22 0.0005 1.46608e-07 
48 1 0.0822817 0.0172512 0.00607537 6.64449e-16 3.61519e-14 1.18632e-13 7.61006e-23 0 0 0.0005 1.46608e-07 
54 1 0.0652975 0.0207687 0.00603532 -1.12885e-15 3.25659e-14 -1.18914e-13 -1.06872e-21 0 0 0.0005 1.46608e-07 
56 1 0.0870153 0.0206158 0.00591409 3.22059e-15 5.90082e-15 -3.89484e-14 0 0 0 0.0005 1.46608e-07 
59 1 0.0792518 0.0191834 0.00582281 6.35532e-15 2.15005e-14 9.10982e-14 -8.4968e-21 -9.58206e-21 0 0.0005 1.46608e-07 
64 1 0.0170063 0.0201419 0.00601043 1.30342e-14 5.25486e-15 -1.07336e-13 1.78936e-20 3.33916e-20 2.75286e-21 0.0005 1.46608e-07 
65 1 0.0643606 0.0210989 0.00615793 9.85077e-15 -6.28952e-14 2.05619e-13 -3.17637e-22 0 2.11758e-22 0.0005 1.46608e-07 
66 1 0.0448733 0.0164686 0.00634571 -2.61962e-17 -1.41281e-16 -9.78727e-16 2.64698e-22 1.05879e-22 0 0.0005 1.46608e-07 
68 1 0.0803045 0.0192159 0.005743 -9.52807e-15 -2.67153e-14 1.14756e-13 2.64698e-23 0 0 0.0005 1.46608e-07 
70 1 0.0811915 0.017199 0.00615598 4.51279e-15 1.52769e-14 6.47201e-14 2.77933e-22 -1.58819e-22 0 0.0005 1.46608e-07 
74 1 0.0615774 0.0172559 0.00608456 -7.16666e-16 -3.17227e-15 -2.27007e-14 0 0 0 0.0005 1.46608e-07 
82 1 0.063441 0.0163701 0.00647495 5.20038e-16 7.45696e-15 9.54841e-15 5.29396e-23 0 0 0.0005 1.46608e-07 
83 1 0.0855075 0.019144 0.00579031 -2.80425e-15 1.60116e-14 -2.15085e-13 4.53295e-22 -3.97047e-23 0 0.0005 1.46608e-07 
86 1 0.0829173 0.0222111 0.0066532 2.53142e-15 -1.23272e-14 5.62302e-14 -2.21023e-21 -2.96462e-21 -2.11758e-22 0.0005 1.46608e-07 
88 1 0.0357086 0.0161117 0.00660683 -4.54974e-15 2.81798e-14 7.49161e-14 1.64708e-19 -8.36445e-21 1.24937e-20 0.0005 1.46608e-07 
89 1 0.0618809 0.0199413 0.00582959 -3.05001e-16 -4.22611e-15 1.17059e-14 -6.61744e-24 5.29396e-23 0 0.0005 1.46608e-07 
90 1 0.0845463 0.0178241 0.00589851 -1.70279e-15 5.08489e-14 1.75601e-13 4.39398e-21 2.64698e-22 -2.11758e-22 0.0005 1.46608e-07 
93 1 0.11021 0.0201465 0.00580174 8.85566e-16 6.44591e-15 -3.3356e-14 -2.05604e-20 -7.94093e-22 0 0.0005 1.46608e-07 
100 1 0.0830136 0.0187071 0.00584947 -9.52795e-15 -2.67155e-14 1.14756e-13 0 0 0 0.0005 1.46608e-07 
106 1 0.0439552 0.0161318 0.00656318 1.95645e-16 -2.75142e-15 -2.89951e-15 5.4263e-22 0 0 0.0005 1.46608e-07 
107 1 0.0782305 0.0203396 0.00602091 2.66945e-15 7.38151e-15 -1.38132e-14 -1.58819e-22 -1.05879e-22 0 0.0005 1.46608e-07 
108 1 0.0822914 0.0196163 0.00600118 7.16727e-15 2.0095e-14 -8.6317e-14 1.42937e-21 -1.05879e-22 0 0.0005 1.46608e-07 
109 1 0.0732237 0.018766 0.005768 1.04797e-14 -5.92045e-14 -1.63378e-13 -7.3586e-21 5.00808e-20 -1.88465e-20 0.0005 1.46608e-07 
112 1 0.0644815 0.0190744 0.00573853 7.97961e-16 -3.78212e-15 -6.44673e-14 2.97785e-23 0 0 0.0005 1.46608e-07 
113 1 0.0683453 0.0182317 0.00578271 7.82593e-18 1.4039e-17 5.06786e-16 2.64698e-23 -2.64698e-23 0 0.0005 1.46608e-07 
121 1 0.0609817 0.0187588 0.00589337 -4.35087e-15 -1.94158e-14 -1.3904e-13 -4.69839e-22 5.55865e-22 -2.11758e-22 0.0005 1.46608e-07 
124 1 0.0609012 0.0197493 0.00575757 -5.19423e-15 -2.31833e-14 -1.66017e-13 0 0 0 0.0005 1.46608e-07 
125 1 0.0634974 0.0172463 0.00599641 6.5125e-16 1.60941e-15 1.27091e-14 -2.64698e-23 0 0 0.0005 1.46608e-07 
126 1 0.0286258 0.0183498 0.00592583 -1.94459e-14 1.80924e-16 -2.28119e-13 1.32349e-22 1.13024e-20 0 0.0005 1.46608e-07 
127 1 0.0888729 0.0199317 0.00596406 -1.20816e-15 -2.22764e-15 1.47227e-14 -8.96002e-21 -1.12761e-20 -2.32934e-21 0.0005 1.46608e-07 
129 1 0.0601285 0.017977 0.00598674 -1.08744e-14 2.26378e-14 2.78394e-13 1.50051e-19 6.68362e-21 4.65868e-21 0.0005 1.46608e-07 
132 1 0.0626638 0.0179373 0.00595165 -7.36371e-15 -1.81925e-14 -1.43647e-13 3.04402e-22 -2.64698e-23 0 0.0005 1.46608e-07 
134 1 0.0644862 0.0176438 0.00589539 -5.97969e-15 -1.47719e-14 -1.16641e-13 -2.64698e-22 2.64698e-23 0 0.0005 1.46608e-07 
137 1 0.0238948 0.0168123 0.00667048 -1.55904e-14 -3.19689e-14 -1.04791e-13 -1.42937e-21 5.29396e-22 2.11758e-22 0.0005 1.46608e-07 
142 1 0.042543 0.0198089 0.00582143 -6.13508e-17 5.24112e-16 -1.66151e-15 1.65436e-23 5.29396e-23 0 0.0005 1.46608e-07 
146 1 0.0388539 0.0197419 0.00587248 -2.81917e-15 1.34613e-14 -6.65674e-14 1.44922e-21 0 0 0.0005 1.46608e-07 
149 1 0.0766607 0.0190533 0.00580856 -9.17929e-15 5.4935e-14 2.11159e-13 1.82469e-19 1.3182e-20 7.41154e-21 0.0005 1.46608e-07 
159 1 0.0779381 0.019417 0.00576935 7.23045e-16 -4.3616e-15 -1.67417e-14 -1.32349e-22 5.29396e-23 2.11758e-22 0.0005 1.46608e-07 
160 1 0.0620021 0.0189487 0.00583492 3.64562e-16 1.6368e-15 1.16901e-14 1.98523e-23 0 0 0.0005 1.46608e-07 
163 1 0.0424897 0.0188104 0.00581963 1.04285e-16 -3.02852e-16 -1.66053e-15 -9.92617e-24 0 0 0.0005 1.46608e-07 
165 1 0.0920805 0.0205253 0.0059177 -7.84821e-15 -7.28946e-14 1.85342e-13 0 0 0 0.0005 1.46608e-07 
174 1 0.0861925 0.0174808 0.00843048 -3.41668e-05 -0.00168366 0.000511049 -4.81975e-11 2.74277e-08 -2.72151e-08 0.0005 1.46608e-07 
182 1 0.0557406 0.0175302 0.00596599 -5.63214e-15 -7.65448e-15 -1.08969e-13 -1.64245e-20 2.79256e-21 6.35275e-22 0.0005 1.46608e-07 
187 1 0.102423 0.0196788 0.00582979 1.51315e-15 2.27333e-15 -1.78438e-14 2.83227e-20 -2.03023e-20 0 0.0005 1.46608e-07 
189 1 0.0453636 0.0157749 0.00687326 2.74051e-17 -5.65088e-16 -6.89819e-16 -2.11758e-22 -1.05879e-22 2.11758e-22 0.0005 1.46608e-07 
193 1 0.377391 0.0174932 0.0084227 2.24818e-05 -0.00637525 0.00292336 1.87647e-11 3.0242e-08 -1.96728e-08 0.0005 1.46608e-07 
195 1 0.0505919 0.0207133 0.00592302 6.74639e-15 1.89381e-14 2.6288e-13 -1.29702e-21 -4.76456e-22 0 0.0005 1.46608e-07 
198 1 0.0643736 0.0166453 0.00623285 -9.28322e-16 8.92626e-14 2.24983e-13 8.02365e-23 0 -2.11758e-22 0.0005 1.46608e-07 
201 1 0.0440263 0.0170728 0.00623272 2.29657e-16 -6.63925e-16 -3.64325e-15 1.58819e-22 0 0 0.0005 1.46608e-07 
209 1 0.0799751 0.0180833 0.00603206 1.34786e-14 4.56296e-14 1.93312e-13 3.33519e-21 -1.48231e-21 0 0.0005 1.46608e-07 
213 1 0.0810479 0.0182624 0.00591498 1.06443e-15 3.60233e-15 1.52616e-14 -6.74979e-22 -1.05879e-22 2.11758e-22 0.0005 1.46608e-07 
215 1 0.0824664 0.0205903 0.00624245 -1.03909e-15 -2.92754e-15 1.25719e-14 4.56604e-21 -3.75871e-21 -4.23516e-22 0.0005 1.46608e-07 
221 1 0.0595038 0.0223955 0.00675756 1.29882e-16 -1.68592e-15 4.05547e-15 1.55708e-20 2.11758e-20 8.04681e-21 0.0005 1.46608e-07 
223 1 0.063626 0.0183177 0.00585415 -7.36477e-15 -1.81921e-14 -1.43647e-13 6.61744e-23 2.38228e-22 0 0.0005 1.46608e-07 
226 1 0.0316007 0.0183082 0.00603438 1.31686e-14 -4.47269e-14 -1.10008e-13 1.32349e-21 -7.72918e-21 4.23516e-21 0.0005 1.46608e-07 
227 1 0.0584979 0.0201946 0.00586451 2.95119e-16 4.88509e-15 -1.04409e-14 0 -1.05879e-22 0 0.0005 1.46608e-07 
229 1 0.0215463 0.0196109 0.00592744 -1.81494e-14 8.13655e-15 -1.66092e-13 -6.03511e-21 0 6.35275e-22 0.0005 1.46608e-07 
240 1 0.0690612 0.017564 0.00598647 -1.68189e-17 1.76947e-16 4.66257e-16 -2.64698e-23 0 0 0.0005 1.46608e-07 
242 1 0.0636055 0.0197465 0.00578044 6.28569e-15 -4.01366e-14 1.31216e-13 -3.56019e-21 5.29396e-22 2.11758e-22 0.0005 1.46608e-07 
245 1 0.0977054 0.0174609 0.00630006 1.90796e-15 7.46635e-14 2.25694e-13 1.92568e-21 -1.58819e-22 0 0.0005 1.46608e-07 
246 1 0.0242602 0.0201274 0.00583803 -1.07574e-14 -1.73291e-15 1.75368e-13 0 0 0 0.0005 1.46608e-07 
256 1 0.0886505 0.0176446 0.0155823 0.000340967 0.0198267 0.00718732 -9.67233e-09 1.02285e-07 2.36727e-08 0.0005 1.46608e-07 
257 1 0.0567438 0.01754 0.00591345 -9.84244e-15 -1.33782e-14 -1.90504e-13 -6.90861e-21 1.68083e-21 4.23516e-22 0.0005 1.46608e-07 
258 1 0.061759 0.0163729 0.00651709 1.10813e-15 -1.26533e-14 -1.8055e-14 2.91168e-22 0 0 0.0005 1.46608e-07 
270 1 0.0504712 0.0179279 0.00611076 -3.70016e-15 -1.32327e-14 -1.98725e-13 6.94832e-22 -3.04402e-22 0 0.0005 1.46608e-07 
273 1 0.0371638 0.0187263 0.00573865 3.80317e-15 -1.81873e-14 8.99486e-14 5.8346e-20 1.05879e-20 2.11758e-22 0.0005 1.46608e-07 
274 1 0.0328558 0.0191954 0.00572294 8.90104e-16 5.06752e-15 -1.9634e-14 0 0 0 0.0005 1.46608e-07 
277 1 0.044465 0.0204317 0.00594645 -2.65336e-15 2.5349e-14 -8.03124e-14 -2.92491e-21 4.76456e-22 8.47033e-22 0.0005 1.46608e-07 
279 1 0.0625324 0.0169121 0.00611939 -3.86203e-16 3.7049e-14 9.33837e-14 1.12993e-20 2.11758e-22 0 0.0005 1.46608e-07 
280 1 0.066033 0.0188309 0.00577203 2.17534e-15 -1.03766e-14 -1.76838e-13 2.87528e-21 4.89691e-22 0 0.0005 1.46608e-07 
281 1 0.0833983 0.0210192 0.00634375 2.36848e-14 -4.02531e-14 1.90901e-13 1.39496e-20 2.75286e-21 -1.05879e-21 0.0005 1.46608e-07 
283 1 0.0634872 0.0175151 0.0083987 -2.30321e-05 0.00499147 -0.000699644 -4.38267e-08 -5.95139e-07 2.34023e-06 0.0005 1.46608e-07 
291 1 0.0350698 0.0188001 0.00572051 -7.10341e-15 -4.06707e-14 1.57633e-13 -3.07976e-20 -2.22346e-21 -1.90582e-21 0.0005 1.46608e-07 
293 1 0.0623373 0.0157218 0.00700852 1.07613e-15 -1.26695e-14 -1.80505e-14 1.05879e-22 0 0 0.0005 1.46608e-07 
296 1 0.0667607 0.0199247 0.00579031 -3.44008e-16 1.19583e-14 -4.3678e-14 1.60688e-20 5.29396e-22 0 0.0005 1.46608e-07 
298 1 0.0801544 0.0202323 0.00596714 -1.80118e-14 -5.05044e-14 2.16941e-13 -1.19114e-21 -5.29396e-23 0 0.0005 1.46608e-07 
