ITEM: TIMESTEP
49800000
ITEM: NUMBER OF ATOMS
88
ITEM: BOX BOUNDS ff ff ff
-0.02 0.43
-0.02 0.06
-0.02 0.07
ITEM: ATOMS id type x y z vx vy vz fx fy fz radius mass 
1 1 0.0387146 0.0187573 0.00575718 -8.68244e-15 7.8568e-14 2.00898e-13 0 -2.11758e-21 6.35275e-22 0.0005 1.46608e-07 
2 1 0.0475365 0.0205726 0.0155146 0.000400379 0.019117 -0.00764947 -5.39248e-09 6.62593e-09 -1.18512e-08 0.0005 1.46608e-07 
3 1 0.0656942 0.0197559 0.0057542 -1.34866e-15 3.9734e-14 -1.45083e-13 -4.06973e-22 5.29396e-23 0 0.0005 1.46608e-07 
8 1 0.102543 0.017821 0.00581645 -9.7844e-16 -4.3526e-15 -1.20042e-13 7.94093e-23 -6.61744e-24 0 0.0005 1.46608e-07 
9 1 0.0387828 0.0214812 0.00622724 -2.73856e-19 1.06353e-18 -5.71337e-18 4.1359e-23 -4.46678e-23 0 0.0005 1.46608e-07 
14 1 0.0508031 0.0187825 0.00718606 0.00167018 -0.0105426 0.000421387 3.15573e-08 6.73133e-08 -9.10623e-09 0.0005 1.46608e-07 
18 1 0.0815251 0.0188155 0.00575115 1.78642e-20 7.25055e-21 -2.82648e-20 0 0 0 0.0005 1.46608e-07 
26 1 0.10448 0.0180949 0.00580371 1.49819e-14 2.2394e-14 -1.76072e-13 5.92394e-20 -4.0737e-20 -2.11758e-22 0.0005 1.46608e-07 
28 1 0.0575512 0.0219179 0.00829569 0.00320883 -0.014716 -0.00899641 -1.70285e-08 -1.84301e-07 -1.43234e-07 0.0005 1.46608e-07 
32 1 0.0458896 0.0168235 0.00626774 -4.52719e-15 -2.52972e-14 -1.74151e-13 -8.47033e-22 -3.97047e-22 0 0.0005 1.46608e-07 
34 1 0.057335 0.017914 0.0058854 1.71301e-15 4.03065e-15 9.33057e-14 5.54327e-19 1.40687e-20 -9.74088e-21 0.0005 1.46608e-07 
38 1 0.0626353 0.0182126 0.00733003 5.7001e-05 -0.0224444 0.00276722 -5.46413e-10 -2.92848e-09 1.29928e-08 0.0005 1.46608e-07 
46 1 0.136461 0.0187737 0.0058834 2.01195e-15 3.1182e-15 -2.9054e-14 -6.0179e-20 -4.09752e-20 -8.89385e-21 0.0005 1.46608e-07 
48 1 0.0678072 0.0152321 0.00966456 0.000441315 -0.00771375 0.0182087 -2.4105e-09 5.46568e-09 1.68807e-08 0.0005 1.46608e-07 
54 1 0.064309 0.0192734 0.00572472 -7.56023e-09 1.21222e-08 3.48983e-10 -2.83736e-11 3.30094e-11 -1.71228e-12 0.0005 1.46608e-07 
56 1 0.0830207 0.0197197 0.00608582 -1.58248e-14 -4.43649e-14 1.90571e-13 2.77933e-21 -3.70577e-22 2.11758e-22 0.0005 1.46608e-07 
59 1 0.0793161 0.0192087 0.00581236 1.50686e-14 5.19215e-14 2.19692e-13 2.40835e-19 6.4851e-20 -3.04932e-20 0.0005 1.46608e-07 
64 1 0.0170063 0.0201419 0.00601043 1.30249e-14 5.25451e-15 -1.07337e-13 1.13529e-19 -5.88953e-21 1.3129e-20 0.0005 1.46608e-07 
65 1 0.0632091 0.0196192 0.00574818 3.96463e-15 5.47629e-14 -1.51838e-13 -1.33672e-21 2.11758e-22 0 0.0005 1.46608e-07 
66 1 0.0448733 0.0164686 0.00634571 -2.65022e-17 -1.41801e-16 -9.78922e-16 -3.17637e-22 0 0 0.0005 1.46608e-07 
68 1 0.0698814 0.0227358 0.009608 0.000301615 -0.00799011 -0.0200146 -6.34163e-06 0.000205562 -8.95998e-05 0.0005 1.46608e-07 
70 1 0.0588603 0.0228194 0.0136187 0.00016231 0.00986771 -0.0150898 4.50679e-10 -1.5485e-08 -4.12999e-09 0.0005 1.46608e-07 
74 1 0.0520115 0.0226932 0.00969834 -0.000847374 -0.00647732 -0.0205331 -2.00485e-08 -2.93155e-08 4.05343e-09 0.0005 1.46608e-07 
82 1 0.053044 0.0222789 0.0143394 0.00345369 0.0058319 -0.00949959 -6.99288e-09 6.43486e-09 5.6985e-09 0.0005 1.46608e-07 
83 1 0.0709136 0.0226496 0.0138656 0.00282164 0.0045995 -0.00994919 -4.69186e-09 1.13966e-08 -1.30136e-08 0.0005 1.46608e-07 
86 1 0.0745131 0.0200179 0.0058526 -9.34285e-15 -5.05878e-14 2.04285e-13 6.62803e-20 -1.07467e-20 0 0.0005 1.46608e-07 
88 1 0.0357086 0.0161117 0.00660683 -4.68509e-15 2.81818e-14 7.49072e-14 -4.9247e-20 -1.79995e-21 -2.32934e-21 0.0005 1.46608e-07 
89 1 0.061617 0.0194189 0.0057813 -4.34493e-15 -1.94149e-14 -1.3904e-13 -3.11814e-20 -2.59404e-21 1.27055e-21 0.0005 1.46608e-07 
90 1 0.0535822 0.0204178 0.0156109 0.000809928 0.0172818 -0.00657352 -1.00905e-08 2.71167e-08 -1.93342e-08 0.0005 1.46608e-07 
93 1 0.0638536 0.0225832 0.00921709 0.000433018 -0.0117041 -0.0170772 -2.29334e-09 -1.29535e-08 7.89457e-10 0.0005 1.46608e-07 
100 1 0.0736482 0.0149434 0.0104368 0.000474959 -0.00435739 0.0198578 -1.89173e-09 9.0874e-09 9.27249e-09 0.0005 1.46608e-07 
106 1 0.0439552 0.0161318 0.00656318 1.9589e-16 -2.75166e-15 -2.89974e-15 -2.64698e-23 0 -1.05879e-22 0.0005 1.46608e-07 
107 1 0.0615847 0.015056 0.0103956 0.000668982 -0.00377118 0.0136933 1.07792e-09 5.77103e-09 -2.40323e-10 0.0005 1.46608e-07 
108 1 0.0730516 0.0150531 0.013032 0.00135572 0.00653533 0.0144778 -8.50759e-09 2.25461e-08 2.53481e-08 0.0005 1.46608e-07 
109 1 0.0602917 0.0173593 0.0154802 0.00119016 0.01256 0.00585519 -2.60738e-10 4.02553e-09 -1.00847e-08 0.0005 1.46608e-07 
112 1 0.063554 0.0186245 0.00581898 -1.35081e-08 1.84857e-08 -2.79668e-09 1.25964e-11 -1.44146e-11 5.5073e-13 0.0005 1.46608e-07 
113 1 0.0582665 0.0233787 0.0110946 0.000848148 -0.000300818 -0.0217829 6.62963e-09 -1.05766e-08 -3.35331e-09 0.0005 1.46608e-07 
121 1 0.053769 0.0194654 0.0157891 7.20335e-05 0.021998 -0.000931008 -6.13548e-10 -6.70213e-10 -1.05367e-08 0.0005 1.46608e-07 
124 1 0.0607121 0.0186881 0.00591167 -5.17347e-15 -2.31729e-14 -1.6602e-13 1.1736e-19 -5.26749e-21 -2.75286e-21 0.0005 1.46608e-07 
125 1 0.0562252 0.0165576 0.00814036 0.00263044 -0.0118775 0.0109105 -1.90352e-08 -3.17966e-08 1.90611e-08 0.0005 1.46608e-07 
126 1 0.0286258 0.0183498 0.00592583 -1.94457e-14 1.85045e-16 -2.28119e-13 0 -1.26827e-20 0 0.0005 1.46608e-07 
127 1 0.0862115 0.0201056 0.00585272 2.64593e-15 -1.48704e-14 1.99835e-13 -9.01428e-20 -1.14614e-20 4.23516e-22 0.0005 1.46608e-07 
129 1 0.0440593 0.0159093 0.00861477 0.00134376 -0.0101536 0.0141044 -6.03185e-10 -6.51664e-08 1.50901e-07 0.0005 1.46608e-07 
132 1 0.0608443 0.0155379 0.0139872 0.000107629 0.0122056 0.0182378 -1.62423e-09 1.24182e-08 -1.02259e-09 0.0005 1.46608e-07 
134 1 0.0572568 0.0206058 0.00746143 0.00171519 -0.0122507 -0.00376503 -1.15331e-05 -1.69579e-05 -1.11345e-05 0.0005 1.46608e-07 
137 1 0.0238948 0.0168123 0.00667048 -1.5589e-14 -3.19689e-14 -1.04791e-13 -1.11173e-21 1.58819e-22 2.11758e-22 0.0005 1.46608e-07 
142 1 0.0470176 0.01787 0.0060864 -3.12609e-15 -1.74654e-14 -1.20236e-13 1.00585e-21 2.64698e-23 0 0.0005 1.46608e-07 
146 1 0.0388539 0.0197419 0.00587248 -2.81887e-15 1.34633e-14 -6.65669e-14 1.32349e-22 0 0 0.0005 1.46608e-07 
149 1 0.0766607 0.0190533 0.00580856 -9.17453e-15 5.49387e-14 2.11158e-13 -8.7615e-21 -1.2282e-20 4.87044e-21 0.0005 1.46608e-07 
159 1 0.0779397 0.0194308 0.00576583 6.28131e-15 -3.81237e-14 -1.46472e-13 2.82896e-20 7.3586e-21 -2.11758e-22 0.0005 1.46608e-07 
160 1 0.061873 0.0154309 0.00923188 0.00219599 -0.00515162 0.00878592 -1.99472e-08 -5.77175e-08 6.66979e-08 0.0005 1.46608e-07 
163 1 0.0424878 0.0188132 0.00581899 -4.51498e-15 1.30451e-14 7.16622e-14 0 5.29396e-23 0 0.0005 1.46608e-07 
165 1 0.0920805 0.0205253 0.0059177 -7.84834e-15 -7.28946e-14 1.85342e-13 0 0 0 0.0005 1.46608e-07 
174 1 0.0831308 0.0175892 0.00837143 4.01596e-09 -0.0186623 0.00854573 2.3979e-14 7.23393e-09 1.60621e-08 0.0005 1.46608e-07 
182 1 0.0542187 0.0176752 0.015591 0.00187355 0.00485222 0.000274712 4.77157e-08 -2.04609e-07 -4.99703e-08 0.0005 1.46608e-07 
187 1 0.102423 0.0196788 0.00582979 1.52517e-15 2.26936e-15 -1.78433e-14 3.46754e-21 9.60853e-21 1.69407e-21 0.0005 1.46608e-07 
189 1 0.0453636 0.0157749 0.00687326 2.74743e-17 -5.64848e-16 -6.89992e-16 5.29396e-23 -5.29396e-23 0 0.0005 1.46608e-07 
193 1 0.377436 0.0175942 0.00837725 -0.000619171 -0.00262124 0.00236103 -4.40064e-09 -1.05156e-07 3.08992e-08 0.0005 1.46608e-07 
195 1 0.0507369 0.0203921 0.00594173 -5.72484e-15 -2.04836e-14 -3.07615e-13 1.15474e-21 -1.05879e-22 -2.11758e-22 0.0005 1.46608e-07 
198 1 0.0548934 0.0153525 0.0137229 0.000494416 0.01078 0.0176307 -6.30139e-09 1.56723e-08 1.20006e-08 0.0005 1.46608e-07 
201 1 0.0440263 0.0170728 0.00623272 2.29683e-16 -6.63855e-16 -3.64347e-15 -1.45584e-22 0 0 0.0005 1.46608e-07 
209 1 0.060016 0.0184594 0.0156616 0.00089877 0.0210146 0.00278895 -1.29983e-08 1.32204e-08 -7.24932e-09 0.0005 1.46608e-07 
213 1 0.066164 0.0179214 0.0156372 -0.284725 0.518874 0.370787 0.07485 0.0370405 0.417372 0.0005 1.46608e-07 
215 1 0.0824671 0.0205532 0.00623389 -9.53237e-15 -2.67154e-14 1.14756e-13 -8.20563e-22 5.29396e-23 -2.11758e-22 0.0005 1.46608e-07 
221 1 0.059059 0.0180876 0.00593586 7.18869e-15 -1.49085e-14 -1.83491e-13 3.67268e-21 -1.60142e-21 2.11758e-22 0.0005 1.46608e-07 
223 1 0.0640931 0.0172506 0.00599153 -9.27249e-16 8.92614e-14 2.24984e-13 -1.43599e-21 1.05879e-22 -2.11758e-22 0.0005 1.46608e-07 
226 1 0.0316007 0.0183082 0.00603438 1.31758e-14 -4.47194e-14 -1.1001e-13 -1.06938e-20 3.49401e-21 -2.5411e-21 0.0005 1.46608e-07 
227 1 0.0483252 0.0170662 0.0153516 0.000132184 0.0192984 0.0120228 5.26718e-10 9.59946e-09 -8.40047e-09 0.0005 1.46608e-07 
229 1 0.0215463 0.0196109 0.00592744 -1.81493e-14 8.1435e-15 -1.66091e-13 0 0 0 0.0005 1.46608e-07 
240 1 0.0649744 0.0177417 0.00585796 -7.3695e-15 -1.81924e-14 -1.43647e-13 4.8175e-21 5.02926e-22 -4.23516e-22 0.0005 1.46608e-07 
242 1 0.0623985 0.0186635 0.00586235 -4.35285e-15 -1.94162e-14 -1.3904e-13 0 0 0 0.0005 1.46608e-07 
245 1 0.0649346 0.0225485 0.0139572 0.000140565 0.0122305 -0.0172605 -3.47311e-10 -6.0169e-09 -1.06552e-08 0.0005 1.46608e-07 
246 1 0.0242602 0.0201274 0.00583803 -1.07556e-14 -1.726e-15 1.75368e-13 0 0 0 0.0005 1.46608e-07 
256 1 0.0498186 0.0151753 0.00969105 0.00147093 -0.00821652 0.0140624 -4.16179e-08 -3.24477e-09 3.43443e-09 0.0005 1.46608e-07 
257 1 0.0410842 0.0221782 0.0143812 5.74193e-05 0.015248 -0.0155152 -1.02413e-09 -5.10637e-09 -1.12023e-08 0.0005 1.46608e-07 
258 1 0.0463468 0.0233866 0.0114064 0.00037346 0.00133269 -0.0189214 8.328e-09 -3.56079e-08 4.21766e-08 0.0005 1.46608e-07 
270 1 0.0504712 0.0179279 0.00611076 -3.69984e-15 -1.32326e-14 -1.98725e-13 2.74624e-21 1.32349e-22 0 0.0005 1.46608e-07 
273 1 0.0371638 0.0187263 0.00573865 3.81282e-15 -1.81881e-14 8.9948e-14 2.37632e-20 4.8175e-21 -1.05879e-21 0.0005 1.46608e-07 
274 1 0.0328558 0.0191954 0.00572294 8.79058e-16 5.06752e-15 -1.96346e-14 -1.28114e-20 0 -6.35275e-22 0.0005 1.46608e-07 
277 1 0.044465 0.0204317 0.00594645 -2.88726e-15 2.53404e-14 -8.03065e-14 -2.47506e-19 -4.42575e-20 -4.44692e-21 0.0005 1.46608e-07 
279 1 0.0496704 0.0149627 0.0103661 0.00236989 -0.00451483 0.00952149 -1.41495e-08 -1.99807e-09 -1.4117e-08 0.0005 1.46608e-07 
280 1 0.0660681 0.018771 0.00577597 -5.12625e-16 2.40993e-15 4.1093e-14 4.48332e-21 1.68083e-21 0 0.0005 1.46608e-07 
281 1 0.0829947 0.0213806 0.00646753 -3.37722e-16 2.90499e-15 -1.31089e-14 -6.42488e-20 -8.31151e-21 -2.11758e-22 0.0005 1.46608e-07 
283 1 0.059594 0.0202659 0.01566 0.000411947 0.0169777 -0.00396038 -5.09573e-10 -5.59084e-08 8.22101e-09 0.0005 1.46608e-07 
291 1 0.0350698 0.0188001 0.00572051 -7.10716e-15 -4.06765e-14 1.57632e-13 -2.55036e-20 -1.2229e-20 -4.02341e-21 0.0005 1.46608e-07 
293 1 0.0452406 0.020536 0.00745594 7.61653e-05 -0.0209112 -0.00889344 1.87298e-10 -6.85219e-09 1.01025e-08 0.0005 1.46608e-07 
296 1 0.0667523 0.0199335 0.00579279 3.31089e-16 -9.5374e-15 3.48314e-14 -5.26931e-20 -5.29396e-22 4.23516e-22 0.0005 1.46608e-07 
298 1 0.0567756 0.0187114 0.00727928 6.5297e-05 -0.0216821 0.00132915 -9.83515e-10 -3.44475e-09 1.11368e-08 0.0005 1.46608e-07 
