ITEM: TIMESTEP
54800000
ITEM: NUMBER OF ATOMS
88
ITEM: BOX BOUNDS ff ff ff
-0.02 0.43
-0.02 0.06
-0.02 0.07
ITEM: ATOMS id type x y z vx vy vz fx fy fz radius mass 
1 1 0.0387146 0.0187573 0.00575718 -8.68094e-15 7.85696e-14 2.00897e-13 -3.03079e-21 0 -2.11758e-22 0.0005 1.46608e-07 
2 1 0.0521508 0.021069 0.00772909 0.00121021 -0.0163111 -0.00772755 -8.77313e-09 -2.51557e-08 -1.29636e-09 0.0005 1.46608e-07 
3 1 0.0657504 0.019873 0.00578573 -1.26089e-15 3.97328e-14 -1.45084e-13 1.344e-20 -1.64113e-21 -2.11758e-22 0.0005 1.46608e-07 
8 1 0.102543 0.017821 0.00581645 -9.78472e-16 -4.35257e-15 -1.20042e-13 -8.43724e-23 0 0 0.0005 1.46608e-07 
9 1 0.0387828 0.0214812 0.00622724 -2.72482e-19 1.055e-18 -5.70615e-18 -2.89513e-23 1.00916e-22 0 0.0005 1.46608e-07 
14 1 0.0555289 0.0158086 0.0143398 0.00123161 0.00942238 0.0111134 -1.60228e-08 -8.70871e-09 -5.72537e-09 0.0005 1.46608e-07 
18 1 0.0815251 0.0188155 0.00575115 1.78642e-20 7.25055e-21 -2.82648e-20 0 0 0 0.0005 1.46608e-07 
26 1 0.10448 0.0180949 0.00580371 1.49826e-14 2.23717e-14 -1.76075e-13 -2.17052e-20 2.14405e-21 -2.11758e-21 0.0005 1.46608e-07 
28 1 0.0633239 0.0174843 0.00748112 0.00151999 -0.0139553 0.00426783 1.65806e-08 1.09731e-07 1.9044e-08 0.0005 1.46608e-07 
32 1 0.0458896 0.0168235 0.00626774 -4.52735e-15 -2.52971e-14 -1.74151e-13 -1.51341e-20 6.88214e-22 2.11758e-22 0.0005 1.46608e-07 
34 1 0.0564645 0.0213699 0.00635393 -7.74588e-16 -1.50019e-14 3.21194e-14 3.37159e-19 -2.21287e-20 2.11758e-22 0.0005 1.46608e-07 
38 1 0.0678428 0.0150155 0.0129469 0.00015112 0.00704439 0.0199545 -5.90458e-10 1.22e-08 2.18514e-09 0.0005 1.46608e-07 
46 1 0.136461 0.0187737 0.0058834 2.0218e-15 3.13593e-15 -2.90514e-14 7.46448e-21 1.96406e-20 2.5411e-21 0.0005 1.46608e-07 
48 1 0.0725464 0.0196082 0.0157593 -0.00017051 0.0225716 -0.00116203 -2.34783e-09 1.75541e-09 -9.96389e-09 0.0005 1.46608e-07 
54 1 0.0642637 0.0197348 0.005762 -1.62383e-15 4.68992e-14 -1.71253e-13 -1.36154e-21 -3.17637e-22 0 0.0005 1.46608e-07 
56 1 0.0830207 0.0197197 0.00608582 -1.58246e-14 -4.43652e-14 1.90571e-13 2.66021e-21 -1.16467e-21 -4.23516e-22 0.0005 1.46608e-07 
59 1 0.0793161 0.0192087 0.00581236 1.5383e-14 5.17712e-14 2.19705e-13 -6.46035e-19 1.40872e-19 9.52912e-21 0.0005 1.46608e-07 
64 1 0.0170063 0.0201419 0.00601043 1.29911e-14 5.25779e-15 -1.07341e-13 1.65701e-19 -4.00752e-20 1.82112e-20 0.0005 1.46608e-07 
65 1 0.0631808 0.0196931 0.0057741 5.21735e-15 7.19435e-14 -1.99483e-13 2.88521e-21 5.29396e-23 0 0.0005 1.46608e-07 
66 1 0.0448733 0.0164686 0.00634571 -2.63264e-17 -1.41523e-16 -9.78828e-16 -5.29396e-22 -2.64698e-22 0 0.0005 1.46608e-07 
68 1 0.0749008 0.0159223 0.00854264 0.000380814 -0.0137131 0.013936 -9.41753e-10 7.39629e-09 7.59937e-09 0.0005 1.46608e-07 
70 1 0.0640445 0.020552 0.0074687 0.00281365 -0.000927345 -0.00312658 9.73062e-08 4.2806e-07 1.66362e-07 0.0005 1.46608e-07 
74 1 0.0564256 0.0148701 0.0104297 0.00213275 -0.00326945 0.00807959 1.08963e-05 -2.44921e-06 -1.2202e-05 0.0005 1.46608e-07 
82 1 0.0574539 0.018033 0.00739674 0.000935892 -0.0234836 0.0017147 -3.57272e-08 8.27164e-08 -1.80527e-08 0.0005 1.46608e-07 
83 1 0.0762326 0.021342 0.00787281 5.12976e-05 -0.0186803 -0.0129044 -6.44088e-10 -1.03119e-08 7.2982e-09 0.0005 1.46608e-07 
86 1 0.0829173 0.0222111 0.0066532 2.53085e-15 -1.23272e-14 5.62303e-14 6.43216e-21 -3.17637e-22 -6.35275e-22 0.0005 1.46608e-07 
88 1 0.0357086 0.0161117 0.00660683 -4.65575e-15 2.81795e-14 7.49098e-14 1.4839e-19 -1.3129e-20 1.41878e-20 0.0005 1.46608e-07 
89 1 0.061617 0.0194189 0.0057813 -4.35411e-15 -1.94149e-14 -1.3904e-13 -8.61591e-21 4.87044e-21 -2.11758e-22 0.0005 1.46608e-07 
90 1 0.0580006 0.0203312 0.00740026 0.0018979 -0.013764 -0.00329776 -1.29226e-08 -4.93352e-08 -8.36654e-09 0.0005 1.46608e-07 
93 1 0.0688522 0.0157859 0.00871172 0.000580315 -0.011186 0.0127771 6.02196e-09 -7.13809e-10 5.82321e-09 0.0005 1.46608e-07 
100 1 0.0783461 0.0206431 0.0154632 9.80871e-05 0.0201543 -0.00771795 -5.6483e-10 5.73657e-10 -1.18677e-08 0.0005 1.46608e-07 
106 1 0.0439552 0.0161318 0.00656318 1.9575e-16 -2.75166e-15 -2.89973e-15 -6.61744e-22 0 0 0.0005 1.46608e-07 
107 1 0.0782305 0.0203396 0.00602091 7.3981e-15 2.04524e-14 -3.82762e-14 -2.64698e-23 1.05879e-22 2.11758e-22 0.0005 1.46608e-07 
108 1 0.0774627 0.0231091 0.0126243 0.000318852 0.00669475 -0.0223799 1.5372e-08 -1.02152e-09 -2.29797e-08 0.0005 1.46608e-07 
109 1 0.0732237 0.018766 0.005768 1.03443e-14 -5.92138e-14 -1.63383e-13 -1.24011e-20 3.09167e-20 -1.27055e-20 0.0005 1.46608e-07 
112 1 0.0634251 0.0187112 0.00581462 -7.36449e-15 -1.81924e-14 -1.43647e-13 3.57342e-22 0 0 0.0005 1.46608e-07 
113 1 0.0683032 0.0181933 0.00578444 2.27282e-15 4.38813e-15 1.52498e-13 -1.50878e-21 -8.60268e-23 0 0.0005 1.46608e-07 
121 1 0.0585973 0.0225008 0.00887585 1.27526e-05 -0.0127019 -0.0193996 -6.87718e-10 -1.18458e-08 4.77107e-09 0.0005 1.46608e-07 
124 1 0.0606894 0.0189134 0.00588092 -5.20603e-15 -2.31803e-14 -1.66017e-13 7.06743e-21 7.41154e-22 -4.23516e-22 0.0005 1.46608e-07 
125 1 0.0610253 0.0177278 0.0155771 0.0011284 0.0172069 0.00470173 -1.10187e-08 3.31053e-08 3.75653e-10 0.0005 1.46608e-07 
126 1 0.0286258 0.0183498 0.00592583 -1.9446e-14 1.84332e-16 -2.28118e-13 -2.64698e-23 5.64427e-21 2.11758e-22 0.0005 1.46608e-07 
127 1 0.0862115 0.0201056 0.00585272 2.61039e-15 -1.48752e-14 1.99836e-13 -1.09386e-20 -3.75871e-21 -2.11758e-22 0.0005 1.46608e-07 
129 1 0.0484923 0.0199015 0.0157459 0.00132635 0.0151587 -0.00411253 -1.12972e-05 2.24792e-05 -4.46708e-06 0.0005 1.46608e-07 
132 1 0.0619682 0.017221 0.00607724 7.78554e-15 3.47369e-14 2.48762e-13 8.27181e-22 2.64698e-23 0 0.0005 1.46608e-07 
134 1 0.0627145 0.0142211 0.0085796 0.00988141 0.04986 -0.0422208 0 0 -1.43822e-06 0.0005 1.46608e-07 
137 1 0.0238948 0.0168123 0.00667048 -1.55915e-14 -3.19692e-14 -1.0479e-13 -5.691e-21 4.23516e-22 8.47033e-22 0.0005 1.46608e-07 
142 1 0.0470176 0.01787 0.0060864 -3.12622e-15 -1.74651e-14 -1.20236e-13 -1.19114e-22 -1.85288e-22 0 0.0005 1.46608e-07 
146 1 0.0388539 0.0197419 0.00587248 -2.81889e-15 1.34633e-14 -6.65669e-14 -1.05879e-22 0 0 0.0005 1.46608e-07 
149 1 0.0766607 0.0190533 0.00580856 -9.1741e-15 5.49352e-14 2.11159e-13 3.35438e-20 1.29173e-20 -4.87044e-21 0.0005 1.46608e-07 
159 1 0.0779381 0.019417 0.00576935 2.003e-15 -1.20871e-14 -4.63948e-14 2.64698e-23 5.29396e-23 2.11758e-22 0.0005 1.46608e-07 
160 1 0.0612894 0.0181031 0.0059753 -6.03838e-15 -2.695e-14 -1.92995e-13 -5.9557e-23 2.64698e-23 0 0.0005 1.46608e-07 
163 1 0.0424878 0.0188132 0.00581899 -4.51497e-15 1.30456e-14 7.16621e-14 0 -5.29396e-23 0 0.0005 1.46608e-07 
165 1 0.0920805 0.0205253 0.0059177 -7.84784e-15 -7.28946e-14 1.85342e-13 -1.98523e-23 0 0 0.0005 1.46608e-07 
174 1 0.0804195 0.0175785 0.00838115 0.000277629 0.00215 -0.00132129 6.23951e-09 -1.10451e-08 -1.40547e-08 0.0005 1.46608e-07 
182 1 0.055651 0.0177812 0.00595299 -1.15953e-14 -1.57694e-14 -2.24476e-13 -2.36507e-20 -1.882e-20 2.32934e-21 0.0005 1.46608e-07 
187 1 0.102423 0.0196788 0.00582979 1.50828e-15 2.27871e-15 -1.78436e-14 1.72054e-20 -8.60268e-21 2.11758e-22 0.0005 1.46608e-07 
189 1 0.0453636 0.0157749 0.00687326 2.73156e-17 -5.64935e-16 -6.89753e-16 0 2.64698e-22 0 0.0005 1.46608e-07 
193 1 0.377402 0.017249 0.00855192 -4.7128e-05 0.00342307 -0.0040516 -2.81908e-10 1.40386e-07 -1.26982e-07 0.0005 1.46608e-07 
195 1 0.0507369 0.0203921 0.00594173 -5.72589e-15 -2.04836e-14 -3.07615e-13 -6.74979e-22 5.29396e-23 0 0.0005 1.46608e-07 
198 1 0.0594865 0.0231431 0.0127327 8.69334e-06 0.00622615 -0.0207596 -2.10207e-07 1.52887e-06 -5.36206e-06 0.0005 1.46608e-07 
201 1 0.0440263 0.0170728 0.00623272 2.29576e-16 -6.63847e-16 -3.64347e-15 -2.38228e-22 0 0 0.0005 1.46608e-07 
209 1 0.0653076 0.023342 0.0119526 0.00333553 -0.000953981 -0.0115508 2.5804e-07 -3.81042e-07 -1.30247e-06 0.0005 1.46608e-07 
213 1 0.0713435 0.0232534 0.0120746 2.91599e-05 0.00404942 -0.022077 -8.91657e-10 -1.06854e-08 -3.80524e-09 0.0005 1.46608e-07 
215 1 0.0824665 0.0205479 0.00623259 -1.14805e-14 -3.20834e-14 1.37828e-13 -3.13535e-20 2.4564e-20 3.17637e-21 0.0005 1.46608e-07 
221 1 0.059059 0.0180876 0.00593586 7.18582e-15 -1.49147e-14 -1.83491e-13 2.11758e-21 9.92617e-22 0 0.0005 1.46608e-07 
223 1 0.0629553 0.0178294 0.00595037 -8.57558e-15 -2.11852e-14 -1.67276e-13 -3.1102e-21 -7.94093e-23 2.11758e-22 0.0005 1.46608e-07 
226 1 0.0316007 0.0183082 0.00603438 1.31836e-14 -4.47385e-14 -1.10001e-13 -2.09641e-20 1.40819e-20 -8.25857e-21 0.0005 1.46608e-07 
227 1 0.0532189 0.0233732 0.0116256 0.00432166 0.00134506 -0.00364458 3.33351e-08 -3.1349e-09 1.8289e-07 0.0005 1.46608e-07 
229 1 0.0215463 0.0196109 0.00592744 -1.81493e-14 8.1435e-15 -1.66091e-13 0 0 0 0.0005 1.46608e-07 
240 1 0.0643041 0.0182053 0.00583362 -7.36445e-15 -1.81924e-14 -1.43647e-13 -1.05879e-22 0 0 0.0005 1.46608e-07 
242 1 0.0623985 0.0186635 0.00586235 -4.3538e-15 -1.94161e-14 -1.3904e-13 1.38966e-21 -7.94093e-23 0 0.0005 1.46608e-07 
245 1 0.0698691 0.0198121 0.0073113 0.000456943 -0.0196913 -0.0025804 -1.78738e-09 -7.97185e-09 1.01468e-08 0.0005 1.46608e-07 
246 1 0.0242602 0.0201274 0.00583803 -1.07556e-14 -1.726e-15 1.75368e-13 0 0 0 0.0005 1.46608e-07 
256 1 0.0544364 0.0201329 0.015708 0.00102766 0.0166316 -0.00309345 1.56718e-08 -3.76341e-08 -8.18108e-09 0.0005 1.46608e-07 
257 1 0.0453796 0.0178778 0.00742496 0.000190812 -0.0202651 0.00598462 -8.41692e-10 -1.63116e-09 1.19372e-08 0.0005 1.46608e-07 
258 1 0.0509725 0.0160711 0.00841646 0.00059489 -0.0146692 0.0144274 -5.40812e-09 -4.93259e-10 1.56898e-08 0.0005 1.46608e-07 
270 1 0.0504712 0.0179279 0.00611076 -3.69927e-15 -1.32327e-14 -1.98725e-13 1.57164e-21 -1.85288e-22 0 0.0005 1.46608e-07 
273 1 0.0371638 0.0187263 0.00573865 3.58366e-15 -1.82041e-14 8.99545e-14 4.09428e-19 -5.82865e-20 -2.96462e-20 0.0005 1.46608e-07 
274 1 0.0328558 0.0191954 0.00572294 8.80631e-16 5.06752e-15 -1.96345e-14 -4.52633e-21 0 -2.11758e-22 0.0005 1.46608e-07 
277 1 0.044465 0.0204317 0.00594645 -3.04356e-15 2.5322e-14 -8.03066e-14 -3.78915e-20 3.81165e-20 1.35525e-20 0.0005 1.46608e-07 
279 1 0.0538632 0.0223116 0.0143228 0.000822656 0.0108016 -0.0140131 -3.48271e-09 2.16478e-09 -1.87315e-08 0.0005 1.46608e-07 
280 1 0.066033 0.0188309 0.00577203 2.18556e-15 -1.03758e-14 -1.76838e-13 -2.82201e-20 -5.06896e-21 0 0.0005 1.46608e-07 
281 1 0.0833983 0.0210192 0.00634375 2.36849e-14 -4.02505e-14 1.90901e-13 2.96462e-21 4.34104e-21 4.23516e-22 0.0005 1.46608e-07 
283 1 0.0633988 0.0174131 0.00847575 -0.00405509 -0.00823251 0.0042492 -3.53068e-08 1.35087e-07 -1.17394e-06 0.0005 1.46608e-07 
291 1 0.0350698 0.0188001 0.00572051 -7.12831e-15 -4.06666e-14 1.57633e-13 5.66321e-20 -1.5776e-20 -1.27055e-21 0.0005 1.46608e-07 
293 1 0.0498484 0.0151024 0.0130198 -0.000279628 0.00611638 0.0216629 -1.25734e-09 1.0639e-08 -3.10717e-09 0.0005 1.46608e-07 
296 1 0.0667523 0.0199335 0.00579279 3.33245e-16 -9.53993e-15 3.48307e-14 -1.08299e-19 -1.11173e-21 6.35275e-22 0.0005 1.46608e-07 
298 1 0.061382 0.0161179 0.0146831 0.000473594 0.0148486 0.013256 -2.96451e-09 1.63218e-08 -5.35183e-10 0.0005 1.46608e-07 
