ITEM: TIMESTEP
49200000
ITEM: NUMBER OF ATOMS
88
ITEM: BOX BOUNDS ff ff ff
-0.02 0.43
-0.02 0.06
-0.02 0.07
ITEM: ATOMS id type x y z vx vy vz fx fy fz radius mass 
1 1 0.0387146 0.0187573 0.00575718 -8.66936e-15 7.85696e-14 2.00898e-13 -6.45863e-21 0 -2.11758e-22 0.0005 1.46608e-07 
2 1 0.0469755 0.0155999 0.00902945 0.00180642 -0.00890936 0.0108713 1.37499e-08 4.00852e-08 -5.02937e-08 0.0005 1.46608e-07 
3 1 0.0656942 0.0197559 0.0057542 -1.50678e-15 3.97335e-14 -1.45082e-13 1.47744e-19 -7.0939e-21 -3.38813e-21 0.0005 1.46608e-07 
8 1 0.102543 0.017821 0.00581645 -9.78466e-16 -4.35252e-15 -1.20042e-13 -2.31611e-23 -6.61744e-24 0 0.0005 1.46608e-07 
9 1 0.0387828 0.0214812 0.00622724 -2.75165e-19 1.05389e-18 -5.69604e-18 -1.32349e-23 5.9557e-23 0 0.0005 1.46608e-07 
14 1 0.0502101 0.0219509 0.0147365 0.000731397 0.017345 -0.0131802 -1.97808e-06 5.84965e-06 -5.26477e-06 0.0005 1.46608e-07 
18 1 0.0815251 0.0188155 0.00575115 1.78642e-20 7.25055e-21 -2.82648e-20 0 0 0 0.0005 1.46608e-07 
26 1 0.10448 0.0180949 0.00580371 1.49882e-14 2.2264e-14 -1.76088e-13 -3.39554e-19 2.70548e-19 6.77626e-21 0.0005 1.46608e-07 
28 1 0.0570827 0.0183142 0.0157133 0.000344028 0.0201806 0.00290119 -1.1452e-09 8.29976e-09 -9.19529e-09 0.0005 1.46608e-07 
32 1 0.0458896 0.0168235 0.00626774 -4.52722e-15 -2.52971e-14 -1.74151e-13 1.1693e-20 -3.70577e-22 -2.11758e-22 0.0005 1.46608e-07 
34 1 0.057335 0.017914 0.0058854 1.43143e-15 3.96451e-15 9.33129e-14 -4.31193e-20 -1.08129e-20 8.47033e-22 0.0005 1.46608e-07 
38 1 0.0618863 0.0226814 0.0137475 0.00132561 0.00795858 -0.0150966 -1.05869e-08 8.58229e-09 -3.04731e-08 0.0005 1.46608e-07 
46 1 0.136461 0.0187737 0.0058834 2.00935e-15 3.1165e-15 -2.90543e-14 -3.06388e-20 2.02494e-20 -8.47033e-22 0.0005 1.46608e-07 
48 1 0.0671029 0.0230465 0.0100796 0.000138429 -0.00630749 -0.0209518 -4.93651e-09 -1.27327e-08 -2.57556e-09 0.0005 1.46608e-07 
54 1 0.064309 0.0192734 0.00572472 1.79555e-08 -3.17404e-08 -1.54285e-09 9.68785e-11 -1.1461e-10 5.38527e-12 0.0005 1.46608e-07 
56 1 0.0830207 0.0197197 0.00608582 -1.58231e-14 -4.43645e-14 1.90571e-13 7.94093e-22 -1.00585e-21 -6.35275e-22 0.0005 1.46608e-07 
59 1 0.0793161 0.0192087 0.00581236 1.52335e-14 5.18791e-14 2.1969e-13 1.71127e-20 -3.44107e-21 -1.27055e-21 0.0005 1.46608e-07 
64 1 0.0170063 0.0201419 0.00601043 1.30119e-14 5.25802e-15 -1.07339e-13 1.55086e-19 -3.3921e-20 1.73642e-20 0.0005 1.46608e-07 
65 1 0.0632091 0.0196192 0.00574818 3.96541e-15 5.47607e-14 -1.51839e-13 -1.24871e-20 1.00585e-21 2.11758e-22 0.0005 1.46608e-07 
66 1 0.0448733 0.0164686 0.00634571 -2.66653e-17 -1.41819e-16 -9.79094e-16 5.29396e-23 1.58819e-22 4.23516e-22 0.0005 1.46608e-07 
68 1 0.0692649 0.0175427 0.0155221 0.000669537 0.0106791 0.0042486 -1.82442e-08 8.76175e-08 1.24194e-08 0.0005 1.46608e-07 
70 1 0.0583909 0.0148391 0.0114842 -5.82459e-05 -0.000168632 0.0214538 1.01248e-09 1.20387e-08 3.61246e-09 0.0005 1.46608e-07 
74 1 0.0512764 0.0174383 0.0155285 0.000973758 0.014282 0.00622317 7.51707e-10 4.72633e-09 -1.27301e-08 0.0005 1.46608e-07 
82 1 0.0525548 0.0148263 0.0108752 0.000831304 -0.0017642 0.0186885 -2.97757e-09 3.44312e-09 2.67128e-08 0.0005 1.46608e-07 
83 1 0.0704924 0.0148508 0.0111158 0.000533105 -0.00230583 0.0147527 7.15323e-10 8.11345e-09 2.73573e-09 0.0005 1.46608e-07 
86 1 0.0745131 0.0200179 0.0058526 -9.29145e-15 -5.06049e-14 2.04283e-13 2.32405e-20 -2.17052e-21 1.69407e-21 0.0005 1.46608e-07 
88 1 0.0357086 0.0161117 0.00660683 -4.4019e-15 2.82127e-14 7.49126e-14 1.64298e-19 3.86459e-21 8.89385e-21 0.0005 1.46608e-07 
89 1 0.061617 0.0194189 0.0057813 -4.35664e-15 -1.9414e-14 -1.3904e-13 5.44616e-21 -2.38228e-21 0 0.0005 1.46608e-07 
90 1 0.0530684 0.0158777 0.00869308 0.00188312 -0.00937204 0.0128309 -1.03399e-08 -7.0341e-09 2.63304e-08 0.0005 1.46608e-07 
93 1 0.0632929 0.017453 0.0155123 0.000690971 0.0129061 0.00663191 5.33866e-09 -3.71213e-08 -1.97098e-08 0.0005 1.46608e-07 
100 1 0.0729904 0.0227887 0.00958093 0.000386796 -0.00996225 -0.0183985 -2.70544e-09 -1.34e-08 -1.38106e-09 0.0005 1.46608e-07 
106 1 0.0439552 0.0161318 0.00656318 1.95941e-16 -2.75167e-15 -2.89974e-15 -2.64698e-22 0 0 0.0005 1.46608e-07 
107 1 0.0609874 0.0229175 0.00975464 0.000137358 -0.00895971 -0.017939 -1.46417e-09 -1.30661e-08 -2.63894e-09 0.0005 1.46608e-07 
108 1 0.0722785 0.0206707 0.00752663 0.00210478 -0.0115088 -0.00393145 -9.76023e-09 -4.12076e-08 -1.22382e-08 0.0005 1.46608e-07 
109 1 0.05969 0.0182498 0.00730543 2.77031e-05 -0.0219921 0.00306636 -4.6545e-10 -2.76633e-09 1.26687e-08 0.0005 1.46608e-07 
112 1 0.063554 0.0186245 0.00581898 4.70368e-08 -6.37025e-08 9.25235e-09 -3.33613e-11 3.64437e-11 -1.96866e-13 0.0005 1.46608e-07 
113 1 0.0578043 0.0156979 0.0141477 -0.000219678 0.0144598 0.0187709 -2.9248e-08 1.16936e-08 5.17734e-08 0.0005 1.46608e-07 
121 1 0.0532826 0.0164478 0.00811011 0.00168872 -0.0130699 0.0101733 -1.35253e-08 5.29857e-09 -2.71362e-08 0.0005 1.46608e-07 
124 1 0.0607121 0.0186881 0.00591167 -5.21373e-15 -2.3178e-14 -1.66018e-13 3.42254e-20 -4.79103e-21 -4.23516e-22 0.0005 1.46608e-07 
125 1 0.0552719 0.0233463 0.0109949 0.00133871 -0.00269776 -0.016599 -5.07655e-09 -1.5116e-08 -1.79485e-08 0.0005 1.46608e-07 
126 1 0.0286258 0.0183498 0.00592583 -1.9446e-14 1.91491e-16 -2.28118e-13 1.58819e-22 5.83121e-21 0 0.0005 1.46608e-07 
127 1 0.0862115 0.0201056 0.00585272 2.58518e-15 -1.48817e-14 1.99835e-13 -3.55721e-20 -4.5528e-21 2.11758e-22 0.0005 1.46608e-07 
129 1 0.043553 0.0233216 0.012113 -7.65262e-05 0.00360764 -0.0207752 7.22665e-10 -1.09566e-08 -1.52643e-08 0.0005 1.46608e-07 
132 1 0.0602022 0.0202654 0.00736348 0.00271382 -0.00229036 -0.00217257 4.11866e-06 -1.77001e-06 -1.20104e-05 0.0005 1.46608e-07 
134 1 0.0567518 0.0196654 0.0157392 -0.000117371 0.0222384 -0.00159344 -8.3304e-10 1.6585e-09 -1.17449e-08 0.0005 1.46608e-07 
137 1 0.0238948 0.0168123 0.00667048 -1.55918e-14 -3.19698e-14 -1.0479e-13 -3.17637e-22 -1.79995e-21 4.23516e-22 0.0005 1.46608e-07 
142 1 0.0470176 0.01787 0.0060864 -3.12552e-15 -1.74656e-14 -1.20236e-13 8.00711e-22 0 0 0.0005 1.46608e-07 
146 1 0.0388539 0.0197419 0.00587248 -2.81766e-15 1.34634e-14 -6.6567e-14 -4.30796e-21 1.58819e-22 2.11758e-22 0.0005 1.46608e-07 
149 1 0.0766607 0.0190533 0.00580856 -9.17436e-15 5.49361e-14 2.11158e-13 8.28372e-20 -2.94344e-20 8.89385e-21 0.0005 1.46608e-07 
159 1 0.0779397 0.0194308 0.00576583 6.48749e-15 -3.80598e-14 -1.46479e-13 2.22115e-19 3.63165e-20 -4.23516e-22 0.0005 1.46608e-07 
160 1 0.0612431 0.0233479 0.0109015 0.00153482 -0.00163464 -0.0127273 9.6955e-09 5.14733e-09 1.25669e-07 0.0005 1.46608e-07 
163 1 0.0424878 0.0188132 0.00581899 -4.51498e-15 1.30452e-14 7.16622e-14 0 2.64698e-22 -2.11758e-22 0.0005 1.46608e-07 
165 1 0.0920805 0.0205253 0.0059177 -7.84834e-15 -7.28946e-14 1.85342e-13 0 0 0 0.0005 1.46608e-07 
174 1 0.0674687 0.0176418 0.00892126 0.413975 -0.000909076 0.0865944 0 0 -1.43822e-06 0.0005 1.46608e-07 
182 1 0.0537084 0.0183042 0.00727759 0.001057 -0.0193696 0.0038256 -1.84777e-08 -1.15465e-07 2.50417e-08 0.0005 1.46608e-07 
187 1 0.102423 0.0196788 0.00582979 1.50117e-15 2.26464e-15 -1.7846e-14 3.86194e-20 -1.24143e-20 1.69407e-21 0.0005 1.46608e-07 
189 1 0.0453636 0.0157749 0.00687326 2.75014e-17 -5.64906e-16 -6.90188e-16 5.29396e-23 -1.58819e-22 -4.23516e-22 0.0005 1.46608e-07 
193 1 0.377396 0.0174476 0.00843129 -4.99394e-05 0.00450475 -0.0048235 -2.11183e-10 9.84654e-08 -9.12107e-08 0.0005 1.46608e-07 
195 1 0.0507369 0.0203921 0.00594173 -5.72401e-15 -2.0484e-14 -3.07615e-13 1.87605e-21 -4.63221e-22 0 0.0005 1.46608e-07 
198 1 0.0542707 0.0205516 0.00745598 0.00115819 -0.0122453 -0.00447047 -5.02585e-09 1.35242e-08 1.95274e-08 0.0005 1.46608e-07 
201 1 0.0440263 0.0170728 0.00623272 2.29675e-16 -6.63857e-16 -3.64347e-15 -1.72054e-22 0 0 0.0005 1.46608e-07 
209 1 0.0593629 0.0167174 0.00792232 0.000582973 -0.0158067 0.011532 -2.68986e-09 -6.94849e-11 1.44272e-08 0.0005 1.46608e-07 
213 1 0.065456 0.0178097 0.00737309 8.10984 -2.50876 -0.556068 1.20609 -0.602981 -2.21443 0.0005 1.46608e-07 
215 1 0.0824671 0.0205532 0.00623389 -9.52321e-15 -2.67151e-14 1.14756e-13 7.94093e-23 0 0 0.0005 1.46608e-07 
221 1 0.059059 0.0180876 0.00593586 7.185e-15 -1.49155e-14 -1.83491e-13 -2.77933e-22 -1.1382e-21 0 0.0005 1.46608e-07 
223 1 0.0640931 0.0172506 0.00599153 -9.28134e-16 8.92605e-14 2.24984e-13 3.40302e-21 1.05879e-22 2.11758e-22 0.0005 1.46608e-07 
226 1 0.0316007 0.0183082 0.00603438 1.31569e-14 -4.47546e-14 -1.09998e-13 1.15885e-19 -1.0715e-19 5.90805e-20 0.0005 1.46608e-07 
227 1 0.0479473 0.0192625 0.00717058 0.00164994 -0.0167941 -6.47493e-05 -6.789e-09 -2.24654e-08 1.36311e-08 0.0005 1.46608e-07 
229 1 0.0215463 0.0196109 0.00592744 -1.81445e-14 8.14315e-15 -1.66092e-13 -1.79995e-21 1.78671e-21 2.11758e-22 0.0005 1.46608e-07 
240 1 0.0649744 0.0177417 0.00585796 -7.36208e-15 -1.81934e-14 -1.43647e-13 4.39398e-21 -1.4029e-21 0 0.0005 1.46608e-07 
242 1 0.0623985 0.0186635 0.00586235 -4.35123e-15 -1.94162e-14 -1.3904e-13 5.75056e-21 0 -2.11758e-22 0.0005 1.46608e-07 
245 1 0.0645288 0.0148776 0.0110016 0.00323968 -0.00223185 0.0101231 6.9865e-09 -4.90129e-08 2.15209e-07 0.0005 1.46608e-07 
246 1 0.0242602 0.0201274 0.00583803 -1.07556e-14 -1.72605e-15 1.75368e-13 0 1.95215e-22 0 0.0005 1.46608e-07 
256 1 0.0491974 0.0232923 0.0107891 0.0014851 -0.00394145 -0.0162661 -1.0541e-08 -1.26496e-08 -2.7907e-08 0.0005 1.46608e-07 
257 1 0.0406374 0.0148665 0.0105654 0.000863408 -0.00298939 0.0176257 -2.7712e-09 8.22655e-09 1.83639e-08 0.0005 1.46608e-07 
258 1 0.0459538 0.0152749 0.0134818 8.71682e-05 0.00963735 0.0196953 -8.68461e-10 1.19716e-08 -9.21151e-10 0.0005 1.46608e-07 
270 1 0.0504712 0.0179279 0.00611076 -3.69907e-15 -1.32327e-14 -1.98725e-13 1.55179e-21 1.85288e-22 0 0.0005 1.46608e-07 
273 1 0.0371638 0.0187263 0.00573865 3.80907e-15 -1.81871e-14 8.99484e-14 2.16046e-19 2.69992e-21 -8.25857e-21 0.0005 1.46608e-07 
274 1 0.0328558 0.0191954 0.00572294 8.90083e-16 5.06752e-15 -1.9634e-14 3.97047e-23 0 0 0.0005 1.46608e-07 
277 1 0.044465 0.0204317 0.00594645 -3.01848e-15 2.52884e-14 -8.0318e-14 6.39755e-19 5.41042e-20 -7.19978e-21 0.0005 1.46608e-07 
279 1 0.0489776 0.0228778 0.00968994 0.000144955 -0.00900221 -0.0192819 -8.29643e-10 -1.20817e-08 9.28327e-10 0.0005 1.46608e-07 
280 1 0.0660681 0.018771 0.00577597 -5.08048e-16 2.41093e-15 4.1093e-14 2.62051e-21 1.58819e-22 0 0.0005 1.46608e-07 
281 1 0.0829947 0.0213806 0.00646753 -2.99651e-16 2.90024e-15 -1.31109e-14 8.50673e-20 7.30566e-21 -2.11758e-22 0.0005 1.46608e-07 
283 1 0.0591107 0.0159979 0.00859222 0.000165715 -0.0148881 0.0153409 -1.5348e-09 4.7084e-09 1.02964e-08 0.0005 1.46608e-07 
291 1 0.0350698 0.0188001 0.00572051 -7.09448e-15 -4.06763e-14 1.57632e-13 6.88214e-22 2.64698e-22 2.11758e-22 0.0005 1.46608e-07 
293 1 0.0448227 0.0194011 0.0157579 0.00104622 0.0188311 -0.0022256 -8.92601e-09 2.0317e-08 -1.1514e-08 0.0005 1.46608e-07 
296 1 0.0667523 0.0199335 0.00579279 3.35329e-16 -9.53793e-15 3.48312e-14 5.51068e-21 -1.58819e-22 0 0.0005 1.46608e-07 
298 1 0.0562419 0.0217804 0.0148414 0.0002865 0.0159012 -0.0133528 -8.77429e-10 -1.06968e-09 -1.32021e-08 0.0005 1.46608e-07 
