ITEM: TIMESTEP
92000000
ITEM: NUMBER OF ATOMS
88
ITEM: BOX BOUNDS ff ff ff
-0.02 0.43
-0.02 0.06
-0.02 0.07
ITEM: ATOMS id type x y z vx vy vz fx fy fz radius mass 
1 1 0.0387146 0.0187573 0.00575718 -8.68244e-15 7.85696e-14 2.00897e-13 0 0 0 0.0005 1.46608e-07 
2 1 0.0515454 0.0203376 0.00592249 1.07389e-14 2.65096e-14 3.50781e-13 9.81301e-20 -2.86668e-20 -2.11758e-22 0.0005 1.46608e-07 
3 1 0.0657625 0.0198039 0.00576669 -1.3765e-15 3.9733e-14 -1.45083e-13 -1.2904e-22 -3.17637e-22 -2.11758e-22 0.0005 1.46608e-07 
8 1 0.102543 0.017821 0.00581645 -9.78458e-16 -4.35261e-15 -1.20042e-13 1.98523e-22 0 0 0.0005 1.46608e-07 
9 1 0.0387828 0.0214812 0.00622724 -2.7607e-19 1.05314e-18 -5.69315e-18 -8.27181e-25 -4.1359e-23 0 0.0005 1.46608e-07 
14 1 0.191105 0.0203026 0.00593314 -1.12278e-14 -4.38018e-14 9.73355e-14 2.11758e-22 1.05879e-22 0 0.0005 1.46608e-07 
18 1 0.0819644 0.018662 0.00575674 1.34806e-14 4.56302e-14 1.93312e-13 -6.08805e-22 5.29396e-22 -2.11758e-22 0.0005 1.46608e-07 
26 1 0.10448 0.0180949 0.00580371 1.49539e-14 2.24244e-14 -1.7607e-13 9.9447e-20 1.33672e-20 1.16467e-20 0.0005 1.46608e-07 
28 1 0.0800401 0.0168845 0.00628905 -1.13558e-15 -7.29125e-15 -3.41145e-14 2.64698e-23 0 0 0.0005 1.46608e-07 
32 1 0.0458896 0.0168235 0.00626774 -4.52805e-15 -2.5297e-14 -1.74151e-13 1.17724e-20 -2.38228e-22 -2.11758e-22 0.0005 1.46608e-07 
34 1 0.0564645 0.0213699 0.00635393 -1.46669e-15 -1.50196e-14 3.20906e-14 7.3895e-19 -1.47172e-20 1.37643e-20 0.0005 1.46608e-07 
38 1 0.0957177 0.0194742 0.00570861 1.33783e-15 2.37681e-15 3.12224e-14 -3.0427e-20 3.54033e-20 -1.48231e-21 0.0005 1.46608e-07 
46 1 0.136461 0.0187737 0.0058834 2.0205e-15 3.14637e-15 -2.90504e-14 7.17993e-20 -3.45431e-20 1.27055e-21 0.0005 1.46608e-07 
48 1 0.0822817 0.0172512 0.00607537 6.74812e-16 3.61517e-14 1.18632e-13 7.04758e-22 -1.58819e-22 2.11758e-22 0.0005 1.46608e-07 
54 1 0.0652975 0.0207687 0.00603532 -1.12768e-15 3.2565e-14 -1.18914e-13 1.75362e-22 -1.05879e-22 0 0.0005 1.46608e-07 
56 1 0.0870153 0.0206158 0.00591409 3.22108e-15 5.89889e-15 -3.89487e-14 0 -3.44107e-22 0 0.0005 1.46608e-07 
59 1 0.0792518 0.0191834 0.00582281 6.34923e-15 2.15034e-14 9.1098e-14 -1.84627e-20 2.91168e-21 -1.27055e-21 0.0005 1.46608e-07 
64 1 0.0170063 0.0201419 0.00601043 1.30337e-14 5.2493e-15 -1.07336e-13 5.56924e-20 -7.41154e-21 6.56451e-21 0.0005 1.46608e-07 
65 1 0.0643606 0.0210989 0.00615793 9.85105e-15 -6.28956e-14 2.05619e-13 -1.98523e-22 0 -2.11758e-22 0.0005 1.46608e-07 
66 1 0.0448733 0.0164686 0.00634571 -2.6616e-17 -1.41453e-16 -9.7892e-16 -4.23516e-22 -1.05879e-22 2.11758e-22 0.0005 1.46608e-07 
68 1 0.0803045 0.0192159 0.005743 -9.52827e-15 -2.67153e-14 1.14756e-13 1.32349e-23 0 0 0.0005 1.46608e-07 
70 1 0.0811915 0.017199 0.00615598 4.51291e-15 1.52771e-14 6.47201e-14 2.24993e-22 1.05879e-22 0 0.0005 1.46608e-07 
74 1 0.0615774 0.0172559 0.00608456 -7.15015e-16 -3.16503e-15 -2.26487e-14 -1.05879e-22 2.11758e-22 0 0.0005 1.46608e-07 
82 1 0.063441 0.0163701 0.00647495 5.19844e-16 7.45477e-15 9.54557e-15 -4.63221e-23 0 1.05879e-22 0.0005 1.46608e-07 
83 1 0.0855075 0.019144 0.00579031 -2.80432e-15 1.60116e-14 -2.15085e-13 6.61744e-24 -6.61744e-23 0 0.0005 1.46608e-07 
86 1 0.0829173 0.0222111 0.0066532 2.53555e-15 -1.23239e-14 5.62308e-14 4.66e-20 4.18223e-21 -1.05879e-21 0.0005 1.46608e-07 
88 1 0.0357086 0.0161117 0.00660683 -4.65318e-15 2.81833e-14 7.49086e-14 -1.73827e-19 -1.48231e-20 -5.0822e-21 0.0005 1.46608e-07 
89 1 0.0618809 0.0199413 0.00582959 -3.02995e-16 -4.19844e-15 1.16292e-14 3.30872e-23 2.64698e-23 0 0.0005 1.46608e-07 
90 1 0.0845463 0.0178241 0.00589851 -1.71124e-15 5.08494e-14 1.75601e-13 -3.20781e-21 -2.64698e-22 0 0.0005 1.46608e-07 
93 1 0.11021 0.0201465 0.00580174 8.81353e-16 6.44312e-15 -3.33566e-14 -4.22193e-21 -8.99973e-21 -1.27055e-21 0.0005 1.46608e-07 
100 1 0.0830136 0.0187071 0.00584947 -9.52795e-15 -2.67155e-14 1.14756e-13 0 0 0 0.0005 1.46608e-07 
106 1 0.0439552 0.0161318 0.00656318 1.95446e-16 -2.75146e-15 -2.89951e-15 -3.17637e-22 0 0 0.0005 1.46608e-07 
107 1 0.0782305 0.0203396 0.00602091 2.65629e-15 7.34513e-15 -1.3745e-14 -7.94093e-23 -5.29396e-23 0 0.0005 1.46608e-07 
108 1 0.0822914 0.0196163 0.00600118 7.16618e-15 2.00949e-14 -8.63171e-14 8.47033e-22 1.58819e-22 2.11758e-22 0.0005 1.46608e-07 
109 1 0.0732237 0.018766 0.005768 1.02933e-14 -5.91669e-14 -1.63403e-13 5.916e-21 1.4929e-20 -6.77626e-21 0.0005 1.46608e-07 
112 1 0.0644815 0.0190744 0.00573853 7.9804e-16 -3.78212e-15 -6.44673e-14 0 0 0 0.0005 1.46608e-07 
113 1 0.0683453 0.0182317 0.00578271 7.82629e-18 1.40394e-17 5.06786e-16 2.64698e-23 -2.64698e-23 0 0.0005 1.46608e-07 
121 1 0.0609817 0.0187588 0.00589337 -4.35072e-15 -1.94153e-14 -1.3904e-13 2.39552e-21 -7.14684e-22 0 0.0005 1.46608e-07 
124 1 0.0609012 0.0197493 0.00575757 -5.19423e-15 -2.31833e-14 -1.66017e-13 0 0 0 0.0005 1.46608e-07 
125 1 0.0634974 0.0172463 0.00599641 6.51058e-16 1.60898e-15 1.27054e-14 -1.98523e-23 0 0 0.0005 1.46608e-07 
126 1 0.0286258 0.0183498 0.00592583 -1.94458e-14 1.8029e-16 -2.28119e-13 0 1.51405e-20 0 0.0005 1.46608e-07 
127 1 0.0888729 0.0199317 0.00596406 -1.21455e-15 -2.23258e-15 1.47214e-14 -1.91906e-21 7.94093e-23 -2.11758e-22 0.0005 1.46608e-07 
129 1 0.0601285 0.017977 0.00598674 -1.08917e-14 2.26338e-14 2.78393e-13 1.48105e-19 1.14482e-20 4.44692e-21 0.0005 1.46608e-07 
132 1 0.0626638 0.0179373 0.00595165 -7.36651e-15 -1.81908e-14 -1.43647e-13 -4.01017e-21 -2.91168e-22 2.11758e-22 0.0005 1.46608e-07 
134 1 0.0644862 0.0176438 0.00589539 -5.97998e-15 -1.47723e-14 -1.16641e-13 8.20563e-22 0 0 0.0005 1.46608e-07 
137 1 0.0238948 0.0168123 0.00667048 -1.55915e-14 -3.19684e-14 -1.04791e-13 -1.19114e-21 -3.17637e-21 1.27055e-21 0.0005 1.46608e-07 
142 1 0.042543 0.0198089 0.00582143 -6.10701e-17 5.217e-16 -1.65396e-15 3.30872e-24 0 0 0.0005 1.46608e-07 
146 1 0.0388539 0.0197419 0.00587248 -2.83495e-15 1.34606e-14 -6.65668e-14 -2.28302e-21 -4.76456e-22 0 0.0005 1.46608e-07 
149 1 0.0766607 0.0190533 0.00580856 -9.16763e-15 5.4935e-14 2.11159e-13 7.19647e-20 -1.55642e-20 4.87044e-21 0.0005 1.46608e-07 
159 1 0.0779381 0.019417 0.00576935 7.1944e-16 -4.33956e-15 -1.66585e-14 7.94093e-23 0 2.11758e-22 0.0005 1.46608e-07 
160 1 0.0620021 0.0189487 0.00583492 3.62155e-16 1.62602e-15 1.16134e-14 1.98523e-23 -7.94093e-23 0 0.0005 1.46608e-07 
163 1 0.0424897 0.0188104 0.00581963 1.03807e-16 -3.01441e-16 -1.65286e-15 3.30872e-24 0 0 0.0005 1.46608e-07 
165 1 0.0920805 0.0205253 0.0059177 -7.84821e-15 -7.28946e-14 1.85342e-13 0 0 0 0.0005 1.46608e-07 
174 1 0.0861882 0.0174876 0.00841481 -3.8823e-05 0.00250864 -0.00317392 -1.33329e-10 7.78093e-08 -7.02065e-08 0.0005 1.46608e-07 
182 1 0.0557406 0.0175302 0.00596599 -5.58957e-15 -7.70043e-15 -1.08968e-13 -9.90896e-20 1.3354e-19 -3.59989e-21 0.0005 1.46608e-07 
187 1 0.102423 0.0196788 0.00582979 1.52848e-15 2.25952e-15 -1.78443e-14 4.36751e-21 1.56966e-20 2.11758e-21 0.0005 1.46608e-07 
189 1 0.0453636 0.0157749 0.00687326 2.73232e-17 -5.64927e-16 -6.89613e-16 2.11758e-22 2.11758e-22 -2.11758e-22 0.0005 1.46608e-07 
193 1 0.377411 0.017497 0.00841019 9.49542e-05 0.00588722 -0.00487073 -2.40893e-09 6.36355e-08 -6.61359e-08 0.0005 1.46608e-07 
195 1 0.0505919 0.0207133 0.00592302 6.74748e-15 1.89379e-14 2.6288e-13 -9.19825e-22 6.35275e-22 0 0.0005 1.46608e-07 
198 1 0.0643736 0.0166453 0.00623285 -9.28293e-16 8.92625e-14 2.24983e-13 1.00916e-22 1.05879e-22 0 0.0005 1.46608e-07 
201 1 0.0440263 0.0170728 0.00623272 2.29487e-16 -6.63915e-16 -3.64325e-15 -1.05879e-22 0 0 0.0005 1.46608e-07 
209 1 0.0799751 0.0180833 0.00603206 1.34798e-14 4.56293e-14 1.93312e-13 -8.00711e-21 1.21761e-21 4.23516e-22 0.0005 1.46608e-07 
213 1 0.0810479 0.0182624 0.00591498 1.06383e-15 3.6022e-15 1.52617e-14 -1.20437e-21 -5.29396e-23 0 0.0005 1.46608e-07 
215 1 0.0824664 0.0205903 0.00624245 -1.03499e-15 -2.92841e-15 1.2572e-14 -1.2004e-20 5.29396e-21 2.11758e-22 0.0005 1.46608e-07 
221 1 0.0595038 0.0223955 0.00675756 2.49238e-16 -1.68376e-15 4.05246e-15 -1.36716e-20 -2.11758e-21 -1.05879e-21 0.0005 1.46608e-07 
223 1 0.063626 0.0183177 0.00585415 -7.36744e-15 -1.81922e-14 -1.43647e-13 6.08805e-22 -5.29396e-23 0 0.0005 1.46608e-07 
226 1 0.0316007 0.0183082 0.00603438 1.31641e-14 -4.47301e-14 -1.10007e-13 -9.26442e-21 2.04347e-20 -8.89385e-21 0.0005 1.46608e-07 
227 1 0.0584979 0.0201946 0.00586451 3.22584e-16 4.87942e-15 -1.04428e-14 -1.11835e-21 4.23516e-22 0 0.0005 1.46608e-07 
229 1 0.0215463 0.0196109 0.00592744 -1.81456e-14 8.1435e-15 -1.66092e-13 3.17637e-22 0 0 0.0005 1.46608e-07 
240 1 0.0690612 0.017564 0.00598647 -1.68193e-17 1.76947e-16 4.66257e-16 -2.64698e-23 5.29396e-23 0 0.0005 1.46608e-07 
242 1 0.0636055 0.0197465 0.00578044 6.28574e-15 -4.01368e-14 1.31216e-13 -6.35275e-22 -3.17637e-22 2.11758e-22 0.0005 1.46608e-07 
245 1 0.0977054 0.0174609 0.00630006 1.90613e-15 7.46634e-14 2.25694e-13 7.47275e-21 0 0 0.0005 1.46608e-07 
246 1 0.0242602 0.0201274 0.00583803 -1.07556e-14 -1.726e-15 1.75368e-13 0 0 0 0.0005 1.46608e-07 
256 1 0.0888023 0.0213064 0.0151469 0.000119996 0.0196089 -0.0109917 -2.52535e-10 -1.01839e-09 -1.10154e-08 0.0005 1.46608e-07 
257 1 0.0567438 0.01754 0.00591345 -9.84402e-15 -1.33751e-14 -1.90504e-13 -4.79103e-21 -4.35428e-21 2.11758e-22 0.0005 1.46608e-07 
258 1 0.061759 0.0163729 0.00651709 1.10546e-15 -1.26243e-14 -1.80137e-14 -4.49986e-22 -1.32349e-22 0 0.0005 1.46608e-07 
270 1 0.0504712 0.0179279 0.00611076 -3.69935e-15 -1.32326e-14 -1.98725e-13 -1.45584e-21 1.58819e-22 0 0.0005 1.46608e-07 
273 1 0.0371638 0.0187263 0.00573865 3.8077e-15 -1.8226e-14 8.99406e-14 5.55865e-20 1.63107e-19 3.02814e-20 0.0005 1.46608e-07 
274 1 0.0328558 0.0191954 0.00572294 8.76328e-16 5.06752e-15 -1.96346e-14 -1.05879e-22 0 0 0.0005 1.46608e-07 
277 1 0.044465 0.0204317 0.00594645 -2.83479e-15 2.5331e-14 -8.03114e-14 2.32458e-19 2.11229e-20 -2.32934e-21 0.0005 1.46608e-07 
279 1 0.0625324 0.0169121 0.00611939 -3.85104e-16 3.70491e-14 9.33836e-14 -3.48657e-21 0 -2.11758e-22 0.0005 1.46608e-07 
280 1 0.066033 0.0188309 0.00577203 2.19927e-15 -1.03709e-14 -1.76838e-13 -4.58953e-20 -9.41001e-21 0 0.0005 1.46608e-07 
281 1 0.0833983 0.0210192 0.00634375 2.36844e-14 -4.02483e-14 1.90902e-13 6.4851e-21 1.38702e-20 2.11758e-21 0.0005 1.46608e-07 
283 1 0.0634616 0.0174838 0.00842391 -1.71284e-05 -0.000790674 0.001434 -7.34907e-10 -5.05048e-08 9.58506e-09 0.0005 1.46608e-07 
291 1 0.0350698 0.0188001 0.00572051 -7.09842e-15 -4.06778e-14 1.57632e-13 6.51421e-20 -1.99582e-20 -2.11758e-21 0.0005 1.46608e-07 
293 1 0.0623373 0.0157218 0.00700852 1.07369e-15 -1.26405e-14 -1.80091e-14 1.05879e-22 2.11758e-22 2.11758e-22 0.0005 1.46608e-07 
296 1 0.0667607 0.0199247 0.00579031 -4.07491e-16 1.19609e-14 -4.36766e-14 3.10689e-21 -1.05879e-22 0 0.0005 1.46608e-07 
298 1 0.0801544 0.0202323 0.00596714 -1.80126e-14 -5.05044e-14 2.16941e-13 1.00585e-21 -2.64698e-22 2.11758e-22 0.0005 1.46608e-07 
