ITEM: TIMESTEP
19600000
ITEM: NUMBER OF ATOMS
89
ITEM: BOX BOUNDS ff ff ff
-0.02 0.43
-0.02 0.06
-0.02 0.07
ITEM: ATOMS id type x y z vx vy vz fx fy fz radius mass 
1 1 0.0389279 0.0193587 0.00579183 9.29358e-15 -4.44632e-14 2.19821e-13 -3.90892e-20 4.2881e-21 2.32934e-21 0.0005 1.46608e-07 
2 1 0.0226885 0.0233194 0.0123088 0.000131573 0.00397772 -0.0207294 -4.75481e-10 -8.53532e-09 -9.5311e-09 0.0005 1.46608e-07 
3 1 0.0422285 0.0181978 0.0157033 0.00128855 0.0172932 0.00523118 2.40092e-08 -1.70969e-08 -2.75623e-08 0.0005 1.46608e-07 
8 1 0.0431765 0.0149567 0.0128116 0.00130508 0.00672008 0.0178974 -9.84039e-08 -1.07535e-06 -1.36126e-06 0.0005 1.46608e-07 
9 1 0.0436892 0.020408 0.00596775 2.40345e-15 -2.04484e-14 6.4884e-14 2.31611e-22 1.05879e-22 -2.11758e-22 0.0005 1.46608e-07 
14 1 0.0204951 0.0146328 0.0120091 0.0395952 0.00276361 -0.0540942 0 0 -1.43822e-06 0.0005 1.46608e-07 
18 1 0.08261 0.0191091 0.00590955 -1.80393e-14 -5.05067e-14 2.16938e-13 8.69929e-20 -2.75286e-20 8.89385e-21 0.0005 1.46608e-07 
26 1 0.103453 0.0178822 0.00580682 1.69025e-15 7.51652e-15 2.07276e-13 6.17408e-21 1.23746e-21 -2.11758e-22 0.0005 1.46608e-07 
28 1 0.0317847 0.0149439 0.0101882 0.000232847 -0.00538031 0.0188946 -4.55356e-10 8.48603e-09 1.27764e-08 0.0005 1.46608e-07 
32 1 0.0458019 0.0165106 0.00631547 2.38501e-15 1.33742e-14 9.20544e-14 -2.4961e-20 -3.28225e-21 1.05879e-21 0.0005 1.46608e-07 
34 1 0.0423802 0.0173121 0.0154113 0.000160763 0.0192189 0.00919707 7.47624e-10 1.78363e-09 -1.17957e-08 0.0005 1.46608e-07 
38 1 0.0326977 0.0178261 0.0073512 0.000286193 -0.0198855 0.00478638 -1.58589e-08 4.23322e-08 -1.22187e-08 0.0005 1.46608e-07 
46 1 0.0350233 0.0227198 0.0137907 0.00296952 0.00621734 -0.0122326 -1.26838e-08 1.78371e-09 -1.76516e-08 0.0005 1.46608e-07 
48 1 0.0393435 0.0205652 0.00746883 0.00133858 -0.015769 -0.00507378 1.12456e-07 1.04027e-07 1.45599e-07 0.0005 1.46608e-07 
54 1 0.0380752 0.015573 0.00899623 0.000544579 -0.00841921 0.0117645 -6.14466e-09 5.78246e-09 2.63903e-08 0.0005 1.46608e-07 
56 1 0.0442308 0.016019 0.00850041 0.00245844 -0.00762293 0.0109582 -7.41031e-09 -5.66971e-08 8.82577e-08 0.0005 1.46608e-07 
59 1 0.0415655 0.0209165 0.0153777 -9.17877e-06 0.0123905 -0.00665402 4.40845e-07 2.01415e-06 -5.30426e-07 0.0005 1.46608e-07 
64 1 0.0170063 0.0201419 0.00601043 1.30504e-14 5.26789e-15 -1.07333e-13 1.01194e-19 1.22555e-20 1.35525e-20 0.0005 1.46608e-07 
65 1 0.0390754 0.0192384 0.00719282 0.000141846 -0.0216498 -0.00137183 -1.30834e-09 -7.62914e-09 1.02695e-08 0.0005 1.46608e-07 
66 1 0.0446528 0.0176984 0.0074608 6.88025e-05 -0.0204414 0.00677282 -1.65571e-10 -1.87742e-09 1.21082e-08 0.0005 1.46608e-07 
68 1 0.0408791 0.0230457 0.0131867 0.00143838 0.00749669 -0.0158069 -2.61553e-08 -5.45065e-08 -1.34874e-07 0.0005 1.46608e-07 
70 1 0.0330732 0.0193466 0.00729749 8.02409e-05 -0.0226461 -0.00230908 2.17503e-10 -5.87516e-09 1.25881e-08 0.0005 1.46608e-07 
74 1 0.0213729 0.0207801 0.00762061 0.000673612 -0.0185154 -0.00925782 -5.50651e-09 -9.33621e-09 5.658e-09 0.0005 1.46608e-07 
82 1 0.0234863 0.0218481 0.0149535 3.77249e-05 0.0395033 -0.0312395 2.52593e-10 1.57069e-07 -1.96635e-07 0.0005 1.46608e-07 
83 1 0.0420153 0.0191109 0.0157586 0.000248217 0.0212943 5.38822e-05 -1.31613e-08 -1.20855e-07 3.14955e-08 0.0005 1.46608e-07 
86 1 0.0388082 0.0181826 0.00727086 0.000364135 -0.0200105 0.00295632 6.42717e-09 7.57605e-08 -3.41527e-08 0.0005 1.46608e-07 
88 1 0.0192968 0.0147445 0.0128269 -0.0291808 0.0419011 0.162723 0 0 -1.43822e-06 0.0005 1.46608e-07 
89 1 0.0426288 0.0163767 0.0148631 0.00128406 0.0150481 0.0106624 -9.48683e-09 2.07421e-08 5.51621e-09 0.0005 1.46608e-07 
90 1 0.0238543 0.0200997 0.0158189 0.00038409 0.0207965 -0.00499722 -5.47585e-10 -1.08854e-09 -1.52231e-08 0.0005 1.46608e-07 
93 1 0.0336529 0.0217631 0.00811218 0.00140089 -0.0115775 -0.00930825 5.94048e-10 3.357e-09 1.27368e-08 0.0005 1.46608e-07 
96 1 0.04174 0.020111 0.0156872 -0.000186214 0.0202096 -0.00469606 7.04515e-09 3.90365e-06 -2.31134e-06 0.0005 1.46608e-07 
100 1 0.0439459 0.0153785 0.00937699 0.000303611 -0.00902433 0.0175833 -2.66687e-09 3.73753e-09 1.55036e-08 0.0005 1.46608e-07 
106 1 0.0439974 0.0161245 0.00657288 -1.5722e-15 2.21015e-14 2.32873e-14 -3.1102e-22 -1.05879e-22 0 0.0005 1.46608e-07 
107 1 0.0320427 0.0154646 0.00914882 0.000341415 -0.0131823 0.0146598 2.8549e-08 1.22149e-07 -8.2573e-08 0.0005 1.46608e-07 
108 1 0.0428795 0.0157373 0.014249 0.000867379 0.012165 0.0155674 8.668e-09 -1.94293e-08 -3.61505e-08 0.0005 1.46608e-07 
109 1 0.0342904 0.0232638 0.0105658 0.0016323 -0.00355596 -0.013845 -1.95347e-08 -2.63513e-08 -4.58216e-08 0.0005 1.46608e-07 
112 1 0.0285906 0.0233594 0.0117026 0.000225175 0.0010641 -0.0215233 -1.87209e-09 -9.83646e-09 -1.05517e-08 0.0005 1.46608e-07 
113 1 0.0294631 0.0214587 0.0150965 0.000913536 0.0152084 -0.00911869 -1.84506e-09 -6.29697e-09 -1.14204e-08 0.0005 1.46608e-07 
121 1 0.0299841 0.0192587 0.0158064 0.00403987 0.00840534 -0.00168504 -3.15136e-08 4.12506e-07 -8.90752e-09 0.0005 1.46608e-07 
124 1 0.0406476 0.0233484 0.0119427 0.000328777 0.00251706 -0.0209385 -2.69069e-11 -9.31492e-09 -6.41416e-09 0.0005 1.46608e-07 
125 1 0.027339 0.0205329 0.00749085 0.000148252 -0.0197641 -0.00738818 -1.07806e-09 -9.26983e-09 7.56996e-09 0.0005 1.46608e-07 
126 1 0.0286258 0.0183498 0.00592583 -1.9446e-14 1.8475e-16 -2.28118e-13 2.64698e-23 1.45249e-20 0 0.0005 1.46608e-07 
127 1 0.0411111 0.022471 0.0140863 -0.000102642 0.0145103 -0.0170768 -1.76138e-09 -6.2736e-09 -9.60884e-09 0.0005 1.46608e-07 
129 1 0.0134682 0.0213597 0.0153015 0.00846777 0.0134221 -0.00858889 2.41936e-09 1.69394e-09 -8.44689e-09 0.0005 1.46608e-07 
132 1 0.0312717 0.0149844 0.012517 0.0029093 0.00430885 0.0141495 -1.09628e-08 1.41334e-08 3.07836e-08 0.0005 1.46608e-07 
134 1 0.0309549 0.0154962 0.0139109 0.00022549 0.0098627 0.0169603 1.18116e-07 7.03858e-07 8.69721e-07 0.0005 1.46608e-07 
137 1 0.0238881 0.0168749 0.0066524 -1.89259e-14 -3.88076e-14 -1.27204e-13 2.64698e-23 5.29396e-23 0 0.0005 1.46608e-07 
142 1 0.0436949 0.0149297 0.0106641 0.000153249 -0.00527629 0.0217405 5.92761e-10 1.06362e-08 5.60399e-09 0.0005 1.46608e-07 
146 1 0.0364625 0.0194152 0.0166661 0.0643343 0.0548343 -0.0122959 0 0 -1.43822e-06 0.0005 1.46608e-07 
149 1 0.0435008 0.0147959 0.0116184 0.0011748 0.00034953 0.020448 -1.37498e-08 1.11834e-08 3.34955e-08 0.0005 1.46608e-07 
159 1 0.0651534 0.0184728 0.00578214 1.65985e-16 -7.8673e-16 -1.33898e-14 -3.30872e-23 3.04402e-22 0 0.0005 1.46608e-07 
160 1 0.0324443 0.0165771 0.00797017 0.000917598 -0.0156189 0.010452 1.85607e-08 1.43632e-07 -1.28163e-07 0.0005 1.46608e-07 
163 1 0.0220443 0.0228978 0.00959682 0.00140486 -0.00322932 -0.00564818 3.37727e-06 -1.05767e-06 -4.67853e-08 0.0005 1.46608e-07 
165 1 0.0482396 0.0199117 0.00591171 -4.98626e-15 1.07136e-14 1.11256e-13 -4.93926e-20 -9.74088e-21 -1.27055e-21 0.0005 1.46608e-07 
174 1 0.026765 0.0179917 0.00734653 0.00010394 -0.0213839 0.00496042 -1.32472e-09 -4.08186e-09 1.21067e-08 0.0005 1.46608e-07 
182 1 0.0248352 0.0158745 0.0143818 0.000197076 0.0142283 0.0160953 -7.70147e-10 1.26249e-08 -1.74357e-09 0.0005 1.46608e-07 
187 1 0.102423 0.0196788 0.00582979 1.50559e-15 2.26952e-15 -1.7845e-14 3.86459e-21 -3.20284e-21 -2.11758e-22 0.0005 1.46608e-07 
189 1 0.0296557 0.0204725 0.0155265 0.000124876 0.0202933 -0.0068345 -1.29467e-09 1.12686e-09 -1.17537e-08 0.0005 1.46608e-07 
193 1 0.378047 0.0171318 0.00863168 0.00178546 -0.00706911 0.00507372 1.37275e-08 9.07011e-08 -5.70031e-08 0.0005 1.46608e-07 
195 1 0.0246683 0.016492 0.0151609 0.000402484 0.0207456 0.0169235 0 0 -1.43822e-06 0.0005 1.46608e-07 
198 1 0.0263857 0.0162907 0.00818083 0.000374044 -0.0165464 0.0132639 -3.83303e-09 -1.78107e-09 1.58312e-08 0.0005 1.46608e-07 
201 1 0.0440291 0.0170649 0.00623435 -1.84827e-15 5.33859e-15 2.934e-14 -1.32349e-23 1.05879e-22 0 0.0005 1.46608e-07 
209 1 0.0306218 0.0164207 0.014922 0.000189631 0.017039 0.013831 -1.3191e-09 1.12923e-08 -6.03128e-09 0.0005 1.46608e-07 
213 1 0.0365235 0.0167576 0.0150781 0.00214999 0.0135654 0.00702327 2.27065e-08 -6.24705e-08 -1.81309e-08 0.0005 1.46608e-07 
215 1 0.0378046 0.0150175 0.0100493 0.420306 0.334483 -0.437987 -0.0179631 -0.0368813 -0.00872274 0.0005 1.46608e-07 
221 1 0.0580541 0.0173356 0.00595763 9.18177e-15 -1.90547e-14 -2.34434e-13 1.32349e-23 -1.32349e-23 2.11758e-22 0.0005 1.46608e-07 
223 1 0.0334098 0.0210172 0.00770044 0.00122263 -0.0155824 -0.0065084 -4.60964e-09 -1.68415e-08 2.05037e-09 0.0005 1.46608e-07 
226 1 0.0208648 0.0184484 0.00722547 0.000353598 -0.0205615 0.00299055 -1.96267e-09 -5.8698e-09 1.1057e-08 0.0005 1.46608e-07 
227 1 0.0167874 0.0233806 0.0125436 -0.000439989 0.00194758 -0.0182871 8.82036e-06 7.30271e-07 -1.94378e-05 0.0005 1.46608e-07 
229 1 0.0215463 0.0196109 0.00592744 -1.81494e-14 8.1435e-15 -1.66091e-13 0 0 0 0.0005 1.46608e-07 
240 1 0.0360884 0.018701 0.0156589 9.03732e-05 0.0194338 0.00519744 1.48729e-08 8.16935e-08 -2.50617e-08 0.0005 1.46608e-07 
242 1 0.0345251 0.0233791 0.0114688 0.000530653 1.19536e-05 -0.0198691 -1.68779e-09 -7.74435e-09 -5.76125e-09 0.0005 1.46608e-07 
245 1 0.0347341 0.0232814 0.0124904 0.000903052 0.00382626 -0.0154885 1.95949e-07 -3.05024e-09 5.57168e-07 0.0005 1.46608e-07 
246 1 0.0242602 0.0201274 0.00583803 -1.07556e-14 -1.73385e-15 1.75368e-13 2.38228e-22 5.19139e-21 0 0.0005 1.46608e-07 
256 1 0.0204999 0.0240738 0.0130399 0.00113848 0.000694889 0.000187703 9.34334e-06 -1.18573e-06 7.12854e-06 0.0005 1.46608e-07 
257 1 0.0136165 0.0168965 0.0153896 0.0115516 0.000683224 -0.0158822 0 0 -1.43822e-06 0.0005 1.46608e-07 
258 1 0.0194634 0.0240946 0.0129022 9.17537e-05 -0.000554369 0.00017131 -1.71794e-07 7.96813e-09 9.14873e-10 0.0005 1.46608e-07 
270 1 0.028265 0.0232498 0.0104647 0.00116393 -0.00607076 -0.0174164 -1.85004e-08 -4.90138e-08 -1.56855e-07 0.0005 1.46608e-07 
273 1 0.017394 0.0234779 0.0117905 0.0065643 -0.000299562 -0.00514368 -3.12214e-05 4.56307e-06 -1.98371e-05 0.0005 1.46608e-07 
274 1 0.0195037 0.0146973 0.0117031 0.00113923 -0.00246827 0.016376 -1.80338e-08 -8.36323e-09 3.566e-08 0.0005 1.46608e-07 
277 1 0.0399051 0.0224877 0.00885473 0.000312989 -0.0106081 -0.0145426 3.14011e-09 -3.93354e-08 -7.58308e-09 0.0005 1.46608e-07 
279 1 0.021803 0.0220954 0.00861534 0.000928579 -0.00886679 -0.00986512 7.6314e-10 -2.67351e-10 8.26831e-09 0.0005 1.46608e-07 
280 1 0.0373278 0.0148062 0.0121865 -8.09885e-05 0.00207019 0.0223662 -2.28685e-09 1.07791e-08 1.51205e-09 0.0005 1.46608e-07 
281 1 0.0367394 0.0161317 0.0146327 0.00354513 0.00960269 0.00787837 -3.30108e-08 -6.18935e-08 -1.84403e-08 0.0005 1.46608e-07 
283 1 0.0302244 0.0181296 0.0157102 0.000350213 0.0212555 0.00504489 -6.26442e-09 7.99858e-09 -9.42028e-09 0.0005 1.46608e-07 
291 1 0.03293 0.0193179 0.00575787 -8.27352e-15 -4.74532e-14 1.83895e-13 0 0 0 0.0005 1.46608e-07 
293 1 0.0168488 0.0142009 0.0135109 0.000665003 0.000593773 -0.00203679 -9.74167e-09 -1.09273e-08 3.49432e-08 0.0005 1.46608e-07 
296 1 0.0212128 0.0145239 0.0128106 -0.00579566 0.0120065 -0.00090401 0 0 -1.43822e-06 0.0005 1.46608e-07 
298 1 0.0276363 0.0216454 0.008052 0.00118375 -0.0118478 -0.00861268 3.98355e-09 -3.67024e-09 1.9158e-08 0.0005 1.46608e-07 
