ITEM: TIMESTEP
28600000
ITEM: NUMBER OF ATOMS
89
ITEM: BOX BOUNDS ff ff ff
-0.02 0.43
-0.02 0.06
-0.02 0.07
ITEM: ATOMS id type x y z vx vy vz fx fy fz radius mass 
1 1 0.0388307 0.0187336 0.00577146 -9.85253e-15 8.71489e-14 2.22854e-13 8.1924e-21 1.05879e-21 -6.35275e-22 0.0005 1.46608e-07 
2 1 0.0277541 0.0151855 0.0133002 8.44614e-05 0.00848511 0.0204559 -9.50141e-10 1.14964e-08 -1.19722e-09 0.0005 1.46608e-07 
3 1 0.0477265 0.0194132 0.00718178 0.00148604 -0.0164858 -0.000683662 -8.39465e-09 -2.2304e-08 1.47051e-08 0.0005 1.46608e-07 
8 1 0.0518053 0.0151072 0.0131666 0.000245044 0.00673996 0.0192132 -4.92745e-09 4.92814e-08 6.10589e-08 0.0005 1.46608e-07 
9 1 0.0436892 0.020408 0.00596775 2.42846e-15 -2.04464e-14 6.48837e-14 -2.48551e-20 -8.09975e-21 -1.69407e-21 0.0005 1.46608e-07 
14 1 0.0309295 0.0231958 0.0102226 0.000394906 -0.00634864 -0.0195522 -3.54101e-09 -1.05838e-08 -8.45971e-09 0.0005 1.46608e-07 
18 1 0.08261 0.0191091 0.00590955 -1.84322e-14 -5.0491e-14 2.16909e-13 4.3879e-19 -1.28908e-19 3.81165e-21 0.0005 1.46608e-07 
26 1 0.103453 0.0178822 0.00580682 1.6912e-15 7.5161e-15 2.07276e-13 3.92911e-21 -2.6933e-21 2.11758e-22 0.0005 1.46608e-07 
28 1 0.04129 0.0173289 0.00756632 0.000254103 -0.019622 0.00795016 3.59577e-09 1.49782e-08 8.81792e-09 0.0005 1.46608e-07 
32 1 0.0458692 0.0166351 0.00629564 2.92062e-16 1.62401e-15 1.11821e-14 -5.4263e-22 2.64698e-23 0 0.0005 1.46608e-07 
34 1 0.0572659 0.0174442 0.00591793 9.18122e-15 -1.9055e-14 -2.34434e-13 5.55865e-22 -5.29396e-22 0 0.0005 1.46608e-07 
38 1 0.042375 0.0219693 0.00833885 0.000767782 -0.0144934 -0.0124824 -7.4284e-09 -2.02354e-08 -5.99521e-09 0.0005 1.46608e-07 
46 1 0.044681 0.0189477 0.0158225 0.00350327 -0.00227891 0.0024997 3.25493e-09 -1.96504e-07 -2.68041e-08 0.0005 1.46608e-07 
48 1 0.0480666 0.0206869 0.00753907 0.000165393 -0.0198055 -0.00892838 -6.99026e-10 -8.44132e-09 8.25906e-09 0.0005 1.46608e-07 
54 1 0.0472772 0.0172591 0.00765851 -0.000166383 -0.0210766 0.00809234 -9.32287e-10 2.83272e-09 1.05066e-08 0.0005 1.46608e-07 
56 1 0.0498643 0.0222057 0.0144414 0.00340308 0.00376155 -0.0054719 -5.72706e-06 1.77022e-05 -1.27241e-05 0.0005 1.46608e-07 
59 1 0.0793161 0.0192087 0.00581236 1.52595e-14 5.1863e-14 2.19692e-13 -6.75244e-20 2.82697e-20 -8.47033e-22 0.0005 1.46608e-07 
64 1 0.0170063 0.0201419 0.00601043 1.29784e-14 5.26876e-15 -1.07342e-13 -2.13241e-19 -7.66962e-20 -2.92226e-20 0.0005 1.46608e-07 
65 1 0.0632091 0.0196192 0.00574818 3.98471e-15 5.47605e-14 -1.51839e-13 5.27874e-20 -2.64698e-22 1.48231e-21 0.0005 1.46608e-07 
66 1 0.0448873 0.0164493 0.00634816 -4.52778e-15 -2.52973e-14 -1.74151e-13 -4.56604e-22 1.58819e-22 0 0.0005 1.46608e-07 
68 1 0.0489987 0.0232785 0.010709 0.0013179 -0.00319457 -0.0128756 -1.9294e-07 -8.45036e-07 2.3005e-07 0.0005 1.46608e-07 
70 1 0.0426628 0.0227781 0.00935866 8.95946e-05 -0.0102719 -0.0200306 -4.99967e-10 -1.29805e-08 1.52843e-09 0.0005 1.46608e-07 
74 1 0.0311878 0.0233711 0.0116416 0.000522402 0.00204447 -0.0174662 3.49607e-08 -4.14046e-08 2.39553e-08 0.0005 1.46608e-07 
82 1 0.032256 0.0208238 0.0153648 0.000168862 0.0194484 -0.00879959 -5.99113e-10 1.10401e-10 -1.26231e-08 0.0005 1.46608e-07 
83 1 0.0505003 0.0199679 0.0157343 0.00164957 0.0145028 -0.00385099 -1.6162e-08 6.02227e-08 -2.84329e-08 0.0005 1.46608e-07 
86 1 0.0475541 0.0184562 0.00729747 0.00115056 -0.0187411 0.00322627 -1.00856e-08 -3.09931e-08 1.41472e-08 0.0005 1.46608e-07 
88 1 0.0357086 0.0161117 0.00660683 -4.37421e-15 2.81985e-14 7.49197e-14 -3.69915e-20 2.20229e-20 -1.01644e-20 0.0005 1.46608e-07 
89 1 0.051095 0.0173057 0.0154741 -1.54097e-05 0.0198612 0.0104701 7.78394e-10 7.85839e-09 -9.51516e-09 0.0005 1.46608e-07 
90 1 0.0325553 0.0193459 0.0157981 0.00172947 0.0104747 -0.00186885 -9.0274e-10 6.96529e-08 -1.91854e-08 0.0005 1.46608e-07 
93 1 0.043238 0.023355 0.0119354 0.00120048 0.00216364 -0.0171139 4.38532e-09 4.08664e-09 5.58996e-09 0.0005 1.46608e-07 
96 1 0.0502048 0.021077 0.0152858 0.000215049 0.018928 -0.00981079 -1.15598e-09 -2.04299e-10 -1.14308e-08 0.0005 1.46608e-07 
100 1 0.0524639 0.0149411 0.010177 -5.64615e-05 -0.00861915 0.0207941 5.22503e-10 1.0615e-08 6.85422e-09 0.0005 1.46608e-07 
106 1 0.0439552 0.0161318 0.00656318 1.95428e-16 -2.75167e-15 -2.89971e-15 3.04402e-22 0 0 0.0005 1.46608e-07 
107 1 0.0415347 0.0185558 0.00720551 0.00130554 -0.00410663 -0.000468703 1.8056e-08 1.9216e-07 -4.06081e-08 0.0005 1.46608e-07 
108 1 0.0514815 0.015704 0.0142561 0.0016535 0.00602881 0.00845461 5.85732e-09 -4.689e-09 -2.74625e-08 0.0005 1.46608e-07 
109 1 0.0437575 0.0226701 0.0138945 0.000337662 0.00957143 -0.0119537 6.59126e-07 -9.8183e-07 1.36928e-06 0.0005 1.46608e-07 
112 1 0.0372388 0.0233748 0.0118822 0.00139434 0.000575942 -0.0148144 3.74547e-09 -1.54782e-08 3.11471e-09 0.0005 1.46608e-07 
113 1 0.0382195 0.0209088 0.0152459 0.00892962 0.018419 -0.0132005 0.0011097 0.000594089 -0.000328138 0.0005 1.46608e-07 
121 1 0.0392206 0.0166688 0.0150781 0.000659367 0.0165114 0.0126355 9.58847e-09 -2.34966e-08 -5.17273e-08 0.0005 1.46608e-07 
124 1 0.0486455 0.0227038 0.00932329 0.000288834 -0.0106658 -0.0189209 -4.40459e-09 -1.34436e-08 -2.59272e-09 0.0005 1.46608e-07 
125 1 0.0356493 0.0191544 0.00730994 -0.000124803 -0.0221518 -0.00218518 1.03127e-09 -2.05643e-09 1.1656e-08 0.0005 1.46608e-07 
126 1 0.0286258 0.0183498 0.00592583 -1.94475e-14 7.41679e-17 -2.28118e-13 0 2.465e-20 0 0.0005 1.46608e-07 
127 1 0.0495271 0.0229441 0.0131073 0.000257639 0.00810949 -0.0195853 -1.51157e-09 -8.29197e-09 -9.01791e-09 0.0005 1.46608e-07 
129 1 0.0219211 0.0148554 0.012971 0.00408125 0.00112096 0.00280695 -3.62304e-08 -6.03309e-08 9.52345e-08 0.0005 1.46608e-07 
132 1 0.0410505 0.0165115 0.00802583 0.00259596 -0.0100514 0.00688284 -5.80182e-09 -8.3251e-09 1.53082e-08 0.0005 1.46608e-07 
134 1 0.0404014 0.0148897 0.0104028 0.00150461 -0.00343476 0.0168615 -6.09509e-09 7.17019e-09 2.15138e-08 0.0005 1.46608e-07 
137 1 0.0238948 0.0168123 0.00667048 -1.55904e-14 -3.19684e-14 -1.04791e-13 3.97047e-22 -5.29396e-23 -2.11758e-22 0.0005 1.46608e-07 
142 1 0.0470176 0.01787 0.0060864 -3.12674e-15 -1.74653e-14 -1.20236e-13 8.00711e-22 -2.64698e-23 0 0.0005 1.46608e-07 
146 1 0.0390565 0.0200205 0.00592023 -3.94311e-15 1.88487e-14 -9.32083e-14 -1.22489e-20 -1.74701e-21 2.11758e-22 0.0005 1.46608e-07 
149 1 0.0766607 0.0190533 0.00580856 -9.09785e-15 5.5053e-14 2.11131e-13 2.42397e-19 3.96888e-19 -9.19031e-20 0.0005 1.46608e-07 
159 1 0.0779397 0.0194308 0.00576583 6.39714e-15 -3.80959e-14 -1.46474e-13 -1.46312e-19 -3.46754e-20 2.75286e-21 0.0005 1.46608e-07 
160 1 0.0421384 0.0209247 0.00762389 0.000117356 -0.0195363 -0.0108704 -2.65943e-10 -9.26916e-09 9.35982e-09 0.0005 1.46608e-07 
163 1 0.0424878 0.0188132 0.00581899 -4.51472e-15 1.30452e-14 7.16622e-14 -1.32349e-23 0 0 0.0005 1.46608e-07 
165 1 0.0920805 0.0205253 0.0059177 -7.84776e-15 -7.28946e-14 1.85342e-13 6.61744e-24 0 0 0.0005 1.46608e-07 
174 1 0.0352877 0.0173123 0.0075495 0.000442342 -0.0187059 0.00850932 -2.34226e-09 -3.37774e-09 1.33663e-08 0.0005 1.46608e-07 
182 1 0.0331379 0.0170942 0.0153183 0.000385407 0.0176189 0.00803258 -3.35424e-09 2.04249e-08 -2.12774e-09 0.0005 1.46608e-07 
187 1 0.102423 0.0196788 0.00582979 1.53222e-15 2.26314e-15 -1.78435e-14 -3.79577e-20 5.71747e-21 -2.32934e-21 0.0005 1.46608e-07 
189 1 0.0384243 0.020179 0.01564 0.427339 0.0908841 0.0244567 0.0102718 0.00379427 0.00374814 0.0005 1.46608e-07 
193 1 0.377416 0.0174402 0.00844833 -3.15951e-05 0.00368566 -0.00292971 -3.09868e-10 5.64119e-08 -5.66052e-08 0.0005 1.46608e-07 
195 1 0.0507369 0.0203921 0.00594173 -5.72645e-15 -2.04836e-14 -3.07615e-13 1.20768e-21 7.14684e-22 0 0.0005 1.46608e-07 
198 1 0.0340416 0.0147982 0.0120339 0.000719284 0.00132606 0.0186572 -1.66097e-09 1.50812e-08 1.24906e-08 0.0005 1.46608e-07 
201 1 0.0440263 0.0170728 0.00623272 2.29535e-16 -6.63859e-16 -3.64347e-15 2.38228e-22 0 0 0.0005 1.46608e-07 
209 1 0.0399053 0.0149692 0.0128613 0.00263194 -0.000450768 0.0122623 -0.0710137 0.250088 -0.144882 0.0005 1.46608e-07 
213 1 0.0458021 0.0151305 0.0132017 0.000287132 0.0081753 0.0194755 -1.84249e-09 1.2965e-08 2.35664e-09 0.0005 1.46608e-07 
215 1 0.0469589 0.0162133 0.00829486 0.00176242 -0.00646784 0.00651745 -4.94697e-09 1.71167e-08 -9.82699e-09 0.0005 1.46608e-07 
221 1 0.059059 0.0180876 0.00593586 7.18003e-15 -1.49209e-14 -1.8349e-13 1.24143e-20 1.05879e-20 -4.23516e-22 0.0005 1.46608e-07 
223 1 0.0430722 0.0233768 0.0111704 0.00192252 -0.00229827 -0.00997411 2.20897e-08 2.22151e-08 -1.02749e-08 0.0005 1.46608e-07 
226 1 0.0316007 0.0183082 0.00603438 1.3153e-14 -4.47245e-14 -1.1001e-13 9.71441e-21 -2.84815e-20 1.24937e-20 0.0005 1.46608e-07 
227 1 0.0283907 0.0148634 0.0104781 3.64919e-05 -0.00657202 0.0212255 -3.05617e-10 1.04098e-08 6.41504e-09 0.0005 1.46608e-07 
229 1 0.0215463 0.0196109 0.00592744 -1.81493e-14 8.13631e-15 -1.66091e-13 0 -7.41154e-22 0 0.0005 1.46608e-07 
240 1 0.0451673 0.0170698 0.0153269 0.000371461 0.0185434 0.0100839 -1.16987e-09 1.11106e-08 -5.82003e-09 0.0005 1.46608e-07 
242 1 0.0442152 0.0210711 0.0153285 0.000495199 0.0176806 -0.00814232 -1.49413e-09 -9.05695e-09 -1.51279e-08 0.0005 1.46608e-07 
245 1 0.0445371 0.0197887 0.0156955 0.00480883 -0.00294113 0.00417242 4.68215e-08 -3.27866e-07 9.61681e-08 0.0005 1.46608e-07 
246 1 0.0242602 0.0201274 0.00583803 -1.07556e-14 -1.73294e-15 1.75368e-13 0 -1.32349e-22 0 0.0005 1.46608e-07 
256 1 0.0301108 0.0208092 0.00757236 0.00110565 -0.0121279 -0.00483009 8.52484e-10 1.52279e-08 1.51984e-08 0.0005 1.46608e-07 
257 1 0.0184613 0.0140172 0.0129652 0.000988279 -0.000842133 0.00164136 1.23048e-08 -1.15333e-08 2.32674e-08 0.0005 1.46608e-07 
258 1 0.0266717 0.0189619 0.0158232 0.000764949 0.0192518 -0.000175664 -5.78905e-09 1.56788e-08 -9.23102e-09 0.0005 1.46608e-07 
270 1 0.0369709 0.0232456 0.010464 0.00118887 -0.0047648 -0.0156086 -9.88932e-09 -1.93345e-08 -3.25408e-08 0.0005 1.46608e-07 
273 1 0.0371638 0.0187263 0.00573865 3.8129e-15 -1.81881e-14 8.9948e-14 -4.33443e-20 -6.19393e-21 -4.23516e-22 0.0005 1.46608e-07 
274 1 0.0328558 0.0191954 0.00572294 8.90341e-16 5.06752e-15 -1.9634e-14 5.02926e-22 0 0 0.0005 1.46608e-07 
277 1 0.0483095 0.0217579 0.0081282 0.00079514 -0.0143381 -0.010286 -5.32161e-09 -2.0125e-08 -2.57315e-09 0.0005 1.46608e-07 
279 1 0.0315185 0.0230698 0.0129705 -0.000273187 0.010938 -0.0201167 1.84395e-08 -1.23223e-08 2.6172e-09 0.0005 1.46608e-07 
280 1 0.0467784 0.0156342 0.00899305 0.00262977 -0.0025687 0.0020407 -2.43475e-08 9.19567e-08 -1.73199e-07 0.0005 1.46608e-07 
281 1 0.046162 0.014841 0.0115653 -0.000557204 -0.000501597 0.0225108 5.50543e-09 6.36929e-09 1.23238e-07 0.0005 1.46608e-07 
283 1 0.0396069 0.0155116 0.0137939 1.77724 2.34283 -1.90719 -0.814322 -1.50983 1.2214 0.0005 1.46608e-07 
291 1 0.0350698 0.0188001 0.00572051 -7.09102e-15 -4.06765e-14 1.57632e-13 -2.39949e-20 -5.29396e-23 -1.05879e-21 0.0005 1.46608e-07 
293 1 0.025505 0.0231484 0.0129426 0.00149479 0.00779169 -0.0167253 1.25218e-09 -2.00004e-08 1.8816e-09 0.0005 1.46608e-07 
296 1 0.0319295 0.0219641 0.0146905 0.000640227 0.014547 -0.0118517 -2.43886e-09 -8.03276e-09 -1.60354e-08 0.0005 1.46608e-07 
298 1 0.0365892 0.0226353 0.00913393 0.000102866 -0.00941326 -0.0140948 -8.14811e-09 -5.05601e-08 -3.28492e-08 0.0005 1.46608e-07 
