ITEM: TIMESTEP
60600000
ITEM: NUMBER OF ATOMS
88
ITEM: BOX BOUNDS ff ff ff
-0.02 0.43
-0.02 0.06
-0.02 0.07
ITEM: ATOMS id type x y z vx vy vz fx fy fz radius mass 
1 1 0.0387146 0.0187573 0.00575718 -8.68246e-15 7.85697e-14 2.00897e-13 1.32349e-23 0 0 0.0005 1.46608e-07 
2 1 0.0515454 0.0203376 0.00592249 1.06853e-14 2.65348e-14 3.50781e-13 -1.44148e-19 3.79444e-20 4.23516e-22 0.0005 1.46608e-07 
3 1 0.0657504 0.019873 0.00578573 -1.35526e-15 3.9733e-14 -1.45084e-13 -9.01147e-20 -1.42937e-21 4.23516e-22 0.0005 1.46608e-07 
8 1 0.102543 0.017821 0.00581645 -9.78451e-16 -4.35259e-15 -1.20042e-13 1.2904e-22 -1.32349e-23 0 0.0005 1.46608e-07 
9 1 0.0387828 0.0214812 0.00622724 -2.73421e-19 1.05394e-18 -5.7047e-18 1.65436e-24 6.78288e-23 0 0.0005 1.46608e-07 
14 1 0.191105 0.0203026 0.00593314 -1.12285e-14 -4.3801e-14 9.73358e-14 7.94093e-22 -2.11758e-22 0 0.0005 1.46608e-07 
18 1 0.081805 0.0184766 0.00581164 4.51828e-15 1.52769e-14 6.47198e-14 -9.15854e-21 1.64113e-21 4.23516e-22 0.0005 1.46608e-07 
26 1 0.10448 0.0180949 0.00580371 1.49847e-14 2.23687e-14 -1.76075e-13 -1.40555e-20 9.47618e-21 8.47033e-22 0.0005 1.46608e-07 
28 1 0.068703 0.0202009 0.00733842 0.000742527 -0.0171324 -0.00380642 -2.42109e-09 -1.57429e-08 6.96824e-09 0.0005 1.46608e-07 
32 1 0.0458896 0.0168235 0.00626774 -4.52586e-15 -2.52972e-14 -1.74151e-13 6.28657e-22 5.82335e-22 -2.11758e-22 0.0005 1.46608e-07 
34 1 0.0564645 0.0213699 0.00635393 -9.90847e-16 -1.51465e-14 3.20453e-14 -2.86463e-19 2.29758e-20 4.02341e-21 0.0005 1.46608e-07 
38 1 0.0736883 0.015833 0.00868009 0.000222229 -0.0139415 0.0154004 -4.76675e-09 -2.03484e-08 6.74661e-08 0.0005 1.46608e-07 
46 1 0.136461 0.0187737 0.0058834 2.03155e-15 3.13181e-15 -2.90512e-14 5.03323e-20 -1.72848e-20 1.48231e-21 0.0005 1.46608e-07 
48 1 0.0781283 0.0164022 0.0148832 0.000672163 0.0149666 0.0107267 -2.89413e-09 3.24028e-08 1.17422e-08 0.0005 1.46608e-07 
54 1 0.0642637 0.0197348 0.005762 -1.61708e-15 4.68992e-14 -1.71253e-13 -4.51641e-21 -5.29396e-23 0 0.0005 1.46608e-07 
56 1 0.0830166 0.0197662 0.00609629 -1.58214e-14 -4.43642e-14 1.90571e-13 0 2.11758e-22 0 0.0005 1.46608e-07 
59 1 0.0793161 0.0192087 0.00581236 1.53973e-14 5.1852e-14 2.19685e-13 1.34069e-20 -5.17749e-20 1.16467e-20 0.0005 1.46608e-07 
64 1 0.0170063 0.0201419 0.00601043 1.30401e-14 5.25342e-15 -1.07335e-13 9.11355e-20 -5.78365e-21 1.01644e-20 0.0005 1.46608e-07 
65 1 0.0631787 0.0196998 0.00577645 -7.29742e-19 -1.0499e-17 3.03716e-17 0 0 0 0.0005 1.46608e-07 
66 1 0.0448733 0.0164686 0.00634571 -2.63966e-17 -1.41311e-16 -9.78708e-16 5.82335e-22 2.11758e-22 0 0.0005 1.46608e-07 
68 1 0.0805886 0.0189533 0.00578393 -6.32648e-15 -2.12932e-14 -9.02495e-14 -2.8005e-20 1.16467e-21 1.69407e-21 0.0005 1.46608e-07 
70 1 0.0698553 0.0233384 0.0109025 0.00159659 -0.00108027 -0.0120155 2.95747e-05 2.75892e-05 -3.6111e-05 0.0005 1.46608e-07 
74 1 0.0617875 0.0162143 0.00830233 0.00134497 -0.0154609 0.0115964 9.51164e-09 2.24949e-08 1.39722e-08 0.0005 1.46608e-07 
82 1 0.0630535 0.0161004 0.00670666 1.11093e-18 1.99383e-17 2.52466e-17 0 -1.05879e-22 -1.05879e-22 0.0005 1.46608e-07 
83 1 0.085142 0.0184899 0.00574639 3.31518e-15 -1.89273e-14 2.54251e-13 1.04556e-21 -5.29396e-23 0 0.0005 1.46608e-07 
86 1 0.0829173 0.0222111 0.0066532 2.53291e-15 -1.23271e-14 5.62302e-14 -2.21023e-21 -1.27055e-21 0 0.0005 1.46608e-07 
88 1 0.0357086 0.0161117 0.00660683 -4.52118e-15 2.81818e-14 7.49171e-14 -1.79545e-19 -5.29396e-23 -1.18585e-20 0.0005 1.46608e-07 
89 1 0.0616493 0.0194572 0.00577495 -3.48923e-15 -1.56482e-14 -1.12063e-13 4.1862e-20 -1.36319e-20 6.35275e-22 0.0005 1.46608e-07 
90 1 0.0636923 0.0231528 0.0102841 0.00238616 -0.00510835 -0.0143123 -1.1781e-08 -6.24366e-09 -1.6594e-08 0.0005 1.46608e-07 
93 1 0.0747976 0.0205762 0.00744089 0.00274423 -0.00443559 -0.00299095 2.74474e-06 -2.07334e-06 2.34561e-06 0.0005 1.46608e-07 
100 1 0.0828763 0.0187765 0.00585425 -1.04132e-15 -2.92576e-15 1.25721e-14 -2.49742e-20 1.24937e-20 6.35275e-22 0.0005 1.46608e-07 
106 1 0.0439552 0.0161318 0.00656318 1.95944e-16 -2.75147e-15 -2.89952e-15 -3.44107e-22 0 0 0.0005 1.46608e-07 
107 1 0.0782305 0.0203396 0.00602091 6.32568e-15 1.74904e-14 -3.27321e-14 -7.94093e-23 -1.58819e-22 2.11758e-22 0.0005 1.46608e-07 
108 1 0.0820549 0.0194844 0.00595083 -1.58194e-14 -4.43731e-14 1.90569e-13 -9.26178e-20 -6.88214e-22 -6.56451e-21 0.0005 1.46608e-07 
109 1 0.0732237 0.018766 0.005768 1.03926e-14 -5.92384e-14 -1.63371e-13 1.33024e-19 -1.01115e-20 1.03762e-20 0.0005 1.46608e-07 
112 1 0.0634461 0.0187369 0.00581028 3.67008e-19 3.52292e-18 3.09515e-17 -5.29396e-23 2.64698e-23 0 0.0005 1.46608e-07 
113 1 0.0683032 0.0181933 0.00578444 2.28271e-15 4.38584e-15 1.52498e-13 -1.45915e-21 1.13291e-20 -2.11758e-22 0.0005 1.46608e-07 
121 1 0.0607559 0.017212 0.00607349 -4.51968e-15 9.3783e-15 1.15375e-13 0 0 0 0.0005 1.46608e-07 
124 1 0.0607457 0.0189765 0.00587035 -3.50675e-15 -1.56489e-14 -1.12062e-13 2.75286e-21 2.64698e-23 -2.11758e-22 0.0005 1.46608e-07 
125 1 0.0629345 0.0169044 0.0061241 4.62919e-20 1.22104e-17 2.97458e-17 -3.30872e-23 1.05879e-22 0 0.0005 1.46608e-07 
126 1 0.0286258 0.0183498 0.00592583 -1.94458e-14 1.86148e-16 -2.28119e-13 -2.64698e-23 1.46754e-20 0 0.0005 1.46608e-07 
127 1 0.0862115 0.0201056 0.00585272 2.60422e-15 -1.48762e-14 1.99836e-13 -5.04911e-21 5.16161e-22 0 0.0005 1.46608e-07 
129 1 0.0540692 0.0166551 0.0150541 0.000207834 0.0175009 0.0122967 -8.65783e-10 1.05035e-08 -6.29075e-09 0.0005 1.46608e-07 
132 1 0.0620308 0.0174683 0.00604074 5.43677e-11 5.98341e-11 -1.00557e-11 3.1786e-13 3.49997e-13 -5.86875e-14 0.0005 1.46608e-07 
134 1 0.0638561 0.0173717 0.00596215 -1.19927e-16 -2.8963e-16 -2.30101e-15 -7.94093e-23 -1.05879e-22 0 0.0005 1.46608e-07 
137 1 0.0238948 0.0168123 0.00667048 -1.55908e-14 -3.19689e-14 -1.04791e-13 2.11758e-21 -1.05879e-22 -2.11758e-22 0.0005 1.46608e-07 
142 1 0.042543 0.0198089 0.00582143 -3.6373e-16 3.10685e-15 -9.8391e-15 1.98523e-23 -5.29396e-23 2.11758e-22 0.0005 1.46608e-07 
146 1 0.0388539 0.0197419 0.00587248 -2.83262e-15 1.34605e-14 -6.65669e-14 -1.32349e-23 0 0 0.0005 1.46608e-07 
149 1 0.0766607 0.0190533 0.00580856 -9.18822e-15 5.49353e-14 2.11158e-13 5.24035e-20 -1.69407e-21 5.50571e-21 0.0005 1.46608e-07 
159 1 0.0779381 0.019417 0.00576935 1.71446e-15 -1.03366e-14 -3.96742e-14 -2.64698e-23 -1.05879e-22 2.11758e-22 0.0005 1.46608e-07 
160 1 0.0612866 0.0181325 0.00597128 -6.11012e-11 -6.72897e-11 1.13121e-11 -2.71525e-13 -2.98832e-13 5.02766e-14 0.0005 1.46608e-07 
163 1 0.0424897 0.0188104 0.00581963 6.18823e-16 -1.79573e-15 -9.83526e-15 -2.64698e-23 5.29396e-23 0 0.0005 1.46608e-07 
165 1 0.0920805 0.0205253 0.0059177 -7.84799e-15 -7.28946e-14 1.85342e-13 -1.32349e-23 0 0 0.0005 1.46608e-07 
174 1 0.0803095 0.0179535 0.00822981 -2.60911e-05 -0.000468294 -0.000267052 -2.84068e-10 -1.25869e-07 3.15746e-08 0.0005 1.46608e-07 
182 1 0.0557526 0.0175354 0.00596499 -7.02194e-15 -9.5375e-15 -1.3615e-13 -7.94093e-23 2.64698e-23 0 0.0005 1.46608e-07 
187 1 0.102423 0.0196788 0.00582979 1.50586e-15 2.2646e-15 -1.78456e-14 2.79786e-20 2.96462e-21 2.5411e-21 0.0005 1.46608e-07 
189 1 0.0453636 0.0157749 0.00687326 2.73364e-17 -5.65154e-16 -6.89769e-16 -5.29396e-23 -1.58819e-22 0 0.0005 1.46608e-07 
193 1 0.377412 0.017559 0.0083895 -0.000323528 -0.00166052 0.00265596 -1.30343e-08 -1.35422e-07 3.68389e-08 0.0005 1.46608e-07 
195 1 0.0505919 0.0207133 0.00592302 6.74692e-15 1.89381e-14 2.6288e-13 -5.75718e-22 2.77933e-22 0 0.0005 1.46608e-07 
198 1 0.0642197 0.0165122 0.00632159 -9.58312e-17 -1.41607e-15 -1.8091e-15 -1.05879e-22 3.17637e-22 2.11758e-22 0.0005 1.46608e-07 
201 1 0.0440263 0.0170728 0.00623272 2.29667e-16 -6.63951e-16 -3.64325e-15 -1.05879e-22 0 0 0.0005 1.46608e-07 
209 1 0.0710502 0.0208589 0.0154112 0.000767059 0.0170296 -0.00821465 -1.19366e-08 1.29025e-08 -1.57001e-08 0.0005 1.46608e-07 
213 1 0.0770784 0.02063 0.015435 -0.000597751 0.0150188 -0.00569469 2.98203e-10 1.072e-08 1.18572e-08 0.0005 1.46608e-07 
215 1 0.0824647 0.0205875 0.00624167 -1.14348e-14 -3.20976e-14 1.37828e-13 -6.02982e-20 1.29702e-20 -1.90582e-21 0.0005 1.46608e-07 
221 1 0.059688 0.0190243 0.00588436 8.11979e-15 -1.68437e-14 -2.07264e-13 -3.12343e-21 -1.06541e-20 6.35275e-22 0.0005 1.46608e-07 
223 1 0.0629349 0.017888 0.005944 7.53994e-19 4.18149e-18 3.02225e-17 5.29396e-23 -1.85288e-22 0 0.0005 1.46608e-07 
226 1 0.0316007 0.0183082 0.00603438 1.31765e-14 -4.47256e-14 -1.10007e-13 -2.017e-20 7.83505e-21 -3.38813e-21 0.0005 1.46608e-07 
227 1 0.0594515 0.0171503 0.00602742 5.08037e-15 -1.05402e-14 -1.29148e-13 -3.69981e-20 1.01909e-21 -1.48231e-21 0.0005 1.46608e-07 
229 1 0.0215463 0.0196109 0.00592744 -1.81458e-14 8.14506e-15 -1.66091e-13 2.64698e-23 -5.24102e-21 -2.11758e-22 0.0005 1.46608e-07 
240 1 0.0643234 0.0182572 0.00582605 -3.21066e-15 -7.93174e-15 -6.26304e-14 2.64698e-23 0 0 0.0005 1.46608e-07 
242 1 0.0623557 0.0187459 0.00585217 -4.35021e-15 -1.94154e-14 -1.3904e-13 0 0 0 0.0005 1.46608e-07 
245 1 0.0759975 0.0233959 0.0114214 0.00125658 0.000107907 -0.00979208 -1.89508e-08 -6.49991e-08 2.26961e-07 0.0005 1.46608e-07 
246 1 0.0242602 0.0201274 0.00583803 -1.07574e-14 -1.72574e-15 1.75368e-13 0 -5.06235e-22 0 0.0005 1.46608e-07 
256 1 0.0597678 0.0176254 0.015576 0.00207146 0.00859236 0.00369703 8.2179e-06 -2.23771e-06 -3.16491e-06 0.0005 1.46608e-07 
257 1 0.0506406 0.0199213 0.00732786 8.32997e-05 -0.0212492 -0.0053418 -1.9786e-10 -6.37467e-09 1.05816e-08 0.0005 1.46608e-07 
258 1 0.0561141 0.0176064 0.00746033 0.0011699 -0.019791 0.00497302 -2.39003e-13 -3.35218e-08 3.77522e-08 0.0005 1.46608e-07 
270 1 0.0504712 0.0179279 0.00611076 -3.69903e-15 -1.32327e-14 -1.98725e-13 1.05548e-21 -2.64698e-23 0 0.0005 1.46608e-07 
273 1 0.0371638 0.0187263 0.00573865 3.75151e-15 -1.82104e-14 8.99461e-14 -8.07328e-20 -2.22346e-21 2.75286e-21 0.0005 1.46608e-07 
274 1 0.0328558 0.0191954 0.00572294 8.91255e-16 5.06752e-15 -1.9634e-14 -4.32781e-21 0 -2.11758e-22 0.0005 1.46608e-07 
277 1 0.044465 0.0204317 0.00594645 -2.99054e-15 2.53172e-14 -8.03099e-14 -1.56079e-19 -2.52522e-20 -1.90582e-21 0.0005 1.46608e-07 
279 1 0.0595692 0.0185301 0.0156983 0.000889125 0.0152014 -1.29684e-05 -1.27532e-06 6.82885e-07 6.25356e-07 0.0005 1.46608e-07 
280 1 0.066033 0.0188309 0.00577203 2.18585e-15 -1.03756e-14 -1.76838e-13 3.24453e-20 6.57774e-21 0 0.0005 1.46608e-07 
281 1 0.0833983 0.0210192 0.00634375 2.36846e-14 -4.02498e-14 1.90901e-13 -2.19699e-21 1.34466e-20 2.5411e-21 0.0005 1.46608e-07 
283 1 0.0635142 0.0176884 0.00833329 -3.06083e-05 -0.00534929 0.00244289 1.12983e-10 -7.17859e-08 2.49438e-08 0.0005 1.46608e-07 
291 1 0.0350698 0.0188001 0.00572051 -7.09795e-15 -4.06757e-14 1.57632e-13 5.48719e-20 -2.11758e-21 1.69407e-21 0.0005 1.46608e-07 
293 1 0.0551211 0.0148385 0.0106991 0.0235586 0.00377189 -0.0343386 -0.00114327 0.000470547 0.0040146 0.0005 1.46608e-07 
296 1 0.0667523 0.0199335 0.00579279 3.56431e-16 -9.53775e-15 3.4831e-14 -2.20791e-20 2.5411e-21 8.47033e-22 0.0005 1.46608e-07 
298 1 0.067685 0.0157125 0.00877307 0.0183453 0.0303293 0.0360949 0.137451 -0.46713 -0.304 0.0005 1.46608e-07 
