ITEM: TIMESTEP
31000000
ITEM: NUMBER OF ATOMS
89
ITEM: BOX BOUNDS ff ff ff
-0.02 0.43
-0.02 0.06
-0.02 0.07
ITEM: ATOMS id type x y z vx vy vz fx fy fz radius mass 
1 1 0.0388307 0.0187336 0.00577146 -9.84017e-15 8.71334e-14 2.2286e-13 8.37504e-20 6.1304e-20 -1.96935e-20 0.0005 1.46608e-07 
2 1 0.0300145 0.0208187 0.00757737 0.000928779 -0.0140401 -0.00613324 1.06394e-08 1.67757e-07 8.02801e-08 0.0005 1.46608e-07 
3 1 0.0501484 0.0208895 0.0153622 0.00106363 0.0113153 -0.00528178 -7.369e-08 -1.02718e-07 5.76888e-08 0.0005 1.46608e-07 
8 1 0.0542086 0.0216112 0.00804232 0.000422887 -0.0174365 -0.0129195 -8.38031e-09 -1.1032e-08 -2.67897e-09 0.0005 1.46608e-07 
9 1 0.0436892 0.020408 0.00596775 2.40229e-15 -2.04485e-14 6.4884e-14 -2.53448e-21 -1.58819e-22 0 0.0005 1.46608e-07 
14 1 0.0328053 0.0179179 0.0156428 0.000141552 0.0206991 0.00620719 2.29629e-07 -2.76164e-06 1.75812e-07 0.0005 1.46608e-07 
18 1 0.08261 0.0191091 0.00590955 -1.79536e-14 -5.02534e-14 2.17004e-13 6.93945e-19 6.28922e-20 6.88214e-20 0.0005 1.46608e-07 
26 1 0.103453 0.0178822 0.00580682 1.69411e-15 7.51451e-15 2.07276e-13 5.00444e-21 2.04479e-21 0 0.0005 1.46608e-07 
28 1 0.043225 0.0233015 0.0122596 0.000138484 0.00427019 -0.0206922 2.75402e-09 -2.67326e-08 3.2831e-08 0.0005 1.46608e-07 
32 1 0.0458692 0.0166351 0.00629564 2.9053e-16 1.62435e-15 1.11821e-14 1.25731e-22 -5.29396e-23 0 0.0005 1.46608e-07 
34 1 0.0572659 0.0174442 0.00591793 9.18209e-15 -1.90547e-14 -2.34434e-13 -9.13207e-22 -1.85288e-22 0 0.0005 1.46608e-07 
38 1 0.0445162 0.0194605 0.0157737 0.00127775 0.0142741 -0.00225635 5.06628e-09 -3.27476e-08 5.36969e-09 0.0005 1.46608e-07 
46 1 0.0471097 0.0170134 0.00772609 -0.000304045 -0.0207879 0.00885213 -1.75462e-09 1.83461e-09 1.05854e-08 0.0005 1.46608e-07 
48 1 0.0504085 0.0200213 0.0157201 0.00175584 0.0143511 -0.0043809 1.60536e-08 -2.26885e-07 1.04178e-07 0.0005 1.46608e-07 
54 1 0.049512 0.0227982 0.0133961 0.0004486 0.0089243 -0.0185528 -3.05426e-09 -6.2671e-09 -1.15781e-08 0.0005 1.46608e-07 
56 1 0.0520254 0.0148158 0.0118059 0.000138528 0.0014327 0.0213861 -1.03626e-09 1.11108e-08 4.41468e-09 0.0005 1.46608e-07 
59 1 0.0793161 0.0192087 0.00581236 1.51807e-14 5.18573e-14 2.19699e-13 1.02531e-19 -1.71524e-20 -2.75286e-21 0.0005 1.46608e-07 
64 1 0.0170063 0.0201419 0.00601043 1.30316e-14 5.25607e-15 -1.07336e-13 5.69365e-20 -4.41648e-20 5.92923e-21 0.0005 1.46608e-07 
65 1 0.0632091 0.0196192 0.00574818 3.8849e-15 5.4764e-14 -1.5184e-13 4.59582e-20 -1.11173e-20 -2.5411e-21 0.0005 1.46608e-07 
66 1 0.0448873 0.0164493 0.00634816 -4.52755e-15 -2.52977e-14 -1.74151e-13 1.05879e-22 -1.56172e-21 2.11758e-22 0.0005 1.46608e-07 
68 1 0.051269 0.0163334 0.0148197 0.000194276 0.016229 0.0132878 -8.45794e-10 1.11119e-08 -3.89438e-09 0.0005 1.46608e-07 
70 1 0.044666 0.0186442 0.0157965 0.00122927 0.0112254 0.00225506 -2.74257e-09 -2.92912e-08 -4.19877e-09 0.0005 1.46608e-07 
74 1 0.0331871 0.0165712 0.0149994 0.000735408 0.0171287 0.0115491 -9.20268e-09 -4.66576e-08 7.40084e-09 0.0005 1.46608e-07 
82 1 0.0342168 0.0148491 0.0107846 0.00158543 -0.00199733 0.0158195 9.74943e-09 1.20819e-08 -4.63714e-08 0.0005 1.46608e-07 
83 1 0.0529188 0.0163625 0.00813331 0.000773463 -0.0123211 0.00903414 1.03313e-09 8.33729e-09 4.95799e-09 0.0005 1.46608e-07 
86 1 0.0498106 0.0221715 0.0144939 0.00210135 0.00753237 -0.00646227 1.73264e-08 -7.37481e-08 9.54034e-08 0.0005 1.46608e-07 
88 1 0.0357086 0.0161117 0.00660683 -4.48775e-15 2.81941e-14 7.49145e-14 3.6568e-20 2.1864e-20 -5.92923e-21 0.0005 1.46608e-07 
89 1 0.0532094 0.0174272 0.00752076 0.000339633 -0.0194057 0.007915 -2.24575e-09 -2.72813e-09 1.20783e-08 0.0005 1.46608e-07 
90 1 0.0352863 0.0176773 0.00739198 0.000945747 -0.0177592 0.00641149 -4.32168e-09 -8.08943e-09 1.80787e-08 0.0005 1.46608e-07 
93 1 0.045903 0.0148382 0.0122892 0.000180247 0.0036154 0.0212251 5.99926e-10 1.27354e-08 2.88836e-09 0.0005 1.46608e-07 
96 1 0.0524822 0.0151219 0.00978174 0.000116629 -0.00980193 0.0198053 -1.91867e-09 8.66343e-09 8.56386e-09 0.0005 1.46608e-07 
100 1 0.0546285 0.0228605 0.00955604 -5.83947e-05 -0.00901427 -0.0201413 -1.72197e-09 -1.12237e-08 1.4921e-09 0.0005 1.46608e-07 
106 1 0.0439552 0.0161318 0.00656318 1.95427e-16 -2.75167e-15 -2.89972e-15 -1.85288e-22 0 0 0.0005 1.46608e-07 
107 1 0.0437538 0.0224136 0.0141712 -0.00025485 0.0167301 -0.0153003 3.0495e-08 -4.08717e-08 4.36364e-08 0.0005 1.46608e-07 
108 1 0.0536786 0.0195873 0.00723058 1.58509e-05 -0.0201591 -0.0022624 1.95427e-09 -7.17215e-09 1.14945e-08 0.0005 1.46608e-07 
109 1 0.046357 0.0150526 0.0103731 1.91523e-05 -0.00649024 0.0207545 -1.41608e-09 1.00051e-08 5.62872e-09 0.0005 1.46608e-07 
112 1 0.0398753 0.014898 0.0125174 0.000183779 0.00384682 0.0227592 7.43558e-10 1.26821e-08 -1.59574e-09 0.0005 1.46608e-07 
113 1 0.0405542 0.0152661 0.00948546 4.23333e-06 -0.0116427 0.0191326 -6.52198e-10 8.27174e-09 8.63399e-09 0.0005 1.46608e-07 
121 1 0.0413821 0.0180814 0.00734173 0.000810049 -0.0192078 0.00659584 5.0542e-09 -4.88757e-08 1.93651e-08 0.0005 1.46608e-07 
124 1 0.0508943 0.0175898 0.0155466 0.00140772 0.0110892 0.00361602 -2.31181e-08 8.14302e-09 3.23788e-08 0.0005 1.46608e-07 
125 1 0.0383541 0.0201822 0.0156481 0.00280671 0.00946695 -0.00310737 7.73203e-09 7.45816e-08 -1.4992e-08 0.0005 1.46608e-07 
126 1 0.0286258 0.0183498 0.00592583 -1.9446e-14 2.05366e-16 -2.28118e-13 -1.32349e-22 3.80875e-21 0 0.0005 1.46608e-07 
127 1 0.0517055 0.0151357 0.0132484 7.75079e-05 0.00667981 0.0189448 -4.91847e-11 1.2395e-08 -6.88521e-09 0.0005 1.46608e-07 
129 1 0.0266469 0.018639 0.0158189 0.00249745 0.0155543 0.00043674 -3.60831e-08 7.93964e-08 7.2036e-09 0.0005 1.46608e-07 
132 1 0.04304 0.0233931 0.011298 0.00150444 -0.000397573 -0.0087145 -3.10254e-08 3.40387e-08 3.66323e-09 0.0005 1.46608e-07 
134 1 0.0426617 0.0229459 0.00971621 9.16101e-05 -0.00850307 -0.0198338 -1.30754e-09 -1.22262e-08 -4.6646e-10 0.0005 1.46608e-07 
137 1 0.0238948 0.0168123 0.00667048 -1.55921e-14 -3.19711e-14 -1.0479e-13 1.61466e-21 -4.97632e-21 1.27055e-21 0.0005 1.46608e-07 
142 1 0.0470176 0.01787 0.0060864 -3.1232e-15 -1.7466e-14 -1.20236e-13 2.40213e-21 -4.49986e-22 0 0.0005 1.46608e-07 
146 1 0.0390565 0.0200205 0.00592023 -3.95761e-15 1.88453e-14 -9.32084e-14 6.58436e-21 -1.42937e-21 -4.23516e-22 0.0005 1.46608e-07 
149 1 0.0766607 0.0190533 0.00580856 -9.16831e-15 5.49362e-14 2.11159e-13 -8.37239e-20 -1.65701e-20 1.69407e-21 0.0005 1.46608e-07 
159 1 0.0779397 0.0194308 0.00576583 6.38075e-15 -3.81076e-14 -1.46471e-13 -1.70664e-20 -1.37643e-21 8.47033e-22 0.0005 1.46608e-07 
160 1 0.0442853 0.0204077 0.0155302 -5.43157e-06 0.0214554 -0.00584125 -3.26906e-11 -5.05927e-10 -1.16531e-08 0.0005 1.46608e-07 
163 1 0.0424878 0.0188132 0.00581899 -4.51473e-15 1.30458e-14 7.16621e-14 0 -3.70577e-22 2.11758e-22 0.0005 1.46608e-07 
165 1 0.0920805 0.0205253 0.0059177 -7.84801e-15 -7.28946e-14 1.85342e-13 1.65436e-22 0 0 0.0005 1.46608e-07 
174 1 0.0381513 0.0209082 0.0152736 0.000621505 0.012427 -0.00556779 1.2431e-09 -1.66603e-08 5.33006e-09 0.0005 1.46608e-07 
182 1 0.0356798 0.0197331 0.00736822 3.2419e-05 -0.0213281 -0.00414907 -5.55528e-10 -4.55163e-09 1.07366e-08 0.0005 1.46608e-07 
187 1 0.102423 0.0196788 0.00582979 1.51028e-15 2.27281e-15 -1.78442e-14 2.5808e-20 -2.02759e-20 -2.11758e-22 0.0005 1.46608e-07 
189 1 0.041077 0.0169335 0.00773216 -2.05325e-05 -0.0201264 0.00969267 2.42102e-10 2.51141e-09 1.14241e-08 0.0005 1.46608e-07 
193 1 0.377411 0.0174068 0.00846266 1.96332e-05 0.00163004 0.000206256 3.32377e-10 -1.88968e-08 -8.41233e-09 0.0005 1.46608e-07 
195 1 0.0507369 0.0203921 0.00594173 -5.72969e-15 -2.04817e-14 -3.07615e-13 -1.25566e-20 5.10867e-21 -2.11758e-22 0.0005 1.46608e-07 
198 1 0.0365871 0.0228326 0.00945254 0.00022136 -0.0100345 -0.0186289 -1.09753e-09 -1.24087e-08 5.62037e-10 0.0005 1.46608e-07 
201 1 0.0440263 0.0170728 0.00623272 2.29455e-16 -6.63856e-16 -3.64347e-15 2.64698e-23 0 0 0.0005 1.46608e-07 
209 1 0.042346 0.0221981 0.00853967 0.0030581 -0.00974816 -0.00810271 -3.21232e-08 -1.13369e-07 -1.11877e-07 0.0005 1.46608e-07 
213 1 0.0477767 0.0200069 0.00733603 0.00245199 -0.0229159 -0.00699038 -6.6589e-08 4.19195e-08 -6.04789e-08 0.0005 1.46608e-07 
215 1 0.049097 0.0232897 0.0116259 -0.000652205 0.00434942 -0.0216318 -1.49728e-06 -7.12712e-07 4.99742e-06 0.0005 1.46608e-07 
221 1 0.059059 0.0180876 0.00593586 7.1872e-15 -1.49134e-14 -1.83491e-13 2.57948e-20 5.88953e-21 6.35275e-22 0.0005 1.46608e-07 
223 1 0.0456623 0.0152092 0.0133587 0.000626687 0.00874414 0.0189254 -1.05636e-08 1.44213e-08 1.25805e-08 0.0005 1.46608e-07 
226 1 0.0316007 0.0183082 0.00603438 1.32172e-14 -4.47441e-14 -1.09995e-13 4.58721e-20 -3.49401e-20 1.94818e-20 0.0005 1.46608e-07 
227 1 0.0303697 0.0222284 0.00856137 0.000169644 -0.0141236 -0.0153095 -8.26232e-10 -1.24609e-08 1.49464e-09 0.0005 1.46608e-07 
229 1 0.0215463 0.0196109 0.00592744 -1.81457e-14 8.1435e-15 -1.66091e-13 -7.94093e-23 0 0 0.0005 1.46608e-07 
240 1 0.0474844 0.0185686 0.0072762 0.000626373 -0.0196464 0.00272672 -5.79331e-09 -1.74574e-08 1.49049e-08 0.0005 1.46608e-07 
242 1 0.0466351 0.0154871 0.00925935 0.00102842 -0.00917479 0.0165328 -6.44422e-09 1.37223e-09 2.18665e-08 0.0005 1.46608e-07 
245 1 0.0467833 0.0159633 0.00852863 0.000290533 -0.0143577 0.0148083 -1.88023e-09 6.53739e-11 1.39969e-08 0.0005 1.46608e-07 
246 1 0.0242602 0.0201274 0.00583803 -1.07556e-14 -1.72863e-15 1.75368e-13 -1.32349e-23 -1.56188e-20 0 0.0005 1.46608e-07 
256 1 0.0322305 0.0205391 0.0154706 0.000163899 0.0193999 -0.00749403 -7.01396e-10 1.70054e-09 -1.28411e-08 0.0005 1.46608e-07 
257 1 0.0197545 0.0234896 0.0118099 -0.000129101 -0.000575256 0.00134673 -4.77227e-08 -8.32611e-08 4.37332e-08 0.0005 1.46608e-07 
258 1 0.0287241 0.0156545 0.00882761 0.00108997 -0.00724713 0.009214 6.28252e-09 3.3483e-08 -2.92376e-08 0.0005 1.46608e-07 
270 1 0.0395355 0.0153084 0.0135757 0.000120511 0.00942107 0.0152268 -1.31926e-09 1.72252e-08 5.56715e-09 0.0005 1.46608e-07 
273 1 0.0371638 0.0187263 0.00573865 3.80749e-15 -1.81871e-14 8.99484e-14 -2.43456e-20 1.79995e-21 2.5411e-21 0.0005 1.46608e-07 
274 1 0.0328558 0.0191954 0.00572294 8.80887e-16 5.06752e-15 -1.96345e-14 1.51275e-20 0 6.35275e-22 0.0005 1.46608e-07 
277 1 0.0505753 0.0190018 0.015803 0.000139968 0.0218316 0.000951691 -3.69618e-10 5.31839e-09 -1.0595e-08 0.0005 1.46608e-07 
279 1 0.0336888 0.0151439 0.013264 0.000211508 0.00866914 0.0193177 -1.45682e-09 1.29502e-08 8.19864e-11 0.0005 1.46608e-07 
280 1 0.0489053 0.0232103 0.0105909 -0.00358943 0.00399915 -0.0289118 -0.00858696 -0.478558 0.296411 0.0005 1.46608e-07 
281 1 0.0480981 0.0211921 0.00776407 0.000416351 -0.0181232 -0.010094 -1.71802e-09 -1.14472e-08 6.03216e-09 0.0005 1.46608e-07 
283 1 0.042136 0.021266 0.00782943 0.000170759 -0.0183371 -0.0119297 -3.8769e-10 -9.87408e-09 8.23363e-09 0.0005 1.46608e-07 
291 1 0.0350698 0.0188001 0.00572051 -7.10768e-15 -4.06732e-14 1.57633e-13 1.93626e-20 1.69407e-21 1.48231e-21 0.0005 1.46608e-07 
293 1 0.0277517 0.0150459 0.0129317 0.000170044 0.00700873 0.0204379 -6.83025e-10 1.21351e-08 1.25036e-09 0.0005 1.46608e-07 
296 1 0.0339544 0.0148246 0.0121619 0.000533691 0.00177058 0.0207932 1.27426e-07 -1.59428e-07 -7.74342e-07 0.0005 1.46608e-07 
298 1 0.0392191 0.0163433 0.0148085 1.68433e-05 0.0168395 0.0148675 3.39291e-09 1.41108e-08 -3.68473e-09 0.0005 1.46608e-07 
