ITEM: TIMESTEP
91200000
ITEM: NUMBER OF ATOMS
88
ITEM: BOX BOUNDS ff ff ff
-0.02 0.43
-0.02 0.06
-0.02 0.07
ITEM: ATOMS id type x y z vx vy vz fx fy fz radius mass 
1 1 0.0387146 0.0187573 0.00575718 -8.66847e-15 7.85655e-14 2.00899e-13 0 0 0 0.0005 1.46608e-07 
2 1 0.0515454 0.0203376 0.00592249 1.06244e-14 2.65673e-14 3.5078e-13 1.58825e-19 -2.24993e-20 -3.59989e-21 0.0005 1.46608e-07 
3 1 0.0657625 0.0198039 0.00576669 -1.37688e-15 3.97315e-14 -1.45084e-13 8.43724e-23 5.82335e-22 2.11758e-22 0.0005 1.46608e-07 
8 1 0.102543 0.017821 0.00581645 -9.78463e-16 -4.35267e-15 -1.20042e-13 1.14151e-22 -1.32349e-23 0 0.0005 1.46608e-07 
9 1 0.0387828 0.0214812 0.00622724 -2.73966e-19 1.05353e-18 -5.70181e-18 -2.06795e-23 -6.12114e-23 0 0.0005 1.46608e-07 
14 1 0.191105 0.0203026 0.00593314 -1.12282e-14 -4.38015e-14 9.73356e-14 -5.02926e-22 2.11758e-22 0 0.0005 1.46608e-07 
18 1 0.0819644 0.018662 0.00575674 1.34805e-14 4.56299e-14 1.93312e-13 2.44845e-21 3.17637e-22 -4.23516e-22 0.0005 1.46608e-07 
26 1 0.10448 0.0180949 0.00580371 1.49846e-14 2.23691e-14 -1.76075e-13 8.12622e-21 -1.87141e-20 -1.48231e-21 0.0005 1.46608e-07 
28 1 0.0800401 0.0168845 0.00628905 -1.1356e-15 -7.29107e-15 -3.41145e-14 5.9557e-23 0 0 0.0005 1.46608e-07 
32 1 0.0458896 0.0168235 0.00626774 -4.52537e-15 -2.52972e-14 -1.74151e-13 -3.46092e-21 1.1382e-21 0 0.0005 1.46608e-07 
34 1 0.0564645 0.0213699 0.00635393 -9.62896e-16 -1.50793e-14 3.20776e-14 4.54155e-20 2.43522e-21 8.47033e-22 0.0005 1.46608e-07 
38 1 0.103061 0.0203539 0.0156383 0.0026199 -0.000352269 0.00154313 2.05944e-08 -1.41721e-07 2.91729e-08 0.0005 1.46608e-07 
46 1 0.136461 0.0187737 0.0058834 2.10125e-15 3.09843e-15 -2.90499e-14 -1.1836e-19 5.75982e-20 -1.27055e-21 0.0005 1.46608e-07 
48 1 0.0822817 0.0172512 0.00607537 6.66478e-16 3.61525e-14 1.18631e-13 -7.85822e-23 -5.29396e-23 0 0.0005 1.46608e-07 
54 1 0.0652975 0.0207687 0.00603532 -1.12901e-15 3.25658e-14 -1.18914e-13 1.83965e-21 0 0 0.0005 1.46608e-07 
56 1 0.0870153 0.0206158 0.00591409 3.22124e-15 5.9002e-15 -3.89485e-14 1.38966e-21 3.70577e-22 2.11758e-22 0.0005 1.46608e-07 
59 1 0.0792518 0.0191834 0.00582281 6.34571e-15 2.14946e-14 9.11003e-14 -3.04535e-20 -1.65171e-20 5.92923e-21 0.0005 1.46608e-07 
64 1 0.0170063 0.0201419 0.00601043 1.3047e-14 5.25586e-15 -1.07334e-13 4.61104e-20 -2.53183e-20 3.38813e-21 0.0005 1.46608e-07 
65 1 0.0643606 0.0210989 0.00615793 9.85081e-15 -6.28951e-14 2.05619e-13 4.23516e-22 -1.58819e-22 0 0.0005 1.46608e-07 
66 1 0.0448733 0.0164686 0.00634571 -2.61159e-17 -1.41273e-16 -9.78749e-16 1.05879e-22 -5.29396e-23 -2.11758e-22 0.0005 1.46608e-07 
68 1 0.0803045 0.0192159 0.005743 -9.52837e-15 -2.67153e-14 1.14756e-13 0 0 0 0.0005 1.46608e-07 
70 1 0.0811915 0.017199 0.00615598 4.51268e-15 1.52769e-14 6.47201e-14 1.32349e-23 1.05879e-22 0 0.0005 1.46608e-07 
74 1 0.0615774 0.0172559 0.00608456 -7.21797e-16 -3.19428e-15 -2.28579e-14 0 2.11758e-22 -4.23516e-22 0.0005 1.46608e-07 
82 1 0.063441 0.0163701 0.00647495 5.20473e-16 7.46386e-15 9.55722e-15 -3.30872e-24 0 1.05879e-22 0.0005 1.46608e-07 
83 1 0.0855075 0.019144 0.00579031 -2.80431e-15 1.60117e-14 -2.15085e-13 5.52557e-22 2.64698e-23 0 0.0005 1.46608e-07 
86 1 0.0829173 0.0222111 0.0066532 2.53391e-15 -1.23284e-14 5.62299e-14 4.73809e-21 1.58819e-21 2.11758e-22 0.0005 1.46608e-07 
88 1 0.0357086 0.0161117 0.00660683 -4.4388e-15 2.8201e-14 7.49148e-14 -4.59251e-21 -7.72918e-21 2.11758e-21 0.0005 1.46608e-07 
89 1 0.0618809 0.0199413 0.00582959 -3.11039e-16 -4.30934e-15 1.19367e-14 2.31611e-23 2.64698e-23 0 0.0005 1.46608e-07 
90 1 0.0845463 0.0178241 0.00589851 -1.70814e-15 5.08491e-14 1.75601e-13 -5.40811e-21 -4.23516e-22 0 0.0005 1.46608e-07 
93 1 0.11021 0.0201465 0.00580174 8.80817e-16 6.44492e-15 -3.33563e-14 -1.34466e-20 -5.18808e-21 -1.27055e-21 0.0005 1.46608e-07 
100 1 0.0830136 0.0187071 0.00584947 -9.52794e-15 -2.67155e-14 1.14756e-13 -1.32349e-23 0 0 0.0005 1.46608e-07 
106 1 0.0439552 0.0161318 0.00656318 1.95518e-16 -2.75147e-15 -2.89952e-15 3.83812e-22 0 0 0.0005 1.46608e-07 
107 1 0.0782305 0.0203396 0.00602091 2.70905e-15 7.49104e-15 -1.40184e-14 0 -5.29396e-23 4.23516e-22 0.0005 1.46608e-07 
108 1 0.0822914 0.0196163 0.00600118 7.16815e-15 2.00954e-14 -8.63168e-14 1.972e-21 1.05879e-22 2.11758e-22 0.0005 1.46608e-07 
109 1 0.0732237 0.018766 0.005768 1.0329e-14 -5.92406e-14 -1.63374e-13 1.76567e-19 1.32349e-20 6.98802e-21 0.0005 1.46608e-07 
112 1 0.0644815 0.0190744 0.00573853 7.97976e-16 -3.78212e-15 -6.44673e-14 0 0 0 0.0005 1.46608e-07 
113 1 0.0683453 0.0182317 0.00578271 7.82593e-18 1.40391e-17 5.06786e-16 2.64698e-23 0 0 0.0005 1.46608e-07 
121 1 0.0609817 0.0187588 0.00589337 -4.3511e-15 -1.94154e-14 -1.3904e-13 1.54186e-21 1.05879e-22 0 0.0005 1.46608e-07 
124 1 0.0609012 0.0197493 0.00575757 -5.19423e-15 -2.31833e-14 -1.66017e-13 0 0 0 0.0005 1.46608e-07 
125 1 0.0634974 0.0172463 0.00599641 6.51846e-16 1.6109e-15 1.27208e-14 -1.32349e-23 0 0 0.0005 1.46608e-07 
126 1 0.0286258 0.0183498 0.00592583 -1.94458e-14 1.80666e-16 -2.28119e-13 -2.91168e-22 -3.68542e-20 -2.11758e-22 0.0005 1.46608e-07 
127 1 0.0888729 0.0199317 0.00596406 -1.22022e-15 -2.22699e-15 1.47218e-14 -6.08805e-22 3.70577e-22 0 0.0005 1.46608e-07 
129 1 0.0601285 0.017977 0.00598674 -1.09095e-14 2.26143e-14 2.78394e-13 -4.87573e-20 -1.57495e-21 -1.69407e-21 0.0005 1.46608e-07 
132 1 0.0626638 0.0179373 0.00595165 -7.36683e-15 -1.8192e-14 -1.43647e-13 1.19114e-22 1.58819e-22 0 0.0005 1.46608e-07 
134 1 0.0644862 0.0176438 0.00589539 -5.97936e-15 -1.47724e-14 -1.16641e-13 1.05879e-22 -2.64698e-23 0 0.0005 1.46608e-07 
137 1 0.0238948 0.0168123 0.00667048 -1.55906e-14 -3.1969e-14 -1.04791e-13 -1.05879e-21 2.64698e-22 2.11758e-22 0.0005 1.46608e-07 
142 1 0.042543 0.0198089 0.00582143 -6.27385e-17 5.36141e-16 -1.69896e-15 3.30872e-24 0 0 0.0005 1.46608e-07 
146 1 0.0388539 0.0197419 0.00587248 -2.83263e-15 1.34613e-14 -6.65668e-14 0 0 0 0.0005 1.46608e-07 
149 1 0.0766607 0.0190533 0.00580856 -9.17405e-15 5.49355e-14 2.11159e-13 2.43522e-20 -1.68877e-20 8.47033e-21 0.0005 1.46608e-07 
159 1 0.0779381 0.019417 0.00576935 7.33856e-16 -4.42701e-15 -1.69909e-14 -7.94093e-23 4.23516e-22 -2.11758e-22 0.0005 1.46608e-07 
160 1 0.0620021 0.0189487 0.00583492 3.71768e-16 1.66898e-15 1.19204e-14 -1.65436e-23 -5.29396e-23 -2.11758e-22 0.0005 1.46608e-07 
163 1 0.0424897 0.0188104 0.00581963 1.06627e-16 -3.09575e-16 -1.69768e-15 -4.30134e-23 -5.29396e-23 2.11758e-22 0.0005 1.46608e-07 
165 1 0.0920805 0.0205253 0.0059177 -7.84821e-15 -7.28946e-14 1.85342e-13 0 0 0 0.0005 1.46608e-07 
174 1 0.0861888 0.0174779 0.00842721 3.45664e-05 0.000253432 -0.000789076 -1.83007e-09 4.9648e-08 9.82853e-08 0.0005 1.46608e-07 
182 1 0.0557406 0.0175302 0.00596599 -5.6284e-15 -7.65906e-15 -1.08969e-13 -4.21928e-20 4.24708e-20 -1.27055e-21 0.0005 1.46608e-07 
187 1 0.102423 0.0196788 0.00582979 1.50899e-15 2.27148e-15 -1.78444e-14 -1.07361e-19 1.38437e-20 -7.6233e-21 0.0005 1.46608e-07 
189 1 0.0453636 0.0157749 0.00687326 2.73409e-17 -5.65092e-16 -6.89785e-16 -1.05879e-22 -1.05879e-22 2.11758e-22 0.0005 1.46608e-07 
193 1 0.377395 0.0173665 0.00849277 -4.0646e-05 -0.00110163 0.000641102 -1.3218e-10 4.41847e-08 -3.81038e-08 0.0005 1.46608e-07 
195 1 0.0505919 0.0207133 0.00592302 6.74488e-15 1.89365e-14 2.6288e-13 2.45573e-20 -1.29702e-21 -6.35275e-22 0.0005 1.46608e-07 
198 1 0.0643736 0.0166453 0.00623285 -9.28285e-16 8.92617e-14 2.24984e-13 1.16632e-22 0 2.11758e-22 0.0005 1.46608e-07 
201 1 0.0440263 0.0170728 0.00623272 2.29503e-16 -6.63927e-16 -3.64325e-15 2.11758e-22 0 0 0.0005 1.46608e-07 
209 1 0.0799751 0.0180833 0.00603206 1.34784e-14 4.56302e-14 1.93312e-13 -3.57342e-22 -4.23516e-22 0 0.0005 1.46608e-07 
213 1 0.0810479 0.0182624 0.00591498 1.0644e-15 3.60233e-15 1.52616e-14 -6.74979e-22 5.29396e-23 2.11758e-22 0.0005 1.46608e-07 
215 1 0.0824664 0.0205903 0.00624245 -1.04564e-15 -2.926e-15 1.25717e-14 2.15729e-21 -3.17637e-22 2.11758e-22 0.0005 1.46608e-07 
221 1 0.0595038 0.0223955 0.00675756 5.62877e-17 -1.68208e-15 4.05948e-15 1.03232e-20 5.82335e-21 2.32934e-21 0.0005 1.46608e-07 
223 1 0.063626 0.0183177 0.00585415 -7.36386e-15 -1.81918e-14 -1.43647e-13 5.30719e-21 -2.2764e-21 0 0.0005 1.46608e-07 
226 1 0.0316007 0.0183082 0.00603438 1.31917e-14 -4.47226e-14 -1.10006e-13 -6.98537e-20 6.18334e-20 -3.19755e-20 0.0005 1.46608e-07 
227 1 0.0584979 0.0201946 0.00586451 3.22426e-16 4.87943e-15 -1.04428e-14 4.63221e-23 0 0 0.0005 1.46608e-07 
229 1 0.0215463 0.0196109 0.00592744 -1.81494e-14 8.13657e-15 -1.66091e-13 0 -7.94093e-23 0 0.0005 1.46608e-07 
240 1 0.0690612 0.017564 0.00598647 -1.68189e-17 1.76947e-16 4.66257e-16 -2.64698e-23 0 0 0.0005 1.46608e-07 
242 1 0.0636055 0.0197465 0.00578044 6.28567e-15 -4.01375e-14 1.31216e-13 1.56172e-21 2.11758e-21 4.23516e-22 0.0005 1.46608e-07 
245 1 0.0975908 0.0180497 0.00610625 8.69852e-16 3.429e-14 1.03653e-13 0 0 0 0.0005 1.46608e-07 
246 1 0.0242602 0.0201274 0.00583803 -1.07552e-14 -1.73291e-15 1.75368e-13 -1.28378e-21 6.61744e-24 -2.11758e-22 0.0005 1.46608e-07 
256 1 0.0881528 0.0182515 0.00724645 0.00212917 -0.0104581 0.000468846 1.80822e-07 1.69173e-06 3.39277e-08 0.0005 1.46608e-07 
257 1 0.0567438 0.01754 0.00591345 -9.85105e-15 -1.33725e-14 -1.90504e-13 2.91168e-22 -8.73503e-21 8.47033e-22 0.0005 1.46608e-07 
258 1 0.061759 0.0163729 0.00651709 1.11632e-15 -1.27407e-14 -1.81802e-14 -5.02926e-22 -2.38228e-22 1.05879e-22 0.0005 1.46608e-07 
270 1 0.0504712 0.0179279 0.00611076 -3.69954e-15 -1.32327e-14 -1.98725e-13 -5.36013e-22 6.35275e-22 0 0.0005 1.46608e-07 
273 1 0.0371638 0.0187263 0.00573865 3.94665e-15 -1.81312e-14 8.99539e-14 -3.25631e-19 8.03093e-20 2.96462e-20 0.0005 1.46608e-07 
274 1 0.0328558 0.0191954 0.00572294 8.90382e-16 5.06752e-15 -1.9634e-14 2.64698e-22 0 0 0.0005 1.46608e-07 
277 1 0.044465 0.0204317 0.00594645 -2.99022e-15 2.53009e-14 -8.03151e-14 -1.48926e-19 -9.58206e-21 3.17637e-21 0.0005 1.46608e-07 
279 1 0.0625324 0.0169121 0.00611939 -3.85576e-16 3.70492e-14 9.33836e-14 9.9179e-22 0 -2.11758e-22 0.0005 1.46608e-07 
280 1 0.066033 0.0188309 0.00577203 2.17414e-15 -1.03803e-14 -1.76838e-13 -1.00122e-20 -1.64113e-21 0 0.0005 1.46608e-07 
281 1 0.0833983 0.0210192 0.00634375 2.36849e-14 -4.02484e-14 1.90902e-13 -1.29173e-20 -3.17637e-22 1.48231e-21 0.0005 1.46608e-07 
283 1 0.0634546 0.017478 0.00841824 3.89202e-06 0.002896 0.000357856 6.73415e-10 -7.63853e-08 1.28611e-08 0.0005 1.46608e-07 
291 1 0.0350698 0.0188001 0.00572051 -7.07519e-15 -4.06779e-14 1.57633e-13 -5.19866e-20 1.48231e-21 -2.11758e-21 0.0005 1.46608e-07 
293 1 0.0623373 0.0157218 0.00700852 1.08355e-15 -1.27574e-14 -1.81756e-14 3.17637e-22 3.17637e-22 -2.11758e-22 0.0005 1.46608e-07 
296 1 0.0667607 0.0199247 0.00579031 -4.1062e-16 1.19619e-14 -4.36763e-14 -7.81189e-21 1.79995e-21 6.35275e-22 0.0005 1.46608e-07 
298 1 0.0801544 0.0202323 0.00596714 -1.80163e-14 -5.05026e-14 2.16941e-13 -1.27981e-20 2.22346e-21 -4.23516e-22 0.0005 1.46608e-07 
