ITEM: TIMESTEP
66800000
ITEM: NUMBER OF ATOMS
88
ITEM: BOX BOUNDS ff ff ff
-0.02 0.43
-0.02 0.06
-0.02 0.07
ITEM: ATOMS id type x y z vx vy vz fx fy fz radius mass 
1 1 0.0387146 0.0187573 0.00575718 -8.66826e-15 7.85696e-14 2.00898e-13 -1.19114e-21 0 0 0.0005 1.46608e-07 
2 1 0.0515454 0.0203376 0.00592249 1.06428e-14 2.65539e-14 3.50781e-13 4.24641e-20 -1.57495e-21 -1.05879e-21 0.0005 1.46608e-07 
3 1 0.0657625 0.0198039 0.00576669 -1.32109e-15 3.97318e-14 -1.45084e-13 0 0 -2.11758e-22 0.0005 1.46608e-07 
8 1 0.102543 0.017821 0.00581645 -9.78461e-16 -4.35263e-15 -1.20042e-13 8.27181e-24 0 0 0.0005 1.46608e-07 
9 1 0.0387828 0.0214812 0.00622724 -2.72318e-19 1.06254e-18 -5.7047e-18 2.06795e-23 5.12852e-23 0 0.0005 1.46608e-07 
14 1 0.191105 0.0203026 0.00593314 -1.12275e-14 -4.38009e-14 9.73359e-14 2.17052e-21 -5.29396e-22 0 0.0005 1.46608e-07 
18 1 0.0818976 0.0186296 0.00576906 6.35199e-15 2.15033e-14 9.10978e-14 5.29396e-23 5.29396e-23 0 0.0005 1.46608e-07 
26 1 0.10448 0.0180949 0.00580371 1.49823e-14 2.23667e-14 -1.76075e-13 -2.73433e-20 2.16258e-20 4.23516e-22 0.0005 1.46608e-07 
28 1 0.0749819 0.0179628 0.00741891 0.000676433 -0.022321 0.00436418 6.96148e-06 8.22365e-06 7.06691e-06 0.0005 1.46608e-07 
32 1 0.0458896 0.0168235 0.00626774 -4.52753e-15 -2.52971e-14 -1.74151e-13 4.53957e-21 -8.73503e-22 0 0.0005 1.46608e-07 
34 1 0.0564645 0.0213699 0.00635393 -8.56437e-16 -1.50092e-14 3.21133e-14 -4.21472e-19 2.0117e-20 -2.75286e-21 0.0005 1.46608e-07 
38 1 0.079684 0.0149227 0.011883 1.24388 0.325038 0.562907 0.259827 0.303499 -0.1548 0.0005 1.46608e-07 
46 1 0.136461 0.0187737 0.0058834 2.02336e-15 3.14066e-15 -2.90508e-14 5.88953e-21 -4.60574e-21 -2.11758e-22 0.0005 1.46608e-07 
48 1 0.0819829 0.0176499 0.00599436 1.00305e-14 3.39561e-14 1.43854e-13 1.32349e-23 0 0 0.0005 1.46608e-07 
54 1 0.0652975 0.0207687 0.00603532 -1.1277e-15 3.25659e-14 -1.18914e-13 2.5808e-22 0 0 0.0005 1.46608e-07 
56 1 0.0830166 0.0197662 0.00609629 -1.5825e-14 -4.43657e-14 1.9057e-13 0 -2.64698e-22 -2.11758e-22 0.0005 1.46608e-07 
59 1 0.0793161 0.0192087 0.00581236 1.52255e-14 5.18409e-14 2.197e-13 -2.303e-19 8.88855e-20 -4.23516e-21 0.0005 1.46608e-07 
64 1 0.0170063 0.0201419 0.00601043 1.29941e-14 5.25661e-15 -1.07341e-13 2.03076e-19 -1.89391e-20 2.41404e-20 0.0005 1.46608e-07 
65 1 0.0643606 0.0210989 0.00615793 9.85084e-15 -6.28953e-14 2.05619e-13 -5.55865e-22 -1.05879e-22 0 0.0005 1.46608e-07 
66 1 0.0448733 0.0164686 0.00634571 -2.63168e-17 -1.41287e-16 -9.78712e-16 4.76456e-22 5.29396e-23 0 0.0005 1.46608e-07 
68 1 0.080527 0.019112 0.00575077 1.34836e-14 4.56307e-14 1.93311e-13 6.2204e-22 5.29396e-23 0 0.0005 1.46608e-07 
70 1 0.0762255 0.0228327 0.00938004 0.000102662 -0.00950502 -0.0202378 1.09136e-09 -1.19727e-08 1.89411e-09 0.0005 1.46608e-07 
74 1 0.0615839 0.0172264 0.00608851 -4.34946e-15 -1.94156e-14 -1.3904e-13 8.60268e-22 -1.58819e-22 0 0.0005 1.46608e-07 
82 1 0.0634269 0.0163488 0.00649241 3.09753e-19 3.56309e-18 4.13503e-18 2.77933e-22 0 -1.05879e-22 0.0005 1.46608e-07 
83 1 0.085142 0.0184899 0.00574639 3.315e-15 -1.89273e-14 2.54251e-13 3.20946e-22 -2.64698e-22 0 0.0005 1.46608e-07 
86 1 0.0829173 0.0222111 0.0066532 2.53986e-15 -1.23252e-14 5.62303e-14 1.38834e-20 1.64113e-21 -2.11758e-22 0.0005 1.46608e-07 
88 1 0.0357086 0.0161117 0.00660683 -4.46425e-15 2.81994e-14 7.49139e-14 -1.13105e-19 4.07635e-21 -7.41154e-21 0.0005 1.46608e-07 
89 1 0.0618809 0.0199413 0.00582959 -6.61289e-16 -9.15972e-15 2.53708e-14 -3.97047e-23 -7.94093e-23 -2.11758e-22 0.0005 1.46608e-07 
90 1 0.0700742 0.0222331 0.00876222 0.000565709 -0.0134637 -0.0182548 2.94002e-06 4.73961e-06 2.91814e-06 0.0005 1.46608e-07 
93 1 0.0812167 0.0188202 0.0072741 -5.75289e-05 -0.0230449 -0.000601507 1.60895e-09 1.19739e-09 1.22351e-08 0.0005 1.46608e-07 
100 1 0.0828881 0.0187784 0.00585566 -1.80127e-14 -5.05044e-14 2.16941e-13 -1.58819e-22 -1.05879e-22 0 0.0005 1.46608e-07 
106 1 0.0439552 0.0161318 0.00656318 1.9595e-16 -2.75145e-15 -2.89948e-15 1.05879e-22 0 0 0.0005 1.46608e-07 
107 1 0.0782305 0.0203396 0.00602091 5.33006e-15 1.47366e-14 -2.7578e-14 -1.85288e-22 -1.05879e-22 4.23516e-22 0.0005 1.46608e-07 
108 1 0.0819591 0.0196502 0.00598149 8.60107e-16 2.46695e-15 -1.04987e-14 -3.1908e-19 9.66147e-20 -6.14099e-21 0.0005 1.46608e-07 
109 1 0.0732237 0.018766 0.005768 1.04105e-14 -5.9209e-14 -1.63381e-13 2.9527e-20 -1.07467e-20 7.6233e-21 0.0005 1.46608e-07 
112 1 0.0644815 0.0190744 0.00573853 7.9804e-16 -3.78212e-15 -6.44673e-14 0 0 0 0.0005 1.46608e-07 
113 1 0.0683453 0.0182317 0.00578271 5.45956e-17 9.60231e-17 3.41788e-15 5.29396e-23 -1.58819e-22 0 0.0005 1.46608e-07 
121 1 0.0609817 0.0187588 0.00589337 -4.35118e-15 -1.94154e-14 -1.3904e-13 3.83812e-22 -2.38228e-22 0 0.0005 1.46608e-07 
124 1 0.0609012 0.0197493 0.00575757 -5.19423e-15 -2.31833e-14 -1.66017e-13 0 0 0 0.0005 1.46608e-07 
125 1 0.0635066 0.0172168 0.0060025 4.05233e-19 8.59146e-19 5.28224e-18 -3.70577e-22 5.29396e-23 0 0.0005 1.46608e-07 
126 1 0.0286258 0.0183498 0.00592583 -1.94459e-14 1.77358e-16 -2.28119e-13 -5.29396e-23 -1.82728e-20 0 0.0005 1.46608e-07 
127 1 0.0862115 0.0201056 0.00585272 2.60264e-15 -1.48771e-14 1.99835e-13 1.03398e-20 3.70577e-21 0 0.0005 1.46608e-07 
129 1 0.0601285 0.017977 0.00598674 -1.08945e-14 2.25954e-14 2.78396e-13 -4.15576e-21 1.42593e-19 -1.2282e-20 0.0005 1.46608e-07 
132 1 0.0626577 0.0177866 0.00597105 -3.11015e-15 -7.68014e-15 -6.06854e-14 -2.64698e-23 -1.05879e-22 0 0.0005 1.46608e-07 
134 1 0.0644264 0.0175965 0.00590444 -1.58094e-19 1.53712e-18 5.16262e-18 -2.64698e-22 2.11758e-22 0 0.0005 1.46608e-07 
137 1 0.0238948 0.0168123 0.00667048 -1.55911e-14 -3.19694e-14 -1.0479e-13 5.4263e-21 -2.11758e-22 -8.47033e-22 0.0005 1.46608e-07 
142 1 0.042543 0.0198089 0.00582143 -2.60849e-16 2.22863e-15 -7.0563e-15 -2.64698e-23 0 0 0.0005 1.46608e-07 
146 1 0.0388539 0.0197419 0.00587248 -2.81868e-15 1.34633e-14 -6.65669e-14 -5.4263e-22 0 0 0.0005 1.46608e-07 
149 1 0.0766607 0.0190533 0.00580856 -9.18021e-15 5.49344e-14 2.11159e-13 -1.83899e-20 -1.20173e-20 1.27055e-21 0.0005 1.46608e-07 
159 1 0.0779381 0.019417 0.00576935 1.4435e-15 -8.70805e-15 -3.34262e-14 -2.64698e-23 5.29396e-23 0 0.0005 1.46608e-07 
160 1 0.0620021 0.0189487 0.00583492 7.90547e-16 3.5475e-15 2.53365e-14 2.64698e-23 -2.64698e-23 -2.11758e-22 0.0005 1.46608e-07 
163 1 0.0424897 0.0188104 0.00581963 4.43744e-16 -1.28737e-15 -7.05243e-15 -6.61744e-24 5.29396e-23 0 0.0005 1.46608e-07 
165 1 0.0920805 0.0205253 0.0059177 -7.84834e-15 -7.28946e-14 1.85342e-13 0 0 0 0.0005 1.46608e-07 
174 1 0.080338 0.0173248 0.00851145 -3.24788e-05 -0.00112666 -8.92168e-05 -2.33639e-10 9.24168e-08 -7.26855e-08 0.0005 1.46608e-07 
182 1 0.0557406 0.0175302 0.00596599 -5.5729e-15 -7.71195e-15 -1.08968e-13 3.03688e-19 -2.96012e-19 5.50571e-21 0.0005 1.46608e-07 
187 1 0.102423 0.0196788 0.00582979 1.53222e-15 2.26347e-15 -1.78435e-14 -1.72848e-20 2.88521e-21 -1.05879e-21 0.0005 1.46608e-07 
189 1 0.0453636 0.0157749 0.00687326 2.74833e-17 -5.65014e-16 -6.89891e-16 -1.58819e-22 -1.05879e-22 0 0.0005 1.46608e-07 
193 1 0.37742 0.0175275 0.00839287 7.04481e-05 0.00974266 -0.00784499 -3.07747e-10 7.44967e-08 -8.34781e-08 0.0005 1.46608e-07 
195 1 0.0505919 0.0207133 0.00592302 6.74622e-15 1.89379e-14 2.6288e-13 -1.22423e-21 -1.32349e-22 0 0.0005 1.46608e-07 
198 1 0.0643723 0.0166398 0.006235 -8.2417e-16 7.93176e-14 1.99916e-13 -1.0224e-21 1.05879e-22 0 0.0005 1.46608e-07 
201 1 0.0440263 0.0170728 0.00623272 2.29687e-16 -6.63941e-16 -3.64325e-15 -6.61744e-23 -1.05879e-22 0 0.0005 1.46608e-07 
209 1 0.0771879 0.0228161 0.013522 0.000266955 0.00961791 -0.0185695 -1.13426e-09 -6.96142e-09 -1.0387e-08 0.0005 1.46608e-07 
213 1 0.0810639 0.0181072 0.00595049 1.06441e-15 3.60321e-15 1.52614e-14 0 0 0 0.0005 1.46608e-07 
215 1 0.0824647 0.0205875 0.00624167 -1.14599e-14 -3.20813e-14 1.3783e-13 1.44657e-20 -1.20173e-20 -1.69407e-21 0.0005 1.46608e-07 
221 1 0.0595038 0.0223955 0.00675756 7.31998e-17 -1.68843e-15 4.05629e-15 3.84606e-20 6.45863e-21 8.47033e-22 0.0005 1.46608e-07 
223 1 0.0635627 0.0182346 0.00586792 -2.5187e-15 -6.22181e-15 -4.91283e-14 6.61744e-23 1.32349e-22 0 0.0005 1.46608e-07 
226 1 0.0316007 0.0183082 0.00603438 1.31803e-14 -4.47341e-14 -1.10003e-13 -9.23795e-21 7.19978e-21 -2.75286e-21 0.0005 1.46608e-07 
227 1 0.0584979 0.0201946 0.00586451 2.95119e-16 4.87941e-15 -1.04437e-14 0 0 0 0.0005 1.46608e-07 
229 1 0.0215463 0.0196109 0.00592744 -1.81456e-14 8.1336e-15 -1.66092e-13 3.17637e-22 -3.30872e-22 0 0.0005 1.46608e-07 
240 1 0.0690612 0.017564 0.00598647 -1.15845e-16 1.19005e-15 3.14148e-15 -7.94093e-23 0 -4.23516e-22 0.0005 1.46608e-07 
242 1 0.0636055 0.0197465 0.00578044 6.28579e-15 -4.01367e-14 1.31216e-13 -5.691e-22 5.29396e-23 2.11758e-22 0.0005 1.46608e-07 
245 1 0.0826188 0.0232071 0.0109504 0.000827772 -0.00349921 -0.0192482 -5.28953e-09 -1.38304e-08 -1.25136e-08 0.0005 1.46608e-07 
246 1 0.0242602 0.0201274 0.00583803 -1.07556e-14 -1.73323e-15 1.75368e-13 0 -3.80503e-22 0 0.0005 1.46608e-07 
256 1 0.0663757 0.0184549 0.0157041 0.00392114 -0.00500225 0.00315111 5.94614e-08 -3.53363e-07 -1.71988e-08 0.0005 1.46608e-07 
257 1 0.0567438 0.01754 0.00591345 -9.84526e-15 -1.33737e-14 -1.90504e-13 -6.56451e-21 6.51157e-21 -4.23516e-22 0.0005 1.46608e-07 
258 1 0.0620672 0.0151741 0.00972942 0.00276615 -0.00469791 0.0111548 6.06624e-07 2.97813e-07 3.39001e-08 0.0005 1.46608e-07 
270 1 0.0504712 0.0179279 0.00611076 -3.69908e-15 -1.32326e-14 -1.98725e-13 -4.02672e-21 2.38228e-22 0 0.0005 1.46608e-07 
273 1 0.0371638 0.0187263 0.00573865 3.91051e-15 -1.81369e-14 8.99542e-14 -3.26842e-19 9.33324e-20 3.26108e-20 0.0005 1.46608e-07 
274 1 0.0328558 0.0191954 0.00572294 8.88436e-16 5.06752e-15 -1.96341e-14 -1.50348e-20 0 -8.47033e-22 0.0005 1.46608e-07 
277 1 0.044465 0.0204317 0.00594645 -3.27339e-15 2.52667e-14 -8.03154e-14 1.75409e-19 1.0535e-20 -2.11758e-21 0.0005 1.46608e-07 
279 1 0.0625701 0.016812 0.0061773 -2.91747e-15 -4.18336e-14 -5.35631e-14 2.64698e-23 -5.29396e-23 0 0.0005 1.46608e-07 
280 1 0.066033 0.0188309 0.00577203 2.19e-15 -1.0374e-14 -1.76838e-13 1.70929e-20 3.01755e-21 0 0.0005 1.46608e-07 
281 1 0.0833983 0.0210192 0.00634375 2.36855e-14 -4.02502e-14 1.90901e-13 -1.06938e-20 -1.05879e-22 1.05879e-21 0.0005 1.46608e-07 
283 1 0.063487 0.0174918 0.00841937 2.35563e-05 -0.000722435 0.00109778 1.40993e-10 -3.60336e-08 3.37834e-09 0.0005 1.46608e-07 
291 1 0.0350698 0.0188001 0.00572051 -7.06561e-15 -4.06792e-14 1.57633e-13 -5.37204e-20 1.42407e-20 1.48231e-21 0.0005 1.46608e-07 
293 1 0.0608652 0.0165773 0.015035 0.000213899 0.0173188 0.012693 -3.12397e-10 1.05063e-08 -5.30151e-09 0.0005 1.46608e-07 
296 1 0.0667607 0.0199247 0.00579031 -4.07213e-16 1.19615e-14 -4.36765e-14 -6.43216e-21 5.29396e-23 -2.11758e-22 0.0005 1.46608e-07 
298 1 0.0738485 0.0148171 0.0111724 8.54986e-05 -0.00202162 0.0216025 -1.35918e-09 1.03538e-08 5.64504e-09 0.0005 1.46608e-07 
