ITEM: TIMESTEP
68200000
ITEM: NUMBER OF ATOMS
88
ITEM: BOX BOUNDS ff ff ff
-0.02 0.43
-0.02 0.06
-0.02 0.07
ITEM: ATOMS id type x y z vx vy vz fx fy fz radius mass 
1 1 0.0387146 0.0187573 0.00575718 -8.67077e-15 7.85656e-14 2.00899e-13 -2.89381e-20 -7.41154e-22 -6.35275e-22 0.0005 1.46608e-07 
2 1 0.0515454 0.0203376 0.00592249 1.06252e-14 2.65566e-14 3.50781e-13 -9.46361e-20 -3.02153e-20 5.0822e-21 0.0005 1.46608e-07 
3 1 0.0657625 0.0198039 0.00576669 -1.32108e-15 3.97328e-14 -1.45084e-13 0 0 0 0.0005 1.46608e-07 
8 1 0.102543 0.017821 0.00581645 -9.78303e-16 -4.35253e-15 -1.20042e-13 -1.15805e-22 -6.61744e-24 0 0.0005 1.46608e-07 
9 1 0.0387828 0.0214812 0.00622724 -2.70403e-19 1.05466e-18 -5.70326e-18 -4.79765e-23 -5.29396e-23 0 0.0005 1.46608e-07 
14 1 0.191105 0.0203026 0.00593314 -1.12286e-14 -4.38008e-14 9.73358e-14 1.58819e-21 -1.05879e-22 2.11758e-22 0.0005 1.46608e-07 
18 1 0.0818976 0.0186296 0.00576906 6.35181e-15 2.15032e-14 9.10979e-14 -1.72054e-22 0 0 0.0005 1.46608e-07 
26 1 0.10448 0.0180949 0.00580371 1.49812e-14 2.23622e-14 -1.76076e-13 -1.27055e-21 -2.76344e-20 -2.5411e-21 0.0005 1.46608e-07 
28 1 0.0764042 0.0201267 0.00735901 0.000556169 -0.018795 -0.00304706 -2.12717e-08 -1.14867e-07 -2.43026e-09 0.0005 1.46608e-07 
32 1 0.0458896 0.0168235 0.00626774 -4.52667e-15 -2.52973e-14 -1.74151e-13 -2.47492e-21 1.58819e-22 0 0.0005 1.46608e-07 
34 1 0.0564645 0.0213699 0.00635393 -1.24226e-15 -1.50138e-14 3.21e-14 1.03497e-20 5.39984e-21 -4.02341e-21 0.0005 1.46608e-07 
38 1 0.0813838 0.0158509 0.00860456 0.000952657 -0.010127 0.0122958 -6.90999e-09 -6.1263e-09 3.22398e-08 0.0005 1.46608e-07 
46 1 0.136461 0.0187737 0.0058834 2.01883e-15 3.1422e-15 -2.90509e-14 1.0932e-20 -8.39092e-21 6.35275e-22 0.0005 1.46608e-07 
48 1 0.0819829 0.0176499 0.00599436 1.00304e-14 3.39563e-14 1.43854e-13 1.32349e-23 0 0 0.0005 1.46608e-07 
54 1 0.0652975 0.0207687 0.00603532 -1.12846e-15 3.25658e-14 -1.18914e-13 -3.13171e-21 0 0 0.0005 1.46608e-07 
56 1 0.0830166 0.0197662 0.00609629 -1.5825e-14 -4.43666e-14 1.9057e-13 0 0 0 0.0005 1.46608e-07 
59 1 0.0793161 0.0192087 0.00581236 1.53511e-14 5.16593e-14 2.19734e-13 6.14099e-21 4.18223e-21 -1.69407e-21 0.0005 1.46608e-07 
64 1 0.0170063 0.0201419 0.00601043 1.30442e-14 5.24927e-15 -1.07335e-13 1.31052e-19 -2.98182e-20 1.50348e-20 0.0005 1.46608e-07 
65 1 0.0643606 0.0210989 0.00615793 9.85082e-15 -6.28943e-14 2.05619e-13 -6.4851e-22 -5.29396e-23 2.11758e-22 0.0005 1.46608e-07 
66 1 0.0448733 0.0164686 0.00634571 -2.61038e-17 -1.41375e-16 -9.78761e-16 -5.29396e-23 -1.05879e-22 -2.11758e-22 0.0005 1.46608e-07 
68 1 0.080527 0.019112 0.00575077 1.34791e-14 4.56299e-14 1.93312e-13 -2.60727e-21 -5.29396e-22 2.11758e-22 0.0005 1.46608e-07 
70 1 0.0774283 0.0231085 0.0103323 0.00018849 -0.00591641 -0.0203526 -1.44811e-09 -1.19027e-08 -3.72321e-09 0.0005 1.46608e-07 
74 1 0.0615774 0.0172559 0.00608456 -9.3368e-14 -1.57699e-14 -2.07182e-14 1.1129e-16 1.92704e-17 -3.47919e-18 0.0005 1.46608e-07 
82 1 0.063441 0.0163701 0.00647495 5.39098e-16 7.73028e-15 9.89853e-15 5.9557e-23 0 0 0.0005 1.46608e-07 
83 1 0.085142 0.0184899 0.00574639 3.31542e-15 -1.89273e-14 2.54251e-13 1.36319e-21 9.26442e-23 0 0.0005 1.46608e-07 
86 1 0.0829173 0.0222111 0.0066532 2.53155e-15 -1.23267e-14 5.62304e-14 -9.46295e-21 -4.23516e-22 0 0.0005 1.46608e-07 
88 1 0.0357086 0.0161117 0.00660683 -4.64263e-15 2.81601e-14 7.49179e-14 -1.5191e-19 2.64698e-21 -9.74088e-21 0.0005 1.46608e-07 
89 1 0.0618809 0.0199413 0.00582959 -6.33341e-16 -8.77149e-15 2.42973e-14 0 -7.94093e-23 -2.11758e-22 0.0005 1.46608e-07 
90 1 0.0715276 0.0232727 0.0107635 0.00172158 -0.0030387 -0.012776 -7.00055e-09 -1.05336e-08 -2.53951e-08 0.0005 1.46608e-07 
93 1 0.0827293 0.0212593 0.0078942 0.000611771 -0.0166179 -0.00884429 3.85379e-10 -3.43949e-09 -5.2398e-09 0.0005 1.46608e-07 
100 1 0.0828881 0.0187784 0.00585566 -1.80127e-14 -5.05041e-14 2.16941e-13 -3.17637e-22 -5.29396e-23 0 0.0005 1.46608e-07 
106 1 0.0439552 0.0161318 0.00656318 1.95506e-16 -2.75147e-15 -2.89951e-15 -2.38228e-22 0 0 0.0005 1.46608e-07 
107 1 0.0782305 0.0203396 0.00602091 5.13241e-15 1.41882e-14 -2.65548e-14 -5.29396e-23 -1.05879e-22 0 0.0005 1.46608e-07 
108 1 0.0819591 0.0196502 0.00598149 1.14582e-15 1.981e-15 -1.05878e-14 1.19453e-18 -1.60105e-18 -2.79309e-19 0.0005 1.46608e-07 
109 1 0.0732237 0.018766 0.005768 1.03998e-14 -5.92099e-14 -1.63381e-13 -3.64224e-20 -1.28643e-20 3.17637e-21 0.0005 1.46608e-07 
112 1 0.0644815 0.0190744 0.00573853 7.9804e-16 -3.78212e-15 -6.44673e-14 0 0 0 0.0005 1.46608e-07 
113 1 0.0683453 0.0182317 0.00578271 3.27331e-17 5.75254e-17 2.04659e-15 7.94093e-23 7.94093e-23 -2.11758e-22 0.0005 1.46608e-07 
121 1 0.0609817 0.0187588 0.00589337 -4.34562e-15 -1.9416e-14 -1.3904e-13 -7.67624e-22 1.05879e-22 0 0.0005 1.46608e-07 
124 1 0.0609012 0.0197493 0.00575757 -5.19423e-15 -2.31833e-14 -1.66017e-13 0 0 0 0.0005 1.46608e-07 
125 1 0.0634974 0.0172463 0.00599641 6.75135e-16 1.66846e-15 1.3175e-14 6.61744e-24 0 0 0.0005 1.46608e-07 
126 1 0.0286258 0.0183498 0.00592583 -1.94458e-14 1.85067e-16 -2.28119e-13 -2.11758e-22 -5.23812e-22 0 0.0005 1.46608e-07 
127 1 0.0862115 0.0201056 0.00585272 2.60616e-15 -1.48761e-14 1.99835e-13 5.70755e-21 -7.80858e-22 -2.11758e-22 0.0005 1.46608e-07 
129 1 0.0601285 0.017977 0.00598674 -1.08854e-14 2.2654e-14 2.78392e-13 4.81551e-20 4.6428e-20 -1.90582e-21 0.0005 1.46608e-07 
132 1 0.0626638 0.0179373 0.00595165 -7.36733e-15 -1.81911e-14 -1.43647e-13 -1.98523e-21 1.37643e-21 0 0.0005 1.46608e-07 
134 1 0.0644862 0.0176438 0.00589539 -5.98002e-15 -1.47721e-14 -1.16641e-13 -3.97047e-22 1.05879e-22 0 0.0005 1.46608e-07 
137 1 0.0238948 0.0168123 0.00667048 -1.5592e-14 -3.19691e-14 -1.0479e-13 -3.17637e-22 1.05879e-22 -2.11758e-22 0.0005 1.46608e-07 
142 1 0.042543 0.0198089 0.00582143 -2.42918e-16 2.07514e-15 -6.5726e-15 -1.65436e-23 -5.29396e-23 0 0.0005 1.46608e-07 
146 1 0.0388539 0.0197419 0.00587248 -2.8199e-15 1.34625e-14 -6.65671e-14 1.17724e-20 1.05879e-21 -4.23516e-22 0.0005 1.46608e-07 
149 1 0.0766607 0.0190533 0.00580856 -9.17999e-15 5.49475e-14 2.11155e-13 -1.49753e-20 8.78797e-21 -3.59989e-21 0.0005 1.46608e-07 
159 1 0.0779381 0.019417 0.00576935 1.39063e-15 -8.38559e-15 -3.2187e-14 -2.11758e-22 5.29396e-23 2.11758e-22 0.0005 1.46608e-07 
160 1 0.0620021 0.0189487 0.00583492 7.57021e-16 3.39736e-15 2.4265e-14 -3.97047e-23 0 -2.11758e-22 0.0005 1.46608e-07 
163 1 0.0424897 0.0188104 0.00581963 4.13338e-16 -1.19939e-15 -6.56991e-15 -4.30134e-23 0 0 0.0005 1.46608e-07 
165 1 0.0920805 0.0205253 0.0059177 -7.84834e-15 -7.28946e-14 1.85342e-13 0 0 0 0.0005 1.46608e-07 
174 1 0.0803459 0.0175093 0.00840553 1.403e-05 0.00155821 0.000782227 4.90756e-10 -7.94348e-08 1.59555e-08 0.0005 1.46608e-07 
182 1 0.0557406 0.0175302 0.00596599 -5.60194e-15 -7.64949e-15 -1.08971e-13 2.43125e-20 -9.39677e-21 -6.35275e-22 0.0005 1.46608e-07 
187 1 0.102423 0.0196788 0.00582979 1.51464e-15 2.26062e-15 -1.78453e-14 5.12455e-20 -3.51254e-20 -4.23516e-22 0.0005 1.46608e-07 
189 1 0.0453636 0.0157749 0.00687326 2.75776e-17 -5.64941e-16 -6.89847e-16 -5.29396e-23 1.05879e-22 2.11758e-22 0.0005 1.46608e-07 
193 1 0.3774 0.0175646 0.00837628 9.61958e-06 0.00396625 -0.00022014 4.91942e-10 -9.50563e-08 1.65534e-08 0.0005 1.46608e-07 
195 1 0.0505919 0.0207133 0.00592302 6.74641e-15 1.8938e-14 2.6288e-13 3.70577e-22 9.26442e-23 0 0.0005 1.46608e-07 
198 1 0.0643736 0.0166453 0.00623285 -9.28313e-16 8.92613e-14 2.24984e-13 1.37312e-22 0 2.11758e-22 0.0005 1.46608e-07 
201 1 0.0440263 0.0170728 0.00623272 2.29436e-16 -6.63925e-16 -3.64325e-15 -1.05879e-22 1.05879e-22 0 0.0005 1.46608e-07 
209 1 0.0784221 0.0219796 0.0146599 0.00184402 0.00752954 -0.00881377 4.16169e-09 2.60671e-08 -4.4111e-08 0.0005 1.46608e-07 
213 1 0.0810639 0.0181072 0.00595049 1.06441e-15 3.60321e-15 1.52614e-14 0 0 0 0.0005 1.46608e-07 
215 1 0.0824647 0.0205875 0.00624167 -1.14361e-14 -3.20895e-14 1.3783e-13 9.76735e-21 -7.99387e-21 -1.27055e-21 0.0005 1.46608e-07 
221 1 0.0595038 0.0223955 0.00675756 9.02332e-17 -1.68454e-15 4.05735e-15 -6.18665e-20 -3.59989e-21 1.27055e-21 0.0005 1.46608e-07 
223 1 0.063626 0.0183177 0.00585415 -7.36615e-15 -1.81913e-14 -1.43647e-13 4.5131e-21 -5.29396e-22 -2.11758e-22 0.0005 1.46608e-07 
226 1 0.0316007 0.0183082 0.00603438 1.31701e-14 -4.47238e-14 -1.10009e-13 5.3469e-21 6.35275e-22 -6.35275e-22 0.0005 1.46608e-07 
227 1 0.0584979 0.0201946 0.00586451 2.95017e-16 4.88301e-15 -1.0442e-14 -3.50725e-22 1.27055e-21 6.35275e-22 0.0005 1.46608e-07 
229 1 0.0215463 0.0196109 0.00592744 -1.81457e-14 8.14351e-15 -1.66091e-13 0 0 0 0.0005 1.46608e-07 
240 1 0.0690612 0.017564 0.00598647 -6.92122e-17 7.12324e-16 1.8806e-15 7.94093e-23 -2.64698e-23 0 0.0005 1.46608e-07 
242 1 0.0636055 0.0197465 0.00578044 6.28604e-15 -4.01367e-14 1.31216e-13 -6.06158e-21 2.11758e-22 2.11758e-22 0.0005 1.46608e-07 
245 1 0.0841333 0.0228728 0.0133275 5.73191e-05 0.0104854 -0.0200623 -1.22282e-09 -8.51322e-09 -8.48353e-09 0.0005 1.46608e-07 
246 1 0.0242602 0.0201274 0.00583803 -1.07574e-14 -1.72601e-15 1.75368e-13 1.32349e-23 0 0 0.0005 1.46608e-07 
256 1 0.0679046 0.0160169 0.0144893 0.000917128 0.0142131 0.0137993 -8.93161e-09 1.75628e-08 2.67726e-09 0.0005 1.46608e-07 
257 1 0.0567438 0.01754 0.00591345 -9.84572e-15 -1.33734e-14 -1.90504e-13 9.21148e-21 4.68515e-21 -4.23516e-22 0.0005 1.46608e-07 
258 1 0.061759 0.0163729 0.00651709 -2.08925e-14 -3.12103e-14 -1.90589e-14 2.93245e-17 3.20982e-17 -2.03577e-17 0.0005 1.46608e-07 
270 1 0.0504712 0.0179279 0.00611076 -3.6993e-15 -1.32327e-14 -1.98725e-13 2.30618e-21 -4.63221e-22 0 0.0005 1.46608e-07 
273 1 0.0371638 0.0187263 0.00573865 3.80804e-15 -1.8188e-14 8.99483e-14 -3.90959e-20 -5.87629e-21 2.11758e-22 0.0005 1.46608e-07 
274 1 0.0328558 0.0191954 0.00572294 8.90036e-16 5.06752e-15 -1.9634e-14 -1.98523e-22 0 0 0.0005 1.46608e-07 
277 1 0.044465 0.0204317 0.00594645 -3.24858e-15 2.52817e-14 -8.03115e-14 4.49821e-19 7.15213e-20 5.50571e-21 0.0005 1.46608e-07 
279 1 0.0625324 0.0169121 0.00611939 -3.74531e-16 3.70489e-14 9.33838e-14 -5.8523e-21 -3.17637e-22 0 0.0005 1.46608e-07 
280 1 0.066033 0.0188309 0.00577203 2.16555e-15 -1.0378e-14 -1.76838e-13 -8.89385e-21 -3.70577e-22 0 0.0005 1.46608e-07 
281 1 0.0833983 0.0210192 0.00634375 2.36845e-14 -4.02509e-14 1.90901e-13 -2.69992e-21 2.43522e-21 8.47033e-22 0.0005 1.46608e-07 
283 1 0.0634804 0.0174567 0.00843803 2.37894e-05 -0.00189431 0.00172075 1.28075e-10 -2.71349e-08 1.76495e-09 0.0005 1.46608e-07 
291 1 0.0350698 0.0188001 0.00572051 -7.10951e-15 -4.0673e-14 1.57633e-13 1.62524e-20 1.00056e-20 3.38813e-21 0.0005 1.46608e-07 
293 1 0.0623373 0.0157218 0.00700852 4.91691e-14 1.17036e-14 -4.05329e-14 -4.03456e-17 -1.67448e-17 3.75829e-18 0.0005 1.46608e-07 
296 1 0.0667607 0.0199247 0.00579031 -4.06219e-16 1.1961e-14 -4.36766e-14 6.94832e-23 -5.29396e-23 0 0.0005 1.46608e-07 
298 1 0.0751501 0.0151775 0.00964066 0.00083277 -0.0107123 0.0177648 -1.01572e-08 8.16777e-08 -1.13321e-07 0.0005 1.46608e-07 
