ITEM: TIMESTEP
73600000
ITEM: NUMBER OF ATOMS
88
ITEM: BOX BOUNDS ff ff ff
-0.02 0.43
-0.02 0.06
-0.02 0.07
ITEM: ATOMS id type x y z vx vy vz fx fy fz radius mass 
1 1 0.0387146 0.0187573 0.00575718 -8.66846e-15 7.85696e-14 2.00898e-13 0 0 0 0.0005 1.46608e-07 
2 1 0.0515454 0.0203376 0.00592249 1.13842e-14 2.60798e-14 3.50794e-13 -7.49902e-19 6.2069e-19 -2.32934e-20 0.0005 1.46608e-07 
3 1 0.0657625 0.0198039 0.00576669 -1.37655e-15 3.97328e-14 -1.45083e-13 -1.83634e-22 0 0 0.0005 1.46608e-07 
8 1 0.102543 0.017821 0.00581645 -9.77746e-16 -4.3526e-15 -1.20042e-13 3.44107e-22 3.17637e-22 0 0.0005 1.46608e-07 
9 1 0.0387828 0.0214812 0.00622724 -2.71816e-19 1.06776e-18 -5.69892e-18 2.06795e-23 8.27181e-24 0 0.0005 1.46608e-07 
14 1 0.191105 0.0203026 0.00593314 -1.12287e-14 -4.38001e-14 9.73362e-14 1.1382e-21 -2.11758e-22 0 0.0005 1.46608e-07 
18 1 0.0819644 0.018662 0.00575674 1.34785e-14 4.56302e-14 1.93312e-13 2.13082e-21 -5.29396e-23 0 0.0005 1.46608e-07 
26 1 0.10448 0.0180949 0.00580371 1.49834e-14 2.23677e-14 -1.76075e-13 -1.91112e-20 1.77877e-20 -6.35275e-22 0.0005 1.46608e-07 
28 1 0.0800401 0.0168845 0.00628905 -1.13555e-15 -7.29098e-15 -3.41144e-14 -1.98523e-23 0 0 0.0005 1.46608e-07 
32 1 0.0458896 0.0168235 0.00626774 -4.52644e-15 -2.52971e-14 -1.74151e-13 -3.5271e-21 9.52912e-22 0 0.0005 1.46608e-07 
34 1 0.0564645 0.0213699 0.00635393 -1.09349e-15 -1.50183e-14 3.21021e-14 -7.10846e-20 2.24464e-20 7.83505e-21 0.0005 1.46608e-07 
38 1 0.0874984 0.0211858 0.0152371 0.00276748 0.0118356 -0.00754298 -8.67711e-09 3.52777e-08 -1.96101e-08 0.0005 1.46608e-07 
46 1 0.136461 0.0187737 0.0058834 2.03678e-15 3.14295e-15 -2.90496e-14 -6.77759e-20 5.27013e-20 1.05879e-21 0.0005 1.46608e-07 
48 1 0.0822817 0.0172512 0.00607537 6.65531e-16 3.61517e-14 1.18632e-13 1.86695e-21 0 0 0.0005 1.46608e-07 
54 1 0.0652975 0.0207687 0.00603532 -1.12935e-15 3.25657e-14 -1.18914e-13 3.53206e-21 -5.29396e-23 -2.11758e-22 0.0005 1.46608e-07 
56 1 0.0870153 0.0206158 0.00591409 3.22058e-15 5.89915e-15 -3.89487e-14 0 -7.94093e-23 0 0.0005 1.46608e-07 
59 1 0.0792518 0.0191834 0.00582281 6.35325e-15 2.15028e-14 9.10979e-14 -3.65283e-21 7.04096e-21 -1.48231e-21 0.0005 1.46608e-07 
64 1 0.0170063 0.0201419 0.00601043 1.30325e-14 5.24986e-15 -1.07336e-13 1.1472e-19 -3.65548e-20 1.27055e-20 0.0005 1.46608e-07 
65 1 0.0643606 0.0210989 0.00615793 9.8508e-15 -6.28947e-14 2.05619e-13 -2.38228e-22 5.29396e-23 2.11758e-22 0.0005 1.46608e-07 
66 1 0.0448733 0.0164686 0.00634571 -2.65936e-17 -1.41485e-16 -9.7888e-16 -2.11758e-22 0 0 0.0005 1.46608e-07 
68 1 0.0803045 0.0192159 0.005743 -9.52837e-15 -2.67153e-14 1.14756e-13 -1.32349e-23 0 0 0.0005 1.46608e-07 
70 1 0.0811915 0.017199 0.00615598 4.51264e-15 1.52767e-14 6.47202e-14 -2.38228e-22 -2.64698e-22 0 0.0005 1.46608e-07 
74 1 0.0615774 0.0172559 0.00608456 -8.81696e-16 -3.90154e-15 -2.79216e-14 2.11758e-22 2.11758e-22 0 0.0005 1.46608e-07 
82 1 0.063441 0.0163701 0.00647495 5.34683e-16 7.66702e-15 9.8174e-15 4.96308e-23 0 0 0.0005 1.46608e-07 
83 1 0.085142 0.0184899 0.00574639 3.31503e-15 -1.89273e-14 2.54251e-13 1.14482e-21 3.97047e-22 0 0.0005 1.46608e-07 
86 1 0.0829173 0.0222111 0.0066532 2.49315e-15 -1.23396e-14 5.62293e-14 -6.68097e-20 2.0117e-21 3.59989e-21 0.0005 1.46608e-07 
88 1 0.0357086 0.0161117 0.00660683 -4.47864e-15 2.81819e-14 7.49196e-14 -2.07735e-19 -2.32405e-20 -4.23516e-21 0.0005 1.46608e-07 
89 1 0.0618809 0.0199413 0.00582959 -5.35707e-16 -7.42052e-15 2.05544e-14 6.61744e-24 1.05879e-22 0 0.0005 1.46608e-07 
90 1 0.0768966 0.0155635 0.0139749 0.000203953 0.0122716 0.0171175 -8.95948e-10 1.20005e-08 -1.18409e-09 0.0005 1.46608e-07 
93 1 0.0884654 0.0169503 0.0152804 0.000281367 0.018232 0.0104301 -5.92577e-10 1.04446e-08 -6.28326e-09 0.0005 1.46608e-07 
100 1 0.0830136 0.0187071 0.00584947 -9.52938e-15 -2.67155e-14 1.14756e-13 0 0 0 0.0005 1.46608e-07 
106 1 0.0439552 0.0161318 0.00656318 1.9564e-16 -2.75148e-15 -2.89953e-15 -5.02926e-22 0 0 0.0005 1.46608e-07 
107 1 0.0782305 0.0203396 0.00602091 4.39146e-15 1.2142e-14 -2.27221e-14 0 -5.29396e-23 0 0.0005 1.46608e-07 
108 1 0.0822914 0.0196163 0.00600118 7.16774e-15 2.00949e-14 -8.6317e-14 7.94093e-23 5.29396e-23 0 0.0005 1.46608e-07 
109 1 0.0732237 0.018766 0.005768 1.0358e-14 -5.92045e-14 -1.63385e-13 9.03811e-20 -4.71162e-21 8.25857e-21 0.0005 1.46608e-07 
112 1 0.0644815 0.0190744 0.00573853 7.97976e-16 -3.78212e-15 -6.44673e-14 0 0 0 0.0005 1.46608e-07 
113 1 0.0683453 0.0182317 0.00578271 7.82593e-18 1.40394e-17 5.06786e-16 2.64698e-23 -2.64698e-23 0 0.0005 1.46608e-07 
121 1 0.0609817 0.0187588 0.00589337 -4.3508e-15 -1.94155e-14 -1.3904e-13 1.50878e-21 2.64698e-23 0 0.0005 1.46608e-07 
124 1 0.0609012 0.0197493 0.00575757 -5.19423e-15 -2.31833e-14 -1.66017e-13 0 0 0 0.0005 1.46608e-07 
125 1 0.0634974 0.0172463 0.00599641 6.69604e-16 1.6548e-15 1.30671e-14 -9.92617e-24 0 0 0.0005 1.46608e-07 
126 1 0.0286258 0.0183498 0.00592583 -1.94459e-14 1.80335e-16 -2.28119e-13 1.58819e-22 2.72707e-20 0 0.0005 1.46608e-07 
127 1 0.0888729 0.0199317 0.00596406 -1.22359e-15 -2.2276e-15 1.47215e-14 -3.21608e-21 4.34104e-21 2.11758e-22 0.0005 1.46608e-07 
129 1 0.0601285 0.017977 0.00598674 -1.09342e-14 2.2626e-14 2.78392e-13 -7.86219e-20 -7.36522e-20 2.11758e-21 0.0005 1.46608e-07 
132 1 0.0626638 0.0179373 0.00595165 -7.36803e-15 -1.8191e-14 -1.43647e-13 1.29702e-21 -1.19114e-21 2.11758e-22 0.0005 1.46608e-07 
134 1 0.0644862 0.0176438 0.00589539 -5.98043e-15 -1.47719e-14 -1.16641e-13 4.23516e-22 2.64698e-22 0 0.0005 1.46608e-07 
137 1 0.0238948 0.0168123 0.00667048 -1.55908e-14 -3.19688e-14 -1.04791e-13 4.73809e-21 -6.35275e-22 -4.23516e-22 0.0005 1.46608e-07 
142 1 0.042543 0.0198089 0.00582143 -1.78175e-16 1.52356e-15 -4.82578e-15 1.32349e-23 5.29396e-23 0 0.0005 1.46608e-07 
146 1 0.0388539 0.0197419 0.00587248 -2.83261e-15 1.34605e-14 -6.65669e-14 -5.9557e-23 0 0 0.0005 1.46608e-07 
149 1 0.0766607 0.0190533 0.00580856 -9.1783e-15 5.49376e-14 2.11158e-13 -6.87553e-21 5.66453e-21 -2.32934e-21 0.0005 1.46608e-07 
159 1 0.0779381 0.019417 0.00576935 1.18961e-15 -7.17468e-15 -2.75399e-14 3.17637e-22 1.58819e-22 0 0.0005 1.46608e-07 
160 1 0.0620021 0.0189487 0.00583492 6.4033e-16 2.8741e-15 2.05269e-14 -1.32349e-23 0 0 0.0005 1.46608e-07 
163 1 0.0424897 0.0188104 0.00581963 3.03333e-16 -8.80561e-16 -4.82377e-15 1.32349e-23 0 0 0.0005 1.46608e-07 
165 1 0.0920805 0.0205253 0.0059177 -7.84821e-15 -7.28946e-14 1.85342e-13 0 0 0 0.0005 1.46608e-07 
174 1 0.080364 0.0175177 0.00839719 1.06553e-05 0.00356864 2.16971e-05 4.48456e-10 -8.49454e-08 7.16638e-09 0.0005 1.46608e-07 
182 1 0.0557406 0.0175302 0.00596599 -5.48204e-15 -7.52338e-15 -1.08986e-13 3.43975e-20 -1.99582e-20 0 0.0005 1.46608e-07 
187 1 0.102423 0.0196788 0.00582979 1.53739e-15 2.26262e-15 -1.78431e-14 1.41878e-20 8.81444e-21 2.32934e-21 0.0005 1.46608e-07 
189 1 0.0453636 0.0157749 0.00687326 2.7514e-17 -5.648e-16 -6.89735e-16 5.29396e-23 1.05879e-22 0 0.0005 1.46608e-07 
193 1 0.377393 0.0174623 0.00843203 -2.73301e-05 -0.00042222 -0.000915626 -4.10326e-10 6.66537e-08 -5.54656e-08 0.0005 1.46608e-07 
195 1 0.0505919 0.0207133 0.00592302 6.74238e-15 1.8939e-14 2.6288e-13 3.99694e-21 -8.33798e-22 0 0.0005 1.46608e-07 
198 1 0.0643736 0.0166453 0.00623285 -9.28339e-16 8.92624e-14 2.24983e-13 5.45939e-23 0 0 0.0005 1.46608e-07 
201 1 0.0440263 0.0170728 0.00623272 2.29529e-16 -6.63965e-16 -3.64325e-15 -2.64698e-22 0 0 0.0005 1.46608e-07 
209 1 0.0799751 0.0180833 0.00603206 1.34823e-14 4.56304e-14 1.93312e-13 1.70068e-20 2.11758e-22 -1.05879e-21 0.0005 1.46608e-07 
213 1 0.0810479 0.0182624 0.00591498 1.06433e-15 3.60282e-15 1.52615e-14 2.51463e-22 0 0 0.0005 1.46608e-07 
215 1 0.0824664 0.0205903 0.00624245 -1.04206e-15 -2.92718e-15 1.25717e-14 -3.77194e-21 2.11758e-22 -2.11758e-22 0.0005 1.46608e-07 
221 1 0.0595038 0.0223955 0.00675756 1.80046e-16 -1.68064e-15 4.05602e-15 6.28922e-20 -4.87044e-21 -3.81165e-21 0.0005 1.46608e-07 
223 1 0.063626 0.0183177 0.00585415 -7.36455e-15 -1.81924e-14 -1.43647e-13 7.01449e-22 -5.29396e-23 2.11758e-22 0.0005 1.46608e-07 
226 1 0.0316007 0.0183082 0.00603438 1.31193e-14 -4.47352e-14 -1.1001e-13 8.89385e-20 1.0482e-20 5.71747e-21 0.0005 1.46608e-07 
227 1 0.0584979 0.0201946 0.00586451 3.22875e-16 4.88498e-15 -1.04401e-14 0 0 -2.11758e-22 0.0005 1.46608e-07 
229 1 0.0215463 0.0196109 0.00592744 -1.81495e-14 8.1435e-15 -1.66091e-13 1.58819e-22 0 0 0.0005 1.46608e-07 
240 1 0.0690612 0.017564 0.00598647 -1.68189e-17 1.76948e-16 4.66257e-16 -2.64698e-23 5.29396e-23 0 0.0005 1.46608e-07 
242 1 0.0636055 0.0197465 0.00578044 6.28671e-15 -4.01327e-14 1.31218e-13 -5.63806e-21 1.09585e-20 3.59989e-21 0.0005 1.46608e-07 
245 1 0.0894099 0.0147815 0.0119299 0.00013574 0.00164852 0.0215226 -4.42973e-10 1.17945e-08 4.40388e-09 0.0005 1.46608e-07 
246 1 0.0242602 0.0201274 0.00583803 -1.07574e-14 -1.726e-15 1.75368e-13 0 0 0 0.0005 1.46608e-07 
256 1 0.0732454 0.020353 0.00743105 0.00158884 -0.00864637 -0.00245538 -1.81643e-09 2.2725e-08 -1.7138e-08 0.0005 1.46608e-07 
257 1 0.0567438 0.01754 0.00591345 -9.81687e-15 -1.33749e-14 -1.90506e-13 1.24567e-19 1.1382e-21 -6.56451e-21 0.0005 1.46608e-07 
258 1 0.061759 0.0163729 0.00651709 1.36398e-15 -1.5563e-14 -2.22078e-14 -1.21761e-21 -3.17637e-22 3.17637e-22 0.0005 1.46608e-07 
270 1 0.0504712 0.0179279 0.00611076 -3.70025e-15 -1.32327e-14 -1.98725e-13 4.05319e-21 3.17637e-22 -2.11758e-22 0.0005 1.46608e-07 
273 1 0.0371638 0.0187263 0.00573865 3.80619e-15 -1.81976e-14 8.99464e-14 1.06574e-19 -1.2229e-20 -6.77626e-21 0.0005 1.46608e-07 
274 1 0.0328558 0.0191954 0.00572294 8.91905e-16 5.06752e-15 -1.9634e-14 5.3469e-21 0 2.11758e-22 0.0005 1.46608e-07 
277 1 0.044465 0.0204317 0.00594645 -2.92572e-15 2.53144e-14 -8.03132e-14 4.80532e-19 3.70048e-20 -6.14099e-21 0.0005 1.46608e-07 
279 1 0.0625324 0.0169121 0.00611939 -3.85301e-16 3.70496e-14 9.33834e-14 -1.56503e-21 0 -2.11758e-22 0.0005 1.46608e-07 
280 1 0.066033 0.0188309 0.00577203 2.1914e-15 -1.0374e-14 -1.76838e-13 3.0695e-20 7.27919e-21 0 0.0005 1.46608e-07 
281 1 0.0833983 0.0210192 0.00634375 2.36847e-14 -4.02493e-14 1.90901e-13 -1.11173e-21 -5.39984e-21 -6.35275e-22 0.0005 1.46608e-07 
283 1 0.0635049 0.0175747 0.00839569 -0.000732325 -0.00494441 0.00263444 1.66857e-09 -4.30674e-08 1.38228e-08 0.0005 1.46608e-07 
291 1 0.0350698 0.0188001 0.00572051 -7.09485e-15 -4.06771e-14 1.57632e-13 -1.98523e-20 2.59404e-21 -2.11758e-22 0.0005 1.46608e-07 
293 1 0.0623373 0.0157218 0.00700852 1.32327e-15 -1.55832e-14 -2.22013e-14 7.41154e-22 5.29396e-22 -2.11758e-22 0.0005 1.46608e-07 
296 1 0.0667607 0.0199247 0.00579031 -3.93415e-16 1.19588e-14 -4.36774e-14 -8.27793e-20 1.48231e-21 1.27055e-21 0.0005 1.46608e-07 
298 1 0.0801544 0.0202323 0.00596714 -1.80135e-14 -5.05041e-14 2.16941e-13 -1.21761e-21 -2.11758e-22 0 0.0005 1.46608e-07 
