ITEM: TIMESTEP
70600000
ITEM: NUMBER OF ATOMS
88
ITEM: BOX BOUNDS ff ff ff
-0.02 0.43
-0.02 0.06
-0.02 0.07
ITEM: ATOMS id type x y z vx vy vz fx fy fz radius mass 
1 1 0.0387146 0.0187573 0.00575718 -8.67143e-15 7.85696e-14 2.00898e-13 2.86734e-20 0 1.05879e-21 0.0005 1.46608e-07 
2 1 0.0515454 0.0203376 0.00592249 1.06406e-14 2.65575e-14 3.5078e-13 -8.77407e-20 4.33575e-20 2.11758e-22 0.0005 1.46608e-07 
3 1 0.0657625 0.0198039 0.00576669 -1.37055e-15 3.97318e-14 -1.45083e-13 -1.19097e-20 0 2.11758e-22 0.0005 1.46608e-07 
8 1 0.102543 0.017821 0.00581645 -9.78464e-16 -4.35267e-15 -1.20042e-13 1.62127e-22 -1.32349e-23 0 0.0005 1.46608e-07 
9 1 0.0387828 0.0214812 0.00622724 -2.74781e-19 1.05472e-18 -5.70542e-18 -1.65436e-24 7.61006e-23 2.11758e-22 0.0005 1.46608e-07 
14 1 0.191105 0.0203026 0.00593314 -1.12285e-14 -4.38014e-14 9.73356e-14 -2.38228e-22 3.17637e-22 2.11758e-22 0.0005 1.46608e-07 
18 1 0.0819211 0.0186895 0.00575466 -1.97698e-15 -5.64023e-15 2.40595e-14 -7.94093e-22 5.55865e-22 -2.5411e-21 0.0005 1.46608e-07 
26 1 0.10448 0.0180949 0.00580371 1.48635e-14 2.23693e-14 -1.76085e-13 1.25334e-19 1.77348e-20 1.03762e-20 0.0005 1.46608e-07 
28 1 0.0783728 0.0219484 0.0147177 0.00154278 0.00287075 -0.001447 -8.701e-07 7.55902e-07 -2.72452e-07 0.0005 1.46608e-07 
32 1 0.0458896 0.0168235 0.00626774 -4.52613e-15 -2.52971e-14 -1.74151e-13 8.74826e-21 -5.82335e-22 -2.11758e-22 0.0005 1.46608e-07 
34 1 0.0564645 0.0213699 0.00635393 -1.12172e-15 -1.50184e-14 3.21013e-14 1.57178e-19 -7.90917e-20 -3.28225e-20 0.0005 1.46608e-07 
38 1 0.0841307 0.0226774 0.0136686 0.000163124 0.0113288 -0.0182736 -8.96963e-10 -6.5199e-09 -1.07728e-08 0.0005 1.46608e-07 
46 1 0.136461 0.0187737 0.0058834 2.01615e-15 3.142e-15 -2.90511e-14 -1.54186e-20 1.2679e-20 4.23516e-22 0.0005 1.46608e-07 
48 1 0.0821243 0.0177332 0.00596484 1.51455e-15 5.23427e-15 2.19995e-14 8.99973e-22 3.70577e-22 -2.5411e-21 0.0005 1.46608e-07 
54 1 0.0652975 0.0207687 0.00603532 -1.12724e-15 3.25652e-14 -1.18914e-13 4.06973e-22 -5.29396e-23 -2.11758e-22 0.0005 1.46608e-07 
56 1 0.0830166 0.0197662 0.00609629 -1.5825e-14 -4.43661e-14 1.9057e-13 -3.83812e-22 2.2764e-21 4.23516e-22 0.0005 1.46608e-07 
59 1 0.0793161 0.0192087 0.00581236 1.53332e-14 5.18512e-14 2.1969e-13 2.06504e-19 -7.98329e-20 5.0822e-21 0.0005 1.46608e-07 
64 1 0.0170063 0.0201419 0.00601043 1.30298e-14 5.25509e-15 -1.07336e-13 9.86529e-20 -4.16105e-20 9.52912e-21 0.0005 1.46608e-07 
65 1 0.0643606 0.0210989 0.00615793 9.85076e-15 -6.28948e-14 2.05619e-13 -6.35275e-22 -1.05879e-22 0 0.0005 1.46608e-07 
66 1 0.0448733 0.0164686 0.00634571 -2.6644e-17 -1.4135e-16 -9.78735e-16 7.94093e-22 2.11758e-22 2.11758e-22 0.0005 1.46608e-07 
68 1 0.0805047 0.019156 0.00574567 -7.33865e-15 -2.05762e-14 8.83856e-14 -6.61744e-23 1.05879e-22 0 0.0005 1.46608e-07 
70 1 0.0811915 0.017199 0.00615598 4.5128e-15 1.52765e-14 6.47202e-14 -7.14684e-22 2.64698e-22 0 0.0005 1.46608e-07 
74 1 0.0615774 0.0172559 0.00608456 -9.11461e-16 -4.03456e-15 -2.88744e-14 -1.05879e-22 2.11758e-22 4.23516e-22 0.0005 1.46608e-07 
82 1 0.063441 0.0163701 0.00647495 5.3715e-16 7.70204e-15 9.86223e-15 0 0 0 0.0005 1.46608e-07 
83 1 0.085142 0.0184899 0.00574639 3.31517e-15 -1.89273e-14 2.54251e-13 -2.44845e-22 5.29396e-23 0 0.0005 1.46608e-07 
86 1 0.0829173 0.0222111 0.0066532 2.53181e-15 -1.23264e-14 5.62304e-14 1.00056e-20 2.64698e-22 -2.11758e-22 0.0005 1.46608e-07 
88 1 0.0357086 0.0161117 0.00660683 -4.68265e-15 2.81611e-14 7.49152e-14 7.23948e-21 -2.8005e-20 1.01644e-20 0.0005 1.46608e-07 
89 1 0.0618809 0.0199413 0.00582959 -5.87732e-16 -8.14081e-15 2.25485e-14 -4.30134e-23 -1.85288e-22 0 0.0005 1.46608e-07 
90 1 0.0741396 0.0152375 0.0133537 0.00175371 0.00830254 0.0131957 -1.89611e-08 6.36105e-08 6.87116e-08 0.0005 1.46608e-07 
93 1 0.0854334 0.0175935 0.0155095 0.000381244 0.0194499 0.00681623 -2.39557e-09 9.81094e-09 -7.51374e-09 0.0005 1.46608e-07 
100 1 0.0829196 0.0187688 0.00585604 -9.52826e-15 -2.67159e-14 1.14756e-13 1.19114e-22 -5.29396e-23 0 0.0005 1.46608e-07 
106 1 0.0439552 0.0161318 0.00656318 1.95477e-16 -2.75145e-15 -2.89949e-15 3.97047e-22 1.05879e-22 0 0.0005 1.46608e-07 
107 1 0.0782305 0.0203396 0.00602091 4.77633e-15 1.32047e-14 -2.47127e-14 5.29396e-23 5.29396e-23 0 0.0005 1.46608e-07 
108 1 0.081946 0.0196651 0.00598385 6.44533e-15 2.02123e-14 -8.63495e-14 1.62792e-18 -5.65183e-19 6.14099e-21 0.0005 1.46608e-07 
109 1 0.0732237 0.018766 0.005768 1.04062e-14 -5.92166e-14 -1.63378e-13 -1.30099e-20 -1.5776e-20 4.44692e-21 0.0005 1.46608e-07 
112 1 0.0644815 0.0190744 0.00573853 7.97976e-16 -3.78212e-15 -6.44673e-14 0 0 0 0.0005 1.46608e-07 
113 1 0.0683453 0.0182317 0.00578271 1.46598e-17 2.57247e-17 9.10145e-16 -5.29396e-23 7.94093e-23 0 0.0005 1.46608e-07 
121 1 0.0609817 0.0187588 0.00589337 -4.35079e-15 -1.94154e-14 -1.3904e-13 -6.61744e-22 2.64698e-22 0 0.0005 1.46608e-07 
124 1 0.0609012 0.0197493 0.00575757 -5.19423e-15 -2.31833e-14 -1.66017e-13 0 0 0 0.0005 1.46608e-07 
125 1 0.0634974 0.0172463 0.00599641 6.72668e-16 1.66233e-15 1.31269e-14 1.32349e-23 0 0 0.0005 1.46608e-07 
126 1 0.0286258 0.0183498 0.00592583 -1.94459e-14 1.83118e-16 -2.28119e-13 5.29396e-23 -1.24836e-20 0 0.0005 1.46608e-07 
127 1 0.0862115 0.0201056 0.00585272 2.60127e-15 -1.48765e-14 1.99836e-13 -2.27144e-20 -4.80426e-21 0 0.0005 1.46608e-07 
129 1 0.0601285 0.017977 0.00598674 -1.08012e-14 2.26508e-14 2.78395e-13 2.55844e-19 -6.49833e-21 1.05879e-20 0.0005 1.46608e-07 
132 1 0.0626638 0.0179373 0.00595165 -7.36399e-15 -1.81926e-14 -1.43647e-13 -7.54389e-22 5.29396e-23 0 0.0005 1.46608e-07 
134 1 0.0644862 0.0176438 0.00589539 -5.98028e-15 -1.47719e-14 -1.16641e-13 6.2204e-22 -2.91168e-22 0 0.0005 1.46608e-07 
137 1 0.0238948 0.0168123 0.00667048 -1.55918e-14 -3.19701e-14 -1.0479e-13 1.85288e-22 -2.11758e-22 2.11758e-22 0.0005 1.46608e-07 
142 1 0.042543 0.0198089 0.00582143 -2.1312e-16 1.82181e-15 -5.76867e-15 0 5.29396e-23 0 0.0005 1.46608e-07 
146 1 0.0388539 0.0197419 0.00587248 -2.83261e-15 1.34613e-14 -6.65668e-14 -3.97047e-23 0 0 0.0005 1.46608e-07 
149 1 0.0766607 0.0190533 0.00580856 -9.1932e-15 5.49363e-14 2.11158e-13 -1.95545e-20 7.25272e-21 -3.38813e-21 0.0005 1.46608e-07 
159 1 0.0779381 0.019417 0.00576935 1.29393e-15 -7.80349e-15 -2.99535e-14 1.05879e-22 0 2.11758e-22 0.0005 1.46608e-07 
160 1 0.0620021 0.0189487 0.00583492 7.02623e-16 3.15289e-15 2.2518e-14 3.63959e-23 -7.94093e-23 -2.11758e-22 0.0005 1.46608e-07 
163 1 0.0424897 0.0188104 0.00581963 3.6268e-16 -1.05251e-15 -5.76573e-15 -5.9557e-23 0 0 0.0005 1.46608e-07 
165 1 0.0920805 0.0205253 0.0059177 -7.84785e-15 -7.28946e-14 1.85342e-13 0 0 0 0.0005 1.46608e-07 
174 1 0.0803507 0.0174977 0.0084203 3.2055e-05 -0.000361306 -0.000315744 3.56641e-11 2.70923e-08 -2.97335e-08 0.0005 1.46608e-07 
182 1 0.0557406 0.0175302 0.00596599 -5.69315e-15 -7.62715e-15 -1.08968e-13 1.05694e-19 -6.8345e-20 -4.23516e-22 0.0005 1.46608e-07 
187 1 0.102423 0.0196788 0.00582979 1.49106e-15 2.28818e-15 -1.78438e-14 -2.51198e-20 4.34898e-20 3.38813e-21 0.0005 1.46608e-07 
189 1 0.0453636 0.0157749 0.00687326 2.74409e-17 -5.64927e-16 -6.89878e-16 -1.05879e-22 -3.70577e-22 -2.11758e-22 0.0005 1.46608e-07 
193 1 0.3774 0.0174897 0.00842703 -4.43207e-05 0.000686912 -0.000180584 -1.81418e-10 -3.12102e-09 -1.4866e-08 0.0005 1.46608e-07 
195 1 0.0505919 0.0207133 0.00592302 6.74644e-15 1.89379e-14 2.6288e-13 -1.46246e-21 4.49986e-22 0 0.0005 1.46608e-07 
198 1 0.0643736 0.0166453 0.00623285 -9.2834e-16 8.92628e-14 2.24983e-13 1.00089e-22 0 2.11758e-22 0.0005 1.46608e-07 
201 1 0.0440263 0.0170728 0.00623272 2.29505e-16 -6.63897e-16 -3.64325e-15 2.24993e-22 0 0 0.0005 1.46608e-07 
209 1 0.0801575 0.0177674 0.00609392 -1.31901e-14 -4.46517e-14 -1.89165e-13 5.29396e-23 5.29396e-23 0 0.0005 1.46608e-07 
213 1 0.0810243 0.0182731 0.00591411 -1.50293e-14 -5.08778e-14 -2.15543e-13 -1.32349e-23 1.58819e-22 0 0.0005 1.46608e-07 
215 1 0.0824647 0.0205875 0.00624167 -1.14331e-14 -3.20987e-14 1.37828e-13 2.51463e-21 -7.04096e-21 -1.48231e-21 0.0005 1.46608e-07 
221 1 0.0595038 0.0223955 0.00675756 2.65589e-17 -1.6819e-15 4.06053e-15 -4.04723e-20 -1.29173e-20 -4.02341e-21 0.0005 1.46608e-07 
223 1 0.063626 0.0183177 0.00585415 -7.36428e-15 -1.81926e-14 -1.43647e-13 -1.7073e-21 8.99973e-22 0 0.0005 1.46608e-07 
226 1 0.0316007 0.0183082 0.00603438 1.31691e-14 -4.4728e-14 -1.10007e-13 -6.94832e-20 -1.14349e-20 -2.75286e-21 0.0005 1.46608e-07 
227 1 0.0584979 0.0201946 0.00586451 2.95571e-16 4.8851e-15 -1.04409e-14 -6.61744e-23 0 0 0.0005 1.46608e-07 
229 1 0.0215463 0.0196109 0.00592744 -1.81488e-14 8.14349e-15 -1.66091e-13 -2.11758e-22 2.64698e-23 0 0.0005 1.46608e-07 
240 1 0.0690612 0.017564 0.00598647 -3.08386e-17 3.16381e-16 8.36029e-16 0 -5.29396e-23 0 0.0005 1.46608e-07 
242 1 0.0636055 0.0197465 0.00578044 6.28586e-15 -4.01366e-14 1.31216e-13 5.16161e-22 -5.29396e-23 -2.11758e-22 0.0005 1.46608e-07 
245 1 0.0869407 0.0150367 0.00998667 0.00220532 -0.00423085 0.0129242 6.75969e-09 7.47668e-09 -2.60117e-08 0.0005 1.46608e-07 
246 1 0.0242602 0.0201274 0.00583803 -1.07574e-14 -1.726e-15 1.75368e-13 0 -1.65436e-24 0 0.0005 1.46608e-07 
256 1 0.0701939 0.0196631 0.00729431 0.000360608 -0.0200636 -0.00214747 -1.41673e-09 -8.0896e-09 1.03381e-08 0.0005 1.46608e-07 
257 1 0.0567438 0.01754 0.00591345 -9.84605e-15 -1.33766e-14 -1.90504e-13 1.62789e-20 4.92338e-21 -1.27055e-21 0.0005 1.46608e-07 
258 1 0.061759 0.0163729 0.00651709 1.40938e-15 -1.60944e-14 -2.29655e-14 2.11758e-22 -5.29396e-23 1.05879e-22 0.0005 1.46608e-07 
270 1 0.0504712 0.0179279 0.00611076 -3.69958e-15 -1.32327e-14 -1.98725e-13 1.14151e-21 -1.19114e-22 0 0.0005 1.46608e-07 
273 1 0.0371638 0.0187263 0.00573865 3.77586e-15 -1.81961e-14 8.99479e-14 3.16843e-20 1.85288e-20 3.38813e-21 0.0005 1.46608e-07 
274 1 0.0328558 0.0191954 0.00572294 8.9248e-16 5.06752e-15 -1.9634e-14 1.74701e-21 0 2.11758e-22 0.0005 1.46608e-07 
277 1 0.044465 0.0204317 0.00594645 -3.1398e-15 2.5301e-14 -8.03095e-14 -9.00833e-20 -4.1187e-20 -1.01644e-20 0.0005 1.46608e-07 
279 1 0.0625324 0.0169121 0.00611939 -3.79387e-16 3.70488e-14 9.33838e-14 1.14399e-21 -1.05879e-22 0 0.0005 1.46608e-07 
280 1 0.066033 0.0188309 0.00577203 2.17799e-15 -1.03776e-14 -1.76838e-13 3.01755e-20 7.17331e-21 0 0.0005 1.46608e-07 
281 1 0.0833983 0.0210192 0.00634375 2.36847e-14 -4.02493e-14 1.90901e-13 -2.88521e-21 0 4.23516e-22 0.0005 1.46608e-07 
283 1 0.0634745 0.0174716 0.00842942 -3.69965e-05 -0.00221442 0.000241731 -1.42224e-10 5.9493e-08 -4.67111e-08 0.0005 1.46608e-07 
291 1 0.0350698 0.0188001 0.00572051 -7.07753e-15 -4.06806e-14 1.57632e-13 2.99506e-20 -5.45277e-21 0 0.0005 1.46608e-07 
293 1 0.0623373 0.0157218 0.00700852 1.36827e-15 -1.61151e-14 -2.29592e-14 -2.11758e-22 -1.05879e-22 0 0.0005 1.46608e-07 
296 1 0.0667607 0.0199247 0.00579031 -4.22416e-16 1.19633e-14 -4.36758e-14 -2.34622e-20 -2.59404e-21 -6.35275e-22 0.0005 1.46608e-07 
298 1 0.0775907 0.0233471 0.0114888 -0.00171279 -0.00358477 -0.03207 4.55158e-05 1.73618e-05 0.000152076 0.0005 1.46608e-07 
