# vtk DataFile Version 3.0
LIGGGHTS particles timestep 58600000
ASCII
DATASET POLYDATA
POINTS 275 float
0.354889 0.0179262 0.00706789
0.354647 0.0172446 0.0075296
0.354768 0.0169818 0.00756196
0.354336 0.0159749 0.00814822
0.360598 0.017053 0.00747586
0.354934 0.0177043 0.0071798
0.354609 0.0166888 0.00772218
0.36079 0.0178883 0.00696087
0.354588 0.0166023 0.00776798
0.355016 0.018365 0.00692602
0.348829 0.0172633 0.0073381
0.354315 0.0159071 0.00821854
0.348781 0.0174335 0.00728138
0.349033 0.0181753 0.00702777
0.354438 0.0163855 0.00788845
0.354293 0.0158393 0.00828876
0.354821 0.0176538 0.00721229
0.354912 0.0172227 0.00742943
0.349109 0.0181131 0.00704769
0.360713 0.0175542 0.00716686
0.354707 0.0167193 0.00770081
0.360752 0.0177212 0.00706386
0.348675 0.0169548 0.00744426
0.35454 0.0168181 0.00765946
0.354271 0.0157715 0.00835897
0.354559 0.0169001 0.00771351
0.354845 0.0177469 0.00716291
0.354458 0.0164719 0.00784267
0.360617 0.0171365 0.00742436
0.354417 0.016299 0.00793424
0.354865 0.0174325 0.00732388
0.360849 0.0181821 0.00697293
0.354747 0.0168939 0.00760847
0.354821 0.0172604 0.00741524
0.360732 0.0176377 0.00711536
0.354376 0.0161264 0.00802646
0.355033 0.0177345 0.00715851
0.355058 0.017924 0.00705934
0.360636 0.0172201 0.00737286
0.354397 0.0162125 0.00798003
0.354684 0.0174531 0.0073237
0.360809 0.0179864 0.00696491
0.354479 0.0165584 0.00779689
0.355095 0.0184243 0.00694242
0.349022 0.0189536 0.00686941
0.360675 0.0173871 0.00726986
0.354895 0.0182038 0.00702022
0.349021 0.0174499 0.00727248
0.354823 0.0180594 0.00700299
0.360655 0.0173036 0.00732136
0.378022 0.019866 0.005332
0.355117 0.0180438 0.0069942
0.354356 0.0160428 0.00807736
0.354845 0.0173459 0.0073697
0.354909 0.0180128 0.00702207
0.360694 0.0174707 0.00721836
0.348754 0.0173262 0.00731797
0.349004 0.0188555 0.00686374
0.355029 0.018089 0.00697596
0.354687 0.0170356 0.00753883
0.354928 0.0185288 0.00694877
0.360772 0.0178046 0.00701248
0.349096 0.0188881 0.00684556
0.354865 0.0182401 0.0069318
0.35497 0.0174707 0.00729819
0.354538 0.0168136 0.00775935
0.348695 0.0170476 0.00741269
0.354784 0.0173722 0.00744446
0.348296 0.015881 0.00831559
0.348939 0.0185704 0.00689587
0.354648 0.0168622 0.0076305
0.349227 0.0185982 0.00688222
0.348939 0.017397 0.00729149
0.360828 0.0180846 0.00696896
0.349134 0.0186331 0.00687197
0.355055 0.0178239 0.00711115
0.354628 0.0167755 0.00767634
0.35496 0.017885 0.00718684
0.35496 0.0182842 0.00690745
0.355051 0.0181818 0.00694542
0.348809 0.0171705 0.00736968
0.354723 0.0175292 0.00737545
0.355045 0.0186546 0.00697986
0.354789 0.017793 0.00723687
0.354869 0.0178396 0.00711371
0.354618 0.0171649 0.00747611
0.34851 0.016247 0.0078011
0.35497 0.0187207 0.00698616
0.348752 0.0177515 0.00720672
0.354954 0.0177908 0.00713401
0.348771 0.0178301 0.00714783
0.0643568 0.0187248 0.00531097
0.24257 0.0191927 0.00520306
0.349088 0.0183523 0.00696733
0.348496 0.0161905 0.00788253
0.34886 0.0180203 0.00717286
0.348317 0.015937 0.00823564
0.354843 0.018146 0.00695718
0.355002 0.0184627 0.00694246
0.35483 0.0175554 0.00735274
0.35461 0.0169774 0.00766158
0.34863 0.0163531 0.00770897
0.348669 0.0173764 0.00730375
0.348709 0.0175613 0.0072393
0.354812 0.017156 0.00746955
0.3548 0.0175672 0.00725817
0.354907 0.0176068 0.00723163
0.348891 0.0174831 0.00726311
0.354885 0.0183368 0.0069477
0.354886 0.017048 0.00752102
0.354744 0.0177127 0.00718629
0.354598 0.0170782 0.00752194
0.349063 0.0191393 0.00693129
0.354939 0.0173127 0.00738146
0.35473 0.0172082 0.00744735
0.348375 0.0161055 0.0079944
0.354847 0.0169258 0.00758631
0.355009 0.0180025 0.00702167
0.348824 0.0176194 0.00721813
0.348842 0.0177133 0.00718622
0.354789 0.0170701 0.00751519
0.354741 0.0176163 0.00732994
0.35478 0.0174806 0.007304
0.354949 0.0186248 0.00696746
0.348734 0.0172333 0.00734954
0.35488 0.0177386 0.0072564
0.354661 0.0173419 0.00746642
0.354559 0.0169048 0.00761362
0.348692 0.01662 0.00757615
0.349086 0.0180187 0.00707983
0.348338 0.0159931 0.00815556
0.34903 0.0178224 0.00714678
0.348683 0.0172423 0.00752467
0.348802 0.0175269 0.00724961
0.348712 0.016708 0.00753244
0.3545 0.0166449 0.00775109
0.348897 0.0183854 0.00695884
0.348812 0.0180153 0.00708482
0.348731 0.0167991 0.00749598
0.348358 0.0160492 0.00807523
0.348684 0.0174585 0.0073702
0.348648 0.0164413 0.00766536
0.0219312 0.0187687 0.00551176
0.34877 0.0169848 0.00743283
0.354667 0.0169489 0.00758466
0.348791 0.0179227 0.00711632
0.349043 0.0190464 0.00690034
0.348529 0.0163231 0.00773343
0.348952 0.0182315 0.00700996
0.354664 0.0173664 0.00736953
0.349035 0.0186005 0.00688438
0.34907 0.0187958 0.00681806
0.348855 0.0182006 0.00702252
0.349013 0.0185067 0.00691632
0.35493 0.0181004 0.00697853
0.348649 0.0172831 0.00733395
0.355023 0.0185586 0.00696116
0.348639 0.0170761 0.00749034
0.348953 0.0179857 0.00718329
0.348395 0.0161807 0.00793164
0.348795 0.0179054 0.00721473
0.349112 0.0185396 0.00690385
0.354783 0.0178862 0.0070946
0.348974 0.0182035 0.00710345
0.35506 0.0182761 0.00691336
0.349065 0.0179263 0.00711128
0.348981 0.0187593 0.00684795
0.354763 0.0177996 0.00714042
0.354707 0.0171223 0.00749299
0.354723 0.0176263 0.00723206
0.342816 0.0180333 0.00712718
0.354767 0.0172877 0.00749524
0.348688 0.0174687 0.00727082
0.354951 0.0181898 0.00693905
0.349059 0.018696 0.00685185
0.348908 0.0180445 0.0070736
0.34899 0.0179903 0.00709075
0.342493 0.0165969 0.00769828
0.349026 0.0176376 0.00720915
0.349082 0.0182577 0.0069993
0.348478 0.0161343 0.00796317
0.348929 0.0181371 0.00704211
0.34879 0.0170776 0.00740125
0.35476 0.0173939 0.00734982
0.349178 0.0183995 0.00695005
0.348617 0.0166822 0.00755445
0.348656 0.016862 0.00747584
0.348453 0.0163862 0.00772317
0.348848 0.0173574 0.00730612
0.34863 0.0171911 0.00736796
0.354728 0.0168067 0.00765459
0.35452 0.0167314 0.00770529
0.349091 0.018447 0.00693536
0.354704 0.0175397 0.00727788
0.354886 0.0175204 0.0072774
0.342708 0.0175545 0.00720945
0.348433 0.0163078 0.00778197
0.354803 0.0179741 0.00705133
0.34873 0.0176538 0.00720783
0.354909 0.0171339 0.00747537
0.348866 0.0178592 0.00713669
0.354974 0.0178774 0.00708818
0.348551 0.0168216 0.00749929
0.354643 0.0170892 0.00761072
0.348965 0.0180806 0.00714751
0.342731 0.0176454 0.00717416
0.342669 0.0173787 0.0072963
0.34896 0.018663 0.00686436
0.348661 0.017169 0.00746033
0.348992 0.0184142 0.0069478
0.348901 0.0182729 0.00708507
0.354907 0.0184329 0.00693007
0.348532 0.0167322 0.00753943
0.348856 0.0175981 0.00731054
0.34861 0.0170975 0.00739708
0.342396 0.0162134 0.00798426
0.342453 0.0164159 0.007772
0.342378 0.0161617 0.00806779
0.34901 0.0175441 0.00724088
0.348969 0.017898 0.00712305
0.342415 0.0162721 0.00790539
0.34259 0.0170271 0.00747004
0.348472 0.0164694 0.00767114
0.348838 0.017808 0.00721814
0.342532 0.0167657 0.00759924
0.348578 0.0165121 0.00765155
0.354729 0.0172979 0.00740317
0.34261 0.017115 0.00742659
0.342795 0.0179364 0.00713895
0.342555 0.0168589 0.0075709
0.348934 0.0178638 0.00720999
0.3492 0.0184932 0.00691807
0.348751 0.0168919 0.0074644
0.3488 0.0176976 0.00727576
0.34263 0.0172029 0.00738316
0.348833 0.0181078 0.00705333
0.348747 0.0172318 0.00744874
0.348654 0.0172705 0.00743302
0.342513 0.0166778 0.00764272
0.348742 0.0175329 0.00732925
0.342838 0.0181302 0.00711541
0.348887 0.017952 0.00710511
0.348597 0.0165944 0.00759794
0.349006 0.0177305 0.0071781
0.348916 0.0177769 0.00716371
0.354579 0.0169915 0.00756778
0.348918 0.018478 0.00692735
0.342689 0.0174666 0.00725288
0.348637 0.0167713 0.00751348
0.342649 0.0172908 0.0073397
0.348603 0.0169899 0.00752666
0.348554 0.0164143 0.0076877
0.348492 0.0165566 0.00762656
0.348913 0.0175756 0.00723163
0.342889 0.0179652 0.00712622
0.342751 0.0177426 0.00716249
0.348886 0.0181396 0.00713222
0.342435 0.0163426 0.00783746
0.348816 0.0173539 0.00740081
0.348571 0.0169129 0.00746315
0.348563 0.0168987 0.00756187
0.348666 0.0173657 0.00740316
0.349012 0.0180826 0.0070593
0.348415 0.0162416 0.00785474
0.348715 0.0171405 0.00738112
0.34893 0.0176688 0.00719997
0.348876 0.0182929 0.00699034
0.34859 0.0170047 0.00742864
0.348854 0.0174476 0.0073488
0.342773 0.0178395 0.00715072
0.348512 0.0166443 0.00758294
0.354763 0.0177024 0.00728399
0.342473 0.0165038 0.00772865
0.342571 0.0169392 0.00751348
0.354638 0.0172515 0.00743028

VERTICES 275 550
1 0
1 1
1 2
1 3
1 4
1 5
1 6
1 7
1 8
1 9
1 10
1 11
1 12
1 13
1 14
1 15
1 16
1 17
1 18
1 19
1 20
1 21
1 22
1 23
1 24
1 25
1 26
1 27
1 28
1 29
1 30
1 31
1 32
1 33
1 34
1 35
1 36
1 37
1 38
1 39
1 40
1 41
1 42
1 43
1 44
1 45
1 46
1 47
1 48
1 49
1 50
1 51
1 52
1 53
1 54
1 55
1 56
1 57
1 58
1 59
1 60
1 61
1 62
1 63
1 64
1 65
1 66
1 67
1 68
1 69
1 70
1 71
1 72
1 73
1 74
1 75
1 76
1 77
1 78
1 79
1 80
1 81
1 82
1 83
1 84
1 85
1 86
1 87
1 88
1 89
1 90
1 91
1 92
1 93
1 94
1 95
1 96
1 97
1 98
1 99
1 100
1 101
1 102
1 103
1 104
1 105
1 106
1 107
1 108
1 109
1 110
1 111
1 112
1 113
1 114
1 115
1 116
1 117
1 118
1 119
1 120
1 121
1 122
1 123
1 124
1 125
1 126
1 127
1 128
1 129
1 130
1 131
1 132
1 133
1 134
1 135
1 136
1 137
1 138
1 139
1 140
1 141
1 142
1 143
1 144
1 145
1 146
1 147
1 148
1 149
1 150
1 151
1 152
1 153
1 154
1 155
1 156
1 157
1 158
1 159
1 160
1 161
1 162
1 163
1 164
1 165
1 166
1 167
1 168
1 169
1 170
1 171
1 172
1 173
1 174
1 175
1 176
1 177
1 178
1 179
1 180
1 181
1 182
1 183
1 184
1 185
1 186
1 187
1 188
1 189
1 190
1 191
1 192
1 193
1 194
1 195
1 196
1 197
1 198
1 199
1 200
1 201
1 202
1 203
1 204
1 205
1 206
1 207
1 208
1 209
1 210
1 211
1 212
1 213
1 214
1 215
1 216
1 217
1 218
1 219
1 220
1 221
1 222
1 223
1 224
1 225
1 226
1 227
1 228
1 229
1 230
1 231
1 232
1 233
1 234
1 235
1 236
1 237
1 238
1 239
1 240
1 241
1 242
1 243
1 244
1 245
1 246
1 247
1 248
1 249
1 250
1 251
1 252
1 253
1 254
1 255
1 256
1 257
1 258
1 259
1 260
1 261
1 262
1 263
1 264
1 265
1 266
1 267
1 268
1 269
1 270
1 271
1 272
1 273
1 274

POINT_DATA 275
SCALARS id int 1
LOOKUP_TABLE default
1
2
4
5
6
7
8
9
10
11
12
13
14
16
17
19
21
22
23
24
25
26
27
28
29
30
31
32
33
34
35
36
37
38
39
41
42
44
45
47
48
49
50
51
52
53
54
55
56
57
59
60
61
62
63
64
65
66
67
68
69
70
71
72
73
74
76
77
78
79
80
82
83
84
85
86
87
88
89
90
91
92
93
94
95
96
97
98
99
100
101
102
103
104
105
106
107
108
109
110
111
112
113
114
115
116
117
118
119
120
121
122
123
124
125
127
128
129
130
131
132
133
134
135
136
137
138
140
141
142
143
144
146
147
148
149
150
151
153
154
155
156
157
158
159
160
162
164
165
166
167
168
169
170
171
172
173
174
176
177
178
179
182
183
184
185
186
187
188
189
190
191
192
193
194
195
196
197
198
199
200
201
202
203
204
205
206
207
208
209
210
211
212
213
214
215
216
217
218
219
220
222
224
225
226
227
228
229
230
232
233
234
235
236
237
239
240
241
242
243
244
246
247
248
249
250
251
252
253
254
255
256
257
258
259
260
261
262
263
264
265
266
267
268
269
270
271
272
273
274
275
276
277
278
279
280
281
283
284
285
286
287
288
289
290
291
292
293
294
295
296
297
298
299
300

SCALARS type int 1
LOOKUP_TABLE default
1
1
1
1
1
1
1
1
1
1
1
1
1
1
1
1
1
1
1
1
1
1
1
1
1
1
1
1
1
1
1
1
1
1
1
1
1
1
1
1
1
1
1
1
1
1
1
1
1
1
1
1
1
1
1
1
1
1
1
1
1
1
1
1
1
1
1
1
1
1
1
1
1
1
1
1
1
1
1
1
1
1
1
1
1
1
1
1
1
1
1
1
1
1
1
1
1
1
1
1
1
1
1
1
1
1
1
1
1
1
1
1
1
1
1
1
1
1
1
1
1
1
1
1
1
1
1
1
1
1
1
1
1
1
1
1
1
1
1
1
1
1
1
1
1
1
1
1
1
1
1
1
1
1
1
1
1
1
1
1
1
1
1
1
1
1
1
1
1
1
1
1
1
1
1
1
1
1
1
1
1
1
1
1
1
1
1
1
1
1
1
1
1
1
1
1
1
1
1
1
1
1
1
1
1
1
1
1
1
1
1
1
1
1
1
1
1
1
1
1
1
1
1
1
1
1
1
1
1
1
1
1
1
1
1
1
1
1
1
1
1
1
1
1
1
1
1
1
1
1
1
1
1
1
1
1
1
1
1
1
1
1
1
1
1
1
1
1
1
1
1
1
1
1
1

SCALARS radius float 1
LOOKUP_TABLE default
5e-05
5e-05
5e-05
5e-05
5e-05
5e-05
5e-05
5e-05
5e-05
5e-05
5e-05
5e-05
5e-05
5e-05
5e-05
5e-05
5e-05
5e-05
5e-05
5e-05
5e-05
5e-05
5e-05
5e-05
5e-05
5e-05
5e-05
5e-05
5e-05
5e-05
5e-05
5e-05
5e-05
5e-05
5e-05
5e-05
5e-05
5e-05
5e-05
5e-05
5e-05
5e-05
5e-05
5e-05
5e-05
5e-05
5e-05
5e-05
5e-05
5e-05
5e-05
5e-05
5e-05
5e-05
5e-05
5e-05
5e-05
5e-05
5e-05
5e-05
5e-05
5e-05
5e-05
5e-05
5e-05
5e-05
5e-05
5e-05
5e-05
5e-05
5e-05
5e-05
5e-05
5e-05
5e-05
5e-05
5e-05
5e-05
5e-05
5e-05
5e-05
5e-05
5e-05
5e-05
5e-05
5e-05
5e-05
5e-05
5e-05
5e-05
5e-05
5e-05
5e-05
5e-05
5e-05
5e-05
5e-05
5e-05
5e-05
5e-05
5e-05
5e-05
5e-05
5e-05
5e-05
5e-05
5e-05
5e-05
5e-05
5e-05
5e-05
5e-05
5e-05
5e-05
5e-05
5e-05
5e-05
5e-05
5e-05
5e-05
5e-05
5e-05
5e-05
5e-05
5e-05
5e-05
5e-05
5e-05
5e-05
5e-05
5e-05
5e-05
5e-05
5e-05
5e-05
5e-05
5e-05
5e-05
5e-05
5e-05
5e-05
5e-05
5e-05
5e-05
5e-05
5e-05
5e-05
5e-05
5e-05
5e-05
5e-05
5e-05
5e-05
5e-05
5e-05
5e-05
5e-05
5e-05
5e-05
5e-05
5e-05
5e-05
5e-05
5e-05
5e-05
5e-05
5e-05
5e-05
5e-05
5e-05
5e-05
5e-05
5e-05
5e-05
5e-05
5e-05
5e-05
5e-05
5e-05
5e-05
5e-05
5e-05
5e-05
5e-05
5e-05
5e-05
5e-05
5e-05
5e-05
5e-05
5e-05
5e-05
5e-05
5e-05
5e-05
5e-05
5e-05
5e-05
5e-05
5e-05
5e-05
5e-05
5e-05
5e-05
5e-05
5e-05
5e-05
5e-05
5e-05
5e-05
5e-05
5e-05
5e-05
5e-05
5e-05
5e-05
5e-05
5e-05
5e-05
5e-05
5e-05
5e-05
5e-05
5e-05
5e-05
5e-05
5e-05
5e-05
5e-05
5e-05
5e-05
5e-05
5e-05
5e-05
5e-05
5e-05
5e-05
5e-05
5e-05
5e-05
5e-05
5e-05
5e-05
5e-05
5e-05
5e-05
5e-05
5e-05
5e-05
5e-05
5e-05
5e-05
5e-05
5e-05
5e-05
5e-05
5e-05
5e-05
5e-05
5e-05
5e-05
5e-05
5e-05
5e-05
5e-05
5e-05
5e-05
5e-05
5e-05
5e-05
5e-05
5e-05
5e-05
5e-05
5e-05

SCALARS mass float 1
LOOKUP_TABLE default
1.46608e-10
1.46608e-10
1.46608e-10
1.46608e-10
1.46608e-10
1.46608e-10
1.46608e-10
1.46608e-10
1.46608e-10
1.46608e-10
1.46608e-10
1.46608e-10
1.46608e-10
1.46608e-10
1.46608e-10
1.46608e-10
1.46608e-10
1.46608e-10
1.46608e-10
1.46608e-10
1.46608e-10
1.46608e-10
1.46608e-10
1.46608e-10
1.46608e-10
1.46608e-10
1.46608e-10
1.46608e-10
1.46608e-10
1.46608e-10
1.46608e-10
1.46608e-10
1.46608e-10
1.46608e-10
1.46608e-10
1.46608e-10
1.46608e-10
1.46608e-10
1.46608e-10
1.46608e-10
1.46608e-10
1.46608e-10
1.46608e-10
1.46608e-10
1.46608e-10
1.46608e-10
1.46608e-10
1.46608e-10
1.46608e-10
1.46608e-10
1.46608e-10
1.46608e-10
1.46608e-10
1.46608e-10
1.46608e-10
1.46608e-10
1.46608e-10
1.46608e-10
1.46608e-10
1.46608e-10
1.46608e-10
1.46608e-10
1.46608e-10
1.46608e-10
1.46608e-10
1.46608e-10
1.46608e-10
1.46608e-10
1.46608e-10
1.46608e-10
1.46608e-10
1.46608e-10
1.46608e-10
1.46608e-10
1.46608e-10
1.46608e-10
1.46608e-10
1.46608e-10
1.46608e-10
1.46608e-10
1.46608e-10
1.46608e-10
1.46608e-10
1.46608e-10
1.46608e-10
1.46608e-10
1.46608e-10
1.46608e-10
1.46608e-10
1.46608e-10
1.46608e-10
1.46608e-10
1.46608e-10
1.46608e-10
1.46608e-10
1.46608e-10
1.46608e-10
1.46608e-10
1.46608e-10
1.46608e-10
1.46608e-10
1.46608e-10
1.46608e-10
1.46608e-10
1.46608e-10
1.46608e-10
1.46608e-10
1.46608e-10
1.46608e-10
1.46608e-10
1.46608e-10
1.46608e-10
1.46608e-10
1.46608e-10
1.46608e-10
1.46608e-10
1.46608e-10
1.46608e-10
1.46608e-10
1.46608e-10
1.46608e-10
1.46608e-10
1.46608e-10
1.46608e-10
1.46608e-10
1.46608e-10
1.46608e-10
1.46608e-10
1.46608e-10
1.46608e-10
1.46608e-10
1.46608e-10
1.46608e-10
1.46608e-10
1.46608e-10
1.46608e-10
1.46608e-10
1.46608e-10
1.46608e-10
1.46608e-10
1.46608e-10
1.46608e-10
1.46608e-10
1.46608e-10
1.46608e-10
1.46608e-10
1.46608e-10
1.46608e-10
1.46608e-10
1.46608e-10
1.46608e-10
1.46608e-10
1.46608e-10
1.46608e-10
1.46608e-10
1.46608e-10
1.46608e-10
1.46608e-10
1.46608e-10
1.46608e-10
1.46608e-10
1.46608e-10
1.46608e-10
1.46608e-10
1.46608e-10
1.46608e-10
1.46608e-10
1.46608e-10
1.46608e-10
1.46608e-10
1.46608e-10
1.46608e-10
1.46608e-10
1.46608e-10
1.46608e-10
1.46608e-10
1.46608e-10
1.46608e-10
1.46608e-10
1.46608e-10
1.46608e-10
1.46608e-10
1.46608e-10
1.46608e-10
1.46608e-10
1.46608e-10
1.46608e-10
1.46608e-10
1.46608e-10
1.46608e-10
1.46608e-10
1.46608e-10
1.46608e-10
1.46608e-10
1.46608e-10
1.46608e-10
1.46608e-10
1.46608e-10
1.46608e-10
1.46608e-10
1.46608e-10
1.46608e-10
1.46608e-10
1.46608e-10
1.46608e-10
1.46608e-10
1.46608e-10
1.46608e-10
1.46608e-10
1.46608e-10
1.46608e-10
1.46608e-10
1.46608e-10
1.46608e-10
1.46608e-10
1.46608e-10
1.46608e-10
1.46608e-10
1.46608e-10
1.46608e-10
1.46608e-10
1.46608e-10
1.46608e-10
1.46608e-10
1.46608e-10
1.46608e-10
1.46608e-10
1.46608e-10
1.46608e-10
1.46608e-10
1.46608e-10
1.46608e-10
1.46608e-10
1.46608e-10
1.46608e-10
1.46608e-10
1.46608e-10
1.46608e-10
1.46608e-10
1.46608e-10
1.46608e-10
1.46608e-10
1.46608e-10
1.46608e-10
1.46608e-10
1.46608e-10
1.46608e-10
1.46608e-10
1.46608e-10
1.46608e-10
1.46608e-10
1.46608e-10
1.46608e-10
1.46608e-10
1.46608e-10
1.46608e-10
1.46608e-10
1.46608e-10
1.46608e-10
1.46608e-10
1.46608e-10
1.46608e-10
1.46608e-10
1.46608e-10
1.46608e-10
1.46608e-10
1.46608e-10
1.46608e-10
1.46608e-10
1.46608e-10
1.46608e-10
1.46608e-10
1.46608e-10
1.46608e-10
1.46608e-10

VECTORS velocity float
0.00594441 -0.000572166 -4.71133e-05
0.0056428 -0.000142008 -0.000197968
0.00537022 -0.000214515 -0.000192639
0.00588218 0.000474095 0.000985949
0.00552277 0.000292961 -0.000106094
0.00583395 -0.000505937 -7.94904e-05
0.00549231 -0.000225545 -0.000198877
0.00576087 0.000251542 -7.65107e-05
0.00565107 -0.000292576 -0.0001752
0.00614545 -0.000414337 0.000386292
0.00550627 -5.14727e-05 -5.96277e-05
0.00603581 0.000459865 0.00103585
0.0055485 -0.000436815 7.06951e-05
0.006102 -0.000215309 -1.31574e-05
0.00565052 -0.000216333 -0.000216131
0.00606865 0.000482715 0.00103103
0.00591157 -0.000236786 -0.000215267
0.0058844 0.000379313 -0.000534945
0.00607618 -0.000236112 -5.7368e-06
0.00567561 0.000277177 -9.08599e-05
0.00533787 -0.000131877 -0.000238718
0.00570208 0.000260667 -8.78103e-05
0.00553778 -6.63049e-05 -5.70126e-05
0.00533951 -0.000170142 -0.000209495
0.00606758 0.000484249 0.00102857
0.00536928 -0.000152743 -0.000203938
0.00591916 -0.000337489 -0.000169224
0.00565172 -0.000200369 -0.000217909
0.00554247 0.000287446 -0.000102264
0.00565065 -0.000209921 -0.000205311
0.00582599 -0.000164786 -0.000249789
0.00623466 0.0001831 -9.03465e-05
0.00531252 -0.000156139 -0.000224654
0.00572296 4.17011e-05 -0.000360099
0.00567824 0.000264103 -8.69787e-05
0.00571835 -0.000127939 -4.13254e-05
0.00585434 -0.000639407 -6.5414e-06
0.00597421 -0.000537581 -6.18575e-05
0.0055705 0.000286351 -0.000101048
0.00567251 -0.000181409 -0.000142628
0.00573731 -0.000260808 -0.000190652
0.00600701 0.000206861 -8.58579e-05
0.00566916 -0.000197843 -0.000221525
0.00616396 -0.000442783 0.00037745
0.00564773 -2.69348e-05 -0.000143542
0.00560934 0.000284505 -0.000101737
0.00582765 -0.000592781 0.000131126
0.00563337 -0.000231594 7.71588e-07
0.00611598 -0.000343893 -0.000171607
0.00559675 0.000284169 -0.000100796
-5.02009e-15 -7.41204e-15 7.69802e-14
0.00606547 -0.000408151 -0.000140712
0.00569222 0.000481352 0.00092828
0.00586834 -0.000160866 -0.000251394
0.00594567 -0.000575234 -5.39361e-05
0.00564574 0.000287446 -9.97337e-05
0.00551147 -4.88745e-05 -5.7559e-05
0.00588781 -7.16074e-05 -0.000141992
0.00594969 -0.000503685 0.000104329
0.0053607 -0.000235274 -0.000183876
0.00611412 -0.000428212 0.000374857
0.00576212 0.000255279 -8.03895e-05
0.00583402 0.000154664 -7.62577e-05
0.00611817 -0.000334349 0.000108391
0.00636807 0.000445213 -0.000595344
0.00534024 -0.000152812 -0.000218568
0.00553644 -6.65283e-05 -6.18486e-05
0.00581093 -0.000269569 -0.000209981
0.00607853 0.000260744 0.000263582
0.00624419 -0.000179698 -2.71443e-05
0.00530736 -0.000206336 -0.000196839
0.00617995 -0.0001202 -6.10057e-05
0.00558129 -0.000165842 -2.32113e-05
0.00625186 0.000171996 -9.05416e-05
0.00618792 -0.00010308 -6.69165e-05
0.00597117 -0.000600083 -3.37063e-05
0.00529405 -0.000189553 -0.000201315
0.00587116 -0.00044768 -7.92578e-05
0.00603197 -0.00033895 0.000395892
0.00602092 -0.00045152 0.000297311
0.00551384 -5.35898e-05 -5.94443e-05
0.0057642 -0.000257007 -0.0001991
0.00607551 -0.000387737 0.000379467
0.00594365 -0.00033727 -0.000198973
0.00589335 -0.000549383 -5.70499e-05
0.0055473 -0.000227221 -0.00019895
0.00561653 0.000261258 0.00020417
0.00604742 -0.000420517 0.000370933
0.00591314 -0.000130395 -4.10486e-05
0.00593634 -0.000540729 -6.75369e-05
0.00592632 -0.000130051 -3.97139e-05
4.07134e-15 1.05776e-14 8.296e-14
9.7161e-23 4.86658e-23 1.23839e-22
0.00615439 -0.000226102 -1.02719e-05
0.0057105 0.000268112 0.000208509
0.00603728 -0.000168098 -2.98611e-05
0.00609084 0.000259252 0.000266869
0.00607405 -0.000374178 -0.000191641
0.00613344 -0.000410471 0.000380117
0.0059855 -0.000342749 -0.000247077
0.00529515 -0.000218304 -0.000191336
0.00558772 -0.000289599 -0.00042999
0.00550879 -5.70934e-05 -4.7506e-05
0.00589124 -0.000134237 -3.72891e-05
0.00571778 -0.000122577 -0.000265952
0.00580894 -0.000292994 -0.000185279
0.00606018 -3.9157e-05 -0.000328617
0.00590202 -0.000122261 -4.18854e-05
0.00611598 -0.000460703 0.000746552
0.00574965 0.000363216 -0.000516612
0.00587342 -0.000290259 -0.000193839
0.00531752 -0.000193088 -0.000210832
0.0056446 -2.43193e-05 -0.000136752
0.00636982 0.000975258 -0.000867031
0.00558177 -0.00029564 -0.000169755
0.00578975 0.000268 0.000219352
0.00549411 -6.6381e-05 -0.000282254
0.00594149 -0.000564532 -3.47464e-05
0.00589252 -0.000139675 -3.51598e-05
0.00591443 -0.000126318 -3.98426e-05
0.00561142 -0.000154492 -0.000240814
0.00579506 -0.000267004 -0.000203615
0.00577542 -0.00026616 -0.000194028
0.00608526 -0.000422588 0.000373535
0.00552801 -5.87705e-05 -5.91118e-05
0.0058526 -0.000432485 -0.000130893
0.00578955 -0.000291004 -0.000175867
0.00533043 -0.000202761 -0.000197592
0.00574454 -0.000103034 -0.000538154
0.00602102 -0.000226603 -9.11667e-06
0.00568859 0.000284365 0.000187387
0.00595282 -0.00023439 -3.38279e-06
0.00553412 -6.64967e-05 -6.10611e-05
0.00589736 -0.000125805 -4.13061e-05
0.00552652 -0.000221373 -0.000456117
0.0056763 -0.000202154 -0.000222332
0.00617727 -0.000180294 -2.54381e-05
0.00604707 -0.00016231 -3.10187e-05
0.0055598 -6.01625e-05 -5.68732e-05
0.00573665 0.000277559 0.000204542
0.00573131 -0.000136443 -5.14739e-05
0.00563472 -0.000295806 -0.000431385
-3.826e-14 8.17036e-14 2.95887e-13
0.00553684 -5.67663e-05 -5.90285e-05
0.00530615 -0.000216131 -0.000190622
0.00601369 -0.00015462 -3.34038e-05
0.00554658 -7.27265e-06 -0.000128301
0.00543803 -0.000325033 -0.000399229
0.00612425 -0.000196631 -2.00028e-05
0.00567037 -0.000249484 -0.000181779
0.00626085 -0.000186247 -2.51972e-05
0.00603797 7.69107e-05 -0.000113005
0.00613413 -0.000180781 -2.73113e-05
0.00621269 -0.000207185 -1.72467e-05
0.00600239 -0.000531208 2.67641e-05
0.00552429 -6.54921e-05 -5.35243e-05
0.00610716 -0.000400054 0.000376788
0.00554586 -6.83403e-05 -6.87975e-05
0.00602444 -0.000193066 -1.62973e-05
0.00580312 0.000251104 0.000225777
0.0060244 -0.000137086 -3.33376e-05
0.00625063 -0.000188174 -2.63552e-05
0.00599279 -0.000329581 -0.000179015
0.00610872 -0.000192267 -1.67059e-05
0.00609704 -0.000434368 0.000370082
0.00600392 -0.000221364 -9.41566e-06
0.00615159 -0.000152656 -8.96489e-05
0.00593048 -0.000318912 -0.000183019
0.00550373 -0.000273105 -0.000172187
0.00582783 -0.000269736 -0.000198817
0.00597516 -0.000351567 -0.000588837
0.00574052 -0.000298957 -0.000291688
0.00569428 -9.5755e-05 -4.7284e-05
0.00601928 -0.00042836 0.000201784
0.00621762 -7.10699e-05 -5.22294e-05
0.00606844 -0.000185648 -2.32117e-05
0.00604548 -0.000211702 -1.18798e-05
0.00556533 0.000240683 0.000727581
0.00577926 -0.000231066 1.03206e-06
0.0061202 -0.000224695 -1.02028e-05
0.00579969 0.000269726 0.000217018
0.00611183 -0.000198058 -1.78853e-05
0.00552321 -5.4758e-05 -5.89594e-05
0.00577218 -0.000253077 -0.000196617
0.00617762 -0.000241216 -2.00049e-05
0.00561111 -0.000219846 -0.000389121
0.00554011 -6.40622e-05 -5.71544e-05
0.00560862 -7.44996e-05 -0.000205013
0.00553428 -8.59035e-05 -4.80904e-05
0.00552811 -7.27241e-05 -6.88804e-05
0.0053457 -0.000154302 -0.000226671
0.00546924 -0.000176945 -0.000222599
0.00618797 -0.000228244 -1.0214e-05
0.0057883 -0.000264639 -0.000196743
0.00597096 -8.0309e-05 -0.000303272
0.0060112 0.000187744 0.00083002
0.00561685 0.000199673 0.00015196
0.00607491 -0.000334475 -0.000177797
0.00589982 -0.000130465 -3.94706e-05
0.00582375 0.000338784 -0.000507574
0.00599086 -0.000176284 -2.50569e-05
0.00598808 -0.0005603 -5.27343e-05
0.00553722 -0.000188404 -0.000359234
0.00533885 -0.00017669 -0.000220002
0.00605345 -0.00018216 -1.11722e-05
0.00595721 -0.000350149 -0.000586532
0.0056158 0.000237623 0.000743449
0.00627306 -0.000183345 -2.78986e-05
0.00551894 -6.5869e-05 -6.31246e-05
0.00621754 -0.000178866 -2.68503e-05
0.00612468 -0.000201158 -2.31198e-05
0.00614656 -0.000498288 0.000373948
0.00560992 -0.00024418 -0.000454813
0.00589968 -0.00016825 -4.39862e-05
0.00553459 -7.68138e-05 -6.70176e-05
0.00559806 -0.00088365 -0.000429553
0.00557322 0.000239596 0.000738159
0.00554686 -0.000872504 -0.000432021
0.00570686 -0.000222685 -5.67479e-06
0.00600112 -0.000200995 -1.66334e-05
0.00565949 -0.000849926 -0.000393935
0.00549568 0.000252111 0.000718603
0.00564488 -0.000231268 -0.000432389
0.00591485 -0.00013105 -3.76096e-05
0.00544057 0.000257925 0.00070644
0.0056511 -0.000264031 -0.000442673
0.00561406 -0.000309646 -0.000225097
0.00550004 0.000248789 0.000720918
0.00596972 -0.000349332 -0.00058847
0.00547047 0.000252295 0.000712336
0.00597888 -0.000190265 -1.822e-05
0.00622841 -0.000221927 -2.56285e-05
0.00555724 -6.03055e-05 -5.75419e-05
0.00590068 -0.000131652 -3.92522e-05
0.00550571 0.000247346 0.000720959
0.00608005 -0.00017223 -2.89808e-05
0.00552853 -6.95851e-05 -6.16884e-05
0.00552773 -7.34195e-05 -5.64763e-05
0.00546703 0.000254595 0.000712816
0.00590347 -0.000139985 -3.86916e-05
0.00597904 -0.000354709 -0.000589669
0.00602632 -0.000178757 -2.49712e-05
0.00565866 -0.000267216 -0.000452481
0.00586561 -0.000216074 -1.38415e-05
0.0059025 -0.000169341 -2.70444e-05
0.00535278 -0.000209735 -0.000199663
0.00621191 -0.000179754 -2.65588e-05
0.0058643 0.000206976 0.000797825
0.00555142 -0.000116135 -0.000186874
0.00551719 0.000249548 0.000722333
0.00554423 -9.34731e-05 -6.38916e-05
0.00562487 -0.000256322 -0.000442911
0.00565545 -0.000249701 -0.000453949
0.00590585 -0.000124512 -4.2885e-05
0.00597385 -0.000353265 -0.000588853
0.00596177 -0.000351311 -0.000587383
0.00607467 -0.000162321 -2.93301e-05
0.00560401 -0.000279211 0.000175584
0.00549765 -8.12313e-05 -6.13576e-05
0.00553046 -0.00010887 -0.00015783
0.00519095 -0.000265795 -0.000203155
0.0055333 -0.000111779 -4.57058e-05
0.00604333 -0.000203799 -1.6324e-05
0.00571021 0.000294741 0.000248498
0.00552574 -6.09898e-05 -5.84727e-05
0.00591253 -0.000125135 -4.10766e-05
0.00614644 -0.000179429 -2.56844e-05
0.00553881 -7.5499e-05 -5.56775e-05
0.0056534 -5.64406e-05 -0.000121696
0.00596365 -0.000350181 -0.000587486
0.00566465 -0.000254033 -0.000456333
0.00584855 -0.000288738 -0.000204681
0.00557805 0.000240688 0.000735457
0.00548379 0.000251139 0.000715838
0.00561888 -0.000226458 -0.000205798

VECTORS force float
-4.1425e-10 -2.02821e-10 1.17749e-10
1.31184e-10 8.15756e-11 8.05324e-11
1.99035e-10 -2.60321e-10 1.61875e-10
-3.85498e-11 -6.79178e-11 2.97899e-11
-1.36566e-12 4.61101e-11 -3.21356e-11
-3.71077e-10 2.6299e-10 -2.97418e-11
8.20551e-11 3.895e-10 -2.36552e-10
1.84746e-10 1.60225e-10 -1.02373e-10
-2.4081e-10 6.5705e-10 -2.8859e-10
-5.3865e-11 3.56676e-11 -1.44527e-11
2.67393e-11 1.26618e-11 1.44253e-11
3.09721e-10 -1.98339e-10 2.56631e-10
-8.02569e-11 1.99088e-11 -3.26166e-11
1.45764e-10 -7.28879e-11 2.05668e-11
2.25747e-10 -1.55618e-10 6.09617e-11
-9.80586e-11 -2.12527e-10 1.82305e-10
-3.93235e-10 -1.68493e-10 1.65927e-10
-1.66584e-10 3.03494e-10 -1.77395e-10
1.18414e-10 -1.58987e-10 5.12359e-11
6.44832e-11 1.46189e-10 -8.40641e-11
-2.4847e-10 2.59598e-10 -8.75459e-11
-6.23868e-11 -1.98633e-10 5.76835e-11
-7.61146e-11 -4.5853e-11 -5.07086e-12
4.47192e-10 -3.31427e-11 1.22218e-12
5.82416e-11 6.61608e-11 -1.81713e-11
3.99389e-10 1.36376e-10 -2.18147e-11
-3.77232e-10 2.8417e-10 2.18633e-11
-4.6629e-11 1.08968e-10 -1.37024e-10
5.9249e-12 8.53177e-11 -4.88131e-11
2.57513e-10 -6.50672e-11 4.38947e-10
1.57877e-10 -3.45114e-10 1.6712e-10
5.76895e-11 -1.04883e-10 -2.21022e-11
-5.39005e-12 -1.10015e-10 5.375e-11
-5.61477e-10 1.68393e-11 -4.54133e-11
1.01955e-10 4.13078e-12 2.93325e-11
-1.28129e-10 -2.02945e-10 -3.32282e-11
1.12522e-10 3.81882e-11 -7.30983e-11
1.08131e-10 -3.01997e-10 9.73661e-11
2.32681e-11 9.63371e-11 -6.09515e-11
-2.03579e-10 -8.18635e-11 3.81929e-10
1.88125e-10 1.10069e-10 -1.61056e-11
-1.86511e-10 3.95667e-11 -6.95112e-11
1.71451e-10 4.21623e-10 -2.38125e-10
1.71102e-10 2.71648e-10 1.41809e-11
8.86346e-12 1.59364e-11 5.13177e-11
9.92235e-11 -1.06234e-10 4.71444e-11
5.15091e-10 -6.25218e-10 -3.81101e-10
-4.67065e-11 2.38563e-11 2.94503e-12
6.82999e-11 9.05499e-10 -7.35918e-10
1.08428e-10 7.62499e-11 -1.1229e-12
1.31832e-24 -1.55096e-25 2.06795e-25
2.71e-10 -3.76198e-10 2.91512e-11
-2.51554e-10 -1.97535e-10 -1.47308e-10
-7.51275e-11 -2.51222e-10 9.54632e-11
1.87586e-10 -3.04679e-10 -8.52118e-11
-2.402e-10 -3.12626e-11 -2.99318e-11
-4.10167e-11 2.77976e-11 1.19259e-11
-3.11148e-10 4.93827e-11 -1.73311e-12
3.19307e-10 -1.5905e-10 3.39797e-10
1.91642e-10 -1.86062e-10 2.44369e-11
-3.25842e-11 2.30069e-10 2.19348e-11
2.04851e-10 -5.19347e-11 -7.66047e-11
-1.94057e-10 -9.22311e-11 -3.31798e-11
4.30249e-10 4.83505e-10 4.98043e-10
9.10576e-11 7.18226e-11 -7.75135e-11
1.10998e-10 1.46569e-10 1.81942e-10
-2.11017e-10 -7.09312e-11 4.57861e-12
-2.49245e-10 -2.64477e-10 -1.36578e-10
1.22573e-10 1.80394e-10 -2.32341e-10
-7.19277e-11 -3.19353e-11 2.17112e-11
-5.26245e-11 1.33431e-10 6.82627e-13
-2.95013e-10 1.41553e-10 -9.73785e-11
-8.26532e-11 6.4232e-12 -3.94426e-11
4.64915e-11 -6.6891e-11 -3.48951e-11
-1.94911e-10 3.23957e-10 -4.58356e-11
3.1565e-10 1.37565e-10 -5.0308e-11
2.89459e-10 2.31263e-10 -8.1464e-11
1.2605e-10 -2.40648e-10 1.05562e-10
4.25674e-11 -2.75205e-10 -1.03024e-10
4.93538e-10 -1.0054e-10 3.55711e-10
1.32747e-11 -5.05693e-11 1.57066e-11
1.18082e-10 2.54462e-10 1.827e-10
9.76954e-11 1.36839e-10 4.78192e-11
-9.86919e-11 -2.22611e-10 3.86719e-10
-4.42381e-10 -5.01616e-10 2.17816e-10
-1.14285e-10 -3.13276e-10 1.71056e-10
3.98433e-10 -9.68469e-11 5.5892e-10
1.88097e-10 4.28495e-10 6.36965e-11
-1.62485e-11 -4.02312e-11 3.43031e-11
-1.12651e-10 4.88666e-11 -5.49649e-11
1.81538e-10 -1.07899e-10 3.20786e-11
-1.71044e-21 3.24048e-22 4.63221e-23
0.0 0.0 0.0
6.26485e-11 -7.10015e-11 1.98182e-11