# vtk DataFile Version 3.0
LIGGGHTS particles timestep 36400000
ASCII
DATASET POLYDATA
POINTS 275 float
0.225568 0.0185126 0.0069596
0.225229 0.0173614 0.00725334
0.225385 0.0172469 0.00733091
0.224747 0.015653 0.00871464
0.231223 0.0173478 0.00734755
0.225522 0.0178676 0.00701043
0.225234 0.0170073 0.00754484
0.231418 0.0182672 0.0070083
0.224877 0.0160978 0.00833368
0.225413 0.0179395 0.0070689
0.219384 0.0168479 0.00749027
0.224725 0.0155789 0.00877814
0.219343 0.0174734 0.0071706
0.219619 0.0179122 0.00711667
0.224855 0.0160237 0.00839716
0.224703 0.0155048 0.00884163
0.225562 0.0180558 0.00696307
0.225191 0.016858 0.00767262
0.219602 0.0177164 0.00714373
0.23134 0.0178967 0.00713717
0.22492 0.0162461 0.00820667
0.231379 0.0180819 0.00707273
0.219194 0.016803 0.00754086
0.225306 0.0173088 0.00729203
0.224681 0.0154306 0.00890513
0.225007 0.0165426 0.00795274
0.225596 0.0178046 0.0070323
0.224942 0.0163202 0.00814319
0.231242 0.0174354 0.00730319
0.224834 0.0159496 0.00846065
0.225496 0.0176864 0.00708777
0.231477 0.0185449 0.00691169
0.225366 0.017172 0.00739459
0.225441 0.0175018 0.0071856
0.231359 0.0179893 0.00710495
0.22479 0.0158013 0.00858765
0.22548 0.0172736 0.00731495
0.225538 0.0175311 0.00717311
0.231261 0.0175262 0.00726605
0.224812 0.0158754 0.00852416
0.22542 0.018273 0.00696672
0.231437 0.0183598 0.00697608
0.224964 0.0163943 0.00807972
0.225616 0.0178918 0.0069875
0.219439 0.0170756 0.00730302
0.231301 0.0177114 0.00720161
0.225751 0.0181193 0.00695565
0.219361 0.0171316 0.00725751
0.225732 0.0180213 0.00695708
0.231281 0.0176188 0.00723383
0.378022 0.019866 0.005332
0.225557 0.0176183 0.00712822
0.224768 0.0157272 0.00865114
0.225461 0.0175873 0.00713775
0.22544 0.018371 0.0069653
0.23132 0.0178041 0.00716939
0.219398 0.0173138 0.00720625
0.219524 0.0176144 0.00723044
0.225581 0.0181538 0.00696165
0.225362 0.0175625 0.00714383
0.225657 0.0180875 0.00695936
0.231398 0.0181746 0.00704051
0.219715 0.0179398 0.00711639
0.225622 0.0183496 0.00695878
0.224899 0.016172 0.00827016
0.224989 0.0164678 0.00801645
0.219307 0.0169018 0.00745123
0.225248 0.0174433 0.00719879
0.21867 0.0153301 0.00887302
0.219693 0.0181982 0.00707901
0.225324 0.0173879 0.0072336
0.219401 0.0176269 0.00723182
0.219402 0.016923 0.00742689
0.231457 0.0184524 0.00694387
0.219843 0.0180679 0.00710308
0.225517 0.0174441 0.00721764
0.225288 0.0172323 0.0073539
0.225426 0.0178316 0.00700575
0.225411 0.0177601 0.00714927
0.225602 0.0182517 0.00696022
0.219366 0.0167728 0.00755365
0.225343 0.0178786 0.00697491
0.225074 0.0167643 0.00776261
0.225424 0.0180381 0.00705677
0.225309 0.0177057 0.00716402
0.225325 0.0178017 0.00704668
0.218778 0.0156616 0.00851478
0.225057 0.0166905 0.00782785
0.219326 0.0178295 0.00711733
0.225543 0.0179581 0.00697337
0.219346 0.0179268 0.0071043
0.0643568 0.0187248 0.00531097
0.24257 0.0191927 0.00520306
0.219635 0.0180101 0.00710343
0.218735 0.015529 0.00865807
0.21938 0.01753 0.00724522
0.218692 0.0153964 0.00880136
0.225676 0.0181855 0.00695794
0.225652 0.0176482 0.00711923
0.225212 0.0172862 0.00731726
0.225176 0.0171363 0.00744476
0.218822 0.01581 0.0083879
0.219248 0.0174404 0.00716944
0.219287 0.017635 0.00714338
0.225497 0.0173569 0.00726247
0.225504 0.0182186 0.00696403
0.225501 0.0177748 0.00704128
0.219472 0.0172467 0.00720529
0.225697 0.0182834 0.0069565
0.225213 0.0169329 0.00760842
0.22559 0.0186102 0.00695811
0.225305 0.0177052 0.00706408
0.219749 0.0180332 0.00710446
0.225094 0.0168388 0.00769898
0.225407 0.0177443 0.00705061
0.218757 0.0155953 0.00858643
0.225029 0.0166167 0.00788925
0.225396 0.0178464 0.00710124
0.219382 0.0176675 0.00714235
0.219401 0.0177647 0.00712933
0.225402 0.0173259 0.00727221
0.225524 0.0183166 0.0069626
0.225484 0.018119 0.00696547
0.225637 0.0179885 0.00696078
0.219344 0.0170524 0.00732415
0.22532 0.0178042 0.00715148
0.225382 0.0180762 0.00696953
0.225267 0.017531 0.00715461
0.219193 0.0164513 0.00783154
0.219592 0.0176178 0.00715729
0.218714 0.0154627 0.00872985
0.219513 0.0174408 0.00717937
0.218865 0.0159589 0.00826173
0.219362 0.0175703 0.00715537
0.219213 0.016526 0.00776836
0.225137 0.016987 0.00757209
0.219705 0.0182966 0.00706552
0.219502 0.018196 0.00707209
0.219233 0.0166009 0.00770508
0.218844 0.0158845 0.00832487
0.218887 0.0160334 0.00819864
0.219171 0.0163768 0.00789466
0.0219312 0.0187687 0.00551176
0.219271 0.0167509 0.00757842
0.22542 0.0174133 0.00722707
0.219365 0.018024 0.00709128
0.219342 0.0177869 0.00720645
0.218952 0.0162569 0.00800938
0.21961 0.0182532 0.00706811
0.225401 0.0181748 0.00696812
0.219469 0.0184948 0.0070286
0.219785 0.0182379 0.00707685
0.219632 0.0183646 0.00705318
0.219546 0.0184143 0.0070429
0.225644 0.0184472 0.00695729
0.219229 0.0173485 0.00720393
0.225531 0.0181693 0.00704673
0.218996 0.0164058 0.00788321
0.219282 0.0171844 0.00721954
0.218984 0.0160544 0.00817438
0.219259 0.0175053 0.00725063
0.219386 0.0181163 0.00712387
0.225665 0.0185449 0.0069558
0.219305 0.0175959 0.00723357
0.225437 0.0181373 0.00705374
0.219532 0.0175381 0.00716632
0.219814 0.0179579 0.00711753
0.225546 0.0184148 0.0069611
0.225401 0.0176594 0.00710315
0.225505 0.0186638 0.00696083
0.213433 0.0183294 0.00691794
0.225158 0.0170618 0.00750898
0.219268 0.0175377 0.00715641
0.225718 0.018381 0.00695501
0.21942 0.0177241 0.00721876
0.219536 0.0179952 0.00710181
0.219499 0.0178004 0.00712798
0.213124 0.0168981 0.00749637
0.219421 0.0169981 0.00736353
0.219297 0.0176951 0.00722267
0.2188 0.0157355 0.00845105
0.21959 0.0181505 0.00708187
0.219289 0.0168265 0.00751471
0.225465 0.0180208 0.0069673
0.219598 0.0178153 0.00712959
0.219137 0.0165781 0.00773079
0.219176 0.016728 0.0076042
0.21905 0.0162783 0.00798469
0.219459 0.0171609 0.00725489
0.219377 0.0172158 0.00720609
0.225252 0.0170822 0.0074811
0.22527 0.0171571 0.00741737
0.219676 0.0181005 0.00709218
0.225483 0.0185662 0.00696232
0.225343 0.0174752 0.00718869
0.213335 0.0178549 0.00703631
0.219028 0.0162039 0.00804777
0.22574 0.0184786 0.00695352
0.219307 0.0177323 0.00713035
0.225116 0.0169156 0.0076389
0.219421 0.0178619 0.00711631
0.225591 0.0177162 0.00707878
0.219212 0.0168783 0.00747743
0.225194 0.0172112 0.00738102
0.219335 0.0174338 0.00726211
0.213354 0.0179485 0.00700704
0.213295 0.0176677 0.00709486
0.21977 0.0181359 0.00709073
0.219117 0.0168545 0.00750389
0.219368 0.0179843 0.00718298
0.219449 0.0184026 0.00706162
0.225379 0.0176439 0.00719941
0.219079 0.0167045 0.00763053
0.219172 0.0170802 0.00731408
0.21919 0.0171601 0.00725674
0.213026 0.0165322 0.00782255
0.213087 0.0167516 0.00762717
0.213004 0.0164593 0.00788737
0.219228 0.0163114 0.00794465
0.219479 0.0177033 0.00714096
0.213047 0.0166052 0.00775772
0.213221 0.0172926 0.0072121
0.219017 0.0164803 0.00782012
0.219324 0.0173758 0.00718143
0.213161 0.0170447 0.00736545
0.219093 0.0164274 0.00785844
0.225446 0.017922 0.00696826
0.213237 0.017387 0.00718268
0.213413 0.0182323 0.0069323
0.213179 0.017118 0.0072997
0.218649 0.0152637 0.00894472
0.219694 0.0178429 0.00712931
0.219252 0.0166759 0.00764178
0.219301 0.0172793 0.00719422
0.213256 0.0174805 0.00715341
0.219526 0.0183053 0.00705755
0.219268 0.0171054 0.00728587
0.219209 0.0172526 0.00722405
0.213144 0.0169713 0.00743102
0.218909 0.0161079 0.00813555
0.213454 0.0184255 0.00693561
0.21944 0.0179591 0.00710329
0.219115 0.0165022 0.00779511
0.219494 0.0173435 0.00719241
0.21946 0.0176061 0.00715398
0.225286 0.0176178 0.00710905
0.219407 0.0182109 0.0070992
0.213315 0.0177613 0.00706559
0.219156 0.016653 0.00766751
0.213276 0.0175741 0.00712414
0.218974 0.0163313 0.0079463
0.219071 0.0163529 0.00792154
0.219039 0.0165549 0.00775701
0.219418 0.0174082 0.00718041
0.213429 0.0178846 0.00702414
0.213374 0.018042 0.00697777
0.219462 0.0180606 0.00708983
0.213067 0.0166784 0.0076925
0.219135 0.0169297 0.00744048
0.21923 0.0169535 0.00741398
0.21893 0.0161824 0.00807247
0.219098 0.0167794 0.00756723
0.21952 0.0178973 0.00711505
0.219005 0.0161289 0.00811129
0.219326 0.0169768 0.0073879
0.219438 0.0175055 0.00716737
0.219427 0.018306 0.00707664
0.219249 0.0170286 0.00735062
0.219153 0.0170049 0.00737705
0.213394 0.0181356 0.0069485
0.219059 0.0166296 0.00769381
0.225462 0.0184686 0.00696381
0.213106 0.0168248 0.00756193
0.213198 0.0172054 0.00725519
0.225362 0.0179766 0.00697095

VERTICES 275 550
1 0
1 1
1 2
1 3
1 4
1 5
1 6
1 7
1 8
1 9
1 10
1 11
1 12
1 13
1 14
1 15
1 16
1 17
1 18
1 19
1 20
1 21
1 22
1 23
1 24
1 25
1 26
1 27
1 28
1 29
1 30
1 31
1 32
1 33
1 34
1 35
1 36
1 37
1 38
1 39
1 40
1 41
1 42
1 43
1 44
1 45
1 46
1 47
1 48
1 49
1 50
1 51
1 52
1 53
1 54
1 55
1 56
1 57
1 58
1 59
1 60
1 61
1 62
1 63
1 64
1 65
1 66
1 67
1 68
1 69
1 70
1 71
1 72
1 73
1 74
1 75
1 76
1 77
1 78
1 79
1 80
1 81
1 82
1 83
1 84
1 85
1 86
1 87
1 88
1 89
1 90
1 91
1 92
1 93
1 94
1 95
1 96
1 97
1 98
1 99
1 100
1 101
1 102
1 103
1 104
1 105
1 106
1 107
1 108
1 109
1 110
1 111
1 112
1 113
1 114
1 115
1 116
1 117
1 118
1 119
1 120
1 121
1 122
1 123
1 124
1 125
1 126
1 127
1 128
1 129
1 130
1 131
1 132
1 133
1 134
1 135
1 136
1 137
1 138
1 139
1 140
1 141
1 142
1 143
1 144
1 145
1 146
1 147
1 148
1 149
1 150
1 151
1 152
1 153
1 154
1 155
1 156
1 157
1 158
1 159
1 160
1 161
1 162
1 163
1 164
1 165
1 166
1 167
1 168
1 169
1 170
1 171
1 172
1 173
1 174
1 175
1 176
1 177
1 178
1 179
1 180
1 181
1 182
1 183
1 184
1 185
1 186
1 187
1 188
1 189
1 190
1 191
1 192
1 193
1 194
1 195
1 196
1 197
1 198
1 199
1 200
1 201
1 202
1 203
1 204
1 205
1 206
1 207
1 208
1 209
1 210
1 211
1 212
1 213
1 214
1 215
1 216
1 217
1 218
1 219
1 220
1 221
1 222
1 223
1 224
1 225
1 226
1 227
1 228
1 229
1 230
1 231
1 232
1 233
1 234
1 235
1 236
1 237
1 238
1 239
1 240
1 241
1 242
1 243
1 244
1 245
1 246
1 247
1 248
1 249
1 250
1 251
1 252
1 253
1 254
1 255
1 256
1 257
1 258
1 259
1 260
1 261
1 262
1 263
1 264
1 265
1 266
1 267
1 268
1 269
1 270
1 271
1 272
1 273
1 274

POINT_DATA 275
SCALARS id int 1
LOOKUP_TABLE default
1
2
4
5
6
7
8
9
10
11
12
13
14
16
17
19
21
22
23
24
25
26
27
28
29
30
31
32
33
34
35
36
37
38
39
41
42
44
45
47
48
49
50
51
52
53
54
55
56
57
59
60
61
62
63
64
65
66
67
68
69
70
71
72
73
74
76
77
78
79
80
82
83
84
85
86
87
88
89
90
91
92
93
94
95
96
97
98
99
100
101
102
103
104
105
106
107
108
109
110
111
112
113
114
115
116
117
118
119
120
121
122
123
124
125
127
128
129
130
131
132
133
134
135
136
137
138
140
141
142
143
144
146
147
148
149
150
151
153
154
155
156
157
158
159
160
162
164
165
166
167
168
169
170
171
172
173
174
176
177
178
179
182
183
184
185
186
187
188
189
190
191
192
193
194
195
196
197
198
199
200
201
202
203
204
205
206
207
208
209
210
211
212
213
214
215
216
217
218
219
220
222
224
225
226
227
228
229
230
232
233
234
235
236
237
239
240
241
242
243
244
246
247
248
249
250
251
252
253
254
255
256
257
258
259
260
261
262
263
264
265
266
267
268
269
270
271
272
273
274
275
276
277
278
279
280
281
283
284
285
286
287
288
289
290
291
292
293
294
295
296
297
298
299
300

SCALARS type int 1
LOOKUP_TABLE default
1
1
1
1
1
1
1
1
1
1
1
1
1
1
1
1
1
1
1
1
1
1
1
1
1
1
1
1
1
1
1
1
1
1
1
1
1
1
1
1
1
1
1
1
1
1
1
1
1
1
1
1
1
1
1
1
1
1
1
1
1
1
1
1
1
1
1
1
1
1
1
1
1
1
1
1
1
1
1
1
1
1
1
1
1
1
1
1
1
1
1
1
1
1
1
1
1
1
1
1
1
1
1
1
1
1
1
1
1
1
1
1
1
1
1
1
1
1
1
1
1
1
1
1
1
1
1
1
1
1
1
1
1
1
1
1
1
1
1
1
1
1
1
1
1
1
1
1
1
1
1
1
1
1
1
1
1
1
1
1
1
1
1
1
1
1
1
1
1
1
1
1
1
1
1
1
1
1
1
1
1
1
1
1
1
1
1
1
1
1
1
1
1
1
1
1
1
1
1
1
1
1
1
1
1
1
1
1
1
1
1
1
1
1
1
1
1
1
1
1
1
1
1
1
1
1
1
1
1
1
1
1
1
1
1
1
1
1
1
1
1
1
1
1
1
1
1
1
1
1
1
1
1
1
1
1
1
1
1
1
1
1
1
1
1
1
1
1
1
1
1
1
1
1
1

SCALARS radius float 1
LOOKUP_TABLE default
5e-05
5e-05
5e-05
5e-05
5e-05
5e-05
5e-05
5e-05
5e-05
5e-05
5e-05
5e-05
5e-05
5e-05
5e-05
5e-05
5e-05
5e-05
5e-05
5e-05
5e-05
5e-05
5e-05
5e-05
5e-05
5e-05
5e-05
5e-05
5e-05
5e-05
5e-05
5e-05
5e-05
5e-05
5e-05
5e-05
5e-05
5e-05
5e-05
5e-05
5e-05
5e-05
5e-05
5e-05
5e-05
5e-05
5e-05
5e-05
5e-05
5e-05
5e-05
5e-05
5e-05
5e-05
5e-05
5e-05
5e-05
5e-05
5e-05
5e-05
5e-05
5e-05
5e-05
5e-05
5e-05
5e-05
5e-05
5e-05
5e-05
5e-05
5e-05
5e-05
5e-05
5e-05
5e-05
5e-05
5e-05
5e-05
5e-05
5e-05
5e-05
5e-05
5e-05
5e-05
5e-05
5e-05
5e-05
5e-05
5e-05
5e-05
5e-05
5e-05
5e-05
5e-05
5e-05
5e-05
5e-05
5e-05
5e-05
5e-05
5e-05
5e-05
5e-05
5e-05
5e-05
5e-05
5e-05
5e-05
5e-05
5e-05
5e-05
5e-05
5e-05
5e-05
5e-05
5e-05
5e-05
5e-05
5e-05
5e-05
5e-05
5e-05
5e-05
5e-05
5e-05
5e-05
5e-05
5e-05
5e-05
5e-05
5e-05
5e-05
5e-05
5e-05
5e-05
5e-05
5e-05
5e-05
5e-05
5e-05
5e-05
5e-05
5e-05
5e-05
5e-05
5e-05
5e-05
5e-05
5e-05
5e-05
5e-05
5e-05
5e-05
5e-05
5e-05
5e-05
5e-05
5e-05
5e-05
5e-05
5e-05
5e-05
5e-05
5e-05
5e-05
5e-05
5e-05
5e-05
5e-05
5e-05
5e-05
5e-05
5e-05
5e-05
5e-05
5e-05
5e-05
5e-05
5e-05
5e-05
5e-05
5e-05
5e-05
5e-05
5e-05
5e-05
5e-05
5e-05
5e-05
5e-05
5e-05
5e-05
5e-05
5e-05
5e-05
5e-05
5e-05
5e-05
5e-05
5e-05
5e-05
5e-05
5e-05
5e-05
5e-05
5e-05
5e-05
5e-05
5e-05
5e-05
5e-05
5e-05
5e-05
5e-05
5e-05
5e-05
5e-05
5e-05
5e-05
5e-05
5e-05
5e-05
5e-05
5e-05
5e-05
5e-05
5e-05
5e-05
5e-05
5e-05
5e-05
5e-05
5e-05
5e-05
5e-05
5e-05
5e-05
5e-05
5e-05
5e-05
5e-05
5e-05
5e-05
5e-05
5e-05
5e-05
5e-05
5e-05
5e-05
5e-05
5e-05
5e-05
5e-05
5e-05
5e-05
5e-05
5e-05
5e-05
5e-05
5e-05
5e-05
5e-05
5e-05
5e-05
5e-05
5e-05
5e-05
5e-05
5e-05
5e-05
5e-05
5e-05
5e-05
5e-05
5e-05

SCALARS mass float 1
LOOKUP_TABLE default
1.46608e-10
1.46608e-10
1.46608e-10
1.46608e-10
1.46608e-10
1.46608e-10
1.46608e-10
1.46608e-10
1.46608e-10
1.46608e-10
1.46608e-10
1.46608e-10
1.46608e-10
1.46608e-10
1.46608e-10
1.46608e-10
1.46608e-10
1.46608e-10
1.46608e-10
1.46608e-10
1.46608e-10
1.46608e-10
1.46608e-10
1.46608e-10
1.46608e-10
1.46608e-10
1.46608e-10
1.46608e-10
1.46608e-10
1.46608e-10
1.46608e-10
1.46608e-10
1.46608e-10
1.46608e-10
1.46608e-10
1.46608e-10
1.46608e-10
1.46608e-10
1.46608e-10
1.46608e-10
1.46608e-10
1.46608e-10
1.46608e-10
1.46608e-10
1.46608e-10
1.46608e-10
1.46608e-10
1.46608e-10
1.46608e-10
1.46608e-10
1.46608e-10
1.46608e-10
1.46608e-10
1.46608e-10
1.46608e-10
1.46608e-10
1.46608e-10
1.46608e-10
1.46608e-10
1.46608e-10
1.46608e-10
1.46608e-10
1.46608e-10
1.46608e-10
1.46608e-10
1.46608e-10
1.46608e-10
1.46608e-10
1.46608e-10
1.46608e-10
1.46608e-10
1.46608e-10
1.46608e-10
1.46608e-10
1.46608e-10
1.46608e-10
1.46608e-10
1.46608e-10
1.46608e-10
1.46608e-10
1.46608e-10
1.46608e-10
1.46608e-10
1.46608e-10
1.46608e-10
1.46608e-10
1.46608e-10
1.46608e-10
1.46608e-10
1.46608e-10
1.46608e-10
1.46608e-10
1.46608e-10
1.46608e-10
1.46608e-10
1.46608e-10
1.46608e-10
1.46608e-10
1.46608e-10
1.46608e-10
1.46608e-10
1.46608e-10
1.46608e-10
1.46608e-10
1.46608e-10
1.46608e-10
1.46608e-10
1.46608e-10
1.46608e-10
1.46608e-10
1.46608e-10
1.46608e-10
1.46608e-10
1.46608e-10
1.46608e-10
1.46608e-10
1.46608e-10
1.46608e-10
1.46608e-10
1.46608e-10
1.46608e-10
1.46608e-10
1.46608e-10
1.46608e-10
1.46608e-10
1.46608e-10
1.46608e-10
1.46608e-10
1.46608e-10
1.46608e-10
1.46608e-10
1.46608e-10
1.46608e-10
1.46608e-10
1.46608e-10
1.46608e-10
1.46608e-10
1.46608e-10
1.46608e-10
1.46608e-10
1.46608e-10
1.46608e-10
1.46608e-10
1.46608e-10
1.46608e-10
1.46608e-10
1.46608e-10
1.46608e-10
1.46608e-10
1.46608e-10
1.46608e-10
1.46608e-10
1.46608e-10
1.46608e-10
1.46608e-10
1.46608e-10
1.46608e-10
1.46608e-10
1.46608e-10
1.46608e-10
1.46608e-10
1.46608e-10
1.46608e-10
1.46608e-10
1.46608e-10
1.46608e-10
1.46608e-10
1.46608e-10
1.46608e-10
1.46608e-10
1.46608e-10
1.46608e-10
1.46608e-10
1.46608e-10
1.46608e-10
1.46608e-10
1.46608e-10
1.46608e-10
1.46608e-10
1.46608e-10
1.46608e-10
1.46608e-10
1.46608e-10
1.46608e-10
1.46608e-10
1.46608e-10
1.46608e-10
1.46608e-10
1.46608e-10
1.46608e-10
1.46608e-10
1.46608e-10
1.46608e-10
1.46608e-10
1.46608e-10
1.46608e-10
1.46608e-10
1.46608e-10
1.46608e-10
1.46608e-10
1.46608e-10
1.46608e-10
1.46608e-10
1.46608e-10
1.46608e-10
1.46608e-10
1.46608e-10
1.46608e-10
1.46608e-10
1.46608e-10
1.46608e-10
1.46608e-10
1.46608e-10
1.46608e-10
1.46608e-10
1.46608e-10
1.46608e-10
1.46608e-10
1.46608e-10
1.46608e-10
1.46608e-10
1.46608e-10
1.46608e-10
1.46608e-10
1.46608e-10
1.46608e-10
1.46608e-10
1.46608e-10
1.46608e-10
1.46608e-10
1.46608e-10
1.46608e-10
1.46608e-10
1.46608e-10
1.46608e-10
1.46608e-10
1.46608e-10
1.46608e-10
1.46608e-10
1.46608e-10
1.46608e-10
1.46608e-10
1.46608e-10
1.46608e-10
1.46608e-10
1.46608e-10
1.46608e-10
1.46608e-10
1.46608e-10
1.46608e-10
1.46608e-10
1.46608e-10
1.46608e-10
1.46608e-10
1.46608e-10
1.46608e-10
1.46608e-10
1.46608e-10
1.46608e-10
1.46608e-10
1.46608e-10
1.46608e-10
1.46608e-10
1.46608e-10
1.46608e-10
1.46608e-10
1.46608e-10
1.46608e-10
1.46608e-10
1.46608e-10
1.46608e-10
1.46608e-10
1.46608e-10
1.46608e-10
1.46608e-10

VECTORS velocity float
0.00610603 -1.10154e-05 -0.000223979
0.00549356 -0.000207146 -0.000380834
0.0055523 -7.80477e-05 -0.00029759
0.00586934 -0.00042828 -0.000286337
0.00529455 -0.000522254 -7.57782e-05
0.00573121 0.000186054 0.000141158
0.00559661 -0.00016034 -0.000477133
0.00546744 -0.000448707 0.000255457
0.00587916 -0.000342657 -0.000358063
0.00593182 0.000181498 2.34477e-05
0.00554664 -0.000459013 -1.6271e-05
0.00586541 -0.00045157 -0.000266728
0.00549874 -0.000297579 0.000248534
0.00560207 -0.000292581 0.000252251
0.00587898 -0.000351973 -0.000350546
0.00586178 -0.000473227 -0.000248494
0.00581267 9.00244e-05 -0.000215927
0.00574444 -3.59436e-05 -0.000601713
0.00543218 -0.000274266 0.00024414
0.0054249 -0.000423941 0.000245416
0.00587695 -0.000319545 -0.000377147
0.00544823 -0.000436545 0.000250537
0.00552978 -0.000450275 -2.28136e-05
0.00545106 0.000299262 0.000145197
0.00585998 -0.000488965 -0.000235315
0.00587947 -0.000240584 -0.000440637
0.00573381 0.000217571 0.000295768
0.00585367 -0.000297598 -0.000392604
0.00531986 -0.000527539 -7.44779e-05
0.00587816 -0.00036158 -0.000342268
0.00564044 0.000241439 0.000277714
0.00603638 -0.000600924 0.000318628
0.00565496 -0.000238337 -0.000416605
0.00551531 0.000279802 0.000251531
0.0054349 -0.000428363 0.000247368
0.00587587 -0.000387949 -0.000320326
0.00555912 -0.00106215 -0.00176671
0.00555095 0.000239634 0.000267047
0.00537592 -0.000411344 0.000240355
0.00587692 -0.000373057 -0.000332803
0.00564117 5.6979e-05 -0.000202468
0.00547987 -0.000462796 0.000259943
0.00584779 -0.000277088 -0.000408804
0.00578136 0.000219471 0.000305209
0.00554141 -0.000392652 6.91142e-05
0.00539936 -0.000418597 0.00024297
0.00588416 -0.000108723 -0.000218365
0.00556131 -0.000463181 -2.33316e-05
0.005787 -0.000102239 -0.000206877
0.00538838 -0.000414625 0.000241509
-5.01935e-15 -7.41201e-15 7.69803e-14
0.00560928 0.000226612 0.000283607
0.00587303 -0.000406461 -0.000304766
0.00556683 0.000266661 0.000265175
0.00607602 -4.19083e-05 -0.00022235
0.00541203 -0.000421579 0.000244913
0.00549867 -0.000301544 0.000251072
0.00538734 -0.000259022 0.00019772
0.0059178 8.59796e-05 -0.000214987
0.00559481 0.000340977 0.000216386
0.00585914 -1.2926e-05 -0.000216343
0.00545621 -0.000447959 0.000253976
0.00561288 -0.000342513 0.000260188
0.00616312 7.90543e-05 -0.000227552
0.00588179 -0.000332528 -0.000366838
0.00586757 -0.000260795 -0.000424134
0.00557903 -0.000454559 -2.27075e-05
0.00559661 0.000313893 0.000234721
0.00585587 0.000259345 0.00104187
0.00591186 -0.000393742 0.000279047
0.00549902 0.000360969 0.000241046
0.00541229 -0.000357266 0.000244697
0.00555645 -0.000461285 -1.5862e-05
0.00598519 -0.000575758 0.0003083
0.00581344 -0.000453431 0.000283202
0.0054888 0.000251378 0.000256993
0.00556239 3.35548e-05 -0.000158191
0.00579062 0.000177614 0.000319968
0.00570616 0.00031013 0.000245354
0.00600174 8.37538e-05 -0.000221385
0.00552762 -0.000454232 -1.94511e-05
0.00568899 -2.68686e-05 0.000425693
0.00572846 -0.000125199 -0.000520909
0.00584144 0.00017037 -9.0677e-05
0.00562353 0.000323155 0.000235463
0.0057103 0.000304436 0.000182518
0.00554732 0.000498887 0.000828754
0.00576871 -0.000156743 -0.000509024
0.00549273 -0.000284814 0.000247127
0.00573581 9.63047e-05 -9.603e-05
0.00547299 -0.000311654 0.000249552
4.33406e-15 1.04427e-14 8.29638e-14
9.00258e-24 4.86658e-23 1.23839e-22
0.00575729 -0.000319156 0.000260956
0.00602413 0.000391985 0.000922562
0.00545196 -0.000366099 0.000230564
0.00606073 0.000345617 0.000976677
0.00594401 -1.70809e-05 -0.000218741
0.00569947 0.000228549 0.000287492
0.00551168 9.10833e-05 -0.000675149
0.00545271 1.3778e-05 -0.000617597
0.0060909 -0.000404646 -3.30719e-05
0.00551423 -0.000320495 0.000253219
0.00552446 -0.000295791 0.000251034
0.00536716 0.000263659 0.000251552
0.00562692 3.58905e-05 -0.000209042
0.00569289 0.000229835 0.000277946
0.00551576 -0.000287788 0.000248656
0.00603981 -4.1595e-05 -0.00022119
0.00562331 -0.00019738 -0.000452911
0.00613975 -1.18897e-05 -0.000225473
0.00567109 0.000328441 0.000233214
0.00581154 -0.000481721 0.000287456
0.00571588 -0.000108079 -0.00053436
0.00568323 0.000265258 0.000260042
0.00583738 0.000495891 0.000945643
0.0058256 -0.000195877 -0.000472843
0.00583261 0.000224472 7.05216e-05
0.00549485 -0.000304083 0.000250239
0.00548354 -0.000304679 0.000248615
0.00546834 0.000201743 6.42417e-05
0.00606184 -5.18641e-05 -0.000221393
0.00568689 8.37913e-05 -0.000203165
0.00575517 -1.21044e-06 -0.000188687
0.00557963 -0.000433217 -3.39939e-05
0.00559665 0.000256614 -0.000254996
0.00568906 6.08799e-05 -0.000207461
0.00562046 0.0003137 0.000199736
0.00584532 -0.000514625 7.85048e-06
0.00545595 -0.000280999 0.000246583
0.00584413 0.000408741 0.000905448
0.00550036 -0.000295531 0.000249197
0.00599637 -0.00045768 -0.000106205
0.00551124 -0.000303058 0.000250074
0.00561771 -0.000468976 -1.40067e-05
0.00572966 -9.26055e-05 -0.000550366
0.00592356 -0.000437986 0.000285324
0.00585489 -0.000390014 0.000276762
0.00552412 -0.000450659 -2.20331e-05
0.00608167 -0.000486973 -0.00012994
0.00599541 -0.000456059 -3.22491e-05
0.0059506 -0.000537313 1.88596e-05
-3.82839e-14 8.16654e-14 2.95894e-13
0.00552923 -0.000451909 -2.16375e-05
0.00549922 0.000291253 0.000255725
0.0054636 -0.000303673 0.00025025
0.00548839 -0.000283225 0.000248263
0.00595702 -0.00056072 3.88693e-05
0.00590413 -0.000388103 0.000276895
0.00565556 4.35653e-05 -0.000206322
0.00594642 -0.000424413 0.00028519
0.00592455 -0.000449422 0.000286515
0.00591384 -0.00044474 0.00028651
0.00591392 -0.000431675 0.00028476
0.00619376 7.67615e-05 -0.000227941
0.00552445 -0.000325546 0.000239877
0.00576439 -7.56023e-06 -0.000284131
0.00595017 -0.000535971 1.68666e-05
0.005458 -0.000366337 -8.6238e-05
0.005997 -0.000559569 3.29795e-05
0.00549891 -0.000320048 0.000254885
0.0058069 -0.00039159 0.000293683
0.00612895 -2.4949e-05 -0.000224865
0.00541839 -0.000400067 0.00023224
0.00573669 0.000168732 -0.000176193
0.00548498 -0.00029893 0.000249219
0.00573036 -0.000572674 0.000296914
0.00619517 0.000117157 -0.000227788
0.00561241 0.000293035 0.000274972
0.00612636 -2.19857e-05 -0.000225194
0.00560088 -3.99339e-05 0.000416309
0.00547688 -5.71229e-05 -0.0005707
0.00550011 -0.000319237 0.000253081
0.00605545 -4.4804e-05 -0.000222135
0.00537769 -0.000356472 0.000236307
0.00576553 -0.000446828 0.00028005
0.00546864 -0.000378872 0.000260821
0.005621 0.000286972 0.00042781
0.00554635 -0.000457943 -1.66427e-05
0.00547805 -0.000303255 0.000253892
0.00586143 -4.33552e-05 0.00030346
0.00587958 -0.000359251 0.000272311
0.00554103 -0.000454074 -2.06339e-05
0.00570584 7.45317e-05 -0.000165917
0.00548173 -0.000267944 0.000244857
0.00561122 -0.000452157 -2.70134e-05
0.00552275 -0.000444333 -2.73002e-05
0.00595884 -0.000538942 1.97318e-05
0.00551338 -0.000286773 0.000247797
0.00551649 -0.000289302 0.000248377
0.00554594 -0.00014569 -0.000494773
0.00558824 -0.000116808 -0.00042068
0.00587569 -0.000377397 0.000274655
0.00609417 -3.80321e-05 -0.000222839
0.00561503 0.000326863 0.000227869
0.00563159 -0.000141602 -0.000141023
0.00596878 -0.000544932 2.52392e-05
0.00610057 -5.5937e-05 -0.000223667
0.00550558 -0.000304079 0.000250855
0.0057193 -9.353e-05 -0.000550712
0.00547564 -0.000304093 0.000249078
0.00567059 0.000212368 0.000292779
0.00554187 -0.00045378 -2.09245e-05
0.00538165 3.45913e-05 -0.000630609
0.0054426 -0.00028408 0.000248174
0.00563655 -0.000145663 -0.000138877
0.00561102 -0.00011964 -0.000145688
0.00587975 -0.000407262 0.000279112
0.0055374 -0.000441929 -3.02941e-05
0.00546426 -0.00030955 0.000248971
0.0059032 -0.000413771 0.000277617
0.00559667 0.000312358 0.000286381
0.00550765 -0.000434946 -3.35608e-05
0.00556678 -0.000442296 -1.5404e-05
0.00553647 -0.000388233 6.03494e-05
0.00596263 0.000391206 0.00036604
0.0057567 0.000320099 0.000414302
0.0059973 0.000419987 0.000347262
0.0059373 -0.000544894 2.62063e-05
0.00541268 -0.000356374 0.000257708
0.00579141 0.000365654 0.000371648
0.00556863 -0.000111142 -0.000192143
0.00595695 -0.000527998 1.17706e-05
0.00549902 -0.000296344 0.000248737
0.00561674 0.000240325 0.000470651
0.00595694 -0.000527628 1.02194e-05
0.00569419 -6.80045e-05 -0.000211465
0.00558862 -0.000105552 -0.000154969
0.00558361 -9.13762e-05 7.00293e-05
0.00559136 0.000239311 0.000468802
0.00539759 0.0001692 0.00102437
0.00550096 -0.0003193 0.000252452
0.00554186 -0.000454083 -2.05921e-05
0.00551099 -0.000292809 0.000249875
0.00561861 -0.000110844 -0.000153778
0.0058792 -0.000411428 0.000278759
0.00555632 -0.000430369 -1.96936e-05
0.00551448 -0.000330458 0.000218023
0.00562057 0.00025235 0.000452293
0.0059847 -0.000523593 1.60459e-05
0.0061435 -0.000161259 0.00043296
0.0054683 -0.000302678 0.000248672
0.00598916 -0.000380156 -0.000113903
0.00550882 -0.000291219 0.000249485
0.00544714 -0.000351751 0.000253953
0.00561766 0.000338515 0.000221444
0.00584384 -0.00040271 0.000279049
0.00561933 -0.000134064 -0.000141172
0.00555067 -0.000444927 -2.90749e-05
0.00563317 -0.000116393 -0.0001504
0.00595044 -0.000548139 2.83472e-05
0.00595617 -0.000527452 1.07366e-05
0.00584533 -0.000501899 -2.62269e-06
0.00549466 -0.000304508 0.000249993
0.00563369 -0.000146559 -0.000139887
0.00563953 -0.000144298 -0.000133944
0.00579069 -0.00041312 0.000278333
0.00562729 0.00034408 0.000372656
0.00555499 -0.00044532 -2.87516e-05
0.0055735 -0.000454304 -2.32525e-05
0.00596037 -0.000562868 3.24351e-05
0.00552535 -0.000439229 -3.15697e-05
0.00562026 -0.000419373 0.000270451
0.00596573 -0.000562472 3.68119e-05
0.00555096 -0.000454907 -2.09787e-05
0.00549715 -0.000310342 0.000250555
0.00587413 -0.000410602 0.000274868
0.00556392 -0.000446167 -2.66282e-05
0.00557069 -0.00044975 -2.72844e-05
0.00564139 -0.000140906 -0.000130294
0.00561113 -0.000454921 -2.54754e-05
0.00609714 -3.92661e-05 -0.00022293
0.00572721 0.0003002 0.000429159
0.00566024 -0.000123414 -0.000183437
0.00569064 -6.11132e-05 -0.000210458

VECTORS force float
2.43895e-10 2.09984e-11 -7.28302e-12
5.98171e-10 -9.4447e-10 -3.66898e-10
1.91355e-11 1.23094e-10 -1.72936e-10
-2.42283e-11 -8.80016e-11 7.47166e-11
-6.18055e-12 -3.0204e-12 -3.23921e-12
5.28602e-12 -1.48493e-11 2.57165e-10
-4.09895e-10 -3.24477e-10 1.72169e-10
1.20074e-11 4.37149e-11 -7.37115e-12
5.41897e-11 2.72557e-10 -2.2764e-10
-8.34094e-11 -1.53085e-10 -1.72471e-10
5.1443e-11 3.8945e-11 -3.90157e-11
-3.21223e-11 -1.10084e-10 9.45988e-11
5.9801e-11 -1.74176e-10 3.91174e-11
-2.74432e-10 9.06438e-11 -4.7497e-11
4.91468e-11 2.03363e-10 -1.76517e-10
-3.32141e-11 -1.18712e-10 1.01467e-10
8.3039e-11 1.14878e-10 -1.11435e-10
-2.23468e-10 1.44853e-10 3.98195e-11
-1.02757e-10 -1.47663e-11 -4.23611e-12
-3.12882e-11 -2.66308e-11 1.85641e-11
9.78434e-11 3.65036e-10 -3.14807e-10
-1.85474e-11 -1.11166e-10 5.07107e-11
2.7468e-11 -2.28238e-11 2.2793e-11
3.42411e-11 -1.28167e-10 -3.04892e-10
-3.37761e-11 -1.18933e-10 1.02394e-10
1.86789e-10 4.06075e-10 -3.53733e-10
6.79627e-11 -1.47921e-10 2.30411e-11
3.13384e-10 3.47373e-10 -3.22498e-10
4.2143e-12 8.8171e-12 -3.43657e-12
4.52726e-11 1.39465e-10 -1.21698e-10
-4.11296e-11 -1.58737e-10 1.90937e-10
-9.22767e-12 -4.48341e-11 1.55658e-11
-3.56118e-10 3.03542e-10 -2.1278e-10
2.31503e-10 -3.81738e-11 -3.83791e-11
-1.43439e-11 -8.25175e-11 1.84882e-11
-7.81332e-13 8.06933e-12 -7.86323e-12
-3.2871e-10 -5.23078e-10 -2.79558e-10
-3.43347e-10 -2.29177e-10 1.1138e-10
8.27522e-12 1.47635e-11 1.78084e-12
1.27612e-11 7.70876e-11 -6.47782e-11
-6.54413e-12 4.05409e-12 2.8407e-11
5.83314e-11 1.57247e-10 -6.32088e-11
5.2684e-10 3.03026e-10 -3.15825e-10
9.09127e-11 -9.80644e-11 7.52229e-11
-8.49139e-11 4.99898e-11 -2.81431e-11
3.4507e-12 1.41308e-11 9.94017e-12
-1.48222e-10 8.97658e-11 7.8415e-12
-1.48856e-10 1.70896e-11 -3.025e-11
2.80221e-10 7.46009e-12 2.50902e-10
3.97978e-12 1.27316e-11 -1.06862e-11
-3.47674e-24 1.96455e-24 0.0
-1.24067e-10 -1.90005e-10 1.10975e-10
-1.12428e-11 -4.76748e-11 4.0581e-11
1.80448e-11 9.73155e-12 -3.92578e-11
2.74564e-11 1.6523e-11 -1.02324e-11
4.5167e-12 -1.03098e-11 -1.31214e-11
1.10353e-10 -1.52697e-10 3.02028e-11
-1.67716e-10 -1.78892e-10 2.61814e-10
-8.75351e-11 3.49241e-10 -1.54845e-11
1.50103e-11 -2.90435e-10 1.15941e-10
6.43854e-11 2.01723e-10 -7.27462e-11
-9.83986e-12 -1.72066e-11 -4.2438e-12
-2.77099e-10 2.11102e-10 -4.04055e-11
4.94318e-10 2.41985e-10 -3.30471e-11
9.55696e-11 3.18833e-10 -2.84286e-10
3.0136e-10 3.75443e-10 -3.28255e-10
1.28091e-10 8.55953e-11 -8.59496e-11
-1.92456e-11 4.99724e-11 -5.32493e-11
-3.51979e-10 2.90367e-10 -3.75912e-10
2.78996e-11 5.78951e-11 -1.63612e-11
-9.58469e-11 1.39228e-10 -2.63619e-10
7.98112e-11 8.21302e-11 -3.68031e-11
-6.00092e-11 8.26447e-11 -8.67702e-11
-2.72612e-12 6.42696e-11 -1.79056e-11
-1.31834e-10 -1.41281e-10 1.05791e-11
-4.26256e-10 -2.34532e-10 2.76996e-10
-3.69414e-10 1.07867e-10 -1.2921e-10
-3.42827e-10 3.98096e-10 -2.02325e-10
1.00538e-10 -2.24908e-10 1.46509e-10
2.03602e-11 4.21484e-10 3.95314e-11
1.12332e-10 -7.50633e-12 1.33028e-12
1.40457e-11 3.03112e-10 -3.2268e-10
-1.8839e-10 3.04952e-10 -2.30003e-10
1.0741e-10 -2.02953e-11 -1.81192e-10
-2.40089e-10 -1.82044e-10 3.40743e-10
7.06529e-11 -1.72578e-10 -1.81358e-10
4.84328e-11 -1.62902e-09 -1.91036e-09
1.57017e-11 3.60297e-10 -2.86852e-10
-1.27992e-10 -3.32814e-10 4.7153e-11
1.25205e-10 -4.07262e-11 -5.15196e-11
-2.42338e-11 -6.04417e-11 5.73431e-12
-1.25055e-21 2.67593e-22 2.00591e-23
0.0 0.0 0.0
-2.00085e-10 1.2946e-10 -2.36463e-11
-1.07673e-10 -1.37098e-09 -6.3621e-10
1.87578e-10 8.18216e-11 9.0408e-11
1.66893e-10 4.67136e-10 -1.76614e-10