# vtk DataFile Version 3.0
LIGGGHTS particles timestep 54400000
ASCII
DATASET POLYDATA
POINTS 275 float
0.330445 0.0181076 0.00698803
0.330194 0.0174012 0.00754071
0.330291 0.0171449 0.00763553
0.329842 0.0161138 0.00832206
0.336191 0.0174273 0.00739003
0.330456 0.0177262 0.00723612
0.33015 0.01695 0.0077575
0.336401 0.0183261 0.00700526
0.330108 0.0167891 0.00786847
0.330428 0.0180244 0.00712193
0.324397 0.0170643 0.00740721
0.32982 0.0160334 0.00837755
0.324295 0.0173997 0.00719012
0.324505 0.0179476 0.00701492
0.329949 0.0165159 0.00804472
0.329799 0.0159529 0.00843304
0.330401 0.0179226 0.0070856
0.330389 0.0171604 0.00763816
0.324565 0.0177245 0.00706155
0.336322 0.0179657 0.00715974
0.330087 0.0167087 0.00792396
0.336362 0.0181458 0.00708279
0.324165 0.0169116 0.00752472
0.330119 0.0171597 0.00760053
0.329778 0.0158725 0.00848854
0.330033 0.0168377 0.0078227
0.330572 0.0178021 0.00719728
0.329969 0.0165964 0.00798915
0.336213 0.017517 0.00735165
0.329927 0.0164355 0.00810011
0.330405 0.017555 0.00735344
0.336454 0.0185956 0.00688482
0.330268 0.0170634 0.00769165
0.330357 0.0173872 0.00746875
0.336343 0.0180555 0.00712136
0.329884 0.0162746 0.0082111
0.330456 0.0174013 0.00747239
0.330505 0.0175614 0.00736279
0.336235 0.0176067 0.00731327
0.329906 0.0163551 0.0081556
0.330289 0.0178034 0.00715648
0.336419 0.0184159 0.00696515
0.329991 0.0166768 0.00793367
0.330541 0.0178768 0.00713859
0.324639 0.0176594 0.00707808
0.336278 0.0177862 0.00723651
0.330425 0.0184515 0.00690948
0.324325 0.0171772 0.00733665
0.330444 0.0185482 0.00689304
0.336256 0.0176965 0.00727489
0.378022 0.019866 0.005332
0.330528 0.0176416 0.00730784
0.329863 0.0161942 0.00826658
0.330381 0.0174694 0.0074122
0.330465 0.018197 0.00694772
0.3363 0.017876 0.00719813
0.324275 0.0173185 0.00724563
0.324636 0.0180523 0.00707831
0.330493 0.0179599 0.00707138
0.330256 0.0173522 0.00748002
0.330611 0.0180308 0.00703647
0.336382 0.018236 0.00704423
0.324675 0.0179834 0.00701674
0.330534 0.0185045 0.00689501
0.330433 0.0173211 0.00752742
0.330012 0.0167572 0.00787819
0.324186 0.0169922 0.00746948
0.330204 0.0174915 0.00749506
0.323741 0.0155749 0.00839641
0.3246 0.0184055 0.00695085
0.330214 0.0171913 0.007591
0.324492 0.0179157 0.00710885
0.324419 0.0171449 0.00735199
0.336436 0.0185058 0.00692498
0.324578 0.0182092 0.00696773
0.33048 0.0174815 0.00741739
0.330193 0.0171109 0.00764649
0.330385 0.0177559 0.00730038
0.330583 0.0182654 0.00693027
0.330514 0.0180403 0.00701582
0.324283 0.017016 0.0074471
0.33028 0.0177295 0.00731217
0.330672 0.0178104 0.00720526
0.330346 0.0180614 0.00707544
0.330406 0.0178394 0.00724925
0.330204 0.017491 0.00739506
0.323913 0.0159248 0.00815851
0.330645 0.0178865 0.00714616
0.324274 0.0177259 0.00705462
0.330471 0.0178072 0.00717932
0.324294 0.0178204 0.00702882
0.0643568 0.0187248 0.00531097
0.24257 0.0191927 0.00520306
0.324578 0.0180157 0.00700545
0.323893 0.0158413 0.00821004
0.324348 0.0178279 0.00711291
0.32376 0.0156461 0.00832902
0.330623 0.0184587 0.00689737
0.330636 0.0181108 0.00698182
0.330298 0.0174484 0.00752188
0.330076 0.0169985 0.00771174
0.323972 0.0157898 0.00824342
0.324196 0.0173718 0.00721533
0.324234 0.0175389 0.00711253
0.330334 0.0173069 0.00752383
0.330384 0.0178497 0.00715206
0.330428 0.017637 0.00729702
0.324375 0.0173121 0.00724325
0.330603 0.0183621 0.00691382
0.330247 0.0169826 0.0077474
0.330366 0.0181614 0.00695881
0.330183 0.0174013 0.00743386
0.324689 0.0180807 0.00699853
0.330411 0.0172408 0.00758265
0.330301 0.0175128 0.00736948
0.323932 0.0160083 0.00810698
0.330226 0.0169021 0.00780291
0.330463 0.0179342 0.00716331
0.324328 0.0175639 0.00708059
0.324349 0.01766 0.00706292
0.330312 0.0172254 0.00757994
0.330308 0.0178884 0.00709735
0.330369 0.0177612 0.00719846
0.33059 0.0179503 0.00709203
0.324304 0.0170966 0.00739188
0.330305 0.0178147 0.00725449
0.330246 0.0176405 0.0072689
0.33014 0.0172402 0.00754504
0.324153 0.0165316 0.00777914
0.324544 0.0176284 0.00707919
0.323779 0.0157296 0.00827747
0.324509 0.0174437 0.0071465
0.323818 0.0158967 0.00817435
0.324313 0.0174812 0.00713477
0.324175 0.0166122 0.00772392
0.330129 0.0168696 0.00781299
0.324423 0.0184222 0.00701275
0.324367 0.0180482 0.00698819
0.324196 0.0166928 0.0076687
0.323799 0.0158132 0.00822588
0.323837 0.0159802 0.0081228
0.324132 0.016451 0.00783437
0.0219312 0.0187687 0.00551176
0.324239 0.0168539 0.00755826
0.330235 0.0172717 0.00753548
0.324315 0.0179179 0.00702058
0.324537 0.0181666 0.00704831
0.323896 0.0162308 0.00796811
0.324462 0.0181367 0.00697584
0.330267 0.0177209 0.00721341
0.324376 0.0182113 0.00705245
0.324504 0.0184311 0.00695432
0.324382 0.0182437 0.00695807
0.324502 0.0183311 0.00695369
0.330491 0.0183044 0.00692917
0.324175 0.0172912 0.00727058
0.330561 0.0181713 0.00695518
0.32394 0.016397 0.00786557
0.324202 0.0172918 0.00736694
0.323952 0.0160917 0.00805551
0.324319 0.0177121 0.0071429
0.324444 0.0181406 0.0070741
0.330386 0.0182581 0.00694237
0.324387 0.0179221 0.00710072
0.330523 0.0181384 0.00704191
0.324525 0.0175346 0.0071082
0.324672 0.0181772 0.00697883
0.330415 0.0180105 0.00702366
0.33028 0.0174324 0.00742493
0.330346 0.0180637 0.00697547
0.318355 0.0181123 0.00699433
0.330055 0.0169181 0.00776722
0.324216 0.0174528 0.00716
0.330512 0.0184037 0.00691222
0.324523 0.0180124 0.00708883
0.324406 0.0179582 0.00700935
0.32447 0.0177541 0.00705086
0.318021 0.0166857 0.00762561
0.324483 0.0172799 0.00725757
0.324426 0.0180339 0.0070853
0.323874 0.0157578 0.00826158
0.324469 0.0180389 0.00699527
0.32426 0.0169347 0.00750288
0.330345 0.0176753 0.00725744
0.324587 0.0178205 0.00704396
0.3241 0.0166712 0.00769236
0.324143 0.016831 0.00757993
0.324014 0.0163413 0.00790147
0.3244 0.0172307 0.00729598
0.324254 0.0172378 0.0073009
0.330172 0.0170304 0.00770202
0.330097 0.0170789 0.00765626
0.324595 0.0181126 0.00698744
0.330325 0.0179699 0.00704052
0.330355 0.0176783 0.00735682
0.318259 0.0176639 0.00719348
0.323993 0.0162582 0.00795273
0.330405 0.0183548 0.00692593
0.324254 0.0176312 0.00707938
0.330367 0.0170801 0.00769337
0.324371 0.017758 0.00704494
0.330554 0.0177214 0.00725347
0.324068 0.0168884 0.00754665
0.330143 0.0171257 0.00773193
0.324415 0.0177469 0.00713384
0.318278 0.0177535 0.00715368
0.318215 0.0174853 0.00727237
0.324599 0.0183055 0.00695021
0.324094 0.0168916 0.00764322
0.324482 0.0182333 0.00695843
0.324352 0.0181007 0.00707197
0.330541 0.0180385 0.00711214
0.324026 0.0167283 0.00765857
0.324176 0.0172141 0.00742445
0.324132 0.0171306 0.00738175
0.317914 0.0162675 0.00786886
0.317977 0.0165071 0.00770449
0.317896 0.0162193 0.00795463
0.324494 0.017197 0.00731215
0.324449 0.017658 0.0070685
0.317935 0.0163448 0.00780907
0.318146 0.0171266 0.00743234
0.323961 0.0164801 0.00781431
0.324247 0.0174588 0.00725487
0.318064 0.0168631 0.00754721
0.324058 0.0165076 0.00779894
0.330322 0.017594 0.00731345
0.31815 0.0172175 0.00739069
0.318336 0.0180225 0.00703424
0.318086 0.0169524 0.00750777
0.32419 0.0169141 0.00762136
0.3246 0.017918 0.00702561
0.324218 0.0167734 0.00761347
0.324223 0.0173726 0.00731165
0.318172 0.0173067 0.00735125
0.324363 0.0181474 0.00697664
0.324229 0.0171537 0.00735878
0.324154 0.0172115 0.00732697
0.318053 0.0167726 0.00758818
0.323857 0.016064 0.00807106
0.318374 0.0182068 0.00696785
0.324392 0.0178545 0.00702723
0.324079 0.0165901 0.00774678
0.324489 0.0173627 0.00720186
0.324427 0.017562 0.00708612
0.330161 0.0173209 0.00748935
0.324436 0.0185044 0.00695714
0.318237 0.0175746 0.00723292
0.324122 0.0167515 0.00763672
0.318194 0.017396 0.00731181
0.323918 0.0163139 0.00791684
0.324036 0.0164245 0.0078502
0.323983 0.0165632 0.00776305
0.324395 0.0173931 0.00718805
0.318392 0.0178758 0.00710683
0.318298 0.0178432 0.00711387
0.324332 0.0180023 0.00707142
0.317955 0.0164178 0.00774394
0.324085 0.0169771 0.00759097
0.32409 0.0169689 0.00749144
0.323876 0.0161475 0.00801953
0.324047 0.0168093 0.00760408
0.324492 0.0178502 0.00703324
0.323972 0.016175 0.00800409
0.324208 0.0170731 0.00741403
0.324414 0.017477 0.00713705
0.324402 0.0183417 0.00695714
0.324111 0.0170505 0.00743758
0.324136 0.0170577 0.00753404
0.318317 0.0179329 0.00707405
0.324004 0.0166464 0.00771178
0.330318 0.0179316 0.00718701
0.317999 0.0165964 0.00766505
0.318107 0.0170417 0.00746833
0.330225 0.017567 0.00733352

VERTICES 275 550
1 0
1 1
1 2
1 3
1 4
1 5
1 6
1 7
1 8
1 9
1 10
1 11
1 12
1 13
1 14
1 15
1 16
1 17
1 18
1 19
1 20
1 21
1 22
1 23
1 24
1 25
1 26
1 27
1 28
1 29
1 30
1 31
1 32
1 33
1 34
1 35
1 36
1 37
1 38
1 39
1 40
1 41
1 42
1 43
1 44
1 45
1 46
1 47
1 48
1 49
1 50
1 51
1 52
1 53
1 54
1 55
1 56
1 57
1 58
1 59
1 60
1 61
1 62
1 63
1 64
1 65
1 66
1 67
1 68
1 69
1 70
1 71
1 72
1 73
1 74
1 75
1 76
1 77
1 78
1 79
1 80
1 81
1 82
1 83
1 84
1 85
1 86
1 87
1 88
1 89
1 90
1 91
1 92
1 93
1 94
1 95
1 96
1 97
1 98
1 99
1 100
1 101
1 102
1 103
1 104
1 105
1 106
1 107
1 108
1 109
1 110
1 111
1 112
1 113
1 114
1 115
1 116
1 117
1 118
1 119
1 120
1 121
1 122
1 123
1 124
1 125
1 126
1 127
1 128
1 129
1 130
1 131
1 132
1 133
1 134
1 135
1 136
1 137
1 138
1 139
1 140
1 141
1 142
1 143
1 144
1 145
1 146
1 147
1 148
1 149
1 150
1 151
1 152
1 153
1 154
1 155
1 156
1 157
1 158
1 159
1 160
1 161
1 162
1 163
1 164
1 165
1 166
1 167
1 168
1 169
1 170
1 171
1 172
1 173
1 174
1 175
1 176
1 177
1 178
1 179
1 180
1 181
1 182
1 183
1 184
1 185
1 186
1 187
1 188
1 189
1 190
1 191
1 192
1 193
1 194
1 195
1 196
1 197
1 198
1 199
1 200
1 201
1 202
1 203
1 204
1 205
1 206
1 207
1 208
1 209
1 210
1 211
1 212
1 213
1 214
1 215
1 216
1 217
1 218
1 219
1 220
1 221
1 222
1 223
1 224
1 225
1 226
1 227
1 228
1 229
1 230
1 231
1 232
1 233
1 234
1 235
1 236
1 237
1 238
1 239
1 240
1 241
1 242
1 243
1 244
1 245
1 246
1 247
1 248
1 249
1 250
1 251
1 252
1 253
1 254
1 255
1 256
1 257
1 258
1 259
1 260
1 261
1 262
1 263
1 264
1 265
1 266
1 267
1 268
1 269
1 270
1 271
1 272
1 273
1 274

POINT_DATA 275
SCALARS id int 1
LOOKUP_TABLE default
1
2
4
5
6
7
8
9
10
11
12
13
14
16
17
19
21
22
23
24
25
26
27
28
29
30
31
32
33
34
35
36
37
38
39
41
42
44
45
47
48
49
50
51
52
53
54
55
56
57
59
60
61
62
63
64
65
66
67
68
69
70
71
72
73
74
76
77
78
79
80
82
83
84
85
86
87
88
89
90
91
92
93
94
95
96
97
98
99
100
101
102
103
104
105
106
107
108
109
110
111
112
113
114
115
116
117
118
119
120
121
122
123
124
125
127
128
129
130
131
132
133
134
135
136
137
138
140
141
142
143
144
146
147
148
149
150
151
153
154
155
156
157
158
159
160
162
164
165
166
167
168
169
170
171
172
173
174
176
177
178
179
182
183
184
185
186
187
188
189
190
191
192
193
194
195
196
197
198
199
200
201
202
203
204
205
206
207
208
209
210
211
212
213
214
215
216
217
218
219
220
222
224
225
226
227
228
229
230
232
233
234
235
236
237
239
240
241
242
243
244
246
247
248
249
250
251
252
253
254
255
256
257
258
259
260
261
262
263
264
265
266
267
268
269
270
271
272
273
274
275
276
277
278
279
280
281
283
284
285
286
287
288
289
290
291
292
293
294
295
296
297
298
299
300

SCALARS type int 1
LOOKUP_TABLE default
1
1
1
1
1
1
1
1
1
1
1
1
1
1
1
1
1
1
1
1
1
1
1
1
1
1
1
1
1
1
1
1
1
1
1
1
1
1
1
1
1
1
1
1
1
1
1
1
1
1
1
1
1
1
1
1
1
1
1
1
1
1
1
1
1
1
1
1
1
1
1
1
1
1
1
1
1
1
1
1
1
1
1
1
1
1
1
1
1
1
1
1
1
1
1
1
1
1
1
1
1
1
1
1
1
1
1
1
1
1
1
1
1
1
1
1
1
1
1
1
1
1
1
1
1
1
1
1
1
1
1
1
1
1
1
1
1
1
1
1
1
1
1
1
1
1
1
1
1
1
1
1
1
1
1
1
1
1
1
1
1
1
1
1
1
1
1
1
1
1
1
1
1
1
1
1
1
1
1
1
1
1
1
1
1
1
1
1
1
1
1
1
1
1
1
1
1
1
1
1
1
1
1
1
1
1
1
1
1
1
1
1
1
1
1
1
1
1
1
1
1
1
1
1
1
1
1
1
1
1
1
1
1
1
1
1
1
1
1
1
1
1
1
1
1
1
1
1
1
1
1
1
1
1
1
1
1
1
1
1
1
1
1
1
1
1
1
1
1
1
1
1
1
1
1

SCALARS radius float 1
LOOKUP_TABLE default
5e-05
5e-05
5e-05
5e-05
5e-05
5e-05
5e-05
5e-05
5e-05
5e-05
5e-05
5e-05
5e-05
5e-05
5e-05
5e-05
5e-05
5e-05
5e-05
5e-05
5e-05
5e-05
5e-05
5e-05
5e-05
5e-05
5e-05
5e-05
5e-05
5e-05
5e-05
5e-05
5e-05
5e-05
5e-05
5e-05
5e-05
5e-05
5e-05
5e-05
5e-05
5e-05
5e-05
5e-05
5e-05
5e-05
5e-05
5e-05
5e-05
5e-05
5e-05
5e-05
5e-05
5e-05
5e-05
5e-05
5e-05
5e-05
5e-05
5e-05
5e-05
5e-05
5e-05
5e-05
5e-05
5e-05
5e-05
5e-05
5e-05
5e-05
5e-05
5e-05
5e-05
5e-05
5e-05
5e-05
5e-05
5e-05
5e-05
5e-05
5e-05
5e-05
5e-05
5e-05
5e-05
5e-05
5e-05
5e-05
5e-05
5e-05
5e-05
5e-05
5e-05
5e-05
5e-05
5e-05
5e-05
5e-05
5e-05
5e-05
5e-05
5e-05
5e-05
5e-05
5e-05
5e-05
5e-05
5e-05
5e-05
5e-05
5e-05
5e-05
5e-05
5e-05
5e-05
5e-05
5e-05
5e-05
5e-05
5e-05
5e-05
5e-05
5e-05
5e-05
5e-05
5e-05
5e-05
5e-05
5e-05
5e-05
5e-05
5e-05
5e-05
5e-05
5e-05
5e-05
5e-05
5e-05
5e-05
5e-05
5e-05
5e-05
5e-05
5e-05
5e-05
5e-05
5e-05
5e-05
5e-05
5e-05
5e-05
5e-05
5e-05
5e-05
5e-05
5e-05
5e-05
5e-05
5e-05
5e-05
5e-05
5e-05
5e-05
5e-05
5e-05
5e-05
5e-05
5e-05
5e-05
5e-05
5e-05
5e-05
5e-05
5e-05
5e-05
5e-05
5e-05
5e-05
5e-05
5e-05
5e-05
5e-05
5e-05
5e-05
5e-05
5e-05
5e-05
5e-05
5e-05
5e-05
5e-05
5e-05
5e-05
5e-05
5e-05
5e-05
5e-05
5e-05
5e-05
5e-05
5e-05
5e-05
5e-05
5e-05
5e-05
5e-05
5e-05
5e-05
5e-05
5e-05
5e-05
5e-05
5e-05
5e-05
5e-05
5e-05
5e-05
5e-05
5e-05
5e-05
5e-05
5e-05
5e-05
5e-05
5e-05
5e-05
5e-05
5e-05
5e-05
5e-05
5e-05
5e-05
5e-05
5e-05
5e-05
5e-05
5e-05
5e-05
5e-05
5e-05
5e-05
5e-05
5e-05
5e-05
5e-05
5e-05
5e-05
5e-05
5e-05
5e-05
5e-05
5e-05
5e-05
5e-05
5e-05
5e-05
5e-05
5e-05
5e-05
5e-05
5e-05
5e-05
5e-05
5e-05
5e-05
5e-05
5e-05
5e-05
5e-05
5e-05
5e-05
5e-05
5e-05
5e-05
5e-05

SCALARS mass float 1
LOOKUP_TABLE default
1.46608e-10
1.46608e-10
1.46608e-10
1.46608e-10
1.46608e-10
1.46608e-10
1.46608e-10
1.46608e-10
1.46608e-10
1.46608e-10
1.46608e-10
1.46608e-10
1.46608e-10
1.46608e-10
1.46608e-10
1.46608e-10
1.46608e-10
1.46608e-10
1.46608e-10
1.46608e-10
1.46608e-10
1.46608e-10
1.46608e-10
1.46608e-10
1.46608e-10
1.46608e-10
1.46608e-10
1.46608e-10
1.46608e-10
1.46608e-10
1.46608e-10
1.46608e-10
1.46608e-10
1.46608e-10
1.46608e-10
1.46608e-10
1.46608e-10
1.46608e-10
1.46608e-10
1.46608e-10
1.46608e-10
1.46608e-10
1.46608e-10
1.46608e-10
1.46608e-10
1.46608e-10
1.46608e-10
1.46608e-10
1.46608e-10
1.46608e-10
1.46608e-10
1.46608e-10
1.46608e-10
1.46608e-10
1.46608e-10
1.46608e-10
1.46608e-10
1.46608e-10
1.46608e-10
1.46608e-10
1.46608e-10
1.46608e-10
1.46608e-10
1.46608e-10
1.46608e-10
1.46608e-10
1.46608e-10
1.46608e-10
1.46608e-10
1.46608e-10
1.46608e-10
1.46608e-10
1.46608e-10
1.46608e-10
1.46608e-10
1.46608e-10
1.46608e-10
1.46608e-10
1.46608e-10
1.46608e-10
1.46608e-10
1.46608e-10
1.46608e-10
1.46608e-10
1.46608e-10
1.46608e-10
1.46608e-10
1.46608e-10
1.46608e-10
1.46608e-10
1.46608e-10
1.46608e-10
1.46608e-10
1.46608e-10
1.46608e-10
1.46608e-10
1.46608e-10
1.46608e-10
1.46608e-10
1.46608e-10
1.46608e-10
1.46608e-10
1.46608e-10
1.46608e-10
1.46608e-10
1.46608e-10
1.46608e-10
1.46608e-10
1.46608e-10
1.46608e-10
1.46608e-10
1.46608e-10
1.46608e-10
1.46608e-10
1.46608e-10
1.46608e-10
1.46608e-10
1.46608e-10
1.46608e-10
1.46608e-10
1.46608e-10
1.46608e-10
1.46608e-10
1.46608e-10
1.46608e-10
1.46608e-10
1.46608e-10
1.46608e-10
1.46608e-10
1.46608e-10
1.46608e-10
1.46608e-10
1.46608e-10
1.46608e-10
1.46608e-10
1.46608e-10
1.46608e-10
1.46608e-10
1.46608e-10
1.46608e-10
1.46608e-10
1.46608e-10
1.46608e-10
1.46608e-10
1.46608e-10
1.46608e-10
1.46608e-10
1.46608e-10
1.46608e-10
1.46608e-10
1.46608e-10
1.46608e-10
1.46608e-10
1.46608e-10
1.46608e-10
1.46608e-10
1.46608e-10
1.46608e-10
1.46608e-10
1.46608e-10
1.46608e-10
1.46608e-10
1.46608e-10
1.46608e-10
1.46608e-10
1.46608e-10
1.46608e-10
1.46608e-10
1.46608e-10
1.46608e-10
1.46608e-10
1.46608e-10
1.46608e-10
1.46608e-10
1.46608e-10
1.46608e-10
1.46608e-10
1.46608e-10
1.46608e-10
1.46608e-10
1.46608e-10
1.46608e-10
1.46608e-10
1.46608e-10
1.46608e-10
1.46608e-10
1.46608e-10
1.46608e-10
1.46608e-10
1.46608e-10
1.46608e-10
1.46608e-10
1.46608e-10
1.46608e-10
1.46608e-10
1.46608e-10
1.46608e-10
1.46608e-10
1.46608e-10
1.46608e-10
1.46608e-10
1.46608e-10
1.46608e-10
1.46608e-10
1.46608e-10
1.46608e-10
1.46608e-10
1.46608e-10
1.46608e-10
1.46608e-10
1.46608e-10
1.46608e-10
1.46608e-10
1.46608e-10
1.46608e-10
1.46608e-10
1.46608e-10
1.46608e-10
1.46608e-10
1.46608e-10
1.46608e-10
1.46608e-10
1.46608e-10
1.46608e-10
1.46608e-10
1.46608e-10
1.46608e-10
1.46608e-10
1.46608e-10
1.46608e-10
1.46608e-10
1.46608e-10
1.46608e-10
1.46608e-10
1.46608e-10
1.46608e-10
1.46608e-10
1.46608e-10
1.46608e-10
1.46608e-10
1.46608e-10
1.46608e-10
1.46608e-10
1.46608e-10
1.46608e-10
1.46608e-10
1.46608e-10
1.46608e-10
1.46608e-10
1.46608e-10
1.46608e-10
1.46608e-10
1.46608e-10
1.46608e-10
1.46608e-10
1.46608e-10
1.46608e-10
1.46608e-10
1.46608e-10
1.46608e-10
1.46608e-10
1.46608e-10
1.46608e-10
1.46608e-10
1.46608e-10
1.46608e-10
1.46608e-10
1.46608e-10
1.46608e-10
1.46608e-10
1.46608e-10
1.46608e-10
1.46608e-10
1.46608e-10
1.46608e-10

VECTORS velocity float
0.00586922 0.000804104 -9.68335e-05
0.00584787 0.00365245 -0.00430224
0.00623072 0.00125325 -3.47659e-05
0.00578092 0.00122729 -8.00031e-05
0.00603131 8.97325e-05 -0.000110409
0.00567836 0.00100402 4.87295e-05
0.0060309 0.00118377 -1.38298e-05
0.00582736 0.000198757 2.58476e-05
0.00601786 0.00122708 -4.63856e-05
0.00597381 0.0013439 4.36719e-05
0.00618016 -0.000219776 -0.000266259
0.00573766 0.00115223 -2.96553e-05
0.00594928 -0.000415748 -0.000137585
0.00571289 9.57787e-05 0.000273909
0.00529274 0.00127644 -0.000182612
0.00574406 0.00128397 -0.000125389
0.00595001 0.000917958 0.000159936
0.00620587 0.00171955 -0.000376975
0.00584947 0.000140387 0.000275393
0.00604911 8.5506e-05 -0.000108818
0.00600063 0.00121969 -4.57589e-05
0.00572371 0.000151564 -0.000133007
0.00605437 -0.000310904 -0.000201954
0.00612901 0.00122126 -2.64872e-05
0.00571174 0.00126378 -0.000115259
0.0060283 0.00121848 -4.41761e-05
0.00577457 0.00168053 -0.000406615
0.00593945 0.00120153 -3.54816e-05
0.00603425 8.90233e-05 -0.000110143
0.00588001 0.00115677 -8.8403e-06
0.00670056 0.000993329 0.000225749
0.00574089 0.000213849 1.72978e-05
0.00611435 0.00123919 -4.33628e-05
0.00634604 0.00108877 0.000111527
0.00580017 0.000137735 -0.000128055
0.00582112 0.00117354 -3.50436e-05
0.00625167 0.00170258 -0.000359389
0.00675292 0.00160282 -0.000212042
0.00603721 8.83168e-05 -0.000109879
0.00576565 0.0010482 2.49227e-05
0.00629996 0.00114732 3.94626e-05
0.00562477 0.000231454 7.03642e-06
0.00595791 0.00119218 -2.71527e-05
0.00587723 0.00171684 -0.000426121
0.00559825 -0.000122167 0.000314424
0.00604314 8.69471e-05 -0.000109366
0.00573551 0.000316881 -0.000367284
0.00619478 -0.000291087 -0.000219648
0.0057531 0.000276908 -0.000361616
0.00604016 8.7634e-05 -0.000109626
-5.01976e-15 -7.41218e-15 7.69802e-14
0.00576035 0.00171181 -0.000435324
0.00579039 0.00115983 -2.91212e-05
0.00629005 0.00121297 7.50217e-06
0.00592851 0.000715732 -0.000437402
0.00604615 8.62234e-05 -0.000109096
0.0061951 -0.000318847 -0.000201611
0.00561486 0.000225025 0.000255794
0.00592763 0.000975589 0.000126643
0.00614671 0.00110069 5.65112e-05
0.00621507 0.00159293 -0.000280095
0.00576898 0.00014342 -0.000130102
0.00562796 0.000215515 0.000250008
0.00597703 0.000699423 -0.000442649
0.00620438 0.00170789 -0.000369612
0.00597599 0.00119767 -2.88825e-05
0.00608532 -0.000315603 -0.000195278
0.00694422 0.00450708 -0.000187723
0.00562286 -4.17774e-05 -6.9706e-06
0.00565816 2.42203e-05 -0.000190364
0.00620433 0.00124128 -2.89886e-05
0.0057474 9.86347e-05 0.000275717
0.00620994 -0.000237508 -0.000257549
0.00568287 0.00022266 1.21607e-05
0.00556465 0.000103276 0.000271661
0.00604697 0.00173591 -0.0004111
0.00610012 0.00121527 -2.43017e-05
0.0056699 0.00138925 -0.00019526
0.0062795 0.00121693 -0.000539321
0.00596723 0.000986883 0.000121705
0.00612502 -0.000285205 -0.000219169
0.00640384 0.00110423 0.00026196
0.0059373 0.00154078 -0.000285093
0.00608992 0.00114804 -0.000374472
0.00629455 0.00116283 2.24498e-05
0.00611472 0.000627647 -0.000169199
0.00558896 3.88407e-05 7.20324e-05
0.00607259 0.00158494 -0.000297201
0.00576374 -2.39477e-05 0.000284564
0.00598586 0.000963739 0.000122657
0.00580207 -2.40729e-05 0.000310117
4.20541e-15 1.05264e-14 8.29596e-14
-5.71162e-23 -1.45003e-21 -1.2867e-21
0.0056926 6.91257e-05 0.000281902
0.00562705 2.85801e-05 7.9348e-05
0.00582501 -1.29015e-05 0.000309632
0.00561827 3.05386e-05 7.44572e-05
0.00622699 0.00116975 -0.000528922
0.00622315 0.00157519 -0.000252871
0.00634132 0.00120061 0.000155998
0.0060567 0.00118817 -1.72114e-05
0.00564386 3.08319e-05 7.85243e-05
0.00619913 -0.000311705 -0.000195177
0.00584285 -0.000112988 3.9608e-05
0.0062536 0.00121694 -6.68564e-06
0.00597556 0.00088587 0.000102041
0.00672312 0.00145787 -0.000110958
0.00619384 -0.000323893 -0.000199167
0.00619339 0.00124634 -0.000541899
0.00602801 0.00120853 -3.22448e-05
0.00565873 0.000353321 -0.000368873
0.00618625 0.0011399 3.20497e-05
0.0056093 0.000203855 0.000252552
0.00607113 0.00173057 -0.0004037
0.00614335 0.000963212 0.000120289
0.00557535 4.12452e-05 7.0732e-05
0.00604381 0.00120107 -2.29398e-05
0.00583419 0.00137558 0.000193439
0.00572901 -7.74127e-05 0.000305683
0.00500166 -0.000785896 0.000397723
0.00616736 0.00114897 2.84873e-05
0.00591961 0.00104006 7.66473e-05
0.00632142 0.00116644 3.12499e-05
0.00611699 0.00162488 -0.000324153
0.00613283 -0.000287904 -0.00021785
0.00600044 0.00301618 -0.00106821
0.0061321 0.000584853 0.000347148
0.00613366 0.00116193 1.53506e-05
0.00594532 -0.000327872 -0.000174942
0.00568784 0.00016389 0.000270016
0.00560359 3.8365e-05 7.39072e-05
0.00581744 -0.000116027 -0.000321014
0.0055973 6.4361e-06 9.18001e-05
0.00580003 -0.000223741 9.58874e-05
0.00597727 -0.000339037 -0.000177043
0.00608656 0.001267 -6.41865e-05
0.00564499 -1.94782e-05 -0.000250226
0.00562986 -1.45708e-06 0.000291117
0.0060197 -0.000338642 -0.000175649
0.00557199 2.27256e-06 9.70698e-05
0.0055819 6.0398e-05 5.94528e-05
0.00595398 -0.000379849 -0.000147018
-3.83295e-14 8.16629e-14 2.95889e-13
0.00602714 -0.000322923 -0.000189267
0.00608821 0.00105068 9.48496e-05
0.00574206 -1.51471e-05 0.000285826
0.00559738 4.91515e-05 0.000280616
0.00592335 -2.39588e-05 0.000116656
0.00560129 3.03917e-05 0.000287665
0.00608716 0.000848619 0.000254442
0.00577712 9.32976e-05 3.44011e-05
0.00563639 -1.09896e-05 -0.00020257
0.00558467 -7.78327e-05 -4.39415e-05
0.00560486 -2.35659e-05 -0.000193143
0.00610546 0.000863111 -0.000474471
0.00617654 -0.000308252 -0.000207269
0.00604511 0.00130659 -0.000338902
0.00593607 -6.33953e-05 0.000140811
0.00616346 -0.00032778 -0.000208831
0.00568405 1.76992e-05 8.80103e-05
0.0057983 -0.000123602 0.000261853
0.00561802 1.46048e-07 0.000295268
0.00566495 0.000336952 -0.000366379
0.00574793 3.9828e-05 0.000274252
0.00592069 0.00127627 -0.000357926
0.00569085 3.80973e-05 -6.88529e-05
0.00557742 0.000182728 0.000256492
0.005876 0.000998761 0.000104731
0.00618621 0.000899635 0.000219784
0.00599887 0.000689827 -0.000422175
0.00564809 0.000274137 0.000354384
0.00605946 0.00122581 -3.70444e-05
0.00609666 -0.00023541 -9.72007e-05
0.00598147 0.000785576 -0.000455515
0.00577998 -4.25083e-06 0.000339733
0.00571514 3.55335e-05 0.000277683
0.00583208 7.45921e-05 0.000287414
0.00612503 0.000191381 0.000431156
0.00606084 -0.000183894 -0.000278636
0.00575505 -9.2595e-05 0.000398429
0.00561612 2.53507e-05 8.17844e-05
0.00546011 2.98847e-05 0.000272815
0.00613049 -0.000280344 -0.000225137
0.00609514 0.00102067 0.000131402
0.00577413 0.000148121 0.000270087
0.00601203 -0.000279375 -0.000124571
0.00605271 -0.00031503 -0.000185789
0.00590597 -5.95824e-05 0.000144101
0.00621875 -0.000320222 -0.000203321
0.00616242 -0.000318849 -0.000199043
0.00606 0.00119467 -1.59197e-05
0.00609206 0.00118812 -1.94541e-06
0.00561536 9.48152e-05 0.000271716
0.00596446 0.000918053 0.000202661
0.00644193 0.000896584 0.000351872
0.00596573 0.000224698 0.000403378
0.00594218 -4.02419e-05 0.000126987
0.0057287 0.000321247 -0.000366983
0.00576335 -4.99412e-05 0.000172375
0.00601723 0.00177299 -0.000442523
0.00582916 1.30435e-05 0.000299381
0.00579218 0.00167749 -0.000408286
0.00605457 -0.00030942 -0.000194301
0.006069 0.0013206 -5.89349e-05
0.00583203 2.18437e-05 0.000292394
0.00572701 0.000259464 0.000366432
0.00610871 0.000200633 0.000426694
0.00567006 1.00485e-05 -0.000204668
0.00605677 -0.000301713 -0.000198009
0.00556627 -1.05712e-05 9.81637e-05
0.00569464 -0.000166117 0.000407952
0.00596218 0.000994512 8.46403e-05
0.00601978 -0.000142417 5.02691e-05
0.00611883 -0.000279756 -0.000190367
0.00611178 -0.000288056 -0.000181777
0.00560057 -0.000570654 -0.000690482
0.00614103 0.000184446 0.000441016
0.00584933 -0.000678536 -0.000801319
0.00616165 -0.000187979 -0.000285427
0.00566926 0.000105002 0.000276406
0.00586169 -0.000160088 -3.55159e-05
0.00611503 0.000197754 0.000428232
0.00596892 -7.74951e-05 0.000147247
0.00617731 -0.000305733 -8.31413e-05
0.00612278 0.000206905 0.000424136
0.00600674 -8.20242e-05 0.00016455
0.00632696 0.000596096 0.000399536
0.00611416 0.000199349 0.000427904
0.00585192 0.000238992 0.000386598
0.00612117 0.000203195 0.000426689
0.00602547 -0.000270699 -0.000219639
0.00571293 0.000145763 0.00026601
0.00603961 -0.000327263 -0.000182429
0.0061832 -0.000374498 -0.000186001
0.006113 0.000201307 0.00042683
0.00558865 -2.34833e-05 0.000165719
0.00612936 -0.000295651 -0.000205626
0.00613894 -0.000296984 -0.000196143
0.00612435 0.000204749 0.000427526
0.0055568 1.35265e-05 8.59253e-05
0.00559572 -6.94148e-05 -0.000877825
0.00576612 1.30612e-05 0.000293107
0.00600411 -0.000153125 5.87409e-05
0.00598679 -0.000166266 -0.000289241
0.00573458 8.44088e-05 0.000280447
0.00614198 0.00108664 6.97015e-05
0.00563693 1.30792e-05 -0.000196732
0.00610621 0.000200741 0.000426447
0.00603615 -0.000321342 -0.000184789
0.00611047 0.000201191 0.000426425
0.00593273 -4.82634e-05 0.000134689
0.00596072 -8.61347e-05 0.000158527
0.00596467 -9.2328e-05 0.000153953
0.00594617 -0.000261053 -0.000207806
0.00581642 0.000252249 0.000377954
0.00570708 0.000264665 0.00036276
0.00574069 -2.97398e-05 0.000318683
0.0061437 0.000191999 0.000438503
0.00606789 -0.000283 -0.000194118
0.00607677 -0.000312009 -0.0001953
0.00560766 2.50466e-05 8.07531e-05
0.00604559 -0.00025762 -0.000119384
0.00576 9.28654e-05 0.000280708
0.00588538 -2.26968e-05 0.000114769
0.00611224 -0.00029751 -0.00020899
0.00581781 -7.59975e-05 4.65977e-05
0.00560508 -7.33777e-05 -0.000185104
0.00609822 -0.00030198 -0.000185828
0.00610693 -0.000333378 -0.000181032
0.00581411 0.000248516 0.000379673
0.00600779 -7.69225e-05 0.000160636
0.00646601 0.00352032 -0.00117781
0.00613152 0.000182322 0.000436172
0.00611672 0.000198476 0.000428601
0.006158 0.0007649 0.00015449

VECTORS force float
-1.45691e-10 -3.91194e-10 2.26654e-10
0.0 0.0 -1.43822e-09
-6.95976e-10 5.60385e-10 -5.07934e-10
3.07492e-11 8.97324e-11 -5.41787e-11
-1.10521e-12 -3.74875e-12 1.50717e-12
-1.00033e-09 7.41452e-10 -7.30206e-10
1.47801e-10 9.32217e-11 -2.73751e-11
1.86994e-12 2.90257e-12 -1.03789e-12
2.85084e-10 1.1801e-10 -5.57358e-11
2.27008e-12 3.45533e-11 5.69051e-10
-1.55999e-10 -2.10393e-11 2.42544e-11
2.26233e-11 1.05996e-10 -8.02187e-11
-5.20453e-10 2.5341e-10 3.44601e-11
-6.3e-11 -1.1655e-10 3.71229e-12
-5.07596e-10 1.73148e-10 -2.21496e-10
2.73805e-11 9.77782e-11 -6.72345e-11
-1.67747e-10 -3.43145e-10 2.06847e-10
-6.53197e-10 4.49316e-10 -4.14752e-10
1.07936e-10 -7.16612e-11 3.56896e-12
2.05572e-12 3.52272e-12 -1.06144e-12
5.25073e-11 1.52115e-10 -1.09958e-10
4.13931e-12 4.75171e-12 -1.97564e-12
-1.5435e-10 -1.78807e-10 1.59514e-10
4.24464e-10 -8.35505e-11 1.40024e-11
2.91922e-11 1.03409e-10 -7.11126e-11
-1.51264e-11 -1.76179e-10 2.02618e-10
-1.73415e-10 -2.19565e-10 3.53286e-11
2.25766e-11 9.40602e-11 -2.10629e-11
-7.71265e-13 -2.15185e-12 1.16278e-12
3.59183e-11 6.65439e-11 -1.27234e-10
9.57422e-10 -4.11724e-10 4.96404e-10
1.6675e-12 3.85212e-12 -1.5535e-12
-2.35326e-10 1.8741e-10 -2.17001e-10
6.00531e-10 -2.4358e-10 2.40019e-10
-7.5801e-11 1.52486e-11 -7.27353e-12
3.87528e-11 7.81501e-11 -4.31661e-11
7.6801e-10 -1.9774e-12 1.4645e-10
1.04367e-09 -4.70432e-10 5.29296e-10
-2.61956e-13 -7.31743e-13 5.11298e-14
-7.78466e-10 6.36203e-10 -4.08888e-10
-1.78887e-10 1.80219e-10 2.01432e-10
1.92014e-12 3.62938e-12 -1.79834e-12
2.24824e-10 -1.03405e-10 1.19055e-10
-1.17188e-10 -1.35776e-10 1.23643e-10
-5.33746e-11 -1.62791e-11 -2.06805e-12
1.86815e-13 9.29872e-13 -5.06753e-13
2.37647e-11 -2.74345e-10 4.16191e-11
3.29287e-11 6.57123e-11 -1.24625e-11
6.48894e-11 -4.15239e-10 6.09541e-11
-1.08265e-13 5.42522e-13 6.18867e-14
-8.20718e-24 1.75776e-24 -4.1359e-25
5.99826e-10 -5.85211e-10 5.0698e-10
-1.75939e-11 1.19424e-10 -1.09469e-10
-5.80539e-11 2.22434e-10 4.63187e-11
1.08738e-09 2.67787e-10 4.35381e-11
-6.04976e-13 1.63094e-12 -5.58362e-13
2.56395e-11 8.20166e-11 -1.02474e-10
4.52172e-11 -2.65156e-10 -8.62841e-11
6.18881e-11 9.1576e-11 -6.052e-11
-5.17959e-10 -7.46388e-11 -3.587e-10
3.47665e-10 -6.8362e-11 1.69059e-10
1.24837e-12 3.26988e-12 -9.4773e-13
4.44126e-10 -2.35384e-10 5.3731e-11
4.1393e-10 -2.78694e-10 2.32362e-11
4.07592e-10 1.2851e-10 -2.76274e-11
-1.29129e-10 -1.22298e-10 1.81946e-10
-2.25137e-10 -8.79595e-11 1.33725e-10
-3.24638e-11 -1.39578e-10 -3.82816e-10
-5.85175e-11 -1.76638e-10 2.78286e-10
-3.9485e-11 3.09557e-10 -4.41674e-11
-2.64381e-10 2.40713e-10 -1.18085e-10
6.84391e-12 -2.90703e-11 4.66604e-11
-1.24934e-10 -4.52982e-11 1.39639e-11
1.66591e-12 3.79301e-12 -1.66199e-12
2.03688e-10 4.74133e-11 -2.08097e-11
-4.39558e-10 -8.95948e-11 -8.9331e-12
-2.52471e-10 3.29779e-10 -2.81777e-10
-7.32086e-10 -1.96022e-12 -2.67283e-10
-3.8189e-10 9.68407e-11 9.33596e-11
4.19994e-10 3.47317e-11 1.39317e-11
2.83207e-11 -3.92884e-11 2.99358e-11
-8.73252e-10 -3.10112e-10 3.40958e-10
-4.79265e-10 -4.10774e-11 -1.93645e-11
8.73033e-11 4.67584e-10 -9.50668e-10
-1.4555e-10 9.08746e-11 -5.87791e-10
1.44205e-10 -1.1095e-10 -2.89884e-10
-2.24703e-10 1.2339e-10 -7.4522e-11
-2.15061e-10 7.33229e-11 -1.29012e-10
5.02574e-11 1.56213e-10 3.17548e-10
-8.85622e-10 4.5083e-10 -3.7765e-10
-3.21173e-11 1.20592e-11 1.70147e-11
-1.3139e-21 2.49679e-22 3.20532e-23
0.0 2.58494e-26 0.0
-4.29207e-11 -1.56158e-10 8.56356e-12
4.15897e-11 6.49998e-11 -4.5162e-11
8.1591e-11 -9.52743e-12 2.51724e-11
1.58007e-11 -1.37223e-10 1.50548e-10
3.73525e-10 -5.61606e-10 8.55711e-11
8.58285e-10 -1.94953e-10 3.74119e-10
-8.19907e-12 -1.23828e-10 2.20062e-10
-1.1067e-11 -1.60405e-10 9.98002e-11