# vtk DataFile Version 3.0
LIGGGHTS particles timestep 38000000
ASCII
DATASET POLYDATA
POINTS 275 float
0.234961 0.0188129 0.00682815
0.234622 0.0176473 0.00716112
0.23477 0.0175172 0.00719642
0.234163 0.015797 0.0083335
0.240452 0.0169472 0.00748585
0.234918 0.0181614 0.00695634
0.234609 0.0172168 0.00731524
0.240659 0.0177852 0.00700459
0.234284 0.0161579 0.00787038
0.234803 0.018273 0.0070202
0.228788 0.0172811 0.00753359
0.234144 0.0157441 0.00841609
0.228767 0.0179176 0.00719985
0.22902 0.0183602 0.00698343
0.234259 0.0160976 0.00794614
0.234124 0.0156922 0.00849935
0.234962 0.0183535 0.00691708
0.234566 0.0170336 0.00738363
0.229 0.018157 0.00708859
0.240574 0.0174272 0.00715114
0.234314 0.0163008 0.00773583
0.240616 0.0175967 0.00705364
0.228596 0.0172221 0.00755633
0.234696 0.0175826 0.00717862
0.234105 0.0156404 0.00858258
0.234392 0.0166417 0.00754255
0.234993 0.0180973 0.00697336
0.234333 0.0163886 0.00769183
0.240472 0.0170211 0.00742133
0.234239 0.0160387 0.00802437
0.234878 0.0179751 0.00702542
0.240723 0.0180754 0.00698522
0.234748 0.0174257 0.00723058
0.234835 0.017792 0.00709377
0.240596 0.0175118 0.00710248
0.234205 0.0159137 0.00817667
0.234865 0.0175433 0.00718006
0.23493 0.0178184 0.00707726
0.240491 0.017095 0.0073568
0.23422 0.0159754 0.00809939
0.234825 0.0185719 0.00687457
0.240681 0.0178814 0.00698782
0.234353 0.0164704 0.00763788
0.235013 0.0181929 0.00694826
0.228852 0.0175424 0.00740077
0.240532 0.0172576 0.00724865
0.235147 0.0184267 0.00690323
0.228777 0.0175999 0.00736904
0.235131 0.0183202 0.00692382
0.240511 0.0171729 0.0072974
0.378022 0.019866 0.005332
0.234952 0.01791 0.0070431
0.234182 0.0158537 0.00825331
0.234857 0.0178835 0.00705961
0.234843 0.0186425 0.00694287
0.240553 0.0173424 0.0071999
0.228819 0.0177738 0.00727991
0.228967 0.0180624 0.00723372
0.234982 0.0184507 0.00689829
0.234761 0.017857 0.00707615
0.235056 0.0183855 0.00691105
0.240638 0.0176893 0.00702304
0.229132 0.0183859 0.00696749
0.235037 0.0187494 0.00684058
0.234294 0.0162225 0.0077947
0.234372 0.0165553 0.00758879
0.228713 0.017339 0.00750273
0.234643 0.0177388 0.00712696
0.228091 0.0155028 0.00851859
0.229032 0.0186839 0.00684169
0.234718 0.0176741 0.00714446
0.228855 0.0181404 0.00718537
0.22881 0.0173682 0.00748932
0.240702 0.0179781 0.00697437
0.229187 0.0185637 0.00687637
0.234909 0.017727 0.00711142
0.234674 0.0174912 0.00721277
0.234824 0.0181329 0.00697329
0.23491 0.0183185 0.00701024
0.234997 0.0185568 0.0068778
0.228767 0.017194 0.00757786
0.234749 0.0181977 0.0069592
0.234451 0.0169152 0.00743437
0.234874 0.0184223 0.00700351
0.234737 0.0179937 0.00711842
0.23473 0.0181049 0.00699086
0.228189 0.0158869 0.00823492
0.234431 0.0168234 0.00746853
0.228757 0.0182458 0.00705691
0.234938 0.0182582 0.00693548
0.228779 0.0183393 0.00702883
0.0643568 0.0187248 0.00531097
0.24257 0.0191927 0.00520306
0.229055 0.0184442 0.00694137
0.228149 0.0157126 0.00832448
0.228838 0.0180389 0.00723476
0.228109 0.0155508 0.00843276
0.235073 0.0184921 0.00689045
0.235068 0.018033 0.00699068
0.2346 0.0175558 0.00719527
0.234557 0.0173729 0.00726358
0.228228 0.0160613 0.00814528
0.228671 0.0178878 0.00720884
0.228714 0.0180617 0.00711973
0.234887 0.0176355 0.00714558
0.234906 0.0185145 0.00688581
0.234899 0.0180689 0.0069905
0.228895 0.0177166 0.00731223
0.235078 0.0186152 0.00686662
0.234588 0.0171253 0.0073494
0.234903 0.0189726 0.00679714
0.234708 0.0180131 0.0070245
0.229159 0.0184717 0.00692405
0.234472 0.0170072 0.00740127
0.234804 0.0180402 0.00700776
0.228169 0.0157997 0.0082797
0.234411 0.0167316 0.00750316
0.234782 0.0181798 0.00705177
0.228809 0.0180915 0.00711074
0.228831 0.0181785 0.00706617
0.234791 0.0176087 0.00716227
0.234916 0.018613 0.00686677
0.234887 0.0184182 0.00690443
0.235037 0.0182883 0.00692984
0.228755 0.0175129 0.0074136
0.234761 0.0180878 0.00708439
0.234788 0.0183885 0.00693915
0.234665 0.0178302 0.00709281
0.228585 0.0168172 0.00777016
0.228981 0.0180657 0.00713477
0.228129 0.0156254 0.00836926
0.228938 0.0178908 0.00722367
0.228267 0.0162358 0.00805559
0.228788 0.0180046 0.00715529
0.228606 0.0169041 0.0077256
0.234514 0.01719 0.00733189
0.229136 0.018746 0.00684534
0.22889 0.0185356 0.00688108
0.228627 0.0169912 0.007681
0.228247 0.0161486 0.0081004
0.228287 0.0163237 0.00801257
0.228563 0.0167302 0.00781472
0.0219312 0.0187687 0.00551176
0.22867 0.0171651 0.00759186
0.234813 0.0177006 0.00712792
0.228789 0.0183966 0.00694755
0.228833 0.0183122 0.0071084
0.228351 0.0165837 0.00787722
0.229008 0.018587 0.00686233
0.234805 0.0184757 0.00689316
0.22887 0.0188014 0.00684237
0.22919 0.0186636 0.00682929
0.229043 0.0187832 0.0068477
0.228951 0.018743 0.00684154
0.235047 0.0188632 0.00681855
0.22865 0.0178008 0.0072534
0.234999 0.0186607 0.00690802
0.228394 0.0167575 0.0077881
0.228703 0.0176568 0.00733353
0.228383 0.0163526 0.00800194
0.22871 0.0179715 0.00726263
0.228808 0.0184783 0.00700225
0.235003 0.0189815 0.00679559
0.228751 0.0181313 0.00718132
0.234856 0.0185462 0.00696639
0.228959 0.017978 0.00717937
0.22924 0.0184168 0.00694547
0.234943 0.0187164 0.0068468
0.234783 0.0179485 0.00704198
0.234885 0.0188761 0.00681578
0.222778 0.0183397 0.00698354
0.234535 0.0172815 0.00729774
0.228693 0.0179747 0.00716428
0.235146 0.0188769 0.00681607
0.228875 0.0182275 0.00714095
0.228894 0.0184442 0.00692987
0.228924 0.0182123 0.00705494
0.222448 0.0169317 0.00752748
0.228831 0.0174553 0.00744505
0.228754 0.0182278 0.00715524
0.228208 0.0159741 0.00819012
0.228981 0.0185012 0.00690584
0.228691 0.017252 0.0075473
0.234862 0.0183231 0.00692279
0.229022 0.018244 0.00704435
0.228532 0.0169613 0.00769001
0.228575 0.0171351 0.00760089
0.228447 0.0166135 0.00786825
0.228874 0.0176295 0.0073565
0.228798 0.0176868 0.00732448
0.234631 0.0173082 0.00728109
0.234653 0.0173997 0.00724693
0.229082 0.01853 0.00689787
0.234868 0.0187833 0.00684899
0.234739 0.0177655 0.00711031
0.222687 0.0178553 0.00706365
0.228425 0.0165265 0.00791281
0.235101 0.0189648 0.006799
0.228735 0.0181486 0.00707517
0.234492 0.0170985 0.00736605
0.228848 0.0182675 0.00702022
0.234973 0.0180045 0.00700785
0.228617 0.017309 0.00751177
0.234579 0.0174644 0.00722943
0.228779 0.0179078 0.00729856
0.222696 0.0179525 0.00704245
0.222633 0.0176644 0.00708639
0.229105 0.0186166 0.0068536
0.228522 0.0172792 0.00752075
0.228831 0.018412 0.00707348
0.228851 0.0187034 0.00684024
0.234839 0.0180279 0.00710093
0.228479 0.0171053 0.00760987
0.228586 0.01754 0.00738708
0.228607 0.0176269 0.00734252
0.222347 0.0165569 0.00784279
0.222408 0.0167818 0.00765363
0.222327 0.0164819 0.00790585
0.228745 0.0171069 0.00762213
0.228906 0.0181224 0.00710127
0.222367 0.0166318 0.00777972
0.222551 0.0173054 0.00721347
0.228415 0.0168445 0.00774354
0.228745 0.0178307 0.00724441
0.222488 0.0170817 0.00740136
0.228489 0.0167874 0.00777913
0.234843 0.018226 0.00694156
0.222568 0.0173806 0.00714991
0.222758 0.0182429 0.00699827
0.222514 0.0171604 0.00734584
0.228074 0.0154681 0.00861083
0.229097 0.0183025 0.00701074
0.228649 0.0170782 0.00763642
0.228724 0.0177437 0.00728897
0.22259 0.0174756 0.00712776
0.228927 0.0186388 0.00683538
0.228681 0.0175699 0.00737809
0.228629 0.0177139 0.00729796
0.222468 0.0170067 0.00746446
0.228309 0.0164098 0.00796634
0.222798 0.0184366 0.00696882
0.22887 0.0183628 0.00699567
0.228511 0.0168743 0.00773457
0.228916 0.0178037 0.00726796
0.228884 0.0180351 0.00714601
0.234687 0.0179217 0.00705865
0.228826 0.0185704 0.00694939
0.222654 0.0177612 0.00707167
0.228553 0.0170482 0.00764545
0.222624 0.0175682 0.00711205
0.228373 0.0166706 0.00783266
0.228468 0.0167004 0.00782369
0.228437 0.0169314 0.00769899
0.228841 0.0178607 0.00723536
0.222777 0.0178941 0.00704775
0.222718 0.0180491 0.00702772
0.228807 0.0184841 0.00690243
0.222387 0.0167068 0.00771666
0.228543 0.0173661 0.00747619
0.228639 0.017396 0.00746721
0.22833 0.0164967 0.00792178
0.228501 0.0171922 0.00756531
0.228946 0.0182992 0.00701045
0.228404 0.0164396 0.00795737
0.228734 0.017426 0.00745816
0.228862 0.0179477 0.00719079
0.228831 0.0186051 0.00684005
0.22866 0.0174829 0.00742265
0.228565 0.0174531 0.00743163
0.222737 0.018146 0.007013
0.228458 0.0170184 0.00765443
0.234848 0.0186854 0.00685264
0.222428 0.0168568 0.00759054
0.222528 0.0172308 0.00727598
0.234767 0.0182913 0.00692879

VERTICES 275 550
1 0
1 1
1 2
1 3
1 4
1 5
1 6
1 7
1 8
1 9
1 10
1 11
1 12
1 13
1 14
1 15
1 16
1 17
1 18
1 19
1 20
1 21
1 22
1 23
1 24
1 25
1 26
1 27
1 28
1 29
1 30
1 31
1 32
1 33
1 34
1 35
1 36
1 37
1 38
1 39
1 40
1 41
1 42
1 43
1 44
1 45
1 46
1 47
1 48
1 49
1 50
1 51
1 52
1 53
1 54
1 55
1 56
1 57
1 58
1 59
1 60
1 61
1 62
1 63
1 64
1 65
1 66
1 67
1 68
1 69
1 70
1 71
1 72
1 73
1 74
1 75
1 76
1 77
1 78
1 79
1 80
1 81
1 82
1 83
1 84
1 85
1 86
1 87
1 88
1 89
1 90
1 91
1 92
1 93
1 94
1 95
1 96
1 97
1 98
1 99
1 100
1 101
1 102
1 103
1 104
1 105
1 106
1 107
1 108
1 109
1 110
1 111
1 112
1 113
1 114
1 115
1 116
1 117
1 118
1 119
1 120
1 121
1 122
1 123
1 124
1 125
1 126
1 127
1 128
1 129
1 130
1 131
1 132
1 133
1 134
1 135
1 136
1 137
1 138
1 139
1 140
1 141
1 142
1 143
1 144
1 145
1 146
1 147
1 148
1 149
1 150
1 151
1 152
1 153
1 154
1 155
1 156
1 157
1 158
1 159
1 160
1 161
1 162
1 163
1 164
1 165
1 166
1 167
1 168
1 169
1 170
1 171
1 172
1 173
1 174
1 175
1 176
1 177
1 178
1 179
1 180
1 181
1 182
1 183
1 184
1 185
1 186
1 187
1 188
1 189
1 190
1 191
1 192
1 193
1 194
1 195
1 196
1 197
1 198
1 199
1 200
1 201
1 202
1 203
1 204
1 205
1 206
1 207
1 208
1 209
1 210
1 211
1 212
1 213
1 214
1 215
1 216
1 217
1 218
1 219
1 220
1 221
1 222
1 223
1 224
1 225
1 226
1 227
1 228
1 229
1 230
1 231
1 232
1 233
1 234
1 235
1 236
1 237
1 238
1 239
1 240
1 241
1 242
1 243
1 244
1 245
1 246
1 247
1 248
1 249
1 250
1 251
1 252
1 253
1 254
1 255
1 256
1 257
1 258
1 259
1 260
1 261
1 262
1 263
1 264
1 265
1 266
1 267
1 268
1 269
1 270
1 271
1 272
1 273
1 274

POINT_DATA 275
SCALARS id int 1
LOOKUP_TABLE default
1
2
4
5
6
7
8
9
10
11
12
13
14
16
17
19
21
22
23
24
25
26
27
28
29
30
31
32
33
34
35
36
37
38
39
41
42
44
45
47
48
49
50
51
52
53
54
55
56
57
59
60
61
62
63
64
65
66
67
68
69
70
71
72
73
74
76
77
78
79
80
82
83
84
85
86
87
88
89
90
91
92
93
94
95
96
97
98
99
100
101
102
103
104
105
106
107
108
109
110
111
112
113
114
115
116
117
118
119
120
121
122
123
124
125
127
128
129
130
131
132
133
134
135
136
137
138
140
141
142
143
144
146
147
148
149
150
151
153
154
155
156
157
158
159
160
162
164
165
166
167
168
169
170
171
172
173
174
176
177
178
179
182
183
184
185
186
187
188
189
190
191
192
193
194
195
196
197
198
199
200
201
202
203
204
205
206
207
208
209
210
211
212
213
214
215
216
217
218
219
220
222
224
225
226
227
228
229
230
232
233
234
235
236
237
239
240
241
242
243
244
246
247
248
249
250
251
252
253
254
255
256
257
258
259
260
261
262
263
264
265
266
267
268
269
270
271
272
273
274
275
276
277
278
279
280
281
283
284
285
286
287
288
289
290
291
292
293
294
295
296
297
298
299
300

SCALARS type int 1
LOOKUP_TABLE default
1
1
1
1
1
1
1
1
1
1
1
1
1
1
1
1
1
1
1
1
1
1
1
1
1
1
1
1
1
1
1
1
1
1
1
1
1
1
1
1
1
1
1
1
1
1
1
1
1
1
1
1
1
1
1
1
1
1
1
1
1
1
1
1
1
1
1
1
1
1
1
1
1
1
1
1
1
1
1
1
1
1
1
1
1
1
1
1
1
1
1
1
1
1
1
1
1
1
1
1
1
1
1
1
1
1
1
1
1
1
1
1
1
1
1
1
1
1
1
1
1
1
1
1
1
1
1
1
1
1
1
1
1
1
1
1
1
1
1
1
1
1
1
1
1
1
1
1
1
1
1
1
1
1
1
1
1
1
1
1
1
1
1
1
1
1
1
1
1
1
1
1
1
1
1
1
1
1
1
1
1
1
1
1
1
1
1
1
1
1
1
1
1
1
1
1
1
1
1
1
1
1
1
1
1
1
1
1
1
1
1
1
1
1
1
1
1
1
1
1
1
1
1
1
1
1
1
1
1
1
1
1
1
1
1
1
1
1
1
1
1
1
1
1
1
1
1
1
1
1
1
1
1
1
1
1
1
1
1
1
1
1
1
1
1
1
1
1
1
1
1
1
1
1
1

SCALARS radius float 1
LOOKUP_TABLE default
5e-05
5e-05
5e-05
5e-05
5e-05
5e-05
5e-05
5e-05
5e-05
5e-05
5e-05
5e-05
5e-05
5e-05
5e-05
5e-05
5e-05
5e-05
5e-05
5e-05
5e-05
5e-05
5e-05
5e-05
5e-05
5e-05
5e-05
5e-05
5e-05
5e-05
5e-05
5e-05
5e-05
5e-05
5e-05
5e-05
5e-05
5e-05
5e-05
5e-05
5e-05
5e-05
5e-05
5e-05
5e-05
5e-05
5e-05
5e-05
5e-05
5e-05
5e-05
5e-05
5e-05
5e-05
5e-05
5e-05
5e-05
5e-05
5e-05
5e-05
5e-05
5e-05
5e-05
5e-05
5e-05
5e-05
5e-05
5e-05
5e-05
5e-05
5e-05
5e-05
5e-05
5e-05
5e-05
5e-05
5e-05
5e-05
5e-05
5e-05
5e-05
5e-05
5e-05
5e-05
5e-05
5e-05
5e-05
5e-05
5e-05
5e-05
5e-05
5e-05
5e-05
5e-05
5e-05
5e-05
5e-05
5e-05
5e-05
5e-05
5e-05
5e-05
5e-05
5e-05
5e-05
5e-05
5e-05
5e-05
5e-05
5e-05
5e-05
5e-05
5e-05
5e-05
5e-05
5e-05
5e-05
5e-05
5e-05
5e-05
5e-05
5e-05
5e-05
5e-05
5e-05
5e-05
5e-05
5e-05
5e-05
5e-05
5e-05
5e-05
5e-05
5e-05
5e-05
5e-05
5e-05
5e-05
5e-05
5e-05
5e-05
5e-05
5e-05
5e-05
5e-05
5e-05
5e-05
5e-05
5e-05
5e-05
5e-05
5e-05
5e-05
5e-05
5e-05
5e-05
5e-05
5e-05
5e-05
5e-05
5e-05
5e-05
5e-05
5e-05
5e-05
5e-05
5e-05
5e-05
5e-05
5e-05
5e-05
5e-05
5e-05
5e-05
5e-05
5e-05
5e-05
5e-05
5e-05
5e-05
5e-05
5e-05
5e-05
5e-05
5e-05
5e-05
5e-05
5e-05
5e-05
5e-05
5e-05
5e-05
5e-05
5e-05
5e-05
5e-05
5e-05
5e-05
5e-05
5e-05
5e-05
5e-05
5e-05
5e-05
5e-05
5e-05
5e-05
5e-05
5e-05
5e-05
5e-05
5e-05
5e-05
5e-05
5e-05
5e-05
5e-05
5e-05
5e-05
5e-05
5e-05
5e-05
5e-05
5e-05
5e-05
5e-05
5e-05
5e-05
5e-05
5e-05
5e-05
5e-05
5e-05
5e-05
5e-05
5e-05
5e-05
5e-05
5e-05
5e-05
5e-05
5e-05
5e-05
5e-05
5e-05
5e-05
5e-05
5e-05
5e-05
5e-05
5e-05
5e-05
5e-05
5e-05
5e-05
5e-05
5e-05
5e-05
5e-05
5e-05
5e-05
5e-05
5e-05
5e-05
5e-05
5e-05
5e-05
5e-05
5e-05
5e-05
5e-05
5e-05
5e-05
5e-05
5e-05

SCALARS mass float 1
LOOKUP_TABLE default
1.46608e-10
1.46608e-10
1.46608e-10
1.46608e-10
1.46608e-10
1.46608e-10
1.46608e-10
1.46608e-10
1.46608e-10
1.46608e-10
1.46608e-10
1.46608e-10
1.46608e-10
1.46608e-10
1.46608e-10
1.46608e-10
1.46608e-10
1.46608e-10
1.46608e-10
1.46608e-10
1.46608e-10
1.46608e-10
1.46608e-10
1.46608e-10
1.46608e-10
1.46608e-10
1.46608e-10
1.46608e-10
1.46608e-10
1.46608e-10
1.46608e-10
1.46608e-10
1.46608e-10
1.46608e-10
1.46608e-10
1.46608e-10
1.46608e-10
1.46608e-10
1.46608e-10
1.46608e-10
1.46608e-10
1.46608e-10
1.46608e-10
1.46608e-10
1.46608e-10
1.46608e-10
1.46608e-10
1.46608e-10
1.46608e-10
1.46608e-10
1.46608e-10
1.46608e-10
1.46608e-10
1.46608e-10
1.46608e-10
1.46608e-10
1.46608e-10
1.46608e-10
1.46608e-10
1.46608e-10
1.46608e-10
1.46608e-10
1.46608e-10
1.46608e-10
1.46608e-10
1.46608e-10
1.46608e-10
1.46608e-10
1.46608e-10
1.46608e-10
1.46608e-10
1.46608e-10
1.46608e-10
1.46608e-10
1.46608e-10
1.46608e-10
1.46608e-10
1.46608e-10
1.46608e-10
1.46608e-10
1.46608e-10
1.46608e-10
1.46608e-10
1.46608e-10
1.46608e-10
1.46608e-10
1.46608e-10
1.46608e-10
1.46608e-10
1.46608e-10
1.46608e-10
1.46608e-10
1.46608e-10
1.46608e-10
1.46608e-10
1.46608e-10
1.46608e-10
1.46608e-10
1.46608e-10
1.46608e-10
1.46608e-10
1.46608e-10
1.46608e-10
1.46608e-10
1.46608e-10
1.46608e-10
1.46608e-10
1.46608e-10
1.46608e-10
1.46608e-10
1.46608e-10
1.46608e-10
1.46608e-10
1.46608e-10
1.46608e-10
1.46608e-10
1.46608e-10
1.46608e-10
1.46608e-10
1.46608e-10
1.46608e-10
1.46608e-10
1.46608e-10
1.46608e-10
1.46608e-10
1.46608e-10
1.46608e-10
1.46608e-10
1.46608e-10
1.46608e-10
1.46608e-10
1.46608e-10
1.46608e-10
1.46608e-10
1.46608e-10
1.46608e-10
1.46608e-10
1.46608e-10
1.46608e-10
1.46608e-10
1.46608e-10
1.46608e-10
1.46608e-10
1.46608e-10
1.46608e-10
1.46608e-10
1.46608e-10
1.46608e-10
1.46608e-10
1.46608e-10
1.46608e-10
1.46608e-10
1.46608e-10
1.46608e-10
1.46608e-10
1.46608e-10
1.46608e-10
1.46608e-10
1.46608e-10
1.46608e-10
1.46608e-10
1.46608e-10
1.46608e-10
1.46608e-10
1.46608e-10
1.46608e-10
1.46608e-10
1.46608e-10
1.46608e-10
1.46608e-10
1.46608e-10
1.46608e-10
1.46608e-10
1.46608e-10
1.46608e-10
1.46608e-10
1.46608e-10
1.46608e-10
1.46608e-10
1.46608e-10
1.46608e-10
1.46608e-10
1.46608e-10
1.46608e-10
1.46608e-10
1.46608e-10
1.46608e-10
1.46608e-10
1.46608e-10
1.46608e-10
1.46608e-10
1.46608e-10
1.46608e-10
1.46608e-10
1.46608e-10
1.46608e-10
1.46608e-10
1.46608e-10
1.46608e-10
1.46608e-10
1.46608e-10
1.46608e-10
1.46608e-10
1.46608e-10
1.46608e-10
1.46608e-10
1.46608e-10
1.46608e-10
1.46608e-10
1.46608e-10
1.46608e-10
1.46608e-10
1.46608e-10
1.46608e-10
1.46608e-10
1.46608e-10
1.46608e-10
1.46608e-10
1.46608e-10
1.46608e-10
1.46608e-10
1.46608e-10
1.46608e-10
1.46608e-10
1.46608e-10
1.46608e-10
1.46608e-10
1.46608e-10
1.46608e-10
1.46608e-10
1.46608e-10
1.46608e-10
1.46608e-10
1.46608e-10
1.46608e-10
1.46608e-10
1.46608e-10
1.46608e-10
1.46608e-10
1.46608e-10
1.46608e-10
1.46608e-10
1.46608e-10
1.46608e-10
1.46608e-10
1.46608e-10
1.46608e-10
1.46608e-10
1.46608e-10
1.46608e-10
1.46608e-10
1.46608e-10
1.46608e-10
1.46608e-10
1.46608e-10
1.46608e-10
1.46608e-10
1.46608e-10
1.46608e-10
1.46608e-10
1.46608e-10
1.46608e-10
1.46608e-10
1.46608e-10
1.46608e-10
1.46608e-10
1.46608e-10
1.46608e-10
1.46608e-10
1.46608e-10
1.46608e-10
1.46608e-10
1.46608e-10
1.46608e-10
1.46608e-10

VECTORS velocity float
0.00557115 -0.000388761 8.38779e-05
0.00608074 -0.000548018 -0.000257654
0.00606741 -0.000569098 -0.000248819
0.00556476 -0.000524789 -1.65927e-05
0.0059169 4.16931e-06 0.00112646
0.00569262 -0.000318211 -0.000130427
0.00602703 -0.000552209 -0.000251961
0.00618674 -0.000696114 8.4912e-05
0.00553983 -0.000242758 0.000189886
0.00568026 -0.000334914 7.57681e-05
0.00635837 0.000357304 -0.000580214
0.00566062 -0.000641858 -6.98389e-05
0.00611917 0.00031686 0.000269385
0.00554451 0.000748881 -3.74604e-05
0.00548752 -0.000233006 0.000177083
0.00563935 -0.000636711 -7.13126e-05
0.00565532 -0.000297249 6.87304e-05
0.0058759 -0.000603868 -0.000218764
0.00651932 0.000447786 -0.000639495
0.00611766 -0.00057326 0.000400035
0.00556921 -0.000242464 0.000194159
0.00618529 -0.00058911 0.000413377
0.00590154 0.000327866 0.000251309
0.0060758 -0.000559161 -0.00025354
0.00558299 -0.000625703 -7.82011e-05
0.00559163 -0.000301204 8.46486e-05
0.00567843 -0.000378313 -0.000295176
0.0055923 -0.000243542 0.000194996
0.00599425 9.83146e-06 0.00114377
0.00546132 -0.000230787 0.00016959
0.00557507 -0.00053812 -0.000221742
0.00611419 -0.000599274 0.000506868
0.00605727 -0.000563902 -0.000250119
0.00612147 -0.000568686 -0.000253159
0.00616611 -0.000584215 0.000404283
0.0053871 -0.000218687 0.000163155
0.00606608 -0.000579916 -0.000245029
0.00608293 -0.000608789 -0.000235966
0.00604634 7.8287e-06 0.0011546
0.0054418 -0.000225619 0.000168981
0.00575766 -0.000391952 8.20327e-05
0.00617565 -0.000675418 0.000144264
0.00565033 -0.000250332 0.000208205
0.00570075 -0.000266736 6.50938e-05
0.00647029 0.000330444 -0.000568641
0.00605045 -0.000563431 0.000394894
0.00564918 -0.000250796 5.84572e-05
0.00605926 0.000289298 0.000282117
0.00569874 -0.000380512 8.35795e-05
0.00601396 -0.000561319 0.000389026
-5.01977e-15 -7.41213e-15 7.69802e-14
0.00561606 -0.000492323 -0.000242626
0.00540224 -0.000293795 0.000109201
0.00609527 -0.000596877 -0.000241421
0.00557755 -0.000376797 9.26627e-05
0.00608248 -0.000569735 0.000397713
0.00607677 0.00028554 0.000283686
0.00663257 0.00018949 -0.000526003
0.0057349 -0.00036251 8.11445e-05
0.00612023 -0.000567676 -0.000253559
0.00571535 -0.000369504 8.18058e-05
0.00618772 -0.000719691 1.02637e-06
0.00542602 0.000651827 -0.000574676
0.00551371 -0.000452525 9.65463e-05
0.00557749 -0.000246625 0.000195707
0.00561566 -0.000246147 0.000200379
0.00596659 0.000310289 0.000266857
0.00610142 -0.000548711 -0.000258856
0.00582235 0.000330539 0.000221493
0.00646855 3.40903e-05 -6.54884e-05
0.00609101 -0.000560751 -0.000253884
0.00616427 0.000427505 0.000239864
0.00640166 0.000342517 -0.000574749
0.00615966 -0.000612889 0.000514631
0.00731248 0.000769795 -0.000839308
0.00612729 -0.000563648 -0.000255236
0.00606324 -0.00055575 -0.000253202
0.00568127 -0.000378089 -0.000240915
0.00565706 -0.000252866 5.63697e-05
0.00565788 -0.00024794 5.66729e-05
0.00631748 0.000373567 -0.000583386
0.00566811 -0.000385735 -5.12416e-05
0.00576603 -0.000475614 -0.000259471
0.0055994 -0.000274241 5.63403e-05
0.00613718 -0.000547734 -0.000254249
0.0056998 -0.000454094 -0.000242394
0.00565633 0.000359717 0.000227407
0.00566003 -0.000456721 -0.00026662
0.00616813 0.000300158 0.000329048
0.00566735 -0.000288584 6.91182e-05
0.00590313 0.000339878 0.000258302
4.3786e-15 1.04226e-14 8.29639e-14
-6.8136e-23 -1.27651e-22 -5.81428e-22
0.00565165 0.000754401 -5.44603e-05
0.00567512 0.000387511 0.000190353
0.00614996 0.000331946 0.00026851
0.00563166 0.000395121 0.000188792
0.00555575 -0.000364706 7.99742e-05
0.00566644 -0.000392722 -0.000280632
0.00606837 -0.000549156 -0.000255695
0.00605011 -0.000541634 -0.000257906
0.00545018 0.000389871 0.000184088
0.00610678 0.000343695 0.000257786
0.00615433 0.000328361 0.00026969
0.00610985 -0.000561042 -0.000255002
0.00574913 -0.000359501 8.07148e-05
0.00568468 -0.000366749 -0.000285924
0.00647095 0.000314452 -0.000557669
0.00564399 -0.000230544 5.0206e-05
0.00601111 -0.000548372 -0.000252075
0.0056659 -0.000367881 8.15472e-05
0.00613368 -0.000559798 -0.000257305
0.00544622 0.000538219 -0.00133052
0.00585815 -0.000496599 -0.000260155
0.00573676 -0.000412602 -0.000276921
0.00564146 0.000367483 0.000205554
0.00559937 -0.000402762 -0.000151824
0.00552947 -0.000540147 -4.38996e-05
0.00619704 0.000296921 0.000286098
0.00621838 0.000301566 0.0002995
0.00607817 -0.000569618 -0.000249276
0.00567568 -0.00020984 5.01284e-05
0.00566321 -0.000319072 6.93133e-05
0.00566906 -0.000267153 6.25667e-05
0.0060393 0.000288473 0.000281264
0.00553878 -0.000601395 -0.000219379
0.00565854 -0.0003658 8.91771e-05
0.00611411 -0.000554302 -0.000257483
0.00581702 0.00033596 0.000239696
0.00658224 0.00020126 -0.000527928
0.00567267 0.000405836 0.000198737
0.00660425 0.000352445 -0.000596737
0.00551379 0.000397585 0.000186068
0.00616011 0.000307526 0.00027404
0.00583618 0.000336108 0.000240108
0.00602283 -0.000534919 -0.000257366
0.00532121 0.000598554 0.000388441
0.00606746 -0.00106739 0.00123746
0.00585545 0.00033011 0.000245071
0.00546145 0.000391282 0.000180693
0.00563868 0.000389987 0.000192997
0.00579996 0.000341 0.000235668
-3.82473e-14 8.17115e-14 2.95886e-13
0.00588399 0.000320021 0.000252877
0.00610401 -0.000564649 -0.000253088
0.00585827 0.000331328 0.000244211
0.00607053 0.000667012 8.37853e-05
0.00572243 0.000415337 0.000189906
0.00593784 0.000354288 0.000195651
0.00573488 -0.000388333 8.70656e-05
0.00516132 -0.00215487 -0.000169802
0.00625453 0.00135516 -0.000362126
0.0051902 0.000220221 0.000322881
0.00581656 -0.00103404 -0.000410352
0.00480715 0.00083969 -0.000154268
0.00608637 0.000347919 0.000255528
0.00553317 -0.000422566 1.90431e-05
0.00579118 0.000397534 0.000205997
0.00605671 0.000313917 0.000267796
0.00564229 0.000402991 0.000191003
0.00610981 0.000310735 0.000266528
0.00593411 0.000335753 0.000222011
0.00562147 0.000118156 -1.08476e-05
0.00623117 0.000258231 0.00028376
0.00570678 -0.000379749 7.80802e-05
0.00666496 0.00032002 -0.000587828
0.00524679 0.000532741 -0.000593323
0.00552405 -0.000375082 7.562e-05
0.00611457 -0.000579572 -0.000248169
0.00560883 -0.000362951 7.63417e-05
0.00583422 0.00055737 -0.000305498
0.00603371 -0.000539062 -0.000257448
0.00613073 0.000339329 0.000259645
0.00483073 0.000594589 -0.000106233
0.00618925 0.000434271 0.000213163
0.00588372 0.000423224 0.000194663
0.00615022 0.00045971 0.000206638
0.00614782 0.000584125 -1.06576e-05
0.00644683 0.00032341 -0.000563126
0.00618206 0.000284418 0.000357676
0.00540496 0.00039298 0.000187869
0.00658837 0.00032399 0.000191742
0.00593348 0.000318968 0.00025765
0.00565879 -0.000316625 6.81308e-05
0.00637229 0.000368336 -0.000561997
0.00583976 0.00033831 0.000240742
0.00589316 0.000332883 0.000246031
0.00573789 0.00037185 0.000215527
0.00649022 0.000336634 -0.000575898
0.00607278 0.000285525 0.000285864
0.0060405 -0.000555265 -0.000251779
0.00605366 -0.000554877 -0.000252708
0.00597232 0.000468604 0.000188352
0.00557273 -0.000388499 -2.20355e-05
0.0061069 -0.000563105 -0.000253655
0.00637405 0.000442503 -0.000316653
0.0057081 0.000395016 0.000200267
0.00578814 0.0010618 -0.000195496
0.00618664 0.000329161 0.00027369
0.00595956 -0.000518681 -0.000258961
0.00607392 0.000506906 0.000167091
0.0056542 -0.000380281 -0.000286523
0.00593316 0.00032117 0.000255012
0.00606459 -0.00054577 -0.000256909
0.00610953 0.000330802 0.000270935
0.00634321 0.000444941 -0.000308756
0.00639744 0.000460529 -0.000312771
0.00683342 0.000502587 0.000193052
0.00591599 0.000340517 0.000244843
0.0057221 0.000272841 0.000232968
0.00530648 -0.00187957 -0.000396664
0.00555205 -0.000578191 -0.00020183
0.00587136 0.000344943 0.00023836
0.00599797 0.000344867 0.000247869
0.00603332 0.000353797 0.000248619
0.00588431 0.000627319 -7.73899e-05
0.00601157 0.000604846 -4.95705e-05
0.00581859 0.000625546 -8.16386e-05
0.0062609 0.000387069 -0.000587593
0.00623045 0.000267236 0.000313717
0.00592553 0.000625756 -7.4679e-05
0.00639828 0.00055167 2.71143e-05
0.00580114 0.000370831 0.00021975
0.00609251 0.000314892 0.000270462
0.00622841 0.000555678 8.20764e-06
0.00579143 0.000347645 0.000229716
0.00566853 -0.000302672 6.39077e-05
0.00643501 0.000553641 3.22158e-05
0.00582418 0.000561532 -0.00030576
0.00625489 0.000551828 5.94414e-06
0.0057094 0.000466444 -0.00010022
0.00560654 0.000577926 -0.000606266
0.00591029 0.000341034 0.000243687
0.00607775 0.000309704 0.000272019
0.00645524 0.000505578 -0.000135195
0.00575337 -0.000877963 -0.000138339
0.00603298 0.000316525 0.00026555
0.00606145 0.000352372 0.000251789
0.00622105 0.00056336 8.50264e-06
0.00568159 0.000403921 0.000192825
0.00586286 0.000561079 -0.00030709
0.00591454 0.000297566 0.000219789
0.00582173 0.000349196 0.000233329
0.00650684 0.00034164 -0.000578848
0.00619537 0.000268032 0.000306331
0.00612612 -0.000558868 -0.000255987
0.00591628 0.000320766 0.000206233
0.00637624 0.000449957 -0.000310064
0.00585863 0.000334576 0.000242242
0.00647186 0.000444733 -0.000397454
0.0057565 0.000414106 0.000194936
0.00576163 0.000356827 0.000224876
0.00582164 0.000364587 0.000225067
0.00610002 0.00029735 0.000281914
0.00636736 0.0004823 -0.000315652
0.00602414 0.000515502 -0.000307021
0.0058993 0.000354403 0.000224051
0.00597317 0.000622011 -6.51568e-05
0.00594678 0.000341163 0.000247056
0.00596525 0.000319869 0.000256662
0.00570795 0.000416323 0.000188954
0.00588848 0.000335653 0.00024346
0.00600882 0.000429935 0.000185242
0.00568281 0.000406281 0.000192164
0.00600395 0.000302168 0.000274235
0.0061899 0.000324626 0.000276553
0.00348774 -0.0012781 0.00136854
0.00599842 0.000319377 0.000260706
0.00597243 0.000338546 0.000248856
0.00581494 0.000560087 -0.000305231
0.00585356 0.000359515 0.000230751
0.00552914 -0.000373432 8.64184e-05
0.00606228 0.00058475 -3.01536e-05
0.00631402 0.000557402 1.27676e-05
0.005671 -0.000351831 7.4482e-05

VECTORS force float
8.74027e-11 2.27427e-11 -2.60535e-11
-1.19813e-10 -2.51473e-11 2.92636e-11
3.52143e-11 4.13751e-11 -2.05445e-11
1.6977e-10 1.37315e-11 -1.51764e-11
-4.1909e-11 -1.19698e-10 1.29199e-10
6.61758e-11 -5.20545e-11 2.52458e-11
1.88479e-12 3.59959e-11 -1.56912e-11
2.28818e-11 -7.64184e-12 -1.69308e-10
6.54483e-11 -2.08628e-11 4.15491e-11
-1.60162e-10 3.59734e-11 6.45649e-11
8.96869e-11 -1.06209e-10 4.09999e-12
6.59544e-11 1.39197e-11 -2.19362e-11
2.98903e-11 -1.60465e-11 -1.86951e-11
3.87712e-10 -3.35102e-10 -3.9088e-11
2.97209e-13 -1.25249e-11 2.29338e-11
9.40011e-11 -6.29339e-11 6.37524e-11
6.27777e-11 -2.18144e-10 5.25983e-11
1.24363e-10 4.78097e-11 7.5838e-12
1.9458e-10 -7.61109e-10 -4.60918e-10
-4.02114e-11 7.23411e-12 -1.15377e-11
-3.46178e-10 1.05123e-10 -4.71358e-11
1.5363e-10 -1.15467e-11 4.1578e-11
2.76939e-10 -1.9005e-10 1.13987e-10
-2.22972e-11 4.1145e-11 -8.1405e-12
-4.6421e-11 -9.29581e-11 1.59541e-10
-6.67115e-11 -1.1319e-11 -1.21074e-10
2.32333e-10 1.73457e-10 -1.41082e-10
9.19831e-12 4.13155e-11 -1.13876e-10
-5.92847e-11 -8.13242e-11 3.31816e-11
-8.84563e-11 -7.53494e-13 7.84668e-12
-7.88979e-11 -2.77305e-11 1.84008e-11
1.20864e-11 -9.86082e-12 -1.41338e-13
4.319e-11 4.32336e-11 -2.11663e-11
-2.05343e-13 5.66412e-12 -1.07995e-11
1.82538e-10 -6.88967e-11 3.22718e-11
-1.95418e-11 1.70265e-11 -1.66034e-11
-3.81734e-11 -5.94118e-13 4.6814e-12
4.53206e-11 2.595e-11 -1.54106e-11
1.47732e-10 4.4543e-11 7.26148e-11
-4.47047e-11 -2.06024e-11 -1.66724e-13
6.80688e-11 7.47779e-11 -1.88572e-11
8.36066e-11 -5.33979e-12 -1.67624e-10
2.23315e-10 3.0044e-11 -1.12286e-10
-1.12888e-11 -5.69513e-11 -1.63728e-11
1.43449e-10 -7.89236e-11 -2.92875e-11
1.49427e-10 1.29518e-11 -1.94715e-11
5.86445e-11 2.35268e-10 -4.42772e-11
6.63619e-11 -2.04372e-11 3.72428e-11
3.42226e-11 -2.369e-11 9.2859e-12
-8.62836e-11 -4.0156e-11 -7.7163e-11
5.91951e-24 -4.1359e-24 0.0
-1.22066e-10 5.39965e-11 -8.36383e-12
8.43237e-11 7.60225e-12 -2.54456e-11
-2.63327e-11 -3.20233e-11 1.97469e-11
5.87386e-11 -9.90434e-11 2.56194e-10
7.0848e-11 5.06349e-11 -4.171e-11
8.12901e-11 2.11016e-11 -2.844e-12
6.19516e-11 -1.20494e-10 -1.29533e-10
1.86931e-10 -7.10645e-11 -1.01113e-11
-6.73446e-11 7.49971e-12 9.65622e-12
1.98433e-10 -3.70394e-12 -6.87073e-12
-4.63335e-11 -7.74217e-11 -3.01133e-10
2.98668e-09 -2.06927e-09 1.88822e-09
-7.88571e-11 -2.21525e-10 5.3237e-11
-2.16514e-11 1.01153e-11 3.15117e-11
6.81709e-11 9.09434e-11 -5.27285e-11
1.26627e-10 -1.00365e-10 7.15118e-11
-5.41231e-11 9.36517e-11 -3.87047e-11
1.56034e-09 4.42878e-10 5.44324e-10
3.91893e-10 -4.50646e-10 1.95498e-09
-3.89083e-11 3.76271e-12 -4.64717e-12
-1.98502e-10 -1.02861e-10 9.56598e-11
7.24725e-11 -8.27917e-11 5.84142e-12
-3.06317e-11 1.2043e-11 -6.98253e-12
-5.46776e-10 4.82981e-10 -2.45343e-10
5.89362e-12 1.46607e-11 -3.77155e-12
4.84647e-11 3.93286e-11 -8.39836e-12
5.53422e-11 -1.39299e-11 -1.36967e-10
-6.76308e-11 -1.28121e-10 -4.25191e-11
1.22808e-11 1.92861e-10 -3.12499e-11
2.38774e-10 -2.5918e-10 8.32192e-11
-1.93214e-12 3.26763e-11 8.2803e-11
-3.31008e-11 -7.96439e-11 -5.45105e-12
4.85385e-11 -3.76068e-11 6.49738e-11
-9.70364e-11 1.83967e-11 -4.15327e-11
-1.47094e-10 1.41e-10 -6.73955e-12
2.59201e-10 3.11842e-10 -3.93309e-10
-9.66356e-11 -6.91658e-11 3.97034e-12
1.27243e-10 2.10787e-10 -1.79372e-11
1.33924e-10 -2.82226e-10 7.57215e-11
8.62949e-10 3.5392e-10 1.24006e-10
-5.56227e-22 -6.2478e-23 4.21862e-23
3.23117e-27 0.0 0.0
1.40545e-08 -4.91271e-09 3.19893e-09
-1.81594e-10 3.43153e-10 -1.34693e-10
-3.94709e-10 -2.25088e-10 3.19605e-10
1.24902e-10 8.54388e-11 1.19047e-09
3.72729e-11 -6.40823e-11 1.04625e-12
-4.05695e-11 -5.71653e-11 -2.53964e-11
1.3566e-10 1.58598e-11 -1.16443e-11