# vtk DataFile Version 3.0
LIGGGHTS particles timestep 53800000
ASCII
DATASET POLYDATA
POINTS 275 float
0.326886 0.0178883 0.00714971
0.326587 0.0167893 0.00754653
0.326736 0.0167548 0.00746174
0.326294 0.0158066 0.00826032
0.332688 0.0173724 0.00736768
0.326874 0.0173947 0.00724535
0.326601 0.0165777 0.00760858
0.332879 0.0182662 0.00696253
0.326563 0.0164282 0.00773589
0.326835 0.0176469 0.00727617
0.320923 0.0172377 0.00741913
0.326272 0.0157322 0.00832354
0.320844 0.017659 0.00722632
0.321046 0.018148 0.00698208
0.326402 0.0161785 0.00794424
0.32625 0.0156578 0.00838676
0.326896 0.0176167 0.00720323
0.326827 0.0167244 0.00749204
0.321102 0.0179347 0.00707856
0.332803 0.0179077 0.00712265
0.326542 0.016353 0.00779986
0.332841 0.0180869 0.00704259
0.320713 0.0170994 0.00751875
0.326565 0.0167849 0.0074492
0.326228 0.0155835 0.00844998
0.326488 0.0164763 0.00769131
0.326984 0.0174508 0.00724012
0.326424 0.0162528 0.00788104
0.332708 0.0174595 0.00732276
0.326381 0.0161041 0.00800745
0.326834 0.0172011 0.00728103
0.332937 0.0185351 0.00684245
0.326717 0.0166798 0.00752561
0.326793 0.0170088 0.00731642
0.332822 0.0179973 0.00708262
0.326337 0.0159553 0.00813389
0.326884 0.0169684 0.007329
0.326924 0.017161 0.00729354
0.332727 0.0175491 0.00728277
0.326359 0.0160297 0.00807073
0.326723 0.0175244 0.00722564
0.332898 0.0183558 0.00692251
0.326446 0.0163272 0.00781798
0.326972 0.0175519 0.00721981
0.321064 0.0174783 0.00729604
0.332765 0.0177284 0.0072027
0.32687 0.0182415 0.00708003
0.320863 0.0174053 0.00734444
0.326891 0.0183377 0.00706235
0.332746 0.0176388 0.00724274
0.378022 0.019866 0.005332
0.326944 0.0172574 0.00727577
0.326316 0.0158809 0.0081972
0.326812 0.0171065 0.00730689
0.326905 0.0179848 0.00713193
0.332784 0.017818 0.00716267
0.320826 0.0175705 0.00726951
0.321168 0.0181902 0.00704698
0.326924 0.0177119 0.00718609
0.326696 0.0169772 0.00731755
0.32702 0.0177455 0.0071845
0.33286 0.0181766 0.00700256
0.321248 0.018181 0.0069525
0.326966 0.0182741 0.00707867
0.326865 0.0168829 0.00737719
0.326467 0.0164016 0.00775458
0.320735 0.0171803 0.00745922
0.326583 0.0168739 0.00749334
0.320273 0.0156827 0.00825938
0.321114 0.0186037 0.00689314
0.32666 0.0168102 0.00742772
0.321001 0.0181511 0.00707152
0.32096 0.0173475 0.00736482
0.332918 0.0184455 0.00688248
0.321139 0.0184013 0.00689264
0.326903 0.0170648 0.00731119
0.32664 0.0167304 0.00748557
0.326824 0.0173601 0.00733585
0.327 0.0180174 0.00713049
0.326945 0.0178095 0.00716814
0.320833 0.0172005 0.00744289
0.326718 0.0173091 0.00734501
0.327068 0.0173979 0.00725475
0.326758 0.0177103 0.00726883
0.326846 0.0174585 0.00731716
0.326644 0.0171377 0.00728356
0.320463 0.0160438 0.00802489
0.327069 0.0175785 0.00721961
0.320817 0.0179771 0.00708531
0.326893 0.0174912 0.00722755
0.320835 0.0180626 0.00703694
0.0643568 0.0187248 0.00531097
0.24257 0.0191927 0.00520306
0.32115 0.0182021 0.00694936
0.320442 0.0159607 0.00807613
0.320893 0.0181157 0.00709926
0.320295 0.0157592 0.00819879
0.327041 0.0182099 0.00709506
0.327039 0.017842 0.00716669
0.326698 0.016779 0.00755101
0.326525 0.0166264 0.00756461
0.320509 0.0158984 0.00811598
0.320739 0.0176164 0.0072537
0.320778 0.0177981 0.00716544
0.326773 0.0169159 0.00734752
0.326817 0.0175565 0.00721085
0.326854 0.017298 0.00726316
0.320907 0.0175155 0.00728946
0.32702 0.0181137 0.00711274
0.326697 0.0166052 0.00758913
0.326811 0.0179524 0.00713335
0.326624 0.0170467 0.00732009
0.32125 0.0182714 0.0069098
0.326845 0.0167991 0.00742836
0.326739 0.0171694 0.00728228
0.320484 0.016127 0.00797355
0.326677 0.0165304 0.00765275
0.326869 0.0175558 0.00729982
0.320882 0.0178356 0.00714055
0.3209 0.017924 0.00709765
0.326755 0.0168343 0.00740322
0.326808 0.017688 0.00718474
0.326799 0.0174589 0.00722895
0.326998 0.017647 0.00720259
0.320868 0.0173148 0.00738664
0.326747 0.0174224 0.00732028
0.326684 0.0173312 0.00725369
0.326584 0.0168657 0.00739368
0.320706 0.0166784 0.00769749
0.321083 0.0178465 0.00712144
0.320317 0.0158423 0.00814752
0.321045 0.0176699 0.00720722
0.32036 0.0160123 0.00805149
0.320862 0.0177474 0.00718343
0.320728 0.0167661 0.00765469
0.326582 0.0165029 0.00767223
0.320965 0.0186797 0.00696023
0.320968 0.0182788 0.00692592
0.320748 0.0168542 0.00761182
0.320338 0.0159254 0.00809626
0.320381 0.0160941 0.00799817
0.320684 0.0165906 0.0077403
0.0219312 0.0187687 0.00551176
0.32081 0.0170235 0.00752782
0.326679 0.0168905 0.0073708
0.320854 0.0181509 0.00699405
0.321053 0.0183304 0.00699064
0.320445 0.0163579 0.00786655
0.32106 0.0183397 0.00689129
0.326704 0.0174264 0.00723037
0.320916 0.0184416 0.00696237
0.321036 0.0186662 0.00689013
0.320928 0.0185026 0.00688397
0.321028 0.0185523 0.00688887
0.326925 0.0180814 0.00711412
0.32072 0.0175281 0.00729659
0.326981 0.0179209 0.00714827
0.320487 0.0165336 0.0077809
0.320778 0.0174513 0.00740259
0.320505 0.0162144 0.00792988
0.320848 0.0179532 0.00717734
0.320977 0.0183883 0.00702164
0.32683 0.0180488 0.00711556
0.320911 0.0182045 0.00705696
0.326941 0.0178855 0.00723298
0.321064 0.0177581 0.00716435
0.321233 0.0183691 0.00689664
0.32685 0.0177773 0.00716952
0.326718 0.0170731 0.00730001
0.326791 0.0178559 0.00715113
0.314855 0.0181645 0.00719612
0.326507 0.0165509 0.00762746
0.320759 0.0177098 0.00720833
0.326945 0.0181777 0.00709637
0.321028 0.0182361 0.00702597
0.320956 0.0181893 0.00696891
0.321008 0.017967 0.00706994
0.314549 0.0167395 0.00757198
0.321047 0.0173895 0.00733898
0.320946 0.0182933 0.00702619
0.320414 0.0158707 0.00813158
0.321063 0.018249 0.00693332
0.320806 0.017114 0.00748544
0.326779 0.0173625 0.00724673
0.321121 0.018023 0.00703567
0.320653 0.016833 0.00763812
0.320695 0.0170046 0.00754472
0.320569 0.016478 0.00780138
0.320962 0.017438 0.00732218
0.320807 0.0174821 0.00731214
0.32662 0.0166524 0.00754496
0.326545 0.0167046 0.0075055
0.321152 0.0183026 0.00690191
0.326778 0.017802 0.00723426
0.326696 0.0171424 0.00736864
0.314755 0.0176781 0.0071422
0.320548 0.0163902 0.0078442
0.32685 0.0181452 0.00709778
0.320797 0.0178864 0.00712255
0.326807 0.0166497 0.00755564
0.32092 0.0180122 0.00705477
0.326964 0.0173542 0.00725793
0.320614 0.0170607 0.00752394
0.326563 0.0167109 0.00760366
0.320951 0.017994 0.00714793
0.314774 0.0177758 0.00715279
0.314717 0.0174837 0.00716261
0.321111 0.0184975 0.00689219
0.320615 0.0170545 0.00762376
0.321021 0.0184526 0.00688775
0.320894 0.0183417 0.00694902
0.326977 0.0177173 0.0072705
0.320572 0.016885 0.0076096
0.320704 0.0173102 0.00748502
0.320683 0.0173661 0.00740477
0.314446 0.0164295 0.00795046
0.31451 0.0166152 0.00772376
0.314425 0.0163676 0.00802602
0.321015 0.0172703 0.00739737
0.320988 0.0178786 0.00711289
0.314467 0.0164914 0.00787489
0.314638 0.0171087 0.00727641
0.320509 0.0166214 0.00773807
0.320802 0.0176608 0.00731727
0.314582 0.0168626 0.00742096
0.32061 0.0166538 0.00771571
0.326759 0.0172657 0.00726457
0.314658 0.0172014 0.0072447
0.314834 0.0180675 0.00718505
0.314598 0.016925 0.00734445
0.320761 0.0170317 0.00761464
0.321138 0.0181117 0.00699274
0.320769 0.0169421 0.007569
0.320786 0.0175676 0.00736076
0.314677 0.0172952 0.00721635
0.320965 0.0183698 0.00688455
0.320778 0.0173555 0.00737377
0.320701 0.0174398 0.00733948
0.31457 0.0168121 0.00750647
0.320402 0.0161807 0.00795293
0.314877 0.0182615 0.00720718
0.320939 0.0181005 0.00701188
0.320632 0.0167417 0.00767288
0.321012 0.0175569 0.00726272
0.32097 0.0177902 0.0071558
0.326604 0.0169534 0.00734988
0.320978 0.018748 0.0068882
0.314736 0.0175799 0.0071429
0.320673 0.0169168 0.00758755
0.314697 0.0173891 0.00718803
0.320466 0.0164457 0.00782372
0.320589 0.016566 0.00775853
0.32053 0.0167093 0.00769525
0.320928 0.0176089 0.00724401
0.314886 0.0179042 0.00718297
0.314792 0.0178726 0.0071692
0.320874 0.0182469 0.00697416
0.314489 0.0165533 0.00779934
0.320635 0.0171433 0.00758095
0.320635 0.0171487 0.0074811
0.320424 0.0162685 0.0079101
0.320593 0.0169728 0.00756677
0.321027 0.0180553 0.00702703
0.320526 0.0163023 0.00788703
0.320763 0.0172665 0.00741672
0.32095 0.0177017 0.00719882
0.32095 0.0186148 0.00688586
0.320655 0.0172367 0.00743824
0.320682 0.0172214 0.00753336
0.314812 0.0179706 0.00717399
0.320551 0.0167971 0.00765242
0.326743 0.0176225 0.00722342
0.314531 0.0166772 0.00764802
0.314618 0.0170175 0.00731207
0.326664 0.017234 0.00726582

VERTICES 275 550
1 0
1 1
1 2
1 3
1 4
1 5
1 6
1 7
1 8
1 9
1 10
1 11
1 12
1 13
1 14
1 15
1 16
1 17
1 18
1 19
1 20
1 21
1 22
1 23
1 24
1 25
1 26
1 27
1 28
1 29
1 30
1 31
1 32
1 33
1 34
1 35
1 36
1 37
1 38
1 39
1 40
1 41
1 42
1 43
1 44
1 45
1 46
1 47
1 48
1 49
1 50
1 51
1 52
1 53
1 54
1 55
1 56
1 57
1 58
1 59
1 60
1 61
1 62
1 63
1 64
1 65
1 66
1 67
1 68
1 69
1 70
1 71
1 72
1 73
1 74
1 75
1 76
1 77
1 78
1 79
1 80
1 81
1 82
1 83
1 84
1 85
1 86
1 87
1 88
1 89
1 90
1 91
1 92
1 93
1 94
1 95
1 96
1 97
1 98
1 99
1 100
1 101
1 102
1 103
1 104
1 105
1 106
1 107
1 108
1 109
1 110
1 111
1 112
1 113
1 114
1 115
1 116
1 117
1 118
1 119
1 120
1 121
1 122
1 123
1 124
1 125
1 126
1 127
1 128
1 129
1 130
1 131
1 132
1 133
1 134
1 135
1 136
1 137
1 138
1 139
1 140
1 141
1 142
1 143
1 144
1 145
1 146
1 147
1 148
1 149
1 150
1 151
1 152
1 153
1 154
1 155
1 156
1 157
1 158
1 159
1 160
1 161
1 162
1 163
1 164
1 165
1 166
1 167
1 168
1 169
1 170
1 171
1 172
1 173
1 174
1 175
1 176
1 177
1 178
1 179
1 180
1 181
1 182
1 183
1 184
1 185
1 186
1 187
1 188
1 189
1 190
1 191
1 192
1 193
1 194
1 195
1 196
1 197
1 198
1 199
1 200
1 201
1 202
1 203
1 204
1 205
1 206
1 207
1 208
1 209
1 210
1 211
1 212
1 213
1 214
1 215
1 216
1 217
1 218
1 219
1 220
1 221
1 222
1 223
1 224
1 225
1 226
1 227
1 228
1 229
1 230
1 231
1 232
1 233
1 234
1 235
1 236
1 237
1 238
1 239
1 240
1 241
1 242
1 243
1 244
1 245
1 246
1 247
1 248
1 249
1 250
1 251
1 252
1 253
1 254
1 255
1 256
1 257
1 258
1 259
1 260
1 261
1 262
1 263
1 264
1 265
1 266
1 267
1 268
1 269
1 270
1 271
1 272
1 273
1 274

POINT_DATA 275
SCALARS id int 1
LOOKUP_TABLE default
1
2
4
5
6
7
8
9
10
11
12
13
14
16
17
19
21
22
23
24
25
26
27
28
29
30
31
32
33
34
35
36
37
38
39
41
42
44
45
47
48
49
50
51
52
53
54
55
56
57
59
60
61
62
63
64
65
66
67
68
69
70
71
72
73
74
76
77
78
79
80
82
83
84
85
86
87
88
89
90
91
92
93
94
95
96
97
98
99
100
101
102
103
104
105
106
107
108
109
110
111
112
113
114
115
116
117
118
119
120
121
122
123
124
125
127
128
129
130
131
132
133
134
135
136
137
138
140
141
142
143
144
146
147
148
149
150
151
153
154
155
156
157
158
159
160
162
164
165
166
167
168
169
170
171
172
173
174
176
177
178
179
182
183
184
185
186
187
188
189
190
191
192
193
194
195
196
197
198
199
200
201
202
203
204
205
206
207
208
209
210
211
212
213
214
215
216
217
218
219
220
222
224
225
226
227
228
229
230
232
233
234
235
236
237
239
240
241
242
243
244
246
247
248
249
250
251
252
253
254
255
256
257
258
259
260
261
262
263
264
265
266
267
268
269
270
271
272
273
274
275
276
277
278
279
280
281
283
284
285
286
287
288
289
290
291
292
293
294
295
296
297
298
299
300

SCALARS type int 1
LOOKUP_TABLE default
1
1
1
1
1
1
1
1
1
1
1
1
1
1
1
1
1
1
1
1
1
1
1
1
1
1
1
1
1
1
1
1
1
1
1
1
1
1
1
1
1
1
1
1
1
1
1
1
1
1
1
1
1
1
1
1
1
1
1
1
1
1
1
1
1
1
1
1
1
1
1
1
1
1
1
1
1
1
1
1
1
1
1
1
1
1
1
1
1
1
1
1
1
1
1
1
1
1
1
1
1
1
1
1
1
1
1
1
1
1
1
1
1
1
1
1
1
1
1
1
1
1
1
1
1
1
1
1
1
1
1
1
1
1
1
1
1
1
1
1
1
1
1
1
1
1
1
1
1
1
1
1
1
1
1
1
1
1
1
1
1
1
1
1
1
1
1
1
1
1
1
1
1
1
1
1
1
1
1
1
1
1
1
1
1
1
1
1
1
1
1
1
1
1
1
1
1
1
1
1
1
1
1
1
1
1
1
1
1
1
1
1
1
1
1
1
1
1
1
1
1
1
1
1
1
1
1
1
1
1
1
1
1
1
1
1
1
1
1
1
1
1
1
1
1
1
1
1
1
1
1
1
1
1
1
1
1
1
1
1
1
1
1
1
1
1
1
1
1
1
1
1
1
1
1

SCALARS radius float 1
LOOKUP_TABLE default
5e-05
5e-05
5e-05
5e-05
5e-05
5e-05
5e-05
5e-05
5e-05
5e-05
5e-05
5e-05
5e-05
5e-05
5e-05
5e-05
5e-05
5e-05
5e-05
5e-05
5e-05
5e-05
5e-05
5e-05
5e-05
5e-05
5e-05
5e-05
5e-05
5e-05
5e-05
5e-05
5e-05
5e-05
5e-05
5e-05
5e-05
5e-05
5e-05
5e-05
5e-05
5e-05
5e-05
5e-05
5e-05
5e-05
5e-05
5e-05
5e-05
5e-05
5e-05
5e-05
5e-05
5e-05
5e-05
5e-05
5e-05
5e-05
5e-05
5e-05
5e-05
5e-05
5e-05
5e-05
5e-05
5e-05
5e-05
5e-05
5e-05
5e-05
5e-05
5e-05
5e-05
5e-05
5e-05
5e-05
5e-05
5e-05
5e-05
5e-05
5e-05
5e-05
5e-05
5e-05
5e-05
5e-05
5e-05
5e-05
5e-05
5e-05
5e-05
5e-05
5e-05
5e-05
5e-05
5e-05
5e-05
5e-05
5e-05
5e-05
5e-05
5e-05
5e-05
5e-05
5e-05
5e-05
5e-05
5e-05
5e-05
5e-05
5e-05
5e-05
5e-05
5e-05
5e-05
5e-05
5e-05
5e-05
5e-05
5e-05
5e-05
5e-05
5e-05
5e-05
5e-05
5e-05
5e-05
5e-05
5e-05
5e-05
5e-05
5e-05
5e-05
5e-05
5e-05
5e-05
5e-05
5e-05
5e-05
5e-05
5e-05
5e-05
5e-05
5e-05
5e-05
5e-05
5e-05
5e-05
5e-05
5e-05
5e-05
5e-05
5e-05
5e-05
5e-05
5e-05
5e-05
5e-05
5e-05
5e-05
5e-05
5e-05
5e-05
5e-05
5e-05
5e-05
5e-05
5e-05
5e-05
5e-05
5e-05
5e-05
5e-05
5e-05
5e-05
5e-05
5e-05
5e-05
5e-05
5e-05
5e-05
5e-05
5e-05
5e-05
5e-05
5e-05
5e-05
5e-05
5e-05
5e-05
5e-05
5e-05
5e-05
5e-05
5e-05
5e-05
5e-05
5e-05
5e-05
5e-05
5e-05
5e-05
5e-05
5e-05
5e-05
5e-05
5e-05
5e-05
5e-05
5e-05
5e-05
5e-05
5e-05
5e-05
5e-05
5e-05
5e-05
5e-05
5e-05
5e-05
5e-05
5e-05
5e-05
5e-05
5e-05
5e-05
5e-05
5e-05
5e-05
5e-05
5e-05
5e-05
5e-05
5e-05
5e-05
5e-05
5e-05
5e-05
5e-05
5e-05
5e-05
5e-05
5e-05
5e-05
5e-05
5e-05
5e-05
5e-05
5e-05
5e-05
5e-05
5e-05
5e-05
5e-05
5e-05
5e-05
5e-05
5e-05
5e-05
5e-05
5e-05
5e-05
5e-05
5e-05
5e-05
5e-05
5e-05
5e-05
5e-05
5e-05
5e-05
5e-05
5e-05
5e-05
5e-05

SCALARS mass float 1
LOOKUP_TABLE default
1.46608e-10
1.46608e-10
1.46608e-10
1.46608e-10
1.46608e-10
1.46608e-10
1.46608e-10
1.46608e-10
1.46608e-10
1.46608e-10
1.46608e-10
1.46608e-10
1.46608e-10
1.46608e-10
1.46608e-10
1.46608e-10
1.46608e-10
1.46608e-10
1.46608e-10
1.46608e-10
1.46608e-10
1.46608e-10
1.46608e-10
1.46608e-10
1.46608e-10
1.46608e-10
1.46608e-10
1.46608e-10
1.46608e-10
1.46608e-10
1.46608e-10
1.46608e-10
1.46608e-10
1.46608e-10
1.46608e-10
1.46608e-10
1.46608e-10
1.46608e-10
1.46608e-10
1.46608e-10
1.46608e-10
1.46608e-10
1.46608e-10
1.46608e-10
1.46608e-10
1.46608e-10
1.46608e-10
1.46608e-10
1.46608e-10
1.46608e-10
1.46608e-10
1.46608e-10
1.46608e-10
1.46608e-10
1.46608e-10
1.46608e-10
1.46608e-10
1.46608e-10
1.46608e-10
1.46608e-10
1.46608e-10
1.46608e-10
1.46608e-10
1.46608e-10
1.46608e-10
1.46608e-10
1.46608e-10
1.46608e-10
1.46608e-10
1.46608e-10
1.46608e-10
1.46608e-10
1.46608e-10
1.46608e-10
1.46608e-10
1.46608e-10
1.46608e-10
1.46608e-10
1.46608e-10
1.46608e-10
1.46608e-10
1.46608e-10
1.46608e-10
1.46608e-10
1.46608e-10
1.46608e-10
1.46608e-10
1.46608e-10
1.46608e-10
1.46608e-10
1.46608e-10
1.46608e-10
1.46608e-10
1.46608e-10
1.46608e-10
1.46608e-10
1.46608e-10
1.46608e-10
1.46608e-10
1.46608e-10
1.46608e-10
1.46608e-10
1.46608e-10
1.46608e-10
1.46608e-10
1.46608e-10
1.46608e-10
1.46608e-10
1.46608e-10
1.46608e-10
1.46608e-10
1.46608e-10
1.46608e-10
1.46608e-10
1.46608e-10
1.46608e-10
1.46608e-10
1.46608e-10
1.46608e-10
1.46608e-10
1.46608e-10
1.46608e-10
1.46608e-10
1.46608e-10
1.46608e-10
1.46608e-10
1.46608e-10
1.46608e-10
1.46608e-10
1.46608e-10
1.46608e-10
1.46608e-10
1.46608e-10
1.46608e-10
1.46608e-10
1.46608e-10
1.46608e-10
1.46608e-10
1.46608e-10
1.46608e-10
1.46608e-10
1.46608e-10
1.46608e-10
1.46608e-10
1.46608e-10
1.46608e-10
1.46608e-10
1.46608e-10
1.46608e-10
1.46608e-10
1.46608e-10
1.46608e-10
1.46608e-10
1.46608e-10
1.46608e-10
1.46608e-10
1.46608e-10
1.46608e-10
1.46608e-10
1.46608e-10
1.46608e-10
1.46608e-10
1.46608e-10
1.46608e-10
1.46608e-10
1.46608e-10
1.46608e-10
1.46608e-10
1.46608e-10
1.46608e-10
1.46608e-10
1.46608e-10
1.46608e-10
1.46608e-10
1.46608e-10
1.46608e-10
1.46608e-10
1.46608e-10
1.46608e-10
1.46608e-10
1.46608e-10
1.46608e-10
1.46608e-10
1.46608e-10
1.46608e-10
1.46608e-10
1.46608e-10
1.46608e-10
1.46608e-10
1.46608e-10
1.46608e-10
1.46608e-10
1.46608e-10
1.46608e-10
1.46608e-10
1.46608e-10
1.46608e-10
1.46608e-10
1.46608e-10
1.46608e-10
1.46608e-10
1.46608e-10
1.46608e-10
1.46608e-10
1.46608e-10
1.46608e-10
1.46608e-10
1.46608e-10
1.46608e-10
1.46608e-10
1.46608e-10
1.46608e-10
1.46608e-10
1.46608e-10
1.46608e-10
1.46608e-10
1.46608e-10
1.46608e-10
1.46608e-10
1.46608e-10
1.46608e-10
1.46608e-10
1.46608e-10
1.46608e-10
1.46608e-10
1.46608e-10
1.46608e-10
1.46608e-10
1.46608e-10
1.46608e-10
1.46608e-10
1.46608e-10
1.46608e-10
1.46608e-10
1.46608e-10
1.46608e-10
1.46608e-10
1.46608e-10
1.46608e-10
1.46608e-10
1.46608e-10
1.46608e-10
1.46608e-10
1.46608e-10
1.46608e-10
1.46608e-10
1.46608e-10
1.46608e-10
1.46608e-10
1.46608e-10
1.46608e-10
1.46608e-10
1.46608e-10
1.46608e-10
1.46608e-10
1.46608e-10
1.46608e-10
1.46608e-10
1.46608e-10
1.46608e-10
1.46608e-10
1.46608e-10
1.46608e-10
1.46608e-10
1.46608e-10
1.46608e-10
1.46608e-10
1.46608e-10
1.46608e-10
1.46608e-10
1.46608e-10
1.46608e-10
1.46608e-10
1.46608e-10
1.46608e-10

VECTORS velocity float
0.00532404 -0.000577842 0.0003864
0.00531071 -0.000698865 0.000101477
0.00570413 -0.000404069 0.000596893
0.00602316 -0.000449787 0.000656857
0.00573945 1.71648e-05 -0.000599498
0.00550273 -0.000434722 0.000364529
0.00563529 -0.00040964 0.000602
0.00569857 0.000328623 -3.53499e-05
0.0055464 -0.00038621 0.000584955
0.00527019 -0.000565802 0.000380975
0.00598106 0.000424203 -0.000618785
0.00600765 -0.000456811 0.000662861
0.00547408 7.12039e-05 -0.000415515
0.00563236 6.69864e-05 -0.00042178
0.00604678 -0.000429143 0.00063606
0.00600391 -0.000461448 0.000666431
0.00530029 -0.000489783 0.00037193
0.00570296 -0.000392361 0.00059525
0.00563069 0.000100712 -0.000439695
0.00558341 0.000343412 -4.41299e-05
0.00613367 -0.000350212 0.000574546
0.00564093 0.00033588 -3.9698e-05
0.00587696 0.000576852 -0.000804427
0.00576222 -0.000862435 8.41888e-06
0.00600072 -0.000465623 0.000669758
0.00557084 -0.000389021 0.000538519
0.00531978 -0.000542446 0.00037977
0.00599989 -0.00041181 0.000629303
0.00556969 0.000342242 -4.39583e-05
0.00604486 -0.000427551 0.000639993
0.00552299 -0.000568625 0.000394206
0.00578471 0.000316897 -2.8297e-05
0.00583068 -0.000409859 0.000621152
0.00550408 -0.000551664 0.000392838
0.00561217 0.000339561 -4.19479e-05
0.00603464 -0.00043708 0.000647398
0.00551627 -0.000516246 0.00040487
0.00551709 -0.000566556 0.00039682
0.00544179 0.000364581 -5.65921e-05
0.00604103 -0.000433343 0.000643066
0.00532896 -0.000546466 0.000373892
0.00572731 0.000324954 -3.30596e-05
0.00608248 -0.000431841 0.000632152
0.00531165 -0.000558973 0.000381102
0.00556761 0.000171708 -0.000468547
0.00549523 0.00035667 -5.1839e-05
0.00572753 -0.000589112 0.000411945
0.00540019 0.000102949 -0.000424523
0.00575315 -0.00059368 0.000414424
0.0054687 0.000360461 -5.42462e-05
-5.01956e-15 -7.41219e-15 7.69802e-14
0.00552847 -0.000581626 0.000398776
0.00602325 -0.000442953 0.000651162
0.00549678 -0.000555842 0.000392878
0.00533989 -0.000541357 0.000379992
0.00555473 0.000347298 -4.66469e-05
0.00544323 7.96608e-05 -0.000422474
0.00544994 0.000178156 -0.000461543
0.00532053 -0.000563849 0.000386423
0.00561038 -0.000516364 0.000385068
0.00533309 -0.000601376 0.000395224
0.00566975 0.00033223 -3.75789e-05
0.00529226 0.000103133 -0.000416783
0.00571853 -0.000642223 0.000421622
0.00549905 -0.00042121 0.000532039
0.00605377 -0.000428242 0.000636282
0.00583414 0.00055125 -0.000667246
0.00572728 -0.000682066 0.000100227
0.00656472 0.000617892 -0.0011942
0.00599573 -0.000195575 0.000265117
0.00573774 -0.0005484 0.000336586
0.00562952 3.72409e-05 -0.000414717
0.00557434 0.000122486 -0.000445955
0.00575602 0.000321108 -3.07068e-05
0.00563418 0.000296297 0.000257777
0.00549863 -0.000541367 0.000385789
0.0058173 -0.000559011 0.000400373
0.00556372 -0.000571358 0.000391587
0.00556591 -0.000678477 0.000424207
0.00536197 -0.000569491 0.000389858
0.00586991 0.000615148 -0.000698447
0.00557779 -0.000530068 0.000395648
0.0053173 -0.000541278 0.000380875
0.00527309 -0.000550289 0.000389572
0.00538531 -0.000479711 0.000347028
0.00549829 -0.00060651 0.000398966
0.00633119 0.000726031 -0.000327478
0.00524475 -0.000600088 0.000389101
0.00559359 5.19736e-05 -0.000402562
0.00532255 -0.000553082 0.000377025
0.00561841 3.77225e-05 -0.00040709
4.29267e-15 1.04894e-14 8.29599e-14
1.5226e-22 1.36824e-22 8.29106e-22
0.0052974 0.00014244 -0.000438991
0.00628493 0.000739499 -0.000339125
0.00574216 -0.000178959 -0.000334065
0.0065644 0.000974816 -0.000537374
0.00569272 -0.000680457 0.00042684
0.00536089 -0.000571316 0.000389494
0.00531275 0.000193581 0.000271334
0.00559502 -0.000679493 0.000227209
0.00643627 0.000854856 -0.000417251
0.00546469 8.56837e-05 -0.000423972
0.00553041 7.12273e-05 -0.000418663
0.00563524 -0.000684498 8.04942e-05
0.0053159 -0.000512757 0.000374205
0.0055283 -0.000591191 0.000401178
0.00544741 8.90515e-05 -0.000423655
0.00569615 -0.000685009 0.000428664
0.00569279 -0.000402777 0.000599639
0.00536882 -0.000550146 0.000386969
0.00549785 -0.000638155 0.000314749
0.0053724 8.83927e-05 -0.000402065
0.00558527 -0.000385692 0.000593295
0.00550077 -0.000568441 0.000395987
0.00634295 0.000703597 -0.000315852
0.00563268 -0.0004084 0.000601224
0.00525168 -0.000575964 0.000357506
0.00554643 5.29801e-05 -0.000411331
0.00558664 4.14744e-05 -0.000408908
0.00563162 -0.00066264 6.97223e-05
0.00529676 -0.000529273 0.000375205
0.00532698 -0.000539462 0.000375443
0.00529836 -0.000570418 0.000388702
0.00542027 0.000109531 -0.000430233
0.00550664 -0.000598586 0.000404488
0.00551744 -0.0005823 0.000403816
0.00571056 -0.000761399 0.000119619
0.0061931 0.000545531 -0.000688279
0.00561472 0.000121645 -0.000448086
0.00652637 0.000850957 -0.000403139
0.00552228 0.000149916 -0.000455578
0.00648153 0.000860538 -0.000632587
0.00550916 6.05227e-05 -0.000413069
0.0061877 0.000554032 -0.000690902
0.00559496 -0.000401789 0.000598826
0.00604691 0.000217037 0.000324356
0.00531444 8.13474e-05 -0.000408351
0.00618868 0.000566864 -0.000698567
0.00654208 0.000933522 -0.000328497
0.0065274 0.000714653 -0.00108238
0.00622534 0.000541661 -0.000687979
-3.83291e-14 8.16698e-14 2.95887e-13
0.00597465 0.000625268 -0.000724644
0.00563193 -0.000675225 8.70151e-05
0.00563309 2.02409e-05 -0.000409342
0.00576567 0.000120351 -0.00028889
0.00632818 0.000533537 -0.000692038
0.00563767 0.000304233 -0.000272475
0.0055109 -0.000579571 0.000398001
0.00568644 9.03337e-05 0.000262334
0.00602204 -3.37632e-05 0.000274763
0.00567184 8.48253e-05 0.000256321
0.00571963 0.000338024 0.000257933
0.00537173 -0.000623995 0.000399624
0.00543092 9.94968e-05 -0.00042167
0.00525128 -0.000636393 0.000390426
0.00626234 0.000520087 -0.000680597
0.00531546 0.000466502 -0.000326593
0.00631997 0.000470043 -0.000734441
0.00558977 1.39606e-05 -0.000402812
0.00569524 -1.27096e-05 0.000159522
0.00537562 -0.000536193 0.000384352
0.00578259 -0.0001621 -0.000324555
0.00525297 -0.0005769 0.000414692
0.00558215 0.000138094 -0.000453703
0.00558596 0.000203638 0.000248613
0.00535106 -0.000554522 0.00038598
0.00549873 -0.000570391 0.00039979
0.00537119 -0.000559824 0.000388066
0.00560412 -0.000629424 0.00099435
0.00542364 -0.000364267 0.000548464
0.00550185 5.82011e-05 -0.000410807
0.00571034 -0.000638734 0.000419865
0.00566798 4.58637e-05 -0.000369328
0.00563028 6.87484e-05 -0.000436282
0.00562123 7.37559e-05 -0.000424371
0.00560461 -0.000456376 0.000919536
0.00554304 0.000182106 -0.000471905
0.00563755 -2.49335e-06 -7.66595e-05
0.00633734 0.00102842 -0.000529596
0.00533528 0.000198386 -0.000467482
0.0058908 0.000612346 -0.000707392
0.00553113 -0.000584697 0.000400289
0.00564397 8.55242e-05 -0.000433931
0.0061939 0.000572177 -0.000696829
0.00596688 0.000601186 -0.000707067
0.00621533 0.000502662 -0.000672282
0.00550501 0.000122355 -0.000441993
0.00540332 9.26613e-05 -0.000424563
0.00566341 -0.00039557 0.000603438
0.00568557 -0.000850902 8.06338e-07
0.00564513 0.000226807 -0.000500251
0.00534277 -0.000553909 0.000399751
0.00549674 -0.000564888 0.000394382
0.00537577 -0.000580983 0.000955738
0.00605006 0.000533573 -0.00067354
0.00544128 -0.000538347 0.000387069
0.00555881 6.1187e-05 -0.00041266
0.00585393 -0.000400279 0.000607383
0.00559955 3.44544e-05 -0.000406882
0.00561572 -0.000247431 0.000338656
0.00594413 0.000570241 -0.000690093
0.00515549 -0.000365339 5.40576e-05
0.0055896 2.62385e-05 -0.000415172
0.00536611 -0.000582715 0.000990034
0.00533604 -0.00066129 0.000299743
0.00571682 0.000313335 0.000264008
0.00598426 0.000551318 -0.000701498
0.00570629 0.000349534 0.00026112
0.00566823 0.000218547 0.000268163
0.00530699 -0.000575124 0.000393096
0.0061587 0.00056378 -0.000696986
0.00599668 0.000217799 -0.000294947
0.0057067 5.71899e-05 -0.000344616
0.00576999 -0.00048153 0.000949333
0.00583605 -0.000482886 0.000955428
0.00574387 -0.000478589 0.000947149
0.00601389 0.000371919 -0.000593562
0.00560199 7.94186e-05 -0.000428597
0.0057794 -0.000484067 0.000949286
0.00544151 -0.000665793 0.000301671
0.00622626 0.000504575 -0.00066946
0.00545093 9.90831e-05 -0.000422933
0.00555679 -0.000456506 0.000907219
0.00620082 0.000540457 -0.0006843
0.00551847 -0.000575512 0.000396433
0.00544105 -0.000738036 9.4678e-05
0.00560896 -0.000630989 0.00099508
0.00553868 -0.000454831 0.000904664
0.00599263 0.000621039 -0.000737792
0.00564069 8.34031e-05 -0.000433058
0.00612024 0.000576975 -0.000700048
0.00543495 0.000104978 -0.000439218
0.00540643 -0.000731505 9.47005e-05
0.00562664 0.000398075 0.000264422
0.00564928 0.000576952 -0.000669947
0.00538024 9.92341e-05 -0.000420339
0.00559648 -0.000461613 0.00091054
0.0065065 0.000750065 -0.00110077
0.00559971 -0.000627615 0.000993592
0.00563523 2.79981e-05 -0.000409402
0.00619017 0.000558451 -0.000692112
0.00550286 0.000128811 -0.000444121
0.00555904 8.21517e-05 -0.000425904
0.00558894 -0.000703186 0.000178031
0.0062539 0.000177334 0.000289331
0.00534724 -0.000577349 0.000719721
0.00616627 0.000576671 -0.000700897
0.00535116 -0.000720202 9.24854e-05
0.00629588 0.00054189 -0.000693613
0.00624495 0.000511576 -0.000674948
0.00620267 0.00052908 -0.00067978
0.00547259 7.81282e-05 -0.000418729
0.00558025 -0.000768498 0.000978472
0.00552881 -0.000615522 0.00099862
0.00565087 7.28856e-05 -0.000175924
0.00582604 -0.000483588 0.000954911
0.0058783 0.000584185 -0.000702025
0.00584608 0.000584423 -0.00068894
0.00637871 0.000882219 -0.000834569
0.00611613 0.000546708 -0.000686304
0.00564273 6.22473e-05 -0.000423677
0.00601256 0.000550854 -0.000674517
0.0058435 0.000561941 -0.000668211
0.00550826 8.41866e-05 -0.000422571
0.0057074 0.000357665 0.000259556
0.0058423 0.000572181 -0.00068086
0.0058273 0.000564159 -0.000677816
0.00561103 -0.000631403 0.00099643
0.00618392 0.000558471 -0.000695295
0.00529778 -0.000540957 0.00036255
0.00574532 -0.000474439 0.000938815
0.00549443 -0.00051645 0.000707359
0.00551115 -0.000596817 0.000404283

VECTORS force float
6.04244e-12 -1.50252e-10 6.25358e-11
-2.25224e-10 2.38132e-10 4.23529e-11
-1.83804e-10 -2.15842e-10 3.29949e-10
5.87202e-11 2.32934e-10 -2.01183e-10
2.05986e-12 3.22814e-12 -1.9925e-12
-2.36492e-10 8.94792e-11 -3.27915e-11
-4.92727e-10 1.02631e-10 1.44833e-11
-1.32136e-12 -4.3399e-12 4.60024e-13
-6.38122e-10 -1.30366e-10 9.77451e-11
1.49992e-10 4.5551e-11 -4.13819e-11
4.94031e-11 -2.43716e-10 1.24341e-10
8.07069e-11 2.15902e-10 -1.73381e-10
-1.62131e-11 8.07586e-11 -8.74563e-12
-1.5258e-11 4.74051e-12 -4.23813e-11
1.49034e-10 2.36368e-10 -2.14027e-10
4.02561e-11 2.30402e-10 -2.03162e-10
2.32407e-10 -2.3812e-10 1.21297e-10
7.34632e-11 -1.4395e-10 2.16992e-10
6.71344e-11 -1.21234e-11 9.31444e-12
2.6928e-12 2.57214e-12 -2.38887e-12
-3.01519e-11 1.31101e-10 -1.21999e-10
1.90307e-13 2.73275e-13 1.27238e-13
-3.18804e-10 3.6107e-10 6.61943e-10
-1.99355e-10 3.65013e-10 -7.78397e-12
7.27154e-11 2.93574e-10 -2.47077e-10
-4.941e-10 1.19818e-10 5.86941e-11
4.96404e-10 -4.25506e-10 1.10753e-10
-1.84826e-10 2.29721e-10 -1.73245e-10
9.76298e-13 4.66776e-12 -1.66616e-12
5.17475e-12 3.1366e-10 -2.18964e-10
-2.5547e-10 1.54248e-10 -6.62254e-11
-2.35814e-12 -9.37311e-12 3.55299e-12
-2.59701e-10 1.35281e-10 9.55476e-11
1.14569e-10 9.87633e-11 2.69926e-11
4.52408e-13 2.54748e-12 1.13489e-13
7.81417e-11 2.96853e-10 -2.48676e-10
1.73178e-10 2.63222e-10 1.94551e-10
-2.57916e-10 2.34477e-10 -2.79151e-11
3.58702e-13 4.59386e-12 9.1872e-13
6.92763e-11 3.11645e-10 -2.8273e-10
8.21523e-11 7.14372e-11 -2.77435e-13
-1.5256e-12 -6.52168e-12 2.55447e-12
5.38237e-12 6.89724e-11 -1.27897e-10
6.25374e-11 1.88728e-10 -5.35094e-11
4.4459e-13 -1.30683e-10 6.4773e-11
2.30953e-12 4.79674e-12 6.60173e-13
5.83409e-11 1.97024e-10 -4.74976e-11
4.13133e-10 5.46557e-11 -6.84632e-11
5.40076e-11 3.49063e-10 -6.67247e-11
2.81035e-12 2.92905e-12 -7.11055e-12
5.1828e-24 -4.1359e-24 0.0
-1.9009e-10 9.53261e-11 -4.71989e-11
1.06598e-10 2.56779e-10 -2.17652e-10
-2.35091e-10 4.68923e-11 -2.57807e-11
1.9396e-10 -1.84692e-10 -5.9179e-11
7.44857e-13 4.67945e-12 -1.45818e-12
-1.34395e-10 5.03226e-11 1.028e-10
6.91576e-12 2.04607e-11 1.22302e-11
5.13176e-12 2.51631e-10 -8.48345e-11
-1.51999e-10 -1.99923e-10 -4.32585e-11
-1.7771e-10 1.96916e-10 -8.11538e-11
-1.82281e-12 -8.4662e-13 1.97749e-12
-1.03917e-10 4.03306e-11 -3.21367e-11
-5.63198e-11 3.58282e-10 -7.36935e-11
-2.07914e-10 2.36767e-10 2.53698e-10
-6.84712e-11 1.97541e-11 -1.59889e-11
-1.57579e-10 -1.6242e-12 2.08791e-13
-1.82746e-10 2.843e-10 1.21463e-10
1.97763e-10 1.04032e-10 6.53422e-10
-6.53039e-10 7.14187e-10 1.56456e-11
-7.84757e-11 1.82267e-12 9.34607e-11
1.02062e-10 7.52661e-11 -1.98182e-11
-1.96083e-10 -1.28227e-10 7.73416e-11
-1.61286e-12 -8.29539e-12 3.64678e-12
-1.45728e-10 -3.23222e-11 -4.38021e-12
-2.91806e-11 2.75043e-10 -5.91822e-11
-5.0743e-10 1.3384e-10 1.68875e-10
-2.19828e-10 9.09352e-11 -2.07521e-11
-2.96145e-10 6.48572e-11 1.38228e-11
-1.75102e-10 2.58399e-10 -3.99133e-11
-6.92198e-11 2.06541e-11 1.43813e-10
2.35515e-11 3.05965e-10 -4.16432e-11
7.9576e-10 -3.14045e-10 9.29654e-11
1.03091e-10 3.6234e-12 2.88134e-11
3.00683e-10 -1.85841e-10 1.84131e-10
-5.56775e-11 -5.29386e-11 2.09828e-12
-4.18138e-10 4.03153e-10 -3.64618e-10
-3.9726e-10 1.87738e-10 -1.7757e-11
-5.26532e-12 4.9888e-11 -1.16613e-11
3.07484e-10 -1.70942e-10 3.77628e-11
-2.63119e-11 5.22354e-11 -2.39e-11
3.332e-21 -8.57993e-22 -6.53473e-23
-3.23117e-27 2.58494e-26 0.0
-1.06136e-10 -7.24884e-11 1.82746e-12
6.64712e-10 5.30033e-10 -5.52432e-10
1.91189e-10 -1.93013e-11 -9.41302e-11
-1.2819e-09 -3.01953e-09 9.25804e-10
-3.4831e-10 5.85015e-11 -2.70754e-11
-3.06122e-10 3.37747e-10 -1.05698e-10