# vtk DataFile Version 3.0
LIGGGHTS particles timestep 77200000
ASCII
DATASET POLYDATA
POINTS 267 float
0.383991 0.018743 5.17586e-05
0.384819 0.0170553 5.28427e-05
0.384087 0.0172099 5.18841e-05
0.38485 0.0177728 5.2884e-05
0.384289 0.0192285 5.21489e-05
0.384427 0.0170974 5.23295e-05
0.383731 0.0178959 5.14179e-05
0.384909 0.0174916 5.29614e-05
0.383705 0.0185838 5.13839e-05
0.384274 0.0169453 5.213e-05
0.384609 0.0178943 5.25685e-05
0.383937 0.0189513 8.69758e-05
0.384166 0.0169334 5.1988e-05
0.384566 0.0170745 5.25117e-05
0.384704 0.0183371 5.2693e-05
0.384375 0.0179486 5.22621e-05
0.385006 0.0203197 5.3088e-05
0.38429 0.0178938 5.21501e-05
0.384317 0.0180308 5.21862e-05
0.384369 0.0166304 5.22533e-05
0.383765 0.0178016 5.14632e-05
0.384682 0.0173846 0.000130728
0.38392 0.0176635 5.16661e-05
0.384334 0.0168628 5.2208e-05
0.38458 0.0173478 5.25303e-05
0.384267 0.018175 5.21197e-05
0.384809 0.0175939 5.28295e-05
0.384554 0.0172495 5.24957e-05
0.38474 0.0177115 5.27396e-05
0.383862 0.0177748 5.15892e-05
0.383928 0.0185154 5.16766e-05
0.384806 0.0179346 5.28267e-05
0.384295 0.0179641 0.000123125
0.383664 0.0197976 5.13305e-05
0.38332 0.0192284 0.00522714
0.384012 0.018459 5.17866e-05
0.384188 0.017154 5.20161e-05
0.393409 0.0172263 0.00806732
0.383611 0.0181742 5.1261e-05
0.384194 0.0185569 5.20241e-05
0.384353 0.0181246 5.22331e-05
0.383985 0.019032 5.17502e-05
0.38427 0.0217777 5.21238e-05
0.3849 0.0167228 5.29491e-05
0.384094 0.0196551 5.18938e-05
0.383596 0.0188939 5.12421e-05
0.384074 0.0171039 5.18678e-05
0.38361 0.0192266 5.12599e-05
0.378022 0.019866 0.005332
0.384997 0.0170277 5.3077e-05
0.384469 0.0166233 5.23854e-05
0.385119 0.0166834 5.32362e-05
0.383572 0.0182666 5.12106e-05
0.38415 0.0174668 5.19668e-05
0.384314 0.0196963 5.21813e-05
0.38401 0.0186182 5.17838e-05
0.384443 0.0179216 0.000120816
0.383601 0.0187724 5.12477e-05
0.383695 0.0199014 5.13714e-05
0.383708 0.0192011 5.13883e-05
0.383848 0.0178769 5.15715e-05
0.384751 0.0204726 5.27548e-05
0.384789 0.0203241 5.2804e-05
0.384148 0.0172907 5.19645e-05
0.384899 0.0180553 5.29479e-05
0.384454 0.0177342 5.23646e-05
0.384159 0.0206443 5.19783e-05
0.383985 0.017428 5.1751e-05
0.384471 0.0161368 5.23876e-05
0.384894 0.0205458 5.29418e-05
0.383993 0.0188764 5.17615e-05
0.383849 0.0193448 5.15725e-05
0.383935 0.0179283 5.16858e-05
0.384931 0.0175954 5.29902e-05
0.383272 0.0191349 0.0052273
0.38382 0.0176837 5.15355e-05
0.384046 0.0179367 5.18308e-05
0.384723 0.0172283 5.27177e-05
0.384191 0.017054 5.20202e-05
0.383736 0.0207666 5.1425e-05
0.383683 0.0188356 5.13558e-05
0.384606 0.0176837 5.25637e-05
0.38444 0.0183063 5.23472e-05
0.383724 0.0194164 5.14094e-05
0.384303 0.0183686 5.21674e-05
0.384848 0.0173718 5.28812e-05
0.384322 0.0214999 5.21918e-05
0.0643568 0.0187248 0.00531097
0.24257 0.0191927 0.00520306
0.384443 0.0190455 5.23502e-05
0.384764 0.0176468 0.000125094
0.383893 0.0187182 5.16305e-05
0.385147 0.0177812 0.000122873
0.383662 0.0180867 5.13271e-05
0.384177 0.0192838 5.20024e-05
0.384493 0.0193015 5.24162e-05
0.384709 0.0176058 5.26985e-05
0.384647 0.0185896 5.26184e-05
0.383921 0.0178347 0.00010527
0.384105 0.0183256 5.19082e-05
0.38367 0.0183173 5.13384e-05
0.383786 0.0180677 5.14897e-05
0.384446 0.0168712 5.23543e-05
0.383701 0.0187017 5.13793e-05
0.383906 0.018619 5.16476e-05
0.384144 0.01791 5.19592e-05
0.384817 0.0185465 5.28405e-05
0.384225 0.0179695 5.20647e-05
0.383933 0.0192279 5.16831e-05
0.384096 0.0170045 5.18952e-05
0.384626 0.016764 5.25911e-05
0.384295 0.018231 0.000129802
0.384383 0.0169852 5.22722e-05
0.383806 0.0179676 5.15164e-05
0.383859 0.0175842 5.15859e-05
0.38345 0.0177196 0.00536012
0.384418 0.0164926 5.23174e-05
0.383591 0.0185347 5.12355e-05
0.383574 0.0183691 5.12127e-05
0.383667 0.0199993 5.13343e-05
0.384475 0.0176309 5.23931e-05
0.383925 0.0184105 5.16721e-05
0.384418 0.0178531 5.23181e-05
0.384798 0.0171606 5.28155e-05
0.384313 0.0171449 5.21807e-05
0.385769 0.0165473 5.40881e-05
0.384333 0.0177947 5.22067e-05
0.384385 0.0195542 5.22753e-05
0.384085 0.018684 5.18824e-05
0.384719 0.0170987 5.27125e-05
0.383894 0.0174902 5.16321e-05
0.384744 0.0173967 5.27447e-05
0.383756 0.0184867 5.14508e-05
0.384727 0.0201861 5.27225e-05
0.384074 0.0170516 0.000137426
0.384584 0.0177681 0.000101539
0.384544 0.0163094 5.24825e-05
0.384233 0.0168376 5.20754e-05
0.0219312 0.0187687 0.00551176
0.384319 0.0167636 5.21878e-05
0.384228 0.0177075 5.20694e-05
0.38353 0.0176621 0.00537757
0.38396 0.0191288 5.17179e-05
0.384146 0.0189135 5.19615e-05
0.384895 0.0168866 5.2943e-05
0.384921 0.0196039 5.29764e-05
0.383956 0.019484 5.17133e-05
0.383755 0.019009 5.14493e-05
0.383888 0.0184727 0.00523166
0.384004 0.0193816 5.17764e-05
0.384121 0.0171522 0.000126213
0.384268 0.0190399 5.21214e-05
0.384105 0.0178224 7.97669e-05
0.384124 0.018008 5.19332e-05
0.38435 0.018262 5.22293e-05
0.384053 0.0189567 5.184e-05
0.3843 0.0186551 5.2163e-05
0.384992 0.0180145 5.30695e-05
0.386759 0.0152483 5.53836e-05
0.383617 0.019327 5.12691e-05
0.384403 0.0192492 5.22987e-05
0.384249 0.018274 5.20972e-05
0.38373 0.0197118 5.14173e-05
0.385076 0.0179467 5.31802e-05
0.38396 0.0177554 5.17178e-05
0.383867 0.0210849 5.15964e-05
0.384706 0.0184769 5.26952e-05
0.384023 0.0181084 5.1801e-05
0.383672 0.0184195 5.13415e-05
0.384122 0.0182248 5.1931e-05
0.383967 0.0181955 5.17273e-05
0.384122 0.0181236 5.19307e-05
0.383676 0.0181534 0.000124512
0.383816 0.019228 5.15292e-05
0.38465 0.0174377 5.26211e-05
0.3851 0.0177266 5.32113e-05
0.385006 0.0158243 5.30884e-05
0.385094 0.0174355 5.32031e-05
0.384504 0.0179623 5.24301e-05
0.384109 0.0184302 5.19127e-05
0.384524 0.0174713 5.24569e-05
0.38435 0.0178614 0.000125081
0.385023 0.0181691 5.31107e-05
0.385037 0.0175739 5.31289e-05
0.383886 0.018028 5.16209e-05
0.384526 0.016716 5.24592e-05
0.384505 0.0171609 5.24316e-05
0.383978 0.0185238 0.00522879
0.383846 0.0191172 5.15692e-05
0.384625 0.017537 5.25895e-05
0.385553 0.0152374 5.38047e-05
0.384411 0.0184417 5.23083e-05
0.384302 0.0165156 5.21656e-05
0.384399 0.0186101 5.22929e-05
0.384943 0.0187045 5.30057e-05
0.384205 0.0180675 5.20391e-05
0.384058 0.0177382 5.18467e-05
0.384811 0.0174713 5.28328e-05
0.383884 0.0196254 5.16191e-05
0.384574 0.0160758 5.25222e-05
0.384056 0.0180406 0.000117497
0.384183 0.0194731 5.201e-05
0.385084 0.0171004 5.31901e-05
0.38345 0.0186594 0.00522432
0.384483 0.016964 5.24031e-05
0.384564 0.0189811 5.25095e-05
0.385129 0.0178507 5.32485e-05
0.385096 0.0164501 5.32056e-05
0.383933 0.0187648 0.000130442
0.384687 0.0169933 5.26707e-05
0.384262 0.0177729 0.000119547
0.384801 0.0166583 5.28192e-05
0.383909 0.0188216 5.16519e-05
0.38439 0.0209101 5.22816e-05
0.384493 0.0173689 9.64047e-05
0.38382 0.0188681 5.15345e-05
0.384541 0.017902 0.000125062
0.383639 0.0189866 5.12974e-05
0.38453 0.020178 5.24643e-05
0.384661 0.0178084 5.26366e-05
0.384005 0.0178448 5.17769e-05
0.384145 0.0205426 5.19607e-05
0.383856 0.0203056 5.15822e-05
0.38515 0.0175249 5.32762e-05
0.383703 0.0182157 5.13821e-05
0.384352 0.0191511 5.22319e-05
0.384531 0.0168171 5.24664e-05
0.383662 0.0204201 5.13284e-05
0.384524 0.0216685 5.24571e-05
0.384677 0.0173224 5.2657e-05
0.383833 0.0185505 5.15522e-05
0.384455 0.0172873 5.2367e-05
0.384148 0.018808 5.1965e-05
0.383874 0.0192744 0.000117813
0.384664 0.0180562 5.26402e-05
0.383681 0.0195344 5.13528e-05
0.384035 0.0173399 5.18167e-05
0.384513 0.0181523 5.24423e-05
0.383985 0.018016 5.17508e-05
0.384204 0.0178183 5.2038e-05
0.384204 0.0183848 5.20381e-05
0.384044 0.0177752 0.000143609
0.38425 0.0173241 5.20975e-05
0.383762 0.0206306 5.14594e-05
0.385192 0.0170617 5.33312e-05
0.3843 0.0175031 5.2164e-05
0.384989 0.0177301 5.30663e-05
0.384608 0.0171655 5.25668e-05
0.383746 0.0191087 5.14383e-05
0.384897 0.0194055 5.2945e-05
0.384732 0.0167368 5.27299e-05
0.383859 0.0194467 5.15855e-05
0.384511 0.017816 5.24399e-05
0.384761 0.017818 5.27671e-05
0.384417 0.0167417 5.23161e-05
0.384905 0.0179551 5.29553e-05
0.38472 0.0175079 6.94547e-05
0.38371 0.0179981 5.13903e-05
0.384101 0.0193494 5.19028e-05
0.384429 0.0174321 5.23324e-05
0.383845 0.0189654 5.1567e-05
0.383647 0.0190875 5.13083e-05
0.384035 0.0172167 0.000137258
0.383829 0.0183804 5.15472e-05
0.384428 0.0175321 5.23311e-05
0.38404 0.0171308 0.000188309
0.383994 0.0172487 5.17625e-05

VERTICES 267 534
1 0
1 1
1 2
1 3
1 4
1 5
1 6
1 7
1 8
1 9
1 10
1 11
1 12
1 13
1 14
1 15
1 16
1 17
1 18
1 19
1 20
1 21
1 22
1 23
1 24
1 25
1 26
1 27
1 28
1 29
1 30
1 31
1 32
1 33
1 34
1 35
1 36
1 37
1 38
1 39
1 40
1 41
1 42
1 43
1 44
1 45
1 46
1 47
1 48
1 49
1 50
1 51
1 52
1 53
1 54
1 55
1 56
1 57
1 58
1 59
1 60
1 61
1 62
1 63
1 64
1 65
1 66
1 67
1 68
1 69
1 70
1 71
1 72
1 73
1 74
1 75
1 76
1 77
1 78
1 79
1 80
1 81
1 82
1 83
1 84
1 85
1 86
1 87
1 88
1 89
1 90
1 91
1 92
1 93
1 94
1 95
1 96
1 97
1 98
1 99
1 100
1 101
1 102
1 103
1 104
1 105
1 106
1 107
1 108
1 109
1 110
1 111
1 112
1 113
1 114
1 115
1 116
1 117
1 118
1 119
1 120
1 121
1 122
1 123
1 124
1 125
1 126
1 127
1 128
1 129
1 130
1 131
1 132
1 133
1 134
1 135
1 136
1 137
1 138
1 139
1 140
1 141
1 142
1 143
1 144
1 145
1 146
1 147
1 148
1 149
1 150
1 151
1 152
1 153
1 154
1 155
1 156
1 157
1 158
1 159
1 160
1 161
1 162
1 163
1 164
1 165
1 166
1 167
1 168
1 169
1 170
1 171
1 172
1 173
1 174
1 175
1 176
1 177
1 178
1 179
1 180
1 181
1 182
1 183
1 184
1 185
1 186
1 187
1 188
1 189
1 190
1 191
1 192
1 193
1 194
1 195
1 196
1 197
1 198
1 199
1 200
1 201
1 202
1 203
1 204
1 205
1 206
1 207
1 208
1 209
1 210
1 211
1 212
1 213
1 214
1 215
1 216
1 217
1 218
1 219
1 220
1 221
1 222
1 223
1 224
1 225
1 226
1 227
1 228
1 229
1 230
1 231
1 232
1 233
1 234
1 235
1 236
1 237
1 238
1 239
1 240
1 241
1 242
1 243
1 244
1 245
1 246
1 247
1 248
1 249
1 250
1 251
1 252
1 253
1 254
1 255
1 256
1 257
1 258
1 259
1 260
1 261
1 262
1 263
1 264
1 265
1 266

POINT_DATA 267
SCALARS id int 1
LOOKUP_TABLE default
1
2
4
6
7
8
9
10
11
12
13
14
16
17
19
21
22
23
24
25
26
27
28
29
30
31
32
33
34
35
36
37
38
39
42
44
45
47
48
49
50
51
52
53
54
55
56
57
59
60
62
63
64
65
66
67
68
69
70
71
72
73
74
76
77
78
79
80
82
83
84
85
86
87
88
89
90
91
92
93
94
95
96
98
99
100
101
102
103
104
105
106
107
108
109
110
111
112
113
114
115
116
117
118
119
120
121
122
123
124
125
127
128
129
130
131
132
133
134
135
136
137
138
140
141
142
143
144
146
147
148
149
150
151
153
154
155
156
157
158
159
160
162
165
166
167
168
169
170
171
172
173
174
176
177
178
179
182
183
184
185
186
187
188
189
190
191
192
193
194
195
196
197
198
199
200
201
202
203
204
205
206
207
208
209
210
211
212
213
214
215
217
218
219
220
222
224
225
226
227
228
229
230
232
233
234
235
236
237
239
240
241
242
243
244
246
247
248
249
250
251
252
253
254
255
256
257
258
259
260
261
262
263
264
265
266
267
268
269
270
271
272
273
274
275
276
277
278
280
281
283
284
285
286
287
288
290
291
292
293
294
295
296
297
298
299
300

SCALARS type int 1
LOOKUP_TABLE default
1
1
1
1
1
1
1
1
1
1
1
1
1
1
1
1
1
1
1
1
1
1
1
1
1
1
1
1
1
1
1
1
1
1
1
1
1
1
1
1
1
1
1
1
1
1
1
1
1
1
1
1
1
1
1
1
1
1
1
1
1
1
1
1
1
1
1
1
1
1
1
1
1
1
1
1
1
1
1
1
1
1
1
1
1
1
1
1
1
1
1
1
1
1
1
1
1
1
1
1
1
1
1
1
1
1
1
1
1
1
1
1
1
1
1
1
1
1
1
1
1
1
1
1
1
1
1
1
1
1
1
1
1
1
1
1
1
1
1
1
1
1
1
1
1
1
1
1
1
1
1
1
1
1
1
1
1
1
1
1
1
1
1
1
1
1
1
1
1
1
1
1
1
1
1
1
1
1
1
1
1
1
1
1
1
1
1
1
1
1
1
1
1
1
1
1
1
1
1
1
1
1
1
1
1
1
1
1
1
1
1
1
1
1
1
1
1
1
1
1
1
1
1
1
1
1
1
1
1
1
1
1
1
1
1
1
1
1
1
1
1
1
1
1
1
1
1
1
1
1
1
1
1
1
1
1
1
1
1
1
1
1
1
1
1
1
1

SCALARS radius float 1
LOOKUP_TABLE default
5e-05
5e-05
5e-05
5e-05
5e-05
5e-05
5e-05
5e-05
5e-05
5e-05
5e-05
5e-05
5e-05
5e-05
5e-05
5e-05
5e-05
5e-05
5e-05
5e-05
5e-05
5e-05
5e-05
5e-05
5e-05
5e-05
5e-05
5e-05
5e-05
5e-05
5e-05
5e-05
5e-05
5e-05
5e-05
5e-05
5e-05
5e-05
5e-05
5e-05
5e-05
5e-05
5e-05
5e-05
5e-05
5e-05
5e-05
5e-05
5e-05
5e-05
5e-05
5e-05
5e-05
5e-05
5e-05
5e-05
5e-05
5e-05
5e-05
5e-05
5e-05
5e-05
5e-05
5e-05
5e-05
5e-05
5e-05
5e-05
5e-05
5e-05
5e-05
5e-05
5e-05
5e-05
5e-05
5e-05
5e-05
5e-05
5e-05
5e-05
5e-05
5e-05
5e-05
5e-05
5e-05
5e-05
5e-05
5e-05
5e-05
5e-05
5e-05
5e-05
5e-05
5e-05
5e-05
5e-05
5e-05
5e-05
5e-05
5e-05
5e-05
5e-05
5e-05
5e-05
5e-05
5e-05
5e-05
5e-05
5e-05
5e-05
5e-05
5e-05
5e-05
5e-05
5e-05
5e-05
5e-05
5e-05
5e-05
5e-05
5e-05
5e-05
5e-05
5e-05
5e-05
5e-05
5e-05
5e-05
5e-05
5e-05
5e-05
5e-05
5e-05
5e-05
5e-05
5e-05
5e-05
5e-05
5e-05
5e-05
5e-05
5e-05
5e-05
5e-05
5e-05
5e-05
5e-05
5e-05
5e-05
5e-05
5e-05
5e-05
5e-05
5e-05
5e-05
5e-05
5e-05
5e-05
5e-05
5e-05
5e-05
5e-05
5e-05
5e-05
5e-05
5e-05
5e-05
5e-05
5e-05
5e-05
5e-05
5e-05
5e-05
5e-05
5e-05
5e-05
5e-05
5e-05
5e-05
5e-05
5e-05
5e-05
5e-05
5e-05
5e-05
5e-05
5e-05
5e-05
5e-05
5e-05
5e-05
5e-05
5e-05
5e-05
5e-05
5e-05
5e-05
5e-05
5e-05
5e-05
5e-05
5e-05
5e-05
5e-05
5e-05
5e-05
5e-05
5e-05
5e-05
5e-05
5e-05
5e-05
5e-05
5e-05
5e-05
5e-05
5e-05
5e-05
5e-05
5e-05
5e-05
5e-05
5e-05
5e-05
5e-05
5e-05
5e-05
5e-05
5e-05
5e-05
5e-05
5e-05
5e-05
5e-05
5e-05
5e-05
5e-05
5e-05
5e-05
5e-05
5e-05
5e-05
5e-05
5e-05
5e-05
5e-05
5e-05
5e-05
5e-05
5e-05
5e-05
5e-05
5e-05
5e-05
5e-05
5e-05
5e-05
5e-05
5e-05
5e-05
5e-05
5e-05
5e-05
5e-05
5e-05
5e-05
5e-05

SCALARS mass float 1
LOOKUP_TABLE default
1.46608e-10
1.46608e-10
1.46608e-10
1.46608e-10
1.46608e-10
1.46608e-10
1.46608e-10
1.46608e-10
1.46608e-10
1.46608e-10
1.46608e-10
1.46608e-10
1.46608e-10
1.46608e-10
1.46608e-10
1.46608e-10
1.46608e-10
1.46608e-10
1.46608e-10
1.46608e-10
1.46608e-10
1.46608e-10
1.46608e-10
1.46608e-10
1.46608e-10
1.46608e-10
1.46608e-10
1.46608e-10
1.46608e-10
1.46608e-10
1.46608e-10
1.46608e-10
1.46608e-10
1.46608e-10
1.46608e-10
1.46608e-10
1.46608e-10
1.46608e-10
1.46608e-10
1.46608e-10
1.46608e-10
1.46608e-10
1.46608e-10
1.46608e-10
1.46608e-10
1.46608e-10
1.46608e-10
1.46608e-10
1.46608e-10
1.46608e-10
1.46608e-10
1.46608e-10
1.46608e-10
1.46608e-10
1.46608e-10
1.46608e-10
1.46608e-10
1.46608e-10
1.46608e-10
1.46608e-10
1.46608e-10
1.46608e-10
1.46608e-10
1.46608e-10
1.46608e-10
1.46608e-10
1.46608e-10
1.46608e-10
1.46608e-10
1.46608e-10
1.46608e-10
1.46608e-10
1.46608e-10
1.46608e-10
1.46608e-10
1.46608e-10
1.46608e-10
1.46608e-10
1.46608e-10
1.46608e-10
1.46608e-10
1.46608e-10
1.46608e-10
1.46608e-10
1.46608e-10
1.46608e-10
1.46608e-10
1.46608e-10
1.46608e-10
1.46608e-10
1.46608e-10
1.46608e-10
1.46608e-10
1.46608e-10
1.46608e-10
1.46608e-10
1.46608e-10
1.46608e-10
1.46608e-10
1.46608e-10
1.46608e-10
1.46608e-10
1.46608e-10
1.46608e-10
1.46608e-10
1.46608e-10
1.46608e-10
1.46608e-10
1.46608e-10
1.46608e-10
1.46608e-10
1.46608e-10
1.46608e-10
1.46608e-10
1.46608e-10
1.46608e-10
1.46608e-10
1.46608e-10
1.46608e-10
1.46608e-10
1.46608e-10
1.46608e-10
1.46608e-10
1.46608e-10
1.46608e-10
1.46608e-10
1.46608e-10
1.46608e-10
1.46608e-10
1.46608e-10
1.46608e-10
1.46608e-10
1.46608e-10
1.46608e-10
1.46608e-10
1.46608e-10
1.46608e-10
1.46608e-10
1.46608e-10
1.46608e-10
1.46608e-10
1.46608e-10
1.46608e-10
1.46608e-10
1.46608e-10
1.46608e-10
1.46608e-10
1.46608e-10
1.46608e-10
1.46608e-10
1.46608e-10
1.46608e-10
1.46608e-10
1.46608e-10
1.46608e-10
1.46608e-10
1.46608e-10
1.46608e-10
1.46608e-10
1.46608e-10
1.46608e-10
1.46608e-10
1.46608e-10
1.46608e-10
1.46608e-10
1.46608e-10
1.46608e-10
1.46608e-10
1.46608e-10
1.46608e-10
1.46608e-10
1.46608e-10
1.46608e-10
1.46608e-10
1.46608e-10
1.46608e-10
1.46608e-10
1.46608e-10
1.46608e-10
1.46608e-10
1.46608e-10
1.46608e-10
1.46608e-10
1.46608e-10
1.46608e-10
1.46608e-10
1.46608e-10
1.46608e-10
1.46608e-10
1.46608e-10
1.46608e-10
1.46608e-10
1.46608e-10
1.46608e-10
1.46608e-10
1.46608e-10
1.46608e-10
1.46608e-10
1.46608e-10
1.46608e-10
1.46608e-10
1.46608e-10
1.46608e-10
1.46608e-10
1.46608e-10
1.46608e-10
1.46608e-10
1.46608e-10
1.46608e-10
1.46608e-10
1.46608e-10
1.46608e-10
1.46608e-10
1.46608e-10
1.46608e-10
1.46608e-10
1.46608e-10
1.46608e-10
1.46608e-10
1.46608e-10
1.46608e-10
1.46608e-10
1.46608e-10
1.46608e-10
1.46608e-10
1.46608e-10
1.46608e-10
1.46608e-10
1.46608e-10
1.46608e-10
1.46608e-10
1.46608e-10
1.46608e-10
1.46608e-10
1.46608e-10
1.46608e-10
1.46608e-10
1.46608e-10
1.46608e-10
1.46608e-10
1.46608e-10
1.46608e-10
1.46608e-10
1.46608e-10
1.46608e-10
1.46608e-10
1.46608e-10
1.46608e-10
1.46608e-10
1.46608e-10
1.46608e-10
1.46608e-10
1.46608e-10
1.46608e-10
1.46608e-10
1.46608e-10
1.46608e-10
1.46608e-10
1.46608e-10
1.46608e-10
1.46608e-10
1.46608e-10
1.46608e-10
1.46608e-10
1.46608e-10
1.46608e-10
1.46608e-10

VECTORS velocity float
7.86792e-19 9.4077e-22 -5.98258e-16
-9.20519e-19 -6.753e-21 7.02844e-16
-6.03414e-20 9.72298e-21 2.86943e-17
4.87598e-19 8.16733e-22 -3.71585e-16
2.81054e-18 -5.69639e-22 -2.14593e-15
2.24033e-18 1.42825e-21 -1.71051e-15
2.24033e-18 2.44032e-21 -1.71052e-15
1.79759e-18 1.8632e-21 -1.37249e-15
2.81057e-18 9.82374e-23 -2.14593e-15
2.24034e-18 -5.18924e-21 -1.71052e-15
-3.41143e-12 1.62459e-12 -4.28414e-13
5.35495e-19 -8.70113e-22 -4.06398e-16
2.24034e-18 7.30373e-23 -1.71052e-15
2.24032e-18 2.7713e-22 -1.71052e-15
1.79759e-18 -4.98893e-20 -1.37251e-15
3.77811e-12 6.49607e-13 1.22266e-12
8.71345e-19 3.05487e-21 -6.65298e-16
-2.02595e-13 -1.3849e-13 -2.98501e-14
2.82118e-14 -4.08408e-14 4.54975e-14
2.24036e-18 -4.26199e-21 -1.71051e-15
2.24033e-18 -9.43948e-23 -1.71051e-15
-1.28949e-19 1.92049e-22 9.01957e-17
2.24034e-18 7.34053e-22 -1.71052e-15
2.24031e-18 1.06681e-21 -1.71052e-15
-1.20594e-19 1.89093e-21 9.01879e-17
1.63123e-20 -8.89218e-22 -7.47559e-18
1.03326e-19 7.77624e-22 -7.99273e-17
2.24037e-18 1.38431e-22 -1.71052e-15
1.05262e-19 3.44573e-21 -7.99197e-17
-2.18662e-19 3.10004e-21 1.69475e-16
-3.50196e-19 -8.29427e-22 2.67381e-16
1.79759e-18 5.12906e-21 -1.37251e-15
-1.73734e-13 -1.88802e-13 1.05396e-13
-3.50198e-19 -3.26004e-22 2.67381e-16
1.28259e-16 6.72572e-20 3.78515e-14
1.7976e-18 1.80429e-23 -1.37251e-15
-3.46233e-20 -7.24433e-22 2.87139e-17
-0.000508486 0.0353618 -0.0228687
-8.00765e-19 -1.96782e-22 6.08849e-16
1.7976e-18 3.91859e-21 -1.37251e-15
1.79761e-18 -8.16185e-22 -1.37249e-15
5.35607e-19 -1.5182e-22 -4.06396e-16
2.00503e-18 -5.28079e-22 -1.5309e-15
2.24031e-18 1.34071e-20 -1.71052e-15
2.81054e-18 -3.62562e-22 -2.14593e-15
2.81054e-18 8.59046e-22 -2.14593e-15
-3.10062e-20 9.49699e-21 2.8756e-17
-3.5021e-19 2.27404e-21 2.67381e-16
-5.01998e-15 -7.4121e-15 7.69802e-14
2.24034e-18 -8.14968e-21 -1.71052e-15
2.24037e-18 -1.15765e-21 -1.71052e-15
2.24033e-18 -4.9945e-21 -1.71052e-15
1.79758e-18 1.4045e-23 -1.37249e-15
2.24032e-18 -1.55e-20 -1.71052e-15
-3.50177e-19 -1.70617e-20 2.67381e-16
-3.50178e-19 3.25887e-21 2.67382e-16
9.26027e-12 -9.61593e-12 1.3445e-12
2.81057e-18 1.59576e-21 -2.14593e-15
-3.50167e-19 3.35365e-21 2.67381e-16
2.81059e-18 -1.46954e-21 -2.14593e-15
-2.18205e-19 -1.85981e-21 1.69475e-16
2.00506e-18 2.14285e-21 -1.5309e-15
8.71343e-19 -5.97079e-21 -6.65298e-16
2.24033e-18 1.4714e-22 -1.71052e-15
1.79761e-18 -2.51363e-21 -1.37249e-15
2.24031e-18 8.22133e-22 -1.71052e-15
2.00508e-18 -5.32486e-21 -1.5309e-15
2.24031e-18 -4.64225e-22 -1.71051e-15
2.24033e-18 -2.56522e-21 -1.71051e-15
2.00504e-18 -7.77779e-22 -1.5309e-15
5.32343e-19 -6.61987e-21 -4.06404e-16
1.03568e-19 -3.96662e-22 -8.03914e-17
-9.20538e-19 4.79938e-23 7.02843e-16
1.79755e-18 -3.11667e-21 -1.37249e-15
1.28258e-16 -2.56123e-21 3.78515e-14
2.24035e-18 -1.37639e-21 -1.71051e-15
2.24035e-18 2.49356e-22 -1.71052e-15
2.24033e-18 2.11123e-21 -1.71052e-15
-9.20573e-19 -1.9451e-21 7.02843e-16
-1.15573e-18 3.57751e-21 8.82406e-16
-3.50222e-19 -5.13032e-21 2.67383e-16
4.82846e-19 7.76609e-21 -3.71584e-16
1.79759e-18 -9.87211e-24 -1.37251e-15
-3.50221e-19 1.60781e-21 2.67382e-16
1.79759e-18 -4.9271e-21 -1.37249e-15
2.24033e-18 -1.51814e-21 -1.71052e-15
2.00507e-18 1.59187e-20 -1.5309e-15
4.14873e-15 1.05158e-14 8.29636e-14
1.4124e-22 4.86658e-23 1.23839e-22
-3.50224e-19 5.03163e-22 2.67381e-16
1.06104e-19 1.07139e-20 -7.99283e-17
7.79637e-19 2.91977e-21 -5.98255e-16
-8.24881e-21 -3.69163e-21 -2.81824e-21
-7.97965e-19 3.64882e-21 6.0885e-16
2.81054e-18 -1.53831e-20 -2.14593e-15
2.81056e-18 1.63163e-22 -2.14593e-15
1.02142e-19 1.66836e-22 -7.99284e-17
1.79764e-18 -6.69706e-21 -1.37251e-15
-2.22415e-19 3.52365e-21 1.69473e-16
1.79761e-18 -4.87285e-21 -1.37249e-15
1.79759e-18 -5.65432e-22 -1.37251e-15
2.24034e-18 -3.41869e-22 -1.71052e-15
-9.45193e-19 9.87988e-21 7.02812e-16
-3.50175e-19 1.1291e-23 2.67381e-16
7.8443e-19 4.53956e-22 -5.98253e-16
-2.41936e-14 5.69367e-15 2.06124e-15
1.79759e-18 7.09072e-21 -1.37251e-15
1.91151e-14 -3.32936e-14 1.35246e-14
1.05166e-19 1.69293e-21 -8.03881e-17
-8.50681e-21 -1.16059e-20 -4.17044e-19
2.24037e-18 2.22878e-21 -1.71052e-15
1.54118e-20 1.36221e-20 -7.47673e-18
-9.20565e-19 1.26071e-21 7.02842e-16
-2.22809e-19 -1.21818e-21 1.69476e-16
2.24034e-18 7.69371e-22 -1.71052e-15
-3.28101e-17 2.71633e-14 8.96715e-14
2.24031e-18 1.32537e-21 -1.71052e-15
-3.5017e-19 9.36666e-21 2.67382e-16
2.81057e-18 6.26595e-22 -2.14593e-15
2.81059e-18 1.7234e-22 -2.14593e-15
-9.20518e-19 1.36287e-20 7.02843e-16
1.79756e-18 -1.05992e-23 -1.37249e-15
-1.90155e-12 -2.14594e-12 -3.60002e-13
2.24036e-18 9.99703e-21 -1.71052e-15
2.24034e-18 9.10674e-21 -1.71052e-15
1.45284e-18 2.19453e-21 -1.10923e-15
-5.13589e-19 4.11778e-21 3.87842e-16
-3.50196e-19 6.96523e-21 2.67381e-16
2.81059e-18 -2.03544e-21 -2.14593e-15
2.24035e-18 -1.53719e-20 -1.71052e-15
2.24037e-18 8.03348e-22 -1.71052e-15
-1.21697e-19 -2.79016e-21 9.02083e-17
2.81057e-18 -4.81858e-21 -2.14593e-15
8.7135e-19 -1.79918e-20 -6.65298e-16
-4.02079e-20 -1.49364e-20 -3.3197e-21
4.83425e-19 -1.74598e-21 -3.71588e-16
-9.2055e-19 2.06155e-21 7.02844e-16
2.24031e-18 -3.80253e-22 -1.71051e-15
-3.83617e-14 8.16323e-14 2.95893e-13
2.24035e-18 -2.62288e-20 -1.71052e-15
-5.07404e-19 7.21601e-21 3.87838e-16
2.00084e-17 2.72305e-14 8.96511e-14
-3.50167e-19 2.52527e-22 2.6738e-16
-3.50169e-19 -3.43322e-21 2.6738e-16
-9.20555e-19 2.97081e-20 7.02845e-16
8.71355e-19 2.06919e-20 -6.65297e-16
2.81055e-18 -3.80488e-22 -2.14593e-15
2.81059e-18 -1.14265e-21 -2.14593e-15
6.88101e-16 -4.5769e-15 -5.98175e-14
2.81055e-18 1.15153e-21 -2.14593e-15
-3.57149e-20 5.59707e-20 2.8729e-17
-3.50198e-19 -1.87277e-21 2.67381e-16
-1.32141e-14 5.78753e-15 7.06893e-15
-5.35287e-15 6.64097e-16 -1.8518e-15
1.45743e-20 -2.15755e-22 -7.47398e-18
2.81059e-18 6.41316e-23 -2.14593e-15
1.79763e-18 -8.78627e-22 -1.37251e-15
1.79763e-18 -2.86326e-21 -1.37251e-15
1.45283e-18 2.66163e-21 -1.10923e-15
2.81057e-18 -2.09108e-22 -2.14593e-15
-3.50204e-19 -1.19239e-21 2.67381e-16
1.14818e-20 -3.40683e-22 -7.47483e-18
-3.50195e-19 -1.96573e-21 2.67381e-16
1.79757e-18 1.20337e-20 -1.37249e-15
2.24035e-18 -9.51169e-22 -1.71051e-15
-1.1557e-18 -2.08551e-20 8.82406e-16
1.79756e-18 -1.98571e-21 -1.37249e-15
-2.3694e-15 1.4602e-15 2.71122e-15
-3.50189e-19 1.01692e-20 2.67382e-16
1.7976e-18 1.32534e-20 -1.37249e-15
1.79762e-18 -2.90189e-21 -1.37251e-15
1.7976e-18 2.02128e-24 -1.37249e-15
-8.10414e-19 2.14876e-21 6.08853e-16
1.08955e-19 8.20712e-23 -8.03862e-17
-1.16137e-19 -3.14948e-21 9.01927e-17
-5.63914e-22 3.18074e-21 1.10769e-20
1.45285e-18 -1.25363e-21 -1.10923e-15
1.79762e-18 -1.83467e-21 -1.37251e-15
2.49227e-12 -3.63075e-12 9.19405e-13
1.79763e-18 -1.58596e-21 -1.37251e-15
2.24035e-18 -6.06542e-21 -1.71052e-15
1.62433e-13 -5.2367e-13 -6.53936e-13
1.79764e-18 9.45928e-23 -1.37251e-15
1.7976e-18 6.42136e-22 -1.37249e-15
-8.4886e-16 7.70128e-17 9.97223e-16
2.24035e-18 -8.97003e-21 -1.71051e-15
2.24032e-18 4.27913e-21 -1.71052e-15
-2.82525e-15 1.87927e-14 2.4561e-13
2.81059e-18 2.84518e-21 -2.14593e-15
9.18212e-20 -4.45533e-21 -7.992e-17
1.45286e-18 -1.83425e-21 -1.10923e-15
1.79762e-18 -1.12733e-21 -1.37251e-15
-9.20572e-19 -1.50136e-20 7.02843e-16
1.79763e-18 -3.06275e-21 -1.37251e-15
1.7976e-18 7.1437e-23 -1.37251e-15
2.93971e-15 1.75382e-14 1.1108e-14
4.34648e-15 -6.37174e-15 1.69011e-15
1.03592e-19 6.52186e-21 -7.99125e-17
-3.50222e-19 2.28662e-22 2.67381e-16
2.24033e-18 -6.60489e-21 -1.71052e-15
1.24373e-15 9.6445e-16 -2.41204e-15
-3.50223e-19 -1.48816e-22 2.67382e-16
-9.20529e-19 -4.46632e-22 7.02844e-16
-5.74109e-14 -4.16351e-19 -1.77479e-13
-8.95939e-19 -9.36011e-21 7.02812e-16
-3.5018e-19 1.23036e-21 2.67382e-16
1.11177e-22 -8.43281e-22 -2.2895e-21
-9.20569e-19 1.0552e-20 7.02842e-16
7.6957e-19 4.10347e-21 -5.98258e-16
2.24031e-18 4.72288e-23 -1.71051e-15
-5.15903e-19 5.76847e-21 3.87833e-16
2.24037e-18 -4.46427e-22 -1.71051e-15
7.81515e-19 2.28287e-21 -5.98258e-16
2.00508e-18 2.07096e-20 -1.5309e-15
-1.2391e-19 1.70914e-21 9.01928e-17
-3.50207e-19 1.063e-22 2.6738e-16
-2.74366e-11 -8.1408e-11 -3.17771e-12
-3.50219e-19 1.35433e-22 2.67381e-16
8.71341e-19 -1.20575e-20 -6.65297e-16
4.85935e-19 -2.92353e-22 -3.71585e-16
-2.26458e-19 2.13505e-22 1.69486e-16
8.7135e-19 -4.00367e-21 -6.65298e-16
2.81054e-18 -1.1155e-20 -2.14593e-15
1.7976e-18 1.12846e-21 -1.37249e-15
-7.98206e-19 1.93859e-21 6.08848e-16
-3.50169e-19 6.7107e-22 2.67382e-16
2.24033e-18 2.15536e-23 -1.71051e-15
-5.14035e-22 2.33996e-23 1.03396e-21
2.00507e-18 3.52723e-21 -1.5309e-15
-1.23202e-19 -2.25674e-21 9.02023e-17
-3.50221e-19 1.13298e-23 2.67381e-16
-1.16823e-19 1.10043e-22 9.01952e-17
-3.50166e-19 -3.73846e-20 2.67382e-16
9.95276e-20 3.14243e-21 -8.03892e-17
1.7976e-18 6.68536e-22 -1.37251e-15
-3.50187e-19 3.66737e-21 2.67382e-16
2.24036e-18 1.38315e-22 -1.71052e-15
1.79761e-18 -9.18611e-21 -1.37251e-15
-1.7785e-15 1.35119e-15 6.10281e-16
-5.07538e-19 3.54635e-21 3.87841e-16
1.79761e-18 3.92302e-21 -1.37251e-15
1.34438e-14 3.71663e-15 -8.39308e-15
2.24031e-18 1.48483e-21 -1.71051e-15
8.71384e-19 8.46636e-22 -6.65298e-16
-9.20522e-19 -2.4635e-22 7.02844e-16
2.24031e-18 -1.3251e-21 -1.71052e-15
1.79758e-18 4.58693e-22 -1.37249e-15
2.24033e-18 -2.18324e-22 -1.71052e-15
2.81054e-18 5.05216e-22 -2.14593e-15
8.71386e-19 3.42432e-21 -6.65298e-16
2.24037e-18 4.4362e-21 -1.71052e-15
2.81059e-18 1.71253e-21 -2.14593e-15
4.90826e-19 -4.05241e-22 -3.71578e-16
4.87621e-19 2.14294e-23 -3.71584e-16
2.24035e-18 -8.18847e-21 -1.71052e-15
1.7976e-18 2.44609e-21 -1.37251e-15
1.11087e-19 -2.12746e-21 -7.99278e-17
2.24036e-18 2.13718e-22 -1.71052e-15
-3.50176e-19 4.91165e-21 2.67381e-16
-1.19194e-19 -3.13304e-21 9.0189e-17
5.31324e-19 2.94808e-22 -4.06399e-16
-3.50207e-19 3.96911e-24 2.67381e-16
-7.50385e-18 9.18882e-19 3.99234e-17
1.79763e-18 1.47009e-21 -1.37251e-15
-1.18388e-19 -6.81383e-22 9.0194e-17
-1.2992e-17 3.04797e-17 2.00843e-17
-5.21787e-20 1.31704e-20 5.07436e-17

VECTORS force float
0.0 -1.29247e-26 0.0
0.0 2.65275e-26 0.0
-5.16988e-26 -5.16988e-26 0.0
0.0 -3.23117e-27 0.0
0.0 -1.37428e-26 0.0
0.0 2.49381e-26 0.0
0.0 -5.71336e-27 0.0
0.0 1.86696e-26 0.0
-4.03897e-28 -7.16002e-26 0.0
0.0 -5.91221e-26 0.0
8.11999e-18 -9.26996e-19 -2.72852e-18
0.0 0.0 2.06795e-25
0.0 1.72637e-27 0.0
-4.03897e-28 -2.72187e-27 0.0
0.0 -3.81138e-25 0.0
-2.32911e-17 1.41665e-18 -2.88073e-18
0.0 -1.34942e-25 0.0
1.09503e-18 1.57275e-18 -1.26528e-18
-1.73748e-19 1.24645e-18 -7.85051e-19
0.0 2.66303e-26 0.0
-4.03897e-28 2.07743e-27 0.0
-1.03398e-25 0.0 0.0
0.0 4.32766e-27 0.0
0.0 2.91717e-26 0.0
0.0 0.0 0.0
0.0 0.0 0.0
0.0 0.0 0.0
0.0 7.21253e-29 0.0
0.0 0.0 0.0
0.0 0.0 0.0
0.0 8.2082e-27 0.0
0.0 -1.04317e-25 0.0
-7.95891e-19 6.4197e-19 -1.80116e-18
4.03897e-28 5.32456e-27 0.0
0.0 2.27927e-25 0.0
0.0 2.58877e-28 0.0
5.16988e-26 3.23117e-27 0.0
-2.36066e-12 1.01002e-10 -1.73833e-10
0.0 0.0 0.0
0.0 5.64101e-27 0.0
0.0 -4.81618e-28 0.0
0.0 0.0 0.0
0.0 -2.8002e-26 0.0
0.0 -2.7339e-26 0.0
0.0 -3.59362e-27 0.0
0.0 -2.08419e-26 0.0
0.0 0.0 0.0
0.0 -4.93961e-26 0.0
-4.57534e-24 7.10858e-24 4.1359e-25
-4.03897e-28 -1.42277e-25 0.0
0.0 -3.70525e-26 0.0
0.0 -9.12213e-27 0.0
4.03897e-28 -1.79377e-27 0.0
4.03897e-28 -1.71626e-25 0.0
0.0 2.77458e-25 0.0
0.0 3.29772e-26 0.0
7.91592e-18 1.09204e-18 -2.15922e-17
4.03897e-28 1.67901e-26 0.0
0.0 4.31787e-26 0.0
0.0 7.32199e-27 0.0
0.0 0.0 0.0
-4.03897e-28 -5.40355e-27 0.0
0.0 5.7302e-26 0.0
0.0 -1.52264e-27 0.0
0.0 7.47784e-27 0.0
-4.03897e-28 -4.08582e-27 0.0
0.0 -1.50085e-26 0.0
0.0 -3.75208e-26 0.0
0.0 -1.4569e-25 0.0
0.0 1.39812e-26 0.0
0.0 0.0 0.0
0.0 0.0 0.0
0.0 -6.56234e-27 0.0
0.0 2.56708e-26 0.0
0.0 -2.7548e-26 0.0
0.0 3.96265e-26 0.0
-4.03897e-28 -8.4784e-27 0.0
0.0 -3.04338e-27 0.0
0.0 1.6862e-26 0.0
0.0 -4.64054e-26 0.0
0.0 -1.45258e-25 0.0
0.0 0.0 0.0
0.0 -2.08388e-28 0.0
0.0 9.10273e-26 0.0
0.0 -3.90763e-26 0.0
0.0 -3.74548e-26 0.0
0.0 -1.55946e-25 0.0
2.42434e-21 -6.28967e-22 -4.01183e-23
0.0 0.0 0.0
0.0 2.66565e-26 0.0
-1.29247e-26 -5.16988e-26 0.0
0.0 0.0 0.0
0.0 1.29247e-26 0.0
0.0 0.0 0.0
0.0 -1.63905e-25 0.0
0.0 1.41414e-28 0.0
2.58494e-26 -4.84676e-27 0.0
0.0 -2.07838e-25 0.0
-1.03398e-25 -1.29247e-26 0.0
0.0 5.05118e-26 0.0
0.0 -1.25793e-26 0.0
0.0 8.91932e-27 0.0
-1.03398e-25 4.52364e-26 0.0
0.0 -7.56922e-28 0.0
0.0 0.0 0.0
3.13442e-19 -1.36814e-19 -1.24153e-19
0.0 -1.99637e-25 0.0
-3.79597e-19 2.52501e-19 -5.78841e-19
0.0 0.0 0.0
0.0 0.0 0.0
0.0 -4.49921e-27 0.0
0.0 0.0 0.0
0.0 7.4132e-28 0.0
1.29247e-26 0.0 0.0
4.03897e-28 -7.51904e-27 0.0
-3.23919e-22 -4.12324e-22 1.25111e-22
0.0 1.95883e-26 0.0
0.0 4.7295e-25 0.0
0.0 -5.68129e-27 0.0
0.0 -2.78384e-27 0.0
0.0 3.58909e-26 0.0
0.0 5.7895e-28 0.0
1.06117e-19 -1.14928e-18 -8.71279e-18
0.0 -6.75716e-26 0.0
0.0 -1.42889e-25 0.0
0.0 6.42621e-26 0.0
0.0 0.0 0.0
0.0 -1.22983e-25 0.0
0.0 -1.04474e-27 0.0
0.0 -1.19589e-25 0.0
0.0 -3.46109e-26 0.0
1.03398e-25 0.0 0.0
0.0 2.47524e-26 0.0
0.0 1.6128e-25 0.0
0.0 5.81611e-26 2.54455e-26
-5.16988e-26 -1.29247e-26 0.0
0.0 4.01227e-25 0.0
0.0 1.86681e-27 0.0
-1.03292e-21 -3.29166e-22 -4.54949e-23
0.0 -8.4551e-25 0.0
2.58494e-26 0.0 0.0
3.41057e-22 4.34089e-22 -1.31522e-22
0.0 1.40379e-28 0.0
0.0 1.59172e-25 0.0
0.0 3.55591e-25 0.0
0.0 2.86236e-25 0.0
0.0 4.59496e-27 0.0
0.0 6.23961e-27 0.0
-2.22951e-24 -3.87741e-25 0.0
0.0 -3.42272e-26 0.0
-7.75482e-26 0.0 0.0
0.0 -8.88258e-26 0.0
-2.67098e-20 1.08901e-20 -3.12478e-20
7.60391e-20 -8.31517e-20 -6.32586e-21
0.0 0.0 0.0
0.0 -9.22901e-28 0.0
0.0 -1.73975e-25 0.0
4.03897e-28 -4.6149e-26 0.0
0.0 2.03839e-26 0.0
0.0 1.48949e-26 0.0
0.0 9.40179e-28 0.0
0.0 0.0 0.0
0.0 -3.72986e-26 0.0
0.0 -3.62461e-25 0.0
0.0 -4.246e-27 0.0
0.0 2.28386e-25 0.0
0.0 6.37853e-26 0.0
2.7058e-20 -1.95967e-20 -2.14281e-20
0.0 4.83914e-26 0.0