# vtk DataFile Version 3.0
LIGGGHTS particles timestep 57400000
ASCII
DATASET POLYDATA
POINTS 275 float
0.347956 0.0181974 0.00703544
0.347692 0.0174451 0.00739056
0.347833 0.0171788 0.00739876
0.347382 0.0161352 0.00793923
0.353579 0.0169947 0.00762342
0.347978 0.0179272 0.00712623
0.347668 0.0168846 0.00755494
0.353796 0.0178984 0.00714487
0.347647 0.0167972 0.00759854
0.348076 0.018571 0.00699911
0.341825 0.0167799 0.00748226
0.347361 0.0160477 0.00798284
0.341708 0.017078 0.00733655
0.341926 0.017694 0.00725332
0.34749 0.0165721 0.00772123
0.34734 0.0159865 0.00805899
0.347883 0.0178968 0.00713778
0.347971 0.0173975 0.0073049
0.34198 0.0175295 0.0072638
0.353716 0.0175397 0.00733446
0.34777 0.0169149 0.00753027
0.353758 0.0177195 0.00723934
0.341634 0.0166471 0.00761887
0.347597 0.017009 0.00750324
0.347319 0.0159304 0.00813919
0.34762 0.0170932 0.00755958
0.347902 0.0179898 0.00710617
0.347511 0.0166595 0.00767763
0.353602 0.0170847 0.00757569
0.347468 0.0164847 0.00776483
0.34792 0.0176481 0.00722112
0.353853 0.0181682 0.00700249
0.347813 0.0170911 0.00744239
0.347878 0.0174629 0.00728414
0.353737 0.0176302 0.00728656
0.347425 0.01631 0.00785203
0.348034 0.0177704 0.00717828
0.348078 0.0179551 0.00711541
0.353625 0.0171756 0.0075275
0.347447 0.0163973 0.00780843
0.34775 0.0176804 0.00721261
0.353815 0.0179881 0.00709753
0.347533 0.0167467 0.00763404
0.348185 0.0184466 0.00694819
0.342157 0.017948 0.00720435
0.35367 0.0173579 0.00743087
0.347954 0.0184873 0.00701883
0.341758 0.0168983 0.00750625
0.347884 0.0183307 0.00699148
0.353648 0.0172668 0.00747918
0.378022 0.019866 0.005332
0.348097 0.0181436 0.0070516
0.347404 0.0162226 0.00789563
0.3479 0.0175553 0.00725269
0.347975 0.0182903 0.00700385
0.353693 0.0174489 0.00738263
0.341668 0.0169699 0.00735754
0.342055 0.0179832 0.0072927
0.34807 0.0183204 0.00699237
0.347752 0.0172347 0.00738052
0.347981 0.0187974 0.00684106
0.353777 0.0178089 0.00719214
0.342042 0.017821 0.00722883
0.347923 0.0185165 0.00692829
0.347995 0.0175853 0.00724124
0.347598 0.0170036 0.00760309
0.34164 0.0167115 0.00754261
0.347817 0.0175845 0.00732684
0.34123 0.0159101 0.00880602
0.341882 0.0183139 0.00719715
0.347711 0.0170594 0.00746774
0.341989 0.0177587 0.00732646
0.341822 0.0168681 0.0074352
0.353834 0.0180778 0.0070502
0.341988 0.0179854 0.00721827
0.348055 0.0178631 0.00714676
0.34769 0.016972 0.00751134
0.347953 0.0180372 0.00717937
0.348033 0.018569 0.00690908
0.34809 0.0184131 0.00696084
0.341736 0.0167413 0.00750634
0.347788 0.0176794 0.00730501
0.348093 0.0189292 0.00683569
0.347853 0.0180343 0.00718103
0.347915 0.0180947 0.00710714
0.34768 0.0173596 0.00732874
0.341457 0.01623 0.00825446
0.348019 0.018993 0.00685768
0.341697 0.0174392 0.00730224
0.348003 0.0180186 0.00709503
0.341717 0.0175364 0.00729058
0.0643568 0.0187248 0.00531097
0.24257 0.0191927 0.00520306
0.341947 0.0177912 0.00724165
0.341437 0.0161786 0.00833789
0.341788 0.0176138 0.0073627
0.34125 0.0159615 0.00872257
0.347904 0.0184236 0.00695988
0.348056 0.0187329 0.00685347
0.347885 0.0176598 0.00731426
0.347647 0.0171791 0.00751555
0.341594 0.0162906 0.00812023
0.341615 0.0170544 0.00736746
0.341656 0.0172448 0.00732556
0.347878 0.0173634 0.00731771
0.347864 0.0178039 0.00716938
0.347958 0.0178343 0.00715782
0.341783 0.0170238 0.00737661
0.347942 0.0186094 0.0068967
0.347935 0.0172118 0.00737276
0.347807 0.0179591 0.00711784
0.347659 0.0172718 0.00737235
0.342062 0.0179181 0.00721715
0.347975 0.0174921 0.00727293
0.347793 0.017414 0.0073021
0.341311 0.0161155 0.00847229
0.347884 0.0169657 0.00749454
0.34805 0.0182275 0.00702394
0.341751 0.0172749 0.00731274
0.341771 0.0173721 0.00730108
0.347853 0.0172666 0.00735515
0.347824 0.0177981 0.00726087
0.347844 0.0177105 0.00720116
0.348 0.0188952 0.00684947
0.341733 0.0168235 0.00744503
0.347931 0.0179452 0.00721273
0.347716 0.0175381 0.00733541
0.347619 0.0170964 0.00745964
0.341639 0.016392 0.00795387
0.34196 0.0174323 0.00727546
0.34127 0.0160129 0.00863915
0.341919 0.0172379 0.00729878
0.34148 0.016632 0.00788498
0.34173 0.0171777 0.0073244
0.34165 0.0164455 0.00787009
0.347554 0.0168342 0.00759044
0.34184 0.0181197 0.00722056
0.341757 0.017731 0.00726734
0.34165 0.0165009 0.0077868
0.341291 0.0160642 0.00855572
0.341606 0.0170567 0.00750577
0.341613 0.0163423 0.00803668
0.0219312 0.0187687 0.00551176
0.341719 0.016594 0.00762533
0.347732 0.017147 0.00742414
0.341737 0.0176337 0.00727895
0.341941 0.0180059 0.00730376
0.341506 0.0162709 0.00817758
0.341872 0.0178583 0.00724282
0.34773 0.0175878 0.00724473
0.341862 0.0180678 0.00731025
0.341935 0.0181498 0.00720768
0.341798 0.0179254 0.00724398
0.341914 0.0180527 0.00721938
0.347994 0.0183832 0.00697226
0.341596 0.0169763 0.00742695
0.348072 0.0188327 0.00681961
0.341541 0.0167456 0.0075931
0.341857 0.0174647 0.00736586
0.341331 0.0161668 0.00838888
0.341716 0.0175075 0.0073863
0.341937 0.017854 0.00731888
0.347846 0.0181449 0.00705466
0.341896 0.0176594 0.00734228
0.348113 0.0185127 0.00692693
0.34194 0.0173351 0.00728712
0.342086 0.018019 0.00720474
0.347827 0.018052 0.00708625
0.347772 0.0173237 0.0073397
0.347788 0.0178662 0.00714944
0.335945 0.0186216 0.00686302
0.347812 0.0174912 0.00736499
0.341636 0.0171477 0.00733792
0.348015 0.0184758 0.00694075
0.342032 0.0178838 0.00730611
0.341832 0.0176639 0.00726613
0.341886 0.0174995 0.00727661
0.335631 0.0171873 0.00749866
0.341877 0.0170443 0.00735054
0.341891 0.0177657 0.00734637
0.341417 0.0161273 0.00842134
0.341852 0.0177612 0.00725452
0.341718 0.0166495 0.00754213
0.347825 0.0176175 0.00723278
0.342001 0.0176267 0.00725214
0.34156 0.0164808 0.00784536
0.341606 0.0165874 0.00769407
0.34142 0.0163131 0.00814681
0.341752 0.0169296 0.00739596
0.34158 0.0168854 0.0073886
0.347792 0.0170035 0.007486
0.347576 0.0169216 0.00754684
0.341968 0.0178883 0.00722996
0.347769 0.0177733 0.00718104
0.347939 0.0177411 0.00718952
0.33585 0.0181734 0.00706319
0.341371 0.0162696 0.00822201
0.347865 0.0182378 0.00702307
0.341677 0.017342 0.0073139
0.347955 0.017303 0.00733699
0.341791 0.0174693 0.00728943
0.348002 0.0181134 0.0070631
0.341499 0.0165975 0.00768907
0.347664 0.0172677 0.00747215
0.341876 0.0175622 0.00735393
0.335869 0.018263 0.00702316
0.335812 0.0179941 0.00714327
0.342009 0.0180825 0.00720657
0.341573 0.0168369 0.00756793
0.341893 0.0179554 0.00723112
0.341832 0.017857 0.00733431
0.347961 0.0187024 0.00686511
0.341469 0.0165208 0.00781372
0.341689 0.017201 0.00741265
0.34156 0.0167976 0.00743192
0.335525 0.016738 0.00769078
0.335589 0.0170076 0.00757551
0.335504 0.0166482 0.0077292
0.341852 0.0169542 0.00739435
0.341866 0.0174022 0.00728827
0.335546 0.0168279 0.00765236
0.335736 0.0176355 0.00730341
0.341409 0.0163671 0.0080634
0.341745 0.0174117 0.00738902
0.335673 0.0173671 0.00742181
0.341526 0.0163872 0.00801787
0.347785 0.0175084 0.0072701
0.335755 0.0177252 0.00726337
0.335926 0.018532 0.00690305
0.335694 0.0174568 0.00738315
0.3418 0.0173284 0.00738616
0.342025 0.0177231 0.00724021
0.341695 0.0165436 0.00770842
0.341706 0.0172987 0.00739918
0.335774 0.0178148 0.00722334
0.341777 0.0178282 0.00725568
0.341664 0.0168549 0.00751023
0.341579 0.0169053 0.00749521
0.335652 0.0172772 0.00746024
0.341628 0.0171255 0.00743657
0.335964 0.0187124 0.00682573
0.341812 0.0175666 0.00727776
0.341548 0.0164275 0.00792914
0.341898 0.0171396 0.00731064
0.341845 0.017305 0.00729993
0.347639 0.0171841 0.00741597
0.341861 0.0182168 0.00720885
0.335831 0.0180837 0.00710323
0.341554 0.0165383 0.00776372
0.335793 0.0179044 0.0071833
0.34153 0.0167083 0.00768526
0.341505 0.0163265 0.00809452
0.341429 0.0164185 0.00797996
0.341806 0.0171133 0.00733841
0.336022 0.0185643 0.00689039
0.335888 0.0183527 0.00698312
0.341807 0.0177114 0.00735171
0.335567 0.0169177 0.00761393
0.341676 0.0169494 0.00748003
0.341519 0.0166488 0.00760564
0.341491 0.0166185 0.00778646
0.341546 0.0168347 0.007664
0.341906 0.0175967 0.00726495
0.341351 0.0162182 0.00830543
0.341651 0.0167687 0.00746128
0.341825 0.0172078 0.00731196
0.341819 0.0180225 0.00723228
0.341541 0.01672 0.0074921
0.341697 0.0170361 0.00742668
0.335907 0.0184423 0.00694309
0.34145 0.0164769 0.00790152
0.347831 0.0179391 0.00721292
0.33561 0.0170975 0.00753708
0.335716 0.017546 0.00734334
0.3477 0.0174499 0.00729103

VERTICES 275 550
1 0
1 1
1 2
1 3
1 4
1 5
1 6
1 7
1 8
1 9
1 10
1 11
1 12
1 13
1 14
1 15
1 16
1 17
1 18
1 19
1 20
1 21
1 22
1 23
1 24
1 25
1 26
1 27
1 28
1 29
1 30
1 31
1 32
1 33
1 34
1 35
1 36
1 37
1 38
1 39
1 40
1 41
1 42
1 43
1 44
1 45
1 46
1 47
1 48
1 49
1 50
1 51
1 52
1 53
1 54
1 55
1 56
1 57
1 58
1 59
1 60
1 61
1 62
1 63
1 64
1 65
1 66
1 67
1 68
1 69
1 70
1 71
1 72
1 73
1 74
1 75
1 76
1 77
1 78
1 79
1 80
1 81
1 82
1 83
1 84
1 85
1 86
1 87
1 88
1 89
1 90
1 91
1 92
1 93
1 94
1 95
1 96
1 97
1 98
1 99
1 100
1 101
1 102
1 103
1 104
1 105
1 106
1 107
1 108
1 109
1 110
1 111
1 112
1 113
1 114
1 115
1 116
1 117
1 118
1 119
1 120
1 121
1 122
1 123
1 124
1 125
1 126
1 127
1 128
1 129
1 130
1 131
1 132
1 133
1 134
1 135
1 136
1 137
1 138
1 139
1 140
1 141
1 142
1 143
1 144
1 145
1 146
1 147
1 148
1 149
1 150
1 151
1 152
1 153
1 154
1 155
1 156
1 157
1 158
1 159
1 160
1 161
1 162
1 163
1 164
1 165
1 166
1 167
1 168
1 169
1 170
1 171
1 172
1 173
1 174
1 175
1 176
1 177
1 178
1 179
1 180
1 181
1 182
1 183
1 184
1 185
1 186
1 187
1 188
1 189
1 190
1 191
1 192
1 193
1 194
1 195
1 196
1 197
1 198
1 199
1 200
1 201
1 202
1 203
1 204
1 205
1 206
1 207
1 208
1 209
1 210
1 211
1 212
1 213
1 214
1 215
1 216
1 217
1 218
1 219
1 220
1 221
1 222
1 223
1 224
1 225
1 226
1 227
1 228
1 229
1 230
1 231
1 232
1 233
1 234
1 235
1 236
1 237
1 238
1 239
1 240
1 241
1 242
1 243
1 244
1 245
1 246
1 247
1 248
1 249
1 250
1 251
1 252
1 253
1 254
1 255
1 256
1 257
1 258
1 259
1 260
1 261
1 262
1 263
1 264
1 265
1 266
1 267
1 268
1 269
1 270
1 271
1 272
1 273
1 274

POINT_DATA 275
SCALARS id int 1
LOOKUP_TABLE default
1
2
4
5
6
7
8
9
10
11
12
13
14
16
17
19
21
22
23
24
25
26
27
28
29
30
31
32
33
34
35
36
37
38
39
41
42
44
45
47
48
49
50
51
52
53
54
55
56
57
59
60
61
62
63
64
65
66
67
68
69
70
71
72
73
74
76
77
78
79
80
82
83
84
85
86
87
88
89
90
91
92
93
94
95
96
97
98
99
100
101
102
103
104
105
106
107
108
109
110
111
112
113
114
115
116
117
118
119
120
121
122
123
124
125
127
128
129
130
131
132
133
134
135
136
137
138
140
141
142
143
144
146
147
148
149
150
151
153
154
155
156
157
158
159
160
162
164
165
166
167
168
169
170
171
172
173
174
176
177
178
179
182
183
184
185
186
187
188
189
190
191
192
193
194
195
196
197
198
199
200
201
202
203
204
205
206
207
208
209
210
211
212
213
214
215
216
217
218
219
220
222
224
225
226
227
228
229
230
232
233
234
235
236
237
239
240
241
242
243
244
246
247
248
249
250
251
252
253
254
255
256
257
258
259
260
261
262
263
264
265
266
267
268
269
270
271
272
273
274
275
276
277
278
279
280
281
283
284
285
286
287
288
289
290
291
292
293
294
295
296
297
298
299
300

SCALARS type int 1
LOOKUP_TABLE default
1
1
1
1
1
1
1
1
1
1
1
1
1
1
1
1
1
1
1
1
1
1
1
1
1
1
1
1
1
1
1
1
1
1
1
1
1
1
1
1
1
1
1
1
1
1
1
1
1
1
1
1
1
1
1
1
1
1
1
1
1
1
1
1
1
1
1
1
1
1
1
1
1
1
1
1
1
1
1
1
1
1
1
1
1
1
1
1
1
1
1
1
1
1
1
1
1
1
1
1
1
1
1
1
1
1
1
1
1
1
1
1
1
1
1
1
1
1
1
1
1
1
1
1
1
1
1
1
1
1
1
1
1
1
1
1
1
1
1
1
1
1
1
1
1
1
1
1
1
1
1
1
1
1
1
1
1
1
1
1
1
1
1
1
1
1
1
1
1
1
1
1
1
1
1
1
1
1
1
1
1
1
1
1
1
1
1
1
1
1
1
1
1
1
1
1
1
1
1
1
1
1
1
1
1
1
1
1
1
1
1
1
1
1
1
1
1
1
1
1
1
1
1
1
1
1
1
1
1
1
1
1
1
1
1
1
1
1
1
1
1
1
1
1
1
1
1
1
1
1
1
1
1
1
1
1
1
1
1
1
1
1
1
1
1
1
1
1
1
1
1
1
1
1
1

SCALARS radius float 1
LOOKUP_TABLE default
5e-05
5e-05
5e-05
5e-05
5e-05
5e-05
5e-05
5e-05
5e-05
5e-05
5e-05
5e-05
5e-05
5e-05
5e-05
5e-05
5e-05
5e-05
5e-05
5e-05
5e-05
5e-05
5e-05
5e-05
5e-05
5e-05
5e-05
5e-05
5e-05
5e-05
5e-05
5e-05
5e-05
5e-05
5e-05
5e-05
5e-05
5e-05
5e-05
5e-05
5e-05
5e-05
5e-05
5e-05
5e-05
5e-05
5e-05
5e-05
5e-05
5e-05
5e-05
5e-05
5e-05
5e-05
5e-05
5e-05
5e-05
5e-05
5e-05
5e-05
5e-05
5e-05
5e-05
5e-05
5e-05
5e-05
5e-05
5e-05
5e-05
5e-05
5e-05
5e-05
5e-05
5e-05
5e-05
5e-05
5e-05
5e-05
5e-05
5e-05
5e-05
5e-05
5e-05
5e-05
5e-05
5e-05
5e-05
5e-05
5e-05
5e-05
5e-05
5e-05
5e-05
5e-05
5e-05
5e-05
5e-05
5e-05
5e-05
5e-05
5e-05
5e-05
5e-05
5e-05
5e-05
5e-05
5e-05
5e-05
5e-05
5e-05
5e-05
5e-05
5e-05
5e-05
5e-05
5e-05
5e-05
5e-05
5e-05
5e-05
5e-05
5e-05
5e-05
5e-05
5e-05
5e-05
5e-05
5e-05
5e-05
5e-05
5e-05
5e-05
5e-05
5e-05
5e-05
5e-05
5e-05
5e-05
5e-05
5e-05
5e-05
5e-05
5e-05
5e-05
5e-05
5e-05
5e-05
5e-05
5e-05
5e-05
5e-05
5e-05
5e-05
5e-05
5e-05
5e-05
5e-05
5e-05
5e-05
5e-05
5e-05
5e-05
5e-05
5e-05
5e-05
5e-05
5e-05
5e-05
5e-05
5e-05
5e-05
5e-05
5e-05
5e-05
5e-05
5e-05
5e-05
5e-05
5e-05
5e-05
5e-05
5e-05
5e-05
5e-05
5e-05
5e-05
5e-05
5e-05
5e-05
5e-05
5e-05
5e-05
5e-05
5e-05
5e-05
5e-05
5e-05
5e-05
5e-05
5e-05
5e-05
5e-05
5e-05
5e-05
5e-05
5e-05
5e-05
5e-05
5e-05
5e-05
5e-05
5e-05
5e-05
5e-05
5e-05
5e-05
5e-05
5e-05
5e-05
5e-05
5e-05
5e-05
5e-05
5e-05
5e-05
5e-05
5e-05
5e-05
5e-05
5e-05
5e-05
5e-05
5e-05
5e-05
5e-05
5e-05
5e-05
5e-05
5e-05
5e-05
5e-05
5e-05
5e-05
5e-05
5e-05
5e-05
5e-05
5e-05
5e-05
5e-05
5e-05
5e-05
5e-05
5e-05
5e-05
5e-05
5e-05
5e-05
5e-05
5e-05
5e-05
5e-05
5e-05
5e-05
5e-05
5e-05
5e-05
5e-05
5e-05
5e-05
5e-05
5e-05
5e-05
5e-05
5e-05

SCALARS mass float 1
LOOKUP_TABLE default
1.46608e-10
1.46608e-10
1.46608e-10
1.46608e-10
1.46608e-10
1.46608e-10
1.46608e-10
1.46608e-10
1.46608e-10
1.46608e-10
1.46608e-10
1.46608e-10
1.46608e-10
1.46608e-10
1.46608e-10
1.46608e-10
1.46608e-10
1.46608e-10
1.46608e-10
1.46608e-10
1.46608e-10
1.46608e-10
1.46608e-10
1.46608e-10
1.46608e-10
1.46608e-10
1.46608e-10
1.46608e-10
1.46608e-10
1.46608e-10
1.46608e-10
1.46608e-10
1.46608e-10
1.46608e-10
1.46608e-10
1.46608e-10
1.46608e-10
1.46608e-10
1.46608e-10
1.46608e-10
1.46608e-10
1.46608e-10
1.46608e-10
1.46608e-10
1.46608e-10
1.46608e-10
1.46608e-10
1.46608e-10
1.46608e-10
1.46608e-10
1.46608e-10
1.46608e-10
1.46608e-10
1.46608e-10
1.46608e-10
1.46608e-10
1.46608e-10
1.46608e-10
1.46608e-10
1.46608e-10
1.46608e-10
1.46608e-10
1.46608e-10
1.46608e-10
1.46608e-10
1.46608e-10
1.46608e-10
1.46608e-10
1.46608e-10
1.46608e-10
1.46608e-10
1.46608e-10
1.46608e-10
1.46608e-10
1.46608e-10
1.46608e-10
1.46608e-10
1.46608e-10
1.46608e-10
1.46608e-10
1.46608e-10
1.46608e-10
1.46608e-10
1.46608e-10
1.46608e-10
1.46608e-10
1.46608e-10
1.46608e-10
1.46608e-10
1.46608e-10
1.46608e-10
1.46608e-10
1.46608e-10
1.46608e-10
1.46608e-10
1.46608e-10
1.46608e-10
1.46608e-10
1.46608e-10
1.46608e-10
1.46608e-10
1.46608e-10
1.46608e-10
1.46608e-10
1.46608e-10
1.46608e-10
1.46608e-10
1.46608e-10
1.46608e-10
1.46608e-10
1.46608e-10
1.46608e-10
1.46608e-10
1.46608e-10
1.46608e-10
1.46608e-10
1.46608e-10
1.46608e-10
1.46608e-10
1.46608e-10
1.46608e-10
1.46608e-10
1.46608e-10
1.46608e-10
1.46608e-10
1.46608e-10
1.46608e-10
1.46608e-10
1.46608e-10
1.46608e-10
1.46608e-10
1.46608e-10
1.46608e-10
1.46608e-10
1.46608e-10
1.46608e-10
1.46608e-10
1.46608e-10
1.46608e-10
1.46608e-10
1.46608e-10
1.46608e-10
1.46608e-10
1.46608e-10
1.46608e-10
1.46608e-10
1.46608e-10
1.46608e-10
1.46608e-10
1.46608e-10
1.46608e-10
1.46608e-10
1.46608e-10
1.46608e-10
1.46608e-10
1.46608e-10
1.46608e-10
1.46608e-10
1.46608e-10
1.46608e-10
1.46608e-10
1.46608e-10
1.46608e-10
1.46608e-10
1.46608e-10
1.46608e-10
1.46608e-10
1.46608e-10
1.46608e-10
1.46608e-10
1.46608e-10
1.46608e-10
1.46608e-10
1.46608e-10
1.46608e-10
1.46608e-10
1.46608e-10
1.46608e-10
1.46608e-10
1.46608e-10
1.46608e-10
1.46608e-10
1.46608e-10
1.46608e-10
1.46608e-10
1.46608e-10
1.46608e-10
1.46608e-10
1.46608e-10
1.46608e-10
1.46608e-10
1.46608e-10
1.46608e-10
1.46608e-10
1.46608e-10
1.46608e-10
1.46608e-10
1.46608e-10
1.46608e-10
1.46608e-10
1.46608e-10
1.46608e-10
1.46608e-10
1.46608e-10
1.46608e-10
1.46608e-10
1.46608e-10
1.46608e-10
1.46608e-10
1.46608e-10
1.46608e-10
1.46608e-10
1.46608e-10
1.46608e-10
1.46608e-10
1.46608e-10
1.46608e-10
1.46608e-10
1.46608e-10
1.46608e-10
1.46608e-10
1.46608e-10
1.46608e-10
1.46608e-10
1.46608e-10
1.46608e-10
1.46608e-10
1.46608e-10
1.46608e-10
1.46608e-10
1.46608e-10
1.46608e-10
1.46608e-10
1.46608e-10
1.46608e-10
1.46608e-10
1.46608e-10
1.46608e-10
1.46608e-10
1.46608e-10
1.46608e-10
1.46608e-10
1.46608e-10
1.46608e-10
1.46608e-10
1.46608e-10
1.46608e-10
1.46608e-10
1.46608e-10
1.46608e-10
1.46608e-10
1.46608e-10
1.46608e-10
1.46608e-10
1.46608e-10
1.46608e-10
1.46608e-10
1.46608e-10
1.46608e-10
1.46608e-10
1.46608e-10
1.46608e-10
1.46608e-10
1.46608e-10
1.46608e-10
1.46608e-10
1.46608e-10
1.46608e-10
1.46608e-10
1.46608e-10
1.46608e-10
1.46608e-10
1.46608e-10
1.46608e-10
1.46608e-10

VECTORS velocity float
0.0055259 -9.87818e-05 -4.44942e-05
0.00578992 -0.000254074 -3.46145e-05
0.00546468 -0.000207933 -0.000458627
0.00620189 -0.000446368 -0.000420265
0.00634945 0.00149461 -0.00113479
0.0054253 -8.66355e-05 -4.56306e-05
0.00604913 -0.000385249 -0.000432984
0.00580128 0.00179722 -0.00125946
0.0060728 -0.000388616 -0.000433983
0.00563549 -9.93667e-05 -4.71017e-05
0.00782596 0.00220473 5.2352e-05
0.00622014 -0.000449007 -0.000418655
0.00561622 -0.000129012 -0.000578801
0.00546595 -1.31306e-06 -0.000559759
0.00611601 -0.00041635 -0.000425131
0.00625319 0.000320073 0.000197435
0.00542716 -8.48154e-05 -4.71777e-05
0.00541127 -9.64148e-05 -4.31848e-05
0.0055413 -2.02834e-05 -0.000576361
0.0064337 0.00216768 -0.00148677
0.00602658 -0.000376668 -0.000434844
0.00591614 0.00195361 -0.0013467
0.00818198 0.00170865 -0.00206885
0.00602713 -0.000397081 -0.000423498
0.00621358 0.00032643 0.000187885
0.00601496 -0.000389725 -0.000418367
0.00548961 -7.34518e-05 -5.30011e-05
0.00609867 -0.000413873 -0.000424721
0.00646715 0.00201975 -0.00141239
0.0061343 -0.000419159 -0.00042563
0.00543371 -0.000104608 -4.21964e-05
0.00592078 0.00173592 -0.00123468
0.00606765 -1.14537e-05 -0.000612167
0.00546215 -0.000103667 -4.37232e-05
0.00613994 0.00193768 -0.00135131
0.00616969 -0.000428452 -0.000424649
0.00541174 -0.000125065 -3.28859e-05
0.00544304 -0.00013942 -2.91906e-05
0.00649853 0.00220113 -0.00150774
0.00615258 -0.000422997 -0.000425841
0.00551455 -0.000101386 -4.36542e-05
0.00583811 0.001763 -0.00124391
0.00608244 -0.000411511 -0.000424109
0.00558966 -0.000151153 -2.73089e-05
0.00561523 0.000127766 -0.000598311
0.00647979 0.00223906 -0.00152624
0.0056074 -0.000122103 -4.13616e-05
0.00780322 0.00316775 -0.000235416
0.00556277 -8.90077e-05 -4.81311e-05
0.00649622 0.00224824 -0.00153191
-5.01911e-15 -7.41205e-15 7.69803e-14
0.00551646 -0.000120523 -3.63031e-05
0.00618689 -0.000436852 -0.000422973
0.00549322 -0.000109182 -4.14727e-05
0.00555431 -0.000109147 -4.1298e-05
0.0064577 0.00220721 -0.00150854
0.00589856 0.000241854 0.00076954
0.00561935 1.54086e-05 -0.000586377
0.00556191 -0.000124125 -3.60306e-05
0.00543879 -0.000246023 -0.000433512
0.00567379 -9.51603e-05 -1.41839e-05
0.00592575 0.0017891 -0.0012624
0.00561589 2.35198e-05 -0.000589063
0.00561981 -0.000102488 -4.27062e-05
0.00548154 -5.9346e-05 -5.41608e-05
0.00603953 -0.000401021 -0.00041899
0.00882237 0.00342719 -0.000681325
0.00550525 -8.16766e-05 -4.47704e-05
0.00511834 0.00121319 -0.00342941
0.00559535 8.48036e-05 -0.000592788
0.00602353 -0.00038392 -0.000430259
0.00558502 0.000164114 -0.00063061
0.00782865 0.00235383 4.95023e-05
0.0058786 0.0017463 -0.00123762
0.00560312 3.71505e-05 -0.000587807
0.00541714 -0.0001335 -3.08078e-05
0.00602959 -0.000382514 -0.00043199
0.00547894 -6.36452e-05 -4.79208e-05
0.00562546 -0.000115954 -4.08151e-05
0.00559172 -0.000132256 -3.47482e-05
0.00725618 0.00236487 -0.0017522
0.0055023 -4.51214e-05 -4.14288e-05
0.00565988 -6.20796e-05 0.00014523
0.00548238 -5.07148e-05 -5.15265e-05
0.00549774 -9.4621e-05 -5.08953e-05
0.00566149 -0.000301245 -0.000435268
0.0063831 0.000872262 -0.00333469
0.00562461 -8.85796e-05 0.000126765
0.00573823 -7.66806e-05 -0.000571393
0.00547301 -0.000103544 -4.20993e-05
0.00552502 -2.33695e-05 -0.000587588
4.05766e-15 1.05891e-14 8.29592e-14
1.19201e-22 4.86658e-23 1.23839e-22
0.00557741 -2.30091e-06 -0.000582833
0.00636654 0.000851994 -0.00328177
0.00555185 0.000102889 -0.000604443
0.00613321 0.000967585 -0.00338345
0.00558531 -9.53029e-05 -4.61641e-05
0.00567993 -9.05064e-05 -4.51767e-05
0.00549246 -9.33667e-05 -2.27637e-05
0.00563466 -0.000290496 -0.000434455
0.00720225 0.00151966 -0.00454981
0.00582425 0.000230659 0.000538195
0.00577526 -0.000133524 -0.000852984
0.00542398 -0.000120123 -3.34406e-05
0.00541096 -8.80451e-05 -4.7555e-05
0.00541051 -8.44651e-05 -4.63758e-05
0.00535188 0.000172844 -0.000443715
0.00563428 -0.000112691 -4.19052e-05
0.00531328 -0.000249783 -0.000422908
0.00542445 -8.3073e-05 -4.86868e-05
0.00566079 -0.000291737 -0.000434516
0.00563133 3.39454e-05 -0.000593506
0.00549214 -0.000102219 -4.29221e-05
0.00544756 -0.000107052 -0.000105931
0.00623303 0.000943953 -0.00337072
0.00671089 0.000812356 -0.00106794
0.005531 -0.00011649 -3.87557e-05
0.00578698 -7.24998e-05 -0.000607604
0.00576546 -2.969e-05 -0.000587198
0.00535927 -0.00019069 -0.000455345
0.00541341 -4.52452e-05 -4.05657e-05
0.00548824 -4.77376e-05 -6.39582e-05
0.00565244 -8.89601e-05 6.66052e-05
0.00698694 0.00403144 -0.00104072
0.00542679 -7.52259e-05 -4.6964e-05
0.00570986 -0.000306725 0.000293541
0.00601262 -0.000390883 -0.000424503
0.00750997 0.0017048 -0.00491818
0.00561648 -5.70988e-05 -0.000580886
0.00621655 0.000958582 -0.00340633
0.00563644 2.18774e-05 -0.000598942
0.00603195 -0.000179322 -0.00107634
0.00562895 -7.196e-05 -0.000636415
0.00718031 0.0019485 -0.00517913
0.00606278 -0.000407553 -0.000424094
0.00551025 7.3465e-06 -0.000574974
0.00535996 3.50223e-05 -0.000568044
0.00739489 0.00166421 -0.00482785
0.00623761 0.000949467 -0.00338158
0.00595901 -0.000320045 -0.000734477
0.00742413 0.00161653 -0.0047677
-3.83918e-14 8.16426e-14 2.95887e-13
0.00827949 0.00147741 -0.00478895
0.00579671 -0.000331193 -0.000433277
0.00547251 -4.33849e-05 -0.000568201
0.00561062 3.15421e-05 -0.000583868
0.00645827 0.000884343 -0.00334769
0.00542143 3.47751e-05 -0.000573016
0.00550338 -8.75363e-05 -3.34e-05
0.00876664 0.00465771 -0.00505887
0.00557546 6.62e-05 -0.000587536
0.00544537 7.64195e-05 -0.000577531
0.00556566 4.07475e-05 -0.000583194
0.0055829 -0.000115256 -3.90497e-05
0.00585285 0.000694922 0.000686809
0.005629 -3.5938e-05 -6.58279e-05
0.00609941 -0.000574313 -0.000606806
0.00561866 3.16589e-05 -0.000567063
0.00628493 0.000949972 -0.00342688
0.00559646 -6.3088e-05 -0.000616165
0.00555669 9.68989e-06 -0.000603015
0.00551188 -8.35252e-05 -5.12907e-05
0.00538428 3.87488e-05 -0.000543068
0.00561397 -0.000126385 -3.62702e-05
0.00572894 3.41332e-05 -0.000612575
0.00557197 7.22832e-05 -0.000588591
0.00549372 -8.4615e-05 -5.14206e-05
0.00535502 -0.000170682 -0.000318379
0.00542107 -7.9315e-05 -5.19683e-05
0.00570537 0.000108562 6.99219e-05
0.00550564 -7.55341e-05 -4.0508e-05
0.00579684 -0.000134037 -0.000736001
0.00560687 -0.000116963 -3.80953e-05
0.00562984 9.74031e-06 -0.0005972
0.00544547 2.22881e-06 -0.000575646
0.00553481 2.3657e-05 -0.000581676
0.00588768 7.62688e-06 -7.38063e-05
0.0056894 0.000180928 0.000780503
0.00557086 0.000125253 -0.000657124
0.0061826 0.00087206 -0.00325822
0.00538696 3.08893e-05 -0.000568504
0.00715071 0.00176954 -0.00433522
0.00550224 -0.000103672 -4.35637e-05
0.00553116 1.19438e-05 -0.000576574
0.0064224 0.000953688 -0.00348493
0.00727639 0.000114301 -0.00361156
0.0064879 0.000863798 -0.00355927
0.0103873 -0.00520516 -0.0131483
0.00595105 0.000731313 0.000538991
0.00632592 -2.06198e-05 -0.000633905
0.00604333 -0.000402818 -0.000423818
0.0056157 1.08161e-05 -0.000586982
0.00543743 -8.61251e-05 -4.91586e-05
0.00540869 -0.000107471 -4.27183e-05
0.0055504 0.000148527 4.56983e-05
0.00647373 0.000967585 -0.00349771
0.00553531 -8.41204e-05 -4.94078e-05
0.00576246 -0.000112308 -0.000621132
0.00541998 -0.000122205 -3.46776e-05
0.00557064 -3.3983e-05 -0.000577434
0.00550732 -0.000106722 -4.24161e-05
0.00613715 -0.000640924 -0.000919162
0.00565495 -0.000307844 -0.000437342
0.00550133 8.82917e-07 -0.000578756
0.00560439 0.000130755 5.58749e-05
0.00550755 0.000144557 4.63996e-05
0.00557138 6.68942e-05 -0.000585616
0.00601095 -0.000319373 -0.000105881
0.00543156 1.50652e-05 -0.000567019
0.00539823 4.36552e-05 -0.000591947
0.00565366 -0.000112912 -4.06918e-05
0.00670293 0.00101724 -0.00361334
0.00588381 0.000411491 -0.000291283
0.00590396 0.000700621 0.000534809
0.00603342 -2.29304e-05 -6.2456e-05
0.0059466 -3.55933e-06 -6.98224e-05
0.00606338 -3.05124e-05 -5.98193e-05
0.00744312 0.00241662 -0.000136229
0.00559065 3.58161e-05 -0.00058158
0.00600555 -1.50272e-05 -6.56568e-05
0.00535421 0.000166499 3.03926e-05
0.00652434 0.000890206 -0.00338692
0.00571367 -1.66623e-05 -0.000603352
0.00582998 1.80763e-05 -7.68123e-05
0.00676769 0.000834716 -0.00338727
0.00549598 -8.69842e-05 -4.18769e-05
0.0054043 0.000155124 3.56592e-05
0.00569161 0.000123041 6.24302e-05
0.0057907 9.12712e-05 7.3443e-05
0.00592877 0.000235909 -0.000523436
0.00557423 1.525e-05 -0.000582583
0.00791359 0.00162806 -0.00486556
0.00591784 0.00041154 -0.000358917
0.00541608 0.000152356 3.53342e-05
0.00538636 -2.21694e-05 -0.000560956
0.00767512 0.00320017 -7.71355e-05
0.00594587 0.000205014 0.000273302
0.0058587 1.2791e-05 -7.54481e-05
0.00592862 0.000511808 0.000130315
0.00572343 4.78302e-05 -7.71159e-05
0.00550709 2.64135e-05 -0.000580463
0.00663989 0.000910773 -0.00341713
0.00564509 6.24898e-06 -0.000597574
0.00575361 -1.56352e-05 -0.00058102
0.00562869 -0.000289023 -0.000435575
0.0055607 7.8844e-05 -0.00058836
0.00550428 0.000130687 4.39929e-05
0.00669199 0.00066956 -0.00365989
0.00546404 0.000161991 3.77833e-05
0.00589686 -0.000975191 -0.000650955
0.00659583 0.000827747 -0.00340155
0.00660819 0.000952061 -0.00349031
0.00583776 0.000100739 -0.00049141
0.00570394 0.000109276 6.2545e-05
0.00559389 0.000112101 5.35938e-05
0.00558987 8.21438e-05 -0.00071201
0.00597607 -9.1132e-06 -6.76845e-05
0.00710322 0.00218529 -0.000329431
0.00618547 -0.000668281 -0.000936084
0.00617204 -0.000421784 -0.000973829
0.00575458 -0.00144607 -0.000239297
0.00552495 -1.40015e-05 -0.000575907
0.00638002 0.000973314 -0.00346423
0.0072598 0.00362999 -0.000742515
0.00560371 -9.29956e-06 -0.00117617
0.00548054 7.17816e-05 -0.0005769
0.0055813 -0.000498555 -0.00105848
0.00587876 0.00104367 1.22791e-05
0.00564268 0.000129788 5.36313e-05
0.00670864 0.000718947 -0.00371971
0.0054234 -9.60701e-05 -4.75112e-05
0.00591735 2.30037e-06 -7.19233e-05
0.00576393 9.71327e-05 7.0112e-05
0.00571261 -0.00014052 -3.33132e-05

VECTORS force float
4.78332e-11 1.02915e-11 -1.9713e-12
-2.21762e-11 -6.26623e-11 1.197e-11
6.10863e-11 5.22085e-11 -2.00984e-11
-2.91652e-12 -1.39761e-10 8.46815e-11
1.09295e-11 4.59241e-11 -2.4247e-11
2.6561e-10 -1.24394e-10 6.69909e-11
4.51411e-11 2.66338e-11 -1.75361e-11
7.49001e-13 -9.68386e-13 5.01328e-13
3.63841e-11 1.25219e-11 -1.00262e-11
-4.62034e-11 2.25559e-11 -9.78425e-12
-5.82065e-10 6.00973e-10 -3.22485e-10
7.72719e-12 -4.2873e-11 6.90917e-11
-1.95976e-10 8.37994e-10 -2.23023e-10
-2.32996e-10 -1.48688e-10 1.91402e-10
1.64838e-12 9.94791e-12 -1.50738e-12
-2.7345e-12 -1.36329e-11 -1.34357e-11
1.35621e-11 -7.30118e-11 1.71046e-11
2.68466e-11 -1.13853e-11 1.1137e-11
-5.61188e-10 1.41016e-10 4.52732e-11
-9.5459e-13 1.10356e-12 -5.20045e-13
2.19259e-11 -5.16746e-11 2.29169e-11
-5.15461e-13 -8.46583e-12 4.4068e-12
5.4837e-10 1.99959e-09 3.8326e-10
2.20173e-11 7.78022e-11 -3.46616e-11
-1.0678e-10 -1.08937e-10 1.75328e-11
-3.00233e-11 1.87512e-10 -3.94208e-11
5.59329e-12 -1.9277e-11 -2.00409e-11
1.04899e-12 2.69373e-13 -2.23839e-12
3.80435e-12 1.83228e-11 -9.62726e-12
3.0475e-12 1.14302e-11 -9.97381e-12
1.6018e-10 -8.22629e-11 7.42361e-12
8.07927e-13 3.36673e-13 -2.06764e-13
-1.83734e-11 -9.71492e-11 4.80539e-11
-6.62823e-11 -5.8405e-11 4.42237e-11
-5.71518e-14 -3.90553e-12 2.01791e-12
1.25253e-11 -5.67817e-11 2.1908e-11
1.29298e-10 -6.34755e-12 -2.3922e-11
4.37617e-10 -9.5387e-11 1.45864e-11
1.30711e-12 8.14304e-12 -4.28768e-12
-1.08829e-12 -2.36047e-12 2.40616e-12
9.83121e-12 -1.42154e-10 8.21033e-11
9.17443e-13 1.54075e-14 -4.74126e-14
1.87896e-12 5.45893e-12 -3.38191e-12
-4.40134e-11 1.72417e-11 -1.55717e-12
-2.56493e-10 -2.27971e-10 3.7942e-11
-4.81298e-13 2.29697e-12 -1.15449e-12
3.20777e-12 -6.10797e-11 1.32534e-11
-3.34471e-09 -1.49906e-09 2.96718e-09
6.94959e-11 -3.17945e-11 8.33593e-12
1.42035e-13 4.02773e-12 -2.0901e-12
1.19166e-23 -4.16175e-24 4.1359e-25
2.23001e-10 1.03673e-10 -5.3403e-11
1.80892e-11 -1.35862e-10 5.40863e-11
2.35792e-11 -9.83034e-11 5.44137e-11
9.59848e-12 3.23669e-11 -1.518e-12
-7.46473e-13 1.44305e-12 -7.05606e-13
-1.10168e-09 5.42591e-10 -8.69642e-10
-7.73961e-11 -2.62215e-10 7.00216e-11
-4.74784e-11 -6.44279e-11 9.28477e-12
-4.02291e-11 -4.27253e-11 4.55217e-11
-9.28826e-11 -1.32e-10 -4.20121e-11
9.37071e-13 -1.20046e-12 5.741e-13
-4.09396e-10 -6.35858e-11 4.91598e-11
-3.55164e-11 8.75332e-11 -8.90051e-12
5.25851e-11 -8.4284e-11 -1.38525e-11
5.2935e-13 1.51578e-10 -2.74808e-11
-1.95755e-09 4.50565e-09 1.78536e-09
1.89657e-11 -1.5113e-10 1.1028e-10
-1.70738e-10 5.43532e-10 -7.37627e-10
-4.99862e-11 2.61466e-10 -1.50979e-12
2.46331e-11 -3.65809e-11 1.50712e-11
-2.96444e-10 8.54604e-12 -7.57832e-11
-1.25648e-09 1.62783e-09 9.75053e-10
8.92868e-13 2.70295e-13 -1.87731e-13
-1.02653e-10 -8.11879e-12 5.30141e-11
4.08386e-10 -6.04822e-11 2.33098e-11
3.53374e-11 1.07569e-11 -4.40435e-12
2.70055e-10 9.52065e-11 -8.90808e-11
-6.357e-13 -8.86095e-11 4.22543e-11
-1.14895e-10 -4.35127e-11 7.20816e-12
-5.26196e-10 -1.17861e-11 -9.85838e-10
1.42231e-10 -1.86846e-10 7.64722e-11
1.36631e-10 1.23907e-10 7.51194e-11
2.48568e-10 -9.1334e-11 -1.06947e-10
7.06283e-11 -1.14863e-10 -1.42347e-11
9.57294e-11 -2.13803e-11 9.6472e-11
-1.97585e-10 5.9287e-10 -8.7582e-10
3.79061e-11 1.40899e-10 4.39633e-11
-7.66152e-10 -2.5703e-10 -7.30001e-11
3.16412e-10 -9.47452e-11 3.49102e-11
-2.5056e-10 -1.48841e-10 1.77261e-10
5.34876e-22 1.12807e-22 -3.59824e-23
0.0 0.0 0.0
-4.48874e-10 1.33755e-11 1.22376e-11
-7.06802e-11 6.32808e-10 -9.65108e-10
-3.08503e-10 -7.38301e-11 2.3766e-10
-4.98686e-10 4.29595e-10 -1.1687e-10
-6.21256e-11 -3.06084e-12 -9.52594e-12
1.48095e-11 4.12171e-11 -1.15798e-12