# vtk DataFile Version 3.0
LIGGGHTS particles timestep 37800000
ASCII
DATASET POLYDATA
POINTS 275 float
0.233803 0.0188301 0.00682281
0.23346 0.0176685 0.00724
0.23361 0.0175402 0.00727452
0.232992 0.0158855 0.00841406
0.239293 0.0168957 0.00744372
0.233745 0.0181854 0.00703488
0.233454 0.0172369 0.00739408
0.239487 0.0177686 0.00701536
0.23311 0.016183 0.00790799
0.233621 0.0182992 0.0070962
0.227618 0.0172156 0.00748959
0.232971 0.0158336 0.00849694
0.227586 0.0178547 0.00714852
0.227842 0.0182879 0.00693719
0.23309 0.0161321 0.0079917
0.232951 0.0157819 0.00858013
0.23379 0.0183704 0.00696568
0.233413 0.0170534 0.00746241
0.227811 0.0180966 0.00703643
0.23941 0.0174058 0.0071502
0.23315 0.0162931 0.00774993
0.239447 0.0175761 0.00705218
0.227428 0.0171558 0.00750761
0.233535 0.0176045 0.00725719
0.23293 0.0157301 0.00866331
0.233235 0.0166563 0.00760699
0.23382 0.0181217 0.00705196
0.233173 0.0163808 0.00770745
0.239313 0.0169806 0.00739484
0.233071 0.0160879 0.00807937
0.233706 0.0180012 0.00710328
0.239546 0.0180577 0.00696073
0.23359 0.0174478 0.00730892
0.233668 0.0178172 0.00717161
0.239429 0.0174909 0.00710121
0.23304 0.0159881 0.0082498
0.233704 0.0175685 0.00725745
0.233762 0.0178455 0.00715451
0.239333 0.0170656 0.00734596
0.233052 0.0160398 0.00816506
0.23365 0.0185782 0.00690219
0.239507 0.017865 0.00699715
0.233193 0.0164718 0.00767113
0.233838 0.0182165 0.00701686
0.227681 0.0174817 0.0073531
0.239373 0.0172355 0.00724819
0.233978 0.0184323 0.0069297
0.227606 0.0175371 0.00731829
0.23396 0.0183354 0.00696548
0.239353 0.0171506 0.00729708
0.378022 0.019866 0.005332
0.233782 0.0179376 0.00712034
0.233011 0.0159379 0.00833114
0.233687 0.0179092 0.00713745
0.23367 0.018676 0.00690502
0.239392 0.0173206 0.00719921
0.227643 0.0177119 0.00722831
0.227783 0.0180029 0.00718174
0.23381 0.0184633 0.0069311
0.233593 0.0178809 0.00715455
0.233885 0.0183987 0.00694857
0.239467 0.0176723 0.00703355
0.227938 0.0183193 0.00692747
0.233876 0.0186954 0.00684902
0.23313 0.0162235 0.00781873
0.233214 0.0165647 0.00764065
0.227544 0.0172727 0.007454
0.233479 0.0177605 0.00720584
0.226902 0.0155121 0.00859601
0.227906 0.0185756 0.00687332
0.233555 0.0176967 0.00722294
0.22767 0.018076 0.0071344
0.227639 0.0173034 0.00744457
0.239526 0.0179614 0.00697894
0.228051 0.0184386 0.00687236
0.233743 0.0177535 0.0071887
0.233515 0.0175122 0.00729152
0.23365 0.0181569 0.00705206
0.233724 0.018333 0.00707527
0.233827 0.0185593 0.0068957
0.227597 0.0171284 0.00753432
0.233575 0.0182205 0.00703501
0.233298 0.0169335 0.00751064
0.233699 0.0184375 0.00704744
0.233566 0.0180171 0.00719712
0.233556 0.0181285 0.00706917
0.227008 0.0158833 0.00827835
0.233277 0.0168411 0.00754275
0.227568 0.0181853 0.00701076
0.233763 0.0182803 0.00699973
0.227588 0.0182767 0.00697497
0.0643568 0.0187248 0.00531097
0.24257 0.0191927 0.00520306
0.227863 0.018375 0.00689252
0.226965 0.015735 0.00840535
0.227656 0.0179737 0.00718347
0.226922 0.0155866 0.00853239
0.233903 0.0184963 0.00691249
0.233896 0.0180585 0.00706883
0.233441 0.0175766 0.00727417
0.2334 0.0173931 0.0073425
0.227052 0.0160316 0.00815135
0.227492 0.0178228 0.00715863
0.227529 0.0179976 0.00706865
0.233724 0.0176612 0.007223
0.233734 0.0185258 0.00691455
0.233726 0.0180933 0.00706907
0.227719 0.0176564 0.00726316
0.233957 0.0186374 0.0068604
0.233433 0.0171451 0.00742825
0.233824 0.0189485 0.00679994
0.233537 0.0180365 0.00710334
0.227957 0.0184067 0.00688247
0.233318 0.0170262 0.00747896
0.233631 0.0180649 0.00708622
0.226987 0.0158091 0.00834185
0.233256 0.0167489 0.00757497
0.233608 0.0182055 0.00712835
0.227624 0.0180293 0.00705871
0.227641 0.0181169 0.00701345
0.233629 0.0176328 0.00724012
0.233749 0.0186193 0.0068802
0.233715 0.0184338 0.00694872
0.233865 0.0183065 0.00698281
0.227585 0.0174483 0.00736388
0.233588 0.0181133 0.00716254
0.233615 0.0184103 0.00699969
0.233498 0.0178525 0.00717167
0.227416 0.0167509 0.0077214
0.227794 0.0180075 0.00708238
0.226943 0.0156608 0.00846885
0.227756 0.017831 0.00717327
0.227096 0.0161824 0.00802763
0.227605 0.017942 0.0071036
0.227437 0.0168378 0.00767686
0.233359 0.01721 0.00741179
0.227954 0.0186629 0.00687091
0.227717 0.0185114 0.00688565
0.227458 0.0169248 0.00763232
0.227074 0.0161057 0.00808786
0.227117 0.0162625 0.00797167
0.227394 0.016664 0.00776594
0.0219312 0.0187687 0.00551176
0.227501 0.0170986 0.00754324
0.233649 0.0177251 0.00720581
0.227601 0.018335 0.00689495
0.227643 0.0182406 0.0070604
0.227181 0.0165197 0.00783294
0.227811 0.0185434 0.00687759
0.233631 0.0184862 0.00693636
0.227691 0.0187834 0.00687974
0.228029 0.0185964 0.00686864
0.227865 0.0187084 0.00687386
0.227766 0.0187176 0.00687744
0.233896 0.0187948 0.00682981
0.227473 0.0177355 0.00720361
0.233823 0.0186659 0.00692826
0.227224 0.0166911 0.0077394
0.22753 0.0175925 0.00728349
0.227212 0.0162857 0.00795345
0.227529 0.0179065 0.00721188
0.227615 0.0184168 0.00698002
0.233915 0.0189091 0.00680772
0.227569 0.0180595 0.00713651
0.233685 0.0185609 0.00699423
0.227776 0.0179183 0.00712838
0.228032 0.0183511 0.00691738
0.233784 0.0187336 0.00684147
0.233612 0.0179729 0.00712039
0.233724 0.018939 0.0068016
0.221578 0.0182454 0.00704343
0.233379 0.0173016 0.00737724
0.227511 0.0179102 0.00711364
0.233989 0.0187582 0.00683706
0.227701 0.0181627 0.00709556
0.227758 0.0183463 0.0069002
0.227734 0.0181515 0.00700179
0.221271 0.0168119 0.00754048
0.22766 0.017392 0.00739912
0.227564 0.0181681 0.00710916
0.22703 0.0159574 0.00821485
0.227788 0.0184412 0.00689104
0.227523 0.0171855 0.0074987
0.233688 0.0183437 0.0069828
0.227834 0.0181834 0.00699207
0.227363 0.0168951 0.00764122
0.227406 0.0170689 0.00755214
0.227277 0.0165474 0.00781937
0.2277 0.017569 0.00730813
0.227625 0.0176245 0.00727329
0.233474 0.0173286 0.0073599
0.233495 0.0174204 0.00732572
0.227883 0.0184738 0.00687683
0.233705 0.0188473 0.00683654
0.233574 0.0177889 0.00718872
0.221489 0.0177609 0.00712553
0.227256 0.0164604 0.00786397
0.233999 0.0188558 0.00681818
0.227549 0.0180932 0.00704462
0.233338 0.017118 0.00744519
0.227657 0.0182046 0.00696806
0.233801 0.0180296 0.00708617
0.227449 0.0172428 0.00746307
0.23342 0.0174848 0.00730849
0.2276 0.0178453 0.00724712
0.2215 0.0178576 0.00710232
0.221442 0.0175682 0.00714625
0.22798 0.0185091 0.00687119
0.227353 0.0172126 0.00747218
0.227645 0.0183363 0.00703118
0.227671 0.0186854 0.00688115
0.233665 0.0180514 0.00717931
0.22731 0.0170388 0.00756125
0.227416 0.0174736 0.00733833
0.227436 0.0175608 0.0072935
0.221165 0.0164575 0.00787443
0.22123 0.0166615 0.00766563
0.221144 0.0163984 0.00795232
0.227575 0.0170413 0.00757894
0.227718 0.0180629 0.00704757
0.221186 0.0165182 0.00779778
0.221363 0.0171896 0.00722864
0.227246 0.016778 0.00769486
0.227568 0.0177674 0.00719348
0.221308 0.0169612 0.00741269
0.22732 0.0167212 0.0077303
0.23367 0.0182499 0.00701956
0.221383 0.0172795 0.00719009
0.221559 0.0181484 0.00705815
0.221333 0.017041 0.00735796
0.226883 0.0154374 0.00865969
0.227919 0.0182319 0.00697243
0.22748 0.0170117 0.00758778
0.227549 0.01768 0.00723845
0.221402 0.0173766 0.00717537
0.227746 0.0186195 0.00687886
0.227511 0.0175047 0.00732862
0.227455 0.0176481 0.00724859
0.221289 0.016886 0.00747574
0.227139 0.0163436 0.00791752
0.221598 0.0183423 0.00702871
0.227681 0.0183005 0.00694492
0.227342 0.0168082 0.00768576
0.227738 0.0177437 0.00721821
0.2277 0.0179738 0.00709352
0.233518 0.0179445 0.00713751
0.227634 0.0185072 0.00694171
0.221461 0.0176652 0.00713153
0.227385 0.016982 0.00759668
0.221426 0.0174738 0.00717523
0.227203 0.0166042 0.00778393
0.227299 0.0166343 0.00777483
0.227267 0.0168649 0.00765032
0.227662 0.0177992 0.00718336
0.22158 0.0177986 0.00710771
0.221519 0.0179545 0.0070876
0.227642 0.0184259 0.00688407
0.221208 0.0165862 0.00772776
0.227375 0.0172995 0.00742764
0.22747 0.0173299 0.0074184
0.22716 0.0164306 0.00787294
0.227332 0.0171257 0.00751671
0.227758 0.0182381 0.00695759
0.227234 0.0163734 0.0079085
0.227565 0.0173603 0.00740908
0.227681 0.0178865 0.00713842
0.227652 0.0185873 0.00688256
0.227491 0.0174172 0.00737361
0.227396 0.0173865 0.00738304
0.221539 0.0180515 0.00707288
0.227289 0.0169519 0.00760579
0.233685 0.0187493 0.00683869
0.221251 0.0167358 0.00760222
0.221344 0.0171103 0.00728671
0.233594 0.0183125 0.00700084

VERTICES 275 550
1 0
1 1
1 2
1 3
1 4
1 5
1 6
1 7
1 8
1 9
1 10
1 11
1 12
1 13
1 14
1 15
1 16
1 17
1 18
1 19
1 20
1 21
1 22
1 23
1 24
1 25
1 26
1 27
1 28
1 29
1 30
1 31
1 32
1 33
1 34
1 35
1 36
1 37
1 38
1 39
1 40
1 41
1 42
1 43
1 44
1 45
1 46
1 47
1 48
1 49
1 50
1 51
1 52
1 53
1 54
1 55
1 56
1 57
1 58
1 59
1 60
1 61
1 62
1 63
1 64
1 65
1 66
1 67
1 68
1 69
1 70
1 71
1 72
1 73
1 74
1 75
1 76
1 77
1 78
1 79
1 80
1 81
1 82
1 83
1 84
1 85
1 86
1 87
1 88
1 89
1 90
1 91
1 92
1 93
1 94
1 95
1 96
1 97
1 98
1 99
1 100
1 101
1 102
1 103
1 104
1 105
1 106
1 107
1 108
1 109
1 110
1 111
1 112
1 113
1 114
1 115
1 116
1 117
1 118
1 119
1 120
1 121
1 122
1 123
1 124
1 125
1 126
1 127
1 128
1 129
1 130
1 131
1 132
1 133
1 134
1 135
1 136
1 137
1 138
1 139
1 140
1 141
1 142
1 143
1 144
1 145
1 146
1 147
1 148
1 149
1 150
1 151
1 152
1 153
1 154
1 155
1 156
1 157
1 158
1 159
1 160
1 161
1 162
1 163
1 164
1 165
1 166
1 167
1 168
1 169
1 170
1 171
1 172
1 173
1 174
1 175
1 176
1 177
1 178
1 179
1 180
1 181
1 182
1 183
1 184
1 185
1 186
1 187
1 188
1 189
1 190
1 191
1 192
1 193
1 194
1 195
1 196
1 197
1 198
1 199
1 200
1 201
1 202
1 203
1 204
1 205
1 206
1 207
1 208
1 209
1 210
1 211
1 212
1 213
1 214
1 215
1 216
1 217
1 218
1 219
1 220
1 221
1 222
1 223
1 224
1 225
1 226
1 227
1 228
1 229
1 230
1 231
1 232
1 233
1 234
1 235
1 236
1 237
1 238
1 239
1 240
1 241
1 242
1 243
1 244
1 245
1 246
1 247
1 248
1 249
1 250
1 251
1 252
1 253
1 254
1 255
1 256
1 257
1 258
1 259
1 260
1 261
1 262
1 263
1 264
1 265
1 266
1 267
1 268
1 269
1 270
1 271
1 272
1 273
1 274

POINT_DATA 275
SCALARS id int 1
LOOKUP_TABLE default
1
2
4
5
6
7
8
9
10
11
12
13
14
16
17
19
21
22
23
24
25
26
27
28
29
30
31
32
33
34
35
36
37
38
39
41
42
44
45
47
48
49
50
51
52
53
54
55
56
57
59
60
61
62
63
64
65
66
67
68
69
70
71
72
73
74
76
77
78
79
80
82
83
84
85
86
87
88
89
90
91
92
93
94
95
96
97
98
99
100
101
102
103
104
105
106
107
108
109
110
111
112
113
114
115
116
117
118
119
120
121
122
123
124
125
127
128
129
130
131
132
133
134
135
136
137
138
140
141
142
143
144
146
147
148
149
150
151
153
154
155
156
157
158
159
160
162
164
165
166
167
168
169
170
171
172
173
174
176
177
178
179
182
183
184
185
186
187
188
189
190
191
192
193
194
195
196
197
198
199
200
201
202
203
204
205
206
207
208
209
210
211
212
213
214
215
216
217
218
219
220
222
224
225
226
227
228
229
230
232
233
234
235
236
237
239
240
241
242
243
244
246
247
248
249
250
251
252
253
254
255
256
257
258
259
260
261
262
263
264
265
266
267
268
269
270
271
272
273
274
275
276
277
278
279
280
281
283
284
285
286
287
288
289
290
291
292
293
294
295
296
297
298
299
300

SCALARS type int 1
LOOKUP_TABLE default
1
1
1
1
1
1
1
1
1
1
1
1
1
1
1
1
1
1
1
1
1
1
1
1
1
1
1
1
1
1
1
1
1
1
1
1
1
1
1
1
1
1
1
1
1
1
1
1
1
1
1
1
1
1
1
1
1
1
1
1
1
1
1
1
1
1
1
1
1
1
1
1
1
1
1
1
1
1
1
1
1
1
1
1
1
1
1
1
1
1
1
1
1
1
1
1
1
1
1
1
1
1
1
1
1
1
1
1
1
1
1
1
1
1
1
1
1
1
1
1
1
1
1
1
1
1
1
1
1
1
1
1
1
1
1
1
1
1
1
1
1
1
1
1
1
1
1
1
1
1
1
1
1
1
1
1
1
1
1
1
1
1
1
1
1
1
1
1
1
1
1
1
1
1
1
1
1
1
1
1
1
1
1
1
1
1
1
1
1
1
1
1
1
1
1
1
1
1
1
1
1
1
1
1
1
1
1
1
1
1
1
1
1
1
1
1
1
1
1
1
1
1
1
1
1
1
1
1
1
1
1
1
1
1
1
1
1
1
1
1
1
1
1
1
1
1
1
1
1
1
1
1
1
1
1
1
1
1
1
1
1
1
1
1
1
1
1
1
1
1
1
1
1
1
1

SCALARS radius float 1
LOOKUP_TABLE default
5e-05
5e-05
5e-05
5e-05
5e-05
5e-05
5e-05
5e-05
5e-05
5e-05
5e-05
5e-05
5e-05
5e-05
5e-05
5e-05
5e-05
5e-05
5e-05
5e-05
5e-05
5e-05
5e-05
5e-05
5e-05
5e-05
5e-05
5e-05
5e-05
5e-05
5e-05
5e-05
5e-05
5e-05
5e-05
5e-05
5e-05
5e-05
5e-05
5e-05
5e-05
5e-05
5e-05
5e-05
5e-05
5e-05
5e-05
5e-05
5e-05
5e-05
5e-05
5e-05
5e-05
5e-05
5e-05
5e-05
5e-05
5e-05
5e-05
5e-05
5e-05
5e-05
5e-05
5e-05
5e-05
5e-05
5e-05
5e-05
5e-05
5e-05
5e-05
5e-05
5e-05
5e-05
5e-05
5e-05
5e-05
5e-05
5e-05
5e-05
5e-05
5e-05
5e-05
5e-05
5e-05
5e-05
5e-05
5e-05
5e-05
5e-05
5e-05
5e-05
5e-05
5e-05
5e-05
5e-05
5e-05
5e-05
5e-05
5e-05
5e-05
5e-05
5e-05
5e-05
5e-05
5e-05
5e-05
5e-05
5e-05
5e-05
5e-05
5e-05
5e-05
5e-05
5e-05
5e-05
5e-05
5e-05
5e-05
5e-05
5e-05
5e-05
5e-05
5e-05
5e-05
5e-05
5e-05
5e-05
5e-05
5e-05
5e-05
5e-05
5e-05
5e-05
5e-05
5e-05
5e-05
5e-05
5e-05
5e-05
5e-05
5e-05
5e-05
5e-05
5e-05
5e-05
5e-05
5e-05
5e-05
5e-05
5e-05
5e-05
5e-05
5e-05
5e-05
5e-05
5e-05
5e-05
5e-05
5e-05
5e-05
5e-05
5e-05
5e-05
5e-05
5e-05
5e-05
5e-05
5e-05
5e-05
5e-05
5e-05
5e-05
5e-05
5e-05
5e-05
5e-05
5e-05
5e-05
5e-05
5e-05
5e-05
5e-05
5e-05
5e-05
5e-05
5e-05
5e-05
5e-05
5e-05
5e-05
5e-05
5e-05
5e-05
5e-05
5e-05
5e-05
5e-05
5e-05
5e-05
5e-05
5e-05
5e-05
5e-05
5e-05
5e-05
5e-05
5e-05
5e-05
5e-05
5e-05
5e-05
5e-05
5e-05
5e-05
5e-05
5e-05
5e-05
5e-05
5e-05
5e-05
5e-05
5e-05
5e-05
5e-05
5e-05
5e-05
5e-05
5e-05
5e-05
5e-05
5e-05
5e-05
5e-05
5e-05
5e-05
5e-05
5e-05
5e-05
5e-05
5e-05
5e-05
5e-05
5e-05
5e-05
5e-05
5e-05
5e-05
5e-05
5e-05
5e-05
5e-05
5e-05
5e-05
5e-05
5e-05
5e-05
5e-05
5e-05
5e-05
5e-05
5e-05
5e-05
5e-05
5e-05
5e-05
5e-05
5e-05
5e-05
5e-05
5e-05
5e-05
5e-05
5e-05
5e-05

SCALARS mass float 1
LOOKUP_TABLE default
1.46608e-10
1.46608e-10
1.46608e-10
1.46608e-10
1.46608e-10
1.46608e-10
1.46608e-10
1.46608e-10
1.46608e-10
1.46608e-10
1.46608e-10
1.46608e-10
1.46608e-10
1.46608e-10
1.46608e-10
1.46608e-10
1.46608e-10
1.46608e-10
1.46608e-10
1.46608e-10
1.46608e-10
1.46608e-10
1.46608e-10
1.46608e-10
1.46608e-10
1.46608e-10
1.46608e-10
1.46608e-10
1.46608e-10
1.46608e-10
1.46608e-10
1.46608e-10
1.46608e-10
1.46608e-10
1.46608e-10
1.46608e-10
1.46608e-10
1.46608e-10
1.46608e-10
1.46608e-10
1.46608e-10
1.46608e-10
1.46608e-10
1.46608e-10
1.46608e-10
1.46608e-10
1.46608e-10
1.46608e-10
1.46608e-10
1.46608e-10
1.46608e-10
1.46608e-10
1.46608e-10
1.46608e-10
1.46608e-10
1.46608e-10
1.46608e-10
1.46608e-10
1.46608e-10
1.46608e-10
1.46608e-10
1.46608e-10
1.46608e-10
1.46608e-10
1.46608e-10
1.46608e-10
1.46608e-10
1.46608e-10
1.46608e-10
1.46608e-10
1.46608e-10
1.46608e-10
1.46608e-10
1.46608e-10
1.46608e-10
1.46608e-10
1.46608e-10
1.46608e-10
1.46608e-10
1.46608e-10
1.46608e-10
1.46608e-10
1.46608e-10
1.46608e-10
1.46608e-10
1.46608e-10
1.46608e-10
1.46608e-10
1.46608e-10
1.46608e-10
1.46608e-10
1.46608e-10
1.46608e-10
1.46608e-10
1.46608e-10
1.46608e-10
1.46608e-10
1.46608e-10
1.46608e-10
1.46608e-10
1.46608e-10
1.46608e-10
1.46608e-10
1.46608e-10
1.46608e-10
1.46608e-10
1.46608e-10
1.46608e-10
1.46608e-10
1.46608e-10
1.46608e-10
1.46608e-10
1.46608e-10
1.46608e-10
1.46608e-10
1.46608e-10
1.46608e-10
1.46608e-10
1.46608e-10
1.46608e-10
1.46608e-10
1.46608e-10
1.46608e-10
1.46608e-10
1.46608e-10
1.46608e-10
1.46608e-10
1.46608e-10
1.46608e-10
1.46608e-10
1.46608e-10
1.46608e-10
1.46608e-10
1.46608e-10
1.46608e-10
1.46608e-10
1.46608e-10
1.46608e-10
1.46608e-10
1.46608e-10
1.46608e-10
1.46608e-10
1.46608e-10
1.46608e-10
1.46608e-10
1.46608e-10
1.46608e-10
1.46608e-10
1.46608e-10
1.46608e-10
1.46608e-10
1.46608e-10
1.46608e-10
1.46608e-10
1.46608e-10
1.46608e-10
1.46608e-10
1.46608e-10
1.46608e-10
1.46608e-10
1.46608e-10
1.46608e-10
1.46608e-10
1.46608e-10
1.46608e-10
1.46608e-10
1.46608e-10
1.46608e-10
1.46608e-10
1.46608e-10
1.46608e-10
1.46608e-10
1.46608e-10
1.46608e-10
1.46608e-10
1.46608e-10
1.46608e-10
1.46608e-10
1.46608e-10
1.46608e-10
1.46608e-10
1.46608e-10
1.46608e-10
1.46608e-10
1.46608e-10
1.46608e-10
1.46608e-10
1.46608e-10
1.46608e-10
1.46608e-10
1.46608e-10
1.46608e-10
1.46608e-10
1.46608e-10
1.46608e-10
1.46608e-10
1.46608e-10
1.46608e-10
1.46608e-10
1.46608e-10
1.46608e-10
1.46608e-10
1.46608e-10
1.46608e-10
1.46608e-10
1.46608e-10
1.46608e-10
1.46608e-10
1.46608e-10
1.46608e-10
1.46608e-10
1.46608e-10
1.46608e-10
1.46608e-10
1.46608e-10
1.46608e-10
1.46608e-10
1.46608e-10
1.46608e-10
1.46608e-10
1.46608e-10
1.46608e-10
1.46608e-10
1.46608e-10
1.46608e-10
1.46608e-10
1.46608e-10
1.46608e-10
1.46608e-10
1.46608e-10
1.46608e-10
1.46608e-10
1.46608e-10
1.46608e-10
1.46608e-10
1.46608e-10
1.46608e-10
1.46608e-10
1.46608e-10
1.46608e-10
1.46608e-10
1.46608e-10
1.46608e-10
1.46608e-10
1.46608e-10
1.46608e-10
1.46608e-10
1.46608e-10
1.46608e-10
1.46608e-10
1.46608e-10
1.46608e-10
1.46608e-10
1.46608e-10
1.46608e-10
1.46608e-10
1.46608e-10
1.46608e-10
1.46608e-10
1.46608e-10
1.46608e-10
1.46608e-10
1.46608e-10
1.46608e-10
1.46608e-10
1.46608e-10
1.46608e-10
1.46608e-10
1.46608e-10
1.46608e-10
1.46608e-10
1.46608e-10
1.46608e-10
1.46608e-10
1.46608e-10

VECTORS velocity float
0.00579528 0.000586894 -0.000103961
0.00565259 0.000487374 -0.000593751
0.00579161 0.000588211 -0.000640317
0.00585118 -0.000621049 -0.000887785
0.00578027 0.000283454 -9.84027e-05
0.00557146 0.000417142 -0.000566529
0.00572462 0.000386234 -0.000572171
0.00564255 0.000269594 -8.56848e-05
0.00635823 0.000555784 -0.000150194
0.00566395 0.00046939 -0.000588785
0.00591262 0.000611185 0.00010028
0.0058826 -0.000282471 -0.000665361
0.00554815 0.000491628 0.000137349
0.00575314 0.00048204 0.00015793
0.0063056 0.000561265 -0.000157712
0.00586787 -0.000274237 -0.000659274
0.00567294 0.000415537 -0.000569322
0.00569978 0.00039174 -0.000567121
0.00569178 0.000422754 0.000184341
0.00571033 0.000239405 -7.27474e-05
0.00642642 0.00054419 -0.000116773
0.0057947 0.000232292 -6.72398e-05
0.00595263 0.000449611 0.000188793
0.0057258 0.000529578 -0.000613742
0.00578956 -0.000268341 -0.000663983
0.00638387 0.00051203 -6.1978e-05
0.00554678 0.000403211 -0.00055469
0.00641652 0.000560561 -9.46936e-05
0.00580138 0.000240638 -7.27286e-05
0.00625666 0.000279716 -0.000299071
0.00558892 0.00042903 -0.000566691
0.00568262 0.000287401 -9.10066e-05
0.00584893 0.000503271 -0.00061439
0.00558341 0.000425531 -0.000566801
0.00574771 0.000237814 -7.25838e-05
0.00605238 -0.00083366 -0.000962452
0.00580823 0.000682663 -0.00067514
0.00558316 0.000420766 -0.000565112
0.00583082 0.000217623 -5.91431e-05
0.00616824 -0.000257329 -0.00060516
0.00576412 0.000513571 -0.000614501
0.00564708 0.000266847 -8.74788e-05
0.00637651 0.000563686 -9.16158e-05
0.00557733 0.000377253 -0.000549176
0.00546567 0.000478765 0.000138418
0.0058901 0.000202716 -5.02319e-05
0.00568563 0.00046397 -0.000586174
0.00545228 0.000472376 0.0001408
0.005674 0.000471199 -0.00058953
0.00586522 0.000207764 -5.37049e-05
-5.0196e-15 -7.41215e-15 7.69802e-14
0.00559155 0.000434683 -0.00057002
0.00593963 -0.000753039 -0.000948661
0.00558503 0.000426358 -0.000566799
0.00579532 0.000541652 -0.00062658
0.00574142 0.000231188 -6.78013e-05
0.00549706 0.000461421 0.000149815
0.00562155 0.000437348 0.000165978
0.00564873 0.000421798 -0.000573636
0.0055723 0.000445997 -0.000573638
0.00562267 0.000408219 -0.000563555
0.00581444 0.000233437 -8.01973e-05
0.0057785 0.000451422 0.000174691
0.00578893 0.000546085 -9.56796e-05
0.0063929 0.000546875 -0.000137383
0.0063799 0.000538957 -9.34767e-05
0.00584093 0.00054161 0.000132035
0.00555458 0.000508409 -0.000595408
0.00567084 -7.03219e-05 -0.000559248
0.00572234 0.00041434 -0.000210945
0.00564045 0.000530895 -0.000608776
0.00565868 0.000456273 0.000152474
0.00586038 0.000662627 6.92947e-05
0.00566691 0.000277627 -8.87525e-05
0.00578431 0.000489517 0.000154663
0.00563951 0.000461156 -0.000583516
0.00582044 0.00049431 -0.000607771
0.00563713 0.000454691 -0.000581461
0.00563665 0.000425702 -0.000567394
0.00567558 0.000439478 -0.000577457
0.00594965 0.000455516 0.000185453
0.00565126 0.000464275 -0.00058572
0.00586481 0.000548575 -7.27586e-05
0.00567496 0.000459834 -0.000601444
0.00559742 0.000449598 -0.000577064
0.00562984 0.000463671 -0.000583164
0.00612315 -0.000142111 -0.000549565
0.0060719 0.000524359 -2.49632e-05
0.00567806 0.000486039 0.000153957
0.00563474 0.000429177 -0.000569958
0.00570355 0.000493648 0.000174697
4.1578e-15 1.05217e-14 8.29626e-14
-3.43631e-22 4.86658e-23 1.23839e-22
0.0057924 0.000468006 0.000163143
0.00609897 -0.000149935 -0.000538338
0.0055968 0.000455325 0.000150701
0.00574009 -7.9684e-05 -0.000559279
0.00565317 0.000418658 -0.000572976
0.00559966 0.000462659 -0.000581568
0.00575333 0.000452144 -0.000587838
0.00580995 0.000408903 -0.000576961
0.00614042 -0.000136777 -0.000554275
0.00553629 0.0004982 0.000133172
0.00563309 0.000437129 0.000172495
0.00567837 0.000530451 -0.000611223
0.00571728 0.000472933 -0.000600004
0.00562703 0.000457623 -0.000581551
0.00549906 0.00045271 0.000154594
0.00560802 0.000302478 -4.84358e-05
0.00570021 0.000406413 -0.000557358
0.00581502 0.000598133 -0.000100502
0.0056066 0.000465132 -0.000580935
0.00578455 0.000490388 0.000153495
0.00576513 0.000530402 -0.000196624
0.0056104 0.000451257 -0.000577806
0.00610546 -0.00014535 -0.000542928
0.00627231 0.000518154 -1.19694e-05
0.00565889 0.000469832 -0.000582668
0.00564274 0.000475052 0.000151268
0.00566859 0.000475114 0.000154389
0.00570151 0.000589349 -0.000634142
0.00573575 0.000501207 -0.000612441
0.0057062 0.000457349 -0.000590605
0.00563039 0.000373499 -0.000551958
0.00569705 0.000602885 8.91356e-05
0.00562947 0.000480696 -0.000583726
0.00568175 0.000478461 -0.000600986
0.00551633 0.000496719 -0.000587689
0.00607034 0.000466968 0.000188058
0.00563904 0.00044338 0.000169105
0.00597173 -0.000126263 -0.000545502
0.00554612 0.000446898 0.000161092
0.00616011 1.09124e-05 -0.000381344
0.0055961 0.000483624 0.000144032
0.00604267 0.000469931 0.000184456
0.00569815 0.000373936 -0.000697987
0.00571126 0.000413329 -0.000212009
0.0057441 0.000372987 -0.000136097
0.00602145 0.000468027 0.000183972
0.00614805 -0.000135349 -0.000562459
0.00615617 0.000289279 1.12292e-05
0.00607698 0.000458417 0.00019309
-3.84018e-14 8.163e-14 2.95889e-13
0.00596014 0.000460784 0.000183413
0.0056321 0.000485889 -0.00059194
0.0057875 0.000465361 0.000167735
0.00562246 0.000655566 8.01282e-05
0.00610945 0.000430755 0.00021138
0.00573056 0.000383071 -0.000228307
0.00572747 0.000488979 -0.000603337
0.00571768 0.000365831 -0.000212622
0.00571234 0.00042379 -0.000212567
0.00570427 0.000385109 -0.000212708
0.00570998 0.000363065 -0.00021134
0.00577644 0.00054446 -9.70971e-05
0.00550432 0.000506701 0.000127035
0.00556249 0.000444967 -0.000285182
0.00606718 0.000430061 0.000207362
0.00545673 0.000485202 0.000134573
0.00616038 0.000439109 0.00021035
0.00556423 0.000522397 0.000122323
0.00569204 0.000487059 -0.000216621
0.00579659 0.00058479 -0.000102381
0.00563381 0.000471389 0.000143943
0.00573546 0.000518338 -0.000624896
0.00561328 0.000440123 0.000169329
0.00576304 0.000472114 0.000163503
0.00582653 0.000633281 -0.000113002
0.00558402 0.000446452 -0.000575757
0.00583089 0.000574425 -9.54177e-05
0.00560346 0.000282852 -0.000257048
0.0057593 0.000395849 -0.000619808
0.00557811 0.000528197 0.000119928
0.0057358 0.000442794 -7.56453e-05
0.00568878 0.000454275 0.000165734
0.00579835 0.000443684 0.000179575
0.00567571 0.000462153 0.000161103
0.00563349 0.000491966 7.93155e-06
0.00573908 0.000647019 6.88503e-05
0.00565262 0.000472806 0.000152942
0.0061357 -0.000139713 -0.000552663
0.00577756 0.00043713 4.85648e-05
0.00592335 0.000429287 0.000197489
0.00566985 0.000452847 -0.000580172
0.00576464 0.000423971 0.000189308
0.00602273 0.00044818 0.000194697
0.00597812 0.000448546 0.00019115
0.00608864 0.000436686 0.000205312
0.00547712 0.000475958 0.000140726
0.00548241 0.000481619 0.000138126
0.00579047 0.000395308 -0.000574448
0.00581963 0.000439683 -0.000590075
0.00584709 0.000514043 -0.000300715
0.00579593 0.00056746 -0.000123067
0.00558814 0.000432656 -0.000568768
0.00557559 0.000250154 -0.000249524
0.00612833 0.000447093 0.000202843
0.00570298 0.000444827 -7.80864e-05
0.0056517 0.000480884 0.000147769
0.00571641 0.000429369 -0.000523839
0.00567789 0.000470359 0.000159486
0.00559967 0.000440895 -0.000573789
0.00591852 0.000425268 0.000199235
0.00580359 0.000423665 -0.00058312
0.00548907 0.000484205 0.000144729
0.00556264 0.000252067 -0.000249389
0.00560892 0.000253481 -0.000252807
0.00572717 0.000422598 -0.00029683
0.00593902 0.000430623 0.000197746
0.00565975 0.000642046 4.55171e-05
0.00572216 0.000352767 -0.000211775
0.00559257 0.000457874 -0.000574588
0.00598452 0.000431782 0.000200557
0.00567131 0.000472304 0.000156659
0.0055869 0.00048809 0.000142506
0.0060792 -0.000303393 -0.000537958
0.00594193 0.000447384 7.47777e-05
0.0060579 -0.000299357 -0.000550429
0.00595867 0.000461951 0.000182686
0.00566029 0.000467228 0.000158524
0.00616968 6.10361e-05 -0.000222946
0.00555208 0.000349587 -0.000193608
0.00604856 0.00043017 0.000206011
0.00551196 0.000494524 0.000133703
0.00588339 0.000419728 -3.10007e-05
0.00606134 0.000443265 0.000199915
0.00563009 0.000455956 -0.000592946
0.00567995 0.000279329 -0.000255882
0.00560333 0.000274634 -0.00025571
0.00590168 0.000431013 -2.95449e-06
0.00570387 -7.87237e-05 -0.000556853
0.0057614 0.00044542 0.000177536
0.00599997 0.000470052 0.000181384
0.00548457 0.000495395 0.000131189
0.00574822 0.000248841 -0.000259164
0.00572462 0.000368721 -0.000212351
0.005645 0.000548013 0.00011464
0.0054706 0.00050833 0.000124078
0.00566441 0.000502075 1.36249e-05
0.00614883 0.000427677 0.00021361
0.0056025 0.000287724 -0.000257703
0.00578472 0.000457915 0.00017187
0.00604772 0.000446397 0.000197355
0.00550637 0.000450808 0.000156173
0.00562582 0.000457112 0.000161018
0.00556816 0.00046603 -0.000579819
0.00570663 0.000448452 -0.000191564
0.00557814 0.000252433 -0.000251179
0.00600111 0.00044818 0.000193026
0.0057168 0.00024345 -0.000260581
0.00608629 0.000430112 0.000208721
0.00607896 0.000439918 0.000202975
0.00602744 0.000431401 0.000203829
0.00552852 0.000454171 0.000155948
0.00557001 0.000274902 -0.000255854
0.00560693 0.000253219 -0.000253169
0.00570482 0.000459895 -0.000212699
0.00617152 0.000423706 0.000124333
0.00592195 0.000430271 0.000196796
0.0057926 0.000496167 0.000152703
0.00613027 0.000430815 0.000212719
0.00596231 0.000430871 0.000199388
0.00577343 0.000439026 0.00018192
0.00614838 0.0004431 0.00020629
0.00577081 0.000574292 0.000109518
0.00555737 0.000448275 0.000160778
0.00573516 0.000343406 -0.000215929
0.00571841 0.000520037 0.000134799
0.00574782 0.000457954 0.000169881
0.00560271 0.000264739 -0.00025466
0.00600585 0.000432021 0.000201978
0.00582836 0.00055077 -0.00062787
0.00573787 0.000480055 3.8513e-05
0.00571531 0.000488814 3.0311e-05
0.00566887 0.000465818 -0.000591638

VECTORS force float
-3.17171e-11 -2.4205e-10 1.17127e-10
5.62603e-12 1.10538e-10 -3.30635e-11
-2.73834e-10 -1.13921e-10 6.44847e-11
1.55497e-10 2.59669e-10 -4.03954e-11
-7.31548e-11 -3.16995e-10 1.93738e-10
-5.02071e-11 2.56875e-10 -2.3839e-10
-1.09607e-10 -9.84434e-11 1.84991e-10
-1.06174e-10 -3.42218e-11 5.0033e-11
1.08726e-11 1.51496e-10 1.29225e-11
-3.15733e-11 -1.72543e-11 -1.81066e-11
2.57423e-11 1.03994e-10 -5.37279e-11
-2.64809e-11 8.45592e-11 9.78414e-11
-7.24691e-12 5.34305e-11 -3.56509e-11
-9.73771e-11 3.6078e-11 -2.02225e-11
-9.19707e-11 1.08368e-10 -1.98885e-10
2.3351e-10 -2.01979e-10 1.43032e-10
9.90623e-11 2.21986e-10 -7.34486e-11
2.60671e-10 -1.70613e-10 4.39817e-11
3.05341e-11 -3.26146e-11 2.45554e-11
2.7288e-11 1.4762e-10 -1.24694e-10
-4.13101e-11 -2.31601e-10 8.29246e-12
-5.55272e-11 1.83672e-11 8.95549e-12
-1.4126e-11 -4.30069e-11 2.23476e-11
-5.04149e-11 1.57641e-11 6.30701e-12
-1.44642e-10 -1.65218e-10 2.7007e-10
3.78238e-11 -2.69939e-12 -9.8016e-11
-3.08447e-10 1.73164e-10 -4.68521e-11
3.09782e-11 -2.87375e-10 5.25676e-11
-4.42006e-11 -7.48025e-11 2.0325e-11
-8.4642e-11 1.41704e-10 -3.41833e-10
1.91812e-10 4.08528e-11 -3.04405e-11
-1.54496e-11 -7.83369e-11 1.81099e-11
-2.97671e-10 1.26058e-10 -1.30099e-11
-5.30993e-11 -3.52415e-11 1.19194e-11
-1.08376e-10 1.23238e-10 -8.56837e-11
-4.03869e-11 2.36507e-10 -3.44285e-10
1.17428e-10 -4.20382e-11 3.50285e-12
-6.5264e-11 1.69579e-11 -2.7492e-12
5.73431e-11 3.31927e-12 1.72962e-11
3.27418e-11 2.55954e-10 -3.32105e-10
-5.92955e-11 1.51128e-10 2.20086e-10
1.4703e-10 -1.60026e-10 2.27966e-11
-3.98657e-10 -3.39215e-10 9.3052e-11
-5.87697e-11 1.76156e-10 -4.38661e-11
-4.63344e-11 6.48926e-11 -3.81221e-11
-6.42915e-12 2.10343e-11 -4.91399e-11
-3.30751e-10 9.50454e-11 -2.75732e-11
-5.90206e-11 5.41345e-11 -3.17857e-11
-3.63946e-10 1.18423e-10 -5.24549e-12
8.93177e-11 1.79727e-11 1.37607e-12
8.65955e-24 -1.57681e-24 4.1359e-25
-3.67466e-11 -2.10233e-10 8.95351e-11
1.17641e-10 1.58937e-10 -2.77772e-10
3.17583e-11 5.78682e-11 -2.05735e-11
-6.49103e-10 3.02148e-10 3.15115e-10
5.27441e-10 8.82117e-11 -5.34299e-11
1.36596e-10 -1.77728e-10 1.04352e-10
1.61913e-10 -8.27083e-11 1.13832e-11
-6.21052e-12 3.49159e-10 -1.3021e-10
-6.10232e-11 5.48378e-11 -2.1123e-11
-3.14738e-10 1.27811e-10 -4.12185e-11
3.04359e-11 2.1611e-11 -7.62154e-11
-7.28425e-11 2.01112e-10 -1.10919e-10
-7.43186e-11 2.15707e-10 -1.14327e-11
-2.49682e-10 -3.23881e-11 4.74543e-11
-1.93289e-10 -4.06843e-10 1.114e-10
-6.91403e-11 -7.61755e-12 1.46163e-12
8.40449e-12 6.8844e-11 -7.69491e-12
-4.94189e-12 -1.17791e-11 -1.61723e-12
-1.27077e-10 5.34818e-11 -2.82963e-11
9.69247e-11 -1.18607e-10 4.49215e-11
9.99095e-11 2.36473e-12 -3.11499e-11
-7.47143e-11 2.33894e-11 -1.85726e-11
-4.06735e-12 -1.47204e-10 2.64024e-11
-2.00296e-10 1.53071e-10 -7.2643e-11
3.00227e-10 3.31651e-10 -1.40426e-10
-1.62444e-10 1.81228e-10 -5.99749e-11
4.48647e-11 -4.12794e-11 -3.03677e-12
-1.1678e-10 2.11262e-10 -1.105e-10
-3.18023e-10 2.38072e-10 -8.3789e-12
-8.44909e-12 -3.96345e-11 2.02609e-11
1.81e-11 -1.05897e-10 2.13748e-11
8.5011e-10 -3.68252e-10 1.85675e-10
-2.25017e-10 4.2346e-10 -8.71663e-11
-1.48294e-10 2.23935e-11 6.852e-14
1.13541e-10 2.4268e-12 -9.96204e-12
-1.19059e-10 -8.24879e-12 4.1553e-11
6.70949e-10 -5.31678e-11 -2.67523e-11
3.06979e-11 1.19585e-10 -8.73974e-12
1.10167e-10 2.653e-10 -6.35977e-11
-6.57372e-11 5.53677e-11 3.01081e-11
2.45698e-22 -1.02829e-22 6.41065e-24
0.0 0.0 0.0
-1.41679e-10 -3.96671e-12 -2.56787e-11
1.90484e-10 -4.33274e-11 -2.72462e-12
-3.186e-11 3.42745e-11 -4.04242e-11
-9.43064e-11 5.1974e-12 9.06152e-12
-3.40958e-10 2.18395e-10 -8.32958e-11
-4.3946e-10 2.04786e-10 -3.08403e-11
-1.1773e-10 1.15738e-10 -6.927e-11
-3.40248e-11 -6.33392e-11 1.00553e-10