# vtk DataFile Version 3.0
LIGGGHTS particles timestep 9200000
ASCII
DATASET POLYDATA
POINTS 287 float
0.0664922 0.016429 0.00786739
0.0668981 0.0173331 0.00722312
0.0603145 0.0162218 0.00821924
0.0668139 0.0177619 0.00706889
0.0663742 0.0163235 0.00794303
0.0724092 0.0164479 0.00783991
0.0665544 0.0170445 0.00743545
0.0662672 0.0159233 0.00822302
0.0726548 0.0175026 0.00722909
0.0664974 0.0168043 0.00760587
0.0669604 0.0175773 0.00707709
0.0605066 0.0168588 0.00761326
0.0663528 0.0162435 0.00799902
0.0602277 0.0159389 0.00848846
0.0666866 0.0172307 0.00730095
0.060206 0.0158682 0.00855576
0.0664771 0.0167243 0.00766242
0.0725443 0.0169762 0.00740138
0.0663314 0.0161635 0.00805502
0.066471 0.0163489 0.00792342
0.0665917 0.0172048 0.00732183
0.0606368 0.0170212 0.00745138
0.0725992 0.0172079 0.0072211
0.0665355 0.0169643 0.00749216
0.0724884 0.0167496 0.00758948
0.0605962 0.0172509 0.00737458
0.0667943 0.0176643 0.00707772
0.06631 0.0160834 0.00811102
0.0667907 0.0174267 0.00716043
0.0665734 0.0171245 0.00737865
0.0666677 0.0171506 0.00735771
0.072429 0.0165233 0.00777731
0.0664569 0.0166442 0.00771873
0.0666494 0.0170703 0.00741453
0.0726928 0.0176989 0.00723442
0.0666111 0.0169098 0.00752828
0.066768 0.017182 0.00733279
0.0726179 0.0173061 0.00722376
0.0664167 0.0164837 0.00783101
0.0666106 0.0172849 0.00726508
0.0667882 0.0172638 0.00727484
0.0724489 0.0165988 0.00771471
0.0725308 0.0169 0.00746466
0.0664375 0.0165638 0.00777495
0.0666496 0.0174611 0.00718929
0.0725076 0.0168251 0.00752679
0.0667018 0.0177003 0.00706532
0.066683 0.0176021 0.00706589
0.0604872 0.0167876 0.00768075
0.0725634 0.0170517 0.00733869
0.0664484 0.0162678 0.00798017
0.0602714 0.0160803 0.00835387
0.0666304 0.0169902 0.00747129
0.0724693 0.0166741 0.00765218
0.0666873 0.0168557 0.00756404
0.0667071 0.0169367 0.0075067
0.0663955 0.0164036 0.00788703
0.066799 0.017345 0.00721752
0.0667373 0.0175085 0.00718172
0.0725913 0.0171256 0.00727734
0.0606913 0.0175116 0.00725809
0.0606981 0.0171848 0.0074116
0.0669355 0.0174885 0.00711563
0.0668613 0.0175902 0.00707304
0.0665526 0.0166695 0.00769853
0.0726362 0.0174044 0.00722643
0.0602494 0.0160096 0.00842115
0.0668336 0.0175004 0.00710751
0.0665166 0.0168842 0.007549
0.0667055 0.0173108 0.0072442
0.0607652 0.0176041 0.00717498
0.0669387 0.0183486 0.00706596
0.0603364 0.0162925 0.00815205
0.0605901 0.0169661 0.00761576
0.0667588 0.0179947 0.00706362
0.0605169 0.0169355 0.00767666
0.0605603 0.0170734 0.00741063
0.0606769 0.0167736 0.00767125
0.0726736 0.0176008 0.00723175
0.0604495 0.0163288 0.00810536
0.0667669 0.0175747 0.0071129
0.0666684 0.0167756 0.00762081
0.066824 0.0182875 0.00706228
0.0667806 0.0180923 0.00706318
0.0668886 0.0172517 0.00728048
0.0605249 0.0169305 0.00754606
0.0669088 0.0177936 0.00707219
0.0668953 0.0181534 0.00706686
0.0669706 0.0180878 0.00707069
0.0667394 0.0178966 0.00706417
0.0669287 0.0178916 0.00707166
0.0604448 0.016646 0.00781549
0.0668457 0.0183851 0.00706183
0.0606917 0.0172616 0.00734614
0.0668467 0.0170922 0.0073936
0.0605547 0.0168531 0.00771887
0.0643568 0.0187248 0.00531097
0.24257 0.0191927 0.00520306
0.0607831 0.0172563 0.00721669
0.0604022 0.0165046 0.00795037
0.0608612 0.0172086 0.00726385
0.0603579 0.0163632 0.00808463
0.0665923 0.0168297 0.00758504
0.0666635 0.0175119 0.00710428
0.0670262 0.0178698 0.00707577
0.0668892 0.0185804 0.00706093
0.0604665 0.0167167 0.00774823
0.061129 0.0176351 0.0071761
0.0608126 0.0173923 0.00726297
0.0667231 0.0174085 0.00723204
0.0665731 0.0167496 0.00764178
0.066427 0.0161878 0.00803617
0.0602928 0.016151 0.00828654
0.0667261 0.0170168 0.00744994
0.0662886 0.0160034 0.00816702
0.0662459 0.0158433 0.00827902
0.0670462 0.0179678 0.00707525
0.0604938 0.01647 0.00797083
0.0668532 0.0179579 0.00706781
0.0664057 0.0161077 0.00809217
0.0666295 0.017365 0.00720834
0.060423 0.0165753 0.00788273
0.0667208 0.0177985 0.00706841
0.0668023 0.0181899 0.00706273
0.0606554 0.0170925 0.00738373
0.0607651 0.0173116 0.00729805
0.0668324 0.0178601 0.00707129
0.0665893 0.0164554 0.00784707
0.066747 0.0170997 0.00739115
0.0663843 0.0160277 0.00814817
0.060428 0.016258 0.00817268
0.0669109 0.018678 0.00706048
0.0665323 0.0165896 0.0077551
0.067068 0.0180654 0.0070748
0.0604712 0.0163995 0.00803806
0.0607497 0.0171116 0.00735471
0.0603796 0.0164339 0.00801743
0.0608004 0.017498 0.00725774
0.060738 0.0168283 0.00761402
0.0604061 0.0161874 0.00823997
0.0606129 0.0172807 0.0072047
0.0669605 0.0184462 0.00706551
0.060579 0.0167532 0.0077015
0.0609447 0.0171599 0.00728973
0.0605364 0.0166116 0.00783616
0.0607065 0.017308 0.00717835
0.0607852 0.017702 0.00717558
0.0606907 0.0172365 0.00724935
0.0219312 0.0187687 0.00551176
0.0608045 0.0173448 0.00717534
0.0668891 0.0176956 0.00707272
0.0606887 0.0176697 0.00717189
0.0607268 0.0174078 0.00717429
0.0609482 0.0180302 0.00718134
0.0610136 0.0175059 0.00717365
0.0665473 0.0162952 0.00795916
0.0605581 0.0166825 0.00776907
0.0608787 0.0172817 0.00719793
0.0610757 0.0177992 0.00718662
0.0609185 0.0174756 0.00717972
0.0665685 0.0163752 0.00790313
0.0609797 0.0173186 0.0071732
0.0670551 0.0175457 0.00708123
0.0608429 0.0175411 0.00717809
0.0546257 0.0173676 0.00725062
0.0606737 0.0171645 0.00731678
0.0607301 0.0178654 0.00717316
0.0611085 0.0175373 0.00717175
0.0610545 0.0177016 0.00718234
0.0606512 0.0174733 0.00717489
0.066513 0.0165092 0.00781131
0.060899 0.0173775 0.00717774
0.0668674 0.0177514 0.00715282
0.060596 0.0172111 0.0072745
0.0606324 0.0173751 0.00717817
0.066826 0.0170124 0.00745019
0.066917 0.018251 0.00706641
0.0668674 0.017172 0.00733701
0.0547408 0.017486 0.00719471
0.0669327 0.0187756 0.00706003
0.0608375 0.0170576 0.00739235
0.0666492 0.0166955 0.00767754
0.0606601 0.0168789 0.00757679
0.061034 0.0176038 0.007178
0.0601843 0.0157975 0.00862306
0.0546845 0.0176377 0.00713395
0.0605577 0.0170905 0.00752236
0.0607457 0.017506 0.00717438
0.0605424 0.017002 0.00747837
0.061045 0.018062 0.00718505
0.0608441 0.0171335 0.00732761
0.0668904 0.0174148 0.007166
0.06062 0.0169519 0.00752141
0.0609052 0.0178349 0.00718001
0.0608628 0.017639 0.0071787
0.0605146 0.0165409 0.00790346
0.0608234 0.017443 0.00717744
0.0605991 0.0168242 0.00763405
0.0666388 0.0174301 0.00728374
0.0669487 0.0179896 0.00707114
0.0609388 0.0175735 0.00718158
0.0668071 0.0169323 0.00750695
0.0668738 0.0180558 0.00706732
0.0547007 0.0173054 0.00727276
0.0607083 0.0177678 0.00717248
0.0666087 0.0165358 0.00779081
0.0608272 0.0178975 0.00717687
0.0668675 0.0184828 0.00706138
0.06067 0.0175715 0.00717288
0.054642 0.0170354 0.00738943
0.0666289 0.0166157 0.00773417
0.0607679 0.0171889 0.00729392
0.0605794 0.0171543 0.00735505
0.0671011 0.0178037 0.00707959
0.0609627 0.0172392 0.00723154
0.0547955 0.0173333 0.00725599
0.0546453 0.0174577 0.00721173
0.0606916 0.0173665 0.0072583
0.0609914 0.0182255 0.00718269
0.054606 0.0172776 0.00728951
0.0606568 0.0167026 0.00773869
0.0607322 0.0170488 0.0074305
0.0670341 0.0183787 0.0070693
0.0610349 0.0184207 0.00718404
0.0610131 0.0183231 0.00718336
0.0611085 0.0183531 0.00718701
0.0544348 0.0165307 0.00772045
0.0544886 0.0167375 0.00752288
0.0544163 0.0164722 0.00779946
0.0607138 0.016969 0.00748797
0.0605765 0.0171617 0.00745473
0.0544517 0.0165891 0.00764111
0.0545669 0.0170976 0.00736729
0.0609268 0.0179326 0.00718068
0.0610972 0.0178969 0.00718736
0.0547044 0.0177314 0.00710525
0.0608056 0.0177999 0.0071762
0.0670064 0.0177718 0.0070763
0.0547443 0.0179244 0.00707279
0.0546811 0.0172154 0.00731165
0.0545474 0.0170075 0.00740618
0.0603844 0.0161167 0.00830728
0.0608832 0.017737 0.00717932
0.0607954 0.018159 0.00717519
0.0608488 0.0179952 0.00717755
0.0547661 0.0180219 0.00707761
0.0609118 0.0173477 0.00727232
0.0609571 0.0184835 0.00718091
0.0610868 0.0182555 0.00718634
0.0545281 0.0169175 0.00744508
0.0608172 0.0182569 0.00717587
0.0546651 0.0175476 0.00717284
0.0609278 0.0170864 0.00735536
0.0608919 0.0181905 0.00717888
0.0606172 0.0173131 0.0072992
0.0607736 0.0180609 0.00717451
0.0669866 0.0176738 0.00707683
0.0609592 0.0176713 0.00718239
0.0548093 0.0182169 0.00708721
0.0608824 0.0185499 0.00717789
0.0547876 0.0181194 0.0070824
0.0608703 0.0180928 0.00717821
0.0607518 0.0179631 0.00717383
0.0609041 0.0186475 0.00717857
0.061002 0.0178667 0.00718371
0.0545865 0.0171876 0.0073284
0.0547204 0.0173954 0.00723386
0.0608495 0.0169198 0.00751712
0.0546615 0.0171254 0.00735054
0.0544687 0.0166476 0.00756179
0.0609352 0.0183857 0.00718023
0.0609135 0.0182881 0.00717955
0.0608389 0.0183546 0.00717654
0.0609698 0.0181279 0.00718202
0.0608607 0.0184523 0.00717722
0.060756 0.0168997 0.00754645
0.0608073 0.016989 0.00745864
0.0610234 0.0179644 0.00718438
0.0606359 0.0166317 0.00780606
0.0609803 0.0177691 0.00718305
0.0609258 0.0187451 0.00717925
0.0547983 0.0177607 0.00707615
0.0609789 0.0185811 0.00718159
0.0667872 0.0168523 0.00756362
0.0545085 0.0168275 0.00748398
0.0547265 0.0178281 0.00709313
0.0668797 0.01751 0.00719576

VERTICES 287 574
1 0
1 1
1 2
1 3
1 4
1 5
1 6
1 7
1 8
1 9
1 10
1 11
1 12
1 13
1 14
1 15
1 16
1 17
1 18
1 19
1 20
1 21
1 22
1 23
1 24
1 25
1 26
1 27
1 28
1 29
1 30
1 31
1 32
1 33
1 34
1 35
1 36
1 37
1 38
1 39
1 40
1 41
1 42
1 43
1 44
1 45
1 46
1 47
1 48
1 49
1 50
1 51
1 52
1 53
1 54
1 55
1 56
1 57
1 58
1 59
1 60
1 61
1 62
1 63
1 64
1 65
1 66
1 67
1 68
1 69
1 70
1 71
1 72
1 73
1 74
1 75
1 76
1 77
1 78
1 79
1 80
1 81
1 82
1 83
1 84
1 85
1 86
1 87
1 88
1 89
1 90
1 91
1 92
1 93
1 94
1 95
1 96
1 97
1 98
1 99
1 100
1 101
1 102
1 103
1 104
1 105
1 106
1 107
1 108
1 109
1 110
1 111
1 112
1 113
1 114
1 115
1 116
1 117
1 118
1 119
1 120
1 121
1 122
1 123
1 124
1 125
1 126
1 127
1 128
1 129
1 130
1 131
1 132
1 133
1 134
1 135
1 136
1 137
1 138
1 139
1 140
1 141
1 142
1 143
1 144
1 145
1 146
1 147
1 148
1 149
1 150
1 151
1 152
1 153
1 154
1 155
1 156
1 157
1 158
1 159
1 160
1 161
1 162
1 163
1 164
1 165
1 166
1 167
1 168
1 169
1 170
1 171
1 172
1 173
1 174
1 175
1 176
1 177
1 178
1 179
1 180
1 181
1 182
1 183
1 184
1 185
1 186
1 187
1 188
1 189
1 190
1 191
1 192
1 193
1 194
1 195
1 196
1 197
1 198
1 199
1 200
1 201
1 202
1 203
1 204
1 205
1 206
1 207
1 208
1 209
1 210
1 211
1 212
1 213
1 214
1 215
1 216
1 217
1 218
1 219
1 220
1 221
1 222
1 223
1 224
1 225
1 226
1 227
1 228
1 229
1 230
1 231
1 232
1 233
1 234
1 235
1 236
1 237
1 238
1 239
1 240
1 241
1 242
1 243
1 244
1 245
1 246
1 247
1 248
1 249
1 250
1 251
1 252
1 253
1 254
1 255
1 256
1 257
1 258
1 259
1 260
1 261
1 262
1 263
1 264
1 265
1 266
1 267
1 268
1 269
1 270
1 271
1 272
1 273
1 274
1 275
1 276
1 277
1 278
1 279
1 280
1 281
1 282
1 283
1 284
1 285
1 286

POINT_DATA 287
SCALARS id int 1
LOOKUP_TABLE default
1
2
3
4
5
6
7
8
9
10
11
12
13
14
15
16
17
18
19
21
22
23
24
25
26
27
28
29
30
31
32
33
34
35
36
37
38
39
41
42
44
45
46
47
48
49
50
51
52
53
54
55
56
57
59
60
61
62
63
64
65
66
67
68
69
70
71
72
73
74
76
77
78
79
80
81
82
83
84
85
86
87
88
89
90
91
92
93
94
95
96
97
98
99
100
101
102
103
104
105
106
107
108
109
110
111
112
113
114
115
116
117
118
119
120
121
122
123
124
125
126
127
128
129
130
131
132
133
134
135
136
137
138
140
141
142
143
144
146
147
148
149
150
151
153
154
155
156
157
158
159
160
162
164
165
166
167
168
169
170
171
172
173
174
175
176
177
178
179
181
182
183
184
185
186
187
188
189
190
191
192
193
194
195
196
197
198
199
200
201
202
203
204
205
206
207
208
209
210
211
212
213
214
215
216
217
218
219
220
221
222
223
224
225
226
227
228
229
230
231
232
233
234
235
236
237
239
240
241
242
243
244
246
247
248
249
250
251
252
253
254
255
256
257
258
259
260
261
262
263
264
265
266
267
268
269
270
271
272
273
274
275
276
277
278
279
280
281
282
283
284
285
286
287
288
289
290
291
292
293
294
295
296
297
298
299
300

SCALARS type int 1
LOOKUP_TABLE default
1
1
1
1
1
1
1
1
1
1
1
1
1
1
1
1
1
1
1
1
1
1
1
1
1
1
1
1
1
1
1
1
1
1
1
1
1
1
1
1
1
1
1
1
1
1
1
1
1
1
1
1
1
1
1
1
1
1
1
1
1
1
1
1
1
1
1
1
1
1
1
1
1
1
1
1
1
1
1
1
1
1
1
1
1
1
1
1
1
1
1
1
1
1
1
1
1
1
1
1
1
1
1
1
1
1
1
1
1
1
1
1
1
1
1
1
1
1
1
1
1
1
1
1
1
1
1
1
1
1
1
1
1
1
1
1
1
1
1
1
1
1
1
1
1
1
1
1
1
1
1
1
1
1
1
1
1
1
1
1
1
1
1
1
1
1
1
1
1
1
1
1
1
1
1
1
1
1
1
1
1
1
1
1
1
1
1
1
1
1
1
1
1
1
1
1
1
1
1
1
1
1
1
1
1
1
1
1
1
1
1
1
1
1
1
1
1
1
1
1
1
1
1
1
1
1
1
1
1
1
1
1
1
1
1
1
1
1
1
1
1
1
1
1
1
1
1
1
1
1
1
1
1
1
1
1
1
1
1
1
1
1
1
1
1
1
1
1
1
1
1
1
1
1
1
1
1
1
1
1
1
1
1
1
1
1
1

SCALARS radius float 1
LOOKUP_TABLE default
5e-05
5e-05
5e-05
5e-05
5e-05
5e-05
5e-05
5e-05
5e-05
5e-05
5e-05
5e-05
5e-05
5e-05
5e-05
5e-05
5e-05
5e-05
5e-05
5e-05
5e-05
5e-05
5e-05
5e-05
5e-05
5e-05
5e-05
5e-05
5e-05
5e-05
5e-05
5e-05
5e-05
5e-05
5e-05
5e-05
5e-05
5e-05
5e-05
5e-05
5e-05
5e-05
5e-05
5e-05
5e-05
5e-05
5e-05
5e-05
5e-05
5e-05
5e-05
5e-05
5e-05
5e-05
5e-05
5e-05
5e-05
5e-05
5e-05
5e-05
5e-05
5e-05
5e-05
5e-05
5e-05
5e-05
5e-05
5e-05
5e-05
5e-05
5e-05
5e-05
5e-05
5e-05
5e-05
5e-05
5e-05
5e-05
5e-05
5e-05
5e-05
5e-05
5e-05
5e-05
5e-05
5e-05
5e-05
5e-05
5e-05
5e-05
5e-05
5e-05
5e-05
5e-05
5e-05
5e-05
5e-05
5e-05
5e-05
5e-05
5e-05
5e-05
5e-05
5e-05
5e-05
5e-05
5e-05
5e-05
5e-05
5e-05
5e-05
5e-05
5e-05
5e-05
5e-05
5e-05
5e-05
5e-05
5e-05
5e-05
5e-05
5e-05
5e-05
5e-05
5e-05
5e-05
5e-05
5e-05
5e-05
5e-05
5e-05
5e-05
5e-05
5e-05
5e-05
5e-05
5e-05
5e-05
5e-05
5e-05
5e-05
5e-05
5e-05
5e-05
5e-05
5e-05
5e-05
5e-05
5e-05
5e-05
5e-05
5e-05
5e-05
5e-05
5e-05
5e-05
5e-05
5e-05
5e-05
5e-05
5e-05
5e-05
5e-05
5e-05
5e-05
5e-05
5e-05
5e-05
5e-05
5e-05
5e-05
5e-05
5e-05
5e-05
5e-05
5e-05
5e-05
5e-05
5e-05
5e-05
5e-05
5e-05
5e-05
5e-05
5e-05
5e-05
5e-05
5e-05
5e-05
5e-05
5e-05
5e-05
5e-05
5e-05
5e-05
5e-05
5e-05
5e-05
5e-05
5e-05
5e-05
5e-05
5e-05
5e-05
5e-05
5e-05
5e-05
5e-05
5e-05
5e-05
5e-05
5e-05
5e-05
5e-05
5e-05
5e-05
5e-05
5e-05
5e-05
5e-05
5e-05
5e-05
5e-05
5e-05
5e-05
5e-05
5e-05
5e-05
5e-05
5e-05
5e-05
5e-05
5e-05
5e-05
5e-05
5e-05
5e-05
5e-05
5e-05
5e-05
5e-05
5e-05
5e-05
5e-05
5e-05
5e-05
5e-05
5e-05
5e-05
5e-05
5e-05
5e-05
5e-05
5e-05
5e-05
5e-05
5e-05
5e-05
5e-05
5e-05
5e-05
5e-05
5e-05
5e-05
5e-05
5e-05
5e-05
5e-05
5e-05
5e-05
5e-05
5e-05
5e-05
5e-05
5e-05
5e-05
5e-05
5e-05
5e-05
5e-05
5e-05
5e-05
5e-05
5e-05
5e-05
5e-05
5e-05

SCALARS mass float 1
LOOKUP_TABLE default
1.46608e-10
1.46608e-10
1.46608e-10
1.46608e-10
1.46608e-10
1.46608e-10
1.46608e-10
1.46608e-10
1.46608e-10
1.46608e-10
1.46608e-10
1.46608e-10
1.46608e-10
1.46608e-10
1.46608e-10
1.46608e-10
1.46608e-10
1.46608e-10
1.46608e-10
1.46608e-10
1.46608e-10
1.46608e-10
1.46608e-10
1.46608e-10
1.46608e-10
1.46608e-10
1.46608e-10
1.46608e-10
1.46608e-10
1.46608e-10
1.46608e-10
1.46608e-10
1.46608e-10
1.46608e-10
1.46608e-10
1.46608e-10
1.46608e-10
1.46608e-10
1.46608e-10
1.46608e-10
1.46608e-10
1.46608e-10
1.46608e-10
1.46608e-10
1.46608e-10
1.46608e-10
1.46608e-10
1.46608e-10
1.46608e-10
1.46608e-10
1.46608e-10
1.46608e-10
1.46608e-10
1.46608e-10
1.46608e-10
1.46608e-10
1.46608e-10
1.46608e-10
1.46608e-10
1.46608e-10
1.46608e-10
1.46608e-10
1.46608e-10
1.46608e-10
1.46608e-10
1.46608e-10
1.46608e-10
1.46608e-10
1.46608e-10
1.46608e-10
1.46608e-10
1.46608e-10
1.46608e-10
1.46608e-10
1.46608e-10
1.46608e-10
1.46608e-10
1.46608e-10
1.46608e-10
1.46608e-10
1.46608e-10
1.46608e-10
1.46608e-10
1.46608e-10
1.46608e-10
1.46608e-10
1.46608e-10
1.46608e-10
1.46608e-10
1.46608e-10
1.46608e-10
1.46608e-10
1.46608e-10
1.46608e-10
1.46608e-10
1.46608e-10
1.46608e-10
1.46608e-10
1.46608e-10
1.46608e-10
1.46608e-10
1.46608e-10
1.46608e-10
1.46608e-10
1.46608e-10
1.46608e-10
1.46608e-10
1.46608e-10
1.46608e-10
1.46608e-10
1.46608e-10
1.46608e-10
1.46608e-10
1.46608e-10
1.46608e-10
1.46608e-10
1.46608e-10
1.46608e-10
1.46608e-10
1.46608e-10
1.46608e-10
1.46608e-10
1.46608e-10
1.46608e-10
1.46608e-10
1.46608e-10
1.46608e-10
1.46608e-10
1.46608e-10
1.46608e-10
1.46608e-10
1.46608e-10
1.46608e-10
1.46608e-10
1.46608e-10
1.46608e-10
1.46608e-10
1.46608e-10
1.46608e-10
1.46608e-10
1.46608e-10
1.46608e-10
1.46608e-10
1.46608e-10
1.46608e-10
1.46608e-10
1.46608e-10
1.46608e-10
1.46608e-10
1.46608e-10
1.46608e-10
1.46608e-10
1.46608e-10
1.46608e-10
1.46608e-10
1.46608e-10
1.46608e-10
1.46608e-10
1.46608e-10
1.46608e-10
1.46608e-10
1.46608e-10
1.46608e-10
1.46608e-10
1.46608e-10
1.46608e-10
1.46608e-10
1.46608e-10
1.46608e-10
1.46608e-10
1.46608e-10
1.46608e-10
1.46608e-10
1.46608e-10
1.46608e-10
1.46608e-10
1.46608e-10
1.46608e-10
1.46608e-10
1.46608e-10
1.46608e-10
1.46608e-10
1.46608e-10
1.46608e-10
1.46608e-10
1.46608e-10
1.46608e-10
1.46608e-10
1.46608e-10
1.46608e-10
1.46608e-10
1.46608e-10
1.46608e-10
1.46608e-10
1.46608e-10
1.46608e-10
1.46608e-10
1.46608e-10
1.46608e-10
1.46608e-10
1.46608e-10
1.46608e-10
1.46608e-10
1.46608e-10
1.46608e-10
1.46608e-10
1.46608e-10
1.46608e-10
1.46608e-10
1.46608e-10
1.46608e-10
1.46608e-10
1.46608e-10
1.46608e-10
1.46608e-10
1.46608e-10
1.46608e-10
1.46608e-10
1.46608e-10
1.46608e-10
1.46608e-10
1.46608e-10
1.46608e-10
1.46608e-10
1.46608e-10
1.46608e-10
1.46608e-10
1.46608e-10
1.46608e-10
1.46608e-10
1.46608e-10
1.46608e-10
1.46608e-10
1.46608e-10
1.46608e-10
1.46608e-10
1.46608e-10
1.46608e-10
1.46608e-10
1.46608e-10
1.46608e-10
1.46608e-10
1.46608e-10
1.46608e-10
1.46608e-10
1.46608e-10
1.46608e-10
1.46608e-10
1.46608e-10
1.46608e-10
1.46608e-10
1.46608e-10
1.46608e-10
1.46608e-10
1.46608e-10
1.46608e-10
1.46608e-10
1.46608e-10
1.46608e-10
1.46608e-10
1.46608e-10
1.46608e-10
1.46608e-10
1.46608e-10
1.46608e-10
1.46608e-10
1.46608e-10
1.46608e-10
1.46608e-10
1.46608e-10
1.46608e-10
1.46608e-10
1.46608e-10
1.46608e-10
1.46608e-10
1.46608e-10
1.46608e-10
1.46608e-10
1.46608e-10
1.46608e-10
1.46608e-10
1.46608e-10
1.46608e-10
1.46608e-10
1.46608e-10
1.46608e-10
1.46608e-10

VECTORS velocity float
0.00564903 -0.000548015 0.00026008
0.00547266 -0.000483126 0.000183129
0.00592676 -0.000150807 -0.000572726
0.00557236 -0.000541949 0.000228029
0.0059083 -0.000571113 0.000272425
0.00565243 -9.57866e-06 -1.18234e-06
0.00529729 -0.000495319 0.000197808
0.00601072 -0.000605997 0.000296632
0.00554502 4.44571e-10 1.05951e-05
0.00553423 -0.00050514 0.000202534
0.00554823 -0.000521643 0.000221453
0.00479648 -1.64516e-06 -0.000554853
0.0058969 -0.000562533 0.000268919
0.00593029 -0.000224124 -0.000491448
0.00542704 -0.000550765 0.000231435
0.00592767 -0.000249678 -0.000467352
0.00560817 -0.00051254 0.000222508
0.00566431 -1.74138e-05 3.51832e-06
0.00593611 -0.000569245 0.000273772
0.00598331 -0.000632453 0.000310803
0.00540998 -0.000523354 0.000213327
0.00532446 -0.000570234 -0.000581809
0.00562733 -1.07987e-05 7.94128e-06
0.00531989 -0.000489502 0.000190825
0.00552187 -2.29971e-06 -1.05175e-05
0.00552801 0.000143365 -0.00032151
0.00555288 -0.000538152 0.000222212
0.00597312 -0.000576498 0.000276935
0.00545919 -0.000505376 0.000200464
0.00535631 -0.00051162 0.000207017
0.00537562 -0.000544749 0.000229417
0.00564312 -1.37303e-05 4.17921e-07
0.00563497 -0.000520734 0.000247372
0.00531296 -0.000540935 0.000229385
0.00576402 -4.63114e-05 9.37288e-06
0.00538627 -0.000440475 0.000155257
0.00544664 -0.000536371 0.00022138
0.00558962 -4.79695e-06 9.77909e-06
0.00566678 -0.000548729 0.000260288
0.00545107 -0.000530129 0.000216398
0.00547332 -0.000521535 0.000207475
0.00571556 -2.46581e-05 9.99473e-06
0.00561606 -1.28646e-05 -1.35764e-07
0.00565705 -0.000532688 0.000255938
0.00550223 -0.000533639 0.000232569
0.00554942 -2.44958e-06 -8.64289e-06
0.00555618 -0.000532664 0.000224263
0.00558824 -0.00054306 0.000227345
0.00544098 -0.000142648 -0.000516545
0.00565897 -1.70138e-05 2.95452e-06
0.00591691 -0.000528218 0.000243798
0.00579094 -0.000134122 -0.000557029
0.00525127 -0.000536152 0.000227509
0.00546845 9.6083e-06 -1.92795e-05
0.00543392 -0.000404849 0.000129731
0.00520959 -0.000570275 0.000252749
0.00588195 -0.000589735 0.000286435
0.00547258 -0.000515108 0.00021615
0.00548828 -0.00048966 0.000217434
0.00564204 -1.33712e-05 2.5295e-06
0.00558545 0.000309114 4.07592e-05
0.00700601 -0.000774415 -0.0013924
0.00552352 -0.000509665 0.000200927
0.00555104 -0.000531545 0.000222553
0.00564341 -0.000485904 0.00019565
0.00555036 1.29956e-06 1.01741e-05
0.0059289 -0.00018632 -0.000523074
0.00562536 -0.000520504 0.000205988
0.0054152 -0.000496404 0.00019006
0.00545594 -0.000547885 0.000233268
0.00586782 0.000171206 0.000233736
0.00590511 -0.000582781 0.000239161
0.00587729 -0.000173099 -0.000636721
0.00520528 0.000317192 -0.000261814
0.00590303 -0.000593385 0.000239457
0.00607198 -0.000484099 0.000447445
0.00547369 -0.000260085 -0.00063523
0.00485353 -0.000181983 -0.000403611
0.00553101 1.523e-06 1.0053e-05
0.00604504 0.000114006 -0.000816233
0.00559266 -0.000543605 0.000223389
0.00547265 -0.000429552 0.000142637
0.00590284 -0.000586609 0.000239354
0.00590265 -0.000592499 0.000239497
0.00546301 -0.000480513 0.000181915
0.00481502 -0.000189455 -0.000717378
0.00553376 -0.000537616 0.000222086
0.00589937 -0.000587701 0.000239063
0.00586982 -0.000601688 0.000238459
0.00563388 -0.000540294 0.000228889
0.005533 -0.000536812 0.000223526
0.00587105 -0.000238782 -0.000468797
0.00590395 -0.000583685 0.000239302
0.0057284 -0.000437413 -0.000820507
0.00534804 -0.000461425 0.000172589
0.00574051 -0.000617087 0.000307971
4.16048e-15 1.05407e-14 8.29602e-14
5.30818e-23 -3.03968e-22 -5.81428e-22
0.00568859 -0.000102019 -0.000508094
0.00584771 -0.000229203 -0.000537777
0.0058067 -0.000144089 -2.57087e-05
0.00590741 -0.000139715 -0.000588414
0.00545391 -0.000449751 0.000160741
0.00557804 -0.000545282 0.00023187
0.005531 -0.000529272 0.000223798
0.00590511 -0.000579515 0.000239257
0.00579975 -0.000267268 -0.000479363
0.00588885 7.26216e-05 -0.000203576
0.00562355 4.99165e-05 1.20936e-05
0.0054633 -0.000545039 0.000266828
0.00557236 -0.000468473 0.000177035
0.00595631 -0.000519302 0.000237975
0.0059341 -0.0001555 -0.000551543
0.00527548 -0.000581876 0.000259185
0.00599329 -0.000591296 0.000286577
0.00603069 -0.000617742 0.000304751
0.00543714 -0.000520539 0.00022001
0.00603858 0.000119965 -0.000820254
0.00555019 -0.000520501 0.000225181
0.00597398 -0.000529716 0.000244965
0.00549325 -0.000535607 0.000222636
0.00587618 -0.000223315 -0.000478732
0.00557838 -0.000530285 0.000227146
0.00590268 -0.000589047 0.000239239
0.00545087 -0.000814391 -0.000946691
0.00568172 -0.000125954 -0.000402223
0.00550645 -0.000519561 0.000210899
0.00563128 -0.000501935 0.000234822
0.00535694 -0.000545862 0.000231426
0.0059993 -0.000544196 0.000254193
0.00606065 0.000131897 -0.000832109
0.00590477 -0.000579062 0.000239189
0.00564634 -0.000516574 0.000241897
0.00585389 -0.000620502 0.000237643
0.00602326 0.000120628 -0.000816863
0.00544981 -0.0015133 -0.00161541
0.00585884 -0.000236458 -0.000629291
0.0057726 7.91153e-05 0.000228221
0.00526373 -0.00040632 -0.000230527
0.00610253 0.000123374 -0.000831009
0.00568591 0.000225971 -0.000140472
0.00590757 -0.0005817 0.000239357
0.00512178 -0.000548296 -0.00116043
0.00601002 0.000168543 5.70414e-05
0.00609194 0.000121773 -0.000823618
0.00569886 0.000307658 -0.000918889
0.0059748 0.00014719 0.000229669
0.00566587 -0.000395676 -0.000824562
-3.82854e-14 8.16818e-14 2.9589e-13
0.00569972 0.000108189 -4.72665e-05
0.00554579 -0.000538564 0.000224228
0.00560934 0.000406414 0.000210732
0.00577025 0.000191932 -8.06288e-05
0.00595125 0.000150046 0.000231316
0.00584329 2.43551e-05 -0.000282685
0.00605467 -0.000717424 0.000373733
0.00567989 -0.000716369 -0.0010377
0.0057131 8.68554e-05 0.000119575
0.00595817 0.000103918 -2.47434e-05
0.0057983 3.05138e-05 2.04517e-06
0.00568544 -0.000505008 0.000234966
0.00566863 0.000188038 -8.78267e-06
0.00554401 -0.000528909 0.000221738
0.00577511 0.000167556 0.000246109
0.00557079 -0.000190482 -0.000217712
0.00557555 -0.000798544 -0.000953412
0.00588996 -3.0211e-05 0.000228736
0.00584808 7.97688e-05 -0.000198972
0.00591718 0.000112955 -0.000206678
0.00565691 0.000281395 -0.0001481
0.00564558 -0.000524507 0.000245751
0.0056608 7.76017e-05 1.6439e-05
0.00554497 -0.000531268 0.000223644
0.0056473 0.000190156 -0.000117145
0.00573126 0.000245452 -0.000203701
0.00532573 -0.000457408 0.000170126
0.00590269 -0.000584999 0.000239225
0.00539417 -0.000467985 0.000175708
0.00556746 -0.000258488 -0.000189117
0.00590472 -0.000578955 0.000239215
0.0054367 -0.000521422 -0.000428198
0.00539514 -0.000432568 0.000152035
0.00481974 -0.000336151 -0.000173825
0.00586454 0.000141109 -0.000207438
0.00592792 -0.000269668 -0.000449506
0.00557621 -0.000253845 -0.000191594
0.00522626 -0.00049662 -0.000586611
0.00574928 0.000184711 0.00022371
0.00521638 -0.000433562 -0.000853079
0.00593727 0.000176019 0.00023069
0.0056975 -0.000417598 -0.000327902
0.00548912 -0.000485606 0.000186012
0.00500043 -0.000273571 -0.000272876
0.00591798 0.000114793 0.000228951
0.00595031 0.000151344 0.000197727
0.0060691 0.000123525 -0.000822478
0.00576973 0.000136867 9.65011e-05
0.00471535 -0.00032107 -0.000388994
0.00532724 -0.000521551 0.000225601
0.00555693 -0.000538426 0.000225686
0.00592235 1.78385e-05 0.000166178
0.00533793 -0.000460196 0.000171911
0.00557221 -0.000519821 0.000224851
0.00556412 -0.000189421 -0.000217645
0.00598263 0.00030898 0.000233664
0.00562098 -0.000506239 0.000213208
0.0059303 0.000167771 0.000232379
0.00590537 -0.000580957 0.000239184
0.00573354 0.000386017 -0.000247039
0.00554271 -0.00012197 -0.000241997
0.00565621 -0.000497836 0.000197767
0.00565858 -0.000890447 -0.000799892
0.005674 1.6495e-06 -0.000238802
0.0055465 -0.000496138 0.000224108
0.00571826 0.000201196 9.14674e-06
0.0055538 -0.000255286 -0.000189715
0.00556985 -0.000222953 -0.000204185
0.00581563 7.36074e-05 -0.000241864
0.00593221 0.000179609 0.000230937
0.00557506 -0.000154827 -0.000233359
0.004897 -0.000212149 -0.000379621
0.00534864 -0.000908176 -0.00121153
0.00590767 -0.00058496 0.000239417
0.00593017 0.000177214 0.00022975
0.00593635 0.000182492 0.000230508
0.00593554 0.000181273 0.000230171
0.00566636 0.000257937 0.000845193
0.00567755 7.51242e-05 0.000232884
0.00567679 0.000231318 0.00087116
0.00530987 -0.00045217 -0.000199066
0.00549731 -0.000354711 -0.000258725
0.00563392 0.000312848 0.000805496
0.00551308 -0.00011556 -0.000240058
0.00594691 0.000131591 0.000228588
0.00595895 0.000190345 0.000232614
0.00563226 -0.000214472 -7.52638e-06
0.00595885 0.000128704 0.000235134
0.00554808 -0.000532988 0.000224764
0.0060179 -0.000210756 0.000550897
0.00558766 -0.000166505 -0.000229294
0.00556997 -0.000117977 -0.000258339
0.00609151 8.55907e-05 -0.000793909
0.00595266 0.00015435 0.000232685
0.00590247 4.47042e-05 0.000229206
0.00595886 0.000160083 0.000231872
0.00601097 -0.000206347 0.000549724
0.0057459 6.58094e-05 4.08104e-05
0.00591558 0.000147255 0.000229483
0.0059356 0.000176867 0.000230113
0.0057154 -0.000126343 -0.000243199
0.00593805 0.00018683 0.000230913
0.00557473 -0.000244715 -0.000195583
0.00572824 -0.000447093 -0.000483626
0.00592856 0.000163837 0.000231283
0.00568846 0.000309566 -0.000152161
0.00596623 0.000224207 0.00022879
0.00554936 -0.000528625 0.000224818
0.00593282 5.36208e-05 0.000251421
0.0059865 -0.000194745 0.000547967
0.00590946 0.000139 0.000229323
0.00599596 -0.000199898 0.000548737
0.00594475 0.000138652 0.000228402
0.00596979 0.000266354 0.000231524
0.00590658 0.000128567 0.000229083
0.00595353 0.000128271 0.000225562
0.00556229 -0.000133122 -0.000245171
0.00556625 -0.00023776 -0.000197724
0.00539074 -0.00034896 -0.000338624
0.00556828 -0.000145157 -0.000237293
0.00523464 0.000324542 0.00065711
0.00593474 0.000174828 0.000229757
0.00593302 0.000172857 0.000229757
0.005933 0.000175191 0.000229796
0.00593255 0.000167256 0.000229184
0.00592396 0.000152094 0.000230198
0.00541834 -0.000434162 -0.000256374
0.00537247 -0.000438274 -0.000346924
0.0059567 0.000155522 0.000232372
0.00534829 -0.000338313 -0.000330676
0.00594704 9.27374e-05 0.000245029
0.00590317 0.000119744 0.000229106
0.00564304 -0.000369918 -0.000146649
0.0059034 0.000135719 0.000229092
0.00543115 -0.000477756 0.000181821
0.00567632 -3.69673e-05 -7.36075e-05
0.00589513 -0.000229551 0.000359714
0.00557394 -0.000505891 0.000230196

VECTORS force float
1.88538e-10 -2.17868e-11 3.93427e-11
2.76438e-10 -9.42498e-11 5.99706e-11
7.57825e-11 4.05656e-10 -4.80439e-10
-4.41042e-11 -8.89074e-11 -1.96066e-11
4.44203e-11 -5.27003e-10 3.42906e-10
-4.98384e-11 1.76235e-10 -1.39701e-10
-7.19324e-11 6.14448e-11 -3.43449e-11
-6.3661e-11 -1.83762e-10 1.24842e-10
-1.56463e-11 -2.44053e-11 1.09014e-11
2.3947e-11 7.80086e-11 1.20605e-10
3.59301e-11 6.89819e-11 1.17138e-11
-5.71743e-11 -2.78269e-10 1.1547e-10
-1.61381e-10 -3.43822e-10 2.71755e-10
1.16823e-10 3.86249e-10 -3.73897e-10
-8.19245e-11 -2.65872e-11 8.07367e-12
1.26708e-10 3.85644e-10 -3.70112e-10
9.01774e-12 -2.08312e-10 8.95222e-11
-3.99746e-11 -4.42396e-11 1.61332e-11
-2.34335e-10 -3.13577e-10 2.1353e-10
-6.33667e-11 5.30288e-10 -3.18385e-10
2.16436e-11 -2.3728e-11 3.49221e-15
-1.27851e-10 -4.89824e-10 -1.05787e-09
1.9571e-11 2.40479e-11 1.71053e-13
-8.74069e-12 1.22095e-10 -1.09123e-10
4.57845e-11 -7.24737e-11 6.81172e-11
-7.3296e-11 -5.20206e-11 -9.91734e-10
-3.0451e-11 2.54382e-12 3.65415e-12
-1.43957e-11 -2.62547e-10 1.85406e-10
4.87206e-12 -2.01012e-10 1.97212e-10
-1.12125e-10 3.5203e-11 -8.25818e-12
-1.69951e-10 1.13591e-10 -7.81011e-11
-4.86791e-11 4.16756e-11 -3.8602e-11
1.63452e-10 -6.46198e-11 2.55561e-13
4.88931e-11 4.13168e-11 -4.49987e-11
1.01805e-11 1.07216e-11 1.01753e-13
-5.37626e-11 1.89911e-10 -1.3344e-10
-7.32747e-11 -9.04919e-11 8.03762e-11
-1.04322e-11 1.62218e-11 -2.7693e-13
2.68776e-10 -6.68789e-11 1.92107e-10
1.5702e-10 -4.09548e-11 2.96824e-11
-8.14095e-11 -4.6991e-11 6.78319e-11
-1.02744e-10 3.69161e-11 2.84794e-12
-2.65613e-11 -3.75943e-11 3.86592e-11
2.81768e-12 -1.38035e-11 -5.19127e-12
-6.78801e-11 -2.05523e-11 1.84302e-10
2.07452e-11 -6.58212e-11 5.20339e-11
-3.1113e-11 -5.90362e-11 -2.44042e-11
-1.10451e-10 -1.04334e-10 4.08087e-11
-9.99767e-12 -2.77128e-10 2.40486e-11
2.97122e-11 -1.26672e-11 1.47077e-11
1.98933e-11 -4.50142e-10 3.19239e-10
-3.551e-10 5.63768e-10 -4.89335e-10
5.2184e-11 2.01169e-11 -1.218e-11
-9.78272e-11 -4.29329e-11 4.57457e-11
-1.5333e-10 1.78309e-10 -1.67652e-10
9.21182e-11 -1.12398e-10 7.94291e-11
4.59111e-10 3.02687e-11 1.28993e-10
1.15128e-10 -1.88557e-10 1.12825e-10
2.15355e-10 -7.24649e-11 2.80385e-11