# vtk DataFile Version 3.0
LIGGGHTS particles timestep 52400000
ASCII
DATASET POLYDATA
POINTS 275 float
0.318735 0.0179963 0.00708026
0.318439 0.0170209 0.00760624
0.318575 0.0168847 0.0075982
0.318146 0.0159387 0.00834148
0.324429 0.0169456 0.00748438
0.318727 0.0174977 0.00733171
0.318468 0.0167465 0.00763551
0.324619 0.0178061 0.00704843
0.318418 0.0165283 0.00773218
0.318649 0.017799 0.00725801
0.312709 0.0169859 0.00735268
0.318125 0.0158912 0.00842697
0.312676 0.0176768 0.00714815
0.312874 0.0181753 0.00699561
0.318264 0.0161823 0.00792214
0.318104 0.0158437 0.00851245
0.31876 0.0176678 0.00723432
0.318614 0.0167071 0.00766614
0.312907 0.0179242 0.00706945
0.324542 0.0174343 0.00715543
0.318316 0.0162378 0.00785789
0.32458 0.0176132 0.00708401
0.31252 0.0169258 0.00737482
0.318441 0.0170211 0.00750625
0.318083 0.0157962 0.00859794
0.318343 0.0165875 0.00769841
0.318803 0.0174347 0.00734579
0.318282 0.0163218 0.0078161
0.324448 0.0170266 0.007429
0.318233 0.016128 0.00800019
0.318681 0.017329 0.00742752
0.324678 0.0180954 0.00699505
0.31857 0.0167871 0.00762539
0.318656 0.0171459 0.00748636
0.32456 0.0175167 0.00710181
0.318189 0.0160332 0.00817071
0.318674 0.0168959 0.00758393
0.318754 0.0171605 0.00746835
0.324467 0.0171077 0.0073736
0.318208 0.0160811 0.00808506
0.318606 0.0177775 0.00717046
0.324638 0.0179025 0.00703063
0.318303 0.0164112 0.00777651
0.318819 0.0175264 0.00730471
0.312767 0.0172676 0.00726767
0.324504 0.01727 0.00726279
0.318973 0.0178389 0.0071733
0.312692 0.0173315 0.0072504
0.318955 0.0177405 0.00721723
0.324485 0.0171888 0.0073182
0.378022 0.019866 0.005332
0.318743 0.0172505 0.00742588
0.318168 0.0159856 0.00825622
0.318658 0.0172455 0.00747706
0.318721 0.0180844 0.00712615
0.324523 0.0173516 0.00720826
0.312732 0.0175192 0.00719374
0.312932 0.0181878 0.00707573
0.318778 0.0177586 0.00719382
0.318568 0.0171724 0.00744709
0.318857 0.0177058 0.00722498
0.324599 0.0177096 0.00706622
0.313044 0.0181406 0.00700208
0.318833 0.0180313 0.0070724
0.31869 0.0166434 0.00770213
0.318323 0.0165064 0.00775329
0.312634 0.0170497 0.0073354
0.318457 0.0171079 0.00755928
0.312081 0.0157814 0.00859828
0.312977 0.0185755 0.00687738
0.318529 0.0170393 0.00756326
0.312799 0.0181164 0.00710036
0.312729 0.0170798 0.00732435
0.324658 0.017999 0.00701284
0.31301 0.0183938 0.00692761
0.318722 0.0170734 0.007506
0.318496 0.0169469 0.00754519
0.318619 0.0174331 0.00742616
0.318795 0.0178387 0.00725239
0.3188 0.0178506 0.00715322
0.312689 0.0168919 0.00738103
0.318544 0.0175036 0.00740113
0.31873 0.0168226 0.00762258
0.318668 0.0179163 0.00720651
0.318642 0.0175234 0.00738626
0.318523 0.0174051 0.00738602
0.312285 0.016119 0.00820418
0.318805 0.0167657 0.00765533
0.31266 0.0180208 0.00704634
0.318739 0.0175784 0.00727388
0.312681 0.0181144 0.00701806
0.0643568 0.0187248 0.00531097
0.24257 0.0191927 0.00520306
0.31297 0.0182051 0.0069846
0.312263 0.0160572 0.00827969
0.312701 0.018085 0.00711142
0.312102 0.015846 0.00852513
0.318877 0.0177953 0.00718533
0.318933 0.0176501 0.00725724
0.318493 0.0169459 0.00764515
0.318393 0.0168041 0.00760248
0.312167 0.0160352 0.00830158
0.31258 0.0176455 0.00715962
0.31262 0.0178333 0.00710296
0.318694 0.0169854 0.00754429
0.318684 0.0177241 0.00720183
0.318712 0.0174117 0.00738052
0.312807 0.0174553 0.00721101
0.318892 0.0178894 0.00714306
0.31852 0.016674 0.00767991
0.318688 0.0181511 0.00700469
0.318503 0.0173072 0.00737922
0.313065 0.0182343 0.00697378
0.31871 0.016733 0.00766237
0.318605 0.0173521 0.00736714
0.312309 0.0161824 0.00812695
0.3185 0.0165823 0.00771424
0.318669 0.0177078 0.0072993
0.312716 0.0178645 0.0070915
0.312736 0.0179583 0.0070632
0.318596 0.0169667 0.00754457
0.318701 0.0178201 0.00717545
0.318655 0.0176247 0.00724534
0.31884 0.0176158 0.00726514
0.312673 0.0172376 0.00727873
0.318565 0.0175915 0.0073566
0.318563 0.0175825 0.00725701
0.318464 0.0171269 0.00745928
0.312521 0.0165791 0.00764734
0.312887 0.0178305 0.00709775
0.312124 0.0159107 0.00845198
0.312846 0.017643 0.00715436
0.312211 0.0161587 0.00815039
0.312696 0.0177707 0.00711982
0.312539 0.0166413 0.00757112
0.318426 0.0166404 0.00768105
0.312807 0.0186773 0.00685314
0.31282 0.0183328 0.00695003
0.312561 0.0167032 0.00749561
0.312189 0.0160969 0.00822599
0.312232 0.0162211 0.00807531
0.312504 0.0165168 0.00772356
0.0219312 0.0187687 0.00551176
0.312595 0.0168619 0.0073921
0.318606 0.0170594 0.00750259
0.312702 0.018208 0.00698978
0.31284 0.0183036 0.00704353
0.312296 0.0164063 0.00784813
0.312916 0.0183627 0.006939
0.318586 0.0176878 0.00721025
0.312765 0.0184889 0.00690508
0.312892 0.0186271 0.00686538
0.312786 0.018583 0.00687856
0.312863 0.0185214 0.00689316
0.318765 0.0180956 0.0070369
0.312561 0.0175517 0.00718795
0.318813 0.0179417 0.0071121
0.312333 0.0165307 0.00769589
0.312617 0.0173952 0.00723314
0.312331 0.0162445 0.00805113
0.312681 0.0179912 0.00713958
0.312764 0.018366 0.00702666
0.318711 0.0182511 0.0069755
0.312722 0.0181787 0.00708312
0.318733 0.0179873 0.00717983
0.312866 0.0177368 0.00712605
0.313085 0.0183298 0.00694493
0.318721 0.0179026 0.0071224
0.318588 0.0172621 0.0074073
0.318668 0.0180616 0.00704443
0.306695 0.0181721 0.0069439
0.318373 0.0167196 0.00765189
0.3126 0.0177394 0.00713129
0.318783 0.0181855 0.00699686
0.312819 0.01821 0.0070719
0.312799 0.0182392 0.00697831
0.312832 0.0179881 0.00705218
0.306384 0.0167315 0.00751139
0.312748 0.0171737 0.00729601
0.312743 0.0182724 0.00705492
0.312146 0.0159731 0.00837693
0.312895 0.018269 0.00696728
0.312615 0.0169558 0.00736374
0.318645 0.0175331 0.00728679
0.312928 0.0180178 0.00704116
0.312462 0.0166799 0.00751856
0.3125 0.0168319 0.00740318
0.312392 0.0164306 0.00782384
0.312787 0.0173615 0.00723934
0.312712 0.0174253 0.00722207
0.318488 0.0168364 0.00759564
0.318413 0.0168937 0.00756275
0.312991 0.0182987 0.00695632
0.318648 0.0179716 0.00712336
0.318551 0.0171347 0.007538
0.306596 0.0176961 0.00706029
0.312373 0.0163684 0.00789985
0.318729 0.0183346 0.00692373
0.31264 0.0179271 0.00707464
0.318595 0.0166138 0.00770771
0.312757 0.018052 0.00703489
0.318778 0.0173367 0.00738894
0.312539 0.0170197 0.00734647
0.318419 0.0168803 0.00766165
0.312778 0.0180228 0.00712859
0.306615 0.0177913 0.00703701
0.306557 0.0175055 0.00710687
0.312946 0.018468 0.00690703
0.312444 0.0169883 0.00735795
0.312861 0.0183972 0.00701518
0.312744 0.0183952 0.00693322
0.318757 0.0177544 0.00729149
0.312404 0.0168008 0.00741513
0.312502 0.0172701 0.00727294
0.312521 0.0173639 0.00724461
0.306285 0.0163241 0.00778387
0.306345 0.0165685 0.00762044
0.306265 0.0162427 0.00783827
0.312669 0.0167977 0.00740947
0.312812 0.0178943 0.00708048
0.306305 0.0164055 0.00772947
0.306479 0.0171395 0.00723848
0.312351 0.016593 0.0076197
0.312657 0.017583 0.00717648
0.306422 0.0168947 0.00740228
0.312427 0.0165551 0.00767142
0.318633 0.0174426 0.00732764
0.306498 0.0172239 0.00718852
0.306674 0.0180771 0.00696715
0.306441 0.0169763 0.00734767
0.312059 0.0157167 0.00867142
0.312949 0.0181114 0.00701288
0.312575 0.0167678 0.00742051
0.312637 0.0174891 0.00720481
0.306518 0.0173143 0.00715031
0.312841 0.0184265 0.00692173
0.312598 0.0173014 0.00726147
0.312541 0.0174578 0.00721628
0.306403 0.0168131 0.00745686
0.312254 0.0162835 0.00800025
0.306716 0.018267 0.00692066
0.312778 0.0181456 0.00700661
0.312445 0.0166173 0.0075952
0.312827 0.0175492 0.00718269
0.312791 0.0178006 0.00710878
0.318484 0.0172176 0.00741901
0.312926 0.0185579 0.00696159
0.306576 0.0176008 0.00708358
0.31248 0.0167421 0.00744239
0.306537 0.0174103 0.00713016
0.312315 0.0164685 0.00777209
0.312409 0.0164928 0.00774761
0.312368 0.0166552 0.00754349
0.312751 0.017613 0.00716541
0.30673 0.0179173 0.00700433
0.306635 0.0178866 0.00701372
0.312723 0.0183016 0.0069615
0.306325 0.016487 0.00767496
0.312463 0.0170822 0.00732961
0.312558 0.0171136 0.00731813
0.312276 0.0163455 0.00792486
0.312424 0.0168945 0.00738637
0.312853 0.0180817 0.00702389
0.312353 0.0163064 0.00797561
0.312653 0.0171437 0.00730706
0.312771 0.0177069 0.00713709
0.312825 0.0185032 0.00698372
0.312578 0.0172075 0.0072898
0.312482 0.0171762 0.00730127
0.306654 0.0179819 0.00699043
0.312384 0.0167176 0.00746698
0.318625 0.0178671 0.00713067
0.306364 0.01665 0.00756591
0.30646 0.0170579 0.00729309
0.318538 0.0174664 0.00730854

VERTICES 275 550
1 0
1 1
1 2
1 3
1 4
1 5
1 6
1 7
1 8
1 9
1 10
1 11
1 12
1 13
1 14
1 15
1 16
1 17
1 18
1 19
1 20
1 21
1 22
1 23
1 24
1 25
1 26
1 27
1 28
1 29
1 30
1 31
1 32
1 33
1 34
1 35
1 36
1 37
1 38
1 39
1 40
1 41
1 42
1 43
1 44
1 45
1 46
1 47
1 48
1 49
1 50
1 51
1 52
1 53
1 54
1 55
1 56
1 57
1 58
1 59
1 60
1 61
1 62
1 63
1 64
1 65
1 66
1 67
1 68
1 69
1 70
1 71
1 72
1 73
1 74
1 75
1 76
1 77
1 78
1 79
1 80
1 81
1 82
1 83
1 84
1 85
1 86
1 87
1 88
1 89
1 90
1 91
1 92
1 93
1 94
1 95
1 96
1 97
1 98
1 99
1 100
1 101
1 102
1 103
1 104
1 105
1 106
1 107
1 108
1 109
1 110
1 111
1 112
1 113
1 114
1 115
1 116
1 117
1 118
1 119
1 120
1 121
1 122
1 123
1 124
1 125
1 126
1 127
1 128
1 129
1 130
1 131
1 132
1 133
1 134
1 135
1 136
1 137
1 138
1 139
1 140
1 141
1 142
1 143
1 144
1 145
1 146
1 147
1 148
1 149
1 150
1 151
1 152
1 153
1 154
1 155
1 156
1 157
1 158
1 159
1 160
1 161
1 162
1 163
1 164
1 165
1 166
1 167
1 168
1 169
1 170
1 171
1 172
1 173
1 174
1 175
1 176
1 177
1 178
1 179
1 180
1 181
1 182
1 183
1 184
1 185
1 186
1 187
1 188
1 189
1 190
1 191
1 192
1 193
1 194
1 195
1 196
1 197
1 198
1 199
1 200
1 201
1 202
1 203
1 204
1 205
1 206
1 207
1 208
1 209
1 210
1 211
1 212
1 213
1 214
1 215
1 216
1 217
1 218
1 219
1 220
1 221
1 222
1 223
1 224
1 225
1 226
1 227
1 228
1 229
1 230
1 231
1 232
1 233
1 234
1 235
1 236
1 237
1 238
1 239
1 240
1 241
1 242
1 243
1 244
1 245
1 246
1 247
1 248
1 249
1 250
1 251
1 252
1 253
1 254
1 255
1 256
1 257
1 258
1 259
1 260
1 261
1 262
1 263
1 264
1 265
1 266
1 267
1 268
1 269
1 270
1 271
1 272
1 273
1 274

POINT_DATA 275
SCALARS id int 1
LOOKUP_TABLE default
1
2
4
5
6
7
8
9
10
11
12
13
14
16
17
19
21
22
23
24
25
26
27
28
29
30
31
32
33
34
35
36
37
38
39
41
42
44
45
47
48
49
50
51
52
53
54
55
56
57
59
60
61
62
63
64
65
66
67
68
69
70
71
72
73
74
76
77
78
79
80
82
83
84
85
86
87
88
89
90
91
92
93
94
95
96
97
98
99
100
101
102
103
104
105
106
107
108
109
110
111
112
113
114
115
116
117
118
119
120
121
122
123
124
125
127
128
129
130
131
132
133
134
135
136
137
138
140
141
142
143
144
146
147
148
149
150
151
153
154
155
156
157
158
159
160
162
164
165
166
167
168
169
170
171
172
173
174
176
177
178
179
182
183
184
185
186
187
188
189
190
191
192
193
194
195
196
197
198
199
200
201
202
203
204
205
206
207
208
209
210
211
212
213
214
215
216
217
218
219
220
222
224
225
226
227
228
229
230
232
233
234
235
236
237
239
240
241
242
243
244
246
247
248
249
250
251
252
253
254
255
256
257
258
259
260
261
262
263
264
265
266
267
268
269
270
271
272
273
274
275
276
277
278
279
280
281
283
284
285
286
287
288
289
290
291
292
293
294
295
296
297
298
299
300

SCALARS type int 1
LOOKUP_TABLE default
1
1
1
1
1
1
1
1
1
1
1
1
1
1
1
1
1
1
1
1
1
1
1
1
1
1
1
1
1
1
1
1
1
1
1
1
1
1
1
1
1
1
1
1
1
1
1
1
1
1
1
1
1
1
1
1
1
1
1
1
1
1
1
1
1
1
1
1
1
1
1
1
1
1
1
1
1
1
1
1
1
1
1
1
1
1
1
1
1
1
1
1
1
1
1
1
1
1
1
1
1
1
1
1
1
1
1
1
1
1
1
1
1
1
1
1
1
1
1
1
1
1
1
1
1
1
1
1
1
1
1
1
1
1
1
1
1
1
1
1
1
1
1
1
1
1
1
1
1
1
1
1
1
1
1
1
1
1
1
1
1
1
1
1
1
1
1
1
1
1
1
1
1
1
1
1
1
1
1
1
1
1
1
1
1
1
1
1
1
1
1
1
1
1
1
1
1
1
1
1
1
1
1
1
1
1
1
1
1
1
1
1
1
1
1
1
1
1
1
1
1
1
1
1
1
1
1
1
1
1
1
1
1
1
1
1
1
1
1
1
1
1
1
1
1
1
1
1
1
1
1
1
1
1
1
1
1
1
1
1
1
1
1
1
1
1
1
1
1
1
1
1
1
1
1

SCALARS radius float 1
LOOKUP_TABLE default
5e-05
5e-05
5e-05
5e-05
5e-05
5e-05
5e-05
5e-05
5e-05
5e-05
5e-05
5e-05
5e-05
5e-05
5e-05
5e-05
5e-05
5e-05
5e-05
5e-05
5e-05
5e-05
5e-05
5e-05
5e-05
5e-05
5e-05
5e-05
5e-05
5e-05
5e-05
5e-05
5e-05
5e-05
5e-05
5e-05
5e-05
5e-05
5e-05
5e-05
5e-05
5e-05
5e-05
5e-05
5e-05
5e-05
5e-05
5e-05
5e-05
5e-05
5e-05
5e-05
5e-05
5e-05
5e-05
5e-05
5e-05
5e-05
5e-05
5e-05
5e-05
5e-05
5e-05
5e-05
5e-05
5e-05
5e-05
5e-05
5e-05
5e-05
5e-05
5e-05
5e-05
5e-05
5e-05
5e-05
5e-05
5e-05
5e-05
5e-05
5e-05
5e-05
5e-05
5e-05
5e-05
5e-05
5e-05
5e-05
5e-05
5e-05
5e-05
5e-05
5e-05
5e-05
5e-05
5e-05
5e-05
5e-05
5e-05
5e-05
5e-05
5e-05
5e-05
5e-05
5e-05
5e-05
5e-05
5e-05
5e-05
5e-05
5e-05
5e-05
5e-05
5e-05
5e-05
5e-05
5e-05
5e-05
5e-05
5e-05
5e-05
5e-05
5e-05
5e-05
5e-05
5e-05
5e-05
5e-05
5e-05
5e-05
5e-05
5e-05
5e-05
5e-05
5e-05
5e-05
5e-05
5e-05
5e-05
5e-05
5e-05
5e-05
5e-05
5e-05
5e-05
5e-05
5e-05
5e-05
5e-05
5e-05
5e-05
5e-05
5e-05
5e-05
5e-05
5e-05
5e-05
5e-05
5e-05
5e-05
5e-05
5e-05
5e-05
5e-05
5e-05
5e-05
5e-05
5e-05
5e-05
5e-05
5e-05
5e-05
5e-05
5e-05
5e-05
5e-05
5e-05
5e-05
5e-05
5e-05
5e-05
5e-05
5e-05
5e-05
5e-05
5e-05
5e-05
5e-05
5e-05
5e-05
5e-05
5e-05
5e-05
5e-05
5e-05
5e-05
5e-05
5e-05
5e-05
5e-05
5e-05
5e-05
5e-05
5e-05
5e-05
5e-05
5e-05
5e-05
5e-05
5e-05
5e-05
5e-05
5e-05
5e-05
5e-05
5e-05
5e-05
5e-05
5e-05
5e-05
5e-05
5e-05
5e-05
5e-05
5e-05
5e-05
5e-05
5e-05
5e-05
5e-05
5e-05
5e-05
5e-05
5e-05
5e-05
5e-05
5e-05
5e-05
5e-05
5e-05
5e-05
5e-05
5e-05
5e-05
5e-05
5e-05
5e-05
5e-05
5e-05
5e-05
5e-05
5e-05
5e-05
5e-05
5e-05
5e-05
5e-05
5e-05
5e-05
5e-05
5e-05
5e-05
5e-05
5e-05
5e-05
5e-05
5e-05
5e-05
5e-05
5e-05
5e-05
5e-05
5e-05
5e-05
5e-05

SCALARS mass float 1
LOOKUP_TABLE default
1.46608e-10
1.46608e-10
1.46608e-10
1.46608e-10
1.46608e-10
1.46608e-10
1.46608e-10
1.46608e-10
1.46608e-10
1.46608e-10
1.46608e-10
1.46608e-10
1.46608e-10
1.46608e-10
1.46608e-10
1.46608e-10
1.46608e-10
1.46608e-10
1.46608e-10
1.46608e-10
1.46608e-10
1.46608e-10
1.46608e-10
1.46608e-10
1.46608e-10
1.46608e-10
1.46608e-10
1.46608e-10
1.46608e-10
1.46608e-10
1.46608e-10
1.46608e-10
1.46608e-10
1.46608e-10
1.46608e-10
1.46608e-10
1.46608e-10
1.46608e-10
1.46608e-10
1.46608e-10
1.46608e-10
1.46608e-10
1.46608e-10
1.46608e-10
1.46608e-10
1.46608e-10
1.46608e-10
1.46608e-10
1.46608e-10
1.46608e-10
1.46608e-10
1.46608e-10
1.46608e-10
1.46608e-10
1.46608e-10
1.46608e-10
1.46608e-10
1.46608e-10
1.46608e-10
1.46608e-10
1.46608e-10
1.46608e-10
1.46608e-10
1.46608e-10
1.46608e-10
1.46608e-10
1.46608e-10
1.46608e-10
1.46608e-10
1.46608e-10
1.46608e-10
1.46608e-10
1.46608e-10
1.46608e-10
1.46608e-10
1.46608e-10
1.46608e-10
1.46608e-10
1.46608e-10
1.46608e-10
1.46608e-10
1.46608e-10
1.46608e-10
1.46608e-10
1.46608e-10
1.46608e-10
1.46608e-10
1.46608e-10
1.46608e-10
1.46608e-10
1.46608e-10
1.46608e-10
1.46608e-10
1.46608e-10
1.46608e-10
1.46608e-10
1.46608e-10
1.46608e-10
1.46608e-10
1.46608e-10
1.46608e-10
1.46608e-10
1.46608e-10
1.46608e-10
1.46608e-10
1.46608e-10
1.46608e-10
1.46608e-10
1.46608e-10
1.46608e-10
1.46608e-10
1.46608e-10
1.46608e-10
1.46608e-10
1.46608e-10
1.46608e-10
1.46608e-10
1.46608e-10
1.46608e-10
1.46608e-10
1.46608e-10
1.46608e-10
1.46608e-10
1.46608e-10
1.46608e-10
1.46608e-10
1.46608e-10
1.46608e-10
1.46608e-10
1.46608e-10
1.46608e-10
1.46608e-10
1.46608e-10
1.46608e-10
1.46608e-10
1.46608e-10
1.46608e-10
1.46608e-10
1.46608e-10
1.46608e-10
1.46608e-10
1.46608e-10
1.46608e-10
1.46608e-10
1.46608e-10
1.46608e-10
1.46608e-10
1.46608e-10
1.46608e-10
1.46608e-10
1.46608e-10
1.46608e-10
1.46608e-10
1.46608e-10
1.46608e-10
1.46608e-10
1.46608e-10
1.46608e-10
1.46608e-10
1.46608e-10
1.46608e-10
1.46608e-10
1.46608e-10
1.46608e-10
1.46608e-10
1.46608e-10
1.46608e-10
1.46608e-10
1.46608e-10
1.46608e-10
1.46608e-10
1.46608e-10
1.46608e-10
1.46608e-10
1.46608e-10
1.46608e-10
1.46608e-10
1.46608e-10
1.46608e-10
1.46608e-10
1.46608e-10
1.46608e-10
1.46608e-10
1.46608e-10
1.46608e-10
1.46608e-10
1.46608e-10
1.46608e-10
1.46608e-10
1.46608e-10
1.46608e-10
1.46608e-10
1.46608e-10
1.46608e-10
1.46608e-10
1.46608e-10
1.46608e-10
1.46608e-10
1.46608e-10
1.46608e-10
1.46608e-10
1.46608e-10
1.46608e-10
1.46608e-10
1.46608e-10
1.46608e-10
1.46608e-10
1.46608e-10
1.46608e-10
1.46608e-10
1.46608e-10
1.46608e-10
1.46608e-10
1.46608e-10
1.46608e-10
1.46608e-10
1.46608e-10
1.46608e-10
1.46608e-10
1.46608e-10
1.46608e-10
1.46608e-10
1.46608e-10
1.46608e-10
1.46608e-10
1.46608e-10
1.46608e-10
1.46608e-10
1.46608e-10
1.46608e-10
1.46608e-10
1.46608e-10
1.46608e-10
1.46608e-10
1.46608e-10
1.46608e-10
1.46608e-10
1.46608e-10
1.46608e-10
1.46608e-10
1.46608e-10
1.46608e-10
1.46608e-10
1.46608e-10
1.46608e-10
1.46608e-10
1.46608e-10
1.46608e-10
1.46608e-10
1.46608e-10
1.46608e-10
1.46608e-10
1.46608e-10
1.46608e-10
1.46608e-10
1.46608e-10
1.46608e-10
1.46608e-10
1.46608e-10
1.46608e-10
1.46608e-10
1.46608e-10
1.46608e-10
1.46608e-10
1.46608e-10
1.46608e-10
1.46608e-10
1.46608e-10
1.46608e-10
1.46608e-10
1.46608e-10
1.46608e-10
1.46608e-10
1.46608e-10
1.46608e-10

VECTORS velocity float
0.0060591 0.000102588 0.00047078
0.00545521 0.000410919 0.000264768
0.00551168 0.000263809 0.000346206
0.00591993 -0.000951998 -0.00029512
0.00542975 -0.000695516 0.00010154
0.00561834 0.000267686 0.000340712
0.00564289 0.000223722 0.000375672
0.00553006 -0.000528186 0.000389177
0.00577407 0.000198735 0.000397816
0.00560778 0.000260471 0.000312643
0.00560961 0.000329538 -0.000224226
0.00589308 -0.00094503 -0.000298321
0.0056822 0.000321091 -0.000223692
0.00618456 7.98127e-05 -0.00015745
0.00577201 0.000195841 0.000411207
0.00585329 -0.000938027 -0.000299503
0.0056171 0.000270399 0.000357246
0.00567412 0.000298207 0.000344166
0.00612933 9.58006e-05 -0.000167185
0.00549921 -0.000573112 0.000311901
0.00575468 0.000186987 0.000401115
0.00553502 -0.000530043 0.000389808
0.00560865 0.000344732 -0.000238425
0.00536875 0.000376909 0.000270357
0.00581564 -0.000929487 -0.000300033
0.00574703 0.00017803 0.000407396
0.00560795 0.000273531 0.000348324
0.00574758 0.000176904 0.000406794
0.00546539 -0.000701776 0.000103337
0.00625868 -0.000840968 -0.000126321
0.00567275 0.000276914 0.000354726
0.00549472 -0.000522456 0.000386256
0.00550014 0.000224686 0.000361796
0.0055439 0.000304551 0.000299902
0.00552613 -0.000529521 0.000388746
0.006004 -0.000974621 -0.000285008
0.00550325 0.000320683 0.000317532
0.00565085 0.000290649 0.000341522
0.00534865 -0.000678871 9.58761e-05
0.00602217 -0.000984868 -0.000280498
0.0055048 0.000158012 0.000396569
0.00551829 -0.000526421 0.000388257
0.0057606 0.000170669 0.000410144
0.00563908 0.000212445 0.000380291
0.00560699 0.000313073 -0.000219828
0.00541767 -0.000690424 9.92211e-05
0.00607245 0.000118341 0.000461655
0.00567179 0.000319289 -0.000223748
0.00598464 0.000160915 0.000434803
0.0054043 -0.000688766 9.87659e-05
-5.01967e-15 -7.41222e-15 7.69802e-14
0.00570865 0.000301275 0.000347425
0.00595085 -0.000959388 -0.000292001
0.00554393 0.000284735 0.000295391
0.00611043 0.000101661 0.000451741
0.00543266 -0.000647536 0.000170137
0.00564254 0.000324455 -0.000223791
0.00622958 0.000129037 -0.000174319
0.00612984 0.000252962 0.000411628
0.00546679 0.000233849 0.000355411
0.00610945 0.000165754 0.00044651
0.00554012 -0.00053139 0.000390473
0.00622997 4.98208e-05 -0.000154305
0.00615384 0.000117649 0.000468621
0.00572755 0.000325941 0.00033649
0.0057703 0.000171092 0.000411786
0.0056082 0.0003308 -0.000226134
0.00419598 0.000920982 -0.00325435
0.00599166 0.000552884 0.000173201
0.00582902 -0.000694467 0.00103601
0.0040322 0.000792919 -0.000390201
0.00614778 9.97818e-05 -0.000176682
0.00561697 0.00032111 -0.000221109
0.00550675 -0.000524341 0.000387282
0.00644003 -3.31915e-05 -0.000113762
0.00555366 0.000311845 0.000325248
0.00484235 0.000146764 0.000295886
0.00552523 0.000301227 0.000332136
0.00605005 0.000311698 0.000399833
0.00607294 0.000266844 0.000394289
0.00559265 0.000351539 -0.000230072
0.00560656 0.000208494 0.000358665
0.00556522 0.000354001 0.000310231
0.00587749 0.000338732 0.000492205
0.00553309 0.000261851 0.000329309
0.00561979 0.000188521 0.000428969
0.00604061 0.000307691 -1.26382e-05
0.00560583 0.000395995 0.00029353
0.00609792 0.000157415 -0.000187089
0.00562684 0.000256246 0.000356223
0.00613399 0.000147601 -0.000183327
4.28153e-15 1.04718e-14 8.29627e-14
-1.45275e-22 4.86658e-23 1.23839e-22
0.00625392 8.79892e-05 -0.000168578
0.00601506 0.000305095 -1.42364e-05
0.00612926 0.000135661 -0.000182848
0.00599651 0.000542318 0.000183234
0.00605076 0.0002411 0.000402969
0.00604098 6.14623e-06 0.00050805
0.00544492 0.000375829 0.000208661
0.00561829 0.000199952 0.000385954
0.00601893 0.000312884 -3.7322e-06
0.00566459 0.00034088 -0.000229544
0.00566759 0.000367174 -0.000238374
0.00550243 0.000321551 0.000316226
0.00555344 0.000218188 0.000382637
0.00560837 0.000272931 0.000330586
0.00566079 0.000274344 -0.000208893
0.00607793 0.000131709 0.000455825
0.005697 0.00025336 0.00036649
0.00613504 0.000111294 0.000472208
0.00547321 0.000238629 0.0003521
0.00632921 7.79736e-05 -0.000164847
0.0056578 0.000339815 0.000323915
0.00563398 0.000221067 0.000383037
0.00694682 0.00101289 -0.000831684
0.00575465 0.000243385 0.000377191
0.00558925 0.00022302 0.000416614
0.00565319 0.000313899 -0.00022086
0.00611727 0.000208394 -0.000193011
0.00392213 0.000523658 0.000100051
0.00607433 0.000223938 0.000437477
0.00559496 0.000187672 0.000385222
0.00587265 0.000184818 0.000414482
0.00566521 0.000322002 -0.000223311
0.00552363 0.000296254 0.000334955
0.0055217 0.000284167 0.000337503
0.00537751 8.07625e-05 0.000419934
0.00574883 0.000412518 -0.000160848
0.00606774 0.000120808 -0.000173509
0.00599949 0.000538757 0.000193069
0.00581183 0.000202799 -0.000191597
0.00604872 0.000325131 -2.74822e-05
0.00568109 0.000328836 -0.000226129
0.00572127 0.00041511 -0.000159254
0.00572168 0.000211973 0.000388277
0.00647401 0.000594917 0.00124698
0.00622869 0.000100772 -0.000175026
0.00564199 0.000417353 -0.000175563
0.00603225 0.000327804 -8.45171e-06
0.00605897 0.000329396 -4.57168e-05
0.00580251 0.000391121 -0.000131056
-3.82276e-14 8.16773e-14 2.95898e-13
0.00559891 0.000350262 -0.000234384
0.00477842 2.28483e-05 0.000401465
0.00617662 0.000155762 -0.000185441
0.00624216 8.37283e-05 -0.000189175
0.00600796 0.000348354 -6.72241e-05
0.00634716 0.000154767 -0.000197715
0.00550855 0.000132905 0.00040727
0.00631065 0.000212871 -5.55229e-05
0.00612744 -9.46672e-05 0.00113046
0.00640931 0.000380086 0.000503381
0.00638611 0.000126443 5.59127e-05
0.00613568 0.000108568 0.000471151
0.00566494 0.000337787 -0.000228243
0.0060631 0.000115204 0.000463181
0.00570641 0.000359403 -0.000101415
0.0056571 0.000353333 -0.000232528
0.00603851 0.00032979 -4.28299e-05
0.00608955 0.000206159 -0.000182896
0.00623979 0.000104975 -0.000188885
0.0060532 -0.000412237 -0.000983202
0.00619143 0.000150628 -0.00017994
0.006103 0.000114407 0.000476376
0.00594933 0.00015855 -0.000181045
0.00648006 -3.34414e-05 -0.000132972
0.00602212 0.000208806 0.00041086
0.00547555 0.000240718 0.000352048
0.00606314 0.000103564 0.000468582
0.00624171 9.05487e-05 -0.000154425
0.00564648 0.000165819 0.000357108
0.00567252 0.00035657 -0.000233787
0.00610566 0.000113558 0.000467678
0.00617841 8.97827e-05 -0.000181758
0.00619831 0.000113873 -0.000176303
0.00614707 0.000161026 -0.000188248
0.00574682 0.000225046 4.17217e-05
0.00558086 0.000322927 -0.000222055
0.00619847 0.000115015 -0.000198826
0.00600862 0.000288256 -1.50201e-05
0.00623339 8.04595e-05 -0.00017186
0.00560521 0.000355608 -0.000233512
0.00552248 0.000289102 0.000333907
0.00615007 8.5361e-05 -0.000164424
0.00579966 0.00034333 -7.07328e-05
0.00561944 0.000341952 -0.000223554
0.00585583 0.000351162 -7.972e-05
0.0056603 0.000294799 -0.0002153
0.00566697 0.000322576 -0.000223438
0.00552455 0.000236387 0.000357953
0.00552465 0.000214105 0.000366186
0.0063309 0.000101099 -0.00017655
0.00598699 0.000181227 0.000396688
0.00519619 0.000343431 0.000330491
0.0057199 0.000181333 -0.000164709
0.00600939 0.000336577 -5.35417e-05
0.00611473 -0.000434621 -0.000994429
0.00519587 0.000353296 -0.000222049
0.00574053 0.000287356 0.000355467
0.00614353 0.000149626 -0.000184551
0.00565626 0.000321481 0.00033149
0.00560596 0.000349944 -0.000237068
0.00557751 0.000253714 0.000356174
0.00612184 0.000110838 -0.000191649
0.00570964 0.000189267 -0.000166986
0.00572892 0.000165295 -0.000164784
0.00640419 3.23057e-06 -0.000148319
0.00561932 0.00035051 -0.000241146
0.0063601 6.62877e-05 -0.000190565
0.00626781 0.00017142 -0.000181582
0.00573253 0.000339871 0.000315815
0.00582548 0.000354799 -0.00010636
0.0056668 0.000365961 -0.000236727
0.00567851 0.000364452 -0.00023658
0.0058673 0.000242429 3.46025e-05
0.00563894 0.00024272 2.342e-05
0.00585066 0.000236757 3.76831e-05
0.00562039 0.00039874 -0.000245126
0.00612807 0.000180308 -0.000194263
0.0058721 0.000230404 4.2053e-05
0.00569783 0.000221149 4.28445e-05
0.00571285 0.000355505 -9.95886e-05
0.00567159 0.000322491 -0.000223925
0.00568781 0.000225617 4.13804e-05
0.00575297 0.000355398 -9.17877e-05
0.00550701 0.000292327 0.000331917
0.00572077 0.000207625 4.52297e-05
0.00567364 0.000208101 -0.000170569
0.00567976 0.000232718 3.79834e-05
0.0059881 0.00055767 0.000166052
0.00620083 8.65907e-05 -0.000166058
0.0056311 0.000345959 -0.000236512
0.00565739 0.000329241 -0.000225407
0.00571826 0.000202079 4.33358e-05
0.00633932 0.00018498 -0.000154359
0.00566986 0.000344555 -0.000230209
0.0056654 0.000351079 -0.000231914
0.00574033 0.000219003 4.65541e-05
0.00606743 0.000330422 -6.13727e-05
0.00627112 8.87587e-05 -0.000154782
0.00615963 0.000138377 -0.000180717
0.0057548 0.000355512 -9.24303e-05
0.00569808 0.00024536 -0.000201656
0.00598435 0.000226947 -0.000202519
0.00546564 0.000245616 0.000349546
0.00577163 -0.000552317 0.001044
0.00573107 0.000173239 -0.000160024
0.00583056 0.000348754 -7.29821e-05
0.00571368 0.000161407 -0.000165685
0.00581478 0.000360049 -9.17395e-05
0.00574455 0.00036083 -9.75999e-05
0.00575999 0.000359652 -9.30147e-05
0.00564708 0.000316869 -0.000221693
0.00569558 0.000206939 -0.000170953
0.00570011 0.000195629 -0.000168066
0.00621201 0.000158914 -0.0001932
0.00561545 0.000257368 1.44403e-05
0.00561499 0.000356486 -0.000240349
0.00562363 0.000350691 -0.000232019
0.00608857 0.000338409 -5.95458e-05
0.00563943 0.000344384 -0.000226729
0.00615922 9.16377e-05 -0.000166112
0.00607445 0.000330659 -4.02271e-05
0.00564571 0.000323307 -0.000223826
0.00576489 0.000284062 -0.000214294
0.00623161 -6.28399e-06 8.01973e-05
0.00565189 0.000348376 -0.000230015
0.00564145 0.000362845 -0.000234369
0.00568804 0.000200596 -0.000169105
0.00579459 0.000364163 -8.54977e-05
0.00600409 0.000158562 0.000468437
0.00568185 0.000234906 3.03259e-05
0.00570522 0.00022731 4.2979e-05
0.00547301 0.000162753 0.000388243

VECTORS force float
2.07132e-11 -1.00538e-10 5.14828e-11
-2.86155e-10 -4.13381e-11 -1.42875e-10
6.35618e-11 3.33667e-12 2.90571e-11
7.39364e-11 -4.61202e-11 6.09237e-11
-2.73392e-11 -2.49035e-11 1.74492e-11
-8.59778e-11 -1.88793e-10 1.05643e-10
-1.75024e-10 3.22372e-11 -2.21453e-11
-1.24116e-11 -1.7285e-11 3.16528e-12
1.17521e-10 2.13045e-10 -1.26254e-10
3.11554e-10 -6.06524e-12 -3.20668e-10
5.63936e-11 2.21995e-10 -1.09315e-10
3.11741e-11 2.46085e-11 -5.02318e-11
-2.56621e-10 2.79656e-10 -6.99509e-11
-1.50936e-10 -1.09468e-11 1.37623e-10
-4.05089e-13 -1.0166e-10 2.17752e-10
-1.32794e-10 8.81449e-11 -1.18124e-10
-2.62478e-10 -1.2268e-10 9.26508e-11
1.41902e-10 1.01527e-10 -2.87709e-11
1.93728e-10 -4.63988e-10 1.30378e-10
1.54379e-11 6.22514e-12 -2.23854e-11
-3.65907e-12 -1.33051e-10 7.17924e-11
1.76583e-12 -1.29997e-11 1.87261e-12
1.0372e-11 -1.18144e-10 5.77733e-11
-8.82524e-10 -6.03742e-10 6.44789e-10
7.6244e-11 6.90268e-11 -1.32868e-10
8.89161e-11 2.36442e-10 -8.01114e-11
-2.44959e-10 -4.753e-10 1.8511e-10
7.24627e-11 1.10084e-11 5.94965e-12
1.38435e-11 -5.77178e-12 4.71347e-12
-6.02091e-11 -7.87598e-12 2.82123e-10
8.27359e-11 -1.54862e-10 6.72804e-11
2.30171e-12 1.79793e-11 -3.43909e-12
-6.63858e-11 5.38381e-11 -3.86392e-11
3.70471e-11 -8.01696e-12 -2.59484e-10
-1.55898e-11 1.83449e-12 -4.98704e-12
-2.81314e-11 -1.30541e-10 2.22513e-10
-2.48024e-11 -5.90304e-11 -1.90059e-11
1.80797e-10 -9.82585e-11 1.54138e-10
-1.14958e-11 1.37716e-11 -8.09948e-12
1.48189e-11 -1.0796e-10 2.19521e-10
4.13098e-10 -5.24462e-11 1.56131e-11
2.67383e-12 -7.91653e-13 -5.06569e-13
2.99539e-10 6.13901e-11 1.00836e-11
5.28191e-10 -7.2621e-10 3.46392e-10
1.26992e-11 -2.47601e-11 4.68735e-12
1.64617e-11 2.50056e-11 -2.13629e-11
3.50514e-11 1.85733e-10 -8.34783e-11
-7.18597e-11 -7.89813e-11 1.22438e-11
3.5194e-10 -1.87479e-10 9.76289e-11
-6.35874e-12 2.32411e-11 -1.64709e-11
4.65289e-25 -7.75482e-25 0.0
3.36072e-10 -8.92627e-11 3.07298e-11
-1.54738e-10 -7.98631e-11 1.58439e-10
2.83476e-10 -9.92162e-11 -1.09428e-10
-4.41164e-11 -2.46847e-11 -2.07797e-12
4.0511e-12 1.3255e-11 -2.99904e-11
-3.36159e-10 -6.45854e-11 2.9552e-11
1.96829e-10 -1.72705e-10 -1.08221e-10
1.22766e-09 -4.5862e-10 2.49013e-10
-2.49951e-10 2.15386e-11 8.95615e-11
2.06828e-09 -4.55788e-10 5.44342e-10
2.47867e-11 -4.21479e-11 1.09493e-11
1.42266e-10 -4.08088e-10 1.03679e-10
-5.49015e-12 -7.01284e-11 2.74677e-11
-8.36163e-11 1.05388e-10 -6.30694e-11
2.0089e-10 1.55459e-10 -2.17157e-11
-7.67457e-12 8.34301e-11 -3.69882e-11
0.0 0.0 -1.43822e-09
-2.11481e-11 3.11559e-11 -5.5408e-12
-2.73684e-10 2.31093e-10 -2.11355e-10
1.56781e-09 1.37713e-09 2.74955e-09
-4.34426e-10 -1.30743e-10 -3.22862e-11
3.17569e-11 1.92057e-10 -5.72824e-11
1.39509e-12 7.20382e-12 -1.01157e-12
4.6782e-11 -2.04881e-10 -5.45753e-11
-1.10209e-10 3.57164e-11 5.51903e-11
-5.16445e-09 -4.59047e-10 4.31226e-09
-2.34712e-12 -7.55198e-11 1.46091e-11
2.69996e-11 -8.86689e-11 4.40694e-11
-5.17471e-11 -8.25145e-11 2.83102e-11
3.47652e-10 4.63461e-11 -6.30666e-11
-1.93451e-11 -4.04519e-11 1.70339e-11
6.31847e-11 -1.27331e-11 -1.65257e-11
-8.79018e-11 -9.92978e-11 2.27104e-10
-2.66163e-11 -1.54987e-12 5.82093e-11
1.27234e-10 1.81074e-10 -5.14429e-11
3.09524e-11 1.96597e-11 -4.2018e-11
-9.48407e-11 -2.00561e-10 8.85792e-11
5.38624e-11 -3.05919e-10 1.50204e-10
-3.79755e-10 -1.14488e-10 3.23791e-11
1.83621e-11 -1.03933e-10 5.68955e-11
1.9329e-21 -9.75039e-22 2.15067e-23
0.0 0.0 0.0
-1.9914e-10 -2.73092e-10 5.21052e-11
7.50023e-11 -3.50933e-11 4.31366e-12
-7.7676e-11 -4.8265e-10 -2.86313e-11
4.74507e-12 4.43803e-12 2.09297e-11
1.59108e-10 -7.13091e-11 7.10962e-11
1.5193e-09 -1.44582e-09 7.94155e-10
-6.78366e-11 -8.76581e-10 -5.29436e-11
-3.01416e-10 -1.46293e-10 7.30634e-11