# vtk DataFile Version 3.0
LIGGGHTS particles timestep 6600000
ASCII
DATASET POLYDATA
POINTS 287 float
0.0513525 0.016453 0.00768442
0.0517291 0.0173463 0.00736034
0.0450724 0.0159048 0.00840491
0.0516742 0.0179216 0.00712751
0.0512381 0.0163666 0.0077889
0.0572836 0.0166386 0.00779752
0.0514226 0.0171555 0.00741102
0.0511305 0.0160402 0.0081521
0.0575367 0.0176774 0.00720074
0.051361 0.0168809 0.00751497
0.0517878 0.0176224 0.00725552
0.0452713 0.0165346 0.00776311
0.0512162 0.0163014 0.00786151
0.0449945 0.0157446 0.00876212
0.0515578 0.0173709 0.00733657
0.0449754 0.0157077 0.00885307
0.0513406 0.0167926 0.00755709
0.057422 0.0171231 0.00731183
0.0511949 0.0162361 0.00793416
0.0513351 0.016385 0.00775964
0.0514633 0.0173386 0.00734165
0.0454512 0.0169473 0.00764598
0.0574782 0.0173832 0.00720719
0.0514021 0.017064 0.00744567
0.057369 0.0169146 0.00752092
0.0453519 0.01691 0.00765094
0.0516549 0.0178299 0.00716233
0.0511734 0.0161708 0.0080068
0.0516912 0.0175874 0.00726156
0.0514432 0.017247 0.00737637
0.0515379 0.0172791 0.00737139
0.0573052 0.0167076 0.0077284
0.0513201 0.0167012 0.00759229
0.0515177 0.0171874 0.00740613
0.0575755 0.0178735 0.00719645
0.0514766 0.0170043 0.00747544
0.0516324 0.0173113 0.00736631
0.0574979 0.0174812 0.00720504
0.0512792 0.0165228 0.00767286
0.051483 0.0174303 0.00730689
0.0516522 0.0174033 0.0073314
0.0573267 0.0167765 0.00765929
0.0574042 0.0170536 0.0073815
0.0512997 0.0166126 0.00763386
0.0515218 0.0176137 0.00723725
0.0573872 0.0169841 0.00745129
0.0515797 0.0178889 0.00713277
0.0515604 0.0177972 0.00716759
0.0452512 0.0164408 0.00779115
0.0574415 0.0171924 0.00724238
0.0513144 0.0163164 0.0078297
0.0450329 0.0158195 0.00858073
0.0514972 0.0170958 0.00744079
0.0573483 0.0168455 0.00759016
0.0515492 0.0169519 0.00751987
0.051569 0.0170451 0.00748836
0.0512591 0.0164386 0.00772279
0.0516718 0.0174954 0.00729645
0.0516161 0.0176464 0.00723198
0.0574583 0.0172852 0.00720934
0.0453709 0.0165719 0.00775816
0.0453102 0.0162904 0.00784225
0.0517684 0.0175307 0.00729036
0.0517299 0.0177708 0.00719191
0.0514151 0.0167297 0.00757941
0.0575175 0.0175793 0.00720289
0.0450141 0.0157815 0.00867129
0.0517106 0.0176791 0.00722673
0.0513815 0.0169725 0.00748032
0.0515775 0.0174627 0.00730172
0.0456091 0.017601 0.00745185
0.0517913 0.0184675 0.0069251
0.0450899 0.0159282 0.00830926
0.0452915 0.0166285 0.00773506
0.0516378 0.018164 0.0070283
0.045231 0.016347 0.00781944
0.0453721 0.0170039 0.0076229
0.0453581 0.0161271 0.00788303
0.057556 0.0177755 0.0071986
0.0451907 0.0159571 0.00828594
0.0516355 0.0177381 0.00719716
0.0515297 0.0168589 0.00755102
0.0516938 0.0184295 0.0069275
0.0516571 0.0182558 0.00699347
0.0517091 0.0172541 0.0073953
0.0453116 0.0167223 0.00770702
0.0517687 0.0179543 0.00712224
0.0517535 0.01829 0.00699398
0.0518295 0.0182295 0.00701795
0.0516184 0.0180723 0.00706312
0.051788 0.018046 0.00708742
0.0451907 0.0161592 0.00787527
0.0517132 0.0185212 0.00689267
0.0453505 0.0164781 0.00778618
0.0516627 0.0170708 0.00746426
0.0452894 0.0161996 0.00787852
0.0643568 0.0187248 0.00531097
0.24257 0.0191927 0.00520306
0.0456137 0.0172594 0.00755921
0.0451473 0.0160388 0.0080364
0.0456879 0.017197 0.00758377
0.0451093 0.0159651 0.00821839
0.0514561 0.0169128 0.00751009
0.051541 0.0177054 0.00720242
0.0518631 0.0179869 0.00711699
0.0517527 0.0187168 0.00686797
0.0452109 0.0162531 0.00784723
0.045927 0.0174415 0.00751926
0.0455465 0.0169791 0.00764247
0.0515969 0.0175547 0.00726682
0.0514356 0.0168213 0.00754475
0.0512925 0.0162512 0.00790233
0.045052 0.0158552 0.00848928
0.0515894 0.0171383 0.00745567
0.051152 0.0161055 0.00807945
0.0511091 0.0159749 0.00822475
0.0518825 0.0180787 0.00708216
0.0452217 0.0160308 0.00810269
0.0517129 0.018105 0.00705786
0.0512712 0.0161859 0.00797499
0.0515025 0.017522 0.00727209
0.0451691 0.0160807 0.00793323
0.0515991 0.0179806 0.00709794
0.0516766 0.0183538 0.00699052
0.0454714 0.0170412 0.00761794
0.0453304 0.0163844 0.00781463
0.0516936 0.0180133 0.00709268
0.0514492 0.0164884 0.00767796
0.0516123 0.0172194 0.00740117
0.0512497 0.0161206 0.00804763
0.0451668 0.0159197 0.00837556
0.0517723 0.0188148 0.00686406
0.0513944 0.016638 0.00761411
0.0519041 0.01817 0.00704768
0.045204 0.0159949 0.00819434
0.0455686 0.0170726 0.00761468
0.0451284 0.016002 0.00812741
0.0455258 0.0168854 0.00767044
0.045385 0.0162257 0.00785741
0.045148 0.0158829 0.00846659
0.0454354 0.0172849 0.00753914
0.0518112 0.0185575 0.0068863
0.0454252 0.0164157 0.00780931
0.0457613 0.0171335 0.00760793
0.0452642 0.0161163 0.0079278
0.0455391 0.0173213 0.00753475
0.045632 0.0176943 0.00742417
0.0455163 0.017228 0.00756245
0.0219312 0.0187687 0.00551176
0.0456374 0.0173526 0.00753162
0.0517493 0.0178625 0.00715707
0.0455299 0.0176576 0.00742876
0.0455628 0.0174145 0.00750717
0.0457851 0.018009 0.00733596
0.0458312 0.0174135 0.00752566
0.0514117 0.0163326 0.00779684
0.0454052 0.0163207 0.00783336
0.0457116 0.0172902 0.00755619
0.0459491 0.01754 0.00749387
0.0457579 0.0174767 0.00750087
0.0514323 0.0164063 0.00773248
0.0458082 0.0173202 0.00755333
0.0518035 0.0172865 0.00739012
0.0456837 0.0175391 0.00747629
0.0394895 0.0174489 0.00719717
0.0454931 0.0171347 0.0075901
0.0455705 0.0178452 0.00737274
0.045904 0.0173472 0.00754347
0.0458753 0.0176028 0.00746931
0.0454836 0.0174711 0.00748408
0.0513733 0.0165466 0.00764868
0.0457348 0.0173834 0.00752854
0.0516894 0.017905 0.00722495
0.0454124 0.0171916 0.00756681
0.04546 0.0173779 0.00751167
0.0516432 0.0169789 0.00749912
0.051796 0.0183732 0.00695819
0.0516889 0.017162 0.00743021
0.0395916 0.0174897 0.00718737
0.0517935 0.0189069 0.00689661
0.0456432 0.0170102 0.00763929
0.0515101 0.0167658 0.00758205
0.0454656 0.0166038 0.00775459
0.0458542 0.0175068 0.00749798
0.0449562 0.0156708 0.00894403
0.0395478 0.0177279 0.00710381
0.0453318 0.0168162 0.00767898
0.045586 0.0175078 0.00747952
0.0454311 0.0168535 0.00767402
0.0458923 0.018058 0.00732785
0.0456656 0.0171036 0.00761153
0.051749 0.0174387 0.00732526
0.045411 0.0167597 0.00770206
0.0457456 0.0178211 0.00739214
0.0457067 0.0176325 0.0074486
0.0452399 0.0160667 0.00801117
0.0456606 0.0174458 0.00750397
0.0454454 0.0165099 0.00778263
0.0514753 0.0173183 0.00743882
0.0518074 0.0181377 0.00705259
0.0457808 0.01757 0.00747319
0.0516241 0.0168871 0.00753402
0.0517323 0.0181967 0.00702303
0.0395451 0.0172942 0.00725252
0.0455529 0.0177509 0.00740108
0.0514707 0.0165798 0.00764346
0.0456698 0.0178825 0.00736778
0.051733 0.0186192 0.00687749
0.0455068 0.0175643 0.00745642
0.039466 0.0169271 0.0073877
0.0514909 0.0166714 0.00760875
0.0455913 0.017166 0.00758695
0.0453922 0.0170978 0.00759486
0.0519187 0.0178361 0.00718143
0.045785 0.0172269 0.00758098
0.0396216 0.0172343 0.00727623
0.039509 0.0175419 0.00716605
0.0454017 0.0169958 0.00771807
0.0458254 0.0181973 0.00727966
0.0394701 0.0173558 0.00722829
0.0453456 0.0160723 0.00796576
0.0454856 0.0166977 0.00772653
0.0518853 0.0184369 0.00694022
0.0458669 0.0183865 0.00722322
0.0458463 0.0182921 0.00725139
0.0459397 0.0182604 0.00726765
0.0392902 0.0165499 0.00758136
0.0393514 0.0168118 0.00744855
0.0392698 0.0164626 0.00762563
0.0456006 0.0168229 0.00769508
0.0453908 0.0166658 0.0077301
0.0393106 0.0166372 0.00753709
0.0394304 0.0171699 0.00729044
0.0457652 0.0179151 0.00736403
0.045935 0.0178859 0.00738467
0.0396037 0.0178073 0.00707889
0.0456501 0.0177886 0.00739587
0.0518437 0.0178952 0.00715183
0.0396035 0.0179928 0.00701524
0.0395252 0.0172011 0.00728366
0.0394104 0.017077 0.0073215
0.0451265 0.0158457 0.00855692
0.0457264 0.0177271 0.0074203
0.0456309 0.0181271 0.00728851
0.0456898 0.0179763 0.00733973
0.039623 0.0180858 0.00698413
0.0455057 0.0167915 0.00769848
0.0457899 0.0184457 0.00719944
0.0459163 0.0181597 0.00729761
0.0393907 0.0169872 0.00736088
0.0456511 0.0182211 0.00726043
0.0395284 0.0176349 0.00713493
0.0457389 0.0170388 0.00763218
0.0457299 0.0181641 0.00728363
0.0453478 0.0168868 0.00774812
0.0456108 0.0180331 0.00731659
0.0518244 0.0178034 0.00718666
0.0458013 0.0176654 0.00744469
0.0397107 0.0180415 0.00700294
0.0457117 0.0185034 0.00717606
0.0396426 0.0181788 0.00695302
0.0457099 0.0180702 0.00731167
0.0455906 0.0179391 0.00734469
0.0457318 0.0185973 0.00714802
0.0458403 0.0178538 0.00738832
0.0394504 0.0172629 0.00725938
0.0395647 0.0173875 0.00722133
0.0455806 0.0167284 0.00772104
0.0394878 0.0170182 0.00734488
0.039331 0.0167245 0.00749282
0.0457698 0.0183518 0.00722749
0.0457496 0.018258 0.00725553
0.0456714 0.0183157 0.00723214
0.0458052 0.0181029 0.00730789
0.0456915 0.0184096 0.0072041
0.0455606 0.0166333 0.00774469
0.0456215 0.0169166 0.00766714
0.0458603 0.0179477 0.00736024
0.0453243 0.0160409 0.00805829
0.0458209 0.0177598 0.00741644
0.0457519 0.0186911 0.00711997
0.0396475 0.0177228 0.00710968
0.0459624 0.0183609 0.0072377
0.0516048 0.0167953 0.00756886
0.0393711 0.0168993 0.00740423
0.0395839 0.0178997 0.00704635
0.0515739 0.0173558 0.00743411

VERTICES 287 574
1 0
1 1
1 2
1 3
1 4
1 5
1 6
1 7
1 8
1 9
1 10
1 11
1 12
1 13
1 14
1 15
1 16
1 17
1 18
1 19
1 20
1 21
1 22
1 23
1 24
1 25
1 26
1 27
1 28
1 29
1 30
1 31
1 32
1 33
1 34
1 35
1 36
1 37
1 38
1 39
1 40
1 41
1 42
1 43
1 44
1 45
1 46
1 47
1 48
1 49
1 50
1 51
1 52
1 53
1 54
1 55
1 56
1 57
1 58
1 59
1 60
1 61
1 62
1 63
1 64
1 65
1 66
1 67
1 68
1 69
1 70
1 71
1 72
1 73
1 74
1 75
1 76
1 77
1 78
1 79
1 80
1 81
1 82
1 83
1 84
1 85
1 86
1 87
1 88
1 89
1 90
1 91
1 92
1 93
1 94
1 95
1 96
1 97
1 98
1 99
1 100
1 101
1 102
1 103
1 104
1 105
1 106
1 107
1 108
1 109
1 110
1 111
1 112
1 113
1 114
1 115
1 116
1 117
1 118
1 119
1 120
1 121
1 122
1 123
1 124
1 125
1 126
1 127
1 128
1 129
1 130
1 131
1 132
1 133
1 134
1 135
1 136
1 137
1 138
1 139
1 140
1 141
1 142
1 143
1 144
1 145
1 146
1 147
1 148
1 149
1 150
1 151
1 152
1 153
1 154
1 155
1 156
1 157
1 158
1 159
1 160
1 161
1 162
1 163
1 164
1 165
1 166
1 167
1 168
1 169
1 170
1 171
1 172
1 173
1 174
1 175
1 176
1 177
1 178
1 179
1 180
1 181
1 182
1 183
1 184
1 185
1 186
1 187
1 188
1 189
1 190
1 191
1 192
1 193
1 194
1 195
1 196
1 197
1 198
1 199
1 200
1 201
1 202
1 203
1 204
1 205
1 206
1 207
1 208
1 209
1 210
1 211
1 212
1 213
1 214
1 215
1 216
1 217
1 218
1 219
1 220
1 221
1 222
1 223
1 224
1 225
1 226
1 227
1 228
1 229
1 230
1 231
1 232
1 233
1 234
1 235
1 236
1 237
1 238
1 239
1 240
1 241
1 242
1 243
1 244
1 245
1 246
1 247
1 248
1 249
1 250
1 251
1 252
1 253
1 254
1 255
1 256
1 257
1 258
1 259
1 260
1 261
1 262
1 263
1 264
1 265
1 266
1 267
1 268
1 269
1 270
1 271
1 272
1 273
1 274
1 275
1 276
1 277
1 278
1 279
1 280
1 281
1 282
1 283
1 284
1 285
1 286

POINT_DATA 287
SCALARS id int 1
LOOKUP_TABLE default
1
2
3
4
5
6
7
8
9
10
11
12
13
14
15
16
17
18
19
21
22
23
24
25
26
27
28
29
30
31
32
33
34
35
36
37
38
39
41
42
44
45
46
47
48
49
50
51
52
53
54
55
56
57
59
60
61
62
63
64
65
66
67
68
69
70
71
72
73
74
76
77
78
79
80
81
82
83
84
85
86
87
88
89
90
91
92
93
94
95
96
97
98
99
100
101
102
103
104
105
106
107
108
109
110
111
112
113
114
115
116
117
118
119
120
121
122
123
124
125
126
127
128
129
130
131
132
133
134
135
136
137
138
140
141
142
143
144
146
147
148
149
150
151
153
154
155
156
157
158
159
160
162
164
165
166
167
168
169
170
171
172
173
174
175
176
177
178
179
181
182
183
184
185
186
187
188
189
190
191
192
193
194
195
196
197
198
199
200
201
202
203
204
205
206
207
208
209
210
211
212
213
214
215
216
217
218
219
220
221
222
223
224
225
226
227
228
229
230
231
232
233
234
235
236
237
239
240
241
242
243
244
246
247
248
249
250
251
252
253
254
255
256
257
258
259
260
261
262
263
264
265
266
267
268
269
270
271
272
273
274
275
276
277
278
279
280
281
282
283
284
285
286
287
288
289
290
291
292
293
294
295
296
297
298
299
300

SCALARS type int 1
LOOKUP_TABLE default
1
1
1
1
1
1
1
1
1
1
1
1
1
1
1
1
1
1
1
1
1
1
1
1
1
1
1
1
1
1
1
1
1
1
1
1
1
1
1
1
1
1
1
1
1
1
1
1
1
1
1
1
1
1
1
1
1
1
1
1
1
1
1
1
1
1
1
1
1
1
1
1
1
1
1
1
1
1
1
1
1
1
1
1
1
1
1
1
1
1
1
1
1
1
1
1
1
1
1
1
1
1
1
1
1
1
1
1
1
1
1
1
1
1
1
1
1
1
1
1
1
1
1
1
1
1
1
1
1
1
1
1
1
1
1
1
1
1
1
1
1
1
1
1
1
1
1
1
1
1
1
1
1
1
1
1
1
1
1
1
1
1
1
1
1
1
1
1
1
1
1
1
1
1
1
1
1
1
1
1
1
1
1
1
1
1
1
1
1
1
1
1
1
1
1
1
1
1
1
1
1
1
1
1
1
1
1
1
1
1
1
1
1
1
1
1
1
1
1
1
1
1
1
1
1
1
1
1
1
1
1
1
1
1
1
1
1
1
1
1
1
1
1
1
1
1
1
1
1
1
1
1
1
1
1
1
1
1
1
1
1
1
1
1
1
1
1
1
1
1
1
1
1
1
1
1
1
1
1
1
1
1
1
1
1
1
1

SCALARS radius float 1
LOOKUP_TABLE default
5e-05
5e-05
5e-05
5e-05
5e-05
5e-05
5e-05
5e-05
5e-05
5e-05
5e-05
5e-05
5e-05
5e-05
5e-05
5e-05
5e-05
5e-05
5e-05
5e-05
5e-05
5e-05
5e-05
5e-05
5e-05
5e-05
5e-05
5e-05
5e-05
5e-05
5e-05
5e-05
5e-05
5e-05
5e-05
5e-05
5e-05
5e-05
5e-05
5e-05
5e-05
5e-05
5e-05
5e-05
5e-05
5e-05
5e-05
5e-05
5e-05
5e-05
5e-05
5e-05
5e-05
5e-05
5e-05
5e-05
5e-05
5e-05
5e-05
5e-05
5e-05
5e-05
5e-05
5e-05
5e-05
5e-05
5e-05
5e-05
5e-05
5e-05
5e-05
5e-05
5e-05
5e-05
5e-05
5e-05
5e-05
5e-05
5e-05
5e-05
5e-05
5e-05
5e-05
5e-05
5e-05
5e-05
5e-05
5e-05
5e-05
5e-05
5e-05
5e-05
5e-05
5e-05
5e-05
5e-05
5e-05
5e-05
5e-05
5e-05
5e-05
5e-05
5e-05
5e-05
5e-05
5e-05
5e-05
5e-05
5e-05
5e-05
5e-05
5e-05
5e-05
5e-05
5e-05
5e-05
5e-05
5e-05
5e-05
5e-05
5e-05
5e-05
5e-05
5e-05
5e-05
5e-05
5e-05
5e-05
5e-05
5e-05
5e-05
5e-05
5e-05
5e-05
5e-05
5e-05
5e-05
5e-05
5e-05
5e-05
5e-05
5e-05
5e-05
5e-05
5e-05
5e-05
5e-05
5e-05
5e-05
5e-05
5e-05
5e-05
5e-05
5e-05
5e-05
5e-05
5e-05
5e-05
5e-05
5e-05
5e-05
5e-05
5e-05
5e-05
5e-05
5e-05
5e-05
5e-05
5e-05
5e-05
5e-05
5e-05
5e-05
5e-05
5e-05
5e-05
5e-05
5e-05
5e-05
5e-05
5e-05
5e-05
5e-05
5e-05
5e-05
5e-05
5e-05
5e-05
5e-05
5e-05
5e-05
5e-05
5e-05
5e-05
5e-05
5e-05
5e-05
5e-05
5e-05
5e-05
5e-05
5e-05
5e-05
5e-05
5e-05
5e-05
5e-05
5e-05
5e-05
5e-05
5e-05
5e-05
5e-05
5e-05
5e-05
5e-05
5e-05
5e-05
5e-05
5e-05
5e-05
5e-05
5e-05
5e-05
5e-05
5e-05
5e-05
5e-05
5e-05
5e-05
5e-05
5e-05
5e-05
5e-05
5e-05
5e-05
5e-05
5e-05
5e-05
5e-05
5e-05
5e-05
5e-05
5e-05
5e-05
5e-05
5e-05
5e-05
5e-05
5e-05
5e-05
5e-05
5e-05
5e-05
5e-05
5e-05
5e-05
5e-05
5e-05
5e-05
5e-05
5e-05
5e-05
5e-05
5e-05
5e-05
5e-05
5e-05
5e-05
5e-05
5e-05
5e-05
5e-05
5e-05
5e-05
5e-05
5e-05
5e-05
5e-05
5e-05
5e-05
5e-05
5e-05
5e-05
5e-05
5e-05
5e-05

SCALARS mass float 1
LOOKUP_TABLE default
1.46608e-10
1.46608e-10
1.46608e-10
1.46608e-10
1.46608e-10
1.46608e-10
1.46608e-10
1.46608e-10
1.46608e-10
1.46608e-10
1.46608e-10
1.46608e-10
1.46608e-10
1.46608e-10
1.46608e-10
1.46608e-10
1.46608e-10
1.46608e-10
1.46608e-10
1.46608e-10
1.46608e-10
1.46608e-10
1.46608e-10
1.46608e-10
1.46608e-10
1.46608e-10
1.46608e-10
1.46608e-10
1.46608e-10
1.46608e-10
1.46608e-10
1.46608e-10
1.46608e-10
1.46608e-10
1.46608e-10
1.46608e-10
1.46608e-10
1.46608e-10
1.46608e-10
1.46608e-10
1.46608e-10
1.46608e-10
1.46608e-10
1.46608e-10
1.46608e-10
1.46608e-10
1.46608e-10
1.46608e-10
1.46608e-10
1.46608e-10
1.46608e-10
1.46608e-10
1.46608e-10
1.46608e-10
1.46608e-10
1.46608e-10
1.46608e-10
1.46608e-10
1.46608e-10
1.46608e-10
1.46608e-10
1.46608e-10
1.46608e-10
1.46608e-10
1.46608e-10
1.46608e-10
1.46608e-10
1.46608e-10
1.46608e-10
1.46608e-10
1.46608e-10
1.46608e-10
1.46608e-10
1.46608e-10
1.46608e-10
1.46608e-10
1.46608e-10
1.46608e-10
1.46608e-10
1.46608e-10
1.46608e-10
1.46608e-10
1.46608e-10
1.46608e-10
1.46608e-10
1.46608e-10
1.46608e-10
1.46608e-10
1.46608e-10
1.46608e-10
1.46608e-10
1.46608e-10
1.46608e-10
1.46608e-10
1.46608e-10
1.46608e-10
1.46608e-10
1.46608e-10
1.46608e-10
1.46608e-10
1.46608e-10
1.46608e-10
1.46608e-10
1.46608e-10
1.46608e-10
1.46608e-10
1.46608e-10
1.46608e-10
1.46608e-10
1.46608e-10
1.46608e-10
1.46608e-10
1.46608e-10
1.46608e-10
1.46608e-10
1.46608e-10
1.46608e-10
1.46608e-10
1.46608e-10
1.46608e-10
1.46608e-10
1.46608e-10
1.46608e-10
1.46608e-10
1.46608e-10
1.46608e-10
1.46608e-10
1.46608e-10
1.46608e-10
1.46608e-10
1.46608e-10
1.46608e-10
1.46608e-10
1.46608e-10
1.46608e-10
1.46608e-10
1.46608e-10
1.46608e-10
1.46608e-10
1.46608e-10
1.46608e-10
1.46608e-10
1.46608e-10
1.46608e-10
1.46608e-10
1.46608e-10
1.46608e-10
1.46608e-10
1.46608e-10
1.46608e-10
1.46608e-10
1.46608e-10
1.46608e-10
1.46608e-10
1.46608e-10
1.46608e-10
1.46608e-10
1.46608e-10
1.46608e-10
1.46608e-10
1.46608e-10
1.46608e-10
1.46608e-10
1.46608e-10
1.46608e-10
1.46608e-10
1.46608e-10
1.46608e-10
1.46608e-10
1.46608e-10
1.46608e-10
1.46608e-10
1.46608e-10
1.46608e-10
1.46608e-10
1.46608e-10
1.46608e-10
1.46608e-10
1.46608e-10
1.46608e-10
1.46608e-10
1.46608e-10
1.46608e-10
1.46608e-10
1.46608e-10
1.46608e-10
1.46608e-10
1.46608e-10
1.46608e-10
1.46608e-10
1.46608e-10
1.46608e-10
1.46608e-10
1.46608e-10
1.46608e-10
1.46608e-10
1.46608e-10
1.46608e-10
1.46608e-10
1.46608e-10
1.46608e-10
1.46608e-10
1.46608e-10
1.46608e-10
1.46608e-10
1.46608e-10
1.46608e-10
1.46608e-10
1.46608e-10
1.46608e-10
1.46608e-10
1.46608e-10
1.46608e-10
1.46608e-10
1.46608e-10
1.46608e-10
1.46608e-10
1.46608e-10
1.46608e-10
1.46608e-10
1.46608e-10
1.46608e-10
1.46608e-10
1.46608e-10
1.46608e-10
1.46608e-10
1.46608e-10
1.46608e-10
1.46608e-10
1.46608e-10
1.46608e-10
1.46608e-10
1.46608e-10
1.46608e-10
1.46608e-10
1.46608e-10
1.46608e-10
1.46608e-10
1.46608e-10
1.46608e-10
1.46608e-10
1.46608e-10
1.46608e-10
1.46608e-10
1.46608e-10
1.46608e-10
1.46608e-10
1.46608e-10
1.46608e-10
1.46608e-10
1.46608e-10
1.46608e-10
1.46608e-10
1.46608e-10
1.46608e-10
1.46608e-10
1.46608e-10
1.46608e-10
1.46608e-10
1.46608e-10
1.46608e-10
1.46608e-10
1.46608e-10
1.46608e-10
1.46608e-10
1.46608e-10
1.46608e-10
1.46608e-10
1.46608e-10
1.46608e-10
1.46608e-10
1.46608e-10
1.46608e-10
1.46608e-10
1.46608e-10
1.46608e-10
1.46608e-10
1.46608e-10
1.46608e-10
1.46608e-10
1.46608e-10
1.46608e-10
1.46608e-10
1.46608e-10
1.46608e-10
1.46608e-10
1.46608e-10

VECTORS velocity float
0.00608087 -0.00248301 -0.00548061
0.0055324 -7.22615e-05 0.00048053
0.00586919 0.000740488 0.00129874
0.00545337 -0.000249214 0.000544616
0.00586993 -0.000744292 -0.000152001
0.00601219 0.000109478 -1.22715e-05
0.0056314 -0.000280845 0.000570753
0.00599337 -0.00078621 -0.000136097
0.00553482 0.000177904 -6.42374e-05
0.00562384 -0.00027087 0.000560614
0.00537917 -0.000275847 0.000548841
0.00603256 -9.95494e-05 0.000436497
0.00607209 -0.000796263 -0.000136926
0.00569233 0.000712297 0.00121184
0.00550713 -0.000199595 0.000529022
0.00557179 0.000644111 0.00131539
0.00562423 -0.000266922 0.000553741
0.00576941 0.000141984 -4.95476e-05
0.00605808 -0.00079445 -0.000135913
0.00599372 -0.000891313 -0.00144075
0.00552983 -0.000260274 0.000556268
0.00579071 -0.000190516 0.000451855
0.00569406 0.000148797 -6.54104e-05
0.00563 -0.000280853 0.000570105
0.00588171 0.000130529 -3.61312e-05
0.00581391 -0.000129861 0.000430729
0.00542558 -0.000252483 0.000542948
0.00602761 -0.000794101 -0.000130128
0.00534168 -0.000294608 0.00055272
0.00565016 -0.00028543 0.000574651
0.00556689 -0.000222413 0.000544739
0.00602972 0.000105538 -9.17257e-06
0.00561006 -0.000260455 0.000554844
0.00564129 -0.00030471 0.000583106
0.00546977 0.000187799 -6.38405e-05
0.00562357 -0.000279539 0.000572329
0.00551768 -0.000172693 0.000520566
0.0056677 0.000153525 -6.49264e-05
0.00551314 -0.00037984 0.00025924
0.00547331 -0.000238962 0.000542405
0.00549729 -8.44524e-05 0.000482475
0.00605297 0.000103842 -6.85898e-06
0.00582534 0.000134748 -4.23641e-05
0.00558511 -0.000271975 0.000537223
0.00534138 -0.000221693 0.000523444
0.00585934 0.000132258 -3.8817e-05
0.00544303 -0.00023538 0.000537346
0.00541981 -0.000236985 0.000536195
0.00607059 -0.000124234 0.000465848
0.00570435 0.000149335 -6.01731e-05
0.00627762 -0.000437396 -0.000552758
0.00583288 0.000761245 0.00128991
0.00562347 -0.000280122 0.000569445
0.00606736 0.00010538 -6.99262e-06
0.00560584 -0.000288344 0.000581966
0.00561164 -0.00028301 0.000568333
0.0055293 -0.00058246 -7.69275e-05
0.00544199 -0.000113742 0.000489452
0.00536946 -0.000251669 0.000537705
0.00570626 0.000146953 -6.47929e-05
0.00596178 -0.00015184 0.000459228
0.00611207 -0.000261149 0.000468217
0.00531738 -0.000334455 0.000567101
0.0053915 -0.000291915 0.000555816
0.00562081 -0.000270342 0.000567059
0.00561458 0.000163642 -6.46524e-05
0.00581816 0.000744787 0.00126632
0.00536555 -0.000289462 0.000553036
0.00562816 -0.000275964 0.000567328
0.00544511 -0.000137331 0.000499322
0.00619514 -0.000246921 0.000512508
0.00552573 -0.000287766 0.000565041
0.0059757 0.000716542 0.00134483
0.00600037 -3.04462e-05 0.000403702
0.00551502 -0.000240631 0.000546819
0.00610625 -0.000176672 0.000533358
0.00575235 -0.000253105 0.000473864
0.00592389 -6.32322e-05 -0.00057341
0.00548733 0.00018589 -6.39349e-05
0.00613688 0.000704012 0.00146157
0.00538487 -0.000263678 0.000544333
0.00560268 -0.000284218 0.000605891
0.00556687 -0.00021757 0.000536514
0.00553115 -0.000246754 0.000545117
0.00552922 -0.000145763 0.000509572
0.00591211 -9.76814e-05 0.000429932
0.00548378 -0.000270519 0.000554844
0.00549948 -0.00029184 0.000525599
0.00548185 -0.000317718 0.000574395
0.00549068 -0.000234837 0.000543085
0.00548303 -0.000318989 0.000574886
0.00610726 -0.00049139 0.000573666
0.00559396 -0.00023599 0.000551223
0.00601853 -0.000185906 0.00041342
0.00563172 -0.000290508 0.000578728
0.00610362 -0.000280939 0.000574481
4.29542e-15 1.04574e-14 8.29637e-14
-1.23235e-22 -1.27651e-22 1.23839e-22
0.00627841 -0.000362206 0.00053638
0.00621067 0.0007904 0.00135897
0.00628188 -0.000345519 0.000540776
0.00619864 0.000739603 0.00139982
0.00562781 -0.000272355 0.000573672
0.0053924 -0.000234975 0.000532348
0.00547713 -0.000347678 0.00058528
0.00586252 -0.000342687 0.000299872
0.00614618 -0.000269153 0.000434139
0.00597821 -3.02602e-05 -0.000571849
0.00496102 -6.14732e-05 0.000355139
0.00531424 -0.00024607 0.000530911
0.00562498 -0.000269078 0.000570608
0.0064357 -0.000518193 -0.000488833
0.00587103 0.000752106 0.00128096
0.00563386 -0.000301732 0.000586516
0.00601956 -0.000790285 -0.000135084
0.00595303 -0.000785246 -0.000127986
0.0055217 -0.000301829 0.000571415
0.00619099 0.000712051 0.00139125
0.00549486 -0.000276289 0.000559368
0.00642675 -0.000514637 -0.00049123
0.00529489 -0.000206807 0.000514062
0.00666126 0.000767715 0.00234517
0.00546512 -0.000231756 0.000538828
0.00551741 -0.000258051 0.000462304
0.00576904 -0.000211288 0.000458562
0.00607143 -0.000262081 0.000331306
0.00548 -0.000260335 0.000551175
0.00557022 -0.000304724 0.000577701
0.00561008 -0.000172464 0.000526987
0.00637893 -0.000521103 -0.000476138
0.00595069 0.000690835 0.00143438
0.00614231 -0.000386534 0.000272151
0.00561371 -0.000251819 0.00055852
0.00547428 -0.000331333 0.00058034
0.00621947 0.000721457 0.00145454
0.00512529 -0.000108937 0.000380828
0.00626791 0.00077236 0.0013973
0.00578397 -0.000185387 0.000451175
0.00604446 -0.000634085 -0.000464366
0.00574867 0.000652009 0.00140451
0.00727209 -0.000630648 0.000700073
0.00556354 -0.000292168 0.000573114
0.00609922 -0.000505769 -0.00054506
0.00635291 -0.000670772 -0.000407685
0.00610213 -0.0003731 0.000544643
0.00624269 -0.00040957 0.000550761
0.00516357 -0.000163215 0.000395746
0.00614277 -0.000360336 0.000528093
-3.82567e-14 8.16913e-14 2.9589e-13
0.00617612 -0.000373891 0.000534166
0.00543086 -0.000269535 0.000550652
0.00621808 -0.000122821 0.000456264
0.00614402 -0.000387741 0.000535317
0.00558477 -0.000146967 0.000425
0.00620372 -0.000433636 0.00055369
0.00542879 -0.000763247 -6.35298e-05
0.00592819 -0.00053671 -0.000496257
0.00620113 -0.00035221 0.000529535
0.00528819 -0.000172133 3.18314e-05
0.00615989 -0.00040567 0.000567369
0.00539272 -0.000557736 0.000151472
0.00614264 -0.000402936 0.000552788
0.00562565 3.98922e-06 0.000457997
0.00619388 -0.000297833 0.00052085
0.00543726 -0.000375408 0.000353801
0.00590295 -0.00026926 0.000484579
0.00539119 -0.00010824 0.000399194
0.00626043 -0.000704233 -0.000430384
0.00510898 -0.000201507 0.000422008
0.00606601 -0.000592442 0.00060572
0.00557119 -0.000287703 0.000568265
0.00617276 -0.000377707 0.000528764
0.0054445 -0.00030194 0.000537252
0.00530114 -0.000259676 0.000440658
0.00625253 -0.00045021 0.0005622
0.0055905 -0.000292196 0.000569938
0.00551365 -0.000288924 0.000563347
0.00565982 -0.000114773 0.00050816
0.00546599 -0.00035572 0.000347744
0.00611346 -0.000370842 0.000272852
0.00572886 -0.000146636 0.000434278
0.00559472 -0.000434832 0.0001448
0.00596247 -0.000127352 0.000451739
0.00524394 -8.27966e-05 0.000381237
0.0054937 0.000585629 0.00145852
0.00549 -0.000336103 0.000342199
0.00584888 -0.000147803 0.000440634
0.0060462 -0.000322434 0.000511654
0.00580955 -0.000160119 0.0004435
0.0053949 -0.000429566 0.000499825
0.0060331 -0.000252841 0.00048698
0.00546005 -0.000105036 0.000487842
0.00585143 -0.000141111 0.000441196
0.00520477 -0.000170379 0.000406593
0.005156 -0.000119912 0.000388491
0.00620617 0.000786861 0.00132158
0.00613016 -0.000359747 0.000530357
0.00593873 -0.000151737 0.000455249
0.00553851 -0.000281715 0.000556995
0.00551486 -0.000303377 0.000572963
0.00521627 -6.42583e-05 0.000372048
0.00560259 -0.000300892 0.000576423
0.00552556 -0.000280159 0.00055835
0.00556312 -0.000217695 0.000304235
0.00515654 -0.000213959 0.000406
0.00547678 -0.000290045 0.000563958
0.00536901 -6.97197e-05 0.000384962
0.00558178 -0.000277247 0.000493122
0.00606756 -0.00046789 0.000555966
0.00545619 -0.000479054 9.24985e-05
0.00558537 -0.000309494 0.000581204
0.00593895 -0.000288595 0.000492305
0.00565171 -0.000334926 0.000487541
0.00546132 -0.000320388 0.000573089
0.00623353 -0.000295456 0.000517065
0.00563869 -0.000149107 0.000284191
0.00544667 -0.00037348 0.000352838
0.00576095 -0.000256952 0.000475394
0.00555758 -0.00027893 0.000463042
0.00545603 -0.000345534 0.000344708
0.00656132 -0.000629554 -0.00075502
0.00592185 -0.000129627 0.000444789
0.00552891 -0.000273454 0.000559746
0.00564827 -0.000247334 0.000460471
0.00564022 -0.000277991 0.000470226
0.00562174 -0.000312438 0.000477608
0.00570097 -0.000513896 0.000101114
0.005749 -0.000523966 0.000104979
0.00568862 -0.000510157 9.93934e-05
0.00579005 -7.2142e-05 0.000416178
0.00590139 -0.000136759 0.000441285
0.00572051 -0.000516992 0.000102047
0.00556773 -0.000381974 0.000361914
0.00543284 -0.000158321 0.000417888
0.00539284 -0.000290383 0.000456179
0.00553309 -0.000330615 0.000342416
0.00510675 3.75971e-05 0.00033408
0.0054812 -0.000287647 0.000562311
0.00555449 -0.000332601 0.000343926
0.00562513 -0.000391597 0.000367429
0.00555174 -0.000386734 0.000359361
0.00556003 0.000630155 0.0013707
0.00509408 -0.000166433 0.000393781
0.00548008 -0.00033439 0.000467042
0.00549703 -0.000177425 0.000427868
0.005568 -0.000337478 0.00034559
0.00583114 -0.000129647 0.000432931
0.00568291 -0.000274326 0.000469469
0.00554655 -0.000285216 0.000464998
0.00546156 -0.000447557 0.000160051
0.00555315 -0.000246955 0.000449778
0.0054776 -0.00034927 0.000346918
0.00601339 -0.000567367 -0.000506866
0.00557315 -0.00019573 0.000437283
0.00584786 -0.00032702 0.000377062
0.00554233 -3.21184e-05 0.000392017
0.00541197 -0.000286461 0.000556016
0.00511771 -0.00015587 0.000391498
0.00556953 -0.000335679 0.000345263
0.00569264 -0.000323441 0.000485956
0.00557778 -0.00034474 0.000348729
0.00560338 -0.000167072 0.000430687
0.00546479 5.95971e-05 0.000347964
0.00574291 -0.000315283 0.000487247
0.0053225 -0.000307543 0.000456515
0.00560216 -0.000370532 0.000358875
0.005486 -0.000348794 0.000346356
0.00607425 -0.000661488 -0.00167271
0.00558006 -0.000356201 0.000350858
0.00572805 -0.000520371 0.000103517
0.00564872 -0.000287299 0.000470927
0.00558424 -0.000251977 0.000455443
0.00559547 -0.000293344 0.000468777
0.00547034 -0.000292834 0.000461898
0.00565253 -0.000310841 0.000478235
0.00593508 -0.00034247 -0.000561797
0.00570186 -9.63332e-05 0.000412822
0.00545793 -0.000232021 0.000441613
0.00683427 -0.000887375 -0.00072043
0.00501601 -0.000247308 0.000416686
0.00580794 -0.000278467 0.000477396
0.00549292 -0.000350619 0.000347294
0.0056354 -0.00018812 0.00043995
0.005599 -0.000302331 0.000593019
0.00549685 -0.000481303 9.10696e-05
0.00554752 -0.00032702 0.000341104
0.00549344 -0.000206988 0.000525978

VECTORS force float
0.0 0.0 -1.43822e-09
3.54507e-11 -5.17818e-11 2.11293e-11
7.59969e-10 9.16058e-10 -5.62578e-10
-1.48373e-10 -5.09045e-11 -2.51948e-11
2.2099e-11 -7.25664e-11 4.91419e-11
-1.69513e-11 -3.08362e-11 4.39504e-11
-2.65272e-11 9.41115e-11 -3.50201e-11
-3.04359e-10 1.09447e-10 -6.26916e-11
7.53914e-11 3.53498e-11 -9.39133e-14
2.78123e-11 -4.35279e-11 7.21226e-11
-1.19013e-10 1.82246e-10 -8.52361e-11
-1.09156e-10 -9.86434e-11 7.81541e-11
1.83578e-11 -8.55528e-11 1.01377e-10
-3.56024e-10 -7.20256e-10 1.16811e-09
7.53206e-11 9.33703e-12 5.57132e-12
-4.15979e-10 -1.6343e-09 3.37755e-09
2.76155e-11 -8.63955e-11 -1.24946e-10
-5.62468e-11 2.27129e-11 -2.23916e-11
-8.97529e-11 -1.26133e-10 1.47564e-10
-2.09527e-10 4.99135e-13 4.89409e-10
6.91661e-11 1.74648e-10 -5.90993e-11
-8.82496e-11 3.12457e-10 -8.99286e-11
4.44735e-13 1.5698e-11 1.74293e-13
-1.99765e-11 9.59144e-12 1.9854e-11
6.02594e-11 -1.36404e-11 2.11602e-11
-1.10236e-10 4.01205e-10 -1.72625e-10
-1.10224e-10 -9.23595e-11 2.14728e-11
5.06069e-11 -9.85693e-11 7.59116e-11
-2.37874e-10 9.26139e-11 -5.78565e-11
1.80545e-11 1.36937e-10 -4.58208e-11
1.95208e-11 6.95694e-11 -3.00349e-11
4.3388e-11 -3.18334e-11 6.69442e-11
-1.10759e-11 -1.30451e-10 -2.34406e-10
-6.70244e-11 6.04235e-11 -1.12106e-11
1.38583e-12 6.25162e-11 1.01693e-12
6.52495e-11 4.01877e-11 -5.268e-11
4.01364e-11 -1.03082e-10 5.32689e-11
7.65747e-12 1.28978e-11 2.13343e-12
-5.1813e-11 3.2672e-12 3.83481e-11
1.77968e-10 1.13544e-10 -1.74486e-11
1.69109e-10 -9.26627e-11 4.84528e-11
-1.55915e-10 -3.10502e-11 3.83736e-11
2.45145e-11 1.24724e-11 -2.03892e-12
-5.04636e-11 -3.99439e-11 -1.87954e-11
-9.59026e-11 -4.20223e-11 -6.06113e-13
1.3938e-10 -1.86851e-11 2.36188e-11
1.20761e-11 -1.85418e-10 6.48403e-11
-3.08229e-11 -1.05012e-10 4.53009e-11
1.89952e-10 1.34155e-11 5.03239e-11
-1.38732e-11 2.19359e-11 -1.97698e-11
7.59089e-11 -1.14918e-11 -2.19353e-11
5.87729e-10 -2.6474e-10 -1.23235e-09
-3.83645e-11 1.03697e-10 -2.50627e-11
1.74951e-11 4.4253e-12 2.7522e-11
1.56109e-10 7.05503e-11 -3.43881e-11
-4.06426e-11 1.04191e-10 1.13174e-12
-5.45117e-12 -6.56536e-11 -3.44004e-11
1.61207e-11 3.96765e-10 -1.60755e-10
-6.17176e-11 -1.49474e-10 1.03823e-10
5.34601e-12 2.3607e-11 -2.57953e-12