# vtk DataFile Version 3.0
LIGGGHTS particles timestep 12600000
ASCII
DATASET POLYDATA
POINTS 287 float
0.0863159 0.0163922 0.00768061
0.0868768 0.0176654 0.00718776
0.0801138 0.0159349 0.00803067
0.0866528 0.0178479 0.00710364
0.0861845 0.0162333 0.00784766
0.0922966 0.0167467 0.00762557
0.086363 0.0169998 0.00743567
0.0860892 0.0159137 0.00822019
0.0925681 0.0178373 0.00700071
0.0862999 0.0167271 0.00754375
0.0868025 0.0177268 0.00715952
0.0802898 0.0167005 0.00758995
0.0861649 0.0161694 0.00792204
0.0800394 0.0157052 0.00834762
0.0865246 0.0173028 0.00731961
0.0800206 0.0156525 0.00843051
0.0862807 0.0166359 0.00757999
0.0924417 0.0173167 0.00724686
0.0861462 0.0161054 0.0079966
0.0862988 0.0163202 0.00774784
0.0864064 0.0171813 0.00736377
0.0804286 0.0169033 0.0074894
0.0925031 0.0175546 0.0070747
0.0863414 0.016909 0.00747161
0.0923803 0.0170788 0.00741905
0.0804463 0.017233 0.00742914
0.0866331 0.0177568 0.00713981
0.086127 0.0160415 0.00807111
0.0865896 0.0175751 0.00721176
0.0863847 0.0170905 0.00739972
0.086503 0.017212 0.00735556
0.0923176 0.0168303 0.00757478
0.0862615 0.0165444 0.00761632
0.0864814 0.0171213 0.00739151
0.0926075 0.018029 0.00695956
0.086438 0.0169397 0.0074634
0.086621 0.0173333 0.0073115
0.0925248 0.0176464 0.00704159
0.0862224 0.0163724 0.00771005
0.086428 0.0172721 0.00732782
0.0866427 0.017424 0.00727555
0.0923386 0.0169138 0.00752399
0.0924215 0.0172373 0.00730428
0.086242 0.0164561 0.0076589
0.0864714 0.0174538 0.00725587
0.0924008 0.0171581 0.00736165
0.0865364 0.0177267 0.00714939
0.0865147 0.0176353 0.00718397
0.08027 0.0166156 0.00763884
0.0924622 0.017396 0.00718946
0.0862796 0.0162534 0.00781975
0.0800772 0.0158105 0.00818187
0.0864597 0.0170305 0.00742746
0.0923596 0.0169974 0.0074732
0.0865344 0.0169702 0.0074553
0.0865561 0.0170609 0.00741935
0.0862028 0.0162972 0.00777298
0.0866643 0.0175148 0.00723961
0.0865889 0.0177553 0.00722952
0.0924827 0.0174752 0.00713207
0.0805238 0.0175767 0.0072665
0.0805433 0.0172566 0.00742529
0.0867818 0.0176353 0.00719581
0.0867077 0.0176963 0.00716775
0.0863755 0.016667 0.00757153
0.0925465 0.0177418 0.00702116
0.0800577 0.0157579 0.00826464
0.086686 0.0176055 0.00720366
0.0863197 0.0168182 0.00750759
0.0865462 0.0173936 0.00728366
0.0805797 0.0175241 0.00720241
0.086751 0.0184201 0.00689036
0.0801332 0.0160199 0.00798172
0.0804058 0.0169814 0.00754753
0.086599 0.0179902 0.00704925
0.0803373 0.0169197 0.0075861
0.0803542 0.0169616 0.00745661
0.0804609 0.0166708 0.00760943
0.0925878 0.0179332 0.00698014
0.0802474 0.0161328 0.00791697
0.0866112 0.0176659 0.00717581
0.0865128 0.0168794 0.00749125
0.0866568 0.0182664 0.00694741
0.0866192 0.0180821 0.00701536
0.0868554 0.0175738 0.00722407
0.0803111 0.0167852 0.0075412
0.0867563 0.0178768 0.00709646
0.0867397 0.0182136 0.00696633
0.0868153 0.0181521 0.00698853
0.0865798 0.0179156 0.00711307
0.0867766 0.0179679 0.00706033
0.0802307 0.0164449 0.00773707
0.0866757 0.0183585 0.00691343
0.0805363 0.0173471 0.00738337
0.0867167 0.0173629 0.00730368
0.080364 0.0168293 0.00761961
0.0643568 0.0187248 0.00531097
0.24257 0.0191927 0.00520306
0.0805896 0.0171997 0.00735732
0.0801916 0.0162749 0.00783492
0.0806641 0.0171416 0.00739005
0.0801526 0.0161049 0.00793278
0.0864164 0.016849 0.00749935
0.086493 0.0175445 0.00721992
0.086871 0.0179998 0.00705153
0.0867239 0.0185249 0.00695335
0.0802503 0.0165301 0.00768804
0.080932 0.0175982 0.00718784
0.0806778 0.0174642 0.00733097
0.0865679 0.0174843 0.00724771
0.0863957 0.016758 0.00753542
0.0862613 0.0161894 0.00789437
0.0800948 0.0158657 0.00810039
0.0865778 0.0171517 0.00738341
0.0861081 0.0159776 0.00814565
0.0860699 0.0158498 0.00829468
0.0868969 0.0180994 0.00701219
0.0802863 0.0163029 0.00781911
0.086702 0.0180307 0.0070379
0.0862417 0.0161256 0.00796882
0.0864497 0.0173629 0.00729185
0.0802111 0.0163599 0.007786
0.0865581 0.017818 0.00711486
0.086638 0.0181742 0.00698138
0.0804505 0.0169922 0.00744808
0.080627 0.0173895 0.007374
0.0866817 0.0179383 0.00707088
0.0864315 0.0165154 0.00763566
0.0865994 0.0172425 0.00734745
0.0862229 0.0160617 0.00804338
0.080228 0.0160478 0.0079659
0.086727 0.0186046 0.00689302
0.086356 0.0165758 0.00760773
0.0868349 0.0182451 0.00695421
0.0802668 0.0162178 0.00786803
0.0805466 0.0170226 0.00743968
0.080172 0.0161899 0.00788384
0.0806987 0.0175528 0.00728966
0.0805561 0.0166984 0.00759614
0.0802085 0.0159628 0.00801483
0.080419 0.0172273 0.00733305
0.0867556 0.018515 0.00685904
0.0803654 0.016643 0.00762406
0.0807609 0.0171717 0.00738182
0.0803254 0.0164728 0.00772127
0.0805152 0.0172579 0.00732455
0.0806026 0.017617 0.00716518
0.0804937 0.0171693 0.00736573
0.0219312 0.0187687 0.00551176
0.080612 0.0172883 0.00731678
0.0867279 0.0177876 0.00713149
0.0805052 0.0175815 0.00716835
0.0805368 0.0173464 0.00728338
0.0807016 0.0179223 0.00701717
0.0808248 0.0174383 0.0072578
0.0863926 0.0163375 0.00771759
0.0803451 0.0165578 0.00767236
0.0806866 0.01723 0.007349
0.0808829 0.017734 0.00711937
0.080729 0.0174074 0.00726646
0.0864116 0.0164243 0.00767182
0.0808032 0.017349 0.00729932
0.0869045 0.0177549 0.00715263
0.0806543 0.0174653 0.00723379
0.074392 0.0170865 0.00730633
0.0804721 0.0170808 0.00740691
0.0805484 0.0177585 0.00708601
0.0809209 0.017489 0.00723962
0.0808498 0.0176472 0.00715895
0.0804621 0.0174044 0.0072507
0.0863367 0.0164844 0.00764404
0.0807074 0.0173188 0.00730764
0.0866966 0.0179152 0.00716701
0.0803974 0.0171386 0.00737427
0.0804405 0.0173158 0.00729188
0.086695 0.0172722 0.00733963
0.086759 0.0183064 0.00693212
0.0867383 0.0174537 0.00726773
0.0745011 0.0171941 0.00722417
0.0867467 0.0186961 0.00692829
0.0806211 0.0169645 0.00747241
0.0864912 0.0167886 0.0075272
0.080482 0.0167572 0.00756383
0.0808395 0.017539 0.00721032
0.0800015 0.0155999 0.00851336
0.0744566 0.0173661 0.0072287
0.0803746 0.0170701 0.00751341
0.0805583 0.0174349 0.00724221
0.0803326 0.0168728 0.00749791
0.0808702 0.0179592 0.00701029
0.0806426 0.017053 0.00743123
0.08676 0.0175445 0.00723178
0.0804072 0.0168148 0.00753059
0.0806933 0.0177476 0.0071006
0.0806756 0.0175543 0.00719238
0.0803059 0.0163878 0.00777018
0.0806328 0.0173768 0.00727498
0.0803861 0.0167289 0.00757723
0.0865249 0.0174752 0.00733754
0.0867964 0.0180603 0.00702362
0.0807499 0.017496 0.0072252
0.0866733 0.0171814 0.00737558
0.0867207 0.0181215 0.0070005
0.0744704 0.0170386 0.00734587
0.0805268 0.01767 0.00712718
0.0864511 0.0166065 0.00759948
0.0806368 0.0178138 0.00715064
0.0866931 0.0184329 0.00697787
0.0804837 0.0174929 0.00720953
0.0744092 0.0168115 0.00753231
0.0864707 0.0166977 0.00756329
0.0805681 0.0171111 0.0073985
0.0803758 0.0170501 0.00741544
0.0869457 0.0179395 0.00707938
0.0807816 0.0172604 0.00734051
0.074601 0.0171996 0.0072245
0.0744137 0.0171769 0.00726963
0.0805037 0.0174876 0.00730736
0.0808168 0.018119 0.00696514
0.0743731 0.0170109 0.00736904
0.0804403 0.0165852 0.00765685
0.080525 0.0169341 0.00748085
0.0868398 0.0184631 0.00687404
0.0808542 0.0183141 0.00697931
0.080836 0.0182168 0.00695719
0.0809089 0.0181388 0.00693158
0.0741889 0.0163175 0.00791081
0.0742489 0.0165523 0.00773397
0.0741693 0.0162392 0.00796977
0.0805034 0.0168455 0.00752202
0.0804262 0.0171439 0.00746988
0.0742086 0.0163958 0.00785184
0.0743318 0.016866 0.00750023
0.080667 0.0178339 0.00705743
0.0809233 0.0178174 0.00708188
0.074478 0.0174637 0.00723135
0.0806124 0.0177168 0.00715056
0.0868512 0.0179074 0.00708823
0.0745179 0.0176596 0.00723666
0.0744513 0.016963 0.00740868
0.0743108 0.0167857 0.00755603
0.0801888 0.0158814 0.00806941
0.0806922 0.0176569 0.00714412
0.080605 0.0180193 0.00696428
0.0806377 0.0179239 0.00709406
0.0745387 0.0177574 0.00723387
0.0807842 0.0176916 0.00722002
0.0807801 0.0183776 0.00700149
0.0808875 0.0180484 0.00696854
0.0742904 0.0167095 0.00761749
0.0806252 0.0181165 0.00695176
0.0744354 0.0172686 0.00723624
0.0807378 0.0170827 0.00742313
0.0807163 0.0180899 0.00698337
0.080439 0.0173253 0.00739141
0.0805882 0.0179301 0.00700612
0.0868307 0.0178161 0.00712444
0.080765 0.0175971 0.00717757
0.0745803 0.0179529 0.00722811
0.0806887 0.0184153 0.00701895
0.0745595 0.0178552 0.00723099
0.0806762 0.0180167 0.0070384
0.0805699 0.0178547 0.00706927
0.080709 0.0185108 0.00704044
0.0807668 0.0178373 0.00706223
0.0743513 0.0169358 0.00743139
0.0744903 0.0171141 0.00728321
0.0807163 0.0169941 0.00746434
0.0744296 0.0168879 0.00747103
0.0742285 0.0164741 0.00779289
0.0807594 0.0182822 0.00698007
0.0807416 0.0181849 0.00696505
0.0806455 0.018212 0.00697324
0.0807808 0.0180136 0.00697837
0.0806684 0.0183198 0.00699748
0.0805779 0.0167874 0.00755477
0.0805995 0.0168759 0.0075136
0.080852 0.0178874 0.00707746
0.0804203 0.0165003 0.00770573
0.0807849 0.0177142 0.0071226
0.0807293 0.0186064 0.00706192
0.0745726 0.0174959 0.00723238
0.0808 0.0184732 0.00702303
0.0866516 0.0170904 0.00741161
0.0742697 0.0166314 0.00767646
0.0744974 0.0175618 0.00723401
0.0867476 0.0177739 0.00722855

VERTICES 287 574
1 0
1 1
1 2
1 3
1 4
1 5
1 6
1 7
1 8
1 9
1 10
1 11
1 12
1 13
1 14
1 15
1 16
1 17
1 18
1 19
1 20
1 21
1 22
1 23
1 24
1 25
1 26
1 27
1 28
1 29
1 30
1 31
1 32
1 33
1 34
1 35
1 36
1 37
1 38
1 39
1 40
1 41
1 42
1 43
1 44
1 45
1 46
1 47
1 48
1 49
1 50
1 51
1 52
1 53
1 54
1 55
1 56
1 57
1 58
1 59
1 60
1 61
1 62
1 63
1 64
1 65
1 66
1 67
1 68
1 69
1 70
1 71
1 72
1 73
1 74
1 75
1 76
1 77
1 78
1 79
1 80
1 81
1 82
1 83
1 84
1 85
1 86
1 87
1 88
1 89
1 90
1 91
1 92
1 93
1 94
1 95
1 96
1 97
1 98
1 99
1 100
1 101
1 102
1 103
1 104
1 105
1 106
1 107
1 108
1 109
1 110
1 111
1 112
1 113
1 114
1 115
1 116
1 117
1 118
1 119
1 120
1 121
1 122
1 123
1 124
1 125
1 126
1 127
1 128
1 129
1 130
1 131
1 132
1 133
1 134
1 135
1 136
1 137
1 138
1 139
1 140
1 141
1 142
1 143
1 144
1 145
1 146
1 147
1 148
1 149
1 150
1 151
1 152
1 153
1 154
1 155
1 156
1 157
1 158
1 159
1 160
1 161
1 162
1 163
1 164
1 165
1 166
1 167
1 168
1 169
1 170
1 171
1 172
1 173
1 174
1 175
1 176
1 177
1 178
1 179
1 180
1 181
1 182
1 183
1 184
1 185
1 186
1 187
1 188
1 189
1 190
1 191
1 192
1 193
1 194
1 195
1 196
1 197
1 198
1 199
1 200
1 201
1 202
1 203
1 204
1 205
1 206
1 207
1 208
1 209
1 210
1 211
1 212
1 213
1 214
1 215
1 216
1 217
1 218
1 219
1 220
1 221
1 222
1 223
1 224
1 225
1 226
1 227
1 228
1 229
1 230
1 231
1 232
1 233
1 234
1 235
1 236
1 237
1 238
1 239
1 240
1 241
1 242
1 243
1 244
1 245
1 246
1 247
1 248
1 249
1 250
1 251
1 252
1 253
1 254
1 255
1 256
1 257
1 258
1 259
1 260
1 261
1 262
1 263
1 264
1 265
1 266
1 267
1 268
1 269
1 270
1 271
1 272
1 273
1 274
1 275
1 276
1 277
1 278
1 279
1 280
1 281
1 282
1 283
1 284
1 285
1 286

POINT_DATA 287
SCALARS id int 1
LOOKUP_TABLE default
1
2
3
4
5
6
7
8
9
10
11
12
13
14
15
16
17
18
19
21
22
23
24
25
26
27
28
29
30
31
32
33
34
35
36
37
38
39
41
42
44
45
46
47
48
49
50
51
52
53
54
55
56
57
59
60
61
62
63
64
65
66
67
68
69
70
71
72
73
74
76
77
78
79
80
81
82
83
84
85
86
87
88
89
90
91
92
93
94
95
96
97
98
99
100
101
102
103
104
105
106
107
108
109
110
111
112
113
114
115
116
117
118
119
120
121
122
123
124
125
126
127
128
129
130
131
132
133
134
135
136
137
138
140
141
142
143
144
146
147
148
149
150
151
153
154
155
156
157
158
159
160
162
164
165
166
167
168
169
170
171
172
173
174
175
176
177
178
179
181
182
183
184
185
186
187
188
189
190
191
192
193
194
195
196
197
198
199
200
201
202
203
204
205
206
207
208
209
210
211
212
213
214
215
216
217
218
219
220
221
222
223
224
225
226
227
228
229
230
231
232
233
234
235
236
237
239
240
241
242
243
244
246
247
248
249
250
251
252
253
254
255
256
257
258
259
260
261
262
263
264
265
266
267
268
269
270
271
272
273
274
275
276
277
278
279
280
281
282
283
284
285
286
287
288
289
290
291
292
293
294
295
296
297
298
299
300

SCALARS type int 1
LOOKUP_TABLE default
1
1
1
1
1
1
1
1
1
1
1
1
1
1
1
1
1
1
1
1
1
1
1
1
1
1
1
1
1
1
1
1
1
1
1
1
1
1
1
1
1
1
1
1
1
1
1
1
1
1
1
1
1
1
1
1
1
1
1
1
1
1
1
1
1
1
1
1
1
1
1
1
1
1
1
1
1
1
1
1
1
1
1
1
1
1
1
1
1
1
1
1
1
1
1
1
1
1
1
1
1
1
1
1
1
1
1
1
1
1
1
1
1
1
1
1
1
1
1
1
1
1
1
1
1
1
1
1
1
1
1
1
1
1
1
1
1
1
1
1
1
1
1
1
1
1
1
1
1
1
1
1
1
1
1
1
1
1
1
1
1
1
1
1
1
1
1
1
1
1
1
1
1
1
1
1
1
1
1
1
1
1
1
1
1
1
1
1
1
1
1
1
1
1
1
1
1
1
1
1
1
1
1
1
1
1
1
1
1
1
1
1
1
1
1
1
1
1
1
1
1
1
1
1
1
1
1
1
1
1
1
1
1
1
1
1
1
1
1
1
1
1
1
1
1
1
1
1
1
1
1
1
1
1
1
1
1
1
1
1
1
1
1
1
1
1
1
1
1
1
1
1
1
1
1
1
1
1
1
1
1
1
1
1
1
1
1

SCALARS radius float 1
LOOKUP_TABLE default
5e-05
5e-05
5e-05
5e-05
5e-05
5e-05
5e-05
5e-05
5e-05
5e-05
5e-05
5e-05
5e-05
5e-05
5e-05
5e-05
5e-05
5e-05
5e-05
5e-05
5e-05
5e-05
5e-05
5e-05
5e-05
5e-05
5e-05
5e-05
5e-05
5e-05
5e-05
5e-05
5e-05
5e-05
5e-05
5e-05
5e-05
5e-05
5e-05
5e-05
5e-05
5e-05
5e-05
5e-05
5e-05
5e-05
5e-05
5e-05
5e-05
5e-05
5e-05
5e-05
5e-05
5e-05
5e-05
5e-05
5e-05
5e-05
5e-05
5e-05
5e-05
5e-05
5e-05
5e-05
5e-05
5e-05
5e-05
5e-05
5e-05
5e-05
5e-05
5e-05
5e-05
5e-05
5e-05
5e-05
5e-05
5e-05
5e-05
5e-05
5e-05
5e-05
5e-05
5e-05
5e-05
5e-05
5e-05
5e-05
5e-05
5e-05
5e-05
5e-05
5e-05
5e-05
5e-05
5e-05
5e-05
5e-05
5e-05
5e-05
5e-05
5e-05
5e-05
5e-05
5e-05
5e-05
5e-05
5e-05
5e-05
5e-05
5e-05
5e-05
5e-05
5e-05
5e-05
5e-05
5e-05
5e-05
5e-05
5e-05
5e-05
5e-05
5e-05
5e-05
5e-05
5e-05
5e-05
5e-05
5e-05
5e-05
5e-05
5e-05
5e-05
5e-05
5e-05
5e-05
5e-05
5e-05
5e-05
5e-05
5e-05
5e-05
5e-05
5e-05
5e-05
5e-05
5e-05
5e-05
5e-05
5e-05
5e-05
5e-05
5e-05
5e-05
5e-05
5e-05
5e-05
5e-05
5e-05
5e-05
5e-05
5e-05
5e-05
5e-05
5e-05
5e-05
5e-05
5e-05
5e-05
5e-05
5e-05
5e-05
5e-05
5e-05
5e-05
5e-05
5e-05
5e-05
5e-05
5e-05
5e-05
5e-05
5e-05
5e-05
5e-05
5e-05
5e-05
5e-05
5e-05
5e-05
5e-05
5e-05
5e-05
5e-05
5e-05
5e-05
5e-05
5e-05
5e-05
5e-05
5e-05
5e-05
5e-05
5e-05
5e-05
5e-05
5e-05
5e-05
5e-05
5e-05
5e-05
5e-05
5e-05
5e-05
5e-05
5e-05
5e-05
5e-05
5e-05
5e-05
5e-05
5e-05
5e-05
5e-05
5e-05
5e-05
5e-05
5e-05
5e-05
5e-05
5e-05
5e-05
5e-05
5e-05
5e-05
5e-05
5e-05
5e-05
5e-05
5e-05
5e-05
5e-05
5e-05
5e-05
5e-05
5e-05
5e-05
5e-05
5e-05
5e-05
5e-05
5e-05
5e-05
5e-05
5e-05
5e-05
5e-05
5e-05
5e-05
5e-05
5e-05
5e-05
5e-05
5e-05
5e-05
5e-05
5e-05
5e-05
5e-05
5e-05
5e-05
5e-05
5e-05
5e-05
5e-05
5e-05
5e-05
5e-05
5e-05
5e-05
5e-05
5e-05
5e-05
5e-05
5e-05
5e-05
5e-05

SCALARS mass float 1
LOOKUP_TABLE default
1.46608e-10
1.46608e-10
1.46608e-10
1.46608e-10
1.46608e-10
1.46608e-10
1.46608e-10
1.46608e-10
1.46608e-10
1.46608e-10
1.46608e-10
1.46608e-10
1.46608e-10
1.46608e-10
1.46608e-10
1.46608e-10
1.46608e-10
1.46608e-10
1.46608e-10
1.46608e-10
1.46608e-10
1.46608e-10
1.46608e-10
1.46608e-10
1.46608e-10
1.46608e-10
1.46608e-10
1.46608e-10
1.46608e-10
1.46608e-10
1.46608e-10
1.46608e-10
1.46608e-10
1.46608e-10
1.46608e-10
1.46608e-10
1.46608e-10
1.46608e-10
1.46608e-10
1.46608e-10
1.46608e-10
1.46608e-10
1.46608e-10
1.46608e-10
1.46608e-10
1.46608e-10
1.46608e-10
1.46608e-10
1.46608e-10
1.46608e-10
1.46608e-10
1.46608e-10
1.46608e-10
1.46608e-10
1.46608e-10
1.46608e-10
1.46608e-10
1.46608e-10
1.46608e-10
1.46608e-10
1.46608e-10
1.46608e-10
1.46608e-10
1.46608e-10
1.46608e-10
1.46608e-10
1.46608e-10
1.46608e-10
1.46608e-10
1.46608e-10
1.46608e-10
1.46608e-10
1.46608e-10
1.46608e-10
1.46608e-10
1.46608e-10
1.46608e-10
1.46608e-10
1.46608e-10
1.46608e-10
1.46608e-10
1.46608e-10
1.46608e-10
1.46608e-10
1.46608e-10
1.46608e-10
1.46608e-10
1.46608e-10
1.46608e-10
1.46608e-10
1.46608e-10
1.46608e-10
1.46608e-10
1.46608e-10
1.46608e-10
1.46608e-10
1.46608e-10
1.46608e-10
1.46608e-10
1.46608e-10
1.46608e-10
1.46608e-10
1.46608e-10
1.46608e-10
1.46608e-10
1.46608e-10
1.46608e-10
1.46608e-10
1.46608e-10
1.46608e-10
1.46608e-10
1.46608e-10
1.46608e-10
1.46608e-10
1.46608e-10
1.46608e-10
1.46608e-10
1.46608e-10
1.46608e-10
1.46608e-10
1.46608e-10
1.46608e-10
1.46608e-10
1.46608e-10
1.46608e-10
1.46608e-10
1.46608e-10
1.46608e-10
1.46608e-10
1.46608e-10
1.46608e-10
1.46608e-10
1.46608e-10
1.46608e-10
1.46608e-10
1.46608e-10
1.46608e-10
1.46608e-10
1.46608e-10
1.46608e-10
1.46608e-10
1.46608e-10
1.46608e-10
1.46608e-10
1.46608e-10
1.46608e-10
1.46608e-10
1.46608e-10
1.46608e-10
1.46608e-10
1.46608e-10
1.46608e-10
1.46608e-10
1.46608e-10
1.46608e-10
1.46608e-10
1.46608e-10
1.46608e-10
1.46608e-10
1.46608e-10
1.46608e-10
1.46608e-10
1.46608e-10
1.46608e-10
1.46608e-10
1.46608e-10
1.46608e-10
1.46608e-10
1.46608e-10
1.46608e-10
1.46608e-10
1.46608e-10
1.46608e-10
1.46608e-10
1.46608e-10
1.46608e-10
1.46608e-10
1.46608e-10
1.46608e-10
1.46608e-10
1.46608e-10
1.46608e-10
1.46608e-10
1.46608e-10
1.46608e-10
1.46608e-10
1.46608e-10
1.46608e-10
1.46608e-10
1.46608e-10
1.46608e-10
1.46608e-10
1.46608e-10
1.46608e-10
1.46608e-10
1.46608e-10
1.46608e-10
1.46608e-10
1.46608e-10
1.46608e-10
1.46608e-10
1.46608e-10
1.46608e-10
1.46608e-10
1.46608e-10
1.46608e-10
1.46608e-10
1.46608e-10
1.46608e-10
1.46608e-10
1.46608e-10
1.46608e-10
1.46608e-10
1.46608e-10
1.46608e-10
1.46608e-10
1.46608e-10
1.46608e-10
1.46608e-10
1.46608e-10
1.46608e-10
1.46608e-10
1.46608e-10
1.46608e-10
1.46608e-10
1.46608e-10
1.46608e-10
1.46608e-10
1.46608e-10
1.46608e-10
1.46608e-10
1.46608e-10
1.46608e-10
1.46608e-10
1.46608e-10
1.46608e-10
1.46608e-10
1.46608e-10
1.46608e-10
1.46608e-10
1.46608e-10
1.46608e-10
1.46608e-10
1.46608e-10
1.46608e-10
1.46608e-10
1.46608e-10
1.46608e-10
1.46608e-10
1.46608e-10
1.46608e-10
1.46608e-10
1.46608e-10
1.46608e-10
1.46608e-10
1.46608e-10
1.46608e-10
1.46608e-10
1.46608e-10
1.46608e-10
1.46608e-10
1.46608e-10
1.46608e-10
1.46608e-10
1.46608e-10
1.46608e-10
1.46608e-10
1.46608e-10
1.46608e-10
1.46608e-10
1.46608e-10
1.46608e-10
1.46608e-10
1.46608e-10
1.46608e-10
1.46608e-10
1.46608e-10
1.46608e-10
1.46608e-10
1.46608e-10
1.46608e-10
1.46608e-10
1.46608e-10
1.46608e-10
1.46608e-10
1.46608e-10
1.46608e-10

VECTORS velocity float
0.00566993 -1.1369e-05 0.000251949
0.0060714 3.13686e-05 0.000256013
0.0056222 -3.41454e-05 3.73463e-05
0.00611886 -0.000125622 0.000320748
0.00561938 -0.000226066 -5.50356e-05
0.00608488 0.00068906 -0.00019052
0.00604139 -0.000147371 0.000327864
0.005468 -0.000138253 -9.9651e-05
0.00579962 0.000757051 -5.87588e-06
0.00560592 -7.3853e-05 0.00027679
0.00610292 1.22978e-05 0.000267557
0.00600597 -8.43615e-05 6.70429e-05
0.00555438 -0.000187717 -5.9556e-05
0.0056552 -6.70162e-05 4.20497e-05
0.00606274 -0.000160848 0.000333212
0.00558729 -6.33737e-05 3.66061e-05
0.00560738 4.24111e-05 0.000231281
0.00629602 0.000381263 -0.000545579
0.00549964 -0.000165169 -6.34168e-05
0.00565523 -0.000210704 1.84621e-05
0.00605526 -0.000172994 0.000338935
0.006079 4.82419e-05 0.000373496
0.0064505 0.000371953 -0.000562233
0.00603343 -0.000151182 0.000328305
0.00618571 0.000418754 -0.000561202
0.00612451 2.64103e-05 0.00039269
0.0061391 -0.000143593 0.000326402
0.0054781 -0.000156691 -7.82424e-05
0.00610281 -0.000136972 0.000324752
0.00605303 -0.000146048 0.000327737
0.00606127 -0.000168741 0.000336525
0.00610579 0.00067777 -0.000182987
0.00562786 -3.13371e-05 0.000272163
0.00605896 -0.000164177 0.000335177
0.00586162 0.000772738 -6.77372e-06
0.00604574 -0.000151045 0.000330308
0.00606954 -0.000160046 0.000334514
0.00647753 0.000600848 5.28589e-05
0.00564755 -0.000141855 8.34639e-05
0.00606015 -0.000182817 0.000342535
0.00606867 -0.000153015 0.000330619
0.00614017 0.000673931 -0.000181028
0.00626144 0.000396123 -0.000553134
0.00563255 -6.68633e-05 0.000217663
0.00609615 -0.000137845 0.00032686
0.00622008 0.000408286 -0.000558162
0.00612448 -0.000144953 0.000336861
0.006116 -0.000148738 0.000331651
0.00557804 -7.93124e-06 2.05067e-05
0.00636728 0.000383072 -0.000545884
0.00563494 -0.00022721 -7.84576e-06
0.00565444 -5.84797e-05 3.36524e-05
0.0060514 -0.000154435 0.000330764
0.00617912 0.00067291 -0.000177265
0.00605344 -0.000154924 0.000331055
0.00605713 -0.000160232 0.000332705
0.00564014 -0.00020301 -1.28851e-05
0.00608562 -0.000147262 0.000329717
0.00614625 -0.000161671 0.000332016
0.00643569 0.000373275 -0.000547331
0.00616078 -6.1516e-05 0.000419765
0.0061305 7.57563e-06 0.000395242
0.00612999 -0.000154882 0.000333644
0.00614379 -0.000143994 0.000326413
0.00584649 -0.00014609 0.000317122
0.0064754 0.000602781 4.64489e-05
0.0056799 -6.53686e-05 4.02197e-05
0.00610953 -0.000142069 0.000328681
0.00604016 -7.32873e-05 0.000297237
0.00608128 -0.000150063 0.000331292
0.00618499 -2.17754e-05 0.00041077
0.00575788 -0.000200505 4.39858e-05
0.00560631 -4.78769e-05 4.35718e-05
0.00606348 4.14465e-05 0.000382269
0.00611207 -0.000289219 7.48164e-05
0.00605064 4.69092e-05 0.00036849
0.00608292 4.65261e-05 0.000370466
0.00585072 -4.33252e-05 0.000221951
0.00578771 0.000778206 -9.40364e-06
0.00561693 -3.08751e-05 3.40921e-05
0.00611874 -0.000139658 0.000329115
0.00605455 -0.000147175 0.000328271
0.00569869 -0.000204438 2.71517e-05
0.00573773 -0.000220772 4.75412e-05
0.00612117 -0.000155459 0.000333854
0.00603419 -9.01872e-05 5.97768e-05
0.00611086 -6.93072e-05 0.000291186
0.00570007 -0.000165691 3.24753e-05
0.00567023 -0.000147432 0.000148852
0.00606789 -0.000154918 0.000218839
0.00592738 0.000228885 0.000167981
0.00557948 -5.77015e-05 4.98108e-05
0.00576863 -0.000211961 4.24493e-05
0.00613196 3.86726e-06 0.00039193
0.00605108 -0.000169831 0.000337623
0.00602252 2.69577e-05 0.000336732
4.33962e-15 1.04804e-14 8.29586e-14
-2.11393e-22 2.24983e-22 1.23839e-22
0.00612338 2.13512e-06 0.000392287
0.00560621 -5.24968e-05 4.67422e-05
0.00612065 -1.43305e-05 0.000402246
0.00559304 -4.45733e-05 4.17772e-05
0.00605071 -0.000156118 0.000332128
0.0061011 -0.000143886 0.000328296
0.00588797 0.000375714 8.76122e-05
0.00582778 -0.000214507 1.65579e-06
0.00561357 0.000115254 -5.07105e-05
0.00639085 5.66998e-05 0.000386742
0.00621661 -1.36693e-05 0.000418413
0.00609387 -0.000140537 0.000325797
0.00600338 -0.000161519 0.000332449
0.00560594 -0.00022041 -9.29938e-06
0.00562819 -4.44814e-05 3.30629e-05
0.00604517 -0.000159892 0.00033196
0.00546433 -0.000145989 -9.14936e-05
0.00556597 -0.000145247 -9.69264e-05
0.00557916 -1.49991e-05 0.00025566
0.00560859 -3.60367e-05 3.72465e-05
0.00596695 -0.00113818 -0.00227561
0.00554108 -0.000210313 -2.13163e-05
0.00606724 -0.000184454 0.000344107
0.00559756 -4.9344e-05 4.49175e-05
0.00613058 -0.000162471 0.000308217
0.00565833 -0.00021682 1.35842e-05
0.006106 3.12864e-05 0.000378765
0.0061549 1.40634e-05 0.000401271
0.00609714 -0.000177009 0.000146055
0.00562866 -6.39936e-05 0.000277764
0.00604897 -0.00016064 0.000334823
0.00548311 -0.000197313 -3.48397e-05
0.00561593 -2.7956e-05 3.20854e-05
0.00581632 -0.000209676 -6.49188e-06
0.00566681 -0.000121345 0.000298981
0.00576231 -0.000181096 3.50597e-05
0.00561445 -3.36464e-05 3.57939e-05
0.00610992 1.88595e-05 0.000383973
0.00557048 -4.36096e-05 4.15382e-05
0.00625619 -2.74896e-05 0.000416519
0.00592651 -5.54989e-05 0.000412698
0.00561826 -2.62531e-05 3.12165e-05
0.0061273 3.04491e-05 0.000380466
0.00577273 -0.000219699 -8.88594e-06
0.0058154 1.58829e-05 0.000137117
0.00608386 1.10051e-05 0.000386903
0.00555613 -2.23245e-05 2.99045e-05
0.00613364 1.53714e-05 0.000388069
0.00620556 -4.85612e-05 0.000422169
0.00612605 2.42275e-05 0.000385027
-3.82934e-14 8.17022e-14 2.95883e-13
0.00608033 -7.98229e-06 0.000374012
0.00610672 -5.21841e-05 0.000289744
0.00617981 -2.96209e-05 0.000413608
0.0061519 1.74222e-07 0.000394598
0.00581305 0.000500877 0.000137501
0.00619128 -9.51213e-05 0.000444619
0.00566289 -0.000237533 -8.66577e-06
0.00563911 -1.60045e-05 3.46842e-05
0.00608097 6.5663e-06 0.000387121
0.00627962 0.000128402 0.000345438
0.00618178 -3.19594e-05 0.000413863
0.005613 -6.43194e-05 0.000280488
0.00615524 -4.99851e-05 0.000419829
0.00616618 2.35159e-06 0.000272119
0.00619664 -1.67687e-05 0.00041101
0.0062382 -3.28899e-05 1.31214e-05
0.00611544 2.97441e-05 0.000381064
0.00621975 -4.26665e-05 0.00042147
0.00632769 -0.000113608 0.000461689
0.00635779 3.61248e-05 0.00039143
0.00615722 1.71931e-05 0.000388769
0.00562603 -4.82965e-05 0.000267538
0.00615707 -2.21539e-05 0.000406004
0.00602017 -0.000434112 9.18487e-05
0.00611221 3.25732e-05 0.000381546
0.00614507 2.99503e-05 0.000383761
0.00607985 -0.000152393 0.000331075
0.00576348 -0.000193225 3.65798e-05
0.00608092 -0.00016616 0.000337433
0.00626186 -3.85948e-05 1.09633e-05
0.00578375 -0.000199631 -7.29696e-06
0.00610128 1.32542e-05 0.000387294
0.00597903 -0.000127341 0.000316844
0.00598489 1.1872e-05 0.000383655
0.00635976 -5.41845e-05 0.000438609
0.00554441 -6.13152e-05 3.35257e-05
0.00622668 -1.59736e-05 1.20095e-05
0.00606495 3.66785e-05 0.000375223
0.00617484 -1.3366e-05 0.000403195
0.00606027 6.47528e-05 0.000359964
0.0059439 0.000225944 0.000270613
0.00608062 -1.45587e-05 0.000399214
0.00606868 -0.000155199 0.000331514
0.00603253 5.91344e-05 0.000355131
0.00623539 -4.06051e-05 0.000426569
0.00622868 -3.81531e-05 0.000421195
0.00559322 -3.36397e-05 3.60021e-05
0.00616466 -1.99535e-05 0.000405627
0.00594389 6.50157e-05 0.000282128
0.00610279 -0.000123474 0.000323866
0.00587149 0.000207213 -1.82324e-05
0.00622428 -5.20366e-05 0.000424803
0.00602308 -0.000172482 0.000337012
0.00571329 -0.000279824 -0.000605762
0.00624103 -2.70917e-05 1.03547e-05
0.00620011 -3.58232e-05 0.000418051
0.00567233 -7.14396e-05 0.000279147
0.00616863 -2.00316e-05 0.000389769
0.00579737 -0.000203193 2.76184e-05
0.00617389 1.16117e-05 0.000392527
0.0060495 -0.000221411 -0.000253881
0.00580256 -9.33476e-05 0.000294486
0.00611662 1.32424e-05 0.00038695
0.00610044 3.89255e-05 0.0003753
0.00587629 0.000458848 7.81191e-05
0.00614842 -2.21487e-05 0.000407071
0.00626575 -3.78926e-05 1.04743e-05
0.00625359 -2.91384e-05 8.87038e-06
0.0061917 1.62196e-05 0.00039238
0.00583637 0.000133089 -3.93085e-05
0.00618691 -2.59422e-05 1.11191e-05
0.00565346 -5.05867e-05 6.59493e-05
0.00610059 1.83583e-05 0.000381999
0.00573248 -0.000238598 4.95184e-05
0.00567985 5.24158e-05 -0.000499683
0.00580973 2.57096e-05 -0.000537164
0.00572653 -1.24925e-05 -0.000519471
0.00553864 -8.73514e-05 -0.000315775
0.00592543 -0.000158455 -0.000293137
0.00553963 -8.88247e-05 -0.000315044
0.00606059 1.8752e-05 0.0003901
0.00608911 3.21793e-05 0.000394611
0.00553665 -8.67492e-05 -0.000316499
0.00611473 -1.04664e-05 3.41861e-06
0.00621406 -2.48326e-05 0.000401553
0.00615717 0.000201766 0.00030071
0.00618594 -2.77629e-07 1.31847e-05
0.00624315 -8.13169e-05 0.000423949
0.00605092 0.000383861 0.000112603
0.0060964 1.97216e-05 -5.90915e-05
0.00616394 -2.8671e-05 1.09117e-05
0.00606093 -9.82506e-08 -1.17499e-05
0.00563167 -4.40499e-05 5.16705e-06
0.00628203 -7.40531e-05 0.000428962
0.00575766 3.65772e-05 0.000349647
0.00610785 6.30045e-05 0.000406146
0.00607937 1.09894e-05 -0.000319153
0.00627621 3.62768e-05 0.000414905
0.00567609 0.000108608 -0.000482739
0.00588965 0.000240432 0.000255241
0.00602491 -4.02412e-05 -8.60919e-05
0.00576525 -7.77773e-05 -0.000557764
0.00625514 -2.74297e-05 9.93543e-06
0.00611504 -3.40865e-05 0.000410602
0.00572477 0.000136347 -0.000156009
0.00614598 3.10984e-05 0.000388378
0.006134 -2.40738e-05 0.000381793
0.00613356 -3.30638e-05 0.000285143
0.00634102 -4.59824e-05 0.00043316
0.00600167 1.4344e-05 -0.000322086
0.00570177 2.06822e-05 -0.000498502
0.00603598 9.57572e-06 -0.000324938
0.00528167 0.000419416 -8.79922e-05
0.00620221 -4.14821e-05 0.000400001
0.0056881 1.90287e-05 -0.000507654
0.00619278 7.60467e-05 0.000360662
0.00614779 -1.84762e-05 9.57003e-06
0.00625561 -2.69997e-05 9.21426e-06
0.00603448 -5.43515e-05 0.000415954
0.00614622 -2.88357e-05 1.19417e-05
0.00581239 -0.000138295 -0.000298108
0.00569116 8.59966e-05 -0.000489586
0.0057835 7.41604e-05 -0.000519955
0.00572332 -9.04933e-05 -0.000544288
0.00512053 -0.000449736 0.000553954
0.00570578 2.45709e-05 -0.000478315
0.0060271 -2.38211e-05 0.000402508
0.00607441 -6.97087e-06 0.000395448
0.00611429 0.000181887 0.000302754
0.00552765 -1.07669e-05 1.77119e-05
0.00629777 1.4308e-05 0.000401075
0.0056731 4.87604e-05 -0.000506542
0.00617095 5.01645e-05 8.63149e-06
0.00575356 0.000119643 -0.000489345
0.00604074 -0.000161831 0.000335233
0.00595939 -0.00012312 -0.000228673
0.00613619 9.66141e-06 9.45124e-06
0.0060851 -3.5527e-05 0.000282239

VECTORS force float
-1.1106e-11 -1.25595e-10 3.79092e-11
7.74089e-11 -9.61468e-11 5.24672e-11
-9.23437e-12 -6.00843e-12 1.52522e-12
1.48555e-10 -1.10019e-10 1.1817e-10
-7.49375e-12 -2.43989e-10 -1.56482e-11
-6.14706e-11 -1.99079e-10 1.21709e-10
-6.74608e-12 1.81037e-11 -1.35964e-11
1.51698e-10 -7.14449e-11 7.28757e-11
-4.51096e-10 1.16755e-10 -2.7341e-11
-4.70759e-11 5.82856e-11 -1.65874e-10
1.14632e-10 1.29317e-10 -6.05212e-11
-8.19962e-12 1.76949e-11 2.61542e-11
-1.76862e-10 -1.54968e-10 1.16881e-10
-5.23028e-11 -1.83332e-11 2.83585e-11
1.77063e-11 -1.03763e-10 4.09317e-11
-5.74341e-11 -2.50134e-11 3.66021e-11
2.48089e-12 1.84474e-11 -6.90033e-12
8.79784e-11 -9.70726e-11 1.56721e-11
-1.62711e-10 3.56541e-11 5.73471e-11
6.65168e-11 1.64264e-10 3.63077e-10
6.71976e-11 1.68526e-10 -9.88362e-11
9.27556e-11 1.42746e-11 -9.44368e-12
2.36664e-11 -1.08572e-10 -5.2037e-10
-3.09545e-11 1.81113e-11 -5.30538e-12
6.38859e-11 8.49827e-11 -6.04779e-11
4.12614e-12 -2.14585e-11 -3.60449e-11
1.14221e-11 5.48653e-12 2.36933e-11
-4.87852e-11 4.74874e-11 3.81762e-11
1.2539e-10 -8.30763e-11 4.11775e-11
2.70833e-11 6.86916e-11 -1.37034e-11
5.39615e-11 -6.82061e-12 1.45906e-12
8.60093e-11 -4.83095e-11 5.02014e-11
7.11327e-13 7.13373e-12 6.70937e-11
2.85068e-11 6.71845e-11 5.17176e-12
6.40141e-12 3.69577e-11 -3.51935e-11
6.98477e-11 4.25049e-11 -2.86659e-11
5.07565e-11 8.52098e-11 4.85756e-11
-1.50459e-10 -1.07289e-12 -5.9937e-11
-1.93255e-11 3.30595e-11 1.77381e-10
5.8832e-11 1.15357e-10 -2.30403e-11
5.4438e-12 4.24522e-11 -3.72381e-11
-6.2361e-11 2.70753e-11 -4.66312e-11
2.72488e-10 -1.48669e-10 8.84015e-11
1.13644e-10 7.27591e-11 1.77183e-10
-2.72786e-11 -5.40973e-11 5.2015e-11
-2.01735e-10 -3.14604e-11 2.05565e-11
6.39771e-11 8.45212e-11 9.43941e-11
-1.30898e-11 -1.31362e-11 2.43547e-12
-1.06019e-10 -1.37247e-10 8.12849e-11
-2.2192e-10 7.7185e-11 -1.29167e-10
2.23304e-11 -8.19659e-11 8.22241e-11
-4.7872e-11 2.51398e-11 4.64301e-11
4.06879e-11 7.1421e-11 -1.26832e-11
-9.4613e-12 6.52688e-11 -2.65195e-11
9.05125e-11 6.3059e-11 -4.4003e-11
-7.18338e-12 5.94703e-11 -1.50737e-11
-1.17692e-11 -8.33456e-11 1.00973e-10
7.64485e-11 -4.32883e-11 1.20156e-11
2.19782e-10 -1.86814e-11 9.85487e-11
3.46725e-10 1.33694e-10 -1.92294e-10