# vtk DataFile Version 3.0
LIGGGHTS particles timestep 56800000
ASCII
DATASET POLYDATA
POINTS 275 float
0.34433 0.0177 0.00738333
0.34409 0.0170389 0.00780241
0.344179 0.0166909 0.00789358
0.34378 0.01575 0.00832926
0.35007 0.0168788 0.00744821
0.344367 0.0173693 0.00756393
0.344033 0.0164818 0.0079816
0.35027 0.0178063 0.00713213
0.344012 0.016394 0.00802478
0.344397 0.0179686 0.00734726
0.338421 0.0173042 0.0073721
0.343759 0.0156667 0.00838058
0.338313 0.0176067 0.00724062
0.338537 0.0181824 0.00703607
0.343891 0.0161843 0.00811691
0.343737 0.0156143 0.00846295
0.344278 0.0174604 0.00750208
0.344306 0.0168221 0.00784394
0.338588 0.0180154 0.00704683
0.350187 0.0174358 0.00725844
0.344107 0.0164274 0.00802177
0.350228 0.0176212 0.00719524
0.33819 0.0170764 0.00749264
0.343983 0.0166234 0.00789899
0.343716 0.0155633 0.00854626
0.344005 0.0167085 0.00795645
0.344336 0.0175359 0.00747113
0.343898 0.0162729 0.00807116
0.350089 0.0169717 0.00741658
0.343858 0.0161056 0.00816881
0.344321 0.0171926 0.00765033
0.350333 0.0180839 0.00703748
0.344156 0.0166034 0.00793624
0.344255 0.0169674 0.0077592
0.350207 0.0175286 0.00722682
0.343819 0.0159245 0.00824317
0.344416 0.0171709 0.00767642
0.344466 0.0173818 0.00757264
0.350109 0.0170645 0.00738495
0.343839 0.0160123 0.00819979
0.344151 0.0173069 0.00756353
0.350291 0.0178988 0.00710058
0.343918 0.0163632 0.00803291
0.344526 0.0177777 0.00737261
0.338771 0.0184398 0.00705505
0.350148 0.0172501 0.0073217
0.344319 0.0180138 0.00730552
0.338347 0.0173668 0.00734849
0.344295 0.0179299 0.00725648
0.350129 0.0171573 0.00735332
0.378022 0.019866 0.005332
0.344472 0.0174889 0.00751697
0.343799 0.0158426 0.00829709
0.344284 0.0170657 0.00771162
0.344353 0.017793 0.00733782
0.350168 0.017343 0.00729007
0.338293 0.0175183 0.00728262
0.338632 0.0184596 0.00712871
0.344429 0.0177405 0.00737727
0.344125 0.0168371 0.00782176
0.344514 0.0181066 0.00719691
0.350249 0.0177138 0.00716368
0.338654 0.0183119 0.00704557
0.344339 0.0181182 0.00716362
0.344365 0.0170204 0.00774816
0.343978 0.0166218 0.00799885
0.33821 0.0171648 0.00745063
0.344205 0.0170851 0.00778112
0.337782 0.0158106 0.00836762
0.338494 0.0187993 0.00701273
0.344081 0.016657 0.00789638
0.33858 0.0182431 0.00712596
0.338441 0.0173925 0.00733009
0.350312 0.0179913 0.00706903
0.338602 0.0184752 0.00703473
0.34444 0.0172855 0.00761964
0.344057 0.0165697 0.00793888
0.34433 0.0173774 0.00765651
0.344418 0.0180709 0.00720101
0.344449 0.0178288 0.00733373
0.338305 0.01719 0.00743249
0.344155 0.017299 0.00766312
0.344541 0.0178692 0.00732661
0.344259 0.0175591 0.00753035
0.344317 0.0175001 0.00758659
0.344076 0.0169731 0.00772843
0.337948 0.0160038 0.0079736
0.344584 0.0180488 0.00723834
0.3383 0.0179341 0.00709122
0.344377 0.0174579 0.00751866
0.338321 0.0180251 0.00705431
0.0643568 0.0187248 0.00531097
0.24257 0.0191927 0.00520306
0.338558 0.01828 0.00703564
0.337926 0.0159469 0.00806533
0.338364 0.0181007 0.00711234
0.337803 0.0158505 0.00827821
0.344318 0.0180304 0.00720691
0.344441 0.0181616 0.00715652
0.344259 0.017189 0.00772902
0.344029 0.0167959 0.00791381
0.338147 0.0164815 0.00776831
0.338218 0.0175805 0.00725923
0.338259 0.0177573 0.00717522
0.344226 0.0168682 0.00780707
0.344267 0.0173741 0.00757051
0.344341 0.0172823 0.00760601
0.338388 0.0175435 0.00726449
0.344359 0.0182061 0.00712034
0.344236 0.0165568 0.00797331
0.344224 0.0176212 0.00740863
0.344053 0.0168856 0.00777121
0.338676 0.0184094 0.00704518
0.344331 0.0169158 0.00779827
0.34417 0.0170069 0.0077251
0.337972 0.0160933 0.00793532
0.3442 0.0164697 0.0080138
0.344409 0.0176516 0.00742115
0.338354 0.0177835 0.00715661
0.338375 0.0178719 0.00711461
0.344201 0.0167788 0.00785046
0.344173 0.0174002 0.00759196
0.344242 0.0172785 0.0075927
0.344564 0.0179605 0.00728186
0.338326 0.0172784 0.00739049
0.344231 0.0173643 0.00766502
0.344117 0.0171599 0.00768623
0.344007 0.0167107 0.00785649
0.338187 0.0166589 0.00768517
0.338566 0.0179238 0.00708094
0.33782 0.0158906 0.00818817
0.338524 0.017746 0.00716209
0.337858 0.0160177 0.00804507
0.338334 0.0176951 0.00719861
0.338206 0.0167473 0.0076426
0.343938 0.0164483 0.00798455
0.33845 0.0186046 0.00702315
0.338364 0.0182127 0.00701544
0.338226 0.0168359 0.00760056
0.33784 0.0159703 0.00813125
0.337877 0.0160726 0.00796359
0.338168 0.0165709 0.00772851
0.0219312 0.0187687 0.00551176
0.338265 0.0170131 0.00751651
0.344104 0.0167445 0.00785373
0.338342 0.0181151 0.00701589
0.338548 0.018514 0.00711837
0.337937 0.0163348 0.00783312
0.338483 0.0183454 0.00702512
0.344131 0.0172191 0.00760682
0.338445 0.0185128 0.00711261
0.338548 0.0186383 0.00702378
0.338407 0.0184091 0.00701453
0.338527 0.0185406 0.00702425
0.344375 0.0178829 0.0072937
0.338197 0.0174921 0.00730123
0.344488 0.0180122 0.00724278
0.337977 0.016515 0.00775611
0.338425 0.017951 0.00716768
0.337992 0.0161833 0.00789681
0.338328 0.0180113 0.00715314
0.338526 0.0183352 0.00711482
0.344256 0.0177626 0.00735752
0.338462 0.0181413 0.00712287
0.344468 0.0179243 0.00728619
0.338545 0.0178347 0.0071207
0.338698 0.018507 0.00704471
0.344313 0.0176317 0.00745438
0.344148 0.0169233 0.00777641
0.344201 0.0175249 0.00745608
0.332453 0.0186029 0.00685998
0.344114 0.0171338 0.00778275
0.338238 0.0176689 0.00721722
0.344391 0.0179745 0.00724765
0.338623 0.0183601 0.00712715
0.338438 0.018147 0.00702589
0.338492 0.01799 0.00706691
0.332129 0.0172057 0.00752278
0.338483 0.0175693 0.00724609
0.33848 0.0182413 0.00712371
0.337913 0.0159066 0.00815601
0.338462 0.0182477 0.00702561
0.338285 0.0171016 0.0074745
0.344222 0.0171906 0.00763599
0.338612 0.0181164 0.00704657
0.33813 0.0168107 0.0076187
0.33817 0.0169879 0.00753465
0.338052 0.0164536 0.00778129
0.338367 0.0174551 0.00730649
0.338272 0.0174299 0.00732462
0.344126 0.0165359 0.00800369
0.343959 0.016536 0.0079415
0.33858 0.0183777 0.00703511
0.344181 0.0174371 0.00749937
0.34428 0.0172796 0.00768519
0.332351 0.0181486 0.00700507
0.338032 0.0163635 0.0078198
0.344275 0.017842 0.00729976
0.33828 0.0178457 0.00713322
0.344279 0.0167303 0.00788831
0.338395 0.0179603 0.0070726
0.344432 0.0175671 0.00746939
0.338095 0.0170501 0.00751125
0.344051 0.0168852 0.00787117
0.338443 0.0180439 0.00713549
0.332372 0.018238 0.00696532
0.332309 0.01797 0.00708477
0.338624 0.018573 0.00703427
0.338194 0.0172599 0.00750136
0.338505 0.0184431 0.00702463
0.338427 0.0183252 0.00710494
0.344379 0.0182941 0.00707694
0.338055 0.0168727 0.00759541
0.338299 0.0176945 0.00729245
0.338156 0.0173154 0.00738523
0.332029 0.0167876 0.00777812
0.332088 0.0170386 0.00762489
0.33201 0.0167038 0.00782922
0.338462 0.0174809 0.00728809
0.33847 0.0178971 0.00709662
0.332049 0.0168713 0.00772704
0.332228 0.0176241 0.00726739
0.337997 0.0166052 0.00771758
0.338323 0.0179174 0.00718735
0.332168 0.0173732 0.00742061
0.338091 0.0166335 0.00770277
0.344192 0.0170944 0.00768231
0.332247 0.0177077 0.00721632
0.332433 0.0185061 0.00684555
0.332189 0.0174566 0.00736956
0.3384 0.0178573 0.00721035
0.338633 0.0182142 0.00704605
0.338245 0.0169245 0.00755853
0.338288 0.0178342 0.00723218
0.332268 0.0177929 0.00716789
0.338385 0.0183111 0.00701498
0.338251 0.0173415 0.00736663
0.338177 0.0174037 0.00734323
0.332148 0.0172895 0.00747168
0.337897 0.0161547 0.00791013
0.332474 0.0186996 0.00687487
0.338416 0.0180496 0.00703016
0.338111 0.0167222 0.00766104
0.338503 0.0176577 0.0072041
0.33845 0.0178086 0.00713849
0.34403 0.0167982 0.00781384
0.338472 0.0187017 0.00701318
0.332331 0.0180592 0.00704517
0.33815 0.0168993 0.00757668
0.332288 0.0178807 0.00712475
0.337957 0.0164249 0.00779461
0.338072 0.0165439 0.00774268
0.338016 0.0166954 0.00767904
0.338408 0.0176319 0.00722249
0.332528 0.0185365 0.00684847
0.332392 0.0183272 0.00692539
0.338366 0.0182007 0.00711468
0.332069 0.016955 0.00767597
0.338214 0.0173496 0.0074591
0.338115 0.0171386 0.00746924
0.337917 0.0162447 0.00787163
0.338075 0.0169615 0.00755328
0.338517 0.0180858 0.00705236
0.338012 0.0162734 0.00785831
0.338231 0.0172532 0.00740863
0.338429 0.0177202 0.0071805
0.338429 0.0185073 0.00701408
0.338136 0.017227 0.00742723
0.338259 0.0175158 0.00737662
0.332413 0.0184166 0.00688552
0.338036 0.0167842 0.00763745
0.344193 0.0174995 0.00757655
0.332108 0.0171223 0.00757382
0.332208 0.0175405 0.00731846
0.344094 0.0170621 0.00768419

VERTICES 275 550
1 0
1 1
1 2
1 3
1 4
1 5
1 6
1 7
1 8
1 9
1 10
1 11
1 12
1 13
1 14
1 15
1 16
1 17
1 18
1 19
1 20
1 21
1 22
1 23
1 24
1 25
1 26
1 27
1 28
1 29
1 30
1 31
1 32
1 33
1 34
1 35
1 36
1 37
1 38
1 39
1 40
1 41
1 42
1 43
1 44
1 45
1 46
1 47
1 48
1 49
1 50
1 51
1 52
1 53
1 54
1 55
1 56
1 57
1 58
1 59
1 60
1 61
1 62
1 63
1 64
1 65
1 66
1 67
1 68
1 69
1 70
1 71
1 72
1 73
1 74
1 75
1 76
1 77
1 78
1 79
1 80
1 81
1 82
1 83
1 84
1 85
1 86
1 87
1 88
1 89
1 90
1 91
1 92
1 93
1 94
1 95
1 96
1 97
1 98
1 99
1 100
1 101
1 102
1 103
1 104
1 105
1 106
1 107
1 108
1 109
1 110
1 111
1 112
1 113
1 114
1 115
1 116
1 117
1 118
1 119
1 120
1 121
1 122
1 123
1 124
1 125
1 126
1 127
1 128
1 129
1 130
1 131
1 132
1 133
1 134
1 135
1 136
1 137
1 138
1 139
1 140
1 141
1 142
1 143
1 144
1 145
1 146
1 147
1 148
1 149
1 150
1 151
1 152
1 153
1 154
1 155
1 156
1 157
1 158
1 159
1 160
1 161
1 162
1 163
1 164
1 165
1 166
1 167
1 168
1 169
1 170
1 171
1 172
1 173
1 174
1 175
1 176
1 177
1 178
1 179
1 180
1 181
1 182
1 183
1 184
1 185
1 186
1 187
1 188
1 189
1 190
1 191
1 192
1 193
1 194
1 195
1 196
1 197
1 198
1 199
1 200
1 201
1 202
1 203
1 204
1 205
1 206
1 207
1 208
1 209
1 210
1 211
1 212
1 213
1 214
1 215
1 216
1 217
1 218
1 219
1 220
1 221
1 222
1 223
1 224
1 225
1 226
1 227
1 228
1 229
1 230
1 231
1 232
1 233
1 234
1 235
1 236
1 237
1 238
1 239
1 240
1 241
1 242
1 243
1 244
1 245
1 246
1 247
1 248
1 249
1 250
1 251
1 252
1 253
1 254
1 255
1 256
1 257
1 258
1 259
1 260
1 261
1 262
1 263
1 264
1 265
1 266
1 267
1 268
1 269
1 270
1 271
1 272
1 273
1 274

POINT_DATA 275
SCALARS id int 1
LOOKUP_TABLE default
1
2
4
5
6
7
8
9
10
11
12
13
14
16
17
19
21
22
23
24
25
26
27
28
29
30
31
32
33
34
35
36
37
38
39
41
42
44
45
47
48
49
50
51
52
53
54
55
56
57
59
60
61
62
63
64
65
66
67
68
69
70
71
72
73
74
76
77
78
79
80
82
83
84
85
86
87
88
89
90
91
92
93
94
95
96
97
98
99
100
101
102
103
104
105
106
107
108
109
110
111
112
113
114
115
116
117
118
119
120
121
122
123
124
125
127
128
129
130
131
132
133
134
135
136
137
138
140
141
142
143
144
146
147
148
149
150
151
153
154
155
156
157
158
159
160
162
164
165
166
167
168
169
170
171
172
173
174
176
177
178
179
182
183
184
185
186
187
188
189
190
191
192
193
194
195
196
197
198
199
200
201
202
203
204
205
206
207
208
209
210
211
212
213
214
215
216
217
218
219
220
222
224
225
226
227
228
229
230
232
233
234
235
236
237
239
240
241
242
243
244
246
247
248
249
250
251
252
253
254
255
256
257
258
259
260
261
262
263
264
265
266
267
268
269
270
271
272
273
274
275
276
277
278
279
280
281
283
284
285
286
287
288
289
290
291
292
293
294
295
296
297
298
299
300

SCALARS type int 1
LOOKUP_TABLE default
1
1
1
1
1
1
1
1
1
1
1
1
1
1
1
1
1
1
1
1
1
1
1
1
1
1
1
1
1
1
1
1
1
1
1
1
1
1
1
1
1
1
1
1
1
1
1
1
1
1
1
1
1
1
1
1
1
1
1
1
1
1
1
1
1
1
1
1
1
1
1
1
1
1
1
1
1
1
1
1
1
1
1
1
1
1
1
1
1
1
1
1
1
1
1
1
1
1
1
1
1
1
1
1
1
1
1
1
1
1
1
1
1
1
1
1
1
1
1
1
1
1
1
1
1
1
1
1
1
1
1
1
1
1
1
1
1
1
1
1
1
1
1
1
1
1
1
1
1
1
1
1
1
1
1
1
1
1
1
1
1
1
1
1
1
1
1
1
1
1
1
1
1
1
1
1
1
1
1
1
1
1
1
1
1
1
1
1
1
1
1
1
1
1
1
1
1
1
1
1
1
1
1
1
1
1
1
1
1
1
1
1
1
1
1
1
1
1
1
1
1
1
1
1
1
1
1
1
1
1
1
1
1
1
1
1
1
1
1
1
1
1
1
1
1
1
1
1
1
1
1
1
1
1
1
1
1
1
1
1
1
1
1
1
1
1
1
1
1
1
1
1
1
1
1

SCALARS radius float 1
LOOKUP_TABLE default
5e-05
5e-05
5e-05
5e-05
5e-05
5e-05
5e-05
5e-05
5e-05
5e-05
5e-05
5e-05
5e-05
5e-05
5e-05
5e-05
5e-05
5e-05
5e-05
5e-05
5e-05
5e-05
5e-05
5e-05
5e-05
5e-05
5e-05
5e-05
5e-05
5e-05
5e-05
5e-05
5e-05
5e-05
5e-05
5e-05
5e-05
5e-05
5e-05
5e-05
5e-05
5e-05
5e-05
5e-05
5e-05
5e-05
5e-05
5e-05
5e-05
5e-05
5e-05
5e-05
5e-05
5e-05
5e-05
5e-05
5e-05
5e-05
5e-05
5e-05
5e-05
5e-05
5e-05
5e-05
5e-05
5e-05
5e-05
5e-05
5e-05
5e-05
5e-05
5e-05
5e-05
5e-05
5e-05
5e-05
5e-05
5e-05
5e-05
5e-05
5e-05
5e-05
5e-05
5e-05
5e-05
5e-05
5e-05
5e-05
5e-05
5e-05
5e-05
5e-05
5e-05
5e-05
5e-05
5e-05
5e-05
5e-05
5e-05
5e-05
5e-05
5e-05
5e-05
5e-05
5e-05
5e-05
5e-05
5e-05
5e-05
5e-05
5e-05
5e-05
5e-05
5e-05
5e-05
5e-05
5e-05
5e-05
5e-05
5e-05
5e-05
5e-05
5e-05
5e-05
5e-05
5e-05
5e-05
5e-05
5e-05
5e-05
5e-05
5e-05
5e-05
5e-05
5e-05
5e-05
5e-05
5e-05
5e-05
5e-05
5e-05
5e-05
5e-05
5e-05
5e-05
5e-05
5e-05
5e-05
5e-05
5e-05
5e-05
5e-05
5e-05
5e-05
5e-05
5e-05
5e-05
5e-05
5e-05
5e-05
5e-05
5e-05
5e-05
5e-05
5e-05
5e-05
5e-05
5e-05
5e-05
5e-05
5e-05
5e-05
5e-05
5e-05
5e-05
5e-05
5e-05
5e-05
5e-05
5e-05
5e-05
5e-05
5e-05
5e-05
5e-05
5e-05
5e-05
5e-05
5e-05
5e-05
5e-05
5e-05
5e-05
5e-05
5e-05
5e-05
5e-05
5e-05
5e-05
5e-05
5e-05
5e-05
5e-05
5e-05
5e-05
5e-05
5e-05
5e-05
5e-05
5e-05
5e-05
5e-05
5e-05
5e-05
5e-05
5e-05
5e-05
5e-05
5e-05
5e-05
5e-05
5e-05
5e-05
5e-05
5e-05
5e-05
5e-05
5e-05
5e-05
5e-05
5e-05
5e-05
5e-05
5e-05
5e-05
5e-05
5e-05
5e-05
5e-05
5e-05
5e-05
5e-05
5e-05
5e-05
5e-05
5e-05
5e-05
5e-05
5e-05
5e-05
5e-05
5e-05
5e-05
5e-05
5e-05
5e-05
5e-05
5e-05
5e-05
5e-05
5e-05
5e-05
5e-05
5e-05
5e-05
5e-05
5e-05
5e-05
5e-05
5e-05
5e-05
5e-05
5e-05
5e-05
5e-05

SCALARS mass float 1
LOOKUP_TABLE default
1.46608e-10
1.46608e-10
1.46608e-10
1.46608e-10
1.46608e-10
1.46608e-10
1.46608e-10
1.46608e-10
1.46608e-10
1.46608e-10
1.46608e-10
1.46608e-10
1.46608e-10
1.46608e-10
1.46608e-10
1.46608e-10
1.46608e-10
1.46608e-10
1.46608e-10
1.46608e-10
1.46608e-10
1.46608e-10
1.46608e-10
1.46608e-10
1.46608e-10
1.46608e-10
1.46608e-10
1.46608e-10
1.46608e-10
1.46608e-10
1.46608e-10
1.46608e-10
1.46608e-10
1.46608e-10
1.46608e-10
1.46608e-10
1.46608e-10
1.46608e-10
1.46608e-10
1.46608e-10
1.46608e-10
1.46608e-10
1.46608e-10
1.46608e-10
1.46608e-10
1.46608e-10
1.46608e-10
1.46608e-10
1.46608e-10
1.46608e-10
1.46608e-10
1.46608e-10
1.46608e-10
1.46608e-10
1.46608e-10
1.46608e-10
1.46608e-10
1.46608e-10
1.46608e-10
1.46608e-10
1.46608e-10
1.46608e-10
1.46608e-10
1.46608e-10
1.46608e-10
1.46608e-10
1.46608e-10
1.46608e-10
1.46608e-10
1.46608e-10
1.46608e-10
1.46608e-10
1.46608e-10
1.46608e-10
1.46608e-10
1.46608e-10
1.46608e-10
1.46608e-10
1.46608e-10
1.46608e-10
1.46608e-10
1.46608e-10
1.46608e-10
1.46608e-10
1.46608e-10
1.46608e-10
1.46608e-10
1.46608e-10
1.46608e-10
1.46608e-10
1.46608e-10
1.46608e-10
1.46608e-10
1.46608e-10
1.46608e-10
1.46608e-10
1.46608e-10
1.46608e-10
1.46608e-10
1.46608e-10
1.46608e-10
1.46608e-10
1.46608e-10
1.46608e-10
1.46608e-10
1.46608e-10
1.46608e-10
1.46608e-10
1.46608e-10
1.46608e-10
1.46608e-10
1.46608e-10
1.46608e-10
1.46608e-10
1.46608e-10
1.46608e-10
1.46608e-10
1.46608e-10
1.46608e-10
1.46608e-10
1.46608e-10
1.46608e-10
1.46608e-10
1.46608e-10
1.46608e-10
1.46608e-10
1.46608e-10
1.46608e-10
1.46608e-10
1.46608e-10
1.46608e-10
1.46608e-10
1.46608e-10
1.46608e-10
1.46608e-10
1.46608e-10
1.46608e-10
1.46608e-10
1.46608e-10
1.46608e-10
1.46608e-10
1.46608e-10
1.46608e-10
1.46608e-10
1.46608e-10
1.46608e-10
1.46608e-10
1.46608e-10
1.46608e-10
1.46608e-10
1.46608e-10
1.46608e-10
1.46608e-10
1.46608e-10
1.46608e-10
1.46608e-10
1.46608e-10
1.46608e-10
1.46608e-10
1.46608e-10
1.46608e-10
1.46608e-10
1.46608e-10
1.46608e-10
1.46608e-10
1.46608e-10
1.46608e-10
1.46608e-10
1.46608e-10
1.46608e-10
1.46608e-10
1.46608e-10
1.46608e-10
1.46608e-10
1.46608e-10
1.46608e-10
1.46608e-10
1.46608e-10
1.46608e-10
1.46608e-10
1.46608e-10
1.46608e-10
1.46608e-10
1.46608e-10
1.46608e-10
1.46608e-10
1.46608e-10
1.46608e-10
1.46608e-10
1.46608e-10
1.46608e-10
1.46608e-10
1.46608e-10
1.46608e-10
1.46608e-10
1.46608e-10
1.46608e-10
1.46608e-10
1.46608e-10
1.46608e-10
1.46608e-10
1.46608e-10
1.46608e-10
1.46608e-10
1.46608e-10
1.46608e-10
1.46608e-10
1.46608e-10
1.46608e-10
1.46608e-10
1.46608e-10
1.46608e-10
1.46608e-10
1.46608e-10
1.46608e-10
1.46608e-10
1.46608e-10
1.46608e-10
1.46608e-10
1.46608e-10
1.46608e-10
1.46608e-10
1.46608e-10
1.46608e-10
1.46608e-10
1.46608e-10
1.46608e-10
1.46608e-10
1.46608e-10
1.46608e-10
1.46608e-10
1.46608e-10
1.46608e-10
1.46608e-10
1.46608e-10
1.46608e-10
1.46608e-10
1.46608e-10
1.46608e-10
1.46608e-10
1.46608e-10
1.46608e-10
1.46608e-10
1.46608e-10
1.46608e-10
1.46608e-10
1.46608e-10
1.46608e-10
1.46608e-10
1.46608e-10
1.46608e-10
1.46608e-10
1.46608e-10
1.46608e-10
1.46608e-10
1.46608e-10
1.46608e-10
1.46608e-10
1.46608e-10
1.46608e-10
1.46608e-10
1.46608e-10
1.46608e-10
1.46608e-10
1.46608e-10
1.46608e-10
1.46608e-10
1.46608e-10
1.46608e-10
1.46608e-10
1.46608e-10
1.46608e-10
1.46608e-10
1.46608e-10
1.46608e-10

VECTORS velocity float
0.00587393 0.000510699 0.000639891
0.0047366 -0.00028121 0.000982622
0.0060553 -0.000327868 0.00110387
0.00558165 -0.000308452 0.00101932
0.00546863 -0.000439693 5.8219e-05
0.00500848 0.000269981 0.000646091
0.00568589 -0.00037216 0.00107804
0.00592367 -0.000529116 8.08944e-05
0.00562213 -0.000377365 0.00107068
0.00544011 0.0037654 0.00194278
0.00543708 -0.00124626 0.000197083
0.00591974 -0.00114559 -0.000241073
0.00570194 -0.00118858 0.000151779
0.0058819 -0.00116999 0.000698679
0.0056992 -0.000379467 0.00108119
0.00609298 -0.00113638 -0.000216276
0.00520109 0.00045292 0.000559106
0.00531153 0.000525144 0.000542388
0.00589359 -0.00117574 0.000700289
0.00546552 -0.000438019 5.77385e-05
0.00566883 -0.000455682 0.00111834
0.00585929 -0.000517142 7.79535e-05
0.00537781 -0.00114686 0.000155465
0.00626045 -0.000365839 0.0011568
0.0060889 -0.00112257 -0.00022439
0.00606653 -0.000416535 0.00106758
0.0053174 0.000410986 0.00062638
0.00564774 -0.000380716 0.00107479
0.0054611 -0.000438276 5.78871e-05
0.00573762 -0.000373095 0.00108001
0.0042994 0.00266117 -0.000741864
0.00602005 -0.000547353 8.552e-05
0.00605113 -0.000328007 0.00110814
0.00502313 0.000423392 0.000556629
0.0054595 -0.000436563 5.73198e-05
0.00585843 -0.000349921 0.00109286
0.00612107 0.00489435 -0.00164078
0.00471143 0.00383423 -0.00129992
0.00548836 -0.000443524 5.91747e-05
0.00579857 -0.00035786 0.00108467
0.00539147 -0.000508925 0.00109633
0.00595582 -0.000535097 8.23408e-05
0.00561623 -0.000365019 0.0010607
0.00598459 0.000580696 0.000621575
0.00582277 -0.00116812 0.000697367
0.00547682 -0.00044081 5.84842e-05
0.00609492 0.000127026 0.00123973
0.0055247 -0.00118155 0.000160422
0.00599553 0.000533208 0.000647416
0.00548253 -0.00044218 5.88504e-05
-5.01944e-15 -7.41204e-15 7.69803e-14
0.00501461 0.000144084 0.000701038
0.0057425 -0.000336521 0.00107097
0.00491088 0.000869806 0.000241043
0.00593344 0.000516146 0.00064149
0.00547104 -0.000439488 5.81099e-05
0.00563312 -0.00117287 0.0001514
0.00585268 -0.00116471 0.000690297
0.00590877 0.000488181 0.000658392
0.006094 -0.000285753 0.00106503
0.0060488 -5.92223e-05 0.00096468
0.00589148 -0.000523128 7.94243e-05
0.00583412 -0.00117337 0.000700901
0.00596386 -0.000162444 0.000990762
0.0057492 0.00188432 -0.000116424
0.00617985 -0.000430662 0.00113447
0.00549108 -0.00115988 0.000154092
0.00531902 -0.000227523 0.000653864
0.00588217 -0.000328794 0.000988816
0.0058291 -0.00114277 0.000697577
0.00604418 -0.000325611 0.0010979
0.00584445 -0.00121902 0.000719392
0.00546934 -0.00127048 0.000205462
0.00598796 -0.000541136 8.3827e-05
0.00582968 -0.00116798 0.000698515
0.00545131 0.00375086 -0.00113418
0.00627537 -0.000363443 0.00116786
0.00517949 0.00023579 0.000719378
0.00600354 -0.000173003 0.00101446
0.00593456 0.000506651 0.000645311
0.00538183 -0.00115279 0.00015723
0.00540288 -0.000617427 0.00107511
0.00659319 -0.000355156 0.00120392
0.00540334 0.000714096 0.000624149
0.00506181 0.000403516 0.000622119
0.00463238 -7.37948e-05 0.000768555
0.00568426 -0.000952601 0.000330283
0.0062497 0.00011159 0.000908536
0.00584968 -0.00118746 0.000136291
0.00499041 0.000255521 0.000646588
0.00563283 -0.0014038 0.000186936
4.20646e-15 1.05408e-14 8.29578e-14
-1.12215e-22 4.86658e-23 1.23839e-22
0.00587765 -0.00117049 0.000702951
0.005607 -0.000435039 0.00121743
0.00587292 -0.00135394 0.000683585
0.00545817 -0.000294542 0.000903459
0.00600437 -0.000247989 0.00102489
0.00599445 -7.77124e-05 0.000973606
0.0062095 -0.000313204 0.000542433
0.00605694 -0.000367571 0.00107769
0.0053442 -0.0010734 0.000390759
0.00566098 -0.00114562 0.000134742
0.00577789 -0.00116098 0.000136172
0.00510028 0.000301568 0.000619838
0.00499664 -2.35891e-05 0.000795979
0.00549519 0.000217967 0.000773882
0.00564015 -0.00120024 0.000160823
0.0060196 -2.72849e-05 0.000968259
0.00607613 -0.000333707 0.00111727
0.00561524 -0.000334685 0.00104572
0.0060975 -0.000300736 0.00109193
0.00582707 -0.00117212 0.000698462
0.00599336 0.00155911 0.000104924
0.00466025 -0.000176309 0.000834179
0.00536867 -0.00104112 0.000375741
0.00595739 -0.000740695 0.00131032
0.00582762 0.000444837 0.000666582
0.00577938 -0.00120747 0.000155269
0.00582278 -0.00122634 0.000160498
0.00608328 -0.000249857 0.00105948
0.0049789 -0.000451687 0.00125297
0.00548382 -0.00032536 0.00101228
0.0064407 0.000106974 0.000932921
0.00543642 -0.00116778 0.000160352
0.00527442 -0.000441101 0.00104351
0.00466134 -0.000151605 0.00118006
0.00605626 -0.000321583 0.0010921
0.00525122 -0.00111821 0.000233103
0.0058954 -0.0012322 0.000564088
0.00557608 -0.000323009 0.000908499
0.00579997 -0.00137056 0.000231506
0.00564085 -0.000474986 0.000949161
0.00575427 -0.00119392 0.000148532
0.0052221 -0.00113505 0.000171504
0.00563949 -0.000344935 0.00105848
0.00583274 -0.00118077 0.000578062
0.00586541 -0.00134346 0.00070772
0.00517189 -0.00112504 0.000156675
0.00563601 -0.000227107 0.0010764
0.00561138 -0.00100483 0.000586894
0.0053232 -0.00109544 0.000322103
-3.83783e-14 8.16382e-14 2.9589e-13
0.00536058 -0.00115277 0.000159128
0.0060602 -0.000309372 0.00109244
0.00586728 -0.00132213 0.000683515
0.00584429 -0.00119107 0.000689053
0.00532928 -0.00108667 0.00039547
0.00587518 -0.00117614 0.000702855
0.00536835 -0.000479615 0.00108503
0.00586463 -0.00116304 0.000699582
0.00583087 -0.00116636 0.000698249
0.00586897 -0.00119233 0.000702563
0.00582891 -0.00117045 0.000697751
0.00597192 0.000529707 0.000644924
0.00562756 -0.00114709 0.000135582
0.00617133 -0.000100537 0.00100802
0.00533492 -0.00109762 0.000398774
0.0056863 -0.00137427 0.000207695
0.00531451 -0.00106091 0.000388054
0.00563348 -0.0011414 0.000147087
0.00585916 -0.00116373 0.000708662
0.00585888 0.000514076 0.000649551
0.00591924 -0.00128696 0.000692834
0.00641171 -5.33239e-05 0.00104422
0.00587885 -0.00133978 0.000327819
0.00582112 -0.00117298 0.000697322
0.00567692 0.000502754 0.00059595
0.00493405 -1.94461e-05 0.000500893
0.00549108 -0.00066059 0.00119767
0.0056622 0.00032877 -3.0438e-05
0.00459304 -0.000182536 0.00117116
0.00572999 -0.00114802 0.00013194
0.00644381 -0.000117179 0.000992446
0.00585514 -0.0011686 0.000709788
0.00584869 -0.00136307 0.00070663
0.00584987 -0.00119758 0.000386491
0.00570937 0.000130733 -0.000663672
0.00564044 -0.00132937 0.000220552
0.00584246 -0.00117202 0.000707093
0.00541311 -0.000433098 0.00119916
0.00588323 -0.00117472 0.000701517
0.00537934 -0.00115272 0.000158061
0.00540813 -0.000284745 0.000888875
0.00586633 -0.00116208 0.000704436
0.00522313 -0.00113738 0.000162243
0.00528564 -0.00113794 0.000157255
0.00535294 -0.0010932 0.000396761
0.00558052 -0.00119009 0.000160883
0.00558686 -0.00116007 0.000146472
0.00626903 -0.000406081 0.00117214
0.00565855 -0.000320111 0.00104415
0.00586907 -0.00116993 0.000704774
0.00543767 -0.000674235 0.00119371
0.00567686 -0.000111136 0.0009626
0.00623964 0.000232398 1.31533e-05
0.00533719 -0.00108365 0.000396413
0.005931 0.000519 0.000641202
0.00581537 -0.00116586 0.000136145
0.00611133 -0.00019717 0.00104563
0.00577323 -0.0012314 0.000162221
0.00542466 0.000334893 0.00066399
0.00522527 -0.00106335 0.000126887
0.00610005 -0.000335929 0.00107347
0.00594935 -0.00130237 0.000572377
0.00629481 0.000230287 1.7683e-05
0.00618573 0.000252846 1.09413e-05
0.00582228 -0.00117435 0.000697647
0.0055311 -0.00113467 0.000138993
0.0058624 -0.00117618 0.000702127
0.00587969 -0.0011559 0.000703662
0.00603944 -8.16351e-05 0.00097755
0.00522794 -0.00112602 0.000155366
0.0057462 -0.00118052 0.000135318
0.00554916 -0.00112741 0.000135021
0.00514735 0.00034519 -0.000730953
0.00563857 0.000184909 -0.000687404
0.00559256 0.000265518 -0.000729924
0.00553807 -0.00129774 0.000213848
0.00585275 -0.00123818 0.000221992
0.00550636 0.00024427 -0.000708711
0.00590914 1.88871e-05 -0.000620417
0.0052005 -0.0010812 0.000395527
0.00585319 -0.00114767 0.000110682
0.0058029 8.05371e-05 -0.000645991
0.00521628 -0.00115756 0.000172657
0.00450463 -0.00022698 0.000786212
0.00601983 7.34345e-06 -0.00060704
0.00571614 0.000322176 -2.78772e-05
0.00587371 4.76621e-05 -0.000632919
0.00580609 -0.00118108 7.55014e-05
0.00584888 -0.00117208 0.000701942
0.00523928 -0.00113417 0.000155476
0.00576226 -0.00122193 0.000136083
0.00609319 3.35441e-05 -0.000528831
0.00588321 -0.0011834 0.000704512
0.00554335 -0.00115113 0.000146096
0.00559002 -0.00113329 0.000133601
0.00576828 0.000106503 -0.000655764
0.00532592 -0.0010809 0.000389432
0.00572681 0.000313486 -3.59326e-05
0.00596526 -0.00133221 0.000198093
0.00522138 -0.00114638 0.000171939
0.00572961 -0.00135586 0.000224825
0.0058537 -0.00125141 0.000164113
0.00603889 -0.000309812 0.00109073
0.00583897 -0.00115376 0.000698818
0.0062117 0.000239085 -1.93309e-06
0.005243 -0.00113665 0.000159301
0.00612289 0.000164974 -0.00022593
0.00534289 -0.00109253 0.000394999
0.00534214 -0.00109258 0.000400765
0.00517584 -0.00105929 0.000400762
0.00572924 -0.00121781 0.000163959
0.0056743 0.000424097 -2.17991e-05
0.0063732 0.00021622 2.75982e-05
0.00588358 -0.00131644 0.000713976
0.00557232 0.000219939 -0.000700919
0.00553698 -0.00111335 0.000135608
0.00546738 -0.00111584 0.000135213
0.00531162 -0.00107883 0.000396128
0.00523762 -0.00110947 0.000147073
0.00587088 -0.00118266 0.000590012
0.00530978 -0.00106849 0.000391472
0.00551391 -0.00114741 0.000143539
0.00582462 -0.00123948 0.000168477
0.00585893 -0.00118142 0.000701531
0.00552005 -0.00112101 0.000135075
0.00559579 -0.0011576 0.000145632
0.00639432 0.00021367 3.04872e-05
0.00521708 -0.00114748 0.000165881
0.00556113 0.000322445 0.000353331
0.00565741 0.00015288 -0.000671039
0.00590642 2.20334e-05 -0.000622384
0.00518898 -0.000863712 0.00125949

VECTORS force float
-1.79113e-10 1.35357e-10 -6.55052e-11
-6.47077e-10 -6.97212e-10 8.2245e-11
-2.2172e-10 1.28463e-10 -1.62478e-10
-1.05924e-10 2.16515e-10 -1.13759e-10
4.01571e-13 1.51093e-12 4.44591e-14
-4.46015e-11 5.86665e-11 -1.38521e-12
-2.10513e-10 1.99647e-10 -1.59383e-10
1.30247e-12 -1.95868e-12 -1.14425e-12
1.84101e-10 3.27706e-10 -2.12482e-10
0.0 0.0 -1.43822e-09
-1.12267e-10 5.09356e-11 -2.42814e-11
-2.09198e-10 4.48551e-11 -3.32507e-10
-2.18194e-10 -2.20749e-10 1.22748e-10
4.30564e-11 -1.1112e-11 7.75401e-11
-2.09799e-10 -2.68371e-11 -2.88449e-12
-6.56689e-11 1.66294e-10 -2.28023e-10
-6.96787e-11 7.49423e-11 -9.8887e-11
-8.30549e-10 5.45796e-10 -3.51413e-10
-6.78512e-11 3.00286e-14 5.24702e-11
5.21441e-13 2.45839e-12 -7.55264e-13
-4.20509e-10 1.63058e-10 -1.44455e-10
1.46871e-12 -3.63788e-13 3.95975e-13
-1.63663e-10 7.66452e-11 -2.32446e-11
-1.58926e-10 -8.68074e-11 -4.25705e-11
3.70266e-10 2.54314e-10 -5.23338e-10
3.03117e-11 1.40633e-10 -2.02201e-10
1.12189e-10 -3.24886e-11 -6.59029e-11
7.16214e-11 5.14897e-11 -6.09183e-11
7.99134e-13 1.59596e-12 -6.82942e-13
-2.52654e-10 -2.47841e-10 1.33054e-10
-7.00968e-10 2.55906e-10 -2.43756e-10
4.46957e-13 -4.19457e-12 9.69394e-13
-7.22234e-10 6.03864e-10 -4.54906e-10
-2.40979e-10 -4.19599e-10 4.22758e-10
1.0173e-12 1.44842e-12 -8.04184e-13
-2.01549e-10 -5.35351e-11 5.11166e-11
-6.52622e-10 1.98813e-10 -2.0609e-10
5.90468e-10 -6.26987e-11 1.13462e-10
1.19105e-12 2.62293e-12 -1.06982e-12
-2.61934e-10 -3.51377e-10 2.04117e-10
1.23245e-10 6.09881e-10 -2.12795e-10
-1.15933e-13 -1.99954e-12 7.57285e-13
2.26058e-10 3.50831e-11 -1.10472e-10
-4.442e-10 1.07547e-10 -9.80479e-11
8.36166e-11 6.1127e-11 1.68713e-12
1.76731e-13 1.72108e-12 -4.9138e-13
1.20652e-10 6.1687e-10 -1.47526e-09
4.26853e-11 -2.65986e-12 1.72956e-12
-2.20439e-10 -1.4728e-10 -1.59743e-10
7.37834e-13 2.44726e-12 -1.30279e-12
2.79173e-24 3.17948e-24 6.20385e-25
-3.46964e-10 1.34872e-10 -1.26091e-10
-8.92053e-11 1.55968e-10 -7.86052e-11
-7.37838e-10 4.38606e-10 -4.39491e-10
-6.87348e-11 2.85595e-11 -2.63446e-11
3.73752e-13 1.81002e-12 -3.07003e-13
-5.24466e-11 -1.16618e-10 8.52795e-11
1.95852e-12 4.26634e-11 -4.43565e-12
6.34721e-11 6.43888e-11 -1.45214e-11
7.01925e-12 4.9482e-10 -7.20128e-11
-8.67596e-10 2.69702e-10 -2.65772e-10
1.17626e-12 -9.32102e-13 7.16145e-13
-4.03566e-11 1.15221e-10 -3.4304e-11
-1.45792e-10 -1.92564e-10 -3.26126e-10
-6.0353e-10 3.04173e-10 -5.64115e-10
-8.51733e-11 3.42919e-11 -2.60027e-10
1.65347e-10 -6.58905e-12 1.74991e-11
1.8253e-10 -3.39584e-10 1.42414e-09
8.63605e-11 1.91023e-10 -5.32994e-10
-2.68804e-11 -5.8959e-11 -2.96634e-12
-5.10229e-10 4.08449e-10 -2.96914e-10
-5.59554e-11 -4.72999e-12 1.17214e-10
-2.14073e-10 -4.95379e-11 3.94893e-11
-1.05012e-12 -2.27306e-12 2.26546e-12
7.94028e-11 3.90202e-11 1.29495e-11
1.19574e-09 -6.77687e-10 7.86335e-10
-2.16657e-11 1.28649e-10 -9.72211e-11
8.49527e-11 9.6327e-11 6.08651e-11
-2.54963e-10 -2.60526e-10 -4.02909e-10
-7.61444e-11 3.70498e-10 -3.31751e-10
-4.81967e-11 -4.7516e-11 2.5017e-11
-3.02051e-11 3.82745e-10 -4.39582e-11
-1.73031e-09 1.41366e-09 -5.15043e-10
1.29431e-11 -2.63979e-11 -3.67843e-10
-2.54988e-10 1.83133e-10 -3.79807e-11
-5.17048e-10 -6.43762e-10 1.31084e-10
3.81602e-10 -5.90568e-10 5.01006e-11
-5.62936e-10 3.5144e-10 -2.7723e-10
-2.6067e-11 4.83127e-11 3.79958e-11
1.4943e-10 1.13773e-10 9.93457e-11
-8.1763e-13 7.93583e-10 -7.76796e-11
-1.85795e-21 5.86652e-22 1.63368e-23
3.23117e-27 0.0 0.0
-7.17508e-11 -7.15712e-12 2.98251e-12
-2.81265e-10 6.53639e-11 -2.04604e-10
1.55456e-11 -2.50798e-10 -1.20232e-10
-2.29901e-10 1.58404e-10 -5.92799e-10
1.44009e-11 -1.28496e-10 -1.24483e-09
1.31813e-10 1.01168e-09 -4.22413e-10
1.03203e-09 -1.40901e-10 2.26467e-09
1.71838e-10 3.56999e-10 1.82361e-10
1.51693e-11 -6.77991e-11 7.80434e-11
-2.73644e-10 -1.005e-10 5.39955e-11
1.94559e-10 7.64857e-11 -4.55109e-11