# vtk DataFile Version 3.0
LIGGGHTS particles timestep 39200000
ASCII
DATASET POLYDATA
POINTS 275 float
0.241837 0.0182406 0.00704243
0.24151 0.0171847 0.00746102
0.241667 0.0170844 0.00753365
0.241022 0.0154928 0.00893881
0.247454 0.0169601 0.00757061
0.241793 0.0176023 0.00708055
0.2415 0.0168366 0.00775524
0.24765 0.017754 0.00702909
0.241153 0.0159343 0.00855451
0.241706 0.0177568 0.00712161
0.235798 0.0172124 0.0072284
0.241 0.0154191 0.00900277
0.235767 0.0178988 0.00700649
0.23596 0.0184125 0.00690739
0.241127 0.0158614 0.00861799
0.240979 0.0153453 0.00906697
0.241832 0.017782 0.00702677
0.241458 0.01669 0.0078845
0.235996 0.0181549 0.0069573
0.247576 0.0174175 0.0072022
0.241191 0.0160815 0.00842467
0.247617 0.0175735 0.00708403
0.235608 0.0171588 0.00726618
0.241586 0.0171297 0.00749675
0.240959 0.0152715 0.00913135
0.241279 0.0163737 0.00816618
0.241874 0.0175555 0.00711891
0.241216 0.0161537 0.0083602
0.247475 0.0170362 0.00750928
0.241106 0.0157879 0.00868234
0.241765 0.0174523 0.00720955
0.24771 0.0180479 0.00703253
0.241645 0.0170113 0.0075982
0.24173 0.0173045 0.00733962
0.247595 0.0174949 0.00714192
0.241064 0.0156404 0.0088106
0.241768 0.0171111 0.00750724
0.241829 0.0173314 0.00731303
0.247496 0.0171122 0.00744794
0.241085 0.0157142 0.00874645
0.241702 0.0180128 0.00703461
0.24767 0.017852 0.00703012
0.241234 0.0162276 0.00829509
0.241888 0.0176319 0.00705604
0.235859 0.0174887 0.00712553
0.247539 0.0172643 0.00732527
0.24203 0.0178556 0.00702952
0.235784 0.0175528 0.00710832
0.242009 0.0177569 0.0070263
0.247518 0.0171882 0.0073866
0.378022 0.019866 0.005332
0.241845 0.0174055 0.00724787
0.241042 0.0155666 0.00887461
0.241749 0.0173784 0.0072751
0.241744 0.0180622 0.00712285
0.247559 0.0173406 0.00726382
0.235822 0.0177379 0.00704034
0.235927 0.0180934 0.00705532
0.241852 0.0178799 0.00702996
0.241649 0.0173518 0.00730453
0.241935 0.0178239 0.00702831
0.24763 0.0176561 0.00702914
0.236129 0.0183796 0.00691405
0.241912 0.0181742 0.00703978
0.24117 0.0160079 0.00848886
0.241255 0.0163009 0.00823046
0.235723 0.0172766 0.0072111
0.241531 0.017253 0.00739089
0.235103 0.0156435 0.00849543
0.236018 0.0187016 0.00685151
0.241607 0.0172044 0.00743369
0.235852 0.0181588 0.00704271
0.235818 0.0173042 0.00719423
0.24769 0.01795 0.00703133
0.236168 0.0185723 0.00687681
0.241809 0.0172578 0.00737788
0.241564 0.0170574 0.0075624
0.241701 0.0175738 0.00710561
0.241805 0.0177463 0.00711634
0.241874 0.0179806 0.00703325
0.235778 0.0171248 0.0072727
0.241622 0.0176232 0.00706795
0.24134 0.016594 0.00797201
0.24171 0.0178655 0.00711601
0.241652 0.0175206 0.0072628
0.241607 0.0175476 0.00713142
0.235213 0.0159469 0.00811473
0.241318 0.0165207 0.00803662
0.235751 0.0182525 0.00693799
0.241808 0.0176831 0.00702353
0.23577 0.0183488 0.00691938
0.0643568 0.0187248 0.00531097
0.24257 0.0191927 0.00520306
0.236054 0.0184442 0.00690141
0.235161 0.0158269 0.00826543
0.235832 0.0180612 0.00706129
0.235122 0.0157046 0.00841876
0.241955 0.0179218 0.00703151
0.241989 0.0176593 0.00703314
0.241488 0.0171068 0.00751978
0.241446 0.0169602 0.00764903
0.235241 0.0160702 0.00796028
0.235673 0.0178694 0.0070208
0.235712 0.0180599 0.00697521
0.241789 0.0171844 0.00744258
0.241777 0.0179464 0.00703197
0.241781 0.0175263 0.00714446
0.235897 0.0176738 0.00705678
0.241962 0.0180288 0.00703498
0.241479 0.0167633 0.00781987
0.241781 0.0184047 0.00704857
0.241591 0.0174734 0.00719667
0.236149 0.018476 0.00689542
0.241361 0.0166707 0.00791158
0.241685 0.0174996 0.00717082
0.235181 0.0158893 0.00818982
0.241297 0.0164474 0.00810125
0.241672 0.0176655 0.00714399
0.235807 0.0180914 0.00696928
0.235826 0.0181879 0.00695062
0.241688 0.0171578 0.00746898
0.241797 0.0180444 0.00703629
0.241757 0.0178479 0.00702875
0.241915 0.0177264 0.00703745
0.235764 0.0174603 0.0071427
0.241631 0.0176033 0.00721084
0.241662 0.0178175 0.00704232
0.241552 0.0173263 0.00732625
0.235603 0.016755 0.00748542
0.235976 0.0180583 0.00697597
0.235142 0.0157658 0.0083421
0.235937 0.017865 0.00701332
0.235284 0.0161952 0.00781156
0.235787 0.0179951 0.00698789
0.235625 0.0168416 0.00743538
0.241403 0.0168137 0.0077783
0.235962 0.0188625 0.00682027
0.235904 0.0185733 0.00687615
0.235645 0.0169266 0.00738628
0.235261 0.0161405 0.00789203
0.235302 0.0162782 0.00775886
0.235581 0.0166702 0.00753434
0.0219312 0.0187687 0.00551176
0.235683 0.0170966 0.00728813
0.241709 0.0172311 0.00740433
0.23579 0.0184452 0.00690076
0.235893 0.0183543 0.0070056
0.235368 0.0165317 0.00761251
0.235998 0.0186052 0.00687014
0.241682 0.0179149 0.00703141
0.235867 0.0188305 0.00682631
0.236037 0.0187979 0.0068329
0.235886 0.0189268 0.0068077
0.235943 0.0187662 0.00683888
0.241856 0.0183387 0.00704593
0.235653 0.0177742 0.00704446
0.241884 0.0180768 0.00707482
0.235411 0.0167008 0.00751488
0.235709 0.0176168 0.00709111
0.235398 0.0163052 0.00774415
0.235718 0.017941 0.00708767
0.235807 0.018518 0.00697933
0.241801 0.0185027 0.00705206
0.23575 0.018118 0.00704719
0.241732 0.017963 0.00711956
0.235957 0.0179617 0.00699465
0.236224 0.0184113 0.00690807
0.241817 0.0181424 0.00703893
0.24167 0.0174254 0.00723604
0.241762 0.0183067 0.00704508
0.229827 0.0186272 0.00685378
0.241424 0.016887 0.00771366
0.235692 0.0179637 0.0069938
0.241876 0.0184367 0.00704942
0.235873 0.0182569 0.00702418
0.235884 0.018477 0.00689477
0.235921 0.0182197 0.00694463
0.229509 0.0172115 0.00752254
0.235838 0.0173961 0.00716001
0.235751 0.0182325 0.00703597
0.23523 0.0160129 0.00804156
0.235979 0.0185088 0.00688877
0.235703 0.0171849 0.00724554
0.241734 0.0177495 0.00702553
0.236016 0.0182515 0.00693865
0.23555 0.0168981 0.00740188
0.235588 0.0170683 0.00730358
0.235464 0.0165591 0.00759758
0.235878 0.0175812 0.00709116
0.235803 0.0176451 0.007074
0.241521 0.0169099 0.00769058
0.241543 0.0169832 0.00762595
0.236074 0.0185406 0.00688279
0.241742 0.0182086 0.00704158
0.241628 0.017279 0.00737058
0.229735 0.0181713 0.0070353
0.235442 0.0164742 0.00764659
0.24182 0.0186007 0.00705555
0.235732 0.0181562 0.00695661
0.241382 0.0167404 0.00784292
0.235846 0.0182843 0.00693201
0.241863 0.0174794 0.00718292
0.235628 0.0172491 0.00722794
0.241467 0.0170336 0.00758443
0.235817 0.0179563 0.00708586
0.229751 0.0182594 0.00699086
0.229697 0.0179962 0.00712401
0.236093 0.018637 0.00686416
0.235533 0.0172217 0.00724511
0.235885 0.0184545 0.00699221
0.235848 0.0187342 0.00684492
0.241765 0.0176405 0.00716865
0.235494 0.0170425 0.00732442
0.235594 0.0174969 0.00714229
0.235614 0.0175887 0.00710813
0.2294 0.0167764 0.00774378
0.229465 0.0170375 0.00761104
0.229379 0.0166894 0.00778803
0.235759 0.0170399 0.00732176
0.235901 0.0181232 0.00696329
0.229422 0.0168634 0.00769954
0.229617 0.0176466 0.00730131
0.235432 0.0167854 0.00746608
0.235747 0.0178026 0.00702507
0.229552 0.0173855 0.00743405
0.235507 0.0167283 0.00749993
0.241714 0.0176524 0.00703957
0.229639 0.0177336 0.00725706
0.229807 0.0185345 0.00688568
0.229574 0.0174725 0.0073898
0.235083 0.0155824 0.0085721
0.236035 0.0183478 0.00692004
0.235664 0.0170117 0.00733717
0.235728 0.017709 0.00705696
0.229659 0.017821 0.00721272
0.235923 0.0186698 0.00685751
0.235689 0.0175245 0.00712541
0.235634 0.0176807 0.00707422
0.229531 0.0172985 0.0074783
0.235324 0.0163627 0.0077101
0.229845 0.0187217 0.00682665
0.235865 0.0183806 0.00691339
0.235529 0.0168129 0.00745106
0.235917 0.0177688 0.00703192
0.235882 0.0180265 0.00698196
0.241572 0.0173997 0.00726154
0.235854 0.0186084 0.00695558
0.229715 0.0180839 0.00707964
0.235569 0.0169831 0.00735279
0.229679 0.0179084 0.00716841
0.235389 0.0166163 0.00756367
0.235485 0.0166436 0.00754878
0.235454 0.0168699 0.00741727
0.235842 0.0178337 0.00701923
0.229834 0.018208 0.00701096
0.229769 0.018349 0.00695034
0.235809 0.0185415 0.00688215
0.229444 0.0169505 0.00765529
0.235554 0.0173134 0.00721062
0.235649 0.0173409 0.00719378
0.235346 0.0164472 0.00766127
0.235513 0.0171313 0.00728285
0.23594 0.018316 0.00692602
0.23542 0.0163897 0.00769535
0.235743 0.0173684 0.00717692
0.235862 0.0179302 0.00700057
0.235828 0.0186378 0.00686354
0.235669 0.0174327 0.00715961
0.235574 0.0174051 0.00717646
0.229788 0.0184417 0.00691795
0.235475 0.0169565 0.00737171
0.241722 0.0181107 0.00703809
0.229487 0.0171245 0.00756679
0.229596 0.0175596 0.00734555
0.241642 0.0177202 0.00705368

VERTICES 275 550
1 0
1 1
1 2
1 3
1 4
1 5
1 6
1 7
1 8
1 9
1 10
1 11
1 12
1 13
1 14
1 15
1 16
1 17
1 18
1 19
1 20
1 21
1 22
1 23
1 24
1 25
1 26
1 27
1 28
1 29
1 30
1 31
1 32
1 33
1 34
1 35
1 36
1 37
1 38
1 39
1 40
1 41
1 42
1 43
1 44
1 45
1 46
1 47
1 48
1 49
1 50
1 51
1 52
1 53
1 54
1 55
1 56
1 57
1 58
1 59
1 60
1 61
1 62
1 63
1 64
1 65
1 66
1 67
1 68
1 69
1 70
1 71
1 72
1 73
1 74
1 75
1 76
1 77
1 78
1 79
1 80
1 81
1 82
1 83
1 84
1 85
1 86
1 87
1 88
1 89
1 90
1 91
1 92
1 93
1 94
1 95
1 96
1 97
1 98
1 99
1 100
1 101
1 102
1 103
1 104
1 105
1 106
1 107
1 108
1 109
1 110
1 111
1 112
1 113
1 114
1 115
1 116
1 117
1 118
1 119
1 120
1 121
1 122
1 123
1 124
1 125
1 126
1 127
1 128
1 129
1 130
1 131
1 132
1 133
1 134
1 135
1 136
1 137
1 138
1 139
1 140
1 141
1 142
1 143
1 144
1 145
1 146
1 147
1 148
1 149
1 150
1 151
1 152
1 153
1 154
1 155
1 156
1 157
1 158
1 159
1 160
1 161
1 162
1 163
1 164
1 165
1 166
1 167
1 168
1 169
1 170
1 171
1 172
1 173
1 174
1 175
1 176
1 177
1 178
1 179
1 180
1 181
1 182
1 183
1 184
1 185
1 186
1 187
1 188
1 189
1 190
1 191
1 192
1 193
1 194
1 195
1 196
1 197
1 198
1 199
1 200
1 201
1 202
1 203
1 204
1 205
1 206
1 207
1 208
1 209
1 210
1 211
1 212
1 213
1 214
1 215
1 216
1 217
1 218
1 219
1 220
1 221
1 222
1 223
1 224
1 225
1 226
1 227
1 228
1 229
1 230
1 231
1 232
1 233
1 234
1 235
1 236
1 237
1 238
1 239
1 240
1 241
1 242
1 243
1 244
1 245
1 246
1 247
1 248
1 249
1 250
1 251
1 252
1 253
1 254
1 255
1 256
1 257
1 258
1 259
1 260
1 261
1 262
1 263
1 264
1 265
1 266
1 267
1 268
1 269
1 270
1 271
1 272
1 273
1 274

POINT_DATA 275
SCALARS id int 1
LOOKUP_TABLE default
1
2
4
5
6
7
8
9
10
11
12
13
14
16
17
19
21
22
23
24
25
26
27
28
29
30
31
32
33
34
35
36
37
38
39
41
42
44
45
47
48
49
50
51
52
53
54
55
56
57
59
60
61
62
63
64
65
66
67
68
69
70
71
72
73
74
76
77
78
79
80
82
83
84
85
86
87
88
89
90
91
92
93
94
95
96
97
98
99
100
101
102
103
104
105
106
107
108
109
110
111
112
113
114
115
116
117
118
119
120
121
122
123
124
125
127
128
129
130
131
132
133
134
135
136
137
138
140
141
142
143
144
146
147
148
149
150
151
153
154
155
156
157
158
159
160
162
164
165
166
167
168
169
170
171
172
173
174
176
177
178
179
182
183
184
185
186
187
188
189
190
191
192
193
194
195
196
197
198
199
200
201
202
203
204
205
206
207
208
209
210
211
212
213
214
215
216
217
218
219
220
222
224
225
226
227
228
229
230
232
233
234
235
236
237
239
240
241
242
243
244
246
247
248
249
250
251
252
253
254
255
256
257
258
259
260
261
262
263
264
265
266
267
268
269
270
271
272
273
274
275
276
277
278
279
280
281
283
284
285
286
287
288
289
290
291
292
293
294
295
296
297
298
299
300

SCALARS type int 1
LOOKUP_TABLE default
1
1
1
1
1
1
1
1
1
1
1
1
1
1
1
1
1
1
1
1
1
1
1
1
1
1
1
1
1
1
1
1
1
1
1
1
1
1
1
1
1
1
1
1
1
1
1
1
1
1
1
1
1
1
1
1
1
1
1
1
1
1
1
1
1
1
1
1
1
1
1
1
1
1
1
1
1
1
1
1
1
1
1
1
1
1
1
1
1
1
1
1
1
1
1
1
1
1
1
1
1
1
1
1
1
1
1
1
1
1
1
1
1
1
1
1
1
1
1
1
1
1
1
1
1
1
1
1
1
1
1
1
1
1
1
1
1
1
1
1
1
1
1
1
1
1
1
1
1
1
1
1
1
1
1
1
1
1
1
1
1
1
1
1
1
1
1
1
1
1
1
1
1
1
1
1
1
1
1
1
1
1
1
1
1
1
1
1
1
1
1
1
1
1
1
1
1
1
1
1
1
1
1
1
1
1
1
1
1
1
1
1
1
1
1
1
1
1
1
1
1
1
1
1
1
1
1
1
1
1
1
1
1
1
1
1
1
1
1
1
1
1
1
1
1
1
1
1
1
1
1
1
1
1
1
1
1
1
1
1
1
1
1
1
1
1
1
1
1
1
1
1
1
1
1

SCALARS radius float 1
LOOKUP_TABLE default
5e-05
5e-05
5e-05
5e-05
5e-05
5e-05
5e-05
5e-05
5e-05
5e-05
5e-05
5e-05
5e-05
5e-05
5e-05
5e-05
5e-05
5e-05
5e-05
5e-05
5e-05
5e-05
5e-05
5e-05
5e-05
5e-05
5e-05
5e-05
5e-05
5e-05
5e-05
5e-05
5e-05
5e-05
5e-05
5e-05
5e-05
5e-05
5e-05
5e-05
5e-05
5e-05
5e-05
5e-05
5e-05
5e-05
5e-05
5e-05
5e-05
5e-05
5e-05
5e-05
5e-05
5e-05
5e-05
5e-05
5e-05
5e-05
5e-05
5e-05
5e-05
5e-05
5e-05
5e-05
5e-05
5e-05
5e-05
5e-05
5e-05
5e-05
5e-05
5e-05
5e-05
5e-05
5e-05
5e-05
5e-05
5e-05
5e-05
5e-05
5e-05
5e-05
5e-05
5e-05
5e-05
5e-05
5e-05
5e-05
5e-05
5e-05
5e-05
5e-05
5e-05
5e-05
5e-05
5e-05
5e-05
5e-05
5e-05
5e-05
5e-05
5e-05
5e-05
5e-05
5e-05
5e-05
5e-05
5e-05
5e-05
5e-05
5e-05
5e-05
5e-05
5e-05
5e-05
5e-05
5e-05
5e-05
5e-05
5e-05
5e-05
5e-05
5e-05
5e-05
5e-05
5e-05
5e-05
5e-05
5e-05
5e-05
5e-05
5e-05
5e-05
5e-05
5e-05
5e-05
5e-05
5e-05
5e-05
5e-05
5e-05
5e-05
5e-05
5e-05
5e-05
5e-05
5e-05
5e-05
5e-05
5e-05
5e-05
5e-05
5e-05
5e-05
5e-05
5e-05
5e-05
5e-05
5e-05
5e-05
5e-05
5e-05
5e-05
5e-05
5e-05
5e-05
5e-05
5e-05
5e-05
5e-05
5e-05
5e-05
5e-05
5e-05
5e-05
5e-05
5e-05
5e-05
5e-05
5e-05
5e-05
5e-05
5e-05
5e-05
5e-05
5e-05
5e-05
5e-05
5e-05
5e-05
5e-05
5e-05
5e-05
5e-05
5e-05
5e-05
5e-05
5e-05
5e-05
5e-05
5e-05
5e-05
5e-05
5e-05
5e-05
5e-05
5e-05
5e-05
5e-05
5e-05
5e-05
5e-05
5e-05
5e-05
5e-05
5e-05
5e-05
5e-05
5e-05
5e-05
5e-05
5e-05
5e-05
5e-05
5e-05
5e-05
5e-05
5e-05
5e-05
5e-05
5e-05
5e-05
5e-05
5e-05
5e-05
5e-05
5e-05
5e-05
5e-05
5e-05
5e-05
5e-05
5e-05
5e-05
5e-05
5e-05
5e-05
5e-05
5e-05
5e-05
5e-05
5e-05
5e-05
5e-05
5e-05
5e-05
5e-05
5e-05
5e-05
5e-05
5e-05
5e-05
5e-05
5e-05
5e-05
5e-05
5e-05
5e-05
5e-05
5e-05
5e-05
5e-05
5e-05
5e-05
5e-05

SCALARS mass float 1
LOOKUP_TABLE default
1.46608e-10
1.46608e-10
1.46608e-10
1.46608e-10
1.46608e-10
1.46608e-10
1.46608e-10
1.46608e-10
1.46608e-10
1.46608e-10
1.46608e-10
1.46608e-10
1.46608e-10
1.46608e-10
1.46608e-10
1.46608e-10
1.46608e-10
1.46608e-10
1.46608e-10
1.46608e-10
1.46608e-10
1.46608e-10
1.46608e-10
1.46608e-10
1.46608e-10
1.46608e-10
1.46608e-10
1.46608e-10
1.46608e-10
1.46608e-10
1.46608e-10
1.46608e-10
1.46608e-10
1.46608e-10
1.46608e-10
1.46608e-10
1.46608e-10
1.46608e-10
1.46608e-10
1.46608e-10
1.46608e-10
1.46608e-10
1.46608e-10
1.46608e-10
1.46608e-10
1.46608e-10
1.46608e-10
1.46608e-10
1.46608e-10
1.46608e-10
1.46608e-10
1.46608e-10
1.46608e-10
1.46608e-10
1.46608e-10
1.46608e-10
1.46608e-10
1.46608e-10
1.46608e-10
1.46608e-10
1.46608e-10
1.46608e-10
1.46608e-10
1.46608e-10
1.46608e-10
1.46608e-10
1.46608e-10
1.46608e-10
1.46608e-10
1.46608e-10
1.46608e-10
1.46608e-10
1.46608e-10
1.46608e-10
1.46608e-10
1.46608e-10
1.46608e-10
1.46608e-10
1.46608e-10
1.46608e-10
1.46608e-10
1.46608e-10
1.46608e-10
1.46608e-10
1.46608e-10
1.46608e-10
1.46608e-10
1.46608e-10
1.46608e-10
1.46608e-10
1.46608e-10
1.46608e-10
1.46608e-10
1.46608e-10
1.46608e-10
1.46608e-10
1.46608e-10
1.46608e-10
1.46608e-10
1.46608e-10
1.46608e-10
1.46608e-10
1.46608e-10
1.46608e-10
1.46608e-10
1.46608e-10
1.46608e-10
1.46608e-10
1.46608e-10
1.46608e-10
1.46608e-10
1.46608e-10
1.46608e-10
1.46608e-10
1.46608e-10
1.46608e-10
1.46608e-10
1.46608e-10
1.46608e-10
1.46608e-10
1.46608e-10
1.46608e-10
1.46608e-10
1.46608e-10
1.46608e-10
1.46608e-10
1.46608e-10
1.46608e-10
1.46608e-10
1.46608e-10
1.46608e-10
1.46608e-10
1.46608e-10
1.46608e-10
1.46608e-10
1.46608e-10
1.46608e-10
1.46608e-10
1.46608e-10
1.46608e-10
1.46608e-10
1.46608e-10
1.46608e-10
1.46608e-10
1.46608e-10
1.46608e-10
1.46608e-10
1.46608e-10
1.46608e-10
1.46608e-10
1.46608e-10
1.46608e-10
1.46608e-10
1.46608e-10
1.46608e-10
1.46608e-10
1.46608e-10
1.46608e-10
1.46608e-10
1.46608e-10
1.46608e-10
1.46608e-10
1.46608e-10
1.46608e-10
1.46608e-10
1.46608e-10
1.46608e-10
1.46608e-10
1.46608e-10
1.46608e-10
1.46608e-10
1.46608e-10
1.46608e-10
1.46608e-10
1.46608e-10
1.46608e-10
1.46608e-10
1.46608e-10
1.46608e-10
1.46608e-10
1.46608e-10
1.46608e-10
1.46608e-10
1.46608e-10
1.46608e-10
1.46608e-10
1.46608e-10
1.46608e-10
1.46608e-10
1.46608e-10
1.46608e-10
1.46608e-10
1.46608e-10
1.46608e-10
1.46608e-10
1.46608e-10
1.46608e-10
1.46608e-10
1.46608e-10
1.46608e-10
1.46608e-10
1.46608e-10
1.46608e-10
1.46608e-10
1.46608e-10
1.46608e-10
1.46608e-10
1.46608e-10
1.46608e-10
1.46608e-10
1.46608e-10
1.46608e-10
1.46608e-10
1.46608e-10
1.46608e-10
1.46608e-10
1.46608e-10
1.46608e-10
1.46608e-10
1.46608e-10
1.46608e-10
1.46608e-10
1.46608e-10
1.46608e-10
1.46608e-10
1.46608e-10
1.46608e-10
1.46608e-10
1.46608e-10
1.46608e-10
1.46608e-10
1.46608e-10
1.46608e-10
1.46608e-10
1.46608e-10
1.46608e-10
1.46608e-10
1.46608e-10
1.46608e-10
1.46608e-10
1.46608e-10
1.46608e-10
1.46608e-10
1.46608e-10
1.46608e-10
1.46608e-10
1.46608e-10
1.46608e-10
1.46608e-10
1.46608e-10
1.46608e-10
1.46608e-10
1.46608e-10
1.46608e-10
1.46608e-10
1.46608e-10
1.46608e-10
1.46608e-10
1.46608e-10
1.46608e-10
1.46608e-10
1.46608e-10
1.46608e-10
1.46608e-10
1.46608e-10
1.46608e-10
1.46608e-10
1.46608e-10
1.46608e-10
1.46608e-10
1.46608e-10
1.46608e-10
1.46608e-10
1.46608e-10
1.46608e-10

VECTORS velocity float
0.00542373 0.000243301 -1.0105e-05
0.00601366 -8.8391e-05 -0.000117325
0.00592987 -0.000121324 -8.283e-05
0.00540784 0.000605919 0.000476043
0.00625024 0.000521282 -0.000955556
0.00559176 6.93142e-06 -1.26863e-05
0.00591631 -7.92693e-05 -0.000118223
0.00583379 0.00112137 -0.000323607
0.00558302 -6.27728e-05 -0.000218152
0.00559296 -7.01468e-06 2.41127e-05
0.00554549 -0.00065591 -0.000181901
0.00541241 0.000587869 0.000494846
0.00558935 -0.000443683 9.61211e-05
0.00552686 -0.000469258 9.93882e-05
0.0055452 0.000154744 3.74532e-06
0.00545984 0.000569809 0.00052007
0.00557427 -7.63067e-05 9.31804e-06
0.00583289 -6.64527e-05 -0.000126142
0.0055859 -0.000390558 8.42726e-05
0.00587057 0.000585034 -0.000973494
0.00560278 -2.45127e-05 -0.000143597
0.00560172 0.000720283 -0.000887285
0.00568975 -0.000388509 7.47958e-05
0.00600878 -9.21133e-05 -0.000101149
0.00568338 0.000546794 0.000584494
0.00572989 -2.72928e-05 -0.000155499
0.00552614 -3.26075e-05 1.47402e-05
0.00565713 -6.29179e-05 -0.000191321
0.00627437 0.000505163 -0.000945254
0.00554236 0.000431182 0.000320088
0.00576498 -7.99011e-05 -8.54628e-05
0.0058401 0.00113957 -0.000252277
0.00591788 -0.000108258 -9.1132e-05
0.00587564 -0.000112771 -8.87919e-05
0.0057423 0.0006193 -0.000979834
0.00550333 0.000598911 0.00050332
0.0059733 -0.00015906 -5.00788e-05
0.00577297 -0.000145328 -5.48731e-05
0.00628729 0.000484163 -0.000930324
0.00552104 0.000593624 0.000508062
0.00562274 -2.61287e-06 -2.98734e-05
0.00584214 0.0011272 -0.000253824
0.00568953 -2.07515e-05 -0.000155276
0.00555299 -3.23493e-05 3.64171e-06
0.00559353 -0.000450725 -0.000256003
0.00634801 0.000482105 -0.000930159
0.00560843 -9.89634e-05 7.17147e-06
0.00557958 -0.000473262 -0.000247332
0.00559999 -5.81368e-05 2.41527e-05
0.00631004 0.000474854 -0.000923482
-5.01964e-15 -7.41202e-15 7.69802e-14
0.00570642 -0.000147625 -5.99873e-05
0.00547261 0.000605847 0.000489736
0.00582591 -0.000105165 -9.80974e-05
0.00560484 -7.77904e-06 -4.24295e-05
0.00616221 0.000527458 -0.000954484
0.00556823 -0.000475443 -9.63518e-05
0.00562838 -0.000341737 8.27058e-05
0.00560048 -8.6431e-05 7.96974e-06
0.00599605 -0.000156217 -0.0003927
0.00556102 -3.65209e-05 7.87227e-06
0.0058535 0.00111489 -0.000229855
0.00553061 -0.000512308 0.000108968
0.00558857 0.000197135 -1.1044e-05
0.00559021 -2.26598e-05 -0.00015106
0.00569356 -2.3392e-05 -0.000157149
0.00563986 -0.00055153 -0.000222202
0.0060448 -0.00010167 -0.000106104
0.00551474 -0.000193014 0.000128553
0.0056175 -0.000488714 0.000104515
0.00601523 -0.000112133 -9.96989e-05
0.00554121 -0.000426654 9.75744e-05
0.00553662 -0.000677828 -0.000170708
0.00584323 0.00113471 -0.000249849
0.00558833 -0.000523923 0.000111136
0.00583623 -0.000145153 -5.81556e-05
0.00595192 -0.000107239 -0.000122086
0.00558834 -4.49127e-05 -4.98328e-05
0.00558311 -5.23011e-05 2.34141e-05
0.00563866 -7.34419e-05 5.31666e-06
0.00546582 -0.000424949 0.000304319
0.00560567 -4.85835e-06 -7.73194e-05
0.00583228 -3.6562e-05 -0.000149146
0.00563716 -2.92071e-06 5.414e-06
0.0054538 -5.71439e-05 -0.000150633
0.0056328 -5.07544e-05 -0.000135176
0.00575071 -0.000222403 0.000153379
0.00577573 -3.31345e-05 -0.000151638
0.00549955 -0.000420036 8.98078e-05
0.00558063 7.16018e-06 7.81787e-06
0.00551457 -0.000428517 9.36166e-05
4.25853e-15 1.04901e-14 8.29614e-14
-1.23235e-22 -1.27651e-22 1.23839e-22
0.00554287 -0.000491784 0.000104867
0.00554181 -0.000178645 0.000111902
0.00562169 -0.000398195 0.000106779
0.0055128 -0.000188355 0.000123419
0.005676 -5.05127e-05 9.84763e-06
0.00553496 -8.015e-05 5.72243e-05
0.00599971 -7.87121e-05 -0.000130568
0.00596513 -5.36175e-05 -0.000136876
0.00602005 -0.000248856 0.000188515
0.00553976 -0.000453612 4.22845e-06
0.00561766 -0.000445327 9.55538e-05
0.00590487 -0.000149363 -5.67044e-05
0.00563574 -4.5135e-05 2.86429e-06
0.00564519 -4.3842e-05 -7.23917e-05
0.00557683 -0.000500293 -0.00023344
0.00563236 -7.03971e-05 6.25224e-06
0.00587924 -6.86135e-05 -0.000124764
0.005427 4.39073e-06 -1.75181e-05
0.0057223 -6.89377e-05 -0.000141149
0.00556352 -0.000524249 0.000111078
0.00582996 -3.08095e-05 -0.000152294
0.00560629 -8.93688e-05 -9.13009e-05
0.00561394 -0.000216567 9.54481e-05
0.00573975 -3.21567e-05 -0.000154135
0.00557961 -1.323e-05 -5.34083e-05
0.00561209 -0.000420147 9.16809e-05
0.00549769 -0.000449482 9.7152e-05
0.00596446 -0.000139945 -7.23447e-05
0.00563125 -4.16283e-05 -2.07812e-05
0.00561723 -2.16355e-05 1.08138e-05
0.005585 -3.96174e-05 3.86817e-06
0.00564417 -0.000498491 -0.000242135
0.00555624 -5.91999e-05 -0.000121182
0.00560885 -2.92326e-06 3.21553e-05
0.00605732 -0.000120042 -9.85504e-05
0.00623761 -0.000321562 0.000249135
0.00560635 -0.0003472 7.4784e-05
0.00552996 -0.000183075 0.000115353
0.00558118 -0.000455459 9.83902e-05
0.00623121 -0.00027226 0.000234467
0.00561038 -0.000444717 9.9855e-05
0.00544446 -0.000203371 0.000171848
0.0059156 -4.07928e-05 -0.000146509
0.00563365 -0.000483104 0.000103406
0.00554493 -0.000471624 0.000101499
0.00555945 -0.000271156 0.000214342
0.00614602 -0.000265327 0.000210592
0.00622129 -0.000278942 0.000225195
0.00622953 -0.000301612 0.00023619
-3.83094e-14 8.1657e-14 2.95893e-13
0.00564812 -0.000378277 0.000281195
0.00595707 -0.000133351 -7.52292e-05
0.00552887 -0.000432839 9.31731e-05
0.0055243 -0.000451729 9.59057e-05
0.00620824 -0.00029395 0.000232344
0.00557462 -0.000515509 0.000110263
0.00562839 -8.42646e-06 2.71679e-06
0.00562994 -0.000465702 0.000100497
0.00563222 -0.000483522 0.000103122
0.00564154 -0.000474327 0.000101755
0.00562437 -0.000477552 0.000103041
0.00539172 -9.65246e-06 -1.77752e-05
0.0055463 -0.000476749 -0.000111599
0.00562114 1.1093e-05 -0.00011714
0.00619867 -0.000313876 0.000238519
0.00557566 -0.00048879 -0.000237445
0.00621936 -0.000277692 0.000222786
0.00557871 -0.000499929 8.23866e-05
0.00553136 -0.000474599 8.18798e-05
0.0054498 -8.87327e-06 -1.80477e-05
0.00560076 -0.000417002 7.7012e-05
0.00563335 -7.50235e-06 -1.8128e-05
0.00558185 -0.000420442 9.22416e-05
0.00554657 -0.000542109 0.00011455
0.00561635 6.68939e-05 -1.98908e-05
0.00566725 -0.000107815 -9.29668e-05
0.00538834 2.06672e-05 -1.68896e-05
0.00578107 0.000422166 -4.46822e-05
0.00592885 -4.60293e-05 -0.000138836
0.00559725 -0.000445019 9.22592e-05
0.00543877 -1.99718e-05 -1.82205e-05
0.00553609 -0.000450162 9.2303e-05
0.00553643 -0.000453424 9.69408e-05
0.00550176 -0.000470452 9.74542e-05
0.00601279 0.000190495 -0.000472087
0.00561156 -0.000550216 -0.000221394
0.00549034 -0.000408096 8.93131e-05
0.00582077 -0.000202272 0.000193388
0.00554102 -0.000486447 0.000104054
0.00555279 -0.000494629 -5.58832e-05
0.00560123 9.67104e-06 1.70954e-05
0.00550208 -0.000487609 0.000103019
0.00534123 -0.000304583 0.000234304
0.00559961 -0.000385997 0.000269207
0.00620237 -0.000314724 0.000245146
0.00559484 -0.000446949 -0.00025878
0.00556864 -0.000472677 -0.000247188
0.00601724 -4.18148e-05 -0.00015338
0.00601978 -4.86146e-05 -0.000148721
0.00556929 -0.000517698 0.000109005
0.00550221 1.00318e-05 -2.13858e-05
0.00599016 -0.000127127 -7.49829e-05
0.00558842 0.000281069 -0.000489149
0.00621187 -0.000290194 0.00022977
0.00544433 -1.07222e-05 -1.8144e-05
0.00547893 -0.000415762 9.14748e-05
0.00587151 -3.50425e-05 -0.000152649
0.00551443 -0.000445246 9.40467e-05
0.00558401 -0.000114168 -5.81483e-05
0.00562948 -0.000513195 -0.000239208
0.00600264 -6.63577e-05 -0.000135259
0.00554058 -0.000278688 2.25004e-05
0.00558825 0.000281338 -0.000491235
0.00560867 0.000276406 -0.000489295
0.00560247 -0.000508354 0.00010772
0.00568773 -0.000450426 -0.00016355
0.00557391 -0.000490423 8.98432e-05
0.00561329 -0.000458026 9.89057e-05
0.00557449 -4.28607e-06 -1.34296e-05
0.00559051 -0.000290743 0.000113357
0.00561981 -0.000514778 -0.000237357
0.00558868 -0.000509055 -0.000232137
0.00605433 0.0001835 -0.000471253
0.00602953 0.000187498 -0.000471675
0.00606272 0.000182169 -0.000471137
0.00553942 -0.000474283 0.000334302
0.00558979 -0.000366529 8.11364e-05
0.00604616 0.000184825 -0.000471408
0.00597193 0.000200069 -0.000474229
0.00619809 -0.000324394 0.000245324
0.00557514 -0.000441753 9.36772e-05
0.00599651 0.000194294 -0.000472942
0.00618958 -0.000333965 0.00025597
0.00560167 9.37779e-06 -2.31518e-05
0.00589999 0.000216592 -0.000477885
0.00572078 0.000427745 -4.79354e-05
0.00598839 0.000196217 -0.00047338
0.00550714 -0.000192528 0.000127739
0.00551685 -0.000489005 0.00010403
0.00554018 -0.000383216 0.000278446
0.00555375 -0.000483226 -0.000184404
0.00576134 0.000245542 -0.000483298
0.00559384 -0.000489189 0.000105167
0.00563364 -0.000487731 -0.000245274
0.00556287 -0.000498708 -0.00019086
0.00600515 0.000192389 -0.000472556
0.00621058 -0.000281682 0.000220092
0.00580349 0.000422136 -4.27838e-05
0.00552445 -0.000448236 9.60442e-05
0.00620845 -0.000334815 0.000260032
0.00558281 -0.000458369 9.8261e-05
0.00559632 -0.000402959 8.77604e-05
0.00591104 -9.87065e-05 -0.000125418
0.00554081 -0.000464181 9.80659e-05
0.00558906 0.000280159 -0.000489612
0.00551058 -0.00032586 0.000241726
0.005659 0.000267221 -0.000487537
0.00620281 -0.000302169 0.000236618
0.00620112 -0.00031653 0.000244199
0.00619932 -0.000324426 0.000262973
0.00559235 -0.000442284 9.44074e-05
0.00558976 0.000284456 -0.000491351
0.00563627 0.000369933 -0.000275009
0.00554193 -0.000438327 9.4064e-05
0.0060377 0.000186045 -0.000471463
0.00568432 -0.000500119 -0.000243569
0.00566812 -0.000507932 -0.000239331
0.0062077 -0.000287338 0.000223748
0.00568143 -0.00037463 -3.36174e-06
0.00551924 -0.000464852 9.86399e-05
0.00621235 -0.000284092 0.00022607
0.00561707 -0.000569114 -0.000215625
0.00559596 -0.000445648 9.81334e-05
0.0055661 -0.000441748 9.62025e-05
0.00564912 -0.000508752 -0.000240571
0.00565742 -0.0005127 -0.000240999
0.00568436 0.000434529 -5.07556e-05
0.00546455 -0.000232686 0.000132994
0.00562565 -4.35835e-06 -3.87598e-05
0.00602127 0.000188898 -0.000471844
0.00598056 0.000198151 -0.000473832
0.00560634 1.55217e-08 1.1591e-05

VECTORS force float
4.02106e-11 -5.04089e-11 -1.08198e-11
-1.18435e-10 -2.55991e-10 1.20025e-10
-5.50103e-11 -4.16103e-11 9.61271e-11
-2.62507e-10 1.14817e-10 -1.63552e-10
5.54655e-11 9.35942e-12 -7.40835e-12
1.26413e-10 -1.23032e-10 4.81574e-12
-1.32411e-11 1.96922e-10 -2.04955e-10
-1.69833e-10 -1.19692e-10 -8.46537e-11
5.61789e-11 -1.71116e-10 1.43327e-10
1.48664e-12 3.3428e-12 3.32293e-10
3.30879e-10 -3.80606e-11 -4.72761e-11
2.8328e-10 2.17989e-10 -1.31456e-10
5.83932e-11 -1.79477e-11 9.43737e-12
-1.586e-12 4.85886e-11 -1.07101e-11
-2.33035e-10 -8.64825e-12 1.9064e-10
3.57186e-11 2.00641e-10 -1.85312e-10
-5.70614e-11 -8.127e-11 -1.07352e-11
-5.13838e-11 4.2574e-13 1.18555e-11
2.24329e-10 2.49661e-10 -4.53821e-11
-3.03066e-10 5.52206e-11 -1.33095e-10
2.70977e-10 4.05152e-12 3.99517e-10
1.33764e-10 1.57803e-11 -2.72036e-10
1.78569e-10 -3.62954e-11 7.85312e-11
-1.08688e-10 -1.14354e-10 2.2521e-10
6.58262e-11 2.71476e-10 -2.50018e-10
1.61726e-10 -1.65142e-11 -4.86e-11
3.88486e-11 6.28657e-11 -6.78984e-12
-2.60637e-10 5.80377e-11 2.71931e-10
3.75288e-11 -3.79932e-11 2.08054e-11
-9.36542e-12 -4.25661e-11 -1.61958e-10
-1.85692e-11 -5.7804e-11 1.83095e-10
-1.98585e-11 -1.23186e-10 3.51961e-11
1.95707e-10 -1.38208e-10 3.49781e-10
4.99592e-11 -7.56285e-11 1.86946e-10
1.22564e-10 -9.64363e-11 -3.24092e-10
1.35533e-10 -1.10172e-10 5.69316e-11
-5.00731e-10 2.76436e-10 -2.22379e-10
3.78776e-10 1.50073e-10 -9.06975e-11
-1.60984e-10 5.93939e-11 -4.00656e-11
-2.98303e-11 1.15197e-10 3.39075e-11
-3.23668e-11 -1.65826e-11 -3.22877e-11
-2.20396e-10 -1.85643e-10 -5.95814e-11
2.71481e-10 5.97545e-11 8.95019e-11
1.20963e-10 1.70873e-11 -2.68758e-11
-7.72847e-11 -1.39569e-10 5.89968e-11
-8.52521e-11 4.04301e-10 -3.35971e-10
1.64762e-10 -1.43506e-10 6.61921e-12
-5.98605e-11 -1.12248e-10 4.7303e-11
2.61466e-10 6.48e-11 1.42746e-11
6.87813e-11 3.3263e-10 -2.53478e-10
2.86928e-24 1.13737e-24 4.1359e-25
2.82749e-10 6.73232e-11 -7.55741e-11
7.747e-12 -3.5869e-11 6.10699e-11
-1.12073e-10 1.95148e-11 2.61897e-10
1.22479e-10 3.48945e-10 4.6325e-11
-7.35833e-11 3.10434e-10 -2.48575e-10
-1.46131e-11 -5.0433e-11 -1.24202e-11
-1.35504e-10 -1.6321e-10 -3.62706e-11
-1.78772e-10 1.17782e-11 1.48003e-11
-1.51845e-10 -1.4837e-11 4.62767e-10
3.51877e-10 9.09606e-11 -1.36118e-11
-5.39374e-11 2.32903e-11 -1.59627e-10
-1.00424e-11 5.74678e-11 -6.85628e-12
7.69118e-11 -2.67211e-11 -6.21445e-11
7.1492e-10 -1.08012e-10 1.15815e-10
1.10054e-10 -1.54439e-11 -7.05206e-11
1.1496e-10 -1.47345e-10 1.06377e-10
-3.53312e-10 -2.52828e-10 2.23366e-10
1.1395e-10 1.23083e-10 -1.35867e-10
-1.11568e-10 4.11759e-12 9.79168e-12
-4.63191e-10 -4.95908e-11 4.09016e-10
-7.39038e-11 -1.18276e-10 -1.11914e-11
-3.28246e-10 2.78674e-10 -7.40719e-11
-3.48992e-11 -1.87464e-10 6.76546e-12
-2.03634e-10 4.39952e-11 -1.62514e-11
4.66189e-10 1.09414e-10 -8.74831e-11
3.40582e-11 1.0935e-10 6.53819e-10
9.21315e-11 -2.23078e-10 1.04083e-10
-5.40169e-12 9.15001e-11 6.66324e-11
1.05022e-10 2.60943e-11 -9.63733e-12
2.18196e-11 -1.98142e-10 1.69267e-10
1.57052e-11 -4.32138e-11 2.01603e-10
5.80265e-11 -6.45629e-11 6.23378e-11
8.3186e-11 2.6805e-10 3.0985e-10
2.98608e-11 -6.70448e-11 -1.03628e-10
2.53408e-10 -2.11442e-10 1.46135e-10
-1.42764e-10 8.09157e-12 -5.57153e-11
-2.348e-10 -1.85389e-10 1.58342e-10
1.41761e-12 -1.23449e-11 4.31209e-12
2.13708e-10 4.05112e-11 2.542e-11
-2.8644e-11 -8.22532e-11 6.46859e-12
-2.53228e-21 7.50718e-22 3.30872e-23
0.0 0.0 0.0
-3.16527e-11 -1.7968e-11 -3.60992e-12
7.12265e-12 4.45085e-11 -2.19202e-11
4.71325e-11 -6.17624e-11 -1.44873e-11