# vtk DataFile Version 3.0
LIGGGHTS particles timestep 40000000
ASCII
DATASET POLYDATA
POINTS 275 float
0.246493 0.0182428 0.00705055
0.246178 0.017169 0.00742831
0.246331 0.017068 0.00750822
0.24568 0.0154359 0.00885325
0.252175 0.0171701 0.0074659
0.246455 0.0175998 0.00707022
0.246168 0.016814 0.00771765
0.252368 0.0180521 0.00703646
0.245819 0.0158862 0.00848222
0.246346 0.0177665 0.00711883
0.240396 0.0169616 0.00746166
0.24566 0.0153603 0.00891545
0.240359 0.0175635 0.00706988
0.240552 0.0180747 0.00696941
0.245789 0.0158125 0.00854293
0.24564 0.015285 0.00897826
0.246495 0.0177881 0.00703588
0.246131 0.0166624 0.00784257
0.240588 0.0178141 0.00699963
0.252293 0.0176989 0.00720833
0.245854 0.0160385 0.00835771
0.252331 0.0178755 0.0071224
0.240205 0.0169018 0.00748968
0.246254 0.0171175 0.00746767
0.245621 0.0152114 0.00904315
0.245942 0.016339 0.00810926
0.246531 0.01755 0.00711093
0.245881 0.0161123 0.00829594
0.252195 0.0172581 0.007423
0.245767 0.0157373 0.0086051
0.24642 0.0174478 0.00719539
0.252425 0.0183171 0.00690757
0.246311 0.0169924 0.00757048
0.246385 0.0172958 0.00732057
0.252312 0.0177872 0.00716536
0.245724 0.0155865 0.00872912
0.246426 0.0170941 0.00748643
0.246479 0.017322 0.00729871
0.252215 0.0173461 0.0073801
0.245746 0.0156619 0.00866706
0.24636 0.0180143 0.00704292
0.252387 0.0181404 0.0069935
0.245898 0.0161884 0.00823329
0.246551 0.0176257 0.00704857
0.240454 0.0171952 0.00728384
0.252255 0.0175223 0.00729426
0.246684 0.0178533 0.00703835
0.240378 0.0172515 0.00725064
0.246665 0.017755 0.00703514
0.252236 0.0174341 0.0073372
0.378022 0.019866 0.005332
0.246496 0.017398 0.00723613
0.245702 0.0155112 0.0087912
0.246402 0.0173718 0.00725798
0.246403 0.0180608 0.00712851
0.252274 0.0176106 0.0072513
0.240416 0.0174218 0.00715302
0.240516 0.0177489 0.00709731
0.246514 0.0178863 0.00703908
0.246308 0.0173455 0.00727986
0.246589 0.0178208 0.00703712
0.25235 0.0179638 0.00707943
0.240722 0.0180403 0.00698192
0.24657 0.0181794 0.00704865
0.245832 0.0159627 0.00841923
0.245919 0.0162638 0.00817115
0.24032 0.0170033 0.00740872
0.246196 0.0172435 0.00736409
0.239685 0.015399 0.00878044
0.240611 0.0183678 0.00700187
0.246272 0.0171934 0.00740514
0.240441 0.0178143 0.00708564
0.240415 0.0170355 0.0073972
0.252406 0.0182288 0.00695053
0.240761 0.0182354 0.00700347
0.246461 0.017246 0.00736131
0.246233 0.0170414 0.0075303
0.246361 0.0175735 0.00709203
0.246455 0.0177423 0.00711557
0.246533 0.0179843 0.00704229
0.240375 0.0168878 0.00752605
0.246283 0.0176235 0.00705113
0.246007 0.0165651 0.00792298
0.246365 0.0178646 0.00712207
0.246299 0.0175345 0.00723616
0.246267 0.0175474 0.0071138
0.239799 0.0157616 0.00845599
0.245984 0.0164899 0.00798504
0.240342 0.0179123 0.00698282
0.246476 0.01769 0.00703268
0.240361 0.0180092 0.00696739
0.0643568 0.0187248 0.00531097
0.24257 0.0191927 0.00520306
0.240647 0.0181067 0.00698109
0.23975 0.0156146 0.00858244
0.240421 0.0177196 0.00710999
0.239706 0.0154672 0.00871024
0.246608 0.0179189 0.00704032
0.246645 0.0176558 0.0070319
0.246158 0.017092 0.00748886
0.246115 0.0169413 0.00761303
0.239836 0.0159093 0.00832674
0.240264 0.0175343 0.00708568
0.240303 0.0177196 0.00701923
0.246443 0.0171701 0.00742388
0.246436 0.0179486 0.00704095
0.246437 0.0175237 0.0071328
0.240492 0.0173654 0.00718593
0.246627 0.0180174 0.00704353
0.24615 0.0167381 0.00778018
0.246439 0.0184062 0.00705572
0.246249 0.0174714 0.00717639
0.240741 0.0181379 0.00699268
0.246035 0.0166411 0.00786469
0.246343 0.0174975 0.00715462
0.239771 0.0156884 0.00851835
0.245963 0.0164145 0.00804703
0.246339 0.0176668 0.00712218
0.240398 0.0177512 0.007013
0.240417 0.0178475 0.00699448
0.246349 0.0171439 0.00744569
0.246455 0.0180467 0.00704415
0.246416 0.0178505 0.00703774
0.24657 0.0177227 0.00703392
0.240359 0.0171676 0.00730142
0.246278 0.0176174 0.00718427
0.246322 0.0178181 0.00703652
0.246214 0.0173195 0.00730152
0.2402 0.0165602 0.00779505
0.240568 0.0177178 0.00701784
0.239728 0.0155409 0.00864627
0.24053 0.0175355 0.00708801
0.239879 0.0160549 0.00820043
0.240378 0.0176543 0.007031
0.240221 0.016634 0.00773081
0.246071 0.0167906 0.0077372
0.240556 0.018529 0.00701166
0.240495 0.0182371 0.00697911
0.240241 0.0167079 0.00766655
0.23986 0.015992 0.00827592
0.239901 0.0161319 0.00814053
0.240178 0.0164865 0.00785901
0.0219312 0.0187687 0.00551176
0.240282 0.0168555 0.00753786
0.246367 0.0172198 0.00738314
0.240381 0.0181066 0.00695659
0.240477 0.018008 0.00705146
0.239966 0.0163494 0.00794497
0.240589 0.0182699 0.00699088
0.246341 0.0179162 0.00703972
0.240458 0.0184971 0.00699973
0.240632 0.0184648 0.00701281
0.24048 0.0185943 0.00701071
0.240534 0.018432 0.00700072
0.246515 0.0183404 0.00705374
0.240245 0.0174491 0.0071347
0.246552 0.0180815 0.00705678
0.240009 0.0164968 0.00781705
0.240302 0.017308 0.00721693
0.239996 0.0161593 0.00812645
0.240303 0.017594 0.0071556
0.240389 0.0181462 0.00704806
0.246461 0.0185042 0.00705892
0.240341 0.0177777 0.0070914
0.246384 0.0179627 0.00712528
0.240547 0.017621 0.00703878
0.240816 0.0180719 0.00699352
0.246474 0.0181447 0.00704735
0.246325 0.0174215 0.00721729
0.246418 0.0183085 0.00705253
0.234471 0.0185515 0.0068779
0.246093 0.016866 0.00767509
0.240283 0.0176266 0.0070505
0.246536 0.0184381 0.00705693
0.24046 0.017911 0.0070679
0.240476 0.0181395 0.00696838
0.240512 0.0178799 0.00698898
0.234158 0.0170734 0.00739981
0.240434 0.0171102 0.00733277
0.240342 0.0178821 0.00707813
0.239814 0.0158356 0.00839066
0.240571 0.0181723 0.00698014
0.240301 0.0169294 0.00747332
0.246397 0.0177523 0.00703454
0.240607 0.0179106 0.00698156
0.240147 0.0166759 0.00767795
0.240186 0.0168236 0.00754909
0.24006 0.0163804 0.00793448
0.240473 0.0172802 0.00723493
0.240398 0.0173365 0.0072018
0.246189 0.0168895 0.00765548
0.246211 0.0169649 0.00759339
0.240666 0.0182042 0.00699189
0.246399 0.0182104 0.00704932
0.24629 0.0172695 0.00734243
0.234373 0.0180846 0.00702398
0.240044 0.0163074 0.00800078
0.246483 0.0186018 0.00706142
0.240322 0.0178159 0.00700103
0.246049 0.0167153 0.00779921
0.240437 0.0179439 0.00697627
0.246514 0.017474 0.00717354
0.240225 0.0169759 0.00742552
0.246136 0.0170167 0.00755096
0.240396 0.0176295 0.00714605
0.234393 0.0181766 0.00698981
0.234334 0.0179007 0.00709231
0.240686 0.0183016 0.00700268
0.24013 0.01694 0.00743077
0.24048 0.0181073 0.00706298
0.240437 0.0183997 0.00698882
0.246433 0.0176522 0.00715259
0.240092 0.016792 0.00756024
0.240188 0.0171939 0.00728159
0.240207 0.0172789 0.00723263
0.234056 0.0166148 0.00757063
0.234118 0.0168899 0.00746814
0.234035 0.0165231 0.00760479
0.240356 0.0168138 0.00759063
0.240493 0.0177832 0.00700606
0.234077 0.0167065 0.00753647
0.234257 0.0175329 0.00722898
0.240031 0.0165706 0.00775309
0.24034 0.0174783 0.00711894
0.234198 0.0172571 0.00733148
0.240104 0.0165283 0.0078062
0.246377 0.0176512 0.00703124
0.234276 0.0176249 0.00719481
0.234451 0.0184553 0.0068965
0.234218 0.017349 0.00729731
0.239666 0.0153357 0.00885526
0.240627 0.0180086 0.00698058
0.240261 0.0167817 0.00760219
0.240321 0.0173931 0.00716795
0.234296 0.0177169 0.00716064
0.240513 0.0183348 0.00698984
0.240283 0.0172229 0.00726588
0.240227 0.017364 0.00718368
0.234178 0.0171653 0.00736564
0.239923 0.016208 0.0080794
0.234491 0.0186478 0.00685929
0.240456 0.0180404 0.00695803
0.240126 0.0166021 0.00774221
0.240511 0.0174505 0.00713693
0.240473 0.017688 0.00702907
0.246231 0.0173955 0.00723893
0.240441 0.0182532 0.00706226
0.234354 0.0179927 0.00705814
0.240167 0.0167518 0.00761599
0.234315 0.0178088 0.00712648
0.239988 0.0164231 0.00788101
0.240082 0.0164541 0.00787048
0.240053 0.0166443 0.00768913
0.240434 0.0175068 0.00710353
0.234487 0.0182047 0.00697277
0.234412 0.0182685 0.00695564
0.2404 0.0182043 0.00696733
0.234097 0.0167982 0.0075023
0.24015 0.0170236 0.00737955
0.240245 0.0170557 0.00736861
0.239944 0.0162756 0.00800893
0.240111 0.0168661 0.0074954
0.240533 0.0179767 0.00697424
0.240018 0.016233 0.00806248
0.240339 0.0170859 0.00735583
0.240455 0.0175991 0.00707099
0.240419 0.0183021 0.00697809
0.240264 0.0171385 0.00731601
0.240169 0.0171087 0.00733059
0.234432 0.0183605 0.00692148
0.240073 0.0167181 0.00762488
0.246379 0.0181124 0.00704612
0.234138 0.0169816 0.00743397
0.234237 0.017441 0.00726314
0.246303 0.0177199 0.00703349

VERTICES 275 550
1 0
1 1
1 2
1 3
1 4
1 5
1 6
1 7
1 8
1 9
1 10
1 11
1 12
1 13
1 14
1 15
1 16
1 17
1 18
1 19
1 20
1 21
1 22
1 23
1 24
1 25
1 26
1 27
1 28
1 29
1 30
1 31
1 32
1 33
1 34
1 35
1 36
1 37
1 38
1 39
1 40
1 41
1 42
1 43
1 44
1 45
1 46
1 47
1 48
1 49
1 50
1 51
1 52
1 53
1 54
1 55
1 56
1 57
1 58
1 59
1 60
1 61
1 62
1 63
1 64
1 65
1 66
1 67
1 68
1 69
1 70
1 71
1 72
1 73
1 74
1 75
1 76
1 77
1 78
1 79
1 80
1 81
1 82
1 83
1 84
1 85
1 86
1 87
1 88
1 89
1 90
1 91
1 92
1 93
1 94
1 95
1 96
1 97
1 98
1 99
1 100
1 101
1 102
1 103
1 104
1 105
1 106
1 107
1 108
1 109
1 110
1 111
1 112
1 113
1 114
1 115
1 116
1 117
1 118
1 119
1 120
1 121
1 122
1 123
1 124
1 125
1 126
1 127
1 128
1 129
1 130
1 131
1 132
1 133
1 134
1 135
1 136
1 137
1 138
1 139
1 140
1 141
1 142
1 143
1 144
1 145
1 146
1 147
1 148
1 149
1 150
1 151
1 152
1 153
1 154
1 155
1 156
1 157
1 158
1 159
1 160
1 161
1 162
1 163
1 164
1 165
1 166
1 167
1 168
1 169
1 170
1 171
1 172
1 173
1 174
1 175
1 176
1 177
1 178
1 179
1 180
1 181
1 182
1 183
1 184
1 185
1 186
1 187
1 188
1 189
1 190
1 191
1 192
1 193
1 194
1 195
1 196
1 197
1 198
1 199
1 200
1 201
1 202
1 203
1 204
1 205
1 206
1 207
1 208
1 209
1 210
1 211
1 212
1 213
1 214
1 215
1 216
1 217
1 218
1 219
1 220
1 221
1 222
1 223
1 224
1 225
1 226
1 227
1 228
1 229
1 230
1 231
1 232
1 233
1 234
1 235
1 236
1 237
1 238
1 239
1 240
1 241
1 242
1 243
1 244
1 245
1 246
1 247
1 248
1 249
1 250
1 251
1 252
1 253
1 254
1 255
1 256
1 257
1 258
1 259
1 260
1 261
1 262
1 263
1 264
1 265
1 266
1 267
1 268
1 269
1 270
1 271
1 272
1 273
1 274

POINT_DATA 275
SCALARS id int 1
LOOKUP_TABLE default
1
2
4
5
6
7
8
9
10
11
12
13
14
16
17
19
21
22
23
24
25
26
27
28
29
30
31
32
33
34
35
36
37
38
39
41
42
44
45
47
48
49
50
51
52
53
54
55
56
57
59
60
61
62
63
64
65
66
67
68
69
70
71
72
73
74
76
77
78
79
80
82
83
84
85
86
87
88
89
90
91
92
93
94
95
96
97
98
99
100
101
102
103
104
105
106
107
108
109
110
111
112
113
114
115
116
117
118
119
120
121
122
123
124
125
127
128
129
130
131
132
133
134
135
136
137
138
140
141
142
143
144
146
147
148
149
150
151
153
154
155
156
157
158
159
160
162
164
165
166
167
168
169
170
171
172
173
174
176
177
178
179
182
183
184
185
186
187
188
189
190
191
192
193
194
195
196
197
198
199
200
201
202
203
204
205
206
207
208
209
210
211
212
213
214
215
216
217
218
219
220
222
224
225
226
227
228
229
230
232
233
234
235
236
237
239
240
241
242
243
244
246
247
248
249
250
251
252
253
254
255
256
257
258
259
260
261
262
263
264
265
266
267
268
269
270
271
272
273
274
275
276
277
278
279
280
281
283
284
285
286
287
288
289
290
291
292
293
294
295
296
297
298
299
300

SCALARS type int 1
LOOKUP_TABLE default
1
1
1
1
1
1
1
1
1
1
1
1
1
1
1
1
1
1
1
1
1
1
1
1
1
1
1
1
1
1
1
1
1
1
1
1
1
1
1
1
1
1
1
1
1
1
1
1
1
1
1
1
1
1
1
1
1
1
1
1
1
1
1
1
1
1
1
1
1
1
1
1
1
1
1
1
1
1
1
1
1
1
1
1
1
1
1
1
1
1
1
1
1
1
1
1
1
1
1
1
1
1
1
1
1
1
1
1
1
1
1
1
1
1
1
1
1
1
1
1
1
1
1
1
1
1
1
1
1
1
1
1
1
1
1
1
1
1
1
1
1
1
1
1
1
1
1
1
1
1
1
1
1
1
1
1
1
1
1
1
1
1
1
1
1
1
1
1
1
1
1
1
1
1
1
1
1
1
1
1
1
1
1
1
1
1
1
1
1
1
1
1
1
1
1
1
1
1
1
1
1
1
1
1
1
1
1
1
1
1
1
1
1
1
1
1
1
1
1
1
1
1
1
1
1
1
1
1
1
1
1
1
1
1
1
1
1
1
1
1
1
1
1
1
1
1
1
1
1
1
1
1
1
1
1
1
1
1
1
1
1
1
1
1
1
1
1
1
1
1
1
1
1
1
1

SCALARS radius float 1
LOOKUP_TABLE default
5e-05
5e-05
5e-05
5e-05
5e-05
5e-05
5e-05
5e-05
5e-05
5e-05
5e-05
5e-05
5e-05
5e-05
5e-05
5e-05
5e-05
5e-05
5e-05
5e-05
5e-05
5e-05
5e-05
5e-05
5e-05
5e-05
5e-05
5e-05
5e-05
5e-05
5e-05
5e-05
5e-05
5e-05
5e-05
5e-05
5e-05
5e-05
5e-05
5e-05
5e-05
5e-05
5e-05
5e-05
5e-05
5e-05
5e-05
5e-05
5e-05
5e-05
5e-05
5e-05
5e-05
5e-05
5e-05
5e-05
5e-05
5e-05
5e-05
5e-05
5e-05
5e-05
5e-05
5e-05
5e-05
5e-05
5e-05
5e-05
5e-05
5e-05
5e-05
5e-05
5e-05
5e-05
5e-05
5e-05
5e-05
5e-05
5e-05
5e-05
5e-05
5e-05
5e-05
5e-05
5e-05
5e-05
5e-05
5e-05
5e-05
5e-05
5e-05
5e-05
5e-05
5e-05
5e-05
5e-05
5e-05
5e-05
5e-05
5e-05
5e-05
5e-05
5e-05
5e-05
5e-05
5e-05
5e-05
5e-05
5e-05
5e-05
5e-05
5e-05
5e-05
5e-05
5e-05
5e-05
5e-05
5e-05
5e-05
5e-05
5e-05
5e-05
5e-05
5e-05
5e-05
5e-05
5e-05
5e-05
5e-05
5e-05
5e-05
5e-05
5e-05
5e-05
5e-05
5e-05
5e-05
5e-05
5e-05
5e-05
5e-05
5e-05
5e-05
5e-05
5e-05
5e-05
5e-05
5e-05
5e-05
5e-05
5e-05
5e-05
5e-05
5e-05
5e-05
5e-05
5e-05
5e-05
5e-05
5e-05
5e-05
5e-05
5e-05
5e-05
5e-05
5e-05
5e-05
5e-05
5e-05
5e-05
5e-05
5e-05
5e-05
5e-05
5e-05
5e-05
5e-05
5e-05
5e-05
5e-05
5e-05
5e-05
5e-05
5e-05
5e-05
5e-05
5e-05
5e-05
5e-05
5e-05
5e-05
5e-05
5e-05
5e-05
5e-05
5e-05
5e-05
5e-05
5e-05
5e-05
5e-05
5e-05
5e-05
5e-05
5e-05
5e-05
5e-05
5e-05
5e-05
5e-05
5e-05
5e-05
5e-05
5e-05
5e-05
5e-05
5e-05
5e-05
5e-05
5e-05
5e-05
5e-05
5e-05
5e-05
5e-05
5e-05
5e-05
5e-05
5e-05
5e-05
5e-05
5e-05
5e-05
5e-05
5e-05
5e-05
5e-05
5e-05
5e-05
5e-05
5e-05
5e-05
5e-05
5e-05
5e-05
5e-05
5e-05
5e-05
5e-05
5e-05
5e-05
5e-05
5e-05
5e-05
5e-05
5e-05
5e-05
5e-05
5e-05
5e-05
5e-05
5e-05
5e-05
5e-05
5e-05
5e-05
5e-05
5e-05
5e-05
5e-05
5e-05
5e-05
5e-05
5e-05
5e-05

SCALARS mass float 1
LOOKUP_TABLE default
1.46608e-10
1.46608e-10
1.46608e-10
1.46608e-10
1.46608e-10
1.46608e-10
1.46608e-10
1.46608e-10
1.46608e-10
1.46608e-10
1.46608e-10
1.46608e-10
1.46608e-10
1.46608e-10
1.46608e-10
1.46608e-10
1.46608e-10
1.46608e-10
1.46608e-10
1.46608e-10
1.46608e-10
1.46608e-10
1.46608e-10
1.46608e-10
1.46608e-10
1.46608e-10
1.46608e-10
1.46608e-10
1.46608e-10
1.46608e-10
1.46608e-10
1.46608e-10
1.46608e-10
1.46608e-10
1.46608e-10
1.46608e-10
1.46608e-10
1.46608e-10
1.46608e-10
1.46608e-10
1.46608e-10
1.46608e-10
1.46608e-10
1.46608e-10
1.46608e-10
1.46608e-10
1.46608e-10
1.46608e-10
1.46608e-10
1.46608e-10
1.46608e-10
1.46608e-10
1.46608e-10
1.46608e-10
1.46608e-10
1.46608e-10
1.46608e-10
1.46608e-10
1.46608e-10
1.46608e-10
1.46608e-10
1.46608e-10
1.46608e-10
1.46608e-10
1.46608e-10
1.46608e-10
1.46608e-10
1.46608e-10
1.46608e-10
1.46608e-10
1.46608e-10
1.46608e-10
1.46608e-10
1.46608e-10
1.46608e-10
1.46608e-10
1.46608e-10
1.46608e-10
1.46608e-10
1.46608e-10
1.46608e-10
1.46608e-10
1.46608e-10
1.46608e-10
1.46608e-10
1.46608e-10
1.46608e-10
1.46608e-10
1.46608e-10
1.46608e-10
1.46608e-10
1.46608e-10
1.46608e-10
1.46608e-10
1.46608e-10
1.46608e-10
1.46608e-10
1.46608e-10
1.46608e-10
1.46608e-10
1.46608e-10
1.46608e-10
1.46608e-10
1.46608e-10
1.46608e-10
1.46608e-10
1.46608e-10
1.46608e-10
1.46608e-10
1.46608e-10
1.46608e-10
1.46608e-10
1.46608e-10
1.46608e-10
1.46608e-10
1.46608e-10
1.46608e-10
1.46608e-10
1.46608e-10
1.46608e-10
1.46608e-10
1.46608e-10
1.46608e-10
1.46608e-10
1.46608e-10
1.46608e-10
1.46608e-10
1.46608e-10
1.46608e-10
1.46608e-10
1.46608e-10
1.46608e-10
1.46608e-10
1.46608e-10
1.46608e-10
1.46608e-10
1.46608e-10
1.46608e-10
1.46608e-10
1.46608e-10
1.46608e-10
1.46608e-10
1.46608e-10
1.46608e-10
1.46608e-10
1.46608e-10
1.46608e-10
1.46608e-10
1.46608e-10
1.46608e-10
1.46608e-10
1.46608e-10
1.46608e-10
1.46608e-10
1.46608e-10
1.46608e-10
1.46608e-10
1.46608e-10
1.46608e-10
1.46608e-10
1.46608e-10
1.46608e-10
1.46608e-10
1.46608e-10
1.46608e-10
1.46608e-10
1.46608e-10
1.46608e-10
1.46608e-10
1.46608e-10
1.46608e-10
1.46608e-10
1.46608e-10
1.46608e-10
1.46608e-10
1.46608e-10
1.46608e-10
1.46608e-10
1.46608e-10
1.46608e-10
1.46608e-10
1.46608e-10
1.46608e-10
1.46608e-10
1.46608e-10
1.46608e-10
1.46608e-10
1.46608e-10
1.46608e-10
1.46608e-10
1.46608e-10
1.46608e-10
1.46608e-10
1.46608e-10
1.46608e-10
1.46608e-10
1.46608e-10
1.46608e-10
1.46608e-10
1.46608e-10
1.46608e-10
1.46608e-10
1.46608e-10
1.46608e-10
1.46608e-10
1.46608e-10
1.46608e-10
1.46608e-10
1.46608e-10
1.46608e-10
1.46608e-10
1.46608e-10
1.46608e-10
1.46608e-10
1.46608e-10
1.46608e-10
1.46608e-10
1.46608e-10
1.46608e-10
1.46608e-10
1.46608e-10
1.46608e-10
1.46608e-10
1.46608e-10
1.46608e-10
1.46608e-10
1.46608e-10
1.46608e-10
1.46608e-10
1.46608e-10
1.46608e-10
1.46608e-10
1.46608e-10
1.46608e-10
1.46608e-10
1.46608e-10
1.46608e-10
1.46608e-10
1.46608e-10
1.46608e-10
1.46608e-10
1.46608e-10
1.46608e-10
1.46608e-10
1.46608e-10
1.46608e-10
1.46608e-10
1.46608e-10
1.46608e-10
1.46608e-10
1.46608e-10
1.46608e-10
1.46608e-10
1.46608e-10
1.46608e-10
1.46608e-10
1.46608e-10
1.46608e-10
1.46608e-10
1.46608e-10
1.46608e-10
1.46608e-10
1.46608e-10
1.46608e-10
1.46608e-10
1.46608e-10
1.46608e-10
1.46608e-10
1.46608e-10
1.46608e-10
1.46608e-10
1.46608e-10
1.46608e-10
1.46608e-10
1.46608e-10

VECTORS velocity float
0.00557347 -7.36904e-06 1.04361e-05
0.00565194 -4.53333e-05 2.1441e-05
0.00568545 -2.9852e-05 9.71737e-06
0.00584252 -5.98706e-05 3.44195e-05
0.00624229 0.00117449 -0.000886588
0.00561898 -2.97617e-05 9.74418e-06
0.00589621 -7.75748e-05 4.82231e-05
0.00586245 0.00125164 -0.000903295
0.00586646 -5.29704e-05 2.79072e-05
0.00560035 -3.04164e-05 5.96506e-06
0.00546057 -4.77744e-05 0.00109159
0.00569564 -3.63342e-05 1.68129e-05
0.00552709 -0.000532251 0.000359117
0.00552785 -0.000627424 0.000461015
0.00585971 -5.28151e-05 2.7855e-05
0.00555044 -8.76932e-05 -9.24846e-05
0.00559976 -2.18432e-05 1.03992e-05
0.00588733 -7.50493e-05 4.60201e-05
0.00560806 -0.000725634 9.90967e-05
0.00570173 0.00128317 -0.000909806
0.00587049 -5.04904e-05 2.57702e-05
0.00579635 0.00126394 -0.000905649
0.00517457 -0.000165102 0.000888452
0.00571996 1.13424e-05 -2.48506e-05
0.00557949 -9.45169e-05 -9.92285e-05
0.0058851 -5.51883e-05 2.97279e-05
0.00561773 -3.15363e-05 9.5959e-06
0.00587274 -4.99438e-05 2.53871e-05
0.00597057 0.00123143 -0.000899357
0.00585765 -5.34957e-05 2.79528e-05
0.00562238 -2.55009e-05 5.81919e-06
0.00596221 0.00123525 -0.000900733
0.0058425 -5.40416e-05 2.89022e-05
0.00563223 -2.32162e-05 4.11468e-06
0.0057326 0.00127666 -0.000908332
0.00585041 -5.58296e-05 3.03225e-05
0.00562105 -2.84842e-05 8.48088e-06
0.00562543 -1.92918e-05 8.33934e-07
0.00599041 0.00122715 -0.000898392
0.0058567 -5.47274e-05 2.92359e-05
0.00558656 -2.3343e-05 1.02078e-05
0.00589586 0.00124635 -0.000902511
0.00587452 -5.04156e-05 2.58293e-05
0.00560709 -3.4949e-05 7.66425e-06
0.0055198 -0.000573094 0.000377718
0.00580028 0.0012646 -0.000906165
0.0055943 -6.27907e-05 8.6861e-06
0.00552258 -0.000568264 0.000385753
0.00556803 5.27928e-06 1.062e-05
0.00601015 0.00122283 -0.000897328
-5.0197e-15 -7.41206e-15 7.69802e-14
0.00563443 -1.98844e-05 1.32386e-06
0.00584488 -5.77473e-05 3.21993e-05
0.00562597 -2.25301e-05 3.4239e-06
0.00556957 -1.86733e-05 1.03474e-05
0.005671 0.00128966 -0.000911277
0.00548077 -0.000575929 0.000361852
0.00553582 -0.000714996 0.000106469
0.00560309 -1.82386e-05 1.01315e-05
0.00562567 -3.22751e-05 1.15264e-05
0.00558773 -3.52616e-05 9.78572e-06
0.00582934 0.00125753 -0.000904356
0.00565894 -0.000744926 0.000466779
0.00560104 9.30136e-06 1.15454e-05
0.00586851 -5.18175e-05 2.70032e-05
0.00588183 -5.27528e-05 2.76736e-05
0.0054643 -6.74745e-05 0.00111294
0.00559219 -3.56851e-05 1.4289e-05
0.00560546 -0.000330708 0.000829564
0.00580747 -0.000687872 0.000471302
0.00563886 9.71799e-06 -2.26203e-05
0.00551803 -0.000745485 9.30808e-05
0.00542415 -5.89653e-05 0.00108318
0.00592927 0.00124127 -0.000901838
0.00574679 -0.000717907 0.000461547
0.00563588 -2.40696e-05 4.72255e-06
0.00587759 -2.07771e-05 1.43677e-06
0.00562064 -3.4104e-05 1.23284e-05
0.00560714 -2.54383e-05 1.31237e-05
0.00561981 -1.40547e-05 1.03412e-05
0.00551737 -4.58235e-05 0.00110109
0.00562607 -3.2732e-05 1.13389e-05
0.00589091 -6.79758e-05 4.02271e-05
0.00559968 -2.82448e-05 6.44375e-06
0.00561376 -3.0405e-05 1.11032e-05
0.0056196 -3.16188e-05 1.07601e-05
0.00585348 -7.38231e-05 0.0011902
0.00589035 -6.29163e-05 3.60335e-05
0.00546549 -0.000764404 0.00011403
0.00561044 -2.66125e-05 1.13602e-05
0.00553985 -0.000724231 0.000209118
4.55392e-15 1.04313e-14 8.29537e-14
-2.55473e-22 4.86658e-23 -5.81428e-22
0.00565318 -0.000677837 0.00044711
0.0058385 -5.26699e-05 0.00116833
0.0055508 -0.00075092 0.000136721
0.00583998 -4.82025e-05 0.00116691
0.00561247 -3.6305e-05 9.80269e-06
0.0056009 -1.59767e-05 1.10756e-05
0.0058204 -6.99513e-05 4.19642e-05
0.00590245 -8.34076e-05 5.29934e-05
0.0058488 -9.54923e-05 0.00121936
0.00550431 -0.000541446 0.000373337
0.00550508 -0.000716825 9.55432e-05
0.0056322 -2.69161e-05 7.08813e-06
0.00559632 -1.61618e-05 1.0215e-05
0.0056211 -2.85947e-05 8.27563e-06
0.00548301 -0.000563836 0.000388426
0.00562184 -3.37565e-06 1.07099e-05
0.00588921 -7.59317e-05 4.66395e-05
0.00586961 -5.90795e-05 9.14151e-06
0.00561628 -3.22e-05 1.16392e-05
0.0057255 -0.000727677 0.000466794
0.00589037 -7.26664e-05 4.45708e-05
0.00561555 -3.33525e-05 1.28584e-05
0.00584641 -6.02388e-05 0.00117633
0.0058874 -5.84323e-05 3.226e-05
0.00562471 -3.26444e-05 1.15437e-05
0.00553066 -0.000719692 0.000108274
0.00549991 -0.000721326 0.000106168
0.00561892 -2.09595e-05 2.23379e-06
0.00557271 -9.48374e-06 1.03725e-05
0.00560287 -1.76994e-05 9.89044e-06
0.00558571 -3.48583e-05 8.3367e-06
0.00551145 -0.00045323 0.000560082
0.00561958 -3.05152e-05 9.90653e-06
0.00560244 -2.66749e-05 8.79978e-06
0.00561407 -3.67128e-05 1.56012e-05
0.00598172 -6.18388e-05 0.00120441
0.00553483 -0.000688104 9.83337e-05
0.0058397 -5.01374e-05 0.00116609
0.0055156 -0.000601636 0.000395104
0.00585693 -0.000112666 0.00122848
0.00554962 -0.000653745 8.77604e-05
0.00588199 -9.27409e-05 0.00121278
0.00589504 -8.0279e-05 5.01689e-05
0.0058535 -0.000668914 0.000477041
0.00545938 -0.000619994 0.000443644
0.00568222 -8.11809e-05 0.00116651
0.00585803 -0.000106715 0.00122591
0.00584532 -0.000117494 0.00123469
0.00597429 -6.41916e-05 0.00120467
-3.83509e-14 8.16613e-14 2.95887e-13
0.00552685 -6.44059e-05 0.00114038
0.00563238 -2.18584e-05 2.92589e-06
0.00552699 -0.00067457 0.000454306
0.00494128 -0.000593483 -0.000211746
0.00586858 -0.000138746 0.00125465
0.0054464 -0.000588613 0.000447245
0.00559506 -2.49814e-05 9.62797e-06
0.00584593 -0.000699829 0.000474816
0.00584751 -0.000685122 0.000476535
0.00586282 -0.000651421 0.000480428
0.00583984 -0.000679186 0.000475769
0.00587171 -6.48146e-05 8.0338e-06
0.00549554 -0.000531555 0.000369127
0.00561255 -4.8164e-06 1.06228e-05
0.00587358 -0.000152074 0.00126769
0.00563539 -0.00055061 0.000386003
0.00583346 -0.000139447 0.00124737
0.00554339 -0.000580124 0.000369941
0.00551753 -0.000632474 0.000458117
0.00586579 -7.36443e-05 2.22923e-05
0.00555782 -0.00071136 0.000125287
0.0055919 -2.46214e-05 9.93286e-06
0.00559062 -0.000628761 0.000431448
0.0056745 -0.000791267 0.00044822
0.00555183 -2.50073e-06 1.0684e-05
0.00562058 -2.81428e-05 8.46355e-06
0.00551214 -8.86427e-06 1.01275e-05
0.005642 -6.96717e-05 2.3169e-05
0.00589751 -8.21281e-05 5.1799e-05
0.00550803 -0.000672415 0.000107568
0.00586386 -6.24475e-05 1.09972e-05
0.00550743 -0.000703513 0.000141319
0.00550016 -0.000653725 0.000477509
0.00559907 -0.000697251 0.000197094
0.00553733 -0.000156392 -0.000356238
0.00549295 -0.000577898 0.000392112
0.00542073 -0.000907249 6.77569e-05
0.00584856 -8.61866e-05 0.00120257
0.00547829 -0.000601659 0.000450086
0.00550412 -6.30454e-05 0.00113233
0.00561424 -1.6618e-05 1.01561e-05
0.0055876 -0.000669945 0.000250226
0.00584239 -0.000141285 0.00124881
0.00554049 -7.44617e-05 0.00113185
0.00588576 -0.000147473 0.00126559
0.0054978 -0.000562577 0.000378702
0.0054991 -0.000575049 0.000366519
0.00590495 -7.98094e-05 4.99198e-05
0.0059273 -7.48961e-05 4.59212e-05
0.0057359 -0.000708558 0.000465531
0.00553672 -1.41121e-05 1.03383e-05
0.00559355 -3.0881e-05 1.03805e-05
0.00559567 -0.000161913 -0.000358491
0.00589595 -0.00016815 0.00125639
0.00592382 -4.42142e-05 -0.000109041
0.00552215 -0.000707564 0.000106802
0.00589339 -7.77782e-05 4.81932e-05
0.00552679 -0.000734059 0.000116152
0.00562844 -2.01483e-05 1.38724e-06
0.00532065 -0.000246445 0.00082503
0.00590998 -8.44895e-05 5.41982e-05
0.00556653 -0.000683245 0.000307438
0.00559776 -0.000169424 -0.000356869
0.00554108 -0.000156365 -0.000356136
0.0057671 -0.000715237 0.000462685
0.00572483 -9.65297e-05 0.00119636
0.00553459 -0.000638253 0.000501713
0.00543413 -0.0005954 0.000445664
0.00562421 -3.24887e-05 1.0709e-05
0.00558931 -0.00017712 0.00123295
0.00550043 -0.000588279 0.000376289
0.0055518 -0.000542646 0.000391677
0.00577539 -0.000204952 -0.000356828
0.00578291 -0.00020775 -0.000356492
0.00577325 -0.000204687 -0.000356699
0.00557998 -3.56251e-05 0.00110374
0.00559224 -0.000718027 0.000118528
0.0057782 -0.000204833 -0.000356923
0.00545593 -0.000137262 -0.000356842
0.005879 -0.000160273 0.00127636
0.00550083 -0.000538781 0.000374974
0.00556698 -0.000159763 -0.000358237
0.0059154 -0.000123007 0.00124782
0.00562721 -3.70477e-05 1.09779e-05
0.00547854 -0.000141656 -0.000357245
0.00564281 -6.58622e-05 2.03016e-05
0.00542356 -0.000132608 -0.000356279
0.00541448 -0.000483468 0.000651469
0.00558508 -0.00064715 0.000357247
0.00557087 -7.47712e-05 0.00114311
0.00549212 -0.000526617 0.000367975
0.00551934 -0.000149457 -0.000357719
0.00544161 -0.000596637 0.000445444
0.00553061 -0.000564683 0.000368886
0.00561414 -0.000543982 0.000384018
0.00555284 -0.000159106 -0.000357277
0.00585267 -0.000127281 0.00124168
0.00563794 -6.82202e-05 2.32788e-05
0.00552501 -0.000655604 9.65586e-05
0.0059249 -0.000114182 0.00124092
0.00549729 -0.000585169 0.000401557
0.00554644 -0.000706773 0.000163989
0.00561871 -3.42368e-05 1.38822e-05
0.00544691 -0.000607018 0.0004426
0.00556141 -0.000151958 -0.000359861
0.0055886 -0.000125438 0.00118389
0.00554252 -0.000155734 -0.000357108
0.00587464 -0.000147694 0.00126325
0.00587625 -0.000144738 0.00126079
0.00586552 -0.000171808 0.00127996
0.00549191 -0.000578011 0.000374895
0.00560991 -0.000174363 -0.000355731
0.00561703 -0.00016155 -0.000361144
0.00549644 -0.000669655 0.00045124
0.00578033 -0.00020606 -0.000356639
0.00556083 -0.00054722 0.000398945
0.00547457 -0.000355302 0.000708322
0.00586352 -0.000133112 0.0012474
0.00565489 -0.000107557 0.00118686
0.0055725 -0.000664157 0.000233176
0.00586738 -0.000155225 0.0012645
0.00545371 -0.000192507 0.000912711
0.00553017 -0.000633034 0.000294391
0.00545994 -0.000613948 0.00044492
0.00551668 -0.000450032 0.000565386
0.00549711 -0.000532411 0.00037895
0.00563392 -0.000162655 -0.000360147
0.00561225 -0.000165967 0.00122651
0.00556078 -1.99163e-05 1.02986e-05
0.00578407 -0.00020734 -0.000357517
0.00541219 -0.000128154 -0.000356989
0.00561828 -3.08791e-05 9.69797e-06

VECTORS force float
-1.37698e-10 2.9572e-11 4.53703e-15
-1.62873e-11 1.54455e-11 -2.50109e-11
-4.28499e-10 2.16137e-11 -1.67729e-11
6.26703e-11 -9.45628e-13 -2.28498e-11
-2.18796e-12 -5.16594e-12 2.3381e-12
1.22814e-11 6.34569e-11 -1.17645e-11
-3.18967e-11 -6.54161e-11 5.75895e-11
2.3521e-12 5.87228e-12 -2.81906e-12
1.64953e-11 2.50475e-11 -1.73484e-11
6.84813e-11 5.10118e-11 3.77433e-12
8.75604e-11 -9.05408e-11 1.72944e-10
1.0132e-10 -4.99531e-11 2.60753e-12
1.01379e-10 -3.93876e-10 7.39833e-11
1.86657e-10 9.47962e-12 -3.96635e-11
3.3638e-12 3.26055e-11 -2.44999e-11
8.60355e-12 1.84784e-11 5.26919e-11
3.03151e-11 7.2352e-11 -3.7597e-12
1.00722e-10 -1.59151e-10 1.33755e-10
4.03867e-10 2.39848e-10 -6.03009e-11
6.27053e-13 -9.80414e-13 3.95643e-13
-2.24419e-11 5.83151e-12 -4.3511e-12
1.00832e-12 1.83339e-12 -7.88085e-13
1.18996e-10 2.23308e-11 2.07404e-10
-9.58765e-11 1.60147e-10 -1.31995e-10
-8.82962e-11 -2.89627e-11 -1.84486e-11
-1.88714e-11 -4.44798e-11 3.64289e-11
-3.63593e-11 1.9602e-11 -1.18718e-11
-4.41117e-12 -8.46138e-12 6.43199e-12
-5.58038e-13 -4.97732e-12 2.32603e-12
3.07602e-11 4.16898e-11 -3.5316e-11
-6.20972e-11 1.57672e-12 -5.52855e-13
-5.07585e-13 -3.39747e-12 1.6218e-12
1.44407e-11 -1.13859e-11 1.12823e-11
1.05593e-10 -4.6257e-11 3.48914e-11
7.8101e-13 1.45728e-13 -2.31342e-13
-8.73675e-12 2.86807e-11 -1.69503e-11
3.63511e-10 6.64481e-11 -5.59697e-11
-9.69977e-11 -6.26402e-11 5.13985e-11
-4.86415e-13 -3.74267e-12 2.28371e-12
2.44597e-11 4.13459e-11 -3.14407e-11
1.12866e-11 2.30654e-11 -3.24647e-12
2.98821e-12 6.35677e-12 -2.71755e-12
-1.75252e-11 -1.47689e-11 1.25504e-11
-1.06584e-10 3.64141e-11 -1.88477e-11
1.33051e-10 -3.32287e-10 1.0798e-10
5.56695e-13 -2.25454e-12 1.03575e-12
5.92053e-11 -7.52516e-11 -1.50707e-12
1.48539e-10 -1.99804e-10 2.95978e-10
-1.93457e-11 -4.52769e-11 -2.25316e-12
5.49248e-13 -2.98621e-12 1.21045e-12
1.0469e-24 -2.94683e-24 -2.06795e-25
-1.66578e-10 -5.91164e-11 4.83319e-11
-7.52619e-11 3.10201e-11 -2.64249e-11
-2.31569e-11 -3.48342e-11 3.19504e-11
-1.40046e-11 1.4623e-11 2.48462e-12
2.53004e-13 -1.75173e-12 8.79269e-13
-3.61998e-10 -1.58473e-10 1.3839e-10
4.53752e-10 -2.73544e-10 -1.199e-10
6.95261e-11 6.27135e-11 3.48885e-12
-9.28703e-11 -3.53875e-11 2.95247e-11
4.51948e-11 3.6042e-11 5.64981e-13
1.36904e-12 3.81086e-12 -2.17888e-12
4.94157e-11 1.50185e-10 -5.7531e-11
-6.85538e-11 1.6568e-10 1.68109e-13
4.89139e-11 2.00132e-11 -1.84323e-11
-3.28524e-11 -2.6411e-11 2.35138e-11
1.64514e-10 -8.228e-11 3.45795e-11
-4.81415e-11 -1.88984e-11 1.31384e-11
-1.25874e-11 2.33621e-10 -2.31497e-10
3.74629e-11 -1.32039e-10 -3.42378e-11
2.39341e-10 1.54637e-10 -1.25734e-10
5.53744e-10 5.78299e-11 9.36743e-11
2.75165e-10 -1.31661e-10 1.16632e-10
-7.79725e-13 1.22997e-12 -7.53741e-13
2.04785e-10 9.80432e-11 5.57545e-11
2.21857e-10 1.36455e-11 -1.14774e-11
-4.12744e-11 -1.47714e-11 7.87234e-12
-2.82654e-13 4.2776e-11 -1.71019e-11
3.38415e-11 7.96565e-11 8.31859e-12
2.25418e-11 8.69287e-11 -3.53678e-12
1.29472e-11 -2.07789e-10 7.94737e-11
1.13403e-11 5.11143e-11 -3.16045e-11
9.36022e-11 -9.97646e-11 8.44569e-11
6.85524e-11 3.59081e-11 -9.25326e-12
-9.05269e-11 2.47281e-11 -1.76711e-11
-1.10717e-11 1.79027e-11 -1.6683e-11
-1.10502e-11 6.77631e-11 -6.27766e-11
1.11373e-11 -6.49607e-11 6.10326e-11
2.06761e-11 -1.94198e-10 3.45967e-11
-1.81962e-12 8.37735e-11 -1.92706e-11
1.49478e-10 -4.53902e-10 -8.70562e-10
1.93755e-21 -4.20647e-22 -4.65289e-23
0.0 0.0 0.0
-3.71907e-10 5.76772e-10 -2.17305e-10
3.74608e-11 1.41259e-10 -1.06991e-10
-2.03902e-10 1.10324e-10 3.97221e-11
3.12687e-11 2.15666e-10 -2.09991e-10
9.21996e-11 5.07446e-11 4.7957e-13
-7.89551e-11 -3.58907e-11 1.25812e-11