# vtk DataFile Version 3.0
LIGGGHTS particles timestep 11600000
ASCII
DATASET POLYDATA
POINTS 287 float
0.0804579 0.0163146 0.00781282
0.0810128 0.0174709 0.00725422
0.0742257 0.0158152 0.00827774
0.0807964 0.0177169 0.00712204
0.0803192 0.0161181 0.00792567
0.0864906 0.0167895 0.00752683
0.0805135 0.0168878 0.00750235
0.0802228 0.0157645 0.00825248
0.086762 0.0179713 0.00705831
0.0804483 0.0166267 0.00763482
0.0809462 0.0176015 0.00718713
0.0744158 0.0165175 0.0077481
0.0803002 0.0160328 0.00797474
0.0741477 0.0155117 0.00852603
0.0806752 0.0171841 0.00737032
0.0741288 0.0154577 0.00860805
0.0804266 0.0165413 0.0076821
0.0866421 0.0174249 0.00727518
0.0802811 0.0159472 0.00802404
0.0804364 0.01623 0.00786153
0.0805569 0.0170648 0.00742005
0.0745547 0.0166952 0.00760786
0.0867027 0.017698 0.00716682
0.0804918 0.0167993 0.0075435
0.0865772 0.0171526 0.00738303
0.0745683 0.0169971 0.00748824
0.0807759 0.0176281 0.00716337
0.0802624 0.0158752 0.00809086
0.0807365 0.0174504 0.00724628
0.0805352 0.0169763 0.0074612
0.0806535 0.0170956 0.00741148
0.0865122 0.0168803 0.00749088
0.0804049 0.0164567 0.00773078
0.0806318 0.0170071 0.00745263
0.0867996 0.0181546 0.00698768
0.0805883 0.01683 0.00753493
0.0807713 0.0172145 0.00736193
0.0867226 0.0177891 0.00713066
0.0803614 0.0162875 0.00782816
0.0805786 0.0171533 0.0073789
0.0807916 0.0173036 0.00732041
0.0865339 0.016971 0.00745493
0.0866204 0.0173341 0.00731113
0.0803832 0.0163721 0.00777947
0.080622 0.0173303 0.0072966
0.0865988 0.0172433 0.00734708
0.0806812 0.0175969 0.00717229
0.0806616 0.017508 0.00721374
0.0743943 0.0164396 0.00780692
0.086663 0.0175158 0.00723914
0.0804152 0.0161453 0.00791028
0.0741868 0.015658 0.00839605
0.0806101 0.0169186 0.00749378
0.0865555 0.0170618 0.00741898
0.0806845 0.0168604 0.00752655
0.0807062 0.0169489 0.0074854
0.0803397 0.0162029 0.00787685
0.0808114 0.0173927 0.00727885
0.0807061 0.0175972 0.00726914
0.0866828 0.0176069 0.00720298
0.0746398 0.0172631 0.00730791
0.0746815 0.0169713 0.00749977
0.0809257 0.0175128 0.00722846
0.0808508 0.0175705 0.00719591
0.0805231 0.0165685 0.00766681
0.0867425 0.0178801 0.00709451
0.0741673 0.0155806 0.00845622
0.0808311 0.0174816 0.00723738
0.0804701 0.0167129 0.00758897
0.0806969 0.0172726 0.00732917
0.0746966 0.0172538 0.00722612
0.0809184 0.0182741 0.00696373
0.0742451 0.0158936 0.00821876
0.0745152 0.0167649 0.00766765
0.0807374 0.0178539 0.00705235
0.0744536 0.0166917 0.00772876
0.0744806 0.0167534 0.00757454
0.0745862 0.0164832 0.00776163
0.0867808 0.0180626 0.00702202
0.0743615 0.0159934 0.00813736
0.0807562 0.0175392 0.00720483
0.0806628 0.0167719 0.0075677
0.0807941 0.0181292 0.00695674
0.0807562 0.0179429 0.00701079
0.0809894 0.0173764 0.00729816
0.0744374 0.0165955 0.00768929
0.0808908 0.0177484 0.00711295
0.0808762 0.018078 0.00698209
0.0809523 0.0180136 0.00698942
0.0807214 0.0177831 0.00712112
0.0809077 0.0178377 0.00707114
0.0743513 0.0162837 0.00792455
0.0808141 0.018227 0.00696221
0.0746576 0.0170579 0.00745599
0.0808662 0.0172456 0.00735311
0.074468 0.016609 0.00778351
0.0643568 0.0187248 0.00531097
0.24257 0.0191927 0.00520306
0.0747156 0.0169524 0.00740767
0.0743082 0.0161278 0.00804219
0.0747922 0.0168983 0.00744221
0.0742654 0.0159718 0.00815984
0.0805666 0.0167415 0.00757611
0.080642 0.0174191 0.0072552
0.0810146 0.0178706 0.00706222
0.0808522 0.0184182 0.00700675
0.0743728 0.0163616 0.00786573
0.0750598 0.0172856 0.00721466
0.0748073 0.0171456 0.00736296
0.0807169 0.0173615 0.00728776
0.0805448 0.0166534 0.00761857
0.080395 0.0160604 0.00795914
0.0742062 0.0157364 0.00833706
0.0807279 0.0170374 0.00744424
0.080242 0.0158171 0.00816966
0.0802036 0.0157118 0.00833531
0.0810308 0.0179599 0.00702031
0.074404 0.0161494 0.00801968
0.0808339 0.0179043 0.0070604
0.0803757 0.0159754 0.00800809
0.0806003 0.0172418 0.00733775
0.0743297 0.0162057 0.00798337
0.0807009 0.0176857 0.00713085
0.0807741 0.018032 0.0069691
0.0745763 0.0167745 0.00755088
0.0747212 0.0171138 0.00740275
0.0808152 0.0178125 0.00709951
0.0805756 0.016426 0.007749
0.0807496 0.0171259 0.00740309
0.0803564 0.0158903 0.00805704
0.0743409 0.0159153 0.00819625
0.0808711 0.0185144 0.00702665
0.0805013 0.0164838 0.00771544
0.0809663 0.0181035 0.00694713
0.0743827 0.0160714 0.00807851
0.0746732 0.0167958 0.00752574
0.0742867 0.0160498 0.008101
0.0748119 0.0172282 0.00730681
0.0746846 0.0165072 0.00773727
0.0743208 0.015837 0.00825518
0.0745447 0.0169827 0.00739213
0.0809371 0.0183699 0.00698543
0.0744901 0.0164612 0.0077844
0.0748889 0.0169227 0.00741759
0.0744471 0.0163053 0.00790205
0.0746397 0.0170068 0.00737194
0.0747169 0.0173517 0.00722878
0.0746194 0.0169302 0.00743294
0.0219312 0.0187687 0.00551176
0.0747354 0.0170308 0.00734858
0.0808713 0.0176593 0.00715456
0.0746218 0.0173202 0.00722778
0.0746592 0.0170824 0.00730942
0.0748734 0.0176771 0.00721747
0.0749446 0.0171583 0.00724048
0.0805322 0.0162568 0.00784638
0.0744685 0.0163833 0.00784323
0.074812 0.0169766 0.00738324
0.0750057 0.0174501 0.00721453
0.0748473 0.0171345 0.00726568
0.0805539 0.0163414 0.00779769
0.0749241 0.0170801 0.00729937
0.0810408 0.0176333 0.00717799
0.0747691 0.0171851 0.00722441
0.0686101 0.0172628 0.00722394
0.074598 0.0168524 0.00749206
0.0746624 0.0175159 0.00723165
0.0750388 0.017187 0.00722303
0.0749853 0.0173522 0.00721741
0.0745857 0.0171472 0.0072893
0.0804796 0.0163992 0.00776413
0.0748297 0.0170557 0.00732472
0.0808357 0.0177777 0.00719103
0.0745234 0.0169074 0.00745439
0.0745642 0.0170582 0.00732947
0.080845 0.0171555 0.00739502
0.0808999 0.0181759 0.00696595
0.0808863 0.0173349 0.00731146
0.0687183 0.0173725 0.00714874
0.0808903 0.0186101 0.00704828
0.0747503 0.0167421 0.00755994
0.080641 0.0166833 0.00760887
0.0746085 0.0165618 0.00770232
0.074965 0.0172544 0.00722112
0.0741092 0.0154038 0.00868996
0.0686709 0.0175444 0.00714459
0.074505 0.0168488 0.00761407
0.0746753 0.0171582 0.00724632
0.0744588 0.0166735 0.00763056
0.0749713 0.0177126 0.00721161
0.0747718 0.0168201 0.00750111
0.080906 0.0174239 0.00726994
0.0745332 0.0166173 0.00766668
0.0748321 0.0174811 0.00722322
0.0747915 0.0172852 0.00722714
0.0744255 0.0162274 0.00796086
0.0747532 0.0171083 0.00728751
0.0745117 0.0165395 0.00772588
0.0806473 0.0173311 0.00739335
0.0809362 0.0179274 0.0070374
0.0748701 0.0172232 0.00722562
0.0808233 0.017067 0.00743619
0.0808545 0.0179806 0.00699901
0.0686863 0.0172088 0.00725969
0.074642 0.017418 0.00723042
0.0805974 0.0165106 0.00770029
0.0747574 0.0175476 0.007226
0.0808334 0.0183229 0.00698332
0.0746015 0.0172222 0.00722511
0.0686276 0.0169673 0.00743081
0.0806191 0.0165952 0.00765159
0.0746947 0.0168738 0.00746699
0.074502 0.0168313 0.00751565
0.0810823 0.017806 0.00709762
0.0749066 0.0170014 0.00735848
0.0688182 0.0173754 0.00715262
0.0686301 0.0173557 0.00719281
0.0746641 0.0171746 0.00734763
0.0749139 0.0178736 0.00721175
0.0685921 0.0171826 0.00728087
0.0745643 0.0164049 0.00782073
0.0746516 0.0167178 0.00758456
0.0809932 0.0181995 0.00693876
0.0749575 0.0180687 0.0072059
0.0749351 0.0179713 0.00720886
0.0750311 0.0180011 0.00720319
0.068402 0.0164656 0.00778924
0.0684669 0.0167045 0.00761977
0.0683804 0.016386 0.00784573
0.0746299 0.0166397 0.0076435
0.0745469 0.016921 0.00755065
0.0684237 0.0165453 0.00773275
0.0685536 0.0170276 0.00740091
0.0748524 0.0175789 0.00722036
0.075026 0.0175479 0.00721168
0.0686935 0.0176418 0.00714418
0.0747372 0.0174497 0.00722885
0.0809852 0.0177827 0.00710254
0.0687319 0.0178381 0.00714307
0.0686683 0.0171285 0.00731654
0.0685318 0.0169434 0.0074503
0.0743009 0.0157587 0.00831413
0.0748119 0.0173832 0.00722621
0.0747237 0.0178095 0.00722495
0.0747778 0.0176454 0.00722314
0.0687521 0.017936 0.00714255
0.0749239 0.0172317 0.00730944
0.0748826 0.018135 0.00720869
0.0750091 0.0179036 0.00720613
0.0685102 0.0168638 0.00750679
0.0747434 0.0179074 0.00722156
0.0686526 0.0174472 0.0071592
0.0748692 0.0168444 0.00747655
0.0748187 0.0178417 0.00721741
0.0745614 0.0170773 0.00742758
0.0747032 0.0177117 0.00722945
0.0809658 0.0176908 0.00714547
0.0748903 0.0173211 0.00722485
0.0687919 0.018132 0.0071415
0.0748071 0.0182004 0.00721154
0.068772 0.018034 0.00714203
0.0747987 0.0177435 0.00722025
0.0746828 0.0176138 0.00723142
0.0748302 0.0182976 0.00720854
0.0749312 0.0175168 0.00721729
0.0685727 0.0171025 0.00733749
0.0687043 0.0172894 0.0072026
0.0748487 0.0167662 0.00753546
0.0686485 0.0170481 0.00737351
0.0684454 0.0166249 0.00767627
0.0748579 0.0180377 0.00721177
0.0748384 0.0179397 0.00721459
0.074763 0.0180054 0.00721741
0.0748937 0.0177757 0.0072146
0.0747826 0.0181035 0.0072146
0.0747065 0.0165856 0.00767807
0.0747287 0.0166642 0.00761875
0.0749516 0.0176146 0.00721443
0.0745428 0.016327 0.00787955
0.0749108 0.0174189 0.00722056
0.0748528 0.018395 0.00720557
0.0687876 0.0176753 0.00714742
0.0749058 0.0182322 0.00720569
0.0808015 0.0169784 0.00747735
0.0684887 0.0167841 0.00756329
0.0687116 0.0177402 0.00714357
0.0808873 0.0176487 0.00725271

VERTICES 287 574
1 0
1 1
1 2
1 3
1 4
1 5
1 6
1 7
1 8
1 9
1 10
1 11
1 12
1 13
1 14
1 15
1 16
1 17
1 18
1 19
1 20
1 21
1 22
1 23
1 24
1 25
1 26
1 27
1 28
1 29
1 30
1 31
1 32
1 33
1 34
1 35
1 36
1 37
1 38
1 39
1 40
1 41
1 42
1 43
1 44
1 45
1 46
1 47
1 48
1 49
1 50
1 51
1 52
1 53
1 54
1 55
1 56
1 57
1 58
1 59
1 60
1 61
1 62
1 63
1 64
1 65
1 66
1 67
1 68
1 69
1 70
1 71
1 72
1 73
1 74
1 75
1 76
1 77
1 78
1 79
1 80
1 81
1 82
1 83
1 84
1 85
1 86
1 87
1 88
1 89
1 90
1 91
1 92
1 93
1 94
1 95
1 96
1 97
1 98
1 99
1 100
1 101
1 102
1 103
1 104
1 105
1 106
1 107
1 108
1 109
1 110
1 111
1 112
1 113
1 114
1 115
1 116
1 117
1 118
1 119
1 120
1 121
1 122
1 123
1 124
1 125
1 126
1 127
1 128
1 129
1 130
1 131
1 132
1 133
1 134
1 135
1 136
1 137
1 138
1 139
1 140
1 141
1 142
1 143
1 144
1 145
1 146
1 147
1 148
1 149
1 150
1 151
1 152
1 153
1 154
1 155
1 156
1 157
1 158
1 159
1 160
1 161
1 162
1 163
1 164
1 165
1 166
1 167
1 168
1 169
1 170
1 171
1 172
1 173
1 174
1 175
1 176
1 177
1 178
1 179
1 180
1 181
1 182
1 183
1 184
1 185
1 186
1 187
1 188
1 189
1 190
1 191
1 192
1 193
1 194
1 195
1 196
1 197
1 198
1 199
1 200
1 201
1 202
1 203
1 204
1 205
1 206
1 207
1 208
1 209
1 210
1 211
1 212
1 213
1 214
1 215
1 216
1 217
1 218
1 219
1 220
1 221
1 222
1 223
1 224
1 225
1 226
1 227
1 228
1 229
1 230
1 231
1 232
1 233
1 234
1 235
1 236
1 237
1 238
1 239
1 240
1 241
1 242
1 243
1 244
1 245
1 246
1 247
1 248
1 249
1 250
1 251
1 252
1 253
1 254
1 255
1 256
1 257
1 258
1 259
1 260
1 261
1 262
1 263
1 264
1 265
1 266
1 267
1 268
1 269
1 270
1 271
1 272
1 273
1 274
1 275
1 276
1 277
1 278
1 279
1 280
1 281
1 282
1 283
1 284
1 285
1 286

POINT_DATA 287
SCALARS id int 1
LOOKUP_TABLE default
1
2
3
4
5
6
7
8
9
10
11
12
13
14
15
16
17
18
19
21
22
23
24
25
26
27
28
29
30
31
32
33
34
35
36
37
38
39
41
42
44
45
46
47
48
49
50
51
52
53
54
55
56
57
59
60
61
62
63
64
65
66
67
68
69
70
71
72
73
74
76
77
78
79
80
81
82
83
84
85
86
87
88
89
90
91
92
93
94
95
96
97
98
99
100
101
102
103
104
105
106
107
108
109
110
111
112
113
114
115
116
117
118
119
120
121
122
123
124
125
126
127
128
129
130
131
132
133
134
135
136
137
138
140
141
142
143
144
146
147
148
149
150
151
153
154
155
156
157
158
159
160
162
164
165
166
167
168
169
170
171
172
173
174
175
176
177
178
179
181
182
183
184
185
186
187
188
189
190
191
192
193
194
195
196
197
198
199
200
201
202
203
204
205
206
207
208
209
210
211
212
213
214
215
216
217
218
219
220
221
222
223
224
225
226
227
228
229
230
231
232
233
234
235
236
237
239
240
241
242
243
244
246
247
248
249
250
251
252
253
254
255
256
257
258
259
260
261
262
263
264
265
266
267
268
269
270
271
272
273
274
275
276
277
278
279
280
281
282
283
284
285
286
287
288
289
290
291
292
293
294
295
296
297
298
299
300

SCALARS type int 1
LOOKUP_TABLE default
1
1
1
1
1
1
1
1
1
1
1
1
1
1
1
1
1
1
1
1
1
1
1
1
1
1
1
1
1
1
1
1
1
1
1
1
1
1
1
1
1
1
1
1
1
1
1
1
1
1
1
1
1
1
1
1
1
1
1
1
1
1
1
1
1
1
1
1
1
1
1
1
1
1
1
1
1
1
1
1
1
1
1
1
1
1
1
1
1
1
1
1
1
1
1
1
1
1
1
1
1
1
1
1
1
1
1
1
1
1
1
1
1
1
1
1
1
1
1
1
1
1
1
1
1
1
1
1
1
1
1
1
1
1
1
1
1
1
1
1
1
1
1
1
1
1
1
1
1
1
1
1
1
1
1
1
1
1
1
1
1
1
1
1
1
1
1
1
1
1
1
1
1
1
1
1
1
1
1
1
1
1
1
1
1
1
1
1
1
1
1
1
1
1
1
1
1
1
1
1
1
1
1
1
1
1
1
1
1
1
1
1
1
1
1
1
1
1
1
1
1
1
1
1
1
1
1
1
1
1
1
1
1
1
1
1
1
1
1
1
1
1
1
1
1
1
1
1
1
1
1
1
1
1
1
1
1
1
1
1
1
1
1
1
1
1
1
1
1
1
1
1
1
1
1
1
1
1
1
1
1
1
1
1
1
1
1

SCALARS radius float 1
LOOKUP_TABLE default
5e-05
5e-05
5e-05
5e-05
5e-05
5e-05
5e-05
5e-05
5e-05
5e-05
5e-05
5e-05
5e-05
5e-05
5e-05
5e-05
5e-05
5e-05
5e-05
5e-05
5e-05
5e-05
5e-05
5e-05
5e-05
5e-05
5e-05
5e-05
5e-05
5e-05
5e-05
5e-05
5e-05
5e-05
5e-05
5e-05
5e-05
5e-05
5e-05
5e-05
5e-05
5e-05
5e-05
5e-05
5e-05
5e-05
5e-05
5e-05
5e-05
5e-05
5e-05
5e-05
5e-05
5e-05
5e-05
5e-05
5e-05
5e-05
5e-05
5e-05
5e-05
5e-05
5e-05
5e-05
5e-05
5e-05
5e-05
5e-05
5e-05
5e-05
5e-05
5e-05
5e-05
5e-05
5e-05
5e-05
5e-05
5e-05
5e-05
5e-05
5e-05
5e-05
5e-05
5e-05
5e-05
5e-05
5e-05
5e-05
5e-05
5e-05
5e-05
5e-05
5e-05
5e-05
5e-05
5e-05
5e-05
5e-05
5e-05
5e-05
5e-05
5e-05
5e-05
5e-05
5e-05
5e-05
5e-05
5e-05
5e-05
5e-05
5e-05
5e-05
5e-05
5e-05
5e-05
5e-05
5e-05
5e-05
5e-05
5e-05
5e-05
5e-05
5e-05
5e-05
5e-05
5e-05
5e-05
5e-05
5e-05
5e-05
5e-05
5e-05
5e-05
5e-05
5e-05
5e-05
5e-05
5e-05
5e-05
5e-05
5e-05
5e-05
5e-05
5e-05
5e-05
5e-05
5e-05
5e-05
5e-05
5e-05
5e-05
5e-05
5e-05
5e-05
5e-05
5e-05
5e-05
5e-05
5e-05
5e-05
5e-05
5e-05
5e-05
5e-05
5e-05
5e-05
5e-05
5e-05
5e-05
5e-05
5e-05
5e-05
5e-05
5e-05
5e-05
5e-05
5e-05
5e-05
5e-05
5e-05
5e-05
5e-05
5e-05
5e-05
5e-05
5e-05
5e-05
5e-05
5e-05
5e-05
5e-05
5e-05
5e-05
5e-05
5e-05
5e-05
5e-05
5e-05
5e-05
5e-05
5e-05
5e-05
5e-05
5e-05
5e-05
5e-05
5e-05
5e-05
5e-05
5e-05
5e-05
5e-05
5e-05
5e-05
5e-05
5e-05
5e-05
5e-05
5e-05
5e-05
5e-05
5e-05
5e-05
5e-05
5e-05
5e-05
5e-05
5e-05
5e-05
5e-05
5e-05
5e-05
5e-05
5e-05
5e-05
5e-05
5e-05
5e-05
5e-05
5e-05
5e-05
5e-05
5e-05
5e-05
5e-05
5e-05
5e-05
5e-05
5e-05
5e-05
5e-05
5e-05
5e-05
5e-05
5e-05
5e-05
5e-05
5e-05
5e-05
5e-05
5e-05
5e-05
5e-05
5e-05
5e-05
5e-05
5e-05
5e-05
5e-05
5e-05
5e-05
5e-05
5e-05
5e-05
5e-05
5e-05
5e-05
5e-05
5e-05
5e-05
5e-05
5e-05
5e-05
5e-05
5e-05
5e-05
5e-05

SCALARS mass float 1
LOOKUP_TABLE default
1.46608e-10
1.46608e-10
1.46608e-10
1.46608e-10
1.46608e-10
1.46608e-10
1.46608e-10
1.46608e-10
1.46608e-10
1.46608e-10
1.46608e-10
1.46608e-10
1.46608e-10
1.46608e-10
1.46608e-10
1.46608e-10
1.46608e-10
1.46608e-10
1.46608e-10
1.46608e-10
1.46608e-10
1.46608e-10
1.46608e-10
1.46608e-10
1.46608e-10
1.46608e-10
1.46608e-10
1.46608e-10
1.46608e-10
1.46608e-10
1.46608e-10
1.46608e-10
1.46608e-10
1.46608e-10
1.46608e-10
1.46608e-10
1.46608e-10
1.46608e-10
1.46608e-10
1.46608e-10
1.46608e-10
1.46608e-10
1.46608e-10
1.46608e-10
1.46608e-10
1.46608e-10
1.46608e-10
1.46608e-10
1.46608e-10
1.46608e-10
1.46608e-10
1.46608e-10
1.46608e-10
1.46608e-10
1.46608e-10
1.46608e-10
1.46608e-10
1.46608e-10
1.46608e-10
1.46608e-10
1.46608e-10
1.46608e-10
1.46608e-10
1.46608e-10
1.46608e-10
1.46608e-10
1.46608e-10
1.46608e-10
1.46608e-10
1.46608e-10
1.46608e-10
1.46608e-10
1.46608e-10
1.46608e-10
1.46608e-10
1.46608e-10
1.46608e-10
1.46608e-10
1.46608e-10
1.46608e-10
1.46608e-10
1.46608e-10
1.46608e-10
1.46608e-10
1.46608e-10
1.46608e-10
1.46608e-10
1.46608e-10
1.46608e-10
1.46608e-10
1.46608e-10
1.46608e-10
1.46608e-10
1.46608e-10
1.46608e-10
1.46608e-10
1.46608e-10
1.46608e-10
1.46608e-10
1.46608e-10
1.46608e-10
1.46608e-10
1.46608e-10
1.46608e-10
1.46608e-10
1.46608e-10
1.46608e-10
1.46608e-10
1.46608e-10
1.46608e-10
1.46608e-10
1.46608e-10
1.46608e-10
1.46608e-10
1.46608e-10
1.46608e-10
1.46608e-10
1.46608e-10
1.46608e-10
1.46608e-10
1.46608e-10
1.46608e-10
1.46608e-10
1.46608e-10
1.46608e-10
1.46608e-10
1.46608e-10
1.46608e-10
1.46608e-10
1.46608e-10
1.46608e-10
1.46608e-10
1.46608e-10
1.46608e-10
1.46608e-10
1.46608e-10
1.46608e-10
1.46608e-10
1.46608e-10
1.46608e-10
1.46608e-10
1.46608e-10
1.46608e-10
1.46608e-10
1.46608e-10
1.46608e-10
1.46608e-10
1.46608e-10
1.46608e-10
1.46608e-10
1.46608e-10
1.46608e-10
1.46608e-10
1.46608e-10
1.46608e-10
1.46608e-10
1.46608e-10
1.46608e-10
1.46608e-10
1.46608e-10
1.46608e-10
1.46608e-10
1.46608e-10
1.46608e-10
1.46608e-10
1.46608e-10
1.46608e-10
1.46608e-10
1.46608e-10
1.46608e-10
1.46608e-10
1.46608e-10
1.46608e-10
1.46608e-10
1.46608e-10
1.46608e-10
1.46608e-10
1.46608e-10
1.46608e-10
1.46608e-10
1.46608e-10
1.46608e-10
1.46608e-10
1.46608e-10
1.46608e-10
1.46608e-10
1.46608e-10
1.46608e-10
1.46608e-10
1.46608e-10
1.46608e-10
1.46608e-10
1.46608e-10
1.46608e-10
1.46608e-10
1.46608e-10
1.46608e-10
1.46608e-10
1.46608e-10
1.46608e-10
1.46608e-10
1.46608e-10
1.46608e-10
1.46608e-10
1.46608e-10
1.46608e-10
1.46608e-10
1.46608e-10
1.46608e-10
1.46608e-10
1.46608e-10
1.46608e-10
1.46608e-10
1.46608e-10
1.46608e-10
1.46608e-10
1.46608e-10
1.46608e-10
1.46608e-10
1.46608e-10
1.46608e-10
1.46608e-10
1.46608e-10
1.46608e-10
1.46608e-10
1.46608e-10
1.46608e-10
1.46608e-10
1.46608e-10
1.46608e-10
1.46608e-10
1.46608e-10
1.46608e-10
1.46608e-10
1.46608e-10
1.46608e-10
1.46608e-10
1.46608e-10
1.46608e-10
1.46608e-10
1.46608e-10
1.46608e-10
1.46608e-10
1.46608e-10
1.46608e-10
1.46608e-10
1.46608e-10
1.46608e-10
1.46608e-10
1.46608e-10
1.46608e-10
1.46608e-10
1.46608e-10
1.46608e-10
1.46608e-10
1.46608e-10
1.46608e-10
1.46608e-10
1.46608e-10
1.46608e-10
1.46608e-10
1.46608e-10
1.46608e-10
1.46608e-10
1.46608e-10
1.46608e-10
1.46608e-10
1.46608e-10
1.46608e-10
1.46608e-10
1.46608e-10
1.46608e-10
1.46608e-10
1.46608e-10
1.46608e-10
1.46608e-10
1.46608e-10
1.46608e-10
1.46608e-10
1.46608e-10
1.46608e-10
1.46608e-10
1.46608e-10
1.46608e-10
1.46608e-10
1.46608e-10
1.46608e-10

VECTORS velocity float
0.00617715 2.93516e-05 9.7963e-07
0.00579383 0.000240481 0.000257808
0.00560096 -0.000273734 -0.000192136
0.00579963 0.000239509 0.00025634
0.00565734 0.00014361 -6.64011e-05
0.00608603 -0.000379744 0.000424172
0.00618331 0.000167863 0.000323293
0.00567488 2.84386e-05 -0.000107095
0.00550012 -0.00026638 0.000351968
0.00618294 5.94485e-05 9.36058e-05
0.00581728 0.000257422 0.000251792
0.00607965 -0.000249546 -0.000232754
0.00568223 0.000115211 -5.01216e-05
0.00561078 0.000173792 4.46096e-05
0.00615518 0.000179767 0.000310545
0.00560361 0.000200844 1.76102e-05
0.00618121 2.59391e-05 1.58919e-05
0.00600379 -0.000363643 0.000413966
0.00571033 0.000105126 -4.0987e-05
0.00605167 5.31448e-05 -1.30401e-05
0.00616347 0.000171791 0.000314708
0.00612194 -0.000329883 -0.000173656
0.00564823 -0.000295315 0.000370219
0.0061837 0.000167989 0.00031642
0.00603871 -0.000371107 0.000418555
0.00625221 -0.000138009 -5.93657e-06
0.00583545 0.000256148 0.000252301
0.00570758 8.2622e-05 -6.35233e-05
0.00576158 0.000214295 0.000268212
0.00617295 0.000168973 0.000317778
0.00616112 0.000170816 0.000315297
0.00607406 -0.000377628 0.000422786
0.00618026 2.63294e-05 1.52676e-06
0.00618303 0.000191012 0.000306881
0.00556456 -0.000381351 0.000108939
0.00619774 0.000171301 0.000317312
0.00612086 0.000151677 0.00032141
0.00568017 -0.00029923 0.000373633
0.0061737 3.90182e-05 -4.56451e-06
0.00615702 0.000173479 0.000313815
0.00599969 0.000583152 0.000106065
0.0060626 -0.000375857 0.000421544
0.0060159 -0.000366275 0.000415588
0.00617767 3.19902e-05 -7.16759e-07
0.00614417 0.000182738 0.000308584
0.00602673 -0.000369358 0.000417318
0.00579649 0.000234364 0.00026179
0.00576803 0.00023788 0.000257984
0.00607752 -0.000260025 -0.000226476
0.00558356 -0.000286398 0.000363975
0.00580454 9.91767e-05 -4.00175e-05
0.00562045 -0.00016538 -0.000251441
0.00618504 0.000176224 0.000314399
0.00605063 -0.00037375 0.000420165
0.00619658 0.000185304 0.000310609
0.00619347 0.000201348 0.000302592
0.00616894 4.57317e-05 -8.39941e-06
0.00574882 0.000190677 0.000278984
0.00579083 0.000231986 0.000264508
0.00561611 -0.000290963 0.000367156
0.00577231 -8.07816e-05 2.50507e-05
0.00629499 -0.000141403 -0.000404774
0.00581306 0.000260605 0.000249743
0.00583888 0.000274179 0.000245059
0.00618228 2.92771e-05 3.97125e-05
0.00571299 -0.000303307 0.000376688
0.00564007 -0.000133923 -0.00021781
0.00578005 0.000200856 0.000276389
0.00618526 0.000127036 0.00023209
0.00614041 0.00017513 0.000312058
0.00575459 -5.08595e-05 1.2187e-05
0.00568404 0.000306666 -0.000444396
0.00563256 -0.000277121 -0.000189008
0.00620075 -0.000295654 -0.000173247
0.0057057 0.000244741 0.00025211
0.00604884 -0.00023315 -0.000291649
0.00622084 -0.000238592 -0.000216889
0.00643513 0.000101823 -0.000521435
0.00554428 -0.00027236 0.000356581
0.00573237 -0.000227176 -0.000226764
0.00579085 0.000216661 0.000269922
0.00621696 0.00018373 0.000312694
0.00574955 0.000208098 0.000100405
0.00572356 0.000239615 0.000248555
0.00572532 0.00012512 0.000308684
0.00608735 -0.000236696 -0.000250274
0.00576429 0.000263768 0.000249105
0.00578244 0.000257083 0.000202371
0.00583075 0.000285988 0.000243228
0.00581188 0.000224002 0.000262676
0.00574304 0.000263066 0.000243712
0.00604868 -0.000275139 -0.000213591
0.00574607 0.000225441 -0.000244282
0.00618841 6.68574e-05 -3.02334e-05
0.00639778 0.00101684 -7.67372e-05
0.00641033 -0.000300021 -0.000359234
4.09142e-15 1.05352e-14 8.29643e-14
3.06537e-22 -3.03968e-22 8.29106e-22
0.00642176 -0.000190593 -0.000397465
0.00596884 -0.000281826 -0.000198934
0.00629911 -0.000329642 -0.000348965
0.00590658 -0.000311958 -0.000177472
0.00619089 0.000170403 0.000315795
0.00573659 0.000245682 0.000251648
0.00566267 0.000334186 0.000210834
0.00558499 0.000303361 -0.000456083
0.00606268 -0.00027065 -0.000217753
0.00577142 -7.55523e-05 -0.000307532
0.00601687 -0.000207085 -0.000430009
0.00571466 0.00022733 0.000259112
0.0061957 5.90396e-05 8.13074e-05
0.00568701 0.000119295 -5.26467e-05
0.00562331 -0.000174838 -0.000245979
0.00617101 0.000176936 0.000312857
0.00569379 3.95482e-05 -9.49348e-05
0.00566185 3.25049e-05 -0.000113692
0.00582143 0.000267091 0.000245967
0.00604558 -0.000264377 -0.000220604
0.00573686 0.000250176 0.000227988
0.00570222 0.000116553 -5.0582e-05
0.00615046 0.000178181 0.000311304
0.00600954 -0.000278707 -0.00020794
0.00582088 0.000228327 0.000263739
0.0057362 0.00023634 0.000254776
0.00628569 -0.000347473 -0.000268066
0.00596293 -0.000191337 -0.000580203
0.00573487 0.000228262 0.000204177
0.00618281 2.75471e-05 1.60341e-06
0.00615902 0.000179383 0.000310771
0.00571677 0.000114078 -4.87937e-05
0.00563767 -0.000218736 -0.00022672
0.00554254 0.000316872 -0.000420469
0.00618109 2.50968e-05 4.1326e-06
0.00581938 0.000246614 0.000261709
0.00591058 -0.000251513 -0.000220756
0.00639793 -0.00018668 -0.000314669
0.00599335 -0.000302663 -0.000185912
0.00585475 4.94678e-05 -1.1319e-05
0.00715474 0.000161399 -0.000609996
0.0056492 -0.000228643 -0.000220039
0.00622468 -4.86539e-05 2.44125e-05
0.00561232 0.000319475 -0.00042841
0.00613041 -0.00022378 -0.000256802
0.00579418 -2.30064e-05 -0.000381184
0.00604344 -0.000240923 -0.000237573
0.00618238 -6.82715e-05 4.40529e-05
0.00570964 -3.64134e-05 8.54194e-06
0.00627897 -0.000211701 -6.34087e-05
-3.83698e-14 8.16684e-14 2.95883e-13
0.00620178 9.6183e-05 -0.000500469
0.00581073 0.000251031 0.000251101
0.00572104 -0.000111438 2.20483e-05
0.00582365 -7.48788e-05 -2.54094e-05
0.00459599 -0.00123854 -0.000221765
0.00575017 -0.000103948 -0.000404853
0.00618365 3.39723e-05 -1.66118e-06
0.00606445 -0.000234975 -0.000246284
0.00567994 -0.000113187 -0.000312449
0.00586746 -8.8596e-05 -0.000313747
0.00576845 4.67653e-05 -6.98476e-05
0.00618255 2.98497e-05 6.42464e-07
0.0058053 -4.36796e-05 -0.000348977
0.00577865 0.000318011 0.000219758
0.00576786 -1.83724e-05 6.13233e-06
0.00558673 -0.000524445 0.00020983
0.00628885 -0.000258132 -0.000222079
0.00569017 -0.000102139 -0.000182292
0.00582637 3.08437e-05 0.000133112
0.00578087 -7.52247e-05 -0.000316666
0.00577435 4.49228e-05 -2.01891e-05
0.00618047 2.72541e-05 1.8147e-06
0.00573063 -3.60883e-05 -0.000220062
0.00568821 0.000268268 0.000224747
0.00625249 -0.000129669 -5.86464e-05
0.00565625 5.83429e-05 -6.92314e-05
0.00614419 0.000168052 0.00031541
0.00580154 0.000306505 -1.52968e-05
0.00575024 0.000163806 0.000292132
0.0056771 -0.000552984 0.000228912
0.00550764 0.000331469 -0.000416038
0.00657976 -1.70193e-05 -0.000440908
0.00620768 0.000181834 0.000312419
0.00648981 -0.00039195 -0.000156296
0.00576853 -3.8824e-05 -0.000220143
0.00559571 0.000219551 -7.3287e-06
0.00570516 -0.000543057 0.00023113
0.00627095 -0.000346221 -0.000167871
0.00577692 -3.54747e-05 4.97659e-06
0.00610959 -0.000239318 -0.00024122
0.00623285 0.000245861 -0.00033492
0.00641895 -0.000298372 -0.000222997
0.00576647 0.000189517 0.00028085
0.0059632 -0.000327221 -0.000181751
0.00573468 -8.99378e-05 -0.000299608
0.00570602 1.3604e-05 1.13691e-05
0.00606967 -0.000260338 -0.000225973
0.00579965 1.15213e-05 -7.30224e-06
0.00618892 -0.000215214 -0.000479053
0.0061485 0.000188939 0.000304559
0.00561364 0.000268775 0.000169408
0.00576246 4.16277e-05 -1.43222e-05
0.00617684 0.000196029 0.0003042
0.00572806 0.00021491 0.00026556
0.00550563 -0.000591085 0.00025825
0.00567932 -0.000122555 1.559e-05
0.00620298 3.25491e-05 3.26079e-08
0.00568967 -8.92266e-05 -0.000299321
0.00567068 0.000282225 -0.00044469
0.0057936 4.79127e-05 1.43694e-05
0.00611712 -0.000379754 9.3473e-05
0.00620134 1.9779e-05 7.74099e-06
0.00642249 -0.000253533 -0.000480878
0.0063114 -0.000232832 -0.000175644
0.00576732 0.000426402 0.000167883
0.00558914 -1.82173e-06 -0.000384661
0.00567779 -0.000587955 0.000230409
0.00567653 -0.00054346 0.000224488
0.00579806 -8.95748e-05 -3.27585e-05
0.00561699 -0.000218761 -0.000296156
0.00543306 -0.000501399 0.000196818
0.00609598 -0.000264469 -0.000224294
0.00636509 -0.000218692 -0.000265207
0.00569683 0.000229856 -0.000460327
0.00617991 -0.00028104 -0.000324138
0.00602262 -0.000284119 -0.000316874
0.00620561 -0.000284972 -0.000325866
0.00597493 -0.000598417 0.000250783
0.00601254 -0.000609391 0.000257502
0.00596105 -0.0005987 0.000251387
0.00617937 -0.00028274 -0.000205562
0.00649307 -0.000256972 -8.04305e-05
0.00599184 -0.00060179 0.000252702
0.00589055 -0.000585079 0.000242861
0.00573745 -8.49134e-05 -0.000304329
0.0060718 -5.02448e-05 -0.000312147
0.00569549 -0.000540606 0.000230438
0.00572631 -0.000126604 -0.000302238
0.00579449 0.000306699 0.00022854
0.00562666 -0.000531448 0.000227156
0.00534234 -0.000575487 0.000252551
0.0060515 -0.00061559 0.000260621
0.00563709 -0.000226939 -0.000219533
0.00580053 -9.08338e-05 -0.000339135
0.00564229 0.00022783 -0.000563373
0.0057319 -5.8192e-05 -0.000315473
0.00553764 -0.000522027 0.000223983
0.00594187 4.57902e-05 -0.000126126
0.00622058 -0.00019172 -0.000328227
0.00578179 -0.000167568 -0.00030514
0.0060354 -0.000613525 0.000259747
0.00584595 0.000280805 -0.000686633
0.00569182 -0.000541832 0.000229484
0.00650336 -0.00026815 -0.000238075
0.00523008 -0.00049889 -0.000281372
0.00567456 -1.23695e-05 -8.50249e-05
0.00577371 0.000103619 -0.000336023
0.00576232 0.000283341 0.000237821
0.00586187 -1.15374e-05 -0.000187304
0.00524658 -0.000470007 0.000211914
0.00626538 -9.44631e-05 -0.000333332
0.00539973 -0.000499222 0.000218317
0.00520549 -0.000469624 -0.00026708
0.00569793 -1.33258e-05 -0.000338159
0.00633104 -9.11734e-05 -0.000341961
0.00590831 -6.18456e-06 -0.000345896
0.00554787 -0.000526538 0.000211145
0.00566525 -0.000553548 0.000228026
0.00637915 -0.000357776 -0.000181348
0.00576506 -0.000320566 6.15491e-05
0.00600196 -0.000606701 0.00025587
0.00769893 -0.000747053 -0.000385667
0.00613511 -0.000548641 -0.000316496
0.00664066 0.000212295 -0.000334379
0.00573298 -6.94126e-05 -0.000299023
0.00796036 0.000142114 -0.000642284
0.00681318 0.000295415 -0.000681724
0.00658705 1.88735e-05 -0.000461679
0.0059124 7.9416e-05 -0.000316591
0.00604654 -0.000235479 -0.000242576
0.00579691 -1.22615e-05 -0.000332068
0.00457261 0.00034648 -0.000250313
0.00568805 -0.0005147 0.00022996
0.00636069 -0.000136056 -0.000336667
0.00618944 0.000192241 0.000306695
0.00601991 -0.000611035 0.000258453
0.00567076 -0.000536964 0.000229217
0.00578223 0.000229508 0.000247807

VECTORS force float
4.12494e-11 -3.28579e-11 1.98126e-11
-1.6019e-10 7.95987e-11 -5.13407e-11
-3.21853e-10 -1.8658e-10 1.72713e-11
-3.75607e-11 1.00516e-10 -6.27007e-11
-2.22806e-11 -9.40805e-11 5.71474e-11
1.96666e-12 5.37276e-12 -2.28976e-12
1.02629e-10 7.46558e-11 -3.791e-11
2.0164e-10 7.20639e-11 9.54147e-11
1.10391e-12 2.7875e-12 -3.09273e-12
4.95909e-12 1.28086e-10 2.57089e-10
-4.39408e-11 1.09374e-10 -7.19348e-11
4.56015e-10 4.34506e-10 -3.2851e-10
9.59684e-12 1.74092e-10 -9.50154e-11
-7.93926e-11 -2.7713e-10 5.84102e-10
-8.63906e-11 -7.2162e-12 -2.12185e-12
-2.3847e-10 -3.53389e-10 5.76347e-10
-6.3929e-12 5.22497e-11 1.91893e-10
-1.18368e-12 -2.95201e-12 1.84068e-12
2.97556e-11 -1.16951e-11 6.11168e-11
5.57405e-11 -3.36962e-11 2.58607e-11
5.52858e-12 4.59343e-11 -2.16162e-11
1.29952e-11 2.19311e-10 -2.60932e-10
-7.48638e-14 1.81991e-12 -2.67141e-12
3.20333e-11 7.49904e-11 -1.6349e-11
-9.08802e-12 -6.58968e-12 1.62302e-12
2.89724e-11 2.18587e-10 6.08679e-10
-1.45883e-10 -5.27288e-11 1.35867e-11
-1.05534e-10 -7.11057e-11 6.82139e-11
1.74129e-12 1.68448e-10 -7.64144e-11
5.10684e-11 7.81696e-11 -2.74124e-11
-1.16692e-11 2.4957e-12 -2.10917e-12
-6.07658e-13 4.81711e-13 -3.61168e-13
7.41078e-12 -3.96202e-11 3.34083e-11
4.59935e-12 8.6076e-11 -4.4248e-11
1.05226e-13 -3.07638e-12 1.22798e-12
7.57665e-11 5.23522e-11 -3.44699e-11
-7.70975e-11 -2.39715e-11 5.26808e-12
1.5823e-12 3.30801e-12 5.40862e-12
-1.97614e-11 -4.93249e-11 2.59962e-11
-1.957e-11 -2.42674e-12 -1.0269e-12
-4.98692e-10 -2.61293e-10 1.05061e-10
-1.20352e-12 2.03532e-12 -7.67482e-13
-2.72647e-12 -3.935e-12 1.73315e-13
3.5317e-12 -3.88323e-11 1.51941e-11
-8.30472e-11 -1.04929e-10 4.19493e-11
4.07358e-12 -6.8395e-12 3.93343e-12
1.53122e-10 9.94672e-11 -2.32444e-11
-1.7705e-10 4.88391e-11 -1.54679e-11
2.55777e-10 6.06981e-10 -4.66226e-10
1.06687e-12 -2.19552e-12 2.50672e-12
2.8673e-11 -3.96912e-11 1.85297e-11
5.07343e-10 -3.22866e-10 -2.69475e-10
8.7613e-11 1.00906e-10 -4.05295e-11
2.47778e-12 -3.35644e-12 1.84582e-12
1.47237e-11 -1.89419e-11 9.93189e-12
-7.77401e-11 4.15557e-11 -2.40997e-11
-1.99409e-11 -8.02999e-11 4.71917e-11
1.34341e-10 3.36738e-10 -1.64823e-10
1.8659e-10 2.4766e-13 2.93599e-11