# vtk DataFile Version 3.0
LIGGGHTS particles timestep 42600000
ASCII
DATASET POLYDATA
POINTS 275 float
0.261613 0.0180371 0.00711709
0.261285 0.0169385 0.00746505
0.261439 0.0168497 0.00756225
0.2608 0.0154589 0.00914877
0.26728 0.0169121 0.00746798
0.261564 0.0173873 0.00717247
0.261285 0.0166165 0.00779301
0.267472 0.0177716 0.00700725
0.26093 0.0158193 0.00869059
0.261492 0.0176105 0.00723679
0.255557 0.0169993 0.00752679
0.260779 0.0153985 0.00922552
0.255519 0.0176052 0.00714139
0.255715 0.0180836 0.00696966
0.260909 0.0157587 0.00876748
0.260757 0.0153381 0.00930229
0.261606 0.0175822 0.00715521
0.261243 0.0164783 0.00793197
0.255746 0.0178218 0.00698921
0.267395 0.0174205 0.00717081
0.260973 0.0159399 0.00853716
0.267433 0.01759 0.00707175
0.255366 0.0169398 0.00755822
0.261362 0.0168931 0.00751468
0.260735 0.0152778 0.009379
0.26106 0.016183 0.00823179
0.261644 0.0173266 0.0071756
0.260997 0.0159997 0.00846083
0.2673 0.0169967 0.0074185
0.260886 0.0157 0.00884503
0.261529 0.0171963 0.00721319
0.26753 0.0180626 0.0069631
0.261421 0.0167804 0.00763211
0.261492 0.0170577 0.00735277
0.267414 0.0175052 0.00712127
0.26086 0.0155775 0.00900027
0.261539 0.0168819 0.0075339
0.261595 0.0170896 0.00732472
0.267319 0.0170815 0.00736897
0.260866 0.015638 0.00892087
0.26147 0.0178061 0.00713983
0.267491 0.0178686 0.00699253
0.261016 0.0160607 0.00838368
0.261666 0.0174238 0.00716696
0.255614 0.0172462 0.00736637
0.267357 0.017251 0.00726989
0.261821 0.0177475 0.0071362
0.255537 0.0173034 0.0073381
0.261801 0.0176498 0.00714484
0.267338 0.0171662 0.00731943
0.378022 0.019866 0.005332
0.261612 0.017159 0.00725473
0.260822 0.0155192 0.00907204
0.261511 0.0171269 0.00728309
0.261573 0.0180018 0.00720183
0.267376 0.0173357 0.00722035
0.255576 0.017468 0.00723122
0.255721 0.0178325 0.00708522
0.261625 0.0176798 0.00714659
0.261416 0.017101 0.00730522
0.261706 0.0176191 0.00714972
0.267452 0.0176747 0.00702221
0.255885 0.0180456 0.00698183
0.261689 0.0179719 0.00712069
0.260951 0.0158797 0.00861377
0.261037 0.0161211 0.0083069
0.25548 0.0170526 0.00749216
0.261302 0.0170078 0.00739518
0.254857 0.0153916 0.00873075
0.255778 0.0183765 0.00697506
0.26138 0.0169637 0.00744605
0.255622 0.0178949 0.00706943
0.255576 0.017082 0.00747398
0.267511 0.0179656 0.00697781
0.255928 0.0182444 0.00698548
0.261575 0.0170205 0.0073943
0.261345 0.0168238 0.00758454
0.26147 0.0173535 0.00717758
0.261589 0.0176436 0.00723226
0.261646 0.0177774 0.00713796
0.255538 0.0169154 0.00757769
0.261393 0.0174173 0.0071832
0.261124 0.0163861 0.00802062
0.261507 0.0177194 0.00723026
0.261423 0.0172772 0.00727938
0.261374 0.017319 0.00718279
0.254962 0.01566 0.00833475
0.261104 0.016317 0.00809014
0.255501 0.0179124 0.00695365
0.261587 0.0174844 0.00716383
0.25552 0.0180142 0.00695688
0.0643568 0.0187248 0.00531097
0.24257 0.0191927 0.00520306
0.255812 0.0181132 0.00697673
0.25492 0.0155308 0.00847256
0.255614 0.0178047 0.00711199
0.254878 0.0154379 0.00864466
0.261726 0.0177165 0.00714109
0.26178 0.0175524 0.00715347
0.261267 0.0168692 0.00753487
0.261231 0.0167306 0.00767449
0.255004 0.0158257 0.00823114
0.255425 0.0175804 0.00716298
0.255463 0.0177445 0.00705525
0.261557 0.0169512 0.00746411
0.261549 0.0177447 0.00714303
0.261546 0.0172893 0.00718119
0.255653 0.0174104 0.00725876
0.261747 0.017814 0.00713246
0.261264 0.0165473 0.00786259
0.261556 0.0181959 0.00710523
0.261355 0.0172212 0.00719139
0.255907 0.0181432 0.0069837
0.261148 0.0164547 0.00795187
0.261452 0.0172555 0.00718619
0.254942 0.0155768 0.00838662
0.261084 0.0162502 0.00816168
0.26148 0.017504 0.00725367
0.255557 0.0177697 0.00703357
0.255578 0.0178538 0.00697836
0.261456 0.0169191 0.00749236
0.261569 0.0178422 0.0071344
0.26153 0.017647 0.00715165
0.261685 0.0175216 0.00715835
0.255518 0.0172202 0.00739005
0.261382 0.0173681 0.00726956
0.261431 0.0176106 0.00715706
0.26132 0.0170772 0.0073253
0.255361 0.0165487 0.00779765
0.255729 0.0177393 0.00704314
0.254899 0.0154843 0.00855868
0.255691 0.0175746 0.00715114
0.255045 0.0159907 0.00813155
0.255538 0.0176873 0.00708756
0.255382 0.016633 0.00774658
0.261189 0.0165929 0.00781342
0.255732 0.0185405 0.00697228
0.255656 0.0182461 0.00696584
0.255403 0.016717 0.00769569
0.255041 0.0159053 0.0081834
0.255066 0.0160741 0.00808063
0.255341 0.0164649 0.00784843
0.0219312 0.0187687 0.00551176
0.255441 0.0168847 0.00759395
0.261474 0.0169884 0.00742257
0.255539 0.0181124 0.00695699
0.255651 0.018091 0.007046
0.255129 0.016325 0.00792864
0.25576 0.0182781 0.0069744
0.261451 0.0177083 0.00714845
0.255622 0.0184885 0.00696412
0.255806 0.0184725 0.00697736
0.255643 0.018586 0.00696899
0.255708 0.0184457 0.00699227
0.261634 0.0181343 0.00710846
0.255406 0.0174983 0.00721686
0.261667 0.0178746 0.00712933
0.25517 0.0164924 0.00782718
0.255462 0.0173589 0.00730282
0.255162 0.0161015 0.00806634
0.255489 0.0177347 0.00716091
0.255595 0.0181796 0.00704916
0.261577 0.0182937 0.00709655
0.255518 0.0179126 0.00705226
0.261513 0.0178554 0.0072159
0.25571 0.0176567 0.00709733
0.256001 0.0181768 0.00699059
0.261591 0.0179394 0.00712577
0.261435 0.0171703 0.00723558
0.261534 0.0180984 0.00711389
0.249591 0.0183435 0.00694982
0.26121 0.0166616 0.00774386
0.255444 0.0176624 0.00710904
0.261656 0.0182316 0.00709982
0.255631 0.0179926 0.00704486
0.255636 0.0181465 0.00696413
0.255673 0.0178894 0.00698373
0.249274 0.0168995 0.00749778
0.255595 0.0171641 0.00742017
0.255554 0.0180586 0.00703996
0.254983 0.0157426 0.0082828
0.255732 0.0181821 0.00697118
0.255461 0.0169686 0.00754305
0.26151 0.0175486 0.00716033
0.255768 0.0179181 0.00697297
0.255307 0.0166881 0.00771085
0.255347 0.0168559 0.00760913
0.255224 0.0163529 0.00791399
0.255634 0.0173283 0.00731257
0.255557 0.0173862 0.00728537
0.261306 0.0166855 0.00772367
0.261326 0.0167546 0.00765422
0.255834 0.0182108 0.00697859
0.261512 0.0180008 0.00712256
0.261398 0.0170317 0.00737502
0.249488 0.0178684 0.00702775
0.255204 0.0162692 0.00796476
0.261599 0.0183909 0.00708791
0.255482 0.0178281 0.0070038
0.261167 0.0165238 0.00788229
0.255597 0.0179504 0.00696071
0.261626 0.0172287 0.00718441
0.255385 0.0170238 0.00750731
0.261249 0.0167999 0.00760467
0.255597 0.0177195 0.00716151
0.249507 0.0179567 0.00698486
0.249449 0.0176937 0.00711246
0.255854 0.0183118 0.00698036
0.255291 0.016995 0.00752249
0.255694 0.01818 0.00706364
0.2556 0.0183909 0.00696226
0.26157 0.0175456 0.00724108
0.255252 0.0168272 0.00762423
0.255348 0.0172467 0.00736981
0.255367 0.0173306 0.00731895
0.249176 0.0165002 0.00777924
0.249235 0.0167306 0.00759637
0.249156 0.0164239 0.00784067
0.255519 0.0168314 0.00762864
0.255652 0.0177984 0.00701977
0.249196 0.0165765 0.00771781
0.249371 0.0173408 0.00728368
0.255191 0.0165761 0.00777645
0.2555 0.017524 0.00719662
0.249312 0.0170761 0.00741211
0.255266 0.0165205 0.00781244
0.261488 0.0174515 0.00716897
0.24939 0.017429 0.00724087
0.249569 0.0182459 0.0069487
0.249332 0.0171643 0.00736929
0.254836 0.0153452 0.00881685
0.25579 0.0180156 0.00697487
0.255422 0.0168008 0.00764485
0.255481 0.017441 0.00724901
0.24941 0.0175173 0.00719807
0.255684 0.0183426 0.00698607
0.255443 0.0172755 0.00735462
0.255387 0.0174145 0.00726802
0.249293 0.0169878 0.00745493
0.255087 0.0161577 0.00802998
0.249612 0.0184411 0.00695094
0.255616 0.0180486 0.00696238
0.255286 0.0166042 0.0077617
0.255672 0.0174925 0.00720495
0.255633 0.0177126 0.00706719
0.261338 0.0171465 0.00725548
0.255656 0.0182724 0.00706232
0.249482 0.0177789 0.00707194
0.255327 0.0167719 0.00766004
0.24943 0.0176054 0.00715533
0.25515 0.0164087 0.00787791
0.255245 0.0164367 0.00786322
0.255211 0.0166598 0.00772573
0.255595 0.017549 0.00717568
0.249602 0.0179872 0.006975
0.249527 0.018051 0.00695771
0.25556 0.0182113 0.00696109
0.249216 0.0166529 0.00765636
0.25531 0.0170789 0.00747159
0.255404 0.0171077 0.00745642
0.255108 0.0162413 0.00797931
0.255272 0.016911 0.00757339
0.255694 0.0179858 0.00696784
0.255183 0.0161853 0.00801558
0.255499 0.0171365 0.00744126
0.255614 0.0176299 0.00712008
0.25558 0.018301 0.00700111
0.255424 0.0171916 0.00740552
0.255329 0.0171628 0.00742069
0.249548 0.0181481 0.00694753
0.255232 0.0167435 0.00767499
0.261491 0.0179036 0.00713119
0.249254 0.0168113 0.00754056
0.249351 0.0172526 0.00732649
0.261412 0.0175155 0.00718106

VERTICES 275 550
1 0
1 1
1 2
1 3
1 4
1 5
1 6
1 7
1 8
1 9
1 10
1 11
1 12
1 13
1 14
1 15
1 16
1 17
1 18
1 19
1 20
1 21
1 22
1 23
1 24
1 25
1 26
1 27
1 28
1 29
1 30
1 31
1 32
1 33
1 34
1 35
1 36
1 37
1 38
1 39
1 40
1 41
1 42
1 43
1 44
1 45
1 46
1 47
1 48
1 49
1 50
1 51
1 52
1 53
1 54
1 55
1 56
1 57
1 58
1 59
1 60
1 61
1 62
1 63
1 64
1 65
1 66
1 67
1 68
1 69
1 70
1 71
1 72
1 73
1 74
1 75
1 76
1 77
1 78
1 79
1 80
1 81
1 82
1 83
1 84
1 85
1 86
1 87
1 88
1 89
1 90
1 91
1 92
1 93
1 94
1 95
1 96
1 97
1 98
1 99
1 100
1 101
1 102
1 103
1 104
1 105
1 106
1 107
1 108
1 109
1 110
1 111
1 112
1 113
1 114
1 115
1 116
1 117
1 118
1 119
1 120
1 121
1 122
1 123
1 124
1 125
1 126
1 127
1 128
1 129
1 130
1 131
1 132
1 133
1 134
1 135
1 136
1 137
1 138
1 139
1 140
1 141
1 142
1 143
1 144
1 145
1 146
1 147
1 148
1 149
1 150
1 151
1 152
1 153
1 154
1 155
1 156
1 157
1 158
1 159
1 160
1 161
1 162
1 163
1 164
1 165
1 166
1 167
1 168
1 169
1 170
1 171
1 172
1 173
1 174
1 175
1 176
1 177
1 178
1 179
1 180
1 181
1 182
1 183
1 184
1 185
1 186
1 187
1 188
1 189
1 190
1 191
1 192
1 193
1 194
1 195
1 196
1 197
1 198
1 199
1 200
1 201
1 202
1 203
1 204
1 205
1 206
1 207
1 208
1 209
1 210
1 211
1 212
1 213
1 214
1 215
1 216
1 217
1 218
1 219
1 220
1 221
1 222
1 223
1 224
1 225
1 226
1 227
1 228
1 229
1 230
1 231
1 232
1 233
1 234
1 235
1 236
1 237
1 238
1 239
1 240
1 241
1 242
1 243
1 244
1 245
1 246
1 247
1 248
1 249
1 250
1 251
1 252
1 253
1 254
1 255
1 256
1 257
1 258
1 259
1 260
1 261
1 262
1 263
1 264
1 265
1 266
1 267
1 268
1 269
1 270
1 271
1 272
1 273
1 274

POINT_DATA 275
SCALARS id int 1
LOOKUP_TABLE default
1
2
4
5
6
7
8
9
10
11
12
13
14
16
17
19
21
22
23
24
25
26
27
28
29
30
31
32
33
34
35
36
37
38
39
41
42
44
45
47
48
49
50
51
52
53
54
55
56
57
59
60
61
62
63
64
65
66
67
68
69
70
71
72
73
74
76
77
78
79
80
82
83
84
85
86
87
88
89
90
91
92
93
94
95
96
97
98
99
100
101
102
103
104
105
106
107
108
109
110
111
112
113
114
115
116
117
118
119
120
121
122
123
124
125
127
128
129
130
131
132
133
134
135
136
137
138
140
141
142
143
144
146
147
148
149
150
151
153
154
155
156
157
158
159
160
162
164
165
166
167
168
169
170
171
172
173
174
176
177
178
179
182
183
184
185
186
187
188
189
190
191
192
193
194
195
196
197
198
199
200
201
202
203
204
205
206
207
208
209
210
211
212
213
214
215
216
217
218
219
220
222
224
225
226
227
228
229
230
232
233
234
235
236
237
239
240
241
242
243
244
246
247
248
249
250
251
252
253
254
255
256
257
258
259
260
261
262
263
264
265
266
267
268
269
270
271
272
273
274
275
276
277
278
279
280
281
283
284
285
286
287
288
289
290
291
292
293
294
295
296
297
298
299
300

SCALARS type int 1
LOOKUP_TABLE default
1
1
1
1
1
1
1
1
1
1
1
1
1
1
1
1
1
1
1
1
1
1
1
1
1
1
1
1
1
1
1
1
1
1
1
1
1
1
1
1
1
1
1
1
1
1
1
1
1
1
1
1
1
1
1
1
1
1
1
1
1
1
1
1
1
1
1
1
1
1
1
1
1
1
1
1
1
1
1
1
1
1
1
1
1
1
1
1
1
1
1
1
1
1
1
1
1
1
1
1
1
1
1
1
1
1
1
1
1
1
1
1
1
1
1
1
1
1
1
1
1
1
1
1
1
1
1
1
1
1
1
1
1
1
1
1
1
1
1
1
1
1
1
1
1
1
1
1
1
1
1
1
1
1
1
1
1
1
1
1
1
1
1
1
1
1
1
1
1
1
1
1
1
1
1
1
1
1
1
1
1
1
1
1
1
1
1
1
1
1
1
1
1
1
1
1
1
1
1
1
1
1
1
1
1
1
1
1
1
1
1
1
1
1
1
1
1
1
1
1
1
1
1
1
1
1
1
1
1
1
1
1
1
1
1
1
1
1
1
1
1
1
1
1
1
1
1
1
1
1
1
1
1
1
1
1
1
1
1
1
1
1
1
1
1
1
1
1
1
1
1
1
1
1
1

SCALARS radius float 1
LOOKUP_TABLE default
5e-05
5e-05
5e-05
5e-05
5e-05
5e-05
5e-05
5e-05
5e-05
5e-05
5e-05
5e-05
5e-05
5e-05
5e-05
5e-05
5e-05
5e-05
5e-05
5e-05
5e-05
5e-05
5e-05
5e-05
5e-05
5e-05
5e-05
5e-05
5e-05
5e-05
5e-05
5e-05
5e-05
5e-05
5e-05
5e-05
5e-05
5e-05
5e-05
5e-05
5e-05
5e-05
5e-05
5e-05
5e-05
5e-05
5e-05
5e-05
5e-05
5e-05
5e-05
5e-05
5e-05
5e-05
5e-05
5e-05
5e-05
5e-05
5e-05
5e-05
5e-05
5e-05
5e-05
5e-05
5e-05
5e-05
5e-05
5e-05
5e-05
5e-05
5e-05
5e-05
5e-05
5e-05
5e-05
5e-05
5e-05
5e-05
5e-05
5e-05
5e-05
5e-05
5e-05
5e-05
5e-05
5e-05
5e-05
5e-05
5e-05
5e-05
5e-05
5e-05
5e-05
5e-05
5e-05
5e-05
5e-05
5e-05
5e-05
5e-05
5e-05
5e-05
5e-05
5e-05
5e-05
5e-05
5e-05
5e-05
5e-05
5e-05
5e-05
5e-05
5e-05
5e-05
5e-05
5e-05
5e-05
5e-05
5e-05
5e-05
5e-05
5e-05
5e-05
5e-05
5e-05
5e-05
5e-05
5e-05
5e-05
5e-05
5e-05
5e-05
5e-05
5e-05
5e-05
5e-05
5e-05
5e-05
5e-05
5e-05
5e-05
5e-05
5e-05
5e-05
5e-05
5e-05
5e-05
5e-05
5e-05
5e-05
5e-05
5e-05
5e-05
5e-05
5e-05
5e-05
5e-05
5e-05
5e-05
5e-05
5e-05
5e-05
5e-05
5e-05
5e-05
5e-05
5e-05
5e-05
5e-05
5e-05
5e-05
5e-05
5e-05
5e-05
5e-05
5e-05
5e-05
5e-05
5e-05
5e-05
5e-05
5e-05
5e-05
5e-05
5e-05
5e-05
5e-05
5e-05
5e-05
5e-05
5e-05
5e-05
5e-05
5e-05
5e-05
5e-05
5e-05
5e-05
5e-05
5e-05
5e-05
5e-05
5e-05
5e-05
5e-05
5e-05
5e-05
5e-05
5e-05
5e-05
5e-05
5e-05
5e-05
5e-05
5e-05
5e-05
5e-05
5e-05
5e-05
5e-05
5e-05
5e-05
5e-05
5e-05
5e-05
5e-05
5e-05
5e-05
5e-05
5e-05
5e-05
5e-05
5e-05
5e-05
5e-05
5e-05
5e-05
5e-05
5e-05
5e-05
5e-05
5e-05
5e-05
5e-05
5e-05
5e-05
5e-05
5e-05
5e-05
5e-05
5e-05
5e-05
5e-05
5e-05
5e-05
5e-05
5e-05
5e-05
5e-05
5e-05
5e-05
5e-05
5e-05
5e-05
5e-05
5e-05
5e-05
5e-05
5e-05
5e-05
5e-05
5e-05
5e-05
5e-05
5e-05

SCALARS mass float 1
LOOKUP_TABLE default
1.46608e-10
1.46608e-10
1.46608e-10
1.46608e-10
1.46608e-10
1.46608e-10
1.46608e-10
1.46608e-10
1.46608e-10
1.46608e-10
1.46608e-10
1.46608e-10
1.46608e-10
1.46608e-10
1.46608e-10
1.46608e-10
1.46608e-10
1.46608e-10
1.46608e-10
1.46608e-10
1.46608e-10
1.46608e-10
1.46608e-10
1.46608e-10
1.46608e-10
1.46608e-10
1.46608e-10
1.46608e-10
1.46608e-10
1.46608e-10
1.46608e-10
1.46608e-10
1.46608e-10
1.46608e-10
1.46608e-10
1.46608e-10
1.46608e-10
1.46608e-10
1.46608e-10
1.46608e-10
1.46608e-10
1.46608e-10
1.46608e-10
1.46608e-10
1.46608e-10
1.46608e-10
1.46608e-10
1.46608e-10
1.46608e-10
1.46608e-10
1.46608e-10
1.46608e-10
1.46608e-10
1.46608e-10
1.46608e-10
1.46608e-10
1.46608e-10
1.46608e-10
1.46608e-10
1.46608e-10
1.46608e-10
1.46608e-10
1.46608e-10
1.46608e-10
1.46608e-10
1.46608e-10
1.46608e-10
1.46608e-10
1.46608e-10
1.46608e-10
1.46608e-10
1.46608e-10
1.46608e-10
1.46608e-10
1.46608e-10
1.46608e-10
1.46608e-10
1.46608e-10
1.46608e-10
1.46608e-10
1.46608e-10
1.46608e-10
1.46608e-10
1.46608e-10
1.46608e-10
1.46608e-10
1.46608e-10
1.46608e-10
1.46608e-10
1.46608e-10
1.46608e-10
1.46608e-10
1.46608e-10
1.46608e-10
1.46608e-10
1.46608e-10
1.46608e-10
1.46608e-10
1.46608e-10
1.46608e-10
1.46608e-10
1.46608e-10
1.46608e-10
1.46608e-10
1.46608e-10
1.46608e-10
1.46608e-10
1.46608e-10
1.46608e-10
1.46608e-10
1.46608e-10
1.46608e-10
1.46608e-10
1.46608e-10
1.46608e-10
1.46608e-10
1.46608e-10
1.46608e-10
1.46608e-10
1.46608e-10
1.46608e-10
1.46608e-10
1.46608e-10
1.46608e-10
1.46608e-10
1.46608e-10
1.46608e-10
1.46608e-10
1.46608e-10
1.46608e-10
1.46608e-10
1.46608e-10
1.46608e-10
1.46608e-10
1.46608e-10
1.46608e-10
1.46608e-10
1.46608e-10
1.46608e-10
1.46608e-10
1.46608e-10
1.46608e-10
1.46608e-10
1.46608e-10
1.46608e-10
1.46608e-10
1.46608e-10
1.46608e-10
1.46608e-10
1.46608e-10
1.46608e-10
1.46608e-10
1.46608e-10
1.46608e-10
1.46608e-10
1.46608e-10
1.46608e-10
1.46608e-10
1.46608e-10
1.46608e-10
1.46608e-10
1.46608e-10
1.46608e-10
1.46608e-10
1.46608e-10
1.46608e-10
1.46608e-10
1.46608e-10
1.46608e-10
1.46608e-10
1.46608e-10
1.46608e-10
1.46608e-10
1.46608e-10
1.46608e-10
1.46608e-10
1.46608e-10
1.46608e-10
1.46608e-10
1.46608e-10
1.46608e-10
1.46608e-10
1.46608e-10
1.46608e-10
1.46608e-10
1.46608e-10
1.46608e-10
1.46608e-10
1.46608e-10
1.46608e-10
1.46608e-10
1.46608e-10
1.46608e-10
1.46608e-10
1.46608e-10
1.46608e-10
1.46608e-10
1.46608e-10
1.46608e-10
1.46608e-10
1.46608e-10
1.46608e-10
1.46608e-10
1.46608e-10
1.46608e-10
1.46608e-10
1.46608e-10
1.46608e-10
1.46608e-10
1.46608e-10
1.46608e-10
1.46608e-10
1.46608e-10
1.46608e-10
1.46608e-10
1.46608e-10
1.46608e-10
1.46608e-10
1.46608e-10
1.46608e-10
1.46608e-10
1.46608e-10
1.46608e-10
1.46608e-10
1.46608e-10
1.46608e-10
1.46608e-10
1.46608e-10
1.46608e-10
1.46608e-10
1.46608e-10
1.46608e-10
1.46608e-10
1.46608e-10
1.46608e-10
1.46608e-10
1.46608e-10
1.46608e-10
1.46608e-10
1.46608e-10
1.46608e-10
1.46608e-10
1.46608e-10
1.46608e-10
1.46608e-10
1.46608e-10
1.46608e-10
1.46608e-10
1.46608e-10
1.46608e-10
1.46608e-10
1.46608e-10
1.46608e-10
1.46608e-10
1.46608e-10
1.46608e-10
1.46608e-10
1.46608e-10
1.46608e-10
1.46608e-10
1.46608e-10
1.46608e-10
1.46608e-10
1.46608e-10
1.46608e-10
1.46608e-10
1.46608e-10
1.46608e-10
1.46608e-10
1.46608e-10
1.46608e-10
1.46608e-10
1.46608e-10
1.46608e-10
1.46608e-10

VECTORS velocity float
0.00602802 0.000318389 -0.000172051
0.00571726 0.000427618 -0.00018291
0.00569568 0.000397965 -0.000154569
0.00580501 2.58474e-05 -0.000561628
0.00571031 0.000469271 -0.00015568
0.00572794 0.000381467 -0.000169654
0.00567203 0.000404284 -0.000162376
0.00580126 0.000453349 -0.000149785
0.00589432 7.71249e-06 -0.000547994
0.00568037 0.000361185 -0.000168733
0.00538368 -0.000460049 0.000423179
0.00580113 2.80842e-05 -0.000565638
0.00549778 -0.000668233 0.000115218
0.00581201 -0.000679766 0.000411281
0.0058899 1.14522e-05 -0.000553317
0.00578245 3.20794e-05 -0.000568672
0.00571412 0.000375416 -0.000171548
0.00597336 0.000464471 -0.000210599
0.00557471 -0.000678748 8.17522e-05
0.00571162 0.000462108 -0.00014889
0.0059273 -6.01347e-06 -0.000534233
0.00579474 0.000456639 -0.000150086
0.00538911 -0.000408641 0.000389389
0.00570083 0.000405057 -0.000162963
0.00576834 3.61614e-05 -0.00057264
0.00591388 0.000147294 -0.000400848
0.00572049 0.000364177 -0.000142795
0.00593793 -1.12374e-05 -0.000529381
0.00573869 0.00046701 -0.000153873
0.00586754 1.82445e-05 -0.000559923
0.00571436 0.000388901 -0.000148196
0.00576125 0.000462224 -0.000151029
0.00568346 0.000396068 -0.000153817
0.00568744 0.000397345 -0.000154549
0.00573155 0.000457846 -0.000150604
0.00583655 1.55677e-05 -0.000563354
0.00567783 0.00037403 -0.000131376
0.00568962 0.000377955 -0.000135983
0.00560193 0.000487792 -0.000169299
0.00584497 2.15153e-05 -0.000561733
0.005621 0.000344342 -0.000165076
0.00579342 0.000455248 -0.000149493
0.00594595 -1.44534e-05 -0.000526319
0.0057329 0.000358986 -0.000164448
0.00540351 -0.000647271 0.000102336
0.0056506 0.000480895 -0.000164717
0.0060131 0.000189356 -0.00016156
0.00541777 -0.000511122 0.000318863
0.00589922 0.000299529 -0.000168071
0.00562933 0.000484481 -0.000166856
-5.02014e-15 -7.41199e-15 7.69802e-14
0.00571012 0.000375185 -0.000133259
0.0058106 2.62962e-05 -0.000563413
0.00569095 0.000394826 -0.000151783
0.0060112 0.000317617 -0.000172109
0.00568721 0.000475767 -0.000157382
0.00543205 -0.000606723 0.00018319
0.005489 -0.000667422 2.32887e-05
0.00584893 0.000343026 -0.00016934
0.00569274 0.000408388 -0.000167552
0.00578586 0.000369708 -0.000171107
0.0058247 0.000449289 -0.000145781
0.00572027 -0.000843806 0.00041136
0.00601965 0.000307739 -0.000170621
0.00590564 1.34684e-06 -0.000541801
0.00595654 -1.39484e-05 -0.000520078
0.00539433 -0.000455623 0.000408764
0.00563421 0.000431392 -0.000190675
0.00602518 -0.000449225 0.000673793
0.00602992 -0.000695676 0.000438345
0.00572057 0.000409508 -0.000164695
0.00540741 -0.00058444 0.00020764
0.0053824 -0.000649512 0.000110073
0.00577566 0.000457926 -0.000151034
0.00599094 -0.000719764 0.000431131
0.00567709 0.000379271 -0.00013637
0.00569485 0.000404037 -0.000161665
0.00572612 0.00037929 -0.000169881
0.005659 0.000395564 -0.00021744
0.00600419 0.000311013 -0.000172506
0.00542159 -0.000427953 0.000404359
0.00571577 0.000364745 -0.000167274
0.00598871 0.00040084 -0.000147408
0.00563745 0.00031417 -0.000169682
0.00569543 0.000393427 -0.000160297
0.00572215 0.000393218 -0.000169991
0.0061349 -0.000485526 0.000592215
0.00594928 0.000406298 -0.000149678
0.00561599 -0.000424769 0.000410666
0.00572593 0.000377527 -0.000171621
0.00555139 -0.000535343 0.000393472
4.03704e-15 1.05969e-14 8.29592e-14
-1.45275e-22 -1.27651e-22 1.23839e-22
0.00582351 -0.00072211 0.000415397
0.00612542 -0.000436174 0.00068923
0.00543878 -0.000631387 0.000104888
0.00605029 -0.000454554 0.000680198
0.00596887 0.000351484 -0.000173813
0.00575882 0.00033507 -0.000167211
0.00571574 0.000431235 -0.000187775
0.00568987 0.000431814 -0.000190592
0.00604295 -0.000525716 0.000483637
0.00548033 -0.000607992 0.000144544
0.00552498 -0.000631232 0.00012159
0.00566611 0.000378029 -0.000136465
0.00556058 0.000448578 -0.000170112
0.00572965 0.000380786 -0.000155472
0.00541677 -0.000650616 0.000103067
0.00604563 0.0003444 -0.000175186
0.00595462 0.000471141 -0.000217666
0.00604145 0.000320341 -0.000172954
0.00574714 0.000383224 -0.000171191
0.00588291 -0.000875702 0.00042278
0.00600727 0.000397985 -0.000142924
0.00572159 0.000389794 -0.000167631
0.00611127 -0.000444103 0.000668598
0.0058681 0.00042564 -0.000151295
0.00570978 0.000364353 -0.000169689
0.00550431 -0.00064327 7.34204e-05
0.00551988 -0.000690409 0.0001113
0.00570015 0.000399612 -0.000156315
0.00601583 0.00032577 -0.000174538
0.00567896 0.000358489 -0.000168914
0.00573219 0.000365842 -0.000169755
0.00540478 -0.000476638 0.000372198
0.00572538 0.000392807 -0.000162492
0.00567104 0.000352637 -0.000165932
0.00565771 0.000419861 -0.000179932
0.00544779 -0.000502302 0.000449856
0.00557826 -0.000729535 0.000147983
0.00610156 -0.000455688 0.000685662
0.00547747 -0.000677985 0.000118516
0.0059966 -0.00052488 0.000479302
0.0054929 -0.000659917 0.000123027
0.00570319 -0.000381804 0.000382747
0.00586836 0.000410587 -0.00016329
0.00600708 -0.000690056 0.0004318
0.00600926 -0.000681707 0.00044324
0.00553584 -0.000495134 0.000447707
0.00601193 -0.00052038 0.00047643
0.00597397 -0.00052785 0.000479616
0.00527854 -0.00047834 0.00043115
-3.83208e-14 8.16768e-14 2.95886e-13
0.00537743 -0.000455402 0.0004194
0.00569185 0.000398485 -0.000156446
0.00545997 -0.00051935 0.000405775
0.0058996 -0.000793388 0.000457111
0.00578926 -0.000532397 0.000481169
0.00605854 -0.000706121 0.000445728
0.00564757 0.000339322 -0.000167364
0.00601995 -0.000710623 0.000432412
0.00601301 -0.000679383 0.000431745
0.00600477 -0.000699659 0.000427374
0.00602139 -0.000702907 0.000433525
0.00603624 0.000317155 -0.000172129
0.00546259 -0.000525196 0.00026563
0.0060204 0.000310425 -0.000171401
0.00524435 -0.000460988 0.000419045
0.00553006 -0.000606499 -0.00012712
0.00596242 -0.000489974 0.000455942
0.00272932 0.00501541 -0.00531102
0.00605304 -0.000506237 0.000469937
0.00605246 0.000312274 -0.000172563
0.00561971 -0.000511893 0.000415156
0.00603481 0.000305611 -0.000172733
0.00553212 -0.000673076 0.000102314
0.00587243 -0.000874293 0.000421365
0.00601711 0.000312233 -0.000171017
0.00570371 0.000400164 -0.000167755
0.00603216 0.000321495 -0.000173137
0.00620329 -4.02126e-05 -0.000294572
0.00574372 0.000423465 -0.000182072
0.00550241 -0.000646126 9.90008e-05
0.00604739 0.000312766 -0.000172368
0.00546785 -0.000425206 0.000305859
0.00591352 -0.000765652 0.000448824
0.00554584 -0.000628658 0.000330405
0.00554991 0.000206719 0.00020826
0.00539363 -0.000644793 0.000103618
0.00566937 -0.000475502 0.000330939
0.00609676 -0.000526294 0.000503206
0.005997 -0.000701929 0.000426252
0.00540099 -0.000456195 0.000408671
0.00568033 0.00037158 -0.000168758
0.00556997 -0.000644425 0.000397463
0.005633 -0.000437798 0.000415683
0.00541529 -0.000398837 0.000385458
0.0057415 -0.000247636 0.00029904
0.00538859 -0.000652272 0.000108685
0.00540911 -0.000553653 0.000255365
0.00569492 0.000401181 -0.0001589
0.00569474 0.000404617 -0.000162181
0.00599968 -0.000765829 0.000430876
0.00602055 0.000318144 -0.000174019
0.00571433 0.000409275 -0.000164172
0.00567363 0.000205579 0.000215867
0.00599216 -0.000283467 0.000327845
0.00606342 0.000307224 -0.000172467
0.005571 -0.000528614 0.000243853
0.00597962 0.000398729 -0.000144857
0.00551954 -0.000620381 0.000391968
0.00572594 0.000372546 -0.000130969
0.00534351 -0.000435281 0.000407556
0.00570138 0.000433352 -0.000191161
0.00546954 -0.000651558 0.000113378
0.00567926 0.000206804 0.000214595
0.005635 0.000199377 0.000216308
0.00604621 -0.000664201 0.000436766
0.00532617 -0.000417017 0.000395234
0.00609222 -0.000659294 0.000415916
0.00602404 -0.000724305 0.000440618
0.00572041 0.000350174 -0.000175292
0.00555049 -0.000446706 0.000418281
0.00539758 -0.00042179 0.000443493
0.00540848 -0.000417113 0.000442345
0.00572322 -0.000211242 -0.000335168
0.00563928 3.52061e-06 -5.67741e-05
0.00570634 -0.000199212 -0.000345219
0.00542352 -0.000415497 0.000396087
0.00557294 -0.000696956 0.000164793
0.00575778 -0.000222323 -0.000326862
0.00559032 0.00020031 0.000214957
0.00528557 -0.000449111 0.000415083
0.00546623 -0.000587516 0.000205461
0.00551837 0.000204151 0.000207842
0.00524725 -0.000497275 0.000440682
0.00570472 0.000373725 -0.000171309
0.00560991 0.000199165 0.000216025
0.00620847 -3.77423e-05 -0.000293871
0.00555057 0.000195298 0.000213759
0.0059857 -0.000444855 0.000666682
0.00568634 -0.000686341 0.000407012
0.00534345 -0.000462248 0.000423037
0.00547168 -0.000664392 0.000114926
0.00561634 0.000202602 0.000215334
0.00603469 -0.00072005 0.000453423
0.00541452 -0.000437804 0.000409056
0.00540761 -0.00042943 0.000405214
0.00549993 0.000211874 0.000203572
0.00593971 -0.00053044 0.000480452
0.00619861 -4.05653e-05 -0.000295169
0.00567564 -0.000695663 0.00043762
0.00542958 -0.000516802 0.000457796
0.00546858 -0.00066502 0.000117539
0.00552696 -0.000711327 8.75152e-05
0.00571857 0.000396689 -0.000170719
0.00601622 -0.000643591 0.000439052
0.00564639 0.000201922 0.000216498
0.00561057 -0.000407769 0.000397029
0.0056305 0.000199594 0.000216646
0.0055141 -0.000501769 0.000452726
0.00512892 -0.000506638 0.000442606
0.00548471 -0.000458117 0.000423893
0.005465 -0.000652013 0.000132154
0.00567918 0.000212539 0.0002122
0.00566939 0.000106924 -0.000121183
0.00604572 -0.000591332 0.000462314
0.0056806 -0.000218975 -0.000334624
0.00533014 -0.000427415 0.000400539
0.00540144 -0.000438998 0.00040628
0.00590108 -0.000540207 0.000486521
0.0054033 -0.000426379 0.000402125
0.00561282 -0.000634515 0.000403488
0.00592582 -0.000506836 0.000465061
0.00538421 -0.000450177 0.000411003
0.00548759 -0.000672109 0.000115363
0.00597155 -0.000719035 0.000448545
0.00540376 -0.0004366 0.000398625
0.00536695 -0.000432102 0.000414263
0.00594004 2.70157e-05 -0.000280099
0.00559551 -0.00045803 0.000426949
0.00601599 0.000326009 -0.000170053
0.00563096 0.000192782 0.000217505
0.00557359 0.000196118 0.000215475
0.00569416 0.000359469 -0.0001624

VECTORS force float
1.02923e-10 -7.70431e-11 -7.60659e-12
2.57211e-12 1.88735e-11 -2.26546e-11
-5.84056e-11 -7.18428e-12 -4.04377e-12
3.43372e-11 -5.01477e-11 5.64145e-11
7.65124e-12 3.01537e-11 -1.97105e-11
-5.32523e-11 1.01144e-10 1.38465e-11
-5.70407e-11 -5.65809e-11 5.85391e-11
3.6492e-11 -2.99842e-11 3.18086e-12
-1.77637e-11 -1.38465e-10 1.57657e-10
-3.06641e-11 2.19052e-10 3.41136e-11
7.88735e-11 -7.22663e-11 8.9448e-11
-5.66382e-12 -4.51827e-11 3.6644e-11
2.51357e-10 -1.24498e-11 -5.0676e-11
4.27124e-10 -2.406e-10 -1.27971e-10
4.32314e-11 -1.02496e-10 1.2609e-10
-8.559e-11 -2.83726e-11 3.79891e-11
-8.6391e-11 2.01214e-10 -1.85897e-11
2.83323e-11 3.68168e-11 -3.78362e-11
-4.27118e-10 1.08564e-10 -1.38076e-10
2.25602e-10 1.85995e-10 -9.39289e-12
-1.73746e-11 -1.37703e-10 1.78596e-10
-2.69338e-10 -1.83859e-10 1.27875e-10
7.14808e-11 5.18034e-12 -2.19849e-11
1.65504e-11 4.68808e-12 -1.0527e-11
-1.37063e-11 -2.61121e-11 3.19051e-11
4.70419e-11 1.18661e-10 1.34921e-10
-3.7844e-10 5.26234e-11 4.87141e-11
1.61801e-11 -1.17113e-10 1.38943e-10
-5.64463e-12 2.53887e-11 -1.72279e-11
-7.5005e-11 -6.34126e-11 7.52365e-11
1.56809e-10 3.28539e-11 5.23014e-12
-2.04335e-12 -5.91235e-11 6.44735e-12
4.65261e-11 -6.20218e-11 2.95358e-11
-1.66719e-11 2.15433e-11 -4.30407e-11
1.39493e-10 -9.84352e-11 9.31611e-11
1.46726e-12 -3.23446e-11 5.8825e-11
-2.57251e-10 -6.01493e-11 5.29282e-11
-1.09127e-10 2.63669e-11 -2.81672e-11
4.39853e-11 8.42033e-12 -7.48715e-12
-1.26723e-10 -3.69762e-11 4.42652e-11
-1.35573e-11 5.15798e-11 -6.84259e-12
3.45344e-12 -1.38341e-11 -3.15671e-13
-9.98301e-11 -7.06415e-11 9.48348e-11
3.37016e-11 2.83874e-11 3.10049e-11
-3.52941e-11 -2.02768e-10 1.30112e-10
-3.56077e-11 -4.51362e-11 -1.26086e-11
1.37623e-10 3.02434e-10 -3.22038e-11
8.83854e-11 -3.60527e-11 1.23837e-10
3.21757e-10 4.81022e-10 -4.70468e-11
1.01342e-11 -4.89032e-13 1.9896e-11
1.58974e-24 -4.26515e-24 -2.06795e-25
6.26385e-11 -1.51749e-11 6.57595e-12
-2.70627e-11 -3.84044e-11 5.18883e-11
2.29935e-10 1.1746e-11 7.47069e-12
-1.02744e-10 1.87202e-10 -6.94607e-11
-2.11056e-10 1.00574e-10 -8.36658e-11
-2.46024e-10 -1.95524e-10 -2.33128e-10
-2.64245e-10 2.08061e-10 -4.52693e-10
-6.25429e-11 1.48453e-10 3.71044e-12
3.36009e-10 1.89173e-11 -3.03905e-11
4.71899e-10 4.03035e-11 -2.25965e-11
2.59396e-10 -2.77797e-11 1.12018e-10
1.69888e-10 9.19972e-12 -1.04732e-10
4.68353e-11 -1.44389e-10 -1.44749e-12
-7.72496e-11 -1.44694e-10 1.91741e-10
-1.66884e-10 -3.31732e-11 8.24037e-11
7.73378e-11 -3.33199e-11 3.2595e-11
1.16899e-10 5.15613e-11 -3.5523e-11
3.01155e-11 7.07899e-11 -3.43305e-11
1.38407e-10 -7.95216e-12 2.65343e-11
1.20412e-11 2.92095e-11 -5.80876e-11
-7.2735e-11 -1.69928e-10 1.49996e-10
2.30333e-10 -1.96276e-10 -1.90715e-10
-1.19295e-11 -6.14892e-11 1.8693e-11
-3.46622e-11 -1.09251e-10 7.30866e-12
-8.92849e-11 2.12583e-11 -2.82781e-11
1.17319e-10 -9.94523e-13 4.07856e-11
3.90375e-11 1.01407e-10 7.38461e-12
-5.9817e-11 1.52089e-10 6.15588e-11
-2.32792e-11 6.82926e-11 1.3265e-11
6.59317e-11 -8.90717e-11 3.45242e-11
1.09215e-11 5.50585e-11 5.08726e-12
1.42068e-10 2.27746e-11 2.37319e-11
1.95963e-10 8.10894e-11 -5.11927e-11
1.07108e-10 -8.50469e-12 6.16009e-11
6.11294e-11 9.46137e-11 -9.68741e-11
5.68763e-12 3.23949e-12 -1.42328e-10
1.15987e-10 5.64893e-11 7.75718e-12
-1.77451e-12 -1.35624e-10 -5.14981e-11
-5.17854e-11 1.58648e-10 -4.20964e-11
-2.48943e-10 -3.78643e-10 4.16506e-11
2.2893e-21 2.73228e-23 -1.11669e-22
0.0 0.0 0.0
-2.20179e-11 -1.88814e-10 4.62122e-11
1.11085e-10 2.30291e-11 -8.52155e-11
-6.66798e-11 4.18642e-11 -2.06165e-11
-8.6661e-11 2.39001e-11 -2.07205e-11
2.04931e-10 2.71088e-11 2.23933e-12
4.19519e-10 3.06931e-10 -3.17143e-11