# vtk DataFile Version 3.0
LIGGGHTS particles timestep 5600000
ASCII
DATASET POLYDATA
POINTS 287 float
0.045436 0.0161177 0.00790086
0.0458132 0.0170245 0.00762756
0.0393086 0.0160428 0.00815634
0.0457713 0.0176224 0.00745615
0.0453251 0.0160624 0.008037
0.0514497 0.0165424 0.0076566
0.0455038 0.0168396 0.0076833
0.0452285 0.0158889 0.00849505
0.0517097 0.0177334 0.0072051
0.0454435 0.016558 0.00776744
0.045877 0.0173081 0.00755536
0.0394985 0.0167367 0.00748211
0.0453086 0.0160183 0.00812522
0.0392217 0.0158013 0.00846315
0.045643 0.0170595 0.0076238
0.0392 0.0157403 0.00853931
0.0454235 0.0164641 0.0077955
0.0515878 0.017184 0.0074132
0.0452896 0.0159882 0.00821864
0.0454239 0.0160714 0.00798968
0.0455467 0.0170268 0.00762754
0.039671 0.0171259 0.00731548
0.0516474 0.0174589 0.00730895
0.0454832 0.0167458 0.00771129
0.051529 0.016909 0.00751756
0.0395764 0.0170944 0.0073224
0.04575 0.0175287 0.00748406
0.0452694 0.015956 0.00831117
0.0457817 0.017279 0.00756444
0.045525 0.0169332 0.0076554
0.0456214 0.016965 0.00765196
0.0514698 0.016634 0.00762188
0.0454034 0.0163703 0.00782357
0.0455997 0.0168713 0.00767984
0.0517512 0.0179164 0.00713587
0.0455582 0.0166833 0.00773393
0.0457181 0.0169976 0.00764683
0.0516681 0.0175504 0.00727433
0.045363 0.0161835 0.00788247
0.0455675 0.0171205 0.00759961
0.0457394 0.0170916 0.00762014
0.0514899 0.0167256 0.00758716
0.0515681 0.0170923 0.00744799
0.0453832 0.0162768 0.00785286
0.04561 0.0173078 0.00754378
0.0515485 0.0170006 0.00748277
0.0456737 0.0175888 0.00746008
0.0456525 0.0174951 0.00748798
0.0394791 0.0166497 0.00752735
0.0516074 0.0172757 0.00737842
0.0454092 0.0160267 0.00807792
0.0392652 0.0159222 0.00830982
0.0455786 0.0167777 0.00770776
0.0515094 0.0168173 0.00755237
0.0456337 0.016618 0.00774042
0.0456544 0.016713 0.0077168
0.0453442 0.0161245 0.00796096
0.0457605 0.0171853 0.00759234
0.0457073 0.0173412 0.00753992
0.0516271 0.0173673 0.00734364
0.0395931 0.0167645 0.00746561
0.0395348 0.0165076 0.00760873
0.0458582 0.0171641 0.00759058
0.0458242 0.0174663 0.00750864
0.0454984 0.0163998 0.00781103
0.0516889 0.0176419 0.00723972
0.0392434 0.0158619 0.00838656
0.0458029 0.0173726 0.00753654
0.0454634 0.0166519 0.00773937
0.0456642 0.0171532 0.0075959
0.0398112 0.0177764 0.00709805
0.0458986 0.0181773 0.00729088
0.0393289 0.0161033 0.00807933
0.0395178 0.0168245 0.00743839
0.0457375 0.0178697 0.00737637
0.0394595 0.0165655 0.00757758
0.0395959 0.0171874 0.00729129
0.0395925 0.0163916 0.00772105
0.0517304 0.0178249 0.00717048
0.0394242 0.0161261 0.00805492
0.0457288 0.017435 0.00751196
0.0456138 0.0165231 0.00776477
0.0457991 0.0181415 0.00729539
0.0457587 0.0179633 0.00734846
0.0457916 0.0169299 0.00765168
0.0395373 0.0169126 0.00739522
0.0458666 0.0176536 0.00745283
0.0458572 0.0179973 0.00734449
0.0459309 0.0179344 0.00736918
0.0457162 0.017776 0.00740427
0.0458879 0.0177472 0.00742492
0.0394203 0.0164066 0.00769251
0.0458204 0.0182351 0.00726749
0.0395737 0.0166768 0.00751005
0.0457498 0.0167412 0.00769964
0.0395155 0.0164294 0.00766808
0.0643568 0.0187248 0.00531097
0.24257 0.0191927 0.00520306
0.0398245 0.0174364 0.00721526
0.0393852 0.0162851 0.00784747
0.0398997 0.0173749 0.0072395
0.039348 0.0161639 0.0080021
0.0455384 0.0165885 0.00775858
0.0456312 0.0174015 0.00751588
0.0459618 0.0176846 0.00744956
0.0458628 0.0184224 0.00721169
0.0394399 0.0164855 0.00763435
0.0401313 0.0176213 0.0071645
0.0397657 0.0171575 0.00730857
0.0456855 0.0172469 0.00756799
0.0455184 0.0164932 0.0077815
0.0453937 0.0159904 0.00816982
0.0392869 0.0159825 0.00823308
0.0456757 0.0168082 0.00769478
0.045249 0.0159233 0.00840341
0.0452078 0.0158518 0.0085856
0.0459831 0.0177782 0.00742165
0.0394613 0.0162474 0.00790028
0.0458139 0.0178098 0.0074003
0.0453752 0.0159566 0.00826208
0.0455888 0.0172142 0.00757169
0.0394034 0.0163459 0.00777019
0.045695 0.0176824 0.00743217
0.0457804 0.0180609 0.00735163
0.0396906 0.0172189 0.00728438
0.039554 0.0165893 0.00755449
0.0457926 0.0177162 0.00742821
0.0455337 0.0161488 0.00787993
0.0456973 0.016903 0.00767174
0.0453541 0.0159252 0.00835464
0.039405 0.0160655 0.00813213
0.0458841 0.018516 0.00718378
0.0454784 0.0163071 0.007843
0.0460048 0.0178718 0.00739382
0.0394422 0.0161868 0.00797751
0.0397853 0.0172505 0.00727747
0.0393661 0.0162245 0.00792471
0.0397461 0.0170645 0.00733971
0.0396105 0.0164523 0.00764363
0.0393847 0.0160051 0.00820914
0.0396548 0.0174664 0.00719799
0.0459198 0.018271 0.00726298
0.0396488 0.0166167 0.00753809
0.039975 0.0173125 0.00726401
0.0394977 0.0163688 0.00774561
0.0397495 0.0174979 0.00719107
0.0398324 0.0178691 0.00706712
0.0397299 0.0174049 0.00722217
0.0219312 0.0187687 0.00551176
0.0398443 0.0175294 0.00718418
0.0458454 0.0175599 0.00748073
0.039736 0.0178378 0.00707388
0.0397691 0.0175909 0.00715997
0.039992 0.0181787 0.0069675
0.0400361 0.0175911 0.00717095
0.0455013 0.0160236 0.00803121
0.0396289 0.0165293 0.0075824
0.0399194 0.0174678 0.00720841
0.0401521 0.0177144 0.00713342
0.0399615 0.0176533 0.00714651
0.045515 0.0160793 0.00794934
0.0400151 0.0174983 0.0072019
0.0458236 0.0166741 0.00770723
0.0398862 0.0177149 0.00712226
0.0336317 0.0173756 0.00727075
0.0397103 0.0173119 0.00725328
0.0397785 0.0180236 0.00701189
0.0401102 0.0175285 0.00719547
0.0400779 0.0177767 0.00710896
0.039694 0.0176524 0.00713579
0.0454581 0.0162139 0.00787337
0.03994 0.0175606 0.00717742
0.0457875 0.0175994 0.0075521
0.0396352 0.0173734 0.00722909
0.0396744 0.0175594 0.00716689
0.045729 0.0166464 0.00772372
0.0459522 0.0180283 0.00734122
0.0457244 0.0167936 0.00778091
0.0337069 0.0173167 0.00730014
0.0459053 0.0186097 0.00715588
0.0398604 0.0171889 0.00730169
0.045594 0.016428 0.00778847
0.0396881 0.0167921 0.00745042
0.0400572 0.0176838 0.00714
0.0391783 0.0156794 0.00861559
0.0336948 0.0176553 0.00714348
0.0395568 0.0170014 0.0073535
0.03979 0.0176837 0.007129
0.0396515 0.0170329 0.00734659
0.040172 0.0182003 0.0069675
0.03988 0.0172819 0.00727059
0.0458978 0.0170738 0.00760717
0.0396319 0.0169399 0.00737769
0.0399497 0.0179932 0.00702937
0.0399074 0.0178076 0.00709132
0.0394795 0.016308 0.00782291
0.039865 0.0176222 0.0071532
0.0396685 0.0167041 0.00749377
0.0455566 0.0169279 0.00775014
0.0459091 0.0178409 0.00739702
0.0399828 0.017746 0.00711558
0.0457083 0.0165515 0.00774779
0.0458354 0.0179038 0.00737232
0.0336791 0.0171514 0.00737173
0.0397572 0.0179305 0.00704294
0.0455542 0.0162424 0.00785115
0.0398747 0.0180549 0.00700513
0.0458416 0.0183287 0.00723959
0.0397149 0.0177451 0.00710482
0.0336086 0.0168662 0.00749429
0.045574 0.0163346 0.00781798
0.0398049 0.0173435 0.00724637
0.0396156 0.0172804 0.00726019
0.0460143 0.0175247 0.00749077
0.0399947 0.0174055 0.00723292
0.033723 0.0169872 0.00744613
0.0336513 0.0174656 0.00723194
0.0396198 0.0171729 0.00738733
0.040033 0.0183653 0.00690513
0.033612 0.0172855 0.00730956
0.0395738 0.016331 0.00779834
0.0397074 0.0168818 0.00741069
0.0459779 0.018121 0.00731391
0.0400781 0.0185579 0.0068656
0.0400563 0.0184589 0.00687399
0.0401401 0.0184084 0.00689478
0.0334355 0.0164748 0.00765898
0.0334942 0.016745 0.00754254
0.0334154 0.0163848 0.00769774
0.0398214 0.0170029 0.00736392
0.0396125 0.0168521 0.00742142
0.0334552 0.0165648 0.00762019
0.0335726 0.0171052 0.00738729
0.0399715 0.0180858 0.00699851
0.0401413 0.0180548 0.00701615
0.0337825 0.0176119 0.00716426
0.0398536 0.0179621 0.00703608
0.0459405 0.0175909 0.00747748
0.0337476 0.0178813 0.00702702
0.0336479 0.0170463 0.00741667
0.033553 0.0170151 0.0074261
0.039363 0.0159447 0.00828589
0.0399285 0.0179005 0.00706031
0.039842 0.0183017 0.00691907
0.0398959 0.0181476 0.00697419
0.0337722 0.0179866 0.00697274
0.0397266 0.0169715 0.00737077
0.0400034 0.0186237 0.00687512
0.0401184 0.0183158 0.00692566
0.0335333 0.0169251 0.0074649
0.0398637 0.0183991 0.00691095
0.0336716 0.0175556 0.00719322
0.0399554 0.0172195 0.00729511
0.0399387 0.0183329 0.00691236
0.0395681 0.0170803 0.00742104
0.0398208 0.018209 0.00695
0.0459193 0.0174972 0.00750539
0.0400033 0.0178388 0.00708458
0.0338528 0.0179334 0.00699871
0.0399286 0.0186894 0.00688469
0.0337975 0.018095 0.00691691
0.0399171 0.0182403 0.00694325
0.0397996 0.0181163 0.00698094
0.03995 0.0187867 0.00689299
0.0400463 0.0180241 0.00702278
0.0335924 0.017197 0.00735166
0.0337433 0.0170824 0.00740509
0.0398021 0.0169098 0.00739505
0.0336283 0.0169562 0.00745548
0.0334747 0.0166549 0.00758136
0.0399815 0.0185251 0.00687878
0.0399573 0.0184261 0.00688116
0.0398853 0.0184948 0.00689154
0.0400772 0.0182291 0.00695371
0.0399071 0.0185918 0.00688093
0.0397828 0.0168198 0.00743411
0.0398408 0.0170959 0.00733279
0.0400678 0.018118 0.00699145
0.0395556 0.0162703 0.00787572
0.0400246 0.0179315 0.00705366
0.0399714 0.018884 0.0069013
0.0338164 0.0170213 0.00743535
0.0401605 0.0185012 0.00686376
0.0456883 0.0164566 0.00777182
0.0335138 0.016835 0.00750372
0.0337223 0.017773 0.00708283
0.0456571 0.0170323 0.00771898

VERTICES 287 574
1 0
1 1
1 2
1 3
1 4
1 5
1 6
1 7
1 8
1 9
1 10
1 11
1 12
1 13
1 14
1 15
1 16
1 17
1 18
1 19
1 20
1 21
1 22
1 23
1 24
1 25
1 26
1 27
1 28
1 29
1 30
1 31
1 32
1 33
1 34
1 35
1 36
1 37
1 38
1 39
1 40
1 41
1 42
1 43
1 44
1 45
1 46
1 47
1 48
1 49
1 50
1 51
1 52
1 53
1 54
1 55
1 56
1 57
1 58
1 59
1 60
1 61
1 62
1 63
1 64
1 65
1 66
1 67
1 68
1 69
1 70
1 71
1 72
1 73
1 74
1 75
1 76
1 77
1 78
1 79
1 80
1 81
1 82
1 83
1 84
1 85
1 86
1 87
1 88
1 89
1 90
1 91
1 92
1 93
1 94
1 95
1 96
1 97
1 98
1 99
1 100
1 101
1 102
1 103
1 104
1 105
1 106
1 107
1 108
1 109
1 110
1 111
1 112
1 113
1 114
1 115
1 116
1 117
1 118
1 119
1 120
1 121
1 122
1 123
1 124
1 125
1 126
1 127
1 128
1 129
1 130
1 131
1 132
1 133
1 134
1 135
1 136
1 137
1 138
1 139
1 140
1 141
1 142
1 143
1 144
1 145
1 146
1 147
1 148
1 149
1 150
1 151
1 152
1 153
1 154
1 155
1 156
1 157
1 158
1 159
1 160
1 161
1 162
1 163
1 164
1 165
1 166
1 167
1 168
1 169
1 170
1 171
1 172
1 173
1 174
1 175
1 176
1 177
1 178
1 179
1 180
1 181
1 182
1 183
1 184
1 185
1 186
1 187
1 188
1 189
1 190
1 191
1 192
1 193
1 194
1 195
1 196
1 197
1 198
1 199
1 200
1 201
1 202
1 203
1 204
1 205
1 206
1 207
1 208
1 209
1 210
1 211
1 212
1 213
1 214
1 215
1 216
1 217
1 218
1 219
1 220
1 221
1 222
1 223
1 224
1 225
1 226
1 227
1 228
1 229
1 230
1 231
1 232
1 233
1 234
1 235
1 236
1 237
1 238
1 239
1 240
1 241
1 242
1 243
1 244
1 245
1 246
1 247
1 248
1 249
1 250
1 251
1 252
1 253
1 254
1 255
1 256
1 257
1 258
1 259
1 260
1 261
1 262
1 263
1 264
1 265
1 266
1 267
1 268
1 269
1 270
1 271
1 272
1 273
1 274
1 275
1 276
1 277
1 278
1 279
1 280
1 281
1 282
1 283
1 284
1 285
1 286

POINT_DATA 287
SCALARS id int 1
LOOKUP_TABLE default
1
2
3
4
5
6
7
8
9
10
11
12
13
14
15
16
17
18
19
21
22
23
24
25
26
27
28
29
30
31
32
33
34
35
36
37
38
39
41
42
44
45
46
47
48
49
50
51
52
53
54
55
56
57
59
60
61
62
63
64
65
66
67
68
69
70
71
72
73
74
76
77
78
79
80
81
82
83
84
85
86
87
88
89
90
91
92
93
94
95
96
97
98
99
100
101
102
103
104
105
106
107
108
109
110
111
112
113
114
115
116
117
118
119
120
121
122
123
124
125
126
127
128
129
130
131
132
133
134
135
136
137
138
140
141
142
143
144
146
147
148
149
150
151
153
154
155
156
157
158
159
160
162
164
165
166
167
168
169
170
171
172
173
174
175
176
177
178
179
181
182
183
184
185
186
187
188
189
190
191
192
193
194
195
196
197
198
199
200
201
202
203
204
205
206
207
208
209
210
211
212
213
214
215
216
217
218
219
220
221
222
223
224
225
226
227
228
229
230
231
232
233
234
235
236
237
239
240
241
242
243
244
246
247
248
249
250
251
252
253
254
255
256
257
258
259
260
261
262
263
264
265
266
267
268
269
270
271
272
273
274
275
276
277
278
279
280
281
282
283
284
285
286
287
288
289
290
291
292
293
294
295
296
297
298
299
300

SCALARS type int 1
LOOKUP_TABLE default
1
1
1
1
1
1
1
1
1
1
1
1
1
1
1
1
1
1
1
1
1
1
1
1
1
1
1
1
1
1
1
1
1
1
1
1
1
1
1
1
1
1
1
1
1
1
1
1
1
1
1
1
1
1
1
1
1
1
1
1
1
1
1
1
1
1
1
1
1
1
1
1
1
1
1
1
1
1
1
1
1
1
1
1
1
1
1
1
1
1
1
1
1
1
1
1
1
1
1
1
1
1
1
1
1
1
1
1
1
1
1
1
1
1
1
1
1
1
1
1
1
1
1
1
1
1
1
1
1
1
1
1
1
1
1
1
1
1
1
1
1
1
1
1
1
1
1
1
1
1
1
1
1
1
1
1
1
1
1
1
1
1
1
1
1
1
1
1
1
1
1
1
1
1
1
1
1
1
1
1
1
1
1
1
1
1
1
1
1
1
1
1
1
1
1
1
1
1
1
1
1
1
1
1
1
1
1
1
1
1
1
1
1
1
1
1
1
1
1
1
1
1
1
1
1
1
1
1
1
1
1
1
1
1
1
1
1
1
1
1
1
1
1
1
1
1
1
1
1
1
1
1
1
1
1
1
1
1
1
1
1
1
1
1
1
1
1
1
1
1
1
1
1
1
1
1
1
1
1
1
1
1
1
1
1
1
1

SCALARS radius float 1
LOOKUP_TABLE default
5e-05
5e-05
5e-05
5e-05
5e-05
5e-05
5e-05
5e-05
5e-05
5e-05
5e-05
5e-05
5e-05
5e-05
5e-05
5e-05
5e-05
5e-05
5e-05
5e-05
5e-05
5e-05
5e-05
5e-05
5e-05
5e-05
5e-05
5e-05
5e-05
5e-05
5e-05
5e-05
5e-05
5e-05
5e-05
5e-05
5e-05
5e-05
5e-05
5e-05
5e-05
5e-05
5e-05
5e-05
5e-05
5e-05
5e-05
5e-05
5e-05
5e-05
5e-05
5e-05
5e-05
5e-05
5e-05
5e-05
5e-05
5e-05
5e-05
5e-05
5e-05
5e-05
5e-05
5e-05
5e-05
5e-05
5e-05
5e-05
5e-05
5e-05
5e-05
5e-05
5e-05
5e-05
5e-05
5e-05
5e-05
5e-05
5e-05
5e-05
5e-05
5e-05
5e-05
5e-05
5e-05
5e-05
5e-05
5e-05
5e-05
5e-05
5e-05
5e-05
5e-05
5e-05
5e-05
5e-05
5e-05
5e-05
5e-05
5e-05
5e-05
5e-05
5e-05
5e-05
5e-05
5e-05
5e-05
5e-05
5e-05
5e-05
5e-05
5e-05
5e-05
5e-05
5e-05
5e-05
5e-05
5e-05
5e-05
5e-05
5e-05
5e-05
5e-05
5e-05
5e-05
5e-05
5e-05
5e-05
5e-05
5e-05
5e-05
5e-05
5e-05
5e-05
5e-05
5e-05
5e-05
5e-05
5e-05
5e-05
5e-05
5e-05
5e-05
5e-05
5e-05
5e-05
5e-05
5e-05
5e-05
5e-05
5e-05
5e-05
5e-05
5e-05
5e-05
5e-05
5e-05
5e-05
5e-05
5e-05
5e-05
5e-05
5e-05
5e-05
5e-05
5e-05
5e-05
5e-05
5e-05
5e-05
5e-05
5e-05
5e-05
5e-05
5e-05
5e-05
5e-05
5e-05
5e-05
5e-05
5e-05
5e-05
5e-05
5e-05
5e-05
5e-05
5e-05
5e-05
5e-05
5e-05
5e-05
5e-05
5e-05
5e-05
5e-05
5e-05
5e-05
5e-05
5e-05
5e-05
5e-05
5e-05
5e-05
5e-05
5e-05
5e-05
5e-05
5e-05
5e-05
5e-05
5e-05
5e-05
5e-05
5e-05
5e-05
5e-05
5e-05
5e-05
5e-05
5e-05
5e-05
5e-05
5e-05
5e-05
5e-05
5e-05
5e-05
5e-05
5e-05
5e-05
5e-05
5e-05
5e-05
5e-05
5e-05
5e-05
5e-05
5e-05
5e-05
5e-05
5e-05
5e-05
5e-05
5e-05
5e-05
5e-05
5e-05
5e-05
5e-05
5e-05
5e-05
5e-05
5e-05
5e-05
5e-05
5e-05
5e-05
5e-05
5e-05
5e-05
5e-05
5e-05
5e-05
5e-05
5e-05
5e-05
5e-05
5e-05
5e-05
5e-05
5e-05
5e-05
5e-05
5e-05
5e-05
5e-05
5e-05
5e-05
5e-05
5e-05
5e-05
5e-05
5e-05
5e-05
5e-05
5e-05
5e-05

SCALARS mass float 1
LOOKUP_TABLE default
1.46608e-10
1.46608e-10
1.46608e-10
1.46608e-10
1.46608e-10
1.46608e-10
1.46608e-10
1.46608e-10
1.46608e-10
1.46608e-10
1.46608e-10
1.46608e-10
1.46608e-10
1.46608e-10
1.46608e-10
1.46608e-10
1.46608e-10
1.46608e-10
1.46608e-10
1.46608e-10
1.46608e-10
1.46608e-10
1.46608e-10
1.46608e-10
1.46608e-10
1.46608e-10
1.46608e-10
1.46608e-10
1.46608e-10
1.46608e-10
1.46608e-10
1.46608e-10
1.46608e-10
1.46608e-10
1.46608e-10
1.46608e-10
1.46608e-10
1.46608e-10
1.46608e-10
1.46608e-10
1.46608e-10
1.46608e-10
1.46608e-10
1.46608e-10
1.46608e-10
1.46608e-10
1.46608e-10
1.46608e-10
1.46608e-10
1.46608e-10
1.46608e-10
1.46608e-10
1.46608e-10
1.46608e-10
1.46608e-10
1.46608e-10
1.46608e-10
1.46608e-10
1.46608e-10
1.46608e-10
1.46608e-10
1.46608e-10
1.46608e-10
1.46608e-10
1.46608e-10
1.46608e-10
1.46608e-10
1.46608e-10
1.46608e-10
1.46608e-10
1.46608e-10
1.46608e-10
1.46608e-10
1.46608e-10
1.46608e-10
1.46608e-10
1.46608e-10
1.46608e-10
1.46608e-10
1.46608e-10
1.46608e-10
1.46608e-10
1.46608e-10
1.46608e-10
1.46608e-10
1.46608e-10
1.46608e-10
1.46608e-10
1.46608e-10
1.46608e-10
1.46608e-10
1.46608e-10
1.46608e-10
1.46608e-10
1.46608e-10
1.46608e-10
1.46608e-10
1.46608e-10
1.46608e-10
1.46608e-10
1.46608e-10
1.46608e-10
1.46608e-10
1.46608e-10
1.46608e-10
1.46608e-10
1.46608e-10
1.46608e-10
1.46608e-10
1.46608e-10
1.46608e-10
1.46608e-10
1.46608e-10
1.46608e-10
1.46608e-10
1.46608e-10
1.46608e-10
1.46608e-10
1.46608e-10
1.46608e-10
1.46608e-10
1.46608e-10
1.46608e-10
1.46608e-10
1.46608e-10
1.46608e-10
1.46608e-10
1.46608e-10
1.46608e-10
1.46608e-10
1.46608e-10
1.46608e-10
1.46608e-10
1.46608e-10
1.46608e-10
1.46608e-10
1.46608e-10
1.46608e-10
1.46608e-10
1.46608e-10
1.46608e-10
1.46608e-10
1.46608e-10
1.46608e-10
1.46608e-10
1.46608e-10
1.46608e-10
1.46608e-10
1.46608e-10
1.46608e-10
1.46608e-10
1.46608e-10
1.46608e-10
1.46608e-10
1.46608e-10
1.46608e-10
1.46608e-10
1.46608e-10
1.46608e-10
1.46608e-10
1.46608e-10
1.46608e-10
1.46608e-10
1.46608e-10
1.46608e-10
1.46608e-10
1.46608e-10
1.46608e-10
1.46608e-10
1.46608e-10
1.46608e-10
1.46608e-10
1.46608e-10
1.46608e-10
1.46608e-10
1.46608e-10
1.46608e-10
1.46608e-10
1.46608e-10
1.46608e-10
1.46608e-10
1.46608e-10
1.46608e-10
1.46608e-10
1.46608e-10
1.46608e-10
1.46608e-10
1.46608e-10
1.46608e-10
1.46608e-10
1.46608e-10
1.46608e-10
1.46608e-10
1.46608e-10
1.46608e-10
1.46608e-10
1.46608e-10
1.46608e-10
1.46608e-10
1.46608e-10
1.46608e-10
1.46608e-10
1.46608e-10
1.46608e-10
1.46608e-10
1.46608e-10
1.46608e-10
1.46608e-10
1.46608e-10
1.46608e-10
1.46608e-10
1.46608e-10
1.46608e-10
1.46608e-10
1.46608e-10
1.46608e-10
1.46608e-10
1.46608e-10
1.46608e-10
1.46608e-10
1.46608e-10
1.46608e-10
1.46608e-10
1.46608e-10
1.46608e-10
1.46608e-10
1.46608e-10
1.46608e-10
1.46608e-10
1.46608e-10
1.46608e-10
1.46608e-10
1.46608e-10
1.46608e-10
1.46608e-10
1.46608e-10
1.46608e-10
1.46608e-10
1.46608e-10
1.46608e-10
1.46608e-10
1.46608e-10
1.46608e-10
1.46608e-10
1.46608e-10
1.46608e-10
1.46608e-10
1.46608e-10
1.46608e-10
1.46608e-10
1.46608e-10
1.46608e-10
1.46608e-10
1.46608e-10
1.46608e-10
1.46608e-10
1.46608e-10
1.46608e-10
1.46608e-10
1.46608e-10
1.46608e-10
1.46608e-10
1.46608e-10
1.46608e-10
1.46608e-10
1.46608e-10
1.46608e-10
1.46608e-10
1.46608e-10
1.46608e-10
1.46608e-10
1.46608e-10
1.46608e-10
1.46608e-10
1.46608e-10
1.46608e-10
1.46608e-10
1.46608e-10
1.46608e-10
1.46608e-10
1.46608e-10
1.46608e-10
1.46608e-10
1.46608e-10
1.46608e-10
1.46608e-10
1.46608e-10

VECTORS velocity float
0.00577909 1.82074e-05 0.000639646
0.00539825 -0.000234121 -0.000514036
0.00611227 0.000282999 -3.20091e-05
0.00562331 -2.07006e-05 0.00038588
0.00560562 -0.0004362 8.26504e-05
0.00545844 -0.000578944 0.000675671
0.00527547 0.000108825 0.000323646
0.00595055 0.00097531 0.000626812
0.00577559 -0.000634614 0.000723622
0.00556697 5.52318e-05 0.000357904
0.00555933 -0.000323541 -0.000518387
0.00563119 0.00020692 -0.000258605
0.00574394 -0.000851988 -0.000110772
0.00607095 0.000235873 -6.92176e-05
0.00548513 2.56459e-05 0.00037225
0.00607417 0.000232867 -9.07501e-05
0.00563754 3.25075e-05 0.00037122
0.00533127 -0.000560019 0.000657693
0.00590874 -0.00136742 -0.000249576
0.00569963 -0.000138454 0.000412007
0.00544943 6.44236e-05 0.000352512
0.00570631 0.000368603 0.000108476
0.00566013 -0.000614922 0.000706438
0.00532004 0.000109972 0.000324464
0.0053012 -0.0005546 0.000653066
0.00568415 0.000366706 0.000111323
0.00559047 -2.61686e-05 0.000386065
0.00593785 -0.00140483 -0.00025809
0.00560194 -1.65219e-05 0.000385717
0.00542116 6.99413e-05 0.000346673
0.00539748 1.12034e-05 0.000359774
0.00545672 -0.000578716 0.000675383
0.00573884 2.2048e-06 0.00044618
0.00539936 4.9593e-05 0.000347626
0.0058526 -0.000647672 0.000735123
0.00552814 -7.8069e-05 1.81075e-05
0.00549694 -6.05641e-05 0.000179736
0.00569856 -0.000621507 0.000712128
0.00578533 -1.72787e-05 0.000477984
0.00548642 5.44487e-05 0.00035535
0.00553335 -2.64735e-05 0.000312226
0.00545506 -0.000578665 0.000675269
0.0053316 -0.000560035 0.000657789
0.00577139 -4.36786e-06 0.000479697
0.00554138 3.66659e-05 0.000364392
0.00533112 -0.000559552 0.000657612
0.00559837 -1.48089e-05 0.000383675
0.00559187 -5.29233e-08 0.000378233
0.00571122 0.000200192 -0.000247571
0.00533208 -0.000560452 0.000658053
0.00542524 -0.000570115 0.00015963
0.00607868 0.000266806 -3.18947e-05
0.00539519 4.50988e-05 0.000348482
0.00530266 -0.000554545 0.000653275
0.00548186 -0.000264945 -0.000533874
0.00539717 -0.000286046 -0.000682742
0.00571591 -0.000156581 0.000354178
0.00557592 -8.61058e-06 0.000385357
0.00549981 -4.15083e-05 0.000385168
0.00533188 -0.000560551 0.000657966
0.00563209 0.000198439 -0.000254193
0.00578209 0.000244739 -0.000147349
0.00567667 0.000452046 -0.000719005
0.00558481 -2.36073e-05 0.000385257
0.00565574 -2.96427e-05 0.00011571
0.00573713 -0.000628093 0.000717968
0.00606589 0.000265274 -2.84366e-05
0.00559204 -1.74089e-05 0.000384434
0.00547996 8.22091e-05 0.000344679
0.00549864 2.53018e-05 0.000367806
0.00619204 0.000257925 0.000167239
0.00580511 -3.01762e-05 0.000401795
0.00603816 0.000275533 -3.21704e-05
0.00563194 0.000237962 -0.000185793
0.00568603 -2.08459e-05 0.000390872
0.00578726 0.000209637 -0.000208176
0.00569593 0.000370113 0.000110273
0.0057803 0.000290948 -6.67428e-05
0.00581411 -0.000641146 0.000729384
0.00588065 0.000309038 -8.4614e-05
0.0055751 -2.75385e-05 0.000385791
0.00554731 -0.000272068 -0.000528041
0.00577768 -2.06103e-05 0.000396807
0.00572112 -2.30859e-05 0.000394948
0.00541104 -0.000234354 -0.000525308
0.00565756 0.000316608 5.4226e-06
0.0056395 -4.1513e-05 0.000395042
0.00571585 -4.37435e-05 0.000396809
0.00569298 -6.84083e-05 0.000406471
0.00566795 -8.87835e-06 0.000386487
0.00566329 -5.25429e-05 0.000399021
0.00584453 0.000297044 -7.58508e-05
0.00580382 -2.21801e-05 0.000399407
0.00569912 0.000218499 -0.00026757
0.00544548 -0.000252984 -0.000511646
0.00582906 0.00030882 -8.833e-05
4.36388e-15 1.05165e-14 8.29526e-14
3.39597e-22 -1.27651e-22 -5.81428e-22
0.00566899 0.000403983 9.54515e-05
0.00583441 0.000294483 -6.37e-05
0.00582204 0.000304715 0.000136087
0.00589744 0.000283154 -4.9149e-05
0.0055934 -0.000201239 -0.000407562
0.00556001 2.08046e-05 0.000369017
0.00565679 -6.62422e-05 0.000403799
0.00586013 -1.55005e-05 0.000402061
0.00581647 0.000259107 -0.000137002
0.00617527 0.000253158 0.000168144
0.00569795 0.000366756 8.99543e-05
0.0055616 1.62547e-05 0.0003708
0.00552963 -0.000206974 -0.000547186
0.00563034 -0.000864227 9.10569e-05
0.00610072 0.000279257 -3.57971e-05
0.00543131 -0.000253127 -0.000520924
0.0058576 -0.000866331 -8.66221e-05
0.00590174 0.000960753 0.000614771
0.00567685 -7.43709e-05 0.000407452
0.00583441 0.000310778 -9.02691e-05
0.00567376 -3.75998e-05 0.000395121
0.005784 -0.000932409 0.000106611
0.00550952 4.49138e-05 0.000360317
0.00586465 0.00030055 -6.16042e-05
0.00563834 -1.31891e-05 0.000385484
0.00573981 -1.83497e-05 0.000394445
0.00570974 0.000385956 9.81307e-05
0.00571259 0.000192659 -0.000254333
0.00565433 -2.44443e-05 0.000391028
0.00581606 4.1522e-05 0.000627654
0.0054816 -0.000136011 -5.50375e-05
0.00591124 -0.000928085 0.000143885
0.00591178 0.000301264 -7.20984e-05
0.005896 -1.3019e-05 0.000403769
0.00573547 -1.52344e-05 0.00043787
0.00568818 -6.91996e-05 0.000407184
0.00589099 0.000309119 -8.25886e-05
0.0057091 0.00039268 0.000105604
0.00585005 0.000291793 -5.80209e-05
0.005705 0.000362128 0.000110476
0.00578675 0.000297057 -7.09763e-05
0.0061283 0.000269983 -1.79653e-05
0.00566459 0.000370295 0.00010699
0.00583084 -1.632e-05 0.000399793
0.00571133 0.000197946 -0.000255796
0.00568065 0.000313521 0.00012736
0.00581202 0.000308138 -9.02018e-05
0.00565003 0.000372476 0.00010553
0.00622695 0.000256147 0.000169344
0.00569008 0.000390773 0.000100997
-3.83418e-14 8.16398e-14 2.95894e-13
0.00561765 0.000406106 9.28192e-05
0.00560571 -3.37129e-05 0.000389325
0.0061918 0.000266563 0.000164305
0.00565116 0.000369069 0.0001068
0.00635386 0.000216508 0.000188532
0.00605918 0.000240672 0.000167692
0.00550031 -0.00086005 -6.37656e-06
0.00572031 0.000200934 -0.000254737
0.00595121 0.000277084 0.000150823
0.00620738 0.000195611 0.000189217
0.00615317 0.000231604 0.000174555
0.00579186 3.2374e-05 0.000632894
0.00584429 0.000276612 0.000146305
0.00549578 -0.000189513 -0.000543937
0.00620865 0.00026882 0.000164229
0.00559592 0.000254021 0.000142052
0.00569835 0.00038915 0.000101401
0.00623846 0.0001945 0.000191339
0.00591476 0.000101832 0.000209441
0.00619648 0.000178505 0.000194669
0.00564718 0.000370791 0.000105983
0.00580534 4.87178e-05 0.000586119
0.00608361 0.000247468 0.000166267
0.00560409 -2.09346e-05 0.000385022
0.00567773 0.000375624 0.000105752
0.00565165 0.000367418 0.0001073
0.00552871 -0.000290037 -0.000513801
0.00570821 -3.21422e-05 0.000396124
0.00558781 -0.000142792 -0.000490939
0.00558751 0.000247254 0.000144964
0.00591785 -1.88161e-05 0.000406435
0.00570645 0.000336135 0.000118294
0.00554697 -0.000267275 -0.000517301
0.00567902 0.000195649 -0.000269754
0.00616332 0.000226953 0.000176893
0.00607774 0.000256537 -8.40356e-05
0.00617286 0.000367388 -0.000285871
0.00567499 0.000364483 0.000109874
0.00615465 0.000291869 0.000154039
0.0056557 0.000344633 0.000112506
0.00636376 0.000289905 0.000163376
0.00573996 0.000324029 0.000125667
0.00509807 0.000188576 -0.00058889
0.00564662 0.000348642 0.000105103
0.00629888 0.000220981 0.000184333
0.00624762 0.000272879 0.000164476
0.00579666 0.000309711 -9.40418e-05
0.00614277 0.000298761 0.000151307
0.00570494 0.000198803 -0.000252343
0.00540538 5.13735e-05 0.000349348
0.00568546 -5.87525e-05 0.000403579
0.00617398 0.000226071 0.000177625
0.00558459 -0.000311541 -0.000521235
0.00570296 -4.08272e-05 0.000398805
0.00558968 0.000243326 0.000146505
0.00622256 0.000259397 0.000168367
0.00574313 -2.19771e-05 0.000346022
0.00629669 0.00021934 0.000185033
0.0058326 -2.03261e-05 0.000400593
0.00616043 0.000278669 0.000158685
0.0055938 0.000232575 0.000151813
0.00558094 -0.000177962 -0.000203864
0.00570853 0.000402797 9.72703e-05
0.0056899 0.000377177 0.000106676
0.00552695 -0.000355911 -0.000509415
0.0057091 0.000300366 0.000132734
0.00558829 0.000218236 0.000157704
0.00559189 0.000233433 0.0001514
0.00571404 0.000363099 0.000113394
0.00634132 0.000187873 0.000198489
0.0055965 0.000251624 0.000143445
0.00577459 0.000287859 -6.40118e-05
0.00565044 0.000281639 -8.60657e-05
0.00579538 -5.13441e-05 0.000408685
0.00635351 0.000323423 -0.000293224
0.00632227 0.000245758 0.000175381
0.00631786 0.000247676 0.000175763
0.00572693 0.000212809 0.000166609
0.00556175 0.000237981 0.000147983
0.00572941 0.000212794 0.000166676
0.00570424 0.000367012 0.000114306
0.00565385 0.000252569 -0.000138401
0.00556695 0.0002392 0.000147663
0.00559261 0.000228247 0.000153638
0.00634127 0.000214713 0.000188217
0.0062785 0.00013995 0.000211325
0.0073718 0.00230765 -0.00129746
0.0062569 0.00021277 0.000185706
0.00563007 -5.48099e-05 0.000399465
0.00644525 0.000997738 -0.000612662
0.00559225 0.00022559 0.000154876
0.00559303 0.000231297 0.000152332
0.00606191 0.000263279 -1.31511e-05
0.00626951 0.000230439 0.000179898
0.00632902 0.000194211 0.000194898
0.00630168 0.000214959 0.000186764
0.00649988 0.000981523 -0.000605228
0.00566738 0.000367258 0.000109827
0.00633498 0.000282463 -0.000261156
0.00633174 0.000242475 0.000178016
0.00559377 0.000232299 0.000151931
0.00634658 0.000254305 6.37893e-05
0.00606074 0.000151643 0.000208794
0.00568834 0.000325475 0.000124252
0.00633647 0.000226757 0.000187706
0.00568397 0.000358392 0.000111997
0.00629577 0.000201448 0.000190981
0.00558581 -4.78759e-05 0.000393502
0.00623419 0.000209102 0.000185671
0.0065003 0.000981969 -0.000605467
0.00633948 0.000262402 -0.00026079
0.00655618 0.000965631 -0.000597998
0.00634272 0.000210199 0.000190593
0.00627912 0.000212417 0.000187535
0.00633265 0.000282339 -0.000253788
0.0063327 0.000196062 0.000194339
0.00559214 0.000248951 0.000144093
0.00558322 0.000239338 0.000149161
0.00569069 0.000378785 0.000107245
0.00559328 0.00023248 0.000151825
0.00556407 0.000238682 0.000147756
0.0063388 0.000251277 8.03899e-05
0.00636547 0.000232755 0.000188732
0.00636757 0.000266501 0.000158239
0.0063454 0.000232994 0.000182126
0.00635632 0.000250437 -8.55058e-05
0.00568588 0.00038072 9.93198e-05
0.00570571 0.000351327 0.000115211
0.00633338 0.000194934 0.000194678
0.00576132 0.000290145 -6.72719e-05
0.00629955 0.000200608 0.000191374
0.00589539 0.000382749 -0.000225827
0.00558229 0.000240133 0.000147691
0.0062934 0.000242358 0.000169898
0.00556167 -0.000310156 -0.000523359
0.00555976 0.000237961 0.000147885
0.00638997 0.00101801 -0.000622151
0.00554217 5.00691e-06 0.000351722

VECTORS force float
-1.21073e-11 1.72462e-11 -1.21039e-10
-2.52523e-10 -2.68185e-10 1.81503e-10
1.41738e-10 1.54469e-10 -1.83348e-10
3.97596e-11 1.41948e-10 -3.70959e-11
4.14912e-10 -3.8417e-11 4.14503e-12
1.74751e-12 2.18683e-12 -6.71886e-13
4.24292e-10 -3.39715e-11 6.74498e-12
-6.73851e-11 1.63474e-11 2.84179e-10
-6.06467e-13 -1.91079e-12 2.7758e-12
-2.97991e-10 2.19963e-10 -5.66318e-11
4.21213e-11 -3.63018e-11 1.77585e-12
-4.70789e-11 3.70718e-11 -7.54759e-12
8.09486e-11 -1.91668e-11 -1.24294e-10
-3.33734e-10 -5.0848e-10 2.58944e-10
-5.44676e-11 1.43469e-10 -1.82789e-11
-1.58345e-10 -2.52583e-10 2.69765e-10
-1.7747e-10 1.17899e-10 -1.74811e-10
-7.17881e-12 -2.12189e-12 -4.80835e-12
4.02084e-12 -5.48714e-11 -2.27069e-10
4.18213e-10 -2.47809e-12 2.59807e-10
-2.28993e-10 1.21127e-10 2.69236e-12
-7.53703e-11 5.20334e-11 -3.53613e-11
2.77287e-12 -1.39266e-12 -2.08789e-12
1.10857e-10 5.51314e-11 -7.38128e-12
7.38438e-13 2.22658e-12 -1.65621e-12
1.55191e-10 3.04037e-11 -2.16995e-11
5.97844e-11 2.07299e-10 -6.85591e-12
2.46111e-10 -3.70421e-11 -7.92335e-11
-1.26585e-10 9.61797e-11 -3.38383e-11
-1.71477e-10 7.2013e-11 -8.93288e-11
-4.28591e-10 2.1189e-10 -8.05771e-11
-2.72562e-13 2.31738e-12 -3.85182e-13
3.9845e-11 -5.83462e-11 -2.3455e-10
-3.56655e-10 2.71303e-10 -1.51866e-10
-4.76472e-13 -4.53117e-12 1.85333e-12
-2.402e-10 2.08934e-10 4.53033e-11
-3.63173e-10 -9.56426e-11 -1.96875e-10
-4.42604e-13 9.1251e-13 4.04559e-12
2.10222e-11 -3.29931e-11 1.28048e-10
-1.70073e-11 1.23426e-10 3.60325e-11
-1.64051e-10 -1.32956e-10 -4.50454e-10
3.16642e-12 1.58379e-12 -9.80678e-13
9.47361e-12 2.58878e-12 3.83497e-12
-2.6119e-11 -6.4327e-11 1.79169e-11
-7.97986e-12 1.52805e-10 -2.29625e-11
-3.045e-12 9.45361e-13 -1.48637e-12
1.72223e-10 1.33483e-10 -4.10393e-11
5.81216e-11 2.92628e-10 -1.13793e-10
7.82488e-11 1.12751e-10 6.307e-11
4.15028e-12 5.30592e-12 3.4242e-12
8.37436e-11 7.30897e-11 2.75554e-10
1.83715e-10 -1.30015e-10 1.89551e-10
-3.17009e-10 3.1979e-10 -4.32901e-11
-5.63701e-13 1.98696e-12 -6.9699e-13
-3.47169e-10 1.10949e-10 -1.51511e-10
-1.39292e-10 -4.24913e-11 -4.90544e-10
1.64031e-10 -9.7243e-11 -7.79652e-11
-9.25691e-11 1.06442e-11 -1.43487e-10
4.27116e-11 1.74987e-10 -4.65001e-11
-5.88487e-13 -1.70088e-12 -2.44118e-12
-5.07191e-11 -3.47275e-11 4.69119e-11
6.08958e-11 2.14266e-11 1.33542e-10