# vtk DataFile Version 3.0
LIGGGHTS particles timestep 54600000
ASCII
DATASET POLYDATA
POINTS 275 float
0.331651 0.0182887 0.00693705
0.331415 0.0175664 0.00748116
0.331525 0.0173395 0.00750637
0.331043 0.0162377 0.00820175
0.337348 0.0173973 0.0073889
0.331662 0.0179392 0.00714078
0.33137 0.0170931 0.00766671
0.337548 0.0182877 0.00698076
0.331321 0.0169232 0.00777137
0.331667 0.0184874 0.0069447
0.325555 0.0170309 0.00735216
0.331022 0.0161543 0.00825279
0.325438 0.0173443 0.00720281
0.325649 0.0179466 0.00707432
0.331152 0.0166536 0.00794673
0.331001 0.0160709 0.00830383
0.331604 0.0181066 0.00704857
0.331632 0.0173786 0.00747246
0.325709 0.0177412 0.00711753
0.337468 0.0179336 0.00714884
0.331297 0.0168395 0.00782293
0.337508 0.0181107 0.0070648
0.32532 0.0168376 0.00749688
0.33133 0.0173183 0.00753886
0.33098 0.0159875 0.00835488
0.331247 0.0169845 0.00774301
0.331831 0.0180277 0.00707149
0.331177 0.016736 0.00789586
0.337368 0.0174873 0.00735041
0.331128 0.016571 0.00799763
0.331623 0.0177716 0.00724296
0.337612 0.0185711 0.00691919
0.331507 0.0172554 0.0075575
0.331582 0.0176048 0.00734504
0.337488 0.0180222 0.00710682
0.331085 0.0164046 0.00809966
0.331681 0.0176316 0.00731912
0.331722 0.0177987 0.007217
0.337388 0.0175774 0.00731192
0.331106 0.0164879 0.00804863
0.331481 0.0179892 0.00713196
0.33757 0.0183805 0.00695012
0.331201 0.0168187 0.00784495
0.331801 0.0181111 0.00702574
0.325784 0.0176771 0.00713391
0.337429 0.0177566 0.00723288
0.331617 0.0185913 0.00691956
0.325477 0.0171097 0.00730476
0.331639 0.0186888 0.0069151
0.337409 0.0176674 0.00727343
0.378022 0.019866 0.005332
0.33174 0.0178826 0.0071659
0.331064 0.0163212 0.00815071
0.331602 0.0176883 0.007294
0.33167 0.0183746 0.00688973
0.337449 0.0178451 0.00719086
0.325418 0.0172529 0.00723791
0.325749 0.0181008 0.00712151
0.331725 0.0181703 0.00699887
0.331464 0.0175131 0.00741091
0.331869 0.0183879 0.00688893
0.337528 0.0181992 0.00702278
0.325798 0.0180345 0.00706491
0.331732 0.0186577 0.00689518
0.331667 0.0175469 0.00737026
0.331224 0.0169016 0.00779397
0.32534 0.0169186 0.00744153
0.331432 0.0176557 0.00743867
0.324902 0.0155417 0.00843108
0.325763 0.018447 0.00698268
0.331426 0.0173454 0.00751317
0.32564 0.0179139 0.00716846
0.325576 0.0171115 0.00729691
0.33759 0.0184735 0.00691962
0.32572 0.0182535 0.0070182
0.331702 0.017715 0.00726808
0.331408 0.0172613 0.00756429
0.331623 0.0179444 0.00723275
0.331783 0.0185027 0.00685408
0.331745 0.01826 0.0069595
0.325437 0.0169459 0.00741678
0.3315 0.0179089 0.00727388
0.331829 0.0182071 0.00696836
0.331563 0.0182423 0.00707409
0.331642 0.0180302 0.00718145
0.331406 0.0176579 0.00734223
0.325079 0.015867 0.00816099
0.331938 0.0183219 0.00691878
0.325418 0.0176909 0.00711227
0.331681 0.018023 0.00708969
0.325438 0.0177874 0.00709446
0.0643568 0.0187248 0.00531097
0.24257 0.0191927 0.00520306
0.325698 0.0180382 0.00705903
0.325059 0.015789 0.00822039
0.325491 0.0177934 0.00717887
0.324924 0.015614 0.00836539
0.331825 0.0186933 0.00689457
0.33188 0.0184789 0.00684892
0.331584 0.0177773 0.00733546
0.331292 0.0171505 0.00764106
0.32528 0.0162967 0.00786076
0.325341 0.0173048 0.00718359
0.32538 0.0174979 0.00714796
0.331562 0.017521 0.00739614
0.331582 0.0180188 0.00710236
0.331643 0.0178553 0.00719188
0.325507 0.0172719 0.00719859
0.331808 0.0185983 0.00686871
0.33149 0.0171712 0.00760864
0.331558 0.0183236 0.00692616
0.331386 0.01757 0.00738556
0.325803 0.0181366 0.00704525
0.331652 0.0174621 0.0074214
0.331504 0.0176815 0.00730808
0.3251 0.0159478 0.00810567
0.33147 0.0170876 0.00765972
0.331698 0.0181213 0.00708174
0.325475 0.0175312 0.00714636
0.325495 0.0176275 0.00712861
0.331545 0.0174238 0.00745492
0.3315 0.0180721 0.00707943
0.331563 0.017935 0.00715345
0.331828 0.018304 0.00692465
0.325456 0.017027 0.00736137
0.331534 0.0180704 0.00717354
0.331443 0.0178208 0.00723269
0.331347 0.0174024 0.00748774
0.325319 0.0164584 0.0077501
0.32569 0.0176447 0.00713531
0.324944 0.0156885 0.00830194
0.32565 0.017452 0.00717083
0.324985 0.0158444 0.00818343
0.325455 0.0174348 0.00716412
0.325339 0.0165394 0.00769475
0.331345 0.0170075 0.00771947
0.325572 0.0183888 0.00699529
0.325503 0.0180012 0.00705612
0.325359 0.0166203 0.0076394
0.324964 0.0157663 0.00824247
0.325005 0.0159247 0.00812742
0.325299 0.0163775 0.00780543
0.0219312 0.0187687 0.00551176
0.325397 0.0167823 0.00752866
0.331445 0.0174291 0.00746206
0.325459 0.0178846 0.00708526
0.325656 0.0181931 0.00710806
0.325066 0.016167 0.00796155
0.325603 0.018129 0.00703641
0.331462 0.0179046 0.0071816
0.325522 0.0181644 0.00711444
0.325668 0.0184172 0.00698355
0.325529 0.0181954 0.00701963
0.325646 0.0183211 0.00700117
0.331687 0.0184646 0.0068495
0.325322 0.0172238 0.00723897
0.331775 0.0184175 0.00690585
0.325107 0.0163286 0.00785097
0.325347 0.0172308 0.00733539
0.32512 0.0160286 0.00805038
0.325471 0.0176961 0.00719725
0.325599 0.0181038 0.00713309
0.331577 0.0184074 0.00687519
0.325535 0.0178859 0.0071685
0.331764 0.0183552 0.00698335
0.32567 0.0175484 0.00715306
0.325816 0.0182842 0.00701714
0.33163 0.0182016 0.00699022
0.331483 0.0175969 0.00735982
0.331539 0.0182398 0.00697725
0.319513 0.0181252 0.00708682
0.33127 0.0170675 0.00769204
0.32536 0.0174013 0.00716573
0.331704 0.0185575 0.00688392
0.32567 0.0180084 0.00715015
0.325553 0.017917 0.00707516
0.32561 0.0177536 0.00710998
0.319187 0.0166932 0.0077213
0.325607 0.0172601 0.00720601
0.32557 0.017996 0.00714474
0.325039 0.0157144 0.00828387
0.325598 0.0180309 0.00705528
0.325417 0.016864 0.00747282
0.331543 0.0178512 0.00720455
0.32573 0.0178375 0.0070998
0.325262 0.0165947 0.00766297
0.325301 0.0167566 0.00755227
0.325182 0.016271 0.00788445
0.325511 0.0171868 0.00725102
0.325397 0.0171643 0.00727944
0.33139 0.0171771 0.00761541
0.331312 0.0172342 0.00758998
0.325703 0.0181363 0.00704013
0.331519 0.0181559 0.00702834
0.331604 0.0178607 0.00728391
0.319411 0.0176778 0.007285
0.325161 0.0161902 0.00793974
0.331599 0.018505 0.00687266
0.325399 0.0175944 0.00713008
0.331613 0.0172948 0.00752355
0.325515 0.017724 0.00711082
0.331762 0.0179691 0.007113
0.325225 0.0168141 0.00751891
0.331342 0.0173373 0.00763627
0.325567 0.0177256 0.0071965
0.319431 0.0177673 0.00724536
0.31937 0.0174988 0.00736427
0.325742 0.0183498 0.00700055
0.325254 0.0168191 0.00761457
0.325625 0.0182251 0.00701878
0.325499 0.0180652 0.00713294
0.331979 0.0184819 0.00684794
0.325187 0.0166521 0.00762965
0.325332 0.0171459 0.00739193
0.325283 0.0170573 0.00735277
0.319085 0.0162456 0.00791961
0.319146 0.0165141 0.00780069
0.319064 0.0161562 0.00795925
0.325637 0.0171757 0.00725003
0.325591 0.0176572 0.00712776
0.319105 0.0163351 0.00787997
0.319287 0.0171409 0.00752281
0.325128 0.0164093 0.00779568
0.325394 0.0174599 0.00723924
0.319226 0.0168724 0.00764174
0.325222 0.0164329 0.00777364
0.331524 0.0177674 0.00725564
0.319308 0.0172304 0.00748317
0.319493 0.0180357 0.00712646
0.319246 0.0169619 0.00760208
0.325349 0.0168425 0.00759248
0.325748 0.0179342 0.00708186
0.325378 0.0167013 0.00758405
0.32537 0.0173328 0.00727513
0.319328 0.0173199 0.00744354
0.325508 0.0180997 0.00703949
0.325377 0.0170808 0.00733074
0.325302 0.0171389 0.00729699
0.319206 0.0167828 0.00768151
0.325025 0.0160055 0.00807213
0.319534 0.0182147 0.00704719
0.325535 0.0178202 0.0070931
0.325242 0.0165138 0.00771831
0.325632 0.0173553 0.00718874
0.325571 0.0175609 0.00714551
0.331367 0.0174861 0.00743667
0.325594 0.0184823 0.00696701
0.31939 0.0175883 0.00732463
0.325282 0.0166756 0.00760762
0.319349 0.0174094 0.0074039
0.325087 0.0162478 0.00790626
0.325203 0.016352 0.00782898
0.325148 0.0164902 0.00774035
0.325533 0.0173678 0.00718119
0.319548 0.0178894 0.00719879
0.319452 0.0178568 0.00720573
0.325476 0.0179633 0.00714463
0.319126 0.0164246 0.00784033
0.32524 0.0169038 0.00756307
0.325244 0.0168952 0.00746353
0.325046 0.0160863 0.00801684
0.325206 0.0167331 0.0075743
0.325631 0.0178499 0.00709226
0.325141 0.0161093 0.00799509
0.325359 0.0169997 0.00738614
0.325551 0.0174645 0.00716328
0.325551 0.0182914 0.00700202
0.325264 0.0169762 0.00740817
0.325312 0.0170639 0.00744804
0.319472 0.0179463 0.00716609
0.325167 0.0165712 0.007685
0.331534 0.018159 0.00712716
0.319167 0.0166036 0.00776101
0.319267 0.0170514 0.00756244
0.331424 0.0177369 0.00728378

VERTICES 275 550
1 0
1 1
1 2
1 3
1 4
1 5
1 6
1 7
1 8
1 9
1 10
1 11
1 12
1 13
1 14
1 15
1 16
1 17
1 18
1 19
1 20
1 21
1 22
1 23
1 24
1 25
1 26
1 27
1 28
1 29
1 30
1 31
1 32
1 33
1 34
1 35
1 36
1 37
1 38
1 39
1 40
1 41
1 42
1 43
1 44
1 45
1 46
1 47
1 48
1 49
1 50
1 51
1 52
1 53
1 54
1 55
1 56
1 57
1 58
1 59
1 60
1 61
1 62
1 63
1 64
1 65
1 66
1 67
1 68
1 69
1 70
1 71
1 72
1 73
1 74
1 75
1 76
1 77
1 78
1 79
1 80
1 81
1 82
1 83
1 84
1 85
1 86
1 87
1 88
1 89
1 90
1 91
1 92
1 93
1 94
1 95
1 96
1 97
1 98
1 99
1 100
1 101
1 102
1 103
1 104
1 105
1 106
1 107
1 108
1 109
1 110
1 111
1 112
1 113
1 114
1 115
1 116
1 117
1 118
1 119
1 120
1 121
1 122
1 123
1 124
1 125
1 126
1 127
1 128
1 129
1 130
1 131
1 132
1 133
1 134
1 135
1 136
1 137
1 138
1 139
1 140
1 141
1 142
1 143
1 144
1 145
1 146
1 147
1 148
1 149
1 150
1 151
1 152
1 153
1 154
1 155
1 156
1 157
1 158
1 159
1 160
1 161
1 162
1 163
1 164
1 165
1 166
1 167
1 168
1 169
1 170
1 171
1 172
1 173
1 174
1 175
1 176
1 177
1 178
1 179
1 180
1 181
1 182
1 183
1 184
1 185
1 186
1 187
1 188
1 189
1 190
1 191
1 192
1 193
1 194
1 195
1 196
1 197
1 198
1 199
1 200
1 201
1 202
1 203
1 204
1 205
1 206
1 207
1 208
1 209
1 210
1 211
1 212
1 213
1 214
1 215
1 216
1 217
1 218
1 219
1 220
1 221
1 222
1 223
1 224
1 225
1 226
1 227
1 228
1 229
1 230
1 231
1 232
1 233
1 234
1 235
1 236
1 237
1 238
1 239
1 240
1 241
1 242
1 243
1 244
1 245
1 246
1 247
1 248
1 249
1 250
1 251
1 252
1 253
1 254
1 255
1 256
1 257
1 258
1 259
1 260
1 261
1 262
1 263
1 264
1 265
1 266
1 267
1 268
1 269
1 270
1 271
1 272
1 273
1 274

POINT_DATA 275
SCALARS id int 1
LOOKUP_TABLE default
1
2
4
5
6
7
8
9
10
11
12
13
14
16
17
19
21
22
23
24
25
26
27
28
29
30
31
32
33
34
35
36
37
38
39
41
42
44
45
47
48
49
50
51
52
53
54
55
56
57
59
60
61
62
63
64
65
66
67
68
69
70
71
72
73
74
76
77
78
79
80
82
83
84
85
86
87
88
89
90
91
92
93
94
95
96
97
98
99
100
101
102
103
104
105
106
107
108
109
110
111
112
113
114
115
116
117
118
119
120
121
122
123
124
125
127
128
129
130
131
132
133
134
135
136
137
138
140
141
142
143
144
146
147
148
149
150
151
153
154
155
156
157
158
159
160
162
164
165
166
167
168
169
170
171
172
173
174
176
177
178
179
182
183
184
185
186
187
188
189
190
191
192
193
194
195
196
197
198
199
200
201
202
203
204
205
206
207
208
209
210
211
212
213
214
215
216
217
218
219
220
222
224
225
226
227
228
229
230
232
233
234
235
236
237
239
240
241
242
243
244
246
247
248
249
250
251
252
253
254
255
256
257
258
259
260
261
262
263
264
265
266
267
268
269
270
271
272
273
274
275
276
277
278
279
280
281
283
284
285
286
287
288
289
290
291
292
293
294
295
296
297
298
299
300

SCALARS type int 1
LOOKUP_TABLE default
1
1
1
1
1
1
1
1
1
1
1
1
1
1
1
1
1
1
1
1
1
1
1
1
1
1
1
1
1
1
1
1
1
1
1
1
1
1
1
1
1
1
1
1
1
1
1
1
1
1
1
1
1
1
1
1
1
1
1
1
1
1
1
1
1
1
1
1
1
1
1
1
1
1
1
1
1
1
1
1
1
1
1
1
1
1
1
1
1
1
1
1
1
1
1
1
1
1
1
1
1
1
1
1
1
1
1
1
1
1
1
1
1
1
1
1
1
1
1
1
1
1
1
1
1
1
1
1
1
1
1
1
1
1
1
1
1
1
1
1
1
1
1
1
1
1
1
1
1
1
1
1
1
1
1
1
1
1
1
1
1
1
1
1
1
1
1
1
1
1
1
1
1
1
1
1
1
1
1
1
1
1
1
1
1
1
1
1
1
1
1
1
1
1
1
1
1
1
1
1
1
1
1
1
1
1
1
1
1
1
1
1
1
1
1
1
1
1
1
1
1
1
1
1
1
1
1
1
1
1
1
1
1
1
1
1
1
1
1
1
1
1
1
1
1
1
1
1
1
1
1
1
1
1
1
1
1
1
1
1
1
1
1
1
1
1
1
1
1
1
1
1
1
1
1

SCALARS radius float 1
LOOKUP_TABLE default
5e-05
5e-05
5e-05
5e-05
5e-05
5e-05
5e-05
5e-05
5e-05
5e-05
5e-05
5e-05
5e-05
5e-05
5e-05
5e-05
5e-05
5e-05
5e-05
5e-05
5e-05
5e-05
5e-05
5e-05
5e-05
5e-05
5e-05
5e-05
5e-05
5e-05
5e-05
5e-05
5e-05
5e-05
5e-05
5e-05
5e-05
5e-05
5e-05
5e-05
5e-05
5e-05
5e-05
5e-05
5e-05
5e-05
5e-05
5e-05
5e-05
5e-05
5e-05
5e-05
5e-05
5e-05
5e-05
5e-05
5e-05
5e-05
5e-05
5e-05
5e-05
5e-05
5e-05
5e-05
5e-05
5e-05
5e-05
5e-05
5e-05
5e-05
5e-05
5e-05
5e-05
5e-05
5e-05
5e-05
5e-05
5e-05
5e-05
5e-05
5e-05
5e-05
5e-05
5e-05
5e-05
5e-05
5e-05
5e-05
5e-05
5e-05
5e-05
5e-05
5e-05
5e-05
5e-05
5e-05
5e-05
5e-05
5e-05
5e-05
5e-05
5e-05
5e-05
5e-05
5e-05
5e-05
5e-05
5e-05
5e-05
5e-05
5e-05
5e-05
5e-05
5e-05
5e-05
5e-05
5e-05
5e-05
5e-05
5e-05
5e-05
5e-05
5e-05
5e-05
5e-05
5e-05
5e-05
5e-05
5e-05
5e-05
5e-05
5e-05
5e-05
5e-05
5e-05
5e-05
5e-05
5e-05
5e-05
5e-05
5e-05
5e-05
5e-05
5e-05
5e-05
5e-05
5e-05
5e-05
5e-05
5e-05
5e-05
5e-05
5e-05
5e-05
5e-05
5e-05
5e-05
5e-05
5e-05
5e-05
5e-05
5e-05
5e-05
5e-05
5e-05
5e-05
5e-05
5e-05
5e-05
5e-05
5e-05
5e-05
5e-05
5e-05
5e-05
5e-05
5e-05
5e-05
5e-05
5e-05
5e-05
5e-05
5e-05
5e-05
5e-05
5e-05
5e-05
5e-05
5e-05
5e-05
5e-05
5e-05
5e-05
5e-05
5e-05
5e-05
5e-05
5e-05
5e-05
5e-05
5e-05
5e-05
5e-05
5e-05
5e-05
5e-05
5e-05
5e-05
5e-05
5e-05
5e-05
5e-05
5e-05
5e-05
5e-05
5e-05
5e-05
5e-05
5e-05
5e-05
5e-05
5e-05
5e-05
5e-05
5e-05
5e-05
5e-05
5e-05
5e-05
5e-05
5e-05
5e-05
5e-05
5e-05
5e-05
5e-05
5e-05
5e-05
5e-05
5e-05
5e-05
5e-05
5e-05
5e-05
5e-05
5e-05
5e-05
5e-05
5e-05
5e-05
5e-05
5e-05
5e-05
5e-05
5e-05
5e-05
5e-05
5e-05
5e-05
5e-05
5e-05
5e-05
5e-05
5e-05
5e-05
5e-05
5e-05
5e-05
5e-05
5e-05
5e-05
5e-05
5e-05
5e-05
5e-05

SCALARS mass float 1
LOOKUP_TABLE default
1.46608e-10
1.46608e-10
1.46608e-10
1.46608e-10
1.46608e-10
1.46608e-10
1.46608e-10
1.46608e-10
1.46608e-10
1.46608e-10
1.46608e-10
1.46608e-10
1.46608e-10
1.46608e-10
1.46608e-10
1.46608e-10
1.46608e-10
1.46608e-10
1.46608e-10
1.46608e-10
1.46608e-10
1.46608e-10
1.46608e-10
1.46608e-10
1.46608e-10
1.46608e-10
1.46608e-10
1.46608e-10
1.46608e-10
1.46608e-10
1.46608e-10
1.46608e-10
1.46608e-10
1.46608e-10
1.46608e-10
1.46608e-10
1.46608e-10
1.46608e-10
1.46608e-10
1.46608e-10
1.46608e-10
1.46608e-10
1.46608e-10
1.46608e-10
1.46608e-10
1.46608e-10
1.46608e-10
1.46608e-10
1.46608e-10
1.46608e-10
1.46608e-10
1.46608e-10
1.46608e-10
1.46608e-10
1.46608e-10
1.46608e-10
1.46608e-10
1.46608e-10
1.46608e-10
1.46608e-10
1.46608e-10
1.46608e-10
1.46608e-10
1.46608e-10
1.46608e-10
1.46608e-10
1.46608e-10
1.46608e-10
1.46608e-10
1.46608e-10
1.46608e-10
1.46608e-10
1.46608e-10
1.46608e-10
1.46608e-10
1.46608e-10
1.46608e-10
1.46608e-10
1.46608e-10
1.46608e-10
1.46608e-10
1.46608e-10
1.46608e-10
1.46608e-10
1.46608e-10
1.46608e-10
1.46608e-10
1.46608e-10
1.46608e-10
1.46608e-10
1.46608e-10
1.46608e-10
1.46608e-10
1.46608e-10
1.46608e-10
1.46608e-10
1.46608e-10
1.46608e-10
1.46608e-10
1.46608e-10
1.46608e-10
1.46608e-10
1.46608e-10
1.46608e-10
1.46608e-10
1.46608e-10
1.46608e-10
1.46608e-10
1.46608e-10
1.46608e-10
1.46608e-10
1.46608e-10
1.46608e-10
1.46608e-10
1.46608e-10
1.46608e-10
1.46608e-10
1.46608e-10
1.46608e-10
1.46608e-10
1.46608e-10
1.46608e-10
1.46608e-10
1.46608e-10
1.46608e-10
1.46608e-10
1.46608e-10
1.46608e-10
1.46608e-10
1.46608e-10
1.46608e-10
1.46608e-10
1.46608e-10
1.46608e-10
1.46608e-10
1.46608e-10
1.46608e-10
1.46608e-10
1.46608e-10
1.46608e-10
1.46608e-10
1.46608e-10
1.46608e-10
1.46608e-10
1.46608e-10
1.46608e-10
1.46608e-10
1.46608e-10
1.46608e-10
1.46608e-10
1.46608e-10
1.46608e-10
1.46608e-10
1.46608e-10
1.46608e-10
1.46608e-10
1.46608e-10
1.46608e-10
1.46608e-10
1.46608e-10
1.46608e-10
1.46608e-10
1.46608e-10
1.46608e-10
1.46608e-10
1.46608e-10
1.46608e-10
1.46608e-10
1.46608e-10
1.46608e-10
1.46608e-10
1.46608e-10
1.46608e-10
1.46608e-10
1.46608e-10
1.46608e-10
1.46608e-10
1.46608e-10
1.46608e-10
1.46608e-10
1.46608e-10
1.46608e-10
1.46608e-10
1.46608e-10
1.46608e-10
1.46608e-10
1.46608e-10
1.46608e-10
1.46608e-10
1.46608e-10
1.46608e-10
1.46608e-10
1.46608e-10
1.46608e-10
1.46608e-10
1.46608e-10
1.46608e-10
1.46608e-10
1.46608e-10
1.46608e-10
1.46608e-10
1.46608e-10
1.46608e-10
1.46608e-10
1.46608e-10
1.46608e-10
1.46608e-10
1.46608e-10
1.46608e-10
1.46608e-10
1.46608e-10
1.46608e-10
1.46608e-10
1.46608e-10
1.46608e-10
1.46608e-10
1.46608e-10
1.46608e-10
1.46608e-10
1.46608e-10
1.46608e-10
1.46608e-10
1.46608e-10
1.46608e-10
1.46608e-10
1.46608e-10
1.46608e-10
1.46608e-10
1.46608e-10
1.46608e-10
1.46608e-10
1.46608e-10
1.46608e-10
1.46608e-10
1.46608e-10
1.46608e-10
1.46608e-10
1.46608e-10
1.46608e-10
1.46608e-10
1.46608e-10
1.46608e-10
1.46608e-10
1.46608e-10
1.46608e-10
1.46608e-10
1.46608e-10
1.46608e-10
1.46608e-10
1.46608e-10
1.46608e-10
1.46608e-10
1.46608e-10
1.46608e-10
1.46608e-10
1.46608e-10
1.46608e-10
1.46608e-10
1.46608e-10
1.46608e-10
1.46608e-10
1.46608e-10
1.46608e-10
1.46608e-10
1.46608e-10
1.46608e-10
1.46608e-10
1.46608e-10
1.46608e-10
1.46608e-10
1.46608e-10
1.46608e-10
1.46608e-10
1.46608e-10
1.46608e-10

VECTORS velocity float
0.00617603 6.71067e-05 -0.000676093
0.00582286 0.000632735 -0.000944716
0.00599707 0.00180971 -0.00167593
0.00608735 0.000553035 -0.000949838
0.00546027 -0.000816892 0.000281746
0.00607375 0.00053885 -0.000939276
0.00613278 0.00087667 -0.0011437
0.00593701 -0.00101422 6.46043e-05
0.00630578 0.000760414 -0.00109337
0.00649336 0.000423788 -3.42342e-05
0.00539864 2.94295e-05 -0.000380845
0.00611995 0.000542755 -0.00094678
0.00549739 -0.000441045 0.000330221
0.00588474 5.02191e-06 0.000294105
0.00739394 0.000296243 -0.000932675
0.00615588 0.000539989 -0.000948287
0.00621475 0.000608332 -0.000996212
0.00535221 0.000673617 -0.000944174
0.0058748 0.000254786 0.000255233
0.00572996 -0.000959931 4.45726e-05
0.00651148 0.000728894 -0.00109585
0.00581269 -0.000994888 5.53798e-05
0.00541948 -0.000514273 -2.3885e-05
0.0056837 0.000679496 -0.000975044
0.00619186 0.000539073 -0.00095204
0.00617438 0.000622158 -0.000998556
0.00619673 0.000429905 -0.00088903
0.00694617 0.00041498 -0.000956227
0.00550785 -0.000824572 0.000285013
0.0069729 0.000383258 -0.000942575
0.00596494 0.000568974 -0.000944121
0.00604802 -0.000828804 0.000712956
0.0056883 0.00188653 -0.00168975
0.00581521 0.000596848 -0.000947394
0.00578727 -0.000969311 4.68522e-05
0.00601237 0.000592854 -0.000961373
0.00585111 0.000593696 -0.000948698
0.00602466 0.000568798 -0.000951209
0.00555118 -0.000831413 0.00028656
0.00629953 0.000536424 -0.000961502
0.00612105 0.000603256 -0.000982904
0.00600609 -0.000918713 0.000374583
0.00655394 0.000523675 -0.000980234
0.00625519 0.000450219 -0.000900639
0.005857 0.000225931 0.000257381
0.0056197 -0.000966085 6.30689e-05
0.00633956 0.000388251 0.000134046
0.00552605 -0.000539468 -1.29471e-05
0.00631119 0.000360458 -0.000357818
0.00560413 -0.000841176 0.000282684
-5.01938e-15 -7.41197e-15 7.69803e-14
0.00602982 0.000489312 -0.000906077
0.00603879 0.000573831 -0.000953852
0.00587987 0.000590433 -0.000950242
0.00625196 0.00039771 -5.31155e-05
0.00564959 -0.00097045 5.26166e-05
0.00549625 -0.000475203 0.000191777
0.00594492 0.000634998 0.000189787
0.00629173 0.000506789 -0.000894611
0.00580859 0.000587306 -0.000940538
0.00647143 0.000854747 -7.74568e-05
0.00586806 -0.0010164 6.25186e-05
0.00559248 0.000365321 0.000219966
0.006413 0.000618468 -0.000169933
0.00567909 0.000623181 -0.000948793
0.00636405 0.000579622 -0.000993286
0.00543021 -0.000515168 -2.2089e-05
0.00588607 0.000600986 -0.000960009
0.00618155 -0.000496084 0.000543022
0.00560544 0.00170826 -4.31937e-05
0.00592026 0.000753398 -0.00104671
0.00588656 9.84775e-06 0.000308005
0.0054981 1.04032e-05 -0.000376591
0.00603805 -0.000830827 0.00070311
0.00533553 0.00106452 6.97369e-05
0.00597661 0.000576767 -0.000952813
0.00569917 0.000718793 -0.00100474
0.00607462 0.000559641 -0.000943333
0.00642292 0.000635478 1.29506e-05
0.00635269 0.000635258 -0.000554557
0.00549219 -0.000502389 -3.26743e-05
0.0060499 0.000596549 -0.000968475
0.0063637 0.000703283 -0.000187242
0.0063103 0.000562595 -0.00100103
0.00611518 0.000555504 -0.000944155
0.00583863 0.000607284 -0.000953518
0.00562144 -0.000593472 1.39421e-05
0.00639655 0.000716837 -0.000198742
0.00502448 -0.000624264 -0.00143195
0.00610384 0.000526049 -0.000937364
0.00561988 -0.000390188 0.000362724
4.20162e-15 1.05155e-14 8.29612e-14
-7.91558e-23 4.86658e-23 1.23839e-22
0.00556635 0.000331401 0.000217984
0.00561418 -0.000308138 0.000523787
0.00568109 -0.000400099 0.000247552
0.00616379 -0.000403126 0.000633163
0.00635101 0.000802195 -0.000449516
0.00646584 0.000890971 3.85825e-05
0.00592408 0.000590397 -0.000948579
0.00589426 0.000646123 -0.000985185
0.00562898 -0.000521383 -2.8063e-05
0.00560761 -0.000589261 3.49105e-05
0.00556823 -0.000411357 0.000304501
0.00580983 0.00059507 -0.000945105
0.00614793 0.000569213 -0.000960454
0.00602154 0.000557809 -0.000944532
0.00545902 -9.68966e-05 0.000301989
0.00646269 0.000625012 -3.65692e-06
0.00579067 0.00172909 -0.00160844
0.00640575 0.000581786 -0.000999263
0.00581003 0.000604572 -0.000949478
0.00568134 0.00091359 0.000114896
0.00551388 0.000644276 -0.000944101
0.00588266 0.000578232 -0.000942937
0.00557483 -0.000629646 5.2778e-05
0.00615444 0.00169631 -0.0016262
0.00615577 0.000503632 -0.000951384
0.00564534 -0.00042701 0.000356398
0.00584114 -0.000438037 0.000363386
0.00578031 0.00126713 -0.00133667
0.00619116 0.000607698 -0.000993365
0.00608664 0.000573429 -0.000959827
0.00641445 0.000820552 -0.000225482
0.00545716 -0.000518046 -2.79854e-05
0.0061633 0.000626602 -0.000986277
0.00600749 0.000595481 -0.000968937
0.0057262 0.000668593 -0.000973164
0.00547172 -0.000496683 -3.40841e-05
0.00574579 0.000284615 0.000243079
0.00555958 -0.000323642 0.0005341
0.0054478 0.000339686 0.000213411
0.00557649 -0.000509987 0.000256384
0.00553084 -0.000429485 0.000367702
0.00549346 -0.000494739 -3.64546e-05
0.00615177 0.000735529 -0.00106292
0.00590903 -0.00139046 -0.00407915
0.00585485 -0.000948909 0.000507855
0.00544712 -0.000509624 -2.34032e-05
0.00557794 -0.000408323 0.000418997
0.00558742 -0.00058368 0.000109882
0.00544525 -0.000496064 -3.25531e-05
-3.83103e-14 8.16294e-14 2.95901e-13
0.00542104 -0.000514151 -1.71419e-05
0.00582475 0.000891137 -0.00111843
0.00599488 -0.000401486 0.000471283
0.00573006 0.000157542 0.000410662
0.00564645 -0.000583005 1.21022e-05
0.00566654 -0.000175441 0.000338996
0.00605474 0.000589222 -0.000970014
0.00586287 -0.000927402 0.000496956
0.0061351 -0.000153132 0.000367451
0.00592331 -0.00097866 0.00049732
0.00571154 -0.000104074 0.000306803
0.00642716 0.000372859 -3.87302e-05
0.00552797 -0.000617458 3.72135e-05
0.00640099 0.000639755 4.71371e-05
0.00567689 -0.000582405 1.10047e-05
0.00559682 -0.000504665 1.26698e-05
0.00557242 -0.000610137 3.5509e-05
0.00590924 0.00183427 -0.00129091
0.00603144 -0.000830042 0.000199002
0.0064696 0.000648857 -0.000856265
0.00599224 -0.000562108 0.000493179
0.00614966 0.000545761 -6.45909e-05
0.00560249 0.000314004 0.000227665
0.00518988 0.00153578 -3.10357e-05
0.00630834 0.000554551 -0.000964701
0.00581521 0.000589257 -0.00094175
0.00632377 0.000597144 -0.00100181
0.00602448 -0.00017567 0.000593539
0.00603875 0.000636561 -0.000993097
0.00555861 -0.000494798 0.000366212
0.00638523 0.000578049 3.20855e-05
0.00581297 0.000133917 0.000228803
0.00610143 -0.000786864 0.000454452
0.00583234 2.17049e-05 0.000301494
0.00543805 -8.55947e-05 0.000501996
0.00551081 0.000299764 0.00022559
0.00596233 -0.000858824 0.00018541
0.0055996 -0.000313116 0.000515676
0.00558159 -0.00022645 0.000330797
0.00541238 -0.000543902 2.68805e-06
0.00603206 0.000577855 -0.000958728
0.00589487 0.000294183 0.000245407
0.00544635 -0.00052391 -1.42984e-05
0.00544142 -0.000513855 -2.08837e-05
0.00568002 -0.000572749 2.96728e-06
0.00508631 -0.000364991 -0.000103205
0.00551831 -0.000528808 2.36437e-05
0.00578204 0.000703248 -0.00100646
0.00575257 0.000665806 -0.000981527
0.00565541 0.000339768 0.00023075
0.00623913 0.000608593 -0.00100155
0.00600374 0.000573725 -0.000944295
0.00580999 -0.000142471 0.000559957
0.00565575 -0.000588443 1.5019e-05
0.00646009 0.000658997 -0.000441565
0.00524022 -0.000323774 0.000188493
0.00479524 0.00077998 -0.00094991
0.00595418 -0.000442423 0.000385689
0.00608146 0.00052665 -0.000937898
0.00541081 -0.000528327 -5.5551e-06
0.00567105 0.000718867 -0.000967802
0.00588307 -7.02565e-05 0.000430978
0.00585295 -0.000148889 0.000566595
0.00572405 -0.000129773 0.000546713
0.00530491 0.00151088 -2.10698e-05
0.0054326 -0.000543819 4.37849e-06
0.00568633 -0.000145084 0.000321612
0.0058698 -0.000927185 0.000554157
0.00646944 0.000677094 9.1644e-06
0.00550085 -0.000563777 7.76406e-06
0.00555244 -0.000465216 -8.28407e-05
0.00548037 -0.000543017 -7.60327e-06
0.00568404 -0.000124576 0.000540937
0.00565241 -0.000119333 0.000535847
0.00569461 -0.000126263 0.000542654
0.00552651 4.45866e-07 -0.000354398
0.00570661 3.66877e-05 0.000281196
0.00567351 -0.000122839 0.000539261
0.00555222 -0.000103964 0.000520256
0.00566572 -0.00058372 1.22686e-05
0.00554183 -0.00036174 0.000367673
0.00532288 -6.81878e-05 0.000484171
0.0054234 -0.00053034 -8.39282e-06
0.00596587 0.000580249 -0.000956273
0.00559518 -0.000110534 0.000526844
0.00598165 -0.000168799 0.000586712
0.00546646 -9.07298e-05 0.000506799
0.00540411 -0.000501145 -2.98611e-05
0.0058958 0.000309982 0.000244367
0.00542184 -0.000516685 -1.90682e-05
0.00530243 -0.000559076 0.000146717
0.00563808 -0.000116954 0.000533603
0.00589081 -0.000964367 0.000518179
0.00548365 -0.000536659 -4.04331e-05
0.0054966 -0.000506328 -4.20934e-05
0.00531853 -6.76474e-05 0.000483538
0.00560614 -0.000601733 3.82172e-05
0.00606731 -0.00018256 0.000600358
0.00599744 -0.000432751 0.000424945
0.00543583 -0.000533517 -6.613e-06
0.00541892 0.000332986 0.000212213
0.00547026 7.59995e-05 0.000265045
0.0056787 0.000666464 -0.000972393
0.00616518 -3.41939e-05 0.000398694
0.00576703 -0.000136106 0.000553363
0.00544175 -0.000515875 -1.95278e-05
0.00568111 -0.000123414 0.000540144
0.00568211 -0.000581215 8.44979e-06
0.00564158 -0.000554668 -6.71738e-06
0.00542965 -0.000537645 -3.64232e-06
0.00536711 4.7824e-05 0.000274434
0.00593914 -0.000161633 0.000579792
0.0058959 -0.0001554 0.000573235
0.00583371 -0.000505025 0.000744406
0.00566296 -0.000121085 0.000537549
0.00543743 -0.000491455 -1.6598e-05
0.00543029 -0.000528538 -8.34496e-06
0.00561487 -0.000592991 2.0061e-05
0.00546562 -0.000552905 2.14258e-06
0.00585295 1.39006e-05 0.000305853
0.00561008 -0.000608976 3.09957e-05
0.00545914 -0.000517256 -2.06684e-05
0.00539278 -2.37638e-05 0.000285171
0.00590378 -0.0010565 0.000441531
0.00546458 -0.000539894 -5.72165e-06
0.00549588 -0.000528467 -1.3711e-05
0.00593884 -0.000161987 0.00057995
0.00545645 -0.000556509 7.40205e-06
0.00624498 0.00061052 -0.00101084
0.00543545 -8.52776e-05 0.000501679
0.00550935 -9.74042e-05 0.000513472
0.00591484 0.000599477 -0.000958231

VECTORS force float
-6.74512e-11 5.5182e-12 1.73487e-11
-3.39761e-11 -1.91176e-10 1.65781e-10
7.22941e-10 -2.90653e-10 1.12141e-10
3.6073e-11 1.55432e-10 -1.05198e-10
1.18776e-11 9.55958e-12 -1.31062e-12
-1.96128e-11 -9.28229e-12 -3.91169e-11
-2.3786e-10 5.45063e-11 -1.75374e-11
-6.70956e-11 -2.54541e-10 -5.27146e-12
6.26748e-11 -3.42768e-11 1.45842e-11
8.49573e-11 6.6222e-11 4.95157e-11
-5.10164e-10 -2.60717e-10 2.34722e-10
3.63767e-11 1.14997e-10 -7.13544e-11
1.91753e-10 -2.20216e-10 2.78644e-10
-1.99067e-10 3.21447e-10 -1.86178e-10
-6.76343e-10 2.05669e-10 -6.31097e-11
5.91657e-11 1.04111e-10 -8.49338e-11
-7.70902e-11 9.54903e-11 -6.79302e-11
1.47623e-09 -3.88199e-11 -1.31763e-10
3.80878e-10 2.04321e-10 4.04556e-11
-5.3543e-10 4.25603e-11 -8.92493e-11
2.22388e-10 -7.37527e-12 -1.85591e-11
2.06572e-10 2.56566e-10 -1.07155e-10
1.57889e-10 3.67263e-11 -5.92445e-11
6.39379e-11 -1.32412e-11 -7.98554e-12
2.77699e-11 2.10228e-10 -1.08455e-10
-1.60698e-10 -1.90888e-10 1.2867e-10
-1.70995e-10 1.16252e-10 -7.15731e-11
-3.22489e-10 1.20044e-10 -3.06967e-11
-3.20997e-11 2.1832e-11 -1.26721e-11
1.17435e-10 2.24779e-10 -1.46496e-10
-5.34635e-12 1.75222e-10 -4.33991e-11
-1.16601e-10 1.5112e-10 -6.6491e-11
2.18867e-10 1.26799e-11 -3.38384e-11
2.17785e-10 3.86173e-11 -2.0145e-12
-1.50565e-10 2.28148e-10 -1.98442e-10
9.14409e-11 2.73621e-11 8.95418e-11
-5.00279e-10 -4.10697e-11 7.06056e-11
2.31436e-10 4.42993e-11 -6.61779e-11
-1.91556e-11 3.08243e-11 -5.27683e-11
-1.75257e-10 1.50787e-10 -1.00256e-11
-3.08308e-10 -2.76384e-10 2.26106e-10
3.23015e-11 -2.68234e-10 9.56365e-11
-1.77441e-10 -1.02794e-10 8.15947e-11
-9.93631e-11 1.13313e-10 3.66817e-11
1.76613e-11 -9.68521e-11 2.94248e-11
5.98659e-10 -1.23075e-10 1.23289e-10
-1.10541e-10 3.82652e-11 4.14135e-10
2.33667e-11 -4.49938e-10 3.10775e-10
-8.58019e-11 -3.53567e-10 -2.87216e-10
-1.60288e-10 -4.98144e-11 -4.88674e-11
3.37335e-24 -3.59307e-24 -2.06795e-25
-6.85192e-11 -5.53683e-11 1.51511e-11
-7.17542e-12 1.06128e-10 -1.6725e-11
-5.7443e-11 1.51377e-10 -9.4681e-11
2.51394e-10 -1.03824e-10 2.4042e-11
1.26104e-11 -9.37162e-11 6.78694e-11
-4.353e-11 -4.51149e-10 1.00814e-10
1.66742e-10 2.01878e-10 -5.75603e-11
-2.03609e-11 -6.66343e-11 -4.39324e-11
1.62351e-10 1.15902e-11 6.72492e-13
-1.46401e-10 2.42453e-11 1.94777e-10
6.35546e-11 -2.21143e-11 1.12338e-11
-1.95152e-11 -3.59308e-10 1.32178e-10
-5.54734e-11 -2.21103e-10 -1.24672e-10
-1.24993e-10 -7.17575e-12 2.8543e-11
1.52457e-11 -1.64316e-10 7.91722e-11
-7.25326e-11 1.36486e-11 -1.43303e-10
-2.17669e-10 -6.31045e-11 2.0224e-10
-3.1001e-10 -3.49886e-10 7.82978e-10
-9.09417e-10 1.2253e-10 -4.97778e-11
2.71854e-10 -3.17173e-10 1.80752e-10
6.28018e-11 6.37343e-11 -7.45567e-11
3.88427e-11 -3.72425e-10 2.13823e-10
9.19876e-11 -3.03294e-11 1.639e-10
-2.68668e-10 2.43624e-11 -2.08233e-11
-1.39971e-10 2.83488e-11 -1.57701e-11
-2.56195e-11 2.27217e-10 -1.62876e-10
1.51053e-10 9.96481e-12 -6.13645e-11
2.48436e-11 1.57168e-10 5.12652e-11
1.49467e-12 -1.03818e-10 -2.89239e-10
-2.51037e-10 -2.40005e-10 1.5956e-10
1.51732e-10 -1.50212e-10 5.56157e-11
6.90406e-11 -5.32264e-11 4.9232e-11
-5.62225e-11 2.07874e-10 -1.6256e-11
-1.90342e-10 3.16971e-10 1.33043e-10
1.01451e-10 -1.35687e-10 4.69203e-11
-2.26211e-12 9.68839e-11 -8.26006e-11
-3.16676e-10 3.09698e-10 -1.47609e-10
-2.42283e-08 1.27459e-08 4.05862e-08
-7.83773e-11 -4.20092e-11 7.91135e-11
-8.68713e-10 3.5809e-10 6.28504e-11
-8.71616e-22 3.8557e-22 3.10193e-24
0.0 0.0 0.0
-3.30991e-11 1.01923e-10 -2.74044e-10
-2.27635e-11 -1.6437e-10 1.79974e-10
4.60784e-11 -1.09994e-10 2.80604e-10
-3.83657e-11 -5.18173e-10 3.68895e-10
-8.7245e-11 -4.41821e-11 7.57946e-11