# vtk DataFile Version 3.0
LIGGGHTS particles timestep 62400000
ASCII
DATASET POLYDATA
POINTS 267 float
0.376981 0.0175937 0.00717108
0.376934 0.0172885 0.00736051
0.376866 0.0167197 0.00752715
0.382819 0.0172699 0.00725228
0.377035 0.0174345 0.00721473
0.376687 0.0164341 0.00782302
0.383015 0.0181748 0.00688689
0.376668 0.0163727 0.00789958
0.377081 0.0180657 0.00704038
0.370945 0.0170968 0.00746207
0.376475 0.016042 0.00830324
0.37087 0.0171511 0.00742436
0.371128 0.0178471 0.00700355
0.376534 0.0162349 0.00808149
0.376495 0.0161087 0.00823154
0.376918 0.0173129 0.0072576
0.377088 0.0172838 0.00728416
0.371223 0.0178785 0.00700202
0.382938 0.0178021 0.00700991
0.376803 0.0165072 0.00772165
0.382977 0.0179883 0.00694843
0.370763 0.0167516 0.00770602
0.376632 0.0165415 0.00769875
0.376455 0.0159753 0.00837495
0.37678 0.0170081 0.0074661
0.37694 0.0174063 0.00722896
0.376554 0.0162969 0.00800556
0.382841 0.0173539 0.00720238
0.376515 0.0161737 0.00815813
0.376971 0.0171624 0.0073244
0.383074 0.018466 0.0068472
0.376843 0.016633 0.00757158
0.376927 0.0169815 0.00739782
0.382958 0.0178952 0.00697917
0.37715 0.0175597 0.00717956
0.37719 0.0177487 0.00712723
0.38286 0.0174384 0.00715246
0.308716 0.0182299 0.00768939
0.376778 0.0170981 0.00733229
0.383034 0.0182709 0.00686699
0.376573 0.0163587 0.00792934
0.377176 0.018097 0.00703126
0.371092 0.0185579 0.0069414
0.382898 0.017616 0.00707139
0.37708 0.0179402 0.00715972
0.371276 0.0177131 0.00701905
0.376926 0.017752 0.00712772
0.382879 0.017523 0.00710254
0.378022 0.019866 0.005332
0.377211 0.0178431 0.00710109
0.376949 0.0170719 0.00736112
0.377001 0.0176881 0.00714494
0.382918 0.0177091 0.00704065
0.370849 0.0170714 0.00748134
0.371073 0.0184604 0.00695215
0.377116 0.0178128 0.00710995
0.376767 0.0166817 0.00751913
0.377006 0.0181296 0.00702318
0.382996 0.0180816 0.00691765
0.371174 0.0185007 0.006945
0.376966 0.0179408 0.00707545
0.37713 0.0174662 0.00720995
0.377057 0.0174169 0.00732127
0.370784 0.0168315 0.00764978
0.376978 0.0174737 0.00729722
0.370376 0.0155994 0.00850086
0.371013 0.0181677 0.0069798
0.376726 0.0165567 0.0076699
0.37123 0.0183372 0.00696046
0.37111 0.0173674 0.00726729
0.383054 0.0183684 0.00685709
0.37121 0.0182397 0.00697123
0.37717 0.0176543 0.00715336
0.376707 0.0164956 0.00774664
0.377019 0.0177591 0.00721599
0.377061 0.0179713 0.00706652
0.377136 0.0179073 0.00708379
0.370924 0.0170164 0.00751783
0.376882 0.0174417 0.00730382
0.377064 0.0184133 0.00694462
0.376925 0.0177259 0.00722427
0.37696 0.017499 0.00719731
0.376713 0.0168268 0.0074424
0.377045 0.0183187 0.00697081
0.370878 0.0175333 0.00725823
0.377055 0.0175295 0.00718839
0.370859 0.0174443 0.00721572
0.0643568 0.0187248 0.00531097
0.24257 0.0191927 0.00520306
0.37115 0.0179466 0.00699661
0.370517 0.0161646 0.00811282
0.370948 0.0178024 0.00710244
0.370395 0.0156803 0.00844536
0.376946 0.0178464 0.00710159
0.377101 0.0181607 0.0070141
0.377001 0.0175653 0.00726467
0.376782 0.0171191 0.00742999
0.370751 0.0163717 0.00796106
0.370775 0.0171264 0.00744315
0.370818 0.0172852 0.00732955
0.376906 0.016891 0.00743456
0.376897 0.0172212 0.0072915
0.377014 0.0173434 0.00725099
0.37099 0.0172564 0.00734787
0.377005 0.0180042 0.00714251
0.377044 0.017103 0.00735751
0.376843 0.0173741 0.00723238
0.376691 0.0167363 0.0074791
0.371131 0.0187529 0.0069199
0.377109 0.0173755 0.0072469
0.37681 0.0168594 0.00743826
0.370454 0.0159229 0.00827889
0.377022 0.0170125 0.00739424
0.377095 0.0177184 0.00713609
0.370914 0.0173102 0.00731051
0.370934 0.01739 0.00725343
0.376883 0.0168006 0.00747117
0.376902 0.0175353 0.00727474
0.376875 0.0171307 0.00732822
0.377025 0.0182241 0.00699699
0.370827 0.0169919 0.00753828
0.377045 0.0176676 0.00724693
0.376859 0.0173492 0.0073337
0.376651 0.0166028 0.00762219
0.370794 0.0165327 0.00785037
0.371203 0.0177808 0.00700882
0.370415 0.0157612 0.00838987
0.37116 0.017608 0.00709533
0.370947 0.0178608 0.0071836
0.370892 0.0172305 0.00736756
0.370816 0.0166132 0.00779502
0.376593 0.0164189 0.00785185
0.370973 0.0179722 0.0069934
0.370897 0.0176052 0.00710311
0.370837 0.0166937 0.00773968
0.370434 0.015842 0.00833438
0.370836 0.017375 0.00737226
0.370773 0.0164522 0.00790569
0.0219312 0.0187687 0.00551176
0.370881 0.0168551 0.0076287
0.376746 0.0166181 0.00759334
0.370879 0.0175241 0.00715867
0.371112 0.0186554 0.00693065
0.371032 0.0178279 0.00704098
0.376756 0.0170077 0.00736899
0.371115 0.0182084 0.00697746
0.371155 0.0184032 0.00695575
0.370933 0.0177769 0.00700699
0.371095 0.0181106 0.0069845
0.377021 0.0177826 0.00711879
0.370753 0.0170469 0.00750001
0.37712 0.0182554 0.00698787
0.370774 0.0170519 0.00759772
0.371103 0.0177744 0.00710711
0.370496 0.0160841 0.00816815
0.370945 0.0176869 0.00715066
0.37119 0.0181423 0.00698198
0.376885 0.0175627 0.00718014
0.371111 0.0179088 0.00708067
0.377156 0.0180017 0.00705765
0.371181 0.0176882 0.00703958
0.371053 0.018363 0.00696291
0.376865 0.0174683 0.00720628
0.376787 0.0167717 0.00748078
0.376822 0.0172831 0.00726864
0.365069 0.0184468 0.00697576
0.376958 0.0173796 0.00732489
0.370796 0.0172058 0.00738631
0.377041 0.0178769 0.00709266
0.371135 0.0183057 0.00696662
0.370991 0.0176308 0.00708124
0.371081 0.0176656 0.00705534
0.364751 0.0170402 0.00751644
0.371298 0.0178122 0.00700732
0.371055 0.0179151 0.0069981
0.370474 0.0160036 0.00822349
0.371006 0.0177327 0.00705802
0.370903 0.0169358 0.00757321
0.376853 0.0170403 0.00736486
0.371245 0.0179782 0.00699509
0.370698 0.0165095 0.00787103
0.370742 0.0166713 0.00776151
0.370539 0.016245 0.00805751
0.370967 0.0171761 0.0074053
0.370732 0.0169675 0.00755682
0.376823 0.0165683 0.00764519
0.376612 0.0164802 0.0077753
0.37117 0.0180445 0.00698979
0.3768 0.0171886 0.00729559
0.376992 0.0172528 0.00728772
0.364972 0.0179572 0.00696821
0.376905 0.0176574 0.00715392
0.370839 0.0173647 0.00727283
0.377066 0.0171934 0.00732084
0.370954 0.0174699 0.00719627
0.377075 0.0176239 0.00716225
0.370646 0.0166482 0.00778199
0.376909 0.0171979 0.00739434
0.37118 0.0178369 0.00708846
0.36499 0.0180554 0.00696192
0.364942 0.0177772 0.00703816
0.371033 0.0182655 0.00697299
0.370795 0.0171314 0.00754086
0.371075 0.0180128 0.00699131
0.371032 0.0179772 0.00707409
0.376986 0.0180352 0.00704931
0.370625 0.0165678 0.00783735
0.37103 0.0174167 0.00723322
0.37071 0.0168881 0.00761366
0.364643 0.0166308 0.00778216
0.364708 0.0168765 0.00762269
0.364621 0.0165489 0.00783531
0.371371 0.0177439 0.00701275
0.371068 0.0175767 0.00711881
0.364664 0.0167127 0.007729
0.364859 0.0174497 0.00725072
0.37056 0.0163255 0.00800216
0.370918 0.0176052 0.00720184
0.364794 0.0172041 0.00741007
0.370656 0.0163485 0.00798173
0.376831 0.0169499 0.00740157
0.364884 0.0175308 0.00719801
0.36505 0.0183489 0.0069723
0.36482 0.0172851 0.0073575
0.371045 0.0177014 0.00714496
0.371265 0.0180762 0.0069867
0.370859 0.0167745 0.00768414
0.371018 0.0176196 0.00719615
0.364896 0.0176143 0.00714431
0.370916 0.0176909 0.00705511
0.370955 0.0173943 0.00735115
0.370794 0.0172149 0.00748589
0.364772 0.0171222 0.00746322
0.37088 0.0174487 0.00731347
0.365145 0.0183804 0.00697417
0.370973 0.0175507 0.00713849
0.370677 0.016429 0.0079264
0.371147 0.0175272 0.00715301
0.371048 0.0174968 0.00717591
0.376671 0.0166644 0.00754538
0.370993 0.01807 0.0069866
0.36495 0.0178609 0.00698397
0.37072 0.0165902 0.00781602
0.364915 0.0176965 0.0070906
0.370751 0.0169712 0.00765482
0.370634 0.016268 0.00803706
0.370582 0.016406 0.00794684
0.37101 0.0173361 0.00729088
0.36501 0.0181533 0.00696538
0.370974 0.0178988 0.00709502
0.364686 0.0167946 0.00767584
0.371 0.017539 0.00725231
0.370667 0.0167286 0.00772641
0.370732 0.0168907 0.00771119
0.370816 0.0172952 0.00742902
0.371091 0.0177541 0.00700985
0.370806 0.0169121 0.00759459
0.371128 0.0174474 0.0072101
0.370953 0.0178745 0.0070002
0.370689 0.0168085 0.00767031
0.37111 0.0175898 0.00722159
0.365034 0.0182501 0.00696885
0.370603 0.0164871 0.00789245
0.376902 0.0176323 0.00725067
0.364729 0.0169584 0.00756953
0.364837 0.0173678 0.00730388
0.376735 0.0169172 0.0074057

VERTICES 267 534
1 0
1 1
1 2
1 3
1 4
1 5
1 6
1 7
1 8
1 9
1 10
1 11
1 12
1 13
1 14
1 15
1 16
1 17
1 18
1 19
1 20
1 21
1 22
1 23
1 24
1 25
1 26
1 27
1 28
1 29
1 30
1 31
1 32
1 33
1 34
1 35
1 36
1 37
1 38
1 39
1 40
1 41
1 42
1 43
1 44
1 45
1 46
1 47
1 48
1 49
1 50
1 51
1 52
1 53
1 54
1 55
1 56
1 57
1 58
1 59
1 60
1 61
1 62
1 63
1 64
1 65
1 66
1 67
1 68
1 69
1 70
1 71
1 72
1 73
1 74
1 75
1 76
1 77
1 78
1 79
1 80
1 81
1 82
1 83
1 84
1 85
1 86
1 87
1 88
1 89
1 90
1 91
1 92
1 93
1 94
1 95
1 96
1 97
1 98
1 99
1 100
1 101
1 102
1 103
1 104
1 105
1 106
1 107
1 108
1 109
1 110
1 111
1 112
1 113
1 114
1 115
1 116
1 117
1 118
1 119
1 120
1 121
1 122
1 123
1 124
1 125
1 126
1 127
1 128
1 129
1 130
1 131
1 132
1 133
1 134
1 135
1 136
1 137
1 138
1 139
1 140
1 141
1 142
1 143
1 144
1 145
1 146
1 147
1 148
1 149
1 150
1 151
1 152
1 153
1 154
1 155
1 156
1 157
1 158
1 159
1 160
1 161
1 162
1 163
1 164
1 165
1 166
1 167
1 168
1 169
1 170
1 171
1 172
1 173
1 174
1 175
1 176
1 177
1 178
1 179
1 180
1 181
1 182
1 183
1 184
1 185
1 186
1 187
1 188
1 189
1 190
1 191
1 192
1 193
1 194
1 195
1 196
1 197
1 198
1 199
1 200
1 201
1 202
1 203
1 204
1 205
1 206
1 207
1 208
1 209
1 210
1 211
1 212
1 213
1 214
1 215
1 216
1 217
1 218
1 219
1 220
1 221
1 222
1 223
1 224
1 225
1 226
1 227
1 228
1 229
1 230
1 231
1 232
1 233
1 234
1 235
1 236
1 237
1 238
1 239
1 240
1 241
1 242
1 243
1 244
1 245
1 246
1 247
1 248
1 249
1 250
1 251
1 252
1 253
1 254
1 255
1 256
1 257
1 258
1 259
1 260
1 261
1 262
1 263
1 264
1 265
1 266

POINT_DATA 267
SCALARS id int 1
LOOKUP_TABLE default
1
2
4
6
7
8
9
10
11
12
13
14
16
17
19
21
22
23
24
25
26
27
28
29
30
31
32
33
34
35
36
37
38
39
42
44
45
47
48
49
50
51
52
53
54
55
56
57
59
60
62
63
64
65
66
67
68
69
70
71
72
73
74
76
77
78
79
80
82
83
84
85
86
87
88
89
90
91
92
93
94
95
96
98
99
100
101
102
103
104
105
106
107
108
109
110
111
112
113
114
115
116
117
118
119
120
121
122
123
124
125
127
128
129
130
131
132
133
134
135
136
137
138
140
141
142
143
144
146
147
148
149
150
151
153
154
155
156
157
158
159
160
162
165
166
167
168
169
170
171
172
173
174
176
177
178
179
182
183
184
185
186
187
188
189
190
191
192
193
194
195
196
197
198
199
200
201
202
203
204
205
206
207
208
209
210
211
212
213
214
215
217
218
219
220
222
224
225
226
227
228
229
230
232
233
234
235
236
237
239
240
241
242
243
244
246
247
248
249
250
251
252
253
254
255
256
257
258
259
260
261
262
263
264
265
266
267
268
269
270
271
272
273
274
275
276
277
278
280
281
283
284
285
286
287
288
290
291
292
293
294
295
296
297
298
299
300

SCALARS type int 1
LOOKUP_TABLE default
1
1
1
1
1
1
1
1
1
1
1
1
1
1
1
1
1
1
1
1
1
1
1
1
1
1
1
1
1
1
1
1
1
1
1
1
1
1
1
1
1
1
1
1
1
1
1
1
1
1
1
1
1
1
1
1
1
1
1
1
1
1
1
1
1
1
1
1
1
1
1
1
1
1
1
1
1
1
1
1
1
1
1
1
1
1
1
1
1
1
1
1
1
1
1
1
1
1
1
1
1
1
1
1
1
1
1
1
1
1
1
1
1
1
1
1
1
1
1
1
1
1
1
1
1
1
1
1
1
1
1
1
1
1
1
1
1
1
1
1
1
1
1
1
1
1
1
1
1
1
1
1
1
1
1
1
1
1
1
1
1
1
1
1
1
1
1
1
1
1
1
1
1
1
1
1
1
1
1
1
1
1
1
1
1
1
1
1
1
1
1
1
1
1
1
1
1
1
1
1
1
1
1
1
1
1
1
1
1
1
1
1
1
1
1
1
1
1
1
1
1
1
1
1
1
1
1
1
1
1
1
1
1
1
1
1
1
1
1
1
1
1
1
1
1
1
1
1
1
1
1
1
1
1
1
1
1
1
1
1
1
1
1
1
1
1
1

SCALARS radius float 1
LOOKUP_TABLE default
5e-05
5e-05
5e-05
5e-05
5e-05
5e-05
5e-05
5e-05
5e-05
5e-05
5e-05
5e-05
5e-05
5e-05
5e-05
5e-05
5e-05
5e-05
5e-05
5e-05
5e-05
5e-05
5e-05
5e-05
5e-05
5e-05
5e-05
5e-05
5e-05
5e-05
5e-05
5e-05
5e-05
5e-05
5e-05
5e-05
5e-05
5e-05
5e-05
5e-05
5e-05
5e-05
5e-05
5e-05
5e-05
5e-05
5e-05
5e-05
5e-05
5e-05
5e-05
5e-05
5e-05
5e-05
5e-05
5e-05
5e-05
5e-05
5e-05
5e-05
5e-05
5e-05
5e-05
5e-05
5e-05
5e-05
5e-05
5e-05
5e-05
5e-05
5e-05
5e-05
5e-05
5e-05
5e-05
5e-05
5e-05
5e-05
5e-05
5e-05
5e-05
5e-05
5e-05
5e-05
5e-05
5e-05
5e-05
5e-05
5e-05
5e-05
5e-05
5e-05
5e-05
5e-05
5e-05
5e-05
5e-05
5e-05
5e-05
5e-05
5e-05
5e-05
5e-05
5e-05
5e-05
5e-05
5e-05
5e-05
5e-05
5e-05
5e-05
5e-05
5e-05
5e-05
5e-05
5e-05
5e-05
5e-05
5e-05
5e-05
5e-05
5e-05
5e-05
5e-05
5e-05
5e-05
5e-05
5e-05
5e-05
5e-05
5e-05
5e-05
5e-05
5e-05
5e-05
5e-05
5e-05
5e-05
5e-05
5e-05
5e-05
5e-05
5e-05
5e-05
5e-05
5e-05
5e-05
5e-05
5e-05
5e-05
5e-05
5e-05
5e-05
5e-05
5e-05
5e-05
5e-05
5e-05
5e-05
5e-05
5e-05
5e-05
5e-05
5e-05
5e-05
5e-05
5e-05
5e-05
5e-05
5e-05
5e-05
5e-05
5e-05
5e-05
5e-05
5e-05
5e-05
5e-05
5e-05
5e-05
5e-05
5e-05
5e-05
5e-05
5e-05
5e-05
5e-05
5e-05
5e-05
5e-05
5e-05
5e-05
5e-05
5e-05
5e-05
5e-05
5e-05
5e-05
5e-05
5e-05
5e-05
5e-05
5e-05
5e-05
5e-05
5e-05
5e-05
5e-05
5e-05
5e-05
5e-05
5e-05
5e-05
5e-05
5e-05
5e-05
5e-05
5e-05
5e-05
5e-05
5e-05
5e-05
5e-05
5e-05
5e-05
5e-05
5e-05
5e-05
5e-05
5e-05
5e-05
5e-05
5e-05
5e-05
5e-05
5e-05
5e-05
5e-05
5e-05
5e-05
5e-05
5e-05
5e-05
5e-05
5e-05
5e-05
5e-05
5e-05
5e-05
5e-05
5e-05
5e-05
5e-05
5e-05
5e-05
5e-05
5e-05
5e-05
5e-05
5e-05
5e-05
5e-05
5e-05
5e-05
5e-05
5e-05
5e-05

SCALARS mass float 1
LOOKUP_TABLE default
1.46608e-10
1.46608e-10
1.46608e-10
1.46608e-10
1.46608e-10
1.46608e-10
1.46608e-10
1.46608e-10
1.46608e-10
1.46608e-10
1.46608e-10
1.46608e-10
1.46608e-10
1.46608e-10
1.46608e-10
1.46608e-10
1.46608e-10
1.46608e-10
1.46608e-10
1.46608e-10
1.46608e-10
1.46608e-10
1.46608e-10
1.46608e-10
1.46608e-10
1.46608e-10
1.46608e-10
1.46608e-10
1.46608e-10
1.46608e-10
1.46608e-10
1.46608e-10
1.46608e-10
1.46608e-10
1.46608e-10
1.46608e-10
1.46608e-10
1.46608e-10
1.46608e-10
1.46608e-10
1.46608e-10
1.46608e-10
1.46608e-10
1.46608e-10
1.46608e-10
1.46608e-10
1.46608e-10
1.46608e-10
1.46608e-10
1.46608e-10
1.46608e-10
1.46608e-10
1.46608e-10
1.46608e-10
1.46608e-10
1.46608e-10
1.46608e-10
1.46608e-10
1.46608e-10
1.46608e-10
1.46608e-10
1.46608e-10
1.46608e-10
1.46608e-10
1.46608e-10
1.46608e-10
1.46608e-10
1.46608e-10
1.46608e-10
1.46608e-10
1.46608e-10
1.46608e-10
1.46608e-10
1.46608e-10
1.46608e-10
1.46608e-10
1.46608e-10
1.46608e-10
1.46608e-10
1.46608e-10
1.46608e-10
1.46608e-10
1.46608e-10
1.46608e-10
1.46608e-10
1.46608e-10
1.46608e-10
1.46608e-10
1.46608e-10
1.46608e-10
1.46608e-10
1.46608e-10
1.46608e-10
1.46608e-10
1.46608e-10
1.46608e-10
1.46608e-10
1.46608e-10
1.46608e-10
1.46608e-10
1.46608e-10
1.46608e-10
1.46608e-10
1.46608e-10
1.46608e-10
1.46608e-10
1.46608e-10
1.46608e-10
1.46608e-10
1.46608e-10
1.46608e-10
1.46608e-10
1.46608e-10
1.46608e-10
1.46608e-10
1.46608e-10
1.46608e-10
1.46608e-10
1.46608e-10
1.46608e-10
1.46608e-10
1.46608e-10
1.46608e-10
1.46608e-10
1.46608e-10
1.46608e-10
1.46608e-10
1.46608e-10
1.46608e-10
1.46608e-10
1.46608e-10
1.46608e-10
1.46608e-10
1.46608e-10
1.46608e-10
1.46608e-10
1.46608e-10
1.46608e-10
1.46608e-10
1.46608e-10
1.46608e-10
1.46608e-10
1.46608e-10
1.46608e-10
1.46608e-10
1.46608e-10
1.46608e-10
1.46608e-10
1.46608e-10
1.46608e-10
1.46608e-10
1.46608e-10
1.46608e-10
1.46608e-10
1.46608e-10
1.46608e-10
1.46608e-10
1.46608e-10
1.46608e-10
1.46608e-10
1.46608e-10
1.46608e-10
1.46608e-10
1.46608e-10
1.46608e-10
1.46608e-10
1.46608e-10
1.46608e-10
1.46608e-10
1.46608e-10
1.46608e-10
1.46608e-10
1.46608e-10
1.46608e-10
1.46608e-10
1.46608e-10
1.46608e-10
1.46608e-10
1.46608e-10
1.46608e-10
1.46608e-10
1.46608e-10
1.46608e-10
1.46608e-10
1.46608e-10
1.46608e-10
1.46608e-10
1.46608e-10
1.46608e-10
1.46608e-10
1.46608e-10
1.46608e-10
1.46608e-10
1.46608e-10
1.46608e-10
1.46608e-10
1.46608e-10
1.46608e-10
1.46608e-10
1.46608e-10
1.46608e-10
1.46608e-10
1.46608e-10
1.46608e-10
1.46608e-10
1.46608e-10
1.46608e-10
1.46608e-10
1.46608e-10
1.46608e-10
1.46608e-10
1.46608e-10
1.46608e-10
1.46608e-10
1.46608e-10
1.46608e-10
1.46608e-10
1.46608e-10
1.46608e-10
1.46608e-10
1.46608e-10
1.46608e-10
1.46608e-10
1.46608e-10
1.46608e-10
1.46608e-10
1.46608e-10
1.46608e-10
1.46608e-10
1.46608e-10
1.46608e-10
1.46608e-10
1.46608e-10
1.46608e-10
1.46608e-10
1.46608e-10
1.46608e-10
1.46608e-10
1.46608e-10
1.46608e-10
1.46608e-10
1.46608e-10
1.46608e-10
1.46608e-10
1.46608e-10
1.46608e-10
1.46608e-10
1.46608e-10
1.46608e-10
1.46608e-10
1.46608e-10
1.46608e-10
1.46608e-10
1.46608e-10
1.46608e-10
1.46608e-10
1.46608e-10
1.46608e-10
1.46608e-10
1.46608e-10
1.46608e-10
1.46608e-10
1.46608e-10
1.46608e-10
1.46608e-10
1.46608e-10
1.46608e-10

VECTORS velocity float
0.00574348 0.000174396 -7.8921e-05
0.00609398 0.000345979 0.000479512
0.0062117 -2.05986e-06 0.000380429
0.00611042 -0.000859145 -0.000278806
0.0058931 0.000198633 -0.000497654
0.00597308 -0.000306653 -0.000287696
0.00555834 -0.000608456 -4.13316e-06
0.00593108 -0.000298046 -0.000291892
0.00583636 0.00013954 -6.88213e-05
0.00636965 6.06288e-05 -0.00012303
0.00569656 0.000369651 0.000239891
0.00620294 -7.94798e-05 -2.30106e-05
0.0056016 4.34268e-06 4.4304e-05
0.00576069 -0.000276155 -0.000317977
0.00574307 0.000364083 0.000254641
0.00624191 7.77314e-05 -5.80961e-05
0.00597782 0.000232443 0.000523157
0.00558314 7.52846e-05 4.01954e-05
0.00569513 -0.000662151 6.139e-08
0.00606118 -0.000371567 -0.000211798
0.00550404 -0.000613291 -8.3139e-06
0.00596148 -0.00026197 -0.000158045
0.00607399 -0.000296002 -0.00030759
0.00564608 0.000375724 0.000228661
0.00624162 0.000140675 0.000586262
0.0060315 0.000199201 0.000398291
0.00583139 -0.000299904 -0.000338719
0.00612794 -0.000867125 -0.000277756
0.00568192 -0.000236225 -0.000299672
0.00622213 0.000157085 0.000577109
0.00564518 -0.000578292 5.82698e-05
0.00619476 -0.000224799 -5.36661e-05
0.00626015 0.000138452 0.000583586
0.00572582 -0.000670022 2.04709e-06
0.00572955 0.00016733 -7.80728e-05
0.00576529 0.000129162 -6.64566e-05
0.0055253 -0.000725436 -0.000281734
0.000887999 -0.0171236 0.00354263
0.00621799 0.000121965 0.000585762
0.00560201 -0.000600739 6.43143e-05
0.005912 -0.000300323 -0.000334787
0.00582634 0.000445505 -0.000153836
0.00549678 -2.74575e-05 -0.000156693
0.0056286 -0.000648553 -5.9686e-08
0.00580354 0.000170354 -7.21363e-05
0.00560085 2.81207e-06 -7.77641e-05
0.00575382 0.00020273 -8.33962e-05
0.00550685 -0.000731147 -0.000312226
-5.01946e-15 -7.41211e-15 7.69802e-14
0.00579567 0.000124911 -6.352e-05
0.00622337 0.000146846 0.000577823
0.00572108 0.000173706 -7.69516e-05
0.00565998 -0.000653348 -1.836e-06
0.00609405 -0.000160058 3.99633e-05
0.00547485 -2.71094e-05 -0.000155732
0.00577176 0.00013329 -6.64731e-05
0.00619373 -0.000159099 -9.23197e-05
0.00586115 0.000172303 -7.79066e-05
0.00552588 -0.000608092 -1.59806e-05
0.00547118 -1.25579e-06 -0.000159899
0.00579695 0.000175131 -7.91745e-05
0.00585624 0.000454325 0.000415822
0.00570208 0.000368704 0.000308401
0.00597249 -0.00025236 -0.000131808
0.00572469 0.000297695 5.14412e-05
0.00553649 -0.000116926 -0.000209925
0.00561013 -1.95775e-05 4.59755e-05
0.00609134 -0.000331703 -0.000265301
0.00553194 3.76359e-05 -0.000158862
0.00546524 -6.30925e-06 -6.40659e-05
0.00561341 -0.000593553 5.82261e-05
0.00560841 -7.2298e-07 -0.000161699
0.00576142 0.000131575 -6.71027e-05
0.00603371 -0.000314896 -0.000277985
0.00576732 0.000136084 -6.53078e-05
0.00581206 0.000158433 -7.4946e-05
0.00580314 0.000140562 -6.75922e-05
0.00640251 2.36846e-06 -0.000338333
0.00586595 0.000286284 0.000159172
0.00572198 0.000215002 -8.45749e-05
0.00575802 0.000241772 -7.23332e-05
0.00565288 8.58286e-05 -5.44483e-05
0.00623642 0.000109413 0.000593146
0.00565359 0.000182813 -8.15937e-05
0.00551966 -6.09189e-05 -3.56775e-05
0.00571738 0.000151023 -9.24834e-05
0.00563208 -7.70504e-05 -1.70093e-05
4.25839e-15 1.05137e-14 8.29583e-14
3.17557e-22 7.53933e-22 -5.81428e-22
0.00557429 6.92837e-05 4.26593e-05
0.00581179 -0.000188374 -0.000178597
0.0058868 -2.90447e-05 5.92507e-05
0.00550634 -0.000112871 -0.000212023
0.00577665 0.000183021 -8.06314e-05
0.00579892 0.000419267 -0.000145022
0.00577933 0.000216912 -8.49664e-05
0.00621749 0.000132949 0.000580725
0.00587189 -0.00024033 -0.000143977
0.00608337 -0.000162184 3.96055e-05
0.00603291 -0.000145625 2.59548e-05
0.00627102 0.000135306 0.000586101
0.00622089 0.00015085 0.000573173
0.00599226 0.000234859 0.00052388
0.0061167 0.000141127 -0.000176524
0.00581263 0.000178864 -8.20285e-05
0.00614838 0.000248831 0.000524569
0.00622569 4.18009e-05 -4.76951e-05
0.00623947 0.000113089 0.000591974
0.00551793 -0.000108351 -0.00014928
0.00587006 0.000412659 0.000416791
0.0062504 0.000129474 0.000585939
0.00550451 -0.000119466 -0.000208783
0.00625918 0.000152115 0.000578465
0.00575482 0.000134665 -6.82297e-05
0.0059903 1.94006e-05 -8.54636e-05
0.00578503 5.70912e-05 -0.000111458
0.00626223 0.000134229 0.000585082
0.00571505 0.000272478 -5.46266e-06
0.00621545 0.000146655 0.000578072
0.00550807 0.000168779 -7.99813e-05
0.00605211 -0.000174348 4.64286e-05
0.00571361 0.000116051 -7.28883e-05
0.0061011 0.00029466 0.000391559
0.00613415 -0.000305742 -0.000301828
0.00590978 -0.000251178 -0.000142815
0.00561851 3.01567e-05 4.65626e-05
0.0055325 -0.000121794 -0.000206728
0.00539249 2.2601e-06 -6.75428e-05
0.00586291 -7.25355e-05 0.000102578
0.00616946 -2.65984e-05 -5.90531e-05
0.00594193 -0.000248705 -0.000145525
0.00596272 -0.000283935 -0.000319446
0.00559352 -1.04447e-05 4.49853e-05
0.00516435 2.58821e-05 -1.91862e-05
0.00594888 -0.000263139 -0.000132707
0.00551699 -0.000120285 -0.000207742
0.00590522 -0.000121423 1.07503e-05
0.00588752 -0.000244408 -0.000143562
-3.83625e-14 8.168e-14 2.9588e-13
0.00603314 -0.000249744 -0.000147426
0.00615209 -0.000341401 -0.000259821
0.00539726 -3.59443e-05 -3.11713e-05
0.00552068 -5.78247e-05 -0.000154377
0.00584928 -8.51333e-05 4.82968e-05
0.0062241 0.000106095 0.000592805
0.00558569 -3.66267e-05 -3.54324e-05
0.00548323 -7.18261e-06 -0.00016091
0.00587042 -6.10595e-05 5.77162e-05
0.0055135 -1.22486e-05 3.91154e-05
0.00576015 0.000150977 -7.12731e-05
0.00606238 -0.000160262 3.95008e-05
0.00567947 0.000180494 -7.86636e-05
0.00603156 -0.000163749 5.07636e-05
0.00576455 -0.000204611 6.20972e-05
0.0057134 -0.000167597 -0.000186613
0.00549559 9.2053e-05 0.000101203
0.00548435 2.13142e-05 -0.000161211
0.00567397 7.83844e-05 -4.74897e-05
0.00559607 1.91428e-05 3.78469e-05
0.00583475 0.000142478 -7.03532e-05
0.0056172 -5.5029e-06 -1.68832e-05
0.0056437 -5.0679e-05 -0.000152394
0.00609917 7.6493e-05 -2.51975e-05
0.00624941 2.46005e-05 0.000368488
0.00619665 0.000106608 0.000529009
0.00546973 -6.85198e-05 4.44541e-05
0.00585225 0.000357897 0.000388317
0.00609716 -0.000159045 3.63389e-05
0.005787 0.000151863 -7.21605e-05
0.00555595 -3.22278e-05 -0.000123797
0.00533393 -0.000337102 0.000169635
0.00519165 -9.85737e-05 4.32442e-06
0.00603095 -0.000160082 5.39235e-05
0.00561733 4.39408e-05 4.12821e-05
0.00558921 -1.57473e-05 4.4972e-05
0.00558395 -0.000139057 -0.000199483
0.00563332 -4.16186e-05 3.27664e-05
0.00633553 -3.5185e-05 -0.00031224
0.00621182 0.000141075 0.000577048
0.00556499 0.00013829 3.36561e-05
0.00589603 -0.000238768 -0.000150481
0.00593919 -0.000358312 -0.000314793
0.00584789 -0.000195844 -0.000174824
0.00629487 8.48845e-05 -0.000139868
0.00602017 -0.000153308 3.44612e-05
0.00613455 -0.00038715 -0.000207377
0.0060166 -0.000287606 -0.00031342
0.0055303 9.018e-05 3.71272e-05
0.00621875 0.000124594 0.000584793
0.00605821 0.0001637 0.000547743
0.00563447 -0.000100459 3.28353e-05
0.00571981 0.000154126 -7.24817e-05
0.00585284 -0.000112377 4.59418e-06
0.00598722 0.000248812 0.000510665
0.00547424 1.05872e-05 -8.70218e-05
0.00574664 0.000170215 -7.98617e-05
0.00592469 -0.000406313 -0.000412006
0.0061603 0.000313978 0.00045137
0.00563527 6.11101e-05 3.39762e-05
0.00563837 -0.000100893 4.4069e-05
0.00558393 -9.80362e-05 1.8597e-05
0.00561186 -2.46412e-05 4.85702e-05
0.00603462 -0.000176736 5.66029e-05
0.00555303 -7.0296e-06 4.60382e-05
0.005613 -5.39817e-06 6.9726e-05
0.005819 0.000172497 -7.98713e-05
0.00590507 -0.000320563 -0.000303478
0.00547526 1.28872e-05 -8.42336e-05
0.00597791 -0.000146223 2.4111e-05
0.00594636 -0.000145878 4.62503e-05
0.0060032 -0.000154999 5.12262e-05
0.00593712 -0.000142491 4.41063e-05
0.00560982 4.54418e-05 4.54485e-05
0.00528196 0.00021567 -0.000218842
0.00595936 -0.000144048 4.53433e-05
0.00609402 -0.000171286 6.13672e-05
0.0058528 -0.000199211 -0.000171624
0.00532517 3.95335e-05 -4.77424e-05
0.00605721 -0.000168948 5.97786e-05
0.00530089 -0.000107446 -0.00020449
0.00622218 0.00013769 0.000577894
0.00597299 -0.000144311 4.48011e-05
0.00562961 -9.95669e-05 4.46817e-05
0.00606726 -0.000169673 5.96563e-05
0.0054227 9.18174e-05 0.000188572
0.00553887 8.69576e-05 -0.00017114
0.00597502 -0.000246422 -0.000146084
0.00539777 4.70786e-05 0.00010669
0.00572427 -0.000119609 2.89466e-05
0.00562803 -3.81678e-05 4.03051e-05
0.00586137 9.85938e-05 -0.000123644
0.00609579 -0.000183184 3.69271e-05
0.00605485 -0.000160836 5.57252e-05
0.00573044 -4.37676e-05 -4.01594e-05
0.00563152 -9.7012e-05 4.48477e-05
0.00531593 0.000146249 -0.000162958
0.00588865 -0.000229789 -0.000160266
0.00523631 7.37195e-06 -7.46578e-05
0.00532619 0.00016331 -0.000179494
0.00614091 -0.000481565 -8.69855e-05
0.0056031 -1.47558e-05 4.60124e-05
0.00560931 -9.81653e-05 1.90841e-05
0.00590702 -0.000427847 -0.000420707
0.00558232 -9.83189e-05 1.77221e-05
0.00600817 -0.00014899 3.79352e-05
0.00587322 -0.00019068 -0.000179912
0.00587474 -0.000204716 -0.00017129
0.00592004 0.00017482 -0.00019743
0.00563361 -0.000101821 4.48256e-05
0.00578311 -0.000110147 8.42245e-05
0.00598937 -0.000145016 4.59378e-05
0.00539919 -3.44924e-05 -1.11222e-05
0.00595011 -0.000380466 -0.000352435
0.00601885 -0.000184572 1.70164e-05
0.00610281 -0.000160105 2.66222e-05
0.00571433 -0.000172807 6.56469e-05
0.00601278 -0.000197309 -1.64752e-05
0.00519422 2.31199e-05 -7.9511e-05
0.00586596 -6.41978e-05 5.28401e-05
0.00596507 -0.000229525 -0.000111496
0.00540935 5.20526e-05 -3.78514e-05
0.00562866 -0.000100741 4.45259e-05
0.00589809 -0.000245107 -0.000211207
0.00573408 0.000265415 -3.63271e-05
0.00600517 -0.000161376 5.38918e-05
0.00609307 -0.000169455 6.02415e-05
0.00623328 0.000113256 0.000592189

VECTORS force float
3.52428e-11 -1.91999e-10 -2.15853e-11
-1.31801e-11 1.11435e-10 -1.17589e-10
-8.21937e-12 -1.30021e-10 -1.64913e-10
-7.42313e-11 -8.49296e-11 5.96694e-11
-5.34665e-10 -8.81938e-11 -1.0637e-09
-1.07559e-10 1.07138e-10 -1.35308e-10
1.89348e-10 -2.68788e-11 -2.14626e-10
-5.50999e-12 2.01071e-10 -5.52638e-11
5.8627e-11 5.86837e-11 -1.14245e-11
-1.90571e-10 2.62541e-10 -1.9654e-10
-8.37312e-11 -8.90113e-11 8.39997e-11
-2.49946e-10 7.62326e-11 -6.97477e-11
-2.4742e-10 -1.917e-10 1.23465e-11
-6.04099e-11 -3.37161e-11 8.97295e-11
1.69076e-10 -8.65429e-12 1.41239e-10
-4.42791e-11 9.3379e-12 -2.71972e-10
6.56924e-10 1.0679e-10 -2.30461e-10
-3.04826e-10 2.24287e-11 -3.67528e-12
6.18623e-12 -9.92276e-11 4.02948e-11
2.06806e-10 1.46026e-12 -1.6283e-11
-2.45776e-10 3.9074e-11 -3.87269e-11
-6.92431e-11 -9.66766e-11 5.28212e-11
3.0658e-11 -2.83024e-12 -2.80085e-11
2.80737e-11 -1.5328e-11 4.67272e-11
1.05783e-10 -2.71299e-11 1.43384e-10
2.37018e-10 5.60898e-11 5.11588e-10
-1.56921e-10 1.60951e-10 7.66738e-11
1.05632e-10 5.93154e-11 -5.85324e-11
6.61243e-11 -4.23885e-10 -1.44169e-10
-6.17694e-11 7.71431e-11 -2.56982e-11
-1.42205e-10 8.4126e-11 -5.33318e-11
6.69997e-11 -1.76103e-10 -2.14995e-10
-3.64773e-10 1.35808e-10 -9.212e-11
1.69017e-10 -2.61591e-11 -9.24059e-12
-1.4822e-10 1.71794e-11 3.98337e-11
-1.18458e-10 1.03251e-10 -2.7288e-11
-1.17493e-10 1.91173e-11 -1.01917e-10
-9.2411e-11 -3.49998e-10 9.43784e-11
-3.0868e-11 -1.55664e-10 6.67491e-11
2.51099e-10 4.55763e-11 -1.14712e-10
-1.03689e-10 2.84181e-10 9.25412e-11
-1.44238e-10 7.12308e-11 -7.79261e-13
-2.58539e-10 1.05534e-10 -5.56345e-12
2.78239e-11 -6.67636e-11 -2.84627e-11
-8.85004e-11 1.99993e-11 2.69799e-11
-6.03671e-11 1.14335e-10 5.26829e-11
4.21353e-12 1.06427e-10 1.45757e-12
-2.9409e-11 3.38873e-11 -1.62549e-11
-7.14736e-24 1.91286e-24 -4.1359e-25
-1.1184e-10 6.03845e-11 -2.2435e-11
-4.18448e-10 2.1047e-10 -1.43839e-10
8.47145e-12 -6.24299e-11 2.98415e-11
-8.99313e-11 -1.09591e-10 2.04697e-11
-7.48788e-11 7.8982e-11 -8.00748e-11
3.50323e-11 -1.23073e-10 1.1138e-11
-7.61523e-11 9.46325e-11 -3.58549e-11
1.06169e-10 4.27668e-11 -1.19558e-10
1.00877e-10 2.97467e-10 -6.54361e-11
-1.13016e-10 2.60529e-11 -3.78657e-11
-5.7444e-10 2.73111e-10 -2.02336e-11
6.43913e-12 1.07569e-10 -1.86694e-11
-2.57295e-10 -3.00989e-10 1.33131e-10
-7.83146e-11 -5.59329e-11 2.06322e-10
-3.67769e-11 -3.92833e-11 6.72971e-11
7.56595e-11 -6.66033e-11 -3.29498e-10
5.97434e-11 5.56509e-11 -4.0527e-11
-5.13716e-12 -1.58574e-10 2.87933e-11
3.30873e-11 8.69317e-11 -1.1163e-10
3.85583e-11 -5.18731e-10 -3.39061e-11
-1.11436e-10 7.59629e-11 -6.13743e-11
7.13763e-11 2.66536e-12 1.0065e-10
1.58316e-10 2.81003e-11 -6.86258e-11
8.98166e-11 1.37726e-10 -1.37718e-11
9.26536e-11 4.19937e-11 -8.72486e-11
7.72691e-12 1.55194e-10 -1.02037e-12
-1.4758e-10 -1.73195e-12 3.53205e-13
-1.6332e-10 2.31771e-11 -1.30585e-11
-1.29572e-10 1.43594e-10 -1.07253e-10
2.56837e-10 -2.20426e-10 -2.30963e-10
-1.7956e-11 -1.28199e-10 8.27068e-11
1.44388e-10 2.61525e-10 1.09232e-10
2.61647e-10 -3.7956e-10 1.99332e-10
1.2795e-11 5.64023e-11 -3.78573e-11
7.1448e-11 -3.7593e-10 1.00741e-10
-1.07252e-10 6.09082e-11 1.0946e-10
-1.0534e-10 -2.11942e-11 -5.90485e-11
8.02677e-11 7.3427e-11 -5.00576e-11
1.07545e-21 -7.01759e-22 3.55688e-23
0.0 0.0 0.0
-2.68234e-10 -1.36965e-10 5.77624e-11
-8.60641e-11 6.73124e-12 -1.40807e-11
2.83722e-12 -3.39653e-10 7.02532e-11
1.24395e-11 6.02461e-11 -2.99726e-11
1.54059e-10 8.52353e-11 -5.09664e-11
-7.91517e-11 2.8362e-10 -1.03558e-10
1.34638e-10 -1.27017e-11 4.00836e-11
-3.85739e-11 -1.4252e-10 1.02204e-10
7.59359e-11 -6.42141e-11 2.97936e-11
2.61682e-11 7.64677e-11 -8.4584e-11
1.52889e-10 4.04107e-11 -1.05339e-10
-7.34078e-11 4.70391e-11 -4.48859e-11
-2.48907e-11 2.88339e-11 -7.10483e-11
2.91822e-10 4.99185e-11 6.06496e-11
6.35648e-11 -1.62951e-10 1.18578e-10
-1.39358e-10 -2.40075e-11 -1.01539e-11
7.48091e-11 -5.96269e-10 2.66652e-10
5.28996e-12 1.33329e-10 1.60559e-10
-3.37916e-11 -8.89413e-12 -5.46864e-11
1.21927e-10 2.46481e-10 -2.8442e-11
3.93367e-10 6.66752e-11 1.38835e-10
4.63113e-11 5.19109e-11 -3.94775e-11
2.85137e-11 4.23724e-11 -1.94058e-11
-3.59347e-10 3.78389e-10 -1.93861e-10
2.4576e-11 5.29978e-11 -4.61261e-12
3.85843e-10 7.20033e-11 -7.20418e-11
-1.14182e-14 1.90968e-10 -1.47571e-10
-1.82323e-11 -1.38322e-11 -4.00743e-11
2.06045e-10 -1.22449e-10 -4.33836e-10