# vtk DataFile Version 3.0
LIGGGHTS particles timestep 10400000
ASCII
DATASET POLYDATA
POINTS 287 float
0.0734195 0.016155 0.00808101
0.0739443 0.0171413 0.00726172
0.0672952 0.0160402 0.00811915
0.0737253 0.0174205 0.00722885
0.0732802 0.0160022 0.00820521
0.0794585 0.0166718 0.0076041
0.0734559 0.0166837 0.00764231
0.0731781 0.0156112 0.00849973
0.079727 0.0177975 0.00701432
0.0733975 0.0164573 0.00783027
0.073879 0.0172928 0.00722569
0.0674723 0.0167603 0.00760878
0.0732602 0.0159239 0.00826412
0.0672153 0.0157197 0.00834483
0.0736156 0.0169094 0.00745471
0.0671953 0.0156394 0.00840097
0.0733779 0.0163813 0.00789334
0.0795995 0.017267 0.00726392
0.0732398 0.0158457 0.00832303
0.0734001 0.0160789 0.00814296
0.0734948 0.0168347 0.00751693
0.0676085 0.0169446 0.00747557
0.0796632 0.0175317 0.00713796
0.0734364 0.0166082 0.00770497
0.0795371 0.0170117 0.00740845
0.067603 0.0172463 0.00736818
0.0737048 0.0173227 0.00722652
0.0732192 0.0157675 0.00838193
0.0736634 0.0171368 0.00726601
0.0734754 0.0167592 0.00757958
0.073596 0.016834 0.00751734
0.0794782 0.0167567 0.00755519
0.0733584 0.0163058 0.00795599
0.0735758 0.0167586 0.00757989
0.079768 0.0179825 0.00699652
0.0735367 0.0166077 0.00770517
0.0737124 0.0169376 0.00743125
0.0796845 0.0176203 0.00709675
0.0733195 0.0161547 0.00808148
0.073515 0.0169101 0.00745436
0.0737265 0.0170137 0.00736798
0.0794978 0.0168417 0.00750628
0.0795784 0.0171813 0.00731084
0.073339 0.0162303 0.00801864
0.073557 0.0170823 0.00737934
0.0795576 0.0170965 0.00735963
0.0736068 0.0172876 0.00722505
0.0735863 0.0171896 0.00722239
0.0674522 0.0166804 0.00766543
0.0796206 0.0173546 0.00722038
0.0733805 0.0160008 0.00820222
0.0672554 0.0158803 0.00823249
0.0735559 0.0166832 0.00764248
0.0795175 0.0169267 0.00745736
0.0736346 0.0166357 0.0076818
0.0736545 0.0167111 0.0076192
0.0733001 0.016079 0.00814431
0.0737513 0.0170882 0.00730609
0.0736265 0.0172305 0.00730475
0.0796419 0.0174431 0.00717917
0.0676934 0.0175264 0.00718683
0.0676912 0.0171868 0.00740328
0.0738578 0.0171942 0.00722301
0.0737838 0.0172614 0.00722467
0.0734779 0.0163814 0.00789306
0.0797062 0.0177088 0.00705561
0.0672354 0.0158 0.00828869
0.0737631 0.0171654 0.00724353
0.0734169 0.0165327 0.00776762
0.0736337 0.0169851 0.00739192
0.0677559 0.0175199 0.00710904
0.0738498 0.0180072 0.00724477
0.0673147 0.0161202 0.00806243
0.0675547 0.0170027 0.00753658
0.0736702 0.0175832 0.00723309
0.0675099 0.0169289 0.0075951
0.0675337 0.017 0.00743885
0.0676426 0.0167296 0.0076255
0.0797487 0.0178868 0.00697491
0.067429 0.0162252 0.00798553
0.0736846 0.0172248 0.00722359
0.0736154 0.0165602 0.00774448
0.0737335 0.0178785 0.00724111
0.0736912 0.017681 0.00723574
0.0739223 0.0170662 0.00732403
0.0674928 0.0168402 0.00755217
0.0738252 0.0174569 0.00722999
0.073808 0.0178117 0.00723946
0.073887 0.0177504 0.00723796
0.0736492 0.0174854 0.00723043
0.0738461 0.0175547 0.00723264
0.0674127 0.0165202 0.00777894
0.0737545 0.0179763 0.00724377
0.0676981 0.0172703 0.00734878
0.0738061 0.0169644 0.00740872
0.0675139 0.0168431 0.00764986
0.0643568 0.0187248 0.00531097
0.24257 0.0191927 0.00520306
0.0677674 0.0172083 0.00728605
0.0673735 0.0163602 0.00789233
0.0678447 0.0171553 0.00732107
0.0673342 0.0162002 0.00800572
0.0735169 0.0165323 0.00776778
0.0735669 0.0171141 0.00728502
0.073941 0.0175863 0.00723366
0.0737964 0.0181719 0.00724908
0.0674324 0.0166004 0.00772211
0.0681204 0.0175507 0.00712292
0.0678387 0.0173772 0.00726854
0.0736405 0.0170619 0.00732826
0.0734975 0.0164568 0.00783043
0.0733602 0.0159212 0.00825923
0.0672755 0.0159602 0.00817585
0.0736747 0.0167864 0.00755665
0.0731987 0.0156894 0.00844083
0.0731575 0.0155331 0.00855863
0.0739618 0.0176841 0.00723632
0.0674682 0.0163852 0.00787213
0.0737672 0.017616 0.00723414
0.0733397 0.015843 0.00831813
0.0735337 0.0169857 0.00739163
0.0673931 0.0164402 0.00783563
0.073628 0.0173867 0.00722863
0.0737126 0.0177807 0.00723845
0.067629 0.0170245 0.00741896
0.0677937 0.0173048 0.00732812
0.0737462 0.0175182 0.00723149
0.0735378 0.0162582 0.00799512
0.0736943 0.0168619 0.00749403
0.0733191 0.0157649 0.00837703
0.0674094 0.0161452 0.00804223
0.0738174 0.0182696 0.00725174
0.0734591 0.0163058 0.00795579
0.0739079 0.0178482 0.00724061
0.0674486 0.0163052 0.00792883
0.0677242 0.017049 0.00739903
0.0673538 0.0162802 0.00794902
0.0678581 0.0174652 0.00720793
0.0677386 0.0167551 0.00760492
0.0673899 0.0160652 0.00809893
0.0675951 0.01724 0.00726868
0.0738707 0.0181049 0.00724742
0.0675473 0.0167051 0.00764542
0.0679455 0.0171828 0.00729894
0.0675075 0.0165452 0.00775875
0.0676912 0.0172639 0.00724923
0.067777 0.0176176 0.00710857
0.0676694 0.0171843 0.0073057
0.0219312 0.0187687 0.00551176
0.06779 0.0172878 0.00722966
0.0738043 0.0173592 0.00722733
0.0676782 0.0175828 0.00710567
0.0677152 0.017343 0.007193
0.0679359 0.0179423 0.00711047
0.0680037 0.0174227 0.00712888
0.0734981 0.0161036 0.00811556
0.0675273 0.0166251 0.00770208
0.0678673 0.0172348 0.00726464
0.0680673 0.0177155 0.00711865
0.0679039 0.0173967 0.00714997
0.0735177 0.0161822 0.0080569
0.0679812 0.0173433 0.00718528
0.073959 0.0172328 0.00722423
0.0678298 0.0174527 0.00711284
0.0616357 0.0173898 0.0071455
0.0676494 0.0171043 0.00736235
0.0677204 0.0177783 0.00710421
0.068099 0.0174525 0.00712339
0.0680463 0.0176177 0.00711912
0.0676384 0.0174088 0.00717239
0.073439 0.0162305 0.00801839
0.067888 0.0173149 0.00720786
0.0737839 0.0174125 0.00730947
0.0675746 0.0171597 0.00732562
0.0676156 0.0173199 0.00721207
0.0737897 0.0168885 0.00747173
0.0738289 0.0179094 0.00724211
0.0738286 0.0170394 0.00734649
0.0617547 0.0175225 0.00714694
0.0738384 0.0183674 0.00725439
0.0678003 0.0169949 0.00743486
0.0735956 0.0164847 0.0078071
0.0676629 0.0168095 0.00756888
0.0680253 0.0175199 0.00711961
0.0671752 0.0155592 0.00845712
0.0616978 0.0176831 0.00715745
0.067551 0.0170887 0.00748179
0.0677366 0.0174315 0.00715162
0.0675132 0.01692 0.00749555
0.068035 0.0179777 0.00711388
0.0678225 0.0170757 0.00737758
0.0738448 0.0171155 0.00728332
0.0675881 0.0168648 0.00753218
0.0678937 0.0177467 0.00711142
0.067851 0.0175505 0.00711237
0.0674878 0.0164652 0.00781544
0.0678105 0.0173676 0.00717307
0.0675677 0.0167849 0.0075888
0.0735413 0.0170459 0.00747111
0.073866 0.0176527 0.0072353
0.0679286 0.0174876 0.00711625
0.0737715 0.0168129 0.00753453
0.073787 0.017714 0.0072368
0.0617114 0.0173345 0.00718035
0.0676993 0.0176805 0.00710471
0.0735566 0.0163338 0.00793238
0.067819 0.0178131 0.00710761
0.0737755 0.0180741 0.00724643
0.0676564 0.0174811 0.00710566
0.0616492 0.0170978 0.00735386
0.0735762 0.0164093 0.00786975
0.0677454 0.0171288 0.00734249
0.0675541 0.0170799 0.00738223
0.074016 0.0175189 0.00723199
0.067966 0.0172626 0.00724234
0.061807 0.0173595 0.0071643
0.0616564 0.0174876 0.00714877
0.0677047 0.0174306 0.00724636
0.067978 0.0181378 0.00710951
0.0616148 0.0173073 0.00719798
0.0676224 0.0166497 0.00768214
0.0677038 0.0169692 0.00745565
0.0739449 0.0180379 0.00724576
0.0680201 0.0183334 0.00710856
0.067999 0.0182356 0.00710903
0.0680941 0.0182663 0.00711235
0.0614329 0.0166101 0.00773226
0.0614926 0.0168354 0.00754394
0.0614135 0.0165389 0.00779975
0.0676834 0.0168893 0.00751227
0.0675959 0.0171629 0.00742325
0.0614524 0.0166824 0.00766601
0.0615754 0.0171588 0.0073252
0.0679148 0.0178446 0.00711095
0.0680883 0.0178132 0.00711817
0.0617185 0.0177808 0.00716178
0.067798 0.0177154 0.00710809
0.0739209 0.0174883 0.007231
0.0617597 0.0179763 0.00717046
0.0616904 0.0172556 0.00723815
0.061554 0.0170722 0.00737032
0.0673703 0.0159851 0.00815566
0.0678722 0.0176484 0.00711189
0.0677835 0.0180715 0.00710277
0.0678401 0.0179109 0.00710713
0.0617804 0.018074 0.00717479
0.0679581 0.0174625 0.00720848
0.0679454 0.0183997 0.00710474
0.0680731 0.0181685 0.00711283
0.0615343 0.0169932 0.0074283
0.0678045 0.0181693 0.00710229
0.0616771 0.0175853 0.00715311
0.0679229 0.0171033 0.00735533
0.0678822 0.0181064 0.00710618
0.0676148 0.0173306 0.00731148
0.0677625 0.0179738 0.00710325
0.0739 0.0173905 0.00722834
0.0679497 0.0175853 0.00711577
0.0618217 0.0182695 0.00718347
0.0678677 0.0184626 0.00710086
0.061801 0.0181718 0.00717913
0.0678611 0.0180086 0.00710665
0.0677414 0.017876 0.00710373
0.0678887 0.0185603 0.00710038
0.0679928 0.0177821 0.00711484
0.0615946 0.0172283 0.00725588
0.061734 0.0174247 0.00714366
0.0679009 0.0170238 0.00741178
0.0616701 0.0171766 0.00729605
0.0614722 0.0167564 0.00760181
0.0679243 0.0183019 0.00710522
0.0679032 0.0182042 0.0071057
0.0678256 0.0182671 0.00710182
0.0679569 0.0180401 0.00710999
0.0678466 0.0183648 0.00710134
0.0677591 0.0168349 0.00754831
0.0677797 0.0169149 0.00749161
0.0680139 0.0178799 0.00711436
0.0676023 0.0165698 0.0077388
0.0679715 0.017684 0.00711531
0.0679098 0.0186581 0.0070999
0.0618138 0.0178111 0.00715982
0.0679664 0.0184975 0.00710426
0.0737519 0.0167374 0.00759717
0.0615131 0.0169143 0.00748606
0.0617391 0.0178786 0.00716612
0.0738227 0.0172277 0.00731042

VERTICES 287 574
1 0
1 1
1 2
1 3
1 4
1 5
1 6
1 7
1 8
1 9
1 10
1 11
1 12
1 13
1 14
1 15
1 16
1 17
1 18
1 19
1 20
1 21
1 22
1 23
1 24
1 25
1 26
1 27
1 28
1 29
1 30
1 31
1 32
1 33
1 34
1 35
1 36
1 37
1 38
1 39
1 40
1 41
1 42
1 43
1 44
1 45
1 46
1 47
1 48
1 49
1 50
1 51
1 52
1 53
1 54
1 55
1 56
1 57
1 58
1 59
1 60
1 61
1 62
1 63
1 64
1 65
1 66
1 67
1 68
1 69
1 70
1 71
1 72
1 73
1 74
1 75
1 76
1 77
1 78
1 79
1 80
1 81
1 82
1 83
1 84
1 85
1 86
1 87
1 88
1 89
1 90
1 91
1 92
1 93
1 94
1 95
1 96
1 97
1 98
1 99
1 100
1 101
1 102
1 103
1 104
1 105
1 106
1 107
1 108
1 109
1 110
1 111
1 112
1 113
1 114
1 115
1 116
1 117
1 118
1 119
1 120
1 121
1 122
1 123
1 124
1 125
1 126
1 127
1 128
1 129
1 130
1 131
1 132
1 133
1 134
1 135
1 136
1 137
1 138
1 139
1 140
1 141
1 142
1 143
1 144
1 145
1 146
1 147
1 148
1 149
1 150
1 151
1 152
1 153
1 154
1 155
1 156
1 157
1 158
1 159
1 160
1 161
1 162
1 163
1 164
1 165
1 166
1 167
1 168
1 169
1 170
1 171
1 172
1 173
1 174
1 175
1 176
1 177
1 178
1 179
1 180
1 181
1 182
1 183
1 184
1 185
1 186
1 187
1 188
1 189
1 190
1 191
1 192
1 193
1 194
1 195
1 196
1 197
1 198
1 199
1 200
1 201
1 202
1 203
1 204
1 205
1 206
1 207
1 208
1 209
1 210
1 211
1 212
1 213
1 214
1 215
1 216
1 217
1 218
1 219
1 220
1 221
1 222
1 223
1 224
1 225
1 226
1 227
1 228
1 229
1 230
1 231
1 232
1 233
1 234
1 235
1 236
1 237
1 238
1 239
1 240
1 241
1 242
1 243
1 244
1 245
1 246
1 247
1 248
1 249
1 250
1 251
1 252
1 253
1 254
1 255
1 256
1 257
1 258
1 259
1 260
1 261
1 262
1 263
1 264
1 265
1 266
1 267
1 268
1 269
1 270
1 271
1 272
1 273
1 274
1 275
1 276
1 277
1 278
1 279
1 280
1 281
1 282
1 283
1 284
1 285
1 286

POINT_DATA 287
SCALARS id int 1
LOOKUP_TABLE default
1
2
3
4
5
6
7
8
9
10
11
12
13
14
15
16
17
18
19
21
22
23
24
25
26
27
28
29
30
31
32
33
34
35
36
37
38
39
41
42
44
45
46
47
48
49
50
51
52
53
54
55
56
57
59
60
61
62
63
64
65
66
67
68
69
70
71
72
73
74
76
77
78
79
80
81
82
83
84
85
86
87
88
89
90
91
92
93
94
95
96
97
98
99
100
101
102
103
104
105
106
107
108
109
110
111
112
113
114
115
116
117
118
119
120
121
122
123
124
125
126
127
128
129
130
131
132
133
134
135
136
137
138
140
141
142
143
144
146
147
148
149
150
151
153
154
155
156
157
158
159
160
162
164
165
166
167
168
169
170
171
172
173
174
175
176
177
178
179
181
182
183
184
185
186
187
188
189
190
191
192
193
194
195
196
197
198
199
200
201
202
203
204
205
206
207
208
209
210
211
212
213
214
215
216
217
218
219
220
221
222
223
224
225
226
227
228
229
230
231
232
233
234
235
236
237
239
240
241
242
243
244
246
247
248
249
250
251
252
253
254
255
256
257
258
259
260
261
262
263
264
265
266
267
268
269
270
271
272
273
274
275
276
277
278
279
280
281
282
283
284
285
286
287
288
289
290
291
292
293
294
295
296
297
298
299
300

SCALARS type int 1
LOOKUP_TABLE default
1
1
1
1
1
1
1
1
1
1
1
1
1
1
1
1
1
1
1
1
1
1
1
1
1
1
1
1
1
1
1
1
1
1
1
1
1
1
1
1
1
1
1
1
1
1
1
1
1
1
1
1
1
1
1
1
1
1
1
1
1
1
1
1
1
1
1
1
1
1
1
1
1
1
1
1
1
1
1
1
1
1
1
1
1
1
1
1
1
1
1
1
1
1
1
1
1
1
1
1
1
1
1
1
1
1
1
1
1
1
1
1
1
1
1
1
1
1
1
1
1
1
1
1
1
1
1
1
1
1
1
1
1
1
1
1
1
1
1
1
1
1
1
1
1
1
1
1
1
1
1
1
1
1
1
1
1
1
1
1
1
1
1
1
1
1
1
1
1
1
1
1
1
1
1
1
1
1
1
1
1
1
1
1
1
1
1
1
1
1
1
1
1
1
1
1
1
1
1
1
1
1
1
1
1
1
1
1
1
1
1
1
1
1
1
1
1
1
1
1
1
1
1
1
1
1
1
1
1
1
1
1
1
1
1
1
1
1
1
1
1
1
1
1
1
1
1
1
1
1
1
1
1
1
1
1
1
1
1
1
1
1
1
1
1
1
1
1
1
1
1
1
1
1
1
1
1
1
1
1
1
1
1
1
1
1
1

SCALARS radius float 1
LOOKUP_TABLE default
5e-05
5e-05
5e-05
5e-05
5e-05
5e-05
5e-05
5e-05
5e-05
5e-05
5e-05
5e-05
5e-05
5e-05
5e-05
5e-05
5e-05
5e-05
5e-05
5e-05
5e-05
5e-05
5e-05
5e-05
5e-05
5e-05
5e-05
5e-05
5e-05
5e-05
5e-05
5e-05
5e-05
5e-05
5e-05
5e-05
5e-05
5e-05
5e-05
5e-05
5e-05
5e-05
5e-05
5e-05
5e-05
5e-05
5e-05
5e-05
5e-05
5e-05
5e-05
5e-05
5e-05
5e-05
5e-05
5e-05
5e-05
5e-05
5e-05
5e-05
5e-05
5e-05
5e-05
5e-05
5e-05
5e-05
5e-05
5e-05
5e-05
5e-05
5e-05
5e-05
5e-05
5e-05
5e-05
5e-05
5e-05
5e-05
5e-05
5e-05
5e-05
5e-05
5e-05
5e-05
5e-05
5e-05
5e-05
5e-05
5e-05
5e-05
5e-05
5e-05
5e-05
5e-05
5e-05
5e-05
5e-05
5e-05
5e-05
5e-05
5e-05
5e-05
5e-05
5e-05
5e-05
5e-05
5e-05
5e-05
5e-05
5e-05
5e-05
5e-05
5e-05
5e-05
5e-05
5e-05
5e-05
5e-05
5e-05
5e-05
5e-05
5e-05
5e-05
5e-05
5e-05
5e-05
5e-05
5e-05
5e-05
5e-05
5e-05
5e-05
5e-05
5e-05
5e-05
5e-05
5e-05
5e-05
5e-05
5e-05
5e-05
5e-05
5e-05
5e-05
5e-05
5e-05
5e-05
5e-05
5e-05
5e-05
5e-05
5e-05
5e-05
5e-05
5e-05
5e-05
5e-05
5e-05
5e-05
5e-05
5e-05
5e-05
5e-05
5e-05
5e-05
5e-05
5e-05
5e-05
5e-05
5e-05
5e-05
5e-05
5e-05
5e-05
5e-05
5e-05
5e-05
5e-05
5e-05
5e-05
5e-05
5e-05
5e-05
5e-05
5e-05
5e-05
5e-05
5e-05
5e-05
5e-05
5e-05
5e-05
5e-05
5e-05
5e-05
5e-05
5e-05
5e-05
5e-05
5e-05
5e-05
5e-05
5e-05
5e-05
5e-05
5e-05
5e-05
5e-05
5e-05
5e-05
5e-05
5e-05
5e-05
5e-05
5e-05
5e-05
5e-05
5e-05
5e-05
5e-05
5e-05
5e-05
5e-05
5e-05
5e-05
5e-05
5e-05
5e-05
5e-05
5e-05
5e-05
5e-05
5e-05
5e-05
5e-05
5e-05
5e-05
5e-05
5e-05
5e-05
5e-05
5e-05
5e-05
5e-05
5e-05
5e-05
5e-05
5e-05
5e-05
5e-05
5e-05
5e-05
5e-05
5e-05
5e-05
5e-05
5e-05
5e-05
5e-05
5e-05
5e-05
5e-05
5e-05
5e-05
5e-05
5e-05
5e-05
5e-05
5e-05
5e-05
5e-05
5e-05
5e-05
5e-05
5e-05
5e-05
5e-05
5e-05
5e-05
5e-05
5e-05
5e-05
5e-05
5e-05
5e-05
5e-05
5e-05

SCALARS mass float 1
LOOKUP_TABLE default
1.46608e-10
1.46608e-10
1.46608e-10
1.46608e-10
1.46608e-10
1.46608e-10
1.46608e-10
1.46608e-10
1.46608e-10
1.46608e-10
1.46608e-10
1.46608e-10
1.46608e-10
1.46608e-10
1.46608e-10
1.46608e-10
1.46608e-10
1.46608e-10
1.46608e-10
1.46608e-10
1.46608e-10
1.46608e-10
1.46608e-10
1.46608e-10
1.46608e-10
1.46608e-10
1.46608e-10
1.46608e-10
1.46608e-10
1.46608e-10
1.46608e-10
1.46608e-10
1.46608e-10
1.46608e-10
1.46608e-10
1.46608e-10
1.46608e-10
1.46608e-10
1.46608e-10
1.46608e-10
1.46608e-10
1.46608e-10
1.46608e-10
1.46608e-10
1.46608e-10
1.46608e-10
1.46608e-10
1.46608e-10
1.46608e-10
1.46608e-10
1.46608e-10
1.46608e-10
1.46608e-10
1.46608e-10
1.46608e-10
1.46608e-10
1.46608e-10
1.46608e-10
1.46608e-10
1.46608e-10
1.46608e-10
1.46608e-10
1.46608e-10
1.46608e-10
1.46608e-10
1.46608e-10
1.46608e-10
1.46608e-10
1.46608e-10
1.46608e-10
1.46608e-10
1.46608e-10
1.46608e-10
1.46608e-10
1.46608e-10
1.46608e-10
1.46608e-10
1.46608e-10
1.46608e-10
1.46608e-10
1.46608e-10
1.46608e-10
1.46608e-10
1.46608e-10
1.46608e-10
1.46608e-10
1.46608e-10
1.46608e-10
1.46608e-10
1.46608e-10
1.46608e-10
1.46608e-10
1.46608e-10
1.46608e-10
1.46608e-10
1.46608e-10
1.46608e-10
1.46608e-10
1.46608e-10
1.46608e-10
1.46608e-10
1.46608e-10
1.46608e-10
1.46608e-10
1.46608e-10
1.46608e-10
1.46608e-10
1.46608e-10
1.46608e-10
1.46608e-10
1.46608e-10
1.46608e-10
1.46608e-10
1.46608e-10
1.46608e-10
1.46608e-10
1.46608e-10
1.46608e-10
1.46608e-10
1.46608e-10
1.46608e-10
1.46608e-10
1.46608e-10
1.46608e-10
1.46608e-10
1.46608e-10
1.46608e-10
1.46608e-10
1.46608e-10
1.46608e-10
1.46608e-10
1.46608e-10
1.46608e-10
1.46608e-10
1.46608e-10
1.46608e-10
1.46608e-10
1.46608e-10
1.46608e-10
1.46608e-10
1.46608e-10
1.46608e-10
1.46608e-10
1.46608e-10
1.46608e-10
1.46608e-10
1.46608e-10
1.46608e-10
1.46608e-10
1.46608e-10
1.46608e-10
1.46608e-10
1.46608e-10
1.46608e-10
1.46608e-10
1.46608e-10
1.46608e-10
1.46608e-10
1.46608e-10
1.46608e-10
1.46608e-10
1.46608e-10
1.46608e-10
1.46608e-10
1.46608e-10
1.46608e-10
1.46608e-10
1.46608e-10
1.46608e-10
1.46608e-10
1.46608e-10
1.46608e-10
1.46608e-10
1.46608e-10
1.46608e-10
1.46608e-10
1.46608e-10
1.46608e-10
1.46608e-10
1.46608e-10
1.46608e-10
1.46608e-10
1.46608e-10
1.46608e-10
1.46608e-10
1.46608e-10
1.46608e-10
1.46608e-10
1.46608e-10
1.46608e-10
1.46608e-10
1.46608e-10
1.46608e-10
1.46608e-10
1.46608e-10
1.46608e-10
1.46608e-10
1.46608e-10
1.46608e-10
1.46608e-10
1.46608e-10
1.46608e-10
1.46608e-10
1.46608e-10
1.46608e-10
1.46608e-10
1.46608e-10
1.46608e-10
1.46608e-10
1.46608e-10
1.46608e-10
1.46608e-10
1.46608e-10
1.46608e-10
1.46608e-10
1.46608e-10
1.46608e-10
1.46608e-10
1.46608e-10
1.46608e-10
1.46608e-10
1.46608e-10
1.46608e-10
1.46608e-10
1.46608e-10
1.46608e-10
1.46608e-10
1.46608e-10
1.46608e-10
1.46608e-10
1.46608e-10
1.46608e-10
1.46608e-10
1.46608e-10
1.46608e-10
1.46608e-10
1.46608e-10
1.46608e-10
1.46608e-10
1.46608e-10
1.46608e-10
1.46608e-10
1.46608e-10
1.46608e-10
1.46608e-10
1.46608e-10
1.46608e-10
1.46608e-10
1.46608e-10
1.46608e-10
1.46608e-10
1.46608e-10
1.46608e-10
1.46608e-10
1.46608e-10
1.46608e-10
1.46608e-10
1.46608e-10
1.46608e-10
1.46608e-10
1.46608e-10
1.46608e-10
1.46608e-10
1.46608e-10
1.46608e-10
1.46608e-10
1.46608e-10
1.46608e-10
1.46608e-10
1.46608e-10
1.46608e-10
1.46608e-10
1.46608e-10
1.46608e-10
1.46608e-10
1.46608e-10
1.46608e-10
1.46608e-10
1.46608e-10
1.46608e-10
1.46608e-10
1.46608e-10
1.46608e-10
1.46608e-10
1.46608e-10
1.46608e-10
1.46608e-10

VECTORS velocity float
0.00535693 0.000129442 -0.000137237
0.0059238 -5.24632e-05 4.80638e-05
0.0053554 -0.000405583 0.000132654
0.00618957 -5.90405e-06 1.07196e-05
0.00565423 -1.82915e-05 -0.00036987
0.00558314 5.3405e-06 1.3161e-05
0.00557507 0.000155629 -0.00014072
0.0057874 -0.000114617 -0.000313938
0.00630796 2.87217e-05 0.000396097
0.00553662 0.000180323 -0.000159862
0.00625652 -3.13367e-05 1.26801e-05
0.00579893 -0.000479166 0.000172215
0.00525272 -0.000106213 -0.000265438
0.00549097 -0.000403102 0.000167105
0.00558235 0.000106621 -9.82018e-05
0.00549581 -0.000397074 0.000162977
0.0055127 0.000141522 -0.000128569
0.0061053 -8.39456e-05 7.80901e-05
0.0057852 -6.06335e-05 -0.000352853
0.0054536 4.41093e-05 -0.000211669
0.00560112 0.000105686 -9.83443e-05
0.00590122 -0.000544145 0.000214048
0.00622022 4.07897e-05 0.000380078
0.00556305 0.000168442 -0.000150678
0.00557781 6.71859e-06 1.26309e-05
0.00605171 -0.000529963 0.000225836
0.00620842 -7.16957e-06 1.71535e-05
0.00578453 -7.28348e-05 -0.000343123
0.00602122 2.63868e-05 -3.30153e-05
0.00558034 0.000106323 -9.94428e-05
0.00556911 0.000116039 -0.000106901
0.00558172 5.66586e-06 1.29575e-05
0.00547601 0.000134049 -0.00012187
0.0055757 0.000123566 -0.000113083
0.00622757 -0.000425621 -0.000661209
0.00555081 0.000142871 -0.000129317
0.00558431 8.82176e-05 -8.07279e-05
0.00625764 3.9994e-05 0.000386223
0.00538389 5.03876e-05 -4.65139e-05
0.00562152 0.000102239 -9.49833e-05
0.00563379 6.96012e-05 -6.84142e-05
0.00558045 6.20928e-06 1.25879e-05
0.0060998 -8.74721e-05 6.673e-05
0.00546408 0.000124681 -0.000114244
0.00579775 -5.83457e-05 7.1678e-06
0.00583592 -3.99514e-05 3.94615e-05
0.00621719 3.0795e-05 9.54727e-06
0.005646 -1.79505e-05 9.31077e-06
0.00557956 -0.000436258 0.000147952
0.00618066 4.73095e-05 0.000376296
0.00562366 -5.68046e-05 -0.00030698
0.00550668 -0.000423932 0.000146217
0.00557024 0.000136136 -0.000123383
0.00557884 6.62848e-06 1.24554e-05
0.00555842 0.000125442 -0.000115579
0.0055726 0.000113381 -0.000105028
0.00543965 0.000172308 -0.00016059
0.00568531 5.97745e-05 -6.04555e-05
0.00616547 3.13124e-05 2.20613e-06
0.00620195 4.15945e-05 0.000378869
0.00612749 -0.000603558 0.000240196
0.00604814 -0.000561629 0.000225821
0.00608756 -0.000141787 4.40765e-06
0.00620632 -8.73919e-06 1.42851e-05
0.00551807 0.000145705 -0.000134919
0.00627955 3.25643e-05 0.000392863
0.00549997 -0.000406576 0.000167263
0.0060559 1.59457e-05 -3.8363e-05
0.00554801 0.000177531 -0.000158239
0.00561596 9.49487e-05 -9.06473e-05
0.006122 -0.000578745 0.0002478
0.00593977 5.68481e-05 1.24355e-05
0.00535251 -0.000430126 0.000150102
0.00591431 -0.00053384 0.000208258
0.00611289 -2.42668e-05 9.70996e-06
0.00587507 -0.000513203 0.000189047
0.00592479 -0.000526686 0.000202223
0.00571234 -0.000546769 0.000222125
0.00623074 -0.000423824 -0.000667149
0.0054034 -0.000442654 0.000157551
0.00618636 -1.7216e-07 7.2149e-06
0.00554103 0.000135945 -0.000123458
0.00599538 -1.42566e-05 1.05245e-05
0.00606739 -4.76142e-05 7.66094e-06
0.00571123 -3.91621e-05 2.06171e-05
0.00583906 -0.000493494 0.000180095
0.00618858 8.03325e-07 8.37683e-06
0.00601845 1.01075e-05 1.14716e-05
0.00605371 4.38271e-05 1.2056e-05
0.00616278 2.02151e-05 1.0481e-05
0.00612926 9.58585e-06 1.10647e-05
0.00540381 -0.000455037 0.0001663
0.00595631 -1.22521e-05 1.14762e-05
0.00605288 -0.000561374 0.000221042
0.00558869 6.37174e-05 -6.27805e-05
0.00580702 -0.00049267 0.000185815
4.41021e-15 1.04678e-14 8.29565e-14
-1.23235e-22 4.01299e-22 -5.81428e-22
0.00605709 -0.000579175 0.000237962
0.00540147 -0.000444908 0.000159182
0.00615187 -0.000509841 0.000183539
0.00536128 -0.000434864 0.000153374
0.00553299 0.000146609 -0.000131768
0.0056399 -1.91063e-05 4.82047e-06
0.00610183 4.27774e-05 1.23353e-05
0.00591254 7.92701e-05 1.2325e-05
0.0054297 -0.000411943 0.000135267
0.00614446 -0.000538386 0.000245389
0.00624857 -0.000342877 0.000136623
0.00575913 8.08289e-05 -7.5959e-05
0.00553582 0.000146422 -0.000131493
0.00575967 -9.2033e-05 -0.000333653
0.00543055 -0.000422828 0.000130057
0.00557277 9.71998e-05 -9.12389e-05
0.00578929 -9.09366e-05 -0.000330094
0.00578471 -0.000135218 -0.000297528
0.00606941 4.98962e-05 1.22925e-05
0.00540736 -0.000448072 0.000161242
0.00610202 -1.61727e-05 1.07695e-05
0.00578326 -8.07188e-05 -0.000337196
0.00562655 0.000101159 -9.52813e-05
0.00540274 -0.000449593 0.00016247
0.00617849 -2.3297e-05 5.65739e-05
0.00603007 -2.83671e-05 1.12437e-05
0.00593823 -0.000549532 0.000217781
0.00603971 -0.000597466 0.000218328
0.00615035 -1.10628e-05 9.58474e-06
0.00548207 0.000129187 -0.00011522
0.00556432 9.60627e-05 -8.69076e-05
0.00577406 -6.14206e-05 -0.000351912
0.0053848 -0.000436647 0.00015422
0.00588004 0.000105431 1.31166e-05
0.00547568 0.000133302 -0.000140468
0.00600454 6.34535e-05 1.26187e-05
0.00541036 -0.000445595 0.000159406
0.00596131 -0.000586044 0.000243179
0.00538886 -0.000442282 0.000157898
0.00617838 -0.000596983 0.000250574
0.00580249 -0.000585608 0.000246516
0.00536415 -0.000429888 0.000149976
0.00605518 -0.000554006 0.000220275
0.00592325 7.66389e-05 1.29747e-05
0.00564438 -0.00050227 0.000191849
0.00633853 -0.000622681 0.00025555
0.0053618 -0.000448062 0.000162644
0.00602191 -0.000568633 0.00022829
0.00612175 -0.000577494 0.000248151
0.00602953 -0.000562504 0.000227181
-3.83158e-14 8.16748e-14 2.95888e-13
0.0061209 -0.0005805 0.000232607
0.00622355 -1.77579e-05 8.82584e-06
0.00613311 -0.000592135 0.000251087
0.0060269 -0.000572616 0.000232862
0.00599131 -0.000559835 0.000242331
0.00614703 -0.000488407 0.000170398
0.00533898 -2.4896e-05 -0.000332777
0.00544605 -0.000465391 0.000172353
0.00622192 -0.000589831 0.000241362
0.00603755 -0.000555094 0.00024426
0.00615759 -0.000545748 0.00020865
0.00538399 1.07293e-05 -0.000281751
0.00612698 -0.000487454 0.000157855
0.00624351 -9.67223e-05 3.30822e-06
0.00613232 -0.000580885 0.000247391
0.00630091 -0.00020716 -0.000162039
0.00599963 -0.000556702 0.000221363
0.00607468 -0.000598203 0.00024559
0.00617014 -0.000534719 0.000236355
0.00611415 -0.000551163 0.000247429
0.00618509 -0.000554935 0.000229624
0.00538956 0.000132883 -0.000142055
0.0061395 -0.000482223 0.000160795
0.006217 -4.00793e-05 9.89013e-07
0.00602048 -0.000530247 0.000204394
0.00611246 -0.00054359 0.000212304
0.00545393 9.85998e-05 -9.25805e-05
0.00597278 2.61514e-05 1.12127e-05
0.00566147 4.60106e-05 -4.93482e-05
0.00623269 -0.000121668 -0.000234979
0.00584529 0.000123856 1.39292e-05
0.00594314 -0.000597474 0.000250481
0.00553368 0.000143894 -0.000129134
0.00582578 -0.000565304 0.00023215
0.00615574 -0.00052014 0.000233058
0.00551761 -0.00039599 0.000162557
0.00618073 -0.000124856 -0.000236595
0.00595704 -0.000507353 0.000203597
0.00604049 -0.000558527 0.000236249
0.00588396 -0.000510735 0.000190647
0.0059589 -0.000536696 0.000240794
0.0062255 -0.000383023 9.22893e-05
0.0057429 -5.76629e-05 3.36342e-05
0.00586292 -0.00053741 0.000210312
0.00608501 -0.000575544 0.000246333
0.00612102 -0.000588494 0.000252135
0.00540064 -0.000450626 0.000163321
0.00606542 -0.000514046 0.000188748
0.00578501 -0.000528803 0.000205302
0.00595314 -8.86427e-05 2.00444e-05
0.00606103 1.88178e-05 1.1882e-05
0.00613714 -0.000536112 0.00022793
0.0055426 9.09227e-05 -8.63317e-05
0.00605381 -3.90683e-06 1.09457e-05
0.00628766 -3.95095e-05 0.000196801
0.00610528 -0.000596032 0.000249526
0.00551095 0.000134843 -0.000125214
0.00606972 -0.000577645 0.000245715
0.00593454 5.67444e-05 1.28463e-05
0.00618613 -0.000535649 0.000248774
0.00615306 -0.00012041 0.000243976
0.00552938 0.000143486 -0.000130708
0.00602986 -0.00058456 0.000239149
0.00598072 -0.000526183 0.000203417
0.0061291 1.21613e-05 1.17281e-05
0.0062369 -0.000524025 0.000189246
0.0062538 -0.000164822 0.000299177
0.00629031 -0.000182206 -0.000259614
0.00607307 -0.000559364 0.000230183
0.00592749 -0.000548862 0.000239666
0.00626692 -1.54856e-05 0.000182407
0.00553872 -0.000517429 0.000206222
0.0059046 -0.000577695 0.000237609
0.00593148 8.75271e-05 1.31154e-05
0.00587174 -0.000536645 0.000237346
0.00589184 -0.000540404 0.000238244
0.00588116 -0.000513086 0.000237397
0.00583674 -0.000289473 -0.000452146
0.00599229 1.07891e-05 0.000143019
0.00574986 -0.000261498 -0.000436727
0.00586477 -0.000571192 0.000234666
0.00602757 -0.000528491 0.000205169
0.00587447 -0.000229749 -0.000236032
0.00618592 -5.65602e-05 0.000199874
0.00603125 -0.000570097 0.000243944
0.00599608 -0.00054756 0.000242445
0.00616016 -0.000130776 -0.0002352
0.00609481 -0.000577364 0.000246288
0.00613106 1.18035e-06 1.09358e-05
0.00603532 -0.000146685 -0.000233163
0.00625106 -5.15057e-05 0.000199625
0.00612591 -4.41076e-05 0.000192814
0.00536025 -0.000402237 0.000130179
0.00609287 -0.000576989 0.000246704
0.00596471 -0.000609181 0.000242673
0.00602615 -0.000576281 0.000244045
0.00599612 -0.000159758 -0.000232834
0.00618563 -0.000552373 0.000198996
0.0058566 -0.000557864 0.000237057
0.00591123 -0.00049926 0.000238407
0.0060467 -2.80491e-05 0.000179494
0.00593133 -0.000607935 0.000241492
0.00622292 -0.000145086 -0.000231037
0.00627369 -0.000657553 0.000284547
0.00594227 -0.000579566 0.000240745
0.00616606 -0.000523667 0.000212
0.00600212 -0.000606641 0.0002437
0.00619831 -1.39803e-05 1.2146e-05
0.00609693 -0.000560288 0.000243771
0.00588578 -0.000267378 -0.000233434
0.00583928 -0.000579588 0.000236826
0.00594358 -0.000191467 -0.000228979
0.0059811 -0.000577704 0.000242226
0.00604079 -0.000602578 0.000244555
0.00580944 -0.000560771 0.000235251
0.00601519 -0.000587378 0.000243749
0.00625146 -5.28388e-05 0.000199761
0.00633903 -0.000167923 -0.000118911
0.00625124 -0.000675814 0.000296797
0.00625672 -0.000105348 0.000235411
0.00593908 3.52888e-05 0.000122214
0.00588035 -0.000571012 0.000238221
0.00590974 -0.000578147 0.000239414
0.00590007 -0.000602754 0.000239718
0.0059537 -0.000553968 0.000240791
0.00586961 -0.00059357 0.000238317
0.00583526 -0.000592932 0.000250879
0.00589984 -0.000583817 0.000242507
0.00599381 -0.000552457 0.000242276
0.00537497 -0.000489462 0.000191263
0.00608508 -0.000586226 0.000246453
0.00578098 -0.000543856 0.000233938
0.00616777 -0.000121916 -0.000235911
0.0058089 -0.000552795 0.000235128
0.00559205 0.000101846 -9.56562e-05
0.00602862 -1.33927e-05 0.000165992
0.00609176 -0.000135093 -0.000234466
0.00624732 -2.91181e-05 9.17639e-06

VECTORS force float
3.55874e-11 -1.7849e-10 1.54031e-10
7.41193e-11 2.66427e-11 7.04658e-12
-2.92478e-11 1.29952e-11 1.38978e-11
1.254e-10 1.13823e-10 -8.21102e-11
-6.79089e-10 -5.02755e-10 -8.87422e-10
1.94767e-12 6.28804e-12 -3.54393e-12
-2.83285e-11 2.84205e-11 -2.40557e-11
-1.33795e-11 1.56719e-14 -5.25496e-12
-1.82935e-10 3.55087e-11 -1.25709e-10
-5.2871e-12 3.85786e-11 -3.10875e-11
1.38501e-10 -6.87105e-11 -3.01071e-11
3.91265e-13 -1.27305e-11 3.0939e-11
9.32239e-09 -4.61674e-09 3.43957e-09
-2.101e-11 2.59149e-11 -1.98521e-11
-2.91594e-11 -5.03762e-11 2.28315e-11
-2.45386e-10 1.35433e-10 -4.53889e-11
-3.57419e-11 1.14094e-10 -1.00585e-10
-3.99047e-11 2.02709e-11 -2.40814e-11
-1.43351e-10 -1.96819e-10 1.58896e-10
-3.37388e-11 -3.49593e-10 -1.32147e-10
-1.09582e-11 -3.79195e-11 3.31413e-11
-5.17559e-11 -1.2644e-11 1.13269e-11
-9.989e-11 -1.34534e-10 -1.76079e-11
7.59026e-11 8.83376e-11 -7.14775e-11
6.34569e-12 4.05436e-12 -6.13519e-12
9.0683e-11 -6.30544e-11 1.2105e-10
5.77926e-11 1.04335e-10 8.08682e-11
-2.40102e-11 -1.45045e-10 1.22081e-10
2.12481e-10 -6.8602e-11 6.58193e-11
1.24004e-11 -5.00402e-11 4.00705e-11
1.55946e-10 -3.83534e-11 5.58845e-11
1.10948e-12 8.44354e-12 -5.32861e-12
-2.78082e-11 1.52094e-10 -1.48271e-10
1.1326e-10 -5.01234e-11 5.16113e-11
9.55883e-11 -8.287e-11 -4.82774e-11
-1.63838e-10 3.00872e-12 3.38235e-13
-6.12358e-11 -1.15223e-10 8.98231e-11
-1.70466e-10 3.07345e-11 -7.47985e-11
-2.01628e-12 -1.33206e-10 1.16987e-10
-4.50018e-11 -5.46085e-12 -2.61951e-12
1.41093e-10 -1.51139e-10 6.48536e-11
3.44206e-12 7.47116e-12 -4.09866e-12
-3.73496e-11 3.04857e-11 6.89418e-12
6.98602e-11 1.81615e-10 -1.49092e-10
1.05939e-11 -1.71545e-11 -4.45107e-11
-4.38568e-12 7.82376e-12 -2.10963e-11
3.26151e-11 -3.48258e-11 -1.77454e-11
-9.76083e-12 -1.66725e-11 6.48714e-13
3.40179e-11 -2.72337e-11 2.23325e-11
-6.39315e-11 2.68997e-11 -8.95499e-12
2.65756e-10 -2.56666e-10 -1.10628e-10
-1.01441e-11 7.20827e-11 -9.83523e-11
-2.98884e-11 -5.67973e-12 -4.14732e-12
-2.13414e-12 -1.06519e-13 2.31953e-12
-1.55204e-10 -1.04172e-10 8.48534e-11
-7.4202e-11 -1.82785e-10 1.33234e-10
-2.6973e-10 -7.20097e-11 -6.24946e-10
1.33077e-11 -4.557e-11 8.93417e-11
9.35313e-11 7.65342e-11 1.24745e-10