# vtk DataFile Version 3.0
LIGGGHTS particles timestep 48000000
ASCII
DATASET POLYDATA
POINTS 275 float
0.293124 0.0181617 0.00703155
0.292808 0.0171502 0.00754521
0.29296 0.0170494 0.00762707
0.29231 0.0154435 0.00898566
0.298732 0.0167392 0.00752043
0.293092 0.0175656 0.00717083
0.292796 0.0168062 0.00784616
0.298928 0.0176351 0.00714806
0.292457 0.0159089 0.00864366
0.293023 0.0178168 0.00708557
0.287044 0.0169303 0.00747311
0.292289 0.0153608 0.00903764
0.287004 0.0175423 0.00711616
0.287193 0.0180438 0.00700495
0.292419 0.0158472 0.00871208
0.292267 0.0152781 0.00908961
0.293128 0.0177132 0.00704075
0.292766 0.0166578 0.00797694
0.287223 0.017784 0.00699248
0.298849 0.0172549 0.00726862
0.292483 0.0160583 0.00851448
0.298888 0.0174426 0.00721274
0.28685 0.016891 0.00754323
0.292882 0.0170986 0.00758725
0.292249 0.0151952 0.00914233
0.292571 0.0163491 0.00825453
0.293169 0.0175161 0.00721089
0.292504 0.0161312 0.00844956
0.29875 0.0168097 0.007452
0.292397 0.015768 0.0087692
0.293057 0.017418 0.00730117
0.298992 0.0179389 0.00704592
0.292938 0.0169763 0.0076918
0.293023 0.0172703 0.00743157
0.298869 0.0173497 0.00724399
0.292354 0.0156088 0.00888172
0.29306 0.0170741 0.00760143
0.293118 0.0172945 0.00740653
0.298769 0.0168866 0.00739105
0.292375 0.0156915 0.00882974
0.292992 0.0179332 0.0070093
0.298949 0.017734 0.00711482
0.292528 0.0162029 0.00838402
0.293188 0.0175897 0.00714583
0.2871 0.0171743 0.00731037
0.298808 0.0170645 0.00731494
0.293334 0.0178697 0.00701405
0.287019 0.0172251 0.00728242
0.293315 0.0177719 0.00700561
0.298788 0.0169693 0.0073381
0.378022 0.019866 0.005332
0.293134 0.0173685 0.00734123
0.292332 0.0155261 0.00893369
0.293041 0.017344 0.00736644
0.293084 0.0181117 0.00710825
0.298828 0.0171597 0.00729178
0.287055 0.0173988 0.00719014
0.28723 0.0178633 0.00709297
0.293145 0.0178044 0.00700332
0.292946 0.0173198 0.00739151
0.293221 0.017739 0.00701414
0.298908 0.017536 0.00718136
0.287363 0.0180098 0.00700027
0.293201 0.018098 0.00702864
0.292461 0.0159841 0.00857784
0.292548 0.0162775 0.00832033
0.286963 0.0169803 0.00744365
0.29283 0.017229 0.00748787
0.286387 0.0156761 0.00872418
0.287255 0.0183385 0.00701733
0.292904 0.0171717 0.00752253
0.287118 0.0179056 0.00710089
0.287061 0.0170041 0.00740779
0.29897 0.0178351 0.00708083
0.287404 0.0182054 0.00700849
0.2931 0.0172208 0.00747162
0.292861 0.0170255 0.00765198
0.292997 0.0175425 0.00719485
0.293118 0.0178462 0.00709019
0.293163 0.0179023 0.00701176
0.287027 0.0168589 0.0075408
0.292919 0.0175912 0.00715559
0.292636 0.0165686 0.00806046
0.293046 0.0179157 0.00709134
0.292948 0.0175923 0.00726804
0.292902 0.0175173 0.0072208
0.286592 0.0160431 0.00835584
0.292613 0.0164955 0.00812496
0.28698 0.0178758 0.00700113
0.293111 0.0176392 0.00710576
0.286999 0.0179739 0.00700528
0.0643568 0.0187248 0.00531097
0.24257 0.0191927 0.00520306
0.287288 0.0180764 0.0070047
0.28657 0.0159727 0.00842341
0.287073 0.0178164 0.00709481
0.286409 0.0157465 0.00865661
0.293239 0.0178371 0.00700869
0.293299 0.0176871 0.00705624
0.292786 0.0170772 0.00760993
0.292742 0.016931 0.00773933
0.286476 0.0159574 0.00845402
0.286906 0.0175229 0.00714824
0.286942 0.0176835 0.00703699
0.29308 0.0171474 0.00753656
0.293067 0.0178677 0.00700619
0.293075 0.0174918 0.00723598
0.287137 0.017348 0.00721816
0.293258 0.0179351 0.00701714
0.292781 0.0167321 0.00791152
0.293068 0.0183243 0.00704307
0.292887 0.0174454 0.0072887
0.287383 0.0181076 0.00700439
0.292672 0.0166457 0.0080083
0.29298 0.0174687 0.00726005
0.286615 0.0161133 0.00828833
0.292591 0.0164228 0.00819008
0.292993 0.0177395 0.00714161
0.287037 0.0177141 0.00702175
0.287055 0.0178092 0.00699671
0.292982 0.0171224 0.0075624
0.293086 0.017966 0.00701467
0.293047 0.0177682 0.00699757
0.293205 0.0176636 0.00708063
0.286999 0.0171385 0.00732834
0.292962 0.0176676 0.00720371
0.292956 0.0177407 0.00702814
0.292849 0.017296 0.00741618
0.286844 0.0165542 0.00784881
0.287219 0.0176935 0.00703478
0.286431 0.015817 0.00858904
0.287179 0.0175204 0.00712664
0.286518 0.0160987 0.0083188
0.287021 0.0176333 0.00707855
0.286866 0.0166247 0.00778124
0.292699 0.0167849 0.00786875
0.287121 0.0185611 0.00702999
0.287132 0.0182026 0.00701334
0.286887 0.0166952 0.00771367
0.286496 0.0160283 0.00838636
0.28654 0.016169 0.00825128
0.286822 0.0164838 0.00791638
0.0219312 0.0187687 0.00551176
0.286926 0.0168371 0.00757836
0.293003 0.0171968 0.00749652
0.287018 0.0180719 0.00700943
0.287173 0.0180952 0.00708846
0.286604 0.0163805 0.00804854
0.287232 0.0182396 0.00701321
0.292973 0.0178354 0.00700085
0.287078 0.0183658 0.00702183
0.287196 0.0184954 0.0070256
0.287099 0.0184634 0.00702591
0.287175 0.0183978 0.00702152
0.293144 0.0182592 0.00704001
0.286886 0.0174346 0.00719117
0.293182 0.0180001 0.0070202
0.286648 0.0165214 0.00791341
0.286943 0.0172858 0.0072583
0.286637 0.0161837 0.00822076
0.286977 0.0177473 0.00710529
0.287088 0.0181767 0.00709942
0.29309 0.0184225 0.00705162
0.287031 0.0179549 0.00709836
0.293065 0.0180139 0.00709981
0.287196 0.0176075 0.00708036
0.287478 0.0181388 0.00700408
0.293105 0.0180638 0.00702311
0.292964 0.0173935 0.00732638
0.293048 0.0182268 0.00703461
0.28105 0.0182108 0.0069059
0.292721 0.0168579 0.00780404
0.286923 0.0175968 0.00708302
0.293166 0.0183566 0.00704847
0.287155 0.0179969 0.00708498
0.287113 0.0181045 0.0070092
0.287153 0.0178496 0.0070215
0.280736 0.0167415 0.00745567
0.287081 0.0170877 0.00735637
0.287071 0.0180509 0.00709167
0.286454 0.015887 0.00852157
0.287212 0.0181417 0.00700908
0.286945 0.0169083 0.00751067
0.293034 0.0176899 0.00706468
0.28725 0.0178801 0.00699639
0.286788 0.0166778 0.00774698
0.286832 0.0168195 0.0076111
0.286701 0.0163955 0.00801774
0.287118 0.0172612 0.00726425
0.287037 0.017312 0.00723622
0.292819 0.0168791 0.00778157
0.292839 0.0169523 0.00771675
0.287309 0.0181741 0.00700881
0.293029 0.0181289 0.00702617
0.292926 0.0172463 0.00745645
0.280952 0.0177511 0.0070766
0.286679 0.0163252 0.00808529
0.293112 0.0185197 0.0070601
0.286961 0.0177782 0.00701155
0.292677 0.0167118 0.00793346
0.287075 0.0179083 0.00700089
0.293152 0.0174423 0.00727605
0.286868 0.0169623 0.00747551
0.292765 0.017004 0.0076747
0.287072 0.0177194 0.00711924
0.280972 0.0178431 0.00704246
0.280913 0.0175672 0.00714489
0.287329 0.0182718 0.00701291
0.286773 0.0169449 0.00750811
0.287185 0.0182136 0.00709742
0.287056 0.0182681 0.00701773
0.29309 0.0177538 0.00712399
0.286735 0.0168032 0.00764316
0.286828 0.0171714 0.00731948
0.286847 0.0172533 0.00726537
0.28064 0.0163605 0.00774827
0.280695 0.0165615 0.00753308
0.280622 0.0162966 0.00782304
0.287008 0.0167877 0.00760849
0.287133 0.0177516 0.00702142
0.28066 0.0164241 0.00767373
0.280835 0.0171994 0.00728149
0.286669 0.0165919 0.00784585
0.286979 0.0174555 0.00715904
0.280776 0.0169238 0.00738378
0.286745 0.0165368 0.00788232
0.293016 0.0176161 0.00712982
0.280855 0.0172913 0.00724735
0.28103 0.0181189 0.00694004
0.280796 0.0170157 0.00734968
0.286366 0.0156056 0.00879175
0.287268 0.0179784 0.00700056
0.286909 0.0167657 0.00764608
0.28696 0.0173687 0.00720513
0.280874 0.0173833 0.0072132
0.287153 0.0183003 0.00701744
0.286923 0.0171958 0.00729693
0.286867 0.0173458 0.00723285
0.280756 0.0168323 0.00741906
0.286562 0.0162393 0.00818373
0.281069 0.0183034 0.00687347
0.287094 0.0180064 0.00700504
0.286766 0.0166072 0.00781475
0.287162 0.0174335 0.0071728
0.287114 0.0176584 0.00705234
0.292869 0.0173695 0.00735123
0.287207 0.0183114 0.00710078
0.280933 0.0176592 0.00711075
0.28681 0.0167483 0.0076794
0.280894 0.0174753 0.00717905
0.286627 0.0164509 0.007981
0.286723 0.0164663 0.00794989
0.286691 0.0166623 0.00777829
0.28708 0.0174843 0.00714478
0.281066 0.0178742 0.00703363
0.280991 0.017935 0.00700832
0.287037 0.01817 0.00701358
0.280679 0.0164904 0.00760128
0.286792 0.017018 0.00744242
0.286886 0.0170337 0.0074078
0.286583 0.0163101 0.00811611
0.286757 0.0168777 0.00758026
0.287173 0.0179454 0.00700079
0.286657 0.0162545 0.00815314
0.28698 0.0170537 0.00737784
0.287098 0.0175713 0.00709862
0.287098 0.0183075 0.00710049
0.286904 0.0171123 0.00734873
0.286811 0.0170936 0.00737988
0.281011 0.0180269 0.00697418
0.286713 0.0167328 0.00771072
0.293011 0.0180311 0.00701773
0.280716 0.0166515 0.00749439
0.280816 0.0171075 0.00731559
0.292938 0.0176648 0.00709057

VERTICES 275 550
1 0
1 1
1 2
1 3
1 4
1 5
1 6
1 7
1 8
1 9
1 10
1 11
1 12
1 13
1 14
1 15
1 16
1 17
1 18
1 19
1 20
1 21
1 22
1 23
1 24
1 25
1 26
1 27
1 28
1 29
1 30
1 31
1 32
1 33
1 34
1 35
1 36
1 37
1 38
1 39
1 40
1 41
1 42
1 43
1 44
1 45
1 46
1 47
1 48
1 49
1 50
1 51
1 52
1 53
1 54
1 55
1 56
1 57
1 58
1 59
1 60
1 61
1 62
1 63
1 64
1 65
1 66
1 67
1 68
1 69
1 70
1 71
1 72
1 73
1 74
1 75
1 76
1 77
1 78
1 79
1 80
1 81
1 82
1 83
1 84
1 85
1 86
1 87
1 88
1 89
1 90
1 91
1 92
1 93
1 94
1 95
1 96
1 97
1 98
1 99
1 100
1 101
1 102
1 103
1 104
1 105
1 106
1 107
1 108
1 109
1 110
1 111
1 112
1 113
1 114
1 115
1 116
1 117
1 118
1 119
1 120
1 121
1 122
1 123
1 124
1 125
1 126
1 127
1 128
1 129
1 130
1 131
1 132
1 133
1 134
1 135
1 136
1 137
1 138
1 139
1 140
1 141
1 142
1 143
1 144
1 145
1 146
1 147
1 148
1 149
1 150
1 151
1 152
1 153
1 154
1 155
1 156
1 157
1 158
1 159
1 160
1 161
1 162
1 163
1 164
1 165
1 166
1 167
1 168
1 169
1 170
1 171
1 172
1 173
1 174
1 175
1 176
1 177
1 178
1 179
1 180
1 181
1 182
1 183
1 184
1 185
1 186
1 187
1 188
1 189
1 190
1 191
1 192
1 193
1 194
1 195
1 196
1 197
1 198
1 199
1 200
1 201
1 202
1 203
1 204
1 205
1 206
1 207
1 208
1 209
1 210
1 211
1 212
1 213
1 214
1 215
1 216
1 217
1 218
1 219
1 220
1 221
1 222
1 223
1 224
1 225
1 226
1 227
1 228
1 229
1 230
1 231
1 232
1 233
1 234
1 235
1 236
1 237
1 238
1 239
1 240
1 241
1 242
1 243
1 244
1 245
1 246
1 247
1 248
1 249
1 250
1 251
1 252
1 253
1 254
1 255
1 256
1 257
1 258
1 259
1 260
1 261
1 262
1 263
1 264
1 265
1 266
1 267
1 268
1 269
1 270
1 271
1 272
1 273
1 274

POINT_DATA 275
SCALARS id int 1
LOOKUP_TABLE default
1
2
4
5
6
7
8
9
10
11
12
13
14
16
17
19
21
22
23
24
25
26
27
28
29
30
31
32
33
34
35
36
37
38
39
41
42
44
45
47
48
49
50
51
52
53
54
55
56
57
59
60
61
62
63
64
65
66
67
68
69
70
71
72
73
74
76
77
78
79
80
82
83
84
85
86
87
88
89
90
91
92
93
94
95
96
97
98
99
100
101
102
103
104
105
106
107
108
109
110
111
112
113
114
115
116
117
118
119
120
121
122
123
124
125
127
128
129
130
131
132
133
134
135
136
137
138
140
141
142
143
144
146
147
148
149
150
151
153
154
155
156
157
158
159
160
162
164
165
166
167
168
169
170
171
172
173
174
176
177
178
179
182
183
184
185
186
187
188
189
190
191
192
193
194
195
196
197
198
199
200
201
202
203
204
205
206
207
208
209
210
211
212
213
214
215
216
217
218
219
220
222
224
225
226
227
228
229
230
232
233
234
235
236
237
239
240
241
242
243
244
246
247
248
249
250
251
252
253
254
255
256
257
258
259
260
261
262
263
264
265
266
267
268
269
270
271
272
273
274
275
276
277
278
279
280
281
283
284
285
286
287
288
289
290
291
292
293
294
295
296
297
298
299
300

SCALARS type int 1
LOOKUP_TABLE default
1
1
1
1
1
1
1
1
1
1
1
1
1
1
1
1
1
1
1
1
1
1
1
1
1
1
1
1
1
1
1
1
1
1
1
1
1
1
1
1
1
1
1
1
1
1
1
1
1
1
1
1
1
1
1
1
1
1
1
1
1
1
1
1
1
1
1
1
1
1
1
1
1
1
1
1
1
1
1
1
1
1
1
1
1
1
1
1
1
1
1
1
1
1
1
1
1
1
1
1
1
1
1
1
1
1
1
1
1
1
1
1
1
1
1
1
1
1
1
1
1
1
1
1
1
1
1
1
1
1
1
1
1
1
1
1
1
1
1
1
1
1
1
1
1
1
1
1
1
1
1
1
1
1
1
1
1
1
1
1
1
1
1
1
1
1
1
1
1
1
1
1
1
1
1
1
1
1
1
1
1
1
1
1
1
1
1
1
1
1
1
1
1
1
1
1
1
1
1
1
1
1
1
1
1
1
1
1
1
1
1
1
1
1
1
1
1
1
1
1
1
1
1
1
1
1
1
1
1
1
1
1
1
1
1
1
1
1
1
1
1
1
1
1
1
1
1
1
1
1
1
1
1
1
1
1
1
1
1
1
1
1
1
1
1
1
1
1
1
1
1
1
1
1
1

SCALARS radius float 1
LOOKUP_TABLE default
5e-05
5e-05
5e-05
5e-05
5e-05
5e-05
5e-05
5e-05
5e-05
5e-05
5e-05
5e-05
5e-05
5e-05
5e-05
5e-05
5e-05
5e-05
5e-05
5e-05
5e-05
5e-05
5e-05
5e-05
5e-05
5e-05
5e-05
5e-05
5e-05
5e-05
5e-05
5e-05
5e-05
5e-05
5e-05
5e-05
5e-05
5e-05
5e-05
5e-05
5e-05
5e-05
5e-05
5e-05
5e-05
5e-05
5e-05
5e-05
5e-05
5e-05
5e-05
5e-05
5e-05
5e-05
5e-05
5e-05
5e-05
5e-05
5e-05
5e-05
5e-05
5e-05
5e-05
5e-05
5e-05
5e-05
5e-05
5e-05
5e-05
5e-05
5e-05
5e-05
5e-05
5e-05
5e-05
5e-05
5e-05
5e-05
5e-05
5e-05
5e-05
5e-05
5e-05
5e-05
5e-05
5e-05
5e-05
5e-05
5e-05
5e-05
5e-05
5e-05
5e-05
5e-05
5e-05
5e-05
5e-05
5e-05
5e-05
5e-05
5e-05
5e-05
5e-05
5e-05
5e-05
5e-05
5e-05
5e-05
5e-05
5e-05
5e-05
5e-05
5e-05
5e-05
5e-05
5e-05
5e-05
5e-05
5e-05
5e-05
5e-05
5e-05
5e-05
5e-05
5e-05
5e-05
5e-05
5e-05
5e-05
5e-05
5e-05
5e-05
5e-05
5e-05
5e-05
5e-05
5e-05
5e-05
5e-05
5e-05
5e-05
5e-05
5e-05
5e-05
5e-05
5e-05
5e-05
5e-05
5e-05
5e-05
5e-05
5e-05
5e-05
5e-05
5e-05
5e-05
5e-05
5e-05
5e-05
5e-05
5e-05
5e-05
5e-05
5e-05
5e-05
5e-05
5e-05
5e-05
5e-05
5e-05
5e-05
5e-05
5e-05
5e-05
5e-05
5e-05
5e-05
5e-05
5e-05
5e-05
5e-05
5e-05
5e-05
5e-05
5e-05
5e-05
5e-05
5e-05
5e-05
5e-05
5e-05
5e-05
5e-05
5e-05
5e-05
5e-05
5e-05
5e-05
5e-05
5e-05
5e-05
5e-05
5e-05
5e-05
5e-05
5e-05
5e-05
5e-05
5e-05
5e-05
5e-05
5e-05
5e-05
5e-05
5e-05
5e-05
5e-05
5e-05
5e-05
5e-05
5e-05
5e-05
5e-05
5e-05
5e-05
5e-05
5e-05
5e-05
5e-05
5e-05
5e-05
5e-05
5e-05
5e-05
5e-05
5e-05
5e-05
5e-05
5e-05
5e-05
5e-05
5e-05
5e-05
5e-05
5e-05
5e-05
5e-05
5e-05
5e-05
5e-05
5e-05
5e-05
5e-05
5e-05
5e-05
5e-05
5e-05
5e-05
5e-05
5e-05
5e-05
5e-05
5e-05
5e-05
5e-05
5e-05
5e-05
5e-05
5e-05
5e-05
5e-05
5e-05
5e-05
5e-05
5e-05

SCALARS mass float 1
LOOKUP_TABLE default
1.46608e-10
1.46608e-10
1.46608e-10
1.46608e-10
1.46608e-10
1.46608e-10
1.46608e-10
1.46608e-10
1.46608e-10
1.46608e-10
1.46608e-10
1.46608e-10
1.46608e-10
1.46608e-10
1.46608e-10
1.46608e-10
1.46608e-10
1.46608e-10
1.46608e-10
1.46608e-10
1.46608e-10
1.46608e-10
1.46608e-10
1.46608e-10
1.46608e-10
1.46608e-10
1.46608e-10
1.46608e-10
1.46608e-10
1.46608e-10
1.46608e-10
1.46608e-10
1.46608e-10
1.46608e-10
1.46608e-10
1.46608e-10
1.46608e-10
1.46608e-10
1.46608e-10
1.46608e-10
1.46608e-10
1.46608e-10
1.46608e-10
1.46608e-10
1.46608e-10
1.46608e-10
1.46608e-10
1.46608e-10
1.46608e-10
1.46608e-10
1.46608e-10
1.46608e-10
1.46608e-10
1.46608e-10
1.46608e-10
1.46608e-10
1.46608e-10
1.46608e-10
1.46608e-10
1.46608e-10
1.46608e-10
1.46608e-10
1.46608e-10
1.46608e-10
1.46608e-10
1.46608e-10
1.46608e-10
1.46608e-10
1.46608e-10
1.46608e-10
1.46608e-10
1.46608e-10
1.46608e-10
1.46608e-10
1.46608e-10
1.46608e-10
1.46608e-10
1.46608e-10
1.46608e-10
1.46608e-10
1.46608e-10
1.46608e-10
1.46608e-10
1.46608e-10
1.46608e-10
1.46608e-10
1.46608e-10
1.46608e-10
1.46608e-10
1.46608e-10
1.46608e-10
1.46608e-10
1.46608e-10
1.46608e-10
1.46608e-10
1.46608e-10
1.46608e-10
1.46608e-10
1.46608e-10
1.46608e-10
1.46608e-10
1.46608e-10
1.46608e-10
1.46608e-10
1.46608e-10
1.46608e-10
1.46608e-10
1.46608e-10
1.46608e-10
1.46608e-10
1.46608e-10
1.46608e-10
1.46608e-10
1.46608e-10
1.46608e-10
1.46608e-10
1.46608e-10
1.46608e-10
1.46608e-10
1.46608e-10
1.46608e-10
1.46608e-10
1.46608e-10
1.46608e-10
1.46608e-10
1.46608e-10
1.46608e-10
1.46608e-10
1.46608e-10
1.46608e-10
1.46608e-10
1.46608e-10
1.46608e-10
1.46608e-10
1.46608e-10
1.46608e-10
1.46608e-10
1.46608e-10
1.46608e-10
1.46608e-10
1.46608e-10
1.46608e-10
1.46608e-10
1.46608e-10
1.46608e-10
1.46608e-10
1.46608e-10
1.46608e-10
1.46608e-10
1.46608e-10
1.46608e-10
1.46608e-10
1.46608e-10
1.46608e-10
1.46608e-10
1.46608e-10
1.46608e-10
1.46608e-10
1.46608e-10
1.46608e-10
1.46608e-10
1.46608e-10
1.46608e-10
1.46608e-10
1.46608e-10
1.46608e-10
1.46608e-10
1.46608e-10
1.46608e-10
1.46608e-10
1.46608e-10
1.46608e-10
1.46608e-10
1.46608e-10
1.46608e-10
1.46608e-10
1.46608e-10
1.46608e-10
1.46608e-10
1.46608e-10
1.46608e-10
1.46608e-10
1.46608e-10
1.46608e-10
1.46608e-10
1.46608e-10
1.46608e-10
1.46608e-10
1.46608e-10
1.46608e-10
1.46608e-10
1.46608e-10
1.46608e-10
1.46608e-10
1.46608e-10
1.46608e-10
1.46608e-10
1.46608e-10
1.46608e-10
1.46608e-10
1.46608e-10
1.46608e-10
1.46608e-10
1.46608e-10
1.46608e-10
1.46608e-10
1.46608e-10
1.46608e-10
1.46608e-10
1.46608e-10
1.46608e-10
1.46608e-10
1.46608e-10
1.46608e-10
1.46608e-10
1.46608e-10
1.46608e-10
1.46608e-10
1.46608e-10
1.46608e-10
1.46608e-10
1.46608e-10
1.46608e-10
1.46608e-10
1.46608e-10
1.46608e-10
1.46608e-10
1.46608e-10
1.46608e-10
1.46608e-10
1.46608e-10
1.46608e-10
1.46608e-10
1.46608e-10
1.46608e-10
1.46608e-10
1.46608e-10
1.46608e-10
1.46608e-10
1.46608e-10
1.46608e-10
1.46608e-10
1.46608e-10
1.46608e-10
1.46608e-10
1.46608e-10
1.46608e-10
1.46608e-10
1.46608e-10
1.46608e-10
1.46608e-10
1.46608e-10
1.46608e-10
1.46608e-10
1.46608e-10
1.46608e-10
1.46608e-10
1.46608e-10
1.46608e-10
1.46608e-10
1.46608e-10
1.46608e-10
1.46608e-10
1.46608e-10
1.46608e-10
1.46608e-10
1.46608e-10
1.46608e-10
1.46608e-10
1.46608e-10
1.46608e-10
1.46608e-10
1.46608e-10
1.46608e-10
1.46608e-10

VECTORS velocity float
0.00549184 -0.000379946 0.000127738
0.00569363 -0.000424244 0.000138186
0.00577359 -0.000348407 6.85441e-05
0.00565803 0.000221239 0.000955447
0.00575569 -0.000213989 -0.00031372
0.00556173 -0.000397566 0.000121485
0.00552417 -0.000361361 9.01833e-05
0.00546057 -0.00034114 -0.000110841
0.0056152 -0.000425773 0.000140379
0.005577 -0.000407346 0.00012759
0.0053966 -0.000108992 -0.000613402
0.00567293 0.000221167 0.000958367
0.00561531 0.000304297 -0.000196417
0.00575925 0.000250027 -9.39621e-05
0.00560018 -0.000417794 0.000137344
0.00569062 0.000219267 0.000963249
0.00558854 -0.000387865 0.000120556
0.0056504 -0.000374627 9.59563e-05
0.00574685 0.000292193 -9.00374e-05
0.00564466 9.41293e-05 0.000155512
0.00562776 -0.000424909 0.000145431
0.00550534 1.23789e-05 -0.0002285
0.00591521 -7.42185e-05 -0.000993993
0.00571558 -0.000403066 0.00011838
0.00540165 0.000237245 0.000894747
0.00564761 -0.000423396 0.000139004
0.00558911 -0.00038875 0.00011081
0.00563057 -0.000424479 0.000144199
0.00580876 -0.000231506 -0.000316244
0.00560767 -0.0003912 0.000176844
0.00549674 -0.000398845 0.00012322
0.00552882 -0.000415452 -8.92771e-05
0.00578126 -0.000366053 8.3388e-05
0.00557325 -0.000383191 0.000107216
0.00564963 -1.36984e-05 -0.0002233
0.00562364 0.000217531 0.000951175
0.00566068 -0.000373026 9.45913e-05
0.00553597 -0.000371987 9.85295e-05
0.00584827 -0.000261498 -0.000323823
0.00560802 0.000219113 0.000947792
0.00555925 -0.000399687 0.00012813
0.00547133 -0.000360879 -0.000104812
0.00563535 -0.000425846 0.000141845
0.00561239 -0.000390298 0.000111779
0.00557744 0.000284158 -9.06834e-05
0.00563775 9.75047e-05 0.000158313
0.00555989 -0.000347689 0.000132259
0.00557448 0.000316573 -0.000100907
0.00557232 -0.000357367 0.000131529
0.00564103 9.60802e-05 0.000161408
-5.0196e-15 -7.41204e-15 7.69802e-14
0.00552457 -0.000378894 0.000105113
0.00563967 0.000219106 0.000953401
0.0055003 -0.000362219 9.2828e-05
0.00550699 -0.000395258 0.000128895
0.00564463 9.64556e-05 0.000156886
0.00560103 0.000314861 -0.000103757
0.00572908 0.000324029 -9.46808e-05
0.00557447 -0.000378621 0.000129881
0.0055638 -0.000385709 0.000109396
0.0055832 -0.000378233 0.000110772
0.00545039 -0.000318463 -0.000117856
0.00584948 0.000184026 -9.82097e-05
0.0055116 -0.000353126 0.000130704
0.00562156 -0.000425835 0.000142093
0.00564066 -0.000424358 0.000139939
0.00543173 -4.40224e-05 -0.000578082
0.00564621 -0.000415515 0.000131539
0.00593842 -0.000201029 -0.000875408
0.00604849 0.000260179 -9.78168e-05
0.00567383 -0.000377755 9.82788e-05
0.00572574 0.000288177 -8.36067e-05
0.00546316 0.000161893 -0.000305804
0.00548266 -0.000379473 -9.91821e-05
0.00597338 0.000161045 -0.000101669
0.00559147 -0.000372256 9.70078e-05
0.005734 -0.000406305 0.000120615
0.00547276 -0.000352469 8.4398e-05
0.00556845 -0.000381962 0.000129289
0.00556052 -0.00037348 0.000130203
0.0054716 -0.000255469 -0.000739737
0.00545165 -0.00039208 0.000119097
0.00565987 -0.000416872 0.000136234
0.0055593 -0.000391927 0.000128092
0.00560389 -0.000459771 7.91315e-05
0.00545373 -0.000392292 0.000118181
0.00597477 -0.000237807 -0.000849217
0.00565764 -0.000419291 0.000135447
0.00572428 0.000320759 -9.21384e-05
0.00558554 -0.000396551 0.000117848
0.00572239 0.000319619 -9.24825e-05
4.2537e-15 1.05133e-14 8.29589e-14
3.10422e-23 2.24983e-22 1.23839e-22
0.00588124 0.000258262 -9.66065e-05
0.00596543 -0.000234503 -0.000850551
0.00569806 0.000308759 -8.84966e-05
0.00594643 -0.000207378 -0.000871704
0.00556774 -0.000368244 0.000132183
0.00559255 -0.000378666 0.000105355
0.00570787 -0.000426567 0.000139163
0.00568127 -0.000421085 0.000134749
0.00596511 -0.000224124 -0.000859372
0.00568682 0.000322164 -8.3746e-05
0.00571573 0.000312971 -0.000100077
0.00564773 -0.000375398 9.70443e-05
0.0055667 -0.00038769 0.000129255
0.00553696 -0.00040058 0.000122512
0.00557669 0.00030107 -9.83318e-05
0.00555413 -0.000349642 0.00013234
0.00552018 -0.000359021 8.80005e-05
0.00582706 -0.000461935 0.000131474
0.00547876 -0.000395068 0.000118836
0.00593219 0.000167985 -0.000100466
0.00566668 -0.000418445 0.00013566
0.0054652 -0.000354513 8.60269e-05
0.00597565 -0.000239447 -0.000848146
0.0056541 -0.00042222 0.000136733
0.00558638 -0.000422433 0.000114953
0.00575378 0.000331698 -0.000111676
0.00573038 0.000332628 -8.98521e-05
0.00568299 -0.000355012 7.79476e-05
0.00555095 -0.000382901 0.000128945
0.00554326 -0.00042338 0.000125401
0.00559485 -0.000386056 0.000108076
0.00552106 0.000339674 -8.22835e-05
0.00558677 -0.000446192 8.94197e-05
0.00553932 -0.000403479 0.000126595
0.00559529 -0.000411324 0.000129956
0.0059171 -0.000329786 -0.000756752
0.00572237 0.000290568 -9.01513e-05
0.00595309 -0.000212171 -0.000868818
0.00562126 0.000302653 -9.80271e-05
0.00597358 -0.000237174 -0.000849189
0.00578398 0.000292647 -0.00015684
0.00596494 -0.000338838 -0.000755988
0.00567621 -0.000418062 0.000133775
0.0060587 0.000277799 -9.82058e-05
0.00585245 0.000234807 -9.45298e-05
0.00599962 -0.000342766 -0.000753193
0.00597153 -0.000230291 -0.000855312
0.00597114 -0.000242869 -0.000844069
0.00591973 -0.000332865 -0.000753211
-3.84071e-14 8.16354e-14 2.95887e-13
0.00565317 -0.000274166 -0.000760902
0.0056234 -0.000393181 0.000113533
0.0057035 0.000320017 -9.36066e-05
0.00572483 0.000277932 -0.000117768
0.00599857 -0.000266486 -0.000827719
0.00599132 0.000208012 -9.62247e-05
0.0055703 -0.000404753 0.00012887
0.00605244 0.000297492 -0.000101261
0.00606041 0.000277397 -9.83805e-05
0.00605793 0.000286402 -9.84432e-05
0.00605485 0.00027393 -9.82336e-05
0.00558275 -0.000400456 0.000129039
0.00559441 0.000345004 -8.05349e-05
0.00554172 -0.000362661 0.0001307
0.00601557 -0.000274483 -0.000823878
0.00558157 0.00034073 -0.000110753
0.00595044 -0.000265628 -0.000819695
0.00566655 0.000294873 -9.08504e-05
0.00575224 0.000343293 -0.000143679
0.00585173 -0.000372393 0.000139015
0.00573831 0.000319236 -9.28703e-05
0.00554162 -0.000393879 0.000131623
0.00568244 0.000295832 -9.34912e-05
0.00594907 0.000126669 -0.000102922
0.0055187 -0.000385399 0.000128007
0.00548888 -0.000378457 0.000104496
0.00549907 -0.000387019 0.000127266
0.00571428 7.17779e-05 0.000150415
0.0056734 -0.000418683 0.000133887
0.00568985 0.000314789 -9.71795e-05
0.00578581 -0.000446515 0.000131224
0.0057372 0.000276089 -9.13658e-05
0.00573005 0.000228999 -0.000100328
0.0057535 0.000313303 -0.000184563
0.00539931 8.98276e-05 -2.48406e-05
0.00553018 0.000282917 -9.12886e-05
0.00570419 0.000378674 -0.000113603
0.00595741 -0.000217818 -0.000864089
0.00585549 0.00023001 -9.41517e-05
0.00549969 -0.000239346 -0.000764911
0.00558385 -0.000367207 9.52635e-05
0.00576846 0.000286412 -9.33145e-05
0.00598085 -0.00031784 -0.000774565
0.00599329 -0.000206515 -0.000881349
0.00617461 -0.000154089 -0.000960507
0.00559003 0.000292514 -9.37112e-05
0.00559164 0.000311828 -0.000102395
0.00565354 -0.000388957 0.000108743
0.00572541 -0.000402986 0.000119601
0.0059413 0.000237379 -9.68656e-05
0.00551109 -0.000384505 0.000127516
0.00561444 -0.000396867 0.000117564
0.00564311 8.49571e-05 0.000142808
0.00615943 -0.000144615 -0.000966552
0.00585399 -0.000371784 0.000139107
0.00572781 0.000317537 -9.46982e-05
0.00567147 -0.00041779 0.000133601
0.00571427 0.000340853 -8.90347e-05
0.00555088 -0.00038404 0.000109169
0.00550886 -0.000247119 -0.000818653
0.00570116 -0.00042514 0.000137184
0.00567907 0.000305146 -0.000114237
0.00564937 8.65888e-05 0.000142488
0.00557991 9.94831e-05 0.000135675
0.00601233 0.000216352 -9.98021e-05
0.00573153 -0.000229491 -0.000804329
0.00592323 0.000242562 -0.000118931
0.00562933 0.000337211 -8.76479e-05
0.00558668 -0.000402474 0.000128187
0.00602627 -0.000304379 -0.000798819
0.00551488 0.000229995 -0.000301038
0.0057372 0.000312764 -9.86733e-05
0.00572428 -2.63679e-05 -4.35166e-05
0.00590098 -6.05637e-06 2.12913e-05
0.00567571 -1.63854e-05 -5.06891e-05
0.00562563 -0.000294802 -0.000735217
0.00573097 0.000318115 -9.72223e-05
0.00577245 -3.48358e-05 -3.4237e-05
0.00569815 7.92334e-05 0.000147333
0.00600315 -0.000274688 -0.000821477
0.0055877 0.000344524 -0.000119629
0.00565997 8.93385e-05 0.000142796
0.00600382 -0.000271048 -0.00082487
0.00552909 -0.000359919 8.9597e-05
0.00556785 9.98114e-05 0.00013539
0.00569451 7.01383e-05 0.000151773
0.00567005 8.66593e-05 0.000143014
0.00593281 -0.000196239 -0.000879679
0.00581708 0.000274412 -9.4121e-05
0.0058714 -0.0003161 -0.000756556
0.00559431 0.000342623 -0.00011279
0.0055582 0.00010324 0.00013404
0.0060413 0.000261522 -9.74219e-05
0.00551989 0.000355687 -0.000118176
0.0055897 0.000343697 -0.000101818
0.00554649 8.59171e-05 5.85781e-05
0.00597548 -0.00025109 -0.000837171
0.00570964 -7.90776e-05 -0.000274393
0.00571553 0.000328 -9.41998e-05
0.00596172 -0.000289783 -0.000799689
0.00557378 0.000306617 -0.000101094
0.00570047 0.000317461 -0.000109352
0.00553673 -0.000403846 0.000126026
0.0060341 0.000274341 -0.000100423
0.00561948 9.12756e-05 0.000139941
0.00602265 -0.000318547 -0.000781402
0.00556201 0.000104036 0.000133594
0.00601485 -0.00027309 -0.000824106
0.00602723 -0.000276527 -0.000823356
0.00599381 -0.000275997 -0.000816096
0.00562164 0.000316627 -0.000106023
0.00566107 6.76522e-05 0.000150584
0.00567648 8.68117e-05 0.000144563
0.00565053 0.000325229 -8.82972e-05
0.00587545 -1.20133e-05 1.5371e-05
0.00553101 -0.000138357 -0.000760026
0.00505535 7.58052e-05 -0.00057918
0.00598714 -0.00026044 -0.000830747
0.00591126 -0.00027945 -0.000811506
0.00573168 0.000334528 -9.02961e-05
0.00597667 -0.000271564 -0.000818879
0.00546313 0.000266657 -0.000226302
0.00566404 0.000316909 -0.00010695
0.00598092 0.00029331 -0.000116763
0.00546321 0.0002792 -0.000245971
0.00537978 1.55553e-05 -0.000614859
0.00568335 7.48285e-05 0.000148818
0.00601292 -0.000290607 -0.000803802
0.0055399 -0.000393435 0.000128276
0.0056145 4.98812e-05 -7.11864e-06
0.00569736 8.17286e-05 0.000146387
0.00546314 -0.000393708 0.000118352

VECTORS force float
1.5732e-11 4.92974e-11 6.01189e-12
3.13935e-13 -2.32674e-11 2.89193e-11
1.20149e-11 -1.11526e-10 9.30002e-11
-9.43537e-12 -6.53698e-11 4.07935e-11
-4.68865e-11 5.48305e-11 -2.63185e-11
-3.25722e-11 1.60972e-11 2.26834e-12
-6.9357e-11 -2.19755e-11 2.52091e-11
6.23748e-13 1.63544e-13 -7.66109e-14
-3.80882e-11 4.80045e-11 2.84383e-11
3.7811e-11 -1.58687e-11 -6.81424e-11
-3.03549e-10 6.96153e-11 7.065e-12
-1.73554e-12 -3.7138e-11 2.96323e-11
-8.66728e-11 5.94778e-11 5.38386e-11
1.17458e-10 2.14171e-11 -2.74678e-11
-7.23531e-11 6.56836e-11 6.17753e-11
-1.15394e-11 -1.70227e-11 7.48818e-12
-1.62662e-11 -4.02925e-11 5.83382e-12
-4.32407e-11 -2.23721e-11 9.01592e-12
1.21415e-10 -1.55128e-10 1.25092e-11
-1.38143e-11 -2.93501e-11 -6.97757e-12
-7.99397e-11 4.81383e-11 -4.12313e-11
-1.55609e-11 -1.94965e-11 9.26687e-12
1.80402e-10 -1.05651e-10 1.23512e-10
8.91838e-11 1.51504e-12 -4.44275e-12
8.7725e-12 1.2128e-12 1.07088e-12
-7.88033e-13 3.64526e-11 -3.18767e-11
-7.71815e-11 -6.05223e-11 6.02837e-11
8.39409e-12 4.50364e-11 -2.97229e-11
-2.55541e-10 -1.16835e-10 -2.11507e-10
-4.88897e-11 -6.44443e-11 -1.27311e-10
-2.61176e-11 2.29111e-11 -2.444e-11
3.88303e-13 2.74254e-13 -1.06788e-13
1.0751e-11 3.65399e-12 -7.2637e-12
2.15436e-10 1.5893e-11 -3.24474e-11
1.01694e-10 -3.81446e-11 3.90536e-12
2.89089e-11 -1.32035e-11 1.08294e-11
1.11244e-10 -3.46214e-11 2.73221e-11
1.70536e-12 -4.08429e-11 3.16954e-11
2.04336e-10 1.31387e-10 1.38582e-10
-3.02154e-12 1.52897e-11 -2.33334e-11
-4.70831e-11 5.67997e-11 1.09842e-11
5.13973e-13 1.56348e-13 -7.21017e-14
3.84737e-11 4.61502e-11 -3.23018e-11
7.77518e-11 -7.76316e-11 3.75165e-11
1.38735e-10 5.73874e-11 -1.5369e-11
7.19605e-11 -6.224e-11 4.49119e-11
1.303e-11 7.70405e-11 -2.1604e-12
7.75361e-11 1.94847e-10 1.2279e-10
8.05498e-11 -4.84385e-12 2.54548e-12
1.80144e-10 -8.95761e-11 -3.80785e-13
1.91286e-24 -5.14403e-24 -4.1359e-25
-3.74745e-11 -2.45527e-11 2.2945e-11
-4.38314e-11 -7.04629e-11 3.37408e-11
-4.80464e-11 5.31832e-11 -6.78956e-11
-5.49931e-11 5.96098e-11 -1.028e-11
-3.45791e-11 4.95227e-11 1.45293e-11
-4.47665e-11 -9.64948e-11 7.2636e-11
-7.49017e-12 1.1998e-10 -2.62695e-12
-8.66082e-11 -7.29983e-12 -1.31089e-11
1.25886e-10 3.85683e-11 -2.18405e-11
1.21987e-10 -4.99624e-11 7.17568e-11
6.97557e-13 -4.51131e-14 -4.27712e-15
9.06688e-11 7.60997e-11 -1.50045e-11
-7.46995e-11 -2.4065e-11 -9.632e-12
1.38522e-11 2.51136e-11 -1.76871e-11
4.8478e-11 4.2388e-11 -4.89491e-11
-1.94738e-11 2.41259e-10 3.30443e-10
6.43914e-11 -5.13956e-11 4.22226e-11
-1.51612e-11 -1.60159e-10 1.46951e-10
3.48656e-11 6.57181e-11 -1.99281e-11
1.79989e-11 -1.1478e-10 1.00872e-10
3.24729e-11 -4.24635e-11 4.4141e-11
-4.07234e-10 1.47839e-11 -4.31468e-11
4.04467e-13 2.16919e-13 -8.18781e-14
4.28808e-11 1.05761e-10 1.39658e-11
1.41604e-10 -6.48209e-11 5.68764e-11
2.43716e-11 1.12791e-11 9.29971e-12
-1.69924e-13 1.37493e-11 -1.81161e-11
-3.53651e-11 -2.12076e-11 -3.00283e-11
-3.67133e-11 -3.37223e-13 -3.12855e-12
-7.59673e-11 -3.03446e-11 8.11549e-12
4.23982e-11 -2.8782e-11 3.33966e-11
-2.0222e-11 -1.50492e-12 -6.43826e-12
-5.23946e-11 1.5704e-12 2.77206e-11
9.91212e-11 -6.16919e-12 -2.95371e-11
1.089e-10 -7.57206e-11 4.70653e-11
-1.62901e-11 -1.27492e-11 2.32413e-11
-9.47178e-12 -2.18338e-12 -5.78064e-12
-2.47432e-11 -6.75015e-11 -5.06831e-13
-1.63127e-11 1.88834e-11 2.12676e-11
-6.32792e-11 -1.13328e-10 -1.18323e-11
2.04495e-21 -2.50662e-22 -7.58938e-23
0.0 0.0 0.0
4.24825e-11 1.11448e-10 1.85399e-11
-8.06326e-11 -3.54995e-11 5.08884e-11
-1.16304e-11 -7.08532e-11 -8.97254e-11
-8.59607e-11 -1.17532e-10 1.19581e-10