# vtk DataFile Version 3.0
LIGGGHTS particles timestep 54800000
ASCII
DATASET POLYDATA
POINTS 275 float
0.332832 0.0183501 0.00692377
0.332595 0.0175754 0.00736128
0.3327 0.0173812 0.00736578
0.332223 0.0162494 0.00807367
0.338468 0.0171616 0.00743427
0.332843 0.0180075 0.00707841
0.332538 0.0171052 0.00753971
0.338676 0.0180593 0.00705551
0.332494 0.0169389 0.00764172
0.332846 0.0185376 0.006941
0.326699 0.0169303 0.00734285
0.332202 0.0161662 0.00812469
0.32659 0.0172499 0.00727437
0.326804 0.0178567 0.00715167
0.332332 0.0166656 0.00781859
0.33218 0.016083 0.00817571
0.332795 0.01817 0.00700421
0.332798 0.0174088 0.00734744
0.326868 0.0176709 0.00719122
0.338597 0.0176908 0.00718243
0.332472 0.0168546 0.00769338
0.338635 0.0178682 0.00709834
0.326466 0.0167167 0.00750112
0.332505 0.0173314 0.00741048
0.332158 0.0159997 0.00822672
0.332418 0.0169985 0.00761453
0.333017 0.018097 0.00704155
0.332353 0.0167488 0.00776758
0.33849 0.0172497 0.0073923
0.33231 0.0165824 0.00786961
0.332804 0.0178267 0.00715915
0.338736 0.0183532 0.00705359
0.332678 0.017296 0.00741342
0.332764 0.0176462 0.00723974
0.338616 0.0177795 0.00714037
0.332267 0.0164159 0.00797164
0.332861 0.0176797 0.00722657
0.332901 0.0178603 0.00714596
0.338512 0.0173379 0.00735034
0.332288 0.0164991 0.00792063
0.332669 0.0180322 0.00706514
0.338696 0.0181572 0.00705488
0.332375 0.016832 0.00771658
0.332989 0.0181842 0.00700165
0.326943 0.0176059 0.00720773
0.338555 0.0175141 0.00726641
0.332791 0.0186212 0.00694085
0.326623 0.0169906 0.00731743
0.332802 0.0186894 0.00686845
0.338534 0.017426 0.00730838
0.378022 0.019866 0.005332
0.33292 0.01795 0.00710585
0.332245 0.0163327 0.00802266
0.332784 0.0177369 0.00719926
0.332849 0.0184399 0.00688363
0.338577 0.0176023 0.00722444
0.326569 0.0171541 0.00729391
0.326916 0.0180483 0.00719031
0.332911 0.018241 0.00697453
0.332647 0.0175272 0.00729106
0.333048 0.0184726 0.00687282
0.338656 0.0179632 0.00707463
0.326946 0.0179692 0.00713708
0.332898 0.0187176 0.00687148
0.33284 0.0175881 0.00726745
0.332398 0.0169151 0.00766558
0.326488 0.0167975 0.00744566
0.332623 0.0176655 0.00732562
0.32604 0.0154879 0.00852403
0.32676 0.0184862 0.00702664
0.332603 0.0173561 0.00738592
0.326799 0.0178237 0.00724589
0.326718 0.0170228 0.0073098
0.338716 0.0182552 0.00705423
0.326872 0.0181652 0.007095
0.332882 0.0177699 0.0071863
0.332581 0.0172725 0.00743716
0.332799 0.0180136 0.00716818
0.332956 0.018577 0.00684855
0.332929 0.0183326 0.00693854
0.326587 0.0168239 0.00742139
0.332686 0.0179486 0.00719721
0.333016 0.018287 0.00695585
0.332756 0.0182946 0.0070384
0.332818 0.0181031 0.00712795
0.332592 0.0176772 0.00723144
0.326213 0.015813 0.00825119
0.333105 0.018398 0.00690758
0.326575 0.0175959 0.00719067
0.332861 0.0180991 0.00703748
0.326596 0.0176922 0.00717297
0.0643568 0.0187248 0.00531097
0.24257 0.0191927 0.00520306
0.326839 0.0179663 0.00713209
0.326193 0.0157383 0.00831476
0.32665 0.0177005 0.00725693
0.32606 0.0155626 0.00846044
0.332821 0.0187864 0.0068834
0.333056 0.0185687 0.00684578
0.332761 0.0178311 0.0072494
0.332462 0.0171648 0.00751252
0.326411 0.0162112 0.00791632
0.326493 0.017211 0.00726169
0.326534 0.0174034 0.00722608
0.332743 0.0175565 0.00727977
0.332767 0.0180667 0.00705023
0.332823 0.0179167 0.00711898
0.326663 0.0171821 0.00727592
0.332986 0.0186713 0.00686292
0.332657 0.0172128 0.00746444
0.332742 0.0183908 0.00690367
0.33257 0.0175854 0.00726486
0.326947 0.0181014 0.00711133
0.33282 0.0174981 0.00730759
0.332689 0.0177066 0.00721102
0.326232 0.0158877 0.00818762
0.332635 0.0171295 0.00751545
0.332876 0.018196 0.00705681
0.326632 0.0174382 0.00722437
0.326653 0.0175345 0.00720665
0.332722 0.0174672 0.0073196
0.332688 0.0181215 0.00702397
0.332748 0.017976 0.00709074
0.333005 0.01839 0.00690924
0.326605 0.0169052 0.00736593
0.332709 0.0181079 0.00712066
0.332631 0.0178526 0.00714406
0.332527 0.017415 0.00735999
0.326454 0.0163602 0.00778968
0.326848 0.0175747 0.00720891
0.326079 0.0156373 0.00839686
0.326807 0.0173821 0.00724434
0.326118 0.0157866 0.00826972
0.326612 0.017342 0.00724206
0.326478 0.0164371 0.0077244
0.332516 0.0170221 0.0075907
0.326722 0.0182932 0.00706228
0.32664 0.0178982 0.00713508
0.3265 0.0165122 0.00766058
0.326099 0.015712 0.00833329
0.326138 0.0158613 0.00820614
0.326432 0.0162856 0.00785306
0.0219312 0.0187687 0.00551176
0.326544 0.0166631 0.00753233
0.332625 0.0174394 0.00733486
0.326617 0.0177884 0.00715526
0.326801 0.0181034 0.00718917
0.326198 0.0160854 0.00801542
0.326757 0.0180359 0.00711428
0.33265 0.0179421 0.00710408
0.326675 0.0180619 0.00718984
0.326816 0.0183261 0.00706075
0.326682 0.0181003 0.00709785
0.326797 0.0182294 0.00707861
0.332867 0.0185298 0.00684346
0.326473 0.0171147 0.00727919
0.332952 0.0184891 0.00689599
0.32624 0.0162343 0.00788883
0.326508 0.0171342 0.00737068
0.326252 0.0159623 0.00812407
0.326629 0.0176043 0.00727463
0.326754 0.0180047 0.00720925
0.33276 0.0184806 0.00686354
0.326703 0.0177927 0.00724603
0.332937 0.0184263 0.00697232
0.326827 0.0174784 0.00722662
0.326966 0.0181979 0.00709351
0.332813 0.0182601 0.006964
0.332669 0.0176165 0.00725125
0.332724 0.0183009 0.0069438
0.32073 0.0183357 0.00691617
0.33244 0.0170817 0.00756352
0.326514 0.0173072 0.00724379
0.332873 0.0186212 0.00688345
0.326825 0.0179251 0.00722206
0.326709 0.0178275 0.00715241
0.326769 0.0176629 0.00718761
0.320403 0.0169118 0.00760874
0.326763 0.0171902 0.00727949
0.326729 0.0178961 0.00722229
0.326174 0.0156637 0.00837833
0.326742 0.0179381 0.00713259
0.326566 0.0167433 0.00747664
0.332729 0.0178864 0.00713078
0.326885 0.0177842 0.00716999
0.3264 0.0164835 0.00768091
0.326444 0.0166358 0.00755652
0.326315 0.0161858 0.00793401
0.326642 0.0170859 0.00729356
0.326548 0.0170556 0.00730842
0.33256 0.0171893 0.00748818
0.332483 0.0172482 0.00746149
0.326853 0.0180636 0.00711385
0.332706 0.0182117 0.00698514
0.332781 0.0179207 0.00720957
0.320636 0.0178785 0.00713752
0.326294 0.0161113 0.00799733
0.33278 0.0185779 0.00685147
0.326555 0.0174997 0.00720839
0.332776 0.0173205 0.00738904
0.326673 0.0176308 0.00718894
0.332937 0.0180411 0.00706516
0.326369 0.0166926 0.00752393
0.332517 0.0173521 0.00750758
0.326726 0.0176359 0.00727381
0.320654 0.0179669 0.00709462
0.320596 0.0177021 0.00722327
0.326891 0.0182621 0.00707712
0.326399 0.0166991 0.0076191
0.326777 0.0181325 0.00709648
0.326654 0.0179612 0.00721146
0.333153 0.0185477 0.00684106
0.326325 0.0165362 0.00764093
0.326514 0.0170355 0.00740029
0.326433 0.0169383 0.00736476
0.320294 0.0164725 0.00782308
0.320359 0.016736 0.00769453
0.320273 0.0163848 0.00786589
0.326786 0.017095 0.00729926
0.326748 0.0175665 0.00720535
0.320316 0.0165603 0.00778025
0.320512 0.0173508 0.00739456
0.326261 0.0163087 0.00782554
0.32655 0.017365 0.00731712
0.320446 0.0170876 0.00752298
0.326358 0.0163346 0.00780748
0.332709 0.0177969 0.00717105
0.320533 0.0174385 0.00735176
0.320712 0.018247 0.00695873
0.320468 0.0171753 0.00748017
0.326498 0.0167259 0.00759523
0.326901 0.0178813 0.00715188
0.326523 0.016588 0.00759616
0.326521 0.0172556 0.00734673
0.320555 0.0175262 0.00730895
0.32666 0.0179944 0.00711737
0.326528 0.016961 0.00733382
0.326453 0.0170261 0.00732136
0.320425 0.0169997 0.00756584
0.326157 0.0159361 0.00814247
0.320748 0.0184251 0.00687525
0.326694 0.017727 0.00717123
0.326379 0.016409 0.00774428
0.326786 0.0172859 0.00726203
0.326728 0.0174703 0.00722305
0.332549 0.0174992 0.00731077
0.326741 0.0183897 0.00704446
0.320616 0.0177903 0.0071804
0.326423 0.0165618 0.007621
0.320577 0.017614 0.00726614
0.326219 0.0161598 0.00795212
0.326336 0.0162602 0.00787073
0.326283 0.0163831 0.00776224
0.326686 0.0172778 0.00725846
0.320781 0.01818 0.00698545
0.320673 0.0180553 0.00705172
0.326631 0.0178592 0.00722676
0.320338 0.0166481 0.0077374
0.326385 0.0167838 0.00756781
0.32639 0.016773 0.00746854
0.326177 0.0160108 0.00807885
0.326347 0.0166136 0.00758125
0.326788 0.0177596 0.00716978
0.326273 0.0160369 0.00806064
0.326509 0.0168786 0.00739008
0.326707 0.017374 0.00724077
0.326702 0.0181967 0.00708008
0.326412 0.0168543 0.00741446
0.326472 0.0169432 0.00745675
0.320691 0.0181437 0.00700881
0.326304 0.0164593 0.00770116
0.332704 0.018201 0.00708453
0.320381 0.0168239 0.00765164
0.32049 0.017263 0.00743737
0.332611 0.017763 0.00718407

VERTICES 275 550
1 0
1 1
1 2
1 3
1 4
1 5
1 6
1 7
1 8
1 9
1 10
1 11
1 12
1 13
1 14
1 15
1 16
1 17
1 18
1 19
1 20
1 21
1 22
1 23
1 24
1 25
1 26
1 27
1 28
1 29
1 30
1 31
1 32
1 33
1 34
1 35
1 36
1 37
1 38
1 39
1 40
1 41
1 42
1 43
1 44
1 45
1 46
1 47
1 48
1 49
1 50
1 51
1 52
1 53
1 54
1 55
1 56
1 57
1 58
1 59
1 60
1 61
1 62
1 63
1 64
1 65
1 66
1 67
1 68
1 69
1 70
1 71
1 72
1 73
1 74
1 75
1 76
1 77
1 78
1 79
1 80
1 81
1 82
1 83
1 84
1 85
1 86
1 87
1 88
1 89
1 90
1 91
1 92
1 93
1 94
1 95
1 96
1 97
1 98
1 99
1 100
1 101
1 102
1 103
1 104
1 105
1 106
1 107
1 108
1 109
1 110
1 111
1 112
1 113
1 114
1 115
1 116
1 117
1 118
1 119
1 120
1 121
1 122
1 123
1 124
1 125
1 126
1 127
1 128
1 129
1 130
1 131
1 132
1 133
1 134
1 135
1 136
1 137
1 138
1 139
1 140
1 141
1 142
1 143
1 144
1 145
1 146
1 147
1 148
1 149
1 150
1 151
1 152
1 153
1 154
1 155
1 156
1 157
1 158
1 159
1 160
1 161
1 162
1 163
1 164
1 165
1 166
1 167
1 168
1 169
1 170
1 171
1 172
1 173
1 174
1 175
1 176
1 177
1 178
1 179
1 180
1 181
1 182
1 183
1 184
1 185
1 186
1 187
1 188
1 189
1 190
1 191
1 192
1 193
1 194
1 195
1 196
1 197
1 198
1 199
1 200
1 201
1 202
1 203
1 204
1 205
1 206
1 207
1 208
1 209
1 210
1 211
1 212
1 213
1 214
1 215
1 216
1 217
1 218
1 219
1 220
1 221
1 222
1 223
1 224
1 225
1 226
1 227
1 228
1 229
1 230
1 231
1 232
1 233
1 234
1 235
1 236
1 237
1 238
1 239
1 240
1 241
1 242
1 243
1 244
1 245
1 246
1 247
1 248
1 249
1 250
1 251
1 252
1 253
1 254
1 255
1 256
1 257
1 258
1 259
1 260
1 261
1 262
1 263
1 264
1 265
1 266
1 267
1 268
1 269
1 270
1 271
1 272
1 273
1 274

POINT_DATA 275
SCALARS id int 1
LOOKUP_TABLE default
1
2
4
5
6
7
8
9
10
11
12
13
14
16
17
19
21
22
23
24
25
26
27
28
29
30
31
32
33
34
35
36
37
38
39
41
42
44
45
47
48
49
50
51
52
53
54
55
56
57
59
60
61
62
63
64
65
66
67
68
69
70
71
72
73
74
76
77
78
79
80
82
83
84
85
86
87
88
89
90
91
92
93
94
95
96
97
98
99
100
101
102
103
104
105
106
107
108
109
110
111
112
113
114
115
116
117
118
119
120
121
122
123
124
125
127
128
129
130
131
132
133
134
135
136
137
138
140
141
142
143
144
146
147
148
149
150
151
153
154
155
156
157
158
159
160
162
164
165
166
167
168
169
170
171
172
173
174
176
177
178
179
182
183
184
185
186
187
188
189
190
191
192
193
194
195
196
197
198
199
200
201
202
203
204
205
206
207
208
209
210
211
212
213
214
215
216
217
218
219
220
222
224
225
226
227
228
229
230
232
233
234
235
236
237
239
240
241
242
243
244
246
247
248
249
250
251
252
253
254
255
256
257
258
259
260
261
262
263
264
265
266
267
268
269
270
271
272
273
274
275
276
277
278
279
280
281
283
284
285
286
287
288
289
290
291
292
293
294
295
296
297
298
299
300

SCALARS type int 1
LOOKUP_TABLE default
1
1
1
1
1
1
1
1
1
1
1
1
1
1
1
1
1
1
1
1
1
1
1
1
1
1
1
1
1
1
1
1
1
1
1
1
1
1
1
1
1
1
1
1
1
1
1
1
1
1
1
1
1
1
1
1
1
1
1
1
1
1
1
1
1
1
1
1
1
1
1
1
1
1
1
1
1
1
1
1
1
1
1
1
1
1
1
1
1
1
1
1
1
1
1
1
1
1
1
1
1
1
1
1
1
1
1
1
1
1
1
1
1
1
1
1
1
1
1
1
1
1
1
1
1
1
1
1
1
1
1
1
1
1
1
1
1
1
1
1
1
1
1
1
1
1
1
1
1
1
1
1
1
1
1
1
1
1
1
1
1
1
1
1
1
1
1
1
1
1
1
1
1
1
1
1
1
1
1
1
1
1
1
1
1
1
1
1
1
1
1
1
1
1
1
1
1
1
1
1
1
1
1
1
1
1
1
1
1
1
1
1
1
1
1
1
1
1
1
1
1
1
1
1
1
1
1
1
1
1
1
1
1
1
1
1
1
1
1
1
1
1
1
1
1
1
1
1
1
1
1
1
1
1
1
1
1
1
1
1
1
1
1
1
1
1
1
1
1
1
1
1
1
1
1

SCALARS radius float 1
LOOKUP_TABLE default
5e-05
5e-05
5e-05
5e-05
5e-05
5e-05
5e-05
5e-05
5e-05
5e-05
5e-05
5e-05
5e-05
5e-05
5e-05
5e-05
5e-05
5e-05
5e-05
5e-05
5e-05
5e-05
5e-05
5e-05
5e-05
5e-05
5e-05
5e-05
5e-05
5e-05
5e-05
5e-05
5e-05
5e-05
5e-05
5e-05
5e-05
5e-05
5e-05
5e-05
5e-05
5e-05
5e-05
5e-05
5e-05
5e-05
5e-05
5e-05
5e-05
5e-05
5e-05
5e-05
5e-05
5e-05
5e-05
5e-05
5e-05
5e-05
5e-05
5e-05
5e-05
5e-05
5e-05
5e-05
5e-05
5e-05
5e-05
5e-05
5e-05
5e-05
5e-05
5e-05
5e-05
5e-05
5e-05
5e-05
5e-05
5e-05
5e-05
5e-05
5e-05
5e-05
5e-05
5e-05
5e-05
5e-05
5e-05
5e-05
5e-05
5e-05
5e-05
5e-05
5e-05
5e-05
5e-05
5e-05
5e-05
5e-05
5e-05
5e-05
5e-05
5e-05
5e-05
5e-05
5e-05
5e-05
5e-05
5e-05
5e-05
5e-05
5e-05
5e-05
5e-05
5e-05
5e-05
5e-05
5e-05
5e-05
5e-05
5e-05
5e-05
5e-05
5e-05
5e-05
5e-05
5e-05
5e-05
5e-05
5e-05
5e-05
5e-05
5e-05
5e-05
5e-05
5e-05
5e-05
5e-05
5e-05
5e-05
5e-05
5e-05
5e-05
5e-05
5e-05
5e-05
5e-05
5e-05
5e-05
5e-05
5e-05
5e-05
5e-05
5e-05
5e-05
5e-05
5e-05
5e-05
5e-05
5e-05
5e-05
5e-05
5e-05
5e-05
5e-05
5e-05
5e-05
5e-05
5e-05
5e-05
5e-05
5e-05
5e-05
5e-05
5e-05
5e-05
5e-05
5e-05
5e-05
5e-05
5e-05
5e-05
5e-05
5e-05
5e-05
5e-05
5e-05
5e-05
5e-05
5e-05
5e-05
5e-05
5e-05
5e-05
5e-05
5e-05
5e-05
5e-05
5e-05
5e-05
5e-05
5e-05
5e-05
5e-05
5e-05
5e-05
5e-05
5e-05
5e-05
5e-05
5e-05
5e-05
5e-05
5e-05
5e-05
5e-05
5e-05
5e-05
5e-05
5e-05
5e-05
5e-05
5e-05
5e-05
5e-05
5e-05
5e-05
5e-05
5e-05
5e-05
5e-05
5e-05
5e-05
5e-05
5e-05
5e-05
5e-05
5e-05
5e-05
5e-05
5e-05
5e-05
5e-05
5e-05
5e-05
5e-05
5e-05
5e-05
5e-05
5e-05
5e-05
5e-05
5e-05
5e-05
5e-05
5e-05
5e-05
5e-05
5e-05
5e-05
5e-05
5e-05
5e-05
5e-05
5e-05
5e-05
5e-05
5e-05
5e-05
5e-05
5e-05
5e-05
5e-05
5e-05
5e-05
5e-05

SCALARS mass float 1
LOOKUP_TABLE default
1.46608e-10
1.46608e-10
1.46608e-10
1.46608e-10
1.46608e-10
1.46608e-10
1.46608e-10
1.46608e-10
1.46608e-10
1.46608e-10
1.46608e-10
1.46608e-10
1.46608e-10
1.46608e-10
1.46608e-10
1.46608e-10
1.46608e-10
1.46608e-10
1.46608e-10
1.46608e-10
1.46608e-10
1.46608e-10
1.46608e-10
1.46608e-10
1.46608e-10
1.46608e-10
1.46608e-10
1.46608e-10
1.46608e-10
1.46608e-10
1.46608e-10
1.46608e-10
1.46608e-10
1.46608e-10
1.46608e-10
1.46608e-10
1.46608e-10
1.46608e-10
1.46608e-10
1.46608e-10
1.46608e-10
1.46608e-10
1.46608e-10
1.46608e-10
1.46608e-10
1.46608e-10
1.46608e-10
1.46608e-10
1.46608e-10
1.46608e-10
1.46608e-10
1.46608e-10
1.46608e-10
1.46608e-10
1.46608e-10
1.46608e-10
1.46608e-10
1.46608e-10
1.46608e-10
1.46608e-10
1.46608e-10
1.46608e-10
1.46608e-10
1.46608e-10
1.46608e-10
1.46608e-10
1.46608e-10
1.46608e-10
1.46608e-10
1.46608e-10
1.46608e-10
1.46608e-10
1.46608e-10
1.46608e-10
1.46608e-10
1.46608e-10
1.46608e-10
1.46608e-10
1.46608e-10
1.46608e-10
1.46608e-10
1.46608e-10
1.46608e-10
1.46608e-10
1.46608e-10
1.46608e-10
1.46608e-10
1.46608e-10
1.46608e-10
1.46608e-10
1.46608e-10
1.46608e-10
1.46608e-10
1.46608e-10
1.46608e-10
1.46608e-10
1.46608e-10
1.46608e-10
1.46608e-10
1.46608e-10
1.46608e-10
1.46608e-10
1.46608e-10
1.46608e-10
1.46608e-10
1.46608e-10
1.46608e-10
1.46608e-10
1.46608e-10
1.46608e-10
1.46608e-10
1.46608e-10
1.46608e-10
1.46608e-10
1.46608e-10
1.46608e-10
1.46608e-10
1.46608e-10
1.46608e-10
1.46608e-10
1.46608e-10
1.46608e-10
1.46608e-10
1.46608e-10
1.46608e-10
1.46608e-10
1.46608e-10
1.46608e-10
1.46608e-10
1.46608e-10
1.46608e-10
1.46608e-10
1.46608e-10
1.46608e-10
1.46608e-10
1.46608e-10
1.46608e-10
1.46608e-10
1.46608e-10
1.46608e-10
1.46608e-10
1.46608e-10
1.46608e-10
1.46608e-10
1.46608e-10
1.46608e-10
1.46608e-10
1.46608e-10
1.46608e-10
1.46608e-10
1.46608e-10
1.46608e-10
1.46608e-10
1.46608e-10
1.46608e-10
1.46608e-10
1.46608e-10
1.46608e-10
1.46608e-10
1.46608e-10
1.46608e-10
1.46608e-10
1.46608e-10
1.46608e-10
1.46608e-10
1.46608e-10
1.46608e-10
1.46608e-10
1.46608e-10
1.46608e-10
1.46608e-10
1.46608e-10
1.46608e-10
1.46608e-10
1.46608e-10
1.46608e-10
1.46608e-10
1.46608e-10
1.46608e-10
1.46608e-10
1.46608e-10
1.46608e-10
1.46608e-10
1.46608e-10
1.46608e-10
1.46608e-10
1.46608e-10
1.46608e-10
1.46608e-10
1.46608e-10
1.46608e-10
1.46608e-10
1.46608e-10
1.46608e-10
1.46608e-10
1.46608e-10
1.46608e-10
1.46608e-10
1.46608e-10
1.46608e-10
1.46608e-10
1.46608e-10
1.46608e-10
1.46608e-10
1.46608e-10
1.46608e-10
1.46608e-10
1.46608e-10
1.46608e-10
1.46608e-10
1.46608e-10
1.46608e-10
1.46608e-10
1.46608e-10
1.46608e-10
1.46608e-10
1.46608e-10
1.46608e-10
1.46608e-10
1.46608e-10
1.46608e-10
1.46608e-10
1.46608e-10
1.46608e-10
1.46608e-10
1.46608e-10
1.46608e-10
1.46608e-10
1.46608e-10
1.46608e-10
1.46608e-10
1.46608e-10
1.46608e-10
1.46608e-10
1.46608e-10
1.46608e-10
1.46608e-10
1.46608e-10
1.46608e-10
1.46608e-10
1.46608e-10
1.46608e-10
1.46608e-10
1.46608e-10
1.46608e-10
1.46608e-10
1.46608e-10
1.46608e-10
1.46608e-10
1.46608e-10
1.46608e-10
1.46608e-10
1.46608e-10
1.46608e-10
1.46608e-10
1.46608e-10
1.46608e-10
1.46608e-10
1.46608e-10
1.46608e-10
1.46608e-10
1.46608e-10
1.46608e-10
1.46608e-10
1.46608e-10
1.46608e-10
1.46608e-10
1.46608e-10
1.46608e-10
1.46608e-10
1.46608e-10
1.46608e-10
1.46608e-10
1.46608e-10
1.46608e-10

VECTORS velocity float
0.00562237 0.000316001 -3.02694e-05
0.00583336 0.000361967 -0.000239725
0.00562872 -7.1681e-05 -0.000969953
0.00595542 4.93168e-05 -0.000638822
0.00579513 -0.00136214 0.000225244
0.00565782 0.000384248 -5.6665e-05
0.00603853 -3.51036e-05 -0.000599609
0.00531059 -0.00115371 0.000638668
0.00602417 -2.81745e-05 -0.000602069
0.00566612 0.000324026 -2.68875e-05
0.00555049 -0.000582621 1.51062e-05
0.00595493 5.84508e-05 -0.000645758
0.00561281 -0.000472623 0.000379777
0.00566375 -0.000500583 0.000392448
0.00599415 3.39497e-06 -0.000617266
0.00594375 6.7861e-05 -0.00065067
0.00563098 0.000357092 -5.02361e-05
0.00615417 0.000361472 -4.16048e-05
0.00561515 -0.000437545 0.000375992
0.00520511 -0.00122999 0.000205315
0.00601787 -2.27829e-05 -0.000604347
0.00549869 -0.00128869 0.000212004
0.00609578 -0.000570884 0.000325505
0.00607248 -3.22871e-05 -0.000606958
0.00593641 7.54953e-05 -0.000653913
0.00602975 -2.16756e-05 -0.000605854
0.00562405 0.0003489 -4.59461e-05
0.00600576 -2.84108e-06 -0.000614933
0.00579305 -0.00136218 0.000225463
0.00598162 1.03631e-05 -0.000618859
0.00578886 0.000269469 -6.11846e-06
0.00531503 -0.00115505 0.000639337
0.00610434 -8.94972e-07 -0.00062683
0.00565955 0.000259797 -4.86188e-06
0.00540097 -0.00126882 0.000209618
0.00598109 2.98718e-05 -0.000631457
0.00565117 0.000173989 3.3767e-05
0.00569138 0.000409931 -7.34404e-05
0.00579086 -0.00136209 0.000225523
0.00598386 1.98937e-05 -0.000625749
0.00564377 0.000323648 -4.37526e-05
0.00531102 -0.0011538 0.000638778
0.00601221 -1.0623e-05 -0.000611708
0.00559355 0.000339165 -4.04032e-05
0.00561416 -0.000435436 0.000375405
0.00578789 -0.00136122 0.000225403
0.00569402 0.000317174 -3.11382e-05
0.00556136 -0.000531509 0.000103689
0.00569277 0.00031548 -3.63915e-05
0.00578818 -0.00136131 0.000225271
-5.02044e-15 -7.41193e-15 7.69802e-14
0.0056684 0.000412595 -7.17552e-05
0.00595966 4.18524e-05 -0.000634332
0.00571248 0.000237572 8.15499e-06
0.00569359 0.000304795 -2.51542e-05
0.00537609 -0.00126757 0.000210813
0.00558912 -0.000493702 0.00030841
0.00539973 -0.000449714 0.000394309
0.00559973 0.000341798 -4.24882e-05
0.00606896 0.000261905 1.08279e-06
0.00568844 0.000341565 -4.07455e-05
0.00538135 -0.00121244 0.000416669
0.00555133 -0.000375755 0.000361548
0.0057036 0.000309981 -3.52579e-05
0.00561089 0.000213959 1.4655e-05
0.00602548 -1.78804e-05 -0.000608714
0.00619931 -0.000660215 2.43674e-05
0.00578359 0.000349714 -6.80085e-05
0.00550907 -0.000312874 0.000515861
0.00531322 -0.000805427 0.000431792
0.00608044 -2.86468e-05 -0.0006181
0.00562962 -0.000524937 0.000393358
0.00562995 -0.000462968 0.000384185
0.00531364 -0.00115447 0.000639081
0.00542786 -0.000570514 0.000392181
0.00575975 0.00023423 9.21754e-06
0.00607651 -3.80678e-05 -0.000601683
0.00563356 0.000385619 -5.13807e-05
0.00571045 0.000308587 -3.65069e-05
0.00562789 0.000333629 -4.02554e-05
0.00616622 -0.000660965 1.36694e-05
0.00575894 0.000363629 -2.4518e-05
0.00559984 0.000270734 -1.16784e-05
0.00560494 0.000324904 -3.53475e-05
0.00563995 0.000371567 -6.01764e-05
0.00575656 0.000288101 -7.19796e-05
0.00549543 -0.000320402 0.000521916
0.00562985 0.00030185 -2.36501e-05
0.00561685 -0.000488191 0.00038497
0.00563282 0.000355328 -5.14916e-05
0.00562647 -0.000487729 0.000386677
4.02026e-15 1.05712e-14 8.29635e-14
3.61636e-22 4.86658e-23 1.23839e-22
0.00150988 0.000139075 3.5625e-05
0.00550262 -0.000318572 0.000520658
0.00562337 -0.000503593 0.000390764
0.00551721 -0.000317768 0.000520609
0.00567133 0.000318945 -3.26536e-05
0.00572408 0.000308784 -3.43179e-05
0.00575568 0.000329646 -2.65228e-05
0.0060473 -2.60696e-05 -0.000605619
0.00599662 -0.000403939 0.000615804
0.00558953 -0.000457425 0.000380965
0.00560767 -0.000476753 0.000382591
0.00585232 0.000429987 -7.81371e-05
0.0056472 0.000346031 -4.43574e-05
0.00566997 0.000381654 -5.83825e-05
0.00561603 -0.000468096 0.000380238
0.00570191 0.000296067 -3.79471e-05
0.00608395 -3.47447e-05 -0.000603925
0.00563082 0.000323 -3.40317e-05
0.00607983 0.000121131 -0.000322248
0.00547674 -0.000514701 0.000382756
0.00584795 0.000430993 -7.83903e-05
0.00569574 0.000287073 -1.46696e-05
0.00550821 -0.000322174 0.00052395
0.00606118 -3.15495e-05 -0.000604081
0.00557338 0.000354413 -5.69031e-05
0.00561015 -0.00048552 0.000384845
0.00561463 -0.000493727 0.000386539
0.0061093 0.000311075 -2.03011e-05
0.00564923 0.000314821 -3.57644e-05
0.00564435 0.000345826 -4.36628e-05
0.005626 0.000375284 -5.93348e-05
0.00557502 -0.000572882 1.1943e-05
0.00564514 0.0003413 -3.83527e-05
0.00579642 0.000310263 -2.60807e-05
0.00607487 -4.35069e-05 -0.000626912
0.00604691 -0.000392648 0.000609261
0.00562249 -0.000440407 0.000377019
0.00551914 -0.000322352 0.000524621
0.00559083 -0.000426049 0.00037271
0.00549574 -0.000326584 0.000527372
0.0056137 -0.000471355 0.000384231
0.00640299 -9.0491e-05 0.000361787
0.00602955 -3.14804e-05 -0.000600732
0.00525716 -0.0007615 0.00042089
0.00562079 -0.000584684 0.00040319
0.00647869 -2.09241e-05 0.000309291
0.00550887 -0.000325688 0.000527071
0.00549429 -0.000309786 0.000512643
0.0060335 -0.000405016 0.000618794
-3.82903e-14 8.16926e-14 2.95886e-13
0.00619957 -0.000298169 0.000607526
0.00607407 -4.26599e-05 -0.000596497
0.00563543 -0.000479928 0.000385092
0.00516809 -0.000619687 0.00046453
0.00571578 -0.00033192 0.000542345
0.0053398 -0.000778918 0.000424723
0.00582237 0.000297079 -2.56099e-05
0.00538531 -0.00064977 0.000471593
0.00533477 -0.000697868 0.000411986
0.00537869 -0.000753399 0.000425326
0.00534127 -0.00066793 0.00040698
0.00572033 0.000300373 -1.74647e-05
0.00559212 -0.000450607 0.000377039
0.00568354 0.000320552 -2.72225e-05
0.00600346 -0.000369857 0.000584062
0.00562913 -0.000450814 0.000366065
0.00559188 -0.000331211 0.00053552
0.00561748 -0.000516345 0.000386537
0.00536735 -0.000864918 0.000382731
0.00569557 0.000317499 -3.13562e-05
0.00567761 -0.000524956 0.000412995
0.00564294 0.000335988 -2.80691e-05
0.00562259 -0.000441698 0.000376357
0.00548378 -0.000513146 0.000383825
0.00560114 0.000336267 -4.19454e-05
0.00581712 0.000383175 -6.27421e-05
0.00559837 0.000321899 -3.6283e-05
0.0054626 -0.000672716 -6.41871e-05
0.00603553 -2.52832e-05 -0.000605317
0.00559927 -0.000468377 0.000379839
0.00570363 0.00031623 -3.3612e-05
0.00494897 -0.000186425 0.000402157
0.00567559 -0.000549475 0.000401321
0.00562453 -0.000513657 0.00039302
0.00641116 0.00134344 -0.00107896
0.00561473 -0.000433904 0.000375957
0.00511929 -0.000792807 0.000818975
0.00551608 -0.000319203 0.000521819
0.0053518 -0.00126957 0.000522573
0.00625246 -0.000657842 1.81557e-05
0.00581064 0.000291273 -1.82043e-05
0.00560827 -0.000429109 0.000373208
0.00607735 -0.000384912 0.00060543
0.00627618 -0.000647713 -4.635e-05
0.0059828 -0.000381647 0.000595946
0.00562166 -0.000467904 0.000383653
0.00560909 -0.000456221 0.000359939
0.0060612 -2.80609e-05 -0.00060545
0.00605918 -2.63286e-05 -0.00060481
0.0051962 -0.000370514 0.000346098
0.00561855 0.000319783 -4.07159e-05
0.00575554 0.000389751 -2.07445e-05
0.00603134 0.0011372 -0.000953913
0.00587715 -0.000365834 0.000578129
0.00571766 0.000321356 -3.31649e-05
0.00560877 -0.000483515 0.000384465
0.00562669 6.76494e-05 -0.000617359
0.00562672 -0.000493369 0.000388961
0.0056298 0.00034884 -4.58394e-05
0.00612434 -0.000730949 6.70684e-05
0.00605085 -1.16811e-05 -0.000604538
0.00563173 -0.000517484 0.000395923
0.00597885 0.00115824 -0.000961801
0.00594453 0.00111398 -0.000938774
0.00542026 -0.000592049 0.000396336
0.00621749 -0.000752083 2.93326e-05
0.00536315 -0.000727514 0.000412143
0.00539325 -0.000502574 0.000386997
0.005737 0.000321803 -3.19058e-05
0.00609723 -0.00052306 0.000365098
0.00563895 -0.000742644 0.000315806
0.00615092 -0.000695671 0.00010613
0.00641472 0.00120683 -0.0010149
0.00640287 0.00124952 -0.00103417
0.00642518 0.00121896 -0.00102134
0.00560431 -0.000438664 0.000377308
0.00562753 -0.000490346 0.000385934
0.00640732 0.00120707 -0.0010145
0.00627979 0.000977325 -0.000897069
0.00603366 -0.000368497 0.000587352
0.00560344 -0.000471917 0.000383554
0.00630005 0.000955408 -0.000888562
0.00604956 -0.000386511 0.000602793
0.00575899 0.000280711 -9.59256e-06
0.00627066 0.000996413 -0.000905729
0.00541377 -0.000663122 -5.69609e-05
0.00629279 0.000957182 -0.000888831
0.00630784 0.00055514 5.90784e-05
0.00565422 -0.000432992 0.000379857
0.00655738 3.20959e-05 0.000273858
0.00561654 -0.000448959 0.000368397
0.00627631 0.00100896 -0.000912315
0.0053889 -0.000544894 0.000381008
0.0055822 -0.000555045 1.59864e-06
0.00560743 -0.000476799 0.000306403
0.00641733 0.00139865 -0.00110538
0.00551588 -0.000175563 0.000397822
0.00553249 -0.00053394 0.000250301
0.00563136 -0.000495053 0.000389505
0.00606053 -0.000384859 0.000601169
0.00558956 -0.000421884 0.000372141
0.00562544 -0.000479428 0.000383518
0.00609185 6.86254e-06 -0.000531346
0.00526547 -0.000789095 0.00042609
0.00600488 0.0011205 -0.000945419
0.00624313 -0.000446941 0.000222716
0.006026 0.00107989 -0.00092826
0.00597761 -0.000367616 0.000585015
0.00602174 -0.000383912 0.000600324
0.00606447 -0.000356966 0.00059363
0.00559101 -0.000463964 0.000379339
0.00642642 0.000206908 -0.000544777
0.00591721 0.00118369 -0.000969894
0.00567181 -0.00053736 0.000412096
0.00640334 0.00122118 -0.00102086
0.00615935 -0.000743046 7.27498e-05
0.0061312 -0.000715545 7.87476e-05
0.00546747 -0.000299376 0.000502205
0.00611558 -0.000671653 0.000156395
0.00563105 -0.000507936 0.000389618
0.00572966 -0.000346437 0.000555083
0.00616015 -0.000690782 6.13389e-05
0.00559964 -0.00046949 0.000380779
0.00537232 -0.000769638 0.000426604
0.00613871 -0.000708344 7.01828e-05
0.00618795 -0.000719382 9.68658e-05
0.00590709 0.00119848 -0.000975078
0.00608537 -0.0003958 0.000540699
0.00563637 0.000337761 -4.60173e-05
0.00640586 0.00129181 -0.00105429
0.00628929 0.000963223 -0.000891731
0.00573623 0.000323884 -2.66538e-05

VECTORS force float
-3.43029e-11 3.26309e-11 3.85132e-12
-1.13634e-11 1.19265e-11 -5.43962e-11
-2.04811e-10 -6.28778e-11 -1.48072e-10
1.36652e-10 -5.99857e-11 1.74345e-11
5.04818e-12 1.84989e-11 -9.0018e-12
1.90048e-10 -1.2724e-10 6.45464e-11
1.01778e-11 3.80978e-11 -2.02031e-11
1.41219e-12 -1.4798e-11 2.19517e-12
7.02255e-11 3.86758e-11 -3.08779e-11
9.80234e-11 4.18112e-11 -1.61746e-11
-1.27606e-10 4.92285e-11 1.70552e-11
2.27271e-11 -4.66762e-12 -1.83436e-11
1.92426e-11 -1.65117e-12 9.60589e-11
7.75568e-11 1.49199e-10 -1.97484e-11
-3.44147e-11 -2.51299e-11 2.79694e-11
-2.64146e-11 -4.61279e-12 -1.53029e-12
8.28595e-11 -9.27163e-11 4.20926e-11
-3.63709e-11 1.67976e-11 1.14392e-12
-1.26891e-10 3.50246e-11 4.95663e-12
-6.74616e-11 1.91641e-11 -2.43709e-12
-4.51033e-12 -3.74689e-11 3.12537e-11
-2.39839e-12 -5.10367e-12 1.27939e-12
2.21995e-10 -5.46129e-10 3.3619e-10
-1.05066e-11 5.36477e-11 -8.47976e-12
-2.94349e-12 -2.11666e-11 8.73968e-12
4.66772e-11 5.0977e-11 -4.11732e-11
-1.72293e-11 4.66422e-11 -1.36127e-11
2.02654e-12 2.08719e-11 -2.15267e-11
2.5589e-12 2.38518e-11 -1.02638e-11
9.37631e-11 -6.09469e-11 1.2416e-11
-1.37359e-11 -1.742e-11 1.79247e-11
-2.00411e-12 -3.45288e-12 6.99316e-13
1.15692e-10 -2.87429e-11 -1.847e-11
8.32831e-11 -5.38664e-11 2.68281e-11
-4.26628e-11 9.54056e-12 -2.83055e-12
3.70227e-12 -2.7021e-11 3.10687e-11
-3.11159e-12 6.23621e-11 -2.53625e-11
1.26936e-10 -9.44014e-11 5.43141e-11
1.65643e-11 2.32262e-11 -1.39628e-11
1.2532e-10 -1.23707e-11 -1.90591e-11
1.18864e-10 -2.39176e-10 1.1294e-10
-1.21144e-12 -1.89688e-11 -5.2265e-13
-3.07259e-11 5.63499e-11 -3.39145e-11
1.01634e-10 9.24101e-11 -1.8837e-11
-2.52735e-10 7.92068e-11 -2.61964e-11
2.61381e-11 2.29197e-11 -1.28789e-11
5.34527e-11 1.52637e-10 6.7371e-11
-1.12555e-10 1.06643e-10 -3.77244e-11
-5.15616e-11 -1.55059e-11 -4.19551e-12
-1.74731e-11 2.03603e-11 -5.78302e-12
-1.89993e-24 4.80799e-24 2.06795e-25
1.56883e-10 -1.55944e-10 9.21126e-11
2.44969e-11 -8.22003e-11 7.58844e-11
1.51904e-11 1.96787e-12 1.02709e-11
-2.46691e-10 -1.58314e-11 1.45039e-11
7.47137e-13 5.67246e-12 -4.0188e-12
-1.07679e-10 -8.58916e-11 -1.29293e-10
1.5455e-11 -3.60229e-11 -1.36021e-10
1.36871e-11 6.9032e-11 -5.37152e-11
4.32228e-12 4.96796e-11 -2.75314e-11
-5.39776e-11 8.19723e-11 -5.20656e-11
1.21766e-11 -1.6304e-11 -5.14105e-12
1.70018e-10 -2.40908e-12 -1.80919e-11
-5.19744e-11 6.00643e-11 3.62914e-12
-4.42413e-11 -2.16416e-10 9.69374e-11
-7.55236e-11 4.52819e-11 -2.93047e-11
3.21016e-10 -3.19466e-10 2.17112e-10
-2.50431e-11 -1.85287e-11 -2.89539e-11
-5.0628e-11 -1.1327e-10 9.90886e-11
5.71923e-11 7.46796e-11 -2.07764e-11
-3.32068e-11 -1.82575e-10 1.91534e-11
1.58949e-10 1.38008e-10 -5.77876e-11
-6.59718e-11 -6.82618e-11 -5.55114e-11
-3.09222e-12 -1.5359e-11 1.63661e-14
2.02371e-11 1.06989e-10 -2.04327e-11
1.96502e-11 4.84612e-11 -1.14524e-11
-4.11256e-11 -3.20004e-11 1.50555e-11
-1.03904e-11 -9.70843e-11 2.8412e-11
4.83538e-11 1.49703e-10 3.31408e-11
-5.21572e-11 8.38284e-11 -1.53239e-10
-2.1139e-10 3.64271e-10 1.73841e-10
7.41696e-11 -2.54154e-11 1.65716e-10
-2.20754e-10 1.3138e-11 -6.20324e-11
2.87987e-13 -1.2501e-10 5.22126e-11
7.07644e-11 -1.33096e-10 4.51002e-11
6.26532e-12 -1.56218e-11 -5.73282e-11
3.68925e-11 -2.99152e-11 2.77977e-11
9.57485e-11 9.31526e-11 -4.52638e-11
-1.22864e-11 3.72438e-11 -2.86841e-11
-1.31975e-11 -8.28733e-11 -4.65879e-12
8.78097e-12 1.71398e-10 -4.86644e-11
1.06669e-21 -5.10422e-22 1.07533e-23
0.0 0.0 0.0
-5.39554e-11 2.9052e-10 -1.49868e-10
-2.0815e-11 -4.60515e-11 4.00342e-11
-3.6792e-11 -5.99776e-11 -3.92471e-11
-6.31866e-11 -7.68922e-11 6.2011e-11
1.56751e-11 -4.89429e-11 -2.7884e-11