# vtk DataFile Version 3.0
LIGGGHTS particles timestep 81800000
ASCII
DATASET POLYDATA
POINTS 267 float
0.383991 0.018743 5.17586e-05
0.384819 0.0170553 5.28427e-05
0.384087 0.0172099 5.18841e-05
0.38485 0.0177728 5.2884e-05
0.384289 0.0192285 5.21489e-05
0.384427 0.0170974 5.23295e-05
0.383731 0.0178959 5.14179e-05
0.384909 0.0174916 5.29614e-05
0.383705 0.0185838 5.13839e-05
0.384274 0.0169453 5.213e-05
0.384609 0.0178943 5.25685e-05
0.383937 0.0189513 8.69758e-05
0.384166 0.0169334 5.1988e-05
0.384566 0.0170745 5.25117e-05
0.384704 0.0183371 5.2693e-05
0.384375 0.0179486 5.22621e-05
0.385006 0.0203197 5.3088e-05
0.38429 0.0178938 5.21501e-05
0.384317 0.0180308 5.21862e-05
0.384369 0.0166304 5.22533e-05
0.383765 0.0178016 5.14632e-05
0.384682 0.0173846 0.000130728
0.38392 0.0176635 5.16661e-05
0.384334 0.0168628 5.2208e-05
0.38458 0.0173478 5.25303e-05
0.384267 0.018175 5.21197e-05
0.384809 0.0175939 5.28295e-05
0.384554 0.0172495 5.24957e-05
0.38474 0.0177115 5.27396e-05
0.383862 0.0177748 5.15892e-05
0.383928 0.0185154 5.16766e-05
0.384806 0.0179346 5.28267e-05
0.384295 0.0179641 0.000123125
0.383664 0.0197976 5.13305e-05
0.38332 0.0192284 0.00522714
0.384012 0.018459 5.17866e-05
0.384188 0.017154 5.20161e-05
0.39343 0.0166644 0.0084344
0.383611 0.0181742 5.1261e-05
0.384194 0.0185569 5.20241e-05
0.384353 0.0181246 5.22331e-05
0.383985 0.019032 5.17502e-05
0.38427 0.0217777 5.21238e-05
0.3849 0.0167228 5.29491e-05
0.384094 0.0196551 5.18938e-05
0.383596 0.0188939 5.12421e-05
0.384074 0.0171039 5.18678e-05
0.38361 0.0192266 5.12599e-05
0.378022 0.019866 0.005332
0.384997 0.0170277 5.3077e-05
0.384469 0.0166233 5.23854e-05
0.385119 0.0166834 5.32362e-05
0.383572 0.0182666 5.12106e-05
0.38415 0.0174668 5.19668e-05
0.384314 0.0196963 5.21813e-05
0.38401 0.0186182 5.17838e-05
0.384443 0.0179216 0.000120816
0.383601 0.0187724 5.12477e-05
0.383695 0.0199014 5.13714e-05
0.383708 0.0192011 5.13883e-05
0.383848 0.0178769 5.15715e-05
0.384751 0.0204726 5.27548e-05
0.384789 0.0203241 5.2804e-05
0.384148 0.0172907 5.19645e-05
0.384899 0.0180553 5.29479e-05
0.384454 0.0177342 5.23646e-05
0.384159 0.0206443 5.19783e-05
0.383985 0.017428 5.1751e-05
0.384471 0.0161368 5.23876e-05
0.384894 0.0205458 5.29418e-05
0.383993 0.0188764 5.17615e-05
0.383849 0.0193448 5.15725e-05
0.383935 0.0179283 5.16858e-05
0.384931 0.0175954 5.29902e-05
0.383272 0.0191349 0.0052273
0.38382 0.0176837 5.15355e-05
0.384046 0.0179367 5.18308e-05
0.384723 0.0172283 5.27177e-05
0.384191 0.017054 5.20202e-05
0.383736 0.0207666 5.1425e-05
0.383683 0.0188356 5.13558e-05
0.384606 0.0176837 5.25637e-05
0.38444 0.0183063 5.23472e-05
0.383724 0.0194164 5.14094e-05
0.384303 0.0183686 5.21674e-05
0.384848 0.0173718 5.28812e-05
0.384322 0.0214999 5.21918e-05
0.0643568 0.0187248 0.00531097
0.24257 0.0191927 0.00520306
0.384443 0.0190455 5.23502e-05
0.384764 0.0176468 0.000125094
0.383893 0.0187182 5.16305e-05
0.385147 0.0177812 0.000122873
0.383662 0.0180867 5.13271e-05
0.384177 0.0192838 5.20024e-05
0.384493 0.0193015 5.24162e-05
0.384709 0.0176058 5.26985e-05
0.384647 0.0185896 5.26184e-05
0.383921 0.0178347 0.00010527
0.384105 0.0183256 5.19082e-05
0.38367 0.0183173 5.13384e-05
0.383786 0.0180677 5.14897e-05
0.384446 0.0168712 5.23543e-05
0.383701 0.0187017 5.13793e-05
0.383906 0.018619 5.16476e-05
0.384144 0.01791 5.19592e-05
0.384817 0.0185465 5.28405e-05
0.384225 0.0179695 5.20647e-05
0.383933 0.0192279 5.16831e-05
0.384096 0.0170045 5.18952e-05
0.384626 0.016764 5.25911e-05
0.384295 0.018231 0.000129802
0.384383 0.0169852 5.22722e-05
0.383806 0.0179676 5.15164e-05
0.383859 0.0175842 5.15859e-05
0.38345 0.0177196 0.00536012
0.384418 0.0164926 5.23174e-05
0.383591 0.0185347 5.12355e-05
0.383574 0.0183691 5.12127e-05
0.383667 0.0199993 5.13343e-05
0.384475 0.0176309 5.23931e-05
0.383925 0.0184105 5.16721e-05
0.384418 0.0178531 5.23181e-05
0.384798 0.0171606 5.28155e-05
0.384313 0.0171449 5.21807e-05
0.385769 0.0165473 5.40881e-05
0.384333 0.0177947 5.22067e-05
0.384385 0.0195542 5.22753e-05
0.384085 0.018684 5.18824e-05
0.384719 0.0170987 5.27125e-05
0.383894 0.0174902 5.16321e-05
0.384744 0.0173967 5.27447e-05
0.383756 0.0184867 5.14508e-05
0.384727 0.0201861 5.27225e-05
0.384074 0.0170516 0.000137426
0.384584 0.0177681 0.000101539
0.384544 0.0163094 5.24825e-05
0.384233 0.0168376 5.20754e-05
0.0219312 0.0187687 0.00551176
0.384319 0.0167636 5.21878e-05
0.384228 0.0177075 5.20694e-05
0.38353 0.0176621 0.00537757
0.38396 0.0191288 5.17179e-05
0.384146 0.0189135 5.19615e-05
0.384895 0.0168866 5.2943e-05
0.384921 0.0196039 5.29764e-05
0.383956 0.019484 5.17133e-05
0.383755 0.019009 5.14493e-05
0.383888 0.0184727 0.00523166
0.384004 0.0193816 5.17764e-05
0.384121 0.0171522 0.000126213
0.384268 0.0190399 5.21214e-05
0.384105 0.0178224 7.97669e-05
0.384124 0.018008 5.19332e-05
0.38435 0.018262 5.22293e-05
0.384053 0.0189567 5.184e-05
0.3843 0.0186551 5.2163e-05
0.384992 0.0180145 5.30695e-05
0.386759 0.0152483 5.53836e-05
0.383617 0.019327 5.12691e-05
0.384403 0.0192492 5.22987e-05
0.384249 0.018274 5.20972e-05
0.38373 0.0197118 5.14173e-05
0.385076 0.0179467 5.31802e-05
0.38396 0.0177554 5.17178e-05
0.383867 0.0210849 5.15964e-05
0.384706 0.0184769 5.26952e-05
0.384023 0.0181084 5.1801e-05
0.383672 0.0184195 5.13415e-05
0.384122 0.0182248 5.1931e-05
0.383967 0.0181955 5.17273e-05
0.384122 0.0181236 5.19307e-05
0.383676 0.0181534 0.000124512
0.383816 0.019228 5.15292e-05
0.38465 0.0174377 5.26211e-05
0.3851 0.0177266 5.32113e-05
0.385006 0.0158243 5.30884e-05
0.385094 0.0174355 5.32031e-05
0.384504 0.0179623 5.24301e-05
0.384109 0.0184302 5.19127e-05
0.384524 0.0174713 5.24569e-05
0.38435 0.0178614 0.000125081
0.385023 0.0181691 5.31107e-05
0.385037 0.0175739 5.31289e-05
0.383886 0.018028 5.16209e-05
0.384526 0.016716 5.24592e-05
0.384505 0.0171609 5.24316e-05
0.383978 0.0185238 0.00522879
0.383846 0.0191172 5.15692e-05
0.384625 0.017537 5.25895e-05
0.385553 0.0152374 5.38047e-05
0.384411 0.0184417 5.23083e-05
0.384302 0.0165156 5.21656e-05
0.384399 0.0186101 5.22929e-05
0.384943 0.0187045 5.30057e-05
0.384205 0.0180675 5.20391e-05
0.384058 0.0177382 5.18467e-05
0.384811 0.0174713 5.28328e-05
0.383884 0.0196254 5.16191e-05
0.384574 0.0160758 5.25222e-05
0.384056 0.0180406 0.000117497
0.384183 0.0194731 5.201e-05
0.385084 0.0171004 5.31901e-05
0.38345 0.0186594 0.00522432
0.384483 0.016964 5.24031e-05
0.384564 0.0189811 5.25095e-05
0.385129 0.0178507 5.32485e-05
0.385096 0.0164501 5.32056e-05
0.383933 0.0187648 0.000130442
0.384687 0.0169933 5.26707e-05
0.384262 0.0177729 0.000119547
0.384801 0.0166583 5.28192e-05
0.383909 0.0188216 5.16519e-05
0.38439 0.0209101 5.22816e-05
0.384493 0.0173689 9.64047e-05
0.38382 0.0188681 5.15345e-05
0.384541 0.017902 0.000125062
0.383639 0.0189866 5.12974e-05
0.38453 0.020178 5.24643e-05
0.384661 0.0178084 5.26366e-05
0.384005 0.0178448 5.17769e-05
0.384145 0.0205426 5.19607e-05
0.383856 0.0203056 5.15822e-05
0.38515 0.0175249 5.32762e-05
0.383703 0.0182157 5.13821e-05
0.384352 0.0191511 5.22319e-05
0.384531 0.0168171 5.24664e-05
0.383662 0.0204201 5.13284e-05
0.384524 0.0216685 5.24571e-05
0.384677 0.0173224 5.2657e-05
0.383833 0.0185505 5.15522e-05
0.384455 0.0172873 5.2367e-05
0.384148 0.018808 5.1965e-05
0.383874 0.0192744 0.000117813
0.384664 0.0180562 5.26402e-05
0.383681 0.0195344 5.13528e-05
0.384035 0.0173399 5.18167e-05
0.384513 0.0181523 5.24423e-05
0.383985 0.018016 5.17508e-05
0.384204 0.0178183 5.2038e-05
0.384204 0.0183848 5.20381e-05
0.384044 0.0177752 0.000143609
0.38425 0.0173241 5.20975e-05
0.383762 0.0206306 5.14594e-05
0.385192 0.0170617 5.33312e-05
0.3843 0.0175031 5.2164e-05
0.384989 0.0177301 5.30663e-05
0.384608 0.0171655 5.25668e-05
0.383746 0.0191087 5.14383e-05
0.384897 0.0194055 5.2945e-05
0.384732 0.0167368 5.27299e-05
0.383859 0.0194467 5.15855e-05
0.384511 0.017816 5.24399e-05
0.384761 0.017818 5.27671e-05
0.384417 0.0167417 5.23161e-05
0.384905 0.0179551 5.29553e-05
0.38472 0.0175079 6.94547e-05
0.38371 0.0179981 5.13903e-05
0.384101 0.0193494 5.19028e-05
0.384429 0.0174321 5.23324e-05
0.383845 0.0189654 5.1567e-05
0.383647 0.0190875 5.13083e-05
0.384035 0.0172167 0.000137258
0.383829 0.0183804 5.15472e-05
0.384428 0.0175321 5.23311e-05
0.38404 0.0171308 0.000188309
0.383994 0.0172487 5.17625e-05

VERTICES 267 534
1 0
1 1
1 2
1 3
1 4
1 5
1 6
1 7
1 8
1 9
1 10
1 11
1 12
1 13
1 14
1 15
1 16
1 17
1 18
1 19
1 20
1 21
1 22
1 23
1 24
1 25
1 26
1 27
1 28
1 29
1 30
1 31
1 32
1 33
1 34
1 35
1 36
1 37
1 38
1 39
1 40
1 41
1 42
1 43
1 44
1 45
1 46
1 47
1 48
1 49
1 50
1 51
1 52
1 53
1 54
1 55
1 56
1 57
1 58
1 59
1 60
1 61
1 62
1 63
1 64
1 65
1 66
1 67
1 68
1 69
1 70
1 71
1 72
1 73
1 74
1 75
1 76
1 77
1 78
1 79
1 80
1 81
1 82
1 83
1 84
1 85
1 86
1 87
1 88
1 89
1 90
1 91
1 92
1 93
1 94
1 95
1 96
1 97
1 98
1 99
1 100
1 101
1 102
1 103
1 104
1 105
1 106
1 107
1 108
1 109
1 110
1 111
1 112
1 113
1 114
1 115
1 116
1 117
1 118
1 119
1 120
1 121
1 122
1 123
1 124
1 125
1 126
1 127
1 128
1 129
1 130
1 131
1 132
1 133
1 134
1 135
1 136
1 137
1 138
1 139
1 140
1 141
1 142
1 143
1 144
1 145
1 146
1 147
1 148
1 149
1 150
1 151
1 152
1 153
1 154
1 155
1 156
1 157
1 158
1 159
1 160
1 161
1 162
1 163
1 164
1 165
1 166
1 167
1 168
1 169
1 170
1 171
1 172
1 173
1 174
1 175
1 176
1 177
1 178
1 179
1 180
1 181
1 182
1 183
1 184
1 185
1 186
1 187
1 188
1 189
1 190
1 191
1 192
1 193
1 194
1 195
1 196
1 197
1 198
1 199
1 200
1 201
1 202
1 203
1 204
1 205
1 206
1 207
1 208
1 209
1 210
1 211
1 212
1 213
1 214
1 215
1 216
1 217
1 218
1 219
1 220
1 221
1 222
1 223
1 224
1 225
1 226
1 227
1 228
1 229
1 230
1 231
1 232
1 233
1 234
1 235
1 236
1 237
1 238
1 239
1 240
1 241
1 242
1 243
1 244
1 245
1 246
1 247
1 248
1 249
1 250
1 251
1 252
1 253
1 254
1 255
1 256
1 257
1 258
1 259
1 260
1 261
1 262
1 263
1 264
1 265
1 266

POINT_DATA 267
SCALARS id int 1
LOOKUP_TABLE default
1
2
4
6
7
8
9
10
11
12
13
14
16
17
19
21
22
23
24
25
26
27
28
29
30
31
32
33
34
35
36
37
38
39
42
44
45
47
48
49
50
51
52
53
54
55
56
57
59
60
62
63
64
65
66
67
68
69
70
71
72
73
74
76
77
78
79
80
82
83
84
85
86
87
88
89
90
91
92
93
94
95
96
98
99
100
101
102
103
104
105
106
107
108
109
110
111
112
113
114
115
116
117
118
119
120
121
122
123
124
125
127
128
129
130
131
132
133
134
135
136
137
138
140
141
142
143
144
146
147
148
149
150
151
153
154
155
156
157
158
159
160
162
165
166
167
168
169
170
171
172
173
174
176
177
178
179
182
183
184
185
186
187
188
189
190
191
192
193
194
195
196
197
198
199
200
201
202
203
204
205
206
207
208
209
210
211
212
213
214
215
217
218
219
220
222
224
225
226
227
228
229
230
232
233
234
235
236
237
239
240
241
242
243
244
246
247
248
249
250
251
252
253
254
255
256
257
258
259
260
261
262
263
264
265
266
267
268
269
270
271
272
273
274
275
276
277
278
280
281
283
284
285
286
287
288
290
291
292
293
294
295
296
297
298
299
300

SCALARS type int 1
LOOKUP_TABLE default
1
1
1
1
1
1
1
1
1
1
1
1
1
1
1
1
1
1
1
1
1
1
1
1
1
1
1
1
1
1
1
1
1
1
1
1
1
1
1
1
1
1
1
1
1
1
1
1
1
1
1
1
1
1
1
1
1
1
1
1
1
1
1
1
1
1
1
1
1
1
1
1
1
1
1
1
1
1
1
1
1
1
1
1
1
1
1
1
1
1
1
1
1
1
1
1
1
1
1
1
1
1
1
1
1
1
1
1
1
1
1
1
1
1
1
1
1
1
1
1
1
1
1
1
1
1
1
1
1
1
1
1
1
1
1
1
1
1
1
1
1
1
1
1
1
1
1
1
1
1
1
1
1
1
1
1
1
1
1
1
1
1
1
1
1
1
1
1
1
1
1
1
1
1
1
1
1
1
1
1
1
1
1
1
1
1
1
1
1
1
1
1
1
1
1
1
1
1
1
1
1
1
1
1
1
1
1
1
1
1
1
1
1
1
1
1
1
1
1
1
1
1
1
1
1
1
1
1
1
1
1
1
1
1
1
1
1
1
1
1
1
1
1
1
1
1
1
1
1
1
1
1
1
1
1
1
1
1
1
1
1
1
1
1
1
1
1

SCALARS radius float 1
LOOKUP_TABLE default
5e-05
5e-05
5e-05
5e-05
5e-05
5e-05
5e-05
5e-05
5e-05
5e-05
5e-05
5e-05
5e-05
5e-05
5e-05
5e-05
5e-05
5e-05
5e-05
5e-05
5e-05
5e-05
5e-05
5e-05
5e-05
5e-05
5e-05
5e-05
5e-05
5e-05
5e-05
5e-05
5e-05
5e-05
5e-05
5e-05
5e-05
5e-05
5e-05
5e-05
5e-05
5e-05
5e-05
5e-05
5e-05
5e-05
5e-05
5e-05
5e-05
5e-05
5e-05
5e-05
5e-05
5e-05
5e-05
5e-05
5e-05
5e-05
5e-05
5e-05
5e-05
5e-05
5e-05
5e-05
5e-05
5e-05
5e-05
5e-05
5e-05
5e-05
5e-05
5e-05
5e-05
5e-05
5e-05
5e-05
5e-05
5e-05
5e-05
5e-05
5e-05
5e-05
5e-05
5e-05
5e-05
5e-05
5e-05
5e-05
5e-05
5e-05
5e-05
5e-05
5e-05
5e-05
5e-05
5e-05
5e-05
5e-05
5e-05
5e-05
5e-05
5e-05
5e-05
5e-05
5e-05
5e-05
5e-05
5e-05
5e-05
5e-05
5e-05
5e-05
5e-05
5e-05
5e-05
5e-05
5e-05
5e-05
5e-05
5e-05
5e-05
5e-05
5e-05
5e-05
5e-05
5e-05
5e-05
5e-05
5e-05
5e-05
5e-05
5e-05
5e-05
5e-05
5e-05
5e-05
5e-05
5e-05
5e-05
5e-05
5e-05
5e-05
5e-05
5e-05
5e-05
5e-05
5e-05
5e-05
5e-05
5e-05
5e-05
5e-05
5e-05
5e-05
5e-05
5e-05
5e-05
5e-05
5e-05
5e-05
5e-05
5e-05
5e-05
5e-05
5e-05
5e-05
5e-05
5e-05
5e-05
5e-05
5e-05
5e-05
5e-05
5e-05
5e-05
5e-05
5e-05
5e-05
5e-05
5e-05
5e-05
5e-05
5e-05
5e-05
5e-05
5e-05
5e-05
5e-05
5e-05
5e-05
5e-05
5e-05
5e-05
5e-05
5e-05
5e-05
5e-05
5e-05
5e-05
5e-05
5e-05
5e-05
5e-05
5e-05
5e-05
5e-05
5e-05
5e-05
5e-05
5e-05
5e-05
5e-05
5e-05
5e-05
5e-05
5e-05
5e-05
5e-05
5e-05
5e-05
5e-05
5e-05
5e-05
5e-05
5e-05
5e-05
5e-05
5e-05
5e-05
5e-05
5e-05
5e-05
5e-05
5e-05
5e-05
5e-05
5e-05
5e-05
5e-05
5e-05
5e-05
5e-05
5e-05
5e-05
5e-05
5e-05
5e-05
5e-05
5e-05
5e-05
5e-05
5e-05
5e-05
5e-05
5e-05
5e-05
5e-05
5e-05
5e-05
5e-05
5e-05
5e-05
5e-05
5e-05
5e-05
5e-05
5e-05

SCALARS mass float 1
LOOKUP_TABLE default
1.46608e-10
1.46608e-10
1.46608e-10
1.46608e-10
1.46608e-10
1.46608e-10
1.46608e-10
1.46608e-10
1.46608e-10
1.46608e-10
1.46608e-10
1.46608e-10
1.46608e-10
1.46608e-10
1.46608e-10
1.46608e-10
1.46608e-10
1.46608e-10
1.46608e-10
1.46608e-10
1.46608e-10
1.46608e-10
1.46608e-10
1.46608e-10
1.46608e-10
1.46608e-10
1.46608e-10
1.46608e-10
1.46608e-10
1.46608e-10
1.46608e-10
1.46608e-10
1.46608e-10
1.46608e-10
1.46608e-10
1.46608e-10
1.46608e-10
1.46608e-10
1.46608e-10
1.46608e-10
1.46608e-10
1.46608e-10
1.46608e-10
1.46608e-10
1.46608e-10
1.46608e-10
1.46608e-10
1.46608e-10
1.46608e-10
1.46608e-10
1.46608e-10
1.46608e-10
1.46608e-10
1.46608e-10
1.46608e-10
1.46608e-10
1.46608e-10
1.46608e-10
1.46608e-10
1.46608e-10
1.46608e-10
1.46608e-10
1.46608e-10
1.46608e-10
1.46608e-10
1.46608e-10
1.46608e-10
1.46608e-10
1.46608e-10
1.46608e-10
1.46608e-10
1.46608e-10
1.46608e-10
1.46608e-10
1.46608e-10
1.46608e-10
1.46608e-10
1.46608e-10
1.46608e-10
1.46608e-10
1.46608e-10
1.46608e-10
1.46608e-10
1.46608e-10
1.46608e-10
1.46608e-10
1.46608e-10
1.46608e-10
1.46608e-10
1.46608e-10
1.46608e-10
1.46608e-10
1.46608e-10
1.46608e-10
1.46608e-10
1.46608e-10
1.46608e-10
1.46608e-10
1.46608e-10
1.46608e-10
1.46608e-10
1.46608e-10
1.46608e-10
1.46608e-10
1.46608e-10
1.46608e-10
1.46608e-10
1.46608e-10
1.46608e-10
1.46608e-10
1.46608e-10
1.46608e-10
1.46608e-10
1.46608e-10
1.46608e-10
1.46608e-10
1.46608e-10
1.46608e-10
1.46608e-10
1.46608e-10
1.46608e-10
1.46608e-10
1.46608e-10
1.46608e-10
1.46608e-10
1.46608e-10
1.46608e-10
1.46608e-10
1.46608e-10
1.46608e-10
1.46608e-10
1.46608e-10
1.46608e-10
1.46608e-10
1.46608e-10
1.46608e-10
1.46608e-10
1.46608e-10
1.46608e-10
1.46608e-10
1.46608e-10
1.46608e-10
1.46608e-10
1.46608e-10
1.46608e-10
1.46608e-10
1.46608e-10
1.46608e-10
1.46608e-10
1.46608e-10
1.46608e-10
1.46608e-10
1.46608e-10
1.46608e-10
1.46608e-10
1.46608e-10
1.46608e-10
1.46608e-10
1.46608e-10
1.46608e-10
1.46608e-10
1.46608e-10
1.46608e-10
1.46608e-10
1.46608e-10
1.46608e-10
1.46608e-10
1.46608e-10
1.46608e-10
1.46608e-10
1.46608e-10
1.46608e-10
1.46608e-10
1.46608e-10
1.46608e-10
1.46608e-10
1.46608e-10
1.46608e-10
1.46608e-10
1.46608e-10
1.46608e-10
1.46608e-10
1.46608e-10
1.46608e-10
1.46608e-10
1.46608e-10
1.46608e-10
1.46608e-10
1.46608e-10
1.46608e-10
1.46608e-10
1.46608e-10
1.46608e-10
1.46608e-10
1.46608e-10
1.46608e-10
1.46608e-10
1.46608e-10
1.46608e-10
1.46608e-10
1.46608e-10
1.46608e-10
1.46608e-10
1.46608e-10
1.46608e-10
1.46608e-10
1.46608e-10
1.46608e-10
1.46608e-10
1.46608e-10
1.46608e-10
1.46608e-10
1.46608e-10
1.46608e-10
1.46608e-10
1.46608e-10
1.46608e-10
1.46608e-10
1.46608e-10
1.46608e-10
1.46608e-10
1.46608e-10
1.46608e-10
1.46608e-10
1.46608e-10
1.46608e-10
1.46608e-10
1.46608e-10
1.46608e-10
1.46608e-10
1.46608e-10
1.46608e-10
1.46608e-10
1.46608e-10
1.46608e-10
1.46608e-10
1.46608e-10
1.46608e-10
1.46608e-10
1.46608e-10
1.46608e-10
1.46608e-10
1.46608e-10
1.46608e-10
1.46608e-10
1.46608e-10
1.46608e-10
1.46608e-10
1.46608e-10
1.46608e-10
1.46608e-10
1.46608e-10
1.46608e-10
1.46608e-10
1.46608e-10
1.46608e-10
1.46608e-10
1.46608e-10
1.46608e-10
1.46608e-10
1.46608e-10
1.46608e-10
1.46608e-10
1.46608e-10
1.46608e-10
1.46608e-10
1.46608e-10

VECTORS velocity float
7.86969e-19 2.13091e-21 -5.98258e-16
-9.20524e-19 8.61562e-21 7.02844e-16
-5.58454e-20 2.49399e-21 2.90808e-17
4.87157e-19 -8.25217e-22 -3.71584e-16
2.81057e-18 -1.0122e-21 -2.14593e-15
2.24033e-18 -5.54098e-22 -1.71051e-15
2.24037e-18 1.89243e-22 -1.71052e-15
1.7976e-18 1.20134e-21 -1.37249e-15
2.81058e-18 2.37169e-21 -2.14593e-15
2.24034e-18 2.3246e-21 -1.71052e-15
-2.46576e-12 1.56317e-12 -2.1334e-13
5.35495e-19 -8.70113e-22 -4.06398e-16
2.24036e-18 9.22834e-23 -1.71052e-15
2.24036e-18 -1.58585e-22 -1.71052e-15
1.79761e-18 -5.39128e-20 -1.37251e-15
3.21248e-12 2.781e-13 1.5632e-13
8.71372e-19 -9.05245e-21 -6.65298e-16
6.29871e-13 2.12134e-13 -1.91445e-13
-8.32019e-15 3.33142e-14 -1.89418e-14
2.24033e-18 -1.56548e-21 -1.71051e-15
2.24032e-18 8.81689e-23 -1.71051e-15
-8.55751e-20 6.36314e-21 9.01943e-17
2.24037e-18 -2.66231e-22 -1.71052e-15
2.24033e-18 4.3156e-21 -1.71052e-15
-1.11514e-19 -3.75121e-21 9.0202e-17
1.63123e-20 -8.89218e-22 -7.47559e-18
1.04384e-19 4.30396e-21 -7.99217e-17
2.24034e-18 1.60731e-22 -1.71052e-15
1.05262e-19 -2.19641e-21 -7.99197e-17
-2.18133e-19 2.7474e-21 1.69475e-16
-3.50196e-19 -9.48927e-22 2.67381e-16
1.79761e-18 2.28491e-21 -1.37251e-15
-4.84717e-14 -1.18832e-13 -1.581e-13
-3.50193e-19 7.41064e-22 2.67381e-16
1.28259e-16 2.45388e-20 3.78515e-14
1.79763e-18 6.63289e-23 -1.37251e-15
-3.33891e-20 -2.00273e-21 2.91004e-17
-0.000288328 -0.00223839 0.00284398
-8.00765e-19 -2.629e-22 6.08849e-16
1.79764e-18 2.57049e-22 -1.37251e-15
1.79761e-18 -9.75361e-22 -1.37249e-15
5.35607e-19 -1.5182e-22 -4.06396e-16
2.00504e-18 -1.18884e-22 -1.5309e-15
2.24033e-18 4.92744e-21 -1.71052e-15
2.81054e-18 -6.29873e-22 -2.14593e-15
2.81056e-18 8.9966e-22 -2.14593e-15
-4.23786e-20 -3.76753e-22 2.91241e-17
-3.5018e-19 3.25746e-21 2.67381e-16
-5.01981e-15 -7.41188e-15 7.69802e-14
2.24035e-18 2.61469e-21 -1.71052e-15
2.24034e-18 -1.5994e-21 -1.71052e-15
2.24036e-18 5.74713e-21 -1.71052e-15
1.79755e-18 -1.05723e-22 -1.37249e-15
2.24033e-18 -2.32147e-20 -1.71052e-15
-3.50194e-19 -3.07748e-21 2.67381e-16
-3.50218e-19 -2.94219e-21 2.67382e-16
9.35795e-12 -7.78087e-12 -2.07805e-13
2.81058e-18 6.19121e-22 -2.14593e-15
-3.50209e-19 5.7371e-21 2.67381e-16
2.81056e-18 -3.98962e-21 -2.14593e-15
-2.16089e-19 1.04942e-21 1.69475e-16
2.00504e-18 -5.0606e-22 -1.5309e-15
8.71353e-19 -1.25825e-21 -6.65298e-16
2.24032e-18 5.0217e-22 -1.71052e-15
1.79759e-18 -1.57628e-21 -1.37249e-15
2.24036e-18 -1.40428e-21 -1.71052e-15
2.00507e-18 -1.17408e-20 -1.5309e-15
2.24036e-18 2.60797e-21 -1.71051e-15
2.24032e-18 -2.59625e-21 -1.71051e-15
2.00504e-18 -3.9231e-22 -1.5309e-15
5.32343e-19 -6.61987e-21 -4.06404e-16
1.03568e-19 -3.96662e-22 -8.03914e-17
-9.20555e-19 -4.75352e-22 7.02843e-16
1.79761e-18 2.4086e-21 -1.37249e-15
1.28258e-16 -3.73447e-22 3.78515e-14
2.24032e-18 3.59619e-21 -1.71051e-15
2.24032e-18 -1.33512e-21 -1.71052e-15
2.24034e-18 1.25065e-21 -1.71052e-15
-9.20571e-19 1.4804e-21 7.02843e-16
-1.15573e-18 -1.01171e-22 8.82406e-16
-3.50205e-19 -7.9464e-21 2.67383e-16
4.82669e-19 2.47659e-21 -3.71584e-16
1.79763e-18 -9.1938e-24 -1.37251e-15
-3.50196e-19 -2.62851e-21 2.67382e-16
1.79761e-18 5.81656e-21 -1.37249e-15
2.24036e-18 -3.43623e-21 -1.71052e-15
2.00503e-18 -3.31201e-23 -1.5309e-15
4.29566e-15 1.0474e-14 8.29617e-14
-3.43631e-22 4.86658e-23 1.23839e-22
-3.50202e-19 -1.2282e-21 2.67381e-16
9.26603e-20 -2.1572e-21 -7.99304e-17
7.79637e-19 2.91977e-21 -5.98255e-16
-8.24881e-21 -3.69163e-21 -2.81824e-21
-7.98494e-19 3.64882e-21 6.0885e-16
2.81055e-18 4.62423e-22 -2.14593e-15
2.81054e-18 -1.22626e-22 -2.14593e-15
1.04875e-19 -1.70653e-21 -7.99312e-17
1.7976e-18 -4.78387e-21 -1.37251e-15
-2.21357e-19 1.2648e-20 1.69473e-16
1.79755e-18 2.4456e-21 -1.37249e-15
1.79759e-18 -4.40722e-22 -1.37251e-15
2.24033e-18 6.67335e-22 -1.71052e-15
-9.46444e-19 1.08937e-20 7.02812e-16
-3.50222e-19 -3.2491e-22 2.67381e-16
7.84606e-19 4.53956e-22 -5.98253e-16
-9.58545e-15 4.97824e-15 -7.02706e-15
1.79761e-18 -3.17322e-21 -1.37251e-15
-2.83513e-14 -9.13053e-14 -7.62951e-15
1.05166e-19 1.69293e-21 -8.03881e-17
7.3617e-21 -6.66906e-21 -4.17044e-19
2.24035e-18 5.30973e-21 -1.71052e-15
1.54118e-20 1.36221e-20 -7.47673e-18
-9.20529e-19 5.08762e-22 7.02842e-16
-2.26865e-19 -1.60278e-22 1.69475e-16
2.24034e-18 -6.19285e-22 -1.71052e-15
-1.2317e-17 2.71894e-14 8.96636e-14
2.24032e-18 -7.47656e-22 -1.71052e-15
-3.50172e-19 -4.01699e-20 2.67382e-16
2.81059e-18 -2.926e-21 -2.14593e-15
2.81056e-18 -1.98911e-22 -2.14593e-15
-9.20549e-19 -1.19357e-20 7.02843e-16
1.79758e-18 6.38732e-24 -1.37249e-15
1.12569e-13 -2.11584e-12 -6.65441e-13
2.24036e-18 -5.2483e-21 -1.71052e-15
2.24036e-18 -1.10276e-20 -1.71052e-15
1.45282e-18 -2.83628e-22 -1.10923e-15
-5.12884e-19 1.91382e-21 3.87842e-16
-3.50177e-19 -1.28067e-20 2.67381e-16
2.81057e-18 1.78035e-21 -2.14593e-15
2.24036e-18 -2.75324e-20 -1.71052e-15
2.24037e-18 1.76869e-21 -1.71052e-15
-1.09355e-19 -3.84807e-21 9.01829e-17
2.81054e-18 2.0167e-21 -2.14593e-15
8.71339e-19 -3.46388e-21 -6.65298e-16
-1.01459e-20 -7.72941e-21 1.12955e-21
4.88539e-19 5.04222e-21 -3.71591e-16
-9.20544e-19 -1.29124e-20 7.02844e-16
2.24034e-18 -6.1647e-23 -1.71051e-15
-3.82978e-14 8.16682e-14 2.95891e-13
2.24033e-18 -2.45859e-20 -1.71052e-15
-5.11724e-19 9.50813e-21 3.87837e-16
-1.43916e-18 2.72032e-14 8.96594e-14
-3.50211e-19 -5.24301e-22 2.6738e-16
-3.50219e-19 -1.14381e-20 2.6738e-16
-9.20555e-19 2.86924e-20 7.02845e-16
8.71383e-19 -2.93734e-20 -6.65297e-16
2.81054e-18 1.51564e-22 -2.14593e-15
2.81056e-18 -1.52257e-21 -2.14593e-15
6.88111e-16 -4.5769e-15 -5.98175e-14
2.81054e-18 -1.25169e-21 -2.14593e-15
-6.05756e-20 -1.68493e-21 2.91197e-17
-3.50206e-19 -1.00669e-20 2.67381e-16
1.88945e-15 -2.3817e-15 -4.42132e-15
1.01457e-15 1.61862e-15 -3.20615e-15
1.45743e-20 -2.15755e-22 -7.47398e-18
2.81057e-18 -1.55333e-22 -2.14593e-15
1.79762e-18 -3.94768e-21 -1.37251e-15
1.79764e-18 3.09249e-21 -1.37251e-15
1.45286e-18 -2.70307e-21 -1.10923e-15
2.81054e-18 1.74702e-21 -2.14593e-15
-3.50187e-19 -1.43242e-21 2.67381e-16
1.14818e-20 -3.40683e-22 -7.47483e-18
-3.50204e-19 2.3861e-21 2.67381e-16
1.79757e-18 8.57918e-21 -1.37249e-15
2.24034e-18 3.18622e-22 -1.71051e-15
-1.15568e-18 -1.8063e-20 8.82406e-16
1.79758e-18 -2.56265e-21 -1.37249e-15
-1.64047e-15 1.87947e-16 -2.30803e-15
-3.50222e-19 -5.05057e-22 2.67382e-16
1.79758e-18 -1.94429e-20 -1.37249e-15
1.79763e-18 1.59509e-21 -1.37251e-15
1.79756e-18 -2.33213e-23 -1.37249e-15
-8.10414e-19 2.14876e-21 6.08853e-16
1.08955e-19 8.20712e-23 -8.03862e-17
-1.17635e-19 1.47883e-21 9.01927e-17
-5.63914e-22 3.18074e-21 1.10769e-20
1.45287e-18 -5.73835e-22 -1.10923e-15
1.7976e-18 3.79846e-22 -1.37251e-15
-3.90779e-13 -6.60845e-13 1.16108e-12
1.79762e-18 5.6037e-22 -1.37251e-15
2.24037e-18 5.63718e-21 -1.71052e-15
3.90932e-12 8.24602e-13 -7.88021e-13
1.79764e-18 4.15423e-22 -1.37251e-15
1.79759e-18 -1.35874e-21 -1.37249e-15
9.1671e-16 -4.2143e-16 8.62244e-16
2.24037e-18 3.30741e-21 -1.71051e-15
2.24031e-18 -6.02146e-21 -1.71052e-15
-2.82525e-15 1.87927e-14 2.4561e-13
2.81059e-18 -2.60349e-23 -2.14593e-15
9.25265e-20 6.57855e-22 -7.992e-17
1.45285e-18 -5.00183e-22 -1.10923e-15
1.79763e-18 -8.62661e-22 -1.37251e-15
-9.2057e-19 -1.45644e-20 7.02843e-16
1.79759e-18 -4.69508e-21 -1.37251e-15
1.79759e-18 3.80682e-22 -1.37251e-15
1.46991e-14 -1.83086e-14 1.14761e-14
8.69907e-15 -6.77636e-15 -5.5629e-16
1.18402e-19 6.52186e-21 -7.99125e-17
-3.50175e-19 -1.60968e-21 2.67381e-16
2.24036e-18 -1.82247e-21 -1.71052e-15
3.42866e-15 -5.86589e-16 -1.33144e-15
-3.50204e-19 -8.73049e-21 2.67382e-16
-9.20558e-19 1.68992e-21 7.02844e-16
-5.74109e-14 -5.31003e-19 -1.77479e-13
-8.94005e-19 -1.00874e-20 7.02812e-16
-3.50202e-19 -1.59285e-22 2.67382e-16
1.11177e-22 -8.43281e-22 -2.2895e-21
-9.20561e-19 1.53174e-20 7.02842e-16
7.69306e-19 4.10347e-21 -5.98258e-16
2.24032e-18 1.99169e-22 -1.71051e-15
-5.0982e-19 -3.66448e-21 3.87833e-16
2.24031e-18 -3.9318e-21 -1.71051e-15
7.81427e-19 2.28287e-21 -5.98258e-16
2.00503e-18 1.4087e-20 -1.5309e-15
-9.9578e-20 4.00125e-21 9.01928e-17
-3.50207e-19 1.02959e-23 2.6738e-16
-2.75958e-11 -3.09479e-11 2.10811e-12
-3.5018e-19 -2.43667e-21 2.67381e-16
8.7138e-19 4.53031e-21 -6.65297e-16
4.86817e-19 2.36597e-22 -3.71585e-16
-2.26105e-19 4.44921e-22 1.69483e-16
8.71335e-19 3.70205e-21 -6.65298e-16
2.81057e-18 -1.44116e-20 -2.14593e-15
1.7976e-18 9.07445e-21 -1.37249e-15
-7.98206e-19 1.93859e-21 6.08848e-16
-3.50216e-19 -1.84505e-22 2.67382e-16
2.24034e-18 6.93176e-23 -1.71051e-15
-5.14035e-22 2.20221e-23 1.03396e-21
2.00509e-18 -2.23383e-21 -1.5309e-15
-1.05571e-19 -1.99227e-21 9.01882e-17
-3.50205e-19 -7.30948e-23 2.67381e-16
-1.17925e-19 -6.83383e-22 9.01881e-17
-3.50169e-19 5.99784e-21 2.67382e-16
9.95276e-20 3.14243e-21 -8.03892e-17
1.79759e-18 3.44574e-21 -1.37251e-15
-3.5022e-19 -3.37902e-21 2.67382e-16
2.24032e-18 -3.04911e-23 -1.71052e-15
1.79762e-18 8.73216e-21 -1.37251e-15
1.05296e-15 -1.48358e-15 5.3613e-16
-5.04894e-19 2.57661e-21 3.87841e-16
1.79764e-18 3.11671e-21 -1.37251e-15
7.56329e-15 8.44641e-15 -6.02865e-15
2.24031e-18 -5.82996e-22 -1.71051e-15
8.71386e-19 6.90842e-22 -6.65298e-16
-9.20557e-19 -1.34569e-22 7.02844e-16
2.24032e-18 1.4025e-21 -1.71052e-15
1.79756e-18 -2.64016e-22 -1.37249e-15
2.24033e-18 -2.50881e-22 -1.71052e-15
2.81056e-18 -1.23165e-21 -2.14593e-15
8.7135e-19 9.16668e-21 -6.65298e-16
2.24034e-18 -8.57972e-21 -1.71052e-15
2.81059e-18 -1.73414e-21 -2.14593e-15
4.89768e-19 2.76846e-21 -3.71592e-16
4.87092e-19 -6.6729e-23 -3.71584e-16
2.24032e-18 9.65385e-21 -1.71052e-15
1.79762e-18 -1.2218e-21 -1.37251e-15
1.11329e-19 3.24166e-23 -7.99356e-17
2.24036e-18 -7.86531e-22 -1.71052e-15
-3.50173e-19 4.6989e-21 2.67381e-16
-1.11436e-19 1.98015e-21 9.0189e-17
5.31324e-19 -4.32499e-22 -4.06399e-16
-3.50215e-19 -1.48793e-23 2.67381e-16
-7.56715e-18 9.79888e-19 4.04904e-17
1.79764e-18 -1.10052e-21 -1.37251e-15
-1.1938e-19 2.38846e-23 9.0187e-17
-1.31521e-17 3.09494e-17 2.03806e-17
-5.60576e-20 4.70722e-21 5.14926e-17

VECTORS force float
5.16988e-26 0.0 0.0
0.0 -1.97566e-26 0.0
-2.58494e-26 0.0 0.0
0.0 0.0 0.0
0.0 -8.19631e-27 0.0
0.0 -1.02604e-26 0.0
0.0 3.15209e-26 0.0
0.0 1.06722e-26 0.0
0.0 -1.5228e-26 0.0
0.0 -1.12129e-26 0.0
-5.09419e-17 -2.47803e-18 5.9821e-17
0.0 0.0 2.06795e-25
0.0 -1.62011e-27 0.0
0.0 5.73594e-28 0.0
4.03897e-28 -5.04607e-26 0.0
1.75846e-17 -1.54816e-18 3.27027e-18
0.0 2.59858e-25 0.0
3.18014e-18 -6.23184e-19 8.78602e-19
1.09762e-20 2.53408e-19 1.57108e-19
0.0 4.73321e-26 0.0
0.0 -9.00848e-28 0.0
0.0 2.58494e-26 0.0
0.0 -1.40912e-26 0.0
0.0 1.04034e-26 0.0
0.0 0.0 0.0
0.0 0.0 0.0
0.0 0.0 0.0
0.0 -8.90852e-28 0.0
0.0 0.0 0.0
0.0 0.0 0.0
0.0 2.11405e-27 0.0
0.0 -1.50232e-25 0.0
1.88666e-18 -2.44966e-19 4.84902e-19
-4.03897e-28 3.14313e-27 0.0
0.0 -7.92312e-25 0.0
0.0 8.21821e-28 0.0
0.0 -3.23117e-27 0.0
-3.06565e-12 1.99994e-10 -1.60883e-10
0.0 0.0 0.0
0.0 2.83842e-26 0.0
0.0 -8.86188e-27 0.0
0.0 0.0 0.0
0.0 1.2366e-26 0.0
0.0 -1.63673e-26 0.0
0.0 1.42143e-27 0.0
-4.03897e-28 2.14539e-26 0.0
-2.58494e-26 0.0 0.0
0.0 -3.41935e-27 0.0
-8.71125e-24 3.28287e-24 -2.06795e-25
0.0 1.31358e-25 0.0
0.0 -6.4783e-26 0.0
0.0 1.65829e-25 0.0
0.0 3.51032e-27 0.0
0.0 -9.89626e-26 0.0
0.0 2.038e-25 0.0
4.03897e-28 2.20823e-26 0.0
-3.79429e-17 3.0237e-17 4.98075e-18
0.0 2.63985e-27 0.0
0.0 -1.68526e-26 0.0
4.03897e-28 -9.61919e-27 0.0
0.0 0.0 0.0
0.0 -3.89521e-26 0.0
-4.03897e-28 4.78047e-26 0.0
0.0 2.91625e-27 0.0
0.0 2.90943e-27 0.0
0.0 1.03924e-26 0.0
-4.03897e-28 -1.94477e-25 0.0
0.0 -3.13641e-26 0.0
4.03897e-28 -9.98722e-26 0.0
-4.03897e-28 1.59893e-26 0.0
0.0 0.0 0.0
0.0 0.0 0.0
0.0 -9.03068e-27 0.0
0.0 3.26405e-26 0.0
0.0 2.20578e-26 0.0
0.0 2.44457e-26 0.0
0.0 6.48743e-27 0.0
4.03897e-28 8.80247e-27 0.0
0.0 -1.96837e-26 0.0
0.0 2.23726e-26 0.0
0.0 6.3469e-26 0.0
0.0 0.0 0.0
0.0 -7.63146e-29 0.0
0.0 3.5597e-26 0.0
0.0 1.05089e-25 0.0
0.0 3.73755e-27 0.0
0.0 -3.05308e-25 0.0
-2.32203e-21 9.80468e-22 -8.4786e-24
0.0 0.0 0.0
0.0 3.91093e-27 0.0
0.0 0.0 -2.06795e-25
0.0 0.0 0.0
0.0 1.29247e-26 0.0
0.0 0.0 0.0
0.0 -1.98523e-25 0.0
0.0 1.35705e-27 0.0
0.0 1.13091e-26 0.0
0.0 -4.82505e-26 0.0
0.0 -1.29247e-26 0.0
0.0 5.89778e-26 0.0
0.0 -1.18869e-26 0.0
0.0 -5.26068e-27 0.0
6.62391e-26 -1.9387e-26 0.0
0.0 -1.73234e-27 0.0
0.0 0.0 0.0
-1.02438e-19 -4.88313e-20 1.00703e-19
0.0 4.99856e-26 0.0
3.94965e-19 -4.62374e-19 1.9041e-19
0.0 0.0 0.0
0.0 0.0 0.0
0.0 9.13803e-26 0.0
0.0 0.0 0.0
0.0 2.13134e-26 0.0
-1.29247e-26 0.0 0.0
4.03897e-28 -2.84894e-27 0.0
-4.28816e-22 -5.4581e-22 1.65436e-22
0.0 1.11089e-26 0.0
0.0 4.04321e-25 0.0
0.0 -4.1107e-26 0.0
0.0 3.39318e-28 0.0
0.0 2.43173e-26 0.0
0.0 -2.75507e-28 0.0
8.23202e-18 6.59966e-18 1.18908e-17
0.0 3.9995e-26 0.0
0.0 7.36449e-26 0.0
0.0 -1.05315e-25 0.0
0.0 2.58494e-26 0.0
0.0 -2.1016e-25 0.0
0.0 -8.44031e-27 0.0
0.0 -2.54813e-27 0.0
0.0 4.52839e-26 0.0
0.0 0.0 0.0
0.0 1.03331e-25 0.0
0.0 2.86978e-25 0.0
2.58494e-26 -6.46235e-26 -1.5752e-26
0.0 -3.87741e-26 0.0
0.0 1.18872e-25 0.0
0.0 9.28635e-27 0.0
-1.10351e-21 -4.3944e-23 -1.28006e-22
0.0 7.1265e-25 0.0
0.0 5.16988e-26 2.06795e-25
4.46988e-22 5.68919e-22 -1.72467e-22
0.0 -1.15638e-27 0.0
0.0 -6.49868e-26 0.0
0.0 -4.49294e-25 0.0
0.0 -2.20233e-25 0.0
0.0 -8.08519e-28 0.0
0.0 -1.64754e-26 0.0
-3.55106e-24 -9.04729e-26 0.0
0.0 3.98465e-26 0.0
-2.58494e-26 5.16988e-26 0.0
0.0 1.11379e-25 0.0
4.29277e-20 -2.27145e-20 7.18998e-20
1.19308e-20 6.29876e-20 2.1436e-20
0.0 0.0 0.0
4.03897e-28 5.0321e-27 0.0
0.0 -2.19321e-26 0.0
0.0 2.03993e-26 0.0
-4.03897e-28 -1.06798e-25 0.0
0.0 1.1552e-26 0.0
0.0 -1.31958e-26 0.0
0.0 0.0 0.0
0.0 -1.17402e-26 0.0
0.0 -1.00012e-25 0.0
0.0 1.45081e-26 0.0
0.0 -7.83962e-26 0.0
0.0 -1.44043e-26 0.0
-5.12966e-20 4.59876e-20 1.35716e-20
0.0 1.13697e-25 0.0