# vtk DataFile Version 3.0
LIGGGHTS particles timestep 41400000
ASCII
DATASET POLYDATA
POINTS 275 float
0.254705 0.0184466 0.00692641
0.254381 0.0173271 0.00729757
0.254532 0.0172157 0.00736748
0.253901 0.0154989 0.00855788
0.260209 0.0166588 0.00771667
0.254666 0.0178132 0.00702919
0.254372 0.016935 0.00753523
0.260406 0.0174281 0.00719713
0.254018 0.0159061 0.00815617
0.254555 0.0180094 0.00703252
0.248565 0.0169618 0.00747186
0.253882 0.0154523 0.00864436
0.248528 0.0175844 0.00711523
0.248719 0.0180845 0.00698546
0.253999 0.0158225 0.00820779
0.253862 0.0154058 0.00873068
0.254704 0.0179917 0.00694755
0.254331 0.0167676 0.00763667
0.248754 0.0178255 0.00700789
0.260329 0.0170661 0.00729306
0.254059 0.0160735 0.00805474
0.260365 0.0172331 0.00721439
0.248372 0.016918 0.00752305
0.254457 0.0172709 0.00733174
0.253843 0.0153592 0.00881709
0.254146 0.0164074 0.00785249
0.254747 0.0177584 0.00705097
0.254082 0.0161573 0.00800551
0.26023 0.016723 0.00764288
0.253978 0.0157385 0.00825777
0.254628 0.0176376 0.00711702
0.260467 0.0177206 0.00717124
0.254512 0.0171314 0.00741858
0.25459 0.0174675 0.0072148
0.260344 0.0171357 0.00722302
0.253942 0.0155971 0.00838862
0.25463 0.017248 0.00735027
0.254688 0.0174998 0.00719755
0.26025 0.0167896 0.00757126
0.253959 0.0156546 0.00830865
0.254571 0.0182182 0.00692085
0.260426 0.0175256 0.0071885
0.254103 0.0162404 0.00795363
0.254767 0.017848 0.00700733
0.248621 0.0172057 0.00730883
0.260293 0.0169275 0.00743265
0.254928 0.0181792 0.00692891
0.248545 0.0172626 0.00727626
0.254909 0.0180806 0.00692679
0.260272 0.0168585 0.00750196
0.378022 0.019866 0.005332
0.254709 0.0175854 0.00714564
0.253921 0.0155463 0.00847217
0.254609 0.0175514 0.0071639
0.25466 0.0183975 0.00700783
0.260312 0.0169966 0.00736311
0.248584 0.0174391 0.00719066
0.248715 0.0178221 0.00709976
0.254722 0.0180866 0.00692132
0.254514 0.0175226 0.00717905
0.254814 0.0180482 0.00692347
0.260385 0.0173307 0.00720576
0.248888 0.0180503 0.00697668
0.25478 0.0183808 0.00692763
0.254039 0.0159898 0.0081055
0.254124 0.0163239 0.00790306
0.248489 0.0170168 0.00743659
0.2544 0.0174101 0.007245
0.247852 0.0153789 0.00877226
0.248778 0.0183788 0.00698916
0.254476 0.0173547 0.00728086
0.248621 0.0178545 0.00708783
0.248584 0.0170394 0.0074117
0.260447 0.0176231 0.00717987
0.248928 0.0182471 0.00697914
0.254669 0.0174159 0.00724844
0.254437 0.0171866 0.00738283
0.254571 0.0177867 0.00704676
0.254649 0.0180396 0.00701603
0.254741 0.0181847 0.00692343
0.248545 0.0168855 0.0075333
0.254495 0.0178472 0.00702202
0.254211 0.0166577 0.00770087
0.2546 0.0181257 0.0070044
0.2545 0.0177445 0.00716122
0.254477 0.0177589 0.00706499
0.247952 0.0157604 0.00846509
0.254193 0.0165736 0.00775189
0.24851 0.0179221 0.00699994
0.254685 0.0179019 0.0069874
0.24853 0.01802 0.00699373
0.0643568 0.0187248 0.00531097
0.24257 0.0191927 0.00520306
0.248814 0.0181167 0.00698168
0.24791 0.0156082 0.00858783
0.248619 0.0177671 0.00713631
0.247871 0.0154553 0.00871077
0.254834 0.018147 0.0069256
0.254891 0.0179826 0.00693682
0.254362 0.0172422 0.00734681
0.25432 0.0170751 0.00744811
0.247995 0.0159124 0.00834246
0.248433 0.0175535 0.00712525
0.248471 0.0177302 0.00703946
0.254649 0.0173319 0.00729936
0.254646 0.0181524 0.00692012
0.254647 0.017725 0.00707238
0.24866 0.0173822 0.00722321
0.254853 0.0182451 0.0069277
0.25435 0.0168515 0.00758584
0.254649 0.0186106 0.0069273
0.254458 0.0176705 0.00710796
0.248908 0.0181491 0.00697791
0.254235 0.0167417 0.00765225
0.254552 0.0176983 0.00708977
0.247931 0.0156844 0.00852642
0.254168 0.0164909 0.00780193
0.254537 0.0179208 0.00707528
0.248566 0.017761 0.00702944
0.248581 0.0178523 0.00698691
0.254551 0.0172996 0.0073166
0.254666 0.0182504 0.0069222
0.254626 0.0180534 0.00691796
0.254797 0.0179548 0.00695499
0.248526 0.0171743 0.0073191
0.254493 0.0178395 0.0071217
0.254532 0.018024 0.00693629
0.25442 0.0174953 0.00719653
0.248358 0.0165569 0.00780666
0.248735 0.0177372 0.00705081
0.24789 0.0155318 0.00864928
0.248698 0.0175588 0.0071375
0.248038 0.0160615 0.00822214
0.248547 0.0176727 0.00707236
0.24838 0.0166338 0.00774451
0.254276 0.0169081 0.00754924
0.248722 0.0185426 0.0069954
0.248663 0.0182484 0.00699172
0.248405 0.0167119 0.00768133
0.248035 0.0159828 0.00828386
0.248059 0.0161375 0.00816081
0.248336 0.0164809 0.00786798
0.0219312 0.0187687 0.00551176
0.248448 0.0168639 0.0075587
0.254571 0.0173836 0.00726569
0.248549 0.0181181 0.00699425
0.248685 0.0180403 0.00706845
0.248124 0.0163655 0.00797686
0.248758 0.0182807 0.00698793
0.254552 0.0181202 0.00691678
0.248627 0.0185104 0.00699919
0.248797 0.0184768 0.00699039
0.248647 0.0186084 0.00700042
0.248702 0.0184446 0.00699418
0.254724 0.0185447 0.00692851
0.248414 0.0174651 0.00716817
0.254761 0.0182827 0.00692553
0.248167 0.0165174 0.00785423
0.24847 0.0173196 0.00724367
0.248154 0.0161572 0.00813708
0.248462 0.0176417 0.00718185
0.248591 0.0181598 0.00707493
0.254669 0.0187086 0.0069294
0.248531 0.0178073 0.00711126
0.254618 0.0182728 0.00700689
0.248717 0.0176473 0.0070945
0.248983 0.0180827 0.00697291
0.254685 0.0183485 0.0069243
0.254534 0.0176101 0.00713433
0.25463 0.0185125 0.00692519
0.242557 0.0181669 0.00704057
0.254298 0.0169916 0.00749865
0.248452 0.0176418 0.00708235
0.254744 0.0186427 0.00693062
0.248664 0.0179424 0.00706776
0.248644 0.0181503 0.00699048
0.248679 0.0178867 0.00698302
0.242246 0.0168514 0.00771867
0.248602 0.0171173 0.00735175
0.248537 0.0179084 0.00709541
0.247974 0.0158364 0.00840378
0.248739 0.0181827 0.0069867
0.248469 0.0169399 0.00749736
0.254609 0.0179641 0.00696047
0.248774 0.0179193 0.00697924
0.248306 0.0166891 0.00770785
0.24835 0.016842 0.00758436
0.248219 0.0163851 0.00795313
0.24864 0.0172939 0.007266
0.248565 0.0173525 0.00723675
0.254394 0.0170185 0.00748464
0.254416 0.0171021 0.00743402
0.248833 0.0182148 0.00698292
0.25461 0.0184144 0.00692309
0.254495 0.0174387 0.00722994
0.24246 0.0176768 0.00702457
0.248198 0.0163091 0.00801444
0.254688 0.0188067 0.00693151
0.248491 0.0178265 0.0070216
0.254255 0.0168246 0.00759979
0.248605 0.0179535 0.00698808
0.254728 0.0176696 0.00709457
0.248393 0.0169944 0.00746137
0.254342 0.0171585 0.00739752
0.248573 0.0176746 0.00716887
0.24248 0.0177747 0.00702917
0.242429 0.0175209 0.00714586
0.248853 0.0183129 0.00698415
0.248297 0.0169733 0.00748634
0.248704 0.0181383 0.0070695
0.248608 0.0184123 0.00699796
0.254632 0.0179498 0.00705692
0.248254 0.0168214 0.00760897
0.248356 0.017204 0.00730386
0.248375 0.0172908 0.00725798
0.242139 0.0164852 0.00804164
0.242203 0.016705 0.00784785
0.242117 0.016412 0.00810623
0.248524 0.0168094 0.00759463
0.24866 0.0177941 0.00701824
0.242161 0.0165584 0.00797707
0.242353 0.0172183 0.00739624
0.248189 0.0165934 0.00779292
0.248509 0.0174961 0.00715806
0.24229 0.0169978 0.00758956
0.248263 0.0165371 0.00783049
0.25459 0.0178751 0.00700379
0.242372 0.0172936 0.00733313
0.242538 0.0180688 0.00703737
0.242311 0.0170711 0.0075249
0.247833 0.0153024 0.00883376
0.248794 0.0180181 0.00698046
0.248426 0.0167879 0.00762002
0.248489 0.0174079 0.00720089
0.242391 0.0173694 0.00727069
0.248683 0.0183465 0.00699295
0.248451 0.0172313 0.00728651
0.248395 0.0173769 0.00721097
0.242268 0.0169247 0.00765408
0.248081 0.0162135 0.00809949
0.242577 0.0182649 0.00704377
0.248625 0.0180522 0.00698924
0.248284 0.0166131 0.00776917
0.248679 0.0174705 0.00718037
0.248642 0.0177043 0.00706193
0.254439 0.0175829 0.00715246
0.248611 0.0182578 0.00707618
0.242444 0.0175972 0.00708301
0.248328 0.016766 0.0076457
0.24241 0.0174457 0.00720882
0.248146 0.0164414 0.00791555
0.248241 0.0164611 0.0078918
0.24821 0.0166694 0.0077316
0.248604 0.0175274 0.00714782
0.242575 0.0178068 0.00702899
0.242499 0.0178727 0.00703097
0.248569 0.0182162 0.00699549
0.242182 0.0166317 0.00791245
0.248318 0.0170494 0.00742499
0.248413 0.0170712 0.00739965
0.248103 0.0162894 0.00803819
0.248275 0.0168973 0.00754765
0.248699 0.0179858 0.00698424
0.248176 0.0162331 0.00807577
0.248508 0.017095 0.00737719
0.248623 0.0176157 0.00710493
0.248588 0.0183143 0.00699673
0.248431 0.0171483 0.00733876
0.248337 0.0171259 0.00736349
0.242519 0.0179708 0.00703417
0.248232 0.0167454 0.00767028
0.254591 0.0183163 0.00692099
0.242226 0.0167781 0.00778335
0.242333 0.0171444 0.00746031
0.254514 0.0179355 0.00697905

VERTICES 275 550
1 0
1 1
1 2
1 3
1 4
1 5
1 6
1 7
1 8
1 9
1 10
1 11
1 12
1 13
1 14
1 15
1 16
1 17
1 18
1 19
1 20
1 21
1 22
1 23
1 24
1 25
1 26
1 27
1 28
1 29
1 30
1 31
1 32
1 33
1 34
1 35
1 36
1 37
1 38
1 39
1 40
1 41
1 42
1 43
1 44
1 45
1 46
1 47
1 48
1 49
1 50
1 51
1 52
1 53
1 54
1 55
1 56
1 57
1 58
1 59
1 60
1 61
1 62
1 63
1 64
1 65
1 66
1 67
1 68
1 69
1 70
1 71
1 72
1 73
1 74
1 75
1 76
1 77
1 78
1 79
1 80
1 81
1 82
1 83
1 84
1 85
1 86
1 87
1 88
1 89
1 90
1 91
1 92
1 93
1 94
1 95
1 96
1 97
1 98
1 99
1 100
1 101
1 102
1 103
1 104
1 105
1 106
1 107
1 108
1 109
1 110
1 111
1 112
1 113
1 114
1 115
1 116
1 117
1 118
1 119
1 120
1 121
1 122
1 123
1 124
1 125
1 126
1 127
1 128
1 129
1 130
1 131
1 132
1 133
1 134
1 135
1 136
1 137
1 138
1 139
1 140
1 141
1 142
1 143
1 144
1 145
1 146
1 147
1 148
1 149
1 150
1 151
1 152
1 153
1 154
1 155
1 156
1 157
1 158
1 159
1 160
1 161
1 162
1 163
1 164
1 165
1 166
1 167
1 168
1 169
1 170
1 171
1 172
1 173
1 174
1 175
1 176
1 177
1 178
1 179
1 180
1 181
1 182
1 183
1 184
1 185
1 186
1 187
1 188
1 189
1 190
1 191
1 192
1 193
1 194
1 195
1 196
1 197
1 198
1 199
1 200
1 201
1 202
1 203
1 204
1 205
1 206
1 207
1 208
1 209
1 210
1 211
1 212
1 213
1 214
1 215
1 216
1 217
1 218
1 219
1 220
1 221
1 222
1 223
1 224
1 225
1 226
1 227
1 228
1 229
1 230
1 231
1 232
1 233
1 234
1 235
1 236
1 237
1 238
1 239
1 240
1 241
1 242
1 243
1 244
1 245
1 246
1 247
1 248
1 249
1 250
1 251
1 252
1 253
1 254
1 255
1 256
1 257
1 258
1 259
1 260
1 261
1 262
1 263
1 264
1 265
1 266
1 267
1 268
1 269
1 270
1 271
1 272
1 273
1 274

POINT_DATA 275
SCALARS id int 1
LOOKUP_TABLE default
1
2
4
5
6
7
8
9
10
11
12
13
14
16
17
19
21
22
23
24
25
26
27
28
29
30
31
32
33
34
35
36
37
38
39
41
42
44
45
47
48
49
50
51
52
53
54
55
56
57
59
60
61
62
63
64
65
66
67
68
69
70
71
72
73
74
76
77
78
79
80
82
83
84
85
86
87
88
89
90
91
92
93
94
95
96
97
98
99
100
101
102
103
104
105
106
107
108
109
110
111
112
113
114
115
116
117
118
119
120
121
122
123
124
125
127
128
129
130
131
132
133
134
135
136
137
138
140
141
142
143
144
146
147
148
149
150
151
153
154
155
156
157
158
159
160
162
164
165
166
167
168
169
170
171
172
173
174
176
177
178
179
182
183
184
185
186
187
188
189
190
191
192
193
194
195
196
197
198
199
200
201
202
203
204
205
206
207
208
209
210
211
212
213
214
215
216
217
218
219
220
222
224
225
226
227
228
229
230
232
233
234
235
236
237
239
240
241
242
243
244
246
247
248
249
250
251
252
253
254
255
256
257
258
259
260
261
262
263
264
265
266
267
268
269
270
271
272
273
274
275
276
277
278
279
280
281
283
284
285
286
287
288
289
290
291
292
293
294
295
296
297
298
299
300

SCALARS type int 1
LOOKUP_TABLE default
1
1
1
1
1
1
1
1
1
1
1
1
1
1
1
1
1
1
1
1
1
1
1
1
1
1
1
1
1
1
1
1
1
1
1
1
1
1
1
1
1
1
1
1
1
1
1
1
1
1
1
1
1
1
1
1
1
1
1
1
1
1
1
1
1
1
1
1
1
1
1
1
1
1
1
1
1
1
1
1
1
1
1
1
1
1
1
1
1
1
1
1
1
1
1
1
1
1
1
1
1
1
1
1
1
1
1
1
1
1
1
1
1
1
1
1
1
1
1
1
1
1
1
1
1
1
1
1
1
1
1
1
1
1
1
1
1
1
1
1
1
1
1
1
1
1
1
1
1
1
1
1
1
1
1
1
1
1
1
1
1
1
1
1
1
1
1
1
1
1
1
1
1
1
1
1
1
1
1
1
1
1
1
1
1
1
1
1
1
1
1
1
1
1
1
1
1
1
1
1
1
1
1
1
1
1
1
1
1
1
1
1
1
1
1
1
1
1
1
1
1
1
1
1
1
1
1
1
1
1
1
1
1
1
1
1
1
1
1
1
1
1
1
1
1
1
1
1
1
1
1
1
1
1
1
1
1
1
1
1
1
1
1
1
1
1
1
1
1
1
1
1
1
1
1

SCALARS radius float 1
LOOKUP_TABLE default
5e-05
5e-05
5e-05
5e-05
5e-05
5e-05
5e-05
5e-05
5e-05
5e-05
5e-05
5e-05
5e-05
5e-05
5e-05
5e-05
5e-05
5e-05
5e-05
5e-05
5e-05
5e-05
5e-05
5e-05
5e-05
5e-05
5e-05
5e-05
5e-05
5e-05
5e-05
5e-05
5e-05
5e-05
5e-05
5e-05
5e-05
5e-05
5e-05
5e-05
5e-05
5e-05
5e-05
5e-05
5e-05
5e-05
5e-05
5e-05
5e-05
5e-05
5e-05
5e-05
5e-05
5e-05
5e-05
5e-05
5e-05
5e-05
5e-05
5e-05
5e-05
5e-05
5e-05
5e-05
5e-05
5e-05
5e-05
5e-05
5e-05
5e-05
5e-05
5e-05
5e-05
5e-05
5e-05
5e-05
5e-05
5e-05
5e-05
5e-05
5e-05
5e-05
5e-05
5e-05
5e-05
5e-05
5e-05
5e-05
5e-05
5e-05
5e-05
5e-05
5e-05
5e-05
5e-05
5e-05
5e-05
5e-05
5e-05
5e-05
5e-05
5e-05
5e-05
5e-05
5e-05
5e-05
5e-05
5e-05
5e-05
5e-05
5e-05
5e-05
5e-05
5e-05
5e-05
5e-05
5e-05
5e-05
5e-05
5e-05
5e-05
5e-05
5e-05
5e-05
5e-05
5e-05
5e-05
5e-05
5e-05
5e-05
5e-05
5e-05
5e-05
5e-05
5e-05
5e-05
5e-05
5e-05
5e-05
5e-05
5e-05
5e-05
5e-05
5e-05
5e-05
5e-05
5e-05
5e-05
5e-05
5e-05
5e-05
5e-05
5e-05
5e-05
5e-05
5e-05
5e-05
5e-05
5e-05
5e-05
5e-05
5e-05
5e-05
5e-05
5e-05
5e-05
5e-05
5e-05
5e-05
5e-05
5e-05
5e-05
5e-05
5e-05
5e-05
5e-05
5e-05
5e-05
5e-05
5e-05
5e-05
5e-05
5e-05
5e-05
5e-05
5e-05
5e-05
5e-05
5e-05
5e-05
5e-05
5e-05
5e-05
5e-05
5e-05
5e-05
5e-05
5e-05
5e-05
5e-05
5e-05
5e-05
5e-05
5e-05
5e-05
5e-05
5e-05
5e-05
5e-05
5e-05
5e-05
5e-05
5e-05
5e-05
5e-05
5e-05
5e-05
5e-05
5e-05
5e-05
5e-05
5e-05
5e-05
5e-05
5e-05
5e-05
5e-05
5e-05
5e-05
5e-05
5e-05
5e-05
5e-05
5e-05
5e-05
5e-05
5e-05
5e-05
5e-05
5e-05
5e-05
5e-05
5e-05
5e-05
5e-05
5e-05
5e-05
5e-05
5e-05
5e-05
5e-05
5e-05
5e-05
5e-05
5e-05
5e-05
5e-05
5e-05
5e-05
5e-05
5e-05
5e-05
5e-05
5e-05
5e-05
5e-05
5e-05
5e-05
5e-05
5e-05
5e-05
5e-05
5e-05
5e-05
5e-05

SCALARS mass float 1
LOOKUP_TABLE default
1.46608e-10
1.46608e-10
1.46608e-10
1.46608e-10
1.46608e-10
1.46608e-10
1.46608e-10
1.46608e-10
1.46608e-10
1.46608e-10
1.46608e-10
1.46608e-10
1.46608e-10
1.46608e-10
1.46608e-10
1.46608e-10
1.46608e-10
1.46608e-10
1.46608e-10
1.46608e-10
1.46608e-10
1.46608e-10
1.46608e-10
1.46608e-10
1.46608e-10
1.46608e-10
1.46608e-10
1.46608e-10
1.46608e-10
1.46608e-10
1.46608e-10
1.46608e-10
1.46608e-10
1.46608e-10
1.46608e-10
1.46608e-10
1.46608e-10
1.46608e-10
1.46608e-10
1.46608e-10
1.46608e-10
1.46608e-10
1.46608e-10
1.46608e-10
1.46608e-10
1.46608e-10
1.46608e-10
1.46608e-10
1.46608e-10
1.46608e-10
1.46608e-10
1.46608e-10
1.46608e-10
1.46608e-10
1.46608e-10
1.46608e-10
1.46608e-10
1.46608e-10
1.46608e-10
1.46608e-10
1.46608e-10
1.46608e-10
1.46608e-10
1.46608e-10
1.46608e-10
1.46608e-10
1.46608e-10
1.46608e-10
1.46608e-10
1.46608e-10
1.46608e-10
1.46608e-10
1.46608e-10
1.46608e-10
1.46608e-10
1.46608e-10
1.46608e-10
1.46608e-10
1.46608e-10
1.46608e-10
1.46608e-10
1.46608e-10
1.46608e-10
1.46608e-10
1.46608e-10
1.46608e-10
1.46608e-10
1.46608e-10
1.46608e-10
1.46608e-10
1.46608e-10
1.46608e-10
1.46608e-10
1.46608e-10
1.46608e-10
1.46608e-10
1.46608e-10
1.46608e-10
1.46608e-10
1.46608e-10
1.46608e-10
1.46608e-10
1.46608e-10
1.46608e-10
1.46608e-10
1.46608e-10
1.46608e-10
1.46608e-10
1.46608e-10
1.46608e-10
1.46608e-10
1.46608e-10
1.46608e-10
1.46608e-10
1.46608e-10
1.46608e-10
1.46608e-10
1.46608e-10
1.46608e-10
1.46608e-10
1.46608e-10
1.46608e-10
1.46608e-10
1.46608e-10
1.46608e-10
1.46608e-10
1.46608e-10
1.46608e-10
1.46608e-10
1.46608e-10
1.46608e-10
1.46608e-10
1.46608e-10
1.46608e-10
1.46608e-10
1.46608e-10
1.46608e-10
1.46608e-10
1.46608e-10
1.46608e-10
1.46608e-10
1.46608e-10
1.46608e-10
1.46608e-10
1.46608e-10
1.46608e-10
1.46608e-10
1.46608e-10
1.46608e-10
1.46608e-10
1.46608e-10
1.46608e-10
1.46608e-10
1.46608e-10
1.46608e-10
1.46608e-10
1.46608e-10
1.46608e-10
1.46608e-10
1.46608e-10
1.46608e-10
1.46608e-10
1.46608e-10
1.46608e-10
1.46608e-10
1.46608e-10
1.46608e-10
1.46608e-10
1.46608e-10
1.46608e-10
1.46608e-10
1.46608e-10
1.46608e-10
1.46608e-10
1.46608e-10
1.46608e-10
1.46608e-10
1.46608e-10
1.46608e-10
1.46608e-10
1.46608e-10
1.46608e-10
1.46608e-10
1.46608e-10
1.46608e-10
1.46608e-10
1.46608e-10
1.46608e-10
1.46608e-10
1.46608e-10
1.46608e-10
1.46608e-10
1.46608e-10
1.46608e-10
1.46608e-10
1.46608e-10
1.46608e-10
1.46608e-10
1.46608e-10
1.46608e-10
1.46608e-10
1.46608e-10
1.46608e-10
1.46608e-10
1.46608e-10
1.46608e-10
1.46608e-10
1.46608e-10
1.46608e-10
1.46608e-10
1.46608e-10
1.46608e-10
1.46608e-10
1.46608e-10
1.46608e-10
1.46608e-10
1.46608e-10
1.46608e-10
1.46608e-10
1.46608e-10
1.46608e-10
1.46608e-10
1.46608e-10
1.46608e-10
1.46608e-10
1.46608e-10
1.46608e-10
1.46608e-10
1.46608e-10
1.46608e-10
1.46608e-10
1.46608e-10
1.46608e-10
1.46608e-10
1.46608e-10
1.46608e-10
1.46608e-10
1.46608e-10
1.46608e-10
1.46608e-10
1.46608e-10
1.46608e-10
1.46608e-10
1.46608e-10
1.46608e-10
1.46608e-10
1.46608e-10
1.46608e-10
1.46608e-10
1.46608e-10
1.46608e-10
1.46608e-10
1.46608e-10
1.46608e-10
1.46608e-10
1.46608e-10
1.46608e-10
1.46608e-10
1.46608e-10
1.46608e-10
1.46608e-10
1.46608e-10
1.46608e-10
1.46608e-10
1.46608e-10
1.46608e-10
1.46608e-10
1.46608e-10
1.46608e-10
1.46608e-10
1.46608e-10
1.46608e-10
1.46608e-10
1.46608e-10
1.46608e-10

VECTORS velocity float
0.00552244 -0.000577913 0.000155298
0.0056221 -0.000442884 0.000420038
0.00572532 -0.000319566 0.000346432
0.00548563 -0.000424009 0.000633994
0.00613282 -1.66007e-05 -0.000537112
0.00534916 -0.00054718 1.48233e-05
0.0059879 -0.000432918 0.000420712
0.00589524 0.000439696 -0.000179516
0.00581221 -0.00053498 0.000479448
0.00545234 -0.000547599 -4.33035e-05
0.00499609 -0.000384623 -0.000397182
0.00546641 -0.000419909 0.000649765
0.00565212 0.000152737 0.000232771
0.00551308 0.000142521 -0.00025822
0.00571352 -0.000539215 0.000478116
0.00542583 -0.000425074 0.000652088
0.00549052 -0.00054967 7.83435e-05
0.00593357 -0.000455702 0.000435884
0.00560225 0.000266035 0.000188733
0.00593356 0.000429895 -0.000176875
0.0059493 -0.000526777 0.000477554
0.0059164 0.000435198 -0.000179764
0.0061044 0.000418737 -0.000872495
0.0056773 -0.000378801 0.000377899
0.00537451 -0.000429157 0.000647689
0.00595863 -0.000484989 0.000452998
0.00535259 -0.000585945 -3.8986e-06
0.00594199 -0.00051276 0.000466086
0.00618026 0.000204632 -0.0003409
0.00564226 -0.000545236 0.000482023
0.00538156 -0.000427051 0.000266722
0.00586459 0.000444497 -0.000179172
0.00580509 -0.000316921 0.000346932
0.00543006 -0.000388526 0.000384833
0.00592914 0.00043287 -0.000179233
0.00550638 -0.000533138 0.000518899
0.00573678 -0.000154845 0.000243711
0.0054379 -0.000306673 0.000343727
0.006257 0.000406162 -0.000135333
0.0055578 -0.000548585 0.000487614
0.00551013 -0.00055178 0.000169166
0.00588513 0.000441485 -0.000179479
0.00594176 -0.000500379 0.000460907
0.00542612 -0.000558565 -2.92805e-05
0.00573745 1.57415e-07 0.000298181
0.00631566 0.000388094 -0.000116411
0.00553822 -0.000624571 0.000154986
0.00579255 0.000142266 0.00022417
0.00554209 -0.000537627 0.000152436
0.00628326 0.000393153 -0.000126392
-5.01937e-15 -7.41212e-15 7.69803e-14
0.00548667 -0.000233355 0.000259974
0.00550035 -0.000476503 0.000580919
0.0053678 -0.000395207 0.000349769
0.00548293 -0.000541053 0.000155852
0.00612414 0.000410597 -0.000147467
0.00558534 8.16507e-05 0.000281588
0.00554732 0.000269529 0.000165336
0.0055182 -0.000537358 0.000154708
0.00549157 -0.000480664 0.00044819
0.00552806 -0.00053045 0.000153231
0.00590607 0.000437297 -0.000179797
0.00555779 0.000173005 -0.000258805
0.00555382 -0.000541458 0.000157103
0.00591034 -0.000534449 0.000482542
0.00595134 -0.000492598 0.000457414
0.00506213 -0.000169317 -0.000189699
0.00566776 -0.000448032 0.00044694
0.0058105 0.000599642 -0.000977383
0.00558823 0.000148559 -0.000261923
0.00558058 -0.000386132 0.000372911
0.00552057 0.000133886 6.43374e-05
0.0048734 -9.87989e-05 -3.56025e-05
0.00587473 0.000442824 -0.000179185
0.00551305 9.58278e-05 -0.00025983
0.00547883 -0.00031732 0.000336945
0.00576991 -0.000393247 0.000389872
0.00554562 -0.000637116 7.77945e-07
0.0055066 -0.000597365 0.000116832
0.00554259 -0.000542018 0.000169766
0.00524126 -0.000276801 -0.000263392
0.00555043 -0.000682683 1.12411e-05
0.0059568 -0.000468184 0.000441596
0.00550766 -0.000597293 0.000160909
0.00546498 -0.000780606 -6.96677e-05
0.00547527 -0.000686486 3.53476e-05
0.00609444 0.000548914 -0.000963051
0.00595643 -0.000471717 0.000445351
0.00560009 9.79864e-05 -0.000190675
0.00542393 -0.000572111 -1.50644e-05
0.00551759 9.51308e-05 -0.000392011
4.2745e-15 1.05094e-14 8.29584e-14
-1.45275e-22 2.24983e-22 8.29106e-22
0.00552016 0.000131283 -0.000259566
0.00569052 0.000625238 -0.000988838
0.00583671 0.00021718 0.000185511
0.00579299 0.00060155 -0.000979679
0.00552853 -0.000573082 0.000157027
0.00546818 -0.000534444 -3.0798e-05
0.00572493 -0.000459736 0.000424042
0.00597877 -0.000481532 0.000448827
0.00612152 0.000545515 -0.000962818
0.00564164 0.000139624 0.000251268
0.00576859 0.000227324 0.000219332
0.00569347 -0.000291985 0.000320813
0.00551492 -0.000542236 0.000171448
0.00533876 -0.000465689 0.000171576
0.00563216 0.000130998 0.000253242
0.00556539 -0.000580848 0.000157644
0.00594776 -0.000458154 0.000435219
0.00549471 -0.00059914 0.000154294
0.00547531 -0.000672537 0.000130815
0.00556942 9.73593e-05 -0.000261336
0.00595013 -0.000464448 0.000437358
0.00524545 -0.000511963 -3.22065e-05
0.00591482 0.000583259 -0.000974771
0.00595785 -0.000478804 0.000447873
0.00551617 -0.000631349 -6.40297e-06
0.00581364 0.000172389 0.000242735
0.00555848 5.78275e-05 -0.000256878
0.00563108 -0.000297828 0.000322154
0.00551125 -0.000544642 0.000163089
0.00554713 -0.000624781 0.000151402
0.00548801 -0.000567203 -1.27429e-05
0.0052895 0.000110346 0.000238223
0.00557736 -0.000707519 -2.72536e-05
0.00551011 -0.000657621 -6.6485e-05
0.00567481 -0.000527227 0.000335298
0.00626184 0.000577133 -0.00100044
0.00575394 0.000237699 0.000202842
0.00577242 0.000606701 -0.000984032
0.00571577 0.000134629 0.000253226
0.0061477 0.000547309 -0.000966648
0.00573315 0.000164345 0.000242472
0.00628565 0.000577891 -0.00100312
0.00594878 -0.00045987 0.000437902
0.00553369 0.000145856 -0.000258965
0.00557837 0.000151984 -0.000262308
0.00514477 -0.000356507 -0.000172047
0.00612742 0.000544015 -0.000963246
0.00616906 0.000546529 -0.000969456
0.0062561 0.000577999 -0.00100057
-3.82413e-14 8.17033e-14 2.95889e-13
0.00523849 -0.000333396 -0.000182197
0.00557125 -0.00042687 0.000367328
0.00558409 8.63115e-05 -0.000265476
0.00549513 0.000116755 -0.000277375
0.00622797 0.000565925 -0.000988502
0.00558768 0.000139855 -0.000261113
0.00552367 -0.000625231 0.00014977
0.00557326 0.000137575 -0.00026144
0.00553178 0.000159862 -0.000259
0.00555486 0.000144088 -0.000259133
0.00558123 0.000144617 -0.000261741
0.00550949 -0.000582154 0.000154981
0.00558471 0.000151583 0.000236265
0.00557422 -0.000546357 0.000159123
0.00626346 0.000590535 -0.00101118
0.00573685 0.000120414 0.000247845
0.00618493 0.000537202 -0.000962776
0.00571737 0.000157403 0.000184775
0.00558275 0.000109794 -0.000264439
0.0054797 -0.000621312 0.000153483
0.00592175 0.000440772 0.000192676
0.00551049 -0.00053084 0.000164892
0.00577221 9.23133e-05 0.000277499
0.00558312 0.000108847 -0.000263421
0.00549999 -0.000541305 0.000156647
0.00539947 -0.000564835 8.51025e-05
0.00550974 -0.00058627 0.000154851
0.00550042 -6.4985e-06 1.17118e-05
0.00596899 -0.00046596 0.000442135
0.0057168 0.000189658 0.000215901
0.00549746 -0.000588633 0.000154508
0.00540627 0.000124077 -0.000226492
0.00558043 0.000112511 -0.000264837
0.00560289 0.000139251 -0.000266762
0.005903 -0.000141666 -6.24537e-05
0.00517479 6.24963e-05 0.00025037
0.00568964 0.000481677 -0.000146958
0.00611841 0.000546598 -0.000963464
0.00557437 0.000136541 -0.000260463
0.00515733 -0.000304661 -0.000236499
0.0055133 -0.000646884 -3.05831e-06
0.0055854 0.000140692 -0.000260716
0.00629954 0.000593135 -0.00101638
0.00611643 0.000430156 -0.000875207
0.00621116 0.000551635 -0.000976225
0.00554502 4.94532e-05 0.00029044
0.005523 3.40996e-05 0.000269793
0.00597702 -0.000482862 0.000452159
0.00598203 -0.000433386 0.000422129
0.00558157 0.000114885 -0.000261172
0.00549045 -0.000546841 0.000153933
0.00568652 -0.00041911 0.000408138
0.00574329 -4.29391e-05 1.00917e-05
0.00616741 0.00055832 -0.000977527
0.00546454 -0.000629462 0.000152934
0.00575906 0.000160687 0.000168146
0.00594849 -0.0004636 0.000437653
0.00557842 0.000138175 -0.000273419
0.0054078 -0.000295482 0.00033692
0.00653457 0.00131895 -0.001609
0.00594671 -0.000485252 0.000455305
0.00569944 0.00010569 0.000256896
0.00567958 -3.28058e-05 9.83751e-06
0.00520832 2.72538e-05 -3.74493e-05
0.0055518 0.000125504 -0.000260455
0.0063444 0.000584858 -0.00104994
0.00555197 0.000120807 -0.000265441
0.00558549 0.000136592 -0.000262247
0.00549489 -0.000498979 -9.17095e-07
0.0063169 0.000618286 -0.00103481
0.00472341 -0.00323591 -0.00644932
0.00544711 -0.00102753 -0.00196033
0.00582861 -0.000119573 -7.98087e-05
0.00587695 -0.000134049 -6.93786e-05
0.00580947 -0.000118028 -8.06532e-05
0.00529439 -0.000280511 -0.000243914
0.00581474 0.000154832 0.000243293
0.00584139 -0.00012267 -7.75712e-05
0.00564425 -8.23937e-05 -5.43863e-05
0.00627663 0.000598665 -0.00101869
0.0055944 0.000138059 0.000239098
0.00594898 -0.000155795 -5.03841e-05
0.00627467 0.000591759 -0.00101309
0.00556028 -0.000623467 9.79425e-06
0.00492653 7.40239e-05 -7.4308e-05
0.00538303 1.88773e-05 1.2203e-05
0.00596604 -0.000161976 -4.65999e-05
0.00580089 0.000605223 -0.00098176
0.00555503 0.000192112 -0.000260466
0.00514038 -0.0003454 -0.000181243
0.00560413 0.000143663 0.000219459
0.0046425 0.000127659 -9.01151e-05
0.00560602 0.000153184 -0.000262138
0.0053995 0.000221363 0.000259019
0.00579451 9.74098e-05 0.000255558
0.00592539 -0.000149635 -5.60612e-05
0.00618787 0.000548354 -0.000972591
0.0055125 3.17593e-07 8.05646e-06
0.00551754 0.000112708 -0.0002605
0.00628186 0.000595384 -0.00101649
0.00561501 0.000145798 0.000242147
0.00579357 0.000124808 0.000261651
0.00544402 -0.000622703 0.000109102
0.0055847 0.000112531 -0.000257042
0.00556616 -1.62658e-05 -4.26723e-06
0.00614268 0.000511493 -0.000937897
0.00484828 7.63399e-05 -8.9275e-05
0.00624191 0.000579162 -0.00100027
0.00626052 0.000586438 -0.00100764
0.00629254 0.00060377 -0.00102405
0.00561058 0.000130478 0.000249167
0.00563999 8.51725e-05 1.38226e-05
0.005554 -8.67397e-06 9.81697e-06
0.00557076 9.2106e-05 -0.000261603
0.00586161 -0.000128648 -7.34094e-05
0.00583216 0.000695396 -0.00106582
0.00362904 9.27423e-05 -0.000352644
0.00615947 0.000562673 -0.000980915
0.00633373 0.000608138 -0.00103679
0.00557358 0.00015198 -0.000260203
0.00615867 0.000551435 -0.000970764
0.00514851 1.89283e-05 4.78181e-05
0.00569105 0.000113555 0.000261961
0.00558737 9.85226e-05 -0.000264141
0.00484226 9.81766e-05 -5.43978e-05
0.00427303 0.00103 -0.00118544
0.00542196 1.51195e-05 1.07162e-05
0.00630924 0.000610038 -0.00103004
0.0055047 -0.000548972 0.000156785
0.0058934 -0.000137618 -6.58291e-05
0.00598925 -0.000167236 -4.18046e-05
0.00551886 -0.000643658 -1.60221e-06

VECTORS force float
8.04189e-11 1.26889e-11 -1.6869e-12
-4.6381e-11 7.13063e-11 -1.78171e-10
1.09952e-11 -2.28182e-10 9.63455e-11
4.58478e-11 -3.34733e-11 2.88522e-10
4.12989e-10 -1.55058e-10 6.141e-11
-1.14718e-10 -1.55254e-11 4.82689e-10
1.05353e-11 -4.63115e-11 3.02391e-11
3.60919e-11 -7.32862e-12 -9.44701e-13
-3.21108e-10 9.54786e-11 -6.34337e-11
2.22881e-10 8.68073e-11 -4.82614e-10
-8.04074e-10 -3.5239e-10 4.16251e-10
5.8199e-11 -3.09684e-10 3.44689e-10
9.03936e-11 -2.90426e-10 5.95357e-11
-2.11368e-10 -1.26431e-10 4.82136e-11
-1.7833e-10 1.01765e-10 -6.47265e-11
-1.51311e-10 -2.44231e-10 5.1201e-10
9.22844e-11 -1.47584e-10 -8.66595e-11
9.44609e-11 3.35815e-10 -1.97742e-10
9.15074e-10 -1.57967e-10 3.58844e-10
-6.08001e-11 -2.16807e-11 3.38619e-11
-1.88333e-11 -1.61731e-11 2.07453e-11
-3.11081e-11 6.4074e-12 1.00402e-11
-8.95104e-11 -5.34684e-11 1.36974e-10
-3.35224e-10 -2.00955e-10 9.43755e-11
-9.82666e-11 -3.1198e-10 6.01868e-10
-1.49019e-11 -7.58002e-12 -2.80008e-11
-1.32127e-10 -1.29481e-10 2.0348e-10
-7.90253e-11 -6.89452e-12 8.16544e-14
-4.87553e-10 -2.89935e-11 8.39081e-11
-6.27817e-11 9.14627e-11 -5.74783e-11
2.10818e-10 -5.90151e-10 -3.32821e-10
6.77723e-13 -1.84131e-13 2.32384e-13
5.55694e-10 -1.29537e-10 9.51237e-11
1.63352e-10 2.04992e-11 -8.01004e-13
-1.06175e-12 -4.27678e-12 2.51184e-11
-1.71497e-10 1.81984e-11 -2.34972e-11
3.77295e-10 -2.70227e-11 -1.36689e-11
-1.88308e-10 -2.71751e-10 5.31569e-11
-3.95874e-11 1.56618e-10 6.2756e-11
4.33276e-11 7.69673e-11 -1.82446e-11
6.34235e-11 2.01481e-10 -4.19742e-11
-2.07326e-12 4.59834e-13 2.0534e-12
-3.08688e-11 -9.18222e-12 2.53203e-12
-2.19512e-11 -3.58317e-10 8.33446e-11
8.29993e-10 4.45264e-11 -3.00482e-10
-8.46375e-11 7.59124e-11 -1.14682e-10
5.44808e-11 1.28227e-10 5.65698e-12
5.73315e-10 -2.86311e-11 5.00132e-10
-1.89296e-10 1.39004e-10 -2.4144e-11
8.18766e-11 1.10245e-10 -1.15257e-10
-5.94536e-25 5.48007e-24 4.1359e-25
6.26975e-11 2.39956e-10 1.47127e-10
-2.48107e-10 1.65105e-10 1.73091e-10
-2.54963e-10 -2.82524e-10 6.20115e-11
1.9319e-10 2.62158e-10 -3.65634e-11
3.23438e-11 -1.15054e-11 1.01423e-11
1.38682e-10 -2.84128e-10 2.9304e-10
3.2741e-10 -2.01949e-10 2.64107e-10
1.60788e-11 -1.81932e-12 6.4892e-11
7.98003e-11 -1.49309e-10 3.51197e-12
-9.12803e-11 -1.22619e-10 2.08599e-11
-3.52366e-12 -2.65922e-12 4.14027e-13
-1.10114e-11 -6.28038e-11 1.55097e-11
1.42358e-10 1.62317e-11 1.20792e-11
-1.46734e-10 2.86281e-11 -1.82806e-11
-6.15525e-11 6.88428e-12 1.60926e-11
2.38535e-10 1.74863e-10 -4.5458e-10
4.28897e-10 7.40452e-11 -1.89772e-10
5.76855e-11 1.89578e-10 -1.40966e-10
7.59797e-11 2.15885e-11 -8.9455e-12
2.35968e-10 -3.45862e-10 1.61347e-10
2.03565e-10 -5.95827e-11 -2.12951e-10
6.52039e-10 -9.7033e-11 6.26982e-10
4.09022e-12 7.49181e-13 -1.25458e-12
-7.85027e-11 4.02972e-11 9.30191e-12
-4.00891e-10 -3.2366e-10 2.38416e-10
4.3846e-10 1.713e-10 -7.81109e-11
-3.00469e-10 1.04476e-11 -1.01575e-10
2.0426e-10 -1.89767e-10 1.50761e-10
-6.01511e-11 -5.65961e-11 4.55743e-11
-2.7605e-10 -4.61663e-10 -7.40612e-11
1.67449e-10 -1.9754e-10 1.9261e-10
5.99534e-11 -4.1561e-11 -9.76176e-12
7.21879e-11 -6.09309e-11 9.86824e-11
6.44937e-10 1.04189e-10 1.18233e-09
-2.98497e-10 1.97911e-10 7.84975e-10
7.90649e-11 2.02791e-10 -1.66376e-10
-1.79446e-11 3.75154e-12 -8.95279e-14
1.22531e-10 2.05202e-10 -2.12251e-10
3.24735e-11 -1.87963e-10 4.49811e-12
-1.06539e-10 8.72471e-11 1.23931e-10
-3.16983e-21 6.88059e-22 8.10637e-23
0.0 0.0 0.0
-1.76858e-10 -1.51367e-10 -1.36142e-11
-8.80955e-11 2.92521e-10 -2.26061e-10
-4.02616e-10 -2.06536e-10 1.42277e-10
5.43845e-12 2.46929e-10 -1.95126e-10
5.21821e-11 2.32304e-10 2.50936e-11
-3.95083e-12 1.6258e-10 6.2736e-11