# vtk DataFile Version 3.0
LIGGGHTS particles timestep 11800000
ASCII
DATASET POLYDATA
POINTS 287 float
0.0816362 0.0163489 0.00783377
0.082176 0.0175225 0.00730443
0.0754267 0.0158628 0.0081605
0.0819615 0.0177692 0.007172
0.081501 0.0161402 0.00792541
0.0876375 0.0167293 0.00760212
0.081679 0.0169399 0.00755245
0.0814027 0.01577 0.0082306
0.0879215 0.0179841 0.00707012
0.08162 0.0166731 0.00767688
0.082111 0.0176531 0.00723747
0.0756045 0.0165676 0.00762965
0.0814811 0.0160525 0.0079692
0.0753487 0.015606 0.00845165
0.0818359 0.0172372 0.00741964
0.0753291 0.0155521 0.00853355
0.0816005 0.0165843 0.00771834
0.0877778 0.0173667 0.00734916
0.0814609 0.0159666 0.00801627
0.0816161 0.0162601 0.00787517
0.0817194 0.0171174 0.00746971
0.0757377 0.0167559 0.00750087
0.0878409 0.0176394 0.00724109
0.0816593 0.0168509 0.00759398
0.0877159 0.0170939 0.00745737
0.0757481 0.017072 0.0074108
0.0819399 0.0176807 0.00721317
0.0814411 0.0158876 0.0080743
0.0818984 0.0175033 0.00729575
0.0816986 0.0170288 0.007511
0.0818151 0.0171486 0.00746092
0.087657 0.0168205 0.00756593
0.081581 0.0164954 0.00775981
0.0817944 0.0170599 0.00750222
0.0879768 0.0182199 0.00695166
0.081754 0.0168823 0.00758496
0.0819315 0.0172681 0.00741098
0.0878661 0.0177471 0.00718915
0.0815411 0.0163178 0.00784264
0.0817402 0.0172062 0.00742839
0.0819523 0.0173567 0.00736969
0.0876766 0.0169116 0.00752974
0.0877568 0.0172759 0.00738519
0.0815612 0.0164065 0.00780125
0.0817818 0.0173835 0.00734581
0.0877358 0.017185 0.00742121
0.0818441 0.0176496 0.00722194
0.0818233 0.0175609 0.00726324
0.0755852 0.0164892 0.00768865
0.0877988 0.0174576 0.00731314
0.0815961 0.0161712 0.00791661
0.0753859 0.015714 0.00828749
0.0817737 0.0169712 0.00754351
0.0876963 0.0170027 0.00749356
0.0818489 0.0169133 0.0075762
0.0818694 0.017002 0.00753487
0.0815211 0.0162295 0.00788519
0.0819731 0.0174454 0.0073284
0.0818701 0.0176511 0.0073185
0.0878199 0.0175485 0.00727711
0.0758142 0.0173723 0.00726053
0.0758474 0.0170641 0.00742009
0.0820891 0.0175646 0.00727858
0.0820148 0.0176229 0.00724576
0.081695 0.0166156 0.00770939
0.0878936 0.0178649 0.00713
0.0753683 0.01566 0.0083698
0.0819938 0.0175341 0.00728711
0.0816396 0.016762 0.00763543
0.0818567 0.0173259 0.00737835
0.0758745 0.0173575 0.00718217
0.0820886 0.0183045 0.00692288
0.0754472 0.0159409 0.00810143
0.0757033 0.01683 0.0075585
0.0819044 0.0179066 0.00710229
0.0756403 0.0167521 0.00761258
0.0756625 0.0168115 0.00746542
0.0757746 0.0165362 0.0076432
0.0879492 0.0181021 0.00701084
0.0755624 0.0160418 0.00801925
0.0819191 0.017592 0.00725446
0.0818289 0.0168245 0.0076176
0.0819668 0.018173 0.00697826
0.0819252 0.0179954 0.00706092
0.0821512 0.0174279 0.00734833
0.0756237 0.016646 0.00757066
0.0820583 0.0178 0.00716344
0.0820478 0.0181223 0.00700782
0.0821235 0.0180654 0.00704005
0.0818867 0.0178355 0.00717042
0.0820778 0.0178889 0.00712196
0.0755466 0.0163323 0.00780667
0.0819876 0.0182616 0.00693697
0.0758358 0.0171534 0.00737663
0.0820267 0.0172986 0.00740245
0.0756629 0.0166676 0.00766104
0.0643568 0.0187248 0.00531097
0.24257 0.0191927 0.00520306
0.0758925 0.0170371 0.00733502
0.0755071 0.0161757 0.00792459
0.0759681 0.016982 0.00737019
0.0754675 0.0160191 0.00804251
0.0817343 0.0167933 0.00762649
0.0818025 0.0174722 0.00730453
0.0821779 0.0179193 0.0071138
0.0820297 0.0184491 0.00691134
0.075566 0.0164107 0.00774769
0.0762352 0.0173846 0.0071506
0.0759953 0.0172519 0.00731198
0.0818776 0.0174146 0.00733704
0.0817147 0.0167044 0.00766794
0.0815759 0.0160825 0.00795798
0.0754062 0.0157863 0.00822144
0.0818899 0.0170907 0.00749355
0.081421 0.0158227 0.00814763
0.0813837 0.0157173 0.00831346
0.0822006 0.0180102 0.00707159
0.0756021 0.0161984 0.00790135
0.0820037 0.0179545 0.00710741
0.081556 0.0159942 0.00800067
0.081761 0.0172949 0.0073871
0.075527 0.016254 0.00786565
0.0818649 0.0177383 0.00718065
0.081946 0.0180843 0.00701955
0.0757576 0.016841 0.00745235
0.0759084 0.0172082 0.00733494
0.0819837 0.0178643 0.00714597
0.0817505 0.016469 0.00778342
0.0819107 0.0171794 0.00745226
0.0815356 0.0159091 0.00804962
0.0755425 0.0159635 0.00807828
0.0820505 0.0185456 0.00692769
0.0816755 0.0165267 0.00775086
0.0821422 0.0181544 0.00699848
0.0755822 0.0161201 0.0079603
0.0758523 0.0168689 0.00743553
0.0754873 0.0160974 0.00798355
0.0759962 0.0173451 0.00725255
0.0758694 0.016561 0.0076218
0.075522 0.0158851 0.00813734
0.0757213 0.017064 0.00731445
0.0821096 0.0183949 0.00688556
0.0756798 0.0165121 0.00766563
0.0760645 0.0170125 0.00735421
0.0756411 0.0163552 0.00778339
0.0758169 0.0170923 0.00729976
0.0758937 0.0174549 0.00717001
0.0757974 0.0170088 0.00735105
0.0219312 0.0187687 0.00551176
0.0759118 0.0171213 0.00728467
0.0820364 0.0177115 0.00720456
0.0757987 0.0174228 0.0071754
0.0758362 0.0171766 0.00724947
0.076054 0.0177786 0.00715304
0.0761201 0.0172656 0.00720278
0.0817108 0.016291 0.00786645
0.0756605 0.0164335 0.0077244
0.0759875 0.0170663 0.00731979
0.0761814 0.0175478 0.00715049
0.0760256 0.0172366 0.00721792
0.0817308 0.01638 0.00782492
0.0761011 0.0171813 0.0072532
0.0822068 0.0176832 0.00722917
0.0759489 0.0172906 0.00718342
0.0697412 0.0171543 0.00726804
0.0757768 0.0169242 0.00740026
0.0758396 0.0176184 0.00716731
0.0762148 0.0172941 0.00718798
0.0761598 0.0174502 0.0071534
0.0757612 0.0172389 0.0072273
0.0816559 0.0164378 0.00779234
0.076006 0.0171509 0.00726915
0.0820016 0.0178325 0.0072391
0.0757017 0.0169799 0.00736477
0.0757409 0.0171482 0.00726413
0.0820059 0.0172099 0.00744374
0.0820711 0.0182201 0.00697352
0.0820475 0.0173873 0.00736116
0.0698494 0.0172659 0.0071945
0.082071 0.0186411 0.00694915
0.0759279 0.0168138 0.00747072
0.0818092 0.0167356 0.00765905
0.0757939 0.0166163 0.00758655
0.0761383 0.0173523 0.00715632
0.075308 0.0154983 0.00861516
0.0697996 0.0174367 0.00719028
0.0756805 0.0169161 0.00751298
0.0758546 0.0172609 0.00719895
0.075643 0.0167273 0.00751575
0.0761496 0.0178091 0.00714742
0.0759486 0.0168978 0.00742051
0.0820683 0.0174759 0.00731987
0.0757185 0.0166732 0.00755366
0.0760108 0.0175835 0.00715887
0.0759684 0.0173881 0.00716665
0.0756217 0.0162768 0.00784237
0.0759306 0.0172081 0.00723692
0.0756991 0.0165912 0.00760758
0.0818082 0.0173856 0.00744223
0.0821027 0.0179776 0.00708308
0.0760427 0.0173212 0.00716731
0.0819852 0.0171212 0.00748502
0.0820263 0.0180328 0.00704948
0.0698175 0.0171004 0.00730373
0.075818 0.0175208 0.00717022
0.0817701 0.0165579 0.00774196
0.0759363 0.0176501 0.00716161
0.0820087 0.0183588 0.00694863
0.0757801 0.0173247 0.00717951
0.0697589 0.0168598 0.0074742
0.0817897 0.0166468 0.0077005
0.0758729 0.0169529 0.00738534
0.0756821 0.0168957 0.0074151
0.0822499 0.0178587 0.00714757
0.0760828 0.017097 0.00730366
0.0699491 0.0172722 0.00719833
0.0697607 0.0172473 0.0072367
0.0758397 0.0172704 0.00729737
0.0760971 0.0179739 0.00714721
0.0697222 0.0170742 0.00732479
0.0757553 0.0164568 0.00770081
0.075833 0.0167846 0.00748593
0.0821658 0.0182493 0.0069544
0.0761403 0.0181691 0.00714137
0.0761187 0.0180715 0.00714429
0.0762139 0.0181015 0.0071387
0.069548 0.0163701 0.0078559
0.0696057 0.0166009 0.00767316
0.0695285 0.0162932 0.00791677
0.0758131 0.0167014 0.0075377
0.0757287 0.0169876 0.00746075
0.0695672 0.0164471 0.00779497
0.069684 0.0169192 0.00744488
0.0760324 0.0176811 0.00715596
0.076203 0.0176454 0.00714757
0.0698241 0.0175336 0.00718995
0.0759147 0.0175525 0.00716453
0.0821529 0.0178314 0.00715444
0.069864 0.0177296 0.0071889
0.069798 0.0170199 0.00736079
0.0696635 0.0168348 0.00749448
0.0755015 0.0158069 0.00819628
0.0759892 0.0174858 0.00716179
0.0759043 0.0179112 0.00715856
0.0759579 0.0177477 0.00715869
0.0698854 0.0178273 0.00718843
0.0760958 0.017352 0.00724686
0.0760658 0.0182357 0.00714411
0.0761924 0.0180036 0.00714162
0.0696442 0.0167549 0.00755151
0.0759259 0.0180089 0.00715564
0.0697819 0.0173392 0.00720348
0.0760447 0.0169278 0.00740483
0.076001 0.0179429 0.00715286
0.0757369 0.0171594 0.00736342
0.0758827 0.0178136 0.00716147
0.0821326 0.0177416 0.0071963
0.0760636 0.0174187 0.00716004
0.0699282 0.0180226 0.00719182
0.0759907 0.0183016 0.00714689
0.0699068 0.0179249 0.00718966
0.0759795 0.0178453 0.00715577
0.0758612 0.017716 0.00716439
0.0760123 0.0183992 0.00714397
0.0761064 0.0176139 0.00715325
0.0697023 0.0169943 0.00738146
0.0698354 0.0171815 0.0072463
0.0760249 0.0168433 0.00745532
0.0697781 0.0169399 0.00741747
0.0695864 0.016524 0.00773406
0.0760442 0.0181381 0.00714703
0.0760226 0.0180405 0.00714994
0.0759475 0.0181065 0.00715272
0.0760755 0.0178763 0.00715012
0.0759691 0.018204 0.00714981
0.0758887 0.0166453 0.00757144
0.0759086 0.0167294 0.00752116
0.0761281 0.0177115 0.00715033
0.075736 0.0163783 0.00775984
0.0760849 0.0175163 0.00715617
0.0760338 0.0184968 0.00714106
0.0699184 0.0175669 0.0071932
0.0760873 0.0183333 0.0071412
0.0819644 0.0170326 0.00752631
0.0696248 0.0166779 0.00761223
0.0698425 0.0176319 0.00718936
0.082052 0.0177007 0.00730274

VERTICES 287 574
1 0
1 1
1 2
1 3
1 4
1 5
1 6
1 7
1 8
1 9
1 10
1 11
1 12
1 13
1 14
1 15
1 16
1 17
1 18
1 19
1 20
1 21
1 22
1 23
1 24
1 25
1 26
1 27
1 28
1 29
1 30
1 31
1 32
1 33
1 34
1 35
1 36
1 37
1 38
1 39
1 40
1 41
1 42
1 43
1 44
1 45
1 46
1 47
1 48
1 49
1 50
1 51
1 52
1 53
1 54
1 55
1 56
1 57
1 58
1 59
1 60
1 61
1 62
1 63
1 64
1 65
1 66
1 67
1 68
1 69
1 70
1 71
1 72
1 73
1 74
1 75
1 76
1 77
1 78
1 79
1 80
1 81
1 82
1 83
1 84
1 85
1 86
1 87
1 88
1 89
1 90
1 91
1 92
1 93
1 94
1 95
1 96
1 97
1 98
1 99
1 100
1 101
1 102
1 103
1 104
1 105
1 106
1 107
1 108
1 109
1 110
1 111
1 112
1 113
1 114
1 115
1 116
1 117
1 118
1 119
1 120
1 121
1 122
1 123
1 124
1 125
1 126
1 127
1 128
1 129
1 130
1 131
1 132
1 133
1 134
1 135
1 136
1 137
1 138
1 139
1 140
1 141
1 142
1 143
1 144
1 145
1 146
1 147
1 148
1 149
1 150
1 151
1 152
1 153
1 154
1 155
1 156
1 157
1 158
1 159
1 160
1 161
1 162
1 163
1 164
1 165
1 166
1 167
1 168
1 169
1 170
1 171
1 172
1 173
1 174
1 175
1 176
1 177
1 178
1 179
1 180
1 181
1 182
1 183
1 184
1 185
1 186
1 187
1 188
1 189
1 190
1 191
1 192
1 193
1 194
1 195
1 196
1 197
1 198
1 199
1 200
1 201
1 202
1 203
1 204
1 205
1 206
1 207
1 208
1 209
1 210
1 211
1 212
1 213
1 214
1 215
1 216
1 217
1 218
1 219
1 220
1 221
1 222
1 223
1 224
1 225
1 226
1 227
1 228
1 229
1 230
1 231
1 232
1 233
1 234
1 235
1 236
1 237
1 238
1 239
1 240
1 241
1 242
1 243
1 244
1 245
1 246
1 247
1 248
1 249
1 250
1 251
1 252
1 253
1 254
1 255
1 256
1 257
1 258
1 259
1 260
1 261
1 262
1 263
1 264
1 265
1 266
1 267
1 268
1 269
1 270
1 271
1 272
1 273
1 274
1 275
1 276
1 277
1 278
1 279
1 280
1 281
1 282
1 283
1 284
1 285
1 286

POINT_DATA 287
SCALARS id int 1
LOOKUP_TABLE default
1
2
3
4
5
6
7
8
9
10
11
12
13
14
15
16
17
18
19
21
22
23
24
25
26
27
28
29
30
31
32
33
34
35
36
37
38
39
41
42
44
45
46
47
48
49
50
51
52
53
54
55
56
57
59
60
61
62
63
64
65
66
67
68
69
70
71
72
73
74
76
77
78
79
80
81
82
83
84
85
86
87
88
89
90
91
92
93
94
95
96
97
98
99
100
101
102
103
104
105
106
107
108
109
110
111
112
113
114
115
116
117
118
119
120
121
122
123
124
125
126
127
128
129
130
131
132
133
134
135
136
137
138
140
141
142
143
144
146
147
148
149
150
151
153
154
155
156
157
158
159
160
162
164
165
166
167
168
169
170
171
172
173
174
175
176
177
178
179
181
182
183
184
185
186
187
188
189
190
191
192
193
194
195
196
197
198
199
200
201
202
203
204
205
206
207
208
209
210
211
212
213
214
215
216
217
218
219
220
221
222
223
224
225
226
227
228
229
230
231
232
233
234
235
236
237
239
240
241
242
243
244
246
247
248
249
250
251
252
253
254
255
256
257
258
259
260
261
262
263
264
265
266
267
268
269
270
271
272
273
274
275
276
277
278
279
280
281
282
283
284
285
286
287
288
289
290
291
292
293
294
295
296
297
298
299
300

SCALARS type int 1
LOOKUP_TABLE default
1
1
1
1
1
1
1
1
1
1
1
1
1
1
1
1
1
1
1
1
1
1
1
1
1
1
1
1
1
1
1
1
1
1
1
1
1
1
1
1
1
1
1
1
1
1
1
1
1
1
1
1
1
1
1
1
1
1
1
1
1
1
1
1
1
1
1
1
1
1
1
1
1
1
1
1
1
1
1
1
1
1
1
1
1
1
1
1
1
1
1
1
1
1
1
1
1
1
1
1
1
1
1
1
1
1
1
1
1
1
1
1
1
1
1
1
1
1
1
1
1
1
1
1
1
1
1
1
1
1
1
1
1
1
1
1
1
1
1
1
1
1
1
1
1
1
1
1
1
1
1
1
1
1
1
1
1
1
1
1
1
1
1
1
1
1
1
1
1
1
1
1
1
1
1
1
1
1
1
1
1
1
1
1
1
1
1
1
1
1
1
1
1
1
1
1
1
1
1
1
1
1
1
1
1
1
1
1
1
1
1
1
1
1
1
1
1
1
1
1
1
1
1
1
1
1
1
1
1
1
1
1
1
1
1
1
1
1
1
1
1
1
1
1
1
1
1
1
1
1
1
1
1
1
1
1
1
1
1
1
1
1
1
1
1
1
1
1
1
1
1
1
1
1
1
1
1
1
1
1
1
1
1
1
1
1
1

SCALARS radius float 1
LOOKUP_TABLE default
5e-05
5e-05
5e-05
5e-05
5e-05
5e-05
5e-05
5e-05
5e-05
5e-05
5e-05
5e-05
5e-05
5e-05
5e-05
5e-05
5e-05
5e-05
5e-05
5e-05
5e-05
5e-05
5e-05
5e-05
5e-05
5e-05
5e-05
5e-05
5e-05
5e-05
5e-05
5e-05
5e-05
5e-05
5e-05
5e-05
5e-05
5e-05
5e-05
5e-05
5e-05
5e-05
5e-05
5e-05
5e-05
5e-05
5e-05
5e-05
5e-05
5e-05
5e-05
5e-05
5e-05
5e-05
5e-05
5e-05
5e-05
5e-05
5e-05
5e-05
5e-05
5e-05
5e-05
5e-05
5e-05
5e-05
5e-05
5e-05
5e-05
5e-05
5e-05
5e-05
5e-05
5e-05
5e-05
5e-05
5e-05
5e-05
5e-05
5e-05
5e-05
5e-05
5e-05
5e-05
5e-05
5e-05
5e-05
5e-05
5e-05
5e-05
5e-05
5e-05
5e-05
5e-05
5e-05
5e-05
5e-05
5e-05
5e-05
5e-05
5e-05
5e-05
5e-05
5e-05
5e-05
5e-05
5e-05
5e-05
5e-05
5e-05
5e-05
5e-05
5e-05
5e-05
5e-05
5e-05
5e-05
5e-05
5e-05
5e-05
5e-05
5e-05
5e-05
5e-05
5e-05
5e-05
5e-05
5e-05
5e-05
5e-05
5e-05
5e-05
5e-05
5e-05
5e-05
5e-05
5e-05
5e-05
5e-05
5e-05
5e-05
5e-05
5e-05
5e-05
5e-05
5e-05
5e-05
5e-05
5e-05
5e-05
5e-05
5e-05
5e-05
5e-05
5e-05
5e-05
5e-05
5e-05
5e-05
5e-05
5e-05
5e-05
5e-05
5e-05
5e-05
5e-05
5e-05
5e-05
5e-05
5e-05
5e-05
5e-05
5e-05
5e-05
5e-05
5e-05
5e-05
5e-05
5e-05
5e-05
5e-05
5e-05
5e-05
5e-05
5e-05
5e-05
5e-05
5e-05
5e-05
5e-05
5e-05
5e-05
5e-05
5e-05
5e-05
5e-05
5e-05
5e-05
5e-05
5e-05
5e-05
5e-05
5e-05
5e-05
5e-05
5e-05
5e-05
5e-05
5e-05
5e-05
5e-05
5e-05
5e-05
5e-05
5e-05
5e-05
5e-05
5e-05
5e-05
5e-05
5e-05
5e-05
5e-05
5e-05
5e-05
5e-05
5e-05
5e-05
5e-05
5e-05
5e-05
5e-05
5e-05
5e-05
5e-05
5e-05
5e-05
5e-05
5e-05
5e-05
5e-05
5e-05
5e-05
5e-05
5e-05
5e-05
5e-05
5e-05
5e-05
5e-05
5e-05
5e-05
5e-05
5e-05
5e-05
5e-05
5e-05
5e-05
5e-05
5e-05
5e-05
5e-05
5e-05
5e-05
5e-05
5e-05
5e-05
5e-05
5e-05
5e-05
5e-05
5e-05
5e-05
5e-05
5e-05
5e-05
5e-05
5e-05
5e-05
5e-05
5e-05
5e-05
5e-05
5e-05
5e-05
5e-05
5e-05

SCALARS mass float 1
LOOKUP_TABLE default
1.46608e-10
1.46608e-10
1.46608e-10
1.46608e-10
1.46608e-10
1.46608e-10
1.46608e-10
1.46608e-10
1.46608e-10
1.46608e-10
1.46608e-10
1.46608e-10
1.46608e-10
1.46608e-10
1.46608e-10
1.46608e-10
1.46608e-10
1.46608e-10
1.46608e-10
1.46608e-10
1.46608e-10
1.46608e-10
1.46608e-10
1.46608e-10
1.46608e-10
1.46608e-10
1.46608e-10
1.46608e-10
1.46608e-10
1.46608e-10
1.46608e-10
1.46608e-10
1.46608e-10
1.46608e-10
1.46608e-10
1.46608e-10
1.46608e-10
1.46608e-10
1.46608e-10
1.46608e-10
1.46608e-10
1.46608e-10
1.46608e-10
1.46608e-10
1.46608e-10
1.46608e-10
1.46608e-10
1.46608e-10
1.46608e-10
1.46608e-10
1.46608e-10
1.46608e-10
1.46608e-10
1.46608e-10
1.46608e-10
1.46608e-10
1.46608e-10
1.46608e-10
1.46608e-10
1.46608e-10
1.46608e-10
1.46608e-10
1.46608e-10
1.46608e-10
1.46608e-10
1.46608e-10
1.46608e-10
1.46608e-10
1.46608e-10
1.46608e-10
1.46608e-10
1.46608e-10
1.46608e-10
1.46608e-10
1.46608e-10
1.46608e-10
1.46608e-10
1.46608e-10
1.46608e-10
1.46608e-10
1.46608e-10
1.46608e-10
1.46608e-10
1.46608e-10
1.46608e-10
1.46608e-10
1.46608e-10
1.46608e-10
1.46608e-10
1.46608e-10
1.46608e-10
1.46608e-10
1.46608e-10
1.46608e-10
1.46608e-10
1.46608e-10
1.46608e-10
1.46608e-10
1.46608e-10
1.46608e-10
1.46608e-10
1.46608e-10
1.46608e-10
1.46608e-10
1.46608e-10
1.46608e-10
1.46608e-10
1.46608e-10
1.46608e-10
1.46608e-10
1.46608e-10
1.46608e-10
1.46608e-10
1.46608e-10
1.46608e-10
1.46608e-10
1.46608e-10
1.46608e-10
1.46608e-10
1.46608e-10
1.46608e-10
1.46608e-10
1.46608e-10
1.46608e-10
1.46608e-10
1.46608e-10
1.46608e-10
1.46608e-10
1.46608e-10
1.46608e-10
1.46608e-10
1.46608e-10
1.46608e-10
1.46608e-10
1.46608e-10
1.46608e-10
1.46608e-10
1.46608e-10
1.46608e-10
1.46608e-10
1.46608e-10
1.46608e-10
1.46608e-10
1.46608e-10
1.46608e-10
1.46608e-10
1.46608e-10
1.46608e-10
1.46608e-10
1.46608e-10
1.46608e-10
1.46608e-10
1.46608e-10
1.46608e-10
1.46608e-10
1.46608e-10
1.46608e-10
1.46608e-10
1.46608e-10
1.46608e-10
1.46608e-10
1.46608e-10
1.46608e-10
1.46608e-10
1.46608e-10
1.46608e-10
1.46608e-10
1.46608e-10
1.46608e-10
1.46608e-10
1.46608e-10
1.46608e-10
1.46608e-10
1.46608e-10
1.46608e-10
1.46608e-10
1.46608e-10
1.46608e-10
1.46608e-10
1.46608e-10
1.46608e-10
1.46608e-10
1.46608e-10
1.46608e-10
1.46608e-10
1.46608e-10
1.46608e-10
1.46608e-10
1.46608e-10
1.46608e-10
1.46608e-10
1.46608e-10
1.46608e-10
1.46608e-10
1.46608e-10
1.46608e-10
1.46608e-10
1.46608e-10
1.46608e-10
1.46608e-10
1.46608e-10
1.46608e-10
1.46608e-10
1.46608e-10
1.46608e-10
1.46608e-10
1.46608e-10
1.46608e-10
1.46608e-10
1.46608e-10
1.46608e-10
1.46608e-10
1.46608e-10
1.46608e-10
1.46608e-10
1.46608e-10
1.46608e-10
1.46608e-10
1.46608e-10
1.46608e-10
1.46608e-10
1.46608e-10
1.46608e-10
1.46608e-10
1.46608e-10
1.46608e-10
1.46608e-10
1.46608e-10
1.46608e-10
1.46608e-10
1.46608e-10
1.46608e-10
1.46608e-10
1.46608e-10
1.46608e-10
1.46608e-10
1.46608e-10
1.46608e-10
1.46608e-10
1.46608e-10
1.46608e-10
1.46608e-10
1.46608e-10
1.46608e-10
1.46608e-10
1.46608e-10
1.46608e-10
1.46608e-10
1.46608e-10
1.46608e-10
1.46608e-10
1.46608e-10
1.46608e-10
1.46608e-10
1.46608e-10
1.46608e-10
1.46608e-10
1.46608e-10
1.46608e-10
1.46608e-10
1.46608e-10
1.46608e-10
1.46608e-10
1.46608e-10
1.46608e-10
1.46608e-10
1.46608e-10
1.46608e-10
1.46608e-10
1.46608e-10
1.46608e-10
1.46608e-10
1.46608e-10
1.46608e-10
1.46608e-10
1.46608e-10
1.46608e-10
1.46608e-10
1.46608e-10
1.46608e-10
1.46608e-10
1.46608e-10
1.46608e-10
1.46608e-10
1.46608e-10
1.46608e-10
1.46608e-10

VECTORS velocity float
0.0056141 0.000223239 0.000254749
0.0059837 6.45649e-05 0.000354897
0.0060356 0.000439613 -0.000699605
0.00609039 0.000185842 0.000303608
0.00562287 0.000216973 0.000259815
0.00542637 -0.000153769 0.000303046
0.0054991 0.000273204 0.000223342
0.00582031 -2.7794e-06 -6.02833e-05
0.00644152 0.00122563 -0.000957259
0.00549088 0.000238517 0.000239407
0.00605738 0.000114499 0.000335429
0.00571826 0.000439217 -0.000692995
0.0056133 0.000160851 0.000149629
0.00566206 0.000575532 -0.000555976
0.00588425 0.000209329 0.000278802
0.0057935 0.000556421 -0.000516069
0.00546175 0.000243203 0.000235327
0.00579492 -0.000282449 0.000371984
0.0056109 6.13563e-05 -2.38224e-05
0.00561163 0.000218968 0.000256722
0.00581137 0.000204447 0.000276169
0.00574797 0.000719014 -0.000294017
0.00589341 -0.00029814 0.000382411
0.00548709 0.000234567 0.000240824
0.00542152 -0.000227576 0.000332918
0.00555123 0.000705306 -0.000431439
0.00607019 0.000196617 0.000296224
0.00562553 -5.45726e-05 -0.000174647
0.00599259 0.000169006 0.000305224
0.00549835 0.000278954 0.000220387
0.00583439 0.000216182 0.000272316
0.00543702 -0.000231219 0.000335014
0.00546143 0.000243835 0.000234869
0.00580404 0.00019935 0.000278444
0.0065572 0.00119511 -0.000948747
0.00549208 0.000263821 0.000227299
0.00589459 0.000159069 0.000303957
0.00632759 0.00126611 -0.000970747
0.00561987 0.000220867 0.000256725
0.00585644 0.000234876 0.000264371
0.00593022 0.000149359 0.000310686
0.00543214 -0.000231603 0.00033501
0.00576077 -0.00027997 0.000369182
0.00561835 0.000221659 0.000255993
0.00594122 0.000224459 0.000275446
0.00572716 -0.000277448 0.000366447
0.00602934 0.000168018 0.000302472
0.0060013 0.00017951 0.000301006
0.00566003 0.00040692 -0.000685215
0.00582822 -0.000286788 0.000374889
0.00560869 0.000219329 0.000255754
0.00596039 0.000577199 -0.000528346
0.00548159 0.000265421 0.000225796
0.0054283 -0.000229297 0.000333738
0.00555215 0.000213931 0.000255165
0.00570767 0.000190056 0.000276657
0.0056171 0.000221296 0.000256636
0.0059565 0.000146971 0.000313518
0.00604589 0.000235221 0.000285012
0.00586072 -0.000292682 0.000378823
0.00578801 0.00153506 -0.000752588
0.00551003 0.000652224 -0.000292125
0.006007 0.000113807 0.000332448
0.00602831 0.000150707 0.000315611
0.00546129 0.000244557 0.000234579
0.00638431 0.00124641 -0.000964253
0.00586334 0.00056601 -0.000535626
0.00599792 0.000149756 0.000315073
0.00549156 0.00024162 0.000238009
0.00592407 0.000200673 0.000285738
0.00585472 0.000668507 -0.000546638
0.0063249 6.80282e-05 0.000405956
0.00599487 0.000435022 -0.000729199
0.0057458 0.00071578 -0.000274057
0.00615274 0.000153101 0.000322097
0.00575471 0.000814228 -0.00033062
0.00578889 0.000747159 -0.000305419
0.00577156 0.000336371 -0.000794466
0.006499 0.0012086 -0.000952118
0.00518005 0.000548093 -0.000758842
0.00602397 0.00018438 0.000300942
0.00547409 0.00022573 0.000244507
0.00627033 0.000139842 0.000335791
0.0061969 0.000162203 0.000320651
0.00594406 8.02754e-05 0.000344847
0.00574696 0.000628058 -0.00048147
0.00613262 0.000148372 0.000322603
0.006276 0.000144643 0.000334751
0.00623402 8.21297e-05 0.000361281
0.00606712 0.000154158 0.000315743
0.0061785 0.000127739 0.000338676
0.00552412 0.000561065 -0.000792228
0.00631774 0.000162658 0.00033517
0.00557557 0.000676184 -0.000297016
0.00590819 0.000120058 0.000323331
0.00507767 0.000361275 -0.000823869
4.34518e-15 1.04972e-14 8.29562e-14
9.7161e-23 4.86658e-23 1.23839e-22
0.00564937 0.000629367 -0.000234616
0.00510068 0.000627447 -0.000811673
0.00564007 0.000591901 -0.000206963
0.00572007 0.000490131 -0.000751758
0.00547523 0.000231495 0.00024183
0.00597282 0.000202832 0.000286935
0.0061899 0.000122138 0.000341374
0.0062527 -0.000353706 -0.000574049
0.0056688 0.000526449 -0.000777085
0.006 0.000183793 -0.000318491
0.00566288 0.000549954 -0.000178608
0.00595377 0.000177073 0.000298956
0.00548262 0.000234562 0.000240826
0.00560943 0.000210418 0.000260827
0.00598776 0.000500468 -0.000623231
0.00579931 0.000177159 0.000288774
0.00585808 -2.99803e-07 -6.06024e-05
0.0057471 8.82193e-07 -6.59413e-05
0.00619599 4.41211e-05 0.000378147
0.00507304 0.000532937 -0.000740199
0.00619755 0.000144486 0.000331387
0.00560089 5.52983e-05 -1.5187e-05
0.00589953 0.000231403 0.000269223
0.00534443 0.000589929 -0.000800945
0.00610046 0.000245691 0.000275371
0.00621063 8.95308e-05 0.000356222
0.00580763 0.00070411 -0.000291713
0.00565442 0.000581753 -0.000214445
0.00615169 0.000165002 0.000313069
0.00545817 0.000235569 0.000238731
0.00584815 0.000168511 0.000296158
0.00562858 8.00106e-05 -3.07463e-05
0.00601095 0.000759545 -0.000971276
0.00620457 -0.000291434 -0.000620975
0.00545042 0.00025321 0.000229703
0.00623287 5.51658e-05 0.000375972
0.0049102 0.000585447 -0.000767933
0.00571888 0.000636305 -0.000250014
0.00522837 0.000592548 -0.000795004
0.00577394 0.000623699 -0.000231012
0.00569538 0.000720754 -0.000292157
0.00609943 0.000534117 -0.000810579
0.00580968 0.00070006 -0.000287209
0.00620087 -0.000356021 -0.000654413
0.00579858 0.000429561 -0.000659862
0.00575794 0.000596604 -0.000211077
0.00553974 0.000430325 -0.000698308
0.00566451 0.000680893 -0.000288305
0.00595674 0.000574821 -0.00124184
0.00570438 0.000700648 -0.000299495
-3.82577e-14 8.17213e-14 2.95882e-13
0.00570176 0.000607449 -0.000224872
0.00608256 0.00017497 0.000301633
0.00604714 0.000653521 -0.000317812
0.00574856 0.000665941 -0.000292415
0.00615996 0.00052038 -0.000339927
0.00573506 0.000406045 -9.9735e-05
0.00560518 0.000216003 0.000257569
0.00571806 0.00041146 -0.000691267
0.00571254 0.000577764 -0.000205998
0.00604662 0.000331537 -0.000325485
0.00571881 0.000516615 -0.000169354
0.00556507 0.000361861 0.000184901
0.00559646 0.00043176 -0.000122799
0.006096 0.000126131 0.000332569
0.00582079 0.000614404 -0.000230114
0.0055507 -0.000546868 0.000227485
0.00579458 0.000706114 -0.000289705
0.00624871 0.000588598 -0.000342373
0.0057482 0.000344596 -6.76379e-05
0.00611171 0.000326752 -0.000336116
0.00579756 0.000723346 -0.000277205
0.0054598 0.000246282 0.000233651
0.00566165 0.000552954 -0.000188197
0.00610731 0.000151853 0.000302439
0.005797 0.000694029 -0.000280117
0.00581222 0.000708194 -0.000285792
0.00586499 0.000123155 0.000318963
0.00627377 6.40115e-05 0.000374978
0.00593787 0.000119118 0.000325653
0.00551317 -0.000496377 0.000222196
0.0061753 -0.000248811 -0.000619045
0.00578516 0.000692068 -0.000269102
0.00548414 0.000222856 0.000246481
0.00569517 0.000714739 -0.000277693
0.00580794 0.000230806 -0.000306048
0.00635337 0.000502488 -0.000398432
0.00552286 -0.000556282 0.000224945
0.00582945 0.000725248 -0.000276899
0.00580044 0.000680025 -0.000272721
0.00574537 0.000760094 -0.000308264
0.00606538 0.000384369 -0.000328147
0.00557012 0.000596979 -0.00022136
0.00596654 0.000114975 0.000329229
0.00570555 0.000651046 -0.000409001
0.00623424 0.000516078 -0.000340559
0.00593595 0.000527737 -0.00037774
0.00538227 0.000456547 -0.000705206
0.0057434 0.000627272 -0.000240019
0.00576797 0.000517625 -0.000572799
0.00592991 0.000219139 0.000276897
0.00620439 0.000113935 0.000347799
0.00587048 0.000497067 -0.00014785
0.00581409 0.000129006 0.000312877
0.00621215 0.0001178 0.000343941
0.00554902 -0.000550262 0.0002291
0.00626327 0.000593203 -0.000338977
0.00546511 0.000228592 0.00024249
0.00625279 0.00056781 -0.000340037
0.00627654 5.03906e-05 0.000514074
0.00582544 0.000704183 -0.000280536
0.00548567 -0.00054318 0.000226181
0.0054769 0.00022365 0.000245611
0.00563182 0.000647683 -0.000247771
0.00580552 0.000714656 -0.000283545
0.00609854 4.97603e-05 0.000368985
0.00558282 0.000473548 -0.000147641
0.0055047 -0.000399843 0.00022117
0.00552759 -0.000549563 0.000224138
0.00574656 0.000649615 -0.000278055
0.00612994 0.000511663 -0.000332943
0.0055416 -0.000542878 0.000224358
0.00577897 0.000408584 -0.000686792
0.00578542 0.000680843 -0.00026093
0.00637755 5.94704e-05 0.000391472
0.00613358 0.000515903 -0.000334136
0.00612783 0.000508945 -0.000334874
0.00613537 0.000506452 -0.000333918
0.00535728 -0.000307039 0.00042037
0.00542867 -0.000324609 0.000437275
0.0054694 -0.00032165 0.000435643
0.00575982 0.000697307 -0.000254355
0.00578405 0.000693285 -0.000285118
0.00535971 -0.000309201 0.000422189
0.00549645 -0.000529972 0.000215562
0.00620694 0.000514701 -0.000336233
0.00602339 0.000337238 -0.000326778
0.00578783 -0.000625597 0.000233723
0.00622079 0.000575279 -0.000335126
0.00614855 7.99688e-05 0.000358759
0.00594496 -0.000661896 0.000241755
0.00552974 -0.000555862 0.000233274
0.00548459 -0.000523186 0.000214548
0.00600143 0.00039663 -0.000705403
0.00611633 0.000476294 -0.000324057
0.00620903 0.000636691 -0.000336764
0.00624007 0.000574064 -0.000338147
0.00591187 -0.000657184 0.000243982
0.0057105 0.000525809 -0.000344195
0.006152 0.000554703 -0.000337042
0.00610881 0.000550277 -0.000333813
0.00547924 -0.000507946 0.00023002
0.00618267 0.000534508 -0.00033972
0.00546452 -0.000544639 0.000205956
0.00566915 0.00062242 -0.000234497
0.00620131 0.000560312 -0.000341409
0.00558572 0.000783237 -0.00032207
0.00623602 0.000596043 -0.000346508
0.00609922 0.000117756 0.000336236
0.00603768 0.00047484 -0.000292827
0.00584359 -0.000660284 0.000391781
0.00613137 0.000540685 -0.000334586
0.00586844 -0.000659537 0.000390622
0.00620671 0.000571634 -0.00033488
0.00623758 0.000581969 -0.000347508
0.00611386 0.000541411 -0.000333794
0.00616113 0.000469504 -0.000333842
0.00551871 -0.00053547 0.000219328
0.00556243 -0.000516928 0.000206163
0.00561224 0.000616425 -0.000230367
0.00550542 -0.00054996 0.000230008
0.00538295 -0.000315514 0.000427995
0.0061667 0.000556334 -0.000334325
0.00618599 0.000556829 -0.00033808
0.00616328 0.000537627 -0.000337064
0.00616917 0.000508534 -0.00033481
0.00614794 0.000541178 -0.000335861
0.00569554 0.000595751 -0.000217936
0.00571322 0.00061461 -0.00022351
0.00606504 0.000401504 -0.000327309
0.00562966 0.000323018 -0.000625158
0.00620314 0.000448345 -0.000340694
0.0060993 0.000546371 -0.000332964
0.00583936 -0.000752475 0.000239688
0.00612695 0.000555002 -0.000334354
0.00575661 0.000136052 0.000305796
0.00545417 -0.000331604 0.000442005
0.00593773 -0.000656809 0.000240445
0.00611514 0.000122403 0.000280606

VECTORS force float
1.00364e-11 -5.04157e-11 2.64296e-11
-2.30465e-10 2.59032e-10 -1.45534e-10
-5.80816e-11 -1.07086e-10 -1.30594e-10
4.79377e-11 2.46428e-10 -1.05655e-10
-1.10894e-11 1.00399e-11 7.76042e-12
6.1259e-12 2.65331e-11 -1.05337e-11
-1.64347e-11 -2.17167e-11 1.10653e-11
-4.64183e-11 4.0999e-11 -6.10291e-11
1.04958e-12 3.58289e-13 -2.46137e-13
3.98673e-11 3.0056e-11 -1.11415e-11
-1.05135e-10 -4.36605e-11 1.72969e-11
-2.05424e-10 -7.09545e-10 -3.74522e-10
-1.06159e-10 5.58101e-12 -5.92921e-11
-8.38999e-11 1.66348e-10 -2.45607e-10
5.22243e-11 1.23527e-11 2.2853e-12
8.57837e-11 1.53438e-10 -2.38923e-10
-7.7318e-11 -2.95232e-11 6.357e-12
1.0861e-12 -4.29335e-12 -1.34192e-12
-3.97734e-11 6.09249e-11 2.32781e-11
-6.93365e-12 -1.76232e-11 6.63674e-12
2.2091e-11 -8.31418e-11 5.12902e-11
2.17016e-10 -1.3501e-10 6.62161e-11
-4.84151e-12 -2.70087e-11 1.10766e-11
-2.2546e-11 -8.99092e-11 4.16738e-11
2.33005e-12 -3.53757e-12 2.02386e-12
-5.61913e-10 -1.00093e-10 -8.86034e-10
-6.151e-11 1.45515e-10 -5.26039e-11
2.24745e-11 9.50777e-11 3.51531e-11
6.00873e-10 -4.76053e-11 5.75735e-11
2.99969e-11 5.78239e-12 -1.31236e-13
7.62487e-11 4.62346e-12 5.39265e-12
-4.88119e-12 1.09101e-11 -4.31396e-12
-1.00218e-11 -1.63316e-11 1.12575e-11
1.5001e-10 -6.43552e-11 4.17936e-11
7.47742e-13 3.14555e-13 -2.12153e-13
6.46846e-11 4.34969e-11 -1.71481e-11
1.03478e-11 2.5307e-11 -1.34106e-11
1.43054e-12 6.58168e-13 -4.05664e-13
-1.64163e-11 -2.03131e-11 5.95714e-12
5.01106e-11 5.78853e-11 -2.2333e-11
-4.56529e-11 4.60639e-11 -2.15549e-11
2.21746e-11 -8.51101e-12 3.57923e-12
-1.03303e-13 -2.08842e-12 3.62547e-12
6.78267e-12 -2.40358e-11 1.16477e-11
-9.2748e-12 -6.32059e-11 4.25581e-11
9.64886e-13 -2.71375e-12 9.59095e-13
-6.73159e-11 -2.7618e-10 1.54218e-10
1.46484e-10 -5.29101e-11 1.0418e-10
-1.85268e-10 7.99358e-12 3.66168e-10
2.03001e-12 1.69369e-12 -7.40228e-13
-1.86886e-11 2.65563e-11 -2.06245e-11
4.14873e-11 5.53844e-11 -2.05792e-10
6.30046e-11 -2.41223e-11 1.61965e-11
-1.91975e-11 1.519e-11 -7.0181e-12
5.45321e-11 -3.37095e-11 2.02831e-11
6.60496e-11 -7.55168e-12 8.4194e-12
-4.60995e-12 3.3192e-12 4.81747e-13
-7.97611e-11 8.62617e-11 -5.57822e-11
3.45976e-10 -5.06281e-11 1.08492e-10
-5.65801e-13 -4.538e-12 1.76615e-12
-9.88159e-11 9.6067e-11 -2.99877e-10
6.09669e-10 5.60526e-10 2.18714e-11
-3.34754e-10 -7.70275e-12 -1.88085e-11