# vtk DataFile Version 3.0
LIGGGHTS particles timestep 59800000
ASCII
DATASET POLYDATA
POINTS 272 float
0.361881 0.0178813 0.00700986
0.36182 0.0175308 0.00729345
0.361771 0.0170614 0.0074867
0.367583 0.0170374 0.00754304
0.36194 0.0177288 0.00707539
0.361589 0.0166995 0.00770845
0.367786 0.017837 0.00697819
0.361568 0.0166163 0.00775974
0.361999 0.0183785 0.0069634
0.355774 0.0170377 0.00747547
0.361371 0.0161726 0.00803203
0.355726 0.0171937 0.00739774
0.355988 0.0179484 0.00699345
0.36143 0.0164229 0.00787769
0.361391 0.016256 0.00798057
0.361821 0.017615 0.00714432
0.361997 0.0175926 0.00716061
0.356074 0.0179923 0.00696593
0.367707 0.0175167 0.00720406
0.361705 0.0168096 0.00764185
0.367747 0.0176759 0.00709013
0.355614 0.0167604 0.0076423
0.361536 0.0168391 0.00762123
0.361352 0.0160891 0.00808349
0.361659 0.0173407 0.00741345
0.361842 0.0176984 0.00709293
0.361451 0.0165062 0.00782637
0.367603 0.0171187 0.00748859
0.361411 0.0163395 0.00792911
0.361877 0.0174781 0.00722991
0.367847 0.01813 0.00695781
0.361749 0.0169777 0.00753825
0.361834 0.0173113 0.00733268
0.367727 0.0175963 0.00714707
0.362052 0.0178477 0.00700324
0.362096 0.0180258 0.00694626
0.367624 0.0171983 0.00743176
0.291888 0.0178153 0.00780356
0.361683 0.0174217 0.00726223
0.367806 0.0179346 0.0069714
0.361472 0.0165894 0.00777508
0.362098 0.0184148 0.00696378
0.355955 0.0186393 0.00704425
0.367665 0.0173575 0.00731788
0.361924 0.0182038 0.00703762
0.355944 0.0172632 0.00734945
0.361823 0.0180177 0.00695149
0.367644 0.0172779 0.00737482
0.378022 0.019866 0.005332
0.362124 0.0181248 0.0069502
0.361855 0.0173948 0.0072812
0.361902 0.0179555 0.00694623
0.367686 0.0174371 0.00726094
0.3557 0.0170991 0.00744807
0.355936 0.0185426 0.00706147
0.362028 0.0180982 0.00695055
0.361673 0.0170324 0.00750331
0.36192 0.0184765 0.00697231
0.367768 0.0177555 0.00703326
0.356038 0.0185844 0.00704061
0.361864 0.0182133 0.00695823
0.362034 0.017764 0.00705489
0.361954 0.0176102 0.00724872
0.355636 0.0168417 0.00758814
0.361916 0.0177496 0.00717018
0.355227 0.0157633 0.00861549
0.355876 0.0182673 0.00697198
0.361631 0.0168666 0.00760696
0.356105 0.0184577 0.00702294
0.355887 0.0171555 0.00740821
0.367827 0.0180323 0.00696461
0.356086 0.0183614 0.00700429
0.36206 0.0179326 0.00695075
0.36161 0.0167827 0.00765716
0.361919 0.0180043 0.00703736
0.361956 0.0182563 0.00695868
0.362043 0.0181969 0.00695468
0.355752 0.0169513 0.00752127
0.361798 0.0177162 0.0071811
0.362061 0.0186727 0.00697688
0.361825 0.0179694 0.00703909
0.361862 0.0177818 0.0070415
0.36162 0.017172 0.00741608
0.35545 0.0161989 0.00818617
0.361961 0.0186721 0.0069779
0.3557 0.0175025 0.00730598
0.361956 0.0178161 0.00702151
0.355713 0.0175458 0.00721689
0.0643568 0.0187248 0.00531097
0.24257 0.0191927 0.00520306
0.356026 0.0180788 0.00694939
0.355432 0.016131 0.00825743
0.3558 0.017793 0.00717633
0.355248 0.0158311 0.00854523
0.361844 0.0181155 0.00695422
0.36202 0.0184768 0.00696766
0.361878 0.0178404 0.00712097
0.36168 0.0174239 0.00736217
0.355587 0.016366 0.00803488
0.355614 0.0171493 0.00743273
0.355657 0.0173195 0.00733681
0.361813 0.0172281 0.00738398
0.361799 0.0175317 0.0071956
0.361919 0.0176451 0.00712697
0.355846 0.0172373 0.00736839
0.361882 0.0182938 0.00701473
0.361955 0.0174255 0.00726354
0.361746 0.0176713 0.00710838
0.361599 0.0170888 0.00746737
0.355995 0.0188316 0.00708158
0.362019 0.0176766 0.0071088
0.361715 0.0171988 0.00740074
0.355317 0.0160344 0.00833562
0.361934 0.0173423 0.00731484
0.362005 0.0180076 0.00698615
0.355769 0.0173663 0.00730625
0.355775 0.0174549 0.00726023
0.361792 0.0171447 0.00743532
0.361783 0.0178069 0.00714071
0.361778 0.0174485 0.00724689
0.36194 0.0185744 0.00697331
0.355678 0.0170127 0.00749382
0.361931 0.0179188 0.00708789
0.361779 0.0176281 0.00723412
0.361557 0.0169223 0.00756994
0.355624 0.0165017 0.00789256
0.356081 0.0179035 0.00701132
0.355272 0.0158989 0.0084757
0.356039 0.0177306 0.00710287
0.355686 0.0171652 0.00759337
0.355748 0.01728 0.007352
0.355646 0.0165695 0.00782236
0.361493 0.0166727 0.0077238
0.355836 0.0180719 0.00695793
0.355756 0.0177184 0.0071254
0.355667 0.0166373 0.00775199
0.355296 0.0159666 0.00840591
0.355637 0.017234 0.00748254
0.355607 0.0164338 0.00796404
0.0219312 0.0187687 0.00551176
0.355709 0.0167787 0.00761274
0.361652 0.0169492 0.0075546
0.355735 0.0176321 0.00717113
0.355975 0.0187354 0.00706292
0.355474 0.0162666 0.00811659
0.355894 0.0179195 0.00701372
0.361662 0.0173384 0.00731351
0.35596 0.0182914 0.00701951
0.356011 0.0184901 0.00702174
0.355798 0.0178911 0.00703388
0.35595 0.0182009 0.0069656
0.361922 0.0180532 0.00695023
0.355593 0.0170608 0.00747392
0.36204 0.018575 0.00697228
0.355576 0.0168759 0.00766125
0.355884 0.0177428 0.0072014
0.35534 0.0161227 0.00829442
0.355751 0.0176366 0.00726967
0.356052 0.0182693 0.00698532
0.361788 0.0178448 0.00701945
0.355956 0.0179521 0.00708813
0.362056 0.018296 0.00695886
0.356059 0.0178173 0.00705703
0.355916 0.0184595 0.00700932
0.361767 0.0177545 0.00705709
0.361694 0.0171156 0.00745203
0.361725 0.0175881 0.00715966
0.349926 0.0185137 0.0068992
0.361877 0.0176655 0.00721537
0.355636 0.0172332 0.00738255
0.361943 0.0181518 0.00695426
0.355991 0.0183929 0.00700292
0.355853 0.0177445 0.00710641
0.355949 0.0177705 0.00708746
0.349593 0.0170327 0.00740418
0.355963 0.0174697 0.00724179
0.355912 0.0180083 0.00696688
0.355412 0.0160632 0.00832819
0.355874 0.0178314 0.00706032
0.355731 0.016865 0.007567
0.361757 0.0173653 0.00729817
0.356143 0.0181874 0.00697739
0.355549 0.0165387 0.00783168
0.355592 0.0166761 0.00769151
0.355393 0.0163107 0.00807832
0.355795 0.0171241 0.00742971
0.355571 0.0169745 0.00751965
0.361728 0.0168942 0.00758969
0.361514 0.0167559 0.00767251
0.356045 0.0181696 0.00698684
0.361704 0.0175049 0.00721094
0.361898 0.0175614 0.00717856
0.34983 0.0180492 0.00705744
0.355372 0.016229 0.00813211
0.361803 0.0179199 0.0069551
0.355679 0.0174059 0.00729123
0.361976 0.0175092 0.00721197
0.355811 0.0175732 0.00720072
0.361975 0.0179115 0.00699872
0.355486 0.0166333 0.00770968
0.361773 0.0174598 0.00734609
0.355908 0.017833 0.00715429
0.34985 0.0181421 0.0070258
0.349788 0.0178641 0.00712055
0.355896 0.018363 0.00699251
0.3556 0.016961 0.00761453
0.35593 0.0181048 0.00694692
0.355864 0.0179896 0.00707884
0.361899 0.0183789 0.00696501
0.355467 0.0165655 0.00778058
0.355806 0.0173474 0.00739723
0.35555 0.0168883 0.00756547
0.34949 0.0165697 0.00756204
0.349549 0.0168479 0.00746721
0.34947 0.0164798 0.00760153
0.355966 0.0173528 0.00730192
0.355927 0.0176837 0.00713346
0.349508 0.0166626 0.00753038
0.349701 0.0174946 0.00724661
0.355412 0.0163808 0.00800979
0.355789 0.0175476 0.00729492
0.349636 0.0172175 0.00734115
0.355512 0.0164028 0.00797427
0.361736 0.0172821 0.00734946
0.349723 0.017587 0.00721509
0.349908 0.0184207 0.00693088
0.349658 0.0173098 0.00730964
0.355899 0.0176351 0.00722181
0.35615 0.0182854 0.00699547
0.355688 0.0167051 0.00768155
0.355766 0.0174507 0.00735977
0.349745 0.0176794 0.00718358
0.355778 0.0178047 0.00707964
0.355736 0.0170483 0.0075675
0.355622 0.0170472 0.00756869
0.349614 0.0171251 0.00737267
0.355689 0.017303 0.00742997
0.349944 0.0186068 0.0068675
0.355831 0.0176581 0.00715215
0.355529 0.0164707 0.00790268
0.355958 0.0175586 0.00719623
0.355868 0.0174975 0.00723296
0.361578 0.0170055 0.00751866
0.355855 0.01817 0.00696176
0.34981 0.0179565 0.00708903
0.355568 0.0166066 0.00776077
0.349766 0.0177718 0.00715206
0.355548 0.0167932 0.00770974
0.355493 0.0163345 0.00804568
0.35543 0.0164409 0.00793195
0.355868 0.0173234 0.00732272
0.350024 0.0185492 0.00688561
0.349869 0.0182349 0.00699416
0.355822 0.0178797 0.00713045
0.349527 0.0167556 0.00749873
0.355745 0.0171605 0.00751253
0.355507 0.0167156 0.00765689
0.355503 0.0167188 0.00775889
0.355611 0.0171419 0.00753238
0.355969 0.0178589 0.00704073
0.355352 0.0161612 0.00820301
0.355657 0.0169264 0.00753956
0.355888 0.0174106 0.00727799
0.355818 0.0179793 0.00699074
0.355529 0.0168019 0.00761114
0.355804 0.0172196 0.00745767
0.349888 0.0183278 0.00696252
0.355448 0.0164976 0.00785146
0.361795 0.0178989 0.00710331
0.349571 0.0169403 0.0074357
0.349679 0.0174022 0.00727812
0.361641 0.0172552 0.0073648

VERTICES 272 544
1 0
1 1
1 2
1 3
1 4
1 5
1 6
1 7
1 8
1 9
1 10
1 11
1 12
1 13
1 14
1 15
1 16
1 17
1 18
1 19
1 20
1 21
1 22
1 23
1 24
1 25
1 26
1 27
1 28
1 29
1 30
1 31
1 32
1 33
1 34
1 35
1 36
1 37
1 38
1 39
1 40
1 41
1 42
1 43
1 44
1 45
1 46
1 47
1 48
1 49
1 50
1 51
1 52
1 53
1 54
1 55
1 56
1 57
1 58
1 59
1 60
1 61
1 62
1 63
1 64
1 65
1 66
1 67
1 68
1 69
1 70
1 71
1 72
1 73
1 74
1 75
1 76
1 77
1 78
1 79
1 80
1 81
1 82
1 83
1 84
1 85
1 86
1 87
1 88
1 89
1 90
1 91
1 92
1 93
1 94
1 95
1 96
1 97
1 98
1 99
1 100
1 101
1 102
1 103
1 104
1 105
1 106
1 107
1 108
1 109
1 110
1 111
1 112
1 113
1 114
1 115
1 116
1 117
1 118
1 119
1 120
1 121
1 122
1 123
1 124
1 125
1 126
1 127
1 128
1 129
1 130
1 131
1 132
1 133
1 134
1 135
1 136
1 137
1 138
1 139
1 140
1 141
1 142
1 143
1 144
1 145
1 146
1 147
1 148
1 149
1 150
1 151
1 152
1 153
1 154
1 155
1 156
1 157
1 158
1 159
1 160
1 161
1 162
1 163
1 164
1 165
1 166
1 167
1 168
1 169
1 170
1 171
1 172
1 173
1 174
1 175
1 176
1 177
1 178
1 179
1 180
1 181
1 182
1 183
1 184
1 185
1 186
1 187
1 188
1 189
1 190
1 191
1 192
1 193
1 194
1 195
1 196
1 197
1 198
1 199
1 200
1 201
1 202
1 203
1 204
1 205
1 206
1 207
1 208
1 209
1 210
1 211
1 212
1 213
1 214
1 215
1 216
1 217
1 218
1 219
1 220
1 221
1 222
1 223
1 224
1 225
1 226
1 227
1 228
1 229
1 230
1 231
1 232
1 233
1 234
1 235
1 236
1 237
1 238
1 239
1 240
1 241
1 242
1 243
1 244
1 245
1 246
1 247
1 248
1 249
1 250
1 251
1 252
1 253
1 254
1 255
1 256
1 257
1 258
1 259
1 260
1 261
1 262
1 263
1 264
1 265
1 266
1 267
1 268
1 269
1 270
1 271

POINT_DATA 272
SCALARS id int 1
LOOKUP_TABLE default
1
2
4
6
7
8
9
10
11
12
13
14
16
17
19
21
22
23
24
25
26
27
28
29
30
31
32
33
34
35
36
37
38
39
42
44
45
47
48
49
50
51
52
53
54
55
56
57
59
60
62
63
64
65
66
67
68
69
70
71
72
73
74
76
77
78
79
80
82
83
84
85
86
87
88
89
90
91
92
93
94
95
96
97
98
99
100
101
102
103
104
105
106
107
108
109
110
111
112
113
114
115
116
117
118
119
120
121
122
123
124
125
127
128
129
130
131
132
133
134
135
136
137
138
140
141
142
143
144
146
147
148
149
150
151
153
154
155
156
157
158
159
160
162
164
165
166
167
168
169
170
171
172
173
174
176
177
178
179
182
183
184
185
186
187
188
189
190
191
192
193
194
195
196
197
198
199
200
201
202
203
204
205
206
207
208
209
210
211
212
213
214
215
216
217
218
219
220
222
224
225
226
227
228
229
230
232
233
234
235
236
237
239
240
241
242
243
244
246
247
248
249
250
251
252
253
254
255
256
257
258
259
260
261
262
263
264
265
266
267
268
269
270
271
272
273
274
275
276
277
278
279
280
281
283
284
285
286
287
288
289
290
291
292
293
294
295
296
297
298
299
300

SCALARS type int 1
LOOKUP_TABLE default
1
1
1
1
1
1
1
1
1
1
1
1
1
1
1
1
1
1
1
1
1
1
1
1
1
1
1
1
1
1
1
1
1
1
1
1
1
1
1
1
1
1
1
1
1
1
1
1
1
1
1
1
1
1
1
1
1
1
1
1
1
1
1
1
1
1
1
1
1
1
1
1
1
1
1
1
1
1
1
1
1
1
1
1
1
1
1
1
1
1
1
1
1
1
1
1
1
1
1
1
1
1
1
1
1
1
1
1
1
1
1
1
1
1
1
1
1
1
1
1
1
1
1
1
1
1
1
1
1
1
1
1
1
1
1
1
1
1
1
1
1
1
1
1
1
1
1
1
1
1
1
1
1
1
1
1
1
1
1
1
1
1
1
1
1
1
1
1
1
1
1
1
1
1
1
1
1
1
1
1
1
1
1
1
1
1
1
1
1
1
1
1
1
1
1
1
1
1
1
1
1
1
1
1
1
1
1
1
1
1
1
1
1
1
1
1
1
1
1
1
1
1
1
1
1
1
1
1
1
1
1
1
1
1
1
1
1
1
1
1
1
1
1
1
1
1
1
1
1
1
1
1
1
1
1
1
1
1
1
1
1
1
1
1
1
1
1
1
1
1
1
1

SCALARS radius float 1
LOOKUP_TABLE default
5e-05
5e-05
5e-05
5e-05
5e-05
5e-05
5e-05
5e-05
5e-05
5e-05
5e-05
5e-05
5e-05
5e-05
5e-05
5e-05
5e-05
5e-05
5e-05
5e-05
5e-05
5e-05
5e-05
5e-05
5e-05
5e-05
5e-05
5e-05
5e-05
5e-05
5e-05
5e-05
5e-05
5e-05
5e-05
5e-05
5e-05
5e-05
5e-05
5e-05
5e-05
5e-05
5e-05
5e-05
5e-05
5e-05
5e-05
5e-05
5e-05
5e-05
5e-05
5e-05
5e-05
5e-05
5e-05
5e-05
5e-05
5e-05
5e-05
5e-05
5e-05
5e-05
5e-05
5e-05
5e-05
5e-05
5e-05
5e-05
5e-05
5e-05
5e-05
5e-05
5e-05
5e-05
5e-05
5e-05
5e-05
5e-05
5e-05
5e-05
5e-05
5e-05
5e-05
5e-05
5e-05
5e-05
5e-05
5e-05
5e-05
5e-05
5e-05
5e-05
5e-05
5e-05
5e-05
5e-05
5e-05
5e-05
5e-05
5e-05
5e-05
5e-05
5e-05
5e-05
5e-05
5e-05
5e-05
5e-05
5e-05
5e-05
5e-05
5e-05
5e-05
5e-05
5e-05
5e-05
5e-05
5e-05
5e-05
5e-05
5e-05
5e-05
5e-05
5e-05
5e-05
5e-05
5e-05
5e-05
5e-05
5e-05
5e-05
5e-05
5e-05
5e-05
5e-05
5e-05
5e-05
5e-05
5e-05
5e-05
5e-05
5e-05
5e-05
5e-05
5e-05
5e-05
5e-05
5e-05
5e-05
5e-05
5e-05
5e-05
5e-05
5e-05
5e-05
5e-05
5e-05
5e-05
5e-05
5e-05
5e-05
5e-05
5e-05
5e-05
5e-05
5e-05
5e-05
5e-05
5e-05
5e-05
5e-05
5e-05
5e-05
5e-05
5e-05
5e-05
5e-05
5e-05
5e-05
5e-05
5e-05
5e-05
5e-05
5e-05
5e-05
5e-05
5e-05
5e-05
5e-05
5e-05
5e-05
5e-05
5e-05
5e-05
5e-05
5e-05
5e-05
5e-05
5e-05
5e-05
5e-05
5e-05
5e-05
5e-05
5e-05
5e-05
5e-05
5e-05
5e-05
5e-05
5e-05
5e-05
5e-05
5e-05
5e-05
5e-05
5e-05
5e-05
5e-05
5e-05
5e-05
5e-05
5e-05
5e-05
5e-05
5e-05
5e-05
5e-05
5e-05
5e-05
5e-05
5e-05
5e-05
5e-05
5e-05
5e-05
5e-05
5e-05
5e-05
5e-05
5e-05
5e-05
5e-05
5e-05
5e-05
5e-05
5e-05
5e-05
5e-05
5e-05
5e-05
5e-05
5e-05
5e-05
5e-05
5e-05
5e-05
5e-05
5e-05
5e-05
5e-05
5e-05
5e-05
5e-05
5e-05
5e-05
5e-05
5e-05
5e-05
5e-05
5e-05
5e-05

SCALARS mass float 1
LOOKUP_TABLE default
1.46608e-10
1.46608e-10
1.46608e-10
1.46608e-10
1.46608e-10
1.46608e-10
1.46608e-10
1.46608e-10
1.46608e-10
1.46608e-10
1.46608e-10
1.46608e-10
1.46608e-10
1.46608e-10
1.46608e-10
1.46608e-10
1.46608e-10
1.46608e-10
1.46608e-10
1.46608e-10
1.46608e-10
1.46608e-10
1.46608e-10
1.46608e-10
1.46608e-10
1.46608e-10
1.46608e-10
1.46608e-10
1.46608e-10
1.46608e-10
1.46608e-10
1.46608e-10
1.46608e-10
1.46608e-10
1.46608e-10
1.46608e-10
1.46608e-10
1.46608e-10
1.46608e-10
1.46608e-10
1.46608e-10
1.46608e-10
1.46608e-10
1.46608e-10
1.46608e-10
1.46608e-10
1.46608e-10
1.46608e-10
1.46608e-10
1.46608e-10
1.46608e-10
1.46608e-10
1.46608e-10
1.46608e-10
1.46608e-10
1.46608e-10
1.46608e-10
1.46608e-10
1.46608e-10
1.46608e-10
1.46608e-10
1.46608e-10
1.46608e-10
1.46608e-10
1.46608e-10
1.46608e-10
1.46608e-10
1.46608e-10
1.46608e-10
1.46608e-10
1.46608e-10
1.46608e-10
1.46608e-10
1.46608e-10
1.46608e-10
1.46608e-10
1.46608e-10
1.46608e-10
1.46608e-10
1.46608e-10
1.46608e-10
1.46608e-10
1.46608e-10
1.46608e-10
1.46608e-10
1.46608e-10
1.46608e-10
1.46608e-10
1.46608e-10
1.46608e-10
1.46608e-10
1.46608e-10
1.46608e-10
1.46608e-10
1.46608e-10
1.46608e-10
1.46608e-10
1.46608e-10
1.46608e-10
1.46608e-10
1.46608e-10
1.46608e-10
1.46608e-10
1.46608e-10
1.46608e-10
1.46608e-10
1.46608e-10
1.46608e-10
1.46608e-10
1.46608e-10
1.46608e-10
1.46608e-10
1.46608e-10
1.46608e-10
1.46608e-10
1.46608e-10
1.46608e-10
1.46608e-10
1.46608e-10
1.46608e-10
1.46608e-10
1.46608e-10
1.46608e-10
1.46608e-10
1.46608e-10
1.46608e-10
1.46608e-10
1.46608e-10
1.46608e-10
1.46608e-10
1.46608e-10
1.46608e-10
1.46608e-10
1.46608e-10
1.46608e-10
1.46608e-10
1.46608e-10
1.46608e-10
1.46608e-10
1.46608e-10
1.46608e-10
1.46608e-10
1.46608e-10
1.46608e-10
1.46608e-10
1.46608e-10
1.46608e-10
1.46608e-10
1.46608e-10
1.46608e-10
1.46608e-10
1.46608e-10
1.46608e-10
1.46608e-10
1.46608e-10
1.46608e-10
1.46608e-10
1.46608e-10
1.46608e-10
1.46608e-10
1.46608e-10
1.46608e-10
1.46608e-10
1.46608e-10
1.46608e-10
1.46608e-10
1.46608e-10
1.46608e-10
1.46608e-10
1.46608e-10
1.46608e-10
1.46608e-10
1.46608e-10
1.46608e-10
1.46608e-10
1.46608e-10
1.46608e-10
1.46608e-10
1.46608e-10
1.46608e-10
1.46608e-10
1.46608e-10
1.46608e-10
1.46608e-10
1.46608e-10
1.46608e-10
1.46608e-10
1.46608e-10
1.46608e-10
1.46608e-10
1.46608e-10
1.46608e-10
1.46608e-10
1.46608e-10
1.46608e-10
1.46608e-10
1.46608e-10
1.46608e-10
1.46608e-10
1.46608e-10
1.46608e-10
1.46608e-10
1.46608e-10
1.46608e-10
1.46608e-10
1.46608e-10
1.46608e-10
1.46608e-10
1.46608e-10
1.46608e-10
1.46608e-10
1.46608e-10
1.46608e-10
1.46608e-10
1.46608e-10
1.46608e-10
1.46608e-10
1.46608e-10
1.46608e-10
1.46608e-10
1.46608e-10
1.46608e-10
1.46608e-10
1.46608e-10
1.46608e-10
1.46608e-10
1.46608e-10
1.46608e-10
1.46608e-10
1.46608e-10
1.46608e-10
1.46608e-10
1.46608e-10
1.46608e-10
1.46608e-10
1.46608e-10
1.46608e-10
1.46608e-10
1.46608e-10
1.46608e-10
1.46608e-10
1.46608e-10
1.46608e-10
1.46608e-10
1.46608e-10
1.46608e-10
1.46608e-10
1.46608e-10
1.46608e-10
1.46608e-10
1.46608e-10
1.46608e-10
1.46608e-10
1.46608e-10
1.46608e-10
1.46608e-10
1.46608e-10
1.46608e-10
1.46608e-10
1.46608e-10
1.46608e-10
1.46608e-10
1.46608e-10
1.46608e-10
1.46608e-10
1.46608e-10
1.46608e-10
1.46608e-10
1.46608e-10
1.46608e-10
1.46608e-10
1.46608e-10

VECTORS velocity float
0.00570335 0.000204634 -5.84898e-05
0.00617073 5.73282e-05 4.27349e-05
0.00605748 9.45998e-05 2.40723e-05
0.00591617 3.14537e-06 0.000179203
0.00573985 0.000254767 -7.82246e-05
0.0059019 0.000112974 1.02606e-05
0.00565469 -3.29979e-05 4.71518e-05
0.00585914 0.000122206 3.29996e-06
0.00579792 0.000203231 -8.30395e-05
0.00596253 -0.000396337 -0.000137746
0.0055217 0.000170884 -3.0511e-05
0.00603173 -0.000393075 -0.000143746
0.00564666 -0.00023441 -0.000161592
0.00562432 0.000162925 -2.36994e-05
0.00551752 0.000176228 -3.40587e-05
0.00622687 8.75389e-05 3.1704e-05
0.00633784 8.75976e-05 3.16549e-05
0.00583355 -0.00029708 -0.000171553
0.00614124 -0.000154522 3.20701e-05
0.00594672 9.08028e-05 2.45217e-05
0.00623323 -0.000171668 4.28142e-05
0.00585134 -1.68249e-05 0.000464148
0.00595388 0.000127346 2.64571e-06
0.00549696 0.000176615 -3.46675e-05
0.00613332 0.000113453 1.78232e-05
0.00631998 8.17088e-05 3.45061e-05
0.00582564 0.000134492 -2.69104e-06
0.00595077 -4.05315e-06 0.000187132
0.00527566 0.000218337 -6.33745e-05
0.00620268 7.28045e-05 3.93884e-05
0.00570995 -4.4568e-05 4.78215e-05
0.00602873 9.1848e-05 2.50518e-05
0.00614919 8.3731e-05 3.21705e-05
0.00620005 -0.000164591 3.86524e-05
0.00570289 0.000202186 -4.8303e-05
0.00578387 0.000171961 -8.31514e-05
0.00597753 -0.000128274 1.07948e-05
0.0153006 0.0221886 -0.00656652
0.00617677 0.000102502 2.10069e-05
0.0056721 -3.6511e-05 4.61123e-05
0.00585404 0.0001239 2.54391e-06
0.00433064 -0.00163585 -0.000126165
0.00559908 -0.00039858 0.000344369
0.00606566 -0.000138386 2.17239e-05
0.00579356 0.000185693 -7.82391e-05
0.0060049 -0.000369034 -0.000153956
0.00577967 0.00019297 -8.18037e-05
0.0060254 -0.00012864 1.63029e-05
-5.01969e-15 -7.41209e-15 7.69802e-14
0.00579734 0.000196263 -8.1068e-05
0.00617348 7.07139e-05 3.99309e-05
0.00566526 0.00018758 -8.42989e-05
0.00610257 -0.000148805 2.78562e-05
0.00596816 -0.000392108 -0.000139849
0.00558999 -0.000377002 0.000361344
0.00579235 0.000183116 -8.70188e-05
0.00604126 0.000106569 1.69174e-05
0.0057977 0.000200214 -6.52285e-05
0.00602254 -0.000134417 1.59235e-05
0.00563208 -0.000346872 0.000354778
0.00579432 0.00019736 -7.98679e-05
0.00571259 0.000212753 -5.48523e-05
0.00624809 0.000116334 -1.95381e-05
0.00591331 -0.000305888 2.87849e-05
0.00578121 0.000270538 -7.09753e-05
0.00560796 0.000436111 0.000962759
0.00568233 -0.000386753 0.000382394
0.0059654 0.0001081 1.40121e-05
0.00567551 -0.000337343 0.000358742
0.0059315 -0.000358771 -0.000156503
0.00569271 -3.87349e-05 4.67859e-05
0.00569876 -0.000345483 0.000356387
0.00574111 0.00018774 -3.59818e-05
0.00593536 0.000112233 1.13089e-05
0.00576784 0.000241914 -4.73583e-05
0.00579418 0.000191971 -8.12191e-05
0.005727 0.000186292 -8.40719e-05
0.00592209 -0.0004183 -0.000123129
0.00625146 0.000138526 -1.51096e-05
0.0058076 0.000242207 -4.93782e-05
0.00578705 0.000190559 -3.09946e-05
0.00570813 0.00022003 -5.66106e-05
0.006075 0.000114993 1.14358e-05
0.0055531 0.00037043 0.00102548
0.005805 0.000205205 -5.2179e-05
0.00602283 -0.000413971 -8.02771e-05
0.00571829 0.000218584 -6.00971e-05
0.00606686 -0.000432401 -8.28422e-05
4.26635e-15 1.05075e-14 8.29589e-14
-2.11393e-22 4.01299e-22 -5.81428e-22
0.00558299 -0.000352667 0.000350939
0.00526186 0.000366011 0.000952585
0.00619966 -0.000433129 -0.000126586
0.00593058 0.000424775 0.0010595
0.00578326 0.000193416 -9.49308e-05
0.00579654 0.000208933 -5.14438e-05
0.0057203 0.000222926 -5.73441e-05
0.00615782 9.47027e-05 2.00229e-05
0.00564448 0.000342254 0.00107904
0.00598744 -0.000368107 -0.000152366
0.00604136 -0.000396936 -0.000143783
0.00612027 9.03201e-05 2.74744e-05
0.00621387 8.36153e-05 3.3219e-05
0.00632688 8.06807e-05 3.46114e-05
0.00593006 -0.000376846 -0.000145335
0.00579971 0.000195211 -6.86183e-05
0.00619584 6.32574e-05 4.53938e-05
0.00622633 9.47195e-05 2.57411e-05
0.00604402 0.000109736 1.46883e-05
0.00568272 -0.000447403 0.000339752
0.00577441 0.000292772 -0.000102704
0.00609504 9.90561e-05 2.05156e-05
0.0047953 0.000419058 0.00077448
0.00616337 5.84227e-05 4.76306e-05
0.00577124 0.000210293 -4.57523e-05
0.00603099 -0.00039538 -0.000139901
0.00601559 -0.000394432 -0.000137233
0.00608465 8.72228e-05 2.93305e-05
0.00630252 7.87274e-05 4.02222e-05
0.00618607 8.06233e-05 3.2945e-05
0.00579821 0.000202749 -4.93441e-05
0.00594665 -0.00039188 -0.000137811
0.00570353 0.000233447 -5.97565e-05
0.00622363 9.31824e-05 2.90012e-05
0.00597153 0.000116153 9.66993e-06
0.00580618 0.000346974 0.00111423
0.00579818 -0.000279178 -0.000171372
0.0063781 0.00039617 0.00120496
0.00594625 -0.000288713 -0.000193283
0.00598962 -0.000406234 -0.000145475
0.00604004 -0.000393288 -0.000141668
0.00581612 0.000350733 0.00111321
0.0058729 0.000124958 1.97253e-06
0.00557379 -0.00031142 0.000140896
0.00611784 -0.00044432 -0.000115828
0.0058004 0.000358644 0.00110217
0.00619155 0.000395586 0.00115815
0.006031 -0.000377358 -0.000155584
0.00573427 0.00034527 0.0011007
-3.82695e-14 8.16795e-14 2.95892e-13
0.00584967 -0.000410143 -0.000114694
0.00600754 0.000107201 1.56025e-05
0.00609095 -0.000446977 -0.000109681
0.0055093 -0.000397884 0.000334466
0.00555978 0.000366551 0.0010313
0.00573286 -0.000246665 -0.000200891
0.00614096 0.000108769 1.71598e-05
0.00564023 -0.000354168 0.000358297
0.00566093 -0.000347656 0.000357245
0.00593699 -0.000419919 -0.00015335
0.00566342 -0.000388943 0.000368426
0.00576818 0.000169094 -8.49547e-05
0.0059489 -0.000359691 -0.000153624
0.00579634 0.000245339 -4.85604e-05
0.00589709 3.10783e-06 -4.86028e-05
0.00620416 -0.000450573 -0.000120013
0.00531225 0.000359739 0.000962422
0.00612108 -0.000411457 -0.000113103
0.00563111 -0.000315602 0.000368403
0.00569585 0.000205552 -4.31409e-05
0.00578331 -0.000191401 -7.25364e-05
0.00576177 0.000179135 -8.37871e-05
0.00576793 -0.000254172 -0.00019656
0.00565495 -0.000372587 0.000348414
0.00631286 8.92175e-05 3.39181e-05
0.00606627 0.000104121 1.81811e-05
0.0062242 8.29057e-05 3.13518e-05
0.00551272 -0.000459321 6.41331e-05
0.00624536 0.000117089 -1.54471e-05
0.00602024 -0.000378236 -0.000151522
0.00579741 0.000192762 -8.2361e-05
0.00568238 -0.000351141 0.000356472
0.00616566 -0.000450622 -0.000120249
0.00608678 -0.000115726 -0.000291045
0.00603454 -0.000536151 8.14832e-05
0.00606917 -0.000440248 -0.000119685
0.00552724 -0.000368597 5.37364e-06
0.00480402 0.000367035 0.000829237
0.00615123 -0.000149855 -0.000294919
0.00587941 -0.000414251 -0.000123726
0.00615538 8.26569e-05 3.08436e-05
0.0056517 -0.000391259 0.000344941
0.00604837 0.000605117 0.000888674
0.00658178 -0.00395739 -0.00596572
0.00555355 0.000376394 0.00103269
0.00595704 -0.000387353 -0.000141853
0.00595417 -0.000363723 -0.000148453
0.00599414 8.94415e-05 2.59532e-05
0.00591461 0.000135093 -3.03069e-06
0.00563331 -0.000340803 0.000376428
0.00621098 9.12409e-05 2.87889e-05
0.00621634 7.01977e-05 4.33218e-05
0.00558132 -0.00042508 5.18703e-05
0.00554411 0.000370917 0.00102432
0.00577633 0.000197174 -4.11851e-05
0.00604208 -0.000404078 -0.000116274
0.00618207 3.13516e-05 6.4062e-05
0.00608043 -0.000436637 -0.00010972
0.00571415 0.000226362 -5.51824e-05
0.00592022 0.000384972 0.00110967
0.00618955 5.56666e-05 3.46368e-05
0.00626066 4.60636e-05 -0.000338713
0.00561122 -0.00044399 5.72398e-05
0.00603993 -0.000512469 7.33643e-05
0.00568093 -0.000380261 0.000340387
0.00601942 -8.33733e-05 -0.000141463
0.00560035 -0.000356359 0.000336441
0.00580669 -8.85047e-05 -0.000341715
0.00579815 0.0001965 -8.15806e-05
0.00585936 0.000382846 0.00108802
0.00599997 -0.000354104 -0.000138138
0.00591068 -0.000374634 -0.000130627
0.00561207 -0.000452324 6.3373e-05
0.00603231 -0.000526839 7.92236e-05
0.00559399 -0.000244372 0.000522123
0.00604943 -0.000429504 -0.000124706
0.00619222 -0.00043754 -0.000132388
0.00554973 -0.000444853 6.67713e-05
0.00603303 -0.00052168 7.70576e-05
0.00563988 0.000370408 0.00104508
0.00608129 -0.000426979 -0.000103612
0.00603616 -0.000528927 7.91324e-05
0.00570784 0.00035293 0.00107912
0.00612656 9.28645e-05 2.5377e-05
0.0060395 -0.000518617 7.51065e-05
0.00573093 -0.000503279 7.53484e-05
0.00603334 -0.000524047 7.74729e-05
0.00615516 -0.000407483 -0.00015324
0.00568413 -0.00038346 0.000348845
0.00580407 0.000360146 0.00108443
0.00605663 -0.000410573 -0.000128581
0.00603652 -0.000516716 7.50252e-05
0.00614415 -0.000450712 -0.000119028
0.00596455 -0.000419392 -0.000131791
0.00608815 -0.000101697 -0.000159834
0.006035 -0.000531601 7.99478e-05
0.00604432 -0.000358729 -0.000148301
0.00556698 -0.000466501 6.5743e-05
0.0060974 -0.000453259 -0.000117052
0.00578691 0.000361703 0.00109559
0.00612392 -0.000444322 -0.000123647
0.00606652 -0.000438228 -0.000119096
0.00600877 0.000110346 1.28365e-05
0.00566577 -0.000374047 0.000424048
0.00603534 -0.000512854 7.36076e-05
0.00608163 0.000552506 0.000957304
0.00603801 -0.000512827 7.34577e-05
0.00588156 0.000231165 0.000331399
0.00563618 0.000365216 0.0010515
0.00572919 0.00037812 0.00106236
0.00599008 -0.000402054 -0.000132108
0.00557429 -0.00045859 6.28966e-05
0.00564954 -0.000465528 6.38415e-05
0.00617452 -0.000307183 -0.000207295
0.00604933 -0.00052896 7.93897e-05
0.00596883 -0.000392451 -0.000146507
0.00587061 -0.000466797 -0.00025391
0.00590171 0.000550581 0.00083621
0.00597108 -0.000334162 -0.000152198
0.0057897 -0.00018099 -0.000227491
0.00548343 0.000375551 0.00100229
0.00589939 -0.000387233 -0.000139042
0.0060412 -0.000428995 -0.000121708
0.00562394 -0.000386679 -0.000165032
0.00588713 -0.000399639 -0.00013818
0.00592815 -0.000374708 -0.00015111
0.00568992 -0.000483764 6.92074e-05
0.00579792 0.000386117 0.00107389
0.00618804 8.94895e-05 4.51302e-05
0.00603639 -0.000533107 7.97316e-05
0.00604018 -0.000525259 7.72726e-05
0.00610934 0.000112182 1.40644e-05

VECTORS force float
-7.99572e-11 6.11197e-11 -7.14585e-12
5.22779e-11 -1.00238e-10 -5.84386e-11
1.06728e-10 6.06466e-11 -4.01504e-11
1.29458e-11 -2.25587e-11 3.72963e-11
-1.45689e-10 1.00511e-11 -3.61489e-12
-2.19831e-11 6.85524e-11 -4.33049e-11
9.50547e-11 -3.84383e-11 9.65727e-12
-8.42632e-11 1.88043e-10 -1.23955e-10
-5.32386e-11 -9.40686e-11 7.61399e-12
-1.08675e-12 1.56965e-10 -8.97047e-11
6.48638e-11 1.63918e-10 -9.99949e-11
-4.43201e-11 -1.85356e-10 1.04202e-10
3.26419e-10 -1.26696e-09 6.0762e-10
-1.48916e-10 2.0723e-10 -1.28592e-10
-2.14996e-12 1.70321e-10 -1.02243e-10
-1.36464e-10 3.04641e-11 -5.40998e-11
4.5042e-11 -2.92569e-11 1.22707e-11
1.28427e-11 7.41468e-11 -4.29206e-10
-4.88876e-11 -8.76815e-12 -3.42777e-12
9.06784e-11 1.2204e-10 -6.12459e-11
3.184e-11 -2.5652e-11 1.22317e-11
-2.43157e-11 1.7607e-10 -1.18007e-11
1.23286e-10 1.67601e-10 -9.90666e-11
1.72122e-11 1.45198e-10 -8.80541e-11
1.15687e-11 -1.24808e-11 1.70379e-11
9.97575e-12 3.32181e-12 2.66852e-12
-8.95586e-11 2.06264e-10 -9.78862e-11
1.01458e-10 8.82089e-12 1.11706e-11
-5.88774e-10 2.56547e-10 -1.63452e-10
-4.0883e-11 4.32496e-11 -8.30135e-12
2.65192e-11 4.40851e-11 -3.14816e-12
1.24375e-10 8.75853e-11 -4.89098e-11
-5.16943e-11 -1.07852e-10 5.71756e-11
6.83294e-11 -4.00543e-11 2.30612e-11
-2.42231e-10 -7.69203e-12 -1.42696e-11
-5.62459e-11 -1.25911e-10 4.67895e-11
-1.99185e-10 2.8466e-11 -7.3001e-11
-2.42978e-10 -1.85878e-10 -7.31592e-12
-1.17213e-10 7.78367e-11 -5.61129e-12
1.27691e-11 -2.65233e-11 -1.4161e-11
2.51052e-10 1.48828e-10 -4.07963e-11
-1.10496e-12 -3.98167e-12 2.60304e-12
4.8197e-11 3.18179e-12 2.4856e-11
1.46386e-10 5.95545e-11 -6.20207e-11
-1.80088e-11 2.1921e-11 -9.93356e-11
4.9527e-11 -1.92552e-10 1.17166e-10
5.01847e-11 -6.16673e-11 3.54589e-10
-9.60472e-11 4.82739e-11 -7.77287e-11
-1.37648e-23 4.0842e-24 -4.1359e-25
-1.05418e-10 -8.54834e-11 -3.09939e-11
-6.17261e-12 -2.4178e-11 1.22249e-11
-1.01797e-10 -9.74892e-12 2.86399e-11
-6.99256e-11 1.71329e-11 -4.13902e-11
-4.4383e-11 1.02275e-10 -4.23424e-11
2.51063e-11 -6.23757e-11 8.02921e-12
-6.74281e-11 -5.32642e-11 3.60007e-11
1.30089e-10 3.07731e-11 -2.80799e-11
-1.29253e-11 -1.48414e-10 -1.44235e-11
4.43525e-11 -5.26482e-11 -7.77855e-12
2.34235e-10 1.17827e-10 6.40893e-11
1.06652e-12 -7.86333e-12 -9.35196e-11
8.32611e-11 2.77399e-11 -2.96181e-11
-5.08757e-11 1.1382e-11 -5.24049e-11
9.36531e-11 -2.89144e-11 -3.23918e-10
1.83422e-11 2.8903e-11 7.03027e-11
6.34407e-13 -1.95421e-10 2.3831e-10
2.46787e-10 3.14173e-10 3.63014e-10
7.61689e-12 1.93048e-11 3.1736e-12
-8.00748e-11 -2.89381e-10 -8.21508e-11
-6.65263e-11 1.47629e-10 -8.07031e-11
-5.50553e-11 -1.38449e-12 1.0661e-11
-1.86729e-10 -7.97882e-11 7.87629e-11
-2.93898e-11 -1.30867e-10 9.14945e-11
9.58177e-11 4.93191e-11 -2.70451e-11
3.23307e-11 -2.49834e-11 2.59883e-11
4.8694e-11 -1.1054e-11 -4.78798e-11
-2.65341e-11 -7.79949e-11 -2.45014e-11
-8.53921e-11 1.67255e-10 -9.79035e-11
-8.93355e-11 1.52443e-11 -3.28764e-11
-5.93899e-11 -1.60046e-10 -7.97952e-12
-2.78079e-12 -2.46864e-11 -2.50699e-11
-1.12119e-10 -2.0489e-11 8.62247e-12
9.68382e-12 -1.534e-11 1.59102e-11
1.49663e-10 4.99308e-11 1.64689e-11
-4.50394e-11 -1.43945e-10 -9.25261e-12
-2.03539e-11 -2.95877e-12 6.73931e-11
4.07437e-11 4.17166e-11 -1.1232e-11
-7.02406e-11 1.49785e-11 4.7051e-11
-1.13793e-21 -7.87631e-23 5.99706e-23
0.0 0.0 0.0
4.86012e-10 -1.06231e-10 -3.89328e-10
-1.28993e-10 1.47546e-10 -1.82594e-10
-1.95604e-10 -1.41385e-10 5.63017e-11
4.25053e-10 -1.54581e-10 2.71818e-10
6.56978e-11 -3.84105e-11 4.16053e-10
-1.32991e-11 -4.30113e-11 -1.85312e-12
-1.40547e-10 -7.06179e-11 3.52331e-11
-4.04808e-11 -3.09596e-11 3.85012e-11
-1.97787e-10 5.38605e-11 -1.05757e-10
-1.93126e-10 -5.15925e-11 1.1781e-10
4.98064e-11 -2.00747e-10 1.1508e-10
4.4826e-11 -5.56464e-11 1.67176e-11
2.03366e-11 5.08003e-12 1.62413e-12
4.52306e-11 -1.3632e-11 7.97815e-12
3.19904e-11 7.77969e-11 -1.60122e-11
4.21291e-11 -1.13181e-10 -2.76183e-11