# vtk DataFile Version 3.0
LIGGGHTS particles timestep 52600000
ASCII
DATASET POLYDATA
POINTS 275 float
0.31996 0.0181123 0.00707452
0.319604 0.0170468 0.0076855
0.319739 0.016931 0.00764594
0.319305 0.0158029 0.00819923
0.32556 0.0168078 0.00750077
0.319915 0.0176471 0.0072966
0.319628 0.0167911 0.00771356
0.32577 0.0176907 0.00713051
0.319577 0.0165835 0.00780516
0.319879 0.0179045 0.00726309
0.313858 0.0168847 0.00735679
0.319286 0.015755 0.00828486
0.313834 0.0175767 0.00715178
0.31403 0.018083 0.00703713
0.319416 0.0162254 0.00798167
0.319267 0.015707 0.00837056
0.319981 0.017816 0.00721251
0.319779 0.0167474 0.00772963
0.314064 0.0178241 0.00707309
0.325688 0.0173056 0.00720137
0.319471 0.016292 0.00793097
0.325729 0.0174982 0.00716594
0.313667 0.0168486 0.00742461
0.319605 0.0170614 0.00758657
0.319249 0.0156589 0.00845626
0.319503 0.016642 0.00777184
0.319993 0.0175878 0.00731912
0.319438 0.0163767 0.00788903
0.325582 0.0168884 0.00744555
0.319381 0.0161331 0.00799679
0.319888 0.0174613 0.00738596
0.325831 0.0179795 0.00707736
0.319734 0.0168294 0.00769416
0.31985 0.0172754 0.00747611
0.325709 0.0174019 0.00718366
0.319345 0.0159571 0.00808407
0.319828 0.0169705 0.00762118
0.31994 0.0173118 0.00745268
0.325603 0.0169689 0.00739032
0.319362 0.0160434 0.0080367
0.319784 0.0177865 0.00724016
0.32579 0.017787 0.00711279
0.31946 0.016466 0.00784958
0.320038 0.0176982 0.00726396
0.313923 0.0171671 0.00727143
0.325646 0.0171301 0.00727987
0.320091 0.0185024 0.00688174
0.313849 0.0172313 0.00725404
0.320164 0.018214 0.00701249
0.325624 0.0170495 0.00733509
0.378022 0.019866 0.005332
0.319963 0.0173993 0.00740992
0.319324 0.0158689 0.00812648
0.319864 0.0173721 0.00742964
0.319975 0.01821 0.00705866
0.325667 0.0172107 0.00722466
0.313889 0.0174189 0.00719742
0.314066 0.0180813 0.00713206
0.319999 0.0179046 0.00716955
0.319748 0.0172433 0.00749835
0.320097 0.0179215 0.0071548
0.32575 0.0175944 0.00714822
0.314197 0.0180468 0.00706545
0.320078 0.0183188 0.00696908
0.31986 0.016692 0.00775004
0.319482 0.0165608 0.00782629
0.313784 0.0169497 0.00733918
0.319617 0.0171585 0.00766201
0.313236 0.0157525 0.00871736
0.314109 0.0184729 0.00707996
0.319698 0.0171074 0.0076336
0.313967 0.0180066 0.00712844
0.31388 0.0169789 0.00732831
0.325811 0.0178833 0.00709507
0.314164 0.0183091 0.00707827
0.319926 0.017215 0.00749922
0.319659 0.0169871 0.00762512
0.319874 0.0175496 0.0074386
0.320077 0.0180101 0.00720812
0.320029 0.0180043 0.00712052
0.313833 0.0168185 0.00743013
0.319735 0.0175735 0.00744178
0.319884 0.0168939 0.00765335
0.31983 0.0179911 0.00718644
0.31988 0.0176667 0.00738802
0.31969 0.0174253 0.00745813
0.313427 0.0160858 0.00831512
0.319964 0.0168377 0.00767422
0.313819 0.0179222 0.00704947
0.319945 0.0177327 0.00725424
0.313839 0.0180159 0.00702116
0.0643568 0.0187248 0.00531097
0.24257 0.0191927 0.00520306
0.314124 0.0181139 0.00705664
0.313408 0.0160237 0.00839108
0.313851 0.0179886 0.00712076
0.313254 0.0158147 0.00864118
0.320144 0.0180635 0.00708469
0.320186 0.0179597 0.00713062
0.319665 0.0169773 0.00772451
0.319553 0.0168477 0.00768098
0.313313 0.0160009 0.00841364
0.313739 0.0175471 0.00716272
0.313779 0.0177346 0.00710609
0.31982 0.0171791 0.00752352
0.319882 0.0178141 0.00722033
0.319903 0.0175504 0.007343
0.313964 0.0173548 0.00721475
0.320063 0.0182256 0.00701401
0.319686 0.0167182 0.00775118
0.319885 0.0182346 0.00702219
0.31967 0.0173275 0.00746412
0.314217 0.0181447 0.00707616
0.319849 0.0168101 0.00769523
0.31978 0.0174237 0.00741119
0.313447 0.0161479 0.00823928
0.319665 0.0166291 0.00779156
0.319907 0.0178015 0.0073162
0.313874 0.0177643 0.00709515
0.313894 0.0178583 0.00706774
0.319757 0.0170364 0.00759509
0.319901 0.0179235 0.00716752
0.319848 0.0177154 0.00726916
0.320081 0.0178113 0.00720778
0.313828 0.0171373 0.00728243
0.31978 0.0176686 0.00739084
0.319732 0.0175779 0.00734194
0.319626 0.0171507 0.00754713
0.31366 0.0165429 0.0077617
0.314044 0.0177301 0.00710147
0.313273 0.0158768 0.00856525
0.314004 0.0175424 0.00715812
0.313352 0.0161251 0.00826181
0.313854 0.0176705 0.00712346
0.31368 0.016605 0.00768588
0.319591 0.0166876 0.00775824
0.313959 0.0186037 0.0070616
0.313975 0.0182468 0.00704377
0.313701 0.016667 0.00761013
0.313332 0.016063 0.00833765
0.313372 0.0161871 0.00818591
0.31364 0.0164809 0.00783756
0.0219312 0.0187687 0.00551176
0.313741 0.016791 0.00745854
0.319726 0.0171459 0.00754567
0.313859 0.0181131 0.0070075
0.314007 0.0182126 0.00713217
0.313431 0.0163733 0.00795833
0.314069 0.0182781 0.00705838
0.319756 0.0176762 0.00729398
0.31392 0.0184087 0.00704021
0.314034 0.0185391 0.00707096
0.313939 0.0185062 0.00705091
0.314015 0.0184416 0.00706027
0.319985 0.0182838 0.00699205
0.313719 0.0174533 0.00719104
0.32006 0.0181139 0.00706685
0.313471 0.0164975 0.00780657
0.313774 0.0172954 0.00723671
0.313467 0.01621 0.00816334
0.313839 0.0178921 0.0071439
0.313914 0.0182824 0.00712409
0.319906 0.0183413 0.0069705
0.313861 0.0180867 0.00710394
0.320007 0.0181043 0.00716254
0.314024 0.0176362 0.0071298
0.314237 0.0182419 0.00708706
0.319929 0.0180095 0.00712507
0.319769 0.0173311 0.00745549
0.319866 0.018146 0.0070652
0.307878 0.0182067 0.00691044
0.319531 0.0167584 0.00772043
0.313759 0.0176409 0.0071344
0.319999 0.0183754 0.00694798
0.313973 0.0181144 0.00712035
0.313956 0.0181488 0.00702803
0.313989 0.0178883 0.00705569
0.307557 0.0167756 0.00750417
0.313902 0.0170729 0.0072999
0.313901 0.0181834 0.00711621
0.313294 0.0159388 0.00848954
0.31405 0.0181806 0.00704775
0.313757 0.0168569 0.00737781
0.319825 0.0176087 0.007321
0.314084 0.017918 0.00704474
0.313605 0.0166445 0.00763224
0.313644 0.0167687 0.00748043
0.313526 0.0163962 0.00793575
0.313944 0.0172609 0.00724312
0.313869 0.0173251 0.00722574
0.31965 0.0168806 0.00767406
0.319574 0.0169369 0.00764154
0.314143 0.0182114 0.00706727
0.319849 0.018069 0.00712661
0.319682 0.017218 0.00759862
0.30778 0.017734 0.0070403
0.313506 0.0163341 0.00801162
0.319926 0.0184393 0.00692301
0.313799 0.0178284 0.00707778
0.319763 0.0166583 0.00777266
0.313915 0.0179548 0.00705129
0.319982 0.0174933 0.00736432
0.313689 0.0169289 0.00736926
0.319582 0.0169231 0.00774029
0.31394 0.017911 0.00713951
0.3078 0.0178276 0.00701108
0.30774 0.017547 0.00709868
0.314089 0.0183753 0.00706928
0.313593 0.0168918 0.00736068
0.314034 0.0183127 0.00714551
0.3139 0.0183113 0.00702944
0.319985 0.0178989 0.00726831
0.31355 0.0167458 0.00750311
0.313657 0.0171723 0.00727601
0.313678 0.0172658 0.00724764
0.307449 0.0163777 0.00778697
0.307514 0.0166202 0.00762256
0.307428 0.0162965 0.00784121
0.313821 0.0167559 0.00750712
0.313969 0.0177941 0.00708414
0.307471 0.0164589 0.00773274
0.307661 0.0171773 0.00722754
0.31349 0.0165596 0.00773071
0.313814 0.0174829 0.00718009
0.3076 0.0169308 0.0073859
0.313565 0.0165203 0.00778396
0.31981 0.0175196 0.00736396
0.307679 0.0172666 0.00718625
0.307858 0.0181114 0.00693373
0.307621 0.0170087 0.0073266
0.313213 0.0156907 0.00879257
0.314103 0.0180159 0.00705246
0.313721 0.0167292 0.0075346
0.313794 0.0173891 0.0072084
0.3077 0.01736 0.00715709
0.313993 0.0183439 0.00705957
0.313753 0.0172017 0.007265
0.313699 0.0173595 0.00721934
0.307578 0.0168533 0.00744498
0.313392 0.0162492 0.00811004
0.307897 0.018302 0.00688715
0.313936 0.0180524 0.00704522
0.313585 0.0165824 0.00770808
0.313984 0.0174486 0.00718643
0.313949 0.0177003 0.00711247
0.319648 0.0172398 0.00750694
0.314039 0.0184738 0.00715176
0.30776 0.0176405 0.00706949
0.313625 0.0167066 0.00755635
0.30772 0.0174535 0.00712789
0.313451 0.0164354 0.00788244
0.313546 0.0164583 0.00785986
0.31351 0.0166216 0.00765485
0.313909 0.0175127 0.0071691
0.307914 0.0179526 0.00697425
0.307819 0.0179213 0.0069818
0.31388 0.0182136 0.00702319
0.307492 0.0165401 0.0076785
0.313614 0.0169853 0.00733243
0.31371 0.0170157 0.00732478
0.313411 0.0163117 0.00803451
0.313571 0.016814 0.00741973
0.314007 0.0179853 0.00702649
0.313486 0.016272 0.0080875
0.313806 0.0170434 0.00731084
0.313929 0.0176065 0.00714079
0.313952 0.0184184 0.00713437
0.313732 0.0171083 0.00729368
0.313636 0.0170789 0.00730445
0.307839 0.0180162 0.00695702
0.31353 0.0166837 0.00757901
0.319805 0.0178745 0.00719724
0.307535 0.0166979 0.00756336
0.307642 0.0170901 0.00727246
0.31971 0.0174902 0.00738474

VERTICES 275 550
1 0
1 1
1 2
1 3
1 4
1 5
1 6
1 7
1 8
1 9
1 10
1 11
1 12
1 13
1 14
1 15
1 16
1 17
1 18
1 19
1 20
1 21
1 22
1 23
1 24
1 25
1 26
1 27
1 28
1 29
1 30
1 31
1 32
1 33
1 34
1 35
1 36
1 37
1 38
1 39
1 40
1 41
1 42
1 43
1 44
1 45
1 46
1 47
1 48
1 49
1 50
1 51
1 52
1 53
1 54
1 55
1 56
1 57
1 58
1 59
1 60
1 61
1 62
1 63
1 64
1 65
1 66
1 67
1 68
1 69
1 70
1 71
1 72
1 73
1 74
1 75
1 76
1 77
1 78
1 79
1 80
1 81
1 82
1 83
1 84
1 85
1 86
1 87
1 88
1 89
1 90
1 91
1 92
1 93
1 94
1 95
1 96
1 97
1 98
1 99
1 100
1 101
1 102
1 103
1 104
1 105
1 106
1 107
1 108
1 109
1 110
1 111
1 112
1 113
1 114
1 115
1 116
1 117
1 118
1 119
1 120
1 121
1 122
1 123
1 124
1 125
1 126
1 127
1 128
1 129
1 130
1 131
1 132
1 133
1 134
1 135
1 136
1 137
1 138
1 139
1 140
1 141
1 142
1 143
1 144
1 145
1 146
1 147
1 148
1 149
1 150
1 151
1 152
1 153
1 154
1 155
1 156
1 157
1 158
1 159
1 160
1 161
1 162
1 163
1 164
1 165
1 166
1 167
1 168
1 169
1 170
1 171
1 172
1 173
1 174
1 175
1 176
1 177
1 178
1 179
1 180
1 181
1 182
1 183
1 184
1 185
1 186
1 187
1 188
1 189
1 190
1 191
1 192
1 193
1 194
1 195
1 196
1 197
1 198
1 199
1 200
1 201
1 202
1 203
1 204
1 205
1 206
1 207
1 208
1 209
1 210
1 211
1 212
1 213
1 214
1 215
1 216
1 217
1 218
1 219
1 220
1 221
1 222
1 223
1 224
1 225
1 226
1 227
1 228
1 229
1 230
1 231
1 232
1 233
1 234
1 235
1 236
1 237
1 238
1 239
1 240
1 241
1 242
1 243
1 244
1 245
1 246
1 247
1 248
1 249
1 250
1 251
1 252
1 253
1 254
1 255
1 256
1 257
1 258
1 259
1 260
1 261
1 262
1 263
1 264
1 265
1 266
1 267
1 268
1 269
1 270
1 271
1 272
1 273
1 274

POINT_DATA 275
SCALARS id int 1
LOOKUP_TABLE default
1
2
4
5
6
7
8
9
10
11
12
13
14
16
17
19
21
22
23
24
25
26
27
28
29
30
31
32
33
34
35
36
37
38
39
41
42
44
45
47
48
49
50
51
52
53
54
55
56
57
59
60
61
62
63
64
65
66
67
68
69
70
71
72
73
74
76
77
78
79
80
82
83
84
85
86
87
88
89
90
91
92
93
94
95
96
97
98
99
100
101
102
103
104
105
106
107
108
109
110
111
112
113
114
115
116
117
118
119
120
121
122
123
124
125
127
128
129
130
131
132
133
134
135
136
137
138
140
141
142
143
144
146
147
148
149
150
151
153
154
155
156
157
158
159
160
162
164
165
166
167
168
169
170
171
172
173
174
176
177
178
179
182
183
184
185
186
187
188
189
190
191
192
193
194
195
196
197
198
199
200
201
202
203
204
205
206
207
208
209
210
211
212
213
214
215
216
217
218
219
220
222
224
225
226
227
228
229
230
232
233
234
235
236
237
239
240
241
242
243
244
246
247
248
249
250
251
252
253
254
255
256
257
258
259
260
261
262
263
264
265
266
267
268
269
270
271
272
273
274
275
276
277
278
279
280
281
283
284
285
286
287
288
289
290
291
292
293
294
295
296
297
298
299
300

SCALARS type int 1
LOOKUP_TABLE default
1
1
1
1
1
1
1
1
1
1
1
1
1
1
1
1
1
1
1
1
1
1
1
1
1
1
1
1
1
1
1
1
1
1
1
1
1
1
1
1
1
1
1
1
1
1
1
1
1
1
1
1
1
1
1
1
1
1
1
1
1
1
1
1
1
1
1
1
1
1
1
1
1
1
1
1
1
1
1
1
1
1
1
1
1
1
1
1
1
1
1
1
1
1
1
1
1
1
1
1
1
1
1
1
1
1
1
1
1
1
1
1
1
1
1
1
1
1
1
1
1
1
1
1
1
1
1
1
1
1
1
1
1
1
1
1
1
1
1
1
1
1
1
1
1
1
1
1
1
1
1
1
1
1
1
1
1
1
1
1
1
1
1
1
1
1
1
1
1
1
1
1
1
1
1
1
1
1
1
1
1
1
1
1
1
1
1
1
1
1
1
1
1
1
1
1
1
1
1
1
1
1
1
1
1
1
1
1
1
1
1
1
1
1
1
1
1
1
1
1
1
1
1
1
1
1
1
1
1
1
1
1
1
1
1
1
1
1
1
1
1
1
1
1
1
1
1
1
1
1
1
1
1
1
1
1
1
1
1
1
1
1
1
1
1
1
1
1
1
1
1
1
1
1
1

SCALARS radius float 1
LOOKUP_TABLE default
5e-05
5e-05
5e-05
5e-05
5e-05
5e-05
5e-05
5e-05
5e-05
5e-05
5e-05
5e-05
5e-05
5e-05
5e-05
5e-05
5e-05
5e-05
5e-05
5e-05
5e-05
5e-05
5e-05
5e-05
5e-05
5e-05
5e-05
5e-05
5e-05
5e-05
5e-05
5e-05
5e-05
5e-05
5e-05
5e-05
5e-05
5e-05
5e-05
5e-05
5e-05
5e-05
5e-05
5e-05
5e-05
5e-05
5e-05
5e-05
5e-05
5e-05
5e-05
5e-05
5e-05
5e-05
5e-05
5e-05
5e-05
5e-05
5e-05
5e-05
5e-05
5e-05
5e-05
5e-05
5e-05
5e-05
5e-05
5e-05
5e-05
5e-05
5e-05
5e-05
5e-05
5e-05
5e-05
5e-05
5e-05
5e-05
5e-05
5e-05
5e-05
5e-05
5e-05
5e-05
5e-05
5e-05
5e-05
5e-05
5e-05
5e-05
5e-05
5e-05
5e-05
5e-05
5e-05
5e-05
5e-05
5e-05
5e-05
5e-05
5e-05
5e-05
5e-05
5e-05
5e-05
5e-05
5e-05
5e-05
5e-05
5e-05
5e-05
5e-05
5e-05
5e-05
5e-05
5e-05
5e-05
5e-05
5e-05
5e-05
5e-05
5e-05
5e-05
5e-05
5e-05
5e-05
5e-05
5e-05
5e-05
5e-05
5e-05
5e-05
5e-05
5e-05
5e-05
5e-05
5e-05
5e-05
5e-05
5e-05
5e-05
5e-05
5e-05
5e-05
5e-05
5e-05
5e-05
5e-05
5e-05
5e-05
5e-05
5e-05
5e-05
5e-05
5e-05
5e-05
5e-05
5e-05
5e-05
5e-05
5e-05
5e-05
5e-05
5e-05
5e-05
5e-05
5e-05
5e-05
5e-05
5e-05
5e-05
5e-05
5e-05
5e-05
5e-05
5e-05
5e-05
5e-05
5e-05
5e-05
5e-05
5e-05
5e-05
5e-05
5e-05
5e-05
5e-05
5e-05
5e-05
5e-05
5e-05
5e-05
5e-05
5e-05
5e-05
5e-05
5e-05
5e-05
5e-05
5e-05
5e-05
5e-05
5e-05
5e-05
5e-05
5e-05
5e-05
5e-05
5e-05
5e-05
5e-05
5e-05
5e-05
5e-05
5e-05
5e-05
5e-05
5e-05
5e-05
5e-05
5e-05
5e-05
5e-05
5e-05
5e-05
5e-05
5e-05
5e-05
5e-05
5e-05
5e-05
5e-05
5e-05
5e-05
5e-05
5e-05
5e-05
5e-05
5e-05
5e-05
5e-05
5e-05
5e-05
5e-05
5e-05
5e-05
5e-05
5e-05
5e-05
5e-05
5e-05
5e-05
5e-05
5e-05
5e-05
5e-05
5e-05
5e-05
5e-05
5e-05
5e-05
5e-05
5e-05
5e-05
5e-05
5e-05
5e-05
5e-05
5e-05
5e-05
5e-05
5e-05
5e-05
5e-05
5e-05

SCALARS mass float 1
LOOKUP_TABLE default
1.46608e-10
1.46608e-10
1.46608e-10
1.46608e-10
1.46608e-10
1.46608e-10
1.46608e-10
1.46608e-10
1.46608e-10
1.46608e-10
1.46608e-10
1.46608e-10
1.46608e-10
1.46608e-10
1.46608e-10
1.46608e-10
1.46608e-10
1.46608e-10
1.46608e-10
1.46608e-10
1.46608e-10
1.46608e-10
1.46608e-10
1.46608e-10
1.46608e-10
1.46608e-10
1.46608e-10
1.46608e-10
1.46608e-10
1.46608e-10
1.46608e-10
1.46608e-10
1.46608e-10
1.46608e-10
1.46608e-10
1.46608e-10
1.46608e-10
1.46608e-10
1.46608e-10
1.46608e-10
1.46608e-10
1.46608e-10
1.46608e-10
1.46608e-10
1.46608e-10
1.46608e-10
1.46608e-10
1.46608e-10
1.46608e-10
1.46608e-10
1.46608e-10
1.46608e-10
1.46608e-10
1.46608e-10
1.46608e-10
1.46608e-10
1.46608e-10
1.46608e-10
1.46608e-10
1.46608e-10
1.46608e-10
1.46608e-10
1.46608e-10
1.46608e-10
1.46608e-10
1.46608e-10
1.46608e-10
1.46608e-10
1.46608e-10
1.46608e-10
1.46608e-10
1.46608e-10
1.46608e-10
1.46608e-10
1.46608e-10
1.46608e-10
1.46608e-10
1.46608e-10
1.46608e-10
1.46608e-10
1.46608e-10
1.46608e-10
1.46608e-10
1.46608e-10
1.46608e-10
1.46608e-10
1.46608e-10
1.46608e-10
1.46608e-10
1.46608e-10
1.46608e-10
1.46608e-10
1.46608e-10
1.46608e-10
1.46608e-10
1.46608e-10
1.46608e-10
1.46608e-10
1.46608e-10
1.46608e-10
1.46608e-10
1.46608e-10
1.46608e-10
1.46608e-10
1.46608e-10
1.46608e-10
1.46608e-10
1.46608e-10
1.46608e-10
1.46608e-10
1.46608e-10
1.46608e-10
1.46608e-10
1.46608e-10
1.46608e-10
1.46608e-10
1.46608e-10
1.46608e-10
1.46608e-10
1.46608e-10
1.46608e-10
1.46608e-10
1.46608e-10
1.46608e-10
1.46608e-10
1.46608e-10
1.46608e-10
1.46608e-10
1.46608e-10
1.46608e-10
1.46608e-10
1.46608e-10
1.46608e-10
1.46608e-10
1.46608e-10
1.46608e-10
1.46608e-10
1.46608e-10
1.46608e-10
1.46608e-10
1.46608e-10
1.46608e-10
1.46608e-10
1.46608e-10
1.46608e-10
1.46608e-10
1.46608e-10
1.46608e-10
1.46608e-10
1.46608e-10
1.46608e-10
1.46608e-10
1.46608e-10
1.46608e-10
1.46608e-10
1.46608e-10
1.46608e-10
1.46608e-10
1.46608e-10
1.46608e-10
1.46608e-10
1.46608e-10
1.46608e-10
1.46608e-10
1.46608e-10
1.46608e-10
1.46608e-10
1.46608e-10
1.46608e-10
1.46608e-10
1.46608e-10
1.46608e-10
1.46608e-10
1.46608e-10
1.46608e-10
1.46608e-10
1.46608e-10
1.46608e-10
1.46608e-10
1.46608e-10
1.46608e-10
1.46608e-10
1.46608e-10
1.46608e-10
1.46608e-10
1.46608e-10
1.46608e-10
1.46608e-10
1.46608e-10
1.46608e-10
1.46608e-10
1.46608e-10
1.46608e-10
1.46608e-10
1.46608e-10
1.46608e-10
1.46608e-10
1.46608e-10
1.46608e-10
1.46608e-10
1.46608e-10
1.46608e-10
1.46608e-10
1.46608e-10
1.46608e-10
1.46608e-10
1.46608e-10
1.46608e-10
1.46608e-10
1.46608e-10
1.46608e-10
1.46608e-10
1.46608e-10
1.46608e-10
1.46608e-10
1.46608e-10
1.46608e-10
1.46608e-10
1.46608e-10
1.46608e-10
1.46608e-10
1.46608e-10
1.46608e-10
1.46608e-10
1.46608e-10
1.46608e-10
1.46608e-10
1.46608e-10
1.46608e-10
1.46608e-10
1.46608e-10
1.46608e-10
1.46608e-10
1.46608e-10
1.46608e-10
1.46608e-10
1.46608e-10
1.46608e-10
1.46608e-10
1.46608e-10
1.46608e-10
1.46608e-10
1.46608e-10
1.46608e-10
1.46608e-10
1.46608e-10
1.46608e-10
1.46608e-10
1.46608e-10
1.46608e-10
1.46608e-10
1.46608e-10
1.46608e-10
1.46608e-10
1.46608e-10
1.46608e-10
1.46608e-10
1.46608e-10
1.46608e-10
1.46608e-10
1.46608e-10
1.46608e-10
1.46608e-10
1.46608e-10
1.46608e-10
1.46608e-10
1.46608e-10
1.46608e-10
1.46608e-10
1.46608e-10
1.46608e-10
1.46608e-10
1.46608e-10
1.46608e-10
1.46608e-10

VECTORS velocity float
0.00617412 0.00122154 -0.000978684
0.00634246 0.000803926 0.000100003
0.00642045 0.000678398 -0.000755809
0.00595323 0.000145468 -0.00211868
0.0060571 -0.000679108 4.86232e-05
0.00644884 0.00168839 -0.00124462
0.00620564 0.00118939 -2.53293e-05
0.005538 -0.000728377 0.000429001
0.00622858 0.00118611 -1.69875e-05
0.00611426 0.000196297 -0.000536734
0.00591957 -0.00103857 0.000166589
0.00589671 0.000153142 -0.00212438
0.00510002 -0.000745275 0.000107024
0.00547044 -0.000684644 0.000963728
0.00574727 0.00125273 -0.000123405
0.00586255 0.000158802 -0.00212508
0.0066334 0.00164539 -0.00123867
0.00619026 0.000850376 -0.000821568
0.00557168 -0.000835312 0.000123801
0.00557199 -0.000652536 0.000399168
0.00593981 0.0011566 -3.42318e-05
0.00551206 -0.000660884 0.000412732
0.00604603 -0.000566547 0.000925835
0.00613837 0.000902973 0.000109259
0.00582903 0.000166735 -0.00212663
0.00621454 0.00119508 -2.22632e-05
0.00652981 0.00176898 -0.001288
0.00612589 0.00122168 -3.932e-05
0.00608379 -0.00067456 4.38894e-05
0.00577073 0.00125207 -8.82767e-05
0.0064616 0.00182913 -0.00131116
0.00558014 -0.000744957 0.000434053
0.00622624 0.000861073 -0.000875374
0.00547783 0.00284202 -0.00171932
0.00527377 -0.000602972 0.000398005
0.00596883 0.000655365 -0.00109499
0.00599078 0.00142215 -0.0010913
0.00582681 0.00197947 -0.00133766
0.00610942 -0.000672558 4.10265e-05
0.00580982 0.00124875 -8.07693e-05
0.00643143 0.00167139 -0.00123431
0.0055449 -0.000748044 0.000432743
0.00621569 0.00120011 -2.62808e-05
0.00642015 0.00168948 -0.00124184
0.00489342 -0.000973932 0.000178731
0.00607821 -0.000946051 0.000198997
0.00133039 0.00897045 -0.00431505
0.00494425 -0.000894878 0.000153863
0.00741171 0.00748399 -0.004039
0.00616455 -0.000720076 6.93821e-05
-5.01966e-15 -7.41208e-15 7.69802e-14
0.00645747 0.00182576 -0.00130909
0.00598208 0.00016408 -0.00209964
0.00649339 0.00188724 -0.00133959
0.00678233 0.000894743 -0.00298476
0.00566346 -0.000777042 0.000207638
0.00484699 -0.00086275 0.000147068
0.00481003 -0.00360069 -0.00079025
0.0063146 0.00180348 -0.00129392
0.00590581 0.00270877 -0.00168832
0.00539217 0.00551977 -0.0029739
0.00551946 -0.000693328 0.000420773
0.00547117 -0.000735383 0.000963359
0.00592514 0.00119171 -0.00097402
0.00615118 0.000795366 -0.00079937
0.00622474 0.00119482 -2.0302e-05
0.00604852 -0.000956433 1.42291e-05
0.00629671 0.00176183 -0.00127888
0.00566233 -0.000514472 0.000982962
0.0052677 -0.000654696 0.000926986
0.00625492 0.0016463 -0.00121786
0.00545109 -0.000902669 0.000611522
0.00597921 -0.000842301 0.00011625
0.00556253 -0.000752253 0.0004346
0.00532456 -0.00065498 0.00094111
0.00527581 0.00258398 -0.00158379
0.00641441 0.000710606 -0.000632158
0.00606487 0.00205817 -0.00144015
0.0107429 0.00651814 -0.00502268
0.00593386 0.00382978 -0.00221498
0.00612206 -0.000615975 0.00113836
0.00646155 0.00188449 -0.00132741
0.00578977 0.0013163 -0.0010209
0.00599906 0.000209189 -0.000496937
0.00644564 0.00167994 -0.00124304
0.00624076 0.000318963 -0.00278119
0.0055021 -0.000490886 0.000945705
0.00567434 0.00117783 -0.000949848
0.00564638 -0.000814521 0.000112341
0.00643754 0.00170231 -0.0012476
0.00563209 -0.000819681 0.000107039
4.39541e-15 1.04593e-14 8.29584e-14
2.95517e-22 4.01299e-22 -5.81428e-22
0.005484 -0.000710287 0.000965708
0.00544936 -0.000484085 0.000934149
0.00547316 -0.000802284 0.000180093
0.0053906 -0.000481359 0.000925442
0.00745199 0.00578798 -0.0032436
0.0029932 0.0100104 -0.00492038
0.00661054 0.000417564 -0.000653819
0.00621029 0.00120196 -2.96182e-05
0.00541675 -0.000463351 0.000906707
0.00459585 -0.000649133 8.80168e-05
0.00560479 -0.000821852 0.000117504
0.00718553 0.00382302 -0.002301
0.00670687 0.000208015 -0.000563771
0.00648673 0.00182457 -0.00131183
0.00469111 -0.00101021 0.000194308
0.00745412 0.00248016 -0.00168282
0.00624046 0.00109187 -0.000245218
0.00566489 0.00056532 -0.000660712
0.00609686 0.000416516 -0.000621247
0.00547837 -0.000656506 0.00096844
0.00561365 0.00137871 -0.00104004
0.00647554 0.001869 -0.00133475
0.00553316 -0.00050167 0.000960898
0.00622383 0.00119849 -2.72035e-05
0.00693227 0.00129256 -0.000488769
0.005487 -0.000822609 0.000118299
0.00562195 -0.000844817 0.000120932
0.00615509 0.0015542 -0.00117362
0.00601628 0.000268261 -0.000544975
0.00644579 0.00168207 -0.0012412
0.00669765 0.00385124 -0.00227724
0.00598119 -0.000593427 3.63938e-05
0.00643934 0.00179868 -0.00128708
0.00647491 0.00187046 -0.00133034
0.00613165 0.000906494 0.000101646
0.00588283 -0.000494823 0.000971531
0.00541912 -0.00107799 0.000194507
0.00528378 -0.000460623 0.000895083
0.00505783 -0.00106907 0.000203379
0.0055224 -0.000473253 0.000925345
0.00529525 -0.000786174 0.000113859
0.00585203 -0.000490113 0.000966772
0.00621381 0.00119366 -2.41753e-05
0.00528601 -0.000636559 0.00093433
0.00544948 -0.000692948 0.000961197
0.00589972 -0.000496755 0.000974086
0.00545584 -0.000464204 0.000911611
0.00555799 -0.000478167 0.000932895
0.00577363 -0.000486213 0.000956329
-3.82481e-14 8.16968e-14 2.9589e-13
0.00606765 -0.000507383 0.00100846
0.00639023 0.001633 -0.00120368
0.00545452 -0.000671512 0.000959493
0.00547044 -0.000694078 0.00096467
0.0057206 -0.000500381 0.000965476
0.00543966 -0.00068039 0.000958806
0.00646695 0.00181714 -0.00130253
0.00542692 -0.000677854 0.000959282
0.00526772 -0.000656215 0.000929173
0.00526518 -0.000631974 0.000928727
0.00524803 -0.000659729 0.000928891
0.00674099 0.00233351 -0.00150808
0.00401399 -0.000541511 6.82862e-05
0.00601831 0.00381491 -0.00221341
0.00583594 -0.000494365 0.000977968
0.00505633 -0.000740024 9.92316e-05
0.00557714 -0.000512439 0.000976706
0.00561919 -0.0008312 0.000113979
0.00543202 -0.0007375 0.000940665
0.00600157 0.00160542 -0.00120359
0.00547369 -0.000674126 0.000955948
0.00993282 0.00158999 -0.00295768
0.00521561 -0.00112865 0.000217798
0.00536042 -0.000620892 0.000949325
0.00583326 0.000260461 -0.000532779
0.00590659 0.00271868 -0.00168496
0.00577244 0.000128216 -0.000443203
0.00580389 0.000406687 -0.000222395
0.0062119 0.00119648 -2.57543e-05
0.00523815 -0.000763001 0.000109881
0.00592415 0.00119078 -0.000972531
0.00555343 -0.000931974 0.000836545
0.00541377 -0.000710823 0.000946199
0.00562977 -0.000765876 9.21579e-05
0.00628082 0.000104935 -0.000263324
0.00603665 -0.000552372 2.69122e-05
0.00555 -0.000909999 0.000861407
0.00535091 -0.000461163 0.000899325
0.00547017 -0.000684563 0.000964767
0.00613901 -0.000605159 0.00111977
0.00647866 0.00182014 -0.00130757
0.00561489 -0.000762798 9.43874e-05
0.00596021 -0.000520522 0.00100795
0.00604113 -0.000518059 0.00100842
0.00574002 -0.000530726 0.00100883
0.00453912 -0.000916066 0.0001697
0.00463129 -0.000823038 0.000139665
0.00623417 0.00122372 -2.10228e-05
0.00621971 0.00122209 -3.59808e-05
0.0054606 -0.000668578 0.000964403
0.00572592 0.000125912 -0.000528473
0.00692967 0.00168017 -0.000799587
0.00595583 0.000461167 4.8203e-06
0.00568763 -0.000525085 0.000998681
0.00592375 0.0011905 -0.000973299
0.00561033 -0.000821652 0.000116118
0.0061761 0.000796696 -0.00080818
0.00559892 -0.000800373 0.000312154
0.00646461 0.00179091 -0.00129363
0.00607877 -0.000716002 0.000710842
0.00620191 0.00122189 -3.15045e-05
0.0057053 -0.00101166 0.000194573
0.00587396 0.000479003 -1.70102e-06
0.00591175 0.000463263 4.86581e-06
0.00531651 -0.000662694 0.000939902
0.00613665 -0.000960904 0.000148392
0.00545442 -0.000666127 0.000956971
0.00543107 -0.000689047 0.000957867
0.00720214 0.00158321 -0.00118169
0.00604021 -0.000518597 0.00100928
0.00606313 -0.000960198 0.000134217
0.00544661 -0.000849203 5.81116e-05
0.00618117 0.000232726 5.0489e-05
0.00622771 3.9373e-05 -0.000288879
0.00616385 0.000240803 4.64337e-05
0.00594015 -0.000609708 0.00111862
0.00553663 -0.000943831 0.000148604
0.00619153 0.000234675 4.97496e-05
0.0058855 0.000314121 -0.000195108
0.00589116 -0.000500996 0.000981665
0.00493154 -0.00071009 0.000100614
0.00634477 0.000127376 -0.000278136
0.00588834 -0.000508081 0.0009883
0.00647009 0.00185115 -0.00132141
0.00581528 0.000423859 5.75624e-06
0.00578157 0.00041436 -0.000222072
0.00635159 0.000125501 -0.000293429
0.00596101 -0.000554272 0.00105169
0.00560205 -0.000761597 9.59034e-05
0.00601931 -0.000519119 0.000987316
0.00478389 -0.000680759 9.12187e-05
0.00581922 0.000447892 7.78202e-06
0.00542788 -0.000685788 0.0009595
0.00571726 -0.000881752 0.00012766
0.00427783 -0.000597217 7.54088e-05
0.00632319 0.000122102 -0.000269229
0.00560501 -0.000482879 0.000943505
0.00585002 0.000412128 -0.000222218
0.00546321 -0.000742134 0.000714263
0.00592443 -0.000512801 0.000998269
0.00487419 -0.00103745 0.000198172
0.00536267 -0.00096645 0.000165828
0.00612026 0.00069798 -0.000746476
0.00526284 -0.000642109 0.000915298
0.00593599 0.00046493 2.38622e-06
0.0060104 -0.00051709 0.00100912
0.00588205 0.000455716 7.11221e-06
0.00576556 -0.000498113 0.000972652
0.00579498 -0.000534981 0.00101603
0.00593952 -0.0005036 0.000985337
0.00501052 -0.000896806 0.000153539
0.00574631 0.000492726 -1.35143e-05
0.00574502 0.000500408 -1.44674e-05
0.00542974 -0.000694199 0.000958064
0.00620212 0.000248116 4.73656e-05
0.00611911 -0.000951482 0.000135059
0.00605838 -0.000874177 0.000389328
0.00567278 -0.000488657 0.000953408
0.00613227 -0.000415412 0.000882138
0.00536674 -0.000659242 7.30311e-05
0.00563332 -0.000521984 0.000991608
0.00608944 -0.000943004 0.000154472
0.00517945 -0.000929727 0.000159651
0.00533138 -0.00072663 0.000990542
0.00605893 -0.000943982 0.000178259
0.006075 -0.000873025 0.000377192
0.00576081 0.000434196 -0.000228814
0.00600417 -0.000509323 0.000997775
0.00583083 -0.000730443 -6.51982e-05
0.00623906 7.72893e-05 -0.000264157
0.0062302 0.000166486 -0.000314484
0.00647187 0.00187451 -0.00133353

VECTORS force float
4.21231e-10 4.3493e-10 -4.29886e-12
-5.48996e-11 1.19011e-10 9.20369e-11
1.29323e-10 2.77966e-11 1.29711e-10
2.78097e-10 -8.62434e-11 -4.32965e-11
8.0082e-11 2.97435e-10 -2.0429e-10
-9.43118e-12 -3.01607e-11 -3.54873e-14
-1.08664e-10 1.46745e-10 -1.66313e-13
2.73198e-11 -2.23316e-12 -2.21508e-11
5.24584e-11 6.87052e-11 3.64451e-11
2.02909e-12 1.06279e-10 -2.11974e-10
1.26658e-10 -5.94838e-11 -2.11783e-11
-4.79889e-11 5.98369e-11 -3.37508e-11
2.47179e-10 1.26051e-10 -2.59218e-11
-1.60626e-10 3.51681e-10 -4.32283e-11
1.37882e-10 -7.47898e-11 7.42591e-11
-1.13698e-10 1.0639e-10 -1.41752e-10
1.42216e-10 2.24926e-10 -2.12231e-10
-7.50348e-12 -7.89097e-11 -2.82901e-10
8.722e-11 5.03544e-12 -3.25518e-11
-1.00277e-10 2.87522e-10 -3.86659e-10
8.65748e-11 -2.39226e-11 1.45545e-11
2.78827e-10 -7.03355e-11 5.06338e-11
1.99181e-11 9.95322e-11 -1.41565e-10
-2.36281e-11 2.48581e-11 -2.57279e-11
-1.29571e-10 1.32984e-10 -1.77795e-10
-3.60637e-12 9.06943e-11 9.0998e-12
8.28453e-12 2.96478e-11 -1.59225e-11
1.08432e-10 1.2558e-11 -2.44852e-11
7.70381e-11 2.97764e-10 -2.04738e-10
-3.82598e-12 -1.14729e-10 1.83733e-11
-8.36289e-12 -6.66478e-11 3.23496e-11
-4.45912e-11 -2.08625e-10 3.81421e-11
-1.6586e-11 2.38364e-11 -2.38845e-10
-4.73439e-10 2.63743e-10 -9.11635e-11
1.07356e-09 -4.79418e-10 1.56215e-10
-8.38517e-11 -1.56925e-10 -9.48639e-11
-1.95548e-10 -5.68223e-11 -8.98868e-12
-2.76768e-10 -2.6922e-10 1.44109e-10
8.08007e-11 2.92865e-10 -2.02902e-10
-5.58969e-11 -1.51652e-10 1.8965e-11
3.55924e-11 5.0793e-11 -2.45549e-11
-2.22671e-11 7.08873e-11 3.68688e-12
-8.54005e-12 7.74621e-11 7.28825e-11
1.77414e-10 1.33925e-10 -7.47648e-11
-2.74627e-10 -1.01079e-10 3.99863e-11
-8.23917e-11 6.60998e-10 -2.56454e-10
-4.3289e-12 -2.80189e-11 1.34899e-11
-3.14343e-10 8.12511e-11 6.68578e-12
-3.44715e-10 1.2101e-10 -3.29464e-11
8.00075e-10 -1.85868e-09 1.23311e-09
-4.91138e-24 -4.1359e-25 -4.1359e-25
-5.42384e-11 -2.52009e-10 1.28347e-10
8.24647e-11 -1.6363e-10 -1.82457e-10
-3.36068e-11 6.66069e-11 4.10948e-12
-1.86603e-11 1.06586e-10 -1.41044e-09
4.74796e-10 -1.30965e-09 -5.34799e-11
1.43812e-10 -1.34631e-10 2.75474e-11
-2.22598e-10 -5.06874e-11 -4.29381e-11
1.19295e-11 3.00776e-11 4.56044e-11
2.72371e-10 4.8973e-10 -2.44902e-10
-3.41267e-10 1.18423e-10 -3.39493e-11
-1.42119e-11 1.62958e-10 -3.71812e-11
-2.35831e-10 8.95962e-11 4.62705e-11
1.1767e-11 5.89006e-12 -2.35223e-12
1.54977e-10 -1.04422e-10 1.08327e-10
-2.35057e-11 4.20598e-11 -9.5467e-11
-1.20686e-10 -3.24947e-11 3.22272e-10
-3.41804e-11 3.01784e-10 -3.48215e-10
-2.39893e-10 1.12527e-11 -3.05817e-11
-2.90775e-11 2.50536e-10 -5.23638e-12
-1.47038e-10 2.2505e-10 -3.14679e-10
-2.1128e-10 -4.12962e-10 5.19441e-11
-2.18828e-10 8.15333e-11 -1.18459e-10
-4.57363e-11 -2.02372e-10 3.64601e-11
1.12949e-10 6.94451e-11 4.01541e-11
-4.81703e-10 2.76766e-10 -9.67179e-11
-6.58057e-11 -1.2423e-11 -4.62876e-10
1.04639e-11 -1.8166e-10 -2.07163e-11
8.85912e-11 5.7296e-11 -2.50563e-10
1.35807e-11 1.46487e-10 -6.93698e-11
-2.89122e-11 -1.80723e-11 4.92635e-12
-4.78722e-11 2.45477e-11 -4.53213e-11
1.40919e-12 5.37376e-11 -4.59215e-11
-1.48393e-10 -3.16911e-10 3.47634e-10
-9.56982e-11 4.81725e-11 -9.3835e-11
-1.15851e-10 -2.23004e-10 -8.61267e-12
2.1332e-10 -8.12762e-11 1.05306e-10
-1.25949e-10 5.90436e-11 1.49773e-12
1.50176e-11 1.47761e-10 -3.7877e-11
2.69533e-12 2.87562e-11 -1.63592e-11
1.07805e-10 2.20512e-10 -1.9001e-10
-2.04094e-21 7.31279e-22 4.75629e-24
0.0 0.0 0.0
-1.34187e-10 1.56479e-10 -1.04347e-11
-1.64026e-10 6.33801e-13 -1.32633e-11
4.5808e-11 -1.34243e-10 1.13419e-10
-2.93832e-10 5.89088e-11 -9.05563e-11
-4.04896e-10 1.76117e-10 -4.96022e-11
-8.67353e-11 -1.08172e-11 1.11413e-11
-5.93955e-11 -4.49475e-13 -4.99536e-10
1.06996e-11 1.50957e-10 -3.98352e-11
-1.57634e-10 2.20677e-11 -5.36579e-11
1.08117e-10 -1.95143e-10 -1.35186e-12