# vtk DataFile Version 3.0
LIGGGHTS particles timestep 38400000
ASCII
DATASET POLYDATA
POINTS 275 float
0.237249 0.0185961 0.00687407
0.236913 0.0174157 0.00713017
0.237061 0.0172954 0.0071872
0.236451 0.0156456 0.00846528
0.242788 0.0169857 0.00758543
0.237205 0.0179497 0.00699627
0.236901 0.0170138 0.00734839
0.242989 0.0177642 0.0070284
0.236574 0.0160129 0.00800768
0.237095 0.0180657 0.00706321
0.231152 0.0173612 0.00734538
0.236432 0.0155844 0.00854203
0.231133 0.0180346 0.00708502
0.231325 0.0185293 0.00691448
0.23655 0.015951 0.0080823
0.236412 0.0155233 0.00861863
0.237247 0.0181419 0.00695994
0.236859 0.0168446 0.00744608
0.231362 0.0182822 0.00700202
0.24291 0.017439 0.00721196
0.236604 0.0161447 0.00786129
0.242953 0.0175899 0.00708768
0.230962 0.0173115 0.00738188
0.236987 0.0173526 0.00715326
0.236392 0.0154622 0.00869525
0.236683 0.0164783 0.00765672
0.23728 0.0178841 0.00700808
0.236629 0.0162229 0.00780451
0.242809 0.0170612 0.00752318
0.236527 0.0158912 0.00815921
0.237164 0.0177572 0.00703265
0.243051 0.0180576 0.00703799
0.23704 0.01721 0.00723634
0.237124 0.017564 0.00706915
0.242931 0.0175145 0.00714976
0.236494 0.0157674 0.00831252
0.237157 0.017324 0.00717177
0.237219 0.0175954 0.00706266
0.242829 0.0171368 0.00746094
0.236508 0.0158291 0.00823524
0.237115 0.0183659 0.00691839
0.24301 0.017862 0.0070316
0.236643 0.0163086 0.0077547
0.237301 0.0179803 0.00698991
0.231217 0.0176297 0.00722886
0.24287 0.0172879 0.00733644
0.237435 0.0182075 0.0069464
0.231144 0.017694 0.00720677
0.237416 0.0181073 0.00696533
0.242849 0.0172124 0.00739869
0.378022 0.019866 0.005332
0.237239 0.0176917 0.00704445
0.23647 0.0157068 0.00838861
0.237144 0.017661 0.00705083
0.237143 0.0184291 0.00699074
0.242891 0.0173632 0.00727439
0.231187 0.0178783 0.00714093
0.231298 0.018189 0.00712404
0.237267 0.0182384 0.00694171
0.237049 0.0176298 0.00705731
0.237341 0.0181727 0.00695353
0.242968 0.0176664 0.00702521
0.231494 0.0185012 0.00692736
0.237324 0.0185315 0.00688634
0.236584 0.0160735 0.00792876
0.236662 0.0163937 0.00770593
0.231079 0.0174235 0.00731932
0.236934 0.0175058 0.00709251
0.23046 0.0156976 0.00845351
0.231384 0.0188159 0.00681475
0.237007 0.0174378 0.00710426
0.231217 0.0182703 0.00709532
0.231174 0.0174483 0.00730112
0.24303 0.0179598 0.0070348
0.231535 0.0186927 0.00686075
0.237198 0.0174983 0.00708101
0.236966 0.0172679 0.00720203
0.23711 0.0179189 0.00700267
0.237207 0.0181153 0.00704803
0.237287 0.0183402 0.00692246
0.23113 0.0172737 0.00738986
0.237035 0.0179845 0.00699086
0.236742 0.0167329 0.00750965
0.237155 0.0182129 0.0070466
0.237018 0.0177587 0.00711852
0.237015 0.0178882 0.00700904
0.230552 0.0159789 0.00806437
0.236721 0.0166482 0.00755856
0.231117 0.0183744 0.00696524
0.237225 0.018046 0.00697808
0.231136 0.0184718 0.00695425
0.0643568 0.0187248 0.00531097
0.24257 0.0191927 0.00520306
0.231419 0.0185627 0.00690439
0.230514 0.0158351 0.00819245
0.231196 0.0181778 0.00712735
0.230481 0.0157434 0.00836705
0.23736 0.0182731 0.00693457
0.237354 0.0178185 0.00701991
0.236891 0.0173272 0.00717148
0.236848 0.0171561 0.00726547
0.230591 0.016154 0.00797568
0.231039 0.0180039 0.00709414
0.231078 0.0181891 0.00702969
0.237177 0.0174096 0.00712251
0.237192 0.0183036 0.00693027
0.237184 0.0178535 0.00701445
0.231261 0.0178152 0.00716442
0.237367 0.0183992 0.00691088
0.23688 0.0169292 0.00739721
0.237192 0.0187566 0.00684289
0.236994 0.017792 0.00702723
0.231513 0.0185944 0.00689492
0.236763 0.0168176 0.00746093
0.237089 0.0178226 0.00702086
0.230533 0.0158944 0.00811419
0.236703 0.016563 0.00760778
0.237064 0.0179581 0.0070827
0.231172 0.01822 0.00702051
0.231192 0.0183127 0.00698829
0.237082 0.0173811 0.00713792
0.237208 0.0184006 0.00691165
0.237172 0.0182073 0.00694816
0.237321 0.0180764 0.00697174
0.231122 0.0176009 0.00723731
0.237041 0.0178588 0.00710078
0.237076 0.0181785 0.00697337
0.236954 0.0175996 0.0070642
0.230949 0.0169009 0.00758502
0.231342 0.0181895 0.00703427
0.230498 0.0157894 0.00828001
0.231303 0.018003 0.00709913
0.23063 0.0163289 0.00788701
0.231153 0.0181272 0.0070528
0.23097 0.016988 0.00754077
0.236806 0.0169874 0.00736402
0.231424 0.0189059 0.00683109
0.231265 0.018682 0.00685972
0.230992 0.017075 0.00749651
0.23061 0.0162415 0.00793133
0.230651 0.0164163 0.00784297
0.230927 0.0168139 0.00762927
0.0219312 0.0187687 0.00551176
0.231035 0.0172491 0.00740801
0.237103 0.0174679 0.00708794
0.231152 0.0185557 0.00690215
0.231211 0.0184548 0.00704296
0.230715 0.0166773 0.00770993
0.231364 0.0187198 0.00684819
0.237095 0.0182698 0.00693694
0.231229 0.0189389 0.00684282
0.231515 0.0188314 0.00681262
0.231339 0.0189653 0.00684611
0.231303 0.0188735 0.00682853
0.237268 0.0186925 0.00685545
0.231018 0.0179115 0.00712624
0.237288 0.0184446 0.00695226
0.230758 0.0168514 0.00762143
0.23107 0.0177566 0.00718164
0.230746 0.0164412 0.0078244
0.231087 0.0180855 0.00715718
0.23117 0.0186303 0.00696806
0.237211 0.018853 0.00682427
0.231117 0.0182606 0.00709318
0.237137 0.018331 0.00700933
0.231323 0.0180965 0.0070666
0.231592 0.0185372 0.00691645
0.23723 0.0184995 0.00689273
0.237069 0.0177264 0.00703906
0.237173 0.0186603 0.00686151
0.225135 0.0184648 0.00697584
0.236827 0.0170714 0.00731425
0.231058 0.0180965 0.00706192
0.237289 0.0187911 0.00683638
0.231242 0.0183626 0.00706643
0.231248 0.018589 0.00689211
0.231287 0.0183438 0.00697901
0.224813 0.0170805 0.0075303
0.231196 0.0175373 0.00726098
0.231115 0.0183586 0.00706396
0.230571 0.0160664 0.00802002
0.231346 0.018627 0.00688049
0.231057 0.0173361 0.00736376
0.23715 0.0181114 0.0069663
0.231381 0.0183751 0.00696971
0.230897 0.0170504 0.00751463
0.23094 0.0172245 0.00742613
0.23081 0.0167023 0.00769164
0.23124 0.0177222 0.00719673
0.231166 0.0177857 0.00717312
0.236923 0.0170986 0.00729941
0.236944 0.0171833 0.00725067
0.23144 0.0186588 0.00687099
0.237154 0.0185643 0.00688229
0.237029 0.0175336 0.00707558
0.225043 0.0179738 0.00698269
0.230789 0.0166152 0.00773589
0.23723 0.0189494 0.00680564
0.231097 0.0182818 0.00699746
0.236784 0.0169023 0.00741187
0.231211 0.0184053 0.00695605
0.237259 0.0177879 0.00702626
0.230983 0.0173986 0.00733769
0.23687 0.0172407 0.00721663
0.231184 0.0180643 0.00716578
0.225053 0.0180732 0.00698162
0.224993 0.0177828 0.00700476
0.231458 0.0187531 0.00683815
0.230888 0.0173736 0.00735593
0.231203 0.0185519 0.00702058
0.231209 0.0188411 0.00683545
0.237141 0.01782 0.00710676
0.230844 0.0171995 0.00744443
0.230953 0.0176376 0.00722928
0.230974 0.0177271 0.0071903
0.22471 0.0167086 0.0078482
0.224772 0.0169317 0.00765746
0.22469 0.0166342 0.00791178
0.231109 0.0171867 0.00743412
0.231267 0.0182511 0.00701126
0.224731 0.016783 0.00778462
0.224918 0.0174516 0.00721292
0.23078 0.0169384 0.00757718
0.231113 0.0179413 0.00711746
0.224855 0.0172293 0.00740314
0.230854 0.0168763 0.00760314
0.23713 0.0180151 0.00698449
0.224938 0.0175281 0.00715183
0.225115 0.0183668 0.00697727
0.224883 0.0173028 0.00734157
0.230442 0.0156518 0.00854047
0.2314 0.0184679 0.0069374
0.231014 0.017162 0.00745226
0.231092 0.0178488 0.0071496
0.224957 0.0176138 0.00710401
0.231284 0.0187749 0.00682739
0.231048 0.017664 0.0072138
0.230996 0.0178193 0.00715827
0.224834 0.0171549 0.00746672
0.230672 0.0165033 0.00779843
0.225155 0.0185628 0.00697442
0.23123 0.0185017 0.00693778
0.230875 0.0169634 0.00755889
0.231282 0.0179095 0.00713165
0.231248 0.0181584 0.00704352
0.236974 0.0176957 0.00704542
0.231194 0.0187216 0.00693446
0.225012 0.0178787 0.0069845
0.230918 0.0171374 0.00747038
0.224973 0.0176939 0.00704626
0.230736 0.0167644 0.00766568
0.230832 0.0167893 0.00764739
0.230801 0.0170255 0.00753293
0.231208 0.0179722 0.00710829
0.225134 0.0180148 0.00697905
0.225074 0.0181711 0.00698017
0.231171 0.0186487 0.00686976
0.224752 0.0168574 0.00772104
0.230909 0.0174608 0.00731194
0.231005 0.017486 0.00729374
0.230693 0.0165903 0.00775418
0.230866 0.0172866 0.00740018
0.231306 0.0184366 0.00694675
0.230767 0.0165282 0.00778015
0.2311 0.0175106 0.00727506
0.231228 0.0180654 0.00707586
0.231189 0.0187431 0.0068369
0.231026 0.0175737 0.00725083
0.230931 0.0175485 0.00726919
0.225094 0.0182689 0.00697872
0.230823 0.0171125 0.00748868
0.237135 0.0184676 0.00689875
0.224793 0.0170061 0.00759388
0.224896 0.0173776 0.00727638
0.237055 0.0180807 0.00697267

VERTICES 275 550
1 0
1 1
1 2
1 3
1 4
1 5
1 6
1 7
1 8
1 9
1 10
1 11
1 12
1 13
1 14
1 15
1 16
1 17
1 18
1 19
1 20
1 21
1 22
1 23
1 24
1 25
1 26
1 27
1 28
1 29
1 30
1 31
1 32
1 33
1 34
1 35
1 36
1 37
1 38
1 39
1 40
1 41
1 42
1 43
1 44
1 45
1 46
1 47
1 48
1 49
1 50
1 51
1 52
1 53
1 54
1 55
1 56
1 57
1 58
1 59
1 60
1 61
1 62
1 63
1 64
1 65
1 66
1 67
1 68
1 69
1 70
1 71
1 72
1 73
1 74
1 75
1 76
1 77
1 78
1 79
1 80
1 81
1 82
1 83
1 84
1 85
1 86
1 87
1 88
1 89
1 90
1 91
1 92
1 93
1 94
1 95
1 96
1 97
1 98
1 99
1 100
1 101
1 102
1 103
1 104
1 105
1 106
1 107
1 108
1 109
1 110
1 111
1 112
1 113
1 114
1 115
1 116
1 117
1 118
1 119
1 120
1 121
1 122
1 123
1 124
1 125
1 126
1 127
1 128
1 129
1 130
1 131
1 132
1 133
1 134
1 135
1 136
1 137
1 138
1 139
1 140
1 141
1 142
1 143
1 144
1 145
1 146
1 147
1 148
1 149
1 150
1 151
1 152
1 153
1 154
1 155
1 156
1 157
1 158
1 159
1 160
1 161
1 162
1 163
1 164
1 165
1 166
1 167
1 168
1 169
1 170
1 171
1 172
1 173
1 174
1 175
1 176
1 177
1 178
1 179
1 180
1 181
1 182
1 183
1 184
1 185
1 186
1 187
1 188
1 189
1 190
1 191
1 192
1 193
1 194
1 195
1 196
1 197
1 198
1 199
1 200
1 201
1 202
1 203
1 204
1 205
1 206
1 207
1 208
1 209
1 210
1 211
1 212
1 213
1 214
1 215
1 216
1 217
1 218
1 219
1 220
1 221
1 222
1 223
1 224
1 225
1 226
1 227
1 228
1 229
1 230
1 231
1 232
1 233
1 234
1 235
1 236
1 237
1 238
1 239
1 240
1 241
1 242
1 243
1 244
1 245
1 246
1 247
1 248
1 249
1 250
1 251
1 252
1 253
1 254
1 255
1 256
1 257
1 258
1 259
1 260
1 261
1 262
1 263
1 264
1 265
1 266
1 267
1 268
1 269
1 270
1 271
1 272
1 273
1 274

POINT_DATA 275
SCALARS id int 1
LOOKUP_TABLE default
1
2
4
5
6
7
8
9
10
11
12
13
14
16
17
19
21
22
23
24
25
26
27
28
29
30
31
32
33
34
35
36
37
38
39
41
42
44
45
47
48
49
50
51
52
53
54
55
56
57
59
60
61
62
63
64
65
66
67
68
69
70
71
72
73
74
76
77
78
79
80
82
83
84
85
86
87
88
89
90
91
92
93
94
95
96
97
98
99
100
101
102
103
104
105
106
107
108
109
110
111
112
113
114
115
116
117
118
119
120
121
122
123
124
125
127
128
129
130
131
132
133
134
135
136
137
138
140
141
142
143
144
146
147
148
149
150
151
153
154
155
156
157
158
159
160
162
164
165
166
167
168
169
170
171
172
173
174
176
177
178
179
182
183
184
185
186
187
188
189
190
191
192
193
194
195
196
197
198
199
200
201
202
203
204
205
206
207
208
209
210
211
212
213
214
215
216
217
218
219
220
222
224
225
226
227
228
229
230
232
233
234
235
236
237
239
240
241
242
243
244
246
247
248
249
250
251
252
253
254
255
256
257
258
259
260
261
262
263
264
265
266
267
268
269
270
271
272
273
274
275
276
277
278
279
280
281
283
284
285
286
287
288
289
290
291
292
293
294
295
296
297
298
299
300

SCALARS type int 1
LOOKUP_TABLE default
1
1
1
1
1
1
1
1
1
1
1
1
1
1
1
1
1
1
1
1
1
1
1
1
1
1
1
1
1
1
1
1
1
1
1
1
1
1
1
1
1
1
1
1
1
1
1
1
1
1
1
1
1
1
1
1
1
1
1
1
1
1
1
1
1
1
1
1
1
1
1
1
1
1
1
1
1
1
1
1
1
1
1
1
1
1
1
1
1
1
1
1
1
1
1
1
1
1
1
1
1
1
1
1
1
1
1
1
1
1
1
1
1
1
1
1
1
1
1
1
1
1
1
1
1
1
1
1
1
1
1
1
1
1
1
1
1
1
1
1
1
1
1
1
1
1
1
1
1
1
1
1
1
1
1
1
1
1
1
1
1
1
1
1
1
1
1
1
1
1
1
1
1
1
1
1
1
1
1
1
1
1
1
1
1
1
1
1
1
1
1
1
1
1
1
1
1
1
1
1
1
1
1
1
1
1
1
1
1
1
1
1
1
1
1
1
1
1
1
1
1
1
1
1
1
1
1
1
1
1
1
1
1
1
1
1
1
1
1
1
1
1
1
1
1
1
1
1
1
1
1
1
1
1
1
1
1
1
1
1
1
1
1
1
1
1
1
1
1
1
1
1
1
1
1

SCALARS radius float 1
LOOKUP_TABLE default
5e-05
5e-05
5e-05
5e-05
5e-05
5e-05
5e-05
5e-05
5e-05
5e-05
5e-05
5e-05
5e-05
5e-05
5e-05
5e-05
5e-05
5e-05
5e-05
5e-05
5e-05
5e-05
5e-05
5e-05
5e-05
5e-05
5e-05
5e-05
5e-05
5e-05
5e-05
5e-05
5e-05
5e-05
5e-05
5e-05
5e-05
5e-05
5e-05
5e-05
5e-05
5e-05
5e-05
5e-05
5e-05
5e-05
5e-05
5e-05
5e-05
5e-05
5e-05
5e-05
5e-05
5e-05
5e-05
5e-05
5e-05
5e-05
5e-05
5e-05
5e-05
5e-05
5e-05
5e-05
5e-05
5e-05
5e-05
5e-05
5e-05
5e-05
5e-05
5e-05
5e-05
5e-05
5e-05
5e-05
5e-05
5e-05
5e-05
5e-05
5e-05
5e-05
5e-05
5e-05
5e-05
5e-05
5e-05
5e-05
5e-05
5e-05
5e-05
5e-05
5e-05
5e-05
5e-05
5e-05
5e-05
5e-05
5e-05
5e-05
5e-05
5e-05
5e-05
5e-05
5e-05
5e-05
5e-05
5e-05
5e-05
5e-05
5e-05
5e-05
5e-05
5e-05
5e-05
5e-05
5e-05
5e-05
5e-05
5e-05
5e-05
5e-05
5e-05
5e-05
5e-05
5e-05
5e-05
5e-05
5e-05
5e-05
5e-05
5e-05
5e-05
5e-05
5e-05
5e-05
5e-05
5e-05
5e-05
5e-05
5e-05
5e-05
5e-05
5e-05
5e-05
5e-05
5e-05
5e-05
5e-05
5e-05
5e-05
5e-05
5e-05
5e-05
5e-05
5e-05
5e-05
5e-05
5e-05
5e-05
5e-05
5e-05
5e-05
5e-05
5e-05
5e-05
5e-05
5e-05
5e-05
5e-05
5e-05
5e-05
5e-05
5e-05
5e-05
5e-05
5e-05
5e-05
5e-05
5e-05
5e-05
5e-05
5e-05
5e-05
5e-05
5e-05
5e-05
5e-05
5e-05
5e-05
5e-05
5e-05
5e-05
5e-05
5e-05
5e-05
5e-05
5e-05
5e-05
5e-05
5e-05
5e-05
5e-05
5e-05
5e-05
5e-05
5e-05
5e-05
5e-05
5e-05
5e-05
5e-05
5e-05
5e-05
5e-05
5e-05
5e-05
5e-05
5e-05
5e-05
5e-05
5e-05
5e-05
5e-05
5e-05
5e-05
5e-05
5e-05
5e-05
5e-05
5e-05
5e-05
5e-05
5e-05
5e-05
5e-05
5e-05
5e-05
5e-05
5e-05
5e-05
5e-05
5e-05
5e-05
5e-05
5e-05
5e-05
5e-05
5e-05
5e-05
5e-05
5e-05
5e-05
5e-05
5e-05
5e-05
5e-05
5e-05
5e-05
5e-05
5e-05
5e-05
5e-05
5e-05
5e-05
5e-05
5e-05
5e-05
5e-05
5e-05
5e-05
5e-05
5e-05
5e-05
5e-05

SCALARS mass float 1
LOOKUP_TABLE default
1.46608e-10
1.46608e-10
1.46608e-10
1.46608e-10
1.46608e-10
1.46608e-10
1.46608e-10
1.46608e-10
1.46608e-10
1.46608e-10
1.46608e-10
1.46608e-10
1.46608e-10
1.46608e-10
1.46608e-10
1.46608e-10
1.46608e-10
1.46608e-10
1.46608e-10
1.46608e-10
1.46608e-10
1.46608e-10
1.46608e-10
1.46608e-10
1.46608e-10
1.46608e-10
1.46608e-10
1.46608e-10
1.46608e-10
1.46608e-10
1.46608e-10
1.46608e-10
1.46608e-10
1.46608e-10
1.46608e-10
1.46608e-10
1.46608e-10
1.46608e-10
1.46608e-10
1.46608e-10
1.46608e-10
1.46608e-10
1.46608e-10
1.46608e-10
1.46608e-10
1.46608e-10
1.46608e-10
1.46608e-10
1.46608e-10
1.46608e-10
1.46608e-10
1.46608e-10
1.46608e-10
1.46608e-10
1.46608e-10
1.46608e-10
1.46608e-10
1.46608e-10
1.46608e-10
1.46608e-10
1.46608e-10
1.46608e-10
1.46608e-10
1.46608e-10
1.46608e-10
1.46608e-10
1.46608e-10
1.46608e-10
1.46608e-10
1.46608e-10
1.46608e-10
1.46608e-10
1.46608e-10
1.46608e-10
1.46608e-10
1.46608e-10
1.46608e-10
1.46608e-10
1.46608e-10
1.46608e-10
1.46608e-10
1.46608e-10
1.46608e-10
1.46608e-10
1.46608e-10
1.46608e-10
1.46608e-10
1.46608e-10
1.46608e-10
1.46608e-10
1.46608e-10
1.46608e-10
1.46608e-10
1.46608e-10
1.46608e-10
1.46608e-10
1.46608e-10
1.46608e-10
1.46608e-10
1.46608e-10
1.46608e-10
1.46608e-10
1.46608e-10
1.46608e-10
1.46608e-10
1.46608e-10
1.46608e-10
1.46608e-10
1.46608e-10
1.46608e-10
1.46608e-10
1.46608e-10
1.46608e-10
1.46608e-10
1.46608e-10
1.46608e-10
1.46608e-10
1.46608e-10
1.46608e-10
1.46608e-10
1.46608e-10
1.46608e-10
1.46608e-10
1.46608e-10
1.46608e-10
1.46608e-10
1.46608e-10
1.46608e-10
1.46608e-10
1.46608e-10
1.46608e-10
1.46608e-10
1.46608e-10
1.46608e-10
1.46608e-10
1.46608e-10
1.46608e-10
1.46608e-10
1.46608e-10
1.46608e-10
1.46608e-10
1.46608e-10
1.46608e-10
1.46608e-10
1.46608e-10
1.46608e-10
1.46608e-10
1.46608e-10
1.46608e-10
1.46608e-10
1.46608e-10
1.46608e-10
1.46608e-10
1.46608e-10
1.46608e-10
1.46608e-10
1.46608e-10
1.46608e-10
1.46608e-10
1.46608e-10
1.46608e-10
1.46608e-10
1.46608e-10
1.46608e-10
1.46608e-10
1.46608e-10
1.46608e-10
1.46608e-10
1.46608e-10
1.46608e-10
1.46608e-10
1.46608e-10
1.46608e-10
1.46608e-10
1.46608e-10
1.46608e-10
1.46608e-10
1.46608e-10
1.46608e-10
1.46608e-10
1.46608e-10
1.46608e-10
1.46608e-10
1.46608e-10
1.46608e-10
1.46608e-10
1.46608e-10
1.46608e-10
1.46608e-10
1.46608e-10
1.46608e-10
1.46608e-10
1.46608e-10
1.46608e-10
1.46608e-10
1.46608e-10
1.46608e-10
1.46608e-10
1.46608e-10
1.46608e-10
1.46608e-10
1.46608e-10
1.46608e-10
1.46608e-10
1.46608e-10
1.46608e-10
1.46608e-10
1.46608e-10
1.46608e-10
1.46608e-10
1.46608e-10
1.46608e-10
1.46608e-10
1.46608e-10
1.46608e-10
1.46608e-10
1.46608e-10
1.46608e-10
1.46608e-10
1.46608e-10
1.46608e-10
1.46608e-10
1.46608e-10
1.46608e-10
1.46608e-10
1.46608e-10
1.46608e-10
1.46608e-10
1.46608e-10
1.46608e-10
1.46608e-10
1.46608e-10
1.46608e-10
1.46608e-10
1.46608e-10
1.46608e-10
1.46608e-10
1.46608e-10
1.46608e-10
1.46608e-10
1.46608e-10
1.46608e-10
1.46608e-10
1.46608e-10
1.46608e-10
1.46608e-10
1.46608e-10
1.46608e-10
1.46608e-10
1.46608e-10
1.46608e-10
1.46608e-10
1.46608e-10
1.46608e-10
1.46608e-10
1.46608e-10
1.46608e-10
1.46608e-10
1.46608e-10
1.46608e-10
1.46608e-10
1.46608e-10
1.46608e-10
1.46608e-10
1.46608e-10
1.46608e-10
1.46608e-10
1.46608e-10
1.46608e-10
1.46608e-10
1.46608e-10
1.46608e-10
1.46608e-10
1.46608e-10
1.46608e-10

VECTORS velocity float
0.00557073 -0.000545369 0.000113351
0.0061594 -0.000496175 5.59702e-05
0.00613934 -0.000285349 0.000237513
0.00554464 -0.000263724 0.000217033
0.00592282 -6.47549e-05 3.79821e-05
0.00573609 -0.000333983 2.70735e-05
0.00614246 -0.000362887 0.000271309
0.0056698 -3.04772e-05 9.90403e-06
0.00555321 -0.000270497 0.000216433
0.00570689 -0.000342274 3.61565e-05
0.0059814 -0.000253043 -0.000252095
0.00551759 -0.000265787 0.00021971
0.005521 0.000145906 4.96695e-05
0.0057587 6.34128e-05 8.4896e-05
0.0055343 -0.0002636 0.00021986
0.00550863 -0.000271802 0.000226841
0.00575509 -0.000316685 1.29197e-05
0.00597701 -0.000380399 0.000280747
0.00587162 6.35923e-05 8.2215e-05
0.00618637 -0.000125458 8.48397e-05
0.00559279 -0.000283304 0.000218456
0.00568022 -3.41629e-05 1.23562e-05
0.00604298 -0.000199835 -0.000281654
0.00614635 -0.000327865 0.000214044
0.00570863 -0.000305151 0.000263953
0.00555495 -0.000272679 0.000215104
0.00571939 -0.000278101 1.42952e-05
0.00560559 -0.000286172 0.000224322
0.00596755 -7.66763e-05 4.76538e-05
0.00548193 -0.000264914 0.0002151
0.00579324 -0.000351409 2.63614e-05
0.00567429 -3.02902e-05 9.53563e-06
0.00612144 -0.000305231 0.000250886
0.00590192 -5.65853e-05 2.82826e-06
0.00594153 -8.28085e-05 5.14962e-05
0.00548797 -0.000263036 0.000216216
0.00614484 -0.000256039 0.000219289
0.00597269 -0.000139547 -1.09073e-05
0.00600912 -9.40041e-05 5.78701e-05
0.0054549 -0.000264061 0.000215607
0.00578194 -0.000362499 7.28218e-05
0.00567248 -3.1785e-05 9.38289e-06
0.00560166 -0.000288621 0.000224177
0.00575564 -0.000278663 1.53249e-05
0.00604032 -9.88522e-05 0.000155037
0.00610544 -0.00010019 6.72563e-05
0.00577033 -0.000289883 1.83184e-05
0.00603482 -9.75821e-05 0.000150454
0.00578916 -0.000397659 3.84188e-05
0.00603354 -0.000102863 6.26688e-05
-5.01914e-15 -7.41225e-15 7.69803e-14
0.00577382 -0.000305901 2.01983e-05
0.00553861 -0.000266582 0.000219547
0.00578882 -0.000347488 2.73736e-05
0.00580657 -0.000410434 0.000104065
0.00617864 -0.000117345 8.05266e-05
0.00593817 0.000354938 -1.94478e-05
0.00571392 -1.08101e-05 8.70038e-05
0.00579588 -0.000357806 9.79103e-06
0.00578743 -0.000352099 2.68025e-05
0.00579319 -0.00037876 3.16926e-05
0.00567504 -3.06127e-05 1.06456e-05
0.00577036 0.000119916 5.9732e-05
0.00556032 -0.000564529 6.89068e-05
0.00556389 -0.000272821 0.000221188
0.00559284 -0.000284218 0.000219506
0.00600575 -0.000238426 -0.000261381
0.00604642 -0.000477219 2.13972e-05
0.00551461 0.000328796 0.000174782
0.00576373 6.35315e-05 7.69297e-05
0.00606777 -0.000362198 0.000265886
0.00575564 3.75543e-05 8.50696e-05
0.00598672 -0.000258016 -0.000247258
0.00567346 -3.16405e-05 9.766e-06
0.0058616 0.000169235 4.48134e-05
0.0060329 2.74788e-05 -4.555e-05
0.00615143 -0.00031989 0.000245695
0.00556874 -0.000291529 1.73467e-05
0.00573286 -0.000307451 1.29206e-06
0.00577259 -0.00035937 3.33912e-05
0.00595249 -0.000286503 -0.000233021
0.00568924 -0.000348407 2.52214e-05
0.005709 -0.00029114 0.000225863
0.00575229 -0.000433255 1.3032e-05
0.00564407 -0.00038133 2.10817e-05
0.00567088 -0.000348986 2.94219e-05
0.00567519 -9.71153e-05 -0.00026792
0.00550805 -0.000258578 0.000204611
0.00580646 -3.41722e-05 0.000112596
0.0057478 -0.000326319 2.34091e-05
0.00556324 -0.000109664 -0.000952444
4.16985e-15 1.05281e-14 8.29612e-14
2.29399e-22 4.86658e-23 1.23839e-22
0.00573564 7.33191e-05 7.63153e-05
0.00560442 0.000336333 0.000169277
0.00556032 5.34107e-05 4.86373e-05
0.00556836 0.000337661 0.000179441
0.00577939 -0.000321381 2.19895e-05
0.00571187 -0.000294395 1.85428e-05
0.00618829 -0.000419693 0.000160284
0.00619785 -0.000349312 0.000284419
0.00561342 -0.000122075 -0.000275888
0.00555587 1.64769e-05 9.52761e-05
0.0057224 -3.15142e-05 0.000113383
0.00632013 -5.79475e-05 0.000103767
0.00578561 -0.000356828 3.26291e-05
0.00577672 -0.000348195 2.62451e-05
0.00601416 0.000452182 -5.20104e-05
0.00576176 -0.000348957 2.89912e-05
0.0060986 -0.000390406 0.000288611
0.00563119 -0.000516451 0.000110125
0.00563642 -0.000349767 2.78962e-05
0.00575854 6.48975e-05 7.97514e-05
0.00596013 -0.000335655 0.000253359
0.00562811 -0.000305325 1.7662e-05
0.00564693 7.40188e-05 -1.6961e-05
0.0054701 -0.000255058 0.000203695
0.00561546 -0.000297709 4.83405e-05
0.00572415 -8.16356e-05 0.000129994
0.00580333 -1.35863e-06 0.00010263
0.0061078 -0.000300634 0.000240908
0.00577609 -0.000369849 4.56104e-05
0.00574009 -0.000349473 1.75565e-05
0.00576985 -0.000287397 1.42215e-05
0.0060174 -6.75657e-05 0.000130826
0.00565378 -0.000344744 4.46715e-05
0.00571756 -0.00035196 -9.37941e-06
0.00579197 -0.000405699 -4.17601e-06
0.00595988 -0.000220185 -0.000266449
0.0057739 3.98037e-05 9.27321e-05
0.00559872 0.000349691 0.000179593
0.00556012 0.000255845 8.59334e-06
0.0057226 -0.000185829 -0.000273449
0.00544173 0.000114151 5.78348e-05
0.00597943 -0.00022173 -0.000266901
0.00612449 -0.000348694 0.000287034
0.00332091 0.00114205 0.000177456
0.00574941 4.09728e-05 8.84003e-05
0.00596652 -0.00023487 -0.000259508
0.00563028 -0.000152474 -0.000288405
0.00584703 -0.000226646 -0.000245562
0.00595551 -0.000220799 -0.000265016
-3.83778e-14 8.16288e-14 2.95892e-13
0.00600731 -0.000221317 -0.000268362
0.00613069 -0.000221593 0.000202421
0.00573853 0.000428145 -4.47103e-05
0.00582277 2.66231e-05 8.26363e-05
0.00590762 -0.000271857 -0.000237007
0.0057796 5.99503e-05 8.1066e-05
0.00575302 -0.000355085 3.39947e-05
0.00562109 0.000108459 -0.000105778
0.0048909 0.000733135 4.94947e-05
0.00279172 0.00118137 0.000199016
0.00576386 6.85182e-05 8.30182e-06
0.00561282 -0.000544711 0.000115479
0.00607971 -8.15082e-05 0.000138284
0.00576792 -0.000351533 4.41889e-05
0.00595148 -0.000242944 -0.000254865
0.00605301 -8.8281e-05 0.000139651
0.00585226 -0.000294343 -0.00022305
0.00551115 8.28169e-05 8.38912e-05
0.00577488 1.40701e-05 6.50026e-05
0.00566401 -0.000526261 0.000111625
0.00573833 -4.99436e-05 0.000124503
0.00579273 -0.000403274 5.43238e-05
0.00572826 -6.99541e-05 0.00012486
0.00577237 8.73182e-05 7.17286e-05
0.00556138 -0.000497234 0.000105664
0.00567108 -0.000324749 2.09359e-05
0.00559396 -0.000512623 0.00010863
0.00530363 0.000416509 -0.000197853
0.00615964 -0.00034245 0.000291099
0.00547494 2.15909e-05 9.08165e-05
0.0056585 -0.000544473 0.000115718
0.00582784 2.93828e-05 0.000113877
0.00572616 3.19214e-05 0.000109216
0.00582439 1.04494e-05 0.000104379
0.00605075 1.00718e-05 -0.000662378
0.0059677 -8.63897e-05 0.000134611
0.0058104 -5.36163e-05 0.000113198
0.00562308 -0.000129122 -0.000315925
0.00573458 5.63583e-05 8.41345e-05
0.0060215 -0.000220507 -0.00027048
0.00571416 -0.000340023 2.2743e-05
0.00581218 8.31775e-05 6.87063e-05
0.0059919 -0.000208879 -0.000273678
0.00602018 -0.000208719 -0.000274987
0.00594692 -0.000255279 -0.000249108
0.00608614 -0.000133146 0.000142407
0.00610555 -8.83909e-05 0.00013834
0.00619672 -0.000356351 0.000268564
0.00623751 -0.000311818 0.000251497
0.00575676 5.25731e-05 8.41637e-05
0.00553605 -0.000518864 0.000101096
0.00600624 -0.000385979 7.21586e-05
0.00587417 0.000297891 -0.000216219
0.00592219 -0.000265518 -0.000241376
0.00554411 -0.000508227 0.000108342
0.00577207 -3.44835e-05 0.000116143
0.00611006 -0.000359161 0.000273122
0.00581077 -1.16185e-06 0.000109238
0.00572254 -0.000291287 1.67339e-05
0.00604528 -0.000206832 -0.000285379
0.00619802 -0.000361617 0.000267697
0.005557 0.000173405 3.42471e-05
0.00588028 0.000292771 -0.000218111
0.00587248 0.000327223 -0.000164021
0.00578258 9.19453e-05 7.05805e-05
0.00604625 -0.000207485 -0.000281862
0.00583058 2.16475e-05 2.63149e-05
0.0057812 4.98948e-05 7.01796e-05
0.00584706 -0.00017055 -0.000114089
0.00601977 -0.000200011 -0.00027939
0.00606546 -0.000108725 6.17271e-06
0.00607627 -6.90511e-05 0.000128561
0.00586203 5.47409e-05 -0.000683226
0.00594431 3.56153e-05 -0.000677459
0.00579874 6.60234e-05 -0.000686236
0.00592236 -0.000292214 -0.00022823
0.0057823 1.15989e-05 0.000100035
0.00590243 3.59443e-05 -0.000673003
0.00622314 -5.06794e-05 -0.000633108
0.00596776 -0.000227196 -0.000263384
0.00567255 0.000160573 4.48169e-05
0.00614213 -2.34651e-05 -0.000646945
0.00596139 -0.000225782 -0.000263651
0.00571797 -0.000339212 2.82669e-05
0.00616749 0.000104836 -0.000422927
0.00552992 0.000368219 -0.000205597
0.00616277 -2.60045e-05 -0.000654924
0.00556586 0.000319895 0.000191608
0.00577346 6.34688e-05 7.93727e-05
0.0059773 -0.000239592 -0.000258061
0.00609588 -7.26231e-05 0.000135025
0.00585003 0.000385703 -1.1422e-05
0.00579051 7.24182e-05 7.40674e-05
0.0060545 -5.80814e-05 0.000125375
0.00607687 -7.36213e-05 0.0001315
0.00607293 -1.57518e-05 -0.000646526
0.00590121 -0.000260092 -0.000243457
0.00564318 0.000348513 -0.000209732
0.00576608 2.04618e-05 0.000145895
0.0059764 -0.000213779 -0.000271208
0.00562104 0.000251455 1.12343e-05
0.00570556 -9.89108e-05 0.000134461
0.00567102 -0.000361374 2.46415e-05
0.00577589 1.30995e-05 6.71373e-05
0.00587908 0.00030641 -0.000212086
0.00600572 -0.000207825 -0.00027533
0.00584511 0.000494607 0.000157056
0.0059389 -0.000256219 -0.000247963
0.00596122 -0.000238737 -0.000257536
0.00598745 -0.000213158 -0.00027056
0.00558516 0.00021331 2.44273e-05
0.00587575 0.00027662 -0.000217984
0.00587974 0.000291136 -0.000218927
0.00570827 1.54832e-05 8.62936e-05
0.00591249 2.70271e-05 -0.000668904
0.00605172 -0.000216597 -0.000285568
0.00603391 -0.000218777 -0.000249902
0.00590025 -0.000281237 -0.000230941
0.00603423 -0.000201829 -0.000280054
0.0058013 5.50432e-05 9.49477e-05
0.00588779 -0.000300491 -0.000220399
0.00602669 -0.000226553 -0.000265433
0.00551876 0.000200992 2.47778e-05
0.00574783 3.63198e-05 8.06725e-05
0.0060495 -0.000179454 -0.000188871
0.00606032 -0.000191026 -0.000196726
0.00587919 0.000291633 -0.000217243
0.00600229 -0.000205531 -0.000277006
0.00547684 -0.000514922 0.000100361
0.0060289 3.36285e-05 -0.00067945
0.00619947 -3.88864e-05 -0.000647781
0.00571597 -0.000354366 2.8726e-05

VECTORS force float
-5.35579e-11 6.40258e-12 -5.362e-11
5.53889e-10 3.69355e-11 9.56434e-10
1.17006e-10 8.98028e-11 -8.24519e-11
-1.10108e-10 7.79663e-11 -1.21532e-10
1.52082e-11 1.12167e-11 8.48577e-12
1.14858e-10 -9.88699e-11 -3.88958e-12
8.51546e-11 1.42547e-11 -2.76526e-11
-5.50376e-11 4.64588e-11 2.67512e-11
3.46862e-10 -9.52419e-11 1.07523e-10
-2.27701e-10 2.27945e-10 -1.34416e-10
9.29411e-11 -1.4665e-10 5.3268e-11
1.06629e-11 6.98045e-11 -9.49483e-11
-2.85772e-10 6.12547e-12 6.23691e-11
4.3554e-10 -6.09465e-11 1.28198e-10
-1.53777e-10 -6.13345e-11 4.81947e-11
7.89956e-11 -4.41408e-11 5.64205e-11
-1.40187e-10 4.39007e-11 -1.90449e-12
1.91062e-10 -5.34989e-11 3.44437e-11
1.00161e-10 -3.74752e-10 7.36668e-11
1.14587e-10 4.29448e-11 -1.8159e-11
-2.04618e-10 6.62698e-11 -5.33144e-11
-5.2074e-11 -6.51747e-11 7.37119e-11
2.82215e-11 9.92909e-12 -4.91225e-11
1.17362e-10 -4.66504e-10 -5.29952e-10
1.06212e-10 -1.48752e-10 1.83708e-10
-1.59289e-10 1.19406e-10 -1.14077e-10
2.95026e-10 7.99765e-11 2.66222e-12
2.3119e-10 7.51154e-11 3.738e-11
-9.14285e-11 1.2482e-11 2.87024e-11
-1.3471e-11 -1.27587e-10 6.95933e-11
-1.28095e-10 1.42474e-11 -3.12548e-11
-1.0229e-11 2.33492e-11 1.03887e-12
2.65369e-11 2.26321e-10 -1.01352e-10
-3.01727e-11 5.15951e-11 -7.09745e-10
-8.3712e-11 -5.14264e-11 4.0244e-11
8.58357e-11 -3.30835e-11 5.04508e-11
-2.31203e-10 2.37926e-10 -1.54341e-10
-4.79245e-10 -5.66501e-10 1.51378e-10
3.70438e-10 -7.98792e-11 6.21517e-11
3.4459e-10 -1.17167e-10 7.32408e-11
5.32054e-11 6.76744e-11 1.9543e-11
-5.99083e-11 1.48665e-11 1.34895e-11
1.93226e-10 1.3633e-10 -2.7125e-11
-1.09697e-10 4.38001e-11 -4.43489e-11
3.63278e-10 -2.59613e-10 8.64052e-11
-3.46575e-10 -8.02633e-11 -5.44086e-11
1.37395e-11 -1.56148e-10 1.482e-11
3.58348e-10 -3.98035e-11 5.21949e-10
-2.63015e-10 6.8909e-11 -9.52005e-12
2.43061e-11 -1.17025e-10 6.19387e-11
4.79506e-24 -4.26515e-24 0.0
1.5103e-10 1.73607e-10 -4.67396e-11
-2.30231e-10 8.89994e-11 -9.88653e-11
9.85538e-11 -1.86727e-11 -1.07434e-11
9.68772e-11 4.42554e-11 -1.44871e-10
5.44552e-10 -5.13131e-11 1.6136e-11
1.2015e-10 2.97406e-10 -1.004e-10
-6.94174e-11 1.15906e-10 -1.42355e-10
-8.43926e-11 7.78231e-11 2.82914e-11
7.61095e-11 -2.88995e-10 7.81193e-11
-1.53712e-10 1.64437e-10 -1.03187e-11
6.98694e-12 -7.18254e-12 3.66823e-11
-1.02969e-11 -1.38998e-10 4.59914e-11
4.31383e-11 8.66677e-11 -2.96543e-11
6.46648e-11 2.04512e-12 2.93063e-11
-1.13894e-10 1.009e-10 -6.28815e-11
1.95244e-10 3.95762e-11 7.82593e-12
-1.02804e-10 -1.88544e-10 5.22431e-10
2.20313e-10 -5.27724e-10 9.13977e-10
-4.89773e-11 -1.49837e-11 5.79337e-12
-2.80145e-10 -2.13641e-10 1.13624e-11
-9.59754e-11 -2.41326e-11 -3.24149e-10
5.80077e-11 -2.17754e-10 3.87397e-11
-7.21584e-12 5.85471e-12 4.37049e-12
-1.49348e-10 -5.48982e-11 2.01227e-11
-5.49918e-10 2.34053e-10 -1.66235e-10
5.32747e-11 -2.58978e-10 -5.38101e-11
-1.55287e-10 9.43664e-11 -3.22407e-11
1.58509e-10 -1.23956e-10 1.06736e-10
1.86805e-10 4.71219e-11 1.99774e-11
-6.19912e-12 -2.08281e-11 1.15793e-12
-3.72953e-11 2.36838e-10 -7.50406e-11
1.38472e-10 5.23925e-11 -3.89654e-11
-5.19889e-11 5.31267e-11 1.73162e-10
-9.65915e-11 5.93202e-11 -7.65212e-11
-1.05998e-11 1.572e-10 4.32381e-12
8.37301e-10 2.09719e-10 1.53701e-10
4.33232e-11 1.25183e-10 -5.32645e-11
4.23756e-11 -9.44766e-11 4.50073e-11
-3.2533e-10 3.51757e-11 9.4904e-12
3.38867e-12 -2.40874e-10 -6.40428e-10
2.05249e-21 -4.88321e-22 -4.42542e-23
0.0 0.0 0.0
7.92393e-11 -5.30015e-11 4.35762e-11
-5.66347e-11 -2.00353e-10 1.10927e-10
-4.2955e-11 1.87831e-10 -1.63615e-10
2.7027e-10 -2.19188e-10 4.3486e-10
2.35271e-11 -3.70736e-11 -5.85902e-11
2.23385e-10 5.94543e-11 -1.83927e-11