# vtk DataFile Version 3.0
LIGGGHTS particles timestep 44200000
ASCII
DATASET POLYDATA
POINTS 275 float
0.271 0.0182555 0.00699823
0.270653 0.0171039 0.00729815
0.270802 0.0169865 0.00736167
0.270184 0.0155949 0.00893746
0.276463 0.0163445 0.00780991
0.270951 0.0176069 0.00709324
0.270644 0.0167233 0.00754918
0.276662 0.0171784 0.00737086
0.270325 0.0159556 0.00848068
0.270878 0.0178373 0.00713965
0.264884 0.0169632 0.0074062
0.270162 0.0155347 0.00901445
0.264861 0.0175896 0.00707165
0.265057 0.0181056 0.00699199
0.270299 0.0158948 0.00855577
0.270141 0.0154746 0.00909144
0.270993 0.0178019 0.00706544
0.270603 0.0165856 0.00768614
0.265092 0.0178459 0.00703018
0.276578 0.0167974 0.00745677
0.270365 0.0160752 0.00832558
0.276619 0.0169899 0.00742147
0.264694 0.0169267 0.00746292
0.270728 0.0170457 0.00732962
0.27012 0.0154144 0.00916843
0.270436 0.0163158 0.00801411
0.271026 0.0175418 0.00710499
0.270386 0.0161357 0.00824871
0.276482 0.0164115 0.00773825
0.270276 0.0158428 0.00863803
0.270907 0.0174126 0.00712089
0.276728 0.0174592 0.00728788
0.27078 0.0169024 0.00741122
0.270866 0.0172398 0.00721258
0.276597 0.0168939 0.00743905
0.270227 0.0157152 0.00878375
0.270898 0.0170127 0.0073435
0.270961 0.0172657 0.00719459
0.276501 0.0164785 0.00766657
0.270251 0.0157752 0.00870751
0.270864 0.0180299 0.007028
0.276684 0.017272 0.0073432
0.270401 0.0161954 0.00816985
0.271047 0.0176387 0.00709117
0.264947 0.017207 0.0072448
0.276542 0.0166217 0.00753339
0.271203 0.0179621 0.00704747
0.264872 0.0172631 0.00721016
0.271183 0.017865 0.00706132
0.276521 0.0165476 0.00759719
0.378022 0.019866 0.005332
0.270985 0.0173528 0.00715191
0.270205 0.015655 0.00886047
0.270886 0.0173243 0.00716282
0.270959 0.018225 0.00708426
0.27656 0.0167007 0.00747462
0.264915 0.0174321 0.00711151
0.265036 0.0178695 0.00711003
0.271014 0.0178991 0.00705156
0.270791 0.0172984 0.00718098
0.271088 0.0178335 0.00706337
0.276641 0.0170848 0.00739851
0.265229 0.0180648 0.00699562
0.271074 0.01819 0.00701003
0.270344 0.016015 0.0084025
0.270418 0.0162564 0.0080925
0.264809 0.0170193 0.00737243
0.270674 0.017188 0.00724861
0.264189 0.015561 0.00889558
0.265131 0.0184023 0.00694676
0.270749 0.0171299 0.00728005
0.264961 0.0179347 0.00710134
0.264902 0.0170386 0.00734308
0.276706 0.0173656 0.00731554
0.265274 0.018263 0.00696547
0.270941 0.0171812 0.0072443
0.270706 0.0169615 0.00737916
0.270855 0.0175762 0.00709516
0.270973 0.0178683 0.00713758
0.271034 0.0179962 0.00703771
0.264864 0.0168921 0.0074736
0.270782 0.0176424 0.00708333
0.270491 0.0164962 0.00778082
0.270898 0.0179344 0.00712583
0.270795 0.017526 0.00718853
0.27076 0.0175457 0.00709704
0.264301 0.015893 0.00854873
0.270472 0.0164368 0.00785905
0.264846 0.0179457 0.00701883
0.270972 0.0177045 0.00707933
0.264866 0.0180425 0.00700412
0.0643568 0.0187248 0.00531097
0.24257 0.0191927 0.00520306
0.265152 0.0181366 0.00698602
0.264279 0.015755 0.00868943
0.264941 0.0178378 0.00711603
0.264209 0.0156288 0.00882505
0.271108 0.0179306 0.00704951
0.271162 0.0177674 0.00707525
0.270631 0.0170197 0.00734772
0.270589 0.0168513 0.00744686
0.264347 0.0160275 0.00840824
0.264765 0.0175584 0.00707766
0.264805 0.0177521 0.00704825
0.270919 0.0170969 0.0072939
0.270939 0.0179647 0.00703976
0.27093 0.0175102 0.00710702
0.26499 0.0173757 0.00714632
0.271129 0.0180277 0.00703565
0.270623 0.0166457 0.00760879
0.270945 0.0184176 0.00697264
0.270739 0.0174517 0.00712346
0.265249 0.0181616 0.00698091
0.270509 0.0165564 0.00770307
0.270834 0.0174793 0.00710895
0.264277 0.0158259 0.00861897
0.270454 0.0163759 0.0079364
0.270857 0.0177402 0.00715338
0.264901 0.0177833 0.00704223
0.264921 0.0178801 0.00702752
0.270824 0.0170713 0.00731176
0.270959 0.0180616 0.00702592
0.270919 0.0178677 0.0070536
0.271067 0.0177358 0.00707732
0.26485 0.0171862 0.00727024
0.270819 0.0176252 0.00717438
0.270824 0.017836 0.00705568
0.270695 0.0172723 0.00719901
0.264691 0.0166025 0.00778663
0.265072 0.017749 0.00704489
0.264231 0.0156964 0.00875462
0.265031 0.0175554 0.0070743
0.264386 0.0161639 0.00826787
0.264881 0.0176864 0.00705694
0.26471 0.0166706 0.007716
0.270548 0.0166826 0.00754614
0.265076 0.0185651 0.00692331
0.264999 0.0182735 0.00696782
0.264729 0.0167387 0.00764537
0.264372 0.0160942 0.00833816
0.264409 0.0162377 0.00820458
0.264671 0.0165344 0.00785725
0.0219312 0.0187687 0.00551176
0.264769 0.0168748 0.00750416
0.270845 0.0171555 0.00726217
0.264887 0.0181393 0.00698942
0.265002 0.0181283 0.00707184
0.264462 0.016435 0.00798555
0.265107 0.0183007 0.00696225
0.270844 0.0179329 0.00704184
0.264962 0.0185016 0.00693577
0.265151 0.0184999 0.00693194
0.264981 0.0185984 0.00691969
0.265056 0.0184681 0.00693804
0.27102 0.0183525 0.00698439
0.264744 0.0174617 0.00709236
0.271054 0.0180931 0.00702387
0.264504 0.0165801 0.00785509
0.264797 0.0173193 0.00717545
0.264502 0.0162453 0.00816924
0.264825 0.0177098 0.00713665
0.26493 0.0181983 0.00706431
0.270965 0.0185146 0.0069588
0.264865 0.0179602 0.00711584
0.2709 0.0180847 0.0071034
0.265052 0.0176522 0.0070596
0.265344 0.0181927 0.00697494
0.270979 0.0181586 0.00701208
0.270811 0.0173831 0.00713102
0.270925 0.0183207 0.00698648
0.258835 0.0179248 0.00718079
0.270567 0.0167671 0.00749644
0.264785 0.0176552 0.00706295
0.27104 0.0184494 0.00697055
0.264981 0.0180314 0.00708655
0.264982 0.0181706 0.0069834
0.265017 0.017912 0.00702141
0.258502 0.0165241 0.00771108
0.264924 0.017123 0.00729383
0.264906 0.018097 0.00707788
0.264328 0.0159591 0.00847894
0.265075 0.018207 0.00697665
0.264788 0.0169429 0.00743351
0.270898 0.0177707 0.00706745
0.265112 0.0179428 0.00701547
0.264635 0.0167225 0.00767468
0.264674 0.0168586 0.00753347
0.264557 0.0164502 0.00795714
0.264971 0.0172909 0.00719587
0.264896 0.017347 0.00716124
0.270665 0.016798 0.00748606
0.270685 0.0168776 0.00742915
0.265179 0.018232 0.00697145
0.270905 0.0182238 0.00700032
0.27077 0.0172141 0.00723046
0.258734 0.0174358 0.00718587
0.264539 0.0163818 0.00802786
0.270985 0.0186116 0.00694495
0.264826 0.0178489 0.00703354
0.270528 0.0166239 0.00763186
0.264941 0.017977 0.00701281
0.271005 0.0174451 0.00711876
0.264714 0.0169953 0.00739159
0.27061 0.0169355 0.00739729
0.264921 0.0177409 0.00713064
0.258753 0.0175338 0.00718756
0.258697 0.0172473 0.00722326
0.265201 0.0183318 0.00695626
0.264618 0.0169786 0.00742266
0.265023 0.0182357 0.00705733
0.264942 0.0184046 0.00694912
0.270953 0.0177712 0.00715145
0.264579 0.016842 0.0075633
0.264681 0.0172138 0.00724788
0.264701 0.0172922 0.00718941
0.258407 0.016207 0.00808575
0.258464 0.0163972 0.00786095
0.258388 0.0161436 0.00816068
0.264845 0.0168239 0.00754421
0.264997 0.0178152 0.00703611
0.258426 0.0162704 0.00801081
0.258607 0.0169077 0.00741105
0.264521 0.0166378 0.00777514
0.26484 0.0174929 0.00708635
0.258543 0.016665 0.00757513
0.264596 0.0165863 0.00781593
0.270877 0.0176732 0.00708135
0.258626 0.0169897 0.00735727
0.258814 0.0178274 0.00718946
0.258563 0.0167447 0.00751822
0.264168 0.0154932 0.00896611
0.265132 0.0180395 0.00700077
0.264749 0.0168067 0.00757477
0.264821 0.0174045 0.00712885
0.258648 0.0170713 0.00730361
0.265036 0.0183712 0.00695275
0.264775 0.0172349 0.00722473
0.264723 0.0173765 0.00714015
0.258522 0.0165952 0.00764371
0.264423 0.0162989 0.00812676
0.258856 0.0180222 0.00717212
0.264962 0.0180737 0.00699811
0.264616 0.0166544 0.0077453
0.265011 0.0174602 0.007097
0.264977 0.0177183 0.00705083
0.270717 0.0173593 0.0071548
0.265021 0.0183349 0.00704459
0.258713 0.017338 0.00718403
0.264655 0.0167906 0.00760407
0.258672 0.0171571 0.00725812
0.264482 0.0165031 0.00791493
0.264577 0.0165183 0.00788653
0.26454 0.0167059 0.00770453
0.264936 0.0175246 0.00708027
0.258848 0.0175651 0.0071945
0.258773 0.0176317 0.00718932
0.264907 0.0182362 0.00697471
0.258445 0.0163338 0.00793588
0.264638 0.0170523 0.00735813
0.264731 0.0170661 0.00732323
0.264444 0.0163667 0.00805623
0.264599 0.01691 0.0074927
0.265037 0.0180088 0.0070067
0.264521 0.0163135 0.00809858
0.264829 0.0171022 0.00732011
0.264957 0.0176214 0.00706554
0.264927 0.0183273 0.00701071
0.264754 0.0171506 0.00727392
0.264659 0.0171327 0.00730253
0.258794 0.0177296 0.00719108
0.26456 0.0167739 0.00763392
0.270884 0.0181268 0.00701416
0.258483 0.0164607 0.00778611
0.258584 0.0168263 0.00746457
0.270803 0.0177391 0.00706949

VERTICES 275 550
1 0
1 1
1 2
1 3
1 4
1 5
1 6
1 7
1 8
1 9
1 10
1 11
1 12
1 13
1 14
1 15
1 16
1 17
1 18
1 19
1 20
1 21
1 22
1 23
1 24
1 25
1 26
1 27
1 28
1 29
1 30
1 31
1 32
1 33
1 34
1 35
1 36
1 37
1 38
1 39
1 40
1 41
1 42
1 43
1 44
1 45
1 46
1 47
1 48
1 49
1 50
1 51
1 52
1 53
1 54
1 55
1 56
1 57
1 58
1 59
1 60
1 61
1 62
1 63
1 64
1 65
1 66
1 67
1 68
1 69
1 70
1 71
1 72
1 73
1 74
1 75
1 76
1 77
1 78
1 79
1 80
1 81
1 82
1 83
1 84
1 85
1 86
1 87
1 88
1 89
1 90
1 91
1 92
1 93
1 94
1 95
1 96
1 97
1 98
1 99
1 100
1 101
1 102
1 103
1 104
1 105
1 106
1 107
1 108
1 109
1 110
1 111
1 112
1 113
1 114
1 115
1 116
1 117
1 118
1 119
1 120
1 121
1 122
1 123
1 124
1 125
1 126
1 127
1 128
1 129
1 130
1 131
1 132
1 133
1 134
1 135
1 136
1 137
1 138
1 139
1 140
1 141
1 142
1 143
1 144
1 145
1 146
1 147
1 148
1 149
1 150
1 151
1 152
1 153
1 154
1 155
1 156
1 157
1 158
1 159
1 160
1 161
1 162
1 163
1 164
1 165
1 166
1 167
1 168
1 169
1 170
1 171
1 172
1 173
1 174
1 175
1 176
1 177
1 178
1 179
1 180
1 181
1 182
1 183
1 184
1 185
1 186
1 187
1 188
1 189
1 190
1 191
1 192
1 193
1 194
1 195
1 196
1 197
1 198
1 199
1 200
1 201
1 202
1 203
1 204
1 205
1 206
1 207
1 208
1 209
1 210
1 211
1 212
1 213
1 214
1 215
1 216
1 217
1 218
1 219
1 220
1 221
1 222
1 223
1 224
1 225
1 226
1 227
1 228
1 229
1 230
1 231
1 232
1 233
1 234
1 235
1 236
1 237
1 238
1 239
1 240
1 241
1 242
1 243
1 244
1 245
1 246
1 247
1 248
1 249
1 250
1 251
1 252
1 253
1 254
1 255
1 256
1 257
1 258
1 259
1 260
1 261
1 262
1 263
1 264
1 265
1 266
1 267
1 268
1 269
1 270
1 271
1 272
1 273
1 274

POINT_DATA 275
SCALARS id int 1
LOOKUP_TABLE default
1
2
4
5
6
7
8
9
10
11
12
13
14
16
17
19
21
22
23
24
25
26
27
28
29
30
31
32
33
34
35
36
37
38
39
41
42
44
45
47
48
49
50
51
52
53
54
55
56
57
59
60
61
62
63
64
65
66
67
68
69
70
71
72
73
74
76
77
78
79
80
82
83
84
85
86
87
88
89
90
91
92
93
94
95
96
97
98
99
100
101
102
103
104
105
106
107
108
109
110
111
112
113
114
115
116
117
118
119
120
121
122
123
124
125
127
128
129
130
131
132
133
134
135
136
137
138
140
141
142
143
144
146
147
148
149
150
151
153
154
155
156
157
158
159
160
162
164
165
166
167
168
169
170
171
172
173
174
176
177
178
179
182
183
184
185
186
187
188
189
190
191
192
193
194
195
196
197
198
199
200
201
202
203
204
205
206
207
208
209
210
211
212
213
214
215
216
217
218
219
220
222
224
225
226
227
228
229
230
232
233
234
235
236
237
239
240
241
242
243
244
246
247
248
249
250
251
252
253
254
255
256
257
258
259
260
261
262
263
264
265
266
267
268
269
270
271
272
273
274
275
276
277
278
279
280
281
283
284
285
286
287
288
289
290
291
292
293
294
295
296
297
298
299
300

SCALARS type int 1
LOOKUP_TABLE default
1
1
1
1
1
1
1
1
1
1
1
1
1
1
1
1
1
1
1
1
1
1
1
1
1
1
1
1
1
1
1
1
1
1
1
1
1
1
1
1
1
1
1
1
1
1
1
1
1
1
1
1
1
1
1
1
1
1
1
1
1
1
1
1
1
1
1
1
1
1
1
1
1
1
1
1
1
1
1
1
1
1
1
1
1
1
1
1
1
1
1
1
1
1
1
1
1
1
1
1
1
1
1
1
1
1
1
1
1
1
1
1
1
1
1
1
1
1
1
1
1
1
1
1
1
1
1
1
1
1
1
1
1
1
1
1
1
1
1
1
1
1
1
1
1
1
1
1
1
1
1
1
1
1
1
1
1
1
1
1
1
1
1
1
1
1
1
1
1
1
1
1
1
1
1
1
1
1
1
1
1
1
1
1
1
1
1
1
1
1
1
1
1
1
1
1
1
1
1
1
1
1
1
1
1
1
1
1
1
1
1
1
1
1
1
1
1
1
1
1
1
1
1
1
1
1
1
1
1
1
1
1
1
1
1
1
1
1
1
1
1
1
1
1
1
1
1
1
1
1
1
1
1
1
1
1
1
1
1
1
1
1
1
1
1
1
1
1
1
1
1
1
1
1
1

SCALARS radius float 1
LOOKUP_TABLE default
5e-05
5e-05
5e-05
5e-05
5e-05
5e-05
5e-05
5e-05
5e-05
5e-05
5e-05
5e-05
5e-05
5e-05
5e-05
5e-05
5e-05
5e-05
5e-05
5e-05
5e-05
5e-05
5e-05
5e-05
5e-05
5e-05
5e-05
5e-05
5e-05
5e-05
5e-05
5e-05
5e-05
5e-05
5e-05
5e-05
5e-05
5e-05
5e-05
5e-05
5e-05
5e-05
5e-05
5e-05
5e-05
5e-05
5e-05
5e-05
5e-05
5e-05
5e-05
5e-05
5e-05
5e-05
5e-05
5e-05
5e-05
5e-05
5e-05
5e-05
5e-05
5e-05
5e-05
5e-05
5e-05
5e-05
5e-05
5e-05
5e-05
5e-05
5e-05
5e-05
5e-05
5e-05
5e-05
5e-05
5e-05
5e-05
5e-05
5e-05
5e-05
5e-05
5e-05
5e-05
5e-05
5e-05
5e-05
5e-05
5e-05
5e-05
5e-05
5e-05
5e-05
5e-05
5e-05
5e-05
5e-05
5e-05
5e-05
5e-05
5e-05
5e-05
5e-05
5e-05
5e-05
5e-05
5e-05
5e-05
5e-05
5e-05
5e-05
5e-05
5e-05
5e-05
5e-05
5e-05
5e-05
5e-05
5e-05
5e-05
5e-05
5e-05
5e-05
5e-05
5e-05
5e-05
5e-05
5e-05
5e-05
5e-05
5e-05
5e-05
5e-05
5e-05
5e-05
5e-05
5e-05
5e-05
5e-05
5e-05
5e-05
5e-05
5e-05
5e-05
5e-05
5e-05
5e-05
5e-05
5e-05
5e-05
5e-05
5e-05
5e-05
5e-05
5e-05
5e-05
5e-05
5e-05
5e-05
5e-05
5e-05
5e-05
5e-05
5e-05
5e-05
5e-05
5e-05
5e-05
5e-05
5e-05
5e-05
5e-05
5e-05
5e-05
5e-05
5e-05
5e-05
5e-05
5e-05
5e-05
5e-05
5e-05
5e-05
5e-05
5e-05
5e-05
5e-05
5e-05
5e-05
5e-05
5e-05
5e-05
5e-05
5e-05
5e-05
5e-05
5e-05
5e-05
5e-05
5e-05
5e-05
5e-05
5e-05
5e-05
5e-05
5e-05
5e-05
5e-05
5e-05
5e-05
5e-05
5e-05
5e-05
5e-05
5e-05
5e-05
5e-05
5e-05
5e-05
5e-05
5e-05
5e-05
5e-05
5e-05
5e-05
5e-05
5e-05
5e-05
5e-05
5e-05
5e-05
5e-05
5e-05
5e-05
5e-05
5e-05
5e-05
5e-05
5e-05
5e-05
5e-05
5e-05
5e-05
5e-05
5e-05
5e-05
5e-05
5e-05
5e-05
5e-05
5e-05
5e-05
5e-05
5e-05
5e-05
5e-05
5e-05
5e-05
5e-05
5e-05
5e-05
5e-05
5e-05
5e-05
5e-05
5e-05
5e-05
5e-05
5e-05
5e-05
5e-05
5e-05
5e-05
5e-05
5e-05

SCALARS mass float 1
LOOKUP_TABLE default
1.46608e-10
1.46608e-10
1.46608e-10
1.46608e-10
1.46608e-10
1.46608e-10
1.46608e-10
1.46608e-10
1.46608e-10
1.46608e-10
1.46608e-10
1.46608e-10
1.46608e-10
1.46608e-10
1.46608e-10
1.46608e-10
1.46608e-10
1.46608e-10
1.46608e-10
1.46608e-10
1.46608e-10
1.46608e-10
1.46608e-10
1.46608e-10
1.46608e-10
1.46608e-10
1.46608e-10
1.46608e-10
1.46608e-10
1.46608e-10
1.46608e-10
1.46608e-10
1.46608e-10
1.46608e-10
1.46608e-10
1.46608e-10
1.46608e-10
1.46608e-10
1.46608e-10
1.46608e-10
1.46608e-10
1.46608e-10
1.46608e-10
1.46608e-10
1.46608e-10
1.46608e-10
1.46608e-10
1.46608e-10
1.46608e-10
1.46608e-10
1.46608e-10
1.46608e-10
1.46608e-10
1.46608e-10
1.46608e-10
1.46608e-10
1.46608e-10
1.46608e-10
1.46608e-10
1.46608e-10
1.46608e-10
1.46608e-10
1.46608e-10
1.46608e-10
1.46608e-10
1.46608e-10
1.46608e-10
1.46608e-10
1.46608e-10
1.46608e-10
1.46608e-10
1.46608e-10
1.46608e-10
1.46608e-10
1.46608e-10
1.46608e-10
1.46608e-10
1.46608e-10
1.46608e-10
1.46608e-10
1.46608e-10
1.46608e-10
1.46608e-10
1.46608e-10
1.46608e-10
1.46608e-10
1.46608e-10
1.46608e-10
1.46608e-10
1.46608e-10
1.46608e-10
1.46608e-10
1.46608e-10
1.46608e-10
1.46608e-10
1.46608e-10
1.46608e-10
1.46608e-10
1.46608e-10
1.46608e-10
1.46608e-10
1.46608e-10
1.46608e-10
1.46608e-10
1.46608e-10
1.46608e-10
1.46608e-10
1.46608e-10
1.46608e-10
1.46608e-10
1.46608e-10
1.46608e-10
1.46608e-10
1.46608e-10
1.46608e-10
1.46608e-10
1.46608e-10
1.46608e-10
1.46608e-10
1.46608e-10
1.46608e-10
1.46608e-10
1.46608e-10
1.46608e-10
1.46608e-10
1.46608e-10
1.46608e-10
1.46608e-10
1.46608e-10
1.46608e-10
1.46608e-10
1.46608e-10
1.46608e-10
1.46608e-10
1.46608e-10
1.46608e-10
1.46608e-10
1.46608e-10
1.46608e-10
1.46608e-10
1.46608e-10
1.46608e-10
1.46608e-10
1.46608e-10
1.46608e-10
1.46608e-10
1.46608e-10
1.46608e-10
1.46608e-10
1.46608e-10
1.46608e-10
1.46608e-10
1.46608e-10
1.46608e-10
1.46608e-10
1.46608e-10
1.46608e-10
1.46608e-10
1.46608e-10
1.46608e-10
1.46608e-10
1.46608e-10
1.46608e-10
1.46608e-10
1.46608e-10
1.46608e-10
1.46608e-10
1.46608e-10
1.46608e-10
1.46608e-10
1.46608e-10
1.46608e-10
1.46608e-10
1.46608e-10
1.46608e-10
1.46608e-10
1.46608e-10
1.46608e-10
1.46608e-10
1.46608e-10
1.46608e-10
1.46608e-10
1.46608e-10
1.46608e-10
1.46608e-10
1.46608e-10
1.46608e-10
1.46608e-10
1.46608e-10
1.46608e-10
1.46608e-10
1.46608e-10
1.46608e-10
1.46608e-10
1.46608e-10
1.46608e-10
1.46608e-10
1.46608e-10
1.46608e-10
1.46608e-10
1.46608e-10
1.46608e-10
1.46608e-10
1.46608e-10
1.46608e-10
1.46608e-10
1.46608e-10
1.46608e-10
1.46608e-10
1.46608e-10
1.46608e-10
1.46608e-10
1.46608e-10
1.46608e-10
1.46608e-10
1.46608e-10
1.46608e-10
1.46608e-10
1.46608e-10
1.46608e-10
1.46608e-10
1.46608e-10
1.46608e-10
1.46608e-10
1.46608e-10
1.46608e-10
1.46608e-10
1.46608e-10
1.46608e-10
1.46608e-10
1.46608e-10
1.46608e-10
1.46608e-10
1.46608e-10
1.46608e-10
1.46608e-10
1.46608e-10
1.46608e-10
1.46608e-10
1.46608e-10
1.46608e-10
1.46608e-10
1.46608e-10
1.46608e-10
1.46608e-10
1.46608e-10
1.46608e-10
1.46608e-10
1.46608e-10
1.46608e-10
1.46608e-10
1.46608e-10
1.46608e-10
1.46608e-10
1.46608e-10
1.46608e-10
1.46608e-10
1.46608e-10
1.46608e-10
1.46608e-10
1.46608e-10
1.46608e-10
1.46608e-10
1.46608e-10
1.46608e-10
1.46608e-10
1.46608e-10
1.46608e-10
1.46608e-10
1.46608e-10
1.46608e-10
1.46608e-10
1.46608e-10
1.46608e-10
1.46608e-10

VECTORS velocity float
0.00568022 -0.00030257 0.00020098
0.00616149 -0.000439748 6.51571e-05
0.00619003 -0.000424807 5.41894e-05
0.00561857 0.000379115 0.000852207
0.00561281 -0.000110084 -0.000274451
0.00615086 -0.000402286 0.000229934
0.00563916 0.000132701 0.000748422
0.00614298 -8.20282e-05 -0.000654819
0.00623469 0.000376058 0.000975318
0.00558635 -0.000298163 0.000197826
0.00641943 5.85553e-05 -0.000172564
0.00563328 0.000329778 0.000921298
0.00547669 0.000523982 -0.000152182
0.0059081 0.00049677 -0.000159333
0.00625538 0.000399207 0.000967158
0.00563876 0.000285852 0.000982429
0.00558788 -0.00032999 0.000203091
0.00557781 0.000305622 0.000946681
0.0059496 0.000610501 -0.00017088
0.00568906 0.000224033 0.000203224
0.00599976 0.000363585 0.000939836
0.0061404 0.000137839 0.00024001
0.0062942 -2.05172e-05 -0.000746641
0.00615895 -0.000455377 6.91123e-05
0.00565572 0.000256873 0.00102644
0.00570333 0.00037415 0.000952862
0.00613937 -0.000407335 0.000230227
0.00576615 0.000356129 0.000880309
0.00563841 -0.000117557 -0.000268113
0.00629086 0.000428903 0.000962364
0.00622797 -0.000371726 0.000232333
0.00613431 -8.13028e-05 -0.000653861
0.00618677 -0.000429908 6.0508e-05
0.00618452 -0.000450744 6.65149e-05
0.0061557 0.000136264 0.000240519
0.00582168 0.000443919 0.000810881
0.0061374 -0.000469586 8.24273e-05
0.0061986 -0.000469238 7.78497e-05
0.00565499 -0.000125657 -0.000264851
0.00614861 0.000442194 0.000904732
0.00562797 -0.000289721 0.000198487
0.00613941 -8.14858e-05 -0.000654128
0.0056183 0.000363375 0.000872695
0.00558392 -0.000298154 0.000198776
0.00625507 0.000420059 -0.000117171
0.00557591 2.58657e-05 -9.96014e-05
0.00561726 -0.000369337 0.00021031
0.00624371 0.000394353 -9.70374e-05
0.00559385 -0.000366822 0.000209389
0.00565351 -0.000147663 -0.000281246
-5.01971e-15 -7.41203e-15 7.69802e-14
0.00617944 -0.000454606 9.10736e-05
0.00563568 0.000423147 0.000794893
0.00622262 -0.000459785 7.00505e-05
0.00568221 -0.000301974 0.00020065
0.00569558 0.000221301 0.000202305
0.00624766 0.000424546 -0.000117461
0.00588428 0.000543948 -0.000160689
0.00559775 -0.000333056 0.000204498
0.00620546 -0.000445191 7.12363e-05
0.00559052 -0.000344763 0.000205922
0.00614537 -8.08213e-05 -0.000655358
0.00586694 0.000454474 -0.000151431
0.00565272 -0.00032622 0.000204543
0.00617355 0.000369701 0.000982925
0.00562504 0.000375285 0.000905887
0.0065675 9.65693e-05 -0.000294903
0.00617253 -0.000446793 6.95047e-05
0.00595457 -7.09167e-05 -0.00076
0.00564634 0.000630111 -0.000173813
0.0061647 -0.000446046 7.20219e-05
0.00583121 0.000500189 -0.000218695
0.00663449 0.000195251 1.79435e-05
0.00613647 -8.32592e-05 -0.000652817
0.0058106 0.000818601 -0.00020474
0.00615791 -0.000462685 7.76175e-05
0.00615005 -0.000456752 8.38813e-05
0.00619045 -0.000397987 0.00022945
0.00558903 -0.0003514 0.000196178
0.00562086 -0.000330424 0.000204825
0.00625321 -0.000209509 -0.000477142
0.00618481 -0.000404088 0.000233534
0.00568611 0.000284074 0.000994953
0.00559029 -0.000280217 0.000206326
0.00620262 -0.000386404 0.000234041
0.0062106 -0.000409358 0.000232943
0.00646176 -0.000214686 -0.000686442
0.0057935 0.000262875 0.000978198
0.00583274 0.000486336 -0.000155183
0.00557472 -0.000306466 0.000199701
0.00583968 0.000481988 -0.000156607
4.07364e-15 1.05573e-14 8.29624e-14
-1.01195e-22 4.86658e-23 -5.81428e-22
0.00589325 0.00051946 -0.000161583
0.00632333 -0.000193986 -0.00068773
0.00575629 0.000492074 -0.000286294
0.00590518 -4.62081e-05 -0.000775309
0.00560779 -0.000349089 0.000207498
0.00559143 -0.000340339 0.00020539
0.00615169 -0.000437894 6.25085e-05
0.00608702 -0.00039448 4.05841e-05
0.00635615 -0.00021145 -0.000674935
0.00566002 0.000494834 -0.000149658
0.00574634 0.000331153 -0.000131274
0.00613319 -0.000457533 7.49562e-05
0.00561232 -0.000311597 0.000202632
0.00618624 -0.000404918 0.000230758
0.0062192 0.000411834 -9.99887e-05
0.00563299 -0.000352563 0.000208556
0.00553462 0.000304637 0.000946336
0.00571199 -0.000298065 0.000202147
0.00621158 -0.000421124 0.000186024
0.00589751 0.000468498 -0.000153808
0.00559095 0.000320872 0.00101879
0.00622332 -0.000379486 0.000230849
0.00646989 -0.000207408 -0.000695479
0.00580127 0.000316576 0.000973119
0.00599173 -0.000418666 0.000351979
0.00550472 0.000542623 -0.000162756
0.00587183 0.000486456 -0.000155431
0.00615528 -0.000452479 7.24178e-05
0.00563339 -0.000313318 0.000202542
0.00558796 -0.000308385 0.000198727
0.00558656 -0.000344745 0.000206144
0.00654496 0.000329535 -5.06079e-05
0.0061925 -0.000399485 0.000229026
0.00558759 -0.000281018 0.000196312
0.00619838 -0.000458643 7.35965e-05
0.00577838 8.86983e-05 -0.000894578
0.00606619 0.000551243 -0.000165496
0.00603209 -6.36844e-05 -0.000777747
0.00623412 0.000444363 -0.000148305
0.0058576 -8.50895e-05 -0.00068307
0.00528292 0.000573842 -0.000159735
0.00609775 4.60813e-06 -0.000856183
0.00560268 -0.000184815 -6.58083e-05
0.00571568 0.000546778 -0.000162936
0.00588588 0.000488227 -0.000157664
0.00603999 -8.00373e-05 -0.000763536
0.00613159 -0.000151033 -0.000693125
0.00567126 -4.90661e-05 -0.000711166
0.00590525 -4.53242e-06 -0.0008184
-3.82692e-14 8.16976e-14 2.95888e-13
0.00624474 -0.000105044 -0.000749319
0.00614915 -0.000457538 7.64746e-05
0.0058637 0.000469402 -0.000151043
0.00591516 0.000489608 -0.000156903
0.00571116 -6.11918e-05 -0.000737649
0.00592556 0.000535879 -0.00016367
0.00560624 -0.00028538 0.000197175
0.00564136 0.000543369 -0.000166996
0.005685 0.000521872 -0.00015591
0.00571128 0.000550436 -0.000161278
0.00562703 0.000536708 -0.000161486
0.00569627 -0.000310909 0.000203538
0.00642872 0.000360578 -0.000147157
0.00565141 -0.000330901 0.000205818
0.00585926 -6.10451e-05 -0.000759047
0.00644017 0.000346627 -7.16205e-05
0.00561356 6.01911e-05 -0.000848134
0.0055665 0.000582873 3.26294e-05
0.00589259 0.000488439 -0.000154537
0.00573853 -0.000291763 0.000201749
0.00581777 0.000467676 -0.000146692
0.00562416 -0.000307757 0.000196572
0.006202 0.000485459 -0.000158218
0.00578572 0.000810623 -0.000203533
0.0056654 -0.000312495 0.000203233
0.00619944 -0.00044193 6.43885e-05
0.00569314 -0.000300409 0.000201812
0.00593149 -0.000500489 -2.17616e-05
0.0060463 -0.000383623 3.56454e-05
0.00520843 0.000488755 -0.000146688
0.00572447 -0.000297892 0.000202893
0.00586547 0.000503097 -0.000172324
0.0058961 0.00049382 -0.000157513
0.00586272 0.000529932 -0.00016359
0.0060245 0.000255146 0.000992911
0.00656989 0.000305826 -3.66713e-05
0.00582882 0.000432024 -0.000148502
0.00644868 -0.000222505 -0.000677754
0.00589196 0.000505363 -0.000158042
0.00635821 -0.000184908 -0.000686511
0.00557627 -0.000302359 0.000198036
0.00594787 0.000628604 -0.000178918
0.00603072 -7.52094e-05 -0.000765797
0.00614402 -3.35566e-05 -0.000753587
0.00561411 4.45508e-05 -0.00082811
0.00635274 0.000503508 -0.000162546
0.00622773 0.000394067 -0.000100613
0.00607052 -0.000284862 0.000372419
0.00610912 -0.000452954 0.000109867
0.0059075 0.000498688 -0.000159366
0.00567467 -0.000293692 0.000200854
0.00618613 -0.000431276 8.61071e-05
0.00611409 -0.000489166 0.000440376
0.00553819 7.63589e-05 -0.000847237
0.00551132 -0.0002359 0.000187875
0.00576818 0.000321503 -0.000131005
0.00552465 0.000317451 0.000990709
0.00584439 0.000499626 -0.000157895
0.00618347 -0.000408226 0.000230477
0.00618242 -0.000222246 -0.00062997
0.00612465 -0.000419639 4.62812e-05
0.00569072 0.000485467 -0.000304143
0.00607325 -0.000493355 0.000437461
0.00621213 -0.000545967 0.00030329
0.00588101 0.00088393 -0.000216279
0.00618937 3.88433e-05 -0.00052915
0.00586704 0.000481355 -0.000162005
0.00588905 0.000454682 -0.000153524
0.00556394 -0.000311147 0.000201749
0.0060615 -0.000106687 -0.00074752
0.00638552 0.000408954 -4.76513e-05
0.0064252 0.000383315 -9.96395e-05
0.00565602 0.000206436 0.000919934
0.00586735 0.000228147 0.000962139
0.00561297 0.000225313 0.000912225
0.00602154 -0.000267854 -0.000570515
0.00593841 0.000529014 -0.000165873
0.00569981 0.000216002 0.000923241
0.00610004 -0.000615352 4.46926e-05
0.0058891 -6.04191e-05 -0.000765059
0.00595426 0.000416315 -0.000164913
0.00597219 -0.000561199 0.000104502
0.00585227 -3.76627e-05 -0.000778311
0.00616248 -0.000400223 0.000230954
0.00611893 -0.000620045 4.6322e-05
0.00596886 -0.000504225 -1.96555e-05
0.00601554 -0.00060964 4.08233e-05
0.00598764 -9.12489e-05 -0.000744876
0.00578889 0.000674369 -0.000182919
0.00612071 -8.86319e-05 -0.000760108
0.00624041 0.000370043 -0.000152837
0.00614777 -0.000630414 4.54433e-05
0.00582587 0.000502718 -0.000155787
0.0064326 0.000325662 -4.53583e-05
0.00644487 0.000390577 -8.69609e-05
0.00600188 -0.000114256 0.000584146
0.00560497 -4.78044e-05 -0.000729689
0.00589674 -0.000494532 -2.17739e-05
0.00584184 0.000511192 -0.000160106
0.00596948 -6.62383e-05 -0.000767537
0.00617184 0.00043054 -0.000120069
0.00605936 0.00049729 -0.000158164
0.00621447 -0.000446407 0.000106916
0.00588395 0.000486104 -0.000144312
0.00616726 -0.000491855 0.000436843
0.00605939 -6.91904e-05 -0.00076462
0.00617714 -0.000597013 0.000130389
0.00578445 -5.96864e-05 -0.000748606
0.00571399 6.10552e-06 -0.000803012
0.00594795 -7.22343e-05 -0.000759884
0.00622865 0.000440739 -0.000125578
0.00605652 -0.000463546 0.00043737
0.00602536 -0.000493886 0.000435028
0.00588991 0.000486792 -0.000157624
0.00582375 0.00024579 0.000945953
0.00626916 0.000203094 -0.000324112
0.00634398 0.000338624 -4.3766e-05
0.00566186 -5.96466e-05 -0.000733664
0.00609582 -7.4685e-05 -0.000683611
0.00583487 0.000510649 -0.000158912
0.00550871 8.90003e-05 -0.000852756
0.0066443 0.000247001 -6.525e-05
0.0061707 0.000463221 -0.000149993
0.00588149 0.000479324 -0.000157194
0.00637098 0.000341046 -4.04395e-05
0.00632751 0.000353681 -0.000112281
0.00597652 -0.000492888 0.000429382
0.00603509 -9.089e-05 -0.000756989
0.00564838 -0.000293161 0.000199821
0.0059174 0.000226904 0.000972755
0.00605369 -0.000607939 4.0728e-05
0.00617115 -0.000399776 0.000232937

VECTORS force float
3.3005e-11 -7.93729e-11 1.5158e-11
-5.70159e-11 -4.97458e-11 -1.46779e-11
-8.30029e-11 1.77388e-10 -1.0541e-10
-3.05431e-10 -2.04379e-10 7.71337e-11
2.09442e-11 6.21778e-11 -7.13052e-11
-2.47371e-11 5.31445e-11 7.65253e-12
3.27827e-10 9.89344e-11 -9.89947e-12
-3.98322e-12 -1.80714e-12 -5.47195e-12
2.93084e-10 -9.06123e-11 3.44847e-10
1.54504e-11 8.65655e-11 4.16401e-11
1.43026e-10 -1.2793e-10 -9.99936e-10
-1.83981e-12 9.1602e-12 -5.65957e-11
-1.68399e-10 8.01826e-11 -1.3002e-10
3.37993e-11 -1.1851e-10 9.50351e-12
1.80408e-10 -2.61674e-11 3.06957e-10
1.37361e-10 1.72003e-10 -1.62971e-10
-3.61028e-12 5.94525e-11 -3.14529e-11
4.19941e-10 -1.02443e-10 -1.08649e-10
6.10121e-10 -7.55357e-11 -1.28419e-11
7.5049e-11 -2.18888e-11 7.5837e-12
4.40646e-10 -1.77865e-10 3.0794e-10
3.33019e-11 -3.04248e-11 6.99819e-12
-1.38407e-10 1.46156e-10 -3.10409e-10
-1.57403e-10 -3.85969e-11 3.88976e-11
4.68918e-11 1.50778e-10 -2.00647e-10
-3.5844e-10 -9.01261e-11 3.54706e-10
-4.84629e-11 6.62798e-11 -1.62355e-11
-1.49748e-10 -3.16893e-10 2.45761e-10
6.50921e-12 4.78003e-11 -5.34963e-11
-3.06052e-10 1.85563e-10 4.00786e-11
1.42815e-10 -1.8863e-10 2.77779e-11
-5.25784e-12 4.67646e-11 -2.0173e-12
3.89856e-11 -1.35202e-10 6.64748e-11
-4.44007e-11 -1.01884e-10 7.45147e-11
-2.90306e-11 -3.74341e-11 1.66642e-11
-1.17956e-10 1.74896e-10 -2.15703e-10
1.28005e-10 4.04916e-12 -7.69247e-12
-6.15601e-11 -8.05768e-11 7.22945e-11
-6.22413e-12 5.03219e-11 -1.18133e-11
-2.0208e-10 3.17806e-10 -3.34782e-10
1.14152e-11 -9.4179e-12 -3.65791e-13
-7.65751e-12 -3.19651e-11 3.36987e-12
-1.66469e-10 -3.75558e-10 3.35344e-10
1.03335e-10 2.06608e-11 8.15057e-12
-4.77624e-10 2.85572e-10 -1.35494e-10
1.12023e-11 -7.28279e-12 -3.43022e-11
-3.91995e-11 4.73035e-11 -8.52262e-12
-6.83458e-10 3.61881e-10 -1.60453e-10
4.08189e-11 -9.5651e-11 1.21902e-11
-4.66713e-14 -2.14627e-11 -6.69377e-11
-1.38294e-24 1.47342e-24 0.0
-4.20748e-11 1.02926e-10 2.87536e-10
-3.48018e-10 -1.05845e-10 7.56546e-12
-1.66972e-10 -1.30909e-10 -3.97958e-11
4.20419e-11 -7.05785e-11 4.33568e-11
-1.24564e-11 8.59617e-12 2.72846e-12
-2.22914e-10 -2.16364e-10 1.30159e-10
3.30684e-10 -1.49587e-10 -1.8081e-10
2.84755e-11 3.62955e-11 -1.24129e-11
-8.54821e-11 -1.85906e-10 9.28841e-11
2.90878e-11 2.62569e-11 -4.15726e-12
-1.0976e-11 -2.51905e-11 -3.39705e-12
-4.61672e-10 -1.03849e-10 2.67105e-11
-6.78443e-11 -8.78838e-12 3.21047e-12
1.96973e-10 -4.00336e-11 2.11142e-10
-1.21124e-10 -3.29944e-10 3.42254e-10
2.69812e-10 -2.25431e-10 -4.87602e-10
9.82683e-11 -9.79741e-11 8.00735e-11
-1.18657e-11 9.51179e-11 -5.41031e-11
1.10969e-09 1.05397e-09 -9.68919e-11
-3.50271e-11 -1.48453e-10 1.0914e-10
3.00705e-10 3.33857e-12 -4.05675e-11
1.65257e-10 3.62302e-10 -2.09921e-10
2.33521e-11 -3.70396e-11 -1.77419e-13
-4.55589e-11 -5.72535e-11 7.72417e-12
-4.28756e-12 -4.76549e-11 1.14506e-11
-1.02642e-10 -9.55315e-12 -1.52812e-11
-9.08483e-11 -3.92339e-12 3.25342e-12
1.06713e-10 5.13287e-11 6.3713e-12
4.3619e-11 9.64631e-12 -5.47485e-12
-5.1103e-11 -9.8693e-11 -1.34841e-09
-4.68302e-11 -7.14863e-11 6.26456e-12
8.73201e-10 5.8704e-11 2.57259e-10
-7.98496e-11 2.21364e-10 -4.32828e-12
2.23167e-10 2.19053e-10 -4.47406e-11
-3.74493e-11 -1.68905e-10 3.52947e-11
6.08171e-11 -3.60772e-10 3.4531e-10
5.30601e-10 9.14408e-11 2.25761e-10
6.95982e-11 2.39837e-11 -1.36334e-11
1.28862e-11 -4.42503e-11 -1.06762e-11
7.03532e-11 8.33613e-11 9.95744e-12
8.1476e-22 -9.57979e-23 -1.98523e-23
0.0 0.0 0.0
-7.11764e-11 -1.23709e-11 6.26849e-12
-1.12163e-10 -1.59986e-10 1.82126e-10
6.55082e-11 -1.78362e-12 -2.79337e-10
4.21679e-11 -1.73557e-11 -2.40528e-11