# vtk DataFile Version 3.0
LIGGGHTS particles timestep 25800000
ASCII
DATASET POLYDATA
POINTS 275 float
0.163885 0.0174464 0.00730606
0.163512 0.0177715 0.00723395
0.163444 0.017041 0.00740876
0.162935 0.015649 0.00874419
0.169043 0.0158714 0.0081883
0.163161 0.0163043 0.0078901
0.163378 0.0166689 0.00749824
0.16923 0.0166626 0.0078739
0.163059 0.0160065 0.00827831
0.163591 0.0181528 0.0071421
0.157069 0.0159558 0.00812061
0.162915 0.0155895 0.00882184
0.157479 0.0172258 0.00741203
0.157934 0.0172534 0.00735206
0.163038 0.0159469 0.00835597
0.162894 0.0155299 0.00889949
0.163675 0.0172913 0.00734594
0.163345 0.0165807 0.00753186
0.157668 0.0172489 0.00734384
0.169168 0.0163777 0.00794472
0.1631 0.0161256 0.00812304
0.169278 0.0164347 0.00794418
0.157527 0.0171404 0.00739218
0.163518 0.0169758 0.00742322
0.162874 0.0154703 0.00897714
0.163328 0.0169152 0.00744035
0.163121 0.0161851 0.00804554
0.16324 0.0165335 0.0075913
0.169065 0.0159331 0.00811245
0.163018 0.0158873 0.00843361
0.163497 0.0168807 0.00744615
0.169293 0.0169252 0.00776178
0.163403 0.0168502 0.00745475
0.163539 0.017071 0.00740028
0.169189 0.0164727 0.00792111
0.162977 0.0157681 0.008589
0.163202 0.0164233 0.00773503
0.163559 0.0171661 0.00737735
0.169085 0.015998 0.00803913
0.162997 0.0158277 0.00851125
0.16361 0.0182482 0.00711913
0.169329 0.016649 0.00787777
0.16328 0.0166968 0.00749298
0.163261 0.0166268 0.00756179
0.15705 0.0159058 0.00820507
0.169126 0.0161879 0.00799193
0.16377 0.0173212 0.00733747
0.157572 0.0170314 0.00751687
0.163227 0.0165074 0.00768709
0.169106 0.0160929 0.00801553
0.378022 0.019866 0.005332
0.163634 0.017101 0.00739181
0.162956 0.0157086 0.00866659
0.16358 0.0172613 0.00735441
0.163705 0.0182794 0.00711036
0.169147 0.0162828 0.00796832
0.157529 0.0174851 0.00733078
0.15757 0.0178097 0.00715198
0.163662 0.0176419 0.00726269
0.1636 0.0173564 0.00733148
0.163695 0.0173864 0.00732301
0.169209 0.0165676 0.00789751
0.157744 0.017191 0.00737561
0.163777 0.0177685 0.00723092
0.163079 0.016066 0.00820067
0.163356 0.016764 0.0074759
0.157456 0.0169828 0.00756483
0.163567 0.0176119 0.00727116
0.156911 0.0155564 0.0087956
0.157608 0.0176977 0.00720556
0.163447 0.0172089 0.0074527
0.157132 0.0161532 0.00790747
0.157419 0.0165219 0.00769542
0.16926 0.0167893 0.00782094
0.157953 0.0173478 0.00730586
0.163423 0.0169457 0.00743173
0.163187 0.0163632 0.0078135
0.16357 0.0178528 0.00730279
0.163541 0.017748 0.0073268
0.163611 0.0181185 0.00723392
0.15709 0.0160086 0.00803842
0.163682 0.0177376 0.00723963
0.163369 0.0171056 0.00739446
0.163666 0.0180886 0.00715632
0.163578 0.0179589 0.00728454
0.163702 0.0178333 0.00721655
0.15701 0.0158061 0.00837373
0.163348 0.0170104 0.00741739
0.15761 0.018003 0.00708871
0.163621 0.0174516 0.00730855
0.157704 0.0179206 0.00711123
0.0643568 0.0187248 0.00531097
0.24257 0.0191927 0.00520306
0.1578 0.0174605 0.00724379
0.156971 0.0157062 0.00854247
0.157707 0.0174251 0.00725776
0.156931 0.0156063 0.00871124
0.163716 0.0174816 0.00730008
0.163276 0.0166937 0.0076346
0.163492 0.0176764 0.00725688
0.163451 0.0174861 0.00730274
0.15703 0.015856 0.00828936
0.157675 0.0176641 0.00713765
0.157661 0.0180077 0.0070028
0.163311 0.016846 0.00751052
0.16379 0.0174164 0.00731454
0.163729 0.0171309 0.00738333
0.157589 0.0168493 0.00753939
0.163737 0.0175767 0.00727715
0.163141 0.0162447 0.00796773
0.163906 0.017542 0.00728301
0.163608 0.0178024 0.00722526
0.157839 0.0172222 0.00736386
0.163364 0.017078 0.00749044
0.163654 0.0171961 0.00736888
0.15699 0.0157561 0.00845811
0.163298 0.0167664 0.00756969
0.163676 0.0179396 0.00728172
0.157783 0.0173676 0.00728933
0.157581 0.0179017 0.00711198
0.163464 0.0171362 0.00738583
0.163741 0.0180243 0.00717056
0.163757 0.0176724 0.00725408
0.163613 0.0170058 0.00741475
0.157575 0.0167604 0.00758298
0.163571 0.0180575 0.00716507
0.163926 0.0176382 0.00725984
0.163532 0.0178668 0.007211
0.157347 0.0163468 0.00777963
0.157389 0.0164359 0.00773701
0.156951 0.0156563 0.00862685
0.157575 0.0172258 0.00737208
0.157195 0.0163998 0.00776457
0.157649 0.0171606 0.00738699
0.15729 0.01642 0.00774103
0.16341 0.0172958 0.0073486
0.157919 0.0175797 0.00718923
0.157811 0.0178796 0.0070359
0.157347 0.0165991 0.00765422
0.157179 0.0163055 0.00779364
0.157297 0.0168073 0.00754876
0.157164 0.0162168 0.00783707
0.0219312 0.0187687 0.00551176
0.157468 0.0166962 0.00761072
0.163485 0.0172313 0.00736289
0.157755 0.0180395 0.0069901
0.157632 0.0183493 0.00699262
0.15736 0.017071 0.00742011
0.15777 0.0176995 0.00713125
0.16363 0.0183436 0.00709616
0.157858 0.0173105 0.00732068
0.157825 0.0175476 0.00720147
0.157787 0.0177848 0.00708211
0.157842 0.017636 0.00715821
0.163852 0.0177034 0.00724536
0.157554 0.017957 0.00701841
0.163722 0.0179289 0.00719353
0.157505 0.0169621 0.00748002
0.157688 0.0173369 0.00730086
0.157276 0.0167232 0.00759846
0.157617 0.017809 0.00706334
0.157962 0.0177658 0.00709842
0.163865 0.0173512 0.00732899
0.157723 0.017517 0.00721268
0.163797 0.0178645 0.00720781
0.157651 0.0170186 0.00745766
0.15755 0.0169524 0.00757947
0.163686 0.018184 0.00713334
0.163546 0.0175168 0.00729409
0.163761 0.0181197 0.0071476
0.151635 0.0179422 0.00714572
0.16343 0.017391 0.00732567
0.157593 0.0181533 0.00700525
0.163811 0.0175115 0.0072916
0.157237 0.0165773 0.00771582
0.157711 0.0178409 0.00705119
0.157875 0.0174032 0.00727526
0.151422 0.017351 0.00731675
0.157446 0.0166084 0.0076535
0.157612 0.0182512 0.00699894
0.157114 0.0160758 0.00796817
0.157693 0.0177524 0.00709448
0.157479 0.0167853 0.00756685
0.163641 0.0175467 0.00728562
0.157763 0.0172791 0.00733256
0.157414 0.0169243 0.00749518
0.157516 0.0170512 0.00743612
0.157311 0.0165124 0.0076959
0.157494 0.0168787 0.00753422
0.1576 0.017104 0.00745281
0.163371 0.0169801 0.0075099
0.163526 0.0174216 0.00731702
0.157748 0.0176041 0.00717037
0.16378 0.018215 0.00712462
0.163505 0.0173265 0.00733996
0.151597 0.0177512 0.00717776
0.157368 0.0166869 0.0076114
0.163831 0.0176072 0.00726855
0.15768 0.0181057 0.00699652
0.163389 0.0172007 0.00737153
0.157652 0.0184471 0.0069863
0.163246 0.0166027 0.00766331
0.157602 0.0169386 0.0074955
0.163471 0.0175812 0.00727981
0.157573 0.0180549 0.00701157
0.15156 0.0180058 0.00713178
0.151577 0.0176585 0.00720951
0.15764 0.0175896 0.00727827
0.157525 0.0174561 0.00723515
0.157719 0.0183014 0.00698392
0.1579 0.0174903 0.00723295
0.163588 0.0177071 0.00724823
0.157439 0.017427 0.0072789
0.157501 0.0177081 0.00715694
0.157515 0.0177693 0.00707908
0.151316 0.0168721 0.00748076
0.151377 0.0171499 0.00738562
0.151295 0.0167796 0.00751247
0.157217 0.0164797 0.00770848
0.157695 0.0175121 0.00730868
0.151336 0.0169647 0.00744905
0.151537 0.0174728 0.00727306
0.157429 0.017032 0.0074818
0.157644 0.0175786 0.00717895
0.151442 0.0174436 0.00728504
0.157393 0.0168362 0.00753817
0.163627 0.0178978 0.00720227
0.151482 0.017629 0.00722156
0.151657 0.0180423 0.00715246
0.151517 0.0173801 0.00730483
0.156892 0.0155065 0.00887997
0.157591 0.0173048 0.00731299
0.15735 0.0169713 0.00756278
0.15756 0.0176276 0.00715129
0.151502 0.0177218 0.00718981
0.157735 0.0179419 0.00701852
0.157557 0.0175494 0.0072205
0.157534 0.0178576 0.00703592
0.151489 0.0172805 0.00733907
0.157319 0.0168951 0.00750597
0.151728 0.0179739 0.00716544
0.157881 0.0178172 0.0070697
0.157348 0.0170652 0.00752861
0.157466 0.0173834 0.00736488
0.157525 0.0176056 0.00729668
0.163552 0.0179621 0.00718804
0.157864 0.0177284 0.00711316
0.15154 0.0179079 0.00712613
0.157378 0.0171605 0.00747711
0.151521 0.017815 0.00715791
0.15738 0.0171591 0.00737713
0.157316 0.0168874 0.00760564
0.157401 0.0172547 0.00735649
0.15763 0.0174813 0.00722678
0.151557 0.0175657 0.00724126
0.151616 0.0178441 0.0071461
0.1577 0.0182035 0.00699022
0.151357 0.0170573 0.00741733
0.15748 0.017611 0.00720781
0.157517 0.0173634 0.00728094
0.15734 0.016983 0.00746308
0.157494 0.0172727 0.00732515
0.157641 0.0179098 0.00703205
0.157254 0.0166323 0.00763408
0.157563 0.0166713 0.00762686
0.157595 0.017717 0.00710824
0.15794 0.0176719 0.00714427
0.157611 0.0173931 0.00726988
0.157461 0.0175287 0.00726168
0.151579 0.0181037 0.00713811
0.157419 0.0173302 0.00729358
0.163872 0.0177996 0.00722218
0.151398 0.0172425 0.00735391
0.151463 0.0175363 0.00725331
0.163647 0.0179933 0.00717929

VERTICES 275 550
1 0
1 1
1 2
1 3
1 4
1 5
1 6
1 7
1 8
1 9
1 10
1 11
1 12
1 13
1 14
1 15
1 16
1 17
1 18
1 19
1 20
1 21
1 22
1 23
1 24
1 25
1 26
1 27
1 28
1 29
1 30
1 31
1 32
1 33
1 34
1 35
1 36
1 37
1 38
1 39
1 40
1 41
1 42
1 43
1 44
1 45
1 46
1 47
1 48
1 49
1 50
1 51
1 52
1 53
1 54
1 55
1 56
1 57
1 58
1 59
1 60
1 61
1 62
1 63
1 64
1 65
1 66
1 67
1 68
1 69
1 70
1 71
1 72
1 73
1 74
1 75
1 76
1 77
1 78
1 79
1 80
1 81
1 82
1 83
1 84
1 85
1 86
1 87
1 88
1 89
1 90
1 91
1 92
1 93
1 94
1 95
1 96
1 97
1 98
1 99
1 100
1 101
1 102
1 103
1 104
1 105
1 106
1 107
1 108
1 109
1 110
1 111
1 112
1 113
1 114
1 115
1 116
1 117
1 118
1 119
1 120
1 121
1 122
1 123
1 124
1 125
1 126
1 127
1 128
1 129
1 130
1 131
1 132
1 133
1 134
1 135
1 136
1 137
1 138
1 139
1 140
1 141
1 142
1 143
1 144
1 145
1 146
1 147
1 148
1 149
1 150
1 151
1 152
1 153
1 154
1 155
1 156
1 157
1 158
1 159
1 160
1 161
1 162
1 163
1 164
1 165
1 166
1 167
1 168
1 169
1 170
1 171
1 172
1 173
1 174
1 175
1 176
1 177
1 178
1 179
1 180
1 181
1 182
1 183
1 184
1 185
1 186
1 187
1 188
1 189
1 190
1 191
1 192
1 193
1 194
1 195
1 196
1 197
1 198
1 199
1 200
1 201
1 202
1 203
1 204
1 205
1 206
1 207
1 208
1 209
1 210
1 211
1 212
1 213
1 214
1 215
1 216
1 217
1 218
1 219
1 220
1 221
1 222
1 223
1 224
1 225
1 226
1 227
1 228
1 229
1 230
1 231
1 232
1 233
1 234
1 235
1 236
1 237
1 238
1 239
1 240
1 241
1 242
1 243
1 244
1 245
1 246
1 247
1 248
1 249
1 250
1 251
1 252
1 253
1 254
1 255
1 256
1 257
1 258
1 259
1 260
1 261
1 262
1 263
1 264
1 265
1 266
1 267
1 268
1 269
1 270
1 271
1 272
1 273
1 274

POINT_DATA 275
SCALARS id int 1
LOOKUP_TABLE default
1
2
4
5
6
7
8
9
10
11
12
13
14
16
17
19
21
22
23
24
25
26
27
28
29
30
31
32
33
34
35
36
37
38
39
41
42
44
45
47
48
49
50
51
52
53
54
55
56
57
59
60
61
62
63
64
65
66
67
68
69
70
71
72
73
74
76
77
78
79
80
82
83
84
85
86
87
88
89
90
91
92
93
94
95
96
97
98
99
100
101
102
103
104
105
106
107
108
109
110
111
112
113
114
115
116
117
118
119
120
121
122
123
124
125
127
128
129
130
131
132
133
134
135
136
137
138
140
141
142
143
144
146
147
148
149
150
151
153
154
155
156
157
158
159
160
162
164
165
166
167
168
169
170
171
172
173
174
176
177
178
179
182
183
184
185
186
187
188
189
190
191
192
193
194
195
196
197
198
199
200
201
202
203
204
205
206
207
208
209
210
211
212
213
214
215
216
217
218
219
220
222
224
225
226
227
228
229
230
232
233
234
235
236
237
239
240
241
242
243
244
246
247
248
249
250
251
252
253
254
255
256
257
258
259
260
261
262
263
264
265
266
267
268
269
270
271
272
273
274
275
276
277
278
279
280
281
283
284
285
286
287
288
289
290
291
292
293
294
295
296
297
298
299
300

SCALARS type int 1
LOOKUP_TABLE default
1
1
1
1
1
1
1
1
1
1
1
1
1
1
1
1
1
1
1
1
1
1
1
1
1
1
1
1
1
1
1
1
1
1
1
1
1
1
1
1
1
1
1
1
1
1
1
1
1
1
1
1
1
1
1
1
1
1
1
1
1
1
1
1
1
1
1
1
1
1
1
1
1
1
1
1
1
1
1
1
1
1
1
1
1
1
1
1
1
1
1
1
1
1
1
1
1
1
1
1
1
1
1
1
1
1
1
1
1
1
1
1
1
1
1
1
1
1
1
1
1
1
1
1
1
1
1
1
1
1
1
1
1
1
1
1
1
1
1
1
1
1
1
1
1
1
1
1
1
1
1
1
1
1
1
1
1
1
1
1
1
1
1
1
1
1
1
1
1
1
1
1
1
1
1
1
1
1
1
1
1
1
1
1
1
1
1
1
1
1
1
1
1
1
1
1
1
1
1
1
1
1
1
1
1
1
1
1
1
1
1
1
1
1
1
1
1
1
1
1
1
1
1
1
1
1
1
1
1
1
1
1
1
1
1
1
1
1
1
1
1
1
1
1
1
1
1
1
1
1
1
1
1
1
1
1
1
1
1
1
1
1
1
1
1
1
1
1
1
1
1
1
1
1
1

SCALARS radius float 1
LOOKUP_TABLE default
5e-05
5e-05
5e-05
5e-05
5e-05
5e-05
5e-05
5e-05
5e-05
5e-05
5e-05
5e-05
5e-05
5e-05
5e-05
5e-05
5e-05
5e-05
5e-05
5e-05
5e-05
5e-05
5e-05
5e-05
5e-05
5e-05
5e-05
5e-05
5e-05
5e-05
5e-05
5e-05
5e-05
5e-05
5e-05
5e-05
5e-05
5e-05
5e-05
5e-05
5e-05
5e-05
5e-05
5e-05
5e-05
5e-05
5e-05
5e-05
5e-05
5e-05
5e-05
5e-05
5e-05
5e-05
5e-05
5e-05
5e-05
5e-05
5e-05
5e-05
5e-05
5e-05
5e-05
5e-05
5e-05
5e-05
5e-05
5e-05
5e-05
5e-05
5e-05
5e-05
5e-05
5e-05
5e-05
5e-05
5e-05
5e-05
5e-05
5e-05
5e-05
5e-05
5e-05
5e-05
5e-05
5e-05
5e-05
5e-05
5e-05
5e-05
5e-05
5e-05
5e-05
5e-05
5e-05
5e-05
5e-05
5e-05
5e-05
5e-05
5e-05
5e-05
5e-05
5e-05
5e-05
5e-05
5e-05
5e-05
5e-05
5e-05
5e-05
5e-05
5e-05
5e-05
5e-05
5e-05
5e-05
5e-05
5e-05
5e-05
5e-05
5e-05
5e-05
5e-05
5e-05
5e-05
5e-05
5e-05
5e-05
5e-05
5e-05
5e-05
5e-05
5e-05
5e-05
5e-05
5e-05
5e-05
5e-05
5e-05
5e-05
5e-05
5e-05
5e-05
5e-05
5e-05
5e-05
5e-05
5e-05
5e-05
5e-05
5e-05
5e-05
5e-05
5e-05
5e-05
5e-05
5e-05
5e-05
5e-05
5e-05
5e-05
5e-05
5e-05
5e-05
5e-05
5e-05
5e-05
5e-05
5e-05
5e-05
5e-05
5e-05
5e-05
5e-05
5e-05
5e-05
5e-05
5e-05
5e-05
5e-05
5e-05
5e-05
5e-05
5e-05
5e-05
5e-05
5e-05
5e-05
5e-05
5e-05
5e-05
5e-05
5e-05
5e-05
5e-05
5e-05
5e-05
5e-05
5e-05
5e-05
5e-05
5e-05
5e-05
5e-05
5e-05
5e-05
5e-05
5e-05
5e-05
5e-05
5e-05
5e-05
5e-05
5e-05
5e-05
5e-05
5e-05
5e-05
5e-05
5e-05
5e-05
5e-05
5e-05
5e-05
5e-05
5e-05
5e-05
5e-05
5e-05
5e-05
5e-05
5e-05
5e-05
5e-05
5e-05
5e-05
5e-05
5e-05
5e-05
5e-05
5e-05
5e-05
5e-05
5e-05
5e-05
5e-05
5e-05
5e-05
5e-05
5e-05
5e-05
5e-05
5e-05
5e-05
5e-05
5e-05
5e-05
5e-05
5e-05
5e-05
5e-05
5e-05
5e-05
5e-05
5e-05
5e-05
5e-05
5e-05
5e-05
5e-05
5e-05
5e-05
5e-05
5e-05

SCALARS mass float 1
LOOKUP_TABLE default
1.46608e-10
1.46608e-10
1.46608e-10
1.46608e-10
1.46608e-10
1.46608e-10
1.46608e-10
1.46608e-10
1.46608e-10
1.46608e-10
1.46608e-10
1.46608e-10
1.46608e-10
1.46608e-10
1.46608e-10
1.46608e-10
1.46608e-10
1.46608e-10
1.46608e-10
1.46608e-10
1.46608e-10
1.46608e-10
1.46608e-10
1.46608e-10
1.46608e-10
1.46608e-10
1.46608e-10
1.46608e-10
1.46608e-10
1.46608e-10
1.46608e-10
1.46608e-10
1.46608e-10
1.46608e-10
1.46608e-10
1.46608e-10
1.46608e-10
1.46608e-10
1.46608e-10
1.46608e-10
1.46608e-10
1.46608e-10
1.46608e-10
1.46608e-10
1.46608e-10
1.46608e-10
1.46608e-10
1.46608e-10
1.46608e-10
1.46608e-10
1.46608e-10
1.46608e-10
1.46608e-10
1.46608e-10
1.46608e-10
1.46608e-10
1.46608e-10
1.46608e-10
1.46608e-10
1.46608e-10
1.46608e-10
1.46608e-10
1.46608e-10
1.46608e-10
1.46608e-10
1.46608e-10
1.46608e-10
1.46608e-10
1.46608e-10
1.46608e-10
1.46608e-10
1.46608e-10
1.46608e-10
1.46608e-10
1.46608e-10
1.46608e-10
1.46608e-10
1.46608e-10
1.46608e-10
1.46608e-10
1.46608e-10
1.46608e-10
1.46608e-10
1.46608e-10
1.46608e-10
1.46608e-10
1.46608e-10
1.46608e-10
1.46608e-10
1.46608e-10
1.46608e-10
1.46608e-10
1.46608e-10
1.46608e-10
1.46608e-10
1.46608e-10
1.46608e-10
1.46608e-10
1.46608e-10
1.46608e-10
1.46608e-10
1.46608e-10
1.46608e-10
1.46608e-10
1.46608e-10
1.46608e-10
1.46608e-10
1.46608e-10
1.46608e-10
1.46608e-10
1.46608e-10
1.46608e-10
1.46608e-10
1.46608e-10
1.46608e-10
1.46608e-10
1.46608e-10
1.46608e-10
1.46608e-10
1.46608e-10
1.46608e-10
1.46608e-10
1.46608e-10
1.46608e-10
1.46608e-10
1.46608e-10
1.46608e-10
1.46608e-10
1.46608e-10
1.46608e-10
1.46608e-10
1.46608e-10
1.46608e-10
1.46608e-10
1.46608e-10
1.46608e-10
1.46608e-10
1.46608e-10
1.46608e-10
1.46608e-10
1.46608e-10
1.46608e-10
1.46608e-10
1.46608e-10
1.46608e-10
1.46608e-10
1.46608e-10
1.46608e-10
1.46608e-10
1.46608e-10
1.46608e-10
1.46608e-10
1.46608e-10
1.46608e-10
1.46608e-10
1.46608e-10
1.46608e-10
1.46608e-10
1.46608e-10
1.46608e-10
1.46608e-10
1.46608e-10
1.46608e-10
1.46608e-10
1.46608e-10
1.46608e-10
1.46608e-10
1.46608e-10
1.46608e-10
1.46608e-10
1.46608e-10
1.46608e-10
1.46608e-10
1.46608e-10
1.46608e-10
1.46608e-10
1.46608e-10
1.46608e-10
1.46608e-10
1.46608e-10
1.46608e-10
1.46608e-10
1.46608e-10
1.46608e-10
1.46608e-10
1.46608e-10
1.46608e-10
1.46608e-10
1.46608e-10
1.46608e-10
1.46608e-10
1.46608e-10
1.46608e-10
1.46608e-10
1.46608e-10
1.46608e-10
1.46608e-10
1.46608e-10
1.46608e-10
1.46608e-10
1.46608e-10
1.46608e-10
1.46608e-10
1.46608e-10
1.46608e-10
1.46608e-10
1.46608e-10
1.46608e-10
1.46608e-10
1.46608e-10
1.46608e-10
1.46608e-10
1.46608e-10
1.46608e-10
1.46608e-10
1.46608e-10
1.46608e-10
1.46608e-10
1.46608e-10
1.46608e-10
1.46608e-10
1.46608e-10
1.46608e-10
1.46608e-10
1.46608e-10
1.46608e-10
1.46608e-10
1.46608e-10
1.46608e-10
1.46608e-10
1.46608e-10
1.46608e-10
1.46608e-10
1.46608e-10
1.46608e-10
1.46608e-10
1.46608e-10
1.46608e-10
1.46608e-10
1.46608e-10
1.46608e-10
1.46608e-10
1.46608e-10
1.46608e-10
1.46608e-10
1.46608e-10
1.46608e-10
1.46608e-10
1.46608e-10
1.46608e-10
1.46608e-10
1.46608e-10
1.46608e-10
1.46608e-10
1.46608e-10
1.46608e-10
1.46608e-10
1.46608e-10
1.46608e-10
1.46608e-10
1.46608e-10
1.46608e-10
1.46608e-10
1.46608e-10
1.46608e-10
1.46608e-10
1.46608e-10
1.46608e-10
1.46608e-10
1.46608e-10
1.46608e-10
1.46608e-10
1.46608e-10
1.46608e-10
1.46608e-10

VECTORS velocity float
0.00560569 -4.86724e-05 -6.77192e-05
0.0056707 -8.91438e-05 -5.91199e-05
0.00562597 -5.33894e-05 -6.55704e-05
0.00565904 3.90347e-05 7.63889e-05
0.0057425 -0.0013575 0.000901647
0.00615751 -8.9371e-06 0.000156143
0.00598096 -2.24255e-05 -6.04545e-05
0.00556524 -0.00108556 0.00107765
0.00589411 3.49961e-05 8.85907e-05
0.00539657 -1.67123e-05 -7.30755e-05
0.00626813 7.51037e-05 -0.000909794
0.00564018 4.53987e-05 7.22483e-05
0.0059786 0.000821875 -0.00015991
0.00600508 0.00116179 -0.000341228
0.00588797 3.81338e-05 8.32627e-05
0.0055535 4.66897e-05 6.6356e-05
0.0056506 -7.48741e-05 -6.20571e-05
0.00627188 -3.10973e-05 0.000199151
0.00593827 0.000882592 -0.000204141
0.00568406 -0.00110137 0.00109857
0.00598821 1.00823e-05 0.000123446
0.00566342 -0.00105717 0.00108336
0.00598369 0.000820244 -0.00016571
0.00558529 -6.47309e-05 -6.34059e-05
0.00550698 4.02806e-05 7.00617e-05
0.00562047 -7.81073e-05 -7.3433e-05
0.00600363 3.9873e-06 0.000131303
0.00626737 -0.000160997 0.000373616
0.0058017 -0.00124192 0.00101146
0.00583607 4.25765e-05 7.60407e-05
0.00555728 -4.34596e-05 -6.61861e-05
0.00608188 0.00089634 -0.000635212
0.00559122 -7.12119e-05 -6.75664e-05
0.00563832 -7.70516e-05 -6.10307e-05
0.00564429 -0.00109604 0.00109153
0.00572689 4.22566e-05 7.3012e-05
0.00620035 -1.68686e-05 0.000151035
0.00565077 -7.64206e-05 -6.24227e-05
0.00584026 -0.00112375 0.00112652
0.00578213 4.21858e-05 7.41863e-05
0.00542069 -2.35064e-05 -7.12409e-05
0.00615506 0.00252607 -0.00133152
0.00562855 -0.000220638 -3.02357e-05
0.00621871 -0.000169763 0.000352343
0.00621569 0.000100046 -0.000923598
0.00576136 -0.00111229 0.00111255
0.00564644 -6.14676e-05 -6.50854e-05
0.00599716 0.000833214 -0.000163166
0.00629199 -1.84265e-05 0.00019241
0.0058005 -0.00111761 0.00111968
-5.01979e-15 -7.41184e-15 7.69803e-14
0.00564451 -8.52291e-05 -5.94656e-05
0.00566489 4.2051e-05 7.16036e-05
0.00565194 -6.9895e-05 -6.38336e-05
0.00542653 -4.43511e-05 -6.59915e-05
0.00572272 -0.00110694 0.00110558
0.00593981 0.000846511 -0.000169446
0.00585481 0.000971577 -0.000249806
0.00565105 -5.95556e-05 -6.62666e-05
0.00564216 -7.55678e-05 -6.16529e-05
0.00563395 -8.33523e-05 -5.97141e-05
0.00560549 -0.00109104 0.00108467
0.0059362 0.000904543 -0.000214471
0.00551631 0.000208291 -0.000126897
0.00595527 2.09158e-05 0.000107348
0.00568171 -0.000104592 -6.17348e-05
0.00596982 0.00079742 -0.000190429
0.00565001 -8.54154e-05 -5.93772e-05
0.00586104 0.000155556 -0.000973413
0.00583214 0.000885922 -0.000217815
0.00566208 -7.10319e-05 -6.81487e-05
0.0063614 0.000543794 -0.000271668
0.00615598 0.000997427 -0.000253525
0.00612778 0.000963431 -0.000665665
0.00574512 0.000837377 -0.000190141
0.00565049 -5.7891e-05 -5.49848e-05
0.0061249 -8.79019e-06 0.000141184
0.00549915 1.00175e-06 -6.99887e-05
0.0056863 -6.75351e-05 -5.94824e-05
0.00540094 1.03902e-05 -7.05608e-05
0.00633851 9.8047e-05 -0.000861454
0.00559693 8.05258e-05 -9.74465e-05
0.00565036 -6.08155e-05 -6.38796e-05
0.00536819 -2.20955e-05 -7.26357e-05
0.00529345 3.02049e-05 -8.30254e-05
0.00545652 0.000132385 -0.000102135
0.00611073 0.000107914 -0.000941741
0.00565275 -7.24562e-05 -5.37565e-05
0.00568967 0.000489934 -0.000711506
0.00563854 -8.75663e-05 -5.87617e-05
0.00577037 0.00105155 -0.000448182
4.45452e-15 1.043e-14 8.2959e-14
9.7161e-23 4.86658e-23 -5.81428e-22
0.00577886 0.000885592 -0.00021287
0.00602691 0.000142044 -0.0009655
0.00579101 0.000892196 -0.00021425
0.00587732 0.0001475 -0.000966478
0.00563733 -8.48864e-05 -5.93543e-05
0.00602342 4.63039e-05 0.000211188
0.00566975 -7.88713e-05 -6.07166e-05
0.00566165 -6.57869e-05 -6.45832e-05
0.00620558 0.000100161 -0.000928143
0.00585373 0.000881275 -0.000207167
0.00569322 0.000524904 -0.000711917
0.00574635 -7.27329e-05 -1.46098e-05
0.00561582 -0.000107228 -5.38331e-05
0.00564492 -7.68485e-05 -6.15158e-05
0.0060788 0.00118457 -0.00035529
0.00565396 -4.05163e-05 -7.01852e-05
0.00611356 -8.36938e-06 0.000149428
0.00554379 0.00018754 -0.00012287
0.0055024 -1.98791e-05 -7.58686e-05
0.00603839 0.000928067 -0.000223608
0.0056553 -5.41764e-05 -6.36059e-05
0.00564648 -7.29629e-05 -6.24527e-05
0.00605193 0.000130631 -0.00095777
0.00603656 2.85704e-05 0.000199339
0.00530041 9.53715e-06 -7.40015e-05
0.00591872 0.00106928 -0.00029867
0.00577609 0.00112441 -0.000372957
0.00565127 -6.04313e-05 -6.56439e-05
0.00532613 -3.11293e-05 -6.85619e-05
0.0056464 0.000131253 -0.000110938
0.00560592 -0.000130377 -4.79287e-05
0.00621179 0.00114061 -0.000321502
0.00538467 -1.88475e-05 -7.45769e-05
0.0056047 0.000350329 -0.000162545
0.00547247 -5.45834e-05 -6.76655e-05
0.00639599 0.000635033 -6.41419e-05
0.00638627 0.000922683 -0.000207607
0.00592796 0.000142266 -0.000963661
0.0059623 0.000828024 -0.000167855
0.0063794 0.000706906 -0.00010603
0.00597034 0.000850995 -0.000191031
0.00640676 0.000666176 -7.95715e-05
0.00566319 -6.45112e-05 -6.40389e-05
0.00589106 0.000888444 -0.000209771
0.00585201 0.000845369 -0.000189001
0.00636202 0.00069991 -9.75062e-05
0.00640199 0.000704364 -0.00010601
0.00630985 0.0007213 -0.000109384
0.00638376 0.000710716 -0.00010324
-3.82175e-14 8.17057e-14 2.95892e-13
0.00634076 0.000977019 -0.000235919
0.0056552 -6.80168e-05 -6.494e-05
0.00568277 0.000548184 -0.000712125
0.00569169 0.000515734 -0.000712433
0.00585779 0.00081632 -0.0001748
0.00586023 0.000862801 -0.000198189
0.00543794 -3.03862e-05 -6.93846e-05
0.00593842 0.0010936 -0.000309927
0.00583194 0.000863955 -0.000199869
0.00586946 0.000864441 -0.000200296
0.00585689 0.000857493 -0.000195604
0.00553076 0.000218992 -0.000130611
0.00567652 0.000467878 -0.000707801
0.00533512 4.72389e-06 -7.22654e-05
0.00594607 0.000820124 -0.000170367
0.00597907 0.00086665 -0.000195526
0.00632444 0.000710757 -0.000101989
0.00581139 0.00101498 -0.000275586
0.00590047 0.00089246 -0.000211506
0.00560475 -0.00010592 -5.39783e-05
0.00576586 0.000916149 -0.000229007
0.00543719 0.000165451 -0.000114188
0.00600114 0.000845103 -0.000181549
0.00600224 0.000820824 -0.000128565
0.00539016 -4.75185e-05 -6.48789e-05
0.00564751 -9.15642e-05 -5.75947e-05
0.00534432 -6.7921e-05 -5.92444e-05
0.00507983 -0.00177024 0.000997003
0.00566911 -6.57908e-05 -6.32572e-05
0.00567093 0.000532824 -0.000710275
0.00562354 -5.69841e-05 -6.57674e-05
0.00638078 0.000696394 -9.19713e-05
0.00586695 0.000869362 -0.000199597
0.00575179 0.000848944 -0.000195711
0.00528529 -0.00185675 0.000510223
0.0063525 0.000964727 -0.000229923
0.00570128 0.000528221 -0.000714482
0.00635218 0.000274438 -0.000658216
0.00586038 0.0008714 -0.000203137
0.00617528 0.000998645 -0.000252594
0.00564526 -8.35429e-05 -5.98341e-05
0.0060034 0.00089031 -0.000206198
0.00590702 0.000880478 -0.000209429
0.0059874 0.000814387 -0.000167849
0.00639898 0.000706473 -0.000102171
0.0060212 0.00101663 -0.000280681
0.00599558 0.000834629 -0.000174775
0.00562921 -6.57594e-05 -5.56121e-05
0.00564178 -7.59474e-05 -6.17155e-05
0.00583403 0.000884267 -0.00021047
0.00541099 -4.36724e-05 -6.60097e-05
0.00566377 -6.01401e-05 -6.57117e-05
0.00514093 -0.00173185 0.000463743
0.00636257 0.000803352 -0.000148463
0.00563999 9.84347e-05 -0.000103031
0.00566862 0.000530428 -0.000709913
0.005661 -6.35518e-05 -6.44805e-05
0.00568539 0.000512778 -0.00071135
0.00616736 1.0703e-05 0.000227769
0.00597634 0.000849309 -0.000182736
0.00567066 -7.43353e-05 -6.24147e-05
0.00566547 0.000471987 -0.000707579
0.00507369 -0.00179924 0.000995022
0.00508587 -0.0017062 0.000474547
0.00573776 0.0009543 -0.00022522
0.00591151 0.000862637 -0.000183689
0.00569482 0.000524167 -0.000713165
0.00579025 0.00082306 -0.00018133
0.00566438 -6.77054e-05 -6.41657e-05
0.00593358 0.000831089 -0.000170486
0.00576365 0.000895035 -0.000220482
0.00586657 0.000894314 -0.00021353
0.00537948 -0.00142261 0.000361043
0.00540577 -0.00140652 0.000355444
0.00536739 -0.00142368 0.000361676
0.00638678 0.000703335 -0.000100962
0.00573768 0.000952655 -0.000241583
0.00539097 -0.00141971 0.000359884
0.00511876 -0.00179122 0.000491049
0.00595309 0.000772107 -0.000198332
0.00572094 0.00090939 -0.000226784
0.0053537 -0.00185145 0.000505697
0.00627379 0.000721227 -0.000110318
0.00541054 4.81558e-05 -9.53783e-05
0.00517014 -0.00179135 0.000490927
0.00506685 -0.00178091 0.000990791
0.00535426 -0.00185947 0.000509346
0.00577579 0.000163616 -0.000981029
0.00594644 0.000828753 -0.000175244
0.00625885 0.000689356 2.09772e-05
0.00571884 0.000846665 -0.000198336
0.00517332 -0.00179283 0.000484371
0.00578868 0.000675686 -0.000529472
0.0057657 0.000874831 -0.000211143
0.00574108 0.000913053 -0.000227895
0.00554176 -0.00163861 0.000430459
0.00628398 0.000735517 -0.00010835
0.0050752 -0.00177418 0.000990437
0.00587587 0.000863886 -0.000198389
0.00611331 0.000727957 0.000142608
0.00595619 0.000811926 -0.000183281
0.00574855 0.000877145 -0.000219813
0.0052994 -1.62635e-05 -7.08998e-05
0.00587523 0.000867617 -0.000200509
0.00508799 -0.00178525 0.000487594
0.00588072 0.000864605 -0.00017636
0.00505694 -0.00179023 0.000492996
0.00588139 0.000821623 -0.00017551
0.00630592 0.000647763 -9.70278e-05
0.00593727 0.000820981 -0.000174557
0.00577904 0.0008755 -0.000205634
0.00508701 -0.00170844 0.000466457
0.00518272 -0.00178206 0.000356182
0.00568266 0.000527541 -0.000711831
0.00539722 -0.00141528 0.000358744
0.0057218 0.000833595 -0.000204799
0.00594711 0.000829303 -0.000179071
0.00583325 0.000816706 -0.000174837
0.00594125 0.000825721 -0.00017557
0.00578599 0.000740016 -0.000404104
0.00634492 0.00070194 -9.58099e-05
0.00638384 0.00113255 -0.000312002
0.00585653 0.000887059 -0.000212458
0.00587968 0.000871031 -0.000201757
0.00595278 0.000856274 -0.000190026
0.0059127 0.000837084 -7.26038e-05
0.00505548 -0.00179276 0.000987819
0.0059386 0.000824618 -0.000174928
0.00549352 0.000295817 -0.000148055
0.0054258 -0.00140019 0.000352026
0.00512295 -0.0017998 0.000493948
0.0053434 -2.00927e-05 -7.23492e-05

VECTORS force float
-3.64097e-10 1.58966e-10 -2.97255e-11
9.51737e-12 -6.61684e-11 9.23946e-12
-1.35911e-10 7.68988e-11 3.43652e-12
6.50437e-11 1.08069e-10 -4.85763e-11
9.02807e-12 -3.76719e-12 2.52663e-11
-7.89362e-10 4.94847e-10 -3.90567e-10
-1.03867e-10 -3.91468e-10 1.31228e-11
-6.74403e-12 -2.34016e-11 5.30841e-12
2.10802e-11 1.06498e-10 -1.43202e-10
-4.04659e-11 -1.09543e-10 3.89283e-11
2.9598e-11 -4.70403e-11 8.2303e-11
1.76582e-10 1.51291e-10 -1.12224e-10
-9.32248e-12 -2.64263e-10 7.25435e-11
-1.82948e-10 1.60187e-10 -8.77014e-11
9.45888e-12 1.11424e-10 -1.62725e-10
-4.61345e-10 -3.47955e-11 -4.03678e-11
-2.12442e-10 1.06427e-10 -2.53702e-11
1.01231e-09 -4.13577e-10 5.74471e-10
-1.431e-10 1.86001e-10 -7.67953e-11
3.85615e-12 -4.57452e-12 -9.19498e-14
-4.05429e-10 2.05405e-10 -2.3511e-10
8.41979e-12 1.86815e-11 -3.94513e-12
1.11639e-10 -1.2884e-10 6.7906e-11
-3.06661e-10 2.40656e-10 -6.8501e-11
2.62015e-10 -2.68487e-11 1.18176e-11
3.92093e-10 -4.20559e-10 -1.1192e-10
-1.08694e-10 1.59463e-10 -2.91341e-10
-1.38462e-10 -1.09832e-10 1.27099e-10
-3.15217e-12 1.85502e-12 7.77143e-12
-3.09159e-10 1.11846e-10 -1.78746e-10
5.06472e-10 1.22948e-11 -3.97174e-11
-9.81344e-16 7.75215e-13 -3.20065e-13
2.7918e-10 -3.78387e-10 -1.86409e-11
-2.6437e-10 3.04912e-10 -6.41689e-11
2.73471e-12 -9.57123e-12 3.33741e-12
6.69036e-12 -8.27781e-11 8.63801e-11
-1.54151e-10 1.04727e-10 1.37972e-11
-3.62692e-10 2.32837e-10 -5.70619e-11
-6.38967e-12 8.0236e-12 8.11026e-12
-7.92705e-12 3.4681e-12 -1.51567e-11
1.64752e-10 -2.60346e-11 5.71233e-12
-2.37394e-11 3.64877e-11 -1.45904e-11
-7.68275e-11 -6.66995e-11 1.6083e-11
3.84441e-10 -2.74712e-10 1.23487e-10
4.82538e-10 -1.58183e-10 1.13489e-10
7.05858e-12 -1.10422e-11 7.39366e-12
-4.28008e-10 9.02193e-11 -1.52313e-11
1.6971e-10 1.1127e-10 -9.14925e-11
-6.74431e-10 2.46511e-10 5.52135e-11
-8.8475e-13 -5.51269e-12 1.21966e-11
3.98081e-24 -1.29247e-25 2.06795e-25
-3.74749e-10 2.74546e-10 -5.73755e-11
-7.06205e-10 -1.30382e-11 -4.5075e-11
-2.47125e-10 5.71887e-11 -8.75266e-12
-2.11092e-11 -1.35129e-10 3.73434e-11
8.34487e-12 -4.94065e-12 2.04327e-12
8.17986e-11 1.00831e-10 1.7845e-11
3.18426e-11 5.87677e-11 -5.17914e-12
2.77581e-10 7.11632e-11 -2.69054e-11
-1.10706e-10 8.46315e-11 -1.80324e-11
-1.80697e-10 2.90547e-10 -6.64579e-11
-4.37565e-12 -1.3849e-11 2.49708e-12
2.84543e-10 -1.40431e-10 4.73663e-11
5.16955e-10 -7.11167e-11 5.61591e-11
-1.89227e-10 7.78192e-11 -1.36897e-10
-1.18557e-10 -3.80924e-10 9.59096e-11
4.43145e-11 9.04579e-10 -7.13341e-10
-4.72649e-11 6.67233e-11 -1.46859e-11
-3.22511e-10 8.94397e-11 -8.57206e-11
-3.83801e-11 -5.44001e-11 6.63168e-11
-2.99311e-10 1.61253e-10 8.44636e-11
1.88017e-11 -5.98179e-11 1.58752e-10
-2.53743e-10 2.02245e-11 -2.24236e-11
1.88577e-13 7.93587e-13 -3.40327e-13
1.02994e-11 6.10712e-12 -6.31005e-12
4.71828e-10 -7.47635e-12 -5.53065e-11
-1.54019e-10 2.10515e-10 -2.55759e-10
2.20695e-11 -5.58018e-10 1.23527e-10
-1.14493e-10 -3.77263e-10 1.06793e-12
9.80142e-11 -1.51645e-10 8.29345e-12
-4.73005e-10 3.59936e-10 2.58885e-10
5.23336e-11 -3.84506e-10 4.73534e-11
-1.00043e-10 -2.11069e-10 6.75523e-11
1.18102e-10 9.34399e-11 -9.00269e-12
-3.11115e-11 -8.15829e-11 -9.53051e-11
-5.46319e-11 -6.70751e-12 8.14043e-11
2.66644e-10 1.56786e-10 -2.44036e-10
9.61812e-11 -2.80902e-10 5.98697e-11
2.26261e-11 -1.58968e-11 -1.31273e-11
-1.21365e-10 1.76833e-10 -4.32226e-11
1.14815e-11 -1.51067e-11 -1.0708e-10
1.74582e-21 -8.70814e-22 1.75776e-23
0.0 0.0 0.0
1.06253e-10 2.27352e-10 -9.62139e-11
-6.0812e-10 1.29896e-10 -2.66259e-10
2.65174e-10 9.80373e-11 -3.40411e-11
4.13091e-10 6.03924e-11 -1.48199e-10
-8.61443e-11 2.93319e-10 -6.4589e-11
6.23105e-11 2.54143e-10 -5.36212e-11