# vtk DataFile Version 3.0
LIGGGHTS particles timestep 64600000
ASCII
DATASET POLYDATA
POINTS 267 float
0.383989 0.0187324 5.17563e-05
0.38475 0.0171143 5.27528e-05
0.384079 0.017239 5.18739e-05
0.384828 0.0177774 5.28557e-05
0.384287 0.0192279 5.2147e-05
0.384262 0.0172481 5.21142e-05
0.383738 0.0178799 5.14269e-05
0.384901 0.0174911 5.29508e-05
0.383677 0.0185203 5.13474e-05
0.383972 0.0175346 0.00176026
0.384568 0.01783 5.25139e-05
0.383845 0.017536 0.00509334
0.384134 0.0171158 0.000125777
0.384315 0.0175081 5.21832e-05
0.384693 0.0182017 5.26788e-05
0.384365 0.0179304 5.22481e-05
0.385006 0.0203197 5.3088e-05
0.384109 0.0177632 5.19136e-05
0.384309 0.018035 5.21751e-05
0.384324 0.0166768 5.21947e-05
0.383772 0.0177862 5.14726e-05
0.3837 0.0170326 0.00728226
0.383979 0.0175837 7.24663e-05
0.38434 0.0168618 5.22161e-05
0.384101 0.0173475 5.19028e-05
0.384257 0.018169 5.21078e-05
0.384804 0.0175959 5.28239e-05
0.384543 0.0172568 5.24816e-05
0.384266 0.0176023 5.21191e-05
0.383853 0.0177505 0.000111076
0.383931 0.0185152 5.16807e-05
0.384647 0.0177677 5.26183e-05
0.384246 0.0177006 5.20929e-05
0.383636 0.01978 5.1294e-05
0.38332 0.0192284 0.00522714
0.383999 0.0184128 5.5235e-05
0.384165 0.017176 5.19866e-05
0.329604 0.0181994 0.00769313
0.383616 0.0181668 5.12679e-05
0.384194 0.0185569 5.20241e-05
0.384076 0.0176047 5.20027e-05
0.383927 0.0190276 5.16751e-05
0.38427 0.0217775 5.20879e-05
0.384875 0.0167698 5.29164e-05
0.384094 0.0196551 5.18938e-05
0.383598 0.0189063 5.12435e-05
0.384071 0.0171393 5.18638e-05
0.38361 0.0192294 5.126e-05
0.378022 0.019866 0.005332
0.384961 0.0170589 5.30291e-05
0.384457 0.0166248 5.23696e-05
0.385119 0.0166834 5.32362e-05
0.383574 0.0182638 5.12125e-05
0.383796 0.0173883 0.00639523
0.384314 0.0196963 5.21813e-05
0.38401 0.0186174 5.17842e-05
0.38415 0.0176716 5.19674e-05
0.3836 0.0187796 5.29044e-05
0.383632 0.0194528 5.1288e-05
0.383697 0.0191803 5.13738e-05
0.383879 0.0178266 5.16123e-05
0.384751 0.0204726 5.27548e-05
0.384789 0.0203241 5.2804e-05
0.38372 0.0171159 0.00723073
0.384898 0.0180543 5.29471e-05
0.38329 0.0158424 0.00812167
0.384155 0.0206304 9.88662e-05
0.383923 0.0174463 5.16696e-05
0.384486 0.0162696 5.24073e-05
0.384893 0.020527 7.09715e-05
0.383978 0.0188837 5.17417e-05
0.383819 0.0193079 0.000103964
0.383955 0.0178923 5.17115e-05
0.384958 0.0175921 5.30256e-05
0.383272 0.0191349 0.0052273
0.38382 0.0176771 5.15353e-05
0.384039 0.0178885 0.000105961
0.383942 0.0174462 0.00339993
0.384179 0.0170648 5.20045e-05
0.383774 0.0207735 5.14742e-05
0.383802 0.0188146 5.15112e-05
0.384448 0.0176806 5.23568e-05
0.384427 0.0183031 5.23293e-05
0.383733 0.0192983 5.21741e-05
0.383943 0.0181771 0.000325902
0.384828 0.0173756 5.28555e-05
0.383759 0.0177431 0.00552266
0.0643568 0.0187248 0.00531097
0.24257 0.0191927 0.00520306
0.384443 0.0190455 5.23502e-05
0.383431 0.0163795 0.00769788
0.384031 0.0185138 5.18119e-05
0.38331 0.0159168 0.00805773
0.38367 0.0180765 5.13385e-05
0.384119 0.0192522 5.19266e-05
0.384008 0.0191478 0.000178355
0.384667 0.0176128 5.26447e-05
0.383719 0.0167289 0.00746051
0.383679 0.0173928 0.0071039
0.383733 0.0175787 0.00652554
0.38367 0.0183172 5.13387e-05
0.383777 0.0179593 0.000122426
0.384449 0.0168676 5.23589e-05
0.383671 0.0179995 0.000678907
0.383909 0.0186138 5.16513e-05
0.384122 0.0178719 5.19295e-05
0.384806 0.018557 5.28265e-05
0.384225 0.0179661 5.20658e-05
0.383903 0.0192132 5.16437e-05
0.384081 0.0170393 5.18771e-05
0.384649 0.0167606 5.26208e-05
0.383369 0.0161398 0.00786591
0.384338 0.0170647 5.22129e-05
0.383832 0.0179149 5.15503e-05
0.38384 0.0173852 0.00450886
0.383453 0.0177041 0.00537496
0.384418 0.0164926 5.23174e-05
0.383614 0.0186496 5.12656e-05
0.383574 0.0183691 5.12127e-05
0.383664 0.0199731 7.96898e-05
0.383769 0.017281 0.00689217
0.383808 0.0186722 5.15187e-05
0.384366 0.0177882 5.225e-05
0.385081 0.0174041 5.31868e-05
0.383762 0.0168949 0.00735751
0.385771 0.0165447 6.40866e-05
0.383329 0.0159911 0.00799379
0.384331 0.019548 5.22045e-05
0.384085 0.0186838 5.18823e-05
0.383877 0.0176212 0.00387446
0.383781 0.0169785 0.00730596
0.384731 0.0173982 5.27278e-05
0.383774 0.0184824 5.9844e-05
0.383618 0.0182423 0.00379394
0.383807 0.017062 0.00720493
0.383349 0.0160655 0.00792985
0.384483 0.0170995 0.00393703
0.383741 0.0168118 0.00740902
0.0219312 0.0187687 0.00551176
0.383867 0.0173743 0.0053608
0.38388 0.0175501 5.16137e-05
0.383553 0.0176689 0.00548295
0.383851 0.0190924 5.15751e-05
0.38415 0.0189073 5.19675e-05
0.384886 0.0168834 5.29315e-05
0.384919 0.0196036 5.31799e-05
0.383964 0.0194562 6.82083e-05
0.383823 0.0182673 0.000200461
0.383888 0.0184727 0.00523166
0.38389 0.0193556 5.17084e-05
0.383658 0.0173013 0.00714439
0.384268 0.0190399 5.21214e-05
0.383813 0.0173753 0.00693179
0.384125 0.0179718 5.19349e-05
0.383409 0.0162966 0.00774936
0.384016 0.0189818 5.17915e-05
0.3843 0.0186551 5.2163e-05
0.384992 0.0180145 5.30695e-05
0.386745 0.0152687 0.00031298
0.383615 0.0193294 5.12661e-05
0.384395 0.0192551 8.17082e-05
0.384256 0.0182702 5.21064e-05
0.38372 0.0197201 5.14033e-05
0.385068 0.0179426 5.31691e-05
0.383966 0.0177011 0.000154047
0.377865 0.0182944 0.00697319
0.384706 0.0184769 5.26952e-05
0.383706 0.0174857 0.00693246
0.383672 0.0184195 5.13415e-05
0.384129 0.0182203 5.19391e-05
0.383846 0.0182502 5.15686e-05
0.38412 0.0181203 5.1928e-05
0.377539 0.0168304 0.00752566
0.383803 0.0192193 5.15129e-05
0.384647 0.0174541 5.26185e-05
0.383389 0.0162141 0.00780202
0.384587 0.0166797 0.000212238
0.384099 0.0173935 0.00448162
0.384472 0.0179399 5.23893e-05
0.3841 0.0184243 5.19018e-05
0.383639 0.0167829 0.00743682
0.383681 0.0169491 0.00733381
0.383453 0.0164624 0.0076464
0.384069 0.0176006 0.000211005
0.383638 0.0172112 0.00718308
0.384525 0.0167176 5.24585e-05
0.384108 0.0175096 5.19122e-05
0.383978 0.0185238 0.00522879
0.383771 0.0191313 9.76326e-05
0.384515 0.0175216 5.24457e-05
0.377768 0.0178269 0.00712035
0.384359 0.0183967 5.22405e-05
0.383761 0.0176713 0.00585619
0.38448 0.0186448 5.23996e-05
0.384143 0.0182259 0.00480594
0.384206 0.0180663 5.20402e-05
0.383561 0.0168772 0.007389
0.384796 0.0174934 5.28134e-05
0.383884 0.0196254 5.16191e-05
0.377787 0.0179177 0.00708319
0.377728 0.0176454 0.00719434
0.383709 0.0199456 0.00113969
0.383903 0.0174739 0.00527739
0.38345 0.0186594 0.00522432
0.384516 0.0170368 5.24466e-05
0.384564 0.0189811 5.25095e-05
0.383539 0.0167942 0.00744048
0.384093 0.0176088 0.0016653
0.38362 0.0171273 0.00723438
0.377432 0.0164148 0.00776476
0.377496 0.0166514 0.00759834
0.377412 0.0163536 0.00784124
0.383905 0.0188152 5.16463e-05
0.384047 0.0205772 0.000127356
0.377455 0.0164883 0.00770104
0.377647 0.0172828 0.00734204
0.383474 0.0165454 0.00759492
0.383993 0.0183689 0.00242884
0.377582 0.0170114 0.00745221
0.383595 0.016617 0.00753978
0.383972 0.0177873 5.59778e-05
0.377668 0.0173733 0.00730531
0.377846 0.0181997 0.00699938
0.377603 0.0171019 0.00741549
0.383725 0.0182339 5.14111e-05
0.384352 0.0191515 5.22315e-05
0.383836 0.0171421 0.00687002
0.383647 0.0203813 0.000674521
0.377688 0.017464 0.00726834
0.383885 0.0179303 0.000633707
0.383755 0.0185729 0.000171787
0.38399 0.0175551 0.00515286
0.37756 0.0169209 0.00748894
0.383857 0.0183654 0.00476529
0.37794 0.0182311 0.00699023
0.383669 0.0192971 0.00148663
0.383617 0.0167 0.0074883
0.384519 0.0181423 5.24506e-05
0.383987 0.0179915 6.25581e-05
0.38408 0.0176935 0.000119936
0.384206 0.0183852 5.20399e-05
0.377748 0.0177361 0.00715734
0.38366 0.0168659 0.00738534
0.377708 0.0175547 0.00723134
0.383739 0.0172925 0.00720259
0.383574 0.0165341 0.00759126
0.383496 0.0166283 0.00754344
0.384787 0.0171779 0.000620923
0.377807 0.0180107 0.00705172
0.384897 0.0194055 5.2945e-05
0.377474 0.0165609 0.00763507
0.383786 0.0194515 6.37644e-05
0.383582 0.0169603 0.00733749
0.383691 0.017204 0.00726776
0.383821 0.0173155 0.00522029
0.384902 0.0179527 5.29522e-05
0.38374 0.0172023 0.00715488
0.383709 0.0179783 5.13895e-05
0.383878 0.0192476 0.000161468
0.383601 0.0170439 0.00728592
0.383865 0.0189103 5.15934e-05
0.377826 0.0181052 0.00702556
0.383518 0.0167113 0.00749196
0.383823 0.0183807 5.15386e-05
0.377522 0.0167451 0.00757498
0.377625 0.0171923 0.00737876
0.384042 0.0174304 5.1826e-05

VERTICES 267 534
1 0
1 1
1 2
1 3
1 4
1 5
1 6
1 7
1 8
1 9
1 10
1 11
1 12
1 13
1 14
1 15
1 16
1 17
1 18
1 19
1 20
1 21
1 22
1 23
1 24
1 25
1 26
1 27
1 28
1 29
1 30
1 31
1 32
1 33
1 34
1 35
1 36
1 37
1 38
1 39
1 40
1 41
1 42
1 43
1 44
1 45
1 46
1 47
1 48
1 49
1 50
1 51
1 52
1 53
1 54
1 55
1 56
1 57
1 58
1 59
1 60
1 61
1 62
1 63
1 64
1 65
1 66
1 67
1 68
1 69
1 70
1 71
1 72
1 73
1 74
1 75
1 76
1 77
1 78
1 79
1 80
1 81
1 82
1 83
1 84
1 85
1 86
1 87
1 88
1 89
1 90
1 91
1 92
1 93
1 94
1 95
1 96
1 97
1 98
1 99
1 100
1 101
1 102
1 103
1 104
1 105
1 106
1 107
1 108
1 109
1 110
1 111
1 112
1 113
1 114
1 115
1 116
1 117
1 118
1 119
1 120
1 121
1 122
1 123
1 124
1 125
1 126
1 127
1 128
1 129
1 130
1 131
1 132
1 133
1 134
1 135
1 136
1 137
1 138
1 139
1 140
1 141
1 142
1 143
1 144
1 145
1 146
1 147
1 148
1 149
1 150
1 151
1 152
1 153
1 154
1 155
1 156
1 157
1 158
1 159
1 160
1 161
1 162
1 163
1 164
1 165
1 166
1 167
1 168
1 169
1 170
1 171
1 172
1 173
1 174
1 175
1 176
1 177
1 178
1 179
1 180
1 181
1 182
1 183
1 184
1 185
1 186
1 187
1 188
1 189
1 190
1 191
1 192
1 193
1 194
1 195
1 196
1 197
1 198
1 199
1 200
1 201
1 202
1 203
1 204
1 205
1 206
1 207
1 208
1 209
1 210
1 211
1 212
1 213
1 214
1 215
1 216
1 217
1 218
1 219
1 220
1 221
1 222
1 223
1 224
1 225
1 226
1 227
1 228
1 229
1 230
1 231
1 232
1 233
1 234
1 235
1 236
1 237
1 238
1 239
1 240
1 241
1 242
1 243
1 244
1 245
1 246
1 247
1 248
1 249
1 250
1 251
1 252
1 253
1 254
1 255
1 256
1 257
1 258
1 259
1 260
1 261
1 262
1 263
1 264
1 265
1 266

POINT_DATA 267
SCALARS id int 1
LOOKUP_TABLE default
1
2
4
6
7
8
9
10
11
12
13
14
16
17
19
21
22
23
24
25
26
27
28
29
30
31
32
33
34
35
36
37
38
39
42
44
45
47
48
49
50
51
52
53
54
55
56
57
59
60
62
63
64
65
66
67
68
69
70
71
72
73
74
76
77
78
79
80
82
83
84
85
86
87
88
89
90
91
92
93
94
95
96
98
99
100
101
102
103
104
105
106
107
108
109
110
111
112
113
114
115
116
117
118
119
120
121
122
123
124
125
127
128
129
130
131
132
133
134
135
136
137
138
140
141
142
143
144
146
147
148
149
150
151
153
154
155
156
157
158
159
160
162
165
166
167
168
169
170
171
172
173
174
176
177
178
179
182
183
184
185
186
187
188
189
190
191
192
193
194
195
196
197
198
199
200
201
202
203
204
205
206
207
208
209
210
211
212
213
214
215
217
218
219
220
222
224
225
226
227
228
229
230
232
233
234
235
236
237
239
240
241
242
243
244
246
247
248
249
250
251
252
253
254
255
256
257
258
259
260
261
262
263
264
265
266
267
268
269
270
271
272
273
274
275
276
277
278
280
281
283
284
285
286
287
288
290
291
292
293
294
295
296
297
298
299
300

SCALARS type int 1
LOOKUP_TABLE default
1
1
1
1
1
1
1
1
1
1
1
1
1
1
1
1
1
1
1
1
1
1
1
1
1
1
1
1
1
1
1
1
1
1
1
1
1
1
1
1
1
1
1
1
1
1
1
1
1
1
1
1
1
1
1
1
1
1
1
1
1
1
1
1
1
1
1
1
1
1
1
1
1
1
1
1
1
1
1
1
1
1
1
1
1
1
1
1
1
1
1
1
1
1
1
1
1
1
1
1
1
1
1
1
1
1
1
1
1
1
1
1
1
1
1
1
1
1
1
1
1
1
1
1
1
1
1
1
1
1
1
1
1
1
1
1
1
1
1
1
1
1
1
1
1
1
1
1
1
1
1
1
1
1
1
1
1
1
1
1
1
1
1
1
1
1
1
1
1
1
1
1
1
1
1
1
1
1
1
1
1
1
1
1
1
1
1
1
1
1
1
1
1
1
1
1
1
1
1
1
1
1
1
1
1
1
1
1
1
1
1
1
1
1
1
1
1
1
1
1
1
1
1
1
1
1
1
1
1
1
1
1
1
1
1
1
1
1
1
1
1
1
1
1
1
1
1
1
1
1
1
1
1
1
1
1
1
1
1
1
1
1
1
1
1
1
1

SCALARS radius float 1
LOOKUP_TABLE default
5e-05
5e-05
5e-05
5e-05
5e-05
5e-05
5e-05
5e-05
5e-05
5e-05
5e-05
5e-05
5e-05
5e-05
5e-05
5e-05
5e-05
5e-05
5e-05
5e-05
5e-05
5e-05
5e-05
5e-05
5e-05
5e-05
5e-05
5e-05
5e-05
5e-05
5e-05
5e-05
5e-05
5e-05
5e-05
5e-05
5e-05
5e-05
5e-05
5e-05
5e-05
5e-05
5e-05
5e-05
5e-05
5e-05
5e-05
5e-05
5e-05
5e-05
5e-05
5e-05
5e-05
5e-05
5e-05
5e-05
5e-05
5e-05
5e-05
5e-05
5e-05
5e-05
5e-05
5e-05
5e-05
5e-05
5e-05
5e-05
5e-05
5e-05
5e-05
5e-05
5e-05
5e-05
5e-05
5e-05
5e-05
5e-05
5e-05
5e-05
5e-05
5e-05
5e-05
5e-05
5e-05
5e-05
5e-05
5e-05
5e-05
5e-05
5e-05
5e-05
5e-05
5e-05
5e-05
5e-05
5e-05
5e-05
5e-05
5e-05
5e-05
5e-05
5e-05
5e-05
5e-05
5e-05
5e-05
5e-05
5e-05
5e-05
5e-05
5e-05
5e-05
5e-05
5e-05
5e-05
5e-05
5e-05
5e-05
5e-05
5e-05
5e-05
5e-05
5e-05
5e-05
5e-05
5e-05
5e-05
5e-05
5e-05
5e-05
5e-05
5e-05
5e-05
5e-05
5e-05
5e-05
5e-05
5e-05
5e-05
5e-05
5e-05
5e-05
5e-05
5e-05
5e-05
5e-05
5e-05
5e-05
5e-05
5e-05
5e-05
5e-05
5e-05
5e-05
5e-05
5e-05
5e-05
5e-05
5e-05
5e-05
5e-05
5e-05
5e-05
5e-05
5e-05
5e-05
5e-05
5e-05
5e-05
5e-05
5e-05
5e-05
5e-05
5e-05
5e-05
5e-05
5e-05
5e-05
5e-05
5e-05
5e-05
5e-05
5e-05
5e-05
5e-05
5e-05
5e-05
5e-05
5e-05
5e-05
5e-05
5e-05
5e-05
5e-05
5e-05
5e-05
5e-05
5e-05
5e-05
5e-05
5e-05
5e-05
5e-05
5e-05
5e-05
5e-05
5e-05
5e-05
5e-05
5e-05
5e-05
5e-05
5e-05
5e-05
5e-05
5e-05
5e-05
5e-05
5e-05
5e-05
5e-05
5e-05
5e-05
5e-05
5e-05
5e-05
5e-05
5e-05
5e-05
5e-05
5e-05
5e-05
5e-05
5e-05
5e-05
5e-05
5e-05
5e-05
5e-05
5e-05
5e-05
5e-05
5e-05
5e-05
5e-05
5e-05
5e-05
5e-05
5e-05
5e-05
5e-05
5e-05
5e-05
5e-05
5e-05
5e-05
5e-05
5e-05
5e-05
5e-05
5e-05
5e-05
5e-05
5e-05
5e-05
5e-05

SCALARS mass float 1
LOOKUP_TABLE default
1.46608e-10
1.46608e-10
1.46608e-10
1.46608e-10
1.46608e-10
1.46608e-10
1.46608e-10
1.46608e-10
1.46608e-10
1.46608e-10
1.46608e-10
1.46608e-10
1.46608e-10
1.46608e-10
1.46608e-10
1.46608e-10
1.46608e-10
1.46608e-10
1.46608e-10
1.46608e-10
1.46608e-10
1.46608e-10
1.46608e-10
1.46608e-10
1.46608e-10
1.46608e-10
1.46608e-10
1.46608e-10
1.46608e-10
1.46608e-10
1.46608e-10
1.46608e-10
1.46608e-10
1.46608e-10
1.46608e-10
1.46608e-10
1.46608e-10
1.46608e-10
1.46608e-10
1.46608e-10
1.46608e-10
1.46608e-10
1.46608e-10
1.46608e-10
1.46608e-10
1.46608e-10
1.46608e-10
1.46608e-10
1.46608e-10
1.46608e-10
1.46608e-10
1.46608e-10
1.46608e-10
1.46608e-10
1.46608e-10
1.46608e-10
1.46608e-10
1.46608e-10
1.46608e-10
1.46608e-10
1.46608e-10
1.46608e-10
1.46608e-10
1.46608e-10
1.46608e-10
1.46608e-10
1.46608e-10
1.46608e-10
1.46608e-10
1.46608e-10
1.46608e-10
1.46608e-10
1.46608e-10
1.46608e-10
1.46608e-10
1.46608e-10
1.46608e-10
1.46608e-10
1.46608e-10
1.46608e-10
1.46608e-10
1.46608e-10
1.46608e-10
1.46608e-10
1.46608e-10
1.46608e-10
1.46608e-10
1.46608e-10
1.46608e-10
1.46608e-10
1.46608e-10
1.46608e-10
1.46608e-10
1.46608e-10
1.46608e-10
1.46608e-10
1.46608e-10
1.46608e-10
1.46608e-10
1.46608e-10
1.46608e-10
1.46608e-10
1.46608e-10
1.46608e-10
1.46608e-10
1.46608e-10
1.46608e-10
1.46608e-10
1.46608e-10
1.46608e-10
1.46608e-10
1.46608e-10
1.46608e-10
1.46608e-10
1.46608e-10
1.46608e-10
1.46608e-10
1.46608e-10
1.46608e-10
1.46608e-10
1.46608e-10
1.46608e-10
1.46608e-10
1.46608e-10
1.46608e-10
1.46608e-10
1.46608e-10
1.46608e-10
1.46608e-10
1.46608e-10
1.46608e-10
1.46608e-10
1.46608e-10
1.46608e-10
1.46608e-10
1.46608e-10
1.46608e-10
1.46608e-10
1.46608e-10
1.46608e-10
1.46608e-10
1.46608e-10
1.46608e-10
1.46608e-10
1.46608e-10
1.46608e-10
1.46608e-10
1.46608e-10
1.46608e-10
1.46608e-10
1.46608e-10
1.46608e-10
1.46608e-10
1.46608e-10
1.46608e-10
1.46608e-10
1.46608e-10
1.46608e-10
1.46608e-10
1.46608e-10
1.46608e-10
1.46608e-10
1.46608e-10
1.46608e-10
1.46608e-10
1.46608e-10
1.46608e-10
1.46608e-10
1.46608e-10
1.46608e-10
1.46608e-10
1.46608e-10
1.46608e-10
1.46608e-10
1.46608e-10
1.46608e-10
1.46608e-10
1.46608e-10
1.46608e-10
1.46608e-10
1.46608e-10
1.46608e-10
1.46608e-10
1.46608e-10
1.46608e-10
1.46608e-10
1.46608e-10
1.46608e-10
1.46608e-10
1.46608e-10
1.46608e-10
1.46608e-10
1.46608e-10
1.46608e-10
1.46608e-10
1.46608e-10
1.46608e-10
1.46608e-10
1.46608e-10
1.46608e-10
1.46608e-10
1.46608e-10
1.46608e-10
1.46608e-10
1.46608e-10
1.46608e-10
1.46608e-10
1.46608e-10
1.46608e-10
1.46608e-10
1.46608e-10
1.46608e-10
1.46608e-10
1.46608e-10
1.46608e-10
1.46608e-10
1.46608e-10
1.46608e-10
1.46608e-10
1.46608e-10
1.46608e-10
1.46608e-10
1.46608e-10
1.46608e-10
1.46608e-10
1.46608e-10
1.46608e-10
1.46608e-10
1.46608e-10
1.46608e-10
1.46608e-10
1.46608e-10
1.46608e-10
1.46608e-10
1.46608e-10
1.46608e-10
1.46608e-10
1.46608e-10
1.46608e-10
1.46608e-10
1.46608e-10
1.46608e-10
1.46608e-10
1.46608e-10
1.46608e-10
1.46608e-10
1.46608e-10
1.46608e-10
1.46608e-10
1.46608e-10
1.46608e-10
1.46608e-10
1.46608e-10
1.46608e-10
1.46608e-10
1.46608e-10
1.46608e-10
1.46608e-10
1.46608e-10
1.46608e-10
1.46608e-10
1.46608e-10
1.46608e-10
1.46608e-10
1.46608e-10
1.46608e-10
1.46608e-10

VECTORS velocity float
-3.50202e-19 9.99546e-22 2.67382e-16
2.24034e-18 8.84552e-21 -1.71052e-15
2.24034e-18 1.49976e-22 -1.71052e-15
1.7976e-18 -1.85491e-22 -1.37249e-15
2.8369e-18 -6.94628e-20 -2.14593e-15
2.24031e-18 1.06082e-21 -1.71052e-15
2.24036e-18 -1.03521e-23 -1.71051e-15
1.79764e-18 3.05019e-22 -1.37251e-15
-4.43295e-07 5.28551e-07 -5.81814e-10
0.0092026 0.00404006 -0.323766
1.7976e-18 -2.43136e-21 -1.37251e-15
0.00899198 0.00581342 -0.198315
2.96016e-11 -3.05473e-11 -6.53315e-13
2.24034e-18 4.95776e-21 -1.71052e-15
1.79762e-18 -6.61293e-23 -1.37251e-15
1.7976e-18 -1.56566e-21 -1.37249e-15
2.64661e-16 2.67697e-16 -6.64955e-16
-4.64039e-07 -4.93808e-07 -6.07809e-10
1.79761e-18 -9.96337e-21 -1.37251e-15
2.24031e-18 2.29715e-20 -1.71052e-15
-9.39261e-15 -3.78601e-16 -1.72282e-15
0.00670517 0.00677262 -0.00471881
0.00106673 0.00529778 0.0170253
2.24034e-18 9.87525e-21 -1.71051e-15
2.24036e-18 8.6129e-22 -1.71052e-15
1.7976e-18 -1.65813e-21 -1.37251e-15
1.79763e-18 -1.1236e-21 -1.37251e-15
-9.20566e-19 3.20528e-20 7.02842e-16
-9.2055e-19 2.59421e-22 7.02843e-16
0.00148058 -0.000581469 -0.000208245
-3.41609e-19 1.42457e-20 2.67381e-16
1.79756e-18 1.4074e-21 -1.37249e-15
1.24427e-05 5.97058e-06 1.6297e-08
-3.50218e-19 2.6493e-21 2.67382e-16
1.28259e-16 6.20456e-20 3.78515e-14
-0.000442432 -0.000401419 -0.00343407
3.70126e-11 -2.23795e-11 6.56388e-13
0.00263367 -0.0129859 0.00258562
2.24035e-18 -2.83521e-22 -1.71052e-15
1.79759e-18 3.59812e-21 -1.37251e-15
0.000566294 -0.000684615 -3.19636e-05
3.66745e-06 7.24248e-06 3.34181e-07
-0.000152048 -0.000224929 0.00365177
2.24034e-18 -2.2905e-20 -1.71052e-15
2.81059e-18 1.9331e-22 -2.14593e-15
1.73345e-10 1.02695e-09 2.16605e-13
4.99524e-11 8.85749e-11 1.28401e-11
8.17565e-07 4.34892e-06 -2.0137e-07
-5.01979e-15 -7.41191e-15 7.69802e-14
2.24036e-18 -6.37857e-20 -1.71051e-15
2.24033e-18 1.29386e-20 -1.71051e-15
2.24037e-18 -8.55825e-21 -1.71052e-15
1.79759e-18 4.52079e-23 -1.37251e-15
0.00865494 0.00670194 -0.120298
-3.50172e-19 -4.35159e-21 2.67381e-16
2.81051e-18 7.64639e-22 -2.14593e-15
5.0645e-05 -1.3596e-05 3.63414e-05
0.000103207 0.00070702 -0.00609774
-3.50319e-19 -7.25138e-22 2.67381e-16
-8.71643e-08 -5.52454e-07 -1.10405e-07
5.96389e-06 1.80577e-05 -2.07071e-05
2.00508e-18 -3.52295e-23 -1.5309e-15
-6.02665e-16 7.00284e-16 -6.66091e-16
0.00736397 0.00661272 -0.0046923
1.79759e-18 5.37126e-21 -1.37251e-15
0.00727467 0.00591731 -0.00522663
0.0020577 0.00885288 -0.0153922
2.24032e-18 -2.18188e-22 -1.71051e-15
2.23589e-18 2.85068e-19 -1.71051e-15
0.000372518 0.00614309 0.0117067
-3.50179e-19 6.00923e-24 2.67381e-16
-0.0025971 0.00972125 -0.0029745
4.09873e-05 -1.01833e-06 -2.86905e-05
1.79757e-18 1.52475e-21 -1.37249e-15
1.28258e-16 4.93541e-21 3.78515e-14
-7.679e-06 -1.67738e-05 -2.06484e-05
0.000853 0.00695129 -0.00089001
0.00929646 0.00438091 -0.27042
-6.54013e-11 -8.05212e-11 -1.24481e-11
2.00506e-18 -4.62872e-21 -1.5309e-15
2.81055e-18 7.93056e-21 -2.14593e-15
2.24032e-18 3.34802e-20 -1.71052e-15
1.79763e-18 -4.86547e-21 -1.37251e-15
-0.00440292 -0.000347388 -0.000694128
0.0101462 0.00842044 -0.362985
2.24295e-18 -4.39327e-22 -1.71052e-15
-0.00392478 -0.00254201 0.0670267
4.19518e-15 1.05536e-14 8.29568e-14
-1.3037e-23 -1.27651e-22 -5.81428e-22
-3.50215e-19 -5.9404e-22 2.67381e-16
0.00798895 0.00634148 -0.00459724
2.71679e-18 1.00024e-19 -1.37251e-15
0.00727609 0.00595093 -0.00525462
2.24036e-18 7.9892e-23 -1.71052e-15
-3.50204e-19 1.75176e-21 2.67381e-16
0.0580628 0.0413508 -0.0227971
1.35547e-18 2.18651e-18 -1.71051e-15
0.008082 0.00656976 -0.00474074
0.00846446 0.00697289 -0.0108199
0.00866834 0.00613646 -0.103104
-4.19352e-13 -4.29475e-13 -1.92173e-15
0.00118944 0.00224979 -0.000365582
2.24034e-18 1.57895e-22 -1.71052e-15
-0.0441893 0.0436367 0.04339
2.81054e-18 1.02338e-21 -2.14593e-15
-3.96731e-05 8.95175e-06 -2.85687e-05
1.79759e-18 -1.84755e-23 -1.37249e-15
1.7976e-18 7.08063e-22 -1.37249e-15
-1.6755e-13 4.2394e-15 4.79436e-17
2.24035e-18 5.78344e-23 -1.71052e-15
2.24032e-18 4.60237e-21 -1.71052e-15
0.00736502 0.00601507 -0.00531148
2.24036e-18 -2.70057e-20 -1.71052e-15
-1.17084e-05 9.67731e-06 3.13042e-05
0.013626 0.00809755 -0.137202
-0.00174435 0.00624165 -0.0157637
2.24032e-18 -5.43843e-22 -1.71052e-15
-2.28108e-07 3.71556e-07 -2.99081e-10
2.81057e-18 1.9543e-21 -2.14593e-15
-0.00120835 -0.000357792 -0.0180111
0.00872856 0.00524413 -0.0714379
2.81056e-18 9.18454e-22 -2.14593e-15
2.24032e-18 -2.31067e-21 -1.71051e-15
1.79762e-18 1.95268e-21 -1.37251e-15
0.00719828 0.00678553 -0.00477685
-0.000740902 0.00112186 0.0111056
0.00727421 0.00598875 -0.00528735
2.80948e-18 1.02512e-20 -2.14593e-15
-3.50177e-19 -9.48541e-23 2.67382e-16
0.00896199 0.00511802 -0.250586
0.00675655 0.00686339 -0.00477681
1.91726e-17 8.36127e-17 -1.71049e-15
0.00119451 0.0012045 0.0113014
0.00728973 0.0226478 -0.19614
0.00949666 0.00673854 -0.034765
0.00727148 0.00601462 -0.00531066
0.0467525 -0.0482057 -0.190416
0.00806315 0.00658464 -0.00474738
-3.83519e-14 8.16585e-14 2.95887e-13
0.0107956 0.000720233 -0.0868621
1.44686e-08 3.23353e-09 1.89583e-11
-0.0163449 -0.0153418 -0.0154582
2.63847e-06 6.55328e-06 -7.65281e-07
2.81054e-18 -1.24533e-21 -2.14593e-15
2.24031e-18 -1.72006e-20 -1.71051e-15
0.0144078 0.00281921 0.000799419
0.000822962 0.00100601 -0.0116123
-0.0112133 0.067015 -0.202904
6.88232e-16 -4.57689e-15 -5.98175e-14
0.00104508 0.00154015 0.00148732
0.00743112 0.00730847 -0.00262871
-3.50195e-19 8.2354e-22 2.67381e-16
0.0162056 0.00565986 -0.0714327
2.46012e-11 3.21684e-11 -5.89461e-15
0.00798869 0.00634754 -0.00459867
-3.11585e-06 -5.31741e-06 1.38335e-07
1.79762e-18 -3.78088e-21 -1.37251e-15
1.79764e-18 6.98182e-21 -1.37251e-15
0.00457711 -0.00671908 -0.0176442
-5.024e-19 2.65305e-18 2.67381e-16
-0.00133494 -0.00401266 -0.00172327
1.79759e-18 -4.6703e-24 -1.37251e-15
-3.50213e-19 -1.10813e-20 2.67382e-16
1.79758e-18 4.01374e-21 -1.37249e-15
-0.00684457 -0.00406895 0.012838
0.00545951 -0.000330861 6.21853e-05
2.15305e-16 -5.22905e-17 -1.37221e-15
0.00877019 0.0065367 -0.055272
1.87814e-11 -7.42714e-12 -8.63735e-15
1.79757e-18 5.67889e-23 -1.37249e-15
-4.9296e-08 -4.55583e-08 -6.45856e-11
1.79762e-18 -3.16275e-22 -1.37251e-15
0.00605534 -0.000263848 0.000735735
3.882e-08 1.49262e-07 5.08255e-11
1.75803e-15 -1.57458e-14 7.05153e-16
0.007556 0.00604579 -0.00523389
0.052194 -0.105036 -0.0434478
0.0615431 0.00535727 -0.16995
1.79761e-18 -2.6156e-21 -1.37249e-15
-9.01437e-17 1.0105e-17 -1.37263e-15
0.00801232 0.00645245 -0.00466357
0.00715131 0.00666144 -0.00469837
0.00799036 0.00633777 -0.00459308
0.0728269 -0.00339384 0.0635121
0.00727549 0.006501 -0.00457105
2.24032e-18 -1.41298e-21 -1.71051e-15
0.000227908 -0.000375025 2.98489e-07
-2.82525e-15 1.87927e-14 2.4561e-13
-2.4797e-05 -4.48834e-05 -4.47941e-06
-1.3919e-15 4.39634e-16 7.01027e-16
0.00572945 -0.000201602 0.000672925
1.79761e-18 -3.85436e-22 -1.37249e-15
0.00856499 0.00574349 -0.152774
1.79764e-18 -5.66127e-22 -1.37251e-15
0.0335821 0.0456139 -0.111873
1.79756e-18 8.68574e-22 -1.37249e-15
0.0080048 0.00628067 -0.00456202
2.24033e-18 -9.34928e-22 -1.71052e-15
-3.30984e-07 -4.50304e-07 -4.33493e-10
0.00551771 -0.000159396 0.000630226
0.00567655 -0.000195698 0.000671542
-0.00498435 -0.0197119 -0.073069
0.0132451 0.00537736 -0.192868
-5.74109e-14 -2.31025e-19 -1.77479e-13
1.18176e-12 -1.13311e-12 -3.56752e-15
-3.5018e-19 -2.17713e-21 2.67382e-16
0.00800603 0.00627716 -0.00456086
0.0177082 -0.00319048 -0.266764
0.00727604 0.00647329 -0.00458915
0.00600508 -0.000727149 0.000218118
0.0060845 -0.000270855 0.000741232
0.00596605 -0.000714289 0.000214866
-3.50221e-19 8.83311e-23 2.67381e-16
0.00530297 0.0257503 0.0125173
0.00609123 -0.000554866 0.000444068
0.00597984 -0.000248713 0.000721314
0.00800263 0.00632867 -0.00458703
0.00337015 0.0194946 -0.239174
0.00602413 -0.000260846 0.000731366
0.00802217 0.00642954 -0.00465191
-0.00270874 0.0242461 -0.00129266
0.00595044 -0.000241167 0.000715086
0.00542283 -0.000332732 6.27012e-05
0.00601046 -0.000257932 0.000728666
-1.05049e-13 1.82286e-14 -1.5101e-15
2.9388e-19 3.40097e-19 2.67381e-16
0.00939064 0.00585867 -0.0848287
0.00588982 0.0571108 -0.140684
0.00565108 -0.000192061 0.000664457
0.0135979 -0.0644307 -0.0599136
0.026898 -0.0250906 -0.0211499
0.016455 0.000656076 -0.196933
0.0060399 -0.000261961 0.000733282
-0.00407367 0.0457898 -0.127532
0.00546092 -0.00032431 6.04351e-05
0.010501 0.0450718 -0.268007
0.00803631 0.00645614 -0.00466902
1.7976e-18 6.5887e-22 -1.37249e-15
0.000474313 1.84709e-05 -0.00397212
-0.00320306 -0.00294981 -0.002258
-1.42152e-06 3.56099e-07 -3.82403e-09
0.0056852 -0.000207026 0.000671881
0.00798174 0.00647731 -0.00467632
0.00563956 -0.000188253 0.000663205
0.0158461 0.00663274 -0.0144051
0.00801981 0.00641055 -0.00464006
0.00801105 0.0063039 -0.00457559
0.0372902 -0.011406 -0.300988
0.00550933 -0.000345323 7.14753e-05
8.71369e-19 2.29029e-21 -6.65298e-16
0.00609975 -0.000274377 0.000748737
0.00242064 0.00374777 -0.0149928
0.00711485 0.00648861 -0.00459186
0.0077755 0.00680493 -0.00486881
-0.0322103 -0.0601893 -0.138408
1.79757e-18 -9.26979e-22 -1.37249e-15
0.00817788 0.00788232 -0.0244273
1.36766e-05 -2.69759e-06 5.10175e-05
0.0310598 0.0242099 -0.00948341
0.00717677 0.00648037 -0.00459415
2.81055e-18 3.17111e-22 -2.14593e-15
0.00555715 -0.000359363 7.38896e-05
0.0080208 0.00628875 -0.00456925
1.79761e-18 2.04554e-21 -1.37249e-15
0.00607154 -0.000266555 0.000737524
0.0059952 -0.0002537 0.000725201
7.59912e-12 -6.72738e-13 -4.60932e-17

VECTORS force float
0.0 -7.11605e-27 0.0
0.0 1.16703e-25 0.0
0.0 -9.82871e-29 0.0
0.0 2.85417e-27 0.0
-2.87978e-25 7.19564e-25 0.0
0.0 -5.8784e-26 0.0
0.0 4.72614e-28 0.0
0.0 -4.83239e-27 0.0
2.07677e-11 -2.54153e-11 2.71654e-14
0.0 0.0 -1.43822e-09
0.0 -1.06479e-27 0.0
0.0 0.0 -1.43822e-09
-1.35052e-16 1.52166e-16 -3.23579e-17
0.0 3.634e-26 0.0
-4.03897e-28 -3.71121e-26 0.0
0.0 1.31047e-26 0.0
1.14166e-20 1.17613e-20 1.48893e-23
-2.69747e-12 -2.07121e-12 -3.53324e-15
0.0 1.30888e-25 0.0
0.0 -1.34933e-26 0.0
1.19384e-19 -7.1873e-20 1.56337e-22
-2.96167e-10 2.69894e-11 8.88714e-12
0.0 0.0 -1.43822e-09
0.0 -2.67911e-25 0.0
0.0 -3.9725e-26 0.0
0.0 -8.95961e-27 0.0
0.0 1.44504e-26 0.0
0.0 -6.47683e-26 0.0
0.0 -5.60294e-26 0.0
5.82219e-12 -1.11185e-12 -9.94672e-10
-3.17867e-25 -3.03969e-25 0.0
0.0 -2.62589e-27 0.0
-7.38798e-11 -3.51155e-11 -9.67643e-14
0.0 5.42431e-26 0.0
0.0 4.3779e-25 0.0
0.0 0.0 -1.43822e-09
-1.48717e-16 1.2917e-16 -2.83413e-17
-1.65607e-10 -3.11657e-10 8.19227e-11
4.03897e-28 9.07584e-27 0.0
0.0 -1.71181e-25 0.0
0.0 0.0 -1.43822e-09
6.47195e-12 1.89745e-12 -8.29316e-13
1.41443e-08 2.25924e-08 4.41351e-07
0.0 -4.89466e-25 0.0
0.0 -5.04119e-27 0.0
-1.98999e-15 -1.13802e-14 -2.81823e-18
-1.99339e-16 -5.94827e-16 -3.10794e-17
-4.00713e-11 -1.34068e-10 1.23938e-11
4.65289e-25 3.25702e-24 4.1359e-25
0.0 4.56072e-25 0.0
0.0 7.67453e-26 0.0
0.0 -1.07548e-26 0.0
0.0 -2.41894e-26 0.0
0.0 0.0 -1.43822e-09
0.0 -1.56564e-25 0.0
0.0 -6.04074e-28 0.0
3.67042e-11 1.57033e-11 -4.88945e-10
0.0 0.0 -1.43822e-09
8.07794e-28 -3.05404e-26 0.0
3.02095e-11 5.188e-11 -2.49795e-12
-1.41492e-10 -3.67342e-10 -1.84462e-10
4.03897e-28 -3.21257e-27 0.0
-3.05499e-22 3.16909e-22 -4.1359e-25
-9.44817e-11 6.07832e-11 -1.02937e-11
0.0 -6.47293e-26 0.0
-1.21577e-11 9.58969e-12 -4.16036e-12
0.0 0.0 -1.43822e-09
-4.03897e-28 -4.73937e-26 0.0
-5.52353e-23 2.16752e-22 0.0
0.0 0.0 -1.43822e-09
0.0 -9.83681e-27 0.0
0.0 0.0 -1.43822e-09
1.62777e-10 7.11007e-12 3.46162e-11
0.0 2.45955e-26 0.0
0.0 -7.21756e-26 0.0
1.46032e-10 3.58937e-10 -1.84046e-10
-1.01806e-11 1.06011e-10 1.75082e-09
0.0 0.0 -1.43822e-09
5.0109e-16 4.9932e-16 9.37874e-17
0.0 -2.48965e-25 0.0
-4.03897e-28 7.67091e-26 0.0
0.0 -1.51681e-25 0.0
0.0 -1.48158e-25 0.0
0.0 0.0 -1.43822e-09
0.0 0.0 -1.43822e-09
-4.10359e-25 6.39645e-26 0.0
0.0 0.0 -1.43822e-09
-2.03829e-21 8.4923e-22 -1.03398e-24
0.0 0.0 0.0
0.0 9.81555e-27 0.0
1.76378e-10 1.26818e-10 -9.65057e-11
-1.25491e-24 -1.5187e-24 0.0
5.04959e-11 7.80742e-11 -6.58803e-11
0.0 1.77296e-27 0.0
0.0 -8.9048e-27 0.0
0.0 0.0 -1.43822e-09
-9.16321e-24 2.33444e-23 0.0
9.96374e-10 -4.70392e-10 1.77931e-10
1.67123e-10 6.79218e-11 -9.05717e-10
0.0 0.0 -1.43822e-09
-1.21091e-18 -1.41959e-18 -1.58591e-21
1.41018e-10 2.47468e-12 1.10095e-11
0.0 5.2815e-27 0.0
0.0 0.0 -1.43822e-09
0.0 1.34149e-26 0.0
-1.03945e-10 3.46304e-11 5.53359e-11
0.0 -2.7089e-27 0.0
0.0 -1.56387e-26 0.0
3.95535e-18 -3.3097e-19 5.18043e-21
0.0 -3.11785e-29 0.0
0.0 5.47696e-26 0.0
-2.81952e-10 1.00158e-10 9.01831e-11
0.0 -1.65231e-25 0.0
6.88975e-10 -5.50474e-10 4.72221e-10
0.0 0.0 -1.43822e-09
0.0 0.0 -1.43822e-09
0.0 4.39641e-27 0.0
-6.65412e-13 1.199e-12 -8.68642e-16
0.0 -9.04427e-27 0.0
0.0 0.0 -1.43822e-09
0.0 0.0 -1.43822e-09
0.0 2.41904e-27 0.0
0.0 1.53407e-25 0.0
0.0 1.48179e-26 0.0
-1.78507e-11 -1.13391e-10 6.93164e-11
0.0 0.0 -1.43822e-09
-2.68456e-12 -4.60391e-12 -3.26686e-11
-3.63507e-27 -2.87328e-26 0.0
0.0 9.48927e-27 0.0
0.0 0.0 -1.43822e-09
3.16459e-11 2.10549e-10 -1.26258e-10
-6.14771e-23 -2.37352e-22 0.0
0.0 0.0 -1.43822e-09
0.0 0.0 -1.43822e-09
0.0 0.0 -1.43822e-09
-1.95431e-10 -5.59873e-12 5.20358e-11
0.0 0.0 -1.43822e-09
7.63674e-10 -4.63764e-10 1.92913e-10
-3.3917e-22 8.582e-24 -4.42542e-23
0.0 0.0 -1.43822e-09
5.44348e-13 1.27327e-13 7.13101e-16
0.0 0.0 -1.43822e-09
-1.71446e-11 -3.55912e-11 1.87984e-12
0.0 -2.4182e-26 0.0
0.0 2.63425e-25 0.0
0.0 0.0 -1.43822e-09
0.0 0.0 -1.43822e-09
0.0 0.0 -1.43822e-09
-3.90972e-25 -1.03398e-25 0.0
0.0 0.0 -1.43822e-09
6.52867e-12 9.95874e-11 -6.94827e-11
0.0 4.11083e-26 0.0
0.0 0.0 -1.43822e-09
-2.88757e-17 -6.87771e-17 -5.74668e-19
9.2019e-11 7.8935e-11 3.36353e-11
8.94091e-12 1.10013e-11 -1.35637e-12
0.0 -1.7911e-25 0.0
0.0 -1.40562e-25 0.0
0.0 0.0 -1.43822e-09
3.37617e-24 -3.07858e-23 0.0
0.0 0.0 -1.43822e-09