# vtk DataFile Version 3.0
LIGGGHTS particles timestep 25400000
ASCII
DATASET POLYDATA
POINTS 275 float
0.161584 0.0175883 0.00726148
0.161212 0.0179024 0.00714865
0.161143 0.0171783 0.00735014
0.160598 0.0155673 0.00869056
0.166864 0.0164367 0.0077562
0.160818 0.0162501 0.00785688
0.161064 0.0168006 0.0074525
0.167049 0.0171981 0.00742091
0.160717 0.0159389 0.00823483
0.16129 0.0182809 0.00704603
0.154679 0.0158978 0.00851126
0.160579 0.0155053 0.00876657
0.155083 0.016904 0.00749683
0.155534 0.0169455 0.00741066
0.160699 0.0158768 0.00831107
0.160559 0.0154434 0.00884258
0.161374 0.0174306 0.00729303
0.161045 0.0167108 0.00749215
0.155265 0.0169393 0.00740315
0.166986 0.0169135 0.00749147
0.160761 0.0160631 0.00808441
0.167092 0.0169626 0.0074926
0.155127 0.0168243 0.00745487
0.161217 0.0171149 0.00737283
0.16054 0.0153814 0.00891861
0.161026 0.0170553 0.00738765
0.160781 0.0161242 0.00800786
0.161015 0.0166248 0.00753338
0.166884 0.0164822 0.00766942
0.160677 0.0158151 0.00838656
0.161194 0.0170196 0.00739849
0.167091 0.0173878 0.00737387
0.161099 0.0169887 0.00740125
0.161238 0.0172097 0.00734721
0.167007 0.0170083 0.00746795
0.160638 0.0156921 0.00853928
0.160869 0.0163708 0.0077062
0.161259 0.0173042 0.00732166
0.166901 0.016534 0.00758555
0.160658 0.0157531 0.00846275
0.161309 0.0183756 0.00702029
0.167134 0.0171521 0.00744561
0.160965 0.0167895 0.00746267
0.160946 0.0166993 0.0075013
0.154661 0.0158476 0.00859592
0.166943 0.0167237 0.00753851
0.161469 0.0174622 0.00729004
0.155178 0.0167224 0.00757704
0.16088 0.0164554 0.007654
0.166922 0.0166289 0.00756203
0.378022 0.019866 0.005332
0.161333 0.0172411 0.00734429
0.160619 0.0156292 0.00861464
0.161279 0.0173989 0.00729602
0.161404 0.0184088 0.00701685
0.166964 0.0168186 0.00751499
0.155103 0.0171754 0.0074498
0.155154 0.0174683 0.00741349
0.161361 0.0177769 0.00719374
0.1613 0.0174934 0.00727045
0.161395 0.017525 0.00726746
0.167028 0.0171032 0.00744443
0.155348 0.016877 0.00743739
0.161476 0.0179041 0.00716488
0.160737 0.0160008 0.00815887
0.161071 0.0168987 0.00743431
0.155059 0.0166593 0.00762865
0.161266 0.0177453 0.00719673
0.154516 0.0154994 0.00918528
0.155137 0.0173702 0.00742093
0.161141 0.0173485 0.00738687
0.154737 0.0160483 0.00825826
0.155016 0.0162783 0.00784516
0.16707 0.0172929 0.00739739
0.155552 0.0170339 0.00736737
0.161121 0.0170837 0.00737563
0.160847 0.0163135 0.00778503
0.16126 0.0179847 0.00721829
0.161235 0.0178841 0.00724428
0.161304 0.0182509 0.00714044
0.154698 0.0159482 0.00842701
0.161382 0.0178717 0.00716811
0.161069 0.017241 0.0073276
0.161366 0.0182189 0.0070684
0.161279 0.0180878 0.00719355
0.161401 0.0179667 0.00714236
0.154628 0.0157469 0.00876532
0.161047 0.0171467 0.00735301
0.155217 0.0177555 0.00738847
0.16132 0.0175879 0.00724488
0.155266 0.0175976 0.00739107
0.0643568 0.0187248 0.00531097
0.24257 0.0191927 0.00520306
0.155401 0.0171535 0.00731283
0.154585 0.0156476 0.00893355
0.155308 0.0171234 0.00733127
0.154539 0.0155487 0.0091014
0.161415 0.0176195 0.00724189
0.160923 0.0166323 0.00757185
0.161191 0.0178079 0.00717422
0.161151 0.0176189 0.00722536
0.154645 0.0157971 0.00868065
0.155271 0.0173813 0.00731844
0.155269 0.0177629 0.00730331
0.161005 0.0169734 0.00744096
0.161489 0.0175567 0.00726447
0.161428 0.0172728 0.00734126
0.155189 0.0165405 0.0075984
0.161435 0.017714 0.00721632
0.160801 0.0161862 0.00793181
0.161605 0.0176828 0.00723591
0.161307 0.0179343 0.00714559
0.155442 0.0169102 0.00742458
0.16106 0.0172221 0.00742538
0.161354 0.0173359 0.00731863
0.154607 0.0156972 0.0088495
0.160985 0.0168852 0.00748381
0.161376 0.0180675 0.00720563
0.15538 0.0170572 0.00734906
0.155173 0.0175664 0.00740742
0.161164 0.0172728 0.00732457
0.161441 0.0181569 0.00709079
0.161456 0.0178088 0.0071907
0.161312 0.0171464 0.00736987
0.155167 0.0164527 0.00764118
0.161271 0.0181862 0.00707174
0.161625 0.0177781 0.00721009
0.161232 0.0179968 0.00712308
0.154976 0.0161786 0.00801363
0.154992 0.0162292 0.00792877
0.154563 0.0155981 0.00901758
0.155174 0.016911 0.00743792
0.154792 0.0161967 0.00800674
0.155252 0.0168502 0.00744692
0.154895 0.0162139 0.00796566
0.16111 0.0174299 0.0072765
0.155516 0.017282 0.00729255
0.155407 0.0176227 0.00729219
0.154942 0.0163318 0.00780353
0.154773 0.0161466 0.00809122
0.154934 0.016462 0.00762739
0.154771 0.0160947 0.00817666
0.0219312 0.0187687 0.00551176
0.155052 0.016389 0.00768308
0.161184 0.0173673 0.00729902
0.155363 0.0177939 0.00729062
0.155249 0.0181005 0.00729223
0.154962 0.0167741 0.00747335
0.155368 0.0174167 0.00730523
0.161328 0.0184704 0.00699456
0.155455 0.0169991 0.00738089
0.155422 0.0172514 0.00730525
0.155386 0.0175147 0.00729904
0.155443 0.0173493 0.00729881
0.161551 0.0178412 0.00718746
0.155161 0.0177112 0.00731851
0.161421 0.0180618 0.00711659
0.155108 0.0166457 0.00754294
0.155282 0.0170277 0.00735986
0.154869 0.0164126 0.00768505
0.155216 0.0175469 0.00731845
0.155553 0.0174867 0.00727989
0.161564 0.0174938 0.00728705
0.155328 0.0172211 0.00731794
0.161496 0.0179991 0.00713911
0.155263 0.0167035 0.00752028
0.155179 0.016635 0.00765129
0.161385 0.0183139 0.00704262
0.161246 0.0176508 0.0072223
0.16146 0.0182519 0.007065
0.149388 0.0183359 0.00702173
0.16113 0.0175244 0.00725093
0.155201 0.0179069 0.00730584
0.16151 0.0176512 0.0072389
0.154834 0.0163216 0.00785822
0.155315 0.0175849 0.00730485
0.155476 0.0170912 0.00733593
0.149177 0.0177472 0.00722388
0.155032 0.0163287 0.00776037
0.155225 0.0180037 0.00729902
0.154717 0.0159984 0.0083426
0.155291 0.0174798 0.00731208
0.15507 0.0164736 0.00763273
0.161341 0.0176824 0.00721931
0.15536 0.0169693 0.00739196
0.155008 0.0166214 0.00755108
0.155117 0.016735 0.00749887
0.154916 0.0162674 0.00787542
0.155092 0.0165656 0.00760062
0.155223 0.016795 0.00752497
0.161067 0.017125 0.0074486
0.161225 0.0175563 0.00724787
0.155348 0.0173187 0.0073115
0.161479 0.0183468 0.00703922
0.161205 0.0174618 0.00727344
0.14935 0.0181496 0.00708622
0.154958 0.0163782 0.00771557
0.16153 0.0177457 0.00721332
0.155289 0.0178607 0.00729696
0.161089 0.0173354 0.00730205
0.155273 0.0181975 0.00728547
0.160904 0.016542 0.00761068
0.155206 0.0166289 0.00755511
0.161171 0.0177134 0.00719979
0.155181 0.0178091 0.00731219
0.149312 0.0183962 0.0069992
0.149331 0.0180567 0.00711839
0.15522 0.0172485 0.00741384
0.15513 0.0171526 0.00734468
0.155337 0.0180544 0.00728335
0.155495 0.0171837 0.00729905
0.161287 0.0178398 0.00717116
0.155041 0.0171289 0.00738661
0.155102 0.0174178 0.00733772
0.155122 0.0175156 0.00733114
0.149063 0.0172465 0.00739706
0.149127 0.0175235 0.00730128
0.149042 0.0171542 0.00742899
0.154812 0.0162499 0.0079244
0.155299 0.0171874 0.00740773
0.149084 0.0173388 0.00736514
0.149293 0.0178709 0.00718272
0.155034 0.0167181 0.00755122
0.15525 0.0172835 0.00732489
0.149197 0.0178397 0.00719187
0.154997 0.0165351 0.00760038
0.161327 0.0180293 0.00711985
0.149236 0.018025 0.00712774
0.149407 0.0184287 0.0069896
0.149272 0.0177782 0.00721481
0.154493 0.01545 0.0092691
0.155182 0.0169885 0.0073754
0.154915 0.0166063 0.00766302
0.155176 0.017351 0.00733115
0.149255 0.0181178 0.00709562
0.155335 0.0176884 0.00731421
0.155156 0.0172529 0.00733791
0.155142 0.0176134 0.00732483
0.149231 0.0176685 0.00725246
0.154916 0.0165857 0.00756516
0.149473 0.0182856 0.00704089
0.155478 0.0175529 0.00728631
0.15495 0.0167667 0.007576
0.155093 0.0170786 0.00747299
0.155121 0.017272 0.00743139
0.161252 0.0180915 0.00709741
0.155462 0.0174472 0.00729253
0.149293 0.0183034 0.00703134
0.154978 0.0168632 0.00753036
0.149274 0.0182106 0.00706348
0.154984 0.0168618 0.00743058
0.154888 0.0165163 0.00769746
0.154999 0.0169526 0.00746965
0.155229 0.0171859 0.00733139
0.149312 0.0179638 0.00715055
0.149369 0.0182426 0.00705403
0.155313 0.0179575 0.00729015
0.149106 0.0174312 0.00733321
0.155082 0.0173202 0.00734718
0.155112 0.0170593 0.0073766
0.154941 0.0166863 0.00751612
0.155097 0.0169742 0.00742688
0.155242 0.0176523 0.00731109
0.154853 0.0163575 0.00776686
0.155149 0.0163652 0.00768601
0.155196 0.017449 0.00732477
0.155537 0.017381 0.00728611
0.155202 0.0170826 0.00733883
0.155062 0.0172234 0.00736162
0.149331 0.018489 0.00696706
0.155019 0.0170371 0.0074201
0.161571 0.0179366 0.00716162
0.149148 0.0176159 0.0072693
0.149217 0.0179323 0.00715984
0.161346 0.0181241 0.00709414

VERTICES 275 550
1 0
1 1
1 2
1 3
1 4
1 5
1 6
1 7
1 8
1 9
1 10
1 11
1 12
1 13
1 14
1 15
1 16
1 17
1 18
1 19
1 20
1 21
1 22
1 23
1 24
1 25
1 26
1 27
1 28
1 29
1 30
1 31
1 32
1 33
1 34
1 35
1 36
1 37
1 38
1 39
1 40
1 41
1 42
1 43
1 44
1 45
1 46
1 47
1 48
1 49
1 50
1 51
1 52
1 53
1 54
1 55
1 56
1 57
1 58
1 59
1 60
1 61
1 62
1 63
1 64
1 65
1 66
1 67
1 68
1 69
1 70
1 71
1 72
1 73
1 74
1 75
1 76
1 77
1 78
1 79
1 80
1 81
1 82
1 83
1 84
1 85
1 86
1 87
1 88
1 89
1 90
1 91
1 92
1 93
1 94
1 95
1 96
1 97
1 98
1 99
1 100
1 101
1 102
1 103
1 104
1 105
1 106
1 107
1 108
1 109
1 110
1 111
1 112
1 113
1 114
1 115
1 116
1 117
1 118
1 119
1 120
1 121
1 122
1 123
1 124
1 125
1 126
1 127
1 128
1 129
1 130
1 131
1 132
1 133
1 134
1 135
1 136
1 137
1 138
1 139
1 140
1 141
1 142
1 143
1 144
1 145
1 146
1 147
1 148
1 149
1 150
1 151
1 152
1 153
1 154
1 155
1 156
1 157
1 158
1 159
1 160
1 161
1 162
1 163
1 164
1 165
1 166
1 167
1 168
1 169
1 170
1 171
1 172
1 173
1 174
1 175
1 176
1 177
1 178
1 179
1 180
1 181
1 182
1 183
1 184
1 185
1 186
1 187
1 188
1 189
1 190
1 191
1 192
1 193
1 194
1 195
1 196
1 197
1 198
1 199
1 200
1 201
1 202
1 203
1 204
1 205
1 206
1 207
1 208
1 209
1 210
1 211
1 212
1 213
1 214
1 215
1 216
1 217
1 218
1 219
1 220
1 221
1 222
1 223
1 224
1 225
1 226
1 227
1 228
1 229
1 230
1 231
1 232
1 233
1 234
1 235
1 236
1 237
1 238
1 239
1 240
1 241
1 242
1 243
1 244
1 245
1 246
1 247
1 248
1 249
1 250
1 251
1 252
1 253
1 254
1 255
1 256
1 257
1 258
1 259
1 260
1 261
1 262
1 263
1 264
1 265
1 266
1 267
1 268
1 269
1 270
1 271
1 272
1 273
1 274

POINT_DATA 275
SCALARS id int 1
LOOKUP_TABLE default
1
2
4
5
6
7
8
9
10
11
12
13
14
16
17
19
21
22
23
24
25
26
27
28
29
30
31
32
33
34
35
36
37
38
39
41
42
44
45
47
48
49
50
51
52
53
54
55
56
57
59
60
61
62
63
64
65
66
67
68
69
70
71
72
73
74
76
77
78
79
80
82
83
84
85
86
87
88
89
90
91
92
93
94
95
96
97
98
99
100
101
102
103
104
105
106
107
108
109
110
111
112
113
114
115
116
117
118
119
120
121
122
123
124
125
127
128
129
130
131
132
133
134
135
136
137
138
140
141
142
143
144
146
147
148
149
150
151
153
154
155
156
157
158
159
160
162
164
165
166
167
168
169
170
171
172
173
174
176
177
178
179
182
183
184
185
186
187
188
189
190
191
192
193
194
195
196
197
198
199
200
201
202
203
204
205
206
207
208
209
210
211
212
213
214
215
216
217
218
219
220
222
224
225
226
227
228
229
230
232
233
234
235
236
237
239
240
241
242
243
244
246
247
248
249
250
251
252
253
254
255
256
257
258
259
260
261
262
263
264
265
266
267
268
269
270
271
272
273
274
275
276
277
278
279
280
281
283
284
285
286
287
288
289
290
291
292
293
294
295
296
297
298
299
300

SCALARS type int 1
LOOKUP_TABLE default
1
1
1
1
1
1
1
1
1
1
1
1
1
1
1
1
1
1
1
1
1
1
1
1
1
1
1
1
1
1
1
1
1
1
1
1
1
1
1
1
1
1
1
1
1
1
1
1
1
1
1
1
1
1
1
1
1
1
1
1
1
1
1
1
1
1
1
1
1
1
1
1
1
1
1
1
1
1
1
1
1
1
1
1
1
1
1
1
1
1
1
1
1
1
1
1
1
1
1
1
1
1
1
1
1
1
1
1
1
1
1
1
1
1
1
1
1
1
1
1
1
1
1
1
1
1
1
1
1
1
1
1
1
1
1
1
1
1
1
1
1
1
1
1
1
1
1
1
1
1
1
1
1
1
1
1
1
1
1
1
1
1
1
1
1
1
1
1
1
1
1
1
1
1
1
1
1
1
1
1
1
1
1
1
1
1
1
1
1
1
1
1
1
1
1
1
1
1
1
1
1
1
1
1
1
1
1
1
1
1
1
1
1
1
1
1
1
1
1
1
1
1
1
1
1
1
1
1
1
1
1
1
1
1
1
1
1
1
1
1
1
1
1
1
1
1
1
1
1
1
1
1
1
1
1
1
1
1
1
1
1
1
1
1
1
1
1
1
1
1
1
1
1
1
1

SCALARS radius float 1
LOOKUP_TABLE default
5e-05
5e-05
5e-05
5e-05
5e-05
5e-05
5e-05
5e-05
5e-05
5e-05
5e-05
5e-05
5e-05
5e-05
5e-05
5e-05
5e-05
5e-05
5e-05
5e-05
5e-05
5e-05
5e-05
5e-05
5e-05
5e-05
5e-05
5e-05
5e-05
5e-05
5e-05
5e-05
5e-05
5e-05
5e-05
5e-05
5e-05
5e-05
5e-05
5e-05
5e-05
5e-05
5e-05
5e-05
5e-05
5e-05
5e-05
5e-05
5e-05
5e-05
5e-05
5e-05
5e-05
5e-05
5e-05
5e-05
5e-05
5e-05
5e-05
5e-05
5e-05
5e-05
5e-05
5e-05
5e-05
5e-05
5e-05
5e-05
5e-05
5e-05
5e-05
5e-05
5e-05
5e-05
5e-05
5e-05
5e-05
5e-05
5e-05
5e-05
5e-05
5e-05
5e-05
5e-05
5e-05
5e-05
5e-05
5e-05
5e-05
5e-05
5e-05
5e-05
5e-05
5e-05
5e-05
5e-05
5e-05
5e-05
5e-05
5e-05
5e-05
5e-05
5e-05
5e-05
5e-05
5e-05
5e-05
5e-05
5e-05
5e-05
5e-05
5e-05
5e-05
5e-05
5e-05
5e-05
5e-05
5e-05
5e-05
5e-05
5e-05
5e-05
5e-05
5e-05
5e-05
5e-05
5e-05
5e-05
5e-05
5e-05
5e-05
5e-05
5e-05
5e-05
5e-05
5e-05
5e-05
5e-05
5e-05
5e-05
5e-05
5e-05
5e-05
5e-05
5e-05
5e-05
5e-05
5e-05
5e-05
5e-05
5e-05
5e-05
5e-05
5e-05
5e-05
5e-05
5e-05
5e-05
5e-05
5e-05
5e-05
5e-05
5e-05
5e-05
5e-05
5e-05
5e-05
5e-05
5e-05
5e-05
5e-05
5e-05
5e-05
5e-05
5e-05
5e-05
5e-05
5e-05
5e-05
5e-05
5e-05
5e-05
5e-05
5e-05
5e-05
5e-05
5e-05
5e-05
5e-05
5e-05
5e-05
5e-05
5e-05
5e-05
5e-05
5e-05
5e-05
5e-05
5e-05
5e-05
5e-05
5e-05
5e-05
5e-05
5e-05
5e-05
5e-05
5e-05
5e-05
5e-05
5e-05
5e-05
5e-05
5e-05
5e-05
5e-05
5e-05
5e-05
5e-05
5e-05
5e-05
5e-05
5e-05
5e-05
5e-05
5e-05
5e-05
5e-05
5e-05
5e-05
5e-05
5e-05
5e-05
5e-05
5e-05
5e-05
5e-05
5e-05
5e-05
5e-05
5e-05
5e-05
5e-05
5e-05
5e-05
5e-05
5e-05
5e-05
5e-05
5e-05
5e-05
5e-05
5e-05
5e-05
5e-05
5e-05
5e-05
5e-05
5e-05
5e-05
5e-05
5e-05
5e-05
5e-05
5e-05
5e-05
5e-05
5e-05
5e-05
5e-05
5e-05
5e-05
5e-05
5e-05
5e-05

SCALARS mass float 1
LOOKUP_TABLE default
1.46608e-10
1.46608e-10
1.46608e-10
1.46608e-10
1.46608e-10
1.46608e-10
1.46608e-10
1.46608e-10
1.46608e-10
1.46608e-10
1.46608e-10
1.46608e-10
1.46608e-10
1.46608e-10
1.46608e-10
1.46608e-10
1.46608e-10
1.46608e-10
1.46608e-10
1.46608e-10
1.46608e-10
1.46608e-10
1.46608e-10
1.46608e-10
1.46608e-10
1.46608e-10
1.46608e-10
1.46608e-10
1.46608e-10
1.46608e-10
1.46608e-10
1.46608e-10
1.46608e-10
1.46608e-10
1.46608e-10
1.46608e-10
1.46608e-10
1.46608e-10
1.46608e-10
1.46608e-10
1.46608e-10
1.46608e-10
1.46608e-10
1.46608e-10
1.46608e-10
1.46608e-10
1.46608e-10
1.46608e-10
1.46608e-10
1.46608e-10
1.46608e-10
1.46608e-10
1.46608e-10
1.46608e-10
1.46608e-10
1.46608e-10
1.46608e-10
1.46608e-10
1.46608e-10
1.46608e-10
1.46608e-10
1.46608e-10
1.46608e-10
1.46608e-10
1.46608e-10
1.46608e-10
1.46608e-10
1.46608e-10
1.46608e-10
1.46608e-10
1.46608e-10
1.46608e-10
1.46608e-10
1.46608e-10
1.46608e-10
1.46608e-10
1.46608e-10
1.46608e-10
1.46608e-10
1.46608e-10
1.46608e-10
1.46608e-10
1.46608e-10
1.46608e-10
1.46608e-10
1.46608e-10
1.46608e-10
1.46608e-10
1.46608e-10
1.46608e-10
1.46608e-10
1.46608e-10
1.46608e-10
1.46608e-10
1.46608e-10
1.46608e-10
1.46608e-10
1.46608e-10
1.46608e-10
1.46608e-10
1.46608e-10
1.46608e-10
1.46608e-10
1.46608e-10
1.46608e-10
1.46608e-10
1.46608e-10
1.46608e-10
1.46608e-10
1.46608e-10
1.46608e-10
1.46608e-10
1.46608e-10
1.46608e-10
1.46608e-10
1.46608e-10
1.46608e-10
1.46608e-10
1.46608e-10
1.46608e-10
1.46608e-10
1.46608e-10
1.46608e-10
1.46608e-10
1.46608e-10
1.46608e-10
1.46608e-10
1.46608e-10
1.46608e-10
1.46608e-10
1.46608e-10
1.46608e-10
1.46608e-10
1.46608e-10
1.46608e-10
1.46608e-10
1.46608e-10
1.46608e-10
1.46608e-10
1.46608e-10
1.46608e-10
1.46608e-10
1.46608e-10
1.46608e-10
1.46608e-10
1.46608e-10
1.46608e-10
1.46608e-10
1.46608e-10
1.46608e-10
1.46608e-10
1.46608e-10
1.46608e-10
1.46608e-10
1.46608e-10
1.46608e-10
1.46608e-10
1.46608e-10
1.46608e-10
1.46608e-10
1.46608e-10
1.46608e-10
1.46608e-10
1.46608e-10
1.46608e-10
1.46608e-10
1.46608e-10
1.46608e-10
1.46608e-10
1.46608e-10
1.46608e-10
1.46608e-10
1.46608e-10
1.46608e-10
1.46608e-10
1.46608e-10
1.46608e-10
1.46608e-10
1.46608e-10
1.46608e-10
1.46608e-10
1.46608e-10
1.46608e-10
1.46608e-10
1.46608e-10
1.46608e-10
1.46608e-10
1.46608e-10
1.46608e-10
1.46608e-10
1.46608e-10
1.46608e-10
1.46608e-10
1.46608e-10
1.46608e-10
1.46608e-10
1.46608e-10
1.46608e-10
1.46608e-10
1.46608e-10
1.46608e-10
1.46608e-10
1.46608e-10
1.46608e-10
1.46608e-10
1.46608e-10
1.46608e-10
1.46608e-10
1.46608e-10
1.46608e-10
1.46608e-10
1.46608e-10
1.46608e-10
1.46608e-10
1.46608e-10
1.46608e-10
1.46608e-10
1.46608e-10
1.46608e-10
1.46608e-10
1.46608e-10
1.46608e-10
1.46608e-10
1.46608e-10
1.46608e-10
1.46608e-10
1.46608e-10
1.46608e-10
1.46608e-10
1.46608e-10
1.46608e-10
1.46608e-10
1.46608e-10
1.46608e-10
1.46608e-10
1.46608e-10
1.46608e-10
1.46608e-10
1.46608e-10
1.46608e-10
1.46608e-10
1.46608e-10
1.46608e-10
1.46608e-10
1.46608e-10
1.46608e-10
1.46608e-10
1.46608e-10
1.46608e-10
1.46608e-10
1.46608e-10
1.46608e-10
1.46608e-10
1.46608e-10
1.46608e-10
1.46608e-10
1.46608e-10
1.46608e-10
1.46608e-10
1.46608e-10
1.46608e-10
1.46608e-10
1.46608e-10
1.46608e-10
1.46608e-10
1.46608e-10
1.46608e-10
1.46608e-10
1.46608e-10
1.46608e-10
1.46608e-10
1.46608e-10
1.46608e-10
1.46608e-10
1.46608e-10

VECTORS velocity float
0.00554733 -0.000619017 0.000527187
0.00559388 -0.000561623 0.000511113
0.00601842 -0.000536281 0.000531604
0.00536734 -7.70305e-05 0.000513333
0.00571919 -0.00154416 0.00124335
0.00606093 -0.000155904 0.000670407
0.00618987 -0.00054199 0.00054566
0.00564971 -0.00154062 0.0012164
0.00579982 -0.000152259 0.000639305
0.00532626 -0.000508131 0.000482097
0.00570387 -6.51683e-05 -0.000598171
0.00536004 -7.39543e-05 0.000508603
0.00626981 0.000457357 -1.08131e-05
0.00627805 0.000578029 -3.88963e-05
0.00562552 -0.000135943 0.000606462
0.00527889 -6.71278e-05 0.000494062
0.0055294 -0.000534091 0.000502097
0.00616111 -0.000698269 0.000190126
0.00633617 0.000511014 -4.00882e-06
0.00573777 -0.00155619 0.00123294
0.005866 -0.000149798 0.000647798
0.00572365 -0.00152524 0.00122235
0.00632187 0.000494244 2.12893e-06
0.00596584 -0.000612718 0.000551747
0.00531378 -7.04755e-05 0.000500874
0.00604551 -0.000584357 0.000522241
0.00590886 -0.00015167 0.000648407
0.00605013 -0.000726025 4.84204e-05
0.00581477 -0.0015644 0.00125588
0.00539585 -0.000108366 0.000549394
0.00610256 -0.000516408 0.000532848
0.00559091 -0.00153022 0.00120528
0.00611936 -0.00051826 0.000535085
0.00600418 -0.00052015 0.000527556
0.00570843 -0.00155098 0.00122738
0.00536808 -9.45388e-05 0.000534222
0.00611438 -0.000163289 0.00068072
0.00573154 -0.000379221 0.000470346
0.00585856 -0.00157623 0.00125446
0.00531399 -9.27547e-05 0.000529313
0.00535896 -0.000499776 0.000481623
0.005665 -0.00151493 0.00121128
0.0061556 -0.000615885 5.53369e-05
0.0060578 -0.000614797 1.20522e-06
0.00578308 -8.59952e-05 -0.000579411
0.00579642 -0.00156648 0.0012439
0.00553941 -0.000574989 0.000512871
0.00633478 0.00049254 -2.40975e-06
0.0061663 -0.000213258 0.000616512
0.00582541 -0.00157235 0.00124963
-5.01944e-15 -7.41203e-15 7.69802e-14
0.00582921 -0.0002622 0.000443374
0.00537709 -8.4457e-05 0.000523154
0.00553662 -0.000526397 0.000503159
0.00539631 -0.000490435 0.000480745
0.00576716 -0.00156125 0.00123848
0.00634973 0.000482704 -7.26375e-05
0.00621794 0.000402397 -0.000755971
0.00555788 -0.000602827 0.00052401
0.00554396 -0.000523709 0.000499903
0.00556149 -0.000550398 0.000508281
0.00567905 -0.0015458 0.00122186
0.00628887 0.000558267 -2.71467e-05
0.00552906 -0.000391042 0.00046078
0.0058654 -0.000155475 0.000650076
0.00614542 -0.000534831 0.000526971
0.00632035 0.000509211 1.69192e-05
0.00557152 -0.00055821 0.000510282
0.00615558 -0.000148126 -0.000517471
0.00634983 0.000387584 -0.000703978
0.0057604 -0.000572008 0.000634474
0.00585706 -0.000100884 -0.000572753
0.00655778 3.24948e-05 -0.000861839
0.0056204 -0.00153549 0.00121076
0.00627919 0.000582764 -4.16118e-05
0.00605377 -0.000553926 0.000538531
0.00604933 -0.000133631 0.000683101
0.00560761 -0.00058384 0.000519052
0.00553411 -0.000604041 0.000509586
0.00538265 -0.000499069 0.000480027
0.00574153 -8.52389e-05 -0.000597184
0.00561048 -0.000595524 0.000524518
0.00598984 -0.000561444 0.000536474
0.00541127 -0.000426229 0.000465011
0.00548476 -0.000504059 0.000475987
0.00554675 -0.000364846 0.000454396
0.00601196 -0.000129009 -0.000531197
0.00602506 -0.000570211 0.000541046
0.00594061 0.00044703 -0.000733908
0.00557483 -0.000538658 0.000505284
0.00606911 0.000485752 -0.000731273
4.56357e-15 1.04373e-14 8.29525e-14
2.18379e-22 2.24983e-22 1.23839e-22
0.00629077 0.000355528 -0.00081997
0.00628667 -0.000173257 -0.000491986
0.00624492 0.000374309 -0.000806568
0.00619704 -0.000157167 -0.000508096
0.005581 -0.000557605 0.000511536
0.00615495 -0.000406485 0.000227202
0.00558559 -0.000550261 0.000507914
0.00555648 -0.000514841 0.000497445
0.00588505 -0.000105539 -0.000554961
0.00620599 0.000365964 -0.000766867
0.00595918 0.000359581 -0.000737719
0.00609151 -0.000599524 0.000508555
0.00556422 -0.000584191 0.000517319
0.00585417 -0.000184858 0.000423108
0.00636322 0.000527794 -3.16857e-06
0.00554537 -0.000623249 0.000528416
0.00601016 -0.000160608 0.000659286
0.00557413 -0.000662306 0.000540734
0.00561683 -0.000578416 0.000520149
0.00626696 0.000597523 -5.38588e-05
0.00600495 -0.000565971 0.000539354
0.0057158 -0.000321145 0.000453347
0.00619977 -0.000161527 -0.000501048
0.00607869 -0.000665683 0.000368583
0.00549859 -0.000444271 0.000456204
0.00624781 0.000573435 -3.53288e-05
0.00609158 0.000428589 -0.000724956
0.00584169 -0.00065861 0.000557128
0.00545195 -0.000382578 0.000453525
0.00560899 -0.000610569 0.00052853
0.005936 -0.000573815 0.000538663
0.0063833 0.00053973 -2.82873e-05
0.00544955 -0.00054096 0.000496004
0.00546474 -0.000484244 0.000483282
0.00561675 -0.000565987 0.000516346
0.00639148 5.99253e-05 -0.00089262
0.00635424 6.90313e-05 -0.000902187
0.00625245 -0.000167841 -0.000497065
0.00632384 0.000501354 2.15424e-06
0.00607688 -0.000129016 -0.000517876
0.00631927 0.000507604 -1.10329e-06
0.00618582 -8.81007e-05 -0.000616263
0.00563458 -0.00050015 0.000496628
0.00624173 0.000510523 -0.000778463
0.0060416 0.00039608 -0.000752555
0.00656269 -5.05943e-05 -0.000849379
0.00600704 -0.000120624 -0.00054127
0.00635903 0.000475934 2.52451e-05
0.0059381 -0.000114224 -0.000545368
-3.8359e-14 8.16473e-14 2.9589e-13
0.0064057 3.82277e-05 -0.00089862
0.00554887 -0.000577966 0.000516545
0.00600028 0.000282875 -0.000739792
0.0064748 0.000264991 -0.000798635
0.00637067 0.000470532 1.64803e-05
0.00613755 0.000430159 -0.000762467
0.00538739 -0.00049902 0.000482433
0.00626862 0.000597029 -4.95055e-05
0.00625417 0.000430657 -0.000777815
0.00603017 0.000466045 -0.000750346
0.00619266 0.00043581 -0.000769995
0.00550776 -0.00042504 0.000469498
0.00599141 0.000381713 -0.000741349
0.00554589 -0.000465943 0.000483104
0.00632875 0.000492765 6.34929e-07
0.00588015 0.000881566 -0.000200696
0.00636003 0.000391508 -3.72376e-05
0.00610702 0.000448173 -0.000760308
0.00612533 0.000478336 -0.000763679
0.00554624 -0.00060601 0.000523565
0.00625001 0.000361929 -0.000791544
0.0055753 -0.000454272 0.000482553
0.0063367 0.000515095 -6.83411e-06
0.0063464 0.000588125 -2.72305e-05
0.00540113 -0.000462335 0.000473445
0.00557289 -0.000542575 0.000506506
0.00541957 -0.000451035 0.000470966
0.00537038 -0.000646677 0.000325758
0.00556113 -0.000495746 0.000492707
0.0058579 0.000406052 -0.000727175
0.00556315 -0.000607061 0.000524672
0.00628489 7.51237e-05 -0.000215814
0.00602389 0.000433496 -0.000748194
0.00626332 0.000584072 -3.77368e-05
0.00553341 -0.000690863 0.00034405
0.00656543 2.88387e-05 -0.000859326
0.0064693 0.000255191 -0.000797089
0.0057957 -0.000100548 -0.000584491
0.00614635 0.000436 -0.000769958
0.00637829 0.000308622 -0.000467577
0.00557068 -0.000559774 0.000511364
0.00633645 0.000553177 -2.62987e-05
0.00636886 0.000472925 2.15561e-05
0.00632546 0.000498187 4.85364e-06
0.00639544 3.00044e-05 -0.000847946
0.00635365 0.000497613 8.17172e-06
0.00632126 0.00050367 -9.47475e-07
0.00604692 -0.000564241 0.000540255
0.00555437 -0.000515165 0.000497495
0.00622139 0.000379561 -0.000773139
0.00541653 -0.000468636 0.000475698
0.00553461 -0.000501075 0.000493799
0.00529497 -0.000650836 0.000325622
0.00642494 -3.97093e-05 -0.000692248
0.0056058 -0.000624902 0.000532357
0.00604104 0.000346215 -0.00074772
0.0059315 -0.0005521 0.000528831
0.00626116 0.000315719 -0.000773057
0.00615512 -0.000298356 0.000458756
0.00634898 0.000513434 -7.37256e-06
0.00557352 -0.000533926 0.000504226
0.0059538 0.000384306 -0.000737643
0.00537287 -0.000639285 0.000323651
0.00527689 -0.000631622 0.000318546
0.00622897 0.0002274 -0.000770459
0.0056348 0.000550867 -0.00050451
0.00647199 0.000246969 -0.000796746
0.00625263 0.000438893 -0.000796161
0.00558127 -0.000574213 0.000516877
0.00624844 0.000477825 1.67326e-05
0.00617789 0.000365614 -0.000767032
0.00612254 0.000379068 -0.000766326
0.00586324 -0.000752119 0.000371759
0.00579589 -0.000719012 0.000358765
0.00588928 -0.000763496 0.000375865
0.00613455 -3.59594e-05 -0.000416807
0.00620027 8.25146e-05 -0.000924871
0.00584309 -0.000736923 0.000365778
0.00536689 -0.000645927 0.000325219
0.00632581 0.000484579 1.71875e-05
0.00622101 0.000351342 -0.000776352
0.0055563 -0.000692205 0.000345151
0.00636459 0.000480727 2.33076e-05
0.00554521 -0.000375072 0.00045772
0.0053936 -0.0006542 0.000328692
0.00542429 -0.000658907 0.000330784
0.00556566 -0.000685875 0.000342944
0.00633365 -0.000179219 -0.000488701
0.00630373 0.000503153 -2.06586e-06
0.00638248 0.000470024 5.64553e-05
0.00620236 0.000357693 -0.000769807
0.0052746 -0.000635343 0.000319775
0.00605188 0.000421392 -0.000799754
0.00621685 0.000353584 -0.000786895
0.00606827 0.00037496 -0.000752168
0.00552965 -0.000693711 0.000345074
0.00637951 0.00042975 4.59731e-05
0.00538125 -0.000635339 0.000321746
0.00608135 0.000429302 -0.000755038
0.00624644 0.000376078 4.97961e-05
0.00628505 0.000499214 -1.11807e-05
0.00651024 0.000389477 -0.000446718
0.00542176 -0.000527969 0.000493454
0.0061378 0.00044414 -0.000764065
0.00533611 -0.000642484 0.000323078
0.00636292 0.000426038 1.36985e-05
0.00530384 -0.000641209 0.000322196
0.00635876 0.000476484 1.23223e-05
0.00632829 0.000488228 8.81909e-05
0.00631329 0.000477667 1.2931e-05
0.00621748 0.000355092 -0.000965726
0.00540958 -0.000636594 0.000322782
0.00532506 -0.000653543 0.000327077
0.00648092 0.000249439 -0.000797942
0.00581831 -0.00072774 0.000362226
0.00622076 0.000368907 -0.000622347
0.00627382 0.000486546 -1.47859e-06
0.00637199 0.000456586 2.37228e-05
0.00626799 0.000467216 -5.03057e-06
0.0060362 0.000449087 -0.000748865
0.00632498 0.000239778 -0.000136219
0.00641886 8.01236e-05 -0.000938911
0.00615564 0.000399767 -0.000775005
0.00615857 0.000531199 -0.00077043
0.00589311 0.000625261 -0.00112035
0.00623181 0.000420235 -0.000229188
0.00543666 -0.000645738 0.000326412
0.00628871 0.000470048 1.64423e-05
0.00564981 -0.000388536 0.000467339
0.00551014 -0.000662076 0.000333508
0.00535995 -0.000652927 0.00032748
0.00550915 -0.000491039 0.000487186

VECTORS force float
2.78027e-10 1.47608e-10 -1.9336e-11
8.69512e-12 3.11607e-11 -1.76897e-11
-3.80344e-10 2.92962e-10 -1.32382e-10
1.19674e-10 1.16328e-10 -1.3424e-10
-5.85379e-12 1.04463e-11 1.32483e-11
6.51064e-11 -4.33209e-11 -5.16757e-12
6.76691e-11 1.72482e-10 1.19464e-11
2.01578e-13 2.69104e-13 -3.94134e-13
-1.80554e-10 -6.00156e-11 1.54963e-11
9.05787e-11 -2.69854e-12 5.66386e-11
2.20636e-10 6.57923e-11 4.53388e-11
5.75121e-11 2.15248e-10 -2.5469e-10
2.37247e-10 2.41586e-10 -1.81288e-12
-2.34938e-10 -7.44916e-11 3.74315e-11
-4.57916e-10 -7.21272e-11 4.53849e-11
-2.24395e-10 3.19905e-10 -4.49997e-10
3.47763e-12 -2.47899e-11 3.91154e-11
-4.34394e-11 7.98713e-11 -7.19766e-11
-1.07357e-10 -2.44391e-11 -8.09098e-11
5.09493e-14 1.04119e-12 3.62883e-13
5.55512e-11 -4.3066e-12 4.03574e-11
5.09428e-14 3.00726e-13 -2.97806e-14
1.47186e-10 7.30313e-11 9.11436e-11
-2.12074e-10 2.48073e-10 -9.10731e-11
1.88202e-11 4.32264e-10 -5.19114e-10
-1.04665e-11 2.64924e-11 -3.09021e-10
5.41791e-11 -6.17196e-11 9.50764e-12
-8.70842e-11 3.89751e-11 -5.66961e-11
-4.18153e-12 1.00895e-11 -1.98669e-11
-1.85849e-10 -1.32011e-10 1.58456e-10
-3.64675e-11 1.57391e-11 -3.40254e-11
-1.61949e-12 7.48189e-13 1.84456e-12
-7.31362e-11 2.05116e-10 -9.39409e-11
-1.18379e-10 4.92598e-10 -1.52494e-10
-4.69908e-13 7.3197e-14 -8.51683e-13
-2.98946e-12 -1.42747e-10 1.1779e-10
-3.83399e-10 6.2503e-11 -1.1639e-11
-6.01473e-10 -2.71428e-10 4.055e-11
-1.17323e-10 7.04479e-11 -2.61306e-11
8.09359e-11 -1.61583e-10 2.11093e-10
-1.20892e-10 -1.41428e-10 9.95084e-12
-4.93782e-13 2.65528e-13 8.568e-14
1.02433e-10 2.03327e-10 5.1397e-10
5.6483e-11 3.58473e-11 9.5582e-11
4.25945e-10 1.9214e-11 6.47741e-11
-2.41739e-12 -8.29413e-12 1.63341e-12
3.10865e-11 4.85884e-11 -7.69717e-12
3.39336e-10 -4.65831e-11 -1.08229e-10
-1.23142e-10 5.75509e-11 7.06451e-11
8.9213e-12 5.92132e-12 5.01751e-12
-3.51552e-24 1.21492e-24 -2.06795e-25
-7.40183e-10 2.96688e-10 -1.32072e-10
3.27032e-11 -4.51151e-11 3.7959e-12
8.33824e-12 -3.51963e-10 1.31818e-10
-8.06428e-11 -2.70469e-10 6.74383e-11
1.35509e-12 1.10316e-12 -5.3863e-13
-7.21651e-11 -5.17697e-11 2.9315e-10
-5.3057e-11 1.0771e-10 -2.03402e-10
2.1099e-10 3.36166e-10 -9.93368e-11
-1.24378e-10 -1.46612e-10 4.95882e-11
3.1598e-11 -1.39028e-11 2.45172e-12
-2.88972e-13 3.61858e-13 6.05429e-13
1.05714e-10 1.38642e-14 5.3976e-11
7.79241e-11 -1.12928e-10 3.78535e-11
-3.41186e-11 -2.43237e-11 2.46537e-11
-2.08476e-10 2.4534e-10 -4.94813e-11
4.44209e-10 2.69395e-11 8.54896e-11
-3.79507e-11 -5.28854e-12 -4.92643e-14
-9.68487e-11 -1.44449e-10 2.53118e-10
1.01502e-10 -5.5267e-12 5.29279e-12
-1.40097e-10 1.96984e-10 4.55707e-12
-3.12072e-10 -2.51953e-10 2.22009e-10
-4.47902e-10 3.35909e-10 -4.28548e-10
7.61822e-14 9.56199e-14 -2.54288e-12
-8.35477e-11 -1.4825e-10 4.83423e-11
1.0704e-10 2.92416e-10 -9.31568e-11
-2.15457e-10 -2.10175e-13 -3.18674e-11
-5.46677e-11 -2.19628e-10 3.46543e-11
1.27193e-10 7.7944e-11 -2.66431e-11
2.4514e-10 -9.35145e-11 3.84809e-11
6.05375e-10 -2.16507e-10 2.08913e-10
9.76164e-11 -3.84986e-11 7.79521e-12
-5.16682e-10 1.86358e-10 -7.45347e-11
9.16108e-11 4.22512e-11 -1.56259e-11
2.99078e-11 7.5356e-12 -4.24767e-11
9.93232e-11 -1.16649e-10 4.01976e-11
3.38288e-10 -1.04436e-10 1.37017e-10
-1.40214e-10 7.44584e-11 -2.53372e-11
-3.28915e-10 2.53668e-11 8.92632e-11
1.49545e-11 -5.19001e-11 1.07214e-11
3.85622e-11 5.23667e-11 8.30644e-11
2.10094e-21 -7.73647e-22 -1.55096e-23
-3.23117e-27 0.0 0.0
-7.52458e-11 -1.23974e-10 -2.1033e-10
-9.82277e-11 -4.19276e-11 8.30635e-11
-5.6128e-11 2.508e-10 1.72569e-10
2.78852e-11 -1.3199e-10 2.08133e-10
2.63971e-11 1.08791e-10 -2.58922e-11
-8.4314e-11 -3.94194e-11 -9.62897e-11