# vtk DataFile Version 3.0
LIGGGHTS particles timestep 72800000
ASCII
DATASET POLYDATA
POINTS 267 float
0.383991 0.018743 5.17586e-05
0.384819 0.0170553 5.28427e-05
0.384087 0.0172099 5.18841e-05
0.38485 0.0177728 5.2884e-05
0.384289 0.0192285 5.21489e-05
0.384427 0.0170974 5.23295e-05
0.383731 0.0178959 5.14179e-05
0.384909 0.0174916 5.29614e-05
0.383705 0.0185838 5.13839e-05
0.384274 0.0169453 5.213e-05
0.384609 0.0178943 5.25685e-05
0.383937 0.0189513 8.69758e-05
0.384166 0.0169334 5.1988e-05
0.384566 0.0170745 5.25117e-05
0.384704 0.0183371 5.2693e-05
0.384375 0.0179486 5.22621e-05
0.385006 0.0203197 5.3088e-05
0.38429 0.0178938 5.21501e-05
0.384317 0.0180308 5.21862e-05
0.384369 0.0166304 5.22533e-05
0.383765 0.0178016 5.14632e-05
0.384682 0.0173846 0.000130728
0.38392 0.0176635 5.16661e-05
0.384334 0.0168628 5.2208e-05
0.38458 0.0173478 5.25303e-05
0.384267 0.018175 5.21197e-05
0.384809 0.0175939 5.28295e-05
0.384554 0.0172495 5.24957e-05
0.38474 0.0177115 5.27396e-05
0.383862 0.0177748 5.15892e-05
0.383928 0.0185154 5.16766e-05
0.384806 0.0179346 5.28267e-05
0.384295 0.0179641 0.000123125
0.383664 0.0197976 5.13305e-05
0.38332 0.0192284 0.00522714
0.384012 0.018459 5.17866e-05
0.384188 0.017154 5.20161e-05
0.393384 0.0173396 0.00800085
0.383611 0.0181742 5.1261e-05
0.384194 0.0185569 5.20241e-05
0.384353 0.0181246 5.22331e-05
0.383985 0.019032 5.17502e-05
0.38427 0.0217777 5.21238e-05
0.3849 0.0167228 5.29491e-05
0.384094 0.0196551 5.18938e-05
0.383596 0.0188939 5.12421e-05
0.384074 0.0171039 5.18678e-05
0.38361 0.0192266 5.12599e-05
0.378022 0.019866 0.005332
0.384997 0.0170277 5.3077e-05
0.384469 0.0166233 5.23854e-05
0.385119 0.0166834 5.32362e-05
0.383572 0.0182666 5.12106e-05
0.38415 0.0174668 5.19668e-05
0.384314 0.0196963 5.21813e-05
0.38401 0.0186182 5.17838e-05
0.384443 0.0179216 0.000120816
0.383601 0.0187724 5.12477e-05
0.383695 0.0199014 5.13714e-05
0.383708 0.0192011 5.13883e-05
0.383848 0.0178769 5.15715e-05
0.384751 0.0204726 5.27548e-05
0.384789 0.0203241 5.2804e-05
0.384148 0.0172907 5.19645e-05
0.384899 0.0180553 5.29479e-05
0.384454 0.0177342 5.23646e-05
0.384159 0.0206443 5.19783e-05
0.383985 0.017428 5.1751e-05
0.384471 0.0161368 5.23876e-05
0.384894 0.0205458 5.29418e-05
0.383993 0.0188764 5.17615e-05
0.383849 0.0193448 5.15725e-05
0.383935 0.0179283 5.16858e-05
0.384931 0.0175954 5.29902e-05
0.383272 0.0191349 0.0052273
0.38382 0.0176837 5.15355e-05
0.384046 0.0179367 5.18308e-05
0.384723 0.0172283 5.27177e-05
0.384191 0.017054 5.20202e-05
0.383736 0.0207666 5.1425e-05
0.383683 0.0188356 5.13558e-05
0.384606 0.0176837 5.25637e-05
0.38444 0.0183063 5.23472e-05
0.383724 0.0194164 5.14094e-05
0.384303 0.0183686 5.21674e-05
0.384848 0.0173718 5.28812e-05
0.384322 0.0214999 5.21918e-05
0.0643568 0.0187248 0.00531097
0.24257 0.0191927 0.00520306
0.384443 0.0190455 5.23502e-05
0.384764 0.0176468 0.000125094
0.383893 0.0187182 5.16305e-05
0.385147 0.0177812 0.000122873
0.383662 0.0180867 5.13271e-05
0.384177 0.0192838 5.20024e-05
0.384493 0.0193015 5.24162e-05
0.384709 0.0176058 5.26985e-05
0.384647 0.0185896 5.26184e-05
0.383921 0.0178347 0.00010527
0.384105 0.0183256 5.19082e-05
0.38367 0.0183173 5.13384e-05
0.383786 0.0180677 5.14897e-05
0.384446 0.0168712 5.23543e-05
0.383701 0.0187017 5.13793e-05
0.383906 0.018619 5.16476e-05
0.384144 0.01791 5.19592e-05
0.384817 0.0185465 5.28405e-05
0.384225 0.0179695 5.20647e-05
0.383933 0.0192279 5.16831e-05
0.384096 0.0170045 5.18952e-05
0.384626 0.016764 5.25911e-05
0.384295 0.018231 0.000129802
0.384383 0.0169852 5.22722e-05
0.383806 0.0179676 5.15164e-05
0.383859 0.0175842 5.15859e-05
0.38345 0.0177196 0.00536012
0.384418 0.0164926 5.23174e-05
0.383591 0.0185347 5.12355e-05
0.383574 0.0183691 5.12127e-05
0.383667 0.0199993 5.13343e-05
0.384475 0.0176309 5.23931e-05
0.383925 0.0184105 5.16721e-05
0.384418 0.0178531 5.23181e-05
0.384798 0.0171606 5.28155e-05
0.384313 0.0171449 5.21807e-05
0.385769 0.0165473 5.40881e-05
0.384333 0.0177947 5.22067e-05
0.384385 0.0195542 5.22753e-05
0.384085 0.018684 5.18824e-05
0.384719 0.0170987 5.27125e-05
0.383894 0.0174902 5.16321e-05
0.384744 0.0173967 5.27447e-05
0.383756 0.0184867 5.14508e-05
0.384727 0.0201861 5.27225e-05
0.384074 0.0170516 0.000137426
0.384584 0.0177681 0.000101539
0.384544 0.0163094 5.24825e-05
0.384233 0.0168376 5.20754e-05
0.0219312 0.0187687 0.00551176
0.384319 0.0167636 5.21878e-05
0.384228 0.0177075 5.20694e-05
0.38353 0.0176621 0.00537757
0.38396 0.0191288 5.17179e-05
0.384146 0.0189135 5.19615e-05
0.384895 0.0168866 5.2943e-05
0.384921 0.0196039 5.29764e-05
0.383956 0.019484 5.17133e-05
0.383755 0.019009 5.14493e-05
0.383888 0.0184727 0.00523166
0.384004 0.0193816 5.17764e-05
0.384121 0.0171522 0.000126213
0.384268 0.0190399 5.21214e-05
0.384105 0.0178224 7.97669e-05
0.384124 0.018008 5.19332e-05
0.38435 0.018262 5.22293e-05
0.384053 0.0189567 5.184e-05
0.3843 0.0186551 5.2163e-05
0.384992 0.0180145 5.30695e-05
0.386759 0.0152483 5.53836e-05
0.383617 0.019327 5.12691e-05
0.384403 0.0192492 5.22987e-05
0.384249 0.018274 5.20972e-05
0.38373 0.0197118 5.14173e-05
0.385076 0.0179467 5.31802e-05
0.38396 0.0177554 5.17178e-05
0.383867 0.0210849 5.15964e-05
0.384706 0.0184769 5.26952e-05
0.384023 0.0181084 5.1801e-05
0.383672 0.0184195 5.13415e-05
0.384122 0.0182248 5.1931e-05
0.383967 0.0181955 5.17273e-05
0.384122 0.0181236 5.19307e-05
0.383676 0.0181534 0.000124512
0.383816 0.019228 5.15292e-05
0.38465 0.0174377 5.26211e-05
0.3851 0.0177266 5.32113e-05
0.385006 0.0158243 5.30884e-05
0.385094 0.0174355 5.32031e-05
0.384504 0.0179623 5.24301e-05
0.384109 0.0184302 5.19127e-05
0.384524 0.0174713 5.24569e-05
0.38435 0.0178614 0.000125081
0.385023 0.0181691 5.31107e-05
0.385037 0.0175739 5.31289e-05
0.383886 0.018028 5.16209e-05
0.384526 0.016716 5.24592e-05
0.384505 0.0171609 5.24316e-05
0.383978 0.0185238 0.00522879
0.383846 0.0191172 5.15692e-05
0.384625 0.017537 5.25895e-05
0.385553 0.0152374 5.38047e-05
0.384411 0.0184417 5.23083e-05
0.384302 0.0165156 5.21656e-05
0.384399 0.0186101 5.22929e-05
0.384943 0.0187045 5.30057e-05
0.384205 0.0180675 5.20391e-05
0.384058 0.0177382 5.18467e-05
0.384811 0.0174713 5.28328e-05
0.383884 0.0196254 5.16191e-05
0.384574 0.0160758 5.25222e-05
0.384056 0.0180406 0.000117497
0.384183 0.0194731 5.201e-05
0.385084 0.0171004 5.31901e-05
0.38345 0.0186594 0.00522432
0.384483 0.016964 5.24031e-05
0.384564 0.0189811 5.25095e-05
0.385129 0.0178507 5.32485e-05
0.385096 0.0164501 5.32056e-05
0.383933 0.0187648 0.000130442
0.384687 0.0169933 5.26707e-05
0.384262 0.0177729 0.000119547
0.384801 0.0166583 5.28192e-05
0.383909 0.0188216 5.16519e-05
0.38439 0.0209101 5.22816e-05
0.384493 0.0173689 9.64047e-05
0.38382 0.0188681 5.15345e-05
0.384541 0.017902 0.000125062
0.383639 0.0189866 5.12974e-05
0.38453 0.020178 5.24643e-05
0.384661 0.0178084 5.26366e-05
0.384005 0.0178448 5.17769e-05
0.384145 0.0205426 5.19607e-05
0.383856 0.0203056 5.15822e-05
0.38515 0.0175249 5.32762e-05
0.383703 0.0182157 5.13821e-05
0.384352 0.0191511 5.22319e-05
0.384531 0.0168171 5.24664e-05
0.383662 0.0204201 5.13284e-05
0.384524 0.0216685 5.24571e-05
0.384677 0.0173224 5.2657e-05
0.383833 0.0185505 5.15522e-05
0.384455 0.0172873 5.2367e-05
0.384148 0.018808 5.1965e-05
0.383874 0.0192744 0.000117813
0.384664 0.0180562 5.26402e-05
0.383681 0.0195344 5.13528e-05
0.384035 0.0173399 5.18167e-05
0.384513 0.0181523 5.24423e-05
0.383985 0.018016 5.17508e-05
0.384204 0.0178183 5.2038e-05
0.384204 0.0183848 5.20381e-05
0.384044 0.0177752 0.000143609
0.38425 0.0173241 5.20975e-05
0.383762 0.0206306 5.14594e-05
0.385192 0.0170617 5.33312e-05
0.3843 0.0175031 5.2164e-05
0.384989 0.0177301 5.30663e-05
0.384608 0.0171655 5.25668e-05
0.383746 0.0191087 5.14383e-05
0.384897 0.0194055 5.2945e-05
0.384732 0.0167368 5.27299e-05
0.383859 0.0194467 5.15855e-05
0.384511 0.017816 5.24399e-05
0.384761 0.017818 5.27671e-05
0.384417 0.0167417 5.23161e-05
0.384905 0.0179551 5.29553e-05
0.38472 0.0175079 6.94547e-05
0.38371 0.0179981 5.13903e-05
0.384101 0.0193494 5.19028e-05
0.384429 0.0174321 5.23324e-05
0.383845 0.0189654 5.1567e-05
0.383647 0.0190875 5.13083e-05
0.384035 0.0172167 0.000137258
0.383829 0.0183804 5.15472e-05
0.384428 0.0175321 5.23311e-05
0.38404 0.0171308 0.000188309
0.383994 0.0172487 5.17625e-05

VERTICES 267 534
1 0
1 1
1 2
1 3
1 4
1 5
1 6
1 7
1 8
1 9
1 10
1 11
1 12
1 13
1 14
1 15
1 16
1 17
1 18
1 19
1 20
1 21
1 22
1 23
1 24
1 25
1 26
1 27
1 28
1 29
1 30
1 31
1 32
1 33
1 34
1 35
1 36
1 37
1 38
1 39
1 40
1 41
1 42
1 43
1 44
1 45
1 46
1 47
1 48
1 49
1 50
1 51
1 52
1 53
1 54
1 55
1 56
1 57
1 58
1 59
1 60
1 61
1 62
1 63
1 64
1 65
1 66
1 67
1 68
1 69
1 70
1 71
1 72
1 73
1 74
1 75
1 76
1 77
1 78
1 79
1 80
1 81
1 82
1 83
1 84
1 85
1 86
1 87
1 88
1 89
1 90
1 91
1 92
1 93
1 94
1 95
1 96
1 97
1 98
1 99
1 100
1 101
1 102
1 103
1 104
1 105
1 106
1 107
1 108
1 109
1 110
1 111
1 112
1 113
1 114
1 115
1 116
1 117
1 118
1 119
1 120
1 121
1 122
1 123
1 124
1 125
1 126
1 127
1 128
1 129
1 130
1 131
1 132
1 133
1 134
1 135
1 136
1 137
1 138
1 139
1 140
1 141
1 142
1 143
1 144
1 145
1 146
1 147
1 148
1 149
1 150
1 151
1 152
1 153
1 154
1 155
1 156
1 157
1 158
1 159
1 160
1 161
1 162
1 163
1 164
1 165
1 166
1 167
1 168
1 169
1 170
1 171
1 172
1 173
1 174
1 175
1 176
1 177
1 178
1 179
1 180
1 181
1 182
1 183
1 184
1 185
1 186
1 187
1 188
1 189
1 190
1 191
1 192
1 193
1 194
1 195
1 196
1 197
1 198
1 199
1 200
1 201
1 202
1 203
1 204
1 205
1 206
1 207
1 208
1 209
1 210
1 211
1 212
1 213
1 214
1 215
1 216
1 217
1 218
1 219
1 220
1 221
1 222
1 223
1 224
1 225
1 226
1 227
1 228
1 229
1 230
1 231
1 232
1 233
1 234
1 235
1 236
1 237
1 238
1 239
1 240
1 241
1 242
1 243
1 244
1 245
1 246
1 247
1 248
1 249
1 250
1 251
1 252
1 253
1 254
1 255
1 256
1 257
1 258
1 259
1 260
1 261
1 262
1 263
1 264
1 265
1 266

POINT_DATA 267
SCALARS id int 1
LOOKUP_TABLE default
1
2
4
6
7
8
9
10
11
12
13
14
16
17
19
21
22
23
24
25
26
27
28
29
30
31
32
33
34
35
36
37
38
39
42
44
45
47
48
49
50
51
52
53
54
55
56
57
59
60
62
63
64
65
66
67
68
69
70
71
72
73
74
76
77
78
79
80
82
83
84
85
86
87
88
89
90
91
92
93
94
95
96
98
99
100
101
102
103
104
105
106
107
108
109
110
111
112
113
114
115
116
117
118
119
120
121
122
123
124
125
127
128
129
130
131
132
133
134
135
136
137
138
140
141
142
143
144
146
147
148
149
150
151
153
154
155
156
157
158
159
160
162
165
166
167
168
169
170
171
172
173
174
176
177
178
179
182
183
184
185
186
187
188
189
190
191
192
193
194
195
196
197
198
199
200
201
202
203
204
205
206
207
208
209
210
211
212
213
214
215
217
218
219
220
222
224
225
226
227
228
229
230
232
233
234
235
236
237
239
240
241
242
243
244
246
247
248
249
250
251
252
253
254
255
256
257
258
259
260
261
262
263
264
265
266
267
268
269
270
271
272
273
274
275
276
277
278
280
281
283
284
285
286
287
288
290
291
292
293
294
295
296
297
298
299
300

SCALARS type int 1
LOOKUP_TABLE default
1
1
1
1
1
1
1
1
1
1
1
1
1
1
1
1
1
1
1
1
1
1
1
1
1
1
1
1
1
1
1
1
1
1
1
1
1
1
1
1
1
1
1
1
1
1
1
1
1
1
1
1
1
1
1
1
1
1
1
1
1
1
1
1
1
1
1
1
1
1
1
1
1
1
1
1
1
1
1
1
1
1
1
1
1
1
1
1
1
1
1
1
1
1
1
1
1
1
1
1
1
1
1
1
1
1
1
1
1
1
1
1
1
1
1
1
1
1
1
1
1
1
1
1
1
1
1
1
1
1
1
1
1
1
1
1
1
1
1
1
1
1
1
1
1
1
1
1
1
1
1
1
1
1
1
1
1
1
1
1
1
1
1
1
1
1
1
1
1
1
1
1
1
1
1
1
1
1
1
1
1
1
1
1
1
1
1
1
1
1
1
1
1
1
1
1
1
1
1
1
1
1
1
1
1
1
1
1
1
1
1
1
1
1
1
1
1
1
1
1
1
1
1
1
1
1
1
1
1
1
1
1
1
1
1
1
1
1
1
1
1
1
1
1
1
1
1
1
1
1
1
1
1
1
1
1
1
1
1
1
1
1
1
1
1
1
1

SCALARS radius float 1
LOOKUP_TABLE default
5e-05
5e-05
5e-05
5e-05
5e-05
5e-05
5e-05
5e-05
5e-05
5e-05
5e-05
5e-05
5e-05
5e-05
5e-05
5e-05
5e-05
5e-05
5e-05
5e-05
5e-05
5e-05
5e-05
5e-05
5e-05
5e-05
5e-05
5e-05
5e-05
5e-05
5e-05
5e-05
5e-05
5e-05
5e-05
5e-05
5e-05
5e-05
5e-05
5e-05
5e-05
5e-05
5e-05
5e-05
5e-05
5e-05
5e-05
5e-05
5e-05
5e-05
5e-05
5e-05
5e-05
5e-05
5e-05
5e-05
5e-05
5e-05
5e-05
5e-05
5e-05
5e-05
5e-05
5e-05
5e-05
5e-05
5e-05
5e-05
5e-05
5e-05
5e-05
5e-05
5e-05
5e-05
5e-05
5e-05
5e-05
5e-05
5e-05
5e-05
5e-05
5e-05
5e-05
5e-05
5e-05
5e-05
5e-05
5e-05
5e-05
5e-05
5e-05
5e-05
5e-05
5e-05
5e-05
5e-05
5e-05
5e-05
5e-05
5e-05
5e-05
5e-05
5e-05
5e-05
5e-05
5e-05
5e-05
5e-05
5e-05
5e-05
5e-05
5e-05
5e-05
5e-05
5e-05
5e-05
5e-05
5e-05
5e-05
5e-05
5e-05
5e-05
5e-05
5e-05
5e-05
5e-05
5e-05
5e-05
5e-05
5e-05
5e-05
5e-05
5e-05
5e-05
5e-05
5e-05
5e-05
5e-05
5e-05
5e-05
5e-05
5e-05
5e-05
5e-05
5e-05
5e-05
5e-05
5e-05
5e-05
5e-05
5e-05
5e-05
5e-05
5e-05
5e-05
5e-05
5e-05
5e-05
5e-05
5e-05
5e-05
5e-05
5e-05
5e-05
5e-05
5e-05
5e-05
5e-05
5e-05
5e-05
5e-05
5e-05
5e-05
5e-05
5e-05
5e-05
5e-05
5e-05
5e-05
5e-05
5e-05
5e-05
5e-05
5e-05
5e-05
5e-05
5e-05
5e-05
5e-05
5e-05
5e-05
5e-05
5e-05
5e-05
5e-05
5e-05
5e-05
5e-05
5e-05
5e-05
5e-05
5e-05
5e-05
5e-05
5e-05
5e-05
5e-05
5e-05
5e-05
5e-05
5e-05
5e-05
5e-05
5e-05
5e-05
5e-05
5e-05
5e-05
5e-05
5e-05
5e-05
5e-05
5e-05
5e-05
5e-05
5e-05
5e-05
5e-05
5e-05
5e-05
5e-05
5e-05
5e-05
5e-05
5e-05
5e-05
5e-05
5e-05
5e-05
5e-05
5e-05
5e-05
5e-05
5e-05
5e-05
5e-05
5e-05
5e-05
5e-05
5e-05
5e-05
5e-05
5e-05
5e-05
5e-05
5e-05
5e-05
5e-05
5e-05
5e-05
5e-05
5e-05
5e-05
5e-05
5e-05
5e-05
5e-05

SCALARS mass float 1
LOOKUP_TABLE default
1.46608e-10
1.46608e-10
1.46608e-10
1.46608e-10
1.46608e-10
1.46608e-10
1.46608e-10
1.46608e-10
1.46608e-10
1.46608e-10
1.46608e-10
1.46608e-10
1.46608e-10
1.46608e-10
1.46608e-10
1.46608e-10
1.46608e-10
1.46608e-10
1.46608e-10
1.46608e-10
1.46608e-10
1.46608e-10
1.46608e-10
1.46608e-10
1.46608e-10
1.46608e-10
1.46608e-10
1.46608e-10
1.46608e-10
1.46608e-10
1.46608e-10
1.46608e-10
1.46608e-10
1.46608e-10
1.46608e-10
1.46608e-10
1.46608e-10
1.46608e-10
1.46608e-10
1.46608e-10
1.46608e-10
1.46608e-10
1.46608e-10
1.46608e-10
1.46608e-10
1.46608e-10
1.46608e-10
1.46608e-10
1.46608e-10
1.46608e-10
1.46608e-10
1.46608e-10
1.46608e-10
1.46608e-10
1.46608e-10
1.46608e-10
1.46608e-10
1.46608e-10
1.46608e-10
1.46608e-10
1.46608e-10
1.46608e-10
1.46608e-10
1.46608e-10
1.46608e-10
1.46608e-10
1.46608e-10
1.46608e-10
1.46608e-10
1.46608e-10
1.46608e-10
1.46608e-10
1.46608e-10
1.46608e-10
1.46608e-10
1.46608e-10
1.46608e-10
1.46608e-10
1.46608e-10
1.46608e-10
1.46608e-10
1.46608e-10
1.46608e-10
1.46608e-10
1.46608e-10
1.46608e-10
1.46608e-10
1.46608e-10
1.46608e-10
1.46608e-10
1.46608e-10
1.46608e-10
1.46608e-10
1.46608e-10
1.46608e-10
1.46608e-10
1.46608e-10
1.46608e-10
1.46608e-10
1.46608e-10
1.46608e-10
1.46608e-10
1.46608e-10
1.46608e-10
1.46608e-10
1.46608e-10
1.46608e-10
1.46608e-10
1.46608e-10
1.46608e-10
1.46608e-10
1.46608e-10
1.46608e-10
1.46608e-10
1.46608e-10
1.46608e-10
1.46608e-10
1.46608e-10
1.46608e-10
1.46608e-10
1.46608e-10
1.46608e-10
1.46608e-10
1.46608e-10
1.46608e-10
1.46608e-10
1.46608e-10
1.46608e-10
1.46608e-10
1.46608e-10
1.46608e-10
1.46608e-10
1.46608e-10
1.46608e-10
1.46608e-10
1.46608e-10
1.46608e-10
1.46608e-10
1.46608e-10
1.46608e-10
1.46608e-10
1.46608e-10
1.46608e-10
1.46608e-10
1.46608e-10
1.46608e-10
1.46608e-10
1.46608e-10
1.46608e-10
1.46608e-10
1.46608e-10
1.46608e-10
1.46608e-10
1.46608e-10
1.46608e-10
1.46608e-10
1.46608e-10
1.46608e-10
1.46608e-10
1.46608e-10
1.46608e-10
1.46608e-10
1.46608e-10
1.46608e-10
1.46608e-10
1.46608e-10
1.46608e-10
1.46608e-10
1.46608e-10
1.46608e-10
1.46608e-10
1.46608e-10
1.46608e-10
1.46608e-10
1.46608e-10
1.46608e-10
1.46608e-10
1.46608e-10
1.46608e-10
1.46608e-10
1.46608e-10
1.46608e-10
1.46608e-10
1.46608e-10
1.46608e-10
1.46608e-10
1.46608e-10
1.46608e-10
1.46608e-10
1.46608e-10
1.46608e-10
1.46608e-10
1.46608e-10
1.46608e-10
1.46608e-10
1.46608e-10
1.46608e-10
1.46608e-10
1.46608e-10
1.46608e-10
1.46608e-10
1.46608e-10
1.46608e-10
1.46608e-10
1.46608e-10
1.46608e-10
1.46608e-10
1.46608e-10
1.46608e-10
1.46608e-10
1.46608e-10
1.46608e-10
1.46608e-10
1.46608e-10
1.46608e-10
1.46608e-10
1.46608e-10
1.46608e-10
1.46608e-10
1.46608e-10
1.46608e-10
1.46608e-10
1.46608e-10
1.46608e-10
1.46608e-10
1.46608e-10
1.46608e-10
1.46608e-10
1.46608e-10
1.46608e-10
1.46608e-10
1.46608e-10
1.46608e-10
1.46608e-10
1.46608e-10
1.46608e-10
1.46608e-10
1.46608e-10
1.46608e-10
1.46608e-10
1.46608e-10
1.46608e-10
1.46608e-10
1.46608e-10
1.46608e-10
1.46608e-10
1.46608e-10
1.46608e-10
1.46608e-10
1.46608e-10
1.46608e-10
1.46608e-10
1.46608e-10
1.46608e-10
1.46608e-10
1.46608e-10
1.46608e-10
1.46608e-10
1.46608e-10
1.46608e-10
1.46608e-10
1.46608e-10
1.46608e-10
1.46608e-10
1.46608e-10
1.46608e-10
1.46608e-10

VECTORS velocity float
7.86969e-19 1.20525e-21 -5.98258e-16
-9.20519e-19 -6.61154e-21 7.02844e-16
-5.05558e-20 2.93478e-21 2.78085e-17
4.86628e-19 1.19141e-21 -3.71585e-16
2.81054e-18 -5.29231e-22 -2.14593e-15
2.24031e-18 1.44891e-21 -1.71051e-15
2.24033e-18 -1.88342e-21 -1.71052e-15
1.79758e-18 3.67214e-21 -1.37249e-15
2.81056e-18 -1.44886e-21 -2.14593e-15
2.24032e-18 7.07641e-22 -1.71052e-15
8.04402e-13 2.29317e-12 4.32896e-13
5.35495e-19 -8.70113e-22 -4.06398e-16
2.24036e-18 1.62028e-23 -1.71052e-15
2.24036e-18 -1.95743e-22 -1.71052e-15
1.79762e-18 2.87387e-20 -1.37251e-15
1.99958e-12 1.1632e-12 1.1586e-12
8.71361e-19 -1.01226e-20 -6.65298e-16
-7.20104e-13 1.44296e-13 -1.49684e-13
-6.02512e-14 4.562e-14 -5.5957e-14
2.24033e-18 -2.57207e-21 -1.71051e-15
2.24036e-18 -9.76553e-23 -1.71051e-15
-1.20045e-19 -8.53563e-21 9.01985e-17
2.24035e-18 -1.18557e-21 -1.71052e-15
2.24033e-18 5.9344e-21 -1.71052e-15
-1.23459e-19 1.27382e-21 9.01851e-17
1.63123e-20 -8.89218e-22 -7.47559e-18
1.06147e-19 4.83291e-21 -7.99245e-17
2.24031e-18 7.47173e-23 -1.71052e-15
1.05394e-19 -3.60695e-21 -7.99197e-17
-2.17604e-19 -2.18947e-21 1.69475e-16
-3.50221e-19 1.31102e-21 2.67381e-16
1.79764e-18 -6.76191e-21 -1.37251e-15
-1.50117e-13 -1.77688e-13 -2.34471e-13
-3.50205e-19 -5.9896e-22 2.67381e-16
1.28259e-16 6.56586e-20 3.78515e-14
1.79764e-18 -6.76028e-23 -1.37251e-15
-3.88549e-20 -4.27281e-21 2.78366e-17
2.09673e-09 -0.0216312 0.0105634
-8.00765e-19 -3.0698e-22 6.08849e-16
1.79759e-18 6.26885e-22 -1.37251e-15
1.79758e-18 6.3782e-22 -1.37249e-15
5.35607e-19 -1.5182e-22 -4.06396e-16
2.00505e-18 -2.4057e-21 -1.5309e-15
2.24033e-18 3.11072e-21 -1.71052e-15
2.81055e-18 7.48261e-22 -2.14593e-15
2.81057e-18 -1.32418e-22 -2.14593e-15
-3.84115e-20 1.52198e-22 2.78518e-17
-3.50219e-19 -5.35647e-21 2.67381e-16
-5.01949e-15 -7.41224e-15 7.69802e-14
2.24034e-18 7.07522e-21 -1.71052e-15
2.24031e-18 3.09873e-21 -1.71052e-15
2.24035e-18 -7.90194e-21 -1.71052e-15
1.79756e-18 3.2888e-23 -1.37249e-15
2.24032e-18 -6.12093e-21 -1.71052e-15
-3.50199e-19 3.15378e-20 2.67381e-16
-3.50192e-19 -6.68369e-22 2.67382e-16
2.51688e-12 -1.23045e-11 -8.01339e-13
2.81059e-18 5.40592e-22 -2.14593e-15
-3.50206e-19 2.64415e-21 2.67381e-16
2.81057e-18 1.68248e-21 -2.14593e-15
-2.18734e-19 -9.78226e-22 1.69475e-16
2.00507e-18 -1.0372e-21 -1.5309e-15
8.71332e-19 -1.51592e-21 -6.65298e-16
2.24034e-18 2.671e-22 -1.71052e-15
1.7976e-18 -3.84231e-22 -1.37249e-15
2.24033e-18 9.256e-23 -1.71052e-15
2.00505e-18 4.15125e-21 -1.5309e-15
2.24035e-18 -4.0958e-21 -1.71051e-15
2.24036e-18 -4.67544e-21 -1.71051e-15
2.00508e-18 9.72056e-22 -1.5309e-15
5.32343e-19 -6.61987e-21 -4.06404e-16
1.03568e-19 -3.96662e-22 -8.03914e-17
-9.20525e-19 4.72884e-22 7.02843e-16
1.79758e-18 -1.27721e-21 -1.37249e-15
1.28258e-16 -6.66376e-21 3.78515e-14
2.24032e-18 -4.43887e-21 -1.71051e-15
2.24031e-18 -4.57981e-22 -1.71052e-15
2.24035e-18 8.90631e-22 -1.71052e-15
-9.2056e-19 -6.48037e-22 7.02843e-16
-1.1557e-18 4.65367e-22 8.82406e-16
-3.50211e-19 6.77989e-21 2.67383e-16
4.89369e-19 3.18186e-21 -3.71584e-16
1.79764e-18 -1.12411e-23 -1.37251e-15
-3.50207e-19 8.03543e-22 2.67382e-16
1.79755e-18 3.80627e-21 -1.37249e-15
2.24034e-18 -2.23269e-21 -1.71052e-15
2.00507e-18 -4.73276e-21 -1.5309e-15
4.42451e-15 1.04054e-14 8.29636e-14
-7.91558e-23 4.86658e-23 1.23839e-22
-3.50188e-19 3.28742e-23 2.67381e-16
1.17785e-19 5.95337e-21 -7.99311e-17
7.79461e-19 3.00793e-21 -5.98255e-16
-8.24881e-21 -3.69163e-21 -2.81824e-21
-7.97965e-19 3.64882e-21 6.0885e-16
2.81058e-18 -9.40508e-21 -2.14593e-15
2.81059e-18 -8.36906e-23 -2.14593e-15
1.06902e-19 -3.84154e-22 -7.99326e-17
1.79763e-18 -6.88356e-22 -1.37251e-15
-2.23121e-19 1.43892e-20 1.69473e-16
1.79761e-18 1.08886e-20 -1.37249e-15
1.79762e-18 4.00169e-22 -1.37251e-15
2.24034e-18 -6.84283e-22 -1.71052e-15
-9.2522e-19 2.35335e-21 7.02812e-16
-3.50222e-19 -3.59567e-22 2.67381e-16
7.84121e-19 4.53956e-22 -5.98253e-16
2.3379e-14 -8.89486e-15 -1.27734e-14
1.7976e-18 4.68699e-21 -1.37251e-15
2.0849e-14 7.73846e-14 -9.48547e-14
1.05166e-19 1.69293e-21 -8.03881e-17
2.60115e-21 -9.49013e-21 -4.17044e-19
2.24033e-18 -6.37237e-22 -1.71052e-15
1.54118e-20 1.36221e-20 -7.47673e-18
-9.20562e-19 -1.4202e-21 7.02842e-16
-2.20826e-19 -1.60278e-22 1.69475e-16
2.24034e-18 8.15726e-22 -1.71052e-15
1.63547e-17 2.72259e-14 8.96525e-14
2.24031e-18 -9.74267e-22 -1.71052e-15
-3.502e-19 -1.89633e-20 2.67382e-16
2.81058e-18 2.22527e-21 -2.14593e-15
2.81057e-18 4.0251e-22 -2.14593e-15
-9.20554e-19 -1.36647e-20 7.02843e-16
1.79756e-18 -2.49948e-23 -1.37249e-15
-3.22722e-12 -2.11097e-12 -1.31201e-12
2.24033e-18 1.70811e-21 -1.71052e-15
2.24033e-18 -1.08298e-20 -1.71052e-15
1.45281e-18 -5.45105e-21 -1.10923e-15
-5.10591e-19 -2.58226e-21 3.87842e-16
-3.5019e-19 -9.13576e-21 2.67381e-16
2.81059e-18 -1.41391e-21 -2.14593e-15
2.24031e-18 1.96619e-20 -1.71052e-15
2.24033e-18 1.48188e-21 -1.71052e-15
-1.19757e-19 3.68948e-21 9.02083e-17
2.81059e-18 2.5806e-21 -2.14593e-15
8.71334e-19 -1.29724e-20 -6.65298e-16
-4.79027e-21 -1.26663e-20 -1.01534e-20
4.93123e-19 4.02839e-21 -3.71579e-16
-9.20569e-19 1.91063e-20 7.02844e-16
2.24032e-18 2.02187e-22 -1.71051e-15
-3.84454e-14 8.1615e-14 2.95887e-13
2.24036e-18 -5.56935e-20 -1.71052e-15
-5.13399e-19 3.51336e-21 3.87837e-16
-3.11848e-17 2.71654e-14 8.96709e-14
-3.50178e-19 -3.41269e-22 2.6738e-16
-3.50202e-19 -5.76532e-21 2.6738e-16
-9.20553e-19 -3.59127e-20 7.02845e-16
8.71361e-19 1.54092e-21 -6.65297e-16
2.81058e-18 -1.07664e-21 -2.14593e-15
2.81055e-18 -1.9652e-22 -2.14593e-15
6.88245e-16 -4.5769e-15 -5.98175e-14
2.81055e-18 -7.19038e-22 -2.14593e-15
-4.55005e-20 5.01511e-21 2.7846e-17
-3.50209e-19 1.02165e-21 2.67381e-16
-4.20347e-15 1.39392e-15 -7.68523e-15
5.02206e-15 -2.18259e-15 -2.86663e-15
1.45743e-20 -2.15755e-22 -7.47398e-18
2.81056e-18 -3.78712e-22 -2.14593e-15
1.79759e-18 5.63649e-21 -1.37251e-15
1.79763e-18 -1.6941e-21 -1.37251e-15
1.45285e-18 -1.75895e-21 -1.10923e-15
2.81058e-18 -5.83807e-22 -2.14593e-15
-3.50212e-19 1.40124e-21 2.67381e-16
1.14818e-20 -3.40683e-22 -7.47483e-18
-3.50187e-19 1.22199e-21 2.67381e-16
1.7976e-18 1.89428e-20 -1.37249e-15
2.24034e-18 -7.35801e-22 -1.71051e-15
-1.15568e-18 1.64394e-20 8.82406e-16
1.79759e-18 1.55095e-21 -1.37249e-15
5.44008e-15 -2.52654e-15 -3.00878e-15
-3.50169e-19 1.60279e-21 2.67382e-16
1.7976e-18 2.5045e-20 -1.37249e-15
1.79759e-18 -1.31899e-21 -1.37251e-15
1.7976e-18 4.41221e-23 -1.37249e-15
-8.10414e-19 2.14876e-21 6.08853e-16
1.08955e-19 8.20712e-23 -8.03862e-17
-1.17459e-19 -2.57645e-21 9.01927e-17
-5.63914e-22 3.18074e-21 1.10769e-20
1.45283e-18 9.16527e-22 -1.10923e-15
1.79764e-18 -1.36502e-22 -1.37251e-15
1.6137e-13 -3.97784e-12 4.8123e-13
1.79761e-18 6.25318e-24 -1.37251e-15
2.24037e-18 3.68547e-21 -1.71052e-15
-4.69562e-12 -2.76952e-13 -1.42293e-12
1.7976e-18 -2.42523e-23 -1.37251e-15
1.79756e-18 -1.03907e-21 -1.37249e-15
6.95377e-16 -5.52192e-16 2.00713e-15
2.24033e-18 7.98093e-22 -1.71051e-15
2.24033e-18 7.77352e-21 -1.71052e-15
-2.82526e-15 1.87927e-14 2.4561e-13
2.81056e-18 1.10651e-21 -2.14593e-15
8.68844e-20 -4.74126e-23 -7.992e-17
1.45285e-18 -2.45907e-21 -1.10923e-15
1.7976e-18 -1.06944e-21 -1.37251e-15
-9.20572e-19 4.33295e-21 7.02843e-16
1.7976e-18 -7.19719e-21 -1.37251e-15
1.79764e-18 3.38038e-22 -1.37251e-15
-1.9163e-14 -2.26603e-14 -2.4046e-14
-9.98011e-15 1.10264e-14 -2.66842e-15
1.06413e-19 1.7446e-22 -7.99125e-17
-3.50167e-19 1.70174e-21 2.67381e-16
2.24031e-18 5.10059e-21 -1.71052e-15
1.37884e-15 5.78119e-15 -1.4448e-15
-3.50193e-19 -4.04158e-21 2.67382e-16
-9.20561e-19 1.96215e-21 7.02844e-16
-5.74109e-14 3.03541e-19 -1.77479e-13
-9.16011e-19 -2.02093e-21 7.02812e-16
-3.5021e-19 3.55547e-21 2.67382e-16
1.11177e-22 -8.43281e-22 -2.2895e-21
-9.20563e-19 -1.55455e-20 7.02842e-16
7.69834e-19 4.10347e-21 -5.98258e-16
2.24031e-18 4.03843e-22 -1.71051e-15
-5.17049e-19 -1.32737e-20 3.87837e-16
2.24031e-18 -1.87708e-21 -1.71051e-15
7.81515e-19 2.28287e-21 -5.98258e-16
2.00505e-18 -3.28635e-20 -1.5309e-15
-1.20031e-19 -7.45934e-21 9.01872e-17
-3.50171e-19 7.72702e-23 2.6738e-16
-2.74378e-11 -1.00591e-10 -4.19835e-12
-3.50216e-19 -2.66164e-21 2.67381e-16
8.71382e-19 1.00074e-20 -6.65297e-16
4.86817e-19 1.48439e-22 -3.71585e-16
-2.25752e-19 -9.87653e-22 1.69486e-16
8.71384e-19 -9.88887e-21 -6.65298e-16
2.81054e-18 -2.15958e-20 -2.14593e-15
1.79761e-18 2.18475e-20 -1.37249e-15
-7.98206e-19 1.93859e-21 6.08848e-16
-3.50171e-19 4.51663e-22 2.67382e-16
2.24031e-18 3.22288e-23 -1.71051e-15
-5.14035e-22 2.7532e-23 1.03396e-21
2.00505e-18 8.76004e-21 -1.5309e-15
-1.2285e-19 2.41565e-21 9.02023e-17
-3.50172e-19 -7.54086e-23 2.67381e-16
-1.19468e-19 -1.9176e-21 9.01909e-17
-3.50202e-19 2.10792e-20 2.67382e-16
9.95276e-20 3.14243e-21 -8.03892e-17
1.79761e-18 -1.62826e-22 -1.37251e-15
-3.50183e-19 -7.80014e-22 2.67382e-16
2.24037e-18 -3.16281e-23 -1.71052e-15
1.7976e-18 1.10468e-21 -1.37251e-15
1.8441e-15 1.81214e-15 1.88038e-15
-5.10095e-19 -2.00763e-21 3.87841e-16
1.79764e-18 2.72957e-21 -1.37251e-15
-1.50971e-14 -1.17936e-15 -3.66278e-15
2.24033e-18 1.90801e-21 -1.71051e-15
8.71372e-19 4.6017e-22 -6.65298e-16
-9.20571e-19 -4.35935e-22 7.02844e-16
2.24033e-18 -2.40586e-21 -1.71052e-15
1.79759e-18 7.68281e-22 -1.37249e-15
2.24034e-18 4.59065e-23 -1.71052e-15
2.81058e-18 -1.15337e-22 -2.14593e-15
8.71334e-19 1.6511e-21 -6.65298e-16
2.24031e-18 5.56024e-21 -1.71052e-15
2.81058e-18 -5.65295e-22 -2.14593e-15
4.90473e-19 6.11848e-21 -3.71586e-16
4.87445e-19 -2.43046e-22 -3.71584e-16
2.24034e-18 -9.1608e-21 -1.71052e-15
1.79762e-18 2.09454e-21 -1.37251e-15
1.08761e-19 -1.99523e-21 -7.99285e-17
2.24033e-18 -1.07574e-22 -1.71052e-15
-3.50216e-19 -3.95311e-21 2.67381e-16
-1.21662e-19 1.27488e-21 9.0189e-17
5.31324e-19 4.27046e-22 -4.06399e-16
-3.5021e-19 -1.85161e-23 2.67381e-16
-7.18719e-18 9.24525e-19 3.87258e-17
1.79764e-18 -1.23229e-21 -1.37251e-15
-1.19821e-19 2.38846e-23 9.01912e-17
-1.25373e-17 2.95234e-17 1.9487e-17
-5.79971e-20 1.10546e-20 4.92146e-17

VECTORS force float
5.16988e-26 -1.29247e-26 0.0
0.0 4.82401e-26 0.0
-7.75482e-26 2.58494e-26 0.0
0.0 3.23117e-27 0.0
0.0 4.70254e-28 0.0
0.0 -3.78734e-27 0.0
0.0 1.72882e-26 0.0
0.0 1.86939e-26 0.0
0.0 -1.87314e-26 0.0
0.0 1.05314e-25 0.0
2.34783e-17 -4.70931e-18 7.86243e-18
0.0 0.0 2.06795e-25
0.0 9.07184e-28 0.0
0.0 -1.49556e-27 0.0
0.0 5.52976e-25 0.0
1.0477e-17 3.28376e-18 -1.77937e-18
0.0 1.59084e-25 0.0
4.7329e-18 -1.51577e-18 3.43483e-18
7.52811e-19 -8.1257e-19 -5.36493e-19
0.0 -7.0821e-26 0.0
0.0 2.1674e-28 0.0
-2.58494e-26 -5.16988e-26 0.0
0.0 -9.6369e-27 0.0
0.0 -6.19785e-26 0.0
0.0 0.0 0.0
0.0 0.0 0.0
0.0 0.0 0.0
0.0 -7.49973e-28 0.0
1.29247e-26 0.0 0.0
0.0 0.0 0.0
0.0 -3.63418e-27 0.0
0.0 4.41347e-26 0.0
2.09062e-20 -1.37528e-18 -2.41915e-19
0.0 -4.29135e-28 0.0
0.0 -8.87398e-26 0.0
0.0 4.64227e-28 0.0
-5.16988e-26 -3.23117e-27 0.0
-3.86864e-19 9.55771e-12 1.9618e-11
0.0 0.0 0.0
0.0 3.56099e-26 0.0
0.0 6.84937e-27 0.0
0.0 0.0 0.0
0.0 -2.828e-26 0.0
0.0 -1.34572e-27 0.0
4.03897e-28 1.27855e-27 0.0
0.0 5.81463e-27 0.0
0.0 0.0 0.0
0.0 -1.50727e-26 0.0
8.76294e-24 -4.00666e-24 2.06795e-25
0.0 -1.17994e-25 0.0
0.0 7.50452e-26 0.0
0.0 -1.19009e-27 0.0
0.0 -1.11703e-27 0.0
0.0 -2.29417e-25 0.0
0.0 9.08186e-26 0.0
0.0 -3.61104e-26 0.0
6.11843e-17 1.16716e-17 1.05031e-17
0.0 -1.16355e-26 0.0
0.0 -1.43892e-26 0.0
0.0 -8.67962e-27 0.0
-5.16988e-26 7.75482e-26 0.0
0.0 -1.59928e-26 0.0
0.0 7.62103e-26 0.0
0.0 -4.80214e-27 0.0
0.0 -2.5012e-26 0.0
0.0 2.74671e-26 0.0
0.0 -5.86282e-26 0.0
0.0 5.73852e-26 0.0
0.0 -7.72856e-26 0.0
0.0 6.6895e-27 0.0
0.0 0.0 0.0
0.0 0.0 0.0
0.0 -6.50959e-27 0.0
0.0 -1.33677e-26 0.0
0.0 -1.93919e-25 0.0
0.0 5.00811e-27 0.0
0.0 -9.94897e-27 0.0
0.0 -2.64967e-26 0.0
0.0 -3.06097e-26 0.0
0.0 7.12571e-26 0.0
0.0 2.14055e-25 0.0
0.0 0.0 0.0
-4.03897e-28 2.73902e-28 0.0
0.0 -1.69279e-26 0.0
0.0 -7.61819e-26 0.0
0.0 -6.01492e-26 0.0
0.0 -1.65591e-25 0.0
-1.86374e-22 2.73228e-22 -2.5229e-23
0.0 0.0 0.0
0.0 2.69437e-26 0.0
0.0 0.0 0.0
0.0 0.0 0.0
0.0 1.29247e-26 0.0
0.0 0.0 0.0
-4.03897e-28 1.90161e-25 0.0
0.0 -9.44948e-28 0.0
2.58494e-26 1.45403e-26 0.0
0.0 -6.85628e-26 0.0
1.03398e-25 -4.52364e-26 0.0
0.0 4.26394e-26 0.0
0.0 -1.16627e-26 0.0
0.0 7.82612e-27 0.0
2.0518e-25 -8.07794e-26 0.0
0.0 5.92234e-27 0.0
0.0 0.0 0.0
2.04018e-19 -1.24798e-20 2.24824e-20
0.0 4.80279e-26 0.0
3.52019e-20 -8.35949e-19 4.62671e-19
0.0 0.0 0.0
-5.16988e-26 0.0 0.0
-4.03897e-28 -6.28282e-26 0.0
0.0 0.0 0.0
0.0 1.05276e-26 0.0
0.0 0.0 0.0
0.0 3.19121e-27 0.0
-3.50518e-22 -4.46005e-22 1.35244e-22
0.0 1.40496e-26 0.0
0.0 3.16562e-25 0.0
0.0 6.29021e-26 0.0
0.0 2.05654e-27 0.0
0.0 2.16813e-25 0.0
0.0 8.04607e-29 0.0
1.08643e-17 5.29709e-18 1.12925e-18
0.0 1.68999e-26 0.0
0.0 5.84236e-26 0.0
0.0 1.36962e-25 0.0
-5.16988e-26 0.0 0.0
0.0 -1.40404e-25 0.0
0.0 -4.18871e-27 0.0
0.0 2.9349e-26 0.0
0.0 3.78889e-26 0.0
5.16988e-26 1.29247e-26 0.0
0.0 -1.07948e-25 0.0
0.0 1.14801e-25 0.0
-6.46235e-27 -2.58494e-26 1.32478e-25
0.0 -2.58494e-26 2.06795e-25
0.0 -5.57019e-26 0.0
0.0 -6.22538e-27 0.0
3.17095e-22 3.49484e-22 -5.39735e-23
0.0 -6.61915e-25 0.0
-2.58494e-26 -5.16988e-26 0.0
3.61194e-22 4.59757e-22 -1.39173e-22
0.0 5.44778e-28 0.0
0.0 9.46661e-26 0.0
0.0 4.18099e-25 0.0
0.0 -2.76831e-25 0.0
4.03897e-28 7.71201e-27 0.0
0.0 3.7614e-26 0.0
2.99207e-24 -2.58494e-26 0.0
4.03897e-28 -2.38458e-26 0.0
0.0 -5.16988e-26 0.0
0.0 3.6881e-26 0.0
1.0324e-19 1.21e-20 -9.49667e-20
-5.91413e-21 -9.98779e-21 2.6701e-20
0.0 0.0 0.0
0.0 -2.24459e-27 0.0
0.0 5.26271e-26 0.0
0.0 -7.00654e-26 0.0
0.0 -1.06181e-25 0.0
0.0 -3.981e-26 0.0
0.0 -4.64115e-26 0.0
0.0 0.0 0.0
0.0 1.89941e-26 0.0
4.03897e-28 3.34735e-25 0.0
0.0 5.05573e-27 0.0
0.0 8.35143e-26 0.0
-4.03897e-28 2.30025e-26 0.0
1.80083e-20 1.76471e-20 2.58651e-20