# vtk DataFile Version 3.0
LIGGGHTS particles timestep 25000000
ASCII
DATASET POLYDATA
POINTS 275 float
0.159271 0.0176551 0.00712862
0.158895 0.0179595 0.00700343
0.158828 0.0172801 0.00732864
0.158299 0.0156851 0.00863086
0.164554 0.0165152 0.00764517
0.158503 0.0163071 0.00780735
0.158755 0.0169279 0.00749975
0.164742 0.0172993 0.00732896
0.158403 0.0159136 0.00808682
0.158972 0.0183367 0.00691235
0.152361 0.0159187 0.00849116
0.158281 0.0156424 0.00871947
0.15282 0.0170108 0.00748863
0.15322 0.0170649 0.00744802
0.158385 0.0158674 0.00817361
0.158259 0.0155999 0.00880729
0.159062 0.0175096 0.00720803
0.158728 0.0168414 0.00754219
0.152956 0.0170602 0.00739389
0.164678 0.0170144 0.00739765
0.158442 0.0160489 0.0079456
0.164786 0.0170613 0.00738495
0.152839 0.0169356 0.00742561
0.158901 0.0172177 0.00735473
0.158236 0.0155574 0.00889477
0.158711 0.01717 0.00739359
0.158465 0.0161309 0.00789301
0.158701 0.0167549 0.00758464
0.164573 0.0165749 0.00756727
0.158368 0.0158298 0.00826456
0.158879 0.0171293 0.00739787
0.164785 0.0174892 0.00728316
0.158784 0.0171044 0.00741441
0.158923 0.0173054 0.00731194
0.164699 0.0171094 0.00737475
0.158332 0.0157577 0.0084477
0.158545 0.0164877 0.00773412
0.158945 0.0173934 0.00726905
0.164592 0.0166347 0.00748935
0.15835 0.0157917 0.00835534
0.158992 0.0184346 0.00690816
0.164829 0.0172509 0.00733923
0.158649 0.0169166 0.00751029
0.15863 0.0168284 0.00755321
0.152343 0.0158656 0.00857389
0.164636 0.0168244 0.00744347
0.159157 0.0175375 0.00719016
0.152892 0.0167788 0.00747736
0.158563 0.0165696 0.00767952
0.164613 0.0167296 0.00746634
0.378022 0.019866 0.005332
0.159019 0.0173311 0.00729506
0.158315 0.0157249 0.00854064
0.158967 0.0174817 0.00722599
0.159087 0.0184672 0.0069062
0.164656 0.0169195 0.00742055
0.152756 0.0173295 0.00745678
0.152821 0.0176192 0.00747335
0.159046 0.0178381 0.00705264
0.158988 0.0175714 0.00718229
0.159082 0.0175992 0.00716444
0.164721 0.0172043 0.00735185
0.15303 0.0169936 0.00740735
0.15916 0.0179588 0.0070028
0.158424 0.0159756 0.00801091
0.158755 0.0170182 0.00745681
0.152635 0.0165045 0.00768395
0.158951 0.0178103 0.00707045
0.152184 0.0154944 0.00914566
0.152814 0.0175199 0.00746442
0.158809 0.0174283 0.00735422
0.152412 0.0160784 0.00824238
0.152691 0.0163813 0.00777826
0.164764 0.0173942 0.00730606
0.153242 0.0171658 0.00745495
0.158806 0.0171923 0.00737147
0.15852 0.0163962 0.00776536
0.158947 0.0180314 0.00706467
0.158914 0.0179445 0.00710114
0.158995 0.0182792 0.00699104
0.152377 0.015972 0.00840812
0.159065 0.0179269 0.00700942
0.158754 0.0173426 0.00730252
0.159048 0.0182716 0.0069068
0.158964 0.0181392 0.00703083
0.159085 0.0180206 0.00698047
0.1523 0.0157598 0.00873808
0.158732 0.0172549 0.00734531
0.152878 0.0178838 0.00747783
0.159008 0.0176608 0.00713876
0.152944 0.0177452 0.00749649
0.0643568 0.0187248 0.00531097
0.24257 0.0191927 0.00520306
0.153088 0.0172887 0.00742646
0.152255 0.0156534 0.00890126
0.152995 0.0172573 0.00740722
0.152208 0.0155473 0.00906431
0.159102 0.0176888 0.00712087
0.158606 0.016754 0.0076159
0.158876 0.0178708 0.00704536
0.158838 0.0176941 0.00713123
0.152322 0.0158127 0.00865614
0.15296 0.0175198 0.00740601
0.152954 0.0178953 0.00741394
0.158691 0.0170951 0.00745675
0.159177 0.0176272 0.00714653
0.159114 0.0173571 0.00727802
0.152841 0.01652 0.00756613
0.159122 0.0177775 0.0070777
0.158481 0.0162221 0.00785522
0.159291 0.0177441 0.0070853
0.158989 0.0179871 0.00698452
0.153128 0.0170322 0.00742834
0.15875 0.0173377 0.00740229
0.15904 0.0174194 0.00725199
0.152277 0.0157068 0.00881978
0.15867 0.0170144 0.00751182
0.159061 0.018118 0.00704482
0.153068 0.0171896 0.00741987
0.15285 0.0177148 0.00747723
0.15885 0.0173679 0.00728584
0.159124 0.0182101 0.00692906
0.15914 0.0178661 0.00703466
0.158997 0.017243 0.00733805
0.152827 0.0164665 0.00764958
0.158952 0.0182385 0.00691014
0.159311 0.0178351 0.0070475
0.158915 0.0180526 0.00697254
0.152656 0.0162755 0.00794267
0.152685 0.0163274 0.00786234
0.152231 0.0156004 0.00898274
0.152861 0.0170296 0.00739944
0.152467 0.0162363 0.00799647
0.152935 0.0169639 0.00741479
0.152562 0.0162552 0.00797072
0.158798 0.0175181 0.00721695
0.153209 0.0174302 0.00745458
0.153081 0.0177707 0.0074368
0.152595 0.0164066 0.00785135
0.152449 0.0161837 0.00807954
0.152652 0.0165379 0.00756403
0.152446 0.0161294 0.00816352
0.0219312 0.0187687 0.00551176
0.152736 0.0164994 0.00762512
0.158871 0.0174556 0.00724304
0.153049 0.0179211 0.00743387
0.152943 0.0182315 0.00741989
0.152744 0.0169075 0.00743722
0.153053 0.0175514 0.00742573
0.159012 0.0185302 0.00692961
0.15315 0.0171342 0.00743522
0.153108 0.0173867 0.00743283
0.153072 0.0176493 0.00743205
0.153127 0.0174849 0.00743912
0.159235 0.017897 0.00702515
0.152848 0.0178443 0.00739102
0.159104 0.0181154 0.00695474
0.152796 0.0167508 0.00748895
0.152974 0.0171592 0.00740005
0.15254 0.0164461 0.00766991
0.152906 0.0176842 0.00739892
0.153229 0.0176387 0.00746376
0.159251 0.0175655 0.00717219
0.153015 0.0173553 0.0074131
0.159179 0.0180536 0.00697708
0.152938 0.0165099 0.00758604
0.152864 0.0166149 0.00753333
0.159062 0.0183672 0.00688122
0.158933 0.0177219 0.00711339
0.159142 0.0183063 0.00690285
0.147119 0.0186351 0.00687508
0.158819 0.0176059 0.00717413
0.152893 0.0180387 0.00740481
0.159197 0.0177164 0.0071031
0.152506 0.0163613 0.00784634
0.152999 0.0177157 0.00741865
0.153171 0.0172343 0.00744198
0.146951 0.0180465 0.00707802
0.152706 0.0164345 0.00769497
0.152919 0.0181347 0.00741264
0.152394 0.0160252 0.00832508
0.15298 0.0176178 0.00741232
0.152753 0.0165663 0.00755279
0.159027 0.0177498 0.0070955
0.153049 0.0170916 0.00741363
0.1527 0.016722 0.0075008
0.152818 0.0168432 0.00745728
0.152585 0.016312 0.0078824
0.152775 0.0166584 0.00752064
0.152913 0.0168712 0.00744573
0.158758 0.0172449 0.00744155
0.158913 0.017633 0.0071566
0.153034 0.0174534 0.0074194
0.159159 0.0184027 0.00688256
0.158893 0.0175439 0.00720003
0.147082 0.0184492 0.00693947
0.152621 0.0164654 0.00777493
0.159216 0.0178053 0.00706026
0.152979 0.0179919 0.00742139
0.158776 0.0174303 0.00725974
0.152967 0.0183284 0.00742714
0.158586 0.0166603 0.00764416
0.152962 0.0165944 0.00753809
0.158857 0.0177825 0.00708829
0.152868 0.0179422 0.00739736
0.147043 0.0186959 0.00685239
0.147064 0.0183563 0.00697167
0.152885 0.0173745 0.00747168
0.152827 0.0172929 0.00738576
0.15303 0.0181847 0.00743647
0.15319 0.0173322 0.00744833
0.158971 0.0178986 0.00702752
0.152733 0.0172567 0.00735314
0.152791 0.0175505 0.00737209
0.15281 0.0176484 0.0073784
0.146805 0.017576 0.00727557
0.146867 0.0178369 0.00714982
0.146784 0.0175004 0.00733754
0.152487 0.016292 0.00791596
0.152961 0.0173107 0.00748449
0.146827 0.0176518 0.00721387
0.147026 0.0181704 0.00703603
0.152722 0.0168147 0.00746916
0.152941 0.0174215 0.00740298
0.146932 0.0181389 0.00704531
0.152678 0.0166292 0.00753267
0.159009 0.0180822 0.00695817
0.146969 0.0183245 0.00698105
0.147138 0.018728 0.0068429
0.147046 0.018078 0.00706874
0.152158 0.0154417 0.00922641
0.152882 0.0171262 0.00738039
0.152583 0.01661 0.00756439
0.152868 0.0174883 0.00738628
0.146988 0.0184173 0.00694891
0.153 0.0178215 0.00746401
0.152848 0.0173903 0.00737997
0.152829 0.0177463 0.00738471
0.146983 0.017957 0.00710993
0.152604 0.0166944 0.00751551
0.147203 0.0185842 0.00689445
0.153154 0.0177038 0.0074501
0.152647 0.0168784 0.00745016
0.152741 0.017229 0.00744888
0.152795 0.0174218 0.00745812
0.158933 0.0181438 0.00693586
0.153147 0.0175842 0.00744571
0.147025 0.018603 0.00688456
0.152669 0.0169721 0.00742266
0.147007 0.0185101 0.00691674
0.152765 0.0169999 0.00740553
0.152561 0.0165313 0.00762234
0.152691 0.017067 0.00740031
0.152922 0.0173236 0.0073933
0.147045 0.0182633 0.00700385
0.147101 0.0185422 0.00690727
0.153006 0.0180879 0.00742922
0.146847 0.0177444 0.00718185
0.152771 0.0174526 0.00736583
0.152808 0.0171915 0.00736678
0.152626 0.0167857 0.00748093
0.152787 0.0170955 0.00738583
0.152925 0.0177821 0.00740524
0.152523 0.0163931 0.00775306
0.15272 0.0162356 0.00800802
0.152887 0.0175862 0.00739349
0.153228 0.0175281 0.00746095
0.1529 0.0172246 0.00738644
0.152752 0.0173546 0.00736004
0.147062 0.0187888 0.00682021
0.152713 0.0171621 0.00737814
0.159255 0.0179917 0.00699945
0.146887 0.0179295 0.00711777
0.14695 0.0182317 0.00701318
0.159028 0.0181769 0.00693247

VERTICES 275 550
1 0
1 1
1 2
1 3
1 4
1 5
1 6
1 7
1 8
1 9
1 10
1 11
1 12
1 13
1 14
1 15
1 16
1 17
1 18
1 19
1 20
1 21
1 22
1 23
1 24
1 25
1 26
1 27
1 28
1 29
1 30
1 31
1 32
1 33
1 34
1 35
1 36
1 37
1 38
1 39
1 40
1 41
1 42
1 43
1 44
1 45
1 46
1 47
1 48
1 49
1 50
1 51
1 52
1 53
1 54
1 55
1 56
1 57
1 58
1 59
1 60
1 61
1 62
1 63
1 64
1 65
1 66
1 67
1 68
1 69
1 70
1 71
1 72
1 73
1 74
1 75
1 76
1 77
1 78
1 79
1 80
1 81
1 82
1 83
1 84
1 85
1 86
1 87
1 88
1 89
1 90
1 91
1 92
1 93
1 94
1 95
1 96
1 97
1 98
1 99
1 100
1 101
1 102
1 103
1 104
1 105
1 106
1 107
1 108
1 109
1 110
1 111
1 112
1 113
1 114
1 115
1 116
1 117
1 118
1 119
1 120
1 121
1 122
1 123
1 124
1 125
1 126
1 127
1 128
1 129
1 130
1 131
1 132
1 133
1 134
1 135
1 136
1 137
1 138
1 139
1 140
1 141
1 142
1 143
1 144
1 145
1 146
1 147
1 148
1 149
1 150
1 151
1 152
1 153
1 154
1 155
1 156
1 157
1 158
1 159
1 160
1 161
1 162
1 163
1 164
1 165
1 166
1 167
1 168
1 169
1 170
1 171
1 172
1 173
1 174
1 175
1 176
1 177
1 178
1 179
1 180
1 181
1 182
1 183
1 184
1 185
1 186
1 187
1 188
1 189
1 190
1 191
1 192
1 193
1 194
1 195
1 196
1 197
1 198
1 199
1 200
1 201
1 202
1 203
1 204
1 205
1 206
1 207
1 208
1 209
1 210
1 211
1 212
1 213
1 214
1 215
1 216
1 217
1 218
1 219
1 220
1 221
1 222
1 223
1 224
1 225
1 226
1 227
1 228
1 229
1 230
1 231
1 232
1 233
1 234
1 235
1 236
1 237
1 238
1 239
1 240
1 241
1 242
1 243
1 244
1 245
1 246
1 247
1 248
1 249
1 250
1 251
1 252
1 253
1 254
1 255
1 256
1 257
1 258
1 259
1 260
1 261
1 262
1 263
1 264
1 265
1 266
1 267
1 268
1 269
1 270
1 271
1 272
1 273
1 274

POINT_DATA 275
SCALARS id int 1
LOOKUP_TABLE default
1
2
4
5
6
7
8
9
10
11
12
13
14
16
17
19
21
22
23
24
25
26
27
28
29
30
31
32
33
34
35
36
37
38
39
41
42
44
45
47
48
49
50
51
52
53
54
55
56
57
59
60
61
62
63
64
65
66
67
68
69
70
71
72
73
74
76
77
78
79
80
82
83
84
85
86
87
88
89
90
91
92
93
94
95
96
97
98
99
100
101
102
103
104
105
106
107
108
109
110
111
112
113
114
115
116
117
118
119
120
121
122
123
124
125
127
128
129
130
131
132
133
134
135
136
137
138
140
141
142
143
144
146
147
148
149
150
151
153
154
155
156
157
158
159
160
162
164
165
166
167
168
169
170
171
172
173
174
176
177
178
179
182
183
184
185
186
187
188
189
190
191
192
193
194
195
196
197
198
199
200
201
202
203
204
205
206
207
208
209
210
211
212
213
214
215
216
217
218
219
220
222
224
225
226
227
228
229
230
232
233
234
235
236
237
239
240
241
242
243
244
246
247
248
249
250
251
252
253
254
255
256
257
258
259
260
261
262
263
264
265
266
267
268
269
270
271
272
273
274
275
276
277
278
279
280
281
283
284
285
286
287
288
289
290
291
292
293
294
295
296
297
298
299
300

SCALARS type int 1
LOOKUP_TABLE default
1
1
1
1
1
1
1
1
1
1
1
1
1
1
1
1
1
1
1
1
1
1
1
1
1
1
1
1
1
1
1
1
1
1
1
1
1
1
1
1
1
1
1
1
1
1
1
1
1
1
1
1
1
1
1
1
1
1
1
1
1
1
1
1
1
1
1
1
1
1
1
1
1
1
1
1
1
1
1
1
1
1
1
1
1
1
1
1
1
1
1
1
1
1
1
1
1
1
1
1
1
1
1
1
1
1
1
1
1
1
1
1
1
1
1
1
1
1
1
1
1
1
1
1
1
1
1
1
1
1
1
1
1
1
1
1
1
1
1
1
1
1
1
1
1
1
1
1
1
1
1
1
1
1
1
1
1
1
1
1
1
1
1
1
1
1
1
1
1
1
1
1
1
1
1
1
1
1
1
1
1
1
1
1
1
1
1
1
1
1
1
1
1
1
1
1
1
1
1
1
1
1
1
1
1
1
1
1
1
1
1
1
1
1
1
1
1
1
1
1
1
1
1
1
1
1
1
1
1
1
1
1
1
1
1
1
1
1
1
1
1
1
1
1
1
1
1
1
1
1
1
1
1
1
1
1
1
1
1
1
1
1
1
1
1
1
1
1
1
1
1
1
1
1
1

SCALARS radius float 1
LOOKUP_TABLE default
5e-05
5e-05
5e-05
5e-05
5e-05
5e-05
5e-05
5e-05
5e-05
5e-05
5e-05
5e-05
5e-05
5e-05
5e-05
5e-05
5e-05
5e-05
5e-05
5e-05
5e-05
5e-05
5e-05
5e-05
5e-05
5e-05
5e-05
5e-05
5e-05
5e-05
5e-05
5e-05
5e-05
5e-05
5e-05
5e-05
5e-05
5e-05
5e-05
5e-05
5e-05
5e-05
5e-05
5e-05
5e-05
5e-05
5e-05
5e-05
5e-05
5e-05
5e-05
5e-05
5e-05
5e-05
5e-05
5e-05
5e-05
5e-05
5e-05
5e-05
5e-05
5e-05
5e-05
5e-05
5e-05
5e-05
5e-05
5e-05
5e-05
5e-05
5e-05
5e-05
5e-05
5e-05
5e-05
5e-05
5e-05
5e-05
5e-05
5e-05
5e-05
5e-05
5e-05
5e-05
5e-05
5e-05
5e-05
5e-05
5e-05
5e-05
5e-05
5e-05
5e-05
5e-05
5e-05
5e-05
5e-05
5e-05
5e-05
5e-05
5e-05
5e-05
5e-05
5e-05
5e-05
5e-05
5e-05
5e-05
5e-05
5e-05
5e-05
5e-05
5e-05
5e-05
5e-05
5e-05
5e-05
5e-05
5e-05
5e-05
5e-05
5e-05
5e-05
5e-05
5e-05
5e-05
5e-05
5e-05
5e-05
5e-05
5e-05
5e-05
5e-05
5e-05
5e-05
5e-05
5e-05
5e-05
5e-05
5e-05
5e-05
5e-05
5e-05
5e-05
5e-05
5e-05
5e-05
5e-05
5e-05
5e-05
5e-05
5e-05
5e-05
5e-05
5e-05
5e-05
5e-05
5e-05
5e-05
5e-05
5e-05
5e-05
5e-05
5e-05
5e-05
5e-05
5e-05
5e-05
5e-05
5e-05
5e-05
5e-05
5e-05
5e-05
5e-05
5e-05
5e-05
5e-05
5e-05
5e-05
5e-05
5e-05
5e-05
5e-05
5e-05
5e-05
5e-05
5e-05
5e-05
5e-05
5e-05
5e-05
5e-05
5e-05
5e-05
5e-05
5e-05
5e-05
5e-05
5e-05
5e-05
5e-05
5e-05
5e-05
5e-05
5e-05
5e-05
5e-05
5e-05
5e-05
5e-05
5e-05
5e-05
5e-05
5e-05
5e-05
5e-05
5e-05
5e-05
5e-05
5e-05
5e-05
5e-05
5e-05
5e-05
5e-05
5e-05
5e-05
5e-05
5e-05
5e-05
5e-05
5e-05
5e-05
5e-05
5e-05
5e-05
5e-05
5e-05
5e-05
5e-05
5e-05
5e-05
5e-05
5e-05
5e-05
5e-05
5e-05
5e-05
5e-05
5e-05
5e-05
5e-05
5e-05
5e-05
5e-05
5e-05
5e-05
5e-05
5e-05
5e-05
5e-05
5e-05
5e-05
5e-05
5e-05
5e-05
5e-05
5e-05
5e-05
5e-05
5e-05
5e-05
5e-05
5e-05

SCALARS mass float 1
LOOKUP_TABLE default
1.46608e-10
1.46608e-10
1.46608e-10
1.46608e-10
1.46608e-10
1.46608e-10
1.46608e-10
1.46608e-10
1.46608e-10
1.46608e-10
1.46608e-10
1.46608e-10
1.46608e-10
1.46608e-10
1.46608e-10
1.46608e-10
1.46608e-10
1.46608e-10
1.46608e-10
1.46608e-10
1.46608e-10
1.46608e-10
1.46608e-10
1.46608e-10
1.46608e-10
1.46608e-10
1.46608e-10
1.46608e-10
1.46608e-10
1.46608e-10
1.46608e-10
1.46608e-10
1.46608e-10
1.46608e-10
1.46608e-10
1.46608e-10
1.46608e-10
1.46608e-10
1.46608e-10
1.46608e-10
1.46608e-10
1.46608e-10
1.46608e-10
1.46608e-10
1.46608e-10
1.46608e-10
1.46608e-10
1.46608e-10
1.46608e-10
1.46608e-10
1.46608e-10
1.46608e-10
1.46608e-10
1.46608e-10
1.46608e-10
1.46608e-10
1.46608e-10
1.46608e-10
1.46608e-10
1.46608e-10
1.46608e-10
1.46608e-10
1.46608e-10
1.46608e-10
1.46608e-10
1.46608e-10
1.46608e-10
1.46608e-10
1.46608e-10
1.46608e-10
1.46608e-10
1.46608e-10
1.46608e-10
1.46608e-10
1.46608e-10
1.46608e-10
1.46608e-10
1.46608e-10
1.46608e-10
1.46608e-10
1.46608e-10
1.46608e-10
1.46608e-10
1.46608e-10
1.46608e-10
1.46608e-10
1.46608e-10
1.46608e-10
1.46608e-10
1.46608e-10
1.46608e-10
1.46608e-10
1.46608e-10
1.46608e-10
1.46608e-10
1.46608e-10
1.46608e-10
1.46608e-10
1.46608e-10
1.46608e-10
1.46608e-10
1.46608e-10
1.46608e-10
1.46608e-10
1.46608e-10
1.46608e-10
1.46608e-10
1.46608e-10
1.46608e-10
1.46608e-10
1.46608e-10
1.46608e-10
1.46608e-10
1.46608e-10
1.46608e-10
1.46608e-10
1.46608e-10
1.46608e-10
1.46608e-10
1.46608e-10
1.46608e-10
1.46608e-10
1.46608e-10
1.46608e-10
1.46608e-10
1.46608e-10
1.46608e-10
1.46608e-10
1.46608e-10
1.46608e-10
1.46608e-10
1.46608e-10
1.46608e-10
1.46608e-10
1.46608e-10
1.46608e-10
1.46608e-10
1.46608e-10
1.46608e-10
1.46608e-10
1.46608e-10
1.46608e-10
1.46608e-10
1.46608e-10
1.46608e-10
1.46608e-10
1.46608e-10
1.46608e-10
1.46608e-10
1.46608e-10
1.46608e-10
1.46608e-10
1.46608e-10
1.46608e-10
1.46608e-10
1.46608e-10
1.46608e-10
1.46608e-10
1.46608e-10
1.46608e-10
1.46608e-10
1.46608e-10
1.46608e-10
1.46608e-10
1.46608e-10
1.46608e-10
1.46608e-10
1.46608e-10
1.46608e-10
1.46608e-10
1.46608e-10
1.46608e-10
1.46608e-10
1.46608e-10
1.46608e-10
1.46608e-10
1.46608e-10
1.46608e-10
1.46608e-10
1.46608e-10
1.46608e-10
1.46608e-10
1.46608e-10
1.46608e-10
1.46608e-10
1.46608e-10
1.46608e-10
1.46608e-10
1.46608e-10
1.46608e-10
1.46608e-10
1.46608e-10
1.46608e-10
1.46608e-10
1.46608e-10
1.46608e-10
1.46608e-10
1.46608e-10
1.46608e-10
1.46608e-10
1.46608e-10
1.46608e-10
1.46608e-10
1.46608e-10
1.46608e-10
1.46608e-10
1.46608e-10
1.46608e-10
1.46608e-10
1.46608e-10
1.46608e-10
1.46608e-10
1.46608e-10
1.46608e-10
1.46608e-10
1.46608e-10
1.46608e-10
1.46608e-10
1.46608e-10
1.46608e-10
1.46608e-10
1.46608e-10
1.46608e-10
1.46608e-10
1.46608e-10
1.46608e-10
1.46608e-10
1.46608e-10
1.46608e-10
1.46608e-10
1.46608e-10
1.46608e-10
1.46608e-10
1.46608e-10
1.46608e-10
1.46608e-10
1.46608e-10
1.46608e-10
1.46608e-10
1.46608e-10
1.46608e-10
1.46608e-10
1.46608e-10
1.46608e-10
1.46608e-10
1.46608e-10
1.46608e-10
1.46608e-10
1.46608e-10
1.46608e-10
1.46608e-10
1.46608e-10
1.46608e-10
1.46608e-10
1.46608e-10
1.46608e-10
1.46608e-10
1.46608e-10
1.46608e-10
1.46608e-10
1.46608e-10
1.46608e-10
1.46608e-10
1.46608e-10
1.46608e-10
1.46608e-10
1.46608e-10
1.46608e-10
1.46608e-10
1.46608e-10
1.46608e-10
1.46608e-10
1.46608e-10
1.46608e-10
1.46608e-10

VECTORS velocity float
0.00574822 0.000201714 -0.000377497
0.00593625 0.000458151 -0.000346868
0.00626553 0.000360035 -0.000477538
0.00589392 0.000500493 -0.000357584
0.0062158 0.000201466 -0.000123284
0.00613428 0.000388806 -0.00048756
0.00625116 0.000400655 -0.00049703
0.00620301 0.000215016 -0.000138883
0.00578744 0.000589002 -0.000324022
0.00582439 0.000699026 8.45822e-05
0.00509376 -0.00125308 0.00217171
0.00648292 0.00051554 -0.000248129
0.00554553 -0.00233155 0.000716879
0.00550765 -0.00209307 0.00107316
0.00577372 0.000307013 -0.000481633
0.00705067 0.000492848 -0.000155471
0.00564617 0.000362167 -0.000448437
0.00625731 0.000396228 -0.000497146
0.00563283 -0.00208884 0.00109068
0.00626228 0.000191868 -0.000135024
0.0058184 0.000520923 -0.000403197
0.00625272 0.000213969 -0.000138983
0.00568598 -0.00228763 0.000642565
0.00625039 0.000345585 -0.000469914
0.007621 0.000471441 -3.08176e-05
0.00625205 0.000384928 -0.000480843
0.00582953 0.000455217 -0.0004982
0.00622149 0.000402446 -0.000496825
0.00627954 0.000193053 -0.00011191
0.00565107 2.57931e-06 -0.0006261
0.00623199 0.000360361 -0.000476175
0.00616399 0.000232563 -0.000142459
0.00623234 0.000369171 -0.000478322
0.00627002 0.000335605 -0.000466593
0.00624104 0.000196931 -0.00013511
0.00552909 -0.000139892 -0.000680825
0.00628162 0.000347658 -0.000494791
0.00626579 0.000352293 -0.00047416
0.00634259 0.000184804 -0.000100771
0.00552295 -0.000242652 -0.000738987
0.00582869 0.000685332 -0.000230695
0.00622374 0.000247599 -0.000146914
0.00625609 0.000373599 -0.000482386
0.00624963 0.000365671 -0.000488543
0.00513197 -0.00125536 0.00217073
0.00630481 0.000181984 -0.000134249
0.00565585 0.000360579 -0.000448065
0.00595678 -0.00222824 0.000623193
0.00622586 0.00036456 -0.000482222
0.00632374 0.000176653 -0.0001425
-5.01979e-15 -7.41215e-15 7.69802e-14
0.00621329 0.000308195 -0.000450404
0.00552638 0.000276696 -0.000523559
0.00618063 0.000858219 -0.000710529
0.00584375 0.000630111 -0.000325302
0.00628248 0.000187402 -0.00013382
0.00556619 -0.00216542 0.00107364
0.00529059 -0.00221459 0.00103461
0.00587606 0.000327574 -0.000435385
0.00570599 0.000423363 -0.000480305
0.00571533 0.000408318 -0.000473693
0.00622298 0.000205104 -0.000136619
0.00571723 -0.00197106 0.00111202
0.0056697 0.000620489 0.000181857
0.005794 0.000611983 -0.00031123
0.00627103 0.000397598 -0.000493889
0.00578216 -0.00112295 0.00196597
0.00579572 0.000357203 -0.000453841
0.00645538 -0.00141119 0.00237332
0.00537192 -0.0022279 0.00104244
0.00629291 0.000354508 -0.000478959
0.00524972 -0.00124515 0.00218066
0.00550959 -0.0011958 0.0022736
0.00618223 0.000223846 -0.00014058
0.00556173 -0.00205173 0.00108577
0.00625523 0.000375066 -0.00048336
0.00622005 0.000370901 -0.000486911
0.00586104 0.00046765 2.1509e-05
0.00595985 0.000270059 -0.000327765
0.00580714 0.000670808 0.000178836
0.00509932 -0.00125449 0.0021717
0.00565552 0.000492455 -0.000523227
0.00627715 0.000370037 -0.000483924
0.00581285 0.000669041 0.000177992
0.00578543 0.000705269 0.000194469
0.00570734 0.000653825 0.000171467
0.00519539 -0.0012399 0.00217872
0.0062656 0.000377632 -0.000484863
0.00521371 -0.00211836 0.00102924
0.00575443 0.000426666 -0.0004842
0.00526002 -0.00213547 0.00100603
4.2523e-15 1.0523e-14 8.29577e-14
-1.12215e-22 2.24983e-22 8.29106e-22
0.00557829 -0.00194642 0.00109521
0.00553335 -0.00132023 0.0022095
0.00559653 -0.00200076 0.00107963
0.00587363 -0.00134882 0.00225961
0.00576094 0.000381786 -0.000463281
0.00623326 0.000358808 -0.000500377
0.00588107 0.000417627 -0.000481443
0.00572089 0.000442695 -0.000490148
0.0051537 -0.0012497 0.00216994
0.0054293 -0.00208895 0.00105815
0.00522617 -0.00216159 0.00101228
0.00625674 0.000382884 -0.000479319
0.00574408 0.000368726 -0.000455802
0.00617413 0.000841171 -0.000702015
0.00664981 -0.00107093 0.0019606
0.00583381 0.00028086 -0.000414089
0.00599243 0.000420956 -0.000503384
0.00592479 0.000450898 -0.000503377
0.00576785 0.000587026 -0.000612585
0.00554444 -0.00209968 0.00108247
0.00628319 0.000414409 -0.00048621
0.00621652 0.000887544 -0.00072625
0.00534004 -0.00126884 0.00219485
0.00628225 0.000370467 -0.000476777
0.00578243 0.000690247 0.000190377
0.00563892 -0.00194438 0.00109953
0.00525943 -0.00218757 0.00101568
0.00629028 0.000355241 -0.000477999
0.00578668 0.000644446 0.000183658
0.00553606 0.000388902 -0.000456336
0.00623602 0.000303386 -0.000449314
0.00615989 -0.00105636 0.00190351
0.00581217 0.000657461 0.000181919
0.00574528 0.000726365 0.000151328
0.00572344 0.000648881 9.73693e-05
0.00569239 -0.00126946 0.00222085
0.00572837 -0.00125222 0.00221057
0.00569505 -0.00134036 0.00223248
0.00565376 -0.00216421 0.000819631
0.00547636 -0.00121623 0.00219318
0.00571393 -0.00206526 0.000915249
0.00550894 -0.00124336 0.00218556
0.00627692 0.00034603 -0.000471289
0.00539924 -0.00204076 0.00105275
0.00529113 -0.00204772 0.00102696
0.00560333 -0.00113982 0.00193057
0.00530406 -0.0011965 0.00218148
0.00554378 -0.00237517 0.000684935
0.00527986 -0.0012357 0.00217731
-3.83652e-14 8.16875e-14 2.95878e-13
0.00592665 -0.00161579 0.00194125
0.00627906 0.000355037 -0.000476055
0.00550124 -0.00318064 0.00103543
0.00554376 -0.00225746 0.00107738
0.00569745 -0.00241784 0.000693344
0.0054107 -0.00204225 0.00105607
0.00581104 0.000704891 -0.000302822
0.0055574 -0.00204561 0.00108413
0.00548499 -0.00197782 0.00107273
0.0053579 -0.00204986 0.00104564
0.00546212 -0.00194501 0.00106834
0.00563735 0.000594123 0.000182137
0.00523713 -0.00214345 0.00102393
0.00574393 0.000628378 0.000181477
0.00597261 -0.0023717 0.000758397
0.00562307 -0.00208579 0.00109559
0.00571799 -0.00133539 0.00233741
0.00533033 -0.00211546 0.00103593
0.00535739 -0.00198581 0.00104652
0.00578539 0.000412171 -0.000478937
0.00551861 -0.00204457 0.00108118
0.00572161 0.000604226 0.000189123
0.00781259 0.00164846 -0.00226831
0.00698508 -0.000914505 3.96851e-05
0.00573158 0.000551323 -0.000339244
0.00572639 0.000384744 -0.000463586
0.00583562 0.000634843 0.000191957
0.00554737 -0.0004317 0.000253596
0.00575003 0.000448874 -0.000494033
0.00631356 -0.00247409 0.00122545
0.00580583 0.00025406 -0.000402566
0.00558633 -0.00122789 0.00228747
0.00531747 -0.00209021 0.00103314
0.00551269 -0.00204985 0.0010765
0.00546887 -0.000415531 0.000246557
0.00567099 -0.0012382 0.00226096
0.00563296 -0.00228871 0.00109437
0.00516334 -0.0012423 0.00218192
0.00537253 -0.00208666 0.00104683
0.00604061 -0.00239826 0.00115334
0.00573141 0.000350913 -0.0004472
0.0056856 -0.00196122 0.0011181
0.00599293 -0.0024606 0.000682404
0.00578209 -0.00235153 0.00068842
0.00567733 -0.00115195 0.00211798
0.00605318 -0.00246979 0.000720297
0.00577659 -0.00212773 0.000739571
0.00624068 0.000363537 -0.000483341
0.00574419 0.000465336 -0.00050193
0.00548314 -0.00203541 0.00107012
0.00575409 0.000540044 -0.000345152
0.0061204 0.000807366 -0.000683257
0.00546873 -0.000415027 0.000246306
0.00585313 -0.00106981 0.00202556
0.00580389 0.000383862 -0.000313862
0.00631057 -0.00245503 0.00122721
0.0062873 0.00035502 -0.000477517
0.00554445 -0.00224894 0.00107699
0.00620281 0.000362039 -0.000505253
0.00765075 0.00222035 -0.00091258
0.00579092 0.000428063 -0.000487693
0.00527839 -0.00216261 0.00101989
0.00554813 -0.000427462 0.000252282
0.00558764 -0.000432314 0.000254535
0.00549865 -0.00211406 0.00107128
0.00556996 -0.00214725 0.00107821
0.00556181 -0.00220434 0.00108203
0.00543265 -0.00203448 0.00106017
0.00592528 0.000401092 -0.000430564
0.00557504 -0.002235 0.00108703
0.00541729 -0.00216212 0.00104778
0.0053565 -0.00214757 0.00104116
0.00587217 -0.000950721 -0.000224242
0.00521108 -0.000409361 0.000239502
0.0058255 -0.00116046 -0.000502929
0.00560749 -0.00121351 0.00223354
0.00553224 -0.00206969 0.00107936
0.0059343 -0.000546113 0.000298757
0.00550273 -0.00042185 0.000249431
0.00588021 -0.00239219 0.000682581
0.00549166 -0.00208545 0.00106721
0.00546068 -0.000415135 0.000246396
0.00606423 -0.00244768 0.000793501
0.00572923 0.00066587 0.00017187
0.00554013 -0.000430152 0.000252913
0.00558775 -0.000458997 0.000263922
0.00547592 -0.00042686 0.000250529
0.00663193 -0.00142784 0.0024041
0.00562338 -0.00211233 0.00108725
0.00572762 -0.00217075 0.001113
0.00544929 -0.00212687 0.00105951
0.00558345 -0.000435944 0.000255926
0.00524898 -0.002115 0.00100927
0.00550035 -0.00213313 0.00106602
0.00529249 -0.00214515 0.00102929
0.0055876 -0.000378473 0.000235672
0.00601477 -0.00247027 0.00071842
0.00555131 -0.000428857 0.000252657
0.00533261 -0.00200679 0.00104197
0.00573756 -0.00240772 0.000675794
0.00559614 -0.00223013 0.00106585
0.00548878 -0.00213855 0.00105182
0.00578208 0.000672841 0.000187504
0.00537913 -0.00204658 0.001049
0.00550901 -0.000419292 0.000248714
0.00569827 -0.00237669 0.000730457
0.00546709 -0.000414484 0.000246171
0.00567879 -0.00227279 0.000573868
0.005619 -0.00156698 0.00189937
0.00567952 -0.00231126 0.000902772
0.00554362 -0.00206592 0.0010778
0.00553662 -0.000434118 0.000254227
0.00551575 -0.000411275 0.000245842
0.00560672 -0.00223289 0.00109117
0.00556047 -0.000474781 0.000269461
0.005469 -0.00218379 0.00104754
0.00558756 -0.00218381 0.00108519
0.00592923 -0.00245388 0.000709264
0.00564442 -0.00219873 0.00087906
0.00527906 -0.0021095 0.00102818
0.00573093 -0.00129466 0.00233394
0.00671166 -0.000725521 0.00142064
0.00538898 -0.00211705 0.00105248
0.00539343 -0.00203843 0.00105163
0.00558344 -0.002113 0.00108698
0.00552765 -0.00221292 0.00106767
0.00558216 -0.000463731 0.000265562
0.00560856 -0.00225788 0.00103561
0.0056899 0.000575552 0.000196041
0.00562083 -0.000485997 0.000273939
0.00550076 -0.000422629 0.000249696
0.00576694 0.000665164 0.000176898

VECTORS force float
1.13129e-10 -1.07115e-10 5.25895e-11
-1.24418e-11 2.27606e-11 -4.36064e-11
-1.55762e-11 -1.91228e-12 -5.15679e-12
-1.29076e-10 2.31786e-10 1.31471e-10
-3.0154e-11 3.83392e-11 -6.57027e-11
-5.13777e-10 1.46466e-10 -1.60515e-10
-1.33099e-10 -7.0821e-11 2.97789e-11
3.75883e-12 4.8942e-11 -9.6353e-12
-3.80594e-10 -1.74915e-10 1.11343e-10
3.68374e-12 -4.00957e-11 -1.04887e-10
-1.05604e-10 -2.12487e-10 3.09807e-11
-1.12367e-10 1.97776e-10 3.02995e-10
-7.945e-10 -3.56672e-10 5.17913e-10
4.51717e-10 -5.18891e-11 9.10221e-11
-7.18867e-11 5.24665e-11 1.40649e-10
-9.25301e-11 -4.58073e-12 -3.90814e-11
1.87116e-10 -1.43941e-10 6.1088e-11
-2.09722e-11 5.75035e-11 -4.68412e-11
2.06987e-10 4.61569e-10 2.83323e-10
1.91003e-11 9.95097e-11 -2.29026e-11
-1.35877e-11 -2.00722e-11 1.18573e-10
-3.8326e-11 3.56667e-11 -9.49896e-12
1.76006e-10 -2.49022e-10 -2.58153e-10
-5.22613e-11 3.34689e-11 -1.31565e-11
1.9921e-11 2.26654e-11 -2.39921e-10
-1.59304e-11 -7.23743e-11 1.14465e-11
1.80636e-10 -7.54439e-11 -5.40797e-11
2.44931e-10 9.19657e-12 -4.6545e-11
-1.40182e-10 5.76851e-11 -5.44566e-11
-1.43344e-10 -3.02871e-11 4.98315e-11
-1.98644e-11 4.25527e-11 5.91485e-12
-1.28978e-11 -3.22745e-11 8.58645e-12
1.12295e-10 6.10645e-11 -6.63394e-11
1.33641e-11 -3.76985e-12 -1.56018e-13
2.01424e-11 1.06086e-10 -3.7041e-11
2.45331e-10 -3.40024e-11 -1.81503e-10
2.00619e-10 2.26031e-11 1.42398e-10
-6.44731e-12 -8.30806e-11 4.00753e-11
-8.35867e-12 2.10381e-11 -4.19251e-11
1.13465e-10 -3.38752e-10 -1.09911e-10
-5.59356e-13 -3.03639e-11 -1.75311e-11
-5.86467e-12 6.22811e-11 -1.35359e-11
8.32672e-12 -8.07422e-11 -8.73478e-12
1.03424e-10 -1.3042e-10 -6.42945e-11
-1.64426e-10 -1.13708e-10 3.15203e-10
-1.35775e-10 5.37542e-11 -8.25069e-12
-8.84425e-11 7.12417e-11 -2.90923e-11
9.38586e-11 -5.334e-10 2.85167e-10
1.13587e-10 -2.53588e-11 2.58073e-11
-2.7249e-12 7.25154e-12 -3.24991e-11
5.55762e-24 -8.78879e-25 2.06795e-25
-1.58182e-12 2.96942e-11 -1.55191e-11
1.32585e-10 3.24335e-10 -6.14181e-12
3.39626e-11 -1.98219e-10 9.56077e-11
7.80423e-12 2.10559e-11 -5.0029e-11
-1.54255e-11 5.93689e-11 -3.23523e-12
-2.11557e-10 -4.72802e-11 1.89278e-10
3.68979e-11 1.54175e-10 -1.43133e-10
-1.92701e-10 -1.43665e-10 7.4062e-11
2.49769e-10 6.37224e-12 -1.97201e-11
2.54942e-12 -9.22735e-12 1.96213e-12
2.20075e-11 8.65484e-11 -1.90102e-11
-3.1885e-10 1.89837e-10 -2.2739e-10
1.38016e-10 9.78496e-11 -4.30605e-11
-2.61162e-10 -4.06243e-11 1.13903e-10
-6.77661e-11 -1.72797e-10 7.0905e-11
-2.34785e-10 2.37153e-10 -1.95407e-10
5.29953e-11 7.22765e-11 1.07527e-11
1.2922e-11 -1.57753e-11 -1.1106e-11
-3.389e-11 1.67248e-10 3.17855e-11
1.49225e-11 2.15994e-11 -1.9489e-12
3.3912e-10 3.63693e-10 -4.35532e-10
-3.47327e-12 5.82373e-10 -7.88363e-10
8.75324e-12 4.03097e-12 -2.49629e-12
-3.8038e-11 1.79001e-10 -1.15107e-11
7.96014e-13 1.76782e-11 1.03586e-11
9.10348e-12 1.06203e-10 6.21935e-11
5.2407e-11 3.7631e-10 1.55402e-10
3.28447e-11 2.47944e-10 1.54911e-10
5.59323e-11 -8.17804e-11 -7.35079e-12
-1.31626e-10 8.16399e-11 -1.68855e-10
-3.69247e-10 1.1277e-10 -1.71289e-10
-6.86499e-11 -7.50681e-11 2.22581e-11
1.24823e-11 -2.34061e-11 -1.54652e-11
1.89602e-11 5.93776e-11 8.35578e-11
3.60855e-12 1.01777e-10 -1.47696e-10
-3.26404e-10 -1.39477e-10 1.38852e-10
-2.70951e-11 -6.0181e-11 1.74409e-11
4.94629e-10 -4.85994e-10 2.68758e-11
-1.1352e-11 -1.31128e-10 5.41352e-11
1.60783e-10 4.55346e-12 -1.21893e-10
1.00942e-21 -5.58347e-23 -4.88037e-23
3.23117e-27 0.0 0.0
-8.27197e-11 2.5773e-10 7.66083e-13
-1.65133e-11 -2.33194e-10 -5.19455e-11
-4.14356e-11 2.28414e-11 -1.15707e-10
-1.0188e-10 -1.68618e-11 -2.56873e-11
-4.97181e-12 -1.08723e-10 3.27869e-11
1.15797e-10 -1.54786e-10 -8.92573e-11
3.54583e-11 1.482e-10 1.37821e-11
1.73591e-10 3.98879e-11 -4.6451e-11
-1.33166e-10 -1.08417e-10 2.92012e-10
-1.71047e-10 8.94106e-11 -9.02179e-12
5.84814e-10 -8.01094e-11 1.25896e-10