# vtk DataFile Version 3.0
LIGGGHTS particles timestep 14600000
ASCII
DATASET POLYDATA
POINTS 287 float
0.0979589 0.0163424 0.0078803
0.0986085 0.0180403 0.00702868
0.0917542 0.015879 0.00814057
0.0982726 0.0176747 0.00711946
0.0978191 0.01617 0.00802673
0.104004 0.0168742 0.0075519
0.0980039 0.0168407 0.00745598
0.0977104 0.0157983 0.00834301
0.104251 0.017985 0.00697537
0.0979471 0.0166164 0.00764687
0.0984939 0.0178489 0.00707611
0.091946 0.0166304 0.00768388
0.0977973 0.0160956 0.00808999
0.0916691 0.0156334 0.00844148
0.0981541 0.0171031 0.00726073
0.0916485 0.0155846 0.00852627
0.0979269 0.0165418 0.00771035
0.104136 0.0174282 0.00714478
0.0977756 0.0160213 0.00815324
0.097937 0.0162679 0.00794367
0.098041 0.0169906 0.00732887
0.0920813 0.0168263 0.00756808
0.104193 0.0176981 0.00704051
0.0979855 0.0167658 0.00751967
0.104081 0.0171905 0.00731951
0.0921066 0.0172201 0.00742475
0.0982531 0.0175794 0.00714301
0.097754 0.0159469 0.00821652
0.0982141 0.017389 0.00719007
0.0980224 0.0169155 0.00739228
0.0981353 0.017016 0.00730709
0.104024 0.0169533 0.00749385
0.0979063 0.0164672 0.00777376
0.0981171 0.0169411 0.00737081
0.104291 0.0181782 0.00694377
0.09808 0.0167914 0.00749819
0.0982891 0.0173247 0.00720581
0.104212 0.0177938 0.00701879
0.0978625 0.0163186 0.00790022
0.09806 0.017077 0.0072824
0.0983088 0.0174201 0.00718223
0.104043 0.0170323 0.0074358
0.104118 0.017349 0.00720303
0.0978842 0.0163932 0.0078372
0.0980995 0.0172628 0.00722143
0.1041 0.0172698 0.00726126
0.0981584 0.0175483 0.00715082
0.0981389 0.0174531 0.00717435
0.0919257 0.0165468 0.00773476
0.104154 0.0175074 0.00708646
0.0979153 0.0161936 0.00800697
0.0917109 0.015741 0.00827855
0.0980985 0.0168663 0.0074345
0.104063 0.0171114 0.00737772
0.0982116 0.0169669 0.0073492
0.0982294 0.0170418 0.00728541
0.0978409 0.0162443 0.00796349
0.0983283 0.0175153 0.0071587
0.0982301 0.0176475 0.0072125
0.104173 0.0176025 0.00706245
0.0921827 0.0175426 0.00719903
0.0922147 0.0173295 0.00735032
0.0984743 0.0177537 0.00709964
0.0983673 0.0177057 0.00711163
0.0980231 0.016567 0.00768918
0.104232 0.0178894 0.00699708
0.0916899 0.0156823 0.00835674
0.0983479 0.0176105 0.00713517
0.0979668 0.016691 0.00758334
0.0981743 0.0171983 0.00723719
0.0922162 0.0174041 0.00719422
0.0983926 0.0182546 0.00697611
0.0917757 0.0159625 0.00808985
0.0920934 0.0169229 0.00761596
0.0981974 0.0177387 0.00710375
0.0920014 0.0168864 0.00763091
0.0920065 0.0168814 0.00753116
0.0921157 0.0166036 0.00770697
0.104271 0.0180807 0.00695366
0.0918929 0.0160739 0.00802559
0.0982336 0.0174842 0.00716654
0.0981933 0.016892 0.00741293
0.0982532 0.0180094 0.00703686
0.098217 0.0178339 0.00708022
0.0985917 0.0178688 0.00707105
0.0919663 0.0167141 0.00763299
0.0984065 0.0178961 0.00706458
0.098333 0.0180661 0.00708333
0.0984685 0.0181913 0.00699162
0.0982052 0.0177439 0.00720332
0.0984532 0.017982 0.00704332
0.0918829 0.0163798 0.00783623
0.0982729 0.0181046 0.00701333
0.0922371 0.0174078 0.00729194
0.0984096 0.0174587 0.00717255
0.0920058 0.0167992 0.00768013
0.0643568 0.0187248 0.00531097
0.24257 0.0191927 0.00520306
0.0922374 0.0171092 0.00739938
0.09184 0.0162129 0.00793768
0.0923337 0.0171377 0.00737911
0.0917971 0.016046 0.00803912
0.0980615 0.0167165 0.00756195
0.0981194 0.0173579 0.00719788
0.0985127 0.0183879 0.00694302
0.0983586 0.0183789 0.00702831
0.0919044 0.0164633 0.0077855
0.0925044 0.0179114 0.00698262
0.0924204 0.0174695 0.0072467
0.0981943 0.0172936 0.00721364
0.0980428 0.0166417 0.00762564
0.0978935 0.0161192 0.00807023
0.0917338 0.0158108 0.00821075
0.0982494 0.0171342 0.00725289
0.0977321 0.0158726 0.00827975
0.0976887 0.0157239 0.00840627
0.0984375 0.0184519 0.00692734
0.0919358 0.0162408 0.00792414
0.0983105 0.0178683 0.00707159
0.0978717 0.0160449 0.00813347
0.0980794 0.0171677 0.0072449
0.0918615 0.0162964 0.00788695
0.0981779 0.0176435 0.00712729
0.0982363 0.0179307 0.00709624
0.0921016 0.0169101 0.00751713
0.0923234 0.0174551 0.00726777
0.0982922 0.0177699 0.00709592
0.0981192 0.0165927 0.00766769
0.0982693 0.0172294 0.00722938
0.09785 0.0159706 0.00819673
0.0918715 0.0159904 0.00807632
0.0983366 0.0184133 0.00693703
0.0980027 0.0164922 0.00775285
0.0984871 0.0182867 0.00696804
0.0919144 0.0161573 0.00797487
0.0921979 0.0169403 0.00750219
0.0918186 0.0161294 0.0079884
0.0923292 0.0175096 0.00711417
0.0922123 0.016634 0.00769197
0.09185 0.0159069 0.00812704
0.0920659 0.0171328 0.00737852
0.0983169 0.0183181 0.00696056
0.0920207 0.0165751 0.00772091
0.0924972 0.0174202 0.0071707
0.0919788 0.0164077 0.00782268
0.0921608 0.0171625 0.00736349
0.0922345 0.0174839 0.00713676
0.0921419 0.0170787 0.00741457
0.0219312 0.0187687 0.00551176
0.0922563 0.0171907 0.00734462
0.0983869 0.0178009 0.0070881
0.0921399 0.0174583 0.00715887
0.0921799 0.0172449 0.00730961
0.0923118 0.0178523 0.0070105
0.0924224 0.017537 0.00709064
0.0980793 0.0164434 0.00779469
0.0920002 0.0164913 0.00777187
0.0923521 0.0172173 0.00732153
0.0924805 0.0178164 0.00700289
0.0923884 0.0173769 0.00720626
0.0980995 0.016518 0.00773122
0.0925357 0.0176568 0.0070396
0.0985114 0.0180636 0.00702308
0.0922927 0.0173502 0.00722941
0.0861498 0.0175297 0.00722107
0.092122 0.0169943 0.00746589
0.0921769 0.0176238 0.0070532
0.0925237 0.0180094 0.00696156
0.0924596 0.0177198 0.00702362
0.0921037 0.0172993 0.00727446
0.0979811 0.0164168 0.00781698
0.0923701 0.0172971 0.00726392
0.0984018 0.0179728 0.00712864
0.0920466 0.0170488 0.00742933
0.0920848 0.0172165 0.00732723
0.0983838 0.0173559 0.00719797
0.0983723 0.0181595 0.00699961
0.0984299 0.0175549 0.00714877
0.0862676 0.0176557 0.00717408
0.0983562 0.0185084 0.0069135
0.0922766 0.0168892 0.00753681
0.0981747 0.0168172 0.00747661
0.0921361 0.0166877 0.00765581
0.0925558 0.0177526 0.00701905
0.091628 0.0155357 0.00861106
0.0862084 0.0178057 0.00711926
0.0920349 0.0170351 0.00755126
0.0921982 0.0173244 0.00725183
0.0919863 0.0167978 0.00758206
0.0924458 0.0180761 0.0069447
0.0923146 0.0170565 0.0074349
0.0984544 0.0176579 0.00712331
0.0920611 0.0167427 0.00761899
0.0922714 0.0176588 0.00705177
0.0923109 0.0174298 0.00717183
0.0919573 0.0163243 0.00787341
0.0922747 0.0172704 0.00728702
0.092041 0.0166588 0.00767001
0.0981544 0.0173436 0.00729046
0.0984116 0.0180703 0.00702159
0.0924069 0.0174569 0.00714843
0.0983641 0.0172604 0.00722157
0.0983466 0.0179747 0.00704528
0.0862265 0.0174693 0.00724283
0.0921582 0.0175387 0.00710218
0.0981378 0.0166675 0.00760401
0.0922067 0.0177266 0.00711612
0.0982974 0.0182255 0.00699288
0.0921222 0.0173805 0.00721903
0.0861663 0.0171924 0.00734862
0.0981562 0.0167423 0.0075403
0.0922182 0.0170251 0.00745063
0.0920267 0.0169651 0.00748026
0.0983758 0.0186036 0.00688998
0.0925166 0.0175629 0.00706813
0.0862884 0.0177492 0.00713957
0.0861693 0.0176217 0.00718713
0.0921619 0.0174639 0.00725715
0.0924339 0.0182112 0.00693756
0.0861303 0.0174376 0.00725501
0.0920955 0.01652 0.00775786
0.0921771 0.0168557 0.00755366
0.0984179 0.0183567 0.00695086
0.0923522 0.0184901 0.00697148
0.0925 0.0182975 0.00693638
0.0924267 0.0184251 0.00695649
0.0859508 0.016615 0.00757386
0.0860119 0.016888 0.00746556
0.0859302 0.016524 0.00760993
0.0921567 0.0167717 0.00760472
0.0920963 0.0170966 0.00750177
0.0859713 0.016706 0.00753778
0.0860915 0.0172535 0.0073229
0.0922926 0.0177558 0.00702937
0.0924045 0.0178811 0.00698652
0.0862279 0.0178977 0.00708533
0.0922527 0.0175646 0.00708052
0.0985585 0.0181492 0.00700189
0.086267 0.0180817 0.00701746
0.086206 0.0173761 0.00727718
0.0860717 0.0171612 0.0073571
0.0918281 0.015823 0.00817804
0.0923456 0.0175919 0.00705484
0.0922354 0.0179069 0.00697615
0.0922478 0.0178973 0.00707491
0.0862866 0.0181737 0.00698353
0.0924001 0.0177478 0.00709887
0.0924058 0.0183275 0.00695094
0.0925331 0.0182039 0.00692428
0.0860518 0.0170702 0.00739325
0.092255 0.0180027 0.00695557
0.0861889 0.0177137 0.0071532
0.0924364 0.0171719 0.00735033
0.0923535 0.01804 0.006958
0.0921061 0.0173069 0.00737414
0.0922159 0.017811 0.00699678
0.0985498 0.0179569 0.00704935
0.0924409 0.0176238 0.00704453
0.0863256 0.0183578 0.00691566
0.0922924 0.0181974 0.00697322
0.0863061 0.0182658 0.00694959
0.0923309 0.0179487 0.00699176
0.0921962 0.0177151 0.00701733
0.0923118 0.0182946 0.00696017
0.0923857 0.017785 0.00700718
0.0861109 0.0173456 0.00728895
0.0862471 0.0175626 0.00720842
0.0924165 0.0170903 0.0074093
0.0861861 0.017284 0.00731227
0.0859919 0.0167969 0.0075017
0.0923745 0.0182379 0.00701348
0.092366 0.0181379 0.00694005
0.0922742 0.0181009 0.00695446
0.0924297 0.0179758 0.00696636
0.0923305 0.0181267 0.00703291
0.0922335 0.0167186 0.00764048
0.0922552 0.0168039 0.00758864
0.0925413 0.0181057 0.00694083
0.0920743 0.0164355 0.0078092
0.0923646 0.0176864 0.00702833
0.0923401 0.018335 0.00704718
0.0863274 0.0179332 0.00707174
0.0923307 0.0183926 0.00696602
0.0983443 0.0171651 0.00724514
0.0860318 0.0169791 0.00742941
0.0862475 0.0179897 0.00705139
0.0984939 0.0179338 0.00712894

VERTICES 287 574
1 0
1 1
1 2
1 3
1 4
1 5
1 6
1 7
1 8
1 9
1 10
1 11
1 12
1 13
1 14
1 15
1 16
1 17
1 18
1 19
1 20
1 21
1 22
1 23
1 24
1 25
1 26
1 27
1 28
1 29
1 30
1 31
1 32
1 33
1 34
1 35
1 36
1 37
1 38
1 39
1 40
1 41
1 42
1 43
1 44
1 45
1 46
1 47
1 48
1 49
1 50
1 51
1 52
1 53
1 54
1 55
1 56
1 57
1 58
1 59
1 60
1 61
1 62
1 63
1 64
1 65
1 66
1 67
1 68
1 69
1 70
1 71
1 72
1 73
1 74
1 75
1 76
1 77
1 78
1 79
1 80
1 81
1 82
1 83
1 84
1 85
1 86
1 87
1 88
1 89
1 90
1 91
1 92
1 93
1 94
1 95
1 96
1 97
1 98
1 99
1 100
1 101
1 102
1 103
1 104
1 105
1 106
1 107
1 108
1 109
1 110
1 111
1 112
1 113
1 114
1 115
1 116
1 117
1 118
1 119
1 120
1 121
1 122
1 123
1 124
1 125
1 126
1 127
1 128
1 129
1 130
1 131
1 132
1 133
1 134
1 135
1 136
1 137
1 138
1 139
1 140
1 141
1 142
1 143
1 144
1 145
1 146
1 147
1 148
1 149
1 150
1 151
1 152
1 153
1 154
1 155
1 156
1 157
1 158
1 159
1 160
1 161
1 162
1 163
1 164
1 165
1 166
1 167
1 168
1 169
1 170
1 171
1 172
1 173
1 174
1 175
1 176
1 177
1 178
1 179
1 180
1 181
1 182
1 183
1 184
1 185
1 186
1 187
1 188
1 189
1 190
1 191
1 192
1 193
1 194
1 195
1 196
1 197
1 198
1 199
1 200
1 201
1 202
1 203
1 204
1 205
1 206
1 207
1 208
1 209
1 210
1 211
1 212
1 213
1 214
1 215
1 216
1 217
1 218
1 219
1 220
1 221
1 222
1 223
1 224
1 225
1 226
1 227
1 228
1 229
1 230
1 231
1 232
1 233
1 234
1 235
1 236
1 237
1 238
1 239
1 240
1 241
1 242
1 243
1 244
1 245
1 246
1 247
1 248
1 249
1 250
1 251
1 252
1 253
1 254
1 255
1 256
1 257
1 258
1 259
1 260
1 261
1 262
1 263
1 264
1 265
1 266
1 267
1 268
1 269
1 270
1 271
1 272
1 273
1 274
1 275
1 276
1 277
1 278
1 279
1 280
1 281
1 282
1 283
1 284
1 285
1 286

POINT_DATA 287
SCALARS id int 1
LOOKUP_TABLE default
1
2
3
4
5
6
7
8
9
10
11
12
13
14
15
16
17
18
19
21
22
23
24
25
26
27
28
29
30
31
32
33
34
35
36
37
38
39
41
42
44
45
46
47
48
49
50
51
52
53
54
55
56
57
59
60
61
62
63
64
65
66
67
68
69
70
71
72
73
74
76
77
78
79
80
81
82
83
84
85
86
87
88
89
90
91
92
93
94
95
96
97
98
99
100
101
102
103
104
105
106
107
108
109
110
111
112
113
114
115
116
117
118
119
120
121
122
123
124
125
126
127
128
129
130
131
132
133
134
135
136
137
138
140
141
142
143
144
146
147
148
149
150
151
153
154
155
156
157
158
159
160
162
164
165
166
167
168
169
170
171
172
173
174
175
176
177
178
179
181
182
183
184
185
186
187
188
189
190
191
192
193
194
195
196
197
198
199
200
201
202
203
204
205
206
207
208
209
210
211
212
213
214
215
216
217
218
219
220
221
222
223
224
225
226
227
228
229
230
231
232
233
234
235
236
237
239
240
241
242
243
244
246
247
248
249
250
251
252
253
254
255
256
257
258
259
260
261
262
263
264
265
266
267
268
269
270
271
272
273
274
275
276
277
278
279
280
281
282
283
284
285
286
287
288
289
290
291
292
293
294
295
296
297
298
299
300

SCALARS type int 1
LOOKUP_TABLE default
1
1
1
1
1
1
1
1
1
1
1
1
1
1
1
1
1
1
1
1
1
1
1
1
1
1
1
1
1
1
1
1
1
1
1
1
1
1
1
1
1
1
1
1
1
1
1
1
1
1
1
1
1
1
1
1
1
1
1
1
1
1
1
1
1
1
1
1
1
1
1
1
1
1
1
1
1
1
1
1
1
1
1
1
1
1
1
1
1
1
1
1
1
1
1
1
1
1
1
1
1
1
1
1
1
1
1
1
1
1
1
1
1
1
1
1
1
1
1
1
1
1
1
1
1
1
1
1
1
1
1
1
1
1
1
1
1
1
1
1
1
1
1
1
1
1
1
1
1
1
1
1
1
1
1
1
1
1
1
1
1
1
1
1
1
1
1
1
1
1
1
1
1
1
1
1
1
1
1
1
1
1
1
1
1
1
1
1
1
1
1
1
1
1
1
1
1
1
1
1
1
1
1
1
1
1
1
1
1
1
1
1
1
1
1
1
1
1
1
1
1
1
1
1
1
1
1
1
1
1
1
1
1
1
1
1
1
1
1
1
1
1
1
1
1
1
1
1
1
1
1
1
1
1
1
1
1
1
1
1
1
1
1
1
1
1
1
1
1
1
1
1
1
1
1
1
1
1
1
1
1
1
1
1
1
1
1

SCALARS radius float 1
LOOKUP_TABLE default
5e-05
5e-05
5e-05
5e-05
5e-05
5e-05
5e-05
5e-05
5e-05
5e-05
5e-05
5e-05
5e-05
5e-05
5e-05
5e-05
5e-05
5e-05
5e-05
5e-05
5e-05
5e-05
5e-05
5e-05
5e-05
5e-05
5e-05
5e-05
5e-05
5e-05
5e-05
5e-05
5e-05
5e-05
5e-05
5e-05
5e-05
5e-05
5e-05
5e-05
5e-05
5e-05
5e-05
5e-05
5e-05
5e-05
5e-05
5e-05
5e-05
5e-05
5e-05
5e-05
5e-05
5e-05
5e-05
5e-05
5e-05
5e-05
5e-05
5e-05
5e-05
5e-05
5e-05
5e-05
5e-05
5e-05
5e-05
5e-05
5e-05
5e-05
5e-05
5e-05
5e-05
5e-05
5e-05
5e-05
5e-05
5e-05
5e-05
5e-05
5e-05
5e-05
5e-05
5e-05
5e-05
5e-05
5e-05
5e-05
5e-05
5e-05
5e-05
5e-05
5e-05
5e-05
5e-05
5e-05
5e-05
5e-05
5e-05
5e-05
5e-05
5e-05
5e-05
5e-05
5e-05
5e-05
5e-05
5e-05
5e-05
5e-05
5e-05
5e-05
5e-05
5e-05
5e-05
5e-05
5e-05
5e-05
5e-05
5e-05
5e-05
5e-05
5e-05
5e-05
5e-05
5e-05
5e-05
5e-05
5e-05
5e-05
5e-05
5e-05
5e-05
5e-05
5e-05
5e-05
5e-05
5e-05
5e-05
5e-05
5e-05
5e-05
5e-05
5e-05
5e-05
5e-05
5e-05
5e-05
5e-05
5e-05
5e-05
5e-05
5e-05
5e-05
5e-05
5e-05
5e-05
5e-05
5e-05
5e-05
5e-05
5e-05
5e-05
5e-05
5e-05
5e-05
5e-05
5e-05
5e-05
5e-05
5e-05
5e-05
5e-05
5e-05
5e-05
5e-05
5e-05
5e-05
5e-05
5e-05
5e-05
5e-05
5e-05
5e-05
5e-05
5e-05
5e-05
5e-05
5e-05
5e-05
5e-05
5e-05
5e-05
5e-05
5e-05
5e-05
5e-05
5e-05
5e-05
5e-05
5e-05
5e-05
5e-05
5e-05
5e-05
5e-05
5e-05
5e-05
5e-05
5e-05
5e-05
5e-05
5e-05
5e-05
5e-05
5e-05
5e-05
5e-05
5e-05
5e-05
5e-05
5e-05
5e-05
5e-05
5e-05
5e-05
5e-05
5e-05
5e-05
5e-05
5e-05
5e-05
5e-05
5e-05
5e-05
5e-05
5e-05
5e-05
5e-05
5e-05
5e-05
5e-05
5e-05
5e-05
5e-05
5e-05
5e-05
5e-05
5e-05
5e-05
5e-05
5e-05
5e-05
5e-05
5e-05
5e-05
5e-05
5e-05
5e-05
5e-05
5e-05
5e-05
5e-05
5e-05
5e-05
5e-05
5e-05
5e-05
5e-05
5e-05
5e-05
5e-05
5e-05
5e-05
5e-05
5e-05
5e-05
5e-05
5e-05
5e-05
5e-05
5e-05
5e-05
5e-05
5e-05
5e-05
5e-05

SCALARS mass float 1
LOOKUP_TABLE default
1.46608e-10
1.46608e-10
1.46608e-10
1.46608e-10
1.46608e-10
1.46608e-10
1.46608e-10
1.46608e-10
1.46608e-10
1.46608e-10
1.46608e-10
1.46608e-10
1.46608e-10
1.46608e-10
1.46608e-10
1.46608e-10
1.46608e-10
1.46608e-10
1.46608e-10
1.46608e-10
1.46608e-10
1.46608e-10
1.46608e-10
1.46608e-10
1.46608e-10
1.46608e-10
1.46608e-10
1.46608e-10
1.46608e-10
1.46608e-10
1.46608e-10
1.46608e-10
1.46608e-10
1.46608e-10
1.46608e-10
1.46608e-10
1.46608e-10
1.46608e-10
1.46608e-10
1.46608e-10
1.46608e-10
1.46608e-10
1.46608e-10
1.46608e-10
1.46608e-10
1.46608e-10
1.46608e-10
1.46608e-10
1.46608e-10
1.46608e-10
1.46608e-10
1.46608e-10
1.46608e-10
1.46608e-10
1.46608e-10
1.46608e-10
1.46608e-10
1.46608e-10
1.46608e-10
1.46608e-10
1.46608e-10
1.46608e-10
1.46608e-10
1.46608e-10
1.46608e-10
1.46608e-10
1.46608e-10
1.46608e-10
1.46608e-10
1.46608e-10
1.46608e-10
1.46608e-10
1.46608e-10
1.46608e-10
1.46608e-10
1.46608e-10
1.46608e-10
1.46608e-10
1.46608e-10
1.46608e-10
1.46608e-10
1.46608e-10
1.46608e-10
1.46608e-10
1.46608e-10
1.46608e-10
1.46608e-10
1.46608e-10
1.46608e-10
1.46608e-10
1.46608e-10
1.46608e-10
1.46608e-10
1.46608e-10
1.46608e-10
1.46608e-10
1.46608e-10
1.46608e-10
1.46608e-10
1.46608e-10
1.46608e-10
1.46608e-10
1.46608e-10
1.46608e-10
1.46608e-10
1.46608e-10
1.46608e-10
1.46608e-10
1.46608e-10
1.46608e-10
1.46608e-10
1.46608e-10
1.46608e-10
1.46608e-10
1.46608e-10
1.46608e-10
1.46608e-10
1.46608e-10
1.46608e-10
1.46608e-10
1.46608e-10
1.46608e-10
1.46608e-10
1.46608e-10
1.46608e-10
1.46608e-10
1.46608e-10
1.46608e-10
1.46608e-10
1.46608e-10
1.46608e-10
1.46608e-10
1.46608e-10
1.46608e-10
1.46608e-10
1.46608e-10
1.46608e-10
1.46608e-10
1.46608e-10
1.46608e-10
1.46608e-10
1.46608e-10
1.46608e-10
1.46608e-10
1.46608e-10
1.46608e-10
1.46608e-10
1.46608e-10
1.46608e-10
1.46608e-10
1.46608e-10
1.46608e-10
1.46608e-10
1.46608e-10
1.46608e-10
1.46608e-10
1.46608e-10
1.46608e-10
1.46608e-10
1.46608e-10
1.46608e-10
1.46608e-10
1.46608e-10
1.46608e-10
1.46608e-10
1.46608e-10
1.46608e-10
1.46608e-10
1.46608e-10
1.46608e-10
1.46608e-10
1.46608e-10
1.46608e-10
1.46608e-10
1.46608e-10
1.46608e-10
1.46608e-10
1.46608e-10
1.46608e-10
1.46608e-10
1.46608e-10
1.46608e-10
1.46608e-10
1.46608e-10
1.46608e-10
1.46608e-10
1.46608e-10
1.46608e-10
1.46608e-10
1.46608e-10
1.46608e-10
1.46608e-10
1.46608e-10
1.46608e-10
1.46608e-10
1.46608e-10
1.46608e-10
1.46608e-10
1.46608e-10
1.46608e-10
1.46608e-10
1.46608e-10
1.46608e-10
1.46608e-10
1.46608e-10
1.46608e-10
1.46608e-10
1.46608e-10
1.46608e-10
1.46608e-10
1.46608e-10
1.46608e-10
1.46608e-10
1.46608e-10
1.46608e-10
1.46608e-10
1.46608e-10
1.46608e-10
1.46608e-10
1.46608e-10
1.46608e-10
1.46608e-10
1.46608e-10
1.46608e-10
1.46608e-10
1.46608e-10
1.46608e-10
1.46608e-10
1.46608e-10
1.46608e-10
1.46608e-10
1.46608e-10
1.46608e-10
1.46608e-10
1.46608e-10
1.46608e-10
1.46608e-10
1.46608e-10
1.46608e-10
1.46608e-10
1.46608e-10
1.46608e-10
1.46608e-10
1.46608e-10
1.46608e-10
1.46608e-10
1.46608e-10
1.46608e-10
1.46608e-10
1.46608e-10
1.46608e-10
1.46608e-10
1.46608e-10
1.46608e-10
1.46608e-10
1.46608e-10
1.46608e-10
1.46608e-10
1.46608e-10
1.46608e-10
1.46608e-10
1.46608e-10
1.46608e-10
1.46608e-10
1.46608e-10
1.46608e-10
1.46608e-10
1.46608e-10
1.46608e-10
1.46608e-10
1.46608e-10
1.46608e-10
1.46608e-10
1.46608e-10
1.46608e-10
1.46608e-10
1.46608e-10
1.46608e-10
1.46608e-10
1.46608e-10
1.46608e-10
1.46608e-10
1.46608e-10
1.46608e-10
1.46608e-10
1.46608e-10
1.46608e-10

VECTORS velocity float
0.00619897 9.82829e-05 -6.1339e-05
0.00564311 0.000158311 -4.76401e-05
0.00634186 0.00041305 -1.05145e-05
0.00560628 0.00017735 -5.32506e-05
0.00615782 6.56582e-05 -3.47945e-05
0.00579898 0.000516325 -0.000109112
0.00584942 8.93007e-05 -6.81841e-05
0.00615735 0.000131929 -9.02153e-05
0.00576192 0.000459548 -0.000261784
0.00549061 0.000198328 -0.000148831
0.00561555 0.000176156 -5.2772e-05
0.00562334 0.000534258 -0.000113031
0.00615062 7.33237e-05 -4.0422e-05
0.00622419 -5.77554e-06 -0.000411395
0.00576929 0.000193536 -6.26475e-05
0.00621149 -1.95771e-06 -0.000418363
0.00567702 0.000155839 -0.000112074
0.00573547 0.000503606 -0.000103395
0.0061558 8.23906e-05 -4.80155e-05
0.00614041 5.36186e-05 -2.36832e-05
0.00581291 0.000109576 -5.32829e-05
0.00581606 0.000479173 -7.24487e-05
0.0057428 0.000464654 -0.000265928
0.00572674 0.000130492 -9.48116e-05
0.0057065 0.000507748 -0.000107702
0.00574075 0.000525165 -0.000107842
0.00557601 0.000198182 -5.8658e-05
0.00617574 9.11868e-05 -5.53823e-05
0.00558176 0.000175853 -5.10077e-05
0.00584189 9.40617e-05 -6.03457e-05
0.00579433 0.000130432 -8.20645e-05
0.00583385 0.000505049 -0.00010019
0.006015 8.26897e-05 -4.82875e-05
0.00583184 0.000125433 -8.93338e-05
0.00575997 0.000539956 0.000540943
0.00592305 0.000138484 -9.95788e-05
0.00558928 0.000178106 -5.23865e-05
0.00573894 0.000466414 -0.000261802
0.0061515 5.84886e-05 -2.79108e-05
0.00578003 0.000122761 -4.79087e-05
0.00557358 0.000192586 -5.59955e-05
0.00586412 0.000493416 -9.03222e-05
0.00573811 0.000502154 -0.00010222
0.00614817 5.67578e-05 -2.64572e-05
0.00574332 0.000130275 -3.72046e-05
0.00574943 0.000500345 -0.000100364
0.00557974 0.00018336 -5.28382e-05
0.00557594 0.000172243 -4.97966e-05
0.00584474 0.000501681 -8.4178e-05
0.0057342 0.000505644 -0.000103918
0.00616209 5.06984e-05 -2.01944e-05
0.00631207 0.000103766 -0.000326727
0.00587562 0.000132415 -9.19943e-05
0.00565973 0.000518145 -0.00011728
0.00581824 0.000156694 -0.000118372
0.00578628 0.000118677 -8.79307e-05
0.00615937 5.82788e-05 -2.93134e-05
0.00556788 0.000197726 -5.82239e-05
0.00560113 0.000208479 -6.06123e-05
0.00574162 0.00045872 -0.000289602
0.00572979 0.000281997 -0.000394439
0.00566339 0.000242422 -0.000438924
0.00563735 0.000179962 -5.31619e-05
0.00561471 0.00019423 -5.64671e-05
0.00546142 0.000145194 -0.000104056
0.00574069 0.000465154 -0.000262328
0.00624006 -2.25233e-06 -0.000417431
0.0055815 0.000202438 -5.85603e-05
0.00558373 0.000177703 -0.000130039
0.00576033 0.000126081 -3.79847e-05
0.00564207 0.000276149 -0.00043203
0.00565939 0.00018126 -5.34267e-05
0.00632347 0.000417814 -1.30025e-05
0.00584121 0.000476689 -8.03844e-05
0.00562391 0.0001885 -5.53248e-05
0.00578237 0.000512509 -0.000105802
0.00583835 0.000497246 -8.68918e-05
0.0056276 0.000389768 -2.33038e-05
0.00578442 0.00045402 -0.000261172
0.0063186 0.000445516 -3.14924e-05
0.00556558 0.000188223 -5.45344e-05
0.00586991 0.000162197 -0.000115799
0.00562886 0.000164146 -4.85375e-05
0.00563522 0.000181418 -5.39645e-05
0.00560975 0.00016296 -4.99336e-05
0.00573155 0.000512591 -9.65615e-05
0.00562579 0.000182455 -5.36866e-05
0.00563754 0.000184659 -5.87063e-05
0.00565884 0.000174606 -5.19113e-05
0.00563269 0.000219414 -5.79981e-05
0.00562659 0.000180132 -5.34476e-05
0.00621072 0.000443591 -3.41658e-05
0.00564811 0.000182784 -5.61902e-05
0.00566657 0.00021718 -0.000433602
0.00554248 0.000172967 -5.13339e-05
0.00574862 0.000496748 -9.01069e-05
4.06832e-15 1.05283e-14 8.29664e-14
-4.31789e-22 4.86658e-23 -5.81428e-22
0.00569515 0.000484146 -7.98834e-05
0.00625986 0.000430877 -2.44786e-05
0.00561308 0.000228806 -0.000403556
0.00630444 0.000419883 -1.6997e-05
0.00576615 0.000160996 -0.00011723
0.00558388 0.000161093 -4.78936e-05
0.00566743 0.000177738 -5.26875e-05
0.00567009 0.00019003 -5.10072e-05
0.00619536 0.000445187 -3.57291e-05
0.00574168 0.000485616 5.28541e-05
0.00585456 0.000340056 -0.000493952
0.00558671 0.000159808 -4.73252e-05
0.0055958 0.000155321 -0.000111612
0.00616083 4.60869e-05 -1.69985e-05
0.00634037 0.000307206 -0.000113031
0.00578193 0.000139774 -3.90053e-05
0.00616203 0.000113322 -7.44965e-05
0.00616386 0.000149394 -0.000105075
0.00566445 0.000176935 -5.25354e-05
0.00625026 0.000454998 -3.98407e-05
0.00563325 0.000221647 -6.05704e-05
0.00614191 5.096e-05 -2.12186e-05
0.00574532 0.00013588 -4.14394e-05
0.00623404 0.000436783 -2.90258e-05
0.00559784 0.00019102 -5.59987e-05
0.00561833 0.000173516 -4.75541e-05
0.00585528 0.000494374 -8.04912e-05
0.00573774 0.000222388 -0.000428061
0.0056341 0.000180706 -5.32643e-05
0.00560893 0.000259763 -0.000201262
0.00559707 0.000168973 -5.0107e-05
0.00616602 8.94525e-05 -5.39252e-05
0.00631514 0.000420567 -1.65148e-05
0.00566118 0.00018223 -5.33549e-05
0.00581292 0.000257983 -0.000198777
0.00566218 0.000174807 -5.1842e-05
0.00627843 0.000450292 -3.58335e-05
0.00590216 0.000542086 -0.000107013
0.00628548 0.000424934 -2.07161e-05
0.0057359 0.000281511 -0.000459777
0.00567861 0.00041779 -3.86876e-05
0.00632867 0.000421508 -1.59175e-05
0.00579479 0.000510199 -9.47176e-05
0.00565749 0.000183905 -5.38502e-05
0.00556533 0.000478956 -8.09273e-05
0.00939605 0.00644319 -0.00499645
0.00619041 0.000448083 -3.78889e-05
0.00577435 0.000563325 -0.000124189
0.00571068 0.000272718 -0.000420269
0.00583415 0.000549839 -0.000114719
-3.83863e-14 8.15956e-14 2.959e-13
0.00564082 0.000255752 -0.000432249
0.00563186 0.000183987 -5.43472e-05
0.00565921 0.000282816 -0.000455694
0.00563401 0.000260584 -0.000416815
0.00578294 0.000511267 4.92233e-05
0.0057356 0.000361479 -0.000509122
0.0058434 0.000280004 -0.000217707
0.00615474 0.000799334 -0.000256134
0.00565481 0.000229508 -0.000407235
0.00576248 0.000483304 5.30418e-05
0.00564683 0.000213695 -0.000403045
0.00561324 0.000188059 -0.000139973
0.00573917 0.000486935 5.53833e-05
0.00564415 0.000174117 -5.15194e-05
0.00569771 0.000242789 -0.000419821
0.00545766 -0.000179661 3.53383e-05
0.00587889 0.000522573 -9.79985e-05
0.00575529 0.000464346 -0.000139227
0.00572724 0.00049651 5.03952e-05
0.00575311 0.00049337 5.01214e-05
0.00567269 0.000408274 -0.000283915
0.00622764 0.00024471 -0.000186411
0.00568546 0.000226276 -0.000404126
0.00563184 0.000181127 -5.30451e-05
0.00585111 0.000500663 -8.67961e-05
0.00572846 0.000519801 -0.000104073
0.00556618 0.000184058 -5.41483e-05
0.00564497 0.000186662 -5.53319e-05
0.00558091 0.000219355 -6.28233e-05
0.00551725 -0.000187665 3.79852e-05
0.00566291 0.000178173 -5.26554e-05
0.00593606 0.000577306 -0.000127393
0.00591318 0.000175765 -0.0001277
0.00570886 0.000437682 -4.94549e-05
0.00575026 0.00047049 5.56248e-05
0.00615679 8.54381e-06 -0.000428847
0.00552791 -0.000192435 3.97354e-05
0.00594315 0.000470463 -5.90638e-05
0.00563882 0.000265219 -0.000438569
0.00580673 0.000498712 -8.81998e-05
0.00579269 0.000476456 5.46567e-05
0.00576144 0.000561835 -0.000127785
0.0056152 0.000189429 -5.54429e-05
0.00576464 0.000478256 -7.14207e-05
0.00575929 0.000529796 5.4235e-05
0.0056998 0.000245166 -0.000423083
0.00620444 0.00044866 -3.7672e-05
0.00566501 0.000281483 -0.000440183
0.00566587 0.000449097 -5.9365e-05
0.00557842 0.00014722 -4.32428e-05
0.00563977 0.00018475 -5.53525e-05
0.00580527 0.000350139 -0.000496338
0.00558547 0.000168314 -5.0316e-05
0.00563708 0.00018199 -5.32046e-05
0.00546 -0.000177189 3.44604e-05
0.00571703 0.000323998 -0.00038949
0.00587957 0.000224666 -0.000169705
0.00576862 0.00049387 5.35085e-05
0.00564264 0.000186958 -5.49842e-05
0.00564196 0.000304345 -0.000426036
0.00544119 -8.08137e-05 0.000273961
0.00597038 0.000187523 -0.000137703
0.00584291 0.000557684 -0.000119963
0.00586497 0.000497998 -8.2846e-05
0.00566376 0.000173245 -5.14603e-05
0.0057478 0.000322605 -0.000475106
0.00552684 -0.000193731 4.0199e-05
0.00550359 -0.000187028 3.79028e-05
0.00573265 0.0002582 -0.000423498
0.00574545 0.000484576 -0.00069353
0.00544601 -0.000179093 3.5351e-05
0.00553489 0.000461494 -7.13843e-05
0.00585238 0.000496378 -8.13771e-05
0.00566255 0.000178213 -5.27706e-05
0.00617436 0.000502582 -0.000745878
0.00574783 0.000380246 -0.00070124
0.00612333 0.000439497 -0.000744671
0.00572797 -0.000344083 0.000393823
0.00548753 -0.000306287 0.000367815
0.00572663 -0.000342576 0.000393119
0.00578912 0.000450648 -5.5602e-05
0.00585909 0.00052267 -0.000100145
0.00572787 -0.000344988 0.000394176
0.00541849 -0.000205276 4.51241e-05
0.00577225 0.000510542 5.15292e-05
0.00579299 0.000486447 5.77516e-05
0.00554102 -0.000194803 4.04512e-05
0.00572445 0.000327469 -0.000348282
0.00565893 0.000169201 -5.03752e-05
0.00556597 -0.000199665 4.21201e-05
0.00544531 -0.000180001 3.56463e-05
0.00552772 -0.000316694 0.000373727
0.00633022 0.00040183 -9.28586e-07
0.00562496 0.000363732 -0.000498736
0.00579989 0.000527154 4.95841e-05
0.00582624 0.00050916 4.33533e-05
0.00557889 -0.000201302 4.26548e-05
0.00576154 0.000499761 5.13309e-05
0.00578568 0.00050565 -0.000696477
0.00568686 0.000354349 -0.000696474
0.00551384 -0.000313706 0.000371994
0.005804 0.000522344 4.56334e-05
0.00551573 -0.000189579 3.86729e-05
0.00606085 0.000757687 -0.000800374
0.00576986 0.000501483 -3.68356e-05
0.00603908 0.000641994 -0.00031686
0.00578697 0.000534217 5.79627e-05
0.00561934 0.000168999 -5.17663e-05
0.00577524 0.000378531 -0.000458145
0.00560406 -0.00020607 4.42494e-05
0.00578942 0.000585162 -0.000597882
0.00559187 -0.000203153 4.33335e-05
0.00581075 0.000514875 1.8914e-05
0.0057743 0.000536789 4.59586e-05
0.00576224 0.000583691 -0.000687179
0.00576501 0.000496922 5.08231e-05
0.00543537 -0.000177414 3.48953e-05
0.00550734 -0.00018282 3.63001e-05
0.0058286 0.000475534 -0.000587666
0.0054143 -0.000108289 0.00028388
0.00572926 -0.000347456 0.000395244
0.00580446 0.000636215 -0.000700411
0.00573096 0.00049726 -0.000689388
0.0057916 0.000518394 -0.000250416
0.00574193 0.000479752 5.4639e-05
0.00605308 0.000781383 -0.000527376
0.00577113 0.000429047 -4.24418e-05
0.0058811 0.000529816 -0.000100131
0.00578661 0.00048729 5.38991e-05
0.0063627 0.000999922 -0.000372096
0.00576217 0.000499786 4.9064e-05
0.00576987 0.000594658 -0.000687707
0.00555251 -0.000198508 4.18096e-05
0.00572947 0.000592485 -0.000681435
0.00571677 0.000286988 -7.93221e-05
0.0055003 -0.00031014 0.000369819
0.00555331 -0.000197425 4.14068e-05
0.00562347 0.000172795 -5.05345e-05

VECTORS force float
-3.66193e-11 1.26729e-10 -1.09313e-10
1.833e-11 -5.4347e-11 1.58185e-11
-3.36965e-11 9.03475e-12 -6.82423e-11
6.4407e-11 -2.22859e-10 5.49933e-11
3.41474e-11 8.3122e-12 4.39835e-12
-1.67457e-11 -5.77281e-11 5.50489e-11
1.81555e-10 2.67518e-10 -2.26856e-10
-1.67535e-11 -8.80576e-11 7.63677e-11
1.35142e-11 1.27097e-11 -2.82801e-12
-8.04392e-10 -1.87538e-10 1.63227e-10
1.69204e-10 -2.53691e-11 2.05649e-11
7.69165e-11 -1.74193e-10 1.054e-10
-1.62927e-11 -1.30913e-11 1.09467e-11
1.26849e-10 -1.21181e-10 2.90946e-10
9.74673e-11 1.89306e-10 1.00904e-10
3.02214e-10 -1.04075e-10 2.31896e-10
-2.66237e-10 2.8045e-10 -2.73506e-10
8.21923e-11 3.19327e-11 -1.93755e-11
6.93733e-11 -6.72197e-12 4.24603e-12
9.62564e-12 3.4649e-11 -2.32549e-11
2.17434e-10 7.12289e-11 -1.30942e-10
-6.71626e-12 -9.96893e-12 1.48654e-11
-1.39423e-10 2.00131e-11 -2.75926e-11
4.6723e-10 1.40337e-10 -1.4997e-10
-3.31981e-12 2.63588e-11 -2.9897e-11
1.25117e-10 1.21754e-10 -9.32485e-11
-6.56556e-12 -3.39633e-11 2.29395e-11
9.47886e-11 -2.91472e-11 2.58364e-11
-4.99146e-12 -8.4785e-11 2.88077e-11
1.37904e-10 2.11251e-10 -1.90232e-10
2.33306e-10 1.11754e-10 1.67467e-10
-2.37781e-11 -5.75463e-11 2.71833e-11
3.65838e-10 3.61424e-10 -3.04478e-10
6.47747e-11 3.39536e-11 -7.53832e-11
5.57029e-12 3.77416e-11 2.92748e-12
1.70208e-10 1.34814e-10 -1.53668e-10
-3.18547e-11 -5.47681e-11 2.06186e-11
-3.12204e-11 -1.62211e-11 2.68554e-12
-6.04903e-12 8.95907e-11 -7.47147e-11
1.41496e-10 3.02858e-11 -1.42444e-10
-9.13406e-11 -8.36186e-11 2.42859e-11
1.04264e-11 -3.35445e-11 2.01912e-11
1.15908e-10 3.48639e-11 -2.44666e-11
4.86924e-11 2.63549e-10 -2.36233e-10
2.43684e-11 6.28467e-11 9.91545e-12
3.18886e-11 5.02475e-11 -2.65818e-11
-7.84355e-12 -1.74118e-10 4.26048e-11
1.9667e-11 -1.35871e-10 4.21725e-11
-2.1252e-10 -1.44956e-10 8.02917e-11
4.34775e-12 2.85572e-11 -1.93808e-11
1.08156e-12 -5.81989e-11 4.98107e-11
-2.11888e-10 -2.12981e-11 9.23672e-11
-1.66301e-10 8.15799e-12 -1.57985e-10
-1.43773e-11 7.43354e-12 5.46493e-12
1.40394e-10 -2.42218e-10 1.25026e-10
7.71562e-11 -3.58517e-11 -4.65322e-11
7.80923e-11 2.56003e-11 -6.71739e-12
-3.71689e-11 -7.75658e-11 6.37283e-12
-1.22418e-10 -1.78313e-10 6.06715e-11
-1.00544e-10 -2.21349e-11 -2.58985e-10