# vtk DataFile Version 3.0
LIGGGHTS particles timestep 3600000
ASCII
DATASET POLYDATA
POINTS 287 float
0.0338185 0.0163265 0.00774757
0.0341845 0.0171019 0.00741655
0.0276201 0.0159631 0.00813946
0.0341567 0.0177463 0.00708958
0.0337023 0.0162294 0.00782934
0.0398115 0.0166376 0.00752316
0.0338952 0.0170113 0.00744334
0.0336039 0.0159022 0.00819761
0.0400852 0.0178307 0.00709074
0.0338301 0.0167423 0.00755899
0.0342298 0.0172786 0.00732766
0.0278302 0.0167151 0.00751481
0.0336824 0.0161633 0.00790379
0.0275419 0.0156515 0.00837925
0.0340352 0.0172211 0.00735723
0.0275226 0.015573 0.00843813
0.0338084 0.0166526 0.00759754
0.0399629 0.0172736 0.00727687
0.0336627 0.0160976 0.00797765
0.033798 0.0162505 0.00780933
0.0339386 0.0171907 0.00736624
0.0280105 0.0170699 0.0073011
0.0400252 0.0175519 0.00718392
0.0338735 0.0169216 0.00748189
0.0398982 0.0169957 0.00736955
0.027914 0.0170375 0.00730739
0.0341379 0.0176585 0.0071348
0.0336431 0.0160325 0.00805101
0.0341753 0.0174246 0.00725384
0.0339169 0.017101 0.00740478
0.0340135 0.0171314 0.00739578
0.0398332 0.0167247 0.00747899
0.0337867 0.0165629 0.0076361
0.0339918 0.0170417 0.00743433
0.0401252 0.0180166 0.00702862
0.0339484 0.0168624 0.00751143
0.0341099 0.0171616 0.00738686
0.0400452 0.0176449 0.00715286
0.0337433 0.0163836 0.0077132
0.0339603 0.0172804 0.00732768
0.0341319 0.0172496 0.00734407
0.039855 0.0168117 0.00743482
0.0399414 0.017181 0.00730776
0.033765 0.0164733 0.00767465
0.0340034 0.0174552 0.00724096
0.0399198 0.0170883 0.00733866
0.0340619 0.017717 0.00710666
0.0340428 0.0176295 0.00715115
0.027809 0.01664 0.00757725
0.0399845 0.0173662 0.00724598
0.0337775 0.0161815 0.00787868
0.0275808 0.0158084 0.00826153
0.0339701 0.016952 0.00747288
0.0398766 0.0169031 0.00740044
0.0340231 0.0168028 0.00754109
0.0340448 0.0168925 0.00750253
0.0337221 0.0162953 0.0077552
0.0341543 0.0173375 0.00729877
0.0341001 0.0174843 0.00722611
0.0400051 0.017459 0.00721498
0.0279258 0.0167382 0.0074943
0.0278622 0.0165121 0.00768094
0.0342067 0.0171901 0.00737334
0.0342138 0.0176 0.00716351
0.0338833 0.0165933 0.00762709
0.0400652 0.0177378 0.0071218
0.0275614 0.0157299 0.00832039
0.0341946 0.0175126 0.00720853
0.0338518 0.016832 0.00752044
0.0340571 0.0173094 0.00731536
0.0281537 0.0177377 0.00714796
0.0342916 0.0183887 0.00700174
0.0276397 0.0160385 0.00807683
0.0278514 0.0167903 0.00745238
0.034117 0.0179789 0.00697125
0.0277877 0.0165648 0.00763968
0.0279345 0.017133 0.00728551
0.0279156 0.0163847 0.00778427
0.0401052 0.0179236 0.00705968
0.0277353 0.0160611 0.00805562
0.0341187 0.017571 0.00717985
0.0340014 0.0167131 0.00757964
0.0341765 0.0182669 0.006968
0.0341363 0.0180746 0.00695009
0.0341623 0.0170117 0.00745531
0.0278731 0.0168656 0.00739021
0.0342569 0.01778 0.00707074
0.0342284 0.0181051 0.00692594
0.0343183 0.0180612 0.00692594
0.0341001 0.0178924 0.00701849
0.0342744 0.0178682 0.00702538
0.0277452 0.0164145 0.00776456
0.0341968 0.0183572 0.00700594
0.0279045 0.0166625 0.00755605
0.0341406 0.016922 0.00749386
0.0278408 0.016437 0.00774336
0.0643568 0.0187248 0.00531097
0.24257 0.0191927 0.00520306
0.0281669 0.0173868 0.00722955
0.0277027 0.0162641 0.00788943
0.0282414 0.0173221 0.00724551
0.0276603 0.0161138 0.00801431
0.0339267 0.0167727 0.00754999
0.0340242 0.0175425 0.00719683
0.0343386 0.0177282 0.00709598
0.0342331 0.0185498 0.00704325
0.0277665 0.0164896 0.00770212
0.0284029 0.0172095 0.00727367
0.0281055 0.0171006 0.00729518
0.0340788 0.0173969 0.00727105
0.033905 0.016683 0.00758854
0.0337575 0.0161164 0.00795193
0.0276004 0.0158872 0.00820241
0.0340665 0.0169822 0.00746398
0.0336235 0.0159673 0.00812431
0.0335843 0.015837 0.00827091
0.0343557 0.0178158 0.00705089
0.0277771 0.0162115 0.00793067
0.034194 0.0179216 0.0069993
0.0337378 0.0160513 0.00802522
0.033982 0.0173693 0.00728743
0.027724 0.0163393 0.00782699
0.0340803 0.0178048 0.00706264
0.0341563 0.0181723 0.00694249
0.028031 0.0171653 0.00727922
0.0278834 0.0165873 0.00761852
0.0341767 0.0178337 0.00704456
0.0339142 0.016354 0.007734
0.0340882 0.0170718 0.00742543
0.0337183 0.0159861 0.00809852
0.0277152 0.0159859 0.00811848
0.034252 0.0186446 0.00706857
0.0338619 0.0165036 0.00766568
0.0343977 0.0179554 0.0069788
0.0277559 0.0161363 0.00799311
0.028126 0.017196 0.0072733
0.0276815 0.016189 0.00795187
0.0280851 0.0170052 0.00731706
0.027937 0.0164599 0.00772185
0.0276953 0.0159106 0.00818112
0.0279959 0.0174192 0.00721988
0.0344922 0.017984 0.00696267
0.0279794 0.0166102 0.00759694
0.0282955 0.0171619 0.00728334
0.0278196 0.0163629 0.00780705
0.0280924 0.0174515 0.00721359
0.0281742 0.0178331 0.00712608
0.0280719 0.0173561 0.00723547
0.0219312 0.0187687 0.00551176
0.0281874 0.0174822 0.00720767
0.034235 0.0176904 0.00711695
0.0280777 0.0178008 0.00713237
0.0281128 0.0175469 0.00719171
0.0283363 0.0181613 0.00705199
0.0283569 0.0174482 0.00721771
0.0338741 0.0162014 0.0078516
0.0279583 0.016535 0.0076594
0.0282619 0.0174175 0.00722363
0.0284234 0.0173049 0.00725179
0.0283028 0.0176083 0.00717987
0.0338926 0.0162667 0.00777816
0.0283364 0.0173528 0.00723959
0.0342143 0.0168615 0.0075239
0.0282283 0.017673 0.00716392
0.0220293 0.017575 0.00717276
0.0280514 0.0172607 0.00725735
0.0281186 0.0179917 0.00708859
0.0283824 0.0171141 0.00729555
0.0283978 0.017639 0.00717395
0.0280368 0.01761 0.00717613
0.0338399 0.016414 0.00770419
0.0282824 0.0175129 0.00720175
0.0341781 0.0177342 0.00718652
0.0279754 0.0173238 0.00724176
0.0280163 0.0175146 0.007198
0.0341189 0.0168323 0.00753242
0.0344179 0.0180527 0.0069287
0.0340805 0.0169649 0.00756147
0.0221049 0.0175107 0.00718581
0.0342724 0.0187392 0.00709384
0.0282005 0.0171312 0.00728927
0.0339797 0.0166234 0.00761819
0.0280236 0.016761 0.00747168
0.0283774 0.0175436 0.00719583
0.0275031 0.0154988 0.00850226
0.022091 0.0178646 0.00712496
0.0278936 0.0169421 0.00732927
0.0281333 0.0176423 0.00716984
0.0279901 0.0169745 0.00732298
0.0284936 0.0180478 0.0070803
0.028221 0.0172267 0.00726738
0.034236 0.0169512 0.00748535
0.0279693 0.0168888 0.00737014
0.0282915 0.0179048 0.00711094
0.0282487 0.0177684 0.00714204
0.0277984 0.0162867 0.00786823
0.0282078 0.0175776 0.00718579
0.0280008 0.0166855 0.00753437
0.0339332 0.0170859 0.00750228
0.0342981 0.0179638 0.00697609
0.0283233 0.0177037 0.00715799
0.0340971 0.0167427 0.00757097
0.0342117 0.0180091 0.00695426
0.0220683 0.0173233 0.00721679
0.0280982 0.0178962 0.00711049
0.0339362 0.0164437 0.00769547
0.0282146 0.0180241 0.00708229
0.0342138 0.018455 0.00701794
0.0280572 0.0177054 0.00715425
0.0220032 0.0170456 0.00731432
0.0339579 0.0165337 0.00765675
0.0281464 0.0172914 0.00725143
0.0279549 0.0172284 0.00726364
0.0342806 0.0171296 0.00740307
0.028316 0.0172573 0.00726146
0.022117 0.0171544 0.0072433
0.0220499 0.0176715 0.00715683
0.0279679 0.0170535 0.00739009
0.0283669 0.018343 0.00701022
0.0220091 0.0174783 0.00718872
0.0278941 0.0163094 0.00784688
0.0280448 0.0168361 0.00740923
0.0345157 0.0180723 0.00692198
0.0284099 0.01854 0.00696506
0.0283908 0.0184443 0.00698702
0.0284614 0.0183755 0.00700388
0.0218234 0.0166923 0.00754762
0.0218883 0.0169359 0.007385
0.0218018 0.0166111 0.00760183
0.0281593 0.0169401 0.00733309
0.0279481 0.0168127 0.00743142
0.0218451 0.0167735 0.00749342
0.0219677 0.0172855 0.00722052
0.0283094 0.018055 0.00707631
0.0284796 0.0179513 0.00710251
0.0221661 0.0177999 0.00713809
0.0281946 0.0179286 0.0071042
0.0343128 0.017634 0.00714454
0.0221314 0.0180579 0.00709305
0.0220428 0.0172208 0.00723294
0.0219471 0.017189 0.00723646
0.0276756 0.0158349 0.00824339
0.0283355 0.0178174 0.00713176
0.0281776 0.0182788 0.00702272
0.0282347 0.0181195 0.0070604
0.0221513 0.0181546 0.00707707
0.0280643 0.0169118 0.00734647
0.0283319 0.0186008 0.00694997
0.0284431 0.0182796 0.00702588
0.0219273 0.0170992 0.00727582
0.0281968 0.0183745 0.00700076
0.0220705 0.0177681 0.0071409
0.0282751 0.0170665 0.00730523
0.0282724 0.018311 0.00701646
0.0277838 0.0165849 0.00773755
0.0281579 0.0181829 0.00704474
0.0343049 0.0172194 0.00735679
0.0284099 0.0177526 0.00714775
0.0222297 0.0180403 0.00709876
0.028254 0.0186616 0.00693488
0.022171 0.0182513 0.00706109
0.0282532 0.0182153 0.00703841
0.0281383 0.0180873 0.00706667
0.0282731 0.0187573 0.00691292
0.0283915 0.017905 0.00711214
0.0219882 0.0173828 0.00720951
0.0221377 0.0172522 0.0072282
0.0281398 0.0168588 0.00738795
0.022022 0.0171263 0.00725836
0.0218667 0.0168547 0.00743921
0.0283127 0.0185049 0.00697198
0.0282914 0.0184067 0.0069945
0.0282159 0.0184702 0.00697879
0.0284339 0.0181826 0.00704827
0.0282349 0.0185659 0.00695684
0.0281192 0.0167835 0.00745045
0.0281801 0.0170358 0.00731115
0.0284032 0.0180891 0.00706958
0.0278724 0.0162337 0.00790971
0.028469 0.0178438 0.00712733
0.0282922 0.0188529 0.00689097
0.0222212 0.017198 0.00723705
0.0285553 0.0183423 0.00701276
0.0340751 0.0166527 0.00760965
0.0219087 0.0170173 0.00733062
0.0221115 0.0179612 0.00710903
0.0340658 0.0171586 0.00747656

VERTICES 287 574
1 0
1 1
1 2
1 3
1 4
1 5
1 6
1 7
1 8
1 9
1 10
1 11
1 12
1 13
1 14
1 15
1 16
1 17
1 18
1 19
1 20
1 21
1 22
1 23
1 24
1 25
1 26
1 27
1 28
1 29
1 30
1 31
1 32
1 33
1 34
1 35
1 36
1 37
1 38
1 39
1 40
1 41
1 42
1 43
1 44
1 45
1 46
1 47
1 48
1 49
1 50
1 51
1 52
1 53
1 54
1 55
1 56
1 57
1 58
1 59
1 60
1 61
1 62
1 63
1 64
1 65
1 66
1 67
1 68
1 69
1 70
1 71
1 72
1 73
1 74
1 75
1 76
1 77
1 78
1 79
1 80
1 81
1 82
1 83
1 84
1 85
1 86
1 87
1 88
1 89
1 90
1 91
1 92
1 93
1 94
1 95
1 96
1 97
1 98
1 99
1 100
1 101
1 102
1 103
1 104
1 105
1 106
1 107
1 108
1 109
1 110
1 111
1 112
1 113
1 114
1 115
1 116
1 117
1 118
1 119
1 120
1 121
1 122
1 123
1 124
1 125
1 126
1 127
1 128
1 129
1 130
1 131
1 132
1 133
1 134
1 135
1 136
1 137
1 138
1 139
1 140
1 141
1 142
1 143
1 144
1 145
1 146
1 147
1 148
1 149
1 150
1 151
1 152
1 153
1 154
1 155
1 156
1 157
1 158
1 159
1 160
1 161
1 162
1 163
1 164
1 165
1 166
1 167
1 168
1 169
1 170
1 171
1 172
1 173
1 174
1 175
1 176
1 177
1 178
1 179
1 180
1 181
1 182
1 183
1 184
1 185
1 186
1 187
1 188
1 189
1 190
1 191
1 192
1 193
1 194
1 195
1 196
1 197
1 198
1 199
1 200
1 201
1 202
1 203
1 204
1 205
1 206
1 207
1 208
1 209
1 210
1 211
1 212
1 213
1 214
1 215
1 216
1 217
1 218
1 219
1 220
1 221
1 222
1 223
1 224
1 225
1 226
1 227
1 228
1 229
1 230
1 231
1 232
1 233
1 234
1 235
1 236
1 237
1 238
1 239
1 240
1 241
1 242
1 243
1 244
1 245
1 246
1 247
1 248
1 249
1 250
1 251
1 252
1 253
1 254
1 255
1 256
1 257
1 258
1 259
1 260
1 261
1 262
1 263
1 264
1 265
1 266
1 267
1 268
1 269
1 270
1 271
1 272
1 273
1 274
1 275
1 276
1 277
1 278
1 279
1 280
1 281
1 282
1 283
1 284
1 285
1 286

POINT_DATA 287
SCALARS id int 1
LOOKUP_TABLE default
1
2
3
4
5
6
7
8
9
10
11
12
13
14
15
16
17
18
19
21
22
23
24
25
26
27
28
29
30
31
32
33
34
35
36
37
38
39
41
42
44
45
46
47
48
49
50
51
52
53
54
55
56
57
59
60
61
62
63
64
65
66
67
68
69
70
71
72
73
74
76
77
78
79
80
81
82
83
84
85
86
87
88
89
90
91
92
93
94
95
96
97
98
99
100
101
102
103
104
105
106
107
108
109
110
111
112
113
114
115
116
117
118
119
120
121
122
123
124
125
126
127
128
129
130
131
132
133
134
135
136
137
138
140
141
142
143
144
146
147
148
149
150
151
153
154
155
156
157
158
159
160
162
164
165
166
167
168
169
170
171
172
173
174
175
176
177
178
179
181
182
183
184
185
186
187
188
189
190
191
192
193
194
195
196
197
198
199
200
201
202
203
204
205
206
207
208
209
210
211
212
213
214
215
216
217
218
219
220
221
222
223
224
225
226
227
228
229
230
231
232
233
234
235
236
237
239
240
241
242
243
244
246
247
248
249
250
251
252
253
254
255
256
257
258
259
260
261
262
263
264
265
266
267
268
269
270
271
272
273
274
275
276
277
278
279
280
281
282
283
284
285
286
287
288
289
290
291
292
293
294
295
296
297
298
299
300

SCALARS type int 1
LOOKUP_TABLE default
1
1
1
1
1
1
1
1
1
1
1
1
1
1
1
1
1
1
1
1
1
1
1
1
1
1
1
1
1
1
1
1
1
1
1
1
1
1
1
1
1
1
1
1
1
1
1
1
1
1
1
1
1
1
1
1
1
1
1
1
1
1
1
1
1
1
1
1
1
1
1
1
1
1
1
1
1
1
1
1
1
1
1
1
1
1
1
1
1
1
1
1
1
1
1
1
1
1
1
1
1
1
1
1
1
1
1
1
1
1
1
1
1
1
1
1
1
1
1
1
1
1
1
1
1
1
1
1
1
1
1
1
1
1
1
1
1
1
1
1
1
1
1
1
1
1
1
1
1
1
1
1
1
1
1
1
1
1
1
1
1
1
1
1
1
1
1
1
1
1
1
1
1
1
1
1
1
1
1
1
1
1
1
1
1
1
1
1
1
1
1
1
1
1
1
1
1
1
1
1
1
1
1
1
1
1
1
1
1
1
1
1
1
1
1
1
1
1
1
1
1
1
1
1
1
1
1
1
1
1
1
1
1
1
1
1
1
1
1
1
1
1
1
1
1
1
1
1
1
1
1
1
1
1
1
1
1
1
1
1
1
1
1
1
1
1
1
1
1
1
1
1
1
1
1
1
1
1
1
1
1
1
1
1
1
1
1

SCALARS radius float 1
LOOKUP_TABLE default
5e-05
5e-05
5e-05
5e-05
5e-05
5e-05
5e-05
5e-05
5e-05
5e-05
5e-05
5e-05
5e-05
5e-05
5e-05
5e-05
5e-05
5e-05
5e-05
5e-05
5e-05
5e-05
5e-05
5e-05
5e-05
5e-05
5e-05
5e-05
5e-05
5e-05
5e-05
5e-05
5e-05
5e-05
5e-05
5e-05
5e-05
5e-05
5e-05
5e-05
5e-05
5e-05
5e-05
5e-05
5e-05
5e-05
5e-05
5e-05
5e-05
5e-05
5e-05
5e-05
5e-05
5e-05
5e-05
5e-05
5e-05
5e-05
5e-05
5e-05
5e-05
5e-05
5e-05
5e-05
5e-05
5e-05
5e-05
5e-05
5e-05
5e-05
5e-05
5e-05
5e-05
5e-05
5e-05
5e-05
5e-05
5e-05
5e-05
5e-05
5e-05
5e-05
5e-05
5e-05
5e-05
5e-05
5e-05
5e-05
5e-05
5e-05
5e-05
5e-05
5e-05
5e-05
5e-05
5e-05
5e-05
5e-05
5e-05
5e-05
5e-05
5e-05
5e-05
5e-05
5e-05
5e-05
5e-05
5e-05
5e-05
5e-05
5e-05
5e-05
5e-05
5e-05
5e-05
5e-05
5e-05
5e-05
5e-05
5e-05
5e-05
5e-05
5e-05
5e-05
5e-05
5e-05
5e-05
5e-05
5e-05
5e-05
5e-05
5e-05
5e-05
5e-05
5e-05
5e-05
5e-05
5e-05
5e-05
5e-05
5e-05
5e-05
5e-05
5e-05
5e-05
5e-05
5e-05
5e-05
5e-05
5e-05
5e-05
5e-05
5e-05
5e-05
5e-05
5e-05
5e-05
5e-05
5e-05
5e-05
5e-05
5e-05
5e-05
5e-05
5e-05
5e-05
5e-05
5e-05
5e-05
5e-05
5e-05
5e-05
5e-05
5e-05
5e-05
5e-05
5e-05
5e-05
5e-05
5e-05
5e-05
5e-05
5e-05
5e-05
5e-05
5e-05
5e-05
5e-05
5e-05
5e-05
5e-05
5e-05
5e-05
5e-05
5e-05
5e-05
5e-05
5e-05
5e-05
5e-05
5e-05
5e-05
5e-05
5e-05
5e-05
5e-05
5e-05
5e-05
5e-05
5e-05
5e-05
5e-05
5e-05
5e-05
5e-05
5e-05
5e-05
5e-05
5e-05
5e-05
5e-05
5e-05
5e-05
5e-05
5e-05
5e-05
5e-05
5e-05
5e-05
5e-05
5e-05
5e-05
5e-05
5e-05
5e-05
5e-05
5e-05
5e-05
5e-05
5e-05
5e-05
5e-05
5e-05
5e-05
5e-05
5e-05
5e-05
5e-05
5e-05
5e-05
5e-05
5e-05
5e-05
5e-05
5e-05
5e-05
5e-05
5e-05
5e-05
5e-05
5e-05
5e-05
5e-05
5e-05
5e-05
5e-05
5e-05
5e-05
5e-05
5e-05
5e-05
5e-05
5e-05
5e-05
5e-05
5e-05
5e-05
5e-05
5e-05
5e-05
5e-05
5e-05
5e-05
5e-05
5e-05
5e-05
5e-05

SCALARS mass float 1
LOOKUP_TABLE default
1.46608e-10
1.46608e-10
1.46608e-10
1.46608e-10
1.46608e-10
1.46608e-10
1.46608e-10
1.46608e-10
1.46608e-10
1.46608e-10
1.46608e-10
1.46608e-10
1.46608e-10
1.46608e-10
1.46608e-10
1.46608e-10
1.46608e-10
1.46608e-10
1.46608e-10
1.46608e-10
1.46608e-10
1.46608e-10
1.46608e-10
1.46608e-10
1.46608e-10
1.46608e-10
1.46608e-10
1.46608e-10
1.46608e-10
1.46608e-10
1.46608e-10
1.46608e-10
1.46608e-10
1.46608e-10
1.46608e-10
1.46608e-10
1.46608e-10
1.46608e-10
1.46608e-10
1.46608e-10
1.46608e-10
1.46608e-10
1.46608e-10
1.46608e-10
1.46608e-10
1.46608e-10
1.46608e-10
1.46608e-10
1.46608e-10
1.46608e-10
1.46608e-10
1.46608e-10
1.46608e-10
1.46608e-10
1.46608e-10
1.46608e-10
1.46608e-10
1.46608e-10
1.46608e-10
1.46608e-10
1.46608e-10
1.46608e-10
1.46608e-10
1.46608e-10
1.46608e-10
1.46608e-10
1.46608e-10
1.46608e-10
1.46608e-10
1.46608e-10
1.46608e-10
1.46608e-10
1.46608e-10
1.46608e-10
1.46608e-10
1.46608e-10
1.46608e-10
1.46608e-10
1.46608e-10
1.46608e-10
1.46608e-10
1.46608e-10
1.46608e-10
1.46608e-10
1.46608e-10
1.46608e-10
1.46608e-10
1.46608e-10
1.46608e-10
1.46608e-10
1.46608e-10
1.46608e-10
1.46608e-10
1.46608e-10
1.46608e-10
1.46608e-10
1.46608e-10
1.46608e-10
1.46608e-10
1.46608e-10
1.46608e-10
1.46608e-10
1.46608e-10
1.46608e-10
1.46608e-10
1.46608e-10
1.46608e-10
1.46608e-10
1.46608e-10
1.46608e-10
1.46608e-10
1.46608e-10
1.46608e-10
1.46608e-10
1.46608e-10
1.46608e-10
1.46608e-10
1.46608e-10
1.46608e-10
1.46608e-10
1.46608e-10
1.46608e-10
1.46608e-10
1.46608e-10
1.46608e-10
1.46608e-10
1.46608e-10
1.46608e-10
1.46608e-10
1.46608e-10
1.46608e-10
1.46608e-10
1.46608e-10
1.46608e-10
1.46608e-10
1.46608e-10
1.46608e-10
1.46608e-10
1.46608e-10
1.46608e-10
1.46608e-10
1.46608e-10
1.46608e-10
1.46608e-10
1.46608e-10
1.46608e-10
1.46608e-10
1.46608e-10
1.46608e-10
1.46608e-10
1.46608e-10
1.46608e-10
1.46608e-10
1.46608e-10
1.46608e-10
1.46608e-10
1.46608e-10
1.46608e-10
1.46608e-10
1.46608e-10
1.46608e-10
1.46608e-10
1.46608e-10
1.46608e-10
1.46608e-10
1.46608e-10
1.46608e-10
1.46608e-10
1.46608e-10
1.46608e-10
1.46608e-10
1.46608e-10
1.46608e-10
1.46608e-10
1.46608e-10
1.46608e-10
1.46608e-10
1.46608e-10
1.46608e-10
1.46608e-10
1.46608e-10
1.46608e-10
1.46608e-10
1.46608e-10
1.46608e-10
1.46608e-10
1.46608e-10
1.46608e-10
1.46608e-10
1.46608e-10
1.46608e-10
1.46608e-10
1.46608e-10
1.46608e-10
1.46608e-10
1.46608e-10
1.46608e-10
1.46608e-10
1.46608e-10
1.46608e-10
1.46608e-10
1.46608e-10
1.46608e-10
1.46608e-10
1.46608e-10
1.46608e-10
1.46608e-10
1.46608e-10
1.46608e-10
1.46608e-10
1.46608e-10
1.46608e-10
1.46608e-10
1.46608e-10
1.46608e-10
1.46608e-10
1.46608e-10
1.46608e-10
1.46608e-10
1.46608e-10
1.46608e-10
1.46608e-10
1.46608e-10
1.46608e-10
1.46608e-10
1.46608e-10
1.46608e-10
1.46608e-10
1.46608e-10
1.46608e-10
1.46608e-10
1.46608e-10
1.46608e-10
1.46608e-10
1.46608e-10
1.46608e-10
1.46608e-10
1.46608e-10
1.46608e-10
1.46608e-10
1.46608e-10
1.46608e-10
1.46608e-10
1.46608e-10
1.46608e-10
1.46608e-10
1.46608e-10
1.46608e-10
1.46608e-10
1.46608e-10
1.46608e-10
1.46608e-10
1.46608e-10
1.46608e-10
1.46608e-10
1.46608e-10
1.46608e-10
1.46608e-10
1.46608e-10
1.46608e-10
1.46608e-10
1.46608e-10
1.46608e-10
1.46608e-10
1.46608e-10
1.46608e-10
1.46608e-10
1.46608e-10
1.46608e-10
1.46608e-10
1.46608e-10
1.46608e-10
1.46608e-10
1.46608e-10
1.46608e-10
1.46608e-10
1.46608e-10
1.46608e-10
1.46608e-10
1.46608e-10
1.46608e-10
1.46608e-10
1.46608e-10
1.46608e-10
1.46608e-10
1.46608e-10
1.46608e-10

VECTORS velocity float
0.00598471 -0.000228881 0.00027469
0.00607016 -0.000198265 0.000362793
0.00550291 -0.000362063 0.000143604
0.00577214 -0.000251363 3.58625e-05
0.00565511 -5.90446e-05 -0.000226944
0.006121 -0.000731234 0.000198412
0.00609414 -0.000191086 0.00036045
0.00553204 -0.000283361 2.8307e-05
0.00564978 -0.000533284 0.000416557
0.00611184 -0.000206711 0.000369109
0.00636728 0.00041904 -0.00031378
0.00616025 -0.00043787 0.000189301
0.0055961 -0.000222473 -4.23216e-05
0.0055714 -0.000212533 0.00027122
0.0060862 -0.000184438 0.000360978
0.00556982 -0.000211986 0.000270221
0.00611836 -0.000209394 0.000370644
0.00605184 -0.000612583 0.000460178
0.00556979 -0.000267964 8.7731e-06
0.00578449 -0.000291144 0.000127265
0.00608666 -0.000186962 0.000366633
0.00554565 -0.00027486 0.000135047
0.00556445 -0.000518406 0.000407736
0.00609983 -0.000196053 0.000363905
0.00609708 -0.000623842 0.000465916
0.00556421 -0.000292032 0.000144922
0.00553056 -0.000400771 0.000114584
0.0055552 -0.000288061 3.16733e-05
0.00538918 -4.23858e-05 -6.72635e-05
0.0060903 -0.00018797 0.00035885
0.00609111 -0.000187346 0.000357144
0.00612437 -0.000731857 0.000198639
0.00612454 -0.000207344 0.000370226
0.00609052 -0.000188608 0.000358361
0.0054741 -0.000433761 0.00037391
0.00609968 -0.000194546 0.000363107
0.00608558 -0.000186155 0.000359258
0.00559302 -0.000523096 0.000410474
0.00613832 -0.000200289 0.000366142
0.00608102 -0.000187655 0.000366728
0.00639296 -9.65139e-05 -7.0463e-05
0.00612784 -0.000732448 0.000198736
0.00606694 -0.000616491 0.000462152
0.00613143 -0.000204476 0.000369601
0.00566659 -0.000244683 0.000103611
0.00608202 -0.000620265 0.000464066
0.00563837 -0.000254913 3.09373e-05
0.00534246 -0.000204867 1.58478e-05
0.00614245 -0.000429203 0.000183429
0.00603704 -0.000608633 0.000458225
0.00564289 -0.000315297 5.62122e-05
0.00553706 -0.000207164 0.000263807
0.00609479 -0.000190453 0.000360683
0.00611236 -0.000627232 0.000467796
0.0060989 -0.000195974 0.000363599
0.00609233 -0.000194012 0.000361354
0.00560977 -0.000247915 -1.50966e-05
0.00613982 0.000187516 -0.000176969
0.0050492 -0.000467213 -3.17782e-06
0.00553492 -0.000514011 0.000404987
0.00614889 -0.000445734 0.000195054
0.00607971 -0.000452154 0.000202825
0.00645824 -4.64763e-05 -8.41692e-05
0.00541086 -0.000558603 0.000201067
0.00612256 -0.000208674 0.000370076
0.0056213 -0.000528102 0.000413449
0.00555975 -0.000208759 0.000269268
0.00500193 -0.000532527 0.000185915
0.00610518 -0.000202217 0.000366797
0.00621615 -0.000169017 0.000155293
0.00566814 -0.000326636 0.000147154
0.00545554 -6.14725e-05 7.44334e-05
0.00570337 -0.000388031 0.000160571
0.00617711 -0.000439681 0.000204473
0.00562906 -0.000224005 2.46411e-05
0.0061293 -0.000415033 0.000175936
0.00558852 -0.00028898 0.000140347
0.00610941 -0.00044783 0.000197316
0.00567847 -0.000538422 0.000419056
0.00578657 -0.000369952 0.000142292
0.00513893 -0.000403792 0.000155605
0.00610435 -0.000199702 0.000365707
0.00563988 -0.000211693 3.46048e-05
0.00563153 -0.000219928 3.18857e-05
0.00608526 -0.000195724 0.000363151
0.00598949 -0.000383232 0.000191081
0.00586423 -4.77293e-05 -6.90422e-05
0.00563064 -0.000223947 3.18578e-05
0.00563049 -0.000231136 3.01044e-05
0.00569502 -0.000250413 1.65757e-05
0.0056911 -0.000148743 -1.34789e-05
0.00605099 -0.000411048 0.000170382
0.00549408 -0.000176821 4.00014e-05
0.00612379 -0.000453375 0.000201476
0.00608729 -0.000196227 0.00036328
0.00608596 -0.000444174 0.000196443
4.37982e-15 1.04364e-14 8.29622e-14
2.84498e-22 4.01299e-22 8.29106e-22
0.00561268 -0.000309461 0.000142625
0.0059994 -0.000420209 0.00017649
0.00559543 -0.000316629 0.000143988
0.00594584 -0.000421371 0.000181199
0.00610596 -0.000199285 0.00036573
0.00532331 -0.00019926 3.00837e-05
0.00588837 -1.40531e-05 -8.57342e-05
0.0053528 -0.000148394 4.86688e-05
0.00609681 -0.000406925 0.000168061
0.00556876 -0.000327976 0.000146222
0.00555029 -0.000299676 0.000138714
0.0059024 -2.04632e-05 -4.99419e-06
0.00611378 -0.000204524 0.000367867
0.00558195 -0.00030162 4.60004e-05
0.00554252 -0.000169295 0.000166235
0.0060886 -0.000191096 0.00036116
0.00554599 -0.000285765 3.00749e-05
0.00552712 -0.000283802 2.87048e-05
0.00581303 -8.97505e-07 -9.19392e-05
0.00598262 -0.000420286 0.000178376
0.00562648 -0.000225523 2.69544e-05
0.00555781 -0.000296457 4.15668e-05
0.0060722 -0.000228775 0.000302049
0.00601501 -0.000420736 0.00017661
0.00576767 -0.000274372 2.52438e-05
0.00564272 -0.000217541 3.42715e-05
0.00559057 -0.000285761 0.000138156
0.00608325 -0.000451794 0.00020109
0.00578706 -0.000142424 -2.25203e-05
0.00605494 -0.000277428 0.000396449
0.00609019 -0.000190014 0.00036028
0.00554732 -0.000293482 3.85885e-05
0.005654 -0.000347837 0.000120561
0.00533913 -0.000145087 4.8877e-05
0.00613015 -0.000214557 0.000374186
0.00563027 -0.000239306 3.32208e-05
0.0059042 -0.000394617 0.000162022
0.00558014 -0.00030021 0.00013999
0.00597658 -0.000423573 0.000181339
0.00552055 -0.000284716 0.000134851
0.00609076 -0.000446973 0.00019668
0.00556708 -0.000314816 0.000128419
0.00563422 -0.000287251 0.000137873
0.0056346 -0.000243491 3.4035e-05
0.00611722 -0.000453523 0.00020333
0.00556281 -0.000326053 0.000145881
0.00605933 -0.000437105 0.000190852
0.00562851 -0.000297471 0.000140089
0.00567507 -0.000331516 0.000148361
0.00561745 -0.000291975 0.000138656
-3.82914e-14 8.16621e-14 2.95895e-13
0.00562539 -0.000317212 0.00014451
0.00577848 -0.00023764 3.26412e-05
0.00568169 -0.000314942 0.000144689
0.00563983 -0.000308883 0.000142728
0.00556241 -0.000267806 0.000131931
0.00560827 -0.000322601 0.00014547
0.00577372 -0.000344015 8.21694e-05
0.00608921 -0.000446536 0.000196833
0.00561108 -0.000318964 0.000145142
0.00557877 -0.000321572 0.000144961
0.00563467 -0.000328915 0.000147618
0.00594275 -0.000370222 0.000104021
0.00559306 -0.000319442 0.000144408
0.00609554 -0.000191306 0.000361493
0.00564571 -0.000332747 0.000148125
0.00553856 -0.000988583 0.000321356
0.00560724 -0.000289188 0.000137761
0.00570998 -0.000306641 0.000143316
0.00556002 -0.000333582 0.000147462
0.00565418 -0.000344893 0.000151261
0.00565665 -0.000294111 0.000139725
0.00611374 -0.000216143 0.00037121
0.00562119 -0.00031979 0.000144833
0.0057795 -0.00023535 3.72177e-05
0.00562054 -0.000281469 0.000135975
0.00564025 -0.000292933 0.000139596
0.00608438 -0.000201525 0.000365207
0.00563213 -0.000237434 3.09737e-05
0.00608883 -0.000199601 0.000361983
0.00552831 -0.00100427 0.000323517
0.00549554 -0.000177265 4.32043e-05
0.00555677 -0.000320206 0.000144587
0.00611254 -0.000208898 0.000370188
0.0061159 -0.000280344 6.44684e-05
0.00562721 -0.000331842 0.000148021
0.00556162 -0.000207432 0.000267832
0.00555147 -0.000986814 0.0003213
0.00556517 -0.00029555 0.00014299
0.00565539 -0.000318531 0.000145337
0.00552481 -0.000280668 0.000128583
0.00560195 -0.000213741 0.000120246
0.00557884 -0.000314667 0.000143314
0.00608006 -0.000201618 0.000365334
0.00567708 -0.000324571 0.000137829
0.00568032 -0.000346462 0.000152352
0.00566572 -0.00034237 0.000151072
0.00603047 -0.000431412 0.000185348
0.00563726 -0.000326844 0.000146683
0.00613461 -0.000441231 0.000198016
0.00607813 -0.000199947 0.000354205
0.00562803 -0.000231105 2.8695e-05
0.00565953 -0.000347734 0.000152175
0.00609349 -0.000203166 0.000366604
0.00563085 -0.000223912 2.7057e-05
0.00552592 -0.00100191 0.000186521
0.00568877 -0.000340241 0.000150542
0.00612663 -0.00021936 0.0003752
0.0055886 -0.000313232 0.000143088
0.00540062 -0.000159391 4.56686e-05
0.00567228 -0.000305305 0.000142143
0.00546376 -0.000812229 0.00071301
0.00612806 -0.000201756 0.000367801
0.00560004 -0.00030363 0.000140991
0.00560541 -0.000281729 0.000135897
0.00655726 2.85683e-05 -0.00011748
0.00557866 -0.000324097 0.000145701
0.00546938 -0.00106742 0.000193108
0.00554407 -0.00098726 0.000320965
0.00555506 -0.000270694 0.000140067
0.00546108 -0.000246122 0.000125968
0.00552844 -0.000984072 0.000321438
0.00602533 -0.000481082 0.000227205
0.00578749 -0.000239774 2.96077e-05
0.00563643 -0.00024426 2.92341e-05
0.0055269 -0.000254222 0.000128656
0.00546863 -0.000242173 0.000125095
0.00548016 -0.000220433 0.000120267
0.00599145 -0.000885538 0.000778181
0.00602117 -0.000895496 0.000784878
0.00597748 -0.000884536 0.000776924
0.00559616 -0.000163105 0.000100579
0.00598595 -0.000401387 0.000175799
0.00600294 -0.000887317 0.000779573
0.00552897 -0.000985916 0.000318691
0.00558957 -0.000281364 0.000135613
0.00563758 -0.000211706 0.000120193
0.00555108 -0.000980838 0.000320189
0.00569008 -0.000330464 0.000148585
0.00578676 -0.00022253 2.26435e-05
0.00533471 -0.000942804 0.000307793
0.00553179 -0.000980683 0.000321398
0.00551883 -0.000993404 0.000319668
0.00553791 -0.000267654 0.000175818
0.00567672 -0.000343305 0.000150981
0.00554032 -0.000306719 0.00014094
0.00556365 -0.000306897 0.000141618
0.00536076 -0.000942064 0.000308324
0.00558599 -0.000183009 -1.2261e-06
0.00549701 -0.000286082 0.000135673
0.0055095 -0.000220019 0.0001204
0.00552832 -0.000820164 0.000729547
0.00541156 -0.000284655 0.000134143
0.00554971 -0.000986555 0.000321186
0.0055098 -0.000360007 0.000152889
0.00546387 -0.000275666 0.000132814
0.00611117 -0.000400028 0.00018315
0.00551033 -0.00027617 0.000133025
0.0065432 0.000602241 -0.000413508
0.00566217 -0.000349103 0.000152312
0.00535035 -0.000839397 0.000290437
0.0054849 -0.000294233 0.000137197
0.00522665 -0.000913894 0.00029981
0.005547 -0.000298483 0.000139337
0.00545389 -0.000261825 0.000129238
0.00551345 -0.000296258 0.000138452
0.0056796 -0.00029623 0.000140061
0.00552709 -0.000982971 0.000318812
0.00553118 -0.000997221 0.000181917
0.00577006 -0.000206738 3.94271e-05
0.00546237 -0.000891536 0.000598056
0.00602079 -0.000890268 0.000782522
0.00546295 -0.000265082 0.000130315
0.00544443 -0.000270286 0.000131398
0.00543577 -0.000281353 0.000133599
0.00555234 -0.000219831 0.000121134
0.00546191 -0.000282505 0.00013436
0.00579037 -0.000223758 2.71654e-05
0.00551417 -0.000313242 0.000142132
0.00559222 -0.000231501 0.000124371
0.00601972 -0.000451653 0.000203592
0.00571527 -0.000240852 0.000127989
0.00557448 -0.000307422 0.000141772
0.00554503 -0.000982644 0.000179586
0.00547347 -0.000226069 0.000121474
0.00610207 -0.000205127 0.000367866
0.00546182 -0.000805108 0.000707983
0.00530361 -0.000936073 0.000305606
0.0060868 -0.000211734 0.000361085

VECTORS force float
-7.8609e-11 -3.39666e-11 2.0227e-11
-1.58668e-10 -6.70203e-11 2.01571e-11
4.00044e-11 9.63604e-11 -9.30596e-11
5.97231e-11 -5.35752e-12 -2.86502e-11
-4.37637e-11 -8.31916e-11 9.60244e-11
7.36926e-13 1.26704e-12 -6.7645e-13
-2.36842e-12 -2.98709e-11 1.56345e-12
-1.13555e-10 -8.30243e-11 9.48062e-11
4.16312e-12 -5.77349e-12 -8.148e-13
4.59039e-13 1.94308e-11 -7.95227e-12
1.62208e-10 -2.28378e-12 3.49255e-11
-7.30519e-11 -1.36915e-11 -2.6272e-11
-4.1748e-12 2.5696e-11 -3.07501e-11
8.65985e-12 -2.91239e-11 1.89302e-11
1.6394e-11 3.0806e-11 -2.47008e-11
-1.21499e-11 -3.67863e-11 1.90488e-11
-3.96854e-12 -1.25374e-11 7.1675e-12
1.96782e-12 1.03339e-11 -3.30961e-12
-1.82958e-11 -5.62592e-11 6.33236e-11
-7.9705e-11 -4.5034e-11 1.29641e-11
-7.56516e-11 -1.02847e-10 2.40183e-11
-2.41801e-10 -2.79446e-13 -2.25131e-11
9.28303e-13 1.28948e-12 -1.83667e-12
6.63145e-12 2.19092e-11 -8.70574e-12
1.24007e-12 6.66772e-12 -2.24241e-12
-4.98663e-11 -3.27474e-10 3.70609e-11
1.69235e-10 -2.25028e-10 8.16346e-11
-3.24228e-11 -3.41462e-11 4.15044e-11
-3.1283e-10 -5.07192e-10 1.51428e-10
-5.08486e-11 -6.17436e-11 3.23226e-11
5.14676e-11 5.01193e-11 -1.98258e-11
7.25067e-13 2.04851e-12 -9.84437e-13
1.40131e-12 -4.15413e-11 1.96912e-11
4.85217e-12 3.2645e-11 -3.48358e-12
1.37564e-10 -1.8384e-10 9.90989e-11
2.12514e-11 5.21463e-11 -2.16885e-11
2.59494e-11 1.06188e-10 -3.86234e-11
-1.79406e-12 -2.48334e-12 -4.01845e-13
-3.21448e-11 -9.01852e-11 4.46225e-11
-6.61502e-11 -1.54253e-10 3.11384e-11
-9.53689e-11 -4.17893e-11 -4.72357e-10
1.61492e-12 3.08327e-12 -2.17993e-12
2.08864e-12 9.96476e-12 -3.4114e-12
-2.44908e-11 -4.51931e-11 2.81639e-11
-3.12424e-10 -2.09601e-10 1.85454e-11
2.0765e-12 8.53595e-12 -2.83898e-12
3.07234e-10 -4.44055e-11 1.60957e-10
-7.03688e-13 5.54263e-11 7.63252e-11
1.04895e-10 1.53133e-10 -1.24928e-10
9.91488e-13 9.41844e-12 -3.09137e-12
-1.04039e-11 -5.46089e-11 3.6474e-11
-1.15024e-11 -9.20595e-11 4.76431e-11
1.13066e-11 3.31933e-11 -1.86644e-11
1.51713e-12 5.15476e-12 -1.1367e-12
4.21026e-11 7.26211e-11 -2.31675e-11
-1.70111e-11 9.70423e-11 -4.54534e-11
-2.8072e-11 -8.09705e-11 9.34652e-11
2.21183e-10 9.78662e-11 1.80619e-11
6.00256e-10 1.00466e-10 -2.10751e-10