# vtk DataFile Version 3.0
LIGGGHTS particles timestep 40200000
ASCII
DATASET POLYDATA
POINTS 275 float
0.247674 0.0182405 0.00703762
0.247334 0.0171685 0.00742054
0.247484 0.0170573 0.00749199
0.246862 0.0154162 0.00882992
0.253343 0.0172042 0.00738826
0.247627 0.0175945 0.00705959
0.247327 0.0168072 0.0077013
0.253554 0.0180826 0.00695963
0.246994 0.0158712 0.00846251
0.24752 0.0177657 0.00711806
0.241542 0.0169611 0.00764527
0.246841 0.01534 0.00889132
0.241508 0.0175001 0.00717681
0.241711 0.0179765 0.00703393
0.246964 0.0157974 0.00852288
0.246821 0.0152638 0.00895272
0.247668 0.0177855 0.00702873
0.247294 0.0166533 0.00782456
0.24174 0.0177137 0.00702439
0.253471 0.0177308 0.00713118
0.24703 0.0160244 0.00833952
0.253514 0.0179064 0.00704548
0.241347 0.0169096 0.00769218
0.247408 0.0171122 0.00745562
0.2468 0.0151876 0.00901412
0.247113 0.0163287 0.00809429
0.247702 0.0175425 0.00710427
0.247056 0.0160993 0.00827866
0.253364 0.017292 0.00734541
0.246943 0.0157212 0.00858427
0.247587 0.0174398 0.00718382
0.25361 0.0183646 0.00689253
0.247463 0.016981 0.00755346
0.247545 0.0172867 0.00730715
0.253493 0.0178186 0.00708833
0.246903 0.0155686 0.00870714
0.24758 0.0170798 0.00746592
0.247641 0.0173085 0.00728167
0.253385 0.0173798 0.00730256
0.246923 0.0156448 0.00864571
0.247537 0.0180135 0.00703699
0.253572 0.0181735 0.00692219
0.24707 0.0161767 0.0082169
0.247722 0.0176241 0.00705024
0.241603 0.0171815 0.00745101
0.253428 0.0175553 0.00721687
0.247858 0.0178478 0.00702109
0.241523 0.0172288 0.00741336
0.247838 0.01775 0.00701992
0.253407 0.0174675 0.00725972
0.378022 0.019866 0.005332
0.247662 0.0173848 0.00722026
0.246882 0.0154924 0.00876853
0.247566 0.0173636 0.00724522
0.247581 0.0180595 0.00712023
0.25345 0.0176431 0.00717402
0.241564 0.0173751 0.00728335
0.241677 0.0176624 0.00714227
0.247689 0.0178833 0.00702991
0.247469 0.0173412 0.00727138
0.247763 0.0178166 0.00702491
0.253534 0.0179946 0.00700253
0.24188 0.0179408 0.00703198
0.247751 0.0181769 0.00703344
0.247007 0.0159487 0.00840073
0.24709 0.0162531 0.00815547
0.241462 0.0170089 0.0076082
0.247354 0.0172444 0.00735857
0.240832 0.0154042 0.00898431
0.241772 0.0182699 0.00704371
0.247429 0.0171891 0.00739488
0.241584 0.0177275 0.0071228
0.241562 0.0170346 0.00758051
0.253589 0.0182668 0.0068904
0.241921 0.0181365 0.00703838
0.247621 0.0172323 0.00734309
0.247388 0.017036 0.00751703
0.24753 0.0175713 0.0070887
0.247632 0.0177429 0.00711147
0.24771 0.0179812 0.00703108
0.241522 0.0168876 0.00771003
0.247455 0.0176231 0.00704832
0.247171 0.016558 0.00790985
0.24754 0.0178636 0.00711855
0.247469 0.0175331 0.00723046
0.247435 0.0175475 0.00711059
0.240939 0.0157729 0.00866415
0.247152 0.0164816 0.00797141
0.241494 0.0178094 0.00702791
0.247648 0.0176876 0.00702932
0.241515 0.0179072 0.00703139
0.0643568 0.0187248 0.00531097
0.24257 0.0191927 0.00520306
0.241806 0.0180076 0.0070341
0.240892 0.0156258 0.00879119
0.241571 0.0176415 0.00717194
0.240852 0.0154781 0.00891993
0.247784 0.0179145 0.00702609
0.247817 0.0176538 0.0070408
0.247313 0.0170914 0.0074808
0.247272 0.0169386 0.00760329
0.240983 0.0159203 0.00853647
0.241414 0.0174681 0.00718901
0.241454 0.0176158 0.00706019
0.247601 0.017156 0.0074045
0.247612 0.0179469 0.00703495
0.247607 0.0175163 0.00712232
0.241644 0.0173283 0.00732157
0.247805 0.0180123 0.00702726
0.247309 0.0167306 0.00776284
0.24762 0.0184049 0.00704056
0.247415 0.0174719 0.00717284
0.241901 0.0180387 0.00703518
0.247199 0.0166343 0.00785189
0.24751 0.0174937 0.00714845
0.240912 0.0156996 0.00872683
0.247132 0.0164051 0.00803282
0.247508 0.0176665 0.0071213
0.24155 0.0176506 0.00705145
0.24157 0.0177448 0.00702531
0.247504 0.0171339 0.00743031
0.247633 0.0180448 0.00703584
0.247592 0.0178491 0.00703379
0.247743 0.0177188 0.00702543
0.241503 0.0171557 0.00747866
0.247446 0.0176172 0.00718153
0.247496 0.0178177 0.00703611
0.247374 0.0173204 0.00729693
0.241342 0.0165669 0.00799557
0.241725 0.0176231 0.00706364
0.240872 0.0155519 0.00885555
0.241684 0.0174754 0.0071922
0.241029 0.0160656 0.00841098
0.241528 0.0175734 0.0071115
0.241361 0.0166404 0.00793078
0.247233 0.0167863 0.0077266
0.241716 0.0184313 0.00704975
0.241654 0.0181378 0.0070393
0.241382 0.0167139 0.00786602
0.241013 0.0160011 0.00848577
0.241052 0.0161397 0.00834798
0.241322 0.0164933 0.0080604
0.0219312 0.0187687 0.00551176
0.241422 0.016861 0.00773665
0.247525 0.0172103 0.0073687
0.241535 0.0180051 0.00703592
0.241657 0.0179137 0.00711745
0.241111 0.0163606 0.00815427
0.241752 0.0181721 0.00704022
0.247517 0.0179156 0.00703643
0.241618 0.0183964 0.0070488
0.241793 0.0183677 0.00704719
0.241638 0.0184942 0.00705229
0.241695 0.0183334 0.00704627
0.247694 0.0183384 0.00703852
0.241394 0.0173943 0.00725336
0.24773 0.018079 0.00703226
0.241152 0.0165083 0.00802556
0.241448 0.0172789 0.00737028
0.241148 0.0161703 0.00833711
0.24144 0.0175593 0.00722292
0.241546 0.0180517 0.00712371
0.24764 0.0185028 0.00704145
0.241485 0.0176821 0.00712827
0.24756 0.0179616 0.00711934
0.241704 0.0175491 0.0071278
0.241975 0.017972 0.00703317
0.247653 0.0181426 0.00703673
0.24749 0.0174184 0.00721107
0.247599 0.018307 0.00703966
0.235634 0.0184871 0.00689238
0.247252 0.0168624 0.00766471
0.241434 0.0175419 0.00712465
0.247715 0.0184362 0.00703941
0.241622 0.0178201 0.00712214
0.241633 0.01804 0.00703582
0.241669 0.0177818 0.00704266
0.235304 0.0169932 0.00734426
0.241583 0.0171079 0.00751582
0.241499 0.0177809 0.00712362
0.240959 0.0158467 0.00859985
0.241731 0.0180743 0.00703674
0.241442 0.016935 0.00767244
0.247571 0.0177512 0.00703261
0.241764 0.0178112 0.00702758
0.241286 0.0166881 0.00788524
0.241327 0.0168357 0.00775653
0.241208 0.0163926 0.00814317
0.241624 0.0172548 0.00738636
0.241544 0.0173018 0.00734831
0.247347 0.0168835 0.00763987
0.247368 0.0169597 0.00757845
0.241826 0.0181054 0.00703756
0.247579 0.0182092 0.00703877
0.247449 0.0172658 0.00733401
0.235535 0.018006 0.00698533
0.241188 0.0163187 0.0082077
0.247661 0.0186006 0.00704234
0.241472 0.0177055 0.00702017
0.247211 0.0167099 0.00778751
0.241591 0.0178426 0.00702879
0.247682 0.0174611 0.00715882
0.241367 0.0169834 0.00762782
0.247293 0.0170151 0.00754209
0.241551 0.017568 0.00723669
0.235555 0.0181022 0.00696675
0.235497 0.0178163 0.00703587
0.241847 0.0182032 0.00704104
0.241273 0.0169513 0.00763943
0.241652 0.0180127 0.00713031
0.241597 0.0182986 0.00704532
0.247605 0.0176507 0.00713953
0.241232 0.0168036 0.00776814
0.241333 0.0171728 0.00744638
0.241354 0.0172485 0.00738424
0.2352 0.0165696 0.00758886
0.235261 0.016824 0.00744194
0.235181 0.0164847 0.00763791
0.241502 0.0168141 0.00777479
0.241647 0.0176846 0.00704949
0.23522 0.0166545 0.00753981
0.235412 0.01745 0.00717251
0.241172 0.0165821 0.0079612
0.241489 0.0174264 0.00724144
0.235347 0.0171757 0.00727497
0.241246 0.0165404 0.00801395
0.247549 0.0176514 0.00703143
0.235434 0.0175415 0.00713835
0.235615 0.0183907 0.006911
0.235369 0.0172671 0.00724082
0.240812 0.0153304 0.00904868
0.241785 0.0179098 0.0070308
0.241402 0.0167874 0.00780126
0.241469 0.0173526 0.00730606
0.235456 0.0176329 0.0071042
0.241675 0.0182356 0.00704278
0.241428 0.017205 0.00743484
0.241373 0.0173204 0.00731772
0.235325 0.0170843 0.00730913
0.241074 0.0162164 0.00828766
0.235653 0.0185835 0.00687375
0.241612 0.0179407 0.00703228
0.241266 0.0166142 0.0079496
0.241663 0.0174019 0.00725673
0.241624 0.0175955 0.007089
0.247394 0.0173963 0.00723498
0.241596 0.0181427 0.00712076
0.235517 0.0179107 0.00700951
0.241306 0.0167619 0.00782089
0.235476 0.0177247 0.00707003
0.241132 0.0164345 0.00808991
0.241227 0.0164665 0.00807871
0.241192 0.016656 0.00789685
0.241583 0.0174487 0.00721848
0.23565 0.0181332 0.00696091
0.235575 0.0181984 0.00694817
0.241556 0.0181029 0.00703836
0.235239 0.0167394 0.00749078
0.241293 0.0170251 0.00757508
0.241387 0.0170573 0.00756347
0.241091 0.0162868 0.00821863
0.241253 0.0168775 0.00770378
0.24169 0.0178787 0.00702978
0.241169 0.0162449 0.00827217
0.241482 0.0170824 0.00754349
0.241604 0.0175221 0.00715383
0.241576 0.0182008 0.00704184
0.241407 0.0171311 0.00749911
0.241313 0.017099 0.00751073
0.235595 0.0182945 0.00692959
0.241212 0.0167298 0.00783249
0.247558 0.0181113 0.00703788
0.235282 0.0169086 0.0073931
0.235391 0.0173586 0.00720666
0.247476 0.0177199 0.00703431

VERTICES 275 550
1 0
1 1
1 2
1 3
1 4
1 5
1 6
1 7
1 8
1 9
1 10
1 11
1 12
1 13
1 14
1 15
1 16
1 17
1 18
1 19
1 20
1 21
1 22
1 23
1 24
1 25
1 26
1 27
1 28
1 29
1 30
1 31
1 32
1 33
1 34
1 35
1 36
1 37
1 38
1 39
1 40
1 41
1 42
1 43
1 44
1 45
1 46
1 47
1 48
1 49
1 50
1 51
1 52
1 53
1 54
1 55
1 56
1 57
1 58
1 59
1 60
1 61
1 62
1 63
1 64
1 65
1 66
1 67
1 68
1 69
1 70
1 71
1 72
1 73
1 74
1 75
1 76
1 77
1 78
1 79
1 80
1 81
1 82
1 83
1 84
1 85
1 86
1 87
1 88
1 89
1 90
1 91
1 92
1 93
1 94
1 95
1 96
1 97
1 98
1 99
1 100
1 101
1 102
1 103
1 104
1 105
1 106
1 107
1 108
1 109
1 110
1 111
1 112
1 113
1 114
1 115
1 116
1 117
1 118
1 119
1 120
1 121
1 122
1 123
1 124
1 125
1 126
1 127
1 128
1 129
1 130
1 131
1 132
1 133
1 134
1 135
1 136
1 137
1 138
1 139
1 140
1 141
1 142
1 143
1 144
1 145
1 146
1 147
1 148
1 149
1 150
1 151
1 152
1 153
1 154
1 155
1 156
1 157
1 158
1 159
1 160
1 161
1 162
1 163
1 164
1 165
1 166
1 167
1 168
1 169
1 170
1 171
1 172
1 173
1 174
1 175
1 176
1 177
1 178
1 179
1 180
1 181
1 182
1 183
1 184
1 185
1 186
1 187
1 188
1 189
1 190
1 191
1 192
1 193
1 194
1 195
1 196
1 197
1 198
1 199
1 200
1 201
1 202
1 203
1 204
1 205
1 206
1 207
1 208
1 209
1 210
1 211
1 212
1 213
1 214
1 215
1 216
1 217
1 218
1 219
1 220
1 221
1 222
1 223
1 224
1 225
1 226
1 227
1 228
1 229
1 230
1 231
1 232
1 233
1 234
1 235
1 236
1 237
1 238
1 239
1 240
1 241
1 242
1 243
1 244
1 245
1 246
1 247
1 248
1 249
1 250
1 251
1 252
1 253
1 254
1 255
1 256
1 257
1 258
1 259
1 260
1 261
1 262
1 263
1 264
1 265
1 266
1 267
1 268
1 269
1 270
1 271
1 272
1 273
1 274

POINT_DATA 275
SCALARS id int 1
LOOKUP_TABLE default
1
2
4
5
6
7
8
9
10
11
12
13
14
16
17
19
21
22
23
24
25
26
27
28
29
30
31
32
33
34
35
36
37
38
39
41
42
44
45
47
48
49
50
51
52
53
54
55
56
57
59
60
61
62
63
64
65
66
67
68
69
70
71
72
73
74
76
77
78
79
80
82
83
84
85
86
87
88
89
90
91
92
93
94
95
96
97
98
99
100
101
102
103
104
105
106
107
108
109
110
111
112
113
114
115
116
117
118
119
120
121
122
123
124
125
127
128
129
130
131
132
133
134
135
136
137
138
140
141
142
143
144
146
147
148
149
150
151
153
154
155
156
157
158
159
160
162
164
165
166
167
168
169
170
171
172
173
174
176
177
178
179
182
183
184
185
186
187
188
189
190
191
192
193
194
195
196
197
198
199
200
201
202
203
204
205
206
207
208
209
210
211
212
213
214
215
216
217
218
219
220
222
224
225
226
227
228
229
230
232
233
234
235
236
237
239
240
241
242
243
244
246
247
248
249
250
251
252
253
254
255
256
257
258
259
260
261
262
263
264
265
266
267
268
269
270
271
272
273
274
275
276
277
278
279
280
281
283
284
285
286
287
288
289
290
291
292
293
294
295
296
297
298
299
300

SCALARS type int 1
LOOKUP_TABLE default
1
1
1
1
1
1
1
1
1
1
1
1
1
1
1
1
1
1
1
1
1
1
1
1
1
1
1
1
1
1
1
1
1
1
1
1
1
1
1
1
1
1
1
1
1
1
1
1
1
1
1
1
1
1
1
1
1
1
1
1
1
1
1
1
1
1
1
1
1
1
1
1
1
1
1
1
1
1
1
1
1
1
1
1
1
1
1
1
1
1
1
1
1
1
1
1
1
1
1
1
1
1
1
1
1
1
1
1
1
1
1
1
1
1
1
1
1
1
1
1
1
1
1
1
1
1
1
1
1
1
1
1
1
1
1
1
1
1
1
1
1
1
1
1
1
1
1
1
1
1
1
1
1
1
1
1
1
1
1
1
1
1
1
1
1
1
1
1
1
1
1
1
1
1
1
1
1
1
1
1
1
1
1
1
1
1
1
1
1
1
1
1
1
1
1
1
1
1
1
1
1
1
1
1
1
1
1
1
1
1
1
1
1
1
1
1
1
1
1
1
1
1
1
1
1
1
1
1
1
1
1
1
1
1
1
1
1
1
1
1
1
1
1
1
1
1
1
1
1
1
1
1
1
1
1
1
1
1
1
1
1
1
1
1
1
1
1
1
1
1
1
1
1
1
1

SCALARS radius float 1
LOOKUP_TABLE default
5e-05
5e-05
5e-05
5e-05
5e-05
5e-05
5e-05
5e-05
5e-05
5e-05
5e-05
5e-05
5e-05
5e-05
5e-05
5e-05
5e-05
5e-05
5e-05
5e-05
5e-05
5e-05
5e-05
5e-05
5e-05
5e-05
5e-05
5e-05
5e-05
5e-05
5e-05
5e-05
5e-05
5e-05
5e-05
5e-05
5e-05
5e-05
5e-05
5e-05
5e-05
5e-05
5e-05
5e-05
5e-05
5e-05
5e-05
5e-05
5e-05
5e-05
5e-05
5e-05
5e-05
5e-05
5e-05
5e-05
5e-05
5e-05
5e-05
5e-05
5e-05
5e-05
5e-05
5e-05
5e-05
5e-05
5e-05
5e-05
5e-05
5e-05
5e-05
5e-05
5e-05
5e-05
5e-05
5e-05
5e-05
5e-05
5e-05
5e-05
5e-05
5e-05
5e-05
5e-05
5e-05
5e-05
5e-05
5e-05
5e-05
5e-05
5e-05
5e-05
5e-05
5e-05
5e-05
5e-05
5e-05
5e-05
5e-05
5e-05
5e-05
5e-05
5e-05
5e-05
5e-05
5e-05
5e-05
5e-05
5e-05
5e-05
5e-05
5e-05
5e-05
5e-05
5e-05
5e-05
5e-05
5e-05
5e-05
5e-05
5e-05
5e-05
5e-05
5e-05
5e-05
5e-05
5e-05
5e-05
5e-05
5e-05
5e-05
5e-05
5e-05
5e-05
5e-05
5e-05
5e-05
5e-05
5e-05
5e-05
5e-05
5e-05
5e-05
5e-05
5e-05
5e-05
5e-05
5e-05
5e-05
5e-05
5e-05
5e-05
5e-05
5e-05
5e-05
5e-05
5e-05
5e-05
5e-05
5e-05
5e-05
5e-05
5e-05
5e-05
5e-05
5e-05
5e-05
5e-05
5e-05
5e-05
5e-05
5e-05
5e-05
5e-05
5e-05
5e-05
5e-05
5e-05
5e-05
5e-05
5e-05
5e-05
5e-05
5e-05
5e-05
5e-05
5e-05
5e-05
5e-05
5e-05
5e-05
5e-05
5e-05
5e-05
5e-05
5e-05
5e-05
5e-05
5e-05
5e-05
5e-05
5e-05
5e-05
5e-05
5e-05
5e-05
5e-05
5e-05
5e-05
5e-05
5e-05
5e-05
5e-05
5e-05
5e-05
5e-05
5e-05
5e-05
5e-05
5e-05
5e-05
5e-05
5e-05
5e-05
5e-05
5e-05
5e-05
5e-05
5e-05
5e-05
5e-05
5e-05
5e-05
5e-05
5e-05
5e-05
5e-05
5e-05
5e-05
5e-05
5e-05
5e-05
5e-05
5e-05
5e-05
5e-05
5e-05
5e-05
5e-05
5e-05
5e-05
5e-05
5e-05
5e-05
5e-05
5e-05
5e-05
5e-05
5e-05
5e-05
5e-05
5e-05
5e-05
5e-05
5e-05
5e-05
5e-05
5e-05
5e-05
5e-05
5e-05
5e-05
5e-05
5e-05
5e-05

SCALARS mass float 1
LOOKUP_TABLE default
1.46608e-10
1.46608e-10
1.46608e-10
1.46608e-10
1.46608e-10
1.46608e-10
1.46608e-10
1.46608e-10
1.46608e-10
1.46608e-10
1.46608e-10
1.46608e-10
1.46608e-10
1.46608e-10
1.46608e-10
1.46608e-10
1.46608e-10
1.46608e-10
1.46608e-10
1.46608e-10
1.46608e-10
1.46608e-10
1.46608e-10
1.46608e-10
1.46608e-10
1.46608e-10
1.46608e-10
1.46608e-10
1.46608e-10
1.46608e-10
1.46608e-10
1.46608e-10
1.46608e-10
1.46608e-10
1.46608e-10
1.46608e-10
1.46608e-10
1.46608e-10
1.46608e-10
1.46608e-10
1.46608e-10
1.46608e-10
1.46608e-10
1.46608e-10
1.46608e-10
1.46608e-10
1.46608e-10
1.46608e-10
1.46608e-10
1.46608e-10
1.46608e-10
1.46608e-10
1.46608e-10
1.46608e-10
1.46608e-10
1.46608e-10
1.46608e-10
1.46608e-10
1.46608e-10
1.46608e-10
1.46608e-10
1.46608e-10
1.46608e-10
1.46608e-10
1.46608e-10
1.46608e-10
1.46608e-10
1.46608e-10
1.46608e-10
1.46608e-10
1.46608e-10
1.46608e-10
1.46608e-10
1.46608e-10
1.46608e-10
1.46608e-10
1.46608e-10
1.46608e-10
1.46608e-10
1.46608e-10
1.46608e-10
1.46608e-10
1.46608e-10
1.46608e-10
1.46608e-10
1.46608e-10
1.46608e-10
1.46608e-10
1.46608e-10
1.46608e-10
1.46608e-10
1.46608e-10
1.46608e-10
1.46608e-10
1.46608e-10
1.46608e-10
1.46608e-10
1.46608e-10
1.46608e-10
1.46608e-10
1.46608e-10
1.46608e-10
1.46608e-10
1.46608e-10
1.46608e-10
1.46608e-10
1.46608e-10
1.46608e-10
1.46608e-10
1.46608e-10
1.46608e-10
1.46608e-10
1.46608e-10
1.46608e-10
1.46608e-10
1.46608e-10
1.46608e-10
1.46608e-10
1.46608e-10
1.46608e-10
1.46608e-10
1.46608e-10
1.46608e-10
1.46608e-10
1.46608e-10
1.46608e-10
1.46608e-10
1.46608e-10
1.46608e-10
1.46608e-10
1.46608e-10
1.46608e-10
1.46608e-10
1.46608e-10
1.46608e-10
1.46608e-10
1.46608e-10
1.46608e-10
1.46608e-10
1.46608e-10
1.46608e-10
1.46608e-10
1.46608e-10
1.46608e-10
1.46608e-10
1.46608e-10
1.46608e-10
1.46608e-10
1.46608e-10
1.46608e-10
1.46608e-10
1.46608e-10
1.46608e-10
1.46608e-10
1.46608e-10
1.46608e-10
1.46608e-10
1.46608e-10
1.46608e-10
1.46608e-10
1.46608e-10
1.46608e-10
1.46608e-10
1.46608e-10
1.46608e-10
1.46608e-10
1.46608e-10
1.46608e-10
1.46608e-10
1.46608e-10
1.46608e-10
1.46608e-10
1.46608e-10
1.46608e-10
1.46608e-10
1.46608e-10
1.46608e-10
1.46608e-10
1.46608e-10
1.46608e-10
1.46608e-10
1.46608e-10
1.46608e-10
1.46608e-10
1.46608e-10
1.46608e-10
1.46608e-10
1.46608e-10
1.46608e-10
1.46608e-10
1.46608e-10
1.46608e-10
1.46608e-10
1.46608e-10
1.46608e-10
1.46608e-10
1.46608e-10
1.46608e-10
1.46608e-10
1.46608e-10
1.46608e-10
1.46608e-10
1.46608e-10
1.46608e-10
1.46608e-10
1.46608e-10
1.46608e-10
1.46608e-10
1.46608e-10
1.46608e-10
1.46608e-10
1.46608e-10
1.46608e-10
1.46608e-10
1.46608e-10
1.46608e-10
1.46608e-10
1.46608e-10
1.46608e-10
1.46608e-10
1.46608e-10
1.46608e-10
1.46608e-10
1.46608e-10
1.46608e-10
1.46608e-10
1.46608e-10
1.46608e-10
1.46608e-10
1.46608e-10
1.46608e-10
1.46608e-10
1.46608e-10
1.46608e-10
1.46608e-10
1.46608e-10
1.46608e-10
1.46608e-10
1.46608e-10
1.46608e-10
1.46608e-10
1.46608e-10
1.46608e-10
1.46608e-10
1.46608e-10
1.46608e-10
1.46608e-10
1.46608e-10
1.46608e-10
1.46608e-10
1.46608e-10
1.46608e-10
1.46608e-10
1.46608e-10
1.46608e-10
1.46608e-10
1.46608e-10
1.46608e-10
1.46608e-10
1.46608e-10
1.46608e-10
1.46608e-10
1.46608e-10
1.46608e-10
1.46608e-10
1.46608e-10
1.46608e-10
1.46608e-10
1.46608e-10
1.46608e-10
1.46608e-10
1.46608e-10
1.46608e-10
1.46608e-10
1.46608e-10

VECTORS velocity float
0.00566814 0.000331031 -8.14529e-05
0.00598595 -0.000106192 -0.000402655
0.00621303 5.01209e-05 -0.000585399
0.00574547 0.000133967 -0.000612509
0.00595335 -0.000571221 -4.16206e-05
0.00600119 -6.52578e-05 0.000382252
0.00594294 4.89613e-06 -0.000523996
0.00554853 -0.000493988 -5.75005e-05
0.00511407 0.000355703 -0.00072765
0.00590956 0.000220196 -0.000224915
0.00608577 -0.000346824 0.000100571
0.00578782 9.88085e-05 -0.000594785
0.00636983 0.000202602 0.000289026
0.00564594 -7.99409e-05 -2.78369e-05
0.00544891 0.000266465 -0.000686334
0.005776 7.09346e-05 -0.000564917
0.00566015 0.000257441 -0.0002518
0.00581459 0.000115462 -0.000602672
0.00551474 -0.000149747 1.06883e-05
0.00608295 -0.000597941 -3.42041e-05
0.00508521 0.000321463 -0.000696829
0.00611986 -0.000606849 -3.19031e-05
0.00586689 0.000388228 0.000824954
0.00603363 -8.01987e-05 -0.000463245
0.00577987 5.10954e-05 -0.00054522
0.00568377 0.00013241 -0.000601768
0.00658623 0.00037561 -0.00029652
0.00530515 0.000250138 -0.000660731
0.0059732 -0.000575247 -4.07403e-05
0.0058174 0.000190334 -0.000657197
0.00658647 -0.000119823 -0.00049977
0.00574902 -0.00044923 0.000164254
0.00610129 4.8765e-05 -0.000574544
0.00654971 0.000109999 -0.000683066
0.00608998 -0.000608254 -3.02066e-05
0.0059494 0.000138603 -0.00062863
0.00620621 0.000123085 -0.000638141
0.00660881 -4.77935e-05 -0.000539833
0.00599993 -0.000579831 -3.99237e-05
0.00601841 0.000141069 -0.000634131
0.00568278 0.000336216 -7.61579e-05
0.00554587 -0.000461909 2.21876e-05
0.00544053 0.000217058 -0.000646735
0.00613429 0.00076094 -4.02233e-06
0.00606352 -0.00030635 0.000111648
0.00601876 -0.000587202 -3.78396e-05
0.00561395 0.000397224 -0.000260456
0.00608023 -0.000459821 -0.000187155
0.00569598 0.000489171 -0.000253564
0.00601441 -0.000588579 -3.69669e-05
-5.01917e-15 -7.41212e-15 7.69803e-14
0.00671749 3.84947e-05 -0.000611517
0.00583587 0.000139018 -0.000623086
0.00648573 -0.000146966 -0.000456585
0.00559439 0.000427697 -4.75622e-05
0.00606232 -0.000584802 -3.98802e-05
0.00615377 -0.000434417 -0.00024209
0.00542787 7.01518e-05 -0.00010259
0.00563036 0.000297052 -0.000225496
0.00636366 0.000103021 -0.000417735
0.00563673 0.000296412 -0.000264896
0.00556633 -0.000495542 -5.67757e-05
0.00564152 -0.000170802 -1.88181e-06
0.00566587 0.000302944 -0.00026117
0.00494912 0.0003673 -0.000721504
0.00557036 0.000177421 -0.000627585
0.00612018 0.000124482 0.000559006
0.00609066 -3.15544e-05 -0.000274794
0.00598926 0.000924624 0.000294273
0.00573395 -0.0001193 -2.34504e-05
0.00618842 1.30027e-06 -0.000430605
0.00580155 -0.000158868 -3.67868e-05
0.00601543 -0.000316542 9.70981e-05
0.00574414 -0.000448836 0.000164533
0.00572699 -0.000160467 -2.01923e-05
0.00655354 5.18695e-05 -0.000586125
0.00600367 -6.15457e-05 -0.000480549
0.00647698 4.65338e-05 -0.000208003
0.00581079 0.000218201 -0.000190246
0.005629 0.000308738 -0.000214871
0.00601344 -0.000358266 0.000105144
0.00649038 0.000251424 -0.000198797
0.00573378 8.1345e-05 -0.00056287
0.00578112 0.000279331 -0.00012567
0.00675862 0.000167031 -0.000613384
0.00646306 0.000244371 -0.000202788
0.00584273 0.000861179 0.000318982
0.00566133 0.000102916 -0.000578315
0.00560405 -0.000411463 -2.8095e-05
0.00577816 0.000231722 -0.000448027
0.00559749 -0.000402868 -3.27143e-05
4.14134e-15 1.05427e-14 8.29608e-14
-3.50766e-23 4.86658e-23 1.23839e-22
0.00567383 -0.000117556 -3.96324e-05
0.00585351 0.000874009 0.000313619
0.00655545 -0.000203969 0.000113279
0.00595761 0.000989522 0.000228202
0.00568982 0.000299443 -0.000252759
0.00613136 0.000868012 -8.92614e-05
0.00595616 -0.000131586 -0.000479121
0.00597829 -4.49871e-05 -0.000500332
0.00644557 0.000725867 0.00058574
0.00628737 0.000555673 0.000679839
0.00579085 0.000642508 0.000523386
0.00645983 6.93236e-05 -0.000629061
0.00565379 0.000447853 -0.000117166
0.00660847 -3.56081e-05 -0.000427232
0.00605973 -0.000326387 0.000100346
0.00573787 0.000280304 -0.000255659
0.00578162 7.75071e-05 -0.000568654
0.00574753 0.000398178 -9.31562e-05
0.00635329 0.000228272 -0.000181891
0.00570024 -0.00016048 1.06142e-05
0.00582341 5.14255e-05 -0.000549855
0.00643189 -0.00027244 -0.000535511
0.00514907 0.000948735 0.000111259
0.00567234 0.000116232 -0.00058904
0.00596897 0.000189675 -0.000344874
0.005946 -0.00103972 -0.00233596
0.00568281 -0.000337324 -3.14619e-05
0.00643742 0.000170776 -0.000687988
0.00560487 0.000400405 -9.09337e-05
0.00581161 0.000441171 -0.000181681
0.00572621 0.000299355 -0.000359162
0.00604088 -0.000164879 0.00015426
0.00603346 0.000338601 -0.000115811
0.00584357 0.00031529 -0.000135391
0.00616749 4.88945e-05 -0.000210164
0.00568695 -9.24186e-05 -9.88451e-05
0.00551824 -0.000128193 9.26373e-05
0.0058623 0.000837206 0.000350534
0.00600998 -0.0002683 0.000136027
0.00622991 0.000622747 0.000631691
0.00616464 0.000295356 -0.000264057
0.00576333 -0.000129221 -6.18629e-05
0.00588566 3.47321e-05 -0.000566147
0.00566652 -0.000151938 -2.40647e-05
0.00567454 -5.43284e-05 -2.11609e-05
0.00573382 -0.000194142 -5.37028e-05
0.00634302 0.00069528 0.000654563
0.00628105 0.000437264 0.000430145
0.00560157 -5.62843e-05 -0.000125325
-3.83481e-14 8.1648e-14 2.95891e-13
0.00596769 -9.28618e-06 0.000304528
0.00638464 2.11055e-05 -0.000591377
0.00567221 -1.96124e-05 -1.70374e-05
0.00560284 -3.58346e-05 -5.23319e-05
0.00557133 0.000624067 0.000491824
0.00572336 -0.000102387 -2.35141e-05
0.00569819 0.000313867 -7.54496e-05
0.00567414 -0.00011403 -2.41387e-05
0.00570757 -0.000111166 -2.27487e-05
0.00564595 -0.000164742 -2.42288e-05
0.00569844 -0.000135559 -2.28934e-05
0.00569513 0.000340366 -9.10945e-05
0.00624954 0.000533451 0.000691841
0.00560004 0.000318693 -0.000233177
0.00567724 0.000640677 0.000497697
0.0061758 0.000449612 0.000497807
0.00454728 0.00080046 0.000188843
0.00639413 0.000666898 0.000672385
0.00567429 -9.30556e-06 -1.92047e-05
0.00566933 9.13455e-05 -8.82219e-05
0.0061577 0.000586175 0.000427428
0.0056341 0.000342795 -4.93107e-05
0.00570671 -0.000154615 0.000149468
0.00566039 -0.000206713 2.35017e-06
0.00562118 0.000347716 -8.57343e-05
0.00639697 -0.000540535 -0.000857754
0.00574922 0.000372715 -7.93492e-05
0.00553979 -0.000347953 7.52018e-05
0.00592746 1.29179e-05 -0.000545233
0.00636915 0.00058824 0.000677768
0.0057036 0.000285308 -9.27026e-05
0.00548114 -3.28951e-06 -0.000105162
0.00564362 -3.80586e-05 -2.21627e-05
0.00552527 -9.24109e-05 -6.56835e-05
0.00615246 -0.000378742 0.000277695
0.0059913 -0.000302074 0.000100958
0.00600774 0.000618743 0.000266367
0.00645561 0.000777577 0.000513822
0.00567868 -7.69102e-05 -2.33598e-05
0.00605844 8.64233e-05 0.000480236
0.00594446 0.000405674 -0.000336542
0.00556297 -0.000132453 3.88099e-06
0.00574782 0.000508297 0.000631649
0.00583314 0.000465308 0.000686608
0.00519553 0.00071091 0.000329731
0.00609694 -0.000322233 0.000110891
0.00611339 -0.000586611 -0.00037209
0.00602123 -3.22238e-05 -0.000501194
0.00600936 -6.66078e-05 -0.00048535
0.00570386 -0.000122188 -2.85003e-05
0.00572827 0.000366119 -0.000100041
0.00620546 -9.46606e-05 -0.000423537
0.00569508 -0.00037639 8.7001e-05
0.00478879 0.000741105 0.000238528
0.00571317 0.000147272 -9.05144e-05
0.00584932 0.000684616 0.000607816
0.00585963 4.75594e-05 -0.000557441
0.00560867 -0.000357608 -3.88427e-05
0.00682435 4.25873e-05 -0.000654604
0.00602312 0.000423554 0.000790347
0.00598188 -9.67177e-05 -0.000489725
0.00745885 -0.000371506 0.000228838
0.00571907 -0.000386867 8.42012e-05
0.00558963 -0.000447098 -0.000251523
0.00573295 -0.000142385 -2.38621e-05
0.00594032 0.00046363 0.00068043
0.00570641 -2.29711e-05 -2.94154e-05
0.00566617 -8.73178e-05 -2.40501e-05
0.00592781 0.000283051 0.000119018
0.00581976 0.00050105 0.000649227
0.00604852 0.000523361 0.00068491
0.00613832 0.000507896 0.000671673
0.00558582 -0.000274182 0.000214893
0.00611262 -0.000366302 0.000274655
0.00559184 -0.000276113 0.000216324
0.00590794 -0.000326363 0.000113104
0.00538352 -5.98747e-05 -0.000136355
0.00572845 -0.000300183 0.000231426
0.00616337 -0.000583158 -0.000250887
0.00570731 0.000598176 0.000539997
0.0063437 0.000106594 8.70332e-05
0.00615327 -0.000591598 -0.000250623
0.00565896 0.000604706 0.000536324
0.00655055 0.000505076 -0.000283873
0.00617255 -0.000586785 -0.00025141
0.00550055 -0.0003371 7.42064e-05
0.00616109 -0.000590591 -0.000248399
0.00602912 0.000889646 0.000334215
0.00562037 -0.000135023 7.50243e-06
0.00580476 -0.000169196 5.76817e-05
0.00635486 0.000179094 0.000168047
0.00617784 -0.000587361 -0.000249128
0.00569159 -5.45597e-05 -2.19505e-05
0.00607355 0.000465977 0.000727461
0.0062221 0.000548073 0.000695721
0.00614314 -0.000588056 -0.000255539
0.00441271 0.000745888 0.000108024
0.00559893 -0.000341363 7.53697e-05
0.00564531 -4.98251e-05 -2.07377e-05
0.00573629 0.000546024 0.000591632
0.00609835 -0.00033282 0.000102929
0.00533574 -5.09378e-05 -0.000136811
0.0062457 0.000159876 -0.000162991
0.00568573 -1.97139e-05 -1.62153e-05
0.00559762 -0.000402892 -9.03606e-05
0.0057748 0.000475506 0.000664355
0.00561013 -0.000458433 -0.000254706
0.00562254 0.000630808 0.000494788
0.00553048 0.000664945 0.000443042
0.00575095 0.000560212 0.000581486
0.00623734 -0.000286639 -9.78786e-05
0.00569785 -0.000425004 9.19816e-05
0.00573585 -0.000390972 8.501e-05
0.00567117 -1.75218e-05 -1.68927e-05
0.00608556 -0.000361559 0.000270496
0.00602303 0.000499406 0.000703393
0.00609282 0.000435979 0.000765433
0.00551903 0.000615712 0.00048971
0.00587152 0.000475754 0.000667978
0.0056154 -8.9453e-05 -1.68365e-05
0.00445322 0.000751527 0.000178113
0.00597773 -0.000178324 0.000172348
0.00596709 -0.000189766 -8.91919e-05
0.00568016 -3.60088e-05 -1.97699e-05
0.00604073 0.000472124 0.000724045
0.00608271 0.000534071 0.000714813
0.00576417 -0.000389554 8.62438e-05
0.00578254 0.0005196 0.000621623
0.00569838 0.000359442 -0.000107637
0.00614419 -0.000374202 0.000279027
0.00616425 -0.000586129 -0.000249463
0.00593404 0.000358377 -0.000123154

VECTORS force float
2.97304e-10 1.17491e-09 1.14822e-10
-2.3041e-10 3.8913e-10 2.31411e-10
-2.05638e-10 1.93e-11 -6.3177e-11
-6.03683e-10 5.47471e-10 -3.53085e-10
-2.37693e-12 -5.84412e-13 4.90553e-13
-1.02703e-09 1.42941e-10 1.45144e-10
1.7289e-10 -5.84195e-10 4.51237e-10
2.66991e-12 1.81226e-11 9.28183e-13
-6.40005e-10 -2.02962e-10 2.19713e-10
2.60683e-10 -5.04939e-10 -3.04241e-10
4.99852e-11 -7.75211e-10 5.14948e-11
-2.51993e-10 5.27273e-10 -3.23073e-10
-2.86885e-10 -7.52017e-10 1.34241e-10
-2.28741e-10 -4.26939e-11 1.006e-10
-5.68195e-10 -2.09373e-10 2.357e-10
7.45551e-11 4.13643e-10 -3.14539e-10
3.8516e-11 2.75036e-10 1.56415e-10
-6.4695e-10 -1.53358e-10 1.71379e-10
2.25314e-10 7.9648e-11 1.11735e-10
-1.30229e-11 2.28595e-10 -9.51585e-11
-3.8925e-10 -1.09338e-10 1.05015e-10
-1.64062e-10 -1.97735e-12 1.17508e-11
2.08311e-09 -3.69665e-10 2.52237e-10
-5.68122e-10 4.33834e-11 1.08101e-10
1.18931e-10 3.7709e-10 -2.99876e-10
4.93107e-10 -8.52076e-11 1.86598e-11
2.58661e-10 -1.43792e-10 -4.96048e-10
-1.13143e-11 -4.28568e-11 3.42253e-11
-1.29169e-11 1.56393e-11 -6.10469e-12
-3.81569e-10 -1.54799e-10 2.12442e-10
-6.54688e-10 3.98796e-10 -8.78733e-10
9.14481e-12 -9.63834e-12 1.83988e-12
-4.40444e-11 -4.20757e-11 1.20859e-10
3.59267e-10 -3.29394e-10 -8.38046e-10
2.67731e-12 1.19037e-10 -3.23366e-11
4.84392e-12 4.52988e-11 -6.57568e-11
-3.61599e-10 4.62484e-10 -3.50208e-10
7.49763e-10 -1.50232e-10 3.91356e-10
-6.92157e-11 3.20188e-11 -1.04575e-11
4.89636e-11 -1.0993e-10 4.48272e-11
-4.02686e-10 -1.30537e-10 4.42485e-10
7.54527e-13 -3.12627e-12 -3.81875e-12
-2.56648e-10 1.33118e-10 -6.43221e-11
2.05785e-10 1.82366e-11 -3.59186e-11
2.72921e-10 -3.53981e-10 -2.72532e-11
4.28705e-12 -1.34345e-10 5.45639e-11
-6.39145e-10 -8.1752e-11 9.97044e-12
3.98159e-10 -2.0181e-10 -8.58272e-11
-4.08197e-10 -8.99541e-11 -2.22691e-10
2.26929e-10 -3.89777e-11 1.15995e-11
4.78214e-25 -4.91138e-25 0.0
1.28933e-10 -7.78935e-10 6.95818e-10
-3.97921e-10 3.28105e-10 -2.20043e-10
-5.09702e-10 4.14406e-10 -7.97766e-11
3.67301e-10 1.8956e-10 -1.2025e-10
-3.74817e-10 7.61784e-11 -3.45141e-11
-1.01878e-09 -2.46993e-10 1.13937e-10
1.55532e-10 -1.55568e-10 1.93989e-10
-4.72577e-10 3.60109e-10 -4.75399e-10
1.8132e-10 -2.92391e-10 -3.98022e-10
-3.03842e-10 3.38562e-10 -1.78278e-12
-8.92512e-12 1.24536e-11 -9.74638e-12
-3.47854e-10 -2.51564e-10 -1.74873e-11
-6.71981e-10 4.291e-12 2.90516e-11
-5.8125e-10 -1.80166e-10 1.83597e-10
-3.18957e-11 7.70749e-11 -6.69544e-11
6.26762e-10 8.60032e-10 8.74301e-10
1.24572e-11 3.04261e-10 1.77941e-10
7.66872e-11 2.82232e-10 -2.46325e-10
-6.3235e-11 1.38632e-10 1.4078e-11
-2.90889e-11 -1.45358e-10 7.78714e-10
-3.20392e-11 -2.95466e-10 1.40814e-10
7.87707e-10 -6.07636e-10 3.00065e-10
2.95225e-11 -7.01707e-12 -9.22867e-12
-3.0253e-10 -2.83516e-10 -1.41323e-11
1.1407e-10 -6.83685e-10 3.61768e-10
-1.33808e-10 -2.63061e-10 1.51414e-10
-2.71183e-10 3.80505e-10 -6.99315e-10
-1.9347e-10 6.30024e-10 -9.04631e-11
-1.33497e-10 4.48104e-10 -7.70215e-10
3.9133e-10 -4.81511e-10 1.17533e-10
-2.4026e-10 2.1452e-10 -5.75398e-10
-4.89531e-11 -1.1292e-10 4.73287e-11
-2.04803e-10 -1.65021e-10 5.89471e-10
3.56373e-10 8.62623e-10 -1.0026e-10
3.97727e-10 3.45607e-10 -7.40147e-10
-1.83278e-11 1.91928e-10 -1.2886e-10
-7.41558e-11 -1.51619e-10 1.59327e-10
2.09416e-10 1.5912e-10 -1.47402e-10
1.97427e-10 1.37545e-10 -5.0981e-10
-8.79137e-11 2.93856e-10 3.39855e-12
1.42008e-21 -2.0527e-22 -4.77697e-23
0.0 0.0 0.0
-2.72296e-10 2.05389e-11 -1.0753e-10
1.24248e-10 -8.10504e-11 1.04577e-10
-9.45325e-11 -6.63225e-10 -1.40122e-10
7.27334e-11 2.7385e-10 -2.39808e-10