# vtk DataFile Version 3.0
LIGGGHTS particles timestep 57200000
ASCII
DATASET POLYDATA
POINTS 275 float
0.346788 0.018198 0.00705162
0.346515 0.0174293 0.00751497
0.346648 0.0171763 0.00752059
0.346207 0.0161278 0.00806228
0.352391 0.0169048 0.00758733
0.346814 0.0179243 0.00714919
0.346485 0.0168829 0.00767623
0.352599 0.0177781 0.00714628
0.346464 0.0167954 0.00771984
0.346916 0.0185763 0.00701367
0.340653 0.0168169 0.00744166
0.346187 0.0160402 0.00810589
0.340541 0.017117 0.00731407
0.340767 0.0177397 0.00730306
0.346307 0.0165666 0.00784421
0.346167 0.0159525 0.0081495
0.346717 0.0178979 0.00717156
0.346796 0.0174048 0.00739723
0.340819 0.0175752 0.00731392
0.352516 0.0174288 0.00732269
0.346586 0.0169136 0.00765141
0.352557 0.0176034 0.00723449
0.340422 0.0165846 0.00756433
0.346412 0.0170042 0.00762618
0.346146 0.0158649 0.00819311
0.346434 0.0170884 0.0076825
0.346738 0.0179857 0.00712837
0.346328 0.0166541 0.0078006
0.352412 0.0169922 0.00754321
0.346287 0.0164789 0.00788782
0.346746 0.0176557 0.00728341
0.352661 0.0180401 0.00701396
0.346627 0.0170887 0.0075642
0.346704 0.0174501 0.00738509
0.352536 0.0175161 0.00727859
0.346247 0.0163033 0.00797505
0.346861 0.0177679 0.00721853
0.346909 0.0179546 0.00713196
0.352433 0.0170795 0.00749911
0.346267 0.0163911 0.00793144
0.346576 0.0176935 0.00728283
0.352619 0.0178654 0.00710218
0.34635 0.0167415 0.007757
0.347021 0.018448 0.00696406
0.341001 0.0179976 0.00732007
0.352474 0.0172541 0.0074109
0.346807 0.0184745 0.0070468
0.340577 0.0168771 0.00741933
0.34673 0.018349 0.00700152
0.352454 0.0171668 0.007455
0.378022 0.019866 0.005332
0.346922 0.0181385 0.00706979
0.346228 0.0162155 0.00801866
0.34672 0.017563 0.00733002
0.346809 0.0182906 0.00702011
0.352495 0.0173414 0.0073668
0.340521 0.0170276 0.00735405
0.34088 0.0180248 0.00738905
0.346906 0.0183187 0.00700926
0.346568 0.0172331 0.0075018
0.346829 0.0188179 0.00685153
0.352578 0.0176907 0.00719038
0.340884 0.0178683 0.00731248
0.346774 0.0185371 0.00693986
0.346814 0.0175872 0.00730895
0.346413 0.0169988 0.00772603
0.340443 0.0166731 0.00752224
0.346642 0.0175914 0.00739704
0.340013 0.015721 0.0088774
0.340721 0.0183545 0.00727946
0.346526 0.017058 0.00758902
0.340812 0.0178022 0.0073932
0.340674 0.0169068 0.00739894
0.35264 0.0179527 0.00705807
0.340832 0.0180326 0.00730171
0.346888 0.0178608 0.00717178
0.346505 0.0169705 0.00763262
0.346793 0.0180295 0.0072034
0.346877 0.0185794 0.00692178
0.346928 0.0184148 0.00697658
0.340539 0.0167076 0.00751734
0.346609 0.0176871 0.00737682
0.346937 0.0189449 0.00680869
0.346686 0.0180274 0.0072032
0.346746 0.0180852 0.00713476
0.346495 0.0173544 0.00745175
0.340164 0.0159527 0.00852712
0.346868 0.0190131 0.00683246
0.340528 0.0174753 0.00728377
0.346832 0.0180156 0.00711249
0.34055 0.0175731 0.00728329
0.0643568 0.0187248 0.00531097
0.24257 0.0191927 0.00520306
0.340789 0.0178374 0.00730258
0.340166 0.0159022 0.00861338
0.340609 0.0176524 0.00737367
0.340035 0.0157732 0.00879496
0.346752 0.0184414 0.00697005
0.346905 0.0187533 0.00686277
0.346712 0.017661 0.00737727
0.346461 0.0171744 0.00763857
0.340391 0.0162194 0.00813959
0.340446 0.0170904 0.00733039
0.340485 0.017278 0.00728474
0.34669 0.0173512 0.00743338
0.346696 0.0178104 0.00721516
0.346793 0.0178362 0.00719311
0.340617 0.0170593 0.00734864
0.346792 0.0186294 0.0069061
0.346762 0.0172282 0.00748437
0.346638 0.0179561 0.00715202
0.346474 0.0172669 0.00749536
0.340906 0.0179666 0.00731215
0.346789 0.0174952 0.00735516
0.34661 0.0174081 0.00741459
0.340127 0.0159954 0.00844445
0.34669 0.0169485 0.00762429
0.346884 0.0182264 0.0070407
0.340582 0.017311 0.00729479
0.340605 0.0174115 0.00729435
0.346669 0.0172638 0.00747698
0.346663 0.0178053 0.00730946
0.346671 0.0177178 0.00726164
0.346849 0.0189158 0.0068442
0.340557 0.0167885 0.00746138
0.346779 0.0179312 0.00724259
0.346541 0.01755 0.00740808
0.346432 0.0170918 0.00758257
0.340426 0.0163249 0.00797031
0.340798 0.0174775 0.00731441
0.340056 0.0158255 0.00871252
0.340756 0.0172821 0.00731542
0.340098 0.0159826 0.00859631
0.340561 0.0172133 0.00729527
0.340447 0.0163831 0.00787761
0.34637 0.0168292 0.00771339
0.340678 0.0181594 0.00728765
0.340593 0.0177688 0.00728233
0.340455 0.016437 0.00779378
0.340077 0.015907 0.00865825
0.340123 0.0160508 0.00852759
0.340418 0.0162734 0.00805565
0.0219312 0.0187687 0.00551176
0.340499 0.0165664 0.00765327
0.346547 0.0171456 0.00754541
0.340571 0.017671 0.00728281
0.340779 0.0180615 0.00738166
0.340191 0.0162096 0.00828279
0.340712 0.0179008 0.00729198
0.346555 0.017606 0.00732644
0.340676 0.0180709 0.00737866
0.340777 0.0181947 0.00729062
0.340635 0.0179642 0.00728137
0.340755 0.0180964 0.00729109
0.346832 0.0183835 0.00699105
0.340427 0.0170009 0.00737283
0.346922 0.0188485 0.00683042
0.340229 0.0162894 0.00810407
0.340675 0.0175043 0.00738102
0.34015 0.0160477 0.00836236
0.340543 0.0175471 0.00737964
0.34076 0.0178951 0.00737926
0.346681 0.018136 0.00707403
0.340717 0.0176998 0.00738009
0.346954 0.0185182 0.00694132
0.340777 0.0173798 0.00731492
0.340928 0.0180658 0.0073117
0.346659 0.0180437 0.00710841
0.346589 0.0173206 0.00745819
0.346617 0.0178686 0.00719562
0.334788 0.0186223 0.00683982
0.346559 0.017518 0.00750112
0.340466 0.0171798 0.00728796
0.346851 0.0184756 0.00695712
0.340857 0.0179268 0.00738968
0.340669 0.0177049 0.0072929
0.340724 0.0175443 0.00730404
0.334458 0.0171925 0.0074778
0.340708 0.0170855 0.00731588
0.340712 0.0178 0.00738994
0.340152 0.0158502 0.00869766
0.34069 0.0178027 0.00729243
0.340519 0.0166373 0.00758568
0.34665 0.0176303 0.00730525
0.340841 0.0176729 0.00731344
0.340366 0.0164024 0.00782217
0.340404 0.0165407 0.00767125
0.340267 0.0162 0.00813726
0.340596 0.0169661 0.00737818
0.340502 0.016939 0.00739608
0.346606 0.0170012 0.00760781
0.346391 0.0169167 0.00766979
0.34081 0.017935 0.0073021
0.346597 0.017781 0.00723923
0.346766 0.0177434 0.0072398
0.334692 0.0181742 0.00703991
0.34021 0.0161516 0.00820354
0.346708 0.0182551 0.00703348
0.340506 0.0173757 0.00728426
0.346783 0.0173156 0.00744077
0.340626 0.0175092 0.00729387
0.346826 0.0181102 0.00708067
0.34033 0.0165906 0.00762636
0.346479 0.0172628 0.00759514
0.340696 0.017602 0.0073806
0.334713 0.0182634 0.00700011
0.33465 0.0179957 0.00711953
0.340853 0.0181304 0.00730117
0.340423 0.0167777 0.00757066
0.340734 0.0179988 0.00729152
0.340654 0.0178839 0.00737178
0.346811 0.0187224 0.00687448
0.340292 0.0164556 0.00778099
0.340505 0.0172004 0.00737764
0.340387 0.0168238 0.00745689
0.334352 0.0167463 0.00767684
0.334416 0.0170141 0.00755741
0.334332 0.0166569 0.00771678
0.340693 0.0169955 0.00735691
0.340703 0.0174466 0.00730455
0.334373 0.0168356 0.00763703
0.334565 0.0176387 0.00727876
0.340238 0.0162727 0.00800588
0.340559 0.0174484 0.00737517
0.334501 0.017371 0.00739818
0.340328 0.0163156 0.00799702
0.346618 0.0174979 0.00737126
0.334586 0.017728 0.00723895
0.33477 0.0185323 0.00688
0.334522 0.0174603 0.00735837
0.340625 0.0173725 0.00738408
0.340863 0.0177705 0.00731302
0.340479 0.0164871 0.00771059
0.34053 0.0173404 0.00737487
0.334607 0.0178172 0.00719914
0.340614 0.0178665 0.00728185
0.340482 0.0168504 0.00743811
0.340407 0.0169123 0.00741486
0.33448 0.0172818 0.00743799
0.340152 0.0161016 0.00844656
0.334808 0.0187201 0.00684387
0.340647 0.0176072 0.00729339
0.340353 0.0163504 0.00790664
0.340733 0.0171841 0.0073158
0.340682 0.0173489 0.00730501
0.346453 0.0171793 0.00753897
0.340699 0.0182568 0.00727993
0.334671 0.0180849 0.00707972
0.340374 0.0164615 0.00772421
0.334628 0.0179065 0.00715934
0.340211 0.0162573 0.00819728
0.340322 0.0162607 0.00808036
0.340255 0.0163249 0.00792233
0.340639 0.0171556 0.00733293
0.334865 0.0185648 0.00686723
0.334735 0.0183527 0.0069603
0.340626 0.0177508 0.00737467
0.334395 0.0169248 0.00759722
0.340442 0.0168691 0.00752765
0.340348 0.0166505 0.0075483
0.340172 0.0161544 0.00836413
0.340313 0.0165402 0.0077123
0.340746 0.017642 0.00730354
0.34017 0.0160999 0.00827959
0.340462 0.0167618 0.00748014
0.34066 0.0172523 0.00731941
0.340657 0.0180619 0.00728089
0.340368 0.0167352 0.00749891
0.340488 0.0170246 0.00744829
0.334753 0.0184424 0.00692019
0.340275 0.0164047 0.00786546
0.346666 0.0179396 0.00724666
0.334437 0.0171033 0.0075176
0.334543 0.0175495 0.00731857
0.346518 0.0174527 0.00740281

VERTICES 275 550
1 0
1 1
1 2
1 3
1 4
1 5
1 6
1 7
1 8
1 9
1 10
1 11
1 12
1 13
1 14
1 15
1 16
1 17
1 18
1 19
1 20
1 21
1 22
1 23
1 24
1 25
1 26
1 27
1 28
1 29
1 30
1 31
1 32
1 33
1 34
1 35
1 36
1 37
1 38
1 39
1 40
1 41
1 42
1 43
1 44
1 45
1 46
1 47
1 48
1 49
1 50
1 51
1 52
1 53
1 54
1 55
1 56
1 57
1 58
1 59
1 60
1 61
1 62
1 63
1 64
1 65
1 66
1 67
1 68
1 69
1 70
1 71
1 72
1 73
1 74
1 75
1 76
1 77
1 78
1 79
1 80
1 81
1 82
1 83
1 84
1 85
1 86
1 87
1 88
1 89
1 90
1 91
1 92
1 93
1 94
1 95
1 96
1 97
1 98
1 99
1 100
1 101
1 102
1 103
1 104
1 105
1 106
1 107
1 108
1 109
1 110
1 111
1 112
1 113
1 114
1 115
1 116
1 117
1 118
1 119
1 120
1 121
1 122
1 123
1 124
1 125
1 126
1 127
1 128
1 129
1 130
1 131
1 132
1 133
1 134
1 135
1 136
1 137
1 138
1 139
1 140
1 141
1 142
1 143
1 144
1 145
1 146
1 147
1 148
1 149
1 150
1 151
1 152
1 153
1 154
1 155
1 156
1 157
1 158
1 159
1 160
1 161
1 162
1 163
1 164
1 165
1 166
1 167
1 168
1 169
1 170
1 171
1 172
1 173
1 174
1 175
1 176
1 177
1 178
1 179
1 180
1 181
1 182
1 183
1 184
1 185
1 186
1 187
1 188
1 189
1 190
1 191
1 192
1 193
1 194
1 195
1 196
1 197
1 198
1 199
1 200
1 201
1 202
1 203
1 204
1 205
1 206
1 207
1 208
1 209
1 210
1 211
1 212
1 213
1 214
1 215
1 216
1 217
1 218
1 219
1 220
1 221
1 222
1 223
1 224
1 225
1 226
1 227
1 228
1 229
1 230
1 231
1 232
1 233
1 234
1 235
1 236
1 237
1 238
1 239
1 240
1 241
1 242
1 243
1 244
1 245
1 246
1 247
1 248
1 249
1 250
1 251
1 252
1 253
1 254
1 255
1 256
1 257
1 258
1 259
1 260
1 261
1 262
1 263
1 264
1 265
1 266
1 267
1 268
1 269
1 270
1 271
1 272
1 273
1 274

POINT_DATA 275
SCALARS id int 1
LOOKUP_TABLE default
1
2
4
5
6
7
8
9
10
11
12
13
14
16
17
19
21
22
23
24
25
26
27
28
29
30
31
32
33
34
35
36
37
38
39
41
42
44
45
47
48
49
50
51
52
53
54
55
56
57
59
60
61
62
63
64
65
66
67
68
69
70
71
72
73
74
76
77
78
79
80
82
83
84
85
86
87
88
89
90
91
92
93
94
95
96
97
98
99
100
101
102
103
104
105
106
107
108
109
110
111
112
113
114
115
116
117
118
119
120
121
122
123
124
125
127
128
129
130
131
132
133
134
135
136
137
138
140
141
142
143
144
146
147
148
149
150
151
153
154
155
156
157
158
159
160
162
164
165
166
167
168
169
170
171
172
173
174
176
177
178
179
182
183
184
185
186
187
188
189
190
191
192
193
194
195
196
197
198
199
200
201
202
203
204
205
206
207
208
209
210
211
212
213
214
215
216
217
218
219
220
222
224
225
226
227
228
229
230
232
233
234
235
236
237
239
240
241
242
243
244
246
247
248
249
250
251
252
253
254
255
256
257
258
259
260
261
262
263
264
265
266
267
268
269
270
271
272
273
274
275
276
277
278
279
280
281
283
284
285
286
287
288
289
290
291
292
293
294
295
296
297
298
299
300

SCALARS type int 1
LOOKUP_TABLE default
1
1
1
1
1
1
1
1
1
1
1
1
1
1
1
1
1
1
1
1
1
1
1
1
1
1
1
1
1
1
1
1
1
1
1
1
1
1
1
1
1
1
1
1
1
1
1
1
1
1
1
1
1
1
1
1
1
1
1
1
1
1
1
1
1
1
1
1
1
1
1
1
1
1
1
1
1
1
1
1
1
1
1
1
1
1
1
1
1
1
1
1
1
1
1
1
1
1
1
1
1
1
1
1
1
1
1
1
1
1
1
1
1
1
1
1
1
1
1
1
1
1
1
1
1
1
1
1
1
1
1
1
1
1
1
1
1
1
1
1
1
1
1
1
1
1
1
1
1
1
1
1
1
1
1
1
1
1
1
1
1
1
1
1
1
1
1
1
1
1
1
1
1
1
1
1
1
1
1
1
1
1
1
1
1
1
1
1
1
1
1
1
1
1
1
1
1
1
1
1
1
1
1
1
1
1
1
1
1
1
1
1
1
1
1
1
1
1
1
1
1
1
1
1
1
1
1
1
1
1
1
1
1
1
1
1
1
1
1
1
1
1
1
1
1
1
1
1
1
1
1
1
1
1
1
1
1
1
1
1
1
1
1
1
1
1
1
1
1
1
1
1
1
1
1

SCALARS radius float 1
LOOKUP_TABLE default
5e-05
5e-05
5e-05
5e-05
5e-05
5e-05
5e-05
5e-05
5e-05
5e-05
5e-05
5e-05
5e-05
5e-05
5e-05
5e-05
5e-05
5e-05
5e-05
5e-05
5e-05
5e-05
5e-05
5e-05
5e-05
5e-05
5e-05
5e-05
5e-05
5e-05
5e-05
5e-05
5e-05
5e-05
5e-05
5e-05
5e-05
5e-05
5e-05
5e-05
5e-05
5e-05
5e-05
5e-05
5e-05
5e-05
5e-05
5e-05
5e-05
5e-05
5e-05
5e-05
5e-05
5e-05
5e-05
5e-05
5e-05
5e-05
5e-05
5e-05
5e-05
5e-05
5e-05
5e-05
5e-05
5e-05
5e-05
5e-05
5e-05
5e-05
5e-05
5e-05
5e-05
5e-05
5e-05
5e-05
5e-05
5e-05
5e-05
5e-05
5e-05
5e-05
5e-05
5e-05
5e-05
5e-05
5e-05
5e-05
5e-05
5e-05
5e-05
5e-05
5e-05
5e-05
5e-05
5e-05
5e-05
5e-05
5e-05
5e-05
5e-05
5e-05
5e-05
5e-05
5e-05
5e-05
5e-05
5e-05
5e-05
5e-05
5e-05
5e-05
5e-05
5e-05
5e-05
5e-05
5e-05
5e-05
5e-05
5e-05
5e-05
5e-05
5e-05
5e-05
5e-05
5e-05
5e-05
5e-05
5e-05
5e-05
5e-05
5e-05
5e-05
5e-05
5e-05
5e-05
5e-05
5e-05
5e-05
5e-05
5e-05
5e-05
5e-05
5e-05
5e-05
5e-05
5e-05
5e-05
5e-05
5e-05
5e-05
5e-05
5e-05
5e-05
5e-05
5e-05
5e-05
5e-05
5e-05
5e-05
5e-05
5e-05
5e-05
5e-05
5e-05
5e-05
5e-05
5e-05
5e-05
5e-05
5e-05
5e-05
5e-05
5e-05
5e-05
5e-05
5e-05
5e-05
5e-05
5e-05
5e-05
5e-05
5e-05
5e-05
5e-05
5e-05
5e-05
5e-05
5e-05
5e-05
5e-05
5e-05
5e-05
5e-05
5e-05
5e-05
5e-05
5e-05
5e-05
5e-05
5e-05
5e-05
5e-05
5e-05
5e-05
5e-05
5e-05
5e-05
5e-05
5e-05
5e-05
5e-05
5e-05
5e-05
5e-05
5e-05
5e-05
5e-05
5e-05
5e-05
5e-05
5e-05
5e-05
5e-05
5e-05
5e-05
5e-05
5e-05
5e-05
5e-05
5e-05
5e-05
5e-05
5e-05
5e-05
5e-05
5e-05
5e-05
5e-05
5e-05
5e-05
5e-05
5e-05
5e-05
5e-05
5e-05
5e-05
5e-05
5e-05
5e-05
5e-05
5e-05
5e-05
5e-05
5e-05
5e-05
5e-05
5e-05
5e-05
5e-05
5e-05
5e-05
5e-05
5e-05
5e-05
5e-05
5e-05
5e-05
5e-05
5e-05
5e-05
5e-05
5e-05
5e-05
5e-05

SCALARS mass float 1
LOOKUP_TABLE default
1.46608e-10
1.46608e-10
1.46608e-10
1.46608e-10
1.46608e-10
1.46608e-10
1.46608e-10
1.46608e-10
1.46608e-10
1.46608e-10
1.46608e-10
1.46608e-10
1.46608e-10
1.46608e-10
1.46608e-10
1.46608e-10
1.46608e-10
1.46608e-10
1.46608e-10
1.46608e-10
1.46608e-10
1.46608e-10
1.46608e-10
1.46608e-10
1.46608e-10
1.46608e-10
1.46608e-10
1.46608e-10
1.46608e-10
1.46608e-10
1.46608e-10
1.46608e-10
1.46608e-10
1.46608e-10
1.46608e-10
1.46608e-10
1.46608e-10
1.46608e-10
1.46608e-10
1.46608e-10
1.46608e-10
1.46608e-10
1.46608e-10
1.46608e-10
1.46608e-10
1.46608e-10
1.46608e-10
1.46608e-10
1.46608e-10
1.46608e-10
1.46608e-10
1.46608e-10
1.46608e-10
1.46608e-10
1.46608e-10
1.46608e-10
1.46608e-10
1.46608e-10
1.46608e-10
1.46608e-10
1.46608e-10
1.46608e-10
1.46608e-10
1.46608e-10
1.46608e-10
1.46608e-10
1.46608e-10
1.46608e-10
1.46608e-10
1.46608e-10
1.46608e-10
1.46608e-10
1.46608e-10
1.46608e-10
1.46608e-10
1.46608e-10
1.46608e-10
1.46608e-10
1.46608e-10
1.46608e-10
1.46608e-10
1.46608e-10
1.46608e-10
1.46608e-10
1.46608e-10
1.46608e-10
1.46608e-10
1.46608e-10
1.46608e-10
1.46608e-10
1.46608e-10
1.46608e-10
1.46608e-10
1.46608e-10
1.46608e-10
1.46608e-10
1.46608e-10
1.46608e-10
1.46608e-10
1.46608e-10
1.46608e-10
1.46608e-10
1.46608e-10
1.46608e-10
1.46608e-10
1.46608e-10
1.46608e-10
1.46608e-10
1.46608e-10
1.46608e-10
1.46608e-10
1.46608e-10
1.46608e-10
1.46608e-10
1.46608e-10
1.46608e-10
1.46608e-10
1.46608e-10
1.46608e-10
1.46608e-10
1.46608e-10
1.46608e-10
1.46608e-10
1.46608e-10
1.46608e-10
1.46608e-10
1.46608e-10
1.46608e-10
1.46608e-10
1.46608e-10
1.46608e-10
1.46608e-10
1.46608e-10
1.46608e-10
1.46608e-10
1.46608e-10
1.46608e-10
1.46608e-10
1.46608e-10
1.46608e-10
1.46608e-10
1.46608e-10
1.46608e-10
1.46608e-10
1.46608e-10
1.46608e-10
1.46608e-10
1.46608e-10
1.46608e-10
1.46608e-10
1.46608e-10
1.46608e-10
1.46608e-10
1.46608e-10
1.46608e-10
1.46608e-10
1.46608e-10
1.46608e-10
1.46608e-10
1.46608e-10
1.46608e-10
1.46608e-10
1.46608e-10
1.46608e-10
1.46608e-10
1.46608e-10
1.46608e-10
1.46608e-10
1.46608e-10
1.46608e-10
1.46608e-10
1.46608e-10
1.46608e-10
1.46608e-10
1.46608e-10
1.46608e-10
1.46608e-10
1.46608e-10
1.46608e-10
1.46608e-10
1.46608e-10
1.46608e-10
1.46608e-10
1.46608e-10
1.46608e-10
1.46608e-10
1.46608e-10
1.46608e-10
1.46608e-10
1.46608e-10
1.46608e-10
1.46608e-10
1.46608e-10
1.46608e-10
1.46608e-10
1.46608e-10
1.46608e-10
1.46608e-10
1.46608e-10
1.46608e-10
1.46608e-10
1.46608e-10
1.46608e-10
1.46608e-10
1.46608e-10
1.46608e-10
1.46608e-10
1.46608e-10
1.46608e-10
1.46608e-10
1.46608e-10
1.46608e-10
1.46608e-10
1.46608e-10
1.46608e-10
1.46608e-10
1.46608e-10
1.46608e-10
1.46608e-10
1.46608e-10
1.46608e-10
1.46608e-10
1.46608e-10
1.46608e-10
1.46608e-10
1.46608e-10
1.46608e-10
1.46608e-10
1.46608e-10
1.46608e-10
1.46608e-10
1.46608e-10
1.46608e-10
1.46608e-10
1.46608e-10
1.46608e-10
1.46608e-10
1.46608e-10
1.46608e-10
1.46608e-10
1.46608e-10
1.46608e-10
1.46608e-10
1.46608e-10
1.46608e-10
1.46608e-10
1.46608e-10
1.46608e-10
1.46608e-10
1.46608e-10
1.46608e-10
1.46608e-10
1.46608e-10
1.46608e-10
1.46608e-10
1.46608e-10
1.46608e-10
1.46608e-10
1.46608e-10
1.46608e-10
1.46608e-10
1.46608e-10
1.46608e-10
1.46608e-10
1.46608e-10
1.46608e-10
1.46608e-10
1.46608e-10
1.46608e-10
1.46608e-10
1.46608e-10
1.46608e-10
1.46608e-10
1.46608e-10
1.46608e-10

VECTORS velocity float
0.00624709 0.000309389 -0.000192182
0.00590572 0.00027053 -0.000724725
0.00581326 0.000210547 -0.000691449
0.00589209 0.000287602 -0.000741006
0.00574664 0.000256804 0.000274425
0.00611164 0.000137328 -0.000687566
0.00571578 0.000271027 -0.000710104
0.00615618 0.000242407 0.000312871
0.00568411 0.000270985 -0.000706789
0.00612314 0.000580905 -0.000282536
0.00549616 -0.00099837 8.99065e-05
0.00590568 0.000274045 -0.000730635
0.00567161 -0.00109437 0.000362719
0.00567697 -0.00113525 0.000681215
0.00557116 0.000333114 -0.000729199
0.00592596 0.000258885 -0.000726028
0.00611942 0.000170239 -0.000709747
0.00590986 0.000154698 -0.000675242
0.00566733 -0.00119821 0.000681454
0.00598383 0.000226512 0.000306147
0.0056975 0.000234545 -0.000690801
0.006068 0.000232459 0.000308617
0.00543668 -0.00119361 0.000169514
0.00575431 0.000303818 -0.000729501
0.00593742 0.000245743 -0.00072082
0.00575766 0.000292699 -0.000721639
0.00618416 0.000233749 -0.000540682
0.0056076 0.000327639 -0.000729883
0.00580049 0.000309419 0.000250836
0.00551244 0.000342281 -0.000724656
0.00601837 0.000177872 -0.000696309
0.00617459 0.00043041 0.000195002
0.00577625 0.000217835 -0.000691461
0.0059446 0.000201892 -0.000700203
0.00602463 0.000233971 0.000307646
0.005632 0.000332676 -0.000729742
0.0060546 0.000118949 -0.000673384
0.00620983 0.000306905 -0.000191277
0.00584063 0.000298038 0.000259676
0.00555229 0.000339329 -0.000725765
0.00602977 0.000222607 -0.000719493
0.00618225 0.000245895 0.000309179
0.00559353 0.000339695 -0.000730821
0.00668223 0.00112171 -0.000472306
0.00568621 -0.00112788 -0.000482795
0.00590488 0.000241669 0.000293944
0.00640261 7.66842e-05 -0.000243516
0.0054346 -0.0010987 0.000142342
0.00619968 6.55004e-05 -0.000109351
0.00587826 0.000274978 0.000274492
-5.01948e-15 -7.41204e-15 7.69802e-14
0.00630545 8.47971e-05 -0.000116447
0.005723 0.000319541 -0.000734715
0.00598574 0.000179873 -0.000696474
0.00637071 0.000288655 -0.000185623
0.00593817 0.000224256 0.00030388
0.0053824 -0.00112705 0.000151529
0.00556754 -0.00110783 0.000667509
0.00651759 8.70565e-05 -0.000119619
0.00583936 0.000245851 -0.000710868
0.00569258 -5.25586e-05 -1.42136e-05
0.00611404 0.000237416 0.000311039
0.00557207 -0.00117132 0.000669415
0.00619643 -0.000141113 -3.70458e-05
0.00599508 0.0001566 -0.000680864
0.00572209 0.000291271 -0.000728061
0.00543929 -0.00116462 0.000163976
0.0059788 0.000209062 -0.000705384
0.00548313 5.27359e-05 0.00145762
0.00553561 -0.00112469 0.000663765
0.00576694 0.000258961 -0.000708127
0.00563572 -0.0011576 0.000677498
0.00509571 -0.00136995 0.000281517
0.00623292 0.000253599 0.000302072
0.00557231 -0.00111948 0.000667376
0.00609144 0.000117389 -0.000676162
0.00573093 0.000267914 -0.000709857
0.00592892 0.000332822 -0.000312035
0.00595655 0.000398128 -0.000217412
0.00687494 0.000651289 -0.000315101
0.00553501 -0.000974172 0.000437799
0.00603253 0.000229157 -0.000718571
0.00590526 -7.03013e-05 0.000140236
0.00600876 0.000217214 -0.00065781
0.00607235 0.000263541 -0.000451591
0.00589663 0.000256191 -0.000719458
0.00553958 0.00011606 0.00136531
0.0058677 -9.85241e-05 0.000123795
0.00575542 -0.00112215 0.000694084
0.0062159 0.000311309 -0.000192801
0.00571437 -0.00117031 0.000686756
4.39438e-15 1.05135e-14 8.29515e-14
2.29399e-22 -1.27651e-22 1.23839e-22
0.00564423 -0.00113369 0.000677171
0.00552206 0.00010967 0.00136433
0.00570051 -0.00116974 0.000683289
0.00548438 4.09903e-05 0.00146992
0.00622449 5.98773e-05 -0.00010753
0.00556488 -0.000189262 -7.11947e-06
0.00599571 0.000223333 -0.000705604
0.00580779 0.000291585 -0.000717757
0.00609739 0.00025052 0.00129565
0.00548859 -0.00083405 1.35162e-06
0.00589169 -0.00102163 0.000650562
0.00589717 0.000192053 -0.000691414
0.00608261 0.000182728 -0.000704406
0.00608438 0.000141861 -0.000691274
0.00540105 -0.00107854 0.000217707
0.0056707 -5.22494e-05 -6.23963e-05
0.00584361 0.000166932 -0.00067401
0.00613636 0.000189856 -0.000715286
0.00584968 0.000263243 -0.000718658
0.0055894 -0.0011031 0.000670624
0.00595636 0.000155775 -0.000680318
0.00591891 0.000220317 -0.000707266
0.00552125 0.000109343 0.00137831
0.00571901 0.000213173 -0.000683361
0.0063912 0.000114501 -0.000129291
0.00570274 -0.00103072 0.000700309
0.00575197 -0.00113162 0.000688104
0.00585597 0.000199445 -0.000690226
0.00605874 0.000189814 -0.000706653
0.00604174 0.00019102 -0.000706332
0.00585089 -6.07758e-05 7.58867e-05
0.00552092 -0.00108257 0.00023482
0.00611204 0.000144214 -0.000692487
0.00596683 0.000246934 -0.000721982
0.00578234 0.000287947 -0.000723337
0.00556412 0.000150276 0.00131757
0.00569652 -0.00120339 0.000686043
0.00545752 -3.48508e-07 0.00149827
0.00572031 -0.00117718 0.000668342
0.00617268 -0.000275893 0.00157003
0.00598711 -0.00106458 0.000718676
0.00544829 4.90162e-05 0.00149575
0.00568301 0.000334714 -0.000736602
0.00556984 -0.00113349 0.000667472
0.00566774 -0.00117949 0.000679501
0.00537513 0.000129915 0.00157541
0.00554514 -0.000134928 0.00143593
0.00666683 -0.00035513 0.00174184
0.00573879 0.000182606 0.00132631
-3.82927e-14 8.16876e-14 2.95887e-13
0.00566988 -0.000299437 0.00122205
0.00580307 0.000243082 -0.000705237
0.00569324 -0.00118311 0.000681829
0.00556181 -0.00113118 0.000666083
0.00648149 -0.000134348 0.00186177
0.00562718 -0.00118041 0.000674488
0.0059947 0.000230619 -0.00072072
0.00560412 -0.00113307 0.000669463
0.00556394 -0.00112208 0.000666649
0.00561012 -0.00121169 0.000674735
0.00556864 -0.00113099 0.0006668
0.00665766 0.000233752 -0.000168771
0.00540346 -0.00116599 0.00016462
0.005713 -7.31429e-05 -4.86546e-05
0.00627736 -0.000388123 0.00151291
0.00572422 -0.00118648 0.000677183
0.00550116 0.000114626 0.00137339
0.00569704 -0.00117775 0.000688158
0.00562242 -0.00114014 0.000672028
0.00595661 -0.000789352 0.000182559
0.00569327 -0.00115502 0.000684675
0.00629408 0.000784992 -0.000353644
0.00572469 -0.00118551 0.00068729
0.00556644 -0.00111383 0.000666768
0.00618674 0.000186466 -0.00071701
0.00588503 0.000229632 -0.000707185
0.00610371 0.000197972 -0.000715376
0.00581861 -5.41332e-05 0.000153532
0.00593377 0.00026243 -0.000714776
0.00536211 -0.000950511 4.94549e-05
0.00654625 0.000260262 -0.000176429
0.00560433 -0.00111844 0.00067245
0.00568705 -0.00116368 0.000682228
0.00573925 -0.00114392 0.000688391
0.00584161 -5.95401e-05 0.000142593
0.00546477 -0.00125851 0.00066552
0.0056476 -0.00113777 0.000679021
0.00543595 0.000105356 0.00135281
0.00565933 -0.00115309 0.000678415
0.00627304 -0.000812913 0.000847415
0.00600927 0.000200265 -0.000707336
0.00563631 -0.00117747 0.000677185
0.00539606 4.29127e-05 0.00149118
0.00574799 -0.000252615 0.000458965
0.00576074 6.01227e-05 0.00152058
0.0053919 -0.00110299 0.000127759
0.005413 -0.00113619 0.000150014
0.0057371 0.000227194 -0.000691076
0.00574829 0.00031685 -0.00073543
0.00561399 -0.00112791 0.000672486
0.00606898 0.000210899 -0.000718416
0.00605795 0.000166503 -0.000694593
0.00613693 -0.000117322 0.000171921
0.00563431 7.70416e-05 0.00141432
0.00624173 0.00030686 -0.000190555
0.00575809 -0.00104209 0.00067946
0.00587225 0.000160493 -0.000673475
0.00573396 -0.00113532 0.000683749
0.00623719 0.000306207 -0.000191066
0.0053855 -0.0012534 8.08234e-06
0.0058548 0.000279805 -0.000715573
0.0057028 -0.00115776 0.000685449
0.00616446 -0.000105813 0.000169057
0.00607614 -9.83893e-05 0.000164197
0.00556617 -0.00111656 0.000666776
0.00544111 -0.00115771 0.000154779
0.00560557 -0.00113961 0.000671611
0.0056527 -0.00120349 0.000680974
0.00550146 -2.54218e-05 -6.48033e-05
0.00533664 -4.30789e-05 0.00140801
0.00501175 -0.00101762 0.000165615
0.00542821 -0.00115699 0.000151805
0.00570353 -4.00204e-05 0.000131081
0.00578726 -4.94766e-05 0.000137118
0.00545764 2.1095e-06 0.000107153
0.00532071 -0.00143767 0.000230845
0.00575031 -0.00113903 0.00067559
0.00573142 -4.30003e-05 0.000132953
0.00597488 -8.82498e-05 0.000157203
0.00531087 6.96523e-05 0.00135103
0.00576706 -0.00115145 0.000692517
0.00589635 -7.07164e-05 0.000148341
0.00550147 2.87308e-05 0.00151939
0.00595204 0.000217662 -0.000707588
0.00599537 -8.65034e-05 0.00015775
0.00575704 -4.99208e-05 0.000139457
0.00591861 -7.38516e-05 0.000150583
0.0057828 -0.00116044 0.000680568
0.00560814 -0.00116198 0.000670382
0.00539312 -2.84106e-06 0.00152587
0.00564749 -0.000991908 0.000699035
0.00605053 -9.06644e-05 0.00016288
0.0056454 -0.00117069 0.000679115
0.00545154 -0.00114689 0.000155114
0.0054251 -0.00115884 0.0001562
0.00586898 -6.51067e-05 0.000145616
0.00664411 -0.000348765 0.00175258
0.00581468 -2.32051e-05 -0.000105719
0.00571394 -0.00116689 0.000684807
0.00540563 3.37767e-05 0.00148604
0.00563622 -0.00119406 0.000666213
0.00575603 -0.00112159 0.000679784
0.00582075 0.000277365 -0.000721605
0.00555948 -0.00112973 0.00066618
0.00613438 -0.000102655 0.000170133
0.00543554 0.000171878 0.00118818
0.00605541 -0.000102717 0.000164288
0.00618224 6.26531e-05 0.00190185
0.00578215 6.69209e-05 0.00155691
0.00525491 4.55369e-05 0.0013734
0.00556231 -0.00108994 0.000413715
0.00579966 -5.81413e-05 0.000146969
0.00620389 -0.0001066 0.000172535
0.00566766 -0.00116084 0.00068014
0.00575946 -4.61332e-05 0.000134474
0.00541533 -0.00115635 0.000158537
0.00539305 -0.0013114 -5.86511e-05
0.00660459 -0.000263399 0.00180112
0.00547514 0.000553465 8.99268e-05
0.00571085 -0.00114075 0.000686604
0.00554621 0.000110431 0.00138085
0.00544397 -0.00112918 0.000142529
0.00570567 -0.00110611 0.000606049
0.0056034 -0.00114319 0.000671119
0.00543439 -0.00116617 0.000166708
0.00541786 -0.00114206 0.00015567
0.00567542 -3.45159e-05 0.000127979
0.0053578 3.10196e-05 0.00139318
0.00612845 0.000190385 -0.000715598
0.00581497 -5.41035e-05 0.000139496
0.00595966 -7.927e-05 0.000154112
0.00593799 0.000252105 -0.000723243

VECTORS force float
-4.25171e-12 6.14187e-11 -1.26849e-11
5.44726e-11 -1.41605e-10 3.71098e-11
-1.86233e-11 3.71742e-11 -2.55031e-11
-4.28814e-10 1.20179e-10 -1.37653e-10
6.85062e-12 2.60081e-11 -1.35341e-11
-2.56991e-11 1.06007e-10 3.85384e-11
-4.6553e-11 -1.38811e-10 7.36789e-11
1.58908e-11 1.38308e-10 -8.81955e-11
-3.33532e-10 -1.9426e-10 1.37713e-10
-1.13331e-10 7.341e-11 -8.40841e-12
2.967e-10 -2.09988e-10 3.20586e-11
-3.22223e-11 -3.42593e-11 -7.66908e-13
3.4941e-10 1.37815e-10 -4.5346e-10
-4.76308e-11 -3.96813e-11 1.52104e-11
-3.95919e-10 2.09023e-10 -4.0618e-11
4.82923e-11 1.54561e-11 -3.24968e-11
1.19687e-11 -1.06931e-10 8.03439e-11
-1.85422e-11 -7.85261e-14 -3.28908e-12
-8.0317e-11 7.93294e-11 -1.61437e-11
7.6236e-11 1.80205e-10 -6.84421e-11
4.95583e-11 5.84484e-11 -2.35501e-11
9.22851e-11 7.72858e-11 -4.65913e-11
5.25196e-11 -1.86285e-11 -2.0409e-10
5.73396e-11 1.2098e-10 -9.01123e-11
3.9769e-12 1.0247e-10 -4.85984e-11
1.65074e-11 -4.4423e-11 -8.26469e-11
-5.43177e-11 -8.06329e-11 9.37066e-11
-1.28965e-10 3.1263e-10 -1.57585e-10
6.28534e-12 -2.6328e-11 1.5105e-11
-1.00933e-10 1.06749e-10 -4.67563e-11
4.1802e-11 -5.59833e-11 4.35783e-11
2.6677e-09 -2.16758e-09 6.17569e-10
-1.94246e-11 8.1142e-12 5.52427e-12
-1.5174e-11 3.67938e-11 -4.00945e-11
1.62242e-11 8.29719e-11 -3.72786e-11
-3.37026e-12 -1.63588e-10 9.34614e-11
1.1198e-10 -1.02219e-10 3.20804e-11
4.21279e-11 -7.93916e-11 -2.45642e-12
1.20083e-11 -1.06893e-10 5.91031e-11
1.97638e-11 -7.97312e-11 5.6668e-11
-5.58667e-11 -7.6289e-11 5.11295e-11
2.27114e-11 1.47177e-11 -5.2666e-11
-1.47019e-10 2.91344e-10 -1.51715e-10
-1.73604e-10 4.42343e-12 -1.42537e-12
-7.02301e-11 -1.06149e-10 1.96465e-11
-1.12238e-10 -2.22216e-10 9.1141e-11
4.66437e-11 -3.98424e-11 -2.19138e-10
5.24886e-10 -1.86243e-10 7.26026e-11
-3.8472e-11 3.92663e-11 -2.39445e-11
-1.00269e-10 -2.58342e-10 1.34184e-10
2.68834e-24 -2.63664e-24 -2.06795e-25
1.51635e-10 4.9056e-11 -5.02424e-11
2.72081e-11 -1.06255e-10 1.42061e-11
4.49157e-11 3.30323e-11 3.76012e-11
-9.07742e-11 6.62895e-11 -1.19724e-11
1.95946e-11 6.43905e-11 -4.20358e-11
-1.58581e-11 1.08876e-11 7.2879e-11
-2.06026e-11 -1.23971e-11 -2.16631e-12
-7.04609e-11 5.11206e-11 -4.02591e-11
-9.52517e-12 -7.36228e-11 1.585e-11
-3.37987e-10 1.71253e-10 6.75341e-11
-3.04509e-11 1.25201e-10 -4.58776e-11
5.18129e-11 -1.45495e-10 1.30885e-11
1.42258e-12 -3.06915e-10 1.10866e-10
8.8758e-11 -8.30068e-11 -1.65144e-12
-1.59802e-11 1.06643e-11 -1.58184e-10
-2.21619e-11 1.63571e-10 -5.60218e-11
1.34557e-10 -4.01596e-11 1.29963e-12
1.71118e-10 2.65947e-10 -4.04136e-10
-1.96871e-11 -8.76165e-11 1.20647e-12
-1.10267e-11 4.05724e-11 -4.04341e-11
-1.18769e-10 -1.24901e-10 2.71652e-11
-8.41679e-10 1.33147e-10 -2.96169e-11
6.1287e-12 -1.15933e-12 8.88422e-11
7.3416e-13 -1.76471e-11 -1.42213e-12
-9.66967e-11 1.40364e-10 -5.88307e-11
9.32809e-11 -2.08389e-11 -2.25799e-11
7.31015e-11 -1.16407e-10 -5.46472e-12
-5.53891e-11 -9.03859e-12 6.46722e-12
4.08488e-11 4.5531e-11 -2.24928e-11
8.43223e-11 -4.93948e-10 -2.53556e-10
7.62539e-11 2.6073e-11 4.37683e-12
3.47279e-10 -3.57893e-10 -1.21158e-10
-7.48607e-11 -9.2278e-13 5.50051e-11
8.96668e-11 -3.30804e-11 -3.73091e-12
-7.57919e-11 -1.23445e-10 7.12997e-11
-5.60981e-12 -3.65867e-10 5.55586e-10
2.24036e-10 2.46785e-10 -1.86254e-10
3.432e-11 8.65846e-11 -3.55063e-11
-6.03387e-12 -4.97745e-11 -3.89885e-12
-5.25612e-12 -2.37459e-10 2.93453e-11
7.68748e-22 -4.55518e-22 2.10931e-23
0.0 0.0 0.0
-1.10727e-11 -6.31354e-11 6.22639e-12
-6.02209e-11 -1.39489e-10 3.98495e-10
3.24155e-11 4.5493e-11 7.89948e-12
-1.77005e-11 7.90489e-12 -6.6448e-11
-3.62946e-11 2.64641e-11 -5.943e-11
3.5688e-10 -2.50615e-10 2.04878e-10
3.82885e-12 4.4456e-11 -6.44904e-13
-9.60976e-11 4.22765e-11 -5.20289e-12
6.08797e-10 2.53856e-11 1.97589e-10