# vtk DataFile Version 3.0
LIGGGHTS particles timestep 21000000
ASCII
DATASET POLYDATA
POINTS 287 float
0.135237 0.0162201 0.00788133
0.135716 0.0186636 0.00694051
0.129359 0.0169051 0.00756303
0.135587 0.017664 0.00732677
0.135108 0.0160525 0.0080372
0.141204 0.0164456 0.00777982
0.135293 0.0167983 0.00759703
0.13501 0.015703 0.00837972
0.141473 0.0175578 0.0073069
0.135228 0.0165227 0.00769554
0.13584 0.0179862 0.00715532
0.129182 0.0164075 0.00795089
0.135088 0.0159824 0.00810584
0.128937 0.0155314 0.00873333
0.135454 0.0171011 0.00748264
0.128917 0.0154583 0.00879853
0.135207 0.0164324 0.00773305
0.141345 0.0169827 0.00742011
0.135069 0.0159124 0.00817447
0.135224 0.0161497 0.00795109
0.135336 0.0169826 0.00753209
0.129317 0.0165614 0.0077829
0.141409 0.0172702 0.0073635
0.135271 0.0167064 0.00762951
0.141281 0.0166951 0.00747671
0.129478 0.0171679 0.00737821
0.135566 0.0175674 0.00734172
0.135049 0.0158424 0.0082431
0.135521 0.0173783 0.00738472
0.135314 0.0168905 0.00756456
0.135432 0.0170091 0.00751512
0.141223 0.0165079 0.007704
0.135186 0.0163493 0.00778466
0.13541 0.016917 0.00754759
0.141516 0.0177495 0.00726916
0.135367 0.0167325 0.00761265
0.135595 0.0173132 0.00740007
0.14143 0.0173661 0.00734463
0.135147 0.0162092 0.00792253
0.135358 0.0170746 0.00749962
0.135621 0.0174042 0.00736759
0.141242 0.0165703 0.00762818
0.141324 0.0168868 0.00743898
0.135167 0.0162883 0.0078615
0.135401 0.0172587 0.00743468
0.141302 0.0167909 0.00745784
0.135464 0.0175245 0.00734093
0.135446 0.0174439 0.00739749
0.129161 0.0163353 0.00801694
0.141366 0.0170785 0.00740124
0.135202 0.0160798 0.00801927
0.128976 0.0156777 0.00860278
0.135388 0.016825 0.00758007
0.141262 0.0166326 0.00755248
0.135505 0.0169431 0.00753083
0.135527 0.0170351 0.00749836
0.135127 0.0161225 0.00796857
0.13564 0.0175003 0.00733401
0.135652 0.0178001 0.00731861
0.141388 0.0171744 0.00738237
0.129499 0.0174106 0.00733065
0.129599 0.0173476 0.00731959
0.135726 0.0178599 0.00720706
0.135683 0.0176895 0.00729801
0.135301 0.0164561 0.00771021
0.141452 0.0174619 0.00732577
0.128956 0.0156045 0.00866808
0.135654 0.0175939 0.00730167
0.135249 0.0166143 0.00766197
0.135476 0.0171938 0.00745042
0.129456 0.0170592 0.00730736
0.135689 0.0182063 0.00709497
0.129016 0.0158239 0.0084724
0.129549 0.0172356 0.00735628
0.135507 0.0177086 0.00727599
0.129339 0.0169773 0.00749683
0.129243 0.0166136 0.00774176
0.129352 0.0163745 0.00796591
0.141494 0.0176536 0.00728803
0.129132 0.0159247 0.00839103
0.135547 0.0174701 0.00735459
0.135484 0.016851 0.0075633
0.135575 0.0178632 0.0073065
0.13553 0.0177807 0.00734149
0.135847 0.0181024 0.00711605
0.129202 0.0164779 0.00788293
0.135748 0.017952 0.00717457
0.135572 0.0179847 0.00717862
0.13583 0.0183505 0.00703497
0.135674 0.0178921 0.00728613
0.135765 0.0180506 0.00714031
0.12912 0.0161892 0.00814708
0.135551 0.0178939 0.00721451
0.12964 0.0174343 0.00729184
0.135732 0.0175334 0.00731512
0.129488 0.0170711 0.00740147
0.0643568 0.0187248 0.00531097
0.24257 0.0191927 0.00520306
0.129475 0.0167862 0.00754537
0.129078 0.0160431 0.00827721
0.129575 0.0168091 0.0075138
0.129037 0.015897 0.00840734
0.135345 0.0166405 0.00764514
0.135425 0.0173558 0.00743952
0.135698 0.0185708 0.00697295
0.13566 0.0183841 0.0070417
0.129141 0.0162622 0.00808203
0.12976 0.0176071 0.00715496
0.129891 0.0173851 0.007237
0.135495 0.0172872 0.00741719
0.135323 0.0165484 0.00767765
0.135183 0.0160098 0.0080879
0.129302 0.0168506 0.00762388
0.13555 0.0171282 0.00746546
0.13503 0.0157796 0.00831855
0.134991 0.0156329 0.00844838
0.135754 0.0184131 0.00702065
0.129174 0.0160708 0.00826089
0.135529 0.0178007 0.00724352
0.135163 0.0159398 0.00815654
0.13538 0.0171667 0.00746742
0.129099 0.0161161 0.00821214
0.135486 0.0176166 0.00730846
0.135637 0.0180048 0.00725214
0.129338 0.0166299 0.00771294
0.129632 0.0175318 0.00731275
0.135603 0.0177356 0.00725884
0.135396 0.0164821 0.00769348
0.13557 0.017222 0.00743254
0.135143 0.0158697 0.00822517
0.129111 0.0158517 0.0084561
0.135649 0.0182669 0.00716782
0.135282 0.0163733 0.00776277
0.135846 0.0184459 0.00700186
0.129153 0.0159978 0.00832598
0.129434 0.0166492 0.00768532
0.129058 0.01597 0.00834227
0.129579 0.0171825 0.00727744
0.129474 0.0164666 0.00786358
0.129091 0.0157785 0.00852132
0.129303 0.016817 0.00752971
0.135613 0.0181746 0.00715276
0.129257 0.0163573 0.00799425
0.129761 0.0172586 0.00726738
0.129215 0.016217 0.0081307
0.129398 0.0168354 0.00750305
0.129482 0.0171517 0.00727961
0.129378 0.0167669 0.00757301
0.0219312 0.0187687 0.00551176
0.1295 0.0168588 0.00747091
0.135625 0.0178277 0.00722637
0.129388 0.0171321 0.00730642
0.129422 0.016907 0.00743119
0.129569 0.0175398 0.00723513
0.129671 0.017244 0.00730964
0.135356 0.0163158 0.00779701
0.129236 0.0162879 0.00806326
0.129595 0.0168806 0.00744661
0.129742 0.0175105 0.00718463
0.129633 0.0170371 0.00732859
0.135374 0.0163898 0.00772604
0.129825 0.0174548 0.00720924
0.135783 0.018235 0.00707743
0.129534 0.0170006 0.0073324
0.123402 0.0171701 0.00724737
0.129358 0.0166988 0.00764333
0.129428 0.0173121 0.00726211
0.129775 0.0177015 0.00712575
0.129733 0.0174222 0.00723064
0.129344 0.0169579 0.00739394
0.135261 0.0162897 0.00781358
0.129615 0.0169553 0.00738335
0.135771 0.018161 0.00714368
0.129283 0.0167488 0.00759996
0.129324 0.0168856 0.00745987
0.135714 0.0174352 0.00734936
0.135686 0.0181107 0.00712699
0.135757 0.0176246 0.00728265
0.123576 0.017567 0.00710669
0.13564 0.0182906 0.00707105
0.129535 0.0166721 0.00765371
0.135462 0.016759 0.00759578
0.129372 0.016443 0.00789594
0.129838 0.0175495 0.00717975
0.128896 0.0153851 0.00886373
0.123461 0.0174418 0.00713998
0.129383 0.0170502 0.00744489
0.129439 0.0169759 0.00735979
0.129223 0.0165469 0.00781343
0.129695 0.0177577 0.00714425
0.129555 0.0167407 0.00758374
0.135704 0.0177679 0.00723953
0.129297 0.0164929 0.00785287
0.129522 0.0173468 0.00725551
0.129554 0.0170983 0.00732491
0.129194 0.0161439 0.00819583
0.129517 0.0169287 0.00739987
0.129277 0.0164255 0.00792393
0.135503 0.01769 0.00737413
0.135673 0.0180165 0.00715947
0.129647 0.0171359 0.00733529
0.135692 0.0173357 0.00738436
0.135647 0.0179197 0.0071939
0.123535 0.0173764 0.00715168
0.129409 0.0172143 0.00725354
0.135418 0.0165744 0.00766091
0.12967 0.0176452 0.00726177
0.135594 0.0180767 0.00714614
0.129366 0.0170433 0.00734669
0.123476 0.0171131 0.00728315
0.13544 0.0166664 0.0076284
0.129454 0.0167177 0.00761534
0.129263 0.0166806 0.0076703
0.135679 0.0184781 0.00700538
0.129798 0.0173476 0.00724171
0.123596 0.0176623 0.00708425
0.123421 0.017255 0.00719772
0.129486 0.0173125 0.0073439
0.129645 0.0179232 0.00717063
0.123381 0.0170963 0.00731161
0.129332 0.016306 0.00803587
0.129413 0.01658 0.00775602
0.135736 0.0183199 0.00705314
0.12961 0.0181836 0.00721104
0.12976 0.0180497 0.00716406
0.129684 0.0181199 0.00718821
0.123188 0.0163296 0.00773823
0.123251 0.0165828 0.00759032
0.123169 0.016245 0.00778794
0.129393 0.0165115 0.00782598
0.129382 0.0171466 0.00740518
0.123208 0.0164142 0.00768878
0.123338 0.01692 0.00739341
0.129547 0.0174432 0.00724926
0.12966 0.0175653 0.00720049
0.123481 0.0175371 0.00711754
0.129505 0.0172485 0.00726586
0.135784 0.018522 0.00698181
0.123522 0.0177277 0.00707268
0.123515 0.0172837 0.00718339
0.123316 0.0168357 0.00744264
0.128996 0.0157509 0.00853752
0.129599 0.0172773 0.00724847
0.129478 0.0175257 0.00715871
0.129591 0.017704 0.00727801
0.123542 0.0178234 0.00705167
0.129726 0.0175142 0.00728329
0.129666 0.0180212 0.00717912
0.129739 0.0179523 0.00715567
0.123294 0.0167514 0.00749186
0.12951 0.0176969 0.00721855
0.12344 0.0173465 0.00716242
0.129733 0.0171666 0.00729482
0.129607 0.017729 0.00718258
0.129411 0.0172457 0.00734847
0.129468 0.0175032 0.00725556
0.135924 0.0183153 0.00703873
0.129695 0.0173333 0.00725635
0.123583 0.0180154 0.00701342
0.129552 0.0178901 0.00718995
0.123563 0.0179194 0.00703255
0.129587 0.0176339 0.00720654
0.129449 0.0173882 0.00720067
0.129572 0.017988 0.00719339
0.129623 0.017469 0.00718849
0.123359 0.0170043 0.00734418
0.123556 0.0174717 0.00712912
0.129727 0.0170714 0.00732501
0.123497 0.017199 0.00723297
0.12323 0.0164985 0.00763955
0.129628 0.018016 0.00727154
0.129624 0.0178255 0.00716235
0.129532 0.0177926 0.00719906
0.129674 0.0176574 0.0071626
0.1296 0.0178352 0.00725894
0.129494 0.0165351 0.00779361
0.129514 0.0166036 0.00772366
0.129718 0.0178549 0.00714732
0.129311 0.0162375 0.00810581
0.129611 0.0173725 0.00721871
0.129629 0.0182813 0.00721986
0.123617 0.0177578 0.00706264
0.129591 0.0180858 0.00720221
0.135666 0.0172446 0.00741683
0.123273 0.0166671 0.00754109
0.123501 0.0176324 0.0070951
0.135875 0.0181957 0.00708268

VERTICES 287 574
1 0
1 1
1 2
1 3
1 4
1 5
1 6
1 7
1 8
1 9
1 10
1 11
1 12
1 13
1 14
1 15
1 16
1 17
1 18
1 19
1 20
1 21
1 22
1 23
1 24
1 25
1 26
1 27
1 28
1 29
1 30
1 31
1 32
1 33
1 34
1 35
1 36
1 37
1 38
1 39
1 40
1 41
1 42
1 43
1 44
1 45
1 46
1 47
1 48
1 49
1 50
1 51
1 52
1 53
1 54
1 55
1 56
1 57
1 58
1 59
1 60
1 61
1 62
1 63
1 64
1 65
1 66
1 67
1 68
1 69
1 70
1 71
1 72
1 73
1 74
1 75
1 76
1 77
1 78
1 79
1 80
1 81
1 82
1 83
1 84
1 85
1 86
1 87
1 88
1 89
1 90
1 91
1 92
1 93
1 94
1 95
1 96
1 97
1 98
1 99
1 100
1 101
1 102
1 103
1 104
1 105
1 106
1 107
1 108
1 109
1 110
1 111
1 112
1 113
1 114
1 115
1 116
1 117
1 118
1 119
1 120
1 121
1 122
1 123
1 124
1 125
1 126
1 127
1 128
1 129
1 130
1 131
1 132
1 133
1 134
1 135
1 136
1 137
1 138
1 139
1 140
1 141
1 142
1 143
1 144
1 145
1 146
1 147
1 148
1 149
1 150
1 151
1 152
1 153
1 154
1 155
1 156
1 157
1 158
1 159
1 160
1 161
1 162
1 163
1 164
1 165
1 166
1 167
1 168
1 169
1 170
1 171
1 172
1 173
1 174
1 175
1 176
1 177
1 178
1 179
1 180
1 181
1 182
1 183
1 184
1 185
1 186
1 187
1 188
1 189
1 190
1 191
1 192
1 193
1 194
1 195
1 196
1 197
1 198
1 199
1 200
1 201
1 202
1 203
1 204
1 205
1 206
1 207
1 208
1 209
1 210
1 211
1 212
1 213
1 214
1 215
1 216
1 217
1 218
1 219
1 220
1 221
1 222
1 223
1 224
1 225
1 226
1 227
1 228
1 229
1 230
1 231
1 232
1 233
1 234
1 235
1 236
1 237
1 238
1 239
1 240
1 241
1 242
1 243
1 244
1 245
1 246
1 247
1 248
1 249
1 250
1 251
1 252
1 253
1 254
1 255
1 256
1 257
1 258
1 259
1 260
1 261
1 262
1 263
1 264
1 265
1 266
1 267
1 268
1 269
1 270
1 271
1 272
1 273
1 274
1 275
1 276
1 277
1 278
1 279
1 280
1 281
1 282
1 283
1 284
1 285
1 286

POINT_DATA 287
SCALARS id int 1
LOOKUP_TABLE default
1
2
3
4
5
6
7
8
9
10
11
12
13
14
15
16
17
18
19
21
22
23
24
25
26
27
28
29
30
31
32
33
34
35
36
37
38
39
41
42
44
45
46
47
48
49
50
51
52
53
54
55
56
57
59
60
61
62
63
64
65
66
67
68
69
70
71
72
73
74
76
77
78
79
80
81
82
83
84
85
86
87
88
89
90
91
92
93
94
95
96
97
98
99
100
101
102
103
104
105
106
107
108
109
110
111
112
113
114
115
116
117
118
119
120
121
122
123
124
125
126
127
128
129
130
131
132
133
134
135
136
137
138
140
141
142
143
144
146
147
148
149
150
151
153
154
155
156
157
158
159
160
162
164
165
166
167
168
169
170
171
172
173
174
175
176
177
178
179
181
182
183
184
185
186
187
188
189
190
191
192
193
194
195
196
197
198
199
200
201
202
203
204
205
206
207
208
209
210
211
212
213
214
215
216
217
218
219
220
221
222
223
224
225
226
227
228
229
230
231
232
233
234
235
236
237
239
240
241
242
243
244
246
247
248
249
250
251
252
253
254
255
256
257
258
259
260
261
262
263
264
265
266
267
268
269
270
271
272
273
274
275
276
277
278
279
280
281
282
283
284
285
286
287
288
289
290
291
292
293
294
295
296
297
298
299
300

SCALARS type int 1
LOOKUP_TABLE default
1
1
1
1
1
1
1
1
1
1
1
1
1
1
1
1
1
1
1
1
1
1
1
1
1
1
1
1
1
1
1
1
1
1
1
1
1
1
1
1
1
1
1
1
1
1
1
1
1
1
1
1
1
1
1
1
1
1
1
1
1
1
1
1
1
1
1
1
1
1
1
1
1
1
1
1
1
1
1
1
1
1
1
1
1
1
1
1
1
1
1
1
1
1
1
1
1
1
1
1
1
1
1
1
1
1
1
1
1
1
1
1
1
1
1
1
1
1
1
1
1
1
1
1
1
1
1
1
1
1
1
1
1
1
1
1
1
1
1
1
1
1
1
1
1
1
1
1
1
1
1
1
1
1
1
1
1
1
1
1
1
1
1
1
1
1
1
1
1
1
1
1
1
1
1
1
1
1
1
1
1
1
1
1
1
1
1
1
1
1
1
1
1
1
1
1
1
1
1
1
1
1
1
1
1
1
1
1
1
1
1
1
1
1
1
1
1
1
1
1
1
1
1
1
1
1
1
1
1
1
1
1
1
1
1
1
1
1
1
1
1
1
1
1
1
1
1
1
1
1
1
1
1
1
1
1
1
1
1
1
1
1
1
1
1
1
1
1
1
1
1
1
1
1
1
1
1
1
1
1
1
1
1
1
1
1
1

SCALARS radius float 1
LOOKUP_TABLE default
5e-05
5e-05
5e-05
5e-05
5e-05
5e-05
5e-05
5e-05
5e-05
5e-05
5e-05
5e-05
5e-05
5e-05
5e-05
5e-05
5e-05
5e-05
5e-05
5e-05
5e-05
5e-05
5e-05
5e-05
5e-05
5e-05
5e-05
5e-05
5e-05
5e-05
5e-05
5e-05
5e-05
5e-05
5e-05
5e-05
5e-05
5e-05
5e-05
5e-05
5e-05
5e-05
5e-05
5e-05
5e-05
5e-05
5e-05
5e-05
5e-05
5e-05
5e-05
5e-05
5e-05
5e-05
5e-05
5e-05
5e-05
5e-05
5e-05
5e-05
5e-05
5e-05
5e-05
5e-05
5e-05
5e-05
5e-05
5e-05
5e-05
5e-05
5e-05
5e-05
5e-05
5e-05
5e-05
5e-05
5e-05
5e-05
5e-05
5e-05
5e-05
5e-05
5e-05
5e-05
5e-05
5e-05
5e-05
5e-05
5e-05
5e-05
5e-05
5e-05
5e-05
5e-05
5e-05
5e-05
5e-05
5e-05
5e-05
5e-05
5e-05
5e-05
5e-05
5e-05
5e-05
5e-05
5e-05
5e-05
5e-05
5e-05
5e-05
5e-05
5e-05
5e-05
5e-05
5e-05
5e-05
5e-05
5e-05
5e-05
5e-05
5e-05
5e-05
5e-05
5e-05
5e-05
5e-05
5e-05
5e-05
5e-05
5e-05
5e-05
5e-05
5e-05
5e-05
5e-05
5e-05
5e-05
5e-05
5e-05
5e-05
5e-05
5e-05
5e-05
5e-05
5e-05
5e-05
5e-05
5e-05
5e-05
5e-05
5e-05
5e-05
5e-05
5e-05
5e-05
5e-05
5e-05
5e-05
5e-05
5e-05
5e-05
5e-05
5e-05
5e-05
5e-05
5e-05
5e-05
5e-05
5e-05
5e-05
5e-05
5e-05
5e-05
5e-05
5e-05
5e-05
5e-05
5e-05
5e-05
5e-05
5e-05
5e-05
5e-05
5e-05
5e-05
5e-05
5e-05
5e-05
5e-05
5e-05
5e-05
5e-05
5e-05
5e-05
5e-05
5e-05
5e-05
5e-05
5e-05
5e-05
5e-05
5e-05
5e-05
5e-05
5e-05
5e-05
5e-05
5e-05
5e-05
5e-05
5e-05
5e-05
5e-05
5e-05
5e-05
5e-05
5e-05
5e-05
5e-05
5e-05
5e-05
5e-05
5e-05
5e-05
5e-05
5e-05
5e-05
5e-05
5e-05
5e-05
5e-05
5e-05
5e-05
5e-05
5e-05
5e-05
5e-05
5e-05
5e-05
5e-05
5e-05
5e-05
5e-05
5e-05
5e-05
5e-05
5e-05
5e-05
5e-05
5e-05
5e-05
5e-05
5e-05
5e-05
5e-05
5e-05
5e-05
5e-05
5e-05
5e-05
5e-05
5e-05
5e-05
5e-05
5e-05
5e-05
5e-05
5e-05
5e-05
5e-05
5e-05
5e-05
5e-05
5e-05
5e-05
5e-05
5e-05
5e-05
5e-05
5e-05
5e-05
5e-05
5e-05
5e-05
5e-05
5e-05

SCALARS mass float 1
LOOKUP_TABLE default
1.46608e-10
1.46608e-10
1.46608e-10
1.46608e-10
1.46608e-10
1.46608e-10
1.46608e-10
1.46608e-10
1.46608e-10
1.46608e-10
1.46608e-10
1.46608e-10
1.46608e-10
1.46608e-10
1.46608e-10
1.46608e-10
1.46608e-10
1.46608e-10
1.46608e-10
1.46608e-10
1.46608e-10
1.46608e-10
1.46608e-10
1.46608e-10
1.46608e-10
1.46608e-10
1.46608e-10
1.46608e-10
1.46608e-10
1.46608e-10
1.46608e-10
1.46608e-10
1.46608e-10
1.46608e-10
1.46608e-10
1.46608e-10
1.46608e-10
1.46608e-10
1.46608e-10
1.46608e-10
1.46608e-10
1.46608e-10
1.46608e-10
1.46608e-10
1.46608e-10
1.46608e-10
1.46608e-10
1.46608e-10
1.46608e-10
1.46608e-10
1.46608e-10
1.46608e-10
1.46608e-10
1.46608e-10
1.46608e-10
1.46608e-10
1.46608e-10
1.46608e-10
1.46608e-10
1.46608e-10
1.46608e-10
1.46608e-10
1.46608e-10
1.46608e-10
1.46608e-10
1.46608e-10
1.46608e-10
1.46608e-10
1.46608e-10
1.46608e-10
1.46608e-10
1.46608e-10
1.46608e-10
1.46608e-10
1.46608e-10
1.46608e-10
1.46608e-10
1.46608e-10
1.46608e-10
1.46608e-10
1.46608e-10
1.46608e-10
1.46608e-10
1.46608e-10
1.46608e-10
1.46608e-10
1.46608e-10
1.46608e-10
1.46608e-10
1.46608e-10
1.46608e-10
1.46608e-10
1.46608e-10
1.46608e-10
1.46608e-10
1.46608e-10
1.46608e-10
1.46608e-10
1.46608e-10
1.46608e-10
1.46608e-10
1.46608e-10
1.46608e-10
1.46608e-10
1.46608e-10
1.46608e-10
1.46608e-10
1.46608e-10
1.46608e-10
1.46608e-10
1.46608e-10
1.46608e-10
1.46608e-10
1.46608e-10
1.46608e-10
1.46608e-10
1.46608e-10
1.46608e-10
1.46608e-10
1.46608e-10
1.46608e-10
1.46608e-10
1.46608e-10
1.46608e-10
1.46608e-10
1.46608e-10
1.46608e-10
1.46608e-10
1.46608e-10
1.46608e-10
1.46608e-10
1.46608e-10
1.46608e-10
1.46608e-10
1.46608e-10
1.46608e-10
1.46608e-10
1.46608e-10
1.46608e-10
1.46608e-10
1.46608e-10
1.46608e-10
1.46608e-10
1.46608e-10
1.46608e-10
1.46608e-10
1.46608e-10
1.46608e-10
1.46608e-10
1.46608e-10
1.46608e-10
1.46608e-10
1.46608e-10
1.46608e-10
1.46608e-10
1.46608e-10
1.46608e-10
1.46608e-10
1.46608e-10
1.46608e-10
1.46608e-10
1.46608e-10
1.46608e-10
1.46608e-10
1.46608e-10
1.46608e-10
1.46608e-10
1.46608e-10
1.46608e-10
1.46608e-10
1.46608e-10
1.46608e-10
1.46608e-10
1.46608e-10
1.46608e-10
1.46608e-10
1.46608e-10
1.46608e-10
1.46608e-10
1.46608e-10
1.46608e-10
1.46608e-10
1.46608e-10
1.46608e-10
1.46608e-10
1.46608e-10
1.46608e-10
1.46608e-10
1.46608e-10
1.46608e-10
1.46608e-10
1.46608e-10
1.46608e-10
1.46608e-10
1.46608e-10
1.46608e-10
1.46608e-10
1.46608e-10
1.46608e-10
1.46608e-10
1.46608e-10
1.46608e-10
1.46608e-10
1.46608e-10
1.46608e-10
1.46608e-10
1.46608e-10
1.46608e-10
1.46608e-10
1.46608e-10
1.46608e-10
1.46608e-10
1.46608e-10
1.46608e-10
1.46608e-10
1.46608e-10
1.46608e-10
1.46608e-10
1.46608e-10
1.46608e-10
1.46608e-10
1.46608e-10
1.46608e-10
1.46608e-10
1.46608e-10
1.46608e-10
1.46608e-10
1.46608e-10
1.46608e-10
1.46608e-10
1.46608e-10
1.46608e-10
1.46608e-10
1.46608e-10
1.46608e-10
1.46608e-10
1.46608e-10
1.46608e-10
1.46608e-10
1.46608e-10
1.46608e-10
1.46608e-10
1.46608e-10
1.46608e-10
1.46608e-10
1.46608e-10
1.46608e-10
1.46608e-10
1.46608e-10
1.46608e-10
1.46608e-10
1.46608e-10
1.46608e-10
1.46608e-10
1.46608e-10
1.46608e-10
1.46608e-10
1.46608e-10
1.46608e-10
1.46608e-10
1.46608e-10
1.46608e-10
1.46608e-10
1.46608e-10
1.46608e-10
1.46608e-10
1.46608e-10
1.46608e-10
1.46608e-10
1.46608e-10
1.46608e-10
1.46608e-10
1.46608e-10
1.46608e-10
1.46608e-10
1.46608e-10
1.46608e-10
1.46608e-10
1.46608e-10
1.46608e-10
1.46608e-10
1.46608e-10
1.46608e-10
1.46608e-10
1.46608e-10
1.46608e-10
1.46608e-10

VECTORS velocity float
0.0058608 0.00110792 -0.000515946
0.00564471 0.000829951 -0.000756861
0.00612068 -0.000384394 -0.000282172
0.00623003 0.000829063 -0.000805752
0.00584397 0.00110894 -0.000520733
0.00572787 -0.00109497 0.000660626
0.00630963 0.000803125 -0.000802139
0.00576656 0.00111585 -0.000535625
0.00584846 -0.000741353 0.000469443
0.00631511 0.000786493 -0.000833821
0.00619155 0.000950297 -0.000842769
0.00591432 0.000326887 -0.000349072
0.0058318 0.001107 -0.000520627
0.00567053 0.00082424 -0.000211222
0.0062839 0.000816491 -0.000806383
0.00567016 0.000822051 -0.000209146
0.00607249 6.74585e-05 -0.00268452
0.00598698 -0.000842164 0.000495891
0.00582387 0.00110593 -0.000520068
0.00586045 0.00110738 -0.000513052
0.00629556 0.000806201 -0.000804181
0.00609031 7.08054e-05 -0.000596746
0.0059126 -0.000796576 0.000484607
0.00632005 0.000801526 -0.000795562
0.0058023 -0.000677769 0.000398604
0.0062418 0.000583649 0.000301478
0.00623808 0.0008277 -0.000804877
0.00581455 0.00110677 -0.000521697
0.006239 0.000833188 -0.000808633
0.00630257 0.000804245 -0.000804259
0.00629343 0.000814448 -0.000806468
0.00555062 -0.000797603 0.000334969
0.00595629 0.000201833 -0.00251481
0.00630232 0.000812522 -0.00080662
0.00580557 -0.000708044 0.000460253
0.00631561 0.000809111 -0.000806198
0.00624417 0.000846725 -0.000813325
0.00589139 -0.000780684 0.000479996
0.00583163 0.00107771 -0.000584875
0.00628706 0.000808045 -0.000803634
0.00624367 0.000831789 -0.000807963
0.00586761 -0.000711832 0.000225115
0.00613874 -0.000787241 0.000476181
0.00596283 0.000759259 -0.0020707
0.00626795 0.00081127 -0.000803084
0.00606318 -0.000752078 0.000480875
0.00624415 0.000818986 -0.000803485
0.00624007 0.000821199 -0.000806633
0.00594499 0.000635135 -1.74331e-05
0.00595247 -0.000815957 0.000491741
0.0058542 0.00110199 -0.000513409
0.00553785 0.000839683 -0.000237855
0.00630796 0.000810105 -0.000806475
0.00611571 -0.000865083 0.0002229
0.00629977 0.000820577 -0.000809057
0.00629042 0.000822798 -0.000809025
0.00585114 0.00110854 -0.000519238
0.00623963 0.000833189 -0.000807878
0.00621928 0.000829693 -0.000806046
0.0059349 -0.000803007 0.000487072
0.00596066 0.000585196 0.000102661
0.00683524 0.00116232 -0.00037769
0.00621612 0.000833882 -0.000806077
0.00622553 0.000832846 -0.000807423
0.00633132 0.000811154 -0.000815898
0.00586941 -0.000761777 0.000475081
0.00546876 0.000845757 -0.000249937
0.00623385 0.000834192 -0.000807777
0.00632434 0.000796105 -0.000803424
0.00626952 0.000817484 -0.000804642
0.00648536 0.00060538 0.000367192
0.00605901 0.000937204 -0.000828915
0.00571976 0.000829173 -0.000211528
0.00639822 0.000666203 0.000437239
0.00623122 0.000822655 -0.000803875
0.00618577 -8.83781e-05 -9.30396e-06
0.00608116 3.34945e-05 -0.000579909
0.00590389 9.54256e-05 -0.000615853
0.0058295 -0.000722812 0.000464586
0.00578075 0.000790864 -0.000171071
0.00624215 0.000824819 -0.000804655
0.00630837 0.000818309 -0.000809057
0.00621962 0.000827743 -0.000805012
0.00623285 0.000822005 -0.000803884
0.00617455 0.0010103 -0.000859835
0.00596093 0.0001612 -0.00048157
0.00620265 0.000845457 -0.000809575
0.00621124 0.000827729 -0.000804628
0.00597194 0.00112263 -0.000881474
0.00621445 0.000831179 -0.0008052
0.00618482 0.000948942 -0.000841991
0.00588731 0.000714157 -9.21286e-05
0.00621636 0.00082609 -0.000803938
0.00704486 0.00105527 -0.000464591
0.00623579 0.000838786 -0.000809697
0.00651455 0.000568449 0.000381909
4.289e-15 1.04975e-14 8.2959e-14
3.39597e-22 4.86658e-23 1.53437e-21
0.00624642 -0.000156305 -0.000409816
0.00584517 0.000782452 -0.000155926
0.0062576 -0.000213573 -0.00038521
0.00576308 0.000824219 -0.000200945
0.00632544 0.000804567 -0.000805719
0.00625793 0.000815478 -0.00080692
0.00575702 0.000799653 -0.000756385
0.00594119 0.000867861 -0.000787405
0.00592499 0.000665537 -4.49661e-05
0.00616051 0.000158509 0.00044192
0.00628863 0.000313998 0.000401704
0.00625855 0.000829941 -0.000808797
0.00632639 0.000801743 -0.000805577
0.00583825 0.00110074 -0.000513501
0.00592909 -0.000337684 -0.000409802
0.00626718 0.000815912 -0.000804683
0.00581003 0.00110781 -0.000525098
0.00576023 0.00111868 -0.00053967
0.00588303 0.00101325 -0.000832749
0.00590456 0.000763301 -0.000130692
0.00622384 0.000823828 -0.000803633
0.00583102 0.00109744 -0.000510709
0.00627771 0.000809894 -0.000802765
0.0058761 0.000759451 -0.000128228
0.00623932 0.000820544 -0.000803399
0.00622946 0.00081041 -0.00080925
0.00611875 2.19566e-05 -0.000558714
0.00629914 0.000845356 0.000256518
0.00622481 0.000829052 -0.000805767
0.00633707 0.000817976 -0.000809514
0.00626417 0.000825101 -0.00080757
0.00581727 0.00109674 -0.000511669
0.00572163 0.000802483 -0.000186734
0.00601491 0.000878091 -0.000799946
0.00611881 0.000955594 -0.00066481
0.00592092 0.00100863 -0.000839033
0.00582598 0.000776602 -0.0001536
0.00600391 -0.000113077 -0.000406114
0.00580455 0.000807482 -0.00018312
0.00616425 0.000509365 0.000377962
0.00586028 -0.000131704 -0.000382236
0.00569798 0.000819394 -0.000203359
0.0062172 -1.16642e-05 -0.000501125
0.00614299 0.000830375 -0.000789939
0.00585972 0.000116106 -0.000726042
0.00628874 0.000340299 0.000402881
0.00599125 0.000719022 -9.0118e-05
0.00625852 -5.96995e-05 -0.000416719
0.00638348 0.000519466 0.000341044
0.00615092 -8.01673e-05 -0.000469403
-3.83213e-14 8.16666e-14 2.95889e-13
0.00837645 0.00169523 -0.00238947
0.0062191 0.000830004 -0.000805596
0.00640544 0.000565964 0.000378083
0.00697199 0.000481395 -0.00114115
0.00630393 0.000502379 0.000214501
0.00609126 0.000291844 0.0002433
0.00595375 0.000941592 -0.000336089
0.0058853 4.97542e-05 -0.000834171
0.00618198 4.79263e-05 -0.000139192
0.00630831 0.000351592 0.000397053
0.00635039 0.000440173 0.000376418
0.00632726 0.000807969 -0.000807122
0.00629759 0.000328932 0.000403869
0.0060783 0.000957556 -0.000836614
0.0062846 0.000396018 0.000382209
0.00635364 0.000205607 5.49262e-05
0.00606846 -6.73977e-05 -0.000475353
0.00633091 0.000528311 0.000260426
0.0064027 0.000139527 0.00046556
0.00626672 0.000360318 0.000393236
0.0063313 0.000431997 1.2949e-05
0.00588366 0.00110024 -0.000514558
0.00628725 0.000375204 0.000264841
0.00615264 0.000963097 -0.000839943
0.00614121 -4.36881e-05 -0.000562333
0.0062847 0.000168724 -0.000286044
0.00625239 0.00084858 -0.000814383
0.0061674 0.000938019 -0.00083627
0.00622915 0.000839122 -0.00080947
0.00582197 0.000220823 -0.000301008
0.00592172 0.000875726 -0.000792732
0.00618796 -0.000188378 -0.000362167
0.00631444 0.000816169 -0.000808931
0.00602632 6.98451e-05 -0.000593409
0.00632885 0.000345268 0.000392526
0.00567302 0.00081975 -0.00020669
0.00578069 0.000213643 -0.000293846
0.00626448 0.00021206 0.000369553
0.00619695 2.12878e-05 -0.000546952
0.0060442 6.74686e-05 -0.000552552
0.00633194 0.000274926 -0.000269349
0.00625228 -0.000204885 -0.000378299
0.0062206 0.000833426 -0.00080664
0.006084 9.76914e-05 -0.000627005
0.00630427 0.000490286 0.000306023
0.0063764 0.00048381 0.00035302
0.00587232 0.000748175 -0.000121862
0.00599337 -0.000158149 -0.000300118
0.00599261 0.000144969 -0.000655919
0.00623383 0.000824268 -0.000804053
0.00621002 0.000844536 -0.000810682
0.0062001 0.000434929 0.00015522
0.00624675 0.00083863 -0.00081058
0.00621332 0.000830363 -0.000805255
0.00578086 0.000233741 -0.00024672
0.00636017 0.000524694 0.000326647
0.00632457 0.000803538 -0.000805508
0.00653232 0.000634982 -0.000578198
0.00620325 0.000829281 -0.000803203
0.00638779 0.000558665 0.000265848
0.00633882 0.000195054 6.15393e-05
0.00631582 0.000809626 -0.000806851
0.00607848 -0.000121224 -0.000412992
0.00610527 -3.99019e-06 -0.000570259
0.00570171 0.000795832 -0.00075109
0.00624661 0.000328054 0.00040903
0.00584091 0.00021564 -0.000300224
0.00576368 0.000368891 -5.71399e-05
0.00635676 0.000578558 0.000304574
0.006114 0.000312707 -0.00116791
0.0063516 0.000202026 5.43131e-05
0.00578232 0.00013854 -0.000654898
0.00615827 5.17494e-05 -0.000588048
0.00599205 0.000915167 -0.00081199
0.00597445 0.000314205 -0.00114194
0.00602363 0.000383064 -0.00114473
0.00601699 0.000328425 -0.00114911
0.0056934 0.000311898 -2.50889e-05
0.00626288 0.000213393 4.81291e-05
0.00573688 5.49304e-05 -0.000442996
0.00608031 6.9988e-05 -0.000588498
0.00629249 0.000534119 0.000400124
0.00624831 0.000223705 4.20425e-05
0.00631613 0.000196263 6.0478e-05
0.00627162 0.000507084 0.000271955
0.0062805 0.000377867 0.000222217
0.00580506 0.000235685 -0.000303342
0.00630153 0.000453633 3.3756e-05
0.00584211 0.000947495 -0.000812622
0.00583974 0.000211345 -0.000307488
0.00573332 0.000318184 -2.99234e-05
0.00629996 0.000191276 6.31645e-05
0.00561747 0.000838191 -0.000228662
0.00623294 0.000706429 0.000239805
0.00580549 0.000430984 0.000276972
0.00623174 0.000521106 -0.000623088
0.00586044 0.000235166 -0.000183459
0.00625458 0.00034439 0.000392287
0.00605344 0.000321915 -0.00115655
0.00610148 0.000362922 -0.00116162
0.00629121 0.000192663 6.12878e-05
0.00619429 0.000402601 -0.000445226
0.00576851 0.000257581 -0.000301754
0.00634886 0.000318835 0.000394041
0.00614249 0.000282756 -0.000712151
0.00621181 0.000611826 0.000273783
0.00620426 0.000539338 0.000202017
0.00602799 0.00126024 -0.00093167
0.00623596 0.000351234 0.000399444
0.00588889 0.000225459 -0.000182595
0.00614408 0.000289109 -0.00105275
0.00587717 0.000230711 -0.000184461
0.00625345 0.000398877 -0.00013161
0.00576213 0.000707494 0.000227156
0.00608918 0.000291225 -0.00116278
0.00632577 0.00043814 0.000354388
0.0063253 0.000201852 5.67988e-05
0.00579087 0.000222881 -0.000303978
0.00639125 0.000333687 0.000408553
0.00634881 0.000226142 4.34973e-05
0.0062538 0.000219149 4.52803e-05
0.00605126 0.000316676 -0.00115751
0.00615404 0.000273629 -0.000973108
0.00616647 0.000320469 -0.000819707
0.00610372 0.000223391 -0.000630434
0.00617933 0.000395846 -0.000984115
0.00594833 -0.000145713 -0.000371605
0.005998 -0.000158892 -0.000358515
0.00611813 0.000359847 -0.00116391
0.00578413 0.000176313 -0.000688032
0.00630022 0.000515257 0.000326321
0.00590842 0.000329111 -0.00112757
0.00585454 0.00023176 -0.000184988
0.00603358 0.000298716 -0.00115614
0.00625785 0.000838365 -0.000811412
0.00628428 0.000204408 5.59067e-05
0.00582481 0.000227933 -0.000302347
0.00611434 0.00103202 -0.000862679

VECTORS force float
2.12358e-11 -9.45368e-11 -3.98655e-11
3.21165e-11 -1.3218e-10 6.22062e-11
3.83527e-10 8.19821e-10 2.32764e-09
-2.60592e-11 -1.1561e-11 2.47877e-12
-5.57697e-12 1.26893e-12 -9.91873e-13
1.05884e-10 4.92187e-10 -6.29715e-10
-3.49541e-12 9.10558e-12 1.73319e-11
1.56606e-11 -1.31199e-11 2.67042e-11
-3.37208e-11 -2.08109e-10 4.35064e-11
4.93747e-11 7.36957e-11 2.34633e-10
8.42997e-11 -3.19636e-11 -1.27503e-12
-1.51167e-10 -4.88232e-11 -9.62992e-11
3.06058e-13 -2.621e-11 1.95867e-11
3.74871e-11 1.88495e-10 -1.70663e-10
-8.15276e-12 8.95736e-12 -1.32516e-12
6.1303e-11 2.07976e-10 -1.78519e-10
-5.06975e-11 -1.41948e-10 -3.17225e-10
-1.21315e-10 -7.73515e-11 -1.45935e-11
3.27548e-12 -1.80457e-11 1.85761e-11
-3.85836e-11 -2.56945e-11 1.15787e-11
5.24211e-12 -5.64919e-12 -1.14479e-13
-4.48046e-11 -3.10031e-10 1.31258e-10
-2.34537e-11 -1.61117e-10 2.99448e-11
-1.73601e-11 1.07781e-11 2.67739e-11
-2.2092e-09 5.51506e-10 8.17187e-10
2.39657e-10 -1.03515e-10 6.58868e-10
-6.70835e-12 -2.47917e-11 6.65254e-12
-9.16218e-12 -1.86052e-11 2.94167e-11
-3.75609e-11 -6.10296e-11 2.51907e-11
6.46803e-12 2.0672e-12 -5.57562e-13
2.22634e-11 1.42855e-11 -4.53276e-12
-3.44302e-10 6.7831e-10 -9.39901e-10
-2.42609e-11 -2.03622e-10 -3.19406e-10
3.79277e-11 1.60728e-11 -1.04398e-11
-5.62268e-11 -1.58211e-10 3.0267e-11
1.69399e-12 1.97104e-11 -3.27752e-12
1.75063e-12 -2.27126e-11 6.38321e-12
-4.26337e-11 -1.41567e-10 2.79614e-11
-1.40764e-12 -3.42832e-11 -1.10278e-10
-5.01377e-12 -1.23322e-11 3.22285e-12
3.9778e-11 4.15774e-11 -1.81193e-11
-5.48358e-10 1.06111e-09 -6.31809e-10
5.25024e-10 3.6763e-09 -1.21162e-09
2.88085e-11 -2.55452e-10 -3.61049e-10
-1.71642e-11 -3.34549e-11 1.30232e-11
-1.84799e-09 -7.05805e-10 -1.64621e-10
-1.22478e-11 -5.138e-11 1.90777e-11
-3.32061e-11 -4.74198e-11 3.07312e-11
-3.47276e-12 1.56102e-10 8.18383e-11
1.37607e-11 -2.00151e-10 5.23255e-11
-1.87985e-11 -2.81789e-11 4.39432e-11
3.57341e-11 1.83765e-10 -1.58529e-10
1.15449e-11 7.16723e-12 -3.74455e-12
-6.54073e-10 -1.81301e-09 1.40068e-09
5.11971e-11 3.54254e-11 -1.7261e-11
2.71774e-11 4.58473e-11 -1.75196e-11
3.03175e-11 4.12896e-11 -2.20771e-11
5.37844e-12 -3.589e-12 -2.01519e-13
-1.87878e-11 6.14562e-11 -1.27531e-11
-7.00589e-11 -1.2298e-10 2.42909e-11
-1.80619e-10 1.42787e-10 -1.24974e-10
-3.10886e-11 -4.19982e-10 -1.03423e-09
-1.48956e-11 5.8144e-11 -1.88299e-11
-2.06016e-11 4.56077e-11 -6.08503e-13
8.90041e-12 -1.77586e-11 -1.13805e-11
-1.22912e-11 -1.97312e-10 4.26137e-11
-2.58892e-11 2.11156e-10 -2.02725e-10
-2.17377e-11 -6.11283e-12 4.52737e-12
-9.97728e-12 1.1389e-11 3.26204e-11