# vtk DataFile Version 3.0
LIGGGHTS particles timestep 31400000
ASCII
DATASET POLYDATA
POINTS 275 float
0.196398 0.0184107 0.00686637
0.196033 0.0172109 0.00733675
0.196183 0.0170942 0.00739888
0.195575 0.0154066 0.0086389
0.202015 0.0171628 0.00748308
0.196417 0.017726 0.0070591
0.196029 0.0167963 0.00753193
0.202215 0.0180133 0.00699661
0.195699 0.0158287 0.00823091
0.196172 0.0178164 0.00701502
0.190241 0.0169397 0.00745462
0.195553 0.0153493 0.00871786
0.190221 0.0176514 0.00706694
0.190494 0.0179926 0.00698753
0.195679 0.0157581 0.00829889
0.195532 0.0153098 0.00880727
0.196459 0.017898 0.00696455
0.19599 0.0166182 0.00761399
0.190452 0.0178029 0.00703405
0.202135 0.0176731 0.00719119
0.195744 0.0159688 0.00809555
0.202175 0.0178432 0.0070939
0.190068 0.0169691 0.00744165
0.196108 0.0171526 0.00736782
0.195511 0.0152702 0.00889665
0.195818 0.0162545 0.00782625
0.196493 0.0176675 0.00708968
0.195759 0.0160423 0.00802948
0.202035 0.0172478 0.00743443
0.19566 0.0156875 0.00836706
0.196377 0.017555 0.00715468
0.202276 0.0182788 0.00687851
0.196163 0.0170051 0.0074399
0.196242 0.0173571 0.00726741
0.202155 0.0177581 0.00714255
0.195618 0.0155467 0.00850272
0.196277 0.0171248 0.00738894
0.196337 0.017384 0.00725026
0.202055 0.0173329 0.00738578
0.195639 0.0156171 0.00843485
0.196235 0.0180889 0.00691244
0.202235 0.0180984 0.00694796
0.195783 0.0161098 0.00795973
0.196514 0.0177528 0.00704199
0.190299 0.0171753 0.00727794
0.202095 0.017503 0.00728849
0.196579 0.0180222 0.00692727
0.190241 0.0173095 0.00718181
0.196634 0.0178696 0.00697446
0.202075 0.0174179 0.00733714
0.378022 0.019866 0.005332
0.196357 0.0174695 0.00720247
0.195597 0.0154764 0.00857057
0.196262 0.0174426 0.00721961
0.196278 0.0182824 0.00688743
0.202115 0.017588 0.00723984
0.190278 0.0174897 0.00710865
0.190239 0.017746 0.00709363
0.196482 0.0179907 0.00693516
0.196167 0.0174157 0.00723679
0.196557 0.0179262 0.00694499
0.202195 0.0179283 0.00704525
0.19059 0.0180225 0.00698213
0.19645 0.0182482 0.00689041
0.195719 0.0159 0.00816364
0.195798 0.0161824 0.00789259
0.190185 0.0170732 0.00735895
0.196052 0.0172999 0.00729572
0.189509 0.0152812 0.00892518
0.190559 0.0182771 0.00691775
0.196127 0.0172416 0.00732677
0.190266 0.0175773 0.00717866
0.19026 0.0170182 0.00739572
0.202255 0.0181834 0.00689931
0.190728 0.018243 0.00692998
0.196317 0.0172985 0.00729807
0.196088 0.0170635 0.00740883
0.196322 0.0176992 0.00707625
0.196207 0.0175868 0.00714119
0.196429 0.0181517 0.00690515
0.190221 0.0168613 0.00751345
0.196267 0.017844 0.00699939
0.195877 0.0164984 0.00766523
0.196192 0.0179019 0.00696724
0.196111 0.0175599 0.00715837
0.196247 0.0177578 0.00704563
0.189616 0.0155194 0.00850038
0.195856 0.0164095 0.00770594
0.190346 0.0181851 0.00693614
0.196439 0.0178114 0.00701137
0.190368 0.0182801 0.00691285
0.0643568 0.0187248 0.00531097
0.24257 0.0191927 0.00520306
0.190516 0.0180875 0.00696426
0.189573 0.0154148 0.00866438
0.19029 0.0178041 0.00703025
0.18953 0.0153257 0.00883824
0.196504 0.0180865 0.00691628
0.196452 0.0174964 0.00718533
0.196013 0.0171218 0.00737777
0.195974 0.0169437 0.00745982
0.189654 0.0156701 0.00837482
0.190128 0.0176153 0.00707394
0.190228 0.0180594 0.00696503
0.196297 0.017213 0.00734602
0.196406 0.0180538 0.0069201
0.196397 0.0176406 0.00710686
0.190338 0.0173439 0.00717818
0.196525 0.0181829 0.00690154
0.19601 0.0167072 0.00757297
0.196418 0.0185082 0.00685748
0.196227 0.0176723 0.00709342
0.190611 0.0181175 0.00695882
0.195896 0.0165876 0.00762391
0.196302 0.0176137 0.00712404
0.189594 0.0154593 0.00857741
0.195839 0.01633 0.00776404
0.196152 0.0177309 0.0070628
0.190303 0.0179955 0.00698264
0.190325 0.0180903 0.00695941
0.196202 0.0171832 0.00735785
0.196354 0.018217 0.00689402
0.196383 0.0179568 0.00693492
0.196534 0.0178387 0.00699398
0.190223 0.0172307 0.00724082
0.196132 0.0176454 0.00711058
0.196332 0.0181205 0.00690877
0.196072 0.0173887 0.00725404
0.190068 0.0166022 0.00771232
0.190512 0.0177263 0.00705455
0.189552 0.0153702 0.00875131
0.190372 0.017523 0.00710235
0.189695 0.0158354 0.00827001
0.190413 0.0177131 0.00705569
0.190088 0.0166807 0.00765344
0.195935 0.0167673 0.00754542
0.19058 0.0183722 0.00689442
0.19043 0.0185686 0.00683917
0.190108 0.0167591 0.0075946
0.189676 0.0157525 0.0083227
0.189778 0.0161641 0.00805786
0.190049 0.0165237 0.00777121
0.0219312 0.0187687 0.00551176
0.190146 0.0169163 0.00747669
0.196222 0.0172715 0.00731523
0.190334 0.0185358 0.00685739
0.190271 0.0182493 0.00691952
0.189838 0.016395 0.00787682
0.190503 0.0184341 0.00687725
0.196257 0.0181854 0.00689769
0.190597 0.0184669 0.00686774
0.190654 0.0183078 0.00691216
0.190521 0.0185287 0.00684995
0.190542 0.018626 0.00683958
0.196472 0.0183447 0.00687566
0.190109 0.0175233 0.00710828
0.19631 0.018024 0.00692351
0.189877 0.0165526 0.00776006
0.190165 0.0173637 0.00714564
0.189757 0.0160831 0.00811245
0.190185 0.0178698 0.00701153
0.190353 0.0186328 0.00684221
0.196493 0.018442 0.00686077
0.190281 0.0179007 0.00700589
0.196213 0.0179912 0.00692736
0.190394 0.0176179 0.00707908
0.190685 0.0180524 0.00697673
0.196375 0.0183135 0.00687928
0.196282 0.0175281 0.00717183
0.196342 0.0185734 0.00685535
0.184289 0.0183198 0.00689038
0.195954 0.0168547 0.00750085
0.190163 0.0177749 0.00703479
0.196547 0.0182794 0.0068868
0.190212 0.0176605 0.00716617
0.190461 0.0182443 0.00692383
0.190418 0.0180542 0.00697044
0.183961 0.0168917 0.00748725
0.190279 0.0170968 0.0073368
0.190207 0.0179646 0.00698828
0.189637 0.0155926 0.00843569
0.190482 0.0183391 0.00690058
0.190166 0.0169947 0.00741785
0.196364 0.0178702 0.00698094
0.190473 0.0178978 0.00701079
0.190011 0.0167336 0.00761831
0.190049 0.0168905 0.00750057
0.189934 0.0164196 0.00785387
0.190318 0.0172574 0.00722444
0.19026 0.0173942 0.00713213
0.196049 0.0168854 0.00749088
0.196068 0.0169744 0.00744985
0.190537 0.0181823 0.006941
0.196322 0.0184757 0.00686136
0.196147 0.0173301 0.00728467
0.184183 0.0178553 0.00700573
0.189915 0.0163411 0.00791276
0.196567 0.0183762 0.00687198
0.19025 0.0181542 0.00694178
0.195915 0.0166766 0.00758287
0.190293 0.0183439 0.00689527
0.196472 0.0175821 0.00713745
0.190088 0.0170475 0.00738281
0.195993 0.0170328 0.0074188
0.190147 0.0177077 0.00710702
0.184204 0.0179424 0.00696112
0.184142 0.0176803 0.00709315
0.190633 0.0182123 0.00693558
0.189992 0.0170229 0.00740576
0.190315 0.0184392 0.00687408
0.190471 0.0187644 0.00684879
0.196186 0.0175015 0.00718937
0.189954 0.016866 0.00752378
0.19005 0.0172583 0.00722916
0.190069 0.0173388 0.00717299
0.183863 0.0164532 0.00770653
0.183921 0.0167163 0.00757494
0.183843 0.0163654 0.00775039
0.189716 0.015918 0.00821763
0.190395 0.0179586 0.00699389
0.183882 0.0165409 0.00766266
0.184059 0.0173302 0.00726801
0.189896 0.0166305 0.00770018
0.190204 0.0175566 0.00710139
0.184 0.0170671 0.00739955
0.189972 0.016577 0.00773657
0.196342 0.0177846 0.0070285
0.184079 0.0174178 0.00722429
0.184268 0.0182224 0.00689652
0.18402 0.0171548 0.00735571
0.189487 0.0152366 0.00901212
0.190568 0.0179275 0.00700542
0.190127 0.0168376 0.0075357
0.190184 0.0174569 0.00711479
0.1841 0.0175053 0.00718057
0.19045 0.0186667 0.00684242
0.190146 0.017284 0.00720549
0.19009 0.0174288 0.00713455
0.18398 0.0169794 0.0074434
0.189798 0.0162432 0.00799995
0.18431 0.0184173 0.00688423
0.19039 0.018375 0.0068896
0.189991 0.0166551 0.00767718
0.190354 0.0174275 0.00712586
0.190373 0.0178631 0.0070173
0.196092 0.0174743 0.00720618
0.190374 0.0187305 0.00684858
0.184162 0.0177678 0.00704944
0.19003 0.016812 0.00755946
0.184121 0.0175928 0.00713686
0.189857 0.0164735 0.00781796
0.189953 0.016498 0.00779499
0.189915 0.016709 0.00764129
0.190297 0.017589 0.00708421
0.184217 0.0176233 0.00712513
0.184224 0.0180279 0.00691336
0.190412 0.0184737 0.00686536
0.183902 0.0166286 0.0076188
0.190012 0.0171017 0.00734741
0.190107 0.017126 0.00732391
0.189822 0.016323 0.0079446
0.189973 0.0169446 0.00746506
0.190439 0.0181491 0.00694717
0.189736 0.0160006 0.0081652
0.190204 0.0171519 0.00729994
0.190313 0.0176884 0.00705971
0.190394 0.0188282 0.00685503
0.190126 0.0172045 0.00726502
0.190031 0.0171814 0.00729014
0.184246 0.018125 0.00690352
0.189934 0.0167874 0.00758241
0.1963 0.0183785 0.00686987
0.183941 0.016804 0.00753109
0.184039 0.0172425 0.00731186
0.196289 0.0179331 0.00695931

VERTICES 275 550
1 0
1 1
1 2
1 3
1 4
1 5
1 6
1 7
1 8
1 9
1 10
1 11
1 12
1 13
1 14
1 15
1 16
1 17
1 18
1 19
1 20
1 21
1 22
1 23
1 24
1 25
1 26
1 27
1 28
1 29
1 30
1 31
1 32
1 33
1 34
1 35
1 36
1 37
1 38
1 39
1 40
1 41
1 42
1 43
1 44
1 45
1 46
1 47
1 48
1 49
1 50
1 51
1 52
1 53
1 54
1 55
1 56
1 57
1 58
1 59
1 60
1 61
1 62
1 63
1 64
1 65
1 66
1 67
1 68
1 69
1 70
1 71
1 72
1 73
1 74
1 75
1 76
1 77
1 78
1 79
1 80
1 81
1 82
1 83
1 84
1 85
1 86
1 87
1 88
1 89
1 90
1 91
1 92
1 93
1 94
1 95
1 96
1 97
1 98
1 99
1 100
1 101
1 102
1 103
1 104
1 105
1 106
1 107
1 108
1 109
1 110
1 111
1 112
1 113
1 114
1 115
1 116
1 117
1 118
1 119
1 120
1 121
1 122
1 123
1 124
1 125
1 126
1 127
1 128
1 129
1 130
1 131
1 132
1 133
1 134
1 135
1 136
1 137
1 138
1 139
1 140
1 141
1 142
1 143
1 144
1 145
1 146
1 147
1 148
1 149
1 150
1 151
1 152
1 153
1 154
1 155
1 156
1 157
1 158
1 159
1 160
1 161
1 162
1 163
1 164
1 165
1 166
1 167
1 168
1 169
1 170
1 171
1 172
1 173
1 174
1 175
1 176
1 177
1 178
1 179
1 180
1 181
1 182
1 183
1 184
1 185
1 186
1 187
1 188
1 189
1 190
1 191
1 192
1 193
1 194
1 195
1 196
1 197
1 198
1 199
1 200
1 201
1 202
1 203
1 204
1 205
1 206
1 207
1 208
1 209
1 210
1 211
1 212
1 213
1 214
1 215
1 216
1 217
1 218
1 219
1 220
1 221
1 222
1 223
1 224
1 225
1 226
1 227
1 228
1 229
1 230
1 231
1 232
1 233
1 234
1 235
1 236
1 237
1 238
1 239
1 240
1 241
1 242
1 243
1 244
1 245
1 246
1 247
1 248
1 249
1 250
1 251
1 252
1 253
1 254
1 255
1 256
1 257
1 258
1 259
1 260
1 261
1 262
1 263
1 264
1 265
1 266
1 267
1 268
1 269
1 270
1 271
1 272
1 273
1 274

POINT_DATA 275
SCALARS id int 1
LOOKUP_TABLE default
1
2
4
5
6
7
8
9
10
11
12
13
14
16
17
19
21
22
23
24
25
26
27
28
29
30
31
32
33
34
35
36
37
38
39
41
42
44
45
47
48
49
50
51
52
53
54
55
56
57
59
60
61
62
63
64
65
66
67
68
69
70
71
72
73
74
76
77
78
79
80
82
83
84
85
86
87
88
89
90
91
92
93
94
95
96
97
98
99
100
101
102
103
104
105
106
107
108
109
110
111
112
113
114
115
116
117
118
119
120
121
122
123
124
125
127
128
129
130
131
132
133
134
135
136
137
138
140
141
142
143
144
146
147
148
149
150
151
153
154
155
156
157
158
159
160
162
164
165
166
167
168
169
170
171
172
173
174
176
177
178
179
182
183
184
185
186
187
188
189
190
191
192
193
194
195
196
197
198
199
200
201
202
203
204
205
206
207
208
209
210
211
212
213
214
215
216
217
218
219
220
222
224
225
226
227
228
229
230
232
233
234
235
236
237
239
240
241
242
243
244
246
247
248
249
250
251
252
253
254
255
256
257
258
259
260
261
262
263
264
265
266
267
268
269
270
271
272
273
274
275
276
277
278
279
280
281
283
284
285
286
287
288
289
290
291
292
293
294
295
296
297
298
299
300

SCALARS type int 1
LOOKUP_TABLE default
1
1
1
1
1
1
1
1
1
1
1
1
1
1
1
1
1
1
1
1
1
1
1
1
1
1
1
1
1
1
1
1
1
1
1
1
1
1
1
1
1
1
1
1
1
1
1
1
1
1
1
1
1
1
1
1
1
1
1
1
1
1
1
1
1
1
1
1
1
1
1
1
1
1
1
1
1
1
1
1
1
1
1
1
1
1
1
1
1
1
1
1
1
1
1
1
1
1
1
1
1
1
1
1
1
1
1
1
1
1
1
1
1
1
1
1
1
1
1
1
1
1
1
1
1
1
1
1
1
1
1
1
1
1
1
1
1
1
1
1
1
1
1
1
1
1
1
1
1
1
1
1
1
1
1
1
1
1
1
1
1
1
1
1
1
1
1
1
1
1
1
1
1
1
1
1
1
1
1
1
1
1
1
1
1
1
1
1
1
1
1
1
1
1
1
1
1
1
1
1
1
1
1
1
1
1
1
1
1
1
1
1
1
1
1
1
1
1
1
1
1
1
1
1
1
1
1
1
1
1
1
1
1
1
1
1
1
1
1
1
1
1
1
1
1
1
1
1
1
1
1
1
1
1
1
1
1
1
1
1
1
1
1
1
1
1
1
1
1
1
1
1
1
1
1

SCALARS radius float 1
LOOKUP_TABLE default
5e-05
5e-05
5e-05
5e-05
5e-05
5e-05
5e-05
5e-05
5e-05
5e-05
5e-05
5e-05
5e-05
5e-05
5e-05
5e-05
5e-05
5e-05
5e-05
5e-05
5e-05
5e-05
5e-05
5e-05
5e-05
5e-05
5e-05
5e-05
5e-05
5e-05
5e-05
5e-05
5e-05
5e-05
5e-05
5e-05
5e-05
5e-05
5e-05
5e-05
5e-05
5e-05
5e-05
5e-05
5e-05
5e-05
5e-05
5e-05
5e-05
5e-05
5e-05
5e-05
5e-05
5e-05
5e-05
5e-05
5e-05
5e-05
5e-05
5e-05
5e-05
5e-05
5e-05
5e-05
5e-05
5e-05
5e-05
5e-05
5e-05
5e-05
5e-05
5e-05
5e-05
5e-05
5e-05
5e-05
5e-05
5e-05
5e-05
5e-05
5e-05
5e-05
5e-05
5e-05
5e-05
5e-05
5e-05
5e-05
5e-05
5e-05
5e-05
5e-05
5e-05
5e-05
5e-05
5e-05
5e-05
5e-05
5e-05
5e-05
5e-05
5e-05
5e-05
5e-05
5e-05
5e-05
5e-05
5e-05
5e-05
5e-05
5e-05
5e-05
5e-05
5e-05
5e-05
5e-05
5e-05
5e-05
5e-05
5e-05
5e-05
5e-05
5e-05
5e-05
5e-05
5e-05
5e-05
5e-05
5e-05
5e-05
5e-05
5e-05
5e-05
5e-05
5e-05
5e-05
5e-05
5e-05
5e-05
5e-05
5e-05
5e-05
5e-05
5e-05
5e-05
5e-05
5e-05
5e-05
5e-05
5e-05
5e-05
5e-05
5e-05
5e-05
5e-05
5e-05
5e-05
5e-05
5e-05
5e-05
5e-05
5e-05
5e-05
5e-05
5e-05
5e-05
5e-05
5e-05
5e-05
5e-05
5e-05
5e-05
5e-05
5e-05
5e-05
5e-05
5e-05
5e-05
5e-05
5e-05
5e-05
5e-05
5e-05
5e-05
5e-05
5e-05
5e-05
5e-05
5e-05
5e-05
5e-05
5e-05
5e-05
5e-05
5e-05
5e-05
5e-05
5e-05
5e-05
5e-05
5e-05
5e-05
5e-05
5e-05
5e-05
5e-05
5e-05
5e-05
5e-05
5e-05
5e-05
5e-05
5e-05
5e-05
5e-05
5e-05
5e-05
5e-05
5e-05
5e-05
5e-05
5e-05
5e-05
5e-05
5e-05
5e-05
5e-05
5e-05
5e-05
5e-05
5e-05
5e-05
5e-05
5e-05
5e-05
5e-05
5e-05
5e-05
5e-05
5e-05
5e-05
5e-05
5e-05
5e-05
5e-05
5e-05
5e-05
5e-05
5e-05
5e-05
5e-05
5e-05
5e-05
5e-05
5e-05
5e-05
5e-05
5e-05
5e-05
5e-05
5e-05
5e-05
5e-05
5e-05
5e-05
5e-05
5e-05
5e-05
5e-05
5e-05
5e-05
5e-05
5e-05
5e-05
5e-05

SCALARS mass float 1
LOOKUP_TABLE default
1.46608e-10
1.46608e-10
1.46608e-10
1.46608e-10
1.46608e-10
1.46608e-10
1.46608e-10
1.46608e-10
1.46608e-10
1.46608e-10
1.46608e-10
1.46608e-10
1.46608e-10
1.46608e-10
1.46608e-10
1.46608e-10
1.46608e-10
1.46608e-10
1.46608e-10
1.46608e-10
1.46608e-10
1.46608e-10
1.46608e-10
1.46608e-10
1.46608e-10
1.46608e-10
1.46608e-10
1.46608e-10
1.46608e-10
1.46608e-10
1.46608e-10
1.46608e-10
1.46608e-10
1.46608e-10
1.46608e-10
1.46608e-10
1.46608e-10
1.46608e-10
1.46608e-10
1.46608e-10
1.46608e-10
1.46608e-10
1.46608e-10
1.46608e-10
1.46608e-10
1.46608e-10
1.46608e-10
1.46608e-10
1.46608e-10
1.46608e-10
1.46608e-10
1.46608e-10
1.46608e-10
1.46608e-10
1.46608e-10
1.46608e-10
1.46608e-10
1.46608e-10
1.46608e-10
1.46608e-10
1.46608e-10
1.46608e-10
1.46608e-10
1.46608e-10
1.46608e-10
1.46608e-10
1.46608e-10
1.46608e-10
1.46608e-10
1.46608e-10
1.46608e-10
1.46608e-10
1.46608e-10
1.46608e-10
1.46608e-10
1.46608e-10
1.46608e-10
1.46608e-10
1.46608e-10
1.46608e-10
1.46608e-10
1.46608e-10
1.46608e-10
1.46608e-10
1.46608e-10
1.46608e-10
1.46608e-10
1.46608e-10
1.46608e-10
1.46608e-10
1.46608e-10
1.46608e-10
1.46608e-10
1.46608e-10
1.46608e-10
1.46608e-10
1.46608e-10
1.46608e-10
1.46608e-10
1.46608e-10
1.46608e-10
1.46608e-10
1.46608e-10
1.46608e-10
1.46608e-10
1.46608e-10
1.46608e-10
1.46608e-10
1.46608e-10
1.46608e-10
1.46608e-10
1.46608e-10
1.46608e-10
1.46608e-10
1.46608e-10
1.46608e-10
1.46608e-10
1.46608e-10
1.46608e-10
1.46608e-10
1.46608e-10
1.46608e-10
1.46608e-10
1.46608e-10
1.46608e-10
1.46608e-10
1.46608e-10
1.46608e-10
1.46608e-10
1.46608e-10
1.46608e-10
1.46608e-10
1.46608e-10
1.46608e-10
1.46608e-10
1.46608e-10
1.46608e-10
1.46608e-10
1.46608e-10
1.46608e-10
1.46608e-10
1.46608e-10
1.46608e-10
1.46608e-10
1.46608e-10
1.46608e-10
1.46608e-10
1.46608e-10
1.46608e-10
1.46608e-10
1.46608e-10
1.46608e-10
1.46608e-10
1.46608e-10
1.46608e-10
1.46608e-10
1.46608e-10
1.46608e-10
1.46608e-10
1.46608e-10
1.46608e-10
1.46608e-10
1.46608e-10
1.46608e-10
1.46608e-10
1.46608e-10
1.46608e-10
1.46608e-10
1.46608e-10
1.46608e-10
1.46608e-10
1.46608e-10
1.46608e-10
1.46608e-10
1.46608e-10
1.46608e-10
1.46608e-10
1.46608e-10
1.46608e-10
1.46608e-10
1.46608e-10
1.46608e-10
1.46608e-10
1.46608e-10
1.46608e-10
1.46608e-10
1.46608e-10
1.46608e-10
1.46608e-10
1.46608e-10
1.46608e-10
1.46608e-10
1.46608e-10
1.46608e-10
1.46608e-10
1.46608e-10
1.46608e-10
1.46608e-10
1.46608e-10
1.46608e-10
1.46608e-10
1.46608e-10
1.46608e-10
1.46608e-10
1.46608e-10
1.46608e-10
1.46608e-10
1.46608e-10
1.46608e-10
1.46608e-10
1.46608e-10
1.46608e-10
1.46608e-10
1.46608e-10
1.46608e-10
1.46608e-10
1.46608e-10
1.46608e-10
1.46608e-10
1.46608e-10
1.46608e-10
1.46608e-10
1.46608e-10
1.46608e-10
1.46608e-10
1.46608e-10
1.46608e-10
1.46608e-10
1.46608e-10
1.46608e-10
1.46608e-10
1.46608e-10
1.46608e-10
1.46608e-10
1.46608e-10
1.46608e-10
1.46608e-10
1.46608e-10
1.46608e-10
1.46608e-10
1.46608e-10
1.46608e-10
1.46608e-10
1.46608e-10
1.46608e-10
1.46608e-10
1.46608e-10
1.46608e-10
1.46608e-10
1.46608e-10
1.46608e-10
1.46608e-10
1.46608e-10
1.46608e-10
1.46608e-10
1.46608e-10
1.46608e-10
1.46608e-10
1.46608e-10
1.46608e-10
1.46608e-10
1.46608e-10
1.46608e-10
1.46608e-10
1.46608e-10
1.46608e-10
1.46608e-10
1.46608e-10
1.46608e-10
1.46608e-10
1.46608e-10
1.46608e-10
1.46608e-10
1.46608e-10
1.46608e-10

VECTORS velocity float
0.00643361 0.000197896 -4.50841e-06
0.00564062 0.000393877 8.42928e-05
0.00565433 0.000379531 9.0302e-05
0.00618932 -3.47166e-05 -0.000260529
0.00576261 0.000320167 0.00017336
0.00629899 0.000105146 -0.000204306
0.00559372 0.000377237 8.83978e-05
0.00627235 0.000231043 0.000254125
0.00573277 2.85605e-05 -0.000342195
0.00628851 0.000106932 -0.000213706
0.00553495 3.1013e-05 -0.000300337
0.00633398 0.00074309 0.000344125
0.00567999 0.00023927 7.08781e-05
0.00633082 5.72648e-05 0.000123648
0.00565646 4.35983e-05 -0.000351847
0.00631399 0.000743551 0.000339228
0.00628991 -2.87092e-05 -0.000435305
0.00560057 0.000389135 8.36646e-05
0.00628557 6.23506e-05 0.000120579
0.00607335 0.000271609 0.000217868
0.00586187 1.88526e-07 -0.000321809
0.00618214 0.000263198 0.000233387
0.00559475 0.000110063 -0.000361156
0.00564998 0.000375913 9.14383e-05
0.00627288 0.000742199 0.000326218
0.00560185 0.000202969 -0.000152747
0.00622327 4.62492e-05 -0.000177071
0.00585342 -7.36028e-07 -0.000319323
0.00581427 0.000312206 0.000181327
0.00564849 3.79106e-05 -0.000360405
0.00629274 0.000155753 -0.000238042
0.00639743 0.000235732 0.00027021
0.00564752 0.000373178 9.42326e-05
0.00570254 0.00018793 -0.000244515
0.00611748 0.000268239 0.000227372
0.00584072 5.42499e-06 -0.000329094
0.0056659 0.00038675 9.02281e-05
0.00582929 0.000223757 -0.000265115
0.00586621 0.000303544 0.000189
0.00572133 2.9783e-05 -0.000344267
0.00635198 0.000116647 5.98963e-05
0.00631122 0.000228048 0.000250049
0.00579259 3.45789e-06 -0.000326006
0.00638043 2.19987e-05 -0.000168255
0.00565253 -1.32193e-05 -0.000315142
0.005969 0.000287399 0.000204099
0.00611917 0.000121076 4.96324e-05
0.00540451 0.000107031 -0.000355082
0.00613826 0.000101426 -0.000208643
0.00591692 0.000295902 0.000197982
-5.02036e-15 -7.41193e-15 7.69802e-14
0.00607581 0.00019034 -0.000251943
0.00600311 -2.7612e-05 -0.000312256
0.00579393 0.000177387 -0.000238976
0.00635446 0.0001665 0.000100942
0.00602051 0.000281071 0.000213556
0.00565286 0.000270484 4.42253e-05
0.00576836 0.00025474 1.99725e-05
0.00618515 6.65795e-05 -0.000118204
0.0057344 0.000182258 -0.000233552
0.00617047 8.6716e-05 -0.000194152
0.0062441 0.000252217 0.000250303
0.00628788 2.30812e-05 0.000130735
0.0062866 0.000118423 6.85555e-05
0.00580747 1.47873e-05 -0.000332303
0.0057096 3.5365e-06 -0.000337472
0.00560202 7.57569e-05 -0.000335898
0.00564738 0.000397611 8.59397e-05
0.00626721 -1.40293e-05 -0.000434063
0.00634638 6.90534e-05 0.000120074
0.0056517 0.000373039 9.06331e-05
0.00570895 -8.73293e-05 -2.04058e-05
0.00557301 2.43557e-05 -0.000294008
0.00637656 0.000241879 0.000255643
0.00597928 0.000672639 -3.81992e-05
0.00572837 0.000259689 -0.000204616
0.0056468 0.000378195 9.37638e-05
0.00629271 0.000110417 -0.000211977
0.00618327 0.000114056 -0.000213551
0.00619317 0.000134842 5.77668e-05
0.00552021 3.67534e-05 -0.000305016
0.00633494 0.000122356 -0.000126033
0.00565642 0.000396685 9.76248e-05
0.00629592 5.63803e-05 -0.000174348
0.00614923 0.000155255 -0.000232132
0.00628833 0.000100341 -0.00020473
0.0060385 3.01212e-05 -0.000526334
0.00575969 0.000372182 0.000100168
0.00631795 9.33954e-05 0.000113627
0.00642873 8.31346e-05 -0.000199665
0.00634473 0.000104263 0.00011054
4.15471e-15 1.05384e-14 8.29607e-14
2.18379e-22 -3.92126e-22 8.29106e-22
0.00631315 5.72864e-05 0.000122992
0.00633895 -0.000163107 -0.000562382
0.00609503 7.15747e-05 0.000108395
0.00630043 -1.08408e-05 -0.00043287
0.00610997 7.79619e-05 6.06437e-05
0.00622423 9.53222e-05 -0.000201803
0.00563805 0.000388204 8.57616e-05
0.00563402 0.000373094 9.26709e-05
0.00579483 0.000455138 -4.9541e-05
0.00567404 0.000274987 5.78061e-05
0.00630611 0.000101384 0.000111682
0.00570387 0.000344568 -2.16019e-05
0.00630138 0.000166314 5.03081e-05
0.00628658 0.000122268 -0.000217508
0.00549901 0.000199268 2.13988e-06
0.00620903 4.27475e-05 7.24686e-05
0.00556548 0.000389799 8.12788e-05
0.00581573 0.000319 -0.000276597
0.00625376 0.000102041 -0.000207409
0.00628802 2.41111e-05 0.000131046
0.0055983 0.000397502 8.12899e-05
0.00625096 0.000115018 -0.0002113
0.00600926 4.66035e-05 -0.0005309
0.00585209 0.00032899 7.70575e-05
0.00624844 0.000154249 -0.00023095
0.00629956 9.64617e-05 0.000113304
0.00631673 9.26059e-05 0.000113989
0.00565701 0.000362421 0.000101531
0.006294 0.000163133 5.82465e-05
0.00631206 0.000179579 2.99918e-05
0.00627641 0.000130879 -0.000245521
0.00571996 5.42638e-05 -0.000309519
0.00620305 0.000163005 -0.000235868
0.00631138 0.000156017 5.73788e-05
0.00565109 9.69881e-05 -0.000730759
0.0054294 8.58763e-05 -0.000336851
0.00620598 9.63193e-06 0.000132182
0.00613526 3.3164e-05 -0.000519275
0.00574616 0.00019284 7.85815e-05
0.00576079 0.000409031 -1.59091e-05
0.00614899 0.000113109 0.000105824
0.00543307 9.34182e-05 -0.000342074
0.00560984 0.00037854 8.9574e-05
0.00585162 4.22267e-05 0.000117017
0.00520346 -0.000630065 7.68156e-05
0.00546031 9.23518e-05 -0.000338933
0.00582142 0.000415826 -5.76913e-05
0.0058794 -0.000100142 -0.000625117
0.00527281 0.000100561 -0.000339101
-3.83198e-14 8.16793e-14 2.95886e-13
0.00554799 8.46997e-05 -0.000340672
0.00568245 0.000183895 -0.000245162
0.00568642 -0.000205094 -0.00117169
0.00632601 0.00010196 0.000106159
0.00558295 0.000148639 -0.00038563
0.0059493 0.000159808 9.01236e-05
0.00635032 0.000124449 6.90939e-05
0.00578962 4.97219e-05 -0.000132161
0.00610033 0.000802894 -6.81673e-05
0.00585683 0.000172444 8.23175e-05
0.00580099 0.000173358 6.7116e-05
0.00636518 0.000107164 8.44455e-05
0.00566068 0.000281016 3.53592e-05
0.00633696 0.000154643 5.64326e-05
0.0053862 -4.60825e-05 -0.000684272
0.00559962 0.000166571 -0.000405081
0.00576514 0.000116366 -0.000366334
0.00629459 0.00012652 0.000104815
0.00563674 -1.98071e-05 -0.00167067
0.00567125 0.00012361 4.49546e-05
0.0062962 9.88076e-05 0.000113858
0.00635478 0.000123195 5.88268e-05
0.00592082 0.000154718 9.19333e-05
0.00628099 1.45611e-05 0.000133039
0.00634799 0.000152356 6.83338e-05
0.00603682 0.000142492 -0.000223607
0.00572089 0.000350669 -0.00013276
0.00628032 -0.000293469 -5.70183e-05
0.00562628 0.000372185 9.29959e-05
0.00627503 0.000139897 9.13565e-05
0.00629502 3.76781e-05 7.36381e-05
0.00580038 -7.16456e-05 -4.72963e-05
0.00633861 8.77157e-05 0.000116576
0.00632271 7.12956e-05 0.000119367
0.00554755 -1.50105e-05 0.000225864
0.00562836 1.08191e-05 -0.000292698
0.006303 0.000112809 0.000111207
0.00572023 0.000221432 -0.000395964
0.00635442 8.48272e-05 0.000117094
0.0055813 7.84565e-05 -0.000337635
0.0063962 0.000103619 -0.000140539
0.0063294 5.50686e-05 0.000124263
0.00551339 0.000140218 -0.000382444
0.00555765 0.000118412 -0.000367717
0.00548055 0.000149047 -0.000387332
0.00566911 4.09662e-05 -0.000222963
0.00568886 0.000296888 5.54971e-05
0.00563837 0.00036697 9.547e-05
0.00564451 0.000373946 9.50188e-05
0.00632221 6.09338e-05 0.000121649
0.0064109 0.000198304 -0.000145246
0.00556158 0.000210716 -0.000256266
0.00624048 -0.000154204 0.000327217
0.00554675 0.000128464 -0.000375741
0.00573882 0.0001495 5.3368e-05
0.00631267 9.62203e-05 0.000109694
0.00559771 0.000388692 8.33404e-05
0.00634804 0.000106413 0.000110351
0.00625058 0.000109675 -0.000210798
0.00560532 0.000102706 -0.000357929
0.00563587 0.000379781 9.00314e-05
0.00594755 0.000213122 7.00359e-05
0.0063073 -0.000336423 -1.35036e-05
0.0061679 -0.000140272 0.000315074
0.00634594 6.71596e-05 0.000121082
0.00563638 0.000130197 -0.00038142
0.00636066 0.000114679 0.000133343
0.00578575 0.000119077 -0.000120537
0.0060009 0.000132933 -0.000227248
0.00554656 0.000125341 -0.000452937
0.00571606 0.000127444 -0.000382483
0.00574015 0.000108905 -0.000406768
0.00551977 9.13201e-06 0.00021262
0.00554596 -7.16302e-06 0.00022184
0.00552058 9.21653e-06 0.000212545
0.00558319 0.000445 9.86538e-07
0.00629491 0.000120946 0.000106596
0.00551681 9.24568e-06 0.000212317
0.00546578 -2.27446e-05 0.00022403
0.00551732 0.000158496 -0.000385141
0.00566718 0.000278908 4.30491e-05
0.00555019 -1.06431e-05 0.000223965
0.00537435 0.000176585 -0.00040148
0.00631185 0.000102689 -0.000165199
0.00574085 -6.13622e-05 0.000258303
0.00629194 -0.000296072 -5.92112e-05
0.00555069 -1.1019e-05 0.00022397
0.00624765 -2.09718e-05 -0.000414966
0.00631817 3.02728e-05 0.000129797
0.00551545 7.95465e-05 -0.000334462
0.00566288 0.00029202 5.06436e-05
0.00608435 -0.000120445 0.000301623
0.00578831 0.000117277 9.40897e-06
0.00574237 0.000104072 -0.00035448
0.00563024 0.000232513 -0.000172615
0.00554803 -1.32405e-05 0.000225061
0.00578303 -0.000129559 -0.000698165
0.00559909 -0.000142399 -5.83563e-05
0.00635912 0.000103499 0.000115328
0.00549715 0.000145134 -0.00038359
0.00560969 0.000219358 6.68727e-05
0.00629945 8.96863e-05 0.000114206
0.0056681 0.000337491 -0.000322663
0.00572563 3.99839e-05 -0.000137194
0.00622068 -0.000152343 0.000322806
0.00551428 0.00013172 -0.000378724
0.00614262 -0.000133165 0.0003096
0.00547962 0.000165638 -0.000398922
0.00537776 0.000174177 -0.000398839
0.00554184 0.000140255 -0.000386356
0.0056587 0.000215868 4.16817e-05
0.00614879 -0.000177237 0.00033251
0.00630218 -0.000306501 1.71445e-05
0.00549605 -0.000260847 0.000184267
0.00552078 5.43846e-06 0.000214519
0.0056522 0.000121136 -0.000392315
0.00562441 9.83539e-05 -0.000355015
0.00546724 1.45485e-05 -0.000640909
0.00559569 0.000145536 -0.000390551
0.00633117 0.000127054 0.000106003
0.00550278 0.000415528 -3.78641e-05
0.00564163 3.78952e-05 -0.000314091
0.00575566 0.000172625 8.24297e-05
0.00576176 8.05343e-05 -0.000124445
0.00568395 8.87675e-05 -0.000351417
0.00568687 0.00012289 -0.000390125
0.00629712 -0.000284605 0.000144664
0.00557852 0.000147305 -0.0003965
0.00639302 0.000191685 6.43117e-05
0.00554824 -1.26986e-05 0.000224868
0.00554638 -1.83504e-05 0.000227072
0.00636603 0.000142691 -3.46064e-06

VECTORS force float
3.69295e-10 3.30016e-10 1.24598e-10
-7.12711e-11 7.04069e-11 -8.66084e-11
3.57243e-10 6.36876e-11 -3.00494e-12
-7.94328e-11 -1.76989e-10 -2.30563e-10
3.08081e-12 -9.50719e-12 1.60137e-13
2.55381e-11 2.3087e-11 1.32203e-10
3.63999e-11 -1.15666e-10 4.63234e-11
1.31926e-10 1.00512e-10 1.34004e-10
-3.9702e-10 1.734e-11 -1.00113e-11
-1.03658e-10 -4.189e-10 1.87424e-10
-1.62849e-10 7.32536e-12 -2.16914e-11
4.33981e-11 4.33957e-11 -5.99059e-11
1.56193e-10 -3.00393e-10 1.58715e-10
2.45041e-10 3.61728e-11 3.71345e-12
-1.86714e-10 -1.95416e-11 -2.08416e-11
1.4883e-10 2.68434e-11 2.22768e-11
-1.08143e-09 -7.01154e-10 1.45728e-09
-1.31472e-10 1.04681e-10 -5.82423e-11
-6.84542e-11 -2.41227e-10 5.98525e-11
3.54087e-11 1.50418e-12 -3.09783e-12
6.51855e-12 -9.98131e-12 2.1668e-11
-1.87553e-10 2.99424e-11 -1.0112e-10
1.07234e-10 8.92249e-11 -1.04175e-10
-7.92621e-11 -2.2781e-11 2.47128e-11
-3.32832e-11 -1.35177e-12 6.65389e-11
1.08258e-10 2.07196e-10 -7.54893e-11
2.8079e-10 -4.80668e-12 -8.64135e-12
4.13852e-12 4.79002e-11 -1.32629e-11
-4.89461e-12 4.7953e-13 1.81195e-11
-6.84183e-11 -2.01353e-11 3.57944e-12
-3.08424e-10 2.13408e-10 -9.2021e-11
1.06688e-10 2.76877e-10 1.34867e-10
2.39179e-10 -6.52125e-11 7.03665e-11
2.90534e-10 1.98949e-11 5.85021e-11
-2.31383e-11 -3.19457e-11 2.25038e-12
-2.83916e-10 -6.26639e-11 -4.9167e-12
3.81584e-10 4.68878e-10 -1.84765e-10
-2.77918e-10 5.74247e-10 -2.62749e-10
-1.77302e-12 -1.18505e-11 -1.6479e-11
-2.24952e-10 3.02091e-11 4.5218e-11
-1.13422e-10 -2.36555e-10 3.80949e-11
1.63468e-10 -3.87596e-10 9.81426e-11
8.35221e-11 6.722e-11 -7.37059e-11
4.46852e-10 3.36237e-11 -2.86844e-11
-1.34652e-10 -2.92369e-10 9.57944e-11
3.85148e-12 3.86723e-12 -1.52151e-11
-3.30196e-10 2.16723e-10 4.31341e-11
6.32325e-12 -2.96881e-10 1.62059e-10
1.5058e-10 -2.20895e-10 -1.59698e-11
1.91296e-12 6.83526e-12 8.76993e-12
-5.58347e-24 1.80946e-24 -2.06795e-25
-3.28207e-10 3.84014e-10 -2.15084e-10
-2.6333e-10 -1.90712e-10 -2.09922e-10
-5.41519e-10 2.83955e-10 -1.43138e-10
-1.87669e-10 -8.77877e-11 -2.51436e-10
1.41343e-11 9.2558e-12 1.66911e-11
-4.8822e-12 -1.22859e-10 1.05752e-10
5.1678e-11 -1.91037e-10 1.48226e-10
-5.66154e-10 3.7092e-10 1.9512e-09
1.27745e-10 -2.23924e-10 1.03049e-10
-1.03178e-11 1.06659e-10 5.99748e-10
1.53496e-10 1.4117e-10 -5.5922e-11
1.35076e-10 1.4517e-10 -4.08569e-11
7.84774e-10 3.86352e-10 -1.44356e-11
-1.55882e-10 -7.86653e-11 -1.30502e-11
2.11969e-10 1.0634e-10 -9.29097e-11
-8.58379e-12 1.59783e-10 -9.52487e-11
3.13214e-11 1.50357e-10 -1.17513e-10
2.66116e-10 3.71237e-10 -6.86537e-10
1.1803e-10 -5.63858e-11 1.66918e-11
-8.99717e-11 -1.49197e-10 -3.16363e-11
-3.61352e-10 7.39118e-10 1.17561e-09
5.16972e-11 -1.30105e-10 9.08346e-11
-4.67316e-10 -1.75298e-10 -2.67796e-12
3.12814e-12 -3.07809e-11 9.27035e-12
2.76423e-11 5.6623e-10 -3.60785e-10
4.2538e-11 9.17747e-11 -6.27489e-11
-2.60778e-10 -2.10802e-11 -1.18689e-11
1.11627e-10 1.15582e-10 -1.09976e-11
5.93669e-10 4.99213e-10 -2.28539e-10
-8.15592e-11 1.33264e-10 -1.03261e-10
-2.40171e-10 -2.63165e-10 -1.09797e-10
-7.99566e-11 1.29471e-10 -8.58488e-11
2.43169e-10 7.57212e-10 -2.57061e-10
4.90922e-11 1.0461e-10 7.09736e-12
-1.15132e-10 -1.07378e-10 -5.26362e-11
-2.12158e-10 -1.88544e-11 -7.60014e-10
-3.62945e-12 2.08318e-10 -7.17647e-11
-1.77521e-10 4.54779e-11 -2.98267e-11
2.67943e-10 -1.04333e-10 -1.30096e-10
-4.1257e-11 -3.97432e-12 -9.81568e-12
1.53395e-21 -4.04078e-22 -2.21271e-23
-3.23117e-27 -2.58494e-26 0.0
1.91581e-11 6.48133e-11 -7.62748e-12
1.19766e-10 -7.91665e-11 -1.02436e-09
2.71146e-10 -1.94684e-10 9.42292e-11
2.05491e-10 3.06069e-10 -7.96355e-10
8.93994e-10 1.32354e-10 2.77647e-10
-2.65033e-10 1.97257e-10 -1.23116e-10
-2.60222e-11 8.99965e-11 -6.24279e-11