# vtk DataFile Version 3.0
LIGGGHTS particles timestep 8000000
ASCII
DATASET POLYDATA
POINTS 287 float
0.0594895 0.0165101 0.00796259
0.0598993 0.0172655 0.00720852
0.0532975 0.0160686 0.00813353
0.0598152 0.0177582 0.00717419
0.0593726 0.0164183 0.00805311
0.0655094 0.0168583 0.00758963
0.0595631 0.0170396 0.00743052
0.0592667 0.0160731 0.008399
0.0657653 0.0179549 0.00702521
0.0594996 0.0168325 0.00763805
0.0599627 0.0175559 0.00717657
0.0534885 0.0167312 0.00757898
0.0593514 0.0163493 0.00812229
0.0532158 0.0158346 0.0084481
0.0596963 0.0172009 0.00727028
0.0531954 0.0157762 0.00852665
0.0594784 0.0167635 0.00770723
0.0656519 0.0174198 0.00719691
0.0593302 0.0162803 0.00819147
0.0594684 0.016441 0.00803177
0.0596047 0.0171961 0.00731761
0.0536622 0.017108 0.00741129
0.0657053 0.017661 0.00702677
0.059542 0.0169706 0.00749971
0.0655956 0.0171784 0.0073657
0.0535776 0.0171227 0.00746933
0.0597952 0.0176603 0.00717634
0.0593091 0.0162112 0.00826064
0.0598287 0.0173988 0.00718113
0.0595811 0.0171091 0.00736087
0.0596794 0.0171313 0.00734007
0.0655311 0.0169383 0.00753366
0.0594574 0.0166944 0.00777642
0.0596581 0.0170623 0.00740923
0.0658046 0.018151 0.00702769
0.0596163 0.016924 0.00754776
0.0597733 0.0171562 0.00731648
0.0657253 0.017759 0.00702625
0.0594149 0.0165564 0.00791476
0.0596136 0.0172409 0.00722866
0.0597905 0.0172258 0.00724672
0.0655528 0.0170183 0.00747769
0.0656355 0.017339 0.00725339
0.0594361 0.0166254 0.00784558
0.0596538 0.0174264 0.00718251
0.0656157 0.0172586 0.00730955
0.0597142 0.0177189 0.00717607
0.0596941 0.017621 0.00717823
0.0534668 0.0166417 0.00761779
0.0656722 0.0175 0.00714069
0.0594472 0.016372 0.00810095
0.0532566 0.0159519 0.00829133
0.0596375 0.0169932 0.0074785
0.0655745 0.0170983 0.00742172
0.0596926 0.0168791 0.00759426
0.0597139 0.0169483 0.00752493
0.0593937 0.0164874 0.00798393
0.0598092 0.0173008 0.00718328
0.0597535 0.0174647 0.00718066
0.0656885 0.0175812 0.0070847
0.0535422 0.0168964 0.00759972
0.0535995 0.0166029 0.00771746
0.0599426 0.017458 0.00717872
0.0598704 0.0175944 0.00717682
0.059553 0.0167172 0.00775506
0.0657454 0.0178569 0.00702573
0.0532362 0.015893 0.00836954
0.0598503 0.0174964 0.00717897
0.0595208 0.0169015 0.00756888
0.0597134 0.0172704 0.00720049
0.0538078 0.0177438 0.0071362
0.0599375 0.0183455 0.00716127
0.0533194 0.0161483 0.00807723
0.0535101 0.0168208 0.00754016
0.0597739 0.0180128 0.00716962
0.0534602 0.0166427 0.00771757
0.0535934 0.0171761 0.00738632
0.0536362 0.0166043 0.00762444
0.0657852 0.0180529 0.00702468
0.0534105 0.016154 0.00803643
0.0597751 0.0175624 0.00717849
0.0596714 0.0168101 0.00766343
0.0598354 0.0183065 0.00716316
0.0597935 0.0181109 0.00716747
0.0598866 0.0171955 0.00727879
0.0535312 0.0169105 0.00750133
0.0599104 0.0177903 0.00717252
0.0598951 0.0181501 0.00716559
0.059975 0.0180899 0.0071659
0.0597542 0.0179148 0.00717177
0.0599304 0.0178882 0.00717037
0.0534236 0.0164716 0.00771196
0.0598563 0.0184042 0.007161
0.0535334 0.0168034 0.00763585
0.0598463 0.0170572 0.00741743
0.0535192 0.0164885 0.00767939
0.0643568 0.0187248 0.00531097
0.24257 0.0191927 0.00520306
0.0538251 0.0174116 0.00727493
0.0533828 0.0163512 0.00786634
0.0539007 0.01735 0.00729679
0.0533406 0.0162214 0.00801236
0.0595949 0.0168549 0.00761708
0.0596736 0.017524 0.00719135
0.0600227 0.0178498 0.00717011
0.0598985 0.0185997 0.00715668
0.0534454 0.0165521 0.00765687
0.0541687 0.0177696 0.00710607
0.0537659 0.0171417 0.00739158
0.059734 0.0173667 0.00718281
0.0595736 0.0167917 0.00769157
0.059426 0.016303 0.00817013
0.053277 0.0160101 0.00821218
0.0597348 0.0170177 0.00745538
0.0592879 0.0161422 0.00832982
0.0592456 0.0160041 0.00846818
0.0600425 0.0179478 0.00716796
0.053442 0.0162709 0.0078773
0.0598551 0.0179542 0.00716989
0.0594047 0.0162338 0.00823942
0.0596335 0.0173285 0.0071847
0.0534031 0.0164118 0.00778948
0.0597342 0.0178169 0.00717392
0.0598142 0.0182088 0.00716532
0.0536883 0.0172031 0.00736992
0.0536058 0.0167382 0.0076586
0.0598352 0.0178562 0.00717204
0.0595862 0.0165335 0.00794056
0.059756 0.0170877 0.00738722
0.0593835 0.0161648 0.0083086
0.0533958 0.0160956 0.00811623
0.0599194 0.0186975 0.00715452
0.059532 0.0166481 0.00782425
0.0600645 0.0180453 0.0071658
0.0534285 0.0162125 0.00795733
0.0537846 0.0172324 0.00735377
0.0533614 0.0162837 0.00793695
0.0537465 0.0170518 0.00743087
0.0536578 0.0166939 0.00758562
0.0533715 0.0160373 0.00819376
0.0536544 0.0174457 0.00726973
0.0599583 0.0184433 0.00715911
0.0535623 0.0166677 0.00760172
0.0539766 0.0172887 0.00731853
0.0534931 0.0164 0.00771799
0.0537491 0.0174733 0.00725308
0.053827 0.0178339 0.00709731
0.0537292 0.0173833 0.00729199
0.0219312 0.0187687 0.00551176
0.0538446 0.017502 0.00723686
0.0598905 0.0176923 0.00717467
0.0537325 0.0178059 0.00711416
0.0537693 0.0175637 0.00721401
0.053983 0.0181507 0.00703754
0.0540545 0.0176496 0.00716263
0.0595438 0.0163954 0.00807892
0.0535406 0.0165781 0.00764055
0.0539208 0.0174407 0.00725761
0.0541111 0.0179229 0.00704473
0.05396 0.0176215 0.00717948
0.059565 0.0164645 0.00800974
0.0540201 0.0174739 0.00723833
0.0600145 0.0173885 0.0071793
0.0538831 0.0176818 0.00715824
0.047578 0.0171107 0.00741942
0.0537086 0.0172934 0.00733086
0.0537701 0.0179862 0.00703632
0.054149 0.0176776 0.00714581
0.0540942 0.0178323 0.00708369
0.053694 0.0176257 0.00719196
0.0595107 0.0165791 0.00789341
0.0539402 0.0175308 0.00721868
0.0598572 0.0177308 0.00726073
0.0536338 0.0173559 0.00730858
0.0536742 0.0175357 0.00723084
0.0598251 0.0169881 0.0074866
0.0599171 0.0182476 0.00716342
0.0598644 0.0171266 0.00734779
0.0476879 0.0171606 0.0073962
0.0599405 0.0187952 0.00715236
0.0538602 0.0171703 0.00737452
0.059649 0.0167407 0.00773292
0.0536057 0.0168477 0.00752376
0.0540746 0.0177405 0.00712332
0.0531751 0.0157178 0.00860521
0.0476397 0.0173953 0.00734723
0.0535499 0.0170063 0.00752309
0.0537886 0.0176537 0.00717511
0.0536096 0.0170307 0.00744661
0.0540766 0.0181801 0.00701841
0.053881 0.01726 0.00733567
0.0599201 0.0173629 0.00720017
0.0536255 0.016939 0.00748429
0.0539405 0.0179559 0.00705169
0.0539023 0.0177719 0.00711934
0.053459 0.0163293 0.00779797
0.0538639 0.0175917 0.00719715
0.0535839 0.0167573 0.00756291
0.0596758 0.0173726 0.00726388
0.0599502 0.0179862 0.00716822
0.0539794 0.0177118 0.00714049
0.0598044 0.016919 0.00755585
0.059875 0.0180521 0.00716774
0.0476316 0.0169492 0.00745096
0.0537514 0.017896 0.00707525
0.0596075 0.0166025 0.0078714
0.0538647 0.0180143 0.00701947
0.0598773 0.018502 0.00715884
0.0537133 0.0177158 0.00715306
0.0475484 0.0166073 0.00763711
0.0596285 0.0166716 0.0078022
0.0538054 0.0173217 0.00731382
0.0536139 0.017266 0.00734746
0.0600976 0.0177835 0.0071706
0.0539976 0.0173803 0.0072789
0.0477052 0.0168819 0.00745863
0.0475986 0.0172056 0.00739536
0.0536561 0.0173367 0.00740415
0.0540211 0.0183439 0.00701798
0.0475574 0.0170159 0.00744349
0.0536144 0.0165146 0.0076633
0.0537013 0.016873 0.007508
0.060033 0.018375 0.00715964
0.0540598 0.0185399 0.00702719
0.0540406 0.0184419 0.0070226
0.0541348 0.018474 0.00703223
0.0473669 0.0163038 0.00792881
0.047431 0.0165116 0.0077222
0.0473455 0.0162345 0.00799769
0.0538221 0.01699 0.00745234
0.0536485 0.0169188 0.0075795
0.0473882 0.0163731 0.00785993
0.0475165 0.0168274 0.00749632
0.0539607 0.0180534 0.0070426
0.0541281 0.0180179 0.00701849
0.0476603 0.0174902 0.00732316
0.0538459 0.0179244 0.00705915
0.0600028 0.0177518 0.00717226
0.0477014 0.0176799 0.00727503
0.0476107 0.0168537 0.00747521
0.0474956 0.0167402 0.00754051
0.053351 0.0159788 0.00827229
0.0539216 0.017862 0.00708045
0.0538275 0.0182725 0.00699802
0.0538845 0.0181102 0.00699922
0.047722 0.0177747 0.00725097
0.0537214 0.0169629 0.00746912
0.053983 0.0186039 0.00702193
0.0541154 0.0183758 0.00702761
0.0474739 0.0166618 0.0075987
0.0538474 0.0183732 0.00700535
0.0476193 0.0173004 0.00737128
0.0539569 0.0171987 0.00735742
0.0539248 0.0183098 0.00700809
0.0536105 0.017254 0.00744669
0.0538082 0.0181744 0.00699342
0.0599828 0.0176539 0.00717442
0.0539987 0.0178019 0.00710159
0.0478163 0.0178035 0.00723427
0.053906 0.0186674 0.00701663
0.0477418 0.0178698 0.00722695
0.0539039 0.0182082 0.00700324
0.0537887 0.0180764 0.0069974
0.0539276 0.0187621 0.00704183
0.0540318 0.0179849 0.00702289
0.0475371 0.016921 0.00746754
0.0476522 0.0170441 0.00742689
0.0537962 0.0169004 0.0074914
0.0475679 0.0166767 0.00756784
0.0474095 0.0164424 0.00779104
0.0539635 0.0185058 0.0070173
0.0539442 0.0184078 0.0070127
0.053867 0.0184712 0.00700739
0.0540015 0.018246 0.00701335
0.0538865 0.0185694 0.00701202
0.0536791 0.0167835 0.00754679
0.0538416 0.0170801 0.00741344
0.0540518 0.0180824 0.0070133
0.0535918 0.0164238 0.00770267
0.0540174 0.0178928 0.00706247
0.0539478 0.0188588 0.007026
0.0477343 0.0174233 0.00733068
0.0540054 0.0187012 0.0070268
0.0597832 0.01685 0.00762503
0.0474522 0.0165809 0.00765328
0.0476809 0.017585 0.0072991
0.0597915 0.017357 0.00726404

VERTICES 287 574
1 0
1 1
1 2
1 3
1 4
1 5
1 6
1 7
1 8
1 9
1 10
1 11
1 12
1 13
1 14
1 15
1 16
1 17
1 18
1 19
1 20
1 21
1 22
1 23
1 24
1 25
1 26
1 27
1 28
1 29
1 30
1 31
1 32
1 33
1 34
1 35
1 36
1 37
1 38
1 39
1 40
1 41
1 42
1 43
1 44
1 45
1 46
1 47
1 48
1 49
1 50
1 51
1 52
1 53
1 54
1 55
1 56
1 57
1 58
1 59
1 60
1 61
1 62
1 63
1 64
1 65
1 66
1 67
1 68
1 69
1 70
1 71
1 72
1 73
1 74
1 75
1 76
1 77
1 78
1 79
1 80
1 81
1 82
1 83
1 84
1 85
1 86
1 87
1 88
1 89
1 90
1 91
1 92
1 93
1 94
1 95
1 96
1 97
1 98
1 99
1 100
1 101
1 102
1 103
1 104
1 105
1 106
1 107
1 108
1 109
1 110
1 111
1 112
1 113
1 114
1 115
1 116
1 117
1 118
1 119
1 120
1 121
1 122
1 123
1 124
1 125
1 126
1 127
1 128
1 129
1 130
1 131
1 132
1 133
1 134
1 135
1 136
1 137
1 138
1 139
1 140
1 141
1 142
1 143
1 144
1 145
1 146
1 147
1 148
1 149
1 150
1 151
1 152
1 153
1 154
1 155
1 156
1 157
1 158
1 159
1 160
1 161
1 162
1 163
1 164
1 165
1 166
1 167
1 168
1 169
1 170
1 171
1 172
1 173
1 174
1 175
1 176
1 177
1 178
1 179
1 180
1 181
1 182
1 183
1 184
1 185
1 186
1 187
1 188
1 189
1 190
1 191
1 192
1 193
1 194
1 195
1 196
1 197
1 198
1 199
1 200
1 201
1 202
1 203
1 204
1 205
1 206
1 207
1 208
1 209
1 210
1 211
1 212
1 213
1 214
1 215
1 216
1 217
1 218
1 219
1 220
1 221
1 222
1 223
1 224
1 225
1 226
1 227
1 228
1 229
1 230
1 231
1 232
1 233
1 234
1 235
1 236
1 237
1 238
1 239
1 240
1 241
1 242
1 243
1 244
1 245
1 246
1 247
1 248
1 249
1 250
1 251
1 252
1 253
1 254
1 255
1 256
1 257
1 258
1 259
1 260
1 261
1 262
1 263
1 264
1 265
1 266
1 267
1 268
1 269
1 270
1 271
1 272
1 273
1 274
1 275
1 276
1 277
1 278
1 279
1 280
1 281
1 282
1 283
1 284
1 285
1 286

POINT_DATA 287
SCALARS id int 1
LOOKUP_TABLE default
1
2
3
4
5
6
7
8
9
10
11
12
13
14
15
16
17
18
19
21
22
23
24
25
26
27
28
29
30
31
32
33
34
35
36
37
38
39
41
42
44
45
46
47
48
49
50
51
52
53
54
55
56
57
59
60
61
62
63
64
65
66
67
68
69
70
71
72
73
74
76
77
78
79
80
81
82
83
84
85
86
87
88
89
90
91
92
93
94
95
96
97
98
99
100
101
102
103
104
105
106
107
108
109
110
111
112
113
114
115
116
117
118
119
120
121
122
123
124
125
126
127
128
129
130
131
132
133
134
135
136
137
138
140
141
142
143
144
146
147
148
149
150
151
153
154
155
156
157
158
159
160
162
164
165
166
167
168
169
170
171
172
173
174
175
176
177
178
179
181
182
183
184
185
186
187
188
189
190
191
192
193
194
195
196
197
198
199
200
201
202
203
204
205
206
207
208
209
210
211
212
213
214
215
216
217
218
219
220
221
222
223
224
225
226
227
228
229
230
231
232
233
234
235
236
237
239
240
241
242
243
244
246
247
248
249
250
251
252
253
254
255
256
257
258
259
260
261
262
263
264
265
266
267
268
269
270
271
272
273
274
275
276
277
278
279
280
281
282
283
284
285
286
287
288
289
290
291
292
293
294
295
296
297
298
299
300

SCALARS type int 1
LOOKUP_TABLE default
1
1
1
1
1
1
1
1
1
1
1
1
1
1
1
1
1
1
1
1
1
1
1
1
1
1
1
1
1
1
1
1
1
1
1
1
1
1
1
1
1
1
1
1
1
1
1
1
1
1
1
1
1
1
1
1
1
1
1
1
1
1
1
1
1
1
1
1
1
1
1
1
1
1
1
1
1
1
1
1
1
1
1
1
1
1
1
1
1
1
1
1
1
1
1
1
1
1
1
1
1
1
1
1
1
1
1
1
1
1
1
1
1
1
1
1
1
1
1
1
1
1
1
1
1
1
1
1
1
1
1
1
1
1
1
1
1
1
1
1
1
1
1
1
1
1
1
1
1
1
1
1
1
1
1
1
1
1
1
1
1
1
1
1
1
1
1
1
1
1
1
1
1
1
1
1
1
1
1
1
1
1
1
1
1
1
1
1
1
1
1
1
1
1
1
1
1
1
1
1
1
1
1
1
1
1
1
1
1
1
1
1
1
1
1
1
1
1
1
1
1
1
1
1
1
1
1
1
1
1
1
1
1
1
1
1
1
1
1
1
1
1
1
1
1
1
1
1
1
1
1
1
1
1
1
1
1
1
1
1
1
1
1
1
1
1
1
1
1
1
1
1
1
1
1
1
1
1
1
1
1
1
1
1
1
1
1

SCALARS radius float 1
LOOKUP_TABLE default
5e-05
5e-05
5e-05
5e-05
5e-05
5e-05
5e-05
5e-05
5e-05
5e-05
5e-05
5e-05
5e-05
5e-05
5e-05
5e-05
5e-05
5e-05
5e-05
5e-05
5e-05
5e-05
5e-05
5e-05
5e-05
5e-05
5e-05
5e-05
5e-05
5e-05
5e-05
5e-05
5e-05
5e-05
5e-05
5e-05
5e-05
5e-05
5e-05
5e-05
5e-05
5e-05
5e-05
5e-05
5e-05
5e-05
5e-05
5e-05
5e-05
5e-05
5e-05
5e-05
5e-05
5e-05
5e-05
5e-05
5e-05
5e-05
5e-05
5e-05
5e-05
5e-05
5e-05
5e-05
5e-05
5e-05
5e-05
5e-05
5e-05
5e-05
5e-05
5e-05
5e-05
5e-05
5e-05
5e-05
5e-05
5e-05
5e-05
5e-05
5e-05
5e-05
5e-05
5e-05
5e-05
5e-05
5e-05
5e-05
5e-05
5e-05
5e-05
5e-05
5e-05
5e-05
5e-05
5e-05
5e-05
5e-05
5e-05
5e-05
5e-05
5e-05
5e-05
5e-05
5e-05
5e-05
5e-05
5e-05
5e-05
5e-05
5e-05
5e-05
5e-05
5e-05
5e-05
5e-05
5e-05
5e-05
5e-05
5e-05
5e-05
5e-05
5e-05
5e-05
5e-05
5e-05
5e-05
5e-05
5e-05
5e-05
5e-05
5e-05
5e-05
5e-05
5e-05
5e-05
5e-05
5e-05
5e-05
5e-05
5e-05
5e-05
5e-05
5e-05
5e-05
5e-05
5e-05
5e-05
5e-05
5e-05
5e-05
5e-05
5e-05
5e-05
5e-05
5e-05
5e-05
5e-05
5e-05
5e-05
5e-05
5e-05
5e-05
5e-05
5e-05
5e-05
5e-05
5e-05
5e-05
5e-05
5e-05
5e-05
5e-05
5e-05
5e-05
5e-05
5e-05
5e-05
5e-05
5e-05
5e-05
5e-05
5e-05
5e-05
5e-05
5e-05
5e-05
5e-05
5e-05
5e-05
5e-05
5e-05
5e-05
5e-05
5e-05
5e-05
5e-05
5e-05
5e-05
5e-05
5e-05
5e-05
5e-05
5e-05
5e-05
5e-05
5e-05
5e-05
5e-05
5e-05
5e-05
5e-05
5e-05
5e-05
5e-05
5e-05
5e-05
5e-05
5e-05
5e-05
5e-05
5e-05
5e-05
5e-05
5e-05
5e-05
5e-05
5e-05
5e-05
5e-05
5e-05
5e-05
5e-05
5e-05
5e-05
5e-05
5e-05
5e-05
5e-05
5e-05
5e-05
5e-05
5e-05
5e-05
5e-05
5e-05
5e-05
5e-05
5e-05
5e-05
5e-05
5e-05
5e-05
5e-05
5e-05
5e-05
5e-05
5e-05
5e-05
5e-05
5e-05
5e-05
5e-05
5e-05
5e-05
5e-05
5e-05
5e-05
5e-05
5e-05
5e-05
5e-05
5e-05
5e-05
5e-05
5e-05
5e-05
5e-05
5e-05
5e-05
5e-05
5e-05
5e-05
5e-05
5e-05
5e-05
5e-05

SCALARS mass float 1
LOOKUP_TABLE default
1.46608e-10
1.46608e-10
1.46608e-10
1.46608e-10
1.46608e-10
1.46608e-10
1.46608e-10
1.46608e-10
1.46608e-10
1.46608e-10
1.46608e-10
1.46608e-10
1.46608e-10
1.46608e-10
1.46608e-10
1.46608e-10
1.46608e-10
1.46608e-10
1.46608e-10
1.46608e-10
1.46608e-10
1.46608e-10
1.46608e-10
1.46608e-10
1.46608e-10
1.46608e-10
1.46608e-10
1.46608e-10
1.46608e-10
1.46608e-10
1.46608e-10
1.46608e-10
1.46608e-10
1.46608e-10
1.46608e-10
1.46608e-10
1.46608e-10
1.46608e-10
1.46608e-10
1.46608e-10
1.46608e-10
1.46608e-10
1.46608e-10
1.46608e-10
1.46608e-10
1.46608e-10
1.46608e-10
1.46608e-10
1.46608e-10
1.46608e-10
1.46608e-10
1.46608e-10
1.46608e-10
1.46608e-10
1.46608e-10
1.46608e-10
1.46608e-10
1.46608e-10
1.46608e-10
1.46608e-10
1.46608e-10
1.46608e-10
1.46608e-10
1.46608e-10
1.46608e-10
1.46608e-10
1.46608e-10
1.46608e-10
1.46608e-10
1.46608e-10
1.46608e-10
1.46608e-10
1.46608e-10
1.46608e-10
1.46608e-10
1.46608e-10
1.46608e-10
1.46608e-10
1.46608e-10
1.46608e-10
1.46608e-10
1.46608e-10
1.46608e-10
1.46608e-10
1.46608e-10
1.46608e-10
1.46608e-10
1.46608e-10
1.46608e-10
1.46608e-10
1.46608e-10
1.46608e-10
1.46608e-10
1.46608e-10
1.46608e-10
1.46608e-10
1.46608e-10
1.46608e-10
1.46608e-10
1.46608e-10
1.46608e-10
1.46608e-10
1.46608e-10
1.46608e-10
1.46608e-10
1.46608e-10
1.46608e-10
1.46608e-10
1.46608e-10
1.46608e-10
1.46608e-10
1.46608e-10
1.46608e-10
1.46608e-10
1.46608e-10
1.46608e-10
1.46608e-10
1.46608e-10
1.46608e-10
1.46608e-10
1.46608e-10
1.46608e-10
1.46608e-10
1.46608e-10
1.46608e-10
1.46608e-10
1.46608e-10
1.46608e-10
1.46608e-10
1.46608e-10
1.46608e-10
1.46608e-10
1.46608e-10
1.46608e-10
1.46608e-10
1.46608e-10
1.46608e-10
1.46608e-10
1.46608e-10
1.46608e-10
1.46608e-10
1.46608e-10
1.46608e-10
1.46608e-10
1.46608e-10
1.46608e-10
1.46608e-10
1.46608e-10
1.46608e-10
1.46608e-10
1.46608e-10
1.46608e-10
1.46608e-10
1.46608e-10
1.46608e-10
1.46608e-10
1.46608e-10
1.46608e-10
1.46608e-10
1.46608e-10
1.46608e-10
1.46608e-10
1.46608e-10
1.46608e-10
1.46608e-10
1.46608e-10
1.46608e-10
1.46608e-10
1.46608e-10
1.46608e-10
1.46608e-10
1.46608e-10
1.46608e-10
1.46608e-10
1.46608e-10
1.46608e-10
1.46608e-10
1.46608e-10
1.46608e-10
1.46608e-10
1.46608e-10
1.46608e-10
1.46608e-10
1.46608e-10
1.46608e-10
1.46608e-10
1.46608e-10
1.46608e-10
1.46608e-10
1.46608e-10
1.46608e-10
1.46608e-10
1.46608e-10
1.46608e-10
1.46608e-10
1.46608e-10
1.46608e-10
1.46608e-10
1.46608e-10
1.46608e-10
1.46608e-10
1.46608e-10
1.46608e-10
1.46608e-10
1.46608e-10
1.46608e-10
1.46608e-10
1.46608e-10
1.46608e-10
1.46608e-10
1.46608e-10
1.46608e-10
1.46608e-10
1.46608e-10
1.46608e-10
1.46608e-10
1.46608e-10
1.46608e-10
1.46608e-10
1.46608e-10
1.46608e-10
1.46608e-10
1.46608e-10
1.46608e-10
1.46608e-10
1.46608e-10
1.46608e-10
1.46608e-10
1.46608e-10
1.46608e-10
1.46608e-10
1.46608e-10
1.46608e-10
1.46608e-10
1.46608e-10
1.46608e-10
1.46608e-10
1.46608e-10
1.46608e-10
1.46608e-10
1.46608e-10
1.46608e-10
1.46608e-10
1.46608e-10
1.46608e-10
1.46608e-10
1.46608e-10
1.46608e-10
1.46608e-10
1.46608e-10
1.46608e-10
1.46608e-10
1.46608e-10
1.46608e-10
1.46608e-10
1.46608e-10
1.46608e-10
1.46608e-10
1.46608e-10
1.46608e-10
1.46608e-10
1.46608e-10
1.46608e-10
1.46608e-10
1.46608e-10
1.46608e-10
1.46608e-10
1.46608e-10
1.46608e-10
1.46608e-10
1.46608e-10
1.46608e-10
1.46608e-10
1.46608e-10
1.46608e-10
1.46608e-10
1.46608e-10
1.46608e-10
1.46608e-10
1.46608e-10
1.46608e-10
1.46608e-10
1.46608e-10
1.46608e-10
1.46608e-10
1.46608e-10
1.46608e-10

VECTORS velocity float
0.00593124 8.72013e-05 8.04842e-06
0.0059287 0.000252606 -0.000101503
0.00587112 0.00052096 0.000504229
0.00557275 0.000178379 -6.35888e-05
0.00588872 0.000121808 -2.7752e-05
0.0059409 -0.000601687 0.00029518
0.00615152 7.41477e-05 2.53519e-05
0.00574902 0.000196536 -0.00010537
0.00556762 -0.00055603 0.000225613
0.00605558 7.93586e-05 1.88071e-05
0.00567579 0.000313784 -6.87869e-05
0.00609687 -0.000453302 -0.000135541
0.0058513 0.000128428 -3.68263e-05
0.00584802 0.00039244 0.000699247
0.00598614 9.74721e-05 -2.88387e-06
0.00578007 0.000351571 0.000735046
0.00603056 8.37049e-05 1.37278e-05
0.00567882 -0.000552058 0.000265095
0.0058384 0.000149256 -5.61138e-05
0.00590345 9.31333e-05 1.51495e-06
0.00578987 1.35982e-05 1.16618e-05
0.00570528 -0.000325898 -0.000168651
0.00558523 -0.000540929 0.000226113
0.0061287 7.53706e-05 2.34663e-05
0.00552781 -0.000522881 0.00024945
0.00558165 -0.000433831 -0.000119637
0.00560094 0.000170406 -6.46651e-05
0.00582292 0.000175871 -8.07668e-05
0.00581822 0.000197073 -6.78013e-05
0.00493427 0.000189389 -0.00011365
0.00607461 0.000104972 -6.6456e-06
0.00594976 -0.000603837 0.000296736
0.00599879 8.93536e-05 6.10234e-06
0.00614515 9.55533e-05 2.89652e-06
0.0053838 -0.000467394 -0.000266721
0.00616194 0.000120602 -2.19612e-05
0.00605642 0.000160733 -5.81967e-05
0.00556842 -0.000538959 0.000225432
0.00595053 0.000107017 -1.0283e-05
0.00584546 5.65051e-05 3.85438e-05
0.00598941 0.000164988 -7.01699e-05
0.00596363 -0.000607214 0.000298877
0.00563721 -0.000544075 0.000261239
0.00597621 9.75039e-05 -1.47359e-06
0.00584016 3.26509e-05 -5.64452e-05
0.00556194 -0.000527914 0.000252289
0.0055207 0.000149232 -6.93852e-05
0.0055461 0.000138696 -7.61431e-05
0.00612093 -0.000439777 -0.000133731
0.00565169 -0.000560918 0.000235514
0.00586726 0.000100088 -6.48451e-06
0.0058847 0.000276154 0.000664947
0.00618392 9.56411e-05 3.40139e-06
0.00596524 -0.000614267 0.000301892
0.00623535 0.000200751 -0.000101412
0.00623917 0.000147239 -4.68706e-05
0.0059265 0.000113724 -1.77079e-05
0.00590706 0.000175827 -7.36943e-05
0.00576017 0.00015918 -6.75869e-05
0.00560457 -0.000549154 0.000227556
0.00604393 -0.000551234 -0.000136803
0.00602881 -0.000451569 -0.000141574
0.00574427 0.000303432 -6.81142e-05
0.00565571 0.000248439 -6.67815e-05
0.00601438 7.23512e-05 2.4988e-05
0.00555965 -0.000549081 0.000224781
0.00588994 0.000413066 0.000647671
0.0057192 0.000228208 -6.46722e-05
0.00608811 7.44173e-05 2.31957e-05
0.00588488 8.87633e-05 -4.14046e-06
0.00537679 -0.000341189 -0.000144383
0.00560996 0.000218232 -6.53582e-05
0.00581013 0.000102052 -0.000285845
0.00608411 -0.00046537 -0.000131947
0.00543474 0.000189001 -6.28652e-05
0.00613308 -0.00054906 -0.000142226
0.00557642 -0.000436932 -0.000114999
0.00608608 -0.000465762 -0.000125445
0.00542469 -0.000516503 0.000238102
0.00593937 0.000378377 0.000717591
0.00563343 0.000179 -7.13455e-05
0.00615737 0.000126897 -2.8637e-05
0.0055631 0.000220596 -6.49837e-05
0.00540726 0.000199051 -6.23206e-05
0.00596449 0.000221563 -0.000121556
0.00607066 -0.000472332 -0.000127631
0.00567664 0.000250798 -6.70345e-05
0.00550876 0.000222255 -6.55082e-05
0.00554307 0.000265996 -6.51688e-05
0.00554181 0.000157124 -6.36731e-05
0.0056589 0.000256587 -6.70431e-05
0.00617947 -0.00027821 5.61467e-05
0.00558647 0.00022454 -6.61695e-05
0.0060928 -0.00047166 -0.000129256
0.00614819 0.00018624 -8.93196e-05
0.00615385 -0.000382796 -0.000157325
4.15673e-15 1.05769e-14 8.29558e-14
-3.50766e-23 4.86658e-23 1.23839e-22
0.00559789 -0.000353514 -0.000150669
0.00612981 0.00041397 0.00051124
0.00562968 -0.000318949 -0.000166872
0.00609355 0.00024373 1.17077e-06
0.00609344 7.00043e-05 2.99429e-05
0.00567345 7.98414e-05 -7.37086e-05
0.00568437 0.000310244 -6.82902e-05
0.00563076 0.000201604 -6.54183e-05
0.00614186 -0.000411067 -0.000115403
0.00533474 -0.000280314 -0.000167606
0.00580924 -0.000386242 -0.000146586
0.00586132 0.000104509 -6.15814e-05
0.00604499 6.97634e-05 2.90043e-05
0.00582465 0.000108504 -1.56757e-05
0.00599477 0.000456072 0.000626187
0.00618315 0.000130933 -3.16745e-05
0.00578074 0.000191508 -9.77168e-05
0.0057338 0.000203555 -0.000113043
0.00564302 0.000323449 -6.83537e-05
0.00591485 0.00037923 0.000688389
0.00555249 0.000192115 -6.44284e-05
0.00581702 0.000150506 -5.80259e-05
0.0058613 3.10643e-05 3.03539e-06
0.00617387 0.000290753 0.00044974
0.00550545 0.000142863 -6.19069e-05
0.00551072 0.000228254 -6.49386e-05
0.00558095 -0.000432004 -0.000116863
0.00604358 -0.000497734 -0.00013359
0.00554997 0.000180462 -6.48611e-05
0.00594152 6.64869e-05 2.83064e-05
0.00613078 8.56984e-05 -0.000117263
0.00579407 0.000153358 -5.94625e-05
0.00587583 0.000378195 0.000723484
0.00568145 0.000203799 -6.58955e-05
0.00598202 7.7105e-05 2.05407e-05
0.00558319 0.000340962 -6.80997e-05
0.00590059 0.000364096 0.000683716
0.00567385 -0.000367888 -0.000163873
0.00600021 0.000143411 0.000191017
0.00597158 -0.000420931 -0.000144619
0.00608757 -0.000466189 -0.000127954
0.00578534 0.000378573 0.000702067
0.00564994 -0.000458349 -0.000109816
0.0056254 0.000221036 -6.60385e-05
0.00608645 -0.000459301 -0.000133399
0.00567779 -0.000263152 -0.000192933
0.00601042 -0.000488952 -0.000109942
0.00566079 -0.00047382 -0.000103512
0.00528861 -0.000343996 -0.000196691
0.00563592 -0.000487542 -9.63334e-05
-3.82777e-14 8.16915e-14 2.95888e-13
0.00554024 -0.000341378 -0.000153044
0.00564413 0.000254421 -6.78078e-05
0.00539563 -0.000409204 -0.000116487
0.00549623 -0.00038219 -0.000133251
0.00551245 -0.000225829 0.000502896
0.00542067 -0.00021294 -0.000199957
0.00588132 7.28165e-05 2.19669e-05
0.0060916 -0.000409226 -0.000159851
0.00559315 -0.000291735 -0.000176316
0.00535501 -0.000434618 -0.000121811
0.00543572 -0.00024343 -0.000187919
0.00590658 6.87274e-05 2.69025e-05
0.00556647 -0.000226456 -0.000202327
0.00579706 0.000379765 -7.36932e-05
0.00540009 -0.000300466 -0.000163522
0.00590263 0.000978327 -0.000855248
0.00558474 -0.000481568 -9.04585e-05
0.005446 -0.000398426 -0.00012354
0.00540343 -0.000175716 -0.00021498
0.00521344 -0.000409338 -0.000106772
0.00545744 -0.00041693 -0.000116353
0.00595831 8.17301e-05 1.48473e-05
0.00552042 -0.000281197 -0.000177263
0.0056249 0.000241993 -7.09858e-05
0.00561835 -0.000451282 -0.000110857
0.0056738 -0.00046074 -0.000109645
0.00621182 0.000175678 -7.66362e-05
0.0055347 0.000224869 -6.55779e-05
0.00604729 0.000201578 -0.000106759
0.00590247 0.000970335 -0.000853331
0.00569781 0.000199689 -6.70925e-05
0.00575063 -0.000325667 -0.00017087
0.00603394 5.23442e-05 4.57215e-05
0.00606314 -0.000472567 -0.000126162
0.00533883 -0.00026271 -0.000176029
0.00572407 0.000322085 0.000766966
0.00591041 0.000978882 -0.00085605
0.00580485 -0.000424054 -0.000150038
0.00543988 -0.000371312 -0.000134971
0.00574961 -0.000356212 -0.00016316
0.00552497 -0.000252368 0.000502565
0.00569043 -0.000315689 -0.000172179
0.00583118 0.000278281 -7.16922e-05
0.00607426 -0.000469785 -0.000130063
0.00536828 -0.000228658 1.09433e-05
0.0053369 -0.000284263 -0.000170582
0.00608991 0.000346328 0.000722754
0.0054767 -0.000324063 -0.000156409
0.00609432 -0.000458094 -0.000134292
0.00586267 9.2401e-05 -3.68804e-05
0.0055945 0.000269975 -6.69444e-05
0.00532228 -0.000296819 -0.000159786
0.00624673 0.000169575 -7.02244e-05
0.00553401 0.000206662 -6.47357e-05
0.0059046 0.000981608 -0.000856275
0.00540675 -0.00041463 -0.000115209
0.00596756 6.2307e-05 3.3269e-05
0.00535992 -0.000335961 -0.000144392
0.00560537 0.000198264 -6.55195e-05
0.00540671 -0.000408331 -0.000117434
0.00645661 0.00107646 -0.000374654
0.00598775 5.62509e-05 4.00087e-05
0.00564493 -0.000360076 -0.000151803
0.00558712 -0.000441338 -0.000112714
0.00570155 0.000321399 -6.87498e-05
0.00566026 -0.000224142 -0.000208597
0.00592486 0.0010074 -0.000863887
0.00590509 0.000977204 -0.000855137
0.00558301 -0.00043303 -0.000106714
0.00549388 -0.000231834 0.000499454
0.00590164 0.000977898 -0.000855188
0.00610447 -0.000380719 -0.000166367
0.00610012 -0.000459969 -0.00013437
0.00563655 0.000151845 -6.4759e-05
0.00547226 -0.00023374 0.000499173
0.00548824 -0.000233863 0.000500321
0.00548414 -0.000225618 0.000500519
0.00636623 0.00109586 -0.000406674
0.00645312 0.00109425 -0.000392981
0.00633962 0.00110592 -0.00041572
0.00599653 -0.00037539 -0.000163132
0.00605753 -0.000493862 -0.000138365
0.00637262 0.00109284 -0.000405644
0.00593941 0.00097873 -0.0008257
0.00545061 -0.00021351 0.000330641
0.00549359 -0.000277123 0.0005032
0.0059137 0.000980146 -0.000856727
0.005383 -0.000314954 -8.9664e-05
0.00569836 0.000311919 -6.845e-05
0.00591853 0.000977898 -0.000856208
0.00592799 0.000993885 -0.000862003
0.00646739 0.00104018 -0.000452506
0.00581164 0.000366516 0.000691476
0.00532835 -0.000277217 -0.000161485
0.00545051 -0.000373624 0.000492729
0.00550569 -0.000384225 -0.00023301
0.00592025 0.00097512 -0.000856567
0.00606859 -0.000448275 -0.000138139
0.00545905 -0.000248726 0.000497714
0.00548941 -0.000237796 0.000501295
0.00647193 0.00108005 -0.000397853
0.00549414 -0.000236826 0.000501087
0.00590766 0.000977704 -0.00085558
0.00575577 -0.000269186 -0.000194479
0.00549829 -0.000239738 0.000501686
0.00556467 -0.000442103 -0.000112144
0.00546466 -0.000375294 0.000494038
0.00566999 0.000317041 -6.83856e-05
0.00532108 -0.000291771 -0.000161337
0.00581435 0.00127959 -0.000915457
0.00544539 -0.000255856 0.000496076
0.00557798 0.0010498 -0.000837286
0.00544094 -0.000393436 0.000493806
0.00547904 -0.000405192 -0.000123002
0.005777 -0.000322403 0.000527824
0.00530121 -0.000240709 -0.000177684
0.00590542 0.000975286 -0.000855202
0.00590107 0.000979888 -0.000855303
0.00607791 -0.000447763 -0.000137104
0.00648135 0.00108018 -0.000370074
0.00641162 0.00110098 -0.000403098
0.00548104 -0.000238353 0.000499726
0.00549379 -0.000239975 0.000501245
0.00548123 -0.000230828 0.0004994
0.00551461 -0.000228471 0.000502539
0.00546367 -0.000254913 0.00049801
0.00610537 -0.000467034 -0.000130804
0.00585503 -0.000345772 -0.000167908
0.00552266 -0.000225272 0.000507241
0.00608238 -0.000433706 -0.000143806
0.00530352 -0.0003279 -0.000156393
0.00583065 -0.000332636 0.000529655
0.00591085 0.000979178 -0.00085617
0.00576419 -0.000324197 0.00052351
0.00619528 0.000177402 -7.83767e-05
0.00645597 0.00108916 -0.000386912
0.00591659 0.000979616 -0.000856943
0.00588113 0.000158098 -6.11114e-05

VECTORS force float
8.36865e-11 2.30059e-11 -1.27595e-11
6.74373e-11 -3.61282e-11 -1.15122e-10
-7.90721e-10 9.81539e-10 -7.62301e-10
-1.00688e-10 -1.64206e-10 4.01046e-11
-1.19192e-10 -1.52003e-10 1.33074e-10
7.35553e-12 2.11221e-12 -1.44947e-12
3.02056e-12 8.08294e-11 -1.02711e-10
2.85445e-11 -1.23894e-11 -1.92997e-11
1.39105e-10 1.45879e-10 -8.52367e-11
2.5988e-11 1.90732e-11 -1.09322e-11
-3.29376e-11 2.25901e-11 -1.13107e-11
1.45509e-10 3.70578e-11 1.19778e-11
2.78305e-11 -1.18459e-10 1.18436e-10
1.65722e-10 3.41312e-10 -4.28431e-10
1.12701e-09 -1.39735e-10 1.82171e-10
1.00896e-10 3.61628e-10 -5.22336e-10
-4.84232e-11 -3.93488e-11 2.40932e-12
-9.67534e-12 -1.99446e-11 5.83869e-12
1.84321e-10 5.7498e-11 -2.35581e-11
3.51681e-11 -1.36174e-11 5.73244e-12
-6.32433e-11 -2.40007e-10 1.7252e-10
5.30098e-11 1.64307e-10 -5.93494e-11
5.36693e-11 -2.02048e-11 -9.90396e-12
1.5161e-10 8.56212e-11 -9.461e-11
-1.21316e-10 -3.41846e-11 1.37342e-11
9.87043e-11 2.73128e-11 -8.19746e-11
-3.65569e-10 1.22193e-10 -3.04273e-11
-1.29365e-10 3.28243e-11 -6.09512e-11
1.06487e-12 7.10117e-11 2.66857e-11
-5.33783e-10 -1.30863e-10 9.67e-11
1.15885e-10 -4.64087e-11 5.2368e-12
-1.39699e-11 2.35654e-11 -8.25729e-12
4.15465e-11 -2.12975e-11 2.26158e-11
-3.97826e-11 3.5523e-11 -2.91474e-11
-6.79033e-10 -8.99571e-11 4.51485e-10
1.95033e-10 1.43791e-10 -1.31589e-10
-4.21268e-11 -9.0916e-11 4.03114e-11
6.67663e-11 -2.34056e-10 -3.27078e-11
1.81474e-11 1.38244e-11 -6.8762e-12
-1.65308e-11 -1.46502e-10 1.60756e-10
1.46513e-11 -1.62187e-10 1.21565e-10
-7.42463e-11 -1.11818e-11 6.1895e-12
7.45518e-12 -2.78728e-11 3.77722e-12
6.28823e-11 4.50397e-11 -8.92017e-12
2.1147e-10 1.27392e-10 9.50402e-12
5.33592e-11 -9.07407e-12 6.98734e-12
-5.78175e-10 5.86267e-10 -4.20431e-11
-2.10736e-10 -5.75136e-10 -7.82224e-11
2.30662e-10 2.40524e-11 1.80818e-10
2.77441e-13 3.78164e-11 -3.9358e-11
-1.32955e-10 -9.6312e-11 7.69169e-11
-1.74115e-10 1.50808e-11 6.5688e-10
-1.58876e-10 2.48473e-11 -2.13436e-11
3.32455e-10 -7.44909e-11 3.29713e-11
-8.62586e-11 -3.7983e-11 3.2239e-11
-2.73706e-10 -6.31512e-11 6.93266e-11
-3.12854e-11 -4.7639e-11 5.58519e-11
6.7024e-11 -2.34795e-10 3.12101e-11
-6.96625e-10 2.99085e-10 -1.11821e-10