ITEM: TIMESTEP
6200000
ITEM: NUMBER OF ATOMS
287
ITEM: BOX BOUNDS ff ff ff
-0.02 0.43
-0.02 0.06
-0.02 0.07
ITEM: ATOMS id type x y z vx vy vz fx fy fz radius mass 
1 1 0.0490335 0.0166145 0.00779851 0.00618569 0.00052675 0.00016283 -2.11166e-10 -8.03289e-11 1.87488e-10 5e-05 1.46608e-10 
2 1 0.049404 0.0173267 0.00719018 0.00569679 0.000503983 -0.000564517 -1.51353e-10 -2.90403e-10 -9.29747e-10 5e-05 1.46608e-10 
3 1 0.0427799 0.0159835 0.00819313 0.00597832 -0.000381883 0.00018081 -5.84094e-11 6.04491e-11 -1.54728e-10 5e-05 1.46608e-10 
4 1 0.0493511 0.0179376 0.00708427 0.0054826 0.000401346 -0.000313744 2.11025e-10 1.44148e-10 -5.87675e-11 5e-05 1.46608e-10 
5 1 0.0489165 0.0165181 0.00788436 0.00605218 0.000467528 0.000204068 -3.35297e-11 -1.36238e-10 6.50434e-11 5e-05 1.46608e-10 
6 1 0.0549656 0.0166456 0.00767056 0.00610297 0.000331748 0.000828876 -1.04602e-11 -4.7826e-11 7.46661e-11 5e-05 1.46608e-10 
7 1 0.0490964 0.0171427 0.00726206 0.00595084 0.000544619 0.000119707 7.21696e-10 -1.31835e-10 4.5983e-10 5e-05 1.46608e-10 
8 1 0.0488098 0.0161717 0.00822876 0.00586717 0.000272781 0.000387109 -2.46021e-10 -3.71391e-10 3.50092e-10 5e-05 1.46608e-10 
9 1 0.0552258 0.017752 0.00711235 0.00556612 -0.000219835 0.00050857 6.83162e-12 6.31677e-11 -9.70316e-12 5e-05 1.46608e-10 
10 1 0.0490438 0.0169339 0.00747095 0.00603676 0.000513056 0.000152031 -6.02512e-10 1.80238e-10 -3.02366e-10 5e-05 1.46608e-10 
11 1 0.049464 0.0176156 0.00713618 0.00567736 0.000538077 -0.000357916 -2.02839e-10 2.50955e-10 -5.30778e-11 5e-05 1.46608e-10 
12 1 0.042989 0.0167091 0.00759545 0.00609134 -0.000269813 0.000355891 1.58634e-11 6.61201e-12 -2.33265e-11 5e-05 1.46608e-10 
13 1 0.0488951 0.0164489 0.00795324 0.00602988 0.000455954 0.00021287 -2.41876e-10 -5.25195e-10 5.25041e-10 5e-05 1.46608e-10 
14 1 0.0426975 0.0157503 0.00850749 0.00581291 -0.000329773 0.000120727 -2.97773e-10 -1.15601e-10 6.66878e-11 5e-05 1.46608e-10 
15 1 0.049232 0.0173595 0.00719223 0.0058108 0.00043238 -0.000464309 2.65903e-10 -5.73311e-10 -1.41646e-09 5e-05 1.46608e-10 
16 1 0.0426768 0.0156921 0.00858609 0.00574332 -0.000319816 0.00010744 -2.61406e-11 -1.88808e-10 1.83785e-10 5e-05 1.46608e-10 
17 1 0.0490231 0.0168645 0.00753997 0.00616673 0.000496071 0.000177857 8.21924e-10 4.73022e-10 -5.93838e-10 5e-05 1.46608e-10 
18 1 0.0551064 0.0171982 0.00729613 0.00572251 -0.000351729 -0.000158124 -1.59036e-10 1.25484e-11 4.00093e-12 5e-05 1.46608e-10 
19 1 0.0488738 0.0163796 0.00802212 0.00598351 0.000419171 0.000251123 -6.93816e-10 -9.85354e-10 9.69635e-10 5e-05 1.46608e-10 
21 1 0.0490121 0.0165452 0.00786739 0.00617683 0.000521861 0.000165509 -2.67625e-10 -2.93909e-11 -1.11879e-11 5e-05 1.46608e-10 
22 1 0.049137 0.017329 0.00720304 0.00589514 0.00042158 -0.000267938 5.74484e-11 1.45868e-10 7.05846e-10 5e-05 1.46608e-10 
23 1 0.04317 0.0171136 0.00746411 0.00592827 -0.000217481 0.00031887 -4.93223e-11 4.4673e-11 -2.80574e-11 5e-05 1.46608e-10 
24 1 0.0551665 0.017468 0.0071795 0.00551609 -0.000306565 -0.000166752 2.66751e-11 3.94053e-11 -2.02813e-11 5e-05 1.46608e-10 
25 1 0.0490788 0.0170731 0.00733169 0.00597765 0.000534116 0.000114239 5.89786e-10 -4.19687e-10 3.02325e-10 5e-05 1.46608e-10 
26 1 0.0550458 0.0169286 0.00741274 0.00567111 -0.000345487 -0.000157736 2.14973e-10 -1.15863e-10 3.72435e-11 5e-05 1.46608e-10 
27 1 0.0430721 0.0170802 0.00747154 0.00594175 -0.00025186 0.000332269 -2.30227e-11 5.31832e-11 -1.54133e-11 5e-05 1.46608e-10 
28 1 0.0493317 0.0178411 0.00710228 0.0055251 0.000422422 -0.000325689 -7.58551e-11 2.61109e-10 8.2712e-12 5e-05 1.46608e-10 
29 1 0.0488525 0.0163103 0.00809099 0.00593507 0.000357013 0.0003069 -3.20876e-10 -1.04922e-09 9.53716e-10 5e-05 1.46608e-10 
30 1 0.0493669 0.0175825 0.0071465 0.00566413 0.000500523 -0.000344543 5.39605e-10 -7.60379e-10 5.80961e-11 5e-05 1.46608e-10 
31 1 0.0491168 0.017234 0.00722699 0.0059636 0.000492504 -3.49657e-05 -2.79087e-10 -1.29851e-10 1.43117e-09 5e-05 1.46608e-10 
32 1 0.049212 0.0172635 0.00721195 0.00587871 0.000314297 -0.000953831 -1.67438e-11 -8.73533e-12 7.94579e-10 5e-05 1.46608e-10 
33 1 0.054986 0.016704 0.00759201 0.00614938 0.000334363 0.000835842 -6.74478e-11 -7.35433e-11 7.48301e-11 5e-05 1.46608e-10 
34 1 0.0490018 0.0167953 0.00760885 0.00619735 0.00046784 0.000217554 1.02632e-09 4.10287e-10 -3.55799e-10 5e-05 1.46608e-10 
35 1 0.0491928 0.0171721 0.00724779 0.00572357 0.000257769 -0.00127865 1.41314e-10 -2.90711e-10 -3.34096e-10 5e-05 1.46608e-10 
36 1 0.0552651 0.0179478 0.00712162 0.0053779 -0.000181799 0.000491877 2.65037e-12 6.94595e-11 9.95359e-13 5e-05 1.46608e-10 
37 1 0.0491544 0.0170422 0.00739484 0.00574533 0.000483133 -0.00108612 -2.49166e-11 -2.41535e-11 -1.28624e-09 5e-05 1.46608e-10 
38 1 0.0493068 0.0172937 0.00720137 0.00589957 0.000561514 -0.000162401 1.89026e-10 -6.60603e-10 -9.67076e-10 5e-05 1.46608e-10 
39 1 0.055186 0.017558 0.00714061 0.00539342 -0.000282533 -0.000168849 -2.6781e-11 5.50569e-11 -1.91048e-11 5e-05 1.46608e-10 
41 1 0.0489591 0.0166567 0.0077466 0.00612749 0.000482185 0.000209576 3.59482e-11 8.92365e-11 -3.33668e-11 5e-05 1.46608e-10 
42 1 0.049157 0.0174251 0.00718403 0.00573446 0.000414148 -0.000327881 5.24812e-10 -1.35304e-10 -5.32171e-10 5e-05 1.46608e-10 
44 1 0.0493268 0.0173898 0.00718249 0.00577464 0.000547298 -0.000371975 7.4054e-11 -3.12612e-10 -8.26598e-11 5e-05 1.46608e-10 
45 1 0.0550064 0.0167625 0.00751346 0.00620114 0.000336837 0.000846323 -1.57631e-11 -5.61876e-11 1.02124e-10 5e-05 1.46608e-10 
46 1 0.0550861 0.0171084 0.007335 0.00568424 -0.000346987 -0.000158117 -4.50869e-11 -9.25027e-12 4.35024e-12 5e-05 1.46608e-10 
47 1 0.0489805 0.016726 0.00767773 0.00613659 0.00046807 0.000214505 1.92374e-10 3.84388e-10 -2.05522e-10 5e-05 1.46608e-10 
48 1 0.049197 0.0176177 0.00714805 0.00568771 0.000391534 -0.000320534 2.00547e-10 6.87258e-12 -1.69827e-11 5e-05 1.46608e-10 
49 1 0.0550659 0.0170185 0.00737387 0.00566391 -0.000343865 -0.000158312 1.35417e-10 -9.30428e-12 -7.94315e-12 5e-05 1.46608e-10 
50 1 0.0492566 0.0179068 0.00709446 0.00548223 0.000408096 -0.000326516 1.48141e-10 -1.02191e-10 -9.00428e-12 5e-05 1.46608e-10 
51 1 0.0492371 0.0178103 0.00711208 0.00554065 0.000394187 -0.0003206 1.0375e-10 -2.40238e-10 3.04466e-11 5e-05 1.46608e-10 
52 1 0.0429675 0.0166165 0.00762643 0.00611534 -0.000278074 0.000358924 3.42407e-11 -1.05266e-11 -5.42705e-11 5e-05 1.46608e-10 
53 1 0.0551265 0.0172881 0.00725725 0.0057342 -0.000350997 -0.000159047 1.0075e-11 2.13248e-12 -2.32581e-12 5e-05 1.46608e-10 
54 1 0.0489904 0.0164756 0.00793659 0.00606062 0.000458427 0.000219904 -1.12386e-10 1.06491e-10 -2.06586e-10 5e-05 1.46608e-10 
55 1 0.0427387 0.015867 0.00835038 0.00589834 -0.000364309 0.000159803 2.04749e-10 1.43639e-10 -2.06167e-10 5e-05 1.46608e-10 
56 1 0.0491718 0.0171088 0.00732226 0.00579583 0.000776828 -0.000825254 -7.91214e-11 -5.67387e-12 -9.98361e-10 5e-05 1.46608e-10 
57 1 0.0550255 0.0168387 0.00745161 0.00565575 -0.000342335 -0.000160324 -1.43619e-11 -1.21116e-10 3.71239e-11 5e-05 1.46608e-10 
59 1 0.0492321 0.0169903 0.00743428 0.00589976 0.000921676 -0.000285875 -2.60423e-10 6.81025e-10 -5.70857e-10 5e-05 1.46608e-10 
60 1 0.0492482 0.01706 0.00736439 0.00568507 0.000969593 -0.000346039 -2.60519e-10 6.1384e-10 -6.77806e-10 5e-05 1.46608e-10 
61 1 0.0489378 0.0165874 0.00781548 0.00609354 0.000479247 0.000205736 -3.37219e-10 -2.90274e-11 -1.3048e-10 5e-05 1.46608e-10 
62 1 0.0493468 0.0174862 0.00716449 0.00569053 0.000508885 -0.000344648 1.65241e-10 -7.27267e-10 -6.72543e-11 5e-05 1.46608e-10 
63 1 0.0492921 0.0176484 0.00713826 0.00564742 0.00045311 -0.000338759 1.54378e-10 -5.69514e-10 -1.76926e-10 5e-05 1.46608e-10 
64 1 0.0551469 0.017378 0.00721839 0.00565613 -0.000334118 -0.000162061 3.99778e-11 1.60762e-11 -1.10282e-11 5e-05 1.46608e-10 
65 1 0.0430863 0.0167426 0.00758796 0.00608147 -0.000241713 0.000333988 5.00005e-11 2.846e-11 -6.11133e-13 5e-05 1.46608e-10 
66 1 0.0430233 0.0164644 0.00768081 0.00615701 -0.000274041 0.000350758 1.16862e-10 -1.59687e-11 1.91915e-11 5e-05 1.46608e-10 
67 1 0.049444 0.0175193 0.00715417 0.00563949 0.000550103 -0.0003639 5.14818e-10 -1.84232e-10 1.09608e-10 5e-05 1.46608e-10 
68 1 0.0494067 0.0177755 0.00711047 0.00547566 0.000322142 -0.000306204 6.68401e-10 1.31228e-09 -2.02218e-10 5e-05 1.46608e-10 
69 1 0.049098 0.0168228 0.00759144 0.00644553 0.0008331 -0.00012641 1.95858e-09 -1.55284e-09 1.86186e-09 5e-05 1.46608e-10 
70 1 0.0552058 0.0176547 0.00712459 0.00543694 -0.000236083 0.000170727 4.63894e-12 5.4249e-11 -2.39683e-11 5e-05 1.46608e-10 
71 1 0.0427183 0.0158086 0.00842893 0.00589713 -0.000353287 0.000147208 4.28998e-10 3.0014e-11 -1.01882e-10 5e-05 1.46608e-10 
72 1 0.0493871 0.0176791 0.00712845 0.00559077 0.000462948 -0.000338535 -6.85215e-10 -9.63779e-10 2.22343e-10 5e-05 1.46608e-10 
73 1 0.0490613 0.0170035 0.00740132 0.00598204 0.000530968 0.000125226 8.092e-10 -2.14491e-10 3.42761e-10 5e-05 1.46608e-10 
74 1 0.049252 0.0174558 0.00717426 0.00572253 0.00048163 -0.000263542 3.67321e-10 -1.83026e-10 3.38914e-10 5e-05 1.46608e-10 
76 1 0.0433126 0.0177636 0.00724697 0.00525004 -9.85209e-05 0.000257871 2.40869e-10 -2.09324e-10 7.32586e-11 5e-05 1.46608e-10 
77 1 0.0494669 0.0185079 0.00697788 0.00565673 0.000400785 -0.000330953 7.37379e-12 1.81452e-10 -2.85453e-11 5e-05 1.46608e-10 
78 1 0.0428008 0.0160418 0.00811457 0.00607581 -0.000386636 0.000183793 7.76381e-11 2.05006e-10 -3.00392e-10 5e-05 1.46608e-10 
79 1 0.0430094 0.0168019 0.00756442 0.00605879 -0.000265861 0.000343071 1.05346e-11 2.47568e-11 2.02403e-11 5e-05 1.46608e-10 
80 1 0.049315 0.0181961 0.00704066 0.00561388 0.000396474 -0.000330831 1.30381e-10 2.8059e-10 -2.04406e-11 5e-05 1.46608e-10 
81 1 0.0429464 0.0165255 0.00766217 0.00613613 -0.000293386 0.000344438 7.57492e-11 -1.66116e-11 3.94199e-11 5e-05 1.46608e-10 
82 1 0.043093 0.017173 0.00744058 0.00590182 -0.000245692 0.00032947 -2.67792e-12 6.00648e-11 -9.48464e-12 5e-05 1.46608e-10 
83 1 0.043077 0.0163119 0.00774051 0.00617424 -0.0003522 0.000138062 -2.45181e-11 -7.46696e-11 8.26903e-11 5e-05 1.46608e-10 
84 1 0.0552456 0.0178499 0.007117 0.00554979 -0.000216155 0.000506896 1.11064e-11 7.87107e-11 -1.74458e-12 5e-05 1.46608e-10 
85 1 0.0428964 0.0160567 0.00808953 0.00606887 -0.000390915 0.000186811 1.1728e-10 -1.22456e-11 2.10869e-11 5e-05 1.46608e-10 
86 1 0.0493121 0.0177447 0.00712027 0.00557473 0.000442133 -0.000325752 -2.82334e-10 -8.6423e-10 2.16674e-10 5e-05 1.46608e-10 
87 1 0.0492132 0.0169208 0.00750366 0.00633843 0.00101327 -0.000343655 6.20244e-10 1.33343e-09 -1.03623e-09 5e-05 1.46608e-10 
88 1 0.0493721 0.0184768 0.00698774 0.00564987 0.000404534 -0.000330771 1.91495e-10 3.07592e-10 -8.33423e-11 5e-05 1.46608e-10 
89 1 0.0493346 0.0182924 0.00702215 0.00562811 0.000396792 -0.000330844 4.9271e-11 2.21088e-10 -4.95428e-11 5e-05 1.46608e-10 
90 1 0.0493841 0.0172317 0.00721428 0.00593218 0.000644881 0.000245089 2.51938e-10 1.30154e-11 -7.67483e-11 5e-05 1.46608e-10 
91 1 0.0430303 0.0168947 0.00753346 0.00601737 -0.000258124 0.000335337 -2.15003e-11 2.66416e-11 4.26113e-12 5e-05 1.46608e-10 
92 1 0.0494457 0.0179685 0.00707445 0.00547305 0.000319807 -0.000306488 -6.21156e-10 1.75915e-10 -7.54789e-12 5e-05 1.46608e-10 
93 1 0.0494283 0.0183259 0.00701192 0.00564064 0.00038881 -0.000326954 9.83991e-11 2.14718e-10 -5.70023e-11 5e-05 1.46608e-10 
94 1 0.0495036 0.0182606 0.00702004 0.00561624 0.000341256 -0.000318281 -2.01628e-11 1.34795e-10 -2.4074e-11 5e-05 1.46608e-10 
95 1 0.0492955 0.0180996 0.00705812 0.00554649 0.000404824 -0.000329519 -5.3263e-12 1.25641e-10 -8.8191e-11 5e-05 1.46608e-10 
96 1 0.0494652 0.018065 0.00705646 0.00553378 0.000322133 -0.000308464 -1.31173e-10 -1.22995e-10 1.38645e-11 5e-05 1.46608e-10 
97 1 0.0429046 0.0163376 0.00771941 0.00623398 -0.000244007 0.000340878 -3.30553e-12 -1.62115e-11 3.49984e-12 5e-05 1.46608e-10 
98 1 0.0493917 0.0185732 0.00696976 0.00565746 0.000409262 -0.000332102 6.0125e-11 2.26139e-10 -2.70883e-11 5e-05 1.46608e-10 
99 1 0.043066 0.0166498 0.00761898 0.00610836 -0.000252192 0.000340224 6.70919e-11 3.62154e-12 -1.23848e-11 5e-05 1.46608e-10 
100 1 0.0493479 0.0170804 0.00733785 0.00583565 -0.000129343 -0.000646736 3.30286e-10 -2.43156e-11 -2.34193e-10 5e-05 1.46608e-10 
101 1 0.043003 0.0163774 0.00772571 0.00618289 -0.000301191 0.000323077 6.74211e-11 -5.49646e-11 -4.00523e-11 5e-05 1.46608e-10 
102 1 0.0643568 0.0187248 0.00531097 4.49704e-15 1.04926e-14 8.2949e-14 -3.35079e-21 5.65042e-22 9.2851e-23 5e-05 1.46608e-10 
103 1 0.24257 0.0191927 0.00520306 2.29399e-22 3.13141e-22 -5.81428e-22 0 2.58494e-26 0 5e-05 1.46608e-10 
104 1 0.0433278 0.0174235 0.00736431 0.00569654 -0.000168853 0.000293466 -2.29668e-12 -9.91603e-13 -4.21637e-11 5e-05 1.46608e-10 
105 1 0.0428633 0.0162193 0.00787523 0.00615536 -0.000372217 0.000155475 1.28874e-10 8.37667e-11 -1.53565e-10 5e-05 1.46608e-10 
106 1 0.0434024 0.0173614 0.00738867 0.00569916 -0.000178943 0.000296947 -3.81994e-11 -2.02567e-11 3.92977e-11 5e-05 1.46608e-10 
107 1 0.0428211 0.0161001 0.00803594 0.0060716 -0.000376956 0.0001727 1.58971e-11 1.99369e-10 -3.00007e-10 5e-05 1.46608e-10 
108 1 0.0491379 0.0169622 0.00745252 0.00598074 0.000704788 -4.8082e-05 -1.91847e-10 3.51389e-10 4.27755e-11 5e-05 1.46608e-10 
109 1 0.0492172 0.0177142 0.00713106 0.00560802 0.00039067 -0.000315603 4.18873e-10 -2.44522e-10 1.9562e-10 5e-05 1.46608e-10 
110 1 0.0495404 0.0179994 0.00706463 0.00552262 0.000301995 -0.0003078 1.81086e-10 1.9299e-10 -9.60622e-11 5e-05 1.46608e-10 
111 1 0.0494309 0.018766 0.00693378 0.0056823 0.000418967 -0.000334959 1.71362e-10 3.36671e-10 -7.09529e-11 5e-05 1.46608e-10 
112 1 0.0429256 0.0164304 0.00768845 0.00619861 -0.000237254 0.000337107 -4.99322e-12 -1.78905e-11 7.08329e-12 5e-05 1.46608e-10 
113 1 0.0436322 0.0176114 0.00731479 0.00550507 -3.71172e-05 0.000383947 -2.19375e-10 -2.73325e-10 8.81431e-11 5e-05 1.46608e-10 
114 1 0.0432661 0.017145 0.0074573 0.00589844 -0.000184612 0.000306693 -1.65262e-10 -1.85347e-11 -1.09862e-11 5e-05 1.46608e-10 
115 1 0.049272 0.0175521 0.00715625 0.00569502 0.000454947 -0.000320052 3.46686e-10 -2.37445e-10 -1.80998e-10 5e-05 1.46608e-10 
116 1 0.0491189 0.0168923 0.00752224 0.00625815 0.00068186 7.24846e-06 9.71931e-10 1.47751e-09 -1.26473e-09 5e-05 1.46608e-10 
117 1 0.048969 0.0164063 0.00800547 0.00598079 0.000452572 0.000213386 -2.9758e-10 8.12826e-11 -1.27556e-10 5e-05 1.46608e-10 
118 1 0.0427593 0.0159252 0.00827172 0.00590249 -0.000381775 0.000178416 6.49115e-11 1.92604e-11 -1.2283e-10 5e-05 1.46608e-10 
119 1 0.0492695 0.0171293 0.0072955 0.00559827 0.0010117 -0.000391695 -1.18485e-10 4.25806e-10 -8.66106e-10 5e-05 1.46608e-10 
120 1 0.0488311 0.016241 0.00815987 0.00590953 0.000294347 0.000367431 -6.28226e-11 -5.67445e-10 6.67219e-10 5e-05 1.46608e-10 
121 1 0.0487885 0.0161025 0.00829764 0.00584297 0.00026826 0.000387452 -1.2743e-11 -1.76177e-10 1.86188e-10 5e-05 1.46608e-10 
122 1 0.0495599 0.0180958 0.00704664 0.0055321 0.000288876 -0.000303992 1.43314e-11 3.36715e-10 -3.55537e-11 5e-05 1.46608e-10 
123 1 0.0429382 0.0161732 0.00793243 0.00610637 -0.000407343 0.000207433 1.45611e-10 -2.08683e-11 -1.61501e-11 5e-05 1.46608e-10 
124 1 0.0493901 0.0181305 0.0070483 0.00559343 0.000381531 -0.000327279 -1.34882e-11 2.74403e-10 -1.8016e-10 5e-05 1.46608e-10 
125 1 0.0489477 0.016337 0.00807436 0.00600394 0.000439292 0.000229165 -2.60252e-10 -3.27883e-10 3.05593e-10 5e-05 1.46608e-10 
126 1 0.0491771 0.0175214 0.00716604 0.00569831 0.000402703 -0.000323136 2.15523e-10 -1.73777e-11 -1.90746e-10 5e-05 1.46608e-10 
127 1 0.0428839 0.0162776 0.00779664 0.00617941 -0.000392181 0.000166195 -1.16044e-10 -1.52156e-11 -3.7279e-11 5e-05 1.46608e-10 
128 1 0.049276 0.0180032 0.00707611 0.00547335 0.000414348 -0.00033128 -3.37989e-11 1.81929e-11 1.13773e-11 5e-05 1.46608e-10 
129 1 0.0493544 0.0183897 0.00703363 0.00563971 0.000400611 -0.000331255 9.14251e-11 2.71735e-10 -9.06405e-11 5e-05 1.46608e-10 
130 1 0.0431909 0.0172064 0.00743315 0.00588123 -0.000206573 0.000313105 -7.74252e-11 8.05487e-11 -2.8703e-11 5e-05 1.46608e-10 
131 1 0.0430445 0.0165571 0.00764992 0.00612764 -0.000261608 0.000344433 9.6967e-11 4.1749e-11 8.05124e-12 5e-05 1.46608e-10 
132 1 0.0493706 0.0180341 0.00706629 0.00551676 0.000392079 -0.00032142 -2.63267e-10 3.60945e-10 1.00028e-11 5e-05 1.46608e-10 
133 1 0.0491313 0.0166434 0.00777988 0.00735477 0.00151624 -0.000723339 -3.1659e-11 5.52284e-11 -6.55359e-11 5e-05 1.46608e-10 
134 1 0.0492867 0.0171979 0.00722278 0.00593738 0.00034869 -0.00134411 7.77868e-10 -3.19739e-10 3.11994e-10 5e-05 1.46608e-10 
135 1 0.0489263 0.0162677 0.00814325 0.00596408 0.000431524 0.000233942 1.30416e-10 -5.27948e-10 5.65266e-10 5e-05 1.46608e-10 
136 1 0.0428761 0.0159983 0.00816815 0.0060372 -0.000381421 0.000176427 8.33236e-11 -1.16857e-11 1.88657e-11 5e-05 1.46608e-10 
137 1 0.0494504 0.0188624 0.0069158 0.00568877 0.00042434 -0.000336427 7.6741e-11 3.00201e-10 -4.92274e-11 5e-05 1.46608e-10 
138 1 0.0490767 0.0167535 0.00766035 0.00658282 0.000772541 -4.76892e-05 -2.32586e-10 -1.74048e-10 1.10322e-10 5e-05 1.46608e-10 
140 1 0.0495785 0.0181949 0.00702824 0.00559175 0.000304884 -0.000310454 -3.86356e-12 1.66933e-10 -3.60482e-11 5e-05 1.46608e-10 
141 1 0.0429168 0.016115 0.00801092 0.00609194 -0.000400262 0.000198336 -5.03051e-11 6.25125e-11 -8.74451e-11 5e-05 1.46608e-10 
142 1 0.0432868 0.0172378 0.00742632 0.0056966 -0.000156161 0.000287763 1.575e-10 -7.87039e-11 7.1056e-12 5e-05 1.46608e-10 
143 1 0.042842 0.0161593 0.00795615 0.00609621 -0.000415011 0.000218612 8.08797e-11 3.2241e-11 -3.55451e-11 5e-05 1.46608e-10 
144 1 0.0432452 0.0170523 0.00748827 0.00596732 -0.00018416 0.000308627 -1.07992e-10 1.35549e-11 -1.77034e-11 5e-05 1.46608e-10 
146 1 0.0430983 0.0164029 0.00770501 0.00617576 -0.000261369 0.000346462 2.92831e-11 -1.34111e-10 -5.95116e-14 5e-05 1.46608e-10 
147 1 0.0428554 0.01594 0.00824674 0.00596953 -0.000372739 0.00016887 -3.70378e-12 -2.65999e-11 3.80859e-11 5e-05 1.46608e-10 
148 1 0.0431551 0.0174513 0.00734762 0.00560927 -0.000191227 0.000297414 -1.11871e-10 9.77503e-13 -1.13391e-11 5e-05 1.46608e-10 
149 1 0.0494865 0.0186043 0.00695989 0.00567018 0.000406831 -0.000332347 8.89205e-12 8.37598e-11 -1.8204e-11 5e-05 1.46608e-10 
150 1 0.0431411 0.0165883 0.00764315 0.00612933 -0.000230826 0.000332444 1.82306e-11 -1.00234e-10 3.06387e-11 5e-05 1.46608e-10 
151 1 0.0434768 0.0172993 0.00741307 0.00569206 -0.000208269 0.00030617 -1.01896e-10 -1.73062e-10 4.74595e-11 5e-05 1.46608e-10 
153 1 0.0429807 0.0162985 0.007783 0.00618121 -0.000361467 0.000258022 -1.54792e-10 6.95513e-11 -3.03094e-12 5e-05 1.46608e-10 
154 1 0.0432527 0.0174848 0.00734015 0.0056841 -0.000173258 0.000294025 -6.08975e-11 -2.20542e-11 -6.96497e-12 5e-05 1.46608e-10 
155 1 0.0433318 0.0178572 0.00721746 0.00535839 -9.19005e-05 0.000388726 2.53341e-11 -1.2278e-10 1.23182e-10 5e-05 1.46608e-10 
156 1 0.0432321 0.017392 0.00737115 0.00568422 -0.000169879 0.000293459 1.57893e-10 -5.07136e-11 5.64291e-11 5e-05 1.46608e-10 
157 1 0.0219312 0.0187687 0.00551176 -3.83824e-14 8.1636e-14 2.9589e-13 -2.99517e-22 -1.37777e-22 -1.86116e-24 5e-05 1.46608e-10 
158 1 0.0433483 0.0175163 0.0073333 0.00567623 -0.000163723 0.000289641 -2.13136e-10 3.81404e-11 -3.59728e-11 5e-05 1.46608e-10 
159 1 0.0494263 0.0178721 0.00709245 0.00552314 0.000382824 -0.000321945 -1.22901e-10 3.23852e-10 -8.58097e-12 5e-05 1.46608e-10 
160 1 0.0432356 0.017823 0.00722343 0.00531693 -0.000127431 0.000264402 -4.16576e-11 9.9487e-11 -4.29855e-11 5e-05 1.46608e-10 
162 1 0.0432731 0.0175777 0.00730914 0.00567112 -0.000170608 0.00029008 -2.09382e-10 9.22585e-12 -5.15905e-11 5e-05 1.46608e-10 
164 1 0.0434842 0.018172 0.00712914 0.00542926 -8.24055e-05 0.000393487 1.7817e-11 -1.14243e-11 -2.62755e-12 5e-05 1.46608e-10 
165 1 0.0435378 0.0175788 0.00731968 0.00546312 -2.37214e-05 0.000233572 -3.03974e-10 2.20115e-10 -1.88943e-10 5e-05 1.46608e-10 
166 1 0.0490876 0.016504 0.00791841 0.00658292 0.000858452 -0.000135503 -1.51262e-10 3.46695e-11 -4.4271e-11 5e-05 1.46608e-10 
167 1 0.0431196 0.0164957 0.00767405 0.00614944 -0.000224938 0.000329656 -9.95103e-11 -6.22769e-11 1.73408e-11 5e-05 1.46608e-10 
168 1 0.0434228 0.0174543 0.00735766 0.00568954 -0.000167139 0.000292942 -2.6354e-10 9.39956e-11 -5.04853e-11 5e-05 1.46608e-10 
169 1 0.0436519 0.0177059 0.00728652 0.0054902 -4.0341e-05 0.000384781 -5.79281e-11 -6.76706e-11 1.22776e-12 5e-05 1.46608e-10 
170 1 0.0434631 0.0176407 0.00729543 0.0054698 -4.22191e-05 0.000194011 -1.465e-10 4.68166e-10 4.2663e-11 5e-05 1.46608e-10 
171 1 0.0491089 0.0165733 0.00784951 0.00657075 0.000873937 -0.000153813 -3.14105e-10 2.24705e-11 -7.63117e-11 5e-05 1.46608e-10 
172 1 0.0435177 0.0174853 0.00735094 0.00552179 8.38192e-05 0.000198091 3.60725e-10 7.73377e-11 -2.07074e-11 5e-05 1.46608e-10 
173 1 0.0494788 0.0172051 0.00723254 0.00594291 0.000621473 0.000238906 5.66759e-11 1.42541e-10 3.32582e-11 5e-05 1.46608e-10 
174 1 0.0433878 0.0177023 0.00727117 0.00546084 -7.70584e-05 0.000364875 -2.23261e-10 1.06969e-10 -1.15413e-10 5e-05 1.46608e-10 
175 1 0.0371488 0.017395 0.00721692 0.00580308 0.000863614 -0.000590881 -3.05168e-11 -7.5558e-11 3.8378e-11 5e-05 1.46608e-10 
176 1 0.0432116 0.0172992 0.00740216 0.00568395 -0.000171179 0.000293256 3.48377e-10 -4.75056e-11 5.42714e-11 5e-05 1.46608e-10 
177 1 0.0432743 0.0180105 0.00716553 0.00537874 -9.98284e-05 0.000394056 7.8431e-11 4.87506e-11 -5.22077e-12 5e-05 1.46608e-10 
178 1 0.0436123 0.0175167 0.00734405 0.00549224 3.30902e-05 0.000219856 -3.17683e-10 -3.18387e-11 -6.49213e-11 5e-05 1.46608e-10 
179 1 0.0435769 0.0177674 0.00726219 0.00546544 -5.78732e-05 0.000386653 3.74379e-11 9.83618e-11 -5.23469e-11 5e-05 1.46608e-10 
181 1 0.0431961 0.017637 0.00728561 0.00563209 -0.0002048 0.00030308 -1.20891e-10 -2.40241e-11 -2.66255e-11 5e-05 1.46608e-10 
182 1 0.0490553 0.0166842 0.00772922 0.00654144 0.000800269 -8.19189e-05 2.15504e-10 1.03336e-10 -6.76208e-11 5e-05 1.46608e-10 
183 1 0.0434431 0.0175473 0.00732657 0.0055671 7.018e-05 0.000204383 -1.10229e-10 -3.83037e-10 1.16898e-10 5e-05 1.46608e-10 
184 1 0.049376 0.017901 0.00717392 0.00553245 0.000395135 -0.000313829 -6.7595e-13 -1.54872e-11 7.06545e-12 5e-05 1.46608e-10 
185 1 0.0431346 0.0173585 0.00737862 0.00557266 -0.00017807 0.00029093 1.77434e-10 -2.12781e-11 5.34027e-12 5e-05 1.46608e-10 
186 1 0.0431756 0.0175442 0.00731661 0.00562744 -0.000202841 0.000302657 7.7784e-12 1.48709e-10 -3.63073e-11 5e-05 1.46608e-10 
187 1 0.049326 0.017015 0.00741028 0.00610522 -0.000265187 -0.000707288 1.00024e-10 4.93577e-11 -3.22539e-10 5e-05 1.46608e-10 
188 1 0.0494794 0.0184101 0.00699464 0.00565195 0.000391475 -0.000328115 1.20882e-10 1.75964e-10 -2.61264e-11 5e-05 1.46608e-10 
189 1 0.0493633 0.0171494 0.00726715 0.0058427 0.000420055 -0.000100263 1.76661e-10 6.62014e-11 -1.553e-10 5e-05 1.46608e-10 
190 1 0.0372485 0.0174289 0.00719725 0.00582798 0.000876372 -0.000598619 3.99952e-11 -2.11618e-10 1.06908e-10 5e-05 1.46608e-10 
191 1 0.04947 0.0189588 0.00689781 0.00570491 0.000431648 -0.000338353 1.94078e-11 3.55995e-10 -6.91052e-11 5e-05 1.46608e-10 
192 1 0.0433613 0.0171757 0.00745069 0.00567091 -0.000177585 0.00029521 -7.92533e-11 -3.08394e-10 1.09736e-10 5e-05 1.46608e-10 
193 1 0.0491946 0.0168513 0.00757309 0.00648364 0.000977502 -0.000276891 2.81111e-09 2.97436e-09 -2.57023e-09 5e-05 1.46608e-10 
194 1 0.0431824 0.016774 0.00758115 0.00607187 -0.000212208 0.000323457 -9.71086e-11 -4.08196e-13 6.30023e-12 5e-05 1.46608e-10 
195 1 0.0435575 0.0176733 0.00729036 0.00548844 -4.78622e-05 0.000388368 -3.7405e-11 1.46932e-10 3.1457e-11 5e-05 1.46608e-10 
196 1 0.0426562 0.0156338 0.00866468 0.00574423 -0.000315496 0.00010337 2.02719e-10 9.75439e-12 1.12768e-11 5e-05 1.46608e-10 
197 1 0.037206 0.0176577 0.00708385 0.0057426 0.000863206 -0.000590102 5.21901e-11 1.91033e-11 1.481e-12 5e-05 1.46608e-10 
198 1 0.0430512 0.0169874 0.0075025 0.00597998 -0.000253288 0.000332488 -2.66617e-11 3.23234e-11 -2.82634e-11 5e-05 1.46608e-10 
199 1 0.0432933 0.0176706 0.0072781 0.00545244 -0.000122265 0.00027976 -1.33801e-10 1.90273e-11 -1.28534e-10 5e-05 1.46608e-10 
200 1 0.0431491 0.0170209 0.00749507 0.005978 -0.000225138 0.000323695 -8.7975e-11 5.40244e-11 -2.15172e-11 5e-05 1.46608e-10 
201 1 0.0435907 0.0182214 0.00712086 0.00546596 -8.44585e-05 0.000396394 1.41532e-10 -1.74376e-11 1.67083e-11 5e-05 1.46608e-10 
202 1 0.0433818 0.0172686 0.00741968 0.00564114 -0.000208612 0.000304246 -8.82793e-11 -1.85444e-10 5.89311e-11 5e-05 1.46608e-10 
203 1 0.0494239 0.017423 0.00717216 0.00565864 0.000552653 -0.000360132 1.66707e-10 -4.61412e-10 2.44813e-10 5e-05 1.46608e-10 
204 1 0.0431282 0.0169281 0.00752603 0.00601509 -0.000230383 0.000327534 -1.0362e-10 5.07007e-11 -1.11616e-11 5e-05 1.46608e-10 
205 1 0.0434457 0.0179839 0.00718548 0.00542494 -5.73901e-05 0.000384056 6.70375e-11 2.2056e-11 1.56515e-12 5e-05 1.46608e-10 
206 1 0.0434072 0.0177959 0.00724177 0.00545896 -6.15675e-05 0.000391793 8.82911e-11 1.94327e-11 5.53055e-11 5e-05 1.46608e-10 
207 1 0.0429607 0.0162312 0.00785413 0.00612416 -0.000405022 0.00021211 -3.95649e-11 6.35961e-11 -7.79567e-12 5e-05 1.46608e-10 
208 1 0.0433684 0.0176092 0.00730225 0.00548704 -5.43379e-05 0.000249944 -1.99033e-11 4.16266e-10 -1.38561e-10 5e-05 1.46608e-10 
209 1 0.0431615 0.0166812 0.00761212 0.00610892 -0.000208723 0.000323738 7.9631e-11 -3.73371e-11 1.77845e-11 5e-05 1.46608e-10 
210 1 0.0491761 0.0172545 0.00730484 0.0066143 0.000606295 -0.000548468 -3.98253e-10 -4.95745e-10 2.08638e-10 5e-05 1.46608e-10 
211 1 0.0494848 0.0181614 0.00703847 0.00557376 0.000329738 -0.000314484 -1.59731e-10 2.96288e-10 -5.32758e-11 5e-05 1.46608e-10 
212 1 0.0434823 0.0177346 0.00726606 0.0054684 -5.95379e-05 0.000394217 -1.56268e-10 5.36056e-11 -2.66175e-11 5e-05 1.46608e-10 
213 1 0.0493095 0.0169486 0.00748325 0.00566585 -0.000103268 -0.00067682 0 0 -1.43822e-09 5e-05 1.46608e-10 
214 1 0.0494099 0.0182271 0.00703027 0.00560762 0.000370902 -0.000324022 -5.89561e-11 3.47887e-10 -7.14178e-11 5e-05 1.46608e-10 
215 1 0.0372047 0.0172476 0.00728922 0.00595978 0.000936322 -0.000633155 4.87091e-10 2.14257e-10 -1.09229e-10 5e-05 1.46608e-10 
216 1 0.0432549 0.0179165 0.00719367 0.00537068 -8.51644e-05 0.00039115 -1.24515e-12 -4.27683e-11 9.3107e-12 5e-05 1.46608e-10 
217 1 0.0491526 0.0167127 0.007711 0.00729366 0.00100747 -0.000207783 -9.35125e-10 -1.82176e-09 1.77536e-09 5e-05 1.46608e-10 
218 1 0.0433706 0.0180452 0.00716117 0.00541956 -6.17445e-05 0.000386385 -4.3568e-12 -1.24792e-10 1.19587e-11 5e-05 1.46608e-10 
219 1 0.0494113 0.0186696 0.00695177 0.00567492 0.000416928 -0.000334716 -1.57635e-12 2.91825e-10 -5.74984e-11 5e-05 1.46608e-10 
220 1 0.0432163 0.0177299 0.00725456 0.0054422 -0.000145855 0.00027828 -1.3304e-11 -4.5368e-11 1.87241e-11 5e-05 1.46608e-10 
221 1 0.0371243 0.0168978 0.0074665 0.00592619 0.000827432 -0.000576523 9.06547e-11 9.47536e-11 -5.05134e-11 5e-05 1.46608e-10 
222 1 0.0491739 0.016782 0.00764211 0.00693466 0.00107386 -0.000316385 -6.85837e-10 -4.89489e-09 4.88275e-09 5e-05 1.46608e-10 
223 1 0.0433073 0.0173306 0.00739531 0.00568637 -0.000164983 0.000291281 2.26629e-10 -2.17412e-11 3.45269e-12 5e-05 1.46608e-10 
224 1 0.0431139 0.0172657 0.00740961 0.005855 -0.000231761 0.000321442 -6.56475e-11 2.34279e-11 -5.06801e-12 5e-05 1.46608e-10 
225 1 0.0495959 0.0178374 0.0070908 0.00546844 0.000253795 -0.000294711 1.02644e-11 1.76887e-11 -4.05324e-11 5e-05 1.46608e-10 
226 1 0.0434973 0.0173922 0.00738204 0.00568182 -0.000178991 0.0002955 -5.75367e-10 2.56959e-10 -9.96016e-11 5e-05 1.46608e-10 
227 1 0.0372786 0.0170764 0.00737286 0.00655146 0.00267058 -0.00151841 2.70491e-11 3.78385e-11 -2.73665e-11 5e-05 1.46608e-10 
228 1 0.0371679 0.0174826 0.00717256 0.00582044 0.000842254 -0.000582619 1.80186e-11 -4.64493e-11 3.90772e-11 5e-05 1.46608e-10 
229 1 0.0431198 0.0171614 0.00753622 0.00592074 -0.00024898 0.000328461 4.11637e-11 3.30136e-11 4.42873e-12 5e-05 1.46608e-10 
230 1 0.0435227 0.01836 0.00707284 0.00549289 -9.68459e-05 0.000402601 2.58431e-10 -1.67721e-10 5.7187e-11 5e-05 1.46608e-10 
231 1 0.0371297 0.0173075 0.00726127 0.00576486 0.000866003 -0.000589797 -1.97681e-10 1.82888e-10 -8.48007e-11 5e-05 1.46608e-10 
232 1 0.0430617 0.0162528 0.00781977 0.00625644 -0.000359608 0.000128625 -2.94201e-10 1.64897e-10 -3.6384e-10 5e-05 1.46608e-10 
233 1 0.0432033 0.0168667 0.00755019 0.00604953 -0.00020437 0.000319453 -2.16467e-10 3.03201e-11 -1.29551e-11 5e-05 1.46608e-10 
234 1 0.0495604 0.0184723 0.00697989 0.00561964 0.000292946 -0.000309761 -1.17784e-11 1.80172e-10 -3.40381e-11 5e-05 1.46608e-10 
235 1 0.0435623 0.0185492 0.00701625 0.0054435 -6.22906e-05 0.000387128 -2.17122e-10 -2.83167e-11 1.32797e-11 5e-05 1.46608e-10 
236 1 0.0435421 0.0184542 0.00704464 0.00542073 -5.30618e-05 0.000383678 -2.92645e-10 -6.52909e-11 -1.79577e-11 5e-05 1.46608e-10 
237 1 0.0436294 0.0184097 0.00706449 0.00539823 -3.51203e-05 0.00037666 -9.56495e-11 5.46804e-11 -1.83592e-11 5e-05 1.46608e-10 
239 1 0.036947 0.0165215 0.00765977 0.0064415 0.000711622 -0.000532683 1.89288e-12 1.69865e-11 -9.46022e-12 5e-05 1.46608e-10 
240 1 0.0370092 0.0167832 0.00752703 0.00587547 0.000831838 -0.000577345 1.47646e-11 4.09238e-11 -2.00091e-11 5e-05 1.46608e-10 
241 1 0.0369255 0.0164344 0.00770395 0.00646044 0.000706927 -0.000530807 4.3682e-12 6.5472e-12 -2.88749e-12 5e-05 1.46608e-10 
242 1 0.0433196 0.01699 0.00751268 0.00598828 -0.000164744 0.000303672 -3.21032e-11 1.49455e-10 -5.44988e-11 5e-05 1.46608e-10 
243 1 0.0431072 0.0168354 0.00755699 0.0060477 -0.000234649 0.00033027 -3.79925e-11 3.83028e-11 -3.44926e-11 5e-05 1.46608e-10 
244 1 0.0369685 0.0166086 0.00761558 0.00642394 0.000717239 -0.000535097 6.72844e-12 2.83852e-11 -1.40477e-11 5e-05 1.46608e-10 
246 1 0.0370898 0.0171327 0.00734988 0.00597718 0.000783626 -0.000558054 -1.03989e-10 -2.75528e-10 1.30118e-10 5e-05 1.46608e-10 