ITEM: TIMESTEP
4200000
ITEM: NUMBER OF ATOMS
287
ITEM: BOX BOUNDS ff ff ff
-0.02 0.43
-0.02 0.06
-0.02 0.07
ITEM: ATOMS id type x y z vx vy vz fx fy fz radius mass 
1 1 0.0373276 0.0163474 0.00773648 0.0057334 0.000578238 -0.000446271 1.14362e-10 -9.06398e-11 4.63489e-11 5e-05 1.46608e-10 
2 1 0.0376906 0.017121 0.00733924 0.00577163 0.000302615 -0.000309286 5.93605e-11 -2.69192e-11 2.57973e-11 5e-05 1.46608e-10 
3 1 0.0311283 0.0159845 0.00819492 0.00570103 -7.34285e-06 0.000331764 4.23433e-11 -8.78265e-11 1.05022e-10 5e-05 1.46608e-10 
4 1 0.0376495 0.017747 0.00703144 0.00644978 0.000613106 -0.000152829 5.14503e-11 4.38214e-11 1.67631e-10 5e-05 1.46608e-10 
5 1 0.0372134 0.0162329 0.00779875 0.00572577 0.000563766 -0.000424409 -2.34994e-11 -8.1534e-11 1.10832e-10 5e-05 1.46608e-10 
6 1 0.0432313 0.016302 0.0077451 0.00546073 -0.000531499 0.000407351 4.23567e-13 -2.14185e-13 1.59589e-13 5e-05 1.46608e-10 
7 1 0.0373896 0.0170195 0.00739832 0.00573875 0.00056886 -0.000442007 1.47469e-11 7.03547e-11 -3.33249e-11 5e-05 1.46608e-10 
8 1 0.0371195 0.0159271 0.00818869 0.00592975 0.000570339 -0.000417853 -1.8945e-11 -1.69786e-12 -4.89577e-12 5e-05 1.46608e-10 
9 1 0.0434952 0.0175093 0.00734176 0.00577568 -0.000588475 0.000440074 1.87269e-13 -3.67001e-12 -1.73611e-12 5e-05 1.46608e-10 
10 1 0.0373307 0.0167571 0.00753129 0.00575168 0.000588641 -0.000452477 -2.03864e-12 3.41579e-11 -1.8412e-11 5e-05 1.46608e-10 
11 1 0.0377793 0.0174778 0.00715821 0.00633182 0.000562647 -0.000457311 -1.02942e-10 5.80376e-11 -2.54503e-11 5e-05 1.46608e-10 
12 1 0.0313187 0.0166634 0.00747956 0.00564213 -5.08516e-05 0.000271605 4.0254e-12 -4.0655e-11 -8.45384e-11 5e-05 1.46608e-10 
13 1 0.0371945 0.01617 0.00787893 0.00580916 0.000440388 -0.000257844 1.16617e-11 -2.22336e-11 3.71744e-11 5e-05 1.46608e-10 
14 1 0.0310468 0.0157025 0.00846667 0.0056409 1.47889e-05 0.00030697 -7.4918e-11 -1.16654e-10 1.12582e-10 5e-05 1.46608e-10 
15 1 0.0375243 0.0172219 0.00729329 0.00599298 0.000543722 -0.000437445 -1.0324e-10 1.37846e-10 -5.65924e-11 5e-05 1.46608e-10 
16 1 0.0310264 0.015632 0.0085346 0.00562402 1.91481e-05 0.000301772 5.44927e-11 -8.12239e-11 8.17894e-11 5e-05 1.46608e-10 
17 1 0.037311 0.0166696 0.00757561 0.00575417 0.000580252 -0.000448258 1.03242e-11 1.29392e-10 -6.81274e-11 5e-05 1.46608e-10 
18 1 0.0433667 0.0169533 0.00752722 0.005367 -0.000512251 0.000397154 -1.56348e-13 -2.73041e-12 7.48927e-13 5e-05 1.46608e-10 
19 1 0.0371759 0.0161094 0.00795626 0.00576058 0.000444123 -0.000265523 -2.67615e-11 -3.88992e-11 5.01003e-11 5e-05 1.46608e-10 
21 1 0.0373084 0.0162672 0.00779306 0.00574136 0.000578924 -0.00044474 1.55534e-10 -1.005e-10 9.50612e-11 5e-05 1.46608e-10 
22 1 0.037429 0.0171949 0.00730944 0.00574617 0.000624713 -0.000470131 1.56648e-11 6.82816e-11 -3.46144e-11 5e-05 1.46608e-10 
23 1 0.0314928 0.0170559 0.00731443 0.00563995 -0.000187681 0.000341119 -3.17462e-10 3.47611e-10 -1.22061e-10 5e-05 1.46608e-10 
24 1 0.0434307 0.0172314 0.00743447 0.0057175 -0.000578094 0.000434346 1.58839e-12 -4.16751e-12 4.10757e-13 5e-05 1.46608e-10 
25 1 0.03737 0.016932 0.00744264 0.00574409 0.000574969 -0.000445174 6.7535e-12 1.00732e-10 -5.16777e-11 5e-05 1.46608e-10 
26 1 0.0433083 0.0166743 0.00762057 0.00541943 -0.000522463 0.000402829 2.07666e-13 -1.39167e-12 3.87515e-13 5e-05 1.46608e-10 
27 1 0.0313969 0.0170237 0.00732429 0.00564405 -3.37015e-05 0.000274339 -7.98833e-11 3.84459e-10 -2.05361e-10 5e-05 1.46608e-10 
28 1 0.0376282 0.0176589 0.00707363 0.00637736 0.000525928 -0.000361275 -9.10345e-11 6.68226e-11 -7.65728e-12 5e-05 1.46608e-10 
29 1 0.0371574 0.0160488 0.00803358 0.00571506 0.000447697 -0.000272671 -2.35155e-11 -5.60053e-11 6.96317e-11 5e-05 1.46608e-10 
30 1 0.0376693 0.017433 0.00718366 0.00632781 0.000493204 -0.000419107 2.51718e-10 1.93519e-10 -2.21688e-10 5e-05 1.46608e-10 
31 1 0.0374093 0.0171069 0.007354 0.00573271 0.000570931 -0.000443031 -1.08152e-13 5.92748e-11 -3.69501e-11 5e-05 1.46608e-10 
32 1 0.0375042 0.0171345 0.00733758 0.00581987 0.000570103 -0.000444455 -9.76645e-12 8.4675e-11 -3.07171e-11 5e-05 1.46608e-10 
33 1 0.0432505 0.0163951 0.00771396 0.00544165 -0.000527687 0.000405452 6.95173e-13 5.50064e-14 -7.36495e-14 5e-05 1.46608e-10 
34 1 0.0372914 0.0165822 0.00761994 0.00571665 0.000594714 -0.000454264 1.74853e-11 2.95866e-10 -1.36083e-10 5e-05 1.46608e-10 
35 1 0.0374844 0.0170471 0.00738194 0.00573221 0.000580783 -0.000446158 -1.24928e-11 6.13801e-11 -4.14787e-11 5e-05 1.46608e-10 
36 1 0.0435382 0.0176953 0.00728216 0.00581485 -0.000557647 0.000568304 -9.30011e-13 -1.86735e-12 9.5393e-13 5e-05 1.46608e-10 
37 1 0.0374451 0.0168722 0.00747053 0.0057462 0.000575453 -0.000445467 -7.1314e-11 8.02912e-11 -3.53934e-11 5e-05 1.46608e-10 
38 1 0.0376049 0.017168 0.00731809 0.00586883 0.000436562 -0.000377438 2.27024e-12 9.31352e-11 -4.50534e-11 5e-05 1.46608e-10 
39 1 0.0434522 0.017324 0.00740356 0.0057369 -0.00058154 0.000436097 -1.44121e-12 -2.19867e-12 3.75317e-12 5e-05 1.46608e-10 
41 1 0.0372524 0.0164071 0.00770863 0.00572381 0.000568013 -0.000441506 4.14997e-11 -3.47802e-11 8.12927e-12 5e-05 1.46608e-10 
42 1 0.0374489 0.0172823 0.00726511 0.00621701 0.000512762 -0.00042777 -4.06889e-11 -4.25994e-11 2.15057e-11 5e-05 1.46608e-10 
44 1 0.0376253 0.0172553 0.00727382 0.00605309 0.00039371 -0.00036423 -6.3682e-11 9.65436e-11 -4.60174e-11 5e-05 1.46608e-10 
45 1 0.0432698 0.0164882 0.00768283 0.00542282 -0.000523928 0.000403445 1.64102e-13 8.13e-14 -3.94342e-13 5e-05 1.46608e-10 
46 1 0.0433472 0.0168603 0.00755833 0.00538476 -0.000515643 0.000399065 -3.17589e-13 -2.14489e-12 1.75107e-13 5e-05 1.46608e-10 
47 1 0.0372719 0.0164947 0.00766427 0.00572762 0.000605998 -0.00046048 -9.58753e-11 -3.9958e-10 2.01664e-10 5e-05 1.46608e-10 
48 1 0.0374907 0.0174568 0.00717664 0.00631047 0.000517716 -0.000429731 5.2913e-11 5.21532e-11 -2.55159e-11 5e-05 1.46608e-10 
49 1 0.0433278 0.0167673 0.00758945 0.00540181 -0.000519041 0.000400951 1.90646e-13 -1.6825e-12 6.77283e-13 5e-05 1.46608e-10 
50 1 0.0375535 0.0177189 0.00704368 0.00642305 0.000527233 -0.000438256 -2.79926e-11 7.13875e-11 -3.96948e-11 5e-05 1.46608e-10 
51 1 0.0375326 0.0176317 0.00708791 0.00637324 0.000508809 -0.000430033 -9.96221e-12 5.99949e-11 -5.35385e-11 5e-05 1.46608e-10 
52 1 0.0312998 0.0165941 0.00754906 0.00559935 -0.000271288 1.54169e-05 8.61352e-11 1.39553e-10 -6.125e-11 5e-05 1.46608e-10 
53 1 0.0433877 0.0170461 0.00749627 0.00567889 -0.000571448 0.000430261 1.09365e-12 -3.90857e-12 -3.30561e-12 5e-05 1.46608e-10 
54 1 0.0372893 0.0161918 0.00785589 0.00573145 0.000582484 -0.000446441 6.51219e-11 -8.11566e-11 1.06458e-10 5e-05 1.46608e-10 
55 1 0.0310876 0.0158435 0.0083308 0.00567395 2.11713e-06 0.000321145 -5.50786e-12 -1.4802e-10 1.4247e-10 5e-05 1.46608e-10 
56 1 0.0374648 0.0169597 0.00742621 0.00573971 0.000576856 -0.000445816 -4.94365e-11 7.12438e-11 -3.71192e-11 5e-05 1.46608e-10 
57 1 0.043289 0.0165812 0.00765169 0.00540336 -0.000520169 0.000401402 3.54818e-13 -6.10899e-13 6.24132e-13 5e-05 1.46608e-10 
59 1 0.0375203 0.0168125 0.00749839 0.00575106 0.000578517 -0.000447133 -1.6831e-10 5.53649e-11 -2.63342e-11 5e-05 1.46608e-10 
60 1 0.03754 0.0168999 0.00745407 0.00574903 0.000582818 -0.000449215 -1.03833e-10 5.08327e-11 -2.10299e-11 5e-05 1.46608e-10 
61 1 0.0372329 0.0163196 0.00775297 0.00572656 0.000562426 -0.00043606 3.2382e-12 -6.03547e-11 4.01778e-11 5e-05 1.46608e-10 
62 1 0.0376462 0.017343 0.00722932 0.00624492 0.000415069 -0.000378231 2.09815e-10 1.21668e-10 -8.26258e-11 5e-05 1.46608e-10 
63 1 0.0375863 0.0174837 0.00716055 0.00632473 0.000501312 -0.00041234 1.16699e-10 -2.90901e-12 -1.84759e-10 5e-05 1.46608e-10 
64 1 0.0434092 0.0171387 0.00746537 0.00569812 -0.00057475 0.000432267 -7.86296e-13 -2.18873e-12 5.74724e-12 5e-05 1.46608e-10 
65 1 0.0314124 0.0167092 0.00749151 0.00558844 -4.73589e-05 0.000272658 1.40515e-10 -2.17701e-11 -3.31937e-11 5e-05 1.46608e-10 
66 1 0.0313572 0.0164784 0.00767449 0.00554856 -0.000257193 2.22754e-06 -1.75843e-11 -3.44916e-11 9.49498e-11 5e-05 1.46608e-10 
67 1 0.0377278 0.0172904 0.00725341 0.00615163 0.000286529 -0.000311209 1.83114e-11 -7.51636e-11 4.02376e-11 5e-05 1.46608e-10 
68 1 0.0377155 0.0176136 0.00709197 0.00633967 0.000436616 -0.000394999 -1.29394e-10 6.30835e-11 5.49037e-11 5e-05 1.46608e-10 
69 1 0.0373862 0.0166098 0.00760349 0.0057224 0.000580619 -0.00044741 2.81857e-11 -2.09437e-11 8.66931e-12 5e-05 1.46608e-10 
70 1 0.0434737 0.0174166 0.00737266 0.00575622 -0.000584919 0.000438296 1.06397e-12 -3.22172e-12 2.29347e-12 5e-05 1.46608e-10 
71 1 0.0310672 0.015773 0.00839873 0.00565445 9.11781e-06 0.000313151 -6.28789e-11 -1.44859e-10 1.37636e-10 5e-05 1.46608e-10 
72 1 0.0376947 0.0175263 0.00713625 0.00630351 0.000508738 -0.000428742 -6.1894e-11 1.53102e-11 2.63563e-11 5e-05 1.46608e-10 
73 1 0.0373503 0.0168446 0.00748697 0.00574655 0.000580231 -0.000447865 3.08223e-12 8.7507e-11 -4.47616e-11 5e-05 1.46608e-10 
74 1 0.0375448 0.0173092 0.00724903 0.00616585 0.000517246 -0.000428625 1.5022e-11 1.25138e-10 -6.19783e-11 5e-05 1.46608e-10 
76 1 0.0316397 0.0177016 0.00709018 0.00624141 -0.000296683 -0.000175279 -6.17397e-11 -2.04188e-10 -1.38809e-11 5e-05 1.46608e-10 
77 1 0.0377815 0.0183013 0.00694321 0.00640504 0.00070832 -0.000216926 -5.6404e-11 -1.59174e-10 8.68707e-11 5e-05 1.46608e-10 
78 1 0.0311484 0.0160552 0.00812678 0.00553607 0.000159288 0.000159883 -1.55802e-11 -1.18531e-10 1.1981e-10 5e-05 1.46608e-10 
79 1 0.0313383 0.0167535 0.00744074 0.00566903 -5.33296e-05 0.000282448 1.27958e-10 1.58104e-10 -1.2129e-10 5e-05 1.46608e-10 
80 1 0.0376173 0.0179898 0.0069342 0.00648845 0.000640581 4.34193e-05 -1.47658e-10 -3.35379e-10 6.48099e-11 5e-05 1.46608e-10 
81 1 0.0312805 0.016526 0.00762563 0.00555423 -0.000290129 4.19474e-05 9.41432e-11 -2.18189e-10 1.67588e-10 5e-05 1.46608e-10 
82 1 0.0314165 0.0171137 0.00728548 0.00561491 -5.00618e-05 0.000278643 4.10157e-11 3.19697e-10 1.79882e-11 5e-05 1.46608e-10 
83 1 0.0314191 0.0163706 0.00779093 0.00548291 -0.000308549 5.96496e-05 -2.46693e-10 -1.18736e-10 1.28362e-10 5e-05 1.46608e-10 
84 1 0.0435166 0.0176019 0.00731086 0.00579492 -0.000591986 0.000442224 1.42074e-12 -3.69209e-12 1.04016e-12 5e-05 1.46608e-10 
85 1 0.0312433 0.0160801 0.00810771 0.005608 1.95862e-05 0.000300214 9.79656e-11 -1.55783e-10 8.94815e-11 5e-05 1.46608e-10 
86 1 0.0376074 0.017571 0.00711663 0.00631652 0.000496127 -0.000441736 -4.97688e-11 -3.8655e-11 -2.17406e-10 5e-05 1.46608e-10 
87 1 0.0375006 0.016725 0.00754271 0.00575097 0.000577824 -0.000446824 -6.27189e-11 8.02072e-11 -3.96257e-11 5e-05 1.46608e-10 
88 1 0.0376835 0.0182818 0.00694572 0.0064254 0.000665084 -0.000223367 -1.23698e-10 3.92286e-10 1.32898e-10 5e-05 1.46608e-10 
89 1 0.0376382 0.0180872 0.0069436 0.00642279 0.000644581 -6.76335e-06 -9.70184e-10 -2.91551e-10 8.93446e-10 5e-05 1.46608e-10 
90 1 0.0376702 0.0170337 0.00738352 0.00563538 0.000333497 -0.00032145 2.21267e-11 -1.65497e-10 8.73649e-11 5e-05 1.46608e-10 
91 1 0.0313578 0.0168436 0.00740194 0.00566764 -3.35263e-05 0.00026598 3.99535e-11 3.07948e-10 -1.23053e-10 5e-05 1.46608e-10 
92 1 0.0377577 0.0177903 0.00700845 0.00645534 0.00068285 3.12993e-05 3.69071e-11 -1.13283e-10 6.64242e-11 5e-05 1.46608e-10 
93 1 0.0377331 0.01812 0.00692812 0.00610931 0.000670182 -5.93655e-05 2.41989e-09 -7.8736e-10 -3.69191e-10 5e-05 1.46608e-10 
94 1 0.0378196 0.0180706 0.00691958 0.00616398 0.000602247 -0.000221575 -8.73886e-10 -2.11576e-10 4.40222e-10 5e-05 1.46608e-10 
95 1 0.0375961 0.0179001 0.00697301 0.00646607 0.000659765 5.46788e-05 2.29441e-11 -2.30049e-10 1.29468e-10 5e-05 1.46608e-10 
96 1 0.0377794 0.0178829 0.00697757 0.00648396 0.000672694 3.53385e-05 -1.27827e-10 -2.57799e-10 1.14996e-10 5e-05 1.46608e-10 
97 1 0.0312436 0.0163952 0.00777268 0.00550057 -0.000242759 -1.57108e-05 2.39859e-10 -9.62257e-11 6.98143e-11 5e-05 1.46608e-10 
98 1 0.0377129 0.0183771 0.00695347 0.00640677 0.00069795 -0.000229779 2.31e-11 4.12157e-10 9.76963e-12 5e-05 1.46608e-10 
99 1 0.0313934 0.0166294 0.00754869 0.00553626 -8.766e-05 0.000204806 3.00692e-10 -1.24808e-10 -1.84409e-11 5e-05 1.46608e-10 
100 1 0.0376357 0.0169285 0.00743712 0.00572379 0.00058894 -0.000451203 -1.18477e-10 1.26657e-10 -5.31165e-11 5e-05 1.46608e-10 
101 1 0.0313398 0.0164171 0.00775159 0.00552199 -0.00025148 -2.21917e-09 -9.36442e-13 -6.39087e-12 4.13372e-11 5e-05 1.46608e-10 
102 1 0.0643568 0.0187248 0.00531097 4.28233e-15 1.05212e-14 8.29562e-14 1.2941e-21 -1.2007e-22 -5.21124e-23 5e-05 1.46608e-10 
103 1 0.24257 0.0191927 0.00520306 3.61636e-22 -1.27651e-22 -5.81428e-22 0 0 0 5e-05 1.46608e-10 
104 1 0.0316492 0.017356 0.00718923 0.00597401 -0.000206948 0.000359659 -3.92405e-10 -1.11133e-10 -7.06458e-11 5e-05 1.46608e-10 
105 1 0.0312063 0.0162646 0.0079195 0.00540823 -0.000229788 -2.58983e-05 -1.22317e-11 -9.809e-11 8.1651e-11 5e-05 1.46608e-10 
106 1 0.031724 0.0172967 0.00721881 0.00592159 -0.00022558 0.000369581 -4.86623e-10 -4.68592e-11 5.69685e-11 5e-05 1.46608e-10 
107 1 0.0311679 0.0161258 0.00805867 0.00549342 -0.000114683 0.000427528 -1.20874e-10 -4.55168e-11 3.65863e-11 5e-05 1.46608e-10 
108 1 0.0374255 0.0167848 0.00751485 0.00574377 0.000575343 -0.000445344 -5.33521e-11 7.32541e-11 -3.7099e-11 5e-05 1.46608e-10 
109 1 0.0375117 0.0175444 0.00713219 0.00643146 0.000895241 -0.000624332 5.09586e-12 1.69625e-11 -8.61524e-12 5e-05 1.46608e-10 
110 1 0.037854 0.017821 0.00700191 0.00641252 0.000614041 5.42163e-05 8.6747e-11 -1.00825e-10 1.76159e-11 5e-05 1.46608e-10 
111 1 0.0377433 0.0185733 0.00697474 0.00638308 0.00078711 -0.000694181 -6.62108e-11 4.38847e-10 -1.47724e-10 5e-05 1.46608e-10 
112 1 0.0312619 0.0164605 0.00769922 0.00552941 -0.00025085 -8.81716e-06 2.67279e-11 1.97426e-11 8.06843e-11 5e-05 1.46608e-10 
113 1 0.0318737 0.0171768 0.00727846 0.00594611 -0.000166175 0.000342865 -2.62301e-11 4.66509e-11 -2.01112e-11 5e-05 1.46608e-10 
114 1 0.0315879 0.0170863 0.00730537 0.00573592 -0.000148405 0.000327068 3.96458e-11 -1.98918e-10 8.37307e-11 5e-05 1.46608e-10 
115 1 0.0375654 0.0173965 0.00720477 0.00629715 0.000496156 -0.000417509 1.5453e-10 9.60114e-11 -2.86353e-11 5e-05 1.46608e-10 
116 1 0.0374058 0.0166973 0.00755917 0.00573204 0.00057801 -0.000446339 -1.33118e-11 2.16142e-11 -8.96583e-12 5e-05 1.46608e-10 
117 1 0.037271 0.0161312 0.00793326 0.00571781 0.000585058 -0.000450145 5.92079e-11 -8.15303e-11 1.15414e-10 5e-05 1.46608e-10 
118 1 0.031108 0.015914 0.00826286 0.00570083 -5.39114e-06 0.000329937 4.23614e-11 -1.30403e-10 1.30494e-10 5e-05 1.46608e-10 
119 1 0.0375596 0.0169874 0.00740974 0.0057222 0.000579369 -0.000446991 -1.15142e-10 3.92065e-11 -3.11984e-11 5e-05 1.46608e-10 
120 1 0.0371387 0.0159877 0.00811148 0.00571143 0.000589036 -0.00045546 2.88191e-11 1.53963e-11 1.79568e-11 5e-05 1.46608e-10 
121 1 0.0370997 0.0158666 0.0082658 0.0058985 0.000571763 -0.000423442 3.67318e-11 5.11216e-11 -4.98123e-11 5e-05 1.46608e-10 
122 1 0.037874 0.0179145 0.00697065 0.00644794 0.000689564 2.56798e-05 -1.1436e-10 3.23067e-10 -6.529e-11 5e-05 1.46608e-10 
123 1 0.0312824 0.01622 0.00797017 0.00545382 1.01088e-05 0.000233473 7.90212e-11 2.65133e-11 3.57458e-11 5e-05 1.46608e-10 
124 1 0.0376924 0.0179284 0.0069584 0.00649853 0.000678383 2.94562e-05 -1.5027e-10 -2.90714e-10 1.7763e-10 5e-05 1.46608e-10 
125 1 0.0372524 0.0160705 0.00801057 0.00571326 0.000586775 -0.000452223 7.61082e-11 -8.92767e-11 1.11475e-10 5e-05 1.46608e-10 
126 1 0.0374698 0.0173696 0.00722088 0.00627141 0.000512989 -0.000427673 -6.90481e-11 2.41905e-12 -2.08522e-11 5e-05 1.46608e-10 
127 1 0.0312248 0.0163299 0.00784607 0.00545916 -0.000231432 -2.36519e-05 -1.4824e-10 -5.77197e-11 4.81024e-11 5e-05 1.46608e-10 
128 1 0.0375744 0.0178062 0.00699944 0.00645639 0.000537335 -0.000446069 2.96604e-11 2.4514e-11 1.4328e-12 5e-05 1.46608e-10 
129 1 0.0376594 0.0181848 0.00694748 0.00637547 0.000661897 -0.000103828 -1.21997e-09 2.38163e-10 1.24111e-09 5e-05 1.46608e-10 
130 1 0.0315124 0.017146 0.00727561 0.00578752 -0.000183616 0.000345109 2.16475e-10 3.16171e-10 -1.46219e-10 5e-05 1.46608e-10 
131 1 0.0313757 0.016552 0.00760943 0.00553553 -0.000186398 8.1043e-05 2.79816e-10 -1.21925e-10 4.96286e-11 5e-05 1.46608e-10 
132 1 0.0376704 0.0178353 0.00698943 0.0064711 0.0006857 2.83231e-05 7.89948e-11 -1.15894e-10 9.98029e-11 5e-05 1.46608e-10 
133 1 0.0374223 0.016375 0.00772006 0.00572903 0.000584457 -0.000449459 1.46786e-10 -4.86457e-11 2.21504e-11 5e-05 1.46608e-10 
134 1 0.0375837 0.0170795 0.00736298 0.00571216 0.000444735 -0.000377237 7.22851e-11 -1.27786e-11 5.31252e-12 5e-05 1.46608e-10 
135 1 0.0372333 0.0160099 0.00808779 0.00571056 0.000587299 -0.000453998 1.41697e-11 -6.92184e-11 8.06108e-11 5e-05 1.46608e-10 
136 1 0.0312232 0.0160096 0.00817568 0.00568709 9.47213e-06 0.0003139 5.9069e-11 -1.32662e-10 1.1441e-10 5e-05 1.46608e-10 
137 1 0.0377638 0.0186698 0.0069907 0.00635319 0.000836777 -0.00099368 4.39205e-11 4.20621e-10 9.18495e-12 5e-05 1.46608e-10 
138 1 0.0373667 0.0165224 0.00764782 0.00572385 0.000581268 -0.000447832 6.5393e-11 -5.38994e-11 2.56942e-11 5e-05 1.46608e-10 
140 1 0.0378944 0.0180074 0.00693963 0.00626975 0.000727855 4.01897e-05 -2.36046e-10 8.70523e-10 -3.05688e-10 5e-05 1.46608e-10 
141 1 0.0312631 0.0161507 0.00803966 0.00550818 3.72781e-05 0.000282572 1.1554e-10 -4.37689e-11 8.17307e-11 5e-05 1.46608e-10 
142 1 0.0316079 0.0171763 0.00726661 0.00581326 -0.000178189 0.000343564 -6.14564e-11 -1.01354e-10 2.99207e-11 5e-05 1.46608e-10 
143 1 0.0311874 0.0161964 0.00799058 0.00552263 -0.000115407 0.00042901 9.5936e-11 2.85544e-11 -2.65962e-11 5e-05 1.46608e-10 
144 1 0.0315682 0.0169963 0.00734416 0.00568533 -0.000121619 0.000312217 -5.53481e-11 -1.50522e-10 8.22729e-11 5e-05 1.46608e-10 
146 1 0.0314369 0.016436 0.00771742 0.00549895 -0.000311736 6.20307e-05 -1.51749e-10 -8.99515e-11 1.00384e-10 5e-05 1.46608e-10 
147 1 0.031203 0.0159391 0.00824364 0.00571423 6.8898e-06 0.000318831 1.38309e-10 -1.39883e-10 1.22965e-10 5e-05 1.46608e-10 
148 1 0.0314766 0.0173899 0.00718595 0.00622382 -0.00025661 0.000230201 2.10597e-09 -6.87528e-10 8.53127e-10 5e-05 1.46608e-10 
149 1 0.0379843 0.0180499 0.00692874 0.00601607 0.000929386 -6.93742e-05 -6.4567e-10 1.40822e-10 -1.54643e-11 5e-05 1.46608e-10 
150 1 0.0314707 0.0165697 0.00757265 0.00549285 -0.000115566 0.000246323 -2.07556e-10 2.79997e-11 -4.07697e-12 5e-05 1.46608e-10 
151 1 0.0317777 0.017147 0.00728725 0.00583258 -0.000152485 0.00033233 1.7239e-10 -7.84172e-11 5.4163e-11 5e-05 1.46608e-10 
153 1 0.0313209 0.0163539 0.00782675 0.00542606 -0.000190093 2.87969e-05 3.3176e-10 -7.43591e-11 2.06805e-11 5e-05 1.46608e-10 
154 1 0.0315748 0.017421 0.00717373 0.00607096 -0.000163464 0.000259217 3.12639e-10 -2.56324e-10 3.21682e-10 5e-05 1.46608e-10 
155 1 0.0316615 0.0177953 0.00706263 0.00623057 -0.000298706 -0.000181448 -9.28918e-11 -5.07324e-11 5.77602e-11 5e-05 1.46608e-10 
156 1 0.031553 0.017327 0.0072004 0.00620247 -0.000592889 4.80149e-06 5.0659e-09 -2.72319e-09 2.30644e-10 5e-05 1.46608e-10 
157 1 0.0219312 0.0187687 0.00551176 -3.82777e-14 8.16863e-14 2.95889e-13 6.75651e-22 4.25067e-22 -3.84639e-23 5e-05 1.46608e-10 
158 1 0.0316713 0.0174504 0.00716258 0.00617394 -0.000215244 0.000303345 -1.06109e-10 -1.55899e-10 -2.22558e-11 5e-05 1.46608e-10 
159 1 0.0377367 0.0177008 0.00704774 0.00642146 0.00049644 -0.000414978 -5.63164e-11 -5.98442e-11 -3.39301e-11 5e-05 1.46608e-10 
160 1 0.0315633 0.0177645 0.00707562 0.00618671 -0.000285266 -0.000187573 8.12257e-11 -4.10009e-11 1.43603e-11 5e-05 1.46608e-10 
162 1 0.0315964 0.0175144 0.00714558 0.00616373 -0.000242886 4.32803e-05 -1.27534e-10 -4.27083e-10 -1.30829e-10 5e-05 1.46608e-10 
164 1 0.031827 0.018111 0.00696577 0.00621069 -0.000337058 -0.00017164 -5.28129e-11 6.69235e-11 -1.8068e-11 5e-05 1.46608e-10 
165 1 0.0318422 0.0174161 0.00717152 0.00623677 -0.000179657 0.000370795 -1.79301e-10 -5.24815e-11 -3.52047e-12 5e-05 1.46608e-10 
166 1 0.0373846 0.0162148 0.00783126 0.00574586 0.000582465 -0.000444224 8.97279e-11 -1.76173e-10 2.48114e-10 5e-05 1.46608e-10 
167 1 0.0314549 0.0165018 0.0076443 0.00541464 -0.000288364 6.48482e-05 -3.76399e-10 -1.55355e-11 1.52069e-11 5e-05 1.46608e-10 
168 1 0.031746 0.0173863 0.00718027 0.00620409 -0.000204894 0.00038011 -3.25406e-11 -2.5629e-11 -4.97533e-11 5e-05 1.46608e-10 
169 1 0.0318947 0.0172666 0.00723982 0.00623359 -0.000211146 0.000378148 1.70466e-10 8.8379e-11 1.42612e-11 5e-05 1.46608e-10 
170 1 0.0317895 0.0175727 0.00712054 0.00620843 -0.000357032 -0.000199234 -1.92628e-11 1.09056e-10 -1.75398e-10 5e-05 1.46608e-10 
171 1 0.0374024 0.0162872 0.00776457 0.00574125 0.00058674 -0.000450697 6.28643e-11 -1.92405e-10 9.8475e-11 5e-05 1.46608e-10 
172 1 0.0318204 0.0173265 0.00721005 0.00623527 -0.000200065 0.000371683 2.38272e-11 -6.43114e-11 -4.39833e-11 5e-05 1.46608e-10 
173 1 0.0377126 0.0168706 0.00746403 0.00575138 0.000620584 -0.000468024 -2.14803e-10 1.25741e-10 -5.67954e-11 5e-05 1.46608e-10 
174 1 0.0317146 0.0176371 0.00710529 0.00623297 -0.000317173 -0.000173579 1.47687e-10 2.02311e-10 -1.18581e-11 5e-05 1.46608e-10 
175 1 0.0254862 0.0174359 0.00721638 0.00612757 -0.000142158 5.15157e-05 3.75325e-11 1.5565e-10 4.93363e-12 5e-05 1.46608e-10 
176 1 0.031532 0.017236 0.0072368 0.00598416 -0.000193895 0.000354018 -3.38131e-10 -1.8592e-10 -6.30007e-11 5e-05 1.46608e-10 
177 1 0.0316068 0.0179528 0.0070202 0.00620772 -0.000293874 -0.000184583 -2.71021e-11 1.75257e-10 -4.90598e-11 5e-05 1.46608e-10 
178 1 0.0318529 0.0170869 0.00731713 0.00574317 -0.00013445 0.000320357 -1.85604e-10 1.50187e-11 -2.09725e-11 5e-05 1.46608e-10 
179 1 0.0318857 0.0176012 0.00710811 0.00617682 -0.000361849 -0.000163411 7.56988e-11 2.25007e-11 -8.51726e-11 5e-05 1.46608e-10 
181 1 0.03152 0.0175772 0.00713073 0.00616522 -0.000243306 -0.000138995 -8.59763e-11 -5.88947e-10 -1.19606e-10 5e-05 1.46608e-10 
182 1 0.0373472 0.0164349 0.00769216 0.00572854 0.000581281 -0.000447854 1.05865e-10 -7.62426e-11 3.56409e-11 5e-05 1.46608e-10 
183 1 0.031768 0.0174804 0.00715247 0.00620121 -0.000329531 -8.21253e-05 7.33392e-11 3.21048e-11 -3.40847e-10 5e-05 1.46608e-10 
184 1 0.0376792 0.0177279 0.00712498 0.00657841 0.000383564 -0.000244825 3.91373e-10 -5.31639e-10 1.42663e-10 5e-05 1.46608e-10 
185 1 0.0314555 0.0172961 0.0072135 0.00604951 -0.000205744 0.000206901 6.10682e-10 -5.24826e-10 -6.57938e-10 5e-05 1.46608e-10 
186 1 0.0314983 0.0174836 0.00715871 0.00614369 -0.000233478 0.000103532 5.89994e-10 -8.46904e-10 4.75661e-10 5e-05 1.46608e-10 
187 1 0.0376151 0.0168402 0.00748192 0.00574413 0.000577898 -0.000446658 -1.66175e-10 4.13688e-11 -1.69485e-11 5e-05 1.46608e-10 
188 1 0.0379091 0.0181152 0.00691984 0.00601285 0.000911438 -0.000178649 -8.18403e-10 7.22102e-11 5.96406e-12 5e-05 1.46608e-10 
189 1 0.0375823 0.0169769 0.00750655 0.00569399 0.000551594 -0.000445166 -1.22253e-10 1.71714e-10 -4.6689e-11 5e-05 1.46608e-10 
190 1 0.0255599 0.0173692 0.00722712 0.00613607 -0.000143205 5.1601e-05 2.94309e-11 1.04919e-10 -3.01995e-11 5e-05 1.46608e-10 
191 1 0.0377843 0.0187664 0.00700667 0.00628875 0.000845538 -0.00099357 3.19119e-11 5.29063e-10 1.90598e-10 5e-05 1.46608e-10 
192 1 0.0316828 0.0171169 0.00729619 0.00583115 -0.000187213 0.00034815 -1.6692e-12 -9.99438e-11 1.74589e-11 5e-05 1.46608e-10 
193 1 0.037481 0.0166375 0.00758703 0.00577534 0.000568529 -0.000442779 -1.13331e-10 1.20767e-10 -5.61478e-11 5e-05 1.46608e-10 
194 1 0.0315084 0.0167258 0.00746069 0.00562897 -8.77424e-05 0.000295229 -3.50561e-11 8.78074e-11 -4.74771e-12 5e-05 1.46608e-10 
195 1 0.0318638 0.0175074 0.00713572 0.00618163 -0.000381997 -0.000161392 -2.38442e-11 5.82775e-11 -1.29706e-10 5e-05 1.46608e-10 
196 1 0.031006 0.0155616 0.00860254 0.00561105 2.15588e-05 0.000298193 6.48485e-11 -3.30085e-11 3.29929e-11 5e-05 1.46608e-10 
197 1 0.0255513 0.0177241 0.00716456 0.00610576 -0.000176891 -0.000159988 -6.39756e-11 -3.51193e-11 -3.83193e-11 5e-05 1.46608e-10 
198 1 0.0313774 0.0169336 0.00736311 0.00566174 -3.46449e-05 0.000268351 7.1301e-12 3.50181e-10 -1.8524e-10 5e-05 1.46608e-10 
199 1 0.031618 0.017608 0.00711774 0.00621438 -0.000272523 -0.00010169 -2.24239e-10 -3.52144e-10 -2.66609e-10 5e-05 1.46608e-10 
200 1 0.0314732 0.0169659 0.00735324 0.00552835 -0.000190985 0.000335063 -4.37195e-10 5.63697e-11 -7.15596e-11 5e-05 1.46608e-10 
201 1 0.0319931 0.0180648 0.00697176 0.00623816 -5.34427e-05 -0.000253673 -1.89292e-10 8.46229e-11 -1.67961e-11 5e-05 1.46608e-10 
202 1 0.0317028 0.0172069 0.00725742 0.00586752 -0.000203729 0.000358152 2.94569e-10 -1.7301e-10 9.81604e-11 5e-05 1.46608e-10 
203 1 0.0377684 0.017016 0.00738972 0.00605526 0.0023206 -0.0013278 9.37456e-11 -1.03028e-10 4.87005e-11 5e-05 1.46608e-10 
204 1 0.0314537 0.0168758 0.00739206 0.00553711 -0.000201775 0.000340797 -5.34229e-10 -7.23676e-11 9.93667e-12 5e-05 1.46608e-10 
205 1 0.0317813 0.0178739 0.00703511 0.00619534 -0.000295346 -0.000183828 4.28638e-11 -2.09812e-11 -1.42354e-11 5e-05 1.46608e-10 
206 1 0.0317364 0.0177307 0.00707774 0.00622715 -0.000308135 -0.000180312 7.47073e-11 1.8294e-10 1.33327e-11 5e-05 1.46608e-10 
207 1 0.0313015 0.0162876 0.00789906 0.00541749 -9.33679e-05 0.000119243 2.31721e-10 2.10336e-12 2.61256e-11 5e-05 1.46608e-10 
208 1 0.031693 0.0175437 0.00713372 0.00620625 -0.000297302 -7.5476e-05 1.90258e-10 4.60803e-11 -3.10965e-10 5e-05 1.46608e-10 
209 1 0.0314806 0.0166364 0.00749883 0.00556439 -7.55071e-05 0.000290329 2.53873e-10 4.3781e-11 2.02861e-11 5e-05 1.46608e-10 
210 1 0.0374304 0.0170953 0.00745103 0.00572488 0.000571528 -0.000443791 -1.04631e-11 9.38823e-11 -5.31755e-11 5e-05 1.46608e-10 
211 1 0.0377989 0.017976 0.00694646 0.00645439 0.000693449 2.70528e-05 -1.49144e-10 -2.18498e-10 3.92394e-11 5e-05 1.46608e-10 
212 1 0.0318113 0.0176662 0.00709284 0.00620234 -0.000341824 -0.000170828 3.32988e-11 1.7373e-10 -2.31162e-11 5e-05 1.46608e-10 
213 1 0.0375954 0.0167527 0.00752626 0.00573461 0.000558803 -0.000436768 -2.03713e-10 -4.1145e-12 9.22881e-12 5e-05 1.46608e-10 
214 1 0.0377124 0.0180221 0.00692704 0.00643679 0.000655047 3.10746e-05 -5.97288e-10 -4.91071e-10 1.75808e-10 5e-05 1.46608e-10 
215 1 0.0255274 0.0171905 0.00725475 0.006169 -0.00011825 5.12853e-05 7.77325e-11 1.799e-11 -1.50919e-10 5e-05 1.46608e-10 
216 1 0.0315849 0.0178581 0.00704807 0.00619008 -0.000285848 -0.000186777 5.59854e-11 3.65628e-10 -7.60333e-11 5e-05 1.46608e-10 
217 1 0.0374419 0.0164626 0.00767569 0.00574118 0.000566614 -0.000440812 6.95054e-11 9.27593e-11 -4.73443e-11 5e-05 1.46608e-10 
218 1 0.0317044 0.0179827 0.00700753 0.00620684 -0.000300416 -0.000181716 -2.15872e-10 2.43299e-12 -1.39049e-12 5e-05 1.46608e-10 
219 1 0.0377226 0.0184762 0.00696246 0.00636416 0.00071947 -0.000217996 -9.41945e-11 3.08546e-10 2.49276e-10 5e-05 1.46608e-10 
220 1 0.0315416 0.0176708 0.00710317 0.00620042 -0.000260983 -0.000199262 3.10246e-11 -1.84723e-11 1.82735e-10 5e-05 1.46608e-10 
221 1 0.0254605 0.016918 0.00738533 0.0056312 -5.8448e-05 9.34276e-06 -6.6806e-11 -5.78422e-12 -2.70194e-11 5e-05 1.46608e-10 
222 1 0.0374614 0.0165501 0.00763136 0.00577442 0.000564187 -0.00044061 -9.6708e-11 1.30506e-10 -6.25705e-11 5e-05 1.46608e-10 
223 1 0.0316279 0.0172663 0.00722784 0.0058923 -0.000190304 0.000349916 2.52672e-10 -8.08403e-11 4.96194e-11 5e-05 1.46608e-10 
224 1 0.0314361 0.0172038 0.00724666 0.0057834 -9.69445e-05 0.000300855 -6.67219e-10 -7.26823e-11 -4.26079e-10 5e-05 1.46608e-10 
225 1 0.0379094 0.0176701 0.00705838 0.00658227 0.000635443 -0.00050043 5.56413e-11 2.88426e-11 2.26317e-11 5e-05 1.46608e-10 
226 1 0.0317985 0.0172368 0.00724859 0.0057229 -0.000117505 0.000312338 -1.23258e-10 -2.85435e-11 6.21115e-13 5e-05 1.46608e-10 
227 1 0.0255757 0.0170269 0.00730762 0.00552248 -0.000470371 0.000290809 1.90548e-10 -2.20729e-10 2.2974e-10 5e-05 1.46608e-10 
228 1 0.0255079 0.0175324 0.00720148 0.00611711 -0.000140089 5.19734e-05 -2.35034e-11 8.06068e-11 -6.78609e-11 5e-05 1.46608e-10 
229 1 0.0314457 0.0170627 0.00740238 0.00562488 -7.91175e-05 0.000324994 8.54881e-12 3.5671e-11 6.81027e-11 5e-05 1.46608e-10 
230 1 0.0318631 0.0182935 0.00691236 0.00609409 -0.000160224 -0.000219947 -8.03992e-11 5.84658e-11 4.73301e-13 5e-05 1.46608e-10 
231 1 0.0254645 0.0173395 0.00723127 0.00613612 -0.000140179 5.48208e-05 6.04842e-11 1.61274e-10 -7.40568e-11 5e-05 1.46608e-10 
232 1 0.0313999 0.0163054 0.00786428 0.00541347 -0.000297665 5.30479e-05 -5.86076e-11 -9.86913e-11 1.03917e-10 5e-05 1.46608e-10 
233 1 0.0315289 0.0168162 0.00742177 0.00568197 -0.000111686 0.000307051 -3.26775e-11 -7.00555e-11 4.87476e-11 5e-05 1.46608e-10 
234 1 0.0379853 0.0181799 0.00692261 0.00563926 0.00133911 -0.000123388 -6.41532e-10 -3.05824e-10 2.05812e-11 5e-05 1.46608e-10 
235 1 0.0319038 0.0184908 0.00690764 0.00575527 -0.000101209 0.000381066 1.42871e-10 1.15616e-10 5.6993e-11 5e-05 1.46608e-10 
236 1 0.0318804 0.018393 0.00688599 0.00597633 1.41758e-05 0.000422554 2.34827e-11 6.37878e-11 2.3853e-11 5e-05 1.46608e-10 
237 1 0.0319575 0.0183238 0.00689968 0.00609249 -0.000143312 -0.000221135 -3.0444e-12 -1.41258e-11 -4.33603e-11 5e-05 1.46608e-10 
239 1 0.0252875 0.0165762 0.00763617 0.00560279 4.23036e-05 7.99795e-05 -4.72853e-11 -4.24692e-12 -4.62181e-12 5e-05 1.46608e-10 
240 1 0.0253461 0.0168123 0.00746072 0.00564836 -4.17547e-05 2.46161e-05 -7.88171e-11 4.96531e-10 5.68137e-10 5e-05 1.46608e-10 
241 1 0.025268 0.0164977 0.00769503 0.00559714 5.32972e-05 7.06033e-05 5.10874e-11 -4.64334e-11 4.14847e-11 5e-05 1.46608e-10 
242 1 0.0316435 0.0169368 0.0073738 0.00574993 -0.00019146 0.000346 1.92597e-11 -5.06411e-11 2.52765e-11 5e-05 1.46608e-10 
243 1 0.0314341 0.0167857 0.00743088 0.00565241 -5.41798e-05 0.000280933 3.81679e-11 1.30903e-10 -3.72363e-11 5e-05 1.46608e-10 
244 1 0.0253071 0.0166546 0.00757732 0.0056191 3.26064e-05 8.73194e-05 -4.49391e-12 3.24214e-11 -3.83184e-11 5e-05 1.46608e-10 
246 1 0.0254243 0.017146 0.00726134 0.00592978 -0.000108219 2.88958e-05 -1.56548e-10 -7.80216e-12 -3.4021e-10 5e-05 1.46608e-10 