ITEM: TIMESTEP
8200000
ITEM: NUMBER OF ATOMS
287
ITEM: BOX BOUNDS ff ff ff
-0.02 0.43
-0.02 0.06
-0.02 0.07
ITEM: ATOMS id type x y z vx vy vz fx fy fz radius mass 
1 1 0.0606631 0.0164997 0.00792373 0.00495852 -0.000154173 -0.000441191 2.75978e-11 1.60437e-11 -6.80238e-12 5e-05 1.46608e-10 
2 1 0.0610577 0.0172874 0.00719831 0.00618223 8.00157e-05 9.64774e-05 -1.11294e-10 -1.22327e-11 -4.5549e-11 5e-05 1.46608e-10 
3 1 0.0544544 0.0161176 0.00831073 0.00718215 -0.000129314 0.00168089 1.06118e-10 1.11775e-10 -8.00698e-11 5e-05 1.46608e-10 
4 1 0.060979 0.0177789 0.00718297 0.00608913 1.31658e-05 0.000239886 9.57872e-11 3.17036e-11 -7.5427e-12 5e-05 1.46608e-10 
5 1 0.0605504 0.0164094 0.00801964 0.00523539 -0.000243035 -0.000392614 2.47851e-10 7.84118e-11 -1.13142e-10 5e-05 1.46608e-10 
6 1 0.0666429 0.0167499 0.0076396 0.00539043 -0.000483257 0.000186693 -9.9124e-12 4.11732e-11 -2.809e-11 5e-05 1.46608e-10 
7 1 0.0607174 0.0170529 0.00741068 0.00556648 -0.000208635 -0.000462483 9.45249e-11 -8.93969e-11 1.14073e-10 5e-05 1.46608e-10 
8 1 0.0604365 0.0160572 0.00835566 0.00570879 -0.000345555 -0.000353905 -7.50124e-10 -1.44221e-09 1.35832e-09 5e-05 1.46608e-10 
9 1 0.066903 0.0178429 0.0070713 0.00607027 -0.000614747 0.000246143 -2.04699e-11 -4.58122e-11 7.56274e-14 5e-05 1.46608e-10 
10 1 0.0606607 0.0168378 0.00761433 0.00571543 -0.000339474 -0.000359732 1.3446e-10 -3.21381e-11 6.22417e-12 5e-05 1.46608e-10 
11 1 0.0611246 0.0175767 0.00717321 0.00615252 5.02672e-05 -0.00022537 -1.0402e-11 1.07251e-11 5.13106e-11 5e-05 1.46608e-10 
12 1 0.0546261 0.0166651 0.00764459 0.00554285 0.000113995 0.00107293 2.86442e-10 3.51999e-10 -1.51968e-10 5e-05 1.46608e-10 
13 1 0.0605285 0.0163388 0.00808692 0.00623029 -0.000462092 -0.00030933 -4.22936e-10 5.67422e-11 2.18778e-11 5e-05 1.46608e-10 
14 1 0.0543654 0.0158841 0.00862304 0.00552337 8.70268e-07 0.00117557 7.62675e-11 2.44004e-10 -3.58456e-11 5e-05 1.46608e-10 
15 1 0.0608545 0.0172187 0.00725687 0.00558638 6.70356e-06 -7.3941e-05 1.63669e-10 -3.67169e-11 1.87062e-10 5e-05 1.46608e-10 
16 1 0.0543437 0.0158257 0.00870128 0.00553571 5.47509e-05 0.00109738 9.98803e-11 3.91543e-10 -6.03071e-10 5e-05 1.46608e-10 
17 1 0.0606422 0.0167665 0.00768187 0.00562317 -0.000331294 -0.000353335 -3.64105e-10 3.86431e-11 -4.32556e-11 5e-05 1.46608e-10 
18 1 0.0667794 0.01731 0.00724269 0.00549049 -0.000497147 0.000201878 3.22446e-12 -1.43261e-11 -1.86152e-11 5e-05 1.46608e-10 
19 1 0.0605056 0.0162684 0.00815412 0.00666423 -0.000592284 -0.000235356 4.32923e-10 3.95433e-10 -3.68899e-10 5e-05 1.46608e-10 
21 1 0.0606447 0.0164283 0.00799128 0.00501833 -0.00017133 -0.000432698 -1.89608e-10 1.48752e-10 -1.08032e-10 5e-05 1.46608e-10 
22 1 0.0607647 0.017213 0.00730222 0.00570712 -5.48004e-05 -0.000628437 -6.98031e-12 -5.43474e-12 -1.36885e-11 5e-05 1.46608e-10 
23 1 0.0547931 0.0169955 0.00739811 0.00571108 -0.00053662 -7.27092e-05 -1.3353e-11 3.33578e-10 -1.25083e-10 5e-05 1.46608e-10 
24 1 0.0668388 0.0175498 0.00707269 0.00613393 -0.000622372 0.000251402 -4.4937e-11 1.07266e-11 5.02255e-11 5e-05 1.46608e-10 
25 1 0.0606982 0.016981 0.0074788 0.00555073 -0.000195611 -0.000471654 4.37409e-12 -1.73428e-10 1.63868e-10 5e-05 1.46608e-10 
26 1 0.0667209 0.01707 0.00741277 0.00544738 -0.000494377 0.000193262 1.22969e-12 3.08248e-11 -3.0898e-11 5e-05 1.46608e-10 
27 1 0.0547059 0.0170122 0.00745941 0.00584278 -0.000583729 1.15519e-05 8.91381e-11 3.84894e-11 -3.95615e-10 5e-05 1.46608e-10 
28 1 0.0609577 0.0176812 0.00718231 0.0061236 1.04085e-05 0.000243885 6.78153e-11 -3.5473e-12 -4.37661e-11 5e-05 1.46608e-10 
29 1 0.0604821 0.0161981 0.00822125 0.00733587 -0.000745091 -0.000176239 -8.98177e-10 1.72272e-09 -1.21615e-09 5e-05 1.46608e-10 
30 1 0.0609887 0.0174188 0.00717002 0.00613882 5.36158e-05 -0.000223859 5.46336e-11 -4.34455e-11 -1.00065e-10 5e-05 1.46608e-10 
31 1 0.0607368 0.0171256 0.00734188 0.00564552 -3.6996e-05 -0.000628776 5.11113e-11 1.40308e-11 1.23109e-13 5e-05 1.46608e-10 
32 1 0.0608357 0.0171455 0.00732228 0.00558266 -0.000111125 -0.000209457 -1.58458e-11 -3.44692e-11 1.74973e-10 5e-05 1.46608e-10 
33 1 0.0666624 0.0168299 0.0075829 0.0054042 -0.000488849 0.000190215 1.56928e-11 1.12019e-11 -3.85704e-12 5e-05 1.46608e-10 
34 1 0.060624 0.016695 0.00774944 0.00554257 -0.000332895 -0.00034994 2.04503e-10 -1.55657e-10 1.22527e-10 5e-05 1.46608e-10 
35 1 0.0608124 0.0170726 0.00738671 0.00559144 -0.000234353 -0.000350966 2.7809e-11 -8.46894e-11 1.04587e-10 5e-05 1.46608e-10 
36 1 0.0669458 0.0180382 0.00707037 0.00602506 -0.000605564 0.000244287 -9.9587e-12 -4.24769e-11 4.34761e-13 5e-05 1.46608e-10 
37 1 0.0607738 0.0169291 0.00752044 0.00564645 -0.000288094 -0.000398949 1.16781e-10 8.06608e-12 -2.51149e-10 5e-05 1.46608e-10 
38 1 0.0609316 0.0171633 0.00728859 0.00571878 4.48966e-05 -3.56221e-05 -2.0753e-10 -1.02106e-10 5.34522e-11 5e-05 1.46608e-10 
39 1 0.0668602 0.0176475 0.00707223 0.00612555 -0.000623621 0.000247902 -6.33368e-11 2.81515e-11 1.91237e-12 5e-05 1.46608e-10 
41 1 0.0605865 0.0165524 0.0078845 0.00544018 -0.000301823 -0.000359403 -4.73698e-10 -5.11834e-11 9.96818e-11 5e-05 1.46608e-10 
42 1 0.0607728 0.0172602 0.00721439 0.00569981 -4.87652e-05 -0.000622161 -4.05473e-12 -3.00998e-12 7.6695e-11 5e-05 1.46608e-10 
44 1 0.0609508 0.0172416 0.00722947 0.00600191 7.2851e-05 0.000100228 -9.7687e-12 -6.83017e-11 9.45938e-11 5e-05 1.46608e-10 
45 1 0.0666819 0.0169099 0.00752619 0.00541807 -0.000493441 0.000193002 2.88184e-11 7.56863e-12 1.38891e-12 5e-05 1.46608e-10 
46 1 0.0667619 0.0172296 0.00729956 0.00547934 -0.000497925 0.000196219 2.28279e-11 2.68913e-11 -2.43979e-11 5e-05 1.46608e-10 
47 1 0.0606051 0.0166237 0.00781695 0.00549571 -0.000326189 -0.000348123 1.68937e-10 -1.4538e-10 1.21863e-10 5e-05 1.46608e-10 
48 1 0.060813 0.0174472 0.00717709 0.00616704 -9.33545e-06 0.000237616 2.38195e-11 3.0407e-12 7.36444e-11 5e-05 1.46608e-10 
49 1 0.0667404 0.01715 0.00735606 0.00546249 -0.000494873 0.000192824 -5.72471e-11 3.67066e-11 -4.14252e-11 5e-05 1.46608e-10 
50 1 0.0608768 0.0177398 0.00717911 0.00609904 -1.22589e-05 0.00025913 1.01579e-10 5.13376e-12 -6.88024e-11 5e-05 1.46608e-10 
51 1 0.0608555 0.0176421 0.00717848 0.00612445 -9.24263e-06 0.000252982 4.04295e-11 2.47778e-11 -3.38812e-11 5e-05 1.46608e-10 
52 1 0.0546063 0.0165781 0.00768969 0.00545782 8.90032e-05 0.00103417 1.70555e-10 -4.17571e-10 -1.39957e-10 5e-05 1.46608e-10 
53 1 0.0668004 0.0173897 0.00718612 0.00565443 -0.000527485 0.000215093 -1.18664e-10 4.36135e-11 3.69531e-11 5e-05 1.46608e-10 
54 1 0.0606261 0.016357 0.00805882 0.00553201 -0.000274696 -0.000398423 2.39113e-10 2.19043e-10 -2.19686e-10 5e-05 1.46608e-10 
55 1 0.0544088 0.0160009 0.0084666 0.00557618 -1.42242e-06 0.0011948 1.13367e-12 -1.78663e-10 1.72086e-10 5e-05 1.46608e-10 
56 1 0.0607928 0.0170003 0.00745291 0.0055977 -0.000289975 -0.000408302 4.0423e-11 -1.77314e-10 -1.0156e-10 5e-05 1.46608e-10 
57 1 0.0667016 0.0169899 0.00746949 0.00543304 -0.000495339 0.000194016 -7.9571e-11 3.31527e-11 -1.9089e-11 5e-05 1.46608e-10 
59 1 0.0608514 0.016877 0.00755608 0.00566164 -0.000282274 -0.000405302 -6.00209e-11 -1.4391e-10 8.20912e-11 5e-05 1.46608e-10 
60 1 0.0608704 0.0169483 0.00748857 0.00559829 -0.000273503 -0.000412945 6.5115e-11 -1.03799e-10 5.20686e-11 5e-05 1.46608e-10 
61 1 0.0605691 0.0164808 0.00795211 0.00498263 -0.000208804 -0.000393142 1.28914e-10 1.08704e-10 -1.11217e-10 5e-05 1.46608e-10 
62 1 0.0609676 0.017321 0.00717112 0.00617627 4.77016e-05 0.000123807 1.55565e-10 6.66287e-11 1.17514e-10 5e-05 1.46608e-10 
63 1 0.0609147 0.0174859 0.00717952 0.00615437 1.07928e-05 0.000210119 5.84117e-12 -4.02775e-11 1.85852e-10 5e-05 1.46608e-10 
64 1 0.0668223 0.0174693 0.00712966 0.00596315 -0.000595406 0.000236837 -4.07841e-12 6.77174e-11 1.18244e-10 5e-05 1.46608e-10 
65 1 0.0546764 0.0168284 0.00758661 0.00548969 0.000196734 0.000337855 2.84084e-10 3.20934e-10 -4.35972e-10 5e-05 1.46608e-10 
66 1 0.0547376 0.0166948 0.00770691 0.00538437 0.000157274 0.00112901 2.19331e-10 -3.9694e-10 1.73955e-10 5e-05 1.46608e-10 
67 1 0.0611028 0.0174792 0.00716893 0.00615268 5.08834e-05 -0.000223211 5.9199e-11 -1.93469e-11 2.53134e-11 5e-05 1.46608e-10 
68 1 0.0610317 0.017614 0.00717862 0.00611339 6.28134e-05 -0.000230756 -1.3794e-10 2.25842e-11 9.38551e-11 5e-05 1.46608e-10 
69 1 0.0607187 0.0167138 0.0077211 0.00540747 -0.000222921 -0.00042868 -1.59503e-10 -5.88079e-11 6.5247e-11 5e-05 1.46608e-10 
70 1 0.0668816 0.0177452 0.00707176 0.00609391 -0.000619263 0.000247072 2.26821e-12 -1.74871e-11 -7.78695e-13 5e-05 1.46608e-10 
71 1 0.0543874 0.0159425 0.00854491 0.00495501 2.1195e-05 0.0010288 -6.72152e-10 -1.9213e-10 1.50393e-10 5e-05 1.46608e-10 
72 1 0.0610102 0.0175163 0.00717497 0.00615343 5.64011e-05 -0.000189975 6.47303e-11 6.56168e-11 -3.57123e-10 5e-05 1.46608e-10 
73 1 0.0606793 0.0169093 0.00754667 0.0057414 -0.000519202 -0.000197379 -2.23094e-11 -1.33868e-10 7.76965e-11 5e-05 1.46608e-10 
74 1 0.0608723 0.0172914 0.00719057 0.00560707 0.000121313 5.66254e-05 8.89659e-11 -7.24252e-11 8.46273e-11 5e-05 1.46608e-10 
76 1 0.0549451 0.0176275 0.00712571 0.00608279 -0.000636867 0.000203125 6.98602e-11 -1.5361e-10 -1.63323e-10 5e-05 1.46608e-10 
77 1 0.0611068 0.0183651 0.00718693 0.00592908 5.46475e-05 0.000229166 -4.54468e-11 -4.78664e-11 -9.60572e-12 5e-05 1.46608e-10 
78 1 0.0544794 0.0161899 0.00824633 0.006733 -8.97397e-05 0.00156751 3.57171e-10 1.1473e-10 -2.46666e-10 5e-05 1.46608e-10 
79 1 0.0546449 0.0167343 0.00757485 0.00553856 0.000162529 0.00100935 -1.44714e-10 5.23746e-10 -3.88787e-10 5e-05 1.46608e-10 
80 1 0.0609406 0.0180329 0.00718105 0.00601554 -2.97478e-06 0.000232852 2.43064e-11 -2.70293e-11 6.0067e-11 5e-05 1.46608e-10 
81 1 0.0546216 0.0166863 0.00774221 0.00564407 7.96206e-05 0.0011339 5.91061e-11 -1.4392e-10 8.42851e-11 5e-05 1.46608e-10 
82 1 0.0547221 0.0170617 0.00737406 0.00561178 -0.000641419 -3.64214e-05 -2.76588e-11 1.24955e-10 -6.28012e-12 5e-05 1.46608e-10 
83 1 0.0547969 0.0165719 0.00773914 0.00526848 -1.07809e-05 0.00112601 2.52069e-10 -1.50143e-10 7.04885e-10 5e-05 1.46608e-10 
84 1 0.0669244 0.0179406 0.00707084 0.00604771 -0.000609976 0.000245237 -8.61664e-12 -5.10174e-11 7.1181e-13 5e-05 1.46608e-10 
85 1 0.0545752 0.0162023 0.00821626 0.00623744 -3.08247e-05 0.00138535 2.78482e-12 -8.07269e-11 6.41877e-10 5e-05 1.46608e-10 
86 1 0.0609364 0.0175835 0.00718159 0.0061437 9.45083e-06 0.00024642 1.20925e-11 -2.95453e-11 -3.48949e-11 5e-05 1.46608e-10 
87 1 0.0608327 0.0168056 0.00762362 0.00570773 -0.000290703 -0.00040169 5.14264e-11 -7.67448e-11 8.60644e-11 5e-05 1.46608e-10 
88 1 0.0610045 0.018326 0.00718302 0.00593945 2.1933e-05 0.000230499 -2.11899e-11 -5.04886e-11 -1.11033e-11 5e-05 1.46608e-10 
89 1 0.0609619 0.0181306 0.0071817 0.00599071 3.9354e-06 0.000231406 -7.70438e-13 -6.1597e-11 5.16287e-12 5e-05 1.46608e-10 
90 1 0.0610459 0.0172089 0.00725913 0.00602825 3.69681e-05 8.59989e-06 -1.3318e-10 6.57587e-11 -1.38164e-10 5e-05 1.46608e-10 
91 1 0.0546633 0.0167927 0.00749145 0.00551613 -0.000426291 0.000218143 3.48966e-10 1.96897e-10 4.69614e-10 5e-05 1.46608e-10 
92 1 0.0610742 0.0178093 0.00718662 0.00607798 2.93723e-05 0.00023619 5.89149e-11 4.04272e-11 -6.00241e-12 5e-05 1.46608e-10 
93 1 0.0610642 0.0181697 0.00718561 0.00599163 3.0361e-05 0.000233828 -2.03578e-12 -5.55554e-11 -3.41758e-11 5e-05 1.46608e-10 
94 1 0.0611422 0.0181073 0.00718875 0.00602104 4.50544e-05 0.000231726 -2.82286e-12 -5.52677e-11 1.58866e-11 5e-05 1.46608e-10 
95 1 0.0609193 0.0179352 0.00718039 0.00604129 -6.87366e-06 0.000240861 1.20708e-11 -2.01685e-12 2.01479e-10 5e-05 1.46608e-10 
96 1 0.0610955 0.017907 0.00718728 0.0060586 3.26206e-05 0.000237475 5.84198e-11 -5.4552e-12 -4.90309e-12 5e-05 1.46608e-10 
97 1 0.0545761 0.0165047 0.00786692 0.005508 -6.29253e-05 0.000961673 -1.82698e-10 3.14611e-11 -3.71666e-10 5e-05 1.46608e-10 
98 1 0.0610258 0.0184237 0.00718368 0.00591288 3.27555e-05 0.000230081 -1.10289e-12 -2.19615e-11 3.07396e-12 5e-05 1.46608e-10 
99 1 0.0546728 0.01676 0.00766736 0.00553822 0.000259758 0.00102886 8.83528e-11 4.87205e-10 6.41005e-10 5e-05 1.46608e-10 
100 1 0.0610032 0.0170558 0.00737981 0.00563125 6.12907e-06 -0.000146654 1.51386e-10 1.69583e-10 1.08846e-10 5e-05 1.46608e-10 
101 1 0.054675 0.016516 0.00784658 0.00517334 0.00016098 0.00107879 -3.12234e-10 2.1425e-10 -4.82299e-10 5e-05 1.46608e-10 
102 1 0.0643568 0.0187248 0.00531097 4.3719e-15 1.04719e-14 8.29579e-14 3.91075e-22 -3.16888e-22 2.19203e-23 5e-05 1.46608e-10 
103 1 0.24257 0.0191927 0.00520306 -1.01195e-22 -3.03968e-22 1.23839e-22 0 0 0 5e-05 1.46608e-10 
104 1 0.0549555 0.0172952 0.00726341 0.0059435 -0.000753395 -4.48751e-06 1.32324e-10 -2.32705e-10 1.21445e-10 5e-05 1.46608e-10 
105 1 0.054545 0.0163997 0.00804098 0.00545951 -0.000877145 0.00136145 0 0 -1.43822e-09 5e-05 1.46608e-10 
106 1 0.0550298 0.0172322 0.00728596 0.0059108 -0.000752605 -1.39438e-06 -1.10256e-11 -2.57562e-10 9.81091e-11 5e-05 1.46608e-10 
107 1 0.0545024 0.0162593 0.00817804 0.00620475 -3.58842e-05 0.00141554 -1.62639e-10 5.50732e-10 -6.76901e-11 5e-05 1.46608e-10 
108 1 0.060755 0.0168563 0.00758638 0.00569179 -0.000288781 -0.000399782 2.16008e-10 1.47293e-10 -1.96132e-10 5e-05 1.46608e-10 
109 1 0.060834 0.0175446 0.00718468 0.00615034 -9.26576e-06 0.000259454 5.0682e-11 2.20822e-11 1.72967e-10 5e-05 1.46608e-10 
110 1 0.0611882 0.0178696 0.00718614 0.00607579 6.39018e-05 -0.000232589 8.8207e-11 4.18181e-11 -5.16992e-11 5e-05 1.46608e-10 
111 1 0.0610684 0.0186191 0.007185 0.0058651 5.86198e-05 0.000227616 8.10645e-12 3.48576e-11 -6.89231e-12 5e-05 1.46608e-10 
112 1 0.0545882 0.0165197 0.00776879 0.0054255 0.000104992 0.00100324 -2.38581e-11 -1.89617e-10 4.57026e-11 5e-05 1.46608e-10 
113 1 0.0553076 0.0176497 0.00711698 0.00602561 -0.000595221 0.000542362 7.85802e-11 -1.17586e-10 -2.69954e-11 5e-05 1.46608e-10 
114 1 0.0548943 0.0170269 0.00738259 0.00574158 -0.000601351 0.000297157 1.31037e-10 1.18937e-10 1.75829e-10 5e-05 1.46608e-10 
115 1 0.0608937 0.0173882 0.00717733 0.0061701 1.538e-05 0.000175481 1.54654e-11 -2.71173e-11 1.13953e-10 5e-05 1.46608e-10 
116 1 0.0607367 0.0167904 0.00765934 0.00560074 -0.000264494 -0.000409734 1.5417e-10 -1.88176e-11 -8.26262e-11 5e-05 1.46608e-10 
117 1 0.060604 0.0162863 0.00812609 0.0062737 -0.000433486 -0.000340487 -9.18784e-10 6.3476e-10 -4.57738e-10 5e-05 1.46608e-10 
118 1 0.0544315 0.0160593 0.00838862 0.00666836 -6.26041e-05 0.00149997 1.37397e-10 -9.17836e-11 1.37554e-10 5e-05 1.46608e-10 
119 1 0.06089 0.0170195 0.00742119 0.0056049 -0.000278114 -0.000413834 2.17057e-10 -2.65281e-11 1.75247e-10 5e-05 1.46608e-10 
120 1 0.0604587 0.0161278 0.0082884 0.0067129 -0.000617792 -0.000223648 4.95396e-11 1.23481e-10 1.02555e-11 5e-05 1.46608e-10 
121 1 0.0604153 0.0159863 0.008423 0.00579807 -0.000289516 -0.000401146 5.05553e-10 1.65672e-10 -2.08097e-10 5e-05 1.46608e-10 
122 1 0.0612096 0.0179672 0.00719045 0.00592711 0.000100147 -0.000219203 3.61069e-11 3.48277e-11 2.70519e-11 5e-05 1.46608e-10 
123 1 0.0546059 0.0163198 0.00805616 0.00599884 3.70213e-05 0.00112663 -6.08507e-10 6.84339e-10 -2.44283e-10 5e-05 1.46608e-10 
124 1 0.0610216 0.0179743 0.00718429 0.00603415 1.55962e-05 0.000234033 5.95126e-11 -1.47163e-11 5.46782e-11 5e-05 1.46608e-10 
125 1 0.0605812 0.0162159 0.00819329 0.00664458 -0.000486631 -0.000334817 8.16688e-10 1.3956e-11 -1.1414e-10 5e-05 1.46608e-10 
126 1 0.0607924 0.0173494 0.0071737 0.00568772 0.000133499 -0.000204718 3.03405e-11 -1.47554e-10 -7.33383e-11 5e-05 1.46608e-10 
127 1 0.0545618 0.0164582 0.00795431 0.00546689 7.00641e-05 0.000713336 0 0 -1.43822e-09 5e-05 1.46608e-10 
128 1 0.060898 0.0178375 0.00717974 0.00606809 -1.0264e-05 0.000252313 3.03595e-11 3.97653e-12 1.29104e-10 5e-05 1.46608e-10 
129 1 0.0609832 0.0182283 0.00718236 0.00596607 1.14089e-05 0.000230937 -1.92855e-11 -6.8067e-11 1.23862e-11 5e-05 1.46608e-10 
130 1 0.054817 0.0170886 0.00735768 0.00569849 -0.000814968 3.9403e-05 -1.46544e-10 -3.01059e-10 2.10689e-10 5e-05 1.46608e-10 
131 1 0.0547646 0.0167636 0.00762781 0.00539691 0.000742859 0.000583084 -2.82886e-11 -4.47496e-11 -1.21275e-09 5e-05 1.46608e-10 
132 1 0.0610003 0.0178766 0.00718363 0.00606059 1.31952e-05 0.000236989 7.00501e-11 5.03841e-12 5.78488e-11 5e-05 1.46608e-10 
133 1 0.0607591 0.0165201 0.00789381 0.00510513 -0.000182455 -0.000432164 1.44622e-12 -6.94139e-11 8.52786e-11 5e-05 1.46608e-10 
134 1 0.0609129 0.0170915 0.00735563 0.00560158 -0.000111304 -0.00023354 1.86205e-11 -1.26756e-11 1.69547e-10 5e-05 1.46608e-10 
135 1 0.0605577 0.0161456 0.00826042 0.00724757 -0.000608225 -0.000295402 -4.36099e-10 -4.83077e-10 5.55348e-10 5e-05 1.46608e-10 
136 1 0.054555 0.0161439 0.00829485 0.00533639 -2.58057e-05 0.00116871 -4.375e-10 -4.4224e-10 5.17653e-10 5e-05 1.46608e-10 
137 1 0.0610897 0.0187168 0.00718566 0.00584018 7.08591e-05 0.000226758 9.63333e-12 5.78788e-11 3.70682e-12 5e-05 1.46608e-10 
138 1 0.0607003 0.0166424 0.00778865 0.00523497 -0.000194733 -0.000436612 -1.95041e-10 -3.54939e-11 6.83447e-11 5e-05 1.46608e-10 
140 1 0.0612325 0.0180645 0.00719233 0.0060456 6.91161e-05 0.000237082 7.08605e-11 -2.87907e-12 -2.2466e-11 5e-05 1.46608e-10 
141 1 0.0545933 0.0162614 0.00813634 0.00615279 4.68566e-05 0.00120468 -4.8791e-10 6.6264e-10 -6.72355e-10 5e-05 1.46608e-10 
142 1 0.0549132 0.0171161 0.00734169 0.00590177 -0.000768616 1.00354e-05 -1.6594e-10 1.14508e-10 9.10251e-11 5e-05 1.46608e-10 
143 1 0.0545251 0.0163323 0.00811364 0.00612606 -1.455e-05 0.00135799 1.35245e-11 3.05504e-10 -2.63777e-10 5e-05 1.46608e-10 
144 1 0.0548762 0.0169402 0.00742899 0.00566849 -0.000446432 0.000547038 4.42636e-10 -1.28457e-10 1.3029e-10 5e-05 1.46608e-10 
146 1 0.0547972 0.0166309 0.00765837 0.00529789 4.6207e-05 0.00113323 6.65159e-10 -2.7276e-10 3.33914e-10 5e-05 1.46608e-10 
147 1 0.0545273 0.0160857 0.00837152 0.00730997 6.06608e-06 0.00155681 -4.59193e-10 6.09726e-10 -1.08684e-09 5e-05 1.46608e-10 
148 1 0.0547849 0.017331 0.00725753 0.00599263 -0.000695336 -2.63568e-05 4.38572e-12 4.22511e-11 2.4983e-11 5e-05 1.46608e-10 
149 1 0.0611281 0.0184628 0.00718759 0.00590181 6.38628e-05 0.00022917 3.51579e-12 -4.74489e-11 -1.97766e-12 5e-05 1.46608e-10 
150 1 0.0547015 0.0166051 0.00767174 0.00539531 8.8012e-05 0.00106954 -4.42414e-10 3.3338e-10 3.72886e-10 5e-05 1.46608e-10 
151 1 0.0551061 0.0171712 0.00730749 0.00593348 -0.000696354 -2.4668e-05 1.04635e-10 -4.51734e-11 1.44969e-11 5e-05 1.46608e-10 
153 1 0.0546458 0.0164363 0.00789944 0.00516896 0.000111673 0.00102625 3.10713e-10 3.32607e-10 3.49607e-10 5e-05 1.46608e-10 
154 1 0.054881 0.017358 0.00724101 0.00598283 -0.000719611 -1.63378e-05 -4.78329e-11 -2.58146e-10 1.03761e-10 5e-05 1.46608e-10 
155 1 0.0549693 0.0177211 0.00710018 0.00607134 -0.000576833 0.000429131 -1.02362e-10 2.81246e-11 1.36869e-10 5e-05 1.46608e-10 
156 1 0.0548596 0.0172684 0.00727984 0.00599197 -0.000714865 -1.74963e-05 4.37195e-11 -2.19638e-12 4.43977e-11 5e-05 1.46608e-10 
157 1 0.0219312 0.0187687 0.00551176 -3.83606e-14 8.16527e-14 2.95888e-13 -9.2577e-22 -2.35953e-22 -4.11522e-23 5e-05 1.46608e-10 
158 1 0.0549768 0.0173852 0.00722531 0.00600143 -0.000746818 -4.05095e-06 -1.13828e-10 -1.38841e-10 2.114e-10 5e-05 1.46608e-10 
159 1 0.061053 0.0177116 0.00718311 0.00611628 3.14657e-05 -5.86848e-05 1.00393e-10 5.79261e-11 2.09662e-11 5e-05 1.46608e-10 
160 1 0.0548702 0.0176895 0.00710222 0.0060706 -0.000726109 -1.63572e-05 4.4419e-11 -2.38938e-11 3.46724e-11 5e-05 1.46608e-10 
162 1 0.0549023 0.0174477 0.00720216 0.00602268 -0.000718386 -1.61643e-05 -7.04207e-11 -1.31495e-10 5.69097e-11 5e-05 1.46608e-10 
164 1 0.0551247 0.0180454 0.0071265 0.00597637 -0.000560294 0.000475352 1.52459e-12 4.7778e-11 -3.01969e-10 5e-05 1.46608e-10 
165 1 0.0551914 0.0175273 0.00715322 0.00607979 -0.000738936 -1.87881e-05 -1.66492e-10 1.76065e-10 2.1411e-11 5e-05 1.46608e-10 
166 1 0.0607221 0.0163773 0.0080289 0.00502455 -0.000156687 -0.000446536 -6.9555e-10 -2.89267e-10 3.40526e-10 5e-05 1.46608e-10 
167 1 0.0546949 0.0165492 0.00775436 0.00529864 0.000142147 0.00108695 -4.42802e-10 -1.46924e-10 -4.40141e-10 5e-05 1.46608e-10 
168 1 0.0550512 0.017322 0.00724705 0.00600472 -0.000766611 -2.03683e-06 -1.70252e-10 -1.76671e-10 1.00122e-10 5e-05 1.46608e-10 
169 1 0.0552541 0.0178147 0.00711677 0.00605167 -0.000566899 0.000543136 -7.34337e-11 -1.42039e-11 -2.1441e-11 5e-05 1.46608e-10 
170 1 0.0550963 0.017501 0.00716938 0.00603331 -0.000710377 -2.55679e-05 -5.90032e-11 -2.25509e-11 2.03004e-11 5e-05 1.46608e-10 
171 1 0.0607405 0.0164487 0.00796135 0.00500807 -0.000154097 -0.000447034 -1.3559e-10 -2.28924e-10 2.21106e-10 5e-05 1.46608e-10 
172 1 0.0551542 0.0173549 0.00722772 0.00596006 -0.000811092 2.23281e-05 4.47328e-11 -4.4409e-11 2.43688e-11 5e-05 1.46608e-10 
173 1 0.0611735 0.0174082 0.00716259 0.00612874 6.30125e-05 -0.000225724 -1.30563e-11 -3.89423e-11 2.48878e-11 5e-05 1.46608e-10 
174 1 0.0550221 0.0175659 0.00715273 0.00605024 -0.000666061 0.000168728 8.66074e-11 3.21967e-11 6.84222e-11 5e-05 1.46608e-10 
175 1 0.0487876 0.0173352 0.00723866 0.00654127 0.00146457 -0.00102942 1.47546e-11 -6.5982e-12 5.06879e-11 5e-05 1.46608e-10 
176 1 0.0548385 0.0171787 0.00731868 0.00591229 -0.000708728 -2.00634e-05 4.22317e-11 5.50502e-11 -8.39216e-11 5e-05 1.46608e-10 
177 1 0.0549131 0.0178836 0.00708738 0.00604219 -0.000582567 0.000530719 2.33866e-12 3.31719e-11 -5.82077e-11 5e-05 1.46608e-10 
178 1 0.0552864 0.017554 0.00713694 0.00608521 -0.000727097 -2.29807e-05 -2.04251e-10 6.62945e-12 -2.29487e-11 5e-05 1.46608e-10 
179 1 0.0552336 0.0177166 0.00711206 0.00603816 -0.000580543 0.000544647 7.36004e-11 -3.24246e-11 4.23605e-12 5e-05 1.46608e-10 
181 1 0.0548275 0.0175102 0.00717987 0.00603893 -0.000694017 -2.98113e-05 1.29964e-11 -1.9138e-11 -6.22146e-12 5e-05 1.46608e-10 
182 1 0.0606816 0.0165711 0.00785619 0.00504357 -0.00016307 -0.000442815 5.55587e-11 -4.08888e-11 2.13812e-11 5e-05 1.46608e-10 
183 1 0.055074 0.0174114 0.00720824 0.00602468 -0.000739974 -3.93002e-06 1.78063e-10 5.0567e-11 -2.22471e-11 5e-05 1.46608e-10 
184 1 0.061023 0.0177532 0.007269 0.00642981 3.31814e-05 5.78073e-05 1.84556e-11 7.77927e-11 -2.49211e-11 5e-05 1.46608e-10 
185 1 0.0547635 0.0172413 0.00729635 0.00596146 -0.000701279 -1.9602e-05 -4.36599e-11 -7.25618e-11 1.28681e-11 5e-05 1.46608e-10 
186 1 0.0548062 0.0174206 0.0072187 0.00600942 -0.000694288 -2.95604e-05 -1.3378e-11 -6.02863e-11 -3.04817e-11 5e-05 1.46608e-10 
187 1 0.0609804 0.0169827 0.00744413 0.00558927 -0.000196028 -0.000386462 -1.36885e-11 4.55411e-11 1.77047e-11 5e-05 1.46608e-10 
188 1 0.0610855 0.0182674 0.00718627 0.00595774 4.31781e-05 0.000231635 -3.33713e-11 -5.25308e-11 1.58595e-11 5e-05 1.46608e-10 
189 1 0.061022 0.0171292 0.00731447 0.00572861 0.000144781 3.95452e-05 -5.14632e-11 1.69095e-10 -3.86427e-11 5e-05 1.46608e-10 
190 1 0.0488972 0.017382 0.00721616 0.00653973 0.00146012 -0.00103491 -3.04861e-11 -5.41105e-11 3.31629e-11 5e-05 1.46608e-10 
191 1 0.061111 0.0188145 0.00718632 0.00581526 8.07709e-05 0.000225668 1.61054e-11 7.2529e-11 -1.89467e-13 5e-05 1.46608e-10 
192 1 0.0549891 0.0170524 0.00736369 0.00569337 -0.000696404 -1.27824e-05 -1.80828e-10 -2.34408e-10 1.25051e-10 5e-05 1.46608e-10 
193 1 0.0608134 0.0167344 0.00769111 0.00560194 -0.000271801 -0.000407681 -1.66387e-10 7.23118e-12 -1.58596e-11 5e-05 1.46608e-10 
194 1 0.054738 0.0167415 0.00753397 0.00541936 -0.000111339 0.00073699 1.58913e-10 -7.68409e-10 1.03616e-10 5e-05 1.46608e-10 
195 1 0.0552118 0.017619 0.00711358 0.00600049 -0.000593629 -7.97346e-05 1.46831e-10 -7.48534e-11 -1.37396e-11 5e-05 1.46608e-10 
196 1 0.054322 0.0157673 0.00877952 0.00555601 7.22613e-05 0.00108309 1.51428e-10 3.93485e-10 -5.21933e-10 5e-05 1.46608e-10 
197 1 0.0488527 0.0176191 0.00716702 0.00654174 0.00148344 -0.000881659 2.72757e-12 -4.22347e-11 4.17183e-11 5e-05 1.46608e-10 
198 1 0.0546788 0.0168914 0.00750894 0.00552563 -0.000429132 -0.000166033 6.20958e-11 -2.66396e-10 -7.83307e-10 5e-05 1.46608e-10 
199 1 0.0549237 0.0175373 0.00716337 0.0060515 -0.000694447 4.28697e-05 8.10777e-11 -2.70469e-10 -2.74337e-10 5e-05 1.46608e-10 
200 1 0.0547362 0.0169208 0.00743256 0.00577966 -0.000611511 -4.3347e-05 5.36417e-10 -1.4952e-10 -2.78464e-13 5e-05 1.46608e-10 
201 1 0.0552228 0.0180771 0.00712142 0.00597451 -0.00052331 0.000538067 6.91859e-11 1.05751e-10 -5.90315e-13 5e-05 1.46608e-10 
202 1 0.0550095 0.0171423 0.00732482 0.00585424 -0.000733124 -5.19562e-06 2.85759e-10 -3.02674e-10 7.31116e-11 5e-05 1.46608e-10 
203 1 0.0610812 0.0173845 0.00719272 0.00615529 7.96305e-05 -0.000120599 -7.26319e-11 8.23207e-12 -2.56806e-11 5e-05 1.46608e-10 
204 1 0.0547537 0.0168297 0.00746992 0.00556447 -0.000660538 -1.30411e-05 1.08082e-10 -4.24602e-10 5.46438e-11 5e-05 1.46608e-10 
205 1 0.0550856 0.0178508 0.00710224 0.00604521 -0.000562568 0.000533565 -6.50906e-11 7.48841e-11 -6.16726e-11 5e-05 1.46608e-10 
206 1 0.0550442 0.0176581 0.00712083 0.00607251 -0.000610508 0.000347848 -5.89213e-12 2.98138e-10 5.46577e-10 5e-05 1.46608e-10 
207 1 0.0546178 0.0163782 0.00797585 0.00545959 3.79552e-05 0.00106083 5.9807e-11 -3.09726e-10 -4.18637e-10 5e-05 1.46608e-10 
208 1 0.0549996 0.0174748 0.00718717 0.00603672 -0.000721212 3.49299e-05 8.08451e-11 -1.30664e-10 -2.23601e-11 5e-05 1.46608e-10 
209 1 0.0547135 0.0166635 0.00759144 0.00551488 9.41843e-05 0.00108672 -1.381e-09 -4.94513e-11 -3.81221e-11 5e-05 1.46608e-10 
210 1 0.060833 0.0173902 0.00725678 0.00615924 -0.000113872 0.000168325 -1.24525e-10 9.91007e-11 1.24432e-10 5e-05 1.46608e-10 
211 1 0.0611168 0.0180047 0.00718794 0.00602667 3.8512e-05 0.000233812 4.3328e-11 -1.12683e-12 1.19917e-11 5e-05 1.46608e-10 
212 1 0.0551174 0.0175907 0.00713055 0.00605738 -0.000697806 0.000103054 -9.89728e-11 -6.2455e-12 -3.36278e-10 5e-05 1.46608e-10 
213 1 0.0609606 0.0169116 0.00751156 0.00561292 -0.000249519 -0.000433292 4.28307e-11 3.32005e-11 -5.1759e-11 5e-05 1.46608e-10 
214 1 0.0610429 0.018072 0.00718495 0.0060103 2.15072e-05 0.000232987 2.27062e-11 -4.09685e-11 4.43316e-12 5e-05 1.46608e-10 
215 1 0.0488396 0.0171736 0.00727105 0.0064439 0.00141767 -0.000855837 -1.31674e-10 6.0647e-11 2.18772e-10 5e-05 1.46608e-10 
216 1 0.054892 0.0177851 0.00708244 0.00606625 -0.000616793 0.000542785 7.47301e-11 1.81858e-11 6.4145e-11 5e-05 1.46608e-10 
217 1 0.0607776 0.0165914 0.00782627 0.00523986 -0.000211922 -0.000419719 2.41685e-10 -6.73935e-11 1.52933e-11 5e-05 1.46608e-10 
218 1 0.0550102 0.0179164 0.00709732 0.00603548 -0.00056874 0.000531354 -8.4935e-11 4.63849e-11 -3.84365e-11 5e-05 1.46608e-10 
219 1 0.0610471 0.0185214 0.00718434 0.00588865 4.5126e-05 0.000228524 9.7394e-12 1.92532e-12 8.28163e-12 5e-05 1.46608e-10 
220 1 0.0548489 0.0175999 0.00714104 0.00605764 -0.000707312 -2.32771e-05 5.95032e-11 -1.20348e-10 -1.02892e-11 5e-05 1.46608e-10 
221 1 0.0487825 0.0169348 0.00744032 0.0059868 0.00163655 -0.00100133 2.2118e-10 -4.75392e-11 2.47007e-10 5e-05 1.46608e-10 
222 1 0.0607961 0.0166628 0.00775872 0.00537038 -0.000238956 -0.00041031 1.12408e-10 -5.36565e-11 -7.37131e-11 5e-05 1.46608e-10 
223 1 0.0549345 0.0172055 0.00730225 0.00592727 -0.000769231 5.20176e-07 2.8333e-10 -1.74522e-10 5.13674e-11 5e-05 1.46608e-10 
224 1 0.0547426 0.0171516 0.0073352 0.0058178 -0.00068388 -2.23748e-05 -2.05401e-10 -3.68485e-11 2.40734e-11 5e-05 1.46608e-10 
225 1 0.0612621 0.0178024 0.00717989 0.00608576 6.1889e-05 -0.000220777 1.14246e-10 -1.59543e-11 -4.27488e-11 5e-05 1.46608e-10 
226 1 0.0551279 0.0172614 0.00726841 0.00599241 -0.000795629 1.50887e-05 9.20901e-11 1.24023e-10 -5.40084e-11 5e-05 1.46608e-10 
227 1 0.0489091 0.0171026 0.007282 0.00618775 0.00122541 -0.000563084 -3.54348e-11 1.72835e-10 -1.41994e-10 5e-05 1.46608e-10 
228 1 0.0488093 0.0174298 0.00721453 0.0065392 0.00145422 -0.00103742 1.32177e-11 -4.30845e-11 3.95907e-11 5e-05 1.46608e-10 
229 1 0.0547862 0.0172223 0.00739187 0.00595442 -0.000699602 -1.06788e-06 9.0668e-11 -1.48489e-10 7.78871e-11 5e-05 1.46608e-10 
230 1 0.0551682 0.0182399 0.00712106 0.00591394 -0.000558045 0.00053144 2.33654e-11 4.30993e-11 -3.27955e-12 5e-05 1.46608e-10 
231 1 0.0487658 0.0172406 0.00726278 0.00653067 0.00147757 -0.00102042 -1.86072e-11 1.32391e-11 1.37114e-10 5e-05 1.46608e-10 
232 1 0.0547713 0.0165137 0.0078163 0.0052639 -2.61231e-05 0.00112761 -4.71982e-10 -3.60701e-10 2.84617e-10 5e-05 1.46608e-10 
233 1 0.0548328 0.016773 0.00752974 0.00543204 -9.23104e-05 0.00102907 -4.20622e-10 -5.3324e-10 -2.82506e-10 5e-05 1.46608e-10 
234 1 0.061202 0.0183955 0.00719057 0.0059193 8.51366e-05 0.00023 -2.31204e-11 -1.174e-10 -8.67599e-16 5e-05 1.46608e-10 
235 1 0.0552104 0.0184358 0.00713059 0.00583606 -0.000553837 0.00052344 6.31833e-11 8.95666e-11 8.35589e-12 5e-05 1.46608e-10 
236 1 0.055189 0.0183376 0.00712579 0.00587497 -0.000556781 0.000527214 4.01739e-11 9.4276e-12 5.17333e-12 5e-05 1.46608e-10 
237 1 0.0552838 0.018368 0.00713543 0.00586287 -0.000521644 0.000527363 2.94706e-11 4.49983e-11 3.70895e-12 5e-05 1.46608e-10 
239 1 0.0485908 0.0165604 0.00780383 0.00584222 0.00165973 -0.00104045 8.32911e-11 2.66788e-10 -2.37024e-10 5e-05 1.46608e-10 
240 1 0.048648 0.0167689 0.00759581 0.00591014 0.00163967 -0.00102398 1.31828e-11 -2.6956e-11 1.59659e-10 5e-05 1.46608e-10 
241 1 0.0485721 0.0164909 0.00787326 0.00599645 0.00164183 -0.00101306 6.84221e-11 9.8544e-11 -1.00158e-10 5e-05 1.46608e-10 
242 1 0.0549483 0.0168721 0.00744167 0.00539077 -0.000816087 5.45645e-05 4.07943e-10 -3.15533e-10 5.80368e-11 5e-05 1.46608e-10 
243 1 0.0547732 0.0168442 0.00756693 0.00535266 0.00038755 -7.0737e-05 -9.6077e-10 3.23632e-10 3.35041e-10 5e-05 1.46608e-10 
244 1 0.0486098 0.0166299 0.00773449 0.00586413 0.00165619 -0.00103542 3.17782e-11 1.08341e-10 -8.91135e-11 5e-05 1.46608e-10 
246 1 0.0487246 0.0170621 0.00734091 0.00599907 0.00163433 -0.000994177 -7.34761e-12 -3.6981e-11 -7.80283e-11 5e-05 1.46608e-10 
247 1 0.0551049 0.0179477 0.00711733 0.00601742 -0.000561112 0.000536226 -1.56507e-11 9.93082e-11 -1.05067e-10 5e-05 1.46608e-10 