ITEM: TIMESTEP
2000000
ITEM: NUMBER OF ATOMS
289
ITEM: BOX BOUNDS ff ff ff
-0.02 0.43
-0.02 0.06
-0.02 0.07
ITEM: ATOMS id type x y z vx vy vz fx fy fz radius mass 
1 1 0.0245656 0.0166343 0.00759116 0.00543182 -0.000320673 0.000195518 -2.52282e-10 4.90646e-10 -3.56862e-10 5e-05 1.46608e-10 
2 1 0.0249115 0.0173796 0.00722227 0.00587777 -0.000655249 0.000133396 -1.73143e-11 1.14929e-10 -4.21107e-11 5e-05 1.46608e-10 
3 1 0.0186701 0.0174961 0.00717805 0.00598768 -0.00162807 0.000579111 -5.08939e-10 6.17756e-10 -4.37586e-10 5e-05 1.46608e-10 
4 1 0.0248914 0.0180891 0.00711185 0.00594063 -0.000632284 0.000127386 4.84107e-11 -7.2805e-11 8.99444e-12 5e-05 1.46608e-10 
5 1 0.0244517 0.0165281 0.00766693 0.00543101 -0.000370138 0.000228655 8.87027e-11 3.11034e-10 -1.40783e-10 5e-05 1.46608e-10 
6 1 0.0304614 0.0165477 0.00760477 0.00560568 0.000227595 9.94302e-05 2.63397e-10 2.18999e-10 -1.99789e-10 5e-05 1.46608e-10 
7 1 0.0246254 0.0172844 0.00723568 0.00559756 -0.000476942 -0.000170463 -3.48061e-10 -8.22334e-10 -1.02702e-10 5e-05 1.46608e-10 
8 1 0.0243536 0.0161307 0.00795402 0.00546025 -0.000407852 0.000413645 4.41786e-10 -3.89397e-10 1.48662e-10 5e-05 1.46608e-10 
9 1 0.0307155 0.0177041 0.0071293 0.00612469 1.52484e-05 -0.000268708 1.11147e-10 2.21902e-11 -2.23325e-11 5e-05 1.46608e-10 
10 1 0.0245676 0.0170084 0.00732665 0.0055888 -0.000385977 0.000237644 -6.70367e-11 3.41347e-10 -8.98235e-11 5e-05 1.46608e-10 
11 1 0.0249589 0.0175779 0.00719167 0.00583821 -0.00064533 0.000129478 -3.57563e-10 -1.98165e-10 2.53273e-11 5e-05 1.46608e-10 
12 1 0.018884 0.0184312 0.00692707 0.00580459 -0.00220643 0.000565377 -3.42109e-10 1.20509e-09 -1.62166e-10 5e-05 1.46608e-10 
13 1 0.0244324 0.016448 0.00772365 0.00537844 -0.000370263 0.000234676 -1.67457e-10 3.22451e-10 -2.54523e-10 5e-05 1.46608e-10 
14 1 0.0185899 0.0171449 0.00734706 0.00462265 -0.00214077 0.00087241 -5.44728e-10 8.25706e-10 -3.74418e-10 5e-05 1.46608e-10 
15 1 0.0247616 0.0175102 0.00720121 0.00593161 -0.000631855 0.000127605 2.30051e-10 -1.93586e-10 5.33407e-11 5e-05 1.46608e-10 
16 1 0.0185701 0.0170561 0.00738979 0.00468861 -0.00411041 0.0018047 1.29184e-10 5.63126e-10 -2.70565e-10 5e-05 1.46608e-10 
17 1 0.0245482 0.0169284 0.00738336 0.00557044 -0.000373127 0.000234397 -4.55164e-10 -1.72662e-10 2.14483e-10 5e-05 1.46608e-10 
18 1 0.0305947 0.0171402 0.00729476 0.00569369 0.000118882 -0.000274941 1.90013e-10 -1.2343e-11 -4.32525e-11 5e-05 1.46608e-10 
19 1 0.0244129 0.016368 0.00778034 0.00557972 -0.000413139 0.000313595 2.99043e-10 4.4385e-10 -4.14465e-10 5e-05 1.46608e-10 
21 1 0.0245463 0.0165542 0.00764788 0.00542639 -0.000343042 0.00020958 1.29187e-10 1.78181e-10 -1.57156e-10 5e-05 1.46608e-10 
22 1 0.0246641 0.0174783 0.00720568 0.00593104 -0.000643959 0.000122376 -7.21441e-10 2.88485e-10 2.48504e-11 5e-05 1.46608e-10 
23 1 0.0190585 0.0188504 0.00686459 0.00537256 -0.00229039 0.000535138 -1.80454e-10 -1.47877e-09 2.69789e-10 5e-05 1.46608e-10 
24 1 0.0306531 0.0174226 0.00721199 0.00569956 0.000116816 -0.000279378 5.22836e-11 -4.12506e-12 -4.90441e-12 5e-05 1.46608e-10 
25 1 0.0246065 0.0171874 0.00725116 0.00563042 -0.000382512 -0.000134529 3.64214e-10 -6.75487e-10 -6.7445e-10 5e-05 1.46608e-10 
26 1 0.0305365 0.0168578 0.00737754 0.00571255 6.90659e-05 -0.000364359 2.20034e-10 -4.10403e-10 -3.02135e-10 5e-05 1.46608e-10 
27 1 0.0189636 0.0188185 0.00686649 0.0052955 -0.00238199 0.000573761 5.69512e-11 -7.61474e-11 4.27764e-11 5e-05 1.46608e-10 
28 1 0.0248697 0.0179926 0.00712674 0.0059423 -0.000638221 0.0001289 1.39044e-11 -2.70089e-11 3.43212e-12 5e-05 1.46608e-10 
29 1 0.0243931 0.0162882 0.00783729 0.00550147 -0.000412324 0.000385474 1.88939e-10 1.79282e-10 -2.62105e-10 5e-05 1.46608e-10 
30 1 0.0249323 0.017731 0.00716773 0.00588288 -0.000651426 0.000130725 1.63189e-10 -8.59109e-12 2.53123e-12 5e-05 1.46608e-10 
31 1 0.0246442 0.0173814 0.00722064 0.00556361 -0.000384659 4.01817e-05 2.94878e-11 1.78969e-09 9.1554e-11 5e-05 1.46608e-10 
32 1 0.0247398 0.0174137 0.0072161 0.00574826 -0.000377608 8.05789e-05 -8.543e-10 7.48788e-10 9.5708e-11 5e-05 1.46608e-10 
33 1 0.03048 0.0166184 0.00753654 0.00560302 0.000264625 5.31818e-05 -5.16455e-10 5.28306e-10 -4.54897e-10 5e-05 1.46608e-10 
34 1 0.0245289 0.0168483 0.00744007 0.00552282 -0.000367468 0.000226855 -1.23323e-10 -7.94848e-11 1.19725e-10 5e-05 1.46608e-10 
35 1 0.0247199 0.0173169 0.00723106 0.00565238 -0.000456403 8.18016e-05 -1.02258e-09 1.03916e-09 -1.28083e-10 5e-05 1.46608e-10 
36 1 0.0307584 0.0178915 0.00707419 0.00617267 2.4701e-05 -0.000273074 -1.47626e-11 1.89499e-11 -1.39626e-12 5e-05 1.46608e-10 
37 1 0.024682 0.0171242 0.00726864 0.00555409 -0.000359253 4.71857e-05 -4.396e-10 -3.79771e-10 5.22785e-10 5e-05 1.46608e-10 
38 1 0.0248366 0.0174449 0.00721173 0.00596568 -0.000590207 0.000125519 1.96388e-10 2.13984e-12 -8.32838e-11 5e-05 1.46608e-10 
39 1 0.0306726 0.0175167 0.00718441 0.00609334 3.5974e-05 -0.000273901 -1.17032e-10 1.05553e-10 -3.08812e-11 5e-05 1.46608e-10 
41 1 0.0244903 0.0166882 0.0075535 0.00546472 -0.000369514 0.000227922 -1.7263e-10 -7.8737e-11 5.47825e-11 5e-05 1.46608e-10 
42 1 0.0246859 0.0175748 0.00719079 0.00595603 -0.000530961 0.00011097 -1.1191e-10 -1.78672e-10 3.62835e-11 5e-05 1.46608e-10 
44 1 0.0248628 0.0175474 0.00719592 0.00592681 -0.000625266 0.000126693 5.39207e-11 1.04972e-10 -1.34822e-11 5e-05 1.46608e-10 
45 1 0.0304984 0.0166891 0.00746827 0.00569769 0.000261278 6.48685e-05 -2.52668e-10 6.80274e-12 -1.32217e-10 5e-05 1.46608e-10 
46 1 0.0305752 0.0170461 0.00732235 0.00571348 0.00010381 -0.000272981 1.62257e-10 -4.00863e-12 -5.32042e-11 5e-05 1.46608e-10 
47 1 0.0245096 0.0167683 0.00749678 0.00546833 -0.000361262 0.000222518 -5.10514e-11 -1.64006e-10 9.25693e-11 5e-05 1.46608e-10 
48 1 0.0247295 0.0177684 0.0071609 0.00592797 -0.000659978 0.000132252 2.69827e-11 1.56143e-11 -4.22853e-12 5e-05 1.46608e-10 
49 1 0.0305558 0.016952 0.00734994 0.00571557 9.02979e-05 -0.000275136 2.76321e-10 -2.27493e-10 -6.0125e-12 5e-05 1.46608e-10 
50 1 0.0247947 0.0180579 0.00711621 0.00594166 -0.000639049 0.000128947 1.47067e-11 2.3305e-11 9.35262e-13 5e-05 1.46608e-10 
51 1 0.0247729 0.0179613 0.00713112 0.00593096 -0.000671749 0.000134114 1.81577e-11 1.4653e-10 -2.18371e-11 5e-05 1.46608e-10 
52 1 0.0188623 0.0183348 0.00694209 0.00574771 -0.00227787 0.00057406 4.00724e-10 1.47154e-09 -2.15796e-10 5e-05 1.46608e-10 
53 1 0.0306141 0.0172344 0.00726717 0.00567442 0.000132786 -0.000282849 -1.36642e-10 -1.5115e-10 1.3189e-10 5e-05 1.46608e-10 
54 1 0.0245271 0.0164742 0.00770459 0.00541346 -0.000355545 0.000216329 1.08038e-10 3.1039e-10 -1.91138e-10 5e-05 1.46608e-10 
55 1 0.0186302 0.0173216 0.00726201 0.0070081 -0.00221522 0.000833972 -4.05515e-10 5.39506e-10 -7.37114e-10 5e-05 1.46608e-10 
56 1 0.024701 0.0172198 0.00724609 0.00587828 -0.000328363 -0.000502868 -3.18409e-11 -1.0861e-09 -5.06448e-10 5e-05 1.46608e-10 
57 1 0.0305172 0.0167633 0.00740385 0.0057219 0.000203718 2.40724e-05 3.40776e-13 -2.45012e-10 -1.61136e-10 5e-05 1.46608e-10 
59 1 0.0247573 0.0170614 0.00728807 0.00539946 -0.000420802 0.000286888 -4.91239e-10 5.25993e-10 -1.05698e-09 5e-05 1.46608e-10 
60 1 0.0247766 0.0171546 0.00725715 0.00562614 -0.000524295 0.000138587 -2.02428e-10 3.2718e-10 -2.84581e-10 5e-05 1.46608e-10 
61 1 0.024471 0.0166081 0.00761022 0.00545607 -0.000368818 0.000227157 -4.73839e-12 1.91921e-10 -1.27647e-10 5e-05 1.46608e-10 
62 1 0.0248847 0.017644 0.00718101 0.00585974 -0.000634107 0.000127696 -1.34434e-10 -6.96921e-11 1.12248e-11 5e-05 1.46608e-10 
63 1 0.0248264 0.0177997 0.00715652 0.00588978 -0.000622037 0.000126135 7.0632e-11 -3.47094e-11 7.61049e-12 5e-05 1.46608e-10 
64 1 0.0306336 0.0173285 0.00723958 0.00565419 0.000132575 -0.000282361 -7.18705e-11 -1.49412e-10 4.25706e-11 5e-05 1.46608e-10 
65 1 0.0189805 0.0184627 0.00692528 0.00535708 -0.00211398 0.000530489 -3.21339e-09 2.00144e-09 -4.34777e-10 5e-05 1.46608e-10 
66 1 0.0189153 0.0181733 0.00697035 0.00576196 -0.00225348 0.000571443 2.85475e-10 5.77539e-10 -3.27947e-12 5e-05 1.46608e-10 
67 1 0.0249321 0.0174763 0.00720733 0.00589807 -0.000649592 0.000130799 1.17379e-11 1.05512e-10 -1.28701e-11 5e-05 1.46608e-10 
68 1 0.0249436 0.0179261 0.00713745 0.00595155 -0.000634698 0.000128438 3.9921e-11 -8.68471e-11 9.54666e-12 5e-05 1.46608e-10 
69 1 0.0246236 0.0168745 0.007421 0.00553467 -0.000362195 0.000222817 -1.84956e-10 -1.34864e-10 6.83374e-11 5e-05 1.46608e-10 
70 1 0.030694 0.0176104 0.00715685 0.00611702 2.78021e-05 -0.000272424 -9.46321e-11 1.49312e-10 -3.38239e-11 5e-05 1.46608e-10 
71 1 0.0186099 0.0172334 0.00730447 0.00522063 -0.00187462 0.000729749 -5.18053e-10 7.3653e-10 -4.30901e-10 5e-05 1.46608e-10 
72 1 0.0249218 0.0178292 0.0071524 0.00589515 -0.000653148 0.000131247 1.05453e-10 6.48543e-11 -8.80029e-12 5e-05 1.46608e-10 
73 1 0.0245875 0.0170908 0.00726835 0.00562031 -0.000309818 0.000179299 3.22783e-10 1.32638e-10 3.08677e-11 5e-05 1.46608e-10 
74 1 0.0247828 0.0176067 0.0071863 0.00592822 -0.000629729 0.000127419 7.21226e-13 -9.36026e-11 2.27182e-11 5e-05 1.46608e-10 
76 1 0.0192081 0.0195513 0.00687558 0.00507047 -0.00245443 -0.000598543 5.81959e-10 -4.24139e-10 -1.90091e-10 5e-05 1.46608e-10 
77 1 0.0250603 0.0187871 0.00698193 0.00599058 -0.000625654 -6.85708e-05 5.73577e-11 3.58893e-11 -7.7465e-12 5e-05 1.46608e-10 
78 1 0.0186905 0.0175843 0.00713559 0.00578086 -0.00158696 0.00058334 3.50882e-10 8.89339e-11 2.05713e-10 5e-05 1.46608e-10 
79 1 0.0189057 0.0185277 0.00691204 0.00535191 -0.00205702 0.000522142 -4.49176e-10 7.3287e-10 -9.5185e-11 5e-05 1.46608e-10 
80 1 0.0248599 0.0183471 0.00706999 0.00595232 -0.000634067 -6.69138e-05 -3.36494e-11 -1.22674e-10 2.15495e-11 5e-05 1.46608e-10 
81 1 0.0188406 0.0182384 0.00695711 0.00574398 -0.00228675 0.000574706 -2.43113e-10 6.80552e-10 -1.52365e-10 5e-05 1.46608e-10 
82 1 0.0189835 0.0189164 0.00686067 0.00535756 -0.0023682 0.000543586 1.04127e-09 -4.69729e-10 4.38879e-10 5e-05 1.46608e-10 
83 1 0.018922 0.0178162 0.00702899 0.00584612 -0.00233484 0.000589619 -8.68671e-11 -6.03406e-10 4.50756e-10 5e-05 1.46608e-10 
84 1 0.030737 0.0177978 0.00710174 0.00615353 1.95288e-05 -0.000270264 8.56665e-11 -5.85912e-11 6.76842e-12 5e-05 1.46608e-10 
85 1 0.0187794 0.0175417 0.00715302 0.00585291 -0.00230039 0.000904523 -2.5178e-10 -1.10975e-09 4.49591e-10 5e-05 1.46608e-10 
86 1 0.0248482 0.0178961 0.00714164 0.00591864 -0.000630993 0.000127836 3.30947e-12 -2.1124e-11 -4.3418e-12 5e-05 1.46608e-10 
87 1 0.0247385 0.0169814 0.00734493 0.00530949 -0.000441978 0.000290791 4.57975e-10 3.05555e-10 -4.90286e-10 5e-05 1.46608e-10 
88 1 0.024925 0.0186346 0.00701448 0.00597763 -0.000627191 -6.79247e-05 -2.74562e-11 -8.21353e-11 1.59188e-11 5e-05 1.46608e-10 
89 1 0.0248816 0.0184429 0.00705149 0.00596218 -0.000629768 -6.60451e-05 -1.48772e-11 -9.24055e-11 1.53474e-11 5e-05 1.46608e-10 
90 1 0.0248914 0.0172827 0.00723722 0.00584244 -0.000719935 0.000129267 -6.6504e-12 9.96828e-11 8.68862e-11 5e-05 1.46608e-10 
91 1 0.018925 0.0186246 0.00689686 0.00533471 -0.00197809 0.000508113 4.03118e-10 -5.63558e-11 2.28308e-10 5e-05 1.46608e-10 
92 1 0.0249873 0.0181193 0.00710762 0.00594057 -0.000615995 0.000127473 3.43106e-11 -9.76449e-11 1.18532e-11 5e-05 1.46608e-10 
93 1 0.0249783 0.0184733 0.00704284 0.00596634 -0.000629623 -6.73966e-05 -1.60216e-11 -6.63813e-11 2.05949e-11 5e-05 1.46608e-10 
94 1 0.025055 0.0184099 0.00705227 0.00595931 -0.000632716 -6.63642e-05 -4.84566e-13 -3.10011e-11 7.07173e-12 5e-05 1.46608e-10 
95 1 0.0248382 0.0182509 0.00708642 0.0059501 -0.000608219 0.000126219 -2.94328e-11 -1.48203e-10 2.80313e-11 5e-05 1.46608e-10 
96 1 0.025009 0.0182153 0.00708991 0.00593595 -0.000642901 -6.65809e-05 -5.72446e-11 -7.39878e-11 1.33125e-11 5e-05 1.46608e-10 
97 1 0.0187971 0.0180455 0.00698714 0.00578365 -0.00220778 0.000561948 5.90004e-10 7.65264e-10 -1.64742e-10 5e-05 1.46608e-10 
98 1 0.0249467 0.0187305 0.00699597 0.0059849 -0.000629228 -6.76944e-05 -1.52341e-11 -4.13134e-11 8.42273e-12 5e-05 1.46608e-10 
99 1 0.0189588 0.0183662 0.00694031 0.00577682 -0.00228363 0.000574844 -4.47488e-11 2.60775e-10 9.43404e-12 5e-05 1.46608e-10 
100 1 0.0248961 0.017184 0.00725259 0.00555811 -0.000712273 0.000134665 -3.96068e-11 -1.80551e-10 -5.57224e-11 5e-05 1.46608e-10 
101 1 0.0188936 0.0180769 0.00698537 0.00575968 -0.00220351 0.000561615 1.40547e-09 -5.51259e-12 -3.14401e-11 5e-05 1.46608e-10 
102 1 0.0643568 0.0187248 0.00531097 3.95162e-15 1.05963e-14 8.29638e-14 1.21633e-21 2.077e-22 -8.45792e-23 5e-05 1.46608e-10 
103 1 0.24257 0.0191927 0.00520306 3.61636e-22 4.86658e-23 1.23839e-22 0 0 0 5e-05 1.46608e-10 
104 1 0.0192125 0.0191761 0.00683946 0.005019 -0.00201095 -0.000557707 -5.47601e-10 9.35114e-11 -1.91416e-12 5e-05 1.46608e-10 
105 1 0.0187536 0.0178527 0.00701812 0.00573481 -0.00266167 -0.00167985 0 0 -1.43822e-09 5e-05 1.46608e-10 
106 1 0.0192871 0.0191097 0.00683313 0.00513651 -0.00183744 -0.00344295 -4.37561e-10 1.50623e-10 -1.17424e-09 5e-05 1.46608e-10 
107 1 0.0187114 0.0176724 0.00709314 0.00572265 -0.00206388 0.000801859 8.93991e-11 2.81051e-10 -1.2945e-10 5e-05 1.46608e-10 
108 1 0.0246623 0.0170343 0.00730779 0.00551891 -0.000303905 0.000134941 4.5428e-11 -2.01306e-10 6.64755e-10 5e-05 1.46608e-10 
109 1 0.0247512 0.0178649 0.00714601 0.00592833 -0.000669467 0.000133889 -4.64525e-12 -7.19369e-11 9.14394e-12 5e-05 1.46608e-10 
110 1 0.025061 0.0180526 0.00711837 0.00593622 -0.000604553 0.000123733 4.96769e-11 -6.34424e-11 -2.49189e-12 5e-05 1.46608e-10 
111 1 0.0249894 0.0189223 0.00695896 0.00554902 -0.000532201 -7.09239e-05 -8.3697e-12 5.97415e-11 -1.08848e-11 5e-05 1.46608e-10 
112 1 0.0188188 0.0181419 0.00697212 0.00574886 -0.00225018 0.000567964 3.79336e-10 1.01957e-10 -1.12628e-11 5e-05 1.46608e-10 
113 1 0.0194655 0.0189854 0.00685668 0.0053139 -0.00237645 0.000574457 -2.24301e-10 -2.16293e-10 -5.52177e-11 5e-05 1.46608e-10 
114 1 0.0191533 0.0188823 0.00686267 0.00539781 -0.00222012 0.000555304 -3.80746e-10 3.23426e-11 -3.29987e-10 5e-05 1.46608e-10 
115 1 0.0248047 0.0177032 0.00717141 0.00587791 -0.000616165 0.0001252 -9.58863e-11 -1.08616e-11 -1.37043e-12 5e-05 1.46608e-10 
116 1 0.0246427 0.016958 0.00736932 0.00557793 -0.000441474 -6.60605e-05 -6.67467e-10 -1.46186e-10 -1.09133e-10 5e-05 1.46608e-10 
117 1 0.0245077 0.016394 0.00776137 0.00543937 -0.00033179 0.000200207 -3.63576e-10 3.87087e-10 -3.08438e-10 5e-05 1.46608e-10 
118 1 0.0186504 0.0174154 0.00723383 0.0068067 -0.00249047 -0.000324864 2.80468e-12 -4.46905e-11 -1.39073e-09 5e-05 1.46608e-10 
119 1 0.0247965 0.0172513 0.00724182 0.0057882 -0.000555564 0.000122293 -1.94491e-11 4.8143e-10 1.98339e-10 5e-05 1.46608e-10 
120 1 0.0243733 0.0162091 0.00789519 0.0054698 -0.000412964 0.000438196 5.38893e-10 1.70349e-10 1.8954e-10 5e-05 1.46608e-10 
121 1 0.0243338 0.0160523 0.00801284 0.00546247 -0.000376172 0.000394818 -1.19181e-10 -5.24242e-10 3.77413e-10 5e-05 1.46608e-10 
122 1 0.0250827 0.0181484 0.00710007 0.00593658 -0.000641047 -6.44678e-05 -3.50648e-11 -5.87489e-11 2.35035e-11 5e-05 1.46608e-10 
123 1 0.0188273 0.0177923 0.00705066 0.00564493 -0.00215421 0.000687901 -4.13267e-10 4.69898e-10 1.10006e-09 5e-05 1.46608e-10 
124 1 0.0249349 0.0182817 0.00707994 0.00594237 -0.000636467 -6.22615e-05 -5.92883e-11 -1.0467e-10 -2.00526e-10 5e-05 1.46608e-10 
125 1 0.024488 0.016314 0.00781827 0.00556895 -0.000391642 0.000421356 7.12617e-12 -1.32238e-10 3.64836e-10 5e-05 1.46608e-10 
126 1 0.0247078 0.0176719 0.00717579 0.00592969 -0.000640236 0.000129499 2.39042e-11 -1.99976e-11 3.21214e-12 5e-05 1.46608e-10 
127 1 0.0187754 0.017949 0.00700216 0.00581877 -0.00213062 0.000549314 -1.48966e-10 9.67788e-10 5.67138e-11 5e-05 1.46608e-10 
128 1 0.0248164 0.0181544 0.00710132 0.00593693 -0.000647335 0.000130276 4.90504e-11 3.19357e-11 -5.44289e-12 5e-05 1.46608e-10 
129 1 0.0249033 0.0185388 0.00703298 0.0059698 -0.000627436 -6.76392e-05 -2.97959e-11 -9.2272e-11 1.73639e-11 5e-05 1.46608e-10 
130 1 0.0190779 0.0189475 0.00684938 0.00534288 -0.00207597 0.000522864 6.60358e-10 7.24945e-11 7.28294e-10 5e-05 1.46608e-10 
131 1 0.0189371 0.0182697 0.00695533 0.00577692 -0.00228984 0.000574033 -5.23522e-10 6.38008e-10 -1.33309e-10 5e-05 1.46608e-10 
132 1 0.0249131 0.0181856 0.00709695 0.005943 -0.000616666 0.00012855 2.68283e-11 -9.76908e-11 1.26658e-11 5e-05 1.46608e-10 
133 1 0.0246609 0.0166611 0.00757165 0.00529186 -0.000482642 0.000308732 -6.58681e-10 3.08713e-10 -2.08555e-10 5e-05 1.46608e-10 
134 1 0.0248165 0.0173482 0.00722668 0.00595356 -0.00058786 0.000100107 1.58566e-10 2.58881e-10 -4.17507e-10 5e-05 1.46608e-10 
135 1 0.0244682 0.0162355 0.00787713 0.00553413 -0.000396192 0.00041196 -8.98352e-11 8.86697e-11 7.19861e-11 5e-05 1.46608e-10 
136 1 0.0187598 0.0174534 0.00719553 0.00838552 -0.00285212 0.00109737 -1.64525e-09 -1.30852e-09 6.21541e-10 5e-05 1.46608e-10 
137 1 0.0250083 0.0190188 0.00694043 0.00558433 -0.000544305 -7.07901e-05 -1.67913e-11 2.79316e-11 -3.30149e-12 5e-05 1.46608e-10 
138 1 0.0246043 0.0167944 0.00747774 0.00555436 -0.000336372 0.000204834 -4.93856e-10 4.51748e-11 1.40218e-11 5e-05 1.46608e-10 
140 1 0.0251044 0.0182443 0.00708157 0.00594425 -0.000638435 -6.47764e-05 -4.20592e-11 -7.84608e-11 1.55628e-11 5e-05 1.46608e-10 
141 1 0.0188003 0.0176298 0.00711059 0.00538687 -0.00212703 0.000853486 -9.64608e-11 -5.04578e-10 3.02523e-10 5e-05 1.46608e-10 
142 1 0.0191729 0.0189792 0.00684751 0.00481533 -0.00212045 0.000508073 -4.94159e-10 3.58155e-10 -4.58849e-10 5e-05 1.46608e-10 
143 1 0.0187322 0.0177606 0.0070507 0.00577485 -0.00200907 0.00077445 6.29675e-11 2.88761e-10 -1.40829e-10 5e-05 1.46608e-10 
144 1 0.019134 0.0187853 0.00687786 0.0053843 -0.00227803 0.00053643 -3.67372e-10 -7.53661e-11 -1.15772e-10 5e-05 1.46608e-10 
146 1 0.018989 0.018107 0.00698376 0.00578202 -0.00224613 0.000568247 -3.90963e-10 -3.24126e-10 3.00266e-11 5e-05 1.46608e-10 
147 1 0.0187404 0.0173646 0.00723823 0.0159905 -0.0039961 0.00184343 -1.31786e-08 1.53797e-08 2.3458e-08 5e-05 1.46608e-10 
148 1 0.0190436 0.0192094 0.006855 0.00505874 -0.00228296 -0.000619285 4.05289e-10 -6.54846e-10 -1.84888e-11 5e-05 1.46608e-10 
149 1 0.025178 0.0181774 0.00709173 0.00593963 -0.00063908 -6.47255e-05 -6.05173e-11 -8.77128e-11 2.46913e-11 5e-05 1.46608e-10 
150 1 0.019033 0.0183005 0.00695364 0.00574507 -0.00225275 0.00056807 -9.0374e-11 9.95632e-11 -2.79023e-11 5e-05 1.46608e-10 
151 1 0.0193956 0.0188965 0.00686878 0.00514149 -0.00226759 0.00055023 -4.20549e-10 4.6449e-10 -1.85032e-10 5e-05 1.46608e-10 
153 1 0.0188719 0.0179804 0.00700039 0.00584494 -0.00219751 0.000552851 3.91469e-10 -3.38712e-10 1.90641e-10 5e-05 1.46608e-10 
154 1 0.0191381 0.0192419 0.00685119 0.00512831 -0.00203012 -0.000564525 -4.72594e-10 1.07216e-10 -1.72261e-10 5e-05 1.46608e-10 
155 1 0.0196825 0.0192708 0.00681755 7.24829e-15 -5.24154e-14 -7.85911e-14 2.67484e-19 -1.33151e-18 2.27101e-19 5e-05 1.46608e-10 
156 1 0.0191183 0.0191434 0.00684728 0.00512754 -0.00226686 -0.000361913 -3.08386e-10 -3.09797e-10 -8.77275e-10 5e-05 1.46608e-10 
157 1 0.0219312 0.0187687 0.00551176 -3.83339e-14 8.16529e-14 2.95891e-13 -2.43501e-22 1.03087e-22 -5.89366e-23 5e-05 1.46608e-10 
158 1 0.0192325 0.0192745 0.00684739 0.00527085 -0.00227848 -0.000602694 8.25895e-10 -1.48622e-09 -2.60218e-10 5e-05 1.46608e-10 
159 1 0.0249656 0.0180229 0.00712251 0.00594454 -0.000624224 0.000126692 6.06819e-11 -1.09467e-10 1.35015e-11 5e-05 1.46608e-10 
160 1 0.0191219 0.0196003 0.00688805 0.00514963 -0.00244556 -0.00062281 -2.37232e-10 -6.47403e-10 -3.70236e-10 5e-05 1.46608e-10 
162 1 0.0191576 0.0193397 0.00685909 0.00516903 -0.00231836 -0.000602944 1.6111e-10 2.03193e-10 -2.21768e-11 5e-05 1.46608e-10 
163 1 0.0258632 0.0152062 0.0141979 0.00390261 0.00588654 0.00711531 2.26673e-10 -7.67294e-10 -8.77462e-10 5e-05 1.46608e-10 
164 1 0.0201584 0.0190653 0.00686667 4.81875e-14 6.82682e-15 3.69382e-14 3.92127e-19 3.38486e-20 -4.27905e-20 5e-05 1.46608e-10 
165 1 0.0194669 0.0191792 0.00682502 0.00521892 -0.00232326 0.000544811 2.4207e-10 -1.08703e-10 -4.33306e-11 5e-05 1.46608e-10 
166 1 0.0246244 0.0165006 0.0076853 4.75889e-06 0.000115371 -8.18765e-05 -1.69417e-11 1.98859e-10 -1.40344e-10 5e-05 1.46608e-10 
167 1 0.0190107 0.0182034 0.00696874 0.00578185 -0.0023075 0.0005791 -3.25163e-10 3.25471e-10 -5.76639e-11 5e-05 1.46608e-10 
168 1 0.0193069 0.0192088 0.00683567 0.00541085 -0.00215329 -0.0005985 1.13249e-09 -1.40764e-09 -1.64249e-10 5e-05 1.46608e-10 
169 1 0.0194851 0.0190823 0.00684151 0.00516302 -0.00233189 0.000561499 3.75427e-11 -3.60131e-10 -2.8554e-11 5e-05 1.46608e-10 
170 1 0.0193458 0.0193367 0.00684505 0.00532464 -0.0021475 -0.000448747 9.59832e-10 7.90373e-11 -1.1275e-10 5e-05 1.46608e-10 
171 1 0.0246416 0.016581 0.00762837 0.00529321 -0.000456148 0.000291861 -1.10229e-10 6.8594e-10 -4.65327e-10 5e-05 1.46608e-10 
172 1 0.0193861 0.0190963 0.00683576 0.00516693 -0.000971889 0.000346001 -4.66088e-10 2.86689e-10 -5.88481e-11 5e-05 1.46608e-10 
173 1 0.0249552 0.0170886 0.00726774 0.00549946 -1.01304e-05 2.05308e-05 -4.30433e-10 -7.76047e-11 3.50387e-10 5e-05 1.46608e-10 
174 1 0.019444 0.0193544 0.00683955 0.0052499 -0.00178844 -0.000557765 7.08646e-10 -3.33618e-10 -1.39168e-10 5e-05 1.46608e-10 
175 1 0.0177008 0.0238955 0.0116407 -2.2524e-05 -0.000372826 -0.000672085 1.41459e-12 2.39798e-11 4.32255e-11 5e-05 1.46608e-10 
176 1 0.019098 0.0190454 0.00684592 0.0050784 -0.00193287 -0.00523862 -3.20444e-11 2.87953e-11 -1.41118e-09 5e-05 1.46608e-10 
177 1 0.0199087 0.0191734 0.00684132 5.15458e-15 -3.20384e-14 -1.87495e-13 8.40105e-26 -2.58494e-25 0 5e-05 1.46608e-10 
178 1 0.0194954 0.0188914 0.0068731 0.00519575 -0.00226634 0.000552742 -6.85397e-10 5.0202e-10 -1.28411e-10 5e-05 1.46608e-10 
179 1 0.019585 0.0190859 0.00684439 0.00513379 -0.00143019 0.000414987 4.57099e-10 -5.57011e-10 1.3021e-10 5e-05 1.46608e-10 
181 1 0.0190827 0.0194049 0.00687079 0.00516743 -0.00229478 -0.00060313 4.31498e-10 2.31797e-09 2.16706e-10 5e-05 1.46608e-10 
182 1 0.0245849 0.0167144 0.00753445 0.00546902 -0.000323324 0.000194946 -5.96465e-11 2.81218e-10 -2.27104e-10 5e-05 1.46608e-10 
183 1 0.0194017 0.0192543 0.0068355 0.00534485 -0.00218743 0.000195458 7.57978e-10 -6.63843e-12 2.43901e-10 5e-05 1.46608e-10 
184 1 0.0249195 0.0180139 0.0072108 0.0059423 -0.000632319 0.000127694 1.03314e-10 -1.87277e-10 9.22376e-12 5e-05 1.46608e-10 
185 1 0.0190232 0.0191118 0.00684718 0.0049205 -0.00226071 -0.000604552 -2.65871e-11 -2.24543e-09 -1.333e-09 5e-05 1.46608e-10 
186 1 0.0190631 0.0193072 0.00686289 0.00511707 -0.00219978 -0.000584797 -1.0322e-09 -1.60606e-09 1.48225e-10 5e-05 1.46608e-10 
187 1 0.0248554 0.0170937 0.00726643 0.00549415 -0.000647412 0.000132291 -2.31857e-12 3.28732e-10 -1.33182e-10 5e-05 1.46608e-10 
188 1 0.025126 0.0183403 0.00706303 0.00595373 -0.000635857 -6.55174e-05 9.39936e-12 -6.33704e-12 -2.07555e-13 5e-05 1.46608e-10 
189 1 0.0247805 0.017065 0.00738528 0.00545244 -0.000306256 0.000301361 -5.27403e-10 3.40018e-10 -6.35088e-10 5e-05 1.46608e-10 
190 1 0.0178051 0.0238493 0.0115573 -2.10999e-05 -0.000349318 -0.000629722 1.66021e-12 2.40689e-11 4.34638e-11 5e-05 1.46608e-10 
191 1 0.0250272 0.0191152 0.0069219 0.00563391 -0.000555038 -7.07257e-05 -1.35957e-11 -2.01697e-11 2.18098e-12 5e-05 1.46608e-10 
192 1 0.019248 0.0189141 0.00686076 0.00543502 -0.00216695 0.000531749 -2.77953e-10 2.60494e-10 -1.54584e-10 5e-05 1.46608e-10 
193 1 0.0247186 0.0169014 0.0074015 0.00532681 -0.000494783 0.000297655 6.49057e-11 1.19529e-10 -3.9069e-10 5e-05 1.46608e-10 
194 1 0.0190753 0.0184947 0.00692336 0.00540558 -0.00229426 0.000566842 -5.97049e-10 3.4244e-10 -4.38124e-11 5e-05 1.46608e-10 
195 1 0.0195654 0.018989 0.00685956 0.00526173 -0.00134597 0.000405941 1.30428e-10 -4.07243e-10 5.3569e-11 5e-05 1.46608e-10 
196 1 0.0185504 0.0169679 0.00743356 0.00441668 -0.00531253 0.00244345 1.55593e-10 6.94957e-10 -3.59754e-10 5e-05 1.46608e-10 
197 1 0.018301 0.0238586 0.0115736 -0.00151799 0.00051619 -0.00188385 -1.88293e-07 -7.21959e-10 -1.47739e-08 5e-05 1.46608e-10 
198 1 0.0189443 0.0187216 0.00688168 0.00523295 -0.00249653 0.000591828 -4.45494e-11 3.02907e-11 -3.45424e-11 5e-05 1.46608e-10 
199 1 0.0191803 0.0194413 0.00686712 0.00518928 -0.00234368 -0.000625791 3.33073e-10 -3.46718e-11 2.04057e-10 5e-05 1.46608e-10 
200 1 0.0190393 0.0187534 0.00687978 0.00533348 -0.00226111 0.000541358 1.00201e-10 -3.32668e-10 -5.2835e-11 5e-05 1.46608e-10 
201 1 0.0207251 0.0190511 0.00688467 5.15479e-15 -3.20384e-14 -1.87495e-13 -1.59232e-23 -1.08567e-24 -2.06795e-25 5e-05 1.46608e-10 
202 1 0.0192681 0.0190109 0.00684563 0.00529113 -0.00206901 0.000518367 -6.29976e-10 3.9675e-10 -2.25033e-10 5e-05 1.46608e-10 
203 1 0.0249808 0.0172386 0.00724454 0.00580047 -0.000882515 0.000164389 -6.60937e-11 7.85247e-11 -2.47119e-10 5e-05 1.46608e-10 
204 1 0.0190198 0.0186565 0.00689495 0.005282 -0.00225297 0.000559409 6.04835e-11 5.37963e-10 -6.12556e-11 5e-05 1.46608e-10 
205 1 0.0199634 0.0190857 0.0068576 -7.45699e-15 3.50334e-14 2.14188e-13 1.12445e-24 7.75482e-25 0 5e-05 1.46608e-10 
206 1 0.019501 0.0192732 0.00682762 0.00478826 -0.00214301 -0.000544716 9.84113e-10 1.48267e-10 -2.3374e-10 5e-05 1.46608e-10 
207 1 0.0188499 0.017885 0.00702052 0.00583059 -0.0021978 0.000589734 -1.16951e-09 -7.00573e-11 8.25283e-10 5e-05 1.46608e-10 
208 1 0.0192537 0.0193744 0.00685537 0.00530892 -0.00220559 -0.000581939 5.78359e-10 -3.41169e-10 -2.15723e-10 5e-05 1.46608e-10 
209 1 0.0190548 0.0183971 0.0069386 0.0053153 -0.00191585 0.000497774 1.9455e-09 -1.38894e-09 2.72472e-10 5e-05 1.46608e-10 
210 1 0.024637 0.0173504 0.00731543 0.00555983 -0.000692051 -2.57998e-05 1.82068e-10 1.30016e-10 -6.96919e-10 5e-05 1.46608e-10 
211 1 0.0250307 0.0183112 0.0070714 0.00594943 -0.000637586 -6.44195e-05 -2.29338e-11 -6.96968e-11 6.58462e-12 5e-05 1.46608e-10 
212 1 0.0196288 0.0191749 0.00683136 0.000427 0.000831644 -0.000121263 -3.67414e-10 -4.15258e-10 5.14469e-11 5e-05 1.46608e-10 
213 1 0.0248377 0.0170126 0.00732214 0.00541514 -0.000229155 0.000142826 5.98429e-10 -1.02018e-09 5.91417e-11 5e-05 1.46608e-10 
214 1 0.0249566 0.0183775 0.00706146 0.00595765 -0.00063186 -6.29875e-05 -1.78356e-11 -8.00525e-11 -1.20463e-11 5e-05 1.46608e-10 
215 1 0.0175991 0.0238448 0.0115493 -1.38313e-05 -0.000546607 -0.00106022 -4.1006e-11 1.42922e-09 -1.18154e-09 5e-05 1.46608e-10 
216 1 0.0197908 0.0193271 0.0068203 -5.38516e-16 8.88358e-15 -2.2475e-14 8.29572e-23 -1.35461e-21 -5.3105e-22 5e-05 1.46608e-10 
217 1 0.0246803 0.0167412 0.00751494 0.00533612 -0.000496396 0.000322851 -2.82028e-10 3.63171e-10 -2.12998e-10 5e-05 1.46608e-10 
218 1 0.0201534 0.0191637 0.00684971 -2.88046e-15 -3.35669e-15 3.96373e-14 5.36915e-20 6.10285e-20 7.14684e-21 5e-05 1.46608e-10 
219 1 0.0249684 0.0188263 0.00697747 0.00599047 -0.000631068 -6.76048e-05 3.6599e-11 2.76443e-11 -5.64063e-12 5e-05 1.46608e-10 
220 1 0.0191022 0.0195027 0.00687869 0.00514182 -0.00242941 -0.000607991 4.32142e-10 4.68089e-10 4.98013e-11 5e-05 1.46608e-10 
221 1 0.0171485 0.0232889 0.0106286 -0.0136604 -0.05043 -0.0807326 1.62043e-10 -4.26554e-10 -7.6671e-10 5e-05 1.46608e-10 
222 1 0.0246996 0.0168212 0.00745822 0.00534237 -0.000492748 0.000331959 -5.54542e-10 2.26242e-10 -3.64631e-10 5e-05 1.46608e-10 
223 1 0.0191931 0.0190771 0.00684512 0.0052382 -0.00215072 0.000213732 -9.09432e-11 2.31778e-10 -5.56675e-10 5e-05 1.46608e-10 
224 1 0.0190032 0.0190139 0.0068504 0.00533131 -0.00209729 -0.000844731 -9.32761e-10 6.91341e-10 -6.768e-10 5e-05 1.46608e-10 
225 1 0.0250066 0.0174104 0.00721795 0.00586939 -0.000668473 0.000135029 -2.07142e-10 -7.61859e-11 4.6887e-11 5e-05 1.46608e-10 
226 1 0.0193658 0.0189905 0.00685236 0.00529212 -0.00222658 0.000539515 -6.54888e-10 -4.81841e-10 3.35951e-11 5e-05 1.46608e-10 
227 1 0.0165328 0.0143084 0.0124891 0.0107535 -0.00254942 -0.00960575 1.08265e-10 4.89856e-10 -9.87081e-10 5e-05 1.46608e-10 
228 1 0.0174957 0.0238426 0.0115453 -2.52069e-05 -0.000418792 -0.00075496 7.86834e-13 2.38419e-11 4.29693e-11 5e-05 1.46608e-10 
229 1 0.0186494 0.0174257 0.0073334 0.00619818 -0.00220452 -0.00084341 0 0 -1.43822e-09 5e-05 1.46608e-10 
230 1 0.020445 0.0190853 0.00687113 4.24153e-15 -2.63637e-14 -1.54285e-13 -5.37021e-24 -3.61892e-25 -2.06795e-25 5e-05 1.46608e-10 
231 1 0.0179065 0.0238514 0.0115612 -1.98509e-05 -0.000326549 -0.000588663 1.78346e-12 2.41398e-11 4.35142e-11 5e-05 1.46608e-10 
232 1 0.0188605 0.0177012 0.00707488 0.00553668 -0.00216591 0.000847895 -2.82336e-10 3.70103e-11 -1.29941e-10 5e-05 1.46608e-10 
233 1 0.0190956 0.0185925 0.00690805 0.00526866 -0.00223497 0.000550023 -5.54263e-10 1.53036e-10 -8.62236e-11 5e-05 1.46608e-10 
234 1 0.0262001 0.0178525 0.00712063 0.0199817 0.0397955 -0.00802192 -2.69173e-10 -3.63091e-10 7.58741e-11 5e-05 1.46608e-10 
235 1 0.0213722 0.0193314 0.00685456 4.24169e-15 -2.63636e-14 -1.54285e-13 2.84343e-25 1.55096e-25 0 5e-05 1.46608e-10 
236 1 0.0211551 0.0192354 0.00686501 4.24021e-15 -2.63639e-14 -1.54285e-13 1.19424e-23 2.58494e-24 0 5e-05 1.46608e-10 
237 1 0.0210363 0.0191655 0.00687368 -3.9755e-15 2.47093e-14 1.44604e-13 -6.13923e-25 5.16988e-26 -2.06795e-25 5e-05 1.46608e-10 
239 1 0.0146279 0.0204907 0.00722436 3.60536e-15 -1.19882e-14 6.44398e-14 -1.1503e-24 -1.55096e-25 0 5e-05 1.46608e-10 
240 1 0.0151549 0.0203413 0.00717598 -7.5807e-16 2.58188e-14 -2.11472e-13 5.6384e-25 -5.16988e-26 2.06795e-25 5e-05 1.46608e-10 
241 1 0.0147575 0.0202894 0.00717966 3.60547e-15 -1.19877e-14 6.44399e-14 1.04432e-23 3.20532e-24 0 5e-05 1.46608e-10 
242 1 0.0177005 0.023847 0.0115532 -2.25271e-05 -0.000372822 -0.00067209 1.42517e-12 2.39842e-11 4.32257e-11 5e-05 1.46608e-10 
243 1 0.0190003 0.0185599 0.00691166 0.00541249 -0.00227213 0.000512892 2.9451e-11 8.01039e-10 -4.08713e-10 5e-05 1.46608e-10 
244 1 0.0148855 0.0211025 0.00745214 0.00254234 -0.0530095 0.0413682 0 0 -1.43822e-09 5e-05 1.46608e-10 
245 1 0.0189154 0.0238614 0.0115786 -0.002023 0.000857438 -0.00134849 3.17021e-07 6.55036e-08 2.89815e-07 5e-05 1.46608e-10 