ITEM: TIMESTEP
7400000
ITEM: NUMBER OF ATOMS
287
ITEM: BOX BOUNDS ff ff ff
-0.02 0.43
-0.02 0.06
-0.02 0.07
ITEM: ATOMS id type x y z vx vy vz fx fy fz radius mass 
1 1 0.0559755 0.016515 0.00807128 0.00573112 0.000225655 0.000639591 8.32489e-11 -4.94937e-10 1.90237e-10 5e-05 1.46608e-10 
2 1 0.0563622 0.0171833 0.00728596 0.0056401 0.000378758 0.000741584 6.31442e-10 -2.02623e-10 1.7424e-10 5e-05 1.46608e-10 
3 1 0.0498215 0.0162045 0.00818945 0.00591 -0.000211467 -0.000716238 -8.84299e-10 -2.88123e-10 5.53438e-10 5e-05 1.46608e-10 
4 1 0.056282 0.0176739 0.00720778 0.0058836 -0.000169629 0.000549373 1.29453e-11 -4.15977e-10 -6.39066e-11 5e-05 1.46608e-10 
5 1 0.055859 0.0164302 0.00816684 0.00566312 0.000412736 0.000661987 1.14965e-11 9.81081e-12 -7.04026e-13 5e-05 1.46608e-10 
6 1 0.061978 0.016704 0.00765368 0.00561673 0.000446418 -0.000185822 -1.52161e-11 -4.19273e-11 1.30987e-11 5e-05 1.46608e-10 
7 1 0.0560393 0.0169681 0.00747982 0.00545563 0.000107001 0.000447124 -2.78904e-10 2.87553e-10 2.80842e-11 5e-05 1.46608e-10 
8 1 0.0557507 0.0161226 0.00854505 0.0055794 -0.000493437 -6.72706e-05 6.20215e-11 -3.16641e-10 5.09592e-10 5e-05 1.46608e-10 
9 1 0.0622233 0.0178091 0.00714448 0.0058408 0.000401132 -0.0001964 -1.06218e-12 -3.09392e-11 -3.99968e-12 5e-05 1.46608e-10 
10 1 0.0559871 0.016777 0.00770204 0.00568574 0.000358777 0.000710168 2.45017e-10 2.66722e-10 -1.6533e-10 5e-05 1.46608e-10 
11 1 0.0564242 0.0174613 0.00721482 0.00599623 0.000258017 0.000568875 2.28003e-10 2.38003e-10 1.58566e-10 5e-05 1.46608e-10 
12 1 0.050018 0.0168541 0.00746908 0.00560888 -7.68605e-05 -0.000819044 -2.36745e-10 5.76742e-10 -1.06726e-09 5e-05 1.46608e-10 
13 1 0.0558374 0.0163718 0.00824509 0.00562973 0.000388057 0.000675192 3.53498e-10 1.79984e-10 -9.28576e-11 5e-05 1.46608e-10 
14 1 0.0497346 0.0159439 0.00847942 0.00596576 -0.000237725 -0.000709624 1.06127e-10 1.22594e-10 -1.4431e-10 5e-05 1.46608e-10 
15 1 0.0561679 0.0171146 0.00730619 0.00551314 -2.93396e-05 6.78116e-05 -4.95139e-11 -2.46419e-10 -2.70688e-10 5e-05 1.46608e-10 
16 1 0.0497129 0.0158787 0.00855204 0.00595917 -0.00025807 -0.000687533 5.99316e-11 2.42142e-10 -3.06587e-10 5e-05 1.46608e-10 
17 1 0.0559679 0.0167424 0.00779388 0.00570232 0.00035843 0.000727866 4.1088e-12 1.59147e-10 -1.79933e-10 5e-05 1.46608e-10 
18 1 0.0621112 0.0172581 0.00724719 0.00569115 0.000420603 -0.000164343 6.38568e-12 -1.79598e-11 1.26176e-11 5e-05 1.46608e-10 
19 1 0.0558158 0.0163161 0.00832534 0.0055947 -7.83659e-05 0.000356035 2.63359e-10 -3.14883e-10 -4.37335e-11 5e-05 1.46608e-10 
21 1 0.055953 0.0164609 0.00815235 0.00576128 0.00013632 0.000587937 1.07114e-10 -7.49003e-10 -4.1195e-11 5e-05 1.46608e-10 
22 1 0.0560737 0.0171013 0.00734261 0.00557522 0.000417355 0.000539411 4.6161e-11 8.36847e-11 -4.89425e-10 5e-05 1.46608e-10 
23 1 0.0501742 0.0172184 0.0072841 0.00564558 0.000486751 0.000261657 -3.71369e-10 -3.31513e-11 1.38936e-12 5e-05 1.46608e-10 
24 1 0.0621668 0.0175147 0.00713271 0.00574396 0.000420675 -0.000180365 -8.65406e-12 -2.07498e-11 3.38031e-12 5e-05 1.46608e-10 
25 1 0.0560232 0.0169117 0.00756082 0.00538209 5.62686e-05 0.000384269 6.53091e-11 1.26574e-09 1.81494e-10 5e-05 1.46608e-10 
26 1 0.0620541 0.0170206 0.00742139 0.00559557 0.00044604 -0.000183323 -6.75475e-11 7.00773e-11 -8.50186e-11 5e-05 1.46608e-10 
27 1 0.0500943 0.0172159 0.00734486 0.00563169 0.000534893 0.000223829 -1.23693e-10 -3.58837e-11 -1.30928e-11 5e-05 1.46608e-10 
28 1 0.0562618 0.0175761 0.00720309 0.00581034 -0.000185816 0.000532555 -1.73948e-10 -4.40284e-10 -2.81032e-11 5e-05 1.46608e-10 
29 1 0.0557941 0.0162493 0.00839651 0.00559081 -0.000504114 -7.2238e-05 -2.27478e-10 -2.05077e-10 6.14216e-10 5e-05 1.46608e-10 
30 1 0.0562989 0.017314 0.00719899 0.00536808 -0.000435046 0.000492597 -8.15288e-10 -4.29421e-10 9.27103e-11 5e-05 1.46608e-10 
31 1 0.0560534 0.017009 0.00738702 0.00556287 0.00041704 0.000597454 -2.48078e-10 -2.97521e-10 2.47094e-10 5e-05 1.46608e-10 
32 1 0.056147 0.0170376 0.00736639 0.00551716 0.000400907 0.000618882 3.98201e-10 2.07444e-10 -1.72585e-10 5e-05 1.46608e-10 
33 1 0.0619973 0.0167831 0.00759564 0.00564489 0.000438003 -0.00017753 -4.16243e-11 4.76828e-11 3.6441e-12 5e-05 1.46608e-10 
34 1 0.0559458 0.0166646 0.00785268 0.00568151 0.000357453 0.000710819 2.01399e-11 6.89059e-11 -1.5799e-10 5e-05 1.46608e-10 
35 1 0.0561329 0.0169793 0.00744641 0.00549205 0.000372535 0.000617887 1.55054e-10 -1.21143e-10 -1.4229e-10 5e-05 1.46608e-10 
36 1 0.0622655 0.0180044 0.00715311 0.00601976 0.000366663 -0.000204755 6.31787e-13 1.25016e-12 6.23208e-12 5e-05 1.46608e-10 
37 1 0.0561014 0.0168622 0.00760548 0.00574149 0.000369223 0.00071942 7.53745e-10 -1.27842e-10 -1.72941e-10 5e-05 1.46608e-10 
38 1 0.0562471 0.0170676 0.0073451 0.0055182 0.000392877 0.000620887 -9.48088e-11 -2.48503e-10 -2.74829e-10 5e-05 1.46608e-10 
39 1 0.0621849 0.017613 0.00713566 0.00570134 0.000429386 -0.00019013 2.83616e-12 -2.63597e-11 1.03777e-11 5e-05 1.46608e-10 
41 1 0.0559022 0.016547 0.00801033 0.00567205 0.000365985 0.00071056 1.43806e-10 2.03718e-10 4.36317e-11 5e-05 1.46608e-10 
42 1 0.0560909 0.0171652 0.00726736 0.00558286 -0.000685284 -0.000965842 -3.57924e-10 -7.17717e-10 7.76368e-10 5e-05 1.46608e-10 
44 1 0.0562621 0.0171285 0.00726362 0.00554787 -0.000507955 -7.53249e-05 -5.14424e-10 4.99241e-10 -3.74575e-10 5e-05 1.46608e-10 
45 1 0.0620165 0.0168622 0.0075376 0.00567931 0.000431187 -0.00017329 5.90035e-12 4.95037e-11 -5.77682e-11 5e-05 1.46608e-10 
46 1 0.0620915 0.017179 0.00730517 0.00564854 0.000426891 -0.000170381 -1.00378e-10 1.48658e-12 -2.85939e-11 5e-05 1.46608e-10 
47 1 0.055924 0.0166059 0.00793141 0.00567045 0.000367181 0.000690719 -4.79501e-11 -1.55684e-10 1.00687e-10 5e-05 1.46608e-10 
48 1 0.0561296 0.0173468 0.00719833 0.00557952 -0.000153804 0.000238511 6.18236e-10 -6.77395e-10 2.13717e-09 5e-05 1.46608e-10 
49 1 0.0620731 0.0170998 0.00736332 0.00561584 0.000435659 -0.000176367 1.73174e-10 7.95489e-11 -3.66151e-11 5e-05 1.46608e-10 
50 1 0.0561852 0.0176414 0.00719789 0.00547574 -9.06425e-05 0.000504372 3.13305e-11 -2.68829e-10 2.83074e-10 5e-05 1.46608e-10 
51 1 0.056167 0.0175431 0.00719338 0.00551388 -0.000112736 0.000528153 3.26374e-10 -7.94552e-10 -3.29286e-10 5e-05 1.46608e-10 
52 1 0.0499969 0.0167745 0.00755684 0.0054404 -0.000259226 -0.000621931 -2.45565e-10 -2.09089e-10 2.15276e-10 5e-05 1.46608e-10 
53 1 0.0621299 0.0173373 0.00718908 0.00576022 0.000412204 -0.000156449 -2.81227e-11 -1.71591e-11 1.34727e-11 5e-05 1.46608e-10 
54 1 0.0559328 0.0163938 0.00822363 0.00570362 1.15497e-05 0.000443927 -2.12274e-10 -4.57943e-10 2.07402e-10 5e-05 1.46608e-10 
55 1 0.049782 0.0160782 0.00833921 0.0059549 -0.000208654 -0.000739991 2.76463e-10 -8.52836e-10 9.13041e-10 5e-05 1.46608e-10 
56 1 0.0561171 0.0169207 0.00752591 0.00564423 0.00036489 0.000662954 3.05489e-10 -4.5636e-10 -3.81362e-10 5e-05 1.46608e-10 
57 1 0.0620353 0.0169414 0.0074795 0.00560108 0.000441073 -0.00018168 -6.26042e-11 4.46465e-11 -7.83728e-11 5e-05 1.46608e-10 
59 1 0.0561792 0.0168342 0.00766186 0.00562287 0.00033986 0.000736235 6.23949e-10 -2.28895e-10 -5.49909e-10 5e-05 1.46608e-10 
60 1 0.0561963 0.0168927 0.00758257 0.00537663 0.000362898 0.000667027 5.71611e-10 -3.57951e-11 -3.69377e-10 5e-05 1.46608e-10 
61 1 0.0558806 0.0164885 0.0080886 0.00567367 0.000423016 0.000627325 -1.80718e-10 -8.84233e-11 -2.56343e-10 5e-05 1.46608e-10 
62 1 0.0562801 0.017219 0.00722461 0.00555203 -0.000646764 -4.18e-05 3.38048e-10 7.23828e-11 1.26059e-09 5e-05 1.46608e-10 
63 1 0.0562239 0.0173799 0.00719395 0.00562009 -0.000174392 0.000494188 -1.67871e-09 -5.17604e-10 -6.83381e-10 5e-05 1.46608e-10 
64 1 0.0621477 0.0174166 0.00713085 0.00579195 0.000409883 -0.00015306 -1.15317e-11 -2.16568e-11 1.27669e-11 5e-05 1.46608e-10 
65 1 0.050106 0.0169654 0.0075423 0.00671926 0.000304796 0.000386036 6.48229e-11 -3.17641e-10 -1.55314e-10 5e-05 1.46608e-10 
66 1 0.0500604 0.0167371 0.00772753 0.00542728 -0.00015111 -0.000548614 -4.97849e-11 9.19385e-11 -9.30964e-12 5e-05 1.46608e-10 
67 1 0.0564051 0.0173632 0.00721022 0.00595782 0.000250646 0.000557669 -3.57675e-10 2.76811e-11 -1.58096e-10 5e-05 1.46608e-10 
68 1 0.0563378 0.0175113 0.00720826 0.00575471 -0.000162809 0.000526857 5.48798e-10 -2.70866e-10 1.04036e-10 5e-05 1.46608e-10 
69 1 0.0560415 0.0166901 0.00783687 0.00569357 0.000340962 0.000750617 1.5106e-10 1.64881e-10 -2.36609e-11 5e-05 1.46608e-10 
70 1 0.062203 0.0177113 0.00714012 0.00567046 0.000435392 -0.000188356 -7.15432e-12 -3.14651e-11 4.09286e-13 5e-05 1.46608e-10 
71 1 0.0497563 0.0160091 0.0084068 0.00597428 -0.000218998 -0.000732215 1.5428e-10 -3.01937e-10 1.71089e-10 5e-05 1.46608e-10 
72 1 0.0563187 0.0174132 0.00720368 0.00574485 -0.000156779 0.000528944 -1.89535e-11 -2.31848e-10 2.95759e-11 5e-05 1.46608e-10 
73 1 0.0560046 0.0168354 0.00762281 0.00539024 0.000344441 0.000577957 -7.90949e-10 -1.25207e-09 -2.52133e-10 5e-05 1.46608e-10 
74 1 0.0561858 0.0171895 0.00724206 0.00556627 -0.000143429 -0.000229466 -3.33424e-10 -3.96522e-10 2.01294e-10 5e-05 1.46608e-10 
76 1 0.0503304 0.0178731 0.0070511 0.00629762 0.000540959 2.81706e-06 -2.5834e-10 3.5888e-10 -8.3205e-10 5e-05 1.46608e-10 
77 1 0.056412 0.0182592 0.00721453 0.00582124 -0.000199567 -0.000141429 -4.52759e-11 2.29869e-10 -9.49808e-11 5e-05 1.46608e-10 
78 1 0.0498431 0.0162696 0.00811672 0.00597002 -0.000225099 -0.000710272 1.05528e-10 1.20387e-10 4.29456e-11 5e-05 1.46608e-10 
79 1 0.0500356 0.0169203 0.00739616 0.00579472 -2.53906e-05 -0.000832847 -6.98359e-10 -8.37097e-10 6.28889e-10 5e-05 1.46608e-10 
80 1 0.0562498 0.0179345 0.00721229 0.00584772 -0.00011844 0.000540615 -4.82107e-11 3.06416e-10 1.48638e-11 5e-05 1.46608e-10 
81 1 0.0499858 0.0167535 0.00765398 0.00558138 -8.00822e-05 -0.000664679 -2.24196e-10 -1.01016e-10 -2.45557e-10 5e-05 1.46608e-10 
82 1 0.0501138 0.017298 0.00728684 0.00565872 0.000494068 0.000253749 -3.35423e-11 1.72919e-10 -4.6877e-11 5e-05 1.46608e-10 
83 1 0.0501286 0.0165815 0.00774013 0.00559048 0.00023178 -0.0011477 -3.34526e-10 1.84599e-10 -1.60888e-10 5e-05 1.46608e-10 
84 1 0.0622438 0.0179069 0.00714882 0.00602572 0.000363106 -0.000204975 3.67443e-13 -2.00373e-11 2.14358e-13 5e-05 1.46608e-10 
85 1 0.0499477 0.0162893 0.00807897 0.00589775 -0.000332508 -0.000598198 2.67911e-10 -7.14467e-11 2.64012e-11 5e-05 1.46608e-10 
86 1 0.0562428 0.017478 0.00719852 0.00574951 -0.000188883 0.000527393 7.65093e-11 -2.64613e-10 -6.64008e-12 5e-05 1.46608e-10 
87 1 0.0561595 0.0167757 0.00774056 0.00570723 0.000322724 0.000771787 5.00811e-10 8.57285e-11 1.27118e-11 5e-05 1.46608e-10 
88 1 0.0563148 0.0182273 0.00721711 0.00582173 -0.000150424 -0.0001383 3.44041e-11 4.04196e-10 -5.40045e-11 5e-05 1.46608e-10 
89 1 0.0562714 0.0180321 0.00721709 0.00583381 -0.000125895 0.000519113 -1.87213e-10 4.26868e-10 -1.38463e-10 5e-05 1.46608e-10 
90 1 0.0563417 0.0170945 0.00732715 0.00554755 0.000365272 0.000699144 -2.18887e-10 -7.65215e-11 7.23236e-11 5e-05 1.46608e-10 
91 1 0.0500551 0.0170102 0.007357 0.00564437 0.000408025 0.000240926 -3.57827e-10 8.57041e-10 -6.95959e-10 5e-05 1.46608e-10 
92 1 0.0563798 0.0177071 0.00721777 0.00586505 -0.000146708 0.00054696 7.83411e-12 -7.03353e-11 -7.11287e-11 5e-05 1.46608e-10 
93 1 0.0563686 0.0180641 0.00722068 0.00581377 -0.00014227 7.58784e-05 7.39963e-11 3.67618e-10 -1.59486e-10 5e-05 1.46608e-10 
94 1 0.0564482 0.0180038 0.00721616 0.00587613 -1.00959e-05 -0.000131348 1.48523e-11 5.95948e-11 -3.67348e-11 5e-05 1.46608e-10 
95 1 0.0562281 0.017837 0.00720748 0.00585149 -0.000129777 0.000540495 3.93649e-11 1.00362e-10 -5.40476e-12 5e-05 1.46608e-10 
96 1 0.0564017 0.0178047 0.00721919 0.0059271 -0.000137853 -6.30226e-05 5.62924e-11 -1.70218e-10 -7.35235e-11 5e-05 1.46608e-10 
97 1 0.0499487 0.0165938 0.00775613 0.00534926 -8.80032e-05 -0.000766126 3.5058e-10 6.95502e-10 -7.20398e-10 5e-05 1.46608e-10 
98 1 0.0563366 0.0183249 0.00721566 0.00582074 -0.000148418 -0.000132354 1.36936e-11 1.31453e-10 -7.70644e-12 5e-05 1.46608e-10 
99 1 0.0500766 0.016896 0.00760805 0.00584232 -0.000166898 -0.000503757 -9.318e-10 2.26405e-10 -2.0005e-10 5e-05 1.46608e-10 
100 1 0.056309 0.0169776 0.00748606 0.00534345 0.000374108 0.000680496 5.36442e-10 6.67273e-11 -1.70106e-10 5e-05 1.46608e-10 
101 1 0.0500458 0.0166397 0.00774496 0.00508228 -0.000101834 -0.000627391 -7.03932e-10 2.34179e-10 9.69656e-11 5e-05 1.46608e-10 
102 1 0.0643568 0.0187248 0.00531097 4.45806e-15 1.04657e-14 8.29545e-14 2.16898e-21 -2.22822e-23 -1.00502e-22 5e-05 1.46608e-10 
103 1 0.24257 0.0191927 0.00520306 9.7161e-23 4.86658e-23 8.29106e-22 0 0 0 5e-05 1.46608e-10 
104 1 0.0503457 0.0175352 0.00717236 0.00564682 0.000476143 0.000270819 -1.07828e-10 2.96222e-10 -1.20757e-10 5e-05 1.46608e-10 
105 1 0.0499075 0.0164628 0.00790155 0.00596091 -0.000230895 -0.000708587 1.89202e-10 6.32927e-10 -7.06488e-10 5e-05 1.46608e-10 
106 1 0.0504211 0.0174753 0.00720228 0.00564777 0.000404275 0.000300688 3.63548e-11 5.21352e-12 -1.93351e-11 5e-05 1.46608e-10 
107 1 0.0498678 0.0163472 0.00805873 0.00594535 -0.000193036 -0.000676899 3.38877e-10 5.40679e-10 -1.74866e-10 5e-05 1.46608e-10 
108 1 0.0560818 0.0168038 0.00768422 0.00571951 0.000347456 0.000733943 3.05897e-10 2.72695e-10 -1.39033e-10 5e-05 1.46608e-10 
109 1 0.0561482 0.0174451 0.00719865 0.00554987 -0.000132488 0.000172098 -9.83205e-11 -3.8931e-10 -1.12538e-09 5e-05 1.46608e-10 
110 1 0.0564881 0.0177542 0.0072205 0.00608938 0.000142266 -0.000236216 1.94607e-11 2.46304e-10 -2.01254e-10 5e-05 1.46608e-10 
111 1 0.0563801 0.0185204 0.00721274 0.00578758 -0.00026324 -0.000132891 2.04344e-11 3.01094e-10 1.11433e-11 5e-05 1.46608e-10 
112 1 0.0499684 0.0166595 0.00768334 0.00533561 -8.24054e-05 -0.000768533 -5.67369e-10 9.19594e-10 -5.62955e-10 5e-05 1.46608e-10 
113 1 0.0506516 0.0177222 0.00712312 0.00595722 0.000196733 0.000409232 2.52239e-10 -2.02231e-10 8.36045e-11 5e-05 1.46608e-10 
114 1 0.0502861 0.0172613 0.0072791 0.00568512 0.000419761 0.000281269 -2.4263e-10 3.44418e-10 -4.64514e-11 5e-05 1.46608e-10 
115 1 0.0562046 0.0172808 0.00720269 0.00557981 -0.000254941 -1.59004e-05 2.25923e-09 -3.07357e-10 2.20232e-09 5e-05 1.46608e-10 
116 1 0.0560663 0.0167646 0.0077749 0.00569299 0.000338777 0.000747746 2.86546e-10 2.75179e-10 -1.11493e-10 5e-05 1.46608e-10 
117 1 0.0559115 0.0163305 0.00829805 0.00572327 -0.000240456 0.000277223 -4.00935e-10 -2.35449e-11 1.07347e-09 5e-05 1.46608e-10 
118 1 0.0497997 0.0161392 0.00826196 0.00592147 -0.000214084 -0.000721343 -1.40091e-10 -9.19434e-10 1.03298e-09 5e-05 1.46608e-10 
119 1 0.0562136 0.0169562 0.00750734 0.00536409 0.000401898 0.000662974 7.35556e-10 -1.16698e-10 -7.05676e-11 5e-05 1.46608e-10 
120 1 0.0557724 0.0161861 0.00847091 0.0055717 -0.000553845 -0.000116785 -6.83883e-11 3.2573e-10 1.17417e-09 5e-05 1.46608e-10 
121 1 0.055729 0.0160594 0.00861943 0.00557539 -0.000503335 -9.26086e-05 -2.22125e-10 -5.9358e-10 6.54806e-10 5e-05 1.46608e-10 
122 1 0.056511 0.0178514 0.00721617 0.00607403 0.000120152 -0.00016088 -4.95055e-10 -4.36323e-11 -7.99675e-11 5e-05 1.46608e-10 
123 1 0.0499917 0.0164196 0.00793378 0.00594296 -0.000285029 -0.000649197 3.00069e-10 -1.03259e-10 5.76116e-11 5e-05 1.46608e-10 
124 1 0.0563251 0.0178689 0.00721736 0.00583628 -0.000132768 0.000534896 -9.53138e-11 3.22785e-10 2.01372e-10 5e-05 1.46608e-10 
125 1 0.0558891 0.0162634 0.0083688 0.00566047 -0.000545226 2.94751e-05 7.61129e-11 -6.49114e-10 1.03091e-09 5e-05 1.46608e-10 
126 1 0.0561102 0.0172512 0.00722018 0.00558047 -0.00024713 -0.000160785 1.86027e-09 7.56882e-10 2.63554e-09 5e-05 1.46608e-10 
127 1 0.0499282 0.0165293 0.00782974 0.00563011 -0.000158101 -0.000746295 8.63272e-10 5.99487e-10 -7.9284e-10 5e-05 1.46608e-10 
128 1 0.0562064 0.0177391 0.00720265 0.00586532 -0.000184658 0.000565386 -3.10073e-11 -5.66601e-10 -1.00553e-10 5e-05 1.46608e-10 
129 1 0.0562931 0.0181297 0.00721857 0.00582645 -0.000137853 -0.0001199 1.87728e-10 7.0618e-10 2.24862e-10 5e-05 1.46608e-10 
130 1 0.0502051 0.0173136 0.00724881 0.00564771 0.000474623 0.000271497 -7.64397e-11 7.06317e-11 5.64375e-12 5e-05 1.46608e-10 
131 1 0.0500612 0.0168176 0.00766825 0.00564429 -0.000143062 -0.000518632 -1.9494e-10 -6.42903e-11 -4.46347e-10 5e-05 1.46608e-10 
132 1 0.0563034 0.0177714 0.00721257 0.0058527 -0.000143585 0.000551795 1.37841e-10 -3.47828e-11 8.20882e-11 5e-05 1.46608e-10 
133 1 0.0560725 0.0165313 0.00804396 0.00577609 -0.000364475 0.000182026 5.65501e-10 -1.56119e-10 6.62668e-10 5e-05 1.46608e-10 
134 1 0.0562254 0.0170097 0.00742364 0.00544849 0.000435043 0.000662109 2.80339e-10 -1.2429e-10 -1.0366e-10 5e-05 1.46608e-10 
135 1 0.0558676 0.0162002 0.0084432 0.0055387 -0.000551262 -6.28135e-06 2.035e-11 -2.47538e-10 9.66056e-10 5e-05 1.46608e-10 
136 1 0.0499252 0.0162243 0.00815152 0.00584635 -0.000353156 -0.000571022 -6.53103e-10 1.66274e-10 -7.37493e-11 5e-05 1.46608e-10 
137 1 0.0564018 0.018618 0.00721129 0.00578401 -0.00027624 -0.000133154 6.29802e-11 3.16372e-10 -7.3261e-12 5e-05 1.46608e-10 
138 1 0.0560192 0.0166318 0.00791494 0.00569305 0.000330248 0.000736303 8.48782e-11 -1.45585e-10 1.04851e-10 5e-05 1.46608e-10 
140 1 0.056532 0.0179492 0.00721473 0.00597111 0.000148058 -0.000138674 -3.73115e-11 -3.39487e-10 -4.2921e-11 5e-05 1.46608e-10 
141 1 0.04997 0.0163544 0.0080064 0.00592907 -0.000308478 -0.000627091 -4.2461e-10 4.90183e-11 -1.02897e-10 5e-05 1.46608e-10 
142 1 0.0503063 0.0173531 0.00724495 0.00566588 0.000421797 0.000287305 -3.79422e-11 2.8917e-10 -7.94807e-11 5e-05 1.46608e-10 
143 1 0.0498858 0.0163979 0.00797442 0.00598 -0.000202538 -0.000674412 -4.97782e-10 9.58627e-10 -3.63351e-10 5e-05 1.46608e-10 
144 1 0.050259 0.0171702 0.0073102 0.00565959 0.000441972 0.000277803 -3.68263e-10 2.03444e-10 -1.59902e-10 5e-05 1.46608e-10 
146 1 0.0501176 0.0166506 0.00766869 0.0055864 0.000233393 -0.00115463 3.51524e-11 -1.79082e-10 1.78072e-10 5e-05 1.46608e-10 
147 1 0.0499036 0.016159 0.00822415 0.00582062 -0.000377146 -0.00054159 -9.77325e-10 2.8913e-10 -1.63764e-10 5e-05 1.46608e-10 
148 1 0.0501721 0.0175572 0.00714944 0.00569542 0.000482174 0.000273488 -5.76027e-11 -1.15033e-10 4.02024e-11 5e-05 1.46608e-10 
149 1 0.0564335 0.0183568 0.00721308 0.00581591 -0.000214182 -0.000136374 -2.9189e-11 2.46474e-10 -1.01447e-11 5e-05 1.46608e-10 
150 1 0.050095 0.0167773 0.00753807 0.00529553 0.000340538 -0.00120015 2.99064e-11 -3.32448e-10 6.0777e-10 5e-05 1.46608e-10 
151 1 0.0504958 0.0174155 0.00723211 0.00569801 0.000334905 0.0003328 -6.60269e-10 -3.1033e-10 6.09557e-11 5e-05 1.46608e-10 
153 1 0.0500329 0.0165506 0.00778835 0.0053707 -0.000157977 -0.000697032 -5.44105e-10 1.31645e-10 -3.98279e-10 5e-05 1.46608e-10 
154 1 0.050267 0.0175901 0.00714413 0.00566718 0.000483677 0.0002733 -6.86572e-11 3.19812e-10 -1.3846e-10 5e-05 1.46608e-10 
155 1 0.0503516 0.0179702 0.0070339 0.00622165 0.000262938 4.79505e-05 3.58431e-10 3.43297e-11 7.29104e-11 5e-05 1.46608e-10 
156 1 0.0502474 0.0174984 0.00717892 0.00566535 0.000458579 0.000279302 -3.71617e-10 2.74904e-11 -3.27515e-11 5e-05 1.46608e-10 
157 1 0.0219312 0.0187687 0.00551176 -3.82912e-14 8.16883e-14 2.95887e-13 7.55009e-22 4.22741e-22 -2.10931e-23 5e-05 1.46608e-10 
158 1 0.0503653 0.0176269 0.00713757 0.00569233 0.000520697 0.0002604 -3.84451e-10 4.28478e-10 -2.01669e-10 5e-05 1.46608e-10 
159 1 0.056358 0.0176091 0.00721294 0.00585774 -0.000190603 0.000538901 2.95077e-10 -5.77333e-10 1.30291e-10 5e-05 1.46608e-10 
160 1 0.050252 0.0179347 0.00704344 0.00625801 0.000483301 -0.000357746 -3.04122e-10 8.29677e-11 -2.91279e-10 5e-05 1.46608e-10 
162 1 0.0502901 0.0176858 0.00710816 0.00573081 0.000485688 7.61866e-05 -5.55309e-11 1.67193e-10 -9.55746e-10 5e-05 1.46608e-10 
164 1 0.0505129 0.0182892 0.00696862 0.00628096 0.000240066 -0.000330807 -1.35302e-10 -7.74518e-11 1.87688e-11 5e-05 1.46608e-10 
165 1 0.0505561 0.0176905 0.00712789 0.00581597 0.000174022 0.000406414 2.86785e-10 -3.30703e-10 1.39411e-10 5e-05 1.46608e-10 
166 1 0.056027 0.0164047 0.008192 0.00562527 -0.000587148 -2.67701e-05 -4.80578e-10 -2.2927e-10 5.01376e-10 5e-05 1.46608e-10 
167 1 0.0500669 0.0167137 0.00760997 0.00558678 0.000232853 -0.00116482 5.37692e-10 -4.96815e-10 2.93607e-10 5e-05 1.46608e-10 
168 1 0.0504409 0.017567 0.00716752 0.00566864 0.000389318 0.000308939 -2.55394e-10 -9.72827e-12 1.35682e-11 5e-05 1.46608e-10 
169 1 0.0506727 0.0178136 0.00708854 0.00610632 0.000190795 0.000418866 5.17972e-10 -2.20502e-10 8.3872e-11 5e-05 1.46608e-10 
170 1 0.0504815 0.0177501 0.00709814 0.00597591 0.000322982 0.000358418 8.35632e-10 -1.0642e-10 9.19693e-11 5e-05 1.46608e-10 
171 1 0.0560509 0.0164675 0.00811789 0.00574802 -0.000577274 3.85235e-06 3.35012e-10 -4.25768e-10 5.13866e-10 5e-05 1.46608e-10 
172 1 0.0505359 0.0175987 0.00716267 0.00577215 0.000322738 0.000343046 1.58803e-10 -3.19081e-11 6.02798e-12 5e-05 1.46608e-10 
173 1 0.0564772 0.0172931 0.00721487 0.00577466 9.71336e-05 0.000533589 -1.89791e-10 -8.24516e-11 2.06814e-10 5e-05 1.46608e-10 
174 1 0.0504061 0.0178099 0.00706823 0.00619132 0.000492407 0.000310371 -4.63936e-10 2.11866e-10 1.91575e-10 5e-05 1.46608e-10 
175 1 0.0440553 0.0170762 0.00751359 0.00529762 -0.000603957 0.000413666 -9.45763e-11 1.61022e-11 -5.75516e-11 5e-05 1.46608e-10 
176 1 0.0502279 0.0174067 0.00721372 0.00567289 0.000439753 0.000287256 -7.95138e-11 3.46341e-11 -1.00822e-11 5e-05 1.46608e-10 
177 1 0.0502957 0.0181292 0.00700695 0.00621511 0.000195719 -0.000317279 -7.44643e-11 -6.36766e-10 2.41774e-11 5e-05 1.46608e-10 
178 1 0.0506305 0.0176308 0.00715769 0.00581214 0.000205092 0.000393595 1.14686e-10 -2.69283e-10 1.2451e-10 5e-05 1.46608e-10 
179 1 0.0505984 0.0178735 0.00705869 0.00618087 0.000298323 0.000389791 5.74533e-10 -2.15468e-10 1.80226e-10 5e-05 1.46608e-10 
181 1 0.0502114 0.0177406 0.00707984 0.00570556 0.000540295 0.000248035 1.18773e-11 2.57587e-10 -9.7061e-11 5e-05 1.46608e-10 
182 1 0.0559971 0.0165734 0.00799306 0.00571626 0.0002863 0.000692082 1.7238e-11 -2.75976e-10 2.2004e-10 5e-05 1.46608e-10 
183 1 0.0504615 0.0176585 0.00713287 0.00578405 0.000354975 0.000330732 -3.13668e-11 -5.35108e-11 2.16738e-11 5e-05 1.46608e-10 
184 1 0.0563136 0.0176409 0.00729672 0.00587516 -0.000178037 0.000545949 1.64324e-10 -9.92498e-12 1.00308e-10 5e-05 1.46608e-10 
185 1 0.0501524 0.0174653 0.0071843 0.00568532 0.00045224 0.000278699 5.32732e-11 2.0561e-10 -5.41288e-11 5e-05 1.46608e-10 
186 1 0.0501918 0.017649 0.00711462 0.00570215 0.000533235 0.000253054 -8.15131e-11 3.41518e-10 -1.41378e-10 5e-05 1.46608e-10 
187 1 0.0562936 0.0169191 0.00756572 0.00530412 0.000327531 0.00065317 3.61766e-10 1.49591e-10 -3.30118e-11 5e-05 1.46608e-10 
188 1 0.0563903 0.0181616 0.00721599 0.00579048 -0.00017233 -0.000118075 6.45053e-11 3.50765e-10 1.6747e-10 5e-05 1.46608e-10 
189 1 0.0563253 0.0170367 0.00740707 0.00541096 0.00039429 0.00069818 -4.2194e-10 4.36227e-11 -2.62855e-11 5e-05 1.46608e-10 
190 1 0.0441605 0.0171204 0.0075044 0.00547058 -0.000613452 0.000562106 -1.19243e-12 1.16801e-11 7.46501e-12 5e-05 1.46608e-10 
191 1 0.0564235 0.0187156 0.00720983 0.00577939 -0.000285024 -0.00013225 6.93147e-11 2.99036e-10 -4.3139e-12 5e-05 1.46608e-10 
192 1 0.0503809 0.0172921 0.0072717 0.0056741 0.00041169 0.00029848 -2.84708e-10 1.32774e-10 -5.95666e-11 5e-05 1.46608e-10 
193 1 0.0561445 0.0167173 0.0078203 0.00572029 0.000316868 0.000766798 -1.65176e-10 7.85769e-11 6.75943e-11 5e-05 1.46608e-10 
194 1 0.0501718 0.0169154 0.00741822 0.00531152 0.000259307 -0.0011471 -2.22804e-10 1.45e-10 -1.97079e-10 5e-05 1.46608e-10 
195 1 0.0505764 0.0177821 0.0070932 0.00604127 0.000141848 0.000436841 8.31614e-10 -6.45395e-10 3.161e-10 5e-05 1.46608e-10 
196 1 0.0496911 0.0158134 0.00862466 0.00595533 -0.000273847 -0.000670907 9.81236e-11 3.01806e-10 -3.18585e-10 5e-05 1.46608e-10 
197 1 0.0441184 0.0173566 0.00742754 0.00555154 -0.000603261 0.000565558 -1.51505e-10 -6.48737e-11 2.19729e-11 5e-05 1.46608e-10 
198 1 0.0500725 0.0171174 0.00739054 0.00562056 0.000545032 0.000148779 -1.99169e-10 -3.65717e-10 2.97438e-10 5e-05 1.46608e-10 
199 1 0.0503094 0.0177775 0.00707321 0.00551827 0.000315423 0.000338123 2.63128e-10 -9.05478e-10 7.61198e-10 5e-05 1.46608e-10 
200 1 0.0501379 0.0171307 0.00731592 0.00559694 0.000503546 0.000242855 -2.79613e-10 -2.30919e-11 7.17391e-11 5e-05 1.46608e-10 
201 1 0.0506089 0.0183191 0.00695891 0.00629258 0.000223505 -0.000328812 -8.09766e-11 -1.42225e-10 2.33892e-11 5e-05 1.46608e-10 
202 1 0.0504011 0.0173837 0.007237 0.00566137 0.000412339 0.000297554 -5.38624e-11 1.24464e-10 -6.09694e-11 5e-05 1.46608e-10 
203 1 0.0563843 0.0172719 0.00724533 0.00582015 0.000299798 0.000635889 2.54136e-10 -8.95632e-11 -8.34198e-11 5e-05 1.46608e-10 
204 1 0.0501449 0.0170502 0.0073748 0.00560095 0.000530048 0.000277714 -7.97734e-12 3.543e-12 1.48824e-10 5e-05 1.46608e-10 
205 1 0.0504699 0.0180973 0.00700468 0.00622999 0.000243039 -0.000318814 -1.41937e-11 -7.12461e-11 -1.21876e-10 5e-05 1.46608e-10 
206 1 0.0504275 0.0179074 0.00705052 0.00623164 0.000344484 0.000280958 7.3781e-10 -8.77657e-11 -6.7851e-13 5e-05 1.46608e-10 
207 1 0.0500124 0.0164851 0.00786108 0.00584358 -0.000257569 -0.000667205 5.5348e-10 -2.5541e-10 7.10713e-11 5e-05 1.46608e-10 
208 1 0.0503846 0.0177186 0.00710274 0.00587869 0.00052822 0.000261686 -6.91741e-10 3.77302e-10 -2.75783e-10 5e-05 1.46608e-10 
209 1 0.0501294 0.0168398 0.00746798 0.00464185 0.000390827 -0.00149857 -7.11427e-10 3.2296e-10 5.01144e-10 5e-05 1.46608e-10 
210 1 0.056141 0.0171576 0.00739238 0.00327116 0.0039927 -0.00263245 2.05285e-11 1.61823e-11 -1.35556e-09 5e-05 1.46608e-10 
211 1 0.0564234 0.0179023 0.00721773 0.00587859 -0.000111159 -0.000123614 9.24981e-11 3.39843e-10 -1.1441e-10 5e-05 1.46608e-10 
212 1 0.0505018 0.0178417 0.00706345 0.00617484 0.000294401 0.000395034 1.08945e-09 -3.11648e-11 1.22655e-10 5e-05 1.46608e-10 
213 1 0.0562746 0.0168606 0.00764454 0.00547959 0.000140708 0.00056245 1.57543e-10 1.66562e-10 7.2192e-11 5e-05 1.46608e-10 
214 1 0.0563468 0.0179665 0.00722062 0.00585102 -0.000137953 0.000371357 -3.21025e-10 3.5075e-10 -2.46348e-10 5e-05 1.46608e-10 
215 1 0.0441125 0.0169241 0.00756803 0.00526897 -0.000604597 0.000424342 -4.68613e-11 -6.49429e-11 6.45731e-12 5e-05 1.46608e-10 
216 1 0.0502741 0.0180328 0.00702503 0.00619096 0.000173794 -0.000311457 5.69609e-11 1.16181e-11 -2.18456e-10 5e-05 1.46608e-10 
217 1 0.056094 0.0165963 0.00797112 0.00574368 -2.63048e-05 0.000468053 5.03814e-11 6.98662e-11 5.54248e-10 5e-05 1.46608e-10 
218 1 0.0503951 0.018163 0.0069964 0.00622491 0.000277523 -0.000346373 7.33556e-12 4.01244e-11 -3.79439e-11 5e-05 1.46608e-10 
219 1 0.0563584 0.0184228 0.0072142 0.0057979 -0.000249942 -0.000131678 7.72375e-12 2.08759e-10 6.60189e-12 5e-05 1.46608e-10 
220 1 0.0502311 0.0178387 0.00706206 0.00575821 0.000429276 -0.000893778 2.4845e-10 1.3537e-10 1.19251e-09 5e-05 1.46608e-10 
221 1 0.0440354 0.0165537 0.00769193 0.00544495 -0.00061381 0.000435188 -2.06713e-11 1.48898e-11 -6.46527e-12 5e-05 1.46608e-10 
222 1 0.0561158 0.0166585 0.0078959 0.00573027 0.000222926 0.000679901 -1.69594e-10 8.88204e-11 3.66951e-10 5e-05 1.46608e-10 
223 1 0.0503261 0.0174435 0.00720715 0.00563372 0.000447789 0.000283355 -6.88132e-12 3.75873e-10 -1.75393e-10 5e-05 1.46608e-10 
224 1 0.0501331 0.0173817 0.00723563 0.00566904 0.000479484 0.000270119 -3.13112e-11 1.54026e-10 1.67442e-11 5e-05 1.46608e-10 
225 1 0.0565613 0.0176862 0.00721659 0.00605315 0.000102525 -0.000121208 -2.1942e-10 1.44713e-10 4.34916e-10 5e-05 1.46608e-10 
226 1 0.0505159 0.0175071 0.00719739 0.0057239 0.000328862 0.000337122 -5.10516e-10 -9.79799e-11 8.34628e-12 5e-05 1.46608e-10 
227 1 0.0441915 0.0168671 0.00759083 0.00523144 -0.000642983 0.000436604 -3.71851e-11 4.31781e-12 -5.78465e-12 5e-05 1.46608e-10 
228 1 0.0440759 0.0171693 0.00748334 0.00548787 -0.000593641 0.000558003 1.3788e-10 5.96365e-11 1.13031e-11 5e-05 1.46608e-10 
229 1 0.0501887 0.0173419 0.00734332 0.00564903 0.000512726 0.000259605 1.44511e-10 1.0426e-10 1.03625e-10 5e-05 1.46608e-10 
230 1 0.0505559 0.0184812 0.00693262 0.00631697 0.00024181 -0.000333161 -5.61097e-11 -3.71607e-11 -6.70801e-12 5e-05 1.46608e-10 
231 1 0.0440354 0.0169833 0.00754454 0.00528231 -0.000599453 0.000422275 2.47507e-12 -2.06369e-11 7.76955e-13 5e-05 1.46608e-10 
232 1 0.0501231 0.0165134 0.00781317 0.00544557 0.000247697 -0.00113979 -2.40734e-10 3.85376e-10 -3.63457e-10 5e-05 1.46608e-10 
233 1 0.0502258 0.0169981 0.00740205 0.00556207 0.000314774 2.21332e-05 2.59033e-10 -2.39495e-11 -2.04231e-10 5e-05 1.46608e-10 
234 1 0.0565073 0.0182893 0.00721201 0.00582693 -0.000222773 -0.000135198 -5.29678e-11 2.16711e-10 -6.56465e-11 5e-05 1.46608e-10 
235 1 0.0505989 0.0186732 0.00689661 0.00634137 0.000238573 -0.000333492 2.53452e-11 4.16194e-11 7.68491e-13 5e-05 1.46608e-10 
236 1 0.0505774 0.0185772 0.00691461 0.00633264 0.000241202 -0.000332946 -2.63984e-11 4.36093e-12 9.83473e-13 5e-05 1.46608e-10 
237 1 0.0506727 0.0186061 0.00690511 0.00633084 0.000223991 -0.000330271 2.82243e-11 3.83922e-11 -8.08709e-12 5e-05 1.46608e-10 
239 1 0.0438591 0.0161806 0.00787196 0.00568928 -0.000616915 0.00050893 -1.26519e-10 6.32575e-11 -7.59032e-11 5e-05 1.46608e-10 
240 1 0.0439169 0.0164254 0.00773104 0.00545174 -0.000637473 0.000443634 1.16675e-12 3.46962e-12 2.0998e-12 5e-05 1.46608e-10 
241 1 0.0438404 0.0161221 0.00795081 0.00562547 -0.000611328 0.000501619 -1.85183e-10 5.79877e-11 -8.46014e-11 5e-05 1.46608e-10 
242 1 0.0503373 0.0171096 0.00734061 0.00567663 0.000364425 0.000317519 -2.07032e-10 1.16049e-10 -1.29283e-10 5e-05 1.46608e-10 
243 1 0.0501378 0.0170293 0.00747231 0.0056595 0.000720167 0.000299498 1.54459e-12 -2.73565e-10 3.19484e-11 5e-05 1.46608e-10 
244 1 0.0438769 0.0162396 0.00779316 0.00547055 -0.000642305 0.000445176 2.60529e-11 8.75469e-11 -3.73924e-11 5e-05 1.46608e-10 
246 1 0.0439963 0.0167972 0.00760675 0.00527919 -0.000598418 0.000423234 3.70041e-11 -2.78063e-11 1.16208e-11 5e-05 1.46608e-10 