ITEM: TIMESTEP
8000000
ITEM: NUMBER OF ATOMS
287
ITEM: BOX BOUNDS ff ff ff
-0.02 0.43
-0.02 0.06
-0.02 0.07
ITEM: ATOMS id type x y z vx vy vz fx fy fz radius mass 
1 1 0.0594895 0.0165101 0.00796259 0.00593124 8.72013e-05 8.04842e-06 8.36865e-11 2.30059e-11 -1.27595e-11 5e-05 1.46608e-10 
2 1 0.0598993 0.0172655 0.00720852 0.0059287 0.000252606 -0.000101503 6.74373e-11 -3.61282e-11 -1.15122e-10 5e-05 1.46608e-10 
3 1 0.0532975 0.0160686 0.00813353 0.00587112 0.00052096 0.000504229 -7.90721e-10 9.81539e-10 -7.62301e-10 5e-05 1.46608e-10 
4 1 0.0598152 0.0177582 0.00717419 0.00557275 0.000178379 -6.35888e-05 -1.00688e-10 -1.64206e-10 4.01046e-11 5e-05 1.46608e-10 
5 1 0.0593726 0.0164183 0.00805311 0.00588872 0.000121808 -2.7752e-05 -1.19192e-10 -1.52003e-10 1.33074e-10 5e-05 1.46608e-10 
6 1 0.0655094 0.0168583 0.00758963 0.0059409 -0.000601687 0.00029518 7.35553e-12 2.11221e-12 -1.44947e-12 5e-05 1.46608e-10 
7 1 0.0595631 0.0170396 0.00743052 0.00615152 7.41477e-05 2.53519e-05 3.02056e-12 8.08294e-11 -1.02711e-10 5e-05 1.46608e-10 
8 1 0.0592667 0.0160731 0.008399 0.00574902 0.000196536 -0.00010537 2.85445e-11 -1.23894e-11 -1.92997e-11 5e-05 1.46608e-10 
9 1 0.0657653 0.0179549 0.00702521 0.00556762 -0.00055603 0.000225613 1.39105e-10 1.45879e-10 -8.52367e-11 5e-05 1.46608e-10 
10 1 0.0594996 0.0168325 0.00763805 0.00605558 7.93586e-05 1.88071e-05 2.5988e-11 1.90732e-11 -1.09322e-11 5e-05 1.46608e-10 
11 1 0.0599627 0.0175559 0.00717657 0.00567579 0.000313784 -6.87869e-05 -3.29376e-11 2.25901e-11 -1.13107e-11 5e-05 1.46608e-10 
12 1 0.0534885 0.0167312 0.00757898 0.00609687 -0.000453302 -0.000135541 1.45509e-10 3.70578e-11 1.19778e-11 5e-05 1.46608e-10 
13 1 0.0593514 0.0163493 0.00812229 0.0058513 0.000128428 -3.68263e-05 2.78305e-11 -1.18459e-10 1.18436e-10 5e-05 1.46608e-10 
14 1 0.0532158 0.0158346 0.0084481 0.00584802 0.00039244 0.000699247 1.65722e-10 3.41312e-10 -4.28431e-10 5e-05 1.46608e-10 
15 1 0.0596963 0.0172009 0.00727028 0.00598614 9.74721e-05 -2.88387e-06 1.12701e-09 -1.39735e-10 1.82171e-10 5e-05 1.46608e-10 
16 1 0.0531954 0.0157762 0.00852665 0.00578007 0.000351571 0.000735046 1.00896e-10 3.61628e-10 -5.22336e-10 5e-05 1.46608e-10 
17 1 0.0594784 0.0167635 0.00770723 0.00603056 8.37049e-05 1.37278e-05 -4.84232e-11 -3.93488e-11 2.40932e-12 5e-05 1.46608e-10 
18 1 0.0656519 0.0174198 0.00719691 0.00567882 -0.000552058 0.000265095 -9.67534e-12 -1.99446e-11 5.83869e-12 5e-05 1.46608e-10 
19 1 0.0593302 0.0162803 0.00819147 0.0058384 0.000149256 -5.61138e-05 1.84321e-10 5.7498e-11 -2.35581e-11 5e-05 1.46608e-10 
21 1 0.0594684 0.016441 0.00803177 0.00590345 9.31333e-05 1.51495e-06 3.51681e-11 -1.36174e-11 5.73244e-12 5e-05 1.46608e-10 
22 1 0.0596047 0.0171961 0.00731761 0.00578987 1.35982e-05 1.16618e-05 -6.32433e-11 -2.40007e-10 1.7252e-10 5e-05 1.46608e-10 
23 1 0.0536622 0.017108 0.00741129 0.00570528 -0.000325898 -0.000168651 5.30098e-11 1.64307e-10 -5.93494e-11 5e-05 1.46608e-10 
24 1 0.0657053 0.017661 0.00702677 0.00558523 -0.000540929 0.000226113 5.36693e-11 -2.02048e-11 -9.90396e-12 5e-05 1.46608e-10 
25 1 0.059542 0.0169706 0.00749971 0.0061287 7.53706e-05 2.34663e-05 1.5161e-10 8.56212e-11 -9.461e-11 5e-05 1.46608e-10 
26 1 0.0655956 0.0171784 0.0073657 0.00552781 -0.000522881 0.00024945 -1.21316e-10 -3.41846e-11 1.37342e-11 5e-05 1.46608e-10 
27 1 0.0535776 0.0171227 0.00746933 0.00558165 -0.000433831 -0.000119637 9.87043e-11 2.73128e-11 -8.19746e-11 5e-05 1.46608e-10 
28 1 0.0597952 0.0176603 0.00717634 0.00560094 0.000170406 -6.46651e-05 -3.65569e-10 1.22193e-10 -3.04273e-11 5e-05 1.46608e-10 
29 1 0.0593091 0.0162112 0.00826064 0.00582292 0.000175871 -8.07668e-05 -1.29365e-10 3.28243e-11 -6.09512e-11 5e-05 1.46608e-10 
30 1 0.0598287 0.0173988 0.00718113 0.00581822 0.000197073 -6.78013e-05 1.06487e-12 7.10117e-11 2.66857e-11 5e-05 1.46608e-10 
31 1 0.0595811 0.0171091 0.00736087 0.00493427 0.000189389 -0.00011365 -5.33783e-10 -1.30863e-10 9.67e-11 5e-05 1.46608e-10 
32 1 0.0596794 0.0171313 0.00734007 0.00607461 0.000104972 -6.6456e-06 1.15885e-10 -4.64087e-11 5.2368e-12 5e-05 1.46608e-10 
33 1 0.0655311 0.0169383 0.00753366 0.00594976 -0.000603837 0.000296736 -1.39699e-11 2.35654e-11 -8.25729e-12 5e-05 1.46608e-10 
34 1 0.0594574 0.0166944 0.00777642 0.00599879 8.93536e-05 6.10234e-06 4.15465e-11 -2.12975e-11 2.26158e-11 5e-05 1.46608e-10 
35 1 0.0596581 0.0170623 0.00740923 0.00614515 9.55533e-05 2.89652e-06 -3.97826e-11 3.5523e-11 -2.91474e-11 5e-05 1.46608e-10 
36 1 0.0658046 0.018151 0.00702769 0.0053838 -0.000467394 -0.000266721 -6.79033e-10 -8.99571e-11 4.51485e-10 5e-05 1.46608e-10 
37 1 0.0596163 0.016924 0.00754776 0.00616194 0.000120602 -2.19612e-05 1.95033e-10 1.43791e-10 -1.31589e-10 5e-05 1.46608e-10 
38 1 0.0597733 0.0171562 0.00731648 0.00605642 0.000160733 -5.81967e-05 -4.21268e-11 -9.0916e-11 4.03114e-11 5e-05 1.46608e-10 
39 1 0.0657253 0.017759 0.00702625 0.00556842 -0.000538959 0.000225432 6.67663e-11 -2.34056e-10 -3.27078e-11 5e-05 1.46608e-10 
41 1 0.0594149 0.0165564 0.00791476 0.00595053 0.000107017 -1.0283e-05 1.81474e-11 1.38244e-11 -6.8762e-12 5e-05 1.46608e-10 
42 1 0.0596136 0.0172409 0.00722866 0.00584546 5.65051e-05 3.85438e-05 -1.65308e-11 -1.46502e-10 1.60756e-10 5e-05 1.46608e-10 
44 1 0.0597905 0.0172258 0.00724672 0.00598941 0.000164988 -7.01699e-05 1.46513e-11 -1.62187e-10 1.21565e-10 5e-05 1.46608e-10 
45 1 0.0655528 0.0170183 0.00747769 0.00596363 -0.000607214 0.000298877 -7.42463e-11 -1.11818e-11 6.1895e-12 5e-05 1.46608e-10 
46 1 0.0656355 0.017339 0.00725339 0.00563721 -0.000544075 0.000261239 7.45518e-12 -2.78728e-11 3.77722e-12 5e-05 1.46608e-10 
47 1 0.0594361 0.0166254 0.00784558 0.00597621 9.75039e-05 -1.47359e-06 6.28823e-11 4.50397e-11 -8.92017e-12 5e-05 1.46608e-10 
48 1 0.0596538 0.0174264 0.00718251 0.00584016 3.26509e-05 -5.64452e-05 2.1147e-10 1.27392e-10 9.50402e-12 5e-05 1.46608e-10 
49 1 0.0656157 0.0172586 0.00730955 0.00556194 -0.000527914 0.000252289 5.33592e-11 -9.07407e-12 6.98734e-12 5e-05 1.46608e-10 
50 1 0.0597142 0.0177189 0.00717607 0.0055207 0.000149232 -6.93852e-05 -5.78175e-10 5.86267e-10 -4.20431e-11 5e-05 1.46608e-10 
51 1 0.0596941 0.017621 0.00717823 0.0055461 0.000138696 -7.61431e-05 -2.10736e-10 -5.75136e-10 -7.82224e-11 5e-05 1.46608e-10 
52 1 0.0534668 0.0166417 0.00761779 0.00612093 -0.000439777 -0.000133731 2.30662e-10 2.40524e-11 1.80818e-10 5e-05 1.46608e-10 
53 1 0.0656722 0.0175 0.00714069 0.00565169 -0.000560918 0.000235514 2.77441e-13 3.78164e-11 -3.9358e-11 5e-05 1.46608e-10 
54 1 0.0594472 0.016372 0.00810095 0.00586726 0.000100088 -6.48451e-06 -1.32955e-10 -9.6312e-11 7.69169e-11 5e-05 1.46608e-10 
55 1 0.0532566 0.0159519 0.00829133 0.0058847 0.000276154 0.000664947 -1.74115e-10 1.50808e-11 6.5688e-10 5e-05 1.46608e-10 
56 1 0.0596375 0.0169932 0.0074785 0.00618392 9.56411e-05 3.40139e-06 -1.58876e-10 2.48473e-11 -2.13436e-11 5e-05 1.46608e-10 
57 1 0.0655745 0.0170983 0.00742172 0.00596524 -0.000614267 0.000301892 3.32455e-10 -7.44909e-11 3.29713e-11 5e-05 1.46608e-10 
59 1 0.0596926 0.0168791 0.00759426 0.00623535 0.000200751 -0.000101412 -8.62586e-11 -3.7983e-11 3.2239e-11 5e-05 1.46608e-10 
60 1 0.0597139 0.0169483 0.00752493 0.00623917 0.000147239 -4.68706e-05 -2.73706e-10 -6.31512e-11 6.93266e-11 5e-05 1.46608e-10 
61 1 0.0593937 0.0164874 0.00798393 0.0059265 0.000113724 -1.77079e-05 -3.12854e-11 -4.7639e-11 5.58519e-11 5e-05 1.46608e-10 
62 1 0.0598092 0.0173008 0.00718328 0.00590706 0.000175827 -7.36943e-05 6.7024e-11 -2.34795e-10 3.12101e-11 5e-05 1.46608e-10 
63 1 0.0597535 0.0174647 0.00718066 0.00576017 0.00015918 -6.75869e-05 -6.96625e-10 2.99085e-10 -1.11821e-10 5e-05 1.46608e-10 
64 1 0.0656885 0.0175812 0.0070847 0.00560457 -0.000549154 0.000227556 3.73644e-11 5.11086e-11 -4.62312e-11 5e-05 1.46608e-10 
65 1 0.0535422 0.0168964 0.00759972 0.00604393 -0.000551234 -0.000136803 6.10331e-11 -1.75025e-10 -1.2874e-11 5e-05 1.46608e-10 
66 1 0.0535995 0.0166029 0.00771746 0.00602881 -0.000451569 -0.000141574 1.16252e-10 7.14749e-11 -2.91388e-11 5e-05 1.46608e-10 
67 1 0.0599426 0.017458 0.00717872 0.00574427 0.000303432 -6.81142e-05 -5.44191e-11 6.37159e-11 2.54998e-11 5e-05 1.46608e-10 
68 1 0.0598704 0.0175944 0.00717682 0.00565571 0.000248439 -6.67815e-05 -2.44354e-10 -3.41558e-11 5.80633e-12 5e-05 1.46608e-10 
69 1 0.059553 0.0167172 0.00775506 0.00601438 7.23512e-05 2.4988e-05 -1.72454e-10 -2.18569e-11 1.22832e-11 5e-05 1.46608e-10 
70 1 0.0657454 0.0178569 0.00702573 0.00555965 -0.000549081 0.000224781 -1.1227e-10 -1.72309e-10 9.38513e-12 5e-05 1.46608e-10 
71 1 0.0532362 0.015893 0.00836954 0.00588994 0.000413066 0.000647671 -4.13281e-11 -3.53821e-10 1.45683e-10 5e-05 1.46608e-10 
72 1 0.0598503 0.0174964 0.00717897 0.0057192 0.000228208 -6.46722e-05 -2.93675e-10 1.13357e-10 4.27023e-12 5e-05 1.46608e-10 
73 1 0.0595208 0.0169015 0.00756888 0.00608811 7.44173e-05 2.31957e-05 1.52546e-10 6.53533e-11 -5.49921e-11 5e-05 1.46608e-10 
74 1 0.0597134 0.0172704 0.00720049 0.00588488 8.87633e-05 -4.14046e-06 4.74903e-10 -6.09455e-11 1.53759e-10 5e-05 1.46608e-10 
76 1 0.0538078 0.0177438 0.0071362 0.00537679 -0.000341189 -0.000144383 2.57769e-11 -8.10131e-11 7.48003e-11 5e-05 1.46608e-10 
77 1 0.0599375 0.0183455 0.00716127 0.00560996 0.000218232 -6.53582e-05 -7.4157e-13 -4.6567e-11 -1.1357e-12 5e-05 1.46608e-10 
78 1 0.0533194 0.0161483 0.00807723 0.00581013 0.000102052 -0.000285845 5.94621e-11 -1.19671e-10 -1.196e-09 5e-05 1.46608e-10 
79 1 0.0535101 0.0168208 0.00754016 0.00608411 -0.00046537 -0.000131947 1.58543e-10 4.81551e-11 -7.25612e-11 5e-05 1.46608e-10 
80 1 0.0597739 0.0180128 0.00716962 0.00543474 0.000189001 -6.28652e-05 5.3772e-11 -9.04916e-11 4.26783e-13 5e-05 1.46608e-10 
81 1 0.0534602 0.0166427 0.00771757 0.00613308 -0.00054906 -0.000142226 -6.13628e-12 1.96316e-11 4.66613e-10 5e-05 1.46608e-10 
82 1 0.0535934 0.0171761 0.00738632 0.00557642 -0.000436932 -0.000114999 2.21252e-11 3.18648e-11 -4.88542e-11 5e-05 1.46608e-10 
83 1 0.0536362 0.0166043 0.00762444 0.00608608 -0.000465762 -0.000125445 1.37738e-10 5.05764e-11 -2.22833e-11 5e-05 1.46608e-10 
84 1 0.0657852 0.0180529 0.00702468 0.00542469 -0.000516503 0.000238102 4.62636e-10 3.15846e-10 -2.67364e-10 5e-05 1.46608e-10 
85 1 0.0534105 0.016154 0.00803643 0.00593937 0.000378377 0.000717591 -1.24734e-09 8.35064e-11 -3.89735e-10 5e-05 1.46608e-10 
86 1 0.0597751 0.0175624 0.00717849 0.00563343 0.000179 -7.13455e-05 -4.43643e-10 3.5891e-10 -1.84674e-11 5e-05 1.46608e-10 
87 1 0.0596714 0.0168101 0.00766343 0.00615737 0.000126897 -2.8637e-05 -6.4517e-11 -1.13568e-11 3.63434e-12 5e-05 1.46608e-10 
88 1 0.0598354 0.0183065 0.00716316 0.0055631 0.000220596 -6.49837e-05 -2.68499e-10 3.85833e-10 1.28762e-11 5e-05 1.46608e-10 
89 1 0.0597935 0.0181109 0.00716747 0.00540726 0.000199051 -6.23206e-05 7.8214e-11 -7.30823e-11 8.92618e-14 5e-05 1.46608e-10 
90 1 0.0598866 0.0171955 0.00727879 0.00596449 0.000221563 -0.000121556 1.86284e-10 6.11984e-11 -9.06224e-11 5e-05 1.46608e-10 
91 1 0.0535312 0.0169105 0.00750133 0.00607066 -0.000472332 -0.000127631 5.60357e-11 3.72317e-11 -3.41363e-11 5e-05 1.46608e-10 
92 1 0.0599104 0.0177903 0.00717252 0.00567664 0.000250798 -6.70345e-05 -1.34785e-10 -6.0385e-12 -8.3754e-12 5e-05 1.46608e-10 
93 1 0.0598951 0.0181501 0.00716559 0.00550876 0.000222255 -6.55082e-05 8.80461e-11 1.78725e-11 3.03153e-11 5e-05 1.46608e-10 
94 1 0.059975 0.0180899 0.0071659 0.00554307 0.000265996 -6.51688e-05 2.74757e-11 1.43068e-11 -1.22998e-11 5e-05 1.46608e-10 
95 1 0.0597542 0.0179148 0.00717177 0.00554181 0.000157124 -6.36731e-05 -1.27581e-10 4.37397e-11 1.24678e-11 5e-05 1.46608e-10 
96 1 0.0599304 0.0178882 0.00717037 0.0056589 0.000256587 -6.70431e-05 1.40873e-10 4.73715e-11 -1.16422e-11 5e-05 1.46608e-10 
97 1 0.0534236 0.0164716 0.00771196 0.00617947 -0.00027821 5.61467e-05 5.28663e-10 5.21535e-10 8.40694e-10 5e-05 1.46608e-10 
98 1 0.0598563 0.0184042 0.007161 0.00558647 0.00022454 -6.61695e-05 4.22966e-11 4.17016e-10 -1.78859e-11 5e-05 1.46608e-10 
99 1 0.0535334 0.0168034 0.00763585 0.0060928 -0.00047166 -0.000129256 4.0953e-10 2.11857e-10 -8.135e-12 5e-05 1.46608e-10 
100 1 0.0598463 0.0170572 0.00741743 0.00614819 0.00018624 -8.93196e-05 2.47858e-11 8.02182e-11 -6.59582e-11 5e-05 1.46608e-10 
101 1 0.0535192 0.0164885 0.00767939 0.00615385 -0.000382796 -0.000157325 3.07541e-10 -1.90034e-10 -1.42615e-10 5e-05 1.46608e-10 
102 1 0.0643568 0.0187248 0.00531097 4.15673e-15 1.05769e-14 8.29558e-14 5.1713e-22 -2.26492e-22 -2.06795e-25 5e-05 1.46608e-10 
103 1 0.24257 0.0191927 0.00520306 -3.50766e-23 4.86658e-23 1.23839e-22 0 0 0 5e-05 1.46608e-10 
104 1 0.0538251 0.0174116 0.00727493 0.00559789 -0.000353514 -0.000150669 -5.07424e-12 -2.47263e-11 2.07955e-12 5e-05 1.46608e-10 
105 1 0.0533828 0.0163512 0.00786634 0.00612981 0.00041397 0.00051124 -2.06388e-10 -2.83924e-10 9.99834e-10 5e-05 1.46608e-10 
106 1 0.0539007 0.01735 0.00729679 0.00562968 -0.000318949 -0.000166872 9.14591e-11 3.90786e-11 -1.92295e-11 5e-05 1.46608e-10 
107 1 0.0533406 0.0162214 0.00801236 0.00609355 0.00024373 1.17077e-06 -1.04628e-09 -5.45606e-10 -1.36479e-09 5e-05 1.46608e-10 
108 1 0.0595949 0.0168549 0.00761708 0.00609344 7.00043e-05 2.99429e-05 1.55725e-11 -1.92545e-11 6.89742e-12 5e-05 1.46608e-10 
109 1 0.0596736 0.017524 0.00719135 0.00567345 7.98414e-05 -7.37086e-05 -4.79728e-10 2.65199e-10 -2.1103e-10 5e-05 1.46608e-10 
110 1 0.0600227 0.0178498 0.00717011 0.00568437 0.000310244 -6.82902e-05 1.61291e-10 8.14637e-11 2.45716e-12 5e-05 1.46608e-10 
111 1 0.0598985 0.0185997 0.00715668 0.00563076 0.000201604 -6.54183e-05 -1.97272e-11 1.06758e-10 4.6134e-12 5e-05 1.46608e-10 
112 1 0.0534454 0.0165521 0.00765687 0.00614186 -0.000411067 -0.000115403 1.88687e-10 6.2385e-12 6.05132e-10 5e-05 1.46608e-10 
113 1 0.0541687 0.0177696 0.00710607 0.00533474 -0.000280314 -0.000167606 4.74941e-11 4.08558e-10 -2.10261e-10 5e-05 1.46608e-10 
114 1 0.0537659 0.0171417 0.00739158 0.00580924 -0.000386242 -0.000146586 1.98656e-10 -2.07637e-11 -7.61675e-12 5e-05 1.46608e-10 
115 1 0.059734 0.0173667 0.00718281 0.00586132 0.000104509 -6.15814e-05 2.99302e-10 3.17221e-11 4.30953e-11 5e-05 1.46608e-10 
116 1 0.0595736 0.0167917 0.00769157 0.00604499 6.97634e-05 2.90043e-05 -3.41458e-10 -2.57338e-12 -1.32202e-10 5e-05 1.46608e-10 
117 1 0.059426 0.016303 0.00817013 0.00582465 0.000108504 -1.56757e-05 -1.19254e-10 -9.49416e-11 7.62991e-11 5e-05 1.46608e-10 
118 1 0.053277 0.0160101 0.00821218 0.00599477 0.000456072 0.000626187 1.47153e-10 3.39079e-10 -4.22717e-10 5e-05 1.46608e-10 
119 1 0.0597348 0.0170177 0.00745538 0.00618315 0.000130933 -3.16745e-05 -1.08032e-10 -9.71913e-12 -2.00746e-11 5e-05 1.46608e-10 
120 1 0.0592879 0.0161422 0.00832982 0.00578074 0.000191508 -9.77168e-05 -3.47882e-10 -1.72121e-11 -6.16963e-11 5e-05 1.46608e-10 
121 1 0.0592456 0.0160041 0.00846818 0.0057338 0.000203555 -0.000113043 1.40212e-10 7.83666e-12 -4.73157e-13 5e-05 1.46608e-10 
122 1 0.0600425 0.0179478 0.00716796 0.00564302 0.000323449 -6.83537e-05 5.85327e-11 1.08564e-10 -2.32037e-13 5e-05 1.46608e-10 
123 1 0.053442 0.0162709 0.0078773 0.00591485 0.00037923 0.000688389 5.01425e-10 -3.97987e-10 2.96009e-11 5e-05 1.46608e-10 
124 1 0.0598551 0.0179542 0.00716989 0.00555249 0.000192115 -6.44284e-05 2.10094e-11 -8.42294e-11 1.09194e-11 5e-05 1.46608e-10 
125 1 0.0594047 0.0162338 0.00823942 0.00581702 0.000150506 -5.80259e-05 1.10935e-10 -1.01789e-10 1.58541e-10 5e-05 1.46608e-10 
126 1 0.0596335 0.0173285 0.0071847 0.0058613 3.10643e-05 3.03539e-06 1.2661e-10 -6.04382e-11 2.28226e-10 5e-05 1.46608e-10 
127 1 0.0534031 0.0164118 0.00778948 0.00617387 0.000290753 0.00044974 4.364e-10 -1.96691e-10 5.76698e-11 5e-05 1.46608e-10 
128 1 0.0597342 0.0178169 0.00717392 0.00550545 0.000142863 -6.19069e-05 6.10973e-11 2.74277e-10 -3.17839e-11 5e-05 1.46608e-10 
129 1 0.0598142 0.0182088 0.00716532 0.00551072 0.000228254 -6.49386e-05 5.77271e-11 1.39988e-10 -1.68663e-11 5e-05 1.46608e-10 
130 1 0.0536883 0.0172031 0.00736992 0.00558095 -0.000432004 -0.000116863 7.85912e-11 -1.78947e-10 6.72206e-11 5e-05 1.46608e-10 
131 1 0.0536058 0.0167382 0.0076586 0.00604358 -0.000497734 -0.00013359 2.29304e-10 2.95207e-11 6.154e-11 5e-05 1.46608e-10 
132 1 0.0598352 0.0178562 0.00717204 0.00554997 0.000180462 -6.48611e-05 -2.83336e-10 -1.43851e-10 2.77557e-11 5e-05 1.46608e-10 
133 1 0.0595862 0.0165335 0.00794056 0.00594152 6.64869e-05 2.83064e-05 9.93536e-11 -8.67054e-11 1.09635e-10 5e-05 1.46608e-10 
134 1 0.059756 0.0170877 0.00738722 0.00613078 8.56984e-05 -0.000117263 1.16653e-12 -1.70102e-10 -2.36038e-10 5e-05 1.46608e-10 
135 1 0.0593835 0.0161648 0.0083086 0.00579407 0.000153358 -5.94625e-05 1.59731e-10 -6.60104e-11 7.90494e-11 5e-05 1.46608e-10 
136 1 0.0533958 0.0160956 0.00811623 0.00587583 0.000378195 0.000723484 -2.04292e-10 2.68561e-10 -5.45136e-11 5e-05 1.46608e-10 
137 1 0.0599194 0.0186975 0.00715452 0.00568145 0.000203799 -6.58955e-05 1.20847e-10 1.32946e-10 8.06013e-12 5e-05 1.46608e-10 
138 1 0.059532 0.0166481 0.00782425 0.00598202 7.7105e-05 2.05407e-05 1.8409e-10 -4.74191e-12 1.85861e-11 5e-05 1.46608e-10 
140 1 0.0600645 0.0180453 0.0071658 0.00558319 0.000340962 -6.80997e-05 -2.33404e-11 8.66894e-11 -3.49807e-12 5e-05 1.46608e-10 
141 1 0.0534285 0.0162125 0.00795733 0.00590059 0.000364096 0.000683716 -1.94262e-10 -2.98749e-10 -1.93304e-10 5e-05 1.46608e-10 
142 1 0.0537846 0.0172324 0.00735377 0.00567385 -0.000367888 -0.000163873 1.05881e-10 -3.00051e-11 -1.47724e-12 5e-05 1.46608e-10 
143 1 0.0533614 0.0162837 0.00793695 0.00600021 0.000143411 0.000191017 -1.06927e-09 1.05641e-09 1.24017e-09 5e-05 1.46608e-10 
144 1 0.0537465 0.0170518 0.00743087 0.00597158 -0.000420931 -0.000144619 1.29772e-10 -3.73055e-12 4.41725e-12 5e-05 1.46608e-10 
146 1 0.0536578 0.0166939 0.00758562 0.00608757 -0.000466189 -0.000127954 5.51277e-11 3.54436e-11 -1.05614e-11 5e-05 1.46608e-10 
147 1 0.0533715 0.0160373 0.00819376 0.00578534 0.000378573 0.000702067 4.70891e-11 -1.26351e-10 -1.28923e-10 5e-05 1.46608e-10 
148 1 0.0536544 0.0174457 0.00726973 0.00564994 -0.000458349 -0.000109816 -3.54627e-10 5.3058e-12 9.90572e-12 5e-05 1.46608e-10 
149 1 0.0599583 0.0184433 0.00715911 0.0056254 0.000221036 -6.60385e-05 1.24915e-10 -1.16108e-10 2.61993e-12 5e-05 1.46608e-10 
150 1 0.0535623 0.0166677 0.00760172 0.00608645 -0.000459301 -0.000133399 3.01672e-11 -4.88821e-11 6.11233e-11 5e-05 1.46608e-10 
151 1 0.0539766 0.0172887 0.00731853 0.00567779 -0.000263152 -0.000192933 4.31656e-11 -2.72236e-11 1.14635e-11 5e-05 1.46608e-10 
153 1 0.0534931 0.0164 0.00771799 0.00601042 -0.000488952 -0.000109942 1.01387e-09 -4.80597e-10 -1.22389e-10 5e-05 1.46608e-10 
154 1 0.0537491 0.0174733 0.00725308 0.00566079 -0.00047382 -0.000103512 -5.31864e-11 -3.07216e-11 1.70778e-11 5e-05 1.46608e-10 
155 1 0.053827 0.0178339 0.00709731 0.00528861 -0.000343996 -0.000196691 1.58949e-10 -1.14927e-10 -1.03717e-10 5e-05 1.46608e-10 
156 1 0.0537292 0.0173833 0.00729199 0.00563592 -0.000487542 -9.63334e-05 -3.67484e-10 1.60165e-10 -4.78087e-11 5e-05 1.46608e-10 
157 1 0.0219312 0.0187687 0.00551176 -3.82777e-14 8.16915e-14 2.95888e-13 -1.2301e-21 -7.56043e-22 4.40474e-23 5e-05 1.46608e-10 
158 1 0.0538446 0.017502 0.00723686 0.00554024 -0.000341378 -0.000153044 1.23591e-11 -1.94172e-11 1.14752e-11 5e-05 1.46608e-10 
159 1 0.0598905 0.0176923 0.00717467 0.00564413 0.000254421 -6.78078e-05 -2.64482e-10 -4.95788e-11 -1.73717e-11 5e-05 1.46608e-10 
160 1 0.0537325 0.0178059 0.00711416 0.00539563 -0.000409204 -0.000116487 1.15856e-10 2.48099e-11 -2.08838e-11 5e-05 1.46608e-10 
162 1 0.0537693 0.0175637 0.00721401 0.00549623 -0.00038219 -0.000133251 1.87165e-11 2.72097e-11 -1.06133e-11 5e-05 1.46608e-10 
164 1 0.053983 0.0181507 0.00703754 0.00551245 -0.000225829 0.000502896 2.09496e-10 -1.88431e-11 -3.69322e-11 5e-05 1.46608e-10 
165 1 0.0540545 0.0176496 0.00716263 0.00542067 -0.00021294 -0.000199957 -1.0829e-10 1.27879e-10 -4.48124e-11 5e-05 1.46608e-10 
166 1 0.0595438 0.0163954 0.00807892 0.00588132 7.28165e-05 2.19669e-05 -1.27128e-10 -8.85942e-11 8.43389e-11 5e-05 1.46608e-10 
167 1 0.0535406 0.0165781 0.00764055 0.0060916 -0.000409226 -0.000159851 1.02578e-10 -1.26144e-10 1.98739e-10 5e-05 1.46608e-10 
168 1 0.0539208 0.0174407 0.00725761 0.00559315 -0.000291735 -0.000176316 -1.49031e-11 -8.08699e-11 3.52325e-11 5e-05 1.46608e-10 
169 1 0.0541111 0.0179229 0.00704473 0.00535501 -0.000434618 -0.000121811 -9.13081e-11 -5.56335e-11 -2.92658e-10 5e-05 1.46608e-10 
170 1 0.05396 0.0176215 0.00717948 0.00543572 -0.00024343 -0.000187919 3.89264e-11 3.72735e-11 -3.3187e-11 5e-05 1.46608e-10 
171 1 0.059565 0.0164645 0.00800974 0.00590658 6.87274e-05 2.69025e-05 1.40179e-11 -8.34068e-11 9.05565e-11 5e-05 1.46608e-10 
172 1 0.0540201 0.0174739 0.00723833 0.00556647 -0.000226456 -0.000202327 7.48193e-11 -1.16901e-10 4.77036e-11 5e-05 1.46608e-10 
173 1 0.0600145 0.0173885 0.0071793 0.00579706 0.000379765 -7.36932e-05 -8.52765e-11 1.60063e-11 -2.92445e-11 5e-05 1.46608e-10 
174 1 0.0538831 0.0176818 0.00715824 0.00540009 -0.000300466 -0.000163522 -1.31456e-11 -3.73112e-11 -4.51313e-13 5e-05 1.46608e-10 
175 1 0.047578 0.0171107 0.00741942 0.00590263 0.000978327 -0.000855248 -1.01918e-11 4.7605e-11 -1.08838e-11 5e-05 1.46608e-10 
176 1 0.0537086 0.0172934 0.00733086 0.00558474 -0.000481568 -9.04585e-05 -5.89568e-11 -1.17994e-10 7.38138e-11 5e-05 1.46608e-10 
177 1 0.0537701 0.0179862 0.00703632 0.005446 -0.000398426 -0.00012354 -3.02886e-12 -5.33389e-11 1.91731e-11 5e-05 1.46608e-10 
178 1 0.054149 0.0176776 0.00714581 0.00540343 -0.000175716 -0.00021498 8.108e-11 -3.89698e-10 1.57315e-10 5e-05 1.46608e-10 
179 1 0.0540942 0.0178323 0.00708369 0.00521344 -0.000409338 -0.000106772 -8.53998e-11 1.06647e-10 -1.03859e-10 5e-05 1.46608e-10 
181 1 0.053694 0.0176257 0.00719196 0.00545744 -0.00041693 -0.000116353 -7.12012e-12 2.75184e-11 -8.64773e-12 5e-05 1.46608e-10 
182 1 0.0595107 0.0165791 0.00789341 0.00595831 8.17301e-05 1.48473e-05 1.29022e-10 -1.22461e-11 -1.01915e-12 5e-05 1.46608e-10 
183 1 0.0539402 0.0175308 0.00721868 0.00552042 -0.000281197 -0.000177263 1.17624e-10 2.48251e-12 -9.61341e-12 5e-05 1.46608e-10 
184 1 0.0598572 0.0177308 0.00726073 0.0056249 0.000241993 -7.09858e-05 -9.72892e-11 -7.1891e-11 -7.668e-12 5e-05 1.46608e-10 
185 1 0.0536338 0.0173559 0.00730858 0.00561835 -0.000451282 -0.000110857 -7.22855e-11 -6.44264e-11 1.11165e-11 5e-05 1.46608e-10 
186 1 0.0536742 0.0175357 0.00723084 0.0056738 -0.00046074 -0.000109645 -5.35499e-11 -4.45248e-11 1.81221e-11 5e-05 1.46608e-10 
187 1 0.0598251 0.0169881 0.0074866 0.00621182 0.000175678 -7.66362e-05 -1.43857e-10 6.83186e-11 -7.89719e-11 5e-05 1.46608e-10 
188 1 0.0599171 0.0182476 0.00716342 0.0055347 0.000224869 -6.55779e-05 3.12777e-11 4.96433e-12 -1.33141e-11 5e-05 1.46608e-10 
189 1 0.0598644 0.0171266 0.00734779 0.00604729 0.000201578 -0.000106759 1.81763e-10 7.72373e-11 -7.27057e-11 5e-05 1.46608e-10 
190 1 0.0476879 0.0171606 0.0073962 0.00590247 0.000970335 -0.000853331 4.13938e-12 1.93957e-11 -4.16652e-12 5e-05 1.46608e-10 
191 1 0.0599405 0.0187952 0.00715236 0.00569781 0.000199689 -6.70925e-05 1.39749e-10 7.67308e-12 -1.91723e-11 5e-05 1.46608e-10 
192 1 0.0538602 0.0171703 0.00737452 0.00575063 -0.000325667 -0.00017087 -1.37393e-10 -1.77088e-10 7.93549e-11 5e-05 1.46608e-10 
193 1 0.059649 0.0167407 0.00773292 0.00603394 5.23442e-05 4.57215e-05 -2.54303e-10 1.43837e-10 -1.32321e-10 5e-05 1.46608e-10 
194 1 0.0536057 0.0168477 0.00752376 0.00606314 -0.000472567 -0.000126162 -2.75319e-11 -1.7576e-10 7.29868e-11 5e-05 1.46608e-10 
195 1 0.0540746 0.0177405 0.00712332 0.00533883 -0.00026271 -0.000176029 2.44487e-10 -7.26737e-11 8.09275e-12 5e-05 1.46608e-10 
196 1 0.0531751 0.0157178 0.00860521 0.00572407 0.000322085 0.000766966 9.95234e-11 3.61354e-10 -5.38052e-10 5e-05 1.46608e-10 
197 1 0.0476397 0.0173953 0.00734723 0.00591041 0.000978882 -0.00085605 1.8196e-11 1.63905e-11 -6.06828e-12 5e-05 1.46608e-10 
198 1 0.0535499 0.0170063 0.00752309 0.00580485 -0.000424054 -0.000150038 -2.65767e-10 1.77012e-10 9.72811e-11 5e-05 1.46608e-10 
199 1 0.0537886 0.0176537 0.00717511 0.00543988 -0.000371312 -0.000134971 3.64504e-11 2.03601e-11 -1.26043e-11 5e-05 1.46608e-10 
200 1 0.0536096 0.0170307 0.00744661 0.00574961 -0.000356212 -0.00016316 -1.36754e-10 5.01979e-11 -3.50617e-12 5e-05 1.46608e-10 
201 1 0.0540766 0.0181801 0.00701841 0.00552497 -0.000252368 0.000502565 2.4335e-10 -6.76955e-11 6.28028e-12 5e-05 1.46608e-10 
202 1 0.053881 0.01726 0.00733567 0.00569043 -0.000315689 -0.000172179 -1.02835e-10 -1.3029e-10 6.14317e-11 5e-05 1.46608e-10 
203 1 0.0599201 0.0173629 0.00720017 0.00583118 0.000278281 -7.16922e-05 -1.49699e-11 1.48965e-11 -5.49272e-11 5e-05 1.46608e-10 
204 1 0.0536255 0.016939 0.00748429 0.00607426 -0.000469785 -0.000130063 9.83677e-11 -4.63705e-11 8.73754e-12 5e-05 1.46608e-10 
205 1 0.0539405 0.0179559 0.00705169 0.00536828 -0.000228658 1.09433e-05 7.11406e-11 -9.80903e-11 -2.21837e-10 5e-05 1.46608e-10 
206 1 0.0539023 0.0177719 0.00711934 0.0053369 -0.000284263 -0.000170582 6.25217e-12 -4.6043e-11 2.13725e-12 5e-05 1.46608e-10 
207 1 0.053459 0.0163293 0.00779797 0.00608991 0.000346328 0.000722754 -6.19438e-10 -5.85606e-10 8.99634e-11 5e-05 1.46608e-10 
208 1 0.0538639 0.0175917 0.00719715 0.0054767 -0.000324063 -0.000156409 2.76899e-11 -1.86882e-11 8.85022e-12 5e-05 1.46608e-10 
209 1 0.0535839 0.0167573 0.00756291 0.00609432 -0.000458094 -0.000134292 9.64446e-11 -7.03578e-12 2.34381e-11 5e-05 1.46608e-10 
210 1 0.0596758 0.0173726 0.00726388 0.00586267 9.2401e-05 -3.68804e-05 2.55489e-10 -5.87714e-11 9.59118e-11 5e-05 1.46608e-10 
211 1 0.0599502 0.0179862 0.00716822 0.0055945 0.000269975 -6.69444e-05 3.47913e-10 9.40628e-11 -7.02677e-12 5e-05 1.46608e-10 
212 1 0.0539794 0.0177118 0.00714049 0.00532228 -0.000296819 -0.000159786 -2.97765e-10 -1.95298e-10 9.99136e-11 5e-05 1.46608e-10 
213 1 0.0598044 0.016919 0.00755585 0.00624673 0.000169575 -7.02244e-05 -8.41022e-11 1.15569e-10 -1.19387e-10 5e-05 1.46608e-10 
214 1 0.059875 0.0180521 0.00716774 0.00553401 0.000206662 -6.47357e-05 8.62007e-11 -6.39799e-11 4.34606e-12 5e-05 1.46608e-10 
215 1 0.0476316 0.0169492 0.00745096 0.0059046 0.000981608 -0.000856275 3.248e-11 4.06458e-11 -1.48002e-11 5e-05 1.46608e-10 
216 1 0.0537514 0.017896 0.00707525 0.00540675 -0.00041463 -0.000115209 7.78511e-11 7.93226e-11 -1.18217e-11 5e-05 1.46608e-10 
217 1 0.0596075 0.0166025 0.0078714 0.00596756 6.2307e-05 3.3269e-05 2.25717e-10 -4.91692e-11 4.76962e-11 5e-05 1.46608e-10 
218 1 0.0538647 0.0180143 0.00701947 0.00535992 -0.000335961 -0.000144392 1.61714e-11 1.14122e-11 3.43469e-11 5e-05 1.46608e-10 
219 1 0.0598773 0.018502 0.00715884 0.00560537 0.000198264 -6.55195e-05 1.10537e-10 4.69855e-11 -4.41127e-12 5e-05 1.46608e-10 
220 1 0.0537133 0.0177158 0.00715306 0.00540671 -0.000408331 -0.000117434 5.45812e-11 2.64472e-11 -1.39302e-11 5e-05 1.46608e-10 
221 1 0.0475484 0.0166073 0.00763711 0.00645661 0.00107646 -0.000374654 -3.92101e-11 -3.1963e-11 -1.2054e-11 5e-05 1.46608e-10 
222 1 0.0596285 0.0166716 0.0078022 0.00598775 5.62509e-05 4.00087e-05 7.2739e-11 7.60823e-11 -8.87079e-11 5e-05 1.46608e-10 
223 1 0.0538054 0.0173217 0.00731382 0.00564493 -0.000360076 -0.000151803 -4.67157e-11 -2.68327e-11 1.68853e-11 5e-05 1.46608e-10 
224 1 0.0536139 0.017266 0.00734746 0.00558712 -0.000441338 -0.000112714 1.2422e-10 -6.07596e-11 1.89568e-11 5e-05 1.46608e-10 
225 1 0.0600976 0.0177835 0.0071706 0.00570155 0.000321399 -6.87498e-05 1.62364e-10 9.2772e-11 -7.33333e-12 5e-05 1.46608e-10 
226 1 0.0539976 0.0173803 0.0072789 0.00566026 -0.000224142 -0.000208597 2.11413e-11 -8.05281e-11 3.27076e-11 5e-05 1.46608e-10 
227 1 0.0477052 0.0168819 0.00745863 0.00592486 0.0010074 -0.000863887 6.74427e-11 4.38789e-11 -1.04344e-11 5e-05 1.46608e-10 
228 1 0.0475986 0.0172056 0.00739536 0.00590509 0.000977204 -0.000855137 1.58384e-11 5.88165e-11 -1.43938e-11 5e-05 1.46608e-10 
229 1 0.0536561 0.0173367 0.00740415 0.00558301 -0.00043303 -0.000106714 -2.05562e-10 7.67501e-11 -5.13172e-11 5e-05 1.46608e-10 
230 1 0.0540211 0.0183439 0.00701798 0.00549388 -0.000231834 0.000499454 -8.52127e-11 7.8776e-11 -1.64842e-11 5e-05 1.46608e-10 
231 1 0.0475574 0.0170159 0.00744349 0.00590164 0.000977898 -0.000855188 5.57072e-12 1.88722e-11 -2.47506e-12 5e-05 1.46608e-10 
232 1 0.0536144 0.0165146 0.0076633 0.00610447 -0.000380719 -0.000166367 -4.50887e-11 -3.47631e-10 1.34868e-10 5e-05 1.46608e-10 
233 1 0.0537013 0.016873 0.007508 0.00610012 -0.000459969 -0.00013437 5.46867e-11 -2.65891e-11 -6.52753e-12 5e-05 1.46608e-10 
234 1 0.060033 0.018375 0.00715964 0.00563655 0.000151845 -6.4759e-05 -8.56361e-12 -5.51796e-11 3.58097e-12 5e-05 1.46608e-10 
235 1 0.0540598 0.0185399 0.00702719 0.00547226 -0.00023374 0.000499173 -1.24482e-11 4.7211e-11 -1.33477e-12 5e-05 1.46608e-10 
236 1 0.0540406 0.0184419 0.0070226 0.00548824 -0.000233863 0.000500321 -9.99124e-11 6.69672e-11 -6.32363e-12 5e-05 1.46608e-10 
237 1 0.0541348 0.018474 0.00703223 0.00548414 -0.000225618 0.000500519 -5.17289e-11 1.30291e-11 -1.01879e-12 5e-05 1.46608e-10 
239 1 0.0473669 0.0163038 0.00792881 0.00636623 0.00109586 -0.000406674 2.94631e-10 -6.33871e-11 1.57482e-10 5e-05 1.46608e-10 
240 1 0.047431 0.0165116 0.0077222 0.00645312 0.00109425 -0.000392981 2.52272e-10 -3.42881e-11 5.60915e-11 5e-05 1.46608e-10 
241 1 0.0473455 0.0162345 0.00799769 0.00633962 0.00110592 -0.00041572 -1.82451e-10 -9.4294e-11 7.89178e-11 5e-05 1.46608e-10 
242 1 0.0538221 0.01699 0.00745234 0.00599653 -0.00037539 -0.000163132 -6.87244e-11 -2.0164e-10 9.54574e-11 5e-05 1.46608e-10 
243 1 0.0536485 0.0169188 0.0075795 0.00605753 -0.000493862 -0.000138365 1.09138e-10 -8.53058e-11 4.96434e-11 5e-05 1.46608e-10 
244 1 0.0473882 0.0163731 0.00785993 0.00637262 0.00109284 -0.000405644 4.47692e-11 -1.85825e-10 1.58213e-10 5e-05 1.46608e-10 
246 1 0.0475165 0.0168274 0.00749632 0.00593941 0.00097873 -0.0008257 8.60726e-11 -5.1378e-11 -4.23016e-11 5e-05 1.46608e-10 