ITEM: TIMESTEP
7800000
ITEM: NUMBER OF ATOMS
287
ITEM: BOX BOUNDS ff ff ff
-0.02 0.43
-0.02 0.06
-0.02 0.07
ITEM: ATOMS id type x y z vx vy vz fx fy fz radius mass 
1 1 0.0583205 0.016476 0.00797802 0.0065256 -1.68757e-05 0.000121573 7.81509e-11 -1.8043e-10 1.72246e-10 5e-05 1.46608e-10 
2 1 0.0587129 0.0172319 0.00722314 0.00568804 0.000157434 -5.87417e-05 1.51078e-10 1.31376e-10 -1.20341e-10 5e-05 1.46608e-10 
3 1 0.0521441 0.0160105 0.00802925 0.00566287 -0.00014011 0.000296346 -6.12425e-10 -1.69616e-10 -2.42913e-10 5e-05 1.46608e-10 
4 1 0.0586317 0.0177262 0.00718779 0.00603334 6.03337e-05 -6.58932e-05 5.11979e-11 4.29808e-11 1.2544e-11 5e-05 1.46608e-10 
5 1 0.0582008 0.0163847 0.00806798 0.00616069 -6.66021e-05 0.000166786 -4.30593e-10 -1.41285e-10 1.37161e-10 5e-05 1.46608e-10 
6 1 0.0643289 0.0168192 0.00762904 0.00553884 0.000498159 -0.000226265 2.0876e-11 -1.46932e-11 9.01487e-12 5e-05 1.46608e-10 
7 1 0.0583776 0.0170078 0.00744342 0.00558685 0.000155086 -6.35353e-05 9.65947e-11 6.9309e-11 -1.53371e-11 5e-05 1.46608e-10 
8 1 0.0580921 0.01604 0.00841342 0.00576321 -7.9855e-05 0.000173272 -9.79085e-11 -1.15522e-10 1.16253e-10 5e-05 1.46608e-10 
9 1 0.0645797 0.0179041 0.00706177 0.00622916 0.000376621 -0.000209237 -1.07295e-10 -7.83652e-11 1.27256e-10 5e-05 1.46608e-10 
10 1 0.0583223 0.0167994 0.00765239 0.00547633 0.000166239 -7.6374e-05 -1.95914e-10 2.02642e-10 -5.6615e-10 5e-05 1.46608e-10 
11 1 0.0587774 0.0175218 0.00719022 0.00598701 9.12411e-05 -6.43125e-05 -5.85364e-11 5.46105e-12 -3.46116e-11 5e-05 1.46608e-10 
12 1 0.0523203 0.0167796 0.00762113 0.00547027 -0.000151729 -0.000229739 -5.483e-11 -6.73576e-11 2.94549e-11 5e-05 1.46608e-10 
13 1 0.0581786 0.0163158 0.00813699 0.00591593 -2.68535e-05 0.000122335 -3.98654e-10 -9.95573e-11 7.7464e-11 5e-05 1.46608e-10 
14 1 0.0520684 0.0157873 0.00835203 0.00569974 4.60326e-05 0.000416449 -4.52553e-10 1.70832e-10 -3.82455e-10 5e-05 1.46608e-10 
15 1 0.0585124 0.0171688 0.0072834 0.00571409 0.00014749 -5.01373e-05 5.87906e-11 -4.60072e-11 2.5912e-11 5e-05 1.46608e-10 
16 1 0.0520473 0.015734 0.00843396 0.00602427 2.31292e-05 0.000478992 1.76635e-11 2.05784e-10 -3.41358e-10 5e-05 1.46608e-10 
17 1 0.0583046 0.0167351 0.00772695 0.00546979 -0.000121991 -0.000318493 -2.16004e-10 1.69131e-10 -9.24267e-10 5e-05 1.46608e-10 
18 1 0.0644632 0.0173731 0.0072227 0.00569407 0.000476504 -0.000206487 2.23783e-12 4.4248e-11 -2.94358e-11 5e-05 1.46608e-10 
19 1 0.0581569 0.0162469 0.00820608 0.00578857 -1.97557e-05 0.00011361 -2.77339e-10 4.71387e-12 8.14376e-12 5e-05 1.46608e-10 
21 1 0.0582974 0.0164068 0.00804734 0.00638301 -0.000102456 0.000206497 -3.4287e-10 -4.64755e-11 5.18453e-11 5e-05 1.46608e-10 
22 1 0.058421 0.0171636 0.0073301 0.00571906 0.00014914 -5.24511e-05 1.41382e-10 -1.83237e-11 8.41037e-11 5e-05 1.46608e-10 
23 1 0.0524893 0.0171577 0.00745314 0.00578688 -0.000247559 -0.000199501 -4.26818e-11 2.34128e-10 -1.79069e-10 5e-05 1.46608e-10 
24 1 0.0645206 0.0176103 0.00704871 0.00578623 0.000459772 -0.000193257 -1.37046e-11 -1.16175e-10 2.24695e-10 5e-05 1.46608e-10 
25 1 0.0583591 0.0169384 0.00751301 0.00554244 0.000154149 -6.33274e-05 -5.00251e-11 9.40701e-11 -6.18744e-11 5e-05 1.46608e-10 
26 1 0.0644056 0.0171357 0.00739684 0.00563986 0.000473053 -0.000207899 1.8934e-10 -6.40892e-11 1.40296e-10 5e-05 1.46608e-10 
27 1 0.0524063 0.017171 0.00751013 0.00568186 -0.000132979 -0.000175206 -9.87504e-11 -2.27429e-11 4.47836e-10 5e-05 1.46608e-10 
28 1 0.0586103 0.0176286 0.00718995 0.00590144 8.67049e-05 -6.598e-05 3.01104e-10 -6.24143e-12 -1.14692e-11 5e-05 1.46608e-10 
29 1 0.0581353 0.0161779 0.00827519 0.00576073 -3.60092e-05 0.00012943 7.97823e-11 -1.61231e-11 2.79194e-11 5e-05 1.46608e-10 
30 1 0.0586436 0.017367 0.00719474 0.00572959 0.000149847 -6.24287e-05 7.94172e-11 1.67553e-10 1.6134e-11 5e-05 1.46608e-10 
31 1 0.058396 0.0170772 0.00737382 0.00563876 0.000156203 -6.63079e-05 -8.34476e-12 -6.99348e-11 -7.74607e-11 5e-05 1.46608e-10 
32 1 0.0584942 0.0170994 0.00735302 0.00570733 0.000140493 -4.35751e-05 -3.57816e-12 -1.5223e-10 2.08746e-10 5e-05 1.46608e-10 
33 1 0.064348 0.0168983 0.00757099 0.00555756 0.000494522 -0.00022328 3.51485e-11 -2.70479e-11 1.70808e-13 5e-05 1.46608e-10 
34 1 0.0582864 0.0166608 0.00779136 0.00541571 0.000122986 -4.69731e-05 -4.25318e-10 3.99623e-10 -5.59411e-10 5e-05 1.46608e-10 
35 1 0.0584746 0.0170302 0.00742243 0.00566084 0.000136596 -4.70111e-05 -1.04758e-10 -1.57049e-10 2.41262e-10 5e-05 1.46608e-10 
36 1 0.0646227 0.0180992 0.00707036 0.00620701 0.000379846 -0.000212717 -2.04401e-11 3.81118e-11 5.37669e-12 5e-05 1.46608e-10 
37 1 0.0584356 0.0168916 0.00756131 0.00558401 0.000137163 -4.34686e-05 6.64876e-11 -6.0734e-11 8.53045e-11 5e-05 1.46608e-10 
38 1 0.0585888 0.017124 0.00732981 0.00571731 0.000148134 -5.33974e-05 3.53623e-10 1.12459e-10 -9.76232e-11 5e-05 1.46608e-10 
39 1 0.0645397 0.0177083 0.00705303 0.00591299 0.000445331 -0.000199929 -2.70952e-10 4.5962e-11 5.94187e-11 5e-05 1.46608e-10 
41 1 0.058246 0.0165224 0.00793011 0.00642932 -0.00011861 0.000219836 -9.16017e-11 -1.87881e-10 1.9642e-10 5e-05 1.46608e-10 
42 1 0.058431 0.017209 0.00724161 0.00571077 0.000147057 -5.74658e-05 1.3814e-11 -8.43324e-12 1.99114e-11 5e-05 1.46608e-10 
44 1 0.0586065 0.0171935 0.00726016 0.00570131 0.00015378 -6.16143e-05 2.92494e-11 4.66488e-11 -6.28548e-11 5e-05 1.46608e-10 
45 1 0.0643672 0.0169774 0.00751294 0.00559571 0.000495755 -0.000219803 -3.23343e-10 3.67168e-11 -5.50673e-11 5e-05 1.46608e-10 
46 1 0.0644439 0.017294 0.00728074 0.00570095 0.000477599 -0.000205805 8.35229e-11 3.78615e-11 6.71306e-12 5e-05 1.46608e-10 
47 1 0.0582683 0.0165912 0.00786113 0.00625359 -0.000103776 0.000197782 1.54839e-10 -2.09908e-10 2.57728e-10 5e-05 1.46608e-10 
48 1 0.0584689 0.0173953 0.0071961 0.00571013 0.000130115 -6.63962e-05 -8.71964e-11 1.38904e-10 -5.37894e-12 5e-05 1.46608e-10 
49 1 0.064425 0.0172148 0.00733882 0.00568103 0.000473471 -0.000205946 -2.14727e-10 -8.17487e-11 8.935e-11 5e-05 1.46608e-10 
50 1 0.0585294 0.0176876 0.00718968 0.00604076 5.31536e-05 -5.91297e-05 -8.61978e-11 1.41508e-10 9.64517e-11 5e-05 1.46608e-10 
51 1 0.0585085 0.0175899 0.00719183 0.00592949 8.2727e-05 -6.51484e-05 -6.13193e-11 2.34428e-10 5.85574e-12 5e-05 1.46608e-10 
52 1 0.0523006 0.0166896 0.00766002 0.00547317 -0.000158336 -0.000226643 2.89168e-11 -3.10092e-12 -1.75293e-11 5e-05 1.46608e-10 
53 1 0.0644876 0.0174514 0.00716543 0.00573567 0.000466367 -0.000200369 4.12601e-12 -7.36378e-12 3.12308e-11 5e-05 1.46608e-10 
54 1 0.0582748 0.016338 0.00811628 0.00613271 -7.35366e-05 0.000172988 -2.28255e-10 -1.80769e-11 2.16801e-11 5e-05 1.46608e-10 
55 1 0.0521057 0.0158943 0.00818725 0.00570854 3.25542e-05 0.000426256 -7.06702e-11 6.12156e-11 -1.88588e-10 5e-05 1.46608e-10 
56 1 0.0584545 0.016961 0.00749179 0.00560938 0.000138452 -4.64289e-05 8.09769e-11 -1.78441e-10 1.80904e-10 5e-05 1.46608e-10 
57 1 0.0643864 0.0170566 0.00745489 0.00562664 0.000484235 -0.000211375 2.3769e-10 1.15332e-10 -9.78326e-12 5e-05 1.46608e-10 
59 1 0.0585127 0.0168474 0.00760711 0.00563624 0.000183857 -9.51949e-05 1.18895e-10 -2.6329e-12 -1.56946e-11 5e-05 1.46608e-10 
60 1 0.0585315 0.0169192 0.00754006 0.00567464 0.000173951 -7.91204e-05 5.1075e-10 4.88894e-11 -2.32043e-11 5e-05 1.46608e-10 
61 1 0.0582233 0.0164536 0.00799904 0.00637685 -0.00010501 0.000208705 -3.03184e-10 -1.32102e-10 1.42752e-10 5e-05 1.46608e-10 
62 1 0.0586238 0.017269 0.00719689 0.00567732 0.000154045 -6.1738e-05 1.23251e-10 8.08798e-11 -4.8095e-12 5e-05 1.46608e-10 
63 1 0.0585676 0.0174332 0.00719427 0.00580962 0.000134576 -6.61505e-05 -3.87829e-11 -2.32612e-10 1.9378e-12 5e-05 1.46608e-10 
64 1 0.0645014 0.0175311 0.00710676 0.00577515 0.000462165 -0.000195993 3.44585e-10 -2.82189e-11 1.42496e-10 5e-05 1.46608e-10 
65 1 0.0523699 0.0169461 0.0076419 0.00549739 -0.000114257 -0.000249436 1.10294e-10 8.48145e-11 1.49466e-10 5e-05 1.46608e-10 
66 1 0.0524376 0.0166527 0.00775963 0.00537455 -0.000194673 -0.000238654 -1.81943e-11 -3.51296e-11 9.70509e-11 5e-05 1.46608e-10 
67 1 0.0587563 0.0174241 0.00719238 0.00587463 0.00011648 -6.91868e-05 -1.56742e-10 2.99554e-11 -4.82211e-11 5e-05 1.46608e-10 
68 1 0.0586854 0.0175625 0.00719043 0.00593101 0.000115533 -6.66593e-05 2.28518e-10 9.64389e-12 1.44783e-11 5e-05 1.46608e-10 
69 1 0.0583817 0.0166843 0.0077692 0.00589405 0.000106856 -9.14933e-06 -2.86567e-10 -2.54612e-10 2.66339e-10 5e-05 1.46608e-10 
70 1 0.0645599 0.0178062 0.00705739 0.006125 0.000405284 -0.000207616 1.02247e-10 1.72629e-11 4.37105e-11 5e-05 1.46608e-10 
71 1 0.0520886 0.015841 0.00827009 0.00572649 3.78996e-05 0.000426149 -2.35787e-10 1.37141e-10 -2.57963e-10 5e-05 1.46608e-10 
72 1 0.0586649 0.0174647 0.00719258 0.00587433 0.000122474 -6.63843e-05 5.5395e-11 1.74885e-10 -2.55519e-12 5e-05 1.46608e-10 
73 1 0.0583407 0.0168688 0.0075828 0.00553425 0.000185174 -8.75781e-05 -3.77967e-11 2.64715e-10 -2.50004e-10 5e-05 1.46608e-10 
74 1 0.0585301 0.0172383 0.0072137 0.00571427 0.000154055 -6.29204e-05 -1.16534e-10 7.2934e-12 -3.88708e-11 5e-05 1.46608e-10 
76 1 0.0526447 0.017794 0.0071773 0.00599462 -0.000358967 -0.00016948 1.34094e-10 -1.26825e-10 4.217e-11 5e-05 1.46608e-10 
77 1 0.0587621 0.0183117 0.00717481 0.00595875 8.51219e-05 -6.59661e-05 6.02056e-11 -2.65126e-11 -4.01717e-11 5e-05 1.46608e-10 
78 1 0.0521635 0.0160795 0.00795949 0.00567577 -8.96086e-05 0.000358772 -3.01929e-10 -2.69511e-10 -1.77498e-10 5e-05 1.46608e-10 
79 1 0.0523399 0.0168696 0.00758224 0.00546268 -0.000149053 -0.000234696 -2.8113e-11 -2.02127e-10 1.05664e-10 5e-05 1.46608e-10 
80 1 0.0585943 0.0179805 0.00718318 0.00601744 9.00231e-05 -6.76754e-05 -4.84979e-13 9.55471e-12 -4.0001e-12 5e-05 1.46608e-10 
81 1 0.0522954 0.0166902 0.00775988 0.00543843 -0.000146542 -0.000227318 3.53736e-11 2.19658e-10 1.19627e-11 5e-05 1.46608e-10 
82 1 0.052421 0.0172262 0.007428 0.00578166 -0.000235522 -0.00020581 8.20809e-11 1.46269e-10 -1.21265e-10 5e-05 1.46608e-10 
83 1 0.0524707 0.0166554 0.0076653 0.00543629 -0.000194618 -0.000210961 -1.02891e-10 -1.37508e-10 6.90672e-11 5e-05 1.46608e-10 
84 1 0.0646012 0.0180017 0.00706606 0.00622863 0.000378858 -0.000212733 -5.6107e-11 1.91278e-11 7.1844e-11 5e-05 1.46608e-10 
85 1 0.052256 0.0160899 0.00791783 0.00552485 -0.000456373 -0.000420327 -3.63158e-10 2.07299e-10 -7.69769e-11 5e-05 1.46608e-10 
86 1 0.0585892 0.0175308 0.00719211 0.00591818 9.29861e-05 -6.57768e-05 -4.55501e-10 -1.72848e-10 8.24694e-12 5e-05 1.46608e-10 
87 1 0.0584947 0.016778 0.00767675 0.00566867 0.000196933 -0.000103596 3.25465e-10 -8.22265e-11 1.1344e-10 5e-05 1.46608e-10 
88 1 0.0586592 0.0182734 0.00717669 0.00597106 5.95249e-05 -6.68187e-05 2.85397e-12 -3.10795e-11 -2.40299e-12 5e-05 1.46608e-10 
89 1 0.0586159 0.0180781 0.00718102 0.00600934 0.000106293 -6.79101e-05 1.42073e-11 2.76782e-12 -4.01862e-12 5e-05 1.46608e-10 
90 1 0.0587006 0.0171619 0.00729346 0.0057109 0.000144619 -5.47034e-05 2.37157e-10 1.84753e-10 -1.38281e-10 5e-05 1.46608e-10 
91 1 0.0523595 0.0169596 0.00754335 0.00545491 -0.000146726 -0.000235764 -4.50605e-11 -2.17504e-10 7.38644e-11 5e-05 1.46608e-10 
92 1 0.0587285 0.0177578 0.0071861 0.00604794 6.09391e-05 -6.72399e-05 -3.73566e-11 1.58999e-11 3.91638e-12 5e-05 1.46608e-10 
93 1 0.0587182 0.0181166 0.00717914 0.00600323 7.64156e-05 -6.88229e-05 -2.99681e-11 -5.37278e-11 -2.90206e-11 5e-05 1.46608e-10 
94 1 0.0587981 0.0180565 0.00717945 0.00600383 7.85991e-05 -6.6569e-05 6.74764e-11 4.6195e-11 2.36429e-11 5e-05 1.46608e-10 
95 1 0.0585726 0.0178828 0.00718534 0.00602684 7.09813e-05 -6.63393e-05 -2.03467e-11 7.05137e-11 1.71871e-11 5e-05 1.46608e-10 
96 1 0.0587501 0.0178554 0.00718394 0.00606312 6.03142e-05 -6.79041e-05 -2.55726e-11 -1.70282e-11 -4.68334e-12 5e-05 1.46608e-10 
97 1 0.0522616 0.0165087 0.00773626 0.00561873 0.00092853 9.13143e-05 5.99511e-11 1.11589e-10 -3.10558e-11 5e-05 1.46608e-10 
98 1 0.0586808 0.018371 0.00717453 0.00596034 6.2787e-05 -6.64164e-05 -2.88961e-12 -1.60544e-11 -2.78079e-12 5e-05 1.46608e-10 
99 1 0.0523637 0.0168529 0.00767794 0.00549224 -0.00015332 -0.000259445 4.15693e-11 9.07386e-11 1.36615e-10 5e-05 1.46608e-10 
100 1 0.058659 0.0170237 0.00743192 0.00571161 0.000140448 -4.82084e-05 3.60864e-10 9.62777e-11 -9.51274e-11 5e-05 1.46608e-10 
101 1 0.0523564 0.0165376 0.00772093 0.00543573 -0.0001535 -0.000226251 6.95752e-11 -7.40592e-11 1.72343e-11 5e-05 1.46608e-10 
102 1 0.0643568 0.0187248 0.00531097 4.20546e-15 1.05507e-14 8.29568e-14 2.44088e-21 -3.8164e-22 -8.4786e-23 5e-05 1.46608e-10 
103 1 0.24257 0.0191927 0.00520306 -4.75869e-22 -1.27651e-22 -5.81428e-22 0 0 0 5e-05 1.46608e-10 
104 1 0.0526574 0.0174633 0.00731616 0.00588878 -0.000327939 -0.000177656 4.8145e-11 5.87992e-11 -3.98807e-11 5e-05 1.46608e-10 
105 1 0.0522224 0.0163265 0.00780541 0.00559764 -1.74887e-05 0.000465445 -8.91715e-12 -1.97263e-10 1.11332e-10 5e-05 1.46608e-10 
106 1 0.0527339 0.0174025 0.00733715 0.00586429 -0.000358485 -0.000162857 5.9529e-11 6.21518e-11 -3.27179e-11 5e-05 1.46608e-10 
107 1 0.0521826 0.0161542 0.00789585 0.0056688 -4.98619e-05 0.000415042 7.58818e-11 -2.19317e-10 1.75337e-10 5e-05 1.46608e-10 
108 1 0.0584174 0.0168222 0.00763094 0.00556133 0.000165824 -2.84711e-05 1.10373e-10 4.95657e-11 1.51963e-10 5e-05 1.46608e-10 
109 1 0.0584875 0.017493 0.00720548 0.00571358 0.000125346 -7.16489e-05 -1.86304e-10 1.98843e-10 -3.45461e-11 5e-05 1.46608e-10 
110 1 0.0588415 0.0178148 0.00718374 0.00606492 6.23383e-05 -6.75871e-05 2.02811e-13 2.41195e-11 -3.3584e-12 5e-05 1.46608e-10 
111 1 0.0587241 0.0185662 0.0071702 0.00593456 6.85925e-05 -6.63644e-05 -1.0552e-11 -4.77612e-11 -4.62699e-12 5e-05 1.46608e-10 
112 1 0.0522811 0.0165995 0.00769892 0.0054352 -0.000161842 -0.000220418 8.88441e-12 -5.6915e-11 4.07714e-11 5e-05 1.46608e-10 
113 1 0.0530124 0.0177273 0.00718569 0.00653108 0.00416582 -0.00210059 -5.1826e-11 3.31177e-11 -1.18986e-11 5e-05 1.46608e-10 
114 1 0.0525947 0.0171939 0.00743226 0.00585419 -0.000319218 -0.000176473 -3.45969e-11 1.01818e-10 -6.99125e-11 5e-05 1.46608e-10 
115 1 0.0585487 0.0173351 0.00719644 0.00570028 0.000164861 -6.37569e-05 1.80386e-10 -1.70129e-10 -1.49175e-10 5e-05 1.46608e-10 
116 1 0.0584 0.0167618 0.00770872 0.00567636 0.000156768 -1.84492e-05 -2.14501e-10 -1.72633e-11 1.88619e-10 5e-05 1.46608e-10 
117 1 0.0582526 0.0162691 0.00818529 0.00585352 -4.79007e-05 0.000143118 -3.31493e-11 2.25637e-11 -2.09105e-11 5e-05 1.46608e-10 
118 1 0.0521247 0.0159494 0.00810597 0.00567463 -7.84209e-05 0.000342534 -2.51152e-10 -7.87718e-11 -3.03056e-10 5e-05 1.46608e-10 
119 1 0.0585505 0.0169941 0.00747664 0.00569491 0.00016627 -6.86136e-05 2.65138e-10 6.01073e-11 -1.05919e-10 5e-05 1.46608e-10 
120 1 0.0581137 0.0161089 0.00834431 0.00576132 -5.98091e-05 0.000153891 -1.42543e-11 -2.78557e-11 3.05535e-11 5e-05 1.46608e-10 
121 1 0.0580706 0.015971 0.00848253 0.00577749 -9.35612e-05 0.000187687 -5.66588e-12 -9.90246e-11 1.00713e-10 5e-05 1.46608e-10 
122 1 0.0588632 0.0179124 0.00718158 0.0060339 6.54356e-05 -6.69904e-05 9.08972e-11 1.58704e-11 1.3607e-11 5e-05 1.46608e-10 
123 1 0.0522971 0.0162667 0.00783522 0.00509015 0.000118356 0.000370342 -1.58925e-10 -2.02369e-12 -2.02788e-11 5e-05 1.46608e-10 
124 1 0.058675 0.0179214 0.00718346 0.00605605 5.96127e-05 -6.75655e-05 -7.7135e-11 -3.95781e-11 2.61717e-11 5e-05 1.46608e-10 
125 1 0.0582309 0.0162001 0.00825438 0.00576633 -3.75445e-05 0.000130993 1.43446e-10 5.06541e-11 -6.04942e-11 5e-05 1.46608e-10 
126 1 0.0584506 0.017297 0.00719824 0.00570957 0.000140647 -6.44449e-05 -1.96112e-11 5.67528e-11 -2.54936e-11 5e-05 1.46608e-10 
127 1 0.052242 0.0164215 0.00778105 0.00576701 -0.000841057 -0.00329204 1.83627e-12 -1.53638e-10 -5.57316e-10 5e-05 1.46608e-10 
128 1 0.058551 0.0177852 0.00718751 0.00603382 5.64453e-05 -6.17488e-05 4.3289e-11 1.37285e-10 2.28891e-11 5e-05 1.46608e-10 
129 1 0.0586376 0.0181758 0.00717885 0.00598594 5.65445e-05 -6.65815e-05 -1.70048e-11 -4.91102e-11 1.58016e-11 5e-05 1.46608e-10 
130 1 0.0525176 0.0172543 0.00741101 0.0057703 -0.000300255 -0.000185703 -3.05338e-11 -1.94944e-10 6.4918e-11 5e-05 1.46608e-10 
131 1 0.0524381 0.0167887 0.00769976 0.00542844 -0.000177189 -0.000204162 6.22252e-11 -9.49458e-11 -7.41211e-11 5e-05 1.46608e-10 
132 1 0.0586534 0.0178238 0.00718562 0.00604414 5.95958e-05 -6.65627e-05 -1.30169e-11 1.9257e-12 -5.30299e-13 5e-05 1.46608e-10 
133 1 0.0584198 0.0165005 0.00795496 0.00648238 0.000124348 -2.05213e-05 6.12764e-10 -7.31813e-11 8.20541e-11 5e-05 1.46608e-10 
134 1 0.0585704 0.0170627 0.00740664 0.00572001 0.000150223 -5.95195e-05 2.99111e-10 1.17479e-10 -1.25786e-10 5e-05 1.46608e-10 
135 1 0.0582093 0.0161311 0.00832349 0.00577203 -3.72403e-05 0.000130868 6.42779e-10 1.13896e-10 -1.05782e-10 5e-05 1.46608e-10 
136 1 0.0522405 0.0160252 0.00799322 0.00580304 8.15245e-05 0.000374278 -4.14955e-10 7.29469e-11 -2.3921e-10 5e-05 1.46608e-10 
137 1 0.0587457 0.0186638 0.00716804 0.00592351 7.15785e-05 -6.62364e-05 -1.82284e-11 -8.06305e-11 3.9696e-12 5e-05 1.46608e-10 
138 1 0.0583628 0.016615 0.00783873 0.00615264 7.90539e-05 1.86067e-05 1.82851e-10 -3.20255e-10 3.00726e-10 5e-05 1.46608e-10 
140 1 0.0588865 0.0180097 0.0071794 0.00600015 7.37794e-05 -6.74104e-05 7.09048e-11 1.56346e-11 -1.35568e-11 5e-05 1.46608e-10 
141 1 0.0522769 0.0161751 0.00786992 0.00567896 1.66669e-05 0.00045835 -1.3218e-11 -1.48244e-10 -2.06878e-10 5e-05 1.46608e-10 
142 1 0.0526156 0.0172842 0.00739472 0.00588599 -0.000329438 -0.00017667 1.47703e-10 1.12237e-10 -2.39723e-11 5e-05 1.46608e-10 
143 1 0.0522024 0.0162348 0.00784014 0.00562577 -1.86137e-05 0.00045879 2.44238e-11 -1.72901e-10 1.69489e-10 5e-05 1.46608e-10 
144 1 0.0525722 0.0171048 0.00747154 0.00576021 -0.000294277 -0.000181766 -2.03054e-10 1.47574e-10 -1.15286e-10 5e-05 1.46608e-10 
146 1 0.0524905 0.0167454 0.00762641 0.00540965 -0.00019452 -0.000207322 1.16294e-10 -6.45435e-11 -3.79966e-11 5e-05 1.46608e-10 
147 1 0.0522205 0.0159695 0.00807905 0.00578932 0.000103674 0.000338237 -3.34044e-10 3.06757e-10 -6.42396e-10 5e-05 1.46608e-10 
148 1 0.0524839 0.0174954 0.00731147 0.00586612 -0.000303813 -0.000184535 7.34272e-11 -4.27269e-11 -9.20289e-12 5e-05 1.46608e-10 
149 1 0.0587831 0.0184095 0.00717265 0.00595424 8.24696e-05 -6.59653e-05 3.91094e-11 -8.78634e-12 -7.35827e-12 5e-05 1.46608e-10 
150 1 0.0523956 0.0167176 0.00764315 0.00546995 -0.000157903 -0.000226716 4.88684e-12 -4.1675e-12 2.44093e-11 5e-05 1.46608e-10 
151 1 0.0528108 0.0173422 0.00735838 0.00582532 -0.000400758 -0.000143046 -6.90787e-12 2.85397e-11 -1.4354e-11 5e-05 1.46608e-10 
153 1 0.0523376 0.0164485 0.00776224 0.00550575 -0.000216363 -0.000233598 -2.10476e-10 5.98563e-11 1.80256e-10 5e-05 1.46608e-10 
154 1 0.0525809 0.0175239 0.00729427 0.00585614 -0.000356932 -0.000162919 -1.51052e-10 -4.76935e-11 2.54371e-11 5e-05 1.46608e-10 
155 1 0.0526643 0.0178841 0.00713841 0.00604047 -0.000382882 -0.00016219 6.36139e-11 -1.22661e-10 2.72216e-11 5e-05 1.46608e-10 
156 1 0.0525596 0.0174339 0.00733326 0.00586359 -0.000314319 -0.000180945 1.82313e-10 1.56301e-10 -9.43911e-11 5e-05 1.46608e-10 
157 1 0.0219312 0.0187687 0.00551176 -3.82839e-14 8.16941e-14 2.95887e-13 2.95562e-22 1.54579e-22 -1.613e-23 5e-05 1.46608e-10 
158 1 0.0526786 0.0175533 0.00727799 0.00592518 -0.000332402 -0.000178132 5.32518e-11 -1.32232e-13 -1.29116e-11 5e-05 1.46608e-10 
159 1 0.0587068 0.0176602 0.00718827 0.00603761 7.57449e-05 -6.63072e-05 5.61586e-11 2.61872e-11 1.41217e-11 5e-05 1.46608e-10 
160 1 0.0525677 0.0178543 0.0071561 0.00599061 -0.000359734 -0.000169411 3.32757e-11 -9.60778e-11 4.59115e-11 5e-05 1.46608e-10 
162 1 0.0526025 0.0176143 0.0072551 0.00589412 -0.000358268 -0.000164569 5.20307e-10 -7.11945e-11 4.40215e-12 5e-05 1.46608e-10 
164 1 0.0528238 0.0181812 0.00700497 0.00612027 -0.00038136 -0.000149922 -2.52375e-10 1.42911e-10 4.06851e-10 5e-05 1.46608e-10 
165 1 0.052884 0.0176249 0.00723561 0.00621695 6.16878e-05 -0.000358434 3.46675e-10 1.46956e-10 -7.53554e-11 5e-05 1.46608e-10 
166 1 0.0583746 0.0163627 0.00809299 0.00661958 0.000104046 1.85645e-06 -6.65924e-11 1.8634e-10 -1.90268e-10 5e-05 1.46608e-10 
167 1 0.052376 0.0166276 0.00768204 0.00546512 -0.000159667 -0.000224459 -1.75449e-12 -6.40964e-11 3.36621e-11 5e-05 1.46608e-10 
168 1 0.0527551 0.0174921 0.00729831 0.00589826 -0.000365778 -0.000161622 7.07011e-11 1.0539e-11 -8.78045e-12 5e-05 1.46608e-10 
169 1 0.0530201 0.0178998 0.00711276 0.00272434 0.00667503 -0.00295187 7.51299e-11 8.05146e-12 -6.92709e-12 5e-05 1.46608e-10 
170 1 0.0527972 0.0176721 0.00722041 0.0059645 -0.00035941 -0.00016817 3.68935e-10 8.66292e-11 -6.71274e-11 5e-05 1.46608e-10 
171 1 0.0583975 0.0164316 0.00802395 0.00666167 0.000120149 -1.35507e-05 3.32143e-10 2.02331e-11 -5.9561e-12 5e-05 1.46608e-10 
172 1 0.0528558 0.0175251 0.00727906 0.00587213 -0.000391302 -0.000149661 2.52054e-11 -7.24502e-11 2.66275e-11 5e-05 1.46608e-10 
173 1 0.0588283 0.0173546 0.00719296 0.00577515 2.31459e-06 -5.97175e-05 -1.6789e-10 -1.50177e-11 -1.30244e-11 5e-05 1.46608e-10 
174 1 0.0527203 0.0177328 0.00720038 0.00598971 -0.000343881 -0.00017617 1.73047e-10 -1.2048e-10 3.40054e-11 5e-05 1.46608e-10 
175 1 0.046354 0.0169462 0.00758793 0.00572373 8.41949e-05 -0.000629179 4.03322e-11 -1.84814e-11 -6.08424e-13 5e-05 1.46608e-10 
176 1 0.0525386 0.0173441 0.00737215 0.00577962 -0.000367295 -0.000166478 -1.22729e-10 -1.42558e-10 -7.15777e-12 5e-05 1.46608e-10 
177 1 0.0526102 0.0180361 0.0070774 0.00610666 -0.00018315 -0.000249586 1.29929e-11 5.12249e-11 -2.21773e-11 5e-05 1.46608e-10 
178 1 0.0529762 0.0175877 0.00724632 0.00664402 0.00101322 -0.000781248 1.17294e-10 -1.39544e-10 4.82133e-11 5e-05 1.46608e-10 
179 1 0.0529388 0.0178478 0.00713895 0.00610671 0.00224292 -0.00126942 -5.06895e-12 1.12285e-10 -4.45138e-11 5e-05 1.46608e-10 
181 1 0.0525258 0.0176748 0.00723378 0.00592634 -0.000328169 -0.00017914 5.59025e-11 -1.13771e-10 4.80583e-11 5e-05 1.46608e-10 
182 1 0.0583429 0.0165449 0.00790901 0.00638384 2.73617e-05 7.43309e-05 2.00787e-10 -3.10057e-10 3.06687e-10 5e-05 1.46608e-10 
183 1 0.052776 0.0175821 0.00725939 0.00592074 -0.000355031 -0.000167568 1.30366e-10 7.81448e-12 -5.47892e-12 5e-05 1.46608e-10 
184 1 0.0586722 0.0176971 0.00727449 0.0060081 5.4059e-05 -6.50688e-05 2.36328e-12 -2.12043e-11 3.41695e-11 5e-05 1.46608e-10 
185 1 0.0524629 0.0174056 0.00735031 0.00583631 -0.000295262 -0.000184744 6.7752e-11 5.15053e-11 -7.37287e-11 5e-05 1.46608e-10 
186 1 0.0525048 0.0175851 0.00727263 0.00589686 -0.00031146 -0.000184151 -1.90306e-10 -1.93059e-10 8.83526e-11 5e-05 1.46608e-10 
187 1 0.0586389 0.0169545 0.00750127 0.00569317 0.000140847 -4.91467e-05 8.00972e-11 7.65503e-11 -5.3e-11 5e-05 1.46608e-10 
188 1 0.0587408 0.018214 0.00717697 0.00597302 8.35522e-05 -6.70761e-05 -1.02588e-11 -4.41032e-11 3.7331e-11 5e-05 1.46608e-10 
189 1 0.0586781 0.017093 0.00736243 0.00571449 0.000142776 -5.13006e-05 3.11572e-10 1.65387e-10 -1.8609e-10 5e-05 1.46608e-10 
190 1 0.0464646 0.0169953 0.00756481 0.00573205 6.50276e-05 -0.00062693 -1.05434e-11 -2.07164e-12 7.25248e-12 5e-05 1.46608e-10 
191 1 0.0587674 0.0187614 0.00716588 0.00591123 7.54376e-05 -6.6241e-05 -2.42676e-11 -1.07167e-10 2.11716e-12 5e-05 1.46608e-10 
192 1 0.0526914 0.0172223 0.00741515 0.0058721 -0.00036113 -0.000162688 -3.40782e-11 -7.63316e-11 5.22719e-11 5e-05 1.46608e-10 
193 1 0.058476 0.0167086 0.00774631 0.00582937 0.000197217 -0.000100932 -1.04539e-10 -1.50389e-10 1.69575e-10 5e-05 1.46608e-10 
194 1 0.052435 0.0168983 0.00756693 0.00554164 -0.000193336 -0.000571524 1.75037e-10 -1.46599e-10 -1.19905e-09 5e-05 1.46608e-10 
195 1 0.0529125 0.0177299 0.00718995 0.0065109 0.0010613 -0.000794546 4.60748e-11 7.23028e-11 -3.252e-11 5e-05 1.46608e-10 
196 1 0.0520256 0.0156807 0.00851576 0.0060162 2.22856e-05 0.00047794 2.1128e-10 3.03407e-10 -4.30699e-10 5e-05 1.46608e-10 
197 1 0.0464189 0.01723 0.00751557 0.00575912 7.49258e-05 -0.000630835 7.45693e-11 2.91601e-11 -3.56516e-11 5e-05 1.46608e-10 
198 1 0.052379 0.0170549 0.00756636 0.00560435 -0.000182098 -0.000219662 -1.70714e-10 -5.23324e-10 6.65166e-10 5e-05 1.46608e-10 
199 1 0.0526235 0.0177041 0.00721626 0.00592026 -0.000365021 -0.000163302 7.15094e-11 3.39238e-11 -1.85713e-11 5e-05 1.46608e-10 
200 1 0.052438 0.0170785 0.00748914 0.00554459 -0.00015323 -0.000232956 5.10206e-11 -3.01709e-10 7.0447e-11 5e-05 1.46608e-10 
201 1 0.052922 0.0182112 0.0069871 0.00620756 -0.000421788 -0.000143996 -6.41573e-11 2.37034e-10 2.51886e-10 5e-05 1.46608e-10 
202 1 0.0527129 0.0173127 0.00737599 0.00583513 -0.000351119 -0.00016466 5.12956e-11 1.24694e-10 -6.13133e-11 5e-05 1.46608e-10 
203 1 0.0587341 0.0173293 0.00721489 0.00573565 0.00014784 -6.71319e-05 -2.26543e-11 5.57388e-11 -2.49494e-11 5e-05 1.46608e-10 
204 1 0.0524538 0.0169924 0.00753741 0.00553164 -0.00057629 -0.00100341 -1.31881e-10 1.24283e-10 4.99117e-10 5e-05 1.46608e-10 
205 1 0.0527817 0.0180018 0.00708264 0.00610476 -0.000367983 -0.000173096 2.4819e-10 -4.29287e-10 1.66775e-10 5e-05 1.46608e-10 
206 1 0.0527412 0.0178225 0.00716154 0.00602604 -0.000336431 -0.000180991 5.08301e-11 -1.81349e-10 6.64827e-11 5e-05 1.46608e-10 
207 1 0.0523171 0.0163581 0.00779981 0.00558266 -9.7348e-06 0.000302773 -9.24062e-11 2.54248e-11 1.8905e-10 5e-05 1.46608e-10 
208 1 0.0526993 0.0176426 0.00723805 0.00595962 -0.000335635 -0.000177058 1.13815e-10 -5.98326e-11 1.70276e-11 5e-05 1.46608e-10 
209 1 0.0524152 0.0168076 0.00760426 0.00545244 -0.000164966 -0.000220711 2.05934e-10 6.89537e-11 -5.94514e-11 5e-05 1.46608e-10 
210 1 0.058491 0.017342 0.00727782 0.00566586 0.000168646 -7.30671e-05 -9.37819e-11 -9.95897e-11 -1.74993e-10 5e-05 1.46608e-10 
211 1 0.0587718 0.0179531 0.00718178 0.00603219 6.10955e-05 -6.77725e-05 4.63545e-11 -4.27701e-11 -1.39181e-11 5e-05 1.46608e-10 
212 1 0.0528182 0.0177618 0.00718156 0.00598112 -0.000367906 -0.000165249 1.57973e-10 8.42294e-12 -6.12356e-12 5e-05 1.46608e-10 
213 1 0.0586204 0.0168851 0.00757085 0.0056666 0.000142527 -5.24568e-05 -1.68035e-10 2.62995e-11 -2.17933e-11 5e-05 1.46608e-10 
214 1 0.0586966 0.018019 0.0071813 0.00603837 6.66368e-05 -6.69573e-05 -2.1479e-11 -7.29918e-11 -1.07439e-11 5e-05 1.46608e-10 
215 1 0.0464085 0.0167851 0.00761926 0.00565282 7.56311e-05 -0.00062018 -5.30437e-11 3.51885e-11 8.46404e-12 5e-05 1.46608e-10 
216 1 0.0525892 0.0179463 0.00711626 0.0060578 -0.000238025 -0.000223948 1.60311e-11 5.67368e-11 -2.43574e-11 5e-05 1.46608e-10 
217 1 0.0584389 0.0165698 0.00788546 0.00610466 0.000176758 -7.91709e-05 -6.59663e-11 -8.77121e-11 9.449e-11 5e-05 1.46608e-10 
218 1 0.0527062 0.0180635 0.00706073 0.0061038 -0.000405257 -0.000155674 4.76803e-10 -1.18715e-10 5.52156e-11 5e-05 1.46608e-10 
219 1 0.0587025 0.0184686 0.00717237 0.00594709 6.73039e-05 -6.65206e-05 1.47746e-12 -2.54291e-11 9.03078e-12 5e-05 1.46608e-10 
220 1 0.0525467 0.0177645 0.00719494 0.00594947 -0.000345824 -0.000172892 1.18583e-10 -1.11698e-10 4.72178e-11 5e-05 1.46608e-10 
221 1 0.0463316 0.0164048 0.00771515 0.00561452 0.000144805 -0.000632425 1.44323e-11 -4.27048e-12 3.60372e-12 5e-05 1.46608e-10 
222 1 0.0584577 0.0166392 0.00781592 0.00599024 0.000189315 -9.1916e-05 2.41507e-11 -9.64462e-11 8.7285e-11 5e-05 1.46608e-10 
223 1 0.0526364 0.0173734 0.00735457 0.00586643 -0.000324798 -0.000177708 1.48637e-10 1.27354e-10 -7.67662e-11 5e-05 1.46608e-10 
224 1 0.0524419 0.0173159 0.00738915 0.00579361 -0.000276068 -0.000195417 2.27556e-11 1.48526e-10 -1.93761e-13 5e-05 1.46608e-10 
225 1 0.0589153 0.0177473 0.00718426 0.00604821 9.77991e-05 -6.81904e-05 -2.56752e-11 1.61972e-11 7.01142e-13 5e-05 1.46608e-10 
226 1 0.0528323 0.0174321 0.00731941 0.00585252 -0.000411722 -0.000139906 8.40866e-11 -4.38818e-11 1.69123e-11 5e-05 1.46608e-10 
227 1 0.0464831 0.0167189 0.00762656 0.00561323 2.87192e-05 -0.000605435 1.35079e-11 -4.96299e-12 -1.68818e-11 5e-05 1.46608e-10 
228 1 0.0463756 0.0170408 0.00756381 0.00573709 8.36093e-05 -0.000631121 -7.35296e-11 -5.93417e-11 3.99744e-11 5e-05 1.46608e-10 
229 1 0.0524856 0.0173862 0.00744574 0.00584111 -0.000338182 -0.000173468 -1.73739e-10 1.44028e-10 -6.90613e-11 5e-05 1.46608e-10 
230 1 0.0528638 0.0183633 0.00693273 0.00627455 -0.000258443 0.000324774 6.38407e-11 -5.81474e-10 -4.963e-10 5e-05 1.46608e-10 
231 1 0.046333 0.0168514 0.00761201 0.00553151 0.000130599 -0.000619368 2.59079e-12 -1.70063e-11 1.75137e-11 5e-05 1.46608e-10 
232 1 0.0524513 0.0165653 0.00770419 0.00547516 -0.000193778 -0.000210017 1.18926e-10 -3.5471e-10 9.03663e-11 5e-05 1.46608e-10 
233 1 0.0525294 0.0169254 0.00754863 0.00558218 -0.0002446 -0.000202111 -1.5308e-10 1.02177e-10 -4.07411e-11 5e-05 1.46608e-10 
234 1 0.0588572 0.0183424 0.00717316 0.00595584 8.37069e-05 -6.82873e-05 4.27332e-11 1.62088e-11 1.94813e-11 5e-05 1.46608e-10 
235 1 0.0529094 0.0185564 0.00692129 0.00618866 -0.00014898 0.000567483 3.66671e-10 2.6384e-10 -1.66155e-10 5e-05 1.46608e-10 
236 1 0.0528837 0.0184599 0.00691614 0.00626115 -0.000164762 0.000550405 1.71525e-11 1.6501e-10 2.10309e-11 5e-05 1.46608e-10 
237 1 0.0529809 0.0184867 0.0069259 0.00620512 -0.000123516 0.000571183 1.75889e-10 -6.31627e-11 -2.3282e-11 5e-05 1.46608e-10 
239 1 0.0461609 0.016095 0.00800658 0.00569452 0.000646154 -1.80757e-05 1.28265e-10 3.37159e-11 6.11564e-11 5e-05 1.46608e-10 
240 1 0.0462183 0.0163035 0.00779859 0.00580541 0.000640322 1.39823e-06 8.59932e-11 5.0881e-11 5.09997e-12 5e-05 1.46608e-10 
241 1 0.0461414 0.0160256 0.00807584 0.00591068 0.00063207 2.18743e-05 -4.19571e-11 2.33949e-12 -2.67331e-11 5e-05 1.46608e-10 
242 1 0.052648 0.0170432 0.00749278 0.00570284 -0.000345789 -0.000157328 -2.60109e-10 1.31e-10 2.80261e-11 5e-05 1.46608e-10 
243 1 0.0524829 0.0169634 0.00762858 0.00509995 8.32184e-05 -0.00066202 -5.62533e-12 -2.11725e-10 1.9089e-10 5e-05 1.46608e-10 
244 1 0.0461801 0.0161645 0.00793725 0.00571841 0.000638711 -1.07257e-05 8.7552e-11 -1.00973e-10 1.08677e-10 5e-05 1.46608e-10 
246 1 0.0462946 0.0166611 0.00766 0.00558212 0.00012036 -0.000623 8.56949e-12 -2.97663e-12 -7.71024e-12 5e-05 1.46608e-10 