# vtk DataFile Version 3.0
LIGGGHTS particles timestep 13000000
ASCII
DATASET POLYDATA
POINTS 150 float
0.0402226 0.0148662 0.0106009
0.0211082 0.0187961 0.015938
0.0368087 0.0232195 0.0103431
0.0380713 0.0210397 0.0151594
0.0243903 0.0224763 0.00897686
0.0200106 0.0149723 0.0148137
0.0323992 0.0195868 0.0157301
0.0201905 0.0209716 0.0155154
0.01857 0.0160264 0.0194794
0.0298285 0.0203628 0.00742062
0.0436302 0.0198568 0.00615339
0.0341603 0.0148453 0.0109215
0.0157217 0.0223611 0.0144721
0.0195528 0.0232378 0.0136199
0.0163182 0.0148355 0.0129305
0.0213008 0.0207477 0.0188636
0.035297 0.0179016 0.00731064
0.0428958 0.0189403 0.00715718
0.0126619 0.00210988 0.0435188
0.0165507 0.023815 0.0137218
0.0365128 0.0176198 0.00610098
0.0395407 0.015244 0.01345
0.0256702 0.0232303 0.0127538
0.0485793 0.0192087 0.00599463
0.0190658 0.0234495 0.011664
0.035872 0.0202198 0.00754579
0.0383973 0.0197843 0.0157167
0.0405444 0.0153387 0.00939285
0.0338899 0.0148179 0.0122758
0.020048 0.0242045 0.0131588
0.0275612 0.0153 0.0134981
0.0377166 0.0201079 0.00599747
0.0218456 0.0148158 0.0138943
0.0307477 0.0231329 0.0100393
0.0391873 0.016343 0.0147754
0.0156879 0.023388 0.0141573
0.0186537 0.0228394 0.00971246
0.0359974 0.0211695 0.00782564
0.0231499 0.017317 0.00753664
0.0186418 0.014378 0.0144672
0.0222168 0.0161532 0.0148906
0.0187398 0.0241128 0.0129107
0.0234147 0.0230106 0.0149448
0.0242007 0.019277 0.00587306
0.0227402 0.0150814 0.0135351
0.014993 0.0232006 0.0148584
0.0241575 0.0210843 0.00621584
0.0317962 0.0220431 0.0146314
0.0210515 0.0201039 0.0171246
0.0193595 0.0233713 0.0126429
0.0313141 0.0231973 0.0127356
0.0225455 0.014421 0.0144894
0.0234362 0.0184899 0.00725541
0.0210812 0.0234461 0.014322
0.0398576 0.0148937 0.0124004
0.0240979 0.0225056 0.0154721
0.0232669 0.0151109 0.0143845
0.0204909 0.0226608 0.0141053
0.0163192 0.0143339 0.0137956
0.0188849 0.0140097 0.0129543
0.0220325 0.0192339 0.00586691
0.0276346 0.0157396 0.0142523
0.0238322 0.0152396 0.0151993
0.0219926 0.0237616 0.0138047
0.0245191 0.0202247 0.00585487
0.0293821 0.0180819 0.00586114
0.0211892 0.0210222 0.0154973
0.0355016 0.0189228 0.00730996
0.036823 0.0194546 0.00591291
0.0212342 0.0163333 0.0150213
0.0171874 0.0149784 0.0138835
0.0259304 0.0221012 0.0143702
0.0175421 0.0238474 0.0139099
0.0417867 0.0187406 0.00580622
0.0382044 0.0204443 0.0155482
0.0210696 0.0232766 0.0153453
0.0335813 0.0151944 0.0134013
0.0212407 0.0171907 0.0156179
0.0411795 0.0174446 0.00751802
0.0213627 0.0139663 0.0141106
0.0168089 0.0218997 0.0159671
0.0573386 0.0176684 0.00590255
0.0179558 0.0227689 0.0160574
0.0176059 0.0240465 0.0129084
0.0208496 0.0140854 0.0132574
0.0228189 0.0234745 0.0142892
0.01767 0.0178865 0.0166602
0.0208676 0.0234589 0.0117913
0.0236944 0.0198293 0.00730435
0.0210923 0.0241549 0.0136155
0.0345214 0.0164112 0.0148618
0.00830357 0.0326771 0.0435188
0.0149641 0.0169603 0.0166164
0.0320732 0.0209755 0.0153155
0.0175837 0.014612 0.0119546
0.0365933 0.0210052 0.0435188
0.0199592 0.023489 0.0118559
0.0283374 0.0198408 0.00595162
0.0259606 0.020517 0.00594618
0.0221271 0.0231041 0.014909
0.0259672 0.0212034 0.0151647
0.0224427 0.022317 0.0156629
0.0190654 0.0232787 0.0107729
0.0211473 0.0237235 0.0127147
0.0304205 0.0195349 0.00577379
0.0370529 0.0233898 0.0114814
0.0210762 0.0147712 0.0146356
0.0213271 0.0230545 0.0134355
0.0173188 0.0147732 0.0129056
0.0304905 0.0205006 0.00602379
0.0663006 0.0194279 0.00574031
0.0284547 0.0176223 0.00593982
0.0247325 0.0218999 0.0159519
0.0290684 0.0170182 0.00767103
0.0251151 0.0172342 0.0164315
0.0141311 0.0223975 0.0144345
0.0212538 0.0151326 0.0155532
0.0367765 0.0204183 0.00617985
0.0389894 0.0203039 0.0156239
0.0188141 0.02147 0.00794036
0.0149462 0.0227437 0.0139702
0.0203009 0.0232582 0.0129611
0.0182789 0.0137833 0.0137169
0.0282864 0.0149191 0.0103499
0.0215368 0.0156423 0.0143648
0.0316292 0.0226427 0.0138227
0.0326764 0.018398 0.0157121
0.0288687 0.0155493 0.00903622
0.02162 0.0225511 0.014248
0.0391006 0.0190317 0.00571839
0.019885 0.0140071 0.0129834
0.0301246 0.0213349 0.00781116
0.0267951 0.0179288 0.0156199
0.0186252 0.0238043 0.0142047
0.034878 0.0177305 0.00834536
0.0224072 0.01707 0.0156903
0.0156507 0.015125 0.0136173
0.013576 0.0218151 0.0159833
0.0203231 0.0144224 0.014038
0.0218111 0.0148251 0.0128951
0.0304013 0.0224695 0.00880644
0.0220676 0.0202327 0.00590095
0.0225548 0.0152306 0.0150762
0.0310897 0.0233887 0.011218
0.0265595 0.0180887 0.00595892
0.0220979 0.0147537 0.0112134
0.0364254 0.0225093 0.00900659
0.0641803 0.0188405 0.00575952
0.0170405 0.0201072 0.00601288
0.0193626 0.014323 0.0137756

VERTICES 150 300
1 0
1 1
1 2
1 3
1 4
1 5
1 6
1 7
1 8
1 9
1 10
1 11
1 12
1 13
1 14
1 15
1 16
1 17
1 18
1 19
1 20
1 21
1 22
1 23
1 24
1 25
1 26
1 27
1 28
1 29
1 30
1 31
1 32
1 33
1 34
1 35
1 36
1 37
1 38
1 39
1 40
1 41
1 42
1 43
1 44
1 45
1 46
1 47
1 48
1 49
1 50
1 51
1 52
1 53
1 54
1 55
1 56
1 57
1 58
1 59
1 60
1 61
1 62
1 63
1 64
1 65
1 66
1 67
1 68
1 69
1 70
1 71
1 72
1 73
1 74
1 75
1 76
1 77
1 78
1 79
1 80
1 81
1 82
1 83
1 84
1 85
1 86
1 87
1 88
1 89
1 90
1 91
1 92
1 93
1 94
1 95
1 96
1 97
1 98
1 99
1 100
1 101
1 102
1 103
1 104
1 105
1 106
1 107
1 108
1 109
1 110
1 111
1 112
1 113
1 114
1 115
1 116
1 117
1 118
1 119
1 120
1 121
1 122
1 123
1 124
1 125
1 126
1 127
1 128
1 129
1 130
1 131
1 132
1 133
1 134
1 135
1 136
1 137
1 138
1 139
1 140
1 141
1 142
1 143
1 144
1 145
1 146
1 147
1 148
1 149

POINT_DATA 150
SCALARS id int 1
LOOKUP_TABLE default
3
4
5
6
7
10
11
13
15
17
18
21
22
23
25
26
27
28
29
35
36
39
45
47
49
50
54
56
58
59
60
62
64
65
67
69
70
71
73
75
78
79
81
82
85
87
88
89
91
92
93
94
95
98
101
103
107
111
113
115
121
122
127
133
138
140
142
143
147
149
150
151
152
153
154
155
157
160
164
166
172
176
178
180
183
185
188
189
190
192
198
201
207
209
212
215
219
220
222
227
228
238
239
240
244
246
252
253
257
258
261
264
266
267
271
276
277
279
280
281
285
287
288
289
290
291
296
297
298
299
300
301
305
306
308
309
313
314
319
320
321
324
326
327
328
332
334
338
340
341

SCALARS type int 1
LOOKUP_TABLE default
1
1
1
1
1
1
1
1
1
1
1
1
1
1
1
1
1
1
1
1
1
1
1
1
1
1
1
1
1
1
1
1
1
1
1
1
1
1
1
1
1
1
1
1
1
1
1
1
1
1
1
1
1
1
1
1
1
1
1
1
1
1
1
1
1
1
1
1
1
1
1
1
1
1
1
1
1
1
1
1
1
1
1
1
1
1
1
1
1
1
1
1
1
1
1
1
1
1
1
1
1
1
1
1
1
1
1
1
1
1
1
1
1
1
1
1
1
1
1
1
1
1
1
1
1
1
1
1
1
1
1
1
1
1
1
1
1
1
1
1
1
1
1
1
1
1
1
1
1
1

SCALARS radius float 1
LOOKUP_TABLE default
0.0005
0.0005
0.0005
0.0005
0.0005
0.0005
0.0005
0.0005
0.0005
0.0005
0.0005
0.0005
0.0005
0.0005
0.0005
0.0005
0.0005
0.0005
0.0005
0.0005
0.0005
0.0005
0.0005
0.0005
0.0005
0.0005
0.0005
0.0005
0.0005
0.0005
0.0005
0.0005
0.0005
0.0005
0.0005
0.0005
0.0005
0.0005
0.0005
0.0005
0.0005
0.0005
0.0005
0.0005
0.0005
0.0005
0.0005
0.0005
0.0005
0.0005
0.0005
0.0005
0.0005
0.0005
0.0005
0.0005
0.0005
0.0005
0.0005
0.0005
0.0005
0.0005
0.0005
0.0005
0.0005
0.0005
0.0005
0.0005
0.0005
0.0005
0.0005
0.0005
0.0005
0.0005
0.0005
0.0005
0.0005
0.0005
0.0005
0.0005
0.0005
0.0005
0.0005
0.0005
0.0005
0.0005
0.0005
0.0005
0.0005
0.0005
0.0005
0.0005
0.0005
0.0005
0.0005
0.0005
0.0005
0.0005
0.0005
0.0005
0.0005
0.0005
0.0005
0.0005
0.0005
0.0005
0.0005
0.0005
0.0005
0.0005
0.0005
0.0005
0.0005
0.0005
0.0005
0.0005
0.0005
0.0005
0.0005
0.0005
0.0005
0.0005
0.0005
0.0005
0.0005
0.0005
0.0005
0.0005
0.0005
0.0005
0.0005
0.0005
0.0005
0.0005
0.0005
0.0005
0.0005
0.0005
0.0005
0.0005
0.0005
0.0005
0.0005
0.0005
0.0005
0.0005
0.0005
0.0005
0.0005
0.0005

SCALARS mass float 1
LOOKUP_TABLE default
1.46608e-07
1.46608e-07
1.46608e-07
1.46608e-07
1.46608e-07
1.46608e-07
1.46608e-07
1.46608e-07
1.46608e-07
1.46608e-07
1.46608e-07
1.46608e-07
1.46608e-07
1.46608e-07
1.46608e-07
1.46608e-07
1.46608e-07
1.46608e-07
1.46608e-07
1.46608e-07
1.46608e-07
1.46608e-07
1.46608e-07
1.46608e-07
1.46608e-07
1.46608e-07
1.46608e-07
1.46608e-07
1.46608e-07
1.46608e-07
1.46608e-07
1.46608e-07
1.46608e-07
1.46608e-07
1.46608e-07
1.46608e-07
1.46608e-07
1.46608e-07
1.46608e-07
1.46608e-07
1.46608e-07
1.46608e-07
1.46608e-07
1.46608e-07
1.46608e-07
1.46608e-07
1.46608e-07
1.46608e-07
1.46608e-07
1.46608e-07
1.46608e-07
1.46608e-07
1.46608e-07
1.46608e-07
1.46608e-07
1.46608e-07
1.46608e-07
1.46608e-07
1.46608e-07
1.46608e-07
1.46608e-07
1.46608e-07
1.46608e-07
1.46608e-07
1.46608e-07
1.46608e-07
1.46608e-07
1.46608e-07
1.46608e-07
1.46608e-07
1.46608e-07
1.46608e-07
1.46608e-07
1.46608e-07
1.46608e-07
1.46608e-07
1.46608e-07
1.46608e-07
1.46608e-07
1.46608e-07
1.46608e-07
1.46608e-07
1.46608e-07
1.46608e-07
1.46608e-07
1.46608e-07
1.46608e-07
1.46608e-07
1.46608e-07
1.46608e-07
1.46608e-07
1.46608e-07
1.46608e-07
1.46608e-07
1.46608e-07
1.46608e-07
1.46608e-07
1.46608e-07
1.46608e-07
1.46608e-07
1.46608e-07
1.46608e-07
1.46608e-07
1.46608e-07
1.46608e-07
1.46608e-07
1.46608e-07
1.46608e-07
1.46608e-07
1.46608e-07
1.46608e-07
1.46608e-07
1.46608e-07
1.46608e-07
1.46608e-07
1.46608e-07
1.46608e-07
1.46608e-07
1.46608e-07
1.46608e-07
1.46608e-07
1.46608e-07
1.46608e-07
1.46608e-07
1.46608e-07
1.46608e-07
1.46608e-07
1.46608e-07
1.46608e-07
1.46608e-07
1.46608e-07
1.46608e-07
1.46608e-07
1.46608e-07
1.46608e-07
1.46608e-07
1.46608e-07
1.46608e-07
1.46608e-07
1.46608e-07
1.46608e-07
1.46608e-07
1.46608e-07
1.46608e-07
1.46608e-07
1.46608e-07
1.46608e-07
1.46608e-07
1.46608e-07
1.46608e-07

VECTORS velocity float
0.00110706 -0.00342286 0.0216913
1.79807e-07 0.0240656 0.0014955
0.000842483 -0.00717202 -0.0209143
0.00354729 0.0124801 -0.00783004
0.00281268 -0.0105379 -0.0124829
-0.00861908 -0.00230226 -0.00426803
0.00211226 0.0158325 -0.00413184
0.000105938 0.0240909 -0.0115443
0.0169795 -0.0358283 -0.134522
0.00130433 -0.0264358 -0.00608937
0.0622574 -0.0672619 -0.0631967
0.00582873 -0.00319505 -0.00167954
0.00456231 0.00196362 -0.00411464
-0.0019116 0.0114803 -0.0219558
0.000621568 -0.00106683 0.000202414
0.16263 -0.193791 0.232068
0.000568786 -0.0169835 0.0037488
-0.434197 -1.3081 -10.7746
-8.41414e-318 -5.85477e-317 -8.51801e-13
0.00696157 0.00320332 -0.00399077
-0.19484 0.0372722 -0.0454648
9.51625e-05 0.0105328 0.0180394
-5.86584e-05 0.00427855 -0.0102604
5.55285e-15 -1.1942e-14 -1.22958e-13
0.00319562 0.000103394 -0.00549282
8.80107e-06 -0.0244688 -0.00678656
0.00486106 0.00527756 0.00200289
9.54024e-05 -0.0139514 0.0217343
0.00132015 0.00156195 0.0172177
-0.00628182 -0.0290748 0.000191504
0.000975478 0.00963425 0.0180482
0.000580734 -0.000854218 -0.000258623
0.00254073 -0.000917113 0.00470825
0.000385816 -0.00823407 -0.0234461
-0.000136125 0.0197532 0.0177535
0.00369394 -9.79444e-05 -0.00581189
0.00366435 -0.00542186 -0.0159735
0.0010073 -0.0199175 -0.0104527
0.00084714 -0.0165995 0.00584157
-0.0186665 0.0152388 -0.0226896
-0.00125648 0.00237785 0.00273754
0.000837814 0.000300783 -0.00038514
-0.00551989 0.0054752 -0.00702894
3.43928e-18 7.50625e-18 2.36047e-17
0.000978904 -0.000113868 0.00138793
0.00606102 0.0129556 -0.00704348
2.31298e-18 -9.86314e-18 2.05418e-17
0.00078149 0.0142362 -0.0125617
0.0721769 0.12309 -0.146503
0.00298992 0.00155396 -0.00750405
0.000488577 0.00801225 -0.020943
0.00304259 -0.000600647 0.00402877
0.000155748 -0.0245603 0.00326607
-0.00383289 0.0251338 -0.00924785
6.21647e-05 0.00383633 0.0263773
-0.00589438 0.00535693 -0.00585722
0.00109598 0.000602988 0.00130667
-0.022693 0.0436019 -0.0544015
0.00519192 -0.00337935 -0.00206595
0.000808348 0.00210353 -0.00337812
-1.36783e-17 3.0984e-17 1.08858e-16
-9.58037e-05 0.00120887 0.00526783
0.00125564 0.00123299 0.00101369
-0.00874814 0.00320531 -0.00481855
-8.78828e-19 -3.88628e-19 2.38003e-17
1.01909e-14 -7.92142e-17 1.17811e-13
-1.63683e-05 0.0272364 -0.012362
0.0544181 -0.145967 -0.0592453
2.28063e-05 -7.72968e-05 -1.69927e-05
0.00480187 0.0020827 0.00276585
-0.0048681 0.0222692 0.00895729
-4.63672e-05 0.0176613 -0.0185469
-0.00473461 0.00966235 -0.00842453
-0.105428 -0.0840951 0.0173886
0.00511282 0.00785237 -0.00509444
0.00913327 -0.053486 -0.0574853
0.000101994 0.010748 0.0225385
0.00240164 0.00228866 0.00934356
0.000105185 -0.0238057 0.0089308
-0.0019889 -0.00176635 0.00715146
-0.085623 -0.0937101 0.0195558
0.0147176 0.0101561 -0.000249058
0.0092568 -0.0962262 -0.0861053
0.000689515 -0.00209171 -0.00194917
-0.00113046 -0.000179302 -0.000924947
-0.0073651 0.00441863 -0.00687576
-0.00197367 0.0208326 0.0372062
0.000251501 0.00157775 -0.00355374
-0.000915768 -0.0236048 -0.00702267
-0.0109158 0.00102723 -0.00195926
-0.000125837 0.0065618 0.00729318
3.65266e-317 -5.80759e-317 1.3543e-12
0.0543646 0.00277667 0.0567568
0.000130629 0.0226004 -0.0109088
0.00364 -0.00410471 0.00366819
-3.29186e-317 3.38688e-318 2.45735e-12
0.00176793 0.000911423 -0.00510318
-1.71054e-15 1.37351e-17 -1.94723e-14
4.73992e-15 7.55873e-16 -7.72381e-14
-0.00971438 0.0127054 -0.00292572
0.00113819 0.0186907 -0.0119047
-0.0517222 0.0301494 0.0149687
9.21847e-05 -0.000826889 -0.00693254
0.000123213 7.77276e-05 -0.00225928
-1.31466e-14 6.32846e-17 -1.53963e-13
0.000323805 0.000211214 -0.0248445
-0.0108268 0.00662149 0.0188798
-0.00312777 0.00108793 0.000164027
0.00472398 0.00383686 0.00285184
7.67138e-15 4.49215e-14 -1.4257e-13
0.103238 0.0379918 -0.000950769
2.3211e-14 -2.41973e-16 2.72287e-13
-0.00656926 0.00768605 -0.00558857
0.000595865 -0.019882 0.00944946
-0.00276281 0.00318011 -0.0122482
0.00100008 0.000353219 -0.00273146
-0.0563616 0.0853582 0.0093638
0.00218945 -0.00942871 0.00818538
0.00593194 0.00912765 -0.00136935
-0.000350299 -0.000936389 -0.00042751
0.00175221 0.000652673 -0.000960971
-0.000869069 -0.00195762 -0.012935
-0.00855272 0.00512487 -0.00987133
9.01736e-05 -0.00824723 0.0250181
-0.00097074 -0.000711618 0.00280683
0.000274474 0.0131664 -0.0208376
0.000406865 0.0249909 0.00417104
0.000190673 -0.000406153 0.00134565
-0.00363771 0.00186155 0.00202919
-8.57753e-15 4.07771e-14 -2.01662e-13
-0.00123318 2.66998e-05 -0.000101211
0.00147468 -0.0100947 -0.00699392
-0.000207788 0.023811 0.00964867
-0.0112681 0.0948823 -0.0121795
1.56415e-05 -0.0143161 -0.000342839
0.00288821 0.0107075 -0.0271264
0.0152526 0.00562646 0.0140961
0.0178693 0.0190352 -0.0326095
-0.00148353 6.9562e-05 -0.00511556
0.00473496 0.000659338 0.00498596
0.000325616 -0.015032 -0.0180556
1.12889e-17 -5.33431e-18 1.07478e-16
0.000554568 0.00216126 0.000357771
-0.00436515 -4.76223 0.753222
-1.21417e-14 -1.89892e-15 1.97907e-13
4.05695e-05 -0.00584692 0.0241654
-3.85212e-05 -0.012965 -0.0181433
-0.00671519 -0.0266562 0.00349731
-6.69285e-15 -2.75571e-15 5.51318e-14
-0.00437765 -0.00249996 -0.00173949

VECTORS force float
-9.12089e-09 9.46377e-09 2.61963e-08
3.1354e-10 1.30996e-09 -1.8811e-08
6.42908e-09 6.20257e-09 4.67854e-08
-1.2804e-07 2.99561e-07 -9.11504e-08
-8.57666e-09 -4.8147e-08 -3.67941e-08
1.73235e-07 -6.71189e-07 -4.50851e-08
-9.28028e-10 1.43444e-07 -6.04583e-08
-4.2847e-09 7.8938e-09 -2.85895e-08
0.0 0.0 -1.43822e-06
2.81552e-08 -1.91477e-07 -3.61978e-08
0.0 0.0 -1.43822e-06
4.03851e-06 -5.2007e-07 -7.31886e-06
-5.76632e-08 -5.34924e-07 7.19295e-07
-1.81555e-06 -2.38901e-05 -2.32355e-06
1.05617e-06 2.80084e-06 2.03208e-06
0.0 0.0 -1.43822e-06
2.84483e-06 9.30868e-06 -4.82089e-06
0.0190053 0.208377 0.0180054
2.3256e-320 -2.469e-320 0.0
-3.29284e-09 1.05457e-08 2.62582e-08
0.0 0.0 -1.43822e-06
-2.09211e-09 2.55522e-08 1.18955e-08
2.71166e-07 -1.70639e-08 1.33727e-07
-1.55245e-20 1.66018e-19 -1.67289e-20
-2.01295e-06 2.14999e-06 -1.64641e-06
-6.44667e-10 -1.35754e-08 9.15706e-09
-6.43574e-08 -4.3295e-08 -1.86127e-07
-4.98098e-10 1.15266e-08 1.04554e-08
6.65084e-08 -7.40861e-08 -7.7447e-07
1.68356e-05 7.08085e-05 -2.88858e-06
-1.19096e-08 -7.48252e-09 -1.33161e-08
-1.67261e-07 1.15131e-07 8.27324e-08
-3.5977e-08 1.66612e-08 5.49689e-07
-2.95434e-09 -1.34901e-08 -5.1505e-09
3.80148e-09 1.59907e-08 -7.12127e-09
0.0 0.0 -1.43822e-06
-2.60783e-05 -1.87293e-05 7.15979e-05
1.16159e-08 -1.56584e-10 2.88909e-08
-2.14116e-08 -1.02923e-07 4.78898e-08
0.0 0.0 -1.43822e-06
-1.75099e-07 5.99595e-07 -1.2025e-06
-2.03766e-06 -4.24653e-08 9.62923e-08
-7.19152e-07 -6.62672e-07 -4.75596e-07
0.0 0.0 0.0
5.05829e-07 -3.28672e-07 -7.01823e-07
-3.54072e-07 -6.22074e-09 -2.08416e-07
0.0 0.0 0.0
3.5616e-10 -2.09834e-08 -8.02321e-09
0.0 0.0 -1.43822e-06
-3.12573e-06 -1.12279e-06 -4.3603e-06
-1.5022e-09 -2.10094e-08 -6.04427e-08
1.9055e-07 -2.05695e-07 1.91008e-07
-1.04959e-09 -5.9548e-09 1.50752e-08
-3.39519e-07 -4.27848e-07 1.25886e-06
5.53496e-10 1.65949e-08 -1.3927e-09
-1.4042e-06 7.51199e-08 5.14285e-07
4.54012e-07 -5.24243e-08 -7.40878e-07
0.0 0.0 -1.43822e-06
-7.73363e-08 -3.68697e-07 5.14249e-07
1.53661e-07 -5.58303e-08 -1.22515e-07
1.08154e-22 -1.98523e-23 0.0
8.18484e-09 -1.08591e-07 -8.98781e-08
-5.32179e-07 2.01932e-07 -3.68752e-07
7.2787e-08 -2.98514e-07 6.5596e-07
0.0 0.0 0.0
-5.45066e-19 -4.08939e-19 4.61633e-20
0.0 0.0 -1.43822e-06
0.00272769 0.00255348 0.00552363
9.54255e-09 -3.19804e-08 -7.28396e-09
9.39005e-07 3.79535e-07 5.6569e-07
0.0 0.0 -1.43822e-06
6.85847e-10 -7.20602e-09 -1.1809e-08
0.0 0.0 -1.43822e-06
0.0 0.0 -1.43822e-06
-1.84562e-07 6.35833e-07 7.44869e-07
0.0 0.0 -1.43822e-06
-6.34274e-11 1.69686e-08 -2.04035e-09
0.0 0.0 -1.43822e-06
-1.23217e-09 1.56443e-09 1.61155e-08
0.0 0.0 -1.43822e-06
0.0 0.0 -1.43822e-06
-3.76739e-07 -1.4958e-07 -2.59503e-09
0.0 0.0 -1.43822e-06
4.64995e-07 2.82777e-07 7.50991e-08
-1.67603e-07 3.42515e-07 -1.02758e-06
-6.39885e-07 -4.23634e-07 -1.07603e-06
0.0 0.0 -1.43822e-06
-3.30272e-07 -1.37915e-06 1.35759e-06
2.37599e-07 2.06552e-07 2.02073e-07
0.0 0.0 -1.43822e-06
1.32403e-06 -4.22664e-07 -2.19768e-08
-2.2465e-320 -2.469e-320 0.0
0.0 0.0 -1.43822e-06
-1.16413e-09 -2.08948e-09 -1.64933e-08
0.0 0.0 -1.43822e-06
2.2584e-320 -2.4674e-320 0.0
7.35492e-07 4.64423e-07 1.61525e-06
2.29758e-20 3.2442e-21 -1.90582e-21
5.63806e-21 -3.48574e-20 0.0
1.62047e-06 -4.23171e-07 3.10658e-06
3.25778e-09 8.96628e-10 -1.4479e-08
0.0 0.0 -1.43822e-06
3.76243e-07 -8.97325e-07 -1.97724e-06
-9.14812e-06 -2.93403e-07 8.22462e-06
8.02498e-20 8.11034e-20 3.89635e-20
-3.83107e-09 -1.43377e-08 -7.52253e-09
0.0 0.0 -1.43822e-06
-4.47243e-06 -2.23472e-07 5.03743e-06
0.0 0.0 -1.43822e-06
2.83465e-19 6.6545e-20 2.11758e-22
-6.90853e-07 -1.65217e-07 1.13564e-09
-2.64698e-22 -3.35302e-20 0.0
8.97995e-07 -1.71249e-06 4.6369e-07
5.27312e-09 1.65619e-08 1.3567e-08
0.0 0.0 -1.43822e-06
-9.94998e-08 8.19695e-07 -7.32959e-07
0.0 0.0 -1.43822e-06
0.0 0.0 -1.43822e-06
-9.38144e-07 -5.85887e-08 6.19166e-07
-2.65127e-07 -2.06619e-07 -1.9414e-07
-3.34774e-07 1.4843e-07 7.52745e-08
-6.94401e-06 -3.31151e-05 -1.91492e-06
-4.01901e-07 -1.91914e-08 -3.67211e-07
-6.70597e-10 1.38862e-08 9.47773e-09
-3.82133e-07 -1.34832e-06 2.71691e-06
-1.74134e-09 -7.33029e-09 -1.47041e-08
-3.15738e-08 7.50674e-08 1.00569e-08
-1.37783e-06 1.42522e-06 -2.45728e-06
1.68308e-06 -3.14358e-06 2.5729e-06
1.91674e-19 4.85456e-20 1.69407e-21
1.80305e-07 6.02824e-07 -1.037e-06
7.058e-07 1.94891e-06 3.3238e-06
5.00498e-09 -2.5793e-08 -2.0006e-08
0.0 0.0 -1.43822e-06
0.0 0.0 -1.43822e-06
0.0 0.0 -1.43822e-06
-2.79243e-08 6.54682e-08 -1.45643e-06
6.69715e-08 -4.06283e-08 -1.3747e-06
0.0 0.0 -1.43822e-06
9.25653e-08 -5.66142e-08 3.57366e-07
-2.72343e-09 -2.13265e-08 -2.73292e-09
-2.87445e-23 6.61744e-24 -2.11758e-22
-5.24831e-08 -3.73793e-07 4.55059e-07
-0.000266831 -0.190803 0.0175683
1.66627e-20 1.65353e-20 1.05879e-21
-2.13084e-08 2.76914e-08 -8.74111e-08
-3.63608e-08 -2.20527e-07 -2.35699e-07
-3.72674e-07 5.68985e-07 -2.73871e-07
-1.0535e-20 -1.14852e-19 -6.98802e-21
0.0 0.0 -1.43822e-06
