# vtk DataFile Version 3.0
LIGGGHTS particles timestep 15000000
ASCII
DATASET POLYDATA
POINTS 142 float
0.0425176 0.0232947 0.0108155
0.0256489 0.0213914 0.0150005
0.0398028 0.0148174 0.0111024
0.0403351 0.0157391 0.00881432
0.0273718 0.0150794 0.0129738
0.0213351 0.0239481 0.0133428
0.0351924 0.0190691 0.00734506
0.0201438 0.0231647 0.0131822
0.0196704 0.0237523 0.0143456
0.0320476 0.0197069 0.0157419
0.0442322 0.0197189 0.00576402
0.0378006 0.0205956 0.015445
0.0196995 0.0227755 0.0160532
0.0155994 0.0235079 0.0148755
0.017324 0.0146245 0.0120564
0.0218673 0.0194779 0.0160163
0.0379361 0.0200763 0.0157048
0.0458295 0.0149009 0.0110521
0.0126619 0.00210988 0.0435188
0.0336198 0.0189679 0.0056986
0.042031 0.0222527 0.00859472
0.0277381 0.0147639 0.0114079
0.0485793 0.0192087 0.00599463
0.0185058 0.01402 0.0129372
0.0384315 0.0182306 0.0156397
0.0410496 0.01835 0.00725427
0.0428024 0.0233595 0.0118362
0.036904 0.0233222 0.0122219
0.0230618 0.0152715 0.013845
0.0300137 0.0221967 0.0085397
0.037767 0.0201211 0.00599712
0.0195051 0.0140009 0.0129689
0.0329727 0.0160076 0.0145373
0.0415692 0.0207128 0.00749142
0.0197963 0.0239804 0.0127201
0.0168171 0.0149836 0.0135598
0.0392411 0.0153251 0.0136008
0.0239942 0.018105 0.0166654
0.0200331 0.0136967 0.0137618
0.0207728 0.0235925 0.012088
0.0208635 0.0142652 0.0140962
0.0238345 0.021527 0.00816134
0.0241988 0.0192723 0.00587478
0.0190153 0.0233623 0.0126446
0.0188118 0.0234599 0.0116549
0.024157 0.0210819 0.00621473
0.0341278 0.0151728 0.00965259
0.0169363 0.0178251 0.0166524
0.0204622 0.0227754 0.0143183
0.0336831 0.014773 0.0116673
0.0246226 0.0159563 0.0157578
0.0151884 0.0228449 0.0138109
0.0220678 0.0182696 0.0161532
0.0422503 0.0228272 0.00945894
0.026868 0.0162454 0.0147492
0.0194946 0.022577 0.0147922
0.0220325 0.0192339 0.00586691
0.0296228 0.0208769 0.00760269
0.0184126 0.0231184 0.0102986
0.0252304 0.0208911 0.00605239
0.0245153 0.0202206 0.0058546
0.0293821 0.0180819 0.00586114
0.026454 0.0179269 0.0156122
0.0380848 0.019558 0.0157226
0.0369961 0.0194888 0.00590926
0.0282188 0.0151701 0.00974681
0.0162014 0.023673 0.0139596
0.0366167 0.0185804 0.00573353
0.0408228 0.0174653 0.00751686
0.0258155 0.020621 0.0155274
0.0358594 0.0219363 0.00828424
0.0189858 0.0143134 0.0137642
0.0431624 0.0228845 0.0135445
0.0232871 0.014896 0.0147438
0.022321 0.0149654 0.0132473
0.0573841 0.0177084 0.00590108
0.0291837 0.0237429 0.00883814
0.0219147 0.0213975 0.0163062
0.019819 0.0234892 0.0118061
0.0233229 0.0195147 0.00723105
0.0213918 0.0146031 0.0133175
0.0171929 0.0236619 0.0140887
0.0186569 0.023657 0.0151898
0.036549 0.0233281 0.0108011
0.00830357 0.0326771 0.0435188
0.0169904 0.0176197 0.0214711
0.0358589 0.0212081 0.00788142
0.0193248 0.0229126 0.0138564
0.0365933 0.0210052 0.0435188
0.0212855 0.0153136 0.0149255
0.0280642 0.0195866 0.0059747
0.0259924 0.0202525 0.00594552
0.0216258 0.0235825 0.0142936
0.028358 0.0157424 0.00878967
0.0203162 0.0240745 0.0136105
0.0177628 0.0142537 0.0165275
0.0257356 0.0202967 0.0166045
0.0305158 0.0194021 0.00576556
0.0400162 0.0150089 0.0100363
0.0211353 0.0168897 0.0154513
0.0179724 0.01419 0.0137657
0.0231221 0.0187047 0.00721175
0.0315049 0.0195484 0.00577913
0.0680479 0.0195636 0.00574881
0.0284547 0.0176223 0.00593982
0.0235957 0.0229211 0.0150661
0.0315762 0.0217436 0.0148396
0.0295511 0.0200618 0.00584833
0.0183784 0.0147091 0.0145422
0.0213732 0.0233817 0.0159674
0.0367878 0.0204418 0.00612933
0.0415757 0.0191356 0.00718112
0.0207824 0.021914 0.0149157
0.0205894 0.0205566 0.0159362
0.0210599 0.0230097 0.0135517
0.0258277 0.0222546 0.0142055
0.030452 0.0232527 0.010378
0.0189157 0.0242607 0.013281
0.0339499 0.0149343 0.0104694
0.0354226 0.0199445 0.00748894
0.0311129 0.022889 0.0133665
0.00610955 0.014013 0.0400458
0.0384427 0.0190526 0.00575048
0.0161003 0.0107187 0.0260911
0.0322584 0.018881 0.0158114
0.0289471 0.018001 0.00733508
0.0372565 0.0177776 0.00829948
0.0229478 0.0234066 0.0144581
0.0221948 0.0153154 0.00929078
0.0237055 0.0165624 0.0161114
0.017229 0.0240388 0.0131633
0.0173319 0.0142764 0.0129937
0.0326847 0.0168936 0.0152181
0.0220676 0.0202327 0.00590095
0.0199178 0.0145537 0.0142713
0.0345225 0.0152797 0.0135303
0.0265595 0.0180887 0.00595892
0.0194336 0.0234095 0.0179399
0.0395687 0.0148649 0.0121083
0.0640746 0.0187632 0.00577472
0.0170405 0.0201072 0.00601288
0.0218016 0.015053 0.0141119

VERTICES 142 284
1 0
1 1
1 2
1 3
1 4
1 5
1 6
1 7
1 8
1 9
1 10
1 11
1 12
1 13
1 14
1 15
1 16
1 17
1 18
1 19
1 20
1 21
1 22
1 23
1 24
1 25
1 26
1 27
1 28
1 29
1 30
1 31
1 32
1 33
1 34
1 35
1 36
1 37
1 38
1 39
1 40
1 41
1 42
1 43
1 44
1 45
1 46
1 47
1 48
1 49
1 50
1 51
1 52
1 53
1 54
1 55
1 56
1 57
1 58
1 59
1 60
1 61
1 62
1 63
1 64
1 65
1 66
1 67
1 68
1 69
1 70
1 71
1 72
1 73
1 74
1 75
1 76
1 77
1 78
1 79
1 80
1 81
1 82
1 83
1 84
1 85
1 86
1 87
1 88
1 89
1 90
1 91
1 92
1 93
1 94
1 95
1 96
1 97
1 98
1 99
1 100
1 101
1 102
1 103
1 104
1 105
1 106
1 107
1 108
1 109
1 110
1 111
1 112
1 113
1 114
1 115
1 116
1 117
1 118
1 119
1 120
1 121
1 122
1 123
1 124
1 125
1 126
1 127
1 128
1 129
1 130
1 131
1 132
1 133
1 134
1 135
1 136
1 137
1 138
1 139
1 140
1 141

POINT_DATA 142
SCALARS id int 1
LOOKUP_TABLE default
3
4
5
6
7
10
11
13
15
17
18
21
22
23
25
26
27
28
29
36
39
45
47
49
50
54
56
58
59
60
62
64
65
67
69
70
71
73
75
78
79
81
82
85
87
88
89
91
92
93
94
95
98
101
107
113
121
122
127
133
138
140
142
143
147
151
152
153
154
155
157
160
164
166
172
176
178
180
183
185
188
189
190
198
201
207
209
212
215
219
220
222
227
228
238
239
240
244
246
252
253
257
258
261
264
266
267
271
276
277
279
280
281
285
287
288
289
290
291
296
297
298
299
300
301
305
308
309
313
314
319
320
321
324
326
327
328
332
334
338
340
341

SCALARS type int 1
LOOKUP_TABLE default
1
1
1
1
1
1
1
1
1
1
1
1
1
1
1
1
1
1
1
1
1
1
1
1
1
1
1
1
1
1
1
1
1
1
1
1
1
1
1
1
1
1
1
1
1
1
1
1
1
1
1
1
1
1
1
1
1
1
1
1
1
1
1
1
1
1
1
1
1
1
1
1
1
1
1
1
1
1
1
1
1
1
1
1
1
1
1
1
1
1
1
1
1
1
1
1
1
1
1
1
1
1
1
1
1
1
1
1
1
1
1
1
1
1
1
1
1
1
1
1
1
1
1
1
1
1
1
1
1
1
1
1
1
1
1
1
1
1
1
1
1
1

SCALARS radius float 1
LOOKUP_TABLE default
0.0005
0.0005
0.0005
0.0005
0.0005
0.0005
0.0005
0.0005
0.0005
0.0005
0.0005
0.0005
0.0005
0.0005
0.0005
0.0005
0.0005
0.0005
0.0005
0.0005
0.0005
0.0005
0.0005
0.0005
0.0005
0.0005
0.0005
0.0005
0.0005
0.0005
0.0005
0.0005
0.0005
0.0005
0.0005
0.0005
0.0005
0.0005
0.0005
0.0005
0.0005
0.0005
0.0005
0.0005
0.0005
0.0005
0.0005
0.0005
0.0005
0.0005
0.0005
0.0005
0.0005
0.0005
0.0005
0.0005
0.0005
0.0005
0.0005
0.0005
0.0005
0.0005
0.0005
0.0005
0.0005
0.0005
0.0005
0.0005
0.0005
0.0005
0.0005
0.0005
0.0005
0.0005
0.0005
0.0005
0.0005
0.0005
0.0005
0.0005
0.0005
0.0005
0.0005
0.0005
0.0005
0.0005
0.0005
0.0005
0.0005
0.0005
0.0005
0.0005
0.0005
0.0005
0.0005
0.0005
0.0005
0.0005
0.0005
0.0005
0.0005
0.0005
0.0005
0.0005
0.0005
0.0005
0.0005
0.0005
0.0005
0.0005
0.0005
0.0005
0.0005
0.0005
0.0005
0.0005
0.0005
0.0005
0.0005
0.0005
0.0005
0.0005
0.0005
0.0005
0.0005
0.0005
0.0005
0.0005
0.0005
0.0005
0.0005
0.0005
0.0005
0.0005
0.0005
0.0005
0.0005
0.0005
0.0005
0.0005
0.0005
0.0005

SCALARS mass float 1
LOOKUP_TABLE default
1.46608e-07
1.46608e-07
1.46608e-07
1.46608e-07
1.46608e-07
1.46608e-07
1.46608e-07
1.46608e-07
1.46608e-07
1.46608e-07
1.46608e-07
1.46608e-07
1.46608e-07
1.46608e-07
1.46608e-07
1.46608e-07
1.46608e-07
1.46608e-07
1.46608e-07
1.46608e-07
1.46608e-07
1.46608e-07
1.46608e-07
1.46608e-07
1.46608e-07
1.46608e-07
1.46608e-07
1.46608e-07
1.46608e-07
1.46608e-07
1.46608e-07
1.46608e-07
1.46608e-07
1.46608e-07
1.46608e-07
1.46608e-07
1.46608e-07
1.46608e-07
1.46608e-07
1.46608e-07
1.46608e-07
1.46608e-07
1.46608e-07
1.46608e-07
1.46608e-07
1.46608e-07
1.46608e-07
1.46608e-07
1.46608e-07
1.46608e-07
1.46608e-07
1.46608e-07
1.46608e-07
1.46608e-07
1.46608e-07
1.46608e-07
1.46608e-07
1.46608e-07
1.46608e-07
1.46608e-07
1.46608e-07
1.46608e-07
1.46608e-07
1.46608e-07
1.46608e-07
1.46608e-07
1.46608e-07
1.46608e-07
1.46608e-07
1.46608e-07
1.46608e-07
1.46608e-07
1.46608e-07
1.46608e-07
1.46608e-07
1.46608e-07
1.46608e-07
1.46608e-07
1.46608e-07
1.46608e-07
1.46608e-07
1.46608e-07
1.46608e-07
1.46608e-07
1.46608e-07
1.46608e-07
1.46608e-07
1.46608e-07
1.46608e-07
1.46608e-07
1.46608e-07
1.46608e-07
1.46608e-07
1.46608e-07
1.46608e-07
1.46608e-07
1.46608e-07
1.46608e-07
1.46608e-07
1.46608e-07
1.46608e-07
1.46608e-07
1.46608e-07
1.46608e-07
1.46608e-07
1.46608e-07
1.46608e-07
1.46608e-07
1.46608e-07
1.46608e-07
1.46608e-07
1.46608e-07
1.46608e-07
1.46608e-07
1.46608e-07
1.46608e-07
1.46608e-07
1.46608e-07
1.46608e-07
1.46608e-07
1.46608e-07
1.46608e-07
1.46608e-07
1.46608e-07
1.46608e-07
1.46608e-07
1.46608e-07
1.46608e-07
1.46608e-07
1.46608e-07
1.46608e-07
1.46608e-07
1.46608e-07
1.46608e-07
1.46608e-07
1.46608e-07
1.46608e-07
1.46608e-07
1.46608e-07
1.46608e-07
1.46608e-07
1.46608e-07

VECTORS velocity float
0.00345672 -0.00198817 -0.00577317
0.00146531 0.0163552 -0.012647
0.000341685 -0.00167204 0.02441
0.000177628 -0.0156459 0.0193678
0.00102448 0.00780796 0.0205284
0.0003568 -0.000669616 -0.00150856
0.00068759 -0.0179581 -0.00154875
0.00156211 -0.000397363 0.00254344
-0.162732 -0.0398446 -0.181252
0.000706787 0.0169361 -0.00340336
-5.79571e-15 1.67439e-14 9.19941e-14
0.00437824 0.0084848 -0.00527124
-0.140135 -0.00213303 0.0497669
0.0300059 -0.0306723 -0.00850402
0.00182553 0.00258918 -0.00856161
-0.000629553 0.0284899 -0.0105985
0.0037899 0.00799504 -0.00100853
-0.000373033 -0.00501526 0.0258609
4.01731e-317 -1.01169e-316 -8.51801e-13
-3.9579e-20 -3.66437e-21 9.92586e-21
0.00215951 -0.0118579 -0.00771056
0.000971873 -0.00020631 0.0205698
5.493e-15 -1.1909e-14 -1.22964e-13
-9.94851e-05 0.00142766 -0.00226569
-0.000147578 0.0230581 0.00678743
-0.000172337 -0.0146088 0.00241962
0.000498782 0.00226105 -0.024571
0.000382175 0.00590101 -0.0244699
0.00267346 0.00122632 0.00433433
0.000181681 -0.0168294 -0.0180729
2.20804e-14 -7.48874e-14 3.45211e-13
-0.000145667 -5.95593e-05 -8.76008e-06
0.000951281 0.0176458 0.0172207
0.00109333 -0.0192586 -0.00836487
0.00504842 0.00144347 0.00364622
0.0330203 0.0992605 -0.0568843
0.000343459 0.0120481 0.0192172
-4.92314e-07 0.028532 0.00539651
0.000246005 -3.69823e-05 8.4098e-06
0.0116737 -0.018949 -0.036577
-0.0194956 -0.0253388 -0.0261063
0.000133467 -0.0207447 -0.0147306
3.77593e-20 -5.89656e-20 2.90669e-19
0.00256363 0.00495381 -0.0156547
0.000359665 0.001985 -0.00352778
4.20074e-20 -2.7318e-19 -2.16336e-19
0.00112009 -0.00927628 0.020593
-0.0122118 0.0100091 0.031045
-0.0101826 0.0224131 -0.00481447
8.60727e-06 -0.000957679 0.0262569
-0.0172757 -0.00493348 -0.00639092
0.00889866 0.00361854 -0.0060593
0.00537733 0.00643068 0.0462901
5.35543e-05 -0.0111698 -0.023166
0.00103109 0.016771 0.0129255
-0.0168357 0.0675541 0.00489344
2.74624e-19 3.99691e-19 1.25106e-18
0.000312126 -0.0219298 -0.00965285
0.00384768 -0.00202146 -0.0103095
-1.65296e-19 2.1439e-19 -1.92865e-19
2.22414e-19 8.7792e-20 -4.09424e-20
1.00437e-14 -8.73177e-17 1.17824e-13
0.00164515 0.0276262 0.00834769
0.00413376 0.00889275 0.00264543
3.23208e-16 -1.12039e-15 5.13036e-15
-7.26712e-05 -0.0104335 0.0226832
0.000269992 -0.000841948 -0.00209729
1.85062e-16 1.90345e-15 5.64074e-15
0.000675675 -0.0129116 0.00458914
0.00163679 0.0150489 -0.0065157
0.00336381 -0.00637608 -0.00552549
-0.00134298 -0.00188687 -0.000537729
0.00139188 0.00959218 -0.0151986
0.000750876 -0.0012631 0.00380845
0.00473317 0.00114121 0.0034732
-1.21536e-14 2.50405e-14 3.08286e-13
-0.0132363 -0.102356 -0.0758362
-0.0376072 0.0918149 0.0057992
3.10721e-05 0.000345875 0.000973544
0.0017592 -0.0176131 -0.00315435
0.00531206 4.24816e-05 0.00367154
6.0022e-05 0.00054176 -0.000472333
-0.0968289 -0.0958157 -0.0012572
0.000978612 -0.00367163 -0.0175114
-9.85754e-318 6.9832e-317 1.3543e-12
0.173573 0.0546084 0.0225778
-0.000342063 -0.00269897 -0.00529426
0.0207277 -0.0194868 0.0397211
-5.15688e-317 8.32534e-317 2.45735e-12
-0.0677852 0.025014 -0.0951922
-1.19013e-14 1.23584e-16 -1.39613e-13
-9.10637e-20 1.84904e-19 1.27446e-20
-0.0917311 -0.0129601 0.0052293
0.0037503 -0.00561899 0.0066853
-0.00958249 0.0119464 -0.00649924
-0.00332203 -0.0454469 -0.307631
-0.00585321 0.024115 -0.0024938
-2.75801e-15 3.32342e-17 -3.16299e-14
0.000937098 -0.00736497 0.0183968
-0.000836262 -0.024521 0.0101688
-0.00029285 -0.0048307 -0.00135649
0.000679253 -0.0232259 0.00246959
1.7207e-15 9.50986e-15 -3.01787e-14
-5.84821e-16 -1.12959e-15 -3.93065e-14
2.32106e-14 -2.32803e-16 2.72287e-13
-0.0162835 0.0129982 -0.0139603
0.000331537 0.0220561 -0.0147667
-1.6604e-15 1.63645e-17 -1.94765e-14
-0.00315968 -0.00124152 1.69236e-05
-0.00296501 0.158614 0.13498
-1.00424e-14 3.40605e-14 -1.5701e-13
-0.000250572 -0.0126665 0.00048889
-0.000286994 0.0624309 -0.047541
-0.00470053 0.102137 -0.00384885
0.00301645 -0.00131419 -0.00222014
-5.17567e-05 0.017206 -0.0191847
0.000834154 -0.00631171 -0.0224959
0.00451355 -0.00102344 0.00428822
0.0016866 -0.00389567 0.0183092
9.05053e-05 -0.0242433 -0.00569294
0.000979932 0.0133891 -0.021354
-0.129032 0.0432223 0.513518
2.1198e-15 -1.02278e-14 5.06397e-14
-0.0874321 0.00911078 0.1825
0.00116462 0.0224044 0.00322743
0.00143611 -0.0223243 0.00380916
-0.0004102 -0.00115178 -0.00559803
-0.0173132 0.0122219 -0.0175013
0.000291495 -0.0132353 0.0212944
5.90702e-05 -0.00403383 -0.00550148
-2.55942e-07 0.000820229 -0.000350951
0.00905659 0.00243095 -0.00469867
0.000765461 0.0194735 0.0102315
-2.93661e-19 -6.55655e-20 1.3943e-18
-0.0133505 -0.00397619 -0.00488394
-6.70787e-05 0.0116515 0.0226509
-1.21386e-14 -2.11614e-15 1.97905e-13
-0.0255209 0.205437 -0.111191
-1.72831e-05 0.00247114 0.0260261
1.31265e-15 3.13682e-15 2.46583e-14
-6.6556e-15 -2.78547e-15 5.51349e-14
0.0288393 -0.0113386 -0.10769

VECTORS force float
-5.2249e-09 2.95201e-08 3.37292e-08
-5.20284e-09 -6.89043e-08 4.25961e-08
-1.57401e-09 1.41254e-08 8.44375e-09
-9.76425e-10 7.50244e-09 1.38784e-08
1.36393e-08 1.18271e-08 -4.09912e-08
3.2603e-07 -1.6537e-07 -1.85067e-07
2.21861e-09 -2.34314e-08 1.45594e-09
2.16158e-07 5.19665e-07 2.78761e-08
0.0 0.0 -1.43822e-06
-7.67907e-09 -1.57567e-08 -1.35475e-08
0.0 2.64698e-21 -4.23516e-22
-6.15842e-08 1.98302e-07 2.34146e-07
0.0 0.0 -1.43822e-06
0.0 0.0 -1.43822e-06
7.70524e-07 4.73972e-06 1.75492e-06
0.0 0.0 -1.43822e-06
-1.67635e-09 -1.64313e-08 1.83717e-08
-2.37378e-09 1.24481e-08 6.31455e-09
2.4684e-320 3.05e-321 0.0
0.0 0.0 0.0
-3.84415e-05 -5.9043e-05 8.5659e-05
-9.25149e-09 1.2844e-08 7.7076e-09
8.29828e-21 -1.40872e-19 1.37643e-20
2.16616e-07 2.0832e-07 -1.84613e-07
-1.66676e-05 -4.76519e-06 -7.8123e-06
-2.55659e-06 2.47093e-06 -9.03916e-07
-1.80896e-08 1.32151e-08 -1.39397e-07
-4.40989e-08 7.22369e-08 -2.76461e-07
2.18906e-06 8.53023e-07 -5.67253e-07
3.48634e-10 -1.57785e-08 3.98355e-09
4.36751e-22 1.21761e-21 2.11758e-22
-3.08482e-07 5.58794e-07 9.85106e-07
-2.55287e-08 3.50211e-08 2.03329e-08
-2.76438e-07 -1.45618e-06 -5.16397e-07
-1.90702e-06 -9.89007e-08 -7.60163e-07
0.0 0.0 -1.43822e-06
-3.02454e-09 2.77363e-08 9.49559e-09
-9.00466e-10 3.84919e-09 -2.29457e-08
-6.00783e-07 9.64872e-07 -1.31614e-06
4.18247e-07 -2.8191e-07 2.98746e-07
-1.16796e-07 -5.07857e-07 1.91037e-06
-1.53064e-09 -1.26551e-08 9.08012e-09
0.0 0.0 0.0
-3.18688e-07 -3.67972e-07 1.53528e-07
-2.86788e-06 -9.30011e-08 -9.28039e-07
0.0 0.0 0.0
3.12455e-09 -9.17711e-06 2.83998e-05
0.0 0.0 -1.43822e-06
-6.92096e-08 -2.32461e-07 -1.15756e-06
-2.16405e-09 1.29475e-08 3.42459e-09
0.0 0.0 -1.43822e-06
2.48346e-08 1.62555e-08 -3.77671e-09
0.0 0.0 -1.43822e-06
-4.37209e-10 -1.53696e-08 3.71322e-09
-6.79396e-09 3.83544e-08 5.1644e-09
0.0 0.0 -1.43822e-06
1.09188e-22 1.32349e-23 0.0
-2.26075e-09 -1.38693e-08 8.7585e-09
-3.3071e-07 -2.05384e-06 6.66715e-06
6.61744e-24 0.0 0.0
-2.64698e-23 0.0 0.0
-5.29396e-23 5.93026e-21 0.0
-3.36522e-08 1.02438e-07 3.7447e-08
1.22228e-08 -2.45359e-07 9.56141e-08
-7.27919e-23 4.49986e-22 -1.90582e-21
9.19432e-10 9.84922e-09 1.03139e-08
-4.0064e-08 -2.27177e-09 8.91119e-08
-1.05879e-22 -4.23516e-22 -2.11758e-21
5.41773e-08 1.2577e-07 -4.81534e-08
-7.0668e-08 -1.56123e-07 1.3366e-07
3.42997e-06 -8.83757e-06 -3.35198e-06
-2.72645e-07 1.19589e-07 4.24305e-07
8.15627e-09 -4.45733e-08 5.54808e-08
1.24718e-06 -1.16362e-06 3.13935e-06
1.97706e-06 -5.32312e-07 -1.37841e-06
-1.42229e-19 -8.09181e-20 1.05879e-21
0.0 0.0 -1.43822e-06
0.0 0.0 -1.43822e-06
5.17298e-07 -1.15037e-06 -9.62463e-06
-6.77433e-08 -2.0852e-07 7.89779e-07
-1.35625e-07 -3.36483e-07 -1.48312e-06
9.85325e-09 1.13157e-09 4.27986e-08
0.0 0.0 -1.43822e-06
6.623e-08 -8.6076e-08 -3.54445e-07
-2.468e-320 -1.76e-320 0.0
0.0 0.0 -1.43822e-06
-1.23389e-05 3.62017e-06 -5.98624e-06
0.0 0.0 -1.43822e-06
-2.469e-320 2.4693e-320 0.0
-0.000161761 6.27542e-05 6.56814e-05
5.02926e-22 1.47027e-20 0.0
0.0 0.0 0.0
0.0 0.0 -1.43822e-06
1.94783e-06 -2.8702e-06 -3.39382e-07
0.0 0.0 -1.43822e-06
0.0 0.0 -1.43822e-06
7.58025e-07 5.61147e-07 -5.68127e-07
1.56172e-21 5.79026e-23 1.73642e-20
-1.72117e-09 1.75481e-08 1.7411e-09
0.0 0.0 -1.43822e-06
-2.18782e-07 2.86195e-07 -5.81384e-07
6.66884e-08 -7.78029e-07 1.97484e-07
-8.47033e-22 -5.21455e-21 1.6623e-20
1.37808e-20 -3.65283e-21 -2.11758e-22
-4.49986e-22 2.75664e-20 2.11758e-22
-7.37217e-08 5.1531e-08 -7.43015e-08
1.82292e-07 -9.55701e-07 9.17285e-07
0.0 1.85909e-21 0.0
0.0 0.0 -1.43822e-06
0.0 0.0 -1.43822e-06
9.26442e-23 -5.29396e-23 2.11758e-22
1.22104e-06 -2.40468e-06 -4.07966e-06
5.30265e-09 1.86845e-07 -2.98513e-07
0.0 0.0 -1.43822e-06
8.92359e-07 1.02067e-06 -2.4732e-07
1.23961e-09 -8.40115e-09 -1.03793e-08
-9.97874e-09 -1.94152e-08 -1.52437e-08
0.0 0.0 -1.43822e-06
-1.44281e-06 -1.19209e-06 1.22748e-05
-2.10687e-09 -5.65694e-09 1.58319e-08
1.21018e-08 -2.39393e-08 -1.54793e-08
0.0 0.0 -1.43822e-06
8.05515e-19 4.2934e-20 -2.5411e-20
0.0 0.0 -1.43822e-06
1.20148e-08 -2.11094e-08 -1.1865e-08
4.87745e-09 -5.69623e-06 1.50958e-06
0.0 0.0 -1.43822e-06
-7.85484e-08 4.32799e-08 -1.03438e-07
-4.09295e-10 9.02921e-09 1.29902e-08
1.77457e-08 -1.20069e-07 -2.76184e-07
-9.74615e-09 1.34758e-08 -2.01286e-09
2.96786e-06 4.73783e-06 5.26261e-06
-8.7056e-08 4.16118e-07 1.91313e-07
4.96308e-23 0.0 0.0
0.0 0.0 -1.43822e-06
-4.0134e-07 -7.80821e-07 -9.73159e-07
1.49025e-20 1.92733e-20 1.05879e-21
0.0 0.0 -1.43822e-06
-1.839e-09 1.55586e-08 1.98236e-09
4.93661e-20 -4.71162e-20 3.59989e-21
-6.70215e-20 8.55106e-20 -3.81165e-21
0.000161761 -6.27542e-05 -6.85579e-05
