# vtk DataFile Version 3.0
LIGGGHTS particles timestep 12000000
ASCII
DATASET POLYDATA
POINTS 156 float
0.0214152 0.0162943 0.0149918
0.038581 0.0195367 0.0156954
0.0187597 0.0226104 0.00937669
0.0355973 0.0186669 0.00729004
0.0362792 0.0217255 0.00815313
0.0215016 0.0229713 0.0136055
0.0236623 0.0189174 0.00720951
0.0313398 0.0233285 0.0121339
0.0170395 0.0151723 0.0136785
0.0201521 0.0218206 0.0150006
0.0287651 0.0154947 0.00911137
0.0360259 0.0178213 0.00735743
0.0329868 0.0178713 0.0155768
0.0254821 0.0194484 0.0167401
0.0167379 0.0147274 0.0125705
0.0224898 0.0199851 0.0158484
0.0222744 0.0147612 0.0112089
0.0336385 0.0154378 0.0138194
0.0405547 0.0149971 0.0100274
0.0126619 0.00210988 0.0435188
0.0161852 0.0236775 0.0139927
0.0454257 0.0173169 0.00620813
0.0383289 0.0206996 0.0154031
0.0233661 0.0150545 0.0146147
0.0485793 0.0192087 0.00599463
0.0138821 0.0208856 0.0165034
0.0340013 0.014864 0.0123742
0.0371084 0.0233583 0.0110208
0.0212904 0.0212584 0.0154127
0.039347 0.0162528 0.0146779
0.0326833 0.0190933 0.0158269
0.019111 0.0241057 0.0128244
0.0266439 0.021036 0.0153106
0.0399405 0.0201523 0.00590946
0.0202589 0.0234894 0.011782
0.0301111 0.0188422 0.00717403
0.0381881 0.021278 0.0150044
0.01541 0.0233948 0.0145579
0.0145917 0.0221527 0.0151772
0.0349502 0.0160413 0.00838299
0.0203406 0.0230125 0.0135466
0.023176 0.0166282 0.00792081
0.019689 0.0230799 0.0100755
0.0178802 0.0240667 0.013076
0.0208791 0.022374 0.014577
0.0242007 0.019277 0.00587306
0.0195314 0.0140034 0.0129647
0.0173457 0.0226443 0.0158035
0.0241575 0.0210843 0.00621584
0.0306657 0.0226958 0.00910464
0.0163616 0.0231747 0.0148453
0.0181873 0.0220203 0.0168539
0.0301575 0.0208756 0.00762194
0.0188831 0.0230445 0.0101252
0.0199266 0.0225165 0.0143089
0.0176403 0.0233782 0.0151251
0.0384799 0.0201617 0.0156734
0.0226044 0.0157016 0.0145138
0.0212468 0.0140209 0.0138554
0.0217478 0.019322 0.0159511
0.0237954 0.0227527 0.0152245
0.0175699 0.0142628 0.0128766
0.0220325 0.0192339 0.00586691
0.0259882 0.0217546 0.0147471
0.0222006 0.0145628 0.0139109
0.021049 0.0233944 0.0143904
0.0208438 0.0235277 0.0160068
0.0245191 0.0202247 0.00585487
0.0288094 0.0191448 0.00596585
0.019026 0.0143043 0.0137818
0.034298 0.0157113 0.0142147
0.0365451 0.0202012 0.00609265
0.0185308 0.0140016 0.0129677
0.0224168 0.0236331 0.0140634
0.0240303 0.0167042 0.016568
0.0176923 0.0242964 0.0140308
0.0444323 0.0198211 0.00575801
0.0366225 0.0225569 0.00909162
0.0159779 0.0149402 0.0131933
0.0323851 0.0205401 0.0154857
0.0175677 0.0194705 0.0167378
0.0399034 0.0149932 0.0129411
0.020003 0.0144061 0.0139692
0.0218558 0.0224545 0.0143793
0.0556725 0.0187626 0.00588299
0.0214983 0.0203438 0.0157587
0.0169399 0.0239337 0.0133889
0.0205067 0.0140473 0.0131835
0.0216082 0.0242033 0.0141222
0.0229511 0.0220679 0.0158071
0.0203691 0.0209115 0.0155573
0.0208333 0.0188178 0.0159424
0.0197199 0.0244373 0.013545
0.0319217 0.0221572 0.0145005
0.00830357 0.0326771 0.0435188
0.0171292 0.0235071 0.0142752
0.0310534 0.0233435 0.0107876
0.0212022 0.0171382 0.0155104
0.0184728 0.014737 0.0144936
0.0365933 0.0210052 0.0435188
0.0213462 0.0238721 0.0132154
0.0183483 0.0235658 0.0142196
0.0220732 0.0217602 0.0150588
0.0259606 0.020517 0.00594618
0.0198756 0.0199782 0.0180583
0.0241985 0.0210369 0.00783316
0.0216317 0.0155943 0.0143057
0.0186492 0.0243499 0.013677
0.0158387 0.0225068 0.0143096
0.0204357 0.0240919 0.0128713
0.0304264 0.0195546 0.00577359
0.0359072 0.0200154 0.00744531
0.0205758 0.0199707 0.0158511
0.0206236 0.02414 0.0138526
0.0167103 0.0142557 0.0134518
0.0303367 0.0204486 0.00621835
0.065076 0.0190099 0.00574968
0.0284547 0.0176223 0.00593982
0.0231401 0.0232627 0.0146461
0.0280854 0.0148164 0.0119475
0.0224972 0.0227508 0.0152165
0.013506 0.0217142 0.0160549
0.0219504 0.0148637 0.0129908
0.0332433 0.0168303 0.0151932
0.0370138 0.0215667 0.00796448
0.0149187 0.0227336 0.0139908
0.0214291 0.0223738 0.0155158
0.0160534 0.0218158 0.0149998
0.0222889 0.0209204 0.0155557
0.0277101 0.0172659 0.0153105
0.0192922 0.023459 0.0117224
0.0303858 0.0218839 0.00820825
0.0316375 0.0229945 0.0131954
0.0273129 0.0161529 0.014645
0.02204 0.023677 0.0149924
0.0391006 0.0190317 0.00571839
0.0177636 0.0144989 0.0138288
0.0289578 0.0160429 0.0084367
0.0256973 0.0227671 0.0135969
0.0197612 0.0224631 0.020667
0.0247762 0.017622 0.00835106
0.0214825 0.0146428 0.0146023
0.0196486 0.0234084 0.0147819
0.0229467 0.0152002 0.0137187
0.0233383 0.0162343 0.0149431
0.0196448 0.0232923 0.0128371
0.0292734 0.0170449 0.00766597
0.0220676 0.0202327 0.00590095
0.0161272 0.0154143 0.0140616
0.0298716 0.0197968 0.00727312
0.0265595 0.0180887 0.00595892
0.0206161 0.0232763 0.012623
0.0352931 0.017188 0.00760605
0.0223887 0.0164076 0.0152054
0.0170405 0.0201072 0.00601288
0.017529 0.0146186 0.0119432

VERTICES 156 312
1 0
1 1
1 2
1 3
1 4
1 5
1 6
1 7
1 8
1 9
1 10
1 11
1 12
1 13
1 14
1 15
1 16
1 17
1 18
1 19
1 20
1 21
1 22
1 23
1 24
1 25
1 26
1 27
1 28
1 29
1 30
1 31
1 32
1 33
1 34
1 35
1 36
1 37
1 38
1 39
1 40
1 41
1 42
1 43
1 44
1 45
1 46
1 47
1 48
1 49
1 50
1 51
1 52
1 53
1 54
1 55
1 56
1 57
1 58
1 59
1 60
1 61
1 62
1 63
1 64
1 65
1 66
1 67
1 68
1 69
1 70
1 71
1 72
1 73
1 74
1 75
1 76
1 77
1 78
1 79
1 80
1 81
1 82
1 83
1 84
1 85
1 86
1 87
1 88
1 89
1 90
1 91
1 92
1 93
1 94
1 95
1 96
1 97
1 98
1 99
1 100
1 101
1 102
1 103
1 104
1 105
1 106
1 107
1 108
1 109
1 110
1 111
1 112
1 113
1 114
1 115
1 116
1 117
1 118
1 119
1 120
1 121
1 122
1 123
1 124
1 125
1 126
1 127
1 128
1 129
1 130
1 131
1 132
1 133
1 134
1 135
1 136
1 137
1 138
1 139
1 140
1 141
1 142
1 143
1 144
1 145
1 146
1 147
1 148
1 149
1 150
1 151
1 152
1 153
1 154
1 155

POINT_DATA 156
SCALARS id int 1
LOOKUP_TABLE default
2
3
4
5
6
7
10
11
13
15
17
18
21
22
23
25
26
27
28
29
35
36
39
45
47
49
50
54
55
56
58
59
60
62
64
65
67
69
70
71
73
75
78
79
81
82
85
87
88
89
91
92
93
94
95
98
101
103
107
111
113
115
121
122
127
130
133
138
140
142
143
147
149
150
151
152
153
154
155
157
160
164
166
172
176
178
180
183
185
188
189
190
192
198
201
207
209
210
212
215
216
219
220
222
227
228
229
238
239
240
244
246
252
253
257
258
261
264
266
267
271
276
277
279
280
281
285
287
288
289
290
291
296
297
298
299
300
301
305
306
308
309
313
314
319
320
321
324
326
327
328
332
334
338
340
341

SCALARS type int 1
LOOKUP_TABLE default
1
1
1
1
1
1
1
1
1
1
1
1
1
1
1
1
1
1
1
1
1
1
1
1
1
1
1
1
1
1
1
1
1
1
1
1
1
1
1
1
1
1
1
1
1
1
1
1
1
1
1
1
1
1
1
1
1
1
1
1
1
1
1
1
1
1
1
1
1
1
1
1
1
1
1
1
1
1
1
1
1
1
1
1
1
1
1
1
1
1
1
1
1
1
1
1
1
1
1
1
1
1
1
1
1
1
1
1
1
1
1
1
1
1
1
1
1
1
1
1
1
1
1
1
1
1
1
1
1
1
1
1
1
1
1
1
1
1
1
1
1
1
1
1
1
1
1
1
1
1
1
1
1
1
1
1

SCALARS radius float 1
LOOKUP_TABLE default
0.0005
0.0005
0.0005
0.0005
0.0005
0.0005
0.0005
0.0005
0.0005
0.0005
0.0005
0.0005
0.0005
0.0005
0.0005
0.0005
0.0005
0.0005
0.0005
0.0005
0.0005
0.0005
0.0005
0.0005
0.0005
0.0005
0.0005
0.0005
0.0005
0.0005
0.0005
0.0005
0.0005
0.0005
0.0005
0.0005
0.0005
0.0005
0.0005
0.0005
0.0005
0.0005
0.0005
0.0005
0.0005
0.0005
0.0005
0.0005
0.0005
0.0005
0.0005
0.0005
0.0005
0.0005
0.0005
0.0005
0.0005
0.0005
0.0005
0.0005
0.0005
0.0005
0.0005
0.0005
0.0005
0.0005
0.0005
0.0005
0.0005
0.0005
0.0005
0.0005
0.0005
0.0005
0.0005
0.0005
0.0005
0.0005
0.0005
0.0005
0.0005
0.0005
0.0005
0.0005
0.0005
0.0005
0.0005
0.0005
0.0005
0.0005
0.0005
0.0005
0.0005
0.0005
0.0005
0.0005
0.0005
0.0005
0.0005
0.0005
0.0005
0.0005
0.0005
0.0005
0.0005
0.0005
0.0005
0.0005
0.0005
0.0005
0.0005
0.0005
0.0005
0.0005
0.0005
0.0005
0.0005
0.0005
0.0005
0.0005
0.0005
0.0005
0.0005
0.0005
0.0005
0.0005
0.0005
0.0005
0.0005
0.0005
0.0005
0.0005
0.0005
0.0005
0.0005
0.0005
0.0005
0.0005
0.0005
0.0005
0.0005
0.0005
0.0005
0.0005
0.0005
0.0005
0.0005
0.0005
0.0005
0.0005
0.0005
0.0005
0.0005
0.0005
0.0005
0.0005

SCALARS mass float 1
LOOKUP_TABLE default
1.46608e-07
1.46608e-07
1.46608e-07
1.46608e-07
1.46608e-07
1.46608e-07
1.46608e-07
1.46608e-07
1.46608e-07
1.46608e-07
1.46608e-07
1.46608e-07
1.46608e-07
1.46608e-07
1.46608e-07
1.46608e-07
1.46608e-07
1.46608e-07
1.46608e-07
1.46608e-07
1.46608e-07
1.46608e-07
1.46608e-07
1.46608e-07
1.46608e-07
1.46608e-07
1.46608e-07
1.46608e-07
1.46608e-07
1.46608e-07
1.46608e-07
1.46608e-07
1.46608e-07
1.46608e-07
1.46608e-07
1.46608e-07
1.46608e-07
1.46608e-07
1.46608e-07
1.46608e-07
1.46608e-07
1.46608e-07
1.46608e-07
1.46608e-07
1.46608e-07
1.46608e-07
1.46608e-07
1.46608e-07
1.46608e-07
1.46608e-07
1.46608e-07
1.46608e-07
1.46608e-07
1.46608e-07
1.46608e-07
1.46608e-07
1.46608e-07
1.46608e-07
1.46608e-07
1.46608e-07
1.46608e-07
1.46608e-07
1.46608e-07
1.46608e-07
1.46608e-07
1.46608e-07
1.46608e-07
1.46608e-07
1.46608e-07
1.46608e-07
1.46608e-07
1.46608e-07
1.46608e-07
1.46608e-07
1.46608e-07
1.46608e-07
1.46608e-07
1.46608e-07
1.46608e-07
1.46608e-07
1.46608e-07
1.46608e-07
1.46608e-07
1.46608e-07
1.46608e-07
1.46608e-07
1.46608e-07
1.46608e-07
1.46608e-07
1.46608e-07
1.46608e-07
1.46608e-07
1.46608e-07
1.46608e-07
1.46608e-07
1.46608e-07
1.46608e-07
1.46608e-07
1.46608e-07
1.46608e-07
1.46608e-07
1.46608e-07
1.46608e-07
1.46608e-07
1.46608e-07
1.46608e-07
1.46608e-07
1.46608e-07
1.46608e-07
1.46608e-07
1.46608e-07
1.46608e-07
1.46608e-07
1.46608e-07
1.46608e-07
1.46608e-07
1.46608e-07
1.46608e-07
1.46608e-07
1.46608e-07
1.46608e-07
1.46608e-07
1.46608e-07
1.46608e-07
1.46608e-07
1.46608e-07
1.46608e-07
1.46608e-07
1.46608e-07
1.46608e-07
1.46608e-07
1.46608e-07
1.46608e-07
1.46608e-07
1.46608e-07
1.46608e-07
1.46608e-07
1.46608e-07
1.46608e-07
1.46608e-07
1.46608e-07
1.46608e-07
1.46608e-07
1.46608e-07
1.46608e-07
1.46608e-07
1.46608e-07
1.46608e-07
1.46608e-07
1.46608e-07
1.46608e-07
1.46608e-07
1.46608e-07
1.46608e-07
1.46608e-07
1.46608e-07

VECTORS velocity float
-0.00462475 0.00905807 0.00644127
0.00148869 0.0119354 -0.00103076
0.00140743 -0.0141969 -0.0202879
-0.000310756 -0.0248122 -0.000652201
0.00268678 -0.00752054 -0.00545538
0.00113117 0.00253654 0.00205695
0.00079517 -0.0231487 0.00151473
0.00110339 0.0027405 -0.017437
0.00184514 -0.000274034 0.00217712
0.012627 -0.00225733 -0.00570674
0.0030893 -0.00650448 0.00743342
5.39563e-05 -0.0114987 0.00155162
0.000100693 0.0247503 0.00765588
2.42553e-09 0.028966 -0.00228118
0.00447744 0.000323202 -0.00653422
0.000231111 0.00997358 -0.00286058
-0.00057029 -0.00524509 0.023197
2.19032e-05 0.0129564 0.0223934
0.00111905 -0.00810192 0.0188609
3.11229e-317 3.40994e-317 -8.51801e-13
0.00121362 0.00187345 0.000792893
-1.4441e-15 -1.18159e-14 -7.96621e-14
0.00286721 0.01428 -0.00857103
0.00163033 0.000320821 0.00248117
5.49675e-15 -1.18155e-14 -1.22973e-13
0.00212116 0.0445133 0.0362621
0.00138644 0.00299713 0.0120161
0.000136781 -0.00157445 -0.0258836
0.00323264 0.0134412 -6.41559e-05
0.000633603 0.0192473 0.0177159
0.00164682 0.0152458 0.000576898
-0.000320001 0.0009277 -0.000636832
-0.000357403 0.00221482 0.00382991
2.2545e-15 -1.0195e-14 5.06406e-14
0.000477376 0.00119047 -0.00189414
3.56377e-05 -0.0121264 -0.000648458
0.00329784 0.0128493 -0.00779049
2.86919e-06 0.000974767 0.00167503
-0.0808244 -0.0476641 -0.0733673
0.0407445 4.53322 0.699436
0.00653628 -0.000373701 -0.00460463
0.000265682 -0.0203466 0.0139053
0.00376487 -0.00665778 -0.0174469
0.000526932 -0.00039793 -0.000363207
0.00566421 0.0170229 0.00665671
3.43928e-18 7.50625e-18 2.36047e-17
-4.23546e-05 0.00120962 -0.0018921
-0.00966898 0.0948022 0.0614883
2.31298e-18 -9.86314e-18 2.05418e-17
0.00132446 -0.0123915 -0.0172672
0.0150996 -0.0060516 0.00639281
-0.0829737 -0.0923998 0.0890262
-0.000191652 -0.0128761 -0.00575493
0.00111402 -0.00800634 -0.021198
0.00596694 0.00864578 0.00167188
0.016904 0.0297092 -0.00367147
0.00295371 0.00955105 0.00103265
0.00648033 0.0103738 -0.00664247
0.00100626 0.00116235 -0.00210333
-0.00179331 0.0231418 -0.00129257
0.00590214 -0.00104599 0.00352383
0.000184816 -0.00182925 0.00471176
-3.02489e-16 6.48812e-16 2.33932e-15
0.000749258 0.0180527 -0.0159396
0.00282245 -0.00038546 0.00346381
-0.0109253 0.00569801 -0.00699163
-0.0115837 0.0276615 -0.0197158
-8.78828e-19 -3.88628e-19 2.38003e-17
0.000486496 0.000709902 -0.00818403
0.000872616 -0.000122689 0.00221695
0.000892824 0.0144977 0.0219467
-1.00427e-14 3.40612e-14 -1.5701e-13
0.000258983 -0.00188783 0.00357555
-0.000486984 0.00122023 0.000669077
-0.0148734 0.0465795 -0.0700736
0.000710457 0.000488335 9.38133e-05
-1.43149e-14 4.13051e-14 2.26977e-13
0.000125443 -0.0140036 -0.0192576
0.00178338 -0.000276422 -0.00150125
0.000185846 0.0226648 -0.00914678
6.79499e-08 0.0289495 -0.00261981
0.00183225 0.00569767 0.0178142
0.000737971 0.00129037 -0.000619314
0.00637909 0.00530425 -0.00274098
6.8447e-15 9.51457e-15 1.35987e-13
0.00270564 0.0123174 -0.000240264
0.000196452 -0.000358927 -0.00045419
-7.40801e-05 0.000135714 -0.000699656
-4.47615e-05 0.000343045 0.000208955
0.000791169 0.0325335 -0.0173155
0.000764952 0.0191334 -0.00351261
-0.000681204 0.0233623 0.0127705
-0.000581658 -0.000154077 -0.000337983
0.00292177 0.0123914 -0.0122519
-5.8318e-317 -8.59315e-317 1.3543e-12
0.00126153 0.000887078 -0.00063905
0.00069224 -0.00173287 -0.0158113
0.00120526 0.0191795 0.00921485
0.000667876 0.00204424 0.00137563
3.16485e-317 -6.3283e-317 2.45735e-12
-0.000162583 0.000682941 -0.000109499
0.00220853 0.00161328 -0.00147791
0.00428731 0.00971953 -0.00160457
4.74056e-15 7.08688e-16 -7.72385e-14
-0.0197197 0.0703834 0.234066
-3.97254e-06 -0.0222191 -0.013096
0.00252503 0.0078928 0.0107895
-0.00168425 0.00232406 -0.00218228
0.00394068 0.00510763 -0.00224001
0.00040847 3.65444e-05 -0.00131923
0.000350191 -0.00129666 -0.00218974
7.55777e-05 -0.0246886 -0.00593483
0.000777718 0.0176586 -0.000892933
-0.000191546 -0.000584144 -0.000801806
0.000852902 0.00200451 -0.00559588
0.0427601 0.0250289 -0.033038
2.1729e-15 -1.20505e-14 -2.05226e-13
2.3211e-14 -2.14818e-16 2.72287e-13
-0.000967787 -0.000567529 -0.000417789
0.000554893 0.00364192 0.0226255
-0.0184608 0.0091048 -0.0128728
0.0154269 0.0245048 -0.0139507
0.00477146 0.00115613 0.00355378
0.000460406 0.0190497 0.0102217
0.00313029 0.00394873 0.000834204
0.000852592 0.0012328 0.000855868
-0.0128579 0.0126811 -0.0322177
0.00370011 0.00333598 -0.00299067
0.00348261 0.0108941 0.000974149
0.000334167 0.0231539 0.0126105
0.00329363 -0.000829526 -0.00378847
0.000222682 -0.0185372 -0.0172737
0.000133808 0.0112113 -0.0231089
0.00128714 0.00531727 0.00528377
-0.0112635 -0.00370155 -0.00476297
-8.54816e-15 4.08198e-14 -2.01655e-13
0.00188625 -0.000445981 0.00401238
0.00171822 -0.0175305 0.0164915
-3.39191e-05 0.014771 -0.021607
-0.00815814 0.00231636 0.200787
0.000591578 0.00533206 0.00132539
-0.00431597 0.00648763 -0.00465334
0.00205028 0.0024048 -0.00827512
0.00155617 0.000783477 0.00259487
0.0039106 0.00332262 0.00904917
0.000579021 0.0037542 -0.0072581
0.000660667 -0.0205156 0.00941497
2.53284e-16 -1.16675e-16 2.32278e-15
0.00260651 -0.000380946 -0.00349873
0.000154683 -0.0243703 -0.00461055
-1.21151e-14 -2.08815e-15 1.97907e-13
-0.000286132 0.00255675 -0.0081342
0.000979881 -0.021519 0.0104055
0.000283643 0.0231083 -0.0180999
-6.66485e-15 -2.73377e-15 5.51363e-14
-2.72092e-05 -0.0016016 0.00417477

VECTORS force float
0.0 0.0 -1.43822e-06
-4.01769e-08 2.04007e-07 -4.21145e-08
-4.32818e-08 -7.27044e-08 -4.57481e-08
1.33336e-08 -1.10344e-08 1.02523e-08
2.35047e-06 -4.9653e-07 -8.51403e-07
-3.3812e-06 1.36372e-06 1.17807e-06
-1.04225e-08 -2.23634e-08 1.40593e-08
-6.98355e-09 1.40879e-08 -4.18866e-07
1.827e-07 1.58895e-07 3.77239e-07
0.0 0.0 -1.43822e-06
-1.29795e-09 5.50416e-08 -1.42134e-07
-1.7344e-07 2.05615e-06 -4.15073e-06
-7.85658e-10 1.00262e-08 -1.13284e-08
-7.78116e-14 -1.911e-09 -2.32009e-08
8.70212e-08 -6.30362e-07 8.10371e-08
-4.85678e-06 1.30259e-06 -1.69595e-06
-9.73111e-09 5.99731e-08 -1.08658e-08
-6.07991e-10 1.58206e-08 -5.05333e-09
1.7778e-09 2.14082e-08 -2.49149e-09
-2.265e-320 2.4684e-320 0.0
2.76976e-07 1.36216e-06 2.75198e-07
1.01835e-18 -3.69915e-19 2.71051e-20
4.00845e-07 3.018e-07 1.70928e-07
-5.62103e-07 2.59078e-07 -8.90557e-07
6.4851e-20 2.06464e-21 2.96462e-21
0.0 0.0 -1.43822e-06
1.23151e-08 5.20559e-09 2.03945e-08
-1.20623e-09 -1.39217e-08 -7.09885e-09
-1.47421e-05 1.16158e-06 -8.51308e-06
8.03439e-09 1.66755e-08 -3.90203e-09
-1.46012e-08 -2.08911e-07 -4.26746e-08
-1.85248e-07 4.67902e-09 -8.29689e-08
-2.98505e-06 -1.16859e-06 9.62848e-07
5.94776e-20 -1.37643e-20 -5.29396e-21
2.28095e-08 3.31746e-07 -3.22554e-07
2.20366e-07 -7.75734e-08 -3.43469e-08
-2.64456e-07 -6.25277e-08 -1.63195e-07
0.0 0.0 -1.43822e-06
0.0 0.0 -1.43822e-06
0.0159677 0.0636625 0.0376415
-1.36923e-06 -8.52687e-07 -3.00967e-06
-1.90439e-09 1.29341e-09 1.59226e-08
-2.09215e-08 -7.29663e-08 -1.22462e-07
4.43546e-07 1.79988e-06 -1.0483e-06
6.22423e-06 3.14493e-07 1.00626e-06
0.0 0.0 0.0
1.2185e-08 -1.11825e-07 1.78395e-07
0.0 0.0 -1.43822e-06
0.0 0.0 0.0
-1.20673e-08 -3.38931e-08 -1.57313e-08
0.0 0.0 -1.43822e-06
0.0 0.0 -1.43822e-06
1.57984e-08 -5.63558e-07 -1.66663e-07
-1.03665e-08 -3.22894e-08 -3.43419e-08
-1.73712e-07 4.57185e-07 4.21677e-06
0.0 0.0 -1.43822e-06
-1.22129e-07 2.28675e-07 -3.94183e-08
0.0 0.0 -1.43822e-06
-2.95898e-07 2.81355e-07 1.14969e-06
4.49443e-07 3.2761e-07 4.76873e-07
-2.44829e-09 -1.71495e-08 -1.4861e-06
3.33905e-08 -7.43139e-07 1.25122e-06
8.41656e-23 -1.72054e-22 -8.47033e-22
-8.05638e-09 1.26553e-09 -1.88179e-08
4.97325e-07 1.08172e-07 -4.16074e-07
1.51095e-07 1.08802e-06 -2.89405e-08
0.0 0.0 -1.43822e-06
0.0 0.0 0.0
0.0 0.0 -1.43822e-06
6.82286e-07 3.57138e-07 9.02068e-07
5.5127e-09 1.03459e-08 -6.96102e-09
1.58819e-22 1.05879e-22 0.0
-4.13223e-07 1.75415e-07 2.148e-06
-1.23154e-06 1.18055e-07 -1.35123e-07
0.0 0.0 -1.43822e-06
-2.20379e-06 -5.08803e-07 1.28719e-06
-1.13555e-20 -5.29396e-22 -6.35275e-22
4.81559e-09 -5.5749e-08 -3.80197e-08
0.0 0.0 -1.43822e-06
-2.08228e-09 1.68311e-09 -1.58079e-08
-8.47622e-11 -2.46702e-09 -2.31835e-08
-1.5701e-07 -8.44861e-08 -4.07475e-07
1.0027e-06 3.0984e-07 7.77974e-07
-1.50794e-07 1.17216e-05 -8.87733e-06
9.9394e-21 5.28204e-20 -4.02341e-21
8.27051e-07 -9.36596e-06 8.26732e-06
-1.18353e-07 2.93597e-07 -9.33959e-07
-2.57174e-07 3.97127e-07 -3.14786e-07
-1.0148e-06 8.49118e-07 -1.63102e-06
0.0 0.0 -1.43822e-06
-8.56115e-06 -9.39472e-07 2.67793e-06
0.0 0.0 -1.43822e-06
3.64705e-07 -3.6341e-07 4.57381e-08
3.84293e-08 -2.08265e-07 3.39827e-07
2.3305e-320 3.303e-320 0.0
-6.99047e-07 6.25303e-07 -1.07378e-06
-6.34656e-09 -3.81484e-09 3.89481e-08
-3.58663e-08 -1.14798e-09 8.85082e-08
-2.05862e-07 -1.60569e-06 1.44155e-06
2.4684e-320 -2.469e-320 0.0
-4.2159e-06 -1.7012e-07 2.20983e-06
-5.11774e-07 -2.46155e-07 1.53016e-06
-8.83761e-06 5.46723e-06 -7.90512e-06
-3.29549e-21 3.67086e-20 2.11758e-22
0.0 0.0 -1.43822e-06
-1.10297e-09 -9.68778e-09 1.20154e-08
-8.18494e-08 -4.66944e-07 -2.25823e-07
5.05171e-07 -3.46906e-07 8.1463e-07
5.04278e-07 -1.81234e-06 1.11576e-06
6.31245e-07 6.09389e-07 2.08374e-06
0.0 0.0 -1.43822e-06
-7.57396e-10 -7.7483e-09 1.24262e-08
-2.45406e-06 2.68165e-06 -9.20848e-06
7.7437e-08 -1.70753e-08 1.04601e-07
3.13923e-08 2.11531e-07 1.14921e-07
0.0 0.0 -1.43822e-06
2.23971e-19 2.51264e-19 -1.18585e-20
-6.35275e-22 -1.01927e-20 0.0
5.62564e-07 -8.78513e-08 -1.00173e-07
-6.64722e-09 1.67076e-08 1.69571e-08
0.0 0.0 -1.43822e-06
0.0 0.0 -1.43822e-06
-1.09425e-07 -1.27908e-07 -4.17535e-07
-7.16121e-09 4.34932e-08 1.0558e-08
1.00746e-05 -7.39852e-06 -3.34355e-06
1.88777e-06 -1.89159e-06 -1.38455e-06
0.0 0.0 -1.43822e-06
3.34191e-08 9.45973e-08 -1.49246e-06
-5.89217e-06 -3.49719e-07 -5.73028e-07
-8.80943e-09 9.5441e-09 -6.75977e-09
1.97705e-07 1.29677e-07 7.62625e-07
-2.50229e-10 -1.40245e-08 7.08026e-09
-1.42417e-09 -1.22733e-08 -1.12896e-08
-1.41336e-07 -6.23789e-08 8.17736e-08
0.0 0.0 -1.43822e-06
1.05257e-19 -7.03567e-20 -1.88465e-20
-5.87941e-07 -3.18578e-07 9.11593e-07
1.55277e-08 9.93892e-08 -1.41057e-07
9.27288e-11 -1.29839e-08 -9.57676e-09
0.0 0.0 -1.43822e-06
-1.2912e-08 1.64445e-07 -1.25677e-06
-1.927e-07 1.40741e-08 -1.1729e-06
0.0 0.0 -1.43822e-06
-1.71126e-07 -1.20319e-07 -7.72909e-07
0.0 0.0 -1.43822e-06
2.74093e-07 1.08466e-07 -4.33648e-07
2.02017e-09 9.18646e-09 1.86102e-08
2.17135e-23 2.64698e-23 -6.35275e-22
0.0 0.0 -1.43822e-06
-1.3974e-07 -2.67379e-07 3.30572e-09
2.52786e-21 -3.53835e-20 -2.11758e-22
-9.18926e-07 4.16528e-07 -1.18035e-06
-5.27775e-07 -2.0483e-06 3.41619e-06
0.0 0.0 -1.43822e-06
-4.00488e-20 9.66941e-20 -2.11758e-22
-3.78715e-07 1.01054e-06 -7.05276e-07
