# vtk DataFile Version 3.0
LIGGGHTS particles timestep 7000000
ASCII
DATASET POLYDATA
POINTS 221 float
0.0250265 0.0166493 0.0161703
0.0310767 0.0213122 0.00780468
0.015287 0.0233312 0.014623
0.0294287 0.0150825 0.0100705
0.0297798 0.0148058 0.0112837
0.02454 0.0158889 0.0156816
0.0167911 0.0195667 0.0167203
0.0212738 0.0240105 0.0142533
0.0256371 0.0229256 0.00950156
0.021375 0.0239373 0.0132587
0.0203277 0.0237218 0.0144209
0.0166328 0.0140142 0.0141558
0.0201276 0.0150593 0.0149045
0.0178555 0.0170649 0.0154833
0.0285174 0.0154566 0.0138216
0.0239709 0.0164863 0.00804771
0.0275613 0.0190409 0.0158355
0.0237262 0.0177918 0.0158391
0.0187345 0.0159482 0.0157386
0.0228114 0.0211944 0.0165517
0.0163884 0.0199365 0.0158642
0.0207303 0.0232991 0.0106132
0.0277759 0.018135 0.0157191
0.0332114 0.0205586 0.0154316
0.0220484 0.0216377 0.0153924
0.0235499 0.0217899 0.0160433
0.0102642 0.0380998 0.0402649
0.0162614 0.0232539 0.0130231
0.0150743 0.0165796 0.0162745
0.0454257 0.0173169 0.00620813
0.0227211 0.0222017 0.0147242
0.0315366 0.0226588 0.00907319
0.0178657 0.0229575 0.0161053
0.0190274 0.0231667 0.0147793
0.0223368 0.0227374 0.013979
0.0487553 0.0195855 0.00596623
0.0147312 0.0226338 0.0141457
0.0283219 0.0160144 0.01454
0.0307166 0.0197244 0.00730883
0.0243587 0.0182155 0.00729897
0.0323892 0.0231694 0.0128646
0.0157635 0.0145033 0.014227
0.0272139 0.0207293 0.0154747
0.0140853 0.0214735 0.016199
0.0214915 0.0142465 0.0136949
0.0196352 0.0242601 0.0132255
0.0326418 0.023168 0.0101445
0.0180481 0.0148752 0.0130658
0.0196601 0.014009 0.0129553
0.0227484 0.0222308 0.0166511
0.0221407 0.0236866 0.0138359
0.0309747 0.0185426 0.00721863
0.0199619 0.0137206 0.01877
0.0173804 0.0155914 0.0142886
0.0280426 0.0169741 0.0152216
0.0161147 0.0208513 0.0155677
0.0217279 0.018933 0.0159568
0.0221877 0.0165649 0.0151921
0.0155824 0.0192607 0.0159394
0.0229492 0.0149728 0.0148965
0.0222393 0.0207746 0.0158455
0.022673 0.0200542 0.00582605
0.0219132 0.0177291 0.0157434
0.0174318 0.0141994 0.0147278
0.0161044 0.0237116 0.014188
0.0139123 0.0223174 0.0156563
0.0247624 0.0198594 0.00726208
0.0198076 0.0214998 0.0161849
0.0161869 0.0165671 0.015199
0.0144746 0.0229227 0.0150899
0.0239705 0.0157475 0.0148722
0.0151638 0.0211353 0.0154251
0.0247774 0.0202681 0.0166164
0.0225775 0.0200421 0.0166291
0.0198747 0.0233124 0.01077
0.0317772 0.0232216 0.010268
0.0236713 0.0216444 0.0170249
0.0164049 0.0158156 0.0145691
0.0206052 0.022248 0.0157172
0.0165947 0.021807 0.017178
0.0168496 0.0173013 0.0156056
0.023034 0.022695 0.0157361
0.0186545 0.0225193 0.015445
0.0180411 0.0239364 0.0162073
0.0193565 0.022165 0.00861425
0.0240348 0.0195354 0.00581891
0.020634 0.0140789 0.0131712
0.0253107 0.0211706 0.0163217
0.0157016 0.0224147 0.0144101
0.0246731 0.0219455 0.0158884
0.0149546 0.0219456 0.0148779
0.0186657 0.0217023 0.0160214
0.0248475 0.0201155 0.00587393
0.016527 0.0233992 0.0162463
0.022939 0.0171504 0.0155323
0.0177737 0.0243639 0.0137999
0.0165414 0.0207228 0.0164628
0.0270174 0.0214113 0.0150545
0.0187449 0.0240943 0.0127971
0.030292 0.018006 0.00733161
0.020622 0.0239935 0.012623
0.0196112 0.0223255 0.0156569
0.0174548 0.0146774 0.0138461
0.0227603 0.0184141 0.0158958
0.0239779 0.0166738 0.0152541
0.0300868 0.0168675 0.00776638
0.0187402 0.0197819 0.00726324
0.0183878 0.0236031 0.0141263
0.0266703 0.02229 0.0140451
0.024262 0.0211408 0.0163154
0.0218761 0.0230624 0.0161997
0.0176594 0.0239078 0.0147352
0.0326965 0.0224065 0.0142245
0.0144345 0.0151397 0.0150324
0.0167876 0.0220465 0.0162265
0.0171645 0.0205709 0.0156868
0.0203925 0.0238664 0.0158656
0.0172998 0.0182769 0.0158794
0.0222864 0.0230393 0.0151684
0.0557224 0.0193212 0.00585087
0.0232797 0.0231303 0.0147915
0.0164614 0.0228021 0.0138907
0.0150094 0.0157277 0.0156025
0.0171884 0.0162862 0.0149822
0.0160729 0.0235073 0.015228
0.0139895 0.0178697 0.0219632
0.0216333 0.0148875 0.0147595
0.017701 0.0211256 0.0163224
0.0154372 0.0226748 0.0153637
0.0142048 0.0196128 0.0168072
0.0199491 0.0230567 0.0162499
0.019275 0.0147269 0.0145012
0.0261768 0.0233528 0.0119768
0.0177114 0.0220045 0.0158457
0.00830357 0.0326771 0.0435351
0.0170195 0.014665 0.0123114
0.0179435 0.0146259 0.0119313
0.0253816 0.0222995 0.00877187
0.016677 0.022196 0.014656
0.0165711 0.0189576 0.0159584
0.0194908 0.0237525 0.0154446
0.0365933 0.0210052 0.0435188
0.0225929 0.0238624 0.014698
0.0189917 0.0209826 0.00766413
0.0167085 0.0227305 0.0155015
0.0230124 0.0214253 0.0152741
0.0226754 0.0150865 0.0135109
0.0224399 0.0157124 0.0144482
0.0199349 0.0143372 0.0138589
0.0222039 0.0151209 0.0155468
0.0210039 0.0231757 0.0129114
0.0159153 0.0216964 0.015072
0.0167748 0.016187 0.0166583
0.0158576 0.0226568 0.0162736
0.0148898 0.0219947 0.0158872
0.0130955 0.021167 0.0163179
0.0138073 0.020507 0.0165594
0.0166172 0.0152171 0.0137622
0.0169087 0.0238943 0.0136229
0.0183558 0.015457 0.0141142
0.029756 0.0159094 0.00859676
0.0173757 0.0196198 0.0159108
0.0179336 0.0201991 0.0166182
0.0175587 0.024026 0.0128727
0.019786 0.0187341 0.0173031
0.0181642 0.0161203 0.0148376
0.0213101 0.0234207 0.0154456
0.0167494 0.0143438 0.013219
0.0151281 0.0222513 0.0168265
0.0233283 0.014928 0.0104425
0.0247846 0.0188604 0.0167509
0.0183126 0.0144866 0.0143517
0.0239646 0.0195548 0.0166983
0.0286896 0.0188118 0.00592076
0.0155009 0.0229788 0.0136103
0.0231113 0.0162524 0.0149568
0.0169433 0.023217 0.01466
0.0223818 0.0144719 0.0142429
0.0186045 0.0152219 0.0150537
0.0193992 0.0237038 0.0140223
0.0214279 0.0228251 0.0143801
0.0232163 0.0205982 0.01585
0.0264049 0.0231964 0.0101858
0.0289769 0.0147993 0.0116479
0.0180256 0.013947 0.0134371
0.0233206 0.0196059 0.0159353
0.0172756 0.020741 0.0171416
0.0197639 0.0217025 0.00807533
0.0153659 0.0202247 0.0157849
0.0168763 0.021433 0.0152705
0.0257679 0.0200819 0.0166602
0.0213052 0.0234255 0.0122163
0.0259137 0.0233546 0.0109431
0.0166815 0.0148596 0.0146938
0.0239629 0.0226176 0.0153708
0.0391006 0.0190317 0.00571839
0.0202625 0.0234451 0.0130107
0.0235238 0.0152349 0.00943605
0.0153606 0.0209256 0.0164982
0.0154304 0.0150618 0.0149865
0.0158014 0.0182866 0.0158821
0.0206231 0.0229579 0.0138039
0.0172595 0.0235724 0.015588
0.0220138 0.0232551 0.0129245
0.0199983 0.0229987 0.0150274
0.021491 0.0224543 0.015304
0.0157724 0.0199362 0.016652
0.0207874 0.0145964 0.0143127
0.0158707 0.021676 0.0160781
0.0211232 0.0213957 0.0156587
0.0205389 0.0243212 0.0136494
0.0187701 0.0244274 0.0137378
0.0233578 0.0154713 0.0141321
0.0292624 0.0209762 0.0061071
0.017905 0.0229747 0.0149667
0.0188842 0.0208202 0.0164388
0.0295888 0.0154082 0.0092341
0.0213316 0.0204287 0.0160517
0.0189657 0.0142186 0.0136435
0.0207835 0.0225062 0.00898768
0.0197042 0.0229703 0.00979916

VERTICES 221 442
1 0
1 1
1 2
1 3
1 4
1 5
1 6
1 7
1 8
1 9
1 10
1 11
1 12
1 13
1 14
1 15
1 16
1 17
1 18
1 19
1 20
1 21
1 22
1 23
1 24
1 25
1 26
1 27
1 28
1 29
1 30
1 31
1 32
1 33
1 34
1 35
1 36
1 37
1 38
1 39
1 40
1 41
1 42
1 43
1 44
1 45
1 46
1 47
1 48
1 49
1 50
1 51
1 52
1 53
1 54
1 55
1 56
1 57
1 58
1 59
1 60
1 61
1 62
1 63
1 64
1 65
1 66
1 67
1 68
1 69
1 70
1 71
1 72
1 73
1 74
1 75
1 76
1 77
1 78
1 79
1 80
1 81
1 82
1 83
1 84
1 85
1 86
1 87
1 88
1 89
1 90
1 91
1 92
1 93
1 94
1 95
1 96
1 97
1 98
1 99
1 100
1 101
1 102
1 103
1 104
1 105
1 106
1 107
1 108
1 109
1 110
1 111
1 112
1 113
1 114
1 115
1 116
1 117
1 118
1 119
1 120
1 121
1 122
1 123
1 124
1 125
1 126
1 127
1 128
1 129
1 130
1 131
1 132
1 133
1 134
1 135
1 136
1 137
1 138
1 139
1 140
1 141
1 142
1 143
1 144
1 145
1 146
1 147
1 148
1 149
1 150
1 151
1 152
1 153
1 154
1 155
1 156
1 157
1 158
1 159
1 160
1 161
1 162
1 163
1 164
1 165
1 166
1 167
1 168
1 169
1 170
1 171
1 172
1 173
1 174
1 175
1 176
1 177
1 178
1 179
1 180
1 181
1 182
1 183
1 184
1 185
1 186
1 187
1 188
1 189
1 190
1 191
1 192
1 193
1 194
1 195
1 196
1 197
1 198
1 199
1 200
1 201
1 202
1 203
1 204
1 205
1 206
1 207
1 208
1 209
1 210
1 211
1 212
1 213
1 214
1 215
1 216
1 217
1 218
1 219
1 220

POINT_DATA 221
SCALARS id int 1
LOOKUP_TABLE default
2
3
4
5
6
7
8
10
11
12
13
15
16
17
18
19
21
22
23
24
25
26
27
28
29
31
33
34
35
36
38
39
41
44
45
47
49
50
54
55
56
57
58
59
60
61
62
63
64
65
66
67
69
70
71
73
75
76
78
79
81
82
85
86
87
88
89
90
91
92
93
94
95
96
98
101
103
104
105
107
111
113
115
119
120
121
122
123
127
130
133
137
138
139
140
141
142
143
144
147
149
150
151
152
153
154
155
156
157
160
161
162
164
166
167
168
169
172
175
176
177
178
179
180
183
184
185
188
189
190
192
193
198
200
201
207
208
209
210
212
213
215
216
219
220
221
222
224
227
228
229
231
236
237
238
239
240
242
243
244
246
247
248
250
251
252
253
257
258
259
261
262
263
264
266
267
268
271
272
273
276
277
279
280
281
285
287
288
289
290
291
294
296
297
298
299
300
301
302
305
306
308
309
312
313
314
319
320
321
324
325
326
327
328
331
332
334
338
339
340
341

SCALARS type int 1
LOOKUP_TABLE default
1
1
1
1
1
1
1
1
1
1
1
1
1
1
1
1
1
1
1
1
1
1
1
1
1
1
1
1
1
1
1
1
1
1
1
1
1
1
1
1
1
1
1
1
1
1
1
1
1
1
1
1
1
1
1
1
1
1
1
1
1
1
1
1
1
1
1
1
1
1
1
1
1
1
1
1
1
1
1
1
1
1
1
1
1
1
1
1
1
1
1
1
1
1
1
1
1
1
1
1
1
1
1
1
1
1
1
1
1
1
1
1
1
1
1
1
1
1
1
1
1
1
1
1
1
1
1
1
1
1
1
1
1
1
1
1
1
1
1
1
1
1
1
1
1
1
1
1
1
1
1
1
1
1
1
1
1
1
1
1
1
1
1
1
1
1
1
1
1
1
1
1
1
1
1
1
1
1
1
1
1
1
1
1
1
1
1
1
1
1
1
1
1
1
1
1
1
1
1
1
1
1
1
1
1
1
1
1
1
1
1
1
1
1
1
1
1
1
1
1
1

SCALARS radius float 1
LOOKUP_TABLE default
0.0005
0.0005
0.0005
0.0005
0.0005
0.0005
0.0005
0.0005
0.0005
0.0005
0.0005
0.0005
0.0005
0.0005
0.0005
0.0005
0.0005
0.0005
0.0005
0.0005
0.0005
0.0005
0.0005
0.0005
0.0005
0.0005
0.0005
0.0005
0.0005
0.0005
0.0005
0.0005
0.0005
0.0005
0.0005
0.0005
0.0005
0.0005
0.0005
0.0005
0.0005
0.0005
0.0005
0.0005
0.0005
0.0005
0.0005
0.0005
0.0005
0.0005
0.0005
0.0005
0.0005
0.0005
0.0005
0.0005
0.0005
0.0005
0.0005
0.0005
0.0005
0.0005
0.0005
0.0005
0.0005
0.0005
0.0005
0.0005
0.0005
0.0005
0.0005
0.0005
0.0005
0.0005
0.0005
0.0005
0.0005
0.0005
0.0005
0.0005
0.0005
0.0005
0.0005
0.0005
0.0005
0.0005
0.0005
0.0005
0.0005
0.0005
0.0005
0.0005
0.0005
0.0005
0.0005
0.0005
0.0005
0.0005
0.0005
0.0005
0.0005
0.0005
0.0005
0.0005
0.0005
0.0005
0.0005
0.0005
0.0005
0.0005
0.0005
0.0005
0.0005
0.0005
0.0005
0.0005
0.0005
0.0005
0.0005
0.0005
0.0005
0.0005
0.0005
0.0005
0.0005
0.0005
0.0005
0.0005
0.0005
0.0005
0.0005
0.0005
0.0005
0.0005
0.0005
0.0005
0.0005
0.0005
0.0005
0.0005
0.0005
0.0005
0.0005
0.0005
0.0005
0.0005
0.0005
0.0005
0.0005
0.0005
0.0005
0.0005
0.0005
0.0005
0.0005
0.0005
0.0005
0.0005
0.0005
0.0005
0.0005
0.0005
0.0005
0.0005
0.0005
0.0005
0.0005
0.0005
0.0005
0.0005
0.0005
0.0005
0.0005
0.0005
0.0005
0.0005
0.0005
0.0005
0.0005
0.0005
0.0005
0.0005
0.0005
0.0005
0.0005
0.0005
0.0005
0.0005
0.0005
0.0005
0.0005
0.0005
0.0005
0.0005
0.0005
0.0005
0.0005
0.0005
0.0005
0.0005
0.0005
0.0005
0.0005
0.0005
0.0005
0.0005
0.0005
0.0005
0.0005
0.0005
0.0005
0.0005
0.0005
0.0005
0.0005
0.0005
0.0005
0.0005
0.0005
0.0005
0.0005

SCALARS mass float 1
LOOKUP_TABLE default
1.46608e-07
1.46608e-07
1.46608e-07
1.46608e-07
1.46608e-07
1.46608e-07
1.46608e-07
1.46608e-07
1.46608e-07
1.46608e-07
1.46608e-07
1.46608e-07
1.46608e-07
1.46608e-07
1.46608e-07
1.46608e-07
1.46608e-07
1.46608e-07
1.46608e-07
1.46608e-07
1.46608e-07
1.46608e-07
1.46608e-07
1.46608e-07
1.46608e-07
1.46608e-07
1.46608e-07
1.46608e-07
1.46608e-07
1.46608e-07
1.46608e-07
1.46608e-07
1.46608e-07
1.46608e-07
1.46608e-07
1.46608e-07
1.46608e-07
1.46608e-07
1.46608e-07
1.46608e-07
1.46608e-07
1.46608e-07
1.46608e-07
1.46608e-07
1.46608e-07
1.46608e-07
1.46608e-07
1.46608e-07
1.46608e-07
1.46608e-07
1.46608e-07
1.46608e-07
1.46608e-07
1.46608e-07
1.46608e-07
1.46608e-07
1.46608e-07
1.46608e-07
1.46608e-07
1.46608e-07
1.46608e-07
1.46608e-07
1.46608e-07
1.46608e-07
1.46608e-07
1.46608e-07
1.46608e-07
1.46608e-07
1.46608e-07
1.46608e-07
1.46608e-07
1.46608e-07
1.46608e-07
1.46608e-07
1.46608e-07
1.46608e-07
1.46608e-07
1.46608e-07
1.46608e-07
1.46608e-07
1.46608e-07
1.46608e-07
1.46608e-07
1.46608e-07
1.46608e-07
1.46608e-07
1.46608e-07
1.46608e-07
1.46608e-07
1.46608e-07
1.46608e-07
1.46608e-07
1.46608e-07
1.46608e-07
1.46608e-07
1.46608e-07
1.46608e-07
1.46608e-07
1.46608e-07
1.46608e-07
1.46608e-07
1.46608e-07
1.46608e-07
1.46608e-07
1.46608e-07
1.46608e-07
1.46608e-07
1.46608e-07
1.46608e-07
1.46608e-07
1.46608e-07
1.46608e-07
1.46608e-07
1.46608e-07
1.46608e-07
1.46608e-07
1.46608e-07
1.46608e-07
1.46608e-07
1.46608e-07
1.46608e-07
1.46608e-07
1.46608e-07
1.46608e-07
1.46608e-07
1.46608e-07
1.46608e-07
1.46608e-07
1.46608e-07
1.46608e-07
1.46608e-07
1.46608e-07
1.46608e-07
1.46608e-07
1.46608e-07
1.46608e-07
1.46608e-07
1.46608e-07
1.46608e-07
1.46608e-07
1.46608e-07
1.46608e-07
1.46608e-07
1.46608e-07
1.46608e-07
1.46608e-07
1.46608e-07
1.46608e-07
1.46608e-07
1.46608e-07
1.46608e-07
1.46608e-07
1.46608e-07
1.46608e-07
1.46608e-07
1.46608e-07
1.46608e-07
1.46608e-07
1.46608e-07
1.46608e-07
1.46608e-07
1.46608e-07
1.46608e-07
1.46608e-07
1.46608e-07
1.46608e-07
1.46608e-07
1.46608e-07
1.46608e-07
1.46608e-07
1.46608e-07
1.46608e-07
1.46608e-07
1.46608e-07
1.46608e-07
1.46608e-07
1.46608e-07
1.46608e-07
1.46608e-07
1.46608e-07
1.46608e-07
1.46608e-07
1.46608e-07
1.46608e-07
1.46608e-07
1.46608e-07
1.46608e-07
1.46608e-07
1.46608e-07
1.46608e-07
1.46608e-07
1.46608e-07
1.46608e-07
1.46608e-07
1.46608e-07
1.46608e-07
1.46608e-07
1.46608e-07
1.46608e-07
1.46608e-07
1.46608e-07
1.46608e-07
1.46608e-07
1.46608e-07
1.46608e-07
1.46608e-07
1.46608e-07
1.46608e-07
1.46608e-07
1.46608e-07
1.46608e-07
1.46608e-07
1.46608e-07
1.46608e-07
1.46608e-07
1.46608e-07
1.46608e-07
1.46608e-07
1.46608e-07
1.46608e-07
1.46608e-07

VECTORS velocity float
0.000894466 -0.00123595 -0.000490943
0.000432932 -0.0109965 -0.00423193
-0.00320976 0.00850385 0.0151625
0.00289047 -0.0053558 0.0177611
-0.125321 5.73418 0.408668
0.00454885 0.00571205 0.00251301
-0.00101127 0.0107924 -0.00188514
0.00244999 0.00102196 -0.00493481
0.00183801 -0.00789476 -0.015748
-0.000590083 -8.00253e-06 -0.000265681
0.000792667 -0.0012412 0.000822218
0.000522319 -0.00050642 0.000988322
-8.19382e-05 -0.000252765 0.000741824
-0.000611535 -0.00896077 0.0362115
0.000312429 0.0114304 0.0228223
0.000311955 -0.0202358 0.0147171
0.000675449 0.0233607 -0.000318531
0.000137116 0.00315758 -0.0243919
0.00267049 -0.0122162 -0.00677501
0.0114514 0.0101489 0.00971083
0.00561525 0.00445567 0.000461752
0.000161678 -0.00495319 -0.0232325
0.00133647 0.0222802 0.00784978
0.000124726 0.0230533 -0.00938251
0.00549663 0.00392077 -0.00386127
0.0089834 0.00790802 -0.00478222
0.000308946 0.036817 -0.401613
0.00670466 0.00239098 -0.00410322
-0.00322355 0.00328446 -0.0316182
-3.63803e-15 -1.11782e-14 -7.96977e-14
0.00283857 0.00167642 0.000873273
0.00194984 -0.0116433 -0.015876
0.00300599 0.00173252 0.00243607
-0.00448212 0.00208982 7.32602e-05
-0.000521596 0.00129874 0.00128209
-7.05371e-16 1.37121e-15 1.40074e-14
0.00559053 0.00130287 -0.00345182
0.00141171 0.014064 0.0144914
6.2602e-05 -0.0252916 -0.00436163
0.000428101 -0.0245572 0.00432544
0.000345564 0.00979709 -0.0235888
0.000307807 -0.00137925 0.0015755
0.00201507 -0.0121162 0.00102381
-0.00254029 -0.0445415 0.0200288
0.000462647 0.000528538 -6.67605e-05
-0.000842638 -0.00123726 -0.001777
0.000841832 -0.00396074 -0.0124375
0.00113027 4.13955e-05 -0.00677931
-0.00010535 0.000375096 -0.000316056
-0.00292808 -0.00382908 -0.015003
-0.000284833 0.000640504 8.52177e-05
0.000704304 -0.0193202 0.000822724
-0.0194723 0.0759324 -0.0350153
0.00509967 0.00236741 0.0013728
0.000121141 0.0218956 0.0128504
0.00522973 0.00390753 -0.000650096
-1.83225e-06 0.0241859 0.000821173
0.00437497 0.00535273 0.00529319
0.00512522 0.00389522 4.93341e-05
0.00194663 -0.000519017 0.00139418
0.003843 0.00390676 -0.00469977
2.78581e-14 -1.25068e-14 2.55019e-13
0.00214542 0.0159141 0.00475942
0.00087637 -0.00141267 0.000372748
0.00149375 0.0138539 0.0158096
0.00977478 -0.0125277 0.0119322
0.000250842 -0.0248601 -0.00630117
0.0040053 0.00413427 -0.00169087
0.00590789 0.00351924 0.00350705
-0.0300015 0.0103365 -0.00587996
0.00440677 0.00446844 0.00243091
0.00561267 0.00250937 -0.00116044
-0.00329448 0.0134122 -0.000485806
-0.0410048 0.00120066 -0.00868517
0.000960221 -0.00428455 -0.0205506
0.000528039 -0.00682239 -0.0222392
-0.0263166 0.00690134 -0.0650713
0.00627599 0.000284239 -0.00173744
-0.000105501 0.00230364 -0.00065953
0.00203608 -0.00463105 0.00300146
-3.14224e-05 0.0131623 0.0060074
0.000780955 -0.0138636 0.00039709
-6.15309e-05 0.00201256 7.66642e-05
0.0017838 0.00175565 0.00325514
0.000862559 -0.0141276 -0.0161974
9.67267e-15 1.97827e-14 6.47885e-14
-0.000130729 -0.000107066 0.000284174
-0.00965639 0.0096566 -0.0104837
0.00545305 0.00315738 -0.00275296
-0.00260545 0.00949347 -0.00489932
0.00505189 0.00335679 -0.0021993
0.00100833 0.00209181 -0.00237406
-3.97745e-15 -6.51931e-16 6.43545e-14
0.00165724 0.00261034 0.00184226
8.02077e-05 0.00711548 0.0016217
-0.00227218 -0.00300956 -0.00108776
0.00452708 0.00654493 -0.000212383
0.0340338 0.00795445 -0.0187436
-0.00030772 0.00214125 -0.00228257
0.000788286 -0.0236965 0.00660345
0.00107994 0.000214066 -0.00199218
-0.000180318 0.00208687 4.71211e-05
0.00336141 -0.000252677 -0.0051273
-1.81349e-08 0.0238401 0.00346775
0.00396946 0.00375468 0.00121307
0.00154197 -0.0180065 0.00953716
7.98985e-05 -0.0263445 -0.00481004
-0.00336557 0.00477642 -0.0052114
-0.000551776 0.0182928 -0.0182636
0.000868942 0.0151242 -0.00790426
-0.0284917 -0.0471718 -0.0808764
-0.000406933 0.000712252 0.000257641
0.00135168 0.0132938 -0.0176373
-0.000470814 0.0012687 -0.00218012
0.0033439 -0.00527639 0.00366753
0.00457299 0.00524392 -0.0017808
-0.00151176 2.55806e-05 -0.00256975
0.00698387 0.0105689 0.00275517
0.00285318 -0.00164469 -0.0018259
3.11328e-15 8.25666e-15 1.9588e-13
-0.00134732 0.0175653 -0.022277
0.00566051 0.00340705 -0.00274354
-0.00135024 0.00109324 -0.00152906
0.00713586 0.00404537 0.00126123
-0.0310729 -0.015676 0.0789552
0.111356 0.0234073 -0.188243
0.000336985 0.00320792 -0.00131086
0.00374799 0.00345579 0.000338742
3.35206e-05 0.00647302 0.0015367
0.0101855 0.0157473 -0.00806462
-0.00142325 0.00137551 1.10111e-05
0.000198525 0.000234579 -0.000463518
0.000740077 0.00425472 -0.0264207
0.0026211 0.00235052 0.00151848
-1.81125e-06 2.8458e-06 -0.00717961
0.00174203 -0.00158882 0.000590633
0.00112945 0.000548075 -0.00104237
0.00223627 -0.0124549 -0.0152649
0.00506835 0.00434943 -0.00192941
0.00191721 0.00678546 0.000280385
0.000734854 -0.000269792 0.000766131
-6.94542e-317 4.02938e-317 2.45735e-12
0.00031365 -2.65463e-05 -0.000295369
0.00018802 -0.0218338 -0.0102942
0.00185374 -0.00449101 0.00282038
0.00522652 0.000137211 -0.00225865
0.00436027 0.00236334 0.0047223
0.00669141 0.0100216 0.0102244
0.000230806 0.000715316 -0.000341689
-0.0007898 0.00734736 -0.00216116
0.00100455 0.000348303 -0.00431075
0.00529044 0.00292168 -0.00126017
0.0170756 -0.239768 -0.162075
0.000888226 0.00364436 0.00218794
-0.00949868 -0.0247757 0.0077683
0.00827396 0.0120456 -0.00433495
0.0129814 0.0203341 -0.00814798
0.00441693 0.00316564 0.00304976
-0.00931568 0.0118995 -0.00418569
0.00450867 -0.000220954 0.000979168
0.00231995 -0.0129365 0.0128315
0.00509476 0.00439042 0.000206547
0.00533799 0.00317191 0.00124724
-0.0320024 -0.00208344 0.00430183
-0.00700285 -0.00994212 -0.0113782
0.00685487 7.46038e-05 0.000503102
0.000720837 -0.000137543 0.000896181
0.00127246 -0.00113145 0.000443724
0.000119757 -0.0351794 -0.0241494
0.00108728 -0.00535112 0.0185286
0.00910047 -0.0154434 -0.00259591
0.000169687 -0.000412569 6.25218e-05
0.00763547 -0.0156057 -0.034385
1.00442e-14 -1.11584e-16 1.17824e-13
0.00600978 0.00223077 -0.00368108
0.0155861 0.0105848 0.00666999
0.00181888 -0.00186361 0.00269961
0.000929694 0.000107793 0.00148814
0.00128934 -0.00102772 0.00128727
-0.00230616 0.000157523 -0.000661988
-0.00136034 0.00176705 0.00177442
0.0031755 0.00759793 -0.00994924
-0.000112454 -0.00731758 -0.023224
0.587131 2.53374 0.787668
0.000753821 0.00121757 -0.00374057
0.016353 0.00456812 -0.0135443
0.0038781 0.00155395 6.99934e-05
0.000823116 -0.00559997 -0.00595738
0.00572547 0.00260532 -0.000671377
0.00597941 0.00620785 -0.0026781
-0.00124162 0.00599999 -0.00503834
0.000577154 0.000229439 -0.00117491
0.0012497 -0.00173243 -0.0213583
0.00257701 0.000389245 0.00175473
0.00135132 -0.00665066 -0.00674002
-8.50416e-15 4.0779e-14 -2.01665e-13
0.00261383 -0.00105591 -0.00695087
0.000437517 -0.012653 0.0215949
0.00175024 0.00292734 -0.000722606
-0.000389948 0.00157284 -0.000612073
0.00421154 0.00517862 0.00200718
0.00368191 0.00253835 -0.00457691
0.00234974 -0.00046969 0.00175323
-0.000444383 1.06612e-05 -0.000683741
0.000731981 -0.000650501 0.000527276
0.000919884 0.000462979 -7.59344e-05
0.0037033 0.00559092 -0.000356268
0.000332846 0.00200263 -0.000607979
0.000746176 0.00381572 -0.00133982
0.00421528 0.00729728 -0.00575515
-0.000346632 -0.0006254 6.41635e-05
-0.000318987 0.00243342 -0.00302153
0.00504666 0.00266535 0.00426298
5.90756e-16 3.66021e-15 -1.16939e-14
0.00217486 0.00264431 -0.000796053
0.00434285 0.00340403 -0.00127511
0.00535807 -0.00862092 0.0159068
0.00577813 0.00292756 0.00449396
-5.73888e-05 -3.67259e-05 -3.3637e-05
-0.00043153 -0.0122468 -0.0167977
0.000420716 -0.0102168 -0.0217389

VECTORS force float
-3.22984e-09 -9.50795e-08 -1.34569e-08
1.69956e-06 -9.94841e-08 1.4883e-06
0.0 0.0 -1.43822e-06
4.34294e-06 3.56826e-07 1.0963e-06
0.0120573 -0.582847 0.0632568
7.84652e-06 1.7507e-06 1.00561e-05
-6.76309e-07 -9.8649e-07 1.39862e-07
0.0 0.0 -1.43822e-06
2.3105e-06 -7.26174e-07 -2.89472e-07
-4.6233e-07 -2.68188e-07 3.26252e-07
3.39947e-06 -8.15006e-07 3.6442e-06
-1.36599e-07 -8.16419e-08 -3.19321e-07
-1.50715e-07 -1.68227e-07 -2.01912e-07
0.0 0.0 -1.43822e-06
2.78665e-09 1.43879e-08 5.15544e-09
-1.92906e-09 2.2713e-10 1.36809e-08
6.52035e-09 -1.24891e-08 -1.74864e-08
0.0 0.0 -1.43822e-06
0.0 0.0 -1.43822e-06
0.0 0.0 -1.43822e-06
6.60208e-07 -2.59674e-06 -9.98303e-07
7.92364e-07 9.50274e-07 2.74008e-06
1.03592e-08 -9.7998e-08 -1.23738e-08
-5.15465e-10 6.19537e-11 -1.60317e-08
1.20404e-05 3.33121e-06 -7.17237e-06
-2.23393e-05 1.68279e-05 -4.92372e-05
0.0 0.0 -1.43822e-06
-1.63206e-06 -8.31101e-07 -7.49368e-07
0.0 0.0 -1.43822e-06
1.74814e-18 -6.08328e-19 4.25634e-20
3.05202e-06 -1.48113e-05 -5.85979e-06
-5.27568e-09 4.85321e-07 5.6209e-07
-4.98361e-07 2.02115e-06 -9.70955e-07
7.57767e-08 -5.29155e-08 -1.0028e-06
-3.06299e-06 -2.24401e-06 9.65673e-06
-5.18093e-19 3.23725e-20 -2.6258e-20
2.49755e-06 -2.62062e-06 3.52974e-06
-2.74174e-08 1.69012e-07 3.8306e-08
-7.05533e-07 -1.22502e-06 -1.66239e-08
-6.44338e-09 -6.00727e-09 1.5688e-08
6.47922e-07 -6.26961e-07 1.82859e-06
-1.17107e-07 1.54971e-06 -1.33689e-06
2.2154e-05 0.00151962 0.00144414
0.0 0.0 -1.43822e-06
-3.65027e-07 8.80633e-08 -1.60169e-07
3.81534e-07 1.24578e-07 -1.35018e-06
-9.35064e-09 1.91262e-07 4.67068e-07
7.32816e-08 4.3681e-08 -7.0036e-07
2.8955e-07 2.38443e-07 -8.01707e-07
0.0 0.0 -1.43822e-06
-1.87356e-06 2.03723e-06 4.08758e-06
1.14011e-07 3.56247e-06 -5.24517e-07
0.0 0.0 -1.43822e-06
-5.26698e-07 -6.04762e-07 8.2428e-07
-1.2773e-09 1.09428e-08 -1.01497e-08
-1.3831e-06 -4.64069e-07 -8.12808e-07
2.44746e-09 1.06139e-08 -2.09337e-08
0.0 0.0 -1.43822e-06
5.29923e-07 -1.83615e-06 -2.42663e-06
-2.62695e-07 -3.51564e-08 -2.92782e-08
3.61203e-06 -1.0601e-06 -2.0718e-06
1.38172e-20 3.32593e-20 2.11758e-22
-1.58803e-08 7.54305e-08 1.92375e-08
-2.14719e-08 3.28051e-07 -1.75714e-07
-4.70199e-06 -2.01667e-06 -1.18369e-06
0.0 0.0 -1.43822e-06
-3.33983e-09 -8.04168e-09 1.41029e-08
-5.50164e-07 -1.34448e-05 1.08022e-05
-1.36597e-07 -6.96909e-08 -4.98907e-07
0.0 0.0 -1.43822e-06
-5.06552e-06 -1.39425e-06 -5.26975e-06
-1.06372e-06 2.6939e-06 5.66388e-08
6.87385e-08 2.50549e-06 1.46358e-06
0.0 0.0 -1.43822e-06
2.26718e-08 -5.21605e-07 -1.29802e-06
3.40764e-07 6.09745e-07 1.57622e-06
2.23393e-05 -1.68279e-05 4.63608e-05
1.42089e-07 -1.78525e-07 -6.1108e-07
6.26947e-06 1.58741e-05 -3.96433e-06
1.15781e-07 -1.2765e-06 -1.08858e-07
0.0 0.0 -1.43822e-06
2.15825e-06 -1.88479e-08 -1.05466e-06
-7.62049e-07 1.58648e-06 2.47155e-06
1.83628e-07 8.82102e-07 -7.03081e-08
1.12155e-08 7.52714e-08 1.06252e-07
-4.23516e-22 -8.07328e-22 -2.75286e-21
-2.46029e-07 3.03808e-09 4.1679e-08
-7.90157e-07 -2.87108e-08 8.13057e-06
8.71549e-07 -3.90275e-07 -3.29902e-07
1.05125e-05 3.26687e-05 -5.15065e-06
-7.15275e-07 -2.32492e-08 -1.01109e-06
-2.53098e-07 -9.01536e-07 7.47463e-07
2.64698e-22 2.64698e-23 -2.75286e-21
5.09186e-07 -1.29795e-06 -3.96468e-07
-9.27531e-09 -1.48785e-07 8.29833e-09
2.18324e-07 3.23256e-08 -1.50228e-06
8.17539e-07 -1.81882e-06 3.99129e-07
-0.0011754 0.0011414 0.000916974
-5.11246e-06 -4.60649e-07 1.53527e-06
2.76859e-07 7.12383e-07 -7.81497e-09
-4.0529e-07 3.34692e-07 -1.40788e-06
-1.85708e-06 5.73358e-06 -1.25385e-06
6.86216e-08 -1.4607e-07 -8.74609e-07
-5.90071e-11 1.47409e-08 -1.69653e-08
-4.79921e-07 -5.40003e-07 5.93833e-06
-3.27346e-08 -1.92474e-07 1.21548e-07
-4.14348e-08 -1.53033e-07 -3.51711e-08
2.02707e-06 -1.55668e-06 3.71006e-06
2.52189e-08 -1.87721e-08 -5.70017e-09
-1.30339e-05 -3.12729e-05 1.1521e-05
0.0 0.0 -1.43822e-06
2.82305e-06 3.74993e-06 -4.94313e-07
-1.55986e-08 5.448e-09 -3.03575e-08
1.14693e-07 -3.7038e-07 7.24974e-07
-3.66617e-07 4.44262e-07 -1.72983e-06
3.51153e-07 -9.11654e-06 -6.59816e-07
1.9534e-08 9.90788e-08 -8.21774e-07
-3.59906e-07 4.91675e-07 1.84938e-07
8.04984e-06 5.96836e-06 1.57229e-06
-3.73743e-19 -2.91168e-20 6.98802e-21
0.0 0.0 -1.43822e-06
-1.19374e-06 9.56805e-07 -2.56668e-06
-9.94924e-08 -5.60391e-08 7.93278e-08
-5.36817e-07 -9.5052e-07 1.95393e-06
0.0 0.0 -1.43822e-06
0.0 0.0 -1.43822e-06
-4.05771e-07 -9.65034e-08 -5.65182e-07
6.7343e-07 1.34663e-06 1.23519e-06
0.0 0.0 -1.43822e-06
0.0 0.0 -1.43822e-06
-1.69711e-07 -6.32101e-07 -1.52543e-06
2.21927e-07 6.77688e-08 6.93909e-07
-2.75962e-08 2.20219e-08 6.89384e-08
7.83533e-07 6.55868e-07 1.03456e-06
0.0 0.0 -1.43822e-06
-8.77323e-07 -2.23055e-07 -2.60311e-07
4.5003e-07 2.03047e-08 9.11744e-08
-4.82444e-05 1.75155e-05 0.000112397
-7.51687e-07 3.39187e-06 -4.74593e-06
-1.94194e-07 1.07294e-06 5.83342e-07
-4.87148e-07 -1.17873e-06 -4.40402e-07
1.8404e-320 -2.2327e-320 0.0
4.5089e-07 -2.1256e-07 2.25867e-06
-1.01614e-09 -1.42675e-08 8.72814e-09
8.83448e-07 7.70176e-07 -1.74813e-06
8.32875e-06 -5.90729e-06 7.29721e-06
4.06024e-06 1.58626e-06 3.65812e-06
0.0 0.0 -1.43822e-06
-5.52555e-09 -2.96883e-07 -3.72257e-07
5.34316e-07 3.46023e-07 -5.62112e-07
-1.56614e-06 6.69452e-07 -9.82686e-08
4.76646e-07 7.2245e-07 -1.25686e-06
0.0 0.0 -1.43822e-06
-9.89353e-08 -4.19179e-07 -1.29183e-06
0.0 0.0 -1.43822e-06
1.6103e-06 -2.38434e-06 7.45022e-07
0.0 0.0 -1.43822e-06
-3.49085e-08 -3.473e-08 7.2704e-08
4.48366e-06 1.98435e-06 -1.62869e-06
2.90194e-07 2.69508e-07 6.73975e-07
0.000123646 3.55908e-05 5.27423e-05
5.30584e-07 -8.35306e-06 -2.11915e-06
-3.08556e-07 1.6588e-06 1.71685e-07
0.000100957 7.88306e-06 -2.94819e-05
0.0 0.0 -1.43822e-06
-3.07944e-07 -1.85254e-08 -3.58726e-07
3.55329e-06 -2.43636e-08 1.25793e-05
-3.87164e-08 1.78929e-07 -8.41229e-07
0.0 0.0 -1.43822e-06
1.25388e-08 -2.73533e-08 -1.52991e-09
-1.42567e-07 6.33985e-07 1.58203e-07
7.55789e-07 -3.96698e-07 7.6521e-08
6.4799e-06 2.61789e-06 1.98991e-05
1.32349e-22 -5.04028e-20 0.0
2.6188e-07 -8.83161e-07 -1.98832e-06
-3.83149e-07 -4.21337e-07 -3.38856e-07
1.24748e-06 -2.3675e-07 -3.08127e-07
1.26399e-08 -4.54308e-07 1.19625e-06
5.94594e-07 -1.9779e-07 5.29662e-07
-2.94099e-07 -1.30339e-07 -1.09703e-06
-7.58695e-06 3.38439e-06 7.06099e-06
3.57629e-06 -2.47605e-05 -7.53529e-06
3.08366e-07 2.12698e-08 1.37338e-07
-0.00217672 -0.0920111 0.052859
1.59018e-07 6.62585e-08 -1.54961e-07
-6.4799e-06 -2.61789e-06 -2.27755e-05
8.19708e-08 5.28922e-08 -1.3522e-06
-6.00687e-09 2.85117e-07 1.9283e-07
8.67762e-07 -1.4117e-06 3.77566e-06
-1.31369e-06 6.45101e-06 3.13386e-06
0.0 0.0 -1.43822e-06
1.45942e-07 -6.33213e-08 3.73687e-07
-1.60012e-07 -7.36586e-08 -3.73944e-07
-3.26557e-07 4.73498e-07 2.78133e-07
0.0 0.0 -1.43822e-06
2.375e-20 1.95876e-21 -4.23516e-22
-1.84704e-06 1.75771e-06 -4.12262e-06
2.45553e-09 1.09999e-08 9.83965e-09
-2.39893e-07 -4.17753e-07 -1.50511e-06
-2.41034e-08 4.07846e-08 -1.98227e-07
-1.82908e-07 6.09077e-07 3.31119e-07
9.39625e-07 5.39527e-06 1.18889e-06
-5.71616e-07 -5.80726e-07 -4.87234e-07
-2.08898e-07 2.27875e-07 2.52285e-06
-4.28506e-06 8.0791e-07 -2.36498e-06
9.47027e-06 5.43978e-06 4.77908e-06
0.0 0.0 -1.43822e-06
-5.22189e-07 -2.16024e-08 -1.16791e-07
1.17455e-07 4.36508e-08 -1.24785e-06
1.6265e-06 1.15204e-05 -1.07794e-05
-9.77138e-07 3.62864e-07 1.21956e-06
-5.33418e-07 -3.1209e-07 2.11025e-06
1.90263e-06 1.29811e-06 -2.04605e-06
-1.96935e-20 3.51677e-19 1.09267e-19
3.02484e-06 1.60413e-06 -1.37617e-06
-8.08642e-08 8.56255e-07 -5.91297e-07
-1.67621e-05 2.82873e-05 5.16554e-07
5.0409e-07 1.12428e-05 6.75698e-06
5.41687e-07 6.43501e-07 -4.59431e-07
-7.22266e-09 -1.44637e-08 -3.49214e-10
-2.91857e-09 -1.68344e-08 -2.41421e-09
