# vtk DataFile Version 3.0
LIGGGHTS particles timestep 5000000
ASCII
DATASET POLYDATA
POINTS 273 float
0.0152917 0.0216286 0.0160534
0.0182155 0.0235904 0.0141446
0.0287524 0.0156147 0.0140979
0.0170033 0.0139189 0.0285703
0.027196 0.0219227 0.0145623
0.0268747 0.0227274 0.0134887
0.0169011 0.0153422 0.0139538
0.0224479 0.019646 0.0168883
0.00414476 0.0439422 0.0580082
0.0206385 0.0240987 0.0142829
0.0222488 0.022057 0.0147756
0.0213362 0.0239446 0.0131932
0.0197759 0.0244278 0.0138231
0.0189197 0.0221548 0.0157391
0.0238922 0.0175859 0.0161758
0.0130933 0.0250272 0.0256778
0.0262465 0.023296 0.0106795
0.024911 0.0127742 0.0274718
0.0242649 0.0161754 0.0148984
0.0214206 0.0187886 0.016831
0.0244676 0.0203356 0.0248867
0.0173092 0.0174521 0.0156522
0.0216545 0.0142968 0.0137962
0.0205164 0.0233496 0.0172336
0.02496 0.0193543 0.00715492
0.030682 0.0180509 0.00728827
0.0207355 0.0232235 0.0128586
0.0175261 0.0232907 0.0148133
0.0169316 0.0226121 0.0152824
0.0233064 0.020754 0.0167746
0.02147 0.0233655 0.0123654
0.0454257 0.0173169 0.00620813
0.0241695 0.0115595 0.0362877
0.0294359 0.0147751 0.0113235
0.0242059 0.0211374 0.0163269
0.025317 0.0193673 0.0195124
0.0163817 0.01816 0.0180394
0.0242477 0.0214786 0.0178933
0.0178275 0.0156828 0.0155349
0.0487553 0.0195855 0.00596623
0.020458 0.0222573 0.016847
0.0260256 0.0230405 0.00985412
0.0216016 0.0235444 0.0150996
0.0197778 0.0138932 0.0139602
0.0285023 0.0166158 0.014983
0.0225582 0.0229763 0.0148353
0.0301238 0.0156566 0.00882163
0.0226955 0.0159608 0.0146929
0.0236058 0.0156388 0.014371
0.0185661 0.0212845 0.0162571
0.0162208 0.0221363 0.0147354
0.0178489 0.0242353 0.013474
0.0292183 0.0149028 0.0122156
0.0222953 0.0214795 0.016324
0.0177092 0.0141273 0.0142899
0.0196112 0.0215108 0.0161463
0.0183802 0.0236371 0.0152719
0.0280415 0.0215479 0.014861
0.0163617 0.023266 0.0128727
0.0187686 0.0183715 0.00720995
0.0258311 0.022685 0.00916333
0.0162069 0.0127632 0.0273399
0.0227848 0.0195463 0.015936
0.0245964 0.0187673 0.0167543
0.0180815 0.0139553 0.013378
0.0186365 0.0146191 0.0119425
0.0235624 0.0218159 0.0159502
0.0184196 0.0163614 0.0150819
0.0208114 0.0232552 0.0137483
0.022673 0.0200542 0.00582605
0.0215246 0.0230418 0.013346
0.0186544 0.0168601 0.0166442
0.014639 0.0181485 0.0169519
0.0174474 0.02032 0.0165801
0.022172 0.0166913 0.0166044
0.0172869 0.0195452 0.0159311
0.0237009 0.0161078 0.0159729
0.01646 0.0234799 0.0150795
0.022705 0.0174391 0.0170324
0.0200428 0.020504 0.0165592
0.0231859 0.0217701 0.0150194
0.0256414 0.0204674 0.0165566
0.0213722 0.0162648 0.016002
0.0169515 0.024139 0.014244
0.0204239 0.0234254 0.0114634
0.0296153 0.0149265 0.0105855
0.0217567 0.0226086 0.0154494
0.023236 0.0235218 0.0152491
0.0176436 0.0157445 0.0144897
0.0191917 0.0146987 0.0146294
0.0210289 0.0191979 0.0283932
0.0188508 0.014505 0.0137095
0.0225784 0.021751 0.0172422
0.0223778 0.0207664 0.0176108
0.0208912 0.0147285 0.0154124
0.0175497 0.0146201 0.0119408
0.0232937 0.0224404 0.0176069
0.019828 0.0193072 0.00717377
0.018839 0.0242317 0.017032
0.022209 0.0229818 0.0162594
0.0240348 0.0195354 0.00581891
0.0197373 0.0145744 0.0156732
0.0222459 0.022751 0.0139407
0.0189846 0.0193018 0.00716086
0.0164353 0.0190776 0.0170374
0.019327 0.0154558 0.0153265
0.0198711 0.014009 0.0129723
0.019234 0.0238618 0.0147004
0.0256114 0.0176518 0.0165602
0.0151822 0.0147714 0.0145622
0.0248475 0.0201155 0.00587393
0.0224948 0.0145048 0.0142971
0.0168823 0.0202028 0.0243494
0.0147817 0.0231201 0.0148592
0.0148527 0.0158633 0.0157064
0.0239878 0.0154767 0.00910706
0.016966 0.0239225 0.0132679
0.0190705 0.0229293 0.0150576
0.0282014 0.0176157 0.0155562
0.0236778 0.0196703 0.0172732
0.0204022 0.0239944 0.0133153
0.0174482 0.0225176 0.0161359
0.020589 0.0160787 0.0166909
0.0210647 0.0179078 0.0177303
0.0232672 0.0147566 0.0149448
0.0279658 0.0189471 0.0158315
0.0181085 0.0226498 0.0153364
0.0178513 0.0187632 0.0176293
0.0230217 0.0174415 0.0156402
0.0261082 0.0194327 0.017254
0.0179524 0.0182048 0.0158615
0.0209429 0.0129408 0.0198225
0.0193811 0.0178988 0.0166544
0.0171064 0.0148143 0.0163258
0.0246835 0.0160179 0.015793
0.0308062 0.0170675 0.00763545
0.0230161 0.0155252 0.015534
0.0223239 0.0147217 0.0152746
0.0163923 0.0216739 0.0162621
0.0256855 0.0186874 0.0167386
0.0215734 0.0236047 0.0140605
0.0153973 0.0165485 0.0162898
0.0221176 0.021277 0.0153594
0.0557224 0.0193212 0.00585087
0.0213481 0.0226876 0.014376
0.0206758 0.0227276 0.0377389
0.0235845 0.0148589 0.0106462
0.0199006 0.0224982 0.0154894
0.0156199 0.0206422 0.0156582
0.0239826 0.0153307 0.0153533
0.0175617 0.0215245 0.0160995
0.0206909 0.0236911 0.0157806
0.0196929 0.0221564 0.00852143
0.0211932 0.0230907 0.0164091
0.025206 0.0167838 0.0162537
0.0125181 0.0163909 0.0488049
0.0244969 0.0221409 0.015758
0.0168729 0.0141103 0.0137416
0.0202912 0.0156164 0.0155447
0.0164184 0.0170301 0.0154698
0.0148199 0.0280163 0.0289034
0.0142302 0.0237774 0.0228905
0.0219807 0.018953 0.0159451
0.0166885 0.0159707 0.0147351
0.0217888 0.0232544 0.0174263
0.0172136 0.023492 0.0157519
0.0156387 0.0153208 0.0152619
0.0204863 0.0209313 0.00762458
0.0152942 0.0162217 0.0191485
0.0237824 0.0195311 0.0159467
0.0162992 0.0179973 0.0158313
0.0365933 0.0210052 0.0435188
0.0209564 0.0152548 0.0162599
0.0199295 0.0166275 0.0161539
0.0233569 0.0147417 0.0118333
0.013363 0.0190846 0.0170013
0.0215335 0.0221557 0.0163126
0.0153603 0.015362 0.0185983
0.0206635 0.0238583 0.0123653
0.0198628 0.0230384 0.0164028
0.0208327 0.0140924 0.0132334
0.0173684 0.0166688 0.0195626
0.0141447 0.0202669 0.0231865
0.016408 0.0231358 0.0164088
0.0226092 0.0205266 0.0159828
0.0202354 0.0229275 0.00963796
0.0180796 0.0226803 0.0170631
0.0245682 0.0174534 0.0169038
0.0188882 0.0141067 0.0127931
0.0137838 0.0157401 0.0155825
0.020141 0.0149656 0.0147955
0.0159845 0.0144234 0.0140771
0.0162638 0.0213338 0.0153306
0.0236265 0.0217219 0.0169526
0.0132651 0.0213689 0.0162109
0.0157467 0.0111038 0.0250185
0.0277122 0.0203495 0.0155688
0.0244642 0.0172626 0.00755855
0.0185066 0.0131156 0.0190131
0.0216433 0.0205191 0.0157697
0.0129343 0.0170407 0.0164383
0.0229869 0.0185688 0.0159578
0.0204158 0.023241 0.0105063
0.023801 0.022696 0.015261
0.0181793 0.0148082 0.0128654
0.0219382 0.0153627 0.0159411
0.0170278 0.0212358 0.0168979
0.0208151 0.0228671 0.0152156
0.0172593 0.0216909 0.015072
0.0192105 0.0194441 0.0170063
0.017824 0.0149959 0.013781
0.0185883 0.0154157 0.0142705
0.0286896 0.0188118 0.00592076
0.0126642 0.0205361 0.0165338
0.0184514 0.0201524 0.0166637
0.0200124 0.0232326 0.0147187
0.0243206 0.0201315 0.0166539
0.0172761 0.0186532 0.0165444
0.019953 0.0243247 0.0166674
0.0142541 0.0198792 0.0168772
0.0195978 0.023865 0.0157942
0.0190131 0.0162454 0.0159393
0.0251935 0.0213071 0.016247
0.0265576 0.0232912 0.0122434
0.0166156 0.015124 0.015468
0.0154125 0.0226607 0.0170731
0.0229547 0.0152036 0.0137493
0.0199797 0.0135679 0.0303258
0.0168776 0.0145952 0.014619
0.0192942 0.024202 0.0129651
0.0183647 0.0179653 0.0167792
0.0221903 0.0240639 0.014431
0.0212955 0.0218753 0.0149496
0.0208594 0.01713 0.0164214
0.0137668 0.0173279 0.0169986
0.0222927 0.0232244 0.0130846
0.0207362 0.0144978 0.0141422
0.0193255 0.0210459 0.00772005
0.0221891 0.017981 0.0158415
0.0263457 0.0228841 0.0302605
0.0192985 0.0237251 0.0136791
0.018009 0.0239404 0.0162264
0.0163128 0.0192939 0.0160305
0.0246147 0.0205368 0.018622
0.0239842 0.0185533 0.0159351
0.0187114 0.024408 0.013853
0.0235635 0.020503 0.0157199
0.0178108 0.0148723 0.0149488
0.0228215 0.0224624 0.0156537
0.0243128 0.0170008 0.0154637
0.0232908 0.0165863 0.0151966
0.0203733 0.0195655 0.01673
0.0170296 0.0225214 0.0142903
0.0224574 0.0163641 0.0157025
0.021542 0.0148102 0.0146576
0.0165214 0.0232911 0.0139034
0.0173003 0.0143315 0.0128651
0.0206422 0.0219285 0.0159209
0.0174261 0.0165336 0.0151819
0.0153834 0.0224978 0.0143251
0.0159544 0.0223713 0.0156703
0.0156339 0.0234699 0.0144113
0.017336 0.0206617 0.015647
0.0143633 0.0213387 0.0163026
0.0143993 0.0151627 0.015046
0.0186899 0.0229729 0.0163247
0.0156312 0.0230265 0.0135136
0.027373 0.0211221 0.0152589
0.0223522 0.0184386 0.0167196
0.0153303 0.0217801 0.0150241
0.0188511 0.014877 0.0164135
0.0140973 0.0226197 0.0153995
0.019454 0.0179397 0.0177498

VERTICES 273 546
1 0
1 1
1 2
1 3
1 4
1 5
1 6
1 7
1 8
1 9
1 10
1 11
1 12
1 13
1 14
1 15
1 16
1 17
1 18
1 19
1 20
1 21
1 22
1 23
1 24
1 25
1 26
1 27
1 28
1 29
1 30
1 31
1 32
1 33
1 34
1 35
1 36
1 37
1 38
1 39
1 40
1 41
1 42
1 43
1 44
1 45
1 46
1 47
1 48
1 49
1 50
1 51
1 52
1 53
1 54
1 55
1 56
1 57
1 58
1 59
1 60
1 61
1 62
1 63
1 64
1 65
1 66
1 67
1 68
1 69
1 70
1 71
1 72
1 73
1 74
1 75
1 76
1 77
1 78
1 79
1 80
1 81
1 82
1 83
1 84
1 85
1 86
1 87
1 88
1 89
1 90
1 91
1 92
1 93
1 94
1 95
1 96
1 97
1 98
1 99
1 100
1 101
1 102
1 103
1 104
1 105
1 106
1 107
1 108
1 109
1 110
1 111
1 112
1 113
1 114
1 115
1 116
1 117
1 118
1 119
1 120
1 121
1 122
1 123
1 124
1 125
1 126
1 127
1 128
1 129
1 130
1 131
1 132
1 133
1 134
1 135
1 136
1 137
1 138
1 139
1 140
1 141
1 142
1 143
1 144
1 145
1 146
1 147
1 148
1 149
1 150
1 151
1 152
1 153
1 154
1 155
1 156
1 157
1 158
1 159
1 160
1 161
1 162
1 163
1 164
1 165
1 166
1 167
1 168
1 169
1 170
1 171
1 172
1 173
1 174
1 175
1 176
1 177
1 178
1 179
1 180
1 181
1 182
1 183
1 184
1 185
1 186
1 187
1 188
1 189
1 190
1 191
1 192
1 193
1 194
1 195
1 196
1 197
1 198
1 199
1 200
1 201
1 202
1 203
1 204
1 205
1 206
1 207
1 208
1 209
1 210
1 211
1 212
1 213
1 214
1 215
1 216
1 217
1 218
1 219
1 220
1 221
1 222
1 223
1 224
1 225
1 226
1 227
1 228
1 229
1 230
1 231
1 232
1 233
1 234
1 235
1 236
1 237
1 238
1 239
1 240
1 241
1 242
1 243
1 244
1 245
1 246
1 247
1 248
1 249
1 250
1 251
1 252
1 253
1 254
1 255
1 256
1 257
1 258
1 259
1 260
1 261
1 262
1 263
1 264
1 265
1 266
1 267
1 268
1 269
1 270
1 271
1 272

POINT_DATA 273
SCALARS id int 1
LOOKUP_TABLE default
1
2
3
4
5
6
7
8
9
10
11
12
13
15
16
17
18
19
21
22
23
24
25
26
27
28
29
31
33
34
35
36
38
39
40
41
43
44
45
47
49
50
51
53
54
55
56
57
58
59
60
61
62
63
64
65
66
67
69
70
71
72
73
75
76
77
78
79
81
82
85
86
87
88
89
90
91
92
93
94
95
96
97
98
99
101
102
103
104
105
107
109
111
112
113
115
116
118
119
120
121
122
123
127
129
130
133
134
135
137
138
139
140
141
142
143
144
146
147
148
149
150
151
152
153
154
155
156
157
158
159
160
161
162
163
164
166
167
168
169
170
172
175
176
177
178
179
180
181
182
183
184
185
186
188
189
190
192
193
194
196
197
198
200
201
207
208
209
210
212
213
215
216
217
218
219
220
221
222
223
224
225
227
228
229
231
232
234
236
237
238
239
240
242
243
244
246
247
248
249
250
251
252
253
256
257
258
259
260
261
262
263
264
266
267
268
270
271
272
273
276
277
279
280
281
283
284
285
287
288
289
290
291
292
294
296
297
298
299
300
301
302
303
304
305
306
307
308
309
311
312
313
314
317
319
320
321
322
323
324
325
326
327
328
329
331
332
334
335
338
339
340
341

SCALARS type int 1
LOOKUP_TABLE default
1
1
1
1
1
1
1
1
1
1
1
1
1
1
1
1
1
1
1
1
1
1
1
1
1
1
1
1
1
1
1
1
1
1
1
1
1
1
1
1
1
1
1
1
1
1
1
1
1
1
1
1
1
1
1
1
1
1
1
1
1
1
1
1
1
1
1
1
1
1
1
1
1
1
1
1
1
1
1
1
1
1
1
1
1
1
1
1
1
1
1
1
1
1
1
1
1
1
1
1
1
1
1
1
1
1
1
1
1
1
1
1
1
1
1
1
1
1
1
1
1
1
1
1
1
1
1
1
1
1
1
1
1
1
1
1
1
1
1
1
1
1
1
1
1
1
1
1
1
1
1
1
1
1
1
1
1
1
1
1
1
1
1
1
1
1
1
1
1
1
1
1
1
1
1
1
1
1
1
1
1
1
1
1
1
1
1
1
1
1
1
1
1
1
1
1
1
1
1
1
1
1
1
1
1
1
1
1
1
1
1
1
1
1
1
1
1
1
1
1
1
1
1
1
1
1
1
1
1
1
1
1
1
1
1
1
1
1
1
1
1
1
1
1
1
1
1
1
1
1
1
1
1
1
1
1
1
1
1
1
1
1
1
1
1
1
1
1
1
1
1
1
1

SCALARS radius float 1
LOOKUP_TABLE default
0.0005
0.0005
0.0005
0.0005
0.0005
0.0005
0.0005
0.0005
0.0005
0.0005
0.0005
0.0005
0.0005
0.0005
0.0005
0.0005
0.0005
0.0005
0.0005
0.0005
0.0005
0.0005
0.0005
0.0005
0.0005
0.0005
0.0005
0.0005
0.0005
0.0005
0.0005
0.0005
0.0005
0.0005
0.0005
0.0005
0.0005
0.0005
0.0005
0.0005
0.0005
0.0005
0.0005
0.0005
0.0005
0.0005
0.0005
0.0005
0.0005
0.0005
0.0005
0.0005
0.0005
0.0005
0.0005
0.0005
0.0005
0.0005
0.0005
0.0005
0.0005
0.0005
0.0005
0.0005
0.0005
0.0005
0.0005
0.0005
0.0005
0.0005
0.0005
0.0005
0.0005
0.0005
0.0005
0.0005
0.0005
0.0005
0.0005
0.0005
0.0005
0.0005
0.0005
0.0005
0.0005
0.0005
0.0005
0.0005
0.0005
0.0005
0.0005
0.0005
0.0005
0.0005
0.0005
0.0005
0.0005
0.0005
0.0005
0.0005
0.0005
0.0005
0.0005
0.0005
0.0005
0.0005
0.0005
0.0005
0.0005
0.0005
0.0005
0.0005
0.0005
0.0005
0.0005
0.0005
0.0005
0.0005
0.0005
0.0005
0.0005
0.0005
0.0005
0.0005
0.0005
0.0005
0.0005
0.0005
0.0005
0.0005
0.0005
0.0005
0.0005
0.0005
0.0005
0.0005
0.0005
0.0005
0.0005
0.0005
0.0005
0.0005
0.0005
0.0005
0.0005
0.0005
0.0005
0.0005
0.0005
0.0005
0.0005
0.0005
0.0005
0.0005
0.0005
0.0005
0.0005
0.0005
0.0005
0.0005
0.0005
0.0005
0.0005
0.0005
0.0005
0.0005
0.0005
0.0005
0.0005
0.0005
0.0005
0.0005
0.0005
0.0005
0.0005
0.0005
0.0005
0.0005
0.0005
0.0005
0.0005
0.0005
0.0005
0.0005
0.0005
0.0005
0.0005
0.0005
0.0005
0.0005
0.0005
0.0005
0.0005
0.0005
0.0005
0.0005
0.0005
0.0005
0.0005
0.0005
0.0005
0.0005
0.0005
0.0005
0.0005
0.0005
0.0005
0.0005
0.0005
0.0005
0.0005
0.0005
0.0005
0.0005
0.0005
0.0005
0.0005
0.0005
0.0005
0.0005
0.0005
0.0005
0.0005
0.0005
0.0005
0.0005
0.0005
0.0005
0.0005
0.0005
0.0005
0.0005
0.0005
0.0005
0.0005
0.0005
0.0005
0.0005
0.0005
0.0005
0.0005
0.0005
0.0005
0.0005
0.0005
0.0005
0.0005
0.0005
0.0005
0.0005
0.0005
0.0005
0.0005
0.0005
0.0005
0.0005
0.0005
0.0005
0.0005
0.0005
0.0005
0.0005
0.0005
0.0005
0.0005
0.0005
0.0005
0.0005
0.0005
0.0005
0.0005
0.0005
0.0005

SCALARS mass float 1
LOOKUP_TABLE default
1.46608e-07
1.46608e-07
1.46608e-07
1.46608e-07
1.46608e-07
1.46608e-07
1.46608e-07
1.46608e-07
1.46608e-07
1.46608e-07
1.46608e-07
1.46608e-07
1.46608e-07
1.46608e-07
1.46608e-07
1.46608e-07
1.46608e-07
1.46608e-07
1.46608e-07
1.46608e-07
1.46608e-07
1.46608e-07
1.46608e-07
1.46608e-07
1.46608e-07
1.46608e-07
1.46608e-07
1.46608e-07
1.46608e-07
1.46608e-07
1.46608e-07
1.46608e-07
1.46608e-07
1.46608e-07
1.46608e-07
1.46608e-07
1.46608e-07
1.46608e-07
1.46608e-07
1.46608e-07
1.46608e-07
1.46608e-07
1.46608e-07
1.46608e-07
1.46608e-07
1.46608e-07
1.46608e-07
1.46608e-07
1.46608e-07
1.46608e-07
1.46608e-07
1.46608e-07
1.46608e-07
1.46608e-07
1.46608e-07
1.46608e-07
1.46608e-07
1.46608e-07
1.46608e-07
1.46608e-07
1.46608e-07
1.46608e-07
1.46608e-07
1.46608e-07
1.46608e-07
1.46608e-07
1.46608e-07
1.46608e-07
1.46608e-07
1.46608e-07
1.46608e-07
1.46608e-07
1.46608e-07
1.46608e-07
1.46608e-07
1.46608e-07
1.46608e-07
1.46608e-07
1.46608e-07
1.46608e-07
1.46608e-07
1.46608e-07
1.46608e-07
1.46608e-07
1.46608e-07
1.46608e-07
1.46608e-07
1.46608e-07
1.46608e-07
1.46608e-07
1.46608e-07
1.46608e-07
1.46608e-07
1.46608e-07
1.46608e-07
1.46608e-07
1.46608e-07
1.46608e-07
1.46608e-07
1.46608e-07
1.46608e-07
1.46608e-07
1.46608e-07
1.46608e-07
1.46608e-07
1.46608e-07
1.46608e-07
1.46608e-07
1.46608e-07
1.46608e-07
1.46608e-07
1.46608e-07
1.46608e-07
1.46608e-07
1.46608e-07
1.46608e-07
1.46608e-07
1.46608e-07
1.46608e-07
1.46608e-07
1.46608e-07
1.46608e-07
1.46608e-07
1.46608e-07
1.46608e-07
1.46608e-07
1.46608e-07
1.46608e-07
1.46608e-07
1.46608e-07
1.46608e-07
1.46608e-07
1.46608e-07
1.46608e-07
1.46608e-07
1.46608e-07
1.46608e-07
1.46608e-07
1.46608e-07
1.46608e-07
1.46608e-07
1.46608e-07
1.46608e-07
1.46608e-07
1.46608e-07
1.46608e-07
1.46608e-07
1.46608e-07
1.46608e-07
1.46608e-07
1.46608e-07
1.46608e-07
1.46608e-07
1.46608e-07
1.46608e-07
1.46608e-07
1.46608e-07
1.46608e-07
1.46608e-07
1.46608e-07
1.46608e-07
1.46608e-07
1.46608e-07
1.46608e-07
1.46608e-07
1.46608e-07
1.46608e-07
1.46608e-07
1.46608e-07
1.46608e-07
1.46608e-07
1.46608e-07
1.46608e-07
1.46608e-07
1.46608e-07
1.46608e-07
1.46608e-07
1.46608e-07
1.46608e-07
1.46608e-07
1.46608e-07
1.46608e-07
1.46608e-07
1.46608e-07
1.46608e-07
1.46608e-07
1.46608e-07
1.46608e-07
1.46608e-07
1.46608e-07
1.46608e-07
1.46608e-07
1.46608e-07
1.46608e-07
1.46608e-07
1.46608e-07
1.46608e-07
1.46608e-07
1.46608e-07
1.46608e-07
1.46608e-07
1.46608e-07
1.46608e-07
1.46608e-07
1.46608e-07
1.46608e-07
1.46608e-07
1.46608e-07
1.46608e-07
1.46608e-07
1.46608e-07
1.46608e-07
1.46608e-07
1.46608e-07
1.46608e-07
1.46608e-07
1.46608e-07
1.46608e-07
1.46608e-07
1.46608e-07
1.46608e-07
1.46608e-07
1.46608e-07
1.46608e-07
1.46608e-07
1.46608e-07
1.46608e-07
1.46608e-07
1.46608e-07
1.46608e-07
1.46608e-07
1.46608e-07
1.46608e-07
1.46608e-07
1.46608e-07
1.46608e-07
1.46608e-07
1.46608e-07
1.46608e-07
1.46608e-07
1.46608e-07
1.46608e-07
1.46608e-07
1.46608e-07
1.46608e-07
1.46608e-07
1.46608e-07
1.46608e-07
1.46608e-07
1.46608e-07
1.46608e-07
1.46608e-07
1.46608e-07
1.46608e-07
1.46608e-07
1.46608e-07
1.46608e-07
1.46608e-07
1.46608e-07
1.46608e-07
1.46608e-07
1.46608e-07
1.46608e-07
1.46608e-07
1.46608e-07
1.46608e-07
1.46608e-07
1.46608e-07
1.46608e-07
1.46608e-07
1.46608e-07
1.46608e-07
1.46608e-07

VECTORS velocity float
0.00849188 0.00506779 -0.0186356
0.00112099 0.000394488 0.00184254
0.000448655 0.0119445 0.0189434
0.047843 0.175201 -0.202781
0.000531419 0.279254 0.010979
-5.09711e-05 0.0169109 -0.0196414
-0.00043575 0.00522699 0.0113798
-0.0533254 0.0268847 -0.0409747
-0.119547 0.220623 0.0134214
-0.00627469 -0.00809295 0.0125333
0.00157955 -0.000697285 0.00307181
0.000716426 0.00123274 -1.79623e-05
-0.000197073 -9.01294e-06 -0.000528225
0.00995266 0.0135929 -0.0110454
-0.0072389 0.0168598 -0.0019053
0.057245 -0.0450469 -0.324504
0.0035943 -0.00338868 -0.0158663
-0.11069 0.0912802 -0.014765
0.000312045 0.00715417 0.00433815
-0.000942 0.0245386 -0.0555673
-0.163947 -0.045139 -0.162249
0.00368394 0.0120469 0.0118263
-0.00390012 -0.00301843 0.00134084
0.0347395 0.00130712 0.0274706
0.00174337 -0.0114138 -0.00176666
0.000748725 -0.0231938 0.00581428
0.000901711 0.00262411 -0.00432222
0.00628708 0.01762 -0.0241117
-0.0106163 0.0155146 -0.0119321
-0.00876146 0.0289776 -0.0855562
0.000247991 0.000642456 -0.00104426
-2.29961e-15 -1.15803e-14 -7.96741e-14
-0.0653315 -0.0641399 -0.225079
0.000945924 -0.00111123 0.0153765
-0.0151129 0.0269001 0.010966
-0.0550489 -0.0431331 -0.225068
0.0424283 0.0525493 0.0336064
-0.0240747 0.0163814 -0.10463
-0.00968199 0.00751916 -0.0143638
-5.28757e-16 1.41209e-15 1.40114e-14
0.0273873 -0.0146047 0.0110206
0.00369317 -0.0053597 -0.0155918
-0.0183327 0.00844277 -0.0337183
-0.000110685 0.000709822 -0.000256369
0.000282595 0.0203048 0.0140353
0.000108736 0.00128708 -0.000265674
0.000184485 -0.0111868 0.0141199
0.00266634 0.00870348 0.00782437
0.0052484 0.00476789 0.00406721
0.0111311 0.0318181 -0.0503417
0.00346968 0.002439 -0.0106012
-0.00220661 0.000534684 0.00154176
0.000850341 0.00474294 0.0235772
-0.011905 0.014581 -0.00759354
-0.000647704 1.49778e-05 -0.0043045
0.0135605 0.0273138 -0.01445
0.00464817 -0.00351963 -0.0113142
0.947072 14.5413 13.683
-0.000640405 -0.000887418 -0.00133091
0.105745 0.0765257 0.892366
0.00211154 -0.010224 -0.0129601
0.0301061 0.131865 -0.230971
0.00753863 0.0160297 0.00140208
-0.000313596 0.0291743 -2.46622e-05
-0.000291247 0.00112308 -0.00298806
-3.25084e-06 0.00132837 -0.00217052
-0.0104648 0.0116651 0.0118756
-0.00198665 -0.000710511 0.00226456
0.00271172 0.00297161 -0.00473486
2.78638e-14 -1.25014e-14 2.55019e-13
0.00102412 0.00395639 -0.00382619
0.00664277 0.0134265 -0.0403908
-0.0297059 0.00624418 -0.00702091
-0.00937442 0.0254811 -0.00836065
-0.0377474 -0.00211246 -0.0172771
-0.00105614 0.0244424 -0.0111998
0.00404678 0.00202608 -3.38606e-05
-0.00881049 0.0156241 0.00539015
0.00859279 0.00463296 -0.0608706
0.00498176 0.0455511 -0.0149021
0.0106951 -0.00397875 -0.00398886
0.00825618 0.000269077 -0.0319735
0.0237622 -0.0117195 -0.0213543
-0.000809256 0.000933409 0.00013493
0.00462784 -0.00251826 -0.0107236
0.000342567 -0.00499943 0.0226069
-0.000462226 0.0129028 -0.00874211
-0.00024279 0.000623473 -0.000426747
0.00126983 0.00733831 0.0127814
-0.00654854 0.00578289 -0.0026958
-0.0499549 0.128317 -0.32266
-0.000393149 0.00726247 -0.00575769
-0.0418491 0.00796593 0.0381836
0.0368639 -0.0640458 -0.126178
-0.00151489 -0.00352656 -0.00535562
0.00010075 0.00157192 -0.00238694
-0.0357812 0.0316218 -0.00806984
0.00335062 0.1651 1.89996
-0.0154669 0.0379977 0.0724172
-0.0020094 -6.18816e-05 -0.00164324
1.72811e-14 3.5343e-14 1.1575e-13
0.00173607 -0.00181967 -0.0147073
-0.000192304 0.00166252 -0.000952086
-0.0823685 0.383299 11.2573
0.0419989 0.0367587 0.0467049
-0.00812766 0.00336084 -0.0102383
-0.000432417 0.000958499 -0.00161055
-0.00609136 0.0180784 -0.00651717
0.000125352 0.0152083 -0.0205153
0.000455998 -0.00135293 -0.000393258
-7.10624e-15 -1.16445e-15 1.14975e-13
-0.00239306 -8.98677e-05 -0.00233293
-0.244659 0.217005 0.086521
0.0107309 0.00220005 -0.00963729
-0.0051304 0.00611754 0.00905716
0.000318104 -0.0141874 0.0207288
-0.0015919 -0.00158562 7.24106e-05
-0.00119232 0.0237351 -0.0311665
-0.000183935 0.0237304 0.0106276
-0.0117014 0.0471773 -0.0810128
0.00018277 0.00174429 -0.00215035
-0.0171162 0.0274118 -0.00119492
-0.00942236 -0.0108457 -0.00434008
0.135251 -0.0350476 -0.00884279
0.000261677 0.00118914 -0.0022793
0.0013719 0.0216927 -8.20149e-06
0.00130977 0.0188015 -0.0130987
-0.0595938 0.0309828 0.00885934
-0.000152794 0.00773157 -0.000541722
-0.00576226 0.0336587 -0.00761423
-0.00956888 0.0279531 0.00923477
-0.0141086 0.0732276 0.0243253
-0.0164893 0.00501364 -0.0374867
-0.0156478 -0.0775604 0.00298254
0.000714053 -0.000831349 0.00318033
0.000165506 -0.0253885 0.0107194
0.0036159 -0.00306426 0.00431226
0.000353601 -0.00323109 -0.00290736
0.00220407 0.0200014 -0.00846053
-0.00185061 0.025408 0.00157275
0.00235763 -0.000401453 -0.00106257
0.0116835 0.0019778 -0.0114514
-7.30093e-05 -0.00205385 0.00275225
2.71009e-15 8.32739e-15 1.95883e-13
0.0144797 -0.00693858 -0.000355493
0.0259669 0.0904582 -0.161757
-0.000183787 -0.00656965 0.0201081
0.0125419 0.0225623 -0.0243483
0.0052586 0.011754 -0.00161958
-0.00457769 0.00196353 -0.00657046
-0.00298484 0.0288186 -0.0202441
-0.00952317 -0.000690479 -0.0227236
-0.000376985 -0.0152401 -0.0175391
-0.00244378 -0.0115655 -0.0095629
-0.00104162 0.0141318 -0.0033988
-0.0492399 -0.0692226 -0.07336
0.0023514 -0.000661713 0.00533951
-0.000565129 -0.00113455 -0.00343157
-0.00255745 0.00890887 -0.021368
0.00329838 0.0109695 0.00462125
0.0489141 -0.102818 -0.233395
0.067356 -0.059475 -0.278595
0.00225088 0.0238753 0.000705653
0.00688931 0.00559619 -0.0120837
-0.0298077 -0.0412665 0.0364882
-0.00149402 0.00363316 -0.0175608
0.00382415 0.00456693 -0.00588457
-0.00179764 -0.0119812 -0.00742289
-0.0596175 0.0183143 0.0443608
0.00316752 0.0192658 -0.00213582
9.72397e-05 0.0198698 -0.0135885
-1.23233e-229 9.75962e-231 2.45735e-12
-0.00398755 -0.00885836 -0.00363365
0.0103133 0.00155865 0.0119778
0.00208773 -0.00020293 0.0179973
0.000138761 0.0301205 0.0261817
0.0127749 -0.0077539 -0.0173005
-0.0444542 -0.0076298 -0.117765
0.000782455 0.000945369 -0.00132591
0.0401767 -0.00960681 -0.0160917
-0.000546313 0.000804849 -0.00138197
-0.0167219 0.153415 -0.252369
-0.254007 0.179857 0.0749767
0.024651 0.0218133 -0.0298058
0.00773804 0.00962112 0.00848278
0.000103599 -0.0046956 -0.0114899
-0.00933406 -0.0359349 0.0115939
0.0793806 -0.015667 -0.0792387
0.000390463 0.0011767 -0.00257552
0.00286088 -0.00111794 -0.00522906
-0.00472925 -0.000560069 0.000265541
0.000589195 -0.00202394 0.00258708
0.00675075 0.00805791 -0.00351684
-0.0320097 0.0533926 0.028922
0.0115608 0.0179918 -0.00904483
0.0970597 0.011506 -0.175557
0.770842 -4.1165 -11.7757
0.000617762 -0.0144469 0.00566944
0.120448 0.16443 -0.155255
0.00519544 0.0020927 0.0175595
-0.0554999 -0.032614 0.036312
0.00279793 0.0217291 0.00236868
0.000317723 -0.00358328 -0.0103178
0.00870328 0.0118257 -0.00556655
-0.000206318 0.000930511 -0.00385871
0.000939186 0.00839408 -0.0222156
0.00583564 0.0262994 -0.0118355
0.00052227 0.00146217 -0.044553
-0.000337593 0.0187014 -0.014578
-0.00851816 0.0335385 0.114724
-0.00231376 8.91246e-05 -0.00343861
0.0197593 0.00826492 -0.0430851
1.00437e-14 -9.99534e-17 1.17824e-13
0.0125915 0.0190182 -0.00594957
0.017221 0.0556968 -0.0438078
0.00619793 0.02334 -0.0354283
-0.000306879 0.0311385 -0.0212499
-0.0551341 -0.0134592 -0.0419233
-0.0142449 -0.0331394 0.00628666
-0.0322392 0.00194991 0.0111786
-0.00240401 -0.0243482 -0.0500113
0.00236995 0.0130758 -0.0111985
-0.0101169 0.0155115 -0.00748089
0.0021113 0.00457338 -0.0265447
-0.00404856 -0.0213796 -0.00170973
-0.0209282 -0.0249317 0.0130088
0.00481906 0.00142159 0.00584232
-0.174972 -0.0801929 0.19918
0.000126925 -0.0180468 -0.0039933
0.000519831 0.000129688 -0.000751399
-0.0176191 0.0638754 0.0327459
0.00107971 -0.000424386 0.000592136
0.00735668 -0.00498466 0.00444811
-0.0111383 -1.65995e-05 -0.0165048
-0.0106706 0.00214845 0.0065235
0.000144041 0.000944404 -0.000480867
-0.003868 0.0024687 -0.00244565
0.00033658 -0.0216857 -0.0108266
0.000413639 0.0246158 0.00635074
-0.0302258 0.282944 0.226136
-0.000684156 -0.000127113 -0.00197765
-7.50301e-05 -0.000596811 7.22815e-05
-0.00355812 0.0370869 -0.0118295
-0.0520326 0.0571481 -0.0528828
0.00235409 0.0213722 0.00332984
-0.000606107 0.000105009 -0.000524877
0.00204427 0.0153084 -0.00988298
-0.000730002 -0.00239139 -0.000110374
0.00313654 0.0272585 -0.0278699
-0.000116783 0.00628148 -0.00199874
0.00451065 0.00527333 0.00656452
-0.000212809 0.0359679 0.0314668
0.00161598 0.00657209 -0.0112129
0.00206309 -0.00625544 -0.00200026
0.000811615 -0.00658586 -0.00422728
-0.0117793 -0.000532082 -0.00655748
-0.00111378 0.00159552 -0.00277856
0.00187532 0.0193016 -0.0110047
2.00374e-06 0.00698764 0.0281019
-0.00167225 -0.00488371 -0.00109219
-0.011366 0.0173676 -0.0186148
0.00260909 0.00308725 0.00789134
-0.00224732 0.0253467 -0.00986739
0.00578469 0.0612918 0.0210728
-0.0032984 -0.00627503 -0.00286991
0.00618232 -0.0142678 0.0186208
-0.00291658 0.000230335 -0.00154034
0.169647 2.20005 -0.0810235
0.00211853 0.0180675 0.00529991
0.0091157 -0.00635854 2.07431e-05
-0.0783182 -0.0120827 -0.0195293
0.0084467 0.0127395 -0.010357
-0.018679 0.0948144 0.168667

VECTORS force float
0.0 0.0 -1.43822e-06
-7.45939e-06 5.64701e-07 -1.19554e-06
4.06848e-09 5.03977e-07 2.68015e-07
0.0 0.0 -1.43822e-06
-0.00168709 -0.0201078 0.0239008
7.53952e-09 -1.72894e-08 -6.32426e-09
0.0 0.0 -1.43822e-06
0.0 0.0 -1.43822e-06
0.0 0.0 -1.43822e-06
0.0 0.0 -1.43822e-06
-1.97694e-05 9.4385e-06 -7.41727e-06
1.71256e-06 -2.05536e-06 -6.04637e-06
4.38168e-06 2.43581e-06 -1.94245e-06
-6.51418e-06 1.44854e-05 8.31614e-06
0.0 0.0 -1.43822e-06
0.0 0.0 -1.43822e-06
5.90859e-07 -4.41267e-07 -7.50765e-07
0.0 0.0 -1.43822e-06
4.14102e-08 -5.0304e-07 1.90451e-07
0.0 0.0 -1.43822e-06
0.0 0.0 -1.43822e-06
0.0 0.0 -1.43822e-06
-1.10123e-07 -1.38422e-08 -8.04829e-09
0.0 0.0 -1.43822e-06
5.87161e-07 1.62425e-06 -1.95433e-07
-6.22307e-09 -8.92299e-09 1.58723e-08
1.28007e-06 -2.15032e-08 -1.04182e-06
0.0 0.0 -1.43822e-06
0.0 0.0 -1.43822e-06
0.0 0.0 -1.43822e-06
1.06915e-06 -3.54305e-07 -8.57741e-07
-1.60867e-18 -3.47125e-19 9.23266e-20
0.0 0.0 -1.43822e-06
8.5805e-09 1.34371e-09 -4.94706e-08
0.0 0.0 -1.43822e-06
0.0 0.0 -1.43822e-06
0.0 0.0 -1.43822e-06
0.0 0.0 -1.43822e-06
0.0 0.0 -1.43822e-06
8.70591e-20 -3.15255e-20 6.77626e-21
-8.89e-07 -7.69808e-07 1.64795e-06
1.2209e-06 -3.19826e-07 -5.39652e-07
0.0 0.0 -1.43822e-06
-2.71063e-07 -9.55542e-07 1.82908e-07
-2.21547e-09 1.43346e-08 -6.79783e-09
-6.80478e-06 4.08498e-06 9.50495e-07
4.90774e-08 -2.73164e-07 4.79431e-07
-5.17112e-06 -8.97769e-06 -1.10817e-05
-1.00954e-06 4.61444e-07 -3.12625e-07
0.0 0.0 -1.43822e-06
0.0 0.0 -1.43822e-06
-5.57626e-06 -9.83031e-07 -4.46166e-06
-7.75857e-09 1.49057e-08 2.52505e-09
-1.62472e-05 -3.68305e-05 -0.000107052
-6.9971e-07 1.51074e-06 -2.70982e-07
-3.4972e-07 3.87675e-07 -2.49506e-07
0.0 0.0 -1.43822e-06
-0.13739 0.669497 1.03798
-6.53439e-06 -7.01256e-07 7.47711e-06
-0.012652 -0.030919 -0.00695129
7.413e-07 -4.52229e-08 1.95786e-07
0.0 0.0 -1.43822e-06
-7.61003e-06 -5.73835e-06 1.07285e-05
0.0 0.0 -1.43822e-06
1.23038e-06 7.73378e-07 -2.19205e-06
6.12401e-11 -3.02223e-08 6.51434e-08
0.0 0.0 -1.43822e-06
0.0 0.0 -1.43822e-06
-1.87341e-06 4.18483e-06 -3.00596e-06
-6.06158e-21 -3.29152e-20 -1.05879e-21
4.19504e-07 6.25938e-07 2.66934e-06
0.0 0.0 -1.43822e-06
0.0 0.0 -1.43822e-06
-9.45601e-08 -3.94505e-07 -9.19817e-07
0.0 0.0 -1.43822e-06
0.0 0.0 -1.43822e-06
6.20925e-06 -7.82217e-07 3.23181e-06
0.0 0.0 -1.43822e-06
0.0 0.0 -1.43822e-06
0.0 0.0 -1.43822e-06
0.0 0.0 -1.43822e-06
0.0 0.0 -1.43822e-06
0.0 0.0 -1.43822e-06
-5.23622e-09 -1.93463e-09 -1.42745e-06
5.32816e-06 4.26072e-06 3.70652e-05
-1.55705e-08 3.14792e-09 1.13512e-08
2.70071e-07 -5.00856e-08 -2.01648e-06
-1.60528e-08 1.56445e-06 1.79319e-08
3.3112e-06 -4.13622e-07 2.2116e-05
3.7208e-08 -4.59059e-08 1.33895e-07
0.0 0.0 -1.43822e-06
3.03169e-07 8.94529e-08 -8.67837e-07
1.62472e-05 3.68305e-05 0.000104175
0.0 0.0 -1.43822e-06
3.60801e-06 -2.5136e-06 3.44602e-06
1.16797e-07 8.13098e-07 4.94092e-07
0.0 0.0 -1.43822e-06
-0.00110965 -0.0259928 -0.0179036
0.0 0.0 -1.43822e-06
0.0 0.0 -1.43822e-06
-8.20563e-22 -1.54848e-21 -4.87044e-21
0.0 0.0 -1.43822e-06
-2.48025e-06 -8.44076e-06 -2.86876e-06
0.0148132 -0.0389851 -0.0291294
0.0 0.0 -1.43822e-06
0.0 0.0 -1.43822e-06
-2.41842e-08 3.44665e-07 1.16432e-06
0.0 0.0 -1.43822e-06
0.0 0.0 -1.43822e-06
2.28464e-06 1.91475e-06 5.61848e-07
3.70577e-22 -6.61744e-23 -4.87044e-21
-2.55515e-07 -2.89411e-07 3.01956e-07
0.0 0.0 -1.43822e-06
3.25524e-08 2.63861e-07 -1.35592e-06
0.0 0.0 -1.43822e-06
9.04725e-09 4.02246e-08 -5.11333e-08
-9.50911e-06 6.43466e-07 3.37354e-06
0.0 0.0 -1.43822e-06
-1.69818e-09 8.07053e-09 -1.26011e-08
0.0 0.0 -1.43822e-06
1.81663e-06 2.10285e-06 -1.06768e-05
0.0 0.0 -1.43822e-06
-1.78632e-06 6.9979e-06 3.34146e-06
0.0 0.0 -1.43822e-06
9.05706e-08 -1.16468e-07 2.64428e-07
-1.77419e-08 1.36507e-08 -1.39103e-08
0.0 0.0 -1.43822e-06
0.0 0.0 -1.43822e-06
-2.52036e-06 8.01005e-07 1.2806e-05
1.78139e-07 6.11706e-07 -3.36699e-07
6.28052e-07 -4.107e-07 -1.71867e-07
0.0 0.0 -1.43822e-06
0.0 0.0 -1.43822e-06
0.0 0.0 -1.43822e-06
0.0 0.0 -1.43822e-06
-5.70689e-07 -1.24523e-06 6.99784e-07
1.84207e-07 -1.07497e-07 -1.32197e-06
-4.80689e-07 5.97005e-07 3.24988e-08
-1.26146e-06 -2.87764e-06 -1.85533e-06
3.27449e-08 -4.59838e-08 3.86642e-07
-1.0558e-06 4.66311e-06 9.06124e-07