# vtk DataFile Version 3.0
LIGGGHTS particles timestep 10000000
ASCII
DATASET POLYDATA
POINTS 175 float
0.0161259 0.0225496 0.0142377
0.035954 0.0184948 0.00727421
0.0163369 0.0232658 0.0149028
0.0331509 0.0200375 0.0156327
0.033175 0.0186017 0.015724
0.0170991 0.0234958 0.0142978
0.0251571 0.021381 0.0162377
0.0159867 0.0155216 0.0142151
0.0290417 0.0153508 0.00934474
0.0206365 0.0211809 0.015446
0.0186162 0.0151103 0.0149412
0.0264354 0.0215511 0.0147826
0.0320631 0.0227234 0.0137189
0.0224656 0.0190415 0.0159534
0.0309584 0.0225105 0.00891188
0.0197388 0.0228829 0.00962192
0.0240007 0.0187052 0.0168976
0.0215971 0.021399 0.015318
0.0195319 0.0147997 0.0145942
0.0170021 0.015225 0.0137593
0.0314238 0.0233265 0.0107489
0.038443 0.0215623 0.0147167
0.0126619 0.00210988 0.0435188
0.0188619 0.0232674 0.0157651
0.0454257 0.0173169 0.00620813
0.0355715 0.0160185 0.00841466
0.0204294 0.0219591 0.0148561
0.0485793 0.0192087 0.00599463
0.0148098 0.0226871 0.0140608
0.0316507 0.0233746 0.0118349
0.0343625 0.014845 0.0122449
0.0143014 0.0226696 0.0149214
0.0367318 0.0216891 0.00806914
0.0218131 0.0205302 0.0157571
0.0307283 0.0217631 0.00815426
0.0169324 0.0239565 0.0134298
0.0206292 0.0234697 0.0117709
0.0399676 0.020968 0.00646565
0.0227977 0.0162254 0.0149727
0.0178307 0.0146033 0.015325
0.0275714 0.0167864 0.0151067
0.0349385 0.0159807 0.0145044
0.0212885 0.0186095 0.0159675
0.0238255 0.0151524 0.0152845
0.0323748 0.0231475 0.0128556
0.0222435 0.0149341 0.0132296
0.0186689 0.0215711 0.00798045
0.0220311 0.0154096 0.0141037
0.0173147 0.0228996 0.0150711
0.0207085 0.0152344 0.0162607
0.0241988 0.0192854 0.00587078
0.021608 0.0169115 0.0154123
0.0183554 0.0157694 0.0156957
0.0187396 0.0243152 0.0134563
0.0213419 0.0227795 0.0139432
0.0297266 0.0147478 0.0113312
0.0232685 0.0223013 0.0163017
0.0226432 0.0235574 0.0141826
0.018815 0.0240733 0.0144366
0.0279608 0.0155368 0.0139408
0.0223574 0.0219891 0.015073
0.0218164 0.0160959 0.0148276
0.0221527 0.0144529 0.0143699
0.0356926 0.0176487 0.00740155
0.0196537 0.0234729 0.0117477
0.0209744 0.0194535 0.0166917
0.0175196 0.0142871 0.0128725
0.0224123 0.0235939 0.0151516
0.0184418 0.0141613 0.0146649
0.0220325 0.0192339 0.00586691
0.0224872 0.0174085 0.0156454
0.0208487 0.0143664 0.0144559
0.0193347 0.0232673 0.0105744
0.0153746 0.0238124 0.01977
0.0245085 0.0202361 0.00585434
0.0201166 0.0228461 0.0138274
0.0199772 0.014112 0.0139855
0.0203139 0.024411 0.0137027
0.030499 0.0211142 0.00769868
0.0347563 0.0165195 0.014963
0.0230593 0.0152769 0.0138557
0.0230964 0.0182685 0.0158913
0.0176381 0.0147318 0.014352
0.0161632 0.023669 0.0140044
0.0444675 0.0220761 0.00675369
0.033855 0.01592 0.0144517
0.0206402 0.0229263 0.0148987
0.0214374 0.0175851 0.0161564
0.0303731 0.0202037 0.00745956
0.0180127 0.015027 0.0134167
0.0170038 0.0141596 0.0137196
0.0370268 0.0226733 0.00931804
0.0207548 0.0231413 0.0132136
0.0184962 0.0141038 0.0129929
0.0556725 0.0187626 0.00588299
0.0191902 0.0144998 0.0154869
0.0221292 0.0228145 0.0145691
0.0153782 0.0233566 0.0145388
0.0220727 0.0229512 0.0163017
0.0177979 0.0237918 0.014941
0.0234941 0.0168744 0.015375
0.0155919 0.0230051 0.0135256
0.0206939 0.023721 0.0143069
0.0178509 0.0240702 0.0130507
0.0195915 0.014001 0.0129688
0.0295032 0.0166872 0.007876
0.00830357 0.0326771 0.0435188
0.0185636 0.0231753 0.0147847
0.0292468 0.0150653 0.0101717
0.0170552 0.0222948 0.0158272
0.0163582 0.0221505 0.0151247
0.0365933 0.0210052 0.0435188
0.0161591 0.014694 0.0136779
0.0157896 0.0162021 0.0149213
0.0198555 0.0232928 0.0126753
0.0236688 0.0175065 0.00746506
0.0259606 0.020517 0.00594618
0.0236602 0.0158238 0.0145621
0.023296 0.0231811 0.0148427
0.0177112 0.015535 0.0149678
0.0195699 0.0241384 0.012922
0.024132 0.0193688 0.0072029
0.0180154 0.0237083 0.0139662
0.0215895 0.0195681 0.0159119
0.0205507 0.0239871 0.01281
0.0234923 0.016641 0.00792975
0.0304068 0.0196428 0.00577505
0.0329757 0.0193394 0.0158098
0.0238318 0.021488 0.0161569
0.0150185 0.0213298 0.0153141
0.0175419 0.0146255 0.0119318
0.0225751 0.0211145 0.0154954
0.0208487 0.0232519 0.0104031
0.0626176 0.0189039 0.00582191
0.0195942 0.0154796 0.0153575
0.0284547 0.0176223 0.00593982
0.0214799 0.0237218 0.0130469
0.0258993 0.0230983 0.0130755
0.0168398 0.0158667 0.0146065
0.0195638 0.0232386 0.0147253
0.0245831 0.0159227 0.0157157
0.0166424 0.0146024 0.0145485
0.0315936 0.0220218 0.00835106
0.0323359 0.0220737 0.0145662
0.0245691 0.0220724 0.0158182
0.0195653 0.0237852 0.0138514
0.0181498 0.0225096 0.0154628
0.0214636 0.0142377 0.013678
0.0256663 0.0205817 0.0165564
0.0220805 0.0218207 0.0160861
0.0282853 0.0149515 0.0125629
0.0292533 0.0157971 0.0087095
0.0247403 0.0218076 0.00836321
0.0231165 0.0147474 0.0147028
0.0391006 0.0190317 0.00571839
0.0189842 0.0223524 0.00892198
0.0267462 0.0203954 0.0156136
0.0208528 0.0202833 0.0158261
0.0227598 0.022756 0.0155709
0.0273087 0.017562 0.00838486
0.0214341 0.0235202 0.0149832
0.0217487 0.0240196 0.0139679
0.0206004 0.0140569 0.0132055
0.017962 0.0138217 0.0138378
0.0237643 0.0225204 0.0154292
0.0275755 0.0179305 0.0156768
0.0220676 0.0202327 0.00590095
0.0232414 0.0157342 0.00872762
0.0278426 0.0160055 0.0145286
0.0265595 0.0180887 0.00595892
0.024835 0.0183711 0.00726238
0.0325764 0.0208834 0.0153119
0.0213726 0.0222487 0.0148479
0.0170997 0.0201535 0.00606763
0.0189842 0.0143397 0.0138374

VERTICES 175 350
1 0
1 1
1 2
1 3
1 4
1 5
1 6
1 7
1 8
1 9
1 10
1 11
1 12
1 13
1 14
1 15
1 16
1 17
1 18
1 19
1 20
1 21
1 22
1 23
1 24
1 25
1 26
1 27
1 28
1 29
1 30
1 31
1 32
1 33
1 34
1 35
1 36
1 37
1 38
1 39
1 40
1 41
1 42
1 43
1 44
1 45
1 46
1 47
1 48
1 49
1 50
1 51
1 52
1 53
1 54
1 55
1 56
1 57
1 58
1 59
1 60
1 61
1 62
1 63
1 64
1 65
1 66
1 67
1 68
1 69
1 70
1 71
1 72
1 73
1 74
1 75
1 76
1 77
1 78
1 79
1 80
1 81
1 82
1 83
1 84
1 85
1 86
1 87
1 88
1 89
1 90
1 91
1 92
1 93
1 94
1 95
1 96
1 97
1 98
1 99
1 100
1 101
1 102
1 103
1 104
1 105
1 106
1 107
1 108
1 109
1 110
1 111
1 112
1 113
1 114
1 115
1 116
1 117
1 118
1 119
1 120
1 121
1 122
1 123
1 124
1 125
1 126
1 127
1 128
1 129
1 130
1 131
1 132
1 133
1 134
1 135
1 136
1 137
1 138
1 139
1 140
1 141
1 142
1 143
1 144
1 145
1 146
1 147
1 148
1 149
1 150
1 151
1 152
1 153
1 154
1 155
1 156
1 157
1 158
1 159
1 160
1 161
1 162
1 163
1 164
1 165
1 166
1 167
1 168
1 169
1 170
1 171
1 172
1 173
1 174

POINT_DATA 175
SCALARS id int 1
LOOKUP_TABLE default
2
3
4
5
6
7
8
10
11
13
15
17
18
19
21
22
23
24
25
26
27
28
29
35
36
39
45
47
49
50
54
55
56
57
58
59
60
62
63
64
65
67
69
70
71
73
75
78
79
81
82
85
86
87
88
89
90
91
92
93
94
95
98
101
103
107
111
113
115
121
122
127
130
133
138
139
140
142
143
147
149
150
151
152
153
154
155
156
157
160
161
164
166
172
176
178
179
180
183
185
188
189
190
192
193
198
201
207
209
210
212
215
216
219
220
221
222
227
228
229
231
236
238
239
240
242
244
246
247
252
253
257
258
261
262
264
266
267
271
273
276
277
279
280
281
285
287
288
289
290
291
296
297
298
299
300
301
305
306
308
309
313
314
319
320
321
324
326
327
328
332
334
338
340
341

SCALARS type int 1
LOOKUP_TABLE default
1
1
1
1
1
1
1
1
1
1
1
1
1
1
1
1
1
1
1
1
1
1
1
1
1
1
1
1
1
1
1
1
1
1
1
1
1
1
1
1
1
1
1
1
1
1
1
1
1
1
1
1
1
1
1
1
1
1
1
1
1
1
1
1
1
1
1
1
1
1
1
1
1
1
1
1
1
1
1
1
1
1
1
1
1
1
1
1
1
1
1
1
1
1
1
1
1
1
1
1
1
1
1
1
1
1
1
1
1
1
1
1
1
1
1
1
1
1
1
1
1
1
1
1
1
1
1
1
1
1
1
1
1
1
1
1
1
1
1
1
1
1
1
1
1
1
1
1
1
1
1
1
1
1
1
1
1
1
1
1
1
1
1
1
1
1
1
1
1
1
1
1
1
1
1

SCALARS radius float 1
LOOKUP_TABLE default
0.0005
0.0005
0.0005
0.0005
0.0005
0.0005
0.0005
0.0005
0.0005
0.0005
0.0005
0.0005
0.0005
0.0005
0.0005
0.0005
0.0005
0.0005
0.0005
0.0005
0.0005
0.0005
0.0005
0.0005
0.0005
0.0005
0.0005
0.0005
0.0005
0.0005
0.0005
0.0005
0.0005
0.0005
0.0005
0.0005
0.0005
0.0005
0.0005
0.0005
0.0005
0.0005
0.0005
0.0005
0.0005
0.0005
0.0005
0.0005
0.0005
0.0005
0.0005
0.0005
0.0005
0.0005
0.0005
0.0005
0.0005
0.0005
0.0005
0.0005
0.0005
0.0005
0.0005
0.0005
0.0005
0.0005
0.0005
0.0005
0.0005
0.0005
0.0005
0.0005
0.0005
0.0005
0.0005
0.0005
0.0005
0.0005
0.0005
0.0005
0.0005
0.0005
0.0005
0.0005
0.0005
0.0005
0.0005
0.0005
0.0005
0.0005
0.0005
0.0005
0.0005
0.0005
0.0005
0.0005
0.0005
0.0005
0.0005
0.0005
0.0005
0.0005
0.0005
0.0005
0.0005
0.0005
0.0005
0.0005
0.0005
0.0005
0.0005
0.0005
0.0005
0.0005
0.0005
0.0005
0.0005
0.0005
0.0005
0.0005
0.0005
0.0005
0.0005
0.0005
0.0005
0.0005
0.0005
0.0005
0.0005
0.0005
0.0005
0.0005
0.0005
0.0005
0.0005
0.0005
0.0005
0.0005
0.0005
0.0005
0.0005
0.0005
0.0005
0.0005
0.0005
0.0005
0.0005
0.0005
0.0005
0.0005
0.0005
0.0005
0.0005
0.0005
0.0005
0.0005
0.0005
0.0005
0.0005
0.0005
0.0005
0.0005
0.0005
0.0005
0.0005
0.0005
0.0005
0.0005
0.0005
0.0005
0.0005
0.0005
0.0005
0.0005
0.0005

SCALARS mass float 1
LOOKUP_TABLE default
1.46608e-07
1.46608e-07
1.46608e-07
1.46608e-07
1.46608e-07
1.46608e-07
1.46608e-07
1.46608e-07
1.46608e-07
1.46608e-07
1.46608e-07
1.46608e-07
1.46608e-07
1.46608e-07
1.46608e-07
1.46608e-07
1.46608e-07
1.46608e-07
1.46608e-07
1.46608e-07
1.46608e-07
1.46608e-07
1.46608e-07
1.46608e-07
1.46608e-07
1.46608e-07
1.46608e-07
1.46608e-07
1.46608e-07
1.46608e-07
1.46608e-07
1.46608e-07
1.46608e-07
1.46608e-07
1.46608e-07
1.46608e-07
1.46608e-07
1.46608e-07
1.46608e-07
1.46608e-07
1.46608e-07
1.46608e-07
1.46608e-07
1.46608e-07
1.46608e-07
1.46608e-07
1.46608e-07
1.46608e-07
1.46608e-07
1.46608e-07
1.46608e-07
1.46608e-07
1.46608e-07
1.46608e-07
1.46608e-07
1.46608e-07
1.46608e-07
1.46608e-07
1.46608e-07
1.46608e-07
1.46608e-07
1.46608e-07
1.46608e-07
1.46608e-07
1.46608e-07
1.46608e-07
1.46608e-07
1.46608e-07
1.46608e-07
1.46608e-07
1.46608e-07
1.46608e-07
1.46608e-07
1.46608e-07
1.46608e-07
1.46608e-07
1.46608e-07
1.46608e-07
1.46608e-07
1.46608e-07
1.46608e-07
1.46608e-07
1.46608e-07
1.46608e-07
1.46608e-07
1.46608e-07
1.46608e-07
1.46608e-07
1.46608e-07
1.46608e-07
1.46608e-07
1.46608e-07
1.46608e-07
1.46608e-07
1.46608e-07
1.46608e-07
1.46608e-07
1.46608e-07
1.46608e-07
1.46608e-07
1.46608e-07
1.46608e-07
1.46608e-07
1.46608e-07
1.46608e-07
1.46608e-07
1.46608e-07
1.46608e-07
1.46608e-07
1.46608e-07
1.46608e-07
1.46608e-07
1.46608e-07
1.46608e-07
1.46608e-07
1.46608e-07
1.46608e-07
1.46608e-07
1.46608e-07
1.46608e-07
1.46608e-07
1.46608e-07
1.46608e-07
1.46608e-07
1.46608e-07
1.46608e-07
1.46608e-07
1.46608e-07
1.46608e-07
1.46608e-07
1.46608e-07
1.46608e-07
1.46608e-07
1.46608e-07
1.46608e-07
1.46608e-07
1.46608e-07
1.46608e-07
1.46608e-07
1.46608e-07
1.46608e-07
1.46608e-07
1.46608e-07
1.46608e-07
1.46608e-07
1.46608e-07
1.46608e-07
1.46608e-07
1.46608e-07
1.46608e-07
1.46608e-07
1.46608e-07
1.46608e-07
1.46608e-07
1.46608e-07
1.46608e-07
1.46608e-07
1.46608e-07
1.46608e-07
1.46608e-07
1.46608e-07
1.46608e-07
1.46608e-07
1.46608e-07
1.46608e-07
1.46608e-07
1.46608e-07
1.46608e-07
1.46608e-07
1.46608e-07
1.46608e-07
1.46608e-07
1.46608e-07
1.46608e-07
1.46608e-07

VECTORS velocity float
0.00118171 0.000756593 -4.45273e-05
8.30505e-05 -0.0253203 -0.000745323
-0.000228921 0.000335972 0.0006827
-0.000719739 0.0218727 -0.00715823
0.000519708 0.0228404 0.00371861
-0.000593767 -0.00144031 0.000600518
7.40919e-05 -0.000541354 -0.000593969
0.00193688 0.0111954 0.0158173
0.00208142 -0.00876069 0.0173126
0.00230221 0.0138352 -0.00783994
0.00700024 0.00204 0.00130144
-0.000558204 0.0152563 -0.0107857
0.000274027 0.0128875 -0.0210959
0.0054844 0.0159919 0.000593113
-0.00520755 -0.0344927 -0.0398423
-2.87216e-05 -0.0111934 -0.0218226
0.000641035 0.0253351 -0.0323537
0.00335694 0.00738944 -0.00505272
0.0320796 0.0170285 0.0153488
-0.00169009 6.8405e-05 0.0181258
0.000675389 -0.00318782 -0.0225962
0.00258369 0.0082739 -0.00627979
5.65984e-256 -2.65491e-257 -8.51801e-13
0.0176419 0.0152143 0.00961291
-4.16234e-15 -1.11562e-14 -7.96873e-14
0.333982 18.0824 10.8868
0.00322406 0.00900132 -0.00838722
5.54024e-15 -1.17887e-14 -1.22974e-13
-8.95793e-05 -0.000243988 0.00152727
0.000473743 0.00167831 -0.0235968
0.00230978 0.00401506 0.0193263
0.00282669 0.00890778 0.00347786
0.000537935 -0.0105461 -0.0078733
0.0017636 0.00954977 -0.00222077
0.0261718 0.282016 0.255923
-0.000304419 -0.000824708 4.48583e-05
0.0087999 -0.00336935 -0.0116662
-0.00223177 -0.0156414 0.0442418
0.00547911 -0.00439033 0.00218563
-0.0111489 -0.00887703 0.00187803
0.000303293 0.0209521 0.013402
0.00113254 0.00123152 0.00462168
0.000675939 0.00402136 -0.0462043
-0.0118724 -0.0103113 -0.0110896
0.000297738 0.0105996 -0.0243071
0.00936396 0.00114154 0.0222906
0.000579406 -0.013373 -0.0113707
0.00189469 0.012982 -0.00637256
-0.00114765 -0.00559739 0.00182124
-0.114746 0.0255638 0.0574087
-1.74597e-07 1.11123e-07 -3.49543e-08
0.0132797 0.0278727 -0.0333459
0.0170713 0.000780534 -0.00459996
0.0110021 0.00196134 -0.00505887
0.0142319 -0.0013339 -0.000615876
0.000471818 -0.000402735 -0.00406832
0.00236886 -0.00300514 0.00207774
0.00108687 0.00220155 -0.000531335
-0.000532144 -0.000908668 4.54139e-05
0.000731408 0.013252 0.0207431
0.00642352 0.0034557 -0.0026471
0.00142821 0.0146316 0.0147253
0.03073 0.0324226 -0.0399211
0.000369015 -0.0220949 0.00817489
0.00553854 -0.00153548 -0.00203487
-0.0149209 0.0156986 -0.00912919
-0.0213471 -0.00208376 0.000569402
0.00602842 0.000683553 -0.000115935
0.00519763 -0.010262 -0.0167657
6.47231e-08 -4.36627e-08 4.30868e-08
5.15479e-07 0.0211029 0.00811222
0.00199093 0.00285112 0.00250404
0.00435555 -0.00358903 -0.0121687
0.131553 -0.065288 -0.0644298
5.77444e-07 -1.38306e-07 5.01296e-08
0.00295581 0.00499688 -0.00636319
-0.00171428 -0.00706015 0.00258525
-0.000646056 0.000569894 -0.000722656
0.213651 0.449623 -0.198856
0.000438777 -0.00332244 0.000730314
-0.00397181 -0.0100269 -0.0201599
0.00355001 0.0179872 0.00264638
0.0126623 -0.0125032 -0.00168114
-0.000492649 -0.000649549 0.000472246
0.00317649 0.0409531 -0.108841
0.00160153 0.0141017 0.017833
0.00635181 0.00683539 -0.00136375
0.00343642 -0.007939 -0.0208832
0.41079 -7.24492 15.3596
0.00503505 0.000150267 -0.00595096
-0.0115952 -0.0130505 0.00441943
0.00140189 -0.0157273 -0.0225456
0.00157271 0.00227121 -0.00468625
-0.0126777 0.0362536 0.00610172
1.66168e-12 -6.24055e-12 3.65336e-13
0.00428475 0.00110564 0.00211685
0.00470789 0.00296015 -0.0010499
-0.000156325 0.00138205 0.00296965
-0.0317207 0.0347425 -0.0537175
-0.000406637 -0.000908148 -7.02753e-05
1.71833e-05 0.013986 0.00833023
-0.000289557 -0.000127996 0.000493074
0.00276412 0.00818302 0.00364168
-0.00020213 -0.00120626 9.0359e-05
-0.000157233 -0.00198336 0.00330401
0.00219261 -0.0157747 0.0111999
1.2722e-294 -1.99886e-294 1.3543e-12
-0.000520359 -0.00253292 -0.00127989
-0.00156387 -0.00730726 0.0259365
-0.0237518 -0.0259196 -0.0396422
0.00520547 -0.00422996 -0.00425304
5.07777e-317 -2.19806e-317 2.45735e-12
0.00123505 0.007989 0.0151699
0.00232543 0.01626 0.00874849
0.00555741 -3.50862e-05 -0.00389072
0.00027281 -0.0245376 0.00739465
4.73569e-15 7.82146e-16 -7.72381e-14
-0.00593801 -0.00288247 -0.0056655
0.000319171 0.00207465 0.000375446
0.00836673 0.00522497 -0.000125962
0.00278148 -0.00180076 -0.00212525
-3.45042e-05 -0.0154754 -0.00103392
-0.000551603 -0.00212605 0.000149998
-0.00331324 0.00935414 -0.000962991
0.0009276 0.000538909 -0.00284074
0.00039761 -0.0203947 0.0138497
-1.65987e-15 1.72652e-17 -1.94765e-14
0.0017086 0.018892 -0.00116533
0.00300173 -0.00253623 0.00267789
-0.000155813 0.0333518 -0.0197675
-0.00665435 -0.000739326 0.00141335
0.00491652 0.00486552 -0.00128465
-5.43641e-05 -0.00580722 -0.0239418
0.123433 -0.0105615 -0.00238713
0.0195536 0.0214818 0.00620848
-4.02617e-06 -8.41692e-06 3.43356e-07
-0.000284838 0.00125248 -0.00130805
0.0061272 -0.0663741 -0.0280703
0.00667799 0.00917709 0.00884011
-0.000592977 -0.007356 -0.000223877
-0.00535782 -0.00382378 -0.00472973
0.0097229 0.00755065 0.016174
-0.000451306 0.0245498 0.0557363
0.00180779 0.0144823 -0.0126057
0.000477421 -0.00110023 -0.00124208
-0.000716526 4.74845e-05 -0.0011717
-0.000806746 0.00622562 -0.00288236
0.000148908 -0.000626215 0.00101466
-5.07318e-06 -0.000430243 -0.000610005
0.0235319 0.0135081 -0.0119885
0.000233069 0.00646505 0.0238503
0.00162065 -0.0125728 0.0138884
0.000377908 -0.0190153 -0.0154667
-0.0132756 -0.00502885 -0.0132161
-8.71841e-15 4.07964e-14 -2.01652e-13
-0.00156101 -0.0200917 -0.0241356
0.00119848 0.0238814 -0.00786694
-2.48905e-05 0.0201113 -0.00477956
0.00537333 0.0019341 0.00201915
-0.00035355 0.0148684 -0.00952843
0.00712103 0.00415819 0.000504432
-0.000524059 -0.00133746 -0.00725161
0.000109592 -0.00166876 0.00378179
0.00539115 0.0367868 0.0269969
0.00023375 -0.00195856 -0.00291634
-0.0203353 0.0184037 0.00569221
3.0214e-08 -3.65357e-08 -2.71026e-08
0.00100247 -0.0146263 0.0176835
0.00101562 0.0169068 0.0148698
1.01294e-07 -8.06031e-08 5.41666e-09
0.0508295 -0.0431707 0.00678628
0.000142987 0.0228191 -0.0106066
0.00431669 0.00517114 -0.00361823
-0.0119176 -0.0136413 -0.0130836
-0.00189844 -0.00309448 0.0183071

VECTORS force float
-1.9184e-06 -2.64174e-06 1.68922e-06
1.04232e-09 4.06824e-09 1.18901e-08
-1.22503e-06 -1.44944e-06 2.45371e-06
2.84505e-10 9.28112e-09 -1.08688e-08
-1.91356e-08 -2.04772e-08 -4.49319e-08
-1.02276e-06 -3.9358e-07 -5.81748e-06
1.15138e-06 -1.46812e-06 7.85295e-07
3.49811e-08 2.08353e-07 -1.49925e-06
-1.05499e-08 7.52889e-08 3.3572e-08
5.28137e-07 -1.12088e-05 7.96717e-06
-4.9248e-07 7.28037e-07 -1.45646e-06
-1.00036e-08 9.11832e-09 -5.30213e-09
-1.74291e-09 -8.69369e-09 -1.30727e-08
-8.76039e-06 6.62665e-06 5.79486e-06
0.000433321 0.000326166 0.000384977
1.64728e-09 -1.56209e-08 -5.08394e-10
0.0 0.0 -1.43822e-06
-7.10096e-06 -7.3441e-06 -5.24799e-06
0.0 0.0 -1.43822e-06
2.01494e-05 3.95682e-06 -2.30592e-06
1.11084e-07 -2.49693e-06 -1.20706e-05
5.77318e-07 2.12534e-07 -2.56272e-08
3.20841e-259 -1.505e-260 0.0
0.0 0.0 -1.43822e-06
-2.0691e-18 4.47763e-19 -1.10114e-20
-0.0253627 -0.0161724 0.162229
7.57839e-06 -1.55912e-05 1.04862e-05
-8.31945e-20 1.2102e-19 -1.52466e-20
4.39306e-06 3.79649e-06 1.87507e-06
-4.58791e-08 -1.3488e-08 -2.81178e-07
1.22327e-08 1.7727e-08 2.44596e-08
1.29895e-06 3.19752e-06 9.49463e-07
-3.37658e-07 1.98531e-07 4.39404e-08
1.53263e-07 -4.84647e-06 3.89574e-06
0.00377654 -0.00171197 -0.00200957
1.83035e-06 1.10248e-06 -3.61317e-06
-3.91188e-05 -3.63078e-05 -0.000136321
0.0 0.0 -1.43822e-06
0.0 0.0 -1.43822e-06
0.0 0.0 -1.43822e-06
-4.1286e-09 1.38117e-08 -8.88981e-09
2.2538e-05 -7.49961e-07 -4.8775e-07
0.0 0.0 -1.43822e-06
-1.21918e-07 -5.35277e-08 -5.43014e-07
3.62208e-08 -1.22249e-08 6.68579e-09
0.0 0.0 -1.43822e-06
8.92692e-09 1.98023e-09 2.84986e-08
0.0 0.0 -1.43822e-06
-2.91207e-07 5.57087e-07 -2.04046e-06
0.0 0.0 -1.43822e-06
4.38198e-11 -2.02112e-11 -1.21311e-12
0.0 0.0 -1.43822e-06
5.13678e-07 4.63632e-08 -1.49524e-06
0.0 0.0 -1.43822e-06
0.0 0.0 -1.43822e-06
7.41251e-09 9.0423e-08 -8.91258e-08
-2.09904e-06 2.03169e-07 -1.38733e-06
6.13468e-07 1.01256e-06 -1.89863e-07
-6.86379e-07 -1.68962e-07 5.98789e-07
-1.10612e-08 5.06804e-08 7.82682e-08
-5.89592e-06 4.35776e-07 -1.02831e-05
8.51001e-07 5.8997e-07 -1.20201e-06
6.49244e-07 4.34293e-08 1.23294e-06
-1.73433e-09 -8.40039e-10 2.00497e-08
-1.05114e-05 1.13849e-05 -6.14619e-06
-2.46952e-06 -3.15605e-06 5.60875e-06
4.57093e-07 -9.5367e-07 4.90382e-07
-4.74513e-06 1.08238e-07 4.13459e-07
0.0 0.0 -1.43822e-06
4.98206e-10 -1.6131e-10 2.00147e-10
6.0991e-11 -4.12895e-08 -4.6427e-08
-8.06234e-07 -1.82633e-07 2.2198e-07
4.03618e-06 -8.67494e-07 -1.91932e-06
0.0 0.0 -1.43822e-06
1.51406e-11 -1.1449e-11 7.58667e-13
1.39179e-06 6.07859e-07 1.42794e-06
-5.58596e-07 -1.81566e-07 -2.65768e-07
-1.63109e-06 2.97544e-06 -1.23765e-06
-0.00716055 -0.0296611 -0.0572364
1.57829e-05 -1.88905e-05 -9.17226e-06
0.0 0.0 -1.43822e-06
8.73545e-06 -6.56032e-06 -8.79448e-06
1.10161e-05 -6.24987e-06 1.38658e-05
-8.65027e-07 -3.23063e-09 -1.06373e-06
0.0 0.0 -1.43822e-06
-2.71837e-07 6.86746e-07 7.95859e-07
2.44521e-06 -4.37015e-06 -1.04096e-05
0.0 0.0 -1.43822e-06
-0.016028 -0.0190488 -0.666173
0.0 0.0 -1.43822e-06
-4.76729e-07 -5.99146e-08 -1.21188e-06
3.20294e-08 -5.86676e-08 -9.36638e-08
1.69335e-06 -4.17261e-08 5.6143e-07
0.0 0.0 -1.43822e-06
7.47519e-15 -8.47839e-15 1.06018e-15
1.19511e-07 -2.29299e-07 -1.40539e-06
6.31001e-07 5.69108e-06 -1.35785e-06
-8.00292e-06 -2.75821e-06 3.07734e-06
0.0 0.0 -1.43822e-06
-1.39079e-06 -2.15439e-06 3.96825e-08
8.02284e-10 -8.97644e-08 -5.13095e-08
-1.4571e-07 1.01416e-06 -2.33095e-06
-1.69509e-06 4.43168e-06 2.6773e-07
1.72938e-07 -2.53002e-07 1.36202e-06
-2.01405e-08 -2.36604e-08 5.41392e-08
-1.08927e-08 -5.84657e-08 7.10423e-08
-1.84228e-295 2.89457e-295 0.0
-1.36041e-06 -3.61469e-06 4.52037e-06
-8.69058e-08 -3.62165e-08 5.56958e-08
0.0 0.0 -1.43822e-06
-3.02336e-07 1.41529e-07 2.3506e-08
-2.1887e-320 2.2915e-320 0.0
-2.15797e-05 -1.08084e-05 9.84624e-07
0.0 0.0 -1.43822e-06
5.99216e-06 1.06865e-06 1.01231e-05
6.75418e-07 1.64733e-06 -5.76082e-07
6.7895e-21 -6.92267e-20 -2.11758e-22
2.07092e-08 -2.1503e-07 -3.95646e-07
-1.68701e-06 -2.57963e-06 1.41673e-06
2.83018e-07 -1.16586e-06 -1.05165e-06
1.32767e-05 7.0717e-07 4.57618e-06
3.558e-08 6.6348e-07 -5.61532e-08
-3.09881e-06 -2.38767e-06 6.37425e-07
1.60338e-08 5.73211e-06 1.98561e-08
3.47781e-06 -7.64979e-07 4.55096e-06
1.3863e-07 4.17122e-08 -3.19557e-08
2.64698e-23 3.61333e-21 0.0
-9.9902e-09 3.76888e-08 -3.99592e-08
1.42787e-06 -1.79305e-06 -1.41396e-06
-1.67978e-09 1.2853e-07 -1.27117e-07
7.71919e-07 1.70595e-07 -1.86991e-07
-1.8838e-06 -1.73056e-06 -4.15114e-07
6.01911e-10 -1.57458e-08 -3.02635e-09
-3.7373e-07 1.75246e-07 -1.27782e-08
0.0 0.0 -1.43822e-06
-8.9802e-08 7.84846e-08 7.97793e-09
-1.20236e-06 2.41432e-06 4.26215e-06
0.000884217 0.00217924 0.00192246
-9.3353e-07 8.09902e-07 -1.34945e-06
-1.42527e-06 3.43204e-05 7.22306e-06
-8.06338e-08 -1.65716e-07 -1.17864e-07
-8.01898e-07 3.84079e-08 -1.8643e-06
0.00036789 0.00426482 0.0031305
-1.00387e-09 -6.92905e-09 -1.23443e-08
-1.44572e-07 -4.48177e-08 -1.54363e-06
3.38362e-06 5.17111e-06 -2.57687e-06
0.0 0.0 -1.43822e-06
-9.71301e-07 -6.89561e-08 -8.58686e-07
-4.57791e-07 -1.02396e-06 1.93708e-07
0.0 0.0 -1.43822e-06
-1.37469e-09 1.58435e-08 2.02887e-09
2.53947e-07 2.59886e-08 2.37082e-08
-2.60859e-09 -1.60182e-08 6.93113e-09
0.0 0.0 -1.43822e-06
-3.31005e-20 -6.98802e-20 -1.27055e-20
-8.9376e-08 -4.37236e-08 -8.12055e-08
-3.91304e-08 2.19768e-08 -1.38176e-08
-2.26721e-07 -9.10635e-06 -2.60946e-07
-2.04613e-06 2.81377e-07 -2.26691e-06
-1.26475e-08 1.06216e-07 -1.15863e-07
-2.43012e-06 6.12453e-06 -9.56835e-06
-1.01612e-06 -1.69245e-06 1.04055e-06
-2.64597e-07 2.75536e-07 4.14301e-07
0.0 0.0 -1.43822e-06
-2.532e-06 2.08383e-06 -9.57848e-07
-0.000297071 8.81688e-05 2.48879e-05
-2.49242e-10 -1.10455e-10 -8.47466e-11
-5.1957e-08 -6.49773e-08 1.47804e-07
-1.88651e-08 5.76191e-08 3.11835e-08
-4.23354e-10 -4.08637e-10 -3.00046e-11
-7.51645e-05 4.38123e-05 -7.12678e-06
-7.43897e-10 -1.98294e-09 -1.53931e-08
6.22926e-06 1.57145e-06 -1.963e-06
0.0 0.0 -1.43822e-06
0.0 0.0 -1.43822e-06
