# vtk DataFile Version 3.0
LIGGGHTS particles timestep 14000000
ASCII
DATASET POLYDATA
POINTS 147 float
0.0414937 0.0194355 0.0072137
0.0231384 0.0180257 0.00732431
0.0382399 0.0196356 0.0157007
0.0392073 0.0158117 0.0142295
0.0260474 0.0205077 0.0155616
0.02159 0.0224036 0.0148949
0.0336365 0.0148995 0.0125356
0.0154593 0.0151414 0.0136458
0.0161971 0.0148707 0.0130276
0.0310428 0.0233324 0.0122576
0.0442322 0.0197189 0.00576402
0.035979 0.0216813 0.00814475
0.0185389 0.0229762 0.0100014
0.0172665 0.0241817 0.0142436
0.0199892 0.0238867 0.0146231
0.0177877 0.0140891 0.0132063
0.0362278 0.022374 0.00877079
0.0443634 0.0192516 0.0157887
0.0126619 0.00210988 0.0435188
0.0180678 0.0238422 0.0137214
0.0336198 0.0189679 0.0056986
0.0410657 0.0178037 0.00740852
0.0265282 0.0183006 0.0157652
0.0485793 0.0192087 0.00599463
0.0188839 0.0280662 0.0325851
0.036981 0.0233546 0.0118506
0.0398927 0.0148132 0.0115121
0.0417464 0.0207736 0.00752004
0.0356896 0.0206048 0.00761295
0.0216649 0.0147806 0.0128068
0.028774 0.0164979 0.00801377
0.037767 0.0201211 0.00599712
0.0221162 0.0201498 0.0158093
0.0317882 0.0214627 0.0150433
0.0405402 0.0157725 0.00879551
0.0188337 0.0242205 0.0132007
0.0202572 0.0199347 0.0158541
0.0379296 0.0208043 0.0153309
0.0249687 0.0216003 0.0161076
0.0196779 0.022259 0.0145836
0.019829 0.0241912 0.0131083
0.020133 0.0234843 0.0117654
0.0228956 0.0234307 0.0144192
0.0241988 0.0192723 0.00587478
0.0145527 0.0184246 0.0196851
0.0172628 0.0240397 0.0131619
0.024157 0.0210819 0.00621473
0.0329128 0.0167185 0.0151247
0.0171968 0.0148795 0.0130456
0.0209774 0.0216484 0.0151549
0.0323357 0.0193514 0.0158018
0.0235978 0.0151056 0.0149546
0.0182612 0.0225225 0.0154865
0.0214203 0.0227451 0.0139671
0.0418769 0.0185755 0.00720977
0.0189255 0.0352205 0.0509255
0.0258178 0.0212209 0.0151841
0.0221014 0.0237368 0.0138928
0.0174561 0.0146163 0.0119933
0.0220325 0.0192339 0.00586691
0.028494 0.0156249 0.00894868
0.0151713 0.0228384 0.0138235
0.0252303 0.0208913 0.0060522
0.0245153 0.0202206 0.0058546
0.0293821 0.0180819 0.00586114
0.0253747 0.0232476 0.0126661
0.0367148 0.0233279 0.0106953
0.0369961 0.0194888 0.00590926
0.0206745 0.0223392 0.0144965
0.0269563 0.016544 0.0149141
0.0157287 0.0235014 0.0143232
0.0366167 0.0185804 0.00573353
0.0394998 0.0150354 0.0130031
0.0242958 0.0226907 0.0092332
0.0349166 0.0171604 0.00765456
0.0238232 0.0209679 0.00777602
0.0421977 0.0222504 0.00859001
0.0229457 0.0148469 0.0142412
0.0191653 0.0232723 0.012811
0.0573841 0.0177084 0.00590108
0.0205609 0.0243569 0.0137691
0.0189895 0.0233809 0.0111166
0.0202714 0.018479 0.0170677
0.0235291 0.0229331 0.0150416
0.0200361 0.0233121 0.0126794
0.021424 0.0152304 0.01378
0.0183854 0.0232176 0.0147108
0.021901 0.0219689 0.0157478
0.0352614 0.0186099 0.00726172
0.00830357 0.0326771 0.0435188
0.0206865 0.0238888 0.0125758
0.0336953 0.0153258 0.0135901
0.0199214 0.0214548 0.0152388
0.0365933 0.0210052 0.0435188
0.0211109 0.0141094 0.0135101
0.0283374 0.0198408 0.00595162
0.0259923 0.0202526 0.00594551
0.0243416 0.022297 0.0156619
0.027248 0.0156304 0.0141171
0.0164944 0.0237981 0.0137527
0.0205207 0.018954 0.0160116
0.0224729 0.0150075 0.0133512
0.0304205 0.0195349 0.00577379
0.0386193 0.0180709 0.0155668
0.0201846 0.0136968 0.0138326
0.0220914 0.0148747 0.0104713
0.0193869 0.0230835 0.0137128
0.0304905 0.0205006 0.00602379
0.0680479 0.0195636 0.00574881
0.0284547 0.0176223 0.00593982
0.0242605 0.015642 0.0154807
0.0304736 0.0229868 0.00964468
0.0260528 0.0224529 0.0149759
0.0222387 0.0155542 0.0142624
0.0207036 0.0207895 0.0155901
0.0367878 0.0204418 0.00612933
0.0401813 0.0150204 0.0100128
0.0187536 0.0140056 0.0129612
0.0190088 0.0236914 0.0120522
0.0213492 0.0239793 0.0132796
0.0216826 0.0210046 0.015521
0.0293761 0.0188582 0.00716418
0.0151646 0.021622 0.0157429
0.0326824 0.0175962 0.0155169
0.0339524 0.0148336 0.0112597
0.0298943 0.021282 0.00778265
0.0211723 0.0236597 0.0142938
0.0384427 0.0190526 0.00575048
0.0213778 0.0194869 0.0159378
0.0313053 0.0228412 0.0133744
0.0279267 0.0147771 0.0114665
0.0345421 0.0171326 0.0086326
0.0234199 0.0191639 0.00720511
0.0210173 0.0231536 0.0131481
0.0202807 0.0229384 0.0136271
0.0166072 0.018879 0.0199072
0.0192784 0.0143081 0.0137568
0.0316114 0.0222487 0.0143758
0.0220676 0.0202327 0.00590095
0.0200862 0.0145825 0.0142861
0.0320696 0.0203041 0.0155894
0.0265595 0.0180887 0.00595892
0.0188026 0.0241001 0.0143489
0.0380822 0.020229 0.0156708
0.0640746 0.0187632 0.00577472
0.0170405 0.0201072 0.00601288
0.0198034 0.0140055 0.0129613

VERTICES 147 294
1 0
1 1
1 2
1 3
1 4
1 5
1 6
1 7
1 8
1 9
1 10
1 11
1 12
1 13
1 14
1 15
1 16
1 17
1 18
1 19
1 20
1 21
1 22
1 23
1 24
1 25
1 26
1 27
1 28
1 29
1 30
1 31
1 32
1 33
1 34
1 35
1 36
1 37
1 38
1 39
1 40
1 41
1 42
1 43
1 44
1 45
1 46
1 47
1 48
1 49
1 50
1 51
1 52
1 53
1 54
1 55
1 56
1 57
1 58
1 59
1 60
1 61
1 62
1 63
1 64
1 65
1 66
1 67
1 68
1 69
1 70
1 71
1 72
1 73
1 74
1 75
1 76
1 77
1 78
1 79
1 80
1 81
1 82
1 83
1 84
1 85
1 86
1 87
1 88
1 89
1 90
1 91
1 92
1 93
1 94
1 95
1 96
1 97
1 98
1 99
1 100
1 101
1 102
1 103
1 104
1 105
1 106
1 107
1 108
1 109
1 110
1 111
1 112
1 113
1 114
1 115
1 116
1 117
1 118
1 119
1 120
1 121
1 122
1 123
1 124
1 125
1 126
1 127
1 128
1 129
1 130
1 131
1 132
1 133
1 134
1 135
1 136
1 137
1 138
1 139
1 140
1 141
1 142
1 143
1 144
1 145
1 146

POINT_DATA 147
SCALARS id int 1
LOOKUP_TABLE default
3
4
5
6
7
10
11
13
15
17
18
21
22
23
25
26
27
28
29
35
36
39
45
47
49
50
54
56
58
59
60
62
64
65
67
69
70
71
73
75
78
79
81
82
85
87
88
89
91
92
93
94
95
98
101
103
107
111
113
121
122
127
133
138
140
142
143
147
150
151
152
153
154
155
157
160
164
166
172
176
178
180
183
185
188
189
190
192
198
201
207
209
212
215
219
220
222
227
228
238
239
240
244
246
252
253
257
258
261
264
266
267
271
276
277
279
280
281
285
287
288
289
290
291
296
297
298
299
300
301
305
308
309
313
314
319
320
321
324
326
327
328
332
334
338
340
341

SCALARS type int 1
LOOKUP_TABLE default
1
1
1
1
1
1
1
1
1
1
1
1
1
1
1
1
1
1
1
1
1
1
1
1
1
1
1
1
1
1
1
1
1
1
1
1
1
1
1
1
1
1
1
1
1
1
1
1
1
1
1
1
1
1
1
1
1
1
1
1
1
1
1
1
1
1
1
1
1
1
1
1
1
1
1
1
1
1
1
1
1
1
1
1
1
1
1
1
1
1
1
1
1
1
1
1
1
1
1
1
1
1
1
1
1
1
1
1
1
1
1
1
1
1
1
1
1
1
1
1
1
1
1
1
1
1
1
1
1
1
1
1
1
1
1
1
1
1
1
1
1
1
1
1
1
1
1

SCALARS radius float 1
LOOKUP_TABLE default
0.0005
0.0005
0.0005
0.0005
0.0005
0.0005
0.0005
0.0005
0.0005
0.0005
0.0005
0.0005
0.0005
0.0005
0.0005
0.0005
0.0005
0.0005
0.0005
0.0005
0.0005
0.0005
0.0005
0.0005
0.0005
0.0005
0.0005
0.0005
0.0005
0.0005
0.0005
0.0005
0.0005
0.0005
0.0005
0.0005
0.0005
0.0005
0.0005
0.0005
0.0005
0.0005
0.0005
0.0005
0.0005
0.0005
0.0005
0.0005
0.0005
0.0005
0.0005
0.0005
0.0005
0.0005
0.0005
0.0005
0.0005
0.0005
0.0005
0.0005
0.0005
0.0005
0.0005
0.0005
0.0005
0.0005
0.0005
0.0005
0.0005
0.0005
0.0005
0.0005
0.0005
0.0005
0.0005
0.0005
0.0005
0.0005
0.0005
0.0005
0.0005
0.0005
0.0005
0.0005
0.0005
0.0005
0.0005
0.0005
0.0005
0.0005
0.0005
0.0005
0.0005
0.0005
0.0005
0.0005
0.0005
0.0005
0.0005
0.0005
0.0005
0.0005
0.0005
0.0005
0.0005
0.0005
0.0005
0.0005
0.0005
0.0005
0.0005
0.0005
0.0005
0.0005
0.0005
0.0005
0.0005
0.0005
0.0005
0.0005
0.0005
0.0005
0.0005
0.0005
0.0005
0.0005
0.0005
0.0005
0.0005
0.0005
0.0005
0.0005
0.0005
0.0005
0.0005
0.0005
0.0005
0.0005
0.0005
0.0005
0.0005
0.0005
0.0005
0.0005
0.0005
0.0005
0.0005

SCALARS mass float 1
LOOKUP_TABLE default
1.46608e-07
1.46608e-07
1.46608e-07
1.46608e-07
1.46608e-07
1.46608e-07
1.46608e-07
1.46608e-07
1.46608e-07
1.46608e-07
1.46608e-07
1.46608e-07
1.46608e-07
1.46608e-07
1.46608e-07
1.46608e-07
1.46608e-07
1.46608e-07
1.46608e-07
1.46608e-07
1.46608e-07
1.46608e-07
1.46608e-07
1.46608e-07
1.46608e-07
1.46608e-07
1.46608e-07
1.46608e-07
1.46608e-07
1.46608e-07
1.46608e-07
1.46608e-07
1.46608e-07
1.46608e-07
1.46608e-07
1.46608e-07
1.46608e-07
1.46608e-07
1.46608e-07
1.46608e-07
1.46608e-07
1.46608e-07
1.46608e-07
1.46608e-07
1.46608e-07
1.46608e-07
1.46608e-07
1.46608e-07
1.46608e-07
1.46608e-07
1.46608e-07
1.46608e-07
1.46608e-07
1.46608e-07
1.46608e-07
1.46608e-07
1.46608e-07
1.46608e-07
1.46608e-07
1.46608e-07
1.46608e-07
1.46608e-07
1.46608e-07
1.46608e-07
1.46608e-07
1.46608e-07
1.46608e-07
1.46608e-07
1.46608e-07
1.46608e-07
1.46608e-07
1.46608e-07
1.46608e-07
1.46608e-07
1.46608e-07
1.46608e-07
1.46608e-07
1.46608e-07
1.46608e-07
1.46608e-07
1.46608e-07
1.46608e-07
1.46608e-07
1.46608e-07
1.46608e-07
1.46608e-07
1.46608e-07
1.46608e-07
1.46608e-07
1.46608e-07
1.46608e-07
1.46608e-07
1.46608e-07
1.46608e-07
1.46608e-07
1.46608e-07
1.46608e-07
1.46608e-07
1.46608e-07
1.46608e-07
1.46608e-07
1.46608e-07
1.46608e-07
1.46608e-07
1.46608e-07
1.46608e-07
1.46608e-07
1.46608e-07
1.46608e-07
1.46608e-07
1.46608e-07
1.46608e-07
1.46608e-07
1.46608e-07
1.46608e-07
1.46608e-07
1.46608e-07
1.46608e-07
1.46608e-07
1.46608e-07
1.46608e-07
1.46608e-07
1.46608e-07
1.46608e-07
1.46608e-07
1.46608e-07
1.46608e-07
1.46608e-07
1.46608e-07
1.46608e-07
1.46608e-07
1.46608e-07
1.46608e-07
1.46608e-07
1.46608e-07
1.46608e-07
1.46608e-07
1.46608e-07
1.46608e-07
1.46608e-07
1.46608e-07
1.46608e-07
1.46608e-07
1.46608e-07
1.46608e-07
1.46608e-07
1.46608e-07

VECTORS velocity float
0.000912102 -0.0210386 -0.000934258
9.85833e-05 -0.0249844 0.00528653
0.00381234 0.0125209 -0.00101274
-0.000358468 0.0157424 0.0186743
0.00212043 0.016788 -0.0051612
0.00649086 0.000350613 -0.0119759
0.00158857 0.00465423 0.0166867
0.00463775 0.00422606 0.00494448
1.70895e-05 -0.000951674 0.00167089
0.000906081 0.0031084 -0.0221482
-5.79571e-15 1.67435e-14 9.19941e-14
0.00106342 -0.0169072 -0.0107503
0.00315757 -0.00653824 -0.0156123
0.000969207 -0.000306755 0.000270323
0.0750998 -0.0223845 0.105264
0.000401527 -0.000372684 0.000724372
-0.000312455 -0.014487 -0.0182195
0.00440535 0.00214927 0.00259304
-1.57679e-317 8.29368e-317 -8.51801e-13
0.00330407 0.00196706 -0.00505506
-3.9579e-20 -3.66437e-21 9.92586e-21
0.000339136 -0.0216023 0.00809958
0.000593602 0.02007 0.00538836
5.54074e-15 -1.19028e-14 -1.22963e-13
-0.0558901 0.318292 0.271361
0.00067427 0.000720138 -0.0232375
0.000139144 -5.06054e-05 0.0252959
0.00100025 -0.0189669 -0.00905422
0.000526195 -0.0232122 -0.00778263
-0.000854412 0.00294974 0.00492433
0.000324211 -0.0193224 0.0145981
2.20795e-14 -7.48856e-14 3.45211e-13
9.28895e-05 0.0233279 -0.00616147
0.000133664 0.0221971 -0.0132618
0.000196221 -0.015811 0.0193344
0.00399447 -0.00309571 -0.00927003
0.00274851 0.0144404 -0.00354322
0.00391775 0.0108129 -0.00662468
0.0173351 -0.0203194 0.0127146
0.00405848 -0.0096875 0.00823003
0.00189796 0.00489635 -0.010055
7.42161e-05 0.000833974 -0.00175371
0.00485252 0.00058962 -0.0118294
-8.76443e-06 -4.69293e-06 -3.1762e-06
-0.00124134 -0.00239521 -0.0149906
-0.00037921 -2.87105e-05 -9.68462e-05
4.09289e-06 -4.43869e-06 1.04228e-05
0.00122771 0.0164872 0.011813
-3.00445e-05 -0.000325966 0.00266672
0.019924 0.00114496 -0.00514966
0.001871 0.0203386 -0.00233836
-0.00157988 -0.00785667 -2.46478e-05
-0.0067373 0.0381977 0.00244382
0.00475678 0.000786186 -0.00310381
0.000453946 -0.0105014 -0.000821277
-0.0780825 0.495886 0.721678
0.00135083 0.0171875 -0.0117493
0.00485926 0.00034611 -0.00617898
0.00179402 8.95751e-05 -0.0014074
-3.07899e-19 4.9748e-19 2.62395e-18
0.00170774 -0.0070423 0.0128349
0.000326404 -0.000153144 -0.000615998
0.000337864 -0.00103128 0.00279713
2.59407e-05 8.26812e-06 3.32749e-05
1.0044e-14 -9.48231e-17 1.17824e-13
-9.7494e-07 0.00417056 -0.0102262
0.00152932 -0.00265522 -0.0150055
4.38491e-15 -1.52067e-14 6.96417e-14
0.00652269 -0.00413069 -0.0069328
0.000266579 0.0163286 0.0105347
-0.000313223 -0.000298233 0.000562296
2.51195e-15 2.58358e-14 7.65642e-14
0.000748608 0.00420781 0.0133709
0.00294463 -0.00788698 -0.0115031
0.000693688 -0.0222014 0.0109398
4.61699e-06 -0.0223389 -0.012604
0.00351181 -0.0091821 -0.00881479
-0.00200278 0.000739863 -0.00586794
0.00397588 0.000495435 -0.00357822
-1.19493e-14 2.50732e-14 3.08291e-13
0.00150047 0.00977498 -0.0088422
1.63127e-05 -8.04163e-06 -0.0056893
-0.0323653 0.0163337 0.0149093
-0.00381201 0.00885077 -0.0108368
0.00244122 0.00244326 -0.00140339
0.00198338 0.0115328 0.018596
-0.0245645 0.0111151 -0.03261
0.0113794 0.0198709 -0.000612362
0.000710705 -0.0268066 -0.00021986
-1.39316e-317 8.36153e-318 1.3543e-12
0.000984695 0.000670255 -0.000408849
-7.40083e-05 0.0116199 0.0224633
0.00111194 0.0275479 -0.0198064
-9.46961e-317 6.52634e-317 2.45735e-12
0.00142511 -0.0190283 -0.00564283
-1.66059e-15 1.74549e-17 -1.94765e-14
-3.71641e-05 -2.258e-05 -2.2148e-05
0.00117237 0.00115154 3.53892e-05
0.000563382 0.012344 0.0195833
0.000461153 -0.000990886 0.00111016
0.00569197 0.0100494 -0.0146584
-0.00268979 0.000744863 -0.00285039
-1.07885e-14 4.50501e-17 -1.26601e-13
-0.00031281 0.0228863 0.00687868
4.94897e-05 -2.90788e-05 5.31546e-06
0.000224726 -0.00623981 0.0240978
0.00381652 0.00597299 -0.0025944
6.32286e-15 3.69222e-14 -1.17218e-13
-5.6972e-16 -1.14783e-15 -3.93062e-14
2.32115e-14 -2.25114e-16 2.72287e-13
-0.000865362 -0.00219724 -0.00126779
9.10634e-05 -0.00991196 -0.0238072
0.00463184 0.100185 0.110562
0.00755729 0.0111969 0.0136588
0.0163274 0.00928441 -0.0078381
-1.00425e-14 3.40598e-14 -1.5701e-13
0.00135284 -0.00735061 0.0183058
0.000144724 0.000265012 -0.000425173
0.00376533 -0.00205066 -0.00424128
0.000779581 1.80185e-05 -0.00037736
0.00731294 0.0209197 -0.0258941
-0.196945 0.832063 -3.77114
0.0287929 -0.0354187 -0.127246
0.000202761 0.0231312 0.0083352
-0.000798533 -0.00292308 0.0257771
0.00207014 -0.0175838 -0.00942332
0.00177535 0.00277718 0.00121388
2.15173e-15 -1.021e-14 5.06422e-14
-7.16272e-05 0.0239131 -0.00225872
-0.00087357 0.0141352 -0.0222337
0.00102108 0.000339013 0.00227119
0.000185523 0.000134629 0.000530295
-0.000202506 -0.019017 0.0019039
0.00263676 -8.72112e-05 -0.00104851
0.00326772 9.96785e-05 -0.00107093
-0.139241 0.0943724 -0.0418548
-0.000187828 0.0014966 -0.000675967
0.00159662 0.0127617 -0.0156261
-1.69369e-19 -6.8996e-20 2.60614e-18
0.000375386 0.00114627 -0.00227257
0.000159136 0.0227596 -0.00744159
-1.2126e-14 -2.07901e-15 1.97906e-13
0.018307 0.00855357 -0.0246869
0.00326472 0.00736543 0.00118786
1.31336e-15 3.11649e-15 2.46609e-14
-6.66651e-15 -2.78011e-15 5.51338e-14
-5.66051e-06 -7.28046e-05 8.71622e-05

VECTORS force float
1.86819e-06 1.01652e-05 5.242e-07
-8.75015e-10 -8.25375e-10 1.56806e-08
-1.2784e-08 9.2166e-08 3.40953e-09
-1.65551e-09 1.46951e-08 -5.38159e-09
2.36804e-10 -3.64346e-08 1.80689e-08
0.0 0.0 -1.43822e-06
-1.06062e-09 1.19705e-08 -3.16917e-08
-3.69753e-08 2.40752e-07 2.39196e-08
-1.01672e-07 5.23093e-08 -3.28422e-08
-1.26358e-08 -5.69525e-09 -5.42155e-08
1.32349e-23 1.48231e-21 -4.23516e-22
-2.4397e-08 -5.89404e-08 -4.07604e-08
2.62123e-07 -3.41081e-07 3.82026e-07
-1.77006e-06 2.37611e-07 -6.64705e-07
0.0 0.0 -1.43822e-06
1.60558e-08 -3.4528e-08 8.57632e-08
1.70991e-09 -5.43497e-08 -2.85276e-08
8.98426e-07 -4.64563e-06 -4.05739e-06
-2.468e-320 2.4693e-320 0.0
-6.6955e-08 1.6536e-06 -1.49888e-06
0.0 0.0 0.0
1.14862e-08 -4.7772e-08 4.19646e-08
-4.88821e-09 4.35913e-08 -3.69046e-08
-2.63242e-20 8.43592e-20 -9.1056e-21
0.0 0.0 -1.43822e-06
-2.8344e-08 -1.15127e-08 -2.27428e-07
-8.1583e-10 1.40681e-08 7.01036e-09
1.50806e-09 -3.87169e-09 4.61783e-08
1.67575e-05 5.95752e-06 -4.06377e-05
0.0 0.0 -1.43822e-06
-3.00715e-09 9.4518e-10 1.59064e-08
7.94093e-23 1.53525e-21 2.11758e-22
-2.58928e-07 1.16548e-07 -1.80889e-07
1.84656e-10 -5.18583e-09 -1.41661e-08
-6.40149e-10 7.01828e-09 1.39056e-08
0.0 0.0 -1.43822e-06
-6.70314e-07 -4.6568e-06 1.88666e-06
-7.42485e-09 1.93232e-08 -1.01853e-08
0.0 0.0 -1.43822e-06
0.0 0.0 -1.43822e-06
-3.02105e-06 4.86434e-07 1.64481e-06
1.01302e-05 1.15396e-05 1.60677e-05
0.0 0.0 -1.43822e-06
4.76972e-08 5.12158e-08 1.62882e-08
0.0 0.0 -1.43822e-06
-3.859e-07 -1.01238e-07 6.39845e-07
2.31718e-08 4.05985e-09 2.10749e-08
1.88949e-08 -1.10144e-07 -7.23208e-08
4.72677e-09 1.14929e-08 4.75034e-08
0.0 0.0 -1.43822e-06
-5.38057e-05 7.88877e-05 -1.51283e-05
0.0 0.0 -1.43822e-06
0.0 0.0 -1.43822e-06
-1.59892e-07 1.57984e-06 -1.22628e-06
3.45917e-08 1.11576e-05 -3.06453e-06
0.0 0.0 -1.43822e-06
-3.6082e-10 -7.31433e-09 -1.42684e-08
-2.19843e-06 5.57959e-06 -5.49836e-07
5.65851e-08 1.58173e-07 -4.31278e-07
-2.00385e-22 -3.30872e-23 -2.11758e-22
-9.25238e-05 0.000171102 4.92925e-06
1.26669e-07 -9.17517e-09 -1.26796e-08
-9.61266e-07 -1.31304e-05 2.74235e-05
3.38177e-08 -4.24746e-08 5.2116e-08
-5.29396e-23 -7.5687e-21 0.0
1.79648e-11 -1.56489e-08 4.7822e-09
-3.04207e-07 6.55742e-07 2.50054e-06
-1.68083e-21 5.79688e-21 -2.64698e-20
0.0 0.0 -1.43822e-06
-9.69107e-09 3.43914e-08 7.4581e-09
-1.20685e-07 -8.02781e-08 -5.02001e-08
-8.60268e-22 -9.87323e-21 -2.92226e-20
-3.74504e-07 1.21576e-06 3.79892e-07
2.66859e-06 -1.20247e-07 -7.757e-08
-5.82681e-09 1.77223e-09 1.78975e-08
-1.27594e-09 -9.91038e-09 1.30456e-08
-1.09831e-06 3.22326e-06 2.85104e-06
0.0 0.0 -1.43822e-06
6.32398e-08 -1.39962e-06 -1.68239e-06
-4.27156e-20 3.29813e-20 -4.23516e-21
2.16862e-06 1.89732e-06 -4.5222e-07
1.17317e-08 -1.26028e-09 -3.10726e-07
0.0 0.0 -1.43822e-06
0.0 0.0 -1.43822e-06
1.82259e-06 -4.67472e-06 -3.20216e-06
0.0 0.0 -1.43822e-06
0.0 0.0 -1.43822e-06
0.0 0.0 -1.43822e-06
3.04439e-09 -5.54293e-09 1.42276e-08
2.3127e-320 -2.3256e-320 0.0
1.04695e-06 -1.93137e-06 -3.34338e-06
1.24204e-09 1.35505e-08 -2.68121e-09
0.0 0.0 -1.43822e-06
2.9545e-320 -2.5474e-320 0.0
0.0 0.0 -1.43822e-06
2.64698e-23 -4.87313e-21 0.0
-1.04969e-07 -1.81002e-07 1.5046e-07
0.0 0.0 -1.43822e-06
5.8987e-09 1.21113e-08 -1.66115e-08
-7.54818e-07 -1.33534e-07 -1.13484e-06
0.0 0.0 -1.43822e-06
-7.94055e-07 -2.53294e-06 7.23427e-06
4.23516e-22 -2.64698e-22 3.38813e-21
-3.25887e-08 -2.10543e-09 -2.26859e-08
-8.1551e-08 -1.59777e-08 5.06623e-08
-3.50202e-10 1.16653e-08 1.03259e-08
6.18635e-07 -1.67898e-06 9.46791e-07
-1.38966e-22 -1.05879e-21 3.38813e-21
-4.56637e-20 -7.4347e-20 2.75286e-21
3.70577e-22 1.2586e-20 0.0
0.0 0.0 -1.43822e-06
-5.53842e-10 -1.33867e-08 5.64358e-09
0.0 0.0 -1.43822e-06
0.0 0.0 -1.43822e-06
8.59137e-07 4.79495e-06 -4.82226e-06
-2.64698e-22 5.29396e-23 0.0
-1.20988e-08 9.80333e-09 1.03385e-08
5.78234e-08 3.36812e-08 2.89653e-08
1.12149e-07 2.88995e-06 2.67029e-06
-3.96715e-07 -2.17213e-07 1.32613e-07
0.0 0.0 -1.43822e-06
0.00980016 0.121973 0.117456
0.0 0.0 -1.43822e-06
-2.37031e-09 1.00784e-08 -1.03582e-08
5.50245e-07 -4.77775e-08 -1.24464e-06
-1.92728e-08 -6.57449e-08 -2.02754e-08
0.0 0.0 -1.43822e-06
-7.99506e-19 -3.79047e-20 2.6258e-20
-1.34765e-08 -6.90262e-08 2.65687e-07
2.10651e-08 -1.10496e-08 1.47989e-08
5.75424e-06 3.27415e-06 4.58374e-07
1.37181e-09 1.6642e-07 -1.27549e-07
5.1324e-07 -3.77645e-05 -3.16954e-05
-1.06799e-06 7.83706e-07 -1.37654e-06
2.28587e-07 -1.70045e-07 -9.7103e-07
0.0 0.0 -1.43822e-06
2.32822e-09 -7.40651e-08 4.82413e-08
-3.23325e-08 6.57259e-08 -9.83018e-08
4.15658e-23 -2.64698e-23 0.0
-1.92753e-07 -2.94439e-09 6.80951e-08
3.65722e-07 -3.83089e-07 -2.24166e-09
-1.40555e-20 1.59067e-20 -6.35275e-22
0.0 0.0 -1.43822e-06
-3.6925e-09 -2.81784e-09 -9.41754e-09
-9.31736e-21 8.20563e-22 2.11758e-22
6.25746e-20 -7.55712e-21 7.41154e-21
-3.28838e-08 -1.57281e-08 2.46447e-08
