ITEM: TIMESTEP
16000000
ITEM: NUMBER OF ATOMS
126
ITEM: BOX BOUNDS ff ff ff
-0.02 0.43
-0.02 0.06
-0.02 0.07
ITEM: ATOMS id type x y z vx vy vz fx fy fz radius mass 
1 1 0.0325924 0.0166169 0.0150368 0.000567033 0.0179884 0.0123159 -4.55084e-09 1.53192e-08 -7.5062e-09 0.0005 1.46608e-07 
8 1 0.0426057 0.023358 0.0118656 0.000233907 0.00227458 -0.0251889 -4.67482e-08 2.58092e-08 -1.47913e-07 0.0005 1.46608e-07 
9 1 0.0197891 0.0234855 0.0117989 -0.000277547 -0.000956828 0.000337113 -1.25864e-06 2.03639e-07 1.56393e-07 0.0005 1.46608e-07 
11 1 0.0604766 0.0202119 0.00589046 -0.00272677 -0.01457 -0.00532471 4.39722e-08 2.98652e-08 1.06431e-08 0.0005 1.46608e-07 
14 1 0.0413118 0.020189 0.00730936 0.000697858 -0.0227726 -0.00574879 -4.42385e-09 -1.80825e-08 1.23761e-08 0.0005 1.46608e-07 
15 1 0.0422378 0.0230837 0.0101643 0.00154107 -0.0112718 -0.0235509 1.23609e-07 -8.39324e-08 -2.01282e-07 0.0005 1.46608e-07 
16 1 0.026671 0.0162637 0.0147743 0.000935058 0.0129622 0.0117478 -1.12753e-08 5.60709e-08 -5.71602e-11 0.0005 1.46608e-07 
18 1 0.0408672 0.0183338 0.00724983 0.00063026 -0.0223784 0.00485655 -1.10738e-08 -2.12143e-08 1.67807e-08 0.0005 1.46608e-07 
19 1 0.0313968 0.0217363 0.0148753 0.00023387 0.0213641 -0.0137877 1.57487e-09 -7.14511e-09 -9.96251e-09 0.0005 1.46608e-07 
21 1 0.0289974 0.0189313 0.00717491 0.00465507 -0.0110467 0.00234724 8.22693e-08 9.01404e-07 -9.08233e-08 0.0005 1.46608e-07 
22 1 0.021067 0.0239551 0.0131294 -0.0125158 -0.00431924 -0.018191 -1.09735e-07 -7.24549e-08 -2.40756e-07 0.0005 1.46608e-07 
23 1 0.0592125 0.017612 0.00598053 -5.62364e-15 1.15706e-14 1.42545e-13 -2.11877e-19 -1.20027e-19 2.96462e-21 0.0005 1.46608e-07 
26 1 0.0209352 0.0156585 0.0143858 0.00533349 0.00310475 0.00126885 -1.65599e-08 4.93293e-08 9.66561e-08 0.0005 1.46608e-07 
32 1 0.0577531 0.0188522 0.00583918 0.148302 0.134952 -0.00801767 -2.87451e-07 -2.32657e-07 1.43161e-08 0.0005 1.46608e-07 
33 1 0.0431583 0.0224602 0.0141254 0.000188631 0.0173813 -0.0196751 1.70815e-10 -1.14649e-08 -7.44272e-09 0.0005 1.46608e-07 
38 1 0.154353 0.0180393 0.00580707 8.49009e-15 -2.34264e-14 1.89568e-13 1.12686e-18 6.21775e-20 -4.51045e-20 0.0005 1.46608e-07 
40 1 0.0193593 0.0140039 0.012964 8.64884e-05 -0.000977553 0.00164874 2.18202e-09 -1.90735e-08 3.80251e-08 0.0005 1.46608e-07 
41 1 0.0263972 0.0174114 0.0154164 -0.000587048 0.0212466 0.00918229 -4.06244e-09 1.35603e-08 -1.69008e-08 0.0005 1.46608e-07 
45 1 0.044045 0.018983 0.015772 0.00482726 0.0094227 -0.00119282 1.62427e-08 -1.38973e-08 2.79128e-08 0.0005 1.46608e-07 
47 1 0.0395765 0.0148217 0.0112678 0.000300834 -0.00112232 0.0246836 -2.32505e-09 1.41853e-08 7.16291e-09 0.0005 1.46608e-07 
48 1 0.0201219 0.0230646 0.0134452 0.00662743 -0.00378777 0.00463847 2.43879e-06 5.77232e-06 -7.23921e-06 0.0005 1.46608e-07 
50 1 0.0331164 0.0152173 0.0134086 -9.1068e-05 0.011113 0.0232407 6.68617e-09 1.66483e-08 -5.68261e-09 0.0005 1.46608e-07 
53 1 0.0442207 0.0182841 0.015751 0.0047545 0.00898227 0.0041365 -1.29551e-07 -1.74575e-07 -2.70591e-08 0.0005 1.46608e-07 
54 1 0.0424401 0.023388 0.0110281 0.00131382 -0.000585482 -0.0176114 -3.70958e-08 -1.54777e-07 -2.73195e-07 0.0005 1.46608e-07 
55 1 0.0182971 0.0232046 0.010573 0.00338293 -0.00417342 -0.0148568 7.16559e-11 -3.20981e-09 -5.33323e-09 0.0005 1.46608e-07 
59 1 0.043542 0.021284 0.0151858 0.00158334 0.0107769 -0.00605115 1.89764e-07 -6.21718e-07 7.68923e-07 0.0005 1.46608e-07 
61 1 0.0403348 0.0162348 0.00826076 0.000415298 -0.0169265 0.0161421 -4.46577e-09 -4.86995e-09 2.51237e-08 0.0005 1.46608e-07 
62 1 0.0628917 0.0193435 0.00575195 2.17373e-07 -3.87684e-06 5.34561e-07 8.70281e-09 1.43819e-08 -2.28058e-09 0.0005 1.46608e-07 
63 1 0.0364755 0.0233898 0.0112635 0.000844354 -0.000606409 -0.0245047 2.46745e-09 -1.41641e-08 -3.12244e-09 0.0005 1.46608e-07 
67 1 0.039239 0.0149475 0.0128179 0.0013932 0.00406479 0.0211842 -6.15405e-08 1.33834e-07 8.44344e-08 0.0005 1.46608e-07 
77 1 0.0385825 0.0166616 0.015053 0.000873936 0.0169737 0.0121723 4.94681e-09 -4.61049e-09 -2.75861e-08 0.0005 1.46608e-07 
80 1 0.0292983 0.0201524 0.00734341 0.000404582 -0.0220116 -0.00452262 -2.28221e-08 -1.86224e-07 2.59791e-09 0.0005 1.46608e-07 
82 1 0.0401067 0.0155967 0.00905611 0.00016102 -0.0151603 0.0207805 -1.08994e-09 8.70689e-09 1.33389e-08 0.0005 1.46608e-07 
83 1 0.0232247 0.0197172 0.00727517 0.000987621 -0.0209208 -0.00689298 -4.35314e-09 2.72215e-08 6.03e-08 0.0005 1.46608e-07 
85 1 0.0444315 0.0174565 0.0154892 0.00114869 0.0191202 0.00871359 3.44823e-08 7.3947e-08 2.73434e-08 0.0005 1.46608e-07 
88 1 0.0220366 0.0147736 0.0132869 0.00545423 0.00156534 0.0036216 7.01967e-08 -2.43297e-08 1.00329e-07 0.0005 1.46608e-07 
93 1 0.031675 0.0206576 0.0154175 -0.000460686 0.0229375 -0.00936448 2.97405e-08 -2.38582e-08 -1.29242e-08 0.0005 1.46608e-07 
95 1 0.0355377 0.0214633 0.00797042 0.00278309 -0.0143428 -0.00627152 -3.77258e-08 -5.11184e-09 -5.63056e-08 0.0005 1.46608e-07 
99 1 0.0235996 0.0214141 0.00808136 0.000151028 -0.020754 -0.0143156 -1.70597e-09 -1.09551e-08 9.48712e-09 0.0005 1.46608e-07 
101 1 0.0358872 0.0223928 0.00884616 0.00376519 -0.00717496 -0.0097783 -5.0725e-07 3.51053e-08 2.1387e-08 0.0005 1.46608e-07 
102 1 0.0865114 0.0176774 0.00596015 -7.4932e-16 2.25683e-14 7.79338e-14 -7.85755e-20 2.0117e-21 -1.27055e-21 0.0005 1.46608e-07 
103 1 0.0172386 0.0240453 0.0131587 0.00599468 0.00269485 -0.00872349 -5.34577e-06 -8.92468e-06 -8.75079e-07 0.0005 1.46608e-07 
105 1 0.0248472 0.0199626 0.0166791 1.24524e-08 0.0286147 -0.00518029 1.59474e-11 -4.30639e-09 -2.29034e-08 0.0005 1.46608e-07 
106 1 0.0415711 0.0213425 0.00785403 0.000274713 -0.0210077 -0.0139691 -2.35729e-09 -1.29781e-08 8.63119e-09 0.0005 1.46608e-07 
108 1 0.0311307 0.0224879 0.0140556 0.000410591 0.0137765 -0.019622 -1.60598e-09 -7.01387e-09 -1.53202e-08 0.0005 1.46608e-07 
112 1 0.00197664 0.0139506 0.0435188 -9.69236e-317 -9.6912e-317 3.10717e-12 0 0 0 0.0005 1.46608e-07 
116 1 0.0190019 0.0235542 0.0136239 0.0106126 -4.82388e-05 0.00115424 -1.08391e-07 -1.02227e-07 -6.05192e-07 0.0005 1.46608e-07 
119 1 0.0206818 0.0234317 0.0122461 0.00446161 0.00162136 -0.00759619 -3.39645e-07 -4.14055e-08 -1.87259e-06 0.0005 1.46608e-07 
123 1 0.0910328 0.0189119 0.00581756 -1.02285e-14 1.48971e-14 1.99443e-13 6.61744e-23 -7.41154e-22 0 0.0005 1.46608e-07 
125 1 0.0194915 0.0234064 0.0127492 0.00823674 -0.00190644 0.00361109 -5.07725e-07 2.11587e-07 -5.46294e-07 0.0005 1.46608e-07 
127 1 0.018361 0.0140218 0.0130177 3.94704e-05 -0.0003035 0.000802456 7.02052e-09 -1.58169e-08 3.80725e-08 0.0005 1.46608e-07 
128 1 0.0338144 0.0149319 0.0103537 0.00550621 -0.00249069 0.000455806 1.83112e-05 2.09045e-05 2.10013e-06 0.0005 1.46608e-07 
135 1 0.0799952 0.0188016 0.0058611 1.53849e-14 5.18153e-14 2.19695e-13 1.34069e-20 2.10699e-20 -4.44692e-21 0.0005 1.46608e-07 
136 1 0.0213728 0.0147295 0.0125406 0.00499587 0.00109631 0.00406458 9.72379e-09 -1.46814e-08 9.07128e-08 0.0005 1.46608e-07 
137 1 0.0222698 0.014434 0.014198 0.00643832 0.00163539 0.0033547 9.98771e-08 -6.02296e-08 6.30239e-08 0.0005 1.46608e-07 
138 1 0.0187064 0.0240224 0.0127912 0.00984494 -0.00032053 0.00162429 6.46911e-07 -1.75181e-07 1.2367e-07 0.0005 1.46608e-07 
141 1 0.061452 0.0199973 0.00583857 0.000397251 -0.00223221 -0.000795852 -8.92326e-08 3.13286e-08 1.02469e-08 0.0005 1.46608e-07 
143 1 0.0323274 0.0178345 0.0155798 0.00585532 0.0252622 0.00109228 -0.00150003 -0.000333943 0.0146735 0.0005 1.46608e-07 
144 1 0.0207141 0.016378 0.0150702 0.00540234 0.00213393 0.00182128 5.35846e-08 -8.58652e-08 -2.55787e-07 0.0005 1.46608e-07 
145 1 0.0429667 0.0229851 0.0132531 0.00149257 0.00630156 -0.0175592 -4.38205e-09 8.76387e-09 -4.43583e-08 0.0005 1.46608e-07 
155 1 0.0379631 0.0192887 0.015746 0.00341095 0.0127 0.00123336 -3.45522e-06 -5.89619e-06 -7.12149e-08 0.0005 1.46608e-07 
158 1 0.0280043 0.0152963 0.00943521 0.000344545 -0.0106955 0.0209695 -7.61866e-09 -2.81058e-08 5.96345e-08 0.0005 1.46608e-07 
162 1 0.0379095 0.0187726 0.00571644 1.83331e-20 1.45333e-21 1.8267e-20 0 0 0 0.0005 1.46608e-07 
164 1 0.0258285 0.0196667 0.015819 0.000155781 0.0228062 -0.00366027 8.93148e-09 9.08757e-09 -1.82234e-08 0.0005 1.46608e-07 
172 1 0.0273978 0.0148071 0.0119758 0.00194361 0.00358035 0.0201529 -1.24146e-08 3.02732e-08 6.62661e-08 0.0005 1.46608e-07 
177 1 0.0368257 0.0232356 0.0126859 0.000650467 0.00748325 -0.023532 -1.37067e-09 -1.20264e-08 -1.13208e-08 0.0005 1.46608e-07 
180 1 0.0320595 0.0189334 0.0158179 0.00134133 0.0201072 0.00217946 -4.13975e-08 6.58715e-08 -1.75261e-08 0.0005 1.46608e-07 
181 1 0.030651 0.023354 0.0119946 0.00052566 0.00245371 -0.0238784 -4.71621e-09 -1.20198e-08 -1.40478e-08 0.0005 1.46608e-07 
187 1 0.0187461 0.0234557 0.0117014 -0.00240037 0.00104428 0.00275503 -8.52586e-07 -9.09337e-08 1.07503e-07 0.0005 1.46608e-07 
190 1 0.0133546 0.00211829 0.0435188 -9.71277e-317 -9.74727e-317 1.79684e-12 0 0 0 0.0005 1.46608e-07 
191 1 0.0377156 0.0204804 0.0155308 0.00347118 0.00825402 -0.00169975 1.78045e-07 1.63659e-08 -1.04161e-07 0.0005 1.46608e-07 
197 1 0.0935581 0.0183371 0.00588747 1.06331e-14 1.8943e-14 2.48643e-13 -2.22743e-20 6.88214e-21 4.23516e-22 0.0005 1.46608e-07 
199 1 0.0164855 0.0237876 0.0137643 -0.00684061 -0.00137837 0.0045782 7.50575e-06 -5.47536e-06 -1.45851e-06 0.0005 1.46608e-07 
204 1 0.118145 0.0201427 0.00585321 -1.12541e-15 -1.75119e-14 8.40186e-14 -8.09314e-21 5.29396e-23 -2.11758e-22 0.0005 1.46608e-07 
205 1 0.0398177 0.01491 0.0102621 0.00254564 -0.00480739 0.0143951 1.59561e-09 4.68915e-08 2.39613e-08 0.0005 1.46608e-07 
209 1 0.0281149 0.014737 0.0113045 0.000745294 -0.0011093 0.0201301 1.8151e-08 3.18014e-09 -1.8086e-08 0.0005 1.46608e-07 
212 1 0.0343371 0.0162395 0.00819799 0.00141836 -0.0164706 0.0117186 2.07454e-08 9.68894e-08 -7.38247e-08 0.0005 1.46608e-07 
221 1 0.0357224 0.0220211 0.00833725 0.00216082 -0.0028163 -0.00488116 -5.30089e-07 1.7619e-07 4.22818e-08 0.0005 1.46608e-07 
225 1 0.0193995 0.0140841 0.0139599 0.000274039 0.00901257 0.000864467 3.79474e-08 -3.10923e-07 4.58963e-08 0.0005 1.46608e-07 
226 1 0.0405713 0.0169926 0.00770333 0.000583014 -0.0236105 0.0124721 1.43507e-08 -3.6448e-08 1.62688e-08 0.0005 1.46608e-07 
227 1 0.0210325 0.0228903 0.0138182 0.00657938 -0.00470086 0.00550106 2.59986e-07 -4.5798e-06 6.68491e-06 0.0005 1.46608e-07 
229 1 0.0420028 0.0226192 0.009143 0.00374374 -0.00672102 -0.00661152 5.67032e-06 3.07283e-06 6.78636e-06 0.0005 1.46608e-07 
230 1 0.0240823 0.0228292 0.00939823 0.00343139 -0.00592901 -0.00895732 -1.03027e-06 -3.77954e-06 -2.49088e-06 0.0005 1.46608e-07 
234 1 0.0226543 0.0219269 0.0176073 -0.231952 0.0910014 0.0885725 0 0 -1.43822e-06 0.0005 1.46608e-07 
235 1 0.0378312 0.0199101 0.0157106 0.0041026 0.00895597 -0.00228529 -8.42188e-06 -4.16225e-07 1.27474e-06 0.0005 1.46608e-07 
242 1 0.0277444 0.0148786 0.0105716 -4.5444e-05 -0.00636929 0.0262968 -3.17756e-08 -4.65106e-08 1.69602e-09 0.0005 1.46608e-07 
244 1 0.0272213 0.0150579 0.01294 0.00187692 0.00604815 0.0162446 -1.31644e-09 1.43963e-08 1.67749e-09 0.0005 1.46608e-07 
249 1 0.0193368 0.0227081 0.0140387 0.00892987 0.00659017 -0.00722079 -5.62396e-05 2.97798e-05 -4.42987e-05 0.0005 1.46608e-07 
250 1 0.0383129 0.0179288 0.0156073 0.00024189 0.0241408 0.00679599 -9.87042e-10 9.12652e-09 -1.19079e-08 0.0005 1.46608e-07 
252 1 0.0211409 0.0151141 0.0135726 0.00513274 0.00285909 0.00131855 1.68022e-08 -2.18375e-09 2.94236e-08 0.0005 1.46608e-07 
253 1 0.02878 0.0179437 0.00734068 0.000605949 -0.024115 0.00610021 -9.50782e-09 -9.12812e-09 1.61203e-08 0.0005 1.46608e-07 
255 1 0.00841998 0.0220148 0.0065957 5.71894e-15 -2.44681e-14 6.92181e-14 -1.3399e-19 1.4929e-20 1.12232e-20 0.0005 1.46608e-07 
256 1 0.0257399 0.02072 0.0168258 -0.0260663 0.0423152 -0.0544982 0 0 -1.43822e-06 0.0005 1.46608e-07 
257 1 0.0202689 0.022489 0.0143244 -0.00671746 0.00576266 -0.00654015 5.64344e-05 -3.04678e-05 3.9974e-05 0.0005 1.46608e-07 
260 1 0.0224904 0.0187772 0.020101 0.109639 -0.208819 0.104941 0 0 -1.43822e-06 0.0005 1.46608e-07 
265 1 0.0362285 0.0230841 0.010034 0.000381831 -0.00889056 -0.0217187 -4.96486e-09 -1.99732e-08 -1.13873e-08 0.0005 1.46608e-07 
266 1 0.0335571 0.0147988 0.0113684 1.88269e-05 -0.00234587 0.0256686 -1.40093e-09 1.46976e-08 3.71176e-09 0.0005 1.46608e-07 
270 1 0.0180221 0.0238399 0.0137452 0.0233234 0.0137512 -0.0242814 -6.89154e-07 9.00523e-07 -1.66632e-06 0.0005 1.46608e-07 
271 1 0.0390405 0.0153544 0.013662 0.000575314 0.0120789 0.018999 -4.40697e-09 4.37561e-08 2.54723e-08 0.0005 1.46608e-07 
275 1 0.0282099 0.0158316 0.00862912 0.00129858 -0.00898661 0.0109607 5.41683e-09 1.6227e-08 -1.16566e-08 0.0005 1.46608e-07 
278 1 0.0780892 0.0197976 0.00577259 2.40547e-15 -4.18116e-14 1.54367e-13 1.26294e-20 1.05879e-22 -2.11758e-22 0.0005 1.46608e-07 
283 1 0.0257134 0.0204635 0.0156897 -0.000166949 0.0184866 -0.00826787 6.0925e-09 3.04898e-08 -5.80877e-08 0.0005 1.46608e-07 
284 1 0.0778211 0.0188379 0.00591496 5.21467e-15 -3.12772e-14 -1.20225e-13 -1.91906e-22 5.29396e-23 2.11758e-22 0.0005 1.46608e-07 
294 1 0.0227919 0.0171078 0.00655212 2.64831e-14 -5.64315e-14 -2.04448e-13 -2.03817e-21 -9.52912e-22 2.11758e-22 0.0005 1.46608e-07 
297 1 0.0410766 0.019247 0.00718628 0.000360794 -0.0244489 -0.00174587 -2.6956e-09 -1.04083e-08 1.27879e-08 0.0005 1.46608e-07 
298 1 0.0285331 0.0167905 0.00779072 0.00112126 -0.0188621 0.0122291 -1.08625e-08 -1.15513e-08 2.90877e-08 0.0005 1.46608e-07 
300 1 0.032824 0.0158126 0.0143798 0.00258511 0.0101346 0.0136319 -3.62495e-08 9.02147e-08 4.80338e-09 0.0005 1.46608e-07 
301 1 0.0371318 0.0223965 0.0141469 3.28201e-05 0.0182191 -0.0191065 -1.78879e-09 -9.15774e-09 -1.05574e-08 0.0005 1.46608e-07 
303 1 0.0339899 0.0151814 0.00959668 0.00377793 -0.00299161 -0.000748262 1.10261e-05 -3.41701e-06 1.03466e-05 0.0005 1.46608e-07 
304 1 0.0318698 0.0197615 0.0157367 0.000328822 0.0224109 -0.00508798 -1.33652e-08 -1.38069e-07 1.07748e-07 0.0005 1.46608e-07 
307 1 0.0222865 0.0160394 0.00840328 0.00141548 -0.0171856 0.0156591 -1.59406e-08 -8.22527e-09 2.60004e-08 0.0005 1.46608e-07 
312 1 0.0198589 0.0242327 0.0131762 0.00739792 -0.00062626 -0.00123195 -1.75312e-07 -3.14784e-07 -5.7532e-07 0.0005 1.46608e-07 
314 1 0.026978 0.0155117 0.0139035 0.000358793 0.01307 0.0215394 -1.1184e-08 4.6928e-08 6.98067e-08 0.0005 1.46608e-07 
315 1 0.00842114 0.0323835 0.0435188 -9.72922e-317 -9.70169e-317 -1.69736e-12 0 0 0 0.0005 1.46608e-07 
316 1 0.0418109 0.0221955 0.0085326 0.00358082 -0.00834519 -0.00686178 -2.42046e-06 -9.9042e-07 1.64007e-06 0.0005 1.46608e-07 
318 1 0.0302642 0.0231958 0.0102283 0.00227966 -0.00522603 -0.0144688 -9.61976e-09 -2.85691e-08 -7.75826e-08 0.0005 1.46608e-07 
320 1 0.0816322 0.0177621 0.00599233 1.53185e-14 5.18577e-14 2.19689e-13 -2.67742e-20 2.63639e-20 -4.44692e-21 0.0005 1.46608e-07 
322 1 0.0388831 0.0190336 0.00572799 4.38642e-16 -2.02537e-15 1.0025e-14 -6.02055e-20 -1.09055e-20 8.47033e-22 0.0005 1.46608e-07 
325 1 0.0218357 0.0149221 0.0103096 0.000286084 -0.00673356 0.0236885 -9.06733e-10 1.10913e-08 1.20935e-08 0.0005 1.46608e-07 
326 1 0.0173279 0.0142315 0.013118 -0.00615142 0.0114268 -0.0269587 1.3645e-07 3.5525e-07 -1.04989e-06 0.0005 1.46608e-07 
328 1 0.0298107 0.022193 0.00852196 0.000216931 -0.0167421 -0.0180233 -1.11641e-09 -1.60219e-08 5.31014e-09 0.0005 1.46608e-07 
329 1 0.0624304 0.0176319 0.0060023 5.78828e-15 1.43024e-14 1.12905e-13 2.26184e-20 7.54389e-21 -2.32934e-21 0.0005 1.46608e-07 
331 1 0.0219733 0.0154138 0.0140524 0.00576711 0.00195393 0.00333535 -4.20622e-08 4.06935e-08 8.15799e-08 0.0005 1.46608e-07 
333 1 0.0348294 0.0182756 0.00729082 0.000893747 -0.0235152 0.000805739 1.81422e-08 1.81293e-08 5.01783e-08 0.0005 1.46608e-07 
338 1 0.0228824 0.0151543 0.0136604 0.00459287 0.00356447 0.00358941 6.01162e-08 2.43689e-08 1.07959e-07 0.0005 1.46608e-07 
340 1 0.0353291 0.0203614 0.00756102 4.78974e-05 -0.0238392 -0.00745489 -3.76535e-10 -9.34613e-09 1.33104e-08 0.0005 1.46608e-07 
