ITEM: TIMESTEP
20000000
ITEM: NUMBER OF ATOMS
117
ITEM: BOX BOUNDS ff ff ff
-0.02 0.43
-0.02 0.06
-0.02 0.07
ITEM: ATOMS id type x y z vx vy vz fx fy fz radius mass 
1 1 0.0380082 0.016282 0.0147518 0.00157227 0.0177701 0.015442 -2.50024e-08 1.40875e-08 1.34606e-08 0.0005 1.46608e-07 
8 1 0.0768534 0.018764 0.00589219 -3.43998e-15 2.16153e-14 8.32137e-14 -6.48238e-19 -1.69407e-21 -2.71051e-20 0.0005 1.46608e-07 
9 1 0.0248713 0.0212693 0.0153731 0.00298037 0.000861706 -0.00237139 -2.08978e-06 3.08965e-05 3.84524e-05 0.0005 1.46608e-07 
11 1 0.0650666 0.0182067 0.00579668 1.1758e-15 -5.58042e-15 -9.51141e-14 1.69407e-21 5.4263e-22 0 0.0005 1.46608e-07 
14 1 0.0458579 0.0167874 0.00790847 0.00177696 -0.0173357 0.00571427 -1.39483e-06 1.67575e-06 -3.08166e-07 0.0005 1.46608e-07 
15 1 0.0469105 0.0214282 0.00794226 0.000359928 -0.0202536 -0.0125805 -2.39211e-09 -1.53971e-08 7.05172e-09 0.0005 1.46608e-07 
16 1 0.0308795 0.0211475 0.0152251 0.000243141 0.023173 -0.0133468 2.07427e-08 9.97841e-08 -5.15709e-08 0.0005 1.46608e-07 
18 1 0.0455699 0.0159041 0.0086876 0.00351731 -0.00779015 0.00945804 -1.37298e-06 1.91269e-06 -1.16433e-06 0.0005 1.46608e-07 
19 1 0.0363445 0.0227603 0.013703 0.00203322 0.0122133 -0.0167203 6.89723e-08 -1.24005e-07 1.50174e-07 0.0005 1.46608e-07 
21 1 0.0334708 0.0156719 0.00881786 0.000667744 -0.0109937 0.0141359 -2.11541e-09 2.81535e-08 1.25695e-08 0.0005 1.46608e-07 
22 1 0.0818515 0.0198441 0.0060177 8.61654e-16 2.45016e-15 -1.05019e-14 -3.71768e-20 6.24687e-21 -1.69407e-21 0.0005 1.46608e-07 
23 1 0.0591852 0.0175257 0.00598648 -1.30146e-14 2.72357e-14 3.32718e-13 2.21486e-20 -2.24067e-20 2.11758e-21 0.0005 1.46608e-07 
26 1 0.0191238 0.0203902 0.0158816 9.29256e-06 0.026734 -0.00811498 -5.53925e-12 -7.3887e-09 -2.44186e-08 0.0005 1.46608e-07 
32 1 0.0888329 0.0186042 0.00572716 -1.16836e-14 1.69589e-14 2.26606e-13 6.18069e-21 5.67777e-21 0 0.0005 1.46608e-07 
33 1 0.0478302 0.0233428 0.011441 0.000360883 0.00271725 -0.0252551 4.20075e-08 2.07958e-08 1.07852e-07 0.0005 1.46608e-07 
38 1 0.154353 0.0180393 0.00580707 9.31824e-15 -2.33002e-14 1.89545e-13 3.7149e-19 -1.4929e-19 -3.51519e-20 0.0005 1.46608e-07 
40 1 0.0199926 0.0208202 0.0157545 0.00011585 0.0257916 -0.0104883 -2.05144e-10 -8.89165e-09 -2.37954e-08 0.0005 1.46608e-07 
41 1 0.0304501 0.0224572 0.0141073 0.000487846 0.0142277 -0.019282 -5.64626e-09 -2.57514e-09 -2.04603e-08 0.0005 1.46608e-07 
45 1 0.0453179 0.0186301 0.00602018 4.49662e-15 2.51197e-14 1.72927e-13 0 0 0 0.0005 1.46608e-07 
47 1 0.0440606 0.0161572 0.0146748 0.00216053 0.0160208 0.0128635 -3.0804e-08 8.12538e-08 4.95597e-08 0.0005 1.46608e-07 
48 1 0.0271121 0.0148828 0.0104852 0.000302105 -0.00818714 0.0245125 2.29957e-08 1.57477e-08 -9.66974e-08 0.0005 1.46608e-07 
50 1 0.0391093 0.0149175 0.0104749 0.00143306 -0.00397019 0.0211914 -1.69464e-08 8.68241e-09 3.08931e-08 0.0005 1.46608e-07 
53 1 0.0487985 0.0214857 0.0150171 0.000254186 0.0224738 -0.0134009 -2.39934e-09 -5.97409e-09 -1.30314e-08 0.0005 1.46608e-07 
54 1 0.0800452 0.0202034 0.00595135 -1.74106e-15 -4.8675e-15 2.08639e-14 0 0 -2.11758e-22 0.0005 1.46608e-07 
55 1 0.0234314 0.0229033 0.00952457 0.00224436 -0.00464695 -0.010296 -3.97356e-11 2.16487e-08 1.25042e-08 0.0005 1.46608e-07 
59 1 0.0481673 0.0230715 0.0127887 0.000108469 0.00775972 -0.0241142 -2.95376e-10 -1.16302e-08 -1.08014e-08 0.0005 1.46608e-07 
61 1 0.0448108 0.0148645 0.0117055 0.000367447 -0.00165524 0.0244833 2.09697e-08 5.99644e-08 -7.90131e-08 0.0005 1.46608e-07 
62 1 0.081496 0.0187826 0.00576095 1.34803e-14 4.56302e-14 1.93312e-13 -1.29702e-21 -5.29396e-23 0 0.0005 1.46608e-07 
63 1 0.041823 0.0233843 0.0112776 0.00159926 -0.000318732 -0.0200895 2.81451e-07 2.57205e-07 9.82194e-07 0.0005 1.46608e-07 
67 1 0.0437683 0.0173825 0.0154279 -1.55875e-05 0.0231579 0.0110349 -1.57965e-09 9.75436e-09 -1.20957e-08 0.0005 1.46608e-07 
77 1 0.0432275 0.0195137 0.015764 0.000216544 0.0242668 -0.00295897 -1.21559e-09 5.78459e-09 -1.52497e-08 0.0005 1.46608e-07 
80 1 0.0338854 0.0168492 0.00779929 0.000710897 -0.021834 0.011583 -1.35295e-09 4.13465e-09 1.4557e-08 0.0005 1.46608e-07 
82 1 0.0444892 0.015124 0.0131712 0.000186599 0.00979405 0.0226044 -6.89178e-10 1.57624e-08 1.14749e-09 0.0005 1.46608e-07 
83 1 0.028552 0.019767 0.00725345 -0.000294319 -0.0219612 -0.0048564 -5.52084e-09 2.12658e-08 3.93095e-08 0.0005 1.46608e-07 
85 1 0.0491615 0.0199204 0.0157362 0.00172466 0.0186951 -0.00493645 -1.80325e-08 5.65442e-08 -3.21188e-08 0.0005 1.46608e-07 
88 1 0.0209312 0.0209612 0.015519 3.22787e-05 0.0244503 -0.0116027 -9.41368e-11 -1.0013e-08 -2.21439e-08 0.0005 1.46608e-07 
93 1 0.036667 0.0217895 0.0147156 8.58291e-05 0.020044 -0.0160007 -1.92048e-10 -7.30973e-09 -1.50789e-08 0.0005 1.46608e-07 
95 1 0.0409733 0.0217038 0.00811063 0.000637823 -0.0178822 -0.0132882 2.22315e-07 -5.58984e-07 -2.23564e-07 0.0005 1.46608e-07 
99 1 0.0294457 0.0229278 0.00952686 0.00098042 -0.00916546 -0.0189747 2.59192e-07 5.31584e-07 1.05192e-06 0.0005 1.46608e-07 
101 1 0.0414254 0.0228469 0.00956958 0.00102266 -0.0106792 -0.018637 1.97342e-07 -1.29476e-08 2.69051e-07 0.0005 1.46608e-07 
102 1 0.0865114 0.0176774 0.00596015 -4.62697e-16 2.25747e-14 7.79348e-14 -1.28966e-19 -9.635e-21 1.69407e-21 0.0005 1.46608e-07 
106 1 0.0458586 0.0177828 0.0061292 4.49608e-15 2.51194e-14 1.72927e-13 -1.05879e-22 0 0 0.0005 1.46608e-07 
108 1 0.035366 0.022672 0.00929149 0.000915772 -0.012628 -0.0192555 -2.69919e-08 -6.85142e-08 -7.44385e-08 0.0005 1.46608e-07 
112 1 0.00197664 0.0139506 0.0435188 -9.69236e-317 -9.6912e-317 3.10717e-12 0 0 0 0.0005 1.46608e-07 
116 1 0.0266795 0.0148302 0.0121826 0.00205192 0.00351331 0.0156819 2.86653e-09 -1.55221e-09 -2.85765e-08 0.0005 1.46608e-07 
123 1 0.0910328 0.0189119 0.00581756 -1.02681e-14 1.48969e-14 1.99441e-13 5.8432e-20 1.32349e-23 3.38813e-21 0.0005 1.46608e-07 
125 1 0.0495951 0.0201266 0.00595173 9.44501e-15 -2.02998e-14 -2.10799e-13 -1.54319e-20 -3.36166e-21 -2.11758e-22 0.0005 1.46608e-07 
127 1 0.021313 0.0152531 0.00947567 0.000621461 -0.007641 0.0127761 6.52067e-09 -2.97669e-09 -2.34232e-08 0.0005 1.46608e-07 
128 1 0.0396566 0.0162284 0.0082479 0.00110069 0.0250363 0.0294735 -0.00436947 0.0017845 0.0118845 0.0005 1.46608e-07 
135 1 0.0795066 0.0193833 0.00575785 1.60432e-15 5.41194e-15 2.28905e-14 -2.64698e-23 -7.94093e-23 -2.11758e-22 0.0005 1.46608e-07 
136 1 0.0230403 0.0217397 0.00837536 0.00222638 -0.015951 -0.0127961 -8.31632e-10 -5.37313e-09 8.11397e-09 0.0005 1.46608e-07 
137 1 0.0208139 0.014637 0.0120274 0.00496157 0.000698226 0.00481206 -4.55323e-09 -1.31851e-08 2.17199e-08 0.0005 1.46608e-07 
138 1 0.0256117 0.0182119 0.0158797 0.00254094 0.0131522 0.00224673 -1.54112e-07 3.64091e-07 1.96667e-08 0.0005 1.46608e-07 
141 1 0.0679057 0.0197258 0.00574271 -4.2219e-15 1.99893e-14 3.40748e-13 8.89054e-21 2.44845e-21 0 0.0005 1.46608e-07 
143 1 0.0378348 0.0169728 0.0152137 0.00342581 0.0162517 0.00732486 -2.42204e-08 3.54239e-08 2.33125e-08 0.0005 1.46608e-07 
144 1 0.0288582 0.0212046 0.00777215 0.00106041 -0.0196233 -0.010157 -1.50301e-08 -3.56983e-08 -3.32403e-09 0.0005 1.46608e-07 
145 1 0.0476392 0.0232177 0.0105832 0.00238759 -0.0076138 -0.0236027 3.56589e-09 -1.58961e-08 -7.9155e-08 0.0005 1.46608e-07 
155 1 0.0428292 0.0214264 0.0150985 0.000466489 0.0192342 -0.0140082 -2.9858e-09 -3.9648e-09 -1.78652e-08 0.0005 1.46608e-07 
158 1 0.0320353 0.0162304 0.0147307 4.82223e-06 0.018852 0.0170624 2.26358e-09 1.49129e-08 -8.52039e-09 0.0005 1.46608e-07 
162 1 0.0379095 0.0187726 0.00571644 1.83331e-20 1.45333e-21 1.8267e-20 0 0 0 0.0005 1.46608e-07 
164 1 0.0302613 0.0229986 0.0131672 2.76342e-05 0.0118515 -0.0236291 -5.6004e-10 -1.24912e-08 -8.20228e-09 0.0005 1.46608e-07 
172 1 0.0316223 0.0180212 0.0156727 0.000342981 0.0240756 0.00638701 -5.52442e-10 9.78262e-09 -1.38742e-08 0.0005 1.46608e-07 
177 1 0.0420232 0.023293 0.0121333 -4.28132e-05 0.00340243 -0.0253195 -1.81125e-07 6.35562e-08 -6.02609e-08 0.0005 1.46608e-07 
180 1 0.0373424 0.0190929 0.0157779 -0.000498632 0.0261199 0.00237054 -2.0872e-09 6.66168e-10 -1.43897e-08 0.0005 1.46608e-07 
181 1 0.0351022 0.0221341 0.00844874 0.0039106 -0.00171998 -0.00575314 4.19607e-05 -3.09572e-05 -1.87076e-05 0.0005 1.46608e-07 
190 1 0.0133546 0.00211829 0.0435188 -9.71277e-317 -9.74727e-317 1.79684e-12 0 0 0 0.0005 1.46608e-07 
191 1 0.0423887 0.0227131 0.0137559 0.000279513 0.0154969 -0.0194382 -4.38509e-09 1.43485e-08 -6.35295e-08 0.0005 1.46608e-07 
197 1 0.0935581 0.0183371 0.00588747 1.06036e-14 1.89593e-14 2.48644e-13 1.52995e-20 -6.31304e-21 -2.11758e-22 0.0005 1.46608e-07 
199 1 0.0198764 0.0185463 0.0159164 -2.86953e-10 0.0239422 0.00284301 -1.42039e-15 2.33132e-09 -1.87088e-08 0.0005 1.46608e-07 
204 1 0.118145 0.0201427 0.00585321 -1.08468e-15 -1.75116e-14 8.40192e-14 -1.5412e-20 -7.41154e-22 -4.23516e-22 0.0005 1.46608e-07 
205 1 0.0442694 0.0156448 0.0140441 -0.000149664 0.0107075 0.0210897 -1.18659e-08 1.08698e-08 2.74504e-09 0.0005 1.46608e-07 
209 1 0.0326802 0.0148361 0.012202 0.00104522 0.00457812 0.0226464 -1.76762e-08 1.70873e-08 3.01498e-08 0.0005 1.46608e-07 
212 1 0.0400451 0.0176723 0.00741578 -0.00770206 -0.015315 0.0293451 0.0015485 0.004373 0.00706676 0.0005 1.46608e-07 
221 1 0.0411962 0.0223815 0.00870609 0.00195371 -0.00615746 -0.0110434 2.72871e-07 5.79279e-07 4.70081e-07 0.0005 1.46608e-07 
225 1 0.0189363 0.0213163 0.0153235 2.7645e-05 0.03422 -0.019936 2.30147e-10 1.15331e-07 -1.18316e-07 0.0005 1.46608e-07 
226 1 0.0458734 0.0161146 0.0066159 0.0358198 0.101317 -0.0812014 -1.23039e-07 2.75782e-07 -2.29488e-07 0.0005 1.46608e-07 
227 1 0.0264357 0.0152165 0.013385 0.000209421 0.0100393 0.0236775 -1.28052e-09 1.54405e-08 -3.67079e-09 0.0005 1.46608e-07 
229 1 0.0466371 0.0201563 0.00737399 0.000182888 -0.0248996 -0.00928964 7.74654e-09 -5.96574e-09 9.57178e-09 0.0005 1.46608e-07 
230 1 0.0296559 0.0233113 0.01061 0.00133398 -0.00344096 -0.0165902 -2.11905e-09 2.26544e-09 3.49584e-08 0.0005 1.46608e-07 
234 1 0.0256047 0.0192147 0.015949 0.00597528 0.0183357 -9.50844e-05 -2.9004e-07 3.87914e-07 -4.97014e-08 0.0005 1.46608e-07 
235 1 0.0426061 0.0220871 0.0145177 0.000413094 0.0179052 -0.0171666 -5.69542e-09 -4.30878e-09 -1.65568e-08 0.0005 1.46608e-07 
242 1 0.031792 0.0170478 0.015338 0.000965075 0.0145674 0.0084206 9.30181e-08 1.31402e-06 7.65533e-07 0.0005 1.46608e-07 
244 1 0.0313382 0.0190883 0.0158484 0.00139025 0.017946 0.00049921 1.89573e-09 -2.42777e-08 -1.52678e-08 0.0005 1.46608e-07 
250 1 0.0430072 0.0206815 0.0155066 0.000549006 0.0233103 -0.00727839 2.64774e-09 -8.66369e-09 -6.46606e-09 0.0005 1.46608e-07 
253 1 0.0332642 0.015164 0.00966751 0.0026723 -0.00420378 0.006866 5.41616e-09 3.46586e-08 -1.72599e-07 0.0005 1.46608e-07 
255 1 0.00841998 0.0220148 0.0065957 5.46344e-15 -2.44765e-14 6.92359e-14 -1.84031e-19 -2.41934e-20 1.16467e-20 0.0005 1.46608e-07 
257 1 0.0278674 0.0167712 0.00782293 0.00081424 -0.0187075 0.0124615 -7.03308e-09 -1.26726e-08 2.6771e-08 0.0005 1.46608e-07 
265 1 0.0416189 0.0232044 0.0104422 0.000520251 -0.00692792 -0.0214396 -7.09536e-07 -2.05129e-07 -4.64368e-07 0.0005 1.46608e-07 
266 1 0.0393537 0.0154253 0.00926468 0.000198797 -0.0144914 0.021737 -5.73764e-10 1.05431e-08 1.34631e-08 0.0005 1.46608e-07 
270 1 0.0252519 0.0201748 0.0159598 0.00552462 0.0131567 -0.0262954 0 0 -1.43822e-06 0.0005 1.46608e-07 
271 1 0.0434889 0.018498 0.0157724 0.00176113 0.0202964 0.00292652 -4.66957e-07 1.31162e-07 -3.28691e-06 0.0005 1.46608e-07 
275 1 0.0324411 0.0152187 0.0133631 7.08329e-06 0.0101533 0.0242714 -5.4288e-10 1.33688e-08 -4.96507e-09 0.0005 1.46608e-07 
278 1 0.0782288 0.0198438 0.00578293 -3.51516e-15 6.10508e-14 -2.25396e-13 -4.43369e-22 5.29396e-23 0 0.0005 1.46608e-07 
283 1 0.0300216 0.0233347 0.012096 0.000344314 0.00284372 -0.0238188 -1.94959e-09 -1.22338e-08 -1.08776e-08 0.0005 1.46608e-07 
284 1 0.0780286 0.0188727 0.00591489 -8.16192e-15 4.89594e-14 1.88192e-13 -3.17637e-22 -5.29396e-23 -2.11758e-22 0.0005 1.46608e-07 
294 1 0.0227919 0.0171078 0.00655212 2.64837e-14 -5.64314e-14 -2.04448e-13 5.29396e-23 1.58819e-22 0 0.0005 1.46608e-07 
297 1 0.0456814 0.0162685 0.00823562 0.00348553 -0.00947735 0.0062177 -1.96659e-07 -1.10269e-07 -7.48915e-07 0.0005 1.46608e-07 
298 1 0.0329156 0.0147717 0.0112373 0.00016349 -0.00260642 0.0254519 -4.89552e-09 1.30593e-08 1.87863e-08 0.0005 1.46608e-07 
300 1 0.0383904 0.0153538 0.0136246 0.000956299 0.0135648 0.0234508 -1.75097e-08 -8.62525e-08 -2.91889e-08 0.0005 1.46608e-07 
301 1 0.04223 0.0231 0.0130084 0.000184187 0.00808982 -0.0231045 -2.08002e-09 1.66913e-08 -3.14155e-08 0.0005 1.46608e-07 
303 1 0.0398797 0.016839 0.00781765 -0.0740669 0.249247 0.483724 0.143275 -0.313103 -0.349374 0.0005 1.46608e-07 
304 1 0.0370292 0.0201926 0.0156084 0.00363686 0.00966009 -0.00471782 -7.94596e-07 4.48415e-06 -1.64117e-06 0.0005 1.46608e-07 
312 1 0.0244087 0.0221721 0.01486 0.0014932 0.0127651 -0.00192416 -4.31202e-08 -1.74206e-08 -1.05913e-07 0.0005 1.46608e-07 
314 1 0.0311243 0.0200201 0.0156723 0.00038007 0.0227643 -0.00605304 -1.95599e-10 1.37121e-08 -1.86383e-08 0.0005 1.46608e-07 
315 1 0.00842114 0.0323835 0.0435188 -9.72922e-317 -9.70169e-317 -1.69736e-12 0 0 0 0.0005 1.46608e-07 
316 1 0.0450531 0.0167794 0.0062959 5.10833e-15 2.85462e-14 1.96515e-13 -2.35581e-21 5.29396e-23 0 0.0005 1.46608e-07 
318 1 0.0348943 0.0215873 0.00799541 0.00287823 -0.0109421 -0.00548714 0.000103563 -8.46329e-05 7.09352e-05 0.0005 1.46608e-07 
320 1 0.0817197 0.0176912 0.00600296 4.51307e-15 1.52769e-14 6.47201e-14 8.73503e-22 -3.17637e-22 0 0.0005 1.46608e-07 
322 1 0.0388831 0.0190336 0.00572799 3.99065e-16 -2.03358e-15 1.0025e-14 5.26749e-20 1.27055e-20 4.23516e-22 0.0005 1.46608e-07 
325 1 0.017555 0.0141137 0.0132902 0.000663072 0.000368447 -0.00142586 -2.62619e-08 -1.1031e-08 4.44274e-08 0.0005 1.46608e-07 
326 1 0.0239659 0.0233085 0.0118889 -0.000952398 0.00418803 -0.0266775 -2.62039e-10 1.13573e-08 -2.94284e-09 0.0005 1.46608e-07 
328 1 0.0344714 0.0195729 0.00741437 0.000351978 -0.0253718 -0.00441206 -2.53171e-09 -4.05801e-09 1.46482e-08 0.0005 1.46608e-07 
329 1 0.0623783 0.0182526 0.00592036 6.10062e-15 2.72019e-14 1.94806e-13 1.11107e-20 -2.56757e-21 0 0.0005 1.46608e-07 
331 1 0.062856 0.0173563 0.00601538 5.80378e-15 1.42914e-14 1.12905e-13 -1.29702e-20 1.13555e-20 -6.35275e-22 0.0005 1.46608e-07 
333 1 0.0403515 0.0190379 0.00716681 0.000280935 -0.0251814 -0.000916334 9.50786e-11 -3.39129e-09 1.41985e-08 0.0005 1.46608e-07 
338 1 0.0290801 0.0220256 0.00833388 0.000213986 -0.0180722 -0.0177941 -4.04273e-09 -1.47145e-08 6.43696e-09 0.0005 1.46608e-07 
340 1 0.0407556 0.0207652 0.0075097 0.000479008 -0.018946 -0.00897823 3.12891e-09 -1.37011e-08 4.15809e-08 0.0005 1.46608e-07 
